/*--------------------------------*- C++ -*----------------------------------*\
| =========                 |                                                 |
| \\      /  F ield         | OpenFOAM: The Open Source CFD Toolbox           |
|  \\    /   O peration     | Version:  2312                                  |
|   \\  /    A nd           | Website:  www.openfoam.com                      |
|    \\/     M anipulation  |                                                 |
\*---------------------------------------------------------------------------*/
FoamFile
{
    version     2.0;
    format      ascii;
    arch        "LSB;label=32;scalar=64";
    class       volScalarField;
    location    "85";
    object      p;
}
// * * * * * * * * * * * * * * * * * * * * * * * * * * * * * * * * * * * * * //

dimensions      [0 2 -2 0 0 0 0];

internalField   nonuniform List<scalar> 
4800
(
5.88075e-13
-1.37489e-06
-2.45056e-06
-3.30929e-06
-4.00751e-06
-4.58327e-06
-5.06833e-06
-5.4875e-06
-5.85072e-06
-6.1712e-06
-6.45833e-06
-6.71387e-06
-6.93335e-06
-7.34823e-06
-8.86837e-06
1.79789e-08
-1.35541e-06
-2.43075e-06
-3.28996e-06
-3.98934e-06
-4.5672e-06
-5.05517e-06
-5.47845e-06
-5.8473e-06
-6.17664e-06
-6.48075e-06
-6.77418e-06
-7.07118e-06
-7.47725e-06
-8.22676e-06
3.66143e-08
-1.33514e-06
-2.41016e-06
-3.26995e-06
-3.97076e-06
-4.5507e-06
-5.0403e-06
-5.46679e-06
-5.84031e-06
-6.17604e-06
-6.48967e-06
-6.79659e-06
-7.10495e-06
-7.42384e-06
-7.73195e-06
5.50282e-08
-1.31468e-06
-2.38905e-06
-3.24911e-06
-3.9509e-06
-4.53289e-06
-5.02286e-06
-5.451e-06
-5.82684e-06
-6.1637e-06
-6.47517e-06
-6.76866e-06
-7.0369e-06
-7.25117e-06
-7.346e-06
7.46759e-08
-1.29244e-06
-2.36572e-06
-3.22561e-06
-3.92785e-06
-4.51091e-06
-5.00121e-06
-5.42806e-06
-5.80266e-06
-6.13416e-06
-6.43166e-06
-6.69384e-06
-6.90317e-06
-7.02395e-06
-7.00499e-06
9.68912e-08
-1.26708e-06
-2.33876e-06
-3.19792e-06
-3.89984e-06
-4.48237e-06
-4.97238e-06
-5.3947e-06
-5.7628e-06
-6.08147e-06
-6.35444e-06
-6.57479e-06
-6.72323e-06
-6.77248e-06
-6.69669e-06
1.23797e-07
-1.23654e-06
-2.30604e-06
-3.16369e-06
-3.8642e-06
-4.44451e-06
-4.93137e-06
-5.3463e-06
-5.70181e-06
-6.00022e-06
-6.24109e-06
-6.41622e-06
-6.51108e-06
-6.51185e-06
-6.41233e-06
1.59358e-07
-1.19706e-06
-2.26376e-06
-3.11892e-06
-3.81652e-06
-4.39254e-06
-4.8727e-06
-5.27638e-06
-5.61374e-06
-5.88618e-06
-6.09179e-06
-6.22476e-06
-6.27812e-06
-6.24974e-06
-6.14429e-06
2.10072e-07
-1.1424e-06
-2.20573e-06
-3.05724e-06
-3.75009e-06
-4.31932e-06
-4.7893e-06
-5.17742e-06
-5.4925e-06
-5.73627e-06
-5.90801e-06
-6.0063e-06
-6.0313e-06
-5.98847e-06
-5.88697e-06
2.85223e-07
-1.06345e-06
-2.12279e-06
-2.96939e-06
-3.65548e-06
-4.21527e-06
-4.67184e-06
-5.04121e-06
-5.3321e-06
-5.54796e-06
-5.69086e-06
-5.76398e-06
-5.77262e-06
-5.72608e-06
-5.63449e-06
3.96458e-07
-9.48258e-07
-2.00277e-06
-2.84307e-06
-3.5204e-06
-4.06838e-06
-4.50931e-06
-4.85867e-06
-5.12621e-06
-5.31802e-06
-5.43943e-06
-5.49717e-06
-5.49951e-06
-5.45702e-06
-5.37919e-06
5.57167e-07
-7.82523e-07
-1.83081e-06
-2.66319e-06
-3.33002e-06
-3.86458e-06
-4.28919e-06
-4.6197e-06
-4.86751e-06
-5.04144e-06
-5.14962e-06
-5.20103e-06
-5.20513e-06
-5.17233e-06
-5.11095e-06
7.8275e-07
-5.49462e-07
-1.58938e-06
-2.41208e-06
-3.06719e-06
-3.58798e-06
-3.99749e-06
-4.31266e-06
-4.5466e-06
-4.7102e-06
-4.81345e-06
-4.86641e-06
-4.87866e-06
-4.85977e-06
-4.81686e-06
1.09166e-06
-2.28751e-07
-1.25741e-06
-2.06867e-06
-2.71166e-06
-3.21991e-06
-3.61754e-06
-3.92281e-06
-4.15015e-06
-4.31166e-06
-4.41798e-06
-4.47935e-06
-4.50497e-06
-4.50346e-06
-4.48089e-06
1.50549e-06
2.03915e-07
-8.0957e-07
-1.60775e-06
-2.23915e-06
-2.73756e-06
-3.12805e-06
-3.43002e-06
-3.65872e-06
-3.82644e-06
-3.94344e-06
-4.01946e-06
-4.06319e-06
-4.08243e-06
-4.08248e-06
2.04704e-06
7.75128e-07
-2.1746e-07
-1.00065e-06
-1.62185e-06
-2.11445e-06
-2.50361e-06
-2.80923e-06
-3.04679e-06
-3.22847e-06
-3.3633e-06
-3.45991e-06
-3.52642e-06
-3.57005e-06
-3.59568e-06
2.73647e-06
1.50959e-06
5.46242e-07
-2.18716e-07
-8.30948e-07
-1.32245e-06
-1.71705e-06
-2.03376e-06
-2.28746e-06
-2.49002e-06
-2.64926e-06
-2.77237e-06
-2.86666e-06
-2.93887e-06
-2.99373e-06
3.58643e-06
2.42433e-06
1.5012e-06
7.59395e-07
1.57011e-07
-3.36477e-07
-7.4297e-07
-1.07854e-06
-1.35527e-06
-1.58548e-06
-1.77585e-06
-1.9322e-06
-2.06091e-06
-2.16804e-06
-2.25789e-06
4.5963e-06
3.52141e-06
2.65178e-06
1.93897e-06
1.34776e-06
8.53568e-07
4.36153e-07
7.77263e-08
-2.29623e-07
-4.93593e-07
-7.19985e-07
-9.14936e-07
-1.08461e-06
-1.23413e-06
-1.36694e-06
5.74181e-06
4.77541e-06
3.97252e-06
3.29517e-06
2.71647e-06
2.21887e-06
1.78839e-06
1.41231e-06
1.07766e-06
7.81307e-07
5.18974e-07
2.84444e-07
7.19475e-08
-1.22533e-07
-3.0183e-07
6.91401e-06
6.06321e-06
5.3325e-06
4.69635e-06
4.13413e-06
3.63005e-06
3.17794e-06
2.77352e-06
2.41094e-06
2.08077e-06
1.77739e-06
1.49579e-06
1.23235e-06
9.84911e-07
7.51556e-07
7.92522e-06
7.17618e-06
6.51216e-06
5.91478e-06
5.37223e-06
4.87673e-06
4.41578e-06
3.98447e-06
3.58423e-06
3.21891e-06
2.87849e-06
2.55475e-06
2.24533e-06
1.94991e-06
1.6672e-06
8.69633e-06
8.02259e-06
7.40697e-06
6.83865e-06
6.30832e-06
5.80867e-06
5.33398e-06
4.8963e-06
4.48307e-06
4.09306e-06
3.72079e-06
3.36208e-06
3.01561e-06
2.6808e-06
2.35632e-06
9.25723e-06
8.63988e-06
8.06161e-06
7.51635e-06
6.99953e-06
6.50887e-06
6.04438e-06
5.59183e-06
5.16255e-06
4.75037e-06
4.35157e-06
3.9643e-06
3.58726e-06
3.2194e-06
2.85954e-06
9.65357e-06
9.07911e-06
8.53084e-06
8.00605e-06
7.50245e-06
7.01781e-06
6.5498e-06
6.09501e-06
5.65386e-06
5.22461e-06
4.80571e-06
4.39587e-06
3.99385e-06
3.59874e-06
3.20974e-06
9.92437e-06
9.38315e-06
8.85933e-06
8.35169e-06
7.85835e-06
7.37801e-06
6.90853e-06
6.44935e-06
5.99931e-06
5.55768e-06
5.1235e-06
4.69579e-06
4.27372e-06
3.85672e-06
3.44429e-06
1.01026e-05
9.58736e-06
9.08289e-06
8.58852e-06
8.10302e-06
7.62586e-06
7.15704e-06
6.69467e-06
6.2382e-06
5.78719e-06
5.34103e-06
4.89916e-06
4.46114e-06
4.02668e-06
3.59548e-06
1.02152e-05
9.72047e-06
9.23135e-06
8.74777e-06
8.26935e-06
7.79591e-06
7.32746e-06
6.86265e-06
6.40116e-06
5.94276e-06
5.48714e-06
5.03407e-06
4.58337e-06
4.13497e-06
3.68874e-06
1.02836e-05
9.80519e-06
9.3286e-06
8.85417e-06
8.38191e-06
7.91176e-06
7.44365e-06
6.97696e-06
6.51154e-06
6.04731e-06
5.58419e-06
5.1222e-06
4.66133e-06
4.20169e-06
3.74335e-06
1.03233e-05
9.85842e-06
9.39223e-06
8.92548e-06
8.45843e-06
7.99107e-06
7.52342e-06
7.05531e-06
6.58675e-06
6.11784e-06
5.64866e-06
5.1794e-06
4.71023e-06
4.24142e-06
3.77317e-06
1.03457e-05
9.89198e-06
9.43452e-06
8.97428e-06
8.5116e-06
8.04659e-06
7.57942e-06
7.11021e-06
6.63908e-06
6.16628e-06
5.69206e-06
5.21675e-06
4.74065e-06
4.26419e-06
3.78768e-06
1.03581e-05
9.91381e-06
9.46374e-06
9.00904e-06
8.55005e-06
8.08702e-06
7.62028e-06
7.15014e-06
6.67681e-06
6.20068e-06
5.72216e-06
5.24167e-06
4.75968e-06
4.27669e-06
3.79316e-06
1.03652e-05
9.92902e-06
9.48527e-06
9.03528e-06
8.57942e-06
8.11805e-06
7.65161e-06
7.18064e-06
6.70534e-06
6.2263e-06
5.74401e-06
5.25902e-06
4.77189e-06
4.28323e-06
3.79359e-06
1.037e-05
9.94072e-06
9.50239e-06
9.05643e-06
8.60322e-06
8.14322e-06
7.67694e-06
7.20521e-06
6.72813e-06
6.24646e-06
5.76081e-06
5.27183e-06
4.78015e-06
4.28648e-06
3.79145e-06
1.03739e-05
9.95067e-06
9.51704e-06
9.07452e-06
8.62357e-06
8.16465e-06
7.69845e-06
7.22599e-06
6.74724e-06
6.26319e-06
5.77452e-06
5.28195e-06
4.7862e-06
4.28805e-06
3.78822e-06
1.03778e-05
9.95979e-06
9.53023e-06
9.09067e-06
8.64161e-06
8.1835e-06
7.71746e-06
7.24419e-06
6.7639e-06
6.27766e-06
5.78624e-06
5.29042e-06
4.79101e-06
4.28885e-06
3.78471e-06
1.03819e-05
9.96847e-06
9.54242e-06
9.10539e-06
8.65792e-06
8.20044e-06
7.73458e-06
7.26042e-06
6.77872e-06
6.29049e-06
5.79657e-06
5.29783e-06
4.79512e-06
4.28935e-06
3.78136e-06
1.03864e-05
9.97694e-06
9.55393e-06
9.11906e-06
8.67292e-06
8.21597e-06
7.75014e-06
7.27517e-06
6.79216e-06
6.30211e-06
5.80595e-06
5.30456e-06
4.79886e-06
4.28981e-06
3.7783e-06
1.03915e-05
9.98572e-06
9.56548e-06
9.13257e-06
8.68764e-06
8.2312e-06
7.7652e-06
7.28947e-06
6.80517e-06
6.31335e-06
5.81505e-06
5.31114e-06
4.80257e-06
4.29037e-06
3.77547e-06
1.03968e-05
9.99468e-06
9.57728e-06
9.14635e-06
8.70257e-06
8.24659e-06
7.78037e-06
7.30386e-06
6.81825e-06
6.32468e-06
5.82402e-06
5.3175e-06
4.80613e-06
4.29098e-06
3.77299e-06
-1.00394e-05
-7.79981e-06
-6.4327e-06
-5.51387e-06
-4.78245e-06
-4.23111e-06
-3.81665e-06
-3.51187e-06
-3.29892e-06
-3.16351e-06
-3.09368e-06
-3.07873e-06
-3.10865e-06
-3.17401e-06
-3.26543e-06
-3.37377e-06
-3.49056e-06
-3.60871e-06
-3.72693e-06
-3.84791e-06
-3.98134e-06
-4.12607e-06
-4.22004e-06
-4.15166e-06
-3.84314e-06
-3.26578e-06
-2.41027e-06
-1.28609e-06
8.56624e-08
1.68191e-06
3.47867e-06
5.44948e-06
7.56352e-06
9.78458e-06
1.20707e-05
1.43744e-05
1.6642e-05
1.88126e-05
2.08131e-05
2.25445e-05
2.38681e-05
2.45758e-05
2.4205e-05
2.23376e-05
1.73358e-05
-8.48976e-06
-7.2968e-06
-6.24656e-06
-5.41942e-06
-4.73378e-06
-4.19741e-06
-3.78888e-06
-3.48742e-06
-3.27731e-06
-3.14501e-06
-3.07874e-06
-3.06777e-06
-3.10201e-06
-3.17188e-06
-3.26791e-06
-3.38089e-06
-3.50222e-06
-3.6246e-06
-3.74629e-06
-3.86901e-06
-4.00088e-06
-4.13896e-06
-4.22084e-06
-4.13822e-06
-3.81654e-06
-3.22891e-06
-2.36614e-06
-1.23739e-06
1.35761e-07
1.72934e-06
3.51814e-06
5.47394e-06
7.56363e-06
9.74812e-06
1.19818e-05
1.42118e-05
1.63773e-05
1.84064e-05
2.02098e-05
2.16539e-05
2.2547e-05
2.25626e-05
2.10478e-05
1.72244e-05
9.91193e-06
-7.67633e-06
-6.91014e-06
-6.05729e-06
-5.31634e-06
-4.67775e-06
-4.16181e-06
-3.76219e-06
-3.46543e-06
-3.25867e-06
-3.12957e-06
-3.0668e-06
-3.05972e-06
-3.09814e-06
-3.17242e-06
-3.27298e-06
-3.39051e-06
-3.51631e-06
-3.64283e-06
-3.76785e-06
-3.892e-06
-4.02166e-06
-4.15192e-06
-4.21992e-06
-4.12125e-06
-3.78501e-06
-3.18644e-06
-2.31654e-06
-1.18416e-06
1.88425e-07
1.77609e-06
3.55207e-06
5.48595e-06
7.54177e-06
9.67685e-06
1.18409e-05
1.39751e-05
1.60098e-05
1.78606e-05
1.94173e-05
2.0535e-05
2.09775e-05
2.03963e-05
1.82242e-05
1.403e-05
7.64088e-06
-7.16963e-06
-6.59786e-06
-5.90108e-06
-5.22723e-06
-4.63319e-06
-4.13841e-06
-3.74742e-06
-3.45434e-06
-3.24948e-06
-3.12206e-06
-3.06139e-06
-3.05698e-06
-3.09862e-06
-3.17656e-06
-3.28109e-06
-3.40277e-06
-3.53275e-06
-3.66316e-06
-3.79125e-06
-3.91641e-06
-4.0431e-06
-4.16418e-06
-4.2163e-06
-4.0993e-06
-3.74635e-06
-3.13519e-06
-2.25705e-06
-1.12058e-06
2.50887e-07
1.83069e-06
3.5901e-06
5.49592e-06
7.50868e-06
9.58137e-06
1.16583e-05
1.36738e-05
1.55494e-05
1.719e-05
1.84735e-05
1.9241e-05
1.9267e-05
1.82598e-05
1.58575e-05
1.18699e-05
6.58681e-06
-6.78877e-06
-6.33318e-06
-5.75709e-06
-5.16273e-06
-4.60913e-06
-4.13521e-06
-3.75199e-06
-3.46085e-06
-3.2556e-06
-3.12738e-06
-3.06647e-06
-3.06267e-06
-3.10577e-06
-3.18595e-06
-3.29333e-06
-3.41829e-06
-3.55176e-06
-3.68553e-06
-3.81617e-06
-3.94171e-06
-4.06449e-06
-4.17488e-06
-4.20906e-06
-4.07163e-06
-3.70033e-06
-3.07576e-06
-2.18943e-06
-1.04984e-06
3.1819e-07
1.88611e-06
3.62284e-06
5.49199e-06
7.45012e-06
9.44546e-06
1.14168e-05
1.32917e-05
1.49848e-05
1.63934e-05
1.73921e-05
1.78277e-05
1.75132e-05
1.6248e-05
1.3858e-05
1.03415e-05
6.04314e-06
-6.48142e-06
-6.10855e-06
-5.62429e-06
-5.11027e-06
-4.60487e-06
-4.15388e-06
-3.77961e-06
-3.48981e-06
-3.28218e-06
-3.15049e-06
-3.0865e-06
-3.08056e-06
-3.12266e-06
-3.20294e-06
-3.31139e-06
-3.43814e-06
-3.57391e-06
-3.71002e-06
-3.84229e-06
-3.96726e-06
-4.08485e-06
-4.1828e-06
-4.19679e-06
-4.03686e-06
-3.64583e-06
-3.00761e-06
-2.11402e-06
-9.73391e-07
3.87456e-07
1.93765e-06
3.6435e-06
5.46509e-06
7.35474e-06
9.25593e-06
1.11023e-05
1.28163e-05
1.43081e-05
1.54737e-05
1.61947e-05
1.63399e-05
1.57747e-05
1.43897e-05
1.21434e-05
9.14149e-06
5.69223e-06
-6.21421e-06
-5.9063e-06
-5.50528e-06
-5.05789e-06
-4.60892e-06
-4.18894e-06
-3.82884e-06
-3.5424e-06
-3.33201e-06
-3.19501e-06
-3.12529e-06
-3.11424e-06
-3.15234e-06
-3.22999e-06
-3.33706e-06
-3.46351e-06
-3.59978e-06
-3.73668e-06
-3.8692e-06
-3.99219e-06
-4.10295e-06
-4.18637e-06
-4.17774e-06
-3.99321e-06
-3.58129e-06
-2.92977e-06
-2.0306e-06
-8.92043e-07
4.56543e-07
1.98144e-06
3.6462e-06
5.40724e-06
7.21268e-06
9.00176e-06
1.07042e-05
1.22397e-05
1.35184e-05
1.44418e-05
1.49076e-05
1.48161e-05
1.40867e-05
1.26823e-05
1.06377e-05
8.09145e-06
5.28841e-06
-5.9681e-06
-5.71282e-06
-5.38321e-06
-5.00438e-06
-4.61e-06
-4.23012e-06
-3.89229e-06
-3.61435e-06
-3.40336e-06
-3.26116e-06
-3.18435e-06
-3.1657e-06
-3.19686e-06
-3.26884e-06
-3.37168e-06
-3.49518e-06
-3.62962e-06
-3.76523e-06
-3.89608e-06
-4.01525e-06
-4.11712e-06
-4.18368e-06
-4.14988e-06
-3.93879e-06
-3.50528e-06
-2.84168e-06
-1.93988e-06
-8.07759e-07
5.21861e-07
2.0118e-06
3.623e-06
5.3084e-06
7.01242e-06
8.67112e-06
1.02124e-05
1.15568e-05
1.26193e-05
1.33123e-05
1.35565e-05
1.32864e-05
1.24664e-05
1.11071e-05
9.27829e-06
7.11336e-06
4.79668e-06
-5.73354e-06
-5.52197e-06
-5.25246e-06
-4.93794e-06
-4.60075e-06
-4.26611e-06
-3.95844e-06
-3.69597e-06
-3.489e-06
-3.34449e-06
-3.26136e-06
-3.23394e-06
-3.25594e-06
-3.31957e-06
-3.41529e-06
-3.53299e-06
-3.6629e-06
-3.79474e-06
-3.92162e-06
-4.03472e-06
-4.12534e-06
-4.17256e-06
-4.1112e-06
-3.87197e-06
-3.41695e-06
-2.74382e-06
-1.84433e-06
-7.24341e-07
5.77586e-07
2.02041e-06
3.56315e-06
5.15596e-06
6.74049e-06
8.25142e-06
9.61758e-06
1.07641e-05
1.16169e-05
1.21003e-05
1.21631e-05
1.17691e-05
1.09152e-05
9.63846e-06
8.0173e-06
6.16625e-06
4.22082e-06
-5.50372e-06
-5.32952e-06
-5.11079e-06
-4.85389e-06
-4.57283e-06
-4.28629e-06
-4.01493e-06
-3.77363e-06
-3.57712e-06
-3.43614e-06
-3.34987e-06
-3.31414e-06
-3.32607e-06
-3.3796e-06
-3.46587e-06
-3.57514e-06
-3.69786e-06
-3.82334e-06
-3.94374e-06
-4.0484e-06
-4.12531e-06
-4.15083e-06
-4.06006e-06
-3.79202e-06
-3.31661e-06
-2.63954e-06
-1.74849e-06
-6.48197e-07
6.15209e-07
1.99584e-06
3.45287e-06
4.93484e-06
6.38207e-06
7.73018e-06
8.91194e-06
9.86e-06
1.05111e-05
1.08185e-05
1.07416e-05
1.02708e-05
9.42366e-06
8.24751e-06
6.81648e-06
5.22302e-06
3.56612e-06
-5.27092e-06
-5.12972e-06
-4.95453e-06
-4.74849e-06
-4.51978e-06
-4.28227e-06
-4.04971e-06
-3.83393e-06
-3.65576e-06
-3.52587e-06
-3.4401e-06
-3.39776e-06
-3.40033e-06
-3.4434e-06
-3.51894e-06
-3.6179e-06
-3.73123e-06
-3.84806e-06
-3.9597e-06
-4.05372e-06
-4.11478e-06
-4.11687e-06
-3.99579e-06
-3.7e-06
-3.20756e-06
-2.53739e-06
-1.65989e-06
-5.87022e-07
6.22986e-07
1.92291e-06
3.27526e-06
4.62795e-06
5.92173e-06
7.09583e-06
8.09013e-06
8.84834e-06
9.32251e-06
9.47897e-06
9.29961e-06
8.78927e-06
7.9753e-06
6.9057e-06
5.64445e-06
4.26381e-06
2.83631e-06
-5.02515e-06
-4.91402e-06
-4.77702e-06
-4.61559e-06
-4.43425e-06
-4.24238e-06
-4.04842e-06
-3.86602e-06
-3.71497e-06
-3.59943e-06
-3.51685e-06
-3.4724e-06
-3.46877e-06
-3.50277e-06
-3.56778e-06
-3.65578e-06
-3.75851e-06
-3.86518e-06
-3.96641e-06
-4.04833e-06
-4.09219e-06
-4.07066e-06
-3.92e-06
-3.59853e-06
-3.10236e-06
-2.44759e-06
-1.58498e-06
-5.53249e-07
5.82038e-07
1.78172e-06
3.0106e-06
4.21703e-06
5.34464e-06
6.33879e-06
7.14872e-06
7.73043e-06
8.05009e-06
8.08742e-06
7.83824e-06
7.31609e-06
6.55109e-06
5.58673e-06
4.47547e-06
3.27274e-06
2.03204e-06
-4.75374e-06
-4.67081e-06
-4.56821e-06
-4.44646e-06
-4.3082e-06
-4.15917e-06
-4.0078e-06
-3.86368e-06
-3.73856e-06
-3.63828e-06
-3.56572e-06
-3.52555e-06
-3.52021e-06
-3.54802e-06
-3.60425e-06
-3.68221e-06
-3.77453e-06
-3.87084e-06
-3.96117e-06
-4.0309e-06
-4.05772e-06
-4.01465e-06
-3.83757e-06
-3.49674e-06
-3.01564e-06
-2.37327e-06
-1.53893e-06
-5.74556e-07
4.66613e-07
1.5489e-06
2.63768e-06
3.68422e-06
4.63802e-06
5.45259e-06
6.0875e-06
6.51073e-06
6.70071e-06
6.64741e-06
6.35481e-06
5.8403e-06
5.1325e-06
4.26821e-06
3.289e-06
2.23695e-06
1.15174e-06
-4.44104e-06
-4.38547e-06
-4.31494e-06
-4.22979e-06
-4.13158e-06
-4.02415e-06
-3.91344e-06
-3.80625e-06
-3.70997e-06
-3.63119e-06
-3.57482e-06
-3.5446e-06
-3.54263e-06
-3.56855e-06
-3.6195e-06
-3.69018e-06
-3.77412e-06
-3.86174e-06
-3.94258e-06
-4.0018e-06
-4.01485e-06
-3.95407e-06
-3.75942e-06
-3.41153e-06
-2.94418e-06
-2.33107e-06
-1.55906e-06
-6.81507e-07
2.49788e-07
1.20076e-06
2.13639e-06
3.01456e-06
3.79318e-06
4.43494e-06
4.90978e-06
5.19631e-06
5.28104e-06
5.16131e-06
4.8456e-06
4.35159e-06
3.70413e-06
2.93287e-06
2.06995e-06
1.14708e-06
1.93849e-07
-4.06728e-06
-4.03939e-06
-4.0001e-06
-3.9498e-06
-3.88947e-06
-3.82155e-06
-3.74998e-06
-3.67964e-06
-3.61601e-06
-3.5646e-06
-3.52998e-06
-3.51544e-06
-3.52306e-06
-3.55329e-06
-3.60457e-06
-3.67295e-06
-3.75283e-06
-3.83578e-06
-3.91126e-06
-3.96432e-06
-3.97034e-06
-3.8996e-06
-3.70327e-06
-3.36139e-06
-2.91769e-06
-2.3563e-06
-1.66923e-06
-8.98362e-07
-9.1699e-08
7.14829e-07
1.48922e-06
2.19769e-06
2.8068e-06
3.28924e-06
3.6231e-06
3.79524e-06
3.79734e-06
3.63148e-06
3.30791e-06
2.84247e-06
2.25527e-06
1.56935e-06
8.09078e-07
-1.77268e-09
-8.41125e-07
-3.60764e-06
-3.60921e-06
-3.60195e-06
-3.58643e-06
-3.56336e-06
-3.5344e-06
-3.50223e-06
-3.47035e-06
-3.44276e-06
-3.42354e-06
-3.41637e-06
-3.42417e-06
-3.44898e-06
-3.49158e-06
-3.55119e-06
-3.62498e-06
-3.70804e-06
-3.79305e-06
-3.87026e-06
-3.92539e-06
-3.93453e-06
-3.86819e-06
-3.68661e-06
-3.37363e-06
-2.97232e-06
-2.47951e-06
-1.89335e-06
-1.24656e-06
-5.80066e-07
7.21336e-08
6.83323e-07
1.2274e-06
1.67935e-06
2.0197e-06
2.23583e-06
2.31511e-06
2.2548e-06
2.05991e-06
1.74016e-06
1.30831e-06
7.79767e-07
1.71888e-07
-4.97107e-07
-1.20953e-06
-1.94891e-06
-3.03622e-06
-3.07023e-06
-3.0974e-06
-3.11842e-06
-3.13403e-06
-3.14548e-06
-3.15463e-06
-3.16394e-06
-3.17622e-06
-3.19441e-06
-3.22134e-06
-3.25941e-06
-3.31039e-06
-3.37518e-06
-3.45331e-06
-3.54285e-06
-3.64e-06
-3.73814e-06
-3.82787e-06
-3.89619e-06
-3.92258e-06
-3.87977e-06
-3.73376e-06
-3.47711e-06
-3.13834e-06
-2.73086e-06
-2.26197e-06
-1.75306e-06
-1.23553e-06
-7.38742e-07
-2.8566e-07
1.04369e-07
4.16628e-07
6.38179e-07
7.56285e-07
7.62475e-07
6.57589e-07
4.47704e-07
1.40638e-07
-2.54402e-07
-7.26245e-07
-1.26209e-06
-1.84853e-06
-2.47258e-06
-3.12205e-06
-2.33597e-06
-2.40674e-06
-2.472e-06
-2.53276e-06
-2.59001e-06
-2.64483e-06
-2.69858e-06
-2.75298e-06
-2.80998e-06
-2.87173e-06
-2.94031e-06
-3.01754e-06
-3.10489e-06
-3.20303e-06
-3.31173e-06
-3.42977e-06
-3.55331e-06
-3.67847e-06
-3.79856e-06
-3.8967e-06
-3.95605e-06
-3.95898e-06
-3.87421e-06
-3.69724e-06
-3.44875e-06
-3.14758e-06
-2.80611e-06
-2.44021e-06
-2.0712e-06
-1.72136e-06
-1.4122e-06
-1.15885e-06
-9.68e-07
-8.46233e-07
-8.06579e-07
-8.54759e-07
-9.8807e-07
-1.2012e-06
-1.48893e-06
-1.84519e-06
-2.26213e-06
-2.73047e-06
-3.24059e-06
-3.7832e-06
-4.34947e-06
-1.4886e-06
-1.60361e-06
-1.71386e-06
-1.82075e-06
-1.92556e-06
-2.02945e-06
-2.13352e-06
-2.23906e-06
-2.34752e-06
-2.46043e-06
-2.5794e-06
-2.70573e-06
-2.84053e-06
-2.98454e-06
-3.13719e-06
-3.29775e-06
-3.46497e-06
-3.63106e-06
-3.79171e-06
-3.9436e-06
-4.06385e-06
-4.13406e-06
-4.1358e-06
-4.06255e-06
-3.92849e-06
-3.75062e-06
-3.54258e-06
-3.31777e-06
-3.09162e-06
-2.87897e-06
-2.69477e-06
-2.55052e-06
-2.45624e-06
-2.41556e-06
-2.43682e-06
-2.52177e-06
-2.66811e-06
-2.87356e-06
-3.1358e-06
-3.451e-06
-3.8135e-06
-4.21678e-06
-4.65423e-06
-5.11947e-06
-5.60629e-06
-4.72264e-07
-6.38825e-07
-8.02804e-07
-9.6505e-07
-1.12673e-06
-1.289e-06
-1.45291e-06
-1.61951e-06
-1.78993e-06
-1.96527e-06
-2.14668e-06
-2.33514e-06
-2.53146e-06
-2.73618e-06
-2.94897e-06
-3.16938e-06
-3.39606e-06
-3.62322e-06
-3.8472e-06
-4.06704e-06
-4.26661e-06
-4.42839e-06
-4.53816e-06
-4.58649e-06
-4.58128e-06
-4.53536e-06
-4.46157e-06
-4.37072e-06
-4.27397e-06
-4.1862e-06
-4.11551e-06
-4.06242e-06
-4.0334e-06
-4.04843e-06
-4.11055e-06
-4.21558e-06
-4.36179e-06
-4.55013e-06
-4.78067e-06
-5.05106e-06
-5.35742e-06
-5.69553e-06
-6.06131e-06
-6.45071e-06
-6.85948e-06
5.26262e-07
3.03814e-07
8.26717e-08
-1.38086e-07
-3.59605e-07
-5.82986e-07
-8.09221e-07
-1.03922e-06
-1.27385e-06
-1.51398e-06
-1.76045e-06
-2.01404e-06
-2.27538e-06
-2.54485e-06
-2.8224e-06
-3.1075e-06
-3.39885e-06
-3.69377e-06
-3.98933e-06
-4.28121e-06
-4.56089e-06
-4.81943e-06
-5.03757e-06
-5.20103e-06
-5.31352e-06
-5.38462e-06
-5.4246e-06
-5.44268e-06
-5.44764e-06
-5.44874e-06
-5.45075e-06
-5.47038e-06
-5.50728e-06
-5.56868e-06
-5.65539e-06
-5.76704e-06
-5.90555e-06
-6.07317e-06
-6.27035e-06
-6.49577e-06
-6.74741e-06
-7.02313e-06
-7.32074e-06
-7.63784e-06
-7.97176e-06
1.39114e-06
1.11606e-06
8.40528e-07
5.64027e-07
2.85684e-07
4.5409e-09
-2.80286e-07
-5.69555e-07
-8.63951e-07
-1.16413e-06
-1.47073e-06
-1.78434e-06
-2.10545e-06
-2.43432e-06
-2.77092e-06
-3.11478e-06
-3.46501e-06
-3.81973e-06
-4.17627e-06
-4.53151e-06
-4.88052e-06
-5.21689e-06
-5.51934e-06
-5.76991e-06
-5.96996e-06
-6.12712e-06
-6.24959e-06
-6.34633e-06
-6.426e-06
-6.49513e-06
-6.5623e-06
-6.62607e-06
-6.7026e-06
-6.79121e-06
-6.89134e-06
-7.00551e-06
-7.13677e-06
-7.28687e-06
-7.45623e-06
-7.64459e-06
-7.85147e-06
-8.07614e-06
-8.31762e-06
-8.57467e-06
-8.84581e-06
2.03678e-06
1.71694e-06
1.39545e-06
1.07195e-06
7.45745e-07
4.16097e-07
8.23348e-08
-2.56098e-07
-5.99695e-07
-9.48925e-07
-1.30425e-06
-1.66608e-06
-2.03472e-06
-2.4103e-06
-2.79273e-06
-3.18157e-06
-3.576e-06
-3.97462e-06
-4.37545e-06
-4.77593e-06
-5.1722e-06
-5.5594e-06
-5.91631e-06
-6.22322e-06
-6.48015e-06
-6.6938e-06
-6.87144e-06
-7.02077e-06
-7.14889e-06
-7.26123e-06
-7.36404e-06
-7.46246e-06
-7.56126e-06
-7.66193e-06
-7.7669e-06
-7.8794e-06
-8.00188e-06
-8.13574e-06
-8.28187e-06
-8.44091e-06
-8.61322e-06
-8.79881e-06
-8.99737e-06
-9.20839e-06
-9.43119e-06
2.50316e-06
2.14559e-06
1.78563e-06
1.423e-06
1.05718e-06
6.8769e-07
3.14093e-07
-6.39521e-08
-4.46751e-07
-8.34592e-07
-1.22775e-06
-1.62644e-06
-2.0308e-06
-2.44081e-06
-2.85626e-06
-3.2767e-06
-3.70138e-06
-4.1291e-06
-4.55821e-06
-4.98638e-06
-5.41059e-06
-5.82711e-06
-6.21543e-06
-6.55567e-06
-6.84753e-06
-7.09705e-06
-7.31048e-06
-7.49412e-06
-7.65385e-06
-7.79526e-06
-7.92342e-06
-8.04228e-06
-8.15472e-06
-8.26395e-06
-8.37316e-06
-8.48491e-06
-8.60116e-06
-8.72351e-06
-8.85336e-06
-8.99177e-06
-9.13952e-06
-9.29705e-06
-9.46458e-06
-9.64218e-06
-9.82976e-06
2.82311e-06
2.43472e-06
2.04352e-06
1.64931e-06
1.25181e-06
8.50741e-07
4.45924e-07
3.72133e-08
-3.75517e-07
-7.92376e-07
-1.21345e-06
-1.63879e-06
-2.06834e-06
-2.50193e-06
-2.93928e-06
-3.37984e-06
-3.82287e-06
-4.26726e-06
-4.71152e-06
-5.1537e-06
-5.59135e-06
-6.02135e-06
-6.42454e-06
-6.78217e-06
-7.09387e-06
-7.36503e-06
-7.60104e-06
-7.80702e-06
-7.98797e-06
-8.14894e-06
-8.29418e-06
-8.42667e-06
-8.5496e-06
-8.66626e-06
-8.77932e-06
-8.89103e-06
-9.00339e-06
-9.11826e-06
-9.2372e-06
-9.3615e-06
-9.49219e-06
-9.63008e-06
-9.7758e-06
-9.92979e-06
-1.00924e-05
3.03329e-06
2.62016e-06
2.20405e-06
1.78489e-06
1.3626e-06
9.37135e-07
5.08498e-07
7.67318e-08
-3.58122e-07
-7.96004e-07
-1.23684e-06
-1.68049e-06
-2.12676e-06
-2.57536e-06
-3.02587e-06
-3.47769e-06
-3.93007e-06
-4.38195e-06
-4.83202e-06
-5.27858e-06
-5.71959e-06
-6.15235e-06
-6.55952e-06
-6.92411e-06
-7.24575e-06
-7.52914e-06
-7.77892e-06
-7.99936e-06
-8.19449e-06
-8.3686e-06
-8.52559e-06
-8.66824e-06
-8.79946e-06
-8.92205e-06
-9.03846e-06
-9.15092e-06
-9.26151e-06
-9.37211e-06
-9.48435e-06
-9.59968e-06
-9.71931e-06
-9.84433e-06
-9.97562e-06
-1.01139e-05
-1.02599e-05
3.16496e-06
2.73213e-06
2.29636e-06
1.85774e-06
1.41634e-06
9.72322e-07
5.25854e-07
7.71304e-08
-3.73655e-07
-8.26296e-07
-1.28057e-06
-1.73618e-06
-2.19283e-06
-2.65008e-06
-3.10744e-06
-3.56425e-06
-4.01976e-06
-4.47294e-06
-4.92264e-06
-5.36734e-06
-5.8053e-06
-6.2342e-06
-6.6387e-06
-7.00381e-06
-7.32918e-06
-7.61875e-06
-7.87634e-06
-8.10568e-06
-8.31033e-06
-8.49368e-06
-8.65914e-06
-8.80935e-06
-8.94694e-06
-9.0744e-06
-9.19409e-06
-9.30818e-06
-9.41871e-06
-9.52753e-06
-9.63631e-06
-9.7466e-06
-9.85978e-06
-9.97707e-06
-1.00996e-05
-1.02282e-05
-1.03639e-05
3.2426e-06
2.79415e-06
2.34295e-06
1.88923e-06
1.43321e-06
9.75196e-07
5.15511e-07
5.44739e-08
-4.07594e-07
-8.70357e-07
-1.33346e-06
-1.79651e-06
-2.25906e-06
-2.72062e-06
-3.1806e-06
-3.63832e-06
-4.09301e-06
-4.54369e-06
-4.98931e-06
-5.42849e-06
-5.85979e-06
-6.28117e-06
-6.67928e-06
-7.04121e-06
-7.36648e-06
-7.65832e-06
-7.91993e-06
-8.15462e-06
-8.36547e-06
-8.55525e-06
-8.72687e-06
-8.8828e-06
-9.02546e-06
-9.15717e-06
-9.28013e-06
-9.39643e-06
-9.50802e-06
-9.61674e-06
-9.72431e-06
-9.83233e-06
-9.94227e-06
-1.00555e-05
-1.01732e-05
-1.02966e-05
-1.04266e-05
3.28468e-06
2.82377e-06
2.36039e-06
1.89488e-06
1.4276e-06
9.58979e-07
4.89456e-07
1.94573e-08
-4.50587e-07
-9.20234e-07
-1.38902e-06
-1.85645e-06
-2.32201e-06
-2.7851e-06
-3.24511e-06
-3.70131e-06
-4.15292e-06
-4.599e-06
-5.03859e-06
-5.47043e-06
-5.89331e-06
-6.30544e-06
-6.69535e-06
-7.05207e-06
-7.37497e-06
-7.66668e-06
-7.92996e-06
-8.16761e-06
-8.38221e-06
-8.57648e-06
-8.75265e-06
-8.91302e-06
-9.05981e-06
-9.19519e-06
-9.32123e-06
-9.43994e-06
-9.5532e-06
-9.66284e-06
-9.7706e-06
-9.87811e-06
-9.98691e-06
-1.00985e-05
-1.02141e-05
-1.03351e-05
-1.04625e-05
3.30428e-06
2.83329e-06
2.36014e-06
1.88527e-06
1.40917e-06
9.32361e-07
4.55376e-07
-2.12658e-08
-4.97041e-07
-9.71413e-07
-1.44383e-06
-1.91373e-06
-2.3805e-06
-2.8435e-06
-3.30207e-06
-3.75545e-06
-4.20287e-06
-4.64341e-06
-5.07617e-06
-5.5e-06
-5.91389e-06
-6.31623e-06
-6.69729e-06
-7.04782e-06
-7.36712e-06
-7.65729e-06
-7.92071e-06
-8.15978e-06
-8.37665e-06
-8.57394e-06
-8.75342e-06
-8.91723e-06
-9.06734e-06
-9.20579e-06
-9.33459e-06
-9.45564e-06
-9.57079e-06
-9.68185e-06
-9.79056e-06
-9.89858e-06
-1.00075e-05
-1.01189e-05
-1.02341e-05
-1.03546e-05
-1.04814e-05
3.31029e-06
2.83097e-06
2.34981e-06
1.86733e-06
1.38413e-06
9.00818e-07
4.18001e-07
-6.37214e-08
-5.43746e-07
-1.02146e-06
-1.49624e-06
-1.96745e-06
-2.43442e-06
-2.89647e-06
-3.35289e-06
-3.8029e-06
-4.24573e-06
-4.68049e-06
-5.10633e-06
-5.52219e-06
-5.92719e-06
-6.31988e-06
-6.69212e-06
-7.03618e-06
-7.35129e-06
-7.63914e-06
-7.90179e-06
-8.1413e-06
-8.35956e-06
-8.55876e-06
-8.74056e-06
-8.907e-06
-9.05972e-06
-9.20069e-06
-9.33184e-06
-9.45501e-06
-9.57201e-06
-9.68463e-06
-9.79461e-06
-9.90364e-06
-1.00134e-05
-1.01254e-05
-1.02412e-05
-1.03621e-05
-1.04896e-05
3.30855e-06
2.82217e-06
2.33426e-06
1.84543e-06
1.35635e-06
8.67707e-07
3.80168e-07
-1.05597e-07
-5.88916e-07
-1.06911e-06
-1.54549e-06
-2.01737e-06
-2.48403e-06
-2.94474e-06
-3.39876e-06
-3.8453e-06
-4.28358e-06
-4.71274e-06
-5.13195e-06
-5.54025e-06
-5.93686e-06
-6.32046e-06
-6.68428e-06
-7.02198e-06
-7.33273e-06
-7.61792e-06
-7.87929e-06
-8.11862e-06
-8.33759e-06
-8.538e-06
-8.72133e-06
-8.88978e-06
-9.04453e-06
-9.18749e-06
-9.32058e-06
-9.44556e-06
-9.56421e-06
-9.67831e-06
-9.78959e-06
-9.89979e-06
-1.00106e-05
-1.01236e-05
-1.02403e-05
-1.03624e-05
-1.0491e-05
3.30272e-06
2.81025e-06
2.31653e-06
1.82226e-06
1.32818e-06
8.35024e-07
3.43523e-07
-1.45592e-07
-6.31589e-07
-1.11373e-06
-1.59129e-06
-2.06351e-06
-2.52963e-06
-2.98891e-06
-3.44055e-06
-3.88377e-06
-4.31777e-06
-4.74172e-06
-5.15483e-06
-5.55617e-06
-5.94507e-06
-6.32031e-06
-6.67634e-06
-7.00801e-06
-7.31449e-06
-7.59692e-06
-7.85677e-06
-8.09556e-06
-8.31477e-06
-8.51591e-06
-8.70015e-06
-8.87014e-06
-9.02647e-06
-9.17096e-06
-9.30558e-06
-9.43203e-06
-9.55206e-06
-9.66743e-06
-9.7799e-06
-9.89121e-06
-1.00031e-05
-1.01171e-05
-1.0235e-05
-1.03583e-05
-1.04883e-05
3.29507e-06
2.79724e-06
2.29844e-06
1.79942e-06
1.30097e-06
8.03896e-07
3.08971e-07
-1.83019e-07
-6.71292e-07
-1.15507e-06
-1.63355e-06
-2.10597e-06
-2.57152e-06
-3.02941e-06
-3.47884e-06
-3.91901e-06
-4.34912e-06
-4.76836e-06
-5.17595e-06
-5.57101e-06
-5.95295e-06
-6.32064e-06
-6.66958e-06
-6.99568e-06
-7.29814e-06
-7.57787e-06
-7.83611e-06
-8.07415e-06
-8.29331e-06
-8.4947e-06
-8.67971e-06
-8.85072e-06
-9.00826e-06
-9.1539e-06
-9.28969e-06
-9.41728e-06
-9.53839e-06
-9.65479e-06
-9.76824e-06
-9.88049e-06
-9.99329e-06
-1.01083e-05
-1.02273e-05
-1.03518e-05
-1.04832e-05
3.28692e-06
2.78433e-06
2.281e-06
1.77776e-06
1.27545e-06
7.74908e-07
2.76958e-07
-2.17568e-07
-7.07841e-07
-1.19304e-06
-1.67233e-06
-2.14489e-06
-2.60991e-06
-3.06655e-06
-3.514e-06
-3.95145e-06
-4.37809e-06
-4.79312e-06
-5.19579e-06
-5.58528e-06
-5.96101e-06
-6.32194e-06
-6.6645e-06
-6.98553e-06
-7.28429e-06
-7.56148e-06
-7.81812e-06
-8.0553e-06
-8.2742e-06
-8.4755e-06
-8.66132e-06
-8.83291e-06
-8.99135e-06
-9.13781e-06
-9.27446e-06
-9.4029e-06
-9.52483e-06
-9.642e-06
-9.7562e-06
-9.8692e-06
-9.98277e-06
-1.00986e-05
-1.02185e-05
-1.0344e-05
-1.04767e-05
3.27901e-06
2.77215e-06
2.26478e-06
1.75777e-06
1.252e-06
7.48347e-07
2.47688e-07
-2.49109e-07
-7.41178e-07
-1.22766e-06
-1.70768e-06
-2.1804e-06
-2.64496e-06
-3.10051e-06
-3.54622e-06
-3.98127e-06
-4.40486e-06
-4.81619e-06
-5.21453e-06
-5.59908e-06
-5.96932e-06
-6.32427e-06
-6.66113e-06
-6.97762e-06
-7.27302e-06
-7.54787e-06
-7.80298e-06
-8.03929e-06
-8.25779e-06
-8.45891e-06
-8.64536e-06
-8.81734e-06
-8.97635e-06
-9.12341e-06
-9.26067e-06
-9.38971e-06
-9.51222e-06
-9.62995e-06
-9.74468e-06
-9.85822e-06
-9.97236e-06
-1.00889e-05
-1.02095e-05
-1.03359e-05
-1.04696e-05
3.27172e-06
2.76103e-06
2.25004e-06
1.73965e-06
1.23078e-06
7.24343e-07
2.21252e-07
-2.77591e-07
-7.71283e-07
-1.25893e-06
-1.73964e-06
-2.21253e-06
-2.67672e-06
-3.13135e-06
-3.57557e-06
-4.00854e-06
-4.42947e-06
-4.83757e-06
-5.23212e-06
-5.61235e-06
-5.97778e-06
-6.32746e-06
-6.65928e-06
-6.97172e-06
-7.26413e-06
-7.53686e-06
-7.79057e-06
-8.02602e-06
-8.2441e-06
-8.4451e-06
-8.63175e-06
-8.80411e-06
-8.96343e-06
-9.11096e-06
-9.24862e-06
-9.37807e-06
-9.50097e-06
-9.61906e-06
-9.73414e-06
-9.84803e-06
-9.96256e-06
-1.00795e-05
-1.02007e-05
-1.03278e-05
-1.04624e-05
3.26509e-06
2.75094e-06
2.23668e-06
1.72324e-06
1.21157e-06
7.02618e-07
1.97324e-07
-3.03377e-07
-7.98552e-07
-1.28728e-06
-1.76864e-06
-2.24172e-06
-2.70563e-06
-3.15948e-06
-3.60242e-06
-4.03359e-06
-4.45222e-06
-4.85749e-06
-5.24872e-06
-5.62516e-06
-5.98635e-06
-6.33136e-06
-6.65869e-06
-6.96751e-06
-7.25723e-06
-7.52805e-06
-7.78047e-06
-8.01513e-06
-8.2328e-06
-8.43373e-06
-8.62035e-06
-8.79299e-06
-8.9525e-06
-9.10034e-06
-9.23826e-06
-9.36795e-06
-9.49107e-06
-9.60936e-06
-9.72463e-06
-9.83872e-06
-9.95347e-06
-1.00707e-05
-1.01923e-05
-1.03199e-05
-1.04552e-05
3.25883e-06
2.74137e-06
2.22398e-06
1.70762e-06
1.19326e-06
6.819e-07
1.7449e-07