/*--------------------------------*- C++ -*----------------------------------*\
| =========                 |                                                 |
| \\      /  F ield         | OpenFOAM: The Open Source CFD Toolbox           |
|  \\    /   O peration     | Version:  2312                                  |
|   \\  /    A nd           | Website:  www.openfoam.com                      |
|    \\/     M anipulation  |                                                 |
\*---------------------------------------------------------------------------*/
FoamFile
{
    version     2.0;
    format      ascii;
    arch        "LSB;label=32;scalar=64";
    class       surfaceScalarField;
    location    "85";
    object      phi;
}
// * * * * * * * * * * * * * * * * * * * * * * * * * * * * * * * * * * * * * //

dimensions      [0 3 -1 0 0 0 0];

oriented        oriented;

internalField   nonuniform List<scalar> 
9445
(
5.71182e-10
1.56022e-11
5.61384e-10
9.79799e-12
5.55357e-10
6.02655e-12
5.5189e-10
3.46742e-12
5.50309e-10
1.58121e-12
5.50216e-10
9.30904e-14
5.51294e-10
-1.07884e-12
5.534e-10
-2.10588e-12
5.56739e-10
-3.33833e-12
5.6164e-10
-4.90119e-12
5.69129e-10
-7.48966e-12
5.82666e-10
-1.35365e-11
6.14318e-10
-3.1652e-11
7.05985e-10
-9.16674e-11
-2.35543e-10
9.41528e-10
1.99488e-09
6.80645e-11
1.96194e-09
4.27373e-11
1.94165e-09
2.63174e-11
1.9299e-09
1.52165e-11
1.92441e-09
7.06746e-12
1.92373e-09
7.68667e-13
1.92673e-09
-4.07671e-12
1.93307e-09
-8.4455e-12
1.94324e-09
-1.35076e-11
1.95816e-09
-1.98222e-11
1.98048e-09
-2.98039e-11
2.01676e-09
-4.98153e-11
2.07973e-09
-9.46283e-11
2.18115e-09
-1.9309e-10
-3.41258e-10
2.28687e-09
3.93936e-09
1.67882e-10
3.87668e-09
1.05416e-10
3.838e-09
6.50016e-11
3.81546e-09
3.77556e-11
3.80464e-09
1.78847e-11
3.80265e-09
2.75596e-12
3.8073e-09
-8.72013e-12
3.81792e-09
-1.90691e-11
3.83505e-09
-3.06365e-11
3.85965e-09
-4.44203e-11
3.89431e-09
-6.44673e-11
3.94342e-09
-9.89202e-11
4.00952e-09
-1.60732e-10
4.07945e-09
-2.63017e-10
-3.80904e-10
4.11909e-09
6.54919e-09
3.26909e-10
6.44914e-09
2.05466e-10
6.38714e-09
1.27003e-10
6.35067e-09
7.42292e-11
6.3325e-09
3.60546e-11
6.32788e-09
7.36793e-12
6.33338e-09
-1.42111e-11
6.34752e-09
-3.32116e-11
6.37048e-09
-5.36021e-11
6.40245e-09
-7.63827e-11
6.4443e-09
-1.06323e-10
6.49568e-09
-1.50301e-10
6.55041e-09
-2.15459e-10
6.58971e-09
-3.02316e-10
-3.848e-10
6.5936e-09
1.00002e-08
5.57452e-10
9.85446e-09
3.51154e-10
9.76357e-09
2.17894e-10
9.7094e-09
1.28402e-10
9.68118e-09
6.42798e-11
9.67192e-09
1.66236e-11
9.67671e-09
-1.89992e-11
9.69278e-09
-4.92799e-11
9.71917e-09
-7.99972e-11
9.75473e-09
-1.11945e-10
9.7979e-09
-1.49484e-10
9.84425e-09
-1.96657e-10
9.88391e-09
-2.55121e-10
9.90128e-09
-3.19681e-10
-3.71627e-10
9.8881e-09
1.45012e-08
8.70026e-10
1.43021e-08
5.50217e-10
1.41767e-08
3.43292e-10
1.41007e-08
2.04365e-10
1.40593e-08
1.05743e-10
1.40427e-08
3.32266e-11
1.40443e-08
-2.06316e-11
1.40599e-08
-6.48655e-11
1.40864e-08
-1.06461e-10
1.41211e-08
-1.46696e-10
1.41603e-08
-1.88714e-10
1.41977e-08
-2.33982e-10
1.42236e-08
-2.81091e-10
1.42284e-08
-3.24421e-10
-3.53618e-10
1.42104e-08
2.02928e-08
1.26893e-09
2.00356e-08
8.07362e-10
1.98715e-08
5.07401e-10
1.97702e-08
3.05673e-10
1.97124e-08
1.63549e-10
1.96855e-08
6.01434e-11
1.9681e-08
-1.6135e-11
1.96928e-08
-7.66953e-11
1.97157e-08
-1.29321e-10
1.97454e-08
-1.76433e-10
1.97769e-08
-2.20169e-10
1.98037e-08
-2.60741e-10
1.98188e-08
-2.96248e-10
1.98175e-08
-3.23104e-10
-3.37002e-10
1.98009e-08
2.76408e-08
1.74499e-09
2.73283e-08
1.11983e-09
2.71255e-08
7.10199e-10
2.69977e-08
4.33514e-10
2.69217e-08
2.39487e-10
2.68822e-08
9.96165e-11
2.68689e-08
-2.77334e-12
2.68736e-08
-8.14327e-11
2.68895e-08
-1.45231e-10
2.69111e-08
-1.97963e-10
2.69327e-08
-2.41779e-10
2.69491e-08
-2.77134e-10
2.69561e-08
-3.03267e-10
2.6952e-08
-3.19057e-10
-3.23749e-10
2.69388e-08
3.68251e-08
2.26679e-09
3.64736e-08
1.47128e-09
3.62406e-08
9.43191e-10
3.60904e-08
5.83716e-10
3.5998e-08
3.31877e-10
3.59461e-08
1.51536e-10
3.59227e-08
2.0592e-11
3.59185e-08
-7.71521e-11
3.59254e-08
-1.52151e-10
3.59373e-08
-2.09841e-10
3.59489e-08
-2.53438e-10
3.59565e-08
-2.84686e-10
3.59577e-08
-3.04542e-10
3.59526e-08
-3.13901e-10
-3.13895e-10
3.59427e-08
4.81331e-08
2.77661e-09
4.77773e-08
1.8271e-09
4.75352e-08
1.18529e-09
4.73755e-08
7.43415e-10
4.72744e-08
4.32919e-10
4.72146e-08
2.11313e-10
4.71836e-08
5.16745e-11
4.71714e-08
-6.49512e-11
4.71699e-08
-1.50747e-10
4.71733e-08
-2.13205e-10
4.71771e-08
-2.57232e-10
4.71787e-08
-2.8625e-10
4.7177e-08
-3.02831e-10
4.71723e-08
-3.09263e-10
-3.0764e-10
4.71661e-08
6.18785e-08
3.20352e-09
6.15667e-08
2.13887e-09
6.13482e-08
1.40378e-09
6.12011e-08
8.90539e-10
6.11063e-08
5.27677e-10
6.10489e-08
2.68764e-10
6.10172e-08
8.34152e-11
6.10023e-08
-5.00543e-11
6.09969e-08
-1.45414e-10
6.09961e-08
-2.12393e-10
6.09966e-08
-2.57687e-10
6.09966e-08
-2.86264e-10
6.09957e-08
-3.01926e-10
6.09942e-08
-3.07822e-10
-3.06531e-10
6.09931e-08
7.84719e-08
3.50033e-09
7.82446e-08
2.36615e-09
7.80813e-08
1.56713e-09
7.79703e-08
1.00147e-09
7.78993e-08
5.98706e-10
7.78571e-08
3.10954e-10
7.78348e-08
1.05699e-10
7.78254e-08
-4.06553e-11
7.78234e-08
-1.43417e-10
7.78252e-08
-2.14185e-10
7.78287e-08
-2.61159e-10
7.78329e-08
-2.90452e-10
7.78376e-08
-3.0667e-10
7.78432e-08
-3.13439e-10
-3.13563e-10
7.78503e-08
9.85206e-08
3.67868e-09
9.83809e-08
2.50579e-09
9.82807e-08
1.66738e-09
9.82146e-08
1.06755e-09
9.81752e-08
6.38081e-10
9.81552e-08
3.31e-10
9.81487e-08
1.12217e-10
9.81507e-08
-4.27015e-11
9.81579e-08
-1.50593e-10
9.8168e-08
-2.24288e-10
9.81799e-08
-2.73046e-10
9.81931e-08
-3.03703e-10
9.82078e-08
-3.21324e-10
9.82241e-08
-3.29756e-10
-3.31883e-10
9.82424e-08
1.22831e-07
3.79106e-09
1.22744e-07
2.59264e-09
1.22684e-07
1.72783e-09
1.22646e-07
1.10479e-09
1.22627e-07
6.57052e-10
1.22622e-07
3.36337e-10
1.22626e-07
1.08349e-10
1.22637e-07
-5.33304e-11
1.22651e-07
-1.65493e-10
1.22669e-07
-2.42269e-10
1.2269e-07
-2.93502e-10
1.22713e-07
-3.26455e-10
1.22738e-07
-3.46435e-10
1.22765e-07
-3.57379e-10
-3.62186e-10
1.22796e-07
1.52193e-07
3.86786e-09
1.52128e-07
2.65711e-09
1.5208e-07
1.77603e-09
1.52048e-07
1.13712e-09
1.5203e-07
6.75456e-10
1.52022e-07
3.43835e-10
1.52023e-07
1.06996e-10
1.52032e-07
-6.1851e-11
1.52046e-07
-1.79661e-10
1.52065e-07
-2.61162e-10
1.52088e-07
-3.16694e-10
1.52115e-07
-3.53751e-10
1.52147e-07
-3.77753e-10
1.52182e-07
-3.92664e-10
-4.01373e-10
1.52221e-07
1.87081e-07
3.89143e-09
1.87045e-07
2.69333e-09
1.87008e-07
1.81334e-09
1.86976e-07
1.16919e-09
1.86951e-07
7.00088e-10
1.86935e-07
3.60451e-10
1.86926e-07
1.16043e-10
1.86925e-07
-6.17149e-11
1.86933e-07
-1.86725e-10
1.86946e-07
-2.75036e-10
1.86967e-07
-3.37076e-10
1.86993e-07
-3.80408e-10
1.87026e-07
-4.10479e-10
1.87065e-07
-4.31229e-10
-4.45486e-10
1.87109e-07
2.27518e-07
3.83024e-09
2.27534e-07
2.6773e-09
2.27527e-07
1.82112e-09
2.27508e-07
1.18757e-09
2.27487e-07
7.21232e-10
2.27468e-07
3.7963e-10
2.27454e-07
1.29849e-10
2.27448e-07
-5.55943e-11
2.2745e-07
-1.88634e-10
2.2746e-07
-2.84819e-10
2.27477e-07
-3.54799e-10
2.27503e-07
-4.06039e-10
2.27536e-07
-4.43853e-10
2.27577e-07
-4.72098e-10
-4.93552e-10
2.27625e-07
2.73002e-07
3.66999e-09
2.73086e-07
2.59409e-09
2.73121e-07
1.78583e-09
2.73129e-07
1.17971e-09
2.73123e-07
7.27373e-10
2.73111e-07
3.91495e-10
2.73099e-07
1.41161e-10
2.73094e-07
-5.03192e-11
2.73096e-07
-1.90672e-10
2.73106e-07
-2.95083e-10
2.73126e-07
-3.7401e-10
2.73154e-07
-4.3441e-10
2.73191e-07
-4.81298e-10
2.73238e-07
-5.18384e-10
-5.48379e-10
2.73293e-07
3.22166e-07
3.40721e-09
3.22322e-07
2.43821e-09
3.22407e-07
1.70083e-09
3.22447e-07
1.1392e-09
3.22461e-07
7.13289e-10
3.22462e-07
3.9051e-10
3.22458e-07
1.45027e-10
3.22459e-07
-5.06249e-11
3.22467e-07
-1.98701e-10
3.22483e-07
-3.11884e-10
3.2251e-07
-4.00511e-10
3.22547e-07
-4.71076e-10
3.22594e-07
-5.28214e-10
3.22651e-07
-5.75412e-10
-6.14812e-10
3.22717e-07
3.72029e-07
3.03044e-09
3.72271e-07
2.19629e-09
3.72421e-07
1.55033e-09
3.72511e-07
1.04986e-09
3.7256e-07
6.63684e-10
3.72586e-07
3.64809e-10
3.72601e-07
1.30191e-10
3.7261e-07
-6.01137e-11
3.72619e-07
-2.07577e-10
3.72632e-07
-3.24547e-10
3.72651e-07
-4.19438e-10
3.72677e-07
-4.97912e-10
3.72713e-07
-5.63961e-10
3.72758e-07
-6.20605e-10
-6.70092e-10
3.72814e-07
3.70041e-07
2.60493e-09
3.70331e-07
1.90654e-09
3.70525e-07
1.35632e-09
3.70654e-07
9.2136e-10
3.7074e-07
5.77643e-10
3.70798e-07
3.06687e-10
3.70834e-07
9.40373e-11
3.70863e-07
-8.96774e-11
3.70889e-07
-2.32817e-10
3.70915e-07
-3.51175e-10
3.70947e-07
-4.50603e-10
3.70984e-07
-5.35162e-10
3.71028e-07
-6.08311e-10
3.7108e-07
-6.72723e-10
-7.30034e-10
3.7114e-07
3.17795e-07
2.20719e-09
3.18064e-07
1.63754e-09
3.18241e-07
1.17922e-09
3.18352e-07
8.10527e-10
3.18416e-07
5.13564e-10
3.18451e-07
2.71618e-10
3.18473e-07
7.19701e-11
3.18479e-07
-9.61936e-11
3.18483e-07
-2.36188e-10
3.18486e-07
-3.54142e-10
3.18491e-07
-4.55398e-10
3.18499e-07
-5.43795e-10
3.18513e-07
-6.22029e-10
3.18532e-07
-6.92096e-10
-7.55426e-10
3.18558e-07
2.66522e-07
1.82814e-09
2.66795e-07
1.36458e-09
2.66989e-07
9.85371e-10
2.67125e-07
6.7417e-10
2.6722e-07
4.18573e-10
2.67286e-07
2.05346e-10
2.67329e-07
2.92192e-11
2.67357e-07
-1.24657e-10
2.67376e-07
-2.54349e-10
2.67388e-07
-3.67012e-10
2.67399e-07
-4.65794e-10
2.67409e-07
-5.53542e-10
2.67419e-07
-6.32378e-10
2.67431e-07
-7.03864e-10
-7.69107e-10
2.67444e-07
2.20057e-07
1.48312e-09
2.20313e-07
1.10933e-09
2.205e-07
7.98363e-10
2.20635e-07
5.39126e-10
2.20731e-07
3.22037e-10
2.20797e-07
1.39062e-10
2.20844e-07
-1.77521e-11
2.20873e-07
-1.53759e-10
2.20892e-07
-2.72634e-10
2.20902e-07
-3.77575e-10
2.20908e-07
-4.71053e-10
2.20909e-07
-5.55145e-10
2.20908e-07
-6.3146e-10
2.20906e-07
-7.01201e-10
-7.65219e-10
2.20902e-07
1.79378e-07
1.1768e-09
1.79608e-07
8.79118e-10
1.79779e-07
6.27813e-10
1.79903e-07
4.1506e-10
1.79991e-07
2.33727e-10
1.80053e-07
7.77443e-11
1.80093e-07
-5.76851e-11
1.80116e-07
-1.77259e-10
1.80127e-07
-2.83442e-10
1.80128e-07
-3.78457e-10
1.80121e-07
-4.64137e-10
1.80108e-07
-5.4197e-10
1.80089e-07
-6.13106e-10
1.80066e-07
-6.78412e-10
-7.38497e-10
1.8004e-07
1.44609e-07
9.14751e-10
1.44806e-07
6.81274e-10
1.44953e-07
4.81125e-10
1.45059e-07
3.0899e-10
1.45133e-07
1.5982e-10
1.45182e-07
2.94066e-11
1.45209e-07
-8.54358e-11
1.4522e-07
-1.88297e-10
1.45218e-07
-2.80752e-10
1.45204e-07
-3.64429e-10
1.4518e-07
-4.40605e-10
1.45148e-07
-5.103e-10
1.4511e-07
-5.74287e-10
1.45064e-07
-6.33159e-10
-6.87331e-10
1.45013e-07
1.15397e-07
6.99547e-10
1.15559e-07
5.19127e-10
1.15678e-07
3.62209e-10
1.15762e-07
2.25046e-10
1.15817e-07
1.04392e-10
1.15849e-07
-2.30901e-12
1.15861e-07
-9.79566e-11
1.15857e-07
-1.84438e-10
1.1584e-07
-2.63033e-10
1.1581e-07
-3.34824e-10
1.1577e-07
-4.00647e-10
1.15721e-07
-4.61167e-10
1.15664e-07
-5.1689e-10
1.15599e-07
-5.68204e-10
-6.15379e-10
1.15527e-07
9.11779e-08
5.28595e-10
9.13057e-08
3.91322e-10
9.13977e-08
2.70243e-10
9.14599e-08
1.6286e-10
9.14972e-08
6.7043e-11
9.15137e-08
-1.87488e-11
9.15124e-08
-9.67076e-11
9.14959e-08
-1.67891e-10
9.1466e-08
-2.33165e-10
9.14244e-08
-2.93222e-10
9.13724e-08
-3.48591e-10
9.13109e-08
-3.99693e-10
9.12408e-08
-4.46839e-10
9.11629e-08
-4.90272e-10
-5.30153e-10
9.10777e-08
7.13238e-08
3.95681e-10
7.14221e-08
2.92955e-10
7.14912e-08
2.01157e-10
7.15354e-08
1.18697e-10
7.15586e-08
4.38167e-11
7.15636e-08
-2.36975e-11
7.15528e-08
-8.59188e-11
7.15281e-08
-1.43218e-10
7.14911e-08
-1.96164e-10
7.14431e-08
-2.45174e-10
7.1385e-08
-2.90568e-10
7.13179e-08
-3.32593e-10
7.12425e-08
-3.71431e-10
7.11595e-08
-4.07223e-10
-4.40055e-10
7.10694e-08
5.52102e-08
2.93403e-10
5.52852e-08
2.17982e-10
5.53366e-08
1.49751e-10
5.53678e-08
8.75514e-11
5.53811e-08
3.04941e-11
5.53791e-08
-2.16949e-11
5.53633e-08
-7.01611e-11
5.53353e-08
-1.15201e-10
5.52962e-08
-1.57091e-10
5.52471e-08
-1.96072e-10
5.51889e-08
-2.32322e-10
5.51223e-08
-2.65977e-10
5.5048e-08
-2.9713e-10
5.49666e-08
-3.25858e-10
-3.52198e-10
5.48788e-08
4.22511e-08
2.14972e-10
4.23083e-08
1.60812e-10
4.23468e-08
1.11228e-10
4.2369e-08
6.54218e-11
4.23765e-08
2.29213e-11
4.23712e-08
-1.63648e-11
4.23542e-08
-5.3168e-11
4.23267e-08
-8.76406e-11
4.22894e-08
-1.19883e-10
4.22434e-08
-1.50027e-10
4.21892e-08
-1.78164e-10
4.21276e-08
-2.04357e-10
4.20591e-08
-2.28647e-10
4.19844e-08
-2.51068e-10
-2.7163e-10
4.19038e-08
3.19164e-08
1.5486e-10
3.19602e-08
1.16989e-10
3.19895e-08
8.19245e-11
3.20058e-08
4.91207e-11
3.20104e-08
1.83388e-11
3.20044e-08
-1.03297e-11
3.19886e-08
-3.74467e-11
3.1964e-08
-6.30364e-11
3.19312e-08
-8.70761e-11
3.18909e-08
-1.09649e-10
3.18435e-08
-1.30794e-10
3.17897e-08
-1.50533e-10
3.17299e-08
-1.68877e-10
3.16647e-08
-1.85833e-10
-2.01395e-10
3.15944e-08
2.37408e-08
1.08848e-10
2.37745e-08
8.32254e-11
2.37972e-08
5.92509e-11
2.38098e-08
3.65314e-11
2.38131e-08
1.5044e-11
2.38079e-08
-5.1402e-12
2.37948e-08
-2.43805e-11
2.37745e-08
-4.27017e-11
2.37474e-08
-5.99557e-11
2.3714e-08
-7.62249e-11
2.36747e-08
-9.15206e-11
2.363e-08
-1.0584e-10
2.35803e-08
-1.1918e-10
2.3526e-08
-1.31531e-10
-1.42882e-10
2.34675e-08
1.73253e-08
7.38222e-11
1.73513e-08
5.7198e-11
1.73691e-08
4.1499e-11
1.73792e-08
2.64414e-11
1.73821e-08
1.20929e-11
1.73784e-08
-1.46256e-12
1.73685e-08
-1.4475e-11
1.73529e-08
-2.70244e-11
1.73317e-08
-3.88335e-11
1.73055e-08
-5.00165e-11
1.72746e-08
-6.05698e-11
1.72392e-08
-7.04803e-11
1.71998e-08
-7.97366e-11
1.71566e-08
-8.83247e-11
-9.62286e-11
1.71099e-08
1.23334e-08
4.7512e-11
1.23533e-08
3.731e-11
1.23671e-08
2.76112e-11
1.23754e-08
1.82082e-11
1.23783e-08
9.17828e-12
1.23762e-08
6.07916e-13
1.23694e-08
-7.63768e-12
1.23581e-08
-1.57452e-11
1.23426e-08
-2.33439e-11
1.23232e-08
-3.05695e-11
1.23e-08
-3.74147e-11
1.22734e-08
-4.38641e-11
1.22436e-08
-4.99048e-11
1.22108e-08
-5.55217e-11
-6.06985e-11
1.21752e-08
8.48458e-09
2.82503e-11
8.49942e-09
2.24629e-11
8.51008e-09
1.69511e-11
8.51673e-09
1.15606e-11
8.51956e-09
6.34957e-12
8.51882e-09
1.34755e-12
8.51461e-09
-3.42519e-12
8.50708e-09
-8.21771e-12
8.49645e-09
-1.27144e-11
8.48288e-09
-1.69964e-11
8.46653e-09
-2.10687e-11
8.44759e-09
-2.49191e-11
8.42622e-09
-2.85362e-11
8.4026e-09
-3.19072e-11
-3.50163e-11
8.37692e-09
5.54749e-09
1.47804e-11
5.55808e-09
1.18722e-11
5.56591e-09
9.12554e-12
5.57104e-09
6.42303e-12
5.5736e-09
3.7956e-12
5.57372e-09
1.22549e-12
5.57148e-09
-1.18708e-12
5.56692e-09
-3.65481e-12
5.56019e-09
-5.99069e-12
5.55141e-09
-8.21192e-12
5.54067e-09
-1.03325e-11
5.5281e-09
-1.23452e-11
5.51381e-09
-1.42417e-11
5.49791e-09
-1.60126e-11
-1.76442e-11
5.48054e-09
3.33256e-09
6.11128e-12
3.33949e-09
4.93254e-12
3.34476e-09
3.85702e-12
3.34839e-09
2.79515e-12
3.35043e-09
1.754e-12
3.35094e-09
7.15058e-13
3.35e-09
-2.46007e-13
3.34759e-09
-1.24482e-12
3.3438e-09
-2.19971e-12
3.3387e-09
-3.10715e-12
3.33234e-09
-3.9775e-12
3.3248e-09
-4.80631e-12
3.31615e-09
-5.58942e-12
3.30646e-09
-6.32119e-12
-6.9907e-12
3.29581e-09
1.68565e-09
1.42052e-12
1.68945e-09
1.13046e-12
1.69241e-09
9.00461e-13
1.69453e-09
6.71104e-13
1.69585e-09
4.42013e-13
1.69635e-09
2.05972e-13
1.69612e-09
-7.17793e-15
1.69511e-09
-2.34505e-13
1.69336e-09
-4.53725e-13
1.69091e-09
-6.60843e-13
1.6878e-09
-8.63066e-13
1.68405e-09
-1.05421e-12
1.67969e-09
-1.2353e-12
1.67477e-09
-1.40379e-12
-1.55285e-12
1.66934e-09
4.82281e-10
4.83412e-10
4.84312e-10
4.84983e-10
4.85425e-10
4.85631e-10
4.85624e-10
4.8539e-10
4.84936e-10
4.84275e-10
4.83412e-10
4.82358e-10
4.81122e-10
4.79719e-10
4.78166e-10
1.12674e-09
-4.37019e-10
2.5181e-10
1.39348e-09
-3.42607e-10
7.58631e-11
1.66371e-09
-1.78386e-10
-9.1839e-11
1.9315e-09
-2.71486e-12
-2.65083e-10
2.19565e-09
1.80199e-10
-4.44343e-10
2.45706e-09
3.65057e-10
-6.26473e-10
2.71749e-09
5.50647e-10
-8.11072e-10
2.97825e-09
7.36263e-10
-9.97021e-10
3.24037e-09
9.20534e-10
-1.18265e-09
3.50463e-09
1.10156e-09
-1.36582e-09
3.77169e-09
1.27695e-09
-1.544e-09
4.04216e-09
1.44374e-09
-1.71422e-09
4.3168e-09
1.59814e-09
-1.87277e-09
4.59652e-09
1.73522e-09
-2.01494e-09
4.88248e-09
1.84844e-09
-2.13439e-09
5.17618e-09
1.9295e-09
-2.2232e-09
5.47966e-09
1.96812e-09
-2.27161e-09
5.79577e-09
1.95323e-09
-2.26934e-09
6.1284e-09
1.87091e-09
-2.20355e-09
6.48232e-09
1.70013e-09
-2.05405e-09
6.86155e-09
1.39957e-09
-1.7788e-09
7.26517e-09
8.71036e-10
-1.27465e-09
7.62321e-09
-6.06123e-12
-3.51974e-10
7.90849e-09
-8.98841e-10
6.13556e-10
8.12221e-09
-1.69779e-09
1.48407e-09
8.26865e-09
-2.37204e-09
2.22559e-09
8.35426e-09
-2.91287e-09
2.82726e-09
8.38567e-09
-3.32225e-09
3.29084e-09
8.36831e-09
-3.6033e-09
3.62066e-09
8.30651e-09
-3.76112e-09
3.82293e-09
8.20386e-09
-3.8023e-09
3.90495e-09
8.06351e-09
-3.73072e-09
3.87106e-09
7.88844e-09
-3.54888e-09
3.72395e-09
7.68156e-09
-3.25924e-09
3.46612e-09
7.44564e-09
-2.86514e-09
3.10106e-09
7.18313e-09
-2.37094e-09
2.63344e-09
6.89603e-09
-1.78123e-09
2.06833e-09
6.58592e-09
-1.09897e-09
1.40907e-09
6.2542e-09
-3.22939e-10
6.54664e-10
5.90061e-09
5.54125e-10
-2.00534e-10
5.51985e-09
1.53601e-09
-1.15525e-09
5.09278e-09
2.5962e-09
-2.16914e-09
4.58538e-09
3.60203e-09
-3.09463e-09
3.99962e-09
4.2234e-09
-3.63764e-09
3.65893e-09
3.63693e-09
-3.29625e-09
2.35954e-09
-5.09692e-10
2.51987e-09
-5.02934e-10
2.73877e-09
-3.9729e-10
2.98498e-09
-2.4892e-10
3.24512e-09
-7.99433e-11
3.51296e-09
9.72131e-11
3.78613e-09
2.77482e-10
4.06383e-09
4.58566e-10
4.34593e-09
6.38435e-10
4.63257e-09
8.14912e-10
4.92403e-09
9.85492e-10
5.2207e-09
1.14706e-09
5.52319e-09
1.29565e-09
5.83232e-09
1.4261e-09
6.14915e-09
1.53161e-09
6.4751e-09
1.60355e-09
6.81207e-09
1.63114e-09
7.16272e-09
1.60259e-09
7.53067e-09
1.50296e-09
7.92034e-09
1.31046e-09
8.33534e-09
9.84567e-10
8.77408e-09
4.32304e-10
9.1613e-09
-3.93285e-10
9.46891e-09
-1.20645e-09
9.6989e-09
-1.92778e-09
9.8561e-09
-2.52924e-09
9.94757e-09
-3.00433e-09
9.98057e-09
-3.35526e-09
9.96114e-09
-3.58387e-09
9.8942e-09
-3.69418e-09
9.78396e-09
-3.69206e-09
9.63429e-09
-3.58104e-09
9.44901e-09
-3.36361e-09
9.23211e-09
-3.04235e-09
8.98775e-09
-2.62078e-09
8.72025e-09
-2.10343e-09
8.43425e-09
-1.49523e-09
8.13529e-09
-8.00002e-10
7.83144e-09
-1.90899e-11
7.53409e-09
8.51474e-10
7.26023e-09
1.80987e-09
7.03042e-09
2.82601e-09
6.87072e-09
3.76173e-09
6.80732e-09
4.2868e-09
3.76436e-09
6.70189e-09
4.1319e-09
-5.22504e-10
4.20372e-09
-5.74752e-10
4.34647e-09
-5.40041e-10
4.5422e-09
-4.44647e-10
4.77242e-09
-3.10159e-10
5.02561e-09
-1.55979e-10
5.29501e-09
8.07609e-12
5.57678e-09
1.76796e-10
5.8688e-09
3.4642e-10
6.16994e-09
5.1377e-10
6.47965e-09
6.7578e-10
6.79779e-09
8.28922e-10
7.12459e-09
9.68851e-10
7.46058e-09
1.09011e-09
7.80659e-09
1.18559e-09
8.16381e-09
1.24633e-09
8.53387e-09
1.26108e-09
8.91906e-09
1.2174e-09
9.32252e-09
1.09951e-09
9.74806e-09
8.84918e-10
1.01985e-08
5.34108e-10
1.06713e-08
-4.04968e-11
1.10861e-08
-8.08081e-10
1.14142e-08
-1.53453e-09
1.16586e-08
-2.17214e-09
1.18246e-08
-2.69529e-09
1.19201e-08
-3.09981e-09
1.1953e-08
-3.38818e-09
1.19301e-08
-3.56093e-09
1.18569e-08
-3.62103e-09
1.17385e-08
-3.57362e-09
1.15795e-08
-3.42203e-09
1.13848e-08
-3.16891e-09
1.11597e-08
-2.81728e-09
1.09101e-08
-2.3712e-09
1.06427e-08
-1.83597e-09
1.03651e-08
-1.21772e-09
1.00878e-08
-5.22636e-10
9.82503e-09
2.43652e-10
9.60027e-09
1.07624e-09
9.44778e-09
1.96236e-09
9.41211e-09
2.86168e-09
9.52677e-09
3.64707e-09
9.74285e-09
4.07072e-09
3.68858e-09
9.81863e-09
6.57233e-09
-5.0123e-10
6.58377e-09
-5.86193e-10
6.64995e-09
-6.06224e-10
6.77711e-09
-5.71799e-10
6.95404e-09
-4.87094e-10
7.16907e-09
-3.71006e-10
7.4135e-09
-2.36352e-10
7.68104e-09
-9.07495e-11
7.96751e-09
5.99577e-11
8.27017e-09
2.11102e-10
8.58731e-09
3.58641e-10
8.91793e-09
4.98307e-10
9.26162e-09
6.25162e-10
9.61843e-09
7.33302e-10
9.98877e-09
8.15244e-10
1.03734e-08
8.61669e-10
1.07736e-08
8.60943e-10
1.11909e-08
8.00057e-10
1.16278e-08
6.62576e-10
1.20872e-08
4.25517e-10
1.25708e-08
5.05861e-11
1.30744e-08
-5.44133e-10
1.35131e-08
-1.24679e-09
1.3858e-08
-1.87941e-09
1.41132e-08
-2.42731e-09
1.42847e-08
-2.86681e-09
1.43811e-08
-3.1962e-09
1.44112e-08
-3.41829e-09
1.43825e-08
-3.53226e-09
1.43015e-08
-3.54002e-09
1.41739e-08
-3.446e-09
1.40054e-08
-3.25352e-09
1.38021e-08
-2.96567e-09
1.3571e-08
-2.58618e-09
1.33199e-08
-2.12011e-09
1.3058e-08
-1.57404e-09
1.27964e-08
-9.56146e-10
1.25498e-08
-2.75995e-10
1.23382e-08
4.5519e-10
1.21917e-08
1.22278e-09
1.21511e-08
2.00292e-09
1.22624e-08
2.75046e-09
1.2544e-08
3.3654e-09
1.2933e-08
3.68172e-09
3.46576e-09
1.31559e-08
9.85194e-09
-4.65063e-10
9.8265e-09
-5.60759e-10
9.83462e-09
-6.14338e-10
9.89082e-09
-6.28004e-10
1.00009e-08
-5.97209e-10
1.01582e-08
-5.2826e-10
1.0356e-08
-4.34127e-10
1.05879e-08
-3.22696e-10
1.08489e-08
-2.01057e-10
1.11351e-08
-7.51158e-11
1.14437e-08
5.00687e-11
1.17727e-08
1.69301e-10
1.2121e-08
2.76879e-10
1.2488e-08
3.66338e-10
1.28735e-08
4.29759e-10
1.32777e-08
4.57467e-10
1.37011e-08
4.37499e-10
1.41447e-08
3.5644e-10
1.46098e-08
1.97449e-10
1.50981e-08
-6.26928e-11
1.56093e-08
-4.60689e-10
1.61377e-08
-1.07249e-09
1.65941e-08
-1.70318e-09
1.69498e-08
-2.23515e-09
1.72103e-08
-2.68777e-09
1.73821e-08
-3.03867e-09
1.74748e-08
-3.28881e-09
1.7498e-08
-3.44155e-09
1.74604e-08
-3.49463e-09
1.73691e-08
-3.44876e-09
1.72308e-08
-3.30771e-09
1.70524e-08
-3.07508e-09
1.68414e-08
-2.75465e-09
1.66064e-08
-2.35121e-09
1.63575e-08
-1.87116e-09
1.61063e-08
-1.32284e-09
1.5867e-08
-7.16884e-10
1.56577e-08
-6.66877e-11
1.55013e-08
6.11584e-10
1.54284e-08
1.29564e-09
1.54759e-08
1.95542e-09
1.56784e-08
2.54802e-09
1.60394e-08
3.00439e-09
1.64895e-08
3.23159e-09
3.12925e-09
1.6826e-08
1.41723e-08
-4.2703e-10
1.41292e-08
-5.17625e-10
1.41029e-08
-5.88016e-10
1.41052e-08
-6.30297e-10
1.41502e-08
-6.42245e-10
1.42417e-08
-6.19751e-10
1.43779e-08
-5.70344e-10
1.45555e-08
-5.00338e-10
1.47709e-08
-4.16389e-10
1.50203e-08
-3.24538e-10
1.53007e-08
-2.30287e-10
1.56096e-08
-1.39593e-10
1.59453e-08
-5.88725e-11
1.63068e-08
4.88712e-12
1.66932e-08
4.33539e-11
1.71041e-08
4.65572e-11
1.75392e-08
2.3261e-12
1.79986e-08
-1.02958e-10
1.84823e-08
-2.86188e-10
1.89901e-08
-5.70469e-10
1.95198e-08
-9.90406e-10
2.00628e-08
-1.61555e-09
2.05273e-08
-2.16767e-09
2.08852e-08
-2.59301e-09
2.11429e-08
-2.94551e-09
2.13078e-08
-3.2035e-09
2.13899e-08
-3.371e-09
2.14007e-08
-3.45233e-09
2.13497e-08
-3.44358e-09
2.12448e-08
-3.34391e-09
2.10937e-08
-3.15654e-09
2.09043e-08
-2.88572e-09
2.06859e-08
-2.53624e-09
2.04488e-08
-2.11417e-09
2.02052e-08
-1.6275e-09
1.99689e-08
-1.08652e-09
1.97563e-08
-5.04321e-10
1.95867e-08
1.02902e-10
1.94833e-08
7.15048e-10
1.94719e-08
1.30704e-09
1.95788e-08
1.84851e-09
1.98225e-08
2.30431e-09
2.01944e-08
2.63244e-09
2.0636e-08
2.78999e-09
2.74334e-09
2.10219e-08
1.97683e-08
-3.94476e-10
1.97246e-08
-4.7389e-10
1.96828e-08
-5.46263e-10
1.96558e-08
-6.03297e-10
1.9654e-08
-6.40437e-10
1.96882e-08
-6.5392e-10
1.97623e-08
-6.44406e-10
1.98776e-08
-6.15649e-10
2.00339e-08
-5.7275e-10
2.02298e-08
-5.20461e-10
2.04633e-08
-4.63758e-10
2.07326e-08
-4.08847e-10
2.10362e-08
-3.62476e-10
2.13729e-08
-3.31843e-10
2.17418e-08
-3.25494e-10
2.21418e-08
-3.5349e-10
2.25721e-08
-4.27983e-10
2.30316e-08
-5.62496e-10
2.3519e-08
-7.73503e-10
2.4032e-08
-1.08353e-09
2.4566e-08
-1.52438e-09
2.51091e-08
-2.15865e-09
2.55682e-08
-2.62678e-09
2.59162e-08
-2.94101e-09
2.61605e-08
-3.18975e-09
2.63084e-08
-3.35144e-09
2.63713e-08
-3.43393e-09
2.63623e-08
-3.44334e-09
2.62922e-08
-3.37339e-09
2.61693e-08
-3.22107e-09
2.60021e-08
-2.98938e-09
2.58002e-08
-2.68373e-09
2.55741e-08
-2.31016e-09
2.53361e-08
-1.87614e-09
2.50997e-08
-1.3912e-09
2.48806e-08
-8.67388e-10
2.46959e-08
-3.19604e-10
2.45643e-08
2.34498e-10
2.45057e-08
7.73609e-10
2.45389e-08
1.27389e-09
2.46778e-08
1.70956e-09
2.49266e-08
2.0556e-09
2.52694e-08
2.28963e-09
2.56627e-08
2.39666e-09
2.37278e-09
2.60333e-08
2.69142e-08
-3.69852e-10
2.68784e-08
-4.381e-10
2.68378e-08
-5.0572e-10
2.68013e-08
-5.66746e-10
2.67774e-08
-6.16513e-10
2.67755e-08
-6.52046e-10
2.68027e-08
-6.71597e-10
2.68637e-08
-6.7671e-10
2.69623e-08
-6.71283e-10
2.70996e-08
-6.57818e-10
2.72761e-08
-6.40274e-10
2.7492e-08
-6.24685e-10
2.7747e-08
-6.17537e-10
2.80409e-08
-6.25723e-10
2.8373e-08
-6.5762e-10
2.87426e-08
-7.23004e-10
2.91482e-08
-8.33641e-10
2.95883e-08
-1.00253e-09
3.00599e-08
-1.24512e-09
3.05591e-08
-1.58278e-09
3.10783e-08
-2.04353e-09
3.1602e-08
-2.68234e-09
3.20383e-08
-3.06311e-09
3.23613e-08
-3.26407e-09
3.25787e-08
-3.40707e-09
3.26975e-08
-3.47025e-09
3.27305e-08
-3.46691e-09
3.26932e-08
-3.40608e-09
3.25973e-08
-3.27751e-09
3.24512e-08
-3.07492e-09
3.22641e-08
-2.80229e-09
3.2047e-08
-2.46665e-09
3.18122e-08
-2.07536e-09
3.15732e-08
-1.63712e-09
3.13447e-08
-1.1627e-09
3.11426e-08
-6.65273e-10
3.09835e-08
-1.60585e-10
3.08837e-08
3.34392e-10
3.08578e-08
7.99411e-10
3.09169e-08
1.21483e-09
3.10648e-08
1.5617e-09
3.12957e-08
1.82466e-09
3.15914e-08
1.99394e-09
3.19201e-08
2.06798e-09
2.05386e-09
3.2239e-08
3.59256e-08
-3.52668e-10
3.58998e-08
-4.12348e-10
3.58683e-08
-4.74213e-10
3.5836e-08
-5.3449e-10
3.5809e-08
-5.89524e-10
3.57943e-08
-6.37271e-10
3.57978e-08
-6.75156e-10
3.58256e-08
-7.04503e-10
3.5883e-08
-7.28692e-10
3.59728e-08
-7.47554e-10
3.60975e-08
-7.6499e-10
3.62596e-08
-7.86838e-10
3.6461e-08
-8.18881e-10
3.67026e-08
-8.67348e-10
3.69851e-08
-9.40116e-10
3.73084e-08
-1.04627e-09
3.76715e-08
-1.19676e-09
3.80725e-08
-1.40356e-09
3.85078e-08
-1.68037e-09
3.89718e-08
-2.04679e-09
3.9454e-08
-2.52576e-09
3.99356e-08
-3.16394e-09
4.03292e-08
-3.45666e-09
4.06101e-08
-3.54506e-09
4.07853e-08
-3.58227e-09
4.08612e-08
-3.54612e-09
4.08529e-08
-3.45864e-09
4.07793e-08
-3.33242e-09
4.06512e-08
-3.14942e-09
4.04761e-08
-2.89982e-09
4.02648e-08
-2.59098e-09
4.00298e-08
-2.23167e-09
3.97846e-08
-1.83022e-09
3.95437e-08
-1.39615e-09
3.93218e-08
-9.40847e-10
3.91341e-08
-4.77553e-10
3.89954e-08
-2.19391e-11
3.89176e-08
4.12219e-10
3.89103e-08
8.06732e-10
3.89773e-08
1.14777e-09
3.91159e-08
1.42315e-09
3.93155e-08
1.62507e-09
3.95582e-08
1.75117e-09
3.98208e-08
1.80543e-09
1.79735e-09
4.00773e-08
4.71556e-08
-3.42172e-10
4.71395e-08
-3.9623e-10
4.7119e-08
-4.5379e-10
4.70972e-08
-5.1267e-10
4.70779e-08
-5.70204e-10
4.7066e-08
-6.25384e-10
4.70659e-08
-6.75012e-10
4.70835e-08
-7.22149e-10
4.71228e-08
-7.68023e-10
4.71867e-08
-8.114e-10
4.72788e-08
-8.57116e-10
4.74029e-08
-9.10888e-10
4.75615e-08
-9.77498e-10
4.77569e-08
-1.06274e-09
4.79908e-08
-1.17402e-09
4.8264e-08
-1.31953e-09
4.85765e-08
-1.50919e-09
4.89265e-08
-1.75355e-09
4.931e-08
-2.06393e-09
4.97209e-08
-2.45764e-09
5.01461e-08
-2.95096e-09
5.0564e-08
-3.58191e-09
5.08958e-08
-3.7884e-09
5.11181e-08
-3.76742e-09
5.1236e-08
-3.70011e-09
5.12554e-08
-3.56556e-09
5.11976e-08
-3.40082e-09
5.10829e-08
-3.21766e-09
5.09169e-08
-2.98351e-09
5.07079e-08
-2.69075e-09
5.04689e-08
-2.35202e-09
5.0214e-08
-1.97674e-09
4.99573e-08
-1.5735e-09
4.97132e-08
-1.15204e-09
4.94959e-08
-7.23548e-10
4.93187e-08
-3.00374e-10
4.91922e-08
1.04562e-10
4.91258e-08
4.78572e-10
4.9123e-08
8.09519e-10
4.91829e-08
1.08792e-09
4.92988e-08
1.30721e-09
4.94592e-08
1.46472e-09
4.96484e-08
1.56197e-09
4.98491e-08
1.60468e-09
1.60168e-09
5.00448e-08
6.09901e-08
-3.391e-10
6.09839e-08
-3.90093e-10
6.09755e-08
-4.45366e-10
6.09667e-08
-5.03844e-10
6.09604e-08
-5.63964e-10
6.09602e-08
-6.25155e-10
6.09697e-08
-6.84546e-10
6.09917e-08
-7.44074e-10
6.10295e-08
-8.05914e-10
6.10886e-08
-8.70438e-10
6.1172e-08
-9.4056e-10
6.12817e-08
-1.02052e-09
6.14198e-08
-1.11568e-09
6.15889e-08
-1.23177e-09
6.17906e-08
-1.37577e-09
6.20261e-08
-1.55504e-09
6.22954e-08
-1.77846e-09
6.2597e-08
-2.05512e-09
6.29266e-08
-2.39356e-09
6.32777e-08
-2.80879e-09
6.36353e-08
-3.30856e-09
6.39765e-08
-3.92305e-09
6.42343e-08
-4.0462e-09
6.43858e-08
-3.91891e-09
6.44328e-08
-3.74713e-09
6.43881e-08
-3.52091e-09
6.42852e-08
-3.2979e-09
6.41281e-08
-3.0605e-09
6.39195e-08
-2.77496e-09
6.36745e-08
-2.44574e-09
6.34078e-08
-2.08528e-09
6.31337e-08
-1.70264e-09
6.28663e-08
-1.30614e-09
6.26193e-08
-9.04995e-10
6.24049e-08
-5.0922e-10
6.22338e-08
-1.29206e-10
6.21133e-08
2.24976e-10
6.20484e-08
5.43562e-10
6.20388e-08
8.19119e-10
6.20805e-08
1.04618e-09
6.21656e-08
1.22208e-09
6.22832e-08
1.34719e-09
6.24204e-08
1.42475e-09
6.25646e-08
1.4605e-09
1.46182e-09
6.27044e-08
7.78571e-08
-3.45921e-10
7.7863e-08
-3.96017e-10
7.78686e-08
-4.50973e-10
7.78752e-08
-5.10399e-10
7.78848e-08
-5.73619e-10
7.78996e-08
-6.39923e-10
7.79243e-08
-7.0925e-10
7.79605e-08
-7.80308e-10
7.80114e-08
-8.56788e-10
7.80808e-08
-9.39846e-10
7.81712e-08
-1.0309e-09
7.82846e-08
-1.13393e-09
7.84228e-08
-1.25392e-09
7.85873e-08
-1.39627e-09
7.8779e-08
-1.5675e-09
7.89981e-08
-1.77411e-09
7.92437e-08
-2.02399e-09
7.95133e-08
-2.32474e-09
7.98018e-08
-2.68204e-09
8.0102e-08
-3.10904e-09
8.03966e-08
-3.60312e-09
8.06622e-08
-4.18869e-09
8.08469e-08
-4.23087e-09
8.09191e-08
-3.99114e-09
8.08935e-08
-3.7215e-09
8.0803e-08
-3.43041e-09
8.06604e-08
-3.15536e-09
8.04593e-08
-2.85933e-09
8.02112e-08
-2.5269e-09
7.99352e-08
-2.16974e-09
7.96467e-08
-1.79674e-09
7.93596e-08
-1.41552e-09
7.90869e-08
-1.03352e-09
7.88407e-08
-6.58725e-10
7.86307e-08
-2.99288e-10
7.8464e-08
3.75127e-11
7.83455e-08
3.43483e-10
7.82761e-08
6.13003e-10
7.82533e-08
8.41891e-10
7.82717e-08
1.02777e-09
7.83233e-08
1.17045e-09
7.83987e-08
1.27183e-09
7.84878e-08
1.33565e-09
7.85813e-08
1.36705e-09
1.37191e-09
7.86712e-08
9.8262e-08
-3.65475e-10
9.82825e-08
-4.16558e-10
9.83045e-08
-4.72978e-10
9.83289e-08
-5.34798e-10
9.83572e-08
-6.01927e-10
9.83916e-08
-6.74261e-10
9.84345e-08
-7.52221e-10
9.849e-08
-8.3574e-10
9.85593e-08
-9.26084e-10
9.86449e-08
-1.02542e-09
9.87499e-08
-1.1359e-09
9.88763e-08
-1.26036e-09
9.90254e-08
-1.40309e-09
9.91981e-08
-1.56893e-09
9.93943e-08
-1.76371e-09
9.96131e-08
-1.99289e-09
9.98521e-08
-2.26302e-09
1.00108e-07
-2.58016e-09
1.00372e-07
-2.94696e-09
1.00638e-07
-3.37464e-09
1.00885e-07
-3.85016e-09
1.0109e-07
-4.39318e-09
1.01209e-07
-4.3499e-09
1.01214e-07
-3.99664e-09
1.0114e-07
-3.6475e-09
1.01018e-07
-3.30842e-09
1.00838e-07
-2.97536e-09
1.00601e-07
-2.62239e-09
1.00328e-07
-2.2533e-09
1.00035e-07
-1.87746e-09
9.97391e-08
-1.50053e-09
9.94519e-08
-1.12827e-09
9.9185e-08
-7.66673e-10
9.89481e-08
-4.21779e-10
9.87478e-08