/*--------------------------------*- C++ -*----------------------------------*\
| =========                 |                                                 |
| \\      /  F ield         | OpenFOAM: The Open Source CFD Toolbox           |
|  \\    /   O peration     | Version:  2312                                  |
|   \\  /    A nd           | Website:  www.openfoam.com                      |
|    \\/     M anipulation  |                                                 |
\*---------------------------------------------------------------------------*/
FoamFile
{
    version     2.0;
    format      ascii;
    arch        "LSB;label=32;scalar=64";
    class       volScalarField;
    location    "173";
    object      p;
}
// * * * * * * * * * * * * * * * * * * * * * * * * * * * * * * * * * * * * * //

dimensions      [0 2 -2 0 0 0 0];

internalField   nonuniform List<scalar> 
4800
(
-2.12516e-13
-1.745e-06
-3.17858e-06
-4.37191e-06
-5.37595e-06
-6.22912e-06
-6.96075e-06
-7.59316e-06
-8.15076e-06
-8.64414e-06
-9.08286e-06
-9.47247e-06
-9.80901e-06
-1.03219e-05
-1.19553e-05
2.03283e-08
-1.72082e-06
-3.15196e-06
-4.34406e-06
-5.34795e-06
-6.20215e-06
-6.93643e-06
-7.5733e-06
-8.13747e-06
-8.641e-06
-9.09858e-06
-9.52948e-06
-9.95064e-06
-1.04702e-05
-1.1337e-05
4.19876e-08
-1.69502e-06
-3.12362e-06
-4.31455e-06
-5.31844e-06
-6.17368e-06
-6.91053e-06
-7.54971e-06
-8.11841e-06
-8.62962e-06
-9.09829e-06
-9.54484e-06
-9.98066e-06
-1.04173e-05
-1.08367e-05
6.42511e-08
-1.66803e-06
-3.09363e-06
-4.28293e-06
-5.2863e-06
-6.14191e-06
-6.88018e-06
-7.52108e-06
-8.0905e-06
-8.60337e-06
-9.07064e-06
-9.50382e-06
-9.8986e-06
-1.02268e-05
-1.04227e-05
8.88429e-08
-1.6378e-06
-3.05966e-06
-4.24663e-06
-5.24872e-06
-6.10372e-06
-6.84158e-06
-7.48303e-06
-8.0488e-06
-8.5552e-06
-9.00808e-06
-9.40815e-06
-9.74016e-06
-9.96827e-06
-1.004e-05
1.17207e-07
-1.60278e-06
-3.01998e-06
-4.20371e-06
-5.20344e-06
-6.05638e-06
-6.79157e-06
-7.42966e-06
-7.98737e-06
-8.47847e-06
-8.90454e-06
-9.25927e-06
-9.5248e-06
-9.67381e-06
-9.67974e-06
1.51336e-07
-1.56092e-06
-2.97237e-06
-4.15163e-06
-5.14745e-06
-5.99621e-06
-6.72566e-06
-7.35525e-06
-7.89909e-06
-8.36657e-06
-8.75655e-06
-9.06104e-06
-9.26649e-06
-9.35951e-06
-9.33426e-06
1.9465e-07
-1.50879e-06
-2.91319e-06
-4.08634e-06
-5.07613e-06
-5.91779e-06
-6.63756e-06
-7.25325e-06
-7.7766e-06
-8.21375e-06
-8.56326e-06
-8.81963e-06
-8.97686e-06
-9.03383e-06
-8.99653e-06
2.52387e-07
-1.44106e-06
-2.8368e-06
-4.00175e-06
-4.98277e-06
-5.81377e-06
-6.51933e-06
-7.11574e-06
-7.61302e-06
-8.01621e-06
-8.32575e-06
-8.54104e-06
-8.66343e-06
-8.69995e-06
-8.66162e-06
3.31466e-07
-1.35043e-06
-2.7354e-06
-3.88949e-06
-4.85843e-06
-5.67476e-06
-6.36156e-06
-6.93414e-06
-7.40205e-06
-7.7713e-06
-8.04548e-06
-8.22919e-06
-8.32932e-06
-8.35709e-06
-8.32481e-06
4.39682e-07
-1.22804e-06
-2.59925e-06
-3.7391e-06
-4.69215e-06
-5.48972e-06
-6.1539e-06
-6.69984e-06
-7.13794e-06
-7.47638e-06
-7.72264e-06
-7.88499e-06
-7.97367e-06
-8.00147e-06
-7.98016e-06
5.84713e-07
-1.06441e-06
-2.41747e-06
-3.53879e-06
-4.47177e-06
-5.24687e-06
-5.88586e-06
-6.40462e-06
-6.81536e-06
-7.12882e-06
-7.35532e-06
-7.5059e-06
-7.5921e-06
-7.62661e-06
-7.61998e-06
7.73652e-07
-8.49887e-07
-2.1787e-06
-3.2762e-06
-4.18478e-06
-4.93448e-06
-5.54743e-06
-6.04079e-06
-6.42877e-06
-6.72423e-06
-6.93942e-06
-7.08658e-06
-7.1774e-06
-7.22362e-06
-7.23457e-06
1.01263e-06
-5.74909e-07
-1.87126e-06
-2.93858e-06
-3.81847e-06
-4.54088e-06
-5.12861e-06
-5.60012e-06
-5.97116e-06
-6.25595e-06
-6.46756e-06
-6.61838e-06
-6.71952e-06
-6.78145e-06
-6.81213e-06
1.30594e-06
-2.30823e-07
-1.48387e-06
-2.5134e-06
-3.36015e-06
-4.05406e-06
-4.61841e-06
-5.07243e-06
-5.43258e-06
-5.71348e-06
-5.92809e-06
-6.08822e-06
-6.20403e-06
-6.28476e-06
-6.33738e-06
1.65605e-06
1.88899e-07
-1.00714e-06
-1.98968e-06
-2.79823e-06
-3.4623e-06
-4.00505e-06
-4.44557e-06
-4.80003e-06
-5.08253e-06
-5.30527e-06
-5.47906e-06
-5.613e-06
-5.71511e-06
-5.79152e-06
2.06315e-06
6.8724e-07
-4.35635e-07
-1.36015e-06
-2.12417e-06
-2.756e-06
-3.2777e-06
-3.70722e-06
-4.0595e-06
-4.34733e-06
-4.5817e-06
-4.77218e-06
-4.9268e-06
-5.0525e-06
-5.15462e-06
2.52236e-06
1.26195e-06
2.29393e-07
-6.24552e-07
-1.33597e-06
-1.93118e-06
-2.43014e-06
-2.84871e-06
-3.19984e-06
-3.4945e-06
-3.74202e-06
-3.95061e-06
-4.12715e-06
-4.27765e-06
-4.40684e-06
3.01373e-06
1.89788e-06
9.75591e-07
2.06023e-07
-4.43141e-07
-9.95153e-07
-1.46703e-06
-1.87184e-06
-2.22e-06
-2.52024e-06
-2.78007e-06
-3.00609e-06
-3.20402e-06
-3.37878e-06
-3.53452e-06
3.51624e-06
2.57169e-06
1.77873e-06
1.10618e-06
5.28493e-07
2.6815e-08
-4.12379e-07
-7.99006e-07
-1.14072e-06
-1.44388e-06
-1.71405e-06
-1.95626e-06
-2.175e-06
-2.3742e-06
-2.55726e-06
3.99389e-06
3.22237e-06
2.56148e-06
1.98868e-06
1.48539e-06
1.0376e-06
6.35429e-07
2.71908e-07
-5.82165e-08
-3.59306e-07
-6.35275e-07
-8.8971e-07
-1.1259e-06
-1.34674e-06
-1.55503e-06
4.38539e-06
3.75862e-06
3.20935e-06
2.72201e-06
2.2836e-06
1.88437e-06
1.51752e-06
1.17835e-06
8.63255e-07
5.69203e-07
2.93374e-07
3.31723e-08
-2.13809e-07
-4.49677e-07
-6.76312e-07
4.69245e-06
4.17185e-06
3.70472e-06
3.2802e-06
2.88945e-06
2.52598e-06
2.18528e-06
1.86412e-06
1.55994e-06
1.27053e-06
9.93812e-07
7.27916e-07
4.7111e-07
2.21842e-07
-2.13961e-08
4.9233e-06
4.47886e-06
4.07056e-06
3.69129e-06
3.33527e-06
2.99828e-06
2.67725e-06
2.36984e-06
2.07409e-06
1.78829e-06
1.51086e-06
1.24041e-06
9.7562e-07
7.1535e-07
4.58438e-07
5.09483e-06
4.70397e-06
4.33757e-06
3.99102e-06
3.66046e-06
3.34304e-06
3.03654e-06
2.73911e-06
2.44918e-06
2.16537e-06
1.88648e-06
1.61147e-06
1.33939e-06
1.06946e-06
8.00874e-07
5.22063e-06
4.86717e-06
4.53042e-06
4.20724e-06
3.89485e-06
3.59122e-06
3.29461e-06
3.00353e-06
2.71669e-06
2.43304e-06
2.15164e-06
1.87174e-06
1.59263e-06
1.31376e-06
1.03449e-06
5.31114e-06
4.98376e-06
4.66782e-06
4.36098e-06
4.06113e-06
3.76672e-06
3.47637e-06
3.18884e-06
2.90309e-06
2.61828e-06
2.33371e-06
2.04878e-06
1.7629e-06
1.47562e-06
1.18635e-06
5.37507e-06
5.06599e-06
4.76462e-06
4.46906e-06
4.17767e-06
3.88927e-06
3.60265e-06
3.3168e-06
3.03085e-06
2.74414e-06
2.45608e-06
2.16618e-06
1.874e-06
1.57913e-06
1.28115e-06
5.41959e-06
5.1236e-06
4.8325e-06
4.54476e-06
4.25912e-06
3.97456e-06
3.69005e-06
3.40469e-06
3.11779e-06
2.82878e-06
2.53716e-06
2.24255e-06
1.94461e-06
1.64303e-06
1.33745e-06
5.4505e-06
5.16413e-06
4.88044e-06
4.59825e-06
4.31658e-06
4.03449e-06
3.75104e-06
3.46548e-06
3.17722e-06
2.88577e-06
2.59072e-06
2.29175e-06
1.98858e-06
1.68106e-06
1.36893e-06
5.47226e-06
5.19323e-06
4.91507e-06
4.63698e-06
4.35814e-06
4.07762e-06
3.79462e-06
3.50849e-06
3.2187e-06
2.92485e-06
2.62659e-06
2.32364e-06
2.01578e-06
1.70295e-06
1.38527e-06
5.48811e-06
5.2149e-06
4.94105e-06
4.66615e-06
4.38939e-06
4.10991e-06
3.82702e-06
3.54014e-06
3.24883e-06
2.95271e-06
2.6515e-06
2.34497e-06
2.03294e-06
1.7153e-06
1.39164e-06
5.5003e-06
5.23186e-06
4.96154e-06
4.68921e-06
4.41406e-06
4.13532e-06
3.85235e-06
3.56469e-06
3.27191e-06
2.97372e-06
2.66984e-06
2.36012e-06
2.04438e-06
1.7226e-06
1.39453e-06
5.51025e-06
5.24588e-06
4.97855e-06
4.70838e-06
4.43454e-06
4.15633e-06
3.87323e-06
3.5848e-06
3.29068e-06
2.9906e-06
2.68434e-06
2.37176e-06
2.05275e-06
1.72732e-06
1.39531e-06
5.51883e-06
5.258e-06
4.99329e-06
4.72498e-06
4.45224e-06
4.17448e-06
3.89122e-06
3.60208e-06
3.30674e-06
3.00496e-06
2.69658e-06
2.38146e-06
2.05953e-06
1.73087e-06
1.39509e-06
5.52652e-06
5.26883e-06
5.00643e-06
4.73975e-06
4.46797e-06
4.19059e-06
3.90719e-06
3.61741e-06
3.32098e-06
3.0177e-06
2.70742e-06
2.39004e-06
2.06552e-06
1.73397e-06
1.39488e-06
5.53354e-06
5.27864e-06
5.01831e-06
4.75307e-06
4.48214e-06
4.2051e-06
3.92156e-06
3.63122e-06
3.33383e-06
3.02922e-06
2.71726e-06
2.39789e-06
2.07108e-06
1.73694e-06
1.39497e-06
5.54011e-06
5.28773e-06
5.02925e-06
4.76529e-06
4.49513e-06
4.21839e-06
3.93473e-06
3.64389e-06
3.34564e-06
3.03984e-06
2.72639e-06
2.40524e-06
2.07639e-06
1.73996e-06
1.39547e-06
5.54662e-06
5.29665e-06
5.03994e-06
4.77719e-06
4.50776e-06
4.23131e-06
3.94755e-06
3.65624e-06
3.35719e-06
3.05027e-06
2.73542e-06
2.4126e-06
2.08182e-06
1.74324e-06
1.3964e-06
5.55282e-06
5.30518e-06
5.0502e-06
4.78866e-06
4.51999e-06
4.2439e-06
3.9601e-06
3.66839e-06
3.36861e-06
3.06065e-06
2.74447e-06
2.42005e-06
2.08743e-06
1.74676e-06
1.39762e-06
-1.33636e-05
-1.11649e-05
-9.80366e-06
-8.88431e-06
-8.14048e-06
-7.56127e-06
-7.10456e-06
-6.74367e-06
-6.46263e-06
-6.25031e-06
-6.09918e-06
-6.00408e-06
-5.96223e-06
-5.97384e-06
-6.04107e-06
-6.17048e-06
-6.37472e-06
-6.674e-06
-7.09395e-06
-7.67033e-06
-8.43536e-06
-9.39717e-06
-1.04108e-05
-1.11941e-05
-1.15998e-05
-1.15875e-05
-1.11506e-05
-1.03019e-05
-9.06634e-06
-7.47503e-06
-5.56254e-06
-3.36744e-06
-9.33292e-07
1.69083e-06
4.45064e-06
7.28746e-06
1.01389e-05
1.29387e-05
1.56128e-05
1.80736e-05
2.01989e-05
2.18234e-05
2.2574e-05
2.21081e-05
1.92047e-05
-1.17439e-05
-1.06147e-05
-9.58692e-06
-8.76849e-06
-8.07053e-06
-7.50755e-06
-7.05707e-06
-6.69918e-06
-6.42037e-06
-6.21041e-06
-6.06213e-06
-5.97046e-06
-5.9327e-06
-5.94913e-06
-6.02183e-06
-6.15729e-06
-6.36815e-06
-6.67435e-06
-7.10076e-06
-7.68203e-06
-8.44863e-06
-9.40666e-06
-1.04114e-05
-1.11836e-05
-1.15787e-05
-1.15577e-05
-1.11143e-05
-1.02611e-05
-9.02282e-06
-7.43125e-06
-5.52206e-06
-3.33542e-06
-9.16926e-07
1.68178e-06
4.40307e-06
7.18375e-06
9.95488e-06
1.264e-05
1.51493e-05
1.7367e-05
1.91195e-05
2.01319e-05
1.98633e-05
1.75149e-05
1.20741e-05
-1.08888e-05
-1.01803e-05
-9.36296e-06
-8.63391e-06
-7.98678e-06
-7.44636e-06
-7.00556e-06
-6.6525e-06
-6.37681e-06
-6.1697e-06
-6.02458e-06
-5.93663e-06
-5.90327e-06
-5.92494e-06
-6.00357e-06
-6.14559e-06
-6.36367e-06
-6.67735e-06
-7.11066e-06
-7.69691e-06
-8.46453e-06
-9.41729e-06
-1.04108e-05
-1.11694e-05
-1.15516e-05
-1.15203e-05
-1.10698e-05
-1.02122e-05
-8.97258e-06
-7.38334e-06
-5.48168e-06
-3.30985e-06
-9.16101e-07
1.6446e-06
4.31034e-06
7.01215e-06
9.67301e-06
1.22048e-05
1.45004e-05
1.64191e-05
1.77541e-05
1.81942e-05
1.72467e-05
1.43477e-05
9.3867e-06
-1.0334e-05
-9.82109e-06
-9.16307e-06
-8.50523e-06
-7.90672e-06
-7.39051e-06
-6.95994e-06
-6.61148e-06
-6.33827e-06
-6.13318e-06
-5.99046e-06
-5.90558e-06
-5.87618e-06
-5.90285e-06
-5.98735e-06
-6.13602e-06
-6.36154e-06
-6.68299e-06
-7.1234e-06
-7.71459e-06
-8.4827e-06
-9.42878e-06
-1.04086e-05
-1.11508e-05
-1.15172e-05
-1.14728e-05
-1.10128e-05
-1.01492e-05
-8.90742e-06
-7.32114e-06
-5.42955e-06
-3.27762e-06
-9.17002e-07
1.59316e-06
4.18575e-06
6.78509e-06
9.30542e-06
1.16472e-05
1.36896e-05
1.52777e-05
1.62025e-05
1.61886e-05
1.48969e-05
1.20592e-05
7.92605e-06
-9.89926e-06
-9.50155e-06
-8.96498e-06
-8.39065e-06
-7.83855e-06
-7.34627e-06
-6.92582e-06
-6.58141e-06
-6.3096e-06
-6.10525e-06
-5.96364e-06
-5.8808e-06
-5.85456e-06
-5.88572e-06
-5.97579e-06
-6.13096e-06
-6.36397e-06
-6.69326e-06
-7.14067e-06
-7.73633e-06
-8.5038e-06
-9.44107e-06
-1.04043e-05
-1.11269e-05
-1.14746e-05
-1.14149e-05
-1.09441e-05
-1.00744e-05
-8.83187e-06
-7.25171e-06
-5.3756e-06
-3.25177e-06
-9.3585e-07
1.50832e-06
4.00799e-06
6.4808e-06
8.83314e-06
1.09571e-05
1.27251e-05
1.39842e-05
1.45511e-05
1.42237e-05
1.28213e-05
1.02892e-05
6.90183e-06
-9.5319e-06
-9.21423e-06
-8.77024e-06
-8.27832e-06
-7.77916e-06
-7.31278e-06
-6.90564e-06
-6.56624e-06
-6.29537e-06
-6.09059e-06
-5.94873e-06
-5.86654e-06
-5.8423e-06
-5.87709e-06
-5.97206e-06
-6.13326e-06
-6.37347e-06
-6.71031e-06
-7.16421e-06
-7.76333e-06
-8.52838e-06
-9.45386e-06
-1.03966e-05
-1.10959e-05
-1.14218e-05
-1.13448e-05
-1.08625e-05
-9.98749e-06
-8.74686e-06
-7.17779e-06
-5.32486e-06
-3.23997e-06
-9.83087e-07
1.37706e-06
3.76233e-06
6.08463e-06
8.24501e-06
1.01324e-05
1.16221e-05
1.25778e-05
1.28591e-05
1.23435e-05
1.09691e-05
8.79844e-06
6.08808e-06
-9.19749e-06
-8.94161e-06
-8.581e-06
-8.15929e-06
-7.7148e-06
-7.28556e-06
-6.89797e-06
-6.56704e-06
-6.29844e-06
-6.0931e-06
-5.95008e-06
-5.86727e-06
-5.84372e-06
-5.88098e-06
-5.9798e-06
-6.14613e-06
-6.39285e-06
-6.73648e-06
-7.19578e-06
-7.7967e-06
-8.55677e-06
-9.46658e-06
-1.0384e-05
-1.10556e-05
-1.13563e-05
-1.12596e-05
-1.07652e-05
-9.88645e-06
-8.65163e-06
-7.10032e-06
-5.28034e-06
-3.24759e-06
-1.06644e-06
1.18981e-06
3.43858e-06
5.58818e-06
7.53824e-06
9.1809e-06
1.04039e-05
1.10975e-05
1.11684e-05
1.05614e-05
9.2884e-06
7.45572e-06
5.27606e-06
-8.87675e-06
-8.67017e-06
-8.37961e-06
-8.0269e-06
-7.64193e-06
-7.25651e-06
-6.89662e-06
-6.58045e-06
-6.31805e-06
-6.11409e-06
-5.97038e-06
-5.88649e-06
-5.86269e-06
-5.90136e-06
-6.00273e-06
-6.17297e-06
-6.42514e-06
-6.77425e-06
-7.23717e-06
-7.83741e-06
-8.58902e-06
-9.4782e-06
-1.03646e-05
-1.10033e-05
-1.12747e-05
-1.11562e-05
-1.06498e-05
-9.76973e-06
-8.54618e-06
-7.02135e-06
-5.24651e-06
-3.28159e-06
-1.19499e-06
9.36369e-07
3.02734e-06
4.98577e-06
6.71464e-06
8.11573e-06
9.09571e-06
9.57568e-06
9.50441e-06
8.87395e-06
7.73315e-06
6.19318e-06
4.41888e-06
-8.56067e-06
-8.39487e-06
-8.16303e-06
-7.87531e-06
-7.55139e-06
-7.21579e-06
-6.89191e-06
-6.59866e-06
-6.34903e-06
-6.15093e-06
-6.00914e-06
-5.92529e-06
-5.90139e-06
-5.941e-06
-6.0437e-06
-6.21653e-06
-6.47291e-06
-6.82573e-06
-7.28977e-06
-7.88594e-06
-8.62455e-06
-9.48703e-06
-1.03353e-05
-1.09353e-05
-1.11737e-05
-1.10315e-05
-1.05139e-05
-9.63663e-06
-8.43192e-06
-6.94481e-06
-5.22997e-06
-3.35098e-06
-1.37937e-06
6.06083e-07
2.52033e-06
4.27451e-06
5.77971e-06
6.95227e-06
7.72093e-06
8.03579e-06
7.87788e-06
7.26695e-06
6.2649e-06
4.97106e-06
3.50965e-06
-8.24358e-06
-8.11296e-06
-7.93101e-06
-7.70181e-06
-7.43714e-06
-7.15459e-06
-6.87348e-06
-6.61146e-06
-6.38255e-06
-6.19689e-06
-6.06183e-06
-5.98105e-06
-5.95884e-06
-6.00014e-06
-6.10325e-06
-6.2778e-06
-6.53736e-06
-6.89168e-06
-7.35369e-06
-7.9416e-06
-8.66168e-06
-9.49024e-06
-1.02926e-05
-1.08479e-05
-1.10494e-05
-1.08828e-05
-1.03564e-05
-9.48791e-06
-8.31218e-06
-6.87686e-06
-5.23954e-06
-3.46658e-06
-1.63103e-06
1.8887e-07
1.91139e-06
3.45472e-06
4.74182e-06
5.7061e-06
6.29793e-06
6.49104e-06
6.28773e-06
5.72071e-06
4.85142e-06
3.76225e-06
2.54588e-06
-7.9195e-06
-7.82058e-06
-7.68194e-06
-7.50479e-06
-7.29569e-06
-7.06662e-06
-6.83244e-06
-6.60837e-06
-6.40791e-06
-6.24217e-06
-6.1202e-06
-6.04729e-06
-6.0302e-06
-6.07502e-06
-6.17811e-06
-6.3548e-06
-6.61731e-06
-6.97058e-06
-7.42688e-06
-8.00171e-06
-8.69696e-06
-9.48377e-06
-1.02321e-05
-1.07365e-05
-1.08985e-05
-1.07083e-05
-1.01777e-05
-9.32674e-06
-8.19309e-06
-6.82648e-06
-5.28636e-06
-3.64058e-06
-1.96154e-06
-3.2396e-07
1.197e-06
2.52962e-06
3.61079e-06
4.39103e-06
4.8392e-06
4.94595e-06
4.72545e-06
4.21376e-06
3.46548e-06
2.54624e-06
1.52514e-06
-7.58087e-06
-7.51167e-06
-7.41177e-06
-7.28124e-06
-7.12356e-06
-6.94653e-06
-6.76107e-06
-6.57951e-06
-6.41385e-06
-6.27515e-06
-6.17301e-06
-6.11408e-06
-6.10782e-06
-6.15663e-06
-6.26067e-06
-6.44249e-06
-6.70825e-06
-7.05777e-06
-7.50438e-06
-8.06105e-06
-8.72487e-06
-9.46216e-06
-1.01488e-05
-1.05974e-05
-1.07192e-05
-1.05091e-05
-9.98154e-06
-9.15967e-06
-8.0844e-06
-6.8059e-06
-5.38384e-06
-3.88602e-06
-2.38167e-06
-9.38843e-07
3.76606e-07
1.50481e-06
2.39673e-06
3.01803e-06
3.35164e-06
3.3988e-06
3.17875e-06
2.72533e-06
2.08415e-06
1.30633e-06
4.43466e-07
-7.2181e-06
-7.17767e-06
-7.11351e-06
-7.02542e-06
-6.91523e-06
-6.78792e-06
-6.65125e-06
-6.51481e-06
-6.38861e-06
-6.28294e-06
-6.20698e-06
-6.16824e-06
-6.17984e-06
-6.23585e-06
-6.34385e-06
-6.53245e-06
-6.79969e-06
-7.1442e-06
-7.57774e-06
-8.11157e-06
-8.7378e-06
-9.41893e-06
-1.0038e-05
-1.04279e-05
-1.05121e-05
-1.02894e-05
-9.77562e-06
-8.99755e-06
-7.99997e-06
-6.83045e-06
-5.54692e-06
-4.21567e-06
-2.90014e-06
-1.65905e-06
-5.4717e-07
3.87775e-07
1.10943e-06
1.5954e-06
1.83818e-06
1.8445e-06
1.63459e-06
1.2371e-06
6.88702e-07
2.86789e-08
-7.04348e-07
-6.81926e-06
-6.80726e-06
-6.77699e-06
-6.72832e-06
-6.66227e-06
-6.5821e-06
-6.49326e-06
-6.40298e-06
-6.31935e-06
-6.25116e-06
-6.20696e-06
-6.19449e-06
-6.22311e-06
-6.29564e-06
-6.41785e-06
-6.61141e-06
-6.87823e-06
-7.216e-06
-7.63532e-06
-8.14279e-06
-8.7266e-06
-9.34749e-06
-9.89648e-06
-1.02282e-05
-1.02817e-05
-1.00583e-05
-9.5723e-06
-8.85602e-06
-7.95769e-06
-6.91715e-06
-5.7905e-06
-4.64073e-06
-3.52262e-06
-2.48403e-06
-1.56846e-06
-8.12426e-07
-2.4182e-07
1.296e-07
3.00004e-07
2.78267e-07
8.16485e-08
-2.65574e-07
-7.35215e-07
-1.29743e-06
-1.92327e-06
-6.3693e-06
-6.38576e-06
-6.3883e-06
-6.37701e-06
-6.35256e-06
-6.31714e-06
-6.27466e-06
-6.23051e-06
-6.19107e-06
-6.16351e-06
-6.1552e-06
-6.17337e-06
-6.2262e-06
-6.32028e-06
-6.46061e-06
-6.66035e-06
-6.92665e-06
-7.25945e-06
-7.66353e-06
-8.14242e-06
-8.68129e-06
-9.24188e-06
-9.7235e-06
-1.00025e-05
-1.00373e-05
-9.82917e-06
-9.38705e-06
-8.75605e-06
-7.97807e-06
-7.08231e-06
-6.12688e-06
-5.16889e-06
-4.25065e-06
-3.40928e-06
-2.67853e-06
-2.08561e-06
-1.64832e-06
-1.37461e-06
-1.26351e-06
-1.30659e-06
-1.48996e-06
-1.79413e-06
-2.19798e-06
-2.67938e-06
-3.21666e-06
-5.84959e-06
-5.89517e-06
-5.93011e-06
-5.95486e-06
-5.97011e-06
-5.97747e-06
-5.97976e-06
-5.9811e-06
-5.98643e-06
-6.00145e-06
-6.03238e-06
-6.08566e-06
-6.16858e-06
-6.28742e-06
-6.44788e-06
-6.65905e-06
-6.92817e-06
-7.25699e-06
-7.64611e-06
-8.09681e-06
-8.59209e-06
-9.09718e-06
-9.52022e-06
-9.76e-06
-9.79474e-06
-9.61638e-06
-9.24077e-06
-8.72393e-06
-8.07697e-06
-7.33748e-06
-6.56625e-06
-5.80423e-06
-5.08154e-06
-4.427e-06
-3.86688e-06
-3.4211e-06
-3.1016e-06
-2.91286e-06
-2.8529e-06
-2.91491e-06
-3.0877e-06
-3.35691e-06
-3.70702e-06
-4.12215e-06
-4.58635e-06
-5.24049e-06
-5.31619e-06
-5.38375e-06
-5.44383e-06
-5.4973e-06
-5.54553e-06
-5.59112e-06
-5.63709e-06
-5.68719e-06
-5.74585e-06
-5.81825e-06
-5.90979e-06
-6.02646e-06
-6.1739e-06
-6.35791e-06
-6.58515e-06
-6.86123e-06
-7.1887e-06
-7.56617e-06
-7.99253e-06
-8.45154e-06
-8.91133e-06
-9.29014e-06
-9.51549e-06
-9.56782e-06
-9.43527e-06
-9.16947e-06
-8.77694e-06
-8.26e-06
-7.6923e-06
-7.11417e-06
-6.54604e-06
-6.0093e-06
-5.52818e-06
-5.12337e-06
-4.80915e-06
-4.59358e-06
-4.47964e-06
-4.46588e-06
-4.54705e-06
-4.71466e-06
-4.95815e-06
-5.26658e-06
-5.62873e-06
-6.03326e-06
-4.52202e-06
-4.62924e-06
-4.73063e-06
-4.82696e-06
-4.91914e-06
-5.00527e-06
-5.09259e-06
-5.1827e-06
-5.27743e-06
-5.38013e-06
-5.49511e-06
-5.62687e-06
-5.78021e-06
-5.95998e-06
-6.17129e-06
-6.41892e-06
-6.70715e-06
-7.03804e-06
-7.41056e-06
-7.82048e-06
-8.2554e-06
-8.68775e-06
-9.04705e-06
-9.28192e-06
-9.36753e-06
-9.32869e-06
-9.17858e-06
-8.89916e-06
-8.54606e-06
-8.1644e-06
-7.77446e-06
-7.38833e-06
-7.02451e-06
-6.70298e-06
-6.4391e-06
-6.24267e-06
-6.11919e-06
-6.07129e-06
-6.09869e-06
-6.19864e-06
-6.36642e-06
-6.59427e-06
-6.8728e-06
-7.19394e-06
-7.55055e-06
-3.67842e-06
-3.81619e-06
-3.94968e-06
-4.08001e-06
-4.20771e-06
-4.33749e-06
-4.46786e-06
-4.60215e-06
-4.74183e-06
-4.88927e-06
-5.04812e-06
-5.22207e-06
-5.41501e-06
-5.63073e-06
-5.87344e-06
-6.14662e-06
-6.45342e-06
-6.79575e-06
-7.172e-06
-7.579e-06
-8.00593e-06
-8.43173e-06
-8.80659e-06
-9.07576e-06
-9.23085e-06
-9.29085e-06
-9.24647e-06
-9.11802e-06
-8.94325e-06
-8.74311e-06
-8.52885e-06
-8.31286e-06
-8.11087e-06
-7.93738e-06
-7.80302e-06
-7.71475e-06
-7.67673e-06
-7.69134e-06
-7.75877e-06
-7.87795e-06
-8.04749e-06
-8.2638e-06
-8.51906e-06
-8.80785e-06
-9.1257e-06
-2.73068e-06
-2.89952e-06
-3.065e-06
-3.2282e-06
-3.39207e-06
-3.5561e-06
-3.72531e-06
-3.89927e-06
-4.07977e-06
-4.26962e-06
-4.47152e-06
-4.68814e-06
-4.9223e-06
-5.17701e-06
-5.4554e-06
-5.76028e-06
-6.09391e-06
-6.4578e-06
-6.85125e-06
-7.27142e-06
-7.71225e-06
-8.15987e-06
-8.57056e-06
-8.90577e-06
-9.15427e-06
-9.3117e-06
-9.39685e-06
-9.43269e-06
-9.43027e-06
-9.39846e-06
-9.3482e-06
-9.29169e-06
-9.24015e-06
-9.20302e-06
-9.18761e-06
-9.19948e-06
-9.24283e-06
-9.31987e-06
-9.43173e-06
-9.57789e-06
-9.75472e-06
-9.95935e-06
-1.01937e-05
-1.04561e-05
-1.07423e-05
-1.75656e-06
-1.95588e-06
-2.15456e-06
-2.35238e-06
-2.54901e-06
-2.74954e-06
-2.95651e-06
-3.17113e-06
-3.3937e-06
-3.62583e-06
-3.87001e-06
-4.12857e-06
-4.40378e-06
-4.698e-06
-5.01369e-06
-5.35317e-06
-5.71828e-06
-6.11053e-06
-6.52982e-06
-6.97528e-06
-7.44349e-06
-7.92695e-06
-8.39142e-06
-8.79593e-06
-9.12897e-06
-9.3995e-06
-9.62064e-06
-9.79819e-06
-9.93626e-06
-1.00435e-05
-1.01304e-05
-1.0206e-05
-1.02776e-05
-1.03516e-05
-1.04337e-05
-1.05283e-05
-1.06386e-05
-1.0767e-05
-1.09144e-05
-1.10821e-05
-1.12709e-05
-1.14812e-05
-1.17102e-05
-1.19566e-05
-1.2219e-05
-8.98673e-07
-1.1209e-06
-1.34375e-06
-1.56983e-06
-1.80256e-06
-2.04323e-06
-2.28698e-06
-2.53634e-06
-2.79487e-06
-3.06427e-06
-3.34581e-06
-3.64136e-06
-3.95299e-06
-4.28275e-06
-4.63265e-06
-5.00469e-06
-5.40065e-06
-5.82194e-06
-6.26941e-06
-6.74304e-06
-7.24165e-06
-7.76215e-06
-8.27264e-06
-8.73612e-06
-9.14688e-06
-9.50961e-06
-9.82716e-06
-1.01026e-05
-1.03418e-05
-1.05521e-05
-1.07409e-05
-1.09144e-05
-1.10777e-05
-1.12356e-05
-1.13924e-05
-1.15518e-05
-1.17167e-05
-1.18895e-05
-1.20725e-05
-1.22664e-05
-1.24726e-05
-1.26905e-05
-1.29201e-05
-1.31604e-05
-1.34101e-05
-2.62845e-07
-5.06716e-07
-7.54206e-07
-1.00622e-06
-1.26311e-06
-1.52594e-06
-1.79475e-06
-2.07158e-06
-2.35855e-06
-2.65679e-06
-2.96739e-06
-3.29199e-06
-3.63239e-06
-3.99029e-06
-4.36742e-06
-4.76552e-06
-5.18627e-06
-5.63113e-06
-6.10129e-06
-6.59734e-06
-7.11934e-06
-7.66593e-06
-8.20956e-06
-8.71662e-06
-9.17946e-06
-9.59906e-06
-9.97752e-06
-1.03188e-05
-1.06279e-05
-1.091e-05
-1.11698e-05
-1.14118e-05
-1.16402e-05
-1.18584e-05
-1.20699e-05
-1.22775e-05
-1.2484e-05
-1.26914e-05
-1.29014e-05
-1.3115e-05
-1.3333e-05
-1.35563e-05
-1.37852e-05
-1.40191e-05
-1.42578e-05
2.01451e-07
-5.90372e-08
-3.24035e-07
-5.9406e-07
-8.70772e-07
-1.15408e-06
-1.44527e-06
-1.74569e-06
-2.05642e-06
-2.37844e-06
-2.71291e-06
-3.06121e-06
-3.42477e-06
-3.80503e-06
-4.20349e-06
-4.62166e-06
-5.06107e-06
-5.52311e-06
-6.00905e-06
-6.51981e-06
-7.05597e-06
-7.61748e-06
-8.17987e-06
-8.71095e-06
-9.20253e-06
-9.65592e-06
-1.00735e-05
-1.04585e-05
-1.08143e-05
-1.11446e-05
-1.14528e-05
-1.17423e-05
-1.20161e-05
-1.2277e-05
-1.25276e-05
-1.27704e-05
-1.30072e-05
-1.32399e-05
-1.34699e-05
-1.36985e-05
-1.39268e-05
-1.41557e-05
-1.43855e-05
-1.46163e-05
-1.48485e-05
5.30803e-07
2.56082e-07
-2.48243e-08
-3.11999e-07
-6.05983e-07
-9.07604e-07
-1.21796e-06
-1.53781e-06
-1.86794e-06
-2.20926e-06
-2.56282e-06
-2.9297e-06
-3.31106e-06
-3.70811e-06
-4.12212e-06
-4.55439e-06
-5.00622e-06
-5.47887e-06
-5.97355e-06
-6.49124e-06
-7.03277e-06
-7.59854e-06
-8.16632e-06
-8.70656e-06
-9.2121e-06
-9.68441e-06
-1.01254e-05
-1.05373e-05
-1.09228e-05
-1.12844e-05
-1.16247e-05
-1.19462e-05
-1.22512e-05
-1.25418e-05
-1.28202e-05
-1.3088e-05
-1.33471e-05
-1.35988e-05
-1.38444e-05
-1.40852e-05
-1.43225e-05
-1.4557e-05
-1.47891e-05
-1.50193e-05
-1.5248e-05
7.52371e-07
4.65207e-07
1.69672e-07
-1.31887e-07
-4.40839e-07
-7.58023e-07
-1.08407e-06
-1.41959e-06
-1.76528e-06
-2.12191e-06
-2.49028e-06
-2.87127e-06
-3.26582e-06
-3.6749e-06
-4.09956e-06
-4.54084e-06
-4.99985e-06
-5.47764e-06
-5.97527e-06
-6.49366e-06
-7.03362e-06
-7.59555e-06
-8.15966e-06
-8.69973e-06
-9.2095e-06
-9.69022e-06
-1.01433e-05
-1.05704e-05
-1.09736e-05
-1.13546e-05
-1.17155e-05
-1.20581e-05
-1.23841e-05
-1.26952e-05
-1.29929e-05
-1.32789e-05
-1.35544e-05
-1.38206e-05
-1.40784e-05
-1.4329e-05
-1.4574e-05
-1.48137e-05
-1.50487e-05
-1.52796e-05
-1.55069e-05
8.92833e-07
5.92446e-07
2.87422e-07
-2.59179e-08
-3.47475e-07
-6.7746e-07
-1.01631e-06
-1.36453e-06
-1.72265e-06
-2.09126e-06
-2.47098e-06
-2.8625e-06
-3.26655e-06
-3.68389e-06
-4.11533e-06
-4.56171e-06
-5.02392e-06
-5.50277e-06
-5.99918e-06
-6.51386e-06
-7.04756e-06
-7.60058e-06
-8.15556e-06
-8.68961e-06
-9.19721e-06
-9.6793e-06
-1.01369e-05
-1.05714e-05
-1.09842e-05
-1.13767e-05
-1.17503e-05
-1.21064e-05
-1.24463e-05
-1.27713e-05
-1.30827e-05
-1.33815e-05
-1.3669e-05
-1.39463e-05
-1.4214e-05
-1.44724e-05
-1.47238e-05
-1.49682e-05
-1.52063e-05
-1.54388e-05
-1.56663e-05
9.78611e-07
6.69252e-07
3.53199e-07
2.91613e-08
-3.03046e-07
-6.43653e-07
-9.93004e-07
-1.35147e-06
-1.71943e-06
-2.09734e-06
-2.48566e-06
-2.88489e-06
-3.29559e-06
-3.71832e-06
-4.15371e-06
-4.60237e-06
-5.06498e-06
-5.54217e-06
-6.03465e-06
-6.54295e-06
-7.06769e-06
-7.60907e-06
-8.15196e-06
-8.67666e-06
-9.17828e-06
-9.65744e-06
-1.01149e-05
-1.05518e-05
-1.0969e-05
-1.13676e-05
-1.17487e-05
-1.21133e-05
-1.24624e-05
-1.27968e-05
-1.31176e-05
-1.34257e-05
-1.3722e-05
-1.40075e-05
-1.42841e-05
-1.45481e-05
-1.48048e-05
-1.50536e-05
-1.52951e-05
-1.553e-05
-1.57588e-05
1.02646e-06
7.08969e-07
3.83903e-07
5.09156e-08
-2.90174e-07
-6.39563e-07
-9.97481e-07
-1.36418e-06
-1.73993e-06
-2.12504e-06
-2.51985e-06
-2.92469e-06
-3.33996e-06
-3.76607e-06
-4.20344e-06
-4.65252e-06
-5.11381e-06
-5.58772e-06
-6.07479e-06
-6.57537e-06
-7.08997e-06
-7.61861e-06
-8.14824e-06
-8.66207e-06
-9.15577e-06
-9.62967e-06
-1.00844e-05
-1.05206e-05
-1.0939e-05
-1.13406e-05
-1.17258e-05
-1.20956e-05
-1.24505e-05
-1.27913e-05
-1.31187e-05
-1.34335e-05
-1.37361e-05
-1.40272e-05
-1.43069e-05
-1.45796e-05
-1.48415e-05
-1.50945e-05
-1.53395e-05
-1.55772e-05
-1.58081e-05
1.0507e-06
7.25662e-07
3.93008e-07
5.24736e-08
-2.96073e-07
-6.5275e-07
-1.0177e-06
-1.39107e-06
-1.77304e-06
-2.16379e-06
-2.56354e-06
-2.9725e-06
-3.39092e-06
-3.81906e-06
-4.25719e-06
-4.7056e-06
-5.16461e-06
-5.63447e-06
-6.11555e-06
-6.60802e-06
-7.11227e-06
-7.62815e-06
-8.14451e-06
-8.64717e-06
-9.13224e-06
-9.59983e-06
-1.00503e-05
-1.04843e-05
-1.09022e-05
-1.13046e-05
-1.1692e-05
-1.20647e-05
-1.24234e-05
-1.27686e-05
-1.31008e-05
-1.34204e-05
-1.3728e-05
-1.40242e-05
-1.43092e-05
-1.45855e-05
-1.48516e-05
-1.51085e-05
-1.53569e-05
-1.55975e-05
-1.58309e-05
1.06051e-06
7.28986e-07
3.8984e-07
4.28703e-08
-3.11983e-07
-6.74773e-07
-1.04556e-06
-1.42442e-06
-1.81144e-06
-2.2067e-06
-2.61031e-06
-3.02237e-06
-3.44301e-06
-3.87235e-06
-4.31055e-06
-4.75773e-06
-5.21406e-06
-5.67966e-06
-6.15473e-06
-6.63929e-06
-7.1336e-06
-7.63736e-06
-8.14111e-06
-8.63298e-06
-9.10946e-06
-9.5705e-06
-1.00163e-05
-1.04473e-05
-1.08637e-05
-1.12659e-05
-1.16541e-05
-1.20286e-05
-1.23897e-05
-1.27379e-05
-1.30735e-05
-1.33968e-05
-1.37083e-05
-1.40084e-05
-1.42977e-05
-1.45772e-05
-1.48469e-05
-1.51072e-05
-1.53587e-05
-1.56022e-05
-1.58383e-05
1.06219e-06
7.25183e-07
3.8046e-07
2.79587e-08
-3.32287e-07
-7.00272e-07
-1.076e-06
-1.45946e-06
-1.85067e-06
-2.24963e-06
-2.65635e-06
-3.07084e-06
-3.49311e-06
-3.92318e-06
-4.36108e-06
-4.80682e-06
-5.26042e-06
-5.72189e-06
-6.19126e-06
-6.66843e-06
-7.15354e-06
-7.64614e-06
-8.1383e-06
-8.62014e-06
-9.0885e-06
-9.54321e-06
-9.98438e-06
-1.04121e-05
-1.08266e-05
-1.1228e-05
-1.16163e-05
-1.19917e-05
-1.23545e-05
-1.27048e-05
-1.30429e-05
-1.33691e-05
-1.36837e-05
-1.3987e-05
-1.42795e-05
-1.4562e-05
-1.48348e-05
-1.50981e-05
-1.53525e-05
-1.55986e-05
-1.58373e-05
1.05999e-06
7.18168e-07
3.68609e-07
1.13025e-08
-3.53609e-07
-7.26073e-07
-1.10604e-06
-1.49344e-06
-1.88821e-06
-2.29029e-06
-2.6996e-06
-3.11606e-06
-3.53961e-06
-3.97016e-06
-4.40762e-06
-4.85191e-06
-5.30293e-06
-5.76056e-06
-6.22472e-06
-6.69518e-06
-7.17196e-06
-7.6545e-06
-8.13618e-06
-8.60891e-06
-9.06984e-06
-9.51869e-06
-9.95544e-06
-1.03801e-05
-1.07925e-05
-1.11928e-05
-1.15809e-05
-1.19569e-05
-1.23208e-05
-1.26727e-05
-1.30128e-05
-1.33412e-05
-1.36582e-05
-1.39642e-05
-1.42593e-05
-1.45444e-05
-1.48198e-05
-1.50858e-05
-1.53426e-05
-1.55913e-05
-1.58323e-05
1.05627e-06
7.10215e-07
3.56434e-07
-5.09334e-09
-3.74087e-07
-7.50463e-07
-1.13412e-06
-1.52494e-06
-1.9228e-06
-2.32757e-06
-2.7391e-06
-3.15725e-06
-3.58185e-06
-4.01275e-06
-4.44976e-06
-4.89269e-06
-5.34136e-06
-5.79553e-06
-6.25502e-06
-6.71948e-06
-7.18884e-06
-7.6624e-06
-8.13475e-06
-8.59933e-06
-9.05358e-06
-9.49714e-06
-9.92985e-06
-1.03515e-05
-1.0762e-05
-1.11612e-05
-1.1549e-05
-1.19252e-05
-1.22899e-05
-1.26431e-05
-1.29847e-05
-1.3315e-05
-1.36341e-05
-1.39422e-05
-1.42396e-05
-1.45269e-05
-1.48045e-05
-1.50728e-05
-1.53319e-05
-1.55827e-05
-1.58259e-05
1.05237e-06
7.02576e-07
3.45048e-07
-2.0224e-08
-3.92821e-07
-7.72646e-07
-1.15956e-06
-1.55339e-06
-1.95397e-06
-2.3611e-06
-2.77458e-06
-3.19419e-06
-3.61972e-06
-4.0509e-06
-4.4875e-06
-4.92923e-06
-5.37581e-06
-5.82692e-06
-6.28227e-06
-6.74143e-06
-7.20421e-06
-7.66983e-06
-8.13391e-06
-8.59126e-06
-9.03959e-06
-9.47844e-06
-9.90754e-06
-1.03266e-05
-1.07353e-05
-1.11335e-05
-1.15209e-05
-1.18973e-05
-1.22626e-05
-1.26167e-05
-1.29597e-05
-1.32915e-05
-1.36123e-05
-1.39223e-05
-1.42216e-05
-1.45107e-05
-1.47903e-05
-1.50607e-05
-1.53216e-05
-1.55743e-05
-1.58193e-05
1.04901e-06
6.9581e-07
3.34913e-07
-3.36745e-08
-4.09465e-07
-7.92349e-07
-1.18214e-06
-1.57865e-06
-1.98163e-06
-2.39086e-06
-2.80608e-06
-3.227e-06
-3.65335e-06
-4.08481e-06
-4.52105e-06
-4.96173e-06
-5.40648e-06
-5.8549e-06
-6.30662e-06
-6.76111e-06
-7.21811e-06
-7.67675e-06
-8.13354e-06
-8.58452e-06
-9.02763e-06
-9.46234e-06
-9.88825e-06
-1.0305e-05
-1.07121e-05
-1.11094e-05
-1.14964e-05
-1.18729e-05
-1.22388e-05
-1.25938e-05
-1.29379e-05
-1.3271e-05
-1.35932e-05
-1.39048e-05
-1.42056e-05
-1.44965e-05
-1.47778e-05
-1.50498e-05
-1.53124e-05
-1.55667e-05
-1.58134e-05
1.04631e-06
6.90066e-07
3.26169e-07
-4.53366e-08
-4.23954e-07
-8.09548e-07
-1.2019e-06
-1.60077e-06
-2.0059e-06
-2.417e-06
-2.83376e-06
-3.25586e-06
-3.68295e-06
-4.11467e-06
-4.55063e-06
-4.99041e-06
-5.43358e-06
-5.87966e-06
-6.32822e-06
-6.77865e-06
-7.2306e-06
-7.68311e-06
-8.13351e-06
-8.57891e-06
-9.01747e-06
-9.44856e-06
-9.8717e-06
-1.02864e-05
-1.06922e-05
-1.10886e-05
-1.14753e-05
-1.1852e-05
-1.22183e-05
-1.2574e-05
-1.29191e-05
-1.32533e-05
-1.35769e-05
-1.38898e-05
-1.4192e-05
-1.44843e-05
-1.47672e-05
-1.50405e-05
-1.53046e-05
-1.55603e-05
-1.58083e-05
1.04422e-06
6.85297e-07
3.18727e-07
-5.53647e-08
-4.36501e-07
-8.24512e-07
-1.21915e-06
-1.62014e-06
-2.02718e-06
-2.43995e-06
-2.8581e-06
-3.28127e-06
-3.70905e-06
-4.14103e-06
-4.57678e-06
-5.0158e-06
-5.45761e-06
-5.90168e-06
-6.34748e-06
-6.79436e-06
-7.24188e-06
-7.689e-06
-8.13374e-06
-8.57418e-06
-9.00874e-06
-9.43666e-06
-9.85737e-06
-1.02703e-05
-1.06749e-05
-1.10707e-05
-1.14571e-05
-1.18339e-05
-1.22007e-05
-1.25571e-05
-1.2903e-05