/*--------------------------------*- C++ -*----------------------------------*\
| =========                 |                                                 |
| \\      /  F ield         | OpenFOAM: The Open Source CFD Toolbox           |
|  \\    /   O peration     | Version:  2312                                  |
|   \\  /    A nd           | Website:  www.openfoam.com                      |
|    \\/     M anipulation  |                                                 |
\*---------------------------------------------------------------------------*/
FoamFile
{
    version     2.0;
    format      ascii;
    arch        "LSB;label=32;scalar=64";
    class       volScalarField;
    location    "13.5";
    object      p;
}
// * * * * * * * * * * * * * * * * * * * * * * * * * * * * * * * * * * * * * //

dimensions      [0 2 -2 0 0 0 0];

internalField   nonuniform List<scalar> 
4800
(
-1.53186e-12
-1.40847e-06
-2.58168e-06
-3.57581e-06
-4.42899e-06
-5.16644e-06
-5.81245e-06
-6.38462e-06
-6.8914e-06
-7.34506e-06
-7.75423e-06
-8.12102e-06
-8.43911e-06
-8.93933e-06
-1.0569e-05
1.54285e-08
-1.39043e-06
-2.56181e-06
-3.55478e-06
-4.40797e-06
-5.14649e-06
-5.79504e-06
-6.37122e-06
-6.88398e-06
-7.34736e-06
-7.77518e-06
-8.18298e-06
-8.58555e-06
-9.08957e-06
-9.9428e-06
3.19021e-08
-1.37106e-06
-2.54055e-06
-3.53256e-06
-4.38562e-06
-5.12501e-06
-5.77444e-06
-6.35362e-06
-6.87115e-06
-7.34157e-06
-7.78016e-06
-8.20327e-06
-8.6202e-06
-9.04025e-06
-9.44318e-06
4.89595e-08
-1.3505e-06
-2.51758e-06
-3.50809e-06
-4.36044e-06
-5.1007e-06
-5.74931e-06
-6.32969e-06
-6.84933e-06
-7.32096e-06
-7.75759e-06
-8.16717e-06
-8.54275e-06
-8.85457e-06
-9.0348e-06
6.81038e-08
-1.32698e-06
-2.49087e-06
-3.47913e-06
-4.32987e-06
-5.06988e-06
-5.71732e-06
-6.29537e-06
-6.81303e-06
-7.27859e-06
-7.70022e-06
-8.0765e-06
-8.38939e-06
-8.60158e-06
-8.65923e-06
9.08092e-08
-1.29894e-06
-2.45872e-06
-3.44374e-06
-4.29171e-06
-5.02914e-06
-5.67454e-06
-6.24651e-06
-6.75603e-06
-7.20694e-06
-7.6016e-06
-7.93239e-06
-8.17906e-06
-8.31284e-06
-8.30619e-06
1.19253e-07
-1.26418e-06
-2.41873e-06
-3.39923e-06
-4.24279e-06
-4.97531e-06
-5.61501e-06
-6.17725e-06
-6.67155e-06
-7.09905e-06
-7.45771e-06
-7.73822e-06
-7.92508e-06
-8.00352e-06
-7.96681e-06
1.57093e-07
-1.21909e-06
-2.36714e-06
-3.34143e-06
-4.17835e-06
-4.90299e-06
-5.53253e-06
-6.07992e-06
-6.55219e-06
-6.9492e-06
-7.26734e-06
-7.49962e-06
-7.63836e-06
-7.68114e-06
-7.63298e-06
2.0984e-07
-1.15824e-06
-2.29829e-06
-3.2643e-06
-4.09176e-06
-4.80482e-06
-5.41939e-06
-5.94634e-06
-6.39097e-06
-6.75337e-06
-7.03122e-06
-7.22205e-06
-7.3257e-06
-7.34788e-06
-7.29867e-06
2.84745e-07
-1.0743e-06
-2.20456e-06
-3.15975e-06
-3.97445e-06
-4.67175e-06
-5.26655e-06
-5.76835e-06
-6.18185e-06
-6.50904e-06
-6.75066e-06
-6.9091e-06
-6.98968e-06
-7.00235e-06
-6.95841e-06
3.90057e-07
-9.58493e-07
-2.07666e-06
-3.01801e-06
-3.81628e-06
-4.49367e-06
-5.06449e-06
-5.53796e-06
-5.91992e-06
-6.21462e-06
-6.42656e-06
-6.56209e-06
-6.62972e-06
-6.64089e-06
-6.60634e-06
5.34125e-07
-8.01428e-07
-1.90438e-06
-2.82835e-06
-3.60645e-06
-4.26037e-06
-4.80449e-06
-5.2489e-06
-5.60144e-06
-5.86886e-06
-6.05882e-06
-6.18027e-06
-6.24308e-06
-6.25855e-06
-6.23625e-06
7.25119e-07
-5.93489e-07
-1.67719e-06
-2.57985e-06
-3.33437e-06
-3.96241e-06
-4.47917e-06
-4.89627e-06
-5.22361e-06
-5.47038e-06
-5.64621e-06
-5.76129e-06
-5.82567e-06
-5.84977e-06
-5.84182e-06
9.71216e-07
-3.24746e-07
-1.38431e-06
-2.26161e-06
-2.98983e-06
-3.59121e-06
-4.08208e-06
-4.4757e-06
-4.78368e-06
-5.0169e-06
-5.18594e-06
-5.30122e-06
-5.37229e-06
-5.40838e-06
-5.41655e-06
1.2804e-06
1.4838e-08
-1.01489e-06
-1.86289e-06
-2.56308e-06
-3.13858e-06
-3.60682e-06
-3.98225e-06
-4.27752e-06
-4.50413e-06
-4.67297e-06
-4.79401e-06
-4.876e-06
-4.927e-06
-4.95304e-06
1.65945e-06
4.34343e-07
-5.5908e-07
-1.37417e-06
-2.04553e-06
-2.59713e-06
-3.04704e-06
-3.41009e-06
-3.69913e-06
-3.92585e-06
-4.10036e-06
-4.23197e-06
-4.32859e-06
-4.39724e-06
-4.44313e-06
2.11176e-06
9.39656e-07
-1.02424e-08
-7.89103e-07
-1.43151e-06
-1.96172e-06
-2.39785e-06
-2.75438e-06
-3.04353e-06
-3.27605e-06
-3.4613e-06
-3.60781e-06
-3.72264e-06
-3.81185e-06
-3.87998e-06
2.63472e-06
1.53026e-06
6.31858e-07
-1.07533e-07
-7.21012e-07
-1.23214e-06
-1.65828e-06
-2.01298e-06
-2.30734e-06
-2.55082e-06
-2.75141e-06
-2.91697e-06
-3.05373e-06
-3.16687e-06
-3.26035e-06
3.21755e-06
2.19599e-06
1.35741e-06
6.6089e-07
7.66145e-08
-4.16957e-07
-8.35568e-07
-1.19123e-06
-1.49364e-06
-1.75117e-06
-1.97095e-06
-2.15898e-06
-2.32063e-06
-2.46052e-06
-2.58231e-06
3.83912e-06
2.9138e-06
2.14252e-06
1.49208e-06
9.37526e-07
4.60476e-07
4.74607e-08
-3.11585e-07
-6.24555e-07
-8.98028e-07
-1.13786e-06
-1.34918e-06
-1.53678e-06
-1.70476e-06
-1.85647e-06
4.43649e-06
3.61025e-06
2.90747e-06
2.30295e-06
1.77724e-06
1.31571e-06
9.07459e-07
5.44243e-07
2.1961e-07
-7.16627e-08
-3.33905e-07
-5.7098e-07
-7.8715e-07
-9.85818e-07
-1.16978e-06
4.92633e-06
4.18604e-06
3.54277e-06
2.97811e-06
2.47748e-06
2.02975e-06
1.62641e-06
1.26091e-06
9.27879e-07
6.22686e-07
3.41042e-07
7.94935e-08
-1.63575e-07
-3.90327e-07
-6.03245e-07
5.29264e-06
4.61924e-06
4.02221e-06
3.4882e-06
3.00652e-06
2.5687e-06
2.16808e-06
1.79925e-06
1.45777e-06
1.13989e-06
8.4259e-07
5.63683e-07
3.00764e-07
5.1966e-08
-1.84582e-07
5.56008e-06
4.93886e-06
4.37822e-06
3.8686e-06
3.40216e-06
2.97247e-06
2.57423e-06
2.20305e-06
1.85532e-06
1.52805e-06
1.21877e-06
9.25351e-07
6.45928e-07
3.78887e-07
1.22677e-07
5.75315e-06
5.17273e-06
4.64108e-06
4.15121e-06
3.6973e-06
3.27438e-06
2.87818e-06
2.50514e-06
2.15225e-06
1.81707e-06
1.49748e-06
1.19166e-06
8.98144e-07
6.15623e-07
3.42801e-07
5.89119e-06
5.34288e-06
4.83436e-06
4.36041e-06
3.91661e-06
3.49905e-06
3.10428e-06
2.72936e-06
2.37183e-06
2.02965e-06
1.70106e-06
1.38468e-06
1.07925e-06
7.8368e-07
4.9691e-07
5.98901e-06
5.46618e-06
4.97613e-06
4.51492e-06
4.07915e-06
3.66569e-06
3.27175e-06
2.89492e-06
2.53321e-06
2.18493e-06
1.84861e-06
1.52327e-06
1.20779e-06
9.01251e-07
6.02784e-07
6.05782e-06
5.55541e-06
5.0802e-06
4.62921e-06
4.19982e-06
3.78948e-06
3.39593e-06
3.01723e-06
2.6518e-06
2.2983e-06
1.95538e-06
1.62238e-06
1.29833e-06
9.8251e-07
6.74186e-07
6.10597e-06
5.62014e-06
5.15697e-06
4.71428e-06
4.29001e-06
3.88206e-06
3.48863e-06
3.10815e-06
2.73934e-06
2.38105e-06
2.03272e-06
1.69318e-06
1.36181e-06
1.03808e-06
7.21412e-07
6.13961e-06
5.66745e-06
5.21421e-06
4.77836e-06
4.35822e-06
3.95213e-06
3.55862e-06
3.1765e-06
2.80476e-06
2.44251e-06
2.08917e-06
1.74393e-06
1.40628e-06
1.07581e-06
7.52041e-07
6.16321e-06
5.7025e-06
5.25758e-06
4.82742e-06
4.41068e-06
4.00602e-06
3.61233e-06
3.22869e-06
2.85428e-06
2.48856e-06
2.13086e-06
1.78068e-06
1.43762e-06
1.10137e-06
7.71522e-07
6.18e-06
5.729e-06
5.29114e-06
4.86578e-06
4.45185e-06
4.04834e-06
3.6544e-06
3.26935e-06
2.89262e-06
2.52374e-06
2.16223e-06
1.80776e-06
1.46001e-06
1.11875e-06
7.83659e-07
6.19221e-06
5.74956e-06
5.31775e-06
4.89648e-06
4.4849e-06
4.0823e-06
3.68807e-06
3.30174e-06
2.92292e-06
2.55124e-06
2.1864e-06
1.82816e-06
1.47631e-06
1.13068e-06
7.91039e-07
6.2014e-06
5.76598e-06
5.33939e-06
4.92162e-06
4.51204e-06
4.11017e-06
3.71564e-06
3.32812e-06
2.94742e-06
2.57326e-06
2.20547e-06
1.84391e-06
1.48845e-06
1.13899e-06
7.95375e-07
6.20859e-06
5.77946e-06
5.35742e-06
4.94266e-06
4.53477e-06
4.13351e-06
3.73866e-06
3.35006e-06
2.96766e-06
2.59128e-06
2.22087e-06
1.85637e-06
1.49772e-06
1.1449e-06
7.97781e-07
6.2144e-06
5.79079e-06
5.3727e-06
4.96055e-06
4.55411e-06
4.15335e-06
3.75817e-06
3.36859e-06
2.98466e-06
2.60631e-06
2.23356e-06
1.86645e-06
1.50498e-06
1.14917e-06
7.98969e-07
6.21926e-06
5.80047e-06
5.38582e-06
4.97591e-06
4.57072e-06
4.17037e-06
3.77486e-06
3.38439e-06
2.99909e-06
2.61896e-06
2.24414e-06
1.87472e-06
1.51075e-06
1.15232e-06
7.99392e-07
6.22345e-06
5.80888e-06
5.39723e-06
4.98928e-06
4.58515e-06
4.18512e-06
3.78927e-06
3.39804e-06
3.01148e-06
2.62977e-06
2.2531e-06
1.88163e-06
1.51545e-06
1.15467e-06
7.99317e-07
6.22731e-06
5.81668e-06
5.4078e-06
5.00164e-06
4.59847e-06
4.19866e-06
3.80256e-06
3.41055e-06
3.02281e-06
2.6396e-06
2.26119e-06
1.88779e-06
1.51953e-06
1.15654e-06
7.98882e-07
6.23092e-06
5.82421e-06
5.418e-06
5.01358e-06
4.61135e-06
4.21182e-06
3.81538e-06
3.42257e-06
3.03366e-06
2.64897e-06
2.26881e-06
1.89343e-06
1.52309e-06
1.15802e-06
7.98267e-07
-1.19353e-05
-9.69506e-06
-8.31727e-06
-7.39259e-06
-6.65064e-06
-6.07792e-06
-5.62933e-06
-5.27392e-06
-4.99126e-06
-4.76544e-06
-4.58381e-06
-4.43597e-06
-4.31333e-06
-4.20931e-06
-4.11971e-06
-4.04439e-06
-3.98868e-06
-3.96771e-06
-4.00842e-06
-4.15507e-06
-4.46342e-06
-4.98791e-06
-5.67862e-06
-6.3295e-06
-6.7855e-06
-6.97054e-06
-6.84768e-06
-6.40559e-06
-5.64503e-06
-4.57386e-06
-3.20605e-06
-1.56307e-06
3.24757e-07
2.41781e-06
4.66793e-06
7.01983e-06
9.41236e-06
1.17787e-05
1.40433e-05
1.61159e-05
1.78709e-05
1.91448e-05
1.95666e-05
1.88156e-05
1.56803e-05
-1.03196e-05
-9.15961e-06
-8.11751e-06
-7.29369e-06
-6.59732e-06
-6.04027e-06
-5.59735e-06
-5.24425e-06
-4.96294e-06
-4.73843e-06
-4.5583e-06
-4.41224e-06
-4.29165e-06
-4.18999e-06
-4.10311e-06
-4.03092e-06
-3.97875e-06
-3.96163e-06
-4.00601e-06
-4.15518e-06
-4.46331e-06
-4.98297e-06
-5.66415e-06
-6.30377e-06
-6.74964e-06
-6.9269e-06
-6.79881e-06
-6.35402e-06
-5.59347e-06
-4.52564e-06
-3.16565e-06
-1.53653e-06
3.29402e-07
2.39009e-06
4.59425e-06
6.88233e-06
9.18701e-06
1.1432e-05
1.35265e-05
1.5354e-05
1.67388e-05
1.74109e-05
1.6842e-05
1.42812e-05
8.75854e-06
-9.47201e-06
-8.74132e-06
-7.91003e-06
-7.17732e-06
-6.5316e-06
-5.99621e-06
-5.56225e-06
-5.21302e-06
-4.93367e-06
-4.71062e-06
-4.53198e-06
-4.38763e-06
-4.26907e-06
-4.1698e-06
-4.08574e-06
-4.0169e-06
-3.96863e-06
-3.95578e-06
-4.00427e-06
-4.15628e-06
-4.4641e-06
-4.9781e-06
-5.64808e-06
-6.27445e-06
-6.70839e-06
-6.87652e-06
-6.74256e-06
-6.29521e-06
-5.53577e-06
-4.47362e-06
-3.12534e-06
-1.51602e-06
3.19479e-07
2.33595e-06
4.4781e-06
6.68104e-06
8.86992e-06
1.09575e-05
1.28372e-05
1.43685e-05
1.53479e-05
1.54701e-05
1.42613e-05
1.1202e-05
6.19891e-06
-8.92896e-06
-8.39863e-06
-7.72707e-06
-7.0672e-06
-6.46988e-06
-5.95744e-06
-5.53296e-06
-5.18718e-06
-4.90887e-06
-4.68621e-06
-4.50808e-06
-4.36462e-06
-4.24747e-06
-4.15018e-06
-4.06875e-06
-4.00324e-06
-3.95899e-06
-3.95064e-06
-4.00351e-06
-4.1585e-06
-4.46585e-06
-4.97342e-06
-5.63065e-06
-6.24176e-06
-6.66162e-06
-6.81854e-06
-6.67691e-06
-6.2257e-06
-5.46686e-06
-4.41103e-06
-3.07679e-06
-1.49188e-06
3.05548e-07
2.26634e-06
4.33035e-06
6.42652e-06
8.47203e-06
1.03693e-05
1.19992e-05
1.32093e-05
1.37961e-05
1.34926e-05
1.1976e-05
9.00599e-06
4.83483e-06
-8.50521e-06
-8.09519e-06
-7.54722e-06
-6.97071e-06
-6.41831e-06
-5.92876e-06
-5.51379e-06
-5.17041e-06
-4.89158e-06
-4.66765e-06
-4.48846e-06
-4.3446e-06
-4.22787e-06
-4.13191e-06
-4.05277e-06
-3.99051e-06
-3.95046e-06
-3.94692e-06
-4.00452e-06
-4.16264e-06
-4.46922e-06
-4.96923e-06
-5.61174e-06
-6.2053e-06
-6.60897e-06
-6.75303e-06
-6.60275e-06
-6.14763e-06
-5.39056e-06
-4.34384e-06
-3.02848e-06
-1.47536e-06
2.73564e-07
2.16472e-06
4.13277e-06
6.10061e-06
7.97841e-06
9.66133e-06
1.10252e-05
1.19206e-05
1.21709e-05
1.15825e-05
9.98568e-06
7.33893e-06
3.91847e-06
-8.1473e-06
-7.81969e-06
-7.36734e-06
-6.87296e-06
-6.37345e-06
-5.90982e-06
-5.506e-06
-5.16494e-06
-4.88454e-06
-4.6577e-06
-4.47568e-06
-4.32978e-06
-4.21215e-06
-4.11656e-06
-4.03913e-06
-3.97991e-06
-3.94412e-06
-3.94566e-06
-4.00827e-06
-4.16957e-06
-4.4749e-06
-4.9659e-06
-5.59125e-06
-6.16461e-06
-6.5498e-06
-6.67937e-06
-6.51981e-06
-6.06141e-06
-5.30839e-06
-4.27506e-06
-2.98526e-06
-1.47346e-06
2.14313e-07
2.0199e-06
3.87309e-06
5.69171e-06
7.38148e-06
8.83535e-06
9.93296e-06
1.05431e-05
1.05307e-05
9.78029e-06
8.23613e-06
5.96529e-06
3.22155e-06
-7.82044e-06
-7.55607e-06
-7.18836e-06
-6.76219e-06
-6.32063e-06
-5.89333e-06
-5.50512e-06
-5.16955e-06
-4.88846e-06
-4.65812e-06
-4.47195e-06
-4.32249e-06
-4.20252e-06
-4.10616e-06
-4.02965e-06
-3.97305e-06
-3.94143e-06
-3.94816e-06
-4.01594e-06
-4.18032e-06
-4.48365e-06
-4.96384e-06
-5.56915e-06
-6.11926e-06
-6.48341e-06
-6.5968e-06
-6.42746e-06
-5.9669e-06
-5.22103e-06
-4.20658e-06
-2.95061e-06
-1.49138e-06
1.2089e-07
1.82383e-06
3.54328e-06
5.19415e-06
6.68144e-06
7.9021e-06
8.74846e-06
9.11586e-06
8.9153e-06
8.09575e-06
6.67091e-06
4.74618e-06
2.52818e-06
-7.50438e-06
-7.29019e-06
-6.99348e-06
-6.63686e-06
-6.25162e-06
-5.86526e-06
-5.50255e-06
-5.17857e-06
-4.90031e-06
-4.66794e-06
-4.47767e-06
-4.32391e-06
-4.20059e-06
-4.10246e-06
-4.02612e-06
-3.97168e-06
-3.94406e-06
-3.956e-06
-4.02894e-06
-4.19605e-06
-4.49636e-06
-4.96352e-06
-5.54542e-06
-6.06886e-06
-6.40921e-06
-6.50473e-06
-6.32547e-06
-5.86458e-06
-5.13008e-06
-4.14151e-06
-2.92937e-06
-1.53575e-06
-1.46885e-08
1.56811e-06
3.13637e-06
4.605e-06
5.88284e-06
6.87672e-06
7.49779e-06
7.6711e-06
7.34827e-06
6.52267e-06
5.24202e-06
3.61354e-06
1.7949e-06
-7.18893e-06
-7.0155e-06
-6.77724e-06
-6.48456e-06
-6.15706e-06
-5.81743e-06
-5.48727e-06
-5.18255e-06
-4.91305e-06
-4.68252e-06
-4.49026e-06
-4.33304e-06
-4.20643e-06
-4.10625e-06
-4.02973e-06
-3.97723e-06
-3.95355e-06
-3.9707e-06
-4.04871e-06
-4.21803e-06
-4.51397e-06
-4.96543e-06
-5.52005e-06
-6.01306e-06
-6.32681e-06
-6.40306e-06
-6.21434e-06
-5.75597e-06
-5.03855e-06
-4.08467e-06
-2.92826e-06
-1.61489e-06
-2.01583e-07
1.24423e-06
2.6466e-06
3.924e-06
4.99346e-06
5.77611e-06
6.20451e-06
6.23136e-06
5.83876e-06
5.04579e-06
3.91135e-06
2.52962e-06
1.01769e-06
-6.86759e-06
-6.72832e-06
-6.53847e-06
-6.30205e-06
-6.03047e-06
-5.74012e-06
-5.44841e-06
-5.17036e-06
-4.91683e-06
-4.69402e-06
-4.50405e-06
-4.34616e-06
-4.21793e-06
-4.11663e-06
-4.04047e-06
-3.99028e-06
-3.97084e-06
-3.99339e-06
-4.07641e-06
-4.24725e-06
-4.53721e-06
-4.96996e-06
-5.49303e-06
-5.9517e-06
-6.23625e-06
-6.29238e-06
-6.09564e-06
-5.64407e-06
-4.95124e-06
-4.04281e-06
-2.95582e-06
-1.73851e-06
-4.49419e-07
8.44433e-07
2.07035e-06
3.15383e-06
4.02346e-06
4.61685e-06
4.88715e-06
4.80931e-06
4.38524e-06
3.64571e-06
2.64827e-06
1.4699e-06
1.96783e-07
-6.53443e-06
-6.42493e-06
-6.27595e-06
-6.08848e-06
-5.86858e-06
-5.62712e-06
-5.37727e-06
-5.13178e-06
-4.9012e-06
-4.69292e-06
-4.51108e-06
-4.35712e-06
-4.23067e-06
-4.1307e-06
-4.05665e-06
-4.01005e-06
-3.99579e-06
-4.02434e-06
-4.11245e-06
-4.28415e-06
-4.56638e-06
-4.97724e-06
-5.46444e-06
-5.885e-06
-6.13837e-06
-6.17459e-06
-5.97266e-06
-5.53392e-06
-4.87515e-06
-4.02486e-06
-3.02237e-06
-1.91722e-06
-7.67527e-07
3.62612e-07
1.40665e-06
2.29984e-06
2.98418e-06
3.41353e-06
3.55843e-06
3.4096e-06
2.97976e-06
2.30245e-06
1.42812e-06
4.17283e-07
-6.6668e-07
-6.18336e-06
-6.10079e-06
-5.9873e-06
-5.84256e-06
-5.66947e-06
-5.47482e-06
-5.26794e-06
-5.05892e-06
-4.85707e-06
-4.66987e-06
-4.50259e-06
-4.35832e-06
-4.2385e-06
-4.14376e-06
-4.07489e-06
-4.03424e-06
-4.02691e-06
-4.06259e-06
-4.15622e-06
-4.32826e-06
-4.6011e-06
-4.9871e-06
-5.43458e-06
-5.81402e-06
-6.0354e-06
-6.05353e-06
-5.85103e-06
-5.43312e-06
-4.81988e-06
-4.04192e-06
-3.13953e-06
-2.1617e-06
-1.1639e-06
-2.04792e-07
6.57547e-07
1.36974e-06
1.88725e-06
2.17819e-06
2.22618e-06
2.0317e-06
1.61188e-06
9.98024e-07
2.31743e-07
-6.40523e-07
-1.57203e-06
-5.80822e-06
-5.7508e-06
-5.66903e-06
-5.56218e-06
-5.43139e-06
-5.28068e-06
-5.11639e-06
-4.94603e-06
-4.77721e-06
-4.61681e-06
-4.47038e-06
-4.34203e-06
-4.23456e-06
-4.15005e-06
-4.09054e-06
-4.05922e-06
-4.0614e-06
-4.106e-06
-4.20593e-06
-4.37813e-06
-4.64028e-06
-4.99916e-06
-5.40438e-06
-5.74125e-06
-5.9318e-06
-5.93579e-06
-5.73936e-06
-5.35222e-06
-4.79752e-06
-4.10671e-06
-3.31924e-06
-2.48145e-06
-1.64387e-06
-8.57753e-07
-1.71352e-07
3.73499e-07
7.44463e-07
9.20968e-07
8.9535e-07
6.73151e-07
2.71862e-07
-2.81693e-07
-9.54586e-07
-1.71172e-06
-2.51856e-06
-5.40268e-06
-5.36944e-06
-5.31692e-06
-5.24441e-06
-5.1522e-06
-5.04258e-06
-4.91968e-06
-4.78889e-06
-4.65612e-06
-4.52719e-06
-4.40737e-06
-4.30114e-06
-4.21215e-06
-4.14355e-06
-4.09837e-06
-4.08059e-06
-4.09551e-06
-4.15144e-06
-4.25892e-06
-4.43161e-06
-4.68236e-06
-5.01311e-06
-5.37565e-06
-5.67129e-06
-5.8352e-06
-5.83141e-06
-5.64942e-06
-5.30443e-06
-4.82194e-06
-4.23234e-06
-3.57214e-06
-2.88296e-06
-2.20863e-06
-1.59175e-06
-1.07056e-06
-6.7638e-07
-4.31657e-07
-3.4848e-07
-4.29594e-07
-6.67624e-07
-1.04689e-06
-1.54572e-06
-2.13886e-06
-2.80012e-06
-3.50402e-06
-4.95976e-06
-4.95053e-06
-4.92594e-06
-4.88551e-06
-4.82919e-06
-4.75827e-06
-4.67543e-06
-4.58445e-06
-4.48971e-06
-4.39593e-06
-4.30771e-06
-4.22944e-06
-4.16507e-06
-4.11838e-06
-4.09304e-06
-4.09353e-06
-4.12503e-06
-4.19512e-06
-4.31205e-06
-4.48642e-06
-4.726e-06
-5.02944e-06
-5.35146e-06
-5.61144e-06
-5.75693e-06
-5.753e-06
-5.59498e-06
-5.30451e-06
-4.90729e-06
-4.43036e-06
-3.90549e-06
-3.36802e-06
-2.85404e-06
-2.3973e-06
-2.02676e-06
-1.76488e-06
-1.62667e-06
-1.61946e-06
-1.74273e-06
-1.98929e-06
-2.34634e-06
-2.79721e-06
-3.32306e-06
-3.9046e-06
-4.5231e-06
-4.47186e-06
-4.48731e-06
-4.49045e-06
-4.48107e-06
-4.45912e-06
-4.42538e-06
-4.38163e-06
-4.33049e-06
-4.2752e-06
-4.21941e-06
-4.167e-06
-4.12189e-06
-4.08796e-06
-4.06911e-06
-4.06937e-06
-4.09312e-06
-4.1456e-06
-4.23281e-06
-4.36213e-06
-4.54038e-06
-4.77119e-06
-5.05023e-06
-5.33812e-06
-5.57305e-06
-5.70952e-06
-5.71212e-06
-5.5909e-06
-5.3684e-06
-5.06709e-06
-4.70965e-06
-4.32221e-06
-3.93319e-06
-3.57082e-06
-3.26068e-06
-3.02393e-06
-2.87614e-06
-2.82697e-06
-2.88084e-06
-3.03635e-06
-3.28737e-06
-3.62406e-06
-4.03413e-06
-4.5039e-06
-5.0194e-06
-5.56699e-06
-3.9327e-06
-3.97426e-06
-4.00587e-06
-4.02761e-06
-4.03959e-06
-4.04243e-06
-4.03738e-06
-4.0263e-06
-4.0116e-06
-3.99609e-06
-3.98291e-06
-3.97537e-06
-3.97705e-06
-3.99157e-06
-4.02291e-06
-4.07508e-06
-4.15301e-06
-4.26129e-06
-4.40627e-06
-4.59179e-06
-4.81899e-06
-5.08218e-06
-5.34792e-06
-5.56502e-06
-5.69526e-06
-5.72138e-06
-5.65384e-06
-5.5114e-06
-5.31222e-06
-5.07506e-06
-4.82061e-06
-4.57058e-06
-4.34606e-06
-4.16575e-06
-4.04474e-06
-3.99355e-06
-4.01805e-06
-4.12136e-06
-4.30216e-06
-4.55576e-06
-4.87505e-06
-5.25131e-06
-5.67493e-06
-6.13604e-06
-6.62481e-06
-3.33983e-06
-3.40976e-06
-3.47147e-06
-3.52534e-06
-3.57177e-06
-3.61142e-06
-3.64527e-06
-3.67476e-06
-3.70169e-06
-3.72824e-06
-3.75691e-06
-3.79046e-06
-3.83191e-06
-3.8845e-06
-3.95169e-06
-4.03719e-06
-4.14492e-06
-4.27899e-06
-4.44336e-06
-4.6408e-06
-4.87099e-06
-5.12914e-06
-5.38351e-06
-5.59121e-06
-5.73062e-06
-5.79686e-06
-5.79626e-06
-5.74104e-06
-5.64505e-06
-5.52339e-06
-5.39204e-06
-5.26704e-06
-5.16345e-06
-5.09442e-06
-5.07043e-06
-5.09891e-06
-5.18445e-06
-5.32844e-06
-5.52978e-06
-5.78538e-06
-6.09055e-06
-6.43948e-06
-6.82567e-06
-7.24232e-06
-7.6825e-06
-2.6917e-06
-2.79306e-06
-2.88759e-06
-2.97582e-06
-3.05844e-06
-3.13623e-06
-3.21013e-06
-3.28131e-06
-3.35118e-06
-3.42146e-06
-3.49414e-06
-3.57146e-06
-3.65591e-06
-3.75019e-06
-3.85718e-06
-3.97995e-06
-4.12165e-06
-4.2854e-06
-4.47388e-06
-4.68883e-06
-4.92978e-06
-5.19228e-06
-5.44845e-06
-5.66494e-06
-5.83193e-06
-5.94949e-06
-6.02097e-06
-6.05334e-06
-6.05632e-06
-6.04127e-06
-6.02005e-06
-6.00416e-06
-6.00401e-06
-6.02846e-06
-6.08463e-06
-6.17816e-06
-6.31273e-06
-6.48911e-06
-6.70674e-06
-6.96387e-06
-7.2577e-06
-7.58464e-06
-7.9405e-06
-8.32075e-06
-8.72065e-06
-1.99761e-06
-2.13244e-06
-2.26192e-06
-2.38657e-06
-2.50721e-06
-2.62474e-06
-2.7401e-06
-2.8543e-06
-2.96849e-06
-3.08403e-06
-3.2025e-06
-3.32568e-06
-3.45555e-06
-3.59423e-06
-3.74401e-06
-3.90726e-06
-4.08637e-06
-4.28363e-06
-4.50093e-06
-4.73947e-06
-4.999e-06
-5.27669e-06
-5.55012e-06
-5.79365e-06
-6.00179e-06
-6.17582e-06
-6.31793e-06
-6.43236e-06
-6.5255e-06
-6.60514e-06
-6.67953e-06
-6.7566e-06
-6.84346e-06
-6.94617e-06
-7.06937e-06
-7.21631e-06
-7.38963e-06
-7.59115e-06
-7.82131e-06
-8.07946e-06
-8.36416e-06
-8.67333e-06
-9.00449e-06
-9.35481e-06
-9.72122e-06
-1.34431e-06
-1.51349e-06
-1.67833e-06
-1.83941e-06
-1.99762e-06
-2.1539e-06
-2.30915e-06
-2.46425e-06
-2.6202e-06
-2.77812e-06
-2.93927e-06
-3.10508e-06
-3.27712e-06
-3.45706e-06
-3.64667e-06
-3.84779e-06
-4.06224e-06
-4.29174e-06
-4.53784e-06
-4.80165e-06
-5.08363e-06
-5.38335e-06
-5.68318e-06
-5.96075e-06
-6.21118e-06
-6.43593e-06
-6.63696e-06
-6.81735e-06
-6.98145e-06
-7.13448e-06
-7.28197e-06
-7.42926e-06
-7.5811e-06
-7.74151e-06
-7.91388e-06
-8.10116e-06
-8.30555e-06
-8.52829e-06
-8.76998e-06
-9.03066e-06
-9.30986e-06
-9.60664e-06
-9.91968e-06
-1.02474e-05
-1.05879e-05
-8.07427e-07
-1.0071e-06
-1.20335e-06
-1.39668e-06
-1.5879e-06
-1.77784e-06
-1.96733e-06
-2.15716e-06
-2.34821e-06
-2.54141e-06
-2.73782e-06
-2.93863e-06
-3.14509e-06
-3.35858e-06
-3.5805e-06
-3.81234e-06
-4.0556e-06
-4.31173e-06
-4.58217e-06
-4.8682e-06
-5.17106e-06
-5.49191e-06
-5.81547e-06
-6.12078e-06
-6.40325e-06
-6.66458e-06
-6.90675e-06
-7.13236e-06
-7.34466e-06
-7.54733e-06
-7.7442e-06
-7.93896e-06
-8.13501e-06
-8.3354e-06
-8.54289e-06
-8.75977e-06
-8.98757e-06
-9.22727e-06
-9.47952e-06
-9.74466e-06
-1.00227e-05
-1.03133e-05
-1.06158e-05
-1.09295e-05
-1.12532e-05
-4.13215e-07
-6.37852e-07
-8.59616e-07
-1.07903e-06
-1.29678e-06
-1.51361e-06
-1.73021e-06
-1.94729e-06
-2.16559e-06
-2.38592e-06
-2.60919e-06
-2.83638e-06
-3.06856e-06
-3.30687e-06
-3.5525e-06
-3.8067e-06
-4.07079e-06
-4.34611e-06
-4.63409e-06
-4.93618e-06
-5.254e-06
-5.58929e-06
-5.92813e-06
-6.25089e-06
-6.55351e-06
-6.83789e-06
-7.10605e-06
-7.36029e-06
-7.60323e-06
-7.83762e-06
-8.06627e-06
-8.29191e-06
-8.51706e-06
-8.74404e-06
-8.97484e-06
-9.21112e-06
-9.45428e-06
-9.70533e-06
-9.96496e-06
-1.02336e-05
-1.05116e-05
-1.07987e-05
-1.10949e-05
-1.13997e-05
-1.17125e-05
-1.26429e-07
-3.71945e-07
-6.14907e-07
-8.55787e-07
-1.09519e-06
-1.33374e-06
-1.57202e-06
-1.81063e-06
-2.05021e-06
-2.29147e-06
-2.53518e-06
-2.78219e-06
-3.03341e-06
-3.28982e-06
-3.55247e-06
-3.82244e-06
-4.10095e-06
-4.38924e-06
-4.68871e-06
-5.00087e-06
-5.3274e-06
-5.67015e-06
-6.01634e-06
-6.34804e-06
-6.66178e-06
-6.9596e-06
-7.24346e-06
-7.51539e-06
-7.77755e-06
-8.03212e-06
-8.28127e-06
-8.52706e-06
-8.77144e-06
-9.01617e-06
-9.26278e-06
-9.51264e-06
-9.76697e-06
-1.00267e-05
-1.02925e-05
-1.05649e-05
-1.08443e-05
-1.11307e-05
-1.14241e-05
-1.17243e-05
-1.20311e-05
7.64676e-08
-1.86482e-07
-4.46982e-07
-7.0545e-07
-9.62408e-07
-1.21837e-06
-1.47384e-06
-1.72931e-06
-1.98534e-06
-2.24255e-06
-2.5016e-06
-2.76324e-06
-3.02826e-06
-3.29751e-06
-3.57192e-06
-3.85248e-06
-4.14027e-06
-4.43648e-06
-4.74244e-06
-5.05956e-06
-5.38951e-06
-5.73403e-06
-6.08156e-06
-6.41607e-06
-6.73468e-06
-7.03939e-06
-7.33201e-06
-7.61432e-06
-7.88816e-06
-8.15531e-06
-8.41751e-06
-8.67639e-06
-8.93351e-06
-9.19028e-06
-9.44797e-06
-9.70764e-06
-9.9704e-06
-1.0237e-05
-1.05082e-05
-1.07845e-05
-1.10661e-05
-1.13534e-05
-1.16464e-05
-1.1945e-05
-1.22492e-05
2.16182e-07
-6.1214e-08
-3.36112e-07
-6.08887e-07
-8.79981e-07
-1.14982e-06
-1.41881e-06
-1.68738e-06
-1.95602e-06
-2.22526e-06
-2.4957e-06
-2.76797e-06
-3.04279e-06
-3.32088e-06
-3.60311e-06
-3.89034e-06
-4.18358e-06
-4.48392e-06
-4.79258e-06
-5.11089e-06
-5.44041e-06
-5.78273e-06
-6.12756e-06
-6.46082e-06
-6.78015e-06
-7.08737e-06
-7.38409e-06
-7.6719e-06
-7.95239e-06
-8.22707e-06
-8.49737e-06
-8.76466e-06
-9.03017e-06
-9.29509e-06
-9.56049e-06
-9.82748e-06
-1.00967e-05
-1.0369e-05
-1.06448e-05
-1.09247e-05
-1.12092e-05
-1.14984e-05
-1.17925e-05
-1.20915e-05
-1.23954e-05
3.10037e-07
2.0671e-08
-2.66053e-07
-5.50468e-07
-8.32943e-07
-1.11382e-06
-1.39344e-06
-1.67217e-06
-1.95044e-06
-2.22872e-06
-2.50753e-06
-2.78743e-06
-3.06906e-06
-3.35307e-06
-3.64022e-06
-3.93132e-06
-4.22727e-06
-4.52905e-06
-4.83782e-06
-5.15475e-06
-5.48133e-06
-5.81896e-06
-6.15858e-06
-6.48807e-06
-6.80546e-06
-7.11232e-06
-7.41008e-06
-7.70017e-06
-7.98399e-06
-8.26286e-06
-8.538e-06
-8.81055e-06
-9.08158e-06
-9.35207e-06
-9.62298e-06
-9.89529e-06
-1.01695e-05
-1.04463e-05
-1.07262e-05
-1.10097e-05
-1.12972e-05
-1.1589e-05
-1.18852e-05
-1.21859e-05
-1.24911e-05
3.71362e-07
7.2038e-08
-2.24435e-07
-5.18351e-07
-8.10009e-07
-1.09969e-06
-1.38767e-06
-1.67428e-06
-1.9599e-06
-2.24494e-06
-2.52987e-06
-2.81519e-06
-3.10146e-06
-3.38928e-06
-3.67933e-06
-3.97233e-06
-4.26912e-06
-4.57058e-06
-4.87777e-06
-5.19175e-06
-5.51389e-06
-5.84542e-06
-6.17847e-06
-6.50276e-06
-6.81659e-06
-7.1213e-06
-7.41816e-06
-7.70848e-06
-7.99351e-06
-8.2744e-06
-8.55222e-06
-8.82797e-06
-9.10257e-06
-9.37688e-06
-9.65169e-06
-9.92791e-06
-1.0206e-05
-1.04865e-05
-1.077e-05
-1.10569e-05
-1.13476e-05
-1.16423e-05
-1.19412e-05
-1.22445e-05
-1.25521e-05
4.10102e-07
1.02459e-07
-2.02087e-07
-5.0379e-07
-8.0289e-07
-1.09961e-06
-1.3942e-06
-1.68695e-06
-1.97819e-06
-2.26831e-06
-2.5577e-06
-2.84683e-06
-3.1362e-06
-3.42635e-06
-3.7179e-06
-4.01151e-06
-4.30794e-06
-4.60798e-06
-4.9126e-06
-5.22275e-06
-5.5397e-06
-5.86449e-06
-6.19039e-06
-6.50878e-06
-6.81819e-06
-7.11972e-06
-7.41454e-06
-7.70385e-06
-7.98877e-06
-8.27031e-06
-8.54943e-06
-8.82699e-06
-9.10385e-06
-9.38078e-06
-9.6584e-06
-9.93757e-06
-1.02187e-05
-1.05024e-05
-1.0789e-05
-1.1079e-05
-1.13728e-05
-1.16706e-05
-1.19726e-05
-1.22789e-05
-1.25896e-05
4.33548e-07
1.18915e-07
-1.92357e-07
-5.00483e-07
-8.05654e-07
-1.10806e-06
-1.40791e-06
-1.70548e-06
-2.00106e-06
-2.29499e-06
-2.58765e-06
-2.87945e-06
-3.17084e-06
-3.46234e-06
-3.75448e-06
-4.04788e-06
-4.34323e-06
-4.64123e-06
-4.94279e-06
-5.24872e-06
-5.56023e-06
-5.87816e-06
-6.19683e-06
-6.50912e-06
-6.81374e-06
-7.1116e-06
-7.40379e-06
-7.69141e-06
-7.97544e-06
-8.25681e-06
-8.53634e-06
-8.81484e-06
-9.09302e-06
-9.37157e-06
-9.65142e-06
-9.93289e-06
-1.02165e-05
-1.05028e-05
-1.07922e-05
-1.10851e-05
-1.13819e-05
-1.16827e-05
-1.19879e-05
-1.22975e-05
-1.26116e-05
4.46908e-07
1.26358e-07
-1.90564e-07
-5.04037e-07
-8.14209e-07
-1.12124e-06
-1.42534e-06
-1.72673e-06
-2.0257e-06
-2.32255e-06
-2.61763e-06
-2.9113e-06
-3.204e-06
-3.49618e-06
-3.78835e-06
-4.08105e-06
-4.37493e-06
-4.67062e-06
-4.96892e-06
-5.27059e-06
-5.57671e-06
-5.88797e-06
-6.19967e-06
-6.50599e-06
-6.80578e-06
-7.09983e-06
-7.38916e-06
-7.67475e-06
-7.95748e-06
-8.23818e-06
-8.51761e-06
-8.79649e-06
-9.07548e-06
-9.35522e-06
-9.63654e-06
-9.91981e-06
-1.02054e-05
-1.04939e-05
-1.07858e-05
-1.10813e-05
-1.13809e-05
-1.16847e-05
-1.1993e-05
-1.23059e-05
-1.26235e-05
4.53791e-07
1.28187e-07
-1.93526e-07
-5.11493e-07
-8.25835e-07
-1.1367e-06
-1.44426e-06
-1.74875e-06
-2.0504e-06
-2.34952e-06
-2.6464e-06
-2.94141e-06
-3.23493e-06
-3.52739e-06
-3.81925e-06
-4.11101e-06
-4.40325e-06
-4.69655e-06
-4.99164e-06
-5.28917e-06
-5.59015e-06
-5.89514e-06
-6.20029e-06
-6.50095e-06
-6.79608e-06
-7.08641e-06
-7.37286e-06
-7.6563e-06
-7.93754e-06
-8.21732e-06
-8.49634e-06
-8.77526e-06
-9.0547e-06
-9.33521e-06
-9.61761e-06
-9.90233e-06
-1.01896e-05
-1.048e-05
-1.0774e-05
-1.10719e-05
-1.1374e-05
-1.16806e-05
-1.19919e-05
-1.2308e-05
-1.2629e-05
4.56623e-07
1.26667e-07
-1.99148e-07
-5.20936e-07
-8.38798e-07
-1.15287e-06
-1.46331e-06
-1.77033e-06
-2.07417e-06
-2.37508e-06
-2.67336e-06
-2.96933e-06
-3.26337e-06
-3.55585e-06
-3.84722e-06
-4.13793e-06
-4.42851e-06
-4.71948e-06
-5.0115e-06
-5.30515e-06
-5.60136e-06
-5.90055e-06
-6.19966e-06
-6.49506e-06
-6.78583e-06
-7.07263e-06
-7.3563e-06
-7.63763e-06
-7.91732e-06
-8.19607e-06
-8.47452e-06
-8.75328e-06
-9.03289e-06
-9.31392e-06
-9.59716e-06
-9.88306e-06
-1.01717e-05
-1.04638e-05
-1.07596e-05
-1.10596e-05
-1.13641e-05
-1.16732e-05
-1.19873e-05
-1.23064e-05
-1.26306e-05
4.56994e-07
1.23258e-07
-2.061e-07
-5.31171e-07
-8.52041e-07
-1.16883e-06
-1.48171e-06
-1.79085e-06
-2.09648e-06
-2.39884e-06
-2.69821e-06
-2.99491e-06
-3.28926e-06
-3.58164e-06
-3.87243e-06
-4.16208e-06
-4.45104e-06
-4.73981e-06
-5.02899e-06
-5.31906e-06
-5.61089e-06
-5.90479e-06
-6.19841e-06
-6.48898e-06
-6.77574e-06
-7.05927e-06
-7.34034e-06
-7.61964e-06
-7.89783e-06
-8.17553e-06
-8.45333e-06
-8.73184e-06
-9.01153e-06
-9.29274e-06
-9.57675e-06
-9.8636e-06
-1.01534e-05
-1.04468e-05
-1.07443e-05
-1.10462e-05
-1.13527e-05
-1.16642e-05
-1.19808e-05
-1.23027e-05
-1.26299e-05
4.55921e-07
1.18878e-07
-2.13565e-07
-5.41483e-07
-8.64951e-07
-1.18408e-06
-1.49903e-06
-1.80997e-06
-2.1171e-06
-2.42067e-06
-2.72093e-06
-3.01817e-06
-3.31272e-06
-3.60491e-06
-3.89511e-06
-4.18372e-06
-4.47118e-06
-4.75792e-06
-5.04448e-06
-5.3313e-06
-5.61915e-06
-5.90828e-06
-6.19693e-06
-6.48312e-06
-6.76622e-06
-7.04677e-06
-7.32545e-06
-7.60286e-06
-7.87961e-06
-8.15629e-06
-8.43343e-06
-8.71164e-06
-8.99117e-06
-9.27262e-06
-9.55732e-06
-9.84485e-06
-1.01356e-05
-1.04302e-05
-1.07291e-05
-1.10326e-05
-1.1341e-05
-1.16546e-05
-1.19735e-05
-1.22978e-05
-1.26278e-05
4.54046e-07
1.14099e-07
-2.21045e-07
-5.51447e-07
-8.77176e-07
-1.19834e-06
-1.51507e-06
-1.82755e-06
-2.13597e-06
-2.44054e-06
-2.74153e-06
-3.03921e-06
-3.33387e-06
-3.62584e-06
-3.91546e-06
-4.20311e-06
-4.48917e-06
-4.77405e-06
-5.05825e-06
-5.34213e-06
-5.62641e-06
-5.91125e-06
-6.19544e-06
-6.47769e-06
-6.7575e-06
-7.03534e-06
-7.31183e-06
-7.58752e-06
-7.86294e-06
-8.13865e-06
-8.41514e-06
-8.693e-06
-8.97226e-06
-9.25409e-06
-9.53922e-06
-9.82727e-06
-1.01188e-05
-1.04145e-05
-1.07146e-05
-1.10195e-05
-1.13296e-05
-1.1645e-05
-1.19659e-05
-1.22926e-05
-1.2625e-05
4.51771e-07
1.09274e-07
-2.28236e-07
-5.60808e-07
-8.88506e-07
-1.21143e-06
-1.52972e-06
-1.84352e-06
-2.15303e-06
-2.45847e-06
-2.76006e-06
-3.05809e-06
-3.35282e-06
-3.64456e-06
-3.93363e-06
-4.22039e-06
-4.50519e-06
-4.7884e-06
-5.07047e-06
-5.35174e-06
-5.63284e-06
-5.91385e-06
-6.19405e-06
-6.47278e-06
-6.74966e-06
-7.02508e-06
-7.29961e-06
-7.57372e-06
-7.84794e-06
-8.12274e-06
-8.39862e-06
-8.67608e-06
-8.95521e-06
-9.23729e-06
-9.52265e-06
-9.81117e-06
-1.01034e-05
-1.04e-05
-1.07011e-05
-1.10073e-05
-1.13188e-05
-1.16358e-05
-1.19586e-05
-1.22872e-05
-1.26218e-05
4.49293e-07
1.04534e-07
-2.35063e-07
-5.69544e-07
-8.9897e-07
-1.22344e-06
-1.54307e-06
-1.85802e-06
-2.16848e-06
-2.47465e-06
-2.77676e-06
-3.07506e-06
-3.36983e-06
-3.66134e-06
-3.94991e-06
-4.23586e-06
-4.51952e-06
-4.80124e-06
-5.08141e-06
-5.36034e-06
-5.63861e-06
-5.9162e-06
-6.1928e-06
-6.46837e-06
-6.74263e-06
-7.0159e-06
-7.28866e-06
-7.56136e-06
-7.83448e-06
-8.10847e-06
-8.38378e-06