/*--------------------------------*- C++ -*----------------------------------*\
| =========                 |                                                 |
| \\      /  F ield         | OpenFOAM: The Open Source CFD Toolbox           |
|  \\    /   O peration     | Version:  2312                                  |
|   \\  /    A nd           | Website:  www.openfoam.com                      |
|    \\/     M anipulation  |                                                 |
\*---------------------------------------------------------------------------*/
FoamFile
{
    version     2.0;
    format      ascii;
    arch        "LSB;label=32;scalar=64";
    class       volScalarField;
    location    "200";
    object      p;
}
// * * * * * * * * * * * * * * * * * * * * * * * * * * * * * * * * * * * * * //

dimensions      [0 2 -2 0 0 0 0];

internalField   nonuniform List<scalar> 
4800
(
1.57227e-12
-1.16435e-06
-2.15463e-06
-3.00431e-06
-3.74292e-06
-4.39074e-06
-4.96321e-06
-5.47265e-06
-5.92915e-06
-6.34096e-06
-6.71507e-06
-7.06262e-06
-7.41052e-06
-7.81851e-06
-9.00922e-06
1.03915e-08
-1.1518e-06
-2.14052e-06
-2.98934e-06
-3.7278e-06
-4.37623e-06
-4.95023e-06
-5.46243e-06
-5.92357e-06
-6.34323e-06
-6.73122e-06
-7.10114e-06
-7.47714e-06
-7.91934e-06
-8.72782e-06
2.31738e-08
-1.13677e-06
-2.12389e-06
-2.97182e-06
-3.71013e-06
-4.35923e-06
-4.93485e-06
-5.44991e-06
-5.91562e-06
-6.34258e-06
-6.74204e-06
-7.12749e-06
-7.51426e-06
-7.91211e-06
-8.35319e-06
3.71782e-08
-1.12012e-06
-2.10531e-06
-2.95197e-06
-3.6897e-06
-4.33894e-06
-4.91542e-06
-5.43206e-06
-5.90004e-06
-6.3296e-06
-6.73029e-06
-7.10954e-06
-7.467e-06
-7.78042e-06
-8.01001e-06
5.30962e-08
-1.10087e-06
-2.08354e-06
-2.9283e-06
-3.66471e-06
-4.31317e-06
-4.88918e-06
-5.40531e-06
-5.87196e-06
-6.29763e-06
-6.68796e-06
-7.04265e-06
-7.34977e-06
-7.57953e-06
-7.6918e-06
7.20954e-08
-1.0777e-06
-2.05706e-06
-2.89903e-06
-3.63306e-06
-4.27933e-06
-4.85288e-06
-5.36545e-06
-5.82596e-06
-6.24023e-06
-6.60953e-06
-6.92791e-06
-7.17971e-06
-7.34089e-06
-7.38816e-06
9.59241e-08
-1.04869e-06
-2.02372e-06
-2.86174e-06
-3.59185e-06
-4.23392e-06
-4.8022e-06
-5.30715e-06
-5.75577e-06
-6.15107e-06
-6.49106e-06
-6.76779e-06
-6.96816e-06
-7.07872e-06
-7.09202e-06
1.27408e-07
-1.01088e-06
-1.98024e-06
-2.81276e-06
-3.53692e-06
-4.17207e-06
-4.73142e-06
-5.22394e-06
-5.6547e-06
-6.02465e-06
-6.33059e-06
-6.56599e-06
-6.72354e-06
-6.79982e-06
-6.79741e-06
1.70911e-07
-9.59745e-07
-1.92173e-06
-2.74678e-06
-3.46241e-06
-4.08727e-06
-4.63344e-06
-5.1085e-06
-5.51616e-06
-5.85666e-06
-6.12771e-06
-6.32632e-06
-6.45136e-06
-6.50654e-06
-6.49917e-06
2.3261e-07
-8.88966e-07
-1.84141e-06
-2.65659e-06
-3.36064e-06
-3.97139e-06
-4.49999e-06
-4.95313e-06
-5.3341e-06
-5.64389e-06
-5.88262e-06
-6.05139e-06
-6.15397e-06
-6.19811e-06
-6.19243e-06
3.20355e-07
-7.90468e-07
-1.73072e-06
-2.53313e-06
-3.22224e-06
-3.81505e-06
-4.32222e-06
-4.7503e-06
-5.10327e-06
-5.38394e-06
-5.59535e-06
-5.74213e-06
-5.83113e-06
-5.87179e-06
-5.87227e-06
4.42902e-07
-6.55026e-07
-1.57995e-06
-2.36623e-06
-3.03697e-06
-3.60848e-06
-4.09152e-06
-4.49337e-06
-4.81951e-06
-5.07496e-06
-5.26544e-06
-5.39797e-06
-5.48089e-06
-5.5238e-06
-5.53375e-06
6.08947e-07
-4.73134e-07
-1.37926e-06
-2.1458e-06
-2.79498e-06
-3.3428e-06
-3.80072e-06
-4.17734e-06
-4.47996e-06
-4.71567e-06
-4.89208e-06
-5.01746e-06
-5.10049e-06
-5.15013e-06
-5.17219e-06
8.26673e-07
-2.35416e-07
-1.11902e-06
-1.86241e-06
-2.48766e-06
-3.01086e-06
-3.44457e-06
-3.79897e-06
-4.08297e-06
-4.30519e-06
-4.47423e-06
-4.59873e-06
-4.68698e-06
-4.74701e-06
-4.7835e-06
1.10368e-06
6.72577e-08
-7.89733e-07
-1.50713e-06
-2.10731e-06
-2.60672e-06
-3.01901e-06
-3.35572e-06
-3.62699e-06
-3.84217e-06
-4.01015e-06
-4.13929e-06
-4.23715e-06
-4.31079e-06
-4.36391e-06
1.44675e-06
4.4321e-07
-3.82764e-07
-1.07202e-06
-1.64729e-06
-2.12526e-06
-2.52032e-06
-2.84489e-06
-3.10966e-06
-3.32415e-06
-3.49693e-06
-3.63573e-06
-3.74727e-06
-3.83764e-06
-3.90986e-06
1.86065e-06
8.98508e-07
1.07894e-07
-5.51911e-07
-1.10357e-06
-1.5636e-06
-1.94649e-06
-2.26487e-06
-2.52941e-06
-2.74924e-06
-2.93229e-06
-3.08549e-06
-3.21467e-06
-3.32508e-06
-3.41925e-06
2.34553e-06
1.43416e-06
6.82855e-07
5.29641e-08
-4.77192e-07
-9.23345e-07
-1.29944e-06
-1.6176e-06
-1.88792e-06
-2.11877e-06
-2.31723e-06
-2.48936e-06
-2.64017e-06
-2.7741e-06
-2.8934e-06
2.89434e-06
2.04301e-06
1.33417e-06
7.33964e-07
2.22937e-07
-2.13301e-07
-5.87558e-07
-9.10858e-07
-1.19225e-06
-1.43914e-06
-1.65764e-06
-1.85291e-06
-2.02917e-06
-2.19011e-06
-2.33786e-06
3.49138e-06
2.70778e-06
2.04318e-06
1.47167e-06
9.77399e-07
5.47675e-07
1.712e-07
-1.61485e-07
-4.58049e-07
-7.24786e-07
-9.66867e-07
-1.18855e-06
-1.39335e-06
-1.58418e-06
-1.7633e-06
4.07264e-06
3.35711e-06
2.73444e-06
2.18871e-06
1.70849e-06
1.28279e-06
9.0182e-07
5.57779e-07
2.44539e-07
-4.29842e-08
-3.09065e-07
-5.57213e-07
-7.90362e-07
-1.01081e-06
-1.22101e-06
4.54806e-06
3.88967e-06
3.30189e-06
2.77742e-06
2.30862e-06
1.88592e-06
1.50091e-06
1.14727e-06
8.20185e-07
5.15603e-07
2.30047e-07
-3.93814e-08
-2.95142e-07
-5.39086e-07
-7.73549e-07
4.9008e-06
4.28748e-06
3.72828e-06
3.22178e-06
2.76298e-06
2.34356e-06
1.95626e-06
1.596e-06
1.25894e-06
9.41777e-07
6.41623e-07
3.56055e-07
8.29987e-08
-1.79078e-07
-4.32258e-07
5.15738e-06
4.57985e-06
4.04454e-06
3.55361e-06
3.10379e-06
2.6878e-06
2.29945e-06
1.93461e-06
1.59019e-06
1.26346e-06
9.51995e-07
6.53759e-07
3.67005e-07
9.04405e-08
-1.77733e-07
5.34058e-06
4.79174e-06
4.2767e-06
3.79944e-06
3.3577e-06
2.94514e-06
2.5565e-06
2.18844e-06
1.83844e-06
1.50419e-06
1.18366e-06
8.75147e-07
5.77174e-07
2.88648e-07
8.03988e-09
5.46943e-06
4.94398e-06
4.44633e-06
3.98113e-06
3.54659e-06
3.13723e-06
2.74867e-06
2.37817e-06
2.02367e-06
1.68324e-06
1.35516e-06
1.03801e-06
7.30557e-07
4.31881e-07
1.40697e-07
5.55891e-06
5.05285e-06
4.57023e-06
4.11558e-06
3.68733e-06
3.2808e-06
2.8924e-06
2.51991e-06
2.16162e-06
1.81591e-06
1.48135e-06
1.15677e-06
8.41152e-07
5.33717e-07
2.334e-07
5.62043e-06
5.13071e-06
4.66109e-06
4.21562e-06
3.7928e-06
3.38868e-06
3.00039e-06
2.62616e-06
2.26455e-06
1.91422e-06
1.574e-06
1.24293e-06
9.20172e-07
6.05095e-07
2.96816e-07
5.66248e-06
5.18672e-06
4.72837e-06
4.29081e-06
3.8726e-06
3.47049e-06
3.08222e-06
2.7064e-06
2.34182e-06
1.98739e-06
1.64216e-06
1.30536e-06
9.76327e-07
6.54538e-07
3.39278e-07
5.69125e-06
5.22754e-06
4.77893e-06
4.34815e-06
3.93383e-06
3.53337e-06
3.14504e-06
2.76773e-06
2.40046e-06
2.04235e-06
1.69267e-06
1.3508e-06
1.01621e-06
6.88507e-07
3.67102e-07
5.71111e-06
5.25788e-06
4.81769e-06
4.3927e-06
3.98165e-06
3.58253e-06
3.19406e-06
2.81535e-06
2.44564e-06
2.08425e-06
1.73059e-06
1.38421e-06
1.0447e-06
7.11758e-07
3.84929e-07
5.72511e-06
5.28104e-06
4.84811e-06
4.42805e-06
4.01975e-06
3.62173e-06
3.23305e-06
2.85305e-06
2.48112e-06
2.11676e-06
1.75956e-06
1.40916e-06
1.06528e-06
7.27692e-07
3.96062e-07
5.73529e-06
5.29924e-06
4.87258e-06
4.45672e-06
4.05075e-06
3.65362e-06
3.26469e-06
2.88348e-06
2.50954e-06
2.14253e-06
1.78215e-06
1.42817e-06
1.08039e-06
7.38683e-07
4.0279e-07
5.74301e-06
5.314e-06
4.89274e-06
4.48045e-06
4.07646e-06
3.68007e-06
3.29087e-06
2.90853e-06
2.53277e-06
2.16338e-06
1.80016e-06
1.44298e-06
1.09173e-06
7.46346e-07
4.06661e-07
5.7491e-06
5.32627e-06
4.90967e-06
4.50045e-06
4.09815e-06
3.70237e-06
3.31288e-06
2.92951e-06
2.55211e-06
2.18057e-06
1.8148e-06
1.45477e-06
1.10042e-06
7.51764e-07
4.087e-07
5.75409e-06
5.33669e-06
4.92413e-06
4.51755e-06
4.11669e-06
3.72141e-06
3.33163e-06
2.94731e-06
2.56842e-06
2.19496e-06
1.82692e-06
1.46433e-06
1.10722e-06
7.55649e-07
4.09576e-07
5.7583e-06
5.34568e-06
4.93662e-06
4.53231e-06
4.13269e-06
3.73782e-06
3.34775e-06
2.96257e-06
2.58233e-06
2.20714e-06
1.83707e-06
1.47221e-06
1.11263e-06
7.58466e-07
4.09711e-07
5.76198e-06
5.35362e-06
4.94763e-06
4.5453e-06
4.14676e-06
3.75223e-06
3.36187e-06
2.97588e-06
2.59443e-06
2.21767e-06
1.84575e-06
1.47884e-06
1.11704e-06
7.60536e-07
4.09362e-07
5.76533e-06
5.36093e-06
4.95774e-06
4.55722e-06
4.15967e-06
3.76543e-06
3.37479e-06
2.98804e-06
2.60543e-06
2.2272e-06
1.85356e-06
1.48472e-06
1.12085e-06
7.6216e-07
4.08724e-07
5.76818e-06
5.36729e-06
4.96659e-06
4.56768e-06
4.17102e-06
3.77706e-06
3.38619e-06
2.99878e-06
2.61516e-06
2.23563e-06
1.86047e-06
1.48994e-06
1.12424e-06
7.63619e-07
4.08184e-07
-1.05896e-05
-8.85627e-06
-7.66891e-06
-6.87982e-06
-6.25721e-06
-5.76854e-06
-5.38146e-06
-5.07095e-06
-4.82085e-06
-4.6191e-06
-4.45626e-06
-4.32467e-06
-4.21799e-06
-4.13119e-06
-4.06076e-06
-4.00539e-06
-3.96712e-06
-3.953e-06
-3.97707e-06
-4.06199e-06
-4.23772e-06
-4.53366e-06
-4.92223e-06
-5.28744e-06
-5.53557e-06
-5.61031e-06
-5.47709e-06
-5.12005e-06
-4.53665e-06
-3.73463e-06
-2.73061e-06
-1.54882e-06
-2.20095e-07
1.21944e-06
2.7297e-06
4.26772e-06
5.78796e-06
7.24131e-06
8.57185e-06
9.71134e-06
1.05692e-05
1.10091e-05
1.0789e-05
9.48363e-06
6.19921e-06
-9.30873e-06
-8.3702e-06
-7.48827e-06
-6.79476e-06
-6.21235e-06
-5.7388e-06
-5.35742e-06
-5.04928e-06
-4.80042e-06
-4.5997e-06
-4.43796e-06
-4.30763e-06
-4.20241e-06
-4.11728e-06
-4.04874e-06
-3.99552e-06
-3.95964e-06
-3.94808e-06
-3.97463e-06
-4.06139e-06
-4.23742e-06
-4.53098e-06
-4.91404e-06
-5.27213e-06
-5.51338e-06
-5.5826e-06
-5.44596e-06
-5.08808e-06
-4.5069e-06
-3.7108e-06
-2.71716e-06
-1.5512e-06
-2.44974e-07
1.16381e-06
2.63289e-06
4.11617e-06
5.56339e-06
6.9179e-06
8.11148e-06
9.05349e-06
9.60833e-06
9.55469e-06
8.50566e-06
5.78393e-06
8.55589e-07
-8.52519e-06
-7.96478e-06
-7.29049e-06
-6.68552e-06
-6.1508e-06
-5.69943e-06
-5.32795e-06
-5.02454e-06
-4.77821e-06
-4.57919e-06
-4.41891e-06
-4.29005e-06
-4.1864e-06
-4.10302e-06
-4.03645e-06
-3.98549e-06
-3.95216e-06
-3.94336e-06
-3.97259e-06
-4.06133e-06
-4.23762e-06
-4.52836e-06
-4.90488e-06
-5.25454e-06
-5.48758e-06
-5.55017e-06
-5.40944e-06
-5.05068e-06
-4.47257e-06
-3.6844e-06
-2.70466e-06
-1.55993e-06
-2.83975e-07
1.08335e-06
2.49692e-06
3.90668e-06
5.25668e-06
6.48193e-06
7.50235e-06
8.20952e-06
8.44474e-06
7.96904e-06
6.44231e-06
3.46106e-06
-9.76273e-07
-8.01831e-06
-7.63679e-06
-7.10494e-06
-6.57648e-06
-6.08806e-06
-5.66078e-06
-5.30059e-06
-5.0024e-06
-4.7585e-06
-4.56078e-06
-4.40148e-06
-4.27362e-06
-4.17117e-06
-4.08926e-06
-4.02452e-06
-3.97576e-06
-3.94504e-06
-3.93912e-06
-3.97118e-06
-4.062e-06
-4.23845e-06
-4.52587e-06
-4.89491e-06
-5.23489e-06
-5.45838e-06
-5.51311e-06
-5.36739e-06
-5.00741e-06
-4.43284e-06
-3.65418e-06
-2.69138e-06
-1.5728e-06
-3.34327e-07
9.81563e-07
2.32642e-06
3.64582e-06
4.87805e-06
5.95071e-06
6.77523e-06
7.23534e-06
7.17535e-06
6.39252e-06
4.66267e-06
1.83102e-06
-1.9152e-06
-7.63491e-06
-7.35195e-06
-6.92994e-06
-6.4724e-06
-6.02885e-06
-5.62665e-06
-5.27856e-06
-4.98559e-06
-4.74356e-06
-4.54631e-06
-4.3871e-06
-4.25946e-06
-4.15758e-06
-4.07669e-06
-4.0135e-06
-3.96685e-06
-3.93877e-06
-3.93587e-06
-3.97092e-06
-4.06388e-06
-4.24031e-06
-4.52376e-06
-4.88414e-06
-5.21309e-06
-5.42577e-06
-5.47175e-06
-5.32074e-06
-4.96007e-06
-4.39065e-06
-3.62444e-06
-2.68316e-06
-1.59723e-06
-4.04905e-07
8.48484e-07
2.11108e-06
3.32438e-06
4.42191e-06
5.32688e-06
5.94807e-06
6.17413e-06
5.8731e-06
4.90242e-06
3.1494e-06
6.11344e-07
-2.46724e-06
-7.31109e-06
-7.09214e-06
-6.75801e-06
-6.36863e-06
-5.97123e-06
-5.59674e-06
-5.26277e-06
-4.97577e-06
-4.73538e-06
-4.5378e-06
-4.37768e-06
-4.24926e-06
-4.14708e-06
-4.06656e-06
-4.00448e-06
-3.95971e-06
-3.93422e-06
-3.93441e-06
-3.97255e-06
-4.06765e-06
-4.24375e-06
-4.52239e-06
-4.87269e-06
-5.18907e-06
-5.38965e-06
-5.42609e-06
-5.26981e-06
-4.90956e-06
-4.34772e-06
-3.59802e-06
-2.68414e-06
-1.63875e-06
-5.02629e-07
6.76109e-07
1.84258e-06
2.93518e-06
3.8849e-06
4.61475e-06
5.03791e-06
5.05891e-06
4.58095e-06
3.52359e-06
1.85893e-06
-3.37927e-07
-2.83792e-06
-7.01522e-06
-6.84366e-06
-6.58072e-06
-6.25656e-06
-5.90834e-06
-5.56631e-06
-5.25072e-06
-4.97229e-06
-4.73458e-06
-4.53664e-06
-4.37494e-06
-4.24481e-06
-4.14141e-06
-4.06045e-06
-3.99888e-06
-3.95562e-06
-3.93254e-06
-3.93579e-06
-3.97702e-06
-4.07415e-06
-4.24947e-06
-4.52223e-06
-4.8608e-06
-5.16291e-06
-5.35e-06
-5.37618e-06
-5.21494e-06
-4.85671e-06
-4.30567e-06
-3.5775e-06
-2.69804e-06
-1.70231e-06
-6.33478e-07
4.57962e-07
1.51502e-06
2.47474e-06
3.2687e-06
3.82433e-06
4.0657e-06
3.91986e-06
3.327e-06
2.25757e-06
7.35932e-07
-1.13732e-06
-3.17892e-06
-6.72951e-06
-6.59596e-06
-6.39134e-06
-6.12791e-06
-5.83118e-06
-5.52712e-06
-5.23596e-06
-4.97094e-06
-4.73901e-06
-4.54222e-06
-4.37932e-06
-4.24718e-06
-4.14194e-06
-4.05988e-06
-3.99823e-06
-3.95604e-06
-3.93513e-06
-3.94131e-06
-3.98553e-06
-4.08441e-06
-4.25831e-06
-4.52392e-06
-4.84886e-06
-5.13484e-06
-5.30707e-06
-5.32249e-06
-5.15701e-06
-4.8031e-06
-4.26698e-06
-3.56649e-06
-2.7297e-06
-1.7938e-06
-8.03969e-07
1.87785e-07
1.12385e-06
1.94231e-06
2.57883e-06
2.96931e-06
3.05326e-06
2.78178e-06
2.12696e-06
1.09382e-06
-2.6849e-07
-1.86243e-06
-3.55165e-06
-6.4437e-06
-6.34214e-06
-6.18588e-06
-5.97717e-06
-5.73185e-06
-5.47003e-06
-5.20961e-06
-4.96434e-06
-4.74328e-06
-4.55114e-06
-4.38908e-06
-4.25588e-06
-4.14902e-06
-4.0657e-06
-4.00371e-06
-3.96234e-06
-3.9434e-06
-3.95237e-06
-3.9994e-06
-4.09965e-06
-4.27132e-06
-4.52826e-06
-4.83749e-06
-5.10543e-06
-5.26156e-06
-5.26606e-06
-5.09771e-06
-4.75133e-06
-4.2354e-06
-3.56998e-06
-2.78525e-06
-1.92017e-06
-1.0211e-06
-1.40272e-07
6.66043e-07
1.33962e-06
1.82337e-06
2.06455e-06
2.01969e-06
1.66146e-06
9.85411e-07
1.58854e-08
-1.19139e-06
-2.55342e-06
-3.97175e-06
-6.15106e-06
-6.0775e-06
-5.96211e-06
-5.80171e-06
-5.60538e-06
-5.38763e-06
-5.16291e-06
-4.9437e-06
-4.73971e-06
-4.55739e-06
-4.39999e-06
-4.26827e-06
-4.16135e-06
-4.07762e-06
-4.0157e-06
-3.97535e-06
-3.95848e-06
-3.97025e-06
-4.01995e-06
-4.12114e-06
-4.28964e-06
-4.53626e-06
-4.82762e-06
-5.07567e-06
-5.21478e-06
-5.20884e-06
-5.03987e-06
-4.70538e-06
-4.21618e-06
-3.59447e-06
-2.87213e-06
-2.08915e-06
-1.29189e-06
-5.31089e-07
1.40454e-07
6.70688e-07
1.01195e-06
1.1241e-06
9.7954e-07
5.67801e-07
-1.00945e-07
-9.9444e-07
-2.06032e-06
-3.23253e-06
-4.4406e-06
-5.84606e-06
-5.79799e-06
-5.71812e-06
-5.60029e-06
-5.44928e-06
-5.27523e-06
-5.089e-06
-4.9009e-06
-4.72002e-06
-4.55345e-06
-4.40588e-06
-4.27973e-06
-4.17575e-06
-4.09373e-06
-4.03333e-06
-3.99497e-06
-3.98083e-06
-3.99578e-06
-4.04821e-06
-4.14998e-06
-4.31438e-06
-4.54909e-06
-4.82057e-06
-5.04721e-06
-5.16901e-06
-5.15403e-06
-4.98788e-06
-4.67094e-06
-4.21634e-06
-3.64804e-06
-2.99892e-06
-2.30888e-06
-1.6228e-06
-9.88089e-07
-4.5205e-07
-5.87054e-08
1.54559e-07
1.59792e-07
-5.76456e-08
-4.96771e-07
-1.14008e-06
-1.95467e-06
-2.89582e-06
-3.91287e-06
-4.95523e-06
-5.52365e-06
-5.49959e-06
-5.45157e-06
-5.37171e-06
-5.26221e-06
-5.13014e-06
-4.98332e-06
-4.82964e-06
-4.67683e-06
-4.53174e-06
-4.39968e-06
-4.28424e-06
-4.18751e-06
-4.11062e-06
-4.05437e-06
-4.01997e-06
-4.00997e-06
-4.02903e-06
-4.08465e-06
-4.18692e-06
-4.34652e-06
-4.56807e-06
-4.81822e-06
-5.02263e-06
-5.12783e-06
-5.1065e-06
-4.94805e-06
-4.65576e-06
-4.24479e-06
-3.74022e-06
-3.17489e-06
-2.58727e-06
-2.01909e-06
-1.51274e-06
-1.10851e-06
-8.41538e-07
-7.39291e-07
-8.19262e-07
-1.08674e-06
-1.53419e-06
-2.14194e-06
-2.88035e-06
-3.71334e-06
-4.60289e-06
-5.51236e-06
-5.17921e-06
-5.17836e-06
-5.15973e-06
-5.11439e-06
-5.04303e-06
-4.95073e-06
-4.84299e-06
-4.72551e-06
-4.60439e-06
-4.48569e-06
-4.37465e-06
-4.27542e-06
-4.19106e-06
-4.12378e-06
-4.07541e-06
-4.04797e-06
-4.0444e-06
-4.06923e-06
-4.12907e-06
-4.23225e-06
-4.38687e-06
-4.59474e-06
-4.82315e-06
-5.00578e-06
-5.09656e-06
-5.0732e-06
-4.92892e-06
-4.66967e-06
-4.31207e-06
-3.88138e-06
-3.40915e-06
-2.93096e-06
-2.48388e-06
-2.10397e-06
-1.82377e-06
-1.66976e-06
-1.66073e-06
-1.80619e-06
-2.10554e-06
-2.54846e-06
-3.11627e-06
-3.78423e-06
-4.52428e-06
-5.30831e-06
-6.10952e-06
-4.80873e-06
-4.83079e-06
-4.83991e-06
-4.82658e-06
-4.79062e-06
-4.73588e-06
-4.66624e-06
-4.58563e-06
-4.49861e-06
-4.41015e-06
-4.32502e-06
-4.24741e-06
-4.18085e-06
-4.12829e-06
-4.09235e-06
-4.07576e-06
-4.08179e-06
-4.11484e-06
-4.18063e-06
-4.28585e-06
-4.43615e-06
-4.63099e-06
-4.83889e-06
-5.00204e-06
-5.08252e-06
-5.0633e-06
-4.94115e-06
-4.72413e-06
-4.42953e-06
-4.08161e-06
-3.70934e-06
-3.34404e-06
-3.01706e-06
-2.75753e-06
-2.59027e-06
-2.53416e-06
-2.60114e-06
-2.79529e-06
-3.11292e-06
-3.54346e-06
-4.07086e-06
-4.67551e-06
-5.33622e-06
-6.0324e-06
-6.74433e-06
-4.40863e-06
-4.4537e-06
-4.48958e-06
-4.50653e-06
-4.50389e-06
-4.48479e-06
-4.45205e-06
-4.4083e-06
-4.35681e-06
-4.30147e-06
-4.24632e-06
-4.19525e-06
-4.15184e-06
-4.11937e-06
-4.10098e-06
-4.0998e-06
-4.11936e-06
-4.16384e-06
-4.23813e-06
-4.34741e-06
-4.49524e-06
-4.67931e-06
-4.87005e-06
-5.01842e-06
-5.09492e-06
-5.08777e-06
-4.9967e-06
-4.8311e-06
-4.60783e-06
-4.34904e-06
-4.07995e-06
-3.82673e-06
-3.61449e-06
-3.46555e-06
-3.39788e-06
-3.42424e-06
-3.55159e-06
-3.78082e-06
-4.10719e-06
-4.52132e-06
-5.01036e-06
-5.55939e-06
-6.15279e-06
-6.77565e-06
-7.4134e-06
-3.97571e-06
-4.04424e-06
-4.10634e-06
-4.15242e-06
-4.18167e-06
-4.19675e-06
-4.19982e-06
-4.19263e-06
-4.17746e-06
-4.15728e-06
-4.13537e-06
-4.1151e-06
-4.0998e-06
-4.09276e-06
-4.09722e-06
-4.11651e-06
-4.15417e-06
-4.21406e-06
-4.30032e-06
-4.4168e-06
-4.56544e-06
-4.74293e-06
-4.9223e-06
-5.06316e-06
-5.14415e-06
-5.15825e-06
-5.10737e-06
-5.00116e-06
-4.85506e-06
-4.68815e-06
-4.52114e-06
-4.37471e-06
-4.26794e-06
-4.21704e-06
-4.23446e-06
-4.32841e-06
-4.50264e-06
-4.75645e-06
-5.08536e-06
-5.48179e-06
-5.93604e-06
-6.43716e-06
-6.9739e-06
-7.53558e-06
-8.11149e-06
-3.50826e-06
-3.6009e-06
-3.68885e-06
-3.76329e-06
-3.82347e-06
-3.87171e-06
-3.90973e-06
-3.93874e-06
-3.96033e-06
-3.97674e-06
-3.99058e-06
-4.00463e-06
-4.02181e-06
-4.04513e-06
-4.07769e-06
-4.12269e-06
-4.18347e-06
-4.26348e-06
-4.36613e-06
-4.49422e-06
-4.64863e-06
-4.82582e-06
-5.00205e-06
-5.14498e-06
-5.24045e-06
-5.28535e-06
-5.28274e-06
-5.24159e-06
-5.17508e-06
-5.09862e-06
-5.02826e-06
-4.97945e-06
-4.96594e-06
-4.999e-06
-5.08692e-06
-5.23486e-06
-5.44469e-06
-5.71529e-06
-6.04301e-06
-6.42224e-06
-6.84598e-06
-7.30652e-06
-7.79593e-06
-8.30669e-06
-8.831e-06
-3.00787e-06
-3.12522e-06
-3.23853e-06
-3.34063e-06
-3.43102e-06
-3.51168e-06
-3.58399e-06
-3.64882e-06
-3.70735e-06
-3.7613e-06
-3.8127e-06
-3.8638e-06
-3.91704e-06
-3.97501e-06
-4.04045e-06
-4.11623e-06
-4.2053e-06
-4.31062e-06
-4.43493e-06
-4.58027e-06
-4.747e-06
-4.93211e-06
-5.11539e-06
-5.2715e-06
-5.39204e-06
-5.47648e-06
-5.52812e-06
-5.55454e-06
-5.56624e-06
-5.5749e-06
-5.59224e-06
-5.62917e-06
-5.69519e-06
-5.79788e-06
-5.94265e-06
-6.13272e-06
-6.36911e-06
-6.65085e-06
-6.97535e-06
-7.33875e-06
-7.73633e-06
-8.16283e-06
-8.61284e-06
-9.08115e-06
-9.56221e-06
-2.48016e-06
-2.62269e-06
-2.76077e-06
-2.88986e-06
-3.00996e-06
-3.12255e-06
-3.22864e-06
-3.32895e-06
-3.42444e-06
-3.51645e-06
-3.60658e-06
-3.69663e-06
-3.78856e-06
-3.88451e-06
-3.98678e-06
-4.09778e-06
-4.21997e-06
-4.35577e-06
-4.50738e-06
-4.67632e-06
-4.86292e-06
-5.06515e-06
-5.26643e-06
-5.44717e-06
-5.6026e-06
-5.73331e-06
-5.84215e-06
-5.93508e-06
-6.01998e-06
-6.10518e-06
-6.19876e-06
-6.30811e-06
-6.4396e-06
-6.59826e-06
-6.78768e-06
-7.00998e-06
-7.26586e-06
-7.55476e-06
-7.87511e-06
-8.2245e-06
-8.59991e-06
-8.998e-06
-9.41518e-06
-9.84794e-06
-1.02925e-05
-1.93545e-06
-2.10334e-06
-2.2654e-06
-2.42084e-06
-2.57029e-06
-2.71449e-06
-2.85402e-06
-2.98952e-06
-3.12186e-06
-3.25213e-06
-3.38159e-06
-3.51166e-06
-3.64389e-06
-3.78001e-06
-3.92186e-06
-4.07137e-06
-4.23053e-06
-4.40125e-06
-4.5853e-06
-4.78392e-06
-4.99767e-06
-5.2255e-06
-5.45451e-06
-5.66987e-06
-5.86802e-06
-6.04894e-06
-6.21467e-06
-6.36988e-06
-6.52029e-06
-6.67156e-06
-6.82899e-06
-6.99743e-06
-7.18105e-06
-7.38326e-06
-7.60667e-06
-7.85285e-06
-8.12247e-06
-8.41542e-06
-8.73097e-06
-9.06782e-06
-9.42426e-06
-9.79828e-06
-1.01877e-05
-1.05902e-05
-1.10036e-05
-1.42255e-06
-1.61505e-06
-1.80017e-06
-1.98083e-06
-2.15824e-06
-2.33239e-06
-2.50343e-06
-2.67195e-06
-2.8388e-06
-3.00488e-06
-3.1712e-06
-3.3389e-06
-3.50923e-06
-3.68358e-06
-3.86341e-06
-4.05029e-06
-4.24579e-06
-4.45148e-06
-4.6688e-06
-4.89886e-06
-5.14253e-06
-5.39918e-06
-5.65935e-06
-5.91225e-06
-6.1534e-06
-6.38086e-06
-6.59588e-06
-6.80249e-06
-7.00504e-06
-7.2074e-06
-7.41309e-06
-7.62535e-06
-7.84707e-06
-8.08069e-06
-8.32816e-06
-8.59078e-06
-8.86928e-06
-9.16394e-06
-9.47459e-06
-9.80071e-06
-1.01415e-05
-1.04958e-05
-1.08625e-05
-1.12403e-05
-1.16278e-05
-9.98718e-07
-1.21329e-06
-1.42048e-06
-1.62468e-06
-1.82721e-06
-2.02771e-06
-2.22611e-06
-2.423e-06
-2.61914e-06
-2.81534e-06
-3.01241e-06
-3.21129e-06
-3.41305e-06
-3.61881e-06
-3.8298e-06
-4.04732e-06
-4.27269e-06
-4.50723e-06
-4.75223e-06
-5.00871e-06
-5.2778e-06
-5.55909e-06
-5.84564e-06
-6.12925e-06
-6.40404e-06
-6.66625e-06
-6.91678e-06
-7.15941e-06
-7.39773e-06
-7.63455e-06
-7.87233e-06
-8.11344e-06
-8.36006e-06
-8.61402e-06
-8.87681e-06
-9.14956e-06
-9.43305e-06
-9.72776e-06
-1.00339e-05
-1.03513e-05
-1.06797e-05
-1.10186e-05
-1.13673e-05
-1.1725e-05
-1.20912e-05
-6.76384e-07
-9.10236e-07
-1.1374e-06
-1.36232e-06
-1.58623e-06
-1.80868e-06
-2.02958e-06
-2.24947e-06
-2.46906e-06
-2.68902e-06
-2.91007e-06
-3.13301e-06
-3.35873e-06
-3.58823e-06
-3.82255e-06
-4.0628e-06
-4.31015e-06
-4.56577e-06
-4.83085e-06
-5.10638e-06
-5.39365e-06
-5.69238e-06
-5.99725e-06
-6.30162e-06
-6.59859e-06
-6.88342e-06
-7.15687e-06
-7.42257e-06
-7.68363e-06
-7.94218e-06
-8.20009e-06
-8.4592e-06
-8.72124e-06
-8.98771e-06
-9.25985e-06
-9.53866e-06
-9.82491e-06
-1.01192e-05
-1.04218e-05
-1.07329e-05
-1.10524e-05
-1.13802e-05
-1.17159e-05
-1.2059e-05
-1.24093e-05
-4.3745e-07
-6.87927e-07
-9.32568e-07
-1.17531e-06
-1.41718e-06
-1.65777e-06
-1.89704e-06
-2.13546e-06
-2.37367e-06
-2.61224e-06
-2.85181e-06
-3.09306e-06
-3.33679e-06
-3.58385e-06
-3.83517e-06
-4.09172e-06
-4.35456e-06
-4.62476e-06
-4.90344e-06
-5.19159e-06
-5.49055e-06
-5.80013e-06
-6.11606e-06
-6.43264e-06
-6.74256e-06
-7.04074e-06
-7.32799e-06
-7.60777e-06
-7.88278e-06
-8.15474e-06
-8.42516e-06
-8.69555e-06
-8.96734e-06
-9.2418e-06
-9.51998e-06
-9.80278e-06
-1.00909e-05
-1.0385e-05
-1.06854e-05
-1.09923e-05
-1.13059e-05
-1.16262e-05
-1.1953e-05
-1.2286e-05
-1.26251e-05
-2.648e-07
-5.29576e-07
-7.89281e-07
-1.04716e-06
-1.30401e-06
-1.55952e-06
-1.81367e-06
-2.06691e-06
-2.31977e-06
-2.57277e-06
-2.82645e-06
-3.08144e-06
-3.33841e-06
-3.59815e-06
-3.86146e-06
-4.12923e-06
-4.40242e-06
-4.68203e-06
-4.96912e-06
-5.26466e-06
-5.57003e-06
-5.88508e-06
-6.20622e-06
-6.52836e-06
-6.84425e-06
-7.14903e-06
-7.44363e-06
-7.73126e-06
-8.01429e-06
-8.29415e-06
-8.5721e-06
-8.84943e-06
-9.12736e-06
-9.40698e-06
-9.68921e-06
-9.97482e-06
-1.02645e-05
-1.05588e-05
-1.08581e-05
-1.11628e-05
-1.14729e-05
-1.17886e-05
-1.21099e-05
-1.24365e-05
-1.27685e-05
-1.43358e-07
-4.20389e-07
-6.92926e-07
-9.63522e-07
-1.23277e-06
-1.50044e-06
-1.76656e-06
-2.03154e-06
-2.29583e-06
-2.55988e-06
-2.82417e-06
-3.08927e-06
-3.35578e-06
-3.62439e-06
-3.89585e-06
-4.17095e-06
-4.45058e-06
-4.73567e-06
-5.02724e-06
-5.32624e-06
-5.63403e-06
-5.95048e-06
-6.2725e-06
-6.59539e-06
-6.91234e-06
-7.21906e-06
-7.51661e-06
-7.80792e-06
-8.09501e-06
-8.37912e-06
-8.66134e-06
-8.9428e-06
-9.22457e-06
-9.50758e-06
-9.79262e-06
-1.00804e-05
-1.03716e-05
-1.06666e-05
-1.09659e-05
-1.12697e-05
-1.15784e-05
-1.18919e-05
-1.22103e-05
-1.25336e-05
-1.28617e-05
-6.03168e-08
-3.47827e-07
-6.31214e-07
-9.12425e-07
-1.19188e-06
-1.46942e-06
-1.74513e-06
-2.01935e-06
-2.29248e-06
-2.56493e-06
-2.83711e-06
-3.10954e-06
-3.38276e-06
-3.6574e-06
-3.93413e-06
-4.21369e-06
-4.49688e-06
-4.7846e-06
-5.0778e-06
-5.37742e-06
-5.68477e-06
-5.99977e-06
-6.31964e-06
-6.64006e-06
-6.95485e-06
-7.26047e-06
-7.55811e-06
-7.85036e-06
-8.13894e-06
-8.42492e-06
-8.7093e-06
-8.99307e-06
-9.27717e-06
-9.56241e-06
-9.8495e-06
-1.01391e-05
-1.04317e-05
-1.07278e-05
-1.10279e-05
-1.13321e-05
-1.16407e-05
-1.19538e-05
-1.22715e-05
-1.25937e-05
-1.29205e-05
-5.27309e-09
-3.0174e-07
-5.94272e-07
-8.84318e-07
-1.17217e-06
-1.45771e-06
-1.74108e-06
-2.02257e-06
-2.30253e-06
-2.58131e-06
-2.8593e-06
-3.13697e-06
-3.4148e-06
-3.69337e-06
-3.97329e-06
-4.25524e-06
-4.53998e-06
-4.82833e-06
-5.12121e-06
-5.41951e-06
-5.72451e-06
-6.03617e-06
-6.35195e-06
-6.66791e-06
-6.97862e-06
-7.28132e-06
-7.57729e-06
-7.86878e-06
-8.15722e-06
-8.44359e-06
-8.72877e-06
-9.01368e-06
-9.29914e-06
-9.58585e-06
-9.87448e-06
-1.01656e-05
-1.04597e-05
-1.07572e-05
-1.10585e-05
-1.13639e-05
-1.16735e-05
-1.19875e-05
-1.2306e-05
-1.26288e-05
-1.29561e-05
2.99072e-08
-2.74222e-07
-5.74461e-07
-8.71863e-07
-1.16662e-06
-1.45868e-06
-1.74818e-06
-2.0354e-06
-2.32063e-06
-2.60419e-06
-2.88644e-06
-3.1678e-06
-3.44872e-06
-3.72973e-06
-4.01139e-06
-4.29432e-06
-4.57924e-06
-4.86691e-06
-5.15819e-06
-5.45396e-06
-5.75543e-06
-6.06259e-06
-6.37317e-06
-6.68357e-06
-6.9892e-06
-7.28802e-06
-7.58135e-06
-7.87109e-06
-8.15844e-06
-8.44429e-06
-8.72946e-06
-9.01477e-06
-9.30095e-06
-9.58866e-06
-9.87848e-06
-1.01709e-05
-1.04665e-05
-1.07656e-05
-1.10685e-05
-1.13755e-05
-1.16868e-05
-1.20026e-05
-1.23228e-05
-1.26474e-05
-1.29766e-05
5.13783e-08
-2.59324e-07
-5.66073e-07
-8.69622e-07
-1.17009e-06
-1.46748e-06
-1.76193e-06
-2.05369e-06
-2.34301e-06
-2.63019e-06
-2.91557e-06
-3.19951e-06
-3.48246e-06
-3.76487e-06
-4.04729e-06
-4.33028e-06
-4.6145e-06
-4.90068e-06
-5.18962e-06
-5.48216e-06
-5.77944e-06
-6.08152e-06
-6.38636e-06
-6.69079e-06
-6.99097e-06
-7.28553e-06
-7.57576e-06
-7.86323e-06
-8.14898e-06
-8.4338e-06
-8.71847e-06
-9.00373e-06
-9.29024e-06
-9.57861e-06
-9.86939e-06
-1.01631e-05
-1.046e-05
-1.07607e-05
-1.10654e-05
-1.13744e-05
-1.16878e-05
-1.20057e-05
-1.23283e-05
-1.26554e-05
-1.29872e-05
6.36417e-08
-2.52721e-07
-5.64995e-07
-8.73711e-07
-1.17895e-06
-1.48073e-06
-1.77921e-06
-2.0746e-06
-2.36714e-06
-2.65709e-06
-2.94478e-06
-3.23054e-06
-3.51477e-06
-3.79791e-06
-4.08045e-06
-4.36293e-06
-4.64596e-06
-4.9302e-06
-5.21642e-06
-5.50539e-06
-5.79824e-06
-6.09502e-06
-6.39399e-06
-6.69243e-06
-6.98721e-06
-7.27749e-06
-7.56449e-06
-7.84949e-06
-8.13339e-06
-8.41694e-06
-8.70084e-06
-8.98579e-06
-9.27238e-06
-9.5612e-06
-9.85274e-06
-1.01475e-05
-1.04458e-05
-1.07481e-05
-1.10546e-05
-1.13656e-05
-1.16813e-05
-1.20017e-05
-1.23269e-05
-1.26569e-05
-1.29917e-05
6.98868e-08
-2.51373e-07
-5.68366e-07
-8.81458e-07
-1.1907e-06
-1.49616e-06
-1.79796e-06
-2.0963e-06
-2.3914e-06
-2.68352e-06
-2.97293e-06
-3.25998e-06
-3.54501e-06
-3.82844e-06
-4.11073e-06
-4.39238e-06
-4.67394e-06
-4.95605e-06
-5.23942e-06
-5.52477e-06
-5.81316e-06
-6.10469e-06
-6.39792e-06
-6.69061e-06
-6.98028e-06
-7.26647e-06
-7.55029e-06
-7.83281e-06
-8.11481e-06
-8.39698e-06
-8.67999e-06
-8.96448e-06
-9.251e-06
-9.54011e-06
-9.83227e-06
-1.01279e-05
-1.04275e-05
-1.07313e-05
-1.10396e-05
-1.13526e-05
-1.16705e-05
-1.19935e-05
-1.23215e-05
-1.26545e-05
-1.29924e-05
7.23057e-08
-2.53213e-07
-5.74264e-07
-8.91096e-07
-1.20375e-06
-1.5123e-06
-1.81688e-06
-2.11766e-06
-2.41485e-06
-2.70868e-06
-2.99942e-06
-3.28738e-06
-3.57289e-06
-3.85635e-06
-4.13818e-06
-4.41883e-06
-4.69885e-06
-4.9788e-06
-5.25935e-06
-5.54116e-06
-5.82525e-06
-6.11175e-06
-6.39952e-06
-6.68685e-06
-6.9718e-06
-7.25419e-06
-7.535e-06
-7.81513e-06
-8.09526e-06
-8.37606e-06
-8.65814e-06
-8.94209e-06
-9.22845e-06
-9.51773e-06
-9.81039e-06
-1.01069e-05
-1.04075e-05
-1.07127e-05
-1.10226e-05
-1.13376e-05
-1.16577e-05
-1.19831e-05
-1.23138e-05
-1.26498e-05
-1.2991e-05
7.23645e-08
-2.56878e-07
-5.81442e-07
-9.01499e-07
-1.21709e-06
-1.52829e-06
-1.83522e-06
-2.13804e-06
-2.43696e-06
-2.73217e-06
-3.02395e-06
-3.31258e-06
-3.59838e-06
-3.88171e-06
-4.16296e-06
-4.44259e-06
-4.72106e-06
-4.99892e-06
-5.27677e-06
-5.55524e-06
-5.83529e-06
-6.11704e-06
-6.39972e-06
-6.68215e-06
-6.96282e-06
-7.24174e-06
-7.51976e-06
-7.79763e-06
-8.076e-06
-8.35547e-06
-8.63662e-06
-8.92001e-06
-9.20615e-06
-9.49553e-06
-9.7886e-06
-1.00858e-05
-1.03874e-05
-1.06938e-05
-1.10053e-05
-1.1322e-05
-1.16442e-05
-1.19719e-05
-1.23052e-05
-1.2644e-05
-1.29882e-05
7.10221e-08
-2.6149e-07
-5.89116e-07
-9.11977e-07
-1.23011e-06
-1.54359e-06
-1.85254e-06
-2.1571e-06
-2.45746e-06
-2.75383e-06
-3.04644e-06
-3.33557e-06
-3.62153e-06
-3.90465e-06
-4.1853e-06
-4.4639e-06
-4.7409e-06
-5.01679e-06
-5.29214e-06
-5.5675e-06
-5.8438e-06
-6.12116e-06
-6.39916e-06
-6.67715e-06
-6.95398e-06
-7.22976e-06
-7.50522e-06
-7.78101e-06
-8.05774e-06
-8.33595e-06
-8.61621e-06
-8.89904e-06
-9.18493e-06
-9.47435e-06
-9.76773e-06
-1.00655e-05
-1.0368e-05
-1.06755e-05
-1.09883e-05
-1.13067e-05
-1.16308e-05
-1.19606e-05
-1.22962e-05
-1.26376e-05
-1.29847e-05
6.88955e-08
-2.66495e-07
-5.96801e-07
-9.22112e-07
-1.24246e-06
-1.55793e-06
-1.86862e-06
-2.17468e-06
-2.47627e-06
-2.7736e-06
-3.06689e-06
-3.35641e-06
-3.64245e-06
-3.92532e-06
-4.20538e-06
-4.48301e-06
-4.75863e-06
-5.0327e-06
-5.30576e-06
-5.57829e-06
-5.85116e-06
-6.1245e-06
-6.39823e-06
-6.67224e-06
-6.94564e-06
-7.21859e-06
-7.49173e-06
-7.76563e-06
-8.04084e-06
-8.3179e-06
-8.59732e-06
-8.87961e-06
-9.16523e-06
-9.45465e-06
-9.74828e-06
-1.00465e-05
-1.03497e-05
-1.06582e-05
-1.09723e-05
-1.12921e-05
-1.16179e-05
-1.19496e-05
-1.22874e-05
-1.26312e-05
-1.29808e-05
6.63641e-08
-2.71566e-07
-6.04226e-07
-9.31687e-07
-1.25398e-06
-1.57118e-06
-1.88339e-06
-2.19073e-06
-2.49339e-06
-2.79153e-06
-3.0854e-06
-3.37522e-06
-3.66129e-06
-3.94391e-06
-4.2234e-06
-4.50013e-06
-4.77449e-06
-5.04691e-06
-5.31788e-06
-5.58785e-06
-5.85762e-06
-6.12731e-06
-6.39718e-06
-6.66761e-06
-6.93796e-06
-7.20838e-06
-7.47943e-06
-7.75162e-06
-8.02547e-06
-8.30146e-06
-8.58011e-06
-8.86187e-06
-9.14722e-06
-9.4366e-06
-9.73043e-06
-1.00291e-05
-1.03329e-05
-1.06423e-05
-1.09574e-05
-1.12785e-05
-1.16057e-05
-1.19392e-05
-1.22789e-05
-1.26249e-05
-1.29768e-05
6.36135e-08
-2.76589e-07
-6.1135e-07
-9.40725e-07
-1.26475e-06
-1.58349e-06
-1.89703e-06
-2.20552e-06
-2.5091e-06
-2.80795e-06
-3.1023e-06
-3.39238e-06
-3.67845e-06
-3.96081e-06
-4.23976e-06
-4.51566e-06
-4.78886e-06
-5.05977e-06
-5.32884e-06
-5.59648e-06
-5.86343e-06
-6.12976e-06
-6.3961e-06
-6.66331e-06
-6.93092e-06