/*--------------------------------*- C++ -*----------------------------------*\
| =========                 |                                                 |
| \\      /  F ield         | OpenFOAM: The Open Source CFD Toolbox           |
|  \\    /   O peration     | Version:  2312                                  |
|   \\  /    A nd           | Website:  www.openfoam.com                      |
|    \\/     M anipulation  |                                                 |
\*---------------------------------------------------------------------------*/
FoamFile
{
    version     2.0;
    format      ascii;
    arch        "LSB;label=32;scalar=64";
    class       surfaceScalarField;
    location    "200";
    object      phi;
}
// * * * * * * * * * * * * * * * * * * * * * * * * * * * * * * * * * * * * * //

dimensions      [0 3 -1 0 0 0 0];

oriented        oriented;

internalField   nonuniform List<scalar> 
9445
(
4.66693e-10
9.36452e-12
4.61437e-10
5.25589e-12
4.5875e-10
2.68693e-12
4.57885e-10
8.65345e-13
4.58389e-10
-5.04002e-13
4.59996e-10
-1.60684e-12
4.62586e-10
-2.59047e-12
4.66169e-10
-3.58252e-12
4.70913e-10
-4.74483e-12
4.77328e-10
-6.41461e-12
4.86893e-10
-9.56537e-12
5.03987e-10
-1.70931e-11
5.39534e-10
-3.55477e-11
6.22459e-10
-8.29243e-11
-2.24926e-10
8.47385e-10
1.6292e-09
4.19879e-11
1.6105e-09
2.39552e-11
1.60055e-09
1.26418e-11
1.59671e-09
4.70406e-12
1.59744e-09
-1.23427e-12
1.60181e-09
-5.97918e-12
1.60938e-09
-1.01566e-11
1.6201e-09
-1.43048e-11
1.63442e-09
-1.90687e-11
1.65363e-09
-2.562e-11
1.68076e-09
-3.66974e-11
1.72229e-09
-5.86205e-11
1.79e-09
-1.0326e-10
1.89713e-09
-1.90052e-10
-3.36714e-10
2.00891e-09
3.21512e-09
1.05828e-10
3.17788e-09
6.11913e-11
3.15745e-09
3.3074e-11
3.14865e-09
1.35009e-11
3.14848e-09
-1.05999e-12
3.1551e-09
-1.26023e-11
3.16757e-09
-2.2623e-11
3.18564e-09
-3.23769e-11
3.20983e-09
-4.32566e-11
3.24165e-09
-5.74449e-11
3.28407e-09
-7.91186e-11
3.34136e-09
-1.1591e-10
3.41645e-09
-1.78352e-10
3.49999e-09
-2.73582e-10
-3.89861e-10
3.55313e-09
5.34105e-09
2.10385e-10
5.27893e-09
1.23315e-10
5.24378e-09
6.8223e-11
5.22716e-09
3.0118e-11
5.22414e-09
1.96191e-12
5.23169e-09
-2.01499e-11
5.24809e-09
-3.90218e-11
5.27261e-09
-5.69041e-11
5.3054e-09
-7.60432e-11
5.34733e-09
-9.93742e-11
5.39957e-09
-1.31361e-10
5.46185e-09
-1.78187e-10
5.5286e-09
-2.451e-10
5.58413e-09
-3.29113e-10
-4.11287e-10
5.60555e-09
8.14855e-09
3.66084e-10
8.05412e-09
2.17743e-10
7.999e-09
1.23348e-10
7.97073e-09
5.83854e-11
7.96195e-09
1.074e-11
7.96808e-09
-2.62778e-11
7.9863e-09
-5.7244e-11
8.01502e-09
-8.56232e-11
8.05343e-09
-1.14458e-10
8.10099e-09
-1.4693e-10
8.15627e-09
-1.8664e-10
8.21498e-09
-2.36898e-10
8.26787e-09
-2.97994e-10
8.30166e-09
-3.62901e-10
-4.16087e-10
8.30646e-09
1.18059e-08
5.82739e-10
1.16715e-08
3.52168e-10
1.15905e-08
2.04367e-10
1.15459e-08
1.02965e-10
1.15275e-08
2.91412e-11
1.15288e-08
-2.75489e-11
1.15455e-08
-7.393e-11
1.15747e-08
-1.14848e-10
1.16143e-08
-1.54017e-10
1.16618e-08
-1.94453e-10
1.17136e-08
-2.38415e-10
1.17633e-08
-2.86629e-10
1.18021e-08
-3.36761e-10
1.18213e-08
-3.82172e-10
-4.13374e-10
1.18186e-08
1.65074e-08
8.66194e-10
1.6327e-08
5.32648e-10
1.62146e-08
3.16764e-10
1.61488e-08
1.68708e-10
1.61163e-08
6.16055e-11
1.61085e-08
-1.96758e-11
1.61192e-08
-8.46688e-11
1.61441e-08
-1.39753e-10
1.61794e-08
-1.89276e-10
1.62209e-08
-2.36022e-10
1.62638e-08
-2.81239e-10
1.63015e-08
-3.24352e-10
1.63275e-08
-3.62725e-10
1.63373e-08
-3.92024e-10
-4.07857e-10
1.63318e-08
2.24676e-08
1.21271e-09
2.22402e-08
7.60017e-10
2.20937e-08
4.63291e-10
2.20033e-08
2.5915e-10
2.19528e-08
1.12096e-10
2.19314e-08
1.6844e-12
2.19314e-08
-8.46892e-11
2.19468e-08
-1.55113e-10
2.19722e-08
-2.14704e-10
2.20025e-08
-2.66354e-10
2.20324e-08
-3.11113e-10
2.20566e-08
-3.48502e-10
2.20708e-08
-3.77001e-10
2.20736e-08
-3.94821e-10
-4.00897e-10
2.20667e-08
2.99101e-08
1.60122e-09
2.96457e-08
1.02446e-09
2.94688e-08
6.40153e-10
2.93542e-08
3.73794e-10
2.92842e-08
1.8208e-10
2.92465e-08
3.93363e-11
2.92321e-08
-7.02297e-11
2.92335e-08
-1.56576e-10
2.92447e-08
-2.25875e-10
2.926e-08
-2.81679e-10
2.92746e-08
-3.25701e-10
2.92846e-08
-3.58505e-10
2.92878e-08
-3.80192e-10
2.9284e-08
-3.91032e-10
-3.91862e-10
2.9275e-08
3.90534e-08
1.98726e-09
3.8778e-08
1.29992e-09
3.85857e-08
8.324e-10
3.84551e-08
5.04454e-10
3.83695e-08
2.67629e-10
3.83167e-08
9.21385e-11
3.82871e-08
-4.0625e-11
3.8273e-08
-1.42487e-10
3.82681e-08
-2.20952e-10
3.82672e-08
-2.80718e-10
3.82662e-08
-3.24723e-10
3.82626e-08
-3.54945e-10
3.82554e-08
-3.73024e-10
3.82451e-08
-3.80657e-10
-3.79676e-10
3.82329e-08
5.01062e-08
2.3073e-09
4.98624e-08
1.54368e-09
4.96831e-08
1.01174e-09
4.9555e-08
6.32608e-10
4.94658e-08
3.56797e-10
4.94054e-08
1.52568e-10
4.93652e-08
-5.18e-13
4.93386e-08
-1.15823e-10
4.93198e-08
-2.02213e-10
4.93048e-08
-2.65716e-10
4.92907e-08
-3.10619e-10
4.9276e-08
-3.4023e-10
4.92604e-08
-3.57362e-10
4.92443e-08
-3.64586e-10
-3.64202e-10
4.92288e-08
6.32965e-08
2.50391e-09
6.31305e-08
1.70961e-09
6.29992e-08
1.14311e-09
6.28994e-08
7.32376e-10
6.28255e-08
4.30665e-10
6.27714e-08
2.06724e-10
6.27312e-08
3.96278e-11
6.27003e-08
-8.48562e-11
6.26747e-08
-1.76651e-10
6.26519e-08
-2.42902e-10
6.26303e-08
-2.8899e-10
6.26092e-08
-3.19186e-10
6.25889e-08
-3.37029e-10
6.25698e-08
-3.45532e-10
-3.47147e-10
6.25528e-08
7.8947e-08
2.56348e-09
7.88808e-08
1.77584e-09
7.882e-08
1.20389e-09
7.87689e-08
7.83492e-10
7.87275e-08
4.72086e-10
7.86939e-08
2.4029e-10
7.86658e-08
6.76847e-11
7.86411e-08
-6.01566e-11
7.86182e-08
-1.53703e-10
7.85961e-08
-2.20773e-10
7.85745e-08
-2.6739e-10
7.85536e-08
-2.98325e-10
7.8534e-08
-3.17426e-10
7.85163e-08
-3.2782e-10
-3.31925e-10
7.85011e-08
9.75359e-08
2.52572e-09
9.75492e-08
1.76257e-09
9.75505e-08
1.20251e-09
9.75463e-08
7.87774e-10
9.7539e-08
4.79316e-10
9.75298e-08
2.4956e-10
9.75186e-08
7.8809e-11
9.75057e-08
-4.72349e-11
9.74912e-08
-1.39196e-10
9.74756e-08
-2.05146e-10
9.74595e-08
-2.51325e-10
9.74438e-08
-2.82623e-10
9.74293e-08
-3.02891e-10
9.74166e-08
-3.15161e-10
-3.217e-10
9.74064e-08
1.19618e-07
2.44235e-09
1.1967e-07
1.71067e-09
1.19702e-07
1.16985e-09
1.19722e-07
7.67899e-10
1.19733e-07
4.68614e-10
1.19737e-07
2.45866e-10
1.19735e-07
8.06019e-11
1.19729e-07
-4.12447e-11
1.1972e-07
-1.30234e-10
1.19709e-07
-1.94411e-10
1.19698e-07
-2.39962e-10
1.19687e-07
-2.71665e-10
1.19677e-07
-2.93207e-10
1.19669e-07
-3.0743e-10
-3.1641e-10
1.19664e-07
1.45602e-07
2.33443e-09
1.45669e-07
1.64335e-09
1.4571e-07
1.12848e-09
1.45734e-07
7.44196e-10
1.45745e-07
4.57418e-10
1.45748e-07
2.4371e-10
1.45743e-07
8.49163e-11
1.45735e-07
-3.25394e-11
1.45723e-07
-1.18898e-10
1.45711e-07
-1.81945e-10
1.45698e-07
-2.27622e-10
1.45687e-07
-2.60462e-10
1.45678e-07
-2.8391e-10
1.45671e-07
-3.00588e-10
-3.12378e-10
1.45667e-07
1.75564e-07
2.1953e-09
1.75649e-07
1.55862e-09
1.75697e-07
1.07967e-09
1.75722e-07
7.19802e-10
1.75729e-07
4.49761e-10
1.75726e-07
2.47416e-10
1.75715e-07
9.60619e-11
1.75699e-07
-1.69224e-11
1.75681e-07
-1.01102e-10
1.75663e-07
-1.63738e-10
1.75646e-07
-2.10342e-10
1.7563e-07
-2.45089e-10
1.75618e-07
-2.71128e-10
1.75608e-07
-2.90841e-10
-3.05918e-10
1.75601e-07
2.09163e-07
2.01558e-09
2.09274e-07
1.44769e-09
2.09338e-07
1.0158e-09
2.09369e-07
6.88349e-10
2.09379e-07
4.40415e-10
2.09373e-07
2.52786e-10
2.09359e-07
1.10782e-10
2.09338e-07
3.20917e-12
2.09316e-07
-7.84586e-11
2.09293e-07
-1.407e-10
2.09271e-07
-1.88425e-10
2.09251e-07
-2.25348e-10
2.09234e-07
-2.5426e-10
2.09221e-07
-2.77281e-10
-2.95894e-10
2.09211e-07
2.45494e-07
1.79453e-09
2.45634e-07
1.30729e-09
2.45718e-07
9.32264e-10
2.45762e-07
6.44674e-10
2.45778e-07
4.24202e-10
2.45776e-07
2.54982e-10
2.45762e-07
1.24789e-10
2.45741e-07
2.42219e-11
2.45716e-07
-5.39248e-11
2.45691e-07
-1.15144e-10
2.45666e-07
-1.63607e-10
2.45643e-07
-2.02477e-10
2.45623e-07
-2.34138e-10
2.45606e-07
-2.60412e-10
-2.8256e-10
2.45593e-07
2.82699e-07
1.53677e-09
2.82867e-07
1.13874e-09
2.82971e-07
8.28221e-10
2.83029e-07
5.86649e-10
2.83055e-07
3.98392e-10
2.83059e-07
2.51177e-10
2.83048e-07
1.35492e-10
2.83028e-07
4.39524e-11
2.83004e-07
-2.91533e-11
2.82977e-07
-8.82105e-11
2.8295e-07
-1.36565e-10
2.82924e-07
-1.76765e-10
2.82901e-07
-2.10742e-10
2.8288e-07
-2.39987e-10
-2.65524e-10
2.82863e-07
2.81168e-07
1.28135e-09
2.81339e-07
9.6784e-10
2.81447e-07
7.19463e-10
2.81511e-07
5.22915e-10
2.81543e-07
3.66757e-10
2.81552e-07
2.41978e-10
2.81546e-07
1.41546e-10
2.8153e-07
5.9942e-11
2.81508e-07
-7.13908e-12
2.81483e-07
-6.30335e-11
2.81456e-07
-1.10311e-10
2.81431e-07
-1.50943e-10
2.81406e-07
-1.86436e-10
2.81384e-07
-2.1796e-10
-2.46344e-10
2.81365e-07
2.41511e-07
1.06194e-09
2.41662e-07
8.16949e-10
2.41761e-07
6.19845e-10
2.41823e-07
4.61075e-10
2.41857e-07
3.3241e-10
2.41872e-07
2.27356e-10
2.41873e-07
1.40802e-10
2.41864e-07
6.86849e-11
2.41849e-07
7.80665e-12
2.4183e-07
-4.43251e-11
2.4181e-07
-8.96436e-11
2.41788e-07
-1.29647e-10
2.41768e-07
-1.65493e-10
2.41748e-07
-1.98085e-10
-2.28087e-10
2.41729e-07
2.03483e-07
8.74871e-10
2.03615e-07
6.84426e-10
2.03706e-07
5.28814e-10
2.03766e-07
4.01153e-10
2.03803e-07
2.95612e-10
2.03823e-07
2.07602e-10
2.0383e-07
1.33459e-10
2.03829e-07
7.02313e-11
2.03821e-07
1.55729e-11
2.03809e-07
-3.2353e-11
2.03794e-07
-7.49797e-11
2.03778e-07
-1.13426e-10
2.03761e-07
-1.48569e-10
2.03744e-07
-1.81091e-10
-2.11508e-10
2.03727e-07
1.68778e-07
7.15568e-10
1.68894e-07
5.68206e-10
1.68977e-07
4.45883e-10
1.69035e-07
3.43621e-10
1.69073e-07
2.57376e-10
1.69097e-07
1.83976e-10
1.69109e-07
1.20836e-10
1.69114e-07
6.58356e-11
1.69112e-07
1.72769e-11
1.69106e-07
-2.61729e-11
1.69096e-07
-6.55597e-11
1.69085e-07
-1.01707e-10
1.69071e-07
-1.35264e-10
1.69057e-07
-1.66739e-10
-1.96525e-10
1.69042e-07
1.38134e-07
5.79247e-10
1.38237e-07
4.6584e-10
1.38312e-07
3.70155e-10
1.38367e-07
2.88594e-10
1.38406e-07
2.18432e-10
1.38433e-07
1.57548e-10
1.38449e-07
1.04149e-10
1.38458e-07
5.67293e-11
1.38462e-07
1.40818e-11
1.3846e-07
-2.47424e-11
1.38455e-07
-6.04929e-11
1.38447e-07
-9.37636e-11
1.38437e-07
-1.25029e-10
1.38425e-07
-1.54655e-10
-1.82937e-10
1.38411e-07
1.11725e-07
4.61858e-10
1.11816e-07
3.75234e-10
1.11885e-07
3.0089e-10
1.11937e-07
2.36234e-10
1.11976e-07
1.79522e-10
1.12004e-07
1.29399e-10
1.12024e-07
8.4648e-11
1.12036e-07
4.422e-11
1.12043e-07
7.27353e-12
1.12045e-07
-2.68506e-11
1.12043e-07
-5.86774e-11
1.12038e-07
-8.86262e-11
1.1203e-07
-1.17034e-10
1.1202e-07
-1.4416e-10
-1.70221e-10
1.12007e-07
8.93936e-08
3.60747e-10
8.94735e-08
2.95298e-10
8.95363e-08
2.38097e-10
8.95852e-08
1.87301e-10
8.96228e-08
1.41892e-10
8.96512e-08
1.0107e-10
8.96718e-08
6.4032e-11
8.96859e-08
3.0062e-11
8.96946e-08
-1.40746e-12
8.96986e-08
-3.08203e-11
8.96985e-08
-5.85348e-11
8.96947e-08
-8.4838e-11
8.96876e-08
-1.09964e-10
8.96775e-08
-1.3409e-10
-1.57372e-10
8.96647e-08
7.0797e-08
2.74719e-10
7.08663e-08
2.2601e-10
7.09218e-08
1.82584e-10
7.09659e-08
1.43169e-10
7.10006e-08
1.07281e-10
7.10271e-08
7.45099e-11
7.10468e-08
4.43463e-11
7.10606e-08
1.63178e-11
7.10691e-08
-9.94272e-12
7.1073e-08
-3.47231e-11
7.10727e-08
-5.8258e-11
7.10686e-08
-8.07378e-11
7.1061e-08
-1.0232e-10
7.105e-08
-1.23123e-10
-1.43258e-10
7.10359e-08
5.55024e-08
2.03348e-10
5.55606e-08
1.67794e-10
5.56078e-08
1.35371e-10
5.56457e-08
1.05254e-10
5.56757e-08
7.73482e-11
5.56987e-08
5.15039e-11
5.57156e-08
2.7413e-11
5.57271e-08
4.78022e-12
5.57338e-08
-1.66191e-11
5.57361e-08
-3.69631e-11
5.57342e-08
-5.63994e-11
5.57285e-08
-7.50491e-11
5.57192e-08
-9.30153e-11
5.57065e-08
-1.10376e-10
-1.27212e-10
5.56904e-08
4.30535e-08
1.46094e-10
4.31006e-08
1.2073e-10
4.31389e-08
9.69803e-11
4.31698e-08
7.43736e-11
4.31941e-08
5.30824e-11
4.32125e-08
3.31196e-11
4.32256e-08
1.43105e-11
4.32339e-08
-3.51815e-12
4.32377e-08
-2.0495e-11
4.32375e-08
-3.67244e-11
4.32334e-08
-5.22952e-11
4.32256e-08
-6.72817e-11
4.32144e-08
-8.175e-11
4.31997e-08
-9.57517e-11
-1.09347e-10
4.31819e-08
3.30126e-08
1.01803e-10
3.30491e-08
8.41681e-11
3.3079e-08
6.7126e-11
3.31029e-08
5.04909e-11
3.31213e-08
3.46006e-11
3.31349e-08
1.955e-11
3.3144e-08
5.2466e-12
3.31489e-08
-8.40477e-12
3.31498e-08
-2.1473e-11
3.31471e-08
-3.40156e-11
3.31409e-08
-4.60838e-11
3.31314e-08
-5.77217e-11
3.31186e-08
-6.89712e-11
3.31027e-08
-7.98669e-11
-9.04566e-11
3.30838e-08
2.4982e-08
6.87221e-11
2.50094e-08
5.67974e-11
2.50316e-08
4.48392e-11
2.50493e-08
3.28796e-11
2.50625e-08
2.13311e-11
2.50718e-08
1.03094e-11
2.50773e-08
-2.33737e-13
2.50792e-08
-1.03479e-11
2.50778e-08
-2.00677e-11
2.50732e-08
-2.94228e-11
2.50656e-08
-3.84413e-11
2.5055e-08
-4.71487e-11
2.50416e-08
-5.55708e-11
2.50254e-08
-6.37316e-11
-7.16713e-11
2.50067e-08
1.86122e-08
4.47982e-11
1.8632e-08
3.69746e-11
1.8648e-08
2.88006e-11
1.86604e-08
2.04518e-11
1.86694e-08
1.23369e-11
1.86752e-08
4.55194e-12
1.86779e-08
-2.93152e-12
1.86777e-08
-1.0138e-11
1.86747e-08
-1.70833e-11
1.86691e-08
-2.37817e-11
1.86609e-08
-3.02473e-11
1.86502e-08
-3.64943e-11
1.86372e-08
-4.25383e-11
1.86218e-08
-4.83961e-11
-5.41018e-11
1.86043e-08
1.36019e-08
2.80054e-11
1.36159e-08
2.30473e-11
1.3627e-08
1.76486e-11
1.36354e-08
1.20489e-11
1.36412e-08
6.594e-12
1.36444e-08
1.34304e-12
1.36452e-08
-3.72361e-12
1.36436e-08
-8.61744e-12
1.36399e-08
-1.33444e-11
1.3634e-08
-1.79104e-11
1.36261e-08
-2.23217e-11
1.36162e-08
-2.65856e-11
1.36044e-08
-3.07114e-11
1.35907e-08
-3.47103e-11
-3.86103e-11
1.35752e-08
9.69561e-09
1.65671e-11
9.7051e-09
1.35596e-11
9.71258e-09
1.01664e-11
9.71801e-09
6.61792e-12
9.72144e-09
3.16597e-12
9.72294e-09
-1.654e-13
9.72261e-09
-3.39003e-12
9.72051e-09
-6.51259e-12
9.7167e-09
-9.53436e-12
9.71124e-09
-1.24569e-11
9.7042e-09
-1.52824e-11
9.69563e-09
-1.80142e-11
9.68558e-09
-2.06574e-11
9.67409e-09
-2.32191e-11
-2.57202e-11
9.6612e-09
6.67854e-09
9.04565e-12
6.68477e-09
7.33052e-12
6.68958e-09
5.35547e-12
6.69291e-09
3.28856e-12
6.69479e-09
1.28509e-12
6.69528e-09
-6.53215e-13
6.69443e-09
-2.535e-12
6.69227e-09
-4.36151e-12
6.68887e-09
-6.13209e-12
6.68426e-09
-7.84647e-12
6.67848e-09
-9.50482e-12
6.67158e-09
-1.11085e-11
6.66358e-09
-1.26603e-11
6.65453e-09
-1.41635e-11
-1.56315e-11
6.64444e-09
4.37238e-09
4.33894e-12
4.37626e-09
3.45167e-12
4.37917e-09
2.43973e-12
4.38108e-09
1.3875e-12
4.38199e-09
3.71634e-13
4.38195e-09
-6.1441e-13
4.38099e-09
-1.57472e-12
4.37914e-09
-2.50906e-12
4.37642e-09
-3.41631e-12
4.37287e-09
-4.29568e-12
4.36851e-09
-5.14674e-12
4.36337e-09
-5.96982e-12
4.35748e-09
-6.76629e-12
4.35085e-09
-7.53713e-12
-8.28796e-12
4.34351e-09
2.6303e-09
1.63015e-12
2.63251e-09
1.24521e-12
2.63411e-09
8.37987e-13
2.63508e-09
4.19825e-13
2.63543e-09
1.65591e-14
2.6352e-09
-3.76986e-13
2.63438e-09
-7.61822e-13
2.63301e-09
-1.13728e-12
2.6311e-09
-1.50246e-12
2.62866e-09
-1.85671e-12
2.62571e-09
-2.19963e-12
2.62227e-09
-2.53116e-12
2.61836e-09
-2.852e-12
2.61398e-09
-3.16173e-12
-3.46021e-12
2.60916e-09
1.33251e-09
3.24928e-13
1.33354e-09
2.13835e-13
1.33425e-09
1.25824e-13
1.33464e-09
3.62549e-14
1.33471e-09
-5.12921e-14
1.33447e-09
-1.37959e-13
1.33393e-09
-2.23433e-13
1.3331e-09
-3.07186e-13
1.33198e-09
-3.88769e-13
1.3306e-09
-4.67874e-13
1.32894e-09
-5.44341e-13
1.32703e-09
-6.18064e-13
1.32486e-09
-6.89336e-13
1.32246e-09
-7.57648e-13
-8.20209e-13
1.31982e-09
3.82028e-10
3.82242e-10
3.82368e-10
3.82404e-10
3.82353e-10
3.82215e-10
3.81991e-10
3.81684e-10
3.81295e-10
3.80827e-10
3.80283e-10
3.79665e-10
3.78976e-10
3.78218e-10
3.77398e-10
1.00952e-09
-4.79811e-10
3.17675e-10
1.24312e-09
-4.51969e-10
2.18369e-10
1.48506e-09
-3.55351e-10
1.13414e-10
1.72495e-09
-2.50144e-10
1.02539e-11
1.96023e-09
-1.46389e-10
-8.88983e-11
2.19143e-09
-4.91631e-11
-1.82036e-10
2.41988e-09
4.0141e-11
-2.6859e-10
2.64675e-09
1.20795e-10
-3.47665e-10
2.87299e-09
1.92008e-10
-4.1825e-10
3.09934e-09
2.5298e-10
-4.79328e-10
3.32636e-09
3.02942e-10
-5.29958e-10
3.55447e-09
3.41343e-10
-5.69461e-10
3.78406e-09
3.68142e-10
-5.97728e-10
4.01549e-09
3.8428e-10
-6.15709e-10
4.24925e-09
3.92379e-10
-6.26143e-10
4.48613e-09
3.97668e-10
-6.34551e-10
4.72744e-09
4.09062e-10
-6.50368e-10
4.9753e-09
4.39902e-10
-6.87762e-10
5.23295e-09
5.07173e-10
-7.64827e-10
5.50479e-09
6.2655e-10
-8.98383e-10
5.79548e-09
7.9842e-10
-1.08912e-09
6.10775e-09
9.77645e-10
-1.2899e-09
6.39117e-09
8.84828e-10
-1.16825e-09
6.62469e-09
5.60614e-10
-7.94137e-10
6.80683e-09
1.10788e-10
-2.92922e-10
6.93734e-09
-4.05419e-10
2.74907e-10
7.01731e-09
-9.32124e-10
8.52149e-10
7.04879e-09
-1.42425e-09
1.39277e-09
7.03441e-09
-1.84774e-09
1.86212e-09
6.97723e-09
-2.17782e-09
2.235e-09
6.88066e-09
-2.39774e-09
2.49431e-09
6.74836e-09
-2.49784e-09
2.63014e-09
6.58411e-09
-2.47478e-09
2.63903e-09
6.39163e-09
-2.33059e-09
2.52307e-09
6.17435e-09
-2.07132e-09
2.2886e-09
5.93522e-09
-1.70528e-09
1.94441e-09
5.67668e-09
-1.24112e-09
1.49967e-09
5.40046e-09
-6.85895e-10
9.62111e-10
5.10726e-09
-4.43286e-11
3.37526e-10
4.79531e-09
6.78624e-10
-3.66674e-10
4.45815e-09
1.46814e-09
-1.13098e-09
4.08361e-09
2.27905e-09
-1.9045e-09
3.65932e-09
3.00147e-09
-2.57718e-09
3.20684e-09
3.41081e-09
-2.95834e-09
3.03465e-09
2.83621e-09
-2.66402e-09
2.07088e-09
-5.41774e-10
2.21093e-09
-5.92022e-10
2.40303e-09
-5.47447e-10
2.62089e-09
-4.68004e-10
2.85061e-09
-3.76111e-10
3.08562e-09
-2.84178e-10
3.32337e-09
-1.97605e-10
3.56294e-09
-1.18779e-10
3.80415e-09
-4.9193e-11
4.04705e-09
1.0074e-11
4.29183e-09
5.81637e-11
4.53867e-09
9.44985e-11
4.7878e-09
1.1902e-10
5.03947e-09
1.3261e-10
5.29411e-09
1.37731e-10
5.55248e-09
1.39297e-10
5.81589e-09
1.45659e-10
6.08651e-09
1.69282e-10
6.3677e-09
2.25973e-10
6.66408e-09
3.30172e-10
6.9806e-09
4.81901e-10
7.32022e-09
6.38021e-10
7.62858e-09
5.7647e-10
7.8831e-09
3.06097e-10
8.08227e-09
-8.8385e-11
8.22581e-09
-5.48958e-10
8.31482e-09
-1.02114e-09
8.3515e-09
-1.46092e-09
8.33871e-09
-1.83496e-09
8.27993e-09
-2.11904e-09
8.17909e-09
-2.29689e-09
8.04051e-09
-2.35926e-09
7.86881e-09
-2.30308e-09
7.6687e-09
-2.13048e-09
7.44486e-09
-1.84748e-09
7.20191e-09
-1.46233e-09
6.94455e-09
-9.83765e-10
6.67799e-09
-4.19329e-10
6.40852e-09
2.25141e-10
6.14404e-09
9.43099e-10
5.89475e-09
1.71743e-09
5.67516e-09
2.49863e-09
5.50892e-09
3.16771e-09
5.42614e-09
3.49359e-09
3.14637e-09
5.31442e-09
3.56683e-09
-5.55475e-10
3.6311e-09
-6.56291e-10
3.75658e-09
-6.72921e-10
3.92786e-09
-6.39293e-10
4.12951e-09
-5.7776e-10
4.35016e-09
-5.04828e-10
4.58299e-09
-4.30431e-10
4.82415e-09
-3.59937e-10
5.07151e-09
-2.9655e-10
5.3239e-09
-2.42317e-10
5.58068e-09
-1.98621e-10
5.84151e-09
-1.66333e-10
6.10623e-09
-1.45702e-10
6.37486e-09
-1.36016e-10
6.64764e-09
-1.35044e-10
6.92518e-09
-1.38247e-10
7.20873e-09
-1.37885e-10
7.50044e-09
-1.22428e-10
7.80373e-09
-7.73214e-11
8.12335e-09
1.05564e-11
8.46446e-09
1.40787e-10
8.83025e-09
2.72234e-10
9.16259e-09
2.44133e-10
9.43741e-09
3.12756e-11
9.65313e-09
-3.0411e-10
9.80939e-09
-7.05217e-10
9.9073e-09
-1.11905e-09
9.94916e-09
-1.50278e-09
9.93815e-09
-1.82395e-09
9.8782e-09
-2.05908e-09
9.77386e-09
-2.19256e-09
9.63029e-09
-2.21569e-09
9.45307e-09
-2.12586e-09
9.24816e-09
-1.92557e-09
9.02178e-09
-1.6211e-09
8.78058e-09
-1.22113e-09
8.53202e-09
-7.35206e-10
8.28534e-09
-1.72644e-10
8.05294e-09
4.57537e-10
7.85211e-09
1.14393e-09
7.70628e-09
1.86326e-09
7.64376e-09
2.56116e-09
7.68653e-09
3.12494e-09
7.81197e-09
3.36815e-09
3.09369e-09
7.86465e-09
5.59514e-09
-5.45067e-10
5.60698e-09
-6.68124e-10
5.66795e-09
-7.33897e-10
5.77943e-09
-7.50767e-10
5.93348e-09
-7.31816e-10
6.11979e-09
-6.9114e-10
6.32965e-09
-6.40284e-10
6.55681e-09
-5.87099e-10
6.79708e-09
-5.3682e-10
7.0477e-09
-4.92939e-10
7.30687e-09
-4.57794e-10
7.57341e-09
-4.32874e-10
7.84656e-09
-4.18847e-10
8.12588e-09
-4.15334e-10
8.41128e-09
-4.20448e-10
8.70314e-09
-4.30107e-10
9.00251e-09
-4.37251e-10
9.31143e-09
-4.31352e-10
9.63329e-09
-3.99181e-10
9.97286e-09
-3.29017e-10
1.03354e-08
-2.21793e-10
1.07243e-08
-1.16643e-10
1.10781e-08
-1.09602e-10
1.13711e-08
-2.61823e-10
1.16019e-08
-5.34822e-10
1.17697e-08
-8.7302e-10
1.18756e-08
-1.22502e-09
1.19222e-08
-1.54935e-09
1.19129e-08
-1.81462e-09
1.18521e-08
-1.9983e-09
1.17451e-08
-2.08561e-09
1.15981e-08
-2.06865e-09
1.14177e-08
-1.94551e-09
1.12114e-08
-1.71927e-09
1.09872e-08
-1.39687e-09
1.0754e-08
-9.87869e-10
1.05221e-08
-5.0333e-10
1.03047e-08
4.47231e-11
1.01193e-08
6.42973e-10
9.98912e-09
1.27409e-09
9.94319e-09
1.90918e-09
1.00094e-08
2.49493e-09
1.01946e-08
2.93975e-09
1.04459e-08
3.11686e-09
2.92439e-09
1.06152e-08
8.28557e-09
-5.24175e-10
8.26668e-09
-6.49233e-10
8.27678e-09
-7.44002e-10
8.32855e-09
-8.02537e-10
8.42426e-09
-8.27523e-10
8.55963e-09
-8.26516e-10
8.72802e-09
-8.08667e-10
8.92297e-09
-7.82053e-10
9.13919e-09
-7.53041e-10
9.37264e-09
-7.26386e-10
9.62034e-09
-7.05497e-10
9.88015e-09
-6.92684e-10
1.01505e-08
-6.89233e-10
1.04305e-08
-6.95262e-10
1.07194e-08
-7.09358e-10
1.10173e-08
-7.27996e-10
1.13249e-08
-7.44877e-10
1.16441e-08
-7.50544e-10
1.19781e-08
-7.3316e-10
1.23315e-08
-6.82474e-10
1.27097e-08
-6.00006e-10
1.3116e-08
-5.2287e-10
1.34862e-08
-4.79852e-10
1.37937e-08
-5.69276e-10
1.40362e-08
-7.77376e-10
1.42131e-08
-1.0499e-09
1.43253e-08
-1.33721e-09
1.43753e-08
-1.59938e-09
1.4367e-08
-1.80634e-09
1.43055e-08
-1.93673e-09
1.41967e-08
-1.97687e-09
1.4048e-08
-1.91988e-09
1.38672e-08
-1.76475e-09
1.36634e-08
-1.51548e-09
1.34465e-08
-1.17994e-09
1.32276e-08
-7.68958e-10
1.30197e-08
-2.95483e-10
1.2839e-08
2.2549e-10
1.27053e-08
7.76628e-10
1.26434e-08
1.33596e-09
1.26801e-08
1.8725e-09
1.28349e-08
2.34012e-09
1.31006e-08
2.67413e-09
1.34163e-08
2.80112e-09
2.67847e-09
1.36622e-08
1.17952e-08
-5.00807e-10
1.17628e-08
-6.16803e-10
1.17407e-08
-7.2192e-10
1.17446e-08
-8.06362e-10
1.17835e-08
-8.66496e-10
1.18606e-08
-9.03565e-10
1.19741e-08
-9.22178e-10
1.21202e-08
-9.28208e-10
1.22946e-08
-9.27429e-10
1.24931e-08
-9.24869e-10
1.27122e-08
-9.24561e-10
1.2949e-08
-9.295e-10
1.32014e-08
-9.416e-10
1.34677e-08
-9.61547e-10
1.37468e-08
-9.88484e-10
1.40383e-08
-1.01952e-09
1.43426e-08
-1.04919e-09
1.46612e-08
-1.06916e-09
1.49971e-08
-1.06904e-09
1.53547e-08
-1.04009e-09
1.57392e-08
-9.84461e-10
1.61535e-08
-9.37188e-10
1.65323e-08
-8.58678e-10
1.68477e-08
-8.84617e-10
1.70968e-08
-1.0265e-09
1.72785e-08
-1.23161e-09
1.73936e-08
-1.45231e-09
1.74447e-08
-1.65049e-09
1.7436e-08
-1.79766e-09
1.73732e-08
-1.87391e-09
1.72632e-08
-1.86692e-09
1.71144e-08
-1.77105e-09
1.69361e-08
-1.58647e-09
1.67389e-08
-1.31827e-09
1.65344e-08
-9.75471e-10
1.63358e-08
-5.70277e-10
1.61578e-08
-1.1748e-10
1.60177e-08
3.65604e-10
1.59352e-08
8.59083e-10
1.5932e-08
1.3392e-09
1.60275e-08
1.77695e-09
1.62307e-08
2.13694e-09
1.65256e-08
2.3792e-09
1.68584e-08
2.46833e-09
2.39319e-09
1.71437e-08
1.63101e-08
-4.79145e-10
1.62754e-08
-5.82085e-10
1.62386e-08
-6.85142e-10
1.62124e-08
-7.80081e-10
1.62074e-08
-8.61534e-10
1.62311e-08
-9.27271e-10
1.62869e-08
-9.78003e-10
1.63752e-08
-1.01651e-09
1.64944e-08
-1.04663e-09
1.6642e-08
-1.07241e-09
1.68151e-08
-1.09765e-09
1.7011e-08
-1.12545e-09
1.72275e-08
-1.15808e-09
1.74626e-08
-1.19664e-09
1.77149e-08
-1.24079e-09
1.79836e-08
-1.28826e-09
1.82689e-08
-1.33442e-09
1.85718e-08
-1.37208e-09
1.8895e-08
-1.3923e-09
1.92428e-08
-1.38784e-09
1.96198e-08
-1.36147e-09
2.00286e-08
-1.34602e-09
2.04043e-08
-1.23435e-09
2.07179e-08
-1.19818e-09
2.09656e-08
-1.2742e-09
2.11456e-08
-1.41161e-09
2.12584e-08
-1.56512e-09
2.13066e-08
-1.69875e-09
2.12949e-08
-1.78593e-09
2.12295e-08
-1.8085e-09
2.11183e-08
-1.75575e-09
2.09708e-08
-1.62351e-09
2.07976e-08
-1.41329e-09
2.06107e-08
-1.13137e-09
2.04232e-08
-7.87936e-10
2.02493e-08
-3.96359e-10
2.01045e-08
2.73126e-11
2.00053e-08
4.64756e-10
1.99688e-08
8.9561e-10
2.00106e-08
1.29741e-09
2.01414e-08
1.64613e-09
2.03609e-08
1.9175e-09
2.06499e-08
2.09012e-09
2.09671e-08
2.15116e-09
2.10384e-09
2.12565e-08
2.20477e-08
-4.60154e-10
2.20159e-08
-5.5028e-10
2.19762e-08
-6.45492e-10
2.19365e-08
-7.40369e-10
2.19053e-08
-8.30355e-10
2.18905e-08
-9.12429e-10
2.18979e-08
-9.85398e-10
2.19312e-08
-1.04979e-09
2.19919e-08
-1.10739e-09
2.20803e-08
-1.16076e-09
2.21953e-08
-1.21268e-09
2.23356e-08
-1.26574e-09
2.24996e-08
-1.32204e-09
2.26857e-08
-1.38276e-09
2.28927e-08
-1.44783e-09
2.31199e-08
-1.51548e-09
2.33673e-08
-1.5818e-09
2.36359e-08
-1.64067e-09
2.39281e-08
-1.68452e-09
2.42478e-08
-1.70752e-09
2.45993e-08
-1.71296e-09
2.49845e-08
-1.73121e-09
2.53411e-08
-1.59096e-09
2.56396e-08
-1.49674e-09
2.58748e-08
-1.50941e-09
2.6044e-08
-1.58072e-09
2.6147e-08
-1.66819e-09
2.61867e-08
-1.7384e-09
2.61678e-08
-1.76705e-09
2.60974e-08
-1.73804e-09
2.59841e-08
-1.64251e-09
2.58385e-08
-1.47791e-09
2.56724e-08
-1.24713e-09
2.54986e-08
-9.57604e-10
2.53311e-08
-6.20422e-10
2.51843e-08
-2.49587e-10
2.5073e-08
1.3859e-10
2.50115e-08
5.26311e-10
2.50123e-08
8.94789e-10
2.50846e-08
1.22508e-09
2.52313e-08
1.49941e-09
2.54459e-08
1.70296e-09
2.57097e-08
1.82633e-09
2.59927e-08
1.86807e-09
1.83653e-09
2.626e-08
2.92574e-08
-4.42545e-10
2.9229e-08
-5.21858e-10
2.91914e-08
-6.07963e-10
2.91488e-08
-6.97696e-10
2.91063e-08
-7.87924e-10
2.907e-08
-8.76125e-10
2.90454e-08
-9.60741e-10
2.90369e-08
-1.04134e-09
2.9048e-08
-1.11851e-09
2.90809e-08
-1.19359e-09
2.91365e-08
-1.26834e-09
2.92154e-08
-1.3446e-09
2.93173e-08
-1.42394e-09
2.94418e-08
-1.50729e-09
2.95886e-08
-1.59458e-09
2.97574e-08
-1.68428e-09
2.99486e-08
-1.77305e-09
3.01636e-08
-1.85563e-09
3.04047e-08
-1.92567e-09
3.06757e-08
-1.97853e-09
3.09806e-08
-2.01781e-09
3.13204e-08
-2.07098e-09
3.16385e-08
-1.90906e-09
3.19055e-08
-1.76376e-09
3.21142e-08
-1.71814e-09
3.22607e-08
-1.72719e-09
3.23444e-08
-1.75189e-09
3.23678e-08
-1.76184e-09
3.23362e-08
-1.73541e-09
3.2257e-08
-1.65883e-09
3.21397e-08
-1.52527e-09
3.19957e-08
-1.33385e-09
3.18373e-08
-1.08875e-09
3.1678e-08
-7.98285e-10
3.15315e-08
-4.73962e-10
3.14116e-08
-1.29654e-10
3.1331e-08
2.19207e-10
3.13006e-08
5.56666e-10
3.13284e-08
8.66967e-10
3.14178e-08
1.13569e-09
3.15662e-08
1.35103e-09
3.1764e-08
1.50519e-09
3.19947e-08
1.5956e-09
3.22371e-08
1.62566e-09
1.60431e-09
3.24693e-08
3.82147e-08
-4.24401e-10
3.8188e-08
-4.95082e-10
3.81529e-08
-5.72853e-10
3.81112e-08
-6.56e-10
3.80658e-08
-7.42588e-10
3.80205e-08
-8.3084e-10
3.79792e-08
-9.19452e-10
3.79457e-08
-1.0078e-09
3.79232e-08
-1.09598e-09
3.79143e-08
-1.18474e-09
3.79212e-08
-1.27521e-09
3.79453e-08
-1.36868e-09
3.79876e-08
-1.46628e-09
3.8049e-08
-1.56867e-09
3.81301e-08
-1.67567e-09
3.82317e-08
-1.78588e-09
3.8355e-08
-1.89634e-09
3.85019e-08
-2.00254e-09
3.86753e-08
-2.09907e-09
3.8879e-08
-2.18223e-09
3.91168e-08
-2.2556e-09
3.93889e-08
-2.34316e-09
3.96479e-08
-2.16798e-09
3.98653e-08
-1.98123e-09
4.0032e-08
-1.88475e-09
4.01425e-08
-1.83771e-09
4.01957e-08
-1.80515e-09
4.01941e-08
-1.76023e-09
4.0143e-08
-1.68432e-09
4.00504e-08
-1.56622e-09
3.99263e-08
-1.40116e-09
3.97823e-08
-1.18986e-09
3.96311e-08
-9.3753e-10
3.94857e-08
-6.52902e-10
3.9359e-08
-3.47265e-10
3.92629e-08
-3.35373e-11
3.92074e-08
2.747e-10
3.91999e-08
5.64207e-10
3.9244e-08
8.22876e-10
3.93389e-08
1.04073e-09
3.94791e-08
1.21084e-09
3.96543e-08
1.33002e-09
3.98507e-08
1.39919e-09
4.00532e-08
1.42318e-09
1.40983e-09
4.02476e-08
4.92092e-08
-4.04806e-10
4.91828e-08
-4.68615e-10
4.91492e-08
-5.39296e-10
4.91092e-08
-6.16009e-10
4.90643e-08
-6.9767e-10
4.90166e-08
-7.83162e-10
4.89687e-08
-8.71544e-10
4.89232e-08
-9.62259e-10
4.88824e-08
-1.05525e-09
4.88486e-08
-1.15095e-09
4.88236e-08
-1.25017e-09
4.88088e-08
-1.35388e-09
4.88056e-08
-1.46303e-09
4.8815e-08
-1.57814e-09
4.88385e-08
-1.69909e-09
4.88773e-08
-1.82468e-09
4.89333e-08
-1.9524e-09
4.90092e-08
-2.07839e-09
4.91082e-08
-2.19813e-09
4.92346e-08
-2.30859e-09
4.93919e-08
-2.41295e-09
4.958e-08
-2.5312e-09
4.97628e-08
-2.3508e-09
4.99149e-08
-2.13337e-09
5.00252e-08
-1.99506e-09
5.00874e-08
-1.8999e-09
5.00998e-08
-1.81756e-09
5.00648e-08
-1.72518e-09
4.99879e-08
-1.60741e-09
4.98773e-08
-1.45567e-09
4.97433e-08
-1.26716e-09
4.95974e-08
-1.04393e-09
4.94517e-08
-7.91809e-10
4.93182e-08
-5.19398e-10
4.9208e-08
-2.37097e-10
4.91306e-08
4.38311e-11
4.90931e-08
3.12258e-10
4.90993e-08
5.57988e-10
4.91497e-08
7.72465e-10
4.9241e-08
9.49453e-10
4.93663e-08
1.0855e-09
4.95162e-08
1.18014e-09
4.96796e-08
1.23578e-09
4.98456e-08
1.25719e-09
1.25071e-09
5.00047e-08
6.25328e-08
-3.84881e-10
6.25074e-08
-4.43161e-10
6.2476e-08
-5.0791e-10
6.24388e-08
-5.78814e-10
6.23965e-08
-6.5537e-10
6.23503e-08
-7.36982e-10
6.23019e-08
-8.23075e-10
6.22529e-08
-9.13249e-10
6.2205e-08
-1.00741e-09
6.21599e-08
-1.1058e-09
6.21187e-08
-1.20897e-09
6.20825e-08
-1.31768e-09
6.20521e-08
-1.43267e-09
6.20284e-08
-1.55444e-09
6.20123e-08
-1.68298e-09
6.2005e-08
-1.8174e-09
6.20083e-08
-1.95573e-09
6.20248e-08
-2.09488e-09
6.20579e-08
-2.23117e-09
6.21114e-08
-2.36214e-09
6.21888e-08
-2.49036e-09
6.2289e-08
-2.63141e-09
6.23891e-08
-2.45091e-09
6.24681e-08
-2.21236e-09
6.25142e-08
-2.04109e-09
6.25206e-08
-1.90638e-09
6.24859e-08
-1.78285e-09
6.24125e-08
-1.65177e-09
6.23062e-08
-1.50112e-09
6.21754e-08
-1.32479e-09
6.20299e-08
-1.12171e-09
6.18808e-08
-8.94819e-10
6.1739e-08
-6.5003e-10
6.16149e-08
-3.95262e-10
6.15173e-08
-1.39482e-10
6.14529e-08
1.08153e-10
6.14261e-08
3.3914e-10
6.14378e-08
5.46201e-10
6.14865e-08
7.23794e-10
6.15675e-08
8.6847e-10
6.1674e-08
9.79014e-10
6.17978e-08
1.05637e-09
6.19302e-08
1.10332e-09
6.20634e-08
1.12404e-09
1.12344e-09
6.21906e-08
7.84838e-08
-3.67639e-10
7.84622e-08
-4.21486e-10
7.84356e-08
-4.81331e-10
7.84039e-08
-5.47174e-10
7.83675e-08
-6.18895e-10
7.83268e-08
-6.9629e-10
7.82828e-08
-7.79109e-10
7.82367e-08
-8.67155e-10
7.81897e-08
-9.6038e-10
7.81428e-08
-1.05895e-09
7.80971e-08
-1.16322e-09
7.80531e-08
-1.27371e-09
7.80114e-08
-1.39095e-09
7.79723e-08
-1.51534e-09
7.79362e-08
-1.64686e-09
7.79036e-08
-1.78487e-09
7.78758e-08
-1.92785e-09
7.78543e-08
-2.07341e-09
7.78418e-08
-2.21865e-09
7.78412e-08
-2.36155e-09
7.78547e-08
-2.50384e-09
7.78799e-08
-2.65669e-09
7.79057e-08
-2.4767e-09
7.79165e-08
-2.22312e-09
7.79012e-08
-2.02579e-09
7.7854e-08
-1.85924e-09
7.77741e-08
-1.70289e-09
7.76644e-08
-1.54206e-09
7.7531e-08
-1.36776e-09
7.73822e-08
-1.17603e-09
7.72275e-08
-9.67027e-10
7.70768e-08
-7.44053e-10
7.69393e-08
-5.12584e-10
7.68234e-08
-2.79366e-10
7.67356e-08