/*--------------------------------*- C++ -*----------------------------------*\
| =========                 |                                                 |
| \\      /  F ield         | OpenFOAM: The Open Source CFD Toolbox           |
|  \\    /   O peration     | Version:  2312                                  |
|   \\  /    A nd           | Website:  www.openfoam.com                      |
|    \\/     M anipulation  |                                                 |
\*---------------------------------------------------------------------------*/
FoamFile
{
    version     2.0;
    format      ascii;
    arch        "LSB;label=32;scalar=64";
    class       volVectorField;
    location    "200";
    object      U;
}
// * * * * * * * * * * * * * * * * * * * * * * * * * * * * * * * * * * * * * //

dimensions      [0 1 -1 0 0 0 0];

internalField   nonuniform List<vector> 
4800
(
(0.000375706 1.29675e-07 -2.94906e-26)
(0.000370127 1.80997e-07 -2.08694e-25)
(0.000367072 2.17885e-07 2.67198e-25)
(0.000365695 2.38642e-07 1.23575e-25)
(0.000365573 2.45674e-07 1.83676e-24)
(0.000366418 2.37974e-07 -4.37821e-24)
(0.000368079 2.12852e-07 4.10171e-24)
(0.000370509 1.65082e-07 -5.95496e-24)
(0.000373759 8.34235e-08 1.89211e-24)
(0.00037804 -6.25349e-08 6.47863e-24)
(0.000383974 -3.83593e-07 -1.97519e-24)
(0.000393348 -1.30124e-06 -1.53171e-25)
(0.000411328 -4.11449e-06 -2.38649e-24)
(0.000457239 -1.82557e-05 1.07805e-24)
(0.000530749 -9.31334e-05 -8.35169e-25)
(0.00116189 1.2618e-06 -1.21045e-25)
(0.00114451 8.57004e-07 1.50497e-25)
(0.00113477 5.40486e-07 -1.39614e-24)
(0.00113007 2.40904e-07 1.03569e-24)
(0.0011291 -7.14658e-08 3.34894e-24)
(0.00113097 -4.24542e-07 -5.32494e-24)
(0.00113521 -8.59534e-07 -1.52843e-24)
(0.00114165 -1.43955e-06 -3.73644e-25)
(0.00115039 -2.2827e-06 1.21392e-23)
(0.00116196 -3.67079e-06 -8.81563e-24)
(0.00117771 -6.42595e-06 9.36653e-25)
(0.00120072 -1.30424e-05 1.39558e-24)
(0.00123751 -3.00791e-05 -2.00338e-24)
(0.00130138 -7.32091e-05 -5.90253e-25)
(0.00137329 -0.000175248 2.40297e-24)
(0.00203116 4.06903e-06 -9.69142e-26)
(0.00200072 2.74381e-06 9.85108e-26)
(0.00198334 1.71361e-06 1.01603e-24)
(0.00197454 7.66977e-07 -2.41151e-24)
(0.00197201 -1.97533e-07 2.35516e-24)
(0.00197422 -1.26467e-06 2.21598e-24)
(0.00198035 -2.55248e-06 -5.66226e-24)
(0.00199 -4.23859e-06 -3.46854e-24)
(0.00200325 -6.64046e-06 8.09774e-24)
(0.00202069 -1.04383e-05 2.99045e-24)
(0.00204372 -1.72874e-05 -1.0037e-23)
(0.00207479 -3.11918e-05 -1.48158e-24)
(0.00211681 -6.0403e-05 3.92767e-24)
(0.0021708 -0.000118036 5.94131e-24)
(0.00221447 -0.000215277 -2.9309e-24)
(0.00298889 9.1528e-06 4.03538e-26)
(0.00294422 6.25788e-06 -2.79372e-25)
(0.00291823 4.00931e-06 1.24034e-24)
(0.00290446 1.97584e-06 1.3263e-24)
(0.00289949 -6.94153e-08 -1.28438e-24)
(0.00290116 -2.30383e-06 -7.4017e-24)
(0.00290817 -4.95902e-06 -4.99347e-24)
(0.00291986 -8.37186e-06 1.81197e-23)
(0.00293608 -1.31086e-05 7.31681e-24)
(0.00295715 -2.02553e-05 -1.00557e-23)
(0.0029838 -3.20471e-05 -3.88283e-24)
(0.00301664 -5.28496e-05 -2.82653e-24)
(0.00305449 -8.95245e-05 7.18711e-26)
(0.0030918 -0.000148591 1.85695e-24)
(0.00311262 -0.000227892 8.6471e-27)
(0.00403896 1.71465e-05 -8.38161e-26)
(0.00397927 1.18853e-05 -5.07922e-25)
(0.0039438 7.79696e-06 -3.22527e-25)
(0.00392417 4.15319e-06 8.4334e-25)
(0.00391582 5.4178e-07 -2.37675e-24)
(0.00391587 -3.34435e-06 5.77974e-24)
(0.00392255 -7.87378e-06 -9.78089e-25)
(0.00393479 -1.35531e-05 3.37613e-24)
(0.00395205 -2.11653e-05 -1.79211e-23)
(0.00397408 -3.20305e-05 3.23864e-23)
(0.00400057 -4.84213e-05 -2.96074e-23)
(0.00403034 -7.38798e-05 1.4697e-23)
(0.00405993 -0.000112464 -1.27805e-23)
(0.00408278 -0.000165535 1.12626e-23)
(0.00409008 -0.000227105 -4.24865e-24)
(0.00518256 2.87648e-05 1.25404e-25)
(0.0051079 2.02284e-05 4.42424e-25)
(0.00506251 1.3582e-05 -2.29242e-24)
(0.00503633 7.73687e-06 -1.43369e-24)
(0.0050237 2.03818e-06 3.70203e-24)
(0.00502105 -3.98508e-06 1.29185e-24)
(0.00502606 -1.08434e-05 -9.70632e-24)
(0.00503721 -1.91835e-05 2.20776e-23)
(0.00505344 -2.99017e-05 -2.71812e-23)
(0.00507382 -4.42958e-05 6.08482e-24)
(0.00509709 -6.4185e-05 1.74293e-23)
(0.005121 -9.17249e-05 -2.25309e-23)
(0.00514177 -0.000128406 1.04273e-23)
(0.00515436 -0.000173019 9.97795e-24)
(0.00515483 -0.000220091 -7.14573e-24)
(0.00641656 4.46636e-05 1.16895e-25)
(0.0063285 3.19069e-05 -6.75274e-25)
(0.00627364 2.19337e-05 2.3581e-24)
(0.00624073 1.32598e-05 -3.16661e-24)
(0.00622324 4.94777e-06 -1.04056e-23)
(0.00621696 -3.66195e-06 1.68838e-23)
(0.00621908 -1.32074e-05 -9.73573e-24)
(0.0062276 -2.44126e-05 3.12209e-23)
(0.00624093 -3.8153e-05 -1.9745e-23)
(0.00625755 -5.54783e-05 -8.58881e-24)
(0.00627562 -7.75165e-05 -1.56836e-23)
(0.00629266 -0.000105116 1.32119e-23)
(0.00630558 -0.000138133 3.42692e-24)
(0.00631131 -0.000174602 2.72226e-24)
(0.00630859 -0.000210649 -2.2477e-24)
(0.00773131 6.51568e-05 -1.88018e-25)
(0.00763389 4.73554e-05 2.47067e-24)
(0.00757152 3.33375e-05 -5.54077e-24)
(0.00753271 2.12381e-05 -4.37788e-24)
(0.00751044 9.83377e-06 1.50976e-24)
(0.00750011 -1.72709e-06 2.84539e-24)
(0.00749852 -1.41787e-05 9.64865e-24)
(0.00750327 -2.82467e-05 -2.44425e-23)
(0.00751236 -4.46668e-05 -1.21365e-23)
(0.00752392 -6.41228e-05 3.03076e-23)
(0.00753593 -8.70761e-05 -8.66467e-24)
(0.00754622 -0.00011348 2.702e-23)
(0.00755268 -0.000142468 -1.30027e-23)
(0.00755372 -0.000172222 -3.82924e-24)
(0.00754931 -0.000200305 2.12934e-24)
(0.00910874 8.97639e-05 -2.73302e-26)
(0.00900924 6.64797e-05 1.48403e-24)
(0.00894355 4.79316e-05 -2.00619e-24)
(0.00890119 3.1963e-05 4.56787e-24)
(0.00887538 1.712e-05 -2.55515e-23)
(0.00886147 2.39158e-06 2.50375e-23)
(0.00885609 -1.30079e-05 -3.65618e-23)
(0.00885666 -2.97382e-05 2.046e-23)
(0.008861 -4.83299e-05 1.39344e-23)
(0.00886714 -6.91043e-05 2.76724e-23)
(0.00887323 -9.20424e-05 -3.27756e-23)
(0.0088776 -0.000116658 -5.57419e-24)
(0.00887897 -0.00014196 2.28441e-24)
(0.00887663 -0.00016659 1.53275e-23)
(0.00887104 -0.000189122 -5.86412e-24)
(0.0105222 0.000116639 1.61389e-25)
(0.0104312 8.81667e-05 -6.62082e-25)
(0.0103688 6.50915e-05 2.78645e-24)
(0.0103272 4.51488e-05 -9.11719e-24)
(0.0103006 2.67822e-05 1.27801e-23)
(0.0102848 8.90233e-06 -1.51887e-23)
(0.0102766 -9.26951e-06 2.32117e-23)
(0.0102736 -2.82825e-05 3.76508e-24)
(0.0102737 -4.84588e-05 -2.62671e-23)
(0.0102751 -6.98472e-05 3.39156e-23)
(0.0102762 -9.21771e-05 -3.38105e-23)
(0.0102759 -0.000114859 -9.11406e-24)
(0.0102736 -0.000137073 1.45538e-23)
(0.0102688 -0.000157932 3.98155e-24)
(0.0102623 -0.000176655 -1.63894e-24)
(0.0119414 0.000142229 6.75938e-25)
(0.0118703 0.000109853 -5.35174e-24)
(0.0118195 8.29818e-05 -8.04265e-24)
(0.0117844 5.95017e-05 1.74084e-23)
(0.011761 3.79413e-05 7.17316e-24)
(0.0117462 1.72576e-05 -4.08106e-23)
(0.0117375 -3.24913e-06 1.12536e-23)
(0.0117326 -2.39957e-05 7.30465e-24)
(0.01173 -4.51367e-05 -2.88358e-23)
(0.0117281 -6.65702e-05 2.68472e-23)
(0.0117259 -8.79609e-05 -1.96195e-23)
(0.0117226 -0.000108805 4.55089e-23)
(0.011718 -0.000128536 -2.00204e-23)
(0.0117119 -0.000146646 1.08538e-23)
(0.0117049 -0.000162743 -2.80063e-24)
(0.0133437 0.000161985 -2.51458e-25)
(0.0133001 0.000127753 3.65877e-24)
(0.0132674 9.85169e-05 -6.58753e-24)
(0.0132442 7.25403e-05 -3.09105e-24)
(0.0132283 4.86102e-05 3.10259e-23)
(0.013218 2.58611e-05 -3.93849e-24)
(0.0132114 3.74219e-06 -4.47075e-23)
(0.0132071 -1.80258e-05 4.6768e-23)
(0.0132039 -3.94868e-05 -9.34892e-24)
(0.0132008 -6.04914e-05 -2.9394e-23)
(0.0131973 -8.07525e-05 2.83577e-23)
(0.0131929 -9.99205e-05 1.40028e-23)
(0.0131876 -0.000117665 -1.06375e-23)
(0.0131812 -0.000133739 -1.71507e-23)
(0.0131745 -0.000147982 1.36671e-24)
(0.0147273 0.000172822 -1.91975e-26)
(0.0147096 0.000138545 -4.0244e-24)
(0.014696 0.000108496 1.75936e-23)
(0.0146864 8.13395e-05 1.1416e-24)
(0.0146801 5.61757e-05 8.31711e-24)
(0.0146763 3.23757e-05 -2.6219e-23)
(0.0146738 9.5646e-06 2.01643e-23)
(0.0146721 -1.24148e-05 4.2009e-24)
(0.0146703 -3.35494e-05 3.34329e-23)
(0.0146681 -5.37071e-05 -4.61666e-23)
(0.0146651 -7.26941e-05 -1.90048e-23)
(0.0146612 -9.03129e-05 -1.15355e-23)
(0.0146565 -0.00010641 1.98225e-23)
(0.0146511 -0.000120907 -5.37656e-25)
(0.0146454 -0.000133769 1.70128e-24)
(0.0161094 0.000175731 -7.48546e-26)
(0.0161077 0.000142006 3.94463e-24)
(0.0161071 0.000111966 -5.15311e-24)
(0.0161077 8.45502e-05 -1.60967e-26)
(0.0161091 5.9092e-05 5.67386e-24)
(0.0161108 3.51498e-05 1.29882e-23)
(0.0161123 1.24785e-05 -4.48679e-23)
(0.0161134 -9.00844e-06 3.25707e-24)
(0.0161137 -2.92906e-05 1.83044e-23)
(0.0161131 -4.82885e-05 -7.69445e-24)
(0.0161114 -6.59065e-05 1.89982e-23)
(0.0161089 -8.20683e-05 1.22658e-23)
(0.0161055 -9.67396e-05 -2.0454e-23)
(0.0161015 -0.000109939 1.30978e-23)
(0.0160972 -0.000121702 -1.03855e-23)
(0.0174991 0.000174647 -2.1298e-24)
(0.0175033 0.000141265 1.21617e-24)
(0.0175077 0.000111297 5.80123e-24)
(0.0175125 8.39021e-05 -2.76042e-23)
(0.017517 5.85631e-05 2.16416e-23)
(0.0175211 3.49454e-05 -1.43729e-23)
(0.0175244 1.28601e-05 9.12328e-24)
(0.0175267 -7.77255e-06 -5.89853e-23)
(0.017528 -2.69685e-05 7.6443e-23)
(0.0175283 -4.47178e-05 -4.10597e-23)
(0.0175276 -6.10129e-05 3.34655e-23)
(0.017526 -7.58666e-05 2.59694e-23)
(0.0175237 -8.932e-05 -4.20227e-23)
(0.0175207 -0.000101447 1.2813e-23)
(0.0175176 -0.000112315 -5.17869e-25)
(0.0188693 0.000172281 -7.23985e-26)
(0.018875 0.000139342 5.17885e-26)
(0.0188804 0.000109572 -1.96047e-25)
(0.0188855 8.23763e-05 -7.20222e-25)
(0.01889 5.73679e-05 8.33697e-24)
(0.0188938 3.42801e-05 -1.28484e-23)
(0.0188967 1.29397e-05 1.08056e-23)
(0.0188986 -6.75882e-06 -3.10499e-23)
(0.0188996 -2.48842e-05 6.41286e-23)
(0.0188996 -4.14939e-05 -7.50866e-23)
(0.0188988 -5.66489e-05 5.6685e-23)
(0.0188973 -7.04227e-05 -1.77406e-23)
(0.0188953 -8.2902e-05 8.86736e-25)
(0.0188927 -9.41889e-05 3.6554e-24)
(0.01889 -0.000104367 -6.69346e-24)
(0.0201554 0.000168536 -5.71289e-24)
(0.0201628 0.000136685 9.70451e-24)
(0.0201687 0.000107679 -3.57275e-24)
(0.0201737 8.11693e-05 -3.07209e-24)
(0.0201777 5.68896e-05 1.19811e-23)
(0.0201807 3.46272e-05 -1.10563e-23)
(0.0201827 1.42167e-05 -9.29234e-24)
(0.0201838 -4.47248e-06 -2.0569e-23)
(0.020184 -2.15518e-05 9.25281e-24)
(0.0201834 -3.71265e-05 4.1934e-23)
(0.0201822 -5.13017e-05 -2.05298e-23)
(0.0201804 -6.41851e-05 1.15789e-23)
(0.0201781 -7.5886e-05 -4.41044e-24)
(0.0201754 -8.65182e-05 -1.26739e-23)
(0.0201727 -9.61673e-05 6.28482e-24)
(0.0212718 0.000162272 1.78229e-24)
(0.0212813 0.000132314 -2.78685e-24)
(0.0212885 0.000104826 -1.62053e-24)
(0.0212939 7.96629e-05 6.10099e-25)
(0.021298 5.66526e-05 -3.84249e-24)
(0.0213008 3.56242e-05 1.52652e-23)
(0.0213024 1.64223e-05 -1.14467e-23)
(0.0213031 -1.0955e-06 -7.07009e-24)
(0.0213029 -1.70632e-05 5.84375e-24)
(0.021302 -3.16099e-05 -6.64341e-24)
(0.0213005 -4.48601e-05 1.43517e-23)
(0.0212985 -5.69347e-05 7.01975e-24)
(0.0212961 -6.79479e-05 -2.46772e-23)
(0.0212934 -7.80134e-05 1.63289e-23)
(0.0212905 -8.72109e-05 -3.25512e-24)
(0.022117 0.00015282 5.00735e-24)
(0.0221283 0.00012547 7.94414e-24)
(0.0221367 0.000100208 -1.54929e-23)
(0.0221429 7.70279e-05 -1.72796e-24)
(0.0221473 5.58169e-05 4.21781e-24)
(0.0221503 3.64343e-05 -3.99127e-24)
(0.022152 1.87394e-05 -7.00756e-24)
(0.0221527 2.59233e-06 1.28451e-23)
(0.0221525 -1.21447e-05 1.44299e-23)
(0.0221516 -2.56042e-05 -3.28449e-23)
(0.0221501 -3.7911e-05 1.79975e-23)
(0.0221482 -4.91826e-05 -1.20519e-24)
(0.0221458 -5.95262e-05 -9.88708e-25)
(0.0221431 -6.90464e-05 1.2907e-24)
(0.0221403 -7.78111e-05 -5.83962e-25)
(0.0225622 0.0001401 -1.25484e-23)
(0.0225746 0.000115949 -2.46925e-23)
(0.0225838 9.35125e-05 1.09966e-23)
(0.0225906 7.28577e-05 3.7279e-23)
(0.0225954 5.39014e-05 -9.58035e-24)
(0.0225987 3.65266e-05 -3.06716e-24)
(0.0226006 2.06125e-05 1.49143e-24)
(0.0226014 6.03442e-06 -5.02687e-24)
(0.0226014 -7.33387e-06 1.40798e-23)
(0.0226006 -1.96138e-05 -6.00177e-24)
(0.0225992 -3.09182e-05 4.05638e-24)
(0.0225974 -4.13505e-05 -5.86833e-24)
(0.0225951 -5.10034e-05 -6.8283e-24)
(0.0225925 -5.99659e-05 9.9828e-24)
(0.0225897 -6.82904e-05 -4.31221e-24)
(0.0224404 0.000124893 1.91056e-23)
(0.0224532 0.00010431 -3.93323e-23)
(0.0224627 8.50873e-05 5.68558e-24)
(0.0224698 6.73053e-05 4.76986e-23)
(0.0224749 5.08942e-05 -4.25791e-23)
(0.0224782 3.57591e-05 1.38711e-23)
(0.0224803 2.18036e-05 8.78974e-24)
(0.0224812 8.92487e-06 -1.85377e-23)
(0.0224813 -2.98238e-06 3.66795e-24)
(0.0224806 -1.402e-05 2.29862e-24)
(0.0224793 -2.42821e-05 -1.2928e-24)
(0.0224775 -3.38543e-05 2.904e-24)
(0.0224753 -4.28116e-05 -3.51039e-24)
(0.0224728 -5.12253e-05 2.37549e-24)
(0.0224699 -5.9137e-05 -1.09224e-24)
(0.021759 0.000109327 1.14961e-23)
(0.0217718 9.22065e-05 -2.18753e-23)
(0.0217816 7.61237e-05 -1.38271e-23)
(0.021789 6.1139e-05 5.95541e-23)
(0.0217943 4.71944e-05 -5.05201e-23)
(0.021798 3.422e-05 5.04794e-24)
(0.0218003 2.21441e-05 7.35383e-24)
(0.0218016 1.08868e-05 3.67448e-24)
(0.0218019 3.65741e-07 2.5684e-24)
(0.0218015 -9.4981e-06 -1.06806e-23)
(0.0218005 -1.87773e-05 6.65439e-24)
(0.0217989 -2.75372e-05 1.22696e-24)
(0.0217969 -3.58353e-05 -3.77287e-24)
(0.0217946 -4.37246e-05 1.93254e-24)
(0.0217918 -5.12399e-05 1.0542e-24)
(0.0206949 9.49176e-05 2.817e-23)
(0.0207077 8.07672e-05 -4.55178e-23)
(0.0207177 6.73832e-05 8.5812e-24)
(0.0207254 5.48003e-05 -1.87273e-23)
(0.0207312 4.2976e-05 -2.23662e-23)
(0.0207353 3.18651e-05 7.15447e-23)
(0.020738 2.14181e-05 -2.59311e-23)
(0.0207398 1.15762e-05 6.7594e-24)
(0.0207405 2.27758e-06 -3.47947e-24)
(0.0207406 -6.53528e-06 -7.1736e-24)
(0.0207399 -1.49146e-05 1.21993e-23)
(0.0207387 -2.29069e-05 -5.18186e-24)
(0.020737 -3.05539e-05 9.26831e-25)
(0.0207348 -3.78929e-05 -1.97759e-25)
(0.0207322 -4.49507e-05 1.18065e-25)
(0.0193768 8.15996e-05 1.08243e-23)
(0.0193895 6.99445e-05 -5.13609e-23)
(0.0193998 5.88403e-05 8.26243e-23)
(0.0194078 4.82968e-05 -5.87715e-23)
(0.019414 3.82865e-05 5.47187e-23)
(0.0194186 2.8786e-05 -1.7384e-23)
(0.0194219 1.97643e-05 -1.13042e-23)
(0.0194241 1.11799e-05 -1.14165e-23)
(0.0194254 2.98909e-06 1.83148e-23)
(0.0194258 -4.84801e-06 -1.57536e-24)
(0.0194256 -1.2367e-05 -1.52575e-23)
(0.0194247 -1.95996e-05 -1.23293e-24)
(0.0194233 -2.65749e-05 2.24892e-24)
(0.0194213 -3.33178e-05 -2.33262e-25)
(0.0194188 -3.98477e-05 -8.55022e-27)
(0.0179016 6.93342e-05 1.44985e-24)
(0.0179144 5.97706e-05 -1.96243e-23)
(0.0179249 5.05866e-05 -1.01321e-23)
(0.0179334 4.1771e-05 7.85799e-23)
(0.01794 3.33115e-05 -7.29649e-23)
(0.0179451 2.52046e-05 2.02639e-23)
(0.017949 1.74345e-05 3.22623e-24)
(0.0179517 9.97378e-06 -1.59472e-24)
(0.0179535 2.79354e-06 -6.93033e-24)
(0.0179544 -4.13162e-06 2.8332e-23)
(0.0179546 -1.08242e-05 -2.16608e-23)
(0.0179541 -1.73046e-05 -6.41845e-25)
(0.0179529 -2.35916e-05 1.51086e-24)
(0.0179511 -2.97011e-05 5.63026e-25)
(0.0179487 -3.56462e-05 -3.49981e-25)
(0.0163442 5.79912e-05 2.18221e-24)
(0.0163571 5.0176e-05 1.85991e-23)
(0.0163679 4.26059e-05 -2.02183e-23)
(0.0163768 3.52548e-05 -1.31405e-23)
(0.016384 2.8127e-05 7.93863e-23)
(0.0163896 2.12359e-05 -5.8387e-23)
(0.016394 1.45775e-05 -1.37317e-24)
(0.0163973 8.13497e-06 -1.09186e-23)
(0.0163995 1.89098e-06 -7.03195e-25)
(0.0164009 -4.16877e-06 1.56032e-24)
(0.0164014 -1.00571e-05 -4.53912e-24)
(0.0164012 -1.57862e-05 4.1468e-24)
(0.0164002 -2.13674e-05 1.53338e-24)
(0.0163986 -2.68101e-05 1.17395e-24)
(0.0163962 -3.21229e-05 6.4013e-25)
(0.0147617 4.7484e-05 1.57433e-23)
(0.0147748 4.11417e-05 -2.28378e-23)
(0.0147859 3.49405e-05 -1.72891e-23)
(0.0147951 2.88461e-05 5.0514e-23)
(0.0148026 2.28793e-05 -1.74438e-23)
(0.0148087 1.7067e-05 -2.32812e-23)
(0.0148135 1.14134e-05 7.96821e-24)
(0.0148172 5.90932e-06 1.67458e-23)
(0.0148198 5.4617e-07 -2.54953e-23)
(0.0148214 -4.68223e-06 2.42028e-23)
(0.0148222 -9.78207e-06 -1.22339e-23)
(0.0148221 -1.47595e-05 4.83343e-24)
(0.0148211 -1.96212e-05 -5.28791e-24)
(0.0148195 -2.43717e-05 4.68307e-24)
(0.014817 -2.90169e-05 -8.85126e-25)
(0.0131966 3.7858e-05 -3.08351e-24)
(0.0132096 3.27724e-05 -1.01676e-23)
(0.0132207 2.77476e-05 -3.09379e-23)
(0.01323 2.27481e-05 8.33845e-23)
(0.0132377 1.78102e-05 -1.46439e-23)
(0.0132439 1.29707e-05 -2.19391e-23)
(0.0132489 8.23855e-06 7.20673e-24)
(0.0132526 3.61013e-06 -1.02788e-23)
(0.0132553 -9.16707e-07 -2.09673e-23)
(0.013257 -5.34274e-06 1.99395e-23)
(0.0132576 -9.66975e-06 9.37937e-25)
(0.0132574 -1.39001e-05 -5.30024e-24)
(0.0132562 -1.80371e-05 6.02392e-24)
(0.0132542 -2.20828e-05 2.37154e-25)
(0.0132514 -2.6041e-05 -3.19772e-25)
(0.0116783 2.92753e-05 1.18893e-23)
(0.0116908 2.52721e-05 1.67253e-23)
(0.0117015 2.12676e-05 -1.52491e-23)
(0.0117105 1.7231e-05 -3.18861e-23)
(0.0117179 1.32129e-05 4.15559e-23)
(0.0117239 9.25609e-06 -4.41522e-23)
(0.0117287 5.37155e-06 -1.40222e-24)
(0.0117322 1.55988e-06 1.63298e-23)
(0.0117346 -2.17679e-06 5.49586e-24)
(0.0117359 -5.83603e-06 -1.06578e-23)
(0.0117362 -9.41697e-06 4.47341e-25)
(0.0117355 -1.29197e-05 1.99421e-23)
(0.0117339 -1.63456e-05 -7.50714e-24)
(0.0117313 -1.96954e-05 -1.67492e-24)
(0.0117278 -2.29722e-05 -8.37251e-26)
(0.010226 2.19155e-05 -1.22388e-23)
(0.0102374 1.8841e-05 1.52988e-23)
(0.0102473 1.57172e-05 1.64592e-24)
(0.0102556 1.25236e-05 2.90463e-23)
(0.0102624 9.32287e-06 -2.33321e-23)
(0.0102679 6.15976e-06 1.69599e-24)
(0.010272 3.04575e-06 -2.49068e-24)
(0.010275 -1.58254e-08 -6.84651e-24)
(0.0102768 -3.0203e-06 5.62296e-24)
(0.0102775 -5.9638e-06 -1.79292e-23)
(0.0102772 -8.84421e-06 1.51743e-24)
(0.0102758 -1.16605e-05 4.20667e-24)
(0.0102735 -1.44133e-05 2.45114e-24)
(0.0102702 -1.71027e-05 8.76874e-25)
(0.0102659 -1.9732e-05 2.47808e-25)
(0.00885133 1.58733e-05 8.85581e-24)
(0.00886149 1.35801e-05 -6.86727e-24)
(0.00887024 1.12022e-05 -2.93016e-23)
(0.00887752 8.73395e-06 2.7053e-23)
(0.0088834 6.24673e-06 3.67465e-23)
(0.00888799 3.78354e-06 -9.44273e-24)
(0.00889136 1.35493e-06 -1.84928e-23)
(0.00889356 -1.03448e-06 -2.50617e-23)
(0.00889463 -3.3793e-06 1.86132e-23)
(0.00889461 -5.67545e-06 9.81043e-25)
(0.00889354 -7.92058e-06 -3.94116e-24)
(0.00889145 -1.01135e-05 -9.45332e-25)
(0.00888836 -1.22544e-05 1.96209e-24)
(0.00888432 -1.43437e-05 -1.17657e-25)
(0.0088793 -1.63849e-05 -2.96727e-25)
(0.00756128 1.11188e-05 -5.35515e-24)
(0.00756995 9.46242e-06 -3.71581e-24)
(0.00757738 7.69939e-06 4.5185e-24)
(0.00758349 5.84116e-06 -1.39017e-23)
(0.00758833 3.96302e-06 4.50605e-23)
(0.00759197 2.10237e-06 -5.87781e-23)
(0.00759445 2.67491e-07 5.67612e-23)
(0.00759581 -1.53711e-06 -2.37498e-23)
(0.0075961 -3.30665e-06 5.19686e-24)
(0.00759534 -5.03764e-06 -6.48157e-26)
(0.00759357 -6.72807e-06 -3.99455e-24)
(0.00759081 -8.37691e-06 1.12485e-24)
(0.0075871 -9.9844e-06 -2.74959e-24)
(0.00758245 -1.15513e-05 -3.05077e-25)
(0.00757688 -1.30814e-05 1.40605e-25)
(0.00635928 7.51894e-06 -2.45743e-24)
(0.00636642 6.36248e-06 6.31151e-25)
(0.00637252 5.09248e-06 1.3388e-24)
(0.00637745 3.73618e-06 -6.08085e-24)
(0.00638124 2.36591e-06 -2.66174e-24)
(0.00638393 1.01035e-06 2.31792e-23)
(0.00638556 -3.25297e-07 -1.35167e-23)
(0.00638616 -1.63752e-06 1.87795e-24)
(0.00638575 -2.92272e-06 -1.82267e-24)
(0.00638438 -4.1783e-06 -1.88315e-24)
(0.00638206 -5.40273e-06 -4.752e-25)
(0.00637883 -6.59529e-06 3.3469e-24)
(0.00637471 -7.75629e-06 6.38726e-25)
(0.00636972 -8.88669e-06 -1.80586e-24)
(0.00636388 -9.99057e-06 -2.29976e-25)
(0.00524634 4.88539e-06 -8.30483e-25)
(0.00525205 4.10712e-06 -2.68169e-25)
(0.00525689 3.2234e-06 -1.30861e-23)
(0.00526072 2.27151e-06 3.5085e-24)
(0.00526354 1.31388e-06 -9.13924e-24)
(0.00526539 3.69089e-07 6.53324e-24)
(0.00526629 -5.60567e-07 1.20393e-23)
(0.00526627 -1.47276e-06 8.80203e-24)
(0.00526535 -2.36503e-06 -1.21944e-23)
(0.00526356 -3.23561e-06 3.66463e-24)
(0.00526092 -4.08342e-06 2.95914e-24)
(0.00525746 -4.90802e-06 -4.03453e-24)
(0.00525321 -5.70973e-06 2.1356e-24)
(0.00524818 -6.48953e-06 -6.97254e-26)
(0.00524239 -7.25133e-06 4.12215e-25)
(0.00422159 3.01973e-06 -2.98291e-24)
(0.00422602 2.51809e-06 -4.03979e-24)
(0.00422974 1.931e-06 -6.95307e-25)
(0.00423259 1.29726e-06 9.94765e-24)
(0.00423459 6.64448e-07 -6.9574e-24)
(0.00423574 4.20051e-08 -1.29449e-24)
(0.00423608 -5.69651e-07 1.09912e-23)
(0.00423562 -1.16914e-06 -3.3917e-26)
(0.00423439 -1.75488e-06 -2.22241e-24)
(0.00423241 -2.32575e-06 -7.69604e-24)
(0.0042297 -2.88102e-06 9.93727e-25)
(0.00422629 -3.42044e-06 5.01289e-24)
(0.00422219 -3.94426e-06 -6.35937e-25)
(0.00421742 -4.45332e-06 -5.43853e-25)
(0.004212 -4.95091e-06 3.38652e-25)
(0.00328267 1.7418e-06 -5.92359e-25)
(0.00328598 1.43577e-06 3.73672e-26)
(0.00328873 1.07088e-06 4.37385e-24)
(0.00329076 6.79061e-07 2.88161e-24)
(0.00329208 2.91582e-07 -2.02968e-24)
(0.00329271 -8.85231e-08 -4.89954e-24)
(0.00329267 -4.61635e-07 1.9464e-24)
(0.00329197 -8.26988e-07 -8.0775e-24)
(0.00329064 -1.18365e-06 6.19985e-24)
(0.00328869 -1.53093e-06 3.04833e-24)
(0.00328614 -1.86836e-06 -1.17028e-25)
(0.00328301 -2.1958e-06 -3.18812e-24)
(0.00327931 -2.51346e-06 5.32975e-25)
(0.00327507 -2.82186e-06 -3.52008e-25)
(0.00327029 -3.1234e-06 1.60369e-25)
(0.00242609 9.0211e-07 -9.86333e-25)
(0.00242844 7.2816e-07 2.42931e-26)
(0.00243036 5.22614e-07 3.18161e-24)
(0.00243171 3.05187e-07 -1.98515e-24)
(0.00243252 9.2742e-08 8.05207e-24)
(0.00243278 -1.15e-07 -1.46084e-23)
(0.00243253 -3.18534e-07 1.17767e-23)
(0.00243177 -5.17499e-07 -9.70554e-24)
(0.00243052 -7.11422e-07 6.86531e-24)
(0.00242879 -8.99941e-07 -4.30949e-24)
(0.0024266 -1.08281e-06 1.46639e-24)
(0.00242395 -1.25998e-06 2.0428e-25)
(0.00242087 -1.4316e-06 2.81861e-25)
(0.00241737 -1.59793e-06 -3.35948e-25)
(0.00241345 -1.76027e-06 6.04132e-26)
(0.00164755 3.8662e-07 1.35303e-24)
(0.00164908 2.98869e-07 1.44934e-24)
(0.0016503 2.01271e-07 -6.19974e-24)
(0.00165111 1.00679e-07 4.51503e-24)
(0.00165153 3.75582e-09 -5.15392e-26)
(0.00165158 -9.06191e-08 1.12932e-24)
(0.00165126 -1.82745e-07 -1.40066e-24)
(0.00165059 -2.7249e-07 -2.84996e-24)
(0.00164956 -3.59664e-07 2.80178e-24)
(0.0016482 -4.44126e-07 2.6282e-25)
(0.00164651 -5.25787e-07 -2.11137e-24)
(0.00164451 -6.04646e-07 7.61703e-25)
(0.00164219 -6.80836e-07 4.11315e-25)
(0.00163958 -7.54388e-07 -5.1991e-26)
(0.00163668 -8.25615e-07 -3.68934e-26)
(0.000942217 1.18204e-07 -1.23855e-24)
(0.000943033 9.71063e-08 3.7754e-24)
(0.000943664 7.44627e-08 2.2239e-24)
(0.00094405 4.8916e-08 -4.02963e-24)
(0.000944211 2.22881e-08 -4.70711e-25)
(0.000944154 -5.66221e-09 -4.13222e-25)
(0.000943882 -3.463e-08 1.24092e-24)
(0.000943401 -6.42402e-08 -2.07714e-24)
(0.000942715 -9.41552e-08 2.77087e-24)
(0.000941831 -1.24097e-07 -1.35822e-24)
(0.000940754 -1.53847e-07 -8.38037e-25)
(0.00093949 -1.83238e-07 4.91504e-25)
(0.000938044 -2.12206e-07 -5.18581e-25)
(0.000936425 -2.40561e-07 4.98155e-25)
(0.000934632 -2.67859e-07 -7.27072e-26)
(0.00030497 3.9444e-08 -7.0224e-27)
(0.00030516 9.6561e-08 5.81771e-25)
(0.000305293 1.40761e-07 6.59102e-25)
(0.000305351 1.70476e-07 -1.03941e-24)
(0.00030534 1.87521e-07 2.12291e-24)
(0.000305262 1.93864e-07 -2.30382e-24)
(0.000305118 1.91248e-07 1.47806e-25)
(0.000304908 1.81204e-07 1.22164e-24)
(0.000304634 1.65064e-07 -1.68595e-24)
(0.000304296 1.43983e-07 -2.83675e-25)
(0.000303896 1.18952e-07 1.09257e-24)
(0.000303436 9.0838e-08 -4.73856e-25)
(0.000302917 6.0335e-08 -1.52568e-25)
(0.000302342 2.81604e-08 1.24045e-25)
(0.00030171 -4.76517e-09 -4.60197e-27)
(0.000774223 -0.000249942 9.23536e-26)
(0.000893132 -0.000187146 2.43618e-24)
(0.00108355 -0.000116401 -7.15136e-24)
(0.00128207 -5.84456e-05 1.06173e-23)
(0.0014754 -1.31712e-05 -4.03508e-24)
(0.0016654 2.08347e-05 -3.96849e-24)
(0.00185264 4.55693e-05 4.57035e-24)
(0.00203771 6.26921e-05 -9.13362e-24)
(0.00222124 7.35601e-05 5.80334e-25)
(0.00240378 7.93294e-05 5.84726e-24)
(0.00258578 8.10027e-05 -1.12367e-24)
(0.00276769 7.94786e-05 1.22214e-24)
(0.00294988 7.55967e-05 -1.1904e-25)
(0.00313281 7.01804e-05 7.72259e-25)
(0.00331699 6.40792e-05 -2.84741e-24)
(0.00350313 5.82014e-05 1.5662e-24)
(0.00369224 5.35235e-05 -4.88178e-25)
(0.00388578 5.10388e-05 3.87634e-26)
(0.00408588 5.15812e-05 1.1307e-24)
(0.00429538 5.54222e-05 -7.05376e-25)
(0.0045177 6.15079e-05 8.25838e-26)
(0.00475578 6.62649e-05 -7.098e-26)
(0.00499148 6.26868e-05 1.2553e-25)
(0.00519783 4.58888e-05 4.64448e-25)
(0.0053671 1.50433e-05 -8.33808e-25)
(0.00549915 -2.87751e-05 -5.41735e-25)
(0.00559424 -8.33885e-05 3.28086e-26)
(0.00565299 -0.000146015 1.29083e-24)
(0.00567609 -0.000213382 1.63703e-24)
(0.00566429 -0.000281675 -3.14647e-24)
(0.00561847 -0.000346526 2.24626e-24)
(0.00553969 -0.000403039 -1.71241e-24)
(0.00542933 -0.000445876 2.87932e-25)
(0.00528905 -0.00046933 -9.15079e-25)
(0.0051208 -0.00046732 8.6679e-25)
(0.00492671 -0.000433244 6.19459e-24)
(0.00470903 -0.000359597 -1.68114e-24)
(0.00447015 -0.000237362 1.54714e-24)
(0.00421257 -5.54683e-05 7.58412e-25)
(0.00393876 0.000198657 -8.75908e-24)
(0.00365031 0.000535272 -1.01769e-25)
(0.00334696 0.000951559 3.2493e-24)
(0.0030262 0.0014094 7.55766e-25)
(0.00269219 0.00179818 -4.0945e-24)
(0.0025266 0.00182885 -1.79944e-25)
(0.00144912 -0.000303692 -2.85026e-24)
(0.001497 -0.000280342 -4.16094e-24)
(0.00161431 -0.000217392 8.75757e-24)
(0.00176483 -0.000154863 4.22357e-24)
(0.00192731 -0.000101219 -1.50964e-23)
(0.00209582 -5.84059e-05 1.64847e-23)
(0.00226708 -2.55391e-05 -6.01371e-24)
(0.00243955 -1.14068e-06 4.88624e-24)
(0.00261265 1.61877e-05 -6.53538e-24)
(0.00278624 2.76959e-05 7.42969e-26)
(0.00296033 3.44817e-05 -3.55151e-24)
(0.00313508 3.75246e-05 7.10019e-24)
(0.00331069 3.77284e-05 -3.95904e-24)
(0.00348747 3.59644e-05 -3.59191e-24)
(0.00366581 3.3114e-05 -2.41079e-24)
(0.00384633 3.01012e-05 4.61653e-24)
(0.00402992 2.79026e-05 -5.53683e-25)
(0.00421789 2.74984e-05 2.42222e-24)
(0.00441218 2.9706e-05 3.64936e-25)
(0.00461543 3.47993e-05 -7.18946e-25)
(0.00483081 4.17974e-05 -2.88989e-25)
(0.00506112 4.73225e-05 -1.6073e-25)
(0.00528898 4.47064e-05 7.56114e-25)
(0.00548861 2.93987e-05 8.69899e-25)
(0.00565265 7.40969e-07 -8.09332e-25)
(0.00578103 -4.01305e-05 -3.66462e-24)
(0.00587392 -9.10149e-05 4.8084e-24)
(0.00593185 -0.000149113 -3.22462e-24)
(0.00595547 -0.000211135 1.06114e-24)
(0.00594554 -0.000273263 -5.22641e-25)
(0.00590301 -0.000331152 3.49961e-24)
(0.00582915 -0.000379958 -3.72121e-24)
(0.00572557 -0.000414419 5.85065e-25)
(0.00559435 -0.000428919 4.81334e-24)
(0.00543796 -0.000417475 -8.7087e-24)
(0.00525934 -0.000373602 2.3976e-24)
(0.00506191 -0.000289966 1.15647e-23)
(0.00484987 -0.000157828 -3.19942e-24)
(0.00462868 3.34938e-05 -9.05253e-24)
(0.00440579 0.00029634 -5.08764e-24)
(0.00419182 0.000640981 1.11047e-23)
(0.004002 0.00106438 -9.75004e-24)
(0.0038586 0.00152464 -1.11056e-24)
(0.00378363 0.00189623 5.60375e-24)
(0.003837 0.001905 1.09355e-24)
(0.00223093 -0.000312779 -3.33825e-26)
(0.00223687 -0.00032317 -5.01974e-24)
(0.00229041 -0.000286038 9.80139e-24)
(0.00238512 -0.000233906 8.4399e-24)
(0.00250513 -0.000181264 -1.41395e-23)
(0.00264128 -0.000134868 2.94341e-25)
(0.00278744 -9.66609e-05 1.44575e-24)
(0.00293982 -6.64628e-05 1.60877e-23)
(0.00309632 -4.3432e-05 -1.94188e-23)
(0.00325576 -2.65463e-05 1.21659e-23)
(0.00341751 -1.47868e-05 3.73675e-24)
(0.00358126 -7.19013e-06 -2.08201e-23)
(0.0037469 -2.84348e-06 7.60387e-24)
(0.00391449 -8.59906e-07 3.06565e-24)
(0.00408426 -3.45851e-07 -6.43955e-24)
(0.00425666 -3.73409e-07 1.051e-23)
(0.00443241 2.65175e-08 -7.44283e-24)
(0.00461267 1.81689e-06 -1.25965e-25)
(0.00479916 5.79738e-06 5.9755e-25)
(0.00499424 1.2245e-05 6.26105e-25)
(0.00520085 2.02547e-05 9.3561e-26)
(0.00542157 2.66436e-05 3.3311e-25)
(0.00563989 2.50802e-05 -8.42723e-25)
(0.00583132 1.13413e-05 2.45735e-24)
(0.00598893 -1.50607e-05 -3.76056e-24)
(0.00611261 -5.29169e-05 2.12117e-24)
(0.00620249 -9.99929e-05 -4.61483e-24)
(0.00625898 -0.000153462 6.09703e-24)
(0.00628269 -0.000210006 -5.09147e-24)
(0.0062744 -0.000265798 6.4377e-25)
(0.00623518 -0.000316511 7.86402e-25)
(0.00616646 -0.000357361 4.84189e-24)
(0.00607018 -0.000383185 -1.29094e-24)
(0.00594881 -0.000388511 2.6368e-24)
(0.00580543 -0.000367561 -8.24589e-24)
(0.0056438 -0.000314159 1.49725e-23)
(0.00546858 -0.000221485 -1.03062e-23)
(0.00528577 -8.1713e-05 1.51742e-23)
(0.00510354 0.00011422 -2.81287e-23)
(0.00493362 0.000375946 1.03087e-23)
(0.00479292 0.000709597 3.30101e-24)
(0.00470442 0.00110633 4.30111e-24)
(0.00469483 0.00151847 -5.02363e-24)
(0.00477457 0.00182609 7.28803e-25)
(0.00492258 0.00183486 -3.06595e-25)
(0.00310812 -0.000302143 -1.21533e-24)
(0.00309356 -0.000331285 -2.05267e-24)
(0.00310385 -0.000320589 -9.2922e-24)
(0.00314855 -0.000287264 2.43721e-24)
(0.00322264 -0.000244544 1.66587e-24)
(0.00331943 -0.000201375 7.80552e-24)
(0.00343272 -0.000162395 -1.70284e-23)
(0.00355765 -0.000129325 6.6491e-24)
(0.00369092 -0.000102438 2.29456e-23)
(0.00383036 -8.13302e-05 -6.23436e-24)
(0.00397457 -6.53118e-05 -5.98851e-24)
(0.00412269 -5.35913e-05 -9.71839e-25)
(0.00427421 -4.53455e-05 3.24178e-24)
(0.00442886 -3.97352e-05 -6.43123e-24)
(0.00458664 -3.58961e-05 1.50313e-24)
(0.00474777 -3.29247e-05 -5.41606e-25)
(0.00491279 -2.98792e-05 -3.19885e-24)
(0.00508264 -2.58288e-05 1.25865e-24)
(0.00525878 -2.00025e-05 5.59122e-24)
(0.00544331 -1.21277e-05 -6.90181e-25)
(0.00563885 -3.03672e-06 -1.23495e-24)
(0.00584775 4.2848e-06 -3.17759e-25)
(0.00605446 3.855e-06 -1.66874e-24)
(0.00623592 -8.21074e-06 -3.73861e-26)
(0.00638558 -3.22221e-05 -3.6644e-24)
(0.0065033 -6.689e-05 6.3019e-24)
(0.00658912 -0.000109944 -5.13009e-24)
(0.00664335 -0.000158531 9.57319e-24)
(0.00666655 -0.000209319 -7.70465e-24)
(0.00665954 -0.00025849 1.85762e-24)
(0.00662349 -0.000301773 2.65521e-24)
(0.00656006 -0.000334491 -2.13805e-25)
(0.00647148 -0.000351658 -3.47447e-25)
(0.00636066 -0.000348057 -1.05664e-24)
(0.00623127 -0.000318285 1.18292e-24)
(0.00608787 -0.000256729 -4.8947e-24)
(0.00593622 -0.000157481 2.26889e-23)
(0.00578379 -1.42677e-05 -1.18783e-23)
(0.00564069 0.000179388 -5.28716e-25)
(0.00552087 0.000428988 -2.31139e-23)
(0.0054432 0.000734936 1.65172e-23)
(0.00543039 0.00108291 -4.64633e-24)
(0.00550251 0.00142739 2.13494e-24)
(0.00565608 0.0016764 3.04138e-24)