/*--------------------------------*- C++ -*----------------------------------*\
| =========                 |                                                 |
| \\      /  F ield         | OpenFOAM: The Open Source CFD Toolbox           |
|  \\    /   O peration     | Version:  2312                                  |
|   \\  /    A nd           | Website:  www.openfoam.com                      |
|    \\/     M anipulation  |                                                 |
\*---------------------------------------------------------------------------*/
FoamFile
{
    version     2.0;
    format      ascii;
    arch        "LSB;label=32;scalar=64";
    class       surfaceScalarField;
    location    "31";
    object      phi;
}
// * * * * * * * * * * * * * * * * * * * * * * * * * * * * * * * * * * * * * //

dimensions      [0 3 -1 0 0 0 0];

oriented        oriented;

internalField   nonuniform List<scalar> 
9445
(
5.88357e-10
1.79698e-11
5.76388e-10
1.19688e-11
5.68388e-10
8.00004e-12
5.63192e-10
5.19623e-12
5.60068e-10
3.12374e-12
5.58588e-10
1.47985e-12
5.58536e-10
5.28574e-14
5.59831e-10
-1.29583e-12
5.62419e-10
-2.58758e-12
5.66714e-10
-4.29446e-12
5.73789e-10
-7.07537e-12
5.87102e-10
-1.3313e-11
6.18807e-10
-3.17053e-11
7.11282e-10
-9.24745e-11
-2.40042e-10
9.51324e-10
2.0513e-09
7.89231e-11
2.01064e-09
5.26269e-11
1.9834e-09
3.5241e-11
1.96559e-09
2.30049e-11
1.9547e-09
1.40144e-11
1.94925e-09
6.92896e-12
1.94843e-09
8.80557e-13
1.95176e-09
-4.63e-12
1.95922e-09
-1.00436e-11
1.972e-09
-1.7076e-11
1.99277e-09
-2.78505e-11
2.0281e-09
-4.86415e-11
2.09091e-09
-9.45084e-11
2.19327e-09
-1.94836e-10
-3.47811e-10
2.30104e-09
4.04535e-09
1.95727e-10
3.96735e-09
1.30628e-10
3.91498e-09
8.76148e-11
3.88054e-09
5.74406e-11
3.85918e-09
3.53764e-11
3.84796e-09
1.81502e-11
3.84517e-09
3.66922e-12
3.84975e-09
-9.21566e-12
3.86144e-09
-2.17338e-11
3.88175e-09
-3.7385e-11
3.91316e-09
-5.92599e-11
3.96001e-09
-9.54864e-11
4.02486e-09
-1.59362e-10
4.09447e-09
-2.6444e-10
-3.87064e-10
4.13372e-09
6.71732e-09
3.83108e-10
6.59187e-09
2.56078e-10
6.50735e-09
1.72143e-10
6.45136e-09
1.1343e-10
6.41604e-09
7.06932e-11
6.39649e-09
3.77002e-11
6.38978e-09
1.03799e-11
6.39391e-09
-1.33496e-11
6.40792e-09
-3.57394e-11
6.43268e-09
-6.21453e-11
6.46882e-09
-9.54012e-11
6.5158e-09
-1.42461e-10
6.56725e-09
-2.10819e-10
6.60408e-09
-3.01268e-10
-3.88135e-10
6.60515e-09
1.0246e-08
6.56635e-10
1.0062e-08
4.40073e-10
9.93739e-09
2.96792e-10
9.85405e-09
1.96772e-10
9.80048e-09
1.2427e-10
9.76924e-09
6.89406e-11
9.75567e-09
2.39408e-11
9.75648e-09
-1.41598e-11
9.76974e-09
-4.89993e-11
9.79434e-09
-8.67419e-11
9.82844e-09
-1.29501e-10
9.86736e-09
-1.81381e-10
9.90087e-09
-2.44326e-10
9.91287e-09
-3.1327e-10
-3.69536e-10
9.89427e-09
1.48444e-08
1.03016e-09
1.45911e-08
6.93351e-10
1.44182e-08
4.69744e-10
1.43012e-08
3.13765e-10
1.42244e-08
2.01065e-10
1.41774e-08
1.15986e-10
1.41531e-08
4.81737e-11
1.41468e-08
-7.83588e-12
1.4155e-08
-5.72197e-11
1.41741e-08
-1.05852e-10
1.42001e-08
-1.55436e-10
1.42261e-08
-2.07385e-10
1.42422e-08
-2.60485e-10
1.42381e-08
-3.09189e-10
-3.43121e-10
1.42117e-08
2.07579e-08
1.51072e-09
2.04279e-08
1.02335e-09
2.02e-08
6.97654e-10
2.00436e-08
4.70144e-10
1.99386e-08
3.06044e-10
1.98713e-08
1.83288e-10
1.98321e-08
8.73652e-11
1.98143e-08
1.0027e-11
1.98124e-08
-5.53236e-11
1.98208e-08
-1.14275e-10
1.98338e-08
-1.68483e-10
1.98446e-08
-2.18128e-10
1.98456e-08
-2.61481e-10
1.98314e-08
-2.95063e-10
-3.14624e-10
1.98029e-08
2.82569e-08
2.0901e-09
2.78513e-08
1.42896e-09
2.75667e-08
9.82296e-10
2.7368e-08
6.68865e-10
2.72313e-08
4.4267e-10
2.714e-08
2.74575e-10
2.7082e-08
1.45449e-10
2.70482e-08
4.37684e-11
2.70316e-08
-3.8679e-11
2.7025e-08
-1.07711e-10
2.70221e-08
-1.65622e-10
2.7017e-08
-2.12991e-10
2.70048e-08
-2.49301e-10
2.69834e-08
-2.73644e-10
-2.85437e-10
2.69542e-08
3.76241e-08
2.73462e-09
3.71598e-08
1.89325e-09
3.68267e-08
1.31541e-09
3.65891e-08
9.06429e-10
3.64216e-08
6.1023e-10
3.63053e-08
3.90846e-10
3.62263e-08
2.24493e-10
3.61739e-08
9.61721e-11
3.61394e-08
-4.25731e-12
3.61155e-08
-8.3714e-11
3.60956e-08
-1.45819e-10
3.60753e-08
-1.92674e-10
3.60516e-08
-2.25617e-10
3.60239e-08
-2.45895e-10
-2.54933e-10
3.59934e-08
4.91437e-08
3.3803e-09
4.86594e-08
2.37759e-09
4.83012e-08
1.67352e-09
4.8039e-08
1.16862e-09
4.78489e-08
8.00398e-10
4.77121e-08
5.2759e-10
4.76142e-08
3.22409e-10
4.75438e-08
1.66591e-10
4.74918e-08
4.77624e-11
4.74508e-08
-4.27618e-11
4.74155e-08
-1.10462e-10
4.73821e-08
-1.59341e-10
4.7349e-08
-1.92515e-10
4.73159e-08
-2.12772e-10
-2.22621e-10
4.72836e-08
6.31177e-08
3.94761e-09
6.26689e-08
2.82634e-09
6.23241e-08
2.01839e-09
6.20634e-08
1.42933e-09
6.18683e-08
9.95429e-10
6.17231e-08
6.72829e-10
6.16145e-08
4.31061e-10
6.15318e-08
2.49216e-10
6.1467e-08
1.12636e-10
6.14134e-08
1.07663e-11
6.13669e-08
-6.39419e-11
6.13247e-08
-1.17158e-10
6.12856e-08
-1.5341e-10
6.12493e-08
-1.7649e-10
-1.89502e-10
6.12162e-08
7.99375e-08
4.38251e-09
7.95727e-08
3.1911e-09
7.92799e-08
2.31118e-09
7.90506e-08
1.65871e-09
7.88731e-08
1.17285e-09
7.87363e-08
8.09693e-10
7.86298e-08
5.37552e-10
7.85453e-08
3.33698e-10
7.84764e-08
1.8157e-10
7.84182e-08
6.89148e-11
7.83677e-08
-1.33937e-11
7.83228e-08
-7.23321e-11
7.82828e-08
-1.13395e-10
7.82473e-08
-1.40965e-10
-1.58466e-10
7.82163e-08
1.00188e-07
4.69302e-09
9.9916e-08
3.4629e-09
9.96898e-08
2.53738e-09
9.95067e-08
1.84173e-09
9.93606e-08
1.31901e-09
9.9244e-08
9.26284e-10
9.91501e-08
6.31475e-10
9.90731e-08
4.10674e-10
9.90087e-08
2.45986e-10
9.89538e-08
1.23804e-10
9.89064e-08
3.39614e-11
9.88652e-08
-3.11272e-11
9.88296e-08
-7.7788e-11
9.87993e-08
-1.1062e-10
-1.33219e-10
9.8774e-08
1.24646e-07
4.92532e-09
1.24438e-07
3.67064e-09
1.24261e-07
2.71449e-09
1.24114e-07
1.98881e-09
1.23993e-07
1.43983e-09
1.23894e-07
1.02554e-09
1.23811e-07
7.13696e-10
1.23743e-07
4.79404e-10
1.23685e-07
3.04028e-10
1.23635e-07
1.73116e-10
1.23593e-07
7.5826e-11
1.23558e-07
3.98152e-12
1.23529e-07
-4.87791e-11
1.23506e-07
-8.74423e-11
-1.15611e-10
1.23489e-07
1.54056e-07
5.09738e-09
1.53893e-07
3.83451e-09
1.53745e-07
2.86167e-09
1.53617e-07
2.11664e-09
1.53508e-07
1.54914e-09
1.53415e-07
1.11866e-09
1.53336e-07
7.92873e-10
1.53269e-07
5.46635e-10
1.53212e-07
3.60946e-10
1.53164e-07
2.20833e-10
1.53125e-07
1.15297e-10
1.53093e-07
3.5776e-11
1.53068e-07
-2.41892e-11
1.5305e-07
-6.9603e-11
-1.04155e-10
1.53039e-07
1.88851e-07
5.183e-09
1.88746e-07
3.93923e-09
1.88637e-07
2.97096e-09
1.88532e-07
2.22186e-09
1.88435e-07
1.64648e-09
1.88347e-07
1.20635e-09
1.88269e-07
8.70327e-10
1.88202e-07
6.14327e-10
1.88144e-07
4.18754e-10
1.88095e-07
2.69431e-10
1.88056e-07
1.54734e-10
1.88025e-07
6.65512e-11
1.88003e-07
-1.81205e-12
1.87988e-07
-5.5128e-11
-9.71449e-11
1.87981e-07
2.29052e-07
5.15352e-09
2.29031e-07
3.95994e-09
2.28981e-07
3.0213e-09
2.28916e-07
2.28748e-09
2.28844e-07
1.71772e-09
2.28773e-07
1.27712e-09
2.28707e-07
9.37096e-10
2.28646e-07
6.74867e-10
2.28593e-07
4.71544e-10
2.28549e-07
3.1384e-10
2.28513e-07
1.90928e-10
2.28486e-07
9.35341e-11
2.28468e-07
1.63434e-11
2.28458e-07
-4.59493e-11
-9.63752e-11
2.28458e-07
2.74205e-07
5.00017e-09
2.7428e-07
3.88583e-09
2.743e-07
3.00117e-09
2.74286e-07
2.30105e-09
2.74252e-07
1.75141e-09
2.74209e-07
1.32095e-09
2.74161e-07
9.84408e-10
2.74116e-07
7.20426e-10
2.74075e-07
5.12362e-10
2.74041e-07
3.47946e-10
2.74015e-07
2.17168e-10
2.73996e-07
1.1227e-10
2.73986e-07
2.61616e-11
2.73987e-07
-4.66762e-11
-1.06127e-10
2.73996e-07
3.22984e-07
4.71566e-09
3.2316e-07
3.70928e-09
3.23261e-07
2.90106e-09
3.23308e-07
2.25382e-09
3.23321e-07
1.73872e-09
3.23312e-07
1.3297e-09
3.23291e-07
1.0048e-09
3.23267e-07
7.45058e-10
3.23242e-07
5.37101e-10
3.23222e-07
3.67909e-10
3.23209e-07
2.30602e-10
3.23204e-07
1.17284e-10
3.23206e-07
2.36447e-11
3.23222e-07
-6.23133e-11
-1.32055e-10
3.23248e-07
3.72435e-07
4.2827e-09
3.72733e-07
3.41077e-09
3.72933e-07
2.70146e-09
3.73062e-07
2.12508e-09
3.73141e-07
1.65971e-09
3.73187e-07
1.28385e-09
3.73212e-07
9.79608e-10
3.73225e-07
7.31788e-10
3.73233e-07
5.29137e-10
3.7324e-07
3.61405e-10
3.73249e-07
2.21426e-10
3.73265e-07
1.00781e-10
3.73293e-07
-3.90971e-12
3.73325e-07
-9.41753e-11
-1.72784e-10
3.73365e-07
3.70292e-07
3.78269e-09
3.70656e-07
3.0466e-09
3.70918e-07
2.43945e-09
3.71105e-07
1.93883e-09
3.71237e-07
1.52766e-09
3.71331e-07
1.18974e-09
3.714e-07
9.10696e-10
3.71453e-07
6.78547e-10
3.71498e-07
4.83671e-10
3.71541e-07
3.18924e-10
3.71584e-07
1.78386e-10
3.71625e-07
6.01352e-11
3.71674e-07
-5.31784e-11
3.71729e-07
-1.49071e-10
-2.35248e-10
3.71791e-07
3.18163e-07
3.26969e-09
3.18544e-07
2.6653e-09
3.18825e-07
2.15849e-09
3.1903e-07
1.73469e-09
3.19176e-07
1.38078e-09
3.19281e-07
1.08467e-09
3.19357e-07
8.35127e-10
3.19412e-07
6.23536e-10
3.19453e-07
4.42305e-10
3.19487e-07
2.85288e-10
3.19518e-07
1.47015e-10
3.19555e-07
2.33696e-11
3.1959e-07
-8.82543e-11
3.1963e-07
-1.88688e-10
-2.79997e-10
3.19675e-07
2.67001e-07
2.77761e-09
2.67384e-07
2.28222e-09
2.67681e-07
1.86083e-09
2.67912e-07
1.50404e-09
2.68091e-07
1.20156e-09
2.68232e-07
9.44e-10
2.68343e-07
7.236e-10
2.68435e-07
5.32303e-10
2.68512e-07
3.65263e-10
2.68579e-07
2.17925e-10
2.68639e-07
8.691e-11
2.68696e-07
-3.30615e-11
2.68749e-07
-1.41261e-10
2.68801e-07
-2.40901e-10
-3.33124e-10
2.68854e-07
2.20691e-07
2.31527e-09
2.2106e-07
1.91289e-09
2.21354e-07
1.56652e-09
2.21589e-07
1.26917e-09
2.21777e-07
1.0135e-09
2.21929e-07
7.92302e-10
2.22053e-07
5.99444e-10
2.22156e-07
4.29668e-10
2.22242e-07
2.78958e-10
2.22316e-07
1.43929e-10
2.22381e-07
2.17451e-11
2.22439e-07
-9.08704e-11
2.22492e-07
-1.94386e-10
2.22542e-07
-2.90573e-10
-3.80383e-10
2.22589e-07
1.80133e-07
1.88859e-09
1.80479e-07
1.56639e-09
1.8076e-07
1.28578e-09
1.80987e-07
1.04164e-09
1.81172e-07
8.28736e-10
1.81323e-07
6.41593e-10
1.81446e-07
4.76028e-10
1.81548e-07
3.28052e-10
1.81632e-07
1.94533e-10
1.81703e-07
7.33063e-11
1.81763e-07
-3.79391e-11
1.81813e-07
-1.41094e-10
1.81856e-07
-2.3706e-10
1.81892e-07
-3.26778e-10
-4.10981e-10
1.81922e-07
1.45432e-07
1.50772e-09
1.45744e-07
1.254e-09
1.46e-07
1.03036e-09
1.46208e-07
8.33346e-10
1.46378e-07
6.58976e-10
1.46516e-07
5.03535e-10
1.46628e-07
3.63867e-10
1.46719e-07
2.37223e-10
1.46792e-07
1.21719e-10
1.46849e-07
1.54393e-11
1.46894e-07
-8.28499e-11
1.46928e-07
-1.74741e-10
1.46952e-07
-2.60777e-10
1.46967e-07
-3.41587e-10
-4.17659e-10
1.46973e-07
1.16234e-07
1.1804e-09
1.16504e-07
9.84157e-10
1.16726e-07
8.09077e-10
1.16906e-07
6.52861e-10
1.17052e-07
5.12655e-10
1.1717e-07
3.85842e-10
1.17263e-07
2.70476e-10
1.17336e-07
1.64427e-10
1.17391e-07
6.67381e-11
1.1743e-07
-2.36577e-11
1.17456e-07
-1.08288e-10
1.17469e-07
-1.87724e-10
1.1747e-07
-2.62448e-10
1.17462e-07
-3.32843e-10
-3.99195e-10
1.17443e-07
9.19801e-08
9.08462e-10
9.22047e-08
7.59488e-10
9.23889e-08
6.24959e-10
9.25383e-08
5.03395e-10
9.26582e-08
3.92772e-10
9.27526e-08
2.91459e-10
9.2825e-08
1.9809e-10
9.28778e-08
1.11653e-10
9.29139e-08
3.06382e-11
9.29343e-08
-4.40558e-11
9.29409e-08
-1.14922e-10
9.29348e-08
-1.81661e-10
9.2917e-08
-2.44624e-10
9.28882e-08
-3.04037e-10
-3.60052e-10
9.2849e-08
7.20493e-08
6.88337e-10
7.22314e-08
5.77454e-10
7.23802e-08
4.76164e-10
7.25001e-08
3.83446e-10
7.25949e-08
2.97955e-10
7.26677e-08
2.18732e-10
7.27208e-08
1.44965e-10
7.27564e-08
7.60099e-11
7.27763e-08
1.07933e-11
7.27818e-08
-4.95503e-11
7.27741e-08
-1.07212e-10
7.27541e-08
-1.61708e-10
7.27227e-08
-2.13228e-10
7.26806e-08
-2.61894e-10
-3.07776e-10
7.26283e-08
5.58319e-08
5.13417e-10
5.59767e-08
4.32665e-10
5.60948e-08
3.58092e-10
5.61893e-08
2.88929e-10
5.62629e-08
2.24341e-10
5.63178e-08
1.63837e-10
5.63558e-08
1.06974e-10
5.63785e-08
5.32905e-11
5.63868e-08
2.4664e-12
5.63825e-08
-4.52588e-11
5.63661e-08
-9.08128e-11
5.63385e-08
-1.34044e-10
5.63002e-08
-1.74991e-10
5.6252e-08
-2.13708e-10
-2.50213e-10
5.61945e-08
4.27569e-08
3.76242e-10
4.28707e-08
3.18876e-10
4.29634e-08
2.65354e-10
4.30373e-08
2.15035e-10
4.30942e-08
1.67481e-10
4.31355e-08
1.22491e-10
4.31627e-08
7.98279e-11
4.31767e-08
3.92548e-11
4.31785e-08
6.62951e-13
4.31691e-08
-3.58783e-11
4.31492e-08
-7.08581e-11
4.31193e-08
-1.0414e-10
4.308e-08
-1.35715e-10
4.30319e-08
-1.65604e-10
-1.93796e-10
4.29755e-08
3.23079e-08
2.6979e-10
3.23965e-08
2.30209e-10
3.2469e-08
1.92922e-10
3.25266e-08
1.57365e-10
3.25707e-08
1.23393e-10
3.26023e-08
9.09532e-11
3.26222e-08
5.99377e-11
3.26312e-08
3.02329e-11
3.263e-08
1.84877e-12
3.26193e-08
-2.51646e-11
3.25996e-08
-5.11888e-11
3.25715e-08
-7.59818e-11
3.25353e-08
-9.9536e-11
3.24915e-08
-1.21864e-10
-1.4294e-10
3.24407e-08
2.40292e-08
1.88044e-10
2.40978e-08
1.61683e-10
2.41541e-08
1.36621e-10
2.4199e-08
1.1237e-10
2.42335e-08
8.89691e-11
2.4258e-08
6.6425e-11
2.42732e-08
4.46977e-11
2.42797e-08
2.37746e-11
2.42779e-08
3.64141e-12
2.42682e-08
-1.54991e-11
2.42512e-08
-3.4174e-11
2.42272e-08
-5.19548e-11
2.41965e-08
-6.88603e-11
2.41596e-08
-8.49147e-11
-1.0009e-10
2.41167e-08
1.75273e-08
1.26111e-10
1.75796e-08
1.09315e-10
1.7623e-08
9.32099e-11
1.7658e-08
7.73951e-11
1.7685e-08
6.19986e-11
1.77044e-08
4.70397e-11
1.77166e-08
3.25129e-11
1.77219e-08
1.84293e-11
1.77207e-08
4.81779e-12
1.77133e-08
-8.08151e-12
1.77e-08
-2.08901e-11
1.76811e-08
-3.30675e-11
1.76569e-08
-4.46383e-11
1.76276e-08
-5.56532e-11
-6.60828e-11
1.75936e-08
1.24671e-08
8.01035e-11
1.25064e-08
7.00081e-11
1.25393e-08
6.02553e-11
1.25662e-08
5.05403e-11
1.25872e-08
4.10073e-11
1.26025e-08
3.16691e-11
1.26125e-08
2.2535e-11
1.26173e-08
1.36209e-11
1.26172e-08
4.93222e-12
1.26123e-08
-3.20923e-12
1.26029e-08
-1.14518e-11
1.25892e-08
-1.93225e-11
1.25713e-08
-2.67671e-11
1.25495e-08
-3.38762e-11
-4.06201e-11
1.2524e-08
8.56737e-09
4.69533e-11
8.59602e-09
4.13577e-11
8.62035e-09
3.59291e-11
8.64044e-09
3.04497e-11
8.65642e-09
2.50333e-11
8.6684e-09
1.96845e-11
8.67652e-09
1.44167e-11
8.68089e-09
9.24613e-12
8.68169e-09
4.13932e-12
8.67906e-09
-5.8573e-13
8.67303e-09
-5.41952e-12
8.6638e-09
-1.00947e-11
8.65153e-09
-1.44954e-11
8.63636e-09
-1.8707e-11
-2.27084e-11
8.61845e-09
5.59446e-09
2.42072e-11
5.61435e-09
2.14655e-11
5.63146e-09
1.88176e-11
5.6458e-09
1.61146e-11
5.65741e-09
1.34224e-11
5.66635e-09
1.07413e-11
5.67268e-09
8.08351e-12
5.67647e-09
5.45904e-12
5.67778e-09
2.83498e-12
5.67678e-09
4.13587e-13
5.67341e-09
-2.05175e-12
5.66779e-09
-4.47776e-12
5.66006e-09
-6.76223e-12
5.6503e-09
-8.94787e-12
-1.10245e-11
5.63862e-09
3.35592e-09
9.86618e-12
3.36861e-09
8.78342e-12
3.37965e-09
7.76898e-12
3.38904e-09
6.72463e-12
3.39679e-09
5.67421e-12
3.40292e-09
4.61807e-12
3.40743e-09
3.56398e-12
3.41038e-09
2.51653e-12
3.41176e-09
1.45307e-12
3.4117e-09
4.74753e-13
3.41016e-09
-5.14993e-13
3.40719e-09
-1.50224e-12
3.40286e-09
-2.43905e-12
3.39725e-09
-3.33269e-12
-4.17694e-12
3.3904e-09
1.69477e-09
2.26533e-12
1.70154e-09
2.00406e-12
1.70752e-09
1.79194e-12
1.71267e-09
1.57161e-12
1.717e-09
1.3453e-12
1.72051e-09
1.11434e-12
1.72319e-09
8.81424e-13
1.72506e-09
6.47545e-13
1.72611e-09
4.03997e-13
1.7264e-09
1.83969e-13
1.72592e-09
-3.89617e-14
1.72468e-09
-2.63542e-13
1.72272e-09
-4.79718e-13
1.72008e-09
-6.8482e-13
-8.71556e-13
1.71677e-09
4.83904e-10
4.85908e-10
4.877e-10
4.89271e-10
4.90617e-10
4.91731e-10
4.92612e-10
4.9326e-10
4.93664e-10
4.93848e-10
4.93809e-10
4.93545e-10
4.93066e-10
4.92381e-10
4.91509e-10
1.13575e-09
-4.57878e-10
2.73456e-10
1.3995e-09
-3.80126e-10
1.16369e-10
1.66486e-09
-2.3242e-10
-3.29417e-11
1.92639e-09
-7.21836e-11
-1.89339e-10
2.1829e-09
9.88164e-11
-3.55332e-10
2.43585e-09
2.76387e-10
-5.29336e-10
2.6873e-09
4.61851e-10
-7.13298e-10
2.93893e-09
6.57021e-10
-9.0865e-10
3.19206e-09
8.63397e-10
-1.11652e-09
3.44767e-09
1.08217e-09
-1.33778e-09
3.70661e-09
1.31423e-09
-1.57316e-09
3.96969e-09
1.56045e-09
-1.82353e-09
4.2379e-09
1.8216e-09
-2.08981e-09
4.51256e-09
2.09752e-09
-2.37219e-09
4.7955e-09
2.38609e-09
-2.66903e-09
5.08912e-09
2.68147e-09
-2.97509e-09
5.3966e-09
2.97194e-09
-3.27942e-09
5.72207e-09
3.23666e-09
-3.56213e-09
6.07062e-09
3.44056e-09
-3.78911e-09
6.44778e-09
3.52566e-09
-3.90282e-09
6.85764e-09
3.3907e-09
-3.80055e-09
7.29827e-09
2.86246e-09
-3.30309e-09
7.69095e-09
1.5147e-09
-1.90738e-09
8.00476e-09
4.99194e-11
-3.63725e-10
8.24148e-09
-1.25314e-09
1.01641e-09
8.40604e-09
-2.35371e-09
2.18915e-09
8.504e-09
-3.23055e-09
3.13259e-09
8.54109e-09
-3.89301e-09
3.85592e-09
8.5232e-09
-4.36345e-09
4.38134e-09
8.45584e-09
-4.65864e-09
4.72599e-09
8.34387e-09
-4.79002e-09
4.90199e-09
8.19167e-09
-4.76742e-09
4.91962e-09
8.00331e-09
-4.6e-09
4.78836e-09
7.78257e-09
-4.29713e-09
4.51787e-09
7.53284e-09
-3.8689e-09
4.11863e-09
7.25698e-09
-3.32579e-09
3.60165e-09
6.95719e-09
-2.67751e-09
2.9773e-09
6.63503e-09
-1.93119e-09
2.25335e-09
6.29154e-09
-1.08882e-09
1.43231e-09
5.9263e-09
-1.45677e-10
5.10911e-10
5.5343e-09
9.02845e-10
-5.10841e-10
5.09682e-09
2.03418e-09
-1.59671e-09
4.58207e-09
3.1274e-09
-2.61265e-09
3.98654e-09
3.88125e-09
-3.28571e-09
3.47377e-09
3.62584e-09
-3.11307e-09
2.37158e-09
-5.28423e-10
2.52665e-09
-5.35195e-10
2.73847e-09
-4.44238e-10
2.97593e-09
-3.09647e-10
3.22624e-09
-1.51489e-10
3.48322e-09
1.94029e-11
3.74496e-09
2.00111e-10
4.01107e-09
3.90911e-10
4.28176e-09
5.92704e-10
4.55746e-09
8.06465e-10
4.83872e-09
1.03297e-09
5.12624e-09
1.27293e-09
5.42096e-09
1.52687e-09
5.72425e-09
1.79423e-09
6.038e-09
2.07234e-09
6.36473e-09
2.35474e-09
6.70773e-09
2.62895e-09
7.07117e-09
2.87322e-09
7.46016e-09
3.05158e-09
7.88004e-09
3.10577e-09
8.33452e-09
2.93622e-09
8.82087e-09
2.37612e-09
9.25279e-09
1.08278e-09
9.59728e-09
-2.94575e-10
9.85701e-09
-1.51287e-09
1.00377e-08
-2.53441e-09
1.01455e-08
-3.33838e-09
1.01868e-08
-3.93422e-09
1.0168e-08
-4.34469e-09
1.00956e-08
-4.58629e-09
9.97541e-09
-4.66978e-09
9.81257e-09
-4.60459e-09
9.61222e-09
-4.39964e-09
9.37929e-09
-4.0642e-09
9.11866e-09
-3.60827e-09
8.83509e-09
-3.04222e-09
8.5335e-09
-2.37591e-09
8.21945e-09
-1.61714e-09
7.90054e-09
-7.6991e-10
7.58818e-09
1.66685e-10
7.29899e-09
1.19203e-09
7.05396e-09
2.27921e-09
6.87917e-09
3.30219e-09
6.81254e-09
3.94788e-09
3.55369e-09
6.73262e-09
4.14297e-09
-5.37672e-10
4.20842e-09
-6.00646e-10
4.34187e-09
-5.7769e-10
4.5268e-09
-4.94576e-10
4.7447e-09
-3.69388e-10
4.98437e-09
-2.20269e-10
5.23955e-09
-5.50676e-11
5.50686e-09
1.23602e-10
5.78459e-09
3.14972e-10
6.07201e-09
5.1905e-10
6.36897e-09
7.36004e-10
6.67578e-09
9.66123e-10
6.99316e-09
1.2095e-09
7.32236e-09
1.46503e-09
7.66524e-09
1.72946e-09
8.02436e-09
1.99562e-09
8.40301e-09
2.25031e-09
8.80531e-09
2.47091e-09
9.23618e-09
2.6207e-09
9.7006e-09
2.64135e-09
1.02016e-08
2.43525e-09
1.07352e-08
1.84251e-09
1.12073e-08
6.10685e-10
1.15828e-08
-6.70118e-10
1.18655e-08
-1.79556e-09
1.20621e-08
-2.73096e-09
1.21792e-08
-3.45556e-09
1.22239e-08
-3.97888e-09
1.22035e-08
-4.32433e-09
1.21256e-08
-4.50832e-09
1.19967e-08
-4.54095e-09
1.18234e-08
-4.43125e-09
1.16119e-08
-4.18812e-09
1.13685e-08
-3.82089e-09
1.11001e-08
-3.33983e-09
1.08137e-08
-2.75581e-09
1.05174e-08
-2.07964e-09
1.02215e-08
-1.32122e-09
9.94052e-09
-4.88925e-10
9.69698e-09
4.1023e-10
9.52529e-09
1.36372e-09
9.47047e-09
2.33403e-09
9.56854e-09
3.20412e-09
9.79194e-09
3.72447e-09
3.45544e-09
9.89019e-09
6.57838e-09
-5.10896e-10
6.58225e-09
-6.04522e-10
6.63793e-09
-6.33374e-10
6.75196e-09
-6.08598e-10
6.91404e-09
-5.31469e-10
7.11267e-09
-4.18902e-10
7.33978e-09
-2.82175e-10
7.5896e-09
-1.26221e-10
7.85843e-09
4.61397e-11
8.14407e-09
2.33413e-10
8.44539e-09
4.34679e-10
8.76205e-09
6.49465e-10
9.09432e-09
8.77225e-10
9.4432e-09
1.11615e-09
9.81041e-09
1.36225e-09
1.01984e-08
1.60763e-09
1.06103e-08
1.83836e-09
1.10502e-08
2.03106e-09
1.15225e-08
2.14844e-09
1.20314e-08
2.13238e-09
1.2579e-08
1.88766e-09
1.31597e-08
1.26182e-09
1.36713e-08
9.90995e-11
1.40768e-08
-1.07562e-09
1.43811e-08
-2.09989e-09
1.45921e-08
-2.94193e-09
1.47172e-08
-3.58061e-09
1.47637e-08
-4.02547e-09
1.47404e-08
-4.30099e-09
1.46558e-08
-4.4237e-09
1.45178e-08
-4.40299e-09
1.43342e-08
-4.2476e-09
1.41126e-08
-3.96653e-09
1.38612e-08
-3.56949e-09
1.35887e-08
-3.06737e-09
1.3305e-08
-2.47206e-09
1.30215e-08
-1.79616e-09
1.2753e-08
-1.05272e-09
1.25198e-08
-2.55724e-10
1.23512e-08
5.78816e-10
1.22885e-08
1.4264e-09
1.23794e-08
2.24313e-09
1.26484e-08
2.93516e-09
1.30372e-08
3.33569e-09
3.21522e-09
1.32774e-08
9.85078e-09
-4.67407e-10
9.81519e-09
-5.68932e-10
9.81121e-09
-6.29389e-10
9.85308e-09
-6.50468e-10
9.94516e-09
-6.23549e-10
1.0083e-08
-5.56787e-10
1.02602e-08
-4.59305e-10
1.04708e-08
-3.36838e-10
1.07104e-08
-1.93445e-10
1.09757e-08
-3.19346e-11
1.12649e-08
1.45534e-10
1.15768e-08
3.3755e-10
1.19112e-08
5.42778e-10
1.22689e-08
7.58517e-10
1.26512e-08
9.79937e-10
1.30604e-08
1.19837e-09
1.34996e-08
1.39919e-09
1.39723e-08
1.5584e-09
1.44823e-08
1.63839e-09
1.5033e-08
1.58167e-09
1.56247e-08
1.29594e-09
1.62497e-08
6.36839e-10
1.67978e-08
-4.49034e-10
1.72303e-08
-1.50806e-09
1.75533e-08
-2.42285e-09
1.77758e-08
-3.16448e-09
1.79061e-08
-3.71085e-09
1.79521e-08
-4.07153e-09
1.79237e-08
-4.2726e-09
1.78309e-08
-4.33092e-09
1.76831e-08
-4.25516e-09
1.74893e-08
-4.05382e-09
1.7259e-08
-3.73619e-09
1.70021e-08
-3.3126e-09
1.67296e-08
-2.79491e-09
1.64541e-08
-2.1965e-09
1.61901e-08
-1.5322e-09
1.59559e-08
-8.18512e-10
1.5775e-08
-7.47755e-11
1.56776e-08
6.76242e-10
1.57011e-08
1.4029e-09
1.58817e-08
2.06245e-09
1.62278e-08
2.58914e-09
1.66742e-08
2.8893e-09
2.86337e-09
1.7026e-08
1.41639e-08
-4.19558e-10
1.41085e-08
-5.13505e-10
1.4067e-08
-5.87934e-10
1.4052e-08
-6.35442e-10
1.4077e-08
-6.48543e-10
1.41458e-08
-6.25637e-10
1.42578e-08
-5.7124e-10
1.44101e-08
-4.89217e-10
1.45998e-08
-3.8311e-10
1.4824e-08
-2.56113e-10
1.50807e-08
-1.11235e-10
1.53689e-08
4.94086e-11
1.56879e-08
2.23754e-10
1.60383e-08
4.08136e-10
1.64214e-08
5.96848e-10
1.68393e-08
7.80453e-10
1.72947e-08
9.4376e-10
1.77908e-08
1.06232e-09
1.83306e-08
1.0986e-09
1.8916e-08
9.96268e-10
1.95453e-08
6.66621e-10
2.02079e-08
-2.57814e-11
2.07864e-08
-1.02746e-09
2.124e-08
-1.96166e-09
2.15762e-08
-2.75913e-09
2.18056e-08
-3.39382e-09
2.19367e-08
-3.84196e-09
2.19784e-08
-4.11322e-09
2.19418e-08
-4.23602e-09
2.18387e-08
-4.22782e-09
2.16799e-08
-4.09635e-09
2.1476e-08
-3.84995e-09
2.12383e-08
-3.49842e-09
2.09786e-08
-3.05291e-09
2.07101e-08
-2.52646e-09
2.04477e-08
-1.93408e-09
2.02083e-08
-1.29284e-09
2.00119e-08
-6.22139e-10
1.98817e-08
5.54272e-11
1.98444e-08
7.13636e-10
1.99265e-08
1.32077e-09
2.01479e-08
1.84104e-09
2.05035e-08
2.23352e-09
2.09382e-08
2.45463e-09
2.47065e-09
2.13309e-08
1.97574e-08
-3.73999e-10
1.96984e-08
-4.54509e-10
1.96388e-08
-5.28324e-10
1.95903e-08
-5.86936e-10
1.95653e-08
-6.23605e-10
1.95735e-08
-6.33754e-10
1.96194e-08
-6.17138e-10
1.97052e-08
-5.75026e-10
1.98312e-08
-5.09131e-10
1.9997e-08
-4.21918e-10
2.02022e-08
-3.16473e-10
2.04466e-08
-1.94937e-10
2.073e-08
-5.97205e-11
2.10535e-08
8.46493e-11
2.14187e-08
2.31722e-10
2.18277e-08
3.71451e-10
2.22831e-08
4.88289e-10
2.27878e-08
5.57659e-10
2.33438e-08
5.42591e-10
2.39514e-08
3.88623e-10
2.46066e-08
1.15051e-11
2.5295e-08
-7.14218e-10
2.58931e-08
-1.62553e-09
2.63584e-08
-2.42704e-09
2.66998e-08
-3.10048e-09
2.69287e-08
-3.62273e-09
2.70543e-08
-3.96755e-09
2.70861e-08
-4.14504e-09
2.7037e-08
-4.18694e-09
2.69206e-08
-4.1114e-09
2.67492e-08
-3.92496e-09
2.65351e-08
-3.63583e-09
2.62911e-08
-3.25446e-09
2.60312e-08
-2.79293e-09
2.57701e-08
-2.26545e-09
2.55245e-08
-1.68847e-09
2.53124e-08
-1.08069e-09
2.51533e-08
-4.6302e-10
2.50675e-08
1.41217e-10
2.50746e-08
7.06557e-10
2.51893e-08
1.20605e-09
2.54166e-08
1.61374e-09
2.5743e-08
1.90713e-09
2.61269e-08
2.07067e-09
2.10003e-09
2.64975e-08
2.69127e-08
-3.32482e-10
2.68578e-08
-3.99641e-10
2.67956e-08
-4.66103e-10
2.67342e-08
-5.25503e-10
2.66828e-08
-5.72239e-10
2.66509e-08
-6.01798e-10
2.66456e-08
-6.11911e-10
2.66727e-08
-6.02067e-10
2.67358e-08
-5.7222e-10
2.68377e-08
-5.23905e-10
2.69811e-08
-4.59839e-10
2.71675e-08
-3.81366e-10
2.73986e-08
-2.90776e-10
2.76766e-08
-1.9332e-10
2.80041e-08
-9.58465e-11
2.83843e-08
-8.67577e-12
2.88199e-08
5.26472e-11
2.93137e-08
6.38482e-11
2.98671e-08
-1.07938e-11
3.04787e-08
-2.23006e-10
3.11418e-08
-6.51562e-10
3.18381e-08
-1.41056e-09
3.244e-08
-2.2274e-09
3.29036e-08
-2.89062e-09
3.32384e-08
-3.43531e-09
3.3457e-08
-3.84131e-09
3.35684e-08
-4.07891e-09
3.3583e-08
-4.1597e-09
3.3516e-08
-4.11988e-09
3.33826e-08
-3.97807e-09
3.31968e-08
-3.73908e-09
3.2972e-08
-3.4111e-09
3.27229e-08
-3.00533e-09
3.24647e-08
-2.53472e-09
3.22136e-08
-2.01438e-09
3.19867e-08
-1.46159e-09
3.18016e-08
-8.95546e-10
3.16755e-08
-3.36907e-10
3.16239e-08
1.92783e-10
3.16586e-08
6.71888e-10
3.17842e-08
1.0804e-09
3.19959e-08
1.40204e-09
3.22765e-08
1.62652e-09
3.25954e-08
1.75178e-09
1.78448e-09
3.2911e-08
3.59547e-08
-2.93817e-10
3.59053e-08
-3.50258e-10
3.58477e-08
-4.08462e-10
3.57864e-08
-4.64237e-10
3.57276e-08
-5.13433e-10
3.56782e-08
-5.52362e-10
3.56449e-08
-5.78603e-10
3.56339e-08
-5.91097e-10
3.56504e-08
-5.88738e-10
3.56996e-08
-5.73091e-10
3.57865e-08
-5.46722e-10
3.59147e-08
-5.096e-10
3.6088e-08
-4.63989e-10
3.63106e-08
-4.15996e-10
3.65873e-08
-3.72478e-10
3.69222e-08
-3.43648e-10
3.73195e-08
-3.44625e-10
3.77823e-08
-3.98917e-10
3.83117e-08
-5.40191e-10
3.8905e-08
-8.16388e-10
3.95532e-08
-1.29976e-09
4.0234e-08
-2.09133e-09
4.08188e-08
-2.81218e-09
4.12629e-08
-3.33477e-09
4.15766e-08
-3.74899e-09
4.17725e-08
-4.03716e-09
4.18588e-08
-4.1652e-09
4.18475e-08
-4.14847e-09
4.17564e-08
-4.02877e-09
4.16025e-08
-3.82414e-09
4.14003e-08
-3.5369e-09
4.11647e-08
-3.17551e-09
4.09114e-08
-2.752e-09
4.06566e-08
-2.2799e-09
4.04168e-08
-1.77465e-09
4.02087e-08
-1.25342e-09
4.00477e-08
-7.3456e-10
3.99475e-08
-2.3671e-10
3.99182e-08
2.22063e-10
3.99646e-08
6.25458e-10
4.00847e-08
9.60338e-10
4.02686e-08
1.21812e-09
4.04992e-08
1.39596e-09
4.07535e-08
1.49743e-09
1.53182e-09
4.10062e-08
4.72464e-08
-2.56569e-10
4.72014e-08
-3.05301e-10
4.71498e-08
-3.56825e-10
4.7094e-08
-4.08524e-10
4.70382e-08
-4.57572e-10
4.69869e-08
-5.01075e-10
4.69455e-08
-5.37178e-10
4.69192e-08
-5.64832e-10
4.69126e-08
-5.8215e-10
4.69318e-08
-5.9225e-10
4.69823e-08
-5.97287e-10
4.70683e-08
-5.95577e-10
4.71948e-08
-5.90515e-10
4.73684e-08
-5.89503e-10
4.75949e-08
-5.99056e-10
4.78805e-08
-6.2922e-10
4.82303e-08
-6.94402e-10
4.86484e-08
-8.1708e-10
4.91364e-08
-1.02811e-09
4.96906e-08
-1.37063e-09
5.03004e-08
-1.90957e-09
5.09398e-08
-2.73074e-09
5.14839e-08
-3.3562e-09
5.18887e-08
-3.73959e-09
5.21651e-08
-4.02537e-09
5.23244e-08
-4.19653e-09
5.23734e-08
-4.21413e-09
5.23271e-08
-4.10218e-09
5.22067e-08
-3.90841e-09
5.20296e-08
-3.64704e-09
5.18103e-08
-3.31756e-09
5.15644e-08
-2.92961e-09
5.13083e-08
-2.49588e-09
5.10583e-08
-2.02995e-09
5.08305e-08
-1.54681e-09
5.06395e-08
-1.06246e-09
5.04981e-08
-5.9311e-10
5.04155e-08
-1.54132e-10
5.03969e-08
2.40602e-10
5.04422e-08
5.80229e-10
5.05453e-08
8.5722e-10
5.06951e-08
1.06828e-09
5.08765e-08
1.21456e-09
5.10724e-08
1.30157e-09
1.33809e-09
5.12661e-08
6.11806e-08
-2.20946e-10
6.11399e-08
-2.64634e-10
6.10948e-08
-3.11661e-10
6.10467e-08
-3.60492e-10
6.09986e-08
-4.09426e-10
6.09537e-08
-4.56207e-10
6.09164e-08
-4.9984e-10
6.08908e-08
-5.39218e-10
6.08806e-08
-5.72021e-10
6.0893e-08
-6.04649e-10
6.09312e-08
-6.35469e-10
6.09987e-08
-6.63105e-10
6.11017e-08
-6.93487e-10
6.1247e-08
-7.34811e-10
6.14408e-08
-7.92784e-10
6.16893e-08
-8.77805e-10
6.19984e-08
-1.00346e-09
6.23727e-08
-1.19138e-09
6.28137e-08
-1.46914e-09
6.33173e-08
-1.87424e-09
6.3872e-08
-2.46428e-09
6.44488e-08
-3.30746e-09
6.49307e-08
-3.83812e-09
6.52782e-08
-4.08709e-09
6.5503e-08
-4.25022e-09
6.56128e-08
-4.3063e-09
6.56123e-08
-4.2136e-09
6.55242e-08
-4.01408e-09
6.53731e-08
-3.75737e-09
6.5173e-08
-3.44688e-09
6.49378e-08
-3.08236e-09
6.46838e-08
-2.67567e-09
6.44275e-08
-2.23951e-09
6.41844e-08
-1.78684e-09
6.39688e-08
-1.3313e-09
6.37931e-08
-8.86755e-10
6.36664e-08
-4.66388e-10
6.35938e-08
-8.15155e-11
6.35768e-08
2.57558e-10
6.36119e-08
5.45123e-10
6.36917e-08
7.77441e-10
6.38056e-08
9.54448e-10
6.39409e-08
1.07917e-09
6.40852e-08
1.1573e-09
1.19632e-09
6.4227e-08
7.81847e-08
-1.89327e-10
7.81504e-08
-2.3034e-10
7.81138e-08
-2.75089e-10
7.80761e-08
-3.22827e-10
7.80394e-08
-3.72681e-10
7.80065e-08
-4.23318e-10
7.79811e-08
-4.74413e-10
7.79663e-08
-5.24415e-10
7.79675e-08
-5.73294e-10
7.79863e-08
-6.2342e-10
7.80263e-08
-6.75433e-10
7.80953e-08
-7.32106e-10
7.81991e-08
-7.97322e-10
7.8341e-08
-8.76736e-10
7.85261e-08
-9.77896e-10
7.87604e-08
-1.11204e-09
7.90483e-08
-1.29138e-09
7.93939e-08
-1.53697e-09
7.97976e-08
-1.87289e-09
8.02536e-08
-2.33025e-09
8.07501e-08
-2.96078e-09
8.12544e-08
-3.81177e-09
8.16618e-08
-4.24546e-09
8.19418e-08
-4.36711e-09
8.2107e-08
-4.41541e-09
8.21562e-08
-4.35552e-09
8.20982e-08
-4.15562e-09
8.19705e-08
-3.88631e-09
8.17931e-08
-3.58002e-09
8.15732e-08
-3.22698e-09
8.13265e-08
-2.83565e-09
8.10694e-08
-2.41859e-09
8.08174e-08
-1.98749e-09
8.05845e-08
-1.55392e-09
8.03826e-08
-1.12946e-09
8.0221e-08
-7.25157e-10
8.01054e-08
-3.50776e-10
8.00381e-08
-1.41883e-11
8.00172e-08
2.78484e-10
8.00379e-08
5.24398e-10
8.00927e-08
7.2268e-10
8.01722e-08
8.74939e-10
8.02665e-08
9.84819e-10
8.03663e-08
1.05754e-09
1.09917e-09
8.04634e-08
9.87498e-08
-1.65145e-10
9.87252e-08
-2.05712e-10
9.87005e-08
-2.50387e-10
9.86767e-08
-2.99026e-10
9.86553e-08
-3.5129e-10
9.86388e-08
-4.06779e-10
9.86296e-08
-4.65259e-10
9.86312e-08
-5.26027e-10
9.8649e-08
-5.91037e-10
9.86834e-08
-6.57869e-10
9.87403e-08
-7.32308e-10
9.88253e-08
-8.17152e-10
9.89421e-08
-9.1405e-10
9.90949e-08
-1.02953e-09
9.92878e-08
-1.17084e-09
9.95255e-08
-1.34973e-09
9.98105e-08
-1.57642e-09
1.00145e-07
-1.87136e-09
1.00527e-07
-2.25482e-09
1.00947e-07
-2.75055e-09
1.01393e-07
-3.40696e-09
1.01827e-07
-4.24564e-09
1.02159e-07
-4.5772e-09
1.02373e-07
-4.58111e-09
1.02476e-07
-4.51814e-09
1.02457e-07
-4.33695e-09
1.02349e-07
-4.04784e-09
1.02196e-07
-3.73263e-09
1.01998e-07
-3.3821e-09
1.01765e-07
-2.99431e-09
1.01515e-07
-2.58525e-09
1.01262e-07
-2.16604e-09
1.01021e-07
-1.74649e-09
1.00803e-07
-1.33618e-09
1.00618e-07
-9.44181e-10
1.00471e-07
-5.78443e-10
1.00366e-07
-2.45517e-10
1.00302e-07
4.97712e-11
1.00276e-07
3.04491e-10
1.00283e-07
5.17788e-10
1.00315e-07
6.90454e-10