/*--------------------------------*- C++ -*----------------------------------*\
| =========                 |                                                 |
| \\      /  F ield         | OpenFOAM: The Open Source CFD Toolbox           |
|  \\    /   O peration     | Version:  2312                                  |
|   \\  /    A nd           | Website:  www.openfoam.com                      |
|    \\/     M anipulation  |                                                 |
\*---------------------------------------------------------------------------*/
FoamFile
{
    version     2.0;
    format      ascii;
    arch        "LSB;label=32;scalar=64";
    class       volVectorField;
    location    "31";
    object      U;
}
// * * * * * * * * * * * * * * * * * * * * * * * * * * * * * * * * * * * * * //

dimensions      [0 1 -1 0 0 0 0];

internalField   nonuniform List<vector> 
4800
(
(0.000476122 4.39989e-07 -3.09555e-26)
(0.000464482 4.79548e-07 -2.14202e-25)
(0.000456653 4.89552e-07 2.75906e-25)
(0.000451464 4.75099e-07 1.21973e-25)
(0.000448189 4.3954e-07 1.76585e-24)
(0.000446361 3.78541e-07 -4.18428e-24)
(0.000445749 3.14384e-07 3.85533e-24)
(0.00044625 2.30096e-07 -5.49517e-24)
(0.000447724 1.02912e-07 1.78502e-24)
(0.000450356 -1.44779e-07 5.91045e-24)
(0.000454513 -6.3636e-07 -1.82678e-24)
(0.000461495 -1.99347e-06 -1.64325e-25)
(0.000478323 -7.01417e-06 -2.17884e-24)
(0.000522232 -2.71973e-05 1.00422e-24)
(0.000594608 -8.78576e-05 -7.97446e-25)
(0.00146997 2.36336e-06 -9.74408e-26)
(0.00143496 1.87019e-06 1.21375e-25)
(0.00141142 1.48091e-06 -1.08823e-24)
(0.00139577 1.13666e-06 8.21135e-25)
(0.00138581 8.04201e-07 2.53299e-24)
(0.0013801 4.38222e-07 -4.00673e-24)
(0.00137793 3.15319e-08 -1.08554e-24)
(0.00137889 -4.84193e-07 -2.16962e-25)
(0.00138252 -1.20104e-06 8.96589e-24)
(0.00138949 -2.43237e-06 -6.60385e-24)
(0.00140075 -4.77892e-06 7.1979e-25)
(0.00141904 -1.04124e-05 1.07741e-24)
(0.00145283 -2.67573e-05 -1.57756e-24)
(0.00151234 -7.64003e-05 -4.66513e-25)
(0.00157611 -0.000187219 2.05479e-24)
(0.00256701 7.55166e-06 -6.93283e-26)
(0.00250746 5.91729e-06 7.0939e-26)
(0.0024674 4.65369e-06 7.0995e-25)
(0.00244072 3.56601e-06 -1.67754e-24)
(0.0024236 2.54754e-06 1.62283e-24)
(0.00241361 1.47266e-06 1.48182e-24)
(0.00240939 2.02303e-07 -3.80747e-24)
(0.00241025 -1.34665e-06 -2.26876e-24)
(0.00241521 -3.48161e-06 5.53518e-24)
(0.00242526 -6.9413e-06 2.05415e-24)
(0.00244129 -1.30892e-05 -7.17198e-24)
(0.00246535 -2.57661e-05 -1.04737e-24)
(0.0025014 -5.42469e-05 3.04605e-24)
(0.00254792 -0.000116802 4.75731e-24)
(0.0025807 -0.000219953 -2.455e-24)
(0.00377432 1.68094e-05 2.54897e-26)
(0.0036894 1.32039e-05 -1.76461e-25)
(0.00363221 1.04211e-05 7.76008e-25)
(0.00359397 8.04208e-06 8.01547e-25)
(0.00356924 5.83751e-06 -8.23618e-25)
(0.00355446 3.55468e-06 -4.55101e-24)
(0.00354755 9.3214e-07 -2.99993e-24)
(0.00354748 -2.30733e-06 1.13039e-23)
(0.00355261 -6.46899e-06 4.53288e-24)
(0.00356384 -1.30365e-05 -6.669e-24)
(0.0035813 -2.37714e-05 -2.66446e-24)
(0.00360523 -4.30263e-05 -2.00383e-24)
(0.00363487 -7.85328e-05 6.88544e-26)
(0.00366311 -0.000139659 1.4721e-24)
(0.00367244 -0.000220951 7.16664e-27)
(0.00509721 3.10221e-05 -4.65701e-26)
(0.00498684 2.44039e-05 -2.82984e-25)
(0.00491228 1.93008e-05 -1.6999e-25)
(0.00486217 1.49684e-05 4.79824e-25)
(0.00482941 1.09977e-05 -1.3084e-24)
(0.00480934 6.97176e-06 3.25263e-24)
(0.00479905 2.45795e-06 -5.83539e-25)
(0.00479689 -2.9183e-06 1.91926e-24)
(0.00480094 -9.6443e-06 -1.06569e-23)
(0.00481124 -1.96106e-05 2.01926e-23)
(0.00482688 -3.45161e-05 -1.94634e-23)
(0.00484645 -5.79244e-05 1.01928e-23)
(0.00486663 -9.45043e-05 -9.39618e-24)
(0.0048799 -0.000147028 8.83525e-24)
(0.00487639 -0.000207842 -3.51761e-24)
(0.00653759 5.12541e-05 6.13524e-26)
(0.00640305 4.04127e-05 2.18308e-25)
(0.00631167 3.20485e-05 -1.14091e-24)
(0.0062498 2.49934e-05 -6.91595e-25)
(0.00620882 1.85994e-05 1.89728e-24)
(0.00618303 1.2262e-05 6.60556e-25)
(0.0061687 5.36347e-06 -5.11303e-24)
(0.00616337 -2.49921e-06 1.21014e-23)
(0.00616499 -1.22019e-05 -1.55907e-23)
(0.00617242 -2.53133e-05 3.76401e-24)
(0.00618386 -4.33093e-05 1.11759e-23)
(0.00619697 -6.83476e-05 -1.54186e-23)
(0.00620795 -0.000102245 7.72132e-24)
(0.0062112 -0.000144406 7.83868e-24)
(0.00620226 -0.000188703 -5.96927e-24)
(0.00809158 7.84414e-05 5.0715e-26)
(0.00793649 6.21009e-05 -2.98786e-25)
(0.00783021 4.94501e-05 1.05662e-24)
(0.00775755 3.88287e-05 -1.45086e-24)
(0.0077087 2.93013e-05 -4.79392e-24)
(0.00767709 2.00671e-05 8.16477e-24)
(0.00765825 1.03458e-05 -4.86872e-24)
(0.00764901 -3.76643e-07 1.63257e-23)
(0.00764694 -1.29674e-05 -1.11272e-23)
(0.00765008 -2.87271e-05 -5.12551e-24)
(0.00765608 -4.85951e-05 -9.92793e-24)
(0.00766234 -7.34013e-05 9.1626e-24)
(0.00766573 -0.000103143 2.56045e-24)
(0.00766282 -0.000136093 2.17127e-24)
(0.00765218 -0.000168228 -1.91264e-24)
(0.00974675 0.000112938 -7.33315e-26)
(0.00957827 8.99892e-05 9.89168e-25)
(0.00946124 7.20772e-05 -2.2815e-24)
(0.00938018 5.70612e-05 -1.80082e-24)
(0.00932476 4.37033e-05 7.31077e-25)
(0.00928789 3.10186e-05 1.35461e-24)
(0.0092646 1.81127e-05 4.65591e-24)
(0.00925116 4.37741e-06 -1.24854e-23)
(0.00924476 -1.09338e-05 -6.46682e-24)
(0.00924298 -2.87151e-05 1.81498e-23)
(0.00924334 -4.93758e-05 -5.51677e-24)
(0.00924343 -7.2873e-05 1.88811e-23)
(0.00924109 -9.8414e-05 -9.93266e-24)
(0.00923442 -0.000124309 -3.14378e-24)
(0.00922344 -0.000148178 1.86133e-24)
(0.0114803 0.000153871 -9.7789e-27)
(0.01131 0.00012377 5.48087e-25)
(0.0111894 9.99259e-05 -7.77731e-25)
(0.0111044 7.98702e-05 1.81162e-24)
(0.0110452 6.21183e-05 -1.0651e-23)
(0.0110047 4.55471e-05 1.12028e-23)
(0.0109779 2.92097e-05 -1.72312e-23)
(0.0109607 1.24601e-05 1.06765e-23)
(0.0109502 -5.28265e-06 7.8004e-24)
(0.0109438 -2.45076e-05 1.6627e-23)
(0.0109392 -4.52439e-05 -2.16991e-23)
(0.0109344 -6.70545e-05 -3.94285e-24)
(0.0109281 -8.90349e-05 1.87333e-24)
(0.0109192 -0.000109958 1.30456e-23)
(0.0109083 -0.00012852 -5.30254e-24)
(0.0132612 0.000198423 5.44527e-26)
(0.0131043 0.000161684 -2.32649e-25)
(0.0129901 0.000131889 1.01849e-24)
(0.012908 0.00010658 -3.51656e-24)
(0.0128495 8.41846e-05 5.2719e-24)
(0.0128085 6.35364e-05 -6.69346e-24)
(0.0127802 4.37104e-05 1.10676e-23)
(0.0127608 2.40949e-05 1.8298e-24)
(0.0127474 4.2669e-06 -1.49849e-23)
(0.0127376 -1.59684e-05 2.10893e-23)
(0.0127295 -3.64519e-05 -2.32003e-23)
(0.0127216 -5.66964e-05 -6.73116e-24)
(0.012713 -7.59974e-05 1.19582e-23)
(0.012703 -9.36216e-05 3.52848e-24)
(0.0126924 -0.000108923 -1.54087e-24)
(0.0150605 0.000241732 2.24015e-25)
(0.0149316 0.000200142 -1.82253e-24)
(0.0148347 0.000165302 -2.81798e-24)
(0.0147632 0.000135197 6.74262e-24)
(0.0147112 0.000108413 2.90502e-24)
(0.0146739 8.38861e-05 -1.82246e-23)
(0.0146473 6.0799e-05 5.70724e-24)
(0.0146281 3.86324e-05 4.05132e-24)
(0.014614 1.70985e-05 -1.68419e-23)
(0.0146028 -3.85882e-06 1.76961e-23)
(0.0145931 -2.40451e-05 -1.38652e-23)
(0.0145839 -4.31018e-05 3.57771e-23)
(0.0145746 -6.06022e-05 -1.71318e-23)
(0.0145648 -7.6196e-05 1.00675e-23)
(0.0145551 -8.96245e-05 -2.74577e-24)
(0.0168695 0.000278673 -9.05157e-26)
(0.016775 0.000234605 1.24482e-24)
(0.0167019 0.000196317 -2.39544e-24)
(0.0166468 0.000162501 -1.16165e-24)
(0.016606 0.000132121 1.30642e-23)
(0.0165762 0.000104348 -2.02102e-24)
(0.0165544 7.85493e-05 -2.27437e-23)
(0.0165382 5.43297e-05 2.6269e-23)
(0.0165257 3.1502e-05 -5.9501e-24)
(0.0165154 1.00398e-05 -2.01225e-23)
(0.0165064 -9.93656e-06 2.13634e-23)
(0.0164978 -2.82397e-05 1.14042e-23)
(0.0164895 -4.46849e-05 -9.68891e-24)
(0.0164809 -5.91782e-05 -1.66676e-23)
(0.0164729 -7.1681e-05 1.39802e-24)
(0.0187088 0.000307505 3.79176e-27)
(0.0186431 0.00026241 -1.39311e-24)
(0.0185919 0.000222005 6.50201e-24)
(0.0185532 0.000185611 3.07412e-25)
(0.0185245 0.000152594 3.48252e-24)
(0.0185034 0.0001224 -1.28013e-23)
(0.0184878 9.45939e-05 1.07207e-23)
(0.018476 6.88955e-05 2.32583e-24)
(0.0184667 4.51647e-05 2.15981e-23)
(0.0184588 2.33531e-05 -3.35953e-23)
(0.0184519 3.47531e-06 -1.5082e-23)
(0.0184452 -1.44527e-05 -9.89683e-24)
(0.0184389 -3.04145e-05 1.87156e-23)
(0.0184324 -4.44665e-05 -5.35362e-25)
(0.0184265 -5.66908e-05 1.81193e-24)
(0.020607 0.000331287 -1.73362e-26)
(0.0205584 0.000285147 1.42247e-24)
(0.0205213 0.000242967 -2.06503e-24)
(0.0204937 0.000204492 8.60326e-27)
(0.0204736 0.00016939 2.61269e-24)
(0.0204589 0.000137325 6.54265e-24)
(0.0204482 0.000108003 -2.5343e-23)
(0.02044 8.12031e-05 2.24258e-24)
(0.0204336 5.67732e-05 1.2786e-23)
(0.0204282 3.46039e-05 -5.80174e-24)
(0.0204234 1.46134e-05 1.58941e-23)
(0.0204187 -3.30373e-06 1.10751e-23)
(0.0204145 -1.92504e-05 -2.01386e-23)
(0.0204101 -3.33638e-05 1.37697e-23)
(0.0204063 -4.57877e-05 -1.1461e-23)
(0.0225545 0.000353386 -5.70256e-25)
(0.0225168 0.000306104 2.64487e-25)
(0.0224882 0.000262184 2.40582e-24)
(0.022467 0.000221758 -1.2234e-23)
(0.0224516 0.00018475 1.07647e-23)
(0.0224404 0.000150994 -7.70726e-24)
(0.0224322 0.000120292 5.56171e-24)
(0.022426 9.24376e-05 -3.88009e-23)
(0.0224212 6.72378e-05 5.60435e-23)
(0.0224171 4.45016e-05 -3.28581e-23)
(0.0224136 2.40515e-05 2.93469e-23)
(0.0224103 5.71397e-06 2.44972e-23)
(0.0224075 -1.06871e-05 -4.28493e-23)
(0.0224045 -2.53326e-05 1.39555e-23)
(0.0224021 -3.83955e-05 -5.87314e-25)
(0.0244856 0.000373005 -2.12156e-26)
(0.0244593 0.000325376 -1.69014e-25)
(0.0244389 0.000280375 1.26213e-25)
(0.0244236 0.000238539 -3.30459e-25)
(0.0244123 0.000200048 4.29174e-24)
(0.024404 0.000164887 -7.36401e-24)
(0.0243979 0.000132936 6.82451e-24)
(0.0243932 0.000104005 -2.15346e-23)
(0.0243895 7.78836e-05 4.89734e-23)
(0.0243863 5.43324e-05 -6.26806e-23)
(0.0243838 3.31118e-05 5.1378e-23)
(0.0243813 1.39861e-05 -1.73672e-23)
(0.0243793 -3.26019e-06 9.08398e-25)
(0.0243773 -1.88365e-05 4.01375e-24)
(0.0243758 -3.29185e-05 -7.69456e-24)
(0.0263012 0.000387184 -1.81988e-24)
(0.0262873 0.000340292 3.41069e-24)
(0.0262762 0.000295224 -1.30829e-24)
(0.0262678 0.000252872 -1.52457e-24)
(0.0262616 0.000213645 6.43103e-24)
(0.026257 0.000177653 -6.59132e-24)
(0.0262538 0.000144831 -6.01574e-24)
(0.0262513 0.000115009 -1.46051e-23)
(0.0262494 8.79684e-05 7.39485e-24)
(0.0262478 6.34761e-05 3.56842e-23)
(0.0262466 4.12828e-05 -1.88905e-23)
(0.0262453 2.11504e-05 1.13422e-23)
(0.0262443 2.84192e-06 -4.65128e-24)
(0.0262433 -1.38947e-05 -1.39381e-23)
(0.0262428 -2.92188e-05 7.15511e-24)
(0.0278866 0.000394295 6.16323e-25)
(0.0278836 0.000349001 -1.10086e-24)
(0.0278812 0.000304775 -7.9183e-25)
(0.0278795 0.000262756 5.87974e-25)
(0.0278785 0.000223529 -2.04015e-24)
(0.027878 0.000187305 8.64344e-24)
(0.027878 0.00015407 -7.22773e-24)
(0.0278782 0.000123675 -4.93351e-24)
(0.0278786 9.58944e-05 4.46098e-24)
(0.027879 7.04943e-05 -5.48279e-24)
(0.0278794 4.72372e-05 1.27548e-23)
(0.0278798 2.5908e-05 6.62031e-24)
(0.0278801 6.32316e-06 -2.46825e-23)
(0.0278803 -1.17558e-05 1.71535e-23)
(0.0278809 -2.84804e-05 -3.52177e-24)
(0.0290939 0.000393989 1.87475e-24)
(0.0291002 0.000350953 3.55241e-24)
(0.0291053 0.000308363 -7.73968e-24)
(0.0291096 0.000267481 -1.54285e-24)
(0.0291136 0.000228981 3.50626e-24)
(0.0291171 0.000193129 -1.28979e-24)
(0.0291204 0.00015996 -3.89256e-24)
(0.0291234 0.000129367 6.65935e-24)
(0.029126 0.000101168 9.33529e-24)
(0.0291283 7.51167e-05 -2.30237e-23)
(0.0291305 5.09894e-05 1.36607e-23)
(0.0291324 2.85542e-05 -9.81514e-25)
(0.0291342 7.60641e-06 -8.62115e-25)
(0.0291358 -1.18888e-05 1.18099e-24)
(0.0291377 -3.0116e-05 -5.50966e-25)
(0.0297153 0.000381368 -5.05227e-24)
(0.0297305 0.000341214 -1.19865e-23)
(0.0297432 0.000301074 4.95998e-24)
(0.029754 0.000262184 2.4188e-23)
(0.0297634 0.000225216 -7.12252e-24)
(0.0297716 0.000190456 -3.76847e-24)
(0.0297789 0.000157966 2.33273e-24)
(0.0297854 0.000127686 2.30398e-24)
(0.0297912 9.94753e-05 -1.53911e-24)
(0.0297962 7.31549e-05 7.27817e-27)
(0.0298005 4.85793e-05 2.03471e-24)
(0.0298042 2.55953e-05 -2.54752e-24)
(0.0298077 3.91867e-06 -3.91346e-24)
(0.0298111 -1.65458e-05 6.18757e-24)
(0.029814 -3.59224e-05 -2.83301e-24)
(0.0295417 0.000362232 8.22649e-24)
(0.0295628 0.000325025 -1.95118e-23)
(0.029581 0.000287557 2.69051e-24)
(0.0295967 0.000250928 3.31717e-23)
(0.0296105 0.00021577 -3.3903e-23)
(0.0296227 0.000182359 1.356e-23)
(0.0296336 0.000150782 1.36918e-23)
(0.0296433 0.000120986 -3.2017e-23)
(0.029652 9.28687e-05 4.69422e-25)
(0.0296598 6.63483e-05 1.07737e-23)
(0.029667 4.12817e-05 2.75831e-24)
(0.0296732 1.75062e-05 -1.38511e-24)
(0.0296783 -4.87958e-06 8.24288e-25)
(0.0296831 -2.60705e-05 7.81758e-26)
(0.0296874 -4.6235e-05 -1.43009e-25)
(0.02865 0.000333889 5.22649e-24)
(0.028678 0.000299959 -1.13352e-23)
(0.0287016 0.000265693 -8.95322e-24)
(0.0287214 0.000232002 4.19706e-23)
(0.0287382 0.000199422 -4.05914e-23)
(0.0287526 0.000168188 3.67904e-24)
(0.0287649 0.000138372 7.51302e-24)
(0.0287753 0.000109951 4.94698e-24)
(0.0287842 8.28808e-05 5.65262e-24)
(0.0287917 5.70768e-05 -3.06409e-23)
(0.0287977 3.24694e-05 1.92839e-23)
(0.0288032 9.0038e-06 3.01452e-25)
(0.0288081 -1.3277e-05 1.01392e-23)
(0.0288122 -3.45326e-05 -4.69055e-24)
(0.0288153 -5.48849e-05 -9.39676e-25)
(0.0271378 0.000297969 1.32342e-23)
(0.0271713 0.000267443 -2.39985e-23)
(0.0272005 0.000236651 4.76609e-24)
(0.0272256 0.000206309 -1.38832e-23)
(0.0272475 0.000176827 -2.00556e-23)
(0.0272666 0.000148377 6.47089e-23)
(0.0272832 0.000121026 -2.65941e-23)
(0.0272977 9.47753e-05 8.28489e-24)
(0.0273103 6.95993e-05 -4.92069e-24)
(0.0273213 4.5475e-05 -1.4877e-23)
(0.0273308 2.23825e-05 2.92169e-23)
(0.027339 2.73472e-07 -1.78646e-23)
(0.0273459 -2.1145e-05 2.12004e-24)
(0.0273515 -4.18722e-05 3.31466e-24)
(0.027356 -6.18067e-05 -4.13431e-25)
(0.0253181 0.000262672 5.15283e-24)
(0.0253561 0.000235272 -2.77287e-23)
(0.0253895 0.000207647 4.99285e-23)
(0.0254185 0.000180346 -3.96829e-23)
(0.0254439 0.000153677 4.28137e-23)
(0.025466 0.000127769 -1.33651e-23)
(0.0254853 0.00010268 -9.98182e-24)
(0.0255021 7.84309e-05 -1.24839e-23)
(0.0255167 5.50056e-05 2.48908e-23)
(0.0255292 3.2356e-05 1.11667e-24)
(0.0255398 1.04401e-05 -2.63071e-23)
(0.0255488 -1.07253e-05 -4.30321e-24)
(0.0255562 -3.11811e-05 7.47842e-24)
(0.0255621 -5.09023e-05 -1.83685e-24)
(0.0255666 -6.98588e-05 4.37815e-25)
(0.0233249 0.000225884 6.90523e-25)
(0.0233668 0.000201578 -1.05531e-23)
(0.0234035 0.000177062 -6.73347e-24)
(0.0234354 0.000152746 5.24339e-23)
(0.0234632 0.000128864 -5.33302e-23)
(0.0234874 0.000105527 1.60305e-23)
(0.0235083 8.27956e-05 2.91541e-24)
(0.0235263 6.06878e-05 -1.64951e-24)
(0.0235416 3.92235e-05 -8.62208e-24)
(0.0235545 1.84242e-05 3.93287e-23)
(0.0235652 -1.68125e-06 -3.21193e-23)
(0.0235739 -2.11246e-05 -1.93919e-24)
(0.0235806 -3.9892e-05 3.21518e-24)
(0.0235855 -5.79697e-05 3.486e-24)
(0.0235886 -7.53606e-05 -2.79724e-24)
(0.0212558 0.000189264 1.03156e-24)
(0.0212996 0.000168093 9.90672e-24)
(0.021338 0.000146713 -1.12941e-23)
(0.0213712 0.000125448 -8.57079e-24)
(0.0213999 0.000104482 5.69441e-23)
(0.0214247 8.39128e-05 -4.35436e-23)
(0.0214457 6.38079e-05 -7.21302e-25)
(0.0214635 4.42181e-05 -1.0275e-23)
(0.0214783 2.5194e-05 -1.15492e-24)
(0.0214903 6.76338e-06 1.37997e-24)
(0.0214996 -1.11039e-05 -7.38985e-24)
(0.0215066 -2.84034e-05 5.22924e-24)
(0.0215111 -4.51013e-05 1.71953e-24)
(0.0215135 -6.11897e-05 1.8226e-24)
(0.0215138 -7.66547e-05 2.83609e-24)
(0.0191758 0.000154855 7.36232e-24)
(0.0192195 0.000136834 -1.14458e-23)
(0.0192576 0.000118615 -1.00653e-23)
(0.0192903 0.000100468 3.09007e-23)
(0.0193183 8.25283e-05 -1.10342e-23)
(0.0193421 6.4896e-05 -1.7167e-23)
(0.0193619 4.76316e-05 5.83912e-24)
(0.0193781 3.08014e-05 1.48739e-23)
(0.019391 1.44074e-05 -2.50804e-23)
(0.0194007 -1.51885e-06 2.60912e-23)
(0.0194075 -1.69737e-05 -1.48349e-23)
(0.0194116 -3.19231e-05 6.90132e-24)
(0.0194129 -4.63454e-05 -1.03588e-23)
(0.0194118 -6.02185e-05 1.09027e-23)
(0.0194082 -7.3516e-05 -2.9022e-24)
(0.0171288 0.00012407 -1.42874e-24)
(0.0171707 0.000109126 -5.23614e-24)
(0.0172068 9.40103e-05 -1.74972e-23)
(0.0172376 7.89401e-05 4.89981e-23)
(0.0172637 6.40138e-05 -8.28948e-24)
(0.0172853 4.93081e-05 -1.46854e-23)
(0.0173028 3.48872e-05 5.72138e-24)
(0.0173165 2.07915e-05 -8.18587e-24)
(0.0173267 7.04663e-06 -1.97473e-23)
(0.0173336 -6.34404e-06 1.8885e-23)
(0.0173372 -1.93139e-05 9.12644e-25)
(0.0173379 -3.18428e-05 -7.72052e-24)
(0.0173357 -4.39099e-05 8.73751e-24)
(0.0173308 -5.54905e-05 7.05374e-25)
(0.0173232 -6.65602e-05 -8.62652e-25)
(0.0151456 9.75682e-05 5.49287e-24)
(0.0151845 8.55131e-05 8.652e-24)
(0.0152178 7.33198e-05 -7.54978e-24)
(0.0152459 6.11462e-05 -1.82865e-23)
(0.0152692 4.90584e-05 2.56754e-23)
(0.0152882 3.71162e-05 -2.9258e-23)
(0.0153031 2.53874e-05 -1.9378e-24)
(0.0153141 1.39068e-05 1.19411e-23)
(0.0153214 2.73148e-06 4.44915e-24)
(0.0153253 -8.19995e-06 -1.04861e-23)
(0.015326 -1.87691e-05 -8.64206e-25)
(0.0153235 -2.8965e-05 2.4118e-23)
(0.015318 -3.877e-05 -9.34094e-24)
(0.0153098 -4.81615e-05 -2.70516e-24)
(0.0152987 -5.71164e-05 -1.97166e-25)
(0.0132485 7.53761e-05 -5.69904e-24)
(0.0132838 6.59265e-05 7.39333e-24)
(0.0133138 5.63708e-05 9.54514e-25)
(0.013339 4.68094e-05 1.68445e-23)
(0.0133596 3.72843e-05 -1.33777e-23)
(0.0133759 2.78583e-05 1.48943e-24)
(0.0133882 1.85848e-05 -1.27117e-24)
(0.0133967 9.50432e-06 -4.791e-24)
(0.0134016 6.36881e-07 4.92109e-24)
(0.013403 -8.00284e-06 -1.59875e-23)
(0.0134012 -1.63663e-05 5.50816e-25)
(0.0133963 -2.44352e-05 3.84915e-24)
(0.0133884 -3.21852e-05 2.70358e-24)
(0.0133777 -3.9596e-05 1.1905e-24)
(0.0133642 -4.6647e-05 5.3186e-25)
(0.0114529 5.71528e-05 4.21698e-24)
(0.0114845 4.99656e-05 -3.29672e-24)
(0.0115113 4.27025e-05 -1.57999e-23)
(0.0115336 3.54108e-05 1.48692e-23)
(0.0115516 2.81239e-05 2.25402e-23)
(0.0115656 2.09014e-05 -4.95355e-24)
(0.0115758 1.37834e-05 -1.1897e-23)
(0.0115823 6.80203e-06 -1.85234e-23)
(0.0115853 -3.93755e-08 1.43254e-23)
(0.011585 -6.65837e-06 1.07036e-24)
(0.0115816 -1.3091e-05 -3.6516e-24)
(0.0115751 -1.92983e-05 -1.21308e-24)
(0.0115657 -2.52546e-05 2.43988e-24)
(0.0115536 -3.09436e-05 -5.02197e-27)
(0.0115389 -3.63484e-05 -6.024e-25)
(0.00976878 4.24073e-05 -2.65221e-24)
(0.0097968 3.71178e-05 -2.06528e-24)
(0.00982053 3.17774e-05 2.29136e-24)
(0.00984017 2.63913e-05 -8.29757e-24)
(0.00985593 2.09931e-05 2.75403e-23)
(0.00986797 1.56317e-05 -3.8056e-23)
(0.00987648 1.03383e-05 3.88453e-23)
(0.00988158 5.14317e-06 -1.68724e-23)
(0.00988344 5.12217e-08 4.30683e-24)
(0.00988217 -4.88495e-06 3.85676e-25)
(0.00987793 -9.69074e-06 -3.43219e-24)
(0.00987086 -1.4324e-05 1.59445e-24)
(0.00986105 -1.87668e-05 -3.18371e-24)
(0.00984865 -2.30082e-05 -5.15572e-25)
(0.00983377 -2.70345e-05 2.79516e-25)
(0.00820142 3.06304e-05 -1.28845e-24)
(0.00822598 2.68795e-05 2.93448e-25)
(0.00824684 2.30961e-05 7.33071e-25)
(0.00826411 1.92578e-05 -3.74215e-24)
(0.00827793 1.54012e-05 -1.9231e-24)
(0.00828842 1.15626e-05 1.55694e-23)
(0.00829573 7.76508e-06 -9.30134e-24)
(0.00829996 4.03313e-06 1.48245e-24)
(0.00830124 3.86572e-07 -1.4037e-24)
(0.00829967 -3.1722e-06 -1.70683e-24)
(0.00829537 -6.64534e-06 -6.47092e-25)
(0.00828847 -9.98812e-06 3.67952e-24)
(0.00827907 -1.31913e-05 1.2991e-24)
(0.0082673 -1.62497e-05 -2.51093e-24)
(0.00825326 -1.91529e-05 -4.62409e-25)
(0.00675266 2.13588e-05 -4.68667e-25)
(0.0067739 1.88126e-05 -1.7816e-25)
(0.00679205 1.62465e-05 -8.14969e-24)
(0.00680714 1.36257e-05 1.88627e-24)
(0.00681925 1.09873e-05 -6.61554e-24)
(0.00682848 8.35512e-06 4.01346e-24)
(0.00683492 5.7446e-06 8.68784e-24)
(0.00683866 3.17198e-06 7.14794e-24)
(0.00683979 6.7114e-07 -1.03567e-23)
(0.00683841 -1.78523e-06 3.13992e-24)
(0.00683459 -4.19608e-06 3.04142e-24)
(0.00682847 -6.51166e-06 -4.76761e-24)
(0.00682012 -8.7278e-06 2.5684e-24)
(0.00680966 -1.08458e-05 -3.40577e-25)
(0.00679717 -1.28576e-05 8.62921e-25)
(0.00542163 1.4196e-05 -1.83691e-24)
(0.00543965 1.25589e-05 -2.6739e-24)
(0.00545518 1.09109e-05 -6.61037e-25)
(0.00546817 9.21602e-06 6.77901e-24)
(0.00547869 7.50733e-06 -5.08376e-24)
(0.0054868 5.7983e-06 -1.19843e-24)
(0.00549255 4.09854e-06 8.8125e-24)
(0.005496 2.41802e-06 2.26086e-25)
(0.00549722 7.72004e-07 -1.78816e-24)
(0.00549635 -8.05765e-07 -7.73159e-24)
(0.00549333 -2.40126e-06 5.41342e-25)
(0.00548834 -3.92578e-06 5.93915e-24)
(0.00548144 -5.38033e-06 -7.86186e-25)
(0.00547271 -6.77301e-06 -1.08854e-24)
(0.00546224 -8.09736e-06 7.55909e-25)
(0.00420546 8.80905e-06 -4.0193e-25)
(0.00422028 7.82933e-06 1.03345e-26)
(0.00423319 6.84596e-06 3.21204e-24)
(0.00424408 5.82831e-06 2.34925e-24)
(0.00425301 4.80133e-06 -1.39789e-24)
(0.00425999 3.77115e-06 -3.97915e-24)
(0.00426507 2.74346e-06 1.74784e-24)
(0.00426829 1.72428e-06 -7.6547e-24)
(0.00426966 7.11094e-07 5.90737e-24)
(0.00426935 -2.27768e-07 3.38497e-24)
(0.00426729 -1.20415e-06 2.28891e-25)
(0.00426357 -2.14313e-06 -4.06486e-24)
(0.00425828 -3.03241e-06 8.30402e-25)
(0.00425147 -3.88522e-06 -7.25829e-25)
(0.00424323 -4.69678e-06 3.88456e-25)
(0.0030997 4.91421e-06 -7.41179e-25)
(0.0031113 4.38344e-06 -1.01977e-26)
(0.00312152 3.85576e-06 2.5616e-24)
(0.00313023 3.30778e-06 -1.61137e-24)
(0.00313746 2.75472e-06 7.19094e-24)
(0.00314322 2.19858e-06 -1.33247e-23)
(0.00314754 1.64237e-06 1.13425e-23)
(0.00315043 1.0894e-06 -9.89562e-24)
(0.00315189 5.36307e-07 7.45493e-24)
(0.00315205 2.72745e-08 -5.01785e-24)
(0.00315089 -5.04296e-07 1.76908e-24)
(0.0031484 -1.02271e-06 2.7975e-25)
(0.00314469 -1.51059e-06 5.41959e-25)
(0.00313981 -1.97791e-06 -6.92561e-25)
(0.0031338 -2.42149e-06 1.60546e-25)
(0.00209878 2.27777e-06 1.12672e-24)
(0.00210711 2.03045e-06 1.29812e-24)
(0.00211454 1.79114e-06 -5.48814e-24)
(0.00212093 1.54312e-06 4.11517e-24)
(0.00212632 1.29314e-06 -1.49881e-27)
(0.00213069 1.04176e-06 1.22266e-24)
(0.00213406 7.91303e-07 -1.40274e-24)
(0.00213643 5.43184e-07 -3.25877e-24)
(0.00213781 2.9415e-07 3.3259e-24)
(0.00213825 6.79951e-08 4.3897e-25)
(0.00213779 -1.70891e-07 -3.009e-24)
(0.00213636 -4.03729e-07 1.08018e-24)
(0.00213407 -6.21277e-07 7.50976e-25)
(0.00213095 -8.29072e-07 -8.09493e-26)
(0.00212701 -1.02628e-06 -1.08066e-25)
(0.00119635 7.4001e-07 -1.13933e-24)
(0.00120137 6.64231e-07 3.56306e-24)
(0.00120589 5.94294e-07 2.30853e-24)
(0.00120982 5.19182e-07 -3.97532e-24)
(0.00121318 4.40724e-07 -4.75114e-25)
(0.00121596 3.5952e-07 -4.56033e-25)
(0.00121816 2.79982e-07 1.4851e-24)
(0.00121978 2.04942e-07 -2.57536e-24)
(0.00122081 1.27654e-07 3.71862e-24)
(0.00122129 5.80956e-08 -1.80469e-24)
(0.00122124 -1.54766e-08 -1.31348e-24)
(0.00122063 -8.75e-08 8.41079e-25)
(0.0012195 -1.50851e-07 -1.17381e-24)
(0.00121786 -2.15889e-07 1.22987e-24)
(0.00121574 -2.86967e-07 -2.34588e-25)
(0.000385586 1.50861e-07 -8.18577e-27)
(0.000387243 1.92752e-07 7.0398e-25)
(0.000388758 2.27738e-07 8.5856e-25)
(0.000390093 2.51689e-07 -1.29924e-24)
(0.000391254 2.64895e-07 2.93301e-24)
(0.000392235 2.67736e-07 -3.16944e-24)
(0.000393032 2.63051e-07 2.27104e-25)
(0.000393647 2.53447e-07 2.00399e-24)
(0.000394069 2.34745e-07 -2.78078e-24)
(0.000394308 2.09597e-07 -5.90048e-25)
(0.000394375 1.7755e-07 2.19715e-24)
(0.000394257 1.38856e-07 -9.97942e-25)
(0.000393964 9.8183e-08 -4.42906e-25)
(0.000393502 4.90288e-08 3.80926e-25)
(0.000392877 -1.16042e-08 -1.95324e-26)
(0.000879336 -0.000224802 7.82211e-26)
(0.00100622 -0.000140711 1.99362e-24)
(0.00122124 -5.32385e-05 -5.7151e-24)
(0.00144161 2.05717e-05 8.27365e-24)
(0.00165477 8.27327e-05 -3.10124e-24)
(0.00186586 0.000133893 -2.96528e-24)
(0.00207539 0.000176099 3.36945e-24)
(0.00228433 0.000210907 -6.68871e-24)
(0.00249356 0.00023946 3.79224e-25)
(0.00270363 0.000262623 4.27496e-24)
(0.00291495 0.000281082 -8.42044e-25)
(0.00312793 0.000295439 9.40424e-25)
(0.00334305 0.000306213 -7.49722e-26)
(0.00356105 0.000313747 6.80169e-25)
(0.00378296 0.000318135 -2.51886e-24)
(0.00401028 0.000319146 1.41187e-24)
(0.00424502 0.000316193 -5.05211e-25)
(0.00448995 0.00030827 9.27369e-27)
(0.0047488 0.000293849 1.29903e-24)
(0.00502636 0.000270637 -8.26094e-25)
(0.00532782 0.000234822 1.02286e-25)
(0.00565721 0.000180405 -8.7942e-26)
(0.00598664 0.000104461 1.47691e-25)
(0.00627378 1.37032e-05 5.01628e-25)
(0.00650629 -8.61215e-05 -9.04446e-25)
(0.00668568 -0.000190975 -4.87005e-25)
(0.00681409 -0.000296831 1.12469e-25)
(0.00689383 -0.000401248 1.04088e-24)
(0.00692773 -0.000502674 8.32169e-25)
(0.00691863 -0.000598838 -1.53875e-24)
(0.00686883 -0.000686478 -1.74006e-25)
(0.00678017 -0.000761508 1.27165e-24)
(0.00665441 -0.000818978 -8.5827e-25)
(0.00649334 -0.000853116 -2.78128e-24)
(0.00629889 -0.000857368 2.74823e-24)
(0.00607316 -0.000824299 1.25487e-23)
(0.00581833 -0.000745267 -4.22559e-24)
(0.00553672 -0.000609652 2.23101e-24)
(0.00523084 -0.000403469 8.72652e-25)
(0.00490386 -0.000107766 -1.5402e-23)
(0.0045587 0.000299839 -1.80753e-25)
(0.00419835 0.000832633 6.00282e-24)
(0.0038064 0.00145506 1.76847e-24)
(0.0033931 0.00202314 -8.28123e-24)
(0.00315734 0.00210578 -4.02664e-25)
(0.00166244 -0.000301275 -2.29295e-24)
(0.00171456 -0.00025091 -3.20702e-24)
(0.0018474 -0.00016641 6.72577e-24)
(0.00201503 -8.60031e-05 3.0984e-24)
(0.00219463 -1.44055e-05 -1.08268e-23)
(0.00238204 4.62489e-05 1.15187e-23)
(0.00257392 9.70344e-05 -4.12151e-24)
(0.00276901 0.000139447 3.30828e-24)
(0.00296696 0.00017474 -4.3732e-24)
(0.00316765 0.000203911 3.98186e-26)
(0.00337112 0.000227742 -2.47562e-24)
(0.00357754 0.000246901 4.96483e-24)
(0.00378724 0.000261944 -2.83784e-24)
(0.00400083 0.000273226 -2.83451e-24)
(0.00421923 0.000280854 -2.19157e-24)
(0.00444379 0.000284605 3.70571e-24)
(0.00467634 0.000283904 -5.94498e-25)
(0.00491942 0.000277755 2.32106e-24)
(0.00517635 0.000264652 4.37426e-25)
(0.00545141 0.000242379 -7.45092e-25)
(0.00574916 0.000207304 -3.18917e-25)
(0.00607304 0.000153824 -1.77371e-25)
(0.00639559 7.95466e-05 8.07593e-25)
(0.00667596 -8.55575e-06 8.21109e-25)
(0.00690265 -0.000104851 -8.76111e-25)
(0.00707747 -0.000205422 -3.18794e-24)
(0.00720255 -0.000306238 3.95081e-24)
(0.00728009 -0.000404837 -2.35027e-24)
(0.00731288 -0.000499684 7.48689e-25)
(0.00730391 -0.000588487 -5.50917e-26)
(0.00725565 -0.000667933 -5.95382e-25)
(0.00717023 -0.000733907 3.30884e-24)
(0.00704977 -0.000781479 -5.29019e-24)
(0.00689656 -0.000804925 1.56851e-23)
(0.00671322 -0.000797765 -2.26573e-23)
(0.00650282 -0.00075266 5.8847e-24)
(0.00626901 -0.000661118 2.09776e-23)
(0.00601631 -0.000512831 -6.41111e-24)
(0.00575075 -0.000294506 -1.55828e-23)
(0.00548155 1.16683e-05 -8.69645e-24)
(0.00522264 0.000427112 1.98311e-23)
(0.00499745 0.000966115 -1.86534e-23)
(0.00482957 0.00159533 -3.95998e-24)
(0.00475507 0.00216129 1.19651e-23)
(0.00481286 0.00218898 3.85877e-24)
(0.00259362 -0.000307342 -2.60392e-26)
(0.00259941 -0.000296569 -3.67561e-24)
(0.00265555 -0.00024328 7.1203e-24)
(0.00276099 -0.000173146 5.92274e-24)
(0.00289329 -0.000102526 -9.68903e-24)
(0.00304421 -3.82324e-05 2.00021e-25)
(0.00320758 1.78858e-05 9.27783e-25)
(0.00337981 6.60831e-05 1.0126e-23)
(0.00355895 0.00010709 -1.2022e-23)
(0.00374389 0.000141689 7.57125e-24)
(0.00393402 0.000170578 2.51061e-24)
(0.00412913 0.000194385 -1.33145e-23)
(0.00432926 0.000213645 4.84065e-24)
(0.00453478 0.000228692 2.10247e-24)
(0.00474643 0.000239619 -4.75741e-24)
(0.00496539 0.000246201 8.10154e-24)
(0.00519326 0.000247867 -6.00512e-24)
(0.00543226 0.000243626 -2.36693e-25)
(0.00568532 0.000231995 4.61475e-25)
(0.0059561 0.000210832 5.70845e-25)
(0.00624849 0.00017669 8.51791e-26)
(0.00656525 0.000124361 3.35991e-25)
(0.00687932 5.19763e-05 -7.96535e-25)
(0.00715146 -3.32431e-05 2.25686e-24)
(0.00737101 -0.000125772 -3.24414e-24)
(0.0075401 -0.000221819 1.80649e-24)
(0.00766087 -0.000317315 -3.16385e-24)
(0.00773536 -0.000409766 4.18853e-24)
(0.00776638 -0.000497676 -2.45392e-24)
(0.00775705 -0.00057875 1.25208e-24)
(0.00771008 -0.000649617 1.99662e-24)
(0.0076279 -0.000706151 -3.75644e-24)
(0.00751303 -0.000743471 1.88225e-24)
(0.00736828 -0.00075597 8.07075e-24)
(0.00719701 -0.000737371 -1.93986e-23)
(0.00700334 -0.000680667 2.9519e-23)
(0.00679238 -0.000577927 -1.92865e-23)
(0.00657082 -0.000419879 2.53711e-23)
(0.00634794 -0.000195282 -4.75972e-23)
(0.00613781 0.000109791 1.79215e-23)
(0.00596198 0.000510138 5.99881e-24)
(0.00585402 0.00101162 9.12515e-24)
(0.00585031 0.00157446 -1.13588e-23)
(0.00597028 0.00205146 3.31377e-24)
(0.00617168 0.00206799 -2.026e-24)
(0.00365859 -0.000288916 -9.68324e-25)
(0.00363812 -0.000302515 -1.47297e-24)
(0.00364562 -0.000278669 -6.29695e-24)
(0.0036913 -0.000231113 1.74848e-24)
(0.00377162 -0.000171464 1.14818e-24)
(0.00387757 -0.000111171 4.9166e-24)
(0.00400309 -5.49371e-05 -1.03023e-23)
(0.00414357 -4.40386e-06 3.89155e-24)
(0.00429582 4.00405e-05 1.3294e-23)
(0.00445777 7.85503e-05 -3.46211e-24)
(0.00462811 0.000111466 -3.39039e-24)
(0.00480613 0.00013922 -5.6536e-25)
(0.00499151 0.000162224 1.99104e-24)
(0.00518433 0.000180724 -4.04241e-24)
(0.00538508 0.000194755 8.74293e-25)
(0.00559471 0.00020406 -4.73823e-25)
(0.00581454 0.000208055 -2.55768e-24)
(0.00604648 0.000205747 7.59177e-25)
(0.00629297 0.000195671 4.62645e-24)
(0.00655706 0.000175759 -5.30478e-25)
(0.00684184 0.00014275 -1.08798e-24)
(0.00714927 9.18292e-05 -2.80379e-25)
(0.00745279 2.16414e-05 -1.39634e-24)
(0.00771478 -6.03689e-05 8.50888e-26)
(0.00792549 -0.000148813 -2.58547e-24)
(0.00808734 -0.000240015 4.78977e-24)
(0.00820249 -0.000329833 -3.16124e-24)
(0.00827282 -0.000415735 5.68355e-24)
(0.00830115 -0.000496299 -3.70177e-24)
(0.00829081 -0.000569257 1.24273e-24)
(0.00824477 -0.000631203 3.39118e-25)
(0.00816575 -0.000678036 -3.40925e-25)
(0.00805667 -0.000704992 -4.28803e-25)
(0.00792094 -0.000706697 -2.21788e-24)
(0.00776263 -0.000677255 3.37744e-24)
(0.00758684 -0.000610278 -8.81403e-24)
(0.00740003 -0.000498846 3.92421e-23)
(0.00721067 -0.00033543 -2.10472e-23)
(0.00703032 -0.000111927 -1.09196e-24)
(0.00687551 0.000179976 -4.1285e-23)
(0.00676977 0.000546077 3.1092e-23)
(0.00674548 0.000981579 -1.10964e-23)
(0.00683433 0.00144592 2.52646e-24)
(0.00703918 0.00182744 1.44057e-23)
(0.00730189 0.00190481 -3.70334e-24)
(0.00485472 -0.000260275 -4.00016e-24)
(0.00482398 -0.000285654 8.14025e-24)
(0.00480457 -0.000280064 2.2576e-24)