/*--------------------------------*- C++ -*----------------------------------*\
| =========                 |                                                 |
| \\      /  F ield         | OpenFOAM: The Open Source CFD Toolbox           |
|  \\    /   O peration     | Version:  2312                                  |
|   \\  /    A nd           | Website:  www.openfoam.com                      |
|    \\/     M anipulation  |                                                 |
\*---------------------------------------------------------------------------*/
FoamFile
{
    version     2.0;
    format      ascii;
    arch        "LSB;label=32;scalar=64";
    class       volVectorField;
    location    "145";
    object      U;
}
// * * * * * * * * * * * * * * * * * * * * * * * * * * * * * * * * * * * * * //

dimensions      [0 1 -1 0 0 0 0];

internalField   nonuniform List<vector> 
4800
(
(0.000494382 2.87418e-07 -2.9708e-26)
(0.000487539 3.40969e-07 -2.12001e-25)
(0.000483372 3.75459e-07 2.71212e-25)
(0.000481016 3.84487e-07 1.27597e-25)
(0.000480015 3.90018e-07 1.91258e-24)
(0.000480097 3.70362e-07 -4.57196e-24)
(0.000481207 3.28184e-07 4.31771e-24)
(0.000483229 2.53407e-07 -6.32503e-24)
(0.000486223 9.0118e-08 2.01634e-24)
(0.000490426 -2.08792e-07 6.98805e-24)
(0.000496299 -7.79158e-07 -2.15094e-24)
(0.000505162 -2.29124e-06 -1.7677e-25)
(0.00052455 -7.79942e-06 -2.6518e-24)
(0.000573523 -3.01907e-05 1.22607e-24)
(0.000655093 -9.93195e-05 -9.71907e-25)
(0.00152806 1.46213e-06 -9.47048e-26)
(0.00150653 1.07004e-06 1.18114e-25)
(0.00149297 7.51358e-07 -1.11768e-24)
(0.00148485 4.453e-07 8.28878e-25)
(0.00148079 1.4941e-07 2.74557e-24)
(0.00147997 -1.95415e-07 -4.38497e-24)
(0.00148212 -6.38936e-07 -1.28536e-24)
(0.00148685 -1.21134e-06 -3.32043e-25)
(0.00149442 -2.10377e-06 1.05558e-23)
(0.00150538 -3.57571e-06 -7.82589e-24)
(0.00152102 -6.2811e-06 8.52042e-25)
(0.00154421 -1.25406e-05 1.30918e-24)
(0.00158415 -3.04478e-05 -1.94065e-24)
(0.00165228 -8.52715e-05 -5.79036e-25)
(0.00172603 -0.000210505 2.5285e-24)
(0.00266931 4.77053e-06 -6.79107e-26)
(0.00263152 3.52206e-06 6.9292e-26)
(0.00260711 2.54035e-06 7.31358e-25)
(0.0025919 1.64385e-06 -1.75681e-24)
(0.00258355 7.18939e-07 1.7436e-24)
(0.00258062 -3.50181e-07 1.65871e-24)
(0.00258265 -1.71101e-06 -4.27166e-24)
(0.00258871 -3.47451e-06 -2.72434e-24)
(0.00259937 -6.08093e-06 6.53439e-24)
(0.00261511 -1.01622e-05 2.49212e-24)
(0.00263733 -1.72627e-05 -8.65451e-24)
(0.00266829 -3.15115e-05 -1.32852e-24)
(0.00271221 -6.29532e-05 3.70894e-24)
(0.0027679 -0.000132485 5.88292e-24)
(0.00280864 -0.000249778 -3.03896e-24)
(0.00392342 1.07886e-05 2.5125e-26)
(0.00386828 8.14018e-06 -1.76241e-25)
(0.00383181 6.06306e-06 7.96483e-25)
(0.00380824 4.17859e-06 8.76858e-25)
(0.00379433 2.24157e-06 -8.49161e-25)
(0.00378792 2.58871e-08 -5.06295e-24)
(0.00378847 -2.80396e-06 -3.49109e-24)
(0.00379419 -6.27556e-06 1.29795e-23)
(0.00380583 -1.14243e-05 5.51447e-24)
(0.00382356 -1.91525e-05 -7.88604e-24)
(0.00384793 -3.161e-05 -3.19442e-24)
(0.00387944 -5.35192e-05 -2.45177e-24)
(0.0039172 -9.32953e-05 7.00429e-26)
(0.0039537 -0.000161888 1.81894e-24)
(0.0039693 -0.000255212 8.90729e-27)
(0.00529307 2.01182e-05 -4.61019e-26)
(0.00522051 1.54471e-05 -2.8478e-25)
(0.00517136 1.17823e-05 -1.88577e-25)
(0.00513851 8.47212e-06 4.90938e-25)
(0.00511791 5.11109e-06 -1.44189e-24)
(0.00510678 1.28439e-06 3.60814e-24)
(0.00510408 -3.44203e-06 -6.20841e-25)
(0.00510791 -9.13351e-06 2.25099e-24)
(0.00511818 -1.72847e-05 -1.26553e-23)
(0.00513477 -2.90299e-05 2.42322e-23)
(0.00515698 -4.64566e-05 -2.35119e-23)
(0.00518355 -7.34828e-05 1.24554e-23)
(0.00521087 -0.000115183 -1.16007e-23)
(0.00523083 -0.000175049 1.09734e-23)
(0.00523214 -0.000245774 -4.38388e-24)
(0.00677652 3.33677e-05 6.08332e-26)
(0.0066883 2.60617e-05 2.20246e-25)
(0.00662701 2.03198e-05 -1.17138e-24)
(0.00658475 1.51542e-05 -7.68314e-25)
(0.00655682 9.96555e-06 2.02571e-24)
(0.00654006 4.14746e-06 7.42807e-25)
(0.00653262 -2.72675e-06 -5.85463e-24)
(0.00653285 -1.11996e-05 1.40497e-23)
(0.00653975 -2.25179e-05 -1.83779e-23)
(0.0065523 -3.79194e-05 4.39302e-24)
(0.00656903 -5.91153e-05 1.35418e-23)
(0.00658756 -8.84674e-05 -1.88879e-23)
(0.00660381 -0.000127932 9.46353e-24)
(0.0066117 -0.000177074 9.7761e-24)
(0.00660597 -0.000229665 -7.44757e-24)
(0.00836529 5.08237e-05 5.01843e-26)
(0.00826601 4.04188e-05 -2.99059e-25)
(0.00819508 3.2202e-05 1.08514e-24)
(0.00814462 2.4822e-05 -1.51935e-24)
(0.00810974 1.7467e-05 -5.2763e-24)
(0.00808707 9.38842e-06 9.00291e-24)
(0.00807427 1.30554e-08 -5.53485e-24)
(0.00806951 -1.12201e-05 1.90166e-23)
(0.00807129 -2.55025e-05 -1.29239e-23)
(0.00807786 -4.38647e-05 -6.09357e-24)
(0.00808722 -6.7325e-05 -1.20975e-23)
(0.0080967 -9.67764e-05 1.11066e-23)
(0.008103 -0.000132165 3.13908e-24)
(0.00810238 -0.000171637 2.70885e-24)
(0.00809302 -0.000210915 -2.38424e-24)
(0.010042 7.19822e-05 -7.21069e-26)
(0.00993994 5.8387e-05 9.88515e-25)
(0.00986459 4.75388e-05 -2.32278e-24)
(0.00980918 3.77663e-05 -1.9627e-24)
(0.00976926 2.80673e-05 6.88579e-25)
(0.00974162 1.76096e-05 1.42389e-24)
(0.00972377 5.72039e-06 5.26974e-24)
(0.0097137 -8.14332e-06 -1.45023e-23)
(0.00970958 -2.48921e-05 -7.87678e-24)
(0.00970938 -4.52304e-05 2.14448e-23)
(0.00971094 -6.94902e-05 -6.73091e-24)
(0.00971191 -9.75482e-05 2.30302e-23)
(0.00971001 -0.000128447 -1.21422e-23)
(0.00970323 -0.000160272 -3.90018e-24)
(0.00969146 -0.000190367 2.31271e-24)
(0.0117796 9.49865e-05 -9.5156e-27)
(0.0116869 7.8776e-05 5.45703e-25)
(0.0116154 6.55922e-05 -7.79653e-25)
(0.0115607 5.3588e-05 1.91572e-24)
(0.0115197 4.16569e-05 -1.15519e-23)
(0.0114897 2.8955e-05 1.22352e-23)
(0.0114684 1.48191e-05 -1.96101e-23)
(0.0114541 -1.23764e-06 1.20014e-23)
(0.0114447 -1.97399e-05 9.03154e-24)
(0.0114383 -4.10097e-05 1.98411e-23)
(0.011433 -6.48799e-05 -2.59489e-23)
(0.011427 -9.07236e-05 -4.86822e-24)
(0.011419 -0.000117408 2.19184e-24)
(0.0114078 -0.00014346 1.60645e-23)
(0.0113942 -0.000167331 -6.54811e-24)
(0.0135461 0.000116245 5.23344e-26)
(0.0134765 9.88819e-05 -2.28556e-25)
(0.013419 8.43027e-05 1.036e-24)
(0.0133727 7.07277e-05 -3.6801e-24)
(0.0133362 5.70968e-05 5.62817e-24)
(0.0133081 4.2655e-05 -7.35871e-24)
(0.0132867 2.685e-05 1.24286e-23)
(0.0132705 9.35555e-06 2.26178e-24)
(0.0132579 -1.00626e-05 -1.73491e-23)
(0.0132473 -3.12682e-05 2.49171e-23)
(0.0132373 -5.38721e-05 -2.7551e-23)
(0.0132266 -7.71432e-05 -8.21551e-24)
(0.0132147 -0.000100111 1.44176e-23)
(0.013201 -0.000121795 4.30728e-24)
(0.0131862 -0.000141333 -1.88507e-24)
(0.0153166 0.000130948 2.13956e-25)
(0.0152798 0.000114613 -1.78852e-24)
(0.0152451 0.000100191 -2.92923e-24)
(0.0152145 8.62332e-05 6.90818e-24)
(0.0151887 7.18991e-05 3.17325e-24)
(0.0151673 5.66328e-05 -1.99518e-23)
(0.0151499 4.0089e-05 6.07997e-24)
(0.0151353 2.216e-05 4.4239e-24)
(0.0151226 2.87437e-06 -1.96577e-23)
(0.0151108 -1.73908e-05 2.03657e-23)
(0.015099 -3.81406e-05 -1.65764e-23)
(0.0150865 -5.87266e-05 4.24804e-23)
(0.0150733 -7.84443e-05 -2.05276e-23)
(0.0150588 -9.67053e-05 1.21266e-23)
(0.015044 -0.000113047 -3.31685e-24)
(0.0170889 0.000135278 -8.96711e-26)
(0.0170849 0.000121983 1.2286e-24)
(0.0170752 0.000109388 -2.39457e-24)
(0.0170636 9.6456e-05 -1.24879e-24)
(0.0170519 8.26769e-05 1.39126e-23)
(0.0170408 6.77673e-05 -1.93174e-24)
(0.0170305 5.16469e-05 -2.51122e-23)
(0.0170206 3.44124e-05 2.94998e-23)
(0.017011 1.63573e-05 -6.591e-24)
(0.0170009 -2.15982e-06 -2.32125e-23)
(0.0169902 -2.06075e-05 2.48809e-23)
(0.0169786 -3.84667e-05 1.35648e-23)
(0.0169663 -5.52639e-05 -1.12893e-23)
(0.016953 -7.06716e-05 -1.97602e-23)
(0.0169397 -8.44544e-05 1.66288e-24)
(0.0188881 0.000129452 1.00259e-26)
(0.0189054 0.000119857 -1.40517e-24)
(0.0189143 0.000110026 6.60922e-24)
(0.018918 9.91337e-05 4.55165e-25)
(0.0189187 8.69437e-05 3.87514e-24)
(0.0189173 7.3443e-05 -1.36812e-23)
(0.0189145 5.87853e-05 1.18386e-23)
(0.0189103 4.32562e-05 2.78483e-24)
(0.0189049 2.72317e-05 2.47267e-23)
(0.0188983 1.11125e-05 -3.8031e-23)
(0.0188904 -4.6714e-06 -1.73532e-23)
(0.0188813 -1.97484e-05 -1.15789e-23)
(0.0188715 -3.38079e-05 2.17225e-23)
(0.0188606 -4.66699e-05 -6.34478e-25)
(0.0188497 -5.82175e-05 2.11908e-24)
(0.020741 0.000117641 -9.65793e-27)
(0.0207655 0.000111192 1.50619e-24)
(0.020782 0.000104065 -2.19187e-24)
(0.020793 9.55002e-05 3.03311e-27)
(0.0208001 8.53678e-05 2.79371e-24)
(0.0208041 7.38236e-05 7.16397e-24)
(0.0208058 6.11994e-05 -2.78216e-23)
(0.0208054 4.78968e-05 2.27564e-24)
(0.0208032 3.43266e-05 1.42212e-23)
(0.0207993 2.08551e-05 -6.63015e-24)
(0.020794 7.80679e-06 1.80736e-23)
(0.0207874 -4.56508e-06 1.27455e-23)
(0.0207801 -1.60657e-05 -2.30992e-23)
(0.0207717 -2.66004e-05 1.58756e-23)
(0.0207632 -3.61122e-05 -1.31951e-23)
(0.0226406 0.000104334 -3.43462e-25)
(0.0226635 0.000100265 -1.20176e-25)
(0.02268 9.52753e-05 2.7757e-24)
(0.0226917 8.89243e-05 -1.34762e-23)
(0.0226997 8.10542e-05 1.18137e-23)
(0.0227046 7.17536e-05 -8.53342e-24)
(0.0227071 6.13995e-05 6.11761e-24)
(0.0227075 5.04641e-05 -4.35917e-23)
(0.0227063 3.9367e-05 6.29313e-23)
(0.0227034 2.84241e-05 -3.72216e-23)
(0.0226993 1.78888e-05 3.32816e-23)
(0.022694 7.93678e-06 2.79617e-23)
(0.022688 -1.30696e-06 -4.8863e-23)
(0.0226811 -9.79616e-06 1.59209e-23)
(0.0226741 -1.75056e-05 -6.69613e-25)
(0.0245332 9.11308e-05 -1.22655e-26)
(0.0245523 8.9502e-05 -9.19922e-25)
(0.0245661 8.64466e-05 9.40596e-25)
(0.024576 8.20512e-05 -3.86482e-25)
(0.0245826 7.64352e-05 5.06693e-24)
(0.0245863 6.95679e-05 -8.61686e-24)
(0.024588 6.16894e-05 7.91211e-24)
(0.0245877 5.32358e-05 -2.48804e-23)
(0.0245861 4.46e-05 5.65438e-23)
(0.024583 3.6046e-05 -7.23379e-23)
(0.024579 2.77799e-05 5.92618e-23)
(0.024574 1.99467e-05 -2.00171e-23)
(0.0245685 1.26497e-05 1.04217e-24)
(0.0245623 5.92052e-06 4.59764e-24)
(0.0245559 -2.27172e-07 -8.81171e-24)
(0.0263293 7.78589e-05 -9.7677e-25)
(0.0263453 7.88712e-05 7.53065e-25)
(0.0263562 7.81798e-05 9.3772e-25)
(0.0263639 7.58952e-05 -2.67869e-24)
(0.0263689 7.24364e-05 9.27145e-24)
(0.0263714 6.78991e-05 -9.1132e-24)
(0.026372 6.25111e-05 -7.62414e-24)
(0.026371 5.66097e-05 -1.80668e-23)
(0.0263688 5.04696e-05 9.52152e-24)
(0.0263655 4.42719e-05 4.37684e-23)
(0.0263613 3.81794e-05 -2.30283e-23)
(0.0263564 3.23243e-05 1.36271e-23)
(0.0263512 2.68156e-05 -5.62962e-24)
(0.0263453 2.16927e-05 -1.65599e-23)
(0.0263393 1.69719e-05 8.46351e-24)
(0.027909 6.45996e-05 3.01578e-25)
(0.0279224 6.82971e-05 -4.00704e-25)
(0.0279309 7.00114e-05 1.74827e-24)
(0.0279363 7.02871e-05 -6.33386e-24)
(0.0279397 6.9272e-05 -1.82891e-24)
(0.0279412 6.69184e-05 1.73382e-23)
(0.0279411 6.37518e-05 -1.29076e-23)
(0.0279396 6.02544e-05 -7.33121e-24)
(0.0279371 5.65148e-05 6.92928e-24)
(0.0279335 5.25768e-05 -7.55537e-24)
(0.0279293 4.85724e-05 1.77101e-23)
(0.0279245 4.46156e-05 8.71075e-24)
(0.0279195 4.08282e-05 -3.26162e-23)
(0.027914 3.72562e-05 2.24028e-23)
(0.0279084 3.39194e-05 -4.53885e-24)
(0.0291043 5.20233e-05 8.2537e-25)
(0.0291148 5.84601e-05 3.35761e-25)
(0.0291217 6.26828e-05 -1.21311e-24)
(0.0291253 6.54404e-05 3.07577e-24)
(0.0291276 6.71499e-05 -4.51043e-24)
(0.0291279 6.68361e-05 -6.50516e-24)
(0.0291272 6.60047e-05 -5.18873e-24)
(0.0291259 6.48824e-05 1.48653e-23)
(0.0291238 6.3446e-05 1.5331e-23)
(0.0291208 6.17046e-05 -4.2494e-23)
(0.029117 5.96567e-05 2.59615e-23)
(0.0291125 5.73898e-05 -1.8131e-24)
(0.0291079 5.51427e-05 -1.42794e-24)
(0.029103 5.29452e-05 1.89498e-24)
(0.0290979 5.0833e-05 -8.64472e-25)
(0.0296924 4.0148e-05 -1.97887e-24)
(0.0297014 4.84589e-05 -2.02476e-24)
(0.0297075 5.47517e-05 4.17008e-24)
(0.0297117 6.00071e-05 -1.22357e-24)
(0.0297137 6.38226e-05 1.1063e-24)
(0.0297151 6.6452e-05 4.13811e-24)
(0.0297149 6.83438e-05 -3.09847e-24)
(0.0297136 6.90429e-05 -1.92594e-23)
(0.0297117 6.91489e-05 4.37578e-23)
(0.0297093 6.88755e-05 -1.81628e-23)
(0.0297063 6.83865e-05 6.59341e-24)
(0.0297031 6.77593e-05 -1.18233e-23)
(0.0296996 6.70108e-05 -1.16072e-23)
(0.0296958 6.61584e-05 1.6827e-23)
(0.0296917 6.52494e-05 -7.14208e-24)
(0.0294902 2.9588e-05 2.85268e-24)
(0.029496 3.96141e-05 -5.59057e-24)
(0.0294998 4.79634e-05 1.75155e-24)
(0.029502 5.47975e-05 -1.69806e-25)
(0.0295031 6.03655e-05 3.07534e-24)
(0.0295032 6.47216e-05 -4.09947e-24)
(0.0295025 6.8085e-05 -1.12735e-23)
(0.0295011 7.07062e-05 2.74883e-23)
(0.0294994 7.27389e-05 6.04236e-24)
(0.0294972 7.42592e-05 -1.57711e-23)
(0.0294946 7.53854e-05 -7.86232e-24)
(0.0294918 7.62123e-05 8.77017e-24)
(0.0294887 7.67899e-05 -9.23253e-24)
(0.0294854 7.71356e-05 5.1682e-24)
(0.0294819 7.72985e-05 -2.21741e-24)
(0.0284735 2.35859e-05 1.62222e-24)
(0.0284783 3.44268e-05 -3.00782e-24)
(0.0284819 4.36198e-05 -4.97912e-25)
(0.0284847 5.13284e-05 2.44054e-24)
(0.0284868 5.78629e-05 6.83695e-25)
(0.0284882 6.32959e-05 8.93436e-25)
(0.028489 6.78247e-05 -1.1593e-24)
(0.0284893 7.16067e-05 -1.97616e-24)
(0.0284893 7.47839e-05 -4.25164e-24)
(0.028489 7.73736e-05 2.67842e-23)
(0.0284883 7.95293e-05 -1.6553e-23)
(0.0284874 8.12673e-05 1.49117e-24)
(0.0284863 8.27084e-05 -1.99606e-23)
(0.0284849 8.38595e-05 9.62568e-24)
(0.0284833 8.47388e-05 3.03714e-24)
(0.0269039 2.02822e-05 3.79493e-24)
(0.0269058 3.1021e-05 -6.14446e-24)
(0.0269072 4.02926e-05 1.42333e-24)
(0.0269084 4.82888e-05 -2.11902e-25)
(0.0269093 5.51489e-05 2.43666e-24)
(0.02691 6.10261e-05 -4.04192e-24)
(0.0269105 6.60902e-05 3.65595e-24)
(0.0269107 7.04131e-05 -2.17218e-24)
(0.0269109 7.41122e-05 1.70975e-24)
(0.0269109 7.72639e-05 8.70231e-24)
(0.0269108 7.99399e-05 -1.88268e-23)
(0.0269105 8.21475e-05 1.4117e-23)
(0.0269101 8.39479e-05 -1.25687e-24)
(0.0269099 8.55734e-05 -4.0833e-24)
(0.0269093 8.68181e-05 6.33119e-25)
(0.0249882 1.94765e-05 1.40461e-24)
(0.0249883 2.97466e-05 -6.03698e-24)
(0.0249886 3.87352e-05 8.39403e-24)
(0.0249893 4.65749e-05 -4.58784e-24)
(0.02499 5.33985e-05 8.05117e-25)
(0.0249909 5.93396e-05 -1.31261e-24)
(0.0249918 6.45122e-05 9.84061e-27)
(0.0249928 6.90011e-05 2.0613e-24)
(0.0249938 7.2878e-05 -7.69616e-24)
(0.0249949 7.62141e-05 -2.76977e-24)
(0.0249959 7.9065e-05 1.12176e-23)
(0.0249971 8.1503e-05 3.11929e-24)
(0.0249982 8.3531e-05 -5.25304e-24)
(0.0249994 8.52129e-05 1.6323e-24)
(0.0250006 8.6615e-05 -4.60092e-25)
(0.0228764 2.04531e-05 1.82981e-25)
(0.0228758 2.98045e-05 -2.18658e-24)
(0.0228759 3.80463e-05 -3.19683e-25)
(0.0228769 4.52909e-05 5.37663e-24)
(0.0228784 5.16507e-05 -3.29846e-24)
(0.0228803 5.72274e-05 4.62986e-25)
(0.0228826 6.2112e-05 -1.69796e-25)
(0.0228851 6.63759e-05 2.3614e-25)
(0.0228879 7.00785e-05 2.23146e-24)
(0.0228909 7.32789e-05 -1.23341e-23)
(0.0228941 7.6024e-05 1.09162e-23)
(0.0228975 7.83495e-05 1.25816e-24)
(0.022901 8.02794e-05 -1.64057e-24)
(0.0229046 8.18587e-05 -2.79801e-24)
(0.0229083 8.31115e-05 2.33999e-24)
(0.0206837 2.15944e-05 2.70378e-25)
(0.0206838 2.96325e-05 1.96492e-24)
(0.0206852 3.67593e-05 -2.33228e-24)
(0.0206877 4.30572e-05 -8.22042e-25)
(0.020691 4.86141e-05 2.6343e-24)
(0.0206949 5.35075e-05 -2.03498e-24)
(0.0206994 5.7807e-05 -3.57621e-25)
(0.0207045 6.1569e-05 1.03447e-24)
(0.0207099 6.48381e-05 5.01535e-25)
(0.0207156 6.76527e-05 -5.55481e-27)
(0.0207217 7.0044e-05 3.0265e-24)
(0.020728 7.20407e-05 -1.31017e-24)
(0.0207345 7.36683e-05 -2.66889e-25)
(0.0207413 7.4951e-05 -6.54489e-25)
(0.0207482 7.59135e-05 -2.04432e-24)
(0.0184978 2.15264e-05 1.93177e-24)
(0.0184999 2.80716e-05 -2.80827e-24)
(0.0185035 3.39119e-05 -1.37152e-24)
(0.0185084 3.90945e-05 3.97228e-24)
(0.0185142 4.36841e-05 -1.46296e-24)
(0.0185209 4.77367e-05 -3.13427e-25)
(0.0185282 5.13016e-05 2.93741e-25)
(0.0185361 5.44174e-05 -1.37765e-24)
(0.0185445 5.71135e-05 3.85031e-24)
(0.0185533 5.9416e-05 -5.33434e-24)
(0.0185625 6.13496e-05 4.00393e-24)
(0.018572 6.29366e-05 -2.45382e-24)
(0.0185817 6.41963e-05 5.13974e-24)
(0.0185918 6.51472e-05 -6.05856e-24)
(0.0186019 6.58068e-05 1.89262e-24)
(0.01638 1.97523e-05 -3.77938e-25)
(0.0163846 2.48291e-05 -1.04067e-24)
(0.0163907 2.93907e-05 -2.50859e-24)
(0.0163982 3.34537e-05 6.84701e-24)
(0.0164066 3.70626e-05 -1.74083e-24)
(0.0164158 4.0256e-05 -1.03483e-24)
(0.0164258 4.30656e-05 -3.22464e-25)
(0.0164363 4.5516e-05 3.46707e-25)
(0.0164473 4.76264e-05 3.09293e-24)
(0.0164588 4.94149e-05 -2.82195e-24)
(0.0164707 5.08978e-05 -1.44912e-25)
(0.0164828 5.20896e-05 3.01468e-24)
(0.0164952 5.30037e-05 -3.35139e-24)
(0.0165079 5.3652e-05 -4.48687e-25)
(0.0165206 5.40454e-05 5.25545e-25)
(0.0143681 1.65594e-05 1.46949e-24)
(0.0143748 2.03297e-05 1.60915e-24)
(0.014383 2.3743e-05 -2.00604e-24)
(0.0143923 2.67951e-05 -2.61019e-24)
(0.0144026 2.95166e-05 2.4416e-24)
(0.0144136 3.19325e-05 -1.48697e-24)
(0.0144254 3.40614e-05 7.90039e-25)
(0.0144377 3.59171e-05 -5.0238e-26)
(0.0144504 3.75107e-05 -3.33052e-25)
(0.0144636 3.88525e-05 2.15317e-24)
(0.0144771 3.99521e-05 1.03733e-24)
(0.0144909 4.08184e-05 -7.65786e-24)
(0.0145048 4.14606e-05 3.0686e-24)
(0.014519 4.18863e-05 1.21744e-24)
(0.0145331 4.21038e-05 1.14669e-25)
(0.0124817 1.26465e-05 -1.54276e-24)
(0.0124896 1.53391e-05 1.93208e-24)
(0.0124987 1.77975e-05 9.83892e-26)
(0.0125089 2.00073e-05 2.07787e-24)
(0.0125199 2.19904e-05 -2.04831e-24)
(0.0125317 2.37614e-05 -2.66819e-25)
(0.012544 2.53289e-05 -3.96313e-25)
(0.0125569 2.66987e-05 -5.24957e-26)
(0.0125702 2.78759e-05 -7.53642e-25)
(0.0125838 2.88659e-05 2.55333e-24)
(0.0125977 2.96735e-05 4.78882e-25)
(0.0126119 3.03042e-05 -6.39939e-25)
(0.0126261 3.07638e-05 -7.59122e-25)
(0.0126405 3.10571e-05 -4.61484e-25)
(0.0126548 3.11901e-05 -2.99657e-25)
(0.0107285 8.74629e-06 1.15395e-24)
(0.0107364 1.06004e-05 -9.51009e-25)
(0.0107454 1.23103e-05 -2.92979e-24)
(0.0107554 1.38593e-05 2.7191e-24)
(0.010766 1.52637e-05 2.05556e-24)
(0.0107773 1.65301e-05 -1.29248e-24)
(0.0107891 1.76601e-05 -8.22458e-25)
(0.0108014 1.8655e-05 7.55346e-25)
(0.0108141 1.95161e-05 -9.48276e-25)
(0.010827 2.02455e-05 -3.12762e-25)
(0.0108402 2.08452e-05 6.93638e-25)
(0.0108535 2.13181e-05 4.52333e-25)
(0.010867 2.16673e-05 -8.67383e-25)
(0.0108805 2.18956e-05 -7.08056e-26)
(0.0108939 2.20072e-05 3.32042e-25)
(0.00910923 5.3905e-06 -7.32315e-25)
(0.00911631 6.62114e-06 -3.55564e-25)
(0.00912433 7.77024e-06 6.46426e-25)
(0.00913308 8.82321e-06 -1.06101e-24)
(0.00914247 9.7922e-06 3.17462e-24)
(0.00915241 1.0678e-05 -2.68459e-24)
(0.00916283 1.14787e-05 1.10858e-24)
(0.00917364 1.21931e-05 -4.3598e-26)
(0.00918477 1.28203e-05 -4.87878e-25)
(0.00919618 1.33605e-05 -3.65223e-25)
(0.00920778 1.38137e-05 4.55503e-25)
(0.00921953 1.4181e-05 -6.62295e-25)
(0.00923134 1.4464e-05 1.00308e-24)
(0.0092432 1.46641e-05 2.50881e-25)
(0.009255 1.4784e-05 -1.51707e-25)
(0.00762119 2.84167e-06 -3.5823e-25)
(0.00762683 3.62468e-06 1.2651e-25)
(0.00763326 4.36868e-06 1.85392e-25)
(0.00764028 5.06172e-06 -5.34756e-25)
(0.00764785 5.71229e-06 -1.12292e-26)
(0.00765589 6.31763e-06 1.14842e-24)
(0.00766435 6.87453e-06 -5.28935e-25)
(0.00767316 7.38064e-06 -7.92563e-26)
(0.00768227 7.834e-06 4.33297e-26)
(0.00769162 8.23381e-06 2.56503e-25)
(0.00770116 8.5791e-06 2.47387e-25)
(0.00771084 8.87003e-06 -9.94545e-25)
(0.00772059 9.10686e-06 -7.01478e-25)
(0.00773039 9.2905e-06 9.8283e-25)
(0.00774016 9.42237e-06 2.48157e-25)
(0.00625949 1.1332e-06 -1.30941e-25)
(0.00626347 1.60458e-06 -2.1616e-26)
(0.00626807 2.06587e-06 -1.54859e-24)
(0.00627316 2.50534e-06 6.70908e-25)
(0.00627871 2.92795e-06 -3.83859e-25)
(0.00628465 3.3295e-06 8.78272e-25)
(0.00629096 3.70696e-06 5.82916e-25)
(0.00629759 4.05754e-06 -2.16705e-25)
(0.00630449 4.37907e-06 6.59975e-25)
(0.00631162 4.67045e-06 -2.16209e-25)
(0.00631893 4.93033e-06 -5.97526e-25)
(0.00632639 5.15838e-06 1.3388e-24)
(0.00633395 5.3542e-06 -7.44793e-25)
(0.00634157 5.51846e-06 2.4538e-25)
(0.00634921 5.6517e-06 -4.59119e-25)
(0.00501803 1.51088e-07 -5.14769e-25)
(0.00502041 4.13356e-07 -5.57923e-25)
(0.00502327 6.84354e-07 6.5122e-26)
(0.0050265 9.50592e-07 1.26455e-24)
(0.0050301 1.21334e-06 -6.1895e-25)
(0.00503405 1.4686e-06 8.95712e-26)
(0.0050383 1.71476e-06 3.71032e-25)
(0.00504283 1.94861e-06 -2.10854e-25)
(0.00504761 2.16828e-06 -7.08631e-26)
(0.0050526 2.37291e-06 1.03687e-24)
(0.00505779 2.56117e-06 2.54995e-25)
(0.00506313 2.73254e-06 -1.41797e-24)
(0.00506859 2.88638e-06 2.07117e-25)
(0.00507415 3.0233e-06 5.33725e-25)
(0.00507975 3.14349e-06 -3.99396e-25)
(0.00388991 -2.84935e-07 -1.11565e-25)
(0.00389091 -1.57863e-07 1.90751e-26)
(0.00389231 -1.07759e-08 6.48889e-25)
(0.00389398 1.41672e-07 2.44004e-25)
(0.00389593 2.95733e-07 -3.83122e-25)
(0.00389816 4.48089e-07 -4.37929e-25)
(0.00390064 5.9887e-07 3.89182e-26)
(0.00390336 7.4547e-07 1.63732e-25)
(0.0039063 8.86304e-07 -1.86111e-25)
(0.00390944 1.02114e-06 -5.05325e-25)
(0.00391277 1.14862e-06 -2.84467e-25)
(0.00391625 1.26826e-06 9.32785e-25)
(0.00391987 1.37945e-06 -2.83931e-25)
(0.0039236 1.48278e-06 3.39184e-25)
(0.00392743 1.57856e-06 -2.0404e-25)
(0.00286762 -3.72967e-07 -2.0198e-25)
(0.00286768 -3.24119e-07 2.72873e-26)
(0.00286798 -2.56107e-07 5.2665e-25)
(0.00286848 -1.77479e-07 -3.23989e-25)
(0.00286919 -9.4023e-08 8.04987e-25)
(0.00287011 -9.66002e-09 -1.24684e-24)
(0.00287123 7.18013e-08 5.21107e-25)
(0.00287255 1.54747e-07 1.61357e-26)
(0.00287405 2.36696e-07 -3.8478e-25)
(0.00287572 3.17249e-07 5.56227e-25)
(0.00287755 3.95491e-07 -2.40668e-25)
(0.00287954 4.70907e-07 -5.96676e-26)
(0.00288166 5.42952e-07 -2.14493e-25)
(0.00288391 6.12138e-07 2.95448e-25)
(0.00288627 6.79032e-07 -8.38917e-26)
(0.00194346 -2.80045e-07 3.15966e-25)
(0.00194299 -2.78215e-07 2.65991e-25)
(0.00194264 -2.56057e-07 -1.1936e-24)
(0.00194243 -2.23902e-07 7.69051e-25)
(0.00194236 -1.87238e-07 -4.48001e-26)
(0.00194243 -1.47623e-07 3.78409e-26)
(0.00194264 -1.09271e-07 -1.39078e-25)
(0.001943 -6.76722e-08 4.378e-26)
(0.0019435 -2.50318e-08 -1.4327e-25)
(0.00194414 1.59069e-08 -1.22353e-25)
(0.00194491 5.76481e-08 5.51813e-25)
(0.00194581 9.92643e-08 -1.84859e-25)
(0.00194683 1.39987e-07 -2.40772e-25)
(0.00194796 1.80163e-07 1.84602e-26)
(0.0019492 2.20835e-07 5.62047e-26)
(0.00110968 -1.26066e-07 -3.18995e-25)
(0.00110907 -1.29086e-07 9.01284e-25)
(0.00110852 -1.23792e-07 3.63414e-25)
(0.00110803 -1.12461e-07 -8.26183e-25)
(0.00110763 -1.00334e-07 -8.80094e-26)
(0.00110731 -8.77892e-08 -4.5937e-26)
(0.00110708 -7.46006e-08 4.43864e-26)
(0.00110695 -6.102e-08 -1.42727e-27)
(0.0011069 -4.69198e-08 -2.27805e-25)
(0.00110694 -3.45554e-08 1.04546e-25)
(0.00110708 -2.12729e-08 2.32736e-25)
(0.0011073 -7.56374e-09 -1.92624e-25)
(0.0011076 6.09081e-09 4.42925e-25)
(0.001108 2.00058e-08 -5.12095e-25)
(0.00110847 3.65058e-08 1.21478e-25)
(0.00035868 9.96846e-09 -2.27769e-27)
(0.000358283 7.26034e-08 1.6865e-25)
(0.000357911 1.14699e-07 1.43474e-25)
(0.000357564 1.4195e-07 -2.69422e-25)
(0.000357251 1.55093e-07 3.31238e-25)
(0.000356972 1.57154e-07 -3.7049e-25)
(0.000356728 1.51331e-07 5.00429e-27)
(0.00035652 1.39393e-07 -5.95877e-26)
(0.000356348 1.23522e-07 9.43068e-26)
(0.000356213 1.04906e-07 1.13977e-25)
(0.000356114 8.49335e-08 -3.80024e-25)
(0.000356052 6.45249e-08 2.01206e-25)
(0.000356026 4.43088e-08 1.63841e-25)
(0.000356038 2.4941e-08 -1.50162e-25)
(0.000356084 8.08525e-09 1.00228e-26)
(0.000971642 -0.000264166 9.61722e-26)
(0.00111145 -0.000188861 2.51242e-24)
(0.00134563 -0.000112681 -7.29913e-24)
(0.00158417 -5.41904e-05 1.07641e-23)
(0.00181146 -1.14649e-05 -4.04002e-24)
(0.00203239 1.64491e-05 -3.99358e-24)
(0.00224681 3.25597e-05 4.58102e-24)
(0.00245529 3.94613e-05 -9.11918e-24)
(0.00265871 3.94445e-05 5.88399e-25)
(0.00285789 3.45193e-05 5.74404e-24)
(0.00305362 2.6446e-05 -1.08246e-24)
(0.00324668 1.68372e-05 1.15166e-24)
(0.00343779 7.24273e-06 -1.22176e-25)
(0.00362769 -6.93249e-07 6.61773e-25)
(0.00381739 -5.12441e-06 -2.42025e-24)
(0.00400816 -3.87578e-06 1.30742e-24)
(0.00420222 5.39522e-06 -3.76087e-25)
(0.00440264 2.52948e-05 3.69803e-26)
(0.00461424 5.78752e-05 8.49287e-25)
(0.00484337 0.000103867 -5.30001e-25)
(0.00509831 0.000161394 6.89224e-26)
(0.00538438 0.000223063 -6.18321e-26)
(0.00568197 0.000268137 1.32163e-25)
(0.0059518 0.000282824 5.55182e-25)
(0.00617805 0.00026672 -9.95154e-25)
(0.00635997 0.000222786 -7.62002e-25)
(0.00649924 0.00015455 -4.11813e-26)
(0.00659784 6.50291e-05 2.01e-24)
(0.00665675 -4.29137e-05 3.16715e-24)
(0.00667575 -0.000165825 -6.26366e-24)
(0.00665379 -0.000299062 6.1141e-24)
(0.00658955 -0.000436549 -6.12487e-24)
(0.0064821 -0.000570862 1.83598e-24)
(0.00633124 -0.000693545 9.0348e-25)
(0.00613766 -0.000795445 -9.76399e-25)
(0.00590284 -0.000866922 2.24112e-24)
(0.00562883 -0.000897748 5.29178e-25)
(0.00531805 -0.000876454 2.04074e-24)
(0.00497329 -0.000788863 1.57278e-24)
(0.00459838 -0.000615924 -7.94731e-24)
(0.00419819 -0.000333437 -1.0817e-25)
(0.00378046 8.0241e-05 4.15296e-24)
(0.0033402 0.000612223 1.65292e-24)
(0.00290258 0.00117436 -6.13383e-24)
(0.00265898 0.00145194 -3.285e-25)
(0.00182436 -0.000348946 -2.85389e-24)
(0.0018819 -0.000309289 -4.11163e-24)
(0.00202419 -0.000235979 8.57348e-24)
(0.00220347 -0.000169337 4.12469e-24)
(0.00239263 -0.000115187 -1.44437e-23)
(0.00258647 -7.56678e-05 1.55759e-23)
(0.0027805 -4.89213e-05 -5.60627e-24)
(0.00297265 -3.25665e-05 4.52979e-24)
(0.00316229 -2.42763e-05 -5.98179e-24)
(0.00334934 -2.19269e-05 7.24724e-26)
(0.00353401 -2.36253e-05 -3.10633e-24)
(0.0037167 -2.76313e-05 6.12198e-24)
(0.00389788 -3.22938e-05 -3.32915e-24)
(0.00407811 -3.58999e-05 -2.82326e-24)
(0.00425827 -3.65667e-05 -1.70982e-24)
(0.00443949 -3.21257e-05 3.52168e-24)
(0.00462384 -2.02755e-05 -3.5539e-25)
(0.00481421 1.52077e-06 1.66428e-24)
(0.00501517 3.52405e-05 2.49259e-25)
(0.00523286 8.15668e-05 -4.75868e-25)
(0.00547539 0.000138814 -2.03027e-25)
(0.00574816 0.000199949 -1.37947e-25)
(0.00603365 0.000244888 7.0978e-25)
(0.00629482 0.0002606 9.77766e-25)
(0.00651607 0.000246724 -7.85011e-25)
(0.00669604 0.000205987 -4.48578e-24)
(0.00683576 0.000141836 6.2537e-24)
(0.00693657 5.7378e-05 -4.6111e-24)
(0.00699906 -4.43284e-05 1.57565e-24)
(0.00702283 -0.000159625 -1.17013e-24)
(0.00700686 -0.000283696 9.1384e-24)
(0.00695006 -0.000410397 -1.31028e-23)
(0.00685185 -0.00053234 7.85702e-24)
(0.0067125 -0.000641171 -6.70526e-24)
(0.00653335 -0.000727885 4.81544e-24)
(0.00631675 -0.000782986 -8.49077e-25)
(0.00606601 -0.000796386 6.10913e-24)
(0.00578544 -0.000756864 -7.31836e-25)
(0.00548081 -0.000650865 -6.79703e-24)
(0.00516081 -0.000460655 -5.16003e-24)
(0.00483916 -0.000163983 1.18218e-23)
(0.00453955 0.000259081 -1.22527e-23)
(0.00428989 0.000793886 -3.40262e-24)
(0.00413772 0.00133863 8.45841e-24)
(0.00414361 0.00154484 3.04231e-24)
(0.00282626 -0.000356716 -3.3815e-26)
(0.00283438 -0.000358812 -4.80002e-24)
(0.00289212 -0.0003181 9.11622e-24)
(0.00300254 -0.000261877 7.9392e-24)
(0.00313898 -0.000207645 -1.28896e-23)
(0.003292 -0.000162845 2.56495e-25)
(0.00345398 -0.000128862 1.27222e-24)
(0.00362015 -0.000104872 1.39285e-23)
(0.00378801 -8.92234e-05 -1.64948e-23)
(0.00395617 -8.00575e-05 1.00878e-23)
(0.00412395 -7.55624e-05 2.91951e-24)
(0.00429116 -7.40146e-05 -1.63778e-23)
(0.00445784 -7.37191e-05 5.89449e-24)
(0.00462427 -7.29295e-05 2.2432e-24)
(0.00479108 -6.97563e-05 -4.44386e-24)
(0.0049592 -6.20542e-05 6.98836e-24)
(0.00513053 -4.75764e-05 -4.77295e-24)
(0.0053077 -2.38632e-05 -4.85512e-26)
(0.00549501 1.09855e-05 3.57062e-25)
(0.00569835 5.75968e-05 3.62344e-25)
(0.00592565 0.000114487 3.47241e-26)
(0.00618231 0.000174983 2.23157e-25)
(0.00645308 0.000219638 -7.28645e-25)
(0.00670343 0.000236242 2.24809e-24)
(0.00691795 0.000224505 -3.7645e-24)
(0.00709465 0.00018692 2.20525e-24)
(0.00723382 0.000126857 -5.73615e-24)
(0.00733615 4.75123e-05 7.76366e-24)
(0.00740179 -4.78619e-05 -7.8527e-24)
(0.00743015 -0.000155387 -1.08508e-25)
(0.00742026 -0.000270093 -6.68659e-25)
(0.00737126 -0.000385775 1.52927e-23)
(0.00728295 -0.000495095 -5.18621e-24)
(0.00715615 -0.000589856 -3.3287e-24)
(0.00699287 -0.000661292 3.0168e-24)
(0.00679642 -0.000700237 2.2554e-24)
(0.00657143 -0.00069709 -3.30113e-24)
(0.00632416 -0.000641477 1.02804e-23)
(0.00606326 -0.000521564 -2.12758e-23)
(0.00580163 -0.00032312 8.48022e-24)
(0.00555936 -3.01886e-05 3.36619e-24)
(0.00536822 0.000367413 5.9886e-24)
(0.00526631 0.000845666 -7.46586e-24)
(0.00528541 0.00129897 2.35375e-24)
(0.00541712 0.00145354 -1.47395e-24)
(0.00395811 -0.000338346 -1.22529e-24)
(0.0039374 -0.000366438 -1.89866e-24)
(0.00394474 -0.000354163 -8.14618e-24)
(0.00398897 -0.000321649 2.10848e-24)
(0.00406848 -0.000278069 1.42182e-24)
(0.00417201 -0.000236173 6.67136e-24)
(0.00429221 -0.000200438 -1.42389e-23)
(0.00442308 -0.000172359 5.40529e-24)
(0.00456067 -0.000151582 1.81705e-23)
(0.00470236 -0.00013699 -4.86888e-24)
(0.0048465 -0.000127165 -4.50636e-24)
(0.00499215 -0.000120582 -7.01956e-25)
(0.00513884 -0.000115638 2.21525e-24)
(0.00528642 -0.000110635 -4.23853e-24)
(0.00543523 -0.00010373 1.0104e-24)
(0.00558592 -9.28367e-05 -2.75216e-25)
(0.00574014 -7.57918e-05 -1.74484e-24)
(0.00590027 -5.02337e-05 7.40085e-25)
(0.00607028 -1.43519e-05 3.00779e-24)
(0.00625578 3.24032e-05 -3.34063e-25)
(0.00646448 8.87647e-05 -6.81161e-25)
(0.00670169 0.000148423 -2.08933e-25)
(0.00695468 0.000192553 -1.29034e-24)
(0.00719163 0.000209852 -1.86031e-25)
(0.0073973 0.000200133 -3.56024e-24)
(0.00756901 0.000165646 5.91594e-24)
(0.00770627 0.000109685 -5.7534e-24)
(0.00780909 3.55394e-05 1.13081e-23)
(0.00787715 -5.33501e-05 -1.03757e-23)
(0.00790967 -0.000152902 2.16374e-24)
(0.00790572 -0.000258015 4.88709e-24)
(0.00786471 -0.000362461 -4.06668e-26)
(0.00778684 -0.000459017 -2.37458e-25)
(0.00767348 -0.000539745 2.407e-25)
(0.00752738 -0.000596282 -1.25032e-24)
(0.00735275 -0.000620055 -1.32733e-24)
(0.00715552 -0.000602359 9.86323e-24)
(0.00694361 -0.000534312 -4.88723e-24)
(0.00672784 -0.000406773 4.32484e-25)
(0.00652356 -0.000210464 -2.12922e-23)
(0.00635263 6.22674e-05 1.6529e-23)
(0.00624579 0.000410653 -6.88456e-24)
(0.00623614 0.000805893 1.32378e-24)
(0.00633701 0.00116316 9.224e-24)
(0.00652316 0.00131722 -2.33942e-24)
(0.00521254 -0.000310122 -5.08181e-24)
(0.00518108 -0.000348312 1.04258e-23)
(0.0051594 -0.000356043 2.98483e-24)
(0.00516158 -0.000344724 1.28778e-23)
(0.00518761 -0.000319845 -3.18761e-23)