/*--------------------------------*- C++ -*----------------------------------*\
| =========                 |                                                 |
| \\      /  F ield         | OpenFOAM: The Open Source CFD Toolbox           |
|  \\    /   O peration     | Version:  2312                                  |
|   \\  /    A nd           | Website:  www.openfoam.com                      |
|    \\/     M anipulation  |                                                 |
\*---------------------------------------------------------------------------*/
FoamFile
{
    version     2.0;
    format      ascii;
    arch        "LSB;label=32;scalar=64";
    class       surfaceScalarField;
    location    "72.75";
    object      phi;
}
// * * * * * * * * * * * * * * * * * * * * * * * * * * * * * * * * * * * * * //

dimensions      [0 3 -1 0 0 0 0];

oriented        oriented;

internalField   nonuniform List<scalar> 
9445
(
6.04376e-10
7.69939e-12
6.00735e-10
3.64087e-12
5.99487e-10
1.24784e-12
5.99794e-10
-3.06783e-13
6.01303e-10
-1.50906e-12
6.03706e-10
-2.40308e-12
6.06955e-10
-3.24878e-12
6.11187e-10
-4.23242e-12
6.16608e-10
-5.42095e-12
6.2365e-10
-7.04224e-12
6.33498e-10
-9.84779e-12
6.49862e-10
-1.63637e-11
6.85935e-10
-3.60727e-11
7.88672e-10
-1.02738e-10
-2.6716e-10
1.05583e-09
2.11376e-09
3.46121e-11
2.10014e-09
1.72585e-11
2.09448e-09
6.91398e-12
2.09403e-09
1.40703e-13
2.09747e-09
-4.95284e-12
2.10392e-09
-8.85005e-12
2.11321e-09
-1.25377e-11
2.12559e-09
-1.66151e-11
2.14167e-09
-2.1497e-11
2.16273e-09
-2.81027e-11
2.19179e-09
-3.89103e-11
2.23607e-09
-6.06385e-11
2.30953e-09
-1.09536e-10
2.4258e-09
-2.19013e-10
-3.89554e-10
2.5482e-09
4.17603e-09
8.71485e-11
4.14817e-09
4.5126e-11
4.13518e-09
1.99034e-11
4.13205e-09
3.26629e-12
4.13609e-09
-8.99289e-12
4.14573e-09
-1.84854e-11
4.16065e-09
-2.74599e-11
4.181e-09
-3.69655e-11
4.20752e-09
-4.80218e-11
4.24189e-09
-6.24654e-11
4.28718e-09
-8.4199e-11
4.34828e-09
-1.21742e-10
4.42806e-09
-1.89314e-10
4.51209e-09
-3.03049e-10
-4.39289e-10
4.56183e-09
6.9408e-09
1.72207e-10
6.89372e-09
9.22066e-11
6.86974e-09
4.38909e-11
6.86118e-09
1.18245e-11
6.86368e-09
-1.14945e-11
6.87479e-09
-2.95935e-11
6.89384e-09
-4.65137e-11
6.9207e-09
-6.38261e-11
6.9557e-09
-8.3025e-11
7.00004e-09
-1.06796e-10
7.05508e-09
-1.39247e-10
7.12067e-09
-1.8733e-10
7.1901e-09
-2.58742e-10
7.24237e-09
-3.55315e-10
-4.50757e-10
7.25383e-09
1.0587e-08
2.95768e-10
1.05159e-08
1.63341e-10
1.04769e-08
8.28315e-11
1.04595e-08
2.92564e-11
1.04576e-08
-9.61088e-12
1.04678e-08
-3.97805e-11
1.04883e-08
-6.70476e-11
1.05188e-08
-9.42943e-11
1.05586e-08
-1.22809e-10
1.06076e-08
-1.55777e-10
1.06646e-08
-1.96308e-10
1.07253e-08
-2.48012e-10
1.07789e-08
-3.12345e-10
1.08078e-08
-3.8423e-10
-4.44332e-10
1.08014e-08
1.53229e-08
4.60005e-10
1.52248e-08
2.61415e-10
1.51678e-08
1.39781e-10
1.51384e-08
5.87331e-11
1.5129e-08
-2.40991e-13
1.51352e-08
-4.60433e-11
1.5154e-08
-8.5829e-11
1.5184e-08
-1.24288e-10
1.52236e-08
-1.62421e-10
1.5271e-08
-2.03139e-10
1.53227e-08
-2.48047e-10
1.53723e-08
-2.97624e-10
1.54097e-08
-3.49709e-10
1.54237e-08
-3.98186e-10
-4.32098e-10
1.54114e-08
2.13819e-08
6.58442e-10
2.12592e-08
3.84093e-10
2.11844e-08
2.146e-10
2.11419e-08
1.01251e-10
2.1123e-08
1.86915e-11
2.11224e-08
-4.54508e-11
2.11362e-08
-9.96818e-11
2.11615e-08
-1.49564e-10
2.11957e-08
-1.96659e-10
2.12355e-08
-2.42923e-10
2.12762e-08
-2.88693e-10
2.13113e-08
-3.32727e-10
2.13336e-08
-3.72051e-10
2.13378e-08
-4.02358e-10
-4.18828e-10
2.13245e-08
2.90141e-08
8.69525e-10
2.88791e-08
5.19126e-10
2.87933e-08
3.00407e-10
2.87414e-08
1.53162e-10
2.87142e-08
4.58372e-11
2.87062e-08
-3.74423e-11
2.8713e-08
-1.065e-10
2.87306e-08
-1.67151e-10
2.87555e-08
-2.21543e-10
2.87835e-08
-2.70892e-10
2.88097e-08
-3.14945e-10
2.88293e-08
-3.52293e-10
2.88381e-08
-3.80887e-10
2.88346e-08
-3.98804e-10
-4.04821e-10
2.88206e-08
3.84752e-08
1.05155e-09
3.83545e-08
6.39795e-10
3.82752e-08
3.79647e-10
3.82255e-08
2.02909e-10
3.81976e-08
7.37739e-11
3.81863e-08
-2.62278e-11
3.81878e-08
-1.07975e-10
3.81978e-08
-1.77099e-10
3.82123e-08
-2.36109e-10
3.82275e-08
-2.8602e-10
3.82393e-08
-3.26762e-10
3.82447e-08
-3.57735e-10
3.82422e-08
-3.78357e-10
3.8232e-08
-3.88603e-10
-3.89086e-10
3.82163e-08
5.00252e-08
1.14623e-09
4.996e-08
7.05083e-10
4.99167e-08
4.22868e-10
4.98904e-08
2.29198e-10
4.98771e-08
8.71e-11
4.98736e-08
-2.27189e-11
4.98773e-08
-1.11628e-10
4.98847e-08
-1.84562e-10
4.98928e-08
-2.44198e-10
4.98986e-08
-2.91843e-10
4.98999e-08
-3.28057e-10
4.98955e-08
-3.53301e-10
4.98854e-08
-3.68226e-10
4.98707e-08
-3.73954e-10
-3.71889e-10
4.98535e-08
6.39613e-08
1.09998e-09
6.39946e-08
6.71725e-10
6.40218e-08
3.9568e-10
6.40461e-08
2.04929e-10
6.40685e-08
6.46523e-11
6.40895e-08
-4.36446e-11
6.41085e-08
-1.3061e-10
6.4124e-08
-2.00082e-10
6.41347e-08
-2.54924e-10
6.41396e-08
-2.96759e-10
6.41384e-08
-3.26802e-10
6.41314e-08
-3.46305e-10
6.41198e-08
-3.56609e-10
6.41051e-08
-3.59314e-10
-3.56007e-10
6.40892e-08
8.06967e-08
8.99275e-10
8.08486e-08
5.19807e-10
8.09671e-08
2.77158e-10
8.10615e-08
1.10567e-10
8.11369e-08
-1.08423e-11
8.11979e-08
-1.04628e-10
8.12458e-08
-1.78433e-10
8.12816e-08
-2.35886e-10
8.13063e-08
-2.79666e-10
8.13211e-08
-3.11562e-10
8.13274e-08
-3.33093e-10
8.13269e-08
-3.4582e-10
8.13215e-08
-3.51243e-10
8.13132e-08
-3.50943e-10
-3.46344e-10
8.13035e-08
1.00845e-07
5.88908e-10
1.01091e-07
2.73878e-10
1.01288e-07
7.9581e-11
1.01447e-07
-4.82181e-11
1.01576e-07
-1.39457e-10
1.01679e-07
-2.07763e-10
1.0176e-07
-2.59132e-10
1.01821e-07
-2.97427e-10
1.01867e-07
-3.25029e-10
1.01898e-07
-3.43422e-10
1.0192e-07
-3.54158e-10
1.01932e-07
-3.58664e-10
1.01939e-07
-3.58227e-10
1.01943e-07
-3.54115e-10
-3.47408e-10
1.01944e-07
1.2519e-07
2.4237e-10
1.25473e-07
-9.66797e-12
1.25707e-07
-1.53882e-10
1.25899e-07
-2.40761e-10
1.26057e-07
-2.974e-10
1.26185e-07
-3.35626e-10
1.26287e-07
-3.60905e-10
1.26366e-07
-3.77136e-10
1.26428e-07
-3.86361e-10
1.26474e-07
-3.89897e-10
1.26509e-07
-3.88955e-10
1.26535e-07
-3.84608e-10
1.26555e-07
-3.7773e-10
1.2657e-07
-3.69158e-10
-3.59586e-10
1.26582e-07
1.54485e-07
-8.62209e-11
1.54759e-07
-2.82916e-10
1.54985e-07
-3.80704e-10
1.55175e-07
-4.29813e-10
1.55331e-07
-4.53582e-10
1.55458e-07
-4.62661e-10
1.5556e-07
-4.63349e-10
1.55642e-07
-4.5876e-10
1.55706e-07
-4.50838e-10
1.55757e-07
-4.40553e-10
1.55797e-07
-4.28806e-10
1.55829e-07
-4.16298e-10
1.55854e-07
-4.03421e-10
1.55876e-07
-3.90519e-10
-3.77918e-10
1.55894e-07
1.89234e-07
-3.81125e-10
1.89474e-07
-5.23766e-10
1.89674e-07
-5.80093e-10
1.89838e-07
-5.94509e-10
1.89974e-07
-5.888e-10
1.90084e-07
-5.72666e-10
1.90172e-07
-5.51859e-10
1.90243e-07
-5.29441e-10
1.90299e-07
-5.07398e-10
1.90345e-07
-4.85676e-10
1.90381e-07
-4.64985e-10
1.9041e-07
-4.4561e-10
1.90434e-07
-4.27632e-10
1.90455e-07
-4.10974e-10
-3.95568e-10
1.90472e-07
2.29532e-07
-6.4059e-10
2.29739e-07
-7.30539e-10
2.29907e-07
-7.47955e-10
2.30042e-07
-7.30285e-10
2.30152e-07
-6.98358e-10
2.30241e-07
-6.61176e-10
2.30311e-07
-6.22673e-10
2.30367e-07
-5.8518e-10
2.30411e-07
-5.51647e-10
2.30446e-07
-5.2053e-10
2.30475e-07
-4.93298e-10
2.30498e-07
-4.68743e-10
2.30516e-07
-4.4584e-10
2.3053e-07
-4.24905e-10
-4.07048e-10
2.30541e-07
2.74918e-07
-8.67066e-10
2.75091e-07
-9.02845e-10
2.75226e-07
-8.83646e-10
2.75332e-07
-8.36204e-10
2.75416e-07
-7.81941e-10
2.75482e-07
-7.27137e-10
2.75534e-07
-6.75133e-10
2.75575e-07
-6.26044e-10
2.75607e-07
-5.83508e-10
2.7563e-07
-5.4349e-10
2.75646e-07
-5.09181e-10
2.75657e-07
-4.80249e-10
2.75667e-07
-4.55154e-10
2.75675e-07
-4.33157e-10
-4.12785e-10
2.75681e-07
3.23944e-07
-1.04575e-09
3.24072e-07
-1.03053e-09
3.24166e-07
-9.78169e-10
3.24238e-07
-9.07345e-10
3.24291e-07
-8.35348e-10
3.24328e-07
-7.64368e-10
3.24353e-07
-6.9998e-10
3.24373e-07
-6.45917e-10
3.24387e-07
-5.98061e-10
3.24398e-07
-5.5439e-10
3.24406e-07
-5.16449e-10
3.24409e-07
-4.83503e-10
3.24408e-07
-4.53933e-10
3.24401e-07
-4.26733e-10
-4.02752e-10
3.24391e-07
3.73386e-07
-1.14368e-09
3.73448e-07
-1.0924e-09
3.73489e-07
-1.01922e-09
3.73517e-07
-9.35793e-10
3.73538e-07
-8.55582e-10
3.73553e-07
-7.795e-10
3.73564e-07
-7.11471e-10
3.73571e-07
-6.52292e-10
3.73572e-07
-5.99694e-10
3.73569e-07
-5.51542e-10
3.73562e-07
-5.09142e-10
3.73551e-07
-4.72011e-10
3.73536e-07
-4.39165e-10
3.73519e-07
-4.09961e-10
-3.83502e-10
3.735e-07
3.71113e-07
-1.17329e-09
3.71118e-07
-1.09743e-09
3.7111e-07
-1.01099e-09
3.71098e-07
-9.23869e-10
3.71083e-07
-8.4062e-10
3.71066e-07
-7.63012e-10
3.71048e-07
-6.93255e-10
3.71027e-07
-6.31606e-10
3.71004e-07
-5.76395e-10
3.7098e-07
-5.2715e-10
3.70954e-07
-4.83201e-10
3.70926e-07
-4.43953e-10
3.70895e-07
-4.08513e-10
3.70861e-07
-3.76094e-10
-3.46149e-10
3.70824e-07
3.17665e-07
-1.13164e-09
3.17615e-07
-1.04825e-09
3.17565e-07
-9.60574e-10
3.17516e-07
-8.74845e-10
3.17469e-07
-7.93813e-10
3.17425e-07
-7.19119e-10
3.17384e-07
-6.51848e-10
3.17343e-07
-5.9087e-10
3.17303e-07
-5.36477e-10
3.17263e-07
-4.87499e-10
3.17223e-07
-4.43076e-10
3.17182e-07
-4.02531e-10
3.17139e-07
-3.65127e-10
3.17093e-07
-3.30311e-10
-2.97604e-10
3.17044e-07
2.66163e-07
-1.04669e-09
2.66079e-07
-9.6391e-10
2.65998e-07
-8.7982e-10
2.65922e-07
-7.99417e-10
2.65852e-07
-7.23902e-10
2.65788e-07
-6.5483e-10
2.65728e-07
-5.91775e-10
2.65672e-07
-5.34339e-10
2.65618e-07
-4.82587e-10
2.65565e-07
-4.34781e-10
2.65513e-07
-3.91002e-10
2.65461e-07
-3.50305e-10
2.65408e-07
-3.12065e-10
2.65353e-07
-2.76065e-10
-2.42067e-10
2.65298e-07
2.19251e-07
-9.28592e-10
2.19137e-07
-8.49486e-10
2.19031e-07
-7.73566e-10
2.18933e-07
-7.01826e-10
2.18844e-07
-6.35216e-10
2.18763e-07
-5.73669e-10
2.18689e-07
-5.17269e-10
2.18619e-07
-4.65123e-10
2.18554e-07
-4.17074e-10
2.18492e-07
-3.72503e-10
2.18431e-07
-3.30664e-10
2.18372e-07
-2.91382e-10
2.18314e-07
-2.54024e-10
2.18257e-07
-2.18397e-10
-1.84124e-10
2.18199e-07
1.7802e-07
-7.86346e-10
1.77889e-07
-7.18605e-10
1.77769e-07
-6.53975e-10
1.77661e-07
-5.93288e-10
1.77562e-07
-5.36797e-10
1.77473e-07
-4.84325e-10
1.77391e-07
-4.35532e-10
1.77316e-07
-3.90009e-10
1.77246e-07
-3.47301e-10
1.77181e-07
-3.0711e-10
1.77119e-07
-2.68992e-10
1.7706e-07
-2.32612e-10
1.77004e-07
-1.97701e-10
1.7695e-07
-1.63996e-10
-1.31304e-10
1.76897e-07
1.42729e-07
-6.38148e-10
1.42595e-07
-5.8471e-10
1.42474e-07
-5.33403e-10
1.42366e-07
-4.84959e-10
1.42269e-07
-4.39507e-10
1.42181e-07
-3.96808e-10
1.42102e-07
-3.56554e-10
1.4203e-07
-3.18484e-10
1.41965e-07
-2.82246e-10
1.41906e-07
-2.476e-10
1.41851e-07
-2.14301e-10
1.41801e-07
-1.82157e-10
1.41754e-07
-1.5099e-10
1.41711e-07
-1.20599e-10
-9.09899e-11
1.4167e-07
1.13149e-07
-5.01728e-10
1.13027e-07
-4.62574e-10
1.12918e-07
-4.24376e-10
1.12821e-07
-3.8791e-10
1.12734e-07
-3.53243e-10
1.12658e-07
-3.20209e-10
1.1259e-07
-2.88534e-10
1.12529e-07
-2.58128e-10
1.12476e-07
-2.28679e-10
1.12428e-07
-2.00066e-10
1.12386e-07
-1.72173e-10
1.12349e-07
-1.44973e-10
1.12316e-07
-1.18287e-10
1.12288e-07
-9.2109e-11
-6.63883e-11
1.12263e-07
8.87877e-08
-3.86962e-10
8.86854e-08
-3.60276e-10
8.85946e-08
-3.33596e-10
8.85144e-08
-3.07714e-10
8.84438e-08
-2.82623e-10
8.83819e-08
-2.58268e-10
8.83278e-08
-2.34505e-10
8.82809e-08
-2.11221e-10
8.82405e-08
-1.88252e-10
8.82059e-08
-1.65522e-10
8.81768e-08
-1.43035e-10
8.81527e-08
-1.20835e-10
8.81332e-08
-9.88235e-11
8.81182e-08
-7.70596e-11
-5.55152e-11
8.81073e-08
6.9006e-08
-2.95708e-10
6.89246e-08
-2.78874e-10
6.88525e-08
-2.61481e-10
6.8789e-08
-2.44172e-10
6.87333e-08
-2.2694e-10
6.86849e-08
-2.0983e-10
6.86431e-08
-1.92787e-10
6.86076e-08
-1.7569e-10
6.85778e-08
-1.58429e-10
6.85533e-08
-1.40999e-10
6.85337e-08
-1.23453e-10
6.85187e-08
-1.05896e-10
6.85082e-08
-8.83149e-11
6.85019e-08
-7.07228e-11
-5.31971e-11
6.84996e-08
5.31183e-08
-2.24872e-10
5.30546e-08
-2.1522e-10
5.29979e-08
-2.04775e-10
5.29477e-08
-1.93963e-10
5.29036e-08
-1.82778e-10
5.28651e-08
-1.7135e-10
5.2832e-08
-1.59666e-10
5.28039e-08
-1.47616e-10
5.27806e-08
-1.35113e-10
5.27617e-08
-1.2217e-10
5.27472e-08
-1.08904e-10
5.27367e-08
-9.54035e-11
5.27301e-08
-8.17297e-11
5.27273e-08
-6.79103e-11
-5.39563e-11
5.27281e-08
4.04671e-08
-1.69793e-10
4.04169e-08
-1.65009e-10
4.03715e-08
-1.59432e-10
4.03308e-08
-1.53243e-10
4.02945e-08
-1.46461e-10
4.02624e-08
-1.39253e-10
4.02343e-08
-1.31626e-10
4.02102e-08
-1.23485e-10
4.01899e-08
-1.14758e-10
4.01732e-08
-1.05472e-10
4.016e-08
-9.57374e-11
4.01502e-08
-8.56552e-11
4.01438e-08
-7.52994e-11
4.01406e-08
-6.47004e-11
-5.3887e-11
4.01405e-08
3.04647e-08
-1.26335e-10
3.04243e-08
-1.24612e-10
3.03871e-08
-1.2221e-10
3.0353e-08
-1.191e-10
3.03218e-08
-1.15345e-10
3.02937e-08
-1.11116e-10
3.02685e-08
-1.06418e-10
3.02462e-08
-1.01173e-10
3.02267e-08
-9.53259e-11
3.02102e-08
-8.89021e-11
3.01964e-08
-8.19945e-11
3.01855e-08
-7.47012e-11
3.01773e-08
-6.70851e-11
3.01717e-08
-5.91851e-11
-5.10286e-11
3.01689e-08
2.2608e-08
-9.15999e-11
2.2575e-08
-9.16222e-11
2.25439e-08
-9.11028e-11
2.25146e-08
-8.98838e-11
2.24874e-08
-8.80765e-11
2.24621e-08
-8.58284e-11
2.24388e-08
-8.3142e-11
2.24176e-08
-7.99528e-11
2.23985e-08
-7.62193e-11
2.23815e-08
-7.19598e-11
2.23668e-08
-6.72492e-11
2.23543e-08
-6.21662e-11
2.23439e-08
-5.67643e-11
2.23358e-08
-5.10777e-11
-4.51307e-11
2.23299e-08
1.64764e-08
-6.38231e-11
1.64495e-08
-6.46818e-11
1.64235e-08
-6.5112e-11
1.63985e-08
-6.49259e-11
1.63747e-08
-6.42633e-11
1.63521e-08
-6.32392e-11
1.63309e-08
-6.18523e-11
1.6311e-08
-6.00526e-11
1.62925e-08
-5.78078e-11
1.62757e-08
-5.51288e-11
1.62605e-08
-5.20706e-11
1.62471e-08
-4.86914e-11
1.62353e-08
-4.5033e-11
1.62254e-08
-4.11206e-11
-3.69743e-11
1.62172e-08
1.17242e-08
-4.19711e-11
1.17025e-08
-4.30735e-11
1.16813e-08
-4.3829e-11
1.16604e-08
-4.40976e-11
1.16402e-08
-4.40196e-11
1.16206e-08
-4.36758e-11
1.16018e-08
-4.30634e-11
1.15839e-08
-4.21463e-11
1.1567e-08
-4.08992e-11
1.15512e-08
-3.93268e-11
1.15366e-08
-3.74656e-11
1.15233e-08
-3.53552e-11
1.15113e-08
-3.30256e-11
1.15006e-08
-3.04933e-11
-2.77716e-11
1.14914e-08
8.0689e-09
-2.53669e-11
8.05219e-09
-2.63605e-11
8.03543e-09
-2.70704e-11
8.01877e-09
-2.74411e-11
8.00234e-09
-2.75877e-11
7.98623e-09
-2.75609e-11
7.97052e-09
-2.73584e-11
7.95533e-09
-2.69559e-11
7.94077e-09
-2.63353e-11
7.92694e-09
-2.54966e-11
7.91393e-09
-2.44614e-11
7.90183e-09
-2.32539e-11
7.8907e-09
-2.18939e-11
7.8806e-09
-2.03905e-11
-1.87494e-11
7.87157e-09
5.28198e-09
-1.34463e-11
5.26978e-09
-1.416e-11
5.25736e-09
-1.4651e-11
5.24486e-09
-1.49427e-11
5.23238e-09
-1.5111e-11
5.22001e-09
-1.51827e-11
5.2078e-09
-1.51567e-11
5.19587e-09
-1.50187e-11
5.18429e-09
-1.4757e-11
5.17316e-09
-1.43696e-11
5.16257e-09
-1.38673e-11
5.15258e-09
-1.32628e-11
5.14325e-09
-1.25677e-11
5.13464e-09
-1.17856e-11
-1.09159e-11
5.12681e-09
3.17902e-09
-5.64381e-12
3.1709e-09
-6.04076e-12
3.16253e-09
-6.2831e-12
3.15403e-09
-6.43779e-12
3.14546e-09
-6.54093e-12
3.13688e-09
-6.60299e-12
3.12835e-09
-6.62319e-12
3.11992e-09
-6.59482e-12
3.11168e-09
-6.51183e-12
3.10368e-09
-6.37217e-12
3.09599e-09
-6.18001e-12
3.08867e-09
-5.94054e-12
3.08176e-09
-5.65919e-12
3.07531e-09
-5.33665e-12
-4.96844e-12
3.06936e-09
1.61209e-09
-1.36578e-12
1.60755e-09
-1.50461e-12
1.60283e-09
-1.56367e-12
1.598e-09
-1.60473e-12
1.59309e-09
-1.63538e-12
1.58815e-09
-1.6569e-12
1.58319e-09
-1.66859e-12
1.57827e-09
-1.66835e-12
1.57341e-09
-1.65432e-12
1.56866e-09
-1.62558e-12
1.56406e-09
-1.58303e-12
1.55965e-09
-1.52788e-12
1.55545e-09
-1.46176e-12
1.5515e-09
-1.38424e-12
-1.29113e-12
1.54783e-09
4.62975e-10
4.61471e-10
4.59907e-10
4.58302e-10
4.56667e-10
4.5501e-10
4.53341e-10
4.51673e-10
4.50019e-10
4.48393e-10
4.4681e-10
4.45282e-10
4.4382e-10
4.42436e-10
4.41145e-10
1.26329e-09
-5.15716e-10
3.0826e-10
1.56048e-09
-4.46724e-10
1.49529e-10
1.86018e-09
-3.12441e-10
1.27441e-11
2.15517e-09
-1.80525e-10
-1.14465e-10
2.44313e-09
-5.86549e-11
-2.29306e-10
2.72438e-09
4.31816e-11
-3.24433e-10
2.99992e-09
1.21367e-10
-3.96905e-10
3.27055e-09
1.72647e-10
-4.43279e-10
3.53695e-09
1.93923e-10
-4.60317e-10
3.79963e-09
1.82203e-10
-4.44885e-10
4.05898e-09
1.34742e-10
-3.94095e-10
4.31523e-09
4.9359e-11
-3.05609e-10
4.56849e-09
-7.48036e-11
-1.7845e-10
4.81878e-09
-2.35668e-10
-1.46261e-11
5.06632e-09
-4.25437e-10
1.77901e-10
5.31187e-09
-6.26901e-10
3.81344e-10
5.55739e-09
-8.08635e-10
5.63113e-10
5.807e-09
-9.17094e-10
6.67489e-10
6.06782e-09
-8.79684e-10
6.18864e-10
6.35055e-09
-5.93979e-10
3.11253e-10
6.66839e-09
2.67987e-11
-3.44641e-10
7.03218e-09
1.03408e-09
-1.39787e-09
7.38257e-09
1.93489e-09
-2.28528e-09
7.68405e-09
2.31811e-09
-2.61959e-09
7.92902e-09
2.28466e-09
-2.52963e-09
8.11598e-09
1.96039e-09
-2.14735e-09
8.24607e-09
1.45709e-09
-1.58719e-09
8.32109e-09
8.50087e-10
-9.25106e-10
8.3423e-09
1.95396e-10
-2.16605e-10
8.31036e-09
-4.59743e-10
4.91686e-10
8.22589e-09
-1.07207e-09
1.15654e-09
8.09015e-09
-1.60204e-09
1.73779e-09
7.90533e-09
-2.01617e-09
2.20099e-09
7.67464e-09
-2.28964e-09
2.52033e-09
7.40192e-09
-2.4075e-09
2.68022e-09
7.09118e-09
-2.36415e-09
2.67489e-09
6.74614e-09
-2.16112e-09
2.50616e-09
6.37014e-09
-1.80345e-09
2.17945e-09
5.96643e-09
-1.29495e-09
1.69865e-09
5.53821e-09
-6.34124e-10
1.06235e-09
5.08632e-09
1.82022e-10
2.69871e-10
4.60403e-09
1.13568e-09
-6.5339e-10
4.07399e-09
2.12378e-09
-1.59374e-09
3.50251e-09
2.89793e-09
-2.32646e-09
2.77186e-09
3.16683e-09
-2.43618e-09
2.63055e-09
-5.98063e-10
2.80717e-09
-6.23349e-10
3.04716e-09
-5.52429e-10
3.31509e-09
-4.48456e-10
3.59574e-09
-3.39308e-10
3.88083e-09
-2.41909e-10
4.16661e-09
-1.64415e-10
4.45131e-09
-1.12052e-10
4.73406e-09
-8.88262e-11
5.01444e-09
-9.81699e-11
5.29218e-09
-1.43002e-10
5.56708e-09
-2.25538e-10
5.83886e-09
-3.46591e-10
6.10729e-09
-5.04094e-10
6.3723e-09
-6.90447e-10
6.63447e-09
-8.89076e-10
6.89565e-09
-1.06981e-09
7.16003e-09
-1.18147e-09
7.4351e-09
-1.15476e-09
7.73239e-09
-8.91265e-10
8.06649e-09
-3.073e-10
8.45026e-09
6.50308e-10
8.8228e-09
1.56235e-09
9.14655e-09
1.99437e-09
9.41271e-09
2.01849e-09
9.6188e-09
1.7543e-09
9.76512e-09
1.31077e-09
9.85284e-09
7.62361e-10
9.8829e-09
1.65343e-10
9.85583e-09
-4.32673e-10
9.7724e-09
-9.88646e-10
9.63426e-09
-1.46389e-09
9.44427e-09
-1.82618e-09
9.20658e-09
-2.05195e-09
8.92635e-09
-2.12727e-09
8.60938e-09
-2.04717e-09
8.26187e-09
-1.81362e-09
7.89076e-09
-1.43234e-09
7.50497e-09
-9.09155e-10
7.11761e-09
-2.46761e-10
6.74799e-09
5.51636e-10
6.42243e-09
1.46124e-09
6.17428e-09
2.37193e-09
6.05335e-09
3.01887e-09
2.85068e-09
5.97454e-09
4.57831e-09
-6.14547e-10
4.65701e-09
-7.02046e-10
4.81003e-09
-7.0545e-10
5.01934e-09
-6.57766e-10
5.26355e-09
-5.83512e-10
5.52862e-09
-5.06982e-10
5.8057e-09
-4.41498e-10
6.08941e-09
-3.95755e-10
6.37636e-09
-3.7578e-10
6.66442e-09
-3.86236e-10
6.95214e-09
-4.30721e-10
7.23841e-09
-5.11806e-10
7.52229e-09
-6.30473e-10
7.80298e-09
-7.84784e-10
8.07996e-09
-9.67423e-10
8.35342e-09
-1.16254e-09
8.62497e-09
-1.34136e-09
8.8987e-09
-1.45519e-09
9.18238e-09
-1.43845e-09
9.48826e-09
-1.19715e-09
9.83235e-09
-6.51382e-10
1.02298e-08
2.52893e-10
1.06194e-08
1.17267e-09
1.0962e-08
1.65177e-09
1.12474e-08
1.73315e-09
1.14718e-08
1.52994e-09
1.16343e-08
1.14824e-09
1.17353e-08
6.61331e-10
1.17753e-08
1.25406e-10
1.17545e-08
-4.11895e-10
1.16739e-08
-9.08079e-10
1.15357e-08
-1.32566e-09
1.13435e-08
-1.63398e-09
1.11027e-08
-1.81113e-09
1.082e-08
-1.84461e-09
1.05035e-08
-1.73067e-09
1.01624e-08
-1.47251e-09
9.80788e-09
-1.07784e-09
9.45513e-09
-5.56402e-10
9.12695e-09
8.14138e-11
8.85758e-09
8.21006e-10
8.6934e-09
1.62542e-09
8.67638e-09
2.38896e-09
8.80084e-09
2.8944e-09
2.77429e-09
8.87723e-09
7.23374e-09
-5.94453e-10
7.24731e-09
-7.15616e-10
7.31646e-09
-7.74603e-10
7.44684e-09
-7.88144e-10
7.62932e-09
-7.65986e-10
7.84833e-09
-7.25997e-10
8.09282e-09
-6.85991e-10
8.3546e-09
-6.57533e-10
8.62767e-09
-6.4885e-10
8.90777e-09
-6.66332e-10
9.19176e-09
-7.14713e-10
9.47723e-09
-7.97278e-10
9.76223e-09
-9.15468e-10
1.00451e-08
-1.06762e-09
1.03245e-08
-1.24688e-09
1.06002e-08
-1.43821e-09
1.08732e-08
-1.61438e-09
1.11474e-08
-1.72941e-09
1.14307e-08
-1.72174e-09
1.17359e-08
-1.50234e-09
1.20803e-08
-9.95809e-10
1.24816e-08
-1.48372e-10
1.28803e-08
7.73969e-10
1.32358e-08
1.29627e-09
1.35363e-08
1.43267e-09
1.37765e-08
1.28975e-09
1.3954e-08
9.70696e-10
1.40681e-08
5.47261e-10
1.41184e-08
7.50908e-11
1.41051e-08
-3.98572e-10
1.40292e-08
-8.32213e-10
1.38935e-08
-1.18995e-09
1.37027e-08
-1.44314e-09
1.34634e-08
-1.57188e-09
1.31844e-08
-1.56564e-09
1.28762e-08
-1.42246e-09
1.25513e-08
-1.14759e-09
1.22252e-08
-7.51693e-10
1.19184e-08
-2.49591e-10
1.16597e-08
3.40103e-10
1.14896e-08
9.91111e-10
1.14558e-08
1.65915e-09
1.1589e-08
2.25576e-09
1.18527e-08
2.63077e-09
2.59008e-09
1.20369e-08
1.07669e-08
-5.5999e-10
1.07405e-08
-6.89152e-10
1.07482e-08
-7.82311e-10
1.08008e-08
-8.40808e-10
1.09064e-08
-8.71561e-10
1.10585e-08
-8.78088e-10
1.12467e-08
-8.74188e-10
1.14628e-08
-8.73602e-10
1.16994e-08
-8.85477e-10
1.19507e-08
-9.1759e-10
1.22118e-08
-9.75821e-10
1.24788e-08
-1.06435e-09
1.27487e-08
-1.18528e-09
1.30184e-08
-1.33739e-09
1.32859e-08
-1.5144e-09
1.355e-08
-1.70225e-09
1.38111e-08
-1.87544e-09
1.40725e-08
-1.99083e-09
1.4342e-08
-1.99129e-09
1.46329e-08
-1.79326e-09
1.49637e-08
-1.3266e-09
1.53546e-08
-5.39205e-10
1.57501e-08
3.7839e-10
1.61091e-08
9.37314e-10
1.64177e-08
1.12407e-09
1.66688e-08
1.03861e-09
1.68583e-08
7.8127e-10
1.69837e-08
4.21859e-10
1.70439e-08
1.49148e-11
1.70385e-08
-3.93264e-10
1.6969e-08
-7.62667e-10
1.68386e-08
-1.05952e-09
1.6653e-08
-1.25761e-09
1.64207e-08
-1.33956e-09
1.61523e-08
-1.29719e-09
1.58607e-08
-1.13093e-09
1.55617e-08
-8.48568e-10
1.52741e-08
-4.64112e-10
1.50218e-08
2.77053e-12
1.48347e-08
5.27153e-10
1.47501e-08
1.07572e-09
1.48051e-08
1.60419e-09
1.50135e-08
2.0473e-09
1.53281e-08
2.31619e-09
2.32354e-09
1.55946e-08
1.53755e-08
-5.24026e-10
1.53307e-08
-6.44414e-10
1.53002e-08
-7.51736e-10
1.52968e-08
-8.37465e-10
1.5331e-08
-9.05711e-10
1.54061e-08
-9.53191e-10
1.55227e-08
-9.90849e-10
1.56728e-08
-1.02366e-09
1.58506e-08
-1.06327e-09
1.605e-08
-1.11701e-09
1.62655e-08
-1.1913e-09
1.64921e-08
-1.29097e-09
1.67255e-08
-1.41871e-09
1.69618e-08
-1.57367e-09
1.71977e-08
-1.75033e-09
1.74311e-08
-1.93559e-09
1.76615e-08
-2.1059e-09
1.78917e-08
-2.22102e-09
1.81291e-08
-2.22873e-09
1.83872e-08
-2.05131e-09
1.86853e-08
-1.62467e-09
1.90461e-08
-9.0002e-10
1.94215e-08
2.96993e-12
1.97702e-08
5.8861e-10
2.00762e-08
8.18101e-10
2.03302e-08
7.84629e-10
2.05256e-08
5.85806e-10
2.06584e-08
2.89045e-10
2.07263e-08
-5.28928e-11
2.07283e-08
-3.95292e-10
2.06659e-08
-7.00267e-10
2.05431e-08
-9.36692e-10
2.03667e-08
-1.08128e-09
2.01468e-08
-1.11959e-09
1.98958e-08
-1.0462e-09
1.9629e-08
-8.6417e-10
1.93644e-08
-5.83984e-10
1.91229e-08
-2.22601e-10
1.89285e-08
1.97183e-10
1.88084e-08
6.47262e-10
1.87905e-08
1.09366e-09
1.88968e-08
1.4979e-09
1.91276e-08
1.81642e-09
1.94402e-08
2.00366e-09
2.02697e-09
1.97367e-08
2.12926e-08
-4.92162e-10
2.12461e-08
-5.9784e-10
2.11976e-08
-7.03218e-10
2.11607e-08
-8.0065e-10
2.11442e-08
-8.8922e-10
2.11552e-08
-9.64195e-10
2.11986e-08
-1.03419e-09
2.12738e-08
-1.09887e-09
2.13784e-08
-1.16787e-09
2.15074e-08
-1.24596e-09
2.16561e-08
-1.34e-09
2.18196e-08
-1.45456e-09
2.19934e-08
-1.5925e-09
2.21727e-08
-1.75297e-09
2.23536e-08
-1.93114e-09
2.25328e-08
-2.11483e-09
2.27094e-08
-2.2825e-09
2.28851e-08
-2.39676e-09
2.30671e-08
-2.41075e-09
2.32687e-08
-2.2529e-09
2.35098e-08
-1.86575e-09
2.38155e-08
-1.20567e-09
2.41484e-08
-3.29952e-10
2.44682e-08
2.68751e-10
2.47563e-08
5.30007e-10
2.5001e-08
5.39959e-10
2.51931e-08
3.93743e-10
2.53263e-08
1.5582e-10
2.5397e-08
-1.2355e-10
2.54036e-08
-4.01953e-10
2.53476e-08
-6.44299e-10
2.52336e-08
-8.22697e-10
2.50696e-08
-9.17243e-10
2.48668e-08
-9.16751e-10
2.46393e-08
-8.1878e-10
2.44042e-08
-6.28975e-10
2.41803e-08
-3.60096e-10
2.39886e-08
-3.09473e-11
2.38509e-08
3.34851e-10
2.37886e-08
7.09644e-10
2.38187e-08
1.06354e-09
2.39497e-08
1.36687e-09
2.41733e-08
1.59285e-09
2.44558e-08
1.72112e-09
1.74365e-09
2.47391e-08
2.8793e-08
-4.64613e-10
2.8751e-08
-5.5577e-10
2.87e-08
-6.52246e-10
2.86484e-08
-7.4906e-10
2.86028e-08
-8.43581e-10
2.85719e-08
-9.33357e-10
2.85591e-08
-1.02139e-09
2.85681e-08
-1.10782e-09
2.85993e-08
-1.19914e-09
2.86516e-08
-1.29822e-09
2.8722e-08
-1.41039e-09
2.88067e-08
-1.53931e-09
2.89019e-08
-1.68768e-09
2.90029e-08
-1.85398e-09
2.91057e-08
-2.03394e-09
2.92068e-08
-2.21588e-09
2.93046e-08
-2.38032e-09
2.94003e-08
-2.49247e-09
2.95007e-08
-2.51115e-09
2.96189e-08
-2.37112e-09
2.9775e-08
-2.02182e-09
2.9996e-08
-1.42665e-09
3.02594e-08
-5.93429e-10
3.05273e-08
9.02126e-13
3.07777e-08
2.79569e-10
3.09965e-08
3.21201e-10
3.11715e-08
2.1873e-10
3.12943e-08
3.29966e-11
3.13597e-08
-1.88939e-10
3.13655e-08
-4.07703e-10
3.13129e-08
-5.91694e-10
3.1207e-08
-7.16794e-10
3.10566e-08
-7.66855e-10
3.0874e-08
-7.34136e-10
3.06743e-08
-6.191e-10
3.04749e-08
-4.29609e-10
3.02946e-08
-1.79804e-10
3.01524e-08
1.11225e-10
3.00661e-08
4.21191e-10
3.005e-08
7.25777e-10
3.01121e-08
1.0014e-09
3.02516e-08
1.22735e-09
3.04561e-08
1.38839e-09
3.07003e-08
1.47695e-09
1.4946e-09
3.09493e-08
3.81909e-08
-4.39257e-10
3.81533e-08
-5.18144e-10
3.81052e-08
-6.04188e-10
3.80507e-08
-6.945e-10
3.7994e-08
-7.86912e-10
3.79406e-08
-8.79991e-10
3.78936e-08
-9.74332e-10
3.78568e-08
-1.07106e-09
3.7831e-08
-1.17338e-09
3.78169e-08
-1.2841e-09
3.78134e-08
-1.40684e-09
3.7818e-08
-1.54392e-09
3.78279e-08
-1.69757e-09
3.78398e-08
-1.86591e-09
3.78501e-08
-2.04419e-09
3.78553e-08
-2.22109e-09
3.78542e-08
-2.37925e-09
3.78477e-08
-2.486e-09
3.78426e-08
-2.50605e-09
3.7852e-08
-2.38045e-09
3.78956e-08
-2.06542e-09
3.80019e-08
-1.53292e-09
3.81672e-08
-7.58779e-10
3.83574e-08
-1.8926e-10
3.85472e-08
8.96987e-11
3.87198e-08
1.48631e-10
3.88601e-08
7.84345e-11
3.89578e-08
-6.46868e-11
3.90061e-08
-2.37265e-10
3.90021e-08
-4.03642e-10
3.89467e-08
-5.36356e-10
3.88454e-08
-6.15486e-10
3.87074e-08
-6.28842e-10
3.85453e-08
-5.72087e-10
3.83745e-08
-4.48253e-10
3.82116e-08
-2.66713e-10
3.80737e-08
-4.18816e-11
3.79764e-08
2.08495e-10
3.79327e-08
4.64852e-10
3.79507e-08
7.07843e-10
3.80318e-08
9.20258e-10
3.81704e-08
1.08878e-09
3.83533e-08
1.20548e-09
3.85616e-08
1.26865e-09
1.2826e-09
3.87736e-08
4.98292e-08
-4.14972e-10
4.97948e-08
-4.83724e-10
4.97505e-08
-5.59832e-10
4.96978e-08
-6.41804e-10
4.96391e-08
-7.28203e-10
4.95771e-08
-8.18026e-10
4.9514e-08
-9.11272e-10
4.94518e-08
-1.00886e-09
4.93911e-08
-1.11261e-09
4.93318e-08
-1.22482e-09
4.92729e-08
-1.34795e-09
4.92129e-08
-1.48391e-09
4.91489e-08
-1.63357e-09
4.90781e-08
-1.79515e-09
4.89977e-08
-1.96376e-09
4.89047e-08
-2.12813e-09
4.87985e-08
-2.27306e-09
4.86802e-08
-2.36765e-09
4.85567e-08
-2.38261e-09
4.84414e-08
-2.26513e-09
4.83538e-08
-1.97778e-09
4.83226e-08
-1.50172e-09
4.83656e-08
-8.01835e-10
4.84548e-08
-2.78445e-10
4.85621e-08
-1.75496e-11
4.86674e-08
4.33314e-11
4.87532e-08
-7.38664e-12
4.88084e-08
-1.19881e-10
4.8825e-08
-2.53895e-10
4.87993e-08
-3.77926e-10
4.87322e-08
-4.69228e-10
4.8629e-08
-5.12265e-10
4.84989e-08
-4.98764e-10
4.83543e-08
-4.27488e-10
4.82095e-08
-3.03448e-10
4.80794e-08
-1.36646e-10
4.79782e-08
5.93222e-11
4.79176e-08
2.6909e-10
4.79057e-08
4.76729e-10
4.79457e-08
6.67847e-10
4.80353e-08
8.30659e-10
4.8167e-08
9.57136e-10
4.83289e-08
1.04358e-09
4.85068e-08
1.09067e-09
1.10278e-09
4.86867e-08
6.40677e-08
-3.93453e-10
6.40376e-08
-4.53615e-10
6.39984e-08
-5.20647e-10
6.39505e-08
-5.93899e-10
6.38948e-08
-6.72538e-10
6.38327e-08
-7.55884e-10
6.37652e-08
-8.43748e-10
6.36929e-08
-9.36599e-10
6.36158e-08
-1.03546e-09
6.35328e-08
-1.14185e-09
6.34422e-08
-1.25736e-09
6.33416e-08
-1.38327e-09
6.32277e-08
-1.51966e-09
6.30971e-08
-1.66455e-09
6.29466e-08
-1.81329e-09
6.27733e-08
-1.9548e-09
6.25765e-08
-2.07635e-09
6.23576e-08
-2.14866e-09
6.21235e-08
-2.14859e-09
6.18877e-08
-2.02933e-09
6.16695e-08
-1.75959e-09
6.14966e-08
-1.32878e-09
6.14074e-08
-7.1265e-10
6.13831e-08
-2.5409e-10
6.13938e-08
-2.82687e-11
6.14149e-08
2.22497e-11
6.14295e-08
-2.19836e-11
6.14264e-08
-1.16848e-10
6.13969e-08
-2.24359e-10
6.1337e-08
-3.17995e-10
6.12476e-08
-3.79882e-10
6.1134e-08
-3.98656e-10
6.10048e-08
-3.69614e-10
6.08714e-08
-2.94042e-10
6.07461e-08
-1.78193e-10
6.06413e-08
-3.18347e-11
6.05675e-08
1.33157e-10
6.05325e-08
3.04048e-10
6.05405e-08
4.68814e-10
6.05911e-08
6.17174e-10
6.06804e-08
7.41423e-10
6.08006e-08
8.36925e-10
6.0942e-08
9.02198e-10
6.1094e-08
9.38667e-10
9.49918e-10
6.12468e-08
8.1289e-08
-3.78907e-10
8.1267e-08
-4.31606e-10
8.12367e-08
-4.90385e-10
8.11978e-08
-5.55047e-10
8.11505e-08
-6.25179e-10
8.1095e-08
-7.00358e-10
8.10315e-08
-7.80329e-10
8.09601e-08
-8.65209e-10
8.08801e-08
-9.55387e-10
8.07899e-08
-1.05164e-09
8.06871e-08
-1.15462e-09
8.05687e-08
-1.26486e-09
8.04307e-08
-1.38168e-09
8.02689e-08
-1.50268e-09
8.0079e-08
-1.62345e-09
7.98574e-08
-1.73314e-09
7.96027e-08
-1.82162e-09
7.93154e-08
-1.86139e-09
7.90022e-08
-1.83542e-09
7.86755e-08
-1.70266e-09
7.83545e-08
-1.43851e-09
7.8064e-08
-1.03832e-09
7.78566e-08
-5.05201e-10
7.77254e-08
-1.22939e-10
7.76401e-08
5.70014e-11
7.75751e-08
8.72593e-11
7.75139e-08
3.92026e-11
7.74451e-08
-4.79874e-11
7.73607e-08
-1.40015e-10
7.72582e-08
-2.15429e-10
7.71387e-08
-2.60406e-10
7.70073e-08
-2.67283e-10
7.6872e-08
-2.34251e-10
7.67422e-08
-1.64282e-10
7.66281e-08
-6.41096e-11
7.65388e-08
5.7482e-11
7.64813e-08
1.90634e-10
7.646e-08
3.25326e-10
7.64761e-08
4.52808e-10
7.65272e-08
5.65985e-10
7.66088e-08
6.59907e-10
7.67138e-08
7.31931e-10
7.68344e-08
7.81589e-10
7.69627e-08
8.10292e-10
8.20728e-10
7.70919e-08
1.0194e-07
-3.75445e-10
1.0193e-07
-4.21558e-10
1.01913e-07
-4.72837e-10
1.01887e-07
-5.29284e-10
1.01852e-07
-5.9072e-10
1.01809e-07
-6.56884e-10
1.01756e-07
-7.27494e-10
1.01693e-07
-8.02439e-10
1.01619e-07
-8.81614e-10
1.01533e-07
-9.65185e-10
1.01431e-07
-1.05293e-09
1.01311e-07
-1.14464e-09
1.01168e-07
-1.23884e-09
1.00998e-07
-1.33261e-09
1.00796e-07
-1.42159e-09
1.00558e-07
-1.49511e-09
1.00282e-07
-1.5453e-09
9.99671e-08
-1.54656e-09
9.96192e-08
-1.48754e-09
9.92492e-08
-1.3326e-09
9.88746e-08
-1.06387e-09
9.85173e-08
-6.81052e-10
9.82349e-08
-2.22847e-10
9.80298e-08
8.22063e-11
9.78728e-08
2.13953e-10
9.77366e-08
2.2346e-10
9.76094e-08