/*--------------------------------*- C++ -*----------------------------------*\
| =========                 |                                                 |
| \\      /  F ield         | OpenFOAM: The Open Source CFD Toolbox           |
|  \\    /   O peration     | Version:  2312                                  |
|   \\  /    A nd           | Website:  www.openfoam.com                      |
|    \\/     M anipulation  |                                                 |
\*---------------------------------------------------------------------------*/
FoamFile
{
    version     2.0;
    format      ascii;
    arch        "LSB;label=32;scalar=64";
    class       surfaceScalarField;
    location    "154";
    object      phi;
}
// * * * * * * * * * * * * * * * * * * * * * * * * * * * * * * * * * * * * * //

dimensions      [0 3 -1 0 0 0 0];

oriented        oriented;

internalField   nonuniform List<scalar> 
9445
(
5.71762e-10
1.45442e-11
5.62875e-10
8.88738e-12
5.57619e-10
5.25565e-12
5.54803e-10
2.81647e-12
5.53772e-10
1.03056e-12
5.54186e-10
-4.14093e-13
5.5563e-10
-1.44351e-12
5.58104e-10
-2.474e-12
5.6178e-10
-3.67642e-12
5.66998e-10
-5.21808e-12
5.748e-10
-7.80222e-12
5.88671e-10
-1.38704e-11
6.20788e-10
-3.2117e-11
7.13513e-10
-9.27254e-11
-2.38335e-10
9.51849e-10
1.99774e-09
6.34492e-11
1.9678e-09
3.88324e-11
1.95e-09
2.30507e-11
1.94033e-09
1.24914e-11
1.93661e-09
4.74873e-12
1.93745e-09
-1.2519e-12
1.9416e-09
-5.60087e-12
1.9491e-09
-9.96692e-12
1.9603e-09
-1.48796e-11
1.97619e-09
-2.11117e-11
1.99946e-09
-3.10676e-11
2.03674e-09
-5.11504e-11
2.10089e-09
-9.62665e-11
2.20382e-09
-1.95657e-10
-3.45665e-10
2.31115e-09
3.94608e-09
1.56486e-10
3.889e-09
9.59137e-11
3.85491e-09
5.71369e-11
3.83614e-09
3.12625e-11
3.82853e-09
1.23601e-11
3.82918e-09
-1.89875e-12
3.83588e-09
-1.23088e-11
3.84855e-09
-2.26334e-11
3.86748e-09
-3.38057e-11
3.89376e-09
-4.73906e-11
3.93004e-09
-6.73559e-11
3.98078e-09
-1.0189e-10
4.04857e-09
-1.64056e-10
4.12014e-09
-2.67224e-10
-3.86554e-10
4.16103e-09
6.56153e-09
3.04647e-10
6.47028e-09
1.87169e-10
6.41539e-09
1.12027e-10
6.38466e-09
6.19908e-11
6.37133e-09
2.56934e-11
6.3706e-09
-1.17381e-12
6.37914e-09
-2.08482e-11
6.39626e-09
-3.97532e-11
6.42182e-09
-5.93682e-11
6.45617e-09
-8.17411e-11
6.50029e-09
-1.11476e-10
6.55386e-09
-1.55458e-10
6.61068e-09
-2.20871e-10
6.65179e-09
-3.08337e-10
-3.91724e-10
6.65696e-09
1.00198e-08
5.19218e-10
9.88682e-09
3.20173e-10
9.80602e-09
1.92833e-10
9.75987e-09
1.08138e-10
9.73825e-09
4.73117e-11
9.73428e-09
2.79526e-12
9.7433e-09
-2.98662e-11
9.76318e-09
-5.96355e-11
9.79296e-09
-8.91466e-11
9.83157e-09
-1.20352e-10
9.87755e-09
-1.57455e-10
9.92654e-09
-2.04442e-10
9.9686e-09
-2.62936e-10
9.988e-09
-3.27737e-10
-3.80054e-10
9.97633e-09
1.45294e-08
8.09523e-10
1.43477e-08
5.01853e-10
1.42359e-08
3.0463e-10
1.41706e-08
1.7344e-10
1.41376e-08
8.0241e-11
1.41278e-08
1.26097e-11
1.41351e-08
-3.71384e-11
1.41553e-08
-7.98373e-11
1.41859e-08
-1.1971e-10
1.42242e-08
-1.58727e-10
1.42667e-08
-1.99946e-10
1.4307e-08
-2.44715e-10
1.43356e-08
-2.91531e-10
1.43426e-08
-3.34706e-10
-3.63811e-10
1.43263e-08
2.03295e-08
1.17855e-09
2.00953e-08
7.35977e-10
1.9949e-08
4.50969e-10
1.98614e-08
2.60995e-10
1.98144e-08
1.27317e-10
1.9796e-08
3.10067e-11
1.97985e-08
-3.96751e-11
1.98159e-08
-9.72411e-11
1.98435e-08
-1.47343e-10
1.98774e-08
-1.9259e-10
1.99125e-08
-2.35008e-10
1.99424e-08
-2.74638e-10
1.99603e-08
-3.09445e-10
1.99613e-08
-3.35742e-10
-3.49149e-10
1.99467e-08
2.76838e-08
1.61593e-09
2.7401e-08
1.01879e-09
2.72209e-08
6.31065e-10
2.71105e-08
3.71417e-10
2.70479e-08
1.89882e-10
2.7019e-08
5.99455e-11
2.70141e-08
-3.4837e-11
2.70255e-08
-1.08671e-10
2.7047e-08
-1.68779e-10
2.70731e-08
-2.18754e-10
2.70987e-08
-2.60542e-10
2.71184e-08
-2.94371e-10
2.71283e-08
-3.1931e-10
2.71266e-08
-3.34115e-10
-3.37949e-10
2.71154e-08
3.68696e-08
2.08963e-09
3.65552e-08
1.33319e-09
3.63506e-08
8.35681e-10
3.62222e-08
4.99882e-10
3.61464e-08
2.65675e-10
3.61074e-08
9.89133e-11
3.60943e-08
-2.17695e-11
3.60981e-08
-1.12457e-10
3.61115e-08
-1.8217e-10
3.61287e-08
-2.35903e-10
3.61446e-08
-2.76532e-10
3.61558e-08
-3.05506e-10
3.616e-08
-3.23567e-10
3.61574e-08
-3.3146e-10
-3.30214e-10
3.61496e-08
4.81718e-08
2.54269e-09
4.78604e-08
1.64452e-09
4.76527e-08
1.04338e-09
4.75196e-08
6.33035e-10
4.74389e-08
3.46347e-10
4.7395e-08
1.42859e-10
4.73764e-08
-3.21092e-12
4.7374e-08
-1.10027e-10
4.73803e-08
-1.88497e-10
4.73899e-08
-2.4544e-10
4.73986e-08
-2.85287e-10
4.74042e-08
-3.11086e-10
4.74058e-08
-3.25132e-10
4.74038e-08
-3.29522e-10
-3.26216e-10
4.73998e-08
6.19028e-08
2.90685e-09
6.16415e-08
1.90581e-09
6.14629e-08
1.22203e-09
6.1347e-08
7.4893e-10
6.12765e-08
4.16793e-10
6.12381e-08
1.81296e-10
6.12214e-08
1.34818e-11
6.12183e-08
-1.06957e-10
6.12223e-08
-1.92493e-10
6.12289e-08
-2.52024e-10
6.12353e-08
-2.91632e-10
6.124e-08
-3.15818e-10
6.12429e-08
-3.28033e-10
6.12445e-08
-3.31181e-10
-3.27662e-10
6.1246e-08
7.8474e-08
3.13882e-09
7.83003e-08
2.07946e-09
7.81803e-08
1.34202e-09
7.81041e-08
8.25134e-10
7.80607e-08
4.60226e-10
7.80404e-08
2.01599e-10
7.80356e-08
1.82568e-11
7.80402e-08
-1.11495e-10
7.80492e-08
-2.0156e-10
7.80598e-08
-2.62623e-10
7.80703e-08
-3.02138e-10
7.80802e-08
-3.25647e-10
7.80895e-08
-3.37326e-10
7.80988e-08
-3.40488e-10
-3.37711e-10
7.81088e-08
9.84923e-08
3.25342e-09
9.84064e-08
2.16542e-09
9.83504e-08
1.39795e-09
9.83205e-08
8.55019e-10
9.83105e-08
4.70243e-10
9.83142e-08
1.97955e-10
9.8327e-08
5.41652e-12
9.83446e-08
-1.29124e-10
9.83643e-08
-2.21255e-10
9.83845e-08
-2.82793e-10
9.84045e-08
-3.22142e-10
9.84243e-08
-3.4546e-10
9.84443e-08
-3.57296e-10
9.84649e-08
-3.61125e-10
-3.59553e-10
9.84868e-08
1.22759e-07
3.30519e-09
1.22724e-07
2.20075e-09
1.22707e-07
1.41535e-09
1.22705e-07
8.56539e-10
1.22716e-07
4.59619e-10
1.22734e-07
1.79474e-10
1.22758e-07
-1.89383e-11
1.22785e-07
-1.56119e-10
1.22814e-07
-2.49518e-10
1.22843e-07
-3.11644e-10
1.22872e-07
-3.5145e-10
1.22902e-07
-3.75424e-10
1.22933e-07
-3.88281e-10
1.22965e-07
-3.93523e-10
-3.93723e-10
1.22999e-07
1.52059e-07
3.32775e-09
1.52041e-07
2.2185e-09
1.52033e-07
1.4238e-09
1.52034e-07
8.55217e-10
1.52044e-07
4.49965e-10
1.5206e-07
1.63631e-10
1.52081e-07
-4.04871e-11
1.52106e-07
-1.81139e-10
1.52134e-07
-2.77198e-10
1.52164e-07
-3.41666e-10
1.52196e-07
-3.83791e-10
1.52231e-07
-4.10212e-10
1.52268e-07
-4.257e-10
1.52309e-07
-4.33733e-10
-4.36837e-10
1.52352e-07
1.86868e-07
3.30893e-09
1.86869e-07
2.21695e-09
1.86865e-07
1.42757e-09
1.86862e-07
8.58286e-10
1.86862e-07
4.50149e-10
1.86867e-07
1.58893e-10
1.86877e-07
-5.08855e-11
1.86893e-07
-1.965e-10
1.86913e-07
-2.97194e-10
1.86937e-07
-3.66274e-10
1.86966e-07
-4.13048e-10
1.87e-07
-4.44149e-10
1.87039e-07
-4.64311e-10
1.87082e-07
-4.7696e-10
-4.84539e-10
1.8713e-07
2.27215e-07
3.22141e-09
2.27256e-07
2.17568e-09
2.27272e-07
1.4117e-09
2.27275e-07
8.54997e-10
2.27274e-07
4.51676e-10
2.27272e-07
1.60753e-10
2.27274e-07
-5.34648e-11
2.27282e-07
-2.04102e-10
2.27295e-07
-3.10377e-10
2.27314e-07
-3.85542e-10
2.2734e-07
-4.3868e-10
2.27372e-07
-4.76225e-10
2.27411e-07
-5.0278e-10
2.27455e-07
-5.21686e-10
-5.35322e-10
2.27506e-07
2.72603e-07
3.05217e-09
2.72697e-07
2.08168e-09
2.72745e-07
1.36425e-09
2.72766e-07
8.33969e-10
2.72772e-07
4.45333e-10
2.72773e-07
1.60183e-10
2.72774e-07
-5.48933e-11
2.7278e-07
-2.09757e-10
2.72791e-07
-3.21602e-10
2.72809e-07
-4.03635e-10
2.72835e-07
-4.64331e-10
2.72868e-07
-5.09668e-10
2.72909e-07
-5.43988e-10
2.72958e-07
-5.70485e-10
-5.91458e-10
2.73014e-07
3.21671e-07
2.79975e-09
3.21822e-07
1.93102e-09
3.21907e-07
1.27977e-09
3.2195e-07
7.9068e-10
3.2197e-07
4.25084e-10
3.21977e-07
1.53367e-10
3.21983e-07
-6.07815e-11
3.21992e-07
-2.19026e-10
3.22007e-07
-3.36742e-10
3.2203e-07
-4.26256e-10
3.22061e-07
-4.95299e-10
3.22101e-07
-5.49357e-10
3.22149e-07
-5.92466e-10
3.22206e-07
-6.27628e-10
-6.56623e-10
3.22271e-07
3.71469e-07
2.45691e-09
3.71687e-07
1.71293e-09
3.71822e-07
1.1447e-09
3.71901e-07
7.12349e-10
3.71944e-07
3.8181e-10
3.71969e-07
1.28176e-10
3.71982e-07
-7.37152e-11
3.7199e-07
-2.26846e-10
3.71998e-07
-3.45168e-10
3.72011e-07
-4.38621e-10
3.72029e-07
-5.13771e-10
3.72055e-07
-5.75273e-10
3.72089e-07
-6.26566e-10
3.72132e-07
-6.70236e-10
-7.08171e-10
3.72183e-07
3.69477e-07
2.07825e-09
3.6973e-07
1.45926e-09
3.69897e-07
9.77665e-10
3.70007e-07
6.02269e-10
3.70079e-07
3.10505e-10
3.70121e-07
8.60319e-11
3.70151e-07
-1.03783e-10
3.70172e-07
-2.47995e-10
3.70192e-07
-3.64634e-10
3.70213e-07
-4.60341e-10
3.70239e-07
-5.39765e-10
3.70271e-07
-6.06853e-10
3.70309e-07
-6.64601e-10
3.70354e-07
-7.15187e-10
-7.59942e-10
3.70406e-07
3.17192e-07
1.73938e-09
3.17415e-07
1.23654e-09
3.17555e-07
8.37108e-10
3.17638e-07
5.19752e-10
3.17683e-07
2.65327e-10
3.17709e-07
6.02613e-11
3.17714e-07
-1.08929e-10
3.17713e-07
-2.47206e-10
3.1771e-07
-3.61223e-10
3.17707e-07
-4.57022e-10
3.17706e-07
-5.38897e-10
3.17709e-07
-6.09944e-10
3.17717e-07
-6.7242e-10
3.17729e-07
-7.28029e-10
-7.77994e-10
3.17747e-07
2.66031e-07
1.41966e-09
2.66256e-07
1.01223e-09
2.6641e-07
6.82435e-10
2.66516e-07
4.1444e-10
2.66585e-07
1.95975e-10
2.66628e-07
1.68942e-11
2.66653e-07
-1.33417e-10
2.66665e-07
-2.59303e-10
2.6667e-07
-3.66401e-10
2.66672e-07
-4.58506e-10
2.66672e-07
-5.38824e-10
2.66671e-07
-6.09779e-10
2.66672e-07
-6.73115e-10
2.66674e-07
-7.30154e-10
-7.81849e-10
2.66678e-07
2.19642e-07
1.13399e-09
2.19848e-07
8.06495e-10
2.19993e-07
5.36668e-10
2.20094e-07
3.13949e-10
2.20161e-07
1.29226e-10
2.20203e-07
-2.56434e-11
2.20227e-07
-1.57358e-10
2.20238e-07
-2.70596e-10
2.20241e-07
-3.68896e-10
2.20237e-07
-4.55013e-10
2.2023e-07
-5.31241e-10
2.20219e-07
-5.99415e-10
2.20207e-07
-6.60878e-10
2.20194e-07
-7.16627e-10
-7.6738e-10
2.20179e-07
1.79006e-07
8.85995e-10
1.79187e-07
6.25867e-10
1.79315e-07
4.08366e-10
1.79403e-07
2.25689e-10
1.79461e-07
7.13174e-11
1.79496e-07
-6.03798e-11
1.79513e-07
-1.74567e-10
1.79517e-07
-2.74371e-10
1.7951e-07
-3.62356e-10
1.79496e-07
-4.40548e-10
1.79475e-07
-5.10589e-10
1.7945e-07
-5.73802e-10
1.7942e-07
-6.31159e-10
1.79387e-07
-6.83379e-10
-7.30973e-10
1.7935e-07
1.44256e-07
6.79138e-10
1.44407e-07
4.75393e-10
1.44513e-07
3.02327e-10
1.44584e-07
1.54471e-10
1.44628e-07
2.72869e-11
1.44651e-07
-8.28323e-11
1.44656e-07
-1.79955e-10
1.44648e-07
-2.65992e-10
1.44628e-07
-3.42828e-10
1.44599e-07
-4.11909e-10
1.44563e-07
-4.74364e-10
1.4452e-07
-5.31094e-10
1.44472e-07
-5.82765e-10
1.44419e-07
-6.29878e-10
-6.72782e-10
1.4436e-07
1.15055e-07
5.13529e-10
1.15174e-07
3.56024e-10
1.15257e-07
2.20152e-10
1.15309e-07
1.02202e-10
1.15337e-07
-6.96093e-13
1.15345e-07
-9.1419e-11
1.15338e-07
-1.72388e-10
1.15317e-07
-2.45036e-10
1.15285e-07
-3.10631e-10
1.15243e-07
-3.70144e-10
1.15193e-07
-4.24323e-10
1.15136e-07
-4.73761e-10
1.15072e-07
-5.18898e-10
1.15002e-07
-5.60068e-10
-5.97497e-10
1.14927e-07
9.08519e-08
3.84912e-10
9.09431e-08
2.64828e-10
9.10035e-08
1.5971e-10
9.10387e-08
6.70462e-11
9.10529e-08
-1.48986e-11
9.10498e-08
-8.83161e-11
9.1032e-08
-1.54576e-10
9.10016e-08
-2.14684e-10
9.09604e-08
-2.69455e-10
9.09098e-08
-3.19512e-10
9.08508e-08
-3.65334e-10
9.07843e-08
-4.07296e-10
9.07111e-08
-4.45674e-10
9.06317e-08
-4.8068e-10
-5.1245e-10
9.05467e-08
7.1025e-08
2.8666e-10
7.10933e-08
1.96507e-10
7.11365e-08
1.16468e-10
7.11587e-08
4.48453e-11
7.11631e-08
-1.9319e-11
7.11524e-08
-7.7603e-11
7.11286e-08
-1.30767e-10
7.10934e-08
-1.79453e-10
7.10481e-08
-2.24164e-10
7.09939e-08
-2.65282e-10
7.09316e-08
-3.03095e-10
7.08622e-08
-3.37829e-10
7.07861e-08
-3.69642e-10
7.07041e-08
-3.98663e-10
-4.24963e-10
7.06166e-08
5.49493e-08
2.11992e-10
5.50003e-08
1.45483e-10
5.50311e-08
8.56594e-11
5.50446e-08
3.13386e-11
5.50432e-08
-1.7938e-11
5.50288e-08
-6.32259e-11
5.5003e-08
-1.04951e-10
5.49671e-08
-1.43478e-10
5.4922e-08
-1.79103e-10
5.48688e-08
-2.1204e-10
5.48081e-08
-2.42454e-10
5.47408e-08
-2.70466e-10
5.46673e-08
-2.96161e-10
5.45882e-08
-3.1961e-10
-3.40845e-10
5.45041e-08
4.20339e-08
1.55176e-10
4.20722e-08
1.07146e-10
4.20945e-08
6.33893e-11
4.21027e-08
2.3119e-11
4.20986e-08
-1.38461e-11
4.20835e-08
-4.81757e-11
4.20587e-08
-8.00993e-11
4.2025e-08
-1.09788e-10
4.19833e-08
-1.37404e-10
4.19343e-08
-1.6306e-10
4.18787e-08
-1.86837e-10
4.1817e-08
-2.08794e-10
4.17498e-08
-2.28969e-10
4.16776e-08
-2.47395e-10
-2.6408e-10
4.16009e-08
3.17434e-08
1.1183e-10
3.17725e-08
7.80352e-11
3.17891e-08
4.68634e-11
3.17944e-08
1.78265e-11
3.17896e-08
-9.11665e-12
3.17758e-08
-3.43795e-11
3.17538e-08
-5.80803e-11
3.17243e-08
-8.0251e-11
3.16879e-08
-1.00986e-10
3.16451e-08
-1.20334e-10
3.15966e-08
-1.38328e-10
3.15428e-08
-1.54988e-10
3.14842e-08
-1.70327e-10
3.14211e-08
-1.84353e-10
-1.9706e-10
3.13541e-08
2.36089e-08
7.87271e-11
2.36312e-08
5.57028e-11
2.36439e-08
3.42201e-11
2.36477e-08
1.3984e-11
2.36435e-08
-4.95192e-12
2.3632e-08
-2.28762e-11
2.36138e-08
-3.98452e-11
2.35893e-08
-5.57845e-11
2.35591e-08
-7.07676e-11
2.35236e-08
-8.48065e-11
2.34832e-08
-9.79085e-11
2.34382e-08
-1.10073e-10
2.33892e-08
-1.21298e-10
2.33364e-08
-1.31578e-10
-1.409e-10
2.32803e-08
1.72289e-08
5.3533e-11
1.72462e-08
3.84797e-11
1.72561e-08
2.42935e-11
1.72593e-08
1.07959e-11
1.72562e-08
-1.90903e-12
1.72474e-08
-1.40404e-11
1.72332e-08
-2.56566e-11
1.7214e-08
-3.65827e-11
1.71901e-08
-4.69056e-11
1.71619e-08
-5.66177e-11
1.71298e-08
-6.57136e-11
1.70939e-08
-7.4183e-11
1.70546e-08
-8.20177e-11
1.70122e-08
-8.92059e-11
-9.57331e-11
1.6967e-08
1.22661e-08
3.45721e-11
1.22794e-08
2.5256e-11
1.22872e-08
1.64167e-11
1.22901e-08
7.92843e-12
1.22883e-08
-9.39045e-14
1.2282e-08
-7.79384e-12
1.22717e-08
-1.5294e-11
1.22574e-08
-2.23299e-11
1.22395e-08
-2.90133e-11
1.22182e-08
-3.53267e-11
1.21938e-08
-4.12612e-11
1.21664e-08
-4.68034e-11
1.21363e-08
-5.1944e-11
1.21038e-08
-5.667e-11
-6.09662e-11
1.2069e-08
8.44015e-09
2.06381e-11
8.45011e-09
1.53035e-11
8.45628e-09
1.02398e-11
8.45887e-09
5.34229e-12
8.4581e-09
6.71619e-13
8.4541e-09
-3.79369e-12
8.44704e-09
-8.22918e-12
8.4371e-09
-1.239e-11
8.42444e-09
-1.63579e-11
8.40924e-09
-2.01201e-11
8.39165e-09
-2.36704e-11
8.37184e-09
-2.69961e-11
8.34999e-09
-3.00896e-11
8.32625e-09
-3.29394e-11
-3.55311e-11
8.30082e-09
5.52013e-09
1.08421e-11
5.5273e-09
8.13258e-12
5.53195e-09
5.59149e-12
5.53417e-09
3.12325e-12
5.53411e-09
7.30679e-13
5.53184e-09
-1.5282e-12
5.52743e-09
-3.81495e-12
5.52101e-09
-5.97328e-12
5.51269e-09
-8.03442e-12
5.50256e-09
-9.99555e-12
5.49075e-09
-1.18543e-11
5.47735e-09
-1.36008e-11
5.46249e-09
-1.52301e-11
5.44629e-09
-1.67338e-11
-1.80987e-11
5.42885e-09
3.31739e-09
4.49811e-12
3.32214e-09
3.38643e-12
3.32534e-09
2.38569e-12
3.32705e-09
1.41066e-12
3.32734e-09
4.46056e-13
3.32626e-09
-4.52631e-13
3.32383e-09
-1.37801e-12
3.32011e-09
-2.26008e-12
3.31518e-09
-3.10263e-12
3.30909e-09
-3.90758e-12
3.30191e-09
-4.67414e-12
3.29371e-09
-5.39625e-12
3.28455e-09
-6.07161e-12
3.27451e-09
-6.69514e-12
-7.25629e-12
3.26367e-09
1.67875e-09
1.04448e-12
1.68137e-09
7.67665e-13
1.6832e-09
5.52441e-13
1.68427e-09
3.4025e-13
1.68459e-09
1.23137e-13
1.68422e-09
-7.55063e-14
1.68312e-09
-2.85804e-13
1.68135e-09
-4.88294e-13
1.67893e-09
-6.8075e-13
1.67589e-09
-8.67294e-13
1.67226e-09
-1.04476e-12
1.66808e-09
-1.2119e-12
1.66337e-09
-1.36847e-12
1.65819e-09
-1.51214e-12
-1.63659e-12
1.65257e-09
4.80605e-10
4.81373e-10
4.81925e-10
4.82265e-10
4.82388e-10
4.82313e-10
4.82027e-10
4.81539e-10
4.80858e-10
4.79991e-10
4.78946e-10
4.77734e-10
4.76366e-10
4.74854e-10
4.73217e-10
1.1394e-09
-4.43173e-10
2.55618e-10
1.40948e-09
-3.50116e-10
8.00436e-11
1.68305e-09
-1.87798e-10
-8.57757e-11
1.95425e-09
-1.59478e-11
-2.55256e-10
2.22147e-09
1.61522e-10
-4.28742e-10
2.48569e-09
3.38184e-10
-6.02402e-10
2.74852e-09
5.12671e-10
-7.75496e-10
3.01121e-09
6.83848e-10
-9.4654e-10
3.27474e-09
8.50036e-10
-1.11357e-09
3.53987e-09
1.00905e-09
-1.27418e-09
3.80719e-09
1.15826e-09
-1.42558e-09
4.07727e-09
1.29449e-09
-1.56457e-09
4.35075e-09
1.41383e-09
-1.68731e-09
4.6284e-09
1.51147e-09
-1.78912e-09
4.91118e-09
1.58162e-09
-1.8644e-09
5.20038e-09
1.61779e-09
-1.90699e-09
5.49781e-09
1.61319e-09
-1.91062e-09
5.80618e-09
1.56264e-09
-1.87101e-09
6.12942e-09
1.46091e-09
-1.78415e-09
6.4726e-09
1.30137e-09
-1.64455e-09
6.84052e-09
1.05879e-09
-1.42671e-09
7.2336e-09
6.58079e-10
-1.05116e-09
7.58476e-09
-1.54966e-11
-3.35666e-10
7.86696e-09
-7.32059e-10
4.49858e-10
8.08057e-09
-1.40421e-09
1.1906e-09
8.22934e-09
-1.99908e-09
1.85031e-09
8.31897e-09
-2.49711e-09
2.40747e-09
8.35519e-09
-2.88972e-09
2.8535e-09
8.34269e-09
-3.17614e-09
3.18864e-09
8.2853e-09
-3.35815e-09
3.41554e-09
8.18626e-09
-3.43727e-09
3.53631e-09
8.04845e-09
-3.41191e-09
3.54973e-09
7.87468e-09
-3.28033e-09
3.4541e-09
7.66779e-09
-3.04168e-09
3.24857e-09
7.43056e-09
-2.69694e-09
2.93416e-09
7.16554e-09
-2.24891e-09
2.51394e-09
6.87484e-09
-1.70132e-09
1.99202e-09
6.56023e-09
-1.05671e-09
1.37132e-09
6.22328e-09
-3.13716e-10
6.50662e-10
5.86421e-09
5.34551e-10
-1.75476e-10
5.47828e-09
1.49216e-09
-1.10623e-09
5.04738e-09
2.53268e-09
-2.10178e-09
4.5389e-09
3.52488e-09
-3.0164e-09
3.95518e-09
4.14393e-09
-3.56021e-09
3.59857e-09
3.5951e-09
-3.23849e-09
2.38511e-09
-5.17137e-10
2.54764e-09
-5.12641e-10
2.76938e-09
-4.09539e-10
3.01851e-09
-2.6508e-10
3.28171e-09
-1.01677e-10
3.55232e-09
6.75753e-11
3.82786e-09
2.37134e-10
4.10742e-09
4.04283e-10
4.39079e-09
5.66665e-10
4.67804e-09
7.21808e-10
4.96936e-09
8.66942e-10
5.26507e-09
9.98782e-10
5.56564e-09
1.11326e-09
5.8717e-09
1.2054e-09
6.18409e-09
1.26922e-09
6.50398e-09
1.29791e-09
6.83301e-09
1.28416e-09
7.17368e-09
1.22197e-09
7.52966e-09
1.10493e-09
7.90577e-09
9.25262e-10
8.30649e-09
6.58074e-10
8.73183e-09
2.32733e-10
9.11013e-09
-3.93793e-10
9.41345e-09
-1.03538e-09
9.64284e-09
-1.6336e-09
9.80248e-09
-2.15872e-09
9.89856e-09
-2.59318e-09
9.93724e-09
-2.92839e-09
9.92364e-09
-3.16254e-09
9.86211e-09
-3.29662e-09
9.75646e-09
-3.33162e-09
9.61022e-09
-3.26568e-09
9.42704e-09
-3.09714e-09
9.21079e-09
-2.82543e-09
8.96563e-09
-2.45178e-09
8.69594e-09
-1.97922e-09
8.40646e-09
-1.41184e-09
8.10288e-09
-7.53125e-10
7.79327e-09
-4.11185e-12
7.48948e-09
8.38349e-10
7.20861e-09
1.77302e-09
6.9717e-09
2.76959e-09
6.80531e-09
3.69127e-09
6.73677e-09
4.21248e-09
3.70372e-09
6.63161e-09
4.17473e-09
-5.30837e-10
4.24798e-09
-5.85888e-10
4.39268e-09
-5.54246e-10
4.59083e-09
-4.6322e-10
4.82368e-09
-3.34532e-10
5.07935e-09
-1.88098e-10
5.35089e-09
-3.44062e-11
5.63428e-09
1.20892e-10
5.92726e-09
2.73693e-10
6.22857e-09
4.20493e-10
6.53756e-09
5.57952e-10
6.85395e-09
6.82391e-10
7.17779e-09
7.8942e-10
7.5094e-09
8.7379e-10
7.84935e-09
9.29278e-10
8.19851e-09
9.4875e-10
8.55822e-09
9.24455e-10
8.93059e-09
8.49591e-10
9.31884e-09
7.16679e-10
9.72725e-09
5.16856e-10
1.01597e-08
2.25648e-10
1.06155e-08
-2.23057e-10
1.10186e-08
-7.96974e-10
1.13408e-08
-1.35753e-09
1.15838e-08
-1.87656e-09
1.17522e-08
-2.3272e-09
1.18529e-08
-2.69387e-09
1.18925e-08
-2.96792e-09
1.18765e-08
-3.14655e-09
1.18099e-08
-3.23005e-09
1.16972e-08
-3.21891e-09
1.15427e-08
-3.11121e-09
1.13511e-08
-2.90555e-09
1.11276e-08
-2.6019e-09
1.08779e-08
-2.20213e-09
1.06088e-08
-1.71011e-09
1.03281e-08
-1.13116e-09
1.00461e-08
-4.71126e-10
9.77755e-09
2.64486e-10
9.5455e-09
1.07039e-09
9.3845e-09
1.93403e-09
9.33908e-09
2.81501e-09
9.44312e-09
3.58723e-09
9.65016e-09
4.00543e-09
3.63103e-09
9.72285e-09
6.63657e-09
-5.10445e-10
6.64915e-09
-5.98472e-10
6.71667e-09
-6.21762e-10
6.84554e-09
-5.92093e-10
7.02454e-09
-5.13528e-10
7.24152e-09
-4.05087e-10
7.48763e-09
-2.8051e-10
7.75633e-09
-1.4781e-10
8.04322e-09
-1.31915e-11
8.3454e-09
1.1831e-10
8.66098e-09
2.4237e-10
8.98877e-09
3.54598e-10
9.32815e-09
4.50049e-10
9.67888e-09
5.23059e-10
1.00411e-08
5.67097e-10
1.04151e-08
5.74703e-10
1.08019e-08
5.37706e-10
1.12028e-08
4.48609e-10
1.16205e-08
2.98995e-10
1.20583e-08
7.90309e-11
1.25192e-08
-2.35166e-10
1.30012e-08
-7.05135e-10
1.34249e-08
-1.22063e-09
1.37616e-08
-1.69425e-09
1.40142e-08
-2.12918e-09
1.4188e-08
-2.50096e-09
1.42902e-08
-2.79605e-09
1.43279e-08
-3.00563e-09
1.43074e-08
-3.12603e-09
1.42342e-08
-3.15694e-09
1.41137e-08
-3.09838e-09
1.39511e-08
-2.94856e-09
1.37522e-08
-2.70664e-09
1.35237e-08
-2.37346e-09
1.32735e-08
-1.95193e-09
1.30107e-08
-1.44732e-09
1.27466e-08
-8.67006e-10
1.24957e-08
-2.20222e-10
1.22783e-08
4.8187e-10
1.21242e-08
1.22452e-09
1.20743e-08
1.9839e-09
1.21745e-08
2.71483e-09
1.24438e-08
3.31788e-09
1.2821e-08
3.62821e-09
3.41498e-09
1.30371e-08
9.94134e-09
-4.75448e-10
9.91708e-09
-5.74213e-10
9.92649e-09
-6.31178e-10
9.98379e-09
-6.49392e-10
1.00953e-08
-6.25022e-10
1.02539e-08
-5.63739e-10
1.04528e-08
-4.79357e-10
1.06852e-08
-3.80253e-10
1.09459e-08
-2.73873e-10
1.12307e-08
-1.66522e-10
1.15367e-08
-6.35408e-11
1.18615e-08
2.97992e-11
1.22037e-08
1.07816e-10
1.25624e-08
1.64319e-10
1.29371e-08
1.92402e-10
1.33275e-08
1.84271e-10
1.37339e-08
1.31396e-10
1.41568e-08
2.57114e-11
1.45977e-08
-1.41935e-10
1.50589e-08
-3.82168e-10
1.55417e-08
-7.17997e-10
1.60429e-08
-1.20631e-09
1.64799e-08
-1.65761e-09
1.68246e-08
-2.03893e-09
1.70808e-08
-2.38542e-09
1.72544e-08
-2.67455e-09
1.73532e-08
-2.89492e-09
1.73851e-08
-3.03747e-09
1.73568e-08
-3.09778e-09
1.72749e-08
-3.075e-09
1.71452e-08
-2.96867e-09
1.69741e-08
-2.77747e-09
1.67689e-08
-2.50143e-09
1.65379e-08
-2.14252e-09
1.62911e-08
-1.70513e-09
1.60402e-08
-1.19635e-09
1.57992e-08
-6.26077e-10
1.55864e-08
-7.33238e-12
1.54246e-08
6.43652e-10
1.53444e-08
1.30468e-09
1.53827e-08
1.94559e-09
1.55741e-08
2.52343e-09
1.59227e-08
2.96928e-09
1.63604e-08
3.19049e-09
3.08776e-09
1.66877e-08
1.42898e-08
-4.38915e-10
1.4248e-08
-5.32423e-10
1.42232e-08
-6.06335e-10
1.42267e-08
-6.52922e-10
1.42725e-08
-6.70877e-10
1.43649e-08
-6.56118e-10
1.45015e-08
-6.15981e-10
1.46789e-08
-5.57623e-10
1.4893e-08
-4.87947e-10
1.51399e-08
-4.13444e-10
1.54162e-08
-3.39875e-10
1.57192e-08
-2.73195e-10
1.60468e-08
-2.19774e-10
1.63975e-08
-1.86305e-10
1.67699e-08
-1.80044e-10
1.71632e-08
-2.09058e-10
1.75768e-08
-2.82144e-10
1.80102e-08
-4.07742e-10
1.84637e-08
-5.95456e-10
1.8938e-08
-8.56443e-10
1.94324e-08
-1.2124e-09
1.99415e-08
-1.7154e-09
2.03812e-08
-2.09731e-09
2.07243e-08
-2.38198e-09
2.09754e-08
-2.63659e-09
2.11411e-08
-2.84019e-09
2.12298e-08
-2.98363e-09
2.125e-08
-3.05765e-09
2.12094e-08
-3.05722e-09
2.11153e-08
-2.9809e-09
2.09743e-08
-2.82767e-09
2.07939e-08
-2.59711e-09
2.0583e-08
-2.29046e-09
2.03516e-08
-1.91111e-09
2.01116e-08
-1.46514e-09
1.98769e-08
-9.61647e-10
1.96639e-08
-4.13062e-10
1.94918e-08
1.64699e-10
1.93839e-08
7.51565e-10
1.93661e-08
1.32248e-09
1.94648e-08
1.84694e-09
1.96985e-08
2.28965e-09
2.00593e-08
2.60848e-09
2.04895e-08
2.76031e-09
2.71166e-09
2.08656e-08
1.99159e-08
-4.08128e-10
1.98738e-08
-4.90311e-10
1.98336e-08
-5.66116e-10
1.9808e-08
-6.27413e-10
1.98071e-08
-6.69899e-10
1.98417e-08
-6.90725e-10
1.99156e-08
-6.89925e-10
2.00299e-08
-6.71921e-10
2.0184e-08
-6.4206e-10
2.03762e-08
-6.05638e-10
2.06041e-08
-5.67794e-10
2.08656e-08
-5.34616e-10
2.11586e-08
-5.12788e-10
2.14815e-08
-5.09204e-10
2.18327e-08
-5.31263e-10
2.22108e-08
-5.87115e-10
2.26142e-08
-6.85619e-10
2.30418e-08
-8.353e-10
2.34922e-08
-1.04582e-09
2.39642e-08
-1.32851e-09
2.44549e-08
-1.70308e-09
2.49561e-08
-2.21662e-09
2.5384e-08
-2.52518e-09
2.57125e-08
-2.71048e-09
2.5947e-08
-2.87113e-09
2.60943e-08
-2.98747e-09
2.61637e-08
-3.05299e-09
2.61646e-08
-3.05854e-09
2.61057e-08
-2.99834e-09
2.59949e-08
-2.87007e-09
2.58393e-08
-2.67216e-09
2.5648e-08
-2.40574e-09
2.54311e-08
-2.07355e-09
2.52004e-08
-1.68045e-09
2.49695e-08
-1.2342e-09
2.47536e-08
-7.45762e-10
2.457e-08
-2.29467e-10
2.44374e-08
2.97252e-10
2.43759e-08
8.13116e-10
2.44041e-08
1.29421e-09
2.45365e-08
1.71458e-09
2.47772e-08
2.04894e-09
2.51111e-08
2.27463e-09
2.54951e-08
2.37626e-09
2.34964e-09
2.58571e-08
2.70927e-08
-3.85406e-10
2.70587e-08
-4.56292e-10
2.70198e-08
-5.27173e-10
2.69846e-08
-5.92232e-10
2.69617e-08
-6.47019e-10
2.696e-08
-6.8898e-10
2.69867e-08
-7.16618e-10
2.7046e-08
-7.31275e-10
2.71413e-08
-7.37374e-10
2.72737e-08
-7.38041e-10
2.74431e-08
-7.37169e-10
2.7649e-08
-7.40555e-10
2.78909e-08
-7.54635e-10
2.81677e-08
-7.85982e-10
2.84781e-08
-8.41744e-10
2.88208e-08
-9.29794e-10
2.91939e-08
-1.05872e-09
2.95953e-08
-1.23671e-09
3.00225e-08
-1.47296e-09
3.04725e-08
-1.77848e-09
3.09395e-08
-2.17011e-09
3.14125e-08
-2.68962e-09
3.18102e-08
-2.92289e-09
3.21081e-08
-3.00841e-09
3.23117e-08
-3.07474e-09
3.24278e-08
-3.10352e-09
3.24665e-08
-3.09175e-09
3.24391e-08
-3.03106e-09
3.23548e-08
-2.91407e-09
3.22215e-08
-2.73679e-09
3.20472e-08
-2.49782e-09
3.18421e-08
-2.20068e-09
3.16181e-08
-1.84949e-09
3.13881e-08
-1.45049e-09
3.11667e-08
-1.01282e-09
3.09696e-08
-5.48674e-10
3.08135e-08
-7.33175e-11
3.07144e-08
3.96317e-10
3.06875e-08
8.40031e-10
3.07437e-08
1.23803e-09
3.08872e-08
1.5711e-09
3.11126e-08
1.82354e-09
3.1402e-08
1.98521e-09
3.17241e-08
2.05413e-09
2.03693e-09
3.20368e-08
3.61344e-08
-3.70166e-10
3.61104e-08
-4.32316e-10
3.60805e-08
-4.97204e-10
3.60494e-08
-5.61183e-10
3.60232e-08
-6.20814e-10
3.60083e-08
-6.74036e-10
3.60109e-08
-7.19286e-10
3.60362e-08
-7.56515e-10
3.60894e-08
-7.90621e-10
3.6173e-08
-8.21665e-10
3.6289e-08
-8.53138e-10
3.64392e-08
-8.90696e-10
3.66246e-08
-9.40083e-10
3.68458e-08
-1.00715e-09
3.71025e-08
-1.09846e-09
3.73939e-08
-1.22123e-09
3.77186e-08
-1.38338e-09
3.80741e-08
-1.59227e-09
3.84571e-08
-1.85597e-09
3.88633e-08
-2.18465e-09
3.92843e-08
-2.59105e-09
3.9706e-08
-3.11136e-09
4.0053e-08
-3.26988e-09
4.03025e-08
-3.25788e-09
4.04592e-08
-3.23144e-09
4.05295e-08
-3.17389e-09
4.05255e-08
-3.08775e-09
4.04609e-08
-2.96644e-09
4.03442e-08
-2.79741e-09
4.01817e-08
-2.57422e-09
3.99835e-08
-2.29964e-09
3.97614e-08
-1.97859e-09
3.95282e-08
-1.61626e-09
3.92976e-08
-1.21995e-09
3.90844e-08
-7.99635e-10
3.89036e-08
-3.67834e-10
3.87692e-08
6.10718e-11
3.86943e-08
4.71253e-10
3.86879e-08
8.46375e-10
3.87544e-08
1.17158e-09
3.88911e-08
1.43444e-09
3.90878e-08
1.62677e-09
3.93272e-08
1.74584e-09
3.95862e-08
1.79518e-09
1.78389e-09
3.98392e-08
4.73913e-08
-3.61683e-10
4.7377e-08
-4.17957e-10
4.7358e-08
-4.78199e-10
4.73371e-08
-5.40315e-10
4.73182e-08
-6.01866e-10
4.73057e-08
-6.6156e-10
4.7304e-08
-7.1756e-10
4.73179e-08
-7.70512e-10
4.73522e-08
-8.24855e-10
4.74088e-08
-8.78303e-10
4.74904e-08
-9.34751e-10
4.76003e-08
-1.00056e-09
4.77404e-08
-1.08015e-09
4.7912e-08
-1.17882e-09
4.81162e-08
-1.30261e-09
4.83528e-08
-1.45789e-09
4.86212e-08
-1.65173e-09
4.89192e-08
-1.89029e-09
4.92432e-08
-2.17997e-09
4.95881e-08
-2.52955e-09
4.99434e-08
-2.94631e-09
5.02929e-08
-3.46091e-09
5.05702e-08
-3.54716e-09
5.07543e-08
-3.44201e-09
5.08484e-08
-3.32554e-09
5.08591e-08
-3.18459e-09
5.08039e-08
-3.0325e-09
5.06967e-08
-2.85925e-09
5.05402e-08
-2.64089e-09
5.03421e-08
-2.37616e-09
5.01157e-08
-2.0732e-09
4.98737e-08
-1.73657e-09
4.96293e-08
-1.37191e-09
4.93964e-08
-9.87001e-10
4.91886e-08
-5.91909e-10
4.90193e-08
-1.98483e-10
4.88992e-08
1.8115e-10
4.88371e-08
5.33309e-10
4.88372e-08
8.4628e-10
4.88987e-08
1.11013e-09
4.90152e-08
1.31792e-09
4.91754e-08
1.46657e-09
4.9364e-08
1.55722e-09
4.9564e-08
1.59517e-09
1.58888e-09
4.97591e-08
6.12451e-08
-3.60823e-10
6.12408e-08
-4.13661e-10
6.12338e-08
-4.71141e-10
6.12257e-08
-5.32203e-10
6.12193e-08
-5.95486e-10
6.1218e-08
-6.60249e-10
6.12248e-08
-7.24433e-10
6.12432e-08
-7.88855e-10
6.12748e-08
-8.56451e-10
6.13247e-08
-9.28185e-10
6.13958e-08
-1.00584e-09
6.14891e-08
-1.0939e-09
6.16062e-08
-1.19728e-09
6.17485e-08
-1.32112e-09
6.1917e-08
-1.47102e-09
6.21117e-08
-1.6526e-09
6.2332e-08
-1.87209e-09
6.25761e-08
-2.1344e-09
6.28402e-08
-2.44399e-09
6.31186e-08
-2.80802e-09
6.33992e-08
-3.2269e-09
6.36654e-08
-3.72707e-09
6.38614e-08
-3.74318e-09
6.39683e-08
-3.54896e-09
6.39867e-08
-3.34387e-09
6.39335e-08
-3.13138e-09
6.38307e-08
-2.92968e-09
6.36753e-08
-2.70386e-09
6.34719e-08
-2.43756e-09
6.32359e-08
-2.14016e-09
6.29804e-08
-1.81769e-09
6.27184e-08
-1.47455e-09
6.24629e-08
-1.11642e-09
6.22268e-08
-7.50921e-10
6.20221e-08
-3.87174e-10
6.18595e-08
-3.59045e-11
6.17459e-08
2.94719e-10
6.16864e-08
5.92852e-10
6.16811e-08
8.51595e-10
6.17262e-08
1.06506e-09
6.18139e-08
1.23018e-09
6.19335e-08
1.34693e-09
6.20726e-08
1.41815e-09
6.22186e-08
1.44921e-09
1.44716e-09
6.23603e-08
7.81182e-08
-3.70199e-10
7.81262e-08
-4.21643e-10
7.81332e-08
-4.78184e-10
7.81404e-08
-5.39415e-10
7.81498e-08
-6.04817e-10
7.81631e-08
-6.73563e-10
7.81844e-08
-7.45799e-10
7.82161e-08
-8.20479e-10
7.82596e-08
-8.99977e-10
7.83183e-08
-9.86853e-10
7.83946e-08
-1.08218e-09
7.84898e-08
-1.18913e-09
7.86048e-08
-1.31222e-09
7.87399e-08
-1.45629e-09
7.88954e-08
-1.62648e-09
7.90704e-08
-1.82762e-09
7.92634e-08
-2.06514e-09
7.94717e-08
-2.34269e-09
7.96907e-08
-2.66296e-09
7.99139e-08
-3.03124e-09
8.01272e-08
-3.44021e-09
8.03149e-08
-3.91477e-09
8.04312e-08
-3.85945e-09
8.0453e-08
-3.57079e-09
8.04037e-08
-3.29456e-09
8.03058e-08
-3.03346e-09
8.01532e-08
-2.77703e-09
7.99456e-08
-2.49631e-09
7.96996e-08
-2.19154e-09
7.94306e-08
-1.87117e-09
7.91516e-08
-1.53863e-09
7.88749e-08
-1.19787e-09
7.86127e-08
-8.54219e-10
7.83762e-08
-5.14451e-10
7.81752e-08
-1.86127e-10
7.80157e-08
1.23523e-10
7.7904e-08
4.06463e-10
7.78402e-08
6.56623e-10
7.78223e-08
8.69512e-10
7.7845e-08
1.04241e-09
7.79004e-08
1.17471e-09
7.79794e-08
1.26795e-09
7.80721e-08
1.32548e-09
7.81692e-08
1.35211e-09
1.35343e-09
7.82629e-08
9.85092e-08
-3.92681e-10
9.85321e-08
-4.44479e-10
9.85556e-08
-5.0171e-10
9.85806e-08
-5.64422e-10
9.86084e-08
-6.32559e-10
9.86407e-08
-7.05957e-10
9.86799e-08
-7.84945e-10
9.87291e-08
-8.69702e-10
9.87902e-08
-9.61038e-10
9.88643e-08
-1.06098e-09
9.89538e-08
-1.17171e-09
9.90603e-08
-1.29561e-09
9.91843e-08
-1.43621e-09
9.93257e-08
-1.59763e-09
9.94835e-08
-1.78436e-09
9.96562e-08
-2.00028e-09
9.98408e-08
-2.24977e-09
1.00033e-07
-2.53503e-09
1.00227e-07
-2.85714e-09
1.00415e-07
-3.21871e-09
1.00581e-07
-3.60604e-09
1.00708e-07
-4.04164e-09
1.00753e-07
-3.9052e-09
1.00716e-07
-3.53304e-09
1.00624e-07
-3.20351e-09
1.00485e-07
-2.89376e-09
1.00287e-07
-2.57908e-09
1.00041e-07
-2.25051e-09
9.97677e-08
-1.91821e-09
9.94805e-08
-1.58397e-09
9.91916e-08
-1.24977e-09
9.89125e-08