/*--------------------------------*- C++ -*----------------------------------*\
| =========                 |                                                 |
| \\      /  F ield         | OpenFOAM: The Open Source CFD Toolbox           |
|  \\    /   O peration     | Version:  2312                                  |
|   \\  /    A nd           | Website:  www.openfoam.com                      |
|    \\/     M anipulation  |                                                 |
\*---------------------------------------------------------------------------*/
FoamFile
{
    version     2.0;
    format      ascii;
    arch        "LSB;label=32;scalar=64";
    class       surfaceScalarField;
    location    "10";
    object      phi;
}
// * * * * * * * * * * * * * * * * * * * * * * * * * * * * * * * * * * * * * //

dimensions      [0 3 -1 0 0 0 0];

oriented        oriented;

internalField   nonuniform List<scalar> 
9445
(
5.75816e-10
1.24164e-11
5.68287e-10
7.52829e-12
5.6388e-10
4.40706e-12
5.6161e-10
2.26974e-12
5.60935e-10
6.74941e-13
5.61576e-10
-6.40481e-13
5.63327e-10
-1.75124e-12
5.66127e-10
-2.79944e-12
5.70206e-10
-4.07913e-12
5.75941e-10
-5.73532e-12
5.84416e-10
-8.47438e-12
5.99183e-10
-1.4768e-11
6.32732e-10
-3.35483e-11
7.28948e-10
-9.62164e-11
-2.50035e-10
9.78983e-10
2.01016e-09
5.49625e-11
1.98395e-09
3.37393e-11
1.96822e-09
2.01401e-11
1.95966e-09
1.08232e-11
1.95646e-09
3.88274e-12
1.95753e-09
-1.71413e-12
1.96216e-09
-6.38446e-12
1.97024e-09
-1.08793e-11
1.98232e-09
-1.61604e-11
1.9995e-09
-2.29129e-11
2.02458e-09
-3.35541e-11
2.06444e-09
-5.46237e-11
2.13245e-09
-1.01558e-10
2.24151e-09
-2.05284e-10
-3.65414e-10
2.35689e-09
3.96697e-09
1.37046e-10
3.91577e-09
8.49424e-11
3.88443e-09
5.14796e-11
3.8667e-09
2.85547e-11
3.85904e-09
1.15417e-11
3.85929e-09
-1.96491e-12
3.86603e-09
-1.31265e-11
3.87896e-09
-2.38131e-11
3.89875e-09
-3.59469e-11
3.92663e-09
-5.07893e-11
3.96543e-09
-7.23567e-11
4.01983e-09
-1.09028e-10
4.09272e-09
-1.74442e-10
4.17064e-09
-2.83205e-10
-4.11829e-10
4.21705e-09
6.58916e-09
2.69279e-10
6.50555e-09
1.68553e-10
6.45333e-09
1.037e-10
6.42263e-09
5.92492e-11
6.40773e-09
2.64486e-11
6.40505e-09
7.07971e-13
6.4123e-09
-2.03721e-11
6.42851e-09
-4.00202e-11
6.4541e-09
-6.15384e-11
6.48955e-09
-8.62451e-11
6.536e-09
-1.18805e-10
6.59321e-09
-1.66238e-10
6.65486e-09
-2.36093e-10
6.70121e-09
-3.29551e-10
-4.20607e-10
6.70998e-09
1.00495e-08
4.62361e-10
9.9255e-09
2.9253e-10
9.8464e-09
1.82801e-10
9.79816e-09
1.07491e-10
9.77228e-09
5.23222e-11
9.76365e-09
9.33751e-12
9.76878e-09
-2.54991e-11
9.78551e-09
-5.67524e-11
9.81335e-09
-8.93722e-11
9.85142e-09
-1.24319e-10
9.89829e-09
-1.6567e-10
9.94947e-09
-2.17422e-10
9.99464e-09
-2.81263e-10
1.00171e-08
-3.52023e-10
-4.10551e-10
1.00071e-08
1.45518e-08
7.24523e-10
1.43804e-08
4.63912e-10
1.42686e-08
2.94638e-10
1.41979e-08
1.78162e-10
1.41569e-08
9.33388e-11
1.41384e-08
2.78402e-11
1.41376e-08
-2.4721e-11
1.41512e-08
-7.02874e-11
1.41764e-08
-1.14666e-10
1.42112e-08
-1.59079e-10
1.42516e-08
-2.0611e-10
1.42911e-08
-2.56915e-10
1.43197e-08
-3.09816e-10
1.43266e-08
-3.5889e-10
-3.93303e-10
1.43093e-08
2.03289e-08
1.0568e-09
2.01069e-08
6.8589e-10
1.99585e-08
4.43032e-10
1.98615e-08
2.75191e-10
1.98015e-08
1.53343e-10
1.97691e-08
6.01633e-11
1.97582e-08
-1.37731e-11
1.97638e-08
-7.58634e-11
1.97813e-08
-1.32254e-10
1.9807e-08
-1.84726e-10
1.98355e-08
-2.34613e-10
1.98601e-08
-2.81563e-10
1.98735e-08
-3.23219e-10
1.98703e-08
-3.55603e-10
-3.74054e-10
1.9851e-08
2.76348e-08
1.44584e-09
2.73676e-08
9.53024e-10
2.71842e-08
6.26462e-10
2.70602e-08
3.99194e-10
2.69794e-08
2.3417e-10
2.69305e-08
1.09022e-10
2.69059e-08
1.08996e-11
2.68991e-08
-6.90835e-11
2.69043e-08
-1.37435e-10
2.69161e-08
-1.96604e-10
2.69291e-08
-2.4762e-10
2.69377e-08
-2.90159e-10
2.69374e-08
-3.22913e-10
2.69262e-08
-3.4439e-10
-3.53612e-10
2.69058e-08
3.67335e-08
1.85629e-09
3.64412e-08
1.24532e-09
3.62341e-08
8.33568e-10
3.60893e-08
5.44008e-10
3.59905e-08
3.32969e-10
3.59257e-08
1.73754e-10
3.58863e-08
5.03364e-11
3.58649e-08
-4.76731e-11
3.58549e-08
-1.27474e-10
3.58507e-08
-1.92341e-10
3.5847e-08
-2.44008e-10
3.58401e-08
-2.83231e-10
3.58276e-08
-3.10354e-10
3.58091e-08
-3.25931e-10
-3.30946e-10
3.57864e-08
4.78916e-08
2.22921e-09
4.7612e-08
1.52485e-09
4.7406e-08
1.03958e-09
4.72566e-08
6.93414e-10
4.71503e-08
4.39312e-10
4.70762e-08
2.47881e-10
4.70257e-08
1.00831e-10
4.69914e-08
-1.34457e-11
4.69674e-08
-1.03396e-10
4.69481e-08
-1.73086e-10
4.69297e-08
-2.25657e-10
4.69098e-08
-2.63296e-10
4.68873e-08
-2.8786e-10
4.68627e-08
-3.01279e-10
-3.05496e-10
4.68372e-08
6.13975e-08
2.4981e-09
6.11796e-08
1.7427e-09
6.10102e-08
1.209e-09
6.08819e-08
8.21735e-10
6.07865e-08
5.34718e-10
6.07162e-08
3.18155e-10
6.06642e-08
1.52837e-10
6.06245e-08
2.6234e-11
6.05922e-08
-7.10706e-11
6.05634e-08
-1.44317e-10
6.05356e-08
-1.97906e-10
6.05077e-08
-2.35327e-10
6.04793e-08
-2.595e-10
6.04512e-08
-2.73122e-10
-2.7855e-10
6.04242e-08
7.76291e-08
2.62524e-09
7.75096e-08
1.8622e-09
7.74081e-08
1.31041e-09
7.73265e-08
9.03392e-10
7.72624e-08
5.98822e-10
7.72121e-08
3.68463e-10
7.71716e-08
1.93327e-10
7.71374e-08
6.03678e-11
7.71065e-08
-4.01307e-11
7.70771e-08
-1.14861e-10
7.7048e-08
-1.68818e-10
7.70191e-08
-2.06415e-10
7.69907e-08
-2.31139e-10
7.69636e-08
-2.46001e-10
-2.53456e-10
7.69385e-08
9.71452e-08
2.63097e-09
9.71213e-08
1.88609e-09
9.7093e-08
1.3387e-09
9.70661e-08
9.30283e-10
9.70422e-08
6.22775e-10
9.70206e-08
3.90042e-10
9.70002e-08
2.1374e-10
9.69799e-08
8.0713e-11
9.69586e-08
-1.88386e-11
9.69363e-08
-9.26387e-11
9.69133e-08
-1.458e-10
9.68901e-08
-1.83189e-10
9.68674e-08
-2.08466e-10
9.68461e-08
-2.24659e-10
-2.34141e-10
9.68268e-08
1.20684e-07
2.57307e-09
1.20716e-07
1.85377e-09
1.20735e-07
1.32043e-09
1.20745e-07
9.20212e-10
1.20749e-07
6.18332e-10
1.20749e-07
3.90256e-10
1.20744e-07
2.18167e-10
1.20736e-07
8.89075e-11
1.20725e-07
-7.33388e-12
1.20711e-07
-7.88658e-11
1.20696e-07
-1.30607e-10
1.2068e-07
-1.67547e-10
1.20665e-07
-1.93293e-10
1.20651e-07
-2.10733e-10
-2.22081e-10
1.20639e-07
1.48975e-07
2.49185e-09
1.49027e-07
1.8022e-09
1.4906e-07
1.28748e-09
1.4908e-07
8.99768e-10
1.49091e-07
6.07085e-10
1.49095e-07
3.86236e-10
1.49094e-07
2.19905e-10
1.49088e-07
9.50659e-11
1.49078e-07
2.3029e-12
1.49067e-07
-6.74724e-11
1.49054e-07
-1.18315e-10
1.49042e-07
-1.55385e-10
1.49031e-07
-1.82106e-10
1.49021e-07
-2.01168e-10
-2.14605e-10
1.49014e-07
1.82492e-07
2.38968e-09
1.82554e-07
1.73943e-09
1.82591e-07
1.25068e-09
1.8261e-07
8.80546e-10
1.82617e-07
6.00185e-10
1.82615e-07
3.88083e-10
1.82607e-07
2.27907e-10
1.82595e-07
1.07185e-10
1.82581e-07
1.65237e-11
1.82566e-07
-5.21428e-11
1.82551e-07
-1.03304e-10
1.82537e-07
-1.41531e-10
1.82525e-07
-1.70088e-10
1.82515e-07
-1.91477e-10
-2.07553e-10
1.82508e-07
2.21311e-07
2.2544e-09
2.21393e-07
1.65698e-09
2.2144e-07
1.20425e-09
2.21461e-07
8.58699e-10
2.21467e-07
5.95102e-10
2.2146e-07
3.94196e-10
2.21447e-07
2.41196e-10
2.2143e-07
1.24695e-10
2.2141e-07
3.60335e-11
2.2139e-07
-3.214e-11
2.21371e-07
-8.44379e-11
2.21354e-07
-1.24529e-10
2.2134e-07
-1.55537e-10
2.21328e-07
-1.79788e-10
-1.98979e-10
2.21319e-07
2.64988e-07
2.08081e-09
2.65096e-07
1.54906e-09
2.65159e-07
1.14203e-09
2.65189e-07
8.28071e-10
2.65198e-07
5.86068e-10
2.65193e-07
3.99446e-10
2.65179e-07
2.55387e-10
2.65159e-07
1.43945e-10
2.65138e-07
5.76472e-11
2.65115e-07
-9.25803e-12
2.65094e-07
-6.35809e-11
2.65075e-07
-1.05767e-10
2.65059e-07
-1.39496e-10
2.65046e-07
-1.66891e-10
-1.89419e-10
2.65037e-07
3.12187e-07
1.86966e-09
3.12322e-07
1.41393e-09
3.12404e-07
1.06044e-09
3.12448e-07
7.84159e-10
3.12466e-07
5.6827e-10
3.12466e-07
3.99279e-10
3.12455e-07
2.66611e-10
3.12437e-07
1.6193e-10
3.12415e-07
7.8839e-11
3.12393e-07
1.2738e-11
3.12372e-07
-4.21267e-11
3.12353e-07
-8.67149e-11
3.12337e-07
-1.23417e-10
3.12324e-07
-1.54144e-10
-1.80148e-10
3.12315e-07
3.60022e-07
1.61693e-09
3.6019e-07
1.24526e-09
3.60299e-07
9.51627e-10
3.60365e-07
7.18208e-10
3.60401e-07
5.32634e-10
3.60415e-07
3.84675e-10
3.60416e-07
2.66144e-10
3.60407e-07
1.70596e-10
3.60393e-07
9.29755e-11
3.60376e-07
2.93813e-11
3.60358e-07
-2.39492e-11
3.6034e-07
-6.91231e-11
3.60324e-07
-1.07357e-10
3.60311e-07
-1.40248e-10
-1.6895e-10
3.60299e-07
3.57777e-07
1.36707e-09
3.5795e-07
1.07242e-09
3.58067e-07
8.34546e-10
3.58144e-07
6.41907e-10
3.5819e-07
4.85834e-10
3.58216e-07
3.58857e-10
3.58227e-07
2.54871e-10
3.58229e-07
1.6903e-10
3.58224e-07
9.76321e-11
3.58216e-07
3.80365e-11
3.58204e-07
-1.25453e-11
3.58193e-07
-5.81574e-11
3.58183e-07
-9.68877e-11
3.58174e-07
-1.30986e-10
-1.61403e-10
3.58166e-07
3.06578e-07
1.14291e-09
3.06737e-07
9.14014e-10
3.06847e-07
7.24628e-10
3.0692e-07
5.68372e-10
3.06967e-07
4.39305e-10
3.06993e-07
3.32154e-10
3.07006e-07
2.42548e-10
3.07008e-07
1.66958e-10
3.07003e-07
1.02558e-10
3.06994e-07
4.69327e-11
3.06984e-07
-2.30742e-12
3.0697e-07
-4.49545e-11
3.06957e-07
-8.35238e-11
3.06944e-07
-1.18088e-10
-1.49377e-10
3.06932e-07
2.56964e-07
9.51269e-10
2.57106e-07
7.72114e-10
2.57209e-07
6.20864e-10
2.57284e-07
4.93938e-10
2.57336e-07
3.87191e-10
2.57371e-07
2.96896e-10
2.57394e-07
2.19891e-10
2.57407e-07
1.53577e-10
2.57414e-07
9.58256e-11
2.57416e-07
4.49442e-11
2.57414e-07
8.8754e-14
2.57409e-07
-4.06366e-11
2.57403e-07
-7.72714e-11
2.57396e-07
-1.10755e-10
-1.41509e-10
2.57388e-07
2.11916e-07
7.87434e-10
2.12041e-07
6.47109e-10
2.12135e-07
5.26693e-10
2.12205e-07
4.2391e-10
2.12257e-07
3.35938e-10
2.12293e-07
2.60165e-10
2.12319e-07
1.94352e-10
2.12336e-07
1.36642e-10
2.12346e-07
8.5536e-11
2.12351e-07
3.98551e-11
2.12352e-07
-1.25408e-12
2.12351e-07
-3.88348e-11
2.12347e-07
-7.32114e-11
2.12341e-07
-1.04944e-10
-1.34376e-10
2.12334e-07
1.72406e-07
6.46299e-10
1.72516e-07
5.36579e-10
1.72602e-07
4.41085e-10
1.72668e-07
3.58247e-10
1.72717e-07
2.86135e-10
1.72755e-07
2.22944e-10
1.72782e-07
1.67126e-10
1.72801e-07
1.17378e-10
1.72814e-07
7.26623e-11
1.72822e-07
3.20962e-11
1.72825e-07
-5.0278e-12
1.72826e-07
-3.91134e-11
1.72823e-07
-7.07438e-11
1.72819e-07
-1.00179e-10
-1.27658e-10
1.72812e-07
1.38618e-07
5.24167e-10
1.38716e-07
4.38663e-10
1.38793e-07
3.63276e-10
1.38855e-07
2.9688e-10
1.38903e-07
2.38136e-10
1.3894e-07
1.85823e-10
1.38968e-07
1.38894e-10
1.38989e-07
9.64472e-11
1.39004e-07
5.77567e-11
1.39014e-07
2.21965e-11
1.3902e-07
-1.06607e-11
1.39022e-07
-4.11031e-11
1.3902e-07
-6.95961e-11
1.39017e-07
-9.62779e-11
-1.21299e-10
1.3901e-07
1.10275e-07
4.18137e-10
1.10362e-07
3.51886e-10
1.10433e-07
2.92766e-10
1.10489e-07
2.39938e-10
1.10535e-07
1.92475e-10
1.10571e-07
1.49583e-10
1.106e-07
1.1056e-10
1.10621e-07
7.48231e-11
1.10637e-07
4.18142e-11
1.10648e-07
1.11101e-11
1.10655e-07
-1.73156e-11
1.10658e-07
-4.39957e-11
1.10657e-07
-6.90805e-11
1.10654e-07
-9.26646e-11
-1.14844e-10
1.10647e-07
8.68601e-08
3.26422e-10
8.69364e-08
2.75569e-10
8.69995e-08
2.2967e-10
8.70514e-08
1.88081e-10
8.70937e-08
1.50178e-10
8.71278e-08
1.15471e-10
8.71548e-08
8.34997e-11
8.71757e-08
5.39052e-11
8.71912e-08
2.63375e-11
8.72021e-08
2.26976e-13
8.72085e-08
-2.37026e-11
8.72111e-08
-4.65621e-11
8.721e-08
-6.80644e-11
8.72057e-08
-8.83294e-11
-1.07411e-10
8.71983e-08
6.77521e-08
2.48274e-10
6.78179e-08
2.09777e-10
6.78729e-08
1.7465e-10
6.79186e-08
1.42385e-10
6.79562e-08
1.12599e-10
6.79866e-08
8.50028e-11
6.80108e-08
5.93194e-11
6.80294e-08
3.52955e-11
6.80431e-08
1.26964e-11
6.80519e-08
-8.6098e-12
6.80567e-08
-2.85653e-11
6.80577e-08
-4.7495e-11
6.8055e-08
-6.53857e-11
6.80489e-08
-8.2263e-11
-9.81425e-11
6.80397e-08
5.23156e-08
1.8338e-10
5.23706e-08
1.5477e-10
5.24169e-08
1.28384e-10
5.24554e-08
1.03824e-10
5.24871e-08
8.08931e-11
5.25127e-08
5.94313e-11
5.25328e-08
3.92781e-11
5.25478e-08
2.02757e-11
5.25582e-08
2.26903e-12
5.25643e-08
-1.47024e-11
5.25665e-08
-3.0777e-11
5.2565e-08
-4.59924e-11
5.256e-08
-6.03881e-11
5.25517e-08
-7.39663e-11
-8.67172e-11
5.25403e-08
3.99522e-08
1.31209e-10
3.99965e-08
1.10429e-10
4.00339e-08
9.1057e-11
4.00649e-08
7.27972e-11
4.00902e-08
5.55824e-11
4.01103e-08
3.93307e-11
4.01256e-08
2.39508e-11
4.01365e-08
9.35453e-12
4.01433e-08
-4.51624e-12
4.01463e-08
-1.76679e-11
4.01457e-08
-3.01494e-11
4.01416e-08
-4.197e-11
4.01344e-08
-5.31479e-11
4.01241e-08
-6.36762e-11
-7.35349e-11
4.01109e-08
3.01268e-08
9.07036e-11
3.01612e-08
7.60167e-11
3.01901e-08
6.21802e-11
3.02139e-08
4.89867e-11
3.0233e-08
3.64499e-11
3.02478e-08
2.45253e-11
3.02586e-08
1.31683e-11
3.02656e-08
2.33763e-12
3.02691e-08
-7.9826e-12
3.02692e-08
-1.78134e-11
3.02662e-08
-2.71474e-11
3.02603e-08
-3.59885e-11
3.02515e-08
-4.43392e-11
3.024e-08
-5.21865e-11
-5.95087e-11
3.02259e-08
2.23768e-08
6.03315e-11
2.24025e-08
5.02824e-11
2.2424e-08
4.0726e-11
2.24414e-08
3.15229e-11
2.24551e-08
2.27247e-11
2.24654e-08
1.42996e-11
2.24723e-08
6.23415e-12
2.24761e-08
-1.47907e-12
2.2477e-08
-8.86009e-12
2.24751e-08
-1.59066e-11
2.24705e-08
-2.25989e-11
2.24635e-08
-2.89348e-11
2.24541e-08
-3.49102e-11
2.24424e-08
-4.05092e-11
-4.57124e-11
2.24286e-08
1.63102e-08
3.83298e-11
1.63288e-08
3.17215e-11
1.63441e-08
2.53972e-11
1.63564e-08
1.92597e-11
1.63657e-08
1.33661e-11
1.63724e-08
7.68665e-12
1.63764e-08
2.2277e-12
1.63779e-08
-2.9999e-12
1.6377e-08
-8.02932e-12
1.6374e-08
-1.28353e-11
1.63688e-08
-1.73988e-11
1.63616e-08
-2.17157e-11
1.63524e-08
-2.57803e-11
1.63415e-08
-2.95767e-11
-3.30885e-11
1.63289e-08
1.15997e-08
2.29534e-11
1.16126e-08
1.88243e-11
1.16232e-08
1.48734e-11
1.16314e-08
1.10199e-11
1.16375e-08
7.30739e-12
1.16414e-08
3.70761e-12
1.16434e-08
2.36154e-13
1.16435e-08
-3.08883e-12
1.16418e-08
-6.3087e-12
1.16383e-08
-9.38531e-12
1.16332e-08
-1.23052e-11
1.16266e-08
-1.50646e-11
1.16185e-08
-1.76586e-11
1.1609e-08
-2.00732e-11
-2.22945e-11
1.15982e-08
7.97434e-09
1.26431e-11
7.98292e-09
1.02396e-11
7.98983e-09
7.96937e-12
7.9951e-09
5.7503e-12
7.9988e-09
3.60649e-12
8.00099e-09
1.51461e-12
8.00174e-09
-5.08697e-13
8.00109e-09
-2.44597e-12
7.99912e-09
-4.33819e-12
7.99588e-09
-6.13828e-12
7.99142e-09
-7.85111e-12
7.98582e-09
-9.4667e-12
7.97915e-09
-1.09834e-11
7.97147e-09
-1.23902e-11
-1.36748e-11
7.96285e-09
5.2116e-09
6.1026e-12
5.217e-09
4.84684e-12
5.22126e-09
3.70521e-12
5.22442e-09
2.59009e-12
5.22652e-09
1.50922e-12
5.22758e-09
4.477e-13
5.22766e-09
-5.86477e-13
5.22679e-09
-1.57176e-12
5.22499e-09
-2.54066e-12
5.22232e-09
-3.46317e-12
5.21881e-09
-4.3413e-12
5.21451e-09
-5.16792e-12
5.20947e-09
-5.94345e-12
5.20374e-09
-6.65971e-12
-7.30579e-12
5.19737e-09
3.13023e-09
2.30521e-12
3.13331e-09
1.76373e-12
3.1357e-09
1.31533e-12
3.13741e-09
8.78711e-13
3.13847e-09
4.52542e-13
3.13889e-09
2.94466e-14
3.13868e-09
-3.83645e-13
3.13789e-09
-7.78697e-13
3.13652e-09
-1.16686e-12
3.13459e-09
-1.53823e-12
3.13214e-09
-1.8913e-12
3.1292e-09
-2.2233e-12
3.12579e-09
-2.53454e-12
3.12195e-09
-2.82005e-12
-3.07039e-12
3.11771e-09
1.58345e-09
4.65322e-13
1.5849e-09
3.16203e-13
1.58599e-09
2.21932e-13
1.58674e-09
1.30472e-13
1.58715e-09
3.85419e-14
1.58724e-09
-5.36992e-14
1.587e-09
-1.45965e-13
1.58645e-09
-2.33281e-13
1.58561e-09
-3.19509e-13
1.58447e-09
-4.01997e-13
1.58306e-09
-4.80074e-13
1.58139e-09
-5.54049e-13
1.57948e-09
-6.22511e-13
1.57734e-09
-6.8444e-13
-7.32823e-13
1.57501e-09
4.53237e-10
4.53553e-10
4.53775e-10
4.53906e-10
4.53944e-10
4.5389e-10
4.53744e-10
4.53511e-10
4.53192e-10
4.5279e-10
4.5231e-10
4.51756e-10
4.51133e-10
4.50449e-10
4.49716e-10
1.17048e-09
-4.85102e-10
2.93601e-10
1.4444e-09
-4.20923e-10
1.4701e-10
1.72031e-09
-2.90789e-10
1.48728e-11
1.99192e-09
-1.56478e-10
-1.15131e-10
2.2575e-09
-2.31768e-11
-2.42399e-10
2.51785e-09
1.01863e-10
-3.6221e-10
2.77439e-09
2.17464e-10
-4.7401e-10
3.02835e-09
3.22896e-10
-5.7686e-10
3.28076e-09
4.17488e-10
-6.69892e-10
3.5324e-09
5.00731e-10
-7.52378e-10
3.78393e-09
5.72248e-10
-8.2377e-10
4.03585e-09
6.32043e-10
-8.8397e-10
4.28869e-09
6.80919e-10
-9.33754e-10
4.54303e-09
7.21131e-10
-9.75476e-10
4.79975e-09
7.57372e-10
-1.01409e-09
5.06026e-09
7.9819e-10
-1.0587e-09
5.32687e-09
8.57513e-10
-1.12412e-09
5.60336e-09
9.56423e-10
-1.23292e-09
5.89542e-09
1.12109e-09
-1.41315e-09
6.2108e-09
1.37863e-09
-1.69401e-09
6.55786e-09
1.73018e-09
-2.07723e-09
6.94138e-09
2.11966e-09
-2.50318e-09
7.29657e-09
2.01178e-09
-2.36697e-09
7.592e-09
1.51375e-09
-1.80918e-09
7.82392e-09
8.50524e-10
-1.08245e-09
7.99298e-09
1.16542e-10
-2.85596e-10
8.10224e-09
-6.16503e-10
5.07241e-10
8.15542e-09
-1.30236e-09
1.24918e-09
8.1559e-09
-1.91124e-09
1.91077e-09
8.10653e-09
-2.42221e-09
2.47157e-09
8.01002e-09
-2.81878e-09
2.91529e-09
7.86917e-09
-3.08775e-09
3.2286e-09
7.6871e-09
-3.21979e-09
3.40186e-09
7.46722e-09
-3.21027e-09
3.43015e-09
7.21302e-09
-3.05949e-09
3.31369e-09
6.92776e-09
-2.77194e-09
3.0572e-09
6.61427e-09
-2.35459e-09
2.66808e-09
6.2749e-09
-1.81419e-09
2.15356e-09
5.91179e-09
-1.15399e-09
1.5171e-09
5.52626e-09
-3.71641e-10
7.57174e-10
5.11547e-09
5.34451e-10
-1.23655e-10
4.66709e-09
1.54059e-09
-1.09222e-09
4.15798e-09
2.5333e-09
-2.02419e-09
3.5908e-09
3.24953e-09
-2.68235e-09
2.98575e-09
3.24815e-09
-2.64309e-09
2.43288e-09
-5.61091e-10
2.59523e-09
-5.8327e-10
2.81584e-09
-5.11405e-10
3.06245e-09
-4.03088e-10
3.32134e-09
-2.82062e-10
3.58538e-09
-1.62175e-10
3.85172e-09
-4.88778e-11
4.1193e-09
5.53182e-11
4.38784e-09
1.48941e-10
4.65742e-09
2.31158e-10
4.9282e-09
3.01461e-10
5.20045e-09
3.59792e-10
5.4745e-09
4.06877e-10
5.75082e-09
4.44812e-10
6.0302e-09
4.77986e-10
6.31403e-09
5.14359e-10
6.60464e-09
5.66908e-10
6.9059e-09
6.55164e-10
7.2237e-09
8.0329e-10
7.56616e-09
1.03617e-09
7.9422e-09
1.35414e-09
8.35723e-09
1.70462e-09
8.74215e-09
1.62685e-09
9.06352e-09
1.19238e-09
9.31729e-09
5.96755e-10
9.50384e-09
-7.00032e-11
9.62612e-09
-7.3879e-10
9.6879e-09
-1.36414e-09
9.69271e-09
-1.91605e-09
9.64375e-09
-2.37325e-09
9.54416e-09
-2.71919e-09
9.39739e-09
-2.94097e-09
9.20737e-09
-3.02977e-09
8.97856e-09
-2.98146e-09
8.71581e-09
-2.79674e-09
8.42418e-09
-2.48031e-09
8.10899e-09
-2.03939e-09
7.77627e-09
-1.48148e-09
7.43404e-09
-8.11762e-10
7.09413e-09
-3.17281e-11
6.77308e-09
8.55501e-10
6.49275e-09
1.82093e-09
6.2805e-09
2.74555e-09
6.1791e-09
3.35093e-09
3.07096e-09
6.09388e-09
4.2315e-09
-5.75538e-10
4.30317e-09
-6.54939e-10
4.44359e-09
-6.51829e-10
4.63631e-09
-5.95802e-10
4.86182e-09
-5.07575e-10
5.10776e-09
-4.08116e-10
5.36663e-09
-3.07749e-10
5.63414e-09
-2.12188e-10
5.90786e-09
-1.2478e-10
6.18645e-09
-4.74271e-11
6.46915e-09
1.8755e-11
6.75561e-09
7.3334e-11
7.04572e-09
1.16765e-10
7.33967e-09
1.50863e-10
7.63803e-09
1.79626e-10
7.94203e-09
2.10362e-10
8.2539e-09
2.55034e-10
8.57752e-09
3.31543e-10
8.91887e-09
4.61941e-10
9.28633e-09
6.68709e-10
9.68925e-09
9.51222e-10
1.01336e-08
1.26022e-09
1.05465e-08
1.21397e-09
1.08926e-08
8.46285e-10
1.11675e-08
3.21871e-10
1.13712e-08
-2.73693e-10
1.15065e-08
-8.74039e-10
1.1577e-08
-1.43467e-09
1.15865e-08
-1.92555e-09
1.15385e-08
-2.32526e-09
1.14367e-08
-2.61741e-09
1.12854e-08
-2.78963e-09
1.10894e-08
-2.83381e-09
1.08546e-08
-2.74665e-09
1.05874e-08
-2.52958e-09
1.02952e-08
-2.1881e-09
9.98629e-09
-1.73047e-09
9.671e-09
-1.16619e-09
9.36381e-09
-5.04564e-10
9.08644e-09
2.4564e-10
8.87169e-09
1.07025e-09
8.76201e-09
1.93061e-09
8.79288e-09
2.71468e-09
8.94815e-09
3.19566e-09
2.99637e-09
9.02275e-09
6.68918e-09
-5.5473e-10
6.69948e-09
-6.65243e-10
6.76172e-09
-7.14069e-10
6.8818e-09
-7.15886e-10
7.05049e-09
-6.76256e-10
7.25436e-09
-6.11992e-10
7.48388e-09
-5.37263e-10
7.73222e-09
-4.60532e-10
7.99471e-09
-3.87269e-10
8.26822e-09
-3.20937e-10
8.5507e-09
-2.63723e-10
8.84082e-09
-2.16788e-10
9.13779e-09
-1.80205e-10
9.44127e-09
-1.52621e-10
9.75145e-09
-1.30555e-10
1.00693e-08
-1.07441e-10
1.03967e-08
-7.24095e-11
1.07375e-08
-9.26778e-12
1.10976e-08
1.01829e-10
1.14855e-08
2.80822e-10
1.19108e-08
5.25921e-10
1.238e-08
7.91007e-10
1.2817e-08
7.76981e-10
1.31848e-08
4.78456e-10
1.34786e-08
2.80848e-11
1.36979e-08
-4.92964e-10
1.38451e-08
-1.02122e-09
1.39238e-08
-1.51335e-09
1.39378e-08
-1.93956e-09
1.38911e-08
-2.27853e-09
1.37879e-08
-2.5143e-09
1.36336e-08
-2.63526e-09
1.34341e-08
-2.63435e-09
1.31969e-08
-2.50939e-09
1.29303e-08
-2.26299e-09
1.26441e-08
-1.90197e-09
1.23501e-08
-1.43641e-09
1.20627e-08
-8.78788e-10
1.18017e-08
-2.43625e-10
1.15954e-08
4.51941e-10
1.14829e-08
1.18279e-09
1.15089e-08
1.90459e-09
1.16977e-08
2.52592e-09
1.20019e-08
2.89141e-09
2.8024e-09
1.21959e-08
9.9709e-09
-5.18572e-10
9.94229e-09
-6.36638e-10
9.94583e-09
-7.1761e-10
9.99311e-09
-7.63167e-10
1.00905e-08
-7.73639e-10
1.02327e-08
-7.54205e-10
1.04108e-08
-7.15325e-10
1.0618e-08
-6.67743e-10
1.08485e-08
-6.17827e-10
1.1098e-08
-5.70363e-10
1.1363e-08
-5.28707e-10
1.16411e-08
-4.94947e-10
1.19308e-08
-4.69888e-10
1.2231e-08
-4.52814e-10
1.25413e-08
-4.40898e-10
1.28623e-08
-4.28418e-10
1.31956e-08
-4.05685e-10
1.35446e-08
-3.58279e-10
1.39151e-08
-2.6865e-10
1.43154e-08
-1.19492e-10
1.47553e-08
8.60569e-11
1.52414e-08
3.04813e-10
1.56958e-08
3.22668e-10
1.60799e-08
9.43296e-11
1.63883e-08
-2.80325e-10
1.66199e-08
-7.24527e-10
1.67765e-08
-1.17789e-09
1.68617e-08
-1.59852e-09
1.68793e-08
-1.95714e-09
1.68336e-08
-2.23288e-09
1.67298e-08
-2.41049e-09
1.6574e-08
-2.47948e-09
1.63738e-08
-2.43414e-09
1.61382e-08
-2.27373e-09
1.58776e-08
-2.00245e-09
1.56045e-08
-1.62888e-09
1.53335e-08
-1.16541e-09
1.50825e-08
-6.27806e-10
1.48745e-08
-3.55567e-11
1.47387e-08
5.8777e-10
1.4711e-08
1.21049e-09
1.4826e-08
1.7895e-09
1.50926e-08
2.25938e-09
1.54541e-08
2.52992e-09
2.51359e-09
1.57429e-08
1.42698e-08
-4.79044e-10
1.42221e-08
-5.88969e-10
1.41882e-08
-6.83712e-10
1.41805e-08
-7.55468e-10
1.42104e-08
-8.03482e-10
1.42815e-08
-8.25334e-10
1.4393e-08
-8.26817e-10
1.45399e-08
-8.1466e-10
1.47176e-08
-7.95507e-10
1.49216e-08
-7.74415e-10
1.51483e-08
-7.5537e-10
1.53945e-08
-7.41191e-10
1.5658e-08
-7.33394e-10
1.59372e-08
-7.31942e-10
1.6231e-08
-7.34737e-10
1.65396e-08
-7.36963e-10
1.6864e-08
-7.30175e-10
1.72075e-08
-7.0176e-10
1.75754e-08
-6.36515e-10
1.79757e-08
-5.19805e-10
1.8418e-08
-3.5625e-10
1.89091e-08
-1.86271e-10
1.93702e-08
-1.38464e-10
1.9762e-08
-2.97466e-10
2.0078e-08
-5.96326e-10
2.03162e-08
-9.62731e-10
2.0478e-08
-1.33963e-09
2.05663e-08
-1.68688e-09
2.05853e-08
-1.97609e-09
2.05396e-08
-2.18719e-09
2.04351e-08
-2.30606e-09
2.02793e-08
-2.32363e-09
2.0081e-08
-2.23585e-09
1.9851e-08
-2.04377e-09
1.9602e-08
-1.7534e-09
1.93484e-08
-1.37532e-09
1.91073e-08
-9.24258e-10
1.88983e-08
-4.18796e-10
1.87443e-08
1.18433e-10
1.86714e-08
6.60648e-10
1.87061e-08
1.17579e-09
1.88682e-08
1.62739e-09
1.91541e-08
1.97352e-09
1.95141e-08
2.16984e-09
2.18524e-09
1.98425e-08
1.98141e-08
-4.42096e-10
1.97631e-08
-5.38038e-10
1.97109e-08
-6.31441e-10
1.96698e-08
-7.14386e-10
1.96497e-08
-7.83381e-10
1.9659e-08
-8.34704e-10
1.97024e-08
-8.70217e-10
1.97803e-08
-8.92466e-10
1.98909e-08
-9.06133e-10
2.00318e-08
-9.15376e-10
2.02004e-08
-9.23907e-10
2.03939e-08
-9.34666e-10
2.061e-08
-9.49515e-10
2.08469e-08
-9.68908e-10
2.11036e-08
-9.91379e-10
2.13796e-08
-1.01297e-09
2.16759e-08
-1.02647e-09
2.19951e-08
-1.02102e-09
2.23424e-08
-9.83766e-10
2.27253e-08
-9.02672e-10
2.31529e-08
-7.83889e-10
2.36318e-08
-6.65157e-10
2.40848e-08
-5.91451e-10
2.44718e-08
-6.84449e-10
2.47849e-08
-9.09508e-10
2.50212e-08
-1.19896e-09
2.5181e-08
-1.49945e-09
2.52671e-08
-1.77295e-09
2.52834e-08
-1.99241e-09
2.52352e-08
-2.13899e-09
2.51292e-08
-2.20005e-09
2.49739e-08
-2.16833e-09
2.47797e-08
-2.04168e-09
2.4559e-08
-1.82312e-09
2.43262e-08
-1.52057e-09
2.40974e-08
-1.14648e-09
2.38905e-08
-7.17372e-10
2.37251e-08
-2.53434e-10
2.36217e-08
2.219e-10
2.35998e-08
6.82477e-10
2.36752e-08
1.10045e-09
2.3854e-08
1.44856e-09
2.4125e-08
1.70253e-09
2.44504e-08
1.84441e-09
1.86852e-09
2.47671e-08
2.68724e-08
-4.087e-10
2.6825e-08
-4.90661e-10
2.67694e-08
-5.75802e-10
2.67136e-08
-6.58618e-10
2.66654e-08
-7.35174e-10
2.66331e-08
-8.02392e-10
2.66226e-08
-8.59755e-10
2.66381e-08
-9.07964e-10
2.66814e-08
-9.49393e-10
2.67528e-08
-9.86789e-10
2.68518e-08
-1.02292e-09
2.69774e-08
-1.06022e-09
2.71282e-08
-1.10038e-09
2.73033e-08
-1.14395e-09
2.75017e-08
-1.18984e-09
2.77235e-08
-1.23474e-09
2.79695e-08
-1.27253e-09
2.82425e-08
-1.29397e-09
2.85471e-08
-1.28842e-09
2.88907e-08
-1.24626e-09
2.92819e-08
-1.17506e-09
2.97266e-08
-1.10982e-09
3.01519e-08
-1.01675e-09
3.05175e-08
-1.05006e-09
3.08137e-08
-1.20579e-09
3.10361e-08
-1.42128e-09
3.1184e-08
-1.64741e-09
3.12598e-08
-1.84873e-09
3.12674e-08
-2.00001e-09
3.12125e-08
-2.08406e-09
3.11026e-08
-2.09015e-09
3.09473e-08
-2.01307e-09
3.07584e-08
-1.85279e-09
3.05496e-08
-1.61428e-09
3.03362e-08
-1.30718e-09
3.0135e-08
-9.45312e-10
2.99637e-08
-5.46029e-10
2.98397e-08
-1.29466e-10
2.97792e-08
2.82431e-10
2.97947e-08
6.67019e-10
2.98923e-08
1.00282e-09
3.00692e-08
1.27169e-09
3.03106e-08
1.46108e-09
3.05888e-08
1.56617e-09
1.59108e-09
3.08663e-08
3.57548e-08
-3.77051e-10
3.57115e-08
-4.4734e-10
3.56585e-08
-5.22849e-10
3.56001e-08
-6.00202e-10
3.55413e-08
-6.76356e-10
3.54878e-08
-7.48953e-10
3.5445e-08
-8.16865e-10
3.54171e-08
-8.80124e-10
3.54076e-08
-9.39862e-10
3.54186e-08
-9.97816e-10
3.54516e-08
-1.05592e-09
3.55074e-08
-1.11597e-09
3.55862e-08
-1.17926e-09
3.56885e-08
-1.2462e-09
3.58145e-08
-1.31581e-09
3.59649e-08
-1.38518e-09
3.61415e-08
-1.4491e-09
3.63472e-08
-1.49968e-09
3.65871e-08
-1.52829e-09
3.68682e-08
-1.52739e-09
3.71988e-08
-1.50568e-09
3.75842e-08
-1.49521e-09
3.7959e-08
-1.39155e-09
3.82834e-08
-1.37451e-09
3.85456e-08
-1.46797e-09
3.87392e-08
-1.61484e-09
3.88627e-08
-1.77088e-09
3.89177e-08
-1.90382e-09
3.89084e-08
-1.99067e-09
3.88407e-08
-2.01639e-09
3.87231e-08
-1.97247e-09
3.85659e-08
-1.85595e-09
3.8382e-08
-1.66889e-09
3.81858e-08
-1.41804e-09
3.79929e-08
-1.11427e-09
3.78195e-08
-7.71958e-10
3.76816e-08
-4.08056e-10
3.75932e-08
-4.10776e-11
3.75654e-08
3.10198e-10
3.76044e-08
6.28026e-10
3.77098e-08
8.97393e-10
3.7874e-08
1.10749e-09
3.80821e-08
1.253e-09
3.83134e-08
1.33482e-09
1.35962e-09
3.85449e-08
4.68056e-08
-3.45461e-10
4.67648e-08
-4.06543e-10
4.67153e-08
-4.7333e-10
4.6659e-08
-5.43911e-10
4.65989e-08
-6.16231e-10
4.65385e-08
-6.88542e-10
4.64814e-08
-7.5978e-10
4.6431e-08
-8.29724e-10
4.63901e-08
-8.9898e-10
4.63611e-08
-9.68759e-10
4.63457e-08
-1.04056e-09
4.63456e-08
-1.11586e-09
4.63621e-08
-1.19575e-09
4.63965e-08
-1.28059e-09
4.64502e-08
-1.36954e-09
4.65251e-08
-1.46012e-09
4.66239e-08
-1.5479e-09
4.67505e-08
-1.62621e-09
4.69104e-08
-1.68819e-09
4.7111e-08
-1.72805e-09
4.73605e-08
-1.75511e-09
4.76635e-08
-1.79821e-09
4.79655e-08
-1.69354e-09
4.82286e-08
-1.6376e-09
4.84385e-08
-1.67792e-09
4.85872e-08
-1.76356e-09
4.86723e-08
-1.85591e-09
4.86949e-08
-1.92647e-09
4.86592e-08
-1.95498e-09
4.85717e-08
-1.92885e-09
4.84412e-08
-1.84203e-09
4.82791e-08
-1.69385e-09
4.80985e-08
-1.48828e-09
4.79138e-08
-1.23335e-09
4.77401e-08
-9.40482e-10
4.75917e-08
-6.23619e-10
4.74818e-08
-2.98174e-10
4.74206e-08
2.01222e-11
4.74144e-08
3.16416e-10
4.74645e-08
5.77946e-10
4.75668e-08
7.95093e-10
4.77121e-08
9.62198e-10
4.78871e-08
1.07796e-09
4.80766e-08
1.14537e-09
1.17087e-09
4.82653e-08
6.0393e-08
-3.14285e-10
6.03547e-08
-3.68153e-10
6.03089e-08
-4.27621e-10
6.02568e-08
-4.91721e-10
6.01997e-08
-5.59203e-10
6.014e-08
-6.28867e-10
6.00801e-08
-6.99859e-10
6.00223e-08
-7.71863e-10
5.99685e-08
-8.45175e-10
5.99203e-08
-9.20632e-10
5.98792e-08
-9.99434e-10
5.98462e-08
-1.08285e-09
5.98224e-08
-1.17197e-09
5.98091e-08
-1.26727e-09
5.98079e-08
-1.36831e-09
5.98209e-08
-1.47315e-09
5.98514e-08
-1.57839e-09
5.99038e-08
-1.67859e-09
5.99842e-08
-1.7686e-09
6.01004e-08
-1.84423e-09
6.02601e-08
-1.91482e-09
6.04678e-08
-2.00596e-09
6.06821e-08
-1.90779e-09
6.08686e-08
-1.82416e-09
6.10117e-08
-1.821e-09
6.11019e-08
-1.85376e-09
6.11363e-08
-1.89029e-09
6.11161e-08
-1.9063e-09
6.10456e-08
-1.88448e-09
6.09317e-08
-1.81495e-09
6.07839e-08
-1.69418e-09
6.06136e-08
-1.52359e-09
6.04339e-08
-1.30859e-09
6.02585e-08
-1.05789e-09
6.01006e-08
-7.82595e-10
5.99723e-08
-4.95331e-10
5.98832e-08
-2.09136e-10
5.98398e-08
6.35667e-11
5.98444e-08
3.11807e-10
5.98953e-08
5.27082e-10
5.99866e-08
7.0374e-10
6.01095e-08
8.39335e-10
6.02529e-08
9.34541e-10
6.04055e-08
9.92799e-10
1.0195e-09
6.05568e-08
7.69104e-08
-2.86254e-10
7.68768e-08
-3.34528e-10
7.68373e-08
-3.88073e-10
7.67921e-08
-4.46504e-10
7.6742e-08
-5.09179e-10
7.66885e-08
-5.75383e-10
7.66332e-08
-6.44536e-10
7.65777e-08
-7.16349e-10
7.65235e-08
-7.90941e-10
7.64717e-08
-8.68829e-10
7.64231e-08
-9.50899e-10
7.63784e-08
-1.03814e-09
7.6338e-08
-1.13156e-09
7.63024e-08
-1.23166e-09
7.62725e-08
-1.33844e-09
7.62499e-08
-1.45049e-09
7.62371e-08
-1.56559e-09
7.62381e-08
-1.67959e-09
7.62585e-08
-1.78906e-09
7.63058e-08
-1.8915e-09
7.63866e-08
-1.99565e-09
7.65049e-08
-2.12419e-09
7.66317e-08
-2.03464e-09
7.67387e-08
-1.93111e-09
7.68098e-08
-1.89214e-09
7.68356e-08
-1.87951e-09
7.68135e-08
-1.86828e-09
7.67456e-08
-1.83839e-09
7.66365e-08
-1.77535e-09
7.64936e-08
-1.67203e-09
7.63266e-08
-1.52722e-09
7.61471e-08
-1.34401e-09
7.59671e-08
-1.12864e-09
7.57989e-08
-8.89675e-10
7.56535e-08
-6.37153e-10
7.55398e-08
-3.81715e-10
7.54644e-08
-1.33681e-10
7.54302e-08
9.7788e-11
7.54369e-08
3.05042e-10
7.54812e-08
4.82833e-10
7.55568e-08
6.28149e-10
7.56558e-08
7.40346e-10
7.57694e-08
8.20892e-10
7.58892e-08
8.72967e-10
9.0083e-10
7.60079e-08
9.68055e-08
-2.64945e-10
9.678e-08
-3.09047e-10
9.67499e-08
-3.58016e-10
9.67152e-08
-4.11821e-10
9.66763e-08
-4.70237e-10
9.66339e-08
-5.32942e-10
9.6589e-08
-5.99645e-10
9.65428e-08
-6.70175e-10
9.64965e-08
-7.44614e-10
9.64509e-08
-8.2327e-10
9.64068e-08
-9.06778e-10
9.63644e-08
-9.95803e-10
9.63241e-08
-1.09121e-09
9.62857e-08
-1.19332e-09
9.62498e-08
-1.30245e-09
9.62167e-08
-1.41744e-09
9.61883e-08
-1.53718e-09
9.61671e-08
-1.6584e-09
9.61575e-08
-1.77941e-09
9.61651e-08
-1.89919e-09
9.61946e-08
-2.02507e-09
9.6248e-08
-2.17764e-09
9.63058e-08
-2.09246e-09
9.63462e-08
-1.97149e-09
9.63542e-08
-1.90019e-09
9.63215e-08
-1.84678e-09
9.62482e-08
-1.79498e-09
9.61374e-08
-1.72756e-09
9.59943e-08
-1.63223e-09
9.58268e-08
-1.50459e-09
9.5645e-08
-1.3454e-09
9.54597e-08
-1.1587e-09
9.52818e-08
-9.50761e-10
9.51214e-08
-7.29316e-10
9.4987e-08
-5.02746e-10
9.48847e-08
-2.79381e-10
9.48179e-08