/*--------------------------------*- C++ -*----------------------------------*\
| =========                 |                                                 |
| \\      /  F ield         | OpenFOAM: The Open Source CFD Toolbox           |
|  \\    /   O peration     | Version:  2312                                  |
|   \\  /    A nd           | Website:  www.openfoam.com                      |
|    \\/     M anipulation  |                                                 |
\*---------------------------------------------------------------------------*/
FoamFile
{
    version     2.0;
    format      ascii;
    arch        "LSB;label=32;scalar=64";
    class       volVectorField;
    location    "116.25";
    object      U;
}
// * * * * * * * * * * * * * * * * * * * * * * * * * * * * * * * * * * * * * //

dimensions      [0 1 -1 0 0 0 0];

internalField   nonuniform List<vector> 
4800
(
(0.000486905 2.26337e-07 -2.40743e-26)
(0.000481975 2.52963e-07 -1.72381e-25)
(0.000479535 2.66325e-07 2.20353e-25)
(0.000478657 2.8103e-07 1.04516e-25)
(0.000478906 2.8302e-07 1.57764e-24)
(0.000480074 2.75622e-07 -3.78871e-24)
(0.000482003 2.43962e-07 3.59389e-24)
(0.000484685 1.56107e-07 -5.29086e-24)
(0.00048824 -1.16668e-08 1.67942e-24)
(0.000492904 -2.96474e-07 5.88962e-24)
(0.000499117 -8.49685e-07 -1.81119e-24)
(0.000508213 -2.34446e-06 -1.44878e-25)
(0.000527796 -7.83331e-06 -2.25675e-24)
(0.00057677 -3.01298e-05 1.05861e-24)
(0.000657479 -9.82037e-05 -8.4307e-25)
(0.00150764 1.13514e-06 -7.62825e-26)
(0.00149202 7.11723e-07 9.51529e-26)
(0.00148373 3.73128e-07 -9.06419e-25)
(0.00148009 8.60986e-08 6.70316e-25)
(0.00147981 -2.05291e-07 2.2357e-24)
(0.00148219 -5.38502e-07 -3.60192e-24)
(0.00148679 -9.40919e-07 -1.0827e-24)
(0.0014936 -1.52452e-06 -2.90926e-25)
(0.00150286 -2.42523e-06 8.8063e-24)
(0.0015152 -3.86412e-06 -6.5489e-24)
(0.0015319 -6.51904e-06 7.12984e-25)
(0.00155579 -1.27141e-05 1.10587e-24)
(0.0015962 -3.05344e-05 -1.65156e-24)
(0.00166426 -8.51275e-05 -5.08102e-25)
(0.00173715 -0.000209035 2.17383e-24)
(0.00263724 3.70096e-06 -5.46154e-26)
(0.0026097 2.37675e-06 5.57133e-26)
(0.00259434 1.3663e-06 5.91669e-25)
(0.0025868 4.78765e-07 -1.42516e-24)
(0.00258487 -4.30659e-07 1.40603e-24)
(0.00258742 -1.47516e-06 1.3642e-24)
(0.00259349 -2.75471e-06 -3.57526e-24)
(0.00260326 -4.50384e-06 -2.2796e-24)
(0.00261681 -7.06728e-06 5.43192e-24)
(0.00263489 -1.10653e-05 2.09282e-24)
(0.00265893 -1.80371e-05 -7.26726e-24)
(0.0026912 -3.2108e-05 -1.13753e-24)
(0.00273595 -6.32525e-05 3.12984e-24)
(0.00279187 -0.000132193 5.01062e-24)
(0.00283239 -0.000247896 -2.59601e-24)
(0.00388094 8.3632e-06 2.01746e-26)
(0.00384066 5.56115e-06 -1.41631e-25)
(0.0038172 3.43377e-06 6.42256e-25)
(0.00380463 1.57018e-06 7.14206e-25)
(0.00379983 -3.5872e-07 -6.7334e-25)
(0.00380139 -2.46344e-06 -4.0481e-24)
(0.0038075 -5.06487e-06 -2.91298e-24)
(0.00381865 -8.62231e-06 1.08631e-23)
(0.00383452 -1.36393e-05 4.6108e-24)
(0.00385557 -2.11763e-05 -6.55282e-24)
(0.00388262 -3.33899e-05 -2.66893e-24)
(0.00391615 -5.49518e-05 -2.06408e-24)
(0.00395534 -9.41776e-05 5.56124e-26)
(0.00399272 -0.000161847 1.54098e-24)
(0.00400892 -0.000253517 7.56364e-27)
(0.00524112 1.55691e-05 -3.69576e-26)
(0.00518817 1.06403e-05 -2.2838e-25)
(0.00515609 6.90261e-06 -1.53043e-25)
(0.00513768 3.65114e-06 3.94507e-25)
(0.00512893 3.64382e-07 -1.17339e-24)
(0.00512821 -3.3735e-06 2.90477e-24)
(0.00513306 -7.59221e-06 -4.99509e-25)
(0.00514369 -1.34257e-05 1.89187e-24)
(0.00515966 -2.14112e-05 -1.0531e-23)
(0.00518063 -3.28022e-05 2.01625e-23)
(0.00520645 -4.98477e-05 -1.96264e-23)
(0.00523587 -7.63539e-05 1.04419e-23)
(0.0052654 -0.000117299 -9.75995e-24)
(0.00528707 -0.000176066 9.24982e-24)
(0.00528986 -0.000245246 -3.69969e-24)
(0.0067155 2.57386e-05 4.86639e-26)
(0.00665158 1.80365e-05 1.76189e-25)
(0.00661144 1.22015e-05 -9.39616e-25)
(0.00658703 7.15684e-06 -6.2379e-25)
(0.00657385 2.08748e-06 1.63504e-24)
(0.00656955 -3.42041e-06 6.04153e-25)
(0.00657215 -9.90425e-06 -4.77775e-24)
(0.00658065 -1.82233e-05 1.15401e-23)
(0.00659445 -2.9277e-05 -1.51748e-23)
(0.00661258 -4.42346e-05 3.62134e-24)
(0.00663392 -6.49111e-05 1.12722e-23)
(0.00665623 -9.3596e-05 -1.57751e-23)
(0.00667557 -0.000132176 7.9202e-24)
(0.00668606 -0.000180169 8.18831e-24)
(0.00668267 -0.000231351 -6.2458e-24)
(0.00829498 3.89729e-05 4.00038e-26)
(0.00822432 2.79726e-05 -2.3853e-25)
(0.00817839 1.96363e-05 8.68131e-25)
(0.0081491 1.2454e-05 -1.21908e-24)
(0.00813182 5.33415e-06 -4.27024e-24)
(0.00812378 -2.30613e-06 7.29184e-24)
(0.00812311 -1.1122e-05 -4.51287e-24)
(0.00812836 -2.20614e-05 1.55984e-23)
(0.00813838 -3.59468e-05 -1.06028e-23)
(0.00815174 -5.37351e-05 -5.02857e-24)
(0.00816677 -7.65326e-05 -1.00377e-23)
(0.00818099 -0.000105197 9.22405e-24)
(0.0081913 -0.000139635 2.6138e-24)
(0.00819415 -0.000177985 2.25383e-24)
(0.00818794 -0.000216005 -1.98659e-24)
(0.00996165 5.46369e-05 -5.70862e-26)
(0.00989173 4.01323e-05 7.85406e-25)
(0.00984472 2.9104e-05 -1.85052e-24)
(0.00981347 1.96018e-05 -1.58005e-24)
(0.00979382 1.03078e-05 5.39561e-25)
(0.009783 4.16862e-07 1.13932e-24)
(0.00977917 -1.07331e-05 4.28032e-24)
(0.00978078 -2.40644e-05 -1.18501e-23)
(0.00978634 -4.02535e-05 -6.49865e-24)
(0.0097942 -5.98794e-05 1.76133e-23)
(0.00980252 -8.33398e-05 -5.55716e-24)
(0.00980922 -0.000110512 1.90307e-23)
(0.00981227 -0.000140429 -1.00511e-23)
(0.00980982 -0.000171185 -3.22521e-24)
(0.00980193 -0.000200163 1.91392e-24)
(0.0116887 7.08666e-05 -7.42779e-27)
(0.0116302 5.32327e-05 4.31306e-25)
(0.0115893 3.97125e-05 -6.17097e-25)
(0.0115612 2.80101e-05 1.52995e-24)
(0.0115426 1.6652e-05 -9.26974e-24)
(0.0115314 4.68896e-06 9.83399e-24)
(0.0115259 -8.53343e-06 -1.58925e-23)
(0.0115247 -2.37928e-05 9.70971e-24)
(0.0115264 -4.15215e-05 7.35428e-24)
(0.0115293 -6.19202e-05 1.62432e-23)
(0.0115319 -8.48561e-05 -2.12716e-23)
(0.0115327 -0.000109721 -3.9933e-24)
(0.0115305 -0.000135392 1.81441e-24)
(0.0115245 -0.000160415 1.31942e-23)
(0.0115155 -0.000183271 -5.37949e-24)
(0.0134454 8.42593e-05 3.96278e-26)
(0.0134099 6.46575e-05 -1.77545e-25)
(0.0133839 4.93983e-05 8.1745e-25)
(0.0133653 3.60456e-05 -2.92088e-24)
(0.0133527 2.30885e-05 4.48524e-24)
(0.0133448 9.56037e-06 -5.89893e-24)
(0.0133405 -5.18347e-06 1.00068e-23)
(0.0133387 -2.16303e-05 1.85054e-24)
(0.0133384 -3.99819e-05 -1.406e-23)
(0.0133382 -6.0143e-05 2.02587e-23)
(0.0133371 -8.16884e-05 -2.2432e-23)
(0.0133342 -0.00010389 -6.68599e-24)
(0.013329 -0.0001258 1.17656e-23)
(0.0133211 -0.00014646 3.50906e-24)
(0.0133117 -0.00016503 -1.53619e-24)
(0.015209 9.04188e-05 1.50512e-25)
(0.0152042 7.06483e-05 -1.36595e-24)
(0.0151999 5.49268e-05 -2.31254e-24)
(0.0151967 4.09146e-05 5.42163e-24)
(0.0151949 2.72117e-05 2.52703e-24)
(0.0151942 1.29366e-05 -1.58989e-23)
(0.0151945 -2.45211e-06 4.82412e-24)
(0.015195 -1.91245e-05 3.53047e-24)
(0.0151954 -3.71115e-05 -1.58452e-23)
(0.0151948 -5.61313e-05 1.64141e-23)
(0.0151927 -7.56709e-05 -1.33802e-23)
(0.0151886 -9.50844e-05 3.43314e-23)
(0.0151827 -0.000113681 -1.65846e-23)
(0.0151748 -0.000130884 9.79401e-24)
(0.015166 -0.000146251 -2.67838e-24)
(0.0169803 8.60664e-05 -4.8924e-26)
(0.0170044 6.77854e-05 9.07088e-25)
(0.0170223 5.29467e-05 -1.82993e-24)
(0.0170361 3.94259e-05 -9.85751e-25)
(0.017047 2.60315e-05 1.09337e-23)
(0.0170559 1.20428e-05 -1.48027e-24)
(0.0170629 -2.95038e-06 -1.99095e-23)
(0.0170681 -1.88151e-05 2.34696e-23)
(0.0170715 -3.54742e-05 -5.24345e-24)
(0.0170728 -5.25844e-05 -1.85467e-23)
(0.0170721 -6.96711e-05 1.98977e-23)
(0.0170693 -8.62404e-05 1.08259e-23)
(0.0170647 -0.00010183 -9.06615e-24)
(0.0170584 -0.000116114 -1.58011e-23)
(0.0170513 -0.000128871 1.32873e-24)
(0.0187858 7.17771e-05 -7.55714e-27)
(0.0188269 5.55523e-05 -1.00355e-24)
(0.0188594 4.22787e-05 4.96035e-24)
(0.0188854 2.99858e-05 4.18105e-25)
(0.0189063 1.77227e-05 3.06258e-24)
(0.0189229 4.82782e-06 -1.06438e-23)
(0.018936 -8.73693e-06 9.29363e-24)
(0.0189459 -2.29075e-05 2.21722e-24)
(0.0189529 -3.7492e-05 1.95323e-23)
(0.0189571 -5.21581e-05 -3.00434e-23)
(0.0189589 -6.65243e-05 -1.37179e-23)
(0.0189583 -8.02445e-05 -9.13232e-24)
(0.0189561 -9.30264e-05 1.7182e-23)
(0.0189522 -0.000104696 -4.96783e-25)
(0.0189475 -0.000115147 1.67272e-24)
(0.0206528 5.19578e-05 -1.71222e-26)
(0.0206967 3.73159e-05 1.02317e-24)
(0.0207327 2.54524e-05 -1.50027e-24)
(0.0207622 1.44548e-05 -7.99264e-27)
(0.0207864 3.45928e-06 2.12481e-24)
(0.020806 -7.80318e-06 5.52622e-24)
(0.0208216 -1.93961e-05 -2.14833e-23)
(0.0208336 -3.14022e-05 1.72175e-24)
(0.0208424 -4.35533e-05 1.10488e-23)
(0.0208482 -5.55779e-05 -5.16676e-24)
(0.0208517 -6.7201e-05 1.40928e-23)
(0.020853 -7.81941e-05 9.91961e-24)
(0.0208527 -8.83793e-05 -1.80083e-23)
(0.0208507 -9.76687e-05 1.23407e-23)
(0.0208481 -0.000106017 -1.02688e-23)
(0.0225732 3.11572e-05 -4.63888e-25)
(0.0226115 1.75661e-05 2.51266e-25)
(0.0226433 6.59772e-06 1.83722e-24)
(0.0226696 -3.20617e-06 -9.69385e-24)
(0.0226915 -1.27383e-05 8.56317e-24)
(0.0227093 -2.22232e-05 -6.43191e-24)
(0.0227234 -3.18971e-05 4.58192e-24)
(0.0227342 -4.16749e-05 -3.32691e-23)
(0.0227423 -5.13957e-05 4.80533e-23)
(0.0227477 -6.08879e-05 -2.85086e-23)
(0.0227512 -6.99701e-05 2.55168e-23)
(0.0227527 -7.8498e-05 2.14166e-23)
(0.0227529 -8.63667e-05 -3.74515e-23)
(0.0227517 -9.35368e-05 1.21979e-23)
(0.0227499 -9.99938e-05 -5.1255e-25)
(0.02449 1.12942e-05 -1.5674e-26)
(0.0245212 -1.27566e-06 -1.78675e-25)
(0.0245468 -1.11712e-05 1.47137e-25)
(0.0245678 -1.96493e-05 -2.74376e-25)
(0.0245851 -2.75418e-05 3.59036e-24)
(0.024599 -3.53276e-05 -6.19835e-24)
(0.0246098 -4.30403e-05 5.80733e-24)
(0.024618 -5.0673e-05 -1.85073e-23)
(0.0246238 -5.81294e-05 4.22419e-23)
(0.0246275 -6.52983e-05 -5.42141e-23)
(0.0246296 -7.20981e-05 4.44972e-23)
(0.0246303 -7.84423e-05 -1.50484e-23)
(0.0246299 -8.4273e-05 7.7936e-25)
(0.0246284 -8.95653e-05 3.44116e-24)
(0.0246265 -9.43275e-05 -6.61716e-24)
(0.0263099 -7.67584e-06 -1.24626e-24)
(0.0263351 -1.87085e-05 2.08286e-24)
(0.0263553 -2.70211e-05 -5.04123e-25)
(0.0263715 -3.39322e-05 -1.53514e-24)
(0.0263844 -4.01777e-05 6.01707e-24)
(0.0263944 -4.60841e-05 -6.08689e-24)
(0.026402 -5.17482e-05 -5.43505e-24)
(0.0264074 -5.72957e-05 -1.31111e-23)
(0.026411 -6.26045e-05 6.72877e-24)
(0.0264129 -6.75883e-05 3.18976e-23)
(0.0264136 -7.22489e-05 -1.68394e-23)
(0.026413 -7.65844e-05 1.00049e-23)
(0.0264117 -8.05266e-05 -4.13877e-24)
(0.0264095 -8.40714e-05 -1.21677e-23)
(0.026407 -8.72604e-05 6.22245e-24)
(0.0279107 -2.57397e-05 3.93665e-25)
(0.0279311 -3.469e-05 -6.51346e-25)
(0.0279468 -4.12533e-05 3.0862e-25)
(0.0279589 -4.63423e-05 -2.16414e-24)
(0.0279681 -5.06955e-05 -1.63444e-24)
(0.0279748 -5.45839e-05 1.06103e-23)
(0.0279797 -5.80849e-05 -8.26448e-24)
(0.0279827 -6.16595e-05 -5.06619e-24)
(0.0279844 -6.49301e-05 4.70367e-24)
(0.0279849 -6.77977e-05 -5.36868e-24)
(0.027984 -7.07439e-05 1.14443e-23)
(0.0279824 -7.29375e-05 5.67158e-24)
(0.0279798 -7.53318e-05 -1.9372e-23)
(0.0279773 -7.68857e-05 1.32326e-23)
(0.0279742 -7.8475e-05 -3.26349e-24)
(0.0291294 -4.30754e-05 1.11991e-24)
(0.0291448 -4.93673e-05 1.50365e-24)
(0.029156 -5.36278e-05 -3.51814e-24)
(0.0291642 -5.64515e-05 9.68256e-25)
(0.0291701 -5.86617e-05 -9.514e-25)
(0.0291737 -6.04904e-05 -4.55309e-24)
(0.029176 -6.14989e-05 -5.39583e-24)
(0.0291768 -6.32125e-05 1.28812e-23)
(0.0291762 -6.45136e-05 9.68583e-24)
(0.0291752 -6.51862e-05 -1.90905e-23)
(0.0291736 -6.57301e-05 1.1173e-23)
(0.0291714 -6.61779e-05 -8.65534e-25)
(0.0291687 -6.65605e-05 -8.3517e-25)
(0.0291652 -6.6889e-05 1.29201e-24)
(0.0291612 -6.70351e-05 -6.07503e-25)
(0.0297411 -5.77754e-05 -2.83305e-24)
(0.0297517 -6.1564e-05 -5.0368e-24)
(0.0297592 -6.34847e-05 4.16132e-24)
(0.0297644 -6.42576e-05 6.8825e-24)
(0.029768 -6.43593e-05 -1.56019e-24)
(0.02977 -6.3954e-05 1.32125e-24)
(0.0297709 -6.33421e-05 -1.1936e-24)
(0.0297708 -6.23211e-05 -1.0797e-23)
(0.02977 -6.13925e-05 2.40067e-23)
(0.0297683 -6.05011e-05 -1.05091e-23)
(0.0297658 -5.95866e-05 4.4718e-24)
(0.0297627 -5.8639e-05 -7.75898e-24)
(0.0297592 -5.75684e-05 -7.8995e-24)
(0.0297554 -5.63305e-05 1.15395e-23)
(0.0297513 -5.49324e-05 -4.9329e-24)
(0.0295556 -6.88904e-05 4.3291e-24)
(0.0295617 -7.03596e-05 -9.38431e-24)
(0.0295654 -7.02754e-05 2.01897e-24)
(0.0295674 -6.91725e-05 8.78972e-24)
(0.0295681 -6.74551e-05 -6.85781e-24)
(0.0295678 -6.53622e-05 6.60329e-25)
(0.0295666 -6.30122e-05 -4.43065e-24)
(0.0295647 -6.05652e-05 1.11269e-23)
(0.0295621 -5.81094e-05 4.29678e-24)
(0.029559 -5.55958e-05 -8.30529e-24)
(0.0295554 -5.29961e-05 -4.74279e-24)
(0.0295516 -5.03201e-05 5.6602e-24)
(0.0295474 -4.75611e-05 -6.09187e-24)
(0.029543 -4.47156e-05 3.51601e-24)
(0.0295383 -4.17949e-05 -1.52937e-24)
(0.0285541 -7.4601e-05 2.58002e-24)
(0.0285558 -7.39109e-05 -5.11566e-24)
(0.0285558 -7.20265e-05 -2.4973e-24)
(0.0285547 -6.93148e-05 1.19248e-23)
(0.0285527 -6.61487e-05 -8.98986e-24)
(0.0285501 -6.27186e-05 1.59674e-24)
(0.028547 -5.91312e-05 8.03837e-25)
(0.0285434 -5.54489e-05 -4.49719e-25)
(0.0285396 -5.17067e-05 -2.08843e-24)
(0.0285355 -4.7911e-05 1.42172e-23)
(0.0285312 -4.40678e-05 -8.72962e-24)
(0.0285267 -4.02031e-05 1.19065e-24)
(0.0285221 -3.63309e-05 -1.31533e-23)
(0.0285174 -3.24524e-05 6.38599e-24)
(0.0285125 -2.8568e-05 2.11004e-24)
(0.0270029 -7.45164e-05 5.58533e-24)
(0.0270004 -7.23901e-05 -1.07778e-23)
(0.0269969 -6.93541e-05 2.32852e-24)
(0.0269929 -6.5706e-05 -3.14658e-24)
(0.0269884 -6.16911e-05 -2.05286e-24)
(0.0269836 -5.74658e-05 1.01217e-23)
(0.0269787 -5.31147e-05 -2.36646e-24)
(0.0269736 -4.87004e-05 -1.77061e-25)
(0.0269684 -4.42543e-05 4.71486e-25)
(0.0269632 -3.97901e-05 4.4514e-24)
(0.0269579 -3.53307e-05 -1.0202e-23)
(0.0269526 -3.08824e-05 8.42081e-24)
(0.0269472 -2.64436e-05 -6.59543e-25)
(0.0269419 -2.20215e-05 -2.76808e-24)
(0.0269364 -1.7599e-05 4.4598e-25)
(0.0251042 -7.0648e-05 2.40011e-24)
(0.0250974 -6.74798e-05 -1.14102e-23)
(0.0250903 -6.37207e-05 1.81018e-23)
(0.0250833 -5.95355e-05 -1.23369e-23)
(0.0250763 -5.50713e-05 9.26522e-24)
(0.0250694 -5.0421e-05 -3.91157e-24)
(0.0250627 -4.56656e-05 -1.95994e-24)
(0.0250562 -4.08573e-05 -5.04027e-25)
(0.0250498 -3.60194e-05 -2.33637e-24)
(0.0250436 -3.11837e-05 -2.31619e-24)
(0.0250375 -2.63658e-05 5.28593e-24)
(0.0250316 -2.15784e-05 2.00975e-24)
(0.0250258 -1.68219e-05 -3.34175e-24)
(0.0250203 -1.20935e-05 1.11915e-24)
(0.0250148 -7.39084e-06 -3.28166e-25)
(0.023005 -6.28022e-05 3.16837e-25)
(0.0229947 -5.92321e-05 -4.21381e-24)
(0.0229846 -5.52734e-05 -1.58244e-24)
(0.0229752 -5.09909e-05 1.53049e-23)
(0.0229663 -4.6481e-05 -1.33528e-23)
(0.0229579 -4.18185e-05 3.4752e-24)
(0.0229499 -3.70724e-05 3.76323e-25)
(0.0229425 -3.22762e-05 -7.38214e-26)
(0.0229354 -2.74695e-05 5.87405e-25)
(0.0229288 -2.26771e-05 -4.73944e-24)
(0.0229226 -1.79026e-05 4.67639e-24)
(0.0229168 -1.31567e-05 8.40674e-25)
(0.0229113 -8.45509e-06 -9.82145e-25)
(0.0229062 -3.79907e-06 -1.99021e-24)
(0.0229014 8.03983e-07 1.68267e-24)
(0.0208176 -5.28747e-05 4.70336e-25)
(0.0208049 -4.93915e-05 3.84851e-24)
(0.0207931 -4.56061e-05 -4.48547e-24)
(0.0207825 -4.15974e-05 -2.40299e-24)
(0.0207727 -3.74268e-05 1.30006e-23)
(0.0207638 -3.31391e-05 -9.96041e-24)
(0.0207557 -2.8771e-05 -4.98378e-25)
(0.0207484 -2.43537e-05 -7.85203e-25)
(0.0207417 -1.99268e-05 2.99035e-25)
(0.0207358 -1.55002e-05 2.34128e-25)
(0.0207304 -1.11001e-05 1.6925e-24)
(0.0207256 -6.72869e-06 -3.99107e-25)
(0.0207214 -2.40379e-06 1.71746e-26)
(0.0207178 1.86962e-06 -3.37327e-25)
(0.0207147 6.08908e-06 -1.47492e-24)
(0.0186278 -4.25961e-05 3.35677e-24)
(0.0186147 -3.9597e-05 -5.00847e-24)
(0.0186029 -3.63399e-05 -3.2224e-24)
(0.0185925 -3.29242e-05 9.63942e-24)
(0.0185833 -2.93886e-05 -3.48864e-24)
(0.0185752 -2.57496e-05 -3.3333e-24)
(0.0185681 -2.20225e-05 1.32952e-24)
(0.018562 -1.82404e-05 1.15739e-24)
(0.0185567 -1.44259e-05 -3.79021e-25)
(0.0185522 -1.06106e-05 -9.55936e-25)
(0.0185486 -6.80638e-06 1.51743e-24)
(0.0185456 -3.0307e-06 -1.28898e-24)
(0.0185434 7.14768e-07 3.3404e-24)
(0.018542 4.41246e-06 -4.13162e-24)
(0.0185411 8.05592e-06 1.36355e-24)
(0.0164998 -3.35129e-05 -6.53979e-25)
(0.0164878 -3.11918e-05 -2.02176e-24)
(0.0164773 -2.86388e-05 -5.70164e-24)
(0.0164683 -2.59656e-05 1.57772e-23)
(0.0164605 -2.31984e-05 -3.29863e-24)
(0.0164539 -2.03318e-05 -3.62621e-24)
(0.0164484 -1.73614e-05 6.36669e-25)
(0.0164439 -1.43178e-05 -1.03338e-24)
(0.0164404 -1.1216e-05 -1.3631e-25)
(0.0164378 -8.09989e-06 2.69358e-25)
(0.016436 -4.97837e-06 3.29272e-27)
(0.0164351 -1.87348e-06 1.7541e-24)
(0.016435 1.21315e-06 -1.92552e-24)
(0.0164356 4.26446e-06 -3.26107e-25)
(0.016437 7.2744e-06 3.768e-25)
(0.0144756 -2.62426e-05 2.52915e-24)
(0.0144653 -2.46172e-05 3.21066e-24)
(0.0144565 -2.27832e-05 -3.46143e-24)
(0.0144491 -2.08541e-05 -5.92171e-24)
(0.0144428 -1.88436e-05 6.98033e-24)
(0.0144377 -1.67346e-05 -6.54835e-24)
(0.0144337 -1.45097e-05 5.20158e-25)
(0.0144308 -1.21723e-05 1.9615e-24)
(0.0144287 -9.76302e-06 3.97064e-25)
(0.0144276 -7.32078e-06 4.81967e-25)
(0.0144274 -4.86959e-06 9.08035e-25)
(0.0144279 -2.41891e-06 -3.82191e-24)
(0.0144293 2.7532e-08 1.5874e-24)
(0.0144315 2.46219e-06 7.80363e-25)
(0.0144344 4.87353e-06 8.16724e-26)
(0.0125777 -2.06859e-05 -2.64109e-24)
(0.0125691 -1.96633e-05 3.34998e-24)
(0.0125618 -1.84576e-05 2.66395e-25)
(0.0125556 -1.71703e-05 5.07919e-24)
(0.0125505 -1.58052e-05 -4.46985e-24)
(0.0125465 -1.43467e-05 -4.09663e-26)
(0.0125434 -1.27795e-05 -6.40024e-25)
(0.0125412 -1.10735e-05 -8.57874e-25)
(0.01254 -9.27454e-06 2.78083e-26)
(0.0125396 -7.42392e-06 1.05384e-26)
(0.0125401 -5.55855e-06 5.73993e-25)
(0.0125413 -3.67892e-06 -3.70389e-26)
(0.0125433 -1.78765e-06 -3.37262e-25)
(0.012546 1.08551e-07 -2.73923e-25)
(0.0125495 2.00407e-06 -2.11945e-25)
(0.0108154 -1.64153e-05 1.96624e-24)
(0.0108079 -1.58559e-05 -1.59107e-24)
(0.0108015 -1.51458e-05 -5.83084e-24)
(0.010796 -1.43599e-05 5.44568e-24)
(0.0107915 -1.34968e-05 5.98615e-24)
(0.0107877 -1.25446e-05 -2.23177e-24)
(0.0107849 -1.14837e-05 -2.87078e-24)
(0.0107828 -1.03018e-05 -2.27899e-24)
(0.0107816 -9.02052e-06 1.37555e-24)
(0.0107811 -7.65979e-06 -1.48462e-25)
(0.0107814 -6.26848e-06 1.19321e-25)
(0.0107824 -4.85351e-06 2.62193e-25)
(0.0107841 -3.42013e-06 -4.83967e-25)
(0.0107866 -1.96915e-06 -6.85897e-26)
(0.0107897 -5.02369e-07 2.33353e-25)
(0.00918931 -1.2989e-05 -1.24319e-24)
(0.00918245 -1.27529e-05 -7.30924e-25)
(0.00917643 -1.23968e-05 1.08925e-24)
(0.00917112 -1.19658e-05 -2.53234e-24)
(0.00916652 -1.14642e-05 8.02599e-24)
(0.0091626 -1.08792e-05 -9.22813e-24)
(0.00915936 -1.01984e-05 7.64654e-24)
(0.00915681 -9.40703e-06 -2.84718e-24)
(0.00915495 -8.51749e-06 1.97299e-25)
(0.00915377 -7.55726e-06 -3.15538e-25)
(0.00915328 -6.55153e-06 -8.60419e-26)
(0.00915345 -5.50748e-06 -4.13105e-25)
(0.00915425 -4.43796e-06 5.06675e-25)
(0.00915571 -3.34324e-06 1.67911e-25)
(0.00915776 -2.22752e-06 -1.06084e-25)
(0.0076958 -1.00974e-05 -6.06533e-25)
(0.00768923 -1.00609e-05 1.87848e-25)
(0.00768325 -9.93167e-06 3.24715e-25)
(0.00767778 -9.73185e-06 -1.20273e-24)
(0.00767283 -9.47278e-06 -3.28179e-25)
(0.0076684 -9.14236e-06 3.82325e-24)
(0.00766449 -8.72937e-06 -2.11215e-24)
(0.00766114 -8.22182e-06 1.60503e-25)
(0.00765836 -7.62625e-06 -1.85653e-25)
(0.00765616 -6.96331e-06 -1.20762e-26)
(0.00765456 -6.2544e-06 1.48556e-25)
(0.00765355 -5.51022e-06 -4.22084e-25)
(0.00765312 -4.73333e-06 -4.93155e-25)
(0.00765327 -3.92538e-06 5.8915e-25)
(0.00765399 -3.09326e-06 1.72938e-25)
(0.00632886 -7.58261e-06 -2.21345e-25)
(0.00632247 -7.65195e-06 -5.29257e-26)
(0.00631645 -7.65085e-06 -3.04192e-24)
(0.00631076 -7.58807e-06 1.04976e-24)
(0.00630542 -7.47815e-06 -1.506e-24)
(0.00630045 -7.31143e-06 1.62196e-24)
(0.00629586 -7.07764e-06 2.06633e-24)
(0.0062917 -6.76758e-06 9.47871e-25)
(0.006288 -6.38534e-06 -1.00598e-24)
(0.00628478 -5.94519e-06 2.86465e-25)
(0.00628207 -5.46375e-06 -1.23832e-25)
(0.00627988 -4.94814e-06 5.99435e-25)
(0.0062782 -4.40177e-06 -3.47539e-25)
(0.00627706 -3.82737e-06 1.87685e-25)
(0.00627643 -3.22875e-06 -3.19391e-25)
(0.00508139 -5.4015e-06 -8.69592e-25)
(0.00507527 -5.51239e-06 -1.0532e-24)
(0.00506934 -5.56872e-06 -3.49164e-26)
(0.00506359 -5.57439e-06 2.50399e-24)
(0.00505805 -5.5454e-06 -1.51333e-24)
(0.00505274 -5.47473e-06 -9.81133e-26)
(0.00504769 -5.35417e-06 1.85381e-24)
(0.00504296 -5.17659e-06 -1.89521e-25)
(0.00503857 -4.94421e-06 -3.6966e-25)
(0.00503459 -4.66676e-06 -1.80402e-25)
(0.00503102 -4.35561e-06 3.47177e-25)
(0.00502789 -4.01578e-06 -5.00445e-25)
(0.00502521 -3.65026e-06 8.6386e-26)
(0.005023 -3.26081e-06 3.60175e-25)
(0.00502126 -2.84942e-06 -2.77778e-25)
(0.00394574 -3.56814e-06 -1.90577e-25)
(0.00394013 -3.68048e-06 2.32154e-26)
(0.00393456 -3.74822e-06 1.244e-24)
(0.00392905 -3.77772e-06 6.51976e-25)
(0.00392364 -3.78439e-06 -6.51745e-25)
(0.00391835 -3.76353e-06 -1.13248e-24)
(0.00391323 -3.70925e-06 3.29287e-25)
(0.00390831 -3.61629e-06 -1.08145e-24)
(0.00390366 -3.48535e-06 7.77516e-25)
(0.00389931 -3.32253e-06 2.7838e-26)
(0.0038953 -3.13512e-06 -2.55025e-25)
(0.00389164 -2.92645e-06 3.07795e-25)
(0.00388836 -2.69854e-06 -1.55991e-25)
(0.00388548 -2.45233e-06 2.24909e-25)
(0.00388301 -2.18884e-06 -1.42062e-25)
(0.00291412 -2.10903e-06 -3.5178e-25)
(0.0029093 -2.20386e-06 2.97575e-26)
(0.00290441 -2.26029e-06 1.01611e-24)
(0.00289951 -2.29036e-06 -6.26332e-25)
(0.00289463 -2.30671e-06 2.06323e-24)
(0.0028898 -2.3067e-06 -3.54838e-24)
(0.00288505 -2.28674e-06 2.42659e-24)
(0.00288044 -2.24336e-06 -1.6048e-24)
(0.002876 -2.1765e-06 8.08566e-25)
(0.00287177 -2.08951e-06 -2.36595e-25)
(0.0028678 -1.98671e-06 3.63124e-26)
(0.00286411 -1.87011e-06 -1.68708e-26)
(0.00286071 -1.74101e-06 -1.31209e-25)
(0.00285764 -1.59972e-06 1.88322e-25)
(0.0028549 -1.44651e-06 -5.85343e-26)
(0.00197876 -1.03865e-06 5.3504e-25)
(0.00197499 -1.10811e-06 5.06605e-25)
(0.00197112 -1.14691e-06 -2.21924e-24)
(0.0019672 -1.16954e-06 1.5312e-24)
(0.00196326 -1.18385e-06 -5.10898e-26)
(0.00195933 -1.1888e-06 2.41417e-25)
(0.00195542 -1.18293e-06 -3.83253e-25)
(0.00195158 -1.1646e-06 -4.85338e-25)
(0.00194784 -1.13381e-06 3.89285e-25)
(0.00194425 -1.09225e-06 -5.69651e-26)
(0.00194083 -1.04231e-06 8.62961e-26)
(0.00193761 -9.85182e-07 -2.00523e-26)
(0.0019346 -9.21747e-07 -1.27048e-25)
(0.00193182 -8.52093e-07 6.56001e-27)
(0.0019293 -7.75495e-07 3.93318e-26)
(0.00113206 -3.4955e-07 -5.41101e-25)
(0.0011296 -3.64889e-07 1.58398e-24)
(0.00112704 -3.72501e-07 7.78535e-25)
(0.00112444 -3.78591e-07 -1.56569e-24)
(0.0011218 -3.83723e-07 -1.75035e-25)
(0.00111915 -3.86625e-07 -1.24979e-25)
(0.0011165 -3.86594e-07 2.90686e-25)
(0.00111388 -3.83019e-07 -4.21685e-25)
(0.00111131 -3.75864e-07 3.58348e-25)
(0.00110881 -3.65671e-07 -1.81468e-25)
(0.00110642 -3.53356e-07 3.19813e-26)
(0.00110413 -3.39412e-07 -6.55801e-26)
(0.00110198 -3.24307e-07 2.66251e-25)
(0.00109997 -3.08034e-07 -3.2602e-25)
(0.00109812 -2.87793e-07 8.53152e-26)
(0.000366779 -1.03409e-08 -3.8872e-27)
(0.000365801 7.46857e-08 3.03458e-25)
(0.000364789 1.32148e-07 2.99673e-25)
(0.000363762 1.65958e-07 -5.12682e-25)
(0.000362725 1.81405e-07 8.44844e-25)
(0.000361681 1.82704e-07 -9.27079e-25)
(0.000360636 1.73137e-07 4.24135e-26)
(0.000359598 1.55484e-07 2.60531e-25)
(0.000358576 1.32086e-07 -3.4922e-25)
(0.000357579 1.04878e-07 2.62958e-26)
(0.000356615 7.53615e-08 -4.89615e-26)
(0.000355692 4.47956e-08 5.22145e-26)
(0.000354813 1.41342e-08 9.87825e-26)
(0.000353987 -1.57548e-08 -9.42879e-26)
(0.000353217 -4.23526e-08 7.10264e-27)
(0.000974337 -0.000255897 8.34607e-26)
(0.00111669 -0.000173513 2.1168e-24)
(0.00135601 -9.11413e-05 -6.05892e-24)
(0.00160049 -2.77448e-05 8.75981e-24)
(0.00183464 1.85013e-05 -3.28337e-24)
(0.0020632 4.85186e-05 -3.13296e-24)
(0.00228572 6.52462e-05 3.54715e-24)
(0.00250249 7.11112e-05 -6.95793e-24)
(0.00271405 6.83375e-05 4.88737e-25)
(0.00292097 5.88901e-05 4.32469e-24)
(0.00312385 4.45239e-05 -8.03615e-25)
(0.00332326 2.68261e-05 8.44613e-25)
(0.00351981 7.38891e-06 -9.5085e-26)
(0.00371411 -1.21835e-05 4.52672e-25)
(0.00390695 -2.99677e-05 -1.64344e-24)
(0.00409939 -4.36644e-05 8.73963e-25)
(0.00429339 -5.04721e-05 -2.18123e-25)
(0.0044915 -4.71049e-05 3.90776e-26)
(0.00469879 -3.05166e-05 4.14327e-25)
(0.00492075 2.3382e-06 -2.4861e-25)
(0.0051661 5.06048e-05 3.00966e-26)
(0.00544176 0.000110635 -2.74473e-26)
(0.00572721 0.000166203 6.73305e-26)
(0.00598443 0.00019862 3.11966e-25)
(0.00619966 0.000204118 -5.56743e-25)
(0.00637227 0.000185503 -4.62522e-25)
(0.00650344 0.000145212 -3.85525e-26)
(0.00659529 8.49228e-05 1.23365e-24)
(0.00664903 6.36038e-06 1.94125e-24)
(0.00666459 -8.81193e-05 -3.81868e-24)
(0.00664092 -0.000194768 3.55195e-24)
(0.00657664 -0.000308135 -3.39741e-24)
(0.00647061 -0.000421136 9.40746e-25)
(0.00632242 -0.000525386 -8.94906e-27)
(0.00613255 -0.000611593 -4.4609e-26)
(0.00590233 -0.000669819 4.11834e-24)
(0.00563369 -0.000689426 -5.19899e-25)
(0.00532903 -0.000658452 1.86007e-24)
(0.00499127 -0.000562121 1.27323e-24)
(0.00462455 -0.000380749 -8.62387e-24)
(0.00423401 -8.99376e-05 -1.11685e-25)
(0.00382753 0.000330148 4.09216e-24)
(0.00339909 0.000860746 1.47489e-24)
(0.00297234 0.00139934 -5.90625e-24)
(0.00273483 0.00160636 -3.04086e-25)
(0.00183566 -0.000341903 -2.43778e-24)
(0.00189505 -0.000296728 -3.39554e-24)
(0.00204262 -0.000217617 7.14374e-24)
(0.00222793 -0.000146315 3.2898e-24)
(0.00242418 -8.87549e-05 -1.14938e-23)
(0.00262599 -4.71205e-05 1.22161e-23)
(0.00282854 -1.96228e-05 -4.37239e-24)
(0.00302946 -4.08852e-06 3.43079e-24)
(0.00322784 1.72082e-06 -4.53519e-24)
(0.0034233 -1.44948e-07 5.93023e-26)
(0.0036158 -7.81918e-06 -2.28451e-24)
(0.00380554 -1.96072e-05 4.48408e-24)
(0.00399281 -3.38032e-05 -2.40823e-24)
(0.00417797 -4.87447e-05 -1.94274e-24)
(0.00436162 -6.24498e-05 -1.04808e-24)
(0.00454462 -7.26263e-05 2.37957e-24)
(0.00472871 -7.64998e-05 -1.64188e-25)
(0.00491616 -7.08751e-05 9.28e-25)
(0.00511174 -5.27865e-05 8.73229e-26)
(0.00532054 -1.92492e-05 -2.29602e-25)
(0.00555109 2.89411e-05 -8.79118e-26)
(0.00581041 8.85433e-05 -6.41463e-26)
(0.0060803 0.000144061 3.55341e-25)
(0.0063255 0.000177438 5.60117e-25)
(0.00653281 0.000184935 -4.02155e-25)
(0.00670112 0.000169241 -2.65095e-24)
(0.00683087 0.000132738 3.75501e-24)
(0.00692352 7.71661e-05 -2.81008e-24)
(0.0069798 4.47472e-06 9.66096e-25)
(0.0069994 -8.28008e-05 -6.90869e-25)
(0.00698129 -0.000180679 5.2362e-24)
(0.00692424 -0.000283636 -7.13603e-24)
(0.00682746 -0.000384613 3.70796e-24)
(0.006691 -0.000475336 -9.66781e-25)
(0.00651596 -0.00054667 -1.64693e-24)
(0.00630452 -0.000588844 6.69064e-25)
(0.00605991 -0.000591404 8.38973e-24)
(0.00578642 -0.000542696 -1.78841e-24)
(0.00548996 -0.00042867 -7.77275e-24)
(0.00517962 -0.000231067 -5.27778e-24)
(0.00486956 7.25828e-05 1.20685e-23)
(0.00458411 0.000500825 -1.20784e-23)
(0.00435084 0.0010338 -2.95191e-24)
(0.00421561 0.00155688 8.1392e-24)
(0.00423079 0.00169691 2.69047e-24)
(0.00285078 -0.000350886 -2.76307e-26)
(0.00286004 -0.000348492 -3.87947e-24)
(0.00292253 -0.000303195 7.53967e-24)
(0.00303866 -0.000242691 6.30941e-24)
(0.00318202 -0.000185265 -1.0318e-23)
(0.00334301 -0.000138346 2.14631e-25)
(0.00351366 -0.000103518 9.84774e-25)
(0.00368892 -8.01251e-05 1.05545e-23)
(0.00386594 -6.66378e-05 -1.24716e-23)
(0.00404305 -6.13265e-05 7.52032e-24)
(0.0042193 -6.24295e-05 2.09778e-24)
(0.00439423 -6.82514e-05 -1.19582e-23)
(0.00456764 -7.71075e-05 4.29302e-24)
(0.00473954 -8.72609e-05 1.57567e-24)
(0.00491023 -9.67184e-05 -2.96996e-24)
(0.00508028 -0.000103212 4.48625e-24)
(0.00525116 -0.00010401 -2.91006e-24)
(0.00542477 -9.60189e-05 4.62748e-26)
(0.00560558 -7.63642e-05 2.28426e-25)
(0.00579819 -4.21228e-05 1.79753e-25)
(0.00601088 5.95995e-06 1.50383e-26)
(0.00625071 6.50496e-05 9.44906e-26)
(0.00650202 0.000120401 -3.69615e-25)
(0.00673258 0.00015462 1.18864e-24)
(0.00692983 0.000163999 -2.10765e-24)
(0.00709216 0.000151151 1.25538e-24)
(0.0072192 0.000118413 -3.46058e-24)
(0.00731169 6.75802e-05 4.68459e-24)
(0.00736987 7.9047e-07 -4.75201e-24)
(0.00739318 -7.91328e-05 3.04684e-26)
(0.00738057 -0.000168083 -1.43191e-25)
(0.00733101 -0.000260447 8.30271e-24)
(0.00724407 -0.000349212 -2.73449e-24)
(0.00712029 -0.000426262 -4.37554e-25)
(0.00696146 -0.000482724 -2.05698e-24)
(0.00677068 -0.000509186 7.49713e-24)
(0.0065525 -0.000495725 -6.08453e-24)
(0.00631316 -0.000431604 1.19655e-23)
(0.00606143 -0.000304619 -2.3797e-23)
(0.00581063 -0.000100187 9.28487e-24)
(0.00558128 0.000197655 3.45788e-24)
(0.0054058 0.000598146 5.75628e-24)
(0.00532192 0.00107283 -7.16202e-24)
(0.00535874 0.00150604 2.06762e-24)
(0.00549852 0.00160464 -1.25843e-24)
(0.00399877 -0.000333853 -1.02976e-24)
(0.00398026 -0.000358124 -1.56136e-24)
(0.00399092 -0.000342817 -6.6373e-24)
(0.00404055 -0.000306414 1.84004e-24)
(0.00412655 -0.000260071 1.22426e-24)
(0.00423777 -0.000216181 5.24538e-24)
(0.00436652 -0.000179567 -1.0901e-23)
(0.00450652 -0.000151896 4.1959e-24)
(0.00465351 -0.000132965 1.36613e-23)
(0.00480453 -0.000121847 -3.68542e-24)
(0.00495764 -0.00011719 -3.34586e-24)
(0.0051116 -0.000117512 -5.12533e-25)
(0.00526559 -0.000121244 1.57307e-24)
(0.00541918 -0.000126689 -2.9551e-24)
(0.00557225 -0.000131895 7.29035e-25)
(0.00572502 -0.000134655 -1.29491e-25)
(0.00587862 -0.000132314 -9.35687e-25)
(0.00603454 -0.0001219 5.32371e-25)
(0.00619688 -0.00010066 1.47334e-24)
(0.0063697 -6.57398e-05 -1.80722e-25)
(0.00656095 -1.78551e-05 -2.89789e-25)
(0.00677768 4.05582e-05 -9.36248e-26)
(0.00700693 9.55463e-05 -6.52325e-25)
(0.0072198 0.000130419 -1.61775e-25)
(0.00740444 0.000141512 -2.07267e-24)
(0.00755867 0.000131398 3.34634e-24)
(0.00768132 0.000102381 -3.44181e-24)
(0.00777235 5.63113e-05 6.78163e-24)
(0.00783149 -4.4799e-06 -6.2381e-24)
(0.00785789 -7.69324e-05 1.3436e-24)
(0.0078505 -0.000156806 2.84445e-24)
(0.00780849 -0.000238448 -7.62922e-26)
(0.0077318 -0.000314955 -2.16916e-25)
(0.0076215 -0.000378475 -2.83288e-25)
(0.00748007 -0.000420557 -1.05247e-25)
(0.00731152 -0.000432414 -2.61884e-24)
(0.00712161 -0.00040507 1.42494e-23)
(0.00691828 -0.000329351 -7.37376e-24)
(0.00671241 -0.000195865 6.73056e-26)