/*--------------------------------*- C++ -*----------------------------------*\
| =========                 |                                                 |
| \\      /  F ield         | OpenFOAM: The Open Source CFD Toolbox           |
|  \\    /   O peration     | Version:  2312                                  |
|   \\  /    A nd           | Website:  www.openfoam.com                      |
|    \\/     M anipulation  |                                                 |
\*---------------------------------------------------------------------------*/
FoamFile
{
    version     2.0;
    format      ascii;
    arch        "LSB;label=32;scalar=64";
    class       surfaceScalarField;
    location    "185.25";
    object      phi;
}
// * * * * * * * * * * * * * * * * * * * * * * * * * * * * * * * * * * * * * //

dimensions      [0 3 -1 0 0 0 0];

oriented        oriented;

internalField   nonuniform List<scalar> 
9445
(
6.07659e-10
9.87388e-12
6.02036e-10
5.62304e-12
5.99059e-10
2.97695e-12
5.97892e-10
1.16752e-12
5.98097e-10
-2.05291e-13
5.9951e-10
-1.41277e-12
6.01948e-10
-2.43826e-12
6.05441e-10
-3.4925e-12
6.10259e-10
-4.81783e-12
6.16819e-10
-6.56082e-12
6.26271e-10
-9.45173e-12
6.42301e-10
-1.60298e-11
6.78018e-10
-3.57169e-11
7.80138e-10
-1.0212e-10
-2.66688e-10
1.04683e-09
2.12209e-09
4.43495e-11
2.10168e-09
2.60285e-11
2.09015e-09
1.45134e-11
2.08471e-09
6.60566e-12
2.08392e-09
5.83787e-13
2.08703e-09
-4.5278e-12
2.09351e-09
-8.91597e-12
2.10347e-09
-1.34549e-11
2.11756e-09
-1.89046e-11
2.13701e-09
-2.60115e-11
2.16477e-09
-3.72145e-11
2.208e-09
-5.92575e-11
2.28066e-09
-1.08378e-10
2.39649e-09
-2.17948e-10
-3.89279e-10
2.51908e-09
4.18791e-09
1.11645e-10
4.14694e-09
6.69932e-11
4.12272e-09
3.87389e-11
4.11004e-09
1.92833e-11
4.1062e-09
4.42027e-12
4.10951e-09
-7.83687e-12
4.11899e-09
-1.83902e-11
4.13477e-09
-2.92379e-11
4.15758e-09
-4.17114e-11
4.18889e-09
-5.73209e-11
4.2317e-09
-8.00261e-11
4.29085e-09
-1.18411e-10
4.36924e-09
-1.86769e-10
4.45259e-09
-3.013e-10
-4.38924e-10
4.50224e-09
6.95419e-09
2.2078e-10
6.88594e-09
1.35241e-10
6.84391e-09
8.07665e-11
6.82007e-09
4.31206e-11
6.8101e-09
1.44001e-11
6.81111e-09
-8.85049e-12
6.82153e-09
-2.88095e-11
6.84107e-09
-4.87797e-11
6.87021e-09
-7.08508e-11
6.90968e-09
-9.67916e-11
6.96075e-09
-1.31096e-10
7.02317e-09
-1.80826e-10
7.09021e-09
-2.53809e-10
7.14086e-09
-3.5195e-10
-4.49136e-10
7.15107e-09
1.05998e-08
3.80101e-10
1.04974e-08
2.37614e-10
1.04319e-08
1.46224e-10
1.03923e-08
8.27699e-11
1.0372e-08
3.46668e-11
1.03673e-08
-4.13969e-12
1.03756e-08
-3.70848e-11
1.03954e-08
-6.85747e-11
1.04266e-08
-1.02041e-10
1.04684e-08
-1.38652e-10
1.05196e-08
-1.82272e-10
1.05755e-08
-2.36699e-10
1.06252e-08
-3.03543e-10
1.0651e-08
-3.77791e-10
-4.40126e-10
1.0642e-08
1.53336e-08
5.9422e-10
1.51921e-08
3.7916e-10
1.50983e-08
2.40019e-10
1.50382e-08
1.42819e-10
1.50034e-08
6.95101e-11
1.49886e-08
1.06661e-11
1.49904e-08
-3.88907e-11
1.5006e-08
-8.4222e-11
1.50336e-08
-1.29649e-10
1.50711e-08
-1.76066e-10
1.51145e-08
-2.2572e-10
1.51572e-08
-2.79387e-10
1.51887e-08
-3.35088e-10
1.51977e-08
-3.86787e-10
-4.23519e-10
1.51811e-08
2.13913e-08
8.58766e-10
2.12108e-08
5.5964e-10
2.10869e-08
3.63908e-10
2.10036e-08
2.26074e-10
2.09509e-08
1.22282e-10
2.09221e-08
3.94659e-11
2.09127e-08
-2.95689e-11
2.0919e-08
-9.05221e-11
2.09372e-08
-1.478e-10
2.09635e-08
-2.02398e-10
2.09929e-08
-2.55052e-10
2.10184e-08
-3.04893e-10
2.10325e-08
-3.49178e-10
2.10294e-08
-3.83728e-10
-4.03784e-10
2.10097e-08
2.90258e-08
1.15323e-09
2.88171e-08
7.68338e-10
2.86684e-08
5.12643e-10
2.85639e-08
3.30623e-10
2.8493e-08
1.93178e-10
2.84484e-08
8.40283e-11
2.84248e-08
-5.97858e-12
2.84174e-08
-8.30677e-11
2.84211e-08
-1.5156e-10
2.84313e-08
-2.12553e-10
2.84424e-08
-2.66188e-10
2.8449e-08
-3.11493e-10
2.84466e-08
-3.46734e-10
2.8433e-08
-3.70201e-10
-3.80827e-10
2.84101e-08
3.84962e-08
1.43484e-09
3.82859e-08
9.7864e-10
3.81291e-08
6.69426e-10
3.80137e-08
4.46041e-10
3.79307e-08
2.76136e-10
3.78734e-08
1.41375e-10
3.78361e-08
3.12968e-11
3.78136e-08
-6.05739e-11
3.78009e-08
-1.388e-10
3.77928e-08
-2.04455e-10
3.77847e-08
-2.58122e-10
3.77729e-08
-2.99732e-10
3.77553e-08
-3.29129e-10
3.77318e-08
-3.4662e-10
-3.53071e-10
3.7704e-08
5.00634e-08
1.64119e-09
4.9895e-08
1.14712e-09
4.97607e-08
8.0369e-10
4.9656e-08
5.50778e-10
4.95759e-08
3.56152e-10
4.9516e-08
2.01308e-10
4.94718e-08
7.55514e-11
4.94383e-08
-2.71383e-11
4.94118e-08
-1.12275e-10
4.93879e-08
-1.80588e-10
4.93636e-08
-2.33758e-10
4.93367e-08
-2.72901e-10
4.93068e-08
-2.99239e-10
4.92746e-08
-3.14356e-10
-3.20009e-10
4.92415e-08
6.4019e-08
1.71175e-09
6.39411e-08
1.22503e-09
6.38676e-08
8.77174e-10
6.38032e-08
6.15167e-10
6.37489e-08
4.10449e-10
6.37037e-08
2.46528e-10
6.36656e-08
1.13715e-10
6.3632e-08
6.4033e-12
6.36001e-08
-8.0392e-11
6.35683e-08
-1.48737e-10
6.35349e-08
-2.00344e-10
6.34995e-08
-2.37539e-10
6.34627e-08
-2.62385e-10
6.34254e-08
-2.77065e-10
-2.83622e-10
6.3389e-08
8.07629e-08
1.6255e-09
8.08029e-08
1.18503e-09
8.08174e-08
8.6264e-10
8.08181e-08
6.14541e-10
8.08108e-08
4.17706e-10
8.07984e-08
2.58918e-10
8.07819e-08
1.30213e-10
8.07616e-08
2.67466e-11
8.07367e-08
-5.54751e-11
8.07079e-08
-1.19995e-10
8.06756e-08
-1.68075e-10
8.06407e-08
-2.02628e-10
8.06044e-08
-2.26052e-10
8.0568e-08
-2.40631e-10
-2.48339e-10
8.05327e-08
1.00891e-07
1.42179e-09
1.01031e-07
1.04491e-09
1.01128e-07
7.65675e-10
1.01195e-07
5.47823e-10
1.01239e-07
3.73299e-10
1.01266e-07
2.31896e-10
1.01279e-07
1.17409e-10
1.0128e-07
2.57596e-11
1.01271e-07
-4.65773e-11
1.01254e-07
-1.03238e-10
1.01232e-07
-1.45451e-10
1.01205e-07
-1.75884e-10
1.01176e-07
-1.96953e-10
1.01146e-07
-2.10717e-10
-2.1888e-10
1.01116e-07
1.2517e-07
1.17029e-09
1.25359e-07
8.56232e-10
1.25501e-07
6.23687e-10
1.25607e-07
4.41824e-10
1.25684e-07
2.96003e-10
1.25738e-07
1.78094e-10
1.25772e-07
8.30868e-11
1.25791e-07
7.58889e-12
1.25796e-07
-5.18642e-11
1.25791e-07
-9.87704e-11
1.25779e-07
-1.3344e-10
1.25762e-07
-1.5876e-10
1.25742e-07
-1.76642e-10
1.2572e-07
-1.88786e-10
-1.96557e-10
1.25698e-07
1.54346e-07
9.19745e-10
1.54538e-07
6.63913e-10
1.54686e-07
4.75922e-10
1.54798e-07
3.29802e-10
1.54881e-07
2.13288e-10
1.5494e-07
1.19526e-10
1.54978e-07
4.43196e-11
1.55e-07
-1.37971e-11
1.55009e-07
-6.15755e-11
1.55009e-07
-9.8291e-11
1.55001e-07
-1.25631e-10
1.54988e-07
-1.45835e-10
1.54972e-07
-1.60426e-10
1.54954e-07
-1.70706e-10
-1.77693e-10
1.54935e-07
1.88915e-07
6.84401e-10
1.89094e-07
4.85192e-10
1.89229e-07
3.40655e-10
1.89329e-07
2.29281e-10
1.89401e-07
1.41194e-10
1.8945e-07
7.06206e-11
1.8948e-07
1.42942e-11
1.89497e-07
-3.00642e-11
1.89501e-07
-6.56385e-11
1.89496e-07
-9.34827e-11
1.89485e-07
-1.14558e-10
1.89469e-07
-1.30347e-10
1.89451e-07
-1.42067e-10
1.89431e-07
-1.50658e-10
-1.56827e-10
1.8941e-07
2.28987e-07
4.63786e-10
2.29151e-07
3.21295e-10
2.29272e-07
2.19966e-10
2.29358e-07
1.43057e-10
2.29416e-07
8.24481e-11
2.29453e-07
3.38723e-11
2.29473e-07
-5.07208e-12
2.29479e-07
-3.6308e-11
2.29475e-07
-6.1601e-11
2.29463e-07
-8.14594e-11
2.29445e-07
-9.69344e-11
2.29424e-07
-1.08893e-10
2.294e-07
-1.18037e-10
2.29374e-07
-1.25017e-10
-1.30268e-10
2.29347e-07
2.7411e-07
2.60925e-10
2.74257e-07
1.74699e-10
2.74362e-07
1.14518e-10
2.74435e-07
7.03985e-11
2.74481e-07
3.58617e-11
2.74507e-07
8.25841e-12
2.74517e-07
-1.4557e-11
2.74514e-07
-3.38318e-11
2.74502e-07
-4.93752e-11
2.74482e-07
-6.19457e-11
2.74458e-07
-7.21925e-11
2.74429e-07
-8.04841e-11
2.74398e-07
-8.70069e-11
2.74365e-07
-9.21207e-11
-9.60991e-11
2.74331e-07
3.2282e-07
8.42848e-11
3.22944e-07
5.13325e-11
3.23029e-07
2.90771e-11
3.23086e-07
1.40135e-11
3.23121e-07
2.75242e-13
3.23137e-07
-7.28024e-12
3.23139e-07
-1.63909e-11
3.23129e-07
-2.45219e-11
3.2311e-07
-2.98239e-11
3.23084e-07
-3.58722e-11
3.23053e-07
-4.11895e-11
3.23017e-07
-4.52121e-11
3.2298e-07
-4.91634e-11
3.22939e-07
-5.13476e-11
-5.34126e-11
3.22896e-07
3.71996e-07
-6.90298e-11
3.72104e-07
-5.65278e-11
3.72177e-07
-4.4169e-11
3.72225e-07
-3.43128e-11
3.72252e-07
-2.59669e-11
3.72262e-07
-1.76661e-11
3.72262e-07
-1.62948e-11
3.72252e-07
-1.43999e-11
3.72234e-07
-1.22107e-11
3.72208e-07
-9.91267e-12
3.72175e-07
-8.27169e-12
3.72138e-07
-7.52456e-12
3.72095e-07
-6.85601e-12
3.7205e-07
-6.10225e-12
-5.24588e-12
3.72002e-07
3.69557e-07
-1.63477e-10
3.69623e-07
-1.22609e-10
3.69667e-07
-8.79568e-11
3.69693e-07
-6.06116e-11
3.69705e-07
-3.79116e-11
3.69706e-07
-1.9059e-11
3.69694e-07
-4.25841e-12
3.69673e-07
6.86564e-12
3.69645e-07
1.58004e-11
3.69612e-07
2.30502e-11
3.69575e-07
2.91955e-11
3.69533e-07
3.45082e-11
3.69487e-07
3.91961e-11
3.69437e-07
4.34678e-11
4.74453e-11
3.69384e-07
3.16188e-07
-2.04516e-10
3.16216e-07
-1.50893e-10
3.16235e-07
-1.06575e-10
3.16245e-07
-7.01376e-11
3.16247e-07
-4.06029e-11
3.16244e-07
-1.59957e-11
3.16236e-07
4.27194e-12
3.16222e-07
2.06605e-11
3.16203e-07
3.42135e-11
3.16181e-07
4.57128e-11
3.16154e-07
5.57618e-11
3.16124e-07
6.47372e-11
3.1609e-07
7.28831e-11
3.16053e-07
8.03533e-11
8.73496e-11
3.16014e-07
2.64801e-07
-2.05368e-10
2.64797e-07
-1.47815e-10
2.64792e-07
-1.01529e-10
2.64784e-07
-6.16461e-11
2.64773e-07
-2.99483e-11
2.64759e-07
-2.00663e-12
2.64743e-07
2.0622e-11
2.64724e-07
3.96325e-11
2.64702e-07
5.5844e-11
2.64678e-07
6.99877e-11
2.64651e-07
8.25245e-11
2.64622e-07
9.38695e-11
2.64591e-07
1.04278e-10
2.64557e-07
1.13968e-10
1.22991e-10
2.64522e-07
2.18014e-07
-1.79027e-10
2.17991e-07
-1.25047e-10
2.1797e-07
-7.99854e-11
2.1795e-07
-4.25735e-11
2.17931e-07
-1.04216e-11
2.17912e-07
1.66327e-11
2.17893e-07
3.95104e-11
2.17874e-07
5.91978e-11
2.17853e-07
7.64044e-11
2.17832e-07
9.16797e-11
2.17809e-07
1.05383e-10
2.17785e-07
1.1785e-10
2.1776e-07
1.29337e-10
2.17734e-07
1.40004e-10
1.4995e-10
2.17707e-07
1.76941e-07
-1.37691e-10
1.76907e-07
-9.09296e-11
1.76879e-07
-5.16517e-11
1.76855e-07
-1.85472e-11
1.76834e-07
1.02195e-11
1.76816e-07
3.4803e-11
1.76799e-07
5.6079e-11
1.76784e-07
7.47139e-11
1.76769e-07
9.12568e-11
1.76754e-07
1.06104e-10
1.7674e-07
1.19555e-10
1.76726e-07
1.31858e-10
1.76712e-07
1.43216e-10
1.76699e-07
1.53769e-10
1.63606e-10
1.76685e-07
1.41828e-07
-9.46761e-11
1.41795e-07
-5.7314e-11
1.41769e-07
-2.56805e-11
1.41749e-07
1.45273e-12
1.41734e-07
2.53542e-11
1.41722e-07
4.63413e-11
1.41713e-07
6.47505e-11
1.41707e-07
8.10669e-11
1.41703e-07
9.5724e-11
1.417e-07
1.09015e-10
1.41698e-07
1.21159e-10
1.41698e-07
1.32327e-10
1.41698e-07
1.42658e-10
1.417e-07
1.52241e-10
1.61134e-10
1.41702e-07
1.12436e-07
-6.04043e-11
1.12412e-07
-3.2506e-11
1.12395e-07
-8.83761e-12
1.12385e-07
1.17755e-11
1.12379e-07
3.06234e-11
1.12378e-07
4.76375e-11
1.1238e-07
6.26726e-11
1.12385e-07
7.60787e-11
1.12392e-07
8.82638e-11
1.12402e-07
9.94301e-11
1.12414e-07
1.09713e-10
1.12427e-07
1.19217e-10
1.12441e-07
1.2802e-10
1.12457e-07
1.36173e-10
1.43717e-10
1.12475e-07
8.82475e-08
-3.87867e-11
8.82341e-08
-1.91914e-11
8.8228e-08
-2.6554e-12
8.82277e-08
1.19925e-11
8.82322e-08
2.61563e-11
8.82404e-08
3.94418e-11
8.82519e-08
5.12014e-11
8.82663e-08
6.16501e-11
8.82833e-08
7.12945e-11
8.83025e-08
8.02363e-11
8.83236e-08
8.85453e-11
8.83466e-08
9.6273e-11
8.83711e-08
1.0346e-10
8.83972e-08
1.10128e-10
1.16299e-10
8.84246e-08
6.86044e-08
-2.82875e-11
6.86009e-08
-1.561e-11
6.86029e-08
-4.74137e-12
6.8609e-08
5.9104e-12
6.8619e-08
1.61958e-11
6.86329e-08
2.55135e-11
6.865e-08
3.41101e-11
6.86695e-08
4.21268e-11
6.86913e-08
4.95675e-11
6.8715e-08
5.65197e-11
6.87405e-08
6.30428e-11
6.87676e-08
6.91645e-11
6.87961e-08
7.49029e-11
6.8826e-08
8.02621e-11
8.52513e-11
6.88571e-08
5.28182e-08
-2.5023e-11
5.28196e-08
-1.70071e-11
5.28247e-08
-9.84958e-12
5.28335e-08
-2.88796e-12
5.28458e-08
3.87327e-12
5.2861e-08
1.03171e-11
5.28786e-08
1.65684e-11
5.28982e-08
2.24901e-11
5.29197e-08
2.80674e-11
5.29429e-08
3.3352e-11
5.29675e-08
3.83783e-11
5.29935e-08
4.31605e-11
5.30207e-08
4.77027e-11
5.3049e-08
5.19989e-11
5.60529e-11
5.30782e-08
4.02364e-08
-2.44749e-11
4.02388e-08
-1.94741e-11
4.02441e-08
-1.50906e-11
4.02523e-08
-1.10895e-11
4.0263e-08
-6.85341e-12
4.02758e-08
-2.43125e-12
4.02904e-08
1.97014e-12
4.03066e-08
6.21872e-12
4.03244e-08
1.03023e-11
4.03435e-08
1.42417e-11
4.03638e-08
1.80585e-11
4.03852e-08
2.176e-11
4.04076e-08
2.53403e-11
4.04308e-08
2.87886e-11
3.21064e-11
4.04547e-08
3.0281e-08
-2.38064e-11
3.02823e-08
-2.07931e-11
3.02856e-08
-1.83867e-11
3.02909e-08
-1.63857e-11
3.0298e-08
-1.3949e-11
3.03066e-08
-1.10122e-11
3.03165e-08
-7.99373e-12
3.03278e-08
-5.02631e-12
3.03402e-08
-2.10483e-12
3.03536e-08
7.69488e-13
3.03681e-08
3.61848e-12
3.03834e-08
6.4476e-12
3.03995e-08
9.24318e-12
3.04163e-08
1.19925e-11
1.46974e-11
3.04337e-08
2.24573e-08
-2.1763e-11
2.24567e-08
-2.01774e-11
2.24574e-08
-1.90728e-11
2.24592e-08
-1.81895e-11
2.24622e-08
-1.69132e-11
2.24663e-08
-1.51442e-11
2.24715e-08
-1.31638e-11
2.24776e-08
-1.11346e-11
2.24846e-08
-9.09684e-12
2.24924e-08
-7.05846e-12
2.2501e-08
-4.98645e-12
2.25103e-08
-2.8723e-12
2.25203e-08
-7.36306e-13
2.25309e-08
1.40775e-12
3.56494e-12
2.2542e-08
1.63517e-08
-1.83419e-11
1.63492e-08
-1.76602e-11
1.63475e-08
-1.73346e-11
1.63464e-08
-1.71189e-11
1.6346e-08
-1.65212e-11
1.63464e-08
-1.54858e-11
1.63475e-08
-1.42616e-11
1.63493e-08
-1.29641e-11
1.63518e-08
-1.16044e-11
1.63549e-08
-1.02076e-11
1.63587e-08
-8.75784e-12
1.63631e-08
-7.23563e-12
1.6368e-08
-5.66422e-12
1.63735e-08
-4.05946e-12
-2.40987e-12
1.63795e-08
1.1622e-08
-1.40695e-11
1.16183e-08
-1.39122e-11
1.16149e-08
-1.39728e-11
1.16119e-08
-1.4059e-11
1.16092e-08
-1.38463e-11
1.1607e-08
-1.33015e-11
1.16053e-08
-1.25897e-11
1.16042e-08
-1.18032e-11
1.16035e-08
-1.09575e-11
1.16034e-08
-1.00561e-11
1.16037e-08
-9.0846e-12
1.16045e-08
-8.05283e-12
1.16058e-08
-6.9684e-12
1.16076e-08
-5.83813e-12
-4.65364e-12
1.16099e-08
7.98793e-09
-9.63885e-12
7.98376e-09
-9.73539e-12
7.97971e-09
-9.9218e-12
7.97575e-09
-1.00993e-11
7.97197e-09
-1.00735e-11
7.96849e-09
-9.82102e-12
7.96535e-09
-9.44322e-12
7.96255e-09
-9.00487e-12
7.96011e-09
-8.51772e-12
7.95803e-09
-7.98118e-12
7.95634e-09
-7.38792e-12
7.95503e-09
-6.74675e-12
7.95412e-09
-6.06184e-12
7.95362e-09
-5.33246e-12
-4.5528e-12
7.95352e-09
5.22127e-09
-5.67537e-12
5.21738e-09
-5.84619e-12
5.21347e-09
-6.01157e-12
5.20954e-09
-6.16526e-12
5.20567e-09
-6.20317e-12
5.20196e-09
-6.10628e-12
5.19844e-09
-5.93044e-12
5.19515e-09
-5.71508e-12
5.1921e-09
-5.46766e-12
5.18931e-09
-5.18695e-12
5.18679e-09
-4.86912e-12
5.18456e-09
-4.51962e-12
5.18264e-09
-4.14069e-12
5.18104e-09
-3.72982e-12
-3.28083e-12
5.17977e-09
3.13756e-09
-2.61909e-12
3.13448e-09
-2.76061e-12
3.13132e-09
-2.84805e-12
3.12808e-09
-2.93275e-12
3.12485e-09
-2.96869e-12
3.12168e-09
-2.94159e-12
3.11863e-09
-2.87597e-12
3.11571e-09
-2.79099e-12
3.11293e-09
-2.69026e-12
3.11031e-09
-2.57291e-12
3.10788e-09
-2.43706e-12
3.10565e-09
-2.28534e-12
3.10363e-09
-2.1189e-12
3.10183e-09
-1.93538e-12
-1.72782e-12
3.10028e-09
1.58844e-09
-7.07195e-13
1.58646e-09
-7.76638e-13
1.58441e-09
-7.94198e-13
1.58229e-09
-8.15972e-13
1.58015e-09
-8.28325e-13
1.57803e-09
-8.24005e-13
1.57596e-09
-8.08984e-13
1.57396e-09
-7.88612e-13
1.57203e-09
-7.6381e-13
1.5702e-09
-7.34336e-13
1.56846e-09
-6.9951e-13
1.56683e-09
-6.60146e-13
1.56533e-09
-6.16733e-13
1.56396e-09
-5.68226e-13
-5.0864e-13
1.56274e-09
4.55267e-10
4.5449e-10
4.53696e-10
4.5288e-10
4.52052e-10
4.51228e-10
4.50419e-10
4.4963e-10
4.48866e-10
4.48132e-10
4.47432e-10
4.46772e-10
4.46155e-10
4.45587e-10
4.45078e-10
1.25128e-09
-5.21827e-10
3.17377e-10
1.54317e-09
-4.63233e-10
1.71336e-10
1.83656e-09
-3.40629e-10
4.72377e-11
2.12452e-09
-2.20118e-10
-6.78374e-11
2.40472e-09
-1.08511e-10
-1.7169e-10
2.67765e-09
-1.50486e-11
-2.57876e-10
2.94448e-09
5.7773e-11
-3.24605e-10
3.20625e-09
1.08098e-10
-3.69874e-10
3.46388e-09
1.34492e-10
-3.92116e-10
3.71807e-09
1.36122e-10
-3.90315e-10
3.96939e-09
1.12693e-10
-3.64013e-10
4.21825e-09
6.49551e-11
-3.13817e-10
4.46496e-09
-4.38546e-12
-2.42317e-10
4.70987e-09
-8.9265e-11
-1.55649e-10
4.95361e-09
-1.77523e-10
-6.62167e-11
5.19752e-09
-2.48228e-10
4.31604e-12
5.4442e-09
-2.66905e-10
2.02254e-11
5.69847e-09
-1.8366e-10
-7.06045e-11
5.96779e-09
6.94917e-11
-3.38819e-10
6.26311e-09
5.71981e-10
-8.67302e-10
6.59699e-09
1.37447e-09
-1.70834e-09
6.97798e-09
2.49322e-09
-2.87421e-09
7.34222e-09
3.14468e-09
-3.50892e-09
7.65397e-09
3.13143e-09
-3.44319e-09
7.90571e-09
2.73662e-09
-2.98836e-09
8.09574e-09
2.10313e-09
-2.29316e-09
8.22578e-09
1.33877e-09
-1.46881e-09
8.29824e-09
5.20882e-10
-5.93339e-10
8.31503e-09
-2.946e-10
2.77811e-10
8.27754e-09
-1.063e-09
1.10048e-09
8.18714e-09
-1.74566e-09
1.83606e-09
8.0457e-09
-2.30944e-09
2.45088e-09
7.8559e-09
-2.72823e-09
2.91803e-09
7.62122e-09
-2.98464e-09
3.21931e-09
7.34562e-09
-3.07053e-09
3.34614e-09
7.03304e-09
-2.98604e-09
3.29861e-09
6.68706e-09
-2.73724e-09
3.08322e-09
6.31072e-09
-2.3326e-09
2.70893e-09
5.90689e-09
-1.77849e-09
2.18232e-09
5.47824e-09
-1.07528e-09
1.50393e-09
5.02531e-09
-2.20802e-10
6.73736e-10
4.54109e-09
7.68737e-10
-2.84522e-10
4.01011e-09
1.79754e-09
-1.26656e-09
3.43994e-09
2.63141e-09
-2.06124e-09
2.61008e-09
3.10611e-09
-2.27626e-09
2.59995e-09
-6.02693e-10
2.7718e-09
-6.35082e-10
3.00519e-09
-5.74018e-10
3.26543e-09
-4.80359e-10
3.5373e-09
-3.80387e-10
3.81283e-09
-2.90575e-10
4.08849e-09
-2.17892e-10
4.36281e-09
-1.6622e-10
4.63521e-09
-1.37909e-10
4.90552e-09
-1.34186e-10
5.17373e-09
-1.55511e-10
5.43986e-09
-2.01176e-10
5.70398e-09
-2.68509e-10
5.96623e-09
-3.51519e-10
6.22714e-09
-4.38426e-10
6.48798e-09
-5.09072e-10
6.75142e-09
-5.30345e-10
7.02253e-09
-4.54773e-10
7.30932e-09
-2.17294e-10
7.62361e-09
2.57686e-10
7.97942e-09
1.01867e-09
8.38693e-09
2.08571e-09
8.77918e-09
2.75243e-09
9.11807e-09
2.79254e-09
9.39482e-09
2.45987e-09
9.60666e-09
1.89128e-09
9.75462e-09
1.19081e-09
9.84068e-09
4.34819e-10
9.86657e-09
-3.20488e-10
9.83372e-09
-1.03015e-09
9.74377e-09
-1.6557e-09
9.59908e-09
-2.16475e-09
9.40309e-09
-2.53224e-09
9.16029e-09
-2.74184e-09
8.87598e-09
-2.78622e-09
8.55591e-09
-2.66597e-09
8.20613e-09
-2.38746e-09
7.83326e-09
-1.95972e-09
7.44574e-09
-1.39097e-09
7.05598e-09
-6.85526e-10
6.68266e-09
1.52516e-10
6.35138e-09
1.10002e-09
6.09622e-09
2.05271e-09
5.96969e-09
2.75794e-09
2.68325e-09
5.89653e-09
4.51665e-09
-6.17099e-10
4.59222e-09
-7.10659e-10
4.73907e-09
-7.20864e-10
4.94056e-09
-6.81849e-10
5.17537e-09
-6.15198e-10
5.42994e-09
-5.45145e-10
5.69567e-09
-4.83627e-10
5.96756e-09
-4.38101e-10
6.24258e-09
-4.12938e-10
6.51894e-09
-4.10545e-10
6.7955e-09
-4.32071e-10
7.07152e-09
-4.77194e-10
7.3465e-09
-5.43488e-10
7.62018e-09
-6.252e-10
7.89277e-09
-7.11015e-10
8.16539e-09
-7.8169e-10
8.44064e-09
-8.05597e-10
8.72377e-09
-7.37907e-10
9.02325e-09
-5.16772e-10
9.35177e-09
-7.08297e-11
9.72485e-09
6.45584e-10
1.01545e-08
1.65603e-09
1.05716e-08
2.33532e-09
1.09359e-08
2.42827e-09
1.12371e-08
2.15871e-09
1.1471e-08
1.65739e-09
1.16376e-08
1.02412e-09
1.17385e-08
3.33985e-10
1.17749e-08
-3.56888e-10
1.17483e-08
-1.00357e-09
1.16607e-08
-1.56809e-09
1.1515e-08
-2.0191e-09
1.13157e-08
-2.33293e-09
1.10685e-08
-2.49463e-09
1.07804e-08
-2.49807e-09
1.04593e-08
-2.34488e-09
1.01143e-08
-2.04249e-09
9.75636e-09
-1.60176e-09
9.40006e-09
-1.03466e-09
9.06744e-09
-3.52903e-10
8.79192e-09
4.28029e-10
8.61925e-09
1.27269e-09
8.5925e-09
2.07945e-09
8.71106e-09
2.63938e-09
2.59891e-09
8.7954e-09
7.12914e-09
-5.9517e-10
7.13905e-09
-7.20573e-10
7.20268e-09
-7.84496e-10
7.32549e-09
-8.04653e-10
7.49828e-09
-7.87988e-10
7.70625e-09
-7.53113e-10
7.93845e-09
-7.15834e-10
8.18718e-09
-6.86825e-10
8.44687e-09
-6.7263e-10
8.71366e-09
-6.77335e-10
8.98486e-09
-7.03274e-10
9.25856e-09
-7.50894e-10
9.53338e-09
-8.18299e-10
9.80838e-09
-9.00206e-10
1.00833e-08
-9.85907e-10
1.03588e-08
-1.05725e-09
1.06375e-08
-1.08423e-09
1.09245e-08
-1.02491e-09
1.12287e-08
-8.20988e-10
1.15636e-08
-4.05711e-10
1.19462e-08
2.62909e-10
1.23907e-08
1.21158e-09
1.28269e-08
1.89915e-09
1.32127e-08
2.04246e-09
1.3536e-08
1.83538e-09
1.37909e-08
1.40246e-09
1.39762e-08
8.38821e-10
1.40924e-08
2.17848e-10
1.41403e-08
-4.04843e-10
1.41215e-08
-9.84765e-10
1.40383e-08
-1.48486e-09
1.38944e-08
-1.87519e-09
1.36953e-08
-2.13383e-09
1.34482e-08
-2.24761e-09
1.31622e-08
-2.21207e-09
1.28478e-08
-2.03041e-09
1.25172e-08
-1.71193e-09
1.21857e-08
-1.27028e-09
1.18734e-08
-7.22299e-10
1.16084e-08
-8.79623e-11
1.14303e-08
6.06121e-10
1.13867e-08
1.31631e-09
1.15096e-08
1.9566e-09
1.17673e-08
2.38163e-09
2.4055e-09
1.19607e-08
1.06045e-08
-5.57595e-10
1.05733e-08
-6.89399e-10
1.05752e-08
-7.86381e-10
1.06212e-08
-8.50643e-10
1.07162e-08
-8.83039e-10
1.08572e-08
-8.94061e-10
1.10323e-08
-8.91007e-10
1.12344e-08
-8.88861e-10
1.14564e-08
-8.94623e-10
1.16929e-08
-9.13822e-10
1.19396e-08
-9.50047e-10
1.21934e-08
-1.00472e-09
1.24518e-08
-1.07669e-09
1.2713e-08
-1.16138e-09
1.2976e-08
-1.24884e-09
1.32409e-08
-1.32221e-09
1.351e-08
-1.35328e-09
1.37883e-08
-1.30329e-09
1.40851e-08
-1.11777e-09
1.44144e-08
-7.34971e-10
1.47949e-08
-1.17605e-10
1.52427e-08
7.63833e-10
1.56885e-08
1.45332e-09
1.6089e-08
1.64197e-09
1.64298e-08
1.49458e-09
1.67027e-08
1.12952e-09
1.6905e-08
6.36584e-10
1.70358e-08
8.70107e-11
1.70956e-08
-4.64638e-10
1.70857e-08
-9.7486e-10
1.70088e-08
-1.40799e-09
1.68696e-08
-1.73595e-09
1.66747e-08
-1.93899e-09
1.64332e-08
-2.00612e-09
1.61561e-08
-1.93497e-09
1.58566e-08
-1.73083e-09
1.555e-08
-1.40539e-09
1.52552e-08
-9.75465e-10
1.49955e-08
-4.62528e-10
1.48005e-08
1.0695e-10
1.47069e-08
6.99759e-10
1.47518e-08
1.27143e-09
1.49504e-08
1.75797e-09
1.52594e-08
2.07267e-09
2.13072e-09
1.55341e-08
1.51404e-08
-5.1687e-10
1.50898e-08
-6.38792e-10
1.50517e-08
-7.48296e-10
1.504e-08
-8.38914e-10
1.50638e-08
-9.06815e-10
1.51277e-08
-9.57993e-10
1.52302e-08
-9.93521e-10
1.53654e-08
-1.02408e-09
1.55274e-08
-1.0566e-09
1.57107e-08
-1.09711e-09
1.59104e-08
-1.14976e-09
1.61224e-08
-1.21671e-09
1.63433e-08
-1.29756e-09
1.65703e-08
-1.38845e-09
1.68018e-08
-1.48035e-09
1.70375e-08
-1.55784e-09
1.72788e-08
-1.59462e-09
1.75309e-08
-1.55541e-09
1.78031e-08
-1.38992e-09
1.81097e-08
-1.04163e-09
1.84714e-08
-4.79245e-10
1.89059e-08
3.29278e-10
1.93475e-08
1.01179e-09
1.97519e-08
1.2375e-09
2.01022e-08
1.14433e-09
2.03873e-08
8.44359e-10
2.06025e-08
4.21379e-10
2.07456e-08
-5.60863e-11
2.08162e-08
-5.35171e-10
2.08153e-08
-9.74006e-10
2.07462e-08
-1.33889e-09
2.06144e-08
-1.60413e-09
2.0428e-08
-1.75255e-09
2.01976e-08
-1.77575e-09
1.99364e-08
-1.67379e-09
1.96599e-08
-1.45433e-09
1.9386e-08
-1.13151e-09
1.91355e-08
-7.24937e-10
1.89322e-08
-2.5926e-10
1.8803e-08
2.36162e-10
1.87758e-08
7.27036e-10
1.88726e-08
1.17454e-09
1.90952e-08
1.53539e-09
1.94033e-08
1.76458e-09
1.83e-09
1.9704e-08
2.0971e-08
-4.7821e-10
2.09167e-08
-5.84497e-10
2.08594e-08
-6.9095e-10
2.08109e-08
-7.90472e-10
2.07827e-08
-8.78577e-10
2.07806e-08
-9.55892e-10
2.08095e-08
-1.02241e-09
2.08688e-08
-1.08341e-09
2.0956e-08
-1.14381e-09
2.10674e-08
-1.2085e-09
2.11989e-08
-1.28128e-09
2.13466e-08
-1.36437e-09
2.15067e-08
-1.45772e-09
2.16763e-08
-1.55804e-09
2.18531e-08
-1.65711e-09
2.20363e-08
-1.74102e-09
2.22271e-08
-1.78541e-09
2.24304e-08
-1.75875e-09
2.26556e-08
-1.61516e-09
2.29175e-08
-1.30348e-09
2.32382e-08
-7.9993e-10
2.36374e-08
-6.99795e-11
2.40555e-08
5.93762e-10
2.44485e-08
8.44444e-10
2.47961e-08
7.96788e-10
2.50839e-08
5.56488e-10
2.53049e-08
2.00363e-10
2.54552e-08
-2.06319e-10
2.55332e-08
-6.13163e-10
2.55398e-08
-9.80675e-10
2.54787e-08
-1.27777e-09
2.53562e-08
-1.48164e-09
2.51818e-08
-1.57813e-09
2.49677e-08
-1.56169e-09
2.47289e-08
-1.43499e-09
2.44826e-08
-1.20799e-09
2.42479e-08
-8.96852e-10
2.40459e-08
-5.22891e-10
2.38983e-08
-1.11649e-10
2.38262e-08
3.08202e-10
2.38472e-08
7.06045e-10
2.397e-08
1.05178e-09
2.4187e-08
1.31838e-09
2.44662e-08
1.48537e-09
1.54459e-09
2.47516e-08
2.83733e-08
-4.41393e-10
2.83209e-08
-5.3219e-10
2.82585e-08
-6.28511e-10
2.81935e-08
-7.25426e-10
2.81341e-08
-8.19172e-10
2.80866e-08
-9.08387e-10
2.80569e-08
-9.92806e-10
2.8048e-08
-1.07444e-09
2.80604e-08
-1.15623e-09
2.80933e-08
-1.24141e-09
2.81447e-08
-1.33271e-09
2.82121e-08
-1.4317e-09
2.82925e-08
-1.53813e-09
2.83833e-08
-1.64888e-09
2.84825e-08
-1.75625e-09
2.85893e-08
-1.84781e-09
2.87048e-08
-1.90093e-09
2.88341e-08
-1.88808e-09
2.89869e-08
-1.76791e-09
2.91778e-08
-1.49444e-09
2.94311e-08
-1.05319e-09
2.9768e-08
-4.06873e-10
3.01382e-08
2.23531e-10
3.04996e-08
4.83024e-10
3.08276e-08
4.6877e-10
3.11044e-08
2.79746e-10
3.13201e-08
-1.53742e-11
3.14689e-08
-3.55099e-10
3.15481e-08
-6.92374e-10
3.15583e-08
-9.9089e-10
3.15034e-08
-1.22284e-09
3.13906e-08
-1.36881e-09
3.12304e-08
-1.41797e-09
3.10365e-08
-1.36778e-09
3.08249e-08
-1.22341e-09
3.06136e-08
-9.96693e-10
3.04217e-08
-7.04947e-10
3.02684e-08
-3.6962e-10
3.01717e-08
-1.48988e-11
3.0146e-08
3.33916e-10
3.01996e-08
6.52368e-10
3.03322e-08
9.19225e-10
3.05317e-08
1.11885e-09
3.07737e-08
1.24336e-09
1.29406e-09
3.10243e-08
3.76664e-08
-4.0374e-10
3.76154e-08
-4.81255e-10
3.75528e-08
-5.65928e-10
3.74822e-08
-6.54835e-10
3.74084e-08
-7.453e-10
3.73358e-08
-8.35804e-10
3.72689e-08
-9.25905e-10
3.72108e-08
-1.01634e-09
3.71634e-08
-1.10885e-09
3.71274e-08
-1.20543e-09
3.71026e-08
-1.30786e-09
3.70878e-08
-1.41696e-09
3.70817e-08
-1.53201e-09
3.70827e-08
-1.64985e-09
3.70894e-08
-1.76299e-09
3.7102e-08
-1.86041e-09
3.7122e-08
-1.9209e-09
3.7155e-08
-1.9211e-09
3.72113e-08
-1.82418e-09
3.73057e-08
-1.58883e-09
3.74642e-08
-1.21174e-09
3.77097e-08
-6.52379e-10
3.80049e-08
-7.16666e-11
3.83109e-08
1.77078e-10
3.85985e-08
1.81142e-10
3.88461e-08
3.21897e-11
3.90413e-08
-2.10653e-10
3.91763e-08
-4.90034e-10
3.9247e-08
-7.63123e-10
3.92538e-08
-9.97647e-10
3.92006e-08
-1.16968e-09
3.90954e-08
-1.26362e-09
3.89496e-08
-1.27211e-09
3.87773e-08
-1.19555e-09
3.85951e-08
-1.04122e-09
3.84206e-08
-8.22109e-10
3.82711e-08
-5.55521e-10
3.8163e-08
-2.61509e-10
3.81093e-08
3.88208e-11
3.81184e-08
3.2481e-10
3.81922e-08
5.78572e-10
3.83252e-08
7.86214e-10
3.85047e-08
9.39391e-10
3.87119e-08
1.03611e-09
1.08045e-09
3.89255e-08
4.92012e-08
-3.63403e-10
4.91497e-08
-4.29774e-10
4.90871e-08
-5.03346e-10
4.90148e-08
-5.82548e-10
4.89352e-08
-6.6565e-10
4.88508e-08
-7.51401e-10
4.87641e-08
-8.39259e-10
4.86772e-08
-9.29449e-10
4.85913e-08
-1.02295e-09
4.8507e-08
-1.12104e-09
4.8424e-08
-1.22488e-09
4.83418e-08
-1.33483e-09
4.82597e-08
-1.44989e-09
4.81768e-08
-1.56696e-09
4.80927e-08
-1.67883e-09
4.80083e-08
-1.77603e-09
4.79259e-08
-1.83849e-09
4.78521e-08
-1.8473e-09
4.7798e-08
-1.77009e-09
4.77787e-08
-1.5695e-09
4.78218e-08
-1.2549e-09
4.79517e-08
-7.82236e-10
4.81471e-08
-2.67137e-10
4.83741e-08
-4.98455e-11
4.85989e-08
-4.36505e-11
4.87967e-08
-1.65623e-10
4.89535e-08
-3.6751e-10
4.90592e-08
-5.95681e-10
4.91088e-08
-8.12702e-10
4.91022e-08
-9.91047e-10
4.90436e-08
-1.11112e-09
4.89413e-08
-1.16134e-09
4.8807e-08
-1.1378e-09
4.86549e-08
-1.04348e-09
4.85009e-08
-8.87146e-10
4.83608e-08
-6.82032e-10
4.82496e-08
-4.44309e-10
4.81795e-08
-1.91487e-10
4.8159e-08
5.93563e-11
4.81918e-08
2.92053e-10
4.82757e-08
4.9464e-10
4.84035e-08
6.58443e-10
4.85635e-08
7.79407e-10
4.87416e-08
8.58015e-10
8.98508e-10
4.89235e-08
6.33469e-08
-3.21296e-10
6.32952e-08
-3.78097e-10
6.32333e-08
-4.41489e-10
6.31615e-08
-5.10731e-10
6.30807e-08
-5.84809e-10
6.29921e-08
-6.62794e-10
6.28969e-08
-7.44125e-10
6.27962e-08
-8.28697e-10
6.26902e-08
-9.1693e-10
6.25786e-08
-1.00944e-09
6.24606e-08
-1.10692e-09
6.23351e-08
-1.20929e-09
6.22006e-08
-1.31546e-09
6.20563e-08
-1.4226e-09
6.19013e-08
-1.52389e-09
6.17371e-08
-1.6118e-09
6.1566e-08
-1.6674e-09
6.13953e-08
-1.67656e-09
6.12366e-08
-1.61138e-09
6.11053e-08
-1.43821e-09
6.10293e-08
-1.17895e-09
6.10344e-08
-7.8728e-10
6.11175e-08
-3.50285e-10
6.12496e-08
-1.81924e-10
6.13924e-08
-1.86489e-10
6.15219e-08
-2.95116e-10
6.16232e-08
-4.68794e-10
6.1684e-08
-6.56413e-10
6.16988e-08
-8.27573e-10
6.16677e-08
-9.59931e-10
6.1595e-08
-1.03837e-09
6.14889e-08
-1.05526e-09
6.13609e-08
-1.00985e-09
6.12246e-08
-9.07099e-10
6.10939e-08
-7.56488e-10
6.09824e-08
-5.70581e-10
6.09018e-08
-3.63611e-10
6.08603e-08
-1.49986e-10
6.08621e-08
5.74946e-11
6.09081e-08
2.46021e-10
6.09942e-08
4.08633e-10
6.11127e-08
5.39894e-10
6.1254e-08
6.38063e-10
6.14076e-08
7.04447e-10
7.42612e-10
6.15635e-08
8.04925e-08
-2.81156e-10
8.0444e-08
-3.29577e-10
8.03862e-08
-3.83704e-10
8.03188e-08
-4.43264e-10
8.02417e-08
-5.07723e-10
8.01553e-08
-5.76456e-10
8.00602e-08
-6.48961e-10
7.99564e-08
-7.24918e-10
7.98438e-08
-8.04334e-10
7.97216e-08
-8.87228e-10
7.95884e-08
-9.73773e-10
7.94425e-08
-1.06339e-09
7.92819e-08
-1.15483e-09
7.91047e-08
-1.24541e-09
7.89096e-08
-1.32874e-09
7.86971e-08
-1.39931e-09
7.84691e-08
-1.43938e-09
7.82323e-08
-1.43985e-09
7.79978e-08
-1.37681e-09
7.77813e-08
-1.22174e-09
7.76078e-08
-1.00544e-09
7.75033e-08
-6.82779e-10
7.74851e-08
-3.3214e-10
7.75211e-08
-2.17848e-10
7.7575e-08
-2.40464e-10
7.76275e-08
-3.47602e-10
7.76633e-08
-5.04555e-10
7.76686e-08
-6.61715e-10
7.76389e-08
-7.97864e-10
7.75746e-08
-8.9561e-10
7.74802e-08
-9.44036e-10
7.73641e-08
-9.3909e-10
7.72367e-08
-8.82524e-10
7.71102e-08
-7.80552e-10
7.69962e-08
-6.42538e-10
7.69054e-08
-4.79711e-10
7.68457e-08
-3.03918e-10
7.68221e-08
-1.26426e-10
7.68362e-08
4.33839e-11
7.68864e-08
1.95893e-10
7.6968e-08
3.27025e-10
7.70742e-08
4.33633e-10
7.71973e-08
5.15013e-10
7.73292e-08
5.72528e-10
6.08912e-10
7.74629e-08
1.01082e-07
-2.47317e-10
1.01041e-07
-2.88373e-10
1.00992e-07
-3.34156e-10
1.00933e-07
-3.84619e-10
1.00865e-07
-4.39512e-10
1.00787e-07
-4.9843e-10
1.00699e-07
-5.60966e-10
1.00601e-07
-6.26682e-10
1.00492e-07
-6.95328e-10
1.00371e-07
-7.66447e-10
1.00237e-07
-8.39792e-10
1.00088e-07
-9.14246e-10
9.99213e-08
-9.88371e-10
9.97353e-08
-1.05947e-09
9.95281e-08
-1.12157e-09
9.92996e-08
-1.17078e-09
9.90509e-08
-1.19066e-09
9.87881e-08
-1.17704e-09
9.85196e-08
-1.10827e-09
9.82623e-08
-9.6445e-10
9.80352e-08
-7.78336e-10
9.78589e-08
-5.06566e-10
9.77657e-08
-2.38863e-10
9.77298e-08
-1.82026e-10
9.77162e-08
-2.26841e-10
9.77015e-08
-3.32872e-10
9.76739e-08
-4.76992e-10
9.76242e-08
-6.11995e-10
9.75492e-08
-7.22832e-10
9.74503e-08
-7.96747e-10
9.73327e-08
-8.26452e-10
9.72043e-08
-8.10676e-10
9.70746e-08