/*--------------------------------*- C++ -*----------------------------------*\
| =========                 |                                                 |
| \\      /  F ield         | OpenFOAM: The Open Source CFD Toolbox           |
|  \\    /   O peration     | Version:  2312                                  |
|   \\  /    A nd           | Website:  www.openfoam.com                      |
|    \\/     M anipulation  |                                                 |
\*---------------------------------------------------------------------------*/
FoamFile
{
    version     2.0;
    format      ascii;
    arch        "LSB;label=32;scalar=64";
    class       volScalarField;
    location    "30";
    object      p;
}
// * * * * * * * * * * * * * * * * * * * * * * * * * * * * * * * * * * * * * //

dimensions      [0 2 -2 0 0 0 0];

internalField   nonuniform List<scalar> 
4800
(
-6.44234e-13
-8.94666e-07
-1.59789e-06
-2.16359e-06
-2.65707e-06
-3.0886e-06
-3.46849e-06
-3.81073e-06
-4.12344e-06
-4.41166e-06
-4.67876e-06
-4.9241e-06
-5.13913e-06
-5.56811e-06
-7.16379e-06
1.13747e-08
-8.83924e-07
-1.58807e-06
-2.15474e-06
-2.64952e-06
-3.0828e-06
-3.46494e-06
-3.81039e-06
-4.12817e-06
-4.42516e-06
-4.70935e-06
-4.99329e-06
-5.28785e-06
-5.69948e-06
-6.4631e-06
2.28833e-08
-8.72873e-07
-1.57801e-06
-2.14546e-06
-2.6406e-06
-3.07536e-06
-3.45933e-06
-3.80732e-06
-4.12895e-06
-4.43189e-06
-4.72521e-06
-5.02167e-06
-5.32584e-06
-5.64069e-06
-5.93346e-06
3.39887e-08
-8.61677e-07
-1.56723e-06
-2.13529e-06
-2.6297e-06
-3.06548e-06
-3.45043e-06
-3.79931e-06
-4.12194e-06
-4.42509e-06
-4.71507e-06
-4.9957e-06
-5.25525e-06
-5.45769e-06
-5.52753e-06
4.59036e-08
-8.49098e-07
-1.55432e-06
-2.12327e-06
-2.61518e-06
-3.05101e-06
-3.43581e-06
-3.78332e-06
-4.10288e-06
-4.39898e-06
-4.6729e-06
-4.91878e-06
-5.11418e-06
-5.21722e-06
-5.17014e-06
6.01295e-08
-8.33647e-07
-1.53766e-06
-2.10759e-06
-2.59538e-06
-3.02929e-06
-3.412e-06
-3.75492e-06
-4.06605e-06
-4.34677e-06
-4.59319e-06
-4.79322e-06
-4.9229e-06
-4.9505e-06
-4.84678e-06
7.92814e-08
-8.12827e-07
-1.51471e-06
-2.08426e-06
-2.56797e-06
-2.99713e-06
-3.37434e-06
-3.70838e-06
-4.0048e-06
-4.26205e-06
-4.47275e-06
-4.62344e-06
-4.69557e-06
-4.67237e-06
-4.54608e-06
1.08022e-07
-7.82314e-07
-1.48134e-06
-2.04848e-06
-2.52793e-06
-2.94939e-06
-3.3169e-06
-3.63689e-06
-3.91235e-06
-4.13981e-06
-4.31119e-06
-4.4158e-06
-4.44328e-06
-4.38951e-06
-4.25833e-06
1.53693e-07
-7.35365e-07
-1.43107e-06
-1.99452e-06
-2.46778e-06
-2.87842e-06
-3.23199e-06
-3.53291e-06
-3.78238e-06
-3.97679e-06
-4.10996e-06
-4.1761e-06
-4.17251e-06
-4.10305e-06
-3.97623e-06
2.2645e-07
-6.62526e-07
-1.35473e-06
-1.91336e-06
-2.37831e-06
-2.77508e-06
-3.11078e-06
-3.38867e-06
-3.60946e-06
-3.77108e-06
-3.8708e-06
-3.90794e-06
-3.88521e-06
-3.81042e-06
-3.69297e-06
3.38759e-07
-5.51852e-07
-1.24073e-06
-1.79348e-06
-2.24841e-06
-2.62899e-06
-2.94397e-06
-3.19686e-06
-3.38919e-06
-3.52148e-06
-3.59475e-06
-3.61232e-06
-3.58e-06
-3.50685e-06
-3.40149e-06
5.04839e-07
-3.89328e-07
-1.07539e-06
-1.6217e-06
-2.06553e-06
-2.42894e-06
-2.72239e-06
-2.95092e-06
-3.11791e-06
-3.2267e-06
-3.28142e-06
-3.28792e-06
-3.25335e-06
-3.18649e-06
-3.09469e-06
7.41099e-07
-1.58698e-07
-8.42841e-07
-1.38295e-06
-1.81588e-06
-2.16312e-06
-2.43693e-06
-2.64464e-06
-2.79191e-06
-2.88449e-06
-2.92861e-06
-2.9314e-06
-2.90018e-06
-2.84289e-06
-2.76556e-06
1.06744e-06
1.5948e-07
-5.24264e-07
-1.05984e-06
-1.48392e-06
-1.81844e-06
-2.07751e-06
-2.27072e-06
-2.40583e-06
-2.49032e-06
-2.53158e-06
-2.53711e-06
-2.5139e-06
-2.46886e-06
-2.40694e-06
1.50785e-06
5.88316e-07
-9.75542e-08
-6.32202e-07
-1.05179e-06
-1.37967e-06
-1.63163e-06
-1.81903e-06
-1.95105e-06
-2.03616e-06
-2.08223e-06
-2.09668e-06
-2.08598e-06
-2.0561e-06
-2.01119e-06
2.08838e-06
1.16354e-06
4.62393e-07
-7.80653e-08
-5.00146e-07
-8.29932e-07
-1.08469e-06
-1.27671e-06
-1.41583e-06
-1.51087e-06
-1.56977e-06
-1.59966e-06
-1.60653e-06
-1.59564e-06
-1.57061e-06
2.82893e-06
1.89136e-06
1.17599e-06
6.2233e-07
1.88567e-07
-1.53693e-07
-4.22779e-07
-6.31124e-07
-7.88497e-07
-9.03587e-07
-9.8413e-07
-1.03695e-06
-1.06764e-06
-1.08093e-06
-1.08019e-06
3.74096e-06
2.79186e-06
2.05705e-06
1.48232e-06
1.02631e-06
6.59516e-07
3.63478e-07
1.26184e-07
-6.1639e-08
-2.08177e-07
-3.20743e-07
-4.05777e-07
-4.68559e-07
-5.13479e-07
-5.43734e-07
4.82194e-06
3.86479e-06
3.10886e-06
2.50664e-06
2.0176e-06
1.61397e-06
1.27856e-06
1.00002e-06
7.6958e-07
5.79687e-07
4.23673e-07
2.9566e-07
1.90695e-07
1.04616e-07
3.42076e-08
6.04935e-06
5.09347e-06
4.31867e-06
3.68319e-06
3.15205e-06
2.70155e-06
2.31647e-06
1.98621e-06
1.70245e-06
1.45821e-06
1.24746e-06
1.06495e-06
9.06136e-07
7.6717e-07
6.44873e-07
7.25977e-06
6.32086e-06
5.5318e-06
4.86115e-06
4.28286e-06
3.77888e-06
3.33673e-06
2.94698e-06
2.60203e-06
2.29562e-06
2.02239e-06
1.77772e-06
1.55753e-06
1.35831e-06
1.17709e-06
8.28283e-06
7.36062e-06
6.56304e-06
5.8643e-06
5.24647e-06
4.6966e-06
4.20451e-06
3.76191e-06
3.36196e-06
2.99899e-06
2.66824e-06
2.36563e-06
2.0876e-06
1.83116e-06
1.59372e-06
9.04252e-06
8.1436e-06
7.34572e-06
6.63132e-06
5.98783e-06
5.40547e-06
4.87584e-06
4.39182e-06
3.94747e-06
3.53789e-06
3.15896e-06
2.80724e-06
2.47975e-06
2.17399e-06
1.88775e-06
9.59463e-06
8.72035e-06
7.92883e-06
7.20837e-06
6.54974e-06
5.94524e-06
5.38807e-06
4.87233e-06
4.39306e-06
3.94618e-06
3.52825e-06
3.13644e-06
2.76829e-06
2.42178e-06
2.0951e-06
9.98133e-06
9.13269e-06
8.35276e-06
7.63329e-06
6.96742e-06
6.34911e-06
5.77292e-06
5.23409e-06
4.72858e-06
4.25307e-06
3.80481e-06
3.38152e-06
2.98125e-06
2.60239e-06
2.24345e-06
1.02441e-05
9.42197e-06
8.657e-06
7.94326e-06
7.27581e-06
6.64995e-06
6.06138e-06
5.50633e-06
4.98163e-06
4.48469e-06
4.01335e-06
3.56583e-06
3.14061e-06
2.73642e-06
2.35212e-06
1.04193e-05
9.62289e-06
8.87408e-06
8.16867e-06
7.50322e-06
6.8741e-06
6.27791e-06
5.71178e-06
5.17329e-06
4.66049e-06
4.17173e-06
3.70568e-06
3.2612e-06
2.83738e-06
2.43337e-06
1.05337e-05
9.76136e-06
9.0286e-06
8.33277e-06
7.67145e-06
7.04179e-06
6.44124e-06
5.86765e-06
5.3193e-06
4.79477e-06
4.29286e-06
3.81265e-06
3.35333e-06
2.91433e-06
2.49505e-06
1.0607e-05
9.85648e-06
9.13901e-06
8.45303e-06
7.7968e-06
7.16816e-06
6.56528e-06
5.98671e-06
5.43124e-06
4.89792e-06
4.38598e-06
3.89482e-06
3.42396e-06
2.97308e-06
2.54184e-06
1.0653e-05
9.922e-06
9.2186e-06
8.54207e-06
7.89114e-06
7.26427e-06
6.66029e-06
6.0783e-06
5.51755e-06
4.97749e-06
4.4577e-06
3.95788e-06
3.47785e-06
3.01751e-06
2.57673e-06
1.06812e-05
9.96751e-06
9.27679e-06
8.60892e-06
7.96303e-06
7.33819e-06
6.73377e-06
6.14931e-06
5.58447e-06
5.03904e-06
4.51291e-06
4.00607e-06
3.51856e-06
3.0505e-06
2.60196e-06
1.06982e-05
9.99962e-06
9.32014e-06
8.65997e-06
8.01865e-06
7.39579e-06
6.79121e-06
6.20483e-06
5.63665e-06
5.08678e-06
4.55538e-06
4.04267e-06
3.54891e-06
3.07441e-06
2.61939e-06
1.07083e-05
1.00229e-05
9.3532e-06
8.69976e-06
8.06245e-06
7.44136e-06
6.83669e-06
6.24869e-06
5.67765e-06
5.12397e-06
4.58804e-06
4.0703e-06
3.57119e-06
3.09119e-06
2.63066e-06
1.07142e-05
1.00402e-05
9.37911e-06
8.73145e-06
8.09759e-06
7.47801e-06
6.87321e-06
6.28373e-06
5.71016e-06
5.15311e-06
4.61319e-06
4.09104e-06
3.58725e-06
3.10245e-06
2.63714e-06
1.07177e-05
1.00537e-05
9.39997e-06
8.75727e-06
8.12634e-06
7.50798e-06
6.90296e-06
6.3121e-06
5.73621e-06
5.17612e-06
4.63262e-06
4.10653e-06
3.59859e-06
3.10955e-06
2.64002e-06
1.072e-05
1.00647e-05
9.41721e-06
8.77874e-06
8.15026e-06
7.53284e-06
6.92752e-06
6.33533e-06
5.75729e-06
5.19442e-06
4.64769e-06
4.11806e-06
3.60639e-06
3.11356e-06
2.64029e-06
1.07216e-05
1.00737e-05
9.43172e-06
8.79684e-06
8.1704e-06
7.5537e-06
6.94799e-06
6.35451e-06
5.77448e-06
5.20907e-06
4.65941e-06
4.12657e-06
3.61156e-06
3.11534e-06
2.63872e-06
1.07229e-05
1.00816e-05
9.44425e-06
8.81244e-06
8.18769e-06
7.57151e-06
6.96536e-06
6.37065e-06
5.78876e-06
5.221e-06
4.66864e-06
4.13287e-06
3.6148e-06
3.11549e-06
2.63584e-06
1.07241e-05
1.00889e-05
9.45581e-06
8.82676e-06
8.20349e-06
7.5877e-06
6.98103e-06
6.38507e-06
5.80133e-06
5.23129e-06
4.6763e-06
4.13769e-06
3.61666e-06
3.11437e-06
2.6318e-06
1.07253e-05
1.00956e-05
9.46653e-06
8.84004e-06
8.21809e-06
7.60255e-06
6.99527e-06
6.39799e-06
5.81239e-06
5.24009e-06
4.68259e-06
4.14131e-06
3.61756e-06
3.11254e-06
2.62726e-06
-8.29316e-06
-5.83316e-06
-4.35222e-06
-3.36672e-06
-2.5966e-06
-2.02528e-06
-1.60212e-06
-1.29138e-06
-1.06671e-06
-9.05023e-07
-7.85272e-07
-6.87304e-07
-5.90916e-07
-4.75453e-07
-3.19385e-07
-1.02223e-07
1.94394e-07
5.79078e-07
1.04346e-06
1.55758e-06
2.0629e-06
2.47058e-06
2.69642e-06
2.79279e-06
2.88225e-06
3.05159e-06
3.35668e-06
3.8306e-06
4.4992e-06
5.36371e-06
6.45095e-06
7.77173e-06
9.28385e-06
1.09745e-05
1.28069e-05
1.47299e-05
1.66837e-05
1.85983e-05
2.0387e-05
2.19459e-05
2.31139e-05
2.36694e-05
2.3123e-05
2.10366e-05
1.56106e-05
-6.66631e-06
-5.33151e-06
-4.18492e-06
-3.29649e-06
-2.57006e-06
-2.01278e-06
-1.59447e-06
-1.28585e-06
-1.06273e-06
-9.0261e-07
-7.84488e-07
-6.88055e-07
-5.92932e-07
-4.78335e-07
-3.22723e-07
-1.05696e-07
1.91063e-07
5.75696e-07
1.04022e-06
1.55546e-06
2.06458e-06
2.48021e-06
2.71862e-06
2.82942e-06
2.93224e-06
3.11245e-06
3.42515e-06
3.90349e-06
4.57304e-06
5.42834e-06
6.50624e-06
7.80597e-06
9.2847e-06
1.09265e-05
1.26922e-05
1.45251e-05
1.63585e-05
1.81118e-05
1.96801e-05
2.09279e-05
2.16399e-05
2.14753e-05
1.97528e-05
1.57084e-05
8.02041e-06
-5.81957e-06
-4.95457e-06
-4.01534e-06
-3.21601e-06
-2.53825e-06
-2.00055e-06
-1.58954e-06
-1.28382e-06
-1.06211e-06
-9.03033e-07
-7.85838e-07
-6.9019e-07
-5.9559e-07
-4.81153e-07
-3.25367e-07
-1.0796e-07
1.89193e-07
5.74027e-07
1.03858e-06
1.5547e-06
2.06746e-06
2.49122e-06
2.74299e-06
2.86941e-06
2.98672e-06
3.17859e-06
3.49907e-06
3.98143e-06
4.65104e-06
5.49171e-06
6.55894e-06
7.83116e-06
9.26704e-06
1.08474e-05
1.25293e-05
1.42502e-05
1.59345e-05
1.7489e-05
1.87957e-05
1.96901e-05
1.99292e-05
1.91469e-05
1.67461e-05
1.23739e-05
5.73911e-06
-5.3009e-06
-4.65591e-06
-3.88189e-06
-3.15147e-06
-2.51985e-06
-2.00226e-06
-1.59756e-06
-1.29288e-06
-1.07042e-06
-9.10188e-07
-7.91931e-07
-6.95384e-07
-5.99939e-07
-4.84589e-07
-3.27825e-07
-1.09478e-07
1.88416e-07
5.7355e-07
1.03805e-06
1.55493e-06
2.07141e-06
2.50365e-06
2.76966e-06
2.91292e-06
3.04598e-06
3.25067e-06
3.57963e-06
4.06654e-06
4.73511e-06
5.55911e-06
6.61449e-06
7.85361e-06
9.23781e-06
1.07446e-05
1.23264e-05
1.39134e-05
1.54219e-05
1.67483e-05
1.77616e-05
1.82891e-05
1.80964e-05
1.68816e-05
1.4268e-05
1.00962e-05
4.6382e-06
-4.91015e-06
-4.40069e-06
-3.7645e-06
-3.11182e-06
-2.52162e-06
-2.02369e-06
-1.62373e-06
-1.31741e-06
-1.09093e-06
-9.26187e-07
-8.03736e-07
-7.03589e-07
-6.05097e-07
-4.87123e-07
-3.28157e-07
-1.08103e-07
1.90865e-07
5.76152e-07
1.04011e-06
1.55713e-06
2.07692e-06
2.51763e-06
2.7986e-06
2.95985e-06
3.10974e-06
3.328e-06
3.66539e-06
4.15673e-06
4.81622e-06
5.63099e-06
6.66604e-06
7.86257e-06
9.1843e-06
1.06041e-05
1.20682e-05
1.3501e-05
1.48117e-05
1.58906e-05
1.66032e-05
1.67865e-05
1.62452e-05
1.47728e-05
1.21887e-05
8.49899e-06
4.05171e-06
-4.5945e-06
-4.17576e-06
-3.6473e-06
-3.08623e-06
-2.54181e-06
-2.06348e-06
-1.66879e-06
-1.35949e-06
-1.12617e-06
-9.53254e-07
-8.22823e-07
-7.15604e-07
-6.11112e-07
-4.88159e-07
-3.25274e-07
-1.02434e-07
1.98051e-07
5.83269e-07
1.04595e-06
1.56211e-06
2.08445e-06
2.53324e-06
2.82964e-06
3.0098e-06
3.17734e-06
3.40964e-06
3.75465e-06
4.24905e-06
4.89288e-06
5.7035e-06
6.70535e-06
7.84864e-06
9.09613e-06
1.04143e-05
1.17434e-05
1.30036e-05
1.41005e-05
1.4924e-05
1.53477e-05
1.52328e-05
1.44383e-05
1.28502e-05
1.0424e-05
7.2676e-06
3.69076e-06
-4.31658e-06
-3.97094e-06
-3.52976e-06
-3.04672e-06
-2.56445e-06
-2.11343e-06
-1.72754e-06
-1.41664e-06
-1.17566e-06
-9.9183e-07
-8.49812e-07
-7.31825e-07
-6.1796e-07
-4.87218e-07
-3.18311e-07
-9.13468e-08
2.112e-07
5.9603e-07
1.05649e-06
1.57049e-06
2.09424e-06
2.55031e-06
2.86227e-06
3.06199e-06
3.24767e-06
3.49416e-06
3.84571e-06
4.33966e-06
4.97048e-06
5.76567e-06
6.7232e-06
7.80308e-06
8.96443e-06
1.01659e-05
1.13438e-05
1.24168e-05
1.32915e-05
1.38642e-05
1.40258e-05
1.36709e-05
1.27131e-05
1.11116e-05
8.89861e-06
6.21207e-06
3.2956e-06
-4.05447e-06
-3.7676e-06
-3.40369e-06
-2.99098e-06
-2.5663e-06
-2.15913e-06
-1.7882e-06
-1.48065e-06
-1.23424e-06
-1.03865e-06
-8.8261e-07
-7.50765e-07
-6.24356e-07
-4.82992e-07
-3.05877e-07
-7.33972e-08
2.31711e-07
6.15562e-07
1.07247e-06
1.58264e-06
2.10634e-06
2.56823e-06
2.89543e-06
3.1149e-06
3.31872e-06
3.57884e-06
3.93793e-06
4.4222e-06
5.04205e-06
5.80904e-06
6.71169e-06
7.71678e-06
8.77869e-06
9.84876e-06
1.08619e-05
1.17388e-05
1.23917e-05
1.27298e-05
1.26671e-05
1.2133e-05
1.10875e-05
9.53713e-06
7.54834e-06
5.25218e-06
2.83033e-06
-3.79709e-06
-3.55733e-06
-3.25743e-06
-2.91152e-06
-2.5438e-06
-2.17871e-06
-1.83513e-06
-1.53919e-06
-1.29233e-06
-1.08619e-06
-9.15667e-07
-7.68336e-07
-6.27176e-07
-4.72966e-07
-2.85859e-07
-4.67746e-08
2.6108e-07
6.42873e-07
1.09427e-06
1.59818e-06
2.1203e-06
2.58567e-06
2.92709e-06
3.16591e-06
3.38716e-06
3.65855e-06
4.02303e-06
4.49511e-06
5.09593e-06
5.82346e-06
6.66214e-06
7.57912e-06
8.52696e-06
9.45248e-06
1.02912e-05
1.09696e-05
1.14101e-05
1.1539e-05
1.1295e-05
1.06387e-05
9.56255e-06
8.09932e-06
6.32364e-06
4.3465e-06
2.29993e-06
-3.53687e-06
-3.3356e-06
-3.08788e-06
-2.80035e-06
-2.48826e-06
-2.16498e-06
-1.8548e-06
-1.57834e-06
-1.33508e-06
-1.12291e-06
-9.40307e-07
-7.78028e-07
-6.21559e-07
-4.53521e-07
-2.55605e-07
-9.5735e-09
3.00495e-07
6.78277e-07
1.1222e-06
1.61638e-06
2.13376e-06
2.59997e-06
2.95377e-06
3.2107e-06
3.44771e-06
3.72788e-06
4.09042e-06
4.55053e-06
5.1217e-06
5.79809e-06
6.56093e-06
7.37611e-06
8.19605e-06
8.96652e-06
9.62673e-06
1.01113e-05
1.03566e-05
1.03076e-05
9.9255e-06
9.19481e-06
8.12822e-06
6.76856e-06
5.18572e-06
3.46816e-06
1.71105e-06
-3.26675e-06
-3.09765e-06
-2.8925e-06
-2.65402e-06
-2.3902e-06
-2.11288e-06
-1.83978e-06
-1.58384e-06
-1.34873e-06
-1.1366e-06
-9.46562e-07
-7.72155e-07
-6.01833e-07
-4.207e-07
-2.12545e-07
3.96366e-08
3.50417e-07
7.20492e-07
1.15389e-06
1.64103e-06
2.1402e-06
2.60559e-06
2.96977e-06
3.24255e-06
3.49249e-06
3.77747e-06
4.13268e-06
4.57267e-06
5.10394e-06
5.71771e-06
6.39193e-06
7.09218e-06
7.77281e-06
8.3821e-06
8.86529e-06
9.1678e-06
9.24092e-06
9.04742e-06
8.56687e-06
7.79964e-06
6.76843e-06
5.51675e-06
4.10428e-06
2.5992e-06
1.07023e-06
-2.97986e-06
-2.83835e-06
-2.66877e-06
-2.47197e-06
-2.25232e-06
-2.01805e-06
-1.77968e-06
-1.54672e-06
-1.32525e-06
-1.11848e-06
-9.26204e-07
-7.44003e-07
-5.63088e-07
-3.71495e-07
-1.55301e-07
1.00956e-07
4.09552e-07
7.7051e-07
1.18771e-06
1.65911e-06
2.13735e-06
2.59624e-06
2.96667e-06
3.25168e-06
3.5103e-06
3.79454e-06
4.13548e-06
4.54525e-06
5.02542e-06
5.56428e-06
6.13758e-06
6.71214e-06
7.24606e-06
7.69332e-06
8.00709e-06
8.14496e-06
8.07257e-06
7.76747e-06
7.22238e-06
6.44678e-06
5.46637e-06
4.32037e-06
3.05709e-06
1.72811e-06
3.83279e-07
-2.66957e-06
-2.55248e-06
-2.41334e-06
-2.25216e-06
-2.07095e-06
-1.87446e-06
-1.66929e-06
-1.4623e-06
-1.25903e-06
-1.06271e-06
-8.73742e-07
-6.89167e-07
-5.02614e-07
-3.05003e-07
-8.49058e-08
1.71057e-07
4.73745e-07
8.24177e-07
1.21828e-06
1.65677e-06
2.1194e-06
2.56326e-06
2.93314e-06
3.22486e-06
3.4862e-06
3.76242e-06
4.08039e-06
4.44906e-06
4.86634e-06
5.31891e-06
5.78088e-06
6.22352e-06
6.60925e-06
6.89919e-06
7.0571e-06
7.05223e-06
6.86227e-06
6.47584e-06
5.89397e-06
5.13011e-06
4.20882e-06
3.16299e-06
2.03041e-06
8.49589e-07
-3.43093e-07
-2.32934e-06
-2.23463e-06
-2.12237e-06
-1.99215e-06
-1.84459e-06
-1.68223e-06
-1.50908e-06
-1.32974e-06
-1.14822e-06
-9.67191e-07
-7.87364e-07
-6.06871e-07
-4.2123e-07
-2.23807e-07
-5.54966e-09
2.43919e-07
5.33083e-07
8.65295e-07
1.2325e-06
1.63872e-06
2.07221e-06
2.49307e-06
2.85439e-06
3.14531e-06
3.40169e-06
3.66108e-06
3.9461e-06
4.26273e-06
4.60633e-06
4.96169e-06
5.30939e-06
5.61899e-06
5.86081e-06
6.00547e-06
6.0267e-06
5.90381e-06
5.62383e-06
5.18284e-06
4.58623e-06
3.84806e-06
2.98966e-06
2.03731e-06
1.01979e-06
-3.43673e-08
-1.09857e-06
-1.95257e-06
-1.8797e-06
-1.79253e-06
-1.69063e-06
-1.5739e-06
-1.44351e-06
-1.30174e-06
-1.15135e-06
-9.94994e-07
-8.34375e-07
-6.69801e-07
-5.00339e-07
-3.23638e-07
-1.34716e-07
7.36189e-08
3.09069e-07
5.77341e-07
8.81153e-07
1.21722e-06
1.58886e-06
1.98158e-06
2.37e-06
2.71278e-06
2.9932e-06
3.23533e-06
3.46784e-06
3.71007e-06
3.9658e-06
4.22965e-06
4.48603e-06
4.71598e-06
4.89741e-06
5.00782e-06
5.02592e-06
4.93388e-06
4.71907e-06
4.3752e-06
3.90275e-06
3.3087e-06
2.60581e-06
1.81142e-06
9.45793e-07
3.04103e-08
-9.1378e-07
-1.8673e-06
-1.53317e-06
-1.48354e-06
-1.42195e-06
-1.34806e-06
-1.26154e-06
-1.16276e-06
-1.05281e-06
-9.33355e-07
-8.05574e-07
-6.71138e-07
-5.30444e-07
-3.79822e-07
-2.20099e-07
-4.9336e-08
1.39394e-07
3.51448e-07
5.90598e-07
8.59245e-07
1.15743e-06
1.48383e-06
1.8283e-06
2.17455e-06
2.48731e-06
2.74619e-06
2.96305e-06
3.15938e-06
3.35156e-06
3.54372e-06
3.72399e-06
3.88048e-06
4.00026e-06
4.06741e-06
4.06567e-06
3.98069e-06
3.80139e-06
3.52101e-06
3.13748e-06
2.65338e-06
2.07559e-06
1.4147e-06
6.84176e-07
-1.0083e-07
-9.24543e-07
-1.77169e-06
-2.62802e-06
-1.06783e-06
-1.04488e-06
-1.01168e-06
-9.68075e-07
-9.13599e-07
-8.48409e-07
-7.72704e-07
-6.87255e-07
-5.93455e-07
-4.89677e-07
-3.76001e-07
-2.57487e-07
-1.29925e-07
1.33739e-08
1.73096e-07
3.52004e-07
5.53221e-07
7.78629e-07
1.02872e-06
1.30185e-06
1.59118e-06
1.88557e-06
2.15601e-06
2.37978e-06
2.56109e-06
2.71888e-06
2.86067e-06
2.98316e-06
3.08026e-06
3.14658e-06
3.17211e-06
3.14514e-06
3.05508e-06
2.89334e-06
2.65384e-06
2.3335e-06
1.93242e-06
1.45376e-06
9.03455e-07
2.89785e-07
-3.77207e-07
-1.08645e-06
-1.82652e-06
-2.58635e-06
-3.35553e-06
-5.62503e-07
-5.71629e-07
-5.7168e-07
-5.62672e-07
-5.44388e-07
-5.16709e-07
-4.79654e-07
-4.33348e-07
-3.78246e-07
-3.1399e-07
-2.41416e-07
-1.62862e-07
-7.27174e-08
3.2703e-08
1.52057e-07
2.87029e-07
4.40278e-07
6.13202e-07
8.06549e-07
1.01911e-06
1.24645e-06
1.48203e-06
1.69962e-06
1.87635e-06
2.01762e-06
2.13344e-06
2.2216e-06
2.27757e-06
2.3036e-06
2.29649e-06
2.24841e-06
2.15162e-06
2.00002e-06
1.78909e-06
1.51593e-06
1.17946e-06
7.80629e-07
3.22334e-07
-1.90737e-07
-7.52434e-07
-1.3555e-06
-1.99202e-06
-2.65385e-06
-3.33302e-06
-4.02197e-06
-2.45514e-08
-7.42462e-08
-1.15548e-07
-1.48621e-07
-1.73503e-07
-1.90183e-07
-1.9868e-07
-1.99039e-07
-1.91412e-07
-1.75704e-07
-1.51618e-07
-1.18536e-07
-7.49219e-08
-1.97638e-08
4.75008e-08
1.28259e-07
2.24451e-07
3.36998e-07
4.66668e-07
6.12618e-07
7.71626e-07
9.4073e-07
1.09909e-06
1.233e-06
1.32821e-06
1.40077e-06
1.43801e-06
1.44172e-06
1.41474e-06
1.35456e-06
1.25643e-06
1.11611e-06
9.30421e-07
6.97119e-07
4.14879e-07
8.34968e-08
-2.95924e-07
-7.21012e-07
-1.1883e-06
-1.69344e-06
-2.23136e-06
-2.79652e-06
-3.38318e-06
-3.98567e-06
-4.59852e-06
5.3424e-07
4.3193e-07
3.37506e-07
2.50951e-07
1.72071e-07
1.00724e-07
3.68926e-08
-1.93435e-08
-6.78546e-08
-1.08338e-07
-1.40351e-07
-1.63555e-07
-1.77423e-07
-1.8112e-07
-1.73581e-07
-1.53643e-07
-1.20233e-07
-7.22886e-08
-9.58991e-09
6.75995e-08
1.57984e-07
2.54485e-07
3.45817e-07
4.25335e-07
4.97491e-07
5.32955e-07
5.33219e-07
5.03748e-07
4.4525e-07
3.55896e-07
2.33573e-07
7.63789e-08
-1.17281e-07
-3.48635e-07
-6.18396e-07
-9.26514e-07
-1.27206e-06
-1.65326e-06
-2.06771e-06
-2.51246e-06
-2.98411e-06
-3.47887e-06
-3.9928e-06
-4.52189e-06
-5.06222e-06
1.00866e-06
8.49122e-07
6.97733e-07
5.54311e-07
4.18554e-07
2.90281e-07
1.69485e-07
5.63084e-08
-4.90151e-08
-1.46186e-07
-2.34882e-07
-3.14743e-07
-3.85221e-07
-4.45526e-07
-4.94705e-07
-5.31886e-07
-5.56056e-07
-5.66341e-07
-5.62399e-07
-5.43163e-07
-5.11444e-07
-4.71566e-07
-4.23652e-07
-3.80426e-07
-3.52742e-07
-3.50235e-07
-3.71622e-07
-4.16706e-07
-4.86817e-07
-5.82916e-07
-7.05788e-07
-8.56608e-07
-1.03678e-06
-1.24741e-06
-1.48902e-06
-1.76152e-06
-2.06423e-06
-2.39596e-06
-2.75516e-06
-3.13988e-06
-3.5479e-06
-3.97669e-06
-4.42355e-06
-4.88571e-06
-5.36041e-06
1.37006e-06
1.15582e-06
9.50154e-07
7.52934e-07
5.63928e-07
3.83037e-07
2.10352e-07
4.60961e-08
-1.09463e-07
-2.56031e-07
-3.93258e-07
-5.20691e-07
-6.37744e-07
-7.43707e-07
-8.37821e-07
-9.1919e-07
-9.86988e-07
-1.04038e-06
-1.0785e-06
-1.10181e-06
-1.11095e-06
-1.10568e-06
-1.09416e-06
-1.08543e-06
-1.08682e-06
-1.10076e-06
-1.13029e-06
-1.17844e-06
-1.24692e-06
-1.3366e-06
-1.44838e-06
-1.58342e-06
-1.74293e-06
-1.92777e-06
-2.13838e-06
-2.37479e-06
-2.63669e-06
-2.92339e-06
-3.23393e-06
-3.56708e-06
-3.92136e-06
-4.29508e-06
-4.68642e-06
-5.09344e-06
-5.51422e-06
1.61612e-06
1.35477e-06
1.10283e-06
8.60286e-07
6.27056e-07
4.03181e-07
1.88827e-07
-1.57569e-08
-2.10285e-07
-3.94415e-07
-5.67741e-07
-7.29783e-07
-8.8e-07
-1.01778e-06
-1.14242e-06
-1.25316e-06
-1.34926e-06
-1.42992e-06
-1.49486e-06
-1.54418e-06
-1.57727e-06
-1.5961e-06
-1.60734e-06
-1.61741e-06
-1.62949e-06
-1.64818e-06
-1.67852e-06
-1.72374e-06
-1.78556e-06
-1.86519e-06
-1.96385e-06
-2.08278e-06
-2.22301e-06
-2.38531e-06
-2.57012e-06
-2.77764e-06
-3.00781e-06
-3.26033e-06
-3.53463e-06
-3.82994e-06
-4.1453e-06
-4.47958e-06
-4.83151e-06
-5.1997e-06
-5.58273e-06
1.7838e-06
1.48384e-06
1.19444e-06
9.15679e-07
6.47585e-07
3.90291e-07
1.44025e-07
-9.09094e-08
-3.1417e-07
-5.25379e-07
-7.24133e-07
-9.09994e-07
-1.08249e-06
-1.24106e-06
-1.38516e-06
-1.51413e-06
-1.62744e-06
-1.72454e-06
-1.80502e-06
-1.86908e-06
-1.91736e-06
-1.95229e-06
-1.97716e-06
-1.99569e-06
-2.0131e-06
-2.03499e-06
-2.0657e-06
-2.10807e-06
-2.16414e-06
-2.23558e-06
-2.32379e-06
-2.42997e-06
-2.55507e-06
-2.69988e-06
-2.86499e-06
-3.05081e-06
-3.25751e-06
-3.48503e-06
-3.73311e-06
-4.00132e-06
-4.28908e-06
-4.59562e-06
-4.92005e-06
-5.26138e-06
-5.61852e-06
1.90053e-06
1.56999e-06
1.25119e-06
9.44307e-07
6.49501e-07
3.67003e-07
9.71263e-08
-1.59776e-07
-4.03348e-07
-6.33228e-07
-8.49059e-07
-1.05046e-06
-1.23703e-06
-1.40833e-06
-1.56395e-06
-1.70343e-06
-1.82647e-06
-1.93277e-06
-2.02215e-06
-2.09517e-06
-2.15314e-06
-2.19766e-06
-2.23008e-06
-2.25458e-06
-2.27683e-06
-2.30172e-06
-2.33298e-06
-2.37353e-06
-2.42566e-06
-2.4912e-06
-2.5716e-06
-2.66813e-06
-2.78187e-06
-2.91376e-06
-3.06454e-06
-3.23473e-06
-3.42466e-06
-3.6345e-06
-3.86422e-06
-4.11366e-06
-4.38249e-06
-4.67024e-06
-4.97628e-06
-5.2999e-06
-5.64029e-06
1.98435e-06
1.62998e-06
1.28857e-06
9.60392e-07
6.45702e-07
3.4481e-07
5.80693e-08
-2.14164e-07
-4.71559e-07
-7.13794e-07
-9.40568e-07
-1.15157e-06
-1.34651e-06
-1.52509e-06
-1.68707e-06
-1.83222e-06
-1.96033e-06
-2.07144e-06
-2.16601e-06
-2.24464e-06
-2.30821e-06
-2.35831e-06
-2.39625e-06
-2.42586e-06
-2.45228e-06
-2.47988e-06
-2.5122e-06
-2.55212e-06
-2.60194e-06
-2.6636e-06
-2.73869e-06
-2.82863e-06
-2.93464e-06
-3.05772e-06
-3.1987e-06
-3.35822e-06
-3.5368e-06
-3.73476e-06
-3.95229e-06
-4.18943e-06
-4.44603e-06
-4.72184e-06
-5.01646e-06
-5.32937e-06
-5.65998e-06
2.04637e-06
1.67378e-06
1.31531e-06
9.71311e-07
6.42087e-07
3.28e-07
2.94155e-08
-2.53322e-07
-5.19912e-07
-7.7008e-07
-1.00359e-06
-1.22022e-06
-1.4198e-06
-1.60217e-06
-1.76726e-06
-1.91504e-06
-2.0456e-06
-2.15933e-06
-2.25643e-06
-2.33802e-06
-2.40498e-06
-2.45904e-06
-2.50123e-06
-2.535e-06
-2.56504e-06
-2.59535e-06
-2.62919e-06
-2.66934e-06
-2.71817e-06
-2.77769e-06
-2.84963e-06
-2.93547e-06
-3.03651e-06
-3.15383e-06
-3.28839e-06
-3.44097e-06
-3.61222e-06
-3.80262e-06
-4.01249e-06
-4.24203e-06
-4.49127e-06
-4.7601e-06
-5.04831e-06
-5.35552e-06
-5.68129e-06
2.09322e-06
1.70671e-06
1.33537e-06
9.79589e-07
6.39736e-07
3.16199e-07
9.34898e-09
-2.80493e-07
-5.53065e-07
-8.08149e-07
-1.04558e-06
-1.26525e-06
-1.46708e-06
-1.65107e-06
-1.8173e-06
-1.9659e-06
-2.09721e-06
-2.21165e-06
-2.31017e-06
-2.39325e-06
-2.46239e-06
-2.5192e-06
-2.56457e-06
-2.60174e-06
-2.63496e-06
-2.66779e-06
-2.70331e-06
-2.74422e-06
-2.79294e-06
-2.85151e-06
-2.92171e-06
-3.0051e-06
-3.10305e-06
-3.21676e-06
-3.34729e-06
-3.49555e-06
-3.66229e-06
-3.8481e-06
-4.05346e-06
-4.27866e-06
-4.5239e-06
-4.78918e-06
-5.07442e-06
-5.37937e-06
-5.7037e-06
2.12843e-06
1.73116e-06
1.35001e-06
9.8539e-07
6.37723e-07
3.07413e-07
-5.18113e-09
-2.9977e-07
-5.76136e-07
-8.34123e-07
-1.07364e-06
-1.29467e-06
-1.49725e-06
-1.68152e-06
-1.84769e-06
-1.99606e-06
-2.12715e-06
-2.2415e-06
-2.34018e-06
-2.42391e-06
-2.4943e-06
-2.55287e-06
-2.60053e-06
-2.64041e-06
-2.67624e-06
-2.71123e-06
-2.74833e-06
-2.79021e-06
-2.83924e-06
-2.8975e-06
-2.96679e-06
-3.04876e-06
-3.14484e-06
-3.25636e-06
-3.38443e-06
-3.53008e-06
-3.69415e-06
-3.87736e-06
-4.08028e-06
-4.30333e-06
-4.5468e-06
-4.81081e-06
-5.09536e-06
-5.40031e-06
-5.72541e-06
2.15412e-06
1.74841e-06
1.35966e-06
9.88326e-07
6.34851e-07
2.9965e-07
-1.69427e-08
-3.14671e-07
-5.93362e-07
-8.5292e-07
-1.09333e-06
-1.31465e-06
-1.51704e-06
-1.70073e-06
-1.8661e-06
-2.01357e-06
-2.14378e-06
-2.25742e-06
-2.35562e-06
-2.43935e-06
-2.51026e-06
-2.56982e-06
-2.61904e-06
-2.6609e-06
-2.69871e-06
-2.73542e-06
-2.77386e-06
-2.81665e-06
-2.86612e-06
-2.92433e-06
-2.99315e-06
-3.07428e-06
-3.16922e-06
-3.27937e-06
-3.40594e-06
-3.55004e-06
-3.71261e-06
-3.89446e-06
-4.09627e-06
-4.31853e-06
-4.56164e-06
-4.8258e-06
-5.1111e-06
-5.41746e-06
-5.74469e-06
2.17191e-06
1.75943e-06
1.36468e-06
9.88139e-07
6.30273e-07
2.91489e-07
-2.79027e-08
-3.2768e-07
-6.07715e-07
-8.67966e-07
-1.10849e-06
-1.32943e-06
-1.53103e-06
-1.71364e-06
-1.87772e-06
-2.02386e-06
-2.15276e-06
-2.26528e-06
-2.3626e-06
-2.44585e-06
-2.51672e-06
-2.57665e-06
-2.62677e-06
-2.66997e-06
-2.70917e-06
-2.74712e-06
-2.78658e-06
-2.83008e-06
-2.8799e-06
-2.93813e-06
-3.00664e-06
-3.08719e-06
-3.18136e-06
-3.29059e-06
-3.4162e-06
-3.55937e-06
-3.72112e-06
-3.90235e-06
-4.10382e-06
-4.32612e-06
-4.5697e-06
-4.83485e-06
-5.12172e-06
-5.43029e-06
-5.76043e-06
2.18318e-06
1.76516e-06
1.36556e-06
9.84888e-07
6.23628e-07
2.82169e-07
-3.92006e-08
-3.40293e-07
-6.21023e-07
-8.81402e-07
-1.12155e-06
-1.34169e-06
-1.54214e-06
-1.72335e-06
-1.88589e-06
-2.03042e-06
-2.15777e-06
-2.2689e-06
-2.36508e-06
-2.44749e-06
-2.51789e-06
-2.57771e-06
-2.6282e-06
-2.67216e-06
-2.71223e-06
-2.75099e-06
-2.79111e-06
-2.83506e-06
-2.88507e-06
-2.94322e-06
-3.01144e-06
-3.09149e-06
-3.18503e-06
-3.29357e-06
-3.41849e-06
-3.56104e-06
-3.72233e-06
-3.90334e-06
-4.10489e-06
-4.32765e-06
-4.57214e-06
-4.83872e-06
-5.12758e-06
-5.43876e-06
-5.77215e-06
2.18923e-06
1.76655e-06
1.36294e-06
9.78912e-07
6.14959e-07
2.71455e-07
-5.13363e-08
-3.53257e-07
-6.34263e-07
-8.94416e-07
-1.1339e-06
-1.35299e-06
-1.5521e-06
-1.73176e-06
-1.8926e-06
-2.0354e-06
-2.16107e-06
-2.27061e-06
-2.36549e-06
-2.44682e-06
-2.51645e-06
-2.57579e-06
-2.62623e-06
-2.6705e-06
-2.71098e-06
-2.75017e-06
-2.79064e-06
-2.83476e-06
-2.88476e-06
-2.9427e-06
-3.01053e-06
-3.09007e-06
-3.18301e-06
-3.29093e-06
-3.41526e-06
-3.55734e-06
-3.71834e-06
-3.8993e-06
-4.10112e-06
-4.32454e-06
-4.57013e-06
-4.8383e-06
-5.1293e-06
-5.44321e-06
-5.77993e-06
2.19121e-06
1.76454e-06
1.35753e-06
9.70709e-07
6.04562e-07
2.59448e-07
-6.43882e-08
-3.66821e-07
-6.47842e-07
-9.07561e-07
-1.14621e-06
-1.36414e-06
-1.56183e-06
-1.73986e-06
-1.89897e-06
-2.03999e-06
-2.16393e-06
-2.27187e-06
-2.36528e-06
-2.44537e-06
-2.51403e-06
-2.57262e-06
-2.62269e-06
-2.66691e-06
-2.70747e-06
-2.74677e-06
-2.78729e-06
-2.83135e-06
-2.88114e-06
-2.93872e-06
-3.00607e-06
-3.08503e-06
-3.17733e-06
-3.28462e-06
-3.40839e-06
-3.55002e-06
-3.71077e-06
-3.89174e-06
-4.09388e-06
-4.31799e-06
-4.56471e-06
-4.83448e-06
-5.12761e-06
-5.44419e-06
-5.78417e-06
2.19014e-06
1.76e-06
1.35005e-06
9.60846e-07
5.92862e-07
2.46444e-07
-7.81857e-08
-3.80928e-07
-6.6181e-07
-9.20984e-07
-1.15873e-06
-1.37546e-06
-1.57171e-06
-1.74812e-06
-1.90551e-06
-2.04478e-06
-2.16699e-06
-2.27332e-06
-2.36521e-06
-2.44398e-06
-2.51155e-06
-2.56922e-06
-2.61869e-06
-2.66259e-06
-2.70296e-06
-2.74213e-06
-2.78248e-06
-2.82628e-06
-2.87569e-06
-2.93278e-06
-2.99953e-06
-3.07783e-06
-3.16945e-06
-3.27607e-06
-3.39924e-06
-3.54042e-06
-3.7009e-06
-3.88185e-06
-4.08429e-06
-4.30905e-06
-4.55683e-06
-4.82812e-06
-5.12326e-06
-5.44236e-06
-5.7854e-06
2.18689e-06
1.75369e-06
1.34117e-06
9.49902e-07
5.80348e-07
2.32843e-07
-9.24089e-08
-3.95334e-07
-6.75993e-07
-9.34577e-07
-1.17141e-06
-1.38695e-06
-1.5818e-06
-1.75665e-06
-1.91238e-06
-2.04995e-06
-2.17049e-06
-2.27522e-06
-2.36563e-06
-2.44305e-06
-2.50947e-06
-2.56613e-06
-2.61484e-06
-2.65823e-06
-2.69824e-06
-2.73709e-06
-2.77709e-06
-2.82048e-06
-2.86938e-06
-2.92588e-06
-2.99196e-06
-3.06953e-06
-3.16041e-06
-3.26632e-06
-3.38887e-06
-3.52955e-06
-3.68972e-06
-3.8706e-06
-4.07326e-06
-4.29859e-06
-4.54732e-06
-4.82e-06
-5.11697e-06
-5.43839e-06
-5.78425e-06
2.18221e-06
1.74629e-06
1.3315e-06
9.38423e-07
5.67508e-07
2.19081e-07
-1.06672e-07
-4.09703e-07
-6.901e-07
-9.4809e-07
-1.18404e-06
-1.39845e-06
-1.59196e-06
-1.76534e-06
-1.91951e-06
-2.05547e-06
-2.17442e-06
-2.27763e-06
-2.36657e-06
-2.44272e-06
-2.50797e-06
-2.56357e-06
-2.61144e-06
-2.65422e-06
-2.69373e-06
-2.73213e-06
-2.77168e-06
-2.81455e-06
-2.86286e-06
-2.91869e-06
-2.98404e-06
-3.06084e-06
-3.15095e-06
-3.25612e-06
-3.37801e-06
-3.51816e-06
-3.67798e-06
-3.85874e-06
-4.06155e-06
-4.28735e-06
-4.5369e-06
-4.81079e-06
-5.10941e-06
-5.43292e-06
-5.78133e-06
2.17651e-06
1.73815e-06
1.32134e-06
9.2665e-07
5.54538e-07
2.05314e-07
-1.20854e-07
-4.23936e-07
-7.04052e-07
-9.61459e-07
-1.19656e-06
-1.4099e-06
-1.60216e-06
-1.77416e-06
-1.92684e-06
-2.06129e-06
-2.17874e-06
-2.28049e-06
-2.36802e-06
-2.44299e-06
-2.50705e-06
-2.56158e-06
-2.60856e-06
-2.65064e-06
-2.68958e-06
-2.72746e-06
-2.76646e-06
-2.80873e-06
-2.85639e-06
-2.9115e-06
-2.97608e-06
-3.05208e-06
-3.14139e-06
-3.2458e-06
-3.36701e-06
-3.5066e-06
-3.66603e-06
-3.8466e-06
-4.04948e-06
-4.27565e-06
-4.52591e-06
-4.80087e-06
-5.10094e-06
-5.42633e-06
-5.77705e-06
2.16977e-06
1.72908e-06
1.31034e-06
9.14137e-07
5.40903e-07
1.90944e-07
-1.35589e-07
-4.3869e-07
-7.18502e-07
-9.75315e-07
-1.20957e-06
-1.42184e-06
-1.61286e-06
-1.78349e-06
-1.93472e-06
-2.06768e-06
-2.18363e-06
-2.28391e-06
-2.37005e-06
-2.44379e-06
-2.50666e-06
-2.56008e-06
-2.60609e-06
-2.64739e-06
-2.68567e-06
-2.72293e-06
-2.7613e-06
-2.80289e-06
-2.84981e-06