/*--------------------------------*- C++ -*----------------------------------*\
| =========                 |                                                 |
| \\      /  F ield         | OpenFOAM: The Open Source CFD Toolbox           |
|  \\    /   O peration     | Version:  2312                                  |
|   \\  /    A nd           | Website:  www.openfoam.com                      |
|    \\/     M anipulation  |                                                 |
\*---------------------------------------------------------------------------*/
FoamFile
{
    version     2.0;
    format      ascii;
    arch        "LSB;label=32;scalar=64";
    class       volVectorField;
    location    "30";
    object      U;
}
// * * * * * * * * * * * * * * * * * * * * * * * * * * * * * * * * * * * * * //

dimensions      [0 1 -1 0 0 0 0];

internalField   nonuniform List<vector> 
4800
(
(0.000466981 2.49571e-07 -1.67903e-26)
(0.000461471 2.17008e-07 -1.15588e-25)
(0.000459129 1.73904e-07 1.49041e-25)
(0.000459068 1.33952e-07 6.5758e-26)
(0.000460071 1.22115e-07 9.63918e-25)
(0.000461951 8.41631e-08 -2.29832e-24)
(0.00046448 1.90562e-08 2.14691e-24)
(0.000467656 -7.56987e-08 -3.1157e-24)
(0.000471497 -2.15777e-07 9.94968e-25)
(0.000476174 -4.48121e-07 3.42996e-24)
(0.000482121 -9.28207e-07 -1.05496e-24)
(0.000490657 -2.30655e-06 -8.55813e-26)
(0.000509227 -7.49378e-06 -1.30836e-24)
(0.000555416 -2.83703e-05 6.44145e-25)
(0.000629117 -8.93543e-05 -5.21149e-25)
(0.00144938 1.31666e-06 -5.29934e-26)
(0.0014332 7.32024e-07 6.59936e-26)
(0.00142629 2.61507e-07 -5.8654e-25)
(0.00142598 -1.39301e-07 4.39704e-25)
(0.00142857 -4.32851e-07 1.3755e-24)
(0.00143381 -7.81887e-07 -2.20321e-24)
(0.00144088 -1.21315e-06 -6.28762e-25)
(0.00144968 -1.77378e-06 -1.53087e-25)
(0.00146029 -2.55896e-06 5.16551e-24)
(0.0014732 -3.80609e-06 -3.82852e-24)
(0.00148963 -6.17938e-06 4.15949e-25)
(0.00151233 -1.19095e-05 6.4512e-25)
(0.00155033 -2.87045e-05 -9.72267e-25)
(0.00161355 -7.99787e-05 -3.28896e-25)
(0.00167902 -0.000192976 1.31452e-24)
(0.00254096 4.12973e-06 -3.78429e-26)
(0.00251397 2.27479e-06 3.87536e-26)
(0.00250234 8.16212e-07 3.83647e-25)
(0.00250158 -4.02365e-07 -9.00374e-25)
(0.00250537 -1.37637e-06 8.7372e-25)
(0.00251363 -2.4821e-06 8.26544e-25)
(0.00252486 -3.76032e-06 -2.1523e-24)
(0.0025387 -5.38421e-06 -1.33646e-24)
(0.00255523 -7.63836e-06 3.19894e-24)
(0.00257504 -1.11372e-05 1.22155e-24)
(0.0025995 -1.7352e-05 -4.24929e-24)
(0.00263079 -3.02068e-05 -6.72698e-25)
(0.00267301 -5.90962e-05 1.82824e-24)
(0.00272451 -0.00012302 2.95831e-24)
(0.00276013 -0.000227465 -1.53685e-24)
(0.00374819 9.05194e-06 1.39771e-26)
(0.00371045 5.03065e-06 -9.61942e-26)
(0.00369397 1.8771e-06 4.20828e-25)
(0.0036924 -6.99129e-07 4.30799e-25)
(0.00369694 -2.75677e-06 -4.33841e-25)
(0.00370761 -5.11674e-06 -2.51467e-24)
(0.00372231 -7.74834e-06 -1.72167e-24)
(0.00374021 -1.10085e-05 6.45994e-24)
(0.00376128 -1.54375e-05 2.69585e-24)
(0.00378588 -2.20382e-05 -3.85426e-24)
(0.00381481 -3.28479e-05 -1.56317e-24)
(0.00384858 -5.22687e-05 -1.20766e-24)
(0.00388649 -8.80251e-05 3.33228e-26)
(0.00392138 -0.000149701 9.00796e-25)
(0.00393558 -0.000231309 4.39419e-27)
(0.00507481 1.64412e-05 -2.56641e-26)
(0.00502687 9.20546e-06 -1.54214e-25)
(0.00500561 3.55492e-06 -9.11166e-26)
(0.00500276 -9.99567e-07 2.56107e-25)
(0.00500766 -4.58366e-06 -7.03772e-25)
(0.00502 -8.70613e-06 1.78901e-24)
(0.00503722 -1.31848e-05 -3.16434e-25)
(0.00505791 -1.85454e-05 1.1153e-24)
(0.00508181 -2.55956e-05 -6.20625e-24)
(0.00510877 -3.55683e-05 1.18266e-23)
(0.00513868 -5.05402e-05 -1.14836e-23)
(0.00517047 -7.40608e-05 6.08903e-24)
(0.00520101 -0.000110682 -5.65905e-24)
(0.0052229 -0.00016319 5.32025e-24)
(0.00522648 -0.000223736 -2.10981e-24)
(0.00652004 2.66798e-05 3.39394e-26)
(0.00646343 1.5055e-05 1.18972e-25)
(0.00643802 6.04125e-06 -6.21686e-25)
(0.0064335 -1.16115e-06 -3.72979e-25)
(0.00643861 -6.83352e-06 1.01477e-24)
(0.00645199 -1.31662e-05 3.65713e-25)
(0.00647063 -1.99161e-05 -2.87643e-24)
(0.00649275 -2.77043e-05 6.87384e-24)
(0.0065177 -3.7531e-05 -8.95892e-24)
(0.00654476 -5.06304e-05 2.14597e-24)
(0.00657299 -6.86668e-05 6.57109e-24)
(0.00660046 -9.3753e-05 -9.13247e-24)
(0.00662371 -0.000127568 4.58534e-24)
(0.00663748 -0.000169461 4.61044e-24)
(0.00663762 -0.000213272 -3.49796e-24)
(0.00807649 3.99455e-05 2.80272e-26)
(0.00801437 2.27169e-05 -1.63775e-25)
(0.00798643 9.46991e-06 5.7573e-25)
(0.00798049 -9.78448e-07 -7.88779e-25)
(0.00798596 -9.50902e-06 -2.63037e-24)
(0.00800012 -1.84285e-05 4.49343e-24)
(0.00801922 -2.76862e-05 -2.72204e-24)
(0.00804159 -3.80568e-05 9.26414e-24)
(0.00806611 -5.05337e-05 -6.30446e-24)
(0.0080916 -6.6146e-05 -2.95051e-24)
(0.00811662 -8.59307e-05 -5.79359e-24)
(0.00813912 -0.000110681 5.3446e-24)
(0.00815647 -0.000140279 1.49597e-24)
(0.00816567 -0.000172936 1.24496e-24)
(0.00816568 -0.000204637 -1.09323e-24)
(0.00972823 5.58773e-05 -3.99964e-26)
(0.00966616 3.1974e-05 5.38979e-25)
(0.00963879 1.37338e-05 -1.24023e-24)
(0.00963309 -6.62455e-07 -9.78829e-25)
(0.00963955 -1.25532e-05 3.85272e-25)
(0.00965437 -2.43036e-05 7.29014e-25)
(0.00967371 -3.62557e-05 2.58652e-24)
(0.00969569 -4.91785e-05 -7.03175e-24)
(0.00971893 -6.39491e-05 -3.73476e-24)
(0.009742 -8.1282e-05 1.03246e-23)
(0.00976341 -0.00010161 -3.16579e-24)
(0.00978146 -0.00012486 1.08078e-23)
(0.00979457 -0.000150161 -5.68412e-24)
(0.00980132 -0.000175781 -1.76285e-24)
(0.00980217 -0.000199349 1.03526e-24)
(0.0114507 7.31305e-05 -5.12027e-27)
(0.0113969 4.19309e-05 2.95057e-25)
(0.0113749 1.82035e-05 -4.18898e-25)
(0.0113726 -6.24141e-07 9.76924e-25)
(0.0113816 -1.6217e-05 -5.77626e-24)
(0.0113978 -3.09897e-05 6.08854e-24)
(0.0114178 -4.56265e-05 -9.52047e-24)
(0.0114395 -6.08744e-05 5.87062e-24)
(0.0114614 -7.74295e-05 4.34461e-24)
(0.0114821 -9.56916e-05 9.33926e-24)
(0.0115005 -0.000115667 -1.21864e-23)
(0.0115153 -0.000136889 -2.17689e-24)
(0.0115258 -0.000158402 1.09573e-24)
(0.0115314 -0.00017895 7.12224e-24)
(0.0115333 -0.000197229 -2.85997e-24)
(0.0132147 8.89686e-05 2.55929e-26)
(0.0131789 5.06712e-05 -1.18729e-25)
(0.0131685 2.14317e-05 5.38797e-25)
(0.0131736 -1.91362e-06 -1.86928e-24)
(0.0131877 -2.13135e-05 2.814e-24)
(0.013207 -3.90947e-05 -3.60322e-24)
(0.0132287 -5.62231e-05 6.0017e-24)
(0.0132508 -7.34124e-05 1.02172e-24)
(0.0132721 -9.11799e-05 -8.20141e-24)
(0.0132915 -0.0001097 1.15543e-23)
(0.013308 -0.000128778 -1.26925e-23)
(0.013321 -0.000147892 -3.59682e-24)
(0.0133304 -0.000166301 6.46556e-24)
(0.0133361 -0.000183238 1.85947e-24)
(0.0133392 -0.00019805 -8.02026e-25)
(0.0149982 9.94429e-05 7.54745e-26)
(0.0149879 5.5238e-05 -8.69711e-25)
(0.0149942 2.10912e-05 -1.47541e-24)
(0.0150104 -6.3779e-06 3.47764e-24)
(0.0150321 -2.93005e-05 1.52913e-24)
(0.0150563 -4.98139e-05 -9.60168e-24)
(0.0150811 -6.90441e-05 2.98705e-24)
(0.0151049 -8.76716e-05 2.14119e-24)
(0.0151267 -0.000106085 -8.96016e-24)
(0.0151458 -0.000124356 9.43886e-24)
(0.0151619 -0.000142272 -7.23896e-24)
(0.0151747 -0.00015944 1.87364e-23)
(0.0151844 -0.000175395 -8.82579e-24)
(0.015191 -0.000189744 5.1061e-24)
(0.0151957 -0.000202212 -1.37004e-24)
(0.0168003 0.000101008 8.49896e-27)
(0.0168158 5.26243e-05 5.08794e-25)
(0.0168395 1.46346e-05 -1.12697e-24)
(0.0168677 -1.61535e-05 -5.94911e-25)
(0.0168976 -4.19546e-05 6.59739e-24)
(0.0169274 -6.4669e-05 -9.84769e-25)
(0.0169558 -8.54451e-05 -1.16319e-23)
(0.0169818 -0.000104939 1.34688e-23)
(0.0170049 -0.000123485 -3.06636e-24)
(0.0170249 -0.000141153 -1.0252e-23)
(0.0170416 -0.000157824 1.07898e-23)
(0.0170551 -0.000173287 5.55506e-24)
(0.0170659 -0.00018732 -4.92464e-24)
(0.017074 -0.000199776 -8.07124e-24)
(0.0170806 -0.000210594 6.62738e-25)
(0.018646 9.33007e-05 -4.0156e-26)
(0.0186782 4.19639e-05 -4.66968e-25)
(0.0187135 1.13668e-06 2.77567e-24)
(0.0187497 -3.21584e-05 2.74272e-25)
(0.018785 -6.01155e-05 1.74217e-24)
(0.0188183 -8.44208e-05 -6.1425e-24)
(0.0188488 -0.000106169 5.22212e-24)
(0.0188761 -0.000126012 1.13143e-24)
(0.0189001 -0.000144296 1.0435e-23)
(0.0189206 -0.000161162 -1.63187e-23)
(0.018938 -0.000176621 -7.19266e-24)
(0.0189523 -0.000190631 -4.53788e-24)
(0.0189643 -0.000203152 8.72547e-24)
(0.0189737 -0.000214188 -2.25371e-25)
(0.018982 -0.000223791 8.06299e-25)
(0.0205622 8.0051e-05 -3.59131e-26)
(0.0205982 2.60144e-05 3.07133e-25)
(0.0206356 -1.71983e-05 -4.71258e-25)
(0.0206725 -5.25415e-05 -2.11143e-26)
(0.0207076 -8.21709e-05 1.13267e-24)
(0.0207401 -0.000107632 2.95512e-24)
(0.0207695 -0.000129969 -1.14247e-23)
(0.0207955 -0.000149855 1.00636e-24)
(0.0208183 -0.000167702 5.80319e-24)
(0.0208378 -0.000183753 -2.56798e-24)
(0.0208546 -0.000198149 7.05778e-24)
(0.0208687 -0.000210983 4.73056e-24)
(0.0208807 -0.000222337 -8.65757e-24)
(0.0208906 -0.000232305 5.68699e-24)
(0.0208994 -0.000241 -4.70727e-24)
(0.022538 6.58174e-05 -8.53257e-25)
(0.0225697 9.14037e-06 1.12432e-24)
(0.0226022 -3.62219e-05 2.76974e-25)
(0.022634 -7.33546e-05 -3.78e-24)
(0.0226641 -0.00010438 3.51184e-24)
(0.0226918 -0.000130763 -3.03795e-24)
(0.0227168 -0.000153524 2.14254e-24)
(0.0227388 -0.000173383 -1.57762e-23)
(0.0227582 -0.000190834 2.27604e-23)
(0.0227749 -0.000206228 -1.32474e-23)
(0.0227893 -0.000219811 1.17826e-23)
(0.0228015 -0.000231777 9.49209e-24)
(0.0228122 -0.000242288 -1.65401e-23)
(0.0228211 -0.000251492 5.29265e-24)
(0.0228292 -0.00025953 -2.17001e-25)
(0.0245066 5.22506e-05 -2.84631e-26)
(0.0245333 -6.15096e-06 1.42291e-24)
(0.0245597 -5.30865e-05 -1.57724e-24)
(0.024585 -9.1552e-05 -8.3329e-26)
(0.0246086 -0.000123598 1.03629e-24)
(0.0246301 -0.000150632 -2.00956e-24)
(0.0246494 -0.000173668 2.13018e-24)
(0.0246665 -0.000193473 -7.20851e-24)
(0.0246814 -0.000210617 1.66498e-23)
(0.0246943 -0.00022553 -2.14482e-23)
(0.0247054 -0.000238538 1.75334e-23)
(0.0247149 -0.000249899 -5.90485e-24)
(0.0247232 -0.000259826 2.79813e-25)
(0.0247302 -0.000268496 1.24765e-24)
(0.0247366 -0.000276068 -2.44728e-24)
(0.0263629 3.81337e-05 -2.32513e-24)
(0.0263868 -2.04167e-05 6.04407e-24)
(0.026409 -6.78477e-05 -4.22634e-24)
(0.0264291 -0.000106806 8.76802e-25)
(0.0264474 -0.000139222 -4.98121e-25)
(0.0264638 -0.000166436 -1.0814e-25)
(0.0264783 -0.000189451 -1.19843e-24)
(0.0264909 -0.000209058 -3.52653e-24)
(0.0265019 -0.000225867 1.301e-24)
(0.0265112 -0.000240354 8.81733e-24)
(0.0265193 -0.000252889 -4.77345e-24)
(0.0265261 -0.000263767 2.9168e-24)
(0.026532 -0.000273224 -1.21363e-24)
(0.0265369 -0.000281456 -3.51523e-24)
(0.0265414 -0.000288625 1.78724e-24)
(0.0279832 2.15756e-05 7.70068e-25)
(0.0280057 -3.52818e-05 -1.53888e-24)
(0.0280254 -8.18176e-05 -3.53443e-24)
(0.0280423 -0.000120314 8.63607e-24)
(0.028057 -0.000152377 -1.54567e-24)
(0.0280699 -0.000179235 -4.93097e-24)
(0.0280811 -0.000201865 2.2598e-24)
(0.0280907 -0.000221054 -1.02585e-25)
(0.028099 -0.000237415 -2.17529e-25)
(0.0281059 -0.000251433 -6.25726e-25)
(0.0281117 -0.000263488 1.31242e-24)
(0.0281165 -0.000273887 9.6716e-25)
(0.0281207 -0.000282876 -3.47435e-24)
(0.028124 -0.000290654 2.50669e-24)
(0.028127 -0.000297381 -5.28483e-25)
(0.0292204 3.11768e-06 2.32003e-24)
(0.0292426 -5.08142e-05 5.40682e-24)
(0.0292609 -9.55372e-05 -1.14021e-23)
(0.0292759 -0.000132781 -5.2111e-24)
(0.0292886 -0.000163857 9.64429e-24)
(0.0292992 -0.000189887 5.38858e-24)
(0.0293081 -0.000211803 1.30174e-24)
(0.0293155 -0.000230356 -9.94474e-24)
(0.0293215 -0.000246132 -4.04991e-24)
(0.0293263 -0.000259595 8.82152e-24)
(0.0293301 -0.000271111 -3.89293e-24)
(0.029333 -0.000280976 1.97019e-25)
(0.0293351 -0.000289426 6.53049e-26)
(0.0293366 -0.000296657 -5.42622e-26)
(0.0293376 -0.000302819 1.48414e-26)
(0.0298834 -1.78767e-05 -6.24645e-24)
(0.0299028 -6.71721e-05 -1.60998e-23)
(0.029917 -0.000108511 4.89425e-24)
(0.0299272 -0.000143081 3.54938e-23)
(0.0299346 -0.000171976 -1.08619e-23)
(0.02994 -0.000196193 -7.94403e-24)
(0.0299438 -0.000216574 5.31011e-24)
(0.0299463 -0.000233797 1.64754e-23)
(0.0299476 -0.000248396 -3.17442e-23)
(0.0299479 -0.000260792 1.21566e-23)
(0.0299475 -0.000271317 -1.87569e-24)
(0.0299464 -0.000280244 4.71267e-24)
(0.0299447 -0.000287785 3.02437e-24)
(0.0299425 -0.00029412 -3.87173e-24)
(0.02994 -0.000299382 1.44512e-24)
(0.0297415 -4.16586e-05 1.01177e-23)
(0.0297591 -8.50915e-05 -2.41758e-23)
(0.0297717 -0.000121709 3.12215e-24)
(0.0297805 -0.00015237 4.31576e-23)
(0.0297865 -0.000177996 -4.49021e-23)
(0.0297904 -0.00019945 1.88586e-23)
(0.0297925 -0.000217464 2.16664e-23)
(0.0297933 -0.000232626 -5.12206e-23)
(0.0297928 -0.000245396 -2.05165e-24)
(0.0297914 -0.000256144 1.99663e-23)
(0.0297891 -0.000265157 6.86837e-24)
(0.0297862 -0.000272669 -5.73021e-24)
(0.0297826 -0.00027886 5.33024e-24)
(0.0297785 -0.000283885 -2.40772e-24)
(0.0297738 -0.000287859 9.20718e-25)
(0.0288318 -5.97699e-05 6.37631e-24)
(0.0288422 -9.72029e-05 -1.3768e-23)
(0.0288484 -0.000128867 -1.07172e-23)
(0.0288516 -0.000155473 5.03573e-23)
(0.0288525 -0.000177797 -4.86752e-23)
(0.0288516 -0.000196546 4.33554e-24)
(0.0288493 -0.000212308 9.0279e-24)
(0.0288457 -0.000225553 6.08711e-24)
(0.0288412 -0.000236655 7.30068e-24)
(0.028836 -0.000245913 -4.04184e-23)
(0.0288299 -0.00025356 2.53258e-23)
(0.0288233 -0.000259784 -9.79259e-26)
(0.0288161 -0.000264736 1.64208e-23)
(0.0288086 -0.000268541 -7.70464e-24)
(0.0288005 -0.000271298 -1.89435e-24)
(0.0273641 -7.05739e-05 1.60104e-23)
(0.0273718 -0.000102422 -2.88012e-23)
(0.0273751 -0.00012948 5.76796e-24)
(0.0273752 -0.000152352 -1.57733e-23)
(0.0273728 -0.000171652 -2.22983e-23)
(0.0273686 -0.000187913 7.27591e-23)
(0.0273627 -0.00020158 -2.96422e-23)
(0.0273556 -0.000213017 9.15619e-24)
(0.0273475 -0.000222515 -5.4246e-24)
(0.0273386 -0.000230312 -1.64882e-23)
(0.0273289 -0.000236596 3.25339e-23)
(0.0273186 -0.000241523 -2.01354e-23)
(0.0273077 -0.000245215 2.32207e-24)
(0.0272965 -0.000247781 3.93335e-24)
(0.0272847 -0.000249303 -5.11076e-25)
(0.0255568 -7.83932e-05 6.2029e-24)
(0.0255599 -0.000104848 -3.26807e-23)
(0.0255588 -0.000127383 5.77656e-23)
(0.0255545 -0.000146485 -4.50543e-23)
(0.0255478 -0.000162632 4.70961e-23)
(0.0255393 -0.000176225 -1.50034e-23)
(0.0255291 -0.0001876 -1.08777e-23)
(0.0255178 -0.000197035 -1.31072e-23)
(0.0255054 -0.000204758 2.5511e-23)
(0.0254922 -0.000210954 8.84031e-25)
(0.0254783 -0.000215774 -2.66284e-23)
(0.0254638 -0.000219342 -4.30193e-24)
(0.0254487 -0.000221756 7.48955e-24)
(0.0254333 -0.000223107 -1.84582e-24)
(0.0254174 -0.000223465 4.43027e-25)
(0.0235474 -8.0437e-05 8.28138e-25)
(0.0235444 -0.000101887 -1.23131e-23)
(0.0235376 -0.000120239 -7.28213e-24)
(0.023528 -0.000135841 5.83201e-23)
(0.0235161 -0.000149043 -5.8281e-23)
(0.0235025 -0.000160137 1.72717e-23)
(0.0234875 -0.000169369 3.03878e-24)
(0.0234713 -0.000176947 -1.671e-24)
(0.0234543 -0.000183041 -8.45194e-24)
(0.0234365 -0.000187795 3.80907e-23)
(0.0234182 -0.000191325 -3.09306e-23)
(0.0233993 -0.000193728 -1.78406e-24)
(0.02338 -0.000195084 3.01006e-24)
(0.0233605 -0.000195465 3.19669e-24)
(0.0233406 -0.000194927 -2.56103e-24)
(0.0214324 -7.67421e-05 1.234e-24)
(0.0214231 -9.38891e-05 1.14507e-23)
(0.0214106 -0.000108623 -1.31123e-23)
(0.0213957 -0.000121183 -9.39037e-24)
(0.0213788 -0.000131822 6.08703e-23)
(0.0213604 -0.000140745 -4.65408e-23)
(0.0213408 -0.000148129 -9.13522e-25)
(0.0213203 -0.000154123 -1.02861e-23)
(0.0212991 -0.000158855 -1.02022e-24)
(0.0212774 -0.000162432 1.41034e-24)
(0.0212551 -0.000164943 -6.71836e-24)
(0.0212326 -0.000166463 4.92607e-24)
(0.0212099 -0.000167053 1.62647e-24)
(0.021187 -0.000166769 1.65218e-24)
(0.021164 -0.000165654 2.46663e-24)
(0.0192868 -6.88266e-05 8.79575e-24)
(0.0192724 -8.23944e-05 -1.3542e-23)
(0.0192553 -9.4099e-05 -1.11804e-23)
(0.0192363 -0.000104117 3.41948e-23)
(0.0192156 -0.000112627 -1.22267e-23)
(0.0191936 -0.000119769 -1.78955e-23)
(0.0191707 -0.000125664 6.17503e-24)
(0.0191472 -0.000130414 1.46974e-23)
(0.019123 -0.00013411 -2.41508e-23)
(0.0190985 -0.000136831 2.4637e-23)
(0.0190737 -0.000138641 -1.36943e-23)
(0.0190489 -0.000139597 6.21129e-24)
(0.0190239 -0.000139744 -9.0233e-24)
(0.018999 -0.000139127 9.3955e-24)
(0.0189743 -0.000137783 -2.4628e-24)
(0.017171 -5.85979e-05 -1.70645e-24)
(0.0171534 -6.92704e-05 -6.01009e-24)
(0.0171336 -7.85283e-05 -1.94266e-23)
(0.0171122 -8.65147e-05 5.43157e-23)
(0.0170893 -9.33416e-05 -9.54103e-24)
(0.0170654 -9.90938e-05 -1.56339e-23)
(0.0170408 -0.000103846 5.69124e-24)
(0.0170156 -0.000107669 -8.2049e-24)
(0.01699 -0.000110627 -1.87762e-23)
(0.0169642 -0.000112776 1.80083e-23)
(0.0169382 -0.00011416 8.63975e-25)
(0.0169123 -0.000114823 -6.78621e-24)
(0.0168864 -0.000114798 7.69672e-24)
(0.0168608 -0.000114121 5.902e-25)
(0.0168355 -0.000112822 -7.25415e-25)
(0.0151308 -4.78312e-05 6.56325e-24)
(0.0151119 -5.62009e-05 9.82695e-24)
(0.0150911 -6.352e-05 -9.00283e-24)
(0.0150689 -6.99028e-05 -2.02453e-23)
(0.0150454 -7.54032e-05 2.76308e-23)
(0.015021 -8.00662e-05 -3.06925e-23)
(0.0149959 -8.39396e-05 -1.5433e-24)
(0.0149704 -8.70719e-05 1.214e-23)
(0.0149445 -8.95062e-05 4.36492e-24)
(0.0149184 -9.12794e-05 -9.72285e-24)
(0.0148923 -9.24233e-05 -5.19477e-25)
(0.0148662 -9.29673e-05 2.15376e-23)
(0.0148404 -9.2937e-05 -8.29787e-24)
(0.0148149 -9.23592e-05 -2.33128e-24)
(0.0147897 -9.12559e-05 -1.6572e-25)
(0.0131965 -3.77245e-05 -6.81472e-24)
(0.0131777 -4.425e-05 8.78992e-24)
(0.0131572 -5.00177e-05 1.02679e-24)
(0.0131354 -5.51095e-05 1.83892e-23)
(0.0131123 -5.95361e-05 -1.48647e-23)
(0.0130884 -6.33196e-05 1.35192e-24)
(0.0130637 -6.6491e-05 -1.51424e-24)
(0.0130386 -6.90809e-05 -4.89767e-24)
(0.0130131 -7.11161e-05 4.64556e-24)
(0.0129875 -7.26199e-05 -1.50758e-23)
(0.0129617 -7.36139e-05 7.07844e-25)
(0.0129361 -7.41186e-05 3.59291e-24)
(0.0129107 -7.41521e-05 2.42886e-24)
(0.0128857 -7.37342e-05 1.0384e-24)
(0.0128611 -7.28803e-05 4.48709e-25)
(0.0113846 -2.88559e-05 5.04668e-24)
(0.0113668 -3.38817e-05 -3.98144e-24)
(0.0113474 -3.83859e-05 -1.78966e-23)
(0.0113266 -4.241e-05 1.68151e-23)
(0.0113046 -4.59378e-05 2.41113e-23)
(0.0112817 -4.89806e-05 -5.81072e-24)
(0.011258 -5.15577e-05 -1.25521e-23)
(0.0112338 -5.36865e-05 -1.8433e-23)
(0.0112092 -5.53827e-05 1.4076e-23)
(0.0111843 -5.66608e-05 9.52567e-25)
(0.0111593 -5.75352e-05 -3.4008e-24)
(0.0111344 -5.80195e-05 -1.06434e-24)
(0.0111097 -5.81261e-05 2.1559e-24)
(0.0110853 -5.78685e-05 -1.60597e-26)
(0.0110613 -5.72566e-05 -5.10905e-25)
(0.00970149 -2.13949e-05 -3.17631e-24)
(0.00968519 -2.51928e-05 -2.31457e-24)
(0.0096673 -2.86524e-05 2.75161e-24)
(0.00964798 -3.17727e-05 -9.06186e-24)
(0.00962743 -3.45284e-05 2.98646e-23)
(0.00960588 -3.69269e-05 -4.01983e-23)
(0.00958353 -3.89793e-05 4.00736e-23)
(0.00956053 -4.06944e-05 -1.71575e-23)
(0.00953706 -4.2081e-05 4.1389e-24)
(0.00951328 -4.31475e-05 2.42902e-25)
(0.00948932 -4.39032e-05 -3.26529e-24)
(0.00946534 -4.43566e-05 1.38276e-24)
(0.00944147 -4.45156e-05 -2.84719e-24)
(0.00941786 -4.43886e-05 -4.44101e-25)
(0.0093946 -4.39813e-05 2.38311e-25)
(0.00814689 -1.53098e-05 -1.54385e-24)
(0.00813234 -1.8106e-05 3.84914e-25)
(0.00811624 -2.06951e-05 8.64412e-25)
(0.00809867 -2.30444e-05 -4.12236e-24)
(0.00807987 -2.51326e-05 -1.94624e-24)
(0.00806002 -2.6966e-05 1.64669e-23)
(0.00803929 -2.855e-05 -9.74058e-24)
(0.00801786 -2.98884e-05 1.46448e-24)
(0.00799588 -3.09855e-05 -1.40191e-24)
(0.00797351 -3.18462e-05 -1.61646e-24)
(0.00795088 -3.24757e-05 -5.61939e-25)
(0.00792816 -3.2879e-05 3.34221e-24)
(0.00790547 -3.30607e-05 1.10236e-24)
(0.00788296 -3.30252e-05 -2.20626e-24)
(0.00786073 -3.27755e-05 -3.96001e-25)
(0.0067169 -1.04895e-05 -5.61723e-25)
(0.00670429 -1.24783e-05 -1.92627e-25)
(0.00669015 -1.43449e-05 -9.23608e-24)
(0.0066746 -1.60428e-05 2.35379e-24)
(0.0066578 -1.75613e-05 -6.91596e-24)
(0.00663995 -1.89053e-05 4.60075e-24)
(0.0066212 -2.00768e-05 9.14504e-24)
(0.00660169 -2.1077e-05 7.14443e-24)
(0.00658159 -2.19076e-05 -1.01876e-23)
(0.00656104 -2.25708e-05 3.07626e-24)
(0.00654018 -2.30696e-05 2.83253e-24)
(0.00651914 -2.34064e-05 -4.3214e-24)
(0.00649806 -2.35834e-05 2.31844e-24)
(0.00647707 -2.36026e-05 -2.82976e-25)
(0.00645629 -2.3465e-05 7.4147e-25)
(0.00540573 -6.79629e-06 -2.20176e-24)
(0.00539516 -8.14623e-06 -3.06259e-24)
(0.00538315 -9.42289e-06 -6.1126e-25)
(0.00536981 -1.05843e-05 7.66289e-24)
(0.00535529 -1.16292e-05 -5.5239e-24)
(0.00533974 -1.25611e-05 -1.15616e-24)
(0.00532331 -1.33803e-05 9.14641e-24)
(0.00530613 -1.40865e-05 1.20343e-25)
(0.00528834 -1.46801e-05 -1.84924e-24)
(0.00527006 -1.51618e-05 -7.39792e-24)
(0.00525143 -1.55329e-05 6.25568e-25)
(0.00523257 -1.57943e-05 5.45364e-24)
(0.0052136 -1.59471e-05 -7.14571e-25)
(0.00519466 -1.59913e-05 -9.43547e-25)
(0.00517585 -1.59269e-05 6.50954e-25)
(0.00420672 -4.08209e-06 -4.81702e-25)
(0.00419825 -4.94083e-06 2.46563e-26)
(0.00418848 -5.7514e-06 3.66532e-24)
(0.00417751 -6.48776e-06 2.51916e-24)
(0.00416548 -7.15438e-06 -1.65868e-24)
(0.00415252 -7.75332e-06 -4.29047e-24)
(0.00413873 -8.28405e-06 1.79308e-24)
(0.00412424 -8.74583e-06 -7.67779e-24)
(0.00410916 -9.13833e-06 5.93979e-24)
(0.0040936 -9.46145e-06 3.2464e-24)
(0.00407768 -9.71557e-06 1.33468e-25)
(0.0040615 -9.90077e-06 -3.74259e-24)
(0.00404517 -1.00174e-05 7.41345e-25)
(0.00402881 -1.00649e-05 -6.31994e-25)
(0.00401251 -1.00423e-05 3.34918e-25)
(0.00311292 -2.19465e-06 -8.88044e-25)
(0.00310652 -2.69461e-06 1.09733e-26)
(0.00309903 -3.1578e-06 2.93703e-24)
(0.00309054 -3.57708e-06 -1.83896e-24)
(0.00308116 -3.95845e-06 7.75851e-24)
(0.00307099 -4.30301e-06 -1.42219e-23)
(0.0030601 -4.61015e-06 1.17819e-23)
(0.0030486 -4.87917e-06 -1.002e-23)
(0.00303658 -5.1096e-06 7.36353e-24)
(0.00302412 -5.30112e-06 -4.86881e-24)
(0.00301132 -5.45376e-06 1.69729e-24)
(0.00299827 -5.56734e-06 2.5868e-25)
(0.00298505 -5.64197e-06 4.77597e-25)
(0.00297176 -5.67713e-06 -6.07093e-25)
(0.00295848 -5.67172e-06 1.38468e-25)
(0.00211733 -9.8104e-07 1.34947e-24)
(0.00211293 -1.23562e-06 1.48108e-24)
(0.0021077 -1.46095e-06 -6.31645e-24)
(0.00210171 -1.66286e-06 4.65101e-24)
(0.00209505 -1.84583e-06 -3.19307e-26)
(0.00208778 -2.01049e-06 1.25664e-24)
(0.00207995 -2.15672e-06 -1.50005e-24)
(0.00207165 -2.28438e-06 -3.27686e-24)
(0.00206293 -2.39346e-06 3.29568e-24)
(0.00205385 -2.48397e-06 3.96484e-25)
(0.00204449 -2.55613e-06 -2.84333e-24)
(0.00203492 -2.60999e-06 1.01111e-24)
(0.00202519 -2.64579e-06 6.73013e-25)
(0.00201537 -2.66277e-06 -7.32798e-26)
(0.00200553 -2.6594e-06 -9.31754e-26)
(0.00121311 -2.88238e-07 -1.36391e-24)
(0.00121056 -3.61397e-07 4.19274e-24)
(0.00120748 -4.25011e-07 2.55452e-24)
(0.00120394 -4.84181e-07 -4.54462e-24)
(0.00119998 -5.39235e-07 -5.35166e-25)
(0.00119563 -5.89956e-07 -4.8814e-25)
(0.00119093 -6.3638e-07 1.52636e-24)
(0.00118591 -6.78669e-07 -2.60629e-24)
(0.00118062 -7.17061e-07 3.64849e-24)
(0.0011751 -7.51776e-07 -1.78061e-24)
(0.00116938 -7.83082e-07 -1.23732e-24)
(0.00116351 -8.11111e-07 7.74121e-25)
(0.00115753 -8.36037e-07 -1.03672e-24)
(0.00115147 -8.54904e-07 1.07794e-24)
(0.00114538 -8.64043e-07 -2.02081e-25)
(0.000393585 2.0412e-08 -9.79407e-27)
(0.000392691 1.14678e-07 8.21558e-25)
(0.000391621 1.82422e-07 9.56019e-25)
(0.000390396 2.2553e-07 -1.48505e-24)
(0.000389028 2.4788e-07 3.16012e-24)
(0.000387526 2.5265e-07 -3.42333e-24)
(0.000385902 2.42535e-07 2.32131e-25)
(0.000384167 2.19934e-07 1.99332e-24)
(0.000382333 1.87015e-07 -2.76145e-24)
(0.000380413 1.45767e-07 -5.45469e-25)
(0.000378421 9.79838e-08 2.05593e-24)
(0.000376369 4.53276e-08 -9.23423e-25)
(0.000374272 -1.0699e-08 -3.91075e-25)
(0.000372144 -6.66669e-08 3.34507e-25)
(0.000369999 -1.19037e-07 -1.6805e-26)
(0.000929221 -0.000215228 5.16741e-26)
(0.00107076 -0.000112721 1.13241e-24)
(0.00131063 -1.19821e-05 -2.98007e-24)
(0.00155808 6.83854e-05 3.78431e-24)
(0.00179898 0.000130553 -1.41021e-24)
(0.00203779 0.000175271 -9.90475e-25)
(0.00227388 0.000204879 9.72877e-25)
(0.00250732 0.000221341 -1.58982e-24)
(0.00273831 0.000226377 2.16005e-25)
(0.00296699 0.000221541 8.37754e-25)
(0.0031936 0.000208202 -1.3643e-25)
(0.00341848 0.000187547 1.3217e-25)
(0.00364205 0.000160633 -1.93686e-26)
(0.00386473 0.000128458 4.21617e-26)
(0.00408702 9.21257e-05 -1.35937e-25)
(0.00430938 5.30638e-05 5.70795e-26)
(0.00453276 1.31775e-05 3.17462e-26)
(0.00475831 -2.47102e-05 2.68178e-26)
(0.00498828 -5.73891e-05 -2.11991e-25)
(0.00522597 -8.1474e-05 1.51861e-25)
(0.00547646 -9.43153e-05 -2.71329e-26)
(0.00574408 -9.54037e-05 2.44822e-26)
(0.00600921 -8.98811e-05 -4.46304e-26)
(0.00624244 -8.64719e-05 -1.59909e-25)
(0.00643459 -8.90901e-05 2.90999e-25)
(0.00658665 -9.85902e-05 2.15621e-25)
(0.00670056 -0.000115038 4.10196e-26)
(0.00677803 -0.000138185 -6.52863e-25)
(0.00682087 -0.000168447 -1.46529e-24)
(0.00682765 -0.000204436 3.01574e-24)
(0.00679924 -0.000242369 -4.397e-24)
(0.00673393 -0.000282509 5.51075e-24)
(0.00663181 -0.000317513 -2.15434e-24)
(0.00649223 -0.000340148 -3.80894e-24)
(0.00631571 -0.000342854 3.80778e-24)
(0.00610371 -0.000316689 1.3962e-23)
(0.00585802 -0.000251501 -5.24316e-24)
(0.00558094 -0.000135258 1.84273e-24)
(0.0052753 4.76175e-05 4.59719e-25)
(0.00494536 0.000317657 -1.50992e-23)
(0.00459574 0.000699374 -1.72005e-25)
(0.0042324 0.00120705 5.48418e-24)
(0.00383883 0.00179943 1.38211e-24)
(0.00343698 0.00231127 -7.35018e-24)
(0.00320883 0.00229779 -3.34871e-25)
(0.00177122 -0.000299965 -1.42356e-24)
(0.00183335 -0.000236404 -1.64149e-24)
(0.00198682 -0.00014 3.63615e-24)
(0.0021792 -5.30185e-05 1.2291e-24)
(0.00238548 1.93492e-05 -4.2296e-24)
(0.00260027 7.4743e-05 3.93341e-24)
(0.00281888 0.000114353 -1.33185e-24)
(0.00303895 0.000139944 7.28812e-25)
(0.00325929 0.000153234 -9.84944e-25)
(0.00347922 0.000155829 2.09518e-26)
(0.0036984 0.000149157 -3.68891e-25)
(0.00391676 0.000134474 7.11971e-25)
(0.00413438 0.000112911 -3.56404e-25)
(0.00435142 8.5543e-05 -2.01483e-25)
(0.00456811 5.35478e-05 3.07193e-26)
(0.00478463 1.83961e-05 2.03078e-25)
(0.00500162 -1.79889e-05 9.17215e-26)
(0.00521984 -5.2797e-05 -1.94122e-25)
(0.005441 -8.28863e-05 -1.26568e-25)
(0.0056678 -0.000104961 1.15885e-25)
(0.00590471 -0.000116362 7.47577e-26)
(0.00615551 -0.000116379 5.25245e-26)
(0.00640224 -0.000109829 -2.45461e-25)
(0.00661865 -0.000105008 -2.72858e-25)
(0.00679687 -0.000105623 2.53713e-25)
(0.00693802 -0.000112535 1.28906e-24)
(0.0070439 -0.000125772 -1.86605e-24)
(0.00711579 -0.000145002 1.53999e-24)
(0.00715577 -0.000170353 -5.36192e-25)
(0.00716085 -0.000200353 7.46962e-25)
(0.00713432 -0.000230967 -6.88907e-24)
(0.00707347 -0.000262415 1.24213e-23)
(0.00697809 -0.000287342 -1.10379e-23)
(0.00684855 -0.000298611 2.2341e-23)
(0.00668596 -0.000288814 -2.95234e-23)
(0.00649272 -0.000249194 7.41254e-24)
(0.006272 -0.000169823 2.21435e-23)
(0.00602825 -3.90424e-05 -7.20995e-24)
(0.0057677 0.000157577 -1.55462e-23)
(0.00550039 0.000439379 -8.15874e-24)
(0.00524186 0.000829102 1.85593e-23)
(0.00501853 0.00134168 -1.68741e-23)
(0.00485115 0.00193814 -2.8826e-24)
(0.00479535 0.00244132 9.91867e-24)
(0.00484583 0.00238428 2.74045e-24)
(0.00277717 -0.000310827 -1.549e-26)
(0.00279011 -0.000292222 -2.00218e-24)
(0.00286146 -0.000230416 3.67947e-24)
(0.00298774 -0.000154975 2.31856e-24)
(0.00314398 -8.35137e-05 -4.05863e-24)
(0.0033205 -2.35774e-05 1.14967e-25)
(0.0035096 2.27418e-05 2.82414e-25)
(0.00370639 5.57301e-05 2.33199e-24)
(0.0039079 7.6423e-05 -2.69751e-24)
(0.0041122 8.60991e-05 1.38944e-24)
(0.00431809 8.60382e-05 2.85968e-25)
(0.00452487 7.7443e-05 -1.9104e-24)
(0.00473212 6.14511e-05 6.75008e-25)
(0.00493959 3.91721e-05 2.00605e-25)
(0.00514714 1.18298e-05 -2.27678e-25)
(0.0053546 -1.90791e-05 1.18429e-25)
(0.00556223 -5.16255e-05 1.36966e-25)
(0.00577029 -8.30292e-05 1.29513e-25)
(0.00597996 -0.000110215 2.05127e-26)
(0.00619322 -0.000129994 -7.22843e-26)
(0.00641385 -0.0001397 -2.68886e-27)
(0.00664498 -0.000138423 -9.08874e-26)
(0.00687038 -0.000130681 2.47314e-25)
(0.00706717 -0.000124343 -7.20457e-25)
(0.0072289 -0.000122891 1.12183e-24)
(0.00735683 -0.000127167 -6.41429e-25)
(0.00745267 -0.000137134 1.84948e-24)
(0.00751729 -0.000152409 -2.55037e-24)
(0.00755301 -0.000172661 3.48364e-24)
(0.00755516 -0.000196647 1.03512e-24)
(0.00752983 -0.000220024 2.30292e-24)
(0.00747336 -0.000242602 -1.43918e-23)
(0.00738463 -0.00025733 5.48033e-24)
(0.00726554 -0.000257291 1.13683e-23)
(0.00711773 -0.000235288 -2.45307e-23)
(0.00694459 -0.000182981 3.37773e-23)
(0.0067507 -9.10701e-05 -2.11787e-23)
(0.00654255 5.09826e-05 2.52947e-23)
(0.00632953 0.00025533 -4.66489e-23)
(0.00612638 0.000537094 1.73841e-23)
(0.0059558 0.000911888 5.5883e-24)
(0.00585406 0.00138532 7.91052e-24)
(0.00585168 0.00191207 -9.80705e-24)
(0.00599788 0.0023295 2.30092e-24)
(0.00616445 0.00227636 -1.34343e-24)
(0.00392662 -0.000297226 -5.60258e-25)
(0.00391366 -0.000305677 -7.45904e-25)
(0.00393178 -0.000277949 -2.91286e-24)
(0.00399458 -0.000226671 1.21534e-24)
(0.0040954 -0.000167007 7.67768e-25)
(0.00422418 -0.000110746 1.80263e-24)
(0.00437341 -6.32451e-05 -2.81307e-24)
(0.00453711 -2.64207e-05 1.26297e-24)
(0.00471091 -5.58226e-07 2.85199e-24)
(0.0048917 1.48385e-05 -8.08808e-25)
(0.00507732 2.06002e-05 -6.12503e-25)
(0.00526631 1.7685e-05 -8.41983e-26)
(0.00545765 7.11374e-06 2.22823e-25)
(0.00565055 -1.00504e-05 -3.71419e-25)
(0.00584443 -3.25918e-05 1.1865e-25)
(0.00603866 -5.9027e-05 5.69886e-26)
(0.00623305 -8.74517e-05 2.34423e-25)
(0.00642735 -0.000115127 1.2519e-25)
(0.00662209 -0.000139074 -6.75517e-25)
(0.00681852 -0.000156235 2.50124e-26)
(0.00701964 -0.00016395 2.49773e-25)
(0.00722779 -0.000161119 8.19135e-26)
(0.00742855 -0.000151996 4.4099e-25)
(0.00760263 -0.000144026 5.44333e-27)
(0.00774504 -0.00014044 1.03296e-24)
(0.00785719 -0.00014204 -1.76596e-24)
(0.00794071 -0.000148697 1.90369e-24)
(0.00799613 -0.000159993 -3.97086e-24)
(0.00802562 -0.000174991 4.39897e-24)
(0.00802382 -0.000192991 -5.20786e-25)
(0.00799885 -0.000209387 -3.07533e-24)
(0.00794595 -0.000223111 -3.23517e-25)
(0.00786371 -0.000227718 -3.1885e-25)
(0.00775521 -0.000216849 -2.69793e-24)
(0.00762272 -0.000183563 4.64231e-24)
(0.00747052 -0.000120208 -9.66428e-24)
(0.00730448 -1.85776e-05 4.12061e-23)
(0.00713277 0.00012998 -2.22602e-23)
(0.00696693 0.000334528 -1.45929e-24)