/*--------------------------------*- C++ -*----------------------------------*\
| =========                 |                                                 |
| \\      /  F ield         | OpenFOAM: The Open Source CFD Toolbox           |
|  \\    /   O peration     | Version:  2312                                  |
|   \\  /    A nd           | Website:  www.openfoam.com                      |
|    \\/     M anipulation  |                                                 |
\*---------------------------------------------------------------------------*/
FoamFile
{
    version     2.0;
    format      ascii;
    arch        "LSB;label=32;scalar=64";
    class       volScalarField;
    location    "9.75";
    object      p;
}
// * * * * * * * * * * * * * * * * * * * * * * * * * * * * * * * * * * * * * //

dimensions      [0 2 -2 0 0 0 0];

internalField   nonuniform List<scalar> 
4800
(
-1.28749e-12
-1.40624e-06
-2.57778e-06
-3.57062e-06
-4.42276e-06
-5.15933e-06
-5.80463e-06
-6.37618e-06
-6.88241e-06
-7.33556e-06
-7.74426e-06
-8.11058e-06
-8.4282e-06
-8.9276e-06
-1.05551e-05
1.53964e-08
-1.38824e-06
-2.55795e-06
-3.54963e-06
-4.40178e-06
-5.13942e-06
-5.78726e-06
-6.36282e-06
-6.87501e-06
-7.33788e-06
-7.76522e-06
-8.17254e-06
-8.57461e-06
-9.07803e-06
-9.93054e-06
3.18376e-08
-1.36891e-06
-2.53673e-06
-3.52744e-06
-4.37947e-06
-5.11799e-06
-5.7667e-06
-6.34527e-06
-6.86222e-06
-7.33214e-06
-7.77025e-06
-8.1929e-06
-8.60938e-06
-9.02912e-06
-9.43212e-06
4.88647e-08
-1.34838e-06
-2.5138e-06
-3.50302e-06
-4.35433e-06
-5.09371e-06
-5.74161e-06
-6.32139e-06
-6.84046e-06
-7.31159e-06
-7.74778e-06
-8.15695e-06
-8.53223e-06
-8.84397e-06
-9.02458e-06
6.79777e-08
-1.32491e-06
-2.48714e-06
-3.47411e-06
-4.32381e-06
-5.06295e-06
-5.70967e-06
-6.28713e-06
-6.80424e-06
-7.26932e-06
-7.69057e-06
-8.06655e-06
-8.37929e-06
-8.59158e-06
-8.64974e-06
9.06478e-08
-1.29691e-06
-2.45503e-06
-3.43878e-06
-4.28571e-06
-5.02228e-06
-5.66696e-06
-6.23836e-06
-6.74737e-06
-7.19785e-06
-7.59218e-06
-7.92278e-06
-8.16945e-06
-8.30346e-06
-8.29736e-06
1.19048e-07
-1.2622e-06
-2.41512e-06
-3.39434e-06
-4.23687e-06
-4.96854e-06
-5.60755e-06
-6.16922e-06
-6.66304e-06
-7.09018e-06
-7.4486e-06
-7.72903e-06
-7.916e-06
-7.99477e-06
-7.95859e-06
1.56825e-07
-1.21719e-06
-2.36361e-06
-3.33663e-06
-4.17254e-06
-4.89635e-06
-5.52522e-06
-6.07206e-06
-6.54392e-06
-6.94063e-06
-7.25862e-06
-7.49091e-06
-7.62984e-06
-7.67298e-06
-7.62532e-06
2.09483e-07
-1.15644e-06
-2.29488e-06
-3.25962e-06
-4.08609e-06
-4.79834e-06
-5.41227e-06
-5.93872e-06
-6.38299e-06
-6.74517e-06
-7.02294e-06
-7.21386e-06
-7.31774e-06
-7.34029e-06
-7.29156e-06
2.8426e-07
-1.07265e-06
-2.20131e-06
-3.15526e-06
-3.96897e-06
-4.6655e-06
-5.25969e-06
-5.76104e-06
-6.17425e-06
-6.50128e-06
-6.74289e-06
-6.90146e-06
-6.9823e-06
-6.99532e-06
-6.95181e-06
3.894e-07
-9.57035e-07
-2.07362e-06
-3.01375e-06
-3.81107e-06
-4.48772e-06
-5.05799e-06
-5.53106e-06
-5.91277e-06
-6.20737e-06
-6.41933e-06
-6.55502e-06
-6.62291e-06
-6.63441e-06
-6.60025e-06
5.33248e-07
-8.0022e-07
-1.90161e-06
-2.8244e-06
-3.60159e-06
-4.2548e-06
-4.79841e-06
-5.24246e-06
-5.5948e-06
-5.86217e-06
-6.05219e-06
-6.17379e-06
-6.23684e-06
-6.25262e-06
-6.23067e-06
7.23969e-07
-5.92595e-07
-1.67478e-06
-2.57629e-06
-3.32993e-06
-3.95732e-06
-4.4736e-06
-4.89039e-06
-5.21756e-06
-5.46429e-06
-5.6402e-06
-5.75543e-06
-5.82003e-06
-5.8444e-06
-5.83675e-06
9.69733e-07
-3.24243e-07
-1.38234e-06
-2.25853e-06
-2.98592e-06
-3.58668e-06
-4.07713e-06
-4.47047e-06
-4.77831e-06
-5.01148e-06
-5.18059e-06
-5.296e-06
-5.36726e-06
-5.40359e-06
-5.41202e-06
1.27852e-06
1.48604e-08
-1.01346e-06
-1.86041e-06
-2.55982e-06
-3.13475e-06
-3.60259e-06
-3.97777e-06
-4.27291e-06
-4.49947e-06
-4.66835e-06
-4.7895e-06
-4.87166e-06
-4.92286e-06
-4.94911e-06
1.65708e-06
4.33779e-07
-5.58323e-07
-1.37243e-06
-2.04306e-06
-2.59413e-06
-3.04366e-06
-3.40645e-06
-3.69535e-06
-3.92203e-06
-4.09657e-06
-4.22827e-06
-4.32502e-06
-4.39382e-06
-4.43989e-06
2.10883e-06
9.3839e-07
-1.02852e-08
-7.88242e-07
-1.42997e-06
-1.95969e-06
-2.39546e-06
-2.75174e-06
-3.04074e-06
-3.2732e-06
-3.45845e-06
-3.60502e-06
-3.71994e-06
-3.80926e-06
-3.87753e-06
2.63117e-06
1.52819e-06
6.30887e-07
-1.07686e-07
-7.20554e-07
-1.23122e-06
-1.65702e-06
-2.01147e-06
-2.30567e-06
-2.54905e-06
-2.74962e-06
-2.91519e-06
-3.052e-06
-3.16521e-06
-3.25878e-06
3.21333e-06
2.19304e-06
1.35542e-06
6.59614e-07
7.5885e-08
-4.17269e-07
-8.3556e-07
-1.19098e-06
-1.49322e-06
-1.75063e-06
-1.97033e-06
-2.15833e-06
-2.31999e-06
-2.45991e-06
-2.58175e-06
3.83422e-06
2.90994e-06
2.13945e-06
1.48962e-06
9.35548e-07
4.58873e-07
4.61578e-08
-3.12647e-07
-6.25424e-07
-8.98751e-07
-1.13848e-06
-1.34973e-06
-1.53731e-06
-1.70529e-06
-1.857e-06
4.43101e-06
3.60557e-06
2.90342e-06
2.29941e-06
1.77411e-06
1.31292e-06
9.04936e-07
5.41949e-07
2.17508e-07
-7.36074e-08
-3.35723e-07
-5.72705e-07
-7.88809e-07
-9.87432e-07
-1.17136e-06
4.92042e-06
4.18076e-06
3.538e-06
2.97376e-06
2.47348e-06
2.02605e-06
1.62296e-06
1.25767e-06
9.24826e-07
6.19785e-07
3.3827e-07
7.68398e-08
-1.66128e-07
-3.92801e-07
-6.05658e-07
5.28647e-06
4.61356e-06
4.01695e-06
3.4833e-06
3.00192e-06
2.56438e-06
2.16398e-06
1.79536e-06
1.45406e-06
1.13635e-06
8.39191e-07
5.60403e-07
2.9759e-07
4.88853e-08
-1.87583e-07
5.55376e-06
4.93293e-06
4.37265e-06
3.86334e-06
3.39717e-06
2.96773e-06
2.5697e-06
2.19872e-06
1.85116e-06
1.52405e-06
1.21492e-06
9.21632e-07
6.42325e-07
3.75386e-07
1.19266e-07
5.74675e-06
5.16665e-06
4.6353e-06
4.14571e-06
3.69205e-06
3.26935e-06
2.87336e-06
2.50051e-06
2.14779e-06
1.81277e-06
1.49333e-06
1.18764e-06
8.94241e-07
6.11827e-07
3.39103e-07
5.88475e-06
5.33671e-06
4.82846e-06
4.35476e-06
3.91118e-06
3.49383e-06
3.09926e-06
2.72452e-06
2.36716e-06
2.02513e-06
1.69669e-06
1.38045e-06
1.07514e-06
7.79679e-07
4.93011e-07
5.98255e-06
5.45996e-06
4.97016e-06
4.50917e-06
4.07361e-06
3.66035e-06
3.26659e-06
2.88993e-06
2.52839e-06
2.18026e-06
1.8441e-06
1.51889e-06
1.20353e-06
8.97108e-07
5.98746e-07
6.05136e-06
5.54917e-06
5.07417e-06
4.62339e-06
4.19419e-06
3.78405e-06
3.39068e-06
3.01215e-06
2.64687e-06
2.29352e-06
1.95075e-06
1.61789e-06
1.29397e-06
9.78266e-07
6.7005e-07
6.09951e-06
5.61388e-06
5.15091e-06
4.70842e-06
4.28433e-06
3.87657e-06
3.4833e-06
3.103e-06
2.73435e-06
2.37623e-06
2.02802e-06
1.68862e-06
1.35737e-06
1.03377e-06
7.17207e-07
6.13314e-06
5.66117e-06
5.20812e-06
4.77245e-06
4.3525e-06
3.94658e-06
3.55325e-06
3.17129e-06
2.79972e-06
2.43762e-06
2.08441e-06
1.73931e-06
1.40179e-06
1.07144e-06
7.47787e-07
6.15674e-06
5.69621e-06
5.25147e-06
4.82149e-06
4.40493e-06
4.00045e-06
3.60693e-06
3.22344e-06
2.84919e-06
2.48363e-06
2.12606e-06
1.77603e-06
1.4331e-06
1.09697e-06
7.67233e-07
6.17352e-06
5.7227e-06
5.28502e-06
4.85984e-06
4.44608e-06
4.04273e-06
3.64896e-06
3.26408e-06
2.8875e-06
2.51878e-06
2.15741e-06
1.80308e-06
1.45546e-06
1.11432e-06
7.79345e-07
6.18574e-06
5.74326e-06
5.31162e-06
4.89052e-06
4.47911e-06
4.07668e-06
3.68262e-06
3.29644e-06
2.91778e-06
2.54626e-06
2.18156e-06
1.82346e-06
1.47174e-06
1.12623e-06
7.86707e-07
6.19493e-06
5.75967e-06
5.33325e-06
4.91565e-06
4.50623e-06
4.10454e-06
3.71017e-06
3.32281e-06
2.94227e-06
2.56826e-06
2.20061e-06
1.83919e-06
1.48386e-06
1.13453e-06
7.9103e-07
6.20211e-06
5.77315e-06
5.35127e-06
4.93667e-06
4.52895e-06
4.12786e-06
3.73317e-06
3.34474e-06
2.96249e-06
2.58627e-06
2.216e-06
1.85164e-06
1.49313e-06
1.14043e-06
7.93427e-07
6.20793e-06
5.78448e-06
5.36655e-06
4.95456e-06
4.54829e-06
4.14769e-06
3.75268e-06
3.36325e-06
2.97948e-06
2.60128e-06
2.22868e-06
1.86171e-06
1.50037e-06
1.14469e-06
7.94608e-07
6.21279e-06
5.79415e-06
5.37966e-06
4.96992e-06
4.56489e-06
4.1647e-06
3.76935e-06
3.37905e-06
2.9939e-06
2.61392e-06
2.23925e-06
1.86997e-06
1.50614e-06
1.14783e-06
7.95026e-07
6.21697e-06
5.80256e-06
5.39107e-06
4.98328e-06
4.57931e-06
4.17944e-06
3.78376e-06
3.39269e-06
3.00629e-06
2.62473e-06
2.24821e-06
1.87688e-06
1.51083e-06
1.15018e-06
7.94947e-07
6.22084e-06
5.81035e-06
5.40163e-06
4.99563e-06
4.59263e-06
4.19298e-06
3.79704e-06
3.40519e-06
3.0176e-06
2.63455e-06
2.25629e-06
1.88304e-06
1.51491e-06
1.15205e-06
7.94509e-07
6.22445e-06
5.81788e-06
5.41183e-06
5.00756e-06
4.60549e-06
4.20613e-06
3.80985e-06
3.4172e-06
3.02845e-06
2.64392e-06
2.2639e-06
1.88867e-06
1.51847e-06
1.15352e-06
7.93892e-07
-1.19218e-05
-9.6866e-06
-8.31173e-06
-7.38884e-06
-6.64825e-06
-6.07651e-06
-5.62863e-06
-5.27374e-06
-4.99147e-06
-4.76593e-06
-4.5845e-06
-4.43681e-06
-4.31428e-06
-4.21036e-06
-4.12085e-06
-4.04564e-06
-3.99004e-06
-3.96917e-06
-4.00984e-06
-4.15612e-06
-4.46346e-06
-4.98603e-06
-5.67418e-06
-6.32282e-06
-6.77743e-06
-6.96197e-06
-6.83938e-06
-6.39821e-06
-5.63918e-06
-4.57022e-06
-3.20543e-06
-1.56641e-06
3.16402e-07
2.40336e-06
4.64633e-06
6.9901e-06
9.37368e-06
1.17304e-05
1.3985e-05
1.60474e-05
1.77924e-05
1.90565e-05
1.94698e-05
1.87134e-05
1.55783e-05
-1.03083e-05
-9.15166e-06
-8.11205e-06
-7.28998e-06
-6.59497e-06
-6.03891e-06
-5.59671e-06
-5.24413e-06
-4.96321e-06
-4.73897e-06
-4.55904e-06
-4.41312e-06
-4.29264e-06
-4.19107e-06
-4.10428e-06
-4.03219e-06
-3.98014e-06
-3.96309e-06
-4.00743e-06
-4.15622e-06
-4.46335e-06
-4.98113e-06
-5.65978e-06
-6.2972e-06
-6.74171e-06
-6.91848e-06
-6.79067e-06
-6.34681e-06
-5.58781e-06
-4.52224e-06
-3.16531e-06
-1.54021e-06
3.20681e-07
2.37526e-06
4.57227e-06
6.85228e-06
9.14811e-06
1.13837e-05
1.34685e-05
1.52863e-05
1.66616e-05
1.7325e-05
1.67496e-05
1.41869e-05
8.66959e-06
-9.46209e-06
-8.73372e-06
-7.90463e-06
-7.17363e-06
-6.52925e-06
-5.99485e-06
-5.56163e-06
-5.21294e-06
-4.93398e-06
-4.7112e-06
-4.53277e-06
-4.38856e-06
-4.2701e-06
-4.17091e-06
-4.08695e-06
-4.0182e-06
-3.97003e-06
-3.95725e-06
-4.00569e-06
-4.15731e-06
-4.46414e-06
-4.97628e-06
-5.64379e-06
-6.26801e-06
-6.70062e-06
-6.86827e-06
-6.73459e-06
-6.28819e-06
-5.53034e-06
-4.47048e-06
-3.12532e-06
-1.52006e-06
3.10361e-07
2.32071e-06
4.45575e-06
6.6507e-06
8.83091e-06
1.09094e-05
1.27798e-05
1.43017e-05
1.52727e-05
1.53877e-05
1.41741e-05
1.11147e-05
6.11667e-06
-8.91984e-06
-8.39132e-06
-7.72166e-06
-7.06347e-06
-6.46746e-06
-5.95604e-06
-5.53233e-06
-5.18711e-06
-4.9092e-06
-4.68683e-06
-4.5089e-06
-4.36558e-06
-4.24853e-06
-4.15133e-06
-4.06999e-06
-4.00456e-06
-3.96041e-06
-3.95211e-06
-4.00492e-06
-4.15951e-06
-4.46589e-06
-4.97163e-06
-5.62646e-06
-6.23547e-06
-6.65402e-06
-6.81049e-06
-6.66916e-06
-6.21891e-06
-5.4617e-06
-4.40822e-06
-3.07715e-06
-1.49636e-06
2.95965e-07
2.25064e-06
4.3076e-06
6.39592e-06
8.43299e-06
1.03215e-05
1.19426e-05
1.31444e-05
1.37238e-05
1.34143e-05
1.18944e-05
8.92476e-06
4.75754e-06
-8.49671e-06
-8.08818e-06
-7.54183e-06
-6.96687e-06
-6.41574e-06
-5.92725e-06
-5.51308e-06
-5.17029e-06
-4.89189e-06
-4.66827e-06
-4.48929e-06
-4.34558e-06
-4.22896e-06
-4.13308e-06
-4.05403e-06
-3.99186e-06
-3.95189e-06
-3.9484e-06
-4.00592e-06
-4.16364e-06
-4.46925e-06
-4.96748e-06
-5.60765e-06
-6.19918e-06
-6.60159e-06
-6.7452e-06
-6.59524e-06
-6.14111e-06
-5.38572e-06
-4.3414e-06
-3.02927e-06
-1.48032e-06
2.63482e-07
2.14855e-06
4.10965e-06
6.06983e-06
7.93951e-06
9.61414e-06
1.09699e-05
1.18578e-05
1.21018e-05
1.15087e-05
9.90949e-06
7.26324e-06
3.84607e-06
-8.13933e-06
-7.81294e-06
-7.36199e-06
-6.86898e-06
-6.3707e-06
-5.90814e-06
-5.50514e-06
-5.16472e-06
-4.88478e-06
-4.65827e-06
-4.47649e-06
-4.33076e-06
-4.21325e-06
-4.11775e-06
-4.04041e-06
-3.98127e-06
-3.94556e-06
-3.94714e-06
-4.00965e-06
-4.17055e-06
-4.47491e-06
-4.96419e-06
-5.58728e-06
-6.15867e-06
-6.54264e-06
-6.67181e-06
-6.51258e-06
-6.05522e-06
-5.30392e-06
-4.27305e-06
-2.98654e-06
-1.47893e-06
2.03714e-07
2.00328e-06
3.84967e-06
5.6609e-06
7.34294e-06
8.78907e-06
9.87928e-06
1.04829e-05
1.04651e-05
9.71102e-06
8.1652e-06
5.8949e-06
3.15372e-06
-7.81296e-06
-7.54959e-06
-7.18305e-06
-6.75808e-06
-6.31772e-06
-5.89145e-06
-5.50408e-06
-5.16918e-06
-4.88858e-06
-4.65862e-06
-4.47271e-06
-4.32343e-06
-4.20361e-06
-4.10735e-06
-4.03093e-06
-3.97442e-06
-3.94288e-06
-3.94963e-06
-4.0173e-06
-4.18125e-06
-4.48364e-06
-4.96216e-06
-5.5653e-06
-6.11353e-06
-6.47652e-06
-6.58954e-06
-6.42057e-06
-5.96109e-06
-5.21699e-06
-4.20506e-06
-2.95243e-06
-1.49741e-06
1.09767e-07
1.8068e-06
3.51966e-06
5.16347e-06
6.64351e-06
7.85705e-06
8.6968e-06
9.05849e-06
8.85347e-06
8.03101e-06
6.60496e-06
4.68073e-06
2.46467e-06
-7.49738e-06
-7.28402e-06
-6.98829e-06
-6.63274e-06
-6.24855e-06
-5.86316e-06
-5.5013e-06
-5.178e-06
-4.90027e-06
-4.6683e-06
-4.47833e-06
-4.32479e-06
-4.20164e-06
-4.10363e-06
-4.02739e-06
-3.97304e-06
-3.9455e-06
-3.95744e-06
-4.03025e-06
-4.19694e-06
-4.49633e-06
-4.96188e-06
-5.54172e-06
-6.06337e-06
-6.40263e-06
-6.49783e-06
-6.31899e-06
-5.85921e-06
-5.12654e-06
-4.14055e-06
-2.93178e-06
-1.54237e-06
-2.63275e-08
1.55073e-06
3.11267e-06
4.57465e-06
5.84577e-06
6.8332e-06
7.44843e-06
7.61682e-06
7.29028e-06
6.46234e-06
5.18077e-06
3.55269e-06
1.73553e-06
-7.18239e-06
-7.00967e-06
-6.77224e-06
-6.48046e-06
-6.15389e-06
-5.81515e-06
-5.4858e-06
-5.18176e-06
-4.91282e-06
-4.68271e-06
-4.49079e-06
-4.33382e-06
-4.20741e-06
-4.10738e-06
-4.03098e-06
-3.97857e-06
-3.95496e-06
-3.9721e-06
-4.04998e-06
-4.21886e-06
-4.5139e-06
-4.96384e-06
-5.51652e-06
-6.00785e-06
-6.3206e-06
-6.39658e-06
-6.20833e-06
-5.75113e-06
-5.0356e-06
-4.08433e-06
-2.93131e-06
-1.62211e-06
-2.13708e-07
1.22658e-06
2.62298e-06
3.89419e-06
4.95752e-06
5.7344e-06
6.15769e-06
6.18033e-06
5.78463e-06
4.98973e-06
3.85455e-06
2.4731e-06
9.62293e-07
-6.86149e-06
-6.72284e-06
-6.53368e-06
-6.29804e-06
-6.02727e-06
-5.73772e-06
-5.44676e-06
-5.16937e-06
-4.9164e-06
-4.69405e-06
-4.50444e-06
-4.34683e-06
-4.21882e-06
-4.11769e-06
-4.04167e-06
-3.99158e-06
-3.97221e-06
-3.99474e-06
-4.07761e-06
-4.24802e-06
-4.53711e-06
-4.96843e-06
-5.48971e-06
-5.94683e-06
-6.23047e-06
-6.28641e-06
-6.0902e-06
-5.63985e-06
-4.94895e-06
-4.04317e-06
-2.95956e-06
-1.74634e-06
-4.61973e-07
8.2664e-07
2.04699e-06
3.1248e-06
3.98891e-06
4.5772e-06
4.84306e-06
4.76164e-06
4.33495e-06
3.5938e-06
2.59571e-06
1.41752e-06
1.45229e-07
-6.52878e-06
-6.4198e-06
-6.27142e-06
-6.08461e-06
-5.86541e-06
-5.62466e-06
-5.37549e-06
-5.13063e-06
-4.9006e-06
-4.69279e-06
-4.51132e-06
-4.35767e-06
-4.23147e-06
-4.13169e-06
-4.05779e-06
-4.01129e-06
-3.9971e-06
-4.02562e-06
-4.11358e-06
-4.28484e-06
-4.56626e-06
-4.97578e-06
-5.46136e-06
-5.88053e-06
-6.13311e-06
-6.16923e-06
-5.96788e-06
-5.53042e-06
-4.87362e-06
-4.02598e-06
-3.02682e-06
-1.92562e-06
-7.80419e-07
3.44826e-07
1.38375e-06
2.27183e-06
2.95128e-06
3.37618e-06
3.51725e-06
3.36536e-06
2.93329e-06
2.25459e-06
1.37966e-06
3.68893e-07
-7.14471e-07
-6.17817e-06
-6.09605e-06
-5.98306e-06
-5.83889e-06
-5.6664e-06
-5.47236e-06
-5.2661e-06
-5.05766e-06
-4.85633e-06
-4.6696e-06
-4.5027e-06
-4.35876e-06
-4.2392e-06
-4.14468e-06
-4.07596e-06
-4.03543e-06
-4.02816e-06
-4.0638e-06
-4.15726e-06
-4.32888e-06
-4.60096e-06
-4.98575e-06
-5.4318e-06
-5.81002e-06
-6.03075e-06
-6.04886e-06
-5.84702e-06
-5.43044e-06
-4.81919e-06
-4.04386e-06
-3.14469e-06
-2.17062e-06
-1.17701e-06
-2.2239e-07
6.35335e-07
1.34298e-06
1.85623e-06
2.14332e-06
2.18803e-06
1.99094e-06
1.56921e-06
9.54144e-07
1.8729e-07
-6.85001e-07
-1.6161e-06
-5.80349e-06
-5.74646e-06
-5.66513e-06
-5.55876e-06
-5.42848e-06
-5.27831e-06
-5.11456e-06
-4.94472e-06
-4.7764e-06
-4.61644e-06
-4.4704e-06
-4.34238e-06
-4.23518e-06
-4.1509e-06
-4.09155e-06
-4.06035e-06
-4.06258e-06
-4.10714e-06
-4.20691e-06
-4.3787e-06
-4.64015e-06
-4.99796e-06
-5.40197e-06
-5.73781e-06
-5.92787e-06
-5.93196e-06
-5.73624e-06
-5.35047e-06
-4.79774e-06
-4.10949e-06
-3.32508e-06
-2.49078e-06
-1.65705e-06
-8.74967e-07
-1.92655e-07
3.48222e-07
7.15493e-07
8.8873e-07
8.60335e-07
6.35908e-07
2.32975e-07
-3.21653e-07
-9.95097e-07
-1.75233e-06
-2.55892e-06
-5.39844e-06
-5.36554e-06
-5.3134e-06
-5.2413e-06
-5.14953e-06
-5.04036e-06
-4.91793e-06
-4.78762e-06
-4.65529e-06
-4.52678e-06
-4.40733e-06
-4.30143e-06
-4.21271e-06
-4.14434e-06
-4.09934e-06
-4.08167e-06
-4.09664e-06
-4.15252e-06
-4.25984e-06
-4.43216e-06
-4.6823e-06
-5.01212e-06
-5.37368e-06
-5.66851e-06
-5.83212e-06
-5.82853e-06
-5.6473e-06
-5.30367e-06
-4.82311e-06
-4.23594e-06
-3.57858e-06
-2.8926e-06
-2.2217e-06
-1.60838e-06
-1.09073e-06
-6.99976e-07
-4.58431e-07
-3.77998e-07
-4.61454e-07
-7.01373e-07
-1.08205e-06
-1.58183e-06
-2.17549e-06
-2.83692e-06
-3.54067e-06
-4.95609e-06
-4.94713e-06
-4.92286e-06
-4.88277e-06
-4.82682e-06
-4.7563e-06
-4.67387e-06
-4.58329e-06
-4.48895e-06
-4.39554e-06
-4.30767e-06
-4.22972e-06
-4.16561e-06
-4.11915e-06
-4.09399e-06
-4.09458e-06
-4.12613e-06
-4.19616e-06
-4.31295e-06
-4.487e-06
-4.72606e-06
-5.02874e-06
-5.34997e-06
-5.60943e-06
-5.75479e-06
-5.75115e-06
-5.59391e-06
-5.30479e-06
-4.9094e-06
-4.43473e-06
-3.91243e-06
-3.3778e-06
-2.86682e-06
-2.41314e-06
-2.04561e-06
-1.78658e-06
-1.65098e-06
-1.64615e-06
-1.77144e-06
-2.0196e-06
-2.37785e-06
-2.82956e-06
-3.3559e-06
-3.93764e-06
-4.55608e-06
-4.46883e-06
-4.48451e-06
-4.48791e-06
-4.47881e-06
-4.45717e-06
-4.42376e-06
-4.38034e-06
-4.32955e-06
-4.2746e-06
-4.21915e-06
-4.16705e-06
-4.12222e-06
-4.08854e-06
-4.0699e-06
-4.07032e-06
-4.09418e-06
-4.14671e-06
-4.23388e-06
-4.36305e-06
-4.54105e-06
-4.77143e-06
-5.04996e-06
-5.33722e-06
-5.57196e-06
-5.70832e-06
-5.7113e-06
-5.59095e-06
-5.36976e-06
-5.07014e-06
-4.7147e-06
-4.32953e-06
-3.94295e-06
-3.58313e-06
-3.27558e-06
-3.04135e-06
-2.89594e-06
-2.84895e-06
-2.90475e-06
-3.06192e-06
-3.31427e-06
-3.652e-06
-4.06279e-06
-4.53301e-06
-5.04874e-06
-5.59633e-06
-3.9304e-06
-3.97215e-06
-4.00397e-06
-4.02593e-06
-4.03816e-06
-4.04126e-06
-4.03648e-06
-4.02569e-06
-4.01127e-06
-3.99604e-06
-3.98312e-06
-3.97583e-06
-3.97773e-06
-3.99244e-06
-4.02392e-06
-4.07621e-06
-4.15418e-06
-4.26245e-06
-4.40731e-06
-4.59261e-06
-4.81951e-06
-5.0824e-06
-5.34775e-06
-5.56462e-06
-5.69496e-06
-5.72164e-06
-5.65504e-06
-5.51383e-06
-5.31613e-06
-5.08069e-06
-4.82814e-06
-4.58015e-06
-4.35774e-06
-4.17955e-06
-4.06062e-06
-4.0114e-06
-4.03765e-06
-4.14251e-06
-4.32465e-06
-4.57936e-06
-4.89951e-06
-5.2764e-06
-5.70044e-06
-6.16177e-06
-6.65059e-06
-3.33837e-06
-3.40844e-06
-3.4703e-06
-3.52434e-06
-3.57097e-06
-3.61081e-06
-3.64488e-06
-3.67459e-06
-3.70174e-06
-3.72852e-06
-3.7574e-06
-3.79115e-06
-3.83278e-06
-3.88553e-06
-3.95285e-06
-4.03843e-06
-4.14621e-06
-4.28027e-06
-4.44457e-06
-4.64187e-06
-4.87188e-06
-5.12984e-06
-5.38403e-06
-5.59171e-06
-5.73141e-06
-5.79825e-06
-5.79852e-06
-5.74438e-06
-5.64963e-06
-5.52939e-06
-5.39959e-06
-5.27623e-06
-5.17433e-06
-5.10698e-06
-5.0846e-06
-5.11461e-06
-5.20161e-06
-5.34689e-06
-5.54933e-06
-5.80582e-06
-6.1117e-06
-6.46116e-06
-6.84773e-06
-7.26459e-06
-7.70485e-06
-2.69121e-06
-2.79266e-06
-2.88729e-06
-2.97564e-06
-3.05839e-06
-3.13632e-06
-3.21037e-06
-3.2817e-06
-3.35173e-06
-3.42218e-06
-3.49501e-06
-3.57249e-06
-3.65708e-06
-3.75148e-06
-3.85857e-06
-3.98141e-06
-4.12315e-06
-4.28691e-06
-4.47535e-06
-4.69024e-06
-4.93112e-06
-5.19356e-06
-5.44975e-06
-5.66643e-06
-5.83379e-06
-5.95191e-06
-6.02412e-06
-6.05737e-06
-6.06135e-06
-6.04742e-06
-6.02742e-06
-6.01281e-06
-6.01397e-06
-6.03971e-06
-6.09716e-06
-6.1919e-06
-6.32757e-06
-6.50494e-06
-6.72343e-06
-6.98127e-06
-7.27569e-06
-7.60307e-06
-7.95925e-06
-8.3397e-06
-8.73969e-06
-1.99816e-06
-2.13303e-06
-2.26257e-06
-2.38728e-06
-2.50799e-06
-2.62561e-06
-2.74107e-06
-2.85536e-06
-2.96965e-06
-3.0853e-06
-3.20387e-06
-3.32715e-06
-3.45711e-06
-3.59588e-06
-3.74573e-06
-3.90904e-06
-4.08819e-06
-4.28547e-06
-4.50278e-06
-4.74134e-06
-5.00088e-06
-5.27863e-06
-5.55223e-06
-5.79604e-06
-6.00458e-06
-6.17909e-06
-6.32178e-06
-6.43689e-06
-6.5308e-06
-6.61128e-06
-6.68659e-06
-6.76462e-06
-6.85246e-06
-6.95613e-06
-7.08027e-06
-7.22807e-06
-7.40221e-06
-7.60447e-06
-7.83529e-06
-8.09401e-06
-8.37917e-06
-8.68872e-06
-9.02015e-06
-9.37066e-06
-9.73717e-06
-1.34587e-06
-1.51505e-06
-1.67989e-06
-1.84099e-06
-1.99923e-06
-2.15555e-06
-2.31083e-06
-2.46599e-06
-2.62199e-06
-2.77996e-06
-2.94117e-06
-3.10703e-06
-3.27913e-06
-3.45912e-06
-3.64879e-06
-3.84995e-06
-4.06444e-06
-4.29399e-06
-4.54014e-06
-4.80401e-06
-5.08608e-06
-5.38595e-06
-5.686e-06
-5.96386e-06
-6.21464e-06
-6.43979e-06
-6.64127e-06
-6.82217e-06
-6.98685e-06
-7.14051e-06
-7.28868e-06
-7.43666e-06
-7.5892e-06
-7.7503e-06
-7.92335e-06
-8.11127e-06
-8.31627e-06
-8.53956e-06
-8.78173e-06
-9.04284e-06
-9.32241e-06
-9.61949e-06
-9.93277e-06
-1.02606e-05
-1.06012e-05
-8.09791e-07
-1.00943e-06
-1.20565e-06
-1.39896e-06
-1.59017e-06
-1.78011e-06
-1.96961e-06
-2.15946e-06
-2.35052e-06
-2.54374e-06
-2.74018e-06
-2.94101e-06
-3.14751e-06
-3.36102e-06
-3.58299e-06
-3.81487e-06
-4.05817e-06
-4.31436e-06
-4.58487e-06
-4.871e-06
-5.17398e-06
-5.49501e-06
-5.81881e-06
-6.12438e-06
-6.40715e-06
-6.66881e-06
-6.91135e-06
-7.13736e-06
-7.3501e-06
-7.55325e-06
-7.75062e-06
-7.94589e-06
-8.14246e-06
-8.34336e-06
-8.55136e-06
-8.76872e-06
-8.99697e-06
-9.23708e-06
-9.48971e-06
-9.75518e-06
-1.00335e-05
-1.03243e-05
-1.0627e-05
-1.09408e-05
-1.12646e-05
-4.16147e-07
-6.40727e-07
-8.62442e-07
-1.08181e-06
-1.29954e-06
-1.51634e-06
-1.73293e-06
-1.95e-06
-2.16829e-06
-2.38862e-06
-2.6119e-06
-2.8391e-06
-3.0713e-06
-3.30963e-06
-3.55529e-06
-3.80954e-06
-4.07368e-06
-4.34907e-06
-4.63713e-06
-4.93933e-06
-5.25729e-06
-5.59276e-06
-5.93181e-06
-6.25482e-06
-6.5577e-06
-6.84236e-06
-7.11083e-06
-7.3654e-06
-7.60869e-06
-7.84345e-06
-8.0725e-06
-8.29853e-06
-8.52408e-06
-8.75145e-06
-8.98263e-06
-9.21927e-06
-9.46277e-06
-9.71414e-06
-9.97408e-06
-1.0243e-05
-1.05212e-05
-1.08085e-05
-1.11049e-05
-1.14098e-05
-1.17226e-05
-1.2976e-07
-3.75204e-07
-6.18105e-07
-8.5893e-07
-1.09829e-06
-1.3368e-06
-1.57505e-06
-1.81363e-06
-2.0532e-06
-2.29444e-06
-2.53815e-06
-2.78516e-06
-3.0364e-06
-3.29283e-06
-3.55551e-06
-3.82553e-06
-4.10409e-06
-4.39245e-06
-4.69202e-06
-5.00428e-06
-5.33096e-06
-5.67388e-06
-6.02027e-06
-6.35219e-06
-6.66617e-06
-6.96424e-06
-7.24836e-06
-7.52057e-06
-7.78303e-06
-8.03791e-06
-8.28737e-06
-8.53348e-06
-8.77817e-06
-9.02321e-06
-9.27013e-06
-9.52027e-06
-9.77486e-06
-1.00348e-05
-1.03009e-05
-1.05736e-05
-1.08531e-05
-1.11396e-05
-1.14332e-05
-1.17335e-05
-1.20404e-05
7.28569e-08
-1.90013e-07
-4.50441e-07
-7.08845e-07
-9.65747e-07
-1.22166e-06
-1.47709e-06
-1.73253e-06
-1.98853e-06
-2.24572e-06
-2.50477e-06
-2.76641e-06
-3.03144e-06
-3.30071e-06
-3.57516e-06
-3.85575e-06
-4.14361e-06
-4.43989e-06
-4.74594e-06
-5.06318e-06
-5.39327e-06
-5.73796e-06
-6.08568e-06
-6.42039e-06
-6.73921e-06
-7.04415e-06
-7.337e-06
-7.61956e-06
-7.89365e-06
-8.16106e-06
-8.42352e-06
-8.68266e-06
-8.94004e-06
-9.19707e-06
-9.45503e-06
-9.71493e-06
-9.9779e-06
-1.02448e-05
-1.05161e-05
-1.07926e-05
-1.10744e-05
-1.13618e-05
-1.16549e-05
-1.19536e-05
-1.22579e-05
2.12376e-07
-6.49331e-08
-3.39753e-07
-6.12458e-07
-8.8349e-07
-1.15327e-06
-1.42222e-06
-1.69076e-06
-1.95937e-06
-2.22859e-06
-2.49902e-06
-2.77129e-06
-3.04611e-06
-3.32423e-06
-3.60649e-06
-3.89376e-06
-4.18707e-06
-4.48748e-06
-4.79624e-06
-5.11466e-06
-5.44431e-06
-5.7868e-06
-6.1318e-06
-6.46525e-06
-6.78478e-06
-7.09221e-06
-7.38914e-06
-7.67718e-06
-7.95788e-06
-8.23279e-06
-8.50332e-06
-8.77083e-06
-9.03656e-06
-9.30169e-06
-9.56729e-06
-9.83451e-06
-1.0104e-05
-1.03764e-05
-1.06524e-05
-1.09325e-05
-1.12171e-05
-1.15064e-05
-1.18006e-05
-1.20997e-05
-1.24036e-05
3.06096e-07
1.68208e-08
-2.69822e-07
-5.54163e-07
-8.36572e-07
-1.11739e-06
-1.39696e-06
-1.67566e-06
-1.9539e-06
-2.23215e-06
-2.51095e-06
-2.79086e-06
-3.07249e-06
-3.35653e-06
-3.64372e-06
-3.93486e-06
-4.23087e-06
-4.53273e-06
-4.84159e-06
-5.15864e-06
-5.48534e-06
-5.82312e-06
-6.16291e-06
-6.49258e-06
-6.81016e-06
-7.11722e-06
-7.41517e-06
-7.70546e-06
-7.98948e-06
-8.26855e-06
-8.5439e-06
-8.81665e-06
-9.08788e-06
-9.35857e-06
-9.62966e-06
-9.90216e-06
-1.01766e-05
-1.04535e-05
-1.07336e-05
-1.10172e-05
-1.13048e-05
-1.15967e-05
-1.1893e-05
-1.21938e-05
-1.24991e-05
3.67326e-07
6.80955e-08
-2.28293e-07
-5.22133e-07
-8.13724e-07
-1.10334e-06
-1.39128e-06
-1.67785e-06
-1.96344e-06
-2.24846e-06
-2.53338e-06
-2.8187e-06
-3.10498e-06
-3.39282e-06
-3.68291e-06
-3.97596e-06
-4.27281e-06
-4.57435e-06
-4.88162e-06
-5.19571e-06
-5.51798e-06
-5.84965e-06
-6.18287e-06
-6.50732e-06
-6.82134e-06
-7.12623e-06
-7.42327e-06
-7.71377e-06
-7.99898e-06
-8.28006e-06
-8.55808e-06
-8.83401e-06
-9.10881e-06
-9.3833e-06
-9.65827e-06
-9.93465e-06
-1.02129e-05
-1.04936e-05
-1.07772e-05
-1.10642e-05
-1.1355e-05
-1.16498e-05
-1.19488e-05
-1.22522e-05
-1.25599e-05
4.05999e-07
9.84505e-08
-2.06009e-07
-5.07634e-07
-8.06665e-07
-1.10333e-06
-1.39787e-06
-1.69058e-06
-1.98179e-06
-2.27188e-06
-2.56127e-06
-2.85039e-06
-3.13978e-06
-3.42995e-06
-3.72154e-06
-4.0152e-06
-4.3117e-06
-4.61181e-06
-4.91652e-06
-5.22677e-06
-5.54385e-06
-5.86878e-06
-6.19483e-06
-6.51338e-06
-6.82296e-06
-7.12466e-06
-7.41965e-06
-7.70913e-06
-7.99423e-06
-8.27596e-06
-8.55525e-06
-8.83299e-06
-9.11002e-06
-9.38714e-06
-9.66491e-06
-9.94422e-06
-1.02255e-05
-1.05093e-05
-1.07961e-05
-1.10862e-05
-1.13801e-05
-1.1678e-05
-1.19801e-05
-1.22865e-05
-1.25973e-05
4.29398e-07
1.14861e-07
-1.96324e-07
-5.04371e-07
-8.09473e-07
-1.11181e-06
-1.41162e-06
-1.70914e-06
-2.0047e-06
-2.29861e-06
-2.59126e-06
-2.88306e-06
-3.17447e-06
-3.46599e-06
-3.75817e-06
-4.05162e-06
-4.34703e-06
-4.64511e-06
-4.94675e-06
-5.25279e-06
-5.56441e-06
-5.88247e-06
-6.20129e-06
-6.51374e-06
-6.81852e-06
-7.11654e-06
-7.4089e-06
-7.69668e-06
-7.98089e-06
-8.26242e-06
-8.54213e-06
-8.82079e-06
-9.09914e-06
-9.37784e-06
-9.65787e-06
-9.93949e-06
-1.02232e-05
-1.05096e-05
-1.07992e-05
-1.10922e-05
-1.13891e-05
-1.169e-05
-1.19953e-05
-1.23049e-05
-1.26191e-05
4.42725e-07
1.22271e-07
-1.94562e-07
-5.07955e-07
-8.18058e-07
-1.12503e-06
-1.42908e-06
-1.73043e-06
-2.02937e-06
-2.3262e-06
-2.62127e-06
-2.91494e-06
-3.20766e-06
-3.49986e-06
-3.79207e-06
-4.08482e-06
-4.37876e-06
-4.67453e-06
-4.97292e-06
-5.27468e-06
-5.58092e-06
-5.89231e-06
-6.20415e-06
-6.51062e-06
-6.81056e-06
-7.10477e-06
-7.39426e-06
-7.68001e-06
-7.96291e-06
-8.24378e-06
-8.52337e-06
-8.80241e-06
-9.08156e-06
-9.36147e-06
-9.64294e-06
-9.92636e-06
-1.02121e-05
-1.05008e-05
-1.07927e-05
-1.10884e-05
-1.1388e-05
-1.1692e-05
-1.20003e-05
-1.23133e-05
-1.26309e-05
4.49583e-07
1.24078e-07
-1.97546e-07
-5.15433e-07
-8.29705e-07
-1.14051e-06
-1.44802e-06
-1.75247e-06
-2.05409e-06
-2.35319e-06
-2.65007e-06
-2.94508e-06
-3.23862e-06
-3.5311e-06
-3.823e-06
-4.11481e-06
-4.40711e-06
-4.70048e-06
-4.99566e-06
-5.29329e-06
-5.59439e-06
-5.8995e-06
-6.20479e-06
-6.50559e-06
-6.80087e-06
-7.09135e-06
-7.37795e-06
-7.66156e-06
-7.94296e-06
-8.2229e-06
-8.50208e-06
-8.78116e-06
-9.06075e-06
-9.34143e-06
-9.62398e-06
-9.90884e-06
-1.01963e-05
-1.04868e-05
-1.07809e-05
-1.10789e-05
-1.13812e-05
-1.16879e-05
-1.19992e-05
-1.23154e-05
-1.26364e-05
4.52399e-07
1.22541e-07
-2.03183e-07
-5.24891e-07
-8.42683e-07
-1.15669e-06
-1.46709e-06
-1.77407e-06
-2.07787e-06
-2.37876e-06
-2.67704e-06
-2.97302e-06
-3.26707e-06
-3.55958e-06
-3.85099e-06
-4.14175e-06
-4.43239e-06
-4.72343e-06
-5.01554e-06
-5.30929e-06
-5.6056e-06
-5.90492e-06
-6.20417e-06
-6.4997e-06
-6.79061e-06
-7.07756e-06
-7.36139e-06
-7.64287e-06
-7.92272e-06
-8.20163e-06
-8.48023e-06
-8.75916e-06
-9.03892e-06
-9.3201e-06
-9.60349e-06
-9.88954e-06
-1.01783e-05
-1.04705e-05
-1.07665e-05
-1.10666e-05
-1.13712e-05
-1.16804e-05
-1.19946e-05
-1.23137e-05
-1.2638e-05
4.52758e-07
1.19121e-07
-2.10147e-07
-5.35137e-07
-8.55936e-07
-1.17267e-06
-1.48549e-06
-1.79459e-06
-2.10019e-06
-2.40254e-06
-2.70191e-06
-2.99861e-06
-3.29298e-06
-3.58538e-06
-3.87622e-06
-4.16591e-06
-4.45494e-06
-4.74378e-06
-5.03304e-06
-5.32321e-06
-5.61514e-06
-5.90917e-06
-6.20292e-06
-6.49362e-06
-6.78052e-06
-7.0642e-06
-7.34542e-06
-7.62487e-06
-7.90321e-06
-8.18107e-06
-8.45903e-06
-8.7377e-06
-9.01754e-06
-9.2989e-06
-9.58307e-06
-9.87006e-06
-1.016e-05
-1.04536e-05
-1.07512e-05
-1.10531e-05
-1.13598e-05
-1.16714e-05
-1.1988e-05
-1.231e-05
-1.26373e-05
4.51676e-07
1.14733e-07
-2.1762e-07
-5.45456e-07
-8.68853e-07
-1.18793e-06
-1.50282e-06
-1.81372e-06
-2.12083e-06
-2.42438e-06
-2.72463e-06
-3.02188e-06
-3.31645e-06
-3.60866e-06
-3.89891e-06
-4.18757e-06
-4.47509e-06
-4.7619e-06
-5.04854e-06
-5.33546e-06
-5.62342e-06
-5.91266e-06
-6.20144e-06
-6.48776e-06
-6.771e-06
-7.05169e-06
-7.33051e-06
-7.60808e-06
-7.88498e-06
-8.16181e-06
-8.43911e-06
-8.71748e-06
-8.99716e-06
-9.27876e-06
-9.56362e-06
-9.85129e-06
-1.01422e-05
-1.04369e-05
-1.07359e-05
-1.10396e-05
-1.13481e-05
-1.16617e-05
-1.19807e-05
-1.23052e-05
-1.26352e-05
4.49795e-07
1.09948e-07
-2.25105e-07
-5.55426e-07
-8.81083e-07
-1.20219e-06
-1.51887e-06
-1.83131e-06
-2.1397e-06
-2.44426e-06
-2.74524e-06
-3.04293e-06
-3.33761e-06
-3.6296e-06
-3.91927e-06
-4.20696e-06
-4.49309e-06
-4.77804e-06
-5.06232e-06
-5.3463e-06
-5.63069e-06
-5.91564e-06
-6.19995e-06
-6.48233e-06
-6.76227e-06
-7.04026e-06
-7.31689e-06
-7.59273e-06
-7.8683e-06
-8.14416e-06
-8.4208e-06
-8.69882e-06
-8.97824e-06
-9.26022e-06
-9.5455e-06
-9.83369e-06
-1.01254e-05
-1.04212e-05
-1.07214e-05
-1.10265e-05
-1.13366e-05
-1.16521e-05
-1.19731e-05
-1.22999e-05
-1.26324e-05
4.47515e-07
1.05119e-07
-2.32299e-07
-5.6479e-07
-8.92417e-07
-1.21528e-06
-1.53352e-06
-1.84728e-06
-2.15677e-06
-2.46219e-06
-2.76378e-06
-3.06181e-06
-3.35656e-06
-3.64833e-06
-3.93745e-06
-4.22425e-06
-4.50912e-06
-4.7924e-06
-5.07456e-06
-5.35591e-06
-5.63712e-06
-5.91824e-06
-6.19856e-06
-6.47742e-06
-6.75443e-06
-7.02999e-06
-7.30466e-06
-7.57892e-06
-7.85329e-06
-8.12824e-06
-8.40427e-06
-8.68189e-06
-8.96117e-06
-9.24341e-06
-9.52892e-06
-9.81758e-06
-1.011e-05
-1.04066e-05
-1.0708e-05
-1.10143e-05
-1.13258e-05
-1.16429e-05
-1.19658e-05
-1.22945e-05
-1.26292e-05
4.45034e-07
1.00377e-07
-2.39129e-07
-5.73529e-07
-9.02884e-07
-1.22729e-06
-1.54687e-06
-1.86179e-06
-2.17222e-06
-2.47838e-06
-2.78048e-06
-3.07879e-06
-3.37358e-06
-3.66512e-06
-3.95373e-06
-4.23973e-06
-4.52345e-06
-4.80524e-06
-5.0855e-06
-5.36452e-06
-5.64289e-06
-5.92059e-06
-6.19731e-06
-6.47301e-06
-6.7474e-06
-7.0208e-06
-7.2937e-06
-7.56656e-06
-7.83982e-06
-8.11396e-06