/*--------------------------------*- C++ -*----------------------------------*\
| =========                 |                                                 |
| \\      /  F ield         | OpenFOAM: The Open Source CFD Toolbox           |
|  \\    /   O peration     | Version:  2312                                  |
|   \\  /    A nd           | Website:  www.openfoam.com                      |
|    \\/     M anipulation  |                                                 |
\*---------------------------------------------------------------------------*/
FoamFile
{
    version     2.0;
    format      ascii;
    arch        "LSB;label=32;scalar=64";
    class       volScalarField;
    location    "161";
    object      p;
}
// * * * * * * * * * * * * * * * * * * * * * * * * * * * * * * * * * * * * * //

dimensions      [0 2 -2 0 0 0 0];

internalField   nonuniform List<scalar> 
4800
(
1.83348e-11
-1.15506e-06
-2.06701e-06
-2.80886e-06
-3.42277e-06
-3.94708e-06
-4.40365e-06
-4.80204e-06
-5.1554e-06
-5.47417e-06
-5.76379e-06
-6.02504e-06
-6.25138e-06
-6.67848e-06
-8.23526e-06
1.45994e-08
-1.13986e-06
-2.05179e-06
-2.7941e-06
-3.40921e-06
-3.93535e-06
-4.3946e-06
-4.79664e-06
-5.15529e-06
-5.48295e-06
-5.78974e-06
-6.08945e-06
-6.3948e-06
-6.81163e-06
-7.57589e-06
2.96354e-08
-1.12403e-06
-2.03592e-06
-2.77892e-06
-3.39509e-06
-3.92202e-06
-4.38338e-06
-4.78847e-06
-5.15128e-06
-5.48521e-06
-5.80152e-06
-6.11457e-06
-6.43111e-06
-6.75795e-06
-7.06987e-06
4.44484e-08
-1.10791e-06
-2.01934e-06
-2.76255e-06
-3.37997e-06
-3.90621e-06
-4.3689e-06
-4.77579e-06
-5.14002e-06
-5.4747e-06
-5.78847e-06
-6.08728e-06
-6.36211e-06
-6.58143e-06
-6.67592e-06
6.03653e-08
-1.09008e-06
-2.00051e-06
-2.74326e-06
-3.36165e-06
-3.88635e-06
-4.34848e-06
-4.75531e-06
-5.11726e-06
-5.4457e-06
-5.74467e-06
-6.0108e-06
-6.2246e-06
-6.34786e-06
-6.32677e-06
7.87885e-08
-1.06911e-06
-1.97791e-06
-2.71945e-06
-3.33739e-06
-3.86082e-06
-4.31932e-06
-4.72275e-06
-5.07753e-06
-5.39179e-06
-5.66489e-06
-5.88741e-06
-6.03811e-06
-6.08778e-06
-6.00905e-06
1.02034e-07
-1.04279e-06
-1.94921e-06
-2.68859e-06
-3.30421e-06
-3.82543e-06
-4.27777e-06
-4.67291e-06
-5.01459e-06
-5.30693e-06
-5.54616e-06
-5.72145e-06
-5.81647e-06
-5.81604e-06
-5.71315e-06
1.34293e-07
-1.00714e-06
-1.91045e-06
-2.64648e-06
-3.25811e-06
-3.77421e-06
-4.21779e-06
-4.59946e-06
-4.92198e-06
-5.1864e-06
-5.38823e-06
-5.51923e-06
-5.5708e-06
-5.53985e-06
-5.43061e-06
1.82266e-07
-9.55846e-07
-1.85537e-06
-2.5867e-06
-3.1924e-06
-3.7003e-06
-4.13129e-06
-4.4949e-06
-4.79342e-06
-5.02688e-06
-5.19239e-06
-5.28645e-06
-5.30777e-06
-5.26103e-06
-5.15509e-06
2.55339e-07
-8.79866e-07
-1.77504e-06
-2.50025e-06
-3.0978e-06
-3.59448e-06
-4.00921e-06
-4.35118e-06
-4.62315e-06
-4.82601e-06
-4.95997e-06
-5.02642e-06
-5.02938e-06
-4.97744e-06
-4.88041e-06
3.65126e-07
-7.67602e-07
-1.65785e-06
-2.37553e-06
-2.96271e-06
-3.4455e-06
-3.84147e-06
-4.16012e-06
-4.40577e-06
-4.58154e-06
-4.691e-06
-4.73938e-06
-4.73378e-06
-4.68405e-06
-4.59935e-06
5.2489e-07
-6.05394e-07
-1.48995e-06
-2.19871e-06
-2.7737e-06
-3.24082e-06
-3.61731e-06
-3.91351e-06
-4.13592e-06
-4.29041e-06
-4.38336e-06
-4.42242e-06
-4.41597e-06
-4.3737e-06
-4.30353e-06
7.49892e-07
-3.77346e-07
-1.25526e-06
-1.95385e-06
-2.51562e-06
-2.9669e-06
-3.32553e-06
-3.6028e-06
-3.80744e-06
-3.94782e-06
-4.03229e-06
-4.06966e-06
-4.06843e-06
-4.03745e-06
-3.98339e-06
1.05854e-06
-6.42505e-08
-9.34597e-07
-1.62225e-06
-2.17101e-06
-2.60843e-06
-2.95327e-06
-3.21754e-06
-3.41167e-06
-3.54583e-06
-3.62953e-06
-3.67187e-06
-3.6809e-06
-3.6644e-06
-3.62798e-06
1.47272e-06
3.56963e-07
-5.04977e-07
-1.18183e-06
-1.71899e-06
-2.14686e-06
-2.48424e-06
-2.74339e-06
-2.93547e-06
-3.07165e-06
-3.16201e-06
-3.21547e-06
-3.23944e-06
-3.24067e-06
-3.22392e-06
2.01618e-06
9.11886e-07
5.92147e-08
-6.08091e-07
-1.13745e-06
-1.56153e-06
-1.89923e-06
-2.16202e-06
-2.36102e-06
-2.50766e-06
-2.61208e-06
-2.68278e-06
-2.72654e-06
-2.74926e-06
-2.75515e-06
2.71058e-06
1.62537e-06
7.83057e-07
1.22295e-07
-4.04702e-07
-8.32471e-07
-1.17877e-06
-1.45398e-06
-1.66894e-06
-1.83476e-06
-1.96107e-06
-2.05571e-06
-2.12483e-06
-2.17369e-06
-2.20621e-06
3.56934e-06
2.51538e-06
1.68659e-06
1.02718e-06
4.94936e-07
5.54854e-08
-3.07304e-07
-6.03184e-07
-8.42924e-07
-1.03702e-06
-1.19406e-06
-1.32085e-06
-1.42275e-06
-1.50445e-06
-1.56964e-06
4.59047e-06
3.58265e-06
2.77637e-06
2.11391e-06
1.57082e-06
1.11147e-06
7.25856e-07
4.02538e-07
1.30264e-07
-1.00471e-07
-2.96882e-07
-4.64449e-07
-6.07719e-07
-7.30863e-07
-8.37387e-07
5.74739e-06
4.79963e-06
4.02289e-06
3.37606e-06
2.81447e-06
2.33161e-06
1.91774e-06
1.56129e-06
1.25086e-06
9.77723e-07
7.36061e-07
5.21538e-07
3.30259e-07
1.58477e-07
2.75265e-09
6.92378e-06
6.04097e-06
5.28824e-06
4.63803e-06
4.06773e-06
3.56513e-06
3.12158e-06
2.72662e-06
2.37093e-06
2.04826e-06
1.75445e-06
1.48594e-06
1.23926e-06
1.01114e-06
7.98665e-07
7.9319e-06
7.11438e-06
6.3924e-06
5.74253e-06
5.15558e-06
4.63323e-06
4.16329e-06
3.73351e-06
3.33691e-06
2.96975e-06
2.62895e-06
2.31131e-06
2.01371e-06
1.73344e-06
1.46812e-06
8.68571e-06
7.91353e-06
7.21237e-06
6.57282e-06
5.9891e-06
5.45621e-06
4.96503e-06
4.50766e-06
4.07935e-06
3.67712e-06
3.29818e-06
2.93977e-06
2.59931e-06
2.27466e-06
1.96396e-06
9.22888e-06
8.4963e-06
7.82137e-06
7.19727e-06
6.61796e-06
6.07732e-06
5.57028e-06
5.09241e-06
4.64003e-06
4.21023e-06
3.80053e-06
3.40875e-06
3.03294e-06
2.67151e-06
2.32298e-06
9.61197e-06
8.91606e-06
8.2643e-06
7.65339e-06
7.0774e-06
6.53233e-06
6.01522e-06
5.52293e-06
5.05237e-06
4.60107e-06
4.16705e-06
3.7487e-06
3.34457e-06
2.95347e-06
2.57426e-06
9.8734e-06
9.21033e-06
8.57694e-06
7.9772e-06
7.40569e-06
6.85967e-06
6.33677e-06
5.83444e-06
5.35034e-06
4.88263e-06
4.42984e-06
3.99079e-06
3.56441e-06
3.14983e-06
2.74622e-06
1.00441e-05
9.40146e-06
8.79165e-06
8.20374e-06
7.638e-06
7.09303e-06
6.56684e-06
6.05753e-06
5.5635e-06
5.08343e-06
4.61629e-06
4.16121e-06
3.71744e-06
3.28441e-06
2.86155e-06
1.01539e-05
9.53497e-06
8.93897e-06
8.36143e-06
7.8017e-06
7.25861e-06
6.73068e-06
6.21662e-06
5.71535e-06
5.226e-06
4.74783e-06
4.2803e-06
3.82292e-06
3.37539e-06
2.93736e-06
1.02221e-05
9.62241e-06
9.03939e-06
8.47126e-06
7.91724e-06
7.37641e-06
6.84776e-06
6.33047e-06
5.82387e-06
5.32742e-06
4.84068e-06
4.36336e-06
3.89522e-06
3.43618e-06
2.98609e-06
1.0263e-05
9.67957e-06
9.1083e-06
8.54853e-06
7.99974e-06
7.46125e-06
6.93245e-06
6.4129e-06
5.90224e-06
5.40022e-06
4.90665e-06
4.42147e-06
3.94466e-06
3.47631e-06
3.01647e-06
1.02869e-05
9.71736e-06
9.15643e-06
8.60406e-06
8.05993e-06
7.52365e-06
6.99496e-06
6.47372e-06
5.95982e-06
5.45327e-06
4.95411e-06
4.46246e-06
3.97848e-06
3.50245e-06
3.03455e-06
1.03005e-05
9.74305e-06
9.19115e-06
8.64523e-06
8.10517e-06
7.57086e-06
7.04235e-06
6.51973e-06
6.00314e-06
5.49278e-06
4.98889e-06
4.49176e-06
4.00173e-06
3.51919e-06
3.04448e-06
1.03085e-05
9.76137e-06
9.21731e-06
8.67697e-06
8.1404e-06
7.6078e-06
7.07943e-06
6.55561e-06
6.03667e-06
5.523e-06
5.015e-06
4.51312e-06
4.01784e-06
3.52969e-06
3.0491e-06
1.03135e-05
9.77532e-06
9.23803e-06
8.70249e-06
8.1689e-06
7.63772e-06
7.10941e-06
6.58448e-06
6.06342e-06
5.5468e-06
5.03515e-06
4.52909e-06
4.02918e-06
3.53608e-06
3.05034e-06
1.03171e-05
9.78669e-06
9.25524e-06
8.72383e-06
8.19276e-06
7.66274e-06
7.1344e-06
6.60839e-06
6.0854e-06
5.5661e-06
5.05118e-06
4.54136e-06
4.03732e-06
3.53982e-06
3.0495e-06
1.03201e-05
9.7965e-06
9.27011e-06
8.74223e-06
8.21328e-06
7.68419e-06
7.15572e-06
6.62869e-06
6.10389e-06
5.58214e-06
5.06425e-06
4.55104e-06
4.0433e-06
3.54186e-06
3.04744e-06
1.03231e-05
9.80526e-06
9.28329e-06
8.75839e-06
8.23122e-06
7.70285e-06
7.17419e-06
6.64616e-06
6.11969e-06
5.59572e-06
5.07514e-06
4.55887e-06
4.04779e-06
3.54282e-06
3.04473e-06
1.0326e-05
9.81332e-06
9.29521e-06
8.77284e-06
8.24717e-06
7.71937e-06
7.19046e-06
6.66149e-06
6.13349e-06
5.60747e-06
5.08444e-06
4.56539e-06
4.05128e-06
3.54308e-06
3.04166e-06
1.03293e-05
9.82132e-06
9.30669e-06
8.78663e-06
8.26229e-06
7.73494e-06
7.20573e-06
6.67584e-06
6.14634e-06
5.61834e-06
5.09294e-06
4.57121e-06
4.05417e-06
3.54286e-06
3.03825e-06
1.03328e-05
9.82949e-06
9.31817e-06
8.8003e-06
8.2772e-06
7.75024e-06
7.22064e-06
6.68961e-06
6.15848e-06
5.62844e-06
5.10067e-06
4.57634e-06
4.05655e-06
3.54241e-06
3.03483e-06
-9.41027e-06
-7.09319e-06
-5.68464e-06
-4.74096e-06
-3.99521e-06
-3.43393e-06
-3.01141e-06
-2.69672e-06
-2.46845e-06
-2.30875e-06
-2.2021e-06
-2.13419e-06
-2.09125e-06
-2.05993e-06
-2.02665e-06
-1.97865e-06
-1.90473e-06
-1.79939e-06
-1.6656e-06
-1.52299e-06
-1.40656e-06
-1.35503e-06
-1.37333e-06
-1.36587e-06
-1.22755e-06
-8.98066e-07
-3.49042e-07
4.26212e-07
1.42628e-06
2.64509e-06
4.07246e-06
5.69161e-06
7.48174e-06
9.41183e-06
1.14422e-05
1.35256e-05
1.56067e-05
1.76218e-05
1.9494e-05
2.11249e-05
2.23699e-05
2.3024e-05
2.26316e-05
2.07989e-05
1.58877e-05
-7.82874e-06
-6.58893e-06
-5.50582e-06
-4.65781e-06
-3.95584e-06
-3.4091e-06
-2.99192e-06
-2.67982e-06
-2.45351e-06
-2.29592e-06
-2.19168e-06
-2.12639e-06
-2.0862e-06
-2.05765e-06
-2.02711e-06
-1.98183e-06
-1.91061e-06
-1.80786e-06
-1.67615e-06
-1.53424e-06
-1.41553e-06
-1.3567e-06
-1.36254e-06
-1.34067e-06
-1.1894e-06
-8.49778e-07
-2.93999e-07
4.84674e-07
1.48443e-06
2.69864e-06
4.11574e-06
5.71682e-06
7.479e-06
9.36849e-06
1.1342e-05
1.33471e-05
1.53218e-05
1.71915e-05
1.88622e-05
2.02055e-05
2.10223e-05
2.09915e-05
1.94722e-05
1.5723e-05
8.53774e-06
-7.0019e-06
-6.20378e-06
-5.32341e-06
-4.56285e-06
-3.90912e-06
-3.38258e-06
-2.97359e-06
-2.66523e-06
-2.44115e-06
-2.28554e-06
-2.1834e-06
-2.12039e-06
-2.08259e-06
-2.05649e-06
-2.02842e-06
-1.98563e-06
-1.91699e-06
-1.81678e-06
-1.68717e-06
-1.54596e-06
-1.42475e-06
-1.35786e-06
-1.34991e-06
-1.31206e-06
-1.14653e-06
-7.9599e-07
-2.33389e-07
5.47963e-07
1.54567e-06
2.75239e-06
4.1548e-06
5.7313e-06
7.45641e-06
9.29288e-06
1.11929e-05
1.30982e-05
1.49383e-05
1.66272e-05
1.8054e-05
1.90664e-05
1.94352e-05
1.88135e-05
1.66402e-05
1.25326e-05
6.26278e-06
-6.48889e-06
-5.89409e-06
-5.17376e-06
-4.48168e-06
-3.87362e-06
-3.36795e-06
-2.96668e-06
-2.66082e-06
-2.43732e-06
-2.28197e-06
-2.18038e-06
-2.11832e-06
-2.08184e-06
-2.05735e-06
-2.03115e-06
-1.99044e-06
-1.92412e-06
-1.82632e-06
-1.69874e-06
-1.55809e-06
-1.434e-06
-1.35819e-06
-1.33498e-06
-1.27934e-06
-1.09782e-06
-7.34861e-07
-1.6444e-07
6.19998e-07
1.61517e-06
2.81267e-06
4.19715e-06
5.74345e-06
7.42291e-06
9.19413e-06
1.1004e-05
1.27876e-05
1.44661e-05
1.59429e-05
1.70949e-05
1.77601e-05
1.77161e-05
1.66744e-05
1.42769e-05
1.03525e-05
5.16815e-06
-6.10181e-06
-5.63033e-06
-5.03439e-06
-4.4236e-06
-3.85727e-06
-3.37188e-06
-2.97724e-06
-2.67186e-06
-2.44637e-06
-2.28861e-06
-2.18507e-06
-2.12177e-06
-2.08479e-06
-2.06049e-06
-2.0351e-06
-1.99574e-06
-1.9313e-06
-1.83573e-06
-1.71014e-06
-1.57003e-06
-1.44281e-06
-1.35726e-06
-1.31733e-06
-1.24219e-06
-1.04329e-06
-6.67014e-07
-8.86733e-08
6.98133e-07
1.68853e-06
2.8732e-06
4.23443e-06
5.74252e-06
7.36545e-06
9.05727e-06
1.07593e-05
1.24005e-05
1.38949e-05
1.5139e-05
1.60067e-05
1.63433e-05
1.59629e-05
1.46666e-05
1.22815e-05
8.80836e-06
4.58155e-06
-5.78661e-06
-5.40192e-06
-4.90279e-06
-4.37459e-06
-3.85784e-06
-3.39428e-06
-3.0075e-06
-2.70172e-06
-2.47201e-06
-2.30897e-06
-2.20047e-06
-2.13309e-06
-2.09313e-06
-2.06697e-06
-2.04078e-06
-2.0016e-06
-1.93829e-06
-1.84456e-06
-1.72084e-06
-1.5812e-06
-1.45059e-06
-1.35448e-06
-1.29641e-06
-1.20012e-06
-9.82712e-07
-5.92639e-07
-6.82302e-09
7.80688e-07
1.76232e-06
2.9295e-06
4.26041e-06
5.72015e-06
7.27366e-06
8.87037e-06
1.04465e-05
1.1926e-05
1.3219e-05
1.42211e-05
1.48129e-05
1.48622e-05
1.42345e-05
1.28199e-05
1.05755e-05
7.60421e-06
4.20613e-06
-5.50905e-06
-5.19206e-06
-4.77953e-06
-4.31984e-06
-3.86021e-06
-3.42856e-06
-3.0545e-06
-2.74987e-06
-2.51532e-06
-2.34509e-06
-2.22891e-06
-2.15441e-06
-2.10855e-06
-2.07797e-06
-2.04889e-06
-2.00829e-06
-1.94503e-06
-1.85248e-06
-1.73033e-06
-1.59101e-06
-1.45673e-06
-1.34922e-06
-1.27166e-06
-1.15265e-06
-9.15824e-07
-5.11869e-07
8.0509e-08
8.65218e-07
1.83306e-06
2.9786e-06
4.26952e-06
5.66884e-06
7.13854e-06
8.62363e-06
1.00565e-05
1.13582e-05
1.24394e-05
1.32015e-05
1.35408e-05
1.33566e-05
1.2567e-05
1.11328e-05
9.08587e-06
6.55997e-06
3.79277e-06
-5.24906e-06
-4.98634e-06
-4.64732e-06
-4.25775e-06
-3.85196e-06
-3.46139e-06
-3.10889e-06
-2.81015e-06
-2.57274e-06
-2.39553e-06
-2.27026e-06
-2.1862e-06
-2.13167e-06
-2.09401e-06
-2.05971e-06
-2.01581e-06
-1.95123e-06
-1.85902e-06
-1.73801e-06
-1.59877e-06
-1.46053e-06
-1.34086e-06
-1.24262e-06
-1.09957e-06
-8.42874e-07
-4.25219e-07
1.70642e-07
9.46294e-07
1.89984e-06
3.01547e-06
4.25345e-06
5.57895e-06
6.94951e-06
8.30664e-06
9.58089e-06
1.06939e-05
1.15611e-05
1.20964e-05
1.22174e-05
1.18572e-05
1.0978e-05
9.58763e-06
7.75143e-06
5.59785e-06
3.30516e-06
-4.99632e-06
-4.77794e-06
-4.49999e-06
-4.17556e-06
-3.82715e-06
-3.4798e-06
-3.15696e-06
-2.87106e-06
-2.63571e-06
-2.45471e-06
-2.32094e-06
-2.22622e-06
-2.16112e-06
-2.11418e-06
-2.07253e-06
-2.0235e-06
-1.95623e-06
-1.86347e-06
-1.74316e-06
-1.60382e-06
-1.46142e-06
-1.32897e-06
-1.20924e-06
-1.04118e-06
-7.65162e-07
-3.35042e-07
2.56146e-07
1.02412e-06
1.95922e-06
3.02942e-06
4.20084e-06
5.43843e-06
6.69426e-06
7.90832e-06
9.01211e-06
9.93203e-06
1.05916e-05
1.09224e-05
1.08651e-05
1.03828e-05
9.46982e-06
8.15923e-06
6.52526e-06
4.67752e-06
2.74646e-06
-4.74372e-06
-4.56245e-06
-4.33521e-06
-4.06827e-06
-3.7753e-06
-3.47494e-06
-3.1845e-06
-2.91878e-06
-2.69357e-06
-2.5141e-06
-2.37406e-06
-2.26922e-06
-2.19305e-06
-2.1357e-06
-2.0853e-06
-2.02979e-06
-1.95879e-06
-1.86486e-06
-1.74503e-06
-1.60561e-06
-1.45912e-06
-1.31363e-06
-1.17266e-06
-9.7855e-07
-6.84955e-07
-2.51188e-07
3.37946e-07
1.09786e-06
1.9965e-06
3.00642e-06
4.09886e-06
5.23342e-06
6.35939e-06
7.41786e-06
8.34424e-06
9.07061e-06
9.5391e-06
9.69404e-06
9.4992e-06
8.94101e-06
8.03346e-06
6.81994e-06
5.37034e-06
3.77273e-06
2.12186e-06
-4.48401e-06
-4.33472e-06
-4.15003e-06
-3.93274e-06
-3.69051e-06
-3.4369e-06
-3.18194e-06
-2.94193e-06
-2.73479e-06
-2.56165e-06
-2.41941e-06
-2.30713e-06
-2.22134e-06
-2.15402e-06
-2.0947e-06
-2.03234e-06
-1.95729e-06
-1.86213e-06
-1.74305e-06
-1.60408e-06
-1.45412e-06
-1.29581e-06
-1.13502e-06
-9.16226e-07
-6.0882e-07
-1.75291e-07
4.16523e-07
1.14797e-06
1.99389e-06
2.93308e-06
3.93242e-06
4.94852e-06
5.93113e-06
6.82519e-06
7.57519e-06
8.11747e-06
8.41293e-06
8.42277e-06
8.12792e-06
7.53035e-06
6.6539e-06
5.54276e-06
4.25704e-06
2.86518e-06
1.43619e-06
-4.20895e-06
-4.08804e-06
-3.93981e-06
-3.76513e-06
-3.56813e-06
-3.3569e-06
-3.14115e-06
-2.93452e-06
-2.74789e-06
-2.58441e-06
-2.44501e-06
-2.33044e-06
-2.23863e-06
-2.16359e-06
-2.09675e-06
-2.0285e-06
-1.95018e-06
-1.85466e-06
-1.73737e-06
-1.60016e-06
-1.44818e-06
-1.27906e-06
-1.09605e-06
-8.65813e-07
-5.45811e-07
-1.04698e-07
4.66379e-07
1.15384e-06
1.93787e-06
2.79328e-06
3.68426e-06
4.56787e-06
5.39681e-06
6.12132e-06
6.69196e-06
7.07289e-06
7.22087e-06
7.11631e-06
6.75381e-06
6.14416e-06
5.31415e-06
4.30384e-06
3.16226e-06
1.94164e-06
6.92494e-07
-3.90927e-06
-3.81438e-06
-3.69829e-06
-3.5611e-06
-3.40495e-06
-3.23504e-06
-3.05894e-06
-2.88524e-06
-2.72154e-06
-2.57295e-06
-2.44239e-06
-2.33118e-06
-2.23813e-06
-2.15917e-06
-2.08782e-06
-2.01618e-06
-1.93677e-06
-1.84295e-06
-1.72962e-06
-1.59655e-06
-1.44539e-06
-1.27002e-06
-1.06831e-06
-8.29283e-07
-5.01409e-07
-6.97774e-08
4.68626e-07
1.10223e-06
1.81112e-06
2.56749e-06
3.33606e-06
4.07673e-06
4.74741e-06
5.30682e-06
5.71721e-06
5.94713e-06
5.97179e-06
5.78093e-06
5.37698e-06
4.77451e-06
3.99907e-06
3.08448e-06
2.06941e-06
9.93232e-07
-1.06845e-07
-3.5745e-06
-3.50437e-06
-3.41774e-06
-3.3145e-06
-3.19565e-06
-3.06434e-06
-2.92548e-06
-2.78478e-06
-2.64802e-06
-2.52013e-06
-2.40445e-06
-2.30256e-06
-2.2141e-06
-2.13657e-06
-2.0655e-06
-1.99472e-06
-1.91801e-06
-1.82942e-06
-1.72358e-06
-1.59843e-06
-1.45269e-06
-1.27751e-06
-1.06677e-06
-8.20298e-07
-4.96019e-07
-8.74619e-08
4.05972e-07
9.72425e-07
1.59123e-06
2.23499e-06
2.87091e-06
3.4635e-06
3.978e-06
4.38214e-06
4.64669e-06
4.74869e-06
4.675e-06
4.4226e-06
3.99783e-06
3.41561e-06
2.69814e-06
1.87265e-06
9.68855e-07
1.62063e-08
-9.57797e-07
-3.19218e-06
-3.14681e-06
-3.08848e-06
-3.0171e-06
-2.93306e-06
-2.83813e-06
-2.7354e-06
-2.6288e-06
-2.52252e-06
-2.42048e-06
-2.32563e-06
-2.23966e-06
-2.16276e-06
-2.09356e-06
-2.02926e-06
-1.96549e-06
-1.89724e-06
-1.81922e-06
-1.72605e-06
-1.61433e-06
-1.48027e-06
-1.31322e-06
-1.10616e-06
-8.59415e-07
-5.52958e-07
-1.81061e-07
2.54065e-07
7.39733e-07
1.25582e-06
1.77743e-06
2.2759e-06
2.72283e-06
3.09131e-06
3.35524e-06
3.4925e-06
3.48992e-06
3.34182e-06
3.04916e-06
2.61941e-06
2.06597e-06
1.40701e-06
6.63645e-07
-1.41747e-07
-9.87325e-07
-1.85274e-06
-2.74754e-06
-2.72857e-06
-2.69923e-06
-2.65959e-06
-2.60981e-06
-2.55088e-06
-2.48477e-06
-2.41408e-06
-2.34171e-06
-2.27049e-06
-2.20278e-06
-2.14008e-06
-2.08299e-06
-2.03091e-06
-1.98178e-06
-1.93277e-06
-1.88059e-06
-1.82066e-06
-1.74738e-06
-1.65648e-06
-1.54269e-06
-1.39436e-06
-1.20334e-06
-9.73139e-07
-6.98263e-07
-3.76744e-07
-1.3435e-08
3.79853e-07
7.8497e-07
1.18057e-06
1.54556e-06
1.85858e-06
2.09584e-06
2.23648e-06
2.26837e-06
2.18527e-06
1.98509e-06
1.67015e-06
1.24758e-06
7.28569e-07
1.27278e-07
-5.4041e-07
-1.25798e-06
-2.00938e-06
-2.77957e-06
-2.22639e-06
-2.23708e-06
-2.2394e-06
-2.23356e-06
-2.21972e-06
-2.19853e-06
-2.17122e-06
-2.13947e-06
-2.10524e-06
-2.07044e-06
-2.03681e-06
-2.0057e-06
-1.97743e-06
-1.95216e-06
-1.92917e-06
-1.90569e-06
-1.87904e-06
-1.84604e-06
-1.80166e-06
-1.74117e-06
-1.65855e-06
-1.54199e-06
-1.38317e-06
-1.18788e-06
-9.59177e-07
-7.00511e-07
-4.19262e-07
-1.26525e-07
1.63065e-07
4.38191e-07
6.83449e-07
8.77587e-07
9.99414e-07
1.0384e-06
9.89504e-07
8.49372e-07
6.17017e-07
2.95003e-07
-1.10578e-07
-5.90942e-07
-1.1355e-06
-1.73266e-06
-2.37048e-06
-3.0373e-06
-3.72204e-06
-1.62306e-06
-1.66824e-06
-1.70649e-06
-1.73826e-06
-1.76392e-06
-1.78402e-06
-1.79932e-06
-1.81101e-06
-1.82015e-06
-1.82831e-06
-1.83648e-06
-1.84532e-06
-1.8569e-06
-1.87004e-06
-1.88242e-06
-1.89551e-06
-1.90728e-06
-1.91247e-06
-1.90768e-06
-1.88907e-06
-1.8502e-06
-1.78045e-06
-1.67162e-06
-1.53009e-06
-1.36337e-06
-1.17661e-06
-9.79287e-07
-7.87305e-07
-6.09519e-07
-4.43109e-07
-3.02361e-07
-2.1247e-07
-1.84564e-07
-2.21824e-07
-3.27054e-07
-5.03007e-07
-7.50293e-07
-1.06654e-06
-1.44693e-06
-1.88498e-06
-2.37314e-06
-2.90323e-06
-3.46681e-06
-4.05552e-06
-4.66131e-06
-9.32508e-07
-1.02014e-06
-1.10168e-06
-1.17787e-06
-1.24939e-06
-1.31685e-06
-1.3809e-06
-1.44232e-06
-1.5019e-06
-1.56062e-06
-1.61923e-06
-1.67839e-06
-1.73903e-06
-1.80001e-06
-1.86114e-06
-1.92406e-06
-1.98537e-06
-2.04008e-06
-2.08683e-06
-2.12251e-06
-2.14085e-06
-2.13348e-06
-2.09244e-06
-2.0221e-06
-1.93126e-06
-1.82512e-06
-1.71172e-06
-1.59746e-06
-1.52009e-06
-1.44442e-06
-1.39664e-06
-1.39143e-06
-1.43166e-06
-1.51943e-06
-1.6584e-06
-1.85135e-06
-2.09845e-06
-2.39763e-06
-2.74541e-06
-3.13743e-06
-3.56863e-06
-4.03344e-06
-4.52601e-06
-5.04049e-06
-5.5711e-06
-1.43073e-07
-2.83431e-07
-4.19151e-07
-5.50575e-07
-6.78389e-07
-8.03329e-07
-9.26042e-07
-1.04712e-06
-1.16714e-06
-1.28667e-06
-1.40629e-06
-1.52643e-06
-1.6475e-06
-1.76955e-06
-1.89229e-06
-2.01489e-06
-2.13519e-06
-2.25134e-06
-2.36174e-06
-2.46301e-06
-2.55008e-06
-2.6171e-06
-2.65693e-06
-2.67014e-06
-2.66195e-06
-2.64425e-06
-2.62866e-06
-2.61376e-06
-2.57072e-06
-2.55678e-06
-2.5783e-06
-2.6306e-06
-2.71249e-06
-2.82771e-06
-2.98074e-06
-3.17381e-06
-3.40676e-06
-3.6782e-06
-3.98609e-06
-4.32788e-06
-4.70044e-06
-5.10016e-06
-5.52318e-06
-5.96554e-06
-6.42321e-06
5.96e-07
3.98552e-07
2.05236e-07
1.54946e-08
-1.71474e-07
-3.56412e-07
-5.39902e-07
-7.22416e-07
-9.0437e-07
-1.08617e-06
-1.2682e-06
-1.45074e-06
-1.63397e-06
-1.81773e-06
-2.00145e-06
-2.18453e-06
-2.36624e-06
-2.545e-06
-2.71842e-06
-2.88373e-06
-3.03745e-06
-3.17626e-06
-3.29204e-06
-3.3794e-06
-3.4423e-06
-3.49029e-06
-3.52363e-06
-3.55876e-06
-3.59001e-06
-3.63744e-06
-3.7044e-06
-3.78845e-06
-3.89112e-06
-4.01681e-06
-4.16913e-06
-4.34973e-06
-4.55888e-06
-4.79622e-06
-5.06095e-06
-5.35178e-06
-5.66695e-06
-6.0043e-06
-6.36143e-06
-6.7358e-06
-7.12479e-06
1.21218e-06
9.60747e-07
7.12683e-07
4.6759e-07
2.24815e-07
-1.62499e-08
-2.56068e-07
-4.94979e-07
-7.33259e-07
-9.71146e-07
-1.20884e-06
-1.44645e-06
-1.68396e-06
-1.92119e-06
-2.15778e-06
-2.39324e-06
-2.62665e-06
-2.85636e-06
-3.0805e-06
-3.29694e-06
-3.50338e-06
-3.69772e-06
-3.86942e-06
-4.01108e-06
-4.1275e-06
-4.22434e-06
-4.30929e-06
-4.37567e-06
-4.44906e-06
-4.53065e-06
-4.61969e-06
-4.71805e-06
-4.82923e-06
-4.95645e-06
-5.10192e-06
-5.26706e-06
-5.45276e-06
-5.65939e-06
-5.88685e-06
-6.13464e-06
-6.40187e-06
-6.68742e-06
-6.98991e-06
-7.30786e-06
-7.63967e-06
1.66219e-06
1.36459e-06
1.06999e-06
7.78119e-07
4.88496e-07
2.00715e-07
-8.55166e-08
-3.70385e-07
-6.54023e-07
-9.3652e-07
-1.21793e-06
-1.49824e-06
-1.77735e-06
-2.05503e-06
-2.33084e-06
-2.60412e-06
-2.87391e-06
-3.13892e-06
-3.39771e-06
-3.64856e-06
-3.88966e-06
-4.11914e-06
-4.32604e-06
-4.50199e-06
-4.64967e-06
-4.77302e-06
-4.88271e-06
-4.98174e-06
-5.07871e-06
-5.17518e-06
-5.27342e-06
-5.37719e-06
-5.48965e-06
-5.61302e-06
-5.74912e-06
-5.89951e-06
-6.06537e-06
-6.24742e-06
-6.44598e-06
-6.66106e-06
-6.89238e-06
-7.13945e-06
-7.40156e-06
-7.67784e-06
-7.9673e-06
1.98291e-06
1.64686e-06
1.31379e-06
9.83545e-07
6.55846e-07
3.3048e-07
7.33134e-09
-3.13635e-07
-6.32414e-07
-9.4897e-07
-1.26323e-06
-1.57507e-06
-1.88428e-06
-2.19049e-06
-2.49322e-06
-2.79178e-06
-3.08533e-06
-3.37283e-06
-3.65304e-06
-3.92454e-06
-4.18581e-06
-4.43534e-06
-4.66241e-06
-4.85814e-06
-5.02496e-06
-5.16943e-06
-5.29503e-06
-5.41097e-06
-5.51967e-06
-5.62434e-06
-5.72866e-06
-5.8358e-06
-5.94817e-06
-6.06778e-06
-6.19649e-06
-6.3359e-06
-6.48728e-06
-6.65156e-06
-6.82934e-06
-7.021e-06
-7.22668e-06
-7.44631e-06
-7.67962e-06
-7.92621e-06
-8.18554e-06
2.2031e-06
1.83603e-06
1.47218e-06
1.11152e-06
7.5394e-07
3.99414e-07
4.79885e-08
-3.00232e-07
-6.45119e-07
-9.86521e-07
-1.32426e-06
-1.65809e-06
-1.98771e-06
-2.31269e-06
-2.63254e-06
-2.9466e-06
-3.25415e-06
-3.55425e-06
-3.84591e-06
-4.12793e-06
-4.39914e-06
-4.65831e-06
-4.89526e-06
-5.10144e-06
-5.27958e-06
-5.43549e-06
-5.57394e-06
-5.69947e-06
-5.81592e-06
-5.92707e-06
-6.0361e-06
-6.14556e-06
-6.25772e-06
-6.37464e-06
-6.49817e-06
-6.62992e-06
-6.7712e-06
-6.92309e-06
-7.08644e-06
-7.26187e-06
-7.4498e-06
-7.65046e-06
-7.86392e-06
-8.09008e-06
-8.32876e-06
2.35032e-06
1.95874e-06
1.57078e-06
1.18652e-06
8.06042e-07
4.29458e-07
5.69617e-08
-3.11225e-07
-6.74869e-07
-1.03372e-06
-1.38751e-06
-1.73592e-06
-2.07857e-06
-2.41503e-06
-2.74481e-06
-3.06729e-06
-3.38184e-06
-3.68766e-06
-3.98396e-06
-4.26978e-06
-4.54425e-06
-4.80636e-06
-5.04685e-06
-5.25815e-06
-5.44327e-06
-5.60605e-06
-5.75167e-06
-5.88379e-06
-6.00624e-06
-6.12232e-06
-6.23477e-06
-6.34605e-06
-6.45841e-06
-6.5739e-06
-6.69431e-06
-6.82124e-06
-6.95609e-06
-7.10003e-06
-7.25406e-06
-7.41898e-06
-7.5954e-06
-7.78379e-06
-7.98444e-06
-8.19751e-06
-8.42306e-06
2.44617e-06
2.03541e-06
1.62879e-06
1.22649e-06
8.28721e-07
4.35739e-07
4.78498e-08
-3.34631e-07
-7.1139e-07
-1.0821e-06
-1.44642e-06
-1.80399e-06
-2.1544e-06
-2.4972e-06
-2.83192e-06
-3.15802e-06
-3.47494e-06
-3.78202e-06
-4.07865e-06
-4.36409e-06
-4.63772e-06
-4.89877e-06
-5.13901e-06
-5.35185e-06
-5.53948e-06
-5.70727e-06
-5.85766e-06
-5.99454e-06
-6.12135e-06
-6.24104e-06
-6.35623e-06
-6.46933e-06
-6.58249e-06
-6.69768e-06
-6.81669e-06
-6.9411e-06
-7.07236e-06
-7.21172e-06
-7.36028e-06
-7.51896e-06
-7.68854e-06
-7.86963e-06
-8.06272e-06
-8.26814e-06
-8.48615e-06
2.50666e-06
2.08095e-06
1.65992e-06
1.24388e-06
8.33129e-07
4.28045e-07
2.9017e-08
-3.63567e-07
-7.49331e-07
-1.12789e-06
-1.49886e-06
-1.86184e-06
-2.21641e-06
-2.56214e-06
-2.89858e-06
-3.22525e-06
-3.54168e-06
-3.84733e-06
-4.14176e-06
-4.42439e-06
-4.69486e-06
-4.95256e-06
-5.19042e-06
-5.40284e-06
-5.59187e-06
-5.76169e-06
-5.91504e-06
-6.05516e-06
-6.18508e-06
-6.30759e-06
-6.42518e-06
-6.54012e-06
-6.65448e-06
-6.77017e-06
-6.88894e-06
-7.01242e-06
-7.14205e-06
-7.27915e-06
-7.4249e-06
-7.58032e-06
-7.74629e-06
-7.92357e-06
-8.11278e-06
-8.31439e-06
-8.5288e-06
2.54323e-06
2.10577e-06
1.67355e-06
1.24696e-06
8.26399e-07
4.12336e-07
5.22276e-09
-3.945e-07
-7.86404e-07
-1.17007e-06
-1.54507e-06
-1.91099e-06
-2.26742e-06
-2.61393e-06
-2.95011e-06
-3.27554e-06
-3.58983e-06
-3.89256e-06
-4.1834e-06
-4.46194e-06
-4.72802e-06
-4.9812e-06
-5.21545e-06
-5.42619e-06
-5.61516e-06
-5.7858e-06
-5.94085e-06
-6.08309e-06
-6.21528e-06
-6.34002e-06
-6.45965e-06
-6.5763e-06
-6.69199e-06
-6.80859e-06
-6.92782e-06
-7.05131e-06
-7.18054e-06
-7.31686e-06
-7.46152e-06
-7.61562e-06
-7.78014e-06
-7.95593e-06
-8.14371e-06
-8.34407e-06
-8.55752e-06
2.56382e-06
2.11697e-06
1.67589e-06
1.24106e-06
8.12963e-07
3.92127e-07
-2.09452e-08
-4.25771e-07
-8.21885e-07
-1.20883e-06
-1.58617e-06
-1.95348e-06
-2.31034e-06
-2.65635e-06
-2.99114e-06
-3.31434e-06
-3.62564e-06
-3.92469e-06
-4.2113e-06
-4.48518e-06
-4.74632e-06
-4.99442e-06
-5.22447e-06
-5.43274e-06
-5.6207e-06
-5.79132e-06
-5.94722e-06
-6.09082e-06
-6.22459e-06
-6.351e-06
-6.47226e-06
-6.5904e-06
-6.70737e-06
-6.825e-06
-6.945e-06
-7.069e-06
-7.19851e-06
-7.33492e-06
-7.47952e-06
-7.63349e-06
-7.79788e-06
-7.97362e-06
-8.16151e-06
-8.36224e-06
-8.57639e-06
2.57384e-06
2.1193e-06
1.67106e-06
1.22964e-06
7.95608e-07
3.69531e-07
-4.80475e-08
-4.5661e-07
-8.5566e-07
-1.24472e-06
-1.62334e-06
-1.99109e-06
-2.34756e-06
-2.69237e-06
-3.02519e-06
-3.34569e-06
-3.65363e-06
-3.94874e-06
-4.23091e-06
-4.49996e-06
-4.75604e-06
-4.99894e-06
-5.22455e-06
-5.42991e-06
-5.6163e-06
-5.78628e-06
-5.94243e-06
-6.08682e-06
-6.22161e-06
-6.3492e-06
-6.47169e-06
-6.59103e-06
-6.7091e-06
-6.8277e-06
-6.94854e-06
-7.07324e-06
-7.20334e-06
-7.34026e-06
-7.48536e-06
-7.63984e-06
-7.80483e-06
-7.98133e-06
-8.17021e-06
-8.37223e-06
-8.58802e-06
2.57698e-06
2.11602e-06
1.66183e-06
1.21499e-06
7.76145e-07
3.45883e-07
-7.52172e-08
-4.86609e-07
-8.87774e-07
-1.27822e-06
-1.65748e-06
-2.02513e-06
-2.38078e-06
-2.72406e-06
-3.05467e-06
-3.37233e-06
-3.67684e-06
-3.96802e-06
-4.24583e-06
-4.51016e-06
-4.76129e-06
-4.99908e-06
-5.22026e-06
-5.42255e-06
-5.60704e-06
-5.77595e-06
-5.9319e-06
-6.07668e-06
-6.21203e-06
-6.34039e-06
-6.46375e-06
-6.58397e-06
-6.7029e-06
-6.82231e-06
-6.94389e-06
-7.06929e-06
-7.20005e-06
-7.33764e-06
-7.48344e-06
-7.63872e-06
-7.80467e-06
-7.98232e-06
-8.17262e-06
-8.37637e-06
-8.59427e-06
2.57576e-06
2.1093e-06
1.65005e-06
1.19865e-06
7.55783e-07
3.22071e-07
-1.01882e-07
-5.15506e-07
-9.18261e-07
-1.30964e-06
-1.68919e-06
-2.05647e-06
-2.41109e-06
-2.75274e-06
-3.08111e-06
-3.39597e-06
-3.69718e-06
-3.9846e-06
-4.25827e-06
-4.51814e-06
-4.76457e-06
-4.99751e-06
-5.21441e-06
-5.41362e-06
-5.59609e-06
-5.76364e-06
-5.91902e-06
-6.06394e-06
-6.1995e-06
-6.32828e-06
-6.45217e-06
-6.57299e-06
-6.69253e-06
-6.81254e-06
-6.93471e-06
-7.06068e-06
-7.19204e-06
-7.33027e-06
-7.4768e-06
-7.63295e-06
-7.79993e-06
-7.97886e-06
-8.17071e-06
-8.37635e-06
-8.59651e-06
2.57189e-06
2.10063e-06
1.63699e-06
1.18166e-06
7.35344e-07
2.98701e-07
-1.27643e-07
-5.43099e-07
-9.47114e-07
-1.33917e-06
-1.71881e-06
-2.08559e-06
-2.43916e-06
-2.77919e-06
-3.10542e-06
-3.41764e-06
-3.71576e-06
-3.99969e-06
-4.26951e-06
-4.52524e-06
-4.76731e-06
-4.99572e-06
-5.20857e-06
-5.40481e-06
-5.58513e-06
-5.75126e-06
-5.90599e-06
-6.05076e-06
-6.18622e-06
-6.31514e-06
-6.43931e-06
-6.56046e-06
-6.68037e-06
-6.80076e-06
-6.92333e-06
-7.04972e-06
-7.18154e-06
-7.32031e-06
-7.46749e-06
-7.62443e-06
-7.79241e-06
-7.97256e-06
-8.16593e-06
-8.37341e-06
-8.59578e-06
2.56652e-06
2.09101e-06
1.6235e-06
1.16472e-06
7.15387e-07
2.76194e-07
-1.52214e-07
-5.69232e-07
-9.74293e-07
-1.36688e-06
-1.74651e-06
-2.11278e-06
-2.46532e-06
-2.80383e-06
-3.12807e-06
-3.43787e-06
-3.73316e-06
-4.01389e-06
-4.2802e-06
-4.53216e-06
-4.77023e-06
-4.99447e-06
-5.20353e-06
-5.39693e-06
-5.57503e-06
-5.73995e-06
-5.89396e-06
-6.0382e-06
-6.17344e-06
-6.30229e-06
-6.42651e-06
-6.54779e-06
-6.66787e-06
-6.78844e-06
-6.91122e-06
-7.03787e-06
-7.16999e-06
-7.30916e-06
-7.45684e-06
-7.61446e-06
-7.7833e-06
-7.96456e-06
-8.15932e-06
-8.3685e-06
-8.59293e-06
2.56041e-06
2.08112e-06
1.61017e-06
1.14831e-06
6.96312e-07
2.54866e-07
-1.7536e-07
-5.93743e-07
-9.99709e-07
-1.39273e-06
-1.77234e-06
-2.13811e-06
-2.48971e-06
-2.82682e-06
-3.14926e-06
-3.45686e-06
-3.74959e-06
-4.02744e-06
-4.29058e-06
-4.53913e-06
-4.77358e-06
-4.99403e-06
-5.19962e-06
-5.39034e-06
-5.56637e-06
-5.73009e-06
-5.8833e-06
-6.02684e-06
-6.16178e-06
-6.29041e-06
-6.41453e-06
-6.53578e-06
-6.65585e-06
-6.77645e-06
-6.89929e-06
-7.02603e-06
-7.15832e-06
-7.29773e-06
-7.44578e-06
-7.60392e-06
-7.77347e-06
-7.95568e-06
-8.15165e-06
-8.36235e-06
-8.58861e-06
2.55408e-06
2.07141e-06
1.59739e-06
1.1328e-06
6.78419e-07
2.34969e-07
-1.96871e-07
-6.16465e-07
-1.02323e-06
-1.41664e-06
-1.79621e-06
-2.16154e-06
-2.51228e-06
-2.84816e-06
-3.16899e-06
-3.47463e-06
-3.76507e-06
-4.04035e-06
-4.30066e-06
-4.54616e-06
-4.77737e-06
-4.99441e-06
-5.19684e-06
-5.3851e-06
-5.5593e-06
-5.72174e-06
-5.87411e-06
-6.01694e-06
-6.15151e-06
-6.27983e-06
-6.40373e-06
-6.52482e-06
-6.64477e-06
-6.76528e-06
-6.88804e-06
-7.01476e-06
-7.14707e-06
-7.2866e-06
-7.43488e-06
-7.59339e-06
-7.76351e-06
-7.9465e-06
-8.14349e-06
-8.3555e-06
-8.58339e-06
2.54774e-06
2.06201e-06
1.58522e-06
1.11817e-06
6.61651e-07
2.164e-07
-2.1689e-07
-6.37573e-07
-1.04506e-06
-1.43881e-06
-1.81836e-06
-2.18329e-06
-2.53328e-06
-2.86805e-06
-3.18744e-06
-3.49134e-06
-3.77974e-06
-4.05272e-06
-4.3105e-06
-4.55327e-06
-4.78157e-06
-4.99554e-06
-5.19508e-06
-5.38106e-06
-5.5536e-06
-5.71482e-06
-5.86632e-06
-6.00846e-06
-6.14257e-06
-6.27053e-06
-6.39413e-06
-6.51496e-06
-6.63469e-06
-6.755e-06
-6.8776e-06
-7.00417e-06
-7.13641e-06
-7.27594e-06
-7.42433e-06
-7.58309e-06
-7.75363e-06
-7.93724e-06
-8.13509e-06
-8.34822e-06
-8.57752e-06
2.54118e-06
2.05253e-06
1.57309e-06
1.10369e-06
6.45131e-07
1.9816e-07