/*--------------------------------*- C++ -*----------------------------------*\
| =========                 |                                                 |
| \\      /  F ield         | OpenFOAM: The Open Source CFD Toolbox           |
|  \\    /   O peration     | Version:  2312                                  |
|   \\  /    A nd           | Website:  www.openfoam.com                      |
|    \\/     M anipulation  |                                                 |
\*---------------------------------------------------------------------------*/
FoamFile
{
    version     2.0;
    format      ascii;
    arch        "LSB;label=32;scalar=64";
    class       volVectorField;
    location    "180";
    object      U;
}
// * * * * * * * * * * * * * * * * * * * * * * * * * * * * * * * * * * * * * //

dimensions      [0 1 -1 0 0 0 0];

internalField   nonuniform List<vector> 
4800
(
(0.000472703 4.07138e-07 -3.09386e-26)
(0.000462112 4.49282e-07 -2.15212e-25)
(0.00045509 4.63989e-07 2.76874e-25)
(0.00045053 4.54504e-07 1.23772e-25)
(0.000447768 4.22568e-07 1.80412e-24)
(0.000446348 3.72823e-07 -4.28284e-24)
(0.000446146 3.0809e-07 3.96312e-24)
(0.000446951 2.33848e-07 -5.67969e-24)
(0.000448718 9.89421e-08 1.83843e-24)
(0.000451652 -1.59012e-07 6.14157e-24)
(0.000456123 -6.61505e-07 -1.89623e-24)
(0.000463426 -2.03766e-06 -1.6763e-25)
(0.000480623 -7.11201e-06 -2.27539e-24)
(0.000525186 -2.75389e-05 1.04853e-24)
(0.000598869 -8.93101e-05 -8.31848e-25)
(0.00145958 2.16625e-06 -9.82096e-26)
(0.00142758 1.69508e-06 1.22355e-25)
(0.00140628 1.321e-06 -1.10717e-24)
(0.00139235 9.85661e-07 8.32792e-25)
(0.00138376 6.56279e-07 2.6027e-24)
(0.00137914 2.98404e-07 -4.1292e-24)
(0.00137804 -1.20471e-07 -1.13523e-24)
(0.00137975 -6.26337e-07 -2.40704e-25)
(0.00138419 -1.37552e-06 9.36826e-24)
(0.00139196 -2.6496e-06 -6.90224e-24)
(0.00140404 -5.046e-06 7.51694e-25)
(0.00142321 -1.0761e-05 1.13056e-24)
(0.00145803 -2.7297e-05 -1.65834e-24)
(0.00151892 -7.75458e-05 -4.90893e-25)
(0.00158446 -0.000190193 2.15638e-24)
(0.00254886 6.93484e-06 -7.01553e-26)
(0.00249422 5.38164e-06 7.17519e-26)
(0.00245775 4.17539e-06 7.24462e-25)
(0.00243375 3.12545e-06 -1.71684e-24)
(0.00241873 2.13008e-06 1.66862e-24)
(0.00241037 1.05286e-06 1.53917e-24)
(0.00240773 -2.23796e-07 -3.94947e-24)
(0.00240967 -1.77512e-06 -2.38004e-24)
(0.00241582 -4.00321e-06 5.80442e-24)
(0.00242711 -7.57419e-06 2.16369e-24)
(0.00244433 -1.38547e-05 -7.53438e-24)
(0.0024697 -2.67616e-05 -1.1112e-24)
(0.00250719 -5.56604e-05 3.20134e-24)
(0.00255542 -0.000119184 5.01173e-24)
(0.00258989 -0.000224283 -2.58427e-24)
(0.00374724 1.54633e-05 2.58899e-26)
(0.00366911 1.20576e-05 -1.79558e-25)
(0.00361674 9.41815e-06 7.93265e-25)
(0.003582 7.13644e-06 8.28944e-25)
(0.00355994 4.99527e-06 -8.4235e-25)
(0.0035472 2.71653e-06 -4.72388e-24)
(0.00354217 4.07998e-08 -3.10193e-24)
(0.00354344 -3.09276e-06 1.16254e-23)
(0.00354996 -7.48567e-06 4.79199e-24)
(0.0035627 -1.42803e-05 -7.00584e-24)
(0.00358154 -2.52592e-05 -2.80086e-24)
(0.00360699 -4.49341e-05 -2.11382e-24)
(0.00363825 -8.11266e-05 6.98254e-26)
(0.00366819 -0.00014342 1.55308e-24)
(0.00367902 -0.000226562 7.56398e-27)
(0.00505964 2.85722e-05 -4.746e-26)
(0.0049579 2.23591e-05 -2.88945e-25)
(0.0048893 1.75483e-05 -1.76619e-25)
(0.00484338 1.34182e-05 4.91289e-25)
(0.00481369 9.58246e-06 -1.35796e-24)
(0.00479592 5.59147e-06 3.37958e-24)
(0.00478756 1.08825e-06 -6.02701e-25)
(0.00478697 -4.31652e-06 2.01911e-24)
(0.00479244 -1.1267e-05 -1.12164e-23)
(0.00480426 -2.15807e-05 2.13124e-23)
(0.0048213 -3.68668e-05 -2.05313e-23)
(0.00484238 -6.08802e-05 1.07694e-23)
(0.0048641 -9.83465e-05 -9.94057e-24)
(0.00487886 -0.000152143 9.34932e-24)
(0.00487659 -0.000214651 -3.72127e-24)
(0.00648756 4.7232e-05 6.27017e-26)
(0.00636348 3.7123e-05 2.23455e-25)
(0.00627912 2.92911e-05 -1.17158e-24)
(0.00622202 2.26109e-05 -7.20397e-25)
(0.00618439 1.64723e-05 1.96145e-24)
(0.00616102 1.02429e-05 6.89555e-25)
(0.00614856 3.37835e-06 -5.35513e-24)
(0.00614476 -4.50644e-06 1.27057e-23)
(0.00614777 -1.44983e-05 -1.64133e-23)
(0.0061565 -2.80205e-05 3.95188e-24)
(0.0061692 -4.65462e-05 1.18184e-23)
(0.0061836 -7.23373e-05 -1.63294e-23)
(0.00619584 -0.000107245 8.16898e-24)
(0.00620023 -0.000150698 8.31787e-24)
(0.0061922 -0.000196536 -6.32718e-24)
(0.00802681 7.22614e-05 5.19437e-26)
(0.00788403 5.71439e-05 -3.06242e-25)
(0.00778579 4.53891e-05 1.08725e-24)
(0.00771841 3.54103e-05 -1.49781e-24)
(0.0076731 2.633e-05 -4.99387e-24)
(0.00764391 1.73389e-05 8.50646e-24)
(0.00762681 7.71693e-06 -5.10124e-24)
(0.00761892 -3.01519e-06 1.7183e-23)
(0.00761802 -1.58884e-05 -1.16983e-23)
(0.00762217 -3.21143e-05 -5.41158e-24)
(0.00762913 -5.26067e-05 -1.05301e-23)
(0.0076363 -7.82506e-05 9.69714e-24)
(0.00764054 -0.000109049 2.71372e-24)
(0.00763835 -0.000143253 2.30823e-24)
(0.00762823 -0.000176786 -2.03032e-24)
(0.00966501 0.000103886 -7.52256e-26)
(0.0095106 8.28498e-05 1.01541e-24)
(0.00940261 6.63546e-05 -2.34847e-24)
(0.00932733 5.23733e-05 -1.87582e-24)
(0.00927561 3.97515e-05 7.42089e-25)
(0.00924113 2.75251e-05 1.40099e-24)
(0.00921939 1.48547e-05 4.88208e-24)
(0.00920705 1.16577e-06 -1.31551e-23)
(0.0092015 -1.43714e-05 -6.87938e-24)
(0.00920037 -3.26065e-05 1.91681e-23)
(0.00920128 -5.39149e-05 -5.86297e-24)
(0.00920184 -7.82591e-05 2.0045e-23)
(0.00919987 -0.000104828 -1.05377e-23)
(0.00919346 -0.000131892 -3.34313e-24)
(0.00918258 -0.000157016 1.97762e-24)
(0.0113799 0.000141124 -1.00443e-26)
(0.0112252 0.000113836 5.63219e-25)
(0.0111145 9.21084e-05 -7.9992e-25)
(0.0110358 7.36282e-05 1.8797e-24)
(0.0109804 5.70243e-05 -1.11004e-23)
(0.0109423 4.12277e-05 1.16876e-23)
(0.0109169 2.53509e-05 -1.8115e-23)
(0.0109006 8.79183e-06 1.1191e-23)
(0.0108906 -9.05475e-06 8.22087e-24)
(0.0108844 -2.86437e-05 1.76249e-23)
(0.0108799 -4.99612e-05 -2.29923e-23)
(0.0108752 -7.25437e-05 -4.20509e-24)
(0.0108688 -9.54508e-05 1.96961e-24)
(0.0108597 -0.000117409 1.38709e-23)
(0.0108484 -0.000137068 -5.63488e-24)
(0.0131419 0.000181138 5.60465e-26)
(0.0130014 0.000148283 -2.39321e-25)
(0.0128977 0.000121475 1.05152e-24)
(0.0128222 9.84369e-05 -3.64721e-24)
(0.0127678 7.7738e-05 5.48597e-24)
(0.0127292 5.82992e-05 -7.00137e-24)
(0.0127022 3.92672e-05 1.16202e-23)
(0.0126834 2.00905e-05 1.95925e-24)
(0.0126702 3.66153e-07 -1.58145e-23)
(0.0126603 -2.00488e-05 2.23384e-23)
(0.012652 -4.09466e-05 -2.45808e-23)
(0.0126436 -6.17972e-05 -7.17051e-24)
(0.0126345 -8.18494e-05 1.26863e-23)
(0.0126239 -0.000100322 3.75004e-24)
(0.0126127 -0.000116527 -1.63645e-24)
(0.014924 0.00021922 2.31975e-25)
(0.0148111 0.00018265 -1.87802e-24)
(0.0147248 0.000151781 -2.92207e-24)
(0.01466 0.000124769 6.97765e-24)
(0.0146122 0.000100357 3.03932e-24)
(0.0145772 7.75946e-05 -1.90712e-23)
(0.0145518 5.57514e-05 5.9389e-24)
(0.0145331 3.43892e-05 4.23307e-24)
(0.0145189 1.32734e-05 -1.7828e-23)
(0.0145074 -7.57827e-06 1.86618e-23)
(0.0144971 -2.79141e-05 -1.47339e-23)
(0.0144872 -4.73218e-05 3.79212e-23)
(0.0144771 -6.53223e-05 -1.81773e-23)
(0.0144663 -8.15182e-05 1.06824e-23)
(0.0144557 -9.56104e-05 -2.91195e-24)
(0.0167186 0.000250553 -9.60564e-26)
(0.016639 0.000212598 1.28785e-24)
(0.0165758 0.000179292 -2.47537e-24)
(0.0165272 0.000149459 -1.21296e-24)
(0.0164904 0.000122212 1.36215e-23)
(0.0164628 9.68539e-05 -2.06744e-24)
(0.016442 7.2855e-05 -2.38563e-23)
(0.0164261 4.99159e-05 2.76325e-23)
(0.0164134 2.79334e-05 -6.23741e-24)
(0.0164026 6.96044e-06 -2.12574e-23)
(0.0163928 -1.28097e-05 2.25966e-23)
(0.0163832 -3.11261e-05 1.21096e-23)
(0.0163737 -4.77475e-05 -1.02271e-23)
(0.016364 -6.25339e-05 -1.76456e-23)
(0.0163547 -7.54085e-05 1.47944e-24)
(0.0185467 0.000273655 6.78759e-27)
(0.0184942 0.000235705 -1.44987e-24)
(0.0184518 0.000201274 6.74851e-24)
(0.0184189 0.000169768 3.3777e-25)
(0.0183937 0.000140685 3.6618e-24)
(0.0183745 0.000113613 -1.33663e-23)
(0.0183598 8.8239e-05 1.12561e-23)
(0.0183481 6.4387e-05 2.48071e-24)
(0.0183384 4.20169e-05 2.28166e-23)
(0.0183298 2.11657e-05 -3.53835e-23)
(0.0183219 1.93248e-06 -1.59266e-23)
(0.018314 -1.55966e-05 -1.04806e-23)
(0.0183064 -3.13455e-05 1.97634e-23)
(0.0182985 -4.53239e-05 -5.67521e-25)
(0.0182913 -5.7575e-05 1.91238e-24)
(0.0204362 0.000291633 -1.5541e-26)
(0.0203989 0.000253657 1.49799e-24)
(0.0203694 0.000218437 -2.17424e-24)
(0.0203467 0.000185767 8.88373e-27)
(0.0203295 0.000155432 2.73269e-24)
(0.0203164 0.000127237 6.86683e-24)
(0.0203063 0.000101025 -2.66023e-23)
(0.020298 7.66953e-05 2.32021e-24)
(0.0202911 5.42098e-05 1.34388e-23)
(0.0202847 3.35493e-05 -6.12608e-24)
(0.0202787 1.4716e-05 1.67532e-23)
(0.0202728 -2.32209e-06 1.16927e-23)
(0.0202671 -1.76084e-05 -2.12266e-23)
(0.0202612 -3.12304e-05 1.45154e-23)
(0.0202559 -4.32893e-05 -1.20638e-23)
(0.0223794 0.00030804 -5.29472e-25)
(0.0223507 0.000269855 1.71941e-25)
(0.022328 0.000233834 2.57782e-24)
(0.0223106 0.00020012 -1.29112e-23)
(0.0222974 0.000168735 1.13436e-23)
(0.0222872 0.000139638 -8.11415e-24)
(0.0222793 0.000112767 5.848e-24)
(0.0222727 8.80485e-05 -4.09032e-23)
(0.0222671 6.54116e-05 5.9042e-23)
(0.0222619 4.47752e-05 -3.46434e-23)
(0.0222572 2.60485e-05 3.09241e-23)
(0.0222524 9.12814e-06 2.58197e-23)
(0.022248 -6.1034e-06 -4.51144e-23)
(0.0222434 -1.97814e-05 1.468e-23)
(0.0222393 -3.20366e-05 -6.16977e-25)
(0.0243145 0.000322754 -1.97466e-26)
(0.0242942 0.000284943 -3.54057e-25)
(0.0242776 0.000248617 3.25343e-25)
(0.0242645 0.000214288 -3.52735e-25)
(0.0242543 0.000182211 4.58966e-24)
(0.0242462 0.000152479 -7.85144e-24)
(0.0242397 0.000125097 7.25102e-24)
(0.0242342 9.9999e-05 -2.28329e-23)
(0.0242294 7.70884e-05 5.18722e-23)
(0.0242249 5.62389e-05 -6.63218e-23)
(0.0242209 3.73111e-05 5.43046e-23)
(0.0242168 2.01496e-05 -1.83375e-23)
(0.0242131 4.60499e-06 9.56023e-25)
(0.0242093 -9.48564e-06 4.22061e-24)
(0.024206 -2.22734e-05 -8.08466e-24)
(0.026144 0.000333483 -1.68486e-24)
(0.026133 0.000296938 2.91799e-24)
(0.0261234 0.00026115 -8.46598e-25)
(0.0261155 0.000226951 -1.81834e-24)
(0.0261091 0.000194799 7.21458e-24)
(0.0261038 0.000164903 -7.30466e-24)
(0.0260994 0.00013732 -6.50627e-24)
(0.0260955 0.000111996 -1.56826e-23)
(0.026092 8.88246e-05 8.02914e-24)
(0.0260887 6.76559e-05 3.81848e-23)
(0.0260856 4.83358e-05 -2.01681e-23)
(0.0260826 3.06982e-05 1.20528e-23)
(0.0260797 1.45842e-05 -4.95017e-24)
(0.0260768 -1.6228e-07 -1.4746e-23)
(0.0260742 -1.36976e-05 7.55392e-24)
(0.0277493 0.000338718 5.65697e-25)
(0.0277467 0.000304176 -9.81831e-25)
(0.0277439 0.000269709 -2.83366e-25)
(0.0277413 0.000236382 -8.29352e-25)
(0.0277389 0.000204795 -2.0348e-24)
(0.0277368 0.000175245 1.06014e-23)
(0.027735 0.000147829 -8.53309e-24)
(0.0277332 0.000122518 -5.5147e-24)
(0.0277316 9.92091e-05 5.04794e-24)
(0.0277298 7.77528e-05 -5.99053e-24)
(0.0277281 5.79903e-05 1.39579e-23)
(0.0277263 3.97644e-05 7.13284e-24)
(0.0277246 2.2922e-05 -2.66163e-23)
(0.0277228 7.32684e-06 1.84328e-23)
(0.0277212 -7.14028e-06 -3.76898e-24)
(0.0289747 0.000338083 1.70297e-24)
(0.0289795 0.000306041 2.9879e-24)
(0.0289828 0.000273537 -6.60362e-24)
(0.0289851 0.000241733 -6.76632e-25)
(0.0289868 0.000211308 2.01483e-24)
(0.028988 0.000182603 -2.62837e-24)
(0.028989 0.000155752 -4.73639e-24)
(0.0289896 0.000130752 9.73905e-24)
(0.0289899 0.000107519 1.14747e-23)
(0.0289899 8.5931e-05 -2.79872e-23)
(0.0289898 6.58482e-05 1.62694e-23)
(0.0289893 4.71196e-05 -1.14669e-24)
(0.0289888 2.96102e-05 -9.72594e-25)
(0.0289882 1.31782e-05 1.31972e-24)
(0.0289876 -2.28327e-06 -6.11513e-25)
(0.0296041 0.000327668 -4.53826e-24)
(0.0296162 0.000298563 -1.0287e-23)
(0.0296257 0.000268626 4.84675e-24)
(0.0296334 0.000238995 1.98209e-23)
(0.0296397 0.000210355 -5.70314e-24)
(0.029645 0.000183054 -2.40385e-24)
(0.0296495 0.000157246 1.3798e-24)
(0.0296532 0.000132948 -1.56496e-24)
(0.0296563 0.000110111 6.40264e-24)
(0.0296588 8.86485e-05 -3.1334e-24)
(0.0296609 6.8467e-05 2.84491e-24)
(0.0296625 4.9452e-05 -4.17637e-24)
(0.0296636 3.15093e-05 -5.25494e-24)
(0.0296645 1.45587e-05 8.01591e-24)
(0.0296652 -1.56062e-06 -3.5595e-24)
(0.0294198 0.000311929 7.30549e-24)
(0.0294365 0.000285703 -1.71366e-23)
(0.0294504 0.000258424 2.51808e-24)
(0.0294621 0.00023113 2.75764e-23)
(0.0294721 0.000204458 -2.7724e-23)
(0.0294807 0.000178741 1.06419e-23)
(0.0294881 0.000154131 9.64427e-24)
(0.0294946 0.000130662 -2.23688e-23)
(0.0295002 0.000108323 1.30907e-24)
(0.0295051 8.70602e-05 6.52015e-24)
(0.0295093 6.68033e-05 1.09121e-24)
(0.0295129 4.75015e-05 1.91718e-25)
(0.0295161 2.90901e-05 -7.33719e-25)
(0.0295187 1.14667e-05 8.5955e-25)
(0.0295207 -5.30875e-06 -4.5828e-25)
(0.028484 0.000288623 4.59455e-24)
(0.0285069 0.000265239 -9.88845e-24)
(0.028526 0.000240798 -7.53129e-24)
(0.0285418 0.000216172 3.53233e-23)
(0.0285551 0.000191902 -3.37254e-23)
(0.0285662 0.000168271 3.18614e-24)
(0.0285756 0.000145416 6.09502e-24)
(0.0285834 0.000123385 3.84745e-24)
(0.0285899 0.000102184 4.1254e-24)
(0.0285952 8.17881e-05 -2.18441e-23)
(0.0285995 6.21733e-05 1.37765e-23)
(0.0286029 4.33042e-05 4.28184e-25)
(0.0286054 2.51572e-05 5.83211e-24)
(0.0286074 7.69475e-06 -2.65612e-24)
(0.0286092 -9.05309e-06 -3.88994e-25)
(0.0269328 0.000259471 1.15521e-23)
(0.0269596 0.000238797 -2.08465e-23)
(0.0269828 0.000217187 4.16515e-24)
(0.0270028 0.00019534 -1.16068e-23)
(0.02702 0.000173685 -1.64202e-23)
(0.027035 0.000152443 5.34506e-23)
(0.027048 0.000131729 -2.17163e-23)
(0.0270593 0.000111591 6.63933e-24)
(0.0270689 9.20482e-05 -3.89293e-24)
(0.0270773 7.31138e-05 -1.13661e-23)
(0.0270844 5.47914e-05 2.21238e-23)
(0.0270904 3.70639e-05 -1.32337e-23)
(0.0270955 1.99351e-05 1.62002e-24)
(0.0270997 3.39784e-06 2.2855e-24)
(0.027103 -1.27152e-05 -2.70322e-25)
(0.0250666 0.000231335 4.47702e-24)
(0.0250969 0.000212999 -2.38908e-23)
(0.0251236 0.00019384 4.26911e-23)
(0.0251468 0.000174399 -3.36642e-23)
(0.0251672 0.000155009 3.58214e-23)
(0.025185 0.000135844 -1.12978e-23)
(0.0252006 0.000117005 -8.32229e-24)
(0.0252142 9.85497e-05 -1.01834e-23)
(0.025226 8.05125e-05 1.99233e-23)
(0.0252362 6.29151e-05 6.44719e-25)
(0.025245 4.57658e-05 -2.07312e-23)
(0.0252524 2.90542e-05 -3.25661e-24)
(0.0252585 1.27586e-05 5.67637e-24)
(0.0252636 -3.11877e-06 -1.35864e-24)
(0.0252675 -1.8576e-05 3.1646e-25)
(0.0230257 0.000202007 5.98149e-25)
(0.0230596 0.000185844 -9.06404e-24)
(0.0230896 0.000168951 -5.65275e-24)
(0.0231159 0.00015174 4.43686e-23)
(0.023139 0.000134473 -4.48751e-23)
(0.0231594 0.000117298 1.3428e-23)
(0.0231772 0.000100309 2.41507e-24)
(0.0231928 8.35669e-05 -1.35202e-24)
(0.0232063 6.7115e-05 -6.96785e-24)
(0.0232179 5.09796e-05 3.15714e-23)
(0.0232278 3.51786e-05 -2.56996e-23)
(0.0232361 1.97268e-05 -1.49604e-24)
(0.0232428 4.66776e-06 2.52113e-24)
(0.0232482 -9.99892e-06 2.63923e-24)
(0.0232521 -2.4266e-05 -2.10873e-24)
(0.020916 0.000172212 8.91947e-25)
(0.0209525 0.000158138 8.48811e-24)
(0.020985 0.000143421 -9.68625e-24)
(0.0210136 0.000128388 -7.24211e-24)
(0.0210388 0.00011324 4.78107e-23)
(0.0210609 9.81037e-05 -3.65535e-23)
(0.0210803 8.30679e-05 -6.36558e-25)
(0.0210971 6.81959e-05 -8.47452e-24)
(0.0211116 5.35341e-05 -9.17444e-25)
(0.0211238 3.91212e-05 1.149e-24)
(0.0211341 2.49932e-05 -5.89099e-24)
(0.0211425 1.11774e-05 4.23986e-24)
(0.021149 -2.29541e-06 1.40807e-24)
(0.0211539 -1.54407e-05 1.46004e-24)
(0.021157 -2.82272e-05 2.18424e-24)
(0.0188097 0.000143289 6.35956e-24)
(0.0188475 0.000131254 -9.86307e-24)
(0.0188811 0.000118672 -8.54507e-24)
(0.0189108 0.000105801 2.62075e-23)
(0.0189369 9.27936e-05 -9.3599e-24)
(0.0189597 7.97577e-05 -1.43633e-23)
(0.0189795 6.67711e-05 4.90163e-24)
(0.0189966 5.38997e-05 1.22895e-23)
(0.019011 4.11876e-05 -2.05883e-23)
(0.0190231 2.86787e-05 2.13038e-23)
(0.0190328 1.64057e-05 -1.20313e-23)
(0.0190404 4.40716e-06 5.54839e-24)
(0.0190458 -7.36616e-06 -8.20743e-24)
(0.0190493 -1.88358e-05 8.58485e-24)
(0.0190507 -2.997e-05 -2.2624e-24)
(0.0167534 0.000116414 -1.23353e-24)
(0.0167911 0.00010636 -4.47961e-24)
(0.0168245 9.58551e-05 -1.48607e-23)
(0.016854 8.51046e-05 4.15966e-23)
(0.0168798 7.42158e-05 -7.09308e-24)
(0.0169022 6.32756e-05 -1.236e-23)
(0.0169215 5.2356e-05 4.74775e-24)
(0.0169378 4.15113e-05 -6.80262e-24)
(0.0169514 3.07857e-05 -1.62162e-23)
(0.0169623 2.02182e-05 1.5518e-23)
(0.0169708 9.83086e-06 7.49227e-25)
(0.0169768 -3.38124e-07 -6.19214e-24)
(0.0169805 -1.02966e-05 7.01222e-24)
(0.016982 -1.99762e-05 5.52398e-25)
(0.0169813 -2.93572e-05 -6.77323e-25)
(0.0147771 9.24088e-05 4.74101e-24)
(0.0148133 8.42298e-05 7.38418e-24)
(0.0148454 7.56977e-05 -6.51099e-24)
(0.0148736 6.69619e-05 -1.5523e-23)
(0.0148982 5.80918e-05 2.16694e-23)
(0.0149194 4.91593e-05 -2.45664e-23)
(0.0149374 4.02259e-05 -1.54716e-24)
(0.0149524 3.13387e-05 9.96401e-24)
(0.0149645 2.25411e-05 3.68456e-24)
(0.0149738 1.38649e-05 -8.57264e-24)
(0.0149806 5.34339e-06 -6.38154e-25)
(0.0149848 -3.03375e-06 1.95025e-23)
(0.0149865 -1.11751e-05 -7.54466e-24)
(0.0149859 -1.90867e-05 -2.1601e-24)
(0.014983 -2.67453e-05 -1.55468e-25)
(0.0128996 7.16776e-05 -4.91749e-24)
(0.0129335 6.52167e-05 6.37089e-24)
(0.0129634 5.84926e-05 8.05513e-25)
(0.0129896 5.15987e-05 1.4257e-23)
(0.0130124 4.45785e-05 -1.13613e-23)
(0.0130318 3.74937e-05 1.21833e-24)
(0.0130481 3.03964e-05 -1.09603e-24)
(0.0130614 2.33273e-05 -4.00289e-24)
(0.0130718 1.63244e-05 4.04461e-24)
(0.0130795 9.42091e-06 -1.31312e-23)
(0.0130844 2.64897e-06 4.96675e-25)
(0.0130869 -4.01607e-06 3.15827e-24)
(0.0130868 -1.04934e-05 2.19436e-24)
(0.0130843 -1.67738e-05 9.56673e-25)
(0.0130795 -2.28396e-05 4.20377e-25)
(0.0111325 5.42768e-05 3.63698e-24)
(0.0111634 4.93336e-05 -2.84885e-24)
(0.0111906 4.42047e-05 -1.3466e-23)
(0.0112145 3.89312e-05 1.26675e-23)
(0.0112351 3.35449e-05 1.89927e-23)
(0.0112525 2.80989e-05 -4.25159e-24)
(0.011267 2.26352e-05 -9.99753e-24)
(0.0112786 1.71867e-05 -1.53887e-23)
(0.0112873 1.17854e-05 1.18703e-23)
(0.0112934 6.46054e-06 8.67523e-25)
(0.0112969 1.22556e-06 -2.98935e-24)
(0.0112978 -3.89883e-06 -9.7603e-25)
(0.0112963 -8.88825e-06 1.96637e-24)
(0.0112925 -1.37215e-05 -9.46552e-27)
(0.0112864 -1.83802e-05 -4.76658e-25)
(0.00948221 4.00283e-05 -2.28575e-24)
(0.00950978 3.63769e-05 -1.75464e-24)
(0.00953416 3.26014e-05 1.9753e-24)
(0.00955546 2.87013e-05 -7.01452e-24)
(0.00957378 2.47068e-05 2.32486e-23)
(0.00958922 2.0661e-05 -3.19623e-23)
(0.00960187 1.65954e-05 3.24762e-23)
(0.00961183 1.25357e-05 -1.40667e-23)
(0.00961917 8.50638e-06 3.54928e-24)
(0.00962398 4.53333e-06 2.92443e-25)
(0.0096263 6.34005e-07 -2.82293e-24)
(0.00962625 -3.18295e-06 1.27687e-24)
(0.00962388 -6.90762e-06 -2.57383e-24)
(0.00961931 -1.05093e-05 -4.10198e-25)
(0.00961258 -1.39741e-05 2.21216e-25)
(0.00795156 2.86235e-05 -1.10923e-24)
(0.00797568 2.60308e-05 2.57888e-25)
(0.00799708 2.33591e-05 6.28781e-25)
(0.00801578 2.05816e-05 -3.16528e-24)
(0.00803184 1.77305e-05 -1.60072e-24)
(0.00804534 1.48376e-05 1.3065e-23)
(0.00805633 1.19253e-05 -7.79028e-24)
(0.00806488 9.01269e-06 1.22746e-24)
(0.00807105 6.11766e-06 -1.16486e-24)
(0.00807491 3.26213e-06 -1.39992e-24)
(0.0080765 4.66389e-07 -5.19082e-25)
(0.00807591 -2.27303e-06 2.98383e-24)
(0.0080732 -4.95846e-06 1.02732e-24)
(0.00806847 -7.548e-06 -2.01341e-24)
(0.00806177 -1.0034e-05 -3.65789e-25)
(0.00654056 1.97013e-05 -4.02903e-25)
(0.00656122 1.79428e-05 -1.49849e-25)
(0.00657964 1.61365e-05 -6.92258e-24)
(0.00659576 1.42445e-05 1.63479e-24)
(0.00660962 1.22993e-05 -5.5317e-24)
(0.00662127 1.03217e-05 3.41694e-24)
(0.00663074 8.32679e-06 7.27331e-24)
(0.00663807 6.32827e-06 5.92371e-24)
(0.00664332 4.33803e-06 -8.55436e-24)
(0.00664651 2.37156e-06 2.59203e-24)
(0.00664772 4.46107e-07 2.47992e-24)
(0.00664699 -1.42647e-06 -3.8568e-24)
(0.00664437 -3.28415e-06 2.0759e-24)
(0.00663997 -5.06916e-06 -2.64381e-25)
(0.00663382 -6.77864e-06 6.81928e-25)
(0.00524711 1.28981e-05 -1.57634e-24)
(0.00526436 1.17704e-05 -2.27206e-24)
(0.00527982 1.06159e-05 -5.3933e-25)
(0.00529341 9.39713e-06 5.74501e-24)
(0.00530513 8.14306e-06 -4.27478e-24)
(0.00531501 6.86496e-06 -9.85653e-25)
(0.00532306 5.57271e-06 7.34467e-24)
(0.00532931 4.27558e-06 1.69797e-25)
(0.00533379 2.98087e-06 -1.49407e-24)
(0.00533653 1.69858e-06 -6.35133e-24)
(0.00533756 4.38974e-07 4.67914e-25)
(0.00533699 -7.62564e-07 4.80729e-24)
(0.00533477 -1.98753e-06 -6.35833e-25)
(0.00533102 -3.15574e-06 -8.62049e-25)
(0.00532578 -4.26987e-06 5.96497e-25)
(0.00406744 7.87287e-06 -3.4419e-25)
(0.00408135 7.20019e-06 1.07804e-26)
(0.0040939 6.51548e-06 2.72184e-24)
(0.00410498 5.78773e-06 1.96637e-24)
(0.00411459 5.03861e-06 -1.19393e-24)
(0.00412273 4.27284e-06 -3.33417e-24)
(0.00412941 3.4965e-06 1.45054e-24)
(0.00413464 2.71531e-06 -6.32427e-24)
(0.00413843 1.93357e-06 4.91306e-24)
(0.00414081 1.15757e-06 2.79501e-24)
(0.00414179 3.85706e-07 1.66657e-25)
(0.00414149 -3.26065e-07 -3.24786e-24)
(0.00413984 -1.0735e-06 6.6252e-25)
(0.00413691 -1.78837e-06 -5.74835e-25)
(0.00413277 -2.46373e-06 3.0598e-25)
(0.00299647 4.31575e-06 -6.33196e-25)
(0.00300711 3.95146e-06 -5.07632e-27)
(0.0030168 3.58641e-06 2.16783e-24)
(0.00302538 3.19723e-06 -1.36232e-24)
(0.00303288 2.7969e-06 6.01259e-24)
(0.00303928 2.38654e-06 -1.11179e-23)
(0.00304458 1.96954e-06 9.41466e-24)
(0.00304878 1.54885e-06 -8.17283e-24)
(0.00305188 1.12681e-06 6.12606e-24)
(0.00305391 7.07557e-07 -4.1343e-24)
(0.00305485 2.85835e-07 1.43963e-24)
(0.00305482 -9.58856e-08 2.2259e-25)
(0.00305376 -5.01107e-07 4.28194e-25)
(0.00305169 -8.91848e-07 -5.49274e-25)
(0.00304869 -1.2574e-06 1.26192e-25)
(0.00202816 1.96254e-06 9.60088e-25)
(0.00203563 1.79075e-06 1.09463e-24)
(0.00204247 1.62569e-06 -4.63669e-24)
(0.00204858 1.45077e-06 3.46382e-24)
(0.00205395 1.27147e-06 -5.73806e-27)
(0.00205857 1.08777e-06 1.01048e-24)
(0.00206244 9.01395e-07 -1.16811e-24)
(0.00206555 7.14199e-07 -2.68132e-24)
(0.00206791 5.26774e-07 2.72841e-24)
(0.00206952 3.41255e-07 3.55545e-25)
(0.00207036 1.54012e-07 -2.46168e-24)
(0.0020705 -1.46993e-08 8.6874e-25)
(0.00206996 -1.93055e-07 5.95324e-25)
(0.00206868 -3.64942e-07 -6.52221e-26)
(0.00206675 -5.25153e-07 -8.4744e-26)
(0.00115585 6.22561e-07 -9.6822e-25)
(0.00116023 5.70355e-07 3.01665e-24)
(0.00116428 5.237e-07 1.9299e-24)
(0.00116791 4.72113e-07 -3.34527e-24)
(0.00117114 4.17175e-07 -3.98617e-25)
(0.00117394 3.59264e-07 -3.78842e-25)
(0.00117631 2.99434e-07 1.22418e-24)
(0.00117825 2.41542e-07 -2.11645e-24)
(0.00117975 1.84786e-07 3.03686e-24)
(0.00118082 1.28394e-07 -1.48198e-24)
(0.00118144 6.96016e-08 -1.06818e-24)
(0.00118165 1.8892e-08 6.73646e-25)
(0.00118145 -3.73482e-08 -9.25272e-25)
(0.00118083 -8.76488e-08 9.70922e-25)
(0.00117982 -1.40945e-07 -1.83512e-25)
(0.000372503 1.26589e-07 -6.90846e-27)
(0.000373897 1.68792e-07 5.90938e-25)
(0.000375205 2.02789e-07 7.13808e-25)
(0.000376389 2.25621e-07 -1.0859e-24)
(0.000377453 2.38289e-07 2.42324e-24)
(0.000378391 2.41651e-07 -2.6198e-24)
(0.000379196 2.36661e-07 1.85762e-25)
(0.000379866 2.26287e-07 1.63047e-24)
(0.000380398 2.10503e-07 -2.26158e-24)
(0.000380792 1.88696e-07 -4.72377e-25)
(0.000381039 1.60184e-07 1.76386e-24)
(0.000381151 1.28203e-07 -7.98008e-25)
(0.000381134 9.07684e-08 -3.48405e-25)
(0.000380977 5.17144e-08 2.99302e-25)
(0.00038069 4.5747e-09 -1.51776e-26)
(0.000886744 -0.000230856 8.20387e-26)
(0.00101484 -0.000149767 2.1068e-24)
(0.00123131 -6.55388e-05 -6.0656e-24)
(0.00145296 4.40038e-06 8.83186e-24)
(0.00166675 6.18772e-05 -3.31283e-24)
(0.00187766 0.000107622 -3.20001e-24)
(0.00208598 0.000143791 3.64796e-24)
(0.00229258 0.000172117 -7.25246e-24)
(0.0024983 0.000193963 4.25345e-25)
(0.00270374 0.000210423 4.62033e-24)
(0.0029094 0.000222418 -8.99555e-25)
(0.0031157 0.00023074 9.9189e-25)
(0.00332319 0.000236098 -8.61817e-26)
(0.00353258 0.00023917 6.77024e-25)
(0.00374487 0.00024054 -2.49889e-24)
(0.00396143 0.000240645 1.38857e-24)
(0.00418435 0.000239734 -4.72888e-25)
(0.00441638 0.000237889 1.71553e-26)
(0.00466162 0.000234591 1.18179e-24)
(0.00492506 0.000228512 -7.48368e-25)
(0.0052129 0.000216027 9.32161e-26)
(0.0055293 0.000190545 -8.07653e-26)
(0.00584861 0.000143544 1.42705e-25)
(0.00612906 7.62793e-05 5.10323e-25)
(0.00635683 -6.13762e-06 -9.18386e-25)
(0.00653275 -9.95902e-05 -5.44893e-25)
(0.00665958 -0.000199687 8.02243e-26)
(0.00674016 -0.000302642 1.24284e-24)
(0.00677698 -0.000405808 1.31328e-24)
(0.00677215 -0.000506569 -2.51264e-24)
(0.00672726 -0.000601631 1.12299e-24)
(0.00664356 -0.000686841 -2.58517e-25)
(0.00652228 -0.00075713 -2.98417e-25)
(0.00636482 -0.000806552 -1.99718e-24)
(0.00617283 -0.000828343 1.95642e-24)
(0.0059482 -0.000814877 1.02786e-23)
(0.00569299 -0.000757386 -3.20514e-24)
(0.00540946 -0.00064522 2.1522e-24)
(0.00510011 -0.000464479 9.93863e-25)
(0.00476829 -0.000196449 -1.36333e-23)
(0.00441701 0.000180965 -1.62846e-25)
(0.00405002 0.000681594 5.51597e-24)
(0.00365333 0.00127317 1.71168e-24)
(0.00324076 0.0018245 -7.684e-24)
(0.00300575 0.0019386 -3.79862e-25)
(0.00167257 -0.000308229 -2.41513e-24)
(0.00172538 -0.000260807 -3.41039e-24)
(0.00185884 -0.000179486 7.14501e-24)
(0.0020271 -0.000102787 3.3354e-24)
(0.00220688 -3.5616e-05 -1.16673e-23)
(0.00239379 1.99551e-05 1.24686e-23)
(0.00258418 6.504e-05 -4.47074e-24)
(0.00277665 0.000101279 3.60017e-24)
(0.00297079 0.000130124 -4.75842e-24)
(0.00316649 0.000152795 4.71905e-26)
(0.00336379 0.000170323 -2.63423e-24)
(0.00356288 0.000183574 5.25876e-24)
(0.00376412 0.000193301 -2.96707e-24)
(0.0039681 0.000200217 -2.8442e-24)
(0.0041757 0.000204926 -2.0815e-24)
(0.00438813 0.000207865 3.6772e-24)
(0.00460729 0.000209279 -5.34642e-25)
(0.0048357 0.000209237 2.16066e-24)
(0.00507711 0.000207216 3.87647e-25)
(0.00533601 0.000201925 -6.76979e-25)
(0.00561813 0.000189917 -2.88695e-25)
(0.00592718 0.000165001 -1.66616e-25)
(0.00623838 0.000119242 7.78971e-25)
(0.00651167 5.43069e-05 8.53851e-25)
(0.00673393 -2.47156e-05 -8.50257e-25)
(0.00690604 -0.000114075 -3.46462e-24)
(0.00703061 -0.000209332 4.44202e-24)
(0.00711027 -0.000306711 -2.82781e-24)
(0.00714736 -0.000403493 9.22803e-25)
(0.00714397 -0.000496988 -2.85077e-25)
(0.00710183 -0.000583828 1.41503e-24)
(0.00702246 -0.000659827 -8.69273e-26)
(0.00690744 -0.000719931 -2.55556e-24)
(0.00675867 -0.000758246 1.09655e-23)
(0.00657848 -0.000768087 -1.68237e-23)
(0.00636971 -0.000741926 4.45076e-24)
(0.00613585 -0.000671142 1.7689e-23)
(0.00588124 -0.000545384 -5.18017e-24)
(0.00561176 -0.000351435 -1.35788e-23)
(0.00533645 -7.16753e-05 -7.84181e-24)
(0.00506885 0.000314786 1.78835e-23)
(0.00483184 0.000822592 -1.70264e-23)
(0.00464911 0.00142068 -3.75715e-24)
(0.00455868 0.00196731 1.10212e-23)
(0.00460266 0.00202503 3.60472e-24)
(0.00260407 -0.00031489 -2.75231e-26)
(0.00261046 -0.000306902 -3.90061e-24)
(0.00266674 -0.000256715 7.58882e-24)
(0.00277233 -0.000190228 6.39891e-24)
(0.00290441 -0.00012382 -1.04493e-23)
(0.0030545 -6.42873e-05 2.13314e-25)
(0.00321611 -1.35189e-05 1.01091e-24)
(0.00338548 2.88417e-05 1.10562e-23)
(0.00356054 6.36979e-05 -1.31215e-23)
(0.00374014 9.20421e-05 8.2031e-24)
(0.00392365 0.000114828 2.6266e-24)
(0.00411079 0.000132889 -1.41269e-23)
(0.00430163 0.000146959 5.12376e-24)
(0.00449653 0.000157753 2.15077e-24)
(0.00469614 0.000165872 -4.71189e-24)
(0.00490151 0.000171739 7.87676e-24)
(0.0051143 0.000175586 -5.73235e-24)
(0.00533673 0.000177461 -1.86622e-25)
(0.00557219 0.000176836 4.39651e-25)
(0.00582461 0.000172457 5.20041e-25)
(0.00609918 0.000161057 7.29108e-26)
(0.00639907 0.000136847 3.06889e-25)
(0.00670042 9.24649e-05 -7.7721e-25)
(0.006965 3.00056e-05 2.24614e-24)
(0.00718039 -4.55006e-05 -3.35409e-24)
(0.00734751 -0.000130546 1.89339e-24)
(0.00746885 -0.000220756 -3.71886e-24)
(0.0075468 -0.000312308 4.95777e-24)
(0.00758355 -0.000402416 -3.58471e-24)
(0.00758122 -0.000488321 9.78859e-25)
(0.00754168 -0.000566592 1.45008e-24)
(0.00746671 -0.000633022 1.83328e-25)
(0.0073583 -0.000682605 4.20984e-25)
(0.00721891 -0.000709566 5.68093e-24)
(0.00705158 -0.00070742 -1.46612e-23)
(0.00686017 -0.000668959 2.36827e-23)
(0.00664961 -0.000586094 -1.58349e-23)
(0.00642633 -0.00044947 2.20007e-23)
(0.00619935 -0.000247839 -4.16464e-23)
(0.0059823 3.2688e-05 1.57662e-23)
(0.0057961 0.000406644 5.3755e-24)
(0.00567326 0.000880245 8.32729e-24)
(0.00564944 0.00141588 -1.0359e-23)
(0.00574591 0.00187566 3.03864e-24)
(0.00592741 0.00191477 -1.86054e-24)
(0.00366619 -0.000297056 -1.02753e-24)
(0.00364629 -0.000313472 -1.57368e-24)
(0.00365406 -0.000292146 -6.75063e-24)
(0.00369944 -0.000248239 1.83736e-24)
(0.00377926 -0.000192606 1.21364e-24)
(0.00388414 -0.000136752 5.34596e-24)
(0.00400769 -8.55017e-05 -1.12772e-23)
(0.00414512 -4.04331e-05 4.26417e-24)
(0.00429309 -1.79351e-06 1.45286e-23)
(0.00444941 3.07616e-05 -3.81438e-24)
(0.00461272 5.78401e-05 -3.68026e-24)
(0.00478219 8.00696e-05 -6.02744e-25)
(0.00495749 9.80575e-05 2.06334e-24)
(0.00513867 0.000112458 -4.1273e-24)
(0.00532614 0.000123825 9.16336e-25)
(0.00552066 0.000132534 -4.27407e-25)
(0.00572366 0.000138782 -2.37056e-24)
(0.00593703 0.000142586 7.66264e-25)
(0.00616372 0.000143407 4.24048e-24)
(0.0064071 0.00014002 -4.85396e-25)
(0.00667174 0.000129342 -9.87221e-25)
(0.00696016 0.000105985 -2.62382e-25)
(0.00724947 6.31559e-05 -1.36877e-24)
(0.00750337 3.37362e-06 1.9663e-26)
(0.00771014 -6.83983e-05 -2.80893e-24)
(0.00787076 -0.000148875 5.04617e-24)
(0.00798757 -0.000233771 -3.72902e-24)
(0.00806274 -0.000319189 6.90298e-24)
(0.00809832 -0.000402285 -5.11726e-24)
(0.00809644 -0.000480256 1.44402e-24)
(0.00805916 -0.000549635 1.28403e-24)
(0.00798855 -0.000606239 -2.79058e-25)
(0.00788704 -0.000645182 -3.88145e-25)
(0.00775763 -0.000660917 -1.70232e-24)
(0.00760411 -0.000647334 2.4114e-24)
(0.00743131 -0.000597821 -7.21693e-24)
(0.00724547 -0.000505261 3.29061e-23)
(0.00705478 -0.000361972 -1.75637e-23)
(0.00687046 -0.00015974 -7.78209e-25)
(0.00670856 0.000109892 -3.66944e-23)
(0.00659199 0.000452952 2.77108e-23)
(0.00655221 0.000865169 -1.00461e-23)
(0.00662027 0.00130786 2.26978e-24)
(0.00680041 0.00167515 1.30079e-23)
(0.00704162 0.00176118 -3.30205e-24)
(0.0048558 -0.000269171 -4.25556e-24)
(0.00482555 -0.000296939 8.68783e-24)
(0.00480642 -0.000293778 2.41648e-24)
(0.00481045 -0.000273477 1.05917e-23)