/*--------------------------------*- C++ -*----------------------------------*\
| =========                 |                                                 |
| \\      /  F ield         | OpenFOAM: The Open Source CFD Toolbox           |
|  \\    /   O peration     | Version:  2312                                  |
|   \\  /    A nd           | Website:  www.openfoam.com                      |
|    \\/     M anipulation  |                                                 |
\*---------------------------------------------------------------------------*/
FoamFile
{
    version     2.0;
    format      ascii;
    arch        "LSB;label=32;scalar=64";
    class       volScalarField;
    location    "11.5";
    object      p;
}
// * * * * * * * * * * * * * * * * * * * * * * * * * * * * * * * * * * * * * //

dimensions      [0 2 -2 0 0 0 0];

internalField   nonuniform List<scalar> 
4800
(
7.7823e-12
-1.40717e-06
-2.57983e-06
-3.57387e-06
-4.42724e-06
-5.16502e-06
-5.81147e-06
-6.38412e-06
-6.89136e-06
-7.34546e-06
-7.75504e-06
-8.12219e-06
-8.44057e-06
-8.94086e-06
-1.05702e-05
1.5421e-08
-1.38915e-06
-2.55998e-06
-3.55286e-06
-4.40623e-06
-5.14507e-06
-5.79407e-06
-6.37072e-06
-6.88394e-06
-7.34776e-06
-7.776e-06
-8.18417e-06
-8.58707e-06
-9.09133e-06
-9.94479e-06
3.18792e-08
-1.36981e-06
-2.53875e-06
-3.53064e-06
-4.38389e-06
-5.1236e-06
-5.77347e-06
-6.35312e-06
-6.8711e-06
-7.34197e-06
-7.78099e-06
-8.20449e-06
-8.62179e-06
-9.04223e-06
-9.44568e-06
4.89256e-08
-1.34927e-06
-2.51578e-06
-3.50618e-06
-4.3587e-06
-5.09927e-06
-5.74832e-06
-6.32918e-06
-6.84927e-06
-7.32136e-06
-7.75843e-06
-8.16843e-06
-8.54443e-06
-8.85673e-06
-9.03757e-06
6.80619e-08
-1.32577e-06
-2.48909e-06
-3.47723e-06
-4.32812e-06
-5.06844e-06
-5.7163e-06
-6.29483e-06
-6.81295e-06
-7.27897e-06
-7.70106e-06
-8.0778e-06
-8.39116e-06
-8.60387e-06
-8.66214e-06
9.07611e-08
-1.29774e-06
-2.45693e-06
-3.44183e-06
-4.28994e-06
-5.02768e-06
-5.67348e-06
-6.24593e-06
-6.75592e-06
-7.2073e-06
-7.60243e-06
-7.9337e-06
-8.18088e-06
-8.3152e-06
-8.30914e-06
1.19199e-07
-1.26298e-06
-2.41695e-06
-3.3973e-06
-4.24099e-06
-4.97381e-06
-5.61391e-06
-6.17661e-06
-6.67138e-06
-7.09936e-06
-7.45851e-06
-7.73952e-06
-7.9269e-06
-8.00588e-06
-7.96973e-06
1.57025e-07
-1.2179e-06
-2.36535e-06
-3.33948e-06
-4.17652e-06
-4.90144e-06
-5.53137e-06
-6.0792e-06
-6.55195e-06
-6.94945e-06
-7.26808e-06
-7.50087e-06
-7.64012e-06
-7.68341e-06
-7.63576e-06
2.09742e-07
-1.15707e-06
-2.29651e-06
-3.26233e-06
-4.08989e-06
-4.80321e-06
-5.41816e-06
-5.94554e-06
-6.39064e-06
-6.75352e-06
-7.03186e-06
-7.22318e-06
-7.32732e-06
-7.34999e-06
-7.30124e-06
2.84583e-07
-1.07318e-06
-2.20281e-06
-3.15778e-06
-3.97255e-06
-4.67009e-06
-5.26524e-06
-5.76746e-06
-6.18141e-06
-6.50906e-06
-6.75115e-06
-6.91006e-06
-6.9911e-06
-7.00421e-06
-6.96069e-06
3.89775e-07
-9.57478e-07
-2.07497e-06
-3.01608e-06
-3.81438e-06
-4.49199e-06
-5.06313e-06
-5.53698e-06
-5.91936e-06
-6.2145e-06
-6.42687e-06
-6.56283e-06
-6.63088e-06
-6.64244e-06
-6.60826e-06
5.33638e-07
-8.00593e-07
-1.90284e-06
-2.82652e-06
-3.60462e-06
-4.25871e-06
-4.8031e-06
-5.24785e-06
-5.60077e-06
-5.86859e-06
-6.05894e-06
-6.18077e-06
-6.24394e-06
-6.25976e-06
-6.23778e-06
7.24302e-07
-5.92957e-07
-1.67592e-06
-2.57825e-06
-3.3327e-06
-3.96086e-06
-4.47784e-06
-4.89523e-06
-5.22289e-06
-5.47e-06
-5.64617e-06
-5.76157e-06
-5.82627e-06
-5.85065e-06
-5.84297e-06
9.69891e-07
-3.24701e-07
-1.38349e-06
-2.26039e-06
-2.98849e-06
-3.58992e-06
-4.08096e-06
-4.47481e-06
-4.78304e-06
-5.01652e-06
-5.18583e-06
-5.30138e-06
-5.3727e-06
-5.40903e-06
-5.41741e-06
1.27833e-06
1.4137e-08
-1.01477e-06
-1.86233e-06
-2.56233e-06
-3.13781e-06
-3.60614e-06
-3.98173e-06
-4.27721e-06
-4.50398e-06
-4.673e-06
-4.79425e-06
-4.87643e-06
-4.92761e-06
-4.95381e-06
1.6563e-06
4.32551e-07
-5.60033e-07
-1.37463e-06
-2.04574e-06
-2.59724e-06
-3.04714e-06
-3.41023e-06
-3.69935e-06
-3.92623e-06
-4.10088e-06
-4.23262e-06
-4.32935e-06
-4.39811e-06
-4.4441e-06
2.10716e-06
9.36339e-07
-1.2727e-08
-7.91067e-07
-1.43316e-06
-1.9632e-06
-2.39923e-06
-2.75572e-06
-3.04489e-06
-3.27745e-06
-3.46276e-06
-3.60932e-06
-3.72419e-06
-3.81344e-06
-3.88161e-06
2.62824e-06
1.52491e-06
6.2729e-07
-1.11579e-07
-7.24708e-07
-1.2356e-06
-1.66157e-06
-2.01615e-06
-2.31042e-06
-2.55383e-06
-2.7544e-06
-2.91992e-06
-3.05665e-06
-3.16976e-06
-3.26321e-06
3.2087e-06
2.18807e-06
1.35015e-06
6.54114e-07
7.0197e-08
-4.23096e-07
-8.41481e-07
-1.19695e-06
-1.49922e-06
-1.75661e-06
-1.97623e-06
-2.16413e-06
-2.32567e-06
-2.46545e-06
-2.58712e-06
3.82748e-06
2.90279e-06
2.13199e-06
1.48195e-06
9.27729e-07
4.50978e-07
3.82367e-08
-3.20552e-07
-6.33278e-07
-9.06524e-07
-1.14615e-06
-1.35729e-06
-1.5447e-06
-1.71249e-06
-1.86399e-06
4.42186e-06
3.59592e-06
2.89342e-06
2.28917e-06
1.76374e-06
1.3025e-06
8.94546e-07
5.31637e-07
2.07316e-07
-8.36466e-08
-3.45584e-07
-5.82381e-07
-7.98267e-07
-9.96641e-07
-1.1803e-06
4.90904e-06
4.16878e-06
3.5256e-06
2.96108e-06
2.46065e-06
2.01316e-06
1.61012e-06
1.24493e-06
9.1223e-07
6.07388e-07
3.26112e-07
6.49888e-08
-1.77661e-07
-4.04012e-07
-6.16535e-07
5.27328e-06
4.59973e-06
4.00266e-06
3.46872e-06
2.98719e-06
2.5496e-06
2.14926e-06
1.78076e-06
1.43965e-06
1.12217e-06
8.25301e-07
5.46831e-07
2.84391e-07
3.60844e-08
-1.99972e-07
5.5392e-06
4.91773e-06
4.35698e-06
3.84738e-06
3.38105e-06
2.95156e-06
2.55359e-06
2.18275e-06
1.83539e-06
1.50854e-06
1.19972e-06
9.06792e-07
6.27874e-07
3.61367e-07
1.05721e-07
5.73122e-06
5.15049e-06
4.61868e-06
4.12879e-06
3.67496e-06
3.25222e-06
2.85628e-06
2.48356e-06
2.13106e-06
1.79632e-06
1.47721e-06
1.1719e-06
8.78932e-07
5.96995e-07
3.248e-07
5.86858e-06
5.31992e-06
4.81122e-06
4.33721e-06
3.89347e-06
3.47607e-06
3.08155e-06
2.70695e-06
2.34981e-06
2.00807e-06
1.67999e-06
1.36415e-06
1.05931e-06
7.64367e-07
4.78265e-07
5.96599e-06
5.44279e-06
4.95255e-06
4.49126e-06
4.05554e-06
3.64223e-06
3.24852e-06
2.872e-06
2.51068e-06
2.16285e-06
1.82706e-06
1.50228e-06
1.18741e-06
8.81535e-07
5.83769e-07
6.03458e-06
5.5318e-06
5.05637e-06
4.6053e-06
4.17595e-06
3.76575e-06
3.37242e-06
2.99404e-06
2.62899e-06
2.27595e-06
1.93355e-06
1.60113e-06
1.27772e-06
9.62579e-07
6.54982e-07
6.08263e-06
5.59644e-06
5.13305e-06
4.69027e-06
4.26602e-06
3.8582e-06
3.46499e-06
3.08482e-06
2.7164e-06
2.35858e-06
2.01076e-06
1.67181e-06
1.34108e-06
1.01806e-06
7.02133e-07
6.11624e-06
5.64372e-06
5.19026e-06
4.75431e-06
4.3342e-06
3.92822e-06
3.53493e-06
3.15311e-06
2.78176e-06
2.41997e-06
2.06715e-06
1.72251e-06
1.38551e-06
1.05576e-06
7.32753e-07
6.13985e-06
5.67878e-06
5.23364e-06
4.80339e-06
4.38666e-06
3.98212e-06
3.58864e-06
3.2053e-06
2.83128e-06
2.46601e-06
2.10883e-06
1.75926e-06
1.41686e-06
1.08133e-06
7.52257e-07
6.15665e-06
5.70531e-06
5.26724e-06
4.84178e-06
4.42786e-06
4.02446e-06
3.63073e-06
3.24598e-06
2.86962e-06
2.5012e-06
2.14022e-06
1.78636e-06
1.43927e-06
1.09874e-06
7.64433e-07
6.1689e-06
5.72591e-06
5.29389e-06
4.87251e-06
4.46095e-06
4.05845e-06
3.66442e-06
3.27838e-06
2.89994e-06
2.52872e-06
2.16441e-06
1.80678e-06
1.45559e-06
1.1107e-06
7.71853e-07
6.17811e-06
5.74235e-06
5.31556e-06
4.89769e-06
4.48811e-06
4.08635e-06
3.69201e-06
3.30478e-06
2.92446e-06
2.55075e-06
2.18349e-06
1.82255e-06
1.46776e-06
1.11905e-06
7.76227e-07
6.1853e-06
5.75586e-06
5.3336e-06
4.91874e-06
4.51086e-06
4.1097e-06
3.71504e-06
3.32673e-06
2.9447e-06
2.56879e-06
2.19891e-06
1.83502e-06
1.47706e-06
1.12498e-06
7.78666e-07
6.19113e-06
5.7672e-06
5.34891e-06
4.93665e-06
4.53022e-06
4.12955e-06
3.73457e-06
3.34527e-06
2.96171e-06
2.58381e-06
2.2116e-06
1.84511e-06
1.48432e-06
1.12927e-06
7.7988e-07
6.19599e-06
5.77688e-06
5.36203e-06
4.95202e-06
4.54683e-06
4.14658e-06
3.75125e-06
3.36107e-06
2.97614e-06
2.59647e-06
2.22218e-06
1.85338e-06
1.4901e-06
1.13243e-06
7.80322e-07
6.20017e-06
5.7853e-06
5.37344e-06
4.96539e-06
4.56126e-06
4.16132e-06
3.76566e-06
3.37471e-06
2.98853e-06
2.60728e-06
2.23115e-06
1.8603e-06
1.49481e-06
1.13479e-06
7.80263e-07
6.20403e-06
5.79308e-06
5.384e-06
4.97774e-06
4.57457e-06
4.17485e-06
3.77895e-06
3.38722e-06
2.99984e-06
2.61709e-06
2.23923e-06
1.86646e-06
1.49889e-06
1.13667e-06
7.79838e-07
6.20762e-06
5.8006e-06
5.3942e-06
4.98967e-06
4.58744e-06
4.188e-06
3.79175e-06
3.39922e-06
3.01068e-06
2.62645e-06
2.24684e-06
1.87208e-06
1.50245e-06
1.13814e-06
7.7923e-07
-1.19377e-05
-9.6995e-06
-8.32288e-06
-7.39889e-06
-6.65742e-06
-6.08495e-06
-5.6364e-06
-5.28085e-06
-4.99784e-06
-4.77149e-06
-4.58913e-06
-4.44038e-06
-4.31666e-06
-4.21141e-06
-4.12045e-06
-4.04373e-06
-3.98659e-06
-3.96435e-06
-4.00399e-06
-4.14998e-06
-4.45824e-06
-4.9835e-06
-5.67622e-06
-6.3303e-06
-6.79045e-06
-6.98026e-06
-6.86246e-06
-6.42549e-06
-5.6699e-06
-4.60349e-06
-3.24018e-06
-1.60148e-06
2.82266e-07
2.37139e-06
4.61769e-06
6.96587e-06
9.35478e-06
1.17176e-05
1.39789e-05
1.60485e-05
1.78011e-05
1.90735e-05
1.94954e-05
1.8748e-05
1.56223e-05
-1.03226e-05
-9.16415e-06
-8.12313e-06
-7.30003e-06
-6.60416e-06
-6.04736e-06
-5.60448e-06
-5.25122e-06
-4.96956e-06
-4.74449e-06
-4.56362e-06
-4.41662e-06
-4.29493e-06
-4.19202e-06
-4.10375e-06
-4.03013e-06
-3.97653e-06
-3.95811e-06
-4.00141e-06
-4.14992e-06
-4.45797e-06
-4.97842e-06
-5.66163e-06
-6.30449e-06
-6.75454e-06
-6.93659e-06
-6.8136e-06
-6.37394e-06
-5.6184e-06
-4.55536e-06
-3.19991e-06
-1.5751e-06
2.86733e-07
2.34349e-06
4.54385e-06
6.82827e-06
9.12943e-06
1.13711e-05
1.34626e-05
1.52875e-05
1.66705e-05
1.7342e-05
1.67749e-05
1.42202e-05
8.70935e-06
-9.47544e-06
-8.74589e-06
-7.91562e-06
-7.18366e-06
-6.53844e-06
-6.0033e-06
-5.56939e-06
-5.22e-06
-4.94028e-06
-4.71666e-06
-4.53727e-06
-4.39197e-06
-4.27228e-06
-4.17173e-06
-4.08627e-06
-4.01598e-06
-3.96626e-06
-3.95209e-06
-3.9995e-06
-4.15084e-06
-4.45859e-06
-4.9734e-06
-5.64546e-06
-6.2751e-06
-6.71325e-06
-6.88619e-06
-6.75734e-06
-6.31515e-06
-5.56074e-06
-4.50341e-06
-3.1597e-06
-1.55471e-06
2.76675e-07
2.28922e-06
4.42761e-06
6.62696e-06
8.81247e-06
1.0897e-05
1.2774e-05
1.43031e-05
1.52814e-05
1.54039e-05
1.41978e-05
1.1145e-05
6.15171e-06
-8.93256e-06
-8.4032e-06
-7.73255e-06
-7.07346e-06
-6.47664e-06
-5.96447e-06
-5.54006e-06
-5.19412e-06
-4.91544e-06
-4.69221e-06
-4.5133e-06
-4.36888e-06
-4.25057e-06
-4.15199e-06
-4.06915e-06
-4.00217e-06
-3.95645e-06
-3.94677e-06
-3.99856e-06
-4.15288e-06
-4.46018e-06
-4.96858e-06
-5.62794e-06
-6.24236e-06
-6.66645e-06
-6.82821e-06
-6.69171e-06
-6.24567e-06
-5.49188e-06
-4.44089e-06
-3.11125e-06
-1.53068e-06
2.62628e-07
2.21951e-06
4.27982e-06
6.37251e-06
8.41482e-06
1.03093e-05
1.19368e-05
1.31454e-05
1.37316e-05
1.3429e-05
1.19156e-05
8.95127e-06
4.78799e-06
-8.50887e-06
-8.09971e-06
-7.55256e-06
-6.97677e-06
-6.42488e-06
-5.93564e-06
-5.52074e-06
-5.17722e-06
-4.89803e-06
-4.67353e-06
-4.49356e-06
-4.34872e-06
-4.23084e-06
-4.13357e-06
-4.053e-06
-3.98928e-06
-3.94774e-06
-3.94288e-06
-3.99939e-06
-4.15684e-06
-4.4634e-06
-4.96428e-06
-5.60896e-06
-6.20588e-06
-6.61381e-06
-6.76272e-06
-6.61757e-06
-6.16764e-06
-5.41564e-06
-4.37378e-06
-3.06302e-06
-1.51426e-06
2.30561e-07
2.11784e-06
4.08228e-06
6.04677e-06
7.92157e-06
9.60195e-06
1.09639e-05
1.18582e-05
1.21085e-05
1.15215e-05
9.92773e-06
7.28587e-06
3.87163e-06
-8.15092e-06
-7.82406e-06
-7.37246e-06
-6.87873e-06
-6.37973e-06
-5.91643e-06
-5.51271e-06
-5.17153e-06
-4.89078e-06
-4.66338e-06
-4.48058e-06
-4.33372e-06
-4.21493e-06
-4.11804e-06
-4.03918e-06
-3.97848e-06
-3.94122e-06
-3.94143e-06
-4.00295e-06
-4.16361e-06
-4.46893e-06
-4.96085e-06
-5.58843e-06
-6.16519e-06
-6.55466e-06
-6.6891e-06
-6.53467e-06
-6.08147e-06
-5.33352e-06
-4.30505e-06
-3.01987e-06
-1.51241e-06
1.71281e-07
1.97306e-06
3.82272e-06
5.63816e-06
7.32517e-06
8.77681e-06
9.87288e-06
1.04824e-05
1.04704e-05
9.72155e-06
8.18034e-06
5.91364e-06
3.17486e-06
-7.82394e-06
-7.56022e-06
-7.19318e-06
-6.76759e-06
-6.32653e-06
-5.89957e-06
-5.51148e-06
-5.17581e-06
-4.89439e-06
-4.66352e-06
-4.47659e-06
-4.32617e-06
-4.20506e-06
-4.1074e-06
-4.02947e-06
-3.97141e-06
-3.93833e-06
-3.94374e-06
-4.01045e-06
-4.17421e-06
-4.47757e-06
-4.95873e-06
-5.56632e-06
-6.11988e-06
-6.48833e-06
-6.60659e-06
-6.44239e-06
-5.98702e-06
-5.24622e-06
-4.23662e-06
-2.98525e-06
-1.53034e-06
7.79041e-08
1.77712e-06
3.49319e-06
5.14106e-06
6.62585e-06
7.84459e-06
8.68977e-06
9.05685e-06
8.85697e-06
8.03914e-06
6.61702e-06
4.69583e-06
2.48185e-06
-7.50769e-06
-7.29406e-06
-6.99793e-06
-6.64185e-06
-6.25705e-06
-5.871e-06
-5.50844e-06
-5.18437e-06
-4.90581e-06
-4.67293e-06
-4.48194e-06
-4.32725e-06
-4.20282e-06
-4.10342e-06
-4.02568e-06
-3.9698e-06
-3.94075e-06
-3.95139e-06
-4.0233e-06
-4.18983e-06
-4.49022e-06
-4.9584e-06
-5.54265e-06
-6.06956e-06
-6.41424e-06
-6.51463e-06
-6.34049e-06
-5.88476e-06
-5.15531e-06
-4.17157e-06
-2.96399e-06
-1.57463e-06
-5.75254e-08
1.52167e-06
3.0867e-06
4.55256e-06
5.82816e-06
6.82043e-06
7.44064e-06
7.61392e-06
7.29193e-06
6.46804e-06
5.18986e-06
3.56441e-06
1.74912e-06
-7.19197e-06
-7.01903e-06
-6.78127e-06
-6.48905e-06
-6.16195e-06
-5.8226e-06
-5.49257e-06
-5.18778e-06
-4.91802e-06
-4.687e-06
-4.49406e-06
-4.33595e-06
-4.20828e-06
-4.10688e-06
-4.029e-06
-3.9751e-06
-3.95003e-06
-3.96593e-06
-4.04296e-06
-4.21174e-06
-4.50782e-06
-4.96038e-06
-5.51741e-06
-6.01392e-06
-6.33201e-06
-6.4131e-06
-6.22947e-06
-5.77622e-06
-5.0638e-06
-4.11469e-06
-2.96278e-06
-1.6536e-06
-2.44132e-07
1.19822e-06
2.59756e-06
3.87243e-06
4.93991e-06
5.72125e-06
6.14905e-06
6.17606e-06
5.7844e-06
4.99305e-06
3.86083e-06
2.48172e-06
9.72617e-07
-6.87028e-06
-6.73144e-06
-6.54201e-06
-6.30599e-06
-6.03475e-06
-5.74464e-06
-5.45304e-06
-5.17493e-06
-4.92116e-06
-4.69791e-06
-4.50731e-06
-4.34858e-06
-4.21933e-06
-4.11687e-06
-4.03942e-06
-3.98789e-06
-3.96713e-06
-3.9885e-06
-4.0706e-06
-4.24098e-06
-4.53115e-06
-4.96506e-06
-5.49062e-06
-5.95281e-06
-6.24169e-06
-6.30263e-06
-6.11091e-06
-5.66439e-06
-4.97648e-06
-4.07273e-06
-2.99015e-06
-1.7769e-06
-4.91499e-07
7.99077e-07
2.02219e-06
3.10337e-06
3.9713e-06
4.56362e-06
4.83353e-06
4.75598e-06
4.33285e-06
3.59483e-06
2.59936e-06
1.42326e-06
1.52572e-07
-6.5367e-06
-6.42757e-06
-6.27896e-06
-6.09182e-06
-5.8722e-06
-5.63094e-06
-5.38117e-06
-5.13563e-06
-4.90483e-06
-4.69616e-06
-4.51372e-06
-4.35899e-06
-4.23159e-06
-4.13053e-06
-4.05528e-06
-4.00742e-06
-3.99193e-06
-4.01937e-06
-4.10667e-06
-4.278e-06
-4.56052e-06
-4.97262e-06
-5.46235e-06
-5.88646e-06
-6.14413e-06
-6.18508e-06
-5.98807e-06
-5.55427e-06
-4.90031e-06
-4.05458e-06
-3.05634e-06
-1.95509e-06
-8.08903e-07
3.18173e-07
1.35963e-06
2.25079e-06
2.93367e-06
3.36216e-06
3.50682e-06
3.35835e-06
2.92941e-06
2.25347e-06
1.38088e-06
3.72012e-07
-7.09853e-07
-6.1852e-06
-6.10294e-06
-5.98974e-06
-5.84528e-06
-5.67242e-06
-5.47792e-06
-5.2711e-06
-5.06203e-06
-4.85997e-06
-4.67241e-06
-4.50459e-06
-4.35962e-06
-4.23894e-06
-4.1432e-06
-4.07322e-06
-4.03141e-06
-4.02296e-06
-4.05764e-06
-4.15057e-06
-4.32236e-06
-4.59557e-06
-4.9829e-06
-5.43295e-06
-5.81591e-06
-6.04154e-06
-6.06428e-06
-5.86656e-06
-5.45346e-06
-4.84486e-06
-4.07127e-06
-3.17294e-06
-2.1988e-06
-1.20428e-06
-2.47997e-07
6.12013e-07
1.3224e-06
1.83867e-06
2.12892e-06
2.17676e-06
1.98267e-06
1.56368e-06
9.51047e-07
1.86279e-07
-6.84275e-07
-1.61396e-06
-5.80962e-06
-5.75246e-06
-5.67094e-06
-5.5643e-06
-5.43369e-06
-5.2831e-06
-5.11884e-06
-4.94841e-06
-4.77941e-06
-4.61868e-06
-4.47177e-06
-4.34279e-06
-4.23454e-06
-4.14914e-06
-4.08863e-06
-4.05628e-06
-4.05746e-06
-4.10116e-06
-4.20056e-06
-4.37264e-06
-4.63523e-06
-4.99552e-06
-5.40332e-06
-5.74362e-06
-5.93836e-06
-5.94679e-06
-5.75495e-06
-5.37242e-06
-4.82215e-06
-4.13548e-06
-3.35181e-06
-2.51745e-06
-1.68291e-06
-8.99358e-07
-2.1504e-07
3.28234e-07
6.9813e-07
8.74069e-07
8.48366e-07
6.26526e-07
2.25983e-07
-3.26508e-07
-9.98093e-07
-1.75375e-06
-2.55902e-06
-5.40375e-06
-5.37071e-06
-5.31838e-06
-5.24604e-06
-5.15395e-06
-5.0444e-06
-4.92151e-06
-4.79065e-06
-4.6577e-06
-4.52847e-06
-4.40822e-06
-4.30144e-06
-4.21177e-06
-4.14238e-06
-4.09635e-06
-4.07763e-06
-4.09172e-06
-4.14681e-06
-4.25398e-06
-4.42669e-06
-4.67797e-06
-5.01017e-06
-5.37528e-06
-5.67418e-06
-5.84216e-06
-5.84256e-06
-5.66492e-06
-5.32431e-06
-4.84598e-06
-4.26022e-06
-3.60353e-06
-2.9175e-06
-2.24592e-06
-1.63135e-06
-1.11201e-06
-7.19207e-07
-4.75399e-07
-3.92702e-07
-4.73879e-07
-7.11593e-07
-1.09022e-06
-1.58814e-06
-2.18017e-06
-2.84017e-06
-3.54272e-06
-4.96068e-06
-4.95159e-06
-4.92714e-06
-4.88682e-06
-4.83058e-06
-4.75969e-06
-4.67684e-06
-4.58576e-06
-4.49084e-06
-4.39679e-06
-4.30819e-06
-4.22944e-06
-4.16448e-06
-4.11711e-06
-4.09106e-06
-4.09074e-06
-4.12157e-06
-4.19091e-06
-4.30768e-06
-4.48215e-06
-4.72237e-06
-5.02729e-06
-5.35179e-06
-5.61498e-06
-5.76416e-06
-5.76406e-06
-5.61013e-06
-5.32376e-06
-4.93038e-06
-4.45697e-06
-3.93527e-06
-3.40064e-06
-2.88912e-06
-2.43443e-06
-2.06553e-06
-1.80488e-06
-1.66749e-06
-1.66069e-06
-1.78402e-06
-2.03032e-06
-2.38685e-06
-2.83697e-06
-3.36189e-06
-3.94237e-06
-4.55972e-06
-4.47293e-06
-4.48847e-06
-4.49169e-06
-4.48237e-06
-4.46045e-06
-4.4267e-06
-4.38289e-06
-4.33164e-06
-4.27616e-06
-4.22012e-06
-4.16737e-06
-4.12183e-06
-4.0874e-06
-4.06798e-06
-4.06761e-06
-4.09076e-06
-4.14265e-06
-4.22948e-06
-4.35854e-06
-4.53678e-06
-4.76832e-06
-5.04891e-06
-5.33911e-06
-5.57728e-06
-5.71677e-06
-5.72286e-06
-5.60544e-06
-5.38666e-06
-5.08878e-06
-4.73448e-06
-4.34987e-06
-3.96337e-06
-3.60317e-06
-3.29485e-06
-3.05954e-06
-2.91282e-06
-2.86439e-06
-2.91866e-06
-3.07427e-06
-3.32512e-06
-3.66142e-06
-4.0709e-06
-4.53992e-06
-5.05456e-06
-5.60118e-06
-3.93437e-06
-3.97596e-06
-4.00759e-06
-4.02933e-06
-4.04128e-06
-4.04406e-06
-4.03891e-06
-4.02769e-06
-4.01279e-06
-3.99703e-06
-3.98351e-06
-3.9756e-06
-3.97683e-06
-3.99086e-06
-4.02167e-06
-4.0734e-06
-4.15087e-06
-4.25904e-06
-4.40369e-06
-4.58906e-06
-4.81693e-06
-5.08168e-06
-5.34956e-06
-5.56926e-06
-5.7023e-06
-5.73163e-06
-5.66743e-06
-5.52816e-06
-5.33193e-06
-5.0975e-06
-4.84553e-06
-4.59772e-06
-4.37511e-06
-4.19639e-06
-4.07665e-06
-4.02643e-06
-4.0516e-06
-4.15531e-06
-4.33627e-06
-4.58981e-06
-4.90884e-06
-5.28467e-06
-5.70773e-06
-6.16817e-06
-6.65618e-06
-3.34266e-06
-3.41255e-06
-3.47421e-06
-3.52801e-06
-3.57436e-06
-3.61388e-06
-3.64759e-06
-3.67688e-06
-3.70358e-06
-3.72985e-06
-3.75819e-06
-3.79137e-06
-3.8324e-06
-3.88455e-06
-3.95129e-06
-4.03637e-06
-4.14374e-06
-4.27755e-06
-4.44167e-06
-4.63907e-06
-4.86982e-06
-5.12924e-06
-5.38544e-06
-5.5953e-06
-5.73722e-06
-5.80616e-06
-5.80829e-06
-5.75566e-06
-5.66213e-06
-5.54279e-06
-5.41359e-06
-5.29052e-06
-5.1886e-06
-5.12098e-06
-5.09813e-06
-5.12751e-06
-5.21368e-06
-5.35807e-06
-5.55963e-06
-5.81528e-06
-6.12033e-06
-6.469e-06
-6.85482e-06
-7.27099e-06
-7.71061e-06
-2.69639e-06
-2.79762e-06
-2.89201e-06
-2.98009e-06
-3.06254e-06
-3.14013e-06
-3.21381e-06
-3.28472e-06
-3.3543e-06
-3.42425e-06
-3.49656e-06
-3.57348e-06
-3.6575e-06
-3.75133e-06
-3.85787e-06
-3.9802e-06
-4.1215e-06
-4.2849e-06
-4.47314e-06
-4.68808e-06
-4.92941e-06
-5.19281e-06
-5.45036e-06
-5.66857e-06
-5.83753e-06
-5.95716e-06
-6.03074e-06
-6.06517e-06
-6.07015e-06
-6.05702e-06
-6.03761e-06
-6.02335e-06
-6.02464e-06
-6.05033e-06
-6.10753e-06
-6.20189e-06
-6.3371e-06
-6.51396e-06
-6.73191e-06
-6.9892e-06
-7.28308e-06
-7.60994e-06
-7.96562e-06
-8.3456e-06
-8.74516e-06
-2.00492e-06
-2.13952e-06
-2.26877e-06
-2.39316e-06
-2.51353e-06
-2.63076e-06
-2.74579e-06
-2.85963e-06
-2.97342e-06
-3.08854e-06
-3.20656e-06
-3.32926e-06
-3.45861e-06
-3.59677e-06
-3.74601e-06
-3.90873e-06
-4.08734e-06
-4.28415e-06
-4.50113e-06
-4.73952e-06
-4.99916e-06
-5.27731e-06
-5.55158e-06
-5.79624e-06
-6.00571e-06
-6.18119e-06
-6.32483e-06
-6.44082e-06
-6.53551e-06
-6.61666e-06
-6.69248e-06
-6.77088e-06
-6.85895e-06
-6.96273e-06
-7.08688e-06
-7.23464e-06
-7.40866e-06
-7.61074e-06
-7.84133e-06
-8.09981e-06
-8.38472e-06
-8.69402e-06
-9.02521e-06
-9.37551e-06
-9.74182e-06
-1.35451e-06
-1.52336e-06
-1.68784e-06
-1.84854e-06
-2.00635e-06
-2.16221e-06
-2.317e-06
-2.47162e-06
-2.62705e-06
-2.78442e-06
-2.94499e-06
-3.11019e-06
-3.2816e-06
-3.46089e-06
-3.64984e-06
-3.8503e-06
-4.06411e-06
-4.29303e-06
-4.53863e-06
-4.80205e-06
-5.08382e-06
-5.38357e-06
-5.68371e-06
-5.96185e-06
-6.21305e-06
-6.43873e-06
-6.6408e-06
-6.82231e-06
-6.98756e-06
-7.14173e-06
-7.29035e-06
-7.43871e-06
-7.59157e-06
-7.75293e-06
-7.92618e-06
-8.11426e-06
-8.31938e-06
-8.54276e-06
-8.78501e-06
-9.04617e-06
-9.32577e-06
-9.62288e-06
-9.9362e-06
-1.02641e-05
-1.06048e-05
-8.20306e-07
-1.01954e-06
-1.21531e-06
-1.40814e-06
-1.59883e-06
-1.78821e-06
-1.97711e-06
-2.16633e-06
-2.35672e-06
-2.54923e-06
-2.74493e-06
-2.94499e-06
-3.15069e-06
-3.36339e-06
-3.58451e-06
-3.81555e-06
-4.05802e-06
-4.3134e-06
-4.58314e-06
-4.86857e-06
-5.17093e-06
-5.49146e-06
-5.81494e-06
-6.1204e-06
-6.40323e-06
-6.6651e-06
-6.90793e-06
-7.13431e-06
-7.34744e-06
-7.55097e-06
-7.74872e-06
-7.94437e-06
-8.14129e-06
-8.34254e-06
-8.55086e-06
-8.76853e-06
-8.99708e-06
-9.23747e-06
-9.49037e-06
-9.75611e-06
-1.00347e-05
-1.03258e-05
-1.06288e-05
-1.09429e-05
-1.1267e-05
-4.281e-07
-6.522e-07
-8.7339e-07
-1.09219e-06
-1.30931e-06
-1.52547e-06
-1.74137e-06
-1.95771e-06
-2.17524e-06
-2.39477e-06
-2.6172e-06
-2.84353e-06
-3.07482e-06
-3.31222e-06
-3.55693e-06
-3.81022e-06
-4.07339e-06
-4.34783e-06
-4.63496e-06
-4.93627e-06
-5.25341e-06
-5.58815e-06
-5.92664e-06
-6.24928e-06
-6.55198e-06
-6.83662e-06
-7.10518e-06
-7.35994e-06
-7.60347e-06
-7.83853e-06
-8.06791e-06
-8.29429e-06
-8.52022e-06
-8.74798e-06
-8.97958e-06
-9.21666e-06
-9.46061e-06
-9.71242e-06
-9.9728e-06
-1.02422e-05
-1.05208e-05
-1.08086e-05
-1.11055e-05
-1.14109e-05
-1.17242e-05
-1.4279e-07
-3.87678e-07
-6.29978e-07
-8.7016e-07
-1.10883e-06
-1.34661e-06
-1.58408e-06
-1.82186e-06
-2.06057e-06
-2.30092e-06
-2.5437e-06
-2.78976e-06
-3.04e-06
-3.29541e-06
-3.55705e-06
-3.82601e-06
-4.10351e-06
-4.39082e-06
-4.68935e-06
-5.00062e-06
-5.32635e-06
-5.66842e-06
-6.0141e-06
-6.3455e-06
-6.65914e-06
-6.95703e-06
-7.24111e-06
-7.51338e-06
-7.77599e-06
-8.0311e-06
-8.28085e-06
-8.5273e-06
-8.77238e-06
-9.01785e-06
-9.26523e-06
-9.51589e-06
-9.77104e-06
-1.00316e-05
-1.02982e-05
-1.05715e-05
-1.08516e-05
-1.11387e-05
-1.14329e-05
-1.17339e-05
-1.20415e-05
5.91273e-08
-2.03126e-07
-4.62891e-07
-7.20586e-07
-9.76734e-07
-1.23185e-06
-1.48643e-06
-1.74099e-06
-1.99607e-06
-2.2523e-06
-2.51035e-06
-2.77096e-06
-3.03494e-06
-3.30313e-06
-3.57647e-06
-3.85596e-06
-4.1427e-06
-4.43787e-06
-4.74282e-06
-5.05901e-06
-5.38809e-06
-5.73186e-06
-6.07879e-06
-6.41289e-06
-6.73129e-06
-7.03595e-06
-7.32866e-06
-7.61121e-06
-7.88539e-06
-8.15298e-06
-8.4157e-06
-8.67519e-06
-8.93296e-06
-9.19044e-06
-9.44887e-06
-9.70933e-06
-9.97291e-06
-1.02404e-05
-1.05125e-05
-1.07896e-05
-1.10721e-05
-1.13602e-05
-1.16541e-05
-1.19536e-05
-1.22586e-05
1.98244e-07
-7.84021e-08
-3.5251e-07
-6.24454e-07
-8.94678e-07
-1.16361e-06
-1.43166e-06
-1.69926e-06
-1.96689e-06
-2.2351e-06
-2.50448e-06
-2.77568e-06
-3.04941e-06
-3.32641e-06
-3.60753e-06
-3.89366e-06
-4.18583e-06
-4.4851e-06
-4.79275e-06
-5.11009e-06
-5.43873e-06
-5.78026e-06
-6.12444e-06
-6.45725e-06
-6.77629e-06
-7.08339e-06
-7.38014e-06
-7.6681e-06
-7.94886e-06
-8.22391e-06
-8.49468e-06
-8.76252e-06
-9.02866e-06
-9.29429e-06
-9.56047e-06
-9.82818e-06
-1.00982e-05
-1.03713e-05
-1.06481e-05
-1.09289e-05
-1.12143e-05
-1.15044e-05
-1.17995e-05
-1.20994e-05
-1.24043e-05
2.91766e-07
3.18982e-09
-2.82701e-07
-5.66242e-07
-8.47802e-07
-1.12773e-06
-1.40636e-06
-1.68408e-06
-1.96131e-06
-2.23852e-06
-2.51624e-06
-2.79504e-06
-3.07555e-06
-3.35845e-06
-3.64449e-06
-3.93447e-06
-4.22934e-06
-4.53006e-06
-4.83781e-06
-5.15379e-06
-5.47948e-06
-5.81632e-06
-6.15528e-06
-6.48429e-06
-6.80136e-06
-7.10806e-06
-7.40579e-06
-7.69598e-06
-7.98002e-06
-8.25921e-06
-8.53478e-06
-8.80785e-06
-9.07947e-06
-9.35063e-06
-9.62225e-06
-9.89535e-06
-1.01704e-05
-1.0448e-05
-1.07289e-05
-1.10133e-05
-1.13018e-05
-1.15946e-05
-1.18918e-05
-1.21935e-05
-1.24997e-05
3.52931e-07
5.44271e-08
-2.41181e-07
-5.34189e-07
-8.24902e-07
-1.1136e-06
-1.40056e-06
-1.68613e-06
-1.97068e-06
-2.25463e-06
-2.53846e-06
-2.82266e-06
-3.1078e-06
-3.3945e-06
-3.68343e-06
-3.97533e-06
-4.27105e-06
-4.57146e-06
-4.87764e-06
-5.19068e-06
-5.51195e-06
-5.8427e-06
-6.17511e-06
-6.4989e-06
-6.8124e-06
-7.11691e-06
-7.41371e-06
-7.70409e-06
-7.98931e-06
-8.27049e-06
-8.5487e-06
-8.82493e-06
-9.1001e-06
-9.37505e-06
-9.65059e-06
-9.9276e-06
-1.02065e-05
-1.04879e-05
-1.07723e-05
-1.10602e-05
-1.13519e-05
-1.16476e-05
-1.19475e-05
-1.22518e-05
-1.25605e-05
3.91617e-07
8.48171e-08
-2.1884e-07
-5.19611e-07
-8.17741e-07
-1.11346e-06
-1.40701e-06
-1.6987e-06
-1.98885e-06
-2.27786e-06
-2.56614e-06
-2.85414e-06
-3.14238e-06
-3.43142e-06
-3.72186e-06
-4.01438e-06
-4.30975e-06
-4.60876e-06
-4.9124e-06
-5.22162e-06
-5.53773e-06
-5.86176e-06
-6.18702e-06
-6.50492e-06
-6.81398e-06
-7.1153e-06
-7.41004e-06
-7.69939e-06
-7.98447e-06
-8.26629e-06
-8.54577e-06
-8.82379e-06
-9.10119e-06
-9.37873e-06
-9.65708e-06
-9.93703e-06
-1.0219e-05
-1.05036e-05
-1.07911e-05
-1.10821e-05
-1.13769e-05
-1.16757e-05
-1.19788e-05
-1.22862e-05
-1.2598e-05
4.15071e-07
1.01298e-07
-2.09066e-07
-5.16243e-07
-8.20426e-07
-1.12181e-06
-1.42061e-06
-1.7171e-06
-2.01158e-06
-2.3044e-06
-2.59594e-06
-2.88661e-06
-3.17688e-06
-3.46726e-06
-3.75831e-06
-4.05063e-06
-4.34493e-06
-4.64193e-06
-4.94252e-06
-5.24756e-06
-5.55825e-06
-5.87544e-06
-6.19349e-06
-6.5053e-06
-6.80957e-06
-7.10721e-06
-7.39931e-06
-7.68695e-06
-7.97113e-06
-8.25274e-06
-8.53262e-06
-8.81156e-06
-9.09028e-06
-9.36947e-06
-9.64998e-06
-9.93222e-06
-1.02167e-05
-1.05038e-05
-1.07942e-05
-1.10881e-05
-1.13858e-05
-1.16878e-05
-1.1994e-05
-1.23047e-05
-1.26199e-05
4.28468e-07
1.08792e-07
-2.07208e-07
-5.19717e-07
-8.28887e-07
-1.13489e-06
-1.43792e-06
-1.73823e-06
-2.03609e-06
-2.33182e-06
-2.62577e-06
-2.91832e-06
-3.2099e-06
-3.50097e-06
-3.79205e-06
-4.0837e-06
-4.37654e-06
-4.67124e-06
-4.96862e-06
-5.26941e-06
-5.57473e-06
-5.88528e-06
-6.19638e-06
-6.50222e-06
-6.80166e-06
-7.09549e-06
-7.38472e-06
-7.67032e-06
-7.95318e-06
-8.23411e-06
-8.51388e-06
-8.79319e-06
-9.0727e-06
-9.35304e-06
-9.63503e-06
-9.91906e-06
-1.02055e-05
-1.04949e-05
-1.07877e-05
-1.10842e-05
-1.13848e-05
-1.16897e-05
-1.19991e-05
-1.23131e-05
-1.26318e-05
4.354e-07
1.10683e-07
-2.10097e-07
-5.27088e-07
-8.40417e-07
-1.15023e-06
-1.45673e-06
-1.76012e-06
-2.06066e-06
-2.35866e-06
-2.65442e-06
-2.9483e-06
-3.24071e-06
-3.53206e-06
-3.82284e-06
-4.11356e-06
-4.40479e-06
-4.69712e-06
-4.9913e-06
-5.28798e-06
-5.58819e-06
-5.89248e-06
-6.19705e-06
-6.49724e-06
-6.79203e-06
-7.08213e-06
-7.36847e-06
-7.65192e-06
-7.93327e-06
-8.21327e-06
-8.49261e-06
-8.77196e-06
-9.05191e-06
-9.33301e-06
-9.61607e-06
-9.90155e-06
-1.01897e-05
-1.0481e-05
-1.07759e-05
-1.10748e-05
-1.13779e-05
-1.16856e-05
-1.1998e-05
-1.23152e-05
-1.26373e-05
4.38283e-07
1.09224e-07
-2.15647e-07
-5.36449e-07
-8.53289e-07
-1.1663e-06
-1.47567e-06
-1.78159e-06
-2.08431e-06
-2.38409e-06
-2.68125e-06
-2.9761e-06
-3.26902e-06
-3.56042e-06
-3.85072e-06
-4.14039e-06
-4.42997e-06
-4.71999e-06
-5.01112e-06
-5.30394e-06
-5.59939e-06
-5.89791e-06
-6.19646e-06
-6.49139e-06
-6.78182e-06
-7.06839e-06
-7.35196e-06
-7.63328e-06
-7.91308e-06
-8.19204e-06
-8.4708e-06
-8.74997e-06
-9.03007e-06
-9.3117e-06
-9.5956e-06
-9.88225e-06
-1.01717e-05
-1.04647e-05
-1.07615e-05
-1.10625e-05
-1.1368e-05
-1.16782e-05
-1.19934e-05
-1.23136e-05
-1.2639e-05
4.38701e-07
1.05871e-07
-2.22534e-07
-5.46609e-07
-8.66448e-07
-1.18218e-06
-1.49396e-06
-1.802e-06
-2.10651e-06
-2.40774e-06
-2.70599e-06
-3.00157e-06
-3.29481e-06
-3.5861e-06
-3.87584e-06
-4.16445e-06
-4.45244e-06
-4.74027e-06
-5.02857e-06
-5.31783e-06
-5.60892e-06
-5.90217e-06
-6.19523e-06
-6.48535e-06
-6.77177e-06
-7.05508e-06
-7.33603e-06
-7.61533e-06
-7.89361e-06
-8.17151e-06
-8.44962e-06
-8.72853e-06
-9.00871e-06
-9.29052e-06
-9.57519e-06
-9.86278e-06
-1.01534e-05
-1.04477e-05
-1.07461e-05
-1.1049e-05
-1.13566e-05
-1.16692e-05
-1.19869e-05
-1.23099e-05
-1.26383e-05
4.37669e-07
1.0154e-07
-2.29941e-07
-5.56855e-07
-8.79283e-07
-1.19735e-06
-1.5112e-06
-1.82102e-06
-2.12703e-06
-2.42947e-06
-2.7286e-06
-3.02473e-06
-3.31817e-06
-3.60928e-06
-3.89843e-06
-4.18602e-06
-4.47251e-06
-4.75832e-06
-5.04402e-06
-5.33004e-06
-5.61717e-06
-5.90566e-06
-6.19376e-06
-6.47951e-06
-6.76229e-06
-7.04261e-06
-7.32116e-06
-7.59857e-06
-7.87541e-06
-8.15228e-06
-8.42972e-06
-8.70833e-06
-8.98835e-06
-9.27038e-06
-9.55573e-06
-9.84401e-06
-1.01356e-05
-1.04311e-05
-1.07309e-05
-1.10354e-05
-1.13449e-05
-1.16595e-05
-1.19796e-05
-1.23051e-05
-1.26362e-05
4.35827e-07
9.68029e-08
-2.37371e-07
-5.66761e-07
-8.91442e-07
-1.21153e-06
-1.52716e-06
-1.83852e-06
-2.14581e-06
-2.44925e-06
-2.74911e-06
-3.04567e-06
-3.33923e-06
-3.63012e-06
-3.9187e-06
-4.20533e-06
-4.49043e-06
-4.7744e-06
-5.05775e-06
-5.34085e-06
-5.62442e-06
-5.90863e-06
-6.19228e-06
-6.4741e-06
-6.75358e-06
-7.0312e-06
-7.30757e-06
-7.58324e-06
-7.85875e-06
-8.13464e-06
-8.41143e-06
-8.68968e-06
-8.96943e-06
-9.25184e-06
-9.53761e-06
-9.82641e-06
-1.01188e-05
-1.04153e-05
-1.07164e-05
-1.10224e-05
-1.13334e-05
-1.16499e-05
-1.1972e-05
-1.22998e-05
-1.26334e-05
4.33579e-07
9.20121e-08
-2.4452e-07
-5.76072e-07
-9.02716e-07
-1.22456e-06
-1.54173e-06
-1.85441e-06
-2.16279e-06
-2.46709e-06
-2.76756e-06
-3.06446e-06
-3.35809e-06
-3.64876e-06
-3.93679e-06
-4.22254e-06
-4.50639e-06
-4.7887e-06
-5.06993e-06
-5.35043e-06
-5.63083e-06
-5.91123e-06
-6.1909e-06
-6.4692e-06
-6.74574e-06
-7.02095e-06
-7.29535e-06
-7.56945e-06
-7.84374e-06
-8.11874e-06
-8.3949e-06
-8.67275e-06
-8.95236e-06
-9.23501e-06
-9.52103e-06
-9.8103e-06
-1.01034e-05
-1.04008e-05
-1.07029e-05
-1.10101e-05
-1.13227e-05
-1.16408e-05
-1.19647e-05
-1.22945e-05
-1.26303e-05
4.31122e-07
8.73009e-08
-2.51311e-07
-5.84766e-07
-9.13131e-07
-1.23651e-06
-1.55503e-06
-1.86885e-06
-2.17817e-06
-2.4832e-06
-2.78418e-06
-3.08136e-06
-3.37503e-06
-3.66547e-06
-3.953e-06
-4.23795e-06
-4.52067e-06
-4.80149e-06
-5.08083e-06
-5.359e-06
-5.63657e-06
-5.91356e-06
-6.18964e-06
-6.46479e-06
-6.73872e-06
-7.01177e-06
-7.2844e-06
-7.55709e-06
-7.83028e-06
-8.10445e-06
-8.38005e-06
-8.65753e-06