/*--------------------------------*- C++ -*----------------------------------*\
| =========                 |                                                 |
| \\      /  F ield         | OpenFOAM: The Open Source CFD Toolbox           |
|  \\    /   O peration     | Version:  2312                                  |
|   \\  /    A nd           | Website:  www.openfoam.com                      |
|    \\/     M anipulation  |                                                 |
\*---------------------------------------------------------------------------*/
FoamFile
{
    version     2.0;
    format      ascii;
    arch        "LSB;label=32;scalar=64";
    class       volVectorField;
    location    "60.5";
    object      U;
}
// * * * * * * * * * * * * * * * * * * * * * * * * * * * * * * * * * * * * * //

dimensions      [0 1 -1 0 0 0 0];

internalField   nonuniform List<vector> 
4800
(
(0.000490085 4.35534e-07 -3.62457e-26)
(0.000478657 5.06625e-07 -2.54437e-25)
(0.000470756 5.4602e-07 3.26688e-25)
(0.000465364 5.56015e-07 1.48586e-25)
(0.00046185 5.36692e-07 2.18583e-24)
(0.000459841 4.89473e-07 -5.20174e-24)
(0.00045906 4.2914e-07 4.8379e-24)
(0.000459548 3.33874e-07 -6.96829e-24)
(0.000461157 1.98169e-07 2.2479e-24)
(0.000464037 -6.95778e-08 7.58403e-24)
(0.000468603 -6.15544e-07 -2.34034e-24)
(0.000476186 -2.06329e-06 -2.03808e-25)
(0.000493973 -7.32695e-06 -2.82414e-24)
(0.000540237 -2.86469e-05 1.28736e-24)
(0.000618172 -9.47627e-05 -1.0172e-24)
(0.00151093 2.3005e-06 -1.15158e-25)
(0.00147595 1.87007e-06 1.43527e-25)
(0.0014516 1.52395e-06 -1.31958e-24)
(0.00143479 1.20583e-06 9.88009e-25)
(0.0014236 8.77101e-07 3.1462e-24)
(0.00141688 5.09183e-07 -5.0115e-24)
(0.00141379 7.60885e-08 -1.40097e-24)
(0.00141432 -5.02536e-07 -3.11246e-25)
(0.00141793 -1.3017e-06 1.14803e-23)
(0.00142521 -2.63899e-06 -8.5044e-24)
(0.00143734 -5.20358e-06 9.27327e-25)
(0.00145708 -1.12039e-05 1.39951e-24)
(0.00149327 -2.83793e-05 -2.05206e-24)
(0.00155699 -8.07089e-05 -5.93747e-25)
(0.00162683 -0.000200106 2.65272e-24)
(0.00263502 7.4221e-06 -8.23121e-26)
(0.00257472 6.00087e-06 8.41089e-26)
(0.00253248 4.88595e-06 8.63103e-25)
(0.00250307 3.89337e-06 -2.05453e-24)
(0.00248318 2.90521e-06 2.01036e-24)
(0.0024708 1.82813e-06 1.87937e-24)
(0.00246445 5.07756e-07 -4.88188e-24)
(0.00246398 -1.26663e-06 -2.95387e-24)
(0.00246829 -3.61464e-06 7.05198e-24)
(0.00247823 -7.40124e-06 2.66737e-24)
(0.00249511 -1.41518e-05 -9.31084e-24)
(0.00252088 -2.77851e-05 -1.379e-24)
(0.00255974 -5.80649e-05 3.96168e-24)
(0.00261042 -0.000124634 6.20083e-24)
(0.00264752 -0.000236667 -3.19735e-24)
(0.00386871 1.66514e-05 3.03785e-26)
(0.00378174 1.35621e-05 -2.11693e-25)
(0.00372042 1.11415e-05 9.42886e-25)
(0.00367731 8.99991e-06 1.00273e-24)
(0.00364768 6.89132e-06 -1.00337e-24)
(0.00362859 4.62559e-06 -5.73925e-24)
(0.0036179 1.88398e-06 -3.87519e-24)
(0.00361495 -1.70937e-06 1.43629e-23)
(0.00361843 -6.32107e-06 5.83214e-24)
(0.00362855 -1.34936e-05 -8.56541e-24)
(0.00364622 -2.53799e-05 -3.45558e-24)
(0.00367131 -4.63158e-05 -2.61599e-24)
(0.00370313 -8.45588e-05 8.40651e-26)
(0.0037343 -0.000150453 1.92559e-24)
(0.00374601 -0.000239715 9.39981e-27)
(0.00521652 3.09254e-05 -5.56622e-26)
(0.00510249 2.53341e-05 -3.41141e-25)
(0.0050214 2.09497e-05 -2.1462e-25)
(0.00496377 1.70941e-05 5.82902e-25)
(0.0049235 1.33446e-05 -1.64318e-24)
(0.00489667 9.38321e-06 4.09588e-24)
(0.0048805 4.71963e-06 -7.25441e-25)
(0.00487343 -1.07315e-06 2.50065e-24)
(0.00487426 -8.74349e-06 -1.38442e-23)
(0.004882 -1.95458e-05 2.61574e-23)
(0.00489654 -3.61343e-05 -2.53512e-23)
(0.00491597 -6.18898e-05 1.33298e-23)
(0.00493685 -0.000101866 -1.2338e-23)
(0.00495122 -0.000159336 1.1636e-23)
(0.00494818 -0.000226965 -4.64303e-24)
(0.00667947 5.13343e-05 7.34695e-26)
(0.00653968 4.23299e-05 2.63806e-25)
(0.00643918 3.52467e-05 -1.38958e-24)
(0.00636686 2.90499e-05 -8.73479e-25)
(0.00631543 2.31e-05 2.35224e-24)
(0.00628008 1.69262e-05 8.37774e-25)
(0.00625734 9.8915e-06 -6.53454e-24)
(0.00624487 1.39763e-06 1.55534e-23)
(0.00624095 -9.3178e-06 -2.01583e-23)
(0.00624401 -2.37646e-05 4.84377e-24)
(0.00625247 -4.38522e-05 1.46044e-23)
(0.00626357 -7.17232e-05 -2.02409e-23)
(0.00627324 -0.000109364 1.01283e-23)
(0.00627545 -0.000156328 1.03999e-23)
(0.00626505 -0.000206432 -7.92203e-24)
(0.0082527 7.87739e-05 6.08023e-26)
(0.00809129 6.55056e-05 -3.60123e-25)
(0.00797353 5.49903e-05 1.28874e-24)
(0.00788751 4.58127e-05 -1.78532e-24)
(0.00782521 3.71007e-05 -6.03181e-24)
(0.00778108 2.82223e-05 1.02792e-23)
(0.00775107 1.84405e-05 -6.21084e-24)
(0.0077322 7.02754e-06 2.10416e-23)
(0.00772211 -6.75975e-06 -1.43184e-23)
(0.00771862 -2.41451e-05 -6.65918e-24)
(0.00771938 -4.63833e-05 -1.30438e-23)
(0.00772139 -7.42763e-05 1.1996e-23)
(0.00772119 -0.000107828 3.37132e-24)
(0.00771499 -0.000145264 2.89587e-24)
(0.00770095 -0.000182386 -2.54948e-24)
(0.00992269 0.000113438 -8.80547e-26)
(0.00974787 9.53732e-05 1.19397e-24)
(0.00961773 8.08542e-05 -2.77633e-24)
(0.00952091 6.81519e-05 -2.2602e-24)
(0.00944934 5.6194e-05 8.61274e-25)
(0.00939718 4.42115e-05 1.67261e-24)
(0.00936002 3.14223e-05 5.93711e-24)
(0.00933439 1.70761e-05 -1.61012e-23)
(0.00931748 5.07654e-07 -8.52067e-24)
(0.00930666 -1.90505e-05 2.35667e-23)
(0.00929935 -4.21735e-05 -7.27988e-24)
(0.00929282 -6.87686e-05 2.49085e-23)
(0.00928457 -9.79522e-05 -1.3112e-23)
(0.00927242 -0.000127904 -4.19724e-24)
(0.00925613 -0.000156059 2.48905e-24)
(0.0116655 0.000154138 -1.18004e-26)
(0.0114903 0.000131457 6.62539e-25)
(0.0113561 0.000112791 -9.42617e-25)
(0.011254 9.63022e-05 2.24707e-24)
(0.0111767 8.08288e-05 -1.33586e-23)
(0.0111188 6.55371e-05 1.40916e-23)
(0.0110758 4.96686e-05 -2.20732e-23)
(0.0110441 3.25518e-05 1.35946e-23)
(0.0110208 1.36906e-05 1.00646e-23)
(0.0110031 -7.28433e-06 2.17712e-23)
(0.0109885 -3.03636e-05 -2.84327e-23)
(0.0109749 -5.50548e-05 -5.27319e-24)
(0.0109605 -8.0324e-05 2.40362e-24)
(0.0109441 -0.000104792 1.74279e-23)
(0.0109261 -0.000126991 -7.10456e-24)
(0.0134494 0.000197633 6.67438e-26)
(0.0132902 0.000171643 -2.82909e-25)
(0.0131636 0.000149438 1.24683e-24)
(0.0130642 0.000129432 -4.355e-24)
(0.012987 0.000110574 6.58427e-24)
(0.0129273 9.20979e-05 -8.46732e-24)
(0.0128813 7.3357e-05 1.41327e-23)
(0.0128458 5.38399e-05 2.44755e-24)
(0.0128178 3.32689e-05 -1.9403e-23)
(0.0127948 1.1581e-05 2.75936e-23)
(0.0127748 -1.09237e-05 -3.04328e-23)
(0.0127561 -3.36371e-05 -8.99507e-24)
(0.0127376 -5.57221e-05 1.58295e-23)
(0.0127184 -7.63064e-05 4.71925e-24)
(0.0126992 -9.46048e-05 -2.06598e-24)
(0.0152454 0.000238753 2.87593e-25)
(0.0151172 0.0002119 -2.24233e-24)
(0.01501 0.00018768 -3.48821e-24)
(0.0149226 0.000165139 8.32013e-24)
(0.0148524 0.000143597 3.67885e-24)
(0.0147964 0.000122521 -2.31026e-23)
(0.0147517 0.000101478 7.14198e-24)
(0.0147157 8.01785e-05 5.12226e-24)
(0.0146859 5.85485e-05 -2.20159e-23)
(0.0146604 3.67458e-05 2.29388e-23)
(0.0146376 1.51088e-05 -1.8402e-23)
(0.0146162 -5.82326e-06 4.72539e-23)
(0.0145958 -2.54763e-05 -2.2784e-23)
(0.0145755 -4.33739e-05 1.34498e-23)
(0.014556 -5.9137e-05 -3.68042e-24)
(0.017045 0.000272457 -1.35826e-25)
(0.0169535 0.000247417 1.57397e-24)
(0.0168725 0.000223201 -2.97496e-24)
(0.0168037 0.000199658 -1.46621e-24)
(0.0167464 0.000176648 1.64669e-23)
(0.0166991 0.000154006 -2.43601e-24)
(0.0166599 0.000131588 -2.91019e-23)
(0.0166271 0.000109349 3.3878e-23)
(0.0165989 8.73902e-05 -7.61033e-24)
(0.016574 6.59485e-05 -2.63202e-23)
(0.0165513 4.53599e-05 2.81084e-23)
(0.01653 2.59793e-05 1.52483e-23)
(0.0165098 8.15692e-06 -1.27223e-23)
(0.0164901 -7.88762e-06 -2.22343e-23)
(0.0164716 -2.20054e-05 1.87251e-24)
(0.0188682 0.00029742 2.73936e-26)
(0.0188064 0.000275578 -1.82407e-24)
(0.0187495 0.000252827 8.25912e-24)
(0.0186994 0.000229649 3.99425e-25)
(0.0186564 0.000206421 4.48657e-24)
(0.0186197 0.00018336 -1.62981e-23)
(0.0185883 0.000160608 1.38284e-23)
(0.018561 0.000138325 3.12505e-24)
(0.0185368 0.00011673 2.83844e-23)
(0.0185148 9.60758e-05 -4.38442e-23)
(0.0184945 7.66316e-05 -1.9891e-23)
(0.0184753 5.86158e-05 -1.3231e-23)
(0.0184571 4.22075e-05 2.48441e-23)
(0.0184394 2.74715e-05 -7.27547e-25)
(0.0184229 1.44352e-05 2.4265e-24)
(0.0207413 0.000316863 -4.55228e-27)
(0.0206973 0.000298041 1.97961e-24)
(0.0206561 0.00027705 -2.86387e-24)
(0.0206193 0.000254782 1.95554e-26)
(0.0205872 0.000232021 3.38062e-24)
(0.0205592 0.000209283 8.50355e-24)
(0.0205346 0.000186913 -3.29817e-23)
(0.0205127 0.000165195 2.81509e-24)
(0.0204928 0.000144396 1.67149e-23)
(0.0204743 0.000124744 -7.70799e-24)
(0.0204571 0.000106431 2.10455e-23)
(0.0204407 8.95712e-05 1.48183e-23)
(0.0204251 7.4237e-05 -2.6862e-23)
(0.02041 6.04099e-05 1.84933e-23)
(0.0203959 4.80581e-05 -1.53802e-23)
(0.0226562 0.000333681 -3.10011e-25)
(0.0226229 0.000317679 -3.50375e-25)
(0.0225914 0.000298468 3.58324e-24)
(0.0225629 0.000277263 -1.67432e-23)
(0.0225378 0.000255219 1.46173e-23)
(0.0225155 0.0002331 -1.02616e-23)
(0.0224957 0.000211391 7.40393e-24)
(0.0224775 0.000190434 -5.17476e-23)
(0.0224609 0.0001705 7.47092e-23)
(0.0224454 0.000151772 -4.39877e-23)
(0.0224308 0.000134375 3.93061e-23)
(0.0224168 0.000118355 3.30222e-23)
(0.0224037 0.00010372 -5.77257e-23)
(0.0223908 9.04166e-05 1.88287e-23)
(0.0223789 7.83837e-05 -7.93735e-25)
(0.0245563 0.000348288 -1.26381e-26)
(0.0245326 0.000335013 -1.33778e-24)
(0.0245093 0.000317773 1.38384e-24)
(0.0244877 0.000297974 -4.7263e-25)
(0.0244683 0.000277018 6.18772e-24)
(0.0244507 0.000255824 -1.04638e-23)
(0.0244347 0.00023497 9.52857e-24)
(0.0244199 0.000214844 -2.97717e-23)
(0.0244062 0.000195713 6.75158e-23)
(0.0243931 0.00017773 -8.62547e-23)
(0.0243809 0.000160978 7.06384e-23)
(0.0243691 0.000145466 -2.38608e-23)
(0.024358 0.000131174 1.25404e-24)
(0.0243472 0.000118038 5.53103e-24)
(0.0243371 0.000105989 -1.05756e-23)
(0.0263533 0.00035935 -1.07466e-24)
(0.0263388 0.000349027 6.07097e-25)
(0.0263234 0.000333883 1.37214e-24)
(0.0263085 0.000315809 -3.28134e-24)
(0.0262947 0.00029636 1.11679e-23)
(0.0262819 0.000276445 -1.09305e-23)
(0.0262699 0.000256673 -9.06397e-24)
(0.0262586 0.00023747 -2.14429e-23)
(0.026248 0.000219116 1.13132e-23)
(0.0262378 0.000201755 5.20081e-23)
(0.0262281 0.000185451 -2.738e-23)
(0.0262187 0.000170206 1.62714e-23)
(0.0262099 0.000155995 -6.69235e-24)
(0.0262011 0.00014276 -1.98789e-23)
(0.026193 0.00013044 1.01807e-23)
(0.0279301 0.000363939 2.95991e-25)
(0.0279247 0.000357997 -4.33438e-25)
(0.0279168 0.000346405 1.94267e-24)
(0.0279077 0.000330267 -7.18759e-24)
(0.0278991 0.000312574 -2.09006e-24)
(0.0278907 0.000294143 1.97549e-23)
(0.0278828 0.000275582 -1.47287e-23)
(0.0278751 0.000257343 -8.42936e-24)
(0.0278677 0.00023972 7.93929e-24)
(0.0278606 0.000222865 -8.76159e-24)
(0.0278537 0.000206844 2.05195e-23)
(0.0278469 0.000191667 1.02118e-23)
(0.0278404 0.00017732 -3.82107e-23)
(0.027834 0.00016376 2.63365e-23)
(0.0278279 0.000150944 -5.35972e-24)
(0.0291247 0.000365794 9.00601e-25)
(0.0291242 0.000361882 6.22019e-25)
(0.0291227 0.000353436 -1.97261e-24)
(0.0291202 0.000339725 2.88303e-24)
(0.0291174 0.000323971 -4.08984e-24)
(0.0291141 0.000307119 -8.3307e-24)
(0.0291106 0.000289856 -8.56435e-24)
(0.029107 0.000272654 2.31688e-23)
(0.0291033 0.000255804 2.13447e-23)
(0.0290996 0.00023946 -5.1196e-23)
(0.0290959 0.000223701 2.87684e-23)
(0.029092 0.000208553 -1.96427e-24)
(0.0290882 0.000194018 -1.57619e-24)
(0.0290843 0.000180074 2.10543e-24)
(0.0290806 0.000166695 -9.65193e-25)
(0.0297099 0.000361395 -2.5521e-24)
(0.0297172 0.000358642 -3.92607e-24)
(0.0297226 0.000350716 4.3363e-24)
(0.029727 0.000339315 3.51161e-24)
(0.0297304 0.000325669 -4.1364e-25)
(0.0297328 0.000310671 2.78435e-24)
(0.0297345 0.000294982 -2.25288e-24)
(0.0297357 0.000279039 -1.68749e-23)
(0.0297365 0.000263118 3.81549e-23)
(0.0297369 0.000247381 -1.57569e-23)
(0.029737 0.000231934 6.31168e-24)
(0.0297368 0.000216833 -1.09854e-23)
(0.0297365 0.000202109 -1.12376e-23)
(0.0297359 0.000187764 1.64666e-23)
(0.0297352 0.000173796 -7.06069e-24)
(0.0294974 0.000349466 3.8907e-24)
(0.0295093 0.00034846 -8.47277e-24)
(0.0295193 0.000342611 1.80993e-24)
(0.029528 0.000333203 8.03957e-24)
(0.0295354 0.000321337 -6.248e-24)
(0.0295419 0.000307918 5.16798e-25)
(0.0295475 0.000293579 -4.56199e-24)
(0.0295525 0.000278715 1.15467e-23)
(0.0295569 0.000263572 4.61723e-24)
(0.0295608 0.000248319 -8.69164e-24)
(0.0295643 0.000233075 -5.10215e-24)
(0.0295673 0.00021792 6.22528e-24)
(0.02957 0.000202906 -6.76654e-24)
(0.0295724 0.000188059 3.97797e-24)
(0.0295745 0.000173396 -1.74665e-24)
(0.0285167 0.000330964 2.33889e-24)
(0.0285382 0.0003306 -4.81205e-24)
(0.028557 0.000325722 -2.83508e-24)
(0.0285734 0.000317591 1.33127e-23)
(0.0285879 0.000307192 -1.1248e-23)
(0.0286008 0.000295258 1.55999e-24)
(0.0286122 0.00028229 1.51978e-24)
(0.0286224 0.000268614 2.94004e-25)
(0.0286315 0.000254451 -8.74581e-25)
(0.0286396 0.000239962 7.10807e-24)
(0.0286468 0.000225269 -4.27207e-24)
(0.0286533 0.000210459 1.05971e-24)
(0.028659 0.000195597 -9.49019e-24)
(0.0286642 0.000180725 4.63823e-24)
(0.0286688 0.000165874 1.66118e-24)
(0.0269252 0.000305406 5.72627e-24)
(0.0269498 0.000304934 -1.00873e-23)
(0.0269724 0.000300548 2.08562e-24)
(0.026993 0.000293376 -4.4652e-24)
(0.027012 0.000284203 -5.25875e-24)
(0.0270294 0.000273569 1.85714e-23)
(0.0270454 0.000261864 -6.72888e-24)
(0.0270601 0.000249363 1.60709e-24)
(0.0270737 0.000236266 -7.48793e-25)
(0.0270862 0.00022272 -4.58671e-25)
(0.0270977 0.00020884 -2.94245e-26)
(0.0271083 0.000194714 1.41842e-24)
(0.0271181 0.00018041 7.00008e-26)
(0.0271272 0.000165978 -1.07833e-24)
(0.0271355 0.000151459 2.05447e-25)
(0.0250114 0.000279693 2.18695e-24)
(0.0250407 0.000278899 -1.12772e-23)
(0.0250682 0.000274809 1.94991e-23)
(0.0250937 0.000268306 -1.48118e-23)
(0.0251174 0.000260002 1.45709e-23)
(0.0251395 0.000250315 -4.93584e-24)
(0.02516 0.000239561 -3.33975e-24)
(0.0251791 0.000227973 -3.3954e-24)
(0.0251969 0.000215727 5.30769e-24)
(0.0252135 0.000202958 -8.13547e-25)
(0.025229 0.000189773 -4.26967e-24)
(0.0252434 0.000176259 -1.0226e-25)
(0.0252567 0.000162485 2.52526e-25)
(0.0252692 0.000148507 1.05967e-25)
(0.0252808 0.00013437 -6.09244e-26)
(0.0229199 0.000251431 2.90227e-25)
(0.0229549 0.000250219 -4.2733e-24)
(0.0229881 0.000246248 -2.43923e-24)
(0.0230191 0.000240191 1.97483e-23)
(0.0230482 0.000232529 -1.9478e-23)
(0.0230755 0.000223596 5.70551e-24)
(0.023101 0.000213646 9.60848e-25)
(0.0231249 0.000202877 -4.9831e-25)
(0.0231472 0.000191442 -2.25802e-24)
(0.0231682 0.000179466 9.48851e-24)
(0.0231877 0.000167046 -7.43007e-24)
(0.0232061 0.000154266 -2.05511e-25)
(0.0232231 0.000141193 5.25544e-25)
(0.023239 0.000127885 1.23369e-25)
(0.0232537 0.000114391 -5.64632e-26)
(0.0207651 0.000220448 4.32166e-25)
(0.0208058 0.000218828 4.00718e-24)
(0.0208444 0.000214934 -4.58854e-24)
(0.0208808 0.000209276 -3.26474e-24)
(0.020915 0.000202226 2.10076e-23)
(0.0209472 0.000194046 -1.60713e-23)
(0.0209774 0.000184942 -3.54283e-25)
(0.0210057 0.000175078 -3.38912e-24)
(0.0210323 0.000164588 -2.63385e-25)
(0.0210572 0.000153577 5.02909e-25)
(0.0210805 0.000142137 -1.68998e-24)
(0.0211022 0.00013034 1.49888e-24)
(0.0211224 0.000118252 5.64522e-25)
(0.0211411 0.000105928 4.60727e-25)
(0.0211584 9.34187e-05 2.95439e-25)
(0.0186262 0.000187992 3.08665e-24)
(0.0186714 0.000186095 -4.75932e-24)
(0.0187143 0.000182363 -3.96513e-24)
(0.0187548 0.000177181 1.21202e-23)
(0.018793 0.000170823 -4.33907e-24)
(0.018829 0.000163493 -6.32635e-24)
(0.0188628 0.000155354 2.19805e-24)
(0.0188945 0.000146541 5.0798e-24)
(0.0189242 0.000137163 -8.15237e-24)
(0.0189519 0.000127313 8.09634e-24)
(0.0189778 0.000117066 -4.3046e-24)
(0.0190018 0.00010649 1.80719e-24)
(0.0190239 9.56447e-05 -2.19195e-24)
(0.0190443 8.45833e-05 2.06109e-24)
(0.0190629 7.33571e-05 -4.40132e-25)
(0.016552 0.000155716 -6.00668e-25)
(0.0165999 0.000153739 -2.13766e-24)
(0.0166453 0.000150313 -6.96517e-24)
(0.0166882 0.000145727 1.94659e-23)
(0.0167287 0.000140173 -3.40769e-24)
(0.0167668 0.000133803 -5.6391e-24)
(0.0168025 0.000126747 2.04141e-24)
(0.016836 0.000119111 -2.94533e-24)
(0.0168673 0.000110985 -6.5411e-24)
(0.0168963 0.000102446 6.29259e-24)
(0.0169233 9.35602e-05 3.0303e-25)
(0.0169481 8.4387e-05 -2.00066e-24)
(0.0169707 7.49822e-05 2.28353e-24)
(0.0169913 6.53963e-05 1.19291e-25)
(0.0170098 5.56768e-05 -1.54548e-25)
(0.0145705 0.000125234 2.31752e-24)
(0.0146188 0.000123364 3.52636e-24)
(0.0146647 0.000120381 -3.18185e-24)
(0.014708 0.000116495 -7.31343e-24)
(0.0147489 0.000111826 1.0046e-23)
(0.0147874 0.000106489 -1.12006e-23)
(0.0148234 0.000100585 -5.55878e-25)
(0.014857 9.4198e-05 4.44194e-24)
(0.0148882 8.74013e-05 1.58344e-24)
(0.0149171 8.02577e-05 -3.37611e-24)
(0.0149437 7.28242e-05 -2.43151e-26)
(0.0149679 6.51534e-05 6.93908e-24)
(0.0149898 5.72944e-05 -2.66151e-24)
(0.0150093 4.92925e-05 -6.58205e-25)
(0.0150265 4.11905e-05 -3.84465e-26)
(0.0126965 9.77801e-05 -2.413e-24)
(0.0127434 9.61537e-05 3.1183e-24)
(0.0127879 9.37036e-05 3.76933e-25)
(0.0128299 9.05618e-05 6.70657e-24)
(0.0128696 8.67992e-05 -5.39637e-24)
(0.0129068 8.25037e-05 5.08138e-25)
(0.0129416 7.77533e-05 -5.56953e-25)
(0.012974 7.2614e-05 -1.80728e-24)
(0.0130039 6.71426e-05 1.66837e-24)
(0.0130315 6.13905e-05 -5.38144e-24)
(0.0130565 5.54054e-05 3.50548e-25)
(0.0130792 4.92315e-05 1.29997e-24)
(0.0130994 4.29106e-05 8.19487e-25)
(0.0131172 3.64817e-05 3.19046e-25)
(0.0131324 2.9982e-05 1.08442e-25)
(0.0109384 7.40685e-05 1.79099e-24)
(0.0109822 7.27577e-05 -1.4083e-24)
(0.0110238 7.0864e-05 -6.47516e-24)
(0.0110632 6.84462e-05 6.08698e-24)
(0.0111003 6.55471e-05 8.86919e-24)
(0.0111351 6.22354e-05 -2.10606e-24)
(0.0111676 5.85698e-05 -4.63619e-24)
(0.0111978 5.45997e-05 -6.79711e-24)
(0.0112256 5.03686e-05 5.17438e-24)
(0.011251 4.59177e-05 3.23947e-25)
(0.011274 4.12848e-05 -1.20271e-24)
(0.0112945 3.65061e-05 -3.31619e-25)
(0.0113126 3.16156e-05 6.78789e-25)
(0.0113283 2.66457e-05 -2.7855e-26)
(0.0113414 2.16272e-05 -1.25727e-25)
(0.00930047 5.43326e-05 -1.12916e-24)
(0.00934004 5.33516e-05 -8.43111e-25)
(0.00937774 5.19774e-05 9.77562e-25)
(0.0094135 5.02088e-05 -3.32522e-24)
(0.00944723 4.80784e-05 1.09728e-23)
(0.00947888 4.5639e-05 -1.4853e-23)
(0.00950839 4.29323e-05 1.48454e-23)
(0.00953573 3.9994e-05 -6.36069e-24)
(0.00956085 3.6857e-05 1.50907e-24)
(0.00958371 3.35525e-05 5.04895e-26)
(0.00960428 3.01099e-05 -1.1877e-24)
(0.00962254 2.65573e-05 4.146e-25)
(0.00963845 2.29213e-05 -9.28775e-25)
(0.00965203 1.92278e-05 -1.19475e-25)
(0.00966323 1.55009e-05 5.90428e-26)
(0.00778445 3.84496e-05 -5.49483e-25)
(0.00781915 3.77692e-05 1.32698e-25)
(0.00785234 3.68357e-05 3.09482e-25)
(0.00788389 3.5609e-05 -1.5107e-24)
(0.00791371 3.41214e-05 -7.30136e-25)
(0.00794173 3.24106e-05 6.09156e-24)
(0.00796787 3.05043e-05 -3.61011e-24)
(0.00799207 2.84278e-05 5.4109e-25)
(0.00801428 2.62047e-05 -5.19653e-25)
(0.00803445 2.3858e-05 -5.81166e-25)
(0.00805254 2.14093e-05 -1.7726e-25)
(0.00806853 1.88796e-05 1.12317e-24)
(0.00808237 1.62888e-05 2.78694e-25)
(0.00809408 1.36568e-05 -6.67209e-25)
(0.00810361 1.10014e-05 -9.828e-26)
(0.00639019 2.60759e-05 -2.00067e-25)
(0.00641969 2.56414e-05 -7.13072e-26)
(0.00644806 2.5051e-05 -3.35654e-24)
(0.00647512 2.42487e-05 8.29643e-25)
(0.00650077 2.3268e-05 -2.57321e-24)
(0.00652492 2.21323e-05 1.67866e-24)
(0.00654749 2.08594e-05 3.39033e-24)
(0.00656842 1.94663e-05 2.64514e-24)
(0.00658763 1.79692e-05 -3.75204e-24)
(0.00660508 1.63841e-05 1.1357e-24)
(0.00662073 1.47261e-05 9.95051e-25)
(0.00663453 1.30102e-05 -1.43714e-24)
(0.00664646 1.12507e-05 7.68152e-25)
(0.00665651 9.46217e-06 -4.90724e-26)
(0.00666466 7.65703e-06 1.84026e-25)
(0.00511558 1.67588e-05 -7.8438e-25)
(0.00513984 1.65062e-05 -1.10949e-24)
(0.00516331 1.61622e-05 -2.40359e-25)
(0.00518579 1.56731e-05 2.78778e-24)
(0.00520717 1.50695e-05 -2.03398e-24)
(0.00522737 1.43637e-05 -4.36042e-25)
(0.0052463 1.35663e-05 3.39426e-24)
(0.0052639 1.26882e-05 3.93779e-26)
(0.0052801 1.17399e-05 -6.93633e-25)
(0.00529484 1.07319e-05 -2.67113e-24)
(0.00530808 9.67407e-06 2.81069e-25)
(0.00531978 8.57661e-06 1.86586e-24)
(0.00532992 7.44897e-06 -2.41758e-25)
(0.00533848 6.30155e-06 -2.47889e-25)
(0.00534543 5.14267e-06 1.61562e-25)
(0.00395682 1.00109e-05 -1.71573e-25)
(0.00397595 9.87917e-06 7.18128e-27)
(0.0039946 9.69844e-06 1.32902e-24)
(0.00401253 9.42637e-06 9.32869e-25)
(0.00402967 9.08673e-06 -5.96236e-25)
(0.00404592 8.684e-06 -1.58308e-24)
(0.00406122 8.22438e-06 6.6593e-25)
(0.00407548 7.71422e-06 -2.84458e-24)
(0.00408867 7.15974e-06 2.19947e-24)
(0.00410071 6.56733e-06 1.16595e-24)
(0.00411157 5.94307e-06 6.09476e-27)
(0.00412121 5.29331e-06 -1.28682e-24)
(0.0041296 4.62388e-06 2.32571e-25)
(0.00413673 3.94168e-06 -1.709e-25)
(0.00414258 3.25229e-06 8.31762e-26)
(0.00290858 5.35641e-06 -3.16116e-25)
(0.00292284 5.29433e-06 8.58523e-28)
(0.00293684 5.21142e-06 1.06253e-24)
(0.00295036 5.07849e-06 -6.6647e-25)
(0.00296334 4.91007e-06 2.86151e-24)
(0.00297572 4.70678e-06 -5.25624e-24)
(0.00298743 4.47185e-06 4.37118e-24)
(0.00299839 4.20856e-06 -3.71629e-24)
(0.00300857 3.92024e-06 2.71574e-24)
(0.00301792 3.61038e-06 -1.77026e-24)
(0.00302639 3.28228e-06 6.13007e-25)
(0.00303396 2.93951e-06 8.98447e-26)
(0.0030406 2.58529e-06 1.4151e-25)
(0.00304629 2.22377e-06 -1.73007e-25)
(0.00305102 1.85879e-06 3.44348e-26)
(0.00196443 2.3706e-06 4.79938e-25)
(0.00197413 2.34181e-06 5.36509e-25)
(0.00198373 2.31015e-06 -2.27995e-24)
(0.00199304 2.25712e-06 1.68975e-24)
(0.00200204 2.18884e-06 -8.49466e-27)
(0.00201066 2.1048e-06 4.67879e-25)
(0.00201885 2.00642e-06 -5.55048e-25)
(0.00202657 1.89511e-06 -1.21425e-24)
(0.00203377 1.77236e-06 1.21697e-24)
(0.00204043 1.63977e-06 1.35776e-25)
(0.00204649 1.49883e-06 -1.00313e-24)
(0.00205195 1.35121e-06 3.60923e-25)
(0.00205678 1.19835e-06 2.14999e-25)
(0.00206097 1.04239e-06 -2.60923e-26)
(0.0020645 8.85837e-07 -2.32197e-26)
(0.00111717 7.21819e-07 -4.84575e-25)
(0.00112267 7.15029e-07 1.49935e-24)
(0.00112816 7.12029e-07 9.34877e-25)
(0.00113352 7.01986e-07 -1.64309e-24)
(0.00113873 6.8622e-07 -1.94653e-25)
(0.00114375 6.64631e-07 -1.80104e-25)
(0.00114855 6.378e-07 5.66445e-25)
(0.0011531 6.06277e-07 -9.66352e-25)
(0.00115738 5.70587e-07 1.3428e-24)
(0.00116135 5.31303e-07 -6.57668e-25)
(0.001165 4.88901e-07 -4.37628e-25)
(0.00116831 4.43952e-07 2.65809e-25)
(0.00117127 3.96803e-07 -3.12889e-25)
(0.00117386 3.48143e-07 3.1068e-25)
(0.00117608 2.99192e-07 -5.05133e-26)
(0.000359174 1.24123e-07 -3.46113e-27)
(0.000360865 1.54309e-07 2.93131e-25)
(0.00036258 1.79745e-07 3.47233e-25)
(0.000364269 1.97948e-07 -5.34099e-25)
(0.000365931 2.09842e-07 1.15884e-24)
(0.000367551 2.16024e-07 -1.25443e-24)
(0.000369116 2.17023e-07 8.58112e-26)
(0.000370613 2.13211e-07 7.34974e-25)
(0.000372032 2.04842e-07 -1.01678e-24)
(0.000373363 1.92107e-07 -1.92087e-25)
(0.000374598 1.75116e-07 7.25319e-25)
(0.00037573 1.53977e-07 -3.2147e-25)
(0.000376753 1.28694e-07 -1.18241e-25)
(0.000377663 9.93403e-08 9.84396e-26)
(0.000378455 6.62207e-08 -4.19766e-27)
(0.000916906 -0.000255289 1.00325e-25)
(0.0010458 -0.000185876 2.67027e-24)
(0.00126221 -0.000112474 -7.82416e-24)
(0.00148225 -5.24222e-05 1.1664e-23)
(0.00169214 -3.78954e-06 -4.37995e-24)
(0.00189721 3.44711e-05 -4.41003e-24)
(0.00209798 6.49197e-05 5.09732e-24)
(0.00229565 8.96102e-05 -1.0265e-23)
(0.00249146 0.000110181 5.79222e-25)
(0.00268637 0.000127912 6.57626e-24)
(0.00288115 0.000143822 -1.27596e-24)
(0.00307641 0.00015881 1.3977e-24)
(0.00327276 0.000173715 -1.26512e-25)
(0.00347096 0.000189391 9.27373e-25)
(0.00367202 0.000206667 -3.42386e-24)
(0.00387749 0.000226091 1.89671e-24)
(0.00408994 0.000248021 -6.43272e-25)
(0.00431274 0.000272616 1.90087e-26)
(0.00455062 0.000298861 1.63665e-24)
(0.00480961 0.000323951 -1.04209e-24)
(0.00509737 0.000341821 1.3553e-25)
(0.00541973 0.000342113 -1.18952e-25)
(0.00575216 0.000309947 2.21943e-25)
(0.00605007 0.000243515 8.32551e-25)
(0.00629798 0.000149895 -1.49763e-24)
(0.00649543 3.64317e-05 -9.84227e-25)
(0.0066435 -9.04067e-05 4.54319e-26)
(0.00674388 -0.000226098 2.43506e-24)
(0.00679834 -0.000366903 3.36434e-24)
(0.00680825 -0.000508763 -6.61859e-24)
(0.00677449 -0.000647038 5.71097e-24)
(0.00669779 -0.000776448 -5.29404e-24)
(0.00657901 -0.000891053 1.41212e-24)
(0.00641939 -0.000984303 -4.66191e-26)
(0.00622061 -0.00104908 -2.65824e-26)
(0.00598472 -0.00107763 5.65699e-24)
(0.005714 -0.00106127 -8.48691e-25)
(0.00541087 -0.000989665 2.33418e-24)
(0.00507793 -0.000849395 1.52462e-24)
(0.00471846 -0.000622124 -1.11519e-23)
(0.00433592 -0.000284854 -1.4275e-25)
(0.00393548 0.000181527 5.21027e-24)
(0.00350742 0.000758611 1.93915e-24)
(0.00307132 0.00134641 -7.56225e-24)
(0.00282416 0.00160199 -3.99242e-25)
(0.00171879 -0.000333603 -2.99832e-24)
(0.00177013 -0.000296718 -4.40895e-24)
(0.00189984 -0.000225654 9.14659e-24)
(0.00206401 -0.000157969 4.50486e-24)
(0.00223787 -9.89645e-05 -1.57884e-23)
(0.00241721 -5.03313e-05 1.71523e-23)
(0.00259843 -1.05865e-05 -6.18856e-24)
(0.00278037 2.22192e-05 5.11585e-24)
(0.00296294 4.98506e-05 -6.75148e-24)
(0.00314635 7.37458e-05 6.81188e-26)
(0.00333094 9.5077e-05 -3.72086e-24)
(0.0035171 0.000114852 7.40759e-24)
(0.0037053 0.000133976 -4.14977e-24)
(0.00389622 0.00015334 -3.89945e-24)
(0.00409078 0.000173776 -2.80093e-24)
(0.00429046 0.000195796 5.01911e-24)
(0.00449775 0.000219726 -7.26533e-25)
(0.00471584 0.000245721 2.94113e-24)
(0.00494921 0.000272746 5.54004e-25)
(0.00520356 0.000298008 -9.30032e-25)
(0.00548623 0.000315651 -4.10166e-25)
(0.00580288 0.000315761 -2.51614e-25)
(0.0061299 0.000284199 1.20757e-24)
(0.00642397 0.000219674 1.41907e-24)
(0.00666987 0.000129148 -1.31884e-24)
(0.00686695 1.97684e-05 -6.06557e-24)
(0.00701598 -0.000102071 8.09319e-24)
(0.00711833 -0.000231827 -5.58314e-24)
(0.00717558 -0.000365713 1.86808e-24)
(0.00718909 -0.000499587 -1.12687e-24)
(0.00715992 -0.00062873 8.4131e-24)
(0.00708905 -0.000747826 -1.11221e-23)
(0.00697774 -0.000850952 5.5017e-24)
(0.00682776 -0.000931618 -1.12442e-24)
(0.00664144 -0.000982788 -2.69682e-24)
(0.00642177 -0.000996797 1.06969e-24)
(0.00617238 -0.000965072 1.15212e-23)
(0.00589771 -0.000877495 -2.60072e-24)
(0.00560356 -0.000721232 -1.03953e-23)
(0.00529856 -0.000479052 -6.90871e-24)
(0.00499597 -0.000129372 1.58113e-23)
(0.0047186 0.000346153 -1.58804e-23)
(0.00449247 0.000928676 -4.27782e-24)
(0.0043613 0.00150484 1.07197e-23)
(0.00438267 0.00169425 3.94374e-24)
(0.00266218 -0.000338944 -3.56972e-26)
(0.00266646 -0.000340466 -5.11202e-24)
(0.0027169 -0.000299878 9.75651e-24)
(0.00281626 -0.000242021 8.66388e-24)
(0.00294055 -0.000183367 -1.40108e-23)
(0.00308138 -0.000130354 2.71267e-25)
(0.00323218 -8.46542e-05 1.40731e-24)
(0.00338937 -4.56013e-05 1.56739e-23)
(0.00355114 -1.19702e-05 -1.86121e-23)
(0.00371663 1.74781e-05 1.16527e-23)
(0.00388548 4.38735e-05 3.66853e-24)
(0.00405765 6.82287e-05 -1.98606e-23)
(0.00423336 9.14531e-05 7.1915e-24)
(0.00441312 0.000114438 2.96643e-24)
(0.0045977 0.000138004 -6.41735e-24)
(0.00478845 0.000162601 1.06824e-23)
(0.00498775 0.000188518 -7.75922e-24)
(0.00519861 0.000215904 -2.71715e-25)
(0.00542522 0.000243706 5.74946e-25)
(0.00567289 0.000269136 7.04237e-25)
(0.00594863 0.000286547 8.71849e-26)
(0.00625784 0.000286469 4.45811e-25)
(0.00657789 0.000255513 -1.21661e-24)
(0.00686679 0.000192929 3.5851e-24)
(0.00710959 0.000105564 -5.56095e-24)
(0.00730544 3.65519e-07 3.17956e-24)
(0.00745476 -0.000116311 -7.12531e-24)
(0.00755859 -0.000239914 9.58771e-24)
(0.00761831 -0.000366611 -8.62329e-24)
(0.00763531 -0.000492184 5.13367e-25)
(0.0076108 -0.000611837 2.15209e-25)
(0.00754608 -0.00072023 1.30377e-23)
(0.00744284 -0.000811482 -4.17257e-24)
(0.00730341 -0.000879216 -4.34297e-25)
(0.00713087 -0.000916587 -3.37181e-24)
(0.0069292 -0.000916224 1.1065e-23)
(0.00670343 -0.000870028 -8.78619e-24)
(0.00646006 -0.000768759 1.64785e-23)
(0.00620792 -0.000601361 -3.25411e-23)
(0.00596018 -0.000354137 1.26279e-23)
(0.00573703 -1.17613e-05 4.67081e-24)
(0.00557042 0.000434886 7.95324e-24)
(0.00549796 0.000958158 -9.92807e-24)
(0.00554789 0.00144265 3.24375e-24)
(0.00570534 0.00158956 -2.05712e-24)
(0.00373219 -0.000318769 -1.29781e-24)
(0.00370849 -0.00034436 -2.04106e-24)
(0.00371124 -0.000330297 -8.82285e-24)
(0.00374839 -0.000295091 2.19574e-24)
(0.00381904 -0.000246829 1.48334e-24)
(0.00391321 -0.000197135 7.29902e-24)
(0.00402444 -0.000150728 -1.58321e-23)
(0.00414811 -0.000108882 5.92282e-24)
(0.00428111 -7.15232e-05 2.06041e-23)
(0.00442148 -3.80331e-05 -5.42652e-24)
(0.00456814 -7.60407e-06 -5.21988e-24)
(0.00472052 2.06102e-05 -8.4691e-25)
(0.00487848 4.74166e-05 2.8544e-24)
(0.00504228 7.36413e-05 -5.66964e-24)
(0.00521252 0.000100052 1.2679e-24)
(0.00539038 0.000127 -5.69678e-25)
(0.0055781 0.000154712 -3.20398e-24)
(0.00577849 0.000183335 1.00597e-24)
(0.00599539 0.000211789 5.81549e-24)
(0.00623376 0.000237281 -6.32659e-25)
(0.00650018 0.000254379 -1.39498e-24)
(0.00679974 0.000254062 -3.9232e-25)
(0.00711082 0.000223711 -2.15e-24)
(0.00739283 0.000163134 -7.00259e-26)
(0.00763107 7.90515e-05 -4.88517e-24)
(0.00782442 -2.1793e-05 8.52109e-24)
(0.00797299 -0.000133071 -7.17031e-24)
(0.00807748 -0.000250213 1.37565e-23)
(0.00813909 -0.000369362 -1.17025e-23)
(0.00815921 -0.000486245 2.66246e-24)
(0.00813924 -0.000596015 4.80479e-24)
(0.00808084 -0.000693352 -1.68144e-25)
(0.00798617 -0.000772486 -3.69168e-25)
(0.00785815 -0.000827257 -5.03357e-25)
(0.00770061 -0.00085118 -3.45874e-26)
(0.00751853 -0.000837445 -3.92284e-24)
(0.00731824 -0.000778856 2.07911e-23)
(0.00710801 -0.000667713 -1.08181e-23)
(0.00689889 -0.000495765 1.72149e-26)
(0.00670657 -0.000254425 -3.1072e-23)
(0.00655334 6.3157e-05 2.38218e-23)
(0.00647031 0.000455242 -9.57135e-24)
(0.00649031 0.00089012 1.65298e-24)
(0.00662406 0.00127643 1.33689e-23)
(0.00683901 0.00143665 -3.63449e-24)
(0.00492531 -0.000287928 -5.40062e-24)
(0.00489087 -0.000323032 1.11154e-23)
(0.00486495 -0.000327656 3.27154e-24)
(0.00486228 -0.000313182 1.41851e-23)
(0.00488259 -0.000283064 -3.48761e-23)
(0.00492941 -0.000243195 -1.14568e-24)