/*--------------------------------*- C++ -*----------------------------------*\
| =========                 |                                                 |
| \\      /  F ield         | OpenFOAM: The Open Source CFD Toolbox           |
|  \\    /   O peration     | Version:  2312                                  |
|   \\  /    A nd           | Website:  www.openfoam.com                      |
|    \\/     M anipulation  |                                                 |
\*---------------------------------------------------------------------------*/
FoamFile
{
    version     2.0;
    format      ascii;
    arch        "LSB;label=32;scalar=64";
    class       volVectorField;
    location    "163";
    object      U;
}
// * * * * * * * * * * * * * * * * * * * * * * * * * * * * * * * * * * * * * //

dimensions      [0 1 -1 0 0 0 0];

internalField   nonuniform List<vector> 
4800
(
(0.000495322 3.25201e-07 -3.19106e-26)
(0.000487326 3.86209e-07 -2.26801e-25)
(0.000482217 4.24407e-07 2.90402e-25)
(0.000479098 4.3576e-07 1.35535e-25)
(0.000477473 4.319e-07 2.02485e-24)
(0.000477018 4.10248e-07 -4.83261e-24)
(0.000477703 3.56499e-07 4.54334e-24)
(0.000479357 2.84033e-07 -6.63664e-24)
(0.000482045 1.28649e-07 2.12086e-24)
(0.000485971 -1.71102e-07 7.30501e-24)
(0.000491602 -7.42838e-07 -2.24983e-24)
(0.000500252 -2.2492e-06 -1.87447e-25)
(0.000519387 -7.72705e-06 -2.75997e-24)
(0.000568005 -2.99973e-05 1.27004e-24)
(0.000649333 -9.89965e-05 -1.00551e-24)
(0.00152975 1.67018e-06 -1.01647e-25)
(0.0015048 1.27286e-06 1.26752e-25)
(0.00148847 9.47728e-07 -1.19101e-24)
(0.00147811 6.37983e-07 8.85257e-25)
(0.00147223 3.26975e-07 2.90563e-24)
(0.00146985 -2.45698e-08 -4.63128e-24)
(0.0014708 -4.74895e-07 -1.34148e-24)
(0.00147445 -1.05061e-06 -3.36803e-25)
(0.00148112 -1.92407e-06 1.10549e-23)
(0.0014913 -3.3916e-06 -8.18447e-24)
(0.00150627 -6.09252e-06 8.91263e-25)
(0.00152886 -1.23317e-05 1.36363e-24)
(0.00156823 -3.01596e-05 -2.0157e-24)
(0.00163583 -8.47101e-05 -5.95352e-25)
(0.00170935 -0.000209511 2.61924e-24)
(0.00267075 5.43047e-06 -7.28343e-26)
(0.00262719 4.15492e-06 7.4344e-26)
(0.00259815 3.14202e-06 7.79236e-25)
(0.00257921 2.2202e-06 -1.86783e-24)
(0.00256783 1.28065e-06 1.84774e-24)
(0.00256235 1.90974e-07 1.76781e-24)
(0.0025624 -1.19285e-06 -4.5372e-24)
(0.00256671 -2.94169e-06 -2.82717e-24)
(0.00257583 -5.5284e-06 6.83286e-24)
(0.00259035 -9.61439e-06 2.59844e-24)
(0.00261148 -1.67003e-05 -9.02747e-24)
(0.0026415 -3.09128e-05 -1.37381e-24)
(0.00268461 -6.22732e-05 3.86277e-24)
(0.00273968 -0.000131585 6.10614e-24)
(0.00278009 -0.000248597 -3.15224e-24)
(0.00392381 1.2254e-05 2.69312e-26)
(0.00386048 9.53587e-06 -1.8858e-25)
(0.00381747 7.38384e-06 8.49232e-25)
(0.00378866 5.43766e-06 9.27403e-25)
(0.00377051 3.46421e-06 -9.04929e-25)
(0.00376065 1.18227e-06 -5.35759e-24)
(0.00375825 -1.66916e-06 -3.63695e-24)
(0.00376176 -5.12416e-06 1.34493e-23)
(0.00377123 -1.02283e-05 5.73521e-24)
(0.00378733 -1.79958e-05 -8.25646e-24)
(0.00381024 -3.04331e-05 -3.33643e-24)
(0.00384049 -5.23058e-05 -2.55243e-24)
(0.00387722 -9.20307e-05 7.49996e-26)
(0.0039129 -0.000160529 1.89022e-24)
(0.00392793 -0.000253768 9.251e-27)
(0.00529195 2.28251e-05 -4.94007e-26)
(0.00520872 1.80084e-05 -3.04491e-25)
(0.00515107 1.41952e-05 -1.99189e-25)
(0.00511148 1.07633e-05 5.23798e-25)
(0.00508542 7.31525e-06 -1.52381e-24)
(0.00506995 3.39987e-06 3.8099e-24)
(0.00506338 -1.26089e-06 -6.65899e-25)
(0.00506453 -7.23965e-06 2.38224e-24)
(0.00507214 -1.52035e-05 -1.32179e-23)
(0.00508666 -2.69924e-05 2.5322e-23)
(0.00510706 -4.44039e-05 -2.45389e-23)
(0.00513209 -7.14047e-05 1.29774e-23)
(0.00515813 -0.00011309 -1.20712e-23)
(0.00517703 -0.000172956 1.1413e-23)
(0.0051775 -0.000243711 -4.55924e-24)
(0.00677399 3.78652e-05 6.51959e-26)
(0.00667255 3.02937e-05 2.3547e-25)
(0.0066008 2.42886e-05 -1.24953e-24)
(0.00655025 1.8906e-05 -8.11444e-25)
(0.00651566 1.35456e-05 2.14995e-24)
(0.00649359 7.60001e-06 7.83169e-25)
(0.00648168 6.14039e-07 -6.15831e-24)
(0.00647841 -7.96273e-06 1.47524e-23)
(0.00648227 -1.92525e-05 -1.92574e-23)
(0.00649236 -3.46934e-05 4.60804e-24)
(0.00650697 -5.58927e-05 1.41355e-23)
(0.00652371 -8.52382e-05 -1.96898e-23)
(0.00653845 -0.000124715 9.86224e-24)
(0.00654505 -0.000173901 1.01812e-23)
(0.00653821 -0.00022657 -7.75695e-24)
(0.00836215 5.77928e-05 5.38374e-26)
(0.00824711 4.69525e-05 -3.20224e-25)
(0.00816372 3.83052e-05 1.15786e-24)
(0.00810341 3.05663e-05 -1.61702e-24)
(0.00806066 2.2915e-05 -5.57978e-24)
(0.00803169 1.46173e-05 9.5181e-24)
(0.00801374 5.04743e-06 -5.8289e-24)
(0.00800483 -6.36809e-06 1.99642e-23)
(0.0080031 -2.06793e-05 -1.35717e-23)
(0.00800683 -3.91021e-05 -6.37976e-24)
(0.00801377 -6.25986e-05 -1.26302e-23)
(0.00802122 -9.20719e-05 1.15993e-23)
(0.00802578 -0.000127492 3.27496e-24)
(0.00802366 -0.00016702 2.82561e-24)
(0.00801299 -0.000206378 -2.48736e-24)
(0.0100397 8.22374e-05 -7.75506e-26)
(0.00991957 6.79931e-05 1.05938e-24)
(0.00982981 5.64897e-05 -2.48252e-24)
(0.00976299 4.61605e-05 -2.07892e-24)
(0.00971396 3.59943e-05 7.43844e-25)
(0.00967902 2.51684e-05 1.51516e-24)
(0.00965526 1.2978e-05 5.55485e-24)
(0.0096404 -1.17474e-06 -1.52377e-23)
(0.0096323 -1.80707e-05 -8.23029e-24)
(0.00962884 -3.85224e-05 2.24824e-23)
(0.00962767 -6.28677e-05 -7.0345e-24)
(0.00962633 -9.09914e-05 2.40709e-23)
(0.00962248 -0.00012195 -1.26875e-23)
(0.00961401 -0.000153838 -4.07541e-24)
(0.00960075 -0.000184002 2.41723e-24)
(0.0117801 0.000109436 -1.02877e-26)
(0.0116675 9.2356e-05 5.85728e-25)
(0.0115798 7.82467e-05 -8.35884e-25)
(0.0115123 6.54324e-05 2.03817e-24)
(0.0114609 5.28133e-05 -1.22494e-23)
(0.0114226 3.95424e-05 1.29619e-23)
(0.0113947 2.49351e-05 -2.06689e-23)
(0.0113748 8.46681e-06 1.26667e-23)
(0.0113609 -1.0362e-05 9.49864e-24)
(0.0113508 -3.1852e-05 2.08021e-23)
(0.0113425 -5.58873e-05 -2.71987e-23)
(0.0113339 -8.18615e-05 -5.09446e-24)
(0.0113236 -0.000108653 2.29482e-24)
(0.0113106 -0.000134795 1.68212e-23)
(0.0112953 -0.00015874 -6.85895e-24)
(0.0135512 0.000135785 5.71753e-26)
(0.0134605 0.000117396 -2.46972e-25)
(0.0133857 0.000101624 1.10966e-24)
(0.0133254 8.69539e-05 -3.92449e-24)
(0.0132776 7.23759e-05 5.98513e-24)
(0.0132402 5.71221e-05 -7.79539e-24)
(0.0132113 4.06266e-05 1.31316e-23)
(0.013189 2.2538e-05 2.36497e-24)
(0.0131713 2.64538e-06 -1.82659e-23)
(0.0131566 -1.89614e-05 2.61845e-23)
(0.0131431 -4.18834e-05 -2.89397e-23)
(0.0131295 -6.54004e-05 -8.62055e-24)
(0.0131151 -8.85606e-05 1.51318e-23)
(0.0130992 -0.000110398 4.52183e-24)
(0.0130826 -0.000130053 -1.97969e-24)
(0.0153265 0.000156334 2.38899e-25)
(0.015269 0.000138934 -1.94223e-24)
(0.0152167 0.000123124 -3.12822e-24)
(0.0151717 0.000107814 7.40374e-24)
(0.0151339 9.22755e-05 3.36794e-24)
(0.0151028 7.59429e-05 -2.11724e-23)
(0.0150772 5.84648e-05 6.47224e-24)
(0.0150559 3.97067e-05 4.69376e-24)
(0.0150377 1.9755e-05 -2.07145e-23)
(0.0150213 -1.11171e-06 2.14829e-23)
(0.0150056 -2.23692e-05 -1.74463e-23)
(0.0149898 -4.33693e-05 4.47236e-23)
(0.0149737 -6.34202e-05 -2.16107e-23)
(0.0149569 -8.19483e-05 1.27692e-23)
(0.0149401 -9.85003e-05 -3.49416e-24)
(0.0171025 0.000167049 -1.0603e-25)
(0.0170792 0.000152804 1.34688e-24)
(0.0170529 0.000138692 -2.59368e-24)
(0.0170273 0.000124222 -1.32923e-24)
(0.0170038 0.000109039 1.48489e-23)
(0.0169829 9.28525e-05 -2.09422e-24)
(0.0169643 7.55645e-05 -2.66673e-23)
(0.0169475 5.72775e-05 3.12652e-23)
(0.0169319 3.82693e-05 -6.9925e-24)
(0.0169169 1.89347e-05 -2.4541e-23)
(0.0169021 -2.19689e-07 2.62907e-23)
(0.0168869 -1.86847e-05 1.43304e-23)
(0.0168715 -3.59935e-05 -1.19217e-23)
(0.0168556 -5.18294e-05 -2.08817e-23)
(0.01684 -6.59657e-05 1.75824e-24)
(0.0189023 0.000167324 1.69983e-26)
(0.0189027 0.000157353 -1.55219e-24)
(0.0188969 0.000146045 7.18528e-24)
(0.018888 0.000133527 4.43941e-25)
(0.018878 0.000119844 4.11162e-24)
(0.0188674 0.000104953 -1.46379e-23)
(0.0188568 8.89793e-05 1.26043e-23)
(0.0188459 7.22079e-05 2.9398e-24)
(0.0188348 5.50283e-05 2.62325e-23)
(0.0188231 3.78622e-05 -4.03791e-23)
(0.0188111 2.11401e-05 -1.84088e-23)
(0.0187983 5.23435e-06 -1.22841e-23)
(0.0187853 -9.54869e-06 2.30428e-23)
(0.0187717 -2.30394e-05 -6.74503e-25)
(0.0187584 -3.51286e-05 2.25018e-24)
(0.0207537 0.000162023 -6.88058e-27)
(0.0207635 0.000155505 1.68042e-24)
(0.0207671 0.00014681 -2.43939e-24)
(0.0207672 0.000136437 8.86569e-27)
(0.0207651 0.000124725 3.00739e-24)
(0.0207613 0.000111783 7.66549e-24)
(0.0207562 9.7825e-05 -2.97635e-23)
(0.0207499 8.32143e-05 2.45952e-24)
(0.0207425 6.83766e-05 1.51808e-23)
(0.0207341 5.37012e-05 -7.0626e-24)
(0.020725 3.9531e-05 1.92585e-23)
(0.020715 2.61267e-05 1.35839e-23)
(0.0207046 1.36874e-05 -2.46176e-23)
(0.0206935 2.30549e-06 1.69344e-23)
(0.0206827 -7.96476e-06 -1.40779e-23)
(0.022649 0.000154412 -3.03597e-25)
(0.0226604 0.000151001 -2.47577e-25)
(0.0226659 0.00014489 3.09586e-24)
(0.0226682 0.000136554 -1.47135e-23)
(0.0226684 0.000126746 1.28703e-23)
(0.0226668 0.000115841 -9.18489e-24)
(0.0226637 0.000104077 6.59933e-24)
(0.0226593 9.17803e-05 -4.67305e-23)
(0.0226538 7.93463e-05 6.74647e-23)
(0.0226472 6.71149e-05 -3.98567e-23)
(0.0226398 5.53516e-05 3.56327e-23)
(0.0226316 4.42315e-05 2.9943e-23)
(0.0226231 3.38826e-05 -5.2331e-23)
(0.0226139 2.43564e-05 1.70574e-23)
(0.0226049 1.56837e-05 -7.1794e-25)
(0.0245345 0.000146352 -1.13313e-26)
(0.0245458 0.000145775 -1.15719e-24)
(0.0245514 0.000142236 1.19476e-24)
(0.0245534 0.000136134 -4.21251e-25)
(0.0245535 0.000128382 5.52278e-24)
(0.0245519 0.000119611 -9.35949e-24)
(0.024549 0.000110094 8.55384e-24)
(0.0245448 0.000100083 -2.68139e-23)
(0.0245398 8.99151e-05 6.08809e-23)
(0.0245338 7.98991e-05 -7.78381e-23)
(0.0245273 7.02586e-05 6.3751e-23)
(0.02452 6.11189e-05 -2.15316e-23)
(0.0245125 5.25638e-05 1.12308e-24)
(0.0245045 4.46229e-05 4.95527e-24)
(0.0244966 3.73181e-05 -9.49176e-24)
(0.0263227 0.000137533 -9.1672e-25)
(0.0263332 0.00014015 3.91642e-25)
(0.0263392 0.000139135 1.35581e-24)
(0.0263413 0.000135351 -3.02233e-24)
(0.0263412 0.000129885 1.02293e-23)
(0.0263395 0.00012347 -9.99762e-24)
(0.0263365 0.000116348 -8.26033e-24)
(0.0263323 0.000108669 -1.95117e-23)
(0.0263275 0.000100703 1.03259e-23)
(0.026322 9.27453e-05 4.72751e-23)
(0.026316 8.50102e-05 -2.48696e-23)
(0.0263094 7.76094e-05 1.47182e-23)
(0.0263026 7.06108e-05 -6.07835e-24)
(0.0262954 6.40385e-05 -1.78952e-23)
(0.0262883 5.79147e-05 9.14874e-24)
(0.027896 0.000127594 2.83176e-25)
(0.0279044 0.000133417 -3.45238e-25)
(0.02791 0.000135622 2.13336e-24)
(0.0279125 0.000133914 -7.35495e-24)
(0.0279126 0.000130789 -1.83374e-24)
(0.0279112 0.000126927 1.89781e-23)
(0.0279085 0.000122348 -1.41663e-23)
(0.0279047 0.00011703 -7.946e-24)
(0.0279003 0.000111236 7.52858e-24)
(0.0278953 0.000105257 -8.16562e-24)
(0.0278901 9.93028e-05 1.9144e-23)
(0.0278843 9.34909e-05 9.42019e-24)
(0.0278783 8.78964e-05 -3.52687e-23)
(0.0278719 8.25521e-05 2.42245e-23)
(0.0278655 7.7487e-05 -4.9088e-24)
(0.029085 0.000118996 7.68086e-25)
(0.0290925 0.000125836 1.02318e-25)
(0.0290968 0.000131362 -7.49474e-25)
(0.0291 0.00013267 2.9243e-24)
(0.0291002 0.000131868 -3.66942e-24)
(0.0290996 0.000130313 -6.73662e-24)
(0.029098 0.000128002 -7.41749e-24)
(0.0290953 0.000124975 2.34087e-23)
(0.0290918 0.000121069 2.16273e-23)
(0.0290879 0.000116907 -5.16779e-23)
(0.0290837 0.000112623 2.88156e-23)
(0.0290791 0.000108303 -1.95214e-24)
(0.0290742 0.000104018 -1.53759e-24)
(0.029069 9.98134e-05 2.03999e-24)
(0.0290636 9.57298e-05 -9.30507e-25)
(0.0296663 0.000107733 -1.81751e-24)
(0.0296749 0.000117639 -1.49405e-24)
(0.0296806 0.000124642 4.13705e-24)
(0.029684 0.000128634 -2.60362e-24)
(0.0296863 0.000131427 1.55799e-24)
(0.029687 0.000131214 3.62608e-24)
(0.0296867 0.000130574 -2.49465e-24)
(0.0296857 0.000129417 -1.86827e-23)
(0.0296839 0.000127509 4.60813e-23)
(0.0296817 0.000125058 -1.93515e-23)
(0.0296792 0.000122324 7.0074e-24)
(0.0296763 0.000119385 -1.25707e-23)
(0.0296731 0.000116316 -1.23239e-23)
(0.0296695 0.000113161 1.78601e-23)
(0.0296658 0.00010997 -7.57878e-24)
(0.0294583 9.74225e-05 2.57855e-24)
(0.029465 0.000108768 -4.93843e-24)
(0.0294692 0.000117185 1.66197e-24)
(0.0294725 0.000123362 -1.29723e-24)
(0.0294743 0.000127227 4.2465e-24)
(0.0294753 0.000129931 -4.6002e-24)
(0.0294756 0.00013112 -1.1904e-23)
(0.0294752 0.000131377 2.89935e-23)
(0.0294744 0.000131006 6.18482e-24)
(0.0294734 0.000130059 -1.64223e-23)
(0.029472 0.00012864 -8.1507e-24)
(0.0294704 0.000126887 9.08149e-24)
(0.0294683 0.000124875 -9.55728e-24)
(0.029466 0.000122633 5.34754e-24)
(0.0294634 0.000120199 -2.29404e-24)
(0.0284433 8.95054e-05 1.44828e-24)
(0.0284513 0.000101308 -2.6528e-24)
(0.0284579 0.000110412 -2.9822e-25)
(0.0284636 0.00011729 1.49315e-24)
(0.0284682 0.000122387 1.48605e-24)
(0.0284722 0.00012606 7.95877e-25)
(0.0284753 0.000128444 -1.27297e-24)
(0.0284779 0.000130107 -1.95956e-24)
(0.0284801 0.000130732 -3.56044e-24)
(0.0284816 0.000130495 1.84322e-23)
(0.0284825 0.00012994 -1.08214e-23)
(0.0284833 0.000129198 1.12146e-24)
(0.0284838 0.000128091 -1.82216e-23)
(0.0284842 0.000126349 9.61701e-24)
(0.0284842 0.000124348 3.03836e-24)
(0.0268666 8.24011e-05 3.35917e-24)
(0.0268727 9.38275e-05 -5.41125e-24)
(0.0268782 0.000102842 1.26234e-24)
(0.0268833 0.000109901 -4.1118e-26)
(0.026888 0.000115326 2.4948e-24)
(0.0268922 0.000119409 -4.50582e-24)
(0.0268961 0.000122365 3.71918e-24)
(0.0268995 0.00012433 -2.13061e-24)
(0.0269027 0.000125571 1.63257e-24)
(0.0269057 0.000126197 7.8301e-24)
(0.0269083 0.000126246 -1.65341e-23)
(0.0269108 0.000125803 1.25266e-23)
(0.026913 0.000124908 -1.15532e-24)
(0.0269152 0.000123553 -3.9436e-24)
(0.026917 0.000121901 6.12759e-25)
(0.0249485 7.70935e-05 1.23658e-24)
(0.0249542 8.77272e-05 -5.2898e-24)
(0.02496 9.62728e-05 7.30404e-24)
(0.0249659 0.000103087 -3.93509e-24)
(0.0249716 0.000108448 5.1511e-25)
(0.0249771 0.00011259 -1.12339e-24)
(0.0249825 0.000115694 5.43519e-26)
(0.0249878 0.000117926 1.9358e-24)
(0.0249928 0.000119422 -7.15924e-24)
(0.0249978 0.000120289 -2.5727e-24)
(0.0250025 0.000120577 1.04298e-23)
(0.0250072 0.00012033 2.91158e-24)
(0.0250117 0.000119596 -4.90345e-24)
(0.0250161 0.000118435 1.5288e-24)
(0.0250203 0.000116913 -4.32044e-25)
(0.0228377 7.24907e-05 1.60644e-25)
(0.0228443 8.19107e-05 -1.91975e-24)
(0.0228515 8.95729e-05 -2.81153e-25)
(0.0228591 9.57497e-05 4.72058e-24)
(0.0228668 0.000100671 -2.89156e-24)
(0.0228747 0.000104522 4.03879e-25)
(0.0228825 0.000107455 -1.51775e-25)
(0.0228904 0.000109586 2.11033e-25)
(0.0228982 0.000111009 2.00157e-24)
(0.022906 0.000111804 -1.10905e-23)
(0.0229137 0.000112039 9.82468e-24)
(0.0229213 0.000111765 1.14427e-24)
(0.0229288 0.000111022 -1.48594e-24)
(0.0229363 0.000109848 -2.56007e-24)
(0.0229436 0.000108289 2.14282e-24)
(0.0206503 6.70752e-05 2.37194e-25)
(0.020659 7.49987e-05 1.73167e-24)
(0.0206687 8.14958e-05 -2.05388e-24)
(0.020679 8.67642e-05 -7.39016e-25)
(0.0206896 9.0981e-05 2.45682e-24)
(0.0207005 9.42855e-05 -1.89802e-24)
(0.0207116 9.67884e-05 -3.15598e-25)
(0.0207228 9.8577e-05 8.77845e-25)
(0.020734 9.97266e-05 4.40557e-25)
(0.0207452 0.000100305 2.73923e-27)
(0.0207563 0.000100365 2.67324e-24)
(0.0207675 9.99498e-05 -1.13753e-24)
(0.0207785 9.9094e-05 -2.21308e-25)
(0.0207895 9.7831e-05 -5.72316e-25)
(0.0208002 9.6194e-05 -1.83712e-24)
(0.0184728 6.00479e-05 1.69537e-24)
(0.0184845 6.64024e-05 -2.46874e-24)
(0.0184973 7.16423e-05 -1.23116e-24)
(0.0185107 7.59002e-05 3.57506e-24)
(0.0185246 7.93026e-05 -1.31543e-24)
(0.0185388 8.19488e-05 -3.59083e-25)
(0.0185533 8.39205e-05 2.84866e-25)
(0.0185678 8.52855e-05 -1.1202e-24)
(0.0185825 8.61017e-05 3.22755e-24)
(0.0185971 8.64186e-05 -4.53033e-24)
(0.0186117 8.62771e-05 3.43844e-24)
(0.0186262 8.57104e-05 -2.12922e-24)
(0.0186406 8.47478e-05 4.51421e-24)
(0.0186548 8.34163e-05 -5.34324e-24)
(0.0186689 8.17422e-05 1.67847e-24)
(0.0163644 5.14651e-05 -3.31995e-25)
(0.016379 5.63493e-05 -9.23505e-25)
(0.0163946 6.03926e-05 -2.26216e-24)
(0.0164109 6.36767e-05 6.18275e-24)
(0.0164276 6.62868e-05 -1.54334e-24)
(0.0164446 6.82934e-05 -9.86198e-25)
(0.0164619 6.97556e-05 -2.3904e-25)
(0.0164792 7.07222e-05 2.43434e-25)
(0.0164966 7.12338e-05 2.55062e-24)
(0.0165139 7.13252e-05 -2.31979e-24)
(0.0165312 7.10263e-05 -1.19186e-25)
(0.0165483 7.03632e-05 2.60222e-24)
(0.0165652 6.93595e-05 -2.89101e-24)
(0.016582 6.80371e-05 -3.95134e-25)
(0.0165984 6.64176e-05 4.62112e-25)
(0.0143606 4.19968e-05 1.29229e-24)
(0.0143771 4.5614e-05 1.43694e-24)
(0.0143946 4.86195e-05 -1.76422e-24)
(0.0144127 5.10586e-05 -2.36701e-24)
(0.0144312 5.29858e-05 2.28464e-24)
(0.0144499 5.44493e-05 -1.50021e-24)
(0.0144689 5.54891e-05 6.62435e-25)
(0.0144879 5.61375e-05 5.15239e-26)
(0.0145068 5.64214e-05 -2.52003e-25)
(0.0145257 5.63655e-05 1.78912e-24)
(0.0145444 5.59916e-05 9.084e-25)
(0.0145629 5.53197e-05 -6.5179e-24)
(0.0145811 5.43686e-05 2.61378e-24)
(0.0145991 5.31555e-05 1.05302e-24)
(0.0146165 5.16982e-05 1.00323e-25)
(0.0124794 3.25518e-05 -1.35826e-24)
(0.0124967 3.51468e-05 1.70332e-24)
(0.0125148 3.73149e-05 9.20658e-26)
(0.0125333 3.90752e-05 1.91328e-24)
(0.0125523 4.04607e-05 -1.85706e-24)
(0.0125714 4.15031e-05 -2.14285e-25)
(0.0125907 4.2227e-05 -3.50006e-25)
(0.01261 4.2653e-05 -8.63726e-26)
(0.0126292 4.27987e-05 -6.09744e-25)
(0.0126483 4.26812e-05 2.07606e-24)
(0.0126671 4.2316e-05 4.29422e-25)
(0.0126857 4.17177e-05 -5.18193e-25)
(0.0127039 4.09008e-05 -6.38705e-25)
(0.0127217 3.98784e-05 -3.95235e-25)
(0.012739 3.86648e-05 -2.61475e-25)
(0.0107286 2.39347e-05 1.01704e-24)
(0.0107452 2.57453e-05 -8.3647e-25)
(0.0107625 2.7272e-05 -2.63144e-24)
(0.0107803 2.85148e-05 2.4442e-24)
(0.0107984 2.94939e-05 1.95537e-24)
(0.0108167 3.0229e-05 -1.14494e-24)
(0.010835 3.07342e-05 -8.10107e-25)
(0.0108534 3.10217e-05 4.83125e-25)
(0.0108716 3.11026e-05 -6.87746e-25)
(0.0108897 3.09882e-05 -2.62624e-25)
(0.0109075 3.0689e-05 5.69667e-25)
(0.010925 3.02154e-05 3.86447e-25)
(0.0109421 2.95778e-05 -7.39972e-25)
(0.0109588 2.87863e-05 -6.44046e-26)
(0.0109749 2.78519e-05 2.89388e-25)
(0.00910925 1.66618e-05 -6.46085e-25)
(0.00912424 1.78925e-05 -3.21419e-25)
(0.00913984 1.89442e-05 5.69714e-25)
(0.00915582 1.98052e-05 -9.80868e-25)
(0.00917208 2.04893e-05 2.9609e-24)
(0.0091885 2.10077e-05 -2.64595e-24)
(0.00920499 2.1367e-05 1.30952e-24)
(0.00922147 2.15741e-05 -1.94602e-25)
(0.00923784 2.16354e-05 -3.81448e-25)
(0.00925405 2.15581e-05 -3.15395e-25)
(0.00927 2.13486e-05 3.61437e-25)
(0.00928564 2.10144e-05 -5.68188e-25)
(0.00930088 2.05625e-05 8.49643e-25)
(0.00931568 2.00004e-05 2.17481e-25)
(0.00932995 1.93362e-05 -1.32162e-25)
(0.00761955 1.09366e-05 -3.16345e-25)
(0.00763222 1.17495e-05 1.10065e-25)
(0.00764543 1.24565e-05 1.64381e-25)
(0.00765898 1.30409e-05 -4.91057e-25)
(0.00767278 1.35138e-05 -2.89811e-26)
(0.00768674 1.38795e-05 1.12946e-24)
(0.00770078 1.41403e-05 -5.41167e-25)
(0.00771482 1.42997e-05 -5.40409e-26)
(0.00772878 1.43609e-05 2.3756e-26)
(0.0077426 1.43282e-05 2.06231e-25)
(0.00775619 1.42054e-05 2.10676e-25)
(0.00776952 1.39974e-05 -8.35246e-25)
(0.00778249 1.37088e-05 -6.09806e-25)
(0.00779507 1.33448e-05 8.42334e-25)
(0.00780718 1.29114e-05 2.16162e-25)
(0.00625551 6.71605e-06 -1.15731e-25)
(0.00626558 7.23321e-06 -2.01607e-26)
(0.00627612 7.6934e-06 -1.39633e-24)
(0.00628697 8.07988e-06 5.87481e-25)
(0.00629805 8.4011e-06 -3.93902e-25)
(0.00630929 8.65676e-06 7.8724e-25)
(0.00632063 8.84708e-06 5.83344e-25)
(0.006332 8.97334e-06 -1.16824e-25)
(0.00634332 9.03703e-06 4.68567e-25)
(0.00635455 9.04038e-06 -1.55392e-25)
(0.00636561 8.98546e-06 -4.90935e-25)
(0.00637645 8.87523e-06 1.12685e-24)
(0.00638703 8.71247e-06 -6.27609e-25)
(0.00639728 8.501e-06 2.16182e-25)
(0.00640715 8.24455e-06 -3.99901e-25)
(0.00501181 3.80395e-06 -4.55334e-25)
(0.00501931 4.11556e-06 -5.00811e-25)
(0.00502722 4.40211e-06 4.78513e-26)
(0.00503539 4.64844e-06 1.14307e-24)
(0.00504378 4.86003e-06 -5.78379e-25)
(0.00505234 5.03412e-06 6.3856e-26)
(0.005061 5.17008e-06 4.05258e-25)
(0.00506971 5.26815e-06 -1.7912e-25)
(0.00507843 5.32877e-06 -7.96508e-26)
(0.0050871 5.35301e-06 8.22556e-25)
(0.00509566 5.34185e-06 2.31725e-25)
(0.00510409 5.29695e-06 -1.18067e-24)
(0.00511232 5.21982e-06 1.73309e-25)
(0.00512032 5.11316e-06 4.6322e-25)
(0.00512804 4.97935e-06 -3.47831e-25)
(0.00388212 1.93564e-06 -9.98456e-26)
(0.0038873 2.10781e-06 1.64841e-26)
(0.00389282 2.27527e-06 5.85934e-25)
(0.00389855 2.42393e-06 2.32338e-25)
(0.00390449 2.55621e-06 -3.39752e-25)
(0.00391058 2.66874e-06 -4.14055e-25)
(0.00391678 2.76082e-06 5.10832e-26)
(0.00392306 2.83224e-06 6.3515e-26)
(0.00392938 2.88299e-06 -9.99087e-26)
(0.00393569 2.91352e-06 -4.04225e-25)
(0.00394196 2.92415e-06 -2.48335e-25)
(0.00394815 2.91578e-06 7.74092e-25)
(0.00395422 2.88914e-06 -2.4171e-25)
(0.00396016 2.8461e-06 2.93677e-25)
(0.0039659 2.78836e-06 -1.7765e-25)
(0.00285935 8.37804e-07 -1.84265e-25)
(0.0028626 9.17092e-07 2.36766e-26)
(0.00286609 1.00453e-06 4.85569e-25)
(0.00286977 1.08588e-06 -2.95724e-25)
(0.0028736 1.16114e-06 7.63002e-25)
(0.00287758 1.2275e-06 -1.20212e-24)
(0.00288167 1.28436e-06 5.62949e-25)
(0.00288585 1.3314e-06 -8.77429e-26)
(0.00289008 1.36844e-06 -2.55381e-25)
(0.00289433 1.39558e-06 4.29992e-25)
(0.00289859 1.41272e-06 -1.90385e-25)
(0.00290283 1.42027e-06 -4.92034e-26)
(0.00290701 1.41865e-06 -1.83988e-25)
(0.00291113 1.4091e-06 2.54525e-25)
(0.00291514 1.3931e-06 -7.30133e-26)
(0.00193596 2.67132e-07 2.80032e-25)
(0.00193771 2.86745e-07 2.39686e-25)
(0.00193962 3.21701e-07 -1.07186e-24)
(0.00194166 3.57579e-07 7.03364e-25)
(0.00194383 3.92959e-07 -3.86746e-26)
(0.00194612 4.26017e-07 4.601e-26)
(0.0019485 4.56197e-07 -1.34829e-25)
(0.00195095 4.83107e-07 3.69441e-27)
(0.00195347 5.06444e-07 -8.87866e-26)
(0.00195603 5.26152e-07 -1.01942e-25)
(0.00195862 5.42153e-07 4.49011e-25)
(0.00196122 5.54338e-07 -1.49233e-25)
(0.00196382 5.62591e-07 -2.04001e-25)
(0.00196639 5.67603e-07 1.51205e-26)
(0.00196892 5.70725e-07 4.88923e-26)
(0.00110422 3.80631e-08 -2.82871e-25)
(0.0011049 4.04039e-08 8.03164e-25)
(0.00110568 5.4136e-08 3.34007e-25)
(0.00110654 6.78665e-08 -7.44487e-25)
(0.00110749 8.08265e-08 -7.99249e-26)
(0.00110851 9.27141e-08 -4.40653e-26)
(0.0011096 1.03501e-07 5.38548e-26)
(0.00111075 1.13174e-07 -2.8563e-26)
(0.00111195 1.21733e-07 -1.59051e-25)
(0.00111319 1.29315e-07 7.13237e-26)
(0.00111447 1.3716e-07 1.89203e-25)
(0.00111577 1.44827e-07 -1.59453e-25)
(0.00111708 1.5047e-07 3.78612e-25)
(0.0011184 1.54299e-07 -4.40194e-25)
(0.00111972 1.57343e-07 1.05608e-25)
(0.000356432 2.59279e-08 -2.01877e-27)
(0.000356462 7.95655e-08 1.50452e-25)
(0.000356536 1.19165e-07 1.31044e-25)
(0.000356643 1.43681e-07 -2.42402e-25)
(0.000356789 1.56126e-07 3.1358e-25)
(0.000356969 1.5923e-07 -3.49728e-25)
(0.000357181 1.55237e-07 6.74071e-27)
(0.000357422 1.45982e-07 -2.96396e-26)
(0.000357688 1.32972e-07 5.1302e-26)
(0.000357978 1.17442e-07 9.27442e-26)
(0.000358288 1.01203e-07 -3.07209e-25)
(0.000358614 8.47594e-08 1.64696e-25)
(0.000358955 6.70954e-08 1.40003e-25)
(0.000359307 4.85287e-08 -1.28877e-25)
(0.000359669 2.96144e-08 8.71473e-27)
(0.000963385 -0.000265172 9.94053e-26)
(0.00110111 -0.000192641 2.61855e-24)
(0.00133158 -0.000118639 -7.63725e-24)
(0.00156608 -6.14663e-05 1.13202e-23)
(0.0017892 -1.90972e-05 -4.24984e-24)
(0.00200596 9.40917e-06 -4.23742e-24)
(0.00221638 2.70677e-05 4.87571e-24)
(0.0024212 3.64626e-05 -9.74196e-24)
(0.00262142 3.98364e-05 6.10324e-25)
(0.00281797 3.91127e-05 6.16132e-24)
(0.00301171 3.59597e-05 -1.168e-24)
(0.00320343 3.18789e-05 1.25008e-24)
(0.00339388 2.83224e-05 -1.28452e-25)
(0.00358384 2.68113e-05 7.42575e-25)
(0.00377431 2.90385e-05 -2.72344e-24)
(0.0039667 3.68645e-05 1.481e-24)
(0.00416327 5.23328e-05 -4.47921e-25)
(0.00436701 7.74218e-05 3.33144e-26)
(0.00458316 0.000113302 1.05741e-24)
(0.0048175 0.000160433 -6.65377e-25)
(0.00507789 0.000214756 8.73095e-26)
(0.00537116 0.000267543 -7.78615e-26)
(0.00567614 0.000300566 1.59936e-25)
(0.00595158 0.000300705 6.52191e-25)
(0.0061825 0.000268428 -1.17021e-24)
(0.00636849 0.000208117 -8.65967e-25)
(0.00651102 0.000124231 -3.03057e-26)
(0.00661188 2.04549e-05 2.25925e-24)
(0.00667196 -9.98143e-05 3.49712e-24)
(0.00669112 -0.00023273 -6.91692e-24)
(0.0066685 -0.000373449 6.69629e-24)
(0.00660307 -0.000515879 -6.69247e-24)
(0.00649419 -0.000652757 2.00283e-24)
(0.00634191 -0.000775905 1.00902e-24)
(0.00614709 -0.000876523 -1.08663e-24)
(0.00591135 -0.000945332 2.19802e-24)
(0.00563677 -0.000972442 6.14775e-25)
(0.00532577 -0.000946679 2.11632e-24)
(0.00498107 -0.000854136 1.63619e-24)
(0.00460637 -0.000676022 -8.16059e-24)
(0.00420621 -0.000388356 -1.1136e-25)
(0.00378802 3.04619e-05 4.29082e-24)
(0.00334646 0.00056849 1.73018e-24)
(0.00290636 0.00113944 -6.35753e-24)
(0.00266057 0.00143147 -3.43068e-25)
(0.00180683 -0.000348805 -2.963e-24)
(0.00186315 -0.00031109 -4.30829e-24)
(0.00200242 -0.000239757 8.95454e-24)
(0.0021781 -0.000174379 4.35675e-24)
(0.00236333 -0.000120738 -1.52619e-23)
(0.00255311 -8.08003e-05 1.65142e-23)
(0.00274314 -5.27186e-05 -5.95118e-24)
(0.00293156 -3.41044e-05 4.84424e-24)
(0.00311792 -2.26625e-05 -6.39522e-24)
(0.00330223 -1.63423e-05 7.48905e-26)
(0.00348482 -1.33333e-05 -3.36225e-24)
(0.00366613 -1.20069e-05 6.64009e-24)
(0.0038467 -1.08105e-05 -3.6335e-24)
(0.00402715 -8.15818e-06 -3.15583e-24)
(0.00420838 -2.32722e-06 -2.00283e-24)
(0.00439168 8.52948e-06 3.96833e-24)
(0.00457921 2.64255e-05 -4.50338e-25)
(0.00477376 5.32591e-05 2.00401e-24)
(0.00498043 9.0146e-05 3.29407e-25)
(0.0052047 0.000137556 -5.94228e-25)
(0.00545425 0.000191544 -2.58632e-25)
(0.00573607 0.000243755 -1.7098e-25)
(0.00603079 0.000276766 8.62268e-25)
(0.00629904 0.00027811 1.13986e-24)
(0.00652603 0.000248201 -9.49683e-25)
(0.00671086 0.000191231 -5.14975e-24)
(0.00685436 0.000111593 7.11671e-24)
(0.00695775 1.30622e-05 -5.18586e-24)
(0.00702156 -0.000100819 1.76528e-24)
(0.00704551 -0.000225985 -1.2827e-24)
(0.00702881 -0.000357455 1.0007e-23)
(0.00697066 -0.00048908 -1.43186e-23)
(0.00687078 -0.00061363 8.57824e-24)
(0.00672972 -0.000723026 -7.41546e-24)
(0.00654898 -0.000808598 5.46693e-24)
(0.00633105 -0.000861196 -9.83053e-25)
(0.0060793 -0.000871056 6.20293e-24)
(0.00579805 -0.000827234 -7.02481e-25)
(0.00549302 -0.000716411 -6.98557e-24)
(0.00517282 -0.000521057 -5.33464e-24)
(0.0048509 -0.000219056 1.22275e-23)
(0.00455074 0.000209546 -1.27199e-23)
(0.00430008 0.000750843 -3.62133e-24)
(0.00414633 0.00130477 8.80333e-24)
(0.00415161 0.00152522 3.24306e-24)
(0.00279729 -0.000355965 -3.51541e-26)
(0.0028045 -0.000359318 -5.00701e-24)
(0.0028602 -0.000319951 9.5323e-24)
(0.00296768 -0.000264779 8.38712e-24)
(0.00310066 -0.00021106 -1.35899e-23)
(0.00324995 -0.000165948 2.67371e-25)
(0.00340811 -0.000130829 1.35187e-24)
(0.00357065 -0.000104816 1.48805e-23)
(0.00373523 -8.62823e-05 -1.7633e-23)
(0.00390061 -7.34138e-05 1.08383e-23)
(0.00406628 -6.44747e-05 3.19056e-24)
(0.00423211 -5.78291e-05 -1.77686e-23)
(0.00439824 -5.18922e-05 6.40248e-24)
(0.00456508 -4.5053e-05 2.48064e-24)
(0.00473329 -3.55826e-05 -5.02458e-24)
(0.00490401 -2.16632e-05 8.02832e-24)
(0.00507923 -1.3226e-06 -5.58616e-24)
(0.00526153 2.72527e-05 -1.03487e-25)
(0.00545581 6.51144e-05 4.14264e-25)
(0.00566728 0.000112752 4.50007e-25)
(0.00590335 0.000166331 4.62087e-26)
(0.00617114 0.00021785 2.84355e-25)
(0.00645326 0.000250722 -8.808e-25)
(0.0067124 0.000253173 2.68479e-24)
(0.00693394 0.000225566 -4.41084e-24)
(0.00711642 0.000171911 2.56883e-24)
(0.00726001 9.65455e-05 -6.48216e-24)
(0.00736531 3.31718e-06 8.76569e-24)
(0.00743249 -0.00010403 -8.71824e-24)
(0.0074611 -0.000221265 -5.99328e-26)
(0.00745044 -0.000343259 -6.82359e-25)
(0.00739995 -0.000463813 1.67205e-23)
(0.00730975 -0.00057575 -5.65813e-24)
(0.00718093 -0.000671139 -3.67521e-24)
(0.00701571 -0.000741537 3.46805e-24)
(0.00681752 -0.000778111 2.05008e-24)
(0.00659107 -0.000771568 -3.28687e-24)
(0.00634266 -0.000711794 1.06041e-23)
(0.00608089 -0.000587173 -2.1992e-23)
(0.00581865 -0.000383643 8.77351e-24)
(0.00557579 -8.53954e-05 3.49682e-24)
(0.00538402 0.000318009 6.27854e-24)
(0.00528147 0.000802957 -7.83445e-24)
(0.00530013 0.00126515 2.53645e-24)
(0.00543278 0.00143268 -1.60264e-24)
(0.00391624 -0.000337139 -1.27585e-24)
(0.00389464 -0.000365961 -1.98949e-24)
(0.00390062 -0.000354375 -8.55395e-24)
(0.00394253 -0.000322639 2.17267e-24)
(0.00401916 -0.000279426 1.47061e-24)
(0.00411944 -0.000237212 7.05803e-24)
(0.00423617 -0.000200487 -1.51596e-23)
(0.00436363 -0.000170598 5.73163e-24)
(0.00449807 -0.0001472 1.94432e-23)
(0.00463705 -0.000129192 -5.19285e-24)
(0.00477911 -0.000115216 -4.84357e-24)
(0.00492344 -0.000103819 -7.60614e-25)
(0.0050697 -9.35061e-05 2.43431e-24)
(0.0052179 -8.27188e-05 -4.69863e-24)
(0.00536847 -6.97725e-05 1.10245e-24)
(0.00552231 -5.29146e-05 -3.48281e-25)
(0.00568121 -3.02402e-05 -2.12539e-24)
(0.00584749 -3.75231e-08 8.16851e-25)
(0.00602586 3.86623e-05 3.74138e-24)
(0.00622117 8.63752e-05 -4.07253e-25)
(0.00644057 0.000139373 -8.71163e-25)
(0.00669126 0.000189983 -2.61279e-25)
(0.006958 0.000222511 -1.55939e-24)
(0.00720567 0.000225927 -1.78441e-25)
(0.00741983 0.00020054 -4.10303e-24)
(0.00759841 0.000150181 6.89403e-24)
(0.00774086 7.91415e-05 -6.51038e-24)
(0.00784715 -8.65595e-06 1.27464e-23)
(0.00791702 -0.000109283 -1.15677e-23)
(0.00794992 -0.000218344 2.43132e-24)
(0.00794518 -0.000330591 5.37756e-24)
(0.00790256 -0.000439818 -4.8238e-26)
(0.00782259 -0.000538964 -2.58879e-25)
(0.00770693 -0.00062035 2.76541e-25)
(0.00755853 -0.000675923 -1.37851e-24)
(0.00738178 -0.000697428 -1.32719e-24)
(0.00718265 -0.000676456 1.01086e-23)
(0.00696915 -0.000604373 -4.99694e-24)
(0.00675206 -0.000472236 4.69499e-25)
(0.00654671 -0.000270914 -2.22374e-23)
(0.00637494 7.10847e-06 1.72759e-23)
(0.00626743 0.000361316 -7.29184e-24)
(0.00625727 0.000763108 1.29553e-24)
(0.00635834 0.00112846 1.00051e-23)
(0.00654556 0.00129427 -2.62375e-24)
(0.00515713 -0.000308211 -5.2988e-24)
(0.00512473 -0.000346773 1.08887e-23)
(0.00510156 -0.00035499 3.15429e-24)
(0.00510213 -0.000343933 1.35848e-23)
(0.00512572 -0.00031932 -3.35777e-23)