/*--------------------------------*- C++ -*----------------------------------*\
| =========                 |                                                 |
| \\      /  F ield         | OpenFOAM: The Open Source CFD Toolbox           |
|  \\    /   O peration     | Version:  2312                                  |
|   \\  /    A nd           | Website:  www.openfoam.com                      |
|    \\/     M anipulation  |                                                 |
\*---------------------------------------------------------------------------*/
FoamFile
{
    version     2.0;
    format      ascii;
    arch        "LSB;label=32;scalar=64";
    class       volScalarField;
    location    "82";
    object      p;
}
// * * * * * * * * * * * * * * * * * * * * * * * * * * * * * * * * * * * * * //

dimensions      [0 2 -2 0 0 0 0];

internalField   nonuniform List<scalar> 
4800
(
-7.97589e-15
-1.79049e-06
-3.25208e-06
-4.46056e-06
-5.47047e-06
-6.32323e-06
-7.05083e-06
-7.67522e-06
-8.22366e-06
-8.70831e-06
-9.13759e-06
-9.51755e-06
-9.84509e-06
-1.03486e-05
-1.1964e-05
2.13351e-08
-1.76522e-06
-3.22442e-06
-4.4318e-06
-5.44173e-06
-6.2955e-06
-7.02597e-06
-7.65472e-06
-8.20974e-06
-8.70449e-06
-9.15248e-06
-9.57335e-06
-9.98461e-06
-1.04944e-05
-1.135e-05
4.40077e-08
-1.73834e-06
-3.19506e-06
-4.40139e-06
-5.41147e-06
-6.26645e-06
-6.99925e-06
-7.63126e-06
-8.19027e-06
-8.69261e-06
-9.15171e-06
-9.58814e-06
-1.00139e-05
-1.04413e-05
-1.08533e-05
6.72056e-08
-1.71038e-06
-3.16418e-06
-4.36904e-06
-5.37879e-06
-6.23435e-06
-6.96842e-06
-7.60311e-06
-8.16247e-06
-8.66625e-06
-9.12416e-06
-9.5475e-06
-9.93282e-06
-1.02527e-05
-1.0443e-05
9.26759e-08
-1.67927e-06
-3.12945e-06
-4.33218e-06
-5.3409e-06
-6.19611e-06
-6.92994e-06
-7.56522e-06
-8.12174e-06
-8.61872e-06
-9.06253e-06
-9.45333e-06
-9.77675e-06
-9.99775e-06
-1.00648e-05
1.21831e-07
-1.64349e-06
-3.08919e-06
-4.28895e-06
-5.29561e-06
-6.14911e-06
-6.8806e-06
-7.51242e-06
-8.06199e-06
-8.54377e-06
-8.96111e-06
-9.30734e-06
-9.56527e-06
-9.70824e-06
-9.71022e-06
1.5661e-07
-1.60106e-06
-3.04127e-06
-4.23689e-06
-5.24006e-06
-6.0898e-06
-6.816e-06
-7.4397e-06
-7.97599e-06
-8.4349e-06
-8.81674e-06
-9.11363e-06
-9.3125e-06
-9.40041e-06
-9.37177e-06
2.00399e-07
-1.54859e-06
-2.98207e-06
-4.17203e-06
-5.1697e-06
-6.01294e-06
-6.73007e-06
-7.34051e-06
-7.85706e-06
-8.2866e-06
-8.62882e-06
-8.87859e-06
-9.03024e-06
-9.08297e-06
-9.0428e-06
2.58466e-07
-1.48073e-06
-2.90598e-06
-4.08831e-06
-5.07791e-06
-5.91125e-06
-6.61499e-06
-7.20701e-06
-7.69844e-06
-8.09527e-06
-8.39862e-06
-8.60837e-06
-8.7262e-06
-8.75929e-06
-8.71868e-06
3.3787e-07
-1.39002e-06
-2.80504e-06
-3.97725e-06
-4.95564e-06
-5.77531e-06
-6.46138e-06
-7.03072e-06
-7.49406e-06
-7.85817e-06
-8.12747e-06
-8.30687e-06
-8.40352e-06
-8.42875e-06
-8.39485e-06
4.46707e-07
-1.26729e-06
-2.66917e-06
-3.82804e-06
-4.79163e-06
-5.59379e-06
-6.2586e-06
-6.80277e-06
-7.23782e-06
-7.57266e-06
-7.81532e-06
-7.97467e-06
-8.06108e-06
-8.08736e-06
-8.06523e-06
5.93142e-07
-1.10247e-06
-2.48687e-06
-3.62825e-06
-4.57307e-06
-5.35426e-06
-5.99552e-06
-6.51421e-06
-6.92361e-06
-7.23514e-06
-7.45969e-06
-7.60868e-06
-7.69385e-06
-7.72795e-06
-7.72144e-06
7.84988e-07
-8.85052e-07
-2.24581e-06
-3.36448e-06
-4.28637e-06
-5.04387e-06
-5.66093e-06
-6.15612e-06
-6.54463e-06
-6.84003e-06
-7.05504e-06
-7.20223e-06
-7.29345e-06
-7.34041e-06
-7.35248e-06
1.02933e-06
-6.04218e-07
-1.93287e-06
-3.02245e-06
-3.91718e-06
-4.64918e-06
-5.24299e-06
-5.71837e-06
-6.09197e-06
-6.37865e-06
-6.5919e-06
-6.74437e-06
-6.84735e-06
-6.91135e-06
-6.94438e-06
1.33164e-06
-2.49628e-07
-1.53481e-06
-2.58743e-06
-3.4504e-06
-4.15562e-06
-4.728e-06
-5.18795e-06
-5.55273e-06
-5.83752e-06
-6.05563e-06
-6.21911e-06
-6.33828e-06
-6.42249e-06
-6.47876e-06
1.69458e-06
1.86635e-07
-1.04004e-06
-2.04575e-06
-2.87143e-06
-3.54819e-06
-4.10066e-06
-4.54896e-06
-4.90999e-06
-5.1983e-06
-5.4264e-06
-5.60528e-06
-5.74418e-06
-5.85122e-06
-5.93259e-06
2.11923e-06
7.08974e-07
-4.41015e-07
-1.38728e-06
-2.16829e-06
-2.81349e-06
-3.34606e-06
-3.78478e-06
-4.14519e-06
-4.44048e-06
-4.68187e-06
-4.8791e-06
-5.0403e-06
-5.1725e-06
-5.28107e-06
2.60527e-06
1.31878e-06
2.6412e-07
-6.08368e-07
-1.33519e-06
-1.9434e-06
-2.45358e-06
-2.88215e-06
-3.24247e-06
-3.54579e-06
-3.80163e-06
-4.01829e-06
-4.2028e-06
-4.36127e-06
-4.49852e-06
3.13815e-06
2.00233e-06
1.06385e-06
2.81215e-07
-3.79707e-07
-9.42751e-07
-1.42497e-06
-1.83955e-06
-2.19712e-06
-2.50654e-06
-2.7754e-06
-3.01035e-06
-3.21712e-06
-3.40076e-06
-3.56553e-06
3.68585e-06
2.73407e-06
1.93456e-06
1.25636e-06
6.72263e-07
1.63119e-07
-2.84213e-07
-6.79361e-07
-1.02987e-06
-1.34206e-06
-1.62145e-06
-1.87307e-06
-2.10134e-06
-2.31016e-06
-2.50283e-06
4.21157e-06
3.4493e-06
2.7939e-06
2.22383e-06
1.72044e-06
1.26994e-06
8.62998e-07
4.93182e-07
1.55625e-07
-1.53785e-07
-4.38802e-07
-7.02909e-07
-9.49319e-07
-1.18103e-06
-1.40084e-06
4.65041e-06
4.04549e-06
3.51167e-06
3.03475e-06
2.60239e-06
2.20543e-06
1.83776e-06
1.49533e-06
1.17508e-06
8.74309e-07
5.90419e-07
3.20971e-07
6.36707e-08
-1.8338e-07
-4.21938e-07
4.99836e-06
4.50731e-06
4.06223e-06
3.65352e-06
3.27322e-06
2.91567e-06
2.57711e-06
2.25502e-06
1.94741e-06
1.65244e-06
1.36831e-06
1.09339e-06
8.26078e-07
5.64961e-07
3.08513e-07
5.26058e-06
4.85018e-06
4.46796e-06
4.10802e-06
3.7655e-06
3.43709e-06
3.1205e-06
2.81406e-06
2.51635e-06
2.22602e-06
1.9418e-06
1.66246e-06
1.38689e-06
1.11404e-06
8.42938e-07
5.45482e-06
5.10031e-06
4.76228e-06
4.43728e-06
4.12233e-06
3.81545e-06
3.51516e-06
3.2202e-06
2.92946e-06
2.64194e-06
2.35672e-06
2.07298e-06
1.79e-06
1.50717e-06
1.22384e-06
5.5959e-06
5.27966e-06
4.97245e-06
4.67215e-06
4.37676e-06
4.08503e-06
3.79588e-06
3.50833e-06
3.22154e-06
2.93477e-06
2.64741e-06
2.35891e-06
2.06878e-06
1.77655e-06
1.48165e-06
5.69575e-06
5.40561e-06
5.11967e-06
4.83641e-06
4.5544e-06
4.27278e-06
3.99073e-06
3.70748e-06
3.42238e-06
3.1349e-06
2.84461e-06
2.55111e-06
2.25406e-06
1.9531e-06
1.64785e-06
5.76464e-06
5.49236e-06
5.22099e-06
4.9493e-06
4.67623e-06
4.40118e-06
4.12345e-06
3.84242e-06
3.55756e-06
3.26849e-06
2.97487e-06
2.67644e-06
2.37296e-06
2.06423e-06
1.75007e-06
5.81124e-06
5.55135e-06
5.29e-06
5.02615e-06
4.75907e-06
4.48824e-06
4.21303e-06
3.93289e-06
3.64742e-06
3.3563e-06
3.05929e-06
2.75618e-06
2.44682e-06
2.13114e-06
1.80917e-06
5.84249e-06
5.59145e-06
5.33711e-06
5.07871e-06
4.81571e-06
4.54759e-06
4.27375e-06
3.99372e-06
3.70716e-06
3.41381e-06
3.11349e-06
2.80605e-06
2.49138e-06
2.16946e-06
1.84014e-06
5.86374e-06
5.61924e-06
5.36999e-06
5.11553e-06
4.8554e-06
4.58903e-06
4.31585e-06
4.03549e-06
3.74763e-06
3.45206e-06
3.14862e-06
2.83723e-06
2.51783e-06
2.19044e-06
1.85499e-06
5.87879e-06
5.63936e-06
5.39398e-06
5.14251e-06
4.88448e-06
4.61927e-06
4.34638e-06
4.06546e-06
3.77625e-06
3.47856e-06
3.17227e-06
2.85732e-06
2.53371e-06
2.20148e-06
1.86063e-06
5.89024e-06
5.6549e-06
5.41262e-06
5.16355e-06
4.90712e-06
4.64271e-06
4.3699e-06
4.08835e-06
3.79783e-06
3.49819e-06
3.18931e-06
2.87118e-06
2.54382e-06
2.20732e-06
1.86168e-06
5.89968e-06
5.66778e-06
5.42812e-06
5.18105e-06
4.9259e-06
4.6621e-06
4.38927e-06
4.10709e-06
3.81535e-06
3.51391e-06
3.20271e-06
2.88173e-06
2.55104e-06
2.21075e-06
1.86087e-06
5.90803e-06
5.67913e-06
5.44175e-06
5.1964e-06
4.94232e-06
4.67903e-06
4.40613e-06
4.12335e-06
3.8305e-06
3.52745e-06
3.21416e-06
2.89064e-06
2.55698e-06
2.21333e-06
1.85954e-06
5.91576e-06
5.68952e-06
5.45417e-06
5.21033e-06
4.95719e-06
4.69432e-06
4.42136e-06
4.13804e-06
3.84418e-06
3.53969e-06
3.22453e-06
2.89874e-06
2.56243e-06
2.21576e-06
1.85844e-06
5.92306e-06
5.6992e-06
5.46567e-06
5.22316e-06
4.97086e-06
4.70836e-06
4.43534e-06
4.15153e-06
3.85679e-06
3.55101e-06
3.23419e-06
2.90639e-06
2.56772e-06
2.21834e-06
1.85798e-06
5.93009e-06
5.7084e-06
5.47652e-06
5.23519e-06
4.98364e-06
4.72148e-06
4.4484e-06
4.16416e-06
3.86862e-06
3.56169e-06
3.24339e-06
2.91378e-06
2.573e-06
2.2212e-06
1.85819e-06
5.93725e-06
5.71764e-06
5.48735e-06
5.24716e-06
4.99632e-06
4.7345e-06
4.46137e-06
4.17672e-06
3.88042e-06
3.57241e-06
3.25271e-06
2.92138e-06
2.57862e-06
2.22454e-06
1.85903e-06
5.94418e-06
5.7266e-06
5.49786e-06
5.25879e-06
5.0087e-06
4.74726e-06
4.47415e-06
4.18917e-06
3.89219e-06
3.58318e-06
3.26215e-06
2.9292e-06
2.58452e-06
2.22824e-06
1.8603e-06
-1.33592e-05
-1.1183e-05
-9.83422e-06
-8.92197e-06
-8.18369e-06
-7.60955e-06
-7.15889e-06
-6.80649e-06
-6.5377e-06
-6.34261e-06
-6.21461e-06
-6.1496e-06
-6.14582e-06
-6.20328e-06
-6.3248e-06
-6.51789e-06
-6.79405e-06
-7.17004e-06
-7.66776e-06
-8.31523e-06
-9.13235e-06
-1.01138e-05
-1.10945e-05
-1.17918e-05
-1.20779e-05
-1.19261e-05
-1.13337e-05
-1.03194e-05
-8.91778e-06
-7.16844e-06
-5.11147e-06
-2.78883e-06
-2.45795e-07
2.46804e-06
5.29878e-06
8.18881e-06
1.10772e-05
1.3899e-05
1.65815e-05
1.90376e-05
2.11441e-05
2.27329e-05
2.34215e-05
2.28483e-05
1.97601e-05
-1.17526e-05
-1.06348e-05
-9.61593e-06
-8.80359e-06
-8.11089e-06
-7.55314e-06
-7.10895e-06
-6.7599e-06
-6.49376e-06
-6.30153e-06
-6.17694e-06
-6.11601e-06
-6.11709e-06
-6.1801e-06
-6.30781e-06
-6.50776e-06
-6.7913e-06
-7.17478e-06
-7.67942e-06
-8.33206e-06
-9.15081e-06
-1.01285e-05
-1.11e-05
-1.17857e-05
-1.20606e-05
-1.18998e-05
-1.13005e-05
-1.02809e-05
-8.87583e-06
-7.12541e-06
-5.07101e-06
-2.75621e-06
-2.28302e-07
2.46055e-06
5.25307e-06
8.087e-06
1.08947e-05
1.36009e-05
1.61165e-05
1.8326e-05
2.00538e-05
2.10202e-05
2.06727e-05
1.81926e-05
1.25606e-05
-1.09033e-05
-1.02017e-05
-9.391e-06
-8.66685e-06
-8.02463e-06
-7.48958e-06
-7.05532e-06
-6.71148e-06
-6.44894e-06
-6.26013e-06
-6.13932e-06
-6.08284e-06
-6.08917e-06
-6.15818e-06
-6.29257e-06
-6.49995e-06
-6.79146e-06
-7.18295e-06
-7.69483e-06
-8.35261e-06
-9.17227e-06
-1.01445e-05
-1.11044e-05
-1.17758e-05
-1.20373e-05
-1.18658e-05
-1.12592e-05
-1.02348e-05
-8.82755e-06
-7.07879e-06
-5.03138e-06
-2.73097e-06
-2.27497e-07
2.42354e-06
5.16054e-06
7.91536e-06
1.06121e-05
1.31635e-05
1.54633e-05
1.73702e-05
1.86754e-05
1.90631e-05
1.80316e-05
1.50076e-05
9.89117e-06
-1.03525e-05
-9.84352e-06
-9.19101e-06
-8.5369e-06
-7.94272e-06
-7.43205e-06
-7.00823e-06
-6.66938e-06
-6.40981e-06
-6.22359e-06
-6.10579e-06
-6.05311e-06
-6.06426e-06
-6.13901e-06
-6.28e-06
-6.4949e-06
-6.79459e-06
-7.19432e-06
-7.71357e-06
-8.37632e-06
-9.19619e-06
-1.01614e-05
-1.11071e-05
-1.17612e-05
-1.2006e-05
-1.18212e-05
-1.12048e-05
-1.01739e-05
-8.76396e-06
-7.0177e-06
-4.98006e-06
-2.69942e-06
-2.29114e-07
2.37121e-06
5.03468e-06
7.68639e-06
1.02415e-05
1.26014e-05
1.46454e-05
1.62187e-05
1.711e-05
1.70413e-05
1.56692e-05
1.27241e-05
8.46666e-06
-9.92236e-06
-9.52613e-06
-8.9934e-06
-8.42275e-06
-7.87417e-06
-7.38753e-06
-6.97399e-06
-6.63958e-06
-6.38192e-06
-6.19699e-06
-6.08091e-06
-6.03093e-06
-6.04607e-06
-6.12593e-06
-6.27311e-06
-6.49534e-06
-6.80313e-06
-7.21098e-06
-7.73731e-06
-8.40435e-06
-9.22307e-06
-1.01788e-05
-1.11072e-05
-1.17407e-05
-1.1966e-05
-1.17656e-05
-1.11384e-05
-1.0101e-05
-8.68988e-06
-6.94948e-06
-4.92729e-06
-2.67494e-06
-2.49692e-07
2.28411e-06
4.85397e-06
7.37817e-06
9.76395e-06
1.19041e-05
1.36716e-05
1.49132e-05
1.5445e-05
1.50638e-05
1.35884e-05
1.09669e-05
7.4828e-06
-9.56055e-06
-9.24313e-06
-8.8012e-06
-8.31261e-06
-7.81691e-06
-7.3556e-06
-6.95557e-06
-6.62669e-06
-6.37047e-06
-6.18564e-06
-6.06982e-06
-6.0211e-06
-6.039e-06
-6.12292e-06
-6.27542e-06
-6.5044e-06
-6.81979e-06
-7.23518e-06
-7.76775e-06
-8.43775e-06
-9.25318e-06
-1.01962e-05
-1.11031e-05
-1.17122e-05
-1.19148e-05
-1.16969e-05
-1.10583e-05
-1.00156e-05
-8.60633e-06
-6.87711e-06
-4.87842e-06
-2.66559e-06
-3.00144e-07
2.14872e-06
4.60307e-06
6.97545e-06
9.16772e-06
1.10695e-05
1.25568e-05
1.34936e-05
1.37397e-05
1.31732e-05
1.17343e-05
9.48943e-06
6.70239e-06
-9.23315e-06
-8.97691e-06
-8.61744e-06
-8.19823e-06
-7.75731e-06
-7.33249e-06
-6.95249e-06
-6.63253e-06
-6.37899e-06
-6.19409e-06
-6.07749e-06
-6.02863e-06
-6.04784e-06
-6.13438e-06
-6.29085e-06
-6.52554e-06
-6.84747e-06
-7.26922e-06
-7.80653e-06
-8.47736e-06
-9.2865e-06
-1.02125e-05
-1.10929e-05
-1.16731e-05
-1.18494e-05
-1.16119e-05
-1.09619e-05
-9.91571e-06
-8.51256e-06
-6.80168e-06
-4.83678e-06
-2.67717e-06
-3.88744e-07
1.9548e-06
4.27114e-06
6.46919e-06
8.44941e-06
1.01048e-05
1.1324e-05
1.19982e-05
1.20352e-05
1.13817e-05
1.00524e-05
8.1577e-06
5.91575e-06
-8.92133e-06
-8.71418e-06
-8.42428e-06
-8.07354e-06
-7.69191e-06
-7.31138e-06
-6.95931e-06
-6.65436e-06
-6.40738e-06
-6.22427e-06
-6.10723e-06
-6.05758e-06
-6.07699e-06
-6.16461e-06
-6.32369e-06
-6.5624e-06
-6.88922e-06
-7.31543e-06
-7.85514e-06
-8.52378e-06
-9.32253e-06
-1.0226e-05
-1.10744e-05
-1.16198e-05
-1.17661e-05
-1.15071e-05
-1.0846e-05
-9.79954e-06
-8.40865e-06
-6.72551e-06
-4.80726e-06
-2.71723e-06
-5.25271e-07
1.69142e-06
3.84801e-06
5.85299e-06
7.61028e-06
9.02274e-06
9.99823e-06
1.04593e-05
1.03566e-05
9.68445e-06
8.4949e-06
6.90275e-06
5.07679e-06
-8.61637e-06
-8.45011e-06
-8.2189e-06
-7.93307e-06
-7.61258e-06
-7.28232e-06
-6.96654e-06
-6.6848e-06
-6.4509e-06
-6.274e-06
-6.15895e-06
-6.10948e-06
-6.12898e-06
-6.21644e-06
-6.37643e-06
-6.61792e-06
-6.94768e-06
-7.37564e-06
-7.91455e-06
-8.57689e-06
-9.36002e-06
-1.02345e-05
-1.10429e-05
-1.15483e-05
-1.16608e-05
-1.1379e-05
-1.07085e-05
-9.66639e-06
-8.2962e-06
-6.65299e-06
-4.79713e-06
-2.79557e-06
-7.21221e-07
1.34703e-06
3.32455e-06
5.12323e-06
6.65521e-06
7.83817e-06
8.6024e-06
8.8998e-06
8.71361e-06
8.06613e-06
7.0222e-06
5.68419e-06
4.17926e-06
-8.31276e-06
-8.18208e-06
-8.00107e-06
-7.77407e-06
-7.51319e-06
-7.23646e-06
-6.96388e-06
-6.71373e-06
-6.50088e-06
-6.33669e-06
-6.22819e-06
-6.18187e-06
-6.20299e-06
-6.2897e-06
-6.4499e-06
-6.6931e-06
-7.0234e-06
-7.45008e-06
-7.98424e-06
-8.63523e-06
-9.39637e-06
-1.02339e-05
-1.09945e-05
-1.14538e-05
-1.15292e-05
-1.12246e-05
-1.05478e-05
-9.51714e-06
-8.17898e-06
-6.591e-06
-4.81606e-06
-2.92399e-06
-9.89116e-07
9.10505e-07
2.69367e-06
4.27942e-06
5.59192e-06
6.56618e-06
7.15435e-06
7.3322e-06
7.1043e-06
6.50587e-06
5.60092e-06
4.47433e-06
3.22096e-06
-8.00438e-06
-7.90602e-06
-7.7689e-06
-7.59453e-06
-7.38982e-06
-7.16717e-06
-6.94209e-06
-6.73036e-06
-6.54633e-06
-6.40219e-06
-6.30636e-06
-6.26771e-06
-6.29344e-06
-6.3795e-06
-6.541e-06
-6.78598e-06
-7.11431e-06
-7.53624e-06
-8.06118e-06
-8.69508e-06
-9.42709e-06
-1.02192e-05
-1.09237e-05
-1.13314e-05
-1.13679e-05
-1.10423e-05
-1.03648e-05
-9.35535e-06
-8.06387e-06
-6.54956e-06
-4.87638e-06
-3.11593e-06
-1.34178e-06
3.71972e-07
1.95082e-06
3.32391e-06
4.42948e-06
5.21985e-06
5.66579e-06
5.76006e-06
5.51898e-06
4.98091e-06
4.20265e-06
3.25185e-06
2.19925e-06
-7.68298e-06
-7.61516e-06
-7.51759e-06
-7.39063e-06
-7.2381e-06
-7.06825e-06
-6.89257e-06
-6.72386e-06
-6.57512e-06
-6.45795e-06
-6.38183e-06
-6.35729e-06
-6.3886e-06
-6.47591e-06
-6.64313e-06
-6.89075e-06
-7.21444e-06
-7.62805e-06
-8.13922e-06
-8.75002e-06
-9.44553e-06
-1.0184e-05
-1.08249e-05
-1.11766e-05
-1.11748e-05
-1.08334e-05
-1.01637e-05
-9.18845e-06
-7.9619e-06
-6.54232e-06
-4.99291e-06
-3.38584e-06
-1.79135e-06
-2.76285e-07
1.09429e-06
2.26129e-06
3.17707e-06
3.80916e-06
4.14252e-06
4.18039e-06
3.9439e-06
3.469e-06
2.80311e-06
1.99895e-06
1.10942e-06
-7.33763e-06
-7.29956e-06
-7.23871e-06
-7.15515e-06
-7.05103e-06
-6.93175e-06
-6.80561e-06
-6.68255e-06
-6.57374e-06
-6.48944e-06
-6.43956e-06
-6.43748e-06
-6.47715e-06
-6.57003e-06
-6.74542e-06
-6.99424e-06
-7.31232e-06
-7.71528e-06
-8.20864e-06
-8.79082e-06
-9.44308e-06
-1.01212e-05
-1.0693e-05
-1.0987e-05
-1.09513e-05
-1.0603e-05
-9.95308e-06
-9.0289e-06
-7.88878e-06
-6.58642e-06
-5.18221e-06
-3.74806e-06
-2.34803e-06
-1.03886e-06
1.25468e-07
1.09786e-06
1.84328e-06
2.34115e-06
2.58594e-06
2.58636e-06
2.36421e-06
1.94999e-06
1.38183e-06
7.00268e-07
-5.50279e-08
-6.95422e-06
-6.94567e-06
-6.91984e-06
-6.87678e-06
-6.81782e-06
-6.74661e-06
-6.66907e-06
-6.59279e-06
-6.52666e-06
-6.47974e-06
-6.46074e-06
-6.47967e-06
-6.53956e-06
-6.65109e-06
-6.83113e-06
-7.07834e-06
-7.39242e-06
-7.78405e-06
-8.25649e-06
-8.80581e-06
-9.40983e-06
-1.00238e-05
-1.05248e-05
-1.07632e-05
-1.0703e-05
-1.03616e-05
-9.74663e-06
-8.89448e-06
-7.86585e-06
-6.70054e-06
-5.46047e-06
-4.21544e-06
-3.0189e-06
-1.91649e-06
-9.51176e-07
-1.5886e-07
4.35808e-07
8.20584e-07
9.95229e-07
9.69906e-07
7.66233e-07
4.06932e-07
-7.77913e-08
-6.57002e-07
-1.30097e-06
-6.51463e-06
-6.53571e-06
-6.54379e-06
-6.53932e-06
-6.5231e-06
-6.49763e-06
-6.4672e-06
-6.43757e-06
-6.41563e-06
-6.40884e-06
-6.42488e-06
-6.47241e-06
-6.55827e-06
-6.68935e-06
-6.87712e-06
-7.12585e-06
-7.43762e-06
-7.81762e-06
-8.26725e-06
-8.7815e-06
-9.33529e-06
-9.88606e-06
-1.03202e-05
-1.05106e-05
-1.04409e-05
-1.01227e-05
-9.56093e-06
-8.81468e-06
-7.91457e-06
-6.89895e-06
-5.84208e-06
-4.79832e-06
-3.80749e-06
-2.90642e-06
-2.12877e-06
-1.50077e-06
-1.03881e-06
-7.49481e-07
-6.30498e-07
-6.72038e-07
-8.60425e-07
-1.17306e-06
-1.58798e-06
-2.08236e-06
-2.63393e-06
-5.99591e-06
-6.04742e-06
-6.08927e-06
-6.12205e-06
-6.1466e-06
-6.16486e-06
-6.17994e-06
-6.19627e-06
-6.21918e-06
-6.25477e-06
-6.30959e-06
-6.39084e-06
-6.50511e-06
-6.65842e-06
-6.85981e-06
-7.11467e-06
-7.42573e-06
-7.79538e-06
-8.22303e-06
-8.7034e-06
-9.20947e-06
-9.70331e-06
-1.00821e-05
-1.02421e-05
-1.01815e-05
-9.899e-06
-9.43285e-06
-8.81325e-06
-8.04193e-06
-7.20013e-06
-6.3416e-06
-5.50272e-06
-4.71319e-06
-4.00338e-06
-3.39944e-06
-2.91994e-06
-2.57548e-06
-2.36949e-06
-2.29906e-06
-2.35623e-06
-2.52938e-06
-2.80277e-06
-3.15993e-06
-3.5841e-06
-4.05879e-06
-5.37362e-06
-5.45663e-06
-5.53237e-06
-5.60168e-06
-5.66572e-06
-5.72581e-06
-5.78488e-06
-5.84633e-06
-5.91417e-06
-5.99325e-06
-6.08891e-06
-6.20682e-06
-6.35288e-06
-6.53267e-06
-6.75301e-06
-7.01871e-06
-7.33242e-06
-7.69584e-06
-8.1059e-06
-8.55788e-06
-9.02542e-06
-9.47384e-06
-9.8164e-06
-9.9736e-06
-9.93997e-06
-9.73531e-06
-9.38813e-06
-8.87835e-06
-8.2688e-06
-7.62416e-06
-6.97072e-06
-6.33099e-06
-5.73252e-06
-5.20092e-06
-4.75546e-06
-4.40881e-06
-4.16813e-06
-4.03579e-06
-4.00953e-06
-4.08303e-06
-4.24702e-06
-4.49045e-06
-4.80161e-06
-5.16862e-06
-5.57968e-06
-4.62212e-06
-4.73851e-06
-4.85001e-06
-4.95734e-06
-5.06159e-06
-5.15983e-06
-5.26124e-06
-5.36728e-06
-5.47991e-06
-5.6029e-06
-5.74064e-06
-5.89774e-06
-6.07903e-06
-6.28924e-06
-6.53342e-06
-6.81534e-06
-7.13775e-06
-7.50122e-06
-7.90279e-06
-8.33604e-06
-8.7804e-06
-9.20552e-06
-9.53705e-06
-9.71787e-06
-9.746e-06
-9.6505e-06
-9.40995e-06
-9.04937e-06
-8.62917e-06
-8.18117e-06
-7.72377e-06
-7.27502e-06
-6.85801e-06
-6.49219e-06
-6.1911e-06
-5.96348e-06
-5.81467e-06
-5.74707e-06
-5.75982e-06
-5.84991e-06
-6.01153e-06
-6.23526e-06
-6.51164e-06
-6.83301e-06
-7.19188e-06
-3.719e-06
-3.8675e-06
-4.01329e-06
-4.15729e-06
-4.30091e-06
-4.44165e-06
-4.58699e-06
-4.73812e-06
-4.89639e-06
-5.06475e-06
-5.24671e-06
-5.44591e-06
-5.66619e-06
-5.91118e-06
-6.18496e-06
-6.49016e-06
-6.82951e-06
-7.20293e-06
-7.60748e-06
-8.03849e-06
-8.47859e-06
-8.90686e-06
-9.26755e-06
-9.49814e-06
-9.61563e-06
-9.62769e-06
-9.52463e-06
-9.34132e-06
-9.11266e-06
-8.85693e-06
-8.58792e-06
-8.3225e-06
-8.07732e-06
-7.86585e-06
-7.69801e-06
-7.58055e-06
-7.51782e-06
-7.51175e-06
-7.56192e-06
-7.668e-06
-7.8283e-06
-8.03604e-06
-8.28436e-06
-8.5686e-06
-8.88385e-06
-2.68599e-06
-2.86461e-06
-3.03965e-06
-3.21304e-06
-3.38763e-06
-3.57393e-06
-3.76282e-06
-3.95637e-06
-4.15807e-06
-4.3709e-06
-4.59748e-06
-4.84043e-06
-5.1027e-06
-5.38727e-06
-5.69716e-06
-6.03468e-06
-6.40162e-06
-6.79839e-06
-7.22287e-06
-7.67141e-06
-8.13422e-06
-8.59492e-06
-9.01012e-06
-9.33624e-06
-9.5585e-06
-9.6838e-06
-9.73843e-06
-9.74055e-06
-9.69853e-06
-9.62653e-06
-9.53806e-06
-9.4455e-06
-9.35984e-06
-9.29068e-06
-9.2458e-06
-9.23125e-06
-9.25097e-06
-9.30709e-06
-9.40092e-06
-9.52975e-06
-9.68921e-06
-9.88039e-06
-1.01042e-05
-1.03575e-05
-1.06352e-05
-1.61477e-06
-1.82809e-06
-2.04169e-06
-2.25383e-06
-2.46326e-06
-2.68117e-06
-2.90889e-06
-3.14483e-06
-3.38991e-06
-3.64665e-06
-3.91743e-06
-4.20438e-06
-4.50977e-06
-4.83598e-06
-5.1854e-06
-5.56001e-06
-5.96133e-06
-6.39018e-06
-6.84564e-06
-7.32616e-06
-7.82614e-06
-8.33717e-06
-8.82094e-06
-9.23101e-06
-9.56081e-06
-9.82508e-06
-1.0034e-05
-1.0192e-05
-1.03067e-05
-1.03898e-05
-1.04519e-05
-1.05018e-05
-1.05473e-05
-1.05957e-05
-1.0653e-05
-1.07238e-05
-1.08113e-05
-1.09172e-05
-1.10432e-05
-1.11924e-05
-1.13651e-05
-1.15583e-05
-1.17701e-05
-1.20005e-05
-1.2248e-05
-6.57e-07
-8.92435e-07
-1.13029e-06
-1.375e-06
-1.63169e-06
-1.89204e-06
-2.15648e-06
-2.42973e-06
-2.7143e-06
-3.01125e-06
-3.32218e-06
-3.64911e-06
-3.99405e-06
-4.35901e-06
-4.74596e-06
-5.15676e-06
-5.59291e-06
-6.05551e-06
-6.54482e-06
-7.06017e-06
-7.59936e-06
-8.15734e-06
-8.69882e-06
-9.18542e-06
-9.61166e-06
-9.98193e-06
-1.02998e-05
-1.05703e-05
-1.08005e-05
-1.09989e-05
-1.11729e-05
-1.13294e-05
-1.14742e-05
-1.16126e-05
-1.17491e-05
-1.18875e-05
-1.20309e-05
-1.21824e-05
-1.23436e-05
-1.25151e-05
-1.27014e-05
-1.28993e-05
-1.31092e-05
-1.33292e-05
-1.35586e-05
5.21281e-08
-2.08344e-07
-4.73849e-07
-7.45182e-07
-1.02361e-06
-1.30864e-06
-1.60162e-06
-1.90511e-06
-2.2206e-06
-2.54903e-06
-2.89185e-06
-3.25076e-06
-3.62748e-06
-4.02368e-06
-4.44107e-06
-4.88134e-06
-5.34595e-06
-5.83614e-06
-6.35266e-06
-6.89564e-06
-7.46418e-06
-8.05579e-06
-8.6402e-06
-9.18079e-06
-9.66872e-06
-1.01058e-05
-1.04957e-05
-1.08429e-05
-1.1153e-05
-1.14315e-05
-1.16843e-05
-1.19164e-05
-1.21321e-05
-1.23354e-05
-1.253e-05
-1.27193e-05
-1.29063e-05
-1.30932e-05
-1.32817e-05
-1.3473e-05
-1.36653e-05
-1.38642e-05
-1.40686e-05
-1.42774e-05
-1.44905e-05
5.70325e-07
2.92555e-07
8.14447e-09
-2.83565e-07
-5.82658e-07
-8.90374e-07
-1.20834e-06
-1.53762e-06
-1.87912e-06
-2.23388e-06
-2.60319e-06
-2.98839e-06
-3.39088e-06
-3.81208e-06
-4.25347e-06
-4.7165e-06
-5.20253e-06
-5.71276e-06
-6.24814e-06
-6.80914e-06
-7.39569e-06
-8.00696e-06
-8.61533e-06
-9.18546e-06
-9.70872e-06
-1.0187e-05
-1.06233e-05
-1.10212e-05
-1.13845e-05
-1.17176e-05
-1.20245e-05
-1.2309e-05
-1.25744e-05
-1.28238e-05
-1.30604e-05
-1.32865e-05
-1.35046e-05
-1.37165e-05
-1.39237e-05
-1.41281e-05
-1.43308e-05
-1.45328e-05
-1.47347e-05
-1.49367e-05
-1.51393e-05
9.37065e-07
6.43516e-07
3.42071e-07
3.24798e-08
-2.8593e-07
-6.14258e-07
-9.53386e-07
-1.304e-06
-1.66693e-06
-2.04311e-06
-2.43357e-06
-2.83937e-06
-3.26165e-06
-3.7016e-06
-4.16042e-06
-4.63933e-06
-5.13951e-06
-5.662e-06
-6.20776e-06
-6.77737e-06
-7.37113e-06
-7.98867e-06
-8.60488e-06
-9.18744e-06
-9.72864e-06
-1.02302e-05
-1.06943e-05
-1.11236e-05
-1.15211e-05
-1.18899e-05
-1.22329e-05
-1.25529e-05
-1.28526e-05
-1.31344e-05
-1.34006e-05
-1.36532e-05
-1.38942e-05
-1.41253e-05
-1.4348e-05
-1.45639e-05
-1.47744e-05
-1.49802e-05
-1.5182e-05
-1.53806e-05
-1.55765e-05
1.1817e-06
8.74064e-07
5.57995e-07
2.32782e-07
-1.0224e-07
-4.47643e-07
-8.03995e-07
-1.1719e-06
-1.55204e-06
-1.94513e-06
-2.35195e-06
-2.77336e-06
-3.21022e-06
-3.66349e-06
-4.1341e-06
-4.62302e-06
-5.1312e-06
-5.65951e-06
-6.20875e-06
-6.77946e-06
-7.372e-06
-7.9861e-06
-8.59945e-06
-9.18321e-06
-9.7305e-06
-1.02427e-05
-1.07215e-05
-1.11689e-05
-1.15871e-05
-1.19782e-05
-1.23446e-05
-1.26883e-05
-1.30112e-05
-1.33153e-05
-1.36025e-05
-1.38743e-05
-1.41324e-05
-1.43781e-05
-1.46132e-05
-1.48386e-05
-1.50558e-05
-1.52654e-05
-1.54683e-05
-1.56654e-05
-1.58575e-05
1.33654e-06
1.01691e-06
6.88055e-07
3.49379e-07
5.08632e-10
-3.58926e-07
-7.29353e-07
-1.11122e-06
-1.50502e-06
-1.91128e-06
-2.33057e-06
-2.76351e-06
-3.21077e-06
-3.67302e-06
-4.151e-06
-4.64539e-06
-5.15694e-06
-5.68628e-06
-6.23405e-06
-6.80063e-06
-7.38634e-06
-7.99093e-06
-8.59478e-06
-9.1726e-06
-9.71832e-06
-1.0233e-05
-1.07178e-05
-1.11742e-05
-1.16038e-05
-1.20083e-05
-1.23893e-05
-1.27483e-05
-1.30868e-05
-1.34064e-05
-1.37084e-05
-1.39941e-05
-1.42649e-05
-1.45217e-05
-1.4766e-05
-1.49995e-05
-1.52226e-05
-1.5436e-05
-1.56409e-05
-1.58381e-05
-1.60286e-05
1.42873e-06
1.09859e-06
7.58631e-07
4.08565e-07
4.81504e-08
-3.22868e-07
-7.04762e-07
-1.09782e-06
-1.50237e-06
-1.91877e-06
-2.34741e-06
-2.78871e-06
-3.24312e-06
-3.71112e-06
-4.19319e-06
-4.68983e-06
-5.20153e-06
-5.72872e-06
-6.27186e-06
-6.83116e-06
-7.40684e-06
-7.99859e-06
-8.58932e-06
-9.1572e-06
-9.69684e-06
-1.02089e-05
-1.06942e-05
-1.11539e-05
-1.15891e-05
-1.20011e-05
-1.23908e-05
-1.27596e-05
-1.31085e-05
-1.34386e-05
-1.3751e-05
-1.40468e-05
-1.4327e-05
-1.45925e-05
-1.48446e-05
-1.50844e-05
-1.53124e-05
-1.55297e-05
-1.57372e-05
-1.59357e-05
-1.61263e-05
1.47908e-06
1.13967e-06
7.90215e-07
4.30554e-07
6.05169e-08
-3.20033e-07
-7.11232e-07
-1.11324e-06
-1.52624e-06
-1.95043e-06
-2.38606e-06
-2.83336e-06
-3.2926e-06
-3.76406e-06
-4.24804e-06
-4.74482e-06
-5.2547e-06
-5.77792e-06
-6.31473e-06
-6.8652e-06
-7.42943e-06
-8.007e-06
-8.58316e-06
-9.13928e-06
-9.67051e-06
-1.01772e-05
-1.06599e-05
-1.11195e-05
-1.15567e-05
-1.19723e-05
-1.23671e-05
-1.27419e-05
-1.30976e-05
-1.34349e-05
-1.37548e-05
-1.40579e-05
-1.43452e-05
-1.46175e-05
-1.48757e-05
-1.51208e-05
-1.53533e-05
-1.55743e-05
-1.57847e-05
-1.59853e-05
-1.6177e-05
1.50275e-06
1.15546e-06
7.97968e-07
4.30207e-07
5.2122e-08
-3.36311e-07
-7.35119e-07
-1.14435e-06
-1.56406e-06
-1.99433e-06
-2.43525e-06
-2.88689e-06
-3.34939e-06
-3.82284e-06
-4.30737e-06
-4.8031e-06
-5.31013e-06
-5.82853e-06
-6.35838e-06
-6.89957e-06
-7.45212e-06
-8.01547e-06
-8.57699e-06
-9.12091e-06
-9.64287e-06
-1.01429e-05
-1.06215e-05
-1.1079e-05
-1.1516e-05
-1.1933e-05
-1.23305e-05
-1.2709e-05
-1.30692e-05
-1.34116e-05
-1.37367e-05
-1.40453e-05
-1.43381e-05
-1.46156e-05
-1.48787e-05
-1.51282e-05
-1.53648e-05
-1.55893e-05
-1.58026e-05
-1.60055e-05
-1.61991e-05
1.51086e-06
1.15677e-06
7.92388e-07
4.17725e-07
3.28438e-08
-3.62191e-07
-7.67319e-07
-1.18249e-06
-1.60765e-06
-2.04276e-06
-2.48778e-06
-2.94268e-06
-3.40743e-06
-3.88199e-06
-4.36634e-06
-4.86043e-06
-5.36422e-06
-5.8776e-06
-6.40051e-06
-6.93268e-06
-7.47404e-06
-8.02389e-06
-8.57149e-06
-9.10361e-06
-9.61629e-06
-1.01094e-05
-1.05831e-05
-1.10377e-05
-1.14734e-05
-1.18905e-05
-1.22893e-05
-1.26701e-05
-1.30332e-05
-1.33791e-05
-1.37081e-05
-1.40208e-05
-1.43178e-05
-1.45995e-05
-1.48666e-05
-1.51199e-05
-1.536e-05
-1.55876e-05
-1.58037e-05
-1.60091e-05
-1.62048e-05
1.51061e-06
1.15064e-06
7.80278e-07
3.99674e-07
8.97775e-09
-3.91676e-07
-8.02151e-07
-1.22231e-06
-1.652e-06
-2.09109e-06
-2.53943e-06
-2.99687e-06
-3.46327e-06
-3.93845e-06
-4.42228e-06
-4.91455e-06
-5.41509e-06
-5.92364e-06
-6.44002e-06
-6.96381e-06
-7.49483e-06
-8.03226e-06
-8.56707e-06
-9.08822e-06
-9.59212e-06
-1.00785e-05
-1.05473e-05
-1.09986e-05
-1.14325e-05
-1.18491e-05
-1.22483e-05
-1.26304e-05
-1.29956e-05
-1.3344e-05
-1.3676e-05
-1.39919e-05
-1.42922e-05
-1.45772e-05
-1.48476e-05
-1.51039e-05
-1.53472e-05
-1.55776e-05
-1.57962e-05
-1.6004e-05
-1.62018e-05
1.50647e-06
1.14137e-06
7.65788e-07
3.80012e-07
-1.57303e-08
-4.21245e-07
-8.36327e-07
-1.26076e-06
-1.69432e-06
-2.13678e-06
-2.5879e-06
-3.04743e-06
-3.51512e-06
-3.99069e-06
-4.47388e-06
-4.96438e-06
-5.46187e-06
-5.96599e-06
-6.47642e-06
-6.99262e-06
-7.51431e-06
-8.04057e-06
-8.56386e-06
-9.07505e-06
-9.57091e-06
-1.0051e-05
-1.05152e-05
-1.09633e-05
-1.13953e-05
-1.18109e-05
-1.22102e-05
-1.25931e-05
-1.29597e-05
-1.331e-05
-1.36443e-05
-1.39627e-05
-1.42657e-05
-1.45535e-05
-1.48267e-05
-1.50854e-05
-1.53313e-05
-1.55642e-05
-1.57851e-05
-1.5995e-05
-1.61948e-05
1.50102e-06
1.13145e-06
7.51261e-07
3.60933e-07
-3.92416e-08
-4.4902e-07
-8.68136e-07
-1.29631e-06
-1.73324e-06
-2.17863e-06
-2.63215e-06
-3.09348e-06
-3.56225e-06
-4.03812e-06
-4.52069e-06
-5.00956e-06
-5.50431e-06
-6.00447e-06
-6.50958e-06
-7.01903e-06
-7.53243e-06
-8.04875e-06
-8.56179e-06
-9.06408e-06
-9.55274e-06
-1.00272e-05
-1.04872e-05
-1.09323e-05
-1.13624e-05
-1.17771e-05
-1.21762e-05
-1.25596e-05
-1.29273e-05
-1.32791e-05
-1.36151e-05
-1.39356e-05
-1.42408e-05
-1.45309e-05
-1.48063e-05
-1.50672e-05
-1.53154e-05
-1.55504e-05
-1.57733e-05
-1.5985e-05
-1.61865e-05
1.49577e-06
1.12218e-06
7.37881e-07
3.4351e-07
-6.05935e-08
-4.7415e-07
-8.96839e-07
-1.32832e-06
-1.76824e-06
-2.21622e-06
-2.67188e-06
-3.13479e-06
-3.60453e-06
-4.08065e-06
-4.56268e-06
-5.05013e-06
-5.54247e-06
-6.03913e-06
-6.53957e-06
-7.04307e-06
-7.54915e-06
-8.05671e-06
-8.56068e-06
-9.05511e-06
-9.53738e-06
-1.00068e-05
-1.0463e-05
-1.09055e-05
-1.13338e-05
-1.17476e-05
-1.21465e-05
-1.25303e-05
-1.28988e-05
-1.32519e-05
-1.35894e-05
-1.39116e-05
-1.42186e-05
-1.45106e-05
-1.47875e-05
-1.50508e-05
-1.53008e-05
-1.55376e-05
-1.57621e-05
-1.59754e-05
-1.61785e-05
1.49139e-06
1.11407e-06
7.26138e-07
3.28164e-07
-7.94403e-08
-4.96363e-07
-9.22237e-07
-1.35667e-06
-1.79926e-06
-2.24956e-06
-2.70712e-06
-3.17147e-06
-3.64209e-06
-4.11847e-06
-4.60007e-06
-5.08628e-06
-5.57653e-06
-6.07014e-06
-6.56649e-06
-7.06479e-06
-7.56446e-06
-8.06432e-06
-8.56032e-06
-9.04784e-06
-9.52451e-06
-9.98957e-06
-1.04424e-05
-1.08825e-05
-1.13093e-05
-1.17223e-05
-1.2121e-05
-1.25051e-05
-1.28743e-05
-1.32284e-05
-1.35673e-05
-1.38909e-05
-1.41994e-05
-1.4493e-05
-1.47714e-05
-1.50367e-05
-1.52881e-05
-1.55265e-05
-1.57523e-05
-1.5967e-05
-1.61713e-05
1.48795e-06
1.10729e-06
7.16149e-07
3.14973e-07
-9.57465e-08
-5.15666e-07
-9.44379e-07
-1.38145e-06
-1.82642e-06
-2.2788e-06
-2.73808e-06
-3.20372e-06
-3.67517e-06
-4.15182e-06
-4.63306e-06
-5.11824e-06
-5.60669e-06
-6.09767e-06
-6.59048e-06
-7.08425e-06
-7.57833e-06
-8.07148e-06
-8.56051e-06
-9.04198e-06
-9.51377e-06
-9.975e-06
-1.0425e-05
-1.08631e-05
-1.12885e-05
-1.17008e-05
-1.20994e-05
-1.24838e-05
-1.28536e-05
-1.32086e-05
-1.35485e-05
-1.38734e-05
-1.41833e-05
-1.44782e-05
-1.4758e-05
-1.50248e-05
-1.52775e-05
-1.55171e-05
-1.57441e-05
-1.59599e-05
-1.61653e-05
1.48538e-06
1.10178e-06
7.07754e-07
3.03725e-07
-1.0978e-07
-5.32384e-07
-9.63642e-07
-1.40308e-06
-1.85019e-06
-2.30445e-06
-2.76529e-06
-3.23212e-06
-3.70434e-06
-4.18128e-06
-4.66227e-06
-5.14659e-06
-5.63351e-06
-6.12222e-06
-6.61196e-06
-7.10178e-06
-7.59098e-06
-8.07822e-06
-8.56108e-06
-9.03721e-06
-9.50471e-06
-9.96261e-06
-1.04101e-05
-1.08464e-05
-1.12707e-05
-1.16824e-05
-1.20809e-05
-1.24656e-05
-1.2836e-05
-1.31918e-05
-1.35327e-05
-1.38587e-05