/*--------------------------------*- C++ -*----------------------------------*\
| =========                 |                                                 |
| \\      /  F ield         | OpenFOAM: The Open Source CFD Toolbox           |
|  \\    /   O peration     | Version:  2312                                  |
|   \\  /    A nd           | Website:  www.openfoam.com                      |
|    \\/     M anipulation  |                                                 |
\*---------------------------------------------------------------------------*/
FoamFile
{
    version     2.0;
    format      ascii;
    arch        "LSB;label=32;scalar=64";
    class       volVectorField;
    location    "82";
    object      U;
}
// * * * * * * * * * * * * * * * * * * * * * * * * * * * * * * * * * * * * * //

dimensions      [0 1 -1 0 0 0 0];

internalField   nonuniform List<vector> 
4800
(
(0.000479919 4.37682e-07 -3.41448e-26)
(0.000468392 4.95708e-07 -2.38224e-25)
(0.000460502 5.22612e-07 3.06283e-25)
(0.000455169 5.22343e-07 1.37642e-25)
(0.000451722 4.9611e-07 2.01117e-24)
(0.000449757 4.43095e-07 -4.77735e-24)
(0.000448985 3.8166e-07 4.42554e-24)
(0.000449433 2.89803e-07 -6.34522e-24)
(0.000450931 1.59844e-07 2.0529e-24)
(0.000453635 -9.60117e-08 6.86994e-24)
(0.000457942 -6.14136e-07 -2.1213e-24)
(0.000465168 -2.01424e-06 -1.87517e-25)
(0.000482385 -7.13871e-06 -2.54534e-24)
(0.000527299 -2.78059e-05 1.1642e-24)
(0.000602303 -9.10433e-05 -9.21314e-25)
(0.00148034 2.32742e-06 -1.08396e-25)
(0.00144534 1.87348e-06 1.35063e-25)
(0.0014213 1.5117e-06 -1.2285e-24)
(0.00140492 1.18607e-06 9.22822e-25)
(0.00139417 8.58549e-07 2.89927e-24)
(0.00138781 4.96874e-07 -4.60441e-24)
(0.00138494 8.08435e-08 -1.27014e-24)
(0.00138555 -4.70023e-07 -2.69892e-25)
(0.00138904 -1.22207e-06 1.04362e-23)
(0.001396 -2.49663e-06 -7.71212e-24)
(0.00140755 -4.9455e-06 8.40735e-25)
(0.00142642 -1.07514e-05 1.26359e-24)
(0.00146126 -2.7465e-05 -1.85028e-24)
(0.00152271 -7.82681e-05 -5.3907e-25)
(0.00158952 -0.000193029 2.3962e-24)
(0.00258297 7.47428e-06 -7.74274e-26)
(0.002523 5.97016e-06 7.91641e-26)
(0.00248166 4.79907e-06 8.03635e-25)
(0.00245334 3.77542e-06 -1.90695e-24)
(0.00243452 2.78128e-06 1.85687e-24)
(0.00242306 1.72281e-06 1.71865e-24)
(0.00241739 4.48918e-07 -4.46822e-24)
(0.00241734 -1.24111e-06 -2.68728e-24)
(0.00242173 -3.45547e-06 6.43082e-24)
(0.00243146 -7.05571e-06 2.41238e-24)
(0.00244769 -1.34924e-05 -8.42099e-24)
(0.0024724 -2.66291e-05 -1.23833e-24)
(0.00250969 -5.59641e-05 3.57696e-24)
(0.00255818 -0.000120371 5.58847e-24)
(0.00259321 -0.00022772 -2.88095e-24)
(0.00379449 1.67096e-05 2.85663e-26)
(0.00370843 1.34146e-05 -1.98476e-25)
(0.00364884 1.08536e-05 8.79186e-25)
(0.00360774 8.62906e-06 9.23534e-25)
(0.00358008 6.49288e-06 -9.34503e-25)
(0.00356273 4.25476e-06 -5.267e-24)
(0.00355341 1.59672e-06 -3.52016e-24)
(0.00355151 -1.83506e-06 1.31245e-23)
(0.00355547 -6.1865e-06 5.29693e-24)
(0.00356577 -1.30193e-05 -7.79121e-24)
(0.00358305 -2.43194e-05 -3.13009e-24)
(0.0036073 -4.44001e-05 -2.36157e-24)
(0.00363784 -8.12543e-05 7.81281e-26)
(0.00366744 -0.000144699 1.7348e-24)
(0.00367801 -0.000229875 8.45498e-27)
(0.00511983 3.09502e-05 -5.23437e-26)
(0.00500739 2.49413e-05 -3.19534e-25)
(0.00492907 2.02718e-05 -1.97144e-25)
(0.00487459 1.62419e-05 5.44168e-25)
(0.00483742 1.24193e-05 -1.51245e-24)
(0.00481338 8.48415e-06 3.76535e-24)
(0.0047995 3.93949e-06 -6.70476e-25)
(0.00479433 -1.65381e-06 2.26621e-24)
(0.00479635 -8.83384e-06 -1.25542e-23)
(0.00480488 -1.91467e-05 2.37259e-23)
(0.00481961 -3.48898e-05 -2.29438e-23)
(0.00483881 -5.94687e-05 1.20375e-23)
(0.0048591 -9.77593e-05 -1.1117e-23)
(0.00487275 -0.000152774 1.04659e-23)
(0.00486941 -0.000217016 -4.17028e-24)
(0.00656062 5.12833e-05 6.91202e-26)
(0.00642301 4.15167e-05 2.47103e-25)
(0.00632636 3.39132e-05 -1.29731e-24)
(0.00625844 2.73891e-05 -8.0304e-25)
(0.00621139 2.12789e-05 2.17925e-24)
(0.00618004 1.51051e-05 7.68648e-25)
(0.00616071 8.20756e-06 -5.97519e-24)
(0.00615113 1.84967e-08 1.41852e-23)
(0.00614939 -1.01443e-05 -1.83333e-23)
(0.00615409 -2.38731e-05 4.41265e-24)
(0.00616361 -4.29056e-05 1.32129e-23)
(0.00617534 -6.93676e-05 -1.82691e-23)
(0.00618537 -0.000105172 9.13888e-24)
(0.00618785 -0.000149799 9.33756e-24)
(0.006178 -0.000197084 -7.10784e-24)
(0.00811279 7.86436e-05 5.72489e-26)
(0.0079538 6.40743e-05 -3.38137e-25)
(0.00784079 5.26693e-05 1.20368e-24)
(0.00776037 4.29184e-05 -1.66108e-24)
(0.00770372 3.38925e-05 -5.5589e-24)
(0.00766485 2.49411e-05 9.4697e-24)
(0.0076395 1.52827e-05 -5.68912e-24)
(0.00762463 4.2223e-06 1.91866e-23)
(0.00761781 -8.92061e-06 -1.30614e-23)
(0.007617 -2.54505e-05 -6.04783e-24)
(0.00761987 -4.64943e-05 -1.17871e-23)
(0.00762356 -7.28596e-05 1.08498e-23)
(0.00762478 -0.000104554 3.04058e-24)
(0.00761991 -0.000139827 2.59767e-24)
(0.00760729 -0.00017456 -2.28605e-24)
(0.00976391 0.000113338 -8.2978e-26)
(0.0095911 9.3162e-05 1.12152e-24)
(0.00946615 7.7192e-05 -2.59825e-24)
(0.00937582 6.35348e-05 -2.08737e-24)
(0.00931099 5.10104e-05 8.17303e-25)
(0.00926525 3.88041e-05 1.5551e-24)
(0.00923391 2.60689e-05 5.44424e-24)
(0.00921343 1.20607e-05 -1.4692e-23)
(0.0092009 -3.85142e-06 -7.70392e-24)
(0.00919385 -2.24772e-05 2.14288e-23)
(0.00918976 -4.43596e-05 -6.57406e-24)
(0.00918602 -6.94271e-05 2.2485e-23)
(0.00918027 -9.6841e-05 -1.18261e-23)
(0.00917047 -0.000124845 -3.76753e-24)
(0.00915647 -0.00015096 2.23159e-24)
(0.0114914 0.000154389 -1.11189e-26)
(0.0113169 0.000128437 6.22589e-25)
(0.0111877 0.0001075 -8.84648e-25)
(0.0110923 8.94849e-05 2.08752e-24)
(0.0110224 7.30496e-05 -1.23504e-23)
(0.0109717 5.72675e-05 1.30102e-23)
(0.0109355 4.12898e-05 -2.02204e-23)
(0.01091 2.44159e-05 1.24816e-23)
(0.010892 6.14024e-06 9.18737e-24)
(0.0108791 -1.39168e-05 1.97488e-23)
(0.0108688 -3.58259e-05 -2.5773e-23)
(0.010859 -5.91079e-05 -4.74082e-24)
(0.0108481 -8.27888e-05 2.19299e-24)
(0.0108349 -0.000105562 1.56572e-23)
(0.01082 -0.000126038 -6.37227e-24)
(0.0132647 0.000198843 6.26674e-26)
(0.0131042 0.000168031 -2.65775e-25)
(0.0129814 0.00014242 1.16619e-24)
(0.0128884 0.000120071 -4.05231e-24)
(0.0128185 9.96639e-05 6.10378e-24)
(0.0127664 8.02713e-05 -7.80587e-24)
(0.0127277 6.11207e-05 1.29753e-23)
(0.0126989 4.1629e-05 2.20483e-24)
(0.012677 2.14774e-05 -1.77033e-23)
(0.0126596 5.34871e-07 2.50635e-23)
(0.0126447 -2.09696e-05 -2.7603e-23)
(0.0126306 -4.24894e-05 -8.09854e-24)
(0.0126164 -6.32452e-05 1.42931e-23)
(0.0126013 -8.24276e-05 4.24292e-24)
(0.0125859 -9.93175e-05 -1.85476e-24)
(0.0150555 0.000241761 2.66379e-25)
(0.0149237 0.00020821 -2.09951e-24)
(0.0148187 0.000179134 -3.24878e-24)
(0.0147365 0.000153165 7.76264e-24)
(0.014673 0.000129257 3.39355e-24)
(0.0146243 0.000106641 -2.12993e-23)
(0.0145868 8.471e-05 6.61857e-24)
(0.0145576 6.30527e-05 4.7249e-24)
(0.0145343 4.15109e-05 -2.00319e-23)
(0.0145148 2.01313e-05 2.09326e-23)
(0.0144975 -7.99848e-07 -1.66356e-23)
(0.0144814 -2.08422e-05 4.27752e-23)
(0.0144658 -3.94879e-05 -2.05622e-23)
(0.01445 -5.63143e-05 1.21118e-23)
(0.0144348 -7.09986e-05 -3.30865e-24)
(0.0168552 0.000278098 -1.19974e-25)
(0.0167585 0.000244345 1.46084e-24)
(0.016678 0.000213616 -2.7745e-24)
(0.016613 0.000185333 -1.35563e-24)
(0.0165612 0.000158921 1.5237e-23)
(0.0165203 0.000133909 -2.29747e-24)
(0.0164877 0.000109932 -2.67485e-23)
(0.0164614 8.67726e-05 3.10315e-23)
(0.0164395 6.44016e-05 -6.99126e-24)
(0.0164206 4.29383e-05 -2.39605e-23)
(0.0164036 2.26169e-05 2.55214e-23)
(0.0163876 3.71457e-06 1.37582e-23)
(0.0163725 -1.34969e-05 -1.15471e-23)
(0.0163575 -2.88574e-05 -2.00583e-23)
(0.0163435 -4.22654e-05 1.68603e-24)
(0.0186838 0.000306259 1.84139e-26)
(0.0186163 0.000273757 -1.67234e-24)
(0.0185586 0.000242797 7.6417e-24)
(0.018511 0.000213466 3.60419e-25)
(0.0184722 0.00018566 4.11632e-24)
(0.0184408 0.000159237 -1.5033e-23)
(0.0184151 0.000134083 1.26823e-23)
(0.0183936 0.000110155 2.81949e-24)
(0.0183752 8.7502e-05 2.58285e-23)
(0.0183588 6.62404e-05 -3.99894e-23)
(0.0183439 4.652e-05 -1.80643e-23)
(0.0183298 2.84702e-05 -1.19528e-23)
(0.0183165 1.21919e-05 2.24897e-23)
(0.0183035 -2.30763e-06 -6.53081e-25)
(0.0182916 -1.50508e-05 2.18778e-24)
(0.0205687 0.000329226 -9.86304e-27)
(0.0205187 0.000297928 1.77611e-24)
(0.0204762 0.000267101 -2.57194e-24)
(0.0204409 0.000237289 1.56285e-26)
(0.0204119 0.000208738 3.10274e-24)
(0.020388 0.000181565 7.78539e-24)
(0.0203681 0.000155844 -3.01757e-23)
(0.0203511 0.000131637 2.61277e-24)
(0.0203363 0.000109023 1.52563e-23)
(0.0203228 8.80721e-05 -6.99047e-24)
(0.0203104 6.88462e-05 1.91036e-23)
(0.0202987 5.13628e-05 1.33965e-23)
(0.0202878 3.5611e-05 -2.43007e-23)
(0.020277 2.15188e-05 1.66841e-23)
(0.0202672 9e-06 -1.38728e-23)
(0.022502 0.000350275 -4.2594e-25)
(0.0224631 0.000319964 -9.32107e-26)
(0.0224298 0.000289255 3.13575e-24)
(0.0224021 0.000259107 -1.50722e-23)
(0.0223792 0.000230049 1.31929e-23)
(0.0223601 0.000202394 -9.31733e-24)
(0.0223439 0.000176334 6.72321e-24)
(0.0223299 0.00015198 -4.69237e-23)
(0.0223175 0.000129401 6.77398e-23)
(0.0223062 0.000108612 -3.98098e-23)
(0.0222958 8.96025e-05 3.55553e-23)
(0.022286 7.23146e-05 2.97945e-23)
(0.0222769 5.66723e-05 -5.20755e-23)
(0.022268 4.25589e-05 1.6971e-23)
(0.02226 2.98598e-05 -7.14732e-25)
(0.0244237 0.000368904 -1.66072e-26)
(0.0243954 0.000340117 -8.46759e-25)
(0.0243706 0.000310011 8.54403e-25)
(0.0243496 0.000279957 -4.18619e-25)
(0.0243318 0.000250763 5.46296e-24)
(0.0243166 0.000222914 -9.28226e-24)
(0.0243036 0.000196692 8.50103e-24)
(0.0242921 0.000172235 -2.6645e-23)
(0.0242818 0.000149596 6.04715e-23)
(0.0242723 0.000128754 -7.72885e-23)
(0.0242637 0.000109652 6.33016e-23)
(0.0242554 9.21929e-05 -2.13822e-23)
(0.0242479 7.62697e-05 1.1221e-24)
(0.0242405 6.17512e-05 4.95007e-24)
(0.0242338 4.85137e-05 -9.46852e-24)
(0.0262396 0.000383178 -1.4296e-24)
(0.0262223 0.000356417 1.87447e-24)
(0.0262064 0.000327611 1.93411e-25)
(0.0261925 0.00029831 -2.5556e-24)
(0.0261804 0.000269543 9.2552e-24)
(0.0261698 0.000241935 -9.18978e-24)
(0.0261604 0.000215839 -7.86196e-24)
(0.026152 0.000191419 -1.87612e-23)
(0.0261443 0.000168727 9.75855e-24)
(0.0261372 0.000147729 4.56018e-23)
(0.0261306 0.00012835 -2.40483e-23)
(0.0261242 0.000110484 1.43437e-23)
(0.0261184 9.40159e-05 -5.88967e-24)
(0.0261126 7.882e-05 -1.75561e-23)
(0.0261075 6.47779e-05 8.9961e-24)
(0.0278324 0.000392529 4.70513e-25)
(0.0278251 0.000367767 -7.67095e-25)
(0.0278175 0.000340595 7.53971e-25)
(0.0278104 0.000312541 -3.77895e-24)
(0.0278039 0.000284696 -2.10418e-24)
(0.027798 0.000257744 1.50557e-23)
(0.0277926 0.000232075 -1.15794e-23)
(0.0277876 0.000207875 -6.98797e-24)
(0.0277829 0.000185204 6.49663e-24)
(0.0277784 0.000164037 -7.41912e-24)
(0.0277742 0.000144305 1.73335e-23)
(0.02777 0.00012591 8.74715e-24)
(0.0277661 0.000108747 -3.26871e-23)
(0.0277622 9.27028e-05 2.2593e-23)
(0.0277588 7.76702e-05 -4.61174e-24)
(0.0290427 0.000394173 1.41342e-24)
(0.0290447 0.000372349 2.0382e-24)
(0.029045 0.000347518 -4.70251e-24)
(0.0290443 0.000321334 8.84832e-25)
(0.0290434 0.000294958 -6.5038e-25)
(0.0290422 0.000269113 -5.20632e-24)
(0.0290409 0.00024422 -6.54154e-24)
(0.0290395 0.000220494 1.5902e-23)
(0.029038 0.000198017 1.61295e-23)
(0.0290364 0.000176788 -3.89725e-23)
(0.0290348 0.00015676 2.22289e-23)
(0.029033 0.000137859 -1.53984e-24)
(0.0290312 0.000120002 -1.26892e-24)
(0.0290294 0.000103099 1.70824e-24)
(0.0290277 8.70605e-05 -7.87336e-25)
(0.0296516 0.000385958 -3.75386e-24)
(0.029662 0.000366926 -7.72661e-24)
(0.02967 0.000344497 4.67422e-24)
(0.0296762 0.000320449 1.32196e-23)
(0.0296814 0.000295898 -3.56046e-24)
(0.0296856 0.000271527 -2.69596e-25)
(0.0296892 0.00024775 -1.18824e-25)
(0.0296922 0.000224788 -8.02979e-24)
(0.0296948 0.000202745 1.98875e-23)
(0.0296968 0.000181645 -8.50614e-24)
(0.0296985 0.000161476 4.384e-24)
(0.0296999 0.000142192 -7.14959e-24)
(0.029701 0.000123745 -7.93943e-24)
(0.0297018 0.000106072 1.184e-23)
(0.0297025 8.91154e-05 -5.15733e-24)
(0.0294546 0.000371892 5.95842e-24)
(0.0294702 0.0003551 -1.37403e-23)
(0.0294834 0.000334964 2.22519e-24)
(0.0294946 0.000313056 2.00691e-23)
(0.0295043 0.000290383 -1.94974e-23)
(0.0295128 0.000267564 6.77646e-24)
(0.0295204 0.000244979 4.20561e-24)
(0.0295271 0.000222848 -9.36988e-24)
(0.0295331 0.000201287 2.62103e-24)
(0.0295384 0.000180349 6.52611e-25)
(0.0295431 0.00016005 -1.32525e-24)
(0.0295473 0.000140383 2.57335e-24)
(0.029551 0.000121328 -3.1293e-24)
(0.0295544 0.000102856 2.11422e-24)
(0.0295574 8.49371e-05 -9.81057e-25)
(0.0285053 0.00034885 3.71036e-24)
(0.0285299 0.000333898 -7.92142e-24)
(0.028551 0.000315929 -5.78679e-24)
(0.0285691 0.000296219 2.71353e-23)
(0.0285846 0.000275627 -2.54511e-23)
(0.0285981 0.000254678 2.56888e-24)
(0.0286099 0.000233698 4.43681e-24)
(0.0286201 0.000212883 2.5754e-24)
(0.028629 0.000192353 2.34646e-24)
(0.0286368 0.000172174 -1.15392e-23)
(0.0286435 0.000152387 7.3567e-24)
(0.0286493 0.000133011 6.63524e-25)
(0.0286542 0.000114052 3.24814e-25)
(0.0286585 9.55045e-05 -3.10931e-26)
(0.0286621 7.7363e-05 3.51852e-25)
(0.0269339 0.000318011 9.28456e-24)
(0.0269629 0.000304552 -1.67053e-23)
(0.0269889 0.000288513 3.35369e-24)
(0.0270119 0.000270911 -9.05067e-24)
(0.0270324 0.000252436 -1.25438e-23)
(0.0270507 0.000233506 4.11723e-23)
(0.0270671 0.000214387 -1.65135e-23)
(0.0270819 0.000195244 4.9227e-24)
(0.0270951 0.000176188 -2.82995e-24)
(0.0271069 0.000157294 -7.73676e-24)
(0.0271175 0.000138615 1.47696e-23)
(0.027127 0.000120182 -8.39374e-24)
(0.0271354 0.000102023 1.10614e-24)
(0.0271429 8.41468e-05 1.18305e-24)
(0.0271495 6.6575e-05 -1.14587e-25)
(0.0250468 0.000287467 3.58978e-24)
(0.0250807 0.000275202 -1.91205e-23)
(0.0251114 0.000260761 3.41002e-23)
(0.0251391 0.00024493 -2.6825e-23)
(0.025164 0.000228246 2.83766e-23)
(0.0251866 0.000211035 -9.0122e-24)
(0.025207 0.000193516 -6.59178e-24)
(0.0252255 0.000175834 -7.92559e-24)
(0.0252422 0.000158097 1.5198e-23)
(0.0252573 0.000140385 2.43404e-25)
(0.0252708 0.000122759 -1.54985e-23)
(0.0252831 0.000105266 -2.27955e-24)
(0.025294 8.79411e-05 3.9926e-24)
(0.0253038 7.0808e-05 -9.07157e-25)
(0.0253125 5.38888e-05 2.00492e-25)
(0.0229861 0.000254634 4.79238e-25)
(0.0230252 0.000243472 -7.26662e-24)
(0.0230611 0.000230479 -4.5357e-24)
(0.0230935 0.000216253 3.55776e-23)
(0.023123 0.000201206 -3.5969e-23)
(0.0231498 0.000185603 1.07584e-23)
(0.0231741 0.000169627 1.92907e-24)
(0.0231962 0.000153414 -1.07478e-24)
(0.0232163 0.00013707 -5.48719e-24)
(0.0232344 0.000120675 2.47124e-23)
(0.0232507 0.000104294 -2.00565e-23)
(0.0232654 8.79739e-05 -1.11465e-24)
(0.0232784 7.17562e-05 1.92159e-24)
(0.02329 5.56711e-05 1.90138e-24)
(0.0233002 3.97443e-05 -1.50803e-24)
(0.0208614 0.000220024 7.14748e-25)
(0.0209051 0.000209972 6.81991e-24)
(0.0209453 0.000198394 -7.78002e-24)
(0.0209819 0.000185747 -5.83861e-24)
(0.0210152 0.000172347 3.85821e-23)
(0.0210455 0.00015841 -2.95011e-23)
(0.0210731 0.000144093 -5.1653e-25)
(0.0210981 0.000129518 -6.8332e-24)
(0.0211208 0.000114783 -7.28396e-25)
(0.0211412 9.99608e-05 9.34784e-25)
(0.0211595 8.51149e-05 -4.65271e-24)
(0.0211758 7.02922e-05 3.40298e-24)
(0.0211901 5.55411e-05 1.14732e-24)
(0.0212027 4.08984e-05 1.16539e-24)
(0.0212134 2.64101e-05 1.65002e-24)
(0.018747 0.000185225 5.09936e-24)
(0.0187938 0.000176354 -7.91689e-24)
(0.0188368 0.00016623 -6.90397e-24)
(0.018876 0.000155213 2.11797e-23)
(0.0189118 0.000143537 -7.56494e-24)
(0.0189444 0.000131374 -1.16591e-23)
(0.0189739 0.000118855 3.97823e-24)
(0.0190006 0.000106086 9.98796e-24)
(0.0190246 9.3151e-05 -1.67172e-23)
(0.0190461 8.01188e-05 1.72696e-23)
(0.0190652 6.70475e-05 -9.72109e-24)
(0.0190819 5.39904e-05 4.45553e-24)
(0.0190963 4.09907e-05 -6.5024e-24)
(0.0191086 2.80934e-05 6.75329e-24)
(0.0191187 1.53349e-05 -1.75727e-24)
(0.016689 0.000151884 -9.89877e-25)
(0.0167369 0.000144272 -3.61248e-24)
(0.0167809 0.000135656 -1.20313e-23)
(0.0168211 0.000126318 3.36803e-23)
(0.0168576 0.000116423 -5.72254e-24)
(0.0168908 0.000106101 -1.00499e-23)
(0.0169208 9.54605e-05 3.87788e-24)
(0.0169478 8.45922e-05 -5.5537e-24)
(0.0169718 7.35688e-05 -1.32426e-23)
(0.0169931 6.24523e-05 1.26744e-23)
(0.0170116 5.12955e-05 6.12486e-25)
(0.0170275 4.01505e-05 -4.99844e-24)
(0.0170409 2.90551e-05 5.66296e-24)
(0.0170518 1.80616e-05 4.34082e-25)
(0.0170602 7.19254e-06 -5.33951e-25)
(0.0147149 0.000121358 3.80758e-24)
(0.0147621 0.000115038 5.97016e-24)
(0.0148053 0.000107941 -5.23067e-24)
(0.0148447 0.000100275 -1.25901e-23)
(0.0148805 9.2144e-05 1.76321e-23)
(0.014913 8.36501e-05 -2.00405e-23)
(0.0149421 7.48829e-05 -1.28537e-24)
(0.0149681 6.59178e-05 8.15126e-24)
(0.014991 5.68165e-05 3.01897e-24)
(0.015011 4.76322e-05 -7.01686e-24)
(0.0150281 3.84139e-05 -5.00487e-25)
(0.0150424 2.92063e-05 1.58782e-23)
(0.0150539 2.00527e-05 -6.14253e-24)
(0.0150627 1.09874e-05 -1.74072e-24)
(0.0150689 2.04136e-06 -1.23514e-25)
(0.0128412 9.45031e-05 -3.95219e-24)
(0.012886 8.94427e-05 5.12436e-24)
(0.012927 8.38055e-05 6.56586e-25)
(0.0129644 7.77252e-05 1.15973e-23)
(0.0129984 7.12624e-05 -9.22246e-24)
(0.013029 6.45002e-05 1.00888e-24)
(0.0130563 5.75116e-05 -8.8623e-25)
(0.0130805 5.03578e-05 -3.27859e-24)
(0.0131016 4.30893e-05 3.32131e-24)
(0.0131197 3.57518e-05 -1.07759e-23)
(0.0131348 2.83875e-05 4.21098e-25)
(0.0131471 2.1036e-05 2.59812e-24)
(0.0131565 1.37357e-05 1.79584e-24)
(0.0131632 6.51249e-06 7.77049e-25)
(0.0131671 -6.07987e-07 3.35193e-25)
(0.0110778 7.16714e-05 2.92494e-24)
(0.0111191 6.77735e-05 -2.28815e-24)
(0.011157 6.34687e-05 -1.09122e-23)
(0.0111916 5.8818e-05 1.02674e-23)
(0.0112228 5.38594e-05 1.55002e-23)
(0.0112509 4.8662e-05 -3.4358e-24)
(0.0112759 4.3283e-05 -8.17287e-24)
(0.0112979 3.77701e-05 -1.26345e-23)
(0.0113168 3.21634e-05 9.75133e-24)
(0.0113328 2.65011e-05 7.11368e-25)
(0.011346 2.08172e-05 -2.45385e-24)
(0.0113563 1.51465e-05 -7.93951e-25)
(0.0113638 9.52016e-06 1.60026e-24)
(0.0113685 3.96135e-06 -1.25402e-26)
(0.0113706 -1.51192e-06 -3.80679e-25)
(0.00943073 5.28256e-05 -1.83931e-24)
(0.00946788 4.99461e-05 -1.42498e-24)
(0.009502 4.67946e-05 1.58894e-24)
(0.00953314 4.33711e-05 -5.71523e-24)
(0.00956133 3.9708e-05 1.8957e-23)
(0.00958661 3.58611e-05 -2.61377e-23)
(0.00960902 3.18724e-05 2.66168e-23)
(0.00962859 2.77777e-05 -1.15428e-23)
(0.00964537 2.36085e-05 2.91872e-24)
(0.00965938 1.93948e-05 2.37895e-25)
(0.00967066 1.51629e-05 -2.32242e-24)
(0.00967926 1.09413e-05 1.03626e-24)
(0.00968521 6.75483e-06 -2.10131e-24)
(0.00968857 2.62202e-06 -3.29749e-25)
(0.00968935 -1.4344e-06 1.76768e-25)
(0.00790287 3.76816e-05 -8.93057e-25)
(0.00793547 3.56504e-05 2.04895e-25)
(0.00796553 3.3446e-05 5.07391e-25)
(0.00799301 3.10287e-05 -2.57766e-24)
(0.00801791 2.84335e-05 -1.31653e-24)
(0.00804025 2.57015e-05 1.06888e-23)
(0.00806002 2.2862e-05 -6.38009e-24)
(0.00807726 1.99413e-05 1.00939e-24)
(0.00809196 1.69627e-05 -9.57523e-25)
(0.00810415 1.39487e-05 -1.15099e-24)
(0.00811385 1.09194e-05 -4.23553e-25)
(0.00812111 7.89511e-06 2.44196e-24)
(0.00812594 4.89631e-06 8.23018e-25)
(0.00812841 1.94044e-06 -1.63408e-24)
(0.00812854 -9.51712e-07 -2.92324e-25)
(0.00649481 2.58297e-05 -3.24539e-25)
(0.00652272 2.44701e-05 -1.22416e-25)
(0.00654858 2.30048e-05 -5.61957e-24)
(0.00657229 2.13776e-05 1.30979e-24)
(0.00659384 1.96256e-05 -4.535e-24)
(0.0066132 1.77756e-05 2.77267e-24)
(0.00663037 1.58472e-05 5.95676e-24)
(0.00664533 1.38588e-05 4.87008e-24)
(0.00665808 1.18269e-05 -7.03657e-24)
(0.00666865 9.76749e-06 2.13342e-24)
(0.00667702 7.69502e-06 2.03667e-24)
(0.00668325 5.62336e-06 -3.15443e-24)
(0.00668734 3.56763e-06 1.69771e-24)
(0.00668934 1.54296e-06 -2.06846e-25)
(0.00668929 -4.25527e-07 5.44709e-25)
(0.00520501 1.68174e-05 -1.27032e-24)
(0.00522821 1.59625e-05 -1.84261e-24)
(0.00524986 1.50459e-05 -4.49348e-25)
(0.00526979 1.40129e-05 4.6673e-24)
(0.00528796 1.28983e-05 -3.49018e-24)
(0.00530435 1.17168e-05 -8.14708e-25)
(0.00531893 1.04809e-05 6.02498e-24)
(0.00533167 9.2027e-06 1.43863e-25)
(0.00534257 7.89315e-06 -1.22805e-24)
(0.00535163 6.56301e-06 -5.2256e-24)
(0.00535884 5.22216e-06 3.92997e-25)
(0.00536423 3.87982e-06 3.94778e-24)
(0.00536781 2.54573e-06 -5.21108e-25)
(0.00536962 1.22685e-06 -6.91889e-25)
(0.00536968 -4.50957e-08 4.72844e-25)
(0.00403011 1.01969e-05 -2.77488e-25)
(0.00404869 9.69968e-06 7.68948e-27)
(0.00406616 9.1696e-06 2.20936e-24)
(0.00408231 8.56335e-06 1.60905e-24)
(0.00409712 7.90803e-06 -9.64604e-25)
(0.00411053 7.20995e-06 -2.72581e-24)
(0.00412252 6.47661e-06 1.19157e-24)
(0.00413305 5.71534e-06 -5.20246e-24)
(0.00414212 4.93294e-06 4.04288e-24)
(0.00414971 4.13611e-06 2.30009e-24)
(0.00415582 3.33108e-06 1.32868e-25)
(0.00416045 2.52374e-06 -2.70051e-24)
(0.00416362 1.71997e-06 5.4186e-25)
(0.00416534 9.22039e-07 -4.62488e-25)
(0.00416564 1.54989e-07 2.41224e-25)
(0.00296523 5.54783e-06 -5.10684e-25)
(0.00297933 5.28621e-06 -5.98733e-27)
(0.0029927 5.01145e-06 1.75915e-24)
(0.00300511 4.69374e-06 -1.10621e-24)
(0.00301656 4.34992e-06 4.91705e-24)
(0.00302699 3.98167e-06 -9.10259e-24)
(0.00303636 3.59308e-06 7.72854e-24)
(0.00304466 3.18812e-06 -6.72195e-24)
(0.00305186 2.77052e-06 5.04428e-24)
(0.00305794 2.34405e-06 -3.4048e-24)
(0.0030629 1.91221e-06 1.19748e-24)
(0.00306674 1.47843e-06 1.85917e-25)
(0.00306947 1.04606e-06 3.49544e-25)
(0.00307109 6.16594e-07 -4.43934e-25)
(0.00307162 1.98244e-07 9.92401e-26)
(0.00200437 2.50274e-06 7.74609e-25)
(0.00201417 2.38266e-06 8.89177e-25)
(0.00202353 2.26259e-06 -3.76187e-24)
(0.00203226 2.1238e-06 2.81721e-24)
(0.00204037 1.97371e-06 -2.38421e-27)
(0.0020478 1.81237e-06 8.30939e-25)
(0.00205453 1.64169e-06 -9.568e-25)
(0.00206053 1.46352e-06 -2.20716e-24)
(0.00206578 1.27958e-06 2.24736e-24)
(0.00207027 1.09167e-06 2.92514e-25)
(0.00207399 9.01414e-07 -2.02515e-24)
(0.00207693 7.10495e-07 7.21229e-25)
(0.0020791 5.20599e-07 4.89707e-25)
(0.0020805 3.32442e-07 -5.38458e-26)
(0.00208114 1.48033e-07 -6.7116e-26)
(0.00114071 7.83192e-07 -7.81449e-25)
(0.0011464 7.48291e-07 2.44069e-24)
(0.00115189 7.17642e-07 1.57468e-24)
(0.00115703 6.80263e-07 -2.71752e-24)
(0.00116184 6.37918e-07 -3.24496e-25)
(0.00116628 5.90745e-07 -3.10303e-25)
(0.00117034 5.39597e-07 1.00667e-24)
(0.00117398 4.85263e-07 -1.74225e-24)
(0.0011772 4.28462e-07 2.50329e-24)
(0.00117999 3.69927e-07 -1.22211e-24)
(0.00118233 3.10311e-07 -8.79335e-25)
(0.00118422 2.50282e-07 5.5624e-25)
(0.00118567 1.90599e-07 -7.56164e-25)
(0.00118667 1.31329e-07 7.8637e-25)
(0.00118723 7.30261e-08 -1.46928e-25)
(0.000367009 1.4213e-07 -5.57764e-27)
(0.000368817 1.74906e-07 4.78795e-25)
(0.000370583 2.03042e-07 5.82097e-25)
(0.000372255 2.2329e-07 -8.82388e-25)
(0.000373836 2.36141e-07 1.98406e-24)
(0.000375311 2.41918e-07 -2.14436e-24)
(0.000376673 2.41041e-07 1.52883e-25)
(0.000377911 2.33879e-07 1.34417e-24)
(0.000379019 2.20767e-07 -1.86434e-24)
(0.000379992 2.02042e-07 -3.8935e-25)
(0.000380825 1.78034e-07 1.45286e-24)
(0.000381515 1.49073e-07 -6.5758e-25)
(0.000382062 1.15578e-07 -2.83783e-25)
(0.000382465 7.77112e-08 2.42973e-25)
(0.000382719 3.56757e-08 -1.21612e-26)
(0.000892413 -0.000240179 9.08108e-26)
(0.00101928 -0.000164824 2.38128e-24)
(0.00123323 -8.54019e-05 -6.92701e-24)
(0.00145165 -1.92066e-05 1.02276e-23)
(0.00166143 3.56358e-05 -3.83866e-24)
(0.00186773 7.99668e-05 -3.80276e-24)
(0.00207102 0.000115986 4.37408e-24)
(0.0022724 0.000145455 -8.77792e-24)
(0.0024729 0.000169739 4.90028e-25)
(0.00267328 0.00018989 5.62812e-24)
(0.00287411 0.000206759 -1.09929e-24)
(0.00307588 0.00022111 1.21326e-24)
(0.0032791 0.000233626 -1.05179e-25)
(0.00348451 0.000244897 8.30193e-25)
(0.00369326 0.000255489 -3.06703e-24)
(0.00390689 0.000265848 1.70575e-24)
(0.00412761 0.000276061 -5.8791e-25)
(0.0043586 0.000285774 1.62215e-26)
(0.00460438 0.000293872 1.49544e-24)
(0.00487054 0.000297932 -9.50899e-25)
(0.00516394 0.000292824 1.21034e-25)
(0.00548947 0.000270098 -1.05395e-25)
(0.00582078 0.000218958 1.89478e-25)
(0.00611431 0.000140798 6.87251e-25)
(0.00635529 4.37425e-05 -1.23715e-24)
(0.006543 -6.6312e-05 -7.64338e-25)
(0.00667957 -0.000185091 7.69692e-26)
(0.00676833 -0.00030838 1.81405e-24)
(0.00681182 -0.000432085 2.22141e-24)
(0.00681179 -0.000552662 -4.32517e-24)
(0.00676961 -0.000666451 3.03882e-24)
(0.00668653 -0.000769145 -2.30919e-24)
(0.00656389 -0.000855642 3.79454e-25)
(0.00640328 -0.000920047 -1.28406e-24)
(0.00620659 -0.000955692 1.22944e-24)
(0.00597592 -0.000955078 8.73487e-24)
(0.00571355 -0.00090959 -2.37286e-24)
(0.00542182 -0.000808779 2.26599e-24)
(0.0051033 -0.000638988 1.21372e-24)
(0.00476126 -0.000381705 -1.29742e-23)
(0.0043987 -1.45398e-05 -1.58578e-25)
(0.00401968 0.000478235 5.51735e-24)
(0.00361141 0.00106973 1.84487e-24)
(0.00318941 0.00164038 -7.81056e-24)
(0.00294871 0.00181213 -3.96787e-25)
(0.0016783 -0.000317015 -2.69719e-24)
(0.00172951 -0.000274414 -3.9004e-24)
(0.00185954 -0.000197612 8.12232e-24)
(0.00202394 -0.000124367 3.91339e-24)
(0.00219911 -5.9692e-05 -1.3706e-23)
(0.00238083 -5.47504e-06 1.47964e-23)
(0.00256561 3.94319e-05 -5.32549e-24)
(0.00275227 7.67166e-05 4.37056e-24)
(0.00294057 0.000107856 -5.77106e-24)
(0.00313056 0.000134055 5.55998e-26)
(0.00332241 0.000156287 -3.22061e-24)
(0.00351637 0.000175407 6.42915e-24)
(0.0037128 0.000192145 -3.62877e-24)
(0.00391235 0.000207102 -3.4843e-24)
(0.00411607 0.000220859 -2.56517e-24)
(0.00432539 0.000233866 4.50831e-24)
(0.00454236 0.000246187 -6.72844e-25)
(0.00476996 0.000257444 2.69391e-24)
(0.00501239 0.000266522 5.03004e-25)
(0.00527485 0.000271043 -8.54089e-25)
(0.00556374 0.000266081 -3.71207e-25)
(0.00588361 0.000243633 -2.19362e-25)
(0.00620885 0.000193556 1.0337e-24)
(0.00649729 0.000117649 1.15713e-24)
(0.00673475 2.39824e-05 -1.12662e-24)
(0.00692042 -8.17302e-05 -4.79943e-24)
(0.00705621 -0.000195397 6.26443e-24)
(0.00714527 -0.000312841 -4.14625e-24)
(0.00719006 -0.000429865 1.36946e-24)
(0.0071923 -0.00054281 -6.40557e-25)
(0.00715354 -0.000647952 4.32166e-24)
(0.00707527 -0.000740963 -4.55882e-24)
(0.00695921 -0.000816768 5.90435e-25)
(0.00680747 -0.000869536 6.50689e-24)
(0.00662259 -0.000892681 -1.1739e-23)
(0.00640765 -0.000878797 3.24913e-24)
(0.00616629 -0.000819398 1.57345e-23)
(0.00590298 -0.000704305 -4.31403e-24)
(0.00562358 -0.000520488 -1.26694e-23)
(0.00533699 -0.00025054 -7.66093e-24)
(0.00505655 0.000126773 1.7495e-23)
(0.00480505 0.000627478 -1.69879e-23)
(0.00460692 0.00122521 -4.08769e-24)
(0.00450207 0.00178891 1.11736e-23)
(0.00453866 0.00190119 3.86e-24)
(0.00260708 -0.000322683 -3.09161e-26)
(0.00261177 -0.000318565 -4.42023e-24)
(0.0026645 -0.000272394 8.65617e-24)
(0.00276583 -0.000209165 7.51698e-24)
(0.00289289 -0.000145149 -1.22042e-23)
(0.00303736 -8.69395e-05 2.4103e-25)
(0.00319287 -3.64153e-05 1.20858e-24)
(0.00335588 6.85025e-06 1.33971e-23)
(0.00352453 4.38104e-05 -1.59131e-23)
(0.00369779 7.54668e-05 1.00009e-23)
(0.0038752 0.00010273 3.21598e-24)
(0.00405659 0.000126444 -1.72607e-23)
(0.00424204 0.000147325 6.26097e-24)
(0.004432 0.000165944 2.63067e-24)
(0.00462738 0.000182877 -5.7781e-24)
(0.00482942 0.000198567 9.68836e-24)
(0.00504001 0.000213047 -7.08079e-24)
(0.00526187 0.000225905 -2.53484e-25)
(0.00549887 0.000236026 5.33754e-25)
(0.00575575 0.000241077 6.51227e-25)
(0.00603841 0.000236337 8.73777e-26)
(0.00635098 0.000214255 3.98695e-25)
(0.00666858 0.00016534 -1.03493e-24)
(0.00695059 9.17945e-05 3.00857e-24)
(0.00718337 1.65488e-06 -4.55002e-24)
(0.00736604 -9.95293e-05 2.57945e-24)
(0.00750025 -0.00020786 -5.37464e-24)
(0.00758899 -0.000319207 7.19915e-24)
(0.00763462 -0.000429252 -5.85482e-24)
(0.00763889 -0.000534224 8.65186e-25)
(0.0076035 -0.00063034 1.0397e-24)
(0.00753024 -0.000713267 5.39787e-24)
(0.00742125 -0.000777987 -1.41454e-24)
(0.00727916 -0.000818797 3.43523e-24)
(0.00710727 -0.000829312 -1.06466e-23)
(0.00690966 -0.000802435 1.94037e-23)
(0.00669141 -0.000730194 -1.35144e-23)
(0.00645907 -0.000603353 2.04172e-23)
(0.00622161 -0.000410781 -3.91641e-23)
(0.00599259 -0.000138732 1.49432e-23)
(0.00579259 0.00022774 5.2366e-24)
(0.00565391 0.000695946 8.41025e-24)
(0.00561301 0.00123211 -1.0479e-23)
(0.00569356 0.00170675 3.23557e-24)
(0.00586856 0.00179131 -2.01555e-24)
(0.00366424 -0.000303463 -1.15873e-24)
(0.00364209 -0.000323334 -1.80303e-24)
(0.00364696 -0.000304781 -7.78586e-24)
(0.00368776 -0.000264089 2.01141e-24)
(0.00376237 -0.000210665 1.3414e-24)
(0.00386136 -0.00015607 6.31203e-24)
(0.00397844 -0.000105129 -1.35607e-23)
(0.00410908 -5.93123e-05 5.08232e-24)
(0.00425011 -1.87863e-05 1.76378e-23)
(0.00439952 1.6827e-05 -4.62393e-24)
(0.00455612 4.81039e-05 -4.48612e-24)
(0.00471922 7.57137e-05 -7.35777e-25)
(0.00488852 0.000100251 2.52039e-24)
(0.00506424 0.000122188 -5.0448e-24)
(0.00524708 0.000142055 1.11664e-24)
(0.00543806 0.000160266 -5.33004e-25)
(0.00563884 0.000176795 -2.95379e-24)
(0.00585188 0.000191185 9.1791e-25)
(0.0060807 0.000202314 5.34113e-24)
(0.0063295 0.000207894 -5.95661e-25)
(0.00660367 0.000203412 -1.26699e-24)
(0.00690679 0.000181776 -3.44422e-25)
(0.00721475 0.000134153 -1.82564e-24)
(0.00748855 6.31356e-05 7.34007e-29)
(0.00771512 -2.32707e-05 -3.87977e-24)
(0.00789343 -0.00011966 6.89499e-24)
(0.00802493 -0.000222351 -5.40321e-24)
(0.00811242 -0.000327268 1.01853e-23)
(0.00815817 -0.000429973 -8.12843e-24)
(0.008164 -0.000526586 2.03616e-24)
(0.00813176 -0.000613301 2.7839e-24)
(0.00806359 -0.00068582 -2.48332e-25)
(0.00796205 -0.000739256 -3.96985e-25)
(0.00783035 -0.000768141 -1.28441e-24)
(0.00767253 -0.00076647 1.52068e-24)
(0.00749366 -0.00072773 -6.13632e-24)
(0.00730014 -0.000644892 2.91018e-23)
(0.00710027 -0.000510345 -1.54267e-23)
(0.00690526 -0.0003159 -4.91396e-25)
(0.00673113 -5.30798e-05 -3.55057e-23)
(0.00660056 0.000284386 2.6953e-23)
(0.00654488 0.000693286 -1.01731e-23)
(0.00659594 0.0011376 2.04898e-24)
(0.00676023 0.00151686 1.36672e-23)
(0.00699474 0.00163507 -3.58611e-24)
(0.00484713 -0.000273799 -4.81303e-24)
(0.0048145 -0.000304182 9.87192e-24)
(0.0047917 -0.000303805 2.83642e-24)
(0.00479214 -0.00028554 1.239e-23)
(0.00481769 -0.000249914 -3.05472e-23)
(0.00487024 -0.000205454 -9.24718e-25)
(0.00494427 -0.000159907 1.49619e-24)