/*--------------------------------*- C++ -*----------------------------------*\
| =========                 |                                                 |
| \\      /  F ield         | OpenFOAM: The Open Source CFD Toolbox           |
|  \\    /   O peration     | Version:  2312                                  |
|   \\  /    A nd           | Website:  www.openfoam.com                      |
|    \\/     M anipulation  |                                                 |
\*---------------------------------------------------------------------------*/
FoamFile
{
    version     2.0;
    format      ascii;
    arch        "LSB;label=32;scalar=64";
    class       surfaceScalarField;
    location    "102.75";
    object      phi;
}
// * * * * * * * * * * * * * * * * * * * * * * * * * * * * * * * * * * * * * //

dimensions      [0 3 -1 0 0 0 0];

oriented        oriented;

internalField   nonuniform List<scalar> 
9445
(
5.6903e-10
1.23065e-11
5.62243e-10
6.78699e-12
5.58856e-10
3.38704e-12
5.57731e-10
1.12475e-12
5.58272e-10
-5.40645e-13
5.59809e-10
-1.53709e-12
5.62269e-10
-2.46062e-12
5.65684e-10
-3.41451e-12
5.70167e-10
-4.4831e-12
5.76062e-10
-5.89488e-12
5.84458e-10
-8.39621e-12
5.98876e-10
-1.44182e-11
6.31644e-10
-3.27676e-11
7.25647e-10
-9.40035e-11
-2.40588e-10
9.66235e-10
1.99137e-09
5.33946e-11
1.96864e-09
2.95192e-11
1.95718e-09
1.48479e-11
1.95327e-09
5.0381e-12
1.95458e-09
-1.85233e-12
1.95918e-09
-6.13599e-12
1.96681e-09
-1.0091e-11
1.97737e-09
-1.3978e-11
1.99119e-09
-1.83023e-11
2.00931e-09
-2.40116e-11
2.03449e-09
-3.35814e-11
2.07349e-09
-5.34139e-11
2.13924e-09
-9.85243e-11
2.24368e-09
-1.98444e-10
-3.48908e-10
2.35201e-09
3.93809e-09
1.31062e-10
3.89496e-09
7.26539e-11
3.873e-09
3.6807e-11
3.8652e-09
1.28397e-11
3.86687e-09
-3.52532e-12
3.87463e-09
-1.38984e-11
3.88795e-09
-2.3412e-11
3.90635e-09
-3.23707e-11
3.93009e-09
-4.20496e-11
3.96051e-09
-5.44217e-11
4.00035e-09
-7.3429e-11
4.05417e-09
-1.0723e-10
4.12455e-09
-1.68906e-10
4.19806e-09
-2.7195e-10
-3.91064e-10
4.24021e-09
6.5546e-09
2.53959e-10
6.48594e-09
1.41319e-10
6.45051e-09
7.22367e-11
6.43717e-09
2.6174e-11
6.43836e-09
-4.71226e-12
6.44895e-09
-2.44871e-11
6.46785e-09
-4.23179e-11
6.49394e-09
-5.8453e-11
6.52696e-09
-7.50716e-11
6.56771e-09
-9.51777e-11
6.61734e-09
-1.23056e-10
6.67562e-09
-1.65507e-10
6.73635e-09
-2.29639e-10
6.78049e-09
-3.16093e-10
-3.98529e-10
6.78796e-09
1.00168e-08
4.3067e-10
9.91721e-09
2.40903e-10
9.86495e-09
1.24492e-10
9.84387e-09
4.72531e-11
9.84319e-09
-4.02933e-12
9.85585e-09
-3.71488e-11
9.87947e-09
-6.59392e-11
9.9121e-09
-9.10802e-11
9.95249e-09
-1.1546e-10
1.00002e-08
-1.42862e-10
1.00539e-08
-1.76823e-10
1.01096e-08
-2.2116e-10
1.01573e-08
-2.77348e-10
1.01813e-08
-3.40138e-10
-3.90667e-10
1.01735e-08
1.45323e-08
6.67602e-10
1.43973e-08
3.75929e-10
1.43251e-08
1.96689e-10
1.42938e-08
7.85439e-11
1.42894e-08
3.23435e-13
1.4303e-08
-5.07612e-11
1.43299e-08
-9.27788e-11
1.4367e-08
-1.28152e-10
1.44118e-08
-1.60343e-10
1.44624e-08
-1.9342e-10
1.45153e-08
-2.29755e-10
1.45646e-08
-2.70407e-10
1.46009e-08
-3.13671e-10
1.46145e-08
-3.53759e-10
-3.80193e-10
1.4604e-08
2.03383e-08
9.6494e-10
2.01665e-08
5.47733e-10
2.00729e-08
2.90293e-10
2.00298e-08
1.21664e-10
2.00201e-08
1.00174e-11
2.00332e-08
-6.38694e-11
2.00616e-08
-1.21113e-10
2.01006e-08
-1.67146e-10
2.01467e-08
-2.06519e-10
2.01964e-08
-2.43069e-10
2.0245e-08
-2.78342e-10
2.02866e-08
-3.11997e-10
2.03146e-08
-3.41739e-10
2.03246e-08
-3.63719e-10
-3.73458e-10
2.03178e-08
2.76949e-08
1.3103e-09
2.74921e-08
7.50535e-10
2.73798e-08
4.02597e-10
2.73259e-08
1.7554e-10
2.73109e-08
2.50298e-11
2.73224e-08
-7.53659e-11
2.73507e-08
-1.49402e-10
2.73897e-08
-2.06111e-10
2.74346e-08
-2.51418e-10
2.74808e-08
-2.89236e-10
2.75234e-08
-3.21037e-10
2.7558e-08
-3.46579e-10
2.75809e-08
-3.6459e-10
2.75907e-08
-3.73584e-10
-3.72545e-10
2.75898e-08
3.68751e-08
1.67158e-09
3.66592e-08
9.66394e-10
3.65386e-08
5.23199e-10
3.64802e-08
2.33938e-10
3.64634e-08
4.18794e-11
3.64746e-08
-8.66115e-11
3.6503e-08
-1.77852e-10
3.65414e-08
-2.44502e-10
3.65842e-08
-2.94147e-10
3.66263e-08
-3.31413e-10
3.66639e-08
-3.58544e-10
3.66937e-08
-3.76387e-10
3.67143e-08
-3.85225e-10
3.67262e-08
-3.85455e-10
-3.77837e-10
3.67315e-08
4.81611e-08
1.99487e-09
4.79653e-08
1.1622e-09
4.78572e-08
6.31204e-10
4.7808e-08
2.83173e-10
4.77982e-08
5.16511e-11
4.78148e-08
-1.03215e-10
4.7847e-08
-2.09957e-10
4.7887e-08
-2.84593e-10
4.79295e-08
-3.36597e-10
4.797e-08
-3.71872e-10
4.80054e-08
-3.93987e-10
4.80342e-08
-4.05218e-10
4.80563e-08
-4.07255e-10
4.80725e-08
-4.01715e-10
-3.90189e-10
4.80849e-08
6.18684e-08
2.21838e-09
6.1735e-08
1.29563e-09
6.16685e-08
6.97703e-10
6.16485e-08
3.03156e-10
6.16601e-08
4.01038e-11
6.1692e-08
-1.3521e-10
6.17351e-08
-2.5303e-10
6.17827e-08
-3.32133e-10
6.183e-08
-3.83928e-10
6.1874e-08
-4.1583e-10
6.19128e-08
-4.32816e-10
6.1946e-08
-4.38431e-10
6.19741e-08
-4.35361e-10
6.19983e-08
-4.25892e-10
-4.11941e-10
6.202e-08
7.84184e-08
2.30666e-09
7.83779e-08
1.33622e-09
7.83766e-08
6.98925e-10
7.84039e-08
2.75863e-10
7.84506e-08
-6.5205e-12
7.85085e-08
-1.93124e-10
7.85709e-08
-3.15494e-10
7.86332e-08
-3.94405e-10
7.86923e-08
-4.42987e-10
7.87464e-08
-4.70014e-10
7.87952e-08
-4.81585e-10
7.88389e-08
-4.82114e-10
7.88784e-08
-4.74857e-10
7.89149e-08
-4.62375e-10
-4.46651e-10
7.89496e-08
9.84313e-08
2.28075e-09
9.84765e-08
1.29102e-09
9.85392e-08
6.36208e-10
9.86146e-08
2.00467e-10
9.86981e-08
-9.00286e-11
9.87841e-08
-2.79083e-10
9.88685e-08
-3.999e-10
9.89486e-08
-4.74572e-10
9.90232e-08
-5.17563e-10
9.90918e-08
-5.38658e-10
9.91549e-08
-5.44671e-10
9.92133e-08
-5.40475e-10
9.9268e-08
-5.29572e-10
9.93202e-08
-5.14562e-10
-4.97353e-10
9.93709e-08
1.22718e-07
2.20064e-09
1.22806e-07
1.20326e-09
1.22901e-07
5.40902e-10
1.23002e-07
1.00198e-10
1.23104e-07
-1.92918e-10
1.23205e-07
-3.79984e-10
1.23302e-07
-4.96644e-10
1.23393e-07
-5.6589e-10
1.23479e-07
-6.03141e-10
1.23559e-07
-6.18848e-10
1.23635e-07
-6.2022e-10
1.23707e-07
-6.12328e-10
1.23776e-07
-5.98736e-10
1.23843e-07
-5.81981e-10
-5.63845e-10
1.2391e-07
1.52072e-07
2.10885e-09
1.52162e-07
1.11335e-09
1.52253e-07
4.49542e-10
1.52349e-07
4.5516e-12
1.52444e-07
-2.88862e-10
1.52539e-07
-4.74327e-10
1.5263e-07
-5.88141e-10
1.52719e-07
-6.54083e-10
1.52803e-07
-6.88095e-10
1.52886e-07
-7.0099e-10
1.52966e-07
-7.0018e-10
1.53044e-07
-6.90812e-10
1.53122e-07
-6.76437e-10
1.53199e-07
-6.59508e-10
-6.41692e-10
1.53277e-07
1.86978e-07
2.00296e-09
1.87063e-07
1.02862e-09
1.87139e-07
3.73264e-10
1.87216e-07
-7.22442e-11
1.87291e-07
-3.64174e-10
1.87366e-07
-5.48903e-10
1.8744e-07
-6.62406e-10
1.87514e-07
-7.28359e-10
1.87589e-07
-7.62683e-10
1.87664e-07
-7.76244e-10
1.8774e-07
-7.7649e-10
1.87818e-07
-7.68551e-10
1.87898e-07
-7.55926e-10
1.87979e-07
-7.40984e-10
-7.25275e-10
1.88063e-07
2.27465e-07
1.86029e-09
2.27561e-07
9.32844e-10
2.27631e-07
3.02811e-10
2.27694e-07
-1.35518e-10
2.27752e-07
-4.21588e-10
2.27807e-07
-6.04665e-10
2.27864e-07
-7.19131e-10
2.27923e-07
-7.87498e-10
2.27986e-07
-8.25024e-10
2.28052e-07
-8.42252e-10
2.28122e-07
-8.46452e-10
2.28196e-07
-8.42622e-10
2.28274e-07
-8.34153e-10
2.28356e-07
-8.23322e-10
-8.11615e-10
2.28443e-07
2.73014e-07
1.66779e-09
2.73132e-07
8.14243e-10
2.73209e-07
2.26071e-10
2.73267e-07
-1.93831e-10
2.73315e-07
-4.6901e-10
2.73359e-07
-6.48587e-10
2.73404e-07
-7.64281e-10
2.73453e-07
-8.36554e-10
2.73507e-07
-8.79398e-10
2.73568e-07
-9.02662e-10
2.73634e-07
-9.13201e-10
2.73707e-07
-9.15737e-10
2.73787e-07
-9.13464e-10
2.73872e-07
-9.08533e-10
-9.0237e-10
2.73963e-07
3.22247e-07
1.42779e-09
3.22391e-07
6.6965e-10
3.22478e-07
1.39988e-10
3.22539e-07
-2.55266e-10
3.22585e-07
-5.15331e-10
3.22627e-07
-6.89945e-10
3.22669e-07
-8.0642e-10
3.22715e-07
-8.82778e-10
3.22767e-07
-9.31644e-10
3.22827e-07
-9.61966e-10
3.22893e-07
-9.79986e-10
3.22968e-07
-9.90028e-10
3.23049e-07
-9.95033e-10
3.23138e-07
-9.97e-10
-9.96938e-10
3.23232e-07
3.7226e-07
1.14082e-09
3.72433e-07
4.9711e-10
3.72542e-07
3.13545e-11
3.72596e-07
-3.09585e-10
3.72623e-07
-5.42585e-10
3.72638e-07
-7.04952e-10
3.7265e-07
-8.18128e-10
3.72664e-07
-8.96796e-10
3.72684e-07
-9.5146e-10
3.72711e-07
-9.89609e-10
3.72748e-07
-1.01642e-09
3.72793e-07
-1.03549e-09
3.72848e-07
-1.04931e-09
3.7291e-07
-1.05963e-09
-1.06768e-09
3.72981e-07
3.70398e-07
8.38489e-10
3.70584e-07
3.11434e-10
3.70697e-07
-8.2528e-11
3.70756e-07
-3.68067e-10
3.70786e-07
-5.72947e-10
3.70803e-07
-7.21837e-10
3.70815e-07
-8.29966e-10
3.70827e-07
-9.09059e-10
3.70843e-07
-9.67649e-10
3.70866e-07
-1.01174e-09
3.70895e-07
-1.04548e-09
3.70931e-07
-1.07181e-09
3.70974e-07
-1.09277e-09
3.71025e-07
-1.10985e-09
-1.12392e-09
3.71081e-07
3.17973e-07
6.23567e-10
3.18093e-07
1.91602e-10
3.18145e-07
-1.34196e-10
3.18156e-07
-3.79534e-10
3.18146e-07
-5.62326e-10
3.18123e-07
-6.99521e-10
3.18097e-07
-8.03508e-10
3.18071e-07
-8.83308e-10
3.18049e-07
-9.45433e-10
3.18032e-07
-9.94584e-10
3.1802e-07
-1.0341e-09
3.18015e-07
-1.0664e-09
3.18015e-07
-1.09316e-09
3.18021e-07
-1.1156e-09
-1.13454e-09
3.18032e-07
2.66854e-07
4.1971e-10
2.66972e-07
7.39329e-11
2.67031e-07
-1.93228e-10
2.67049e-07
-3.98016e-10
2.67043e-07
-5.56095e-10
2.67022e-07
-6.78648e-10
2.66993e-07
-7.74727e-10
2.66961e-07
-8.51091e-10
2.66928e-07
-9.12643e-10
2.66897e-07
-9.62961e-10
2.66867e-07
-1.00463e-09
2.66841e-07
-1.03953e-09
2.66816e-07
-1.06899e-09
2.66795e-07
-1.09396e-09
-1.11508e-09
2.66775e-07
2.20405e-07
2.54955e-10
2.205e-07
-2.0345e-11
2.20543e-07
-2.36532e-10
2.20551e-07
-4.06675e-10
2.20537e-07
-5.41461e-10
2.20507e-07
-6.48947e-10
2.20468e-07
-7.35557e-10
2.20423e-07
-8.06249e-10
2.20375e-07
-8.64683e-10
2.20326e-07
-9.13531e-10
2.20276e-07
-9.54724e-10
2.20226e-07
-9.89674e-10
2.20176e-07
-1.01938e-09
2.20127e-07
-1.04456e-09
-1.06571e-09
2.20078e-07
1.79669e-07
1.31846e-10
1.79734e-07
-8.47029e-11
1.79756e-07
-2.58559e-10
1.79747e-07
-3.98274e-10
1.79718e-07
-5.11502e-10
1.79673e-07
-6.04023e-10
1.79617e-07
-6.80345e-10
1.79555e-07
-7.43986e-10
1.79488e-07
-7.97586e-10
1.79418e-07
-8.43081e-10
1.79345e-07
-8.81876e-10
1.7927e-07
-9.14999e-10
1.79194e-07
-9.43178e-10
1.79116e-07
-9.66946e-10
-9.86662e-10
1.79037e-07
1.44785e-07
5.02764e-11
1.44819e-07
-1.18355e-10
1.44817e-07
-2.56752e-10
1.44789e-07
-3.7016e-10
1.44741e-07
-4.64049e-10
1.4468e-07
-5.42444e-10
1.44608e-07
-6.08428e-10
1.44528e-07
-6.64419e-10
1.44443e-07
-7.12261e-10
1.44353e-07
-7.53325e-10
1.4426e-07
-7.88603e-10
1.44164e-07
-8.18826e-10
1.44065e-07
-8.44507e-10
1.43964e-07
-8.66026e-10
-8.83637e-10
1.43861e-07
1.15432e-07
5.02485e-12
1.1544e-07
-1.25715e-10
1.15418e-07
-2.34733e-10
1.15374e-07
-3.25946e-10
1.15313e-07
-4.03011e-10
1.15239e-07
-4.68602e-10
1.15155e-07
-5.24769e-10
1.15064e-07
-5.73139e-10
1.14966e-07
-6.14972e-10
1.14864e-07
-6.51209e-10
1.14758e-07
-6.82532e-10
1.14649e-07
-7.09442e-10
1.14537e-07
-7.3229e-10
1.14422e-07
-7.51341e-10
-7.66769e-10
1.14305e-07
9.10911e-08
-1.46211e-11
9.10805e-08
-1.15097e-10
9.10461e-08
-2.00323e-10
9.09933e-08
-2.73099e-10
9.0926e-08
-3.35754e-10
9.08474e-08
-3.89984e-10
9.07597e-08
-4.37125e-10
9.06649e-08
-4.78254e-10
9.05641e-08
-5.14208e-10
9.04585e-08
-5.45611e-10
9.03489e-08
-5.72916e-10
9.02359e-08
-5.96457e-10
9.01201e-08
-6.16465e-10
9.00019e-08
-6.33121e-10
-6.46536e-10
8.98816e-08
7.11601e-08
-1.90053e-11
7.11405e-08
-9.54838e-11
7.11017e-08
-1.61526e-10
7.10477e-08
-2.19032e-10
7.09813e-08
-2.69377e-10
7.09049e-08
-3.13594e-10
7.08203e-08
-3.52543e-10
7.0729e-08
-3.86922e-10
7.0632e-08
-4.17268e-10
7.05304e-08
-4.43979e-10
7.04248e-08
-4.67345e-10
7.0316e-08
-4.8758e-10
7.02043e-08
-5.04828e-10
7.00904e-08
-5.19208e-10
-5.30788e-10
6.99747e-08
5.50197e-08
-1.61061e-11
5.49978e-08
-7.35336e-11
5.49604e-08
-1.24096e-10
5.49102e-08
-1.68915e-10
5.48496e-08
-2.08717e-10
5.47801e-08
-2.4412e-10
5.47032e-08
-2.75673e-10
5.46201e-08
-3.03811e-10
5.45317e-08
-3.28866e-10
5.44388e-08
-3.51081e-10
5.43421e-08
-3.70634e-10
5.42422e-08
-3.87654e-10
5.41396e-08
-4.02224e-10
5.40348e-08
-4.14419e-10
-4.24273e-10
5.39283e-08
4.20722e-08
-1.07562e-11
4.20518e-08
-5.31414e-11
4.20189e-08
-9.1197e-11
4.19754e-08
-1.25455e-10
4.19229e-08
-1.56237e-10
4.18627e-08
-1.83918e-10
4.17959e-08
-2.08843e-10
4.17234e-08
-2.31274e-10
4.16459e-08
-2.51405e-10
4.15642e-08
-2.69378e-10
4.14789e-08
-2.85294e-10
4.13904e-08
-2.99222e-10
4.12994e-08
-3.11208e-10
4.12063e-08
-3.21293e-10
-3.2949e-10
4.11115e-08
3.17709e-08
-5.53759e-12
3.17539e-08
-3.61026e-11
3.17267e-08
-6.40854e-11
3.16909e-08
-8.95879e-11
3.16474e-08
-1.12719e-10
3.15972e-08
-1.33717e-10
3.15411e-08
-1.52798e-10
3.148e-08
-1.70109e-10
3.14143e-08
-1.85758e-10
3.13447e-08
-1.99819e-10
3.12718e-08
-2.12344e-10
3.11959e-08
-2.23366e-10
3.11176e-08
-2.32906e-10
3.10373e-08
-2.4098e-10
-2.4759e-10
3.09554e-08
2.36363e-08
-1.55573e-12
2.36232e-08
-2.29365e-11
2.36019e-08
-4.28747e-11
2.35736e-08
-6.1209e-11
2.35388e-08
-7.7963e-11
2.34984e-08
-9.33008e-11
2.34529e-08
-1.07351e-10
2.3403e-08
-1.20192e-10
2.33491e-08
-1.31878e-10
2.32918e-08
-1.4244e-10
2.32313e-08
-1.51903e-10
2.31682e-08
-1.60276e-10
2.31029e-08
-1.67566e-10
2.30357e-08
-1.73775e-10
-1.78898e-10
2.2967e-08
1.72596e-08
8.84925e-13
1.72502e-08
-1.3456e-11
1.72344e-08
-2.70761e-11
1.72128e-08
-3.96664e-11
1.71861e-08
-5.12426e-11
1.71547e-08
-6.19213e-11
1.71192e-08
-7.17756e-11
1.70798e-08
-8.08427e-11
1.70371e-08
-8.91445e-11
1.69913e-08
-9.66912e-11
1.69429e-08
-1.03489e-10
1.68922e-08
-1.09537e-10
1.68394e-08
-1.14834e-10
1.6785e-08
-1.19374e-10
-1.23148e-10
1.67293e-08
1.22991e-08
1.94265e-12
1.22928e-08
-7.13025e-12
1.22816e-08
-1.59136e-11
1.2266e-08
-2.40413e-11
1.22463e-08
-3.15561e-11
1.22229e-08
-3.85371e-11
1.21962e-08
-4.50231e-11
1.21663e-08
-5.10284e-11
1.21338e-08
-5.65585e-11
1.20987e-08
-6.16126e-11
1.20614e-08
-6.61892e-11
1.20221e-08
-7.02825e-11
1.19812e-08
-7.38889e-11
1.19388e-08
-7.6999e-11
-7.9601e-11
1.18952e-08
8.47239e-09
1.99227e-12
8.46856e-09
-3.2971e-12
8.46114e-09
-8.49541e-12
8.45041e-09
-1.33067e-11
8.43663e-09
-1.77762e-11
8.42005e-09
-2.19555e-11
8.40089e-09
-2.58636e-11
8.37936e-09
-2.95035e-11
8.35568e-09
-3.28737e-11
8.33003e-09
-3.59696e-11
8.30263e-09
-3.87872e-11
8.27367e-09
-4.13202e-11
8.24335e-09
-4.35648e-11
8.21186e-09
-4.55119e-11
-4.71485e-11
8.17941e-09
5.54846e-09
1.47172e-12
5.54642e-09
-1.25615e-12
5.54187e-09
-3.94224e-12
5.535e-09
-6.43243e-12
5.52598e-09
-8.75556e-12
5.51496e-09
-1.09414e-11
5.5021e-09
-1.29985e-11
5.48752e-09
-1.49259e-11
5.47136e-09
-1.67199e-11
5.45377e-09
-1.83759e-11
5.43487e-09
-1.98903e-11
5.41481e-09
-2.12583e-11
5.39372e-09
-2.24772e-11
5.37175e-09
-2.35401e-11
-2.44341e-11
5.34904e-09
3.33924e-09
7.74304e-13
3.33834e-09
-3.59581e-13
3.33584e-09
-1.44774e-12
3.33187e-09
-2.45852e-12
3.32652e-09
-3.40692e-12
3.31989e-09
-4.30532e-12
3.31204e-09
-5.15724e-12
3.30308e-09
-5.96025e-12
3.29307e-09
-6.71155e-12
3.2821e-09
-7.40818e-12
3.27026e-09
-8.04806e-12
3.25763e-09
-8.62829e-12
3.2443e-09
-9.14771e-12
3.23036e-09
-9.60186e-12
-9.98069e-12
3.21591e-09
1.69246e-09
2.09157e-13
1.69218e-09
-7.58522e-14
1.69105e-09
-3.18623e-13
1.68913e-09
-5.45757e-13
1.68649e-09
-7.61708e-13
1.68315e-09
-9.68782e-13
1.67916e-09
-1.16797e-12
1.67456e-09
-1.35644e-12
1.66938e-09
-1.53361e-12
1.66367e-09
-1.69837e-12
1.65747e-09
-1.85006e-12
1.65083e-09
-1.98775e-12
1.6438e-09
-2.11124e-12
1.63641e-09
-2.21836e-12
-2.3039e-12
1.62874e-09
4.8549e-10
4.85414e-10
4.85095e-10
4.8455e-10
4.83788e-10
4.82819e-10
4.81651e-10
4.80295e-10
4.78761e-10
4.77063e-10
4.75213e-10
4.73225e-10
4.71114e-10
4.68895e-10
4.66591e-10
1.15817e-09
-4.41569e-10
2.49638e-10
1.43531e-09
-3.40139e-10
6.29967e-11
1.71687e-09
-1.69719e-10
-1.11845e-10
1.99672e-09
8.27185e-12
-2.88124e-10
2.273e-09
1.88928e-10
-4.65201e-10
2.54644e-09
3.64687e-10
-6.38133e-10
2.81847e-09
5.32855e-10
-8.04879e-10
3.09014e-09
6.90817e-10
-9.62487e-10
3.36226e-09
8.3533e-10
-1.10745e-09
3.63542e-09
9.6262e-10
-1.23578e-09
3.91007e-09
1.06822e-09
-1.34287e-09
4.18663e-09
1.14675e-09
-1.42331e-09
4.46551e-09
1.19183e-09
-1.4707e-09
4.74709e-09
1.19593e-09
-1.47751e-09
5.03181e-09
1.15067e-09
-1.43539e-09
5.32024e-09
1.04812e-09
-1.33656e-09
5.61336e-09
8.82695e-10
-1.17581e-09
5.91304e-09
6.5478e-10
-9.54461e-10
6.22248e-09
3.72841e-10
-6.82282e-10
6.54646e-09
5.75323e-11
-3.81512e-10
6.89062e-09
-2.79651e-10
-6.45032e-11
7.25738e-09
-6.51126e-10
2.84364e-10
7.5872e-09
-9.63182e-10
6.33357e-10
7.85556e-09
-1.24802e-09
9.79666e-10
8.06199e-09
-1.5415e-09
1.33507e-09
8.20935e-09
-1.82761e-09
1.68025e-09
8.30204e-09
-2.08385e-09
1.99116e-09
8.34484e-09
-2.29914e-09
2.25634e-09
8.34074e-09
-2.46499e-09
2.46909e-09
8.29242e-09
-2.57327e-09
2.6216e-09
8.20281e-09
-2.6261e-09
2.7157e-09
8.07384e-09
-2.60977e-09
2.73874e-09
7.90744e-09
-2.5102e-09
2.6766e-09
7.70603e-09
-2.31996e-09
2.52136e-09
7.47226e-09
-2.03368e-09
2.26745e-09
7.20867e-09
-1.649e-09
1.91259e-09
6.91753e-09
-1.16575e-09
1.45689e-09
6.60088e-09
-5.83725e-10
9.00368e-10
6.26068e-09
1.00505e-10
2.39697e-10
5.89797e-09
8.95224e-10
-5.32515e-10
5.50854e-09
1.8052e-09
-1.41577e-09
5.07484e-09
2.80317e-09
-2.36947e-09
4.56445e-09
3.75283e-09
-3.24244e-09
3.9823e-09
4.3156e-09
-3.73344e-09
3.70442e-09
3.61838e-09
-3.3405e-09
2.42864e-09
-5.18207e-10
2.59711e-09
-5.08602e-10
2.82685e-09
-3.99463e-10
3.08522e-09
-2.50102e-10
3.35838e-09
-8.42258e-11
3.63934e-09
8.37248e-11
3.92531e-09
2.46884e-10
4.21513e-09
4.00996e-10
4.50834e-09
5.42119e-10
4.80478e-09
6.66188e-10
5.10441e-09
7.68583e-10
5.40733e-09
8.43832e-10
5.71367e-09
8.85477e-10
6.02362e-09
8.85978e-10
6.33736e-09
8.3693e-10
6.65519e-09
7.30295e-10
6.97773e-09
5.60154e-10
7.30649e-09
3.2602e-10
7.64425e-09
3.50773e-11
7.99541e-09
-2.93628e-10
8.36535e-09
-6.4959e-10
8.7564e-09
-1.04217e-09
9.10621e-09
-1.313e-09
9.39016e-09
-1.53197e-09
9.60842e-09
-1.75976e-09
9.76415e-09
-1.98335e-09
9.862e-09
-2.18169e-09
9.90694e-09
-2.34408e-09
9.90202e-09
-2.46007e-09
9.85043e-09
-2.52168e-09
9.75563e-09
-2.5313e-09
9.61984e-09
-2.47398e-09
9.44573e-09
-2.33609e-09
9.23669e-09
-2.11091e-09
8.99667e-09
-1.79367e-09
8.73006e-09
-1.38238e-09
8.44172e-09
-8.77411e-10
8.13763e-09
-2.7964e-10
7.82621e-09
4.11932e-10
7.52014e-09
1.20129e-09
7.23721e-09
2.08813e-09
6.99916e-09
3.04122e-09
6.83233e-09
3.91966e-09
6.76692e-09
4.381e-09
3.81879e-09
6.65255e-09
4.25624e-09
-5.34236e-10
4.33415e-09
-5.86513e-10
4.48627e-09
-5.51581e-10
4.69353e-09
-4.57363e-10
4.93671e-09
-3.27408e-10
5.20347e-09
-1.83032e-10
5.48641e-09
-3.60587e-11
5.78117e-09
1.06235e-10
6.08515e-09
2.38142e-10
6.39675e-09
3.54589e-10
6.71497e-09
4.50358e-10
7.03922e-09
5.19585e-10
7.36911e-09
5.55591e-10
7.70435e-09
5.50735e-10
8.0447e-09
4.96577e-10
8.39001e-09
3.84989e-10
8.74037e-09
2.09796e-10
9.09669e-09
-3.03031e-11
9.4611e-09
-3.29333e-10
9.8373e-09
-6.69826e-10
1.02301e-08
-1.04238e-09
1.06414e-08
-1.45348e-09
1.10069e-08
-1.67846e-09
1.13023e-08
-1.8274e-09
1.15287e-08
-1.98617e-09
1.16897e-08
-2.1443e-09
1.179e-08
-2.28205e-09
1.18349e-08
-2.38896e-09
1.18274e-08
-2.4526e-09
1.17715e-08
-2.46578e-09
1.16712e-08
-2.43096e-09
1.15289e-08
-2.33169e-09
1.13483e-08
-2.15545e-09
1.11339e-08
-1.89655e-09
1.08914e-08
-1.55118e-09
1.06274e-08
-1.11837e-09
1.03499e-08
-5.99865e-10
1.00693e-08
9.36365e-13
9.80087e-09
6.80347e-10
9.56831e-09
1.43385e-09
9.40702e-09
2.24943e-09
9.36263e-09
3.08561e-09
9.4703e-09
3.81199e-09
9.67097e-09
4.18033e-09
3.75837e-09
9.73138e-09
6.77057e-09
-5.16845e-10
6.7874e-09
-6.03349e-10
6.86162e-09
-6.25798e-10
6.99929e-09
-5.95033e-10
7.18852e-09
-5.16643e-10
7.41691e-09
-4.11413e-10
7.67501e-09
-2.94162e-10
7.95591e-09
-1.74668e-10
8.25475e-09
-6.07001e-11
8.56814e-09
4.12041e-11
8.89371e-09
1.24792e-10
9.22981e-09
1.83482e-10
9.57523e-09
2.10167e-10
9.92898e-09
1.96986e-10
1.02901e-08
1.35416e-10
1.06579e-08
1.72573e-11
1.10315e-08
-1.63848e-10
1.14111e-08
-4.09925e-10
1.17979e-08
-7.16092e-10
1.21944e-08
-1.06635e-09
1.26045e-08
-1.45249e-09
1.30294e-08
-1.87832e-09
1.34036e-08
-2.05266e-09
1.37041e-08
-2.12791e-09
1.39329e-08
-2.21499e-09
1.40941e-08
-2.30548e-09
1.41927e-08
-2.38069e-09
1.42339e-08
-2.43017e-09
1.42211e-08
-2.43981e-09
1.41593e-08
-2.40395e-09
1.40527e-08
-2.32432e-09
1.39039e-08
-2.18287e-09
1.37178e-08
-1.96944e-09
1.35007e-08
-1.67945e-09
1.326e-08
-1.31043e-09
1.30047e-08
-8.63041e-10
1.2746e-08
-3.41245e-10
1.24989e-08
2.48103e-10
1.2284e-08
8.95255e-10
1.21314e-08
1.58637e-09
1.2083e-08
2.29785e-09
1.21846e-08
2.98398e-09
1.2454e-08
3.54259e-09
1.28266e-08
3.80781e-09
3.54982e-09
1.30351e-08
1.01426e-08
-4.85923e-10
1.0124e-08
-5.8474e-10
1.01403e-08
-6.42123e-10
1.02058e-08
-6.60566e-10
1.03275e-08
-6.38335e-10
1.04977e-08
-5.81573e-10
1.07088e-08
-5.05324e-10
1.0954e-08
-4.19869e-10
1.12274e-08
-3.34037e-10
1.15241e-08
-2.55493e-10
1.18404e-08
-1.9159e-10
1.21737e-08
-1.49794e-10
1.25217e-08
-1.37778e-10
1.28824e-08
-1.63708e-10
1.3254e-08
-2.36236e-10
1.36349e-08
-3.63602e-10
1.40233e-08
-5.52255e-10
1.44182e-08
-8.04823e-10
1.48194e-08
-1.11734e-09
1.52282e-08
-1.47509e-09
1.56467e-08
-1.87106e-09
1.6075e-08
-2.30653e-09
1.64478e-08
-2.42553e-09
1.67442e-08
-2.42424e-09
1.69671e-08
-2.43793e-09
1.71213e-08
-2.45965e-09
1.72119e-08
-2.47135e-09
1.7244e-08
-2.46219e-09
1.72217e-08
-2.41755e-09
1.71516e-08
-2.33385e-09
1.7037e-08
-2.20979e-09
1.68811e-08
-2.02689e-09
1.66905e-08
-1.7789e-09
1.64731e-08
-1.46202e-09
1.62382e-08
-1.07549e-09
1.59972e-08
-6.22091e-10
1.57645e-08
-1.085e-10
1.55579e-08
4.54642e-10
1.54012e-08
1.05202e-09
1.53249e-08
1.66265e-09
1.53663e-08
2.25643e-09
1.556e-08
2.79026e-09
1.59089e-08
3.19368e-09
1.6343e-08
3.37378e-09
3.23147e-09
1.66613e-08
1.45735e-08
-4.55404e-10
1.45388e-08
-5.50017e-10
1.45221e-08
-6.25441e-10
1.4535e-08
-6.73479e-10
1.4591e-08
-6.94347e-10
1.46955e-08
-6.8598e-10
1.48448e-08
-6.54675e-10
1.50355e-08
-6.10541e-10
1.52628e-08
-5.61349e-10
1.5522e-08
-5.14729e-10
1.5809e-08
-4.78612e-10
1.61204e-08
-4.61113e-10
1.64529e-08
-4.70344e-10
1.68039e-08
-5.14708e-10
1.71706e-08
-6.0294e-10
1.75503e-08
-7.43228e-10
1.794e-08
-9.41965e-10
1.83374e-08
-1.2022e-09
1.87407e-08
-1.52067e-09
1.91491e-08
-1.88357e-09
1.95631e-08
-2.28501e-09
1.99804e-08
-2.72381e-09
2.03382e-08
-2.78334e-09
2.06178e-08
-2.70387e-09
2.08236e-08
-2.64369e-09
2.09608e-08
-2.59692e-09
2.10346e-08
-2.54507e-09
2.10497e-08
-2.47732e-09
2.10125e-08
-2.38035e-09
2.09307e-08
-2.25208e-09
2.08049e-08
-2.08392e-09
2.06401e-08
-1.86216e-09
2.04452e-08
-1.58397e-09
2.02293e-08
-1.24609e-09
2.00035e-08
-8.49706e-10
1.97814e-08
-3.99987e-10
1.95792e-08
9.3717e-11
1.94163e-08
6.1748e-10
1.9316e-08
1.15239e-09
1.93043e-08
1.6743e-09
1.94078e-08
2.15292e-09
1.96451e-08
2.55301e-09
2.0007e-08
2.83175e-09
2.04348e-08
2.94601e-09
2.86236e-09
2.08039e-08
2.02952e-08
-4.32797e-10
2.02622e-08
-5.16966e-10
2.02319e-08
-5.95188e-10
2.02179e-08
-6.59481e-10
2.02291e-08
-7.05546e-10
2.02761e-08
-7.32964e-10
2.03638e-08
-7.42401e-10
2.04925e-08
-7.39172e-10
2.06606e-08
-7.29511e-10
2.08656e-08
-7.19688e-10
2.11043e-08
-7.17334e-10
2.13737e-08
-7.30521e-10
2.16707e-08
-7.67297e-10
2.19919e-08
-8.35966e-10
2.23341e-08
-9.45112e-10
2.26935e-08
-1.10264e-09
2.30662e-08
-1.31462e-09
2.34483e-08
-1.58428e-09
2.38363e-08
-1.90866e-09
2.42271e-08
-2.27445e-09
2.46188e-08
-2.67664e-09
2.50063e-08
-3.11139e-09
2.53315e-08
-3.10846e-09
2.55785e-08
-2.95087e-09
2.57526e-08
-2.81781e-09
2.58602e-08
-2.70457e-09
2.59048e-08
-2.58964e-09
2.58942e-08
-2.4667e-09
2.58362e-08
-2.32235e-09
2.57354e-08
-2.15131e-09
2.55927e-08
-1.94121e-09
2.54168e-08
-1.68623e-09
2.52166e-08
-1.38377e-09
2.50028e-08
-1.03227e-09
2.47879e-08
-6.3488e-10
2.45869e-08
-1.9899e-10
2.44165e-08
2.64122e-10
2.42956e-08
7.38381e-10
2.4244e-08
1.20401e-09
2.42805e-08
1.63779e-09
2.44194e-08
2.01402e-09
2.46648e-08
2.30759e-09
2.5001e-08
2.49562e-09
2.53842e-08
2.56274e-09
2.50477e-09
2.57418e-08
2.75776e-08
-4.2061e-10
2.7555e-08
-4.94349e-10
2.75284e-08
-5.68594e-10
2.75066e-08
-6.37677e-10
2.7499e-08
-6.97921e-10
2.75117e-08
-7.45685e-10
2.75534e-08
-7.84104e-10
2.76292e-08
-8.14906e-10
2.77398e-08
-8.40181e-10
2.78857e-08
-8.65593e-10
2.80663e-08
-8.9788e-10
2.828e-08
-9.44261e-10
2.85248e-08
-1.01204e-09
2.87977e-08
-1.10892e-09
2.90955e-08
-1.24291e-09
2.94141e-08
-1.42121e-09
2.97487e-08
-1.6492e-09
3.00943e-08
-1.92986e-09
3.04457e-08
-2.26012e-09
3.07977e-08
-2.62643e-09
3.11453e-08
-3.0243e-09
3.14807e-08
-3.44675e-09
3.17524e-08
-3.38018e-09
3.19481e-08
-3.14655e-09
3.20736e-08
-2.94329e-09
3.21361e-08
-2.76713e-09
3.21383e-08
-2.59181e-09
3.20925e-08
-2.42089e-09
3.20048e-08
-2.23466e-09
3.18746e-08
-2.02116e-09
3.1709e-08
-1.77556e-09
3.15175e-08
-1.49474e-09
3.13096e-08
-1.17585e-09
3.10968e-08
-8.19487e-10
3.08925e-08
-4.3058e-10
3.07119e-08
-1.83401e-11
3.05705e-08
4.05482e-10
3.04849e-08
8.23968e-10
3.04697e-08
1.21921e-09
3.05358e-08
1.57172e-09
3.06872e-08
1.8626e-09
3.09185e-08
2.07631e-09
3.12114e-08
2.2027e-09
3.15344e-08
2.23974e-09
2.19408e-09
3.18451e-08
3.67294e-08
-4.18576e-10
3.67195e-08
-4.84438e-10
3.67046e-08
-5.53634e-10
3.66895e-08
-6.22609e-10
3.66805e-08
-6.88915e-10
3.66833e-08
-7.48549e-10
3.67035e-08
-8.04297e-10
3.67475e-08
-8.58824e-10
3.68176e-08
-9.10369e-10
3.69159e-08
-9.63834e-10
3.7044e-08
-1.02603e-09
3.72023e-08
-1.10257e-09
3.739e-08
-1.19975e-09
3.76055e-08
-1.32435e-09
3.7846e-08
-1.48346e-09
3.81079e-08
-1.68313e-09
3.83863e-08
-1.92758e-09
3.86756e-08
-2.21912e-09
3.89694e-08
-2.55394e-09
3.92605e-08
-2.91753e-09
3.95415e-08
-3.30531e-09
3.98011e-08
-3.70631e-09
3.9998e-08
-3.57707e-09
4.01226e-08
-3.27115e-09
4.0181e-08
-3.0017e-09
4.01805e-08
-2.76659e-09
4.0134e-08
-2.54537e-09
4.00433e-08
-2.33013e-09
3.99086e-08
-2.09999e-09
3.97394e-08
-1.85194e-09
3.95446e-08
-1.58081e-09
3.93324e-08
-1.28254e-09
3.9113e-08
-9.56389e-10
3.88983e-08
-6.04795e-10
3.87018e-08
-2.34096e-10
3.85369e-08
1.46549e-10
3.8418e-08
5.24363e-10
3.83571e-08
8.84881e-10
3.83632e-08
1.2131e-09
3.84403e-08
1.4946e-09
3.85857e-08
1.71721e-09
3.87891e-08
1.87288e-09
3.9033e-08
1.95884e-09
3.92942e-08
1.97856e-09
1.94107e-09
3.95472e-08
4.80928e-08
-4.26495e-10
4.80956e-08
-4.87273e-10
4.80947e-08
-5.52668e-10
4.80928e-08
-6.20759e-10
4.80936e-08
-6.89675e-10
4.81023e-08
-7.5731e-10
4.81218e-08
-8.23743e-10
4.81551e-08
-8.92173e-10
4.82071e-08
-9.62384e-10
4.82805e-08
-1.03716e-09
4.83762e-08
-1.12181e-09
4.84952e-08
-1.22152e-09
4.86374e-08
-1.34194e-09
4.8802e-08
-1.48893e-09
4.8987e-08
-1.66854e-09
4.91895e-08
-1.88553e-09
4.94046e-08
-2.14273e-09
4.96269e-08
-2.44139e-09
4.98494e-08
-2.77644e-09
5.00637e-08
-3.13181e-09
5.02604e-08
-3.50206e-09
5.04253e-08
-3.87118e-09
5.05296e-08
-3.68144e-09
5.05648e-08
-3.30627e-09
5.05432e-08
-2.98018e-09
5.0478e-08
-2.70133e-09
5.03673e-08
-2.43469e-09
5.02108e-08
-2.17366e-09
5.00221e-08
-1.91127e-09
4.9809e-08
-1.63885e-09
4.9579e-08
-1.35079e-09
4.93411e-08
-1.04469e-09
4.9106e-08
-7.21216e-10
4.88852e-08
-3.84001e-10
4.86915e-08
-4.03871e-11
4.85359e-08
3.02162e-10
4.84296e-08
6.30582e-10
4.83804e-08
9.34112e-10
4.83921e-08
1.20146e-09
4.84635e-08
1.4231e-09
4.85884e-08
1.59232e-09
4.87552e-08
1.70608e-09
4.89486e-08
1.76544e-09
4.91516e-08
1.77558e-09
1.7448e-09
4.93479e-08
6.20394e-08
-4.45829e-10
6.20559e-08
-5.03833e-10
6.20704e-08
-5.67147e-10
6.20846e-08
-6.34916e-10
6.21008e-08
-7.05873e-10
6.2123e-08
-7.7956e-10
6.21526e-08
-8.53333e-10
6.21922e-08
-9.31741e-10
6.22457e-08
-1.01595e-09
6.23153e-08
-1.10675e-09
6.24014e-08
-1.20788e-09
6.25041e-08
-1.32425e-09
6.26231e-08
-1.46096e-09
6.27573e-08
-1.62305e-09
6.29044e-08
-1.81565e-09
6.30611e-08
-2.04229e-09
6.32229e-08
-2.30449e-09
6.33839e-08
-2.60238e-09
6.35367e-08
-2.92931e-09
6.36726e-08
-3.26765e-09
6.37808e-08
-3.61025e-09
6.38451e-08
-3.93547e-09
6.38456e-08
-3.68196e-09
6.37935e-08
-3.25423e-09
6.36964e-08
-2.883e-09
6.35472e-08
-2.55219e-09
6.33586e-08
-2.24605e-09
6.31392e-08
-1.95425e-09
6.28956e-08
-1.66768e-09
6.26357e-08
-1.37897e-09
6.23682e-08
-1.08332e-09
6.21027e-08
-7.7918e-10
6.18496e-08
-4.6806e-10
6.16199e-08
-1.54348e-10
6.14231e-08
1.56455e-10
6.12696e-08
4.55589e-10
6.11659e-08
7.34318e-10
6.11157e-08
9.84317e-10
6.1119e-08
1.19819e-09
6.11716e-08
1.37046e-09
6.12657e-08
1.49819e-09
6.13905e-08
1.5813e-09
6.15334e-08
1.62252e-09
6.1682e-08
1.62701e-09
1.60159e-09
6.18252e-08
7.89833e-08
-4.79556e-10
7.90161e-08
-5.36626e-10
7.90484e-08
-5.99417e-10
7.90811e-08
-6.67638e-10
7.9116e-08
-7.40761e-10
7.91551e-08
-8.18626e-10
7.92025e-08
-9.00747e-10
7.9259e-08
-9.88229e-10
7.93256e-08
-1.08256e-09
7.94044e-08
-1.18561e-09
7.94965e-08
-1.29994e-09
7.96014e-08
-1.42915e-09
7.97179e-08
-1.57745e-09
7.98438e-08
-1.74899e-09
7.99761e-08
-1.94794e-09
8.01104e-08
-2.17656e-09
8.02412e-08
-2.43524e-09
8.03616e-08
-2.72283e-09
8.04634e-08
-3.03106e-09
8.05372e-08
-3.34149e-09
8.05707e-08
-3.64379e-09
8.05453e-08
-3.91004e-09
8.04648e-08
-3.60149e-09
8.03331e-08
-3.12247e-09
8.01511e-08
-2.70107e-09
7.99298e-08
-2.33087e-09
7.96778e-08
-1.99406e-09
7.94017e-08
-1.67813e-09
7.9109e-08
-1.37501e-09
7.88084e-08
-1.07829e-09
7.85089e-08
-7.83833e-10
7.82202e-08
-4.90511e-10
7.79523e-08
-2.00118e-10
7.77134e-08
8.4488e-11
7.75128e-08
3.57134e-10
7.73565e-08
6.1189e-10
7.72479e-08
8.42834e-10
7.71878e-08
1.04448e-09
7.71734e-08
1.2126e-09
7.71991e-08
1.34467e-09
7.72572e-08
1.4401e-09
7.73382e-08
1.50032e-09
7.74323e-08
1.52846e-09
7.75302e-08
1.52909e-09
1.50752e-09
7.76243e-08
9.94217e-08
-5.30369e-10
9.94731e-08
-5.87989e-10
9.95253e-08
-6.51605e-10
9.9579e-08
-7.21337e-10
9.96354e-08
-7.97192e-10
9.9696e-08
-8.79267e-10
9.9763e-08
-9.6773e-10
9.98379e-08
-1.06312e-09
9.9922e-08
-1.16662e-09
1.00016e-07
-1.27994e-09
1.00121e-07
-1.40509e-09
1.00237e-07
-1.54465e-09
1.00361e-07
-1.70174e-09
1.00492e-07
-1.87934e-09
1.00624e-07
-2.08045e-09
1.00753e-07
-2.30595e-09
1.00873e-07
-2.55501e-09
1.00975e-07
-2.82479e-09
1.0105e-07
-3.1056e-09
1.01087e-07
-3.37859e-09
1.01072e-07
-3.62927e-09
1.00992e-07
-3.82977e-09
1.0085e-07
-3.45979e-09
1.00657e-07
-2.9287e-09
1.00422e-07
-2.46619e-09
1.00152e-07
-2.06149e-09
9.98569e-08
-1.69861e-09
9.95433e-08
-1.36461e-09
9.922e-08