/*--------------------------------*- C++ -*----------------------------------*\
| =========                 |                                                 |
| \\      /  F ield         | OpenFOAM: The Open Source CFD Toolbox           |
|  \\    /   O peration     | Version:  2312                                  |
|   \\  /    A nd           | Website:  www.openfoam.com                      |
|    \\/     M anipulation  |                                                 |
\*---------------------------------------------------------------------------*/
FoamFile
{
    version     2.0;
    format      ascii;
    arch        "LSB;label=32;scalar=64";
    class       surfaceScalarField;
    location    "58";
    object      phi;
}
// * * * * * * * * * * * * * * * * * * * * * * * * * * * * * * * * * * * * * //

dimensions      [0 3 -1 0 0 0 0];

oriented        oriented;

internalField   nonuniform List<scalar> 
9445
(
6.15951e-10
8.87634e-12
6.11053e-10
4.8982e-12
6.08587e-10
2.46629e-12
6.07792e-10
7.94647e-13
6.08291e-10
-4.9911e-13
6.0995e-10
-1.65835e-12
6.12611e-10
-2.66128e-12
6.16327e-10
-3.7161e-12
6.2138e-10
-5.05339e-12
6.28203e-10
-6.82281e-12
6.37965e-10
-9.76133e-12
6.5439e-10
-1.64253e-11
6.90767e-10
-3.63767e-11
7.9461e-10
-1.03844e-10
-2.71586e-10
1.0662e-09
2.15124e-09
4.01953e-11
2.13303e-09
2.31036e-11
2.12299e-09
1.25085e-11
2.1186e-09
5.18493e-12
2.1186e-09
-5.01208e-13
2.12236e-09
-5.41663e-12
2.12944e-09
-9.73646e-12
2.13999e-09
-1.42721e-11
2.15471e-09
-1.97732e-11
2.17488e-09
-2.6992e-11
2.2035e-09
-3.83752e-11
2.24779e-09
-6.07212e-11
2.32191e-09
-1.10492e-10
2.43983e-09
-2.21769e-10
-3.96465e-10
2.56471e-09
4.24534e-09
1.01731e-10
4.20824e-09
6.01972e-11
4.18655e-09
3.42073e-11
4.17557e-09
1.6159e-11
4.17294e-09
2.13192e-12
4.17721e-09
-9.68513e-12
4.18756e-09
-2.00901e-11
4.20422e-09
-3.09339e-11
4.22796e-09
-4.35156e-11
4.26035e-09
-5.93773e-11
4.30443e-09
-8.24553e-11
4.3651e-09
-1.21388e-10
4.44526e-09
-1.90655e-10
4.5304e-09
-3.06913e-10
-4.47238e-10
4.58118e-09
7.04867e-09
2.01926e-10
6.98622e-09
1.22651e-10
6.94781e-09
7.26173e-11
6.92626e-09
3.7711e-11
6.91781e-09
1.05736e-11
6.91998e-09
-1.18485e-11
6.93136e-09
-3.14689e-11
6.9519e-09
-5.14793e-11
6.98211e-09
-7.37284e-11
7.02282e-09
-1.00087e-10
7.07534e-09
-1.34975e-10
7.13942e-09
-1.85463e-10
7.20822e-09
-2.59451e-10
7.26034e-09
-3.59041e-10
-4.58104e-10
7.27121e-09
1.07412e-08
3.48307e-10
1.0647e-08
2.16906e-10
1.05864e-08
1.33227e-10
1.05496e-08
7.45085e-11
1.05311e-08
2.90829e-11
1.05275e-08
-8.28755e-12
1.05366e-08
-4.06164e-11
1.05573e-08
-7.21534e-11
1.05895e-08
-1.05889e-10
1.06325e-08
-1.43079e-10
1.0685e-08
-1.87474e-10
1.07423e-08
-2.42809e-10
1.07935e-08
-3.10659e-10
1.08205e-08
-3.86041e-10
-4.49579e-10
1.0812e-08
1.55326e-08
5.44263e-10
1.54022e-08
3.47316e-10
1.53148e-08
2.20595e-10
1.52583e-08
1.31016e-10
1.52254e-08
6.20116e-11
1.52116e-08
5.48586e-12
1.52141e-08
-4.30601e-11
1.52302e-08
-8.83001e-11
1.52584e-08
-1.34077e-10
1.52965e-08
-1.81207e-10
1.53408e-08
-2.31782e-10
1.53845e-08
-2.86451e-10
1.54169e-08
-3.43133e-10
1.54266e-08
-3.95739e-10
-4.33254e-10
1.54103e-08
2.16579e-08
7.83665e-10
2.14927e-08
5.12479e-10
2.13776e-08
3.35743e-10
2.1299e-08
2.09615e-10
2.12485e-08
1.12504e-10
2.12206e-08
3.33295e-11
2.12116e-08
-3.40255e-11
2.12179e-08
-9.45852e-11
2.1236e-08
-1.52188e-10
2.12623e-08
-2.07564e-10
2.12918e-08
-2.61219e-10
2.13174e-08
-3.12106e-10
2.13317e-08
-3.57349e-10
2.13286e-08
-3.92695e-10
-4.13345e-10
2.13087e-08
2.93683e-08
1.04377e-09
2.91808e-08
6.99962e-10
2.90444e-08
4.72145e-10
2.89465e-08
3.0748e-10
2.88789e-08
1.80137e-10
2.88356e-08
7.66273e-11
2.88121e-08
-1.05545e-11
2.88042e-08
-8.66414e-11
2.88072e-08
-1.55232e-10
2.88166e-08
-2.16922e-10
2.88269e-08
-2.71536e-10
2.88327e-08
-3.17875e-10
2.88294e-08
-3.54055e-10
2.8815e-08
-3.78288e-10
-3.89472e-10
2.87911e-08
3.89192e-08
1.27963e-09
3.8738e-08
8.81115e-10
3.8599e-08
6.11215e-10
3.84938e-08
4.12701e-10
3.84162e-08
2.57682e-10
3.83613e-08
1.31535e-10
3.83246e-08
2.6118e-11
3.83016e-08
-6.35782e-11
3.82877e-08
-1.41344e-10
3.82781e-08
-2.07349e-10
3.82684e-08
-2.61799e-10
3.82548e-08
-3.04331e-10
3.82354e-08
-3.34615e-10
3.821e-08
-3.52863e-10
-3.599e-10
3.81804e-08
5.05677e-08
1.42809e-09
5.04378e-08
1.01101e-09
5.03284e-08
7.20605e-10
5.02392e-08
5.01949e-10
5.01683e-08
3.28533e-10
5.01133e-08
1.8651e-10
5.00713e-08
6.81861e-11
5.00381e-08
-3.0373e-11
5.00107e-08
-1.13944e-10
4.99852e-08
-1.81858e-10
4.99587e-08
-2.35321e-10
4.99295e-08
-2.7508e-10
4.9897e-08
-3.02131e-10
4.9862e-08
-3.17934e-10
-3.24179e-10
4.98263e-08
6.46035e-08
1.4307e-09
6.45732e-08
1.04127e-09
6.45324e-08
7.61365e-10
6.449e-08
5.44333e-10
6.44501e-08
3.68509e-10
6.44137e-08
2.22872e-10
6.43805e-08
1.01381e-10
6.43493e-08
8.57339e-13
6.43177e-08
-8.23855e-11
6.42849e-08
-1.49065e-10
6.42497e-08
-2.00072e-10
6.42119e-08
-2.37268e-10
6.41722e-08
-2.62429e-10
6.41318e-08
-2.77558e-10
-2.84588e-10
6.40922e-08
8.14293e-08
1.27147e-09
8.15232e-08
9.47411e-10
8.15769e-08
7.0762e-10
8.16056e-08
5.15648e-10
8.1618e-08
3.56153e-10
8.16189e-08
2.21964e-10
8.1611e-08
1.09322e-10
8.15956e-08
1.62012e-11
8.15731e-08
-5.98608e-11
8.15449e-08
-1.20878e-10
8.15118e-08
-1.67003e-10
8.14751e-08
-2.00559e-10
8.14363e-08
-2.23593e-10
8.13969e-08
-2.38138e-10
-2.45998e-10
8.13583e-08
1.01647e-07
9.95451e-10
1.01843e-07
7.5093e-10
1.01983e-07
5.67732e-10
1.02082e-07
4.17007e-10
1.0215e-07
2.88382e-10
1.02193e-07
1.78171e-10
1.02218e-07
8.48704e-11
1.02226e-07
7.72122e-12
1.02222e-07
-5.53629e-11
1.02207e-07
-1.06442e-10
1.02185e-07
-1.44818e-10
1.02158e-07
-1.72929e-10
1.02127e-07
-1.92615e-10
1.02094e-07
-2.05613e-10
-2.13392e-10
1.02062e-07
1.26028e-07
6.76752e-10
1.26272e-07
5.07395e-10
1.26457e-07
3.82224e-10
1.26597e-07
2.77449e-10
1.26699e-07
1.85654e-10
1.26772e-07
1.05451e-10
1.2682e-07
3.67475e-11
1.26847e-07
-1.90712e-11
1.26859e-07
-6.71601e-11
1.26858e-07
-1.05346e-10
1.26847e-07
-1.34167e-10
1.2683e-07
-1.55486e-10
1.26808e-07
-1.70711e-10
1.26783e-07
-1.81126e-10
-1.87788e-10
1.26758e-07
1.55321e-07
3.67078e-10
1.55564e-07
2.65086e-10
1.55752e-07
1.93588e-10
1.55897e-07
1.32957e-10
1.56005e-07
7.7526e-11
1.56083e-07
2.74816e-11
1.56135e-07
-1.55768e-11
1.56169e-07
-5.28294e-11
1.56186e-07
-8.39799e-11
1.56189e-07
-1.08976e-10
1.56183e-07
-1.28191e-10
1.5617e-07
-1.42485e-10
1.56153e-07
-1.52883e-10
1.56132e-07
-1.60175e-10
-1.651e-10
1.56109e-07
1.90029e-07
8.51664e-11
1.90249e-07
4.4554e-11
1.9042e-07
2.2434e-11
1.9055e-07
3.28106e-12
1.90645e-07
-1.79287e-11
1.90713e-07
-3.96412e-11
1.90757e-07
-6.01942e-11
1.90784e-07
-7.92958e-11
1.90795e-07
-9.55047e-11
1.90795e-07
-1.08695e-10
1.90786e-07
-1.19167e-10
1.9077e-07
-1.26491e-10
1.9075e-07
-1.3257e-10
1.90726e-07
-1.36536e-10
-1.39697e-10
1.907e-07
2.30272e-07
-1.65055e-10
2.30464e-07
-1.48028e-10
2.30611e-07
-1.24784e-10
2.30721e-07
-1.06273e-10
2.30801e-07
-9.78246e-11
2.30854e-07
-9.2576e-11
2.30886e-07
-9.21252e-11
2.30902e-07
-9.54745e-11
2.30904e-07
-9.77881e-11
2.30895e-07
-9.93894e-11
2.30878e-07
-1.01888e-10
2.30854e-07
-1.03095e-10
2.30827e-07
-1.05263e-10
2.30797e-07
-1.06336e-10
-1.07159e-10
2.30764e-07
2.75599e-07
-3.80031e-10
2.75759e-07
-3.07879e-10
2.75878e-07
-2.43694e-10
2.75964e-07
-1.92153e-10
2.76022e-07
-1.55981e-10
2.76057e-07
-1.27652e-10
2.76074e-07
-1.09268e-10
2.76076e-07
-9.77094e-11
2.76067e-07
-8.83893e-11
2.7605e-07
-8.2915e-11
2.76027e-07
-7.83017e-11
2.75998e-07
-7.45467e-11
2.75964e-07
-7.12552e-11
2.75926e-07
-6.79382e-11
-6.50089e-11
2.75884e-07
3.24497e-07
-5.42278e-10
3.24615e-07
-4.25978e-10
3.247e-07
-3.29414e-10
3.24761e-07
-2.52538e-10
3.24799e-07
-1.94311e-10
3.24819e-07
-1.47982e-10
3.24824e-07
-1.13994e-10
3.24816e-07
-8.91741e-11
3.24798e-07
-7.02567e-11
3.2477e-07
-5.57578e-11
3.24735e-07
-4.31866e-11
3.24694e-07
-3.33825e-11
3.24648e-07
-2.52606e-11
3.24599e-07
-1.87606e-11
-1.15771e-11
3.24545e-07
3.73706e-07
-6.64831e-10
3.738e-07
-5.1987e-10
3.7387e-07
-3.99821e-10
3.73921e-07
-3.0296e-10
3.73955e-07
-2.28277e-10
3.73972e-07
-1.6536e-10
3.73976e-07
-1.17651e-10
3.73966e-07
-7.98521e-11
3.73946e-07
-4.963e-11
3.73917e-07
-2.68129e-11
3.73879e-07
-5.12329e-12
3.73834e-07
1.12615e-11
3.73784e-07
2.52591e-11
3.73727e-07
3.76131e-11
4.88469e-11
3.73667e-07
3.71241e-07
-7.03348e-10
3.7127e-07
-5.48533e-10
3.71289e-07
-4.19423e-10
3.71301e-07
-3.15286e-10
3.71304e-07
-2.30453e-10
3.71297e-07
-1.58951e-10
3.71284e-07
-1.04679e-10
3.71264e-07
-5.93238e-11
3.71234e-07
-2.0043e-11
3.71194e-07
1.34033e-11
3.71149e-07
4.01438e-11
3.71097e-07
6.29012e-11
3.71039e-07
8.28273e-11
3.70976e-07
1.00732e-10
1.16971e-10
3.70908e-07
3.17573e-07
-6.80562e-10
3.17552e-07
-5.27756e-10
3.17535e-07
-4.02028e-10
3.17518e-07
-2.98428e-10
3.175e-07
-2.13219e-10
3.17483e-07
-1.41917e-10
3.17463e-07
-8.38381e-11
3.17438e-07
-3.49794e-11
3.17411e-07
6.8205e-12
3.17382e-07
4.23791e-11
3.17349e-07
7.31292e-11
3.17312e-07
1.0026e-10
3.1727e-07
1.24586e-10
3.17224e-07
1.46721e-10
1.67122e-10
3.17174e-07
2.65872e-07
-6.15911e-10
2.65819e-07
-4.75148e-10
2.65776e-07
-3.58288e-10
2.65739e-07
-2.6143e-10
2.65705e-07
-1.79381e-10
2.65674e-07
-1.11105e-10
2.65644e-07
-5.39848e-11
2.65613e-07
-3.94694e-12
2.65581e-07
3.86659e-11
2.65548e-07
7.58915e-11
2.65512e-07
1.08848e-10
2.65474e-07
1.3838e-10
2.65433e-07
1.65198e-10
2.6539e-07
1.89845e-10
2.12703e-10
2.65345e-07
2.18782e-07
-5.23058e-10
2.18707e-07
-4.0012e-10
2.18645e-07
-2.97025e-10
2.18595e-07
-2.10607e-10
2.18551e-07
-1.3615e-10
2.18513e-07
-7.32202e-11
2.18478e-07
-1.90346e-11
2.18446e-07
2.8425e-11
2.18415e-07
6.98918e-11
2.18384e-07
1.06718e-10
2.18353e-07
1.39803e-10
2.18322e-07
1.69843e-10
2.18289e-07
1.97386e-10
2.18256e-07
2.22853e-10
2.46561e-10
2.18223e-07
1.7743e-07
-4.17196e-10
1.77346e-07
-3.15524e-10
1.77278e-07
-2.28899e-10
1.77222e-07
-1.54888e-10
1.77177e-07
-9.09745e-11
1.77139e-07
-3.55894e-11
1.77107e-07
1.28771e-11
1.7708e-07
5.57533e-11
1.77056e-07
9.40023e-11
1.77034e-07
1.28451e-10
1.77014e-07
1.59764e-10
1.76995e-07
1.88458e-10
1.76978e-07
2.14937e-10
1.76961e-07
2.39509e-10
2.62411e-10
1.76945e-07
1.42082e-07
-3.16134e-10
1.42002e-07
-2.35876e-10
1.4194e-07
-1.66514e-10
1.41891e-07
-1.06344e-10
1.41854e-07
-5.37417e-11
1.41826e-07
-7.26524e-12
1.41805e-07
3.40973e-11
1.41789e-07
7.12163e-11
1.41778e-07
1.04795e-10
1.41771e-07
1.35399e-10
1.41768e-07
1.63483e-10
1.41767e-07
1.89404e-10
1.41768e-07
2.13436e-10
1.41772e-07
2.35789e-10
2.5662e-10
1.41778e-07
1.12513e-07
-2.32872e-10
1.12449e-07
-1.72212e-10
1.12402e-07
-1.19091e-10
1.12368e-07
-7.22426e-11
1.12345e-07
-3.0628e-11
1.12331e-07
6.86974e-12
1.12324e-07
4.08237e-11
1.12323e-07
7.17026e-11
1.12328e-07
9.99745e-11
1.12338e-07
1.26015e-10
1.12351e-07
1.50116e-10
1.12368e-07
1.72502e-10
1.12388e-07
1.93345e-10
1.12411e-07
2.12769e-10
2.30865e-10
1.12437e-07
8.8209e-08
-1.71833e-10
8.81645e-08
-1.27729e-10
8.81339e-08
-8.84522e-11
8.81152e-08
-5.35553e-11
8.81063e-08
-2.16838e-11
8.81055e-08
7.60612e-12
8.81117e-08
3.46166e-11
8.8124e-08
5.94579e-11
8.81415e-08
8.24558e-11
8.81637e-08
1.03857e-10
8.81899e-08
1.23834e-10
8.82199e-08
1.42512e-10
8.82533e-08
1.59985e-10
8.82897e-08
1.76312e-10
1.91538e-10
8.83291e-08
6.85039e-08
-1.3032e-10
6.84754e-08
-9.9222e-11
6.84583e-08
-7.13175e-11
6.84508e-08
-4.6137e-11
6.84518e-08
-2.26112e-11
6.84598e-08
-3.77287e-13
6.84738e-08
2.06154e-11
6.84932e-08
4.00344e-11
6.85174e-08
5.82065e-11
6.8546e-08
7.5301e-11
6.85784e-08
9.14082e-11
6.86143e-08
1.06586e-10
6.86535e-08
1.20873e-10
6.86955e-08
1.34286e-10
1.46841e-10
6.87402e-08
5.26935e-08
-1.02499e-10
5.26755e-08
-8.12623e-11
5.26662e-08
-6.19997e-11
5.26645e-08
-4.44416e-11
5.26697e-08
-2.78551e-11
5.26808e-08
-1.14187e-11
5.26968e-08
4.59048e-12
5.27175e-08
1.9378e-11
5.27423e-08
3.33663e-11
5.27709e-08
4.6683e-11
5.2803e-08
5.93683e-11
5.28381e-08
7.14372e-11
5.28761e-08
8.28929e-11
5.29166e-08
9.37279e-11
1.03938e-10
5.29595e-08
4.01119e-08
-8.26975e-11
4.00994e-08
-6.86918e-11
4.00932e-08
-5.58232e-11
4.00926e-08
-4.38807e-11
4.00973e-08
-3.25037e-11
4.01069e-08
-2.10243e-11
4.01207e-08
-9.21751e-12
4.01382e-08
1.85434e-12
4.01592e-08
1.23761e-11
4.01834e-08
2.25041e-11
4.02105e-08
3.22679e-11
4.02403e-08
4.16641e-11
4.02725e-08
5.06752e-11
4.03069e-08
5.92841e-11
6.74754e-11
4.03434e-08
3.01701e-08
-6.68502e-11
3.01594e-08
-5.79717e-11
3.01533e-08
-4.97134e-11
3.01513e-08
-4.19271e-11
3.01531e-08
-3.43164e-11
3.01587e-08
-2.66158e-11
3.01679e-08
-1.8367e-11
3.018e-08
-1.02828e-11
3.01949e-08
-2.55365e-12
3.02125e-08
4.949e-12
3.02325e-08
1.22684e-11
3.02548e-08
1.94044e-11
3.02791e-08
2.63274e-11
3.03054e-08
3.3023e-11
3.94672e-11
3.03334e-08
2.2366e-08
-5.27973e-11
2.23555e-08
-4.74585e-11
2.23482e-08
-4.24388e-11
2.23439e-08
-3.76354e-11
2.23424e-08
-3.28103e-11
2.23435e-08
-2.77419e-11
2.23474e-08
-2.21998e-11
2.23537e-08
-1.66482e-11
2.23623e-08
-1.11378e-11
2.2373e-08
-5.74908e-12
2.23857e-08
-4.39399e-13
2.24003e-08
4.80915e-12
2.24167e-08
9.95969e-12
2.24347e-08
1.50117e-11
1.99325e-11
2.24542e-08
1.6281e-08
-3.98581e-11
1.62705e-08
-3.68859e-11
1.62621e-08
-3.40471e-11
1.62557e-08
-3.12696e-11
1.62513e-08
-2.83935e-11
1.62488e-08
-2.52423e-11
1.62483e-08
-2.16669e-11
1.62496e-08
-1.80062e-11
1.62528e-08
-1.42816e-11
1.62576e-08
-1.06151e-11
1.62641e-08
-6.9138e-12
1.62721e-08
-3.21401e-12
1.62816e-08
4.51367e-13
1.62925e-08
4.10484e-12
7.70201e-12
1.63048e-08
1.15705e-08
-2.81634e-11
1.15603e-08
-2.66964e-11
1.15515e-08
-2.52378e-11
1.1544e-08
-2.3761e-11
1.15378e-08
-2.21757e-11
1.15329e-08
-2.03462e-11
1.15294e-08
-1.81885e-11
1.15273e-08
-1.59151e-11
1.15266e-08
-1.35556e-11
1.15272e-08
-1.11924e-11
1.1529e-08
-8.77032e-12
1.15322e-08
-6.32578e-12
1.15365e-08
-3.86999e-12
1.1542e-08
-1.37893e-12
1.09293e-12
1.15486e-08
7.95275e-09
-1.81355e-11
7.94361e-09
-1.75518e-11
7.93526e-09
-1.6894e-11
7.92769e-09
-1.6192e-11
7.92093e-09
-1.54078e-11
7.91503e-09
-1.44466e-11
7.91009e-09
-1.32547e-11
7.90614e-09
-1.19599e-11
7.90317e-09
-1.0588e-11
7.90117e-09
-9.19158e-12
7.90014e-09
-7.74289e-12
7.90007e-09
-6.25558e-12
7.90095e-09
-4.74383e-12
7.90276e-09
-3.19237e-12
-1.63609e-12
7.90549e-09
5.1991e-09
-1.01708e-11
5.19158e-09
-1.00385e-11
5.18448e-09
-9.79246e-12
5.1778e-09
-9.50769e-12
5.17157e-09
-9.17701e-12
5.16586e-09
-8.74281e-12
5.16078e-09
-8.16803e-12
5.15634e-09
-7.52299e-12
5.15257e-09
-6.82323e-12
5.14948e-09
-6.10048e-12
5.14708e-09
-5.34e-12
5.14537e-09
-4.54739e-12
5.14436e-09
-3.73549e-12
5.14406e-09
-2.8909e-12
-2.02848e-12
5.14446e-09
3.1251e-09
-4.49874e-12
3.1196e-09
-4.53826e-12
3.11428e-09
-4.46804e-12
3.10915e-09
-4.37758e-12
3.10424e-09
-4.27078e-12
3.09962e-09
-4.12005e-12
3.09535e-09
-3.902e-12
3.09148e-09
-3.64836e-12
3.08802e-09
-3.36515e-12
3.08499e-09
-3.06914e-12
3.0824e-09
-2.75291e-12
3.08027e-09
-2.41845e-12
3.07861e-09
-2.07338e-12
3.07743e-09
-1.70837e-12
-1.32832e-12
3.07673e-09
1.58275e-09
-1.15376e-12
1.57942e-09
-1.20685e-12
1.57614e-09
-1.19101e-12
1.57294e-09
-1.17233e-12
1.56982e-09
-1.15265e-12
1.56682e-09
-1.12423e-12
1.564e-09
-1.07719e-12
1.56137e-09
-1.02011e-12
1.55896e-09
-9.53604e-13
1.55677e-09
-8.83515e-13
1.55483e-09
-8.0722e-13
1.55313e-09
-7.25041e-13
1.5517e-09
-6.40165e-13
1.55054e-09
-5.48569e-13
-4.48714e-13
1.54966e-09
4.53905e-10
4.52698e-10
4.51507e-10
4.50335e-10
4.49182e-10
4.48058e-10
4.46981e-10
4.45961e-10
4.45007e-10
4.44124e-10
4.43316e-10
4.42591e-10
4.41951e-10
4.41403e-10
4.40954e-10
1.27436e-09
-5.33265e-10
3.25101e-10
1.57144e-09
-4.7704e-10
1.79966e-10
1.86989e-09
-3.5737e-10
5.89108e-11
2.16258e-09
-2.4163e-10
-5.10583e-11
2.447e-09
-1.37301e-10
-1.47117e-10
2.72355e-09
-5.44517e-11
-2.221e-10
2.9932e-09
4.14647e-12
-2.73793e-10
3.25708e-09
3.55081e-11
-2.99391e-10
3.51595e-09
3.84413e-11
-2.97307e-10
3.77044e-09
1.17517e-11
-2.66243e-10
4.02115e-09
-4.52543e-11
-2.05458e-10
4.26841e-09
-1.3147e-10
-1.15793e-10
4.51248e-09
-2.4384e-10
-2.26203e-13
4.75364e-09
-3.74933e-10
1.33773e-10
4.99244e-09
-5.10262e-10
2.71466e-10
5.23021e-09
-6.24586e-10
3.8681e-10
5.46968e-09
-6.76292e-10
4.36825e-10
5.71602e-09
-6.05247e-10
3.58909e-10
5.97733e-09
-3.28966e-10
6.76555e-11
6.26557e-09
2.51049e-10
-5.39289e-10
6.5947e-09
1.20313e-09
-1.53227e-09
6.97448e-09
2.56805e-09
-2.94783e-09
7.34106e-09
3.49379e-09
-3.86037e-09
7.65745e-09
3.66171e-09
-3.9781e-09
7.91523e-09
3.36897e-09
-3.62674e-09
8.11174e-09
2.78181e-09
-2.97833e-09
8.24819e-09
2.01745e-09
-2.1539e-09
8.32658e-09
1.16211e-09
-1.24051e-09
8.34836e-09
2.80643e-10
-3.02413e-10
8.31438e-09
-5.73671e-10
6.07642e-10
8.22559e-09
-1.35386e-09
1.44266e-09
8.08353e-09
-2.01916e-09
2.16121e-09
7.89081e-09
-2.53701e-09
2.72973e-09
7.65097e-09
-2.88517e-09
3.12501e-09
7.36817e-09
-3.0524e-09
3.33519e-09
7.04668e-09
-3.03731e-09
3.35881e-09
6.69034e-09
-2.84581e-09
3.20215e-09
6.30245e-09
-2.4871e-09
2.87499e-09
5.88611e-09
-1.96886e-09
2.3852e-09
5.44441e-09
-1.29269e-09
1.7344e-09
4.97917e-09
-4.56813e-10
9.22046e-10
4.48343e-09
5.23607e-10
-2.78605e-11
3.94679e-09
1.56047e-09
-1.02383e-09
3.37718e-09
2.42706e-09
-1.85745e-09
2.48187e-09
3.04639e-09
-2.15109e-09
2.6469e-09
-6.15457e-10
2.82155e-09
-6.51683e-10
3.05858e-09
-5.94398e-10
3.32271e-09
-5.05767e-10
3.59829e-09
-4.12881e-10
3.87703e-09
-3.33192e-10
4.15531e-09
-2.74128e-10
4.43134e-09
-2.40522e-10
4.70451e-09
-2.3473e-10
4.97456e-09
-2.58295e-10
5.24132e-09
-3.12017e-10
5.50481e-09
-3.94962e-10
5.76497e-09
-5.04001e-10
6.02187e-09
-6.31832e-10
6.27591e-09
-7.64305e-10
6.52839e-09
-8.77062e-10
6.78209e-09
-9.29994e-10
7.04252e-09
-8.65678e-10
7.31843e-09
-6.0487e-10
7.62286e-09
-5.33845e-11
7.97152e-09
8.54474e-10
8.37616e-09
2.16341e-09
8.77019e-09
3.09977e-09
9.11406e-09
3.31783e-09
9.3979e-09
3.08513e-09
9.61767e-09
2.56205e-09
9.77363e-09
1.86149e-09
9.86723e-09
1.06851e-09
9.89961e-09
2.48262e-10
9.87161e-09
-5.45665e-10
9.78433e-09
-1.26659e-09
9.63982e-09
-1.87465e-09
9.4414e-09
-2.33858e-09
9.19361e-09
-2.63739e-09
8.90198e-09
-2.76077e-09
8.57256e-09
-2.70789e-09
8.21166e-09
-2.48491e-09
7.82613e-09
-2.10157e-09
7.42454e-09
-1.56728e-09
7.01949e-09
-8.87637e-10
6.63008e-09
-6.7404e-11
6.28235e-09
8.71333e-10
6.01339e-09
1.82944e-09
5.87792e-09
2.56253e-09
2.55197e-09
5.80782e-09
4.59578e-09
-6.3006e-10
4.67236e-09
-7.28265e-10
4.821e-09
-7.43035e-10
5.02501e-09
-7.09774e-10
5.26243e-09
-6.50301e-10
5.51937e-09
-5.90137e-10
5.78694e-09
-5.41696e-10
6.05983e-09
-5.13416e-10
6.33484e-09
-5.09735e-10
6.60998e-09
-5.33435e-10
6.88395e-09
-5.85986e-10
7.15589e-09
-6.66906e-10
7.42516e-09
-7.73267e-10
7.69137e-09
-8.98039e-10
7.9546e-09
-1.02754e-09
8.21595e-09
-1.13842e-09
8.4782e-09
-1.19224e-09
8.74707e-09
-1.13455e-09
9.03193e-09
-8.89721e-10
9.34689e-09
-3.68351e-10
9.70957e-09
4.91798e-10
1.0134e-08
1.73899e-09
1.05518e-08
2.68191e-09
1.09213e-08
2.94838e-09
1.12307e-08
2.77572e-09
1.14742e-08
2.31856e-09
1.16508e-08
1.68488e-09
1.17611e-08
9.58163e-10
1.18059e-08
2.03492e-10
1.17859e-08
-5.25607e-10
1.17023e-08
-1.18307e-09
1.1558e-08
-1.73029e-09
1.1357e-08
-2.1376e-09
1.11052e-08
-2.38561e-09
1.08098e-08
-2.46539e-09
1.04792e-08
-2.3772e-09
1.01225e-08
-2.12825e-09
9.75095e-09
-1.73003e-09
9.37924e-09
-1.19556e-09
9.02933e-09
-5.37729e-10
8.73472e-09
2.27203e-10
8.54167e-09
1.06439e-09
8.49558e-09
1.87552e-09
8.60061e-09
2.4575e-09
2.4665e-09
8.68607e-09
7.24904e-09
-6.07892e-10
7.25892e-09
-7.38142e-10
7.32296e-09
-8.07082e-10
7.44656e-09
-8.33374e-10
7.62044e-09
-8.24177e-10
7.82948e-09
-7.9918e-10
8.06226e-09
-7.74475e-10
8.31084e-09
-7.61993e-10
8.56928e-09
-7.68172e-10
8.83345e-09
-7.97606e-10
9.10045e-09
-8.52985e-10
9.36815e-09
-9.34607e-10
9.63495e-09
-1.04007e-09
9.89975e-09
-1.16284e-09
1.01621e-08
-1.28987e-09
1.04227e-08
-1.39902e-09
1.06841e-08
-1.45369e-09
1.09523e-08
-1.40272e-09
1.12371e-08
-1.17449e-09
1.15536e-08
-6.84867e-10
1.19215e-08
1.23897e-10
1.23573e-08
1.30312e-09
1.27926e-08
2.24664e-09
1.31835e-08
2.5575e-09
1.35163e-08
2.44295e-09
1.37827e-08
2.05213e-09
1.39802e-08
1.48741e-09
1.41082e-08
8.30137e-10
1.41668e-08
1.4486e-10
1.41567e-08
-5.15436e-10
1.40793e-08
-1.10576e-09
1.39382e-08
-1.58914e-09
1.37386e-08
-1.93795e-09
1.34877e-08
-2.13479e-09
1.31949e-08
-2.17256e-09
1.28709e-08
-2.05318e-09
1.25284e-08
-1.78573e-09
1.21827e-08
-1.38437e-09
1.1854e-08
-8.66878e-10
1.15705e-08
-2.54231e-10
1.13716e-08
4.26119e-10
1.13054e-08
1.13062e-09
1.1406e-08
1.77487e-09
1.16468e-08
2.2167e-09
2.27527e-09
1.18381e-08
1.07742e-08
-5.7006e-10
1.07423e-08
-7.06307e-10
1.07438e-08
-8.08533e-10
1.07896e-08
-8.79147e-10
1.08838e-08
-9.18378e-10
1.10243e-08
-9.3969e-10
1.11983e-08
-9.48545e-10
1.13986e-08
-9.62296e-10
1.16177e-08
-9.87189e-10
1.18496e-08
-1.02959e-09
1.20901e-08
-1.09342e-09
1.23354e-08
-1.17995e-09
1.25829e-08
-1.28754e-09
1.28304e-08
-1.41037e-09
1.30768e-08
-1.53623e-09
1.33222e-08
-1.64441e-09
1.35688e-08
-1.70035e-09
1.38226e-08
-1.65652e-09
1.40939e-08
-1.44572e-09
1.43986e-08
-9.89582e-10
1.47586e-08
-2.36106e-10
1.51932e-08
8.68514e-10
1.56356e-08
1.80426e-09
1.60406e-08
2.1525e-09
1.63919e-08
2.09159e-09
1.66785e-08
1.7656e-09
1.68955e-08
1.2704e-09
1.7041e-08
6.84615e-10
1.71142e-08
7.16141e-11
1.71155e-08
-5.16747e-10
1.70469e-08
-1.03709e-09
1.69124e-08
-1.45462e-09
1.67186e-08
-1.74413e-09
1.64745e-08
-1.8907e-09
1.61914e-08
-1.88948e-09
1.58828e-08
-1.74457e-09
1.55644e-08
-1.46742e-09
1.52554e-08
-1.0753e-09
1.4979e-08
-5.90519e-10
1.47652e-08
-4.04352e-11
1.46505e-08
5.40866e-10
1.46725e-08
1.10854e-09
1.48486e-08
1.59886e-09
1.51391e-08
1.92619e-09
2.00679e-09
1.54075e-08
1.53693e-08
-5.29086e-10
1.5318e-08
-6.54933e-10
1.52787e-08
-7.69312e-10
1.52659e-08
-8.66289e-10
1.52877e-08
-9.4024e-10
1.53495e-08
-1.00148e-09
1.54491e-08
-1.04814e-09
1.55807e-08
-1.09392e-09
1.57376e-08
-1.14403e-09
1.5914e-08
-1.20603e-09
1.61047e-08
-1.28414e-09
1.63052e-08
-1.38039e-09
1.65116e-08
-1.4939e-09
1.67208e-08
-1.61963e-09
1.69309e-08
-1.74631e-09
1.71414e-08
-1.85489e-09
1.7354e-08
-1.91298e-09
1.75745e-08
-1.87705e-09
1.78136e-08
-1.68481e-09
1.8088e-08
-1.26395e-09
1.84217e-08
-5.69868e-10
1.88371e-08
4.53194e-10
1.92714e-08
1.36989e-09
1.96791e-08
1.74485e-09
2.00408e-08
1.72991e-09
2.03416e-08
1.46473e-09
2.05744e-08
1.03759e-09
2.07354e-08
5.23659e-10
2.08226e-08
-1.55979e-11
2.08361e-08
-5.30193e-10
2.0778e-08
-9.79025e-10
2.06534e-08
-1.33e-09
2.04701e-08
-1.56083e-09
2.02388e-08
-1.65947e-09
1.99731e-08
-1.6237e-09
1.96886e-08
-1.46008e-09
1.94037e-08
-1.18254e-09
1.91395e-08
-8.11128e-10
1.89202e-08
-3.71205e-10
1.87729e-08
1.06884e-10
1.87256e-08
5.88143e-10
1.88013e-08
1.03281e-09
1.90031e-08
1.39712e-09
1.92935e-08
1.63574e-09
1.7162e-09
1.95841e-08
2.12695e-08
-4.89897e-10
2.12142e-08
-5.99615e-10
2.11553e-08
-7.1042e-10
2.11045e-08
-8.15464e-10
2.1074e-08
-9.09758e-10
2.10685e-08
-9.95971e-10
2.10928e-08
-1.07241e-09
2.11461e-08
-1.14728e-09
2.12259e-08
-1.22383e-09
2.13278e-08
-1.30791e-09
2.14473e-08
-1.40358e-09
2.15798e-08
-1.51293e-09
2.17213e-08
-1.6354e-09
2.18682e-08
-1.76656e-09
2.20179e-08
-1.89601e-09
2.21694e-08
-2.00642e-09
2.23241e-08
-2.06765e-09
2.24876e-08
-2.04052e-09
2.26708e-08
-1.86803e-09
2.2891e-08
-1.48413e-09
2.31746e-08
-8.53508e-10
2.35468e-08
8.10261e-11
2.39525e-08
9.64243e-10
2.43463e-08
1.35102e-09
2.47056e-08
1.37059e-09
2.50111e-08
1.15921e-09
2.52526e-08
7.96082e-10
2.54241e-08
3.52152e-10
2.55224e-08
-1.13858e-10
2.55469e-08
-5.54687e-10
2.55001e-08
-9.32237e-10
2.53878e-08
-1.21771e-09
2.52192e-08
-1.39222e-09
2.50066e-08
-1.44688e-09
2.47652e-08
-1.38231e-09
2.45126e-08
-1.20748e-09
2.42685e-08
-9.38438e-10
2.40542e-08
-5.96884e-10
2.38922e-08
-2.09109e-10
2.38037e-08
1.95288e-10
2.38071e-08
5.84797e-10
2.39116e-08
9.28258e-10
2.4111e-08
1.19774e-09
2.43749e-08
1.37183e-09
1.44151e-09
2.46496e-08
2.87531e-08
-4.51885e-10
2.86991e-08
-5.45638e-10
2.86344e-08
-6.45715e-10
2.85663e-08
-7.47364e-10
2.85034e-08
-8.46851e-10
2.8451e-08
-9.43563e-10
2.84156e-08
-1.037e-09
2.83987e-08
-1.13039e-09
2.84012e-08
-1.22634e-09
2.84217e-08
-1.32844e-09
2.84577e-08
-1.43957e-09
2.8506e-08
-1.56121e-09
2.85631e-08
-1.69255e-09
2.8626e-08
-1.82938e-09
2.86918e-08
-1.96185e-09
2.87597e-08
-2.07437e-09
2.88309e-08
-2.13884e-09
2.89111e-08
-2.12072e-09
2.90117e-08
-1.96862e-09
2.91501e-08
-1.62256e-09
2.93554e-08
-1.05879e-09
2.96555e-08
-2.19071e-10
3.00064e-08
6.13326e-10
3.03648e-08
9.92696e-10
3.07041e-08
1.03131e-09
3.09998e-08
8.63462e-10
3.12386e-08
5.57253e-10
3.14121e-08
1.78731e-10
3.15152e-08
-2.17049e-10
3.15471e-08
-5.86502e-10
3.15101e-08
-8.953e-10
3.14109e-08
-1.11852e-09
3.12598e-08
-1.24104e-09
3.10702e-08
-1.25734e-09
3.08587e-08
-1.17078e-09
3.06436e-08
-9.92394e-10
3.04446e-08
-7.39426e-10
3.02815e-08
-4.33765e-10
3.01727e-08
-1.0037e-10
3.01335e-08
2.34551e-10
3.01728e-08
5.45496e-10
3.02909e-08
8.10162e-10
3.04767e-08
1.01187e-09
3.07069e-08
1.14167e-09
1.19989e-09
3.09485e-08
3.81406e-08
-4.1212e-10
3.8087e-08
-4.92058e-10
3.80212e-08
-5.79823e-10
3.79464e-08
-6.72646e-10
3.78675e-08
-7.67966e-10
3.77886e-08
-8.64636e-10
3.7714e-08
-9.62369e-10
3.7646e-08
-1.06238e-09
3.75862e-08
-1.16657e-09
3.75349e-08
-1.27709e-09
3.74911e-08
-1.39577e-09
3.74532e-08
-1.5233e-09
3.7419e-08
-1.65836e-09
3.73863e-08
-1.79672e-09
3.73533e-08
-1.92879e-09
3.73195e-08
-2.04063e-09
3.72866e-08
-2.10588e-09
3.72607e-08
-2.09487e-09
3.7254e-08
-1.96194e-09
3.72841e-08
-1.65265e-09
3.73825e-08
-1.15713e-09
3.75799e-08
-4.16501e-10
3.78472e-08
3.46003e-10
3.81445e-08
6.95394e-10
3.84416e-08
7.34235e-10
3.87084e-08
5.96657e-10
3.89286e-08
3.37068e-10
3.9091e-08
1.63222e-11
3.91891e-08
-3.15179e-10
3.92211e-08
-6.18506e-10
3.91896e-08
-8.63824e-10
3.91017e-08
-1.03058e-09
3.89683e-08
-1.10763e-09
3.88038e-08
-1.09279e-09
3.86248e-08
-9.91835e-10
3.84495e-08
-8.17119e-10
3.82961e-08
-5.85984e-10
3.81813e-08
-3.18983e-10
3.8119e-08
-3.80658e-11
3.81182e-08
2.35357e-10
3.81816e-08
4.82115e-10
3.83044e-08
6.87366e-10
3.84745e-08
8.41735e-10
3.86739e-08
9.42245e-10
9.92085e-10
3.88817e-08
4.97829e-08
-3.68742e-10
4.97278e-08
-4.36884e-10
4.96607e-08
-5.12749e-10
4.95829e-08
-5.94889e-10
4.94967e-08
-6.81694e-10
4.94042e-08
-7.7213e-10
4.93076e-08
-8.6583e-10
4.92085e-08
-9.63264e-10
4.91076e-08
-1.06562e-09
4.90047e-08
-1.17423e-09
4.88992e-08
-1.29025e-09
4.87897e-08
-1.41383e-09
4.86747e-08
-1.54335e-09
4.85526e-08
-1.67466e-09
4.84223e-08
-1.79846e-09
4.82843e-08
-1.90263e-09
4.81407e-08
-1.96225e-09
4.79986e-08
-1.95278e-09
4.7871e-08
-1.83439e-09
4.77758e-08
-1.55742e-09
4.77462e-08
-1.12752e-09
4.78159e-08
-4.8619e-10
4.7974e-08
1.87878e-10
4.81853e-08
4.84125e-10
4.84161e-08
5.03422e-10
4.86315e-08
3.81231e-10
4.88137e-08
1.54895e-10
4.89484e-08
-1.18427e-10
4.90279e-08
-3.9461e-10
4.90494e-08
-6.40068e-10
4.90157e-08
-8.30117e-10
4.8934e-08
-9.48845e-10
4.88155e-08
-9.89121e-10
4.86745e-08
-9.51786e-10
4.85271e-08
-8.44419e-10
4.83898e-08
-6.79828e-10
4.82781e-08
-4.74343e-10
4.82052e-08
-2.46046e-10
4.81801e-08
-1.29824e-11
4.82071e-08
2.08346e-10
4.8285e-08
4.04208e-10
4.84071e-08
5.65308e-10
4.85622e-08
6.8663e-10
4.87366e-08
7.6779e-10
8.12275e-10
4.89164e-08
6.40464e-08
-3.22923e-10
6.39902e-08
-3.80698e-10
6.39229e-08
-4.45415e-10
6.38444e-08
-5.1642e-10
6.37555e-08
-5.9279e-10
6.36571e-08
-6.7372e-10
6.355e-08
-7.58772e-10
6.34347e-08
-8.47975e-10
6.3311e-08
-9.41867e-10
6.31778e-08
-1.04108e-09
6.30338e-08
-1.1462e-09
6.28768e-08
-1.2569e-09
6.27049e-08
-1.37143e-09
6.25162e-08
-1.48593e-09
6.23093e-08
-1.59154e-09
6.2085e-08
-1.6783e-09
6.18454e-08
-1.72271e-09
6.15983e-08
-1.70568e-09
6.13571e-08
-1.59321e-09
6.11401e-08
-1.34037e-09
6.09803e-08
-9.67731e-10
6.09135e-08
-4.19411e-10
6.09508e-08
1.50623e-10
6.10599e-08
3.74975e-10
6.12038e-08
3.5955e-10
6.13462e-08
2.38798e-10
6.14714e-08
2.97485e-11
6.15611e-08
-2.08146e-10
6.16066e-08
-4.4013e-10
6.16051e-08
-6.38547e-10
6.15591e-08
-7.84136e-10
6.14759e-08
-8.65604e-10
6.13663e-08
-8.7956e-10
6.12439e-08
-8.29325e-10
6.1123e-08
-7.23521e-10
6.10177e-08
-5.74528e-10
6.09402e-08
-3.96842e-10
6.08996e-08
-2.05503e-10
6.09012e-08
-1.45372e-11
6.09457e-08
1.63819e-10
6.10301e-08
3.19773e-10
6.11474e-08
4.47987e-10
6.12883e-08
5.45786e-10
6.14424e-08
6.1371e-10
6.547e-10
6.15999e-08
8.13142e-08
-2.78828e-10
8.12608e-08
-3.27292e-10
8.1197e-08
-3.81622e-10
8.11221e-08
-4.4159e-10
8.10361e-08
-5.06707e-10
8.09387e-08
-5.764e-10
8.08302e-08
-6.50217e-10
8.07101e-08
-7.2788e-10
8.05776e-08
-8.09418e-10
8.04314e-08
-8.94795e-10
8.02692e-08
-9.84031e-10
8.00885e-08
-1.07623e-09
7.98866e-08
-1.16947e-09
7.96607e-08
-1.2601e-09
7.94089e-08
-1.33973e-09
7.91313e-08
-1.40068e-09
7.88295e-08
-1.42088e-09
7.85107e-08
-1.38694e-09
7.81875e-08
-1.26994e-09
7.78787e-08
-1.03163e-09
7.76143e-08
-7.03312e-10
7.74281e-08
-2.33223e-10
7.73586e-08
2.20112e-10
7.73671e-08
3.66556e-10
7.74113e-08
3.153e-10
7.74723e-08
1.77765e-10
7.75293e-08
-2.72126e-11
7.75622e-08
-2.41041e-10
7.75617e-08
-4.3966e-10
7.75263e-08
-6.03111e-10
7.74587e-08
-7.16522e-10
7.73659e-08
-7.72801e-10
7.7258e-08
-7.71711e-10
7.7147e-08
-7.18301e-10
7.70449e-08
-6.21438e-10
7.69628e-08
-4.92377e-10
7.69093e-08
-3.43364e-10
7.68902e-08
-1.86385e-10
7.69077e-08
-3.20226e-11
7.69601e-08
1.11379e-10
7.70442e-08
2.35688e-10
7.71533e-08
3.38894e-10
7.72798e-08
4.1923e-10
7.74161e-08
4.77423e-10
5.15681e-10
7.75551e-08
1.02024e-07
-2.41065e-10
1.01978e-07
-2.81128e-10
1.01922e-07
-3.25884e-10
1.01856e-07
-3.75279e-10
1.01778e-07
-4.29055e-10
1.01688e-07
-4.86792e-10
1.01586e-07
-5.48052e-10
1.01471e-07
-6.12348e-10
1.01341e-07
-6.79359e-10
1.01194e-07
-7.48492e-10
1.0103e-07
-8.19294e-10
1.00844e-07
-8.90284e-10
1.00633e-07
-9.59375e-10
1.00396e-07
-1.02298e-09
1.0013e-07
-1.07318e-09
9.98335e-08
-1.10433e-09
9.95083e-08
-1.09571e-09
9.91611e-08
-1.03979e-09
9.88018e-08
-9.1064e-10
9.84503e-08
-6.80067e-10
9.81311e-08
-3.84192e-10
9.78715e-08
2.63716e-11
9.77223e-08
3.69394e-10
9.76566e-08
4.32263e-10
9.76316e-08
3.40264e-10
9.76224e-08
1.8699e-10
9.76095e-08
-1.43599e-11
9.75818e-08
-2.13318e-10
9.75319e-08
-3.89724e-10
9.74586e-08
-5.2982e-10
9.73652e-08
-6.23135e-10
9.72584e-08
-6.66025e-10
9.71472e-08
-6.60543e-10