/*--------------------------------*- C++ -*----------------------------------*\
| =========                 |                                                 |
| \\      /  F ield         | OpenFOAM: The Open Source CFD Toolbox           |
|  \\    /   O peration     | Version:  2312                                  |
|   \\  /    A nd           | Website:  www.openfoam.com                      |
|    \\/     M anipulation  |                                                 |
\*---------------------------------------------------------------------------*/
FoamFile
{
    version     2.0;
    format      ascii;
    arch        "LSB;label=32;scalar=64";
    class       volVectorField;
    location    "181";
    object      U;
}
// * * * * * * * * * * * * * * * * * * * * * * * * * * * * * * * * * * * * * //

dimensions      [0 1 -1 0 0 0 0];

internalField   nonuniform List<vector> 
4800
(
(0.000494089 3.56645e-07 -3.32798e-26)
(0.000485141 4.20775e-07 -2.3574e-25)
(0.000479253 4.60559e-07 3.02074e-25)
(0.000475496 4.72824e-07 1.39981e-25)
(0.000473346 4.5904e-07 2.0822e-24)
(0.000472465 4.33736e-07 -4.96342e-24)
(0.000472775 3.74533e-07 4.65168e-24)
(0.000474125 3.01433e-07 -6.77241e-24)
(0.000476533 1.49987e-07 2.17005e-24)
(0.000480207 -1.44907e-07 7.43101e-24)
(0.000485583 -7.11335e-07 -2.28981e-24)
(0.000493984 -2.20426e-06 -1.93095e-25)
(0.000512799 -7.63205e-06 -2.79663e-24)
(0.000560877 -2.96856e-05 1.28311e-24)
(0.000641511 -9.81054e-05 -1.01518e-24)
(0.00152511 1.84746e-06 -1.05931e-25)
(0.00149737 1.43893e-06 1.32075e-25)
(0.00147879 1.10982e-06 -1.23371e-24)
(0.00146661 7.98736e-07 9.18889e-25)
(0.00145924 4.72526e-07 2.99046e-24)
(0.00145567 1.17496e-07 -4.78722e-24)
(0.00145558 -3.38366e-07 -1.37111e-24)
(0.0014584 -9.06762e-07 -3.31841e-25)
(0.00146427 -1.76682e-06 1.12552e-23)
(0.00147376 -3.2119e-06 -8.32942e-24)
(0.00148803 -5.88294e-06 9.07162e-25)
(0.00150996 -1.207e-05 1.38283e-24)
(0.0015486 -2.97516e-05 -2.03954e-24)
(0.00161535 -8.38026e-05 -5.9863e-25)
(0.00168816 -0.000207458 2.64593e-24)
(0.00266172 5.99007e-06 -7.58511e-26)
(0.00261349 4.66958e-06 7.74457e-26)
(0.00258073 3.63275e-06 8.07101e-25)
(0.00255881 2.69077e-06 -1.93087e-24)
(0.00254504 1.72843e-06 1.90426e-24)
(0.00253767 6.27938e-07 1.81e-24)
(0.00253599 -7.52683e-07 -4.62929e-24)
(0.00253908 -2.49531e-06 -2.86158e-24)
(0.0025469 -5.04642e-06 6.9535e-24)
(0.00256033 -9.08505e-06 2.63743e-24)
(0.0025804 -1.6094e-05 -9.16657e-24)
(0.00260941 -3.01865e-05 -1.38484e-24)
(0.00265155 -6.13218e-05 3.91664e-24)
(0.00270567 -0.000130065 6.17473e-24)
(0.00274542 -0.000246069 -3.18637e-24)
(0.00390962 1.34884e-05 2.80324e-26)
(0.00383968 1.0662e-05 -1.96036e-25)
(0.00379148 8.44538e-06 8.80165e-25)
(0.0037586 6.44352e-06 9.54155e-25)
(0.00373719 4.41549e-06 -9.37648e-25)
(0.00372479 2.11888e-06 -5.49735e-24)
(0.00372004 -7.32332e-07 -3.70693e-24)
(0.00372198 -4.22018e-06 1.37141e-23)
(0.00372975 -9.22151e-06 5.81255e-24)
(0.0037444 -1.69087e-05 -8.41116e-24)
(0.00376597 -2.92179e-05 -3.39172e-24)
(0.00379498 -5.0905e-05 -2.58738e-24)
(0.00383056 -9.03453e-05 7.78814e-26)
(0.00386523 -0.000158343 1.91306e-24)
(0.00387954 -0.000250834 9.35715e-27)
(0.00527223 2.5096e-05 -5.14071e-26)
(0.00518039 2.00624e-05 -3.16357e-25)
(0.00511608 1.61103e-05 -2.04787e-25)
(0.00507131 1.25598e-05 5.43235e-25)
(0.00504118 8.99854e-06 -1.56648e-24)
(0.00502254 5.0473e-06 3.91325e-24)
(0.00501323 3.50066e-07 -6.86594e-25)
(0.00501224 -5.66129e-06 2.42287e-24)
(0.00501796 -1.34971e-05 -1.34364e-23)
(0.00503074 -2.51427e-05 2.57379e-23)
(0.00504962 -4.2387e-05 -2.49287e-23)
(0.00507326 -6.915e-05 1.31633e-23)
(0.00509805 -0.000110522 -1.22286e-23)
(0.00511588 -0.000169959 1.15551e-23)
(0.00511551 -0.000240165 -4.615e-24)
(0.00674897 4.1634e-05 6.78529e-26)
(0.00663682 3.36741e-05 2.44636e-25)
(0.00655688 2.74061e-05 -1.29561e-24)
(0.00650005 2.18007e-05 -8.33867e-25)
(0.00646059 1.62349e-05 2.21923e-24)
(0.00643474 1.01936e-05 8.03287e-25)
(0.00641971 3.12955e-06 -6.30211e-24)
(0.0064139 -5.47734e-06 1.50697e-23)
(0.0064156 -1.6651e-05 -1.96328e-23)
(0.0064238 -3.1919e-05 4.70309e-24)
(0.00643677 -5.29046e-05 1.43606e-23)
(0.00645204 -8.19746e-05 -1.99772e-23)
(0.00646549 -0.000121122 1.00035e-23)
(0.00647097 -0.000169924 1.03148e-23)
(0.00646322 -0.000222162 -7.85871e-24)
(0.00833285 6.36474e-05 5.60756e-26)
(0.0082049 5.21665e-05 -3.3307e-25)
(0.00811173 4.30664e-05 1.20085e-24)
(0.00804396 3.49427e-05 -1.67334e-24)
(0.00799549 2.69476e-05 -5.74009e-24)
(0.00796212 1.84435e-05 9.78882e-24)
(0.00794065 8.74408e-06 -5.97197e-24)
(0.00792887 -2.74215e-06 2.03918e-23)
(0.00792476 -1.69684e-05 -1.38661e-23)
(0.00792646 -3.52129e-05 -6.49916e-24)
(0.00793167 -5.84807e-05 -1.28305e-23)
(0.00793763 -8.76663e-05 1.17874e-23)
(0.00794089 -0.000122754 3.32422e-24)
(0.00793765 -0.000161923 2.8655e-24)
(0.00792604 -0.000200907 -2.52263e-24)
(0.010008 9.09107e-05 -8.09228e-26)
(0.00987272 7.56825e-05 1.10256e-24)
(0.0097715 6.34578e-05 -2.57811e-24)
(0.00969596 5.25089e-05 -2.14231e-24)
(0.00964029 4.17965e-05 7.8051e-25)
(0.00960026 3.05916e-05 1.56808e-24)
(0.00957252 1.81638e-05 5.6961e-24)
(0.00955447 3.87325e-06 -1.55752e-23)
(0.00954376 -1.30079e-05 -8.36574e-24)
(0.00953813 -3.33167e-05 2.29297e-23)
(0.00953516 -5.74604e-05 -7.15039e-24)
(0.00953229 -8.53186e-05 2.44676e-23)
(0.00952714 -0.000115966 -1.28924e-23)
(0.00951756 -0.000147518 -4.13838e-24)
(0.00950337 -0.00017734 2.45465e-24)
(0.0117486 0.000121806 -1.07722e-26)
(0.0116187 0.000103313 6.10238e-25)
(0.0115179 8.81337e-05 -8.70107e-25)
(0.0114404 7.43843e-05 2.10847e-24)
(0.0113813 6.09372e-05 -1.2633e-23)
(0.0113371 4.70404e-05 1.33559e-23)
(0.0113047 3.20119e-05 -2.11895e-23)
(0.0112813 1.52782e-05 1.30039e-23)
(0.0112645 -3.64285e-06 9.71646e-24)
(0.0112521 -2.50728e-05 2.12077e-23)
(0.0112417 -4.89863e-05 -2.77206e-23)
(0.0112316 -7.47629e-05 -5.1797e-24)
(0.01122 -0.0001013 2.33918e-24)
(0.0112058 -0.000127156 1.71083e-23)
(0.0111896 -0.0001508 -6.97624e-24)
(0.0135223 0.000152807 6.02379e-26)
(0.013413 0.000132549 -2.58397e-25)
(0.0133237 0.000115298 1.15406e-24)
(0.0132521 9.93044e-05 -4.06748e-24)
(0.0131956 8.35322e-05 6.18808e-24)
(0.0131516 6.73231e-05 -8.03043e-24)
(0.0131175 5.01389e-05 1.34918e-23)
(0.0130912 3.15739e-05 2.40341e-24)
(0.0130703 1.14146e-05 -1.8698e-23)
(0.0130529 -1.03353e-05 2.6746e-23)
(0.0130373 -3.32388e-05 -2.95436e-23)
(0.013022 -5.66544e-05 -8.78349e-24)
(0.0130062 -7.96557e-05 1.5427e-23)
(0.0129891 -0.000101293 4.60798e-24)
(0.0129716 -0.000120721 -2.01753e-24)
(0.0153021 0.000178837 2.54655e-25)
(0.0152256 0.000159218 -2.03724e-24)
(0.0151582 0.000141547 -3.2468e-24)
(0.015101 0.000124493 7.70134e-24)
(0.0150537 0.000107326 3.47533e-24)
(0.0150151 8.96336e-05 -2.18399e-23)
(0.0149838 7.11131e-05 6.69826e-24)
(0.014958 5.1591e-05 4.84188e-24)
(0.0149361 3.11088e-05 -2.12069e-23)
(0.0149168 9.87292e-06 2.20214e-23)
(0.0148988 -1.15622e-05 -1.78268e-23)
(0.0148811 -3.26237e-05 4.57188e-23)
(0.0148635 -5.26613e-05 -2.208e-23)
(0.0148453 -7.11215e-05 1.3044e-23)
(0.0148275 -8.7564e-05 -3.56967e-24)
(0.0170827 0.000195544 -1.15956e-25)
(0.0170414 0.000178858 1.41894e-24)
(0.0170003 0.000162703 -2.71465e-24)
(0.0169624 0.000146147 -1.37586e-24)
(0.016929 0.000128892 1.53906e-23)
(0.0169002 0.000110896 -2.20225e-24)
(0.0168754 9.21547e-05 -2.75094e-23)
(0.0168538 7.27445e-05 3.21851e-23)
(0.0168343 5.28861e-05 -7.20735e-24)
(0.0168162 3.2951e-05 -2.51881e-23)
(0.0167988 1.33432e-05 2.69607e-23)
(0.0167815 -5.42955e-06 1.46781e-23)
(0.0167644 -2.29398e-05 -1.22191e-23)
(0.0167471 -3.88975e-05 -2.13924e-23)
(0.0167303 -5.30946e-05 1.80147e-24)
(0.0188861 0.000202457 2.06797e-26)
(0.0188708 0.000189675 -1.63577e-24)
(0.0188513 0.000176223 7.52888e-24)
(0.0188308 0.000161417 4.35337e-25)
(0.0188111 0.000145266 4.24191e-24)
(0.0187928 0.000128114 -1.51923e-23)
(0.0187759 0.000110254 1.30232e-23)
(0.0187601 9.19636e-05 3.00874e-24)
(0.018745 7.35741e-05 2.69912e-23)
(0.0187301 5.54574e-05 -4.15905e-23)
(0.0187153 3.79896e-05 -1.89338e-23)
(0.0187004 2.14966e-05 -1.26232e-23)
(0.0186856 6.25723e-06 2.36854e-23)
(0.0186705 -7.58793e-06 -6.93473e-25)
(0.0186559 -1.99516e-05 2.31317e-24)
(0.0207386 0.000203012 -5.79312e-27)
(0.0207355 0.000193765 1.77727e-24)
(0.0207281 0.000183202 -2.57756e-24)
(0.0207181 0.000170626 1.21453e-26)
(0.0207074 0.000156218 3.13148e-24)
(0.0206964 0.000140607 7.9482e-24)
(0.0206855 0.000124326 -3.08507e-23)
(0.0206744 0.000107786 2.57659e-24)
(0.0206632 9.13542e-05 1.57032e-23)
(0.0206516 7.53594e-05 -7.28437e-24)
(0.0206399 6.01e-05 1.98717e-23)
(0.0206277 4.57946e-05 1.40079e-23)
(0.0206155 3.26081e-05 -2.53884e-23)
(0.020603 2.06006e-05 1.74681e-23)
(0.0205909 9.80161e-06 -1.45234e-23)
(0.0226343 0.000201588 -2.966e-25)
(0.0226343 0.000195124 -2.94526e-25)
(0.0226315 0.000187043 3.26523e-24)
(0.0226261 0.000176656 -1.5409e-23)
(0.0226193 0.00016421 1.34679e-23)
(0.0226118 0.000150432 -9.5493e-24)
(0.0226038 0.000135997 6.87097e-24)
(0.0225953 0.000121401 -4.84365e-23)
(0.0225864 0.000107013 6.99269e-23)
(0.0225769 9.31047e-05 -4.12541e-23)
(0.0225671 7.9896e-05 3.68736e-23)
(0.0225569 6.75305e-05 3.09756e-23)
(0.0225467 5.61061e-05 -5.4139e-23)
(0.0225362 4.56434e-05 1.76492e-23)
(0.022526 3.6146e-05 -7.43152e-25)
(0.0245201 0.000199001 -1.12695e-26)
(0.0245208 0.000195378 -1.2109e-24)
(0.0245196 0.000189809 1.25266e-24)
(0.0245162 0.000181664 -4.37118e-25)
(0.0245111 0.000171234 5.76014e-24)
(0.0245051 0.000159481 -9.74898e-24)
(0.0244985 0.000147046 8.89395e-24)
(0.0244914 0.000134447 -2.7843e-23)
(0.0244837 0.000122041 6.31771e-23)
(0.0244755 0.000110054 -8.07253e-23)
(0.024467 9.86544e-05 6.60916e-23)
(0.0244582 8.79409e-05 -2.23188e-23)
(0.0244493 7.79788e-05 1.16584e-24)
(0.0244401 6.87745e-05 5.14414e-24)
(0.0244313 6.03248e-05 -9.84948e-24)
(0.0263076 0.000196387 -9.29765e-25)
(0.0263098 0.000194519 3.24041e-25)
(0.0263093 0.000190993 1.33806e-24)
(0.0263074 0.000185465 -3.06303e-24)
(0.0263036 0.000177382 1.05933e-23)
(0.0262987 0.000167891 -1.03784e-23)
(0.0262932 0.000157631 -8.56269e-24)
(0.0262872 0.000147097 -2.02315e-23)
(0.0262807 0.000136628 1.07095e-23)
(0.0262736 0.000126433 4.89996e-23)
(0.0262663 0.000116654 -2.57724e-23)
(0.0262587 0.000107375 1.52559e-23)
(0.026251 9.86501e-05 -6.29498e-24)
(0.0262431 9.04877e-05 -1.85682e-23)
(0.0262354 8.28898e-05 9.49693e-24)
(0.0278771 0.000191756 2.91557e-25)
(0.0278823 0.000192833 -3.05658e-25)
(0.0278827 0.000191243 1.73824e-24)
(0.0278818 0.000187802 -6.86072e-24)
(0.0278796 0.000182654 -1.86429e-24)
(0.0278759 0.000175434 1.96465e-23)
(0.0278715 0.000167333 -1.45219e-23)
(0.0278666 0.000158817 -8.17997e-24)
(0.0278614 0.000150189 7.73898e-24)
(0.0278556 0.000141646 -8.41784e-24)
(0.0278496 0.000133329 1.97325e-23)
(0.0278432 0.000125318 9.7219e-24)
(0.0278367 0.000117667 -3.64022e-23)
(0.02783 0.000110392 2.5021e-23)
(0.0278235 0.000103504 -5.07526e-24)
(0.0290633 0.000183625 8.01239e-25)
(0.0290692 0.000190434 1.48919e-25)
(0.0290727 0.000191188 -7.8755e-25)
(0.0290732 0.000189511 3.06973e-24)
(0.0290726 0.000186408 -4.89589e-24)
(0.0290708 0.000181593 -8.90377e-24)
(0.0290682 0.000175542 -8.7998e-24)
(0.0290651 0.000168973 2.46112e-23)
(0.0290615 0.000162109 2.19421e-23)
(0.0290574 0.000155123 -5.2449e-23)
(0.029053 0.000148151 2.92783e-23)
(0.0290482 0.000141282 -1.9851e-24)
(0.0290433 0.000134577 -1.56797e-24)
(0.0290382 0.000128067 2.08306e-24)
(0.0290331 0.000121775 -9.51155e-25)
(0.0296442 0.000174268 -1.91504e-24)
(0.0296524 0.000182348 -1.8123e-24)
(0.0296579 0.000186279 4.16962e-24)
(0.0296615 0.000187214 -1.80255e-24)
(0.0296634 0.000185946 1.2997e-24)
(0.0296642 0.000183135 4.3304e-24)
(0.0296642 0.000179246 -3.32125e-24)
(0.0296636 0.000174581 -2.09222e-23)
(0.0296624 0.000169384 4.62708e-23)
(0.0296608 0.000163846 -1.89436e-23)
(0.0296587 0.000158114 6.95372e-24)
(0.0296562 0.000152285 -1.2425e-23)
(0.0296536 0.000146433 -1.22593e-23)
(0.0296506 0.000140598 1.78015e-23)
(0.0296475 0.000134816 -7.56846e-24)
(0.0294334 0.000163588 2.75449e-24)
(0.029441 0.000173067 -5.43803e-24)
(0.0294467 0.000178787 1.66411e-24)
(0.029451 0.000181615 2.12779e-25)
(0.0294541 0.000182289 2.50831e-24)
(0.0294563 0.000181371 -3.71684e-24)
(0.0294578 0.000179245 -1.06076e-23)
(0.0294588 0.000176192 2.5931e-23)
(0.0294593 0.000172437 5.92492e-24)
(0.0294594 0.000168156 -1.50861e-23)
(0.0294591 0.000163489 -7.62098e-24)
(0.0294585 0.000158539 8.58046e-24)
(0.0294576 0.000153382 -9.06798e-24)
(0.0294564 0.000148071 5.1104e-24)
(0.0294551 0.000142652 -2.20039e-24)
(0.0284253 0.000153179 1.56989e-24)
(0.0284367 0.000162994 -2.9671e-24)
(0.0284464 0.000169431 -7.30781e-25)
(0.0284548 0.000173246 3.5058e-24)
(0.028462 0.000175046 -7.5192e-25)
(0.0284682 0.000175288 9.11176e-25)
(0.0284734 0.000174305 -7.59901e-25)
(0.028478 0.000172346 -1.58164e-24)
(0.0284819 0.000169606 -3.61125e-24)
(0.0284853 0.000166243 2.30057e-23)
(0.0284881 0.00016238 -1.41947e-23)
(0.0284905 0.000158112 1.39569e-24)
(0.0284925 0.000153516 -1.78662e-23)
(0.0284942 0.000148649 8.62538e-24)
(0.0284954 0.000143558 2.76304e-24)
(0.0268453 0.000141644 3.68611e-24)
(0.026856 0.000151039 -6.09392e-24)
(0.0268658 0.000157487 1.37307e-24)
(0.0268748 0.00016161 -8.41273e-25)
(0.0268831 0.000163892 1.01296e-24)
(0.0268907 0.000164716 -1.8738e-25)
(0.0268977 0.000164374 1.71546e-24)
(0.0269042 0.000163083 -1.39478e-24)
(0.0269102 0.000161002 1.18181e-24)
(0.0269158 0.00015826 6.59168e-24)
(0.0269209 0.000154962 -1.44526e-23)
(0.0269256 0.000151195 1.11015e-23)
(0.02693 0.00014703 -9.46881e-25)
(0.0269341 0.000142523 -3.34683e-24)
(0.0269378 0.000137719 5.27368e-25)
(0.0249294 0.000131303 1.3688e-24)
(0.0249411 0.0001399 -6.21314e-24)
(0.0249524 0.000145961 9.31147e-24)
(0.0249633 0.00014999 -5.82023e-24)
(0.0249737 0.000152387 3.11782e-24)
(0.0249837 0.000153463 -1.7961e-24)
(0.0249931 0.000153452 -5.82261e-25)
(0.0250021 0.000152527 8.78302e-25)
(0.0250107 0.000150816 -4.61607e-24)
(0.0250189 0.000148427 -2.17928e-24)
(0.0250267 0.000145454 7.387e-24)
(0.0250342 0.000141974 2.27334e-24)
(0.0250412 0.000138054 -3.81312e-24)
(0.025048 0.000133745 1.22516e-24)
(0.0250544 0.000129091 -3.52381e-25)
(0.0228247 0.000120715 1.78747e-25)
(0.0228387 0.000128169 -2.28894e-24)
(0.0228526 0.0001335 -6.80176e-25)
(0.0228664 0.000137102 7.38571e-24)
(0.0228799 0.000139288 -5.92668e-24)
(0.022893 0.000140296 1.39493e-24)
(0.0229057 0.000140304 6.52441e-26)
(0.0229181 0.000139451 6.85874e-26)
(0.02293 0.000137848 1.12248e-24)
(0.0229416 0.00013559 -6.80428e-24)
(0.0229528 0.000132758 6.21644e-24)
(0.0229636 0.00012942 8.53284e-25)
(0.022974 0.000125633 -1.05707e-24)
(0.0229841 0.000121443 -1.97714e-24)
(0.0229937 0.000116891 1.6643e-24)
(0.020647 0.000108662 2.6445e-25)
(0.0206642 0.000114787 2.09455e-24)
(0.0206816 0.000119185 -2.45268e-24)
(0.0206989 0.000122147 -1.19333e-24)
(0.020716 0.000123907 5.9212e-24)
(0.0207329 0.000124639 -4.54439e-24)
(0.0207493 0.000124485 -3.10311e-25)
(0.0207654 0.000123561 2.19428e-26)
(0.0207811 0.00012196 2.8882e-25)
(0.0207964 0.00011976 1.00072e-25)
(0.0208113 0.000117024 1.73999e-24)
(0.0208257 0.00011381 -5.86179e-25)
(0.0208397 0.000110166 -5.90275e-26)
(0.0208533 0.000106133 -3.51994e-25)
(0.0208664 0.000101748 -1.36972e-24)
(0.0184812 9.49157e-05 1.88936e-24)
(0.0185018 9.97043e-05 -2.80254e-24)
(0.0185227 0.000103127 -1.70687e-24)
(0.0185437 0.000105387 5.07433e-24)
(0.0185644 0.000106653 -1.84379e-24)
(0.0185848 0.000107059 -1.50172e-24)
(0.0186048 0.000106713 6.44158e-25)
(0.0186244 0.000105706 1.29875e-25)
(0.0186436 0.000104109 8.87915e-25)
(0.0186623 0.000101982 -1.90028e-24)
(0.0186805 9.93762e-05 1.80365e-24)
(0.0186982 9.63383e-05 -1.28673e-24)
(0.0187154 9.29087e-05 3.05614e-24)
(0.018732 8.91236e-05 -3.72542e-24)
(0.018748 8.50156e-05 1.21246e-24)
(0.0163835 7.99849e-05 -3.69282e-25)
(0.0164071 8.35671e-05 -1.11834e-24)
(0.0164309 8.60982e-05 -3.07771e-24)
(0.0164546 8.77193e-05 8.49588e-24)
(0.0164781 8.85471e-05 -1.83707e-24)
(0.0165013 8.8677e-05 -1.85085e-24)
(0.016524 8.81895e-05 2.16738e-25)
(0.0165463 8.71505e-05 -3.89893e-25)
(0.0165681 8.56138e-05 6.70213e-25)
(0.0165893 8.36253e-05 -5.42011e-25)
(0.0166099 8.12261e-05 -3.17042e-26)
(0.0166299 7.84534e-05 1.6079e-24)
(0.0166492 7.53415e-05 -1.77421e-24)
(0.0166678 7.19212e-05 -2.81621e-25)
(0.0166856 6.82214e-05 3.26284e-25)
(0.0143875 6.48175e-05 1.43379e-24)
(0.0144127 6.74009e-05 1.78039e-24)
(0.0144382 6.92027e-05 -1.96069e-24)
(0.0144634 7.03149e-05 -3.22871e-24)
(0.0144885 7.08109e-05 3.70311e-24)
(0.0145131 7.07573e-05 -3.33527e-24)
(0.0145372 7.02113e-05 3.94284e-25)
(0.0145609 6.92204e-05 9.10639e-25)
(0.0145839 6.78241e-05 1.18744e-25)
(0.0146063 6.60576e-05 7.04496e-25)
(0.014628 6.39529e-05 6.93136e-25)
(0.0146489 6.15398e-05 -3.63304e-24)
(0.0146691 5.88466e-05 1.48048e-24)
(0.0146884 5.58991e-05 6.80074e-25)
(0.0147068 5.27223e-05 6.9753e-26)
(0.0125105 5.04403e-05 -1.50305e-24)
(0.0125359 5.22514e-05 1.90303e-24)
(0.0125614 5.35037e-05 1.439e-25)
(0.0125868 5.42476e-05 2.76871e-24)
(0.0126119 5.45255e-05 -2.46807e-24)
(0.0126365 5.43839e-05 -6.23387e-26)
(0.0126607 5.38626e-05 -3.75178e-25)
(0.0126842 5.29948e-05 -4.21152e-25)
(0.0127072 5.18089e-05 -1.3665e-25)
(0.0127294 5.03312e-05 5.25375e-25)
(0.0127509 4.85859e-05 3.99362e-25)
(0.0127715 4.65967e-05 -1.38568e-25)
(0.0127913 4.43861e-05 -3.27196e-25)
(0.0128101 4.19751e-05 -2.40368e-25)
(0.0128279 3.93847e-05 -1.80025e-25)
(0.01076 3.76608e-05 1.12279e-24)
(0.0107842 3.89041e-05 -9.10694e-25)
(0.0108085 3.97659e-05 -3.26814e-24)
(0.0108326 4.02613e-05 3.04992e-24)
(0.0108564 4.04152e-05 3.22956e-24)
(0.0108798 4.02602e-05 -1.28227e-24)
(0.0109027 3.98225e-05 -1.52802e-24)
(0.010925 3.91244e-05 -9.71647e-25)
(0.0109467 3.81857e-05 4.96138e-25)
(0.0109676 3.70255e-05 -1.36828e-25)
(0.0109878 3.56618e-05 1.97957e-25)
(0.0110071 3.41126e-05 2.30996e-25)
(0.0110255 3.23955e-05 -4.33677e-25)
(0.0110429 3.05268e-05 -5.55115e-26)
(0.0110593 2.85235e-05 1.98054e-25)
(0.00913831 2.69393e-05 -7.11847e-25)
(0.00916016 2.77798e-05 -4.09639e-25)
(0.00918207 2.83727e-05 6.24055e-25)
(0.00920385 2.87073e-05 -1.39914e-24)
(0.00922537 2.88012e-05 4.40832e-24)
(0.00924653 2.86761e-05 -4.93658e-24)
(0.00926724 2.8348e-05 3.92235e-24)
(0.00928742 2.78314e-05 -1.40265e-24)
(0.00930699 2.71397e-05 7.11793e-27)
(0.00932587 2.62862e-05 -2.31263e-25)
(0.00934399 2.52838e-05 4.09591e-26)
(0.0093613 2.41457e-05 -3.54205e-25)
(0.00937771 2.28849e-05 4.67681e-25)
(0.0093932 2.1514e-05 1.43735e-25)
(0.00940767 2.00462e-05 -9.01242e-26)
(0.00764423 1.84043e-05 -3.48003e-25)
(0.00766304 1.89643e-05 1.09529e-25)
(0.00768195 1.93723e-05 1.85555e-25)
(0.00770076 1.9603e-05 -6.70363e-25)
(0.00771938 1.9672e-05 -1.66445e-25)
(0.00773771 1.95921e-05 2.05958e-24)
(0.00775567 1.93722e-05 -1.12356e-24)
(0.00777316 1.90213e-05 6.57606e-26)
(0.00779012 1.8548e-05 -8.45904e-26)
(0.00780647 1.79614e-05 4.25738e-26)
(0.00782214 1.727e-05 1.26367e-25)
(0.00783707 1.64833e-05 -4.17618e-25)
(0.00785119 1.56104e-05 -4.14222e-25)
(0.00786448 1.46609e-05 5.14875e-25)
(0.00787684 1.36442e-05 1.47072e-25)
(0.00627482 1.19372e-05 -1.27167e-25)
(0.00629028 1.23023e-05 -2.93609e-26)
(0.00630588 1.25802e-05 -1.72092e-24)
(0.00632144 1.27412e-05 6.08551e-25)
(0.00633688 1.28e-05 -8.07789e-25)
(0.0063521 1.2762e-05 9.28238e-25)
(0.00636704 1.26319e-05 1.11281e-24)
(0.00638161 1.2415e-05 4.34009e-25)
(0.00639574 1.21164e-05 -3.8491e-25)
(0.00640936 1.17419e-05 1.06359e-25)
(0.00642242 1.12971e-05 -1.78466e-25)
(0.00643486 1.07882e-05 5.79007e-25)
(0.00644661 1.02214e-05 -3.28826e-25)
(0.00645765 9.60357e-06 1.57184e-25)
(0.0064679 8.94118e-06 -2.71652e-25)
(0.0050256 7.27228e-06 -4.99929e-25)
(0.00503771 7.50098e-06 -5.98703e-25)
(0.00505 7.68491e-06 -1.14846e-26)
(0.00506229 7.7966e-06 1.41729e-24)
(0.00507452 7.84805e-06 -8.40825e-25)
(0.00508662 7.84007e-06 -3.80767e-26)
(0.00509852 7.77482e-06 9.79187e-25)
(0.00511015 7.65513e-06 -1.28364e-25)
(0.00512145 7.48391e-06 -1.98032e-25)
(0.00513237 7.2646e-06 9.90424e-26)
(0.00514284 7.00052e-06 2.33837e-25)
(0.00515283 6.69572e-06 -5.34225e-25)
(0.00516226 6.35398e-06 8.47831e-26)
(0.00517113 5.98012e-06 3.07551e-25)
(0.00517936 5.57846e-06 -2.35977e-25)
(0.00389086 4.08045e-06 -1.09569e-25)
(0.00389985 4.21334e-06 1.39e-26)
(0.00390902 4.3287e-06 7.06891e-25)
(0.00391823 4.40356e-06 3.60936e-25)
(0.00392743 4.44596e-06 -3.75272e-25)
(0.00393657 4.45432e-06 -6.27418e-25)
(0.00394559 4.42958e-06 1.70679e-25)
(0.00395443 4.37311e-06 -5.14992e-25)
(0.00396305 4.2864e-06 3.59603e-25)
(0.00397139 4.17136e-06 -7.75889e-26)
(0.00397942 4.02982e-06 -1.89319e-25)
(0.00398708 3.86419e-06 3.37347e-25)
(0.00399435 3.67663e-06 -1.39416e-25)
(0.00400118 3.47035e-06 1.92152e-25)
(0.00400754 3.2483e-06 -1.20379e-25)
(0.00286396 2.02777e-06 -2.02151e-25)
(0.00287018 2.09256e-06 1.80897e-26)
(0.00287657 2.15738e-06 5.78261e-25)
(0.00288301 2.20319e-06 -3.56021e-25)
(0.00288948 2.2338e-06 1.1456e-24)
(0.00289594 2.24711e-06 -1.95341e-24)
(0.00290234 2.24342e-06 1.29369e-24)
(0.00290864 2.22327e-06 -8.0321e-25)
(0.00291481 2.18729e-06 3.43846e-25)
(0.0029208 2.13644e-06 -2.30092e-26)
(0.00292659 2.07159e-06 -2.37025e-26)
(0.00293213 1.99403e-06 -1.98118e-26)
(0.00293741 1.90482e-06 -1.133e-25)
(0.00294239 1.80596e-06 1.61402e-25)
(0.00294705 1.69967e-06 -4.94178e-26)
(0.00193762 8.1639e-07 3.0718e-25)
(0.00194148 8.33846e-07 2.87878e-25)
(0.00194549 8.61375e-07 -1.26377e-24)
(0.00194955 8.83513e-07 8.67814e-25)
(0.00195366 9.00823e-07 -3.09226e-26)
(0.00195778 9.11667e-07 1.27803e-25)
(0.00196189 9.15922e-07 -2.12377e-25)
(0.00196596 9.13592e-07 -2.38059e-25)
(0.00196997 9.04757e-07 1.73846e-25)
(0.00197388 8.89703e-07 -5.09286e-26)
(0.00197767 8.68659e-07 1.4405e-25)
(0.00198133 8.42171e-07 -4.22569e-26)
(0.00198482 8.10557e-07 -1.13796e-25)
(0.00198813 7.74878e-07 6.33898e-27)
(0.00199125 7.36842e-07 3.30529e-26)
(0.0011042 2.16592e-07 -3.10304e-25)
(0.00110615 2.19279e-07 9.0559e-25)
(0.0011082 2.30137e-07 4.38567e-25)
(0.0011103 2.39597e-07 -8.89814e-25)
(0.00111244 2.47629e-07 -9.91657e-26)
(0.0011146 2.53804e-07 -6.91641e-26)
(0.00111678 2.58066e-07 1.53362e-25)
(0.00111895 2.60335e-07 -2.13563e-25)
(0.0011211 2.60535e-07 1.45537e-25)
(0.00112322 2.58675e-07 -7.63817e-26)
(0.00112528 2.54711e-07 5.76224e-26)
(0.00112729 2.48766e-07 -6.91898e-26)
(0.00112921 2.4077e-07 2.28595e-25)
(0.00113105 2.31049e-07 -2.76636e-25)
(0.0011328 2.20656e-07 7.13043e-26)
(0.000356017 5.17961e-08 -2.21705e-27)
(0.00035648 9.8414e-08 1.7234e-25)
(0.000356989 1.32665e-07 1.68425e-25)
(0.000357524 1.54429e-07 -2.89999e-25)
(0.000358087 1.66358e-07 4.68372e-25)
(0.000358672 1.70542e-07 -5.14588e-25)
(0.000359272 1.68662e-07 2.21747e-26)
(0.000359882 1.6203e-07 1.23542e-25)
(0.000360496 1.51658e-07 -1.63035e-25)
(0.000361109 1.38344e-07 3.26141e-26)
(0.000361715 1.22651e-07 -9.04831e-26)
(0.00036231 1.05024e-07 6.19653e-26)
(0.00036289 8.5683e-08 8.39815e-26)
(0.000363451 6.48362e-08 -7.94282e-26)
(0.000363988 4.29148e-08 5.87643e-27)
(0.000951889 -0.000263677 1.00315e-25)
(0.00108731 -0.000192729 2.65307e-24)
(0.00131397 -0.000119646 -7.75182e-24)
(0.00154447 -6.24951e-05 1.15161e-23)
(0.00176378 -1.92025e-05 -4.32386e-24)
(0.00197699 1.11684e-05 -4.32736e-24)
(0.00218428 3.15552e-05 4.98642e-24)
(0.00238654 4.44601e-05 -9.98459e-24)
(0.00258485 5.19885e-05 6.10333e-25)
(0.00278018 5.59337e-05 6.33495e-24)
(0.00297341 5.7815e-05 -1.20779e-24)
(0.0031653 5.89865e-05 1.3003e-24)
(0.00335659 6.0754e-05 -1.29389e-25)
(0.00354804 6.44691e-05 7.9661e-25)
(0.0037407 7.1582e-05 -2.92786e-24)
(0.00393598 8.3695e-05 1.60111e-24)
(0.00413612 0.000102349 -5.02926e-25)
(0.00434438 0.000128976 2.93586e-26)
(0.0045655 0.000164394 1.22127e-24)
(0.00480523 0.00020746 -7.72242e-25)
(0.00507231 0.000253506 1.01245e-25)
(0.0053726 0.000294809 -8.98346e-26)
(0.00568339 0.000312636 1.79176e-25)
(0.0059636 0.000295835 7.12853e-25)
(0.00619855 0.000247171 -1.28e-24)
(0.00638758 0.000172011 -9.17102e-25)
(0.00653195 7.53574e-05 -1.31978e-26)
(0.00663336 -3.87074e-05 2.36182e-24)
(0.00669281 -0.000166476 3.56482e-24)
(0.00671043 -0.00030394 -7.0444e-24)
(0.00668571 -0.00044625 6.67637e-24)
(0.00661804 -0.000587494 -6.59205e-24)
(0.00650713 -0.00072073 1.94013e-24)
(0.00635334 -0.000838195 8.44156e-25)
(0.00615774 -0.000931528 -9.22185e-25)
(0.00592205 -0.000991861 2.81855e-24)
(0.00564838 -0.00100964 3.69494e-25)
(0.00533916 -0.000973949 2.17522e-24)
(0.00499705 -0.000871057 1.63167e-24)
(0.00462562 -0.00068235 -8.76093e-24)
(0.00422913 -0.000384132 -1.179e-25)
(0.00381445 4.46896e-05 4.49406e-24)
(0.0033753 0.000591104 1.78922e-24)
(0.00293544 0.00116699 -6.63585e-24)
(0.00268896 0.00145611 -3.57267e-25)
(0.0017844 -0.000345963 -2.99419e-24)
(0.0018394 -0.000309138 -4.37276e-24)
(0.00197597 -0.00023859 9.07957e-24)
(0.00214836 -0.000173305 4.43948e-24)
(0.00233021 -0.000118968 -1.55541e-23)
(0.00251671 -7.7416e-05 1.6855e-23)
(0.00270378 -4.68813e-05 -6.07691e-24)
(0.00288975 -2.50327e-05 4.96771e-24)
(0.00307427 -9.69994e-06 -6.55747e-24)
(0.00325746 1.05106e-06 7.42445e-26)
(0.00343967 8.88602e-06 -3.48777e-24)
(0.00362138 1.52844e-05 6.90233e-24)
(0.0038031 2.16475e-05 -3.80033e-24)
(0.00398549 2.93834e-05 -3.37454e-24)
(0.0041695 3.99655e-05 -2.22561e-24)
(0.00435644 5.49861e-05 4.27273e-24)
(0.00454844 7.59443e-05 -5.27179e-25)
(0.00474863 0.000104217 2.2672e-24)
(0.00496153 0.000140594 3.9387e-25)
(0.00519258 0.000183883 -6.88833e-25)
(0.00545042 0.000229571 -3.01977e-25)
(0.00574093 0.000270424 -1.95011e-25)
(0.00604289 0.000288418 9.6877e-25)
(0.00631695 0.000272969 1.23725e-24)
(0.00654865 0.000226821 -1.06429e-24)
(0.00673691 0.000155166 -5.50622e-24)
(0.0068824 6.29372e-05 7.5404e-24)
(0.00698631 -4.57231e-05 -5.42101e-24)
(0.00704934 -0.000166968 1.8376e-24)
(0.00707153 -0.000296614 -1.2853e-24)
(0.00705246 -0.000429689 9.95469e-24)
(0.00699176 -0.000560229 -1.40669e-23)
(0.00688951 -0.000681324 8.21122e-24)
(0.00674656 -0.000785301 -6.45504e-24)
(0.00656463 -0.000863914 4.14748e-24)
(0.00634634 -0.00090841 -6.43065e-25)
(0.00609509 -0.000909357 7.19942e-24)
(0.00581524 -0.000856055 -1.04214e-24)
(0.00551248 -0.000735354 -7.65744e-24)
(0.00519541 -0.000529855 -5.66722e-24)
(0.00487734 -0.000217614 1.29871e-23)
(0.00458154 0.000220998 -1.34191e-23)
(0.0043353 0.000771286 -3.80143e-24)
(0.00418531 0.00133127 9.24406e-24)
(0.00419331 0.00154972 3.42685e-24)
(0.00276209 -0.000352651 -3.55647e-26)
(0.00276852 -0.000356142 -5.07436e-24)
(0.00282264 -0.000317073 9.6707e-24)
(0.00292769 -0.000261849 8.54487e-24)
(0.00305796 -0.000207507 -1.38342e-23)
(0.00320446 -0.000160954 2.70749e-25)
(0.00336 -0.000123637 1.3809e-24)
(0.00352033 -9.46855e-05 1.52485e-23)
(0.00368326 -7.25419e-05 -1.80782e-23)
(0.00384769 -5.55114e-05 1.11617e-23)
(0.00401318 -4.19904e-05 3.34172e-24)
(0.00417966 -3.04895e-05 -1.84778e-23)
(0.00434733 -1.95774e-05 6.66605e-24)
(0.00451659 -7.82731e-06 2.62737e-24)
(0.00468823 6.23343e-06 -5.42601e-24)
(0.00486341 2.41736e-05 8.78248e-24)
(0.00504412 4.74389e-05 -6.19819e-24)
(0.0052333 7.73432e-05 -1.505e-25)
(0.00543524 0.000114656 4.57691e-25)
(0.00565505 0.000158124 5.21098e-25)
(0.00590121 0.000203381 5.72576e-26)
(0.00617961 0.000243698 3.30802e-25)
(0.00647063 0.000261775 -9.8571e-25)
(0.00673679 0.000247607 2.97424e-24)
(0.00696387 0.000203933 -4.80581e-24)
(0.00715027 0.000135788 2.78434e-24)
(0.00729607 4.80391e-05 -6.81139e-24)
(0.00740192 -5.51128e-05 9.20012e-24)
(0.0074682 -0.000169669 -8.94364e-24)
(0.00749484 -0.000291285 6.02592e-26)
(0.00748153 -0.000414865 -5.19875e-25)
(0.00742817 -0.000534405 1.64386e-23)
(0.00733524 -0.000643046 -5.51527e-24)
(0.00720414 -0.000733253 -3.17519e-24)
(0.0070373 -0.000796997 2.3369e-24)
(0.00683829 -0.000825833 3.6452e-24)
(0.0066119 -0.000810792 -4.28942e-24)
(0.00636445 -0.000742011 1.17633e-23)
(0.00610458 -0.000608048 -2.41088e-23)
(0.00584517 -0.000394968 9.55508e-24)
(0.00560613 -8.7103e-05 3.74576e-24)
(0.00541909 0.000325738 6.66208e-24)
(0.00532204 0.000819296 -8.31578e-24)
(0.00534631 0.0012876 2.71639e-24)
(0.00548365 0.00145472 -1.72194e-24)
(0.00386738 -0.000333505 -1.29164e-24)
(0.00384518 -0.000362019 -2.02058e-24)
(0.0038502 -0.000350263 -8.69872e-24)
(0.00389051 -0.000318234 2.19139e-24)
(0.00396514 -0.000274316 1.48467e-24)
(0.00406326 -0.000230724 7.19398e-24)
(0.00417783 -0.000192003 -1.54989e-23)
(0.00430345 -0.00015944 5.84415e-24)
(0.00443655 -0.000132721 1.99514e-23)
(0.00457484 -0.000110844 -5.31089e-24)
(0.004717 -9.25658e-05 -4.99046e-24)
(0.0048623 -7.65723e-05 -7.90109e-25)
(0.0050105 -6.15214e-05 2.56377e-24)
(0.00516168 -4.604e-05 -4.9887e-24)
(0.00531639 -2.87061e-05 1.15438e-24)
(0.00547558 -8.00618e-06 -4.09074e-25)
(0.00564106 1.74262e-05 -2.42601e-24)
(0.00581559 4.88245e-05 8.69794e-25)
(0.00600318 8.69365e-05 4.3239e-24)
(0.00620858 0.000130435 -4.69021e-25)
(0.00644011 0.000175084 -1.02051e-24)
(0.00670358 0.000214695 -2.99902e-25)
(0.0069811 0.000232712 -1.74454e-24)
(0.00723719 0.000219727 -1.5656e-25)
(0.00745787 0.000178487 -4.40106e-24)
(0.00764097 0.000113879 7.47121e-24)
(0.00778592 3.07096e-05 -6.84612e-24)
(0.00789283 -6.67632e-05 1.3339e-23)
(0.00796173 -0.000174399 -1.1928e-23)
(0.00799246 -0.000287705 2.54952e-24)
(0.00798481 -0.000401489 5.40909e-24)
(0.00793899 -0.000509746 -7.24958e-26)
(0.00785591 -0.000605733 -2.8512e-25)
(0.00773756 -0.000682159 1.43181e-25)
(0.0075871 -0.000731375 -1.16689e-24)
(0.00740907 -0.000745506 -1.80254e-24)
(0.00720952 -0.000716465 1.213e-23)
(0.0069965 -0.000635875 -6.0923e-24)
(0.00678085 -0.000494985 3.96403e-25)
(0.00657792 -0.000284814 -2.41054e-23)
(0.00640963 2.00158e-06 1.86724e-23)
(0.00630667 0.000364712 -7.81928e-24)
(0.00630207 0.000774217 1.35113e-24)
(0.00640921 0.00114536 1.08371e-23)
(0.00660169 0.00131314 -2.88904e-24)
(0.00509452 -0.000304085 -5.36799e-24)
(0.00506153 -0.000342168 1.10385e-23)
(0.00503745 -0.000349929 3.21517e-24)
(0.00503695 -0.000338395 1.38547e-23)
(0.00505921 -0.000312962 -3.42089e-23)
(0.00510849 -0.000279079 -1.08861e-24)