/*--------------------------------*- C++ -*----------------------------------*\
| =========                 |                                                 |
| \\      /  F ield         | OpenFOAM: The Open Source CFD Toolbox           |
|  \\    /   O peration     | Version:  2312                                  |
|   \\  /    A nd           | Website:  www.openfoam.com                      |
|    \\/     M anipulation  |                                                 |
\*---------------------------------------------------------------------------*/
FoamFile
{
    version     2.0;
    format      ascii;
    arch        "LSB;label=32;scalar=64";
    class       volVectorField;
    location    "178.5";
    object      U;
}
// * * * * * * * * * * * * * * * * * * * * * * * * * * * * * * * * * * * * * //

dimensions      [0 1 -1 0 0 0 0];

internalField   nonuniform List<vector> 
4800
(
(0.000473329 2.28242e-07 -2.06834e-26)
(0.000468384 2.29143e-07 -1.46339e-25)
(0.000466211 2.1949e-07 1.87535e-25)
(0.000465684 2.16783e-07 8.72135e-26)
(0.000466418 2.08551e-07 1.30677e-24)
(0.000467922 1.99942e-07 -3.13373e-24)
(0.000470115 1.54177e-07 2.96092e-24)
(0.000472996 6.02926e-08 -4.34485e-24)
(0.000476673 -9.73767e-08 1.38071e-24)
(0.000481329 -3.57243e-07 4.82576e-24)
(0.000487403 -8.76328e-07 -1.48397e-24)
(0.000496221 -2.31487e-06 -1.18936e-25)
(0.000515284 -7.64973e-06 -1.84826e-24)
(0.000562878 -2.92392e-05 8.79738e-25)
(0.000640455 -9.41352e-05 -7.04033e-25)
(0.00146712 1.16617e-06 -6.5472e-26)
(0.00145192 6.78038e-07 8.16258e-26)
(0.00144484 2.94774e-07 -7.62407e-25)
(0.00144261 -1.98648e-08 5.64182e-25)
(0.00144405 -3.37793e-07 1.8528e-24)
(0.00144767 -6.40483e-07 -2.99491e-24)
(0.00145336 -1.04732e-06 -8.86591e-25)
(0.00146099 -1.62631e-06 -2.33279e-25)
(0.00147081 -2.47853e-06 7.22696e-24)
(0.00148336 -3.8254e-06 -5.37108e-24)
(0.00149987 -6.34781e-06 5.84402e-25)
(0.00152318 -1.23235e-05 9.07182e-25)
(0.00156244 -2.96433e-05 -1.35909e-24)
(0.0016283 -8.26002e-05 -4.31029e-25)
(0.00169806 -0.000201465 1.80399e-24)
(0.00256882 3.73961e-06 -4.68486e-26)
(0.00254259 2.20444e-06 4.7849e-26)
(0.00252982 1.04957e-06 4.98006e-25)
(0.00252512 5.13242e-08 -1.18337e-24)
(0.00252652 -9.27123e-07 1.16556e-24)
(0.00253137 -1.9182e-06 1.13581e-24)
(0.00253977 -3.18016e-06 -2.95793e-24)
(0.00255123 -4.86953e-06 -1.87065e-24)
(0.00256601 -7.29324e-06 4.46206e-24)
(0.00258477 -1.10559e-05 1.71681e-24)
(0.0026089 -1.76791e-05 -5.96387e-24)
(0.00264065 -3.11982e-05 -9.38215e-25)
(0.00268423 -6.13169e-05 2.56847e-24)
(0.00273823 -0.000127939 4.12825e-24)
(0.00277682 -0.000238583 -2.14116e-24)
(0.0037842 8.34534e-06 1.73089e-26)
(0.00374645 5.06036e-06 -1.20734e-25)
(0.00372728 2.60375e-06 5.42159e-25)
(0.00371931 4.71186e-07 5.86556e-25)
(0.00371983 -1.5624e-06 -5.65002e-25)
(0.00372492 -3.6015e-06 -3.39975e-24)
(0.00373488 -6.22701e-06 -2.40789e-24)
(0.0037489 -9.62317e-06 8.94377e-24)
(0.00376692 -1.43646e-05 3.78292e-24)
(0.00378941 -2.14657e-05 -5.3819e-24)
(0.00381716 -3.30418e-05 -2.19064e-24)
(0.00385069 -5.36543e-05 -1.69497e-24)
(0.00388927 -9.13615e-05 4.55382e-26)
(0.0039256 -0.000156398 1.26573e-24)
(0.00394106 -0.000243688 6.20476e-27)
(0.00511627 1.53858e-05 -3.17383e-26)
(0.00506723 9.54488e-06 -1.94315e-25)
(0.00504134 5.18813e-06 -1.26077e-25)
(0.00502952 1.44124e-06 3.33757e-25)
(0.00502813 -2.13681e-06 -9.58531e-25)
(0.00503262 -5.5593e-06 2.38809e-24)
(0.00504285 -1.00043e-05 -4.21135e-25)
(0.0050579 -1.5607e-05 1.55767e-24)
(0.00507714 -2.31247e-05 -8.65417e-24)
(0.00510059 -3.38576e-05 1.65545e-23)
(0.00512806 -4.99699e-05 -1.61079e-23)
(0.0051584 -7.51685e-05 8.56547e-24)
(0.0051883 -0.000114259 -7.99667e-24)
(0.00521006 -0.000170364 7.56377e-24)
(0.00521324 -0.000235891 -3.01898e-24)
(0.0065636 2.52599e-05 4.18564e-26)
(0.00650481 1.60063e-05 1.49898e-25)
(0.00647267 9.11642e-06 -7.95311e-25)
(0.00645695 3.24129e-06 -5.15592e-25)
(0.00645283 -2.24099e-06 1.35511e-24)
(0.00645616 -7.59225e-06 4.94426e-25)
(0.00646555 -1.41535e-05 -3.94304e-24)
(0.00648004 -2.22633e-05 9.51372e-24)
(0.00649851 -3.26976e-05 -1.24751e-23)
(0.00652038 -4.67907e-05 2.97916e-24)
(0.00654458 -6.62832e-05 9.24211e-24)
(0.00656901 -9.33986e-05 -1.29141e-23)
(0.00658996 -0.000129951 6.48419e-24)
(0.00660181 -0.000175389 6.65608e-24)
(0.0065999 -0.000223515 -5.07045e-24)
(0.0081182 3.81052e-05 3.44612e-26)
(0.0080533 2.46347e-05 -2.0406e-25)
(0.00801679 1.46044e-05 7.35256e-25)
(0.00799806 6.15186e-06 -1.02592e-24)
(0.00799135 -1.58871e-06 -3.54606e-24)
(0.00799305 -9.32328e-06 6.05425e-24)
(0.008001 -1.82333e-05 -3.72772e-24)
(0.00801369 -2.8882e-05 1.28399e-23)
(0.00802985 -4.2051e-05 -8.73005e-24)
(0.00804833 -5.88179e-05 -4.12769e-24)
(0.00806756 -8.02607e-05 -8.20811e-24)
(0.00808526 -0.000107215 7.54987e-24)
(0.00809851 -0.000139588 2.13289e-24)
(0.00810401 -0.000175554 1.8222e-24)
(0.00810037 -0.000210961 -1.60473e-24)
(0.00976362 5.34244e-05 -4.91731e-26)
(0.00969911 3.51715e-05 6.71693e-25)
(0.00966211 2.15401e-05 -1.57181e-24)
(0.00964263 1.01758e-05 -1.31402e-24)
(0.00963481 -1.9551e-07 4.67218e-25)
(0.00963524 -1.04235e-05 9.55042e-25)
(0.00964161 -2.17378e-05 3.53682e-24)
(0.00965211 -3.47986e-05 -9.75095e-24)
(0.00966524 -5.0248e-05 -5.30716e-24)
(0.00967958 -6.87802e-05 1.44511e-23)
(0.00969347 -9.08192e-05 -4.52769e-24)
(0.00970497 -0.000116264 1.5492e-23)
(0.00971227 -0.000144194 -8.17344e-24)
(0.00971369 -0.000172775 -2.59942e-24)
(0.00970945 -0.000199489 1.53854e-24)
(0.0114748 6.96226e-05 -6.36174e-27)
(0.0114201 4.65295e-05 3.68393e-25)
(0.0113887 2.9164e-05 -5.25913e-25)
(0.0113725 1.47648e-05 1.28217e-24)
(0.0113663 1.71522e-06 -7.71737e-24)
(0.0113672 -1.10365e-05 8.17311e-24)
(0.0113729 -2.46157e-05 -1.31029e-23)
(0.0113818 -3.97052e-05 8.02291e-24)
(0.0113922 -5.67727e-05 6.04351e-24)
(0.0114028 -7.6121e-05 1.32592e-23)
(0.0114121 -9.7688e-05 -1.73478e-23)
(0.0114189 -0.000120925 -3.21563e-24)
(0.0114221 -0.000144778 1.50155e-24)
(0.0114211 -0.000167874 1.0596e-23)
(0.0114166 -0.000188777 -4.30365e-24)
(0.0132226 8.36605e-05 3.32023e-26)
(0.0131882 5.64397e-05 -1.50455e-25)
(0.0131699 3.57236e-05 6.90503e-25)
(0.0131623 1.8523e-05 -2.44807e-24)
(0.0131617 3.04497e-06 3.73951e-24)
(0.0131658 -1.19419e-05 -4.88417e-24)
(0.013173 -2.74032e-05 8.2487e-24)
(0.0131817 -4.39474e-05 1.49642e-24)
(0.0131908 -6.1864e-05 -1.15131e-23)
(0.0131991 -8.11652e-05 1.6496e-23)
(0.0132056 -0.00010153 -1.82285e-23)
(0.0132096 -0.000122317 -5.36334e-24)
(0.0132107 -0.000142662 9.48943e-24)
(0.0132086 -0.000161682 2.8037e-24)
(0.0132045 -0.000178611 -1.22289e-24)
(0.014985 9.14274e-05 1.16834e-25)
(0.0149785 6.15492e-05 -1.13849e-24)
(0.0149794 3.84276e-05 -1.93524e-24)
(0.0149851 1.91023e-05 4.5411e-24)
(0.0149938 1.70049e-06 2.08587e-24)
(0.0150042 -1.48697e-05 -1.31174e-23)
(0.0150154 -3.15454e-05 4.00368e-24)
(0.0150262 -4.88006e-05 2.91601e-24)
(0.015036 -6.67641e-05 -1.2868e-23)
(0.0150441 -8.52901e-05 1.33858e-23)
(0.0150499 -0.000103992 -1.07445e-23)
(0.0150532 -0.000122329 2.7628e-23)
(0.0150541 -0.000139702 -1.32607e-23)
(0.0150525 -0.000155608 7.79032e-24)
(0.0150495 -0.00016967 -2.1205e-24)
(0.0167625 8.95984e-05 -2.38762e-26)
(0.0167829 5.86676e-05 7.26278e-25)
(0.0168035 3.4321e-05 -1.50956e-24)
(0.0168238 1.37966e-05 -8.1248e-25)
(0.0168433 -4.68215e-06 9.00432e-24)
(0.0168616 -2.20545e-05 -1.24746e-24)
(0.0168781 -3.91337e-05 -1.6277e-23)
(0.0168927 -5.62818e-05 1.91081e-23)
(0.0169049 -7.35346e-05 -4.28934e-24)
(0.0169144 -9.07062e-05 -1.4963e-23)
(0.0169215 -0.000107465 1.59763e-23)
(0.0169258 -0.000123433 8.57395e-24)
(0.0169281 -0.000138246 -7.28372e-24)
(0.0169281 -0.000151652 -1.24993e-23)
(0.016927 -0.000163494 1.04506e-24)
(0.018581 7.83669e-05 -2.14194e-26)
(0.0186177 4.71468e-05 -7.6153e-25)
(0.0186513 2.23353e-05 3.9724e-24)
(0.0186817 1.28629e-06 3.61985e-25)
(0.0187091 -1.74589e-05 2.48592e-24)
(0.0187334 -3.49169e-05 -8.6484e-24)
(0.0187544 -5.16778e-05 7.51408e-24)
(0.0187722 -6.80321e-05 1.75495e-24)
(0.0187868 -8.39984e-05 1.56093e-23)
(0.0187984 -9.94366e-05 -2.41025e-23)
(0.0188072 -0.000114124 -1.09122e-23)
(0.0188134 -0.00012784 -7.17149e-24)
(0.0188175 -0.000140396 1.35628e-23)
(0.0188196 -0.000151692 -3.81917e-25)
(0.0188207 -0.000161687 1.3042e-24)
(0.020468 6.18345e-05 -2.50184e-26)
(0.0205075 3.01507e-05 7.01718e-25)
(0.0205436 4.79446e-06 -1.03898e-24)
(0.0205762 -1.65412e-05 -1.46661e-26)
(0.0206054 -3.52576e-05 1.68661e-24)
(0.0206309 -5.23636e-05 4.40363e-24)
(0.0206529 -6.83977e-05 -1.70928e-23)
(0.0206713 -8.36065e-05 1.39762e-24)
(0.0206866 -9.80418e-05 8.77027e-24)
(0.0206988 -0.000111653 -4.05179e-24)
(0.0207084 -0.000124339 1.10695e-23)
(0.0207155 -0.000136008 7.70581e-24)
(0.0207209 -0.000146594 -1.40146e-23)
(0.0207244 -0.000156082 9.51267e-24)
(0.020727 -0.000164492 -7.90719e-24)
(0.0224147 4.45832e-05 -6.27534e-25)
(0.0224489 1.20533e-05 6.28328e-25)
(0.0224803 -1.39233e-05 1.14219e-24)
(0.0225089 -3.54924e-05 -7.07646e-24)
(0.0225345 -5.41633e-05 6.33114e-24)
(0.0225568 -7.08648e-05 -4.94933e-24)
(0.022576 -8.60986e-05 3.51251e-24)
(0.0225921 -0.000100137 -2.56951e-23)
(0.0226055 -0.000113105 3.71036e-23)
(0.0226163 -0.000125054 -2.1945e-23)
(0.0226249 -0.000135989 1.9619e-23)
(0.0226315 -0.000145918 1.63321e-23)
(0.0226367 -0.000154852 -2.85391e-23)
(0.0226403 -0.00016283 9.26177e-24)
(0.0226432 -0.000169904 -3.87273e-25)
(0.0243605 2.83507e-05 -2.10387e-26)
(0.0243883 -4.63002e-06 5.11234e-25)
(0.0244136 -3.08534e-05 -5.95293e-25)
(0.0244362 -5.25314e-05 -1.90226e-25)
(0.0244563 -7.10471e-05 2.47089e-24)
(0.0244737 -8.72388e-05 -4.36543e-24)
(0.0244886 -0.000101628 4.20466e-24)
(0.024501 -0.000114549 -1.36101e-23)
(0.0245113 -0.000126204 3.11878e-23)
(0.0245194 -0.000136722 -4.01167e-23)
(0.024526 -0.000146189 3.2938e-23)
(0.024531 -0.000154677 -1.11367e-23)
(0.0245349 -0.000162251 5.68978e-25)
(0.0245375 -0.000168978 2.51518e-24)
(0.0245397 -0.000174923 -4.85242e-24)
(0.0262065 1.24727e-05 -1.70412e-24)
(0.0262297 -1.99592e-05 3.78767e-24)
(0.02625 -4.58817e-05 -2.11926e-24)
(0.0262676 -6.71978e-05 -4.7714e-25)
(0.0262829 -8.51463e-05 3.16031e-24)
(0.0262959 -0.000100547 -3.46788e-24)
(0.0263069 -0.000113947 -3.59144e-24)
(0.0263158 -0.00012572 -8.9626e-24)
(0.0263231 -0.000136123 4.35353e-24)
(0.0263288 -0.000145341 2.19489e-23)
(0.0263332 -0.000153511 -1.16518e-23)
(0.0263363 -0.000160744 6.98183e-24)
(0.0263387 -0.00016713 -2.88498e-24)
(0.0263401 -0.000172753 -8.49887e-24)
(0.0263412 -0.000177684 4.34565e-24)
(0.0278279 -3.54996e-06 5.56271e-25)
(0.0278482 -3.45796e-05 -1.03711e-24)
(0.027865 -5.94933e-05 -1.38466e-24)
(0.027879 -7.98734e-05 2.59374e-24)
(0.0278908 -9.68402e-05 -1.60239e-24)
(0.0279005 -0.000111177 3.78824e-24)
(0.0279085 -0.000123427 -3.65467e-24)
(0.0279148 -0.000133983 -2.90843e-24)
(0.0279198 -0.000143135 2.5587e-24)
(0.0279235 -0.000151102 -3.32058e-24)
(0.0279262 -0.000158046 7.69247e-24)
(0.027928 -0.000164099 3.99294e-24)
(0.0279291 -0.000169362 -1.48663e-23)
(0.0279294 -0.000173928 1.02966e-23)
(0.0279294 -0.000177862 -2.10217e-24)
(0.0290684 -2.04539e-05 1.64639e-24)
(0.0290861 -4.90962e-05 3.23514e-24)
(0.0291002 -7.22898e-05 -7.00923e-24)
(0.0291113 -9.12096e-05 -1.77812e-24)
(0.0291203 -0.000106803 3.75601e-24)
(0.0291274 -0.000119786 -1.65388e-25)
(0.0291329 -0.000130689 -2.4824e-24)
(0.029137 -0.000139914 3.21146e-24)
(0.02914 -0.000147761 5.7045e-24)
(0.0291419 -0.000154457 -1.41497e-23)
(0.0291429 -0.000160168 8.51048e-24)
(0.0291432 -0.000165033 -6.16723e-25)
(0.029143 -0.000169151 -5.3986e-25)
(0.0291421 -0.000172615 7.3611e-25)
(0.0291409 -0.000175489 -3.42015e-25)
(0.0297222 -3.68311e-05 -4.34944e-24)
(0.0297349 -6.21743e-05 -1.00004e-23)
(0.0297439 -8.27733e-05 4.46719e-24)
(0.0297504 -9.95317e-05 1.97285e-23)
(0.0297549 -0.000113228 -5.73911e-24)
(0.029758 -0.000124486 -2.8227e-24)
(0.0297598 -0.000133791 1.71279e-24)
(0.0297606 -0.000141525 1.02683e-24)
(0.0297606 -0.000147966 4.16481e-25)
(0.0297599 -0.000153328 -6.55023e-25)
(0.0297585 -0.000157767 1.71088e-24)
(0.0297566 -0.00016141 -2.288e-24)
(0.0297543 -0.000164354 -3.17266e-24)
(0.0297516 -0.000166682 4.8977e-24)
(0.0297487 -0.000168451 -2.19501e-24)
(0.0295536 -5.15235e-05 6.93249e-24)
(0.0295634 -7.29437e-05 -1.60545e-23)
(0.02957 -9.03313e-05 2.50895e-24)
(0.0295742 -0.000104418 2.43629e-23)
(0.0295767 -0.000115849 -2.40943e-23)
(0.0295778 -0.00012514 8.89323e-24)
(0.0295779 -0.000132702 7.31617e-24)
(0.029577 -0.000138863 -1.6916e-23)
(0.0295754 -0.00014386 1.52036e-24)
(0.0295731 -0.000147874 4.34193e-24)
(0.0295704 -0.000151041 4.06439e-25)
(0.0295671 -0.000153471 6.48299e-25)
(0.0295635 -0.000155249 -1.08382e-24)
(0.0295596 -0.000156444 9.35494e-25)
(0.0295553 -0.000157106 -4.65821e-25)
(0.0285768 -6.18559e-05 4.31273e-24)
(0.0285823 -7.95574e-05 -9.09519e-24)
(0.0285852 -9.39246e-05 -6.2636e-24)
(0.0285861 -0.000105518 2.94611e-23)
(0.0285857 -0.000114846 -2.70977e-23)
(0.0285841 -0.000122326 2.85539e-24)
(0.0285816 -0.000128305 4.55312e-24)
(0.0285784 -0.000133051 2.51496e-24)
(0.0285746 -0.000136759 2.1389e-24)
(0.0285703 -0.000139579 -1.03191e-23)
(0.0285655 -0.000141621 6.57137e-24)
(0.0285605 -0.000142976 6.43378e-25)
(0.028555 -0.000143714 -6.74918e-26)
(0.0285493 -0.000143893 1.54888e-25)
(0.0285434 -0.000143556 3.53506e-25)
(0.0270528 -6.66925e-05 1.07391e-23)
(0.0270549 -8.11961e-05 -1.90057e-23)
(0.0270546 -9.2967e-05 3.8975e-24)
(0.0270527 -0.000102426 -8.94135e-24)
(0.0270495 -0.000109962 -1.13314e-23)
(0.0270454 -0.000115914 3.88293e-23)
(0.0270404 -0.000120567 -1.48499e-23)
(0.0270348 -0.000124135 4.08113e-24)
(0.0270287 -0.000126773 -2.21208e-24)
(0.0270222 -0.000128602 -5.01126e-24)
(0.0270154 -0.000129716 9.07398e-24)
(0.0270083 -0.000130191 -4.40553e-24)
(0.0270009 -0.000130082 6.89996e-25)
(0.0269934 -0.000129439 2.09276e-25)
(0.0269856 -0.000128296 2.32527e-26)
(0.0251865 -6.80326e-05 4.13865e-24)
(0.0251847 -7.96336e-05 -2.11605e-23)
(0.0251808 -8.90266e-05 3.63183e-23)
(0.0251756 -9.65161e-05 -2.73832e-23)
(0.0251693 -0.00010241 2.667e-23)
(0.0251622 -0.000106985 -9.02359e-24)
(0.0251544 -0.000110464 -6.06563e-24)
(0.0251462 -0.000113009 -6.28176e-24)
(0.0251376 -0.000114738 1.03687e-23)
(0.0251288 -0.000115745 -9.09103e-25)
(0.0251197 -0.000116106 -9.20793e-24)
(0.0251104 -0.000115878 -8.23476e-25)
(0.025101 -0.000115106 1.52346e-24)
(0.0250914 -0.000113827 -2.03761e-25)
(0.0250817 -0.000112074 1.41524e-26)
(0.0231243 -6.52338e-05 5.51042e-25)
(0.023118 -7.43648e-05 -7.93508e-24)
(0.0231102 -8.17636e-05 -4.21569e-24)
(0.0231014 -8.76216e-05 3.51291e-23)
(0.0230918 -9.21735e-05 -3.40646e-23)
(0.0230817 -9.56332e-05 9.83576e-24)
(0.0230712 -9.81659e-05 1.60205e-24)
(0.0230603 -9.98889e-05 -8.07401e-25)
(0.0230493 -0.000100895 -3.54636e-24)
(0.0230381 -0.000101263 1.47964e-23)
(0.0230268 -0.000101055 -1.15456e-23)
(0.0230154 -0.000100319 -3.3807e-25)
(0.023004 -9.90922e-05 8.2186e-25)
(0.0229927 -9.74065e-05 3.22e-25)
(0.0229813 -9.52898e-05 -2.0653e-25)
(0.0209715 -5.89054e-05 8.2043e-25)
(0.0209613 -6.60563e-05 7.34606e-24)
(0.02095 -7.18844e-05 -8.45279e-24)
(0.020938 -7.64855e-05 -5.62642e-24)
(0.0209257 -8.00224e-05 3.50859e-23)
(0.020913 -8.26487e-05 -2.68396e-23)
(0.0209001 -8.44842e-05 -6.93466e-25)
(0.0208871 -8.56237e-05 -5.15612e-24)
(0.0208741 -8.61489e-05 -3.00446e-25)
(0.0208612 -8.61279e-05 7.79652e-25)
(0.0208483 -8.56116e-05 -2.12098e-24)
(0.0208356 -8.46377e-05 2.03861e-24)
(0.0208229 -8.32346e-05 7.61251e-25)
(0.0208106 -8.14277e-05 5.69064e-25)
(0.0207983 -7.92377e-05 2.8199e-25)
(0.0188076 -5.05809e-05 5.85036e-24)
(0.0187949 -5.61853e-05 -8.92441e-24)
(0.0187814 -6.07409e-05 -6.89232e-24)
(0.0187676 -6.43617e-05 2.09614e-23)
(0.0187536 -6.7168e-05 -7.51919e-24)
(0.0187394 -6.92519e-05 -1.00498e-23)
(0.0187253 -7.06858e-05 3.56681e-24)
(0.0187113 -7.15364e-05 7.3856e-24)
(0.0186973 -7.18663e-05 -1.12866e-23)
(0.0186836 -7.17282e-05 1.07583e-23)
(0.0186702 -7.11618e-05 -5.4206e-24)
(0.018657 -7.01978e-05 2.11472e-24)
(0.0186441 -6.88585e-05 -2.22243e-24)
(0.0186315 -6.71641e-05 1.9329e-24)
(0.0186193 -6.51305e-05 -3.42498e-25)
(0.0166938 -4.16365e-05 -1.13626e-24)
(0.0166801 -4.60849e-05 -3.85643e-24)
(0.0166659 -4.97554e-05 -1.20277e-23)
(0.0166516 -5.2739e-05 3.3536e-23)
(0.0166371 -5.50898e-05 -6.17512e-24)
(0.0166227 -5.68539e-05 -9.16467e-24)
(0.0166084 -5.80793e-05 2.96337e-24)
(0.0165942 -5.88178e-05 -4.33543e-24)
(0.0165803 -5.91183e-05 -8.67963e-24)
(0.0165667 -5.90219e-05 8.40301e-24)
(0.0165534 -5.85599e-05 3.98039e-25)
(0.0165404 -5.77564e-05 -2.10553e-24)
(0.0165279 -5.66279e-05 2.42485e-24)
(0.0165158 -5.51892e-05 8.16673e-26)
(0.0165041 -5.3451e-05 -1.14465e-25)
(0.0146727 -3.3276e-05 4.3764e-24)
(0.0146592 -3.69036e-05 6.25537e-24)
(0.0146454 -3.99457e-05 -6.00117e-24)
(0.0146314 -4.24699e-05 -1.25184e-23)
(0.0146174 -4.44954e-05 1.64974e-23)
(0.0146034 -4.60486e-05 -1.76754e-23)
(0.0145895 -4.71637e-05 -4.23512e-25)
(0.0145758 -4.7879e-05 6.65009e-24)
(0.0145623 -4.82308e-05 2.22048e-24)
(0.0145492 -4.82493e-05 -4.17678e-24)
(0.0145364 -4.79583e-05 2.81416e-25)
(0.0145239 -4.73754e-05 7.67131e-24)
(0.0145119 -4.65116e-05 -2.89074e-24)
(0.0145004 -4.53767e-05 -6.17573e-25)
(0.0144893 -4.39773e-05 -2.85159e-26)
(0.0127697 -2.60731e-05 -4.55089e-24)
(0.012757 -2.90454e-05 5.84059e-24)
(0.0127441 -3.15825e-05 6.17158e-25)
(0.012731 -3.37369e-05 1.12087e-23)
(0.0127177 -3.55027e-05 -9.25514e-24)
(0.0127044 -3.68917e-05 5.99661e-25)
(0.0126911 -3.79275e-05 -1.04544e-24)
(0.0126779 -3.86377e-05 -2.71798e-24)
(0.012665 -3.90489e-05 2.14019e-24)
(0.0126523 -3.91832e-05 -6.88554e-24)
(0.0126399 -3.9058e-05 6.52194e-25)
(0.0126279 -3.86853e-05 1.62404e-24)
(0.0126162 -3.80717e-05 9.1834e-25)
(0.012605 -3.72233e-05 3.17294e-25)
(0.0125943 -3.61439e-05 8.20719e-26)
(0.0109966 -2.00792e-05 3.37491e-24)
(0.010985 -2.24895e-05 -2.68303e-24)
(0.0109731 -2.45953e-05 -1.13752e-23)
(0.0109608 -2.64208e-05 1.06708e-23)
(0.0109483 -2.79423e-05 1.43297e-23)
(0.0109356 -2.91655e-05 -3.88114e-24)
(0.0109229 -3.01079e-05 -7.32871e-24)
(0.0109102 -3.07894e-05 -9.69741e-24)
(0.0108976 -3.12294e-05 7.20253e-24)
(0.0108852 -3.14436e-05 3.50885e-25)
(0.010873 -3.14441e-05 -1.48513e-24)
(0.0108612 -3.12382e-05 -3.35141e-25)
(0.0108496 -3.08297e-05 7.05783e-25)
(0.0108385 -3.02217e-05 -4.77858e-26)
(0.0108278 -2.94165e-05 -9.75933e-26)
(0.0093561 -1.5156e-05 -2.12672e-24)
(0.00934558 -1.70716e-05 -1.45948e-24)
(0.00933459 -1.87873e-05 1.84938e-24)
(0.00932312 -2.02946e-05 -5.53617e-24)
(0.00931129 -2.15658e-05 1.80717e-23)
(0.00929921 -2.26063e-05 -2.34752e-23)
(0.00928697 -2.3429e-05 2.25561e-23)
(0.00927465 -2.40481e-05 -9.42379e-24)
(0.00926234 -2.44769e-05 2.00037e-24)
(0.00925011 -2.47264e-05 -6.80161e-26)
(0.00923803 -2.48043e-05 -1.53937e-24)
(0.00922616 -2.47148e-05 3.92598e-25)
(0.00921456 -2.44597e-05 -1.00764e-24)
(0.00920332 -2.40403e-05 -1.05042e-25)
(0.00919244 -2.34576e-05 4.69446e-26)
(0.00784576 -1.1134e-05 -1.03475e-24)
(0.00783625 -1.26124e-05 2.76873e-25)
(0.00782616 -1.3966e-05 5.71764e-25)
(0.00781548 -1.51627e-05 -2.54489e-24)
(0.00780435 -1.61809e-05 -1.07302e-24)
(0.00779285 -1.70269e-05 9.63713e-24)
(0.0077811 -1.77094e-05 -5.61974e-24)
(0.00776918 -1.82379e-05 7.58313e-25)
(0.00775718 -1.86218e-05 -7.4378e-25)
(0.00774517 -1.88679e-05 -7.43836e-25)
(0.00773322 -1.89811e-05 -1.71062e-25)
(0.00772142 -1.89636e-05 1.28114e-24)
(0.00770981 -1.88159e-05 2.15834e-25)
(0.00769848 -1.85379e-05 -6.65001e-25)
(0.00768748 -1.81301e-05 -7.97064e-26)
(0.00646024 -7.87688e-06 -3.76801e-25)
(0.00645175 -8.9748e-06 -1.17358e-25)
(0.0064426 -9.99604e-06 -5.88504e-24)
(0.00643279 -1.08997e-05 1.6451e-24)
(0.00642245 -1.16746e-05 -3.99446e-24)
(0.00641169 -1.23261e-05 2.99211e-24)
(0.00640059 -1.28601e-05 5.32053e-24)
(0.00638925 -1.32827e-05 3.78957e-24)
(0.00637776 -1.35998e-05 -5.21057e-24)
(0.00636618 -1.38158e-05 1.56424e-24)
(0.0063546 -1.39336e-05 1.21972e-24)
(0.0063431 -1.3954e-05 -1.62384e-24)
(0.00633172 -1.38771e-05 8.5646e-25)
(0.00632057 -1.37018e-05 -1.89445e-26)
(0.00630968 -1.3428e-05 1.51455e-25)
(0.00519293 -5.28979e-06 -1.47789e-24)
(0.00518553 -6.06518e-06 -1.97501e-24)
(0.00517743 -6.79101e-06 -3.02467e-25)
(0.00516865 -7.43177e-06 4.8716e-24)
(0.00515931 -7.98504e-06 -3.35643e-24)
(0.00514952 -8.45517e-06 -5.84127e-25)
(0.00513935 -8.84545e-06 5.20382e-24)
(0.00512889 -9.15956e-06 -5.00739e-26)
(0.00511823 -9.40113e-06 -1.05044e-24)
(0.00510744 -9.57264e-06 -3.47204e-24)
(0.00509659 -9.67581e-06 4.84091e-25)
(0.00508575 -9.71085e-06 2.19633e-24)
(0.00507499 -9.6774e-06 -2.75904e-25)
(0.0050644 -9.5741e-06 -2.19694e-25)
(0.00505402 -9.40031e-06 1.34258e-25)
(0.00403665 -3.30206e-06 -3.23496e-25)
(0.00403045 -3.8142e-06 2.35044e-26)
(0.00402354 -4.28999e-06 2.35448e-24)
(0.004016 -4.70832e-06 1.51083e-24)
(0.00400791 -5.07215e-06 -1.11348e-24)
(0.00399937 -5.38424e-06 -2.58379e-24)
(0.00399046 -5.64621e-06 1.00135e-24)
(0.00398124 -5.85999e-06 -4.10578e-24)
(0.0039718 -6.02756e-06 3.14363e-24)
(0.00396219 -6.15021e-06 1.4941e-24)
(0.0039525 -6.22888e-06 -8.55522e-26)
(0.00394278 -6.26346e-06 -1.52725e-24)
(0.00393309 -6.25361e-06 2.47215e-25)
(0.00392351 -6.1979e-06 -1.56639e-25)
(0.0039141 -6.09533e-06 6.9487e-26)
(0.00298405 -1.84978e-06 -5.96609e-25)
(0.00297914 -2.16063e-06 2.04858e-26)
(0.00297359 -2.44051e-06 1.89671e-24)
(0.00296749 -2.68489e-06 -1.18247e-24)
(0.0029609 -2.89855e-06 4.68045e-24)
(0.0029539 -3.08298e-06 -8.45297e-24)
(0.00294656 -3.23885e-06 6.72331e-24)
(0.00293894 -3.36705e-06 -5.46508e-24)
(0.00293109 -3.46858e-06 3.80962e-24)
(0.00292309 -3.54407e-06 -2.35097e-24)
(0.00291497 -3.59404e-06 7.93503e-25)
(0.00290681 -3.61834e-06 1.08085e-25)
(0.00289864 -3.61679e-06 1.41198e-25)
(0.00289055 -3.5883e-06 -1.66755e-25)
(0.00288256 -3.5318e-06 2.88202e-26)
(0.00202784 -8.65194e-07 9.06867e-25)
(0.00202429 -1.03275e-06 9.53705e-25)
(0.00202022 -1.17399e-06 -4.09692e-24)
(0.00201572 -1.29546e-06 2.96267e-24)
(0.00201084 -1.40089e-06 -4.20678e-26)
(0.00200563 -1.49106e-06 7.07841e-25)
(0.00200014 -1.56646e-06 -8.96684e-25)
(0.00199442 -1.6277e-06 -1.76532e-24)
(0.00198851 -1.6755e-06 1.72034e-24)
(0.00198245 -1.7104e-06 1.48184e-25)
(0.0019763 -1.7329e-06 -1.24472e-24)
(0.00197009 -1.74312e-06 4.49032e-25)
(0.00196386 -1.74122e-06 2.32811e-25)
(0.00195766 -1.72644e-06 -2.96858e-26)
(0.00195154 -1.69708e-06 -1.94155e-26)
(0.00116089 -2.70523e-07 -9.1677e-25)
(0.00115872 -3.18073e-07 2.77723e-24)
(0.00115621 -3.57497e-07 1.59475e-24)
(0.00115343 -3.93375e-07 -2.93173e-24)
(0.0011504 -4.25549e-07 -3.40367e-25)
(0.00114716 -4.53701e-07 -2.91859e-25)
(0.00114372 -4.77952e-07 8.58042e-25)
(0.00114014 -4.98645e-07 -1.42383e-24)
(0.00113642 -5.16228e-07 1.86378e-24)
(0.0011326 -5.31097e-07 -9.13562e-25)
(0.00112871 -5.43651e-07 -5.44838e-25)
(0.00112477 -5.54092e-07 3.14627e-25)
(0.00112081 -5.62656e-07 -3.17239e-25)
(0.00111687 -5.68238e-07 3.00869e-25)
(0.00111295 -5.66233e-07 -4.20898e-26)
(0.000376333 1.22045e-08 -6.58431e-27)
(0.000375516 9.85638e-08 5.40645e-25)
(0.000374589 1.59191e-07 6.01204e-25)
(0.000373568 1.96794e-07 -9.58604e-25)
(0.000372464 2.15677e-07 1.90893e-24)
(0.000371286 2.19237e-07 -2.07428e-24)
(0.000370041 2.10251e-07 1.29516e-25)
(0.000368742 1.91097e-07 1.05467e-24)
(0.000367395 1.63842e-07 -1.45442e-24)
(0.000366011 1.30299e-07 -2.33417e-25)
(0.0003646 9.2036e-08 9.0771e-25)
(0.000363169 5.04455e-08 -3.90399e-25)
(0.000361729 6.6971e-09 -1.20636e-25)
(0.000360291 -3.7433e-08 9.74326e-26)
(0.000358863 -7.80316e-08 -3.49521e-27)
(0.000948262 -0.000238949 6.98905e-26)
(0.001089 -0.000149818 1.70162e-24)
(0.00132639 -6.10163e-05 -4.76563e-24)
(0.0015698 8.74493e-06 6.67884e-24)
(0.00180454 6.13132e-05 -2.50023e-24)
(0.00203525 9.75336e-05 -2.24121e-24)
(0.00226147 0.000120053 2.47669e-24)
(0.00248336 0.000131092 -4.72771e-24)
(0.00270132 0.000132581 3.73993e-25)
(0.00291573 0.00012625 2.87789e-24)
(0.00312699 0.000113623 -5.2773e-25)
(0.00333552 9.60765e-05 5.51317e-25)
(0.00354176 7.48851e-05 -6.30621e-26)
(0.00374617 5.1353e-05 2.88682e-25)
(0.00394937 2.69323e-05 -1.04276e-24)
(0.00415213 3.47015e-06 5.50503e-25)
(0.00435598 -1.67899e-05 -1.23318e-25)
(0.00456299 -3.09245e-05 3.29151e-26)
(0.00477717 -3.58899e-05 1.82508e-25)
(0.00500349 -2.85948e-05 -1.00836e-25)
(0.00524951 -8.09618e-06 8.6898e-27)
(0.00552117 2.35352e-05 -7.87945e-27)
(0.00579898 5.476e-05 2.35924e-26)
(0.00604766 7.26002e-05 1.22811e-25)
(0.00625344 7.35101e-05 -2.17263e-25)
(0.00641574 5.77319e-05 -1.83786e-25)
(0.00653638 2.67955e-05 -1.83595e-27)
(0.00661781 -1.79993e-05 4.51809e-25)
(0.00666174 -7.54666e-05 5.13633e-25)
(0.00666882 -0.000143832 -9.53036e-25)
(0.00663867 -0.000220024 2.11716e-25)
(0.00657046 -0.000299495 3.38651e-25)
(0.0064635 -0.000376168 -3.54439e-25)
(0.0063176 -0.000442632 -1.57522e-24)
(0.00613332 -0.000490435 1.54485e-24)
(0.0059119 -0.000510265 8.06472e-24)
(0.00565513 -0.000491836 -2.45695e-24)
(0.00536529 -0.000423235 1.79603e-24)
(0.00504525 -0.000289446 8.95685e-25)
(0.00469913 -7.05091e-05 -1.10396e-23)
(0.00433174 0.000257289 -1.33182e-25)
(0.00394972 0.000710001 4.53909e-24)
(0.00354335 0.0012581 1.3852e-24)
(0.00313159 0.00177512 -6.3128e-24)
(0.00290134 0.00187836 -3.07151e-25)
(0.00179352 -0.000323749 -2.00653e-24)
(0.00185346 -0.000272152 -2.66098e-24)
(0.00200212 -0.000186912 5.66835e-24)
(0.00218843 -0.000109824 2.43016e-24)
(0.00238685 -4.65317e-05 -8.46332e-24)
(0.0025921 7.80139e-07 8.76627e-24)
(0.00279946 3.36253e-05 -3.10663e-24)
(0.00300659 5.40056e-05 2.30805e-24)
(0.00321246 6.38484e-05 -3.05991e-24)
(0.00341658 6.49608e-05 4.30504e-26)
(0.00361876 5.89577e-05 -1.49382e-24)
(0.00381902 4.73099e-05 2.92987e-24)
(0.00401751 3.13763e-05 -1.56722e-24)
(0.00421441 1.25313e-05 -1.24464e-24)
(0.00441016 -7.72188e-06 -6.34636e-25)
(0.00460525 -2.75188e-05 1.51376e-24)
(0.00480095 -4.4634e-05 -7.17851e-26)
(0.00499898 -5.62086e-05 5.05871e-25)
(0.00520292 -5.92767e-05 9.9458e-27)
(0.00541724 -5.08209e-05 -1.02679e-25)
(0.00564906 -2.98421e-05 -2.78405e-26)
(0.00590411 1.90181e-06 -1.95258e-26)
(0.00616506 3.34519e-05 1.2127e-25)
(0.00639971 5.24631e-05 2.23632e-25)
(0.0065952 5.55266e-05 -1.45379e-25)
(0.00675069 4.27331e-05 -1.04198e-24)
(0.00686748 1.55293e-05 1.4445e-24)
(0.00694745 -2.47169e-05 -1.00717e-24)
(0.00699192 -7.66664e-05 3.42e-25)
(0.00700131 -0.00013833 -8.54907e-26)
(0.00697525 -0.000206459 1.36093e-25)
(0.00691309 -0.000276412 1.05823e-24)
(0.00681441 -0.000342119 -2.44389e-24)
(0.00667951 -0.000396257 8.65582e-24)
(0.00650957 -0.00043051 -1.30868e-23)
(0.0063067 -0.000435728 3.43088e-24)
(0.00607403 -0.000401831 1.38188e-23)
(0.00581581 -0.000317274 -3.97625e-24)
(0.00553803 -0.000167858 -1.07473e-23)
(0.0052501 6.49234e-05 -6.30099e-24)
(0.00496652 0.000403161 1.43664e-23)
(0.00471172 0.000862655 -1.36651e-23)
(0.00451155 0.00141432 -2.79325e-24)
(0.00440768 0.00192141 8.84833e-24)
(0.00444086 0.00196477 2.66251e-24)
(0.00279473 -0.000333471 -2.24792e-26)
(0.00280544 -0.000325049 -3.09306e-24)
(0.00287093 -0.000273659 5.92453e-24)
(0.00298994 -0.000207478 4.64389e-24)
(0.00313708 -0.000144676 -7.70161e-24)
(0.0033029 -9.25015e-05 1.72692e-25)
(0.00347959 -5.26683e-05 6.92294e-25)
(0.0036622 -2.47122e-05 7.13533e-24)
(0.00384789 -7.40281e-06 -8.40801e-24)
(0.0040349 7.61414e-07 4.97662e-24)
(0.00422219 1.2768e-06 1.35451e-24)
(0.00440913 -4.41241e-06 -7.81776e-24)
(0.00459541 -1.49344e-05 2.80329e-24)
(0.00478084 -2.88871e-05 1.01869e-24)
(0.00496552 -4.47396e-05 -1.88263e-24)
(0.00514962 -6.06403e-05 2.78033e-24)
(0.00533409 -7.43861e-05 -1.73975e-24)
(0.0055202 -8.31956e-05 7.1257e-26)
(0.00571109 -8.41915e-05 1.49186e-25)
(0.00591061 -7.44371e-05 8.76634e-26)
(0.00612538 -5.28854e-05 9.82098e-27)
(0.00636084 -2.09843e-05 2.54514e-26)
(0.00660191 1.08793e-05 -1.27978e-25)
(0.00681981 3.1019e-05 4.32558e-25)
(0.00700269 3.61979e-05 -8.0796e-25)
(0.00714944 2.63735e-05 4.88516e-25)
(0.00726082 2.91775e-06 -1.26585e-24)
(0.00733812 -3.27332e-05 1.69238e-24)
(0.00738222 -7.90706e-05 -1.3108e-24)
(0.00739334 -0.000133914 4.64893e-25)
(0.00737111 -0.000193834 8.87649e-25)
(0.00731503 -0.000254108 -1.20692e-24)
(0.00722504 -0.000308703 7.01604e-25)
(0.0071019 -0.00035044 4.43073e-24)
(0.00694747 -0.000371254 -1.1251e-23)
(0.00676482 -0.000362362 1.81079e-23)
(0.0065584 -0.000314259 -1.21278e-23)
(0.00633448 -0.000216412 1.70959e-23)
(0.00610199 -5.66262e-05 -3.2483e-23)
(0.00587466 0.00017971 1.23362e-23)
(0.00567371 0.000508135 4.22408e-24)
(0.00553217 0.000935621 6.44121e-24)
(0.00548659 0.00142614 -7.99542e-24)
(0.00556108 0.00184632 2.1228e-24)
(0.00572117 0.00186663 -1.25325e-24)
(0.00393156 -0.000318024 -8.30258e-25)
(0.00391555 -0.000336203 -1.21867e-24)
(0.00392907 -0.000316029 -5.09193e-24)
(0.00398341 -0.00027374 1.5738e-24)
(0.00407448 -0.000222268 1.03003e-24)
(0.00419183 -0.000173401 3.80796e-24)
(0.00432783 -0.000132075 -7.5329e-24)
(0.00447636 -0.000100088 2.97304e-24)
(0.00463319 -7.75394e-05 9.16641e-24)
(0.00479539 -6.36905e-05 -2.48691e-24)
(0.00496093 -5.74659e-05 -2.21136e-24)
(0.00512846 -5.76398e-05 -3.35789e-25)
(0.00529705 -6.29544e-05 1.02277e-24)
(0.00546603 -7.20606e-05 -1.91094e-24)
(0.0056351 -8.34559e-05 4.78614e-25)
(0.00580403 -9.5335e-05 -6.31855e-26)
(0.00597336 -0.000105551 -5.01509e-25)
(0.00614391 -0.000111425 3.69253e-25)
(0.00631827 -0.000110188 6.82721e-25)
(0.00649962 -9.90044e-05 -1.06494e-25)
(0.006694 -7.67974e-05 -9.17907e-26)
(0.00690643 -4.47145e-05 -2.70239e-26)
(0.00712422 -1.25853e-05 -2.23601e-25)
(0.00732229 8.60242e-06 -8.41301e-26)
(0.00748985 1.5824e-05 -8.05489e-25)
(0.00762556 8.9242e-06 1.2777e-24)
(0.0077296 -1.07895e-05 -1.23315e-24)
(0.00780267 -4.18074e-05 2.32842e-24)
(0.00784521 -8.24532e-05 -1.80386e-24)
(0.0078572 -0.000130378 5.66594e-25)
(0.00783828 -0.000181992 3.42345e-25)
(0.00778811 -0.000232533 -1.77864e-25)
(0.00770699 -0.00027607 -2.55009e-25)
(0.00759619 -0.000305677 -1.26932e-24)
(0.00745822 -0.000313705 1.84894e-24)
(0.00729707 -0.000292014 -5.44111e-24)
(0.00711844 -0.000232095 2.49154e-23)
(0.00693026 -0.000125089 -1.32828e-23)
(0.00674354 3.81988e-05 -5.69523e-25)