/*--------------------------------*- C++ -*----------------------------------*\
| =========                 |                                                 |
| \\      /  F ield         | OpenFOAM: The Open Source CFD Toolbox           |
|  \\    /   O peration     | Version:  2312                                  |
|   \\  /    A nd           | Website:  www.openfoam.com                      |
|    \\/     M anipulation  |                                                 |
\*---------------------------------------------------------------------------*/
FoamFile
{
    version     2.0;
    format      ascii;
    arch        "LSB;label=32;scalar=64";
    class       surfaceScalarField;
    location    "89.25";
    object      phi;
}
// * * * * * * * * * * * * * * * * * * * * * * * * * * * * * * * * * * * * * //

dimensions      [0 3 -1 0 0 0 0];

oriented        oriented;

internalField   nonuniform List<scalar> 
9445
(
5.92335e-10
1.75674e-11
5.80467e-10
1.18675e-11
5.72408e-10
8.05954e-12
5.67074e-10
5.33408e-12
5.63808e-10
3.26609e-12
5.62197e-10
1.61123e-12
5.62039e-10
1.57869e-13
5.63341e-10
-1.30196e-12
5.66021e-10
-2.68e-12
5.70457e-10
-4.43606e-12
5.77787e-10
-7.33018e-12
5.91509e-10
-1.37217e-11
6.23926e-10
-3.24174e-11
7.18237e-10
-9.43108e-11
-2.46594e-10
9.64831e-10
2.06315e-09
7.75979e-11
2.02239e-09
5.26261e-11
1.99453e-09
3.59251e-11
1.97587e-09
2.39941e-11
1.96414e-09
1.49905e-11
1.95792e-09
7.83216e-12
1.95648e-09
1.60323e-12
1.95955e-09
-4.37554e-12
1.967e-09
-1.01305e-11
1.98002e-09
-1.74552e-11
2.00143e-09
-2.87408e-11
2.03791e-09
-5.01959e-11
2.10266e-09
-9.71711e-11
2.20835e-09
-2.00002e-10
-3.58944e-10
2.3207e-09
4.06517e-09
1.93261e-10
3.98632e-09
1.31475e-10
3.93212e-09
9.01281e-11
3.89547e-09
6.06444e-11
3.87196e-09
3.84973e-11
3.85876e-09
2.10366e-11
3.85437e-09
5.99582e-12
3.85794e-09
-7.95286e-12
3.86913e-09
-2.13134e-11
3.88942e-09
-3.77502e-11
3.92154e-09
-6.08539e-11
3.96988e-09
-9.85419e-11
4.0372e-09
-1.64489e-10
4.11016e-09
-2.7296e-10
-4.01211e-10
4.15242e-09
6.74418e-09
3.7964e-10
6.61643e-09
2.59224e-10
6.52804e-09
1.78526e-10
6.46761e-09
1.21069e-10
6.42801e-09
7.81005e-11
6.40454e-09
4.45063e-11
6.39452e-09
1.60143e-11
6.39619e-09
-9.62547e-12
6.40865e-09
-3.37676e-11
6.43258e-09
-6.16807e-11
6.46889e-09
-9.71701e-11
6.517e-09
-1.46652e-10
6.57048e-09
-2.17968e-10
6.60977e-09
-3.12246e-10
-4.03941e-10
6.6125e-09
1.02776e-08
6.52609e-10
1.00891e-08
4.47766e-10
9.95752e-09
3.10077e-10
9.86648e-09
2.12108e-10
9.80544e-09
1.39137e-10
9.7674e-09
8.25476e-11
9.7479e-09
3.55144e-11
9.744e-09
-5.72942e-12
9.75383e-09
-4.35887e-11
9.77604e-09
-8.38936e-11
9.80893e-09
-1.30057e-10
9.84768e-09
-1.85409e-10
9.8818e-09
-2.52087e-10
9.89462e-09
-3.25069e-10
-3.85481e-10
9.87616e-09
1.48767e-08
1.02607e-09
1.46159e-08
7.08567e-10
1.44319e-08
4.93993e-10
1.43029e-08
3.41193e-10
1.42143e-08
2.27733e-10
1.41564e-08
1.40388e-10
1.41227e-08
6.92835e-11
1.41083e-08
8.61835e-12
1.41101e-08
-4.53567e-11
1.41244e-08
-9.81657e-11
1.41467e-08
-1.52394e-10
1.41702e-08
-2.08929e-10
1.41846e-08
-2.66501e-10
1.4179e-08
-3.19465e-10
-3.57216e-10
1.41508e-08
2.07849e-08
1.50657e-09
2.0444e-08
1.04948e-09
2.02002e-08
7.37795e-10
2.00262e-08
5.15122e-10
1.9904e-08
3.50013e-10
1.98207e-08
2.23668e-10
1.97672e-08
1.22732e-10
1.97369e-08
3.89297e-11
1.97245e-08
-3.29496e-11
1.97244e-08
-9.80424e-11
1.97304e-08
-1.58381e-10
1.97353e-08
-2.13829e-10
1.97313e-08
-2.62487e-10
1.97125e-08
-3.0075e-10
-3.24226e-10
1.96796e-08
2.82709e-08
2.08475e-09
2.78512e-08
1.46922e-09
2.75453e-08
1.04365e-09
2.73229e-08
7.37574e-10
2.71625e-08
5.10363e-10
2.7049e-08
3.37178e-10
2.69709e-08
2.00915e-10
2.69192e-08
9.05779e-11
2.68869e-08
-6.32874e-13
2.68669e-08
-7.80526e-11
2.68524e-08
-1.43869e-10
2.6837e-08
-1.98467e-10
2.68157e-08
-2.41145e-10
2.67858e-08
-2.70909e-10
-2.87138e-10
2.67488e-08
3.76158e-08
2.72525e-09
3.71352e-08
1.94982e-09
3.67759e-08
1.4029e-09
3.65084e-08
1.00512e-09
3.63103e-08
7.08448e-10
3.61649e-08
4.82558e-10
3.60591e-08
3.06733e-10
3.59824e-08
1.6728e-10
3.59263e-08
5.54959e-11
3.58829e-08
-3.47156e-11
3.58459e-08
-1.06818e-10
3.581e-08
-1.62603e-10
3.57721e-08
-2.03293e-10
3.57313e-08
-2.30108e-10
-2.44515e-10
3.56887e-08
4.91026e-08
3.36282e-09
4.86013e-08
2.45107e-09
4.82135e-08
1.79078e-09
4.79159e-08
1.30269e-09
4.76888e-08
9.35488e-10
4.75162e-08
6.55218e-10
4.73846e-08
4.38354e-10
4.7283e-08
2.68832e-10
4.72026e-08
1.35917e-10
4.71357e-08
3.21445e-11
4.70768e-08
-4.78885e-11
4.70219e-08
-1.07661e-10
4.69688e-08
-1.50278e-10
4.69173e-08
-1.78546e-10
-1.9506e-10
4.68678e-08
6.30327e-08
3.91819e-09
6.25679e-08
2.91583e-09
6.21915e-08
2.16716e-09
6.18918e-08
1.60244e-09
6.16549e-08
1.17235e-09
6.1468e-08
8.42186e-10
6.13193e-08
5.87048e-10
6.11989e-08
3.89175e-10
6.10989e-08
2.35991e-10
6.10128e-08
1.18222e-10
6.0936e-08
2.88732e-11
6.08658e-08
-3.74109e-11
6.08005e-08
-8.50277e-11
6.07398e-08
-1.17848e-10
-1.39087e-10
6.06839e-08
7.97953e-08
4.3392e-09
7.94161e-08
3.29503e-09
7.9092e-08
2.49133e-09
7.88221e-08
1.87233e-09
7.86e-08
1.39446e-09
7.84174e-08
1.02479e-09
7.82659e-08
7.38486e-10
7.81382e-08
5.16898e-10
7.80281e-08
3.46049e-10
7.79311e-08
2.15217e-10
7.7844e-08
1.16062e-10
7.77647e-08
4.18516e-11
7.76922e-08
-1.25413e-11
7.7626e-08
-5.16806e-11
-7.90644e-11
7.7566e-08
9.99683e-08
4.63519e-09
9.96841e-08
3.57926e-09
9.94283e-08
2.74715e-09
9.92055e-08
2.09513e-09
9.90141e-08
1.58583e-09
9.885e-08
1.1889e-09
9.87082e-08
8.80272e-10
9.85842e-08
6.40952e-10
9.84741e-08
4.56111e-10
9.83753e-08
3.14063e-10
9.82857e-08
2.05591e-10
9.82042e-08
1.23348e-10
9.81302e-08
6.15369e-11
9.80632e-08
1.53121e-11
-1.86408e-11
9.80027e-08
1.24318e-07
4.85235e-09
1.24101e-07
3.79644e-09
1.23898e-07
2.95044e-09
1.23714e-07
2.27911e-09
1.2355e-07
1.75004e-09
1.23403e-07
1.33514e-09
1.23273e-07
1.01104e-09
1.23155e-07
7.58655e-10
1.23048e-07
5.62703e-10
1.22951e-07
4.10966e-10
1.22863e-07
2.9381e-10
1.22783e-07
2.03559e-10
1.2271e-07
1.34211e-10
1.22645e-07
8.09465e-11
3.99856e-11
1.22586e-07
1.53592e-07
5.01168e-09
1.53421e-07
3.96743e-09
1.53252e-07
3.11959e-09
1.53092e-07
2.43952e-09
1.52943e-07
1.89919e-09
1.52805e-07
1.47271e-09
1.52679e-07
1.13752e-09
1.52562e-07
8.74792e-10
1.52456e-07
6.69196e-10
1.52359e-07
5.08397e-10
1.5227e-07
3.82641e-10
1.52189e-07
2.84175e-10
1.52116e-07
2.06942e-10
1.52051e-07
1.46118e-10
9.79911e-11
1.51993e-07
1.88255e-07
5.0946e-09
1.88141e-07
4.08154e-09
1.88012e-07
3.24919e-09
1.87877e-07
2.5741e-09
1.87744e-07
2.03277e-09
1.87614e-07
1.60184e-09
1.87492e-07
1.26031e-09
1.87376e-07
9.90194e-10
1.87269e-07
7.76587e-10
1.8717e-07
6.07495e-10
1.87079e-07
4.73378e-10
1.86997e-07
3.66611e-10
1.86922e-07
2.81216e-10
1.86856e-07
2.12469e-10
1.56704e-10
1.86797e-07
2.2838e-07
5.08051e-09
2.28343e-07
4.11927e-09
2.28269e-07
3.32244e-09
2.28175e-07
2.66838e-09
2.28069e-07
2.13847e-09
2.27959e-07
1.7123e-09
2.27848e-07
1.37091e-09
2.27741e-07
1.0978e-09
2.27638e-07
8.79165e-10
2.27542e-07
7.03679e-10
2.27453e-07
5.62311e-10
2.27372e-07
4.47812e-10
2.27299e-07
3.54486e-10
2.27233e-07
2.77801e-10
2.14223e-10
2.27176e-07
2.73521e-07
4.9586e-09
2.7357e-07
4.07094e-09
2.73564e-07
3.32816e-09
2.73521e-07
2.71128e-09
2.73454e-07
2.20552e-09
2.73372e-07
1.79399e-09
2.73283e-07
1.46025e-09
2.73191e-07
1.1897e-09
2.731e-07
9.70006e-10
2.73013e-07
7.90942e-10
2.72931e-07
6.44205e-10
2.72856e-07
5.23159e-10
2.72788e-07
4.22506e-10
2.72727e-07
3.38044e-10
2.66614e-10
2.72675e-07
3.22259e-07
4.71609e-09
3.22405e-07
3.92439e-09
3.22479e-07
3.25398e-09
3.225e-07
2.6904e-09
3.22483e-07
2.22231e-09
3.22441e-07
1.83617e-09
3.22383e-07
1.51854e-09
3.22316e-07
1.25708e-09
3.22244e-07
1.04124e-09
3.22173e-07
8.62247e-10
3.22104e-07
7.129e-10
3.2204e-07
5.87202e-10
3.21982e-07
4.8051e-10
3.21931e-07
3.89003e-10
3.09657e-10
3.21888e-07
3.71474e-07
4.33598e-09
3.71738e-07
3.66048e-09
3.71912e-07
3.07972e-09
3.72018e-07
2.58459e-09
3.72073e-07
2.16743e-09
3.72091e-07
1.81801e-09
3.72084e-07
1.52576e-09
3.7206e-07
1.28094e-09
3.72026e-07
1.07505e-09
3.71988e-07
9.00843e-10
3.71948e-07
7.52392e-10
3.71911e-07
6.24733e-10
3.71877e-07
5.13985e-10
3.71849e-07
4.16911e-10
3.30996e-10
3.71828e-07
3.69047e-07
3.89888e-09
3.69372e-07
3.33529e-09
3.69608e-07
2.84392e-09
3.69773e-07
2.41911e-09
3.69884e-07
2.056e-09
3.69955e-07
1.74697e-09
3.69997e-07
1.48402e-09
3.70019e-07
1.25958e-09
3.70027e-07
1.06705e-09
3.70027e-07
9.00741e-10
3.70023e-07
7.55916e-10
3.70019e-07
6.28584e-10
3.70018e-07
5.15549e-10
3.70021e-07
4.14115e-10
3.22359e-10
3.70029e-07
3.16452e-07
3.4194e-09
3.16824e-07
2.96335e-09
3.17109e-07
2.55927e-09
3.17322e-07
2.20542e-09
3.1748e-07
1.89861e-09
3.17594e-07
1.63329e-09
3.17674e-07
1.40355e-09
3.1773e-07
1.20384e-09
3.17768e-07
1.02915e-09
3.17793e-07
8.75241e-10
3.17811e-07
7.38475e-10
3.17823e-07
6.15833e-10
3.17834e-07
5.04869e-10
3.17845e-07
4.03513e-10
3.10091e-10
3.17857e-07
2.64919e-07
2.96838e-09
2.65285e-07
2.59737e-09
2.6558e-07
2.26457e-09
2.65815e-07
1.97016e-09
2.66002e-07
1.71149e-09
2.66151e-07
1.48457e-09
2.6627e-07
1.28495e-09
2.66365e-07
1.10856e-09
2.66442e-07
9.51504e-10
2.66507e-07
8.10691e-10
2.66562e-07
6.83402e-10
2.66611e-07
5.6711e-10
2.66655e-07
4.60286e-10
2.66698e-07
3.60906e-10
2.67863e-10
2.6674e-07
2.18283e-07
2.53971e-09
2.1864e-07
2.23979e-09
2.18937e-07
1.96811e-09
2.19182e-07
1.72512e-09
2.19384e-07
1.50897e-09
2.19552e-07
1.31664e-09
2.19692e-07
1.14489e-09
2.1981e-07
9.90634e-10
2.1991e-07
8.51122e-10
2.19997e-07
7.23945e-10
2.20074e-07
6.07055e-10
2.20142e-07
4.98734e-10
2.20205e-07
3.97578e-10
2.20263e-07
3.02428e-10
2.1235e-10
2.20319e-07
1.77503e-07
2.13165e-09
1.7785e-07
1.89218e-09
1.78145e-07
1.67333e-09
1.78395e-07
1.47544e-09
1.78606e-07
1.29717e-09
1.78787e-07
1.1363e-09
1.78941e-07
9.90467e-10
1.79074e-07
8.57494e-10
1.7919e-07
7.35366e-10
1.79292e-07
6.22368e-10
1.79382e-07
5.17049e-10
1.79462e-07
4.18195e-10
1.79535e-07
3.24725e-10
1.79602e-07
2.36018e-10
1.5124e-10
1.79663e-07
1.42746e-07
1.75039e-09
1.43075e-07
1.56233e-09
1.4336e-07
1.3889e-09
1.43605e-07
1.23035e-09
1.43816e-07
1.08565e-09
1.44e-07
9.53206e-10
1.44159e-07
8.314e-10
1.44297e-07
7.18708e-10
1.44419e-07
6.13769e-10
1.44526e-07
5.15399e-10
1.4462e-07
4.226e-10
1.44704e-07
3.34556e-10
1.44778e-07
2.50579e-10
1.44844e-07
1.70069e-10
9.28111e-11
1.44903e-07
1.13664e-07
1.40475e-09
1.13967e-07
1.25994e-09
1.14231e-07
1.12508e-09
1.14461e-07
1.00041e-09
1.14661e-07
8.85097e-10
1.14836e-07
7.78063e-10
1.14989e-07
6.78255e-10
1.15124e-07
5.84678e-10
1.15241e-07
4.9646e-10
1.15343e-07
4.12817e-10
1.15433e-07
3.33108e-10
1.15511e-07
2.56817e-10
1.15578e-07
1.8354e-10
1.15635e-07
1.12898e-10
4.45542e-11
1.15683e-07
8.96566e-08
1.10178e-09
8.99239e-08
9.92695e-10
9.01589e-08
8.90052e-10
9.03652e-08
7.94074e-10
9.05462e-08
7.04071e-10
9.07049e-08
6.19379e-10
9.08438e-08
5.39373e-10
9.0965e-08
4.6346e-10
9.10704e-08
3.91093e-10
9.11614e-08
3.21815e-10
9.12392e-08
2.55255e-10
9.1305e-08
1.91097e-10
9.13594e-08
1.29133e-10
9.14031e-08
6.91925e-11
1.08673e-11
9.14368e-08
7.00409e-08
8.44662e-10
7.02692e-08
7.64438e-10
7.0471e-08
6.88189e-10
7.06491e-08
6.16017e-10
7.08058e-08
5.47379e-10
7.09432e-08
4.81937e-10
7.10632e-08
4.19366e-10
7.11673e-08
3.59343e-10
7.12569e-08
3.01563e-10
7.13329e-08
2.45789e-10
7.13963e-08
1.91841e-10
7.14479e-08
1.39558e-10
7.14882e-08
8.88084e-11
7.15179e-08
3.94636e-11
-8.05183e-12
7.15368e-08
5.41537e-08
6.3269e-10
5.43429e-08
5.75239e-10
5.45109e-08
5.20123e-10
5.46597e-08
4.67248e-10
5.47909e-08
4.1624e-10
5.49058e-08
3.66994e-10
5.50058e-08
3.19373e-10
5.50919e-08
2.73229e-10
5.5165e-08
2.28426e-10
5.5226e-08
1.84858e-10
5.52753e-08
1.42472e-10
5.53137e-08
1.01213e-10
5.53415e-08
6.10289e-11
5.53591e-08
2.18709e-11
-1.57743e-11
5.53668e-08
4.13902e-08
4.62347e-10
4.1543e-08
4.22418e-10
4.16794e-08
3.8379e-10
4.18005e-08
3.46159e-10
4.19074e-08
3.09339e-10
4.2001e-08
2.73361e-10
4.20822e-08
2.38197e-10
4.21516e-08
2.03803e-10
4.22099e-08
1.70145e-10
4.22575e-08
1.37203e-10
4.2295e-08
1.04982e-10
4.23227e-08
7.34991e-11
4.2341e-08
4.27729e-11
4.23501e-08
1.27816e-11
-1.60847e-11
4.23504e-08
3.1218e-08
3.2858e-10
3.13387e-08
3.01771e-10
3.14468e-08
2.75638e-10
3.15433e-08
2.49723e-10
3.16286e-08
2.24014e-10
3.17034e-08
1.98601e-10
3.1768e-08
1.73507e-10
3.18231e-08
1.48746e-10
3.18689e-08
1.24336e-10
3.19058e-08
1.00301e-10
3.19341e-08
7.6678e-11
3.19541e-08
5.35152e-11
3.1966e-08
3.08612e-11
3.19701e-08
8.70492e-12
-1.25887e-11
3.19666e-08
2.31773e-08
2.25845e-10
2.32705e-08
2.08568e-10
2.33545e-08
1.91601e-10
2.34298e-08
1.74431e-10
2.34967e-08
1.57173e-10
2.35553e-08
1.3992e-10
2.36061e-08
1.22712e-10
2.36493e-08
1.0559e-10
2.3685e-08
8.85908e-11
2.37136e-08
7.1758e-11
2.37351e-08
5.5135e-11
2.37499e-08
3.87758e-11
2.3758e-08
2.27267e-11
2.37597e-08
7.04713e-12
-8.02036e-12
2.37551e-08
1.68758e-08
1.48785e-10
1.69462e-08
1.38197e-10
1.70101e-08
1.27716e-10
1.70676e-08
1.16869e-10
1.7119e-08
1.05834e-10
1.71642e-08
9.46761e-11
1.72035e-08
8.34382e-11
1.72369e-08
7.21632e-11
1.72646e-08
6.08923e-11
1.72867e-08
4.96688e-11
1.73033e-08
3.85339e-11
1.73145e-08
2.75336e-11
1.73206e-08
1.67051e-11
1.73215e-08
6.10965e-12
-3.99219e-12
1.73175e-08
1.19824e-08
9.25781e-11
1.20341e-08
8.64902e-11
1.20814e-08
8.04161e-11
1.21243e-08
7.39787e-11
1.21627e-08
6.73564e-11
1.21968e-08
6.05819e-11
1.22266e-08
5.36915e-11
1.2252e-08
4.6721e-11
1.22732e-08
3.97048e-11
1.22902e-08
3.26786e-11
1.23031e-08
2.56755e-11
1.23119e-08
1.87309e-11
1.23167e-08
1.18734e-11
1.23177e-08
5.12462e-12
-1.23923e-12
1.23149e-08
8.21985e-09
5.30574e-11
8.25649e-09
4.98438e-11
8.29029e-09
4.66215e-11
8.32114e-09
4.31247e-11
8.34901e-09
3.94884e-11
8.37387e-09
3.57228e-11
8.39571e-09
3.18536e-11
8.41452e-09
2.79062e-11
8.43032e-09
2.39046e-11
8.44312e-09
1.98741e-11
8.45296e-09
1.58377e-11
8.45987e-09
1.182e-11
8.46391e-09
7.84141e-12
8.46513e-09
3.89662e-12
1.97754e-13
8.4637e-09
5.35837e-09
2.67083e-11
5.38301e-09
2.521e-11
5.40591e-09
2.37193e-11
5.42697e-09
2.20657e-11
5.44613e-09
2.03258e-11
5.46335e-09
1.84995e-11
5.4786e-09
1.66024e-11
5.49186e-09
1.46493e-11
5.50311e-09
1.26545e-11
5.51235e-09
1.0633e-11
5.51959e-09
8.59834e-12
5.52485e-09
6.56534e-12
5.52814e-09
4.54614e-12
5.52951e-09
2.53157e-12
6.38579e-13
5.52907e-09
3.20906e-09
1.06108e-11
3.22423e-09
1.00415e-11
3.23844e-09
9.50475e-12
3.25161e-09
8.89842e-12
3.26369e-09
8.24974e-12
3.27463e-09
7.55749e-12
3.2844e-09
6.82892e-12
3.29298e-09
6.07099e-12
3.30035e-09
5.2903e-12
3.30648e-09
4.49385e-12
3.3114e-09
3.68766e-12
3.31508e-09
2.87885e-12
3.31755e-09
2.07369e-12
3.31882e-09
1.26398e-12
5.0451e-13
3.31896e-09
1.61807e-09
2.36106e-12
1.6259e-09
2.22051e-12
1.63328e-09
2.11929e-12
1.64018e-09
2.00252e-12
1.64655e-09
1.87258e-12
1.65238e-09
1.72968e-12
1.65764e-09
1.57594e-12
1.66229e-09
1.41343e-12
1.66634e-09
1.24398e-12
1.66976e-09
1.06959e-12
1.67256e-09
8.91805e-13
1.67473e-09
7.12551e-13
1.67626e-09
5.34113e-13
1.67718e-09
3.52641e-13
1.85768e-13
1.67749e-09
4.61211e-10
4.63432e-10
4.65551e-10
4.67554e-10
4.69426e-10
4.71156e-10
4.72732e-10
4.74145e-10
4.75389e-10
4.76459e-10
4.77351e-10
4.78063e-10
4.78597e-10
4.7895e-10
4.79136e-10
1.15081e-09
-4.82977e-10
2.96998e-10
1.41561e-09
-4.24005e-10
1.59201e-10
1.68091e-09
-2.97479e-10
3.21808e-11
1.94107e-09
-1.61707e-10
-9.8448e-11
2.19484e-09
-1.93403e-11
-2.34434e-10
2.44348e-09
1.25381e-10
-3.74024e-10
2.68897e-09
2.73771e-10
-5.1926e-10
2.93302e-09
4.27963e-10
-6.72005e-10
3.17699e-09
5.90251e-10
-8.34224e-10
3.42195e-09
7.6298e-10
-1.00795e-09
3.66876e-09
9.48682e-10
-1.19549e-09
3.91817e-09
1.15054e-09
-1.39995e-09
4.17109e-09
1.37238e-09
-1.62529e-09
4.4288e-09
1.61881e-09
-1.87653e-09
4.69312e-09
1.89586e-09
-2.16017e-09
4.96658e-09
2.21028e-09
-2.48374e-09
5.25288e-09
2.56716e-09
-2.85346e-09
5.55723e-09
2.96777e-09
-3.27211e-09
5.88645e-09
3.40322e-09
-3.73245e-09
6.24869e-09
3.84144e-09
-4.20369e-09
6.65105e-09
4.19554e-09
-4.59789e-09
7.09446e-09
4.28633e-09
-4.72975e-09
7.49872e-09
3.27749e-09
-3.68175e-09
7.82756e-09
1.82817e-09
-2.15701e-09
8.07862e-09
3.97351e-10
-6.48417e-10
8.25475e-09
-9.14665e-10
7.38539e-10
8.36202e-09
-2.0585e-09
1.95123e-09
8.40706e-09
-3.00505e-09
2.96002e-09
8.39545e-09
-3.74311e-09
3.75472e-09
8.332e-09
-4.27758e-09
4.34104e-09
8.22105e-09
-4.61887e-09
4.72982e-09
8.06677e-09
-4.77792e-09
4.9322e-09
7.87324e-09
-4.76575e-09
4.95928e-09
7.64443e-09
-4.59385e-09
4.82266e-09
7.38405e-09
-4.27449e-09
4.53487e-09
7.0953e-09
-3.82043e-09
4.10918e-09
6.78071e-09
-3.24389e-09
3.55848e-09
6.44215e-09
-2.55467e-09
2.89323e-09
6.08093e-09
-1.75745e-09
2.11867e-09
5.69725e-09
-8.50071e-10
1.23375e-09
5.28694e-09
1.70745e-10
2.39566e-10
4.83564e-09
1.28598e-09
-8.3468e-10
4.3174e-09
2.38782e-09
-1.86957e-09
3.73373e-09
3.21256e-09
-2.6289e-09
3.02444e-09
3.38373e-09
-2.67443e-09
2.39203e-09
-5.5431e-10
2.54592e-09
-5.77894e-10
2.75553e-09
-5.07082e-10
2.98982e-09
-3.95997e-10
3.23566e-09
-2.6518e-10
3.48648e-09
-1.25446e-10
3.74024e-09
2.00088e-11
3.99652e-09
1.71689e-10
4.25553e-09
3.3124e-10
4.51774e-09
5.0077e-10
4.78369e-09
6.8273e-10
5.05401e-09
8.80223e-10
5.32956e-09
1.09683e-09
5.61171e-09
1.33666e-09
5.90237e-09
1.60519e-09
6.20424e-09
1.90841e-09
6.52124e-09
2.25016e-09
6.85887e-09
2.63014e-09
7.22428e-09
3.03781e-09
7.62596e-09
3.43976e-09
8.07127e-09
3.75023e-09
8.56108e-09
3.79652e-09
9.00761e-09
2.83097e-09
9.37162e-09
1.46416e-09
9.65074e-09
1.18232e-10
9.84789e-09
-1.11181e-09
9.9696e-09
-2.18022e-09
1.00231e-08
-3.05855e-09
1.00146e-08
-3.7346e-09
9.94949e-09
-4.21248e-09
9.83292e-09
-4.5023e-09
9.6699e-09
-4.6149e-09
9.46551e-09
-4.56136e-09
9.22491e-09
-4.35326e-09
8.95328e-09
-4.00286e-09
8.6557e-09
-3.52286e-09
8.33733e-09
-2.92552e-09
8.00383e-09
-2.22117e-09
7.66271e-09
-1.41633e-09
7.32511e-09
-5.12471e-10
7.00724e-09
4.88615e-10
6.7309e-09
1.56231e-09
6.52437e-09
2.59435e-09
6.43288e-09
3.30405e-09
3.09794e-09
6.35938e-09
4.16171e-09
-5.63595e-10
4.2254e-09
-6.41586e-10
4.35482e-09
-6.36499e-10
4.53487e-09
-5.76044e-10
4.74645e-09
-4.76764e-10
4.97789e-09
-3.56884e-10
5.22278e-09
-2.24888e-10
5.47766e-09
-8.31892e-11
5.74077e-09
6.81357e-11
6.01134e-09
2.30195e-10
6.28921e-09
4.04859e-10
6.57457e-09
5.94861e-10
6.86809e-09
8.03315e-10
7.17105e-09
1.03369e-09
7.48542e-09
1.29083e-09
7.81394e-09
1.57989e-09
8.16071e-09
1.90339e-09
8.53146e-09
2.2594e-09
8.93358e-09
2.63569e-09
9.37579e-09
2.99756e-09
9.86554e-09
3.26048e-09
1.04035e-08
3.25861e-09
1.08938e-08
2.34058e-09
1.12945e-08
1.06352e-09
1.16029e-08
-1.90197e-10
1.18221e-08
-1.33101e-09
1.1959e-08
-2.31716e-09
1.20216e-08
-3.12111e-09
1.20167e-08
-3.72967e-09
1.19504e-08
-4.14624e-09
1.18289e-08
-4.38075e-09
1.16581e-08
-4.44411e-09
1.14444e-08
-4.34764e-09
1.11944e-08
-4.10324e-09
1.0915e-08
-3.72353e-09
1.06138e-08
-3.22166e-09
1.0299e-08
-2.61073e-09
9.98083e-09
-1.90295e-09
9.67335e-09
-1.10884e-09
9.39837e-09
-2.3749e-10
9.18871e-09
6.98273e-10
9.08866e-09
1.66235e-09
9.13661e-09
2.54641e-09
9.31823e-09
3.12243e-09
2.99818e-09
9.41799e-09
6.5849e-09
-5.36e-10
6.58662e-09
-6.43306e-10
6.63775e-09
-6.87629e-10
6.74499e-09
-6.83282e-10
6.89901e-09
-6.30782e-10
7.08722e-09
-5.45091e-10
7.30155e-09
-4.39223e-10
7.53607e-09
-3.17709e-10
7.78695e-09
-1.82743e-10
8.05191e-09
-3.4766e-11
8.32974e-09
1.27026e-10
8.61995e-09
3.04654e-10
8.92278e-09
5.00486e-10
9.23936e-09
7.17111e-10
9.57153e-09
9.58659e-10
9.92204e-09
1.22938e-09
1.02951e-08
1.53037e-09
1.06965e-08
1.85797e-09
1.11338e-08
2.19834e-09
1.16158e-08
2.51555e-09
1.21498e-08
2.72647e-09
1.27359e-08
2.67251e-09
1.32704e-08
1.80616e-09
1.37078e-08
6.26055e-10
1.40458e-08
-5.28147e-10
1.42871e-08
-1.57237e-09
1.44394e-08
-2.46937e-09
1.4511e-08
-3.19278e-09
1.45098e-08
-3.72842e-09
1.44427e-08
-4.07912e-09
1.43168e-08
-4.25485e-09
1.41394e-08
-4.26675e-09
1.39183e-08
-4.12659e-09
1.3662e-08
-3.84688e-09
1.33794e-08
-3.44096e-09
1.30807e-08
-2.92295e-09
1.27775e-08
-2.3076e-09
1.24845e-08
-1.60993e-09
1.22213e-08
-8.45656e-10
1.20167e-08
-3.28367e-11
1.19098e-08
8.05132e-10
1.1948e-08
1.62421e-09
1.21584e-08
2.33598e-09
1.24956e-08
2.78524e-09
2.76736e-09
1.27264e-08
9.83113e-09
-4.90967e-10
9.79187e-09
-6.04044e-10
9.78302e-09
-6.78779e-10
9.81739e-09
-7.17658e-10
9.89904e-09
-7.12433e-10
1.00244e-08
-6.70411e-10
1.01862e-08
-6.01034e-10
1.03784e-08
-5.0997e-10
1.05965e-08
-4.00758e-10
1.08369e-08
-2.75191e-10
1.10976e-08
-1.33674e-10
1.13773e-08
2.49067e-11
1.16759e-08
2.01925e-10
1.19942e-08
3.98829e-10
1.23338e-08
6.18985e-10
1.26975e-08
8.65684e-10
1.30895e-08
1.13842e-09
1.35156e-08
1.43182e-09
1.39835e-08
1.73046e-09
1.45017e-08
1.99737e-09
1.50771e-08
2.15105e-09
1.57089e-08
2.04069e-09
1.62854e-08
1.22969e-09
1.67582e-08
1.53304e-10
1.71244e-08
-8.94355e-10
1.73868e-08
-1.8348e-09
1.75534e-08
-2.63593e-09
1.76334e-08
-3.27286e-09
1.76355e-08
-3.73044e-09
1.75675e-08
-4.01114e-09
1.74378e-08
-4.1252e-09
1.72553e-08
-4.08421e-09
1.70293e-08
-3.9006e-09
1.67702e-08
-3.58777e-09
1.64894e-08
-3.16012e-09
1.61996e-08
-2.63319e-09
1.59158e-08
-2.02377e-09
1.5656e-08
-1.35015e-09
1.54433e-08
-6.32952e-10
1.53071e-08
1.03368e-10
1.52843e-08
8.27866e-10
1.5411e-08
1.49754e-09
1.56983e-08
2.04875e-09
1.60912e-08
2.39226e-09
2.43752e-09
1.64211e-08
1.40999e-08
-4.40068e-10
1.40395e-08
-5.43716e-10
1.39913e-08
-6.30542e-10
1.39674e-08
-6.93758e-10
1.39802e-08
-7.25218e-10
1.40341e-08
-7.24334e-10
1.41279e-08
-6.94869e-10
1.42587e-08
-6.40694e-10
1.44228e-08
-5.64939e-10
1.46175e-08
-4.69821e-10
1.48403e-08
-3.56544e-10
1.50899e-08
-2.24694e-10
1.53658e-08
-7.39701e-11
1.56689e-08
9.57538e-11
1.60007e-08
2.87154e-10
1.63639e-08
5.02574e-10
1.67626e-08
7.39721e-10
1.72029e-08
9.91501e-10
1.76922e-08
1.24108e-09
1.82389e-08
1.45076e-09
1.8849e-08
1.54092e-09
1.95203e-08
1.36934e-09
2.01337e-08
6.16378e-10
2.06375e-08
-3.5051e-10
2.10284e-08
-1.28531e-09
2.13089e-08
-2.1153e-09
2.14874e-08
-2.81436e-09
2.15739e-08
-3.35941e-09
2.15779e-08
-3.73441e-09
2.15085e-08
-3.94171e-09
2.13754e-08
-3.99212e-09
2.1189e-08
-3.89787e-09
2.09607e-08
-3.67227e-09
2.07028e-08
-3.32982e-09
2.04289e-08
-2.88621e-09
2.01542e-08
-2.35856e-09
1.98962e-08
-1.76572e-09
1.96747e-08
-1.12869e-09
1.95131e-08
-4.713e-10
1.94374e-08
1.79011e-10
1.94749e-08
7.90343e-10
1.96461e-08
1.32634e-09
1.99488e-08
1.74607e-09
2.03348e-08
2.00628e-09
2.07527e-09
2.0697e-08
1.96286e-08
-3.89059e-10
1.95624e-08
-4.77565e-10
1.94936e-08
-5.61758e-10
1.94334e-08
-6.33493e-10
1.93939e-08
-6.85764e-10
1.93841e-08
-7.14568e-10
1.94086e-08
-7.193e-10
1.94689e-08
-7.0099e-10
1.9565e-08
-6.61041e-10
1.96961e-08
-6.00931e-10
1.98614e-08
-5.21857e-10
2.00601e-08
-4.23459e-10
2.02925e-08
-3.06338e-10
2.056e-08
-1.71714e-10
2.08644e-08
-1.7248e-11
2.12084e-08
1.58598e-10
2.15966e-08
3.51509e-10
2.20353e-08
5.5281e-10
2.25318e-08
7.44543e-10
2.30939e-08
8.88683e-10
2.37268e-08
9.07964e-10
2.44265e-08
6.69679e-10
2.50671e-08
-2.42069e-11
2.55941e-08
-8.77548e-10
2.60033e-08
-1.69445e-09
2.62963e-08
-2.40831e-09
2.6482e-08
-3.00005e-09
2.65714e-08
-3.44884e-09
2.65747e-08
-3.73771e-09
2.65023e-08
-3.86929e-09
2.63655e-08
-3.85533e-09
2.61765e-08
-3.70886e-09
2.59483e-08
-3.44414e-09
2.56954e-08
-3.07688e-09
2.54333e-08
-2.6241e-09
2.5179e-08
-2.1043e-09
2.49512e-08
-1.53785e-09
2.47696e-08
-9.47134e-10
2.46551e-08
-3.56797e-10
2.46275e-08
2.06584e-10
2.47027e-08
7.15178e-10
2.4887e-08
1.14199e-09
2.51697e-08
1.46343e-09
2.55134e-08
1.66258e-09
1.73431e-09
2.58543e-08
2.66985e-08
-3.38766e-10
2.66331e-08
-4.12164e-10
2.65581e-08
-4.86816e-10
2.64812e-08
-5.5662e-10
2.64115e-08
-6.16004e-10
2.63576e-08
-6.60638e-10
2.63264e-08
-6.88117e-10
2.6323e-08
-6.97581e-10
2.63507e-08
-6.88799e-10
2.6412e-08
-6.62163e-10
2.65085e-08
-6.18373e-10
2.66414e-08
-5.5639e-10
2.68126e-08
-4.77535e-10
2.70252e-08
-3.84329e-10
2.72819e-08
-2.7394e-10
2.7586e-08
-1.45544e-10
2.79432e-08
-5.63111e-12
2.83602e-08
1.35793e-10
2.88446e-08
2.60104e-10
2.94038e-08
3.29557e-10
3.00419e-08
2.6981e-10
3.07526e-08
-4.10273e-11
3.14056e-08
-6.77131e-10
3.19435e-08
-1.41548e-09
3.23604e-08
-2.1114e-09
3.26572e-08
-2.70506e-09
3.2843e-08
-3.18585e-09
3.29296e-08
-3.53549e-09
3.2928e-08
-3.73612e-09
3.28499e-08
-3.79118e-09
3.27084e-08
-3.7138e-09
3.25173e-08
-3.51779e-09
3.22915e-08
-3.21835e-09
3.2047e-08
-2.83232e-09
3.18006e-08
-2.37777e-09
3.15704e-08
-1.87403e-09
3.13745e-08
-1.34192e-09
3.12309e-08
-8.03558e-10
3.1156e-08
-2.81918e-10
3.11625e-08
2.00132e-10
3.12564e-08
6.21227e-10
3.14347e-08
9.63684e-10
3.16824e-08
1.2157e-09
3.19716e-08
1.3734e-09
1.44181e-09
3.22641e-08
3.5637e-08
-2.87086e-10
3.55727e-08
-3.47831e-10
3.54977e-08
-4.11832e-10
3.54162e-08
-4.75119e-10
3.53338e-08
-5.33621e-10
3.5257e-08
-5.83758e-10
3.51918e-08
-6.22954e-10
3.5144e-08
-6.49771e-10
3.51184e-08
-6.63213e-10
3.51194e-08
-6.63173e-10
3.51512e-08
-6.50127e-10
3.52168e-08
-6.22006e-10
3.53205e-08
-5.81221e-10
3.54678e-08
-5.31712e-10
3.56629e-08
-4.69014e-10
3.59104e-08
-3.93019e-10
3.62176e-08
-3.12809e-10
3.65926e-08
-2.39265e-10
3.70437e-08
-1.9098e-10
3.7578e-08
-2.04716e-10
3.8199e-08
-3.51202e-10
3.88979e-08
-7.39925e-10
3.95428e-08
-1.32207e-09
4.00746e-08
-1.94726e-09
4.04849e-08
-2.52171e-09
4.07732e-08
-2.99339e-09
4.09493e-08
-3.36194e-09
4.10255e-08
-3.61167e-09
4.10132e-08
-3.7238e-09
4.09255e-08
-3.70347e-09
4.07773e-08
-3.56565e-09
4.05842e-08
-3.3247e-09
4.03624e-08
-2.99648e-09
4.01287e-08
-2.59868e-09
3.99008e-08
-2.14987e-09
3.96961e-08
-1.66933e-09
3.95312e-08
-1.17702e-09
3.94208e-08
-6.93114e-10
3.9376e-08
-2.37152e-10
3.9403e-08
1.73092e-10
3.95014e-08
5.22897e-10
3.96629e-08
8.02148e-10
3.98722e-08
1.00636e-09
4.01082e-08
1.1374e-09
1.20296e-09
4.03471e-08
4.68125e-08
-2.31723e-10
4.67472e-08
-2.82587e-10
4.66727e-08
-3.37267e-10
4.65909e-08
-3.93328e-10
4.65052e-08
-4.47964e-10
4.64199e-08
-4.98464e-10
4.63396e-08
-5.42614e-10
4.62689e-08
-5.7905e-10
4.62122e-08
-6.06584e-10
4.61743e-08
-6.25241e-10
4.616e-08
-6.3585e-10
4.61732e-08
-6.35174e-10
4.62198e-08
-6.27865e-10
4.63077e-08
-6.19548e-10
4.64415e-08
-6.02817e-10
4.66276e-08
-5.79186e-10
4.68759e-08
-5.6106e-10
4.71959e-08
-5.59318e-10
4.7597e-08
-5.92002e-10
4.80865e-08
-6.94233e-10
4.86676e-08
-9.32299e-10
4.93294e-08
-1.40173e-09
4.99427e-08
-1.93538e-09
5.04479e-08
-2.45244e-09
5.08338e-08
-2.90769e-09
5.10989e-08
-3.25843e-09
5.12536e-08
-3.5166e-09
5.13102e-08
-3.66826e-09
5.12801e-08
-3.69376e-09
5.11781e-08
-3.60149e-09
5.1021e-08
-3.40854e-09
5.08255e-08
-3.12921e-09
5.06086e-08
-2.77958e-09
5.03876e-08
-2.37762e-09
5.01794e-08
-1.94164e-09
4.99998e-08
-1.4898e-09
4.98628e-08
-1.03999e-09
4.97789e-08
-6.09219e-10
4.97545e-08
-2.12737e-10
4.97908e-08
1.36784e-10
4.98834e-08
4.30238e-10
5.00227e-08
6.62843e-10
5.01949e-08
8.34219e-10
5.03839e-08
9.48383e-10
1.01281e-09
5.0574e-08
6.06243e-08
-1.72158e-10
6.05572e-08
-2.1555e-10
6.04828e-08
-2.62822e-10
6.04021e-08
-3.12588e-10
6.03172e-08
-3.63053e-10
6.0231e-08
-4.123e-10
6.0147e-08
-4.58634e-10
6.00689e-08
-5.00923e-10
6.00004e-08
-5.38087e-10
5.99454e-08
-5.70268e-10
5.99086e-08
-5.99051e-10
5.98938e-08
-6.20315e-10
5.99072e-08
-6.41273e-10
5.99563e-08
-6.68666e-10
6.00454e-08
-6.9194e-10
6.01829e-08
-7.1668e-10
6.03802e-08
-7.58321e-10
6.06475e-08
-8.26651e-10
6.09947e-08
-9.39253e-10
6.14299e-08
-1.12936e-09
6.19555e-08
-1.45791e-09
6.25593e-08
-2.00549e-09
6.31192e-08
-2.49534e-09
6.35777e-08
-2.91094e-09
6.39212e-08
-3.25122e-09
6.41478e-08
-3.48503e-09
6.42696e-08
-3.63841e-09
6.42978e-08
-3.6964e-09
6.42432e-08
-3.63912e-09
6.41227e-08
-3.48101e-09
6.39549e-08
-3.24077e-09
6.37571e-08
-2.93141e-09
6.35462e-08
-2.56872e-09
6.33389e-08
-2.17031e-09
6.31506e-08
-1.75327e-09
6.29945e-08
-1.33368e-09
6.2881e-08
-9.26503e-10
6.28168e-08
-5.4505e-10
6.28043e-08
-2.00226e-10
6.28416e-08
9.95061e-11
6.29225e-08
3.49293e-10
6.30377e-08
5.47698e-10
6.31755e-08
6.96361e-10
6.33241e-08
7.99763e-10
8.64323e-10
6.34726e-08
7.75042e-08
-1.10316e-10
7.7437e-08
-1.48365e-10
7.73644e-08
-1.90221e-10
7.7287e-08
-2.35212e-10
7.72063e-08
-2.82339e-10
7.71244e-08
-3.30384e-10
7.70441e-08
-3.78342e-10
7.69683e-08
-4.25164e-10
7.69009e-08
-4.70652e-10
7.68449e-08
-5.14289e-10
7.68036e-08
-5.57774e-10
7.67844e-08
-6.01104e-10
7.67906e-08
-6.47406e-10
7.68231e-08
-7.01164e-10
7.6891e-08
-7.59887e-10
7.7006e-08
-8.31655e-10
7.71754e-08
-9.27751e-10
7.74086e-08
-1.05988e-09
7.7715e-08
-1.24561e-09
7.81021e-08
-1.5165e-09
7.8571e-08
-1.92678e-09
7.91079e-08
-2.54239e-09
7.96019e-08
-2.98935e-09
7.99998e-08
-3.30883e-09
8.02869e-08
-3.53831e-09
8.04639e-08
-3.66201e-09
8.05452e-08
-3.71975e-09
8.05387e-08
-3.68986e-09
8.04547e-08
-3.55513e-09
8.03142e-08
-3.34052e-09
8.01366e-08
-3.06317e-09
7.99383e-08
-2.73314e-09
7.97356e-08
-2.36603e-09
7.95436e-08
-1.97827e-09
7.93751e-08
-1.58482e-09
7.92405e-08
-1.19901e-09
7.91465e-08
-8.32513e-10
7.90964e-08
-4.95006e-10
7.90899e-08
-1.93689e-10
7.91232e-08
6.61358e-11
7.919e-08
2.82519e-10
7.92818e-08
4.55936e-10
7.93893e-08
5.88811e-10
7.95037e-08
6.85359e-10
7.5084e-10
7.96172e-08
9.7942e-08
-4.95806e-11
9.7878e-08
-8.43264e-11
9.78106e-08
-1.22817e-10
9.77402e-08
-1.64872e-10
9.7668e-08
-2.10088e-10
9.75954e-08
-2.57863e-10
9.7525e-08
-3.07858e-10
9.74591e-08
-3.59258e-10
9.74013e-08
-4.12878e-10
9.73549e-08
-4.67956e-10
9.73234e-08
-5.26175e-10
9.73128e-08
-5.90538e-10
9.73247e-08
-6.59332e-10
9.73594e-08
-7.35834e-10
9.74298e-08
-8.30306e-10
9.75458e-08
-9.47624e-10
9.77109e-08
-1.0929e-09
9.7933e-08
-1.28192e-09
9.8219e-08
-1.53168e-09
9.85753e-08
-1.8728e-09
9.89987e-08
-2.35015e-09
9.94735e-08
-3.01713e-09
9.99016e-08
-3.41746e-09
1.00235e-07
-3.64194e-09
1.00459e-07
-3.76299e-09
1.00584e-07
-3.78707e-09
1.00625e-07
-3.75997e-09
1.00581e-07
-3.64609e-09
1.00468e-07
-3.4418e-09
1.00312e-07
-3.18477e-09
1.00129e-07
-2.88075e-09
9.99355e-08
-2.53925e-09
9.97451e-08
-2.17566e-09
9.95711e-08
-1.80424e-09
9.94234e-08
-1.43714e-09
9.9309e-08
-1.08466e-09
9.92319e-08
-7.55346e-10
9.91926e-08
-4.5574e-10
9.91891e-08
-1.90174e-10
9.9217e-08
3.82394e-11
9.92702e-08
2.29342e-10
9.93415e-08
3.84626e-10
9.94237e-08
5.06629e-10
9.951e-08
5.99026e-10
6.66038e-10
9.95948e-08
1.22529e-07