/*--------------------------------*- C++ -*----------------------------------*\
| =========                 |                                                 |
| \\      /  F ield         | OpenFOAM: The Open Source CFD Toolbox           |
|  \\    /   O peration     | Version:  2312                                  |
|   \\  /    A nd           | Website:  www.openfoam.com                      |
|    \\/     M anipulation  |                                                 |
\*---------------------------------------------------------------------------*/
FoamFile
{
    version     2.0;
    format      ascii;
    arch        "LSB;label=32;scalar=64";
    class       volScalarField;
    location    "170.25";
    object      p;
}
// * * * * * * * * * * * * * * * * * * * * * * * * * * * * * * * * * * * * * //

dimensions      [0 2 -2 0 0 0 0];

internalField   nonuniform List<scalar> 
4800
(
-2.25051e-11
-1.68388e-06
-3.12756e-06
-4.37855e-06
-5.46974e-06
-6.4265e-06
-7.26614e-06
-8.01259e-06
-8.67909e-06
-9.27405e-06
-9.80937e-06
-1.02899e-05
-1.07093e-05
-1.13039e-05
-1.3071e-05
1.67359e-08
-1.66268e-06
-3.1029e-06
-4.35141e-06
-5.44148e-06
-6.39885e-06
-7.24056e-06
-7.99153e-06
-8.66487e-06
-9.27071e-06
-9.82639e-06
-1.03511e-05
-1.08613e-05
-1.14664e-05
-1.24267e-05
3.50535e-08
-1.63955e-06
-3.07618e-06
-4.32233e-06
-5.4112e-06
-6.36878e-06
-7.21189e-06
-7.96477e-06
-8.6434e-06
-9.25731e-06
-9.82478e-06
-1.0366e-05
-1.08919e-05
-1.14107e-05
-1.18999e-05
5.46359e-08
-1.6144e-06
-3.04678e-06
-4.28992e-06
-5.37692e-06
-6.33371e-06
-7.17813e-06
-7.93005e-06
-8.61032e-06
-9.22608e-06
-9.79139e-06
-1.03177e-05
-1.07986e-05
-1.12016e-05
-1.14531e-05
7.7204e-08
-1.58511e-06
-3.01221e-06
-4.25129e-06
-5.33535e-06
-6.28991e-06
-7.13382e-06
-7.88339e-06
-8.55907e-06
-9.16831e-06
-9.71711e-06
-1.02067e-05
-1.06187e-05
-1.0913e-05
-1.10318e-05
1.04365e-07
-1.54989e-06
-2.9704e-06
-4.20411e-06
-5.28371e-06
-6.23411e-06
-7.07394e-06
-7.81852e-06
-8.48311e-06
-9.07519e-06
-9.59394e-06
-1.00328e-05
-1.03712e-05
-1.05785e-05
-1.06256e-05
1.38276e-07
-1.50646e-06
-2.91881e-06
-4.14535e-06
-5.21834e-06
-6.16178e-06
-6.9934e-06
-7.72709e-06
-8.37402e-06
-8.93851e-06
-9.41653e-06
-9.79888e-06
-1.00699e-05
-1.02142e-05
-1.02255e-05
1.82247e-07
-1.45136e-06
-2.8536e-06
-4.07062e-06
-5.13402e-06
-6.06671e-06
-6.8851e-06
-7.60108e-06
-8.22255e-06
-8.7512e-06
-9.18271e-06
-9.51001e-06
-9.72567e-06
-9.82794e-06
-9.82312e-06
2.40807e-07
-1.37979e-06
-2.76947e-06
-3.97389e-06
-5.02387e-06
-5.941e-06
-6.74022e-06
-7.4315e-06
-8.02063e-06
-8.5084e-06
-8.89278e-06
-9.17167e-06
-9.34569e-06
-9.42195e-06
-9.41238e-06
3.19222e-07
-1.28592e-06
-2.65985e-06
-3.84775e-06
-4.87955e-06
-5.77554e-06
-6.54931e-06
-7.20955e-06
-7.76142e-06
-8.20732e-06
-8.54836e-06
-8.78805e-06
-8.93313e-06
-8.99531e-06
-8.98799e-06
4.22577e-07
-1.16365e-06
-2.51765e-06
-3.68407e-06
-4.69214e-06
-5.56106e-06
-6.30356e-06
-6.92818e-06
-7.44098e-06
-7.84697e-06
-8.15133e-06
-8.3618e-06
-8.48874e-06
-8.54557e-06
-8.54518e-06
5.54513e-07
-1.00766e-06
-2.3363e-06
-3.47526e-06
-4.4535e-06
-5.28964e-06
-5.99636e-06
-6.58312e-06
-7.0579e-06
-7.42861e-06
-7.70407e-06
-7.89472e-06
-8.0123e-06
-8.07019e-06
-8.08003e-06
7.15901e-07
-8.15185e-07
-2.11108e-06
-3.21563e-06
-4.15773e-06
-4.9562e-06
-5.6245e-06
-6.17369e-06
-6.61395e-06
-6.95574e-06
-7.21007e-06
-7.38882e-06
-7.50391e-06
-7.56762e-06
-7.59011e-06
9.03919e-07
-5.85743e-07
-1.83941e-06
-2.90213e-06
-3.80227e-06
-4.55936e-06
-5.1885e-06
-5.70253e-06
-6.11335e-06
-6.43294e-06
-6.67336e-06
-6.84677e-06
-6.96453e-06
-7.03756e-06
-7.07458e-06
1.11413e-06
-3.21854e-07
-1.52343e-06
-2.53581e-06
-3.38849e-06
-4.10177e-06
-4.69228e-06
-5.17459e-06
-5.56158e-06
-5.86547e-06
-6.0982e-06
-6.27147e-06
-6.39578e-06
-6.48072e-06
-6.53371e-06
1.33997e-06
-2.98987e-08
-1.1704e-06
-2.12377e-06
-2.92361e-06
-3.59142e-06
-4.14419e-06
-4.5977e-06
-4.96552e-06
-5.25917e-06
-5.48933e-06
-5.66653e-06
-5.80027e-06
-5.89899e-06
-5.96911e-06
1.56615e-06
2.82578e-07
-7.88671e-07
-1.6783e-06
-2.42167e-06
-3.04292e-06
-3.55887e-06
-3.9851e-06
-4.33616e-06
-4.62288e-06
-4.8539e-06
-5.0378e-06
-5.18283e-06
-5.2965e-06
-5.38449e-06
1.77086e-06
5.95913e-07
-3.88802e-07
-1.21214e-06
-1.89961e-06
-2.47669e-06
-2.95698e-06
-3.35617e-06
-3.6904e-06
-3.9707e-06
-4.2036e-06
-4.3952e-06
-4.55215e-06
-4.68096e-06
-4.78682e-06
1.93924e-06
8.81028e-07
-4.86029e-10
-7.44456e-07
-1.37417e-06
-1.90827e-06
-2.35446e-06
-2.72781e-06
-3.04547e-06
-3.31908e-06
-3.55314e-06
-3.75172e-06
-3.91988e-06
-4.06305e-06
-4.18581e-06
2.05537e-06
1.11887e-06
3.37627e-07
-3.23146e-07
-8.85569e-07
-1.3649e-06
-1.77363e-06
-2.12292e-06
-2.42587e-06
-2.69214e-06
-2.92514e-06
-3.12816e-06
-3.30534e-06
-3.46106e-06
-3.59904e-06
2.10149e-06
1.28899e-06
6.04732e-07
2.32391e-08
-4.72957e-07
-9.02174e-07
-1.27383e-06
-1.5999e-06
-1.88829e-06
-2.14429e-06
-2.37232e-06
-2.57583e-06
-2.75703e-06
-2.91998e-06
-3.06809e-06
2.09504e-06
1.38906e-06
7.86413e-07
2.69112e-07
-1.79271e-07
-5.70858e-07
-9.16471e-07
-1.21993e-06
-1.48614e-06
-1.72705e-06
-1.94915e-06
-2.15218e-06
-2.336e-06
-2.50252e-06
-2.65598e-06
2.08225e-06
1.45747e-06
9.18095e-07
4.4963e-07
3.97145e-08
-3.21724e-07
-6.4258e-07
-9.2907e-07
-1.18708e-06
-1.42144e-06
-1.63727e-06
-1.83564e-06
-2.01834e-06
-2.18754e-06
-2.3454e-06
2.07569e-06
1.51263e-06
1.02132e-06
5.89972e-07
2.0881e-07
-1.30563e-07
-4.35146e-07
-7.10672e-07
-9.61566e-07
-1.19134e-06
-1.40315e-06
-1.59963e-06
-1.78271e-06
-1.95399e-06
-2.11521e-06
2.08136e-06
1.56501e-06
1.10972e-06
7.05765e-07
3.45186e-07
2.09848e-08
-2.72701e-07
-5.40557e-07
-7.86299e-07
-1.01303e-06
-1.2235e-06
-1.41998e-06
-1.60431e-06
-1.77803e-06
-1.94268e-06
2.09979e-06
1.6186e-06
1.18996e-06
8.05834e-07
4.59727e-07
1.45841e-07
-1.40706e-07
-4.03906e-07
-6.47052e-07
-8.729e-07
-1.08382e-06
-1.28181e-06
-1.46859e-06
-1.6456e-06
-1.81425e-06
2.12726e-06
1.67252e-06
1.26347e-06
8.93597e-07
5.57507e-07
2.50344e-07
-3.20485e-08
-2.93134e-07
-5.35806e-07
-7.62489e-07
-9.75277e-07
-1.17595e-06
-1.36609e-06
-1.54706e-06
-1.72018e-06
2.15892e-06
1.72426e-06
1.32977e-06
9.70145e-07
6.40876e-07
3.3782e-07
5.74093e-08
-2.0335e-07
-4.46986e-07
-6.75639e-07
-8.91184e-07
-1.09524e-06
-1.28928e-06
-1.47457e-06
-1.65237e-06
2.19076e-06
1.77168e-06
1.38819e-06
1.03604e-06
7.11372e-07
4.10655e-07
1.30825e-07
-1.30698e-07
-3.76131e-07
-6.0738e-07
-8.26142e-07
-1.0339e-06
-1.23203e-06
-1.42173e-06
-1.6042e-06
2.22017e-06
1.81348e-06
1.43856e-06
1.09198e-06
7.70461e-07
4.70981e-07
1.90922e-07
-7.19506e-08
-3.19585e-07
-5.53689e-07
-7.75804e-07
-9.87299e-07
-1.18946e-06
-1.38341e-06
-1.57033e-06
2.24583e-06
1.84928e-06
1.48122e-06
1.13895e-06
8.19664e-07
5.20782e-07
2.40076e-07
-2.43909e-08
-2.74337e-07
-5.11295e-07
-7.36668e-07
-9.51722e-07
-1.15766e-06
-1.35557e-06
-1.54658e-06
2.26735e-06
1.87928e-06
1.51691e-06
1.1781e-06
8.60479e-07
5.61854e-07
2.80335e-07
1.42443e-08
-2.37936e-07
-4.77582e-07
-7.05975e-07
-9.2429e-07
-1.13367e-06
-1.33514e-06
-1.5298e-06
2.28488e-06
1.90407e-06
1.54652e-06
1.2106e-06
8.94289e-07
5.95761e-07
3.13413e-07
4.5793e-08
-2.0844e-07
-4.50522e-07
-6.81628e-07
-9.02853e-07
-1.11528e-06
-1.31989e-06
-1.51775e-06
2.29888e-06
1.92435e-06
1.57098e-06
1.23753e-06
9.22308e-07
6.23818e-07
3.40703e-07
7.17072e-08
-1.84353e-07
-4.28591e-07
-6.62085e-07
-8.8586e-07
-1.10094e-06
-1.30829e-06
-1.50894e-06
2.30985e-06
1.94085e-06
1.59113e-06
1.25983e-06
9.45564e-07
6.47105e-07
3.63316e-07
9.3115e-08
-1.64541e-07
-4.10657e-07
-6.46227e-07
-8.72212e-07
-1.08959e-06
-1.2993e-06
-1.50233e-06
2.31835e-06
1.9542e-06
1.60771e-06
1.27831e-06
9.64891e-07
6.66474e-07
3.82111e-07
1.10873e-07
-1.4816e-07
-3.95896e-07
-6.33255e-07
-8.61142e-07
-1.0805e-06
-1.29222e-06
-1.4973e-06
2.32483e-06
1.96497e-06
1.62131e-06
1.29359e-06
9.80934e-07
6.82576e-07
3.97733e-07
1.25612e-07
-1.34597e-07
-3.8372e-07
-6.22609e-07
-8.52121e-07
-1.07316e-06
-1.2866e-06
-1.49343e-06
2.32973e-06
1.97367e-06
1.63252e-06
1.3063e-06
9.94328e-07
6.96042e-07
4.10798e-07
1.37926e-07
-1.23291e-07
-3.73602e-07
-6.13796e-07
-8.44694e-07
-1.06717e-06
-1.28208e-06
-1.4904e-06
2.33355e-06
1.98104e-06
1.64224e-06
1.31742e-06
1.00611e-06
7.07917e-07
4.22326e-07
1.48781e-07
-1.13345e-07
-3.6473e-07
-6.06097e-07
-8.38241e-07
-1.06201e-06
-1.27824e-06
-1.4879e-06
2.3366e-06
1.98759e-06
1.65108e-06
1.32764e-06
1.017e-06
7.18908e-07
4.33004e-07
1.58832e-07
-1.04148e-07
-3.56536e-07
-5.99072e-07
-8.32444e-07
-1.05746e-06
-1.27495e-06
-1.48585e-06
-1.46063e-05
-1.2285e-05
-1.08503e-05
-9.88918e-06
-9.11144e-06
-8.49905e-06
-8.00285e-06
-7.58845e-06
-7.23335e-06
-6.92112e-06
-6.63963e-06
-6.38044e-06
-6.13848e-06
-5.91266e-06
-5.70748e-06
-5.53527e-06
-5.41892e-06
-5.40017e-06
-5.53332e-06
-5.90406e-06
-6.61343e-06
-7.73422e-06
-9.18004e-06
-1.06172e-05
-1.18078e-05
-1.26443e-05
-1.3073e-05
-1.30719e-05
-1.26354e-05
-1.17653e-05
-1.04734e-05
-8.78159e-06
-6.72478e-06
-4.35091e-06
-1.71964e-06
1.10047e-06
4.03484e-06
7.00489e-06
9.92717e-06
1.27093e-05
1.52348e-05
1.73567e-05
1.87576e-05
1.91969e-05
1.76903e-05
-1.28906e-05
-1.17088e-05
-1.06303e-05
-9.77793e-06
-9.04817e-06
-8.45171e-06
-7.96062e-06
-7.54752e-06
-7.19267e-06
-6.88039e-06
-6.59896e-06
-6.34009e-06
-6.09884e-06
-5.87429e-06
-5.67114e-06
-5.50186e-06
-5.38944e-06
-5.37555e-06
-5.51364e-06
-5.88847e-06
-6.59963e-06
-7.71682e-06
-9.15415e-06
-1.05821e-05
-1.17649e-05
-1.25959e-05
-1.30212e-05
-1.30186e-05
-1.25814e-05
-1.1713e-05
-1.04259e-05
-8.74381e-06
-6.70349e-06
-4.35521e-06
-1.76148e-06
1.00535e-06
3.86515e-06
6.73071e-06
9.50446e-06
1.20691e-05
1.42616e-05
1.58353e-05
1.63146e-05
1.4997e-05
1.09005e-05
-1.19862e-05
-1.12543e-05
-1.03997e-05
-9.64413e-06
-8.96792e-06
-8.39395e-06
-7.91158e-06
-7.50157e-06
-7.14755e-06
-6.83544e-06
-6.55413e-06
-6.29563e-06
-6.05523e-06
-5.8322e-06
-5.63149e-06
-5.46575e-06
-5.35808e-06
-5.35e-06
-5.49398e-06
-5.87367e-06
-6.58685e-06
-7.69949e-06
-9.12624e-06
-1.05423e-05
-1.1715e-05
-1.25386e-05
-1.29591e-05
-1.29539e-05
-1.25168e-05
-1.16517e-05
-1.03727e-05
-8.70561e-06
-6.68989e-06
-4.37889e-06
-1.83894e-06
8.52517e-07
3.60819e-06
6.33026e-06
8.9052e-06
1.11919e-05
1.29943e-05
1.40256e-05
1.38368e-05
1.18955e-05
8.00132e-06
-1.13923e-05
-1.08718e-05
-1.01874e-05
-9.51012e-06
-8.88618e-06
-8.33645e-06
-7.86365e-06
-7.45667e-06
-7.10296e-06
-6.79034e-06
-6.50852e-06
-6.24992e-06
-6.01008e-06
-5.78848e-06
-5.59037e-06
-5.42849e-06
-5.32607e-06
-5.32446e-06
-5.47498e-06
-5.86002e-06
-6.57545e-06
-7.6829e-06
-9.09739e-06
-1.04994e-05
-1.16594e-05
-1.24728e-05
-1.28859e-05
-1.28758e-05
-1.24369e-05
-1.15743e-05
-1.03043e-05
-8.65565e-06
-6.67121e-06
-4.40844e-06
-1.93853e-06
6.54964e-07
3.27669e-06
5.81808e-06
8.15197e-06
1.01223e-05
1.15262e-05
1.2101e-05
1.15218e-05
9.51272e-06
6.23153e-06
-1.09173e-05
-1.0523e-05
-9.97209e-06
-9.3801e-06
-8.80668e-06
-8.28178e-06
-7.8191e-06
-7.41462e-06
-7.06032e-06
-6.74619e-06
-6.46298e-06
-6.20366e-06
-5.96408e-06
-5.74397e-06
-5.54881e-06
-5.39144e-06
-5.29512e-06
-5.30094e-06
-5.45885e-06
-5.84974e-06
-6.56732e-06
-7.66818e-06
-9.0678e-06
-1.04529e-05
-1.15972e-05
-1.23979e-05
-1.28016e-05
-1.27855e-05
-1.23449e-05
-1.14866e-05
-1.02295e-05
-8.60606e-06
-6.66321e-06
-4.46311e-06
-2.08231e-06
3.89295e-07
2.8489e-06
5.17962e-06
7.24693e-06
8.89375e-06
9.93597e-06
1.01715e-05
9.41222e-06
7.57707e-06
4.86998e-06
-1.05029e-05
-1.01951e-05
-9.74726e-06
-9.24011e-06
-8.72239e-06
-8.22687e-06
-7.77751e-06
-7.37619e-06
-7.02107e-06
-6.70471e-06
-6.41927e-06
-6.15858e-06
-5.91896e-06
-5.70039e-06
-5.50864e-06
-5.35657e-06
-5.2674e-06
-5.28181e-06
-5.44806e-06
-5.84522e-06
-6.56456e-06
-7.65679e-06
-9.03799e-06
-1.04023e-05
-1.15275e-05
-1.23125e-05
-1.27048e-05
-1.26821e-05
-1.22406e-05
-1.13897e-05
-1.01515e-05
-8.56246e-06
-6.67413e-06
-4.55367e-06
-2.28295e-06
4.25691e-08
2.31475e-06
4.41297e-06
6.204e-06
7.5437e-06
8.28379e-06
8.2916e-06
7.48684e-06
5.9001e-06
3.73863e-06
-1.01128e-05
-9.86995e-06
-9.51107e-06
-9.08011e-06
-8.61798e-06
-8.16392e-06
-7.73281e-06
-7.33892e-06
-6.98501e-06
-6.66696e-06
-6.3792e-06
-6.11687e-06
-5.87709e-06
-5.66028e-06
-5.47252e-06
-5.32669e-06
-5.24579e-06
-5.27004e-06
-5.44558e-06
-5.84924e-06
-6.56963e-06
-7.65051e-06
-9.00879e-06
-1.03478e-05
-1.14494e-05
-1.2215e-05
-1.25935e-05
-1.25634e-05
-1.21226e-05
-1.12832e-05
-1.00713e-05
-8.52769e-06
-6.7088e-06
-4.68661e-06
-2.54757e-06
-3.90848e-07
1.67359e-06
3.52737e-06
5.04733e-06
6.11248e-06
6.61645e-06
6.48775e-06
5.71621e-06
4.37965e-06
2.65757e-06
-9.72592e-06
-9.53351e-06
-9.24783e-06
-8.89006e-06
-8.49002e-06
-8.07879e-06
-7.67573e-06
-7.29672e-06
-6.94867e-06
-6.63167e-06
-6.34308e-06
-6.07997e-06
-5.84069e-06
-5.62636e-06
-5.44357e-06
-5.30519e-06
-5.23392e-06
-5.26935e-06
-5.45511e-06
-5.8652e-06
-6.58546e-06
-7.65141e-06
-8.98112e-06
-1.02891e-05
-1.13618e-05
-1.21037e-05
-1.24656e-05
-1.24276e-05
-1.19896e-05
-1.11673e-05
-9.99075e-06
-8.50556e-06
-6.7728e-06
-4.86854e-06
-2.88213e-06
-9.13611e-07
9.29686e-07
2.53774e-06
3.8043e-06
4.63626e-06
4.96633e-06
4.76794e-06
4.0686e-06
2.95641e-06
1.57378e-06
-9.33195e-06
-9.17985e-06
-8.95387e-06
-8.66274e-06
-8.32483e-06
-7.96272e-06
-7.59602e-06
-7.24033e-06
-6.90519e-06
-6.59454e-06
-6.30889e-06
-6.04768e-06
-5.81096e-06
-5.60089e-06
-5.42482e-06
-5.29568e-06
-5.23575e-06
-5.28395e-06
-5.48083e-06
-5.89702e-06
-6.61527e-06
-7.66157e-06
-8.95572e-06
-1.02259e-05
-1.12634e-05
-1.19766e-05
-1.23191e-05
-1.22731e-05
-1.18412e-05
-1.1043e-05
-9.91292e-06
-8.50111e-06
-6.87252e-06
-5.10585e-06
-3.29094e-06
-1.52512e-06
9.15215e-08
1.46229e-06
2.50145e-06
3.14325e-06
3.35154e-06
3.12787e-06
2.51508e-06
1.59447e-06
4.74936e-07
-8.9247e-06
-8.80607e-06
-8.62912e-06
-8.39627e-06
-8.11735e-06
-7.80775e-06
-7.48372e-06
-7.15952e-06
-6.84571e-06
-6.54883e-06
-6.2722e-06
-6.01772e-06
-5.78746e-06
-5.58492e-06
-5.41847e-06
-5.30126e-06
-5.25496e-06
-5.31779e-06
-5.52673e-06
-5.94831e-06
-6.66199e-06
-7.68251e-06
-8.93266e-06
-1.01573e-05
-1.11523e-05
-1.18313e-05
-1.21517e-05
-1.20985e-05
-1.16776e-05
-1.09124e-05
-9.84198e-06
-8.52006e-06
-7.01423e-06
-5.40362e-06
-3.77553e-06
-2.2209e-06
-8.28677e-07
3.2065e-07
1.16211e-06
1.65317e-06
1.77929e-06
1.55695e-06
1.03118e-06
2.70401e-07
-6.43496e-07
-8.49934e-06
-8.4098e-06
-8.27403e-06
-8.09159e-06
-7.867e-06
-7.60985e-06
-7.33222e-06
-7.04611e-06
-6.76174e-06
-6.4869e-06
-6.22694e-06
-5.98588e-06
-5.76782e-06
-5.57773e-06
-5.4252e-06
-5.3236e-06
-5.29397e-06
-5.37363e-06
-5.59552e-06
-6.02155e-06
-6.72725e-06
-7.71426e-06
-8.91079e-06
-1.00816e-05
-1.10261e-05
-1.16651e-05
-1.19615e-05
-1.19033e-05
-1.14999e-05
-1.0779e-05
-9.783e-06
-8.56842e-06
-7.20333e-06
-5.76464e-06
-4.33397e-06
-2.99266e-06
-1.81612e-06
-8.67994e-07
-1.94782e-07
1.78492e-07
2.504e-07
4.28072e-08
-4.02839e-07
-1.03188e-06
-1.78332e-06
-8.05208e-06
-7.98894e-06
-7.88887e-06
-7.75043e-06
-7.57512e-06
-7.36842e-06
-7.13862e-06
-6.89513e-06
-6.64694e-06
-6.40199e-06
-6.16675e-06
-5.94682e-06
-5.74804e-06
-5.57669e-06
-5.44357e-06
-5.36223e-06
-5.353e-06
-5.45188e-06
-5.68746e-06
-6.11688e-06
-6.81012e-06
-7.75421e-06
-8.88712e-06
-9.99643e-06
-1.08814e-05
-1.14753e-05
-1.1747e-05
-1.16877e-05
-1.13107e-05
-1.0647e-05
-9.7416e-06
-8.65165e-06
-7.44335e-06
-6.18857e-06
-4.9605e-06
-3.82875e-06
-2.85446e-06
-2.0858e-06
-1.55442e-06
-1.27356e-06
-1.23792e-06
-1.4258e-06
-1.80153e-06
-2.32303e-06
-2.94508e-06
-7.58053e-06
-7.54219e-06
-7.47413e-06
-7.37475e-06
-7.24408e-06
-7.08499e-06
-6.90284e-06
-6.70455e-06
-6.49754e-06
-6.28915e-06
-6.08618e-06
-5.89517e-06
-5.72317e-06
-5.57753e-06
-5.46998e-06
-5.41405e-06
-5.42936e-06
-5.54972e-06
-5.79938e-06
-6.23146e-06
-6.90462e-06
-7.79807e-06
-8.85736e-06
-9.89429e-06
-1.07149e-05
-1.12597e-05
-1.15078e-05
-1.14538e-05
-1.11141e-05
-1.05219e-05
-9.72328e-06
-8.77364e-06
-7.73474e-06
-6.67095e-06
-5.6451e-06
-4.71431e-06
-3.92624e-06
-3.31608e-06
-2.90466e-06
-2.69802e-06
-2.68834e-06
-2.85632e-06
-3.17412e-06
-3.60926e-06
-4.12817e-06
-7.08389e-06
-7.06941e-06
-7.03086e-06
-6.9669e-06
-6.87697e-06
-6.76245e-06
-6.62669e-06
-6.47462e-06
-6.31202e-06
-6.14533e-06
-5.98104e-06
-5.82602e-06
-5.68793e-06
-5.57481e-06
-5.4989e-06
-5.4733e-06
-5.51726e-06
-5.66043e-06
-5.92446e-06
-6.35844e-06
-6.99967e-06
-7.84303e-06
-8.81992e-06
-9.76529e-06
-1.05185e-05
-1.10163e-05
-1.12452e-05
-1.12053e-05
-1.09153e-05
-1.04094e-05
-9.7323e-06
-8.93541e-06
-8.07378e-06
-7.20255e-06
-6.37344e-06
-5.63153e-06
-5.01279e-06
-4.54233e-06
-4.23367e-06
-4.08908e-06
-4.10077e-06
-4.25306e-06
-4.52476e-06
-4.8917e-06
-5.32896e-06
-6.56246e-06
-6.57135e-06
-6.56069e-06
-6.52951e-06
-6.4772e-06
-6.40441e-06
-6.31324e-06
-6.20718e-06
-6.09064e-06
-5.96901e-06
-5.84821e-06
-5.73487e-06
-5.63679e-06
-5.56211e-06
-5.52298e-06
-5.5319e-06
-5.60707e-06
-5.7742e-06
-6.05192e-06
-6.48151e-06
-7.09207e-06
-7.88013e-06
-8.76209e-06
-9.60354e-06
-1.02887e-05
-1.07448e-05
-1.09624e-05
-1.09476e-05
-1.07205e-05
-1.03144e-05
-9.77038e-06
-9.13396e-06
-8.45186e-06
-7.76929e-06
-7.12717e-06
-6.55996e-06
-6.09411e-06
-5.74739e-06
-5.52878e-06
-5.43897e-06
-5.47147e-06
-5.61434e-06
-5.85193e-06
-6.16686e-06
-6.54101e-06
-6.01787e-06
-6.04997e-06
-6.06613e-06
-6.0658e-06
-6.04862e-06
-6.01496e-06
-5.96628e-06
-5.90511e-06
-5.83479e-06
-5.75981e-06
-5.68535e-06
-5.6175e-06
-5.56365e-06
-5.53177e-06
-5.53306e-06
-5.57931e-06
-5.68644e-06
-5.8769e-06
-6.16672e-06
-6.5856e-06
-7.16532e-06
-7.88266e-06
-8.66907e-06
-9.41291e-06
-1.00281e-05
-1.04487e-05
-1.06651e-05
-1.06871e-05
-1.05352e-05
-1.02393e-05
-9.8355e-06
-9.36167e-06
-8.85567e-06
-8.35304e-06
-7.88509e-06
-7.47745e-06
-7.14932e-06
-6.91336e-06
-6.77587e-06
-6.73722e-06
-6.79272e-06
-6.93387e-06
-7.14962e-06
-7.42767e-06
-7.7551e-06
-5.45369e-06
-5.50891e-06
-5.55109e-06
-5.58007e-06
-5.59581e-06
-5.59876e-06
-5.59004e-06
-5.57163e-06
-5.54636e-06
-5.51782e-06
-5.49041e-06
-5.46949e-06
-5.46164e-06
-5.47433e-06
-5.51749e-06
-5.60197e-06
-5.74091e-06
-5.95199e-06
-6.25e-06
-6.65469e-06
-7.19144e-06
-7.83659e-06
-8.53359e-06
-9.19202e-06
-9.74015e-06
-1.0132e-05
-1.03585e-05
-1.0429e-05
-1.03621e-05
-1.0183e-05
-9.92101e-06
-9.60633e-06
-9.26816e-06
-8.93335e-06
-8.6251e-06
-8.3621e-06
-8.15826e-06
-8.02281e-06
-7.96052e-06
-7.97204e-06
-8.05449e-06
-8.20232e-06
-8.40811e-06
-8.66347e-06
-8.95939e-06
-4.87629e-06
-4.95409e-06
-5.02121e-06
-5.07781e-06
-5.1242e-06
-5.16103e-06
-5.18938e-06
-5.21091e-06
-5.22794e-06
-5.24345e-06
-5.26121e-06
-5.28576e-06
-5.32276e-06
-5.37881e-06
-5.46203e-06
-5.58214e-06
-5.75024e-06
-5.97935e-06
-6.28323e-06
-6.66498e-06
-7.15369e-06
-7.73467e-06
-8.35262e-06
-8.93151e-06
-9.42254e-06
-9.7966e-06
-1.00449e-05
-1.01741e-05
-1.01985e-05
-1.0138e-05
-1.00146e-05
-9.85118e-06
-9.66931e-06
-9.48857e-06
-9.32559e-06
-9.19376e-06
-9.10321e-06
-9.06085e-06
-9.07057e-06
-9.13342e-06
-9.24805e-06
-9.41123e-06
-9.61834e-06
-9.86398e-06
-1.01421e-05
-4.29445e-06
-4.39342e-06
-4.48368e-06
-4.56557e-06
-4.63974e-06
-4.70706e-06
-4.76866e-06
-4.82602e-06
-4.8811e-06
-4.9364e-06
-4.99509e-06
-5.06098e-06
-5.13872e-06
-5.23379e-06
-5.3526e-06
-5.5025e-06
-5.69185e-06
-5.92996e-06
-6.22248e-06
-6.59588e-06
-7.04315e-06
-7.56498e-06
-8.11312e-06
-8.62654e-06
-9.07584e-06
-9.44397e-06
-9.72316e-06
-9.91642e-06
-1.00335e-05
-1.00881e-05
-1.00955e-05
-1.00721e-05
-1.00331e-05
-9.99231e-06
-9.96122e-06
-9.94929e-06
-9.96388e-06
-1.00103e-05
-1.00917e-05
-1.02096e-05
-1.03636e-05
-1.05521e-05
-1.07728e-05
-1.10222e-05
-1.12966e-05
-3.72484e-06
-3.8424e-06
-3.9527e-06
-4.05635e-06
-4.15427e-06
-4.24753e-06
-4.3373e-06
-4.42495e-06
-4.51217e-06
-4.60107e-06
-4.69426e-06
-4.79485e-06
-4.90654e-06
-5.03366e-06
-5.1812e-06
-5.35492e-06
-5.56056e-06
-5.80479e-06
-6.09542e-06
-6.44188e-06
-6.85023e-06
-7.31887e-06
-7.81127e-06
-8.27934e-06
-8.70348e-06
-9.07478e-06
-9.38836e-06
-9.64506e-06
-9.84996e-06
-1.00109e-05
-1.01375e-05
-1.02404e-05
-1.03298e-05
-1.04149e-05
-1.05034e-05
-1.06019e-05
-1.07156e-05
-1.08485e-05
-1.10031e-05
-1.1181e-05
-1.13825e-05
-1.16073e-05
-1.18542e-05
-1.21216e-05
-1.24071e-05
-3.20614e-06
-3.33754e-06
-3.4631e-06
-3.58344e-06
-3.69954e-06
-3.81252e-06
-3.92355e-06
-4.03393e-06
-4.14515e-06
-4.259e-06
-4.37764e-06
-4.50358e-06
-4.63973e-06
-4.78954e-06
-4.95675e-06
-5.14581e-06
-5.36243e-06
-5.61207e-06
-5.8988e-06
-6.22864e-06
-6.60697e-06
-7.03634e-06
-7.49055e-06
-7.93117e-06
-8.34509e-06
-8.72831e-06
-9.07718e-06
-9.39049e-06
-9.66971e-06
-9.91873e-06
-1.01432e-05
-1.03497e-05
-1.05446e-05
-1.07335e-05
-1.09217e-05
-1.11135e-05
-1.13125e-05
-1.15216e-05
-1.17429e-05
-1.19779e-05
-1.22275e-05
-1.24917e-05
-1.27704e-05
-1.30628e-05
-1.33676e-05
-2.80097e-06
-2.94039e-06
-3.07503e-06
-3.20554e-06
-3.3329e-06
-3.45817e-06
-3.58249e-06
-3.70706e-06
-3.83323e-06
-3.96256e-06
-4.09689e-06
-4.23831e-06
-4.3893e-06
-4.5526e-06
-4.73139e-06
-4.92954e-06
-5.14999e-06
-5.39765e-06
-5.68246e-06
-6.00538e-06
-6.3688e-06
-6.77486e-06
-7.20788e-06
-7.63583e-06
-8.04806e-06
-8.44295e-06
-8.81778e-06
-9.17038e-06
-9.50057e-06
-9.8103e-06
-1.01029e-05
-1.03822e-05
-1.0652e-05
-1.09162e-05
-1.1178e-05
-1.14404e-05
-1.17058e-05
-1.19764e-05
-1.22537e-05
-1.25389e-05
-1.2833e-05
-1.31362e-05
-1.34486e-05
-1.37699e-05
-1.40993e-05
-2.49554e-06
-2.64072e-06
-2.78184e-06
-2.91956e-06
-3.05484e-06
-3.18872e-06
-3.32227e-06
-3.45666e-06
-3.59314e-06
-3.73314e-06
-3.87829e-06
-4.03048e-06
-4.19183e-06
-4.36475e-06
-4.55195e-06
-4.75671e-06
-4.98293e-06
-5.23506e-06
-5.51841e-06
-5.83228e-06
-6.18256e-06
-6.57412e-06
-6.99363e-06
-7.41389e-06
-7.82587e-06
-8.22815e-06
-8.61839e-06
-8.99471e-06
-9.35674e-06
-9.70548e-06
-1.00428e-05
-1.03708e-05
-1.06921e-05
-1.10089e-05
-1.13233e-05
-1.16372e-05
-1.19521e-05
-1.22697e-05
-1.25911e-05
-1.29171e-05
-1.32483e-05
-1.35851e-05
-1.39276e-05
-1.42756e-05
-1.46287e-05
-2.26941e-06
-2.41908e-06
-2.56517e-06
-2.70841e-06
-2.84976e-06
-2.99021e-06
-3.13082e-06
-3.27268e-06
-3.41699e-06
-3.56508e-06
-3.71848e-06
-3.87889e-06
-4.04823e-06
-4.22867e-06
-4.42279e-06
-4.63331e-06
-4.86325e-06
-5.11641e-06
-5.39514e-06
-5.70525e-06
-6.04833e-06
-6.43073e-06
-6.84065e-06
-7.25466e-06
-7.66486e-06
-8.06986e-06
-8.46796e-06
-8.85794e-06
-9.23944e-06
-9.61292e-06
-9.97936e-06
-1.034e-05
-1.06963e-05
-1.10495e-05
-1.14008e-05
-1.17516e-05
-1.21028e-05
-1.24555e-05
-1.28104e-05
-1.3168e-05
-1.35287e-05
-1.38927e-05
-1.42601e-05
-1.46308e-05
-1.50045e-05
-2.10089e-06
-2.25492e-06
-2.40571e-06
-2.55406e-06
-2.70092e-06
-2.84726e-06
-2.99409e-06
-3.14247e-06
-3.29354e-06
-3.44859e-06
-3.60904e-06
-3.77646e-06
-3.95263e-06
-4.13951e-06
-4.33932e-06
-4.55438e-06
-4.78745e-06
-5.0417e-06
-5.32005e-06
-5.62636e-06
-5.96439e-06
-6.33918e-06
-6.7402e-06
-7.14724e-06
-7.55334e-06
-7.95739e-06
-8.35825e-06
-8.75512e-06
-9.14769e-06
-9.5361e-06
-9.92081e-06
-1.03025e-05
-1.06817e-05
-1.10594e-05
-1.14362e-05
-1.18129e-05
-1.21902e-05
-1.25684e-05
-1.29481e-05
-1.33295e-05
-1.37129e-05
-1.40984e-05
-1.44858e-05
-1.48751e-05
-1.52659e-05
-1.97688e-06
-2.13555e-06
-2.29122e-06
-2.44472e-06
-2.59699e-06
-2.749e-06
-2.9017e-06
-3.05614e-06
-3.21343e-06
-3.37478e-06
-3.54157e-06
-3.71523e-06
-3.8974e-06
-4.08985e-06
-4.29456e-06
-4.51374e-06
-4.74976e-06
-5.00533e-06
-5.28326e-06
-5.58712e-06
-5.92066e-06
-6.28798e-06
-6.67986e-06
-7.07889e-06
-7.47913e-06
-7.87974e-06
-8.27989e-06
-8.67903e-06
-9.07689e-06
-9.47343e-06
-9.86881e-06
-1.02633e-05
-1.06572e-05
-1.1051e-05
-1.14449e-05
-1.18395e-05
-1.22349e-05
-1.26314e-05
-1.30292e-05
-1.34285e-05
-1.38291e-05
-1.42312e-05
-1.46344e-05
-1.50384e-05
-1.54431e-05
-1.88757e-06
-2.05111e-06
-2.21177e-06
-2.37044e-06
-2.52803e-06
-2.68549e-06
-2.84378e-06
-3.00389e-06
-3.16692e-06
-3.33405e-06
-3.50654e-06
-3.68579e-06
-3.87328e-06
-4.07063e-06
-4.27971e-06
-4.50245e-06
-4.74101e-06
-4.99755e-06
-5.2751e-06
-5.57666e-06
-5.90551e-06
-6.26523e-06
-6.64775e-06
-7.03819e-06
-7.43154e-06
-7.8271e-06
-8.22425e-06
-8.62257e-06
-9.02184e-06
-9.42194e-06
-9.82287e-06
-1.02247e-05
-1.06275e-05
-1.10314e-05
-1.14366e-05
-1.18431e-05
-1.22511e-05
-1.26605e-05
-1.30715e-05
-1.34839e-05
-1.38975e-05
-1.43122e-05
-1.47276e-05
-1.51435e-05
-1.55593e-05
-1.82464e-06
-1.99309e-06
-2.15871e-06
-2.32241e-06
-2.48512e-06
-2.64775e-06
-2.81124e-06
-2.97659e-06
-3.14486e-06
-3.31719e-06
-3.49479e-06
-3.67896e-06
-3.87112e-06
-4.07275e-06
-4.28546e-06
-4.51109e-06
-4.75152e-06
-5.00889e-06
-5.2858e-06
-5.58477e-06
-5.90879e-06
-6.26091e-06
-6.63411e-06
-7.0158e-06
-7.40174e-06
-7.79131e-06
-8.18402e-06
-8.57959e-06
-8.97782e-06
-9.37858e-06
-9.78175e-06
-1.01873e-05
-1.05951e-05
-1.10052e-05
-1.14175e-05
-1.1832e-05
-1.22486e-05
-1.26672e-05
-1.30876e-05
-1.35097e-05
-1.39331e-05
-1.43574e-05
-1.47824e-05
-1.52076e-05
-1.56325e-05
-1.78124e-06
-1.95444e-06
-2.12481e-06
-2.29327e-06
-2.46074e-06
-2.62812e-06
-2.79635e-06
-2.96641e-06
-3.13936e-06
-3.31628e-06
-3.49834e-06
-3.68678e-06
-3.88291e-06
-4.08809e-06
-4.30367e-06
-4.53181e-06
-4.7736e-06
-5.03134e-06
-5.3072e-06
-5.60337e-06
-5.92251e-06
-6.26719e-06
-6.63135e-06
-7.00444e-06
-7.38284e-06
-7.76601e-06
-8.15357e-06
-8.54535e-06
-8.94117e-06
-9.34085e-06
-9.74424e-06
-1.01512e-05
-1.05616e-05
-1.09752e-05
-1.1392e-05
-1.18118e-05
-1.22344e-05
-1.26595e-05
-1.30868e-05
-1.35161e-05
-1.39469e-05
-1.43789e-05
-1.48115e-05
-1.52443e-05
-1.56766e-05
-1.75187e-06
-1.92949e-06
-2.10425e-06
-2.27705e-06
-2.44882e-06
-2.62045e-06
-2.79287e-06
-2.96708e-06
-3.14409e-06
-3.32498e-06
-3.51085e-06
-3.70289e-06
-3.90234e-06
-4.11046e-06
-4.32885e-06
-4.55847e-06
-4.80112e-06
-5.0588e-06
-5.33333e-06
-5.6266e-06
-5.94094e-06
-6.27849e-06
-6.63406e-06
-6.99894e-06
-7.37002e-06
-7.7468e-06
-8.12905e-06
-8.51662e-06
-8.90934e-06
-9.30704e-06
-9.70952e-06
-1.01166e-05
-1.05281e-05
-1.09437e-05
-1.13633e-05
-1.17866e-05
-1.22134e-05
-1.26432e-05
-1.30757e-05
-1.35105e-05
-1.39472e-05
-1.43853e-05
-1.48242e-05
-1.52633e-05
-1.5702e-05
-1.7322e-06
-1.91384e-06
-2.09252e-06
-2.26919e-06
-2.44473e-06
-2.62007e-06
-2.79613e-06
-2.9739e-06
-3.15439e-06
-3.33863e-06
-3.52771e-06
-3.72275e-06
-3.9249e-06
-4.13535e-06
-4.35566e-06
-4.58685e-06
-4.82988e-06
-5.08721e-06
-5.36028e-06
-5.65063e-06
-5.96037e-06
-6.2912e-06
-6.63881e-06
-6.99605e-06
-7.36023e-06
-7.73094e-06
-8.10802e-06
-8.49136e-06
-8.88079e-06
-9.27612e-06
-9.67715e-06
-1.00836e-05
-1.04954e-05
-1.09121e-05
-1.13335e-05
-1.17592e-05
-1.2189e-05
-1.26224e-05
-1.30589e-05
-1.34982e-05
-1.39397e-05
-1.43828e-05
-1.4827e-05
-1.52716e-05
-1.57159e-05
-1.71906e-06
-1.90424e-06
-2.08637e-06
-2.26639e-06
-2.44519e-06
-2.62371e-06
-2.80288e-06
-2.98368e-06
-3.16709e-06
-3.35415e-06
-3.5459e-06
-3.74341e-06
-3.94776e-06
-4.16002e-06
-4.38215e-06
-4.61423e-06
-4.85734e-06
-5.11421e-06
-5.38574e-06
-5.67328e-06
-5.97868e-06
-6.30332e-06
-6.64364e-06
-6.99388e-06
-7.35172e-06
-7.71682e-06
-8.08908e-06
-8.46839e-06
-8.8546e-06
-9.2475e-06
-9.64689e-06
-1.00525e-05
-1.04641e-05
-1.08813e-05
-1.13039e-05
-1.17314e-05
-1.21635e-05
-1.25998e-05
-1.30396e-05
-1.34826e-05
-1.39281e-05
-1.43756e-05
-1.48244e-05
-1.52737e-05
-1.5723e-05
-1.7102e-06
-1.89845e-06
-2.08356e-06
-2.26645e-06
-2.44804e-06
-2.62926e-06
-2.81105e-06
-2.99439e-06
-3.18027e-06
-3.36968e-06
-3.56364e-06
-3.76318e-06
-3.96932e-06
-4.18315e-06
-4.40678e-06
-4.63907e-06
-4.88228e-06
-5.13861e-06
-5.40862e-06
-5.69349e-06
-5.99488e-06
-6.31386e-06
-6.6476e-06
-6.99151e-06
-7.34361e-06
-7.70362e-06
-8.07149e-06
-8.4471e-06
-8.8303e-06
-9.22089e-06
-9.61864e-06
-1.00233e-05
-1.04345e-05
-1.08521e-05
-1.12755e-05
-1.17044e-05
-1.21384e-05
-1.2577e-05
-1.30197e-05
-1.34658e-05
-1.39149e-05
-1.43661e-05
-1.4819e-05
-1.52726e-05
-1.57263e-05
-1.70412e-06
-1.89502e-06
-2.08267e-06
-2.26801e-06
-2.45196e-06
-2.63545e-06
-2.81945e-06
-3.00492e-06
-3.19285e-06
-3.38421e-06
-3.58e-06
-3.78122e-06
-3.98886e-06
-4.20419e-06
-4.42847e-06
-4.66097e-06
-4.90434e-06
-5.16001e-06
-5.42854e-06
-5.71093e-06
-6.00865e-06
-6.32251e-06
-6.65033e-06
-6.98856e-06
-7.33551e-06
-7.69097e-06
-8.0549e-06
-8.42718e-06
-8.80765e-06
-9.19612e-06
-9.59235e-06
-9.99606e-06
-1.04069e-05
-1.08246e-05
-1.12487e-05
-1.16788e-05
-1.21145e-05
-1.25551e-05
-1.30002e-05
-1.34491e-05
-1.39013e-05
-1.4356e-05
-1.48124e-05
-1.52699e-05
-1.57276e-05
-1.69988e-06
-1.89304e-06
-2.08285e-06
-2.27025e-06
-2.45618e-06
-2.64159e-06
-2.82744e-06
-3.01469e-06
-3.20432e-06
-3.39731e-06
-3.59463e-06
-3.79724e-06
-4.00615e-06
-4.22269e-06
-4.44717e-06
-4.68009e-06
-4.9235e-06
-5.17842e-06
-5.44555e-06
-5.72567e-06
-6.02005e-06
-6.32931e-06
-6.65182e-06
-6.98498e-06
-7.32735e-06
-7.67876e-06
-8.03917e-06
-8.40848e-06
-8.78653e-06
-9.1731e-06
-9.56796e-06
-9.97081e-06
-1.03813e-05
-1.07991e-05
-1.12238e-05
-1.1655e-05
-1.2092e-05
-1.25345e-05
-1.29818e-05
-1.34332e-05
-1.38882e-05
-1.43459e-05
-1.48057e-05
-1.52666e-05
-1.5728e-05
-1.69686e-06
-1.89194e-06
-2.08357e-06
-2.27272e-06
-2.46032e-06
-2.64733e-06
-2.83472e-06
-3.02347e-06
-3.21453e-06
-3.40887e-06
-3.60746e-06
-3.81123e-06
-4.02118e-06
-4.23856e-06
-4.46334e-06
-4.69658e-06
-4.9399e-06
-5.19409e-06
-5.4599e-06
-5.73795e-06
-6.02933e-06
-6.33446e-06
-6.65224e-06
-6.98088e-06
-7.31918e-06
-7.667e-06
-8.02431e-06
-8.391e-06
-8.7669e-06
-9.1518e-06
-9.54545e-06
-9.94756e-06
-1.03578e-05
-1.07757e-05
-1.12009e-05
-1.1633e-05
-1.20713e-05
-1.25154e-05
-1.29647e-05
-1.34184e-05
-1.38759e-05
-1.43364e-05
-1.47991e-05
-1.52632e-05
-1.57279e-05
-1.69469e-06
-1.8914e-06
-2.08457e-06
-2.27517e-06
-2.46417e-06
-2.65253e-06
-2.84121e-06
-3.03119e-06
-3.22344e-06
-3.41891e-06
-3.61855e-06
-3.82327e-06
-4.03407e-06
-4.25206e-06
-4.47721e-06
-4.71064e-06
-4.9538e-06
-5.20731e-06
-5.4719e-06
-5.74807e-06
-6.03677e-06
-6.33823e-06
-6.65181e-06
-6.97644e-06
-7.31116e-06
-7.65582e-06
-8.01041e-06
-8.37479e-06
-8.74881e-06
-9.13225e-06
-9.52486e-06
-9.92632e-06
-1.03363e-05
-1.07544e-05
-1.11801e-05
-1.1613e-05
-1.20525e-05
-1.24981e-05
-1.29491e-05
-1.34048e-05
-1.38646e-05
-1.43276e-05
-1.4793e-05
-1.526e-05
-1.57276e-05
-1.69313e-06
-1.89122e-06
-2.0857e-06
-2.27754e-06
-2.46771e-06
-2.65719e-06
-2.84695e-06
-3.03797e-06
-3.23121e-06
-3.42761e-06
-3.62812e-06
-3.83364e-06