/*--------------------------------*- C++ -*----------------------------------*\
| =========                 |                                                 |
| \\      /  F ield         | OpenFOAM: The Open Source CFD Toolbox           |
|  \\    /   O peration     | Version:  2312                                  |
|   \\  /    A nd           | Website:  www.openfoam.com                      |
|    \\/     M anipulation  |                                                 |
\*---------------------------------------------------------------------------*/
FoamFile
{
    version     2.0;
    format      ascii;
    arch        "LSB;label=32;scalar=64";
    class       volScalarField;
    location    "160.5";
    object      p;
}
// * * * * * * * * * * * * * * * * * * * * * * * * * * * * * * * * * * * * * //

dimensions      [0 2 -2 0 0 0 0];

internalField   nonuniform List<scalar> 
4800
(
-6.18046e-13
-1.04313e-06
-1.90751e-06
-2.64611e-06
-3.28914e-06
-3.86411e-06
-4.37639e-06
-4.83615e-06
-5.25346e-06
-5.63435e-06
-5.98345e-06
-6.30112e-06
-6.579e-06
-7.05747e-06
-8.69945e-06
1.13621e-08
-1.03106e-06
-1.89479e-06
-2.63324e-06
-3.27694e-06
-3.85308e-06
-4.36744e-06
-4.83049e-06
-5.25312e-06
-5.64333e-06
-6.01049e-06
-6.36842e-06
-6.72938e-06
-7.20029e-06
-8.02375e-06
2.3256e-08
-1.0182e-06
-1.88135e-06
-2.6197e-06
-3.26288e-06
-3.83963e-06
-4.35554e-06
-4.82109e-06
-5.24782e-06
-5.6445e-06
-6.02163e-06
-6.3934e-06
-6.76617e-06
-7.14475e-06
-7.50011e-06
3.53334e-08
-1.0045e-06
-1.86645e-06
-2.60453e-06
-3.2461e-06
-3.82274e-06
-4.3394e-06
-4.80578e-06
-5.23357e-06
-5.63076e-06
-6.00497e-06
-6.36148e-06
-6.69007e-06
-6.95614e-06
-7.08553e-06
4.88805e-08
-9.88532e-07
-1.84846e-06
-2.58541e-06
-3.22533e-06
-3.79989e-06
-4.31595e-06
-4.78086e-06
-5.20543e-06
-5.59551e-06
-5.95361e-06
-6.27508e-06
-6.53866e-06
-6.70324e-06
-6.71149e-06
6.54173e-08
-9.68726e-07
-1.82576e-06
-2.56012e-06
-3.1986e-06
-3.76842e-06
-4.28138e-06
-4.74138e-06
-5.15709e-06
-5.5313e-06
-5.8612e-06
-6.13568e-06
-6.33158e-06
-6.41756e-06
-6.3644e-06
8.74152e-08
-9.42668e-07
-1.7958e-06
-2.52608e-06
-3.16148e-06
-3.72499e-06
-4.23088e-06
-4.6812e-06
-5.08135e-06
-5.43102e-06
-5.7238e-06
-5.94697e-06
-6.08257e-06
-6.11412e-06
-6.03398e-06
1.19077e-07
-9.06375e-07
-1.75452e-06
-2.47917e-06
-3.10865e-06
-3.664e-06
-4.15815e-06
-4.59305e-06
-4.97085e-06
-5.28905e-06
-5.5404e-06
-5.71486e-06
-5.8026e-06
-5.79991e-06
-5.71111e-06
1.66785e-07
-8.53841e-07
-1.69591e-06
-2.41312e-06
-3.0339e-06
-3.57755e-06
-4.05528e-06
-4.46901e-06
-4.8188e-06
-5.10162e-06
-5.31205e-06
-5.44496e-06
-5.49827e-06
-5.47649e-06
-5.38891e-06
2.39065e-07
-7.76918e-07
-1.6119e-06
-2.31964e-06
-2.92869e-06
-3.45673e-06
-3.91354e-06
-4.30129e-06
-4.61961e-06
-4.86668e-06
-5.0405e-06
-5.14111e-06
-5.17202e-06
-5.14191e-06
-5.06114e-06
3.45965e-07
-6.65689e-07
-1.4926e-06
-2.18885e-06
-2.78301e-06
-3.29183e-06
-3.72416e-06
-4.08303e-06
-4.36925e-06
-4.58346e-06
-4.72734e-06
-4.80507e-06
-4.82339e-06
-4.79236e-06
-4.72168e-06
4.98431e-07
-5.09061e-07
-1.32669e-06
-2.00961e-06
-2.58629e-06
-3.07326e-06
-3.47926e-06
-3.80893e-06
-4.06533e-06
-4.25198e-06
-4.37362e-06
-4.43703e-06
-4.45036e-06
-4.42351e-06
-4.36486e-06
7.08569e-07
-2.94724e-07
-1.10177e-06
-1.76938e-06
-2.32771e-06
-2.79203e-06
-3.17221e-06
-3.47518e-06
-3.70657e-06
-3.87242e-06
-3.97959e-06
-4.0361e-06
-4.05032e-06
-4.03124e-06
-3.98592e-06
9.90675e-07
-8.26158e-09
-8.04205e-07
-1.45638e-06
-1.99594e-06
-2.43897e-06
-2.79671e-06
-3.07819e-06
-3.29131e-06
-3.44396e-06
-3.54414e-06
-3.60021e-06
-3.6201e-06
-3.61167e-06
-3.58083e-06
1.36159e-06
3.67373e-07
-4.17855e-07
-1.05614e-06
-1.57905e-06
-2.00467e-06
-2.34584e-06
-2.61317e-06
-2.81609e-06
-2.96356e-06
-3.06401e-06
-3.12558e-06
-3.1555e-06
-3.16061e-06
-3.14583e-06
1.83936e-06
8.50349e-07
7.38611e-08
-5.5394e-07
-1.06501e-06
-1.47952e-06
-1.81194e-06
-2.07393e-06
-2.27562e-06
-2.42626e-06
-2.53424e-06
-2.60724e-06
-2.65181e-06
-2.67387e-06
-2.67769e-06
2.4397e-06
1.45984e-06
6.86075e-07
6.31051e-08
-4.4306e-07
-8.54823e-07
-1.18799e-06
-1.4546e-06
-1.66475e-06
-1.82744e-06
-1.95067e-06
-2.04158e-06
-2.10615e-06
-2.14958e-06
-2.1757e-06
3.16913e-06
2.19951e-06
1.42673e-06
8.023e-07
2.92632e-07
-1.26208e-07
-4.7067e-07
-7.52606e-07
-9.81549e-07
-1.16589e-06
-1.31306e-06
-1.4296e-06
-1.52097e-06
-1.5918e-06
-1.64559e-06
4.02374e-06
3.06736e-06
2.29473e-06
1.66402e-06
1.14211e-06
7.05649e-07
3.39037e-07
3.11435e-08
-2.26894e-07
-4.42749e-07
-6.23155e-07
-7.74014e-07
-9.00283e-07
-1.00615e-06
-1.09491e-06
4.98286e-06
4.04822e-06
3.27813e-06
2.63663e-06
2.09455e-06
1.6314e-06
1.23331e-06
8.90143e-07
5.93735e-07
3.37131e-07
1.14296e-07
-8.00059e-08
-2.50222e-07
-4.00094e-07
-5.32754e-07
5.92303e-06
5.0196e-06
4.2541e-06
3.59876e-06
3.03131e-06
2.53555e-06
2.09964e-06
1.71461e-06
1.37324e-06
1.06949e-06
7.98042e-07
5.54299e-07
3.3432e-07
1.34831e-07
-4.69843e-08
6.71138e-06
5.83754e-06
5.07878e-06
4.41268e-06
3.82321e-06
3.29827e-06
2.82814e-06
2.40502e-06
2.02258e-06
1.67545e-06
1.35896e-06
1.06911e-06
8.02493e-07
5.56317e-07
3.28118e-07
7.29623e-06
6.45344e-06
5.70496e-06
5.03494e-06
4.43182e-06
3.88626e-06
3.39023e-06
2.93708e-06
2.52132e-06
2.13831e-06
1.78405e-06
1.45516e-06
1.14878e-06
8.62578e-07
5.94424e-07
7.72107e-06
6.90795e-06
6.17275e-06
5.50452e-06
4.8946e-06
4.33549e-06
3.82061e-06
3.34445e-06
2.90239e-06
2.49054e-06
2.10557e-06
1.74468e-06
1.40555e-06
1.08621e-06
7.84871e-07
8.01976e-06
7.23525e-06
6.51591e-06
5.85376e-06
5.24213e-06
4.67501e-06
4.14714e-06
3.65405e-06
3.19196e-06
2.75767e-06
2.34848e-06
1.96217e-06
1.59682e-06
1.25084e-06
9.22719e-07
8.22492e-06
7.46794e-06
6.76561e-06
6.11194e-06
5.50194e-06
4.93089e-06
4.39462e-06
3.88952e-06
3.41255e-06
2.96117e-06
2.53328e-06
2.12711e-06
1.74113e-06
1.37405e-06
1.02466e-06
8.36372e-06
7.63236e-06
6.9468e-06
6.30268e-06
5.69638e-06
5.12422e-06
4.58283e-06
4.06937e-06
3.58148e-06
3.11723e-06
2.67499e-06
2.25339e-06
1.85124e-06
1.46754e-06
1.10135e-06
8.45636e-06
7.74818e-06
7.07842e-06
6.44413e-06
5.84267e-06
5.27109e-06
4.72677e-06
4.20754e-06
3.71166e-06
3.23768e-06
2.78437e-06
2.35072e-06
1.93584e-06
1.53901e-06
1.15952e-06
8.51738e-06
7.82984e-06
7.17462e-06
6.5499e-06
5.95363e-06
5.38352e-06
4.83762e-06
4.31438e-06
3.81253e-06
3.33106e-06
2.86907e-06
2.42588e-06
2.00087e-06
1.59356e-06
1.20344e-06
8.55711e-06
7.88776e-06
7.24568e-06
6.62981e-06
6.03859e-06
5.4703e-06
4.92362e-06
4.39749e-06
3.89107e-06
3.40366e-06
2.93473e-06
2.48385e-06
2.05063e-06
1.63481e-06
1.23605e-06
8.5827e-06
7.92927e-06
7.29886e-06
6.69094e-06
6.10435e-06
5.53795e-06
4.99091e-06
4.46259e-06
3.9525e-06
3.46027e-06
2.98563e-06
2.52839e-06
2.08838e-06
1.66552e-06
1.25963e-06
8.59905e-06
7.9595e-06
7.33934e-06
6.73841e-06
6.15593e-06
5.59129e-06
5.04407e-06
4.51397e-06
4.00083e-06
3.50454e-06
3.02508e-06
2.56247e-06
2.11672e-06
1.68792e-06
1.27604e-06
8.60948e-06
7.982e-06
7.37078e-06
6.77591e-06
6.19702e-06
5.63392e-06
5.08654e-06
4.55491e-06
4.03912e-06
3.53932e-06
3.05569e-06
2.58844e-06
2.13776e-06
1.70386e-06
1.28685e-06
8.61621e-06
7.99923e-06
7.39575e-06
6.8061e-06
6.23028e-06
5.66847e-06
5.12091e-06
4.58788e-06
4.06973e-06
3.56681e-06
3.07951e-06
2.60819e-06
2.15319e-06
1.71484e-06
1.29337e-06
8.62069e-06
8.01284e-06
7.41605e-06
6.83086e-06
6.25765e-06
5.69688e-06
5.14907e-06
4.61473e-06
4.09443e-06
3.58871e-06
3.09812e-06
2.62318e-06
2.16434e-06
1.72207e-06
1.29669e-06
8.62381e-06
8.0239e-06
7.43288e-06
6.85152e-06
6.28049e-06
5.72055e-06
5.17241e-06
4.63683e-06
4.11454e-06
3.60628e-06
3.11272e-06
2.63453e-06
2.17228e-06
1.72652e-06
1.29766e-06
8.62615e-06
8.03312e-06
7.44704e-06
6.86894e-06
6.29974e-06
5.74042e-06
5.19191e-06
4.65514e-06
4.13103e-06
3.62045e-06
3.12422e-06
2.64311e-06
2.1778e-06
1.72893e-06
1.29699e-06
8.62804e-06
8.04103e-06
7.45923e-06
6.88391e-06
6.31624e-06
5.75738e-06
5.20846e-06
4.67057e-06
4.14477e-06
3.63206e-06
3.13338e-06
2.64962e-06
2.18153e-06
1.72985e-06
1.29514e-06
8.62972e-06
8.04829e-06
7.47039e-06
6.8976e-06
6.33127e-06
5.77277e-06
5.22338e-06
4.68436e-06
4.1569e-06
3.64213e-06
3.1411e-06
2.65477e-06
2.18402e-06
1.72963e-06
1.29226e-06
8.63122e-06
8.05499e-06
7.48079e-06
6.91036e-06
6.34524e-06
5.78697e-06
5.23702e-06
4.69681e-06
4.16766e-06
3.65085e-06
3.14754e-06
2.6588e-06
2.18558e-06
1.72873e-06
1.28891e-06
-9.95855e-06
-7.56051e-06
-6.10463e-06
-5.13414e-06
-4.3678e-06
-3.7888e-06
-3.34722e-06
-3.00771e-06
-2.74489e-06
-2.53741e-06
-2.3666e-06
-2.21533e-06
-2.06725e-06
-1.90686e-06
-1.71933e-06
-1.49294e-06
-1.2206e-06
-9.06619e-07
-5.71761e-07
-2.64281e-07
-5.80487e-08
-4.35624e-08
-2.68095e-07
-6.00915e-07
-8.82881e-07
-1.02174e-06
-9.61317e-07
-6.7322e-07
-1.4269e-07
6.41301e-07
1.68387e-06
2.97993e-06
4.51016e-06
6.24794e-06
8.15231e-06
1.01721e-05
1.2247e-05
1.43079e-05
1.62739e-05
1.80433e-05
1.94829e-05
2.03945e-05
2.03623e-05
1.9024e-05
1.49515e-05
-8.31279e-06
-7.03785e-06
-5.92278e-06
-5.05284e-06
-4.33155e-06
-3.76722e-06
-3.33059e-06
-2.99289e-06
-2.73102e-06
-2.52442e-06
-2.35459e-06
-2.20436e-06
-2.05729e-06
-1.89785e-06
-1.71125e-06
-1.48586e-06
-1.21478e-06
-9.02254e-07
-5.68669e-07
-2.61396e-07
-5.24973e-08
-3.03224e-08
-2.4211e-07
-5.60782e-07
-8.30312e-07
-9.60087e-07
-8.9421e-07
-6.04147e-07
-7.55456e-08
7.01982e-07
1.73258e-06
3.00935e-06
4.51015e-06
6.20604e-06
8.05269e-06
9.99443e-06
1.19645e-05
1.38838e-05
1.56556e-05
1.7151e-05
1.81809e-05
1.84411e-05
1.73396e-05
1.4132e-05
7.73262e-06
-7.45406e-06
-6.6374e-06
-5.73572e-06
-4.95761e-06
-4.28633e-06
-3.74241e-06
-3.31357e-06
-2.97878e-06
-2.71798e-06
-2.51195e-06
-2.34263e-06
-2.19295e-06
-2.04643e-06
-1.88753e-06
-1.70156e-06
-1.47704e-06
-1.20724e-06
-8.96343e-07
-5.64409e-07
-2.57762e-07
-4.64006e-08
-1.61299e-08
-2.1403e-07
-5.16893e-07
-7.72459e-07
-8.9205e-07
-8.20224e-07
-5.28438e-07
-2.99036e-09
7.6565e-07
1.78034e-06
3.03197e-06
4.49472e-06
6.13676e-06
7.9096e-06
9.75195e-06
1.15893e-05
1.33316e-05
1.48653e-05
1.60403e-05
1.66348e-05
1.63191e-05
1.45751e-05
1.09442e-05
5.24912e-06
-6.91592e-06
-6.31393e-06
-5.5786e-06
-4.87324e-06
-4.24948e-06
-3.72673e-06
-3.30542e-06
-2.97235e-06
-2.71098e-06
-2.50379e-06
-2.33345e-06
-2.18303e-06
-2.03606e-06
-1.87699e-06
-1.69117e-06
-1.46727e-06
-1.19873e-06
-8.89602e-07
-5.59583e-07
-2.53828e-07
-4.00621e-08
-1.24803e-09
-1.84133e-07
-4.69658e-07
-7.09634e-07
-8.17542e-07
-7.38551e-07
-4.44289e-07
7.79897e-08
8.3671e-07
1.83285e-06
3.05483e-06
4.47189e-06
6.04876e-06
7.73193e-06
9.45379e-06
1.11318e-05
1.26657e-05
1.39299e-05
1.47635e-05
1.49492e-05
1.42057e-05
1.21921e-05
8.69635e-06
3.95838e-06
-6.50244e-06
-6.03231e-06
-5.42751e-06
-4.80695e-06
-4.2267e-06
-3.7248e-06
-3.31023e-06
-2.97695e-06
-2.71247e-06
-2.50148e-06
-2.3277e-06
-2.17454e-06
-2.02556e-06
-1.86517e-06
-1.6788e-06
-1.45523e-06
-1.18807e-06
-8.81134e-07
-5.53681e-07
-2.49486e-07
-3.36849e-08
1.40226e-08
-1.52586e-07
-4.19115e-07
-6.41918e-07
-7.36939e-07
-6.50173e-07
-3.53672e-07
1.64075e-07
9.09721e-07
1.88259e-06
3.06797e-06
4.4291e-06
5.92725e-06
7.50363e-06
9.08447e-06
1.05805e-05
1.18844e-05
1.28675e-05
1.33739e-05
1.32186e-05
1.22023e-05
1.01518e-05
7.04458e-06
3.17917e-06
-6.15741e-06
-5.77856e-06
-5.27713e-06
-4.74128e-06
-4.21407e-06
-3.73549e-06
-3.32863e-06
-2.99422e-06
-2.72441e-06
-2.5068e-06
-2.32678e-06
-2.16835e-06
-2.01526e-06
-1.85199e-06
-1.66406e-06
-1.44035e-06
-1.1747e-06
-8.7047e-07
-5.46454e-07
-2.44768e-07
-2.75676e-08
2.92247e-08
-1.19844e-07
-3.65667e-07
-5.69737e-07
-6.50814e-07
-5.55999e-07
-2.58023e-07
2.52946e-07
9.79771e-07
1.92488e-06
3.0644e-06
4.35734e-06
5.76168e-06
7.21361e-06
8.63434e-06
9.93068e-06
1.09939e-05
1.17014e-05
1.19175e-05
1.15044e-05
1.03465e-05
8.39254e-06
5.72577e-06
2.62021e-06
-5.84495e-06
-5.53617e-06
-5.12501e-06
-4.66051e-06
-4.19429e-06
-3.74955e-06
-3.35548e-06
-3.0218e-06
-2.74617e-06
-2.52008e-06
-2.33139e-06
-2.16519e-06
-2.00568e-06
-1.8377e-06
-1.64696e-06
-1.42252e-06
-1.15846e-06
-8.57525e-07
-5.37982e-07
-2.39979e-07
-2.22514e-08
4.36273e-08
-8.6708e-08
-3.1015e-07
-4.93995e-07
-5.60242e-07
-4.57324e-07
-1.58844e-07
3.40991e-07
1.04326e-06
1.95571e-06
3.03791e-06
4.24923e-06
5.54408e-06
6.85463e-06
8.09931e-06
9.18455e-06
1.00079e-05
1.04603e-05
1.04358e-05
9.84617e-06
8.64345e-06
6.84802e-06
4.57735e-06
2.05115e-06
-5.54398e-06
-5.29063e-06
-4.95554e-06
-4.56438e-06
-4.1522e-06
-3.75087e-06
-3.37849e-06
-3.05126e-06
-2.77263e-06
-2.53822e-06
-2.33988e-06
-2.16427e-06
-1.99644e-06
-1.82204e-06
-1.62727e-06
-1.40156e-06
-1.13931e-06
-8.42382e-07
-5.28598e-07
-2.35743e-07
-1.86499e-08
5.60687e-08
-5.44636e-08
-2.53958e-07
-4.16241e-07
-4.67158e-07
-3.56319e-07
-5.96114e-08
4.20594e-07
1.09989e-06
1.96902e-06
2.98035e-06
4.0961e-06
5.26613e-06
6.42043e-06
7.47811e-06
8.34961e-06
8.94404e-06
9.17278e-06
8.96189e-06
8.26547e-06
7.08116e-06
5.46291e-06
3.52605e-06
1.43615e-06
-5.24361e-06
-5.03477e-06
-4.76196e-06
-4.43772e-06
-4.0841e-06
-3.72615e-06
-3.38274e-06
-3.06992e-06
-2.79479e-06
-2.55465e-06
-2.34758e-06
-2.1626e-06
-1.98562e-06
-1.80382e-06
-1.60426e-06
-1.3771e-06
-1.11738e-06
-8.25327e-07
-5.18969e-07
-2.33147e-07
-1.82175e-08
6.4764e-08
-2.50965e-08
-1.99277e-07
-3.38946e-07
-3.74448e-07
-2.56541e-07
3.04755e-08
4.91812e-07
1.14465e-06
1.95368e-06
2.88082e-06
3.88771e-06
4.91912e-06
5.90577e-06
6.77057e-06
7.43466e-06
7.82064e-06
7.86316e-06
7.51733e-06
6.76841e-06
5.63959e-06
4.19464e-06
2.53284e-06
7.75505e-07
-4.93666e-06
-4.7643e-06
-4.5422e-06
-4.27576e-06
-3.97787e-06
-3.66603e-06
-3.35716e-06
-3.06546e-06
-2.79997e-06
-2.56076e-06
-2.34828e-06
-2.15511e-06
-1.96962e-06
-1.78079e-06
-1.57661e-06
-1.34851e-06
-1.0928e-06
-8.07204e-07
-5.10334e-07
-2.33919e-07
-2.31503e-08
6.7066e-08
-1.59107e-09
-1.49411e-07
-2.66136e-07
-2.85783e-07
-1.66389e-07
1.09148e-07
5.53682e-07
1.15903e-06
1.89597e-06
2.72854e-06
3.61359e-06
4.49501e-06
5.3075e-06
5.98184e-06
6.45082e-06
6.65471e-06
6.54944e-06
6.11295e-06
5.35025e-06
4.29553e-06
3.00969e-06
1.57267e-06
7.25726e-08
-4.61692e-06
-4.47532e-06
-4.29493e-06
-4.07755e-06
-3.8301e-06
-3.5641e-06
-3.29247e-06
-3.02706e-06
-2.77566e-06
-2.54679e-06
-2.33373e-06
-2.13392e-06
-1.94384e-06
-1.74983e-06
-1.54268e-06
-1.31543e-06
-1.06364e-06
-7.89746e-07
-5.05966e-07
-2.40733e-07
-3.66068e-08
5.92049e-08
1.1722e-08
-1.09221e-07
-2.03782e-07
-2.09021e-07
-8.99561e-08
1.72392e-07
5.84647e-07
1.13169e-06
1.7863e-06
2.51209e-06
3.26379e-06
3.98735e-06
4.62429e-06
5.11654e-06
5.40951e-06
5.46046e-06
5.24315e-06
4.75131e-06
4.00036e-06
3.02637e-06
1.88194e-06
6.29078e-07
-6.68229e-07
-4.2789e-06
-4.164e-06
-4.01863e-06
-3.84291e-06
-3.64014e-06
-3.41739e-06
-3.18377e-06
-2.94848e-06
-2.71912e-06
-2.50116e-06
-2.29385e-06
-2.09564e-06
-1.9031e-06
-1.70756e-06
-1.50124e-06
-1.27818e-06
-1.03348e-06
-7.74767e-07
-5.07842e-07
-2.5744e-07
-6.29403e-08
3.60456e-08
8.80762e-09
-8.56357e-08
-1.59062e-07
-1.53363e-07
-3.752e-08
2.04224e-07
5.72345e-07
1.05084e-06
1.61197e-06
2.21928e-06
2.82984e-06
3.39154e-06
3.85912e-06
4.18281e-06
4.32226e-06
4.24939e-06
3.95104e-06
3.4304e-06
2.70675e-06
1.81315e-06
7.92455e-07
-3.08276e-07
-1.44241e-06
-3.91806e-06
-3.82703e-06
-3.71186e-06
-3.57194e-06
-3.40853e-06
-3.22564e-06
-3.02925e-06
-2.82603e-06
-2.62197e-06
-2.42149e-06
-2.22612e-06
-2.03519e-06
-1.84611e-06
-1.65399e-06
-1.45313e-06
-1.2388e-06
-1.00806e-06
-7.65735e-07
-5.18972e-07
-2.88816e-07
-1.0791e-07
-9.10477e-09
-1.83523e-08
-8.78812e-08
-1.42417e-07
-1.29988e-07
-2.35109e-08
1.88468e-07
5.02794e-07
9.0245e-07
1.35976e-06
1.83936e-06
2.30228e-06
2.71035e-06
3.01868e-06
3.19156e-06
3.20165e-06
3.03208e-06
2.6782e-06
2.1478e-06
1.46002e-06
6.42814e-07
-2.70245e-07
-1.24395e-06
-2.2442e-06
-3.53085e-06
-3.46196e-06
-3.37372e-06
-3.26535e-06
-3.137e-06
-2.99073e-06
-2.83022e-06
-2.6599e-06
-2.48422e-06
-2.30647e-06
-2.12897e-06
-1.95227e-06
-1.77298e-06
-1.59034e-06
-1.40183e-06
-1.2018e-06
-9.89592e-07
-7.6897e-07
-5.47466e-07
-3.42007e-07
-1.79051e-07
-8.47064e-08
-7.98184e-08
-1.27739e-07
-1.6721e-07
-1.53432e-07
-6.41223e-08
1.08664e-07
3.59975e-07
6.72315e-07
1.0187e-06
1.36928e-06
1.69083e-06
1.94986e-06
2.11401e-06
2.15762e-06
2.06285e-06
1.82072e-06
1.43154e-06
9.04579e-07
2.56674e-07
-4.89806e-07
-1.30931e-06
-2.17581e-06
-3.06435e-06
-3.11435e-06
-3.06712e-06
-3.00418e-06
-2.92483e-06
-2.82871e-06
-2.7167e-06
-2.59094e-06
-2.45419e-06
-2.30958e-06
-2.15979e-06
-2.00567e-06
-1.8463e-06
-1.68617e-06
-1.52455e-06
-1.35401e-06
-1.17416e-06
-9.86347e-07
-7.93465e-07
-6.02383e-07
-4.26303e-07
-2.86042e-07
-2.01343e-07
-1.87808e-07
-2.19365e-07
-2.4936e-07
-2.41172e-07
-1.76835e-07
-5.13448e-08
1.28692e-07
3.48893e-07
5.85522e-07
8.10695e-07
9.98059e-07
1.12275e-06
1.16253e-06
1.09991e-06
9.23823e-07
6.30185e-07
2.21718e-07
-2.92766e-07
-8.99501e-07
-1.58134e-06
-2.31931e-06
-3.09437e-06
-3.88831e-06
-2.66655e-06
-2.64206e-06
-2.6046e-06
-2.55366e-06
-2.48875e-06
-2.41014e-06
-2.31892e-06
-2.21669e-06
-2.1053e-06
-1.98578e-06
-1.86041e-06
-1.73136e-06
-1.59941e-06
-1.46296e-06
-1.31766e-06
-1.16625e-06
-1.00984e-06
-8.50871e-07
-6.95509e-07
-5.53582e-07
-4.40909e-07
-3.71945e-07
-3.56974e-07
-3.79167e-07
-4.07034e-07
-4.11596e-07
-3.78774e-07
-3.05254e-07
-1.97844e-07
-7.01912e-08
5.92832e-08
1.68652e-07
2.37487e-07
2.4815e-07
1.86085e-07
4.04366e-08
-1.95116e-07
-5.22035e-07
-9.37037e-07
-1.4327e-06
-1.99838e-06
-2.62132e-06
-3.28776e-06
-3.98394e-06
-4.69664e-06
-2.18814e-06
-2.18912e-06
-2.1792e-06
-2.15808e-06
-2.12538e-06
-2.08108e-06
-2.02568e-06
-1.96004e-06
-1.88527e-06
-1.80256e-06
-1.71411e-06
-1.62094e-06
-1.52197e-06
-1.41758e-06
-1.30744e-06
-1.19269e-06
-1.0747e-06
-9.55793e-07
-8.41271e-07
-7.38022e-07
-6.57391e-07
-6.10435e-07
-6.0304e-07
-6.25887e-07
-6.59762e-07
-6.82589e-07
-6.81159e-07
-6.6054e-07
-6.26267e-07
-5.86185e-07
-5.53174e-07
-5.43329e-07
-5.72032e-07
-6.51701e-07
-7.91431e-07
-9.97286e-07
-1.27246e-06
-1.6171e-06
-2.02831e-06
-2.50039e-06
-3.02552e-06
-3.5945e-06
-4.1975e-06
-4.82469e-06
-5.46657e-06
-1.68644e-06
-1.71718e-06
-1.73855e-06
-1.75053e-06
-1.75293e-06
-1.74575e-06
-1.72924e-06
-1.70394e-06
-1.67056e-06
-1.62999e-06
-1.58307e-06
-1.53038e-06
-1.47228e-06
-1.40939e-06
-1.34207e-06
-1.27109e-06
-1.198e-06
-1.12483e-06
-1.05554e-06
-9.95071e-07
-9.50587e-07
-9.29844e-07
-9.39631e-07
-9.74709e-07
-1.01874e-06
-1.05872e-06
-1.09337e-06
-1.1254e-06
-1.15588e-06
-1.18992e-06
-1.23626e-06
-1.3056e-06
-1.40852e-06
-1.55355e-06
-1.74645e-06
-1.9906e-06
-2.28738e-06
-2.63634e-06
-3.0351e-06
-3.47959e-06
-3.96433e-06
-4.48292e-06
-5.02851e-06
-5.59418e-06
-6.17314e-06
-1.17118e-06
-1.23825e-06
-1.29698e-06
-1.34756e-06
-1.39011e-06
-1.42474e-06
-1.45166e-06
-1.4712e-06
-1.48379e-06
-1.48994e-06
-1.49017e-06
-1.48501e-06
-1.47499e-06
-1.46062e-06
-1.44248e-06
-1.4213e-06
-1.39831e-06
-1.37522e-06
-1.35438e-06
-1.33951e-06
-1.33509e-06
-1.3456e-06
-1.37865e-06
-1.42668e-06
-1.48393e-06
-1.54638e-06
-1.61623e-06
-1.69117e-06
-1.77158e-06
-1.86143e-06
-1.96616e-06
-2.09202e-06
-2.24549e-06
-2.43212e-06
-2.65572e-06
-2.91831e-06
-3.22048e-06
-3.5617e-06
-3.94027e-06
-4.35339e-06
-4.79733e-06
-5.26773e-06
-5.75996e-06
-6.26928e-06
-6.79091e-06
-6.53397e-07
-7.65783e-07
-8.70602e-07
-9.67986e-07
-1.05822e-06
-1.14159e-06
-1.21832e-06
-1.28867e-06
-1.3529e-06
-1.41133e-06
-1.46433e-06
-1.51229e-06
-1.55563e-06
-1.59474e-06
-1.63013e-06
-1.66232e-06
-1.6922e-06
-1.72071e-06
-1.7494e-06
-1.78041e-06
-1.81642e-06
-1.86377e-06
-1.92536e-06
-1.98853e-06
-2.05625e-06
-2.13896e-06
-2.23334e-06
-2.3363e-06
-2.44888e-06
-2.57375e-06
-2.71382e-06
-2.87232e-06
-3.05294e-06
-3.25924e-06
-3.49387e-06
-3.75817e-06
-4.05225e-06
-4.3756e-06
-4.72717e-06
-5.10536e-06
-5.50781e-06
-5.93163e-06
-6.3737e-06
-6.83084e-06
-7.2998e-06
-2.16333e-07
-3.77297e-07
-5.30773e-07
-6.77054e-07
-8.16543e-07
-9.49573e-07
-1.07637e-06
-1.19712e-06
-1.31199e-06
-1.42117e-06
-1.5249e-06
-1.62342e-06
-1.717e-06
-1.80587e-06
-1.8903e-06
-1.97063e-06
-2.04717e-06
-2.12063e-06
-2.19171e-06
-2.26086e-06
-2.33028e-06
-2.3977e-06
-2.48748e-06
-2.56899e-06
-2.65562e-06
-2.75289e-06
-2.85962e-06
-2.97563e-06
-3.1023e-06
-3.24129e-06
-3.39417e-06
-3.56274e-06
-3.74937e-06
-3.95643e-06
-4.18572e-06
-4.4383e-06
-4.7144e-06
-5.01362e-06
-5.33517e-06
-5.67803e-06
-6.04089e-06
-6.42199e-06
-6.8193e-06
-7.23069e-06
-7.65394e-06
1.12832e-07
-9.38352e-08
-2.92848e-07
-4.84445e-07
-6.68978e-07
-8.46729e-07
-1.01787e-06
-1.18252e-06
-1.34077e-06
-1.49272e-06
-1.63849e-06
-1.77821e-06
-1.91199e-06
-2.03993e-06
-2.16216e-06
-2.27875e-06
-2.38997e-06
-2.4961e-06
-2.5978e-06
-2.69713e-06
-2.7958e-06
-2.90192e-06
-2.98689e-06
-3.08082e-06
-3.17848e-06
-3.28107e-06
-3.39079e-06
-3.50915e-06
-3.6373e-06
-3.77649e-06
-3.92811e-06
-4.09369e-06
-4.27504e-06
-4.47381e-06
-4.69104e-06
-4.92729e-06
-5.18288e-06
-5.45781e-06
-5.75173e-06
-6.06402e-06
-6.39382e-06
-6.74006e-06
-7.10141e-06
-7.47641e-06
-7.86354e-06
3.39629e-07
9.40073e-08
-1.43396e-07
-3.72759e-07
-5.94339e-07
-8.08325e-07
-1.01481e-06
-1.21384e-06
-1.40544e-06
-1.58963e-06
-1.76647e-06
-1.93599e-06
-2.09823e-06
-2.2532e-06
-2.40094e-06
-2.54149e-06
-2.67501e-06
-2.80175e-06
-2.92239e-06
-3.03811e-06
-3.14988e-06
-3.25971e-06
-3.36302e-06
-3.46457e-06
-3.565e-06
-3.66767e-06
-3.77581e-06
-3.89143e-06
-4.01593e-06
-4.15064e-06
-4.29697e-06
-4.45624e-06
-4.62976e-06
-4.81863e-06
-5.02373e-06
-5.24565e-06
-5.48471e-06
-5.74095e-06
-6.01419e-06
-6.30414e-06
-6.61036e-06
-6.93219e-06
-7.26873e-06
-7.61894e-06
-7.9817e-06
4.97294e-07
2.19604e-07
-4.90616e-08
-3.08795e-07
-5.59751e-07
-8.02026e-07
-1.03564e-06
-1.26059e-06
-1.47684e-06
-1.68438e-06
-1.88322e-06
-2.07335e-06
-2.25479e-06
-2.42754e-06
-2.59164e-06
-2.74714e-06
-2.89422e-06
-3.03313e-06
-3.16444e-06
-3.28888e-06
-3.40782e-06
-3.52362e-06
-3.63388e-06
-3.73808e-06
-3.83932e-06
-3.94169e-06
-4.04831e-06
-4.16121e-06
-4.28197e-06
-4.4121e-06
-4.55308e-06
-4.70619e-06
-4.87252e-06
-5.05296e-06
-5.2482e-06
-5.45876e-06
-5.68502e-06
-5.92723e-06
-6.18553e-06
-6.45983e-06
-6.74984e-06
-7.05507e-06
-7.37491e-06
-7.70862e-06
-8.05542e-06
6.08736e-07
3.05432e-07
1.20781e-08
-2.71351e-07
-5.44927e-07
-8.08669e-07
-1.06254e-06
-1.30646e-06
-1.5404e-06
-1.76432e-06
-1.97822e-06
-2.18209e-06
-2.37598e-06
-2.55991e-06
-2.73399e-06
-2.89834e-06
-3.05321e-06
-3.19887e-06
-3.336e-06
-3.46515e-06
-3.58841e-06
-3.7074e-06
-3.82013e-06
-3.92592e-06
-4.0281e-06
-4.13048e-06
-4.23592e-06
-4.3466e-06
-4.4644e-06
-4.59096e-06
-4.72768e-06
-4.87572e-06
-5.03606e-06
-5.20959e-06
-5.39709e-06
-5.5992e-06
-5.81645e-06
-6.04918e-06
-6.29754e-06
-6.56149e-06
-6.84088e-06
-7.13544e-06
-7.44478e-06
-7.7684e-06
-8.10573e-06
6.89739e-07
3.66293e-07
5.37297e-08
-2.47915e-07
-5.38637e-07
-8.18382e-07
-1.08706e-06
-1.34459e-06
-1.59092e-06
-1.82603e-06
-2.04993e-06
-2.26265e-06
-2.46428e-06
-2.65492e-06
-2.83474e-06
-3.00398e-06
-3.16297e-06
-3.31211e-06
-3.45159e-06
-3.58372e-06
-3.70908e-06
-3.82947e-06
-3.94341e-06
-4.05032e-06
-4.15327e-06
-4.25578e-06
-4.36061e-06
-4.47002e-06
-4.58592e-06
-4.70992e-06
-4.8434e-06
-4.98759e-06
-5.1436e-06
-5.31242e-06
-5.49486e-06
-5.6916e-06
-5.90313e-06
-6.1298e-06
-6.37185e-06
-6.62937e-06
-6.90237e-06
-7.19075e-06
-7.49427e-06
-7.81256e-06
-8.14519e-06
7.49941e-07
4.10769e-07
8.33788e-08
-2.32141e-07
-5.35725e-07
-8.27268e-07
-1.10666e-06
-1.37381e-06
-1.62868e-06
-1.87129e-06
-2.10167e-06
-2.31991e-06
-2.52614e-06
-2.72055e-06
-2.90341e-06
-3.07504e-06
-3.23596e-06
-3.3873e-06
-3.52756e-06
-3.66047e-06
-3.78652e-06
-3.90742e-06
-4.02185e-06
-4.12947e-06
-4.23312e-06
-4.33602e-06
-4.44073e-06
-4.54948e-06
-4.66418e-06
-4.78651e-06
-4.91795e-06
-5.05979e-06
-5.21318e-06
-5.37911e-06
-5.5584e-06
-5.75173e-06
-5.95967e-06
-6.18267e-06
-6.42106e-06
-6.67508e-06
-6.94481e-06
-7.23024e-06
-7.53124e-06
-7.84753e-06
-8.1788e-06
7.95095e-07
4.43631e-07
1.04787e-07
-2.21311e-07
-5.34548e-07
-8.34785e-07
-1.1219e-06
-1.39583e-06
-1.65655e-06
-1.90409e-06
-2.13857e-06
-2.3601e-06
-2.56889e-06
-2.7652e-06
-2.94937e-06
-3.12181e-06
-3.28294e-06
-3.43293e-06
-3.57525e-06
-3.70838e-06
-3.83444e-06
-3.9552e-06
-4.06962e-06
-4.17764e-06
-4.28187e-06
-4.38515e-06
-4.48991e-06
-4.59837e-06
-4.71247e-06
-4.83392e-06
-4.9642e-06
-5.10465e-06
-5.25642e-06
-5.42052e-06
-5.59786e-06
-5.78918e-06
-5.99513e-06
-6.21624e-06
-6.45291e-06
-6.70544e-06
-6.974e-06
-7.25865e-06
-7.55933e-06
-7.87586e-06
-8.20798e-06
8.28651e-07
4.6749e-07
1.19714e-07
-2.14523e-07
-5.35062e-07
-8.41744e-07
-1.13445e-06
-1.41314e-06
-1.67782e-06
-1.92857e-06
-2.16551e-06
-2.38886e-06
-2.59888e-06
-2.79589e-06
-2.98033e-06
-3.15267e-06
-3.31355e-06
-3.4637e-06
-3.60493e-06
-3.73742e-06
-3.86293e-06
-3.98306e-06
-4.09705e-06
-4.20514e-06
-4.30968e-06
-4.41319e-06
-4.51803e-06
-4.62639e-06
-4.74019e-06
-4.86113e-06
-4.9907e-06
-5.13026e-06
-5.28102e-06
-5.44405e-06
-5.62029e-06
-5.81058e-06
-6.01561e-06
-6.23597e-06
-6.47213e-06
-6.72445e-06
-6.99317e-06
-7.27841e-06
-7.58017e-06
-7.89835e-06
-8.23272e-06
8.52897e-07
4.83974e-07
1.2913e-07
-2.11448e-07
-5.37572e-07
-8.49074e-07
-1.14586e-06
-1.42789e-06
-1.69522e-06
-1.94797e-06
-2.18631e-06
-2.41049e-06
-2.62085e-06
-2.8178e-06
-3.00183e-06
-3.17352e-06
-3.33365e-06
-3.48303e-06
-3.62303e-06
-3.75448e-06
-3.87902e-06
-3.99813e-06
-4.11133e-06
-4.21915e-06
-4.32366e-06
-4.42719e-06
-4.53202e-06
-4.64027e-06
-4.75384e-06
-4.8744e-06
-5.00347e-06
-5.14245e-06
-5.29257e-06
-5.45496e-06
-5.63063e-06
-5.82044e-06
-6.02516e-06
-6.24545e-06
-6.48181e-06
-6.73468e-06
-7.00436e-06
-7.29101e-06
-7.59469e-06
-7.91534e-06
-8.25278e-06
8.69596e-07
4.94353e-07
1.33827e-07
-2.11769e-07
-5.42226e-07
-8.57382e-07
-1.15716e-06
-1.44155e-06
-1.71063e-06
-1.96455e-06
-2.20355e-06
-2.42792e-06
-2.63807e-06
-2.83445e-06
-3.01764e-06
-3.18831e-06
-3.34728e-06
-3.4954e-06
-3.63408e-06
-3.76422e-06
-3.88748e-06
-4.00525e-06
-4.11736e-06
-4.22459e-06
-4.32877e-06
-4.43208e-06
-4.53672e-06
-4.64476e-06
-4.75804e-06
-4.87823e-06
-5.00688e-06
-5.14539e-06
-5.29504e-06
-5.45701e-06
-5.63235e-06
-5.82198e-06
-6.02673e-06
-6.24729e-06
-6.48425e-06
-6.73809e-06
-7.00915e-06
-7.29765e-06
-7.60368e-06
-7.92722e-06
-8.26812e-06
8.80249e-07
4.99769e-07
1.34591e-07
-2.15049e-07
-5.4893e-07
-8.66902e-07
-1.1689e-06
-1.45496e-06
-1.72516e-06
-1.97972e-06
-2.21889e-06
-2.44303e-06
-2.65259e-06
-2.8481e-06
-3.0302e-06
-3.1996e-06
-3.35718e-06
-3.50386e-06
-3.64104e-06
-3.76968e-06
-3.89146e-06
-4.00768e-06
-4.11848e-06
-4.22484e-06
-4.32842e-06
-4.43127e-06
-4.53554e-06
-4.64322e-06
-4.75612e-06
-4.87589e-06
-5.00408e-06
-5.14213e-06
-5.29136e-06
-5.45298e-06
-5.62809e-06
-5.81766e-06
-6.02257e-06
-6.24357e-06
-6.48131e-06
-6.73629e-06
-7.00891e-06
-7.29943e-06
-7.60798e-06
-7.93456e-06
-8.27904e-06
8.86163e-07
5.01263e-07
1.32203e-07
-2.20759e-07
-5.57402e-07
-8.77588e-07
-1.18128e-06
-1.46851e-06
-1.73942e-06
-1.99424e-06
-2.23327e-06
-2.45692e-06
-2.66568e-06
-2.86014e-06
-3.04098e-06
-3.20899e-06
-3.36508e-06
-3.51024e-06
-3.64581e-06
-3.77283e-06
-3.893e-06
-4.00754e-06
-4.11686e-06
-4.22214e-06
-4.32491e-06
-4.42712e-06
-4.53086e-06
-4.63803e-06
-4.75042e-06
-4.86967e-06
-4.99735e-06
-5.13491e-06
-5.28369e-06
-5.44496e-06
-5.61984e-06
-5.80938e-06
-6.01448e-06
-6.23596e-06
-6.4745e-06
-6.73065e-06
-7.00485e-06
-7.2974e-06
-7.60846e-06
-7.93805e-06
-8.28607e-06
8.88454e-07
4.99762e-07
1.27407e-07
-2.28339e-07
-5.67257e-07
-8.89225e-07
-1.19422e-06
-1.4823e-06
-1.75363e-06
-2.00847e-06
-2.24717e-06
-2.47018e-06
-2.67802e-06
-2.87134e-06
-3.05087e-06
-3.21743e-06
-3.37199e-06
-3.51559e-06
-3.64951e-06
-3.77488e-06
-3.89338e-06
-4.00617e-06
-4.11392e-06
-4.21799e-06
-4.31979e-06
-4.42122e-06
-4.52428e-06
-4.63082e-06
-4.74259e-06
-4.86124e-06
-4.98832e-06
-5.12532e-06
-5.27362e-06
-5.43449e-06
-5.60912e-06
-5.79858e-06
-6.00385e-06
-6.22576e-06
-6.46505e-06
-6.72231e-06
-6.99803e-06
-7.29252e-06
-7.60597e-06
-7.93843e-06
-8.2898e-06
8.88062e-07
4.96069e-07
1.20873e-07
-2.37248e-07
-5.78079e-07
-9.0151e-07
-1.20753e-06
-1.49623e-06
-1.7678e-06
-2.02252e-06
-2.26078e-06
-2.48306e-06
-2.68994e-06
-2.88209e-06
-3.0603e-06
-3.22542e-06
-3.37846e-06
-3.5205e-06
-3.6528e-06
-3.77652e-06
-3.89334e-06
-4.00438e-06
-4.11052e-06
-4.21329e-06
-4.31404e-06
-4.41459e-06
-4.51687e-06
-4.62268e-06
-4.73375e-06
-4.85171e-06
-4.97814e-06
-5.11452e-06
-5.26227e-06
-5.42269e-06
-5.59702e-06
-5.78636e-06
-5.99172e-06
-6.21399e-06
-6.45395e-06
-6.71222e-06
-6.98932e-06
-7.28559e-06
-7.60127e-06
-7.9364e-06
-8.29089e-06
8.85766e-07
4.90875e-07
1.132e-07
-2.46974e-07
-5.8944e-07
-9.14098e-07
-1.22095e-06
-1.51012e-06
-1.7818e-06
-2.03631e-06
-2.27408e-06
-2.49561e-06
-2.70152e-06
-2.89252e-06
-3.06944e-06
-3.23317e-06
-3.38474e-06
-3.52526e-06
-3.656e-06
-3.77811e-06
-3.89331e-06
-4.00262e-06
-4.10716e-06
-4.2086e-06
-4.30825e-06
-4.40787e-06
-4.50931e-06
-4.61433e-06
-4.72464e-06
-4.84186e-06
-4.96758e-06
-5.10331e-06
-5.25047e-06
-5.4104e-06
-5.58437e-06
-5.77352e-06
-5.97891e-06
-6.20146e-06
-6.44197e-06
-6.70112e-06
-6.97945e-06
-7.27734e-06
-7.59503e-06
-7.93259e-06
-8.28995e-06
8.822e-07
4.84753e-07
1.04905e-07
-2.57057e-07
-6.00932e-07
-9.2663e-07
-1.23417e-06
-1.52369e-06
-1.7954e-06
-2.04967e-06
-2.28692e-06
-2.50771e-06
-2.71269e-06
-2.9026e-06
-3.07829e-06
-3.24069e-06
-3.39087e-06
-3.52996e-06
-3.65919e-06
-3.77982e-06
-3.89346e-06
-4.00112e-06
-4.1041e-06
-4.20423e-06
-4.30279e-06
-4.40145e-06
-4.50202e-06
-4.60623e-06
-4.71575e-06
-4.83221e-06
-4.9572e-06
-5.09224e-06
-5.23878e-06
-5.3982e-06
-5.57177e-06
-5.76069e-06
-5.96603e-06
-6.18877e-06
-6.42973e-06
-6.68964e-06
-6.96904e-06
-7.26836e-06
-7.58784e-06
-7.92759e-06
-8.28752e-06
8.77741e-07
4.78011e-07
9.62352e-08
-2.67303e-07
-6.12407e-07
-9.39e-07
-1.24711e-06
-1.53689e-06
-1.8086e-06
-2.06258e-06
-2.29932e-06
-2.5194e-06
-2.72348e-06
-2.91234e-06
-3.08687e-06
-3.24803e-06
-3.39689e-06
-3.53462e-06
-3.66242e-06
-3.7817e-06
-3.89384e-06
-3.99994e-06
-4.10141e-06
-4.20027e-06
-4.29774e-06
-4.39545e-06
-4.49515e-06
-4.59852e-06
-4.70724e-06
-4.82293e-06
-4.94718e-06
-5.08152e-06
-5.22743e-06
-5.38629e-06
-5.55944e-06
-5.74807e-06
-5.95332e-06
-6.17616e-06
-6.41749e-06
-6.67802e-06
-6.95836e-06
-7.25893e-06