/*--------------------------------*- C++ -*----------------------------------*\
| =========                 |                                                 |
| \\      /  F ield         | OpenFOAM: The Open Source CFD Toolbox           |
|  \\    /   O peration     | Version:  2312                                  |
|   \\  /    A nd           | Website:  www.openfoam.com                      |
|    \\/     M anipulation  |                                                 |
\*---------------------------------------------------------------------------*/
FoamFile
{
    version     2.0;
    format      ascii;
    arch        "LSB;label=32;scalar=64";
    class       surfaceScalarField;
    location    "71";
    object      phi;
}
// * * * * * * * * * * * * * * * * * * * * * * * * * * * * * * * * * * * * * //

dimensions      [0 3 -1 0 0 0 0];

oriented        oriented;

internalField   nonuniform List<scalar> 
9445
(
5.88912e-10
1.76943e-11
5.7699e-10
1.19217e-11
5.68915e-10
8.07556e-12
5.63584e-10
5.33091e-12
5.60323e-10
3.26139e-12
5.5871e-10
1.61288e-12
5.58544e-10
1.65489e-13
5.59803e-10
-1.25896e-12
5.62415e-10
-2.61191e-12
5.6676e-10
-4.34452e-12
5.73957e-10
-7.19784e-12
5.87487e-10
-1.35297e-11
6.19569e-10
-3.20821e-11
7.1299e-10
-9.34205e-11
-2.43679e-10
9.56669e-10
2.05169e-09
7.80192e-11
2.01089e-09
5.27231e-11
1.98311e-09
3.58572e-11
1.96459e-09
2.38495e-11
1.953e-09
1.48482e-11
1.94689e-09
7.72439e-12
1.94552e-09
1.54061e-12
1.94856e-09
-4.29728e-12
1.95589e-09
-9.94364e-12
1.9687e-09
-1.71533e-11
1.98976e-09
-2.82631e-11
2.02571e-09
-4.9475e-11
2.08963e-09
-9.60007e-11
2.19395e-09
-1.97746e-10
-3.54267e-10
2.30454e-09
4.04345e-09
1.94054e-10
3.96473e-09
1.31445e-10
3.9109e-09
8.96905e-11
3.87472e-09
6.00301e-11
3.85167e-09
3.79011e-11
3.83885e-09
2.05375e-11
3.83475e-09
5.64649e-12
3.83845e-09
-7.9979e-12
3.84958e-09
-2.10794e-11
3.86966e-09
-3.72317e-11
3.90133e-09
-5.9929e-11
3.94896e-09
-9.71083e-11
4.01525e-09
-1.6229e-10
4.08693e-09
-2.69428e-10
-3.95502e-10
4.12817e-09
6.70971e-09
3.80784e-10
6.58247e-09
2.58694e-10
6.49497e-09
1.77187e-10
6.4356e-09
1.19401e-10
6.39702e-09
7.64839e-11
6.37445e-09
4.3105e-11
6.36515e-09
1.49482e-11
6.36732e-09
-1.0174e-11
6.37998e-09
-3.37359e-11
6.40388e-09
-6.11292e-11
6.43985e-09
-9.59046e-11
6.48732e-09
-1.4458e-10
6.53991e-09
-2.14877e-10
6.57826e-09
-3.07777e-10
-3.97708e-10
6.58047e-09
1.02277e-08
6.54019e-10
1.00402e-08
4.46141e-10
9.91041e-09
3.07013e-10
9.82132e-09
2.0849e-10
9.76218e-09
1.35621e-10
9.72585e-09
7.94412e-11
9.70779e-09
3.29988e-11
9.70502e-09
-7.40044e-12
9.71557e-09
-4.42842e-11
9.73819e-09
-8.37454e-11
9.77113e-09
-1.2885e-10
9.80964e-09
-1.83089e-10
9.84331e-09
-2.48551e-10
9.85573e-09
-3.20189e-10
-3.79195e-10
9.83721e-09
1.48085e-08
1.02773e-09
1.45495e-08
7.05082e-10
1.43684e-08
4.88101e-10
1.42425e-08
3.34402e-10
1.41571e-08
2.21094e-10
1.41021e-08
1.34431e-10
1.40708e-08
6.42739e-11
1.40585e-08
4.88453e-12
1.40619e-08
-4.76694e-11
1.40773e-08
-9.9167e-11
1.41004e-08
-1.51974e-10
1.41244e-08
-2.07089e-10
1.41392e-08
-2.63269e-10
1.41339e-08
-3.14902e-10
-3.51455e-10
1.41061e-08
2.06957e-08
1.50878e-09
2.03575e-08
1.04336e-09
2.01178e-08
7.27782e-10
1.99485e-08
5.0366e-10
1.98309e-08
3.38704e-10
1.9752e-08
2.13367e-10
1.97024e-08
1.13845e-10
1.96755e-08
3.1844e-11
1.96659e-08
-3.81006e-11
1.9668e-08
-1.01325e-10
1.96759e-08
-1.59827e-10
1.96823e-08
-2.13531e-10
1.96797e-08
-2.60595e-10
1.96622e-08
-2.97461e-10
-3.1978e-10
1.96305e-08
2.81587e-08
2.0885e-09
2.77421e-08
1.45997e-09
2.74416e-08
1.02826e-09
2.72254e-08
7.19833e-10
2.70715e-08
4.92637e-10
2.69641e-08
3.20774e-10
2.68915e-08
1.86466e-10
2.68448e-08
7.85343e-11
2.68169e-08
-1.01671e-11
2.68006e-08
-8.50921e-11
2.67894e-08
-1.48602e-10
2.6777e-08
-2.01083e-10
2.67583e-08
-2.419e-10
2.67309e-08
-2.70093e-10
-2.85055e-10
2.66962e-08
3.74795e-08
2.73256e-09
3.70018e-08
1.93766e-09
3.66488e-08
1.38128e-09
3.6389e-08
9.79683e-10
3.6199e-08
6.82603e-10
3.60616e-08
4.58225e-10
3.59631e-08
2.84873e-10
3.58932e-08
1.48435e-10
3.58432e-08
3.98447e-11
3.58054e-08
-4.72641e-11
3.57733e-08
-1.16537e-10
3.5742e-08
-1.69765e-10
3.57084e-08
-2.08236e-10
3.56715e-08
-2.33192e-10
-2.46091e-10
3.56325e-08
4.89434e-08
3.3767e-09
4.84439e-08
2.43717e-09
4.80623e-08
1.76288e-09
4.77733e-08
1.26873e-09
4.75557e-08
9.0022e-10
4.73925e-08
6.21368e-10
4.727e-08
4.0734e-10
4.71771e-08
2.41377e-10
4.71047e-08
1.12244e-10
4.70451e-08
1.23009e-11
4.69931e-08
-6.44532e-11
4.69444e-08
-1.2115e-10
4.68973e-08
-1.61117e-10
4.68513e-08
-1.87142e-10
-2.01801e-10
4.6807e-08
6.28545e-08
3.94196e-09
6.23895e-08
2.90226e-09
6.20184e-08
2.13392e-09
6.17271e-08
1.56002e-09
6.15002e-08
1.1271e-09
6.13238e-08
7.97815e-10
6.11856e-08
5.45564e-10
6.10754e-08
3.51595e-10
6.09849e-08
2.02686e-10
6.0908e-08
8.9176e-11
6.08399e-08
3.72573e-12
6.07777e-08
-5.90022e-11
6.07201e-08
-1.03497e-10
6.06666e-08
-1.33646e-10
-1.52629e-10
6.06174e-08
7.96057e-08
4.37549e-09
7.92239e-08
3.28411e-09
7.89034e-08
2.45442e-09
7.8641e-08
1.82242e-09
7.84285e-08
1.33956e-09
7.82566e-08
9.69693e-10
7.81163e-08
6.85887e-10
7.79997e-08
4.68209e-10
7.79005e-08
3.01864e-10
7.78141e-08
1.75619e-10
7.7737e-08
8.07955e-11
7.76675e-08
1.05251e-11
7.76042e-08
-4.02684e-11
7.75469e-08
-7.63082e-11
-1.01053e-10
7.74953e-08
9.97802e-08
4.68569e-09
9.94912e-08
3.57309e-09
9.92371e-08
2.70853e-09
9.90202e-08
2.03929e-09
9.88374e-08
1.52232e-09
9.86835e-08
1.12362e-09
9.85528e-08
8.16628e-10
9.84401e-08
5.80827e-10
9.83416e-08
4.00393e-10
9.82542e-08
2.63019e-10
9.81759e-08
1.59106e-10
9.81054e-08
8.10785e-11
9.8042e-08
2.30419e-11
9.79853e-08
-1.95347e-11
-5.06238e-11
9.79348e-08
1.24153e-07
4.9184e-09
1.23929e-07
3.79709e-09
1.23725e-07
2.91229e-09
1.23545e-07
2.21928e-09
1.23388e-07
1.67951e-09
1.23251e-07
1.2608e-09
1.2313e-07
9.37044e-10
1.23024e-07
6.87378e-10
1.22929e-07
4.95371e-10
1.22844e-07
3.48086e-10
1.22768e-07
2.35442e-10
1.22699e-07
1.49489e-10
1.22638e-07
8.40818e-11
1.22584e-07
3.43784e-11
-3.28732e-12
1.22537e-07
1.53479e-07
5.09339e-09
1.533e-07
3.97646e-09
1.53128e-07
3.08406e-09
1.52969e-07
2.37791e-09
1.52825e-07
1.82364e-09
1.52695e-07
1.39093e-09
1.52578e-07
1.05439e-09
1.52472e-07
7.93182e-10
1.52377e-07
5.90703e-10
1.52291e-07
4.33801e-10
1.52214e-07
3.12182e-10
1.52146e-07
2.17791e-10
1.52086e-07
1.44402e-10
1.52033e-07
8.71276e-11
4.22006e-11
1.51987e-07
1.88222e-07
5.18925e-09
1.881e-07
4.0986e-09
1.87967e-07
3.21721e-09
1.87833e-07
2.51228e-09
1.87703e-07
1.95386e-09
1.87579e-07
1.51434e-09
1.87464e-07
1.16944e-09
1.87358e-07
8.99327e-10
1.87261e-07
6.87661e-10
1.87173e-07
5.21624e-10
1.87094e-07
3.90987e-10
1.87024e-07
2.87803e-10
1.86963e-07
2.05871e-10
1.8691e-07
1.40336e-10
8.7487e-11
1.86864e-07
2.28444e-07
5.18041e-09
2.28401e-07
4.14142e-09
2.28326e-07
3.29282e-09
2.28231e-07
2.60639e-09
2.28128e-07
2.057e-09
2.28023e-07
1.61994e-09
2.27919e-07
1.27329e-09
2.2782e-07
9.98477e-10
2.27727e-07
7.80468e-10
2.27642e-07
6.0687e-10
2.27565e-07
4.68013e-10
2.27496e-07
3.56389e-10
2.27436e-07
2.65917e-10
2.27384e-07
1.91941e-10
1.3083e-10
2.27341e-07
2.7369e-07
5.05737e-09
2.73738e-07
4.0936e-09
2.73732e-07
3.29888e-09
2.7369e-07
2.64828e-09
2.73625e-07
2.12137e-09
2.73548e-07
1.69707e-09
2.73465e-07
1.35637e-09
2.73381e-07
1.08257e-09
2.733e-07
8.61913e-10
2.73223e-07
6.83361e-10
2.73153e-07
5.38031e-10
2.73091e-07
4.18755e-10
2.73037e-07
3.20071e-10
2.72991e-07
2.37518e-10
1.6812e-10
2.72954e-07
3.22551e-07
4.80941e-09
3.227e-07
3.94454e-09
3.22776e-07
3.22365e-09
3.22798e-07
2.62601e-09
3.22784e-07
2.1356e-09
3.22745e-07
1.73541e-09
3.22692e-07
1.40914e-09
3.22632e-07
1.14281e-09
3.2257e-07
9.24558e-10
3.22508e-07
7.44752e-10
3.22451e-07
5.95361e-10
3.22399e-07
4.70288e-10
3.22355e-07
3.64281e-10
3.22319e-07
2.73511e-10
1.95247e-10
3.22292e-07
3.71916e-07
4.41701e-09
3.72187e-07
3.67367e-09
3.72365e-07
3.04572e-09
3.72473e-07
2.51787e-09
3.7253e-07
2.07835e-09
3.72552e-07
1.71391e-09
3.72549e-07
1.41179e-09
3.72531e-07
1.16062e-09
3.72505e-07
9.50682e-10
3.72476e-07
7.7405e-10
3.72447e-07
6.24231e-10
3.72421e-07
4.96081e-10
3.724e-07
3.85216e-10
3.72386e-07
2.88095e-10
2.01955e-10
3.72379e-07
3.69558e-07
3.96067e-09
3.69894e-07
3.33742e-09
3.70136e-07
2.80362e-09
3.70305e-07
2.34852e-09
3.7042e-07
1.9639e-09
3.70494e-07
1.63969e-09
3.7054e-07
1.36604e-09
3.70566e-07
1.13409e-09
3.70581e-07
9.36241e-10
3.70589e-07
7.66169e-10
3.70594e-07
6.18601e-10
3.70601e-07
4.8921e-10
3.70612e-07
3.74601e-10
3.70628e-07
2.72096e-10
1.80068e-10
3.7065e-07
3.17014e-07
3.46552e-09
3.17392e-07
2.9589e-09
3.17678e-07
2.51779e-09
3.1789e-07
2.13677e-09
3.18044e-07
1.80987e-09
3.18154e-07
1.52974e-09
3.18231e-07
1.28898e-09
3.18284e-07
1.08099e-09
3.1832e-07
9.00024e-10
3.18345e-07
7.41258e-10
3.18363e-07
6.00717e-10
3.18377e-07
4.75152e-10
3.1839e-07
3.6185e-10
3.18403e-07
2.58556e-10
1.63244e-10
3.1842e-07
2.65456e-07
2.99631e-09
2.65832e-07
2.58336e-09
2.6613e-07
2.21904e-09
2.66366e-07
1.9009e-09
2.66552e-07
1.62415e-09
2.66698e-07
1.38343e-09
2.66814e-07
1.17309e-09
2.66907e-07
9.8835e-10
2.66982e-07
8.24701e-10
2.67045e-07
6.78579e-10
2.67099e-07
5.46714e-10
2.67147e-07
4.27063e-10
2.67192e-07
3.16729e-10
2.67236e-07
2.14655e-10
1.19461e-10
2.6728e-07
2.18802e-07
2.5513e-09
2.19168e-07
2.21713e-09
2.19468e-07
1.91912e-09
2.19713e-07
1.65576e-09
2.19914e-07
1.42373e-09
2.20078e-07
1.21889e-09
2.20214e-07
1.03716e-09
2.20328e-07
8.74844e-10
2.20423e-07
7.28722e-10
2.20506e-07
5.96035e-10
2.20578e-07
4.74506e-10
2.20643e-07
3.62296e-10
2.20702e-07
2.57817e-10
2.20757e-07
1.59942e-10
6.77606e-11
2.20808e-07
1.78009e-07
2.13034e-09
1.78362e-07
1.86336e-09
1.78659e-07
1.62287e-09
1.78907e-07
1.40786e-09
1.79114e-07
1.21592e-09
1.79289e-07
1.04401e-09
1.79437e-07
8.8913e-10
1.79563e-07
7.48689e-10
1.79672e-07
6.20308e-10
1.79766e-07
5.02052e-10
1.79848e-07
3.92281e-10
1.79921e-07
2.89586e-10
1.79985e-07
1.93075e-10
1.80044e-07
1.0158e-10
1.46337e-11
1.80097e-07
1.43232e-07
1.7405e-09
1.43565e-07
1.53068e-09
1.43848e-07
1.33975e-09
1.44089e-07
1.16708e-09
1.44294e-07
1.01085e-09
1.44469e-07
8.68889e-10
1.44619e-07
7.39158e-10
1.44748e-07
6.19798e-10
1.44859e-07
5.09223e-10
1.44955e-07
4.06073e-10
1.45038e-07
3.09199e-10
1.4511e-07
2.17585e-10
1.45173e-07
1.30726e-10
1.45226e-07
4.79141e-11
-3.11835e-11
1.45272e-07
1.14119e-07
1.39064e-09
1.14421e-07
1.22886e-09
1.14681e-07
1.08007e-09
1.14904e-07
9.43945e-10
1.15096e-07
8.19094e-10
1.1526e-07
7.04057e-10
1.15402e-07
5.97483e-10
1.15524e-07
4.98158e-10
1.15628e-07
4.05017e-10
1.15717e-07
3.17188e-10
1.15792e-07
2.33902e-10
1.15855e-07
1.54549e-10
1.15907e-07
7.86611e-11
1.15949e-07
6.31477e-12
-6.32718e-11
1.15981e-07
9.00659e-08
1.08705e-09
9.03299e-08
9.64898e-10
9.05586e-08
8.51342e-10
9.07564e-08
7.46211e-10
9.0927e-08
6.48461e-10
9.10739e-08
5.57176e-10
9.11998e-08
4.71531e-10
9.13072e-08
3.90777e-10
9.1398e-08
3.1427e-10
9.14737e-08
2.41439e-10
9.15358e-08
1.71845e-10
9.15852e-08
1.05121e-10
9.16228e-08
4.10398e-11
9.16493e-08
-2.02137e-11
-7.93609e-11
9.16654e-08
7.03965e-08
8.3169e-10
7.06199e-08
7.41539e-10
7.08144e-08
6.56858e-10
7.09831e-08
5.7749e-10
7.11289e-08
5.02671e-10
7.12541e-08
4.31903e-10
7.13609e-08
3.64732e-10
7.1451e-08
3.00736e-10
7.15257e-08
2.3955e-10
7.15863e-08
1.80826e-10
7.16338e-08
1.24383e-10
7.16689e-08
7.00326e-11
7.16923e-08
1.7575e-11
7.17047e-08
-3.26099e-11
-8.11996e-11
7.17066e-08
5.44534e-08
6.22614e-10
5.46372e-08
5.5774e-10
5.47978e-08
4.96212e-10
5.49375e-08
4.37776e-10
5.50583e-08
3.81929e-10
5.51617e-08
3.28465e-10
5.52493e-08
2.7717e-10
5.53222e-08
2.27834e-10
5.53814e-08
1.80272e-10
5.54279e-08
1.34341e-10
5.54624e-08
8.99369e-11
5.54854e-08
4.70182e-11
5.54975e-08
5.5062e-12
5.54992e-08
-3.43284e-11
-7.29347e-11
5.54909e-08
4.16365e-08
4.55359e-10
4.17843e-08
4.09983e-10
4.19139e-08
3.66572e-10
4.20269e-08
3.24731e-10
4.21247e-08
2.84201e-10
4.22082e-08
2.44958e-10
4.22784e-08
2.06925e-10
4.23362e-08
1.70023e-10
4.23823e-08
1.34187e-10
4.24173e-08
9.93688e-11
4.24417e-08
6.55678e-11
4.24559e-08
3.27708e-11
4.24604e-08
1.02603e-12
4.24556e-08
-2.95704e-11
-5.92439e-11
4.24419e-08
3.14161e-08
3.24289e-10
3.15325e-08
2.93577e-10
3.16351e-08
2.63963e-10
3.17249e-08
2.3494e-10
3.18026e-08
2.06463e-10
3.1869e-08
1.78589e-10
3.19246e-08
1.51315e-10
3.197e-08
1.24636e-10
3.20056e-08
9.85485e-11
3.20319e-08
7.30665e-11
3.20493e-08
4.82169e-11
3.2058e-08
2.40405e-11
3.20584e-08
6.14807e-13
3.20509e-08
-2.20314e-11
-4.40752e-11
3.20357e-08
2.33332e-08
2.23598e-10
2.34232e-08
2.03611e-10
2.35029e-08
1.8419e-10
2.35731e-08
1.64801e-10
2.3634e-08
1.45546e-10
2.36861e-08
1.265e-10
2.37297e-08
1.07693e-10
2.37652e-08
8.91515e-11
2.37928e-08
7.09047e-11
2.38129e-08
5.2987e-11
2.38257e-08
3.54349e-11
2.38314e-08
1.83107e-11
2.38303e-08
1.71261e-12
2.38226e-08
-1.43436e-11
-3.01209e-11
2.38087e-08
1.69956e-08
1.47895e-10
1.70638e-08
1.35501e-10
1.71246e-08
1.23362e-10
1.71784e-08
1.10999e-10
1.72253e-08
9.85858e-11
1.72657e-08
8.61796e-11
1.72995e-08
7.38184e-11
1.73272e-08
6.15401e-11
1.73487e-08
4.93807e-11
1.73643e-08
3.73787e-11
1.73742e-08
2.55666e-11
1.73785e-08
1.40024e-11
1.73774e-08
2.78281e-12
1.7371e-08
-7.99936e-12
-1.88044e-11
1.73597e-08
1.20719e-08
9.24534e-11
1.21221e-08
8.5229e-11
1.21674e-08
7.80986e-11
1.22077e-08
7.06855e-11
1.22431e-08
6.31667e-11
1.22737e-08
5.55737e-11
1.22996e-08
4.79408e-11
1.23208e-08
4.03021e-11
1.23375e-08
3.269e-11
1.23498e-08
2.5138e-11
1.23577e-08
1.76723e-11
1.23613e-08
1.03384e-11
1.23609e-08
3.166e-12
1.23565e-08
-3.59549e-12
-1.05355e-11
1.23483e-08
8.28411e-09
5.32587e-11
8.31995e-09
4.9387e-11
8.3525e-09
4.55463e-11
8.38172e-09
4.14725e-11
8.40758e-09
3.7301e-11
8.43011e-09
3.30425e-11
8.44933e-09
2.87229e-11
8.46527e-09
2.43668e-11
8.47796e-09
1.99983e-11
8.48745e-09
1.56422e-11
8.49381e-09
1.13172e-11
8.49709e-09
7.05696e-12
8.49743e-09
2.82947e-12
8.49489e-09
-1.05985e-12
-5.1188e-12
8.48947e-09
5.40203e-09
2.69587e-11
5.42629e-09
2.51257e-11
5.44852e-09
2.33177e-11
5.46862e-09
2.1365e-11
5.48658e-09
1.93452e-11
5.50236e-09
1.72589e-11
5.51596e-09
1.51224e-11
5.52738e-09
1.29504e-11
5.53662e-09
1.07577e-11
5.5437e-09
8.55965e-12
5.54865e-09
6.36774e-12
5.55151e-09
4.2019e-12
5.55231e-09
2.02164e-12
5.5512e-09
5.30997e-14
-2.01197e-12
5.5481e-09
3.23617e-09
1.07757e-11
3.25122e-09
1.00719e-11
3.26514e-09
9.40675e-12
3.27782e-09
8.67811e-12
3.28925e-09
7.91388e-12
3.2994e-09
7.11333e-12
3.30824e-09
6.28427e-12
3.31575e-09
5.43378e-12
3.32194e-09
4.56877e-12
3.32681e-09
3.69662e-12
3.33035e-09
2.82302e-12
3.3326e-09
1.95756e-12
3.33354e-09
1.07199e-12
3.33331e-09
2.86064e-13
-5.35927e-13
3.33184e-09
1.63218e-09
2.41678e-12
1.64001e-09
2.24562e-12
1.6473e-09
2.11513e-12
1.65401e-09
1.97009e-12
1.66011e-09
1.81313e-12
1.66558e-09
1.64459e-12
1.6704e-09
1.46683e-12
1.67455e-09
1.282e-12
1.67803e-09
1.09207e-12
1.68082e-09
8.99123e-13
1.68294e-09
7.0484e-13
1.68439e-09
5.12911e-13
1.68515e-09
3.09407e-13
1.6853e-09
1.37164e-13
-4.29835e-14
1.6848e-09
4.65362e-10
4.67608e-10
4.69723e-10
4.71693e-10
4.73506e-10
4.75151e-10
4.76618e-10
4.779e-10
4.78992e-10
4.79891e-10
4.80596e-10
4.81109e-10
4.81418e-10
4.81555e-10
4.81512e-10
1.14139e-09
-4.73444e-10
2.88722e-10
1.40483e-09
-4.0863e-10
1.45196e-10
1.66924e-09
-2.75426e-10
1.10164e-11
1.9289e-09
-1.31921e-10
-1.27744e-10
2.18269e-09
1.96285e-11
-2.73422e-10
2.43187e-09
1.74858e-10
-4.24034e-10
2.67842e-09
3.34893e-10
-5.81445e-10
2.92403e-09
5.01634e-10
-7.47242e-10
3.17003e-09
6.76959e-10
-9.22962e-10
3.41746e-09
8.62664e-10
-1.11009e-09
3.66712e-09
1.06065e-09
-1.31031e-09
3.91979e-09
1.27305e-09
-1.52572e-09
4.17643e-09
1.50235e-09
-1.75899e-09
4.43831e-09
1.75193e-09
-2.01381e-09
4.70718e-09
2.02559e-09
-2.29446e-09
4.98559e-09
2.32638e-09
-2.60478e-09
5.2771e-09
2.65515e-09
-2.94667e-09
5.58668e-09
3.00842e-09
-3.318e-09
5.92075e-09
3.37193e-09
-3.70599e-09
6.28686e-09
3.7086e-09
-4.07471e-09
6.69131e-09
3.93033e-09
-4.33478e-09
7.13425e-09
3.85901e-09
-4.30195e-09
7.53563e-09
2.76505e-09
-3.16643e-09
7.85995e-09
1.31718e-09
-1.64149e-09
8.10558e-09
-7.40491e-11
-1.7158e-10
8.27647e-09
-1.3314e-09
1.16051e-09
8.37935e-09
-2.40773e-09
2.30484e-09
8.42073e-09
-3.27454e-09
3.23316e-09
8.40612e-09
-3.93008e-09
3.94469e-09
8.3405e-09
-4.38746e-09
4.45309e-09
8.22845e-09
-4.66034e-09
4.77238e-09
8.07428e-09
-4.76047e-09
4.91464e-09
7.88212e-09
-4.69874e-09
4.8909e-09
7.65589e-09
-4.486e-09
4.71223e-09
7.39918e-09
-4.13367e-09
4.39037e-09
7.11507e-09
-3.65358e-09
3.93769e-09
6.80596e-09
-3.05698e-09
3.3661e-09
6.47358e-09
-2.35266e-09
2.68504e-09
6.11916e-09
-1.54437e-09
1.89878e-09
5.7429e-09
-6.29223e-10
1.00548e-09
5.33933e-09
3.95874e-10
7.6997e-12
4.89409e-09
1.51168e-09
-1.06644e-09
4.37875e-09
2.60469e-09
-2.08935e-09
3.79357e-09
3.40157e-09
-2.81639e-09
3.14624e-09
3.44106e-09
-2.79373e-09
2.37538e-09
-5.44282e-10
2.52907e-09
-5.62325e-10
2.73867e-09
-4.85028e-10
2.9732e-09
-3.66446e-10
3.21967e-09
-2.2684e-10
3.47166e-09
-7.71293e-11
3.72715e-09
7.94008e-11
3.98572e-09
2.43065e-10
4.24757e-09
4.15107e-10
4.51314e-09
5.97097e-10
4.78292e-09
7.90864e-10
5.05757e-09
9.98402e-10
5.33802e-09
1.2219e-09
5.62557e-09
1.46438e-09
5.92207e-09
1.72909e-09
6.23019e-09
2.01826e-09
6.55371e-09
2.33163e-09
6.89781e-09
2.66432e-09
7.26914e-09
3.0006e-09
7.67548e-09
3.30225e-09
8.12322e-09
3.48259e-09
8.61225e-09
3.36998e-09
9.05501e-09
2.32229e-09
9.41322e-09
9.58964e-10
9.68535e-09
-3.46179e-10
9.8757e-09
-1.52175e-09
9.99164e-09
-2.52366e-09
1.00402e-08
-3.32315e-09
1.00276e-08
-3.91744e-09
9.95937e-09
-4.31923e-09
9.84091e-09
-4.54187e-09
9.67741e-09
-4.59697e-09
9.47401e-09
-4.49534e-09
9.23585e-09
-4.24783e-09
8.96798e-09
-3.8658e-09
8.67537e-09
-3.36097e-09
8.36305e-09
-2.74466e-09
8.03662e-09
-2.02623e-09
7.70358e-09
-1.21133e-09
7.37517e-09
-3.00811e-10
7.06707e-09
7.03972e-10
6.80127e-09
1.77748e-09
6.60465e-09
2.80131e-09
6.52017e-09
3.48606e-09
3.22218e-09
6.44424e-09
4.13746e-09
-5.53572e-10
4.20153e-09
-6.26402e-10
4.33185e-09
-6.15349e-10
4.51296e-09
-5.47554e-10
4.72596e-09
-4.39841e-10
4.95937e-09
-3.10533e-10
5.20684e-09
-1.68078e-10
5.46494e-09
-1.50312e-11
5.7319e-09
1.48144e-10
6.00696e-09
3.22036e-10
6.2899e-09
5.07923e-10
6.58095e-09
7.07357e-10
6.88083e-09
9.22021e-10
7.19077e-09
1.15444e-09
7.51257e-09
1.40729e-09
7.84898e-09
1.68185e-09
8.20392e-09
1.97669e-09
8.58269e-09
2.28555e-09
8.99209e-09
2.5912e-09
9.43996e-09
2.85439e-09
9.93257e-09
2.98998e-09
1.04693e-08
2.83321e-09
1.09549e-08
1.83674e-09
1.13481e-08
5.65698e-10
1.16477e-08
-6.45703e-10
1.18581e-08
-1.73219e-09
1.19875e-08
-2.65308e-09
1.20437e-08
-3.37928e-09
1.20332e-08
-3.90697e-09
1.19625e-08
-4.24858e-09
1.1838e-08
-4.41737e-09
1.16659e-08
-4.42487e-09
1.14526e-08
-4.28204e-09
1.12047e-08
-3.99993e-09
1.09291e-08
-3.59017e-09
1.06331e-08
-3.06494e-09
1.03248e-08
-2.43641e-09
1.00145e-08
-1.71588e-09
9.71618e-09
-9.13028e-10
9.45208e-09
-3.67116e-11
9.25478e-09
9.01274e-10
9.16883e-09
1.86343e-09
9.23126e-09
2.73888e-09
9.42371e-09
3.2936e-09
3.12404e-09
9.52185e-09
6.55327e-09
-5.26371e-10
6.55573e-09
-6.28864e-10
6.60821e-09
-6.67833e-10
6.71749e-09
-6.56835e-10
6.87377e-09
-5.96113e-10
7.06489e-09
-5.01655e-10
7.28283e-09
-3.8602e-10
7.52169e-09
-2.53892e-10
7.77767e-09
-1.07831e-10
8.0485e-09
5.12058e-11
8.33292e-09
2.23504e-10
8.63047e-09
4.09799e-10
8.94152e-09
6.10977e-10
9.26701e-09
8.28952e-10
9.60862e-09
1.06568e-09
9.96906e-09
1.32141e-09
1.03523e-08
1.59346e-09
1.07637e-08
1.87418e-09
1.12099e-08
2.14492e-09
1.16988e-08
2.36549e-09
1.22362e-08
2.45257e-09
1.28207e-08
2.24872e-09
1.3349e-08
1.30846e-09
1.37772e-08
1.37494e-10
1.41039e-08
-9.72397e-10
1.43341e-08
-1.96239e-09
1.44767e-08
-2.79562e-09
1.454e-08
-3.44258e-09
1.45314e-08
-3.89839e-09
1.44583e-08
-4.17546e-09
1.4328e-08
-4.28715e-09
1.41483e-08
-4.24509e-09
1.39268e-08
-4.06056e-09
1.3672e-08
-3.74511e-09
1.33928e-08
-3.31102e-09
1.30993e-08
-2.77141e-09
1.28029e-08
-2.14009e-09
1.25184e-08
-1.43131e-09
1.22655e-08
-6.6011e-10
1.20724e-08
1.56326e-10
1.19797e-08
9.93964e-10
1.20339e-08
1.80924e-09
1.2261e-08
2.51175e-09
1.26117e-08
2.94299e-09
2.8923e-09
1.28434e-08
9.79279e-09
-4.81952e-10
9.75487e-09
-5.90937e-10
9.74768e-09
-6.60641e-10
9.78457e-09
-6.93726e-10
9.86952e-09
-6.81065e-10
9.99877e-09
-6.30906e-10
1.01653e-08
-5.52576e-10
1.03632e-08
-4.51773e-10
1.05878e-08
-3.32387e-10
1.08357e-08
-1.9672e-10
1.11048e-08
-4.55842e-11
1.13939e-08
1.207e-10
1.17029e-08
3.01957e-10
1.20325e-08
4.99389e-10
1.2384e-08
7.1415e-10
1.27601e-08
9.45287e-10
1.31647e-08
1.18882e-09
1.36032e-08
1.43573e-09
1.4082e-08
1.66607e-09
1.46086e-08
1.8389e-09
1.51881e-08
1.87306e-09
1.58178e-08
1.619e-09
1.63867e-08
7.39657e-10
1.68479e-08
-3.23745e-10
1.72e-08
-1.32453e-09
1.74484e-08
-2.21076e-09
1.76027e-08
-2.94988e-09
1.7672e-08
-3.51191e-09
1.76645e-08
-3.89088e-09
1.75885e-08
-4.09949e-09
1.74528e-08
-4.15145e-09
1.72664e-08
-4.05867e-09
1.70388e-08
-3.83298e-09
1.67804e-08
-3.48668e-09
1.65024e-08
-3.03303e-09
1.62175e-08
-2.48651e-09
1.59405e-08
-1.86305e-09
1.56893e-08
-1.18015e-09
1.5487e-08
-4.57836e-10
1.53634e-08
2.79991e-10
1.53551e-08
1.00227e-09
1.5498e-08
1.66629e-09
1.58021e-08
2.20764e-09
1.62093e-08
2.53576e-09
2.55806e-09
1.65436e-08
1.40562e-08
-4.32062e-10
1.39976e-08
-5.32291e-10
1.39517e-08
-6.14793e-10
1.39309e-08
-6.72845e-10
1.39478e-08
-6.97954e-10
1.40067e-08
-6.89812e-10
1.41065e-08
-6.5237e-10
1.42442e-08
-5.89513e-10
1.44165e-08
-5.0472e-10
1.46205e-08
-4.00708e-10
1.48538e-08
-2.78899e-10
1.51151e-08
-1.40573e-10
1.54041e-08
1.29463e-11
1.57213e-08
1.82228e-10
1.60678e-08
3.67608e-10
1.64463e-08
5.66785e-10
1.68607e-08
7.74439e-10
1.73161e-08
9.80282e-10
1.78189e-08
1.1633e-09
1.83758e-08
1.28206e-09
1.89908e-08
1.25803e-09
1.96595e-08
9.50306e-10
2.02634e-08
1.35737e-10
2.07531e-08
-8.13467e-10
2.11267e-08
-1.69812e-09
2.13898e-08
-2.47378e-09
2.15528e-08
-3.11294e-09
2.16258e-08
-3.58489e-09
2.16176e-08
-3.88265e-09
2.15377e-08
-4.01964e-09
2.13965e-08
-4.0102e-09
2.12044e-08
-3.86665e-09
2.0973e-08
-3.60155e-09
2.07145e-08
-3.2282e-09
2.04425e-08
-2.76103e-09
2.01721e-08
-2.21607e-09
1.99203e-08
-1.6113e-09
1.97072e-08
-9.66985e-10
1.95557e-08
-3.06405e-10
1.94922e-08
3.43503e-10
1.95435e-08
9.51007e-10
1.97297e-08
1.48003e-09
2.00477e-08
1.88965e-09
2.0447e-08
2.13648e-09
2.18843e-09
2.08167e-08
1.95812e-08
-3.82746e-10
1.95174e-08
-4.68463e-10
1.94517e-08
-5.49091e-10
1.93953e-08
-6.16453e-10
1.93608e-08
-6.63444e-10
1.93571e-08
-6.8612e-10
1.93888e-08
-6.84054e-10
1.94576e-08
-6.58335e-10
1.95636e-08
-6.10731e-10
1.97061e-08
-5.43234e-10
1.98842e-08
-4.56921e-10
2.00972e-08
-3.53613e-10
2.03458e-08
-2.35603e-10
2.06305e-08
-1.0253e-10
2.09529e-08
4.52542e-11
2.13157e-08
2.03983e-10
2.1723e-08
3.67063e-10
2.21802e-08
5.23169e-10
2.2693e-08
6.5049e-10
2.32674e-08
7.07586e-10
2.39063e-08
6.19137e-10
2.46028e-08
2.5388e-10
2.52321e-08
-4.93567e-10
2.57422e-08
-1.32358e-09
2.61302e-08
-2.08619e-09
2.64019e-08
-2.74548e-09
2.65688e-08
-3.27978e-09
2.66414e-08
-3.65748e-09
2.66293e-08
-3.87063e-09
2.65437e-08
-3.93398e-09
2.63963e-08
-3.86278e-09
2.61994e-08
-3.66979e-09
2.59663e-08
-3.36843e-09
2.57112e-08
-2.97311e-09
2.54496e-08
-2.49946e-09
2.51984e-08
-1.96484e-09
2.49758e-08
-1.38872e-09
2.48016e-08
-7.92788e-10
2.46963e-08
-2.01117e-10
2.46796e-08
3.60245e-10
2.47668e-08
8.63764e-10
2.4964e-08
1.28286e-09
2.52594e-08
1.59431e-09
2.56143e-08
1.78154e-09
1.83972e-09
2.5963e-08
2.66486e-08
-3.35142e-10
2.65865e-08
-4.06373e-10
2.65156e-08
-4.78234e-10
2.64437e-08
-5.44575e-10
2.63801e-08
-5.99781e-10
2.63335e-08
-6.39542e-10
2.6311e-08
-6.61603e-10
2.63178e-08
-6.65132e-10
2.63574e-08
-6.50335e-10
2.64324e-08
-6.18149e-10
2.6544e-08
-5.68569e-10
2.66941e-08
-5.03667e-10
2.68849e-08
-4.26446e-10
2.71183e-08
-3.35925e-10
2.73965e-08
-2.32924e-10
2.77233e-08
-1.22802e-10
2.81035e-08
-1.31647e-11
2.85427e-08
8.40056e-11
2.90466e-08
1.46541e-10
2.96206e-08
1.33573e-10
3.0266e-08
-2.61996e-11
3.09729e-08
-4.5308e-10
3.16127e-08
-1.13335e-09
3.21308e-08
-1.84164e-09
3.25227e-08
-2.47812e-09
3.27941e-08
-3.01686e-09
3.29574e-08
-3.44306e-09
3.30236e-08
-3.72369e-09
3.30031e-08
-3.85021e-09
3.29087e-08
-3.83951e-09
3.27538e-08
-3.7079e-09
3.25525e-08
-3.46848e-09
3.23196e-08
-3.13551e-09
3.20709e-08
-2.72446e-09
3.18233e-08
-2.2519e-09
3.15945e-08
-1.73596e-09
3.14022e-08
-1.1965e-09
3.12644e-08
-6.54935e-10
3.11969e-08
-1.33642e-10
3.12121e-08
3.45045e-10
3.13157e-08
7.60209e-10
3.15039e-08
1.09465e-09
3.17612e-08
1.33703e-09
3.20587e-08
1.48399e-09
1.54103e-09
3.23574e-08
3.55848e-08
-2.87443e-10
3.55251e-08
-3.46683e-10
3.54556e-08
-4.08713e-10
3.53805e-08
-4.69523e-10
3.53058e-08
-5.25017e-10
3.52379e-08
-5.7163e-10
3.51832e-08
-6.06957e-10
3.51475e-08
-6.29472e-10
3.5136e-08
-6.38787e-10
3.51532e-08
-6.35363e-10
3.52026e-08
-6.17978e-10
3.52885e-08
-5.89502e-10
3.54156e-08
-5.53627e-10
3.55874e-08
-5.07694e-10
3.58076e-08
-4.53079e-10
3.60818e-08
-3.97031e-10
3.64163e-08
-3.47691e-10
3.68175e-08
-3.17202e-10
3.72916e-08
-3.27577e-10
3.78436e-08
-4.18356e-10
3.84732e-08
-6.55861e-10
3.91681e-08
-1.14793e-09
3.97982e-08
-1.76351e-09
4.03074e-08
-2.35075e-09
4.06888e-08
-2.85953e-09
4.09479e-08
-3.27599e-09
4.10979e-08
-3.59311e-09
4.11499e-08
-3.77567e-09
4.1115e-08
-3.81531e-09
4.10077e-08
-3.73223e-09
4.08436e-08
-3.54371e-09
4.06378e-08
-3.26273e-09
4.04066e-08
-2.90428e-09
4.01667e-08
-2.48462e-09
3.99356e-08
-2.02073e-09
3.97302e-08
-1.53058e-09
3.95669e-08
-1.03318e-09
3.94599e-08
-5.47944e-10
3.942e-08
-9.37743e-11
3.9453e-08
3.12017e-10
3.95579e-08
6.55343e-10
3.9726e-08
9.26545e-10
3.99414e-08
1.12161e-09
4.01825e-08
1.24289e-09
1.29851e-09
4.0425e-08
4.67571e-08
-2.37594e-10
4.66981e-08
-2.87684e-10
4.66307e-08
-3.41284e-10
4.65571e-08
-3.95938e-10
4.64809e-08
-4.48827e-10
4.64066e-08
-4.97251e-10
4.63388e-08
-5.3923e-10
4.62825e-08
-5.73117e-10
4.62423e-08
-5.98654e-10
4.62234e-08
-6.16413e-10
4.62293e-08
-6.23882e-10
4.62661e-08
-6.26312e-10
4.63403e-08
-6.27856e-10
4.64558e-08
-6.23213e-10
4.66182e-08
-6.15457e-10
4.68354e-08
-6.14245e-10
4.71154e-08
-6.27616e-10
4.74656e-08
-6.67449e-10
4.78933e-08
-7.55219e-10
4.84033e-08
-9.28408e-10
4.89947e-08
-1.24725e-09
4.96525e-08
-1.80576e-09
5.025e-08
-2.36093e-09
5.07301e-08
-2.8309e-09
5.10838e-08
-3.21325e-09
5.13168e-08
-3.50896e-09
5.14426e-08
-3.71894e-09
5.14713e-08
-3.80432e-09
5.1415e-08
-3.75898e-09
5.12905e-08
-3.60782e-09
5.11152e-08
-3.36834e-09
5.0905e-08
-3.0526e-09
5.06768e-08
-2.67609e-09
5.04476e-08
-2.2554e-09
5.0234e-08
-1.80713e-09
5.00516e-08
-1.34812e-09
4.99137e-08
-8.95264e-10
4.98305e-08
-4.64815e-10
4.9808e-08
-7.12377e-11
4.98471e-08
2.72924e-10
4.99428e-08
5.59585e-10
5.00851e-08
7.84246e-10
5.02598e-08
9.46966e-10
5.04505e-08
1.05217e-09
1.10767e-09
5.06413e-08
6.05651e-08
-1.85223e-10
6.0506e-08
-2.28656e-10
6.04406e-08
-2.75823e-10
6.037e-08
-3.2534e-10
6.02965e-08
-3.75408e-10
6.02234e-08
-4.24143e-10
6.01543e-08
-4.70102e-10
6.00929e-08
-5.11751e-10
6.00434e-08
-5.49145e-10
6.00102e-08
-5.83149e-10
5.99964e-08
-6.10131e-10
6.0009e-08
-6.38839e-10
6.00531e-08
-6.71979e-10
6.01322e-08
-7.02311e-10
6.02536e-08
-7.36857e-10
6.04265e-08
-7.87173e-10
6.06594e-08
-8.60481e-10
6.09605e-08
-9.6856e-10
6.13376e-08
-1.13232e-09
6.17959e-08
-1.38672e-09
6.23334e-08
-1.78476e-09
6.29338e-08
-2.40614e-09
6.34775e-08
-2.90467e-09
6.39093e-08
-3.26267e-09
6.42184e-08
-3.52233e-09
6.4412e-08
-3.70257e-09
6.45033e-08
-3.81029e-09
6.44997e-08
-3.80075e-09
6.44156e-08
-3.67485e-09
6.4271e-08
-3.4632e-09
6.40838e-08
-3.18116e-09
6.38703e-08
-2.83906e-09
6.36469e-08
-2.45277e-09
6.34301e-08
-2.03852e-09
6.32346e-08
-1.61168e-09
6.30735e-08
-1.18699e-09
6.29567e-08
-7.7846e-10
6.28905e-08
-3.98613e-10
6.28767e-08
-5.74364e-11
6.29134e-08
2.36199e-10
6.29939e-08
4.79069e-10
6.31085e-08
6.6971e-10
6.32453e-08
8.10157e-10
6.33922e-08
9.05222e-10
9.61598e-10
6.35383e-08
7.74424e-08
-1.32282e-10
7.7385e-08
-1.71264e-10
7.73232e-08
-2.14064e-10
7.72579e-08
-2.60044e-10
7.71907e-08
-3.08181e-10
7.7124e-08
-3.57427e-10
7.70606e-08
-4.06721e-10
7.70042e-08
-4.55302e-10
7.69582e-08
-5.03152e-10
7.69253e-08
-5.50279e-10
7.69133e-08
-5.98142e-10
7.69233e-08
-6.48808e-10
7.69566e-08
-7.05348e-10
7.70224e-08
-7.68018e-10
7.71295e-08
-8.44e-10
7.7283e-08
-9.40658e-10
7.74904e-08
-1.06794e-09
7.77597e-08
-1.23785e-09
7.80981e-08
-1.4707e-09
7.85102e-08
-1.79881e-09
7.8992e-08
-2.26652e-09
7.95266e-08
-2.94073e-09
8.00047e-08
-3.38277e-09
8.03745e-08
-3.63249e-09
8.06269e-08
-3.77478e-09
8.07731e-08
-3.84872e-09
8.08233e-08
-3.86048e-09
8.07806e-08
-3.7581e-09
8.06657e-08
-3.55995e-09
8.05022e-08
-3.29969e-09
8.03056e-08
-2.98459e-09
8.00918e-08
-2.6252e-09
7.98765e-08
-2.23754e-09
7.96744e-08
-1.83641e-09
7.94979e-08
-1.43511e-09
7.93566e-08
-1.04573e-09
7.92572e-08
-6.79089e-10
7.92027e-08
-3.44091e-10
7.91919e-08
-4.66109e-11
7.92216e-08
2.06459e-10
7.92847e-08
4.16014e-10
7.93725e-08
5.81909e-10
7.94757e-08
7.0697e-10
7.95852e-08
7.95688e-10
8.53537e-10
7.96933e-08
9.78846e-08
-8.20396e-11
9.7832e-08
-1.18673e-10
9.77772e-08
-1.59215e-10
9.77206e-08
-2.03535e-10
9.76637e-08
-2.5121e-10
9.76082e-08
-3.01921e-10
9.75564e-08
-3.54981e-10
9.75118e-08
-4.10635e-10
9.74774e-08
-4.68756e-10
9.74565e-08
-5.29377e-10
9.74552e-08
-5.96863e-10
9.74729e-08
-6.66545e-10
9.75134e-08
-7.45815e-10
9.75864e-08
-8.41008e-10
9.76989e-08
-9.56555e-10
9.78537e-08
-1.09544e-09
9.80573e-08
-1.2715e-09
9.83157e-08
-1.49627e-09
9.86342e-08
-1.78919e-09
9.90155e-08
-2.18016e-09
9.94513e-08
-2.70229e-09
9.9925e-08
-3.41439e-09
1.00337e-07
-3.79485e-09
1.0064e-07
-3.93586e-09
1.00834e-07
-3.96797e-09
1.00933e-07
-3.94829e-09
1.00939e-07
-3.86651e-09
1.00856e-07
-3.67449e-09
1.00716e-07
-3.42011e-09
1.0054e-07
-3.12442e-09
1.00341e-07
-2.785e-09
1.00133e-07
-2.41722e-09
9.99311e-08
-2.03568e-09
9.97474e-08
-1.65271e-09
9.95913e-08
-1.27902e-09
9.94694e-08
-9.23909e-10
9.93854e-08
-5.95083e-10
9.93396e-08
-2.98244e-10
9.93299e-08
-3.69537e-11
9.93516e-08
1.84842e-10
9.93983e-08
3.69312e-10
9.94628e-08
5.17394e-10
9.95378e-08
6.3198e-10
9.96165e-08
7.16985e-10
7.76808e-10