/*--------------------------------*- C++ -*----------------------------------*\
| =========                 |                                                 |
| \\      /  F ield         | OpenFOAM: The Open Source CFD Toolbox           |
|  \\    /   O peration     | Version:  2312                                  |
|   \\  /    A nd           | Website:  www.openfoam.com                      |
|    \\/     M anipulation  |                                                 |
\*---------------------------------------------------------------------------*/
FoamFile
{
    version     2.0;
    format      ascii;
    arch        "LSB;label=32;scalar=64";
    class       surfaceScalarField;
    location    "158.5";
    object      phi;
}
// * * * * * * * * * * * * * * * * * * * * * * * * * * * * * * * * * * * * * //

dimensions      [0 3 -1 0 0 0 0];

oriented        oriented;

internalField   nonuniform List<scalar> 
9445
(
5.96472e-10
1.67488e-11
5.85223e-10
1.12494e-11
5.77646e-10
7.57698e-12
5.72701e-10
4.94453e-12
5.69762e-10
2.93941e-12
5.68443e-10
1.31895e-12
5.68565e-10
-1.22247e-13
5.70121e-10
-1.55605e-12
5.73068e-10
-2.94747e-12
5.77805e-10
-4.73609e-12
5.85468e-10
-7.6631e-12
5.99588e-10
-1.41205e-11
6.32619e-10
-3.30311e-11
7.28454e-10
-9.58346e-11
-2.51039e-10
9.79492e-10
2.07765e-09
7.4169e-11
2.0388e-09
5.01027e-11
2.01237e-09
3.40019e-11
1.99484e-09
2.24748e-11
1.98405e-09
1.37321e-11
1.97865e-09
6.71833e-12
1.97798e-09
5.54005e-13
1.98176e-09
-5.34105e-12
1.98999e-09
-1.1175e-11
2.00386e-09
-1.86131e-11
2.02623e-09
-3.00292e-11
2.06386e-09
-5.17462e-11
2.13013e-09
-9.93092e-11
2.23804e-09
-2.03738e-10
-3.65975e-10
2.35297e-09
4.09358e-09
1.85042e-10
4.01811e-09
1.25573e-10
3.96638e-09
8.57349e-11
3.9316e-09
5.72497e-11
3.9096e-09
3.57351e-11
3.89771e-09
1.86106e-11
3.89449e-09
3.76965e-12
3.89921e-09
-1.00583e-11
3.91162e-09
-2.35823e-11
3.93327e-09
-4.02652e-11
3.96688e-09
-6.36456e-11
4.01698e-09
-1.01837e-10
4.08634e-09
-1.68679e-10
4.16152e-09
-2.78911e-10
-4.09959e-10
4.2055e-09
6.79053e-09
3.63962e-10
6.66785e-09
2.48256e-10
6.583e-09
1.70582e-10
6.52516e-09
1.15093e-10
6.48754e-09
7.33513e-11
6.46573e-09
4.04184e-11
6.45719e-09
1.23081e-11
6.46034e-09
-1.32083e-11
6.47428e-09
-3.75219e-11
6.4999e-09
-6.58809e-11
6.53807e-09
-1.0182e-10
6.58826e-09
-1.5202e-10
6.64396e-09
-2.24385e-10
6.6853e-09
-3.20253e-10
-4.14029e-10
6.68937e-09
1.03462e-08
6.26123e-10
1.01647e-08
4.29751e-10
1.00379e-08
2.9743e-10
9.95004e-09
2.02906e-10
9.89134e-09
1.32052e-10
9.85513e-09
7.66263e-11
9.83723e-09
3.02064e-11
9.83489e-09
-1.08673e-11
9.84626e-09
-4.8896e-11
9.8702e-09
-8.98216e-11
9.90501e-09
-1.36622e-10
9.94582e-09
-1.92839e-10
9.98203e-09
-2.60588e-10
9.99665e-09
-3.34874e-10
-3.96707e-10
9.97933e-09
1.49716e-08
9.84454e-10
1.47203e-08
6.81051e-10
1.45424e-08
4.75332e-10
1.44172e-08
3.28146e-10
1.43311e-08
2.18103e-10
1.42751e-08
1.32662e-10
1.42428e-08
6.25209e-11
1.42298e-08
2.14046e-12
1.42329e-08
-5.20346e-11
1.42486e-08
-1.05525e-10
1.42726e-08
-1.60549e-10
1.42977e-08
-2.18029e-10
1.43138e-08
-2.76623e-10
1.43095e-08
-3.30622e-10
-3.69319e-10
1.42821e-08
2.09095e-08
1.44413e-09
2.05813e-08
1.00924e-09
2.03452e-08
7.11432e-10
2.01759e-08
4.97491e-10
2.00563e-08
3.37678e-10
1.99747e-08
2.14319e-10
1.99223e-08
1.14897e-10
1.98928e-08
3.16104e-11
1.98812e-08
-4.04487e-11
1.98819e-08
-1.06213e-10
1.98888e-08
-1.67426e-10
1.98946e-08
-2.23839e-10
1.98914e-08
-2.73445e-10
1.98733e-08
-3.12551e-10
-3.36687e-10
1.98407e-08
2.84266e-08
1.99403e-09
2.8024e-08
1.41183e-09
2.77283e-08
1.00717e-09
2.75116e-08
7.14216e-10
2.73542e-08
4.94991e-10
2.72422e-08
3.26379e-10
2.71646e-08
1.92505e-10
2.71131e-08
8.31123e-11
2.70807e-08
-8.12236e-12
2.70606e-08
-8.61085e-11
2.7046e-08
-1.52788e-10
2.70305e-08
-2.0832e-10
2.70089e-08
-2.51876e-10
2.69787e-08
-2.82371e-10
-2.9913e-10
2.69412e-08
3.78008e-08
2.59705e-09
3.73432e-08
1.86939e-09
3.69976e-08
1.35275e-09
3.67378e-08
9.74086e-10
3.65436e-08
6.89176e-10
3.63998e-08
4.70176e-10
3.62942e-08
2.981e-10
3.62169e-08
1.6035e-10
3.61598e-08
4.89748e-11
3.61153e-08
-4.15809e-11
3.60769e-08
-1.14413e-10
3.60397e-08
-1.71047e-10
3.60003e-08
-2.12546e-10
3.5958e-08
-2.40041e-10
-2.54952e-10
3.59138e-08
4.93114e-08
3.18713e-09
4.88404e-08
2.34039e-09
4.8471e-08
1.72211e-09
4.81842e-08
1.26091e-09
4.79628e-08
9.10548e-10
4.77926e-08
6.40433e-10
4.76613e-08
4.29371e-10
4.75588e-08
2.62823e-10
4.74767e-08
1.31102e-10
4.74076e-08
2.74703e-11
4.73462e-08
-5.29883e-11
4.72886e-08
-1.13432e-10
4.72328e-08
-1.5676e-10
4.71785e-08
-1.85673e-10
-2.0271e-10
4.71262e-08
6.32561e-08
3.68631e-09
6.28289e-08
2.76754e-09
6.24767e-08
2.07428e-09
6.21919e-08
1.54579e-09
6.19635e-08
1.13894e-09
6.17806e-08
8.23262e-10
6.16332e-08
5.76817e-10
6.15122e-08
3.83843e-10
6.14101e-08
2.33132e-10
6.13213e-08
1.16353e-10
6.12411e-08
2.71488e-11
6.11671e-08
-3.94548e-11
6.1098e-08
-8.7589e-11
6.10333e-08
-1.20968e-10
-1.42722e-10
6.09733e-08
8.00212e-08
4.0458e-09
7.96854e-08
3.10336e-09
7.93907e-08
2.36897e-09
7.91401e-08
1.79642e-09
7.89299e-08
1.34918e-09
7.87539e-08
9.99258e-10
7.86053e-08
7.25361e-10
7.84779e-08
5.11295e-10
7.83662e-08
3.44769e-10
7.82664e-08
2.16214e-10
7.81754e-08
1.1808e-10
7.80918e-08
4.42115e-11
7.80145e-08
-1.03449e-11
7.79434e-08
-4.9804e-11
-7.76012e-11
7.78782e-08
1.0018e-07
4.27855e-09
9.99426e-08
3.34104e-09
9.972e-08
2.59159e-09
9.95201e-08
1.99635e-09
9.93438e-08
1.52549e-09
9.91889e-08
1.15416e-09
9.90519e-08
8.62281e-10
9.89295e-08
6.33693e-10
9.88188e-08
4.55541e-10
9.87175e-08
3.1751e-10
9.86242e-08
2.11334e-10
9.85381e-08
1.30283e-10
9.84588e-08
6.89828e-11
9.83861e-08
2.29504e-11
-1.12044e-11
9.83197e-08
1.24491e-07
4.43367e-09
1.24321e-07
3.51092e-09
1.24153e-07
2.75977e-09
1.23994e-07
2.15508e-09
1.23847e-07
1.67224e-09
1.23712e-07
1.28901e-09
1.23588e-07
9.86358e-10
1.23474e-07
7.48313e-10
1.23367e-07
5.61814e-10
1.23269e-07
4.16213e-10
1.23177e-07
3.02954e-10
1.23092e-07
2.15112e-10
1.23014e-07
1.47191e-10
1.22942e-07
9.47187e-11
5.42056e-11
1.22877e-07
1.53692e-07
4.53687e-09
1.53566e-07
3.63706e-09
1.53431e-07
2.89423e-09
1.53297e-07
2.28955e-09
1.53166e-07
1.8027e-09
1.53042e-07
1.41377e-09
1.52923e-07
1.10479e-09
1.52811e-07
8.60195e-10
1.52706e-07
6.67068e-10
1.52607e-07
5.14789e-10
1.52516e-07
3.94818e-10
1.5243e-07
3.00261e-10
1.52352e-07
2.25658e-10
1.5228e-07
1.66604e-10
1.19666e-10
1.52215e-07
1.88254e-07
4.57699e-09
1.88177e-07
3.71391e-09
1.88077e-07
2.99365e-09
1.87966e-07
2.40057e-09
1.8785e-07
1.91857e-09
1.87734e-07
1.53033e-09
1.87619e-07
1.21935e-09
1.87509e-07
9.70988e-10
1.87403e-07
7.72887e-10
1.87303e-07
6.14828e-10
1.87209e-07
4.88559e-10
1.87122e-07
3.87402e-10
1.87041e-07
3.06068e-10
1.86968e-07
2.40294e-10
1.86758e-10
1.86901e-07
2.28265e-07
4.53564e-09
2.28252e-07
3.72676e-09
2.282e-07
3.04538e-09
2.28123e-07
2.47721e-09
2.28032e-07
2.01045e-09
2.27931e-07
1.63066e-09
2.27827e-07
1.3233e-09
2.27723e-07
1.0751e-09
2.27621e-07
8.74727e-10
2.27523e-07
7.12702e-10
2.27431e-07
5.81306e-10
2.27344e-07
4.74271e-10
2.27263e-07
3.86603e-10
2.27189e-07
3.14284e-10
2.54169e-10
2.27122e-07
2.73284e-07
4.40657e-09
2.73343e-07
3.66787e-09
2.73349e-07
3.0397e-09
2.73317e-07
2.50965e-09
2.73258e-07
2.069e-09
2.73183e-07
1.70613e-09
2.73097e-07
1.40885e-09
2.73006e-07
1.16566e-09
2.72915e-07
9.66595e-10
2.72824e-07
8.03193e-10
2.72737e-07
6.68522e-10
2.72654e-07
5.56889e-10
2.72577e-07
4.63704e-10
2.72506e-07
3.85284e-10
3.18814e-10
2.72442e-07
3.21888e-07
4.17559e-09
3.22029e-07
3.52632e-09
3.22104e-07
2.96533e-09
3.22127e-07
2.48631e-09
3.22113e-07
2.08302e-09
3.22073e-07
1.74635e-09
3.22015e-07
1.46651e-09
3.21947e-07
1.23411e-09
3.21873e-07
1.04085e-09
3.21796e-07
8.79537e-10
3.21721e-07
7.44165e-10
3.21648e-07
6.2979e-10
3.21579e-07
5.32435e-10
3.21515e-07
4.48783e-10
3.76316e-10
3.21458e-07
3.70955e-07
3.82838e-09
3.71198e-07
3.28325e-09
3.71359e-07
2.80385e-09
3.71457e-07
2.38809e-09
3.71507e-07
2.03293e-09
3.71522e-07
1.73192e-09
3.71511e-07
1.47758e-09
3.71482e-07
1.26273e-09
3.71442e-07
1.08071e-09
3.71396e-07
9.25845e-10
3.71347e-07
7.9322e-10
3.71298e-07
6.78766e-10
3.71251e-07
5.792e-10
3.71208e-07
4.91693e-10
4.14157e-10
3.7117e-07
3.68461e-07
3.44254e-09
3.68751e-07
2.99309e-09
3.68962e-07
2.59222e-09
3.69111e-07
2.23947e-09
3.6921e-07
1.93374e-09
3.69272e-07
1.67056e-09
3.69305e-07
1.44448e-09
3.69317e-07
1.24996e-09
3.69316e-07
1.08199e-09
3.69306e-07
9.36106e-10
3.69291e-07
8.0852e-10
3.69273e-07
6.96006e-10
3.69257e-07
5.95894e-10
3.69242e-07
5.05943e-10
4.24552e-10
3.69232e-07
3.15762e-07
3.02029e-09
3.16094e-07
2.66059e-09
3.16352e-07
2.33453e-09
3.16548e-07
2.04391e-09
3.16693e-07
1.78838e-09
3.16799e-07
1.56498e-09
3.16873e-07
1.36979e-09
3.16924e-07
1.19881e-09
3.16958e-07
1.04835e-09
3.16979e-07
9.15103e-10
3.16991e-07
7.96218e-10
3.16998e-07
6.89253e-10
3.17002e-07
5.92176e-10
3.17004e-07
5.03253e-10
4.21133e-10
3.17008e-07
2.64291e-07
2.63062e-09
2.64612e-07
2.34004e-09
2.64873e-07
2.07341e-09
2.65084e-07
1.8334e-09
2.65252e-07
1.61976e-09
2.65387e-07
1.43029e-09
2.65494e-07
1.2622e-09
2.65581e-07
1.11254e-09
2.6565e-07
9.78589e-10
2.65708e-07
8.57827e-10
2.65756e-07
7.48166e-10
2.65797e-07
6.47748e-10
2.65834e-07
5.55071e-10
2.65869e-07
4.6871e-10
3.87822e-10
2.65902e-07
2.17686e-07
2.26176e-09
2.17998e-07
2.02797e-09
2.18259e-07
1.81149e-09
2.18478e-07
1.61465e-09
2.18661e-07
1.43728e-09
2.18813e-07
1.27782e-09
2.18941e-07
1.13423e-09
2.19049e-07
1.00435e-09
2.19142e-07
8.86187e-10
2.19222e-07
7.77924e-10
2.19292e-07
6.77983e-10
2.19355e-07
5.85014e-10
2.19412e-07
4.97889e-10
2.19465e-07
4.15602e-10
3.37458e-10
2.19515e-07
1.76914e-07
1.90941e-09
1.77219e-07
1.72332e-09
1.77481e-07
1.54969e-09
1.77705e-07
1.39019e-09
1.77898e-07
1.2447e-09
1.78063e-07
1.11209e-09
1.78207e-07
9.90893e-10
1.78332e-07
8.79576e-10
1.78441e-07
7.76726e-10
1.78538e-07
6.8103e-10
1.78624e-07
5.91399e-10
1.78703e-07
5.06852e-10
1.78774e-07
4.26602e-10
1.7884e-07
3.49981e-10
2.76485e-10
1.78901e-07
1.4216e-07
1.57728e-09
1.42452e-07
1.43148e-09
1.42707e-07
1.29436e-09
1.4293e-07
1.16712e-09
1.43125e-07
1.04958e-09
1.43296e-07
9.40927e-10
1.43447e-07
8.40159e-10
1.43581e-07
7.46243e-10
1.43699e-07
6.58209e-10
1.43805e-07
5.75168e-10
1.439e-07
4.96385e-10
1.43986e-07
4.21205e-10
1.44063e-07
3.49108e-10
1.44133e-07
2.79684e-10
2.12593e-10
1.44197e-07
1.13092e-07
1.27251e-09
1.13363e-07
1.1605e-09
1.13603e-07
1.05425e-09
1.13816e-07
9.54601e-10
1.14004e-07
8.61331e-10
1.14171e-07
7.73886e-10
1.1432e-07
6.9163e-10
1.14452e-07
6.13906e-10
1.1457e-07
5.40091e-10
1.14676e-07
4.69621e-10
1.1477e-07
4.02027e-10
1.14854e-07
3.36912e-10
1.1493e-07
2.73954e-10
1.14996e-07
2.12901e-10
1.53589e-10
1.15055e-07
8.91179e-08
1.00188e-09
8.93607e-08
9.1777e-10
8.95777e-08
8.37233e-10
8.97714e-08
7.60852e-10
8.99444e-08
6.88366e-10
9.00988e-08
6.19449e-10
9.02367e-08
5.53742e-10
9.03598e-08
4.90865e-10
9.04694e-08
4.30443e-10
9.05669e-08
3.72156e-10
9.06532e-08
3.15725e-10
9.07291e-08
2.6095e-10
9.07954e-08
2.07658e-10
9.08526e-08
1.557e-10
1.05081e-10
9.09011e-08
6.95549e-08
7.69516e-10
6.97647e-08
7.07936e-10
6.99535e-08
6.48417e-10
7.01231e-08
5.9128e-10
7.02752e-08
5.36268e-10
7.04114e-08
4.83245e-10
7.05331e-08
4.32046e-10
7.06415e-08
3.82476e-10
7.07376e-08
3.34338e-10
7.08223e-08
2.87475e-10
7.08962e-08
2.4176e-10
7.09601e-08
1.97098e-10
7.10143e-08
1.53448e-10
7.10593e-08
1.10743e-10
6.90151e-11
7.10953e-08
5.37328e-08
5.76229e-10
5.39083e-08
5.32406e-10
5.40671e-08
4.89673e-10
5.42103e-08
4.48079e-10
5.43391e-08
4.07431e-10
5.44546e-08
3.67731e-10
5.45577e-08
3.28933e-10
5.46493e-08
2.9096e-10
5.47299e-08
2.53736e-10
5.48001e-08
2.17206e-10
5.48605e-08
1.81337e-10
5.49115e-08
1.46113e-10
5.49534e-08
1.11549e-10
5.49865e-08
7.76674e-11
4.45119e-11
5.5011e-08
4.1039e-08
4.20058e-10
4.11816e-08
3.89851e-10
4.13111e-08
3.60162e-10
4.14284e-08
3.30788e-10
4.15342e-08
3.01647e-10
4.16291e-08
2.7282e-10
4.17137e-08
2.44321e-10
4.17885e-08
2.16145e-10
4.1854e-08
1.88285e-10
4.19104e-08
1.60749e-10
4.19582e-08
1.33555e-10
4.19976e-08
1.06727e-10
4.20288e-08
8.03213e-11
4.20521e-08
5.4374e-11
2.89448e-11
4.20677e-08
3.09347e-08
2.97216e-10
3.10474e-08
2.77147e-10
3.11503e-08
2.57277e-10
3.12439e-08
2.37234e-10
3.13285e-08
2.17053e-10
3.14044e-08
1.96838e-10
3.14721e-08
1.76629e-10
3.15318e-08
1.56457e-10
3.15837e-08
1.36351e-10
3.16282e-08
1.16347e-10
3.16652e-08
9.64865e-11
3.16951e-08
7.68122e-11
3.17181e-08
5.7389e-11
3.17342e-08
3.82612e-11
1.948e-11
3.17436e-08
2.2956e-08
2.03057e-10
2.30428e-08
1.90288e-10
2.31226e-08
1.77554e-10
2.31954e-08
1.64416e-10
2.32614e-08
1.50997e-10
2.33209e-08
1.37389e-10
2.33739e-08
1.23635e-10
2.34205e-08
1.0978e-10
2.3461e-08
9.58627e-11
2.34955e-08
8.19292e-11
2.35239e-08
6.80246e-11
2.35465e-08
5.41959e-11
2.35634e-08
4.05041e-11
2.35747e-08
2.69855e-11
1.36897e-11
2.35805e-08
1.67085e-08
1.32793e-10
1.67737e-08
1.25084e-10
1.68339e-08
1.17337e-10
1.68892e-08
1.09137e-10
1.69396e-08
1.00651e-10
1.6985e-08
9.19353e-11
1.70256e-08
8.30309e-11
1.70614e-08
7.39785e-11
1.70925e-08
6.48168e-11
1.71188e-08
5.55874e-11
1.71405e-08
4.63308e-11
1.71576e-08
3.70886e-11
1.71702e-08
2.79112e-11
1.71784e-08
1.88255e-11
9.87171e-12
1.71822e-08
1.18605e-08
8.19402e-11
1.1908e-08
7.75817e-11
1.19522e-08
7.31697e-11
1.19929e-08
6.83701e-11
1.20303e-08
6.33406e-11
1.20641e-08
5.81072e-11
1.20944e-08
5.27011e-11
1.21212e-08
4.71543e-11
1.21446e-08
4.14976e-11
1.21644e-08
3.57636e-11
1.21807e-08
2.99832e-11
1.21936e-08
2.41889e-11
1.22031e-08
1.84181e-11
1.22093e-08
1.26924e-11
7.03984e-12
1.22121e-08
8.13496e-09
4.65342e-11
8.16827e-09
4.42723e-11
8.19946e-09
4.19784e-11
8.22842e-09
3.94124e-11
8.25507e-09
3.66902e-11
8.27936e-09
3.38174e-11
8.30125e-09
3.08153e-11
8.3207e-09
2.77055e-11
8.33769e-09
2.45089e-11
8.3522e-09
2.12478e-11
8.36424e-09
1.79428e-11
8.37381e-09
1.46161e-11
8.38094e-09
1.12927e-11
8.38564e-09
7.98933e-12
4.72734e-12
8.38796e-09
5.30273e-09
2.3195e-11
5.32485e-09
2.21541e-11
5.34571e-09
2.1118e-11
5.36519e-09
1.99278e-11
5.38323e-09
1.86475e-11
5.39978e-09
1.72744e-11
5.41477e-09
1.58212e-11
5.42818e-09
1.43001e-11
5.43996e-09
1.27232e-11
5.45011e-09
1.11033e-11
5.4586e-09
9.45237e-12
5.46543e-09
7.7833e-12
5.47061e-09
6.11011e-12
5.47416e-09
4.4447e-12
2.80338e-12
5.47608e-09
3.17586e-09
9.11377e-12
3.18929e-09
8.71711e-12
3.20205e-09
8.35599e-12
3.21405e-09
7.93124e-12
3.22523e-09
7.46457e-12
3.23555e-09
6.9537e-12
3.24497e-09
6.40441e-12
3.25345e-09
5.82231e-12
3.26096e-09
5.21287e-12
3.26748e-09
4.58201e-12
3.273e-09
3.93492e-12
3.2775e-09
3.27767e-12
3.281e-09
2.61594e-12
3.28349e-09
1.95696e-12
1.31241e-12
3.28498e-09
1.60154e-09
1.99655e-12
1.60837e-09
1.89249e-12
1.61489e-09
1.82938e-12
1.62107e-09
1.75238e-12
1.62688e-09
1.66289e-12
1.63227e-09
1.56084e-12
1.63722e-09
1.44798e-12
1.64172e-09
1.32597e-12
1.64574e-09
1.19631e-12
1.64926e-09
1.06065e-12
1.65227e-09
9.20322e-13
1.65477e-09
7.77035e-13
1.65676e-09
6.31926e-13
1.65823e-09
4.87573e-13
3.51392e-13
1.65919e-09
4.56623e-10
4.58516e-10
4.60345e-10
4.62098e-10
4.6376e-10
4.65321e-10
4.66769e-10
4.68095e-10
4.69291e-10
4.70352e-10
4.71272e-10
4.7205e-10
4.72681e-10
4.73169e-10
4.7352e-10
1.16835e-09
-4.95021e-10
3.06166e-10
1.43694e-09
-4.4143e-10
1.72836e-10
1.70575e-09
-3.21493e-10
5.26824e-11
1.96895e-09
-1.94593e-10
-6.86042e-11
2.22518e-09
-6.41352e-11
-1.92093e-10
2.47558e-09
6.52203e-11
-3.15622e-10
2.72206e-09
1.94568e-10
-4.41048e-10
2.96627e-09
3.25979e-10
-5.70195e-10
3.2096e-09
4.61808e-10
-7.05133e-10
3.45311e-09
6.0467e-10
-8.4818e-10
3.69765e-09
7.57582e-10
-1.00213e-09
3.944e-09
9.24294e-10
-1.17064e-09
4.19297e-09
1.10992e-09
-1.35889e-09
4.44567e-09
1.32142e-09
-1.57412e-09
4.70381e-09
1.56689e-09
-1.82503e-09
4.96999e-09
1.8566e-09
-2.12278e-09
5.24783e-09
2.20329e-09
-2.48113e-09
5.54258e-09
2.61872e-09
-2.91346e-09
5.8614e-09
3.1051e-09
-3.42392e-09
6.21308e-09
3.64679e-09
-3.99847e-09
6.60582e-09
4.17116e-09
-4.56391e-09
7.04216e-09
4.51275e-09
-4.94908e-09
7.44354e-09
3.74742e-09
-4.1488e-09
7.77301e-09
2.44312e-09
-2.77259e-09
8.02764e-09
1.07228e-09
-1.32691e-09
8.20933e-09
-2.34356e-10
5.26654e-11
8.32275e-09
-1.40615e-09
1.29273e-09
8.37358e-09
-2.41022e-09
2.3594e-09
8.36706e-09
-3.23014e-09
3.23665e-09
8.30775e-09
-3.86012e-09
3.91943e-09
8.19971e-09
-4.30078e-09
4.40882e-09
8.04683e-09
-4.5562e-09
4.70908e-09
7.85301e-09
-4.63308e-09
4.8269e-09
7.62214e-09
-4.5406e-09
4.77146e-09
7.35796e-09
-4.29013e-09
4.55432e-09
7.06376e-09
-3.89452e-09
4.18872e-09
6.74223e-09
-3.3667e-09
3.68824e-09
6.39538e-09
-2.71753e-09
3.06438e-09
6.02474e-09
-1.95293e-09
2.32358e-09
5.63085e-09
-1.07176e-09
1.46565e-09
5.21052e-09
-7.10484e-11
4.91377e-10
4.75113e-09
1.03162e-09
-5.72235e-10
4.22927e-09
2.13363e-09
-1.61176e-09
3.64843e-09
2.98346e-09
-2.40262e-09
2.8719e-09
3.30224e-09
-2.52571e-09
2.42572e-09
-5.67769e-10
2.58159e-09
-5.97295e-10
2.79355e-09
-5.33451e-10
3.03012e-09
-4.31168e-10
3.27783e-09
-3.11848e-10
3.52992e-09
-1.86869e-10
3.78414e-09
-5.96468e-11
4.03995e-09
7.0167e-11
4.29754e-09
2.04221e-10
4.55734e-09
3.44868e-10
4.81988e-09
4.95045e-10
5.08577e-09
6.58406e-10
5.35579e-09
8.39894e-10
5.63107e-09
1.04614e-09
5.91345e-09
1.28451e-09
6.20572e-09
1.56433e-09
6.51174e-09
1.89727e-09
6.83706e-09
2.2934e-09
7.18927e-09
2.75289e-09
7.57765e-09
3.2584e-09
8.01093e-09
3.73789e-09
8.49191e-09
4.03177e-09
8.93486e-09
3.30447e-09
9.29968e-09
2.0783e-09
9.58323e-09
7.88734e-10
9.78735e-09
-4.38474e-10
9.91683e-09
-1.53564e-09
9.97772e-09
-2.4711e-09
9.97579e-09
-3.22821e-09
9.91622e-09
-3.80055e-09
9.80378e-09
-4.18834e-09
9.64319e-09
-4.39561e-09
9.43931e-09
-4.4292e-09
9.19719e-09
-4.29849e-09
8.92202e-09
-4.01495e-09
8.61895e-09
-3.59146e-09
8.29324e-09
-3.04099e-09
7.95065e-09
-2.37494e-09
7.59872e-09
-1.60101e-09
7.24866e-09
-7.21696e-10
6.91704e-09
2.6057e-10
6.62631e-09
1.32234e-09
6.40624e-09
2.3537e-09
6.30484e-09
3.08486e-09
2.94348e-09
6.23327e-09
4.21547e-09
-5.77736e-10
4.28005e-09
-6.6188e-10
4.41048e-09
-6.63877e-10
4.59171e-09
-6.12404e-10
4.80425e-09
-5.24385e-10
5.03612e-09
-4.1874e-10
5.28063e-09
-3.04155e-10
5.53412e-09
-1.83322e-10
5.79473e-09
-5.63861e-11
6.06162e-09
7.79697e-11
6.33457e-09
2.221e-10
6.61374e-09
3.79239e-10
6.89967e-09
5.53959e-10
7.19338e-09
7.52432e-10
7.49674e-09
9.81144e-10
7.81271e-09
1.24837e-09
8.14528e-09
1.56469e-09
8.50027e-09
1.93841e-09
8.88564e-09
2.36752e-09
9.31109e-09
2.83296e-09
9.7857e-09
3.26327e-09
1.03125e-08
3.50496e-09
1.07984e-08
2.81862e-09
1.11999e-08
1.67675e-09
1.15138e-08
4.74886e-10
1.17416e-08
-6.66305e-10
1.18883e-08
-1.6823e-09
1.19602e-08
-2.54301e-09
1.19637e-08
-3.23173e-09
1.19047e-08
-3.74155e-09
1.17888e-08
-4.07245e-09
1.16218e-08
-4.22857e-09
1.14096e-08
-4.21708e-09
1.11589e-08
-4.04777e-09
1.08766e-08
-3.7326e-09
1.05701e-08
-3.28496e-09
1.02478e-08
-2.7187e-09
9.91988e-09
-2.04704e-09
9.60048e-09
-1.28161e-09
9.31111e-09
-4.32326e-10
9.08457e-09
4.87115e-10
8.96524e-09
1.44167e-09
8.993e-09
2.32594e-09
9.15851e-09
2.91934e-09
2.84416e-09
9.25783e-09
6.66213e-09
-5.50488e-10
6.66418e-09
-6.63936e-10
6.71555e-09
-7.15246e-10
6.82259e-09
-7.19441e-10
6.97645e-09
-6.78243e-10
7.16399e-09
-6.06283e-10
7.37678e-09
-5.16946e-10
7.60866e-09
-4.15199e-10
7.85562e-09
-3.03351e-10
8.11526e-09
-1.8167e-10
8.38623e-09
-4.88694e-11
8.66799e-09
9.74779e-11
8.96065e-09
2.61304e-10
9.26493e-09
4.48153e-10
9.58266e-09
6.63415e-10
9.91686e-09
9.14162e-10
1.02716e-08
1.20991e-09
1.0653e-08
1.5571e-09
1.10691e-08
1.95141e-09
1.15299e-08
2.37209e-09
1.20449e-08
2.7483e-09
1.2617e-08
2.93287e-09
1.31456e-08
2.28999e-09
1.3584e-08
1.23833e-09
1.39285e-08
1.30402e-10
1.41805e-08
-9.18277e-10
1.43448e-08
-1.8466e-09
1.44282e-08
-2.62638e-09
1.44376e-08
-3.24119e-09
1.43799e-08
-3.68379e-09
1.42616e-08
-3.95414e-09
1.40896e-08
-4.05665e-09
1.38716e-08
-3.99905e-09
1.36157e-08
-3.79185e-09
1.33309e-08
-3.44783e-09
1.30274e-08
-2.98145e-09
1.27169e-08
-2.40819e-09
1.24139e-08
-1.74409e-09
1.21382e-08
-1.00588e-09
1.19179e-08
-2.12046e-10
1.17924e-08
6.12614e-10
1.18088e-08
1.4253e-09
1.19959e-08
2.13881e-09
1.23132e-08
2.60205e-09
2.61798e-09
1.25394e-08
9.93467e-09
-5.05836e-10
9.89524e-09
-6.24502e-10
9.8862e-09
-7.06209e-10
9.91972e-09
-7.52955e-10
9.99981e-09
-7.5834e-10
1.01233e-08
-7.29739e-10
1.02821e-08
-6.75816e-10
1.04702e-08
-6.03281e-10
1.06826e-08
-5.15713e-10
1.09157e-08
-4.14754e-10
1.11671e-08
-3.00324e-10
1.14357e-08
-1.71059e-10
1.17209e-08
-2.38926e-11
1.20231e-08
1.45943e-10
1.2344e-08
3.42463e-10
1.26868e-08
5.71394e-10
1.30555e-08
8.41227e-10
1.34561e-08
1.15645e-09
1.38972e-08
1.51031e-09
1.43889e-08
1.88045e-09
1.49404e-08
2.19679e-09
1.55545e-08
2.31871e-09
1.61235e-08
1.72101e-09
1.65971e-08
7.64766e-10
1.6971e-08
-2.43529e-10
1.72463e-08
-1.19358e-09
1.74277e-08
-2.02798e-09
1.75223e-08
-2.72095e-09
1.75377e-08
-3.25664e-09
1.74816e-08
-3.62774e-09
1.73619e-08
-3.83443e-09
1.71869e-08
-3.88165e-09
1.69658e-08
-3.77791e-09
1.67086e-08
-3.53471e-09
1.64268e-08
-3.16602e-09
1.61332e-08
-2.68778e-09
1.58426e-08
-2.11759e-09
1.55731e-08
-1.47464e-09
1.53477e-08
-7.8045e-10
1.51961e-08
-6.04778e-11
1.51544e-08
6.54341e-10
1.52593e-08
1.32043e-09
1.55232e-08
1.87487e-09
1.58954e-08
2.22987e-09
2.29735e-09
1.6216e-08
1.42316e-08
-4.55264e-10
1.4171e-08
-5.63895e-10
1.41218e-08
-6.57059e-10
1.40967e-08
-7.27856e-10
1.41071e-08
-7.6876e-10
1.41578e-08
-7.80386e-10
1.42472e-08
-7.65249e-10
1.43721e-08
-7.28123e-10
1.45286e-08
-6.72247e-10
1.47135e-08
-5.99702e-10
1.49244e-08
-5.1115e-10
1.51595e-08
-4.06196e-10
1.54183e-08
-2.82654e-10
1.57007e-08
-1.3653e-10
1.60087e-08
3.45147e-11
1.63453e-08
2.34754e-10
1.67147e-08
4.71822e-10
1.7123e-08
7.48174e-10
1.75788e-08
1.05447e-09
1.80923e-08
1.36698e-09
1.86725e-08
1.61657e-09
1.93217e-08
1.66955e-09
1.99253e-08
1.11739e-09
2.04296e-08
2.60512e-10
2.08295e-08
-6.43402e-10
2.11253e-08
-1.48946e-09
2.13217e-08
-2.22431e-09
2.14259e-08
-2.82518e-09
2.14464e-08
-3.27717e-09
2.13919e-08
-3.57323e-09
2.12716e-08
-3.71406e-09
2.10953e-08
-3.70536e-09
2.0874e-08
-3.55667e-09
2.062e-08
-3.28069e-09
2.03468e-08
-2.89281e-09
2.00697e-08
-2.41064e-09
1.98059e-08
-1.85388e-09
1.95758e-08
-1.24445e-09
1.94024e-08
-6.07108e-10
1.9312e-08
2.99013e-11
1.93321e-08
6.34294e-10
1.94835e-08
1.16902e-09
1.97654e-08
1.593e-09
2.01323e-08
1.86291e-09
1.9474e-09
2.04823e-08
1.97897e-08
-4.04211e-10
1.97229e-08
-4.97115e-10
1.96527e-08
-5.86913e-10
1.95905e-08
-6.65575e-10
1.95481e-08
-7.26393e-10
1.95338e-08
-7.66132e-10
1.95524e-08
-7.83793e-10
1.9605e-08
-7.80735e-10
1.96913e-08
-7.58546e-10
1.98101e-08
-7.18553e-10
1.99603e-08
-6.61284e-10
2.01409e-08
-5.8685e-10
2.03519e-08
-4.93633e-10
2.05935e-08
-3.78151e-10
2.08681e-08
-2.40014e-10
2.11792e-08
-7.63758e-11
2.15311e-08
1.19924e-10
2.193e-08
3.49215e-10
2.23851e-08
5.99399e-10
2.29063e-08
8.45831e-10
2.35022e-08
1.02063e-09
2.41742e-08
9.97549e-10
2.48023e-08
4.89289e-10
2.5329e-08
-2.66212e-10
2.57482e-08
-1.06254e-09
2.60591e-08
-1.80044e-09
2.6266e-08
-2.43121e-09
2.63766e-08
-2.93572e-09
2.63999e-08
-3.30052e-09
2.63458e-08
-3.51914e-09
2.62249e-08
-3.59314e-09
2.60488e-08
-3.52928e-09
2.58304e-08
-3.33822e-09
2.55837e-08
-3.03402e-09
2.53244e-08
-2.63349e-09
2.50695e-08
-2.15575e-09
2.48377e-08
-1.62208e-09
2.46491e-08
-1.05586e-09
2.45247e-08
-4.82644e-10
2.44844e-08
7.01395e-11
2.45448e-08
5.7394e-10
2.47127e-08
1.00105e-09
2.49785e-08
1.32721e-09
2.53066e-08
1.53482e-09
1.61821e-09
2.56358e-08
2.68901e-08
-3.53108e-10
2.68233e-08
-4.30334e-10
2.67462e-08
-5.09851e-10
2.66664e-08
-5.8572e-10
2.65926e-08
-6.5259e-10
2.6533e-08
-7.06521e-10
2.64943e-08
-7.45171e-10
2.64813e-08
-7.6774e-10
2.6497e-08
-7.74209e-10
2.65432e-08
-7.64776e-10
2.66212e-08
-7.39231e-10
2.67321e-08
-6.97768e-10
2.68773e-08
-6.38868e-10
2.70582e-08
-5.59061e-10
2.72785e-08
-4.60229e-10
2.75428e-08
-3.40714e-10
2.78558e-08
-1.93122e-10
2.82245e-08
-1.94114e-11
2.86585e-08
1.65399e-10
2.91678e-08
3.36484e-10
2.97608e-08
4.2767e-10
3.04375e-08
3.2086e-10
3.10744e-08
-1.47694e-10
3.16108e-08
-8.02567e-10
3.20385e-08
-1.49028e-09
3.23558e-08
-2.11766e-09
3.2566e-08
-2.64142e-09
3.26772e-08
-3.04695e-09
3.26993e-08
-3.32264e-09
3.26432e-08
-3.463e-09
3.25209e-08
-3.47086e-09
3.23458e-08
-3.35422e-09
3.21326e-08
-3.12494e-09
3.18969e-08
-2.79833e-09
3.16558e-08
-2.39238e-09
3.14272e-08
-1.92717e-09
3.12296e-08
-1.42453e-09
3.10814e-08
-9.07614e-10
3.09991e-08
-4.004e-10
3.0996e-08
7.32964e-11
3.10787e-08
4.91232e-10
3.12448e-08
8.34906e-10
3.14804e-08
1.09168e-09
3.17584e-08
1.25683e-09
1.3346e-09
3.2042e-08
3.58602e-08
-2.99515e-10
3.57934e-08
-3.6346e-10
3.5715e-08
-4.31511e-10
3.56292e-08
-4.99851e-10
3.55411e-08
-5.64573e-10
3.54569e-08
-6.22325e-10
3.53825e-08
-6.70681e-10
3.53229e-08
-7.08147e-10
3.52826e-08
-7.33983e-10
3.52657e-08
-7.47795e-10
3.52752e-08
-7.48772e-10
3.53148e-08
-7.37335e-10
3.53877e-08
-7.11854e-10
3.54971e-08
-6.6843e-10
3.56488e-08
-6.11909e-10
3.58494e-08
-5.4133e-10
3.61044e-08
-4.48078e-10
3.64218e-08
-3.36821e-10
3.68129e-08
-2.25677e-10
3.72879e-08
-1.38536e-10
3.78548e-08
-1.39274e-10
3.85127e-08
-3.37022e-10
3.91376e-08
-7.72614e-10
3.96659e-08
-1.33087e-09
4.00873e-08
-1.91169e-09
4.03982e-08
-2.42852e-09
4.06013e-08
-2.84455e-09
4.07051e-08
-3.15073e-09
4.072e-08
-3.33757e-09
4.06579e-08
-3.4009e-09
4.05324e-08
-3.34529e-09
4.03583e-08
-3.18014e-09
4.01517e-08
-2.91835e-09
3.99295e-08
-2.57616e-09
3.97094e-08
-2.17223e-09
3.95089e-08
-1.7267e-09
3.9345e-08
-1.26066e-09
3.92328e-08
-7.95383e-10
3.91839e-08
-3.5151e-10
3.9205e-08
5.22296e-11
3.92962e-08
4.00007e-10
3.94502e-08
6.80947e-10
3.96522e-08
8.89694e-10
3.98817e-08
1.02729e-09
1.10068e-09
4.01156e-08
4.70676e-08
-2.40932e-10
4.69984e-08
-2.94237e-10
4.69189e-08
-3.52007e-10
4.6831e-08
-4.11932e-10
4.67377e-08
-4.71319e-10
4.6643e-08
-5.27591e-10
4.6551e-08
-5.78666e-10
4.64659e-08
-6.2302e-10
4.63917e-08
-6.59788e-10
4.63324e-08
-6.88571e-10
4.6292e-08
-7.0834e-10
4.6275e-08
-7.20319e-10
4.62861e-08
-7.22924e-10
4.63293e-08
-7.11708e-10
4.64132e-08
-6.95774e-10
4.6546e-08
-6.74084e-10
4.67339e-08
-6.36018e-10
4.69871e-08
-5.9001e-10
4.73187e-08
-5.57284e-10
4.77396e-08
-5.59447e-10
4.82578e-08
-6.57467e-10
4.88715e-08
-9.50723e-10
4.94603e-08
-1.36139e-09
4.99594e-08
-1.83004e-09
5.03563e-08
-2.30853e-09
5.06451e-08
-2.71731e-09
5.08282e-08
-3.02765e-09
5.09144e-08
-3.23695e-09
5.09146e-08
-3.3378e-09
5.08415e-08
-3.32776e-09
5.07098e-08
-3.21362e-09
5.05358e-08
-3.00616e-09
5.03365e-08
-2.719e-09
5.01291e-08
-2.36876e-09
4.99308e-08
-1.97395e-09
4.97579e-08
-1.55377e-09
4.96245e-08
-1.12729e-09
4.95418e-08
-7.12717e-10
4.95167e-08
-3.26428e-10
4.95509e-08
1.81189e-11
4.96407e-08
3.1015e-10
4.9777e-08
5.44619e-10
4.99465e-08
7.20185e-10
5.01337e-08
8.40117e-10
9.1125e-10
5.03231e-08
6.09092e-08
-1.76803e-10
6.08366e-08
-2.21712e-10
6.07556e-08
-2.70936e-10
6.06668e-08
-3.23172e-10
6.05722e-08
-3.76688e-10
6.04742e-08
-4.2964e-10
6.03759e-08
-4.80396e-10
6.02806e-08
-5.27628e-10
6.01913e-08
-5.70512e-10
6.01115e-08
-6.0884e-10
6.00447e-08
-6.4154e-10
5.99952e-08
-6.70741e-10
5.99675e-08
-6.95268e-10
5.99664e-08
-7.10565e-10
6.00009e-08
-7.30309e-10
6.00791e-08
-7.52274e-10
6.02082e-08
-7.65093e-10
6.04003e-08
-7.82129e-10
6.067e-08
-8.26988e-10
6.10284e-08
-9.17888e-10
6.14835e-08
-1.11257e-09
6.20329e-08
-1.50014e-09
6.25638e-08
-1.89224e-09
6.30134e-08
-2.27962e-09
6.33671e-08
-2.66227e-09
6.36174e-08
-2.96762e-09
6.37669e-08
-3.17711e-09
6.38251e-08
-3.29519e-09
6.38031e-08
-3.31572e-09
6.37138e-08
-3.23847e-09
6.35732e-08
-3.07302e-09
6.33983e-08
-2.83125e-09
6.32062e-08
-2.52691e-09
6.30137e-08
-2.1763e-09
6.28367e-08
-1.7969e-09
6.26888e-08
-1.40592e-09
6.25811e-08
-1.01959e-09
6.25208e-08
-6.52402e-10
6.25108e-08
-3.16475e-10
6.25492e-08
-2.02389e-11
6.26314e-08
2.27978e-10
6.27478e-08
4.28228e-10
6.28873e-08
5.80643e-10
6.30383e-08
6.89088e-10
7.59453e-10
6.31901e-08
7.78106e-08
-1.0917e-10
7.77365e-08
-1.47639e-10
7.76557e-08
-1.90124e-10
7.75685e-08
-2.35989e-10
7.74761e-08
-2.84242e-10
7.73802e-08
-3.33714e-10
7.7283e-08
-3.83261e-10
7.71874e-08
-4.31941e-10
7.70959e-08
-4.79054e-10
7.70116e-08
-5.24559e-10
7.69379e-08
-5.67829e-10
7.68779e-08
-6.10786e-10
7.68357e-08
-6.53029e-10
7.68188e-08
-6.93688e-10
7.68318e-08
-7.43244e-10
7.68785e-08
-7.99026e-10
7.69719e-08
-8.58466e-10
7.71243e-08
-9.34544e-10
7.73479e-08
-1.05055e-09
7.76529e-08
-1.22297e-09
7.80466e-08
-1.50618e-09
7.85251e-08
-1.97865e-09
7.89861e-08
-2.35326e-09
7.93727e-08
-2.66617e-09
7.96696e-08
-2.95921e-09
7.98685e-08
-3.16648e-09
7.99739e-08
-3.28254e-09
7.99966e-08
-3.31794e-09
7.99469e-08
-3.26595e-09
7.98382e-08
-3.12985e-09
7.96876e-08
-2.92236e-09
7.95119e-08
-2.65556e-09
7.93276e-08
-2.34262e-09
7.91501e-08
-1.99883e-09
7.8993e-08
-1.63979e-09
7.88671e-08
-1.28004e-09
7.878e-08
-9.32443e-10
7.87354e-08
-6.07854e-10
7.87336e-08
-3.14633e-10
7.87713e-08
-5.78968e-11
7.88423e-08
1.56956e-10
7.89387e-08
3.3184e-10
7.90515e-08
4.6786e-10
7.91719e-08
5.68681e-10
6.39126e-10
7.92922e-08
9.82521e-08
-4.15953e-11
9.818e-08
-7.55062e-11
9.8103e-08
-1.13132e-10
9.80213e-08
-1.54284e-10
9.79355e-08
-1.98517e-10
9.78471e-08
-2.4525e-10
9.77576e-08
-2.93828e-10
9.76695e-08
-3.43781e-10
9.75852e-08
-3.94737e-10
9.75073e-08
-4.46739e-10
9.74397e-08
-5.0019e-10
9.7385e-08
-5.56106e-10
9.7347e-08
-6.14994e-10
9.73349e-08
-6.81601e-10
9.7347e-08
-7.55382e-10
9.73865e-08
-8.38521e-10
9.74705e-08
-9.42388e-10
9.76108e-08
-1.0749e-09
9.78133e-08
-1.25301e-09
9.80862e-08
-1.49586e-09
9.84342e-08
-1.85422e-09
9.88502e-08
-2.39467e-09
9.92432e-08
-2.74627e-09
9.95651e-08
-2.98799e-09
9.98006e-08
-3.19476e-09
9.99429e-08
-3.30876e-09
1.00001e-07
-3.34101e-09
9.99875e-08
-3.30407e-09
9.99094e-08
-3.1879e-09
9.97826e-08
-3.00297e-09
9.96243e-08
-2.76412e-09
9.94507e-08
-2.48191e-09
9.92765e-08
-2.16847e-09
9.91152e-08
-1.83751e-09
9.89775e-08
-1.50212e-09
9.88713e-08
-1.17379e-09
9.88009e-08
-8.62115e-10
9.87678e-08
-5.74711e-10
9.87701e-08
-3.16988e-10
9.88043e-08
-9.20214e-11
9.88638e-08
9.73944e-11
9.89422e-08
2.5343e-10
9.90323e-08
3.77764e-10
9.91275e-08
4.73551e-10