/*--------------------------------*- C++ -*----------------------------------*\
| =========                 |                                                 |
| \\      /  F ield         | OpenFOAM: The Open Source CFD Toolbox           |
|  \\    /   O peration     | Version:  2312                                  |
|   \\  /    A nd           | Website:  www.openfoam.com                      |
|    \\/     M anipulation  |                                                 |
\*---------------------------------------------------------------------------*/
FoamFile
{
    version     2.0;
    format      ascii;
    arch        "LSB;label=32;scalar=64";
    class       volVectorField;
    location    "102.25";
    object      U;
}
// * * * * * * * * * * * * * * * * * * * * * * * * * * * * * * * * * * * * * //

dimensions      [0 1 -1 0 0 0 0];

internalField   nonuniform List<vector> 
4800
(
(0.000467783 2.19782e-07 -1.84751e-26)
(0.00046314 2.05904e-07 -1.29935e-25)
(0.000461315 1.82121e-07 1.66599e-25)
(0.000461331 1.68956e-07 7.66942e-26)
(0.000462389 1.69377e-07 1.14778e-24)
(0.000464223 1.46603e-07 -2.74999e-24)
(0.000466718 9.26449e-08 2.59567e-24)
(0.000469854 -1.11862e-09 -3.80754e-24)
(0.000473712 -1.50835e-07 1.20911e-24)
(0.000478474 -3.99851e-07 4.23274e-24)
(0.000484587 -9.04626e-07 -1.30107e-24)
(0.000493377 -2.32144e-06 -1.03463e-25)
(0.000512325 -7.60326e-06 -1.625e-24)
(0.000559479 -2.89422e-05 7.83233e-25)
(0.000635804 -9.25212e-05 -6.29241e-25)
(0.00145101 1.12889e-06 -5.84654e-26)
(0.00143696 6.08875e-07 7.28718e-26)
(0.00143113 1.94286e-07 -6.73165e-25)
(0.00143066 -1.46104e-07 4.99107e-25)
(0.00143314 -4.29263e-07 1.62996e-24)
(0.00143792 -7.57487e-07 -2.63266e-24)
(0.00144462 -1.17655e-06 -7.76407e-25)
(0.00145307 -1.74919e-06 -2.04788e-25)
(0.00146352 -2.57319e-06 6.33851e-24)
(0.00147646 -3.88327e-06 -4.71291e-24)
(0.00149319 -6.35373e-06 5.12508e-25)
(0.00151648 -1.22444e-05 7.98085e-25)
(0.0015555 -2.93834e-05 -1.2002e-24)
(0.00162063 -8.17571e-05 -3.90411e-25)
(0.00168913 -0.00019864 1.60453e-24)
(0.00254226 3.58944e-06 -4.18363e-26)
(0.00251825 1.95405e-06 4.27559e-26)
(0.00250788 6.97685e-07 4.39938e-25)
(0.00250632 -3.55915e-07 -1.04345e-24)
(0.00250957 -1.29089e-06 1.02812e-24)
(0.00251663 -2.33829e-06 9.99284e-25)
(0.00252687 -3.59947e-06 -2.59563e-24)
(0.00253981 -5.2596e-06 -1.6411e-24)
(0.00255575 -7.61237e-06 3.91474e-24)
(0.00257532 -1.12795e-05 1.50945e-24)
(0.00259995 -1.77633e-05 -5.24364e-24)
(0.00263188 -3.10613e-05 -8.32016e-25)
(0.0026753 -6.07716e-05 2.26042e-24)
(0.00272875 -0.000126489 3.65028e-24)
(0.00276661 -0.000235074 -1.89529e-24)
(0.00374746 7.95692e-06 1.54647e-26)
(0.00371323 4.44478e-06 -1.07511e-25)
(0.00369783 1.76174e-06 4.79874e-25)
(0.00369445 -4.69617e-07 5.11953e-25)
(0.0036978 -2.41116e-06 -4.9779e-25)
(0.00370622 -4.62099e-06 -3.00895e-24)
(0.00371905 -7.22162e-06 -2.11322e-24)
(0.00373527 -1.05437e-05 7.84818e-24)
(0.00375509 -1.51568e-05 3.3233e-24)
(0.00377892 -2.20771e-05 -4.72378e-24)
(0.0038076 -3.33934e-05 -1.92478e-24)
(0.00384167 -5.36135e-05 -1.49269e-24)
(0.00388043 -9.06843e-05 3.92942e-26)
(0.00391664 -0.000154622 1.11608e-24)
(0.00393203 -0.000240056 5.46811e-27)
(0.00506982 1.45864e-05 -2.83831e-26)
(0.00502568 8.31978e-06 -1.72891e-25)
(0.00500508 3.5605e-06 -1.09913e-25)
(0.00499919 -3.98643e-07 2.89605e-25)
(0.00500206 -3.71558e-06 -8.30245e-25)
(0.00501089 -7.52598e-06 2.1279e-24)
(0.00502516 -1.19493e-05 -3.71954e-25)
(0.00504318 -1.73927e-05 1.36724e-24)
(0.00506495 -2.47177e-05 -7.5987e-24)
(0.00509037 -3.51752e-05 1.45439e-23)
(0.00511932 -5.09005e-05 -1.41584e-23)
(0.00515072 -7.55482e-05 7.53385e-24)
(0.00518133 -0.000113841 -7.0334e-24)
(0.00520359 -0.000168788 6.64553e-24)
(0.0052073 -0.000232719 -2.64868e-24)
(0.00650808 2.38306e-05 3.74747e-26)
(0.00645552 1.38571e-05 1.33363e-25)
(0.00643023 6.3391e-06 -7.05507e-25)
(0.00642151 2.07623e-07 -4.49413e-25)
(0.00642358 -5.20674e-06 1.19148e-24)
(0.00643215 -1.08806e-05 4.3758e-25)
(0.00644662 -1.74908e-05 -3.47406e-24)
(0.00646497 -2.53631e-05 8.35198e-24)
(0.00648677 -3.55366e-05 -1.09517e-23)
(0.00651133 -4.92643e-05 2.61466e-24)
(0.00653768 -6.82575e-05 8.11695e-24)
(0.0065638 -9.47037e-05 -1.13389e-23)
(0.0065861 -0.000130373 5.69462e-24)
(0.0065991 -0.000174681 5.81906e-24)
(0.00659831 -0.000221444 -4.42844e-24)
(0.00805446 3.57998e-05 3.08778e-26)
(0.0079969 2.1187e-05 -1.8211e-25)
(0.00796862 1.02533e-05 6.52464e-25)
(0.00795793 1.34894e-06 -9.07263e-25)
(0.00795892 -6.48428e-06 -3.11647e-24)
(0.00796715 -1.44839e-05 5.32029e-24)
(0.00798096 -2.3457e-05 -3.27428e-24)
(0.00799848 -3.38681e-05 1.12683e-23)
(0.00801879 -4.67169e-05 -7.66131e-24)
(0.00804073 -6.30429e-05 -3.6213e-24)
(0.00806282 -8.39034e-05 -7.19438e-24)
(0.0080829 -0.000110119 6.62054e-24)
(0.00809818 -0.000141589 1.86755e-24)
(0.00810548 -0.000176497 1.58533e-24)
(0.00810354 -0.000210735 -1.39511e-24)
(0.00969284 5.00111e-05 -4.40159e-26)
(0.00963629 3.00296e-05 5.99055e-25)
(0.0096085 1.51375e-05 -1.39663e-24)
(0.00959803 3.01018e-06 -1.15479e-24)
(0.00959892 -7.58205e-06 4.16889e-25)
(0.00960703 -1.81169e-05 8.42166e-25)
(0.00962012 -2.95255e-05 3.10554e-24)
(0.00963631 -4.23615e-05 -8.55081e-24)
(0.00965437 -5.74505e-05 -4.6446e-24)
(0.0096729 -7.54916e-05 1.2663e-23)
(0.00969037 -9.69028e-05 -3.95561e-24)
(0.00970495 -0.000121588 1.35257e-23)
(0.00971494 -0.000148641 -7.13187e-24)
(0.00971877 -0.000176258 -2.25378e-24)
(0.00971676 -0.000201964 1.33122e-24)
(0.0113987 6.49489e-05 -5.66012e-27)
(0.0113519 3.93441e-05 3.28019e-25)
(0.0113301 2.02217e-05 -4.6776e-25)
(0.0113235 4.69847e-06 1.13073e-24)
(0.0113266 -8.86803e-06 -6.7881e-24)
(0.0113359 -2.19743e-05 7.18448e-24)
(0.0113491 -3.56908e-05 -1.14856e-23)
(0.0113643 -5.06087e-05 7.03843e-24)
(0.0113804 -6.73188e-05 5.29121e-24)
(0.0113958 -8.61653e-05 1.15758e-23)
(0.0114094 -0.000107102 -1.51378e-23)
(0.0114198 -0.000129602 -2.78331e-24)
(0.0114263 -0.000152638 1.32469e-24)
(0.0114282 -0.000174871 9.14993e-24)
(0.0114265 -0.000194903 -3.70503e-24)
(0.0131436 7.7718e-05 2.89511e-26)
(0.0131163 4.69912e-05 -1.3286e-25)
(0.0131072 2.38437e-05 6.10485e-25)
(0.0131092 5.05171e-06 -2.15666e-24)
(0.013118 -1.13376e-05 3.28712e-24)
(0.0131308 -2.68334e-05 -4.28206e-24)
(0.0131458 -4.25213e-05 7.21936e-24)
(0.0131614 -5.89875e-05 1.29859e-24)
(0.0131766 -7.66044e-05 -1.00471e-23)
(0.0131902 -9.54445e-05 1.4354e-23)
(0.0132015 -0.000115224 -1.58428e-23)
(0.0132096 -0.000135336 -4.6207e-24)
(0.0132145 -0.000154949 8.20697e-24)
(0.0132158 -0.000173212 2.4076e-24)
(0.0132148 -0.000189392 -1.04697e-24)
(0.0149063 8.43663e-05 9.48145e-26)
(0.0149057 4.98103e-05 -9.91221e-25)
(0.0149147 2.3412e-05 -1.70143e-24)
(0.0149293 1.86035e-06 3.98959e-24)
(0.014947 -1.68585e-05 1.82255e-24)
(0.0149659 -3.42569e-05 -1.14594e-23)
(0.0149847 -5.1359e-05 3.50708e-24)
(0.0150025 -6.86975e-05 2.54978e-24)
(0.0150185 -8.64872e-05 -1.11548e-23)
(0.0150321 -0.000104656 1.16318e-23)
(0.0150429 -0.000122873 -9.24464e-24)
(0.0150507 -0.000140638 2.38044e-23)
(0.0150556 -0.00015739 -1.1371e-23)
(0.0150577 -0.000172657 6.65295e-24)
(0.0150582 -0.00018609 -1.8039e-24)
(0.0166877 8.16284e-05 -8.16173e-27)
(0.0167127 4.47907e-05 6.10625e-25)
(0.0167402 1.61937e-05 -1.30575e-24)
(0.0167683 -7.28994e-06 -7.07739e-25)
(0.0167958 -2.76234e-05 7.83131e-24)
(0.0168217 -4.62371e-05 -1.09451e-24)
(0.0168455 -6.40521e-05 -1.41164e-23)
(0.0168665 -8.15343e-05 1.65376e-23)
(0.0168847 -9.88206e-05 -3.72319e-24)
(0.0168997 -0.000115812 -1.28805e-23)
(0.0169117 -0.000132245 1.37081e-23)
(0.0169206 -0.000147792 7.2811e-24)
(0.0169269 -0.000162129 -6.25499e-24)
(0.0169307 -0.000175033 -1.06024e-23)
(0.0169332 -0.000186373 8.82125e-25)
(0.0185141 6.96063e-05 -2.95522e-26)
(0.0185545 3.13391e-05 -6.09988e-25)
(0.0185937 1.28153e-06 3.3548e-24)
(0.0186308 -2.34208e-05 3.34394e-25)
(0.018665 -4.4714e-05 2.14428e-24)
(0.0186958 -6.39002e-05 -7.43798e-24)
(0.0187232 -8.17919e-05 6.45165e-24)
(0.0187468 -9.88128e-05 1.48966e-24)
(0.0187669 -0.000115098 1.33107e-23)
(0.0187835 -0.000130605 -2.06048e-23)
(0.0187969 -0.000145186 -9.2723e-24)
(0.0188073 -0.000158678 -6.03179e-24)
(0.0188154 -0.000170938 1.14552e-23)
(0.0188212 -0.000181895 -3.15221e-25)
(0.0188257 -0.000191534 1.08987e-24)
(0.0204135 5.2375e-05 -2.9347e-26)
(0.020456 1.24451e-05 5.07073e-25)
(0.0204967 -1.88766e-05 -7.59853e-25)
(0.0205347 -4.45622e-05 -1.8697e-26)
(0.0205695 -6.6504e-05 1.41925e-24)
(0.0206006 -8.59072e-05 3.72587e-24)
(0.0206279 -0.000103523 -1.44507e-23)
(0.0206514 -0.00011978 1.19248e-24)
(0.0206713 -0.00013487 7.41147e-24)
(0.0206879 -0.000148846 -3.39519e-24)
(0.0207016 -0.000161689 9.28607e-24)
(0.0207126 -0.00017337 6.40458e-24)
(0.0207216 -0.000183866 -1.16658e-23)
(0.0207284 -0.0001932 7.85012e-24)
(0.0207342 -0.000201418 -6.51813e-24)
(0.0223769 3.45158e-05 -7.13127e-25)
(0.0224135 -7.11986e-06 8.34502e-25)
(0.0224487 -3.98328e-05 7.36331e-25)
(0.0224815 -6.65307e-05 -5.50782e-24)
(0.0225115 -8.90566e-05 4.98794e-24)
(0.0225383 -0.000108584 -4.06011e-24)
(0.0225619 -0.000125857 2.86867e-24)
(0.0225822 -0.000141345 -2.11908e-23)
(0.0225996 -0.000155324 3.05916e-23)
(0.0226141 -0.000167955 -1.80547e-23)
(0.0226263 -0.000179331 1.61254e-23)
(0.0226362 -0.000189523 1.33242e-23)
(0.0226445 -0.000198593 -2.32657e-23)
(0.022651 -0.000206615 7.52401e-24)
(0.0226567 -0.000213667 -3.13037e-25)
(0.0243421 1.7681e-05 -2.37581e-26)
(0.0243717 -2.48948e-05 8.9709e-25)
(0.0243998 -5.86343e-05 -1.0101e-24)
(0.0244257 -8.61116e-05 -1.40899e-25)
(0.0244492 -0.000109046 1.81452e-24)
(0.0244701 -0.000128581 -3.28951e-24)
(0.0244885 -0.00014548 3.26321e-24)
(0.0245043 -0.000160268 -1.07325e-23)
(0.0245178 -0.000173299 2.46883e-23)
(0.024529 -0.000184824 -3.18199e-23)
(0.0245385 -0.000195021 2.6128e-23)
(0.0245462 -0.000204029 -8.83088e-24)
(0.0245528 -0.000211965 4.44112e-25)
(0.0245579 -0.000218935 1.96564e-24)
(0.0245625 -0.000225033 -3.80663e-24)
(0.0262066 1.62667e-06 -1.93315e-24)
(0.0262315 -4.09887e-05 4.67641e-24)
(0.026254 -7.49738e-05 -2.98139e-24)
(0.026274 -0.000102643 1.10501e-25)
(0.026292 -0.000125557 1.55227e-24)
(0.0263077 -0.000144809 -1.98738e-24)
(0.0263213 -0.000161177 -2.53853e-24)
(0.026333 -0.000175234 -6.58229e-24)
(0.0263428 -0.00018739 3.00343e-24)
(0.0263509 -0.000197952 1.6221e-23)
(0.0263577 -0.000207148 -8.65824e-24)
(0.0263631 -0.000215162 5.22528e-24)
(0.0263677 -0.000222139 -2.15965e-24)
(0.0263712 -0.000228204 -6.35566e-24)
(0.0263743 -0.000233458 3.24697e-24)
(0.0278437 -1.47805e-05 6.3685e-25)
(0.0278654 -5.62778e-05 -1.23163e-24)
(0.0278841 -8.96969e-05 -2.27627e-24)
(0.0279001 -0.000116905 5.11404e-24)
(0.027914 -0.000139294 -1.56563e-24)
(0.027926 -0.00015791 8.42311e-26)
(0.0279362 -0.000173536 -1.13855e-24)
(0.0279448 -0.000186761 -1.71554e-24)
(0.0279519 -0.00019802 1.37714e-24)
(0.0279577 -0.000207649 -2.1804e-24)
(0.0279624 -0.000215902 4.992e-24)
(0.027966 -0.000222984 2.71983e-24)
(0.027969 -0.000229054 -1.00707e-23)
(0.0279711 -0.000234245 7.02235e-24)
(0.0279729 -0.000238659 -1.44184e-24)
(0.0290976 -3.23193e-05 1.90626e-24)
(0.0291172 -7.16818e-05 4.10726e-24)
(0.0291332 -0.000103693 -8.76385e-24)
(0.0291463 -0.000129778 -3.1889e-24)
(0.0291573 -0.000151159 6.1686e-24)
(0.0291664 -0.000168802 2.12024e-24)
(0.0291738 -0.00018347 -9.2659e-25)
(0.0291797 -0.000195736 -2.20007e-24)
(0.0291844 -0.000206032 1.70375e-24)
(0.029188 -0.000214695 -4.73464e-24)
(0.0291906 -0.000221986 3.43325e-24)
(0.0291923 -0.000228111 -2.84167e-25)
(0.0291934 -0.000233231 -2.93645e-25)
(0.0291938 -0.000237479 4.1508e-25)
(0.0291939 -0.000240955 -1.97247e-25)
(0.0297653 -4.99132e-05 -5.10246e-24)
(0.0297797 -8.56832e-05 -1.24561e-23)
(0.02979 -0.00011497 4.61849e-24)
(0.0297974 -0.000138873 2.60905e-23)
(0.0298027 -0.000158415 -7.80852e-24)
(0.0298063 -0.00017446 -4.88161e-24)
(0.0298087 -0.00018769 3.1578e-24)
(0.02981 -0.000198631 7.18373e-24)
(0.0298104 -0.000207688 -1.23737e-23)
(0.0298101 -0.000215179 4.43592e-24)
(0.0298091 -0.000221345 3.06745e-25)
(0.0298075 -0.000226382 4.68366e-25)
(0.0298055 -0.000230436 -7.52632e-25)
(0.0298031 -0.000233632 1.48114e-24)
(0.0298004 -0.000236061 -7.80071e-25)
(0.0296074 -6.75345e-05 8.22306e-24)
(0.0296191 -9.84723e-05 -1.93439e-23)
(0.0296271 -0.000123817 2.76335e-24)
(0.0296323 -0.000144508 3.19147e-23)
(0.0296355 -0.000161417 -3.2427e-23)
(0.0296372 -0.000175257 1.28529e-23)
(0.0296376 -0.000186591 1.29374e-23)
(0.029637 -0.000195868 -3.03393e-23)
(0.0296356 -0.000203434 1.85158e-25)
(0.0296334 -0.00020956 1.03942e-23)
(0.0296306 -0.000214453 2.88091e-24)
(0.0296274 -0.000218277 -1.77038e-24)
(0.0296236 -0.00022116 1.33767e-24)
(0.0296195 -0.000223209 -3.16893e-25)
(0.029615 -0.000224504 5.14634e-26)
(0.0286471 -7.91829e-05 5.15859e-24)
(0.028653 -0.000105549 -1.10048e-23)
(0.0286559 -0.000127238 -8.05624e-24)
(0.0286568 -0.000145004 3.78638e-23)
(0.028656 -0.000159542 -3.57193e-23)
(0.028654 -0.000171421 3.46764e-24)
(0.028651 -0.000181092 6.32208e-24)
(0.0286472 -0.000188922 3.90055e-24)
(0.0286427 -0.000195193 4.10101e-24)
(0.0286376 -0.000200129 -2.16975e-23)
(0.0286321 -0.000203897 1.36664e-23)
(0.0286262 -0.000206638 3.91905e-25)
(0.0286198 -0.00020846 5.98474e-24)
(0.0286132 -0.000209456 -2.72618e-24)
(0.0286062 -0.000209697 -4.59598e-25)
(0.0271326 -8.44328e-05 1.29177e-23)
(0.0271352 -0.000106797 -2.30402e-23)
(0.0271348 -0.000125277 4.67377e-24)
(0.0271324 -0.000140461 -1.16756e-23)
(0.0271284 -0.000152895 -1.56473e-23)
(0.0271232 -0.000163022 5.22645e-23)
(0.027117 -0.000171202 -2.06505e-23)
(0.0271101 -0.000177724 6.03987e-24)
(0.0271026 -0.000182817 -3.43964e-24)
(0.0270946 -0.000186661 -9.29491e-24)
(0.0270861 -0.000189396 1.77858e-23)
(0.0270773 -0.000191141 -1.01825e-23)
(0.0270681 -0.000191991 1.29931e-24)
(0.0270588 -0.000192027 1.54293e-24)
(0.0270491 -0.000191311 -1.6582e-25)
(0.0252766 -8.67515e-05 4.99625e-24)
(0.025275 -0.000105143 -2.59099e-23)
(0.0252706 -0.000120384 4.50947e-23)
(0.0252644 -0.000132931 -3.45548e-23)
(0.0252565 -0.0001432 3.48274e-23)
(0.0252476 -0.000151526 -1.14506e-23)
(0.0252378 -0.000158188 -7.98398e-24)
(0.0252273 -0.000163408 -8.92176e-24)
(0.0252162 -0.000167358 1.60888e-23)
(0.0252048 -0.000170174 -3.19947e-25)
(0.025193 -0.000171966 -1.56765e-23)
(0.0251809 -0.000172828 -2.06969e-24)
(0.0251686 -0.000172841 3.66574e-24)
(0.0251562 -0.000172076 -7.83107e-25)
(0.0251435 -0.000170589 1.63569e-25)
(0.0232255 -8.43224e-05 6.66462e-25)
(0.0232188 -9.91617e-05 -9.74175e-24)
(0.0232095 -0.000111502 -5.4476e-24)
(0.0231987 -0.000121669 4.45202e-23)
(0.0231866 -0.00012997 -4.37945e-23)
(0.0231735 -0.000136661 1.28048e-23)
(0.0231596 -0.000141953 2.16537e-24)
(0.0231453 -0.000146012 -1.14e-24)
(0.0231305 -0.00014896 -5.39187e-24)
(0.0231154 -0.0001509 2.34667e-23)
(0.0231001 -0.000151917 -1.87257e-23)
(0.0230847 -0.000152088 -8.48087e-25)
(0.0230691 -0.000151481 1.60915e-24)
(0.0230536 -0.000150153 1.31722e-24)
(0.0230379 -0.000148152 -1.0187e-24)
(0.0210817 -7.75344e-05 9.92932e-25)
(0.0210698 -8.9332e-05 9.03904e-24)
(0.0210558 -9.91812e-05 -1.03774e-23)
(0.0210406 -0.00010731 -7.14738e-24)
(0.0210244 -0.000113939 4.53931e-23)
(0.0210075 -0.000119254 -3.47178e-23)
(0.02099 -0.000123406 -7.97033e-25)
(0.0209722 -0.000126511 -7.13771e-24)
(0.0209542 -0.000128665 -5.59565e-25)
(0.0209361 -0.000129947 1.03073e-24)
(0.0209178 -0.000130426 -3.77938e-24)
(0.0208997 -0.000130162 3.11647e-24)
(0.0208815 -0.000129204 1.09269e-24)
(0.0208636 -0.000127596 9.63847e-25)
(0.0208457 -0.000125377 1.03094e-24)
(0.0189224 -6.76272e-05 7.07941e-24)
(0.0189065 -7.6947e-05 -1.08449e-23)
(0.0188891 -8.47574e-05 -8.63842e-24)
(0.0188708 -9.12352e-05 2.63385e-23)
(0.0188517 -9.65408e-05 -9.43512e-24)
(0.0188321 -0.000100799 -1.3157e-23)
(0.0188122 -0.000104108 4.60931e-24)
(0.0187921 -0.00010655 1.0201e-23)
(0.018772 -0.000108194 -1.61628e-23)
(0.0187519 -0.000109098 1.59516e-23)
(0.018732 -0.000109313 -8.46724e-24)
(0.0187122 -0.000108881 3.59372e-24)
(0.0186926 -0.000107841 -4.60819e-24)
(0.0186734 -0.000106229 4.52274e-24)
(0.0186546 -0.000104077 -1.06675e-24)
(0.0168081 -5.63629e-05 -1.37417e-24)
(0.0167901 -6.37322e-05 -4.74388e-24)
(0.0167709 -6.99589e-05 -1.5041e-23)
(0.0167511 -7.51883e-05 4.19877e-23)
(0.0167306 -7.95162e-05 -7.57039e-24)
(0.0167098 -8.30131e-05 -1.1754e-23)
(0.0166889 -8.57411e-05 4.01989e-24)
(0.0166679 -8.77575e-05 -5.8394e-24)
(0.0166469 -8.91118e-05 -1.24846e-23)
(0.0166261 -8.98457e-05 1.203e-23)
(0.0166056 -8.9995e-05 5.73639e-25)
(0.0165853 -8.95933e-05 -3.77027e-24)
(0.0165654 -8.86699e-05 4.3027e-24)
(0.016546 -8.72548e-05 2.5426e-25)
(0.016527 -8.53728e-05 -3.2275e-25)
(0.0147824 -4.53069e-05 5.28858e-24)
(0.0147639 -5.11673e-05 7.72196e-24)
(0.0147446 -5.61797e-05 -7.25426e-24)
(0.0147246 -6.04557e-05 -1.56582e-23)
(0.0147041 -6.40386e-05 2.09703e-23)
(0.0146833 -6.69663e-05 -2.28467e-23)
(0.0146624 -6.92798e-05 -8.23816e-25)
(0.0146414 -7.10182e-05 8.80042e-24)
(0.0146205 -7.22148e-05 3.04394e-24)
(0.0145998 -7.2898e-05 -6.23102e-24)
(0.0145794 -7.30939e-05 3.06628e-26)
(0.0145593 -7.28276e-05 1.26615e-23)
(0.0145396 -7.21209e-05 -4.83167e-24)
(0.0145205 -7.0996e-05 -1.21616e-24)
(0.0145019 -6.94705e-05 -7.52494e-26)
(0.0128723 -3.53942e-05 -5.49475e-24)
(0.0128546 -4.00508e-05 7.06787e-24)
(0.012836 -4.40933e-05 7.82163e-25)
(0.0128168 -4.7601e-05 1.41092e-23)
(0.012797 -5.05803e-05 -1.1538e-23)
(0.0127769 -5.30499e-05 8.82103e-25)
(0.0127565 -5.50361e-05 -1.24812e-24)
(0.0127361 -5.65633e-05 -3.57333e-24)
(0.0127158 -5.76529e-05 3.07877e-24)
(0.0126956 -5.83241e-05 -9.94707e-24)
(0.0126756 -5.85957e-05 7.04343e-25)
(0.0126559 -5.84857e-05 2.35939e-24)
(0.0126366 -5.80092e-05 1.46514e-24)
(0.0126179 -5.71819e-05 5.71689e-25)
(0.0125997 -5.60152e-05 2.06907e-25)
(0.0110911 -2.69575e-05 4.0716e-24)
(0.0110746 -3.06184e-05 -3.22571e-24)
(0.0110573 -3.38562e-05 -1.40438e-23)
(0.0110392 -3.67106e-05 1.31838e-23)
(0.0110205 -3.9165e-05 1.82425e-23)
(0.0110014 -4.12286e-05 -4.69268e-24)
(0.010982 -4.29177e-05 -9.40721e-24)
(0.0109624 -4.42467e-05 -1.3067e-23)
(0.0109427 -4.52288e-05 9.83478e-24)
(0.0109231 -4.58771e-05 5.67722e-25)
(0.0109036 -4.62049e-05 -2.19351e-24)
(0.0108844 -4.62242e-05 -5.92624e-25)
(0.0108656 -4.59447e-05 1.21984e-24)
(0.0108472 -4.53767e-05 -4.01224e-26)
(0.0108293 -4.45269e-05 -2.38296e-25)
(0.00944194 -1.99925e-05 -2.56394e-24)
(0.00942704 -2.28164e-05 -1.80855e-24)
(0.00941121 -2.53663e-05 2.22616e-24)
(0.0093945 -2.76408e-05 -6.95812e-24)
(0.00937708 -2.9616e-05 2.28111e-23)
(0.00935911 -3.12983e-05 -3.0118e-23)
(0.00934072 -3.26973e-05 2.94349e-23)
(0.00932204 -3.38206e-05 -1.24391e-23)
(0.00930319 -3.46764e-05 2.80691e-24)
(0.00928429 -3.52732e-05 3.16518e-26)
(0.00926545 -3.562e-05 -2.18688e-24)
(0.00924678 -3.57241e-05 7.38328e-25)
(0.00922837 -3.55913e-05 -1.66484e-24)
(0.00921034 -3.52274e-05 -2.21687e-25)
(0.00919276 -3.46362e-05 1.12082e-25)
(0.00792265 -1.43643e-05 -1.24674e-24)
(0.00790942 -1.64848e-05 3.23352e-25)
(0.00789517 -1.84374e-05 6.93068e-25)
(0.00787997 -2.01907e-05 -3.18268e-24)
(0.00786396 -2.17258e-05 -1.41449e-24)
(0.00784731 -2.30484e-05 1.23491e-23)
(0.00783013 -2.41633e-05 -7.2488e-24)
(0.00781257 -2.50742e-05 1.02888e-24)
(0.00779474 -2.57858e-05 -9.97611e-25)
(0.00777675 -2.63036e-05 -1.06895e-24)
(0.00775873 -2.6633e-05 -3.08427e-25)
(0.00774079 -2.6778e-05 2.02456e-24)
(0.00772302 -2.67418e-05 5.17305e-25)
(0.00770554 -2.65269e-05 -1.20511e-24)
(0.00768843 -2.61352e-05 -1.87344e-25)
(0.00652786 -9.91214e-06 -4.53779e-25)
(0.00651636 -1.14485e-05 -1.47753e-25)
(0.00650381 -1.28847e-05 -7.25412e-24)
(0.00649025 -1.41771e-05 1.94724e-24)
(0.00647584 -1.53169e-05 -5.14993e-24)
(0.00646072 -1.6309e-05 3.65729e-24)
(0.00644502 -1.71551e-05 6.83527e-24)
(0.00642885 -1.78566e-05 5.08184e-24)
(0.00641233 -1.84163e-05 -7.10906e-24)
(0.00639559 -1.88372e-05 2.14039e-24)
(0.00637872 -1.91222e-05 1.81215e-24)
(0.00636184 -1.92732e-05 -2.593e-24)
(0.00634506 -1.92917e-05 1.38054e-24)
(0.00632848 -1.91782e-05 -1.06022e-25)
(0.00631219 -1.89334e-05 3.52186e-25)
(0.00525088 -6.48445e-06 -1.77915e-24)
(0.00524117 -7.54546e-06 -2.42124e-24)
(0.00523041 -8.54462e-06 -4.21677e-25)
(0.00521867 -9.44297e-06 6.0103e-24)
(0.00520608 -1.02408e-05 -4.22664e-24)
(0.00519276 -1.09416e-05 -8.02614e-25)
(0.00517883 -1.15455e-05 6.75286e-24)
(0.0051644 -1.20529e-05 5.05531e-27)
(0.00514958 -1.24649e-05 -1.36473e-24)
(0.00513448 -1.27829e-05 -4.9381e-24)
(0.00511919 -1.30084e-05 5.55192e-25)
(0.00510383 -1.3142e-05 3.37805e-24)
(0.00508848 -1.31842e-05 -4.3405e-25)
(0.00507327 -1.31345e-05 -4.67647e-25)
(0.00505826 -1.29925e-05 3.09982e-25)
(0.0040845 -3.94108e-06 -3.89325e-25)
(0.00407663 -4.62725e-06 2.45342e-26)
(0.00406777 -5.27065e-06 2.89102e-24)
(0.00405801 -5.84768e-06 1.91416e-24)
(0.00404745 -6.36374e-06 -1.34149e-24)
(0.00403621 -6.82091e-06 -3.26662e-24)
(0.00402437 -7.21875e-06 1.31049e-24)
(0.00401203 -7.55693e-06 -5.48287e-24)
(0.0039993 -7.83572e-06 4.2186e-24)
(0.00398626 -8.05553e-06 2.14534e-24)
(0.00397301 -8.21699e-06 -1.7978e-26)
(0.00395964 -8.32004e-06 -2.33215e-24)
(0.00394623 -8.36468e-06 4.21753e-25)
(0.00393288 -8.35e-06 -3.20046e-25)
(0.00391967 -8.27514e-06 1.59721e-25)
(0.00302145 -2.14843e-06 -7.17858e-25)
(0.00301543 -2.55523e-06 1.75686e-26)
(0.00300854 -2.9276e-06 2.32321e-24)
(0.00300089 -3.25985e-06 -1.45123e-24)
(0.00299255 -3.55855e-06 5.91225e-24)
(0.0029836 -3.82479e-06 -1.07497e-23)
(0.00297413 -4.05809e-06 8.71067e-24)
(0.00296422 -4.25799e-06 -7.23015e-24)
(0.00295393 -4.42441e-06 5.16671e-24)
(0.00294335 -4.55737e-06 -3.29611e-24)
(0.00293256 -4.65708e-06 1.13038e-24)
(0.00292162 -4.72332e-06 1.62995e-25)
(0.00291061 -4.75604e-06 2.58471e-25)
(0.00289962 -4.75447e-06 -3.1925e-25)
(0.00288871 -4.71762e-06 6.60791e-26)
(0.00205456 -9.76175e-07 1.09099e-24)
(0.00205035 -1.18832e-06 1.16979e-24)
(0.00204547 -1.37229e-06 -5.00809e-24)
(0.00203999 -1.53444e-06 3.65121e-24)
(0.00203399 -1.67947e-06 -3.99797e-26)
(0.00202751 -1.80803e-06 9.22687e-25)
(0.00202061 -1.92007e-06 -1.13745e-24)
(0.00201336 -2.01558e-06 -2.34877e-24)
(0.0020058 -2.09472e-06 2.32311e-24)
(0.001998 -2.15769e-06 2.37308e-25)
(0.00199001 -2.20479e-06 -1.83227e-24)
(0.00198188 -2.23607e-06 6.56295e-25)
(0.00197368 -2.2517e-06 3.88822e-25)
(0.00196545 -2.25095e-06 -4.55155e-26)
(0.00195726 -2.23223e-06 -4.44684e-26)
(0.0011769 -2.944e-07 -1.10277e-24)
(0.00117441 -3.54626e-07 3.3628e-24)
(0.00117149 -4.06122e-07 1.98363e-24)
(0.00116821 -4.53715e-07 -3.59257e-24)
(0.00116458 -4.97609e-07 -4.19796e-25)
(0.00116065 -5.37497e-07 -3.70119e-25)
(0.00115645 -5.73388e-07 1.11924e-24)
(0.00115201 -6.05451e-07 -1.88197e-24)
(0.00114737 -6.33964e-07 2.54256e-24)
(0.00114257 -6.59191e-07 -1.24382e-24)
(0.00113762 -6.81439e-07 -7.99549e-25)
(0.00113258 -7.00843e-07 4.81228e-25)
(0.00112748 -7.17586e-07 -5.68664e-25)
(0.00112234 -7.29566e-07 5.70101e-25)
(0.00111722 -7.32606e-07 -9.64058e-26)
(0.00038177 1.49035e-08 -7.91947e-27)
(0.000380878 1.0647e-07 6.56567e-25)
(0.000379841 1.71547e-07 7.45283e-25)
(0.00037868 2.12503e-07 -1.17432e-24)
(0.000377405 2.33469e-07 2.40954e-24)
(0.000376024 2.37761e-07 -2.61459e-24)
(0.000374549 2.28137e-07 1.69523e-25)
(0.000372988 2.07006e-07 1.41502e-24)
(0.000371354 1.76506e-07 -1.95548e-24)
(0.000369657 1.38572e-07 -3.47634e-25)
(0.00036791 9.49138e-08 1.33014e-24)
(0.000366123 4.71003e-08 -5.84943e-25)
(0.000364309 -3.49116e-09 -2.15186e-25)
(0.000362481 -5.41705e-08 1.79859e-25)
(0.00036065 -1.01148e-07 -8.01173e-27)
(0.00094085 -0.000231146 6.25946e-26)
(0.00108187 -0.000137886 1.47492e-24)
(0.00132005 -4.54186e-05 -4.05561e-24)
(0.00156481 2.75872e-05 5.52983e-24)
(0.00180163 8.30687e-05 -2.06769e-24)
(0.00203508 0.000121778 -1.74506e-24)
(0.00226465 0.000146261 1.87935e-24)
(0.00249043 0.000158671 -3.47687e-24)
(0.00271272 0.000160861 3.15025e-25)
(0.00293177 0.000154481 2.05939e-24)
(0.00314788 0.000140996 -3.69026e-25)
(0.00336139 0.000121714 3.79597e-25)
(0.00357269 9.78272e-05 -4.5982e-26)
(0.00378214 7.0528e-05 1.83155e-25)
(0.00399026 4.11312e-05 -6.53946e-25)
(0.00419766 1.13118e-05 3.37496e-25)
(0.00440561 -1.6755e-05 -5.39127e-26)
(0.00461589 -4.01817e-05 3.09522e-26)
(0.00483216 -5.57263e-05 3.23249e-27)
(0.00505896 -5.97911e-05 1.4133e-26)
(0.00530347 -5.06441e-05 -7.28945e-27)
(0.00557163 -2.89903e-05 6.42618e-27)
(0.00584406 -3.98947e-06 -5.3219e-27)
(0.00608693 1.20354e-05 6.63577e-27)
(0.0062874 1.51363e-05 -8.18833e-27)
(0.00644485 5.30633e-06 -2.54381e-26)
(0.00656092 -1.67056e-05 1.11727e-26)
(0.0066382 -5.02536e-05 2.10724e-26)
(0.00667866 -9.45295e-05 -2.33762e-25)
(0.00668292 -0.000147964 5.44324e-25)
(0.00665059 -0.000208264 -1.4809e-24)
(0.00658147 -0.000271637 2.20923e-24)
(0.00647501 -0.000331671 -9.95151e-25)
(0.00633076 -0.000381403 -2.32834e-24)
(0.00614928 -0.000412659 2.30956e-24)
(0.00593175 -0.000416262 9.92531e-24)
(0.00567992 -0.000381965 -3.37795e-24)
(0.00539601 -0.000297769 1.75788e-24)
(0.00508299 -0.00014842 7.09027e-25)
(0.00474478 8.66105e-05 -1.21487e-23)
(0.00438631 0.000429695 -1.42938e-25)
(0.00401405 0.000896833 4.73371e-24)
(0.00361528 0.00145335 1.33511e-24)
(0.00321006 0.0019589 -6.47959e-24)
(0.00298342 0.00201239 -3.06947e-25)
(0.00178364 -0.000315964 -1.77287e-24)
(0.00184446 -0.000260703 -2.25579e-24)
(0.00199481 -0.000172055 4.8588e-24)
(0.0021832 -9.19614e-05 1.9541e-24)
(0.0023843 -2.59297e-05 -6.78452e-24)
(0.00259277 2.37223e-05 6.84957e-24)
(0.00280394 5.84163e-05 -2.40282e-24)
(0.00301544 8.01093e-05 1.67737e-24)
(0.00322613 9.06435e-05 -2.23132e-24)
(0.00343542 9.17299e-05 3.48961e-26)
(0.00364303 8.49186e-05 -1.0344e-24)
(0.0038489 7.15997e-05 2.02111e-24)
(0.00405309 5.30467e-05 -1.06623e-24)
(0.00425571 3.05227e-05 -7.99535e-25)
(0.00445703 5.39861e-06 -3.37465e-25)
(0.00465739 -2.06295e-05 9.49662e-25)
(0.00485777 -4.53913e-05 3.90775e-27)
(0.00505953 -6.60616e-05 1.90702e-25)
(0.00526588 -7.9478e-05 -5.27207e-26)
(0.00548072 -8.21226e-05 -2.72717e-27)
(0.00571071 -7.2239e-05 1.85777e-26)
(0.0059615 -5.02411e-05 1.17607e-26)
(0.0062158 -2.47545e-05 -3.47373e-26)
(0.00644309 -7.51189e-06 2.12844e-26)
(0.00663169 -2.29664e-06 2.3673e-26)
(0.00678087 -9.21467e-06 -1.07761e-25)
(0.00689176 -2.7594e-05 1.32093e-25)
(0.00696642 -5.67569e-05 -1.42296e-26)
(0.00700647 -9.57234e-05 1.20327e-27)
(0.00701223 -0.000142676 2.2302e-25)
(0.00698331 -0.000195185 -2.44305e-24)
(0.0069197 -0.00024946 5.15458e-24)
(0.00682121 -0.000298957 -5.47103e-24)
(0.00668776 -0.00033681 1.32961e-23)
(0.00652055 -0.000354998 -1.8565e-23)
(0.00632167 -0.00034451 4.74813e-24)
(0.0060942 -0.000295317 1.63553e-23)
(0.00584239 -0.000195828 -5.006e-24)
(0.00557238 -3.16708e-05 -1.21204e-23)
(0.00529353 0.000215681 -6.76072e-24)
(0.00502081 0.000568696 1.53969e-23)
(0.00477931 0.00104192 -1.43471e-23)
(0.00459203 0.00160211 -2.68828e-24)
(0.00450588 0.00209994 8.63689e-24)
(0.00454204 0.00209647 2.47974e-24)
(0.0027845 -0.000326255 -1.9676e-26)
(0.00279624 -0.000314722 -2.65856e-24)
(0.00286389 -0.000260125 5.03189e-24)
(0.00298549 -0.000191126 3.72215e-24)
(0.00313576 -0.000125697 -6.25618e-24)
(0.00330522 -7.12948e-05 1.49913e-25)
(0.00348615 -2.9711e-05 5.29545e-25)
(0.00367358 -4.83478e-07 5.21747e-24)
(0.00386456 1.75232e-05 -6.12532e-24)
(0.00405726 2.57016e-05 3.52922e-24)
(0.00425056 2.54778e-05 9.0979e-25)
(0.00444374 1.82056e-05 -5.39214e-24)
(0.0046364 5.16886e-06 1.92729e-24)
(0.00482825 -1.23407e-05 6.73583e-25)
(0.0050192 -3.29234e-05 -1.16742e-24)
(0.00520927 -5.488e-05 1.61406e-24)
(0.00539905 -7.60651e-05 -9.06453e-25)
(0.00558943 -9.37216e-05 1.00443e-25)
(0.00578308 -0.000104778 9.14002e-26)
(0.00598323 -0.000105805 1.40803e-26)
(0.0061959 -9.50334e-05 3.00762e-27)
(0.00642631 -7.25927e-05 -2.65469e-26)
(0.0066594 -4.65824e-05 3.07991e-26)
(0.00686827 -2.81309e-05 -4.91936e-26)
(0.00704251 -2.08243e-05 -1.74336e-26)
(0.00718129 -2.4838e-05 2.83337e-26)
(0.00728526 -3.95654e-05 -4.30271e-26)
(0.00735593 -6.42901e-05 2.99977e-26)
(0.00739452 -9.78661e-05 5.12398e-25)
(0.00740104 -0.000138211 6.46553e-25)
(0.00737516 -0.000182793 1.36471e-24)
(0.007317 -0.000227849 -5.96658e-24)
(0.00722676 -0.000266697 2.40977e-24)
(0.00710478 -0.000292642 6.77592e-24)
(0.00695293 -0.000297937 -1.56398e-23)
(0.00677427 -0.00027395 2.31174e-23)
(0.00657322 -0.00021125 -1.49641e-23)
(0.00635607 -9.93079e-05 1.94583e-23)
(0.00613184 7.41672e-05 -3.64614e-23)
(0.00591449 0.000323675 1.37286e-23)
(0.00572571 0.000665067 4.56646e-24)
(0.00559933 0.00110402 6.7174e-24)
(0.00556896 0.00160064 -8.33054e-24)
(0.0056673 0.00201369 2.07209e-24)
(0.00582662 0.00199681 -1.20557e-24)
(0.00392301 -0.000311694 -7.21752e-25)
(0.00390846 -0.000326932 -1.03011e-24)
(0.00392378 -0.000304398 -4.22828e-24)
(0.0039812 -0.000259346 1.42886e-24)
(0.0040757 -0.000205342 9.25213e-25)
(0.004197 -0.000154376 3.01212e-24)
(0.00433758 -0.000111402 -5.65394e-24)
(0.00449131 -7.81779e-05 2.29617e-24)
(0.00465386 -5.49214e-05 6.63342e-24)
(0.00482223 -4.10142e-05 -1.8184e-24)
(0.00499433 -3.54489e-05 -1.56443e-24)
(0.00516871 -3.71008e-05 -2.32491e-25)
(0.00534435 -4.47999e-05 6.87322e-25)
(0.00552046 -5.73071e-05 -1.25832e-24)
(0.00569654 -7.32495e-05 3.28393e-25)
(0.00587215 -9.09636e-05 -6.75849e-27)
(0.00604748 -0.000108352 -1.66945e-25)
(0.00622288 -0.000122756 2.63686e-25)
(0.00640042 -0.000131216 6.34564e-26)
(0.00658255 -0.000130414 -4.49515e-26)
(0.0067746 -0.00011859 6.32497e-26)
(0.00698121 -9.5604e-05 2.0664e-26)
(0.00718964 -6.90474e-05 5.73821e-26)
(0.00737689 -4.94209e-05 -5.47993e-26)
(0.00753392 -4.00776e-05 -6.53048e-26)
(0.00765982 -4.12275e-05 3.82397e-26)
(0.00775478 -5.2312e-05 -9.61747e-28)
(0.00781972 -7.25745e-05 -1.29085e-25)
(0.00785552 -0.000100707 5.6936e-25)
(0.00786172 -0.000134333 1.32688e-25)
(0.00783832 -0.000170953 -9.41034e-25)
(0.00778529 -0.000206793 -2.22997e-25)
(0.00770338 -0.000235102 -2.67441e-25)
(0.00759332 -0.000249478 -1.73693e-24)
(0.00745765 -0.00024262 2.78803e-24)
(0.00730036 -0.000206549 -6.76363e-24)
(0.00712711 -0.000132863 2.98761e-23)
(0.00694583 -1.27515e-05 -1.60338e-23)
(0.00676765 0.000162925 -8.72459e-25)