/*--------------------------------*- C++ -*----------------------------------*\
| =========                 |                                                 |
| \\      /  F ield         | OpenFOAM: The Open Source CFD Toolbox           |
|  \\    /   O peration     | Version:  2312                                  |
|   \\  /    A nd           | Website:  www.openfoam.com                      |
|    \\/     M anipulation  |                                                 |
\*---------------------------------------------------------------------------*/
FoamFile
{
    version     2.0;
    format      ascii;
    arch        "LSB;label=32;scalar=64";
    class       surfaceScalarField;
    location    "199.25";
    object      phi;
}
// * * * * * * * * * * * * * * * * * * * * * * * * * * * * * * * * * * * * * //

dimensions      [0 3 -1 0 0 0 0];

oriented        oriented;

internalField   nonuniform List<scalar> 
9445
(
6.12083e-10
1.36037e-11
6.03277e-10
8.80555e-12
5.97631e-10
5.64655e-12
5.94247e-10
3.38405e-12
5.92604e-10
1.64243e-12
5.92428e-10
1.76645e-13
5.93645e-10
-1.21757e-12
5.9614e-10
-2.49503e-12
6.0003e-10
-3.89012e-12
6.05821e-10
-5.79021e-12
6.14633e-10
-8.81201e-12
6.30097e-10
-1.54647e-11
6.65171e-10
-3.50733e-11
7.66066e-10
-1.00895e-10
-2.65102e-10
1.03117e-09
2.13315e-09
6.07869e-11
2.10201e-09
3.99476e-11
2.08152e-09
2.61313e-11
2.06869e-09
1.62126e-11
2.06175e-09
8.58835e-12
2.05972e-09
2.20198e-12
2.06216e-09
-3.65485e-12
2.06868e-09
-9.01507e-12
2.07974e-09
-1.49515e-11
2.09668e-09
-2.27324e-11
2.12237e-09
-3.44997e-11
2.16385e-09
-5.69403e-11
2.23502e-09
-1.06251e-10
2.34976e-09
-2.15627e-10
-3.87523e-10
2.47218e-09
4.20356e-09
1.52586e-10
4.14208e-09
1.01429e-10
4.10085e-09
6.73547e-11
4.07421e-09
4.28582e-11
4.05872e-09
2.40731e-11
4.0525e-09
8.4271e-12
4.05434e-09
-5.4978e-12
4.06354e-09
-1.82168e-11
4.08067e-09
-3.20792e-11
4.10733e-09
-4.9389e-11
4.14625e-09
-7.34233e-11
4.20222e-09
-1.12904e-10
4.27817e-09
-1.82201e-10
4.36007e-09
-2.97529e-10
-4.36533e-10
4.40908e-09
6.97193e-09
3.01355e-10
6.87074e-09
2.02619e-10
6.80158e-09
1.36517e-10
6.75552e-09
8.8916e-11
6.72712e-09
5.24799e-11
6.71311e-09
2.24345e-11
6.71135e-09
-3.74183e-12
6.72061e-09
-2.74734e-11
6.74077e-09
-5.22398e-11
6.77294e-09
-8.1562e-11
6.81789e-09
-1.18368e-10
6.87526e-09
-1.70271e-10
6.93832e-09
-2.4527e-10
6.98613e-09
-3.45338e-10
-4.4462e-10
6.99422e-09
1.06175e-08
5.19283e-10
1.04667e-08
3.53455e-10
1.03615e-08
2.41697e-10
1.02894e-08
1.61009e-10
1.02426e-08
9.93104e-11
1.02159e-08
4.90796e-11
1.02062e-08
5.95158e-12
1.02114e-08
-3.26038e-11
1.02298e-08
-7.06937e-11
1.02611e-08
-1.12823e-10
1.03034e-08
-1.60651e-10
1.03518e-08
-2.18708e-10
1.03954e-08
-2.88865e-10
1.04162e-08
-3.66196e-10
-4.31409e-10
1.0403e-08
1.53512e-08
8.15141e-10
1.51422e-08
5.62487e-10
1.49932e-08
3.90645e-10
1.48882e-08
2.66033e-10
1.48168e-08
1.70734e-10
1.47718e-08
9.40023e-11
1.47486e-08
2.91426e-11
1.47438e-08
-2.77734e-11
1.47544e-08
-8.12896e-11
1.47773e-08
-1.35666e-10
1.48084e-08
-1.91817e-10
1.48407e-08
-2.50986e-10
1.48634e-08
-3.11532e-10
1.48647e-08
-3.67539e-10
-4.08048e-10
1.48414e-08
2.14126e-08
1.18852e-09
2.11419e-08
8.33154e-10
2.09443e-08
5.88284e-10
2.08009e-08
4.0944e-10
2.06992e-08
2.72391e-10
2.06303e-08
1.62876e-10
2.05877e-08
7.17387e-11
2.05665e-08
-6.53829e-12
2.0562e-08
-7.67801e-11
2.0569e-08
-1.42687e-10
2.05819e-08
-2.04737e-10
2.05934e-08
-2.62437e-10
2.05953e-08
-3.13423e-10
2.05815e-08
-3.53716e-10
-3.7865e-10
2.05521e-08
2.90613e-08
1.62156e-09
2.87365e-08
1.15792e-09
2.84923e-08
8.32502e-10
2.83096e-08
5.92147e-10
2.81749e-08
4.07052e-10
2.80781e-08
2.59661e-10
2.80112e-08
1.38617e-10
2.79678e-08
3.6848e-11
2.79418e-08
-5.06954e-11
2.79267e-08
-1.27593e-10
2.79163e-08
-1.94322e-10
2.79043e-08
-2.50458e-10
2.78856e-08
-2.94734e-10
2.78576e-08
-3.25761e-10
-3.42692e-10
2.78217e-08
3.85634e-08
2.07098e-09
3.82098e-08
1.51151e-09
3.79337e-08
1.10868e-09
3.77196e-08
8.06181e-10
3.75556e-08
5.71118e-10
3.74315e-08
3.83762e-10
3.73388e-08
2.31274e-10
3.72703e-08
1.05339e-10
3.72188e-08
7.92786e-13
3.7178e-08
-8.67925e-11
3.71419e-08
-1.58245e-10
3.71059e-08
-2.14439e-10
3.7067e-08
-2.55847e-10
3.70245e-08
-2.83256e-10
-2.97898e-10
3.69797e-08
5.01846e-08
2.46869e-09
4.98482e-08
1.84796e-09
4.9571e-08
1.38583e-09
4.93464e-08
1.0308e-09
4.91665e-08
7.51025e-10
4.90235e-08
5.26774e-10
4.89098e-08
3.44981e-10
4.88183e-08
1.96782e-10
4.87429e-08
7.62142e-11
4.8677e-08
-2.09074e-11
4.86167e-08
-9.7876e-11
4.85585e-08
-1.56265e-10
4.8501e-08
-1.98369e-10
4.84442e-08
-2.26432e-10
-2.42729e-10
4.8389e-08
6.42123e-08
2.74301e-09
6.39496e-08
2.11064e-09
6.37146e-08
1.62079e-09
6.35117e-08
1.23372e-09
6.33398e-08
9.2293e-10
6.31953e-08
6.71319e-10
6.30731e-08
4.67093e-10
6.29683e-08
3.01648e-10
6.28758e-08
1.68657e-10
6.27918e-08
6.30992e-11
6.27129e-08
-1.89675e-11
6.26378e-08
-8.1192e-11
6.25658e-08
-1.26351e-10
6.24971e-08
-1.57706e-10
-1.77968e-10
6.24323e-08
8.10307e-08
2.85945e-09
8.08813e-08
2.26007e-09
8.07254e-08
1.77671e-09
8.05759e-08
1.38321e-09
8.04382e-08
1.06058e-09
8.03135e-08
7.96062e-10
8.02004e-08
5.80235e-10
8.00965e-08
4.05458e-10
7.99998e-08
2.65378e-10
7.99084e-08
1.5456e-10
7.98211e-08
6.83369e-11
7.97374e-08
2.50011e-12
7.96575e-08
-4.65258e-11
7.9582e-08
-8.21248e-11
-1.07135e-10
7.95111e-08
1.01214e-07
2.84622e-09
1.01172e-07
2.30177e-09
1.01101e-07
1.84764e-09
1.01016e-07
1.46823e-09
1.00926e-07
1.15123e-09
1.00834e-07
8.88097e-10
1.00742e-07
6.71911e-10
1.00651e-07
4.96187e-10
1.00562e-07
3.5492e-10
1.00474e-07
2.42633e-10
1.00387e-07
1.54492e-10
1.00304e-07
8.61649e-11
1.00223e-07
3.39291e-11
1.00147e-07
-5.56786e-12
-3.49365e-11
1.00075e-07
1.25511e-07
2.76598e-09
1.25534e-07
2.27844e-09
1.25521e-07
1.8609e-09
1.25483e-07
1.50571e-09
1.2543e-07
1.20482e-09
1.25365e-07
9.52461e-10
1.25294e-07
7.43607e-10
1.25217e-07
5.72823e-10
1.25137e-07
4.34614e-10
1.25056e-07
3.23763e-10
1.24975e-07
2.35641e-10
1.24895e-07
1.66107e-10
1.24817e-07
1.11641e-10
1.24743e-07
6.91629e-11
3.61901e-11
1.24671e-07
1.54655e-07
2.66019e-09
1.54705e-07
2.22856e-09
1.54717e-07
1.84839e-09
1.54702e-07
1.521e-09
1.54666e-07
1.24116e-09
1.54614e-07
1.00424e-09
1.54551e-07
8.06473e-10
1.5448e-07
6.43415e-10
1.54405e-07
5.10219e-10
1.54326e-07
4.02148e-10
1.54247e-07
3.14982e-10
1.54168e-07
2.44958e-10
1.54091e-07
1.88891e-10
1.54016e-07
1.4401e-10
1.08077e-10
1.53944e-07
1.89141e-07
2.53542e-09
1.89205e-07
2.16453e-09
1.89229e-07
1.82434e-09
1.89223e-07
1.52649e-09
1.89194e-07
1.27071e-09
1.89146e-07
1.05213e-09
1.89085e-07
8.67666e-10
1.89014e-07
7.13857e-10
1.88938e-07
5.86707e-10
1.88858e-07
4.8215e-10
1.88776e-07
3.96505e-10
1.88695e-07
3.26473e-10
1.88614e-07
2.69261e-10
1.88536e-07
2.22431e-10
1.84008e-10
1.8846e-07
2.2909e-07
2.38337e-09
2.29173e-07
2.08134e-09
2.29209e-07
1.78823e-09
2.29212e-07
1.52403e-09
2.29188e-07
1.29427e-09
2.29144e-07
1.09642e-09
2.29084e-07
9.27219e-10
2.29014e-07
7.84166e-10
2.28936e-07
6.64222e-10
2.28854e-07
5.64121e-10
2.2877e-07
4.80811e-10
2.28685e-07
4.11505e-10
2.28601e-07
3.53821e-10
2.28517e-07
3.05667e-10
2.65345e-10
2.28436e-07
2.74058e-07
2.20917e-09
2.74165e-07
1.97387e-09
2.74219e-07
1.73418e-09
2.74234e-07
1.50912e-09
2.74219e-07
1.30908e-09
2.74182e-07
1.13385e-09
2.74127e-07
9.82106e-10
2.74059e-07
8.5172e-10
2.73983e-07
7.40609e-10
2.73901e-07
6.46355e-10
2.73815e-07
5.66597e-10
2.73727e-07
4.99095e-10
2.73639e-07
4.41893e-10
2.73552e-07
3.93247e-10
3.51764e-10
2.73465e-07
3.22554e-07
2.01829e-09
3.22688e-07
1.84025e-09
3.22768e-07
1.65426e-09
3.22805e-07
1.47207e-09
3.22808e-07
1.30575e-09
3.22786e-07
1.15622e-09
3.22743e-07
1.02441e-09
3.22686e-07
9.09224e-10
3.22617e-07
8.09292e-10
3.22541e-07
7.22996e-10
3.22458e-07
6.48669e-10
3.22373e-07
5.84634e-10
3.22285e-07
5.29372e-10
3.22197e-07
4.8149e-10
4.39806e-10
3.22109e-07
3.71433e-07
1.79022e-09
3.71602e-07
1.67101e-09
3.71719e-07
1.53668e-09
3.71791e-07
1.40005e-09
3.71828e-07
1.26967e-09
3.71835e-07
1.1491e-09
3.71819e-07
1.04029e-09
3.71785e-07
9.4317e-10
3.71737e-07
8.57341e-10
3.71678e-07
7.81797e-10
3.71611e-07
7.15435e-10
3.71539e-07
6.57093e-10
3.71462e-07
6.05686e-10
3.71384e-07
5.60192e-10
5.19817e-10
3.71304e-07
3.68804e-07
1.58745e-09
3.68963e-07
1.51285e-09
3.69081e-07
1.41834e-09
3.69163e-07
1.31765e-09
3.69215e-07
1.21796e-09
3.69241e-07
1.12336e-09
3.69245e-07
1.03606e-09
3.69232e-07
9.56488e-10
3.69204e-07
8.8467e-10
3.69166e-07
8.20131e-10
3.69119e-07
7.62215e-10
3.69066e-07
7.1018e-10
3.69009e-07
6.63292e-10
3.68948e-07
6.20834e-10
5.82241e-10
3.68886e-07
3.1554e-07
1.38143e-09
3.15715e-07
1.3387e-09
3.15857e-07
1.27603e-09
3.1597e-07
1.20478e-09
3.16056e-07
1.13172e-09
3.16119e-07
1.06061e-09
3.16161e-07
9.93351e-10
3.16187e-07
9.30719e-10
3.16199e-07
8.72923e-10
3.16199e-07
8.19834e-10
3.1619e-07
7.7113e-10
3.16174e-07
7.26381e-10
3.16152e-07
6.85119e-10
3.16126e-07
6.46862e-10
6.11181e-10
3.16097e-07
2.64014e-07
1.21847e-09
2.64159e-07
1.19374e-09
2.64283e-07
1.15116e-09
2.64388e-07
1.10006e-09
2.64474e-07
1.04582e-09
2.64543e-07
9.9163e-10
2.64597e-07
9.39194e-10
2.64639e-07
8.89326e-10
2.64669e-07
8.42336e-10
2.64691e-07
7.98241e-10
2.64705e-07
7.56894e-10
2.64713e-07
7.18041e-10
2.64717e-07
6.81385e-10
2.64717e-07
6.46605e-10
6.13398e-10
2.64715e-07
2.17215e-07
1.07446e-09
2.17349e-07
1.06006e-09
2.17469e-07
1.03098e-09
2.17575e-07
9.94163e-10
2.17667e-07
9.53801e-10
2.17746e-07
9.12426e-10
2.17814e-07
8.71481e-10
2.17871e-07
8.31706e-10
2.1792e-07
7.93417e-10
2.17962e-07
7.56686e-10
2.17997e-07
7.21452e-10
2.18028e-07
6.87571e-10
2.18054e-07
6.54865e-10
2.18078e-07
6.23129e-10
5.92174e-10
2.18099e-07
1.76203e-07
9.37793e-10
1.76334e-07
9.28921e-10
1.76457e-07
9.08678e-10
1.76569e-07
8.81919e-10
1.76671e-07
8.51778e-10
1.76763e-07
8.20149e-10
1.76846e-07
7.8815e-10
1.76922e-07
7.56377e-10
1.7699e-07
7.25102e-10
1.77052e-07
6.94413e-10
1.7711e-07
6.64296e-10
1.77162e-07
6.34682e-10
1.77212e-07
6.0547e-10
1.77258e-07
5.76542e-10
5.4778e-10
1.77303e-07
1.4122e-07
8.01872e-10
1.41353e-07
7.95971e-10
1.4148e-07
7.8163e-10
1.416e-07
7.62108e-10
1.41712e-07
7.39605e-10
1.41817e-07
7.15455e-10
1.41914e-07
6.90468e-10
1.42006e-07
6.65094e-10
1.42091e-07
6.3955e-10
1.42172e-07
6.13925e-10
1.42248e-07
5.88232e-10
1.4232e-07
5.62447e-10
1.42389e-07
5.36524e-10
1.42455e-07
5.10404e-10
4.84025e-10
1.42519e-07
1.11993e-07
6.65951e-10
1.12127e-07
6.61933e-10
1.12257e-07
6.51823e-10
1.12381e-07
6.37727e-10
1.125e-07
6.2109e-10
1.12612e-07
6.02811e-10
1.12719e-07
5.83457e-10
1.12821e-07
5.63353e-10
1.12918e-07
5.42668e-10
1.1301e-07
5.21479e-10
1.13099e-07
4.99816e-10
1.13183e-07
4.77686e-10
1.13265e-07
4.5508e-10
1.13343e-07
4.31983e-10
4.08379e-10
1.13419e-07
8.79586e-08
5.34189e-10
8.80889e-08
5.3164e-10
8.8216e-08
5.24772e-10
8.83388e-08
5.14885e-10
8.84571e-08
5.02864e-10
8.85706e-08
4.89307e-10
8.86794e-08
4.74598e-10
8.87838e-08
4.58965e-10
8.88839e-08
4.42534e-10
8.898e-08
4.25375e-10
8.90723e-08
4.07526e-10
8.9161e-08
3.89014e-10
8.92462e-08
3.69859e-10
8.93281e-08
3.50077e-10
3.29683e-10
8.94068e-08
6.84317e-08
4.12631e-10
6.85521e-08
4.11316e-10
6.86698e-08
4.06993e-10
6.87843e-08
4.00393e-10
6.88952e-08
3.92031e-10
6.90022e-08
3.82299e-10
6.91053e-08
3.71455e-10
6.92046e-08
3.59653e-10
6.93002e-08
3.46986e-10
6.9392e-08
3.33517e-10
6.94803e-08
3.1929e-10
6.95649e-08
3.04344e-10
6.96461e-08
2.88718e-10
6.97237e-08
2.72442e-10
2.55556e-10
6.97978e-08
5.2716e-08
3.06444e-10
5.28212e-08
3.06113e-10
5.29245e-08
3.03734e-10
5.30252e-08
2.99639e-10
5.31231e-08
2.94123e-10
5.3218e-08
2.87446e-10
5.33097e-08
2.79772e-10
5.33981e-08
2.71205e-10
5.34833e-08
2.61814e-10
5.35651e-08
2.51656e-10
5.36437e-08
2.40774e-10
5.37188e-08
2.29212e-10
5.37905e-08
2.17017e-10
5.38587e-08
2.04227e-10
1.90894e-10
5.39234e-08
4.01678e-08
2.18501e-10
4.02551e-08
2.18857e-10
4.0341e-08
2.17861e-10
4.0425e-08
2.15576e-10
4.0507e-08
2.12189e-10
4.05865e-08
2.07866e-10
4.06636e-08
2.02707e-10
4.0738e-08
1.96781e-10
4.08097e-08
1.90139e-10
4.08785e-08
1.8283e-10
4.09444e-08
1.74892e-10
4.10073e-08
1.6637e-10
4.1067e-08
1.57307e-10
4.11234e-08
1.47747e-10
1.37737e-10
4.11766e-08
3.02224e-08
1.4923e-10
3.02912e-08
1.49969e-10
3.03593e-08
1.49848e-10
3.04261e-08
1.48777e-10
3.04913e-08
1.46893e-10
3.05549e-08
1.44294e-10
3.06166e-08
1.41037e-10
3.06762e-08
1.37167e-10
3.07336e-08
1.32722e-10
3.07887e-08
1.27738e-10
3.08414e-08
1.22248e-10
3.08914e-08
1.16292e-10
3.09388e-08
1.09907e-10
3.09835e-08
1.03131e-10
9.60095e-11
3.10252e-08
2.23976e-08
9.72e-11
2.24495e-08
9.80558e-11
2.25009e-08
9.83943e-11
2.25516e-08
9.80577e-11
2.26014e-08
9.7158e-11
2.26499e-08
9.57431e-11
2.26971e-08
9.38425e-11
2.27428e-08
9.14848e-11
2.27868e-08
8.86953e-11
2.28291e-08
8.55011e-11
2.28694e-08
8.19271e-11
2.29077e-08
7.80041e-11
2.29438e-08
7.37613e-11
2.29777e-08
6.9233e-11
6.44527e-11
2.30093e-08
1.62885e-08
5.99037e-11
1.63258e-08
6.06832e-11
1.63631e-08
6.11794e-11
1.63999e-08
6.12249e-11
1.64361e-08
6.09095e-11
1.64716e-08
6.02453e-11
1.65062e-08
5.92467e-11
1.65398e-08
5.79304e-11
1.65722e-08
5.6312e-11
1.66033e-08
5.441e-11
1.66329e-08
5.22418e-11
1.66611e-08
4.98296e-11
1.66877e-08
4.71944e-11
1.67126e-08
4.43635e-11
4.13615e-11
1.67356e-08
1.15581e-08
3.44478e-11
1.15837e-08
3.50398e-11
1.16094e-08
3.55084e-11
1.16349e-08
3.5703e-11
1.16602e-08
3.5686e-11
1.1685e-08
3.545e-11
1.17092e-08
3.50012e-11
1.17328e-08
3.43482e-11
1.17556e-08
3.34999e-11
1.17775e-08
3.2468e-11
1.17985e-08
3.12632e-11
1.18184e-08
2.99005e-11
1.18373e-08
2.83933e-11
1.18549e-08
2.6762e-11
2.50246e-11
1.18712e-08
7.92814e-09
1.8021e-11
7.94479e-09
1.83909e-11
7.96156e-09
1.87444e-11
7.97831e-09
1.89524e-11
7.99494e-09
1.9049e-11
8.01137e-09
1.90205e-11
8.02751e-09
1.88692e-11
8.04325e-09
1.8599e-11
8.05854e-09
1.82143e-11
8.07329e-09
1.77218e-11
8.08742e-09
1.71275e-11
8.10088e-09
1.64404e-11
8.11361e-09
1.5668e-11
8.12555e-09
1.48245e-11
1.39238e-11
8.13665e-09
5.17042e-09
8.15717e-12
5.18048e-09
8.32995e-12
5.19068e-09
8.54966e-12
5.20092e-09
8.70654e-12
5.21116e-09
8.81226e-12
5.22132e-09
8.85553e-12
5.23135e-09
8.83705e-12
5.2412e-09
8.75829e-12
5.25079e-09
8.62119e-12
5.26008e-09
8.42909e-12
5.26902e-09
8.1847e-12
5.27757e-09
7.89302e-12
5.28568e-09
7.55737e-12
5.29332e-09
7.18669e-12
6.79242e-12
5.30045e-09
3.09929e-09
2.83928e-12
3.10474e-09
2.87789e-12
3.11031e-09
2.98539e-12
3.11594e-09
3.07408e-12
3.12161e-09
3.14281e-12
3.12728e-09
3.18674e-12
3.13291e-09
3.20606e-12
3.13847e-09
3.20121e-12
3.14391e-09
3.17296e-12
3.14922e-09
3.12272e-12
3.15435e-09
3.05138e-12
3.15929e-09
2.96118e-12
3.16399e-09
2.85302e-12
3.16845e-09
2.73168e-12
2.60651e-12
3.17263e-09
1.56487e-09
5.04481e-13
1.56726e-09
4.87116e-13
1.56972e-09
5.21513e-13
1.57224e-09
5.52834e-13
1.57481e-09
5.78091e-13
1.5774e-09
5.97527e-13
1.57999e-09
6.11159e-13
1.58257e-09
6.19137e-13
1.58512e-09
6.21883e-13
1.58763e-09
6.19733e-13
1.59007e-09
6.12797e-13
1.59243e-09
6.01704e-13
1.59469e-09
5.86398e-13
1.59686e-09
5.68503e-13
5.54126e-13
1.59891e-09
4.47011e-10
4.47498e-10
4.48019e-10
4.48572e-10
4.4915e-10
4.49748e-10
4.50359e-10
4.50978e-10
4.516e-10
4.5222e-10
4.52832e-10
4.53434e-10
4.5402e-10
4.54589e-10
4.55143e-10
1.23068e-09
-5.28596e-10
3.29087e-10
1.51405e-09
-4.84624e-10
2.01251e-10
1.79737e-09
-3.77645e-10
9.43267e-11
2.07408e-09
-2.71065e-10
-5.64572e-12
2.3422e-09
-1.70781e-10
-9.73448e-11
2.60256e-09
-8.38142e-11
-1.76538e-10
2.85666e-09
-1.05614e-11
-2.43539e-10
3.10592e-09
4.97139e-11
-2.98977e-10
3.35156e-09
9.85893e-11
-3.44233e-10
3.5946e-09
1.38394e-10
-3.81431e-10
3.83584e-09
1.72415e-10
-4.13654e-10
4.07594e-09
2.05446e-10
-4.45546e-10
4.31552e-09
2.44756e-10
-4.84335e-10
4.55537e-09
3.01432e-10
-5.41284e-10
4.79674e-09
3.92088e-10
-6.33456e-10
5.04175e-09
5.4109e-10
-7.861e-10
5.29395e-09
7.81637e-10
-1.03384e-09
5.55905e-09
1.15601e-09
-1.42112e-09
5.84507e-09
1.71397e-09
-1.99999e-09
6.16293e-09
2.49564e-09
-2.8135e-09
6.52463e-09
3.48689e-09
-3.84859e-09
6.93716e-09
4.6065e-09
-5.01903e-09
7.3278e-09
4.74226e-09
-5.1329e-09
7.65759e-09
4.0855e-09
-4.41529e-09
7.9203e-09
3.10442e-09
-3.36713e-09
8.11562e-09
1.96981e-09
-2.16514e-09
8.2462e-09
8.03437e-10
-9.34018e-10
8.31538e-09
-3.16699e-10
2.47522e-10
8.32612e-09
-1.34034e-09
1.3296e-09
8.28099e-09
-2.23296e-09
2.27809e-09
8.18249e-09
-2.96912e-09
3.06762e-09
8.03347e-09
-3.53042e-09
3.67944e-09
7.83733e-09
-3.90546e-09
4.1016e-09
7.59796e-09
-4.09028e-09
4.32965e-09
7.31943e-09
-4.08807e-09
4.3666e-09
7.00562e-09
-3.90784e-09
4.22166e-09
6.65981e-09
-3.56216e-09
3.90796e-09
6.28465e-09
-3.06396e-09
3.43913e-09
5.88234e-09
-2.42259e-09
2.82489e-09
5.45474e-09
-1.64026e-09
2.06787e-09
5.00153e-09
-7.15202e-10
1.16841e-09
4.51522e-09
3.38965e-10
1.4735e-10
3.98097e-09
1.43462e-09
-9.00379e-10
3.40789e-09
2.35264e-09
-1.77955e-09
2.45437e-09
3.07302e-09
-2.1195e-09
2.55008e-09
-6.06494e-10
2.71466e-09
-6.49212e-10
2.93761e-09
-6.00587e-10
3.18563e-09
-5.19088e-10
3.444e-09
-4.29153e-10
3.70514e-09
-3.44958e-10
3.96609e-09
-2.71511e-10
4.22579e-09
-2.09986e-10
4.48411e-09
-1.59729e-10
4.74128e-09
-1.1877e-10
4.99765e-09
-8.39571e-11
5.25364e-09
-5.055e-11
5.50976e-09
-1.13558e-11
5.76675e-09
4.4436e-11
6.02593e-09
1.32912e-10
6.28956e-09
2.77462e-10
6.56147e-09
5.09725e-10
6.84785e-09
8.69629e-10
7.15737e-09
1.40445e-09
7.5019e-09
2.15111e-09
7.8948e-09
3.09399e-09
8.34441e-09
4.15689e-09
8.77252e-09
4.31415e-09
9.13672e-09
3.7213e-09
9.42972e-09
2.81142e-09
9.65046e-09
1.74908e-09
9.80113e-09
6.52761e-10
9.88492e-09
-4.00484e-10
9.90486e-09
-1.36029e-09
9.86379e-09
-2.19189e-09
9.76469e-09
-2.87001e-09
9.61106e-09
-3.3768e-09
9.4072e-09
-3.7016e-09
9.15809e-09
-3.84118e-09
8.86922e-09
-3.7992e-09
8.54627e-09
-3.58489e-09
8.19503e-09
-3.21092e-09
7.82168e-09
-2.69062e-09
7.43406e-09
-2.03496e-09
7.04369e-09
-1.24989e-09
6.66825e-09
-3.3976e-10
6.33269e-09
6.74529e-10
6.07162e-09
1.69569e-09
5.94088e-09
2.48338e-09
2.5203e-09
5.87495e-09
4.42092e-09
-6.18332e-10
4.49052e-09
-7.1882e-10
4.62754e-09
-7.37605e-10
4.81674e-09
-7.08288e-10
5.0373e-09
-6.49707e-10
5.27614e-09
-5.83799e-10
5.52542e-09
-5.20799e-10
5.7807e-09
-4.65263e-10
6.03954e-09
-4.18569e-10
6.30069e-09
-3.79918e-10
6.56356e-09
-3.46828e-10
6.82797e-09
-3.1496e-10
7.09407e-09
-2.77453e-10
7.3624e-09
-2.23894e-10
7.63422e-09
-1.38909e-10
7.91188e-09
-1.96929e-13
8.19944e-09
2.22167e-10
8.50355e-09
5.65513e-10
8.83352e-09
1.07448e-09
9.20215e-09
1.78248e-09
9.62427e-09
2.67187e-09
1.01097e-08
3.67144e-09
1.05751e-08
3.8488e-09
1.09743e-08
3.32203e-09
1.12989e-08
2.48685e-09
1.15467e-08
1.50127e-09
1.17193e-08
4.80166e-10
1.18196e-08
-5.00736e-10
1.18506e-08
-1.39126e-09
1.18154e-08
-2.15671e-09
1.17176e-08
-2.77224e-09
1.15616e-08
-3.22078e-09
1.13527e-08
-3.49271e-09
1.10973e-08
-3.58578e-09
1.08026e-08
-3.50453e-09
1.04767e-08
-3.25893e-09
1.01282e-08
-2.86249e-09
9.76783e-09
-2.3302e-09
9.40947e-09
-1.6766e-09
9.07431e-09
-9.14737e-10
8.79505e-09
-6.04917e-11
8.61677e-09
8.52807e-10
8.58428e-09
1.72818e-09
8.70251e-09
2.36515e-09
2.42414e-09
8.79866e-09
6.96896e-09
-5.93069e-10
6.97324e-09
-7.23103e-10
7.02811e-09
-7.92476e-10
7.13872e-09
-8.18896e-10
7.29709e-09
-8.08076e-10
7.48847e-09
-7.7518e-10
7.70293e-09
-7.35259e-10
7.93335e-09
-6.95688e-10
8.17492e-09
-6.60135e-10
8.42451e-09
-6.29507e-10
8.68019e-09
-6.02509e-10
8.94084e-09
-5.75613e-10
9.20599e-09
-5.42603e-10
9.4758e-09
-4.93699e-10
9.75132e-09
-4.14436e-10
1.00349e-08
-2.83774e-10
1.03308e-08
-7.36926e-11
1.0646e-08
2.5026e-10
1.09906e-08
7.29939e-10
1.13781e-08
1.39497e-09
1.1825e-08
2.22496e-09
1.23427e-08
3.15368e-09
1.28432e-08
3.34833e-09
1.32767e-08
2.8885e-09
1.3633e-08
2.13053e-09
1.39087e-08
1.22557e-09
1.41045e-08
2.84425e-10
1.42227e-08
-6.18917e-10
1.42663e-08
-1.4349e-09
1.42389e-08
-2.12928e-09
1.41446e-08
-2.67797e-09
1.39888e-08
-3.06502e-09
1.37783e-08
-3.28217e-09
1.3521e-08
-3.32849e-09
1.32263e-08
-3.2098e-09
1.29047e-08
-2.93731e-09
1.25684e-08
-2.52619e-09
1.22322e-08
-1.99402e-09
1.19156e-08
-1.36005e-09
1.16463e-08
-6.45429e-10
1.1463e-08
1.22817e-10
1.14133e-08
9.02488e-10
1.15311e-08
1.61045e-09
1.17897e-08
2.10654e-09
2.21259e-09
1.20012e-08
1.03606e-08
-5.50598e-10
1.03222e-08
-6.8478e-10
1.03151e-08
-7.85379e-10
1.03498e-08
-8.53513e-10
1.04299e-08
-8.88258e-10
1.05537e-08
-8.98915e-10
1.07102e-08
-8.91773e-10
1.08926e-08
-8.78045e-10
1.10947e-08
-8.62329e-10
1.13122e-08
-8.46994e-10
1.15418e-08
-8.32062e-10
1.17812e-08
-8.15071e-10
1.20294e-08
-7.9072e-10
1.22858e-08
-7.50109e-10
1.25512e-08
-6.79913e-10
1.2828e-08
-5.60547e-10
1.31204e-08
-3.66108e-10
1.34361e-08
-6.53609e-11
1.37853e-08
3.80649e-10
1.41828e-08
9.97538e-10
1.46465e-08
1.76123e-09
1.51896e-08
2.61055e-09
1.57202e-08
2.81774e-09
1.61849e-08
2.42384e-09
1.65713e-08
1.74417e-09
1.68742e-08
9.22599e-10
1.70933e-08
6.53889e-11
1.72301e-08
-7.55741e-10
1.72876e-08
-1.4924e-09
1.72696e-08
-2.11128e-09
1.71811e-08
-2.5895e-09
1.70287e-08
-2.91261e-09
1.68206e-08
-3.07402e-09
1.65666e-08
-3.07453e-09
1.62784e-08
-2.92158e-09
1.59692e-08
-2.62814e-09
1.56545e-08
-2.21146e-09
1.53526e-08
-1.69214e-09
1.50865e-08
-1.09396e-09
1.48855e-08
-4.44452e-10
1.47857e-08
2.22604e-10
1.48246e-08
8.63586e-10
1.50191e-08
1.41593e-09
1.53301e-08
1.79557e-09
1.9197e-09
1.5623e-08
1.47934e-08
-5.02613e-10
1.4734e-08
-6.25398e-10
1.4685e-08
-7.36368e-10
1.46601e-08
-8.28618e-10
1.46683e-08
-8.96434e-10
1.47148e-08
-9.45471e-10
1.47976e-08
-9.74544e-10
1.49118e-08
-9.92248e-10
1.50525e-08
-1.00302e-09
1.52152e-08
-1.00968e-09
1.53961e-08
-1.01305e-09
1.55926e-08
-1.01157e-09
1.58028e-08
-1.00091e-09
1.60259e-08
-9.73181e-10
1.62624e-08
-9.16391e-10
1.65144e-08
-8.12579e-10
1.67865e-08
-6.38158e-10
1.70866e-08
-3.6552e-10
1.74259e-08
4.13687e-11
1.78195e-08
6.03939e-10
1.82875e-08
1.29328e-09
1.88445e-08
2.05348e-09
1.93964e-08
2.26591e-09
1.98858e-08
1.9344e-09
2.02978e-08
1.33211e-09
2.06252e-08
5.952e-10
2.08659e-08
-1.75275e-10
2.10207e-08
-9.10515e-10
2.10922e-08
-1.56393e-09
2.10847e-08
-2.10377e-09
2.1004e-08
-2.50883e-09
2.08581e-08
-2.76663e-09
2.06566e-08
-2.8726e-09
2.04117e-08
-2.82957e-09
2.0137e-08
-2.64691e-09
1.98484e-08
-2.33955e-09
1.95639e-08
-1.92693e-09
1.9304e-08
-1.43226e-09
1.90925e-08
-8.82393e-10
1.89559e-08
-3.07877e-10
1.8922e-08
2.56515e-10
1.90134e-08
7.72129e-10
1.92331e-08
1.19624e-09
1.95439e-08
1.48481e-09
1.60619e-09
1.98574e-08
2.05032e-08
-4.53794e-10
2.04374e-08
-5.59552e-10
2.03667e-08
-6.65648e-10
2.03026e-08
-7.6455e-10
2.02568e-08
-8.50648e-10
2.02351e-08
-9.23782e-10
2.02428e-08
-9.82179e-10
2.02796e-08
-1.02908e-09
2.03439e-08
-1.0673e-09
2.0433e-08
-1.09884e-09
2.05444e-08
-1.12437e-09
2.06755e-08
-1.14271e-09
2.08248e-08
-1.15018e-09
2.09914e-08
-1.1398e-09
2.1176e-08
-1.10098e-09
2.13808e-08
-1.01743e-09
2.16107e-08
-8.68013e-10
2.18744e-08
-6.29234e-10
2.21836e-08
-2.67833e-10
2.25541e-08
2.33382e-10
2.30083e-08
8.39165e-10
2.35623e-08
1.49942e-09
2.41215e-08
1.70674e-09
2.46251e-08
1.43083e-09
2.50547e-08
9.02466e-10
2.54005e-08
2.49421e-10
2.56584e-08
-4.33206e-10
2.58282e-08
-1.08033e-09
2.59122e-08
-1.64794e-09
2.5915e-08
-2.10652e-09
2.58433e-08
-2.43714e-09
2.57064e-08
-2.6297e-09
2.55158e-08
-2.68203e-09
2.52854e-08
-2.59917e-09
2.5031e-08
-2.39254e-09
2.47704e-08
-2.07892e-09
2.45229e-08
-1.67947e-09
2.43096e-08
-1.21893e-09
2.41522e-08
-7.24978e-10
2.40719e-08
-2.27533e-10
2.40861e-08
2.42262e-10
2.42041e-08
6.5411e-10
2.44192e-08
9.81121e-10
2.4701e-08
1.20307e-09
1.31196e-09
2.49952e-08
2.77714e-08
-4.03491e-10
2.77042e-08
-4.92346e-10
2.76251e-08
-5.86566e-10
2.75414e-08
-6.8083e-10
2.74614e-08
-7.70669e-10
2.73914e-08
-8.53803e-10
2.73378e-08
-9.28546e-10
2.73038e-08
-9.95123e-10
2.7291e-08
-1.05452e-09
2.72997e-08
-1.10748e-09
2.73292e-08
-1.1539e-09
2.73789e-08
-1.19236e-09
2.74481e-08
-1.21945e-09
2.7537e-08
-1.22871e-09
2.7647e-08
-1.21096e-09
2.77811e-08
-1.15146e-09
2.79445e-08
-1.03149e-09
2.81476e-08
-8.32245e-10
2.84026e-08
-5.22832e-10
2.87261e-08
-9.01684e-11
2.91431e-08
4.22217e-10
2.96713e-08
9.71149e-10
3.02183e-08
1.15975e-09
3.07203e-08
9.28882e-10
3.11548e-08
4.67913e-10
3.15088e-08
-1.04562e-10
3.1776e-08
-7.0044e-10
3.19549e-08
-1.25921e-09
3.20473e-08
-1.74034e-09
3.20581e-08
-2.11731e-09
3.1995e-08
-2.37408e-09
3.18687e-08
-2.50334e-09
3.16922e-08
-2.50554e-09
3.1481e-08
-2.388e-09
3.12525e-08
-2.16403e-09
3.10254e-08
-1.8518e-09
3.08192e-08
-1.47326e-09
3.06533e-08
-1.05309e-09
3.05459e-08
-6.17532e-10
3.05114e-08
-1.93093e-10
3.05585e-08
1.95164e-10
3.0687e-08
5.25659e-10
3.08853e-08
7.82785e-10
3.11297e-08
9.58741e-10
1.05495e-09
3.13867e-08
3.69247e-08
-3.4841e-10
3.68549e-08
-4.22578e-10
3.67718e-08
-5.03486e-10
3.66789e-08
-5.87888e-10
3.65808e-08
-6.72563e-10
3.64821e-08
-7.55192e-10
3.63878e-08
-8.34167e-10
3.63014e-08
-9.08756e-10
3.62258e-08
-9.78897e-10
3.61628e-08
-1.04452e-09
3.61138e-08
-1.10492e-09
3.60799e-08
-1.15839e-09
3.6062e-08
-1.20163e-09
3.60619e-08
-1.22856e-09
3.60823e-08
-1.23134e-09
3.61275e-08
-1.19667e-09
3.62041e-08
-1.10808e-09
3.6324e-08
-9.52179e-10
3.65009e-08
-6.9973e-10
3.67521e-08
-3.41403e-10
3.71058e-08
6.85268e-11
3.75814e-08
4.95606e-10
3.80917e-08
6.49428e-10
3.85712e-08
4.49355e-10
3.89931e-08
4.60399e-11
3.93405e-08
-4.5198e-10
3.96049e-08
-9.64816e-10
3.97832e-08
-1.4375e-09
3.98767e-08
-1.83392e-09
3.98908e-08
-2.13133e-09
3.98339e-08
-2.31716e-09
3.97177e-08
-2.38723e-09
3.95569e-08
-2.34467e-09
3.93678e-08
-2.19896e-09
3.91686e-08
-1.96482e-09
3.89778e-08
-1.66102e-09
3.88137e-08
-1.30911e-09
3.86927e-08
-9.32121e-10
3.86283e-08
-5.5312e-10
3.86289e-08
-1.93727e-10
3.86967e-08
1.27458e-10
3.88262e-08
3.96068e-10
3.90051e-08
6.03977e-10
3.92145e-08
7.49262e-10
8.36203e-10
3.94333e-08
4.83264e-08
-2.85746e-10
4.82512e-08
-3.4745e-10
4.81635e-08
-4.15746e-10
4.80644e-08
-4.88785e-10
4.79562e-08
-5.64397e-10
4.78417e-08
-6.40676e-10
4.77237e-08
-7.16153e-10
4.76048e-08
-7.89871e-10
4.74872e-08
-8.61304e-10
4.73727e-08
-9.30047e-10
4.7263e-08
-9.95218e-10
4.71598e-08
-1.05513e-09
4.70651e-08
-1.10692e-09
4.69815e-08
-1.14497e-09
4.69133e-08
-1.16313e-09
4.68661e-08
-1.14955e-09
4.6848e-08
-1.08993e-09
4.6873e-08
-9.77186e-10
4.69562e-08
-7.82912e-10
4.71158e-08
-5.00991e-10
4.73836e-08
-1.99336e-10
4.77803e-08
9.88992e-11
4.82279e-08
2.01839e-10
4.86614e-08
1.58994e-11
4.90492e-08
-3.41824e-10
4.93716e-08
-7.74295e-10
4.96171e-08
-1.21036e-09
4.97816e-08
-1.60198e-09
4.98659e-08
-1.91828e-09
4.98756e-08
-2.141e-09
4.98199e-08
-2.26146e-09
4.97115e-08
-2.27881e-09
4.95656e-08
-2.19876e-09
4.93991e-08
-2.0325e-09
4.92298e-08
-1.79547e-09
4.90748e-08
-1.50608e-09
4.895e-08
-1.18431e-09
4.88683e-08
-8.50325e-10
4.88382e-08
-5.23115e-10
4.88637e-08
-2.19205e-10
4.89426e-08
4.85828e-11
4.9068e-08
2.70716e-10
4.92279e-08
4.43986e-10
4.94084e-08
5.68842e-10
6.49832e-10
4.95947e-08
6.23619e-08
-2.1527e-10
6.22806e-08
-2.66221e-10
6.21879e-08
-3.23027e-10
6.20838e-08
-3.84718e-10
6.19694e-08
-4.49916e-10
6.18459e-08
-5.17187e-10
6.1715e-08
-5.85246e-10
6.15782e-08
-6.53096e-10
6.14368e-08
-7.1995e-10
6.1292e-08
-7.85209e-10
6.11447e-08
-8.47925e-10
6.09962e-08
-9.06586e-10
6.08483e-08
-9.59008e-10
6.07035e-08
-1.00016e-09
6.05663e-08
-1.026e-09
6.04432e-08
-1.02642e-09
6.03426e-08
-9.89293e-10
6.02801e-08
-9.147e-10
6.02718e-08
-7.7467e-10
6.03368e-08
-5.65927e-10
6.05096e-08
-3.72196e-10
6.08111e-08
-2.02528e-10
6.11754e-08
-1.62471e-10
6.1541e-08
-3.49758e-10
6.18744e-08
-6.75195e-10
6.21521e-08
-1.05201e-09
6.23613e-08
-1.41958e-09
6.2497e-08
-1.73761e-09
6.25598e-08
-1.98115e-09
6.25557e-08
-2.13688e-09
6.24945e-08
-2.20025e-09
6.23893e-08
-2.17363e-09
6.22555e-08
-2.06494e-09
6.21094e-08
-1.88646e-09
6.19675e-08
-1.65352e-09
6.18446e-08
-1.38324e-09
6.17534e-08
-1.09311e-09
6.17029e-08
-7.9983e-10
6.1698e-08
-5.18202e-10
6.17391e-08
-2.60266e-10
6.18222e-08
-3.45438e-11
6.19399e-08
1.52991e-10
6.20825e-08
3.0147e-10
6.22389e-08
4.12359e-10
4.89564e-10
6.23992e-08
7.94357e-08
-1.39839e-10
7.93509e-08
-1.81422e-10
7.92558e-08
-2.27912e-10
7.91499e-08
-2.78855e-10
7.90334e-08
-3.3344e-10
7.89069e-08
-3.90675e-10
7.87712e-08
-4.49518e-10
7.86272e-08
-5.09053e-10
7.84756e-08
-5.6837e-10
7.83171e-08
-6.2675e-10
7.81524e-08
-6.83155e-10
7.7982e-08
-7.36217e-10
7.78073e-08
-7.84332e-10
7.76302e-08
-8.23081e-10
7.74547e-08
-8.50458e-10
7.72864e-08
-8.5814e-10
7.71339e-08
-8.36749e-10
7.70117e-08
-7.92545e-10
7.69361e-08
-6.99085e-10
7.69277e-08
-5.57532e-10
7.70186e-08
-4.6309e-10
7.72266e-08
-4.10515e-10
7.75014e-08
-4.37228e-10
7.7789e-08
-6.37356e-10
7.80542e-08
-9.40476e-10
7.82728e-08
-1.27057e-09
7.84315e-08
-1.57826e-09
7.85254e-08
-1.83151e-09
7.85559e-08
-2.01162e-09
7.85293e-08
-2.1103e-09
7.8456e-08
-2.12696e-09
7.83492e-08
-2.06679e-09
7.82235e-08
-1.93928e-09
7.80941e-08
-1.75701e-09
7.79749e-08
-1.53439e-09
7.78782e-08
-1.28651e-09
7.78131e-08
-1.02796e-09
7.77852e-08
-7.71939e-10
7.77965e-08
-5.29506e-10
7.78454e-08
-3.09186e-10
7.79275e-08
-1.16672e-10
7.80354e-08
4.5063e-11
7.81617e-08
1.75239e-10
7.82979e-08
2.76152e-10
3.50747e-10
7.84367e-08
9.99985e-08
-6.37963e-11
9.99144e-08
-9.73249e-11
9.98212e-08
-1.34773e-10
9.97184e-08
-1.75974e-10
9.96054e-08
-2.20486e-10
9.94824e-08
-2.67679e-10
9.93497e-08
-3.16779e-10
9.92077e-08
-3.6704e-10
9.90569e-08
-4.17572e-10
9.88978e-08
-4.67687e-10
9.87309e-08
-5.16279e-10
9.85569e-08
-5.62243e-10
9.83768e-08
-6.04218e-10
9.81925e-08
-6.38735e-10
9.80072e-08
-6.65157e-10
9.78256e-08
-6.76596e-10
9.7657e-08
-6.68145e-10
9.75119e-08
-6.47406e-10
9.74052e-08
-5.92424e-10
9.73662e-08
-5.18503e-10
9.74085e-08
-5.05358e-10
9.75399e-08
-5.41934e-10
9.77392e-08
-6.36497e-10
9.79574e-08
-8.55595e-10
9.81556e-08
-1.13866e-09
9.83119e-08
-1.4269e-09
9.84151e-08
-1.68149e-09
9.8462e-08
-1.87836e-09
9.84553e-08
-2.0049e-09
9.84023e-08
-2.05739e-09
9.8314e-08
-2.0386e-09
9.8203e-08
-1.95577e-09
9.80828e-08
-1.81911e-09
9.79665e-08
-1.64068e-09
9.78654e-08
-1.43333e-09
9.77886e-08
-1.20974e-09
9.77423e-08
-9.81594e-10
9.77293e-08
-7.58941e-10
9.77496e-08
-5.4987e-10
9.78008e-08
-3.60306e-10
9.7878e-08
-1.93953e-10
9.79755e-08
-5.24165e-11
9.80866e-08
6.41107e-11
9.82054e-08