/*--------------------------------*- C++ -*----------------------------------*\
| =========                 |                                                 |
| \\      /  F ield         | OpenFOAM: The Open Source CFD Toolbox           |
|  \\    /   O peration     | Version:  2312                                  |
|   \\  /    A nd           | Website:  www.openfoam.com                      |
|    \\/     M anipulation  |                                                 |
\*---------------------------------------------------------------------------*/
FoamFile
{
    version     2.0;
    format      ascii;
    arch        "LSB;label=32;scalar=64";
    class       surfaceScalarField;
    location    "41.5";
    object      phi;
}
// * * * * * * * * * * * * * * * * * * * * * * * * * * * * * * * * * * * * * //

dimensions      [0 3 -1 0 0 0 0];

oriented        oriented;

internalField   nonuniform List<scalar> 
9445
(
5.72723e-10
1.59337e-11
5.62679e-10
1.00439e-11
5.56467e-10
6.21197e-12
5.52858e-10
3.60851e-12
5.5117e-10
1.68833e-12
5.50988e-10
1.8228e-13
5.51997e-10
-1.00913e-12
5.54034e-10
-2.03727e-12
5.57305e-10
-3.27135e-12
5.62138e-10
-4.83314e-12
5.69555e-10
-7.41676e-12
5.83009e-10
-1.34538e-11
6.14556e-10
-3.15471e-11
7.06013e-10
-9.14567e-11
-2.34818e-10
9.4083e-10
2.00028e-09
6.94549e-11
1.96658e-09
4.37434e-11
1.94573e-09
2.7059e-11
1.93358e-09
1.57649e-11
1.92779e-09
7.47738e-12
1.92687e-09
1.0947e-12
1.92968e-09
-3.81775e-12
1.93583e-09
-8.18795e-12
1.94582e-09
-1.32573e-11
1.96055e-09
-1.95623e-11
1.98265e-09
-2.95181e-11
2.01867e-09
-4.94768e-11
2.08131e-09
-9.4185e-11
2.18224e-09
-1.9239e-10
-3.39886e-10
2.28731e-09
3.95015e-09
1.71203e-10
3.88612e-09
1.07767e-10
3.84648e-09
6.66973e-11
3.82327e-09
3.89777e-11
3.81197e-09
1.87774e-11
3.80963e-09
3.44057e-12
3.81398e-09
-8.1768e-12
3.82432e-09
-1.85245e-11
3.84117e-09
-3.01078e-11
3.86547e-09
-4.38646e-11
3.8998e-09
-6.3844e-11
3.9485e-09
-9.81767e-11
4.0141e-09
-1.59783e-10
4.08341e-09
-2.61704e-10
-3.78952e-10
4.12248e-09
6.56744e-09
3.33192e-10
6.46539e-09
2.09814e-10
6.40203e-09
1.30064e-10
6.36463e-09
7.63738e-11
6.34583e-09
3.75759e-11
6.34078e-09
8.48656e-12
6.34594e-09
-1.33292e-11
6.35975e-09
-3.23332e-11
6.38238e-09
-5.27466e-11
6.41399e-09
-7.5475e-11
6.45544e-09
-1.05292e-10
6.50634e-09
-1.49075e-10
6.5605e-09
-2.13946e-10
6.59919e-09
-3.00394e-10
-3.82338e-10
6.60258e-09
1.00287e-08
5.67904e-10
9.88027e-09
3.58219e-10
9.7876e-09
2.22736e-10
9.73229e-09
1.31687e-10
9.70335e-09
6.6514e-11
9.69364e-09
1.82001e-11
9.69808e-09
-1.77714e-11
9.71385e-09
-4.81105e-11
9.73995e-09
-7.88442e-11
9.77518e-09
-1.10704e-10
9.81795e-09
-1.48063e-10
9.86385e-09
-1.94976e-10
9.90301e-09
-2.53103e-10
9.91987e-09
-3.17259e-10
-3.6877e-10
9.90631e-09
1.45437e-08
8.86047e-10
1.43411e-08
5.60799e-10
1.42135e-08
3.50337e-10
1.41363e-08
2.08976e-10
1.4094e-08
1.08722e-10
1.4077e-08
3.52175e-11
1.40784e-08
-1.91466e-11
1.40938e-08
-6.35258e-11
1.41201e-08
-1.05131e-10
1.41546e-08
-1.45242e-10
1.41936e-08
-1.87032e-10
1.42306e-08
-2.31994e-10
1.42563e-08
-2.78745e-10
1.42607e-08
-3.217e-10
-3.5055e-10
1.42425e-08
2.03543e-08
1.29212e-09
2.00927e-08
8.22363e-10
1.9926e-08
5.17097e-10
1.98232e-08
3.11776e-10
1.97646e-08
1.67268e-10
1.97374e-08
6.24427e-11
1.97328e-08
-1.4569e-11
1.97447e-08
-7.53896e-11
1.97676e-08
-1.28039e-10
1.97974e-08
-1.75001e-10
1.98288e-08
-2.18471e-10
1.98555e-08
-2.58708e-10
1.98706e-08
-2.93855e-10
1.98693e-08
-3.20367e-10
-3.33977e-10
1.98527e-08
2.77275e-08
1.7771e-09
2.74096e-08
1.14027e-09
2.72036e-08
7.23057e-10
2.70741e-08
4.41297e-10
2.69974e-08
2.43939e-10
2.69578e-08
1.02088e-10
2.69446e-08
-1.35934e-12
2.69496e-08
-8.04364e-11
2.69659e-08
-1.44307e-10
2.69878e-08
-1.96887e-10
2.70097e-08
-2.40416e-10
2.70264e-08
-2.75421e-10
2.70338e-08
-3.01195e-10
2.70301e-08
-3.16659e-10
-3.21088e-10
2.70172e-08
3.69447e-08
2.30956e-09
3.65867e-08
1.49826e-09
3.635e-08
9.59809e-10
3.61979e-08
5.93436e-10
3.61047e-08
3.37101e-10
3.60527e-08
1.54064e-10
3.60297e-08
2.16156e-11
3.60261e-08
-7.6765e-11
3.60337e-08
-1.51942e-10
3.60463e-08
-2.09516e-10
3.60587e-08
-2.52833e-10
3.60671e-08
-2.83728e-10
3.60691e-08
-3.03224e-10
3.60647e-08
-3.12258e-10
-3.11984e-10
3.60556e-08
4.8295e-08
2.83147e-09
4.79316e-08
1.86167e-09
4.7685e-08
1.20634e-09
4.7523e-08
7.55433e-10
4.74211e-08
4.39054e-10
4.73613e-08
2.13851e-10
4.73308e-08
5.21419e-11
4.73194e-08
-6.54422e-11
4.73191e-08
-1.51597e-10
4.73236e-08
-2.14034e-10
4.73286e-08
-2.57826e-10
4.73314e-08
-2.86509e-10
4.73309e-08
-3.02732e-10
4.73275e-08
-3.08827e-10
-3.06914e-10
4.73224e-08
6.20937e-08
3.27128e-09
6.17735e-08
2.18184e-09
6.155e-08
1.4299e-09
6.14001e-08
9.05302e-10
6.13042e-08
5.34979e-10
6.12466e-08
2.71417e-10
6.12155e-08
8.32239e-11
6.12017e-08
-5.1573e-11
6.11977e-08
-1.47589e-10
6.11984e-08
-2.14717e-10
6.12004e-08
-2.59873e-10
6.12021e-08
-2.88168e-10
6.12028e-08
-3.03491e-10
6.1203e-08
-3.09045e-10
-3.07439e-10
6.12036e-08
7.87543e-08
3.58123e-09
7.85182e-08
2.41801e-09
7.83492e-08
1.59885e-09
7.82351e-08
1.01946e-09
7.81625e-08
6.07518e-10
7.812e-08
3.13904e-10
7.80983e-08
1.04989e-10
7.809e-08
-4.32503e-11
7.80894e-08
-1.47057e-10
7.80929e-08
-2.18233e-10
7.80983e-08
-2.65235e-10
7.81045e-08
-2.94347e-10
7.81113e-08
-3.1028e-10
7.81189e-08
-3.16727e-10
-3.1653e-10
7.8128e-08
9.88886e-08
3.77278e-09
9.87397e-08
2.56686e-09
9.86334e-08
1.70514e-09
9.85636e-08
1.08923e-09
9.85223e-08
6.48872e-10
9.85017e-08
3.34488e-10
9.84954e-08
1.11322e-10
9.84984e-08
-4.62888e-11
9.8507e-08
-1.5569e-10
9.8519e-08
-2.30147e-10
9.85329e-08
-2.79177e-10
9.85484e-08
-3.09818e-10
9.85654e-08
-3.27262e-10
9.85841e-08
-3.35436e-10
-3.37275e-10
9.86048e-08
1.23308e-07
3.89833e-09
1.23212e-07
2.66315e-09
1.23145e-07
1.77207e-09
1.23103e-07
1.13067e-09
1.23082e-07
6.70227e-10
1.23075e-07
3.41092e-10
1.23079e-07
1.07374e-10
1.2309e-07
-5.75756e-11
1.23107e-07
-1.71919e-10
1.23126e-07
-2.49883e-10
1.23149e-07
-3.0171e-10
1.23174e-07
-3.3489e-10
1.23202e-07
-3.54872e-10
1.23232e-07
-3.65687e-10
-3.70297e-10
1.23265e-07
1.52804e-07
3.98721e-09
1.5273e-07
2.73665e-09
1.52676e-07
1.8269e-09
1.52639e-07
1.16746e-09
1.52618e-07
6.91417e-10
1.52609e-07
3.5007e-10
1.52609e-07
1.0681e-10
1.52618e-07
-6.65912e-11
1.52634e-07
-1.87164e-10
1.52654e-07
-2.7038e-10
1.52679e-07
-3.26923e-10
1.52709e-07
-3.64532e-10
1.52743e-07
-3.88791e-10
1.52781e-07
-4.03774e-10
-4.12448e-10
1.52823e-07
1.87846e-07
4.01976e-09
1.87802e-07
2.78027e-09
1.8776e-07
1.86975e-09
1.87723e-07
1.20371e-09
1.87696e-07
7.1903e-10
1.87678e-07
3.68097e-10
1.87668e-07
1.16956e-10
1.87668e-07
-6.67746e-11
1.87676e-07
-1.95186e-10
1.87691e-07
-2.85762e-10
1.87713e-07
-3.49282e-10
1.87742e-07
-3.93559e-10
1.87778e-07
-4.24216e-10
1.87819e-07
-4.45315e-10
-4.5977e-10
1.87867e-07
2.28445e-07
3.96303e-09
2.28457e-07
2.76837e-09
2.28446e-07
1.88123e-09
2.28424e-07
1.22511e-09
2.28401e-07
7.42156e-10
2.2838e-07
3.88797e-10
2.28366e-07
1.31162e-10
2.2836e-07
-6.095e-11
2.28363e-07
-1.98086e-10
2.28375e-07
-2.9711e-10
2.28394e-07
-3.69075e-10
2.28422e-07
-4.21705e-10
2.28459e-07
-4.60495e-10
2.28503e-07
-4.89434e-10
-5.11394e-10
2.28555e-07
2.74093e-07
3.80212e-09
2.74176e-07
2.68587e-09
2.74209e-07
1.84747e-09
2.74216e-07
1.21819e-09
2.74209e-07
7.4928e-10
2.74197e-07
4.01262e-10
2.74185e-07
1.42567e-10
2.74181e-07
-5.63242e-11
2.74184e-07
-2.01372e-10
2.74196e-07
-3.09209e-10
2.74218e-07
-3.90663e-10
2.74249e-07
-4.52947e-10
2.7429e-07
-5.01259e-10
2.7434e-07
-5.39455e-10
-5.70339e-10
2.74399e-07
3.23421e-07
3.53378e-09
3.2358e-07
2.52713e-09
3.23666e-07
1.76112e-09
3.23707e-07
1.17749e-09
3.23721e-07
7.35019e-10
3.23723e-07
3.99709e-10
3.23719e-07
1.46332e-10
3.23721e-07
-5.79477e-11
3.2373e-07
-2.11149e-10
3.23749e-07
-3.28342e-10
3.23779e-07
-4.20089e-10
3.23819e-07
-4.93081e-10
3.2387e-07
-5.52152e-10
3.23931e-07
-6.00936e-10
-6.41657e-10
3.24003e-07
3.73455e-07
3.14654e-09
3.73703e-07
2.27856e-09
3.73858e-07
1.60603e-09
3.7395e-07
1.08585e-09
3.74001e-07
6.84344e-10
3.74027e-07
3.73608e-10
3.74045e-07
1.28525e-10
3.74055e-07
-6.84179e-11
3.74066e-07
-2.21609e-10
3.7408e-07
-3.43006e-10
3.74102e-07
-4.41443e-10
3.74131e-07
-5.22838e-10
3.74171e-07
-5.91345e-10
3.7422e-07
-6.50099e-10
-7.01438e-10
3.74279e-07
3.71487e-07
2.70737e-09
3.71786e-07
1.97965e-09
3.71986e-07
1.40612e-09
3.72119e-07
9.52861e-10
3.72209e-07
5.94717e-10
3.7227e-07
3.12514e-10
3.72308e-07
9.06107e-11
3.7234e-07
-1.00219e-10
3.72367e-07
-2.49112e-10
3.72397e-07
-3.72293e-10
3.72431e-07
-4.75698e-10
3.72472e-07
-5.63614e-10
3.7252e-07
-6.39675e-10
3.72576e-07
-7.06664e-10
-7.66274e-10
3.72641e-07
3.19135e-07
2.29604e-09
3.19413e-07
1.70166e-09
3.19596e-07
1.22322e-09
3.1971e-07
8.38408e-10
3.19776e-07
5.28495e-10
3.19813e-07
2.759e-10
3.19836e-07
6.74113e-11
3.19844e-07
-1.07715e-10
3.19848e-07
-2.53593e-10
3.19852e-07
-3.76522e-10
3.19859e-07
-4.82051e-10
3.19869e-07
-5.74182e-10
3.19885e-07
-6.55722e-10
3.19907e-07
-7.28752e-10
-7.94763e-10
3.19936e-07
2.67713e-07
1.90283e-09
2.67996e-07
1.41854e-09
2.68198e-07
1.02214e-09
2.68339e-07
6.96878e-10
2.68438e-07
4.29866e-10
2.68507e-07
2.0705e-10
2.68552e-07
2.18432e-11
2.68582e-07
-1.37473e-10
2.68601e-07
-2.73067e-10
2.68616e-07
-3.90724e-10
2.68627e-07
-4.93871e-10
2.68639e-07
-5.85497e-10
2.68651e-07
-6.67819e-10
2.68664e-07
-7.42466e-10
-8.10595e-10
2.6868e-07
2.21105e-07
1.54401e-09
2.21371e-07
1.15286e-09
2.21566e-07
8.27441e-10
2.21706e-07
5.56205e-10
2.21807e-07
3.29163e-10
2.21877e-07
1.37378e-10
2.21925e-07
-2.64525e-11
2.21956e-07
-1.6851e-10
2.21976e-07
-2.92789e-10
2.21987e-07
-4.02493e-10
2.21994e-07
-5.00209e-10
2.21996e-07
-5.88119e-10
2.21996e-07
-6.67906e-10
2.21995e-07
-7.40819e-10
-8.07748e-10
2.21992e-07
1.80291e-07
1.22452e-09
1.80531e-07
9.1273e-10
1.80709e-07
6.49505e-10
1.80838e-07
4.26818e-10
1.80931e-07
2.3679e-10
1.80995e-07
7.30681e-11
1.81037e-07
-6.81877e-11
1.81061e-07
-1.93381e-10
1.81073e-07
-3.04466e-10
1.81075e-07
-4.03867e-10
1.81068e-07
-4.93503e-10
1.81055e-07
-5.7493e-10
1.81036e-07
-6.4935e-10
1.81013e-07
-7.17663e-10
-7.80507e-10
1.80986e-07
1.45395e-07
9.50754e-10
1.45602e-07
7.06086e-10
1.45755e-07
4.96352e-10
1.45866e-07
3.16036e-10
1.45943e-07
1.5973e-10
1.45994e-07
2.25779e-11
1.46022e-07
-9.70697e-11
1.46034e-07
-2.04823e-10
1.46031e-07
-3.0161e-10
1.46016e-07
-3.89185e-10
1.45992e-07
-4.68894e-10
1.45959e-07
-5.41809e-10
1.45918e-07
-6.08743e-10
1.45871e-07
-6.70312e-10
-7.26953e-10
1.45817e-07
1.16066e-07
7.25994e-10
1.16235e-07
5.36855e-10
1.16359e-07
3.72378e-10
1.16447e-07
2.28607e-10
1.16504e-07
1.02305e-10
1.16536e-07
-9.72356e-12
1.16549e-07
-1.09719e-10
1.16544e-07
-2.00222e-10
1.16525e-07
-2.82478e-10
1.16494e-07
-3.57589e-10
1.16451e-07
-4.26434e-10
1.16399e-07
-4.89717e-10
1.16338e-07
-5.47967e-10
1.1627e-07
-6.01591e-10
-6.50872e-10
1.16194e-07
9.17375e-08
5.47795e-10
9.18705e-08
4.03866e-10
9.19659e-08
2.76941e-10
9.203e-08
1.64518e-10
9.20682e-08
6.41195e-11
9.20843e-08
-2.5801e-11
9.2082e-08
-1.07382e-10
9.20636e-08
-1.81835e-10
9.20312e-08
-2.50107e-10
9.19865e-08
-3.129e-10
9.19308e-08
-3.70769e-10
9.18653e-08
-4.24158e-10
9.17907e-08
-4.73396e-10
9.17079e-08
-5.1874e-10
-5.60356e-10
9.16174e-08
7.17824e-08
4.09652e-10
7.18843e-08
3.01987e-10
7.19554e-08
2.05826e-10
7.20005e-08
1.19382e-10
7.20234e-08
4.11714e-11
7.20273e-08
-2.96826e-11
7.20147e-08
-9.47444e-11
7.19875e-08
-1.5465e-10
7.19474e-08
-2.09987e-10
7.18957e-08
-2.61191e-10
7.18335e-08
-3.08595e-10
7.17618e-08
-3.52463e-10
7.16814e-08
-3.92987e-10
7.1593e-08
-4.30318e-10
-4.64547e-10
7.14972e-08
5.55783e-08
3.03717e-10
5.56556e-08
2.24697e-10
5.57082e-08
1.5324e-10
5.57394e-08
8.81559e-11
5.57522e-08
2.84305e-11
5.57487e-08
-2.61728e-11
5.57308e-08
-7.6872e-11
5.57001e-08
-1.23936e-10
5.56578e-08
-1.6769e-10
5.5605e-08
-2.08386e-10
5.55426e-08
-2.46215e-10
5.54715e-08
-2.81319e-10
5.53923e-08
-3.13802e-10
5.53057e-08
-3.43745e-10
-3.7119e-10
5.52123e-08
4.25407e-08
2.22686e-10
4.25994e-08
1.65965e-10
4.26386e-08
1.14069e-10
4.26606e-08
6.61577e-11
4.26673e-08
2.16942e-11
4.26605e-08
-1.9384e-11
4.26415e-08
-5.78682e-11
4.26114e-08
-9.38765e-11
4.25713e-08
-1.27535e-10
4.25219e-08
-1.58987e-10
4.2464e-08
-1.88333e-10
4.23983e-08
-2.1564e-10
4.23255e-08
-2.40957e-10
4.22461e-08
-2.6432e-10
-2.85741e-10
4.21606e-08
3.21396e-08
1.6065e-10
3.21845e-08
1.21009e-10
3.22143e-08
8.43285e-11
3.22304e-08
5.00228e-11
3.22342e-08
1.78632e-11
3.2227e-08
-1.2126e-11
3.22096e-08
-4.04657e-11
3.21829e-08
-6.71868e-11
3.21476e-08
-9.22719e-11
3.21044e-08
-1.15815e-10
3.2054e-08
-1.37861e-10
3.19968e-08
-1.58435e-10
3.19334e-08
-1.77551e-10
3.18643e-08
-1.95219e-10
-2.11435e-10
3.17899e-08
2.39092e-08
1.13143e-10
2.39439e-08
8.63377e-11
2.3967e-08
6.12694e-11
2.39795e-08
3.75239e-11
2.39823e-08
1.50774e-11
2.39762e-08
-6.02277e-12
2.39618e-08
-2.61309e-11
2.39399e-08
-4.5257e-11
2.39109e-08
-6.32564e-11
2.38753e-08
-8.02208e-11
2.38336e-08
-9.61655e-11
2.37862e-08
-1.1109e-10
2.37337e-08
-1.24992e-10
2.36763e-08
-1.37866e-10
-1.49699e-10
2.36146e-08
1.74495e-08
7.69135e-11
1.74763e-08
5.95309e-11
1.74944e-08
4.31233e-11
1.75046e-08
2.73922e-11
1.75072e-08
1.24058e-11
1.7503e-08
-1.75633e-12
1.74922e-08
-1.5357e-11
1.74754e-08
-2.8456e-11
1.74529e-08
-4.07734e-11
1.74251e-08
-5.24327e-11
1.73924e-08
-6.34336e-11
1.73551e-08
-7.37638e-11
1.73135e-08
-8.34128e-11
1.7268e-08
-9.23676e-11
-1.00613e-10
1.72189e-08
1.24224e-08
4.96226e-11
1.24429e-08
3.89616e-11
1.24572e-08
2.88296e-11
1.24656e-08
1.90092e-11
1.24684e-08
9.57885e-12
1.2466e-08
6.29411e-13
1.24587e-08
-7.9889e-12
1.24467e-08
-1.64518e-11
1.24303e-08
-2.43774e-11
1.24097e-08
-3.19102e-11
1.23854e-08
-3.90462e-11
1.23574e-08
-4.57701e-11
1.2326e-08
-5.20693e-11
1.22916e-08
-5.7929e-11
-6.33332e-11
1.22543e-08
8.54599e-09
2.95773e-11
8.56142e-09
2.3534e-11
8.57247e-09
1.77785e-11
8.57933e-09
1.21502e-11
8.5822e-09
6.70861e-12
8.58134e-09
1.48604e-12
8.57686e-09
-3.50126e-12
8.56891e-09
-8.50363e-12
8.55773e-09
-1.31949e-11
8.54347e-09
-1.76588e-11
8.52633e-09
-2.19048e-11
8.50648e-09
-2.59201e-11
8.48411e-09
-2.96935e-11
8.45939e-09
-3.32121e-11
-3.64604e-11
8.43252e-09
5.58765e-09
1.55119e-11
5.59871e-09
1.24781e-11
5.60688e-09
9.61117e-12
5.61224e-09
6.7898e-12
5.6149e-09
4.04631e-12
5.61502e-09
1.36283e-12
5.61268e-09
-1.15803e-12
5.60791e-09
-3.73308e-12
5.60088e-09
-6.17104e-12
5.59171e-09
-8.48675e-12
5.5805e-09
-1.06983e-11
5.56738e-09
-1.27978e-11
5.55247e-09
-1.47771e-11
5.53588e-09
-1.66268e-11
-1.83329e-11
5.51775e-09
3.35662e-09
6.42979e-12
3.3639e-09
5.20213e-12
3.36943e-09
4.07961e-12
3.37325e-09
2.97105e-12
3.37541e-09
1.88373e-12
3.37597e-09
7.99068e-13
3.37502e-09
-2.05394e-13
3.37253e-09
-1.24741e-12
3.36861e-09
-2.24429e-12
3.36331e-09
-3.19056e-12
3.35671e-09
-4.09854e-12
3.34888e-09
-4.9635e-12
3.33988e-09
-5.78122e-12
3.3298e-09
-6.54607e-12
-7.24701e-12
3.31871e-09
1.69776e-09
1.49981e-12
1.70176e-09
1.19882e-12
1.70488e-09
9.58277e-13
1.70713e-09
7.19124e-13
1.70854e-09
4.79478e-13
1.7091e-09
2.33019e-13
1.70889e-09
1.01418e-14
1.70787e-09
-2.27072e-13
1.70608e-09
-4.55972e-13
1.70356e-09
-6.72175e-13
1.70035e-09
-8.83261e-13
1.69647e-09
-1.08293e-12
1.69196e-09
-1.27222e-12
1.68686e-09
-1.44854e-12
-1.60503e-12
1.68122e-09
4.85712e-10
4.86911e-10
4.87869e-10
4.88588e-10
4.89068e-10
4.89301e-10
4.89311e-10
4.89084e-10
4.88628e-10
4.87956e-10
4.87073e-10
4.8599e-10
4.84717e-10
4.83269e-10
4.81664e-10
1.12599e-09
-4.33981e-10
2.48821e-10
1.39276e-09
-3.36879e-10
7.01117e-11
1.66305e-09
-1.69641e-10
-1.00651e-10
1.93116e-09
9.30237e-12
-2.77416e-10
2.19562e-09
1.96521e-10
-4.60974e-10
2.45755e-09
3.86036e-10
-6.47975e-10
2.7187e-09
5.7702e-10
-8.38161e-10
2.98038e-09
7.68738e-10
-1.03042e-09
3.24364e-09
9.59763e-10
-1.22303e-09
3.50928e-09
1.14814e-09
-1.41378e-09
3.77795e-09
1.33141e-09
-1.60008e-09
4.0503e-09
1.50643e-09
-1.77877e-09
4.32709e-09
1.66912e-09
-1.94591e-09
4.60927e-09
1.81409e-09
-2.09627e-09
4.89802e-09
1.93398e-09
-2.22273e-09
5.19485e-09
2.01932e-09
-2.31616e-09
5.50177e-09
2.05824e-09
-2.36516e-09
5.82155e-09
2.0375e-09
-2.35728e-09
6.15795e-09
1.94083e-09
-2.27723e-09
6.51562e-09
1.74424e-09
-2.10191e-09
6.89836e-09
1.40334e-09
-1.78609e-09
7.30499e-09
8.18739e-10
-1.22537e-09
7.66491e-09
-1.13314e-10
-2.46607e-10
7.95088e-09
-1.03946e-09
7.53498e-10
8.16428e-09
-1.85457e-09
1.64117e-09
8.30964e-09
-2.53272e-09
2.38736e-09
8.39377e-09
-3.06954e-09
2.98541e-09
8.42365e-09
-3.4678e-09
3.43791e-09
8.40493e-09
-3.73217e-09
3.75089e-09
8.34202e-09
-3.87018e-09
3.9331e-09
8.23857e-09
-3.8907e-09
3.99415e-09
8.0978e-09
-3.79873e-09
3.9395e-09
7.92267e-09
-3.59739e-09
3.77252e-09
7.71607e-09
-3.28959e-09
3.49618e-09
7.48072e-09
-2.87893e-09
3.11427e-09
7.21903e-09
-2.36991e-09
2.63161e-09
6.93292e-09
-1.76712e-09
2.05323e-09
6.62395e-09
-1.07337e-09
1.38234e-09
6.29333e-09
-2.87057e-10
6.1767e-10
5.94091e-09
5.9894e-10
-2.46519e-10
5.56114e-09
1.58918e-09
-1.20941e-09
5.13451e-09
2.65733e-09
-2.2307e-09
4.62622e-09
3.66981e-09
-3.16152e-09
4.03813e-09
4.29153e-09
-3.70343e-09
3.71111e-09
3.67322e-09
-3.34621e-09
2.3598e-09
-5.06469e-10
2.52028e-09
-4.97356e-10
2.73951e-09
-3.88874e-10
2.98602e-09
-2.37208e-10
3.24674e-09
-6.42009e-11
3.51532e-09
1.17458e-10
3.78944e-09
3.02904e-10
4.06832e-09
4.89852e-10
4.35187e-09
6.76211e-10
4.64025e-09
8.5977e-10
4.93372e-09
1.03794e-09
5.23273e-09
1.20742e-09
5.53789e-09
1.36395e-09
5.85007e-09
1.50191e-09
6.17035e-09
1.61369e-09
6.50016e-09
1.68951e-09
6.84136e-09
1.71703e-09
7.19652e-09
1.68235e-09
7.56909e-09
1.56826e-09
7.96333e-09
1.35e-09
8.38254e-09
9.84134e-10
8.82478e-09
3.76502e-10
9.21407e-09
-5.02612e-10
9.52228e-09
-1.34767e-09
9.75171e-09
-2.084e-09
9.90743e-09
-2.68844e-09
9.99692e-09
-3.15903e-09
1.00279e-08
-3.49878e-09
1.00066e-08
-3.71091e-09
9.93819e-09
-3.80173e-09
9.8268e-09
-3.77931e-09
9.67639e-09
-3.64832e-09
9.49081e-09
-3.41181e-09
9.27402e-09
-3.07279e-09
9.03013e-09
-2.63504e-09
8.76344e-09
-2.10322e-09
8.47854e-09
-1.48222e-09
8.18098e-09
-7.75812e-10
7.87862e-09
1.53099e-11
7.58321e-09
8.94352e-10
7.3116e-09
1.86078e-09
7.08455e-09
2.88438e-09
6.92816e-09
3.8262e-09
6.86818e-09
4.35151e-09
3.81679e-09
6.7625e-09
4.13506e-09
-5.19054e-10
4.20695e-09
-5.69241e-10
4.35011e-09
-5.32035e-10
4.5463e-09
-4.334e-10
4.77722e-09
-2.9512e-10
5.03135e-09
-1.36676e-10
5.30195e-09
3.23028e-11
5.5852e-09
2.06604e-10
5.87902e-09
3.82397e-10
6.1823e-09
5.56491e-10
6.4945e-09
7.25733e-10
6.81552e-09
8.86402e-10
7.14561e-09
1.03386e-09
7.48535e-09
1.16217e-09
7.8356e-09
1.26343e-09
8.19757e-09
1.32755e-09
8.57281e-09
1.34179e-09
8.96351e-09
1.29164e-09
9.37261e-09
1.15916e-09
9.80371e-09
9.18906e-10
1.02592e-08
5.28627e-10
1.07361e-08
-1.00404e-10
1.11532e-08
-9.19706e-10
1.14818e-08
-1.67624e-09
1.17252e-08
-2.32746e-09
1.18893e-08
-2.85251e-09
1.19822e-08
-3.25193e-09
1.20125e-08
-3.52904e-09
1.19871e-08
-3.68558e-09
1.1912e-08
-3.72655e-09
1.17919e-08
-3.65926e-09
1.16318e-08
-3.48816e-09
1.14364e-08
-3.21646e-09
1.12112e-08
-2.84756e-09
1.09619e-08
-2.38577e-09
1.06952e-08
-1.83649e-09
1.04188e-08
-1.20585e-09
1.01429e-08
-4.99953e-10
9.88231e-09
2.75929e-10
9.66007e-09
1.1166e-09
9.51097e-09
2.00988e-09
9.47994e-09
2.91541e-09
9.6008e-09
3.70534e-09
9.82258e-09
4.12973e-09
3.73926e-09
9.90011e-09
6.58108e-09
-4.97557e-10
6.59249e-09
-5.80645e-10
6.65901e-09
-5.98558e-10
6.78676e-09
-5.61153e-10
6.96449e-09
-4.72847e-10
7.18064e-09
-3.52823e-10
7.42649e-09
-2.13548e-10
7.6958e-09
-6.27129e-11
7.98444e-09
9.37662e-11
8.28969e-09
2.51239e-10
8.60985e-09
4.05575e-10
8.94396e-09
5.52291e-10
9.29166e-09
6.86161e-10
9.65304e-09
8.00788e-10
1.00286e-08
8.87916e-10
1.0419e-08
9.37126e-10
1.08254e-08
9.3535e-10
1.12495e-08
8.67581e-10
1.16933e-08
7.15367e-10
1.21594e-08
4.52776e-10
1.2649e-08
3.90465e-11
1.31575e-08
-6.08868e-10
1.35987e-08
-1.36098e-09
1.3944e-08
-2.02147e-09
1.41978e-08
-2.58134e-09
1.43668e-08
-3.02145e-09
1.44598e-08
-3.34497e-09
1.44865e-08
-3.5557e-09
1.44547e-08
-3.6538e-09
1.4371e-08
-3.64287e-09
1.42412e-08
-3.52944e-09
1.4071e-08
-3.31798e-09
1.38667e-08
-3.0121e-09
1.3635e-08
-2.61592e-09
1.33839e-08
-2.13469e-09
1.31226e-08
-1.57512e-09
1.28621e-08
-9.45366e-10
1.26171e-08
-2.55007e-10
1.2408e-08
4.85107e-10
1.22645e-08
1.26009e-09
1.2228e-08
2.04632e-09
1.23448e-08
2.79864e-09
1.26335e-08
3.41666e-09
1.30298e-08
3.73339e-09
3.51226e-09
1.32568e-08
9.86992e-09
-4.61174e-10
9.84451e-09
-5.55232e-10
9.85283e-09
-6.06878e-10
9.90969e-09
-6.18011e-10
1.00207e-08
-5.83891e-10
1.01792e-08
-5.1132e-10
1.03786e-08
-4.12938e-10
1.06126e-08
-2.96709e-10
1.08762e-08
-1.69795e-10
1.11654e-08
-3.80324e-11
1.14776e-08
9.34141e-11
1.18108e-08
2.19107e-10
1.21639e-08
3.33059e-10
1.25364e-08
4.28317e-10
1.29281e-08
4.96197e-10
1.33392e-08
5.25965e-10
1.37703e-08
5.04299e-10
1.4222e-08
4.15857e-10
1.46954e-08
2.41956e-10
1.51917e-08
-4.35382e-11
1.57103e-08
-4.79476e-10
1.62443e-08
-1.14291e-09
1.67036e-08
-1.82028e-09
1.70596e-08
-2.37742e-09
1.73183e-08
-2.84005e-09
1.74868e-08
-3.19e-09
1.75752e-08
-3.43333e-09
1.7594e-08
-3.57457e-09
1.75524e-08
-3.61219e-09
1.74577e-08
-3.54817e-09
1.73165e-08
-3.38823e-09
1.71357e-08
-3.13717e-09
1.6923e-08
-2.79935e-09
1.66869e-08
-2.37987e-09
1.64375e-08
-1.88533e-09
1.61866e-08
-1.32417e-09
1.59482e-08
-7.06997e-10
1.57407e-08
-4.74271e-11
1.55867e-08
6.39094e-10
1.55171e-08
1.32964e-09
1.5569e-08
1.99443e-09
1.57771e-08
2.59055e-09
1.6145e-08
3.04876e-09
1.66025e-08
3.27588e-09
3.17032e-09
1.69444e-08
1.42044e-08
-4.23065e-10
1.41614e-08
-5.12233e-10
1.41354e-08
-5.80851e-10
1.41383e-08
-6.20926e-10
1.41843e-08
-6.29969e-10
1.42773e-08
-6.04225e-10
1.44153e-08
-5.50974e-10
1.45953e-08
-4.76689e-10
1.48135e-08
-3.88071e-10
1.50665e-08
-2.90994e-10
1.5351e-08
-1.91126e-10
1.56649e-08
-9.46981e-11
1.60063e-08
-8.38756e-12
1.63743e-08
6.03331e-11
1.67681e-08
1.02376e-10
1.71873e-08
1.06762e-10
1.76316e-08
6.00536e-11
1.81006e-08
-5.32152e-11
1.85942e-08
-2.51579e-10
1.91116e-08
-5.60986e-10
1.96499e-08
-1.0178e-09
2.01997e-08
-1.69266e-09
2.06675e-08
-2.28809e-09
2.10254e-08
-2.73535e-09
2.12809e-08
-3.09552e-09
2.14416e-08
-3.3507e-09
2.15185e-08
-3.5102e-09
2.15238e-08
-3.57988e-09
2.14678e-08
-3.55619e-09
2.13586e-08
-3.43895e-09
2.12036e-08
-3.23324e-09
2.1011e-08
-2.9446e-09
2.07901e-08
-2.57841e-09
2.05512e-08
-2.14105e-09
2.03066e-08
-1.64066e-09
2.007e-08
-1.08763e-09
1.98581e-08
-4.95037e-10
1.96898e-08
1.20852e-10
1.95887e-08
7.40228e-10
1.95805e-08
1.33783e-09
1.96916e-08
1.88334e-09
1.99405e-08
2.34166e-09
2.03184e-08
2.67078e-09
2.07665e-08
2.82784e-09
2.77894e-09
2.11579e-08
1.98203e-08
-3.90669e-10
1.97769e-08
-4.68841e-10
1.97357e-08
-5.39645e-10
1.97095e-08
-5.9473e-10
1.9709e-08
-6.2942e-10
1.97448e-08
-6.40055e-10
1.98209e-08
-6.27118e-10
1.9939e-08
-5.94706e-10
2.00987e-08
-5.47846e-10
2.02987e-08
-4.90982e-10
2.0537e-08
-4.29417e-10
2.0812e-08
-3.69651e-10
2.11222e-08
-3.18631e-10
2.14666e-08
-2.84043e-10
2.18441e-08
-2.75172e-10
2.22539e-08
-3.0303e-10
2.26949e-08
-3.80926e-10
2.31658e-08
-5.24139e-10
2.36648e-08
-7.5056e-10
2.41893e-08
-1.08545e-09
2.47334e-08
-1.56191e-09
2.52843e-08
-2.24359e-09
2.57473e-08
-2.75103e-09
2.60952e-08
-3.08334e-09
2.63367e-08
-3.33695e-09
2.64796e-08
-3.49362e-09
2.65361e-08
-3.56668e-09
2.65205e-08
-3.5643e-09
2.64443e-08
-3.48e-09
2.6316e-08
-3.31067e-09
2.6144e-08
-3.06122e-09
2.59378e-08
-2.73839e-09
2.57082e-08
-2.34885e-09
2.54675e-08
-1.90035e-09
2.52294e-08
-1.40256e-09
2.50094e-08
-8.67578e-10
2.48246e-08
-3.10285e-10
2.46939e-08
2.51586e-10
2.46372e-08
7.96945e-10
2.46731e-08
1.30194e-09
2.48156e-08
1.74082e-09
2.50686e-08
2.08865e-09
2.54162e-08
2.32314e-09
2.58146e-08
2.42948e-09
2.40384e-09
2.61897e-08
2.6993e-08
-3.66524e-10
2.69579e-08
-4.33727e-10
2.69183e-08
-5.00021e-10
2.68829e-08
-5.59385e-10
2.68607e-08
-6.07132e-10
2.68609e-08
-6.40285e-10
2.68906e-08
-6.56779e-10
2.69549e-08
-6.59053e-10
2.70575e-08
-6.50431e-10
2.71995e-08
-6.33027e-10
2.73816e-08
-6.1149e-10
2.7604e-08
-5.92083e-10
2.78668e-08
-5.81382e-10
2.81695e-08
-5.86785e-10
2.85117e-08
-6.17386e-10
2.88926e-08
-6.8384e-10
2.93106e-08
-7.98952e-10
2.97638e-08
-9.77365e-10
3.0249e-08
-1.23571e-09
3.07614e-08
-1.59792e-09
3.12923e-08
-2.0928e-09
3.18251e-08
-2.77635e-09
3.22659e-08
-3.19181e-09
3.25889e-08
-3.40638e-09
3.28029e-08
-3.55096e-09
3.29158e-08
-3.60649e-09
3.29412e-08
-3.59214e-09
3.28964e-08
-3.51945e-09
3.27935e-08
-3.37707e-09
3.26407e-08
-3.15792e-09
3.24476e-08
-2.86808e-09
3.22251e-08
-2.51593e-09
3.19857e-08
-2.10946e-09
3.1743e-08
-1.65762e-09
3.15117e-08
-1.17131e-09
3.13079e-08
-6.63686e-10
3.11479e-08
-1.50341e-10
3.10481e-08
3.51351e-10
3.10234e-08
8.21699e-10
3.10843e-08
1.24099e-09
3.12348e-08
1.59037e-09
3.14688e-08
1.85459e-09
3.1768e-08
2.02403e-09
3.21001e-08
2.09733e-09
2.08174e-09
3.24222e-08
3.60393e-08
-3.50217e-10
3.60146e-08
-4.09077e-10
3.59845e-08
-4.69904e-10
3.5954e-08
-5.2885e-10
3.59292e-08
-5.82325e-10
3.59171e-08
-6.28252e-10
3.59237e-08
-6.6335e-10
3.59557e-08
-6.91054e-10
3.6018e-08
-7.12684e-10
3.61131e-08
-7.28186e-10
3.62443e-08
-7.42711e-10
3.64142e-08
-7.61931e-10
3.66244e-08
-7.91644e-10
3.68763e-08
-8.38642e-10
3.71704e-08
-9.11484e-10
3.75066e-08
-1.02005e-09
3.78839e-08
-1.17621e-09
3.82999e-08
-1.39343e-09
3.87506e-08
-1.68641e-09
3.92297e-08
-2.077e-09
3.97254e-08
-2.58844e-09
4.02173e-08
-3.26833e-09
4.06161e-08
-3.59055e-09
4.08971e-08
-3.68745e-09
4.10685e-08
-3.72234e-09
4.11376e-08
-3.67555e-09
4.11211e-08
-3.57567e-09
4.10392e-08
-3.43756e-09
4.09031e-08
-3.24097e-09
4.07202e-08
-2.97503e-09
4.05016e-08
-2.64948e-09
4.02601e-08
-2.27437e-09
4.00092e-08
-1.85857e-09
3.97634e-08
-1.41183e-09
3.95378e-08
-9.45651e-10
3.93473e-08
-4.73275e-10
3.92066e-08
-9.55528e-12
3.91279e-08
4.29961e-10
3.91206e-08
8.29024e-10
3.91884e-08
1.1732e-09
3.93283e-08
1.4505e-09
3.95296e-08
1.65328e-09
3.97743e-08
1.77935e-09
4.00387e-08
1.83287e-09
1.82353e-09
4.02969e-08
4.73132e-08
-3.41057e-10
4.72987e-08
-3.94561e-10
4.72802e-08
-4.51418e-10
4.72607e-08
-5.09348e-10
4.72442e-08
-5.65819e-10
4.72357e-08
-6.19732e-10
4.72397e-08
-6.67341e-10
4.72624e-08
-7.13733e-10
4.73072e-08
-7.57487e-10
4.73774e-08
-7.98408e-10
4.74773e-08
-8.4264e-10
4.76104e-08
-8.94997e-10
4.77794e-08
-9.60599e-10
4.79865e-08
-1.04581e-09
4.82337e-08
-1.15864e-09
4.85216e-08
-1.30801e-09
4.885e-08
-1.50461e-09
4.92169e-08
-1.76033e-09
4.96178e-08
-2.08732e-09
5.00456e-08
-2.50472e-09
5.04858e-08
-3.02866e-09
5.09155e-08
-3.69801e-09
5.12532e-08
-3.92831e-09
5.14759e-08
-3.91011e-09
5.15894e-08
-3.8359e-09
5.16015e-08
-3.68758e-09
5.15356e-08
-3.50984e-09
5.14127e-08
-3.31466e-09
5.12378e-08
-3.06602e-09
5.10198e-08
-2.75706e-09
5.07725e-08
-2.40216e-09
5.05099e-08
-2.01179e-09
5.02464e-08
-1.59507e-09
4.99965e-08
-1.16189e-09
4.97743e-08
-7.23489e-10
4.95932e-08
-2.92142e-10
4.94641e-08
1.19534e-10
4.93956e-08
4.98446e-10
4.93916e-08
8.33065e-10
4.94508e-08
1.11394e-09
4.95667e-08
1.33466e-09
4.97272e-08
1.49271e-09
4.99168e-08
1.58979e-09
5.01179e-08
1.63177e-09
1.62765e-09
5.03138e-08
6.12023e-08
-3.39799e-10
6.11983e-08
-3.90549e-10
6.11924e-08
-4.45504e-10
6.11866e-08
-5.03563e-10
6.11841e-08
-5.6329e-10
6.11879e-08
-6.23614e-10
6.12024e-08
-6.81761e-10
6.12292e-08
-7.40532e-10
6.12736e-08
-8.01945e-10
6.13409e-08
-8.65711e-10
6.14334e-08
-9.35127e-10
6.15533e-08
-1.01487e-09
6.17032e-08
-1.11052e-09
6.18856e-08
-1.22818e-09
6.21022e-08
-1.3753e-09
6.23541e-08
-1.55992e-09
6.26412e-08
-1.79164e-09
6.29614e-08
-2.08055e-09
6.33101e-08
-2.43606e-09
6.36798e-08
-2.87438e-09
6.40539e-08
-3.40272e-09
6.4408e-08
-4.05212e-09
6.46727e-08
-4.19302e-09
6.48246e-08
-4.06204e-09
6.48666e-08
-3.87792e-09
6.48155e-08
-3.63644e-09
6.47059e-08
-3.40021e-09
6.45403e-08
-3.14912e-09
6.43222e-08
-2.84794e-09
6.40676e-08
-2.50247e-09
6.37918e-08
-2.12635e-09
6.35094e-08
-1.72936e-09
6.32346e-08
-1.32025e-09
6.2981e-08
-9.083e-10
6.2761e-08
-5.0354e-10
6.25853e-08
-1.16369e-10
6.24611e-08
2.43708e-10
6.2393e-08
5.66517e-10
6.2381e-08
8.45079e-10
6.24209e-08
1.07408e-09
6.25045e-08
1.25103e-09
6.26208e-08
1.37644e-09
6.27569e-08
1.45371e-09
6.28999e-08
1.48873e-09
1.48902e-09
6.30385e-08
7.81371e-08
-3.48892e-10
7.81457e-08
-3.99095e-10
7.81543e-08
-4.54133e-10
7.81644e-08
-5.13619e-10
7.81778e-08
-5.76763e-10
7.81973e-08
-6.4304e-10
7.82277e-08
-7.12191e-10
7.82709e-08
-7.83699e-10
7.83294e-08
-8.60514e-10
7.84074e-08
-9.43711e-10
7.85077e-08
-1.03541e-09
7.86325e-08
-1.13965e-09
7.87837e-08
-1.26171e-09
7.89628e-08
-1.40729e-09
7.91708e-08
-1.5833e-09
7.94077e-08
-1.79681e-09
7.96724e-08
-2.05636e-09
7.99621e-08
-2.37023e-09
8.0271e-08
-2.745e-09
8.0591e-08
-3.19436e-09
8.09031e-08
-3.71481e-09
8.11827e-08
-4.33169e-09
8.13749e-08
-4.38527e-09
8.1447e-08
-4.13414e-09
8.14179e-08
-3.84883e-09
8.13229e-08
-3.54139e-09
8.11737e-08
-3.2511e-09
8.09642e-08
-2.93953e-09
8.07067e-08
-2.59049e-09
8.04213e-08
-2.21701e-09
8.01237e-08
-1.8288e-09
7.98282e-08
-1.43389e-09
7.95481e-08
-1.04006e-09
7.92951e-08
-6.55348e-10
7.90794e-08
-2.87859e-10
7.89075e-08
5.55591e-11
7.87846e-08
3.66561e-10
7.87114e-08
6.39734e-10
7.86854e-08
8.71134e-10
7.87009e-08
1.05858e-09
7.87499e-08
1.20202e-09
7.88228e-08
1.30354e-09
7.89095e-08
1.36701e-09
7.90005e-08
1.39769e-09
1.40159e-09
7.90879e-08
9.8627e-08
-3.71116e-10
9.86506e-08
-4.22685e-10
9.86761e-08
-4.7962e-10
9.87045e-08
-5.42002e-10
9.87375e-08
-6.09728e-10
9.87772e-08
-6.8283e-10
9.88267e-08
-7.61618e-10
9.88891e-08
-8.46098e-10
9.89663e-08
-9.37747e-10
9.90613e-08
-1.03871e-09
9.91771e-08
-1.15117e-09
9.93157e-08
-1.27827e-09
9.94786e-08
-1.42461e-09
9.96666e-08
-1.5953e-09
9.98798e-08
-1.79647e-09
1.00117e-07
-2.03405e-09
1.00376e-07
-2.31518e-09
1.00652e-07
-2.64625e-09
1.00938e-07
-3.03078e-09
1.01223e-07
-3.47995e-09
1.01488e-07
-3.97967e-09
1.01707e-07
-4.55028e-09
1.01833e-07
-4.5116e-09
1.01839e-07
-4.14038e-09
1.01763e-07
-3.77266e-09
1.01637e-07
-3.41564e-09
1.01451e-07
-3.06526e-09
1.01207e-07
-2.69462e-09
1.00924e-07
-2.30815e-09
1.00623e-07
-1.91604e-09
1.00319e-07
-1.52437e-09
1.00024e-07
-1.13907e-09
9.97502e-08
-7.66252e-10
9.95068e-08
-4.11933e-10
9.93014e-08