/*--------------------------------*- C++ -*----------------------------------*\
| =========                 |                                                 |
| \\      /  F ield         | OpenFOAM: The Open Source CFD Toolbox           |
|  \\    /   O peration     | Version:  2312                                  |
|   \\  /    A nd           | Website:  www.openfoam.com                      |
|    \\/     M anipulation  |                                                 |
\*---------------------------------------------------------------------------*/
FoamFile
{
    version     2.0;
    format      ascii;
    arch        "LSB;label=32;scalar=64";
    class       volScalarField;
    location    "190";
    object      p;
}
// * * * * * * * * * * * * * * * * * * * * * * * * * * * * * * * * * * * * * //

dimensions      [0 2 -2 0 0 0 0];

internalField   nonuniform List<scalar> 
4800
(
-2.24219e-13
-1.12582e-06
-2.02489e-06
-2.76621e-06
-3.38559e-06
-3.92326e-06
-4.3943e-06
-4.80814e-06
-5.17762e-06
-5.5121e-06
-5.8168e-06
-6.09236e-06
-6.33175e-06
-6.7718e-06
-8.35012e-06
1.37425e-08
-1.11144e-06
-2.01032e-06
-2.75196e-06
-3.37236e-06
-3.91171e-06
-4.3853e-06
-4.8027e-06
-5.17747e-06
-5.52096e-06
-5.84305e-06
-6.15751e-06
-6.47695e-06
-6.90747e-06
-7.6868e-06
2.79625e-08
-1.09638e-06
-1.99507e-06
-2.7372e-06
-3.35836e-06
-3.89831e-06
-4.37394e-06
-4.79424e-06
-5.17315e-06
-5.52296e-06
-5.85469e-06
-6.18264e-06
-6.51345e-06
-6.85345e-06
-7.17649e-06
4.2063e-08
-1.08088e-06
-1.97893e-06
-2.72102e-06
-3.34299e-06
-3.88212e-06
-4.35903e-06
-4.78094e-06
-5.16115e-06
-5.51165e-06
-5.84074e-06
-6.15421e-06
-6.44272e-06
-6.67396e-06
-6.77743e-06
5.73629e-08
-1.06353e-06
-1.96033e-06
-2.70164e-06
-3.3246e-06
-3.86122e-06
-4.33774e-06
-4.75935e-06
-5.13704e-06
-5.48108e-06
-5.79505e-06
-6.07525e-06
-6.30173e-06
-6.43557e-06
-6.42204e-06
7.52971e-08
-1.04286e-06
-1.93773e-06
-2.67735e-06
-3.3001e-06
-3.83419e-06
-4.30706e-06
-4.725e-06
-5.09513e-06
-5.42456e-06
-5.71208e-06
-5.94783e-06
-6.11006e-06
-6.16903e-06
-6.09687e-06
9.82267e-08
-1.0166e-06
-1.90873e-06
-2.64562e-06
-3.26577e-06
-3.79706e-06
-4.26322e-06
-4.67248e-06
-5.02893e-06
-5.33579e-06
-5.58863e-06
-5.77612e-06
-5.8815e-06
-5.88926e-06
-5.79221e-06
1.30355e-07
-9.80756e-07
-1.86931e-06
-2.60222e-06
-3.2179e-06
-3.74347e-06
-4.19999e-06
-4.59526e-06
-4.93177e-06
-5.20982e-06
-5.42424e-06
-5.56631e-06
-5.62713e-06
-5.60341e-06
-5.49942e-06
1.78315e-07
-9.29087e-07
-1.81329e-06
-2.54075e-06
-3.14985e-06
-3.66641e-06
-4.1093e-06
-4.4857e-06
-4.79723e-06
-5.0432e-06
-5.22014e-06
-5.3241e-06
-5.35359e-06
-5.31324e-06
-5.212e-06
2.5129e-07
-8.52751e-07
-1.73193e-06
-2.45239e-06
-3.05247e-06
-3.55676e-06
-3.98217e-06
-4.33582e-06
-4.61956e-06
-4.83364e-06
-4.97774e-06
-5.0529e-06
-5.063e-06
-5.01663e-06
-4.92376e-06
3.60513e-07
-7.40564e-07
-1.61403e-06
-2.32591e-06
-2.91455e-06
-3.40365e-06
-3.80885e-06
-4.13776e-06
-4.39372e-06
-4.57926e-06
-4.69748e-06
-4.75334e-06
-4.75383e-06
-4.70888e-06
-4.62775e-06
5.18668e-07
-5.79506e-07
-1.44643e-06
-2.14814e-06
-2.72327e-06
-3.19525e-06
-3.57931e-06
-3.88404e-06
-4.11508e-06
-4.27774e-06
-4.378e-06
-4.42327e-06
-4.42186e-06
-4.38352e-06
-4.31629e-06
7.40216e-07
-3.54602e-07
-1.21405e-06
-1.90416e-06
-2.46442e-06
-2.91912e-06
-3.28348e-06
-3.5673e-06
-3.7787e-06
-3.92555e-06
-4.01582e-06
-4.05808e-06
-4.06079e-06
-4.03284e-06
-3.98101e-06
1.04248e-06
-4.78728e-08
-8.99069e-07
-1.57695e-06
-2.12218e-06
-2.56154e-06
-2.91012e-06
-3.17881e-06
-3.3777e-06
-3.51656e-06
-3.6045e-06
-3.65037e-06
-3.66218e-06
-3.64774e-06
-3.61274e-06
1.44594e-06
3.62167e-07
-4.79934e-07
-1.14642e-06
-1.67898e-06
-2.10693e-06
-2.4457e-06
-2.70678e-06
-2.90144e-06
-3.04047e-06
-3.13346e-06
-3.18905e-06
-3.21456e-06
-3.21679e-06
-3.20054e-06
1.97259e-06
8.99139e-07
6.73375e-08
-5.90098e-07
-1.11489e-06
-1.53757e-06
-1.87387e-06
-2.13595e-06
-2.33533e-06
-2.48296e-06
-2.58838e-06
-2.65974e-06
-2.70373e-06
-2.7263e-06
-2.73167e-06
2.64248e-06
1.58527e-06
7.64128e-07
1.14206e-07
-4.09615e-07
-8.35181e-07
-1.1781e-06
-1.45044e-06
-1.66376e-06
-1.82877e-06
-1.95441e-06
-2.04816e-06
-2.11612e-06
-2.1636e-06
-2.1945e-06
3.46769e-06
2.43615e-06
1.62664e-06
9.79134e-07
4.49466e-07
1.25496e-08
-3.4559e-07
-6.37184e-07
-8.73899e-07
-1.06566e-06
-1.22038e-06
-1.34461e-06
-1.44379e-06
-1.52268e-06
-1.58496e-06
4.44532e-06
3.45293e-06
2.65901e-06
2.00976e-06
1.46684e-06
1.01163e-06
6.31143e-07
3.12287e-07
4.35895e-08
-1.83727e-07
-3.76284e-07
-5.39581e-07
-6.78414e-07
-7.97087e-07
-8.99082e-07
5.54845e-06
4.60704e-06
3.83101e-06
3.18516e-06
2.62945e-06
2.15391e-06
1.74657e-06
1.39458e-06
1.08764e-06
8.18414e-07
5.81505e-07
3.72303e-07
1.86576e-07
2.04707e-08
-1.29367e-07
6.66558e-06
5.77936e-06
5.0253e-06
4.3719e-06
3.80256e-06
3.30427e-06
2.86463e-06
2.4727e-06
2.12055e-06
1.8027e-06
1.51479e-06
1.25282e-06
1.01309e-06
7.92332e-07
5.87685e-07
7.62092e-06
6.78964e-06
6.05512e-06
5.39648e-06
4.81423e-06
4.29548e-06
3.82644e-06
3.39811e-06
3.00511e-06
2.6434e-06
2.30917e-06
1.99884e-06
1.70924e-06
1.43771e-06
1.18189e-06
8.32814e-06
7.53607e-06
6.82322e-06
6.17706e-06
5.59185e-06
5.05793e-06
4.56596e-06
4.10968e-06
3.68488e-06
3.28803e-06
2.9158e-06
2.56517e-06
2.23355e-06
1.91883e-06
1.61905e-06
8.8386e-06
8.08699e-06
7.39746e-06
6.76386e-06
6.17796e-06
5.63362e-06
5.12538e-06
4.64857e-06
4.19939e-06
3.77468e-06
3.37171e-06
2.98813e-06
2.62191e-06
2.27136e-06
1.93495e-06
9.19946e-06
8.48218e-06
7.81526e-06
7.19226e-06
6.60784e-06
6.05818e-06
5.53944e-06
5.04782e-06
4.58007e-06
4.13365e-06
3.70642e-06
3.29661e-06
2.90264e-06
2.52322e-06
2.15713e-06
9.44687e-06
8.75876e-06
8.111e-06
7.49853e-06
6.91813e-06
6.36687e-06
5.84165e-06
5.33948e-06
4.85789e-06
4.39493e-06
3.949e-06
3.51874e-06
3.10295e-06
2.70068e-06
2.31099e-06
9.60833e-06
8.94735e-06
8.31719e-06
7.71559e-06
7.14053e-06
6.58967e-06
6.06058e-06
5.55107e-06
5.05934e-06
4.58396e-06
4.1237e-06
3.67759e-06
3.24475e-06
2.82451e-06
2.41622e-06
9.71363e-06
9.07448e-06
8.46009e-06
7.86888e-06
7.29949e-06
6.75011e-06
6.21894e-06
5.70443e-06
5.20531e-06
4.72055e-06
4.24928e-06
3.79084e-06
3.34464e-06
2.91026e-06
2.4873e-06
9.77967e-06
9.15952e-06
8.55909e-06
7.97741e-06
7.41357e-06
6.86623e-06
6.33412e-06
5.81619e-06
5.31159e-06
4.81965e-06
4.3398e-06
3.87165e-06
3.41486e-06
2.96926e-06
2.5346e-06
9.82002e-06
9.21641e-06
8.62823e-06
8.05513e-06
7.49648e-06
6.95134e-06
6.41891e-06
5.89856e-06
5.38978e-06
4.89218e-06
4.40549e-06
3.92954e-06
3.46421e-06
3.00951e-06
2.5654e-06
9.84416e-06
9.25488e-06
8.67744e-06
8.11191e-06
7.55792e-06
7.01491e-06
6.48247e-06
5.9603e-06
5.44818e-06
4.94598e-06
4.45367e-06
3.97128e-06
3.4989e-06
3.03669e-06
2.58477e-06
9.85845e-06
9.28159e-06
8.7135e-06
8.15456e-06
7.60466e-06
7.06357e-06
6.53121e-06
6.00756e-06
5.49265e-06
4.98659e-06
4.48953e-06
4.0017e-06
3.52334e-06
3.05478e-06
2.59626e-06
9.86702e-06
9.30092e-06
8.74092e-06
8.18768e-06
7.6413e-06
7.10187e-06
6.56958e-06
6.04464e-06
5.5273e-06
5.01788e-06
4.5167e-06
4.02416e-06
3.54064e-06
3.0666e-06
2.6024e-06
9.87245e-06
9.31566e-06
8.76268e-06
8.21433e-06
7.67095e-06
7.13291e-06
6.60061e-06
6.07448e-06
5.55497e-06
5.04256e-06
4.53773e-06
4.04103e-06
3.55297e-06
3.07411e-06
2.60495e-06
9.87628e-06
9.32758e-06
8.78065e-06
8.2365e-06
7.69566e-06
7.15875e-06
6.62636e-06
6.09911e-06
5.5776e-06
5.06248e-06
4.55437e-06
4.05395e-06
3.56184e-06
3.07871e-06
2.60514e-06
9.87939e-06
9.3377e-06
8.796e-06
8.25544e-06
7.71675e-06
7.18073e-06
6.64817e-06
6.11983e-06
5.59647e-06
5.07888e-06
4.56781e-06
4.06404e-06
3.5683e-06
3.08135e-06
2.60384e-06
9.88218e-06
9.34661e-06
8.8094e-06
8.27189e-06
7.735e-06
7.19969e-06
6.66688e-06
6.1375e-06
5.61244e-06
5.09259e-06
4.57884e-06
4.07205e-06
3.57304e-06
3.08267e-06
2.60164e-06
9.88488e-06
9.35468e-06
8.82134e-06
8.28645e-06
7.75106e-06
7.2163e-06
6.68322e-06
6.15285e-06
5.62621e-06
5.10431e-06
4.5881e-06
4.07857e-06
3.57659e-06
3.0831e-06
2.59888e-06
9.88774e-06
9.3625e-06
8.8327e-06
8.30017e-06
7.76612e-06
7.2318e-06
6.6984e-06
6.16705e-06
5.63888e-06
5.11498e-06
4.59641e-06
4.08422e-06
3.57939e-06
3.08289e-06
2.59561e-06
9.89085e-06
9.37035e-06
8.84394e-06
8.31366e-06
7.78085e-06
7.24685e-06
6.71294e-06
6.18046e-06
5.65065e-06
5.12471e-06
4.60381e-06
4.08908e-06
3.58157e-06
3.08233e-06
2.59222e-06
-9.54674e-06
-7.20982e-06
-5.78943e-06
-4.83887e-06
-4.08791e-06
-3.52198e-06
-3.09435e-06
-2.77296e-06
-2.53542e-06
-2.36301e-06
-2.23949e-06
-2.14992e-06
-2.07993e-06
-2.01563e-06
-1.94314e-06
-1.85017e-06
-1.72644e-06
-1.56906e-06
-1.38587e-06
-1.20332e-06
-1.06547e-06
-1.02518e-06
-1.09574e-06
-1.17796e-06
-1.14772e-06
-9.37624e-07
-5.13039e-07
1.37525e-07
1.01797e-06
2.12579e-06
3.45521e-06
4.99153e-06
6.71458e-06
8.59462e-06
1.05916e-05
1.26573e-05
1.47352e-05
1.67604e-05
1.8655e-05
2.03202e-05
2.16138e-05
2.23337e-05
2.20346e-05
2.03327e-05
1.56449e-05
-7.94914e-06
-6.70084e-06
-5.6099e-06
-4.75634e-06
-4.04931e-06
-3.49798e-06
-3.07559e-06
-2.75658e-06
-2.52073e-06
-2.3501e-06
-2.22861e-06
-2.14126e-06
-2.07357e-06
-2.01156e-06
-1.94134e-06
-1.85065e-06
-1.72926e-06
-1.57418e-06
-1.39291e-06
-1.21099e-06
-1.07079e-06
-1.02317e-06
-1.08115e-06
-1.1492e-06
-1.10618e-06
-8.86175e-07
-4.55145e-07
1.98435e-07
1.07818e-06
2.18094e-06
3.49972e-06
5.01769e-06
6.71244e-06
8.55161e-06
1.04916e-05
1.24792e-05
1.44512e-05
1.6332e-05
1.80271e-05
1.94084e-05
2.02789e-05
2.03228e-05
1.89118e-05
1.53062e-05
8.32993e-06
-7.1143e-06
-6.31182e-06
-5.42642e-06
-4.66117e-06
-4.00288e-06
-3.47187e-06
-3.0576e-06
-2.74211e-06
-2.50818e-06
-2.33914e-06
-2.21935e-06
-2.13383e-06
-2.06805e-06
-2.008e-06
-1.93977e-06
-1.85116e-06
-1.73201e-06
-1.57925e-06
-1.40002e-06
-1.21885e-06
-1.07619e-06
-1.02057e-06
-1.06465e-06
-1.11698e-06
-1.05982e-06
-8.29034e-07
-3.91388e-07
2.64583e-07
1.14204e-06
2.23696e-06
3.54085e-06
5.03413e-06
6.69158e-06
8.4776e-06
1.03441e-05
1.22321e-05
1.40702e-05
1.57715e-05
1.72244e-05
1.82774e-05
1.87035e-05
1.81604e-05
1.60981e-05
1.21178e-05
6.00001e-06
-6.59502e-06
-5.99872e-06
-5.27503e-06
-4.57896e-06
-3.96694e-06
-3.45697e-06
-3.0504e-06
-2.73718e-06
-2.50352e-06
-2.33437e-06
-2.21471e-06
-2.12972e-06
-2.0648e-06
-2.00589e-06
-1.93908e-06
-1.85218e-06
-1.73508e-06
-1.58458e-06
-1.4074e-06
-1.22695e-06
-1.08157e-06
-1.01721e-06
-1.046e-06
-1.0809e-06
-1.00788e-06
-7.64804e-07
-3.19496e-07
3.39346e-07
1.21418e-06
2.29967e-06
3.58562e-06
5.0489e-06
6.66072e-06
8.3816e-06
1.01582e-05
1.1925e-05
1.36022e-05
1.50925e-05
1.62722e-05
1.69798e-05
1.69943e-05
1.60295e-05
1.37317e-05
9.9209e-06
4.85398e-06
-6.20128e-06
-5.73041e-06
-5.13215e-06
-4.51868e-06
-3.94913e-06
-3.45947e-06
-3.05954e-06
-2.74659e-06
-2.51062e-06
-2.33868e-06
-2.2167e-06
-2.13011e-06
-2.0643e-06
-2.00518e-06
-1.93881e-06
-1.853e-06
-1.73765e-06
-1.58938e-06
-1.41442e-06
-1.23483e-06
-1.08665e-06
-1.01285e-06
-1.0249e-06
-1.04074e-06
-9.50414e-07
-6.94038e-07
-2.40855e-07
4.20264e-07
1.29052e-06
2.36292e-06
3.62591e-06
5.05147e-06
6.60695e-06
8.24868e-06
9.91789e-06
1.15427e-05
1.30366e-05
1.42952e-05
1.51916e-05
1.55712e-05
1.52483e-05
1.40243e-05
1.17263e-05
8.34928e-06
4.21757e-06
-5.87843e-06
-5.49525e-06
-4.99537e-06
-4.46576e-06
-3.94644e-06
-3.47884e-06
-3.08681e-06
-2.77323e-06
-2.53271e-06
-2.35514e-06
-2.22792e-06
-2.13697e-06
-2.06789e-06
-2.00663e-06
-1.93925e-06
-1.85355e-06
-1.73941e-06
-1.59321e-06
-1.42059e-06
-1.24208e-06
-1.09107e-06
-1.00718e-06
-1.00107e-06
-9.9625e-07
-8.87347e-07
-6.17011e-07
-1.56213e-07
5.0575e-07
1.36761e-06
2.4223e-06
3.65595e-06
5.03386e-06
6.52026e-06
8.06729e-06
9.61113e-06
1.10749e-05
1.23681e-05
1.33852e-05
1.4006e-05
1.40977e-05
1.35251e-05
1.21768e-05
1.00079e-05
7.11633e-06
3.7952e-06
-5.59198e-06
-5.27711e-06
-4.86495e-06
-4.40431e-06
-3.94289e-06
-3.50811e-06
-3.12854e-06
-2.81603e-06
-2.57043e-06
-2.38534e-06
-2.25028e-06
-2.1521e-06
-2.07697e-06
-2.01119e-06
-1.94093e-06
-1.854e-06
-1.74027e-06
-1.59581e-06
-1.42559e-06
-1.24833e-06
-1.0945e-06
-9.99932e-07
-9.74264e-07
-9.47292e-07
-8.18728e-07
-5.34084e-07
-6.62419e-08
5.93344e-07
1.4413e-06
2.47556e-06
3.67075e-06
4.98879e-06
6.39205e-06
7.82813e-06
9.22928e-06
1.0516e-05
1.15978e-05
1.23752e-05
1.2743e-05
1.25996e-05
1.18614e-05
1.04871e-05
8.50545e-06
6.04621e-06
3.34219e-06
-5.32157e-06
-5.06128e-06
-4.7233e-06
-4.33343e-06
-3.92599e-06
-3.53277e-06
-3.17483e-06
-2.86844e-06
-2.61981e-06
-2.4274e-06
-2.2833e-06
-2.17566e-06
-2.09191e-06
-2.0192e-06
-1.94401e-06
-1.85432e-06
-1.74004e-06
-1.59688e-06
-1.42906e-06
-1.25327e-06
-1.09669e-06
-9.90935e-07
-9.44433e-07
-8.9409e-07
-7.45072e-07
-4.46081e-07
2.62687e-08
6.77028e-07
1.51122e-06
2.51859e-06
3.66208e-06
4.90686e-06
6.21221e-06
7.52129e-06
8.76456e-06
9.86315e-06
1.07314e-05
1.12817e-05
1.14301e-05
1.11081e-05
1.0276e-05
8.93892e-06
7.15929e-06
5.06218e-06
2.82248e-06
-5.05669e-06
-4.84075e-06
-4.56413e-06
-4.23977e-06
-3.88995e-06
-3.53988e-06
-3.21142e-06
-2.91917e-06
-2.67207e-06
-2.47533e-06
-2.32322e-06
-2.20525e-06
-2.11119e-06
-2.02964e-06
-1.94777e-06
-1.85393e-06
-1.73822e-06
-1.59599e-06
-1.43066e-06
-1.25665e-06
-1.09757e-06
-9.80337e-07
-9.11939e-07
-8.37634e-07
-6.67839e-07
-3.55077e-07
1.13098e-07
7.57008e-07
1.57573e-06
2.54028e-06
3.61846e-06
4.77682e-06
5.9691e-06
7.13632e-06
8.20999e-06
9.11563e-06
9.77681e-06
1.01217e-05
1.009e-05
9.64283e-06
8.77213e-06
7.50854e-06
5.92359e-06
4.1242e-06
2.23841e-06
-4.79019e-06
-4.61119e-06
-4.38526e-06
-4.11838e-06
-3.82413e-06
-3.52044e-06
-3.22579e-06
-2.95442e-06
-2.71539e-06
-2.52023e-06
-2.36321e-06
-2.23564e-06
-2.13103e-06
-2.03988e-06
-1.95037e-06
-1.85154e-06
-1.73392e-06
-1.59259e-06
-1.43014e-06
-1.25852e-06
-1.09749e-06
-9.68917e-07
-8.77932e-07
-7.79495e-07
-5.90246e-07
-2.69633e-07
1.94976e-07
8.33024e-07
1.61931e-06
2.52625e-06
3.52776e-06
4.58559e-06
5.65011e-06
6.66309e-06
7.56018e-06
8.27458e-06
8.74303e-06
8.91057e-06
8.73881e-06
8.21198e-06
7.34183e-06
6.16937e-06
4.7622e-06
3.20628e-06
1.59462e-06
-4.51511e-06
-4.36777e-06
-4.18419e-06
-3.96678e-06
-3.72344e-06
-3.46644e-06
-3.20932e-06
-2.96204e-06
-2.73876e-06
-2.55167e-06
-2.39357e-06
-2.2591e-06
-2.14569e-06
-2.0458e-06
-1.94895e-06
-1.84529e-06
-1.72608e-06
-1.58624e-06
-1.42758e-06
-1.25948e-06
-1.0976e-06
-9.58543e-07
-8.45586e-07
-7.20568e-07
-5.20055e-07
-1.94874e-07
2.7381e-07
8.85587e-07
1.62412e-06
2.46432e-06
3.37618e-06
4.31879e-06
5.24257e-06
6.0928e-06
6.81203e-06
7.34411e-06
7.63952e-06
7.66016e-06
7.38542e-06
6.81519e-06
5.97117e-06
4.89551e-06
3.64637e-06
2.29054e-06
8.95717e-07
-4.2239e-06
-4.10451e-06
-3.95702e-06
-3.78205e-06
-3.5837e-06
-3.3694e-06
-3.14932e-06
-2.93366e-06
-2.73436e-06
-2.55798e-06
-2.40252e-06
-2.26672e-06
-2.14858e-06
-2.04258e-06
-1.94028e-06
-1.8333e-06
-1.7139e-06
-1.57707e-06
-1.42385e-06
-1.26111e-06
-1.10036e-06
-9.52762e-07
-8.20998e-07
-6.7231e-07
-4.59088e-07
-1.31191e-07
3.23232e-07
8.97832e-07
1.57866e-06
2.33963e-06
3.14759e-06
3.96176e-06
4.73494e-06
5.41897e-06
5.9651e-06
6.32955e-06
6.47546e-06
6.37935e-06
6.03354e-06
5.44694e-06
4.64444e-06
3.66432e-06
2.55402e-06
1.36443e-06
1.45076e-07
-3.90847e-06
-3.81455e-06
-3.69869e-06
-3.56077e-06
-3.4027e-06
-3.22925e-06
-3.04756e-06
-2.86569e-06
-2.69128e-06
-2.52981e-06
-2.38322e-06
-2.25177e-06
-2.13397e-06
-2.02604e-06
-1.92178e-06
-1.81445e-06
-1.69758e-06
-1.56642e-06
-1.42127e-06
-1.26666e-06
-1.11006e-06
-9.57614e-07
-8.10461e-07
-6.44379e-07
-4.2031e-07
-9.84894e-08
3.29141e-07
8.55727e-07
1.46612e-06
2.13358e-06
2.82493e-06
3.50136e-06
4.11824e-06
4.63879e-06
5.02403e-06
5.23929e-06
5.26032e-06
5.07519e-06
4.68436e-06
4.10061e-06
3.34787e-06
2.45848e-06
1.4698e-06
4.20125e-07
-6.54139e-07
-3.56013e-06
-3.49029e-06
-3.40323e-06
-3.29861e-06
-3.17721e-06
-3.04188e-06
-2.89726e-06
-2.74888e-06
-2.60209e-06
-2.46148e-06
-2.33013e-06
-2.20914e-06
-2.09774e-06
-1.99354e-06
-1.89235e-06
-1.78924e-06
-1.67912e-06
-1.55761e-06
-1.42433e-06
-1.28175e-06
-1.1336e-06
-9.81691e-07
-8.25483e-07
-6.48539e-07
-4.21885e-07
-1.16898e-07
2.72773e-07
7.39101e-07
1.26559e-06
1.8267e-06
2.39163e-06
2.92911e-06
3.38948e-06
3.75691e-06
3.99646e-06
4.08355e-06
4.00461e-06
3.75517e-06
3.33985e-06
2.77206e-06
2.07266e-06
1.26764e-06
3.85655e-07
-5.44717e-07
-1.49664e-06
-3.16886e-06
-3.123e-06
-3.06347e-06
-2.99001e-06
-2.90281e-06
-2.80345e-06
-2.69477e-06
-2.58044e-06
-2.46429e-06
-2.3499e-06
-2.24004e-06
-2.1361e-06
-2.03816e-06
-1.94488e-06
-1.8534e-06
-1.76059e-06
-1.663e-06
-1.55665e-06
-1.44035e-06
-1.31496e-06
-1.1811e-06
-1.03708e-06
-8.80863e-07
-7.02859e-07
-4.84784e-07
-2.08013e-07
1.31688e-07
5.2556e-07
9.56784e-07
1.40192e-06
1.83342e-06
2.2196e-06
2.5499e-06
2.78048e-06
2.89348e-06
2.87607e-06
2.7213e-06
2.42884e-06
2.00492e-06
1.46179e-06
8.16479e-07
8.91017e-08
-6.9882e-07
-1.52616e-06
-2.37311e-06
-2.72318e-06
-2.70281e-06
-2.67141e-06
-2.62889e-06
-2.57524e-06
-2.5113e-06
-2.43879e-06
-2.36007e-06
-2.27783e-06
-2.19462e-06
-2.1127e-06
-2.0333e-06
-1.95669e-06
-1.88231e-06
-1.80893e-06
-1.73482e-06
-1.65723e-06
-1.5728e-06
-1.47992e-06
-1.37837e-06
-1.26647e-06
-1.13977e-06
-9.95105e-07
-8.28888e-07
-6.32503e-07
-3.96242e-07
-1.18356e-07
1.93054e-07
5.2215e-07
8.50057e-07
1.15469e-06
1.41757e-06
1.61413e-06
1.72312e-06
1.73232e-06
1.63416e-06
1.42546e-06
1.10786e-06
6.8763e-07
1.74969e-07
-4.16895e-07
-1.07289e-06
-1.77718e-06
-2.51429e-06
-3.26962e-06
-2.21274e-06
-2.22099e-06
-2.22023e-06
-2.21053e-06
-2.19193e-06
-2.16489e-06
-2.13051e-06
-2.09023e-06
-2.04586e-06
-1.9992e-06
-1.95181e-06
-1.90484e-06
-1.86014e-06
-1.81419e-06
-1.76654e-06
-1.72091e-06
-1.67283e-06
-1.61872e-06
-1.55743e-06
-1.48807e-06
-1.40738e-06
-1.3093e-06
-1.19014e-06
-1.05036e-06
-8.89203e-07
-7.05144e-07
-4.99004e-07
-2.77471e-07
-5.05841e-08
1.66676e-07
3.60845e-07
5.0742e-07
5.90778e-07
6.00968e-07
5.30539e-07
3.74631e-07
1.31808e-07
-1.95679e-07
-6.0236e-07
-1.08025e-06
-1.61953e-06
-2.20925e-06
-2.838e-06
-3.49455e-06
-4.16822e-06
-1.6352e-06
-1.67674e-06
-1.71072e-06
-1.73748e-06
-1.75726e-06
-1.77044e-06
-1.77773e-06
-1.78e-06
-1.77849e-06
-1.77417e-06
-1.76843e-06
-1.76092e-06
-1.75259e-06
-1.748e-06
-1.74256e-06
-1.73522e-06
-1.72561e-06
-1.71096e-06
-1.69064e-06
-1.66295e-06
-1.62394e-06
-1.56732e-06
-1.48897e-06
-1.39178e-06
-1.27865e-06
-1.15314e-06
-1.02425e-06
-8.92536e-07
-7.6383e-07
-6.38912e-07
-5.45411e-07
-4.9837e-07
-5.03959e-07
-5.67243e-07
-6.93463e-07
-8.86062e-07
-1.1456e-06
-1.46989e-06
-1.85465e-06
-2.29404e-06
-2.78107e-06
-3.30802e-06
-3.86685e-06
-4.44957e-06
-5.04843e-06
-9.8942e-07
-1.07182e-06
-1.14755e-06
-1.21721e-06
-1.28134e-06
-1.34043e-06
-1.39501e-06
-1.44572e-06
-1.49324e-06
-1.53837e-06
-1.58161e-06
-1.62408e-06
-1.66596e-06
-1.70998e-06
-1.75466e-06
-1.7955e-06
-1.83374e-06
-1.86894e-06
-1.89988e-06
-1.92387e-06
-1.93728e-06
-1.93511e-06
-1.91262e-06
-1.87266e-06
-1.81929e-06
-1.75854e-06
-1.70276e-06
-1.64951e-06
-1.5938e-06
-1.55479e-06
-1.54732e-06
-1.5762e-06
-1.6443e-06
-1.75621e-06
-1.91627e-06
-2.12677e-06
-2.38771e-06
-2.69737e-06
-3.05279e-06
-3.45003e-06
-3.88435e-06
-4.35048e-06
-4.8429e-06
-5.35602e-06
-5.88432e-06
-2.68803e-07
-4.02065e-07
-5.29938e-07
-6.52715e-07
-7.70983e-07
-8.85356e-07
-9.96372e-07
-1.10453e-06
-1.21033e-06
-1.31432e-06
-1.41706e-06
-1.51913e-06
-1.62089e-06
-1.72251e-06
-1.82324e-06
-1.92225e-06
-2.01965e-06
-2.11456e-06
-2.20504e-06
-2.28897e-06
-2.36343e-06
-2.42541e-06
-2.47057e-06
-2.49639e-06
-2.50994e-06
-2.52168e-06
-2.52651e-06
-2.52373e-06
-2.52964e-06
-2.56088e-06
-2.6162e-06
-2.69488e-06
-2.8009e-06
-2.93936e-06
-3.11364e-06
-3.32506e-06
-3.57357e-06
-3.85824e-06
-4.17739e-06
-4.52862e-06
-4.90892e-06
-5.31489e-06
-5.74287e-06
-6.1891e-06
-6.64977e-06
3.93511e-07
2.05345e-07
2.21454e-08
-1.56575e-07
-3.31515e-07
-5.0331e-07
-6.72457e-07
-8.39357e-07
-1.00437e-06
-1.16784e-06
-1.3301e-06
-1.49139e-06
-1.65184e-06
-1.81144e-06
-1.97008e-06
-2.12742e-06
-2.28283e-06
-2.43496e-06
-2.58239e-06
-2.72353e-06
-2.8563e-06
-2.97963e-06
-3.08661e-06
-3.17189e-06
-3.24129e-06
-3.29474e-06
-3.34917e-06
-3.39831e-06
-3.45904e-06
-3.53564e-06
-3.62587e-06
-3.73085e-06
-3.85483e-06
-4.00186e-06
-4.17443e-06
-4.37368e-06
-4.60002e-06
-4.8533e-06
-5.13282e-06
-5.43728e-06
-5.76494e-06
-6.11374e-06
-6.48138e-06
-6.86546e-06
-7.26345e-06
9.3634e-07
6.96298e-07
4.60685e-07
2.29148e-07
1.11615e-09
-2.23934e-07
-4.4639e-07
-6.66528e-07
-8.84566e-07
-1.10069e-06
-1.31508e-06
-1.52784e-06
-1.73903e-06
-1.94859e-06
-2.15628e-06
-2.36159e-06
-2.56374e-06
-2.76174e-06
-2.95447e-06
-3.14059e-06
-3.31894e-06
-3.48837e-06
-3.64106e-06
-3.77239e-06
-3.88496e-06
-3.98511e-06
-4.06275e-06
-4.1468e-06
-4.23815e-06
-4.3358e-06
-4.44113e-06
-4.55713e-06
-4.68694e-06
-4.83307e-06
-4.99737e-06
-5.18113e-06
-5.38514e-06
-5.60969e-06
-5.85463e-06
-6.11939e-06
-6.40309e-06
-6.70458e-06
-7.02252e-06
-7.35545e-06
-7.70178e-06
1.32928e-06
1.04491e-06
7.64827e-07
4.8879e-07
2.1639e-07
-5.27255e-08
-3.18794e-07
-5.81956e-07
-8.42306e-07
-1.09991e-06
-1.35482e-06
-1.60703e-06
-1.85647e-06
-2.10294e-06
-2.34608e-06
-2.58539e-06
-2.82019e-06
-3.04969e-06
-3.27291e-06
-3.48881e-06
-3.69644e-06
-3.89493e-06
-4.07632e-06
-4.23384e-06
-4.36817e-06
-4.48653e-06
-4.59364e-06
-4.69872e-06
-4.80338e-06
-4.90958e-06
-5.02063e-06
-5.13947e-06
-5.2683e-06
-5.40904e-06
-5.56337e-06
-5.73268e-06
-5.9179e-06
-6.11957e-06
-6.33789e-06
-6.57279e-06
-6.82393e-06
-7.09073e-06
-7.37245e-06
-7.66817e-06
-7.9769e-06
1.60829e-06
1.28708e-06
9.70358e-07
6.57969e-07
3.49678e-07
4.53048e-08
-2.55231e-07
-5.51938e-07
-8.44794e-07
-1.13375e-06
-1.41876e-06
-1.69969e-06
-1.97637e-06
-2.24852e-06
-2.51578e-06
-2.77765e-06
-3.03358e-06
-3.28285e-06
-3.52469e-06
-3.75827e-06
-3.98285e-06
-4.19787e-06
-4.3951e-06
-4.56709e-06
-4.71641e-06
-4.84898e-06
-4.97126e-06
-5.08662e-06
-5.19833e-06
-5.3099e-06
-5.42437e-06
-5.54406e-06
-5.67092e-06
-5.80675e-06
-5.95321e-06
-6.11161e-06
-6.28298e-06
-6.46803e-06
-6.66724e-06
-6.88086e-06
-7.10889e-06
-7.35117e-06
-7.60733e-06
-7.87689e-06
-8.15924e-06
1.80057e-06
1.44972e-06
1.10375e-06
7.62627e-07
4.26272e-07
9.46657e-08
-2.32132e-07
-5.5401e-07
-8.70845e-07
-1.1825e-06
-1.48881e-06
-1.78959e-06
-2.08461e-06
-2.37355e-06
-2.65605e-06
-2.93169e-06
-3.19996e-06
-3.46029e-06
-3.71211e-06
-3.95475e-06
-4.18777e-06
-4.41072e-06
-4.61548e-06
-4.79563e-06
-4.95408e-06
-5.09632e-06
-5.22639e-06
-5.3481e-06
-5.46523e-06
-5.5809e-06
-5.69765e-06
-5.81763e-06
-5.94283e-06
-6.07504e-06
-6.2158e-06
-6.36644e-06
-6.52806e-06
-6.70152e-06
-6.8875e-06
-7.08646e-06
-7.29866e-06
-7.52419e-06
-7.763e-06
-8.01487e-06
-8.27952e-06
1.93067e-06
1.55642e-06
1.18757e-06
8.24221e-07
4.66415e-07
1.14278e-07
-2.3201e-07
-5.72242e-07
-9.06213e-07
-1.23371e-06
-1.55452e-06
-1.8684e-06
-2.17508e-06
-2.47425e-06
-2.76559e-06
-3.04871e-06
-3.32323e-06
-3.58868e-06
-3.84468e-06
-4.09077e-06
-4.32669e-06
-4.55215e-06
-4.75976e-06
-4.94402e-06
-5.10785e-06
-5.25537e-06
-5.39049e-06
-5.51698e-06
-5.63815e-06
-5.75672e-06
-5.8751e-06
-5.99547e-06
-6.11977e-06
-6.24972e-06
-6.38686e-06
-6.53253e-06
-6.68789e-06
-6.85392e-06
-7.03141e-06
-7.22097e-06
-7.42305e-06
-7.63795e-06
-7.86581e-06
-8.10665e-06
-8.36039e-06
2.01718e-06
1.62464e-06
1.23811e-06
8.57773e-07
4.83803e-07
1.16437e-07
-2.44052e-07
-5.97387e-07
-9.43303e-07
-1.28154e-06
-1.61184e-06
-1.93393e-06
-2.24755e-06
-2.5524e-06
-2.84819e-06
-3.13462e-06
-3.41138e-06
-3.67816e-06
-3.93471e-06
-4.18076e-06
-4.41624e-06
-4.64101e-06
-4.84867e-06
-5.03439e-06
-5.20083e-06
-5.35156e-06
-5.49019e-06
-5.62003e-06
-5.74404e-06
-5.86482e-06
-5.98472e-06
-6.10582e-06
-6.23e-06
-6.35896e-06
-6.49423e-06
-6.63716e-06
-6.78896e-06
-6.95068e-06
-7.12322e-06
-7.30729e-06
-7.50348e-06
-7.71224e-06
-7.93387e-06
-8.16856e-06
-8.41638e-06
2.07354e-06
1.66673e-06
1.26656e-06
8.73282e-07
4.87184e-07
1.08588e-07
-2.62165e-07
-6.24748e-07
-9.78856e-07
-1.32419e-06
-1.66048e-06
-1.98744e-06
-2.30481e-06
-2.61232e-06
-2.90975e-06
-3.19683e-06
-3.47338e-06
-3.73917e-06
-3.99412e-06
-4.2381e-06
-4.47124e-06
-4.69354e-06
-4.89946e-06
-5.08497e-06
-5.25238e-06
-5.40497e-06
-5.54582e-06
-5.67791e-06
-5.80404e-06
-5.92668e-06
-6.04803e-06
-6.1701e-06
-6.29473e-06
-6.42357e-06
-6.55817e-06
-6.6999e-06
-6.85e-06
-7.00957e-06
-7.17958e-06
-7.36086e-06
-7.55409e-06
-7.75984e-06
-7.97853e-06
-8.21046e-06
-8.45584e-06
2.10916e-06
1.69113e-06
1.28035e-06
8.77148e-07
4.81888e-07
9.49667e-08
-2.83228e-07
-6.52335e-07
-1.01202e-06
-1.36197e-06
-1.70189e-06
-2.0315e-06
-2.35056e-06
-2.65884e-06
-2.95615e-06
-3.2423e-06
-3.51719e-06
-3.7807e-06
-4.03287e-06
-4.27367e-06
-4.50343e-06
-4.72222e-06
-4.92535e-06
-5.10959e-06
-5.27695e-06
-5.43037e-06
-5.5725e-06
-5.70611e-06
-5.83382e-06
-5.95796e-06
-6.08061e-06
-6.2037e-06
-6.32904e-06
-6.45827e-06
-6.59292e-06
-6.73439e-06
-6.88394e-06
-7.04274e-06
-7.21182e-06
-7.39207e-06
-7.58427e-06
-7.78907e-06
-8.00699e-06
-8.23843e-06
-8.48369e-06
2.13054e-06
1.70354e-06
1.28437e-06
8.73423e-07
4.71132e-07
7.79441e-08
-3.05721e-07
-6.79476e-07
-1.04297e-06
-1.39586e-06
-1.73787e-06
-2.06873e-06
-2.3882e-06
-2.6961e-06
-2.99228e-06
-3.27661e-06
-3.54906e-06
-3.80961e-06
-4.05839e-06
-4.29548e-06
-4.52135e-06
-4.73612e-06
-4.9359e-06
-5.1182e-06
-5.28476e-06
-5.4383e-06
-5.58106e-06
-5.7156e-06
-5.84442e-06
-5.96968e-06
-6.09339e-06
-6.21742e-06
-6.34352e-06
-6.47334e-06
-6.6084e-06
-6.75011e-06
-6.89979e-06
-7.05863e-06
-7.22771e-06
-7.40801e-06
-7.60036e-06
-7.80549e-06
-8.02399e-06
-8.25634e-06
-8.50292e-06
2.14216e-06
1.70784e-06
1.28188e-06
8.64754e-07
4.56941e-07
5.89243e-08
-3.28853e-07
-7.05985e-07
-1.0721e-06
-1.42687e-06
-1.76999e-06
-2.10122e-06
-2.42035e-06
-2.72721e-06
-3.02171e-06
-3.30377e-06
-3.57343e-06
-3.83073e-06
-4.07589e-06
-4.30909e-06
-4.53087e-06
-4.74145e-06
-4.93765e-06
-5.11762e-06
-5.28281e-06
-5.43601e-06
-5.57891e-06
-5.71391e-06
-5.84341e-06
-5.96944e-06
-6.09394e-06
-6.21872e-06
-6.3455e-06
-6.47591e-06
-6.61149e-06
-6.75367e-06
-6.90378e-06
-7.06308e-06
-7.23268e-06
-7.4136e-06
-7.60676e-06
-7.81293e-06
-8.03278e-06
-8.26683e-06
-8.51552e-06
2.14713e-06
1.7067e-06
1.27513e-06
8.52945e-07
4.40677e-07
3.88311e-08
-3.52131e-07
-7.31788e-07
-1.09976e-06
-1.45571e-06
-1.79935e-06
-2.13045e-06
-2.44881e-06
-2.7543e-06
-3.04687e-06
-3.32649e-06
-3.59326e-06
-3.84727e-06
-4.08882e-06
-4.31813e-06
-4.53587e-06
-4.74229e-06
-4.93487e-06
-5.11232e-06
-5.27574e-06
-5.42828e-06
-5.571e-06
-5.70607e-06
-5.83588e-06
-5.96237e-06
-6.08738e-06
-6.21268e-06
-6.33998e-06
-6.47089e-06
-6.60695e-06
-6.74962e-06
-6.90027e-06
-7.06016e-06
-7.23048e-06
-7.4123e-06
-7.60656e-06
-7.81411e-06
-8.03566e-06
-8.27179e-06
-8.52296e-06
2.14768e-06
1.70202e-06
1.2657e-06
8.39272e-07
4.23308e-07
1.83312e-08
-3.7518e-07
-7.56794e-07
-1.12612e-06
-1.48283e-06
-1.82664e-06
-2.15733e-06
-2.47472e-06
-2.77872e-06
-3.06931e-06
-3.34649e-06
-3.61042e-06
-3.86124e-06
-4.09931e-06
-4.32491e-06
-4.53875e-06
-4.74114e-06
-4.93023e-06
-5.10501e-06
-5.26658e-06
-5.41816e-06
-5.56049e-06
-5.69532e-06
-5.82516e-06
-5.95182e-06
-6.07709e-06
-6.20269e-06
-6.33032e-06
-6.46157e-06
-6.598e-06
-6.74109e-06
-6.89222e-06
-7.05271e-06
-7.22378e-06
-7.40654e-06
-7.60198e-06
-7.811e-06
-8.03435e-06
-8.27265e-06
-8.52642e-06
2.14534e-06
1.69514e-06
1.25471e-06
8.24646e-07
4.05538e-07
-2.07249e-09
-3.97693e-07
-7.80882e-07
-1.15125e-06
-1.50846e-06
-1.85225e-06
-2.1824e-06
-2.49876e-06
-2.80127e-06
-3.08992e-06
-3.36477e-06
-3.626e-06
-3.87383e-06
-4.10862e-06
-4.33074e-06
-4.54091e-06
-4.73949e-06
-4.92521e-06
-5.09728e-06
-5.25711e-06
-5.40758e-06
-5.54932e-06
-5.68368e-06
-5.81331e-06
-5.93992e-06
-6.06523e-06
-6.19093e-06
-6.3187e-06
-6.45013e-06
-6.58678e-06
-6.73015e-06
-6.88167e-06
-7.04267e-06
-7.21441e-06
-7.39804e-06
-7.59462e-06
-7.80505e-06
-8.03015e-06
-8.27056e-06
-8.52683e-06
2.14121e-06
1.68701e-06
1.24297e-06
8.09728e-07
3.87887e-07
-2.19939e-08
-4.19412e-07
-8.03917e-07
-1.17512e-06
-1.53269e-06
-1.87635e-06
-2.20592e-06
-2.52127e-06
-2.82235e-06
-3.10917e-06
-3.38185e-06
-3.64059e-06
-3.88564e-06
-4.11741e-06
-4.3363e-06
-4.54307e-06
-4.73811e-06
-4.92062e-06
-5.08984e-06
-5.24829e-06
-5.39761e-06
-5.5385e-06
-5.67228e-06
-5.80154e-06
-5.92793e-06
-6.05311e-06
-6.17874e-06
-6.30648e-06
-6.43793e-06
-6.57466e-06
-6.71818e-06
-6.86995e-06
-7.03134e-06
-7.20363e-06
-7.38802e-06
-7.5856e-06
-7.79732e-06
-8.02402e-06
-8.26638e-06
-8.52498e-06
2.13606e-06
1.6783e-06
1.23106e-06
7.9501e-07
3.70762e-07
-4.11099e-08
-4.40092e-07
-8.2573e-07
-1.19763e-06
-1.55546e-06
-1.89898e-06
-2.22798e-06
-2.54238e-06
-2.84212e-06
-3.12727e-06
-3.39796e-06
-3.65441e-06
-3.89692e-06
-4.12594e-06
-4.34189e-06
-4.54554e-06
-4.73732e-06
-4.91682e-06
-5.0836e-06
-5.24059e-06
-5.38864e-06
-5.52858e-06
-5.66174e-06
-5.79053e-06
-5.91657e-06
-6.04149e-06
-6.16692e-06
-6.2945e-06
-6.42585e-06
-6.56252e-06
-6.70607e-06
-6.85796e-06
-7.0196e-06
-7.19231e-06
-7.37732e-06
-7.57575e-06
-7.78859e-06
-8.01671e-06
-8.26083e-06
-8.52153e-06
2.13043e-06
1.6695e-06
1.21942e-06
7.80869e-07
3.54488e-07
-5.91427e-08
-4.59502e-07
-8.46129e-07
-1.21863e-06
-1.57668e-06
-1.92004e-06
-2.24852e-06
-2.56203e-06
-2.86057e-06
-3.14421e-06
-3.41309e-06
-3.66749e-06
-3.90772e-06
-4.13425e-06
-4.34755e-06
-4.54839e-06
-4.7372e-06
-4.91393e-06
-5.07853e-06
-5.23405e-06
-5.38085e-06
-5.51981e-06
-5.65235e-06
-5.7806e-06
-5.90622e-06
-6.03079e-06
-6.15592e-06
-6.28325e-06
-6.41438e-06
-6.5509e-06
-6.69437e-06
-6.84627e-06
-7.00805e-06
-7.18105e-06
-7.36654e-06
-7.56566e-06
-7.77945e-06
-8.0088e-06
-8.25446e-06
-8.51703e-06
2.12457e-06
1.66077e-06
1.20814e-06
7.6735e-07
3.39059e-07
-7.61433e-08
-4.77729e-07
-8.65234e-07
-1.23827e-06
-1.5965e-06
-1.9397e-06
-2.2677e-06
-2.58042e-06
-2.87787e-06
-3.16013e-06
-3.42739e-06
-3.67994e-06
-3.91811e-06
-4.1424e-06
-4.3533e-06
-4.5516e-06
-4.73772e-06
-4.91191e-06
-5.07453e-06
-5.22856e-06
-5.37418e-06
-5.51222e-06
-5.64409e-06
-5.77177e-06
-5.89691e-06
-6.02106e-06
-6.14582e-06
-6.27282e-06
-6.40366e-06
-6.53995e-06
-6.68324e-06
-6.83506e-06
-6.99687e-06
-7.17004e-06
-7.35589e-06
-7.55557e-06
-7.77015e-06
-8.00055e-06
-8.24755e-06
-8.51178e-06
2.11832e-06
1.6518e-06
1.19672e-06
7.53802e-07
3.23695e-07
-9.3e-08
-4.95748e-07