/*--------------------------------*- C++ -*----------------------------------*\
| =========                 |                                                 |
| \\      /  F ield         | OpenFOAM: The Open Source CFD Toolbox           |
|  \\    /   O peration     | Version:  2312                                  |
|   \\  /    A nd           | Website:  www.openfoam.com                      |
|    \\/     M anipulation  |                                                 |
\*---------------------------------------------------------------------------*/
FoamFile
{
    version     2.0;
    format      ascii;
    arch        "LSB;label=32;scalar=64";
    class       surfaceScalarField;
    location    "86.75";
    object      phi;
}
// * * * * * * * * * * * * * * * * * * * * * * * * * * * * * * * * * * * * * //

dimensions      [0 3 -1 0 0 0 0];

oriented        oriented;

internalField   nonuniform List<scalar> 
9445
(
6.19991e-10
1.13657e-11
6.12857e-10
7.13439e-12
6.08503e-10
4.35346e-12
6.0614e-10
2.36298e-12
6.0533e-10
8.10278e-13
6.05855e-10
-5.24975e-13
6.07681e-10
-1.82612e-12
6.10709e-10
-3.0273e-12
6.15132e-10
-4.42329e-12
6.2145e-10
-6.31794e-12
6.30818e-10
-9.36786e-12
6.46925e-10
-1.6107e-11
6.82976e-10
-3.60509e-11
7.86267e-10
-1.03291e-10
-2.71391e-10
1.05766e-09
2.16199e-09
5.12897e-11
2.13618e-09
3.29377e-11
2.11976e-09
2.07795e-11
2.11009e-09
1.20267e-11
2.10568e-09
5.2211e-12
2.10577e-09
-6.13881e-13
2.11001e-09
-6.06686e-12
2.11817e-09
-1.11841e-11
2.13082e-09
-1.70785e-11
2.14933e-09
-2.48273e-11
2.17666e-09
-3.66897e-11
2.21996e-09
-5.94079e-11
2.29337e-09
-1.09461e-10
2.41102e-09
-2.20947e-10
-3.96768e-10
2.5364e-09
4.2617e-09
1.29542e-10
4.21002e-09
8.46201e-11
4.17612e-09
5.46755e-11
4.1551e-09
3.30522e-11
4.14406e-09
1.62608e-11
4.14148e-09
1.96547e-12
4.14644e-09
-1.1024e-11
4.15842e-09
-2.31724e-11
4.17827e-09
-3.69214e-11
4.20754e-09
-5.40985e-11
4.24915e-09
-7.82982e-11
4.30794e-09
-1.18198e-10
4.38686e-09
-1.88386e-10
4.47155e-09
-3.05637e-10
-4.476e-10
4.52238e-09
7.06917e-09
2.56891e-10
6.98322e-09
1.70575e-10
6.92524e-09
1.12651e-10
6.88761e-09
7.06853e-11
6.86572e-09
3.81477e-11
6.85705e-09
1.06358e-11
6.85979e-09
-1.37599e-11
6.87288e-09
-3.62603e-11
6.89683e-09
-6.08791e-11
6.9326e-09
-8.98675e-11
6.98113e-09
-1.26822e-10
7.04208e-09
-1.79153e-10
7.10861e-09
-2.54916e-10
7.1593e-09
-3.5632e-10
-4.57415e-10
7.16911e-09
1.07645e-08
4.43466e-10
1.06356e-08
2.99446e-10
1.05463e-08
2.02003e-10
1.04859e-08
1.31092e-10
1.04479e-08
7.61298e-11
1.04283e-08
3.02118e-11
1.04245e-08
-9.96143e-12
1.04346e-08
-4.6351e-11
1.04577e-08
-8.39535e-11
1.04934e-08
-1.25537e-10
1.05399e-08
-1.73341e-10
1.05924e-08
-2.31665e-10
1.06398e-08
-3.02286e-10
1.06637e-08
-3.80295e-10
-4.46317e-10
1.06526e-08
1.55584e-08
6.95333e-10
1.53799e-08
4.77993e-10
1.52525e-08
3.29326e-10
1.51632e-08
2.20464e-10
1.51033e-08
1.35952e-10
1.50674e-08
6.61694e-11
1.50514e-08
5.99187e-12
1.50528e-08
-4.77055e-11
1.50687e-08
-9.98641e-11
1.50965e-08
-1.5333e-10
1.51323e-08
-2.09113e-10
1.51688e-08
-2.68224e-10
1.51954e-08
-3.28831e-10
1.52e-08
-3.84934e-10
-4.25507e-10
1.51792e-08
2.16884e-08
1.00867e-09
2.14592e-08
7.07165e-10
2.12907e-08
4.97798e-10
2.11681e-08
3.43076e-10
2.10816e-08
2.22483e-10
2.1024e-08
1.23732e-10
2.09902e-08
3.97512e-11
2.09763e-08
-3.37627e-11
2.09778e-08
-1.01401e-10
2.09902e-08
-1.65678e-10
2.10079e-08
-2.26787e-10
2.10236e-08
-2.83926e-10
2.10292e-08
-3.34494e-10
2.10187e-08
-3.74383e-10
-3.98854e-10
2.0992e-08
2.94092e-08
1.36185e-09
2.91402e-08
9.76258e-10
2.89351e-08
7.02807e-10
2.87802e-08
4.97979e-10
2.86656e-08
3.37155e-10
2.85834e-08
2.05908e-10
2.85276e-08
9.55941e-11
2.84928e-08
9.63557e-13
2.84737e-08
-8.22653e-11
2.84643e-08
-1.56324e-10
2.84588e-08
-2.21227e-10
2.84509e-08
-2.76091e-10
2.84358e-08
-3.19367e-10
2.84109e-08
-3.495e-10
-3.65556e-10
2.83776e-08
3.89802e-08
1.70865e-09
3.86997e-08
1.25669e-09
3.84759e-08
9.26654e-10
3.82993e-08
6.7461e-10
3.81621e-08
4.743e-10
3.80575e-08
3.10485e-10
3.79793e-08
1.7385e-10
3.79217e-08
5.85915e-11
3.78786e-08
-3.91738e-11
3.78443e-08
-1.22067e-10
3.78134e-08
-1.90365e-10
3.77816e-08
-2.44289e-10
3.77462e-08
-2.83942e-10
3.77066e-08
-3.09889e-10
-3.23236e-10
3.76643e-08
5.0659e-08
1.98119e-09
5.0415e-08
1.50063e-09
5.02061e-08
1.13563e-09
5.00312e-08
8.49466e-10
4.98877e-08
6.17812e-10
4.97713e-08
4.26854e-10
4.96772e-08
2.67958e-10
4.96004e-08
1.35435e-10
4.95357e-08
2.55465e-11
4.94781e-08
-6.45126e-11
4.9424e-08
-1.36276e-10
4.93707e-08
-1.90971e-10
4.9317e-08
-2.30261e-10
4.92632e-08
-2.56091e-10
-2.70542e-10
4.92105e-08
6.47291e-08
2.11344e-09
6.45768e-08
1.65291e-09
6.44262e-08
1.28618e-09
6.42869e-08
9.88814e-10
6.41629e-08
7.41807e-10
6.40543e-08
5.35484e-10
6.39589e-08
3.63288e-10
6.38741e-08
2.20294e-10
6.37967e-08
1.02937e-10
6.37237e-08
8.49472e-12
6.36533e-08
-6.59234e-11
6.35846e-08
-1.2229e-10
6.35175e-08
-1.63138e-10
6.34526e-08
-1.91151e-10
-2.08756e-10
6.33908e-08
8.1579e-08
2.08184e-09
8.1552e-08
1.67987e-09
8.14922e-08
1.34598e-09
8.14182e-08
1.0628e-09
8.13399e-08
8.20111e-10
8.12612e-08
6.14173e-10
8.11834e-08
4.41138e-10
8.11065e-08
2.97219e-10
8.10301e-08
1.79255e-10
8.09543e-08
8.4341e-11
8.08787e-08
9.65971e-12
8.08041e-08
-4.76473e-11
8.07312e-08
-9.02397e-11
8.06609e-08
-1.20906e-10
-1.42074e-10
8.05942e-08
1.01797e-07
1.92488e-09
1.01875e-07
1.60207e-09
1.01902e-07
1.31811e-09
1.019e-07
1.06546e-09
1.01877e-07
8.4298e-10
1.0184e-07
6.51428e-10
1.01792e-07
4.89342e-10
1.01735e-07
3.53939e-10
1.01672e-07
2.42367e-10
1.01604e-07
1.51876e-10
1.01534e-07
7.98438e-11
1.01463e-07
2.35736e-11
1.01392e-07
-1.94824e-11
1.01323e-07
-5.19022e-11
-7.58001e-11
1.01257e-07
1.26136e-07
1.70675e-09
1.26274e-07
1.46385e-09
1.26354e-07
1.23789e-09
1.26395e-07
1.02487e-09
1.26408e-07
8.29695e-10
1.26401e-07
6.58584e-10
1.26377e-07
5.13262e-10
1.26339e-07
3.91646e-10
1.26291e-07
2.90803e-10
1.26235e-07
2.08028e-10
1.26174e-07
1.41052e-10
1.2611e-07
8.76237e-11
1.26045e-07
4.55736e-11
1.2598e-07
1.27596e-11
-1.26134e-11
1.25917e-07
1.55327e-07
1.47893e-09
1.55484e-07
1.30672e-09
1.55585e-07
1.13686e-09
1.55642e-07
9.68334e-10
1.55667e-07
8.05116e-10
1.55668e-07
6.57329e-10
1.55651e-07
5.30556e-10
1.55618e-07
4.23949e-10
1.55574e-07
3.34648e-10
1.55522e-07
2.60163e-10
1.55464e-07
1.98796e-10
1.55403e-07
1.48807e-10
1.5534e-07
1.08455e-10
1.55277e-07
7.60103e-11
5.00218e-11
1.55215e-07
1.89875e-07
1.26137e-09
1.9003e-07
1.15152e-09
1.90134e-07
1.03268e-09
1.90194e-07
9.08501e-10
1.90219e-07
7.79989e-10
1.90219e-07
6.5784e-10
1.90198e-07
5.51027e-10
1.90162e-07
4.6027e-10
1.90114e-07
3.82629e-10
1.90058e-07
3.15988e-10
1.89997e-07
2.60025e-10
1.89932e-07
2.13536e-10
1.89866e-07
1.75132e-10
1.89798e-07
1.43438e-10
1.17333e-10
1.89731e-07
2.29918e-07
1.05482e-09
2.30061e-07
1.00852e-09
2.3016e-07
9.33697e-10
2.30218e-07
8.50404e-10
2.30243e-07
7.55529e-10
2.30239e-07
6.61148e-10
2.30215e-07
5.75691e-10
2.30174e-07
5.00516e-10
2.30122e-07
4.34737e-10
2.30062e-07
3.76759e-10
2.29995e-07
3.26416e-10
2.29925e-07
2.83908e-10
2.29852e-07
2.48084e-10
2.29777e-07
2.17892e-10
1.92449e-10
2.29702e-07
2.75011e-07
8.64045e-10
2.75142e-07
8.78083e-10
2.75228e-07
8.4752e-10
2.75278e-07
7.99985e-10
2.75299e-07
7.34969e-10
2.75292e-07
6.6755e-10
2.75267e-07
6.00766e-10
2.75227e-07
5.40912e-10
2.75174e-07
4.87909e-10
2.7511e-07
4.40702e-10
2.75038e-07
3.97772e-10
2.74962e-07
3.60172e-10
2.74882e-07
3.27805e-10
2.748e-07
3.00018e-10
2.7618e-10
2.74716e-07
3.23609e-07
6.97629e-10
3.23733e-07
7.54631e-10
3.23813e-07
7.67024e-10
3.23863e-07
7.50392e-10
3.23883e-07
7.15379e-10
3.23875e-07
6.75e-10
3.23849e-07
6.27211e-10
3.23808e-07
5.81327e-10
3.23756e-07
5.39783e-10
3.23694e-07
5.02956e-10
3.23623e-07
4.69403e-10
3.23544e-07
4.38851e-10
3.2346e-07
4.1165e-10
3.23372e-07
3.87656e-10
3.66582e-10
3.23282e-07
3.72516e-07
5.30176e-10
3.72644e-07
6.26316e-10
3.72739e-07
6.72607e-10
3.72801e-07
6.87703e-10
3.72836e-07
6.81038e-10
3.72848e-07
6.629e-10
3.72836e-07
6.39144e-10
3.72805e-07
6.12562e-10
3.72759e-07
5.85477e-10
3.72702e-07
5.59466e-10
3.72637e-07
5.34906e-10
3.72563e-07
5.12181e-10
3.72484e-07
4.91576e-10
3.72398e-07
4.73048e-10
4.5656e-10
3.72308e-07
3.69887e-07
4.24582e-10
3.69974e-07
5.39832e-10
3.7004e-07
6.05894e-10
3.70087e-07
6.41231e-10
3.70112e-07
6.55599e-10
3.70119e-07
6.56566e-10
3.70109e-07
6.48858e-10
3.70085e-07
6.36891e-10
3.70048e-07
6.22528e-10
3.7e-07
6.0701e-10
3.69943e-07
5.91526e-10
3.69879e-07
5.76713e-10
3.69807e-07
5.6296e-10
3.69731e-07
5.50028e-10
5.37906e-10
3.69649e-07
3.16293e-07
3.48363e-10
3.16369e-07
4.6392e-10
3.16437e-07
5.37924e-10
3.16494e-07
5.83976e-10
3.16539e-07
6.10765e-10
3.16571e-07
6.24622e-10
3.1659e-07
6.29813e-10
3.16597e-07
6.29552e-10
3.16594e-07
6.25795e-10
3.16581e-07
6.20003e-10
3.1656e-07
6.13056e-10
3.16531e-07
6.05458e-10
3.16496e-07
5.97948e-10
3.16455e-07
5.90639e-10
5.83522e-10
3.1641e-07
2.64637e-07
3.15208e-10
2.64678e-07
4.23178e-10
2.64719e-07
4.9661e-10
2.64757e-07
5.46087e-10
2.64789e-07
5.78585e-10
2.64814e-07
5.99283e-10
2.64832e-07
6.11837e-10
2.64843e-07
6.1883e-10
2.64847e-07
6.22003e-10
2.64844e-07
6.22498e-10
2.64836e-07
6.21314e-10
2.64823e-07
6.18947e-10
2.64805e-07
6.15683e-10
2.64784e-07
6.11748e-10
6.07276e-10
2.6476e-07
2.17631e-07
3.02348e-10
2.17657e-07
3.97355e-10
2.17689e-07
4.64943e-10
2.17722e-07
5.1289e-10
2.17754e-07
5.46614e-10
2.17783e-07
5.70183e-10
2.17809e-07
5.86522e-10
2.1783e-07
5.97659e-10
2.17847e-07
6.04995e-10
2.1786e-07
6.09516e-10
2.17869e-07
6.11933e-10
2.17875e-07
6.12702e-10
2.17879e-07
6.12142e-10
2.1788e-07
6.10475e-10
6.0787e-10
2.1788e-07
1.76398e-07
2.95073e-10
1.76421e-07
3.74271e-10
1.76454e-07
4.3269e-10
1.76491e-07
4.75732e-10
1.7653e-07
5.07464e-10
1.76569e-07
5.30907e-10
1.76607e-07
5.48237e-10
1.76644e-07
5.60982e-10
1.76679e-07
5.70211e-10
1.76712e-07
5.76673e-10
1.76743e-07
5.80914e-10
1.76772e-07
5.83331e-10
1.768e-07
5.84181e-10
1.76827e-07
5.8362e-10
5.81764e-10
1.76853e-07
1.41207e-07
2.80318e-10
1.41238e-07
3.43444e-10
1.41279e-07
3.91495e-10
1.41326e-07
4.28041e-10
1.41378e-07
4.55971e-10
1.41431e-07
4.77407e-10
1.41486e-07
4.93886e-10
1.4154e-07
5.06502e-10
1.41594e-07
5.16023e-10
1.41648e-07
5.22996e-10
1.41701e-07
5.27817e-10
1.41754e-07
5.30769e-10
1.41806e-07
5.32038e-10
1.41858e-07
5.31751e-10
5.29999e-10
1.4191e-07
1.11814e-07
2.51779e-10
1.11857e-07
3.00413e-10
1.1191e-07
3.38535e-10
1.1197e-07
3.68374e-10
1.12034e-07
3.91873e-10
1.12101e-07
4.10453e-10
1.1217e-07
4.25149e-10
1.1224e-07
4.36698e-10
1.1231e-07
4.45618e-10
1.12381e-07
4.52282e-10
1.12452e-07
4.56957e-10
1.12523e-07
4.59837e-10
1.12594e-07
4.61063e-10
1.12665e-07
4.6073e-10
4.58909e-10
1.12736e-07
8.76768e-08
2.10994e-10
8.77297e-08
2.47561e-10
8.77912e-08
2.7705e-10
8.78588e-08
3.00764e-10
8.79307e-08
3.19947e-10
8.80057e-08
3.3551e-10
8.80827e-08
3.48111e-10
8.81612e-08
3.58212e-10
8.82407e-08
3.66144e-10
8.83208e-08
3.72148e-10
8.84013e-08
3.76399e-10
8.84822e-08
3.79028e-10
8.85631e-08
3.80134e-10
8.8644e-08
3.79786e-10
3.78038e-10
8.87249e-08
6.81072e-08
1.64174e-10
6.81636e-08
1.91169e-10
6.82271e-08
2.13551e-10
6.82959e-08
2.32017e-10
6.83685e-08
2.47337e-10
6.84439e-08
2.60063e-10
6.85215e-08
2.70584e-10
6.86005e-08
2.79174e-10
6.86806e-08
2.86032e-10
6.87615e-08
2.91307e-10
6.88427e-08
2.95107e-10
6.89243e-08
2.97519e-10
6.90058e-08
2.98609e-10
6.90871e-08
2.98425e-10
2.97014e-10
6.91682e-08
5.23959e-08
1.18258e-10
5.24492e-08
1.37856e-10
5.25082e-08
1.54545e-10
5.25715e-08
1.68656e-10
5.26382e-08
1.8065e-10
5.27074e-08
1.90842e-10
5.27786e-08
1.99439e-10
5.28512e-08
2.06596e-10
5.29248e-08
2.12422e-10
5.29991e-08
2.17003e-10
5.30738e-08
2.20403e-10
5.31486e-08
2.22676e-10
5.32234e-08
2.23865e-10
5.32978e-08
2.24005e-10
2.23131e-10
5.33717e-08
3.98819e-08
7.84109e-11
3.99274e-08
9.23619e-11
3.99774e-08
1.04551e-10
4.0031e-08
1.15101e-10
4.00873e-08
1.24285e-10
4.01459e-08
1.32263e-10
4.02062e-08
1.39133e-10
4.02679e-08
1.44971e-10
4.03304e-08
1.49833e-10
4.03937e-08
1.53763e-10
4.04573e-08
1.56794e-10
4.0521e-08
1.58959e-10
4.05846e-08
1.60284e-10
4.06478e-08
1.60793e-10
1.60513e-10
4.07104e-08
2.99854e-08
4.72409e-11
3.00209e-08
5.69126e-11
3.00598e-08
6.55746e-11
3.01017e-08
7.32455e-11
3.01459e-08
8.00845e-11
3.0192e-08
8.61551e-11
3.02396e-08
9.1493e-11
3.02885e-08
9.61293e-11
3.03382e-08
1.00086e-10
3.03886e-08
1.03382e-10
3.04394e-08
1.06032e-10
3.04903e-08
1.08053e-10
3.05411e-08
1.0946e-10
3.05916e-08
1.10268e-10
1.10496e-10
3.06416e-08
2.22131e-08
2.51307e-11
2.22385e-08
3.1589e-11
2.22665e-08
3.75245e-11
2.22969e-08
4.2904e-11
2.23291e-08
4.78156e-11
2.2363e-08
5.22686e-11
2.23982e-08
5.6267e-11
2.24346e-08
5.98174e-11
2.24717e-08
6.29231e-11
2.25095e-08
6.55895e-11
2.25477e-08
6.78189e-11
2.25862e-08
6.96191e-11
2.26246e-08
7.09957e-11
2.26629e-08
7.196e-11
7.25235e-11
2.27009e-08
1.61532e-08
1.10064e-11
1.61697e-08
1.50934e-11
1.61882e-08
1.8971e-11
1.62085e-08
2.25712e-11
1.62304e-08
2.59356e-11
1.62536e-08
2.90497e-11
1.6278e-08
3.19039e-11
1.63033e-08
3.44936e-11
1.63294e-08
3.68134e-11
1.63562e-08
3.88615e-11
1.63834e-08
4.06346e-11
1.64108e-08
4.21347e-11
1.64385e-08
4.3362e-11
1.64661e-08
4.43246e-11
4.50287e-11
1.64936e-08
1.14647e-08
3.10085e-12
1.14743e-08
5.49187e-12
1.14854e-08
7.87113e-12
1.14979e-08
1.01372e-11
1.15115e-08
1.23014e-11
1.15262e-08
1.43454e-11
1.15418e-08
1.62564e-11
1.15583e-08
1.80262e-11
1.15755e-08
1.9647e-11
1.15932e-08
2.11145e-11
1.16114e-08
2.24233e-11
1.163e-08
2.35728e-11
1.16488e-08
2.45602e-11
1.16677e-08
2.53914e-11
2.60707e-11
1.16867e-08
7.86806e-09
-4.79373e-13
7.87279e-09
7.60878e-13
7.87856e-09
2.0949e-12
7.88529e-09
3.40787e-12
7.89291e-09
4.68445e-12
7.90134e-09
5.91342e-12
7.91051e-09
7.08432e-12
7.92035e-09
8.18974e-12
7.93078e-09
9.22251e-12
7.94171e-09
1.01788e-11
7.95308e-09
1.10535e-11
7.96481e-09
1.18452e-11
7.97682e-09
1.255e-11
7.98904e-09
1.31725e-11
1.37173e-11
8.00139e-09
5.13509e-09
-1.42526e-12
5.13675e-09
-8.95345e-13
5.13909e-09
-2.54666e-13
5.14209e-09
4.16762e-13
5.14569e-09
1.08008e-12
5.14988e-09
1.7285e-12
5.1546e-09
2.35651e-12
5.15983e-09
2.95999e-12
5.16552e-09
3.53388e-12
5.17162e-09
4.07611e-12
5.17809e-09
4.58279e-12
5.18489e-09
5.05305e-12
5.19195e-09
5.48301e-12
5.19925e-09
5.87614e-12
6.23885e-12
5.20673e-09
3.0811e-09
-1.08592e-12
3.08114e-09
-9.39825e-13
3.08157e-09
-6.89646e-13
3.08241e-09
-4.15833e-13
3.08363e-09
-1.45384e-13
3.08523e-09
1.27741e-13
3.0872e-09
3.95184e-13
3.0895e-09
6.56247e-13
3.09212e-09
9.08349e-13
3.09505e-09
1.15107e-12
3.09825e-09
1.38227e-12
3.1017e-09
1.6018e-12
3.10538e-09
1.80618e-12
3.10926e-09
1.99848e-12
2.18582e-12
3.11331e-09
1.55751e-09
-4.07534e-13
1.55698e-09
-4.10157e-13
1.55664e-09
-3.49898e-13
1.55651e-09
-2.8335e-13
1.55658e-09
-2.18357e-13
1.55686e-09
-1.5089e-13
1.55734e-09
-8.46666e-14
1.55802e-09
-1.89476e-14
1.55888e-09
4.58533e-14
1.55992e-09
1.09423e-13
1.56113e-09
1.71202e-13
1.5625e-09
2.31676e-13
1.56402e-09
2.87858e-13
1.56568e-09
3.42778e-13
4.0133e-13
1.56746e-09
4.45633e-10
4.45223e-10
4.44873e-10
4.4459e-10
4.44371e-10
4.4422e-10
4.44136e-10
4.44117e-10
4.44163e-10
4.44272e-10
4.44443e-10
4.44675e-10
4.44963e-10
4.45306e-10
4.45707e-10
1.26289e-09
-5.40873e-10
3.3564e-10
1.55462e-09
-4.96426e-10
2.047e-10
1.84659e-09
-3.90017e-10
9.80414e-11
2.13183e-09
-2.87166e-10
1.93023e-12
2.408e-09
-1.95101e-10
-8.10727e-11
2.67572e-09
-1.22497e-10
-1.45217e-10
2.93628e-09
-7.10673e-11
-1.89499e-10
3.19087e-09
-4.11615e-11
-2.13422e-10
3.44054e-09
-3.25072e-11
-2.17167e-10
3.68621e-09
-4.38279e-11
-2.01844e-10
3.9286e-09
-7.27032e-11
-1.69685e-10
4.16827e-09
-1.14976e-10
-1.24688e-10
4.40568e-09
-1.63546e-10
-7.38698e-11
4.64144e-09
-2.06607e-10
-2.91467e-11
4.87651e-09
-2.25021e-10
-1.00564e-11
5.11282e-09
-1.89139e-10
-4.71682e-11
5.35377e-09
-5.6439e-11
-1.84512e-10
5.60509e-09
2.33299e-10
-4.84621e-10
5.87562e-09
7.4967e-10
-1.0202e-09
6.17733e-09
1.56822e-09
-1.86993e-09
6.52277e-09
2.73652e-09
-3.08197e-09
6.92179e-09
4.19463e-09
-4.59365e-09
7.30643e-09
4.80534e-09
-5.18997e-09
7.63581e-09
4.56507e-09
-4.89446e-09
7.90142e-09
3.8893e-09
-4.15491e-09
8.10205e-09
2.94914e-09
-3.14977e-09
8.23966e-09
1.88092e-09
-2.01852e-09
8.31674e-09
7.79494e-10
-8.56572e-10
8.33527e-09
-2.8829e-10
2.69758e-10
8.29676e-09
-1.27171e-09
1.31022e-09
8.20279e-09
-2.12989e-09
2.22386e-09
8.05554e-09
-2.83031e-09
2.97756e-09
7.85809e-09
-3.3496e-09
3.54706e-09
7.61428e-09
-3.67451e-09
3.91832e-09
7.32841e-09
-3.80183e-09
4.08771e-09
7.00468e-09
-3.73686e-09
4.06059e-09
6.64679e-09
-3.4907e-09
3.84859e-09
6.25776e-09
-3.07644e-09
3.46547e-09
5.84025e-09
-2.50456e-09
2.92207e-09
5.39678e-09
-1.77864e-09
2.22211e-09
4.9284e-09
-8.97475e-10
1.36586e-09
4.43022e-09
1.26633e-10
3.71552e-10
3.89039e-09
1.21055e-09
-6.70724e-10
3.32013e-09
2.14524e-09
-1.57499e-09
2.31387e-09
2.98967e-09
-1.98341e-09
2.61682e-09
-6.2129e-10
2.78688e-09
-6.66488e-10
3.01695e-09
-6.20093e-10
3.27279e-09
-5.42999e-10
3.539e-09
-4.61314e-10
3.80757e-09
-3.91067e-10
4.07511e-09
-3.38607e-10
4.3402e-09
-3.06258e-10
4.60245e-09
-2.94757e-10
4.86189e-09
-3.03262e-10
5.1187e-09
-3.29511e-10
5.37312e-09
-3.69396e-10
5.62543e-09
-4.15862e-10
5.87613e-09
-4.57309e-10
6.1262e-09
-4.75087e-10
6.37764e-09
-4.40577e-10
6.63413e-09
-3.12932e-10
6.90189e-09
-3.44595e-11
7.19056e-09
4.61001e-10
7.51333e-09
1.24545e-09
7.88426e-09
2.3656e-09
8.31509e-09
3.7638e-09
8.73398e-09
4.38645e-09
9.09635e-09
4.2027e-09
9.39203e-09
3.59361e-09
9.61874e-09
2.72243e-09
9.77775e-09
1.72191e-09
9.87112e-09
6.86117e-10
9.9007e-09
-3.17865e-10
9.86808e-09
-1.23909e-09
9.77517e-09
-2.03698e-09
9.62472e-09
-2.67987e-09
9.42062e-09
-3.1455e-09
9.1678e-09
-3.42168e-09
8.87191e-09
-3.50595e-09
8.53901e-09
-3.40396e-09
8.17524e-09
-3.12693e-09
7.78712e-09
-2.68833e-09
7.38275e-09
-2.10019e-09
6.974e-09
-1.36989e-09
6.57921e-09
-5.02686e-10
6.22475e-09
4.81094e-10
5.94714e-09
1.48816e-09
5.80491e-09
2.28747e-09
2.37883e-09
5.73996e-09
4.53543e-09
-6.34336e-10
4.60814e-09
-7.39193e-10
4.75012e-09
-7.62078e-10
4.94561e-09
-7.38487e-10
5.173e-09
-6.88699e-10
5.41867e-09
-6.36736e-10
5.67415e-09
-5.94097e-10
5.93445e-09
-5.66552e-10
6.19673e-09
-5.57034e-10
6.4594e-09
-5.65937e-10
6.72159e-09
-5.91699e-10
6.98281e-09
-6.3062e-10
7.24289e-09
-6.75942e-10
7.50203e-09
-7.16442e-10
7.76105e-09
-7.34114e-10
8.02199e-09
-7.01512e-10
8.28873e-09
-5.79674e-10
8.56794e-09
-3.1367e-10
8.87008e-09
1.58861e-10
9.20967e-09
9.05855e-10
9.60229e-09
1.97298e-09
1.00619e-08
3.30418e-09
1.05136e-08
3.93478e-09
1.09089e-08
3.80741e-09
1.12356e-08
3.26693e-09
1.14899e-08
2.46806e-09
1.16723e-08
1.53957e-09
1.1784e-08
5.74338e-10
1.18268e-08
-3.60653e-10
1.18023e-08
-1.21457e-09
1.17128e-08
-1.94747e-09
1.15618e-08
-2.52883e-09
1.13541e-08
-2.93784e-09
1.10961e-08
-3.16366e-09
1.07951e-08
-3.20498e-09
1.04595e-08
-3.06834e-09
1.00984e-08
-2.76585e-09
9.72262e-09
-2.31254e-09
9.34633e-09
-1.7239e-09
8.99076e-09
-1.01432e-09
8.68875e-09
-2.00674e-10
8.48598e-09
6.83868e-10
8.42919e-09
1.54495e-09
8.52816e-09
2.1885e-09
2.28644e-09
8.62055e-09
7.14484e-09
-6.10069e-10
7.151e-09
-7.45344e-10
7.20911e-09
-8.2019e-10
7.32401e-09
-8.53395e-10
7.48762e-09
-8.52303e-10
7.68462e-09
-8.33737e-10
7.90427e-09
-8.13749e-10
8.13875e-09
-8.0103e-10
8.38272e-09
-8.01007e-10
8.63257e-09
-8.15788e-10
8.8859e-09
-8.45027e-10
9.14114e-09
-8.85857e-10
9.39733e-09
-9.32133e-10
9.65415e-09
-9.73264e-10
9.91213e-09
-9.92099e-10
1.01732e-08
-9.62555e-10
1.04413e-08
-8.47823e-10
1.07236e-08
-5.95984e-10
1.10314e-08
-1.48888e-10
1.13805e-08
5.56742e-10
1.17881e-08
1.56535e-09
1.22707e-08
2.82159e-09
1.27515e-08
3.45404e-09
1.31779e-08
3.381e-09
1.35352e-08
2.90963e-09
1.38178e-08
2.18539e-09
1.40248e-08
1.33258e-09
1.41567e-08
4.42427e-10
1.42148e-08
-4.18672e-10
1.42006e-08
-1.20045e-09
1.41172e-08
-1.864e-09
1.39687e-08
-2.38035e-09
1.37613e-08
-2.73047e-09
1.3503e-08
-2.90531e-09
1.32031e-08
-2.90508e-09
1.28725e-08
-2.73779e-09
1.25239e-08
-2.41721e-09
1.21722e-08
-1.96088e-09
1.18372e-08
-1.38884e-09
1.15462e-08
-7.2336e-10
1.13384e-08
7.08946e-12
1.12612e-08
7.61054e-10
1.13507e-08
1.4555e-09
1.15851e-08
1.95405e-09
2.08357e-09
1.1788e-08
1.06116e-08
-5.69049e-10
1.05749e-08
-7.08617e-10
1.05702e-08
-8.15543e-10
1.06078e-08
-8.90936e-10
1.06912e-08
-9.3575e-10
1.08191e-08
-9.61608e-10
1.09793e-08
-9.73902e-10
1.11641e-08
-9.85902e-10
1.13671e-08
-1.00401e-09
1.1583e-08
-1.03168e-09
1.18079e-08
-1.06993e-09
1.2039e-08
-1.11697e-09
1.22744e-08
-1.16753e-09
1.25131e-08
-1.21192e-09
1.27551e-08
-1.23409e-09
1.30021e-08
-1.20954e-09
1.32582e-08
-1.10393e-09
1.35308e-08
-8.68593e-10
1.3832e-08
-4.50082e-10
1.41792e-08
2.09538e-10
1.45911e-08
1.15343e-09
1.50869e-08
2.3258e-09
1.55896e-08
2.95128e-09
1.60427e-08
2.92792e-09
1.64282e-08
2.5242e-09
1.67381e-08
1.87541e-09
1.69699e-08
1.10084e-09
1.71228e-08
2.89479e-10
1.71976e-08
-4.93465e-10
1.7196e-08
-1.19887e-09
1.71214e-08
-1.78938e-09
1.69791e-08
-2.23804e-09
1.67767e-08
-2.52801e-09
1.65238e-08
-2.6524e-09
1.62321e-08
-2.61343e-09
1.59153e-08
-2.42099e-09
1.55891e-08
-2.09103e-09
1.52723e-08
-1.64406e-09
1.4988e-08
-1.1045e-09
1.47655e-08
-5.0093e-10
1.46408e-08
1.31775e-10
1.46523e-08
7.49609e-10
1.48182e-08
1.28955e-09
1.51037e-08
1.66855e-09
1.80481e-09
1.53825e-08
1.51333e-08
-5.23151e-10
1.50758e-08
-6.51139e-10
1.50288e-08
-7.68561e-10
1.50067e-08
-8.68756e-10
1.50173e-08
-9.46353e-10
1.50659e-08
-1.01026e-09
1.51505e-08
-1.05846e-09
1.52654e-08
-1.10084e-09
1.54049e-08
-1.14347e-09
1.55636e-08
-1.19037e-09
1.5737e-08
-1.24334e-09
1.59215e-08
-1.30146e-09
1.61143e-08
-1.36039e-09
1.63139e-08
-1.41146e-09
1.65197e-08
-1.4399e-09
1.67331e-08
-1.42299e-09
1.69585e-08
-1.32925e-09
1.72033e-08
-1.11345e-09
1.74806e-08
-7.2737e-10
1.78094e-08
-1.19251e-10
1.82098e-08
7.52979e-10
1.8704e-08
1.83163e-09
1.92174e-08
2.43788e-09
1.96891e-08
2.45625e-09
2.00971e-08
2.11614e-09
2.04309e-08
1.54161e-09
2.06855e-08
8.46237e-10
2.08589e-08
1.16135e-10
2.09509e-08
-5.85466e-10
2.09633e-08
-1.21128e-09
2.09e-08
-1.72613e-09
2.07676e-08
-2.10555e-09
2.05749e-08
-2.33539e-09
2.03338e-08
-2.41125e-09
2.0058e-08
-2.33768e-09
1.97638e-08
-2.12676e-09
1.94695e-08
-1.7967e-09
1.9196e-08
-1.3706e-09
1.89674e-08
-8.75917e-10
1.88107e-08
-3.44156e-10
1.87536e-08
1.8883e-10
1.88198e-08
6.83417e-10
1.90135e-08
1.0959e-09
1.93004e-08
1.38164e-09
1.50834e-09
1.95968e-08
2.09457e-08
-4.76812e-10
2.08821e-08
-5.8758e-10
2.08135e-08
-6.99975e-10
2.07516e-08
-8.06794e-10
2.07081e-08
-9.02855e-10
2.06876e-08
-9.8983e-10
2.06955e-08
-1.06629e-09
2.0731e-08
-1.13639e-09
2.07917e-08
-1.20416e-09
2.08741e-08
-1.27274e-09
2.09744e-08
-1.34367e-09
2.10893e-08
-1.41635e-09
2.12159e-08
-1.487e-09
2.13523e-08
-1.54786e-09
2.14979e-08
-1.58552e-09
2.1654e-08
-1.57908e-09
2.18251e-08
-1.5003e-09
2.20191e-08
-1.30744e-09
2.22498e-08
-9.58076e-10
2.25382e-08
-4.07654e-10
2.29057e-08
3.85448e-10
2.33775e-08
1.35986e-09
2.38848e-08
1.93058e-09
2.43623e-08
1.97872e-09
2.47834e-08
1.69509e-09
2.51339e-08
1.19102e-09
2.54065e-08
5.73676e-10
2.55971e-08
-7.45001e-11
2.57048e-08
-6.93162e-10
2.57312e-08
-1.23769e-09
2.56809e-08
-1.67576e-09
2.55613e-08
-1.986e-09
2.53832e-08
-2.15727e-09
2.516e-08
-2.18803e-09
2.49076e-08
-2.08526e-09
2.4644e-08
-1.86319e-09
2.43892e-08
-1.54188e-09
2.41646e-08
-1.14598e-09
2.39924e-08
-7.03772e-10
2.38944e-08
-2.46157e-10
2.38887e-08
1.94564e-10
2.39853e-08
5.86852e-10
2.41786e-08
9.02512e-10
2.44402e-08
1.12006e-09
1.23026e-09
2.47183e-08
2.83298e-08
-4.28993e-10
2.82649e-08
-5.22694e-10
2.81879e-08
-6.22995e-10
2.81061e-08
-7.2492e-10
2.80277e-08
-8.24468e-10
2.79582e-08
-9.20346e-10
2.79036e-08
-1.01165e-09
2.78666e-08
-1.09938e-09
2.78479e-08
-1.1855e-09
2.78468e-08
-1.27166e-09
2.78617e-08
-1.35854e-09
2.78905e-08
-1.44514e-09
2.79312e-08
-1.52777e-09
2.79827e-08
-1.59929e-09
2.80446e-08
-1.64746e-09
2.81187e-08
-1.65316e-09
2.82101e-08
-1.59167e-09
2.83272e-08
-1.42459e-09
2.8485e-08
-1.11589e-09
2.87068e-08
-6.29416e-10
2.90149e-08
7.73101e-11
2.94378e-08
9.37041e-10
2.99165e-08
1.4518e-09
3.03818e-08
1.51348e-09
3.08012e-08
1.27567e-09
3.1157e-08
8.35212e-10
3.14386e-08
2.92065e-10
3.164e-08
-2.75861e-10
3.1759e-08
-8.12157e-10
3.17971e-08
-1.27579e-09
3.17593e-08
-1.63804e-09
3.16544e-08
-1.8811e-09
3.14944e-08
-1.99725e-09
3.12943e-08
-1.98787e-09
3.10713e-08
-1.86231e-09
3.08446e-08
-1.63653e-09
3.06343e-08
-1.33154e-09
3.04604e-08
-9.7204e-10
3.03415e-08
-5.84927e-10
3.02931e-08
-1.97725e-10
3.03244e-08
1.63275e-10
3.04362e-08
4.75067e-10
3.0618e-08
7.20707e-10
3.08471e-08
8.90968e-10
9.85922e-10
3.10914e-08
3.76115e-08
-3.76166e-10
3.75437e-08
-4.54942e-10
3.74623e-08
-5.41598e-10
3.73706e-08
-6.332e-10
3.72731e-08
-7.26934e-10
3.71738e-08
-8.21121e-10
3.7077e-08
-9.14874e-10
3.69858e-08
-1.00814e-09
3.69019e-08
-1.10162e-09
3.68262e-08
-1.19599e-09
3.67588e-08
-1.29109e-09
3.66992e-08
-1.38553e-09
3.66469e-08
-1.47545e-09
3.66017e-08
-1.55416e-09
3.65648e-08
-1.61047e-09
3.65384e-08
-1.62682e-09
3.65292e-08
-1.58244e-09
3.65464e-08
-1.44183e-09
3.66063e-08
-1.17578e-09
3.6735e-08
-7.58082e-10
3.69556e-08
-1.43268e-10
3.72995e-08
5.93048e-10
3.7723e-08
1.02835e-09
3.81528e-08
1.08368e-09
3.85508e-08
8.77705e-10
3.88952e-08
4.90761e-10
3.91723e-08
1.49953e-11
3.93736e-08
-4.77159e-10
3.94958e-08
-9.34353e-10
3.95401e-08
-1.32011e-09
3.95121e-08
-1.61002e-09
3.94213e-08
-1.79032e-09
3.92809e-08
-1.85683e-09
3.91068e-08
-1.8138e-09
3.8917e-08
-1.67256e-09
3.87306e-08
-1.45004e-09
3.85661e-08
-1.1671e-09
3.8441e-08
-8.46907e-10
3.83693e-08
-5.13271e-10
3.83605e-08
-1.88871e-10
3.84172e-08
1.06542e-10
3.85354e-08
3.5684e-10
3.87032e-08
5.52904e-10
3.89029e-08
6.91352e-10
7.75222e-10
3.91136e-08
4.915e-08
-3.15613e-10
4.90765e-08
-3.81503e-10
4.89899e-08
-4.54984e-10
4.88912e-08
-5.34472e-10
4.87824e-08
-6.18126e-10
4.86658e-08
-7.04492e-10
4.85435e-08
-7.92643e-10
4.84175e-08
-8.82162e-10
4.8289e-08
-9.73087e-10
4.81586e-08
-1.06553e-09
4.80264e-08
-1.15893e-09
4.78926e-08
-1.25176e-09
4.77574e-08
-1.34021e-09
4.76214e-08
-1.41823e-09
4.74868e-08
-1.47586e-09
4.7357e-08
-1.497e-09
4.724e-08
-1.46541e-09
4.71462e-08
-1.348e-09
4.70931e-08
-1.12273e-09
4.711e-08
-7.74964e-10
4.72205e-08
-2.53821e-10
4.74591e-08
3.54508e-10
4.78003e-08
6.87085e-10
4.81691e-08
7.14958e-10
4.85222e-08
5.24537e-10
4.88347e-08
1.78284e-10
4.90894e-08
-2.39694e-10
4.92757e-08
-6.63503e-10
4.93892e-08
-1.04781e-09
4.94308e-08
-1.36167e-09
4.94064e-08
-1.5856e-09
4.93262e-08
-1.71014e-09
4.9204e-08
-1.73461e-09
4.9056e-08
-1.66579e-09
4.88997e-08
-1.51634e-09
4.87529e-08
-1.30323e-09
4.86318e-08
-1.04602e-09
4.85501e-08
-7.65198e-10
4.85174e-08
-4.80581e-10
4.85384e-08
-2.09799e-10
4.86114e-08
3.35371e-11
4.87308e-08
2.37415e-10
4.88853e-08
3.98417e-10
4.90612e-08
5.15421e-10
5.91926e-10
4.92445e-08
6.33227e-08
-2.47529e-10
6.32432e-08
-3.01999e-10
6.31514e-08
-3.63137e-10
6.30471e-08
-4.30175e-10
6.29309e-08
-5.01989e-10
6.28039e-08
-5.77448e-10
6.26669e-08
-6.55642e-10
6.25207e-08
-7.35936e-10
6.23655e-08
-8.17917e-10
6.22012e-08
-9.01252e-10
6.20273e-08
-9.85041e-10
6.18434e-08
-1.0678e-09
6.1649e-08
-1.14588e-09
6.14449e-08
-1.21414e-09
6.12332e-08
-1.2641e-09
6.10174e-08
-1.28124e-09
6.08065e-08
-1.25446e-09
6.06115e-08
-1.15298e-09
6.04508e-08
-9.62082e-10
6.03553e-08
-6.79437e-10
6.03501e-08
-2.48635e-10
6.04713e-08
2.33253e-10
6.07116e-08
4.46844e-10
6.09965e-08
4.30006e-10
6.12827e-08
2.38371e-10
6.15421e-08
-8.11501e-11
6.17552e-08
-4.52765e-10
6.19096e-08
-8.17851e-10
6.19999e-08
-1.13818e-09
6.20272e-08
-1.38898e-09
6.19977e-08
-1.55606e-09
6.19218e-08
-1.63428e-09
6.18134e-08
-1.62617e-09
6.1688e-08
-1.5404e-09
6.15618e-08
-1.39018e-09
6.14502e-08
-1.1916e-09
6.13662e-08
-9.62051e-10
6.13198e-08
-7.18715e-10
6.13164e-08
-4.77258e-10
6.13574e-08
-2.50816e-10
6.14402e-08
-4.92303e-11
6.15569e-08
1.20744e-10
6.1699e-08
2.56253e-10
6.18561e-08
3.58386e-10
4.29938e-10
6.20181e-08
8.05221e-08
-1.7539e-10
8.04397e-08
-2.19554e-10
8.03457e-08
-2.69208e-10
8.02396e-08
-3.24035e-10
8.0121e-08
-3.8339e-10
7.999e-08
-4.46453e-10
7.98468e-08
-5.12408e-10
7.96913e-08
-5.80502e-10
7.95234e-08
-6.50015e-10
7.93424e-08
-7.20246e-10
7.91473e-08
-7.89929e-10
7.89371e-08
-8.5757e-10
7.87108e-08
-9.19618e-10
7.84685e-08
-9.71787e-10
7.82114e-08
-1.00706e-09
7.79429e-08
-1.01269e-09
7.7671e-08
-9.82616e-10
7.74066e-08
-8.88579e-10
7.71687e-08
-7.24119e-10
7.69847e-08
-4.95426e-10
7.6884e-08
-1.47974e-10
7.69054e-08
2.11881e-10
7.70408e-08
3.114e-10
7.72295e-08
2.41288e-10
7.74363e-08
3.15969e-11
7.76287e-08
-2.73547e-10
7.77852e-08
-6.09278e-10
7.78932e-08
-9.25822e-10
7.79476e-08
-1.19255e-09
7.79496e-08
-1.39103e-09
7.79059e-08
-1.51238e-09
7.78271e-08
-1.55544e-09
7.77262e-08
-1.52529e-09
7.76176e-08
-1.43175e-09
7.75151e-08
-1.2877e-09
7.74311e-08
-1.10766e-09
7.73755e-08
-9.06374e-10
7.73544e-08
-6.97679e-10
7.73708e-08
-4.93584e-10
7.74237e-08
-3.03736e-10
7.75094e-08
-1.34968e-10
7.76202e-08
9.91696e-12
7.77506e-08
1.25883e-10
7.78918e-08
2.1718e-10
2.8506e-10
7.80367e-08
1.01185e-07
-1.04083e-10
1.01105e-07
-1.38943e-10
1.01014e-07
-1.78057e-10
1.00911e-07
-2.21312e-10
1.00796e-07
-2.68343e-10
1.00668e-07
-3.18568e-10
1.00527e-07
-3.71297e-10
1.00372e-07
-4.25751e-10
1.00203e-07
-4.81057e-10
1.00019e-07
-5.36272e-10
9.98191e-08
-5.8987e-10
9.96019e-08
-6.4034e-10
9.93664e-08
-6.8415e-10
9.91126e-08
-7.17912e-10
9.8841e-08
-7.35549e-10
9.85551e-08
-7.26719e-10
9.82614e-08
-6.88928e-10
9.79696e-08
-5.96815e-10
9.77e-08
-4.54544e-10
9.7471e-08
-2.66348e-10
9.73149e-08
8.13503e-12
9.7281e-08
2.45774e-10
9.73327e-08
2.59691e-10
9.74339e-08
1.40021e-10
9.75633e-08
-9.78042e-11
9.76908e-08
-4.00971e-10
9.77875e-08
-7.05983e-10
9.78438e-08
-9.8212e-10
9.78564e-08
-1.20514e-09
9.78277e-08
-1.36233e-09
9.77648e-08
-1.44951e-09
9.76782e-08
-1.4688e-09
9.75798e-08
-1.42697e-09
9.74822e-08
-1.33407e-09
9.73965e-08
-1.202e-09
9.73321e-08
-1.04325e-09
9.72956e-08
-8.69878e-10
9.72906e-08
-6.92681e-10
9.73177e-08
-5.20724e-10
9.73749e-08
-3.6097e-10
9.74582e-08
-2.18196e-10
9.75631e-08
-9.50545e-11
9.76811e-08
7.92739e-12
9.78081e-08
9.01305e-11