/*--------------------------------*- C++ -*----------------------------------*\
| =========                 |                                                 |
| \\      /  F ield         | OpenFOAM: The Open Source CFD Toolbox           |
|  \\    /   O peration     | Version:  2312                                  |
|   \\  /    A nd           | Website:  www.openfoam.com                      |
|    \\/     M anipulation  |                                                 |
\*---------------------------------------------------------------------------*/
FoamFile
{
    version     2.0;
    format      ascii;
    arch        "LSB;label=32;scalar=64";
    class       volVectorField;
    location    "60.75";
    object      U;
}
// * * * * * * * * * * * * * * * * * * * * * * * * * * * * * * * * * * * * * //

dimensions      [0 1 -1 0 0 0 0];

internalField   nonuniform List<vector> 
4800
(
(0.000497067 4.14406e-07 -3.64849e-26)
(0.000486362 4.88125e-07 -2.5742e-25)
(0.000479052 5.32742e-07 3.30143e-25)
(0.00047413 5.48646e-07 1.51768e-25)
(0.000471001 5.33061e-07 2.2468e-24)
(0.000469322 4.97354e-07 -5.35622e-24)
(0.000468864 4.39569e-07 5.00071e-24)
(0.000469647 3.48414e-07 -7.23775e-24)
(0.000471567 2.02438e-07 2.328e-24)
(0.000474797 -7.90642e-08 7.91671e-24)
(0.000479752 -6.46541e-07 -2.44128e-24)
(0.000487783 -2.1356e-06 -2.09163e-25)
(0.000506201 -7.52709e-06 -2.96402e-24)
(0.000553759 -2.94241e-05 1.35166e-24)
(0.000634074 -9.77601e-05 -1.06766e-24)
(0.00153258 2.16799e-06 -1.16015e-25)
(0.00149961 1.7457e-06 1.44626e-25)
(0.00147681 1.40601e-06 -1.34181e-24)
(0.00146118 1.09223e-06 1.00165e-24)
(0.00145094 7.60587e-07 3.22957e-24)
(0.00144501 3.95825e-07 -5.15892e-24)
(0.00144269 -4.71221e-08 -1.461e-24)
(0.00144393 -6.4456e-07 -3.3956e-25)
(0.0014483 -1.4939e-06 1.19794e-23)
(0.00145647 -2.8954e-06 -8.87613e-24)
(0.00146957 -5.55376e-06 9.67179e-25)
(0.00149047 -1.17208e-05 1.46672e-24)
(0.00152814 -2.93053e-05 -2.15565e-24)
(0.00159402 -8.29863e-05 -6.24384e-25)
(0.00166639 -0.00020615 2.78719e-24)
(0.00267264 7.01478e-06 -8.29892e-26)
(0.00261554 5.6346e-06 8.47613e-26)
(0.00257566 4.55366e-06 8.77645e-25)
(0.00254796 3.58741e-06 -2.09517e-24)
(0.00252938 2.60691e-06 2.05936e-24)
(0.00251807 1.51546e-06 1.94356e-24)
(0.00251273 1.42354e-07 -4.98306e-24)
(0.00251323 -1.65543e-06 -3.04224e-24)
(0.00251858 -4.15503e-06 7.36544e-24)
(0.00252974 -8.11674e-06 2.79525e-24)
(0.00254797 -1.51119e-05 -9.73997e-24)
(0.00257532 -2.91588e-05 -1.4557e-24)
(0.00261605 -6.0211e-05 4.15268e-24)
(0.00266896 -0.000128599 6.51883e-24)
(0.00270803 -0.000244308 -3.3623e-24)
(0.00392326 1.57696e-05 3.06457e-26)
(0.00384064 1.28018e-05 -2.14025e-25)
(0.00378232 1.04799e-05 9.57694e-25)
(0.00374126 8.41384e-06 1.02981e-24)
(0.0037131 6.33842e-06 -1.01987e-24)
(0.00369517 4.05338e-06 -5.91599e-24)
(0.00368552 1.24446e-06 -4.03402e-24)
(0.00368364 -2.47605e-06 1.49047e-23)
(0.00368816 -7.30449e-06 6.10604e-24)
(0.00369961 -1.48191e-05 -8.92981e-24)
(0.00371874 -2.71524e-05 -3.60914e-24)
(0.00374551 -4.87837e-05 -2.74261e-24)
(0.0037792 -8.81401e-05 8.53277e-26)
(0.0038123 -0.000155977 2.0233e-24)
(0.00382546 -0.000248369 9.88937e-27)
(0.00528838 2.9323e-05 -5.61694e-26)
(0.00517988 2.40103e-05 -3.45163e-25)
(0.00510236 1.98473e-05 -2.2075e-25)
(0.00504697 1.61595e-05 5.91427e-25)
(0.00500816 1.24967e-05 -1.68906e-24)
(0.00498239 8.53027e-06 4.21541e-24)
(0.00496708 3.76651e-06 -7.42666e-25)
(0.00496092 -2.21475e-06 2.60185e-24)
(0.0049627 -1.02013e-05 -1.44053e-23)
(0.00497157 -2.15161e-05 2.73167e-23)
(0.00498739 -3.87708e-05 -2.65024e-23)
(0.00500828 -6.54733e-05 1.39664e-23)
(0.00503072 -0.000106783 -1.29542e-23)
(0.00504656 -0.000166159 1.22338e-23)
(0.00504455 -0.000236364 -4.88584e-24)
(0.00676821 4.8682e-05 7.41371e-26)
(0.0066353 4.02312e-05 2.6689e-25)
(0.00653897 3.35831e-05 -1.41014e-24)
(0.00646903 2.77156e-05 -8.98607e-25)
(0.00641895 2.19554e-05 2.40338e-24)
(0.00638439 1.5825e-05 8.63911e-25)
(0.00636221 8.68316e-06 -6.76055e-24)
(0.00635029 -4.54459e-08 1.61325e-23)
(0.00634699 -1.11903e-05 -2.09675e-23)
(0.00635079 -2.62761e-05 5.02979e-24)
(0.00636013 -4.72208e-05 1.52699e-23)
(0.00637222 -7.6225e-05 -2.12092e-23)
(0.00638291 -0.000115315 1.06165e-23)
(0.00638602 -0.00016409 1.09388e-23)
(0.00637619 -0.000216346 -8.33544e-24)
(0.00835676 7.46099e-05 6.13268e-26)
(0.00820393 6.23402e-05 -3.63771e-25)
(0.00809113 5.26075e-05 1.30729e-24)
(0.00800774 4.4025e-05 -1.81713e-24)
(0.00794668 3.56852e-05 -6.19331e-24)
(0.00790305 2.69573e-05 1.05585e-23)
(0.00787322 1.71105e-05 -6.41473e-24)
(0.00785442 5.44104e-06 2.18285e-23)
(0.00784446 -8.8314e-06 -1.48479e-23)
(0.00784118 -2.69432e-05 -6.93521e-24)
(0.00784224 -5.01602e-05 -1.36468e-23)
(0.00784462 -7.92841e-05 1.25418e-23)
(0.00784478 -0.000114312 3.53281e-24)
(0.00783883 -0.000153442 3.04508e-24)
(0.00782484 -0.000192415 -2.68123e-24)
(0.0100391 0.000107104 -8.87368e-26)
(0.00987507 9.07076e-05 1.20528e-24)
(0.00975108 7.75027e-05 -2.81109e-24)
(0.0096574 6.58103e-05 -2.31554e-24)
(0.00958717 5.45248e-05 8.59983e-25)
(0.00953532 4.28925e-05 1.70284e-24)
(0.00949797 3.01575e-05 6.12485e-24)
(0.00947197 1.56015e-05 -1.66887e-23)
(0.00945465 -1.44647e-06 -8.9078e-24)
(0.00944345 -2.17349e-05 2.45082e-23)
(0.0094358 -4.58656e-05 -7.61539e-24)
(0.00942896 -7.36896e-05 2.60617e-23)
(0.00942038 -0.000104288 -1.37283e-23)
(0.00940783 -0.000135789 -4.40751e-24)
(0.009391 -0.000165562 2.61522e-24)
(0.01179 0.000144721 -1.188e-26)
(0.0116282 0.000124638 6.68171e-25)
(0.0115018 0.000108049 -9.5167e-25)
(0.0114038 9.31813e-05 2.2892e-24)
(0.0113283 7.88425e-05 -1.36704e-23)
(0.0112707 6.42347e-05 1.4439e-23)
(0.0112274 4.86545e-05 -2.27851e-23)
(0.0111951 3.14813e-05 1.40036e-23)
(0.0111709 1.2243e-05 1.04235e-23)
(0.0111523 -9.4151e-06 2.26739e-23)
(0.0111368 -3.33865e-05 -2.96285e-23)
(0.0111222 -5.91852e-05 -5.52715e-24)
(0.0111069 -8.57184e-05 2.49593e-24)
(0.0110894 -0.000111544 1.82699e-23)
(0.0110703 -0.000135135 -7.45368e-24)
(0.0135768 0.000183967 6.71879e-26)
(0.0134336 0.00016174 -2.84944e-25)
(0.0133168 0.000142623 1.26138e-24)
(0.0132229 0.000125081 -4.42722e-24)
(0.0131483 0.000108022 6.71707e-24)
(0.0130895 9.07387e-05 -8.68338e-24)
(0.0130434 7.26749e-05 1.45491e-23)
(0.0130071 5.34013e-05 2.56269e-24)
(0.0129781 3.26966e-05 -2.00871e-23)
(0.0129539 1.05359e-05 2.86743e-23)
(0.0129326 -1.26524e-05 -3.16601e-23)
(0.0129124 -3.62509e-05 -9.4055e-24)
(0.0128925 -5.93639e-05 1.65209e-23)
(0.0128718 -8.10569e-05 4.9376e-24)
(0.0128511 -0.000100491 -2.16299e-24)
(0.0153708 0.000219557 2.90605e-25)
(0.0152604 0.000197747 -2.25853e-24)
(0.0151649 0.000177823 -3.53958e-24)
(0.0150845 0.000158812 8.42553e-24)
(0.0150181 0.000139948 3.76699e-24)
(0.0149638 0.000120772 -2.36675e-23)
(0.0149195 0.000100979 7.28201e-24)
(0.014883 8.03992e-05 5.24608e-24)
(0.0148523 5.90498e-05 -2.28169e-23)
(0.0148255 3.71834e-05 2.37184e-23)
(0.0148013 1.51787e-05 -1.91599e-23)
(0.0147783 -6.31731e-06 4.91519e-23)
(0.0147562 -2.66734e-05 -2.37433e-23)
(0.0147341 -4.53601e-05 1.40328e-23)
(0.0147128 -6.19511e-05 -3.84287e-24)
(0.0171647 0.000246684 -1.3961e-25)
(0.0170913 0.000227871 1.5886e-24)
(0.0170231 0.000209201 -3.00168e-24)
(0.0169625 0.00019038 -1.4967e-24)
(0.01691 0.000171089 1.67845e-23)
(0.0168653 0.00015123 -2.43732e-24)
(0.0168273 0.000130818 -2.98531e-23)
(0.0167945 0.000109952 3.48592e-23)
(0.0167658 8.88545e-05 -7.81299e-24)
(0.0167398 6.78666e-05 -2.72178e-23)
(0.0167158 4.7409e-05 2.91211e-23)
(0.0166929 2.79207e-05 1.5859e-23)
(0.016671 9.82667e-06 -1.3188e-23)
(0.0166495 -6.60034e-06 -2.31232e-23)
(0.0166291 -2.11653e-05 1.94894e-24)
(0.0189803 0.00026465 3.03552e-26)
(0.018935 0.000250018 -1.84744e-24)
(0.0188905 0.000233851 8.35772e-24)
(0.0188489 0.000216523 4.32438e-25)
(0.0188113 0.000198088 4.60602e-24)
(0.0187778 0.000178774 -1.66233e-23)
(0.0187482 0.000158894 1.41831e-23)
(0.0187215 0.000138772 3.25029e-24)
(0.0186972 0.000118759 2.93007e-23)
(0.0186745 9.922e-05 -4.51791e-23)
(0.0186531 8.05235e-05 -2.05575e-23)
(0.0186325 6.29758e-05 -1.37159e-23)
(0.0186127 4.6831e-05 2.57255e-23)
(0.0185933 3.22094e-05 -7.56111e-25)
(0.018575 1.91861e-05 2.51692e-24)
(0.0208408 0.000275527 -1.7547e-27)
(0.0208121 0.000265789 2.01435e-24)
(0.0207823 0.000252496 -2.92689e-24)
(0.0207537 0.000237159 1.89078e-26)
(0.020727 0.00022024 3.44983e-24)
(0.0207024 0.000202218 8.70869e-24)
(0.0206798 0.00018362 -3.37959e-23)
(0.0206588 0.00016491 2.84725e-24)
(0.0206391 0.000146492 1.71679e-23)
(0.0206202 0.000128705 -7.95359e-24)
(0.0206022 0.000111841 2.17018e-23)
(0.0205846 9.61067e-05 1.5313e-23)
(0.0205677 8.16493e-05 -2.77492e-23)
(0.0205511 6.85094e-05 1.91235e-23)
(0.0205354 5.67033e-05 -1.59039e-23)
(0.0227392 0.000283381 -2.29051e-25)
(0.0227201 0.000278197 -4.67401e-25)
(0.0226983 0.000267822 3.71498e-24)
(0.0226772 0.000254567 -1.72038e-23)
(0.0226569 0.000239379 1.50097e-23)
(0.0226377 0.000222953 -1.05364e-23)
(0.0226197 0.000205943 7.59667e-24)
(0.0226026 0.000188883 -5.32499e-23)
(0.0225864 0.000172177 7.68801e-23)
(0.0225706 0.000156117 -4.53289e-23)
(0.0225553 0.000140927 4.05163e-23)
(0.0225404 0.000126747 3.40742e-23)
(0.0225261 0.000113662 -5.95654e-23)
(0.0225119 0.000101676 1.94327e-23)
(0.0224985 9.07816e-05 -8.19229e-25)
(0.0246244 0.000290018 -9.72163e-27)
(0.0246119 0.000288527 -1.53809e-24)
(0.0245959 0.000281361 1.62757e-24)
(0.0245799 0.000270423 -4.91125e-25)
(0.0245642 0.000257121 6.437e-24)
(0.0245489 0.000242421 -1.08641e-23)
(0.0245343 0.0002271 9.87074e-24)
(0.0245202 0.000211711 -3.08118e-23)
(0.0245066 0.000196634 6.98604e-23)
(0.0244933 0.000182118 -8.92332e-23)
(0.0244804 0.000168343 7.30637e-23)
(0.0244677 0.000155408 -2.4677e-23)
(0.0244555 0.000143371 1.29511e-24)
(0.0244434 0.000132224 5.7126e-24)
(0.024432 0.000121951 -1.09257e-23)
(0.0264101 0.00029479 -8.27519e-25)
(0.0264022 0.000295761 -1.47886e-25)
(0.0263921 0.000292067 1.99437e-24)
(0.0263806 0.000284012 -3.62223e-24)
(0.026369 0.000273065 1.20065e-23)
(0.0263573 0.00026037 -1.16736e-23)
(0.026346 0.000246875 -9.53773e-24)
(0.0263349 0.000233173 -2.24732e-23)
(0.0263241 0.000219624 1.19417e-23)
(0.0263132 0.00020646 5.44265e-23)
(0.0263027 0.000193846 -2.86223e-23)
(0.0262923 0.000181874 1.696e-23)
(0.0262822 0.000170595 -6.98772e-24)
(0.0262721 0.000160005 -2.06789e-23)
(0.0262626 0.000150093 1.05834e-23)
(0.0279791 0.000297202 2.66488e-25)
(0.0279736 0.000300663 -2.68199e-25)
(0.0279681 0.000298758 2.57697e-24)
(0.0279618 0.000293954 -9.03494e-24)
(0.027954 0.000285616 -2.00658e-24)
(0.0279459 0.000275221 2.22047e-23)
(0.027938 0.000263767 -1.6322e-23)
(0.0279301 0.00025186 -9.11367e-24)
(0.0279221 0.000239856 8.63967e-24)
(0.027914 0.000227988 -9.35842e-24)
(0.027906 0.000216427 2.19466e-23)
(0.0278979 0.000205274 1.08233e-23)
(0.0278901 0.000194586 -4.05309e-23)
(0.0278822 0.000184374 2.78786e-23)
(0.0278747 0.00017464 -5.66051e-24)
(0.029159 0.0002967 7.31766e-25)
(0.0291601 0.00030346 -1.4815e-25)
(0.0291592 0.000302796 -1.70004e-25)
(0.0291573 0.000300072 3.49091e-24)
(0.0291541 0.000294959 -6.06437e-24)
(0.0291498 0.000286745 -1.02235e-23)
(0.0291454 0.000277269 -9.717e-24)
(0.0291408 0.000267058 2.74875e-23)
(0.029136 0.00025647 2.4296e-23)
(0.0291309 0.000245763 -5.80553e-23)
(0.0291258 0.000235124 3.23769e-23)
(0.0291205 0.000224661 -2.19393e-24)
(0.0291152 0.000214439 -1.73439e-24)
(0.0291098 0.000204483 2.30583e-24)
(0.0291046 0.00019481 -1.0535e-24)
(0.0297285 0.00028875 -1.72287e-24)
(0.029736 0.000298853 -1.16062e-24)
(0.0297413 0.000302348 4.1574e-24)
(0.0297441 0.000301035 -3.45546e-24)
(0.0297453 0.00029694 1.81725e-24)
(0.0297459 0.000290659 4.89863e-24)
(0.0297461 0.000283033 -3.72455e-24)
(0.0297458 0.000274435 -2.28714e-23)
(0.0297451 0.000265193 5.04435e-23)
(0.0297439 0.000255573 -2.06214e-23)
(0.0297425 0.000245763 7.52584e-24)
(0.0297407 0.00023588 -1.34615e-23)
(0.0297389 0.000226001 -1.32909e-23)
(0.0297368 0.000216174 1.93119e-23)
(0.0297346 0.000206435 -8.2163e-24)
(0.0295092 0.00027842 2.4288e-24)
(0.0295182 0.00028955 -4.68789e-24)
(0.0295255 0.000294525 1.54578e-24)
(0.0295314 0.000295189 -9.08848e-25)
(0.029536 0.000292969 3.62612e-24)
(0.02954 0.000288632 -4.16268e-24)
(0.0295433 0.000282663 -1.11597e-23)
(0.0295462 0.000275463 2.72664e-23)
(0.0295486 0.000267382 6.08031e-24)
(0.0295505 0.000258682 -1.56931e-23)
(0.0295521 0.000249542 -7.90112e-24)
(0.0295534 0.000240082 8.89924e-24)
(0.0295544 0.000230394 -9.41271e-24)
(0.0295551 0.000220544 5.31611e-24)
(0.0295557 0.000210587 -2.29199e-24)
(0.028504 0.000264736 1.36397e-24)
(0.0285205 0.00027545 -2.56832e-24)
(0.0285353 0.000281001 -5.83717e-25)
(0.0285484 0.000282745 2.79223e-24)
(0.02856 0.000281688 -3.03336e-25)
(0.0285702 0.000278472 8.09728e-25)
(0.0285794 0.000273589 -7.6457e-25)
(0.0285878 0.000267425 -1.51873e-24)
(0.0285952 0.000260278 -3.45618e-24)
(0.028602 0.000252366 2.20563e-23)
(0.028608 0.00024385 -1.35979e-23)
(0.0286135 0.000234847 1.37083e-24)
(0.0286184 0.000225456 -1.73228e-23)
(0.0286229 0.000215747 8.36457e-24)
(0.0286268 0.000205781 2.69827e-24)
(0.0269044 0.00024636 3.18068e-24)
(0.0269222 0.000256106 -5.28697e-24)
(0.0269391 0.00026147 1.18422e-24)
(0.0269548 0.000263432 -8.5384e-25)
(0.0269695 0.000262798 6.30855e-25)
(0.0269831 0.000260182 5.1545e-25)
(0.0269959 0.000256023 1.18221e-24)
(0.027008 0.000250625 -1.11509e-24)
(0.0270193 0.000244214 9.73533e-25)
(0.0270299 0.000236968 5.64707e-24)
(0.0270398 0.000229034 -1.24652e-23)
(0.0270491 0.000220525 9.6916e-24)
(0.0270579 0.000211533 -8.03463e-25)
(0.0270662 0.000202128 -2.99118e-24)
(0.0270739 0.000192368 4.76045e-25)
(0.0249743 0.000228174 1.17748e-24)
(0.0249956 0.000236621 -5.47308e-24)
(0.0250162 0.000241335 8.44611e-24)
(0.0250359 0.000243114 -5.52096e-24)
(0.0250547 0.000242626 3.5425e-24)
(0.0250726 0.00024036 -1.75283e-24)
(0.0250897 0.000236648 -7.23485e-25)
(0.0251059 0.000231722 3.80482e-25)
(0.0251214 0.000225769 -3.1126e-24)
(0.0251361 0.00021895 -1.80001e-24)
(0.02515 0.000211399 5.40107e-24)
(0.0251633 0.000203222 1.80371e-24)
(0.025176 0.000194503 -3.01735e-24)
(0.0251881 0.00018531 9.96081e-25)
(0.0251995 0.000175701 -2.91205e-25)
(0.0228607 0.000207971 1.53743e-25)
(0.0228868 0.000214891 -2.04113e-24)
(0.0229125 0.000218725 -7.57318e-25)
(0.0229374 0.000220096 7.3462e-24)
(0.0229613 0.000219503 -6.34541e-24)
(0.0229844 0.000217302 1.63187e-24)
(0.0230064 0.000213753 1.58792e-25)
(0.0230276 0.000209057 -1.05397e-26)
(0.0230479 0.000203379 5.35355e-25)
(0.0230674 0.000196863 -3.78367e-24)
(0.023086 0.000189623 3.61624e-24)
(0.0231038 0.000181753 6.11069e-25)
(0.0231208 0.000173329 -7.16552e-25)
(0.0231372 0.000164417 -1.48059e-24)
(0.0231527 0.000155073 1.25449e-24)
(0.0206814 0.000184875 2.27769e-25)
(0.020713 0.000190267 1.89427e-24)
(0.0207441 0.000193156 -2.20214e-24)
(0.0207744 0.000193995 -1.22883e-24)
(0.0208037 0.000193149 6.81035e-24)
(0.020832 0.000190891 -5.22211e-24)
(0.0208593 0.000187433 -2.52323e-25)
(0.0208855 0.000182947 -4.67006e-25)
(0.0209107 0.000177571 1.5853e-25)
(0.0209349 0.000171419 1.43559e-25)
(0.0209582 0.000164588 9.69446e-25)
(0.0209804 0.000157158 -1.76687e-25)
(0.0210017 0.000149197 5.52317e-26)
(0.0210221 0.000140766 -1.71344e-25)
(0.0210414 0.000131918 -9.46384e-25)
(0.0185199 0.000159548 1.63003e-24)
(0.0185565 0.000163553 -2.44888e-24)
(0.0185925 0.000165554 -1.67443e-24)
(0.0186275 0.000165886 5.03268e-24)
(0.0186615 0.000164817 -1.81927e-24)
(0.0186943 0.000162554 -1.94199e-24)
(0.018726 0.000159265 7.51716e-25)
(0.0187565 0.000155081 8.88403e-25)
(0.0187859 0.000150112 -7.17235e-25)
(0.0188141 0.000144451 3.97986e-26)
(0.0188411 0.000138177 5.1262e-25)
(0.0188669 0.000131358 -5.78912e-25)
(0.0188915 0.000124056 1.7508e-24)
(0.018915 0.000116325 -2.25078e-24)
(0.0189371 0.000108213 7.7778e-25)
(0.0164289 0.000133311 -3.19067e-25)
(0.016469 0.000136162 -1.02464e-24)
(0.0165084 0.000137446 -3.01858e-24)
(0.0165467 0.000137413 8.37384e-24)
(0.0165839 0.000136249 -1.66884e-24)
(0.0166198 0.0001341 -2.07599e-24)
(0.0166545 0.000131092 4.81413e-25)
(0.0166878 0.000127327 -7.4077e-25)
(0.0167199 0.00012289 -6.8228e-25)
(0.0167506 0.000117857 7.22904e-25)
(0.0167799 0.000112291 3.191e-26)
(0.0168078 0.000106252 7.31008e-25)
(0.0168343 9.97928e-05 -7.93004e-25)
(0.0168594 9.29616e-05 -1.73508e-25)
(0.0168829 8.58038e-05 1.97718e-25)
(0.0144381 0.000107711 1.24025e-24)
(0.0144797 0.000109683 1.6639e-24)
(0.0145205 0.000110466 -1.69828e-24)
(0.0145602 0.000110238 -3.19244e-24)
(0.0145987 0.000109113 3.97287e-24)
(0.0146359 0.000107195 -3.97544e-24)
(0.0146718 0.000104577 1.3308e-25)
(0.0147063 0.000101337 1.33844e-24)
(0.0147393 9.75411e-05 3.52515e-25)
(0.0147708 9.32483e-05 -1.45267e-25)
(0.0148008 8.85115e-05 4.51589e-25)
(0.0148293 8.33796e-05 -1.15301e-24)
(0.0148561 7.78986e-05 4.97111e-25)
(0.0148812 7.21105e-05 3.3798e-25)
(0.0149046 6.60555e-05 4.06425e-26)
(0.0125624 8.41145e-05 -1.30129e-24)
(0.0126035 8.54605e-05 1.65996e-24)
(0.0126437 8.5938e-05 1.53224e-25)
(0.0126829 8.56563e-05 2.83922e-24)
(0.0127209 8.46768e-05 -2.41885e-24)
(0.0127577 8.30749e-05 6.00158e-26)
(0.012793 8.09196e-05 -3.22073e-25)
(0.0128269 7.82691e-05 -5.80882e-25)
(0.0128593 7.51731e-05 2.15636e-25)
(0.0128902 7.16774e-05 -6.36138e-25)
(0.0129194 6.78244e-05 3.25114e-25)
(0.0129469 6.36543e-05 1.52504e-25)
(0.0129727 5.92052e-05 -6.21452e-26)
(0.0129967 5.45123e-05 -1.00551e-25)
(0.0130189 4.96103e-05 -1.02378e-25)
(0.010809 6.3449e-05 9.72777e-25)
(0.0108477 6.43711e-05 -7.80187e-25)
(0.0108857 6.46877e-05 -3.08305e-24)
(0.0109228 6.44422e-05 2.88603e-24)
(0.0109587 6.36671e-05 3.53187e-24)
(0.0109935 6.24188e-05 -1.13142e-24)
(0.0110269 6.07463e-05 -1.75789e-24)
(0.0110589 5.86913e-05 -1.8328e-24)
(0.0110894 5.62905e-05 1.2484e-24)
(0.0111184 5.35788e-05 -2.76234e-26)
(0.0111458 5.05892e-05 -9.32481e-26)
(0.0111714 4.73535e-05 9.12769e-26)
(0.0111953 4.39021e-05 -1.61489e-25)
(0.0112173 4.02638e-05 -4.42748e-26)
(0.0112375 3.64669e-05 1.11103e-25)
(0.00918054 4.61538e-05 -6.17166e-25)
(0.00921566 4.67976e-05 -3.94053e-25)
(0.00925016 4.70401e-05 5.38525e-25)
(0.00928386 4.68712e-05 -1.43511e-24)
(0.0093166 4.63131e-05 4.61807e-24)
(0.00934827 4.54071e-05 -5.6715e-24)
(0.00937875 4.41863e-05 5.08833e-24)
(0.00940795 4.26794e-05 -2.01921e-24)
(0.00943576 4.09129e-05 2.81695e-25)
(0.0094621 3.89127e-05 -1.36987e-25)
(0.00948688 3.67032e-05 -1.9377e-25)
(0.00951004 3.43087e-05 -1.57433e-25)
(0.0095315 3.17527e-05 1.34928e-25)
(0.00955121 2.90577e-05 7.47794e-26)
(0.00956908 2.62459e-05 -5.0195e-26)
(0.00767742 3.2265e-05 -3.01936e-25)
(0.00770806 3.27251e-05 8.68706e-26)
(0.00773828 3.29324e-05 1.64332e-25)
(0.00776787 3.28433e-05 -6.73174e-25)
(0.0077967 3.24798e-05 -2.37769e-25)
(0.00782463 3.187e-05 2.35389e-24)
(0.00785154 3.10346e-05 -1.34021e-24)
(0.00787733 2.99931e-05 1.40487e-25)
(0.0079019 2.87636e-05 -1.47916e-25)
(0.00792516 2.73645e-05 -8.01788e-26)
(0.00794701 2.58133e-05 4.91946e-26)
(0.00796739 2.41278e-05 -6.45033e-26)
(0.00798622 2.2325e-05 -2.27366e-25)
(0.00800346 2.0422e-05 2.18282e-25)
(0.00801901 1.84354e-05 8.15958e-26)
(0.00629814 2.15418e-05 -1.1042e-25)
(0.0063239 2.1874e-05 -3.06181e-26)
(0.00634945 2.20548e-05 -1.62685e-24)
(0.00637455 2.20281e-05 5.0269e-25)
(0.00639908 2.18182e-05 -9.64003e-25)
(0.00642291 2.14409e-05 8.54501e-25)
(0.00644593 2.0909e-05 1.29553e-24)
(0.00646802 2.02346e-05 7.56372e-25)
(0.0064891 1.94299e-05 -9.32648e-25)
(0.00650906 1.85071e-05 2.77206e-25)
(0.00652782 1.74781e-05 6.96144e-26)
(0.00654532 1.63552e-05 1.1199e-25)
(0.00656148 1.51504e-05 -7.20565e-26)
(0.00657625 1.3876e-05 9.8957e-26)
(0.00658956 1.25438e-05 -1.50324e-25)
(0.00503954 1.3588e-05 -4.34462e-25)
(0.00506036 1.38232e-05 -5.55209e-25)
(0.00508115 1.39731e-05 -5.56814e-26)
(0.00510166 1.39852e-05 1.34747e-24)
(0.00512179 1.38826e-05 -8.76492e-25)
(0.00514141 1.36722e-05 -1.07664e-25)
(0.00516042 1.33613e-05 1.22225e-24)
(0.00517872 1.29571e-05 -6.88171e-26)
(0.00519621 1.24671e-05 -2.5066e-25)
(0.00521282 1.1899e-05 -4.33329e-25)
(0.00522846 1.12604e-05 2.04596e-25)
(0.00524307 1.05595e-05 5.347e-28)
(0.00525658 9.8039e-06 9.85436e-27)
(0.00526894 9.00228e-06 1.61984e-25)
(0.0052801 8.16259e-06 -1.30268e-25)
(0.00389692 7.94345e-06 -9.53046e-26)
(0.00391299 8.0998e-06 9.08142e-27)
(0.00392916 8.21289e-06 6.60732e-25)
(0.00394519 8.24202e-06 3.89636e-25)
(0.00396099 8.205e-06 -3.28924e-25)
(0.00397646 8.1033e-06 -6.68699e-25)
(0.00399151 7.94072e-06 2.28038e-25)
(0.00400605 7.72135e-06 -8.47299e-25)
(0.00402 7.44932e-06 6.32306e-25)
(0.00403328 7.1292e-06 1.684e-25)
(0.00404583 6.76542e-06 -1.21839e-25)
(0.00405759 6.36297e-06 -2.18492e-26)
(0.00406849 5.92648e-06 -4.88767e-26)
(0.00407851 5.46154e-06 9.78056e-26)
(0.00408758 4.97345e-06 -6.62715e-26)
(0.00286429 4.14656e-06 -1.75991e-25)
(0.00287596 4.23656e-06 1.00588e-26)
(0.00288779 4.31045e-06 5.36289e-25)
(0.00289958 4.33989e-06 -3.32746e-25)
(0.00291127 4.33552e-06 1.21771e-24)
(0.00292277 4.2964e-06 -2.15164e-24)
(0.00293401 4.22432e-06 1.60082e-24)
(0.00294491 4.12126e-06 -1.18759e-24)
(0.00295542 3.98928e-06 7.21781e-25)
(0.00296548 3.83076e-06 -3.45945e-25)
(0.00297501 3.64802e-06 1.00137e-25)
(0.00298398 3.44381e-06 4.08598e-27)
(0.00299234 3.22058e-06 -4.9067e-26)
(0.00300005 2.98167e-06 7.58739e-26)
(0.00300708 2.73064e-06 -2.71186e-26)
(0.00193469 1.78156e-06 2.6767e-25)
(0.00194239 1.81897e-06 2.68942e-25)
(0.00195027 1.85684e-06 -1.16497e-24)
(0.00195816 1.87668e-06 8.25855e-25)
(0.00196603 1.88259e-06 -1.88434e-26)
(0.00197382 1.87335e-06 1.65991e-25)
(0.00198148 1.84958e-06 -2.31447e-25)
(0.00198895 1.81202e-06 -3.74674e-25)
(0.00199619 1.76147e-06 3.36572e-25)
(0.00200314 1.69896e-06 -6.48894e-27)
(0.00200977 1.62547e-06 -9.64666e-26)
(0.00201604 1.54224e-06 4.15919e-26)
(0.00202191 1.45031e-06 -3.45366e-26)
(0.00202736 1.35141e-06 -1.08603e-27)
(0.00203236 1.24792e-06 1.80714e-26)
(0.00110054 5.20246e-07 -2.70646e-25)
(0.00110475 5.33419e-07 8.07723e-25)
(0.00110911 5.51358e-07 4.35032e-25)
(0.0011135 5.63384e-07 -8.29371e-25)
(0.00111792 5.70349e-07 -9.48857e-26)
(0.00112232 5.71971e-07 -7.5282e-26)
(0.00112667 5.68576e-07 2.00232e-25)
(0.00113095 5.60466e-07 -3.13335e-25)
(0.00113511 5.47916e-07 3.44465e-25)
(0.00113913 5.31266e-07 -1.7236e-25)
(0.00114299 5.10791e-07 -4.59263e-26)
(0.00114667 4.8689e-07 5.54891e-27)
(0.00115013 4.59771e-07 9.28088e-26)
(0.00115336 4.30009e-07 -1.26378e-25)
(0.00115635 3.98926e-07 3.88158e-26)
(0.000354016 9.02437e-08 -1.93539e-27)
(0.000355233 1.25258e-07 1.55528e-25)
(0.00035652 1.52676e-07 1.64825e-25)
(0.000357836 1.71145e-07 -2.70338e-25)
(0.00035918 1.82474e-07 4.9839e-25)
(0.000360537 1.87971e-07 -5.43682e-25)
(0.000361897 1.88691e-07 2.97982e-26)
(0.000363246 1.8538e-07 2.16022e-25)
(0.000364573 1.78549e-07 -2.93863e-25)
(0.000365869 1.68549e-07 -1.60833e-26)
(0.000367122 1.55566e-07 8.01166e-26)
(0.000368326 1.3972e-07 -2.1482e-26)
(0.000369471 1.20979e-07 3.32723e-26)
(0.000370551 9.93604e-08 -3.42043e-26)
(0.00037156 7.51797e-08 3.1842e-27)
(0.000941059 -0.000265685 1.05376e-25)
(0.00107322 -0.00019879 2.81806e-24)
(0.00129428 -0.000128587 -8.2767e-24)
(0.00151864 -7.26646e-05 1.23779e-23)
(0.00173168 -2.91163e-05 -4.64899e-24)
(0.00193878 3.2697e-06 -4.70495e-24)
(0.00214033 2.7316e-05 5.44419e-24)
(0.00233751 4.54161e-05 -1.09596e-23)
(0.00253164 5.95302e-05 6.37884e-25)
(0.00272378 7.12501e-05 6.997e-24)
(0.00291487 8.18787e-05 -1.34622e-24)
(0.00310566 9.2559e-05 1.46194e-24)
(0.00329686 0.000104386 -1.38782e-25)
(0.00348924 0.000118493 9.34106e-25)
(0.00368387 0.00013602 -3.44322e-24)
(0.00388235 0.000158113 1.89681e-24)
(0.00408697 0.000185812 -6.25489e-25)
(0.00430098 0.000219393 2.35129e-26)
(0.00452985 0.000258169 1.57345e-24)
(0.00477983 0.000300408 -1.00078e-24)
(0.00505877 0.000340288 1.31905e-25)
(0.0053724 0.000366922 -1.16572e-25)
(0.00569787 0.000361242 2.25376e-25)
(0.00599205 0.000316843 8.71389e-25)
(0.00623919 0.000239927 -1.56634e-24)
(0.00643818 0.00013736 -1.08148e-24)
(0.00659015 1.52601e-05 8.67593e-27)
(0.00669677 -0.000121376 2.748e-24)
(0.006759 -0.000267987 4.04811e-24)
(0.00677715 -0.000420222 -7.99829e-24)
(0.00675112 -0.00057314 7.46879e-24)
(0.00668085 -0.000720945 -7.32808e-24)
(0.00656663 -0.000856996 2.14117e-24)
(0.00640929 -0.000973972 9.08557e-25)
(0.00621029 -0.00106403 -9.93563e-25)
(0.00597158 -0.00111881 3.09006e-24)
(0.00569544 -0.00112926 3.66459e-25)
(0.00538429 -0.00108485 2.32522e-24)
(0.00504075 -0.000972221 1.7309e-24)
(0.00466817 -0.000773056 -9.42039e-24)
(0.00427038 -0.000463839 -1.26494e-25)
(0.00385371 -2.31729e-05 4.82405e-24)
(0.00341123 0.000537241 1.94319e-24)
(0.0029659 0.00113118 -7.14241e-24)
(0.00271514 0.00144288 -3.87699e-25)
(0.00176125 -0.000346136 -3.16291e-24)
(0.00181406 -0.000312136 -4.67497e-24)
(0.00194586 -0.000244183 9.66874e-24)
(0.00211265 -0.000180186 4.79738e-24)
(0.00228849 -0.00012574 -1.68167e-23)
(0.00246895 -8.24419e-05 1.83045e-23)
(0.00265021 -4.86061e-05 -6.60979e-24)
(0.00283097 -2.19581e-05 5.46119e-24)
(0.00301114 -4.3577e-07 -7.20611e-24)
(0.00319099 1.77171e-05 7.69509e-26)
(0.00337098 3.39657e-05 -3.90577e-24)
(0.00355161 4.9579e-05 7.75225e-24)
(0.00373346 6.57397e-05 -4.30557e-24)
(0.00391719 8.36276e-05 -3.93956e-24)
(0.00410383 0.000104387 -2.72938e-24)
(0.00429492 0.00012915 5.03384e-24)
(0.00449265 0.000158927 -6.89118e-25)
(0.00470013 0.00019391 2.84665e-24)
(0.00492266 0.00023337 5.27884e-25)
(0.00516627 0.000275641 -8.90053e-25)
(0.00543852 0.000315105 -3.94903e-25)
(0.00574512 0.000341283 -2.50303e-25)
(0.00606445 0.000335841 1.22271e-24)
(0.00635473 0.000292975 1.50015e-24)
(0.00660033 0.000218833 -1.33833e-24)
(0.00679974 0.000120083 -6.567e-24)
(0.00695358 2.7651e-06 8.90343e-24)
(0.00706313 -0.000128161 -6.30987e-24)
(0.00712917 -0.000267923 2.12877e-24)
(0.00715193 -0.000412053 -1.44116e-24)
(0.00713144 -0.000555522 1.11245e-23)
(0.0070679 -0.000692506 -1.56229e-23)
(0.00696196 -0.000816404 9.03139e-24)
(0.00681501 -0.000919975 -6.96333e-24)
(0.00662914 -0.00099547 4.38661e-24)
(0.00640725 -0.00103464 -6.57718e-25)
(0.00615289 -0.00102849 7.87551e-24)
(0.00587049 -0.000966728 -1.1772e-24)
(0.00556573 -0.000836491 -8.30669e-24)
(0.00524709 -0.000620615 -6.11782e-24)
(0.00492768 -0.000297241 1.40271e-23)
(0.00463051 0.000153657 -1.45244e-23)
(0.00438281 0.000718538 -4.2346e-24)
(0.00423124 0.0012971 1.00215e-23)
(0.00423985 0.00153759 3.83055e-24)
(0.00272377 -0.000351634 -3.76412e-26)
(0.00272838 -0.000356867 -5.39029e-24)
(0.002779 -0.000319558 1.03056e-23)
(0.00287928 -0.000265359 9.23382e-24)
(0.00300415 -0.000210984 -1.49122e-23)
(0.00314499 -0.000162892 2.87202e-25)
(0.00329489 -0.000122632 1.50404e-24)
(0.00345004 -8.93106e-05 1.67384e-23)
(0.00360857 -6.14269e-05 -1.98636e-23)
(0.00376959 -3.74335e-05 1.23608e-23)
(0.00393282 -1.59057e-05 3.79528e-24)
(0.00409831 4.44291e-06 -2.07624e-23)
(0.00426633 2.48206e-05 7.50349e-24)
(0.00443739 4.64176e-05 3.02789e-24)
(0.00461237 7.03611e-05 -6.41652e-24)
(0.00479274 9.77531e-05 1.05607e-23)
(0.00498053 0.000129574 -7.5896e-24)
(0.0051787 0.000165917 -2.42639e-25)
(0.00539238 0.000206003 5.57729e-25)
(0.00562732 0.000248244 6.7135e-25)
(0.0058908 0.000287232 7.67756e-26)
(0.00618842 0.000312884 4.3279e-25)
(0.00649986 0.00030761 -1.23869e-24)
(0.00678481 0.000266226 3.69473e-24)
(0.00702776 0.000194853 -5.85725e-24)
(0.00722672 9.99681e-05 3.37291e-24)
(0.00738177 -1.25505e-05 -7.97337e-24)
(0.00749382 -0.000137538 1.07578e-23)
(0.00756341 -0.000270242 -1.02271e-23)
(0.00759072 -0.000406005 1.78383e-25)
(0.00757593 -0.000539709 -4.66586e-25)
(0.00751951 -0.000665516 1.82672e-23)
(0.00742256 -0.000776884 -6.09747e-24)
(0.007287 -0.000866704 -3.40654e-24)
(0.0071157 -0.000927428 2.38941e-24)
(0.00691249 -0.00095109 4.19145e-24)
(0.00668236 -0.000929157 -4.80033e-24)
(0.00643173 -0.000852128 1.28678e-23)
(0.00616927 -0.000708841 -2.63198e-23)
(0.00590786 -0.000485558 1.04159e-23)
(0.00566732 -0.000166683 4.07834e-24)
(0.00547931 0.000258321 7.31073e-24)
(0.00538213 0.000766016 -9.13651e-24)
(0.00540764 0.00125157 3.08717e-24)
(0.00554886 0.0014389 -1.97743e-24)
(0.00381215 -0.0003314 -1.36978e-24)
(0.00378811 -0.000360867 -2.16059e-24)
(0.00379059 -0.00034989 -9.32098e-24)
(0.00382692 -0.000318584 2.29024e-24)
(0.00389691 -0.000274525 1.55936e-24)
(0.00398994 -0.000229454 7.78853e-24)
(0.00409923 -0.000188095 -1.69265e-23)
(0.00421991 -0.000151579 6.34363e-24)
(0.00434871 -0.000119593 2.19563e-23)
(0.00448363 -9.12447e-05 -5.81379e-24)
(0.00462356 -6.54397e-05 -5.53043e-24)
(0.00476799 -4.10506e-05 -8.86256e-25)
(0.00491682 -1.69551e-05 2.93141e-24)
(0.00507029 7.97818e-06 -5.7669e-24)
(0.0052291 3.48144e-05 1.30901e-24)
(0.00539459 6.45931e-05 -5.3487e-25)
(0.00556864 9.82522e-05 -3.07701e-24)
(0.00575401 0.000135763 1.00387e-24)
(0.00595566 0.000176275 5.57064e-24)
(0.00617905 0.000218303 -5.97687e-25)
(0.00643112 0.000256654 -1.33821e-24)
(0.00671731 0.000281632 -3.8751e-25)
(0.00701869 0.000276412 -2.19173e-24)
(0.00729649 0.000236462 -1.35726e-25)
(0.00753528 0.000167881 -5.26832e-24)
(0.00773256 7.6963e-05 9.05201e-24)
(0.00788783 -3.05435e-05 -8.02428e-24)
(0.00800158 -0.000149397 1.55591e-23)
(0.00807416 -0.000274747 -1.37135e-23)
(0.00810571 -0.000401794 2.96659e-24)
(0.00809656 -0.000525361 6.09348e-24)
(0.00804751 -0.000639636 -9.41251e-26)
(0.00796012 -0.000738207 -3.27331e-25)
(0.00783689 -0.000814205 1.25866e-25)
(0.00768146 -0.000860447 -1.23879e-24)
(0.00749867 -0.000869519 -2.05211e-24)
(0.00729479 -0.000833755 1.35557e-23)
(0.00707799 -0.000745125 -6.82823e-24)
(0.0068592 -0.000595151 4.15423e-25)
(0.00665381 -0.000375042 -2.65129e-23)
(0.00648379 -7.75408e-05 2.05339e-23)
(0.00637993 0.000296795 -8.71098e-24)
(0.00637562 0.000719318 1.34265e-24)
(0.00648515 0.00110557 1.24393e-23)
(0.00668116 0.00129222 -3.46967e-24)
(0.00502199 -0.000300444 -5.70253e-24)
(0.0049871 -0.000338941 1.17515e-23)
(0.0049602 -0.000347188 3.48286e-24)
(0.00495667 -0.000335661 1.4986e-23)
(0.00497498 -0.000310065 -3.68622e-23)
(0.00501973 -0.000274574 -1.24376e-24)
(0.00508398 -0.000237993 1.81038e-24)