/*--------------------------------*- C++ -*----------------------------------*\
| =========                 |                                                 |
| \\      /  F ield         | OpenFOAM: The Open Source CFD Toolbox           |
|  \\    /   O peration     | Version:  2312                                  |
|   \\  /    A nd           | Website:  www.openfoam.com                      |
|    \\/     M anipulation  |                                                 |
\*---------------------------------------------------------------------------*/
FoamFile
{
    version     2.0;
    format      ascii;
    arch        "LSB;label=32;scalar=64";
    class       volScalarField;
    location    "91.25";
    object      p;
}
// * * * * * * * * * * * * * * * * * * * * * * * * * * * * * * * * * * * * * //

dimensions      [0 2 -2 0 0 0 0];

internalField   nonuniform List<scalar> 
4800
(
-8.46075e-13
-9.95837e-07
-1.84059e-06
-2.5737e-06
-3.2317e-06
-3.82439e-06
-4.35797e-06
-4.84167e-06
-5.2833e-06
-5.68803e-06
-6.05999e-06
-6.39944e-06
-6.69735e-06
-7.19631e-06
-8.87299e-06
1.00758e-08
-9.84996e-07
-1.82893e-06
-2.56165e-06
-3.21998e-06
-3.8136e-06
-4.34902e-06
-4.8359e-06
-5.28286e-06
-5.69706e-06
-6.08741e-06
-6.46777e-06
-6.85023e-06
-7.3422e-06
-8.18862e-06
2.07198e-08
-9.73316e-07
-1.81648e-06
-2.54848e-06
-3.20608e-06
-3.80013e-06
-4.33679e-06
-4.82601e-06
-5.27704e-06
-5.69777e-06
-6.09824e-06
-6.49258e-06
-6.88696e-06
-7.2853e-06
-7.65674e-06
3.17132e-08
-9.60574e-07
-1.80226e-06
-2.53342e-06
-3.18894e-06
-3.78285e-06
-4.31986e-06
-4.80966e-06
-5.26161e-06
-5.68272e-06
-6.0801e-06
-6.4587e-06
-6.80778e-06
-7.09143e-06
-7.23338e-06
4.43231e-08
-9.45348e-07
-1.78459e-06
-2.51501e-06
-3.16646e-06
-3.75898e-06
-4.29505e-06
-4.78292e-06
-5.23135e-06
-5.64499e-06
-6.02568e-06
-6.36823e-06
-6.65061e-06
-6.83052e-06
-6.84916e-06
6.01123e-08
-9.26014e-07
-1.7617e-06
-2.4903e-06
-3.13725e-06
-3.72561e-06
-4.25828e-06
-4.74061e-06
-5.17961e-06
-5.57669e-06
-5.92822e-06
-6.22239e-06
-6.43523e-06
-6.53453e-06
-6.49035e-06
8.16055e-08
-9.00085e-07
-1.73107e-06
-2.45546e-06
-3.09799e-06
-3.67923e-06
-4.2044e-06
-4.67626e-06
-5.09882e-06
-5.47033e-06
-5.78342e-06
-6.02464e-06
-6.17534e-06
-6.21854e-06
-6.1464e-06
1.12996e-07
-8.63574e-07
-1.68866e-06
-2.4068e-06
-3.04274e-06
-3.61411e-06
-4.12688e-06
-4.58231e-06
-4.98129e-06
-5.31994e-06
-5.59002e-06
-5.78078e-06
-5.88192e-06
-5.8895e-06
-5.80791e-06
1.60519e-07
-8.10618e-07
-1.62859e-06
-2.33851e-06
-2.96464e-06
-3.52253e-06
-4.01775e-06
-4.45066e-06
-4.82005e-06
-5.12162e-06
-5.34898e-06
-5.49644e-06
-5.56157e-06
-5.54887e-06
-5.4678e-06
2.32328e-07
-7.33454e-07
-1.54315e-06
-2.24261e-06
-2.85552e-06
-3.39577e-06
-3.86844e-06
-4.27363e-06
-4.60963e-06
-4.87347e-06
-5.06228e-06
-5.17565e-06
-5.21691e-06
-5.19476e-06
-5.11983e-06
3.37837e-07
-6.22878e-07
-1.42312e-06
-2.10976e-06
-2.70608e-06
-3.22475e-06
-3.67077e-06
-4.04491e-06
-4.34657e-06
-4.57534e-06
-4.73217e-06
-4.82085e-06
-4.84804e-06
-4.82387e-06
-4.75827e-06
4.87112e-07
-4.68796e-07
-1.25838e-06
-1.92983e-06
-2.50676e-06
-3.00093e-06
-3.41799e-06
-3.76037e-06
-4.02969e-06
-4.22849e-06
-4.36092e-06
-4.43345e-06
-4.45413e-06
-4.43296e-06
-4.37852e-06
6.91145e-07
-2.60148e-07
-1.03798e-06
-1.69282e-06
-2.2484e-06
-2.71691e-06
-3.10525e-06
-3.41807e-06
-3.65961e-06
-3.83506e-06
-3.95075e-06
-4.01446e-06
-4.03447e-06
-4.01981e-06
-3.97768e-06
9.6273e-07
1.57382e-08
-7.50497e-07
-1.3881e-06
-1.92217e-06
-2.36621e-06
-2.72888e-06
-3.01711e-06
-3.23746e-06
-3.39701e-06
-3.50332e-06
-3.56453e-06
-3.5885e-06
-3.58313e-06
-3.55437e-06
1.31711e-06
3.73453e-07
-3.82773e-07
-1.00447e-06
-1.51922e-06
-1.94266e-06
-2.2854e-06
-2.55624e-06
-2.76339e-06
-2.91503e-06
-3.01917e-06
-3.0837e-06
-3.11582e-06
-3.12235e-06
-3.10831e-06
1.77062e-06
8.28235e-07
7.89535e-08
-5.3055e-07
-1.03094e-06
-1.44045e-06
-1.77141e-06
-2.03382e-06
-2.23672e-06
-2.38878e-06
-2.49803e-06
-2.5719e-06
-2.61679e-06
-2.63855e-06
-2.64146e-06
2.33615e-06
1.39379e-06
6.47319e-07
4.35025e-08
-4.50655e-07
-8.55529e-07
-1.18479e-06
-1.44904e-06
-1.65757e-06
-1.81896e-06
-1.94098e-06
-2.03057e-06
-2.0936e-06
-2.13515e-06
-2.15891e-06
3.01775e-06
2.07668e-06
1.32857e-06
7.21944e-07
2.23435e-07
-1.88155e-07
-5.27116e-07
-8.04392e-07
-1.02924e-06
-1.20983e-06
-1.35339e-06
-1.46626e-06
-1.55381e-06
-1.62061e-06
-1.67012e-06
3.81106e-06
2.87443e-06
2.12002e-06
1.50144e-06
9.87394e-07
5.56954e-07
1.95998e-07
-1.06173e-07
-3.58468e-07
-5.68623e-07
-7.43296e-07
-8.88239e-07
-1.00855e-06
-1.10827e-06
-1.19025e-06
4.69734e-06
3.77114e-06
3.00773e-06
2.36955e-06
1.8299e-06
1.36958e-06
9.74992e-07
6.36273e-07
3.45212e-07
9.46279e-08
-1.2154e-07
-3.08526e-07
-4.70897e-07
-6.12659e-07
-7.37045e-07
5.56317e-06
4.6502e-06
3.87701e-06
3.21541e-06
2.64417e-06
2.14701e-06
1.7119e-06
1.32993e-06
9.937e-07
6.96601e-07
4.32863e-07
1.97741e-07
-1.26556e-08
-2.01524e-07
-3.71602e-07
6.27723e-06
5.38099e-06
4.60391e-06
3.92469e-06
3.32674e-06
2.7969e-06
2.32502e-06
1.90326e-06
1.52495e-06
1.18416e-06
8.75784e-07
5.95713e-07
3.40491e-07
1.07092e-07
-1.07293e-07
6.80624e-06
5.93156e-06
5.15773e-06
4.46927e-06
3.85331e-06
3.29923e-06
2.79869e-06
2.34495e-06
1.93207e-06
1.55474e-06
1.20842e-06
8.8947e-07
5.94854e-07
3.22056e-07
6.88528e-08
7.1881e-06
6.33764e-06
5.57312e-06
4.88279e-06
4.25659e-06
3.68614e-06
3.16465e-06
2.68629e-06
2.24579e-06
1.8386e-06
1.46098e-06
1.11e-06
7.83208e-07
4.78553e-07
1.94107e-07
7.45648e-06
6.63221e-06
5.8813e-06
5.19455e-06
4.56435e-06
3.98412e-06
3.44818e-06
2.95152e-06
2.48978e-06
2.05936e-06
1.6573e-06
1.28122e-06
9.29017e-07
5.98872e-07
2.89076e-07
7.64266e-06
6.84506e-06
6.10986e-06
5.43007e-06
4.80013e-06
4.21479e-06
3.66929e-06
3.15955e-06
2.68212e-06
2.23419e-06
1.81336e-06
1.41764e-06
1.04524e-06
6.94683e-07
3.6457e-07
7.77075e-06
6.99865e-06
6.27966e-06
5.60877e-06
4.98189e-06
4.39467e-06
3.84328e-06
3.32448e-06
2.83563e-06
2.3745e-06
1.93917e-06
1.52806e-06
1.13974e-06
7.73065e-07
4.26935e-07
7.85811e-06
7.10971e-06
6.40671e-06
5.7456e-06
5.12321e-06
4.53607e-06
3.98119e-06
3.45612e-06
2.95885e-06
2.48767e-06
2.0411e-06
1.61793e-06
1.21708e-06
8.37676e-07
4.78862e-07
7.91739e-06
7.19055e-06
6.50256e-06
5.8511e-06
5.23372e-06
4.64772e-06
4.09089e-06
3.56144e-06
3.05788e-06
2.57894e-06
2.12356e-06
1.69083e-06
1.27998e-06
8.90379e-07
5.21394e-07
7.95734e-06
7.24966e-06
6.57533e-06
5.93293e-06
5.32055e-06
4.73621e-06
4.17835e-06
3.64574e-06
3.13733e-06
2.65227e-06
2.1898e-06
1.74935e-06
1.33037e-06
9.32481e-07
5.55232e-07
7.98394e-06
7.29313e-06
6.63103e-06
5.99685e-06
5.38915e-06
4.8066e-06
4.24819e-06
3.71318e-06
3.20089e-06
2.71083e-06
2.24254e-06
1.7957e-06
1.37001e-06
9.65268e-07
5.81202e-07
8.00142e-06
7.32539e-06
6.67411e-06
6.04719e-06
5.44368e-06
4.86282e-06
4.3041e-06
3.76714e-06
3.25163e-06
2.75736e-06
2.28416e-06
1.83194e-06
1.40059e-06
9.90085e-07
6.00309e-07
8.01279e-06
7.34964e-06
6.70781e-06
6.08722e-06
5.48737e-06
4.90802e-06
4.34904e-06
3.8104e-06
3.2921e-06
2.79421e-06
2.31678e-06
1.85991e-06
1.42371e-06
1.00828e-06
6.13645e-07
8.02013e-06
7.3682e-06
6.73456e-06
6.11941e-06
5.52271e-06
4.94462e-06
4.38537e-06
3.84521e-06
3.32444e-06
2.82334e-06
2.34218e-06
1.88127e-06
1.44083e-06
1.02113e-06
6.22295e-07
8.02486e-06
7.38268e-06
6.75612e-06
6.14563e-06
5.5516e-06
4.97453e-06
4.41495e-06
3.87339e-06
3.35036e-06
2.84638e-06
2.3619e-06
1.89739e-06
1.45322e-06
1.02977e-06
6.27257e-07
8.02793e-06
7.39423e-06
6.77376e-06
6.16725e-06
5.57546e-06
4.99919e-06
4.43921e-06
3.89631e-06
3.37122e-06
2.86462e-06
2.37717e-06
1.90943e-06
1.46194e-06
1.03516e-06
6.29416e-07
8.02996e-06
7.4036e-06
6.78836e-06
6.18524e-06
5.59531e-06
5.01963e-06
4.45921e-06
3.91505e-06
3.38805e-06
2.87908e-06
2.38893e-06
1.91832e-06
1.46786e-06
1.03813e-06
6.2952e-07
8.03136e-06
7.41143e-06
6.80069e-06
6.20047e-06
5.61209e-06
5.03684e-06
4.47594e-06
3.93057e-06
3.40181e-06
2.89067e-06
2.39806e-06
1.92483e-06
1.47168e-06
1.03927e-06
6.28092e-07
8.03239e-06
7.4184e-06
6.81178e-06
6.21417e-06
5.62714e-06
5.05221e-06
4.49077e-06
3.94419e-06
3.41369e-06
2.90044e-06
2.40546e-06
1.9297e-06
1.47396e-06
1.039e-06
6.25366e-07
8.03315e-06
7.42457e-06
6.82178e-06
6.22661e-06
5.6408e-06
5.06606e-06
4.50402e-06
3.95618e-06
3.42396e-06
2.90865e-06
2.4114e-06
1.93327e-06
1.47516e-06
1.03788e-06
6.21975e-07
-1.01617e-05
-7.7273e-06
-6.25045e-06
-5.26845e-06
-4.49358e-06
-3.90791e-06
-3.45986e-06
-3.11214e-06
-2.83787e-06
-2.61408e-06
-2.42064e-06
-2.23904e-06
-2.05168e-06
-1.84214e-06
-1.59531e-06
-1.29751e-06
-9.45344e-07
-5.46137e-07
-1.27185e-07
2.51587e-07
5.0112e-07
5.09907e-07
2.14392e-07
-2.405e-07
-6.77981e-07
-9.91755e-07
-1.11645e-06
-1.01399e-06
-6.6158e-07
-4.25589e-08
8.53531e-07
2.02661e-06
3.45966e-06
5.12685e-06
6.98698e-06
8.98726e-06
1.1065e-05
1.31485e-05
1.5155e-05
1.69835e-05
1.84965e-05
1.95045e-05
1.96064e-05
1.84211e-05
1.46082e-05
-8.48944e-06
-7.19726e-06
-6.06744e-06
-5.18781e-06
-4.4586e-06
-3.88766e-06
-3.44444e-06
-3.09824e-06
-2.82456e-06
-2.60124e-06
-2.40828e-06
-2.22714e-06
-2.04014e-06
-1.83082e-06
-1.58303e-06
-1.28673e-06
-9.35352e-07
-5.37139e-07
-1.19087e-07
2.59774e-07
5.12277e-07
5.29092e-07
2.46576e-07
-1.93911e-07
-6.1899e-07
-9.23966e-07
-1.04379e-06
-9.40174e-07
-5.9023e-07
2.16822e-08
9.05074e-07
2.05817e-06
3.4611e-06
5.08563e-06
6.88737e-06
8.80917e-06
1.07821e-05
1.27246e-05
1.45386e-05
1.60956e-05
1.72063e-05
1.75753e-05
1.66384e-05
1.35966e-05
7.44113e-06
-7.61729e-06
-6.79083e-06
-5.87863e-06
-5.09273e-06
-4.41417e-06
-3.86366e-06
-3.42802e-06
-3.08446e-06
-2.81144e-06
-2.5882e-06
-2.39521e-06
-2.21395e-06
-2.0268e-06
-1.81731e-06
-1.56971e-06
-1.27336e-06
-9.22733e-07
-5.25807e-07
-1.09155e-07
2.69213e-07
5.24335e-07
5.49475e-07
2.81095e-07
-1.4333e-07
-5.54377e-07
-8.49314e-07
-9.63629e-07
-8.58823e-07
-5.12463e-07
9.00546e-08
9.57e-07
2.08442e-06
3.44878e-06
5.01885e-06
6.74621e-06
8.56826e-06
1.04086e-05
1.21746e-05
1.37522e-05
1.49903e-05
1.56695e-05
1.54656e-05
1.3878e-05
1.03768e-05
4.86953e-06
-7.06887e-06
-6.46199e-06
-5.71885e-06
-5.00754e-06
-4.37713e-06
-3.84784e-06
-3.41965e-06
-3.07746e-06
-2.80342e-06
-2.57854e-06
-2.38397e-06
-2.20133e-06
-2.01304e-06
-1.8027e-06
-1.55475e-06
-1.2583e-06
-9.08453e-07
-5.13073e-07
-9.82058e-08
2.79264e-07
5.36805e-07
5.7058e-07
3.17335e-07
-8.95749e-08
-4.84995e-07
-7.68371e-07
-8.75922e-07
-7.69008e-07
-4.26112e-07
1.66129e-07
1.01432e-06
2.11185e-06
3.43036e-06
4.93495e-06
6.57234e-06
8.27375e-06
9.95489e-06
1.15128e-05
1.28216e-05
1.37194e-05
1.39899e-05
1.33531e-05
1.14745e-05
8.11577e-06
3.5372e-06
-6.64488e-06
-6.17353e-06
-5.56395e-06
-4.93859e-06
-4.35214e-06
-3.84404e-06
-3.42265e-06
-3.07987e-06
-2.80225e-06
-2.57308e-06
-2.37455e-06
-2.18854e-06
-1.99762e-06
-1.78539e-06
-1.53641e-06
-1.23987e-06
-8.91102e-07
-4.97954e-07
-8.57691e-08
2.89872e-07
5.49242e-07
5.91847e-07
3.54914e-07
-3.28072e-08
-4.10934e-07
-6.814e-07
-7.81429e-07
-6.72449e-07
-3.34212e-07
2.45014e-07
1.06969e-06
2.13068e-06
3.3934e-06
4.81915e-06
6.34955e-06
7.90985e-06
9.40938e-06
1.0737e-05
1.17645e-05
1.23344e-05
1.22613e-05
1.13444e-05
9.41135e-06
6.42795e-06
2.68735e-06
-6.28822e-06
-5.91035e-06
-5.40698e-06
-4.86692e-06
-4.3349e-06
-3.85087e-06
-3.43704e-06
-3.09263e-06
-2.80921e-06
-2.57298e-06
-2.36774e-06
-2.17586e-06
-1.98035e-06
-1.76485e-06
-1.51403e-06
-1.21718e-06
-8.69921e-07
-4.79942e-07
-7.16839e-08
3.00796e-07
5.61035e-07
6.12448e-07
3.93003e-07
2.62276e-08
-3.32879e-07
-5.89127e-07
-6.81096e-07
-5.70556e-07
-2.38873e-07
3.22711e-07
1.11821e-06
2.13423e-06
3.32934e-06
4.66137e-06
6.06718e-06
7.46714e-06
8.76814e-06
9.85342e-06
1.06042e-05
1.08817e-05
1.05461e-05
9.47906e-06
7.62649e-06
5.06356e-06
2.05728e-06
-5.96227e-06
-5.65566e-06
-5.24407e-06
-4.77679e-06
-4.30771e-06
-3.85802e-06
-3.45676e-06
-3.11265e-06
-2.82299e-06
-2.5779e-06
-2.36367e-06
-2.16347e-06
-1.96128e-06
-1.74094e-06
-1.48732e-06
-1.18994e-06
-8.4469e-07
-4.59007e-07
-5.62024e-08
3.11415e-07
5.71214e-07
6.31149e-07
4.30267e-07
8.61661e-08
-2.52201e-07
-4.92965e-07
-5.76478e-07
-4.64978e-07
-1.42778e-07
3.94085e-07
1.15682e-06
2.11721e-06
3.2314e-06
4.45429e-06
5.71873e-06
6.94181e-06
8.02742e-06
8.87577e-06
9.37e-06
9.40347e-06
8.88529e-06
7.76408e-06
6.05614e-06
3.87288e-06
1.42861e-06
-5.64561e-06
-5.39508e-06
-5.06075e-06
-4.66837e-06
-4.25351e-06
-3.8478e-06
-3.46841e-06
-3.13107e-06
-2.83764e-06
-2.58427e-06
-2.36028e-06
-2.15e-06
-1.93962e-06
-1.71309e-06
-1.45584e-06
-1.15786e-06
-8.15406e-07
-4.35484e-07
-3.99419e-08
3.2064e-07
5.78272e-07
6.46118e-07
4.6473e-07
1.44939e-07
-1.71067e-07
-3.95214e-07
-4.70172e-07
-3.58895e-07
-5.36165e-08
4.5808e-07
1.18064e-06
2.07204e-06
3.0915e-06
4.19029e-06
5.29884e-06
6.33459e-06
7.207e-06
7.82339e-06
8.09112e-06
7.93371e-06
7.30202e-06
6.18995e-06
4.64733e-06
2.78488e-06
7.64028e-07
-5.32713e-06
-5.12137e-06
-4.84999e-06
-4.52538e-06
-4.16951e-06
-3.80723e-06
-3.45643e-06
-3.13438e-06
-2.84361e-06
-2.58598e-06
-2.35272e-06
-2.13188e-06
-1.9132e-06
-1.67993e-06
-1.41879e-06
-1.1206e-06
-7.82107e-07
-4.10179e-07
-2.42211e-08
3.26722e-07
5.7997e-07
6.54726e-07
4.93575e-07
1.99578e-07
-9.26641e-08
-2.99382e-07
-3.65839e-07
-2.60672e-07
2.65025e-08
5.12094e-07
1.1791e-06
1.98854e-06
2.90029e-06
3.86154e-06
4.80318e-06
5.64638e-06
6.30999e-06
6.71507e-06
6.79287e-06
6.49522e-06
5.80393e-06
4.7385e-06
3.35896e-06
1.76099e-06
6.28437e-08
-4.99962e-06
-4.83027e-06
-4.60978e-06
-4.34329e-06
-4.0434e-06
-3.72728e-06
-3.4112e-06
-3.1088e-06
-2.82956e-06
-2.57342e-06
-2.33327e-06
-2.10387e-06
-1.8787e-06
-1.63921e-06
-1.3751e-06
-1.07816e-06
-7.45374e-07
-3.83371e-07
-1.17232e-08
3.26947e-07
5.73135e-07
6.53324e-07
5.12894e-07
2.45949e-07
-2.1481e-08
-2.10543e-07
-2.70695e-07
-1.74916e-07
9.61266e-08
5.40747e-07
1.13914e-06
1.85589e-06
2.64794e-06
3.46083e-06
4.22872e-06
4.88135e-06
5.34859e-06
5.56861e-06
5.49426e-06
5.10012e-06
4.38783e-06
3.38815e-06
2.15879e-06
7.76831e-07
-6.71887e-07
-4.65729e-06
-4.51837e-06
-4.33941e-06
-4.12192e-06
-3.87249e-06
-3.60225e-06
-3.32369e-06
-3.04818e-06
-2.7839e-06
-2.53336e-06
-2.2941e-06
-2.06226e-06
-1.83109e-06
-1.58816e-06
-1.32376e-06
-1.03079e-06
-7.06878e-07
-3.58064e-07
-4.82853e-09
3.17752e-07
5.53511e-07
6.37063e-07
5.17444e-07
2.78486e-07
3.64162e-08
-1.35257e-07
-1.90922e-07
-1.04533e-07
1.3858e-07
5.31497e-07
1.05151e-06
1.66417e-06
2.32571e-06
2.98281e-06
3.57664e-06
4.04626e-06
4.33555e-06
4.39927e-06
4.20806e-06
3.75244e-06
3.04472e-06
2.11796e-06
1.02205e-06
-1.83262e-07
-1.43571e-06
-4.29567e-06
-4.1829e-06
-4.03851e-06
-3.86233e-06
-3.65732e-06
-3.43013e-06
-3.1894e-06
-2.94379e-06
-2.7001e-06
-2.46195e-06
-2.22945e-06
-1.99999e-06
-1.76817e-06
-1.52582e-06
-1.26504e-06
-9.79911e-07
-6.69164e-07
-3.3907e-07
-6.98406e-09
2.94349e-07
5.15641e-07
5.99812e-07
5.00458e-07
2.89954e-07
7.31097e-08
-8.24846e-08
-1.36284e-07
-6.43389e-08
1.42261e-07
4.73069e-07
9.0481e-07
1.40331e-06
1.92615e-06
2.4257e-06
2.85023e-06
3.15042e-06
3.28395e-06
3.22005e-06
2.94262e-06
2.45192e-06
1.76446e-06
9.10732e-07
-6.86649e-08
-1.1285e-06
-2.22349e-06
-3.91209e-06
-3.82242e-06
-3.70752e-06
-3.5665e-06
-3.40028e-06
-3.21246e-06
-3.00853e-06
-2.79456e-06
-2.57586e-06
-2.35597e-06
-2.13608e-06
-1.91494e-06
-1.68905e-06
-1.45297e-06
-1.2011e-06
-9.29145e-07
-6.36755e-07
-3.30195e-07
-2.47466e-08
2.50296e-07
4.52792e-07
5.34195e-07
4.53586e-07
2.71209e-07
7.87908e-08
-6.29654e-08
-1.19337e-07
-6.83575e-08
9.35939e-08
3.53164e-07
6.87429e-07
1.06499e-06
1.44737e-06
1.79236e-06
2.05799e-06
2.20658e-06
2.20819e-06
2.04342e-06
1.70506e-06
1.19833e-06
5.39915e-07
-2.44384e-07
-1.12284e-06
-2.06175e-06
-3.02811e-06
-3.50567e-06
-3.43719e-06
-3.34829e-06
-3.23794e-06
-3.10597e-06
-2.95406e-06
-2.7854e-06
-2.60393e-06
-2.41345e-06
-2.21685e-06
-2.01563e-06
-1.80951e-06
-1.59663e-06
-1.37366e-06
-1.13716e-06
-8.84585e-07
-6.16446e-07
-3.39174e-07
-6.59997e-08
1.77782e-07
3.56925e-07
4.31643e-07
3.6706e-07
2.11113e-07
4.1265e-08
-8.9135e-08
-1.54218e-07
-1.31759e-07
-2.24343e-08
1.60326e-07
3.92844e-07
6.47322e-07
8.91479e-07
1.09106e-06
1.21361e-06
1.23179e-06
1.12563e-06
8.83966e-07
5.04895e-07
-4.58868e-09
-6.29699e-07
-1.34988e-06
-2.14109e-06
-2.97852e-06
-3.83816e-06
-3.07692e-06
-3.02901e-06
-2.96436e-06
-2.88199e-06
-2.78127e-06
-2.66275e-06
-2.52813e-06
-2.37976e-06
-2.22012e-06
-2.0513e-06
-1.87469e-06
-1.69055e-06
-1.49822e-06
-1.29599e-06
-1.0822e-06
-8.55948e-07
-6.18535e-07
-3.7643e-07
-1.4087e-07
6.70236e-08
2.18424e-07
2.82231e-07
2.29931e-07
9.69248e-08
-5.37836e-08
-1.81449e-07
-2.55163e-07
-2.66995e-07
-2.15422e-07
-1.13538e-07
1.72645e-08
1.52929e-07
2.68062e-07
3.37151e-07
3.36665e-07
2.47597e-07
5.72351e-08
-2.40253e-07
-6.4398e-07
-1.14699e-06
-1.73723e-06
-2.39908e-06
-3.1148e-06
-3.86636e-06
-4.63633e-06
-2.62886e-06
-2.60222e-06
-2.56173e-06
-2.50659e-06
-2.43597e-06
-2.34984e-06
-2.24896e-06
-2.13466e-06
-2.00844e-06
-1.87166e-06
-1.72541e-06
-1.5702e-06
-1.40609e-06
-1.2326e-06
-1.04927e-06
-8.56642e-07
-6.56547e-07
-4.55226e-07
-2.62222e-07
-9.41834e-08
2.58098e-08
7.44753e-08
3.02331e-08
-8.46421e-08
-2.20034e-07
-3.42727e-07
-4.34043e-07
-4.84902e-07
-4.93968e-07
-4.71705e-07
-4.36417e-07
-4.08144e-07
-4.05906e-07
-4.47344e-07
-5.48213e-07
-7.2094e-07
-9.73344e-07
-1.30823e-06
-1.72366e-06
-2.2136e-06
-2.7688e-06
-3.3778e-06
-4.02785e-06
-4.70603e-06
-5.39977e-06
-2.16835e-06
-2.1655e-06
-2.1508e-06
-2.12384e-06
-2.08401e-06
-2.031e-06
-1.96501e-06
-1.88663e-06
-1.79677e-06
-1.69628e-06
-1.58597e-06
-1.46639e-06
-1.33794e-06
-1.20093e-06
-1.05565e-06
-9.03556e-07
-7.4686e-07
-5.91059e-07
-4.44516e-07
-3.19541e-07
-2.33981e-07
-2.04987e-07
-2.43551e-07
-3.48175e-07
-4.70705e-07
-5.93737e-07
-7.0325e-07
-7.91935e-07
-8.58286e-07
-9.08936e-07
-9.57401e-07
-1.01924e-06
-1.10846e-06
-1.23677e-06
-1.41386e-06
-1.64722e-06
-1.94145e-06
-2.29779e-06
-2.71425e-06
-3.18614e-06
-3.70665e-06
-4.2676e-06
-4.86002e-06
-5.47477e-06
-6.1029e-06
-1.70636e-06
-1.7319e-06
-1.74704e-06
-1.75135e-06
-1.74468e-06
-1.72708e-06
-1.69854e-06
-1.65908e-06
-1.6091e-06
-1.54922e-06
-1.4801e-06
-1.40229e-06
-1.31621e-06
-1.22254e-06
-1.122e-06
-1.01629e-06
-9.07802e-07
-8.00805e-07
-7.02239e-07
-6.20989e-07
-5.72076e-07
-5.68379e-07
-6.19553e-07
-7.02773e-07
-8.17191e-07
-9.4279e-07
-1.06808e-06
-1.18853e-06
-1.30255e-06
-1.41295e-06
-1.52794e-06
-1.65859e-06
-1.81507e-06
-2.00499e-06
-2.23386e-06
-2.50582e-06
-2.82342e-06
-3.18721e-06
-3.59559e-06
-4.04512e-06
-4.53102e-06
-5.0476e-06
-5.58865e-06
-6.14782e-06
-6.71876e-06
-1.25914e-06
-1.31858e-06
-1.3691e-06
-1.41008e-06
-1.44137e-06
-1.46337e-06
-1.4762e-06
-1.47965e-06
-1.47373e-06
-1.45892e-06
-1.4358e-06
-1.40487e-06
-1.36652e-06
-1.32145e-06
-1.27051e-06
-1.21524e-06
-1.15775e-06
-1.10133e-06
-1.05083e-06
-1.01142e-06
-9.95475e-07
-1.01252e-06
-1.06622e-06
-1.14921e-06
-1.25936e-06
-1.38583e-06
-1.52161e-06
-1.66405e-06
-1.81151e-06
-1.96383e-06
-2.12453e-06
-2.30055e-06
-2.49922e-06
-2.72593e-06
-2.98379e-06
-3.27445e-06
-3.59897e-06
-3.95767e-06
-4.34966e-06
-4.77264e-06
-5.22329e-06
-5.69768e-06
-6.19162e-06
-6.70077e-06
-7.22073e-06
-8.48689e-07
-9.50684e-07
-1.0435e-06
-1.12745e-06
-1.20303e-06
-1.27046e-06
-1.32959e-06
-1.38022e-06
-1.42243e-06
-1.4566e-06
-1.48315e-06
-1.50243e-06
-1.51478e-06
-1.52071e-06
-1.52106e-06
-1.51688e-06
-1.50995e-06
-1.50236e-06
-1.49759e-06
-1.50011e-06
-1.51261e-06
-1.54222e-06
-1.59854e-06
-1.6815e-06
-1.78618e-06
-1.90854e-06
-2.04544e-06
-2.19521e-06
-2.35704e-06
-2.53017e-06
-2.71507e-06
-2.91438e-06
-3.13212e-06
-3.37256e-06
-3.63869e-06
-3.93133e-06
-4.24983e-06
-4.59366e-06
-4.96254e-06
-5.3555e-06
-5.77043e-06
-6.20456e-06
-6.65499e-06
-7.11882e-06
-7.59311e-06
-5.2791e-07
-6.74588e-07
-8.12774e-07
-9.42695e-07
-1.06433e-06
-1.17759e-06
-1.28256e-06
-1.37936e-06
-1.4681e-06
-1.54893e-06
-1.62204e-06
-1.68761e-06
-1.74591e-06
-1.79721e-06
-1.84209e-06
-1.88123e-06
-1.91547e-06
-1.94667e-06
-1.97683e-06
-2.00637e-06
-2.03914e-06
-2.08368e-06
-2.14792e-06
-2.22936e-06
-2.32676e-06
-2.441e-06
-2.57105e-06
-2.7152e-06
-2.8726e-06
-3.04339e-06
-3.22857e-06
-3.42964e-06
-3.64838e-06
-3.88585e-06
-4.1435e-06
-4.4233e-06
-4.72519e-06
-5.04786e-06
-5.39068e-06
-5.75335e-06
-6.13475e-06
-6.53294e-06
-6.94588e-06
-7.37164e-06
-7.80827e-06
-3.07722e-07
-4.98207e-07
-6.79411e-07
-8.51262e-07
-1.01389e-06
-1.16753e-06
-1.31239e-06
-1.44853e-06
-1.57593e-06
-1.69458e-06
-1.80459e-06
-1.90607e-06
-1.99915e-06
-2.08401e-06
-2.16094e-06
-2.23033e-06
-2.29321e-06
-2.34958e-06
-2.40036e-06
-2.44952e-06
-2.50003e-06
-2.55729e-06
-2.62431e-06
-2.7014e-06
-2.79031e-06
-2.8932e-06
-3.01045e-06
-3.14183e-06
-3.28733e-06
-3.44695e-06
-3.62091e-06
-3.81045e-06
-4.01736e-06
-4.2427e-06
-4.48672e-06
-4.74936e-06
-5.03055e-06
-5.33022e-06
-5.64831e-06
-5.98438e-06
-6.33748e-06
-6.70632e-06
-7.08958e-06
-7.48588e-06
-7.89379e-06
-1.6921e-07
-3.9593e-07
-6.12115e-07
-8.17937e-07
-1.01367e-06
-1.19949e-06
-1.37545e-06
-1.5415e-06
-1.69758e-06
-1.84367e-06
-1.97981e-06
-2.10608e-06
-2.22258e-06
-2.32939e-06
-2.42664e-06
-2.51472e-06
-2.59427e-06
-2.66553e-06
-2.7296e-06
-2.78967e-06
-2.84839e-06
-2.90914e-06
-2.97449e-06
-3.04604e-06
-3.12687e-06
-3.21956e-06
-3.32488e-06
-3.44324e-06
-3.57542e-06
-3.72244e-06
-3.88519e-06
-4.06421e-06
-4.25977e-06
-4.47197e-06
-4.7011e-06
-4.94769e-06
-5.21225e-06
-5.49478e-06
-5.79488e-06
-6.11205e-06
-6.44564e-06
-6.79486e-06
-7.15872e-06
-7.53615e-06
-7.92606e-06
-7.4308e-08
-3.30388e-07
-5.74971e-07
-8.08171e-07
-1.03011e-06
-1.24083e-06
-1.44028e-06
-1.62841e-06
-1.80516e-06
-1.97053e-06
-2.12456e-06
-2.26731e-06
-2.39888e-06
-2.5194e-06
-2.6291e-06
-2.72821e-06
-2.81707e-06
-2.89664e-06
-2.96863e-06
-3.03469e-06
-3.0969e-06
-3.15888e-06
-3.2231e-06
-3.29134e-06
-3.36646e-06
-3.45116e-06
-3.54726e-06
-3.65616e-06
-3.77902e-06
-3.91663e-06
-4.06934e-06
-4.23738e-06
-4.42122e-06
-4.62153e-06
-4.83893e-06
-5.07379e-06
-5.32621e-06
-5.59605e-06
-5.88307e-06
-6.18697e-06
-6.50733e-06
-6.84356e-06
-7.19491e-06
-7.56053e-06
-7.93956e-06
-4.10943e-09
-2.83972e-07
-5.51172e-07
-8.05709e-07
-1.04762e-06
-1.2769e-06
-1.4935e-06
-1.69738e-06
-1.88854e-06
-2.06701e-06
-2.23287e-06
-2.38619e-06
-2.52711e-06
-2.65585e-06
-2.77276e-06
-2.87818e-06
-2.97273e-06
-3.05742e-06
-3.13357e-06
-3.20271e-06
-3.26721e-06
-3.33044e-06
-3.39431e-06
-3.46042e-06
-3.53183e-06
-3.61169e-06
-3.70215e-06
-3.80462e-06
-3.92015e-06
-4.0496e-06
-4.19372e-06
-4.35319e-06
-4.52868e-06
-4.72072e-06
-4.9297e-06
-5.15586e-06
-5.39932e-06
-5.66013e-06
-5.93824e-06
-6.23346e-06
-6.54547e-06
-6.87381e-06
-7.21791e-06
-7.57709e-06
-7.95062e-06
5.16927e-08
-2.46779e-07
-5.31376e-07
-8.02065e-07
-1.05886e-06
-1.30175e-06
-1.53071e-06
-1.74571e-06
-1.94679e-06
-2.13401e-06
-2.30752e-06
-2.46752e-06
-2.6142e-06
-2.74788e-06
-2.86889e-06
-2.97799e-06
-3.07585e-06
-3.16338e-06
-3.24194e-06
-3.31322e-06
-3.37961e-06
-3.44403e-06
-3.508e-06
-3.5733e-06
-3.64315e-06
-3.72049e-06
-3.80738e-06
-3.90535e-06
-4.01575e-06
-4.13972e-06
-4.27819e-06
-4.43191e-06
-4.6015e-06
-4.78751e-06
-4.99036e-06
-5.21041e-06
-5.44789e-06
-5.70295e-06
-5.97558e-06
-6.26569e-06
-6.57306e-06
-6.89732e-06
-7.23802e-06
-7.59459e-06
-7.96643e-06
9.8615e-08
-2.1431e-07
-5.1227e-07
-7.95223e-07
-1.06316e-06
-1.31607e-06
-1.55391e-06
-1.77672e-06
-1.98457e-06
-2.17762e-06
-2.35604e-06
-2.52011e-06
-2.67025e-06
-2.80705e-06
-2.93024e-06
-3.04134e-06
-3.14099e-06
-3.23021e-06
-3.31043e-06
-3.38335e-06
-3.45127e-06
-3.51685e-06
-3.58145e-06
-3.647e-06
-3.71652e-06
-3.7927e-06
-3.87761e-06
-3.97297e-06
-4.08025e-06
-4.20071e-06
-4.33536e-06
-4.48505e-06
-4.65052e-06
-4.83239e-06
-5.03118e-06
-5.24732e-06
-5.48111e-06
-5.73274e-06
-6.00232e-06
-6.28982e-06
-6.59508e-06
-6.91785e-06
-7.25776e-06
-7.61432e-06
-7.987e-06
1.38346e-07
-1.85895e-07
-4.94204e-07
-7.86524e-07
-1.06283e-06
-1.32311e-06
-1.56735e-06
-1.79562e-06
-2.00807e-06
-2.20492e-06
-2.38645e-06
-2.55299e-06
-2.70497e-06
-2.8428e-06
-2.96778e-06
-3.08e-06
-3.18066e-06
-3.27092e-06
-3.35227e-06
-3.42639e-06
-3.49556e-06
-3.56224e-06
-3.62771e-06
-3.69394e-06
-3.76376e-06
-3.83961e-06
-3.92356e-06
-4.01742e-06
-4.12276e-06
-4.24091e-06
-4.373e-06
-4.51998e-06
-4.68269e-06
-4.86184e-06
-5.05802e-06
-5.27174e-06
-5.50337e-06
-5.75318e-06
-6.02135e-06
-6.30791e-06
-6.61279e-06
-6.93579e-06
-7.27662e-06
-7.63484e-06
-8.00998e-06
1.71138e-07
-1.62048e-07
-4.78435e-07
-7.77963e-07
-1.0606e-06
-1.32632e-06
-1.57517e-06
-1.80727e-06
-2.02282e-06
-2.22211e-06
-2.4055e-06
-2.57343e-06
-2.72644e-06
-2.86518e-06
-2.99039e-06
-3.10301e-06
-3.20412e-06
-3.29491e-06
-3.37693e-06
-3.45187e-06
-3.52197e-06
-3.58954e-06
-3.65579e-06
-3.72278e-06
-3.79307e-06
-3.86892e-06
-3.95238e-06
-4.04534e-06
-4.14943e-06
-4.26605e-06
-4.3964e-06
-4.54154e-06
-4.70238e-06
-4.87972e-06
-5.07424e-06
-5.28652e-06
-5.517e-06
-5.76603e-06
-6.03385e-06
-6.32054e-06
-6.62611e-06
-6.95042e-06
-7.29321e-06
-7.6541e-06
-8.03265e-06
1.97105e-07
-1.43236e-07
-4.66005e-07
-7.71138e-07
-1.05859e-06
-1.32837e-06
-1.58055e-06
-1.8153e-06
-2.03289e-06
-2.23367e-06
-2.41807e-06
-2.58662e-06
-2.73997e-06
-2.87905e-06
-3.00393e-06
-3.11651e-06
-3.21764e-06
-3.30856e-06
-3.39086e-06
-3.46623e-06
-3.53691e-06
-3.60503e-06
-3.67181e-06
-3.73938e-06
-3.81004e-06
-3.88591e-06
-3.96907e-06
-4.06143e-06
-4.16464e-06
-4.28014e-06
-4.40923e-06
-4.55302e-06
-4.71253e-06
-4.88863e-06
-5.08207e-06
-5.29351e-06
-5.52346e-06
-5.77233e-06
-6.04042e-06
-6.32789e-06
-6.63478e-06
-6.961e-06
-7.30634e-06
-7.67046e-06
-8.05292e-06
2.16624e-07
-1.29524e-07
-4.57405e-07
-7.66949e-07
-1.05811e-06
-1.33092e-06
-1.5855e-06
-1.82206e-06
-2.04093e-06
-2.24252e-06
-2.42731e-06
-2.59591e-06
-2.74899e-06
-2.88703e-06
-3.01229e-06
-3.12454e-06
-3.22533e-06
-3.31604e-06
-3.39828e-06
-3.47373e-06
-3.54462e-06
-3.6129e-06
-3.67991e-06
-3.74777e-06
-3.81857e-06
-3.89437e-06
-3.97724e-06
-4.06907e-06
-4.17153e-06
-4.28612e-06
-4.41418e-06
-4.55691e-06
-4.71538e-06
-4.89055e-06
-5.08325e-06
-5.29418e-06
-5.52395e-06
-5.77301e-06
-6.04172e-06
-6.3303e-06
-6.63883e-06
-6.96727e-06
-7.31544e-06
-7.68303e-06
-8.06962e-06
2.30359e-07
-1.20576e-07
-4.52613e-07
-7.65673e-07
-1.05972e-06
-1.33481e-06
-1.59111e-06
-1.82888e-06
-2.04849e-06
-2.25039e-06
-2.43516e-06
-2.60345e-06
-2.75602e-06
-2.89372e-06
-3.01807e-06
-3.12963e-06
-3.22982e-06
-3.32004e-06
-3.40192e-06
-3.47714e-06
-3.54789e-06
-3.61601e-06
-3.68291e-06
-3.75076e-06
-3.82147e-06
-3.89704e-06
-3.97951e-06
-4.07078e-06
-4.17251e-06
-4.28626e-06
-4.41339e-06
-4.55518e-06
-4.71277e-06
-4.88718e-06
-5.0793e-06
-5.2899e-06
-5.51965e-06
-5.76906e-06
-6.03856e-06
-6.32839e-06
-6.63869e-06
-6.96945e-06
-7.32053e-06
-7.69163e-06
-8.08234e-06
2.39152e-07
-1.15793e-07
-4.51259e-07
-7.67165e-07
-1.06349e-06
-1.34032e-06
-1.59785e-06
-1.83638e-06
-2.05634e-06
-2.25823e-06
-2.44268e-06
-2.61043e-06
-2.7623e-06
-2.89927e-06
-3.02265e-06
-3.13333e-06
-3.23272e-06
-3.32224e-06
-3.40353e-06
-3.47826e-06
-3.54859e-06
-3.61627e-06
-3.68279e-06
-3.75036e-06
-3.82074e-06
-3.89589e-06
-3.97785e-06
-4.06848e-06
-4.16945e-06
-4.28234e-06
-4.40858e-06
-4.54949e-06
-4.70625e-06
-4.87996e-06
-5.07157e-06
-5.28191e-06
-5.51171e-06
-5.76153e-06
-6.03184e-06
-6.32294e-06
-6.63501e-06
-6.96807e-06
-7.322e-06
-7.69652e-06
-8.09123e-06
2.439e-07
-1.14453e-07
-4.52796e-07
-7.71044e-07
-1.06919e-06
-1.34735e-06
-1.60576e-06
-1.84476e-06
-2.0648e-06
-2.26645e-06
-2.4504e-06
-2.61744e-06
-2.76846e-06
-2.90451e-06
-3.02682e-06
-3.13652e-06
-3.23498e-06
-3.32365e-06
-3.40418e-06
-3.47824e-06
-3.54794e-06
-3.61496e-06
-3.68087e-06
-3.74793e-06
-3.81779e-06
-3.89238e-06
-3.97371e-06
-4.0636e-06
-4.16376e-06
-4.27577e-06
-4.40111e-06
-4.54113e-06
-4.6971e-06
-4.87013e-06
-5.06125e-06
-5.27134e-06
-5.50118e-06
-5.75139e-06
-6.02248e-06
-6.31481e-06
-6.62856e-06
-6.96381e-06
-7.32045e-06
-7.69821e-06
-8.09671e-06
2.4547e-07
-1.15824e-07
-4.56614e-07
-7.76819e-07
-1.07645e-06
-1.35566e-06
-1.61469e-06
-1.85393e-06
-2.07389e-06
-2.27516e-06
-2.45849e-06
-2.62471e-06
-2.7748e-06
-2.90984e-06
-3.03107e-06
-3.1397e-06
-3.23712e-06
-3.32485e-06
-3.40451e-06
-3.47777e-06
-3.54669e-06
-3.61289e-06
-3.67804e-06
-3.74442e-06
-3.81361e-06
-3.88753e-06
-3.96812e-06
-4.05721e-06
-4.15649e-06
-4.2676e-06
-4.39202e-06
-4.53116e-06
-4.68631e-06
-4.85867e-06
-5.04929e-06
-5.25912e-06
-5.48897e-06
-5.73952e-06
-6.01132e-06
-6.30476e-06
-6.62008e-06
-6.95736e-06
-7.31651e-06
-7.6973e-06
-8.09932e-06
2.44651e-07
-1.19202e-07
-4.62099e-07
-7.83965e-07
-1.08483e-06
-1.36486e-06
-1.62434e-06
-1.86369e-06
-2.08344e-06
-2.28425e-06
-2.4669e-06
-2.63227e-06
-2.78138e-06
-2.91537e-06
-3.0355e-06
-3.14305e-06
-3.23939e-06
-3.32614e-06
-3.40486e-06
-3.47723e-06
-3.54529e-06
-3.61059e-06
-3.67486e-06
-3.74044e-06
-3.80888e-06
-3.88203e-06
-3.96182e-06
-4.05006e-06
-4.14845e-06
-4.25862e-06
-4.38211e-06
-4.52037e-06
-4.67472e-06
-4.84639e-06
-5.03649e-06
-5.24602e-06
-5.47584e-06
-5.72667e-06
-5.99909e-06
-6.29353e-06
-6.61026e-06
-6.94938e-06
-7.31084e-06
-7.69439e-06
-8.09965e-06
2.42132e-07
-1.23961e-07
-4.68684e-07
-7.91969e-07
-1.09386e-06
-1.37456e-06
-1.63436e-06
-1.87371e-06
-2.0932e-06
-2.2935e-06
-2.47545e-06
-2.63996e-06
-2.78811e-06
-2.92106e-06
-3.04011e-06
-3.14656e-06
-3.24187e-06
-3.32761e-06
-3.40537e-06
-3.47683e-06
-3.54399e-06
-3.60833e-06
-3.67167e-06
-3.7364e-06
-3.80403e-06
-3.87638e-06
-3.95534e-06
-4.04269e-06
-4.14017e-06
-4.24942e-06
-4.372e-06
-4.50938e-06
-4.66292e-06
-4.83391e-06
-5.02349e-06
-5.2327e-06
-5.46244e-06
-5.71347e-06
-5.98641e-06
-6.28173e-06
-6.59971e-06
-6.94049e-06
-7.30402e-06
-7.69007e-06
-8.09826e-06
2.38361e-07
-1.29717e-07
-4.76042e-07
-8.00558e-07
-1.10333e-06
-1.38455e-06
-1.64458e-06
-1.88388e-06
-2.10305e-06
-2.30283e-06
-2.48407e-06
-2.64773e-06
-2.79492e-06
-2.92686e-06
-3.04484e-06
-3.15022e-06
-3.24456e-06
-3.32929e-06
-3.4061e-06
-3.47664e-06
-3.54287e-06
-3.60624e-06
-3.66861e-06
-3.73246e-06
-3.79925e-06
-3.87077e-06
-3.94887e-06
-4.03535e-06
-4.13192e-06
-4.24025e-06
-4.36192e-06
-4.49843e-06
-4.65119e-06
-4.8215e-06
-5.01055e-06
-5.21941e-06
-5.44903e-06
-5.7002e-06
-5.97358e-06
-6.26965e-06
-6.58874e-06
-6.931e-06