/*--------------------------------*- C++ -*----------------------------------*\
| =========                 |                                                 |
| \\      /  F ield         | OpenFOAM: The Open Source CFD Toolbox           |
|  \\    /   O peration     | Version:  2312                                  |
|   \\  /    A nd           | Website:  www.openfoam.com                      |
|    \\/     M anipulation  |                                                 |
\*---------------------------------------------------------------------------*/
FoamFile
{
    version     2.0;
    format      ascii;
    arch        "LSB;label=32;scalar=64";
    class       volScalarField;
    location    "51";
    object      p;
}
// * * * * * * * * * * * * * * * * * * * * * * * * * * * * * * * * * * * * * //

dimensions      [0 2 -2 0 0 0 0];

internalField   nonuniform List<scalar> 
4800
(
2.7859e-14
-1.17211e-06
-2.20526e-06
-3.13063e-06
-3.96197e-06
-4.71828e-06
-5.40317e-06
-6.02141e-06
-6.58263e-06
-7.0942e-06
-7.56155e-06
-7.98631e-06
-8.35971e-06
-8.92625e-06
-1.06912e-05
1.03623e-08
-1.15948e-06
-2.19028e-06
-3.11408e-06
-3.94474e-06
-4.7016e-06
-5.38822e-06
-6.00986e-06
-6.57687e-06
-7.09863e-06
-7.58559e-06
-8.0534e-06
-8.51572e-06
-9.0816e-06
-1.00045e-05
2.17518e-08
-1.1455e-06
-2.17399e-06
-3.09617e-06
-3.92505e-06
-4.6814e-06
-5.36909e-06
-5.9931e-06
-6.56443e-06
-7.09332e-06
-7.59124e-06
-8.07409e-06
-8.54964e-06
-9.02191e-06
-9.45943e-06
3.41672e-08
-1.12968e-06
-2.15512e-06
-3.07487e-06
-3.90198e-06
-4.6561e-06
-5.34393e-06
-5.96863e-06
-6.54086e-06
-7.07025e-06
-7.56512e-06
-8.03174e-06
-8.4602e-06
-8.81374e-06
-9.01365e-06
4.90163e-08
-1.11035e-06
-2.13171e-06
-3.04778e-06
-3.87333e-06
-4.62268e-06
-5.30858e-06
-5.93155e-06
-6.49997e-06
-7.0214e-06
-7.49868e-06
-7.92738e-06
-8.28564e-06
-8.53012e-06
-8.60009e-06
6.79584e-08
-1.08574e-06
-2.10178e-06
-3.01274e-06
-3.83494e-06
-4.57887e-06
-5.25876e-06
-5.87584e-06
-6.43419e-06
-6.93786e-06
-7.38408e-06
-7.7614e-06
-8.04578e-06
-8.20434e-06
-8.20634e-06
9.3478e-08
-1.05333e-06
-2.06261e-06
-2.96676e-06
-3.78249e-06
-4.51985e-06
-5.18952e-06
-5.79445e-06
-6.33506e-06
-6.81113e-06
-7.21607e-06
-7.53668e-06
-7.75431e-06
-7.85193e-06
-7.82195e-06
1.29429e-07
-1.00934e-06
-2.01017e-06
-2.90536e-06
-3.71152e-06
-4.43827e-06
-5.09343e-06
-5.67924e-06
-6.194e-06
-6.63436e-06
-6.99269e-06
-7.25862e-06
-7.42218e-06
-7.47997e-06
-7.43732e-06
1.81177e-07
-9.48549e-07
-1.939e-06
-2.82254e-06
-3.61553e-06
-4.32667e-06
-4.96167e-06
-5.5215e-06
-6.00337e-06
-6.40297e-06
-6.71445e-06
-6.93271e-06
-7.05604e-06
-7.08993e-06
-7.04514e-06
2.55199e-07
-8.64532e-07
-1.84241e-06
-2.71111e-06
-3.48658e-06
-4.17673e-06
-4.78553e-06
-5.31332e-06
-5.7575e-06
-6.11499e-06
-6.38344e-06
-6.56328e-06
-6.65886e-06
-6.68019e-06
-6.63931e-06
3.58182e-07
-7.50371e-07
-1.71312e-06
-2.56328e-06
-3.31644e-06
-3.98003e-06
-4.55748e-06
-5.04903e-06
-5.45367e-06
-5.77108e-06
-6.00284e-06
-6.15376e-06
-6.23174e-06
-6.24834e-06
-6.21494e-06
4.96206e-07
-5.99489e-07
-1.54413e-06
-2.37164e-06
-3.09788e-06
-3.73032e-06
-4.27271e-06
-4.7263e-06
-5.09259e-06
-5.37451e-06
-5.577e-06
-5.70765e-06
-5.77586e-06
-5.79304e-06
-5.76922e-06
6.74704e-07
-4.06019e-07
-1.32911e-06
-2.12974e-06
-2.82558e-06
-3.42449e-06
-3.93027e-06
-4.34674e-06
-4.67837e-06
-4.93092e-06
-5.11161e-06
-5.22939e-06
-5.29382e-06
-5.31528e-06
-5.30232e-06
8.99126e-07
-1.64306e-07
-1.06171e-06
-1.83386e-06
-2.49768e-06
-3.06174e-06
-3.53206e-06
-3.9151e-06
-4.21769e-06
-4.44768e-06
-4.61356e-06
-4.72459e-06
-4.78986e-06
-4.81843e-06
-4.81737e-06
1.17513e-06
1.30776e-07
-7.41416e-07
-1.48273e-06
-2.1132e-06
-2.64366e-06
-3.08259e-06
-3.43802e-06
-3.7185e-06
-3.93315e-06
-4.09074e-06
-4.20018e-06
-4.26996e-06
-4.30796e-06
-4.31995e-06
1.50595e-06
4.81561e-07
-3.64962e-07
-1.07603e-06
-1.67491e-06
-2.17578e-06
-2.58929e-06
-2.92436e-06
-3.1903e-06
-3.39696e-06
-3.55266e-06
-3.66567e-06
-3.7437e-06
-3.7932e-06
-3.81923e-06
1.89253e-06
8.89743e-07
6.776e-08
-6.16912e-07
-1.18977e-06
-1.66741e-06
-2.06291e-06
-2.38578e-06
-2.64548e-06
-2.85178e-06
-3.01118e-06
-3.13352e-06
-3.22595e-06
-3.29065e-06
-3.33134e-06
2.33007e-06
1.35043e-06
5.49834e-07
-1.14503e-07
-6.69308e-07
-1.13195e-06
-1.51729e-06
-1.83499e-06
-2.09783e-06
-2.31273e-06
-2.48166e-06
-2.61664e-06
-2.73161e-06
-2.82255e-06
-2.8771e-06
2.80511e-06
1.84965e-06
1.06603e-06
4.14419e-07
-1.32134e-07
-5.90986e-07
-9.74765e-07
-1.29515e-06
-1.56249e-06
-1.79016e-06
-1.99045e-06
-2.15741e-06
-2.2846e-06
-2.38219e-06
-2.45865e-06
3.30114e-06
2.37123e-06
1.60006e-06
9.5178e-07
4.03826e-07
-6.28957e-08
-4.60527e-07
-8.01644e-07
-1.09377e-06
-1.34214e-06
-1.55329e-06
-1.73225e-06
-1.88336e-06
-2.01178e-06
-2.12305e-06
3.74657e-06
2.84424e-06
2.08268e-06
1.43423e-06
8.76939e-07
3.96743e-07
-1.79591e-08
-3.77419e-07
-6.89257e-07
-9.59978e-07
-1.19626e-06
-1.40427e-06
-1.58834e-06
-1.75124e-06
-1.89528e-06
4.08884e-06
3.21577e-06
2.4643e-06
1.81268e-06
1.24675e-06
7.55092e-07
3.23873e-07
-5.56655e-08
-3.90906e-07
-6.88323e-07
-9.53458e-07
-1.19068e-06
-1.40319e-06
-1.59344e-06
-1.76386e-06
4.33306e-06
3.48809e-06
2.74943e-06
2.10009e-06
1.52916e-06
1.02586e-06
5.7947e-07
1.81475e-07
-1.74825e-07
-4.94868e-07
-7.83179e-07
-1.04337e-06
-1.27848e-06
-1.49114e-06
-1.68384e-06
4.50661e-06
3.69146e-06
2.96723e-06
2.3237e-06
1.75149e-06
1.24068e-06
7.82427e-07
3.69553e-07
-3.66587e-09
-3.41883e-07
-6.49004e-07
-9.28315e-07
-1.1827e-06
-1.41463e-06
-1.62628e-06
4.63552e-06
3.84574e-06
3.13839e-06
2.50368e-06
1.9329e-06
1.41774e-06
9.51029e-07
5.26819e-07
1.40268e-07
-2.12612e-07
-5.35242e-07
-8.30537e-07
-1.10101e-06
-1.34876e-06
-1.5757e-06
4.72973e-06
3.96785e-06
3.27871e-06
2.65365e-06
2.08589e-06
1.56876e-06
1.0963e-06
6.63577e-07
2.66549e-07
-9.81702e-08
-4.33501e-07
-7.41902e-07
-1.02553e-06
-1.28619e-06
-1.52563e-06
4.80405e-06
4.06821e-06
3.39595e-06
2.78069e-06
2.2171e-06
1.69961e-06
1.2233e-06
7.84124e-07
3.78774e-07
4.44287e-09
-3.41288e-07
-6.60476e-07
-9.55016e-07
-1.22645e-06
-1.47633e-06
4.86335e-06
4.15093e-06
3.49435e-06
2.88875e-06
2.3298e-06
1.81284e-06
1.33389e-06
8.89723e-07
4.77677e-07
9.54916e-08
-2.58833e-07
-5.87027e-07
-8.90693e-07
-1.17119e-06
-1.42988e-06
4.91037e-06
4.21888e-06
3.57661e-06
2.98006e-06
2.42569e-06
1.9097e-06
1.42894e-06
9.8085e-07
5.6335e-07
1.74647e-07
-1.8688e-07
-5.22664e-07
-8.34036e-07
-1.12219e-06
-1.38833e-06
4.94711e-06
4.27409e-06
3.64465e-06
3.05635e-06
2.50626e-06
1.99141e-06
1.50935e-06
1.05813e-06
6.36111e-07
2.41928e-07
-1.25692e-07
-4.67909e-07
-7.85841e-07
-1.08049e-06
-1.35291e-06
4.97515e-06
4.31836e-06
3.70032e-06
3.11936e-06
2.57314e-06
2.05943e-06
1.57641e-06
1.12259e-06
6.96777e-07
2.9795e-07
-7.48591e-08
-4.22563e-07
-7.46087e-07
-1.04626e-06
-1.324e-06
4.99603e-06
4.35342e-06
3.74544e-06
3.17091e-06
2.62811e-06
2.11545e-06
1.63165e-06
1.17564e-06
7.46592e-07
3.43787e-07
-3.34719e-08
-3.85881e-07
-7.14188e-07
-1.01907e-06
-1.30135e-06
5.01116e-06
4.38095e-06
3.78175e-06
3.21281e-06
2.67298e-06
2.16125e-06
1.67677e-06
1.21886e-06
7.87004e-07
3.80756e-07
-3.49995e-10
-3.5682e-07
-6.89238e-07
-9.98159e-07
-1.28429e-06
5.02184e-06
4.40243e-06
3.81086e-06
3.24675e-06
2.70948e-06
2.19852e-06
1.71341e-06
1.25381e-06
8.1949e-07
4.1023e-07
2.57691e-08
-3.34227e-07
-6.70199e-07
-9.82592e-07
-1.27203e-06
5.02915e-06
4.41916e-06
3.8342e-06
3.27424e-06
2.73914e-06
2.22879e-06
1.74308e-06
1.28196e-06
8.45435e-07
4.33511e-07
4.6101e-08
-3.16979e-07
-6.56041e-07
-9.71435e-07
-1.2637e-06
5.03398e-06
4.43217e-06
3.85291e-06
3.29651e-06
2.76325e-06
2.25338e-06
1.76707e-06
1.30455e-06
8.66048e-07
4.51753e-07
6.17341e-08
-3.04056e-07
-6.45817e-07
-9.63814e-07
-1.25851e-06
5.037e-06
4.44229e-06
3.86794e-06
3.31458e-06
2.78286e-06
2.27332e-06
1.78642e-06
1.32262e-06
8.82341e-07
4.65929e-07
7.35996e-08
-2.94577e-07
-6.38699e-07
-9.58958e-07
-1.25576e-06
5.03874e-06
4.45026e-06
3.88015e-06
3.32939e-06
2.79896e-06
2.28965e-06
1.80218e-06
1.33718e-06
8.95278e-07
4.76955e-07
8.25524e-08
-2.87753e-07
-6.33975e-07
-9.56233e-07
-1.25488e-06
5.03955e-06
4.45684e-06
3.8906e-06
3.34221e-06
2.81291e-06
2.30375e-06
1.81567e-06
1.34951e-06
9.06029e-07
4.85876e-07
8.95014e-08
-2.8282e-07
-6.3102e-07
-9.55151e-07
-1.25551e-06
5.03975e-06
4.46222e-06
3.89956e-06
3.35337e-06
2.8251e-06
2.31605e-06
1.82733e-06
1.36e-06
9.14986e-07
4.93073e-07
9.48338e-08
-2.79358e-07
-6.29354e-07
-9.55156e-07
-1.25706e-06
-1.21089e-05
-9.6525e-06
-8.15648e-06
-7.16489e-06
-6.3768e-06
-5.77375e-06
-5.30152e-06
-4.92058e-06
-4.60258e-06
-4.32388e-06
-4.06431e-06
-3.80614e-06
-3.53325e-06
-3.2326e-06
-2.89367e-06
-2.51392e-06
-2.09906e-06
-1.67666e-06
-1.29609e-06
-1.04249e-06
-1.03773e-06
-1.41394e-06
-2.20597e-06
-3.19684e-06
-4.1521e-06
-4.93138e-06
-5.46011e-06
-5.69594e-06
-5.61084e-06
-5.18475e-06
-4.40556e-06
-3.27274e-06
-1.80116e-06
-2.24438e-08
2.01595e-06
4.25344e-06
6.61948e-06
9.03583e-06
1.14157e-05
1.36593e-05
1.56369e-05
1.71825e-05
1.7937e-05
1.76048e-05
1.50202e-05
-1.03784e-05
-9.09469e-06
-7.95964e-06
-7.07513e-06
-6.33458e-06
-5.74686e-06
-5.27946e-06
-4.89967e-06
-4.58165e-06
-4.30263e-06
-4.04268e-06
-3.78395e-06
-3.51058e-06
-3.20936e-06
-2.87008e-06
-2.49035e-06
-2.07607e-06
-1.65488e-06
-1.27572e-06
-1.02253e-06
-1.01552e-06
-1.38439e-06
-2.16399e-06
-3.14197e-06
-4.08736e-06
-4.86008e-06
-5.38552e-06
-5.62095e-06
-5.53844e-06
-5.11852e-06
-4.35032e-06
-3.23531e-06
-1.79048e-06
-4.99045e-08
1.93604e-06
4.1029e-06
6.37445e-06
8.66361e-06
1.08691e-05
1.28656e-05
1.44751e-05
1.54288e-05
1.52123e-05
1.30871e-05
8.05311e-06
-9.47341e-06
-8.66162e-06
-7.75416e-06
-6.96748e-06
-6.27965e-06
-5.71329e-06
-5.25369e-06
-4.87624e-06
-4.55836e-06
-4.27878e-06
-4.01806e-06
-3.7585e-06
-3.48409e-06
-3.182e-06
-2.84226e-06
-2.46264e-06
-2.04931e-06
-1.62997e-06
-1.25306e-06
-1.00111e-06
-9.92333e-07
-1.35353e-06
-2.11922e-06
-3.08228e-06
-4.01586e-06
-4.78045e-06
-5.30158e-06
-5.53626e-06
-5.45676e-06
-5.04461e-06
-4.29069e-06
-3.19883e-06
-1.7888e-06
-9.78705e-08
1.81973e-06
3.89451e-06
6.04318e-06
8.16824e-06
1.01528e-05
1.18485e-05
1.30463e-05
1.34435e-05
1.257e-05
9.89857e-06
5.28529e-06
-8.89289e-06
-8.30702e-06
-7.57262e-06
-6.86481e-06
-6.22755e-06
-5.6838e-06
-5.2322e-06
-4.85623e-06
-4.53717e-06
-4.25563e-06
-3.99291e-06
-3.7315e-06
-3.45536e-06
-3.15203e-06
-2.81167e-06
-2.43227e-06
-2.02023e-06
-1.60327e-06
-1.22926e-06
-9.79133e-07
-9.68941e-07
-1.32223e-06
-2.07291e-06
-3.01944e-06
-3.9395e-06
-4.69417e-06
-5.20927e-06
-5.44172e-06
-5.36421e-06
-4.9597e-06
-4.22138e-06
-3.15613e-06
-1.78737e-06
-1.56498e-07
1.67742e-06
3.63897e-06
5.63718e-06
7.56442e-06
9.29132e-06
1.06565e-05
1.14503e-05
1.14017e-05
1.0183e-05
7.53632e-06
3.67999e-06
-8.43429e-06
-7.9875e-06
-7.39126e-06
-6.77187e-06
-6.18101e-06
-5.66084e-06
-5.2169e-06
-4.84084e-06
-4.51852e-06
-4.23292e-06
-3.96634e-06
-3.70157e-06
-3.42275e-06
-3.11773e-06
-2.77674e-06
-2.39799e-06
-1.98808e-06
-1.57463e-06
-1.20482e-06
-9.57643e-07
-9.46661e-07
-1.29169e-06
-2.02572e-06
-2.95353e-06
-3.85802e-06
-4.60098e-06
-5.10879e-06
-5.33842e-06
-5.26338e-06
-4.86844e-06
-4.14961e-06
-3.11742e-06
-1.79954e-06
-2.42089e-07
1.49068e-06
3.31738e-06
5.14027e-06
6.84453e-06
8.29557e-06
9.33362e-06
9.77374e-06
9.41343e-06
8.07212e-06
5.6886e-06
2.50833e-06
-8.03958e-06
-7.68765e-06
-7.20043e-06
-6.66896e-06
-6.13457e-06
-5.64217e-06
-5.20646e-06
-4.83004e-06
-4.50265e-06
-4.21092e-06
-3.93847e-06
-3.6686e-06
-3.38581e-06
-3.0785e-06
-2.7369e-06
-2.3594e-06
-1.95278e-06
-1.54441e-06
-1.1806e-06
-9.37949e-07
-9.27104e-07
-1.26358e-06
-1.97904e-06
-2.88547e-06
-3.77195e-06
-4.50115e-06
-5.00037e-06
-5.22693e-06
-5.1555e-06
-4.77317e-06
-4.07926e-06
-3.08847e-06
-1.83312e-06
-3.64228e-07
1.24891e-06
2.91994e-06
4.5467e-06
6.01209e-06
7.18461e-06
7.92258e-06
8.07931e-06
7.52786e-06
6.19915e-06
4.1422e-06
1.58901e-06
-7.67087e-06
-7.3904e-06
-6.99725e-06
-6.54049e-06
-6.07084e-06
-5.6143e-06
-5.19279e-06
-4.82028e-06
-4.48752e-06
-4.18881e-06
-3.90904e-06
-3.63257e-06
-3.34446e-06
-3.03438e-06
-2.6923e-06
-2.31685e-06
-1.91498e-06
-1.51365e-06
-1.15808e-06
-9.21918e-07
-9.12424e-07
-1.24018e-06
-1.93495e-06
-2.81699e-06
-3.68263e-06
-4.39567e-06
-4.88479e-06
-5.10803e-06
-5.04171e-06
-4.67572e-06
-4.0132e-06
-3.07336e-06
-1.89338e-06
-5.28946e-07
9.46496e-07
2.44358e-06
3.85946e-06
5.08092e-06
5.9887e-06
6.46643e-06
6.4126e-06
5.76333e-06
4.51875e-06
2.76954e-06
7.07652e-07
-7.30608e-06
-7.08119e-06
-6.76632e-06
-6.38617e-06
-5.97502e-06
-5.5587e-06
-5.16498e-06
-4.80002e-06
-4.46714e-06
-4.16313e-06
-3.87587e-06
-3.59223e-06
-3.29796e-06
-2.98527e-06
-2.64322e-06
-2.27102e-06
-1.87586e-06
-1.48402e-06
-1.13944e-06
-9.12194e-07
-9.05563e-07
-1.22455e-06
-1.89638e-06
-2.75054e-06
-3.59207e-06
-4.28616e-06
-4.76361e-06
-4.98339e-06
-4.9241e-06
-4.57904e-06
-3.95547e-06
-3.07732e-06
-1.98641e-06
-7.42315e-07
5.79053e-07
1.88821e-06
3.08601e-06
4.06894e-06
4.73668e-06
5.00159e-06
4.80254e-06
4.1201e-06
2.98949e-06
1.5061e-06
-1.82532e-07
-6.93378e-06
-6.75276e-06
-6.50091e-06
-6.18918e-06
-5.83804e-06
-5.46992e-06
-5.10637e-06
-4.75755e-06
-4.43224e-06
-4.12638e-06
-3.83388e-06
-3.54358e-06
-3.24538e-06
-2.93091e-06
-2.58996e-06
-2.22292e-06
-1.83711e-06
-1.45788e-06
-1.1277e-06
-9.12295e-07
-9.10343e-07
-1.22063e-06
-1.86701e-06
-2.68935e-06
-3.50297e-06
-4.17481e-06
-4.63922e-06
-4.85575e-06
-4.80602e-06
-4.48749e-06
-3.91165e-06
-3.10693e-06
-2.11911e-06
-1.01024e-06
1.43706e-07
1.25659e-06
2.23736e-06
2.9968e-06
3.4559e-06
3.5548e-06
3.26317e-06
2.5881e-06
1.5775e-06
3.16036e-07
-1.08652e-06
-6.5469e-06
-6.40132e-06
-6.20005e-06
-5.94691e-06
-5.65315e-06
-5.33459e-06
-5.0074e-06
-4.68346e-06
-4.37065e-06
-4.0693e-06
-3.77611e-06
-3.48326e-06
-3.18456e-06
-2.86978e-06
-2.53251e-06
-2.17382e-06
-1.80101e-06
-1.43833e-06
-1.12665e-06
-9.26586e-07
-9.31406e-07
-1.23314e-06
-1.8513e-06
-2.63738e-06
-3.41894e-06
-4.06457e-06
-4.51446e-06
-4.72903e-06
-4.69224e-06
-4.4069e-06
-3.88857e-06
-3.16957e-06
-2.29837e-06
-1.33743e-06
-3.59967e-07
5.54677e-07
1.327e-06
1.88454e-06
2.16892e-06
2.14328e-06
1.79788e-06
1.15274e-06
2.55955e-07
-8.23191e-07
-2.00412e-06
-6.14051e-06
-6.02447e-06
-5.86438e-06
-5.66064e-06
-5.4186e-06
-5.14811e-06
-4.86082e-06
-4.567e-06
-4.27384e-06
-3.98412e-06
-3.69682e-06
-3.40764e-06
-3.11115e-06
-2.80078e-06
-2.4715e-06
-2.12556e-06
-1.77045e-06
-1.42912e-06
-1.14074e-06
-9.60052e-07
-9.73951e-07
-1.26726e-06
-1.85422e-06
-2.59896e-06
-3.34403e-06
-3.96189e-06
-4.39198e-06
-4.60598e-06
-4.58818e-06
-4.34422e-06
-3.89393e-06
-3.27274e-06
-2.53009e-06
-1.72639e-06
-9.29242e-07
-2.08387e-07
3.70296e-07
7.50967e-07
8.93169e-07
7.7676e-07
4.04061e-07
-2.00829e-07
-9.95471e-07
-1.92571e-06
-2.93265e-06
-5.71187e-06
-5.62125e-06
-5.4954e-06
-5.33323e-06
-5.13666e-06
-4.91116e-06
-4.66443e-06
-4.40422e-06
-4.13673e-06
-3.86549e-06
-3.59116e-06
-3.31191e-06
-3.02402e-06
-2.72389e-06
-2.40827e-06
-2.08065e-06
-1.74894e-06
-1.43455e-06
-1.17476e-06
-1.01786e-06
-1.04323e-06
-1.32813e-06
-1.88089e-06
-2.57885e-06
-3.28176e-06
-3.87181e-06
-4.28016e-06
-4.49247e-06
-4.4998e-06
-4.3065e-06
-3.93504e-06
-3.42265e-06
-2.81773e-06
-2.17614e-06
-1.55753e-06
-1.0203e-06
-6.1628e-07
-3.8673e-07
-3.57962e-07
-5.39196e-07
-9.22421e-07
-1.48442e-06
-2.19034e-06
-2.99904e-06
-3.86753e-06
-5.26128e-06
-5.19309e-06
-5.09638e-06
-4.96957e-06
-4.81271e-06
-4.6284e-06
-4.42126e-06
-4.19657e-06
-3.95918e-06
-3.71248e-06
-3.45806e-06
-3.19576e-06
-2.92374e-06
-2.64081e-06
-2.34556e-06
-2.04269e-06
-1.74078e-06
-1.45931e-06
-1.23348e-06
-1.10485e-06
-1.14389e-06
-1.42033e-06
-1.93589e-06
-2.58174e-06
-3.23697e-06
-3.79315e-06
-4.18418e-06
-4.39843e-06
-4.43523e-06
-4.3008e-06
-4.01763e-06
-3.62248e-06
-3.16045e-06
-2.68055e-06
-2.23326e-06
-1.86462e-06
-1.61428e-06
-1.51135e-06
-1.57204e-06
-1.79922e-06
-2.18325e-06
-2.70417e-06
-3.33471e-06
-4.0442e-06
-4.80137e-06
-4.79217e-06
-4.74438e-06
-4.6732e-06
-4.57707e-06
-4.45517e-06
-4.30835e-06
-4.13906e-06
-3.9506e-06
-3.7464e-06
-3.52931e-06
-3.30118e-06
-3.06299e-06
-2.81438e-06
-2.55607e-06
-2.28843e-06
-2.01711e-06
-1.75146e-06
-1.50869e-06
-1.3216e-06
-1.22517e-06
-1.27961e-06
-1.54723e-06
-2.0225e-06
-2.61129e-06
-3.21492e-06
-3.73454e-06
-4.10832e-06
-4.32944e-06
-4.40241e-06
-4.3338e-06
-4.1447e-06
-3.87051e-06
-3.55112e-06
-3.22729e-06
-2.93811e-06
-2.72005e-06
-2.60208e-06
-2.60377e-06
-2.73466e-06
-2.99455e-06
-3.37447e-06
-3.85852e-06
-4.42613e-06
-5.05487e-06
-5.72206e-06
-4.31077e-06
-4.28238e-06
-4.23455e-06
-4.16602e-06
-4.07565e-06
-3.96333e-06
-3.83014e-06
-3.67794e-06
-3.50901e-06
-3.32555e-06
-3.12931e-06
-2.92188e-06
-2.70395e-06
-2.4776e-06
-2.24471e-06
-2.01145e-06
-1.78789e-06
-1.58882e-06
-1.4439e-06
-1.38234e-06
-1.45299e-06
-1.71017e-06
-2.143e-06
-2.67184e-06
-3.21954e-06
-3.70078e-06
-4.06018e-06
-4.29239e-06
-4.40532e-06
-4.40671e-06
-4.31436e-06
-4.15837e-06
-3.9736e-06
-3.79323e-06
-3.647e-06
-3.56064e-06
-3.5543e-06
-3.64127e-06
-3.82732e-06
-4.11111e-06
-4.48523e-06
-4.93776e-06
-5.45377e-06
-6.01719e-06
-6.61176e-06
-3.82655e-06
-3.81759e-06
-3.79248e-06
-3.75015e-06
-3.68941e-06
-3.60968e-06
-3.51128e-06
-3.39525e-06
-3.26304e-06
-3.11633e-06
-2.95656e-06
-2.78555e-06
-2.60469e-06
-2.4168e-06
-2.22499e-06
-2.03537e-06
-1.85834e-06
-1.70646e-06
-1.60524e-06
-1.57923e-06
-1.66512e-06
-1.90912e-06
-2.29917e-06
-2.767e-06
-3.25481e-06
-3.69719e-06
-4.04527e-06
-4.29129e-06
-4.44508e-06
-4.51594e-06
-4.51749e-06
-4.47285e-06
-4.41038e-06
-4.35653e-06
-4.3331e-06
-4.3574e-06
-4.44287e-06
-4.59842e-06
-4.82775e-06
-5.1295e-06
-5.49809e-06
-5.92497e-06
-6.39973e-06
-6.91113e-06
-7.44769e-06
-3.3547e-06
-3.36543e-06
-3.36376e-06
-3.34794e-06
-3.31638e-06
-3.26833e-06
-3.20397e-06
-3.12404e-06
-3.02959e-06
-2.92185e-06
-2.80198e-06
-2.67169e-06
-2.53277e-06
-2.38827e-06
-2.24209e-06
-2.0999e-06
-1.97182e-06
-1.86831e-06
-1.80991e-06
-1.81711e-06
-1.91556e-06
-2.14332e-06
-2.49096e-06
-2.89831e-06
-3.32489e-06
-3.72761e-06
-4.06549e-06
-4.3262e-06
-4.51821e-06
-4.65222e-06
-4.73898e-06
-4.7941e-06
-4.83825e-06
-4.89108e-06
-4.96842e-06
-5.08177e-06
-5.24033e-06
-5.45002e-06
-5.71303e-06
-6.02839e-06
-6.39233e-06
-6.79908e-06
-7.24168e-06
-7.71252e-06
-8.20363e-06
-2.91454e-06
-2.9463e-06
-2.97006e-06
-2.98205e-06
-2.98007e-06
-2.96361e-06
-2.93311e-06
-2.88936e-06
-2.8332e-06
-2.76559e-06
-2.68747e-06
-2.60031e-06
-2.50607e-06
-2.40769e-06
-2.30934e-06
-2.2158e-06
-2.13624e-06
-2.07884e-06
-2.0595e-06
-2.09419e-06
-2.2015e-06
-2.41046e-06
-2.71477e-06
-3.06408e-06
-3.43177e-06
-3.79367e-06
-4.11908e-06
-4.39176e-06
-4.61578e-06
-4.80164e-06
-4.9583e-06
-5.09597e-06
-5.22715e-06
-5.36556e-06
-5.52235e-06
-5.70535e-06
-5.92083e-06
-6.17255e-06
-6.46197e-06
-6.78854e-06
-7.14967e-06
-7.54156e-06
-7.95988e-06
-8.39982e-06
-8.85608e-06
-2.52361e-06
-2.58357e-06
-2.63525e-06
-2.67574e-06
-2.70399e-06
-2.71997e-06
-2.72409e-06
-2.71701e-06
-2.69941e-06
-2.672e-06
-2.63563e-06
-2.59161e-06
-2.54172e-06
-2.4884e-06
-2.43567e-06
-2.38777e-06
-2.35599e-06
-2.34002e-06
-2.35057e-06
-2.40526e-06
-2.51664e-06
-2.70284e-06
-2.96232e-06
-3.25764e-06
-3.57139e-06
-3.89202e-06
-4.19927e-06
-4.47654e-06
-4.72324e-06
-4.94681e-06
-5.15452e-06
-5.35291e-06
-5.54879e-06
-5.75058e-06
-5.9658e-06
-6.20063e-06
-6.45875e-06
-6.74223e-06
-7.05218e-06
-7.38831e-06
-7.7491e-06
-8.13217e-06
-8.53466e-06
-8.95352e-06
-9.38545e-06
-2.22253e-06
-2.31275e-06
-2.39279e-06
-2.46203e-06
-2.52068e-06
-2.56916e-06
-2.60773e-06
-2.63664e-06
-2.65636e-06
-2.66758e-06
-2.67096e-06
-2.66777e-06
-2.65965e-06
-2.64881e-06
-2.6379e-06
-2.63036e-06
-2.62605e-06
-2.63789e-06
-2.67223e-06
-2.7388e-06
-2.8461e-06
-3.00567e-06
-3.21923e-06
-3.464e-06
-3.72978e-06
-4.00949e-06
-4.29223e-06
-4.56211e-06
-4.81858e-06
-5.06511e-06
-5.30571e-06
-5.54395e-06
-5.78359e-06
-6.02933e-06
-6.28568e-06
-6.55604e-06
-6.843e-06
-7.14846e-06
-7.4729e-06
-7.81596e-06
-8.17713e-06
-8.55523e-06
-8.94826e-06
-9.35401e-06
-9.77035e-06
-2.02477e-06
-2.14305e-06
-2.25085e-06
-2.34837e-06
-2.43589e-06
-2.51379e-06
-2.58243e-06
-2.64196e-06
-2.69268e-06
-2.73505e-06
-2.76891e-06
-2.79837e-06
-2.82171e-06
-2.84141e-06
-2.8596e-06
-2.87865e-06
-2.90197e-06
-2.93496e-06
-2.98229e-06
-3.05067e-06
-3.14789e-06
-3.28344e-06
-3.4574e-06
-3.65238e-06
-3.87377e-06
-4.11842e-06
-4.37333e-06
-4.62483e-06
-4.8757e-06
-5.1274e-06
-5.38097e-06
-5.63852e-06
-5.90214e-06
-6.17367e-06
-6.45516e-06
-6.74824e-06
-7.05455e-06
-7.37526e-06
-7.71076e-06
-8.06101e-06
-8.42577e-06
-8.8044e-06
-9.19559e-06
-9.59786e-06
-1.00094e-05
-1.91891e-06
-2.06222e-06
-2.19484e-06
-2.31708e-06
-2.42917e-06
-2.5312e-06
-2.62332e-06
-2.70597e-06
-2.77969e-06
-2.84505e-06
-2.90369e-06
-2.9527e-06
-2.99657e-06
-3.03585e-06
-3.0719e-06
-3.10678e-06
-3.14321e-06
-3.18416e-06
-3.23401e-06
-3.29816e-06
-3.38178e-06
-3.4971e-06
-3.64386e-06
-3.80575e-06
-3.99057e-06
-4.19951e-06
-4.42426e-06
-4.65879e-06
-4.89648e-06
-5.14097e-06
-5.39348e-06
-5.65469e-06
-5.92539e-06
-6.20623e-06
-6.49803e-06
-6.80188e-06
-7.11851e-06
-7.44837e-06
-7.79163e-06
-8.14823e-06
-8.51767e-06
-8.89914e-06
-9.29204e-06
-9.69485e-06
-1.01074e-05
-1.86076e-06
-2.02516e-06
-2.17787e-06
-2.31919e-06
-2.44929e-06
-2.56831e-06
-2.67658e-06
-2.77458e-06
-2.86268e-06
-2.94162e-06
-3.01205e-06
-3.07439e-06
-3.12984e-06
-3.17942e-06
-3.22449e-06
-3.26675e-06
-3.30841e-06
-3.35213e-06
-3.4015e-06
-3.46094e-06
-3.53591e-06
-3.634e-06
-3.75689e-06
-3.90584e-06
-4.0727e-06
-4.25529e-06
-4.45285e-06
-4.66786e-06
-4.89461e-06
-5.13236e-06
-5.38156e-06
-5.64238e-06
-5.91496e-06
-6.19956e-06
-6.49656e-06
-6.80642e-06
-7.12936e-06
-7.4656e-06
-7.81503e-06
-8.17738e-06
-8.55228e-06
-8.93872e-06
-9.33694e-06
-9.74687e-06
-1.01666e-05
-1.8213e-06
-2.0026e-06
-2.17093e-06
-2.32649e-06
-2.4697e-06
-2.60102e-06
-2.72074e-06
-2.8293e-06
-2.92731e-06
-3.01524e-06
-3.09369e-06
-3.16335e-06
-3.22518e-06
-3.28028e-06
-3.32998e-06
-3.37586e-06
-3.41999e-06
-3.46483e-06
-3.51354e-06
-3.57024e-06
-3.63988e-06
-3.72917e-06
-3.84148e-06
-3.97382e-06
-4.12281e-06
-4.2894e-06
-4.47383e-06
-4.67528e-06
-4.89139e-06
-5.12128e-06
-5.36482e-06
-5.622e-06
-5.89286e-06
-6.17747e-06
-6.47592e-06
-6.78838e-06
-7.11488e-06
-7.45522e-06
-7.80941e-06
-8.17715e-06
-8.55729e-06
-8.95081e-06
-9.35636e-06
-9.77328e-06
-1.02008e-05
-1.78515e-06
-1.97975e-06
-2.16018e-06
-2.32681e-06
-2.48014e-06
-2.62058e-06
-2.7486e-06
-2.86461e-06
-2.96914e-06
-3.06278e-06
-3.14623e-06
-3.22032e-06
-3.28604e-06
-3.34452e-06
-3.39711e-06
-3.4454e-06
-3.49138e-06
-3.53742e-06
-3.58652e-06
-3.64243e-06
-3.70973e-06
-3.79397e-06
-3.89783e-06
-4.01964e-06
-4.15866e-06
-4.31529e-06
-4.4893e-06
-4.68031e-06
-4.88753e-06
-5.11037e-06
-5.34861e-06
-5.60216e-06
-5.87095e-06
-6.15488e-06
-6.45395e-06
-6.76813e-06
-7.09726e-06
-7.44108e-06
-7.79944e-06
-8.17189e-06
-8.55858e-06
-8.95844e-06
-9.37101e-06
-9.79569e-06
-1.02317e-05
-1.74688e-06
-1.95231e-06
-2.14252e-06
-2.31797e-06
-2.47919e-06
-2.62661e-06
-2.7607e-06
-2.88199e-06
-2.9911e-06
-3.08874e-06
-3.17571e-06
-3.25293e-06
-3.32144e-06
-3.38245e-06
-3.43736e-06
-3.48779e-06
-3.53572e-06
-3.58345e-06
-3.63381e-06
-3.69023e-06
-3.75685e-06
-3.83853e-06
-3.93777e-06
-4.05375e-06
-4.18626e-06
-4.33575e-06
-4.50238e-06
-4.68622e-06
-4.88701e-06
-5.10448e-06
-5.33844e-06
-5.58882e-06
-5.85551e-06
-6.13843e-06
-6.43749e-06
-6.75261e-06
-7.08363e-06
-7.43027e-06
-7.79231e-06
-8.16938e-06
-8.56117e-06
-8.96711e-06
-9.38656e-06
-9.81887e-06
-1.02633e-05
-1.70739e-06
-1.92179e-06
-2.11988e-06
-2.30242e-06
-2.46986e-06
-2.6227e-06
-2.76149e-06
-2.88686e-06
-2.9995e-06
-3.10023e-06
-3.18994e-06
-3.26963e-06
-3.34044e-06
-3.40363e-06
-3.46068e-06
-3.51324e-06
-3.56328e-06
-3.61305e-06
-3.66525e-06
-3.72302e-06
-3.79021e-06
-3.87115e-06
-3.96804e-06
-4.08053e-06
-4.20886e-06
-4.35365e-06
-4.51528e-06
-4.69401e-06
-4.88995e-06
-5.10309e-06
-5.33341e-06
-5.58093e-06
-5.84559e-06
-6.12735e-06
-6.42612e-06
-6.74185e-06
-7.07439e-06
-7.4234e-06
-7.78859e-06
-8.16968e-06
-8.56626e-06
-8.97779e-06
-9.40362e-06
-9.84306e-06
-1.02953e-05
-1.6691e-06
-1.89072e-06
-2.09551e-06
-2.28388e-06
-2.45638e-06
-2.6136e-06
-2.75617e-06
-2.8848e-06
-3.00026e-06
-3.10347e-06
-3.1954e-06
-3.27715e-06
-3.34992e-06
-3.41507e-06
-3.47412e-06
-3.52876e-06
-3.58095e-06
-3.63288e-06
-3.68714e-06
-3.74669e-06
-3.81507e-06
-3.89613e-06
-3.99184e-06
-4.10227e-06
-4.22788e-06
-4.36937e-06
-4.52728e-06
-4.70209e-06
-4.89421e-06
-5.10384e-06
-5.33113e-06
-5.57617e-06
-5.83902e-06
-6.11968e-06
-6.41808e-06
-6.7342e-06
-7.06787e-06
-7.4188e-06
-7.78677e-06
-8.17141e-06
-8.57228e-06
-8.98885e-06
-9.42048e-06
-9.86645e-06
-1.0326e-05
-1.63443e-06
-1.86213e-06
-2.07248e-06
-2.26562e-06
-2.44227e-06
-2.60305e-06
-2.74867e-06
-2.87989e-06
-2.99762e-06
-3.10281e-06
-3.19654e-06
-3.27998e-06
-3.35442e-06
-3.42127e-06
-3.4821e-06
-3.53863e-06
-3.59281e-06
-3.64678e-06
-3.70306e-06
-3.76438e-06
-3.83406e-06
-3.91554e-06
-4.01059e-06
-4.11965e-06
-4.24326e-06
-4.38218e-06
-4.53715e-06
-4.70888e-06
-4.89793e-06
-5.10467e-06
-5.32938e-06
-5.57225e-06
-5.83345e-06
-6.11302e-06
-6.41101e-06
-6.72732e-06
-7.06186e-06
-7.41449e-06
-7.7848e-06
-8.17254e-06
-8.57724e-06
-8.99835e-06
-9.43523e-06
-9.88715e-06
-1.03533e-05
-1.60484e-06
-1.83777e-06
-2.05271e-06
-2.24972e-06
-2.42971e-06
-2.59335e-06
-2.74138e-06
-2.87466e-06
-2.99413e-06
-3.10086e-06
-3.19599e-06
-3.28076e-06
-3.35653e-06
-3.42475e-06
-3.48707e-06
-3.54518e-06
-3.60107e-06
-3.65681e-06
-3.71482e-06
-3.77768e-06
-3.8485e-06
-3.93034e-06
-4.02487e-06
-4.1328e-06
-4.25475e-06
-4.39155e-06
-4.5441e-06
-4.71326e-06
-4.89971e-06
-5.10396e-06
-5.3264e-06
-5.56734e-06
-5.827e-06
-6.10554e-06
-6.40302e-06
-6.71943e-06
-7.05471e-06
-7.40876e-06
-7.78113e-06
-8.17162e-06
-8.57975e-06
-9.00499e-06
-9.44667e-06
-9.90404e-06
-1.03763e-05
-1.58085e-06
-1.81813e-06
-2.03653e-06
-2.2371e-06
-2.41975e-06
-2.58565e-06
-2.73555e-06
-2.87037e-06
-2.99115e-06
-3.09899e-06
-3.19513e-06
-3.28086e-06
-3.3576e-06
-3.42686e-06
-3.4903e-06
-3.54967e-06
-3.6069e-06
-3.66404e-06
-3.72342e-06
-3.78748e-06
-3.85913e-06
-3.94111e-06
-4.03506e-06
-4.14193e-06
-4.26237e-06
-4.39728e-06
-4.54772e-06
-4.71464e-06
-4.8988e-06
-5.10084e-06
-5.32125e-06
-5.56042e-06
-5.81867e-06
-6.09622e-06
-6.39319e-06
-6.70963e-06
-7.04554e-06
-7.40077e-06
-7.77504e-06
-8.16801e-06
-8.57926e-06
-9.00829e-06
-9.45439e-06
-9.91681e-06
-1.03947e-05
-1.56236e-06
-1.80328e-06
-2.02482e-06
-2.22768e-06
-2.4127e-06
-2.58034e-06
-2.73164e-06
-2.86757e-06
-2.98923e-06
-3.09782e-06
-3.19461e-06
-3.28095e-06
-3.35832e-06
-3.42829e-06
-3.49251e-06
-3.55276e-06
-3.61098e-06
-3.66913e-06
-3.72951e-06
-3.79439e-06
-3.86655e-06
-3.94844e-06
-4.04169e-06
-4.14746e-06
-4.26643e-06
-4.39959e-06
-4.5481e-06
-4.71298e-06
-4.89508e-06
-5.09511e-06
-5.31367e-06
-5.55123e-06
-5.80818e-06
-6.08479e-06
-6.38127e-06
-6.69772e-06
-7.03415e-06
-7.39046e-06
-7.7664e-06
-8.16166e-06
-8.57584e-06
-9.00833e-06
-9.45853e-06
-9.92564e-06
-1.04088e-05
-1.54882e-06
-1.79277e-06
-2.01687e-06
-2.22183e-06
-2.40842e-06
-2.57739e-06
-2.72968e-06
-2.86635e-06
-2.98857e-06
-3.09757e-06
-3.19469e-06
-3.28135e-06
-3.35906e-06
-3.42941e-06
-3.49411e-06
-3.55492e-06
-3.61377e-06
-3.67261e-06
-3.73363e-06
-3.79901e-06
-3.87135e-06
-3.95291e-06
-4.04533e-06
-4.14994e-06
-4.26746e-06
-4.39896e-06
-4.54567e-06
-4.70866e-06
-4.88886e-06
-5.08706e-06
-5.30391e-06
-5.53999e-06
-5.79572e-06
-6.07148e-06
-6.36749e-06
-6.68392e-06
-7.02082e-06
-7.3781e-06
-7.75557e-06
-8.15293e-06
-8.56977e-06
-9.00552e-06
-9.45953e-06
-9.931e-06
-1.0419e-05
-1.53952e-06
-1.78599e-06
-2.01218e-06
-2.2188e-06
-2.40664e-06
-2.57655e-06
-2.72952e-06
-2.86661e-06
-2.9891e-06
-3.09826e-06
-3.19546e-06
-3.28218e-06
-3.35997e-06
-3.43045e-06
-3.49536e-06
-3.55646e-06
-3.61566e-06
-3.67488e-06
-3.73625e-06
-3.80184e-06
-3.87413e-06
-3.95517e-06
-4.04664e-06
-4.15003e-06
-4.2661e-06
-4.396e-06
-4.54101e-06
-4.70224e-06
-4.88067e-06
-5.07717e-06
-5.29245e-06
-5.52715e-06
-5.78177e-06
-6.05672e-06
-6.35229e-06
-6.6687e-06
-7.00601e-06
-7.36419e-06
-7.74306e-06
-8.14235e-06
-8.56165e-06
-9.0004e-06
-9.45796e-06
-9.93349e-06
-1.04261e-05
-1.53371e-06
-1.78229e-06
-2.01018e-06
-2.21812e-06
-2.40692e-06
-2.57749e-06
-2.73086e-06
-2.86816e-06
-2.99069e-06
-3.0998e-06
-3.19689e-06
-3.28347e-06
-3.36114e-06
-3.43155e-06
-3.49645e-06
-3.55761e-06
-3.61693e-06
-3.6763e-06
-3.73778e-06
-3.80336e-06
-3.8754e-06
-3.95577e-06
-4.0462e-06
-4.14834e-06
-4.26299e-06
-4.39136e-06
-4.53475e-06
-4.69432e-06
-4.87111e-06
-5.06602e-06
-5.27985e-06
-5.51327e-06
-5.76685e-06
-6.04105e-06
-6.33621e-06
-6.65258e-06
-6.99026e-06
-7.34926e-06
-7.72942e-06
-8.13048e-06
-8.55204e-06
-8.99356e-06
-9.45438e-06
-9.93366e-06
-1.04304e-05
-1.53068e-06
-1.78103e-06
-2.01031e-06
-2.21929e-06
-2.40881e-06
-2.57982e-06
-2.73338e-06
-2.87076e-06
-2.99315e-06
-3.10205e-06
-3.19887e-06
-3.28517e-06
-3.36257e-06
-3.43276e-06
-3.49749e-06
-3.55855e-06
-3.61781e-06
-3.67714e-06
-3.73855e-06
-3.80395e-06
-3.87559e-06
-3.95521e-06
-4.04456e-06
-4.14544e-06
-4.2587e-06
-4.3856e-06
-4.52747e-06
-4.68548e-06
-4.86073e-06
-5.05417e-06
-5.26665e-06
-5.49888e-06
-5.7515e-06
-6.025e-06
-6.31977e-06
-6.63609e-06
-6.97411e-06
-7.33384e-06
-7.71517e-06
-8.11784e-06
-8.54148e-06
-8.98554e-06
-9.44934e-06
-9.93207e-06
-1.04327e-05
-1.52976e-06
-1.7816e-06
-2.01203e-06
-2.22182e-06
-2.41187e-06
-2.58315e-06
-2.73678e-06
-2.87406e-06
-2.99626e-06
-3.10482e-06
-3.20128e-06
-3.28719e-06
-3.36422e-06
-3.43408e-06
-3.49853e-06
-3.55936e-06
-3.61844e-06
-3.6776e-06
-3.73882e-06
-3.80392e-06
-3.87508e-06
-3.95388e-06
-4.04214e-06
-4.14178e-06
-4.25372e-06
-4.37923e-06
-4.51966e-06
-4.67623e-06
-4.85006e-06
-5.04214e-06
-5.25337e-06
-5.48452e-06
-5.73624e-06
-6.00909e-06
-6.30349e-06
-6.61976e-06
-6.95806e-06
-7.31846e-06
-7.70083e-06
-8.10497e-06
-8.53048e-06
-8.97684e-06
-9.44336e-06
-9.92921e-06
-1.04334e-05
-1.53047e-06
-1.78357e-06
-2.01494e-06
-2.22538e-06
-2.4158e-06
-2.58724e-06
-2.74083e-06
-2.87789e-06
-2.99982e-06
-3.10799e-06
-3.204e-06
-3.28947e-06
-3.36607e-06
-3.43553e-06
-3.49961e-06
-3.56012e-06
-3.61892e-06
-3.67781e-06
-3.73874e-06