/*--------------------------------*- C++ -*----------------------------------*\
| =========                 |                                                 |
| \\      /  F ield         | OpenFOAM: The Open Source CFD Toolbox           |
|  \\    /   O peration     | Version:  2312                                  |
|   \\  /    A nd           | Website:  www.openfoam.com                      |
|    \\/     M anipulation  |                                                 |
\*---------------------------------------------------------------------------*/
FoamFile
{
    version     2.0;
    format      ascii;
    arch        "LSB;label=32;scalar=64";
    class       volScalarField;
    location    "157";
    object      p;
}
// * * * * * * * * * * * * * * * * * * * * * * * * * * * * * * * * * * * * * //

dimensions      [0 2 -2 0 0 0 0];

internalField   nonuniform List<scalar> 
4800
(
-2.13615e-11
-1.04113e-06
-1.88829e-06
-2.6008e-06
-3.21229e-06
-3.75423e-06
-4.23365e-06
-4.66146e-06
-5.04876e-06
-5.40183e-06
-5.72531e-06
-6.01945e-06
-6.2762e-06
-6.73492e-06
-8.34794e-06
1.19282e-08
-1.02867e-06
-1.87556e-06
-2.5882e-06
-3.20057e-06
-3.74391e-06
-4.22558e-06
-4.65672e-06
-5.04927e-06
-5.41147e-06
-5.75266e-06
-6.0864e-06
-6.42481e-06
-6.87439e-06
-7.67516e-06
2.43316e-08
-1.01554e-06
-1.86217e-06
-2.57508e-06
-3.18726e-06
-3.73144e-06
-4.21488e-06
-4.64859e-06
-5.04521e-06
-5.41376e-06
-5.76469e-06
-6.11201e-06
-6.46189e-06
-6.81949e-06
-7.15648e-06
3.67463e-08
-1.00179e-06
-1.8476e-06
-2.56062e-06
-3.17159e-06
-3.71588e-06
-4.20033e-06
-4.63503e-06
-5.03276e-06
-5.40183e-06
-5.74992e-06
-6.08222e-06
-6.38862e-06
-6.63519e-06
-6.74899e-06
5.04529e-08
-9.86014e-07
-1.83028e-06
-2.54256e-06
-3.15246e-06
-3.69491e-06
-4.17903e-06
-4.61255e-06
-5.00725e-06
-5.36945e-06
-5.70179e-06
-5.99977e-06
-6.24239e-06
-6.38927e-06
-6.38397e-06
6.69354e-08
-9.66707e-07
-1.80864e-06
-2.5188e-06
-3.12794e-06
-3.66605e-06
-4.14738e-06
-4.57642e-06
-4.96266e-06
-5.30949e-06
-5.61434e-06
-5.8664e-06
-6.04284e-06
-6.11284e-06
-6.04763e-06
8.86433e-08
-9.41484e-07
-1.78019e-06
-2.4869e-06
-3.09361e-06
-3.62609e-06
-4.10083e-06
-4.52076e-06
-4.8921e-06
-5.21519e-06
-5.48396e-06
-5.68602e-06
-5.80371e-06
-5.82082e-06
-5.72981e-06
1.19831e-07
-9.06332e-07
-1.74084e-06
-2.44273e-06
-3.04431e-06
-3.5695e-06
-4.03329e-06
-4.4386e-06
-4.78853e-06
-5.08124e-06
-5.30988e-06
-5.46468e-06
-5.53602e-06
-5.52023e-06
-5.4215e-06
1.67073e-07
-8.55081e-07
-1.68449e-06
-2.37995e-06
-2.97388e-06
-3.48846e-06
-3.93688e-06
-4.32217e-06
-4.64534e-06
-4.90404e-06
-5.09324e-06
-5.20802e-06
-5.24635e-06
-5.21264e-06
-5.11592e-06
2.39309e-07
-7.79202e-07
-1.60273e-06
-2.29001e-06
-2.87357e-06
-3.37391e-06
-3.80282e-06
-4.16364e-06
-4.45691e-06
-4.6815e-06
-4.8357e-06
-4.91971e-06
-4.93698e-06
-4.896e-06
-4.80682e-06
3.47289e-07
-6.68113e-07
-1.48499e-06
-2.16238e-06
-2.73286e-06
-3.21577e-06
-3.62198e-06
-3.95579e-06
-4.21886e-06
-4.41241e-06
-4.53841e-06
-4.60107e-06
-4.60703e-06
-4.56612e-06
-4.48772e-06
5.02981e-07
-5.09735e-07
-1.31908e-06
-1.98494e-06
-2.54018e-06
-3.00354e-06
-3.38568e-06
-3.6925e-06
-3.92791e-06
-4.09592e-06
-4.20149e-06
-4.25139e-06
-4.25362e-06
-4.21785e-06
-4.15218e-06
7.19898e-07
-2.90317e-07
-1.09133e-06
-1.74424e-06
-2.28324e-06
-2.72675e-06
-3.08585e-06
-3.36854e-06
-3.58133e-06
-3.73072e-06
-3.82371e-06
-3.8683e-06
-3.8727e-06
-3.84568e-06
-3.79405e-06
1.0141e-06
6.67933e-09
-7.85756e-07
-1.4256e-06
-1.94895e-06
-2.37438e-06
-2.71411e-06
-2.97817e-06
-3.1753e-06
-3.31381e-06
-3.40182e-06
-3.44762e-06
-3.45901e-06
-3.4437e-06
-3.40734e-06
1.40456e-06
4.00818e-07
-3.83325e-07
-1.01211e-06
-1.52253e-06
-1.93404e-06
-2.26051e-06
-2.51357e-06
-2.70336e-06
-2.83918e-06
-2.92958e-06
-2.98266e-06
-3.00555e-06
-3.00493e-06
-2.98559e-06
1.91208e-06
9.13157e-07
1.36366e-07
-4.85257e-07
-9.87865e-07
-1.39215e-06
-1.71354e-06
-1.9647e-06
-2.15636e-06
-2.29808e-06
-2.3983e-06
-2.46474e-06
-2.50389e-06
-2.52159e-06
-2.52199e-06
2.5559e-06
1.56343e-06
7.90635e-07
1.70659e-07
-3.30946e-07
-7.36173e-07
-1.06189e-06
-1.3212e-06
-1.52465e-06
-1.68137e-06
-1.79942e-06
-1.88595e-06
-1.94696e-06
-1.98763e-06
-2.01173e-06
3.3477e-06
2.36542e-06
1.59135e-06
9.66625e-07
4.58534e-07
4.29842e-08
-2.97561e-07
-5.7584e-07
-8.01656e-07
-9.8336e-07
-1.12833e-06
-1.24315e-06
-1.33329e-06
-1.40343e-06
-1.45703e-06
4.2837e-06
3.3214e-06
2.54296e-06
1.90735e-06
1.38397e-06
9.48315e-07
5.82655e-07
2.74954e-07
1.64428e-08
-2.00267e-07
-3.81801e-07
-5.34078e-07
-6.62098e-07
-7.70071e-07
-8.613e-07
5.33337e-06
4.40245e-06
3.62712e-06
2.98015e-06
2.43618e-06
1.97248e-06
1.573e-06
1.22725e-06
9.27492e-07
6.67101e-07
4.40137e-07
2.41358e-07
6.63071e-08
-8.87634e-08
-2.27011e-07
6.37804e-06
5.47776e-06
4.71136e-06
4.05466e-06
3.48571e-06
2.98732e-06
2.5473e-06
2.15688e-06
1.80915e-06
1.49824e-06
1.219e-06
9.66951e-07
7.38228e-07
5.29562e-07
3.3811e-07
7.2684e-06
6.39463e-06
5.637e-06
4.97211e-06
4.38129e-06
3.85221e-06
3.37597e-06
2.94529e-06
2.55398e-06
2.19682e-06
1.86937e-06
1.56786e-06
1.28897e-06
1.02992e-06
7.88243e-07
7.9239e-06
7.08676e-06
6.34203e-06
5.67375e-06
5.0689e-06
4.51846e-06
4.01537e-06
3.5534e-06
3.12717e-06
2.73221e-06
2.36477e-06
2.02168e-06
1.70016e-06
1.39793e-06
1.11291e-06
8.40079e-06
7.59759e-06
6.8678e-06
6.2013e-06
5.58948e-06
5.02539e-06
4.50308e-06
4.01735e-06
3.56372e-06
3.13851e-06
2.73863e-06
2.36149e-06
2.00485e-06
1.66683e-06
1.34577e-06
8.737e-06
7.96383e-06
7.25043e-06
6.59001e-06
5.97654e-06
5.40452e-06
4.86904e-06
4.36589e-06
3.89148e-06
3.44285e-06
3.01751e-06
2.61338e-06
2.22868e-06
1.86195e-06
1.51183e-06
8.96648e-06
8.22102e-06
7.52493e-06
6.87325e-06
6.26161e-06
5.68574e-06
5.14176e-06
4.6263e-06
4.13656e-06
3.67021e-06
3.22528e-06
2.80016e-06
2.39347e-06
2.0041e-06
1.63097e-06
9.11957e-06
8.39967e-06
7.72055e-06
7.07865e-06
6.47088e-06
5.89395e-06
5.34481e-06
4.82088e-06
4.31998e-06
3.84034e-06
3.38046e-06
2.93913e-06
2.51533e-06
2.10823e-06
1.71704e-06
9.21974e-06
8.52286e-06
7.85959e-06
7.22763e-06
6.6248e-06
6.04855e-06
5.49654e-06
4.96683e-06
4.45782e-06
3.96819e-06
3.49687e-06
3.04298e-06
2.60581e-06
2.1848e-06
1.77941e-06
9.28406e-06
8.60754e-06
7.95874e-06
7.33638e-06
6.73886e-06
6.16421e-06
5.61074e-06
5.07706e-06
4.56206e-06
4.06482e-06
3.5846e-06
3.12085e-06
2.67311e-06
2.24107e-06
1.82441e-06
9.32462e-06
8.66596e-06
8.03017e-06
7.41671e-06
6.82435e-06
6.25168e-06
5.69755e-06
5.16107e-06
4.6415e-06
4.13828e-06
3.65099e-06
3.17932e-06
2.72308e-06
2.28215e-06
1.85639e-06
9.34982e-06
8.70674e-06
8.08249e-06
7.477e-06
6.88938e-06
6.31873e-06
5.76436e-06
5.22578e-06
4.70259e-06
4.19453e-06
3.70144e-06
3.22328e-06
2.76002e-06
2.31176e-06
1.8785e-06
9.36535e-06
8.73578e-06
8.12166e-06
7.52318e-06
6.93977e-06
6.37098e-06
5.81655e-06
5.27627e-06
4.75007e-06
4.23795e-06
3.73999e-06
3.25634e-06
2.78716e-06
2.33272e-06
1.89316e-06
9.37499e-06
8.7571e-06
8.15179e-06
7.55938e-06
6.97963e-06
6.41248e-06
5.85799e-06
5.31625e-06
4.78745e-06
4.27181e-06
3.76963e-06
3.28124e-06
2.80697e-06
2.34722e-06
1.90225e-06
9.3811e-06
8.77335e-06
8.17568e-06
7.58849e-06
7.01186e-06
6.44609e-06
5.89149e-06
5.34842e-06
4.81728e-06
4.29853e-06
3.79262e-06
3.30006e-06
2.82132e-06
2.35691e-06
1.90723e-06
9.38512e-06
8.78625e-06
8.19519e-06
7.61246e-06
7.03849e-06
6.47383e-06
5.91905e-06
5.37472e-06
4.84145e-06
4.31988e-06
3.81063e-06
3.31435e-06
2.83163e-06
2.3631e-06
1.90926e-06
9.38797e-06
8.79688e-06
8.21153e-06
7.63263e-06
7.06089e-06
6.49711e-06
5.94205e-06
5.39652e-06
4.86128e-06
4.33714e-06
3.82487e-06
3.32524e-06
2.83897e-06
2.36676e-06
1.90922e-06
9.39021e-06
8.80591e-06
8.22547e-06
7.64982e-06
7.07994e-06
6.51683e-06
5.96145e-06
5.41476e-06
4.87771e-06
4.35124e-06
3.83623e-06
3.33358e-06
2.84411e-06
2.36862e-06
1.90777e-06
9.39219e-06
8.81383e-06
8.23761e-06
7.66476e-06
7.09644e-06
6.53385e-06
5.9781e-06
5.43031e-06
4.89158e-06
4.36295e-06
3.84545e-06
3.34005e-06
2.84767e-06
2.36918e-06
1.90535e-06
9.39417e-06
8.82128e-06
8.24891e-06
7.67858e-06
7.11165e-06
6.54945e-06
5.99328e-06
5.4444e-06
4.90401e-06
4.37329e-06
3.85337e-06
3.34532e-06
2.85013e-06
2.36877e-06
1.90206e-06
9.39614e-06
8.82838e-06
8.25968e-06
7.69172e-06
7.12602e-06
6.56409e-06
6.00738e-06
5.4573e-06
4.91521e-06
4.38242e-06
3.86014e-06
3.34957e-06
2.85178e-06
2.3678e-06
1.89844e-06
-9.57105e-06
-7.18988e-06
-5.74506e-06
-4.78065e-06
-4.01984e-06
-3.44659e-06
-3.01197e-06
-2.68174e-06
-2.43147e-06
-2.24059e-06
-2.09101e-06
-1.96598e-06
-1.84933e-06
-1.72544e-06
-1.57909e-06
-1.39711e-06
-1.16989e-06
-8.9795e-07
-5.94471e-07
-2.98153e-07
-7.23045e-08
5.90697e-09
-1.06072e-07
-2.98856e-07
-4.29259e-07
-4.13557e-07
-2.02322e-07
2.25463e-07
8.83505e-07
1.7766e-06
2.90857e-06
4.27203e-06
5.84568e-06
7.60472e-06
9.5086e-06
1.1508e-05
1.35445e-05
1.55509e-05
1.74472e-05
1.91332e-05
2.04685e-05
2.12536e-05
2.10556e-05
1.95031e-05
1.50741e-05
-7.94571e-06
-6.67496e-06
-5.56606e-06
-4.70056e-06
-3.98423e-06
-3.42555e-06
-2.99592e-06
-2.66767e-06
-2.41861e-06
-2.22894e-06
-2.08073e-06
-1.95716e-06
-1.84196e-06
-1.71945e-06
-1.57442e-06
-1.3938e-06
-1.16808e-06
-8.97779e-07
-5.9566e-07
-2.99493e-07
-7.09425e-08
1.49704e-08
-8.41765e-08
-2.62558e-07
-3.80224e-07
-3.54988e-07
-1.37775e-07
2.92371e-07
9.488e-07
1.83567e-06
2.95583e-06
4.30006e-06
5.844e-06
7.56067e-06
9.40608e-06
1.13262e-05
1.32559e-05
1.51178e-05
1.68156e-05
1.82206e-05
1.9138e-05
1.92576e-05
1.79667e-05
1.45311e-05
7.8032e-06
-7.09771e-06
-6.28154e-06
-5.3826e-06
-4.60735e-06
-3.94044e-06
-3.40201e-06
-2.98021e-06
-2.65501e-06
-2.40727e-06
-2.21852e-06
-2.07124e-06
-1.94866e-06
-1.83443e-06
-1.71287e-06
-1.56884e-06
-1.38936e-06
-1.16509e-06
-8.96562e-07
-5.96034e-07
-3.00313e-07
-6.91651e-08
2.49032e-08
-6.02307e-08
-2.22656e-07
-3.26169e-07
-2.90421e-07
-6.68761e-08
3.65227e-07
1.01861e-06
1.89668e-06
3.00091e-06
4.31998e-06
5.8254e-06
7.48762e-06
9.25834e-06
1.10777e-05
1.28729e-05
1.45551e-05
1.60116e-05
1.70907e-05
1.75672e-05
1.71045e-05
1.5165e-05
1.13385e-05
5.40604e-06
-6.56906e-06
-5.9647e-06
-5.23035e-06
-4.52621e-06
-3.90627e-06
-3.38884e-06
-2.97443e-06
-2.651e-06
-2.40288e-06
-2.21328e-06
-2.06534e-06
-1.94242e-06
-1.82811e-06
-1.70671e-06
-1.56312e-06
-1.38446e-06
-1.16153e-06
-8.94834e-07
-5.96056e-07
-3.00922e-07
-6.7134e-08
3.56168e-08
-3.43177e-08
-1.79227e-07
-2.66983e-07
-2.19282e-07
1.17053e-08
4.46369e-07
1.09652e-06
1.96423e-06
3.0499e-06
4.33902e-06
5.79795e-06
7.39409e-06
9.07407e-06
1.07715e-05
1.24055e-05
1.38769e-05
1.50611e-05
1.5796e-05
1.58623e-05
1.4976e-05
1.2789e-05
9.11316e-06
4.19114e-06
-6.16575e-06
-5.69121e-06
-5.08543e-06
-4.46509e-06
-3.88827e-06
-3.39128e-06
-2.98324e-06
-2.65953e-06
-2.4084e-06
-2.21523e-06
-2.06415e-06
-1.93878e-06
-1.82269e-06
-1.70016e-06
-1.55617e-06
-1.37786e-06
-1.1562e-06
-8.91603e-07
-5.95033e-07
-3.00972e-07
-6.47906e-08
4.70401e-08
-6.45453e-09
-1.32246e-07
-2.02781e-07
-1.42064e-07
9.67971e-08
5.33679e-07
1.179e-06
2.03187e-06
3.09567e-06
4.34723e-06
5.74915e-06
7.26551e-06
8.83758e-06
1.03927e-05
1.18431e-05
1.3083e-05
1.39843e-05
1.43916e-05
1.41193e-05
1.29688e-05
1.0767e-05
7.50273e-06
3.48723e-06
-5.83207e-06
-5.44777e-06
-4.94373e-06
-4.40798e-06
-3.88267e-06
-3.4083e-06
-3.00761e-06
-2.68265e-06
-2.42624e-06
-2.22662e-06
-2.06948e-06
-1.93895e-06
-1.81879e-06
-1.69335e-06
-1.54771e-06
-1.36905e-06
-1.14848e-06
-8.86284e-07
-5.92513e-07
-3.00218e-07
-6.21177e-08
5.90281e-08
2.31717e-08
-8.19198e-08
-1.33877e-07
-5.93297e-08
1.87409e-07
6.25796e-07
1.26219e-06
2.09553e-06
3.13317e-06
4.33705e-06
5.6696e-06
7.09099e-06
8.53752e-06
9.93143e-06
1.11811e-05
1.21796e-05
1.28052e-05
1.29238e-05
1.23988e-05
1.11172e-05
9.03098e-06
6.23193e-06
3.00374e-06
-5.53268e-06
-5.21811e-06
-4.80362e-06
-4.33849e-06
-3.87249e-06
-3.43168e-06
-3.043e-06
-2.71843e-06
-2.45614e-06
-2.24817e-06
-2.08241e-06
-1.94399e-06
-1.81716e-06
-1.68666e-06
-1.53783e-06
-1.35788e-06
-1.1381e-06
-8.78608e-07
-5.88295e-07
-2.98607e-07
-5.92614e-08
7.12503e-08
5.4122e-08
-2.87798e-08
-6.09498e-08
2.79791e-08
2.82315e-07
7.20339e-07
1.33997e-06
2.15538e-06
3.15756e-06
4.30154e-06
5.55136e-06
6.86204e-06
8.16617e-06
9.38323e-06
1.04215e-05
1.11802e-05
1.15521e-05
1.14337e-05
1.0739e-05
9.4237e-06
7.51256e-06
5.12953e-06
2.50071e-06
-5.24674e-06
-4.98751e-06
-4.64848e-06
-4.25558e-06
-3.84357e-06
-3.44507e-06
-3.07847e-06
-2.75954e-06
-2.49321e-06
-2.27709e-06
-2.10168e-06
-1.95334e-06
-1.81753e-06
-1.67989e-06
-1.52627e-06
-1.34403e-06
-1.12477e-06
-8.68403e-07
-5.82324e-07
-2.96287e-07
-5.66279e-08
8.30454e-08
8.5547e-08
2.61332e-08
1.46809e-08
1.18157e-07
3.79204e-07
8.08474e-07
1.41426e-06
2.20841e-06
3.16001e-06
4.23139e-06
5.38493e-06
6.56965e-06
7.71669e-06
8.74624e-06
9.57122e-06
1.01023e-05
1.02534e-05
9.95353e-06
9.15989e-06
7.87396e-06
6.15398e-06
4.12012e-06
1.94231e-06
-4.96345e-06
-4.74882e-06
-4.4718e-06
-4.14521e-06
-3.79128e-06
-3.43525e-06
-3.09831e-06
-2.79422e-06
-2.52806e-06
-2.30658e-06
-2.12291e-06
-1.96413e-06
-1.81799e-06
-1.67173e-06
-1.51213e-06
-1.32692e-06
-1.10814e-06
-8.55623e-07
-5.74778e-07
-2.93753e-07
-5.50646e-08
9.32055e-08
1.15935e-07
8.09896e-08
9.0681e-08
2.08448e-07
4.71597e-07
8.89833e-07
1.48457e-06
2.24028e-06
3.1287e-06
4.1161e-06
5.15949e-06
6.20439e-06
7.1832e-06
8.02045e-06
8.63876e-06
8.9637e-06
8.93265e-06
8.50383e-06
7.66592e-06
6.44578e-06
4.91092e-06
3.16422e-06
1.33003e-06
-4.67562e-06
-4.49773e-06
-4.27144e-06
-4.00251e-06
-3.70419e-06
-3.39444e-06
-3.09114e-06
-2.80677e-06
-2.54929e-06
-2.3279e-06
-2.13934e-06
-1.97119e-06
-1.81476e-06
-1.65964e-06
-1.49379e-06
-1.30559e-06
-1.0879e-06
-8.40555e-07
-5.66168e-07
-2.92058e-07
-5.61272e-08
9.96735e-08
1.42744e-07
1.32737e-07
1.63246e-07
2.93115e-07
5.54987e-07
9.66657e-07
1.53284e-06
2.23715e-06
3.05306e-06
3.94387e-06
4.86361e-06
5.75737e-06
6.5616e-06
7.20902e-06
7.63437e-06
7.78067e-06
7.60685e-06
7.09408e-06
6.25069e-06
5.11416e-06
3.7485e-06
2.23639e-06
6.67996e-07
-4.37674e-06
-4.22996e-06
-4.04559e-06
-3.82578e-06
-3.57786e-06
-3.31377e-06
-3.04717e-06
-2.78735e-06
-2.54677e-06
-2.33081e-06
-2.14101e-06
-1.96726e-06
-1.8027e-06
-1.64015e-06
-1.46915e-06
-1.27905e-06
-1.06387e-06
-8.2413e-07
-5.57894e-07
-2.93074e-07
-6.23769e-08
9.9163e-08
1.61929e-07
1.76565e-07
2.26132e-07
3.66199e-07
6.25664e-07
1.0202e-06
1.54695e-06
2.1896e-06
2.92067e-06
3.70168e-06
4.48599e-06
5.22114e-06
5.85e-06
6.31651e-06
6.56863e-06
6.56632e-06
6.28627e-06
5.72529e-06
4.90184e-06
3.85484e-06
2.63941e-06
1.31964e-06
-3.90073e-08
-4.0605e-06
-3.94083e-06
-3.79178e-06
-3.61375e-06
-3.41036e-06
-3.18902e-06
-2.95894e-06
-2.7292e-06
-2.50979e-06
-2.30634e-06
-2.11909e-06
-1.94408e-06
-1.77642e-06
-1.60992e-06
-1.43638e-06
-1.24706e-06
-1.03679e-06
-8.05073e-07
-5.53266e-07
-3.01392e-07
-7.78372e-08
8.6759e-08
1.67433e-07
2.05194e-07
2.7161e-07
4.17681e-07
6.69203e-07
1.03665e-06
1.51399e-06
2.08334e-06
2.71677e-06
3.37607e-06
4.0164e-06
4.58996e-06
5.05e-06
5.35004e-06
5.45214e-06
5.33098e-06
4.9762e-06
4.39377e-06
3.60562e-06
2.6472e-06
1.56341e-06
4.02894e-07
-7.86585e-07
-3.72103e-06
-3.62571e-06
-3.50723e-06
-3.36522e-06
-3.20122e-06
-3.01954e-06
-2.82652e-06
-2.62922e-06
-2.43434e-06
-2.24707e-06
-2.0689e-06
-1.89856e-06
-1.73278e-06
-1.56712e-06
-1.39536e-06
-1.21062e-06
-1.00816e-06
-7.88004e-07
-5.56897e-07
-3.21007e-07
-1.08579e-07
5.54847e-08
1.50721e-07
2.08523e-07
2.8804e-07
4.34292e-07
6.69634e-07
1.00002e-06
1.41736e-06
1.90205e-06
2.4265e-06
2.95535e-06
3.44773e-06
3.86483e-06
4.16675e-06
4.31888e-06
4.29588e-06
4.08357e-06
3.67995e-06
3.09522e-06
2.35075e-06
1.47646e-06
5.07571e-07
-5.19436e-07
-1.56961e-06
-3.35285e-06
-3.28023e-06
-3.1892e-06
-3.07914e-06
-2.95046e-06
-2.80553e-06
-2.64833e-06
-2.48371e-06
-2.31651e-06
-2.15046e-06
-1.98771e-06
-1.82849e-06
-1.67093e-06
-1.51213e-06
-1.34793e-06
-1.17345e-06
-9.844e-07
-7.82465e-07
-5.72802e-07
-3.5786e-07
-1.62227e-07
-3.99732e-09
1.00508e-07
1.73301e-07
2.60281e-07
3.99196e-07
6.08983e-07
8.9194e-07
1.23848e-06
1.62912e-06
2.03739e-06
2.43237e-06
2.78152e-06
3.05051e-06
3.2098e-06
3.23583e-06
3.11287e-06
2.83418e-06
2.4023e-06
1.82853e-06
1.13159e-06
3.35469e-07
-5.32949e-07
-1.44661e-06
-2.37987e-06
-2.95039e-06
-2.90017e-06
-2.83509e-06
-2.75463e-06
-2.65865e-06
-2.54828e-06
-2.42592e-06
-2.29465e-06
-2.15774e-06
-2.01789e-06
-1.87678e-06
-1.73546e-06
-1.59362e-06
-1.44932e-06
-1.29986e-06
-1.1422e-06
-9.73833e-07
-7.95378e-07
-6.10032e-07
-4.22872e-07
-2.49768e-07
-1.03901e-07
2.48143e-09
8.30605e-08
1.70137e-07
2.92969e-07
4.66976e-07
6.92899e-07
9.60024e-07
1.25081e-06
1.54359e-06
1.81009e-06
2.02307e-06
2.15815e-06
2.195e-06
2.11846e-06
1.91949e-06
1.5958e-06
1.15183e-06
5.98056e-07
-5.01996e-08
-7.74436e-07
-1.5546e-06
-2.37081e-06
-3.20428e-06
-2.50817e-06
-2.48166e-06
-2.44296e-06
-2.39173e-06
-2.32767e-06
-2.25125e-06
-2.16375e-06
-2.06721e-06
-1.96355e-06
-1.85478e-06
-1.74315e-06
-1.62655e-06
-1.50677e-06
-1.38582e-06
-1.26042e-06
-1.12736e-06
-9.85961e-07
-8.37207e-07
-6.83766e-07
-5.29797e-07
-3.85138e-07
-2.59223e-07
-1.60581e-07
-8.18377e-08
-3.4071e-09
9.41742e-08
2.23134e-07
3.85589e-07
5.70991e-07
7.641e-07
9.43981e-07
1.09015e-06
1.18287e-06
1.20492e-06
1.14283e-06
9.87536e-07
7.3455e-07
3.84024e-07
-5.93351e-08
-5.86802e-07
-1.18653e-06
-1.84471e-06
-2.54668e-06
-3.27797e-06
-4.02486e-06
-2.0228e-06
-2.02303e-06
-2.01311e-06
-1.99287e-06
-1.96208e-06
-1.9209e-06
-1.87009e-06
-1.81054e-06
-1.74391e-06
-1.66926e-06
-1.58928e-06
-1.5097e-06
-1.42525e-06
-1.33626e-06
-1.24249e-06
-1.14189e-06
-1.03552e-06
-9.24346e-07
-8.09796e-07
-6.94938e-07
-5.85255e-07
-4.87144e-07
-4.06976e-07
-3.41796e-07
-2.83264e-07
-2.19766e-07
-1.38008e-07
-3.8273e-08
6.76008e-08
1.65045e-07
2.41647e-07
2.83985e-07
2.77858e-07
2.11063e-07
7.48862e-08
-1.35734e-07
-4.22562e-07
-7.84295e-07
-1.21674e-06
-1.71316e-06
-2.26483e-06
-2.86176e-06
-3.49343e-06
-4.14942e-06
-4.81976e-06
-1.49824e-06
-1.52989e-06
-1.55287e-06
-1.56725e-06
-1.573e-06
-1.57021e-06
-1.55918e-06
-1.54049e-06
-1.51472e-06
-1.48287e-06
-1.44634e-06
-1.40799e-06
-1.36493e-06
-1.31588e-06
-1.26213e-06
-1.20375e-06
-1.14137e-06
-1.07533e-06
-1.00641e-06
-9.36657e-07
-8.68975e-07
-8.07036e-07
-7.54323e-07
-7.14278e-07
-6.87275e-07
-6.59976e-07
-6.23751e-07
-5.85367e-07
-5.5611e-07
-5.41762e-07
-5.49632e-07
-5.89346e-07
-6.70655e-07
-8.01576e-07
-9.87549e-07
-1.23141e-06
-1.53366e-06
-1.89276e-06
-2.30535e-06
-2.76653e-06
-3.27013e-06
-3.80912e-06
-4.37611e-06
-4.96369e-06
-5.56469e-06
-9.40432e-07
-1.01083e-06
-1.07349e-06
-1.12874e-06
-1.17681e-06
-1.21793e-06
-1.25238e-06
-1.28056e-06
-1.30302e-06
-1.3204e-06
-1.3333e-06
-1.34212e-06
-1.34648e-06
-1.34649e-06
-1.34282e-06
-1.33551e-06
-1.32456e-06
-1.31017e-06
-1.29296e-06
-1.27379e-06
-1.25443e-06
-1.2369e-06
-1.22205e-06
-1.21527e-06
-1.21757e-06
-1.22533e-06
-1.23403e-06
-1.25386e-06
-1.28711e-06
-1.33593e-06
-1.40598e-06
-1.50408e-06
-1.63625e-06
-1.80727e-06
-2.02053e-06
-2.27785e-06
-2.57937e-06
-2.92378e-06
-3.3086e-06
-3.73043e-06
-4.18511e-06
-4.66792e-06
-5.17374e-06
-5.6974e-06
-6.23379e-06
-3.53834e-07
-4.73132e-07
-5.85608e-07
-6.91431e-07
-7.90972e-07
-8.84609e-07
-9.72663e-07
-1.05542e-06
-1.13319e-06
-1.20624e-06
-1.27487e-06
-1.33932e-06
-1.39985e-06
-1.45666e-06
-1.50982e-06
-1.55924e-06
-1.60475e-06
-1.64663e-06
-1.68476e-06
-1.71977e-06
-1.75266e-06
-1.78377e-06
-1.81762e-06
-1.84803e-06
-1.88522e-06
-1.91588e-06
-1.96224e-06
-2.02462e-06
-2.09972e-06
-2.1894e-06
-2.29823e-06
-2.43049e-06
-2.58949e-06
-2.77798e-06
-2.99824e-06
-3.25165e-06
-3.53846e-06
-3.85779e-06
-4.20797e-06
-4.58673e-06
-4.99139e-06
-5.41892e-06
-5.86597e-06
-6.32903e-06
-6.8045e-06
1.58488e-07
-1.35397e-08
-1.78907e-07
-3.37947e-07
-4.91143e-07
-6.38905e-07
-7.81514e-07
-9.19163e-07
-1.05202e-06
-1.18024e-06
-1.30402e-06
-1.42352e-06
-1.53885e-06
-1.64999e-06
-1.75685e-06
-1.85924e-06
-1.957e-06
-2.04988e-06
-2.13771e-06
-2.22081e-06
-2.29905e-06
-2.37532e-06
-2.45064e-06
-2.52e-06
-2.57241e-06
-2.63396e-06
-2.70892e-06
-2.79516e-06
-2.892e-06
-3.00158e-06
-3.12685e-06
-3.27037e-06
-3.43439e-06
-3.62102e-06
-3.83204e-06
-4.06853e-06
-4.33077e-06
-4.61834e-06
-4.93031e-06
-5.26532e-06
-5.62173e-06
-5.99759e-06
-6.39075e-06
-6.79889e-06
-7.21958e-06
5.58693e-07
3.36778e-07
1.21503e-07
-8.73849e-08
-2.90292e-07
-4.87546e-07
-6.79344e-07
-8.65791e-07
-1.04696e-06
-1.22292e-06
-1.39373e-06
-1.5594e-06
-1.71991e-06
-1.87513e-06
-2.02487e-06
-2.16888e-06
-2.3068e-06
-2.43831e-06
-2.56322e-06
-2.6812e-06
-2.79331e-06
-2.90087e-06
-2.9998e-06
-3.08952e-06
-3.17167e-06
-3.25618e-06
-3.34533e-06
-3.44099e-06
-3.54531e-06
-3.66025e-06
-3.78772e-06
-3.92965e-06
-4.08794e-06
-4.26432e-06
-4.46016e-06
-4.67639e-06
-4.91333e-06
-5.17088e-06
-5.4486e-06
-5.74578e-06
-6.06145e-06
-6.39443e-06
-6.74335e-06
-7.1067e-06
-7.48287e-06
8.40277e-07
5.75658e-07
3.18065e-07
6.73253e-08
-1.76835e-07
-4.14615e-07
-6.46109e-07
-8.71331e-07
-1.09027e-06
-1.3029e-06
-1.50919e-06
-1.70906e-06
-1.90239e-06
-2.08898e-06
-2.2686e-06
-2.44092e-06
-2.60558e-06
-2.76226e-06
-2.91073e-06
-3.05089e-06
-3.18344e-06
-3.30853e-06
-3.4235e-06
-3.52699e-06
-3.62341e-06
-3.71666e-06
-3.81039e-06
-3.90828e-06
-4.01297e-06
-4.12628e-06
-4.24998e-06
-4.38589e-06
-4.5357e-06
-4.70082e-06
-4.88235e-06
-5.08105e-06
-5.29739e-06
-5.53155e-06
-5.78346e-06
-6.05279e-06
-6.339e-06
-6.64134e-06
-6.95892e-06
-7.29072e-06
-7.63562e-06
1.03733e-06
7.37455e-07
4.45256e-07
1.60661e-07
-1.16471e-07
-3.86209e-07
-6.48538e-07
-9.03387e-07
-1.15067e-06
-1.39031e-06
-1.62219e-06
-1.84618e-06
-2.06213e-06
-2.26981e-06
-2.46897e-06
-2.65932e-06
-2.84058e-06
-3.01248e-06
-3.17487e-06
-3.32782e-06
-3.4718e-06
-3.60761e-06
-3.73164e-06
-3.84357e-06
-3.94585e-06
-4.04284e-06
-4.13896e-06
-4.23772e-06
-4.3416e-06
-4.45251e-06
-4.57229e-06
-4.70263e-06
-4.84504e-06
-5.00077e-06
-5.17083e-06
-5.35604e-06
-5.55699e-06
-5.77403e-06
-6.0073e-06
-6.25674e-06
-6.52211e-06
-6.80301e-06
-7.09887e-06
-7.40898e-06
-7.73259e-06
1.17454e-06
8.46464e-07
5.2686e-07
2.15759e-07
-8.6857e-08
-3.80944e-07
-6.66398e-07
-9.43085e-07
-1.21087e-06
-1.46962e-06
-1.7192e-06
-1.95945e-06
-2.19021e-06
-2.41128e-06
-2.62246e-06
-2.82352e-06
-3.0143e-06
-3.19464e-06
-3.36452e-06
-3.52409e-06
-3.67402e-06
-3.81528e-06
-3.94481e-06
-4.06071e-06
-4.16624e-06
-4.26611e-06
-4.36419e-06
-4.46354e-06
-4.56662e-06
-4.67551e-06
-4.79208e-06
-4.91797e-06
-5.05457e-06
-5.20311e-06
-5.36464e-06
-5.54002e-06
-5.72996e-06
-5.93496e-06
-6.15535e-06
-6.39124e-06
-6.64261e-06
-6.90925e-06
-7.19081e-06
-7.48685e-06
-7.79686e-06
1.27087e-06
9.20669e-07
5.79792e-07
2.4836e-07
-7.35466e-08
-3.85792e-07
-6.88203e-07
-9.80595e-07
-1.2628e-06
-1.53467e-06
-1.79605e-06
-2.0468e-06
-2.28678e-06
-2.51584e-06
-2.73385e-06
-2.94069e-06
-3.13632e-06
-3.32074e-06
-3.49409e-06
-3.65665e-06
-3.80916e-06
-3.95302e-06
-4.0848e-06
-4.20297e-06
-4.31102e-06
-4.41311e-06
-4.51265e-06
-4.61251e-06
-4.71518e-06
-4.82281e-06
-4.93722e-06
-5.06001e-06
-5.1926e-06
-5.33624e-06
-5.49203e-06
-5.66093e-06
-5.84371e-06
-6.04096e-06
-6.25312e-06
-6.48043e-06
-6.72302e-06
-6.98084e-06
-7.25377e-06
-7.54153e-06
-7.84379e-06
1.33906e-06
9.71668e-07
6.14449e-07
2.67589e-07
-6.87467e-08
-3.9435e-07
-7.08995e-07
-1.01247e-06
-1.3046e-06
-1.58522e-06
-1.8542e-06
-2.11143e-06
-2.3568e-06
-2.59022e-06
-2.81168e-06
-3.02115e-06
-3.21871e-06
-3.40453e-06
-3.57893e-06
-3.74244e-06
-3.89558e-06
-4.03989e-06
-4.17239e-06
-4.29198e-06
-4.40179e-06
-4.50551e-06
-4.60624e-06
-4.70677e-06
-4.80953e-06
-4.9166e-06
-5.02982e-06
-5.1508e-06
-5.281e-06
-5.4217e-06
-5.57406e-06
-5.73905e-06
-5.91749e-06
-6.11007e-06
-6.31731e-06
-6.53959e-06
-6.77717e-06
-7.03015e-06
-7.29852e-06
-7.58217e-06
-7.88087e-06
1.38743e-06
1.00668e-06
6.36918e-07
2.78367e-07
-6.87351e-08
-4.04123e-07
-7.27541e-07
-1.03877e-06
-1.33762e-06
-1.62395e-06
-1.89766e-06
-2.15865e-06
-2.40689e-06
-2.64236e-06
-2.86512e-06
-3.07527e-06
-3.27301e-06
-3.45862e-06
-3.63259e-06
-3.79559e-06
-3.94821e-06
-4.0919e-06
-4.22425e-06
-4.3445e-06
-4.45545e-06
-4.56036e-06
-4.66212e-06
-4.76338e-06
-4.86648e-06
-4.9735e-06
-5.08625e-06
-5.20637e-06
-5.33533e-06
-5.47443e-06
-5.62485e-06
-5.78762e-06
-5.96363e-06
-6.15365e-06
-6.35829e-06
-6.57805e-06
-6.81326e-06
-7.06414e-06
-7.33079e-06
-7.61319e-06
-7.91121e-06
1.42134e-06
1.03014e-06
6.50652e-07
2.83166e-07
-7.20268e-08
-4.14621e-07
-7.44346e-07
-1.06098e-06
-1.36434e-06
-1.65431e-06
-1.93081e-06
-2.19379e-06
-2.44327e-06
-2.67931e-06
-2.90206e-06
-3.11171e-06
-3.30857e-06
-3.49301e-06
-3.66564e-06
-3.82702e-06
-3.97861e-06
-4.12105e-06
-4.25261e-06
-4.37294e-06
-4.4845e-06
-4.59019e-06
-4.69272e-06
-4.79462e-06
-4.89817e-06
-5.00538e-06
-5.11806e-06
-5.23784e-06
-5.3662e-06
-5.50449e-06
-5.65392e-06
-5.81558e-06
-5.99044e-06
-6.17931e-06
-6.3829e-06
-6.60177e-06
-6.83634e-06
-7.08691e-06
-7.35367e-06
-7.63666e-06
-7.93585e-06
1.44441e-06
1.04487e-06
6.57733e-07
2.83312e-07
-7.80451e-08
-4.2601e-07
-7.60307e-07
-1.08072e-06
-1.38708e-06
-1.67929e-06
-1.9573e-06
-2.22111e-06
-2.47081e-06
-2.70651e-06
-2.92844e-06
-3.13687e-06
-3.33223e-06
-3.51495e-06
-3.68576e-06
-3.84537e-06
-3.99512e-06
-4.13582e-06
-4.26613e-06
-4.38606e-06
-4.49775e-06
-4.6038e-06
-4.70681e-06
-4.80918e-06
-4.9131e-06
-5.02054e-06
-5.13327e-06
-5.25294e-06
-5.38105e-06
-5.51898e-06
-5.66799e-06
-5.82921e-06
-6.00367e-06
-6.19224e-06
-6.3957e-06
-6.61467e-06
-6.84965e-06
-7.101e-06
-7.36899e-06
-7.65371e-06
-7.95519e-06
1.45922e-06
1.05291e-06
6.59622e-07
2.79717e-07
-8.6425e-08
-4.38463e-07
-7.76121e-07
-1.09919e-06
-1.40753e-06
-1.70105e-06
-1.97975e-06
-2.24366e-06
-2.49293e-06
-2.72774e-06
-2.94838e-06
-3.1552e-06
-3.3487e-06
-3.52941e-06
-3.69812e-06
-3.85552e-06
-4.00328e-06
-4.14195e-06
-4.2707e-06
-4.38982e-06
-4.50123e-06
-4.60729e-06
-4.71048e-06
-4.81309e-06
-4.91722e-06
-5.02478e-06
-5.13755e-06
-5.25717e-06
-5.38516e-06
-5.52294e-06
-5.6718e-06
-5.83292e-06
-6.00738e-06
-6.19611e-06
-6.39994e-06
-6.61956e-06
-6.85553e-06
-7.10828e-06
-7.3781e-06
-7.66517e-06
-7.96954e-06
1.46777e-06
1.05584e-06
6.57502e-07
2.73162e-07
-9.67785e-08
-4.51975e-07
-7.92157e-07
-1.11712e-06
-1.42675e-06
-1.72098e-06
-1.99984e-06
-2.26341e-06
-2.51188e-06
-2.74548e-06
-2.96458e-06
-3.16959e-06
-3.36107e-06
-3.53964e-06
-3.70612e-06
-3.86129e-06
-4.00681e-06
-4.14326e-06
-4.27021e-06
-4.38825e-06
-4.49904e-06
-4.60481e-06
-4.7079e-06
-4.81051e-06
-4.91465e-06
-5.02219e-06
-5.1349e-06
-5.25442e-06
-5.3823e-06
-5.51996e-06
-5.66876e-06
-5.82991e-06
-6.00453e-06
-6.19363e-06
-6.39806e-06
-6.61859e-06
-6.85582e-06
-7.11024e-06
-7.38219e-06
-7.67187e-06
-7.97937e-06
1.47164e-06
1.05495e-06
6.52377e-07
2.64368e-07
-1.08665e-07
-4.66376e-07
-8.08501e-07
-1.13485e-06
-1.44532e-06
-1.73988e-06
-2.01858e-06
-2.28155e-06
-2.52901e-06
-2.76126e-06
-2.97871e-06
-3.18184e-06
-3.37126e-06
-3.54764e-06
-3.71187e-06
-3.86482e-06
-4.00801e-06
-4.14215e-06
-4.26719e-06
-4.38393e-06
-4.49387e-06
-4.5991e-06
-4.70188e-06
-4.80426e-06
-4.90821e-06
-5.01558e-06
-5.12809e-06
-5.24741e-06
-5.3751e-06
-5.51262e-06
-5.66133e-06
-5.82252e-06
-5.99735e-06
-6.18685e-06
-6.39196e-06
-6.61346e-06
-6.85203e-06
-7.10818e-06
-7.38231e-06
-7.67464e-06
-7.9853e-06
1.47209e-06
1.05129e-06
6.45102e-07
2.53989e-07
-1.21623e-07
-4.81392e-07
-8.25059e-07
-1.15245e-06
-1.46347e-06
-1.75812e-06
-2.03647e-06
-2.2987e-06
-2.54507e-06
-2.77593e-06
-2.99172e-06
-3.19297e-06
-3.38036e-06
-3.55461e-06
-3.71664e-06
-3.86738e-06
-4.00828e-06
-4.14012e-06
-4.26319e-06
-4.37851e-06
-4.48743e-06
-4.59195e-06
-4.69421e-06
-4.7962e-06
-4.89979e-06
-5.00682e-06
-5.11901e-06
-5.23802e-06
-5.36542e-06
-5.50271e-06
-5.65129e-06
-5.81247e-06
-5.98744e-06
-6.17732e-06
-6.38305e-06
-6.6055e-06
-6.84535e-06
-7.10318e-06
-7.37941e-06
-7.6743e-06
-7.98799e-06
1.47013e-06
1.04573e-06
6.36394e-07
2.42605e-07
-1.35208e-07
-4.96704e-07
-8.41631e-07
-1.16983e-06
-1.48121e-06
-1.77581e-06
-2.05373e-06
-2.31518e-06
-2.56044e-06
-2.78991e-06
-3.00409e-06
-3.20354e-06
-3.38898e-06
-3.56118e-06
-3.7211e-06
-3.8697e-06
-4.0084e-06
-4.13799e-06
-4.25909e-06
-4.37294e-06
-4.48074e-06
-4.58444e-06
-4.68605e-06
-4.78749e-06
-4.8906e-06
-4.99717e-06
-5.10892e-06
-5.22752e-06
-5.35454e-06
-5.49151e-06
-5.63986e-06
-5.80095e-06
-5.976e-06
-6.16617e-06
-6.37245e-06
-6.59573e-06
-6.83676e-06
-7.09613e-06
-7.37431e-06
-7.67158e-06
-7.98809e-06
1.46655e-06
1.03896e-06
6.26858e-07
2.30729e-07
-1.48993e-07
-5.11968e-07
-8.57951e-07
-1.18679e-06
-1.49843e-06
-1.7929e-06
-2.07036e-06
-2.33101e-06
-2.5752e-06
-2.80335e-06
-3.01599e-06
-3.21375e-06
-3.39735e-06
-3.56762e-06
-3.72555e-06
-3.87213e-06
-4.00876e-06
-4.13618e-06
-4.25537e-06
-4.36775e-06
-4.47439e-06
-4.57719e-06
-4.67807e-06
-4.77887e-06
-4.8814e-06
-4.98742e-06
-5.09864e-06
-5.21674e-06
-5.3433e-06
-5.47988e-06
-5.62793e-06
-5.78884e-06
-5.96389e-06
-6.15425e-06
-6.36096e-06
-6.58496e-06
-6.82702e-06
-7.08778e-06
-7.36772e-06
-7.66715e-06
-7.98624e-06
1.46195e-06
1.03155e-06
6.16995e-07
2.18807e-07
-1.62583e-07
-5.2684e-07
-8.73723e-07
-1.20309e-06
-1.51491e-06
-1.80922e-06
-2.0862e-06
-2.3461e-06
-2.58928e-06
-2.8162e-06
-3.02742e-06
-3.2236e-06
-3.40551e-06
-3.57399e-06
-3.73007e-06
-3.87477e-06
-4.00944e-06
-4.13487e-06
-4.25225e-06
-4.36317e-06
-4.46867e-06
-4.57053e-06
-4.67063e-06
-4.77074e-06
-4.87264e-06
-4.97805e-06
-5.0887e-06
-5.20623e-06
-5.33229e-06
-5.46841e-06
-5.61611e-06
-5.77677e-06
-5.95173e-06
-6.14219e-06
-6.34923e-06
-6.57382e-06
-6.81677e-06
-7.07873e-06
-7.36023e-06
-7.66158e-06
-7.98299e-06
1.45669e-06
1.02375e-06
6.07009e-07
2.06989e-07
-1.75879e-07
-5.41261e-07
-8.88924e-07
-1.21874e-06
-1.53068e-06
-1.82482e-06
-2.10133e-06
-2.36052e-06
-2.60275e-06
-2.82852e-06
-3.03842e-06
-3.23314e-06
-3.41348e-06
-3.58031e-06
-3.73469e-06
-3.87762e-06
-4.01047e-06
-4.13409e-06
-4.24973e-06
-4.35924e-06
-4.46362e-06
-4.56455e-06
-4.66384e-06
-4.76323e-06
-4.86445e-06
-4.96922e-06
-5.07924e-06
-5.19619e-06
-5.32168e-06
-5.45731e-06
-5.60459e-06
-5.76496e-06
-5.93976e-06
-6.13024e-06
-6.33751e-06
-6.56257e-06
-6.80627e-06
-7.06928e-06
-7.35214e-06
-7.65521e-06
-7.9787e-06
1.45069e-06
1.01533e-06
5.9652e-07
1.94767e-07
-1.89491e-07
-5.55924e-07