/*--------------------------------*- C++ -*----------------------------------*\
| =========                 |                                                 |
| \\      /  F ield         | OpenFOAM: The Open Source CFD Toolbox           |
|  \\    /   O peration     | Version:  2312                                  |
|   \\  /    A nd           | Website:  www.openfoam.com                      |
|    \\/     M anipulation  |                                                 |
\*---------------------------------------------------------------------------*/
FoamFile
{
    version     2.0;
    format      ascii;
    arch        "LSB;label=32;scalar=64";
    class       surfaceScalarField;
    location    "157";
    object      phi;
}
// * * * * * * * * * * * * * * * * * * * * * * * * * * * * * * * * * * * * * //

dimensions      [0 3 -1 0 0 0 0];

oriented        oriented;

internalField   nonuniform List<scalar> 
9445
(
5.77347e-10
1.01043e-11
5.72293e-10
5.05401e-12
5.70271e-10
2.02228e-12
5.70206e-10
6.4767e-14
5.7152e-10
-1.31389e-12
5.73738e-10
-2.21777e-12
5.76826e-10
-3.08796e-12
5.80819e-10
-3.99311e-12
5.85849e-10
-5.03006e-12
5.92314e-10
-6.46549e-12
6.01344e-10
-9.02931e-12
6.16525e-10
-1.51816e-11
6.50494e-10
-3.39684e-11
7.47513e-10
-9.70196e-11
-2.49368e-10
9.96881e-10
2.02117e-09
4.4022e-11
2.00386e-09
2.23617e-11
1.99657e-09
9.31237e-12
1.99575e-09
8.91665e-13
1.9993e-09
-4.86294e-12
2.00588e-09
-8.80354e-12
2.01527e-09
-1.24785e-11
2.02744e-09
-1.61578e-11
2.0428e-09
-2.03951e-11
2.06254e-09
-2.62033e-11
2.08953e-09
-3.60183e-11
2.13069e-09
-5.63405e-11
2.19932e-09
-1.02599e-10
2.3079e-09
-2.056e-10
-3.62438e-10
2.42097e-09
3.99738e-09
1.0847e-10
3.96398e-09
5.57561e-11
3.94931e-09
2.39819e-11
3.94671e-09
3.49623e-12
3.9521e-09
-1.02527e-11
3.96314e-09
-1.9845e-11
3.97928e-09
-2.86204e-11
4.00017e-09
-3.70455e-11
4.02635e-09
-4.65766e-11
4.05931e-09
-5.91621e-11
4.10197e-09
-7.86806e-11
4.15902e-09
-1.13386e-10
4.23314e-09
-1.76725e-10
4.31059e-09
-2.83046e-10
-4.07459e-10
4.35561e-09
6.65254e-09
2.10789e-10
6.59862e-09
1.09676e-10
6.57387e-09
4.8735e-11
6.56791e-09
9.44873e-12
6.57427e-09
-1.66104e-11
6.58924e-09
-3.48087e-11
6.61184e-09
-5.12252e-11
6.64106e-09
-6.62619e-11
6.67713e-09
-8.26526e-11
6.72106e-09
-1.03088e-10
6.77412e-09
-1.31746e-10
6.83617e-09
-1.75434e-10
6.90087e-09
-2.41427e-10
6.94857e-09
-3.30739e-10
-4.16987e-10
6.9581e-09
1.01632e-08
3.57938e-10
1.00842e-08
1.88658e-10
1.00463e-08
8.66386e-11
1.00349e-08
2.08044e-11
1.00409e-08
-2.25488e-11
1.00586e-08
-5.25604e-11
1.00865e-08
-7.90965e-11
1.01226e-08
-1.02339e-10
1.01663e-08
-1.26316e-10
1.02173e-08
-1.54105e-10
1.02746e-08
-1.8903e-10
1.03339e-08
-2.34783e-10
1.03853e-08
-2.92787e-10
1.04124e-08
-3.57831e-10
-4.10875e-10
1.04062e-08
1.47366e-08
5.54226e-10
1.46292e-08
2.96054e-10
1.45756e-08
1.40241e-10
1.45566e-08
3.97431e-11
1.45603e-08
-2.62159e-11
1.45795e-08
-7.17636e-11
1.46107e-08
-1.1029e-10
1.46512e-08
-1.42814e-10
1.46991e-08
-1.74235e-10
1.47526e-08
-2.07615e-10
1.48085e-08
-2.44945e-10
1.48607e-08
-2.87013e-10
1.48999e-08
-3.31901e-10
1.49157e-08
-3.73675e-10
-4.01675e-10
1.49065e-08
2.06079e-08
7.97186e-10
2.04724e-08
4.31529e-10
2.04026e-08
2.09982e-10
2.03749e-08
6.74419e-11
2.03751e-08
-2.63763e-11
2.03944e-08
-9.10373e-11
2.04267e-08
-1.42649e-10
2.04688e-08
-1.84857e-10
2.05173e-08
-2.22791e-10
2.0569e-08
-2.59328e-10
2.06195e-08
-2.95419e-10
2.06628e-08
-3.30315e-10
2.06923e-08
-3.61405e-10
2.07033e-08
-3.84626e-10
-3.95341e-10
2.06969e-08
2.80328e-08
1.07146e-09
2.78773e-08
5.87063e-10
2.77957e-08
2.91516e-10
2.77615e-08
1.01679e-10
2.77588e-08
-2.36846e-11
2.77775e-08
-1.09713e-10
2.78098e-08
-1.75004e-10
2.78513e-08
-2.2635e-10
2.78977e-08
-2.69174e-10
2.79447e-08
-3.06342e-10
2.79878e-08
-3.38536e-10
2.80225e-08
-3.64972e-10
2.80451e-08
-3.84002e-10
2.80544e-08
-3.93899e-10
-3.93507e-10
2.80525e-08
3.7278e-08
1.34261e-09
3.71227e-08
7.42318e-10
3.70419e-08
3.72306e-10
3.70092e-08
1.34431e-10
3.70084e-08
-2.29165e-11
3.70289e-08
-1.30216e-10
3.70623e-08
-2.08384e-10
3.71031e-08
-2.67177e-10
3.71466e-08
-3.12687e-10
3.71885e-08
-3.48203e-10
3.72249e-08
-3.74969e-10
3.72531e-08
-3.93157e-10
3.72717e-08
-4.02606e-10
3.72813e-08
-4.03443e-10
-3.96276e-10
3.7284e-08
4.86186e-08
1.55702e-09
4.84981e-08
8.6287e-10
4.84408e-08
4.29558e-10
4.84252e-08
1.50042e-10
4.84371e-08
-3.47911e-11
4.84666e-08
-1.5974e-10
4.85059e-08
-2.4762e-10
4.85494e-08
-3.10667e-10
4.85927e-08
-3.55994e-10
4.86322e-08
-3.87761e-10
4.86655e-08
-4.08286e-10
4.86914e-08
-4.19009e-10
4.87099e-08
-4.21076e-10
4.87222e-08
-4.15775e-10
-4.04501e-10
4.87304e-08
6.23658e-08
1.65787e-09
6.23206e-08
9.08126e-10
6.23159e-08
4.34202e-10
6.23386e-08
1.27385e-10
6.23788e-08
-7.49455e-11
6.24289e-08
-2.09853e-10
6.24828e-08
-3.01502e-10
6.2536e-08
-3.63939e-10
6.25855e-08
-4.05448e-10
6.2629e-08
-4.31255e-10
6.26655e-08
-4.44806e-10
6.26951e-08
-4.48612e-10
6.27187e-08
-4.4468e-10
6.27378e-08
-4.34868e-10
-4.20824e-10
6.27541e-08
7.89409e-08
1.61874e-09
7.89957e-08
8.53284e-10
7.90645e-08
3.65401e-10
7.91422e-08
4.97647e-11
7.92241e-08
-1.5694e-10
7.93057e-08
-2.91453e-10
7.93834e-08
-3.79189e-10
7.94547e-08
-4.3522e-10
7.95182e-08
-4.68896e-10
7.95733e-08
-4.864e-10
7.96205e-08
-4.92011e-10
7.96608e-08
-4.88892e-10
7.96956e-08
-4.79455e-10
7.97264e-08
-4.6571e-10
-4.49268e-10
7.97549e-08
9.89634e-08
1.46911e-09
9.91041e-08
7.12559e-10
9.92393e-08
2.30181e-10
9.93698e-08
-8.07408e-11
9.94927e-08
-2.79816e-10
9.96065e-08
-4.05259e-10
9.97098e-08
-4.82494e-10
9.9802e-08
-5.27413e-10
9.98833e-08
-5.50204e-10
9.99546e-08
-5.57713e-10
1.00017e-07
-5.5467e-10
1.00073e-07
-5.44486e-10
1.00123e-07
-5.29646e-10
1.00169e-07
-5.12062e-10
-4.93166e-10
1.00213e-07
1.23234e-07
1.27364e-09
1.23412e-07
5.34102e-10
1.23579e-07
6.39405e-11
1.23735e-07
-2.36855e-10
1.23878e-07
-4.23038e-10
1.24008e-07
-5.35684e-10
1.24126e-07
-6.00011e-10
1.24231e-07
-6.32509e-10
1.24325e-07
-6.43996e-10
1.24409e-07
-6.41714e-10
1.24485e-07
-6.30566e-10
1.24554e-07
-6.1397e-10
1.24619e-07
-5.94312e-10
1.2468e-07
-5.73309e-10
-5.52165e-10
1.24739e-07
1.52529e-07
1.07962e-09
1.527e-07
3.63216e-10
1.52861e-07
-9.683e-11
1.53008e-07
-3.84492e-10
1.53144e-07
-5.5848e-10
1.53268e-07
-6.59393e-10
1.5338e-07
-7.12651e-10
1.53483e-07
-7.35034e-10
1.53576e-07
-7.37693e-10
1.53663e-07
-7.28047e-10
1.53743e-07
-7.1102e-10
1.53819e-07
-6.89941e-10
1.53892e-07
-6.67044e-10
1.53962e-07
-6.43853e-10
-6.21359e-10
1.54032e-07
1.87337e-07
8.94897e-10
1.87488e-07
2.11244e-10
1.87626e-07
-2.34504e-10
1.87749e-07
-5.07124e-10
1.8786e-07
-6.69978e-10
1.87963e-07
-7.6173e-10
1.88057e-07
-8.07298e-10
1.88146e-07
-8.23311e-10
1.88229e-07
-8.20868e-10
1.88308e-07
-8.07326e-10
1.88384e-07
-7.87503e-10
1.88459e-07
-7.64586e-10
1.88533e-07
-7.40654e-10
1.88606e-07
-7.17062e-10
-6.94621e-10
1.88679e-07
2.27706e-07
7.06883e-10
2.27848e-07
6.87416e-11
2.27966e-07
-3.52116e-10
2.28065e-07
-6.06013e-10
2.28152e-07
-7.57084e-10
2.28231e-07
-8.41232e-10
2.28306e-07
-8.81875e-10
2.28377e-07
-8.94852e-10
2.28447e-07
-8.90726e-10
2.28516e-07
-8.76507e-10
2.28586e-07
-8.56769e-10
2.28655e-07
-8.3451e-10
2.28726e-07
-8.11643e-10
2.28799e-07
-7.89387e-10
-7.68436e-10
2.28873e-07
2.73132e-07
5.07178e-10
2.73277e-07
-7.57377e-11
2.73379e-07
-4.54808e-10
2.73461e-07
-6.87151e-10
2.73529e-07
-8.25786e-10
2.73591e-07
-9.03371e-10
2.73651e-07
-9.41166e-10
2.7371e-07
-9.53709e-10
2.7377e-07
-9.50621e-10
2.73831e-07
-9.38312e-10
2.73896e-07
-9.20986e-10
2.73962e-07
-9.01388e-10
2.74032e-07
-8.81254e-10
2.74104e-07
-8.61671e-10
-8.43241e-10
2.74179e-07
3.22243e-07
2.94154e-10
3.22387e-07
-2.19602e-10
3.22483e-07
-5.51253e-10
3.22555e-07
-7.5861e-10
3.22613e-07
-8.83722e-10
3.22664e-07
-9.54565e-10
3.22713e-07
-9.90028e-10
3.22762e-07
-1.00313e-09
3.22814e-07
-1.00231e-09
3.22869e-07
-9.93179e-10
3.22927e-07
-9.79424e-10
3.22989e-07
-9.63482e-10
3.23055e-07
-9.4689e-10
3.23124e-07
-9.30605e-10
-9.15001e-10
3.23196e-07
3.72155e-07
6.78574e-11
3.72286e-07
-3.50953e-10
3.72356e-07
-6.21166e-10
3.72392e-07
-7.94173e-10
3.7241e-07
-9.01417e-10
3.7242e-07
-9.64577e-10
3.72429e-07
-9.99073e-10
3.7244e-07
-1.01462e-09
3.72456e-07
-1.01822e-09
3.72477e-07
-1.01451e-09
3.72504e-07
-1.0065e-09
3.72537e-07
-9.96192e-10
3.72575e-07
-9.84844e-10
3.72618e-07
-9.73251e-10
-9.61928e-10
3.72665e-07
3.70194e-07
-1.36427e-10
3.70302e-07
-4.58656e-10
3.70355e-07
-6.7449e-10
3.70377e-07
-8.16646e-10
3.70384e-07
-9.07553e-10
3.70382e-07
-9.63425e-10
3.70379e-07
-9.96027e-10
3.70378e-07
-1.01336e-09
3.70381e-07
-1.0206e-09
3.70387e-07
-1.02139e-09
3.70399e-07
-1.01811e-09
3.70415e-07
-1.01235e-09
3.70435e-07
-1.00512e-09
3.70459e-07
-9.97069e-10
-9.8855e-10
3.70486e-07
3.17422e-07
-2.38207e-10
3.17459e-07
-4.9558e-10
3.17457e-07
-6.72809e-10
3.17434e-07
-7.92987e-10
3.17399e-07
-8.73212e-10
3.17361e-07
-9.25651e-10
3.17324e-07
-9.58988e-10
3.1729e-07
-9.79289e-10
3.1726e-07
-9.90705e-10
3.17235e-07
-9.9608e-10
3.17214e-07
-9.97323e-10
3.17198e-07
-9.95722e-10
3.17185e-07
-9.92095e-10
3.17175e-07
-9.86975e-10
-9.80692e-10
3.17167e-07
2.66335e-07
-3.16725e-10
2.66356e-07
-5.1698e-10
2.66343e-07
-6.59229e-10
2.66308e-07
-7.58654e-10
2.66263e-07
-8.27611e-10
2.66212e-07
-8.74926e-10
2.6616e-07
-9.06983e-10
2.66109e-07
-9.2824e-10
2.6606e-07
-9.41821e-10
2.66014e-07
-9.4989e-10
2.6597e-07
-9.5391e-10
2.6593e-07
-9.54866e-10
2.65891e-07
-9.53394e-10
2.65854e-07
-9.49912e-10
-9.44683e-10
2.65818e-07
2.19848e-07
-3.5866e-10
2.19845e-07
-5.13855e-10
2.19813e-07
-6.27014e-10
2.19763e-07
-7.08504e-10
2.19702e-07
-7.6699e-10
2.19636e-07
-8.08841e-10
2.19568e-07
-8.38607e-10
2.19499e-07
-8.59518e-10
2.19431e-07
-8.73852e-10
2.19364e-07
-8.83198e-10
2.19299e-07
-8.8864e-10
2.19235e-07
-8.90915e-10
2.19172e-07
-8.90499e-10
2.1911e-07
-8.87715e-10
-8.82764e-10
2.19048e-07
1.79034e-07
-3.64029e-10
1.79004e-07
-4.84033e-10
1.78951e-07
-5.73686e-10
1.78883e-07
-6.40166e-10
1.78805e-07
-6.89511e-10
1.78722e-07
-7.26156e-10
1.78637e-07
-7.53291e-10
1.78551e-07
-7.73191e-10
1.78464e-07
-7.87475e-10
1.78378e-07
-7.97288e-10
1.78293e-07
-8.03408e-10
1.78209e-07
-8.06369e-10
1.78125e-07
-8.06519e-10
1.78041e-07
-8.04103e-10
-7.99274e-10
1.77958e-07
1.44063e-07
-3.38369e-10
1.44011e-07
-4.31359e-10
1.4394e-07
-5.02573e-10
1.43856e-07
-5.5702e-10
1.43766e-07
-5.9882e-10
1.4367e-07
-6.30955e-10
1.43573e-07
-6.55596e-10
1.43474e-07
-6.74318e-10
1.43375e-07
-6.88258e-10
1.43276e-07
-6.98221e-10
1.43177e-07
-7.04754e-10
1.43079e-07
-7.08237e-10
1.42981e-07
-7.08922e-10
1.42884e-07
-7.06995e-10
-7.02573e-10
1.42787e-07
1.14655e-07
-2.92652e-10
1.14589e-07
-3.65217e-10
1.14508e-07
-4.22242e-10
1.14419e-07
-4.67253e-10
1.14323e-07
-5.0296e-10
1.14223e-07
-5.31304e-10
1.14121e-07
-5.53728e-10
1.14018e-07
-5.71311e-10
1.13915e-07
-5.84838e-10
1.13811e-07
-5.94859e-10
1.13708e-07
-6.01756e-10
1.13606e-07
-6.05796e-10
1.13504e-07
-6.0716e-10
1.13403e-07
-6.05992e-10
-6.02386e-10
1.13303e-07
9.03105e-08
-2.39156e-10
9.02414e-08
-2.96186e-10
9.01614e-08
-3.4219e-10
9.00738e-08
-3.79666e-10
8.99811e-08
-4.103e-10
8.98851e-08
-4.35315e-10
8.97871e-08
-4.55664e-10
8.96878e-08
-4.72073e-10
8.95881e-08
-4.85068e-10
8.94882e-08
-4.9502e-10
8.93887e-08
-5.02188e-10
8.92896e-08
-5.06757e-10
8.91913e-08
-5.08859e-10
8.90939e-08
-5.08603e-10
-5.06065e-10
8.89976e-08
7.04287e-08
-1.87117e-10
7.03645e-08
-2.31998e-10
7.02915e-08
-2.69147e-10
7.02121e-08
-3.00307e-10
7.01283e-08
-3.26439e-10
7.00412e-08
-3.483e-10
6.99521e-08
-3.66514e-10
6.98616e-08
-3.81556e-10
6.97703e-08
-3.93767e-10
6.96786e-08
-4.03387e-10
6.9587e-08
-4.10589e-10
6.94958e-08
-4.15501e-10
6.94051e-08
-4.18212e-10
6.93153e-08
-4.1881e-10
-4.1735e-10
6.92266e-08
5.43738e-08
-1.41435e-10
5.43182e-08
-1.76488e-10
5.42553e-08
-2.06241e-10
5.41869e-08
-2.31834e-10
5.41142e-08
-2.53754e-10
5.40383e-08
-2.72466e-10
5.39602e-08
-2.88371e-10
5.38804e-08
-3.01765e-10
5.37995e-08
-3.1286e-10
5.37179e-08
-3.21807e-10
5.36361e-08
-3.28716e-10
5.35542e-08
-3.3367e-10
5.34727e-08
-3.36732e-10
5.33919e-08
-3.37967e-10
-3.37412e-10
5.3312e-08
4.15289e-08
-1.03681e-10
4.1483e-08
-1.30599e-10
4.14308e-08
-1.5401e-10
4.13735e-08
-1.74563e-10
4.13122e-08
-1.92467e-10
4.12478e-08
-2.08013e-10
4.11809e-08
-2.21445e-10
4.1112e-08
-2.32937e-10
4.10418e-08
-2.42614e-10
4.09706e-08
-2.50564e-10
4.08987e-08
-2.56854e-10
4.08266e-08
-2.61537e-10
4.07545e-08
-2.64654e-10
4.06828e-08
-2.66249e-10
-2.66345e-10
4.06117e-08
3.13327e-08
-7.36301e-11
3.12959e-08
-9.37782e-11
3.12536e-08
-1.11716e-10
3.12067e-08
-1.27709e-10
3.11561e-08
-1.41835e-10
3.11024e-08
-1.54277e-10
3.10461e-08
-1.65173e-10
3.09878e-08
-1.74616e-10
3.09278e-08
-1.82676e-10
3.08667e-08
-1.89399e-10
3.08046e-08
-1.94823e-10
3.07421e-08
-1.98978e-10
3.06793e-08
-2.01889e-10
3.06166e-08
-2.03582e-10
-2.04069e-10
3.05544e-08
2.3296e-08
-5.03163e-11
2.32672e-08
-6.49409e-11
2.32336e-08
-7.8212e-11
2.31961e-08
-9.01653e-11
2.31551e-08
-1.00846e-10
2.31112e-08
-1.10368e-10
2.30648e-08
-1.188e-10
2.30164e-08
-1.26189e-10
2.29663e-08
-1.32567e-10
2.29149e-08
-1.37956e-10
2.28624e-08
-1.42374e-10
2.28093e-08
-1.45834e-10
2.27557e-08
-1.48351e-10
2.27021e-08
-1.49937e-10
-1.50596e-10
2.26486e-08
1.7005e-08
-3.27231e-11
1.6983e-08
-4.29459e-11
1.69571e-08
-5.23257e-11
1.69278e-08
-6.0818e-11
1.68954e-08
-6.84819e-11
1.68604e-08
-7.53844e-11
1.68232e-08
-8.15571e-11
1.6784e-08
-8.70175e-11
1.67432e-08
-9.17775e-11
1.67011e-08
-9.58433e-11
1.6658e-08
-9.92218e-11
1.6614e-08
-1.01917e-10
1.65696e-08
-1.03935e-10
1.6525e-08
-1.05277e-10
-1.05944e-10
1.64803e-08
1.21161e-08
-1.99355e-11
1.20998e-08
-2.67264e-11
1.20805e-08
-3.2956e-11
1.20583e-08
-3.86049e-11
1.20335e-08
-4.37473e-11
1.20066e-08
-4.84211e-11
1.19776e-08
-5.26368e-11
1.1947e-08
-5.63978e-11
1.19149e-08
-5.97053e-11
1.18817e-08
-6.25577e-11
1.18474e-08
-6.49557e-11
1.18124e-08
-6.68977e-11
1.17768e-08
-6.8386e-11
1.1741e-08
-6.94172e-11
-6.99858e-11
1.1705e-08
8.34699e-09
-1.1095e-11
8.33554e-09
-1.52847e-11
8.32166e-09
-1.90696e-11
8.30555e-09
-2.25003e-11
8.28745e-09
-2.56487e-11
8.26757e-09
-2.85339e-11
8.24609e-09
-3.1157e-11
8.22321e-09
-3.35155e-11
8.19911e-09
-3.56062e-11
8.17397e-09
-3.74249e-11
8.14799e-09
-3.89696e-11
8.12133e-09
-4.02369e-11
8.09417e-09
-4.1227e-11
8.06669e-09
-4.19345e-11
-4.23508e-11
8.03905e-09
5.46782e-09
-5.38865e-12
5.46022e-09
-7.6888e-12
5.45084e-09
-9.6917e-12
5.43985e-09
-1.15057e-11
5.42738e-09
-1.31842e-11
5.41358e-09
-1.47348e-11
5.39858e-09
-1.61553e-11
5.38251e-09
-1.74418e-11
5.36549e-09
-1.85908e-11
5.34767e-09
-1.95982e-11
5.32916e-09
-2.04617e-11
5.3101e-09
-2.1178e-11
5.29062e-09
-2.17467e-11
5.27085e-09
-2.21627e-11
-2.24162e-11
5.25091e-09
3.29215e-09
-2.06661e-12
3.28755e-09
-3.08796e-12
3.28177e-09
-3.91488e-12
3.27493e-09
-4.66482e-12
3.26712e-09
-5.36592e-12
3.2584e-09
-6.01946e-12
3.24887e-09
-6.62294e-12
3.2386e-09
-7.17344e-12
3.22768e-09
-7.6685e-12
3.21618e-09
-8.10548e-12
3.20421e-09
-8.48289e-12
3.19183e-09
-8.79862e-12
3.17913e-09
-9.05242e-12
3.16621e-09
-9.24077e-12
-9.35486e-12
3.15315e-09
1.66961e-09
-4.58924e-13
1.66725e-09
-7.36229e-13
1.66426e-09
-9.21726e-13
1.66069e-09
-1.09281e-12
1.65658e-09
-1.25635e-12
1.65197e-09
-1.41109e-12
1.6469e-09
-1.55546e-12
1.64142e-09
-1.68809e-12
1.63556e-09
-1.80797e-12
1.62937e-09
-1.91414e-12
1.62289e-09
-2.00614e-12
1.61617e-09
-2.08326e-12
1.60927e-09
-2.14546e-12
1.60222e-09
-2.19111e-12
-2.21512e-12
1.59508e-09
4.79367e-10
4.78631e-10
4.77709e-10
4.76616e-10
4.7536e-10
4.73949e-10
4.72393e-10
4.70705e-10
4.68897e-10
4.66983e-10
4.64977e-10
4.62894e-10
4.60748e-10
4.58557e-10
4.56342e-10
1.19465e-09
-4.645e-10
2.66732e-10
1.4796e-09
-3.71661e-10
8.67127e-11
1.76858e-09
-2.10969e-10
-7.80158e-11
2.05514e-09
-4.63638e-11
-2.4019e-10
2.33713e-09
1.16415e-10
-3.98414e-10
2.61519e-09
2.68657e-10
-5.46716e-10
2.89054e-09
4.07156e-10
-6.82505e-10
3.16411e-09
5.28847e-10
-8.02413e-10
3.4366e-09
6.30193e-10
-9.0268e-10
3.70853e-09
7.07233e-10
-9.79163e-10
3.98029e-09
7.55474e-10
-1.02724e-09
4.25217e-09
7.69916e-10
-1.0418e-09
4.52438e-09
7.45057e-10
-1.01726e-09
4.79704e-09
6.75341e-10
-9.48006e-10
5.07031e-09
5.56256e-10
-8.29527e-10
5.34458e-09
3.86641e-10
-6.60905e-10
5.62078e-09
1.71873e-10
-4.48075e-10
5.90116e-09
-7.06841e-11
-2.09698e-10
6.18992e-09
-3.10474e-10
2.17154e-11
6.49368e-09
-4.96718e-10
1.92956e-10
6.82071e-09
-5.82158e-10
2.55134e-10
7.17685e-09
-5.40183e-10
1.84037e-10
7.50555e-09
-3.93066e-10
6.43656e-11
7.77988e-09
-3.56859e-10
8.25304e-11
7.9967e-09
-4.62726e-10
2.45905e-10
8.15657e-09
-6.62643e-10
5.02781e-10
8.26231e-09
-9.14902e-10
8.09159e-10
8.31724e-09
-1.18791e-09
1.13298e-09
8.32384e-09
-1.45918e-09
1.45258e-09
8.28356e-09
-1.70516e-09
1.74545e-09
8.19813e-09
-1.91103e-09
1.99646e-09
8.06966e-09
-2.05674e-09
2.18521e-09
7.89996e-09
-2.11699e-09
2.28669e-09
7.69152e-09
-2.0777e-09
2.28614e-09
7.44728e-09
-1.92899e-09
2.17323e-09
7.1702e-09
-1.66594e-09
1.94302e-09
6.86304e-09
-1.28756e-09
1.59472e-09
6.52833e-09
-7.94046e-10
1.12876e-09
6.16865e-09
-1.8327e-10
5.42948e-10
5.78582e-09
5.51685e-10
-1.68851e-10
5.37764e-09
1.41552e-09
-1.00734e-09
4.9298e-09
2.38312e-09
-1.93528e-09
4.41437e-09
3.32734e-09
-2.81192e-09
3.83515e-09
3.93553e-09
-3.35631e-09
3.44027e-09
3.48277e-09
-3.0879e-09
2.50009e-09
-5.43622e-10
2.67252e-09
-5.44093e-10
2.90731e-09
-4.45755e-10
3.17076e-09
-3.09816e-10
3.44857e-09
-1.61397e-10
3.73327e-09
-1.60431e-11
4.02172e-09
1.18709e-10
4.31247e-09
2.38094e-10
4.60488e-09
3.37789e-10
4.89863e-09
4.13481e-10
5.19358e-09
4.60523e-10
5.48962e-09
4.7387e-10
5.78665e-09
4.48032e-10
6.08451e-09
3.77479e-10
6.38306e-09
2.57702e-10
6.68239e-09
8.73129e-11
6.98311e-09
-1.28844e-10
7.28715e-09
-3.74722e-10
7.59848e-09
-6.21808e-10
7.92369e-09
-8.21931e-10
8.27131e-09
-9.29774e-10
8.64783e-09
-9.167e-10
8.99488e-09
-7.40118e-10
9.28514e-09
-6.47118e-10
9.51556e-09
-6.93143e-10
9.68648e-09
-8.33563e-10
9.80054e-09
-1.02897e-09
9.86094e-09
-1.24831e-09
9.87006e-09
-1.4683e-09
9.82941e-09
-1.66451e-09
9.74105e-09
-1.82267e-09
9.60764e-09
-1.92332e-09
9.43157e-09
-1.94093e-09
9.21628e-09
-1.86241e-09
8.96598e-09
-1.6787e-09
8.68545e-09
-1.38541e-09
8.37998e-09
-9.82082e-10
8.05591e-09
-4.6998e-10
7.72201e-09
1.50629e-10
7.39127e-09
8.82424e-10
7.08232e-09
1.72447e-09
6.81844e-09
2.647e-09
6.62858e-09
3.51721e-09
6.54415e-09
4.01995e-09
3.5451e-09
6.43932e-09
4.37251e-09
-5.6052e-10
4.45194e-09
-6.23526e-10
4.60606e-09
-5.99871e-10
4.81611e-09
-5.19867e-10
5.06205e-09
-4.07339e-10
5.33094e-09
-2.84933e-10
5.61485e-09
-1.65201e-10
5.90898e-09
-5.60312e-11
6.21038e-09
3.63815e-11
6.51725e-09
1.06617e-10
6.82836e-09
1.4941e-10
7.14284e-09
1.59393e-10
7.45995e-09
1.30923e-10
7.77902e-09
5.84036e-11
8.09943e-09
-6.27019e-11
8.42075e-09
-2.34007e-10
8.74307e-09
-4.5117e-10
9.06782e-09
-6.99469e-10
9.39852e-09
-9.52508e-10
9.74145e-09
-1.16486e-09
1.01052e-08
-1.29349e-09
1.04967e-08
-1.30821e-09
1.08569e-08
-1.1003e-09
1.11586e-08
-9.48828e-10
1.1399e-08
-9.33537e-10
1.15781e-08
-1.01275e-09
1.16985e-08
-1.14929e-09
1.17629e-08
-1.31275e-09
1.17736e-08
-1.47905e-09
1.17323e-08
-1.62316e-09
1.16413e-08
-1.73169e-09
1.1504e-08
-1.78596e-09
1.13234e-08
-1.76034e-09
1.11041e-08
-1.64318e-09
1.08521e-08
-1.42666e-09
1.05742e-08
-1.10751e-09
1.02788e-08
-6.86701e-10
9.97671e-09
-1.67877e-10
9.68323e-09
4.44113e-10
9.42196e-09
1.1437e-09
9.22819e-09
1.91823e-09
9.14764e-09
2.72755e-09
9.21642e-09
3.44843e-09
9.39414e-09
3.84223e-09
3.48331e-09
9.45594e-09
6.94083e-09
-5.43251e-10
6.95805e-09
-6.40754e-10
7.03215e-09
-6.7397e-10
7.16975e-09
-6.57463e-10
7.35935e-09
-5.9694e-10
7.58761e-09
-5.13194e-10
7.84447e-09
-4.22061e-10
8.12245e-09
-3.3401e-10
8.41623e-09
-2.57397e-10
8.72208e-09
-1.99231e-10
9.03731e-09
-1.65821e-10
9.35987e-09
-1.63168e-10
9.68809e-09
-1.97296e-10
1.00205e-08
-2.73997e-10
1.03557e-08
-3.97907e-10
1.06926e-08
-5.70874e-10
1.10304e-08
-7.89034e-10
1.13699e-08
-1.03897e-09
1.17139e-08
-1.29647e-09
1.20679e-08
-1.51893e-09
1.24404e-08
-1.66592e-09
1.28385e-08
-1.70628e-09
1.32037e-08
-1.46554e-09
1.35099e-08
-1.255e-09
1.37544e-08
-1.1781e-09
1.39372e-08
-1.19552e-09
1.40602e-08
-1.27226e-09
1.4126e-08
-1.37855e-09
1.41364e-08
-1.48949e-09
1.40934e-08
-1.58015e-09
1.39998e-08
-1.63807e-09
1.38594e-08
-1.64556e-09
1.36763e-08
-1.57722e-09
1.34564e-08
-1.42335e-09
1.32076e-08
-1.17778e-09
1.2939e-08
-8.38992e-10
1.26625e-08
-4.10172e-10
1.2393e-08
1.01628e-10
1.21513e-08
6.85851e-10
1.19673e-08
1.32771e-09
1.18823e-08
2.00315e-09
1.1943e-08
2.66688e-09
1.21705e-08
3.2209e-09
1.25094e-08
3.50338e-09
3.28971e-09
1.2703e-08
1.03756e-08
-5.12653e-10
1.03562e-08
-6.21342e-10
1.03716e-08
-6.89314e-10
1.0435e-08
-7.20914e-10
1.05543e-08
-7.16203e-10
1.07218e-08
-6.80722e-10
1.0929e-08
-6.29245e-10
1.11683e-08
-5.73343e-10
1.14334e-08
-5.22435e-10
1.17189e-08
-4.84792e-10
1.20209e-08
-4.6778e-10
1.23359e-08
-4.7817e-10
1.26611e-08
-5.22519e-10
1.29941e-08
-6.06932e-10
1.33323e-08
-7.36204e-10
1.36739e-08
-9.1243e-10
1.4017e-08
-1.13218e-09
1.43614e-08
-1.38329e-09
1.47087e-08
-1.64376e-09
1.50636e-08
-1.87384e-09
1.54337e-08
-2.036e-09
1.58261e-08
-2.09869e-09
1.61848e-08
-1.82427e-09
1.64853e-08
-1.55548e-09
1.67254e-08
-1.41819e-09
1.69046e-08
-1.37473e-09
1.70244e-08
-1.39214e-09
1.70871e-08
-1.44121e-09
1.70938e-08
-1.49619e-09
1.70472e-08
-1.53354e-09
1.69506e-08
-1.54147e-09
1.68076e-08
-1.50254e-09
1.66238e-08
-1.3934e-09
1.64067e-08
-1.20632e-09
1.6166e-08
-9.37094e-10
1.59135e-08
-5.86492e-10
1.56638e-08
-1.60438e-10
1.54351e-08
3.30326e-10
1.52511e-08
8.69865e-10
1.51424e-08
1.43638e-09
1.51463e-08
1.99927e-09
1.52981e-08
2.51509e-09
1.56039e-08
2.91513e-09
1.60001e-08
3.10719e-09
2.9941e-09
1.62957e-08
1.48761e-08
-4.82269e-10
1.48402e-08
-5.85462e-10
1.48221e-08
-6.71136e-10
1.48324e-08
-7.31234e-10
1.48837e-08
-7.67529e-10
1.49823e-08
-7.79325e-10
1.51249e-08
-7.71793e-10
1.53063e-08
-7.5476e-10
1.55214e-08
-7.37593e-10
1.57652e-08
-7.28574e-10
1.60329e-08
-7.35462e-10
1.63202e-08
-7.65518e-10
1.66235e-08
-8.25735e-10
1.6939e-08
-9.22487e-10
1.72635e-08
-1.06071e-09
1.75938e-08
-1.24268e-09
1.79269e-08
-1.46531e-09
1.82612e-08
-1.71762e-09
1.85973e-08
-1.97979e-09
1.89382e-08
-2.21478e-09
1.92904e-08
-2.38821e-09
1.96604e-08
-2.46872e-09
1.99969e-08
-2.16076e-09
2.02779e-08
-1.83641e-09
2.05015e-08
-1.6418e-09
2.06669e-08
-1.54016e-09
2.07753e-08
-1.50054e-09
2.08278e-08
-1.49371e-09
2.08254e-08
-1.49383e-09
2.07718e-08
-1.47987e-09
2.06709e-08
-1.44057e-09
2.05248e-08
-1.35646e-09
2.03415e-08
-1.2101e-09
2.01302e-08
-9.94981e-10
1.99021e-08
-7.09058e-10
1.96713e-08
-3.55624e-10
1.94542e-08
5.65826e-11
1.92708e-08
5.13726e-10
1.91445e-08
9.96197e-10
1.91018e-08
1.47913e-09
1.91695e-08
1.93153e-09
1.93673e-08
2.31728e-09
1.96889e-08
2.59358e-09
2.00797e-08
2.7164e-09
2.65203e-09
2.04217e-08
2.06739e-08
-4.59218e-10
2.06392e-08
-5.50793e-10
2.06063e-08
-6.38199e-10
2.05887e-08
-7.13686e-10
2.05946e-08
-7.73343e-10
2.06337e-08
-8.18477e-10
2.07112e-08
-8.49248e-10
2.08269e-08
-8.70495e-10
2.09787e-08
-8.89363e-10
2.11634e-08
-9.1328e-10
2.13772e-08
-9.49276e-10
2.16161e-08
-1.00442e-09
2.18761e-08
-1.08571e-09
2.2153e-08
-1.19945e-09
2.24428e-08
-1.35049e-09
2.27413e-08
-1.54113e-09
2.30443e-08
-1.76837e-09
2.33489e-08
-2.02224e-09
2.36542e-08
-2.28506e-09
2.39616e-08
-2.52215e-09
2.42757e-08
-2.70235e-09
2.4602e-08
-2.79499e-09
2.48963e-08
-2.45508e-09
2.514e-08
-2.08011e-09
2.53316e-08
-1.83334e-09
2.54696e-08
-1.67824e-09
2.5555e-08
-1.58592e-09
2.55868e-08
-1.52548e-09
2.55679e-08
-1.47498e-09
2.55036e-08
-1.41553e-09
2.53943e-08
-1.33128e-09
2.52432e-08
-1.20538e-09
2.50605e-08
-1.02734e-09
2.48566e-08
-7.9106e-10
2.46442e-08
-4.96688e-10
2.44386e-08
-1.4999e-10
2.4257e-08
2.38181e-10
2.41188e-08
6.51859e-10
2.40445e-08
1.07054e-09
2.40535e-08
1.47015e-09
2.41609e-08
1.82407e-09
2.43722e-08
2.10599e-09
2.46737e-08
2.29205e-09
2.50247e-08
2.36541e-09
2.32058e-09
2.53562e-08
2.80387e-08
-4.45412e-10
2.80134e-08
-5.25466e-10
2.79828e-08
-6.07615e-10
2.79556e-08
-6.86512e-10
2.79407e-08
-7.58423e-10
2.79443e-08
-8.2204e-10
2.79734e-08
-8.78316e-10
2.80316e-08
-9.28752e-10
2.81216e-08
-9.7936e-10
2.82423e-08
-1.03399e-09
2.8392e-08
-1.09894e-09
2.85681e-08
-1.1805e-09
2.87674e-08
-1.28509e-09
2.89864e-08
-1.41837e-09
2.92206e-08
-1.5847e-09
2.94655e-08
-1.78603e-09
2.97161e-08
-2.01903e-09
2.99684e-08
-2.27452e-09
3.02201e-08
-2.53674e-09
3.04707e-08
-2.77279e-09
3.0723e-08
-2.95462e-09
3.09805e-08
-3.05253e-09
3.12095e-08
-2.684e-09
3.13951e-08
-2.2658e-09
3.1536e-08
-1.97417e-09
3.16301e-08
-1.77232e-09
3.1677e-08
-1.63282e-09
3.16764e-08
-1.5249e-09
3.1633e-08
-1.43159e-09
3.15493e-08
-1.33179e-09
3.14246e-08
-1.20666e-09
3.12655e-08
-1.04623e-09
3.10818e-08
-8.4367e-10
3.08852e-08
-5.94486e-10
3.06893e-08
-3.00718e-10
3.05094e-08
2.98954e-11
3.0362e-08
3.85509e-10
3.02643e-08
7.49576e-10
3.02317e-08
1.1032e-09
3.02759e-08
1.42589e-09
3.04024e-08
1.69764e-09
3.06068e-08
1.90152e-09
3.08729e-08
2.02601e-09
3.11708e-08
2.06749e-09
2.03106e-09
3.14603e-08
3.72788e-08
-4.40137e-10
3.72644e-08
-5.11138e-10
3.72436e-08
-5.86783e-10
3.72209e-08
-6.63853e-10
3.72022e-08
-7.39655e-10
3.71928e-08
-8.1265e-10
3.71979e-08
-8.83418e-10
3.72203e-08
-9.51125e-10
3.7265e-08
-1.02411e-09
3.73333e-08
-1.10233e-09
3.74243e-08
-1.18987e-09
3.75373e-08
-1.29356e-09
3.76709e-08
-1.41864e-09
3.78221e-08
-1.56961e-09
3.79874e-08
-1.75001e-09
3.81625e-08
-1.96108e-09
3.8342e-08
-2.19859e-09
3.85215e-08
-2.45398e-09
3.86978e-08
-2.71307e-09
3.88689e-08
-2.94384e-09
3.90353e-08
-3.12109e-09
3.91989e-08
-3.21604e-09
3.93386e-08
-2.82376e-09
3.94448e-08
-2.37201e-09
3.95152e-08
-2.04454e-09
3.95459e-08
-1.80303e-09
3.95385e-08
-1.6254e-09
3.94958e-08
-1.48219e-09
3.94159e-08
-1.35175e-09
3.92992e-08
-1.21503e-09
3.91514e-08
-1.05887e-09
3.89791e-08
-8.73951e-10
3.87913e-08
-6.55845e-10
3.85998e-08
-4.0303e-10
3.84183e-08
-1.1916e-10
3.82609e-08
1.87228e-10
3.81426e-08
5.03874e-10
3.80762e-08
8.15942e-10
3.80719e-08
1.10753e-09
3.81347e-08
1.36307e-09
3.82632e-08
1.56912e-09
3.84485e-08
1.71621e-09
3.86744e-08
1.80012e-09
3.89191e-08
1.82283e-09
1.79194e-09
3.91582e-08
4.87334e-08
-4.4307e-10
4.87298e-08
-5.07593e-10
4.87208e-08
-5.77731e-10
4.87086e-08
-6.51722e-10
4.86968e-08
-7.27847e-10
4.86891e-08
-8.04891e-10
4.86891e-08
-8.8347e-10
4.86992e-08
-9.61262e-10
4.87214e-08
-1.04623e-09
4.87583e-08
-1.13926e-09
4.88103e-08
-1.24191e-09
4.88765e-08
-1.35968e-09
4.89558e-08
-1.49796e-09
4.90461e-08
-1.65997e-09
4.91446e-08
-1.84852e-09
4.92474e-08
-2.06387e-09
4.93493e-08
-2.30043e-09
4.94459e-08
-2.55061e-09
4.95341e-08
-2.80121e-09
4.96102e-08
-3.02001e-09
4.96736e-08
-3.18449e-09
4.9724e-08
-3.26641e-09
4.97559e-08
-2.85568e-09
4.97652e-08
-2.38128e-09
4.97474e-08
-2.0267e-09
4.9703e-08
-1.7587e-09
4.96302e-08
-1.5526e-09
4.95261e-08
-1.37804e-09
4.93934e-08
-1.21905e-09
4.92362e-08
-1.0578e-09
4.90582e-08
-8.80907e-10
4.88661e-08
-6.81889e-10
4.86691e-08
-4.58806e-10
4.84784e-08
-2.1236e-10
4.83063e-08
5.29576e-11
4.81653e-08
3.28235e-10
4.80669e-08
6.02234e-10
4.802e-08
8.62932e-10
4.80293e-08
1.09815e-09
4.80952e-08
1.29718e-09
4.82124e-08
1.45194e-09
4.83706e-08
1.55805e-09
4.85555e-08
1.61519e-09
4.87511e-08
1.62721e-09
1.6012e-09
4.89419e-08
6.27669e-08
-4.55902e-10
6.27754e-08
-5.16e-10
6.27797e-08
-5.82035e-10
6.27811e-08
-6.53188e-10
6.27818e-08
-7.28511e-10
6.27841e-08
-8.07245e-10
6.27902e-08
-8.89571e-10
6.28037e-08
-9.74763e-10
6.28235e-08
-1.06595e-09
6.285e-08
-1.16574e-09
6.28851e-08
-1.27706e-09
6.29281e-08
-1.40272e-09
6.29764e-08
-1.54621e-09
6.30273e-08
-1.71089e-09
6.30778e-08
-1.89906e-09
6.31238e-08
-2.10982e-09
6.31595e-08
-2.33618e-09
6.31815e-08
-2.57256e-09
6.31859e-08
-2.80567e-09
6.31683e-08
-3.00242e-09
6.31272e-08
-3.14331e-09
6.30605e-08
-3.1998e-09
6.29791e-08
-2.77424e-09
6.28846e-08
-2.28681e-09
6.27733e-08
-1.9154e-09
6.26438e-08
-1.62917e-09
6.24936e-08
-1.40239e-09
6.2323e-08
-1.20747e-09
6.21333e-08
-1.02937e-09
6.19285e-08
-8.52925e-10
6.17137e-08
-6.66159e-10
6.14963e-08
-4.64458e-10
6.12849e-08
-2.47429e-10
6.10899e-08
-1.73965e-11
6.09206e-08
2.22279e-10
6.07878e-08
4.61089e-10
6.06988e-08
6.91227e-10
6.06584e-08
9.03341e-10
6.06676e-08
1.08895e-09
6.07234e-08
1.24134e-09
6.08191e-08
1.3563e-09
6.09447e-08
1.43245e-09
6.10886e-08
1.47128e-09
6.1239e-08
1.47682e-09
1.45489e-09
6.13853e-08
7.9781e-08
-4.82043e-10
7.98043e-08
-5.39307e-10
7.98248e-08
-6.02545e-10
7.98431e-08
-6.71513e-10
7.98604e-08
-7.45808e-10
7.98783e-08
-8.25067e-10
7.9898e-08
-9.09337e-10
7.9922e-08
-9.98732e-10
7.99508e-08
-1.09475e-09
7.99836e-08
-1.19859e-09
8.00201e-08
-1.31351e-09
8.00591e-08
-1.4417e-09
8.00981e-08
-1.58527e-09
8.01338e-08
-1.74659e-09
8.01619e-08
-1.92713e-09
8.01765e-08
-2.12443e-09
8.0172e-08
-2.33165e-09
8.01455e-08
-2.54603e-09
8.00897e-08
-2.74993e-09
7.99997e-08
-2.91241e-09
7.9874e-08
-3.01755e-09
7.97092e-08
-3.03505e-09
7.95294e-08
-2.59445e-09
7.93426e-08
-2.09998e-09
7.91456e-08
-1.71842e-09
7.89368e-08
-1.42034e-09
7.87143e-08
-1.17992e-09
7.84801e-08
-9.73289e-10
7.82359e-08
-7.8512e-10
7.79856e-08
-6.02662e-10
7.77353e-08
-4.15867e-10
7.74924e-08
-2.21512e-10
7.72665e-08
-2.16016e-11
7.70627e-08
1.86424e-10
7.68921e-08
3.9294e-10
7.67601e-08
5.93086e-10
7.66711e-08
7.80173e-10
7.66267e-08
9.47814e-10
7.6625e-08
1.09062e-09
7.66615e-08
1.20483e-09
7.67292e-08
1.28863e-09
7.68194e-08
1.34226e-09
7.69229e-08
1.36776e-09
7.7031e-08
1.36873e-09
1.34962e-09
7.71362e-08
1.00256e-07
-5.24463e-10
1.00297e-07
-5.80128e-10
1.00336e-07
-6.41659e-10
1.00373e-07
-7.09149e-10
1.0041e-07
-7.82557e-10
1.00447e-07
-8.61835e-10
1.00485e-07
-9.47081e-10
1.00524e-07
-1.03852e-09
1.00567e-07
-1.13714e-09
1.00612e-07
-1.24371e-09
1.00658e-07
-1.35989e-09
1.00704e-07
-1.4876e-09
1.00747e-07
-1.62812e-09
1.00783e-07
-1.78262e-09
1.00807e-07
-1.95092e-09
1.00812e-07
-2.12962e-09
1.00794e-07
-2.3141e-09
1.00747e-07
-2.49848e-09
1.0066e-07
-2.66331e-09
1.00532e-07
-2.78417e-09
1.00358e-07
-2.84343e-09
1.00133e-07
-2.81031e-09
9.989e-08
-2.35123e-09
9.96411e-08
-1.85114e-09
9.93849e-08
-1.46212e-09
9.91199e-08
-1.1554e-09