/*--------------------------------*- C++ -*----------------------------------*\
| =========                 |                                                 |
| \\      /  F ield         | OpenFOAM: The Open Source CFD Toolbox           |
|  \\    /   O peration     | Version:  2312                                  |
|   \\  /    A nd           | Website:  www.openfoam.com                      |
|    \\/     M anipulation  |                                                 |
\*---------------------------------------------------------------------------*/
FoamFile
{
    version     2.0;
    format      ascii;
    arch        "LSB;label=32;scalar=64";
    class       surfaceScalarField;
    location    "137.25";
    object      phi;
}
// * * * * * * * * * * * * * * * * * * * * * * * * * * * * * * * * * * * * * //

dimensions      [0 3 -1 0 0 0 0];

oriented        oriented;

internalField   nonuniform List<scalar> 
9445
(
6.14292e-10
1.46135e-11
6.04558e-10
9.73412e-12
5.98127e-10
6.431e-12
5.94106e-10
4.02054e-12
5.91952e-10
2.15428e-12
5.91353e-10
5.99596e-13
5.92173e-10
-8.1988e-13
5.94417e-10
-2.24408e-12
5.98099e-10
-3.68274e-12
6.03683e-10
-5.58345e-12
6.12326e-10
-8.64308e-12
6.27661e-10
-1.53351e-11
6.62619e-10
-3.49578e-11
7.63339e-10
-1.0072e-10
-2.65232e-10
1.02857e-09
2.13955e-09
6.53244e-11
2.10526e-09
4.40203e-11
2.08215e-09
2.95457e-11
2.06718e-09
1.89871e-11
2.05851e-09
1.08201e-11
2.05504e-09
4.07044e-12
2.05621e-09
-1.98619e-12
2.06185e-09
-7.88311e-12
2.07215e-09
-1.39808e-11
2.0884e-09
-2.18354e-11
2.11353e-09
-3.37761e-11
2.15459e-09
-5.63897e-11
2.22549e-09
-1.05862e-10
2.34014e-09
-2.15366e-10
-3.87898e-10
2.4628e-09
4.2143e-09
1.6399e-10
4.1468e-09
1.11528e-10
4.10056e-09
7.5778e-11
4.06985e-09
4.97032e-11
4.05108e-09
2.95907e-11
4.04206e-09
1.30858e-11
4.04157e-09
-1.49245e-12
4.04905e-09
-1.53682e-11
4.06464e-09
-2.9571e-11
4.08996e-09
-4.71557e-11
4.12782e-09
-7.16358e-11
4.18298e-09
-1.11545e-10
4.25838e-09
-1.81268e-10
4.34006e-09
-2.97038e-10
-4.36856e-10
4.38901e-09
6.98721e-09
3.23941e-10
6.87632e-09
2.22423e-10
6.79913e-09
1.52969e-10
6.74655e-09
1.02282e-10
6.71285e-09
6.32844e-11
6.69436e-09
3.15759e-11
6.68896e-09
3.90728e-12
6.69539e-09
-2.1791e-11
6.71302e-09
-4.72017e-11
6.743e-09
-7.71432e-11
6.78623e-09
-1.14864e-10
6.84223e-09
-1.67544e-10
6.90427e-09
-2.43304e-10
6.95138e-09
-3.44147e-10
-4.44345e-10
6.95887e-09
1.06378e-08
5.58475e-10
1.04726e-08
3.87578e-10
1.03556e-08
2.69961e-10
1.0274e-08
1.83962e-10
1.02193e-08
1.17913e-10
1.01862e-08
6.46857e-11
1.01712e-08
1.89676e-11
1.01719e-08
-2.2488e-11
1.01867e-08
-6.20024e-11
1.02148e-08
-1.05242e-10
1.02544e-08
-1.54557e-10
1.03007e-08
-2.13844e-10
1.03426e-08
-2.8515e-10
1.0362e-08
-3.63578e-10
-4.29849e-10
1.03475e-08
1.53776e-08
8.77548e-10
1.51486e-08
6.16598e-10
1.49832e-08
4.3539e-10
1.48648e-08
3.02359e-10
1.47824e-08
2.00247e-10
1.47286e-08
1.1855e-10
1.46979e-08
4.9601e-11
1.46867e-08
-1.13065e-11
1.46922e-08
-6.74178e-11
1.47107e-08
-1.2379e-10
1.47382e-08
-1.82019e-10
1.47673e-08
-2.42991e-10
1.47873e-08
-3.0514e-10
1.47863e-08
-3.62587e-10
-4.04366e-10
1.47608e-08
2.14475e-08
1.28184e-09
2.11501e-08
9.14017e-10
2.09303e-08
6.55156e-10
2.07689e-08
4.63743e-10
2.06526e-08
3.16602e-10
2.05717e-08
1.99448e-10
2.05191e-08
1.02197e-10
2.04893e-08
1.84689e-11
2.04778e-08
-5.58456e-11
2.04789e-08
-1.24945e-10
2.04868e-08
-1.89882e-10
2.04939e-08
-2.50083e-10
2.04919e-08
-3.03221e-10
2.04747e-08
-3.45369e-10
-3.71875e-10
2.04422e-08
2.91089e-08
1.75413e-09
2.87497e-08
1.27324e-09
2.84767e-08
9.28091e-10
2.82706e-08
6.69883e-10
2.81167e-08
4.70477e-10
2.80041e-08
3.1202e-10
2.79241e-08
1.822e-10
2.78696e-08
7.30044e-11
2.78342e-08
-2.04417e-11
2.78112e-08
-1.01992e-10
2.77941e-08
-1.72707e-10
2.77762e-08
-2.32225e-10
2.77523e-08
-2.79351e-10
2.77197e-08
-3.12772e-10
-3.317e-10
2.76796e-08
3.86299e-08
2.25083e-09
3.82338e-08
1.66935e-09
3.79216e-08
1.24022e-09
3.7678e-08
9.13508e-10
3.74895e-08
6.58944e-10
3.73452e-08
4.56323e-10
3.72357e-08
2.91712e-10
3.71529e-08
1.55848e-10
3.70894e-08
4.29864e-11
3.70383e-08
-5.08759e-11
3.69934e-08
-1.27753e-10
3.69496e-08
-1.88445e-10
3.69038e-08
-2.33597e-10
3.68552e-08
-2.64115e-10
-2.81329e-10
3.68048e-08
5.02771e-08
2.70203e-09
4.98907e-08
2.05569e-09
4.95705e-08
1.56043e-09
4.93099e-08
1.17407e-09
4.91001e-08
8.68795e-10
4.8932e-08
6.2439e-10
4.87973e-08
4.26481e-10
4.86879e-08
2.65169e-10
4.8597e-08
1.33881e-10
4.85182e-08
2.7993e-11
4.84464e-08
-5.59397e-11
4.83782e-08
-1.20239e-10
4.83118e-08
-1.67205e-10
4.82469e-08
-1.9929e-10
-2.18906e-10
4.81845e-08
6.43367e-08
3.03266e-09
6.40189e-08
2.37349e-09
6.3735e-08
1.84426e-09
6.34906e-08
1.41851e-09
6.32836e-08
1.07581e-09
6.31092e-08
7.98732e-10
6.29617e-08
5.73977e-10
6.28351e-08
3.91814e-10
6.27238e-08
2.45147e-10
6.26234e-08
1.28432e-10
6.25303e-08
3.71735e-11
6.24425e-08
-3.24621e-11
6.23592e-08
-8.3866e-11
6.22802e-08
-1.20363e-10
-1.44868e-10
6.22062e-08
8.1189e-08
3.20456e-09
8.09826e-08
2.57981e-09
8.07745e-08
2.05238e-09
8.05798e-08
1.61327e-09
8.04032e-08
1.25241e-09
8.02448e-08
9.57064e-10
8.01026e-08
7.16199e-10
7.99735e-08
5.20922e-10
7.98546e-08
3.64027e-10
7.97436e-08
2.39403e-10
7.9639e-08
1.41817e-10
7.95399e-08
6.66431e-11
7.94462e-08
9.87849e-12
7.93579e-08
-3.21445e-11
-6.24791e-11
7.92755e-08
1.01402e-07
3.23629e-09
1.01307e-07
2.67461e-09
1.01183e-07
2.17662e-09
1.01051e-07
1.74504e-09
1.00919e-07
1.38395e-09
1.00792e-07
1.0849e-09
1.00668e-07
8.39368e-10
1.0055e-07
6.39497e-10
1.00436e-07
4.7832e-10
1.00325e-07
3.49594e-10
1.00219e-07
2.47857e-10
1.00118e-07
1.68264e-10
1.00021e-07
1.0668e-10
9.99293e-08
5.94422e-11
2.35694e-11
9.98432e-08
1.2571e-07
3.19587e-09
1.25694e-07
2.69105e-09
1.25633e-07
2.23715e-09
1.2555e-07
1.82858e-09
1.25455e-07
1.47862e-09
1.25354e-07
1.18571e-09
1.2525e-07
9.43589e-10
1.25144e-07
7.45318e-10
1.25038e-07
5.84326e-10
1.24933e-07
4.54566e-10
1.24831e-07
3.50726e-10
1.24731e-07
2.68106e-10
1.24635e-07
2.02734e-10
1.24543e-07
1.51145e-10
1.10541e-10
1.24456e-07
1.54851e-07
3.12954e-09
1.54871e-07
2.67133e-09
1.54848e-07
2.2594e-09
1.54793e-07
1.88384e-09
1.54719e-07
1.55269e-09
1.54633e-07
1.27221e-09
1.54538e-07
1.03824e-09
1.54438e-07
8.45038e-10
1.54336e-07
6.86669e-10
1.54233e-07
5.57561e-10
1.54131e-07
4.52807e-10
1.54031e-07
3.68063e-10
1.53934e-07
2.99663e-10
1.53841e-07
2.44424e-10
1.99775e-10
1.53751e-07
1.89321e-07
3.04413e-09
1.89361e-07
2.63192e-09
1.89362e-07
2.25821e-09
1.89327e-07
1.91867e-09
1.89266e-07
1.61383e-09
1.89187e-07
1.35055e-09
1.89097e-07
1.12833e-09
1.89e-07
9.42795e-10
1.88897e-07
7.88911e-10
1.88793e-07
6.61794e-10
1.88689e-07
5.57121e-10
1.88586e-07
4.71048e-10
1.88485e-07
4.00303e-10
1.88388e-07
3.42035e-10
2.93919e-10
1.88293e-07
2.29253e-07
2.92732e-09
2.2931e-07
2.57477e-09
2.29329e-07
2.23885e-09
2.29313e-07
1.93479e-09
2.29266e-07
1.66085e-09
2.29197e-07
1.41914e-09
2.29114e-07
1.21208e-09
2.2902e-07
1.0368e-09
2.28919e-07
8.89502e-10
2.28815e-07
7.6611e-10
2.28709e-07
6.62957e-10
2.28603e-07
5.76761e-10
2.28499e-07
5.04701e-10
2.28397e-07
4.4429e-10
3.93486e-10
2.28297e-07
2.74205e-07
2.76564e-09
2.74284e-07
2.49496e-09
2.74323e-07
2.1999e-09
2.74326e-07
1.93168e-09
2.74297e-07
1.69054e-09
2.74241e-07
1.47536e-09
2.74166e-07
1.28642e-09
2.74079e-07
1.1241e-09
2.73983e-07
9.85616e-10
2.73881e-07
8.67902e-10
2.73776e-07
7.68007e-10
2.7367e-07
6.83211e-10
2.73563e-07
6.11141e-10
2.73458e-07
5.49681e-10
4.97127e-10
2.73354e-07
3.22646e-07
2.56686e-09
3.22776e-07
2.36442e-09
3.22847e-07
2.12866e-09
3.22877e-07
1.90209e-09
3.22874e-07
1.69343e-09
3.22842e-07
1.50759e-09
3.22787e-07
1.34164e-09
3.22714e-07
1.19637e-09
3.2263e-07
1.07e-09
3.22537e-07
9.60712e-10
3.22439e-07
8.6645e-10
3.22337e-07
7.85111e-10
3.22233e-07
7.1478e-10
3.22129e-07
6.5372e-10
6.00459e-10
3.22026e-07
3.71419e-07
2.32004e-09
3.7161e-07
2.17333e-09
3.71739e-07
2.00041e-09
3.71816e-07
1.82501e-09
3.71852e-07
1.65687e-09
3.71857e-07
1.50243e-09
3.71837e-07
1.36233e-09
3.71796e-07
1.2375e-09
3.71739e-07
1.12703e-09
3.7167e-07
1.02971e-09
3.71592e-07
9.44156e-10
3.71508e-07
8.68885e-10
3.7142e-07
8.02484e-10
3.7133e-07
7.43632e-10
6.91299e-10
3.7124e-07
3.68729e-07
2.08764e-09
3.68915e-07
1.98705e-09
3.69055e-07
1.86107e-09
3.69153e-07
1.72678e-09
3.69215e-07
1.59427e-09
3.69249e-07
1.46929e-09
3.69257e-07
1.35417e-09
3.69245e-07
1.24955e-09
3.69216e-07
1.15523e-09
3.69176e-07
1.07051e-09
3.69125e-07
9.94513e-10
3.69068e-07
9.2622e-10
3.69006e-07
8.64632e-10
3.68941e-07
8.08793e-10
7.57967e-10
3.68874e-07
3.15474e-07
1.83708e-09
3.15689e-07
1.77243e-09
3.15866e-07
1.68383e-09
3.16008e-07
1.58476e-09
3.16118e-07
1.48427e-09
3.162e-07
1.3874e-09
3.16257e-07
1.29641e-09
3.16295e-07
1.21208e-09
3.16316e-07
1.13448e-09
3.16323e-07
1.06332e-09
3.16319e-07
9.98108e-10
3.16307e-07
9.38221e-10
3.16289e-07
8.82991e-10
3.16266e-07
8.31748e-10
7.83904e-10
3.1624e-07
2.63873e-07
1.62974e-09
2.6406e-07
1.58602e-09
2.64222e-07
1.52143e-09
2.6436e-07
1.44711e-09
2.64474e-07
1.36998e-09
2.64567e-07
1.29404e-09
2.64643e-07
1.22129e-09
2.64702e-07
1.15258e-09
2.64748e-07
1.08813e-09
2.64784e-07
1.02784e-09
2.64811e-07
9.71445e-10
2.6483e-07
9.18534e-10
2.64845e-07
8.6866e-10
2.64855e-07
8.21356e-10
7.76193e-10
2.64863e-07
2.17037e-07
1.43845e-09
2.17215e-07
1.40797e-09
2.17376e-07
1.36059e-09
2.17519e-07
1.30468e-09
2.17643e-07
1.24541e-09
2.17751e-07
1.18584e-09
2.17845e-07
1.12767e-09
2.17926e-07
1.07169e-09
2.17996e-07
1.01817e-09
2.18057e-07
9.67075e-10
2.1811e-07
9.18252e-10
2.18157e-07
8.71448e-10
2.18199e-07
8.2637e-10
2.18238e-07
7.82711e-10
7.4019e-10
2.18274e-07
1.76014e-07
1.25177e-09
1.76192e-07
1.22981e-09
1.76358e-07
1.19482e-09
1.7651e-07
1.1527e-09
1.76648e-07
1.10725e-09
1.76773e-07
1.06072e-09
1.76887e-07
1.01442e-09
1.76989e-07
9.68968e-10
1.77083e-07
9.24617e-10
1.77169e-07
8.81387e-10
1.77248e-07
8.39194e-10
1.77321e-07
7.97896e-10
1.7739e-07
7.57318e-10
1.77456e-07
7.17273e-10
6.77581e-10
1.77518e-07
1.41047e-07
1.06513e-09
1.41228e-07
1.04909e-09
1.414e-07
1.02332e-09
1.4156e-07
9.9185e-10
1.4171e-07
9.57313e-10
1.4185e-07
9.21283e-10
1.4198e-07
8.8469e-10
1.421e-07
8.48023e-10
1.42214e-07
8.11487e-10
1.4232e-07
7.75136e-10
1.4242e-07
7.3894e-10
1.42515e-07
7.02833e-10
1.42606e-07
6.66723e-10
1.42692e-07
6.30514e-10
5.94105e-10
1.42776e-07
1.11854e-07
8.80502e-10
1.12034e-07
8.69088e-10
1.12207e-07
8.50534e-10
1.12371e-07
8.27505e-10
1.12527e-07
8.01728e-10
1.12674e-07
7.74253e-10
1.12813e-07
7.45736e-10
1.12944e-07
7.16544e-10
1.13069e-07
6.86849e-10
1.13188e-07
6.56716e-10
1.133e-07
6.26156e-10
1.13408e-07
5.95153e-10
1.13511e-07
5.63681e-10
1.1361e-07
5.31708e-10
4.99201e-10
1.13705e-07
8.78584e-08
7.04391e-10
8.80306e-08
6.96803e-10
8.81972e-08
6.84028e-10
8.83569e-08
6.67766e-10
8.85096e-08
6.49064e-10
8.86552e-08
6.28624e-10
8.8794e-08
6.06902e-10
8.89264e-08
5.84168e-10
8.90527e-08
5.60562e-10
8.91732e-08
5.36158e-10
8.92884e-08
5.10991e-10
8.93985e-08
4.85086e-10
8.95037e-08
4.58459e-10
8.96043e-08
4.31126e-10
4.03103e-10
8.97004e-08
6.83633e-08
5.44232e-10
6.85204e-08
5.39761e-10
6.86728e-08
5.31571e-10
6.88199e-08
5.2066e-10
6.89614e-08
5.07624e-10
6.9097e-08
4.92934e-10
6.9227e-08
4.76907e-10
6.93515e-08
4.59737e-10
6.94705e-08
4.41538e-10
6.95843e-08
4.22385e-10
6.96929e-08
4.02333e-10
6.97966e-08
3.81428e-10
6.98953e-08
3.59716e-10
6.99892e-08
3.37242e-10
3.14051e-10
7.00783e-08
5.2669e-08
4.05651e-10
5.28052e-08
4.0356e-10
5.29379e-08
3.98865e-10
5.30665e-08
3.92043e-10
5.31907e-08
3.83423e-10
5.33103e-08
3.73329e-10
5.34252e-08
3.61974e-10
5.35355e-08
3.49496e-10
5.3641e-08
3.35989e-10
5.37419e-08
3.21526e-10
5.3838e-08
3.06167e-10
5.39295e-08
2.8997e-10
5.40162e-08
2.72994e-10
5.40982e-08
2.55298e-10
2.36942e-10
5.41753e-08
4.01326e-08
2.91318e-10
4.02453e-08
2.90877e-10
4.03555e-08
2.88672e-10
4.04627e-08
2.8481e-10
4.05667e-08
2.79489e-10
4.06671e-08
2.72931e-10
4.07638e-08
2.65274e-10
4.08566e-08
2.56616e-10
4.09456e-08
2.47032e-10
4.10305e-08
2.36585e-10
4.11114e-08
2.25335e-10
4.1188e-08
2.13341e-10
4.12603e-08
2.00662e-10
4.13283e-08
1.8736e-10
1.73498e-10
4.13917e-08
3.01924e-08
2.01099e-10
3.02816e-08
2.01648e-10
3.03693e-08
2.0105e-10
3.04549e-08
1.9918e-10
3.05382e-08
1.9619e-10
3.06189e-08
1.9222e-10
3.06968e-08
1.87357e-10
3.07718e-08
1.81668e-10
3.08436e-08
1.7521e-10
3.09121e-08
1.68037e-10
3.09773e-08
1.60197e-10
3.10389e-08
1.51744e-10
3.10968e-08
1.42732e-10
3.11509e-08
1.33217e-10
1.23255e-10
3.12012e-08
2.23696e-08
1.32849e-10
2.24374e-08
1.33853e-10
2.25043e-08
1.34144e-10
2.257e-08
1.33493e-10
2.26341e-08
1.32036e-10
2.26965e-08
1.29848e-10
2.27569e-08
1.26981e-10
2.2815e-08
1.23479e-10
2.28709e-08
1.19383e-10
2.29242e-08
1.14733e-10
2.29748e-08
1.09568e-10
2.30226e-08
1.03932e-10
2.30675e-08
9.78659e-11
2.31093e-08
9.14182e-11
8.46344e-11
2.31479e-08
1.62616e-08
8.3329e-11
1.63111e-08
8.43994e-11
1.63601e-08
8.50572e-11
1.64086e-08
8.50565e-11
1.64561e-08
8.45154e-11
1.65025e-08
8.34646e-11
1.65475e-08
8.19315e-11
1.65911e-08
7.99443e-11
1.66329e-08
7.75294e-11
1.66729e-08
7.47152e-11
1.6711e-08
7.15289e-11
1.67469e-08
6.80029e-11
1.67806e-08
6.4168e-11
1.6812e-08
6.00615e-11
5.57175e-11
1.68409e-08
1.15329e-08
4.89506e-11
1.15675e-08
4.98493e-11
1.1602e-08
5.05395e-11
1.16363e-08
5.08067e-11
1.167e-08
5.07417e-11
1.17032e-08
5.03463e-11
1.17355e-08
4.96346e-11
1.17668e-08
4.86226e-11
1.1797e-08
4.7326e-11
1.18259e-08
4.57631e-11
1.18535e-08
4.39513e-11
1.18796e-08
4.19127e-11
1.19041e-08
3.96673e-11
1.19269e-08
3.72426e-11
3.46631e-11
1.1948e-08
7.90588e-09
2.62726e-11
7.92883e-09
2.68929e-11
7.95193e-09
2.74416e-11
7.97499e-09
2.77494e-11
7.99786e-09
2.7873e-11
8.0204e-09
2.78019e-11
8.04249e-09
2.75428e-11
8.06401e-09
2.71035e-11
8.08485e-09
2.64926e-11
8.10489e-09
2.57206e-11
8.12404e-09
2.47974e-11
8.14222e-09
2.37365e-11
8.15934e-09
2.25496e-11
8.17532e-09
2.12553e-11
1.98714e-11
8.19012e-09
5.15221e-09
1.22736e-11
5.16649e-09
1.26116e-11
5.18097e-09
1.29628e-11
5.19552e-09
1.31993e-11
5.21004e-09
1.33468e-11
5.22445e-09
1.33941e-11
5.23865e-09
1.33442e-11
5.25255e-09
1.32003e-11
5.26608e-09
1.29663e-11
5.27915e-09
1.26476e-11
5.2917e-09
1.2249e-11
5.30366e-09
1.17778e-11
5.31497e-09
1.12395e-11
5.32558e-09
1.06453e-11
1.0009e-11
5.33544e-09
3.08597e-09
4.45915e-12
3.094e-09
4.57978e-12
3.10221e-09
4.75234e-12
3.11052e-09
4.88469e-12
3.11889e-09
4.98195e-12
3.12724e-09
5.03835e-12
3.13553e-09
5.05489e-12
3.1437e-09
5.03286e-12
3.15169e-09
4.97369e-12
3.15946e-09
4.87952e-12
3.16696e-09
4.75211e-12
3.17414e-09
4.59463e-12
3.18097e-09
4.40892e-12
3.18742e-09
4.20073e-12
3.98036e-12
3.19345e-09
1.55683e-09
8.6332e-13
1.56054e-09
8.67968e-13
1.56438e-09
9.19906e-13
1.5683e-09
9.64257e-13
1.57228e-09
9.99516e-13
1.57629e-09
1.02483e-12
1.58031e-09
1.04063e-12
1.58429e-09
1.04737e-12
1.58822e-09
1.0454e-12
1.59207e-09
1.03529e-12
1.5958e-09
1.01731e-12
1.5994e-09
9.9232e-13
1.60285e-09
9.60523e-13
1.60613e-09
9.23796e-13
8.88505e-13
1.60922e-09
4.44252e-10
4.4512e-10
4.4604e-10
4.47004e-10
4.48004e-10
4.49029e-10
4.50069e-10
4.51117e-10
4.52162e-10
4.53197e-10
4.54215e-10
4.55207e-10
4.56167e-10
4.57091e-10
4.5798e-10
1.22695e-09
-5.32351e-10
3.33972e-10
1.50818e-09
-4.93404e-10
2.1217e-10
1.78887e-09
-3.91848e-10
1.11164e-10
2.06249e-09
-2.90245e-10
1.66208e-11
2.32727e-09
-1.94209e-10
-7.05723e-11
2.58406e-09
-1.10089e-10
-1.46692e-10
2.83449e-09
-3.76657e-11
-2.12768e-10
3.08008e-09
2.46543e-11
-2.7025e-10
3.32217e-09
7.93114e-11
-3.21399e-10
3.56184e-09
1.29645e-10
-3.69318e-10
3.79998e-09
1.80023e-10
-4.18161e-10
4.03731e-09
2.3648e-10
-4.73805e-10
4.27452e-09
3.07706e-10
-5.44919e-10
4.51253e-09
4.06312e-10
-6.4432e-10
4.75274e-09
5.5061e-10
-7.9082e-10
4.99753e-09
7.66042e-10
-1.01083e-09
5.25077e-09
1.08559e-09
-1.33883e-09
5.51831e-09
1.55182e-09
-1.81936e-09
5.80859e-09
2.20683e-09
-2.49712e-09
6.13318e-09
3.0753e-09
-3.39988e-09
6.50355e-09
4.13852e-09
-4.50889e-09
6.92589e-09
5.29059e-09
-5.71293e-09
7.3254e-09
5.28462e-09
-5.68412e-09
7.66221e-09
4.42876e-09
-4.76558e-09
7.93008e-09
3.26407e-09
-3.53194e-09
8.12878e-09
1.97223e-09
-2.17092e-09
8.2611e-09
6.78401e-10
-8.10718e-10
8.33061e-09
-5.39483e-10
4.69966e-10
8.3406e-09
-1.63281e-09
1.62282e-09
8.29392e-09
-2.5699e-09
2.61658e-09
8.19337e-09
-3.32914e-09
3.42968e-09
8.04209e-09
-3.89635e-09
4.04763e-09
7.8437e-09
-4.26436e-09
4.46274e-09
7.60225e-09
-4.43305e-09
4.6745e-09
7.3219e-09
-4.40888e-09
4.68923e-09
7.00653e-09
-4.20348e-09
4.51885e-09
6.65943e-09
-3.8314e-09
4.1785e-09
6.28313e-09
-3.30698e-09
3.68328e-09
5.87969e-09
-2.64057e-09
3.044e-09
5.45074e-09
-1.83502e-09
2.26397e-09
4.99578e-09
-8.88642e-10
1.3436e-09
4.50749e-09
1.8599e-10
3.02299e-10
3.97125e-09
1.30405e-09
-7.67807e-10
3.39671e-09
2.25179e-09
-1.67725e-09
2.39786e-09
3.06125e-09
-2.06239e-09
2.53989e-09
-6.09441e-10
2.70249e-09
-6.56002e-10
2.92247e-09
-6.11831e-10
3.16698e-09
-5.3475e-10
3.42146e-09
-4.48698e-10
3.67841e-09
-3.67037e-10
3.935e-09
-2.94252e-10
4.19033e-09
-2.30675e-10
4.44438e-09
-1.7474e-10
4.6975e-09
-1.23478e-10
4.95016e-09
-7.26386e-11
5.20288e-09
-1.62346e-11
5.45627e-09
5.43185e-11
5.71125e-09
1.51331e-10
5.96933e-09
2.92525e-10
6.2331e-09
5.0227e-10
6.50679e-09
8.11908e-10
6.79675e-09
1.26186e-09
7.11213e-09
1.89145e-09
7.46559e-09
2.72183e-09
7.86991e-09
3.7342e-09
8.33241e-09
4.82809e-09
8.77223e-09
4.84479e-09
9.14585e-09
4.05515e-09
9.44588e-09
2.96403e-09
9.67137e-09
1.74674e-09
9.82471e-09
5.2506e-10
9.90939e-09
-6.24162e-10
9.92882e-09
-1.65224e-09
9.88622e-09
-2.5273e-09
9.78491e-09
-3.22783e-09
9.62874e-09
-3.74017e-09
9.42224e-09
-4.05786e-09
9.17059e-09
-4.1814e-09
8.87938e-09
-4.11767e-09
8.55434e-09
-3.87844e-09
8.20122e-09
-3.47828e-09
7.82614e-09
-2.9319e-09
7.43674e-09
-2.25117e-09
7.04434e-09
-1.44262e-09
6.66635e-09
-5.10653e-10
6.32776e-09
5.24586e-10
6.06343e-09
1.56837e-09
5.93051e-09
2.38471e-09
2.46154e-09
5.86683e-09
4.40003e-09
-6.20458e-10
4.46781e-09
-7.23775e-10
4.60183e-09
-7.45851e-10
4.7873e-09
-7.20227e-10
5.0036e-09
-6.64992e-10
5.23769e-09
-6.01127e-10
5.48195e-09
-5.38521e-10
5.73213e-09
-4.80854e-10
5.98595e-09
-4.28557e-10
6.24231e-09
-3.7984e-10
6.50079e-09
-3.31115e-10
6.76135e-09
-2.76797e-10
7.02431e-09
-2.08641e-10
7.29046e-09
-1.14817e-10
7.56132e-09
2.16696e-11
7.83961e-09
2.23976e-10
8.12992e-09
5.21603e-10
8.43908e-09
9.52693e-10
8.77695e-09
1.55359e-09
9.15735e-09
2.34143e-09
9.59442e-09
3.29712e-09
1.00967e-08
4.3258e-09
1.05775e-08
4.36403e-09
1.09892e-08
3.64337e-09
1.13233e-08
2.62995e-09
1.15777e-08
1.49234e-09
1.17543e-08
3.48525e-10
1.18562e-08
-7.26097e-10
1.18871e-08
-1.68312e-09
1.18505e-08
-2.4907e-09
1.17504e-08
-3.12774e-09
1.15915e-08
-3.58132e-09
1.13796e-08
-3.84592e-09
1.11212e-08
-3.92297e-09
1.08236e-08
-3.82011e-09
1.04949e-08
-3.54978e-09
1.0144e-08
-3.12734e-09
9.78116e-09
-2.56906e-09
9.42033e-09
-1.89034e-09
9.08245e-09
-1.10473e-09
8.79992e-09
-2.28123e-10
8.61791e-09
7.06588e-10
8.58192e-09
1.60437e-09
8.699e-09
2.26762e-09
2.36199e-09
8.79856e-09
6.93247e-09
-5.94065e-10
6.93489e-09
-7.26196e-10
6.98693e-09
-7.97892e-10
7.09359e-09
-8.26885e-10
7.2475e-09
-8.189e-10
7.43365e-09
-7.8728e-10
7.64251e-09
-7.47379e-10
7.86714e-09
-7.05485e-10
8.10292e-09
-6.64335e-10
8.34694e-09
-6.23864e-10
8.5975e-09
-5.81668e-10
8.85369e-09
-5.32986e-10
9.11527e-09
-4.70226e-10
9.38274e-09
-3.82286e-10
9.65751e-09
-2.53098e-10
9.94238e-09
-6.0895e-11
1.02422e-08
2.21731e-10
1.05644e-08
6.30497e-10
1.09195e-08
1.19857e-09
1.13224e-08
1.93854e-09
1.17887e-08
2.83076e-09
1.23283e-08
3.7862e-09
1.28489e-08
3.84343e-09
1.32989e-08
3.19334e-09
1.3668e-08
2.26092e-09
1.39527e-08
1.20761e-09
1.41541e-08
1.47131e-10
1.42751e-08
-8.47062e-10
1.43192e-08
-1.72727e-09
1.42906e-08
-2.4621e-09
1.4194e-08
-3.03112e-09
1.40352e-08
-3.4225e-09
1.38212e-08
-3.63193e-09
1.35603e-08
-3.66213e-09
1.32621e-08
-3.52188e-09
1.29371e-08
-3.22481e-09
1.25976e-08
-2.78783e-09
1.22583e-08
-2.22976e-09
1.19386e-08
-1.57062e-09
1.16659e-08
-8.32009e-10
1.14789e-08
-4.11622e-11
1.14252e-08
7.60348e-10
1.15393e-08
1.49022e-09
1.17967e-08
2.01025e-09
2.14451e-09
1.20142e-08
1.03034e-08
-5.49964e-10
1.02627e-08
-6.85447e-10
1.02526e-08
-7.87795e-10
1.02833e-08
-8.57602e-10
1.03588e-08
-8.94369e-10
1.04768e-08
-9.05313e-10
1.06272e-08
-8.97784e-10
1.08031e-08
-8.81394e-10
1.09988e-08
-8.59995e-10
1.12099e-08
-8.34998e-10
1.14336e-08
-8.05332e-10
1.16679e-08
-7.67331e-10
1.1912e-08
-7.14331e-10
1.2166e-08
-6.36229e-10
1.2431e-08
-5.18107e-10
1.27099e-08
-3.39793e-10
1.30079e-08
-7.62867e-11
1.33328e-08
3.05575e-10
1.36958e-08
8.35627e-10
1.41131e-08
1.52121e-09
1.46019e-08
2.34194e-09
1.51731e-08
3.21495e-09
1.57298e-08
3.28678e-09
1.62161e-08
2.70709e-09
1.66193e-08
1.85771e-09
1.69344e-08
8.92434e-10
1.71614e-08
-7.98349e-11
1.73025e-08
-9.88183e-10
1.73615e-08
-1.78619e-09
1.73427e-08
-2.44337e-09
1.7252e-08
-2.94041e-09
1.70964e-08
-3.26685e-09
1.68844e-08
-3.42e-09
1.66264e-08
-3.40413e-09
1.63341e-08
-3.22959e-09
1.6021e-08
-2.91164e-09
1.57024e-08
-2.46921e-09
1.53967e-08
-1.92408e-09
1.51268e-08
-1.30076e-09
1.4922e-08
-6.27204e-10
1.48182e-08
6.26285e-11
1.48532e-08
7.25398e-10
1.50445e-08
1.2989e-09
1.53547e-08
1.70001e-09
1.84641e-09
1.56528e-08
1.47105e-08
-4.99604e-10
1.46481e-08
-6.23113e-10
1.45954e-08
-7.35071e-10
1.4566e-08
-8.28234e-10
1.4569e-08
-8.97321e-10
1.46096e-08
-9.45963e-10
1.46857e-08
-9.73859e-10
1.47928e-08
-9.88477e-10
1.49262e-08
-9.9341e-10
1.50818e-08
-9.90543e-10
1.52561e-08
-9.7965e-10
1.54468e-08
-9.58043e-10
1.56525e-08
-9.20047e-10
1.5873e-08
-8.56724e-10
1.61094e-08
-7.54488e-10
1.63645e-08
-5.94936e-10
1.66441e-08
-3.5586e-10
1.69564e-08
-6.71547e-12
1.73131e-08
4.78904e-10
1.77321e-08
1.10224e-09
1.8232e-08
1.84199e-09
1.88249e-08
2.62211e-09
1.94101e-08
2.70156e-09
1.99275e-08
2.18972e-09
2.03616e-08
1.42361e-09
2.07052e-08
5.48779e-10
2.09568e-08
-3.31403e-10
2.11179e-08
-1.14928e-09
2.11921e-08
-1.86043e-09
2.11846e-08
-2.43585e-09
2.1102e-08
-2.85781e-09
2.09528e-08
-3.11764e-09
2.07473e-08
-3.21456e-09
2.0498e-08
-3.15474e-09
2.02187e-08
-2.95035e-09
1.99256e-08
-2.6185e-09
1.96366e-08
-2.18022e-09
1.93724e-08
-1.65987e-09
1.91566e-08
-1.08499e-09
1.90159e-08
-4.86539e-10
1.89781e-08
1.00514e-10
1.90659e-08
6.37517e-10
1.9283e-08
1.08186e-09
1.95932e-08
1.38979e-09
1.52969e-09
1.99099e-08
2.03901e-08
-4.47468e-10
2.03204e-08
-5.5342e-10
2.02452e-08
-6.59831e-10
2.01759e-08
-7.58998e-10
2.01239e-08
-8.453e-10
2.00956e-08
-9.17606e-10
2.00958e-08
-9.7413e-10
2.01248e-08
-1.01745e-09
2.0181e-08
-1.0496e-09
2.02622e-08
-1.07171e-09
2.0366e-08
-1.08349e-09
2.04906e-08
-1.08269e-09
2.06349e-08
-1.06435e-09
2.07989e-08
-1.02065e-09
2.09838e-08
-9.39386e-10
2.11928e-08
-8.03979e-10
2.14324e-08
-5.95442e-10
2.17115e-08
-2.85802e-10
2.20424e-08
1.47959e-10
2.24448e-08
6.99878e-10
2.29391e-08
1.34772e-09
2.35379e-08
2.02326e-09
2.41392e-08
2.10023e-09
2.46784e-08
1.65054e-09
2.51365e-08
9.65542e-10
2.55036e-08
1.81694e-10
2.57762e-08
-6.04017e-10
2.5955e-08
-1.32808e-09
2.60434e-08
-1.9489e-09
2.60473e-08
-2.43966e-09
2.59742e-08
-2.78475e-09
2.58343e-08
-2.97771e-09
2.56396e-08
-3.01994e-09
2.54046e-08
-2.9197e-09
2.51453e-08
-2.69108e-09
2.48798e-08
-2.35292e-09
2.46275e-08
-1.92793e-09
2.44095e-08
-1.44188e-09
2.42476e-08
-9.23157e-10
2.41632e-08
-4.02089e-10
2.41737e-08
8.99585e-11
2.42887e-08
5.22549e-10
2.45018e-08
8.68794e-10
2.47831e-08
1.1085e-09
1.23361e-09
2.50791e-08
2.76248e-08
-3.92738e-10
2.75527e-08
-4.81259e-10
2.7468e-08
-5.75156e-10
2.7378e-08
-6.68983e-10
2.72908e-08
-7.58131e-10
2.72131e-08
-8.39853e-10
2.7151e-08
-9.12104e-10
2.71082e-08
-9.74624e-10
2.70864e-08
-1.02774e-09
2.7086e-08
-1.07139e-09
2.71071e-08
-1.10461e-09
2.71495e-08
-1.12505e-09
2.72132e-08
-1.12805e-09
2.72993e-08
-1.10672e-09
2.741e-08
-1.05007e-09
2.75492e-08
-9.43263e-10
2.77248e-08
-7.71007e-10
2.79467e-08
-5.07662e-10
2.8228e-08
-1.3334e-10
2.85905e-08
3.37346e-10
2.90568e-08
8.81418e-10
2.964e-08
1.4401e-09
3.02391e-08
1.50106e-09
3.07856e-08
1.10406e-09
3.12561e-08
4.95063e-10
3.16374e-08
-1.99643e-10
3.1924e-08
-8.9057e-10
3.21152e-08
-1.5193e-09
3.22144e-08
-2.04807e-09
3.22278e-08
-2.45305e-09
3.21643e-08
-2.72128e-09
3.20355e-08
-2.84888e-09
3.18552e-08
-2.83965e-09
3.16394e-08
-2.70396e-09
3.1406e-08
-2.45762e-09
3.11738e-08
-2.12076e-09
3.09627e-08
-1.71679e-09
3.07922e-08
-1.27136e-09
3.06804e-08
-8.11403e-10
3.06421e-08
-3.63821e-10
3.0686e-08
4.6145e-11
3.0812e-08
3.96539e-10
3.10088e-08
6.71924e-10
3.12529e-08
8.6439e-10
9.75327e-10
3.15112e-08
3.6744e-08
-3.31902e-10
3.66679e-08
-4.05209e-10
3.65779e-08
-4.85172e-10
3.64774e-08
-5.68438e-10
3.63709e-08
-6.51646e-10
3.62632e-08
-7.32178e-10
3.61592e-08
-8.08064e-10
3.60627e-08
-8.78145e-10
3.59768e-08
-9.41812e-10
3.59037e-08
-9.98291e-10
3.58452e-08
-1.04613e-09
3.5803e-08
-1.08287e-09
3.5779e-08
-1.10397e-09
3.57757e-08
-1.10343e-09
3.5797e-08
-1.07143e-09
3.58484e-08
-9.94608e-10
3.59394e-08
-8.61992e-10
3.60816e-08
-6.49884e-10
3.62892e-08
-3.40913e-10
3.65869e-08
3.96566e-11
3.69996e-08
4.68715e-10
3.75404e-08
8.99205e-10
3.81137e-08
9.27796e-10
3.86475e-08
5.70241e-10
3.91136e-08
2.89479e-11
3.94953e-08
-5.81258e-10
3.97843e-08
-1.17965e-09
3.9979e-08
-1.71397e-09
4.00823e-08
-2.15133e-09
4.01009e-08
-2.4717e-09
4.0045e-08
-2.66536e-09
3.99274e-08
-2.73126e-09
3.97634e-08
-2.67567e-09
3.95703e-08
-2.51084e-09
3.93665e-08
-2.25384e-09
3.9171e-08
-1.92527e-09
3.90022e-08
-1.54803e-09
3.8877e-08
-1.14608e-09
3.88087e-08
-7.43145e-10
3.88061e-08
-3.61253e-10
3.88711e-08
-1.88506e-11
3.8999e-08
2.68686e-10
3.91769e-08
4.93976e-10
3.93865e-08
6.5478e-10
7.55426e-10
3.96064e-08
4.81145e-08
-2.61854e-10
4.80314e-08
-3.22187e-10
4.79352e-08
-3.88948e-10
4.7827e-08
-4.60201e-10
4.7709e-08
-5.33646e-10
4.7584e-08
-6.07158e-10
4.74549e-08
-6.78976e-10
4.73245e-08
-7.4777e-10
4.71953e-08
-8.12581e-10
4.70694e-08
-8.72413e-10
4.6949e-08
-9.2575e-10
4.68366e-08
-9.70417e-10
4.67348e-08
-1.00221e-09
4.66477e-08
-1.01635e-09
4.65806e-08
-1.00437e-09
4.65403e-08
-9.54283e-10
4.65386e-08
-8.60265e-10
4.6589e-08
-7.00252e-10
4.67066e-08
-4.58559e-10
4.69197e-08
-1.73429e-10
4.72556e-08
1.32769e-10
4.77273e-08
4.27546e-10
4.82483e-08
4.06776e-10
4.87458e-08
7.27377e-11
4.91864e-08
-4.11619e-10
4.955e-08
-9.44843e-10
4.9826e-08
-1.45568e-09
5.00114e-08
-1.89935e-09
5.01088e-08
-2.24878e-09
5.01256e-08
-2.48852e-09
5.00728e-08
-2.61255e-09
4.99644e-08
-2.6228e-09
4.98165e-08
-2.5278e-09
4.96469e-08
-2.34125e-09
4.94739e-08
-2.08078e-09
4.9315e-08
-1.76644e-09
4.91864e-08
-1.41945e-09
4.91012e-08
-1.06082e-09
4.90682e-08
-7.10125e-10
4.90912e-08
-3.84239e-10
4.91686e-08
-9.63265e-11
4.92929e-08
1.44399e-10
4.94527e-08
3.34156e-10
4.96338e-08
4.7375e-10
5.67725e-10
4.98215e-08
6.21264e-08
-1.82027e-10
6.20353e-08
-2.31126e-10
6.19322e-08
-2.85857e-10
6.18172e-08
-3.45178e-10
6.16911e-08
-4.07601e-10
6.15555e-08
-4.71522e-10
6.1412e-08
-5.35438e-10
6.12622e-08
-5.9804e-10
6.11079e-08
-6.58226e-10
6.09504e-08
-7.1492e-10
6.07913e-08
-7.66665e-10
6.06327e-08
-8.11777e-10
6.0477e-08
-8.46543e-10
6.03284e-08
-8.67705e-10
6.01925e-08
-8.68534e-10
6.00767e-08
-8.385e-10
5.99941e-08
-7.77585e-10
5.99594e-08
-6.65572e-10
5.99889e-08
-4.88043e-10
6.01131e-08
-2.97608e-10
6.03606e-08
-1.14826e-10
6.07443e-08
4.39353e-11
6.11909e-08
-3.98745e-11
6.16293e-08
-3.65688e-10
6.20227e-08
-8.04953e-10
6.2348e-08
-1.27014e-09
6.2593e-08
-1.70077e-09
6.2754e-08
-2.06033e-09
6.28336e-08
-2.32831e-09
6.28395e-08
-2.4944e-09
6.27834e-08
-2.5565e-09
6.26801e-08
-2.51946e-09
6.25459e-08
-2.39364e-09
6.23982e-08
-2.19357e-09
6.22539e-08
-1.9365e-09
6.21286e-08
-1.64105e-09
6.20349e-08
-1.32579e-09
6.19822e-08
-1.00818e-09
6.19756e-08
-7.03513e-10
6.20156e-08
-4.24189e-10
6.20984e-08
-1.79097e-10
6.2216e-08
2.67356e-11
6.23592e-08
1.90927e-10
6.2517e-08
3.16005e-10
4.05709e-10
6.2679e-08
7.91885e-08
-9.50285e-11
7.90917e-08
-1.34322e-10
7.89841e-08
-1.78262e-10
7.88653e-08
-2.26337e-10
7.87354e-08
-2.7765e-10
7.85949e-08
-3.31078e-10
7.84449e-08
-3.85432e-10
7.82864e-08
-4.39548e-10
7.81205e-08
-4.92317e-10
7.79482e-08
-5.42663e-10
7.77708e-08
-5.8917e-10
7.75896e-08
-6.30594e-10
7.74067e-08
-6.63715e-10
7.72257e-08
-6.86663e-10
7.70516e-08
-6.94472e-10
7.68917e-08
-6.78563e-10
7.67579e-08
-6.43789e-10
7.6665e-08
-5.72628e-10
7.66319e-08
-4.54946e-10
7.6686e-08
-3.51771e-10
7.6852e-08
-2.80818e-10
7.71464e-08
-2.5042e-10
7.75105e-08
-4.0398e-10
7.78766e-08
-7.31765e-10
7.82065e-08
-1.13492e-09
7.84768e-08
-1.54045e-09
7.86752e-08
-1.89911e-09
7.87979e-08
-2.18303e-09
7.88481e-08
-2.37854e-09
7.88342e-08
-2.48053e-09
7.87685e-08
-2.49076e-09
7.86656e-08
-2.4166e-09
7.85416e-08
-2.26961e-09
7.84124e-08
-2.06432e-09
7.82927e-08
-1.81683e-09
7.81952e-08
-1.54352e-09
7.81293e-08
-1.25992e-09
7.8101e-08
-9.79842e-10
7.81122e-08
-7.14787e-10
7.81616e-08
-4.73535e-10
7.82444e-08
-2.61914e-10
7.8354e-08
-8.28469e-11
7.84819e-08
6.30019e-11
7.86202e-08
1.77669e-10
2.64484e-10
7.87615e-08
9.97534e-08
-5.2101e-12
9.96552e-08
-3.6072e-11
9.95475e-08
-7.05962e-11
9.94297e-08
-1.08551e-10
9.93015e-08
-1.49437e-10
9.9163e-08
-1.92533e-10
9.90145e-08
-2.36977e-10
9.88568e-08
-2.81849e-10
9.86907e-08
-3.26178e-10
9.8517e-08
-3.69006e-10
9.83369e-08
-4.09083e-10
9.81518e-08
-4.45473e-10
9.79637e-08
-4.75584e-10
9.77757e-08
-4.98719e-10
9.75921e-08
-5.10876e-10
9.7421e-08
-5.074e-10
9.72712e-08
-4.94048e-10
9.71549e-08
-4.56319e-10
9.70998e-08
-3.99849e-10
9.7123e-08
-3.74958e-10
9.72291e-08
-3.86875e-10
9.74512e-08
-4.72511e-10
9.77464e-08
-6.99255e-10
9.80431e-08
-1.02844e-09
9.83062e-08
-1.39799e-09
9.85147e-08
-1.74902e-09
9.86585e-08
-2.04283e-09
9.87354e-08
-2.25994e-09
9.875e-08
-2.39314e-09
9.87115e-08
-2.4421e-09
9.86326e-08
-2.41182e-09
9.85275e-08
-2.31147e-09
9.84109e-08
-2.15299e-09
9.82966e-08
-1.95011e-09
9.81969e-08
-1.71713e-09
9.81213e-08
-1.46785e-09
9.8076e-08
-1.21469e-09
9.80644e-08
-9.68219e-10
9.80865e-08
-7.36853e-10
9.81397e-08
-5.26701e-10
9.82193e-08
-3.41571e-10
9.83196e-08
-1.83112e-10
9.84337e-08
-5.11125e-11
9.85556e-08
5.58066e-11
1.40456e-10
9.86796e-08
1.24366e-07
8.4843e-11
1.24269e-07