/*--------------------------------*- C++ -*----------------------------------*\
| =========                 |                                                 |
| \\      /  F ield         | OpenFOAM: The Open Source CFD Toolbox           |
|  \\    /   O peration     | Version:  2312                                  |
|   \\  /    A nd           | Website:  www.openfoam.com                      |
|    \\/     M anipulation  |                                                 |
\*---------------------------------------------------------------------------*/
FoamFile
{
    version     2.0;
    format      ascii;
    arch        "LSB;label=32;scalar=64";
    class       volVectorField;
    location    "78";
    object      U;
}
// * * * * * * * * * * * * * * * * * * * * * * * * * * * * * * * * * * * * * //

dimensions      [0 1 -1 0 0 0 0];

internalField   nonuniform List<vector> 
4800
(
(0.000467965 4.17094e-07 -2.99867e-26)
(0.000457037 4.52013e-07 -2.07364e-25)
(0.000449801 4.58515e-07 2.67127e-25)
(0.000445111 4.41638e-07 1.17979e-25)
(0.000442259 4.04684e-07 1.70749e-24)
(0.000440765 3.4768e-07 -4.04538e-24)
(0.000440512 2.80294e-07 3.72674e-24)
(0.000441225 2.07441e-07 -5.31373e-24)
(0.000442882 7.44485e-08 1.7258e-24)
(0.000445668 -1.7346e-07 5.71359e-24)
(0.000449945 -6.5852e-07 -1.76531e-24)
(0.000456995 -2.00436e-06 -1.58596e-25)
(0.000473812 -6.9894e-06 -2.10484e-24)
(0.000517489 -2.69935e-05 9.72688e-25)
(0.000589197 -8.68453e-05 -7.72733e-25)
(0.00144529 2.23196e-06 -9.51112e-26)
(0.00141249 1.74439e-06 1.18466e-25)
(0.00139076 1.3568e-06 -1.06075e-24)
(0.00137664 1.01292e-06 8.00523e-25)
(0.00136796 6.81809e-07 2.46732e-24)
(0.00136329 3.19431e-07 -3.90189e-24)
(0.00136219 -9.49307e-08 -1.05704e-24)
(0.00136378 -5.79435e-07 -2.12506e-25)
(0.00136804 -1.30628e-06 8.74125e-24)
(0.00137551 -2.53481e-06 -6.42799e-24)
(0.00138715 -4.85854e-06 6.99997e-25)
(0.00140569 -1.04486e-05 1.04785e-24)
(0.00143959 -2.66847e-05 -1.53434e-24)
(0.00149894 -7.59386e-05 -4.56579e-25)
(0.00156235 -0.000185515 1.99786e-24)
(0.00252459 7.12152e-06 -6.78959e-26)
(0.00246886 5.50763e-06 6.94801e-26)
(0.00243194 4.25183e-06 6.94166e-25)
(0.00240788 3.16812e-06 -1.63975e-24)
(0.00239299 2.15723e-06 1.58566e-24)
(0.00238478 1.07056e-06 1.44702e-24)
(0.00238238 -1.93584e-07 -3.71706e-24)
(0.0023843 -1.68199e-06 -2.22045e-24)
(0.00239036 -3.84124e-06 5.42367e-24)
(0.00240136 -7.28468e-06 2.00778e-24)
(0.00241807 -1.33696e-05 -6.99659e-24)
(0.00244266 -2.59521e-05 -1.02316e-24)
(0.00247904 -5.42266e-05 2.96709e-24)
(0.00252575 -0.000116316 4.63404e-24)
(0.00255868 -0.000218296 -2.38866e-24)
(0.00371282 1.58362e-05 2.50466e-26)
(0.00363345 1.22779e-05 -1.73225e-25)
(0.00358081 9.51523e-06 7.61169e-25)
(0.00354636 7.14783e-06 7.85391e-25)
(0.0035248 4.96101e-06 -8.07379e-25)
(0.00351262 2.65176e-06 -4.45819e-24)
(0.00350822 -3.32097e-09 -2.88909e-24)
(0.00350975 -3.00973e-06 1.08811e-23)
(0.00351647 -7.28591e-06 4.46021e-24)
(0.00352911 -1.38405e-05 -6.54136e-24)
(0.00354759 -2.4455e-05 -2.60546e-24)
(0.00357238 -4.35683e-05 -1.9587e-24)
(0.00360269 -7.88313e-05 6.68706e-26)
(0.00363149 -0.000139482 1.43573e-24)
(0.00364143 -0.000219886 6.97943e-27)
(0.00501519 2.91963e-05 -4.59126e-26)
(0.00491218 2.2671e-05 -2.78493e-25)
(0.00484364 1.76122e-05 -1.66911e-25)
(0.00479851 1.33079e-05 4.71979e-25)
(0.0047699 9.372e-06 -1.2857e-24)
(0.00475325 5.31098e-06 3.19546e-24)
(0.00474604 8.40492e-07 -5.73165e-25)
(0.00474624 -4.39567e-06 1.88509e-24)
(0.00475232 -1.11649e-05 -1.04772e-23)
(0.00476443 -2.11128e-05 1.98417e-23)
(0.00478147 -3.58665e-05 -1.90807e-23)
(0.00480227 -5.91065e-05 9.98367e-24)
(0.00482348 -9.54401e-05 -9.19214e-24)
(0.00483767 -0.000147572 8.62856e-24)
(0.00483511 -0.000207779 -3.42897e-24)
(0.00643363 4.81848e-05 6.06801e-26)
(0.00630827 3.75061e-05 2.15379e-25)
(0.00622437 2.92284e-05 -1.12553e-24)
(0.00616867 2.22319e-05 -6.81249e-25)
(0.00613281 1.59004e-05 1.86977e-24)
(0.00611125 9.53665e-06 6.50593e-25)
(0.00610057 2.68599e-06 -5.03393e-24)
(0.00609821 -5.00641e-06 1.19099e-23)
(0.00610241 -1.47309e-05 -1.53377e-23)
(0.00611198 -2.7793e-05 3.69993e-24)
(0.00612522 -4.56487e-05 1.09794e-23)
(0.00613991 -7.05176e-05 -1.51302e-23)
(0.00615227 -0.000104196 7.56651e-24)
(0.00615676 -0.000146065 7.66307e-24)
(0.00614902 -0.000189982 -5.82438e-24)
(0.00796451 7.3656e-05 5.03091e-26)
(0.00782028 5.75741e-05 -2.95848e-25)
(0.00772285 4.50745e-05 1.04497e-24)
(0.00765746 3.45615e-05 -1.43402e-24)
(0.00761462 2.51388e-05 -4.73441e-24)
(0.007588 1.59132e-05 8.06123e-24)
(0.00757337 6.25168e-06 -4.80446e-24)
(0.00756763 -4.29397e-06 1.6103e-23)
(0.0075686 -1.68531e-05 -1.0968e-23)
(0.00757427 -3.25523e-05 -5.04918e-24)
(0.00758242 -5.22928e-05 -9.77034e-24)
(0.00759057 -7.69473e-05 9.00623e-24)
(0.00759563 -0.000106514 2.51254e-24)
(0.00759423 -0.000139264 2.12466e-24)
(0.007585 -0.00017118 -1.86793e-24)
(0.00959606 0.000105909 -7.29339e-26)
(0.00943975 8.33313e-05 9.81417e-25)
(0.00933271 6.56579e-05 -2.26168e-24)
(0.00925985 5.08215e-05 -1.78232e-24)
(0.0092112 3.76278e-05 7.24622e-25)
(0.00917998 2.50136e-05 1.34057e-24)
(0.00916139 1.21992e-05 4.60348e-24)
(0.00915188 -1.36131e-06 -1.23378e-23)
(0.00914889 -1.65877e-05 -6.38697e-24)
(0.00914999 -3.42854e-05 1.79086e-23)
(0.0091528 -5.48312e-05 -5.43614e-24)
(0.00915504 -7.82035e-05 1.85787e-23)
(0.00915461 -0.000103618 -9.75765e-24)
(0.00914966 -0.00012939 -3.07969e-24)
(0.00914024 -0.00015315 1.81931e-24)
(0.0113068 0.000144081 -9.74457e-27)
(0.0111493 0.000114452 5.44683e-25)
(0.0110393 9.09439e-05 -7.72617e-25)
(0.0109632 7.11554e-05 1.79702e-24)
(0.0109113 5.36429e-05 -1.05592e-23)
(0.0108769 3.72257e-05 1.11019e-23)
(0.0108551 2.10335e-05 -1.70628e-23)
(0.0108422 4.47444e-06 1.05668e-23)
(0.0108354 -1.3135e-05 7.71371e-24)
(0.0108321 -3.22515e-05 1.64238e-23)
(0.0108302 -5.28774e-05 -2.14088e-23)
(0.0108278 -7.45853e-05 -3.88025e-24)
(0.0108236 -9.64799e-05 1.84627e-24)
(0.0108165 -0.000117338 1.27903e-23)
(0.0108073 -0.000135864 -5.18621e-24)
(0.0130676 0.000185474 5.42935e-26)
(0.0129232 0.000149247 -2.31612e-25)
(0.0128197 0.000119866 1.0125e-24)
(0.0127465 9.49097e-05 -3.49313e-24)
(0.0126955 7.28339e-05 5.23379e-24)
(0.0126608 5.2432e-05 -6.64039e-24)
(0.0126378 3.28231e-05 1.09724e-23)
(0.0126228 1.34296e-05 1.81116e-24)
(0.0126132 -6.21597e-06 -1.48315e-23)
(0.0126067 -2.63098e-05 2.08469e-23)
(0.0126014 -4.66745e-05 -2.29041e-23)
(0.0125959 -6.68258e-05 -6.62724e-24)
(0.0125894 -8.60642e-05 1.17628e-23)
(0.0125814 -0.000103658 3.46072e-24)
(0.0125726 -0.000118965 -1.50764e-24)
(0.0148517 0.000225458 2.22778e-25)
(0.0147342 0.000184311 -1.81382e-24)
(0.0146471 0.000149905 -2.80179e-24)
(0.0145841 0.000120207 6.70447e-24)
(0.0145393 9.38083e-05 2.88489e-24)
(0.014508 6.96103e-05 -1.8092e-23)
(0.0144865 4.68141e-05 5.66542e-24)
(0.0144717 2.49156e-05 4.01808e-24)
(0.0144613 3.60619e-06 -1.66697e-23)
(0.0144533 -1.71659e-05 1.75057e-23)
(0.0144465 -3.72089e-05 -1.3679e-23)
(0.0144397 -5.61649e-05 3.52587e-23)
(0.0144327 -7.36056e-05 -1.68446e-23)
(0.0144247 -8.9178e-05 9.87537e-24)
(0.0144168 -0.000102624 -2.68654e-24)
(0.0166517 0.000259134 -8.87135e-26)
(0.016567 0.000215348 1.23629e-24)
(0.0165025 0.000177444 -2.38185e-24)
(0.0164549 0.000144044 -1.15427e-24)
(0.0164206 0.000114081 1.29784e-23)
(0.0163962 8.66935e-05 -2.0103e-24)
(0.0163791 6.12431e-05 -2.25623e-23)
(0.0163669 3.7339e-05 2.6034e-23)
(0.0163579 1.47777e-05 -5.89543e-24)
(0.0163506 -6.46264e-06 -1.98903e-23)
(0.0163442 -2.62614e-05 2.10815e-23)
(0.0163379 -4.44384e-05 1.1218e-23)
(0.0163316 -6.08065e-05 -9.53723e-24)
(0.0163248 -7.52644e-05 -1.63435e-23)
(0.0163185 -8.77721e-05 1.36712e-24)
(0.0184891 0.000284823 2.15701e-27)
(0.0184315 0.000239841 -1.37844e-24)
(0.0183875 0.000199753 6.45236e-24)
(0.0183551 0.00016376 3.06624e-25)
(0.0183318 0.000131171 3.45537e-24)
(0.0183153 0.000101395 -1.2701e-23)
(0.0183037 7.39792e-05 1.06247e-23)
(0.0182954 4.86343e-05 2.29679e-24)
(0.0182891 2.52127e-05 2.13428e-23)
(0.0182838 3.65701e-06 -3.31876e-23)
(0.0182792 -1.6017e-05 -1.48646e-23)
(0.0182745 -3.37845e-05 -9.72181e-24)
(0.0182699 -4.9633e-05 1.83765e-23)
(0.018265 -6.36148e-05 -5.22472e-25)
(0.0182606 -7.5809e-05 1.76965e-24)
(0.0203931 0.000305595 -1.85641e-26)
(0.0203511 0.000259425 1.3976e-24)
(0.0203198 0.000217511 -2.02952e-24)
(0.0202972 0.000179435 7.71862e-27)
(0.0202814 0.000144785 2.58731e-24)
(0.0202705 0.000113177 6.476e-24)
(0.0202629 8.42896e-05 -2.50687e-23)
(0.0202576 5.78865e-05 2.22519e-24)
(0.0202536 3.38085e-05 1.26251e-23)
(0.0202502 1.19413e-05 -5.71033e-24)
(0.0202473 -7.80349e-06 1.56337e-23)
(0.0202443 -2.5518e-05 1.08576e-23)
(0.0202415 -4.1301e-05 -1.97265e-23)
(0.0202384 -5.52901e-05 1.34433e-23)
(0.0202357 -6.76288e-05 -1.11686e-23)
(0.0223568 0.000325115 -5.99442e-25)
(0.0223236 0.000277611 3.18507e-25)
(0.0222991 0.000233876 2.34288e-24)
(0.0222815 0.000193834 -1.20324e-23)
(0.0222692 0.000157302 1.05936e-23)
(0.0222607 0.000124049 -7.59857e-24)
(0.0222549 9.38384e-05 5.48124e-24)
(0.0222507 6.64425e-05 -3.81865e-23)
(0.0222476 4.16539e-05 5.51162e-23)
(0.022245 1.92794e-05 -3.22471e-23)
(0.0222429 -8.55813e-07 2.87645e-23)
(0.0222408 -1.89282e-05 2.39328e-23)
(0.0222389 -3.50998e-05 -4.18088e-23)
(0.0222369 -4.95483e-05 1.35882e-23)
(0.0222353 -6.24484e-05 -5.70251e-25)
(0.0243153 0.000343033 -2.2238e-26)
(0.0242914 0.000294952 -7.36965e-26)
(0.0242733 0.000249995 2.28892e-26)
(0.02426 0.000208477 -3.22865e-25)
(0.0242504 0.000170446 4.18712e-24)
(0.0242436 0.000135805 -7.19318e-24)
(0.0242388 0.000104388 6.67391e-24)
(0.0242352 7.5977e-05 -2.10542e-23)
(0.0242325 5.03391e-05 4.78339e-23)
(0.0242303 2.72254e-05 -6.11381e-23)
(0.0242284 6.39492e-06 5.00319e-23)
(0.0242266 -1.23904e-05 -1.68882e-23)
(0.0242252 -2.9335e-05 8.77297e-25)
(0.0242236 -4.46277e-05 3.87503e-24)
(0.0242226 -5.84499e-05 -7.42766e-24)
(0.0261666 0.000356448 -1.9093e-24)
(0.0261536 0.000308961 3.69915e-24)
(0.0261433 0.000263834 -1.55515e-24)
(0.0261355 0.000221737 -1.39263e-24)
(0.0261299 0.000182944 6.09704e-24)
(0.0261257 0.000147471 -6.28882e-24)
(0.0261228 0.000115203 -5.80465e-24)
(0.0261206 8.59425e-05 -1.41102e-23)
(0.0261189 5.94514e-05 7.12723e-24)
(0.0261175 3.54738e-05 3.44084e-23)
(0.0261163 1.3773e-05 -1.81976e-23)
(0.026115 -5.91829e-06 1.08988e-23)
(0.0261141 -2.38491e-05 -4.47179e-24)
(0.0261131 -4.02051e-05 -1.33491e-23)
(0.0261126 -5.51584e-05 6.84045e-24)
(0.0277901 0.000363417 6.48e-25)
(0.027787 0.00031754 -1.17114e-24)
(0.0277844 0.000273263 -1.04439e-24)
(0.0277824 0.000231519 1.28096e-24)
(0.0277811 0.000192754 -2.05115e-24)
(0.0277803 0.000157094 7.7228e-24)
(0.0277799 0.000124463 -6.60728e-24)
(0.0277797 9.4679e-05 -4.63507e-24)
(0.0277796 6.75135e-05 4.16661e-24)
(0.0277795 4.2708e-05 -5.17428e-24)
(0.0277795 2.00245e-05 1.20186e-23)
(0.0277793 -7.36204e-07 6.23433e-24)
(0.0277792 -1.98067e-05 -2.32313e-23)
(0.0277791 -3.73705e-05 1.61344e-23)
(0.0277792 -5.36015e-05 -3.30942e-24)
(0.0290309 0.000363419 1.97575e-24)
(0.0290364 0.000319959 3.84422e-24)
(0.0290407 0.000277439 -8.33821e-24)
(0.0290441 0.000236935 -1.95946e-24)
(0.0290471 0.00019899 4.22952e-24)
(0.0290496 0.000163788 -6.34322e-25)
(0.029052 0.000131326 -3.44428e-24)
(0.0290539 0.000101457 5.09836e-24)
(0.0290556 7.39617e-05 8.14174e-24)
(0.029057 4.86099e-05 -2.01804e-23)
(0.0290582 2.51495e-05 1.20972e-23)
(0.0290592 3.36608e-06 -8.76759e-25)
(0.0290602 -1.68623e-05 -7.78302e-25)
(0.0290612 -3.57111e-05 1.06897e-24)
(0.0290624 -5.33511e-05 -4.99372e-25)
(0.029674 0.000351855 -5.33408e-24)
(0.0296878 0.000311585 -1.28285e-23)
(0.0296991 0.00027176 5.0736e-24)
(0.0297084 0.00023344 2.62802e-23)
(0.0297163 0.000197193 -7.79113e-24)
(0.029723 0.000163232 -4.41753e-24)
(0.0297288 0.000131596 2.78676e-24)
(0.0297338 0.000102188 4.28165e-24)
(0.0297382 7.48349e-05 -5.69383e-24)
(0.0297417 4.93717e-05 1.66716e-24)
(0.0297446 2.56646e-05 1.53525e-24)
(0.0297471 3.46064e-06 -1.59533e-24)
(0.0297493 -1.74226e-05 -3.03582e-24)
(0.029751 -3.71284e-05 4.91096e-24)
(0.0297524 -5.57533e-05 -2.2859e-24)
(0.0294995 0.000334019 8.68977e-24)
(0.0295189 0.000297085 -2.06701e-23)
(0.0295352 0.000260233 2.79516e-24)
(0.029549 0.000224425 3.56635e-23)
(0.0295608 0.000190206 -3.66315e-23)
(0.0295711 0.000157812 1.48536e-23)
(0.02958 0.000127279 1.55664e-23)
(0.0295879 9.85244e-05 -3.64992e-23)
(0.0295947 7.14717e-05 -3.97743e-26)
(0.0296007 4.60075e-05 1.28398e-23)
(0.029606 2.19419e-05 3.64656e-24)
(0.0296103 -7.39197e-07 -2.30179e-24)
(0.0296137 -2.20944e-05 1.76451e-24)
(0.0296167 -4.2296e-05 -4.29584e-25)
(0.0296194 -6.14903e-05 7.16126e-26)
(0.0285847 0.000307646 5.51675e-24)
(0.0286101 0.000274399 -1.19829e-23)
(0.0286311 0.000241068 -9.53317e-24)
(0.0286482 0.000208465 4.46986e-23)
(0.0286625 0.000177061 -4.33795e-23)
(0.0286743 0.000147044 3.86514e-24)
(0.028684 0.000118456 8.08445e-24)
(0.028692 9.12701e-05 5.41206e-24)
(0.0286986 6.54258e-05 6.35066e-24)
(0.0287036 4.08321e-05 -3.47496e-23)
(0.0287076 1.74351e-05 2.18334e-23)
(0.0287111 -4.77186e-06 1.71642e-25)
(0.0287139 -2.58681e-05 1.25626e-23)
(0.0287157 -4.59963e-05 -5.84832e-24)
(0.0287168 -6.52399e-05 -1.28944e-24)
(0.0270394 0.000274622 1.39499e-23)
(0.0270697 0.000245147 -2.53143e-23)
(0.0270956 0.000215575 5.0182e-24)
(0.0271175 0.000186547 -1.4742e-23)
(0.0271362 0.000158421 -2.14294e-23)
(0.0271522 0.000131342 6.89551e-23)
(0.0271658 0.000105365 -2.84489e-23)
(0.0271775 8.04786e-05 8.93062e-24)
(0.0271873 5.66424e-05 -5.3341e-24)
(0.0271956 3.38503e-05 -1.64146e-23)
(0.0272025 1.20812e-05 3.23924e-23)
(0.0272081 -8.87401e-06 -2.0051e-23)
(0.0272123 -2.91473e-05 2.33363e-24)
(0.0272155 -4.86645e-05 3.87087e-24)
(0.0272177 -6.73792e-05 -4.95973e-25)
(0.0251809 0.0002427 5.4237e-24)
(0.025215 0.000216592 -2.92049e-23)
(0.0252445 0.000190361 5.26185e-23)
(0.0252698 0.000164503 -4.18618e-23)
(0.0252916 0.000139293 4.5302e-23)
(0.0253103 0.000114841 -1.40823e-23)
(0.0253263 9.11917e-05 -1.05583e-23)
(0.02534 6.83572e-05 -1.33254e-23)
(0.0253515 4.63087e-05 2.68245e-23)
(0.0253611 2.49909e-05 1.41203e-24)
(0.025369 4.37661e-06 -2.86039e-23)
(0.0253753 -1.55339e-05 -4.79987e-24)
(0.02538 -3.47367e-05 8.32539e-24)
(0.0253834 -5.31987e-05 -2.07998e-24)
(0.0253856 -7.09223e-05 5.03233e-25)
(0.0231502 0.000209609 7.25846e-25)
(0.0231877 0.000186702 -1.10961e-23)
(0.0232204 0.000163635 -7.09384e-24)
(0.0232484 0.000140789 5.52076e-23)
(0.0232726 0.000118369 -5.6204e-23)
(0.0232934 9.64798e-05 1.6908e-23)
(0.023311 7.51645e-05 3.08636e-24)
(0.023326 5.44434e-05 -1.7542e-24)
(0.0233384 3.43176e-05 -9.23811e-24)
(0.0233486 1.48227e-05 4.23074e-23)
(0.0233568 -4.00213e-06 -3.46162e-23)
(0.023363 -2.22035e-05 -2.14635e-24)
(0.0233674 -3.97545e-05 3.5146e-24)
(0.0233702 -5.665e-05 3.91647e-24)
(0.0233713 -7.28962e-05 -3.15233e-24)
(0.0210512 0.000176556 1.08305e-24)
(0.0210908 0.000156758 1.04015e-23)
(0.0211254 0.000136771 -1.18556e-23)
(0.021155 0.000116899 -9.00981e-24)
(0.0211805 9.73054e-05 5.99366e-23)
(0.0212021 7.80844e-05 -4.58186e-23)
(0.0212204 5.92971e-05 -7.41508e-25)
(0.0212356 4.09866e-05 -1.08824e-23)
(0.021248 2.32138e-05 -1.2502e-24)
(0.0212579 5.99202e-06 1.44885e-24)
(0.0212653 -1.07243e-05 -8.00341e-24)
(0.0212704 -2.69027e-05 5.58516e-24)
(0.0212734 -4.25181e-05 1.81723e-24)
(0.0212743 -5.75632e-05 1.96176e-24)
(0.0212733 -7.20221e-05 3.16285e-24)
(0.0189531 0.0001452 7.72194e-24)
(0.0189932 0.000128427 -1.20042e-23)
(0.0190279 0.000111465 -1.05593e-23)
(0.0190576 9.45573e-05 3.24222e-23)
(0.0190829 7.78405e-05 -1.15714e-23)
(0.0191043 6.1394e-05 -1.80625e-23)
(0.019122 4.52934e-05 6.13236e-24)
(0.0191363 2.95787e-05 1.57294e-23)
(0.0191475 1.42838e-05 -2.66199e-23)
(0.0191559 -5.947e-07 2.77887e-23)
(0.0191614 -1.50556e-05 -1.58786e-23)
(0.0191645 -2.90458e-05 7.44001e-24)
(0.019165 -4.25444e-05 -1.13116e-23)
(0.0191632 -5.55324e-05 1.19736e-23)
(0.0191592 -6.79857e-05 -3.21738e-24)
(0.0169005 0.00011681 -1.49716e-24)
(0.0169393 0.00010294 -5.48531e-24)
(0.0169728 8.88976e-05 -1.83353e-23)
(0.0170012 7.48831e-05 5.13504e-23)
(0.0170252 6.09911e-05 -8.66814e-24)
(0.0170451 4.72922e-05 -1.54087e-23)
(0.0170612 3.38433e-05 6.0338e-24)
(0.0170738 2.06889e-05 -8.62668e-24)
(0.017083 7.84067e-06 -2.09525e-23)
(0.0170892 -4.67372e-06 2.00254e-23)
(0.0170923 -1.67974e-05 9.67861e-25)
(0.0170927 -2.85239e-05 -8.34986e-24)
(0.0170904 -3.98292e-05 9.44355e-24)
(0.0170856 -5.06871e-05 7.81365e-25)
(0.0170783 -6.10741e-05 -9.52995e-25)
(0.0149224 9.20934e-05 5.75083e-24)
(0.0149588 8.09222e-05 9.05428e-24)
(0.0149901 6.9609e-05 -7.89923e-24)
(0.0150164 5.83013e-05 -1.91466e-23)
(0.0150384 4.70567e-05 2.69061e-23)
(0.0150562 3.59389e-05 -3.06981e-23)
(0.0150702 2.49993e-05 -2.07447e-24)
(0.0150806 1.42881e-05 1.2552e-23)
(0.0150876 3.81276e-06 4.69379e-24)
(0.0150914 -6.38131e-06 -1.11628e-23)
(0.0150921 -1.62619e-05 -9.95399e-25)
(0.01509 -2.58122e-05 2.5918e-23)
(0.015085 -3.50073e-05 -1.00454e-23)
(0.0150774 -4.38235e-05 -2.94297e-24)
(0.0150671 -5.22381e-05 -2.17346e-25)
(0.0130385 7.1209e-05 -5.96096e-24)
(0.0130719 6.24603e-05 7.73231e-24)
(0.0131004 5.36024e-05 9.98441e-25)
(0.0131242 4.47272e-05 1.76256e-23)
(0.0131439 3.58718e-05 -1.39876e-23)
(0.0131595 2.70967e-05 1.57391e-24)
(0.0131714 1.84525e-05 -1.31661e-24)
(0.0131797 9.97912e-06 -5.02871e-24)
(0.0131846 1.70569e-06 5.21726e-24)
(0.0131863 -6.3783e-06 -1.69594e-23)
(0.013185 -1.4209e-05 5.34647e-25)
(0.0131807 -2.17702e-05 4.08024e-24)
(0.0131737 -2.90409e-05 2.8943e-24)
(0.013164 -3.60012e-05 1.28725e-24)
(0.0131517 -4.26307e-05 5.85434e-25)
(0.0112617 5.39549e-05 4.4059e-24)
(0.0112917 4.73055e-05 -3.44452e-24)
(0.0113172 4.05782e-05 -1.65033e-23)
(0.0113385 3.38137e-05 1.55299e-23)
(0.0113558 2.70428e-05 2.35796e-23)
(0.0113694 2.03208e-05 -5.1518e-24)
(0.0113794 1.36895e-05 -1.24498e-23)
(0.011386 7.18215e-06 -1.94845e-23)
(0.0113893 8.28411e-07 1.509e-23)
(0.0113895 -5.38834e-06 1.14573e-24)
(0.0113867 -1.14151e-05 -3.87998e-24)
(0.0113811 -1.72314e-05 -1.30969e-24)
(0.0113728 -2.28183e-05 2.63051e-24)
(0.0113619 -2.81601e-05 2.68489e-27)
(0.0113485 -3.32403e-05 -6.62276e-25)
(0.00959936 3.99518e-05 -2.76736e-24)
(0.009626 3.50614e-05 -2.15351e-24)
(0.00964866 3.0119e-05 2.38948e-24)
(0.00966751 2.51253e-05 -8.66177e-24)
(0.00968273 2.01122e-05 2.87597e-23)
(0.00969448 1.51257e-05 -3.97907e-23)
(0.00970293 1.01974e-05 4.068e-23)
(0.0097082 5.35488e-06 -1.76884e-23)
(0.00971041 6.20437e-07 4.54617e-24)
(0.00970971 -4.00092e-06 4.32264e-25)
(0.00970622 -8.49835e-06 -3.62697e-24)
(0.00970006 -1.28373e-05 1.72697e-24)
(0.00969132 -1.70011e-05 -3.41716e-24)
(0.00968015 -2.09798e-05 -5.62895e-25)
(0.00966664 -2.47601e-05 3.06926e-25)
(0.00805529 2.87667e-05 -1.34226e-24)
(0.00807862 2.53012e-05 3.05969e-25)
(0.00809852 2.18026e-05 7.63358e-25)
(0.00811507 1.82465e-05 -3.89973e-24)
(0.00812841 1.46677e-05 -2.01034e-24)
(0.00813865 1.11006e-05 1.62544e-23)
(0.00814592 7.56743e-06 -9.71552e-24)
(0.00815031 4.09035e-06 1.55669e-24)
(0.00815192 6.90997e-07 -1.47198e-24)
(0.00815087 -2.62477e-06 -1.80457e-24)
(0.00814727 -5.8683e-06 -6.97264e-25)
(0.00814123 -8.99551e-06 3.92977e-24)
(0.00813283 -1.19934e-05 1.42386e-24)
(0.0081222 -1.48578e-05 -2.71235e-24)
(0.00810943 -1.75787e-05 -5.07056e-25)
(0.00663008 1.99814e-05 -4.87333e-25)
(0.00665019 1.76306e-05 -1.85073e-25)
(0.00666744 1.52599e-05 -8.4726e-24)
(0.00668184 1.28336e-05 1.95685e-24)
(0.00669347 1.03874e-05 -6.8952e-24)
(0.00670242 7.94378e-06 4.16291e-24)
(0.00670877 5.51739e-06 9.05561e-24)
(0.0067126 3.12311e-06 7.48509e-24)
(0.00671399 7.78238e-07 -1.08673e-23)
(0.00671302 -1.49198e-06 3.29486e-24)
(0.00670978 -3.73727e-06 3.22293e-24)
(0.00670438 -5.90103e-06 -5.08983e-24)
(0.00669688 -7.97145e-06 2.74382e-24)
(0.0066874 -9.95102e-06 -3.80103e-25)
(0.00667602 -1.1832e-05 9.44696e-25)
(0.00532202 1.32227e-05 -1.90598e-24)
(0.00533899 1.17124e-05 -2.77316e-24)
(0.00535367 1.01911e-05 -6.86385e-25)
(0.00536599 8.62347e-06 7.03315e-24)
(0.00537602 7.04083e-06 -5.28014e-24)
(0.0053838 5.45605e-06 -1.25254e-24)
(0.00538938 3.87814e-06 9.17726e-24)
(0.00539283 2.31612e-06 2.47715e-25)
(0.00539419 7.81903e-07 -1.86633e-24)
(0.00539359 -6.83028e-07 -8.16346e-24)
(0.005391 -2.16306e-06 5.40816e-25)
(0.00538656 -3.58574e-06 6.30528e-24)
(0.00538033 -4.94177e-06 -8.36263e-25)
(0.00537239 -6.24033e-06 -1.18471e-24)
(0.00536281 -7.47529e-06 8.25952e-25)
(0.00412767 8.16714e-06 -4.16041e-25)
(0.00414155 7.26379e-06 1.07996e-26)
(0.00415367 6.35693e-06 3.32418e-24)
(0.00416392 5.41661e-06 2.43408e-24)
(0.00417235 4.46652e-06 -1.44356e-24)
(0.00417897 3.51247e-06 -4.12428e-24)
(0.00418382 2.55971e-06 1.81759e-24)
(0.00418694 1.61361e-06 -7.97848e-24)
(0.00418835 6.74815e-07 6.18887e-24)
(0.00418818 -2.00947e-07 3.57125e-24)
(0.00418639 -1.10202e-06 2.62346e-25)
(0.00418304 -1.97753e-06 -4.30286e-24)
(0.00417822 -2.80477e-06 8.88417e-25)
(0.004172 -3.59796e-06 -7.86553e-25)
(0.00416443 -4.35255e-06 4.2351e-25)
(0.00304224 4.53419e-06 -7.65192e-25)
(0.00305304 4.04466e-06 -1.03344e-26)
(0.00306257 3.55842e-06 2.64407e-24)
(0.00307069 3.05269e-06 -1.66317e-24)
(0.00307745 2.54175e-06 7.43368e-24)
(0.00308285 2.0275e-06 -1.37828e-23)
(0.0030869 1.51246e-06 1.17534e-23)
(0.00308963 9.99796e-07 -1.02775e-23)
(0.00309104 4.88335e-07 7.76521e-24)
(0.00309123 1.53295e-08 -5.24458e-24)
(0.00309021 -4.75322e-07 1.85223e-24)
(0.00308793 -9.57029e-07 2.94992e-25)
(0.00308453 -1.40982e-06 5.81599e-25)
(0.00308003 -1.84327e-06 -7.45635e-25)
(0.00307447 -2.2544e-06 1.74601e-25)
(0.00205995 2.09067e-06 1.16e-24)
(0.00206766 1.86187e-06 1.33583e-24)
(0.00207453 1.64128e-06 -5.64908e-24)
(0.00208044 1.41254e-06 4.23658e-24)
(0.00208543 1.18189e-06 -5.0853e-28)
(0.00208947 9.49928e-07 1.26379e-24)
(0.00209259 7.18726e-07 -1.44624e-24)
(0.00209479 4.89149e-07 -3.3776e-24)
(0.00209606 2.59761e-07 3.45323e-24)
(0.00209646 4.99568e-08 4.63482e-25)
(0.00209603 -1.70146e-07 -3.15626e-24)
(0.0020947 -3.85565e-07 1.13168e-24)
(0.00209257 -5.86884e-07 7.97903e-25)
(0.00208966 -7.79004e-07 -8.51085e-26)
(0.00208601 -9.61057e-07 -1.17214e-25)
(0.00117434 6.75384e-07 -1.16963e-24)
(0.00117895 6.05483e-07 3.6572e-24)
(0.0011831 5.41219e-07 2.36986e-24)
(0.0011867 4.71955e-07 -4.08004e-24)
(0.00118978 3.99435e-07 -4.87632e-25)
(0.00119233 3.24415e-07 -4.68993e-25)
(0.00119433 2.53267e-07 1.53148e-24)
(0.00119581 1.83908e-07 -2.65983e-24)
(0.00119674 1.1294e-07 3.85494e-24)
(0.00119716 4.80799e-08 -1.86993e-24)
(0.00119709 -1.96594e-08 -1.37385e-24)
(0.0011965 -8.63535e-08 8.83761e-25)
(0.00119542 -1.45079e-07 -1.25097e-24)
(0.00119388 -2.05496e-07 1.31605e-24)
(0.00119189 -2.7114e-07 -2.53742e-25)
(0.000378571 1.39709e-07 -8.3444e-27)
(0.000380074 1.82753e-07 7.17443e-25)
(0.00038145 2.17822e-07 8.75139e-25)
(0.00038266 2.41331e-07 -1.32407e-24)
(0.00038371 2.53884e-07 2.99382e-24)
(0.000384594 2.56205e-07 -3.23485e-24)
(0.00038531 2.52912e-07 2.32626e-25)
(0.000385857 2.43005e-07 2.05853e-24)
(0.000386228 2.24622e-07 -2.85742e-24)
(0.000386429 1.99699e-07 -6.13289e-25)
(0.000386472 1.68775e-07 2.28159e-24)
(0.000386345 1.31534e-07 -1.03874e-24)
(0.000386057 9.25281e-08 -4.68527e-25)
(0.000385612 4.56119e-08 4.0398e-25)
(0.000385018 -1.16097e-08 -2.09791e-26)
(0.000871625 -0.000220562 7.60825e-26)
(0.000998626 -0.000135087 1.92497e-24)
(0.00121383 -4.6603e-05 -5.4999e-24)
(0.00143475 2.75673e-05 7.92352e-24)
(0.00164876 8.92613e-05 -2.9705e-24)
(0.00186078 0.000139052 -2.81401e-24)
(0.00207106 0.000178941 3.18739e-24)
(0.00228043 0.000210495 -6.3034e-24)
(0.0024896 0.00023492 3.69031e-25)
(0.00269905 0.000253175 4.01438e-24)
(0.00290916 0.000266052 -7.86693e-25)
(0.00312034 0.000274277 8.74301e-25)
(0.00333308 0.000278502 -7.23358e-26)
(0.00354808 0.000279249 6.16657e-25)
(0.00376636 0.000276892 -2.2781e-24)
(0.00398935 0.000271636 1.27127e-24)
(0.00421903 0.00026351 -4.4071e-25)
(0.00445814 0.000252338 1.47333e-26)
(0.0047104 0.000237576 1.10309e-24)
(0.00498061 0.000217929 -6.97865e-25)
(0.00527412 0.000190347 8.51566e-26)
(0.00559482 0.000149006 -7.3171e-26)
(0.00591536 8.85589e-05 1.23897e-25)
(0.00619378 1.23112e-05 4.24395e-25)
(0.00641773 -7.50275e-05 -7.6415e-25)
(0.00658884 -0.000168958 -4.09599e-25)
(0.0067095 -0.000264919 1.02106e-25)
(0.00678274 -0.000360491 8.57318e-25)
(0.00681208 -0.000454069 5.92817e-25)
(0.00680054 -0.000543231 -1.06508e-24)
(0.00675019 -0.000624772 -5.89942e-25)
(0.00666265 -0.000694758 1.67102e-24)
(0.00653933 -0.000748388 -9.72569e-25)
(0.00638171 -0.000779998 -2.83459e-24)
(0.00619146 -0.000783088 2.80497e-24)
(0.00597041 -0.000750234 1.24555e-23)
(0.00572058 -0.000672785 -4.25023e-24)
(0.00544415 -0.000540098 2.14472e-24)
(0.00514358 -0.000338183 8.08077e-25)
(0.00482211 -4.82175e-05 -1.50504e-23)
(0.00448251 0.00035144 -1.75899e-25)
(0.00412797 0.000873131 5.80747e-24)
(0.00374111 0.00147926 1.68068e-24)
(0.00333544 0.00202435 -7.97468e-24)
(0.00310352 0.00208741 -3.85285e-25)
(0.00164837 -0.000297067 -2.22646e-24)
(0.0017013 -0.000245478 -3.08811e-24)
(0.00183516 -0.000160166 6.4981e-24)
(0.00200391 -7.95352e-05 2.96045e-24)
(0.00218482 -8.47124e-06 -1.03466e-23)
(0.00237357 5.08286e-05 1.09713e-23)
(0.00256661 9.93758e-05 -3.92176e-24)
(0.00276251 0.00013865 3.12388e-24)
(0.00296078 0.000169946 -4.13206e-24)
(0.0031612 0.000194336 3.9199e-26)
(0.00336374 0.0002127 -2.31466e-24)
(0.00356857 0.000225829 4.63438e-24)
(0.00377598 0.000234418 -2.63564e-24)
(0.00398654 0.000239009 -2.58525e-24)
(0.00420112 0.000239992 -1.94259e-24)
(0.004421 0.000237586 3.36153e-24)
(0.00464795 0.000231825 -5.05557e-25)
(0.00488442 0.000222537 2.01864e-24)
(0.00513374 0.000209182 3.60411e-25)
(0.00540018 0.000190521 -6.34907e-25)
(0.00568846 0.000163674 -2.67263e-25)
(0.00600196 0.000123216 -1.48261e-25)
(0.00631405 6.43687e-05 6.78493e-25)
(0.00658453 -9.25763e-06 6.98159e-25)
(0.00680197 -9.30785e-05 -7.40195e-25)
(0.00696819 -0.00018275 -2.6934e-24)
(0.00708548 -0.000273746 3.31775e-24)
(0.00715664 -0.000363675 -1.9353e-24)
(0.0071851 -0.000450942 6.12511e-25)
(0.00717396 -0.000533057 2.51503e-26)
(0.00712546 -0.000606723 -1.21187e-24)
(0.00704143 -0.000667958 4.16365e-24)
(0.00692367 -0.000711965 -5.78265e-24)
(0.00677416 -0.000733121 1.61085e-23)
(0.00659525 -0.000724997 -2.29875e-23)
(0.00638976 -0.000680268 5.94371e-24)
(0.00616112 -0.000590439 2.07394e-23)
(0.00591371 -0.000445197 -6.38464e-24)
(0.00565344 -0.000231266 -1.52967e-23)
(0.00538945 6.9038e-05 -8.46994e-24)
(0.0051355 0.000476527 1.92957e-23)
(0.00491492 0.00100448 -1.80485e-23)
(0.00474882 0.00161724 -3.71427e-24)
(0.00467871 0.00216182 1.08576e-23)
(0.00472679 0.00217075 3.42732e-24)
(0.0025722 -0.000303906 -2.52716e-26)
(0.00257915 -0.000292067 -3.55819e-24)
(0.00263697 -0.000237922 6.88535e-24)
(0.00274409 -0.000167601 5.67192e-24)
(0.00287818 -9.75114e-05 -9.30535e-24)
(0.00303091 -3.44975e-05 1.94409e-25)
(0.0031959 1.95144e-05 8.84346e-25)
(0.0033694 6.47403e-05 9.60108e-24)
(0.00354932 0.000101933 -1.13962e-23)
(0.00373441 0.000131932 7.14607e-24)
(0.003924 0.000155517 2.33788e-24)
(0.0041178 0.000173447 -1.2467e-23)
(0.00431581 0.000186396 4.52969e-24)
(0.00451833 0.000194889 1.93913e-24)
(0.00472603 0.00019931 -4.31818e-24)
(0.00493998 0.000199877 7.27564e-24)
(0.00516168 0.000196624 -5.33071e-24)
(0.00539328 0.000189374 -1.79422e-25)
(0.00563766 0.000177592 4.1492e-25)
(0.0058985 0.000160092 4.90666e-25)
(0.00617982 0.000134171 7.3421e-26)
(0.0064844 9.47987e-05 2.80825e-25)
(0.00678633 3.77598e-05 -6.718e-25)
(0.00704731 -3.30386e-05 1.90865e-24)
(0.00725682 -0.000113132 -2.75184e-24)
(0.00741694 -0.000198326 1.53391e-24)
(0.00752981 -0.000284096 -2.63399e-24)
(0.00759799 -0.000368076 3.47684e-24)
(0.00762488 -0.00044871 -1.84479e-24)
(0.00761364 -0.000523441 1.2192e-24)
(0.00756671 -0.000588879 2.00716e-24)
(0.00748618 -0.000641012 -4.76232e-24)
(0.00737424 -0.000675077 2.2144e-24)
(0.00723343 -0.000685562 8.29296e-24)
(0.0070668 -0.000666239 -1.9647e-23)
(0.00687822 -0.000610112 2.95271e-23)
(0.00667259 -0.000509246 -1.91936e-23)
(0.00645639 -0.000354367 2.49637e-23)
(0.00623875 -0.000134246 -4.67167e-23)
(0.00603358 0.000164945 1.75609e-23)
(0.00586211 0.000557644 5.844e-24)
(0.00575747 0.00104876 8.79201e-24)
(0.00575346 0.0015965 -1.09282e-23)
(0.00587185 0.00205548 3.11601e-24)
(0.00606568 0.0020566 -1.8882e-24)
(0.00362856 -0.000286642 -9.40564e-25)
(0.00360971 -0.000299233 -1.42328e-24)
(0.00361893 -0.000274821 -6.07463e-24)
(0.00366682 -0.000226919 1.71898e-24)
(0.00374939 -0.000167775 1.12618e-24)
(0.00385763 -0.000108641 4.71935e-24)
(0.00398527 -5.43328e-05 -9.82779e-24)
(0.00412753 -6.55368e-06 3.72933e-24)
(0.00428108 3.43156e-05 1.26308e-23)
(0.00444367 6.84636e-05 -3.30084e-24)
(0.00461393 9.63045e-05 -3.21044e-24)
(0.00479104 0.000118398 -5.31719e-25)
(0.00497456 0.0001353 1.85152e-24)
(0.00516449 0.000147447 -3.73406e-24)
(0.00536122 0.00015517 8.19495e-25)
(0.00556555 0.000158656 -4.08042e-25)
(0.0057787 0.000157922 -2.22887e-24)
(0.00600244 0.000152772 7.10363e-25)
(0.00623916 0.000142672 3.9767e-24)
(0.00649192 0.000126489 -4.64736e-25)
(0.00676398 0.000101689 -9.17166e-25)
(0.0070574 6.36399e-05 -2.35309e-25)
(0.00734701 8.68323e-06 -1.18041e-24)
(0.0075965 -5.89975e-05 6.45127e-26)
(0.00779633 -0.000135085 -2.19907e-24)
(0.00794878 -0.000215516 4.07086e-24)
(0.00805586 -0.000295731 -2.63349e-24)
(0.00811992 -0.0003734 4.68293e-24)
(0.00814429 -0.000447035 -2.87652e-24)
(0.00813228 -0.000514041 1.0591e-24)
(0.00808651 -0.000570947 -3.45691e-27)
(0.00800937 -0.00061375 -3.36071e-25)
(0.00790344 -0.000637798 -4.13627e-25)
(0.00777182 -0.000637799 -2.24099e-24)
(0.00761831 -0.000607902 3.46462e-24)
(0.00744775 -0.000541727 -8.79024e-24)
(0.00726636 -0.00043234 3.89273e-23)
(0.00708239 -0.000272201 -2.08882e-23)
(0.0069072 -5.31835e-05 -1.12066e-24)
(0.0067571 0.000232936 -4.03024e-23)
(0.00665527 0.000591853 3.02975e-23)
(0.00663362 0.00101831 -1.06646e-23)
(0.00672215 0.00147058 2.54588e-24)
(0.00692416 0.00183841 1.35651e-23)
(0.00717946 0.00190214 -3.40965e-24)
(0.00481464 -0.000259441 -3.88859e-24)
(0.00478556 -0.000284067 7.90912e-24)
(0.0047684 -0.00027784 2.16336e-24)