/*--------------------------------*- C++ -*----------------------------------*\
| =========                 |                                                 |
| \\      /  F ield         | OpenFOAM: The Open Source CFD Toolbox           |
|  \\    /   O peration     | Version:  2312                                  |
|   \\  /    A nd           | Website:  www.openfoam.com                      |
|    \\/     M anipulation  |                                                 |
\*---------------------------------------------------------------------------*/
FoamFile
{
    version     2.0;
    format      ascii;
    arch        "LSB;label=32;scalar=64";
    class       surfaceScalarField;
    location    "130.75";
    object      phi;
}
// * * * * * * * * * * * * * * * * * * * * * * * * * * * * * * * * * * * * * //

dimensions      [0 3 -1 0 0 0 0];

oriented        oriented;

internalField   nonuniform List<scalar> 
9445
(
6.07466e-10
8.92806e-12
6.02657e-10
4.80975e-12
6.0036e-10
2.29649e-12
5.99757e-10
6.03109e-13
6.00433e-10
-6.75735e-13
6.02253e-10
-1.82e-12
6.05002e-10
-2.74962e-12
6.08777e-10
-3.77437e-12
6.13838e-10
-5.06138e-12
6.2061e-10
-6.77198e-12
6.30252e-10
-9.64242e-12
6.46465e-10
-1.62127e-11
6.82414e-10
-3.59487e-11
7.85013e-10
-1.026e-10
-2.67619e-10
1.05263e-09
2.12248e-09
4.018e-11
2.10481e-09
2.2485e-11
2.09554e-09
1.15647e-11
2.09197e-09
4.17298e-12
2.09272e-09
-1.41939e-12
2.09713e-09
-6.23751e-12
2.10466e-09
-1.02805e-11
2.11553e-09
-1.46437e-11
2.1304e-09
-1.99268e-11
2.15053e-09
-2.69015e-11
2.17889e-09
-3.80044e-11
2.22267e-09
-5.99902e-11
2.29586e-09
-1.0914e-10
2.41221e-09
-2.18953e-10
-3.90588e-10
2.53518e-09
4.19017e-09
1.01269e-10
4.1544e-09
5.82516e-11
4.13446e-09
3.15054e-11
4.1253e-09
1.33358e-11
4.1243e-09
-4.27179e-13
4.13002e-09
-1.19524e-11
4.14147e-09
-2.17291e-11
4.15894e-09
-3.2115e-11
4.18316e-09
-4.41463e-11
4.2157e-09
-5.94479e-11
4.2596e-09
-8.18977e-11
4.3197e-09
-1.2009e-10
4.39889e-09
-1.88336e-10
4.48283e-09
-3.02887e-10
-4.40483e-10
4.53272e-09
6.95984e-09
2.00379e-10
6.8999e-09
1.18184e-10
6.86468e-09
6.67283e-11
6.84636e-09
3.16614e-11
6.8409e-09
5.03088e-12
6.84569e-09
-1.67456e-11
6.85909e-09
-3.51312e-11
6.88128e-09
-5.43033e-11
6.9126e-09
-7.54624e-11
6.95396e-09
-1.00806e-10
7.00666e-09
-1.34601e-10
7.07048e-09
-1.83905e-10
7.13867e-09
-2.56534e-10
7.19019e-09
-3.54402e-10
-4.51339e-10
7.20104e-09
1.06104e-08
3.44895e-10
1.05202e-08
2.08364e-10
1.04647e-08
1.2227e-10
1.0433e-08
6.33377e-11
1.04194e-08
1.86511e-11
1.04199e-08
-1.73333e-11
1.04324e-08
-4.76059e-11
1.0456e-08
-7.78427e-11
1.04903e-08
-1.09778e-10
1.05348e-08
-1.45314e-10
1.05882e-08
-1.88043e-10
1.0646e-08
-2.41709e-10
1.06974e-08
-3.07885e-10
1.07245e-08
-3.81544e-10
-4.4335e-10
1.07165e-08
1.53504e-08
5.3837e-10
1.52258e-08
3.32973e-10
1.51457e-08
2.02352e-10
1.50967e-08
1.1238e-10
1.50708e-08
4.45182e-11
1.50633e-08
-9.81754e-12
1.5071e-08
-5.53793e-11
1.50916e-08
-9.83502e-11
1.51234e-08
-1.41585e-10
1.51643e-08
-1.86263e-10
1.52108e-08
-2.34493e-10
1.5256e-08
-2.86957e-10
1.52897e-08
-3.41613e-10
1.53006e-08
-3.92392e-10
-4.28321e-10
1.52856e-08
2.14144e-08
7.75408e-10
2.12565e-08
4.90842e-10
2.11509e-08
3.07951e-10
2.10824e-08
1.80926e-10
2.10415e-08
8.54419e-11
2.10223e-08
9.3484e-12
2.1021e-08
-5.40409e-11
2.10337e-08
-1.11106e-10
2.10573e-08
-1.65183e-10
2.10882e-08
-2.17182e-10
2.11214e-08
-2.67711e-10
2.11503e-08
-3.1578e-10
2.11672e-08
-3.58562e-10
2.11666e-08
-3.91825e-10
-4.1078e-10
2.11491e-08
2.90538e-08
1.03476e-09
2.88743e-08
6.70427e-10
2.87492e-08
4.33027e-10
2.86638e-08
2.6635e-10
2.86082e-08
1.40953e-10
2.85762e-08
4.1403e-11
2.85629e-08
-4.077e-11
2.85639e-08
-1.12121e-10
2.85747e-08
-1.75981e-10
2.85908e-08
-2.33248e-10
2.86069e-08
-2.83847e-10
2.86178e-08
-3.26654e-10
2.86191e-08
-3.59818e-10
2.86088e-08
-3.81548e-10
-3.90717e-10
2.85887e-08
3.85256e-08
1.27368e-09
3.83513e-08
8.4472e-10
3.82241e-08
5.60194e-10
3.81329e-08
3.576e-10
3.80695e-08
2.04311e-10
3.80281e-08
8.27593e-11
3.8004e-08
-1.65952e-11
3.79924e-08
-1.00596e-10
3.79887e-08
-1.72277e-10
3.79883e-08
-2.32766e-10
3.79866e-08
-2.8223e-10
3.79804e-08
-3.20415e-10
3.79676e-08
-3.47007e-10
3.79482e-08
-3.62184e-10
-3.66721e-10
3.79242e-08
5.00892e-08
1.43107e-09
4.99631e-08
9.70851e-10
4.98644e-08
6.58941e-10
4.97891e-08
4.32886e-10
4.97333e-08
2.601e-10
4.96933e-08
1.22763e-10
4.96655e-08
1.12059e-11
4.96459e-08
-8.10225e-11
4.9631e-08
-1.57321e-10
4.96169e-08
-2.18662e-10
4.96008e-08
-2.66166e-10
4.95811e-08
-3.00726e-10
4.95574e-08
-3.23335e-10
4.95307e-08
-3.354e-10
-3.38548e-10
4.95025e-08
6.40373e-08
1.44919e-09
6.40061e-08
1.00201e-09
6.39729e-08
6.92179e-10
6.39426e-08
4.63165e-10
6.39169e-08
2.85795e-10
6.38956e-08
1.44018e-10
6.38776e-08
2.92664e-11
6.38606e-08
-6.40941e-11
6.38434e-08
-1.40072e-10
6.38238e-08
-1.99066e-10
6.38009e-08
-2.43278e-10
6.37747e-08
-2.74495e-10
6.37458e-08
-2.94478e-10
6.37156e-08
-3.05186e-10
-3.0849e-10
6.36855e-08
8.07736e-08
1.31046e-09
8.08617e-08
9.1388e-10
8.09188e-08
6.35059e-10
8.09565e-08
4.2553e-10
8.0981e-08
2.61249e-10
8.09958e-08
1.29242e-10
8.10021e-08
2.29369e-11
8.10015e-08
-6.34881e-11
8.0994e-08
-1.32538e-10
8.09801e-08
-1.85179e-10
8.09607e-08
-2.23864e-10
8.0937e-08
-2.5084e-10
8.09106e-08
-2.68098e-10
8.08831e-08
-2.77635e-10
-2.81206e-10
8.08558e-08
1.009e-07
1.05702e-09
1.01086e-07
7.27255e-10
1.01225e-07
4.96021e-10
1.01329e-07
3.21387e-10
1.01407e-07
1.83921e-10
1.01463e-07
7.33811e-11
1.015e-07
-1.39826e-11
1.01523e-07
-8.67057e-11
1.01533e-07
-1.43066e-10
1.01533e-07
-1.8533e-10
1.01526e-07
-2.16052e-10
1.01512e-07
-2.37269e-10
1.01495e-07
-2.50794e-10
1.01476e-07
-2.58355e-10
-2.61406e-10
1.01456e-07
1.25188e-07
7.60539e-10
1.25419e-07
4.95993e-10
1.256e-07
3.1492e-10
1.25742e-07
1.79797e-10
1.25851e-07
7.48456e-11
1.25932e-07
-8.08762e-12
1.25993e-07
-7.40807e-11
1.26034e-07
-1.27919e-10
1.26059e-07
-1.68627e-10
1.26073e-07
-1.9877e-10
1.26077e-07
-2.20215e-10
1.26074e-07
-2.34684e-10
1.26067e-07
-2.4364e-10
1.26057e-07
-2.48416e-10
-2.50087e-10
1.26046e-07
1.54386e-07
4.71855e-10
1.54616e-07
2.66788e-10
1.54797e-07
1.33123e-10
1.54941e-07
3.58074e-11
1.55053e-07
-3.64069e-11
1.55138e-07
-9.29688e-11
1.55202e-07
-1.38137e-10
1.55246e-07
-1.7206e-10
1.55275e-07
-1.98107e-10
1.55293e-07
-2.16398e-10
1.55302e-07
-2.28975e-10
1.55304e-07
-2.36942e-10
1.55302e-07
-2.41373e-10
1.55296e-07
-2.43199e-10
-2.43135e-10
1.55289e-07
1.88993e-07
2.07463e-10
1.89201e-07
5.86181e-11
1.89363e-07
-2.92904e-11
1.8949e-07
-9.08709e-11
1.89588e-07
-1.34114e-10
1.89662e-07
-1.67144e-10
1.89715e-07
-1.90778e-10
1.89751e-07
-2.08339e-10
1.89774e-07
-2.20999e-10
1.89787e-07
-2.29241e-10
1.89792e-07
-2.34188e-10
1.89791e-07
-2.36549e-10
1.89787e-07
-2.3702e-10
1.8978e-07
-2.36228e-10
-2.34483e-10
1.89771e-07
2.29116e-07
-3.18223e-11
2.29297e-07
-1.23125e-10
2.2944e-07
-1.72261e-10
2.29548e-07
-1.98561e-10
2.29629e-07
-2.14743e-10
2.29686e-07
-2.24564e-10
2.29725e-07
-2.29605e-10
2.29749e-07
-2.32878e-10
2.29763e-07
-2.34095e-10
2.29767e-07
-2.33563e-10
2.29765e-07
-2.31874e-10
2.29757e-07
-2.29428e-10
2.29747e-07
-2.26099e-10
2.29733e-07
-2.23054e-10
-2.19652e-10
2.29719e-07
2.74298e-07
-2.43992e-10
2.74455e-07
-2.80719e-10
2.74574e-07
-2.9052e-10
2.7466e-07
-2.84857e-10
2.74722e-07
-2.76616e-10
2.74764e-07
-2.66504e-10
2.74789e-07
-2.55023e-10
2.74803e-07
-2.46968e-10
2.74807e-07
-2.37638e-10
2.74801e-07
-2.28092e-10
2.7479e-07
-2.2011e-10
2.74774e-07
-2.13887e-10
2.74756e-07
-2.07854e-10
2.74735e-07
-2.0258e-10
-1.9707e-10
2.74713e-07
3.2308e-07
-4.1822e-10
3.23203e-07
-4.04231e-10
3.23291e-07
-3.78012e-10
3.23351e-07
-3.45045e-10
3.2339e-07
-3.15976e-10
3.23412e-07
-2.878e-10
3.23421e-07
-2.64336e-10
3.2342e-07
-2.46455e-10
3.23414e-07
-2.30818e-10
3.23402e-07
-2.16799e-10
3.23386e-07
-2.04149e-10
3.23365e-07
-1.92275e-10
3.23338e-07
-1.81296e-10
3.23307e-07
-1.71636e-10
-1.63411e-10
3.23274e-07
3.72298e-07
-5.47891e-10
3.7239e-07
-4.96631e-10
3.72453e-07
-4.41557e-10
3.72498e-07
-3.89894e-10
3.72526e-07
-3.43931e-10
3.72543e-07
-3.04308e-10
3.72549e-07
-2.7068e-10
3.72545e-07
-2.42072e-10
3.72531e-07
-2.17282e-10
3.7251e-07
-1.95645e-10
3.72483e-07
-1.76816e-10
3.72451e-07
-1.60589e-10
3.72416e-07
-1.46604e-10
3.72378e-07
-1.33712e-10
-1.2215e-10
3.72337e-07
3.69904e-07
-6.098e-10
3.69942e-07
-5.34919e-10
3.69966e-07
-4.6514e-10
3.69977e-07
-4.01062e-10
3.6998e-07
-3.46491e-10
3.69974e-07
-2.98582e-10
3.69961e-07
-2.57457e-10
3.69941e-07
-2.2234e-10
3.69915e-07
-1.91264e-10
3.69884e-07
-1.65025e-10
3.6985e-07
-1.42716e-10
3.69811e-07
-1.21605e-10
3.69768e-07
-1.03504e-10
3.69722e-07
-8.74097e-11
-7.10609e-11
3.69671e-07
3.16523e-07
-6.10388e-10
3.16514e-07
-5.26564e-10
3.165e-07
-4.51234e-10
3.16484e-07
-3.84527e-10
3.16464e-07
-3.27231e-10
3.16443e-07
-2.76962e-10
3.16419e-07
-2.33585e-10
3.16393e-07
-1.95988e-10
3.16365e-07
-1.63245e-10
3.16334e-07
-1.34563e-10
3.163e-07
-1.09071e-10
3.16265e-07
-8.59588e-11
3.16226e-07
-6.4842e-11
3.16184e-07
-4.53071e-11
-2.69652e-11
3.1614e-07
2.6511e-07
-5.69496e-10
2.6507e-07
-4.86241e-10
2.65031e-07
-4.12578e-10
2.64995e-07
-3.4794e-10
2.64959e-07
-2.91676e-10
2.64925e-07
-2.4245e-10
2.64891e-07
-1.99717e-10
2.64857e-07
-1.61764e-10
2.64822e-07
-1.2853e-10
2.64786e-07
-9.87402e-11
2.64749e-07
-7.17603e-11
2.6471e-07
-4.71245e-11
2.6467e-07
-2.43426e-11
2.64627e-07
-2.72438e-12
1.74345e-11
2.64583e-07
2.18289e-07
-4.97368e-10
2.18225e-07
-4.21979e-10
2.18167e-07
-3.5524e-10
2.18116e-07
-2.96419e-10
2.18069e-07
-2.451e-10
2.18026e-07
-1.99252e-10
2.17985e-07
-1.5906e-10
2.17946e-07
-1.23021e-10
2.17909e-07
-9.08064e-11
2.17872e-07
-6.15382e-11
2.17834e-07
-3.4578e-11
2.17797e-07
-9.71231e-12
2.17759e-07
1.35354e-11
2.17721e-07
3.54461e-11
5.62135e-11
2.17682e-07
1.77168e-07
-4.09806e-10
1.77092e-07
-3.45482e-10
1.77025e-07
-2.88525e-10
1.76967e-07
-2.38107e-10
1.76915e-07
-1.93449e-10
1.76869e-07
-1.53483e-10
1.76828e-07
-1.17629e-10
1.7679e-07
-8.5213e-11
1.76755e-07
-5.56619e-11
1.76722e-07
-2.84763e-11
1.7669e-07
-3.25381e-12
1.7666e-07
2.02976e-11
1.76631e-07
4.2469e-11
1.76603e-07
6.34864e-11
8.35099e-11
1.76576e-07
1.41999e-07
-3.20477e-10
1.41923e-07
-2.69275e-10
1.41858e-07
-2.23618e-10
1.41802e-07
-1.82886e-10
1.41755e-07
-1.46367e-10
1.41715e-07
-1.13273e-10
1.41681e-07
-8.30198e-11
1.41651e-07
-5.52842e-11
1.41625e-07
-2.9602e-11
1.41602e-07
-5.73668e-12
1.41582e-07
1.66176e-11
1.41565e-07
3.76853e-11
1.41549e-07
5.76525e-11
1.41536e-07
7.66631e-11
9.48242e-11
1.41525e-07
1.12549e-07
-2.42647e-10
1.12485e-07
-2.0431e-10
1.12431e-07
-1.69752e-10
1.12386e-07
-1.38664e-10
1.1235e-07
-1.10418e-10
1.12322e-07
-8.44074e-11
1.12299e-07
-5.99476e-11
1.12281e-07
-3.73812e-11
1.12267e-07
-1.60255e-11
1.12257e-07
3.92747e-12
1.12251e-07
2.28242e-11
1.12248e-07
4.07716e-11
1.12248e-07
5.78921e-11
1.1225e-07
7.42672e-11
8.99565e-11
1.12255e-07
8.83126e-08
-1.823e-10
8.82634e-08
-1.55152e-10
8.82239e-08
-1.30232e-10
8.8193e-08
-1.07788e-10
8.81696e-08
-8.69872e-11
8.81527e-08
-6.74945e-11
8.81414e-08
-4.86613e-11
8.81349e-08
-3.08649e-11
8.81327e-08
-1.37943e-11
8.81343e-08
2.27572e-12
8.81395e-08
1.76297e-11
8.81479e-08
3.2329e-11
8.81594e-08
4.64609e-11
8.81736e-08
6.00594e-11
7.31475e-11
8.81904e-08
6.86365e-08
-1.38788e-10
6.86019e-08
-1.20497e-10
6.8575e-08
-1.03403e-10
6.85551e-08
-8.78854e-11
6.85415e-08
-7.33688e-11
6.85333e-08
-5.93073e-11
6.85302e-08
-4.54873e-11
6.85312e-08
-3.19281e-11
6.85361e-08
-1.86378e-11
6.85444e-08
-6.09106e-12
6.85561e-08
6.01262e-12
6.85707e-08
1.76836e-11
6.85881e-08
2.90315e-11
6.86081e-08
4.00406e-11
5.07114e-11
6.86306e-08
5.28314e-08
-1.07959e-10
5.28072e-08
-9.62886e-11
5.2789e-08
-8.51601e-11
5.2776e-08
-7.4911e-11
5.27677e-08
-6.51097e-11
5.27639e-08
-5.5435e-11
5.2764e-08
-4.56107e-11
5.27678e-08
-3.57981e-11
5.2775e-08
-2.58309e-11
5.27851e-08
-1.61895e-11
5.2798e-08
-6.83494e-12
5.28135e-08
2.18668e-12
5.28314e-08
1.11232e-11
5.28516e-08
1.98758e-11
2.84422e-11
5.28738e-08
4.0242e-08
-8.52302e-11
4.0224e-08
-7.82286e-11
4.02102e-08
-7.13877e-11
4.02002e-08
-6.49464e-11
4.01938e-08
-5.86556e-11
4.01906e-08
-5.22834e-11
4.01906e-08
-4.55518e-11
4.01934e-08
-3.86596e-11
4.01991e-08
-3.1518e-11
4.02072e-08
-2.43068e-11
4.02176e-08
-1.72571e-11
4.02302e-08
-1.03458e-11
4.02448e-08
-3.45758e-12
4.02612e-08
3.38665e-12
1.01626e-11
4.02795e-08
3.02857e-08
-6.71171e-11
3.02707e-08
-6.32452e-11
3.02586e-08
-5.93479e-11
3.02493e-08
-5.55759e-11
3.02424e-08
-5.17952e-11
3.02379e-08
-4.78017e-11
3.02358e-08
-4.33986e-11
3.02358e-08
-3.86906e-11
3.0238e-08
-3.37064e-11
3.02422e-08
-2.85297e-11
3.02483e-08
-2.33727e-11
3.02562e-08
-1.81874e-11
3.02657e-08
-1.29846e-11
3.02768e-08
-7.73823e-12
-2.48599e-12
3.02895e-08
2.24641e-08
-5.16629e-11
2.24507e-08
-4.97918e-11
2.24392e-08
-4.78186e-11
2.24294e-08
-4.58206e-11
2.24213e-08
-4.3733e-11
2.24149e-08
-4.13842e-11
2.24102e-08
-3.86413e-11
2.2407e-08
-3.55708e-11
2.24055e-08
-3.22017e-11
2.24056e-08
-2.8612e-11
2.24072e-08
-2.4958e-11
2.24102e-08
-2.121e-11
2.24146e-08
-1.73935e-11
2.24204e-08
-1.3501e-11
-9.53039e-12
2.24274e-08
1.63611e-08
-3.81138e-11
1.63487e-08
-3.74436e-11
1.63376e-08
-3.66359e-11
1.63275e-08
-3.57285e-11
1.63184e-08
-3.47061e-11
1.63105e-08
-3.34388e-11
1.63037e-08
-3.18343e-11
1.62981e-08
-2.99344e-11
1.62936e-08
-2.77631e-11
1.62904e-08
-2.53863e-11
1.62883e-08
-2.29036e-11
1.62874e-08
-2.03135e-11
1.62877e-08
-1.76293e-11
1.6289e-08
-1.48579e-11
-1.19885e-11
1.62915e-08
1.16331e-08
-2.64019e-11
1.1622e-08
-2.63777e-11
1.16116e-08
-2.61915e-11
1.16017e-08
-2.58834e-11
1.15925e-08
-2.54726e-11
1.15839e-08
-2.48681e-11
1.15761e-08
-2.40064e-11
1.15691e-08
-2.29114e-11
1.15629e-08
-2.1599e-11
1.15576e-08
-2.01159e-11
1.15533e-08
-1.85278e-11
1.15498e-08
-1.68419e-11
1.15472e-08
-1.5067e-11
1.15456e-08
-1.32056e-11
-1.12528e-11
1.15448e-08
7.99923e-09
-1.67162e-11
7.98982e-09
-1.69655e-11
7.98067e-09
-1.70393e-11
7.97179e-09
-1.70055e-11
7.96322e-09
-1.68991e-11
7.95501e-09
-1.6662e-11
7.94725e-09
-1.6252e-11
7.94002e-09
-1.56808e-11
7.93338e-09
-1.49558e-11
7.92737e-09
-1.41062e-11
7.92202e-09
-1.31739e-11
7.91734e-09
-1.21662e-11
7.91336e-09
-1.10893e-11
7.9101e-09
-9.94247e-12
-8.72181e-12
7.90757e-09
5.23146e-09
-9.24029e-12
5.22403e-09
-9.53077e-12
5.21664e-09
-9.65376e-12
5.20934e-09
-9.70332e-12
5.20215e-09
-9.71246e-12
5.19514e-09
-9.64853e-12
5.18837e-09
-9.48613e-12
5.18192e-09
-9.22968e-12
5.17584e-09
-8.88042e-12
5.17019e-09
-8.4537e-12
5.16499e-09
-7.97376e-12
5.16027e-09
-7.44541e-12
5.15605e-09
-6.87289e-12
5.15237e-09
-6.25421e-12
-5.58371e-12
5.14923e-09
3.14554e-09
-4.0365e-12
3.14026e-09
-4.24583e-12
3.13492e-09
-4.32261e-12
3.12959e-09
-4.36434e-12
3.12426e-09
-4.39084e-12
3.119e-09
-4.38689e-12
3.11386e-09
-4.33984e-12
3.10888e-09
-4.25079e-12
3.10411e-09
-4.11831e-12
3.09961e-09
-3.94817e-12
3.09539e-09
-3.75198e-12
3.09147e-09
-3.53188e-12
3.08789e-09
-3.29046e-12
3.08466e-09
-3.0257e-12
-2.73083e-12
3.08181e-09
1.5935e-09
-1.02426e-12
1.59037e-09
-1.11573e-12
1.58718e-09
-1.13284e-12
1.58396e-09
-1.14379e-12
1.58072e-09
-1.1535e-12
1.57749e-09
-1.15693e-12
1.5743e-09
-1.14988e-12
1.57119e-09
-1.13239e-12
1.56817e-09
-1.1033e-12
1.56529e-09
-1.06347e-12
1.56255e-09
-1.01639e-12
1.55998e-09
-9.62481e-13
1.55759e-09
-9.02883e-13
1.5554e-09
-8.36541e-13
-7.57893e-13
1.55343e-09
4.57086e-10
4.5597e-10
4.54838e-10
4.53694e-10
4.5254e-10
4.51383e-10
4.50233e-10
4.49101e-10
4.47998e-10
4.46934e-10
4.45918e-10
4.44955e-10
4.44052e-10
4.43216e-10
4.42458e-10
1.25863e-09
-5.21744e-10
3.15748e-10
1.5531e-09
-4.60363e-10
1.65894e-10
1.84934e-09
-3.3456e-10
3.83167e-11
2.14034e-09
-2.11358e-10
-7.96398e-11
2.42374e-09
-9.79523e-11
-1.85451e-10
2.69994e-09
-3.91899e-12
-2.72277e-10
2.97004e-09
6.77171e-11
-3.37816e-10
3.23497e-09
1.14556e-10
-3.79488e-10
3.49555e-09
1.34488e-10
-3.95067e-10
3.75242e-09
1.25876e-10
-3.82752e-10
4.00609e-09
8.75638e-11
-3.41235e-10
4.25688e-09
1.93584e-11
-2.7015e-10
4.50505e-09
-7.72318e-11
-1.70936e-10
4.75082e-09
-1.97134e-10
-4.86302e-11
4.99465e-09
-3.29217e-10
8.53886e-11
5.2377e-09
-4.53098e-10
2.10043e-10
5.48237e-09
-5.33782e-10
2.89115e-10
5.7333e-09
-5.18142e-10
2.67209e-10
5.99797e-09
-3.34627e-10
6.99522e-11
6.28733e-09
1.09914e-10
-3.99272e-10
6.61453e-09
8.78622e-10
-1.20582e-09
6.98913e-09
2.00511e-09
-2.37971e-09
7.3485e-09
2.80261e-09
-3.16198e-09
7.65698e-09
2.96187e-09
-3.27034e-09
7.90729e-09
2.7059e-09
-2.95622e-09
8.09739e-09
2.18649e-09
-2.37659e-09
8.22856e-09
1.51163e-09
-1.64281e-09
8.3029e-09
7.58863e-10
-8.33197e-10
8.32213e-09
-1.40499e-11
-5.17993e-12
8.28709e-09
-7.60077e-10
7.95119e-10
8.19894e-09
-1.43737e-09
1.52552e-09
8.05928e-09
-2.00904e-09
2.1487e-09
7.87063e-09
-2.44522e-09
2.63386e-09
7.63641e-09
-2.72502e-09
2.95924e-09
7.36056e-09
-2.83741e-09
3.11325e-09
7.04712e-09
-2.78031e-09
3.09374e-09
6.69977e-09
-2.55823e-09
2.90559e-09
6.3217e-09
-2.17865e-09
2.55672e-09
5.91595e-09
-1.64731e-09
2.05307e-09
5.48546e-09
-9.64255e-10
1.39475e-09
5.031e-09
-1.27047e-10
5.81502e-10
4.54591e-09
8.4757e-10
-3.62481e-10
4.01473e-09
1.86244e-09
-1.33126e-09
3.44487e-09
2.68053e-09
-2.11067e-09
2.63743e-09
3.1112e-09
-2.30376e-09
2.6167e-09
-6.03257e-10
2.79064e-09
-6.34304e-10
3.02677e-09
-5.70689e-10
3.29013e-09
-4.74726e-10
3.56546e-09
-3.73278e-10
3.84462e-09
-2.83078e-10
4.12395e-09
-2.11618e-10
4.40187e-09
-1.63357e-10
4.67765e-09
-1.41298e-10
4.95104e-09
-1.47511e-10
5.22192e-09
-1.83317e-10
5.49025e-09
-2.48967e-10
5.75591e-09
-3.42897e-10
6.01895e-09
-4.60174e-10
6.27965e-09
-5.89916e-10
6.53907e-09
-7.12518e-10
6.79961e-09
-7.94323e-10
7.06613e-09
-7.8466e-10
7.34661e-09
-6.1511e-10
7.6529e-09
-1.96372e-10
7.99962e-09
5.31898e-10
8.39825e-09
1.60648e-09
8.78353e-09
2.41733e-09
9.11747e-09
2.62792e-09
9.39169e-09
2.43168e-09
9.60298e-09
1.97521e-09
9.7518e-09
1.36281e-09
9.8398e-09
6.70858e-10
9.86826e-09
-4.25094e-11
9.8382e-09
-7.30013e-10
9.75088e-09
-1.35006e-09
9.6084e-09
-1.86656e-09
9.41399e-09
-2.2508e-09
9.17205e-09
-2.48308e-09
8.88788e-09
-2.55323e-09
8.56729e-09
-2.45972e-09
8.21644e-09
-2.20738e-09
7.84209e-09
-1.8043e-09
7.45287e-09
-1.2581e-09
7.06149e-09
-5.7287e-10
6.68679e-09
2.47656e-10
6.35476e-09
1.1796e-09
6.09955e-09
2.11765e-09
5.97319e-09
2.80689e-09
2.71202e-09
5.89861e-09
4.54816e-09
-6.18699e-10
4.62475e-09
-7.10889e-10
4.77395e-09
-7.1989e-10
4.97842e-09
-6.79197e-10
5.21673e-09
-6.11586e-10
5.47511e-09
-5.4146e-10
5.74481e-09
-4.81318e-10
6.02065e-09
-4.39195e-10
6.29944e-09
-4.20093e-10
6.57925e-09
-4.27317e-10
6.8588e-09
-4.62871e-10
7.13723e-09
-5.2739e-10
7.41382e-09
-6.1949e-10
7.68814e-09
-7.34491e-10
7.96011e-09
-8.6189e-10
8.23056e-09
-9.82965e-10
8.50176e-09
-1.06553e-09
8.77868e-09
-1.06158e-09
9.06975e-09
-9.06171e-10
9.38762e-09
-5.14248e-10
9.74851e-09
1.71007e-10
1.0166e-08
1.18896e-09
1.05733e-08
2.01001e-09
1.09304e-08
2.27087e-09
1.12275e-08
2.1346e-09
1.14599e-08
1.74281e-09
1.1627e-08
1.19574e-09
1.17296e-08
5.68201e-10
1.17687e-08
-8.16164e-11
1.17453e-08
-7.06551e-10
1.16607e-08
-1.26553e-09
1.15178e-08
-1.72362e-09
1.13206e-08
-2.05359e-09
1.10747e-08
-2.23722e-09
1.07872e-08
-2.2657e-09
1.0466e-08
-2.13856e-09
1.01204e-08
-1.86176e-09
9.76133e-09
-1.44523e-09
9.40364e-09
-9.00411e-10
9.06972e-09
-2.38951e-10
8.793e-09
5.24376e-10
8.61955e-09
1.35305e-09
8.59236e-09
2.14484e-09
8.70996e-09
2.68929e-09
2.63037e-09
8.79161e-09
7.17965e-09
-5.97305e-10
7.19093e-09
-7.22167e-10
7.25652e-09
-7.85485e-10
7.38194e-09
-8.04615e-10
7.55812e-09
-7.8777e-10
7.76989e-09
-7.5323e-10
8.0062e-09
-7.17624e-10
8.25912e-09
-6.92113e-10
8.52285e-09
-6.8383e-10
8.79339e-09
-6.97849e-10
9.06784e-09
-7.37324e-10
9.34409e-09
-8.03642e-10
9.62051e-09
-8.95909e-10
9.8959e-09
-1.00988e-09
1.01696e-08
-1.1356e-09
1.0442e-08
-1.25537e-09
1.07151e-08
-1.33865e-09
1.09939e-08
-1.34032e-09
1.1287e-08
-1.1993e-09
1.16079e-08
-8.35161e-10
1.19744e-08
-1.95485e-10
1.24025e-08
7.60914e-10
1.28252e-08
1.58732e-09
1.32007e-08
1.89535e-09
1.35178e-08
1.81748e-09
1.37699e-08
1.49074e-09
1.39548e-08
1.01082e-09
1.40724e-08
4.50545e-10
1.41232e-08
-1.32342e-10
1.41078e-08
-6.91161e-10
1.40281e-08
-1.18582e-09
1.38874e-08
-1.58295e-09
1.3691e-08
-1.85716e-09
1.34459e-08
-1.99216e-09
1.31611e-08
-1.98089e-09
1.28471e-08
-1.82457e-09
1.25164e-08
-1.53108e-09
1.21843e-08
-1.11314e-09
1.18709e-08
-5.87e-10
1.16053e-08
2.67307e-11
1.1426e-08
7.03594e-10
1.13816e-08
1.3975e-09
1.15036e-08
2.02285e-09
1.17597e-08
2.43321e-09
2.44108e-09
1.1949e-08
1.068e-08
-5.60788e-10
1.06504e-08
-6.92562e-10
1.06543e-08
-7.89342e-10
1.07024e-08
-8.52734e-10
1.08009e-08
-8.86264e-10
1.09454e-08
-8.97783e-10
1.11247e-08
-8.96911e-10
1.13311e-08
-8.98451e-10
1.15572e-08
-9.10011e-10
1.17977e-08
-9.3826e-10
1.20478e-08
-9.87499e-10
1.23043e-08
-1.06007e-09
1.25641e-08
-1.15579e-09
1.28253e-08
-1.27104e-09
1.30863e-08
-1.39659e-09
1.33469e-08
-1.51594e-09
1.36086e-08
-1.60039e-09
1.38762e-08
-1.60789e-09
1.41586e-08
-1.4817e-09
1.44697e-08
-1.14633e-09
1.4829e-08
-5.54795e-10
1.5255e-08
3.34939e-10
1.56826e-08
1.15971e-09
1.60688e-08
1.5092e-09
1.64004e-08
1.48581e-09
1.66686e-08
1.22258e-09
1.68693e-08
8.10142e-10
1.70011e-08
3.18757e-10
1.70635e-08
-1.94801e-10
1.70572e-08
-6.84871e-10
1.69843e-08
-1.1129e-09
1.68489e-08
-1.44752e-09
1.66574e-08
-1.66564e-09
1.64185e-08
-1.75331e-09
1.61433e-08
-1.70568e-09
1.58449e-08
-1.52616e-09
1.55389e-08
-1.22506e-09
1.5244e-08
-8.18341e-10
1.49841e-08
-3.2703e-10
1.47881e-08
2.2266e-10
1.46939e-08
7.97853e-10
1.47379e-08
1.35347e-09
1.49355e-08
1.82533e-09
1.52424e-08
2.12625e-09
2.17092e-09
1.55126e-08
1.52464e-08
-5.21677e-10
1.51977e-08
-6.43852e-10
1.5162e-08
-7.53577e-10
1.51529e-08
-8.43712e-10
1.51801e-08
-9.1338e-10
1.52472e-08
-9.64965e-10
1.5354e-08
-1.00366e-09
1.54935e-08
-1.038e-09
1.56597e-08
-1.07621e-09
1.5847e-08
-1.12557e-09
1.60502e-08
-1.19066e-09
1.62647e-08
-1.27461e-09
1.64868e-08
-1.37787e-09
1.67133e-08
-1.49755e-09
1.69419e-08
-1.62518e-09
1.71716e-08
-1.74565e-09
1.74035e-08
-1.83224e-09
1.76418e-08
-1.84615e-09
1.78956e-08
-1.73552e-09
1.81792e-08
-1.42994e-09
1.85135e-08
-8.89072e-10
1.89196e-08
-7.11828e-11
1.93369e-08
7.42382e-10
1.97218e-08
1.12435e-09
2.0059e-08
1.14852e-09
2.03368e-08
9.44876e-10
2.05487e-08
5.98241e-10
2.06917e-08
1.75672e-10
2.07646e-08
-2.67619e-10
2.07674e-08
-6.87672e-10
2.07025e-08
-1.04809e-09
2.05751e-08
-1.32004e-09
2.03926e-08
-1.48318e-09
2.01656e-08
-1.52631e-09
1.99071e-08
-1.44715e-09
1.96325e-08
-1.25156e-09
1.93598e-08
-9.52391e-10
1.91099e-08
-5.68459e-10
1.89069e-08
-1.24039e-10
1.87774e-08
3.52206e-10
1.87496e-08
8.25609e-10
1.88457e-08
1.25737e-09
1.9067e-08
1.60402e-09
1.9373e-08
1.82033e-09
1.87401e-09
1.96699e-08
2.11127e-08
-4.85258e-10
2.10609e-08
-5.92023e-10
2.10063e-08
-6.98974e-10
2.09614e-08
-7.98899e-10
2.09366e-08
-8.88573e-10
2.09384e-08
-9.66703e-10
2.09714e-08
-1.03665e-09
2.1035e-08
-1.10163e-09
2.11266e-08
-1.16778e-09
2.12421e-08
-1.24106e-09
2.1377e-08
-1.32559e-09
2.15271e-08
-1.42466e-09
2.16881e-08
-1.53888e-09
2.18564e-08
-1.66588e-09
2.20291e-08
-1.79787e-09
2.22046e-08
-1.92114e-09
2.23834e-08
-2.01103e-09
2.25693e-08
-2.03212e-09
2.27717e-08
-1.93789e-09
2.30048e-08
-1.66301e-09
2.32908e-08
-1.1751e-09
2.36537e-08
-4.34067e-10
2.40402e-08
3.5581e-10
2.44071e-08
7.57537e-10
2.47367e-08
8.18898e-10
2.50135e-08
6.68024e-10
2.52288e-08
3.83006e-10
2.53775e-08
2.69587e-11
2.5457e-08
-3.47118e-10
2.54671e-08
-6.97755e-10
2.54104e-08
-9.91403e-10
2.52927e-08
-1.20231e-09
2.51228e-08
-1.31334e-09
2.49128e-08
-1.31632e-09
2.46774e-08
-1.21175e-09
2.44338e-08
-1.00789e-09
2.42011e-08
-7.19691e-10
2.40002e-08
-3.6762e-10
2.38537e-08
2.25195e-11
2.37817e-08
4.24121e-10
2.38025e-08
8.0485e-10
2.39246e-08
1.13529e-09
2.41403e-08
1.38825e-09
2.44175e-08
1.54313e-09
1.59166e-09
2.46999e-08
2.85549e-08
-4.51391e-10
2.85057e-08
-5.42908e-10
2.84468e-08
-6.40039e-10
2.83858e-08
-7.37894e-10
2.83303e-08
-8.33111e-10
2.82876e-08
-9.24011e-10
2.82625e-08
-1.01154e-09
2.82582e-08
-1.09731e-09
2.82752e-08
-1.18475e-09
2.83123e-08
-1.27814e-09
2.83671e-08
-1.38046e-09
2.84367e-08
-1.49421e-09
2.85175e-08
-1.61969e-09
2.86063e-08
-1.75466e-09
2.87001e-08
-1.89167e-09
2.87972e-08
-2.0183e-09
2.88981e-08
-2.11186e-09
2.90062e-08
-2.14024e-09
2.91311e-08
-2.06283e-09
2.9287e-08
-1.81893e-09
2.94974e-08
-1.38548e-09
2.97889e-08
-7.25521e-10
3.01193e-08
2.54e-11
3.04465e-08
4.30354e-10
3.07505e-08
5.14855e-10
3.10117e-08
4.06878e-10
3.12182e-08
1.76422e-10
3.13633e-08
-1.1809e-10
3.14427e-08
-4.26506e-10
3.14556e-08
-7.10708e-10
3.1405e-08
-9.40719e-10
3.1297e-08
-1.09441e-09
3.11419e-08
-1.15817e-09
3.09526e-08
-1.12706e-09
3.07451e-08
-1.00423e-09
3.05372e-08
-7.99966e-10
3.0348e-08
-5.30463e-10
3.01968e-08
-2.16442e-10
3.0101e-08
1.18258e-10
3.00761e-08
4.49025e-10
3.013e-08
7.51032e-10
3.02621e-08
1.00317e-09
3.04606e-08
1.18975e-09
3.07009e-08
1.30281e-09
1.34354e-09
3.0949e-08
3.78904e-08
-4.17536e-10
3.78435e-08
-4.96012e-10
3.77852e-08
-5.81782e-10
3.77193e-08
-6.71977e-10
3.76503e-08
-7.64114e-10
3.7583e-08
-8.56754e-10
3.75214e-08
-9.49878e-10
3.74685e-08
-1.04442e-09
3.74262e-08
-1.14244e-09
3.73947e-08
-1.24664e-09
3.73734e-08
-1.35916e-09
3.73608e-08
-1.48158e-09
3.73547e-08
-1.61358e-09
3.73528e-08
-1.75279e-09
3.73529e-08
-1.89178e-09
3.73539e-08
-2.0193e-09
3.73565e-08
-2.11444e-09
3.73644e-08
-2.14817e-09
3.73879e-08
-2.08629e-09
3.74409e-08
-1.87194e-09
3.7548e-08
-1.49256e-09
3.77383e-08
-9.15877e-10
3.79847e-08
-2.20988e-10
3.82474e-08
1.67646e-10
3.85041e-08
2.58159e-10
3.87305e-08
1.80513e-10
3.89123e-08
-5.36315e-12
3.90404e-08
-2.46255e-10
3.91093e-08
-4.95395e-10
3.91175e-08
-7.1892e-10
3.90679e-08
-8.91111e-10
3.89674e-08
-9.93882e-10
3.88266e-08
-1.01737e-09
3.86593e-08
-9.5976e-10
3.84816e-08
-8.26521e-10
3.83109e-08
-6.2924e-10
3.81646e-08
-3.842e-10
3.80589e-08
-1.10778e-10
3.80069e-08
1.70287e-10
3.80171e-08
4.38802e-10
3.80914e-08
6.76764e-10
3.82243e-08
8.70292e-10
3.8403e-08
1.011e-09
3.8609e-08
1.09682e-09
1.13173e-09
3.88208e-08
4.9467e-08
-3.82078e-10
4.94206e-08
-4.49627e-10
4.93634e-08
-5.24538e-10
4.92967e-08
-6.05296e-10
4.92229e-08
-6.90294e-10
4.91445e-08
-7.78399e-10
4.9064e-08
-8.69305e-10
4.8983e-08
-9.63487e-10
4.89028e-08
-1.06221e-09
4.88234e-08
-1.16721e-09
4.87442e-08
-1.28002e-09
4.86643e-08
-1.40163e-09
4.85819e-08
-1.5312e-09
4.84955e-08
-1.66641e-09
4.84036e-08
-1.79984e-09
4.83058e-08
-1.9215e-09
4.82035e-08
-2.01215e-09
4.8101e-08
-2.04569e-09
4.80094e-08
-1.99474e-09
4.79429e-08
-1.80544e-09
4.79266e-08
-1.4762e-09
4.79917e-08
-9.8101e-10
4.81296e-08
-3.58876e-10
4.83042e-08
-6.98214e-12
4.84911e-08
7.13162e-11
4.86613e-08
1.03278e-11
4.87993e-08
-1.43377e-10
4.88944e-08
-3.41399e-10
4.89393e-08
-5.40312e-10
4.89322e-08
-7.11755e-10
4.88758e-08
-8.34721e-10
4.87773e-08
-8.95399e-10
4.86475e-08
-8.87621e-10
4.85002e-08
-8.12401e-10
4.83506e-08
-6.76903e-10
4.82144e-08
-4.93111e-10
4.81065e-08
-2.76294e-10
4.80391e-08
-4.33711e-11
4.80206e-08
1.88786e-10
4.80547e-08
4.04739e-10
4.81393e-08
5.92132e-10
4.82672e-08
7.42391e-10
4.84268e-08
8.51414e-10
4.86041e-08
9.19586e-10
9.51035e-10
4.87847e-08
6.36497e-08
-3.46232e-10
6.36045e-08
-4.0439e-10
6.35492e-08
-4.69307e-10
6.34842e-08
-5.40294e-10
6.34104e-08
-6.16417e-10
6.33288e-08
-6.96853e-10
6.32407e-08
-7.81198e-10
6.31468e-08
-8.69552e-10
6.30471e-08
-9.62541e-10
6.29411e-08
-1.06116e-09
6.28273e-08
-1.16628e-09
6.27041e-08
-1.27842e-09
6.25693e-08
-1.39638e-09
6.24209e-08
-1.51806e-09
6.22573e-08
-1.63618e-09
6.20781e-08
-1.74232e-09
6.1885e-08
-1.81911e-09
6.16827e-08
-1.84337e-09
6.14828e-08
-1.7948e-09
6.12996e-08
-1.62226e-09
6.11581e-08
-1.33469e-09
6.10899e-08
-9.12837e-10
6.11079e-08
-3.76869e-10
6.11805e-08
-7.95297e-11
6.128e-08
-2.82551e-11
6.13745e-08
-8.41448e-11
6.14512e-08
-2.20117e-10
6.14975e-08
-3.87617e-10
6.15043e-08
-5.47139e-10
6.14699e-08
-6.77335e-10
6.13971e-08
-7.62002e-10
6.12932e-08
-7.91497e-10
6.11686e-08
-7.63022e-10
6.10361e-08
-6.79844e-10
6.09092e-08
-5.50052e-10
6.08013e-08
-3.85147e-10
6.07235e-08
-1.98564e-10
6.06843e-08
-4.16545e-12
6.06882e-08
1.84934e-10
6.07355e-08
3.5747e-10
6.08222e-08
5.05402e-10
6.0941e-08
6.23607e-10
6.10821e-08
7.10261e-10
6.12352e-08
7.66561e-10
7.95956e-10
6.13902e-08
8.08235e-08
-3.13956e-10
8.0783e-08
-3.63861e-10
8.07333e-08
-4.19637e-10
8.06741e-08
-4.81046e-10
8.06053e-08
-5.47608e-10
8.05272e-08
-6.18776e-10
8.04401e-08
-6.94145e-10
8.03441e-08
-7.73549e-10
8.02387e-08
-8.57106e-10
8.01227e-08
-9.4514e-10
7.99942e-08
-1.0378e-09
7.98509e-08
-1.13511e-09
7.96898e-08
-1.23531e-09
7.95083e-08
-1.33654e-09
7.93037e-08
-1.43158e-09
7.90752e-08
-1.51378e-09
7.88236e-08
-1.56756e-09
7.85533e-08
-1.57309e-09
7.8275e-08
-1.51651e-09
7.80033e-08
-1.3505e-09
7.77616e-08
-1.09305e-09
7.75779e-08
-7.2908e-10
7.74862e-08
-2.85174e-10
7.74617e-08
-5.50233e-11
7.74658e-08
-3.24196e-11
7.74787e-08
-9.69752e-11
7.74875e-08
-2.2895e-10
7.74751e-08
-3.75217e-10
7.74339e-08
-5.05893e-10
7.7363e-08
-6.0648e-10
7.72659e-08
-6.64925e-10
7.71496e-08
-6.75153e-10
7.70236e-08
-6.37083e-10
7.68993e-08
-5.5547e-10
7.67878e-08
-4.38537e-10
7.66992e-08
-2.96624e-10
7.66416e-08
-1.40974e-10
7.66195e-08
1.79343e-11
7.66348e-08
1.69672e-10
7.66858e-08
3.06454e-10
7.67678e-08
4.23381e-10
7.68742e-08
5.17293e-10
7.6997e-08
5.87443e-10
7.71284e-08
6.35089e-10
6.62848e-10
7.72616e-08
1.01431e-07
-2.89567e-10
1.014e-07
-3.32157e-10
1.0136e-07
-3.79624e-10
1.01311e-07
-4.31937e-10
1.01252e-07
-4.88876e-10
1.01183e-07
-5.50083e-10
1.01104e-07
-6.15197e-10
1.01014e-07
-6.8388e-10
1.00913e-07
-7.55895e-10
1.00799e-07
-8.31026e-10
1.0067e-07
-9.08795e-10
1.00524e-07
-9.88681e-10
1.00357e-07
-1.06834e-09
1.00166e-07
-1.14603e-09
9.99491e-08
-1.21442e-09
9.97039e-08
-1.26858e-09
9.94306e-08
-1.29426e-09
9.91331e-08
-1.27567e-09
9.88202e-08
-1.20352e-09
9.85057e-08
-1.03604e-09
9.82109e-08
-7.98211e-10
9.79576e-08
-4.75831e-10
9.77902e-08
-1.17747e-10
9.76919e-08
4.32919e-11
9.76244e-08
3.50405e-11
9.75729e-08
-4.54436e-11
9.75169e-08
-1.72922e-10
9.74456e-08
-3.04013e-10
9.73559e-08
-4.16116e-10
9.72474e-08
-4.98015e-10
9.71241e-08