/*--------------------------------*- C++ -*----------------------------------*\
| =========                 |                                                 |
| \\      /  F ield         | OpenFOAM: The Open Source CFD Toolbox           |
|  \\    /   O peration     | Version:  2312                                  |
|   \\  /    A nd           | Website:  www.openfoam.com                      |
|    \\/     M anipulation  |                                                 |
\*---------------------------------------------------------------------------*/
FoamFile
{
    version     2.0;
    format      ascii;
    arch        "LSB;label=32;scalar=64";
    class       surfaceScalarField;
    location    "95";
    object      phi;
}
// * * * * * * * * * * * * * * * * * * * * * * * * * * * * * * * * * * * * * //

dimensions      [0 3 -1 0 0 0 0];

oriented        oriented;

internalField   nonuniform List<scalar> 
9445
(
5.81785e-10
8.63364e-12
5.77919e-10
3.86612e-12
5.76877e-10
1.0422e-12
5.77685e-10
-8.08426e-13
5.79554e-10
-1.86865e-12
5.823e-10
-2.74627e-12
5.85861e-10
-3.56043e-12
5.90274e-10
-4.41284e-12
5.95692e-10
-5.41859e-12
6.0254e-10
-6.84743e-12
6.11968e-10
-9.428e-12
6.27604e-10
-1.56365e-11
6.62258e-10
-3.46543e-11
7.60968e-10
-9.87096e-11
-2.53989e-10
1.01496e-09
2.03767e-09
3.7729e-11
2.02418e-09
1.73508e-11
2.02005e-09
5.17245e-12
2.02181e-09
-2.56884e-12
2.0271e-09
-7.15785e-12
2.03532e-09
-1.09646e-11
2.04611e-09
-1.43496e-11
2.05953e-09
-1.78262e-11
2.07604e-09
-2.19374e-11
2.09691e-09
-2.7714e-11
2.12506e-09
-3.75802e-11
2.16752e-09
-5.80917e-11
2.23776e-09
-1.04893e-10
2.3485e-09
-2.09454e-10
-3.69355e-10
2.46387e-09
4.03107e-09
9.31071e-11
4.00472e-09
4.37032e-11
3.99581e-09
1.40825e-11
3.99769e-09
-4.44874e-12
4.00615e-09
-1.56183e-11
4.02007e-09
-2.48849e-11
4.0386e-09
-3.28761e-11
4.0616e-09
-4.08244e-11
4.08971e-09
-5.00558e-11
4.12455e-09
-6.25457e-11
4.1691e-09
-8.21387e-11
4.22815e-09
-1.17135e-10
4.30441e-09
-1.81153e-10
4.38392e-09
-2.88964e-10
-4.1577e-10
4.43033e-09
6.70948e-09
1.81063e-10
6.66651e-09
8.66772e-11
6.65054e-09
3.00526e-11
6.65119e-09
-5.1038e-12
6.66206e-09
-2.64843e-11
6.68125e-09
-4.40723e-11
6.70726e-09
-5.88873e-11
6.73942e-09
-7.29868e-11
6.77817e-09
-8.88022e-11
6.82463e-09
-1.09005e-10
6.88019e-09
-1.37698e-10
6.94473e-09
-1.8168e-10
7.01186e-09
-2.48281e-10
7.06159e-09
-3.38694e-10
-4.26481e-10
7.0723e-09
1.025e-08
3.07296e-10
1.01867e-08
1.49977e-10
1.01611e-08
5.56804e-11
1.01587e-08
-2.7233e-12
1.01708e-08
-3.86279e-11
1.01942e-08
-6.73902e-11
1.02265e-08
-9.12074e-11
1.02663e-08
-1.12769e-10
1.03132e-08
-1.35764e-10
1.03673e-08
-1.63067e-10
1.04275e-08
-1.97879e-10
1.04896e-08
-2.43799e-10
1.05435e-08
-3.02193e-10
1.05727e-08
-3.67857e-10
-4.21669e-10
1.05679e-08
1.48598e-08
4.74596e-10
1.47739e-08
2.35897e-10
1.47365e-08
9.31122e-11
1.47293e-08
4.41132e-12
1.47416e-08
-5.09566e-11
1.47676e-08
-9.32922e-11
1.48042e-08
-1.27826e-10
1.48491e-08
-1.57674e-10
1.49008e-08
-1.87493e-10
1.49577e-08
-2.1997e-10
1.50167e-08
-2.56884e-10
1.50718e-08
-2.98852e-10
1.51134e-08
-3.43816e-10
1.51313e-08
-3.85757e-10
-4.13937e-10
1.51236e-08
2.07728e-08
6.78725e-10
2.0666e-08
3.4277e-10
2.06171e-08
1.41961e-10
2.06047e-08
1.68263e-11
2.06164e-08
-6.26686e-11
2.06438e-08
-1.20708e-10
2.06827e-08
-1.66649e-10
2.07299e-08
-2.0489e-10
2.07827e-08
-2.40311e-10
2.0838e-08
-2.75303e-10
2.08916e-08
-3.10488e-10
2.09376e-08
-3.44866e-10
2.09695e-08
-3.75639e-10
2.09823e-08
-3.98616e-10
-4.0908e-10
2.09775e-08
2.82423e-08
9.02543e-10
2.8124e-08
4.61062e-10
2.80693e-08
1.96586e-10
2.80548e-08
3.13693e-11
2.80669e-08
-7.47825e-11
2.8096e-08
-1.49752e-10
2.81362e-08
-2.0686e-10
2.81837e-08
-2.52469e-10
2.82349e-08
-2.91496e-10
2.82858e-08
-3.26179e-10
2.83321e-08
-3.56746e-10
2.83693e-08
-3.82086e-10
2.8394e-08
-4.00317e-10
2.84049e-08
-4.09562e-10
-4.08569e-10
2.84044e-08
3.75308e-08
1.11049e-09
3.74228e-08
5.69093e-10
3.73764e-08
2.42971e-10
3.73689e-08
3.88514e-11
3.7387e-08
-9.29101e-11
3.7421e-08
-1.83695e-10
3.74643e-08
-2.50188e-10
3.75126e-08
-3.00788e-10
3.75618e-08
-3.40698e-10
3.7608e-08
-3.72396e-10
3.76478e-08
-3.96524e-10
3.76786e-08
-4.12835e-10
3.76991e-08
-4.20878e-10
3.77102e-08
-4.20595e-10
-4.12475e-10
3.77141e-08
4.891e-08
1.2497e-09
4.8847e-08
6.32107e-10
4.88326e-08
2.57318e-10
4.8849e-08
2.25337e-11
4.88849e-08
-1.28804e-10
4.89319e-08
-2.30702e-10
4.8984e-08
-3.02369e-10
4.90372e-08
-3.5394e-10
4.90877e-08
-3.91219e-10
4.91327e-08
-4.17332e-10
4.917e-08
-4.33831e-10
4.91988e-08
-4.41624e-10
4.92194e-08
-4.4149e-10
4.92332e-08
-4.34475e-10
-4.21814e-10
4.92426e-08
6.26899e-08
1.267e-09
6.27107e-08
6.11297e-10
6.2757e-08
2.1103e-10
6.28185e-08
-3.89591e-11
6.28883e-08
-1.98644e-10
6.29607e-08
-3.03054e-10
6.30313e-08
-3.72988e-10
6.30972e-08
-4.19828e-10
6.31561e-08
-4.50147e-10
6.32067e-08
-4.67903e-10
6.32484e-08
-4.75599e-10
6.32819e-08
-4.75082e-10
6.33083e-08
-4.67892e-10
6.33294e-08
-4.55571e-10
-4.39549e-10
6.33471e-08
7.92951e-08
1.14199e-09
7.94204e-08
4.86024e-10
7.95454e-08
8.60451e-11
7.96675e-08
-1.61083e-10
7.9784e-08
-3.15108e-10
7.98923e-08
-4.11438e-10
7.99907e-08
-4.71313e-10
8.00778e-08
-5.0698e-10
8.01534e-08
-5.25751e-10
8.02178e-08
-5.32305e-10
8.0272e-08
-5.29807e-10
8.03176e-08
-5.20616e-10
8.03562e-08
-5.0657e-10
8.03899e-08
-4.89275e-10
-4.70057e-10
8.04205e-08
9.93503e-08
9.09759e-10
9.95608e-08
2.75588e-10
9.97541e-08
-1.07261e-10
9.99309e-08
-3.37939e-10
1.00091e-07
-4.75344e-10
1.00235e-07
-5.54989e-10
1.00362e-07
-5.98161e-10
1.00472e-07
-6.17715e-10
1.00568e-07
-6.21593e-10
1.00651e-07
-6.14947e-10
1.00722e-07
-6.01245e-10
1.00785e-07
-5.82964e-10
1.0084e-07
-5.61909e-10
1.0089e-07
-5.39505e-10
-5.16822e-10
1.00937e-07
1.23657e-07
6.38418e-10
1.23901e-07
3.17038e-11
1.24124e-07
-3.3e-10
1.24325e-07
-5.39013e-10
1.24505e-07
-6.56082e-10
1.24667e-07
-7.16049e-10
1.24809e-07
-7.40463e-10
1.24934e-07
-7.42748e-10
1.25044e-07
-7.31334e-10
1.2514e-07
-7.11632e-10
1.25226e-07
-6.8716e-10
1.25304e-07
-6.60298e-10
1.25374e-07
-6.32661e-10
1.2544e-07
-6.05398e-10
-5.79284e-10
1.25503e-07
1.52989e-07
3.80173e-10
1.53222e-07
-2.01676e-10
1.53432e-07
-5.39509e-10
1.53621e-07
-7.28576e-10
1.53792e-07
-8.26999e-10
1.53946e-07
-8.69431e-10
1.54083e-07
-8.77606e-10
1.54205e-07
-8.65336e-10
1.54315e-07
-8.41346e-10
1.54415e-07
-8.11137e-10
1.54506e-07
-7.78153e-10
1.5459e-07
-7.44602e-10
1.54669e-07
-7.11876e-10
1.54745e-07
-6.80867e-10
-6.52086e-10
1.54818e-07
1.87841e-07
1.44667e-10
1.88044e-07
-4.05017e-10
1.88222e-07
-7.17224e-10
1.88381e-07
-8.87546e-10
1.88524e-07
-9.70071e-10
1.88653e-07
-9.98747e-10
1.88771e-07
-9.95033e-10
1.88878e-07
-9.72667e-10
1.88977e-07
-9.40298e-10
1.89069e-07
-9.03323e-10
1.89156e-07
-8.65041e-10
1.89239e-07
-8.27481e-10
1.89319e-07
-7.9183e-10
1.89397e-07
-7.58769e-10
-7.28597e-10
1.89473e-07
2.2827e-07
-8.06861e-11
2.28446e-07
-5.80826e-10
2.28593e-07
-8.63985e-10
2.2872e-07
-1.01464e-09
2.28833e-07
-1.08298e-09
2.28935e-07
-1.10114e-09
2.2903e-07
-1.08958e-09
2.29119e-07
-1.06135e-09
2.29203e-07
-1.02465e-09
2.29284e-07
-9.84506e-10
2.29363e-07
-9.44009e-10
2.29441e-07
-9.04998e-10
2.29517e-07
-8.68495e-10
2.29593e-07
-8.35026e-10
-8.04746e-10
2.2967e-07
2.73769e-07
-2.98689e-10
2.73926e-07
-7.37429e-10
2.74048e-07
-9.8622e-10
2.74149e-07
-1.11607e-09
2.74238e-07
-1.17163e-09
2.74319e-07
-1.1821e-09
2.74395e-07
-1.16585e-09
2.74469e-07
-1.13514e-09
2.74542e-07
-1.0973e-09
2.74614e-07
-1.05687e-09
2.74687e-07
-1.01663e-09
2.7476e-07
-9.78185e-10
2.74834e-07
-9.42396e-10
2.74908e-07
-9.09681e-10
-8.80095e-10
2.74984e-07
3.22954e-07
-5.12621e-10
3.23097e-07
-8.81116e-10
3.23201e-07
-1.09018e-09
3.23282e-07
-1.19671e-09
3.23349e-07
-1.23915e-09
3.2341e-07
-1.2427e-09
3.23468e-07
-1.22402e-09
3.23526e-07
-1.19276e-09
3.23584e-07
-1.15564e-09
3.23644e-07
-1.11667e-09
3.23705e-07
-1.07818e-09
3.23769e-07
-1.04152e-09
3.23834e-07
-1.00738e-09
3.239e-07
-9.76011e-10
-9.47393e-10
3.23967e-07
3.72906e-07
-6.85652e-10
3.72996e-07
-9.70931e-10
3.73039e-07
-1.13302e-09
3.73057e-07
-1.21477e-09
3.73064e-07
-1.24657e-09
3.73069e-07
-1.2473e-09
3.73075e-07
-1.23057e-09
3.73086e-07
-1.20381e-09
3.73103e-07
-1.17181e-09
3.73124e-07
-1.13809e-09
3.7315e-07
-1.10461e-09
3.73181e-07
-1.07246e-09
3.73216e-07
-1.04216e-09
3.73254e-07
-1.01393e-09
-9.87832e-10
3.73295e-07
3.70921e-07
-8.15955e-10
3.70977e-07
-1.02694e-09
3.70992e-07
-1.14794e-09
3.70986e-07
-1.20911e-09
3.70972e-07
-1.23211e-09
3.70956e-07
-1.2314e-09
3.70942e-07
-1.21643e-09
3.70931e-07
-1.19352e-09
3.70926e-07
-1.16643e-09
3.70926e-07
-1.13772e-09
3.7093e-07
-1.10883e-09
3.70938e-07
-1.0806e-09
3.70949e-07
-1.05343e-09
3.70963e-07
-1.02748e-09
-1.00276e-09
3.70978e-07
3.17919e-07
-8.52654e-10
3.17907e-07
-1.01471e-09
3.17868e-07
-1.1095e-09
3.17818e-07
-1.15876e-09
3.17764e-07
-1.17846e-09
3.17712e-07
-1.17927e-09
3.17664e-07
-1.1684e-09
3.17621e-07
-1.15063e-09
3.17584e-07
-1.12898e-09
3.17551e-07
-1.10537e-09
3.17523e-07
-1.08093e-09
3.17499e-07
-1.05631e-09
3.17477e-07
-1.03184e-09
3.17458e-07
-1.00767e-09
-9.83841e-10
3.17439e-07
2.6674e-07
-8.52258e-10
2.66699e-07
-9.73883e-10
2.66637e-07
-1.0467e-09
2.66564e-07
-1.08576e-09
2.66487e-07
-1.10232e-09
2.66412e-07
-1.10417e-09
2.6634e-07
-1.09657e-09
2.66273e-07
-1.08306e-09
2.6621e-07
-1.06585e-09
2.66151e-07
-1.04639e-09
2.66095e-07
-1.02552e-09
2.66043e-07
-1.00378e-09
2.65992e-07
-9.8145e-10
2.65943e-07
-9.58643e-10
-9.35396e-10
2.65895e-07
2.20128e-07
-8.14278e-10
2.20059e-07
-9.04977e-10
2.19972e-07
-9.60501e-10
2.19878e-07
-9.91188e-10
2.19781e-07
-1.00505e-09
2.19684e-07
-1.00757e-09
2.1959e-07
-1.00252e-09
2.19499e-07
-9.92411e-10
2.19412e-07
-9.78842e-10
2.19329e-07
-9.62842e-10
2.19248e-07
-9.45046e-10
2.1917e-07
-9.25838e-10
2.19094e-07
-9.05412e-10
2.1902e-07
-8.83865e-10
-8.61216e-10
2.18945e-07
1.79175e-07
-7.40761e-10
1.79079e-07
-8.08749e-10
1.7897e-07
-8.51562e-10
1.78855e-07
-8.76294e-10
1.78738e-07
-8.88482e-10
1.78623e-07
-8.91932e-10
1.78509e-07
-8.89249e-10
1.78399e-07
-8.8218e-10
1.78292e-07
-8.71861e-10
1.78188e-07
-8.59017e-10
1.78087e-07
-8.44096e-10
1.77989e-07
-8.2737e-10
1.77892e-07
-8.08988e-10
1.77798e-07
-7.89042e-10
-7.67569e-10
1.77704e-07
1.4407e-07
-6.40834e-10
1.43954e-07
-6.92969e-10
1.4383e-07
-7.27128e-10
1.43702e-07
-7.48216e-10
1.43573e-07
-7.59958e-10
1.43446e-07
-7.64875e-10
1.43322e-07
-7.64714e-10
1.432e-07
-7.60679e-10
1.43082e-07
-7.53565e-10
1.42967e-07
-7.43888e-10
1.42855e-07
-7.31978e-10
1.42745e-07
-7.18042e-10
1.42639e-07
-7.0221e-10
1.42534e-07
-6.84572e-10
-6.65171e-10
1.42432e-07
1.14553e-07
-5.29363e-10
1.14431e-07
-5.70826e-10
1.14304e-07
-5.99411e-10
1.14174e-07
-6.18548e-10
1.14045e-07
-6.30635e-10
1.13917e-07
-6.37291e-10
1.13792e-07
-6.39679e-10
1.1367e-07
-6.38623e-10
1.13551e-07
-6.34683e-10
1.13435e-07
-6.28231e-10
1.13323e-07
-6.19508e-10
1.13214e-07
-6.08683e-10
1.13107e-07
-5.95862e-10
1.13004e-07
-5.81133e-10
-5.64545e-10
1.12903e-07
9.01406e-08
-4.20819e-10
9.00247e-08
-4.54885e-10
8.99049e-08
-4.79699e-10
8.97841e-08
-4.97683e-10
8.96637e-08
-5.10283e-10
8.95449e-08
-5.18508e-10
8.94284e-08
-5.23128e-10
8.93145e-08
-5.2471e-10
8.92034e-08
-5.23643e-10
8.90954e-08
-5.20191e-10
8.89904e-08
-5.14538e-10
8.88886e-08
-5.06817e-10
8.87898e-08
-4.97121e-10
8.86942e-08
-4.85533e-10
-4.72099e-10
8.86018e-08
7.02304e-08
-3.24476e-10
7.01284e-08
-3.52881e-10
7.00234e-08
-3.74706e-10
6.99173e-08
-3.91607e-10
6.98114e-08
-4.04354e-10
6.97064e-08
-4.1357e-10
6.96031e-08
-4.19772e-10
6.95017e-08
-4.23339e-10
6.94026e-08
-4.24538e-10
6.9306e-08
-4.23557e-10
6.9212e-08
-4.20535e-10
6.91207e-08
-4.15579e-10
6.90324e-08
-4.08765e-10
6.8947e-08
-4.00163e-10
-3.89812e-10
6.88647e-08
5.41779e-08
-2.43925e-10
5.40925e-08
-2.67491e-10
5.40043e-08
-2.86502e-10
5.39146e-08
-3.0197e-10
5.38245e-08
-3.14232e-10
5.37346e-08
-3.23682e-10
5.36455e-08
-3.30661e-10
5.35576e-08
-3.35416e-10
5.34712e-08
-3.38125e-10
5.33866e-08
-3.3892e-10
5.33039e-08
-3.37905e-10
5.32235e-08
-3.35163e-10
5.31455e-08
-3.30751e-10
5.30701e-08
-3.24721e-10
-3.17101e-10
5.29973e-08
4.13546e-08
-1.78987e-10
4.12853e-08
-1.98147e-10
4.12131e-08
-2.14285e-10
4.1139e-08
-2.27874e-10
4.10638e-08
-2.39021e-10
4.09881e-08
-2.47982e-10
4.09124e-08
-2.54975e-10
4.08371e-08
-2.60151e-10
4.07626e-08
-2.63627e-10
4.06892e-08
-2.65494e-10
4.06171e-08
-2.65828e-10
4.05466e-08
-2.64687e-10
4.0478e-08
-2.62108e-10
4.04114e-08
-2.58128e-10
-2.52763e-10
4.03471e-08
3.11889e-08
-1.27829e-10
3.11337e-08
-1.42943e-10
3.10756e-08
-1.5615e-10
3.10152e-08
-1.67524e-10
3.09533e-08
-1.77084e-10
3.08903e-08
-1.85e-10
3.08267e-08
-1.91402e-10
3.0763e-08
-1.96379e-10
3.06993e-08
-2.00005e-10
3.06362e-08
-2.0234e-10
3.05738e-08
-2.03435e-10
3.05124e-08
-2.03326e-10
3.04524e-08
-2.02037e-10
3.03938e-08
-1.99588e-10
-1.95985e-10
3.03371e-08
2.31845e-08
-8.82747e-11
2.31413e-08
-9.97554e-11
2.30952e-08
-1.10082e-10
2.30468e-08
-1.19099e-10
2.29965e-08
-1.26818e-10
2.29449e-08
-1.33351e-10
2.28922e-08
-1.38769e-10
2.2839e-08
-1.43122e-10
2.27854e-08
-1.46453e-10
2.27319e-08
-1.48798e-10
2.26787e-08
-1.5019e-10
2.2626e-08
-1.50648e-10
2.25741e-08
-1.50185e-10
2.25233e-08
-1.48808e-10
-1.46519e-10
2.24739e-08
1.69233e-08
-5.83411e-11
1.68902e-08
-6.66661e-11
1.68544e-08
-7.43012e-11
1.68163e-08
-8.102e-11
1.67764e-08
-8.68567e-11
1.67349e-08
-9.18813e-11
1.66923e-08
-9.6129e-11
1.66488e-08
-9.96239e-11
1.66047e-08
-1.02389e-10
1.65604e-08
-1.04444e-10
1.6516e-08
-1.05807e-10
1.64718e-08
-1.06486e-10
1.64281e-08
-1.06488e-10
1.63851e-08
-1.0581e-10
-1.04451e-10
1.6343e-08
1.20596e-08
-3.63329e-11
1.20349e-08
-4.20202e-11
1.20079e-08
-4.72784e-11
1.19788e-08
-5.19245e-11
1.1948e-08
-5.60113e-11
1.19157e-08
-5.95789e-11
1.18822e-08
-6.26417e-11
1.18478e-08
-6.52089e-11
1.18127e-08
-6.72905e-11
1.17771e-08
-6.88951e-11
1.17414e-08
-7.00315e-11
1.17056e-08
-7.07021e-11
1.167e-08
-7.09085e-11
1.16348e-08
-7.06451e-11
-6.99067e-11
1.16003e-08
8.31049e-09
-2.07919e-11
8.29284e-09
-2.43714e-11
8.27322e-09
-2.76615e-11
8.25187e-09
-3.05754e-11
8.22903e-09
-3.31674e-11
8.20491e-09
-3.54574e-11
8.17971e-09
-3.74491e-11
8.15365e-09
-3.91439e-11
8.1269e-09
-4.05447e-11
8.09966e-09
-4.16538e-11
8.0721e-09
-4.24746e-11
8.04441e-09
-4.30066e-11
8.01675e-09
-4.32498e-11
7.9893e-09
-4.31972e-11
-4.28408e-11
7.96224e-09
5.44615e-09
-1.04395e-11
5.43421e-09
-1.24305e-11
5.42076e-09
-1.42145e-11
5.40598e-09
-1.5798e-11
5.39004e-09
-1.72219e-11
5.37307e-09
-1.84938e-11
5.35524e-09
-1.9613e-11
5.33667e-09
-2.05776e-11
5.31751e-09
-2.13873e-11
5.2979e-09
-2.20418e-11
5.27797e-09
-2.25418e-11
5.25785e-09
-2.28859e-11
5.23767e-09
-2.30738e-11
5.21757e-09
-2.30996e-11
-2.29536e-11
5.19769e-09
3.2808e-09
-4.15038e-12
3.27341e-09
-5.04403e-12
3.26499e-09
-5.79571e-12
3.25566e-09
-6.46647e-12
3.24552e-09
-7.07736e-12
3.23465e-09
-7.62931e-12
3.22316e-09
-8.12037e-12
3.21113e-09
-8.54846e-12
3.19865e-09
-8.91245e-12
3.18582e-09
-9.21134e-12
3.17273e-09
-9.44507e-12
3.15945e-09
-9.61243e-12
3.14609e-09
-9.71327e-12
3.13274e-09
-9.74388e-12
-9.69548e-12
3.11948e-09
1.66487e-09
-9.48211e-13
1.66102e-09
-1.1946e-12
1.65659e-09
-1.36595e-12
1.65164e-09
-1.52271e-12
1.64624e-09
-1.66914e-12
1.64041e-09
-1.80378e-12
1.63422e-09
-1.92513e-12
1.6277e-09
-2.03199e-12
1.62091e-09
-2.12365e-12
1.6139e-09
-2.19956e-12
1.60671e-09
-2.25965e-12
1.5994e-09
-2.30349e-12
1.59202e-09
-2.33099e-12
1.58462e-09
-2.34092e-12
-2.32781e-12
1.57725e-09
4.78404e-10
4.77209e-10
4.75843e-10
4.74321e-10
4.72652e-10
4.70848e-10
4.68923e-10
4.66891e-10
4.64767e-10
4.62567e-10
4.60308e-10
4.58004e-10
4.55673e-10
4.53332e-10
4.51005e-10
1.21641e-09
-4.74687e-10
2.73229e-10
1.5066e-09
-3.83597e-10
9.34079e-11
1.80085e-09
-2.25048e-10
-6.92016e-11
2.09247e-09
-6.4406e-11
-2.27209e-10
2.37919e-09
9.19347e-11
-3.78653e-10
2.66152e-09
2.34536e-10
-5.16869e-10
2.94058e-09
3.59718e-10
-6.38774e-10
3.21716e-09
4.6392e-10
-7.40505e-10
3.49189e-09
5.43059e-10
-8.17791e-10
3.76523e-09
5.9264e-10
-8.65978e-10
4.03749e-09
6.07736e-10
-8.79997e-10
4.30887e-09
5.82959e-10
-8.54334e-10
4.57942e-09
5.12579e-10
-7.83131e-10
4.84911e-09
3.91309e-10
-6.60994e-10
5.11786e-09
2.15701e-10
-4.84452e-10
5.38587e-09
-1.27703e-11
-2.5524e-10
5.65398e-09
-2.83682e-10
1.55682e-11
5.92454e-09
-5.70929e-10
3.00372e-10
6.20212e-09
-8.30353e-10
5.52772e-10
6.49428e-09
-9.9218e-10
7.00022e-10
6.81079e-09
-9.85606e-10
6.69096e-10
7.15949e-09
-7.55039e-10
4.06334e-10
7.48607e-09
-3.32581e-10
6.00488e-12
7.76254e-09
-6.73245e-11
-2.09145e-10
7.98409e-09
-1.02814e-11
-2.11272e-10
8.1501e-09
-1.07745e-10
-5.82589e-11
8.26253e-09
-3.078e-10
1.9537e-10
8.32407e-09
-5.71413e-10
5.09865e-10
8.33682e-09
-8.66929e-10
8.54186e-10
8.3016e-09
-1.16262e-09
1.19784e-09
8.21948e-09
-1.43379e-09
1.51591e-09
8.09237e-09
-1.65571e-09
1.78282e-09
7.92189e-09
-1.79612e-09
1.9666e-09
7.71049e-09
-1.83596e-09
2.04736e-09
7.46124e-09
-1.76195e-09
2.0112e-09
7.17734e-09
-1.56683e-09
1.85073e-09
6.86183e-09
-1.24838e-09
1.5639e-09
6.51755e-09
-8.06488e-10
1.15077e-09
6.14752e-09
-2.39284e-10
6.09313e-10
5.75377e-09
4.5967e-10
-6.5921e-11
5.33557e-09
1.2956e-09
-8.77401e-10
4.87999e-09
2.24404e-09
-1.78846e-09
4.36114e-09
3.18148e-09
-2.66263e-09
3.7826e-09
3.8038e-09
-3.22525e-09
3.34953e-09
3.43426e-09
-3.00119e-09
2.54461e-09
-5.55434e-10
2.72013e-09
-5.5911e-10
2.95901e-09
-4.63928e-10
3.22686e-09
-3.32259e-10
3.50905e-09
-1.9026e-10
3.79786e-09
-5.42692e-11
4.0899e-09
6.76809e-11
4.38352e-09
1.70292e-10
4.67794e-09
2.48644e-10
4.97273e-09
2.97846e-10
5.26763e-09
3.12835e-10
5.5624e-09
2.88196e-10
5.85672e-09
2.18254e-10
6.15023e-09
9.77973e-11
6.44253e-09
-7.65946e-11
6.73346e-09
-3.03699e-10
7.0235e-09
-5.73721e-10
7.31469e-09
-8.62122e-10
7.61145e-09
-1.12711e-09
7.92142e-09
-1.30215e-09
8.25492e-09
-1.31911e-09
8.62085e-09
-1.12097e-09
8.96387e-09
-6.75597e-10
9.25559e-09
-3.59046e-10
9.49098e-09
-2.45673e-10
9.66892e-09
-2.85685e-10
9.79091e-09
-4.29786e-10
9.85933e-09
-6.39836e-10
9.87612e-09
-8.83718e-10
9.84199e-09
-1.12849e-09
9.75818e-09
-1.34998e-09
9.62721e-09
-1.52474e-09
9.45123e-09
-1.62014e-09
9.23356e-09
-1.61829e-09
8.97857e-09
-1.50695e-09
8.69122e-09
-1.27949e-09
8.3771e-09
-9.34265e-10
8.04282e-09
-4.72207e-10
7.6974e-09
1.0614e-10
7.354e-09
8.0307e-10
7.03208e-09
1.61751e-09
6.75579e-09
2.52033e-09
6.55547e-09
3.3818e-09
6.46356e-09
3.89571e-09
3.45147e-09
6.36162e-09
4.44793e-09
-5.73035e-10
4.52889e-09
-6.40066e-10
4.68548e-09
-6.20518e-10
4.89874e-09
-5.45521e-10
5.1482e-09
-4.39715e-10
5.42056e-09
-3.26634e-10
5.70756e-09
-2.19313e-10
6.00407e-09
-1.2622e-10
6.30695e-09
-5.42344e-11
6.61419e-09
-9.40132e-12
6.92441e-09
2.61986e-12
7.2365e-09
-2.38898e-11
7.54948e-09
-9.47271e-11
7.86239e-09
-2.15114e-10
8.17427e-09
-3.88481e-10
8.48443e-09
-6.13858e-10
8.79278e-09
-8.82071e-10
9.10084e-09
-1.17018e-09
9.41263e-09
-1.43889e-09
9.73564e-09
-1.62517e-09
1.00806e-08
-1.66403e-09
1.04573e-08
-1.49766e-09
1.08106e-08
-1.02899e-09
1.11126e-08
-6.61022e-10
1.1358e-08
-4.91045e-10
1.15451e-08
-4.72749e-10
1.16747e-08
-5.59392e-10
1.17488e-08
-7.13933e-10
1.1769e-08
-9.03959e-10
1.1736e-08
-1.09545e-09
1.1651e-08
-1.26505e-09
1.15175e-08
-1.39124e-09
1.13382e-08
-1.44081e-09
1.11175e-08
-1.39761e-09
1.08614e-08
-1.25082e-09
1.0577e-08
-9.95086e-10
1.02729e-08
-6.30205e-10
9.96022e-09
-1.59492e-10
9.65431e-09
4.12051e-10
9.37896e-09
1.07841e-09
9.16969e-09
1.82678e-09
9.07256e-09
2.61747e-09
9.12445e-09
3.3299e-09
9.29213e-09
3.72803e-09
3.38977e-09
9.35383e-09
7.05545e-09
-5.56185e-10
7.07345e-09
-6.58065e-10
7.14884e-09
-6.95905e-10
7.2881e-09
-6.84787e-10
7.47999e-09
-6.31606e-10
7.71067e-09
-5.5731e-10
7.96966e-09
-4.78306e-10
8.24911e-09
-4.05671e-10
8.54341e-09
-3.48532e-10
8.84858e-09
-3.14573e-10
9.16165e-09
-3.10451e-10
9.48027e-09
-3.4251e-10
9.80244e-09
-4.16894e-10
1.01263e-08
-5.38974e-10
1.04501e-08
-7.1226e-10
1.07723e-08
-9.36054e-10
1.1092e-08
-1.2018e-09
1.141e-08
-1.48817e-09
1.17296e-08
-1.75848e-09
1.20578e-08
-1.95341e-09
1.24054e-08
-2.01165e-09
1.27831e-08
-1.87537e-09
1.31378e-08
-1.38365e-09
1.34423e-08
-9.65556e-10
1.36915e-08
-7.40201e-10
1.38829e-08
-6.64157e-10
1.40166e-08
-6.93069e-10
1.40939e-08
-7.91241e-10
1.4116e-08
-9.26063e-10
1.40834e-08
-1.06287e-09
1.39977e-08
-1.17931e-09
1.38629e-08
-1.25648e-09
1.36826e-08
-1.26054e-09
1.34626e-08
-1.17762e-09
1.32107e-08
-9.98852e-10
1.29363e-08
-7.20733e-10
1.26515e-08
-3.45336e-10
1.23713e-08
1.20643e-10
1.21168e-08
6.66594e-10
1.19179e-08
1.27733e-09
1.1816e-08
1.92866e-09
1.18581e-08
2.57531e-09
1.20673e-08
3.12078e-09
1.23911e-08
3.40415e-09
3.20308e-09
1.25778e-08
1.05379e-08
-5.2624e-10
1.0519e-08
-6.39137e-10
1.05351e-08
-7.1202e-10
1.05992e-08
-7.48863e-10
1.07193e-08
-7.51744e-10
1.0888e-08
-7.25954e-10
1.1096e-08
-6.86327e-10
1.13355e-08
-6.45159e-10
1.15996e-08
-6.12707e-10
1.1883e-08
-5.9795e-10
1.21811e-08
-6.08517e-10
1.24901e-08
-6.51505e-10
1.28068e-08
-7.33568e-10
1.31281e-08
-8.60339e-10
1.34513e-08
-1.03548e-09
1.37739e-08
-1.25857e-09
1.40937e-08
-1.52165e-09
1.44106e-08
-1.80503e-09
1.47268e-08
-2.07468e-09
1.50485e-08
-2.27516e-09
1.53862e-08
-2.34937e-09
1.57511e-08
-2.24026e-09
1.60941e-08
-1.7266e-09
1.639e-08
-1.2615e-09
1.66337e-08
-9.83879e-10
1.6822e-08
-8.52469e-10
1.6954e-08
-8.25015e-10
1.70302e-08
-8.67435e-10
1.70509e-08
-9.46845e-10
1.70171e-08
-1.02907e-09
1.69306e-08
-1.09278e-09
1.67954e-08
-1.1213e-09
1.66165e-08
-1.08159e-09
1.6401e-08
-9.6218e-10
1.61587e-08
-7.5654e-10
1.59015e-08
-4.63554e-10
1.56443e-08
-8.81007e-11
1.54055e-08
3.59444e-10
1.52089e-08
8.63143e-10
1.50854e-08
1.40088e-09
1.50722e-08
1.94184e-09
1.52052e-08
2.44229e-09
1.5492e-08
2.83406e-09
1.58713e-08
3.02486e-09
2.9182e-09
1.61561e-08
1.50942e-08
-4.9685e-10
1.50589e-08
-6.03907e-10
1.50413e-08
-6.94351e-10
1.50521e-08
-7.5968e-10
1.51032e-08
-8.02822e-10
1.52014e-08
-8.2423e-10
1.53435e-08
-8.28402e-10
1.55235e-08
-8.25182e-10
1.57361e-08
-8.25285e-10
1.59758e-08
-8.37633e-10
1.62374e-08
-8.70101e-10
1.65161e-08
-9.30245e-10
1.68077e-08
-1.02513e-09
1.71079e-08
-1.1606e-09
1.74129e-08
-1.34047e-09
1.77189e-08
-1.56452e-09
1.80225e-08
-1.82531e-09
1.83223e-08
-2.10476e-09
1.86191e-08
-2.37151e-09
1.8918e-08
-2.57405e-09
1.92286e-08
-2.65994e-09
1.95621e-08
-2.57376e-09
1.9876e-08
-2.04049e-09
2.01482e-08
-1.53369e-09
2.03734e-08
-1.20915e-09
2.05479e-08
-1.02695e-09
2.06694e-08
-9.46545e-10
2.07376e-08
-9.35584e-10
2.0752e-08
-9.61217e-10
2.07132e-08
-9.90332e-10
2.06252e-08
-1.00479e-09
2.04897e-08
-9.85755e-10
2.03136e-08
-9.05521e-10
2.01061e-08
-7.5465e-10
1.98784e-08
-5.28865e-10
1.96446e-08
-2.29739e-10
1.94215e-08
1.34986e-10
1.92292e-08
5.51721e-10
1.90914e-08
1.00096e-09
1.90348e-08
1.4575e-09
1.90866e-08
1.89003e-09
1.92669e-08
2.26197e-09
1.95706e-08
2.53038e-09
1.99449e-08
2.65063e-09
2.58878e-09
2.02743e-08
2.09556e-08
-4.74948e-10
2.09217e-08
-5.70022e-10
2.08891e-08
-6.61783e-10
2.08719e-08
-7.4251e-10
2.08775e-08
-8.08419e-10
2.09155e-08
-8.6217e-10
2.09908e-08
-9.03739e-10
2.11037e-08
-9.38056e-10
2.1251e-08
-9.72637e-10
2.14295e-08
-1.01606e-09
2.16346e-08
-1.07525e-09
2.18619e-08
-1.15749e-09
2.21065e-08
-1.26979e-09
2.23638e-08
-1.41791e-09
2.26289e-08
-1.60557e-09
2.2897e-08
-1.83254e-09
2.31634e-08
-2.09175e-09
2.34252e-08
-2.36656e-09
2.36819e-08
-2.6282e-09
2.39368e-08
-2.82898e-09
2.41983e-08
-2.92145e-09
2.44771e-08
-2.85258e-09
2.47402e-08
-2.30352e-09
2.49693e-08
-1.76282e-09
2.51593e-08
-1.39915e-09
2.53055e-08
-1.1732e-09
2.54046e-08
-1.04559e-09
2.54541e-08
-9.8506e-10
2.54544e-08
-9.61591e-10
2.54063e-08
-9.42186e-10
2.53136e-08
-9.12071e-10
2.51761e-08
-8.48317e-10
2.50033e-08
-7.32685e-10
2.48058e-08
-5.57165e-10
2.45963e-08
-3.19348e-10
2.439e-08
-2.34514e-11
2.42045e-08
3.20499e-10
2.40594e-08
6.96762e-10
2.39755e-08
1.08486e-09
2.39727e-08
1.46037e-09
2.40664e-08
1.79627e-09
2.42628e-08
2.06564e-09
2.4549e-08
2.24413e-09
2.48855e-08
2.31412e-09
2.26952e-09
2.52048e-08
2.83916e-08
-4.62199e-10
2.8367e-08
-5.45418e-10
2.83368e-08
-6.31494e-10
2.83095e-08
-7.15209e-10
2.82939e-08
-7.92912e-10
2.82961e-08
-8.64301e-10
2.83224e-08
-9.30037e-10
2.8376e-08
-9.91726e-10
2.84598e-08
-1.05643e-09
2.8572e-08
-1.12819e-09
2.87102e-08
-1.21354e-09
2.88714e-08
-1.31863e-09
2.90514e-08
-1.44985e-09
2.92459e-08
-1.61238e-09
2.94498e-08
-1.80941e-09
2.96575e-08
-2.04027e-09
2.98637e-08
-2.29791e-09
3.0064e-08
-2.56694e-09
3.02567e-08
-2.82089e-09
3.04433e-08
-3.01557e-09
3.06305e-08
-3.10865e-09
3.08279e-08
-3.05e-09
3.1015e-08
-2.4906e-09
3.11785e-08
-1.92629e-09
3.13129e-08
-1.5336e-09
3.14132e-08
-1.27342e-09
3.14741e-08
-1.10648e-09
3.14908e-08
-1.00177e-09
3.14668e-08
-9.37666e-10
3.14045e-08
-8.79885e-10
3.12995e-08
-8.07065e-10
3.1156e-08
-7.04796e-10
3.09852e-08
-5.61829e-10
3.07979e-08
-3.6995e-10
3.06077e-08
-1.29151e-10
3.04299e-08
1.54357e-10
3.02815e-08
4.68972e-10
3.01795e-08
7.98674e-10
3.01401e-08
1.12431e-09
3.01754e-08
1.42504e-09
3.02913e-08
1.68035e-09
3.04843e-08
1.87267e-09
3.07386e-08
1.98982e-09
3.10253e-08
2.02742e-09
1.98984e-09
3.1305e-08
3.77096e-08
-4.57774e-10
3.76958e-08
-5.31573e-10
3.7675e-08
-6.10665e-10
3.76517e-08
-6.91974e-10
3.76317e-08
-7.72925e-10
3.76199e-08
-8.52499e-10
3.76215e-08
-9.31622e-10
3.76391e-08
-1.00927e-09
3.7675e-08
-1.09233e-09
3.77323e-08
-1.18551e-09
3.78095e-08
-1.29071e-09
3.79043e-08
-1.41343e-09
3.80144e-08
-1.55997e-09
3.81363e-08
-1.73426e-09
3.82654e-08
-1.93852e-09
3.83963e-08
-2.17117e-09
3.85232e-08
-2.42487e-09
3.86415e-08
-2.68516e-09
3.8748e-08
-2.9274e-09
3.88429e-08
-3.11046e-09
3.89311e-08
-3.19685e-09
3.90207e-08
-3.13964e-09
3.91067e-08
-2.57659e-09
3.91813e-08
-2.00089e-09
3.92387e-08
-1.59103e-09
3.92729e-08
-1.30759e-09
3.92755e-08
-1.1091e-09
3.92496e-08
-9.75848e-10
3.91917e-08
-8.79828e-10
3.90977e-08
-7.85855e-10
3.89709e-08
-6.80283e-10
3.88175e-08
-5.51329e-10
3.86453e-08
-3.89677e-10
3.8466e-08
-1.90685e-10
3.82932e-08
4.37209e-11
3.8141e-08
3.065e-10
3.80246e-08
5.85411e-10
3.79573e-08
8.65997e-10
3.79495e-08
1.13204e-09
3.8007e-08
1.36754e-09
3.81289e-08
1.55851e-09
3.83067e-08
1.69482e-09
3.8525e-08
1.77157e-09
3.87624e-08
1.79004e-09
1.75712e-09
3.89951e-08
4.92463e-08
-4.61445e-10
4.9243e-08
-5.28297e-10
4.92336e-08
-6.01282e-10
4.92204e-08
-6.78762e-10
4.92066e-08
-7.59112e-10
4.91955e-08
-8.41445e-10
4.919e-08
-9.26053e-10
4.91944e-08
-1.01372e-09
4.92077e-08
-1.10568e-09
4.92311e-08
-1.20886e-09
4.92658e-08
-1.32538e-09
4.93106e-08
-1.45823e-09
4.93627e-08
-1.61208e-09
4.94191e-08
-1.79073e-09
4.94759e-08
-1.99526e-09
4.95278e-08
-2.2231e-09
4.95694e-08
-2.46651e-09
4.9596e-08
-2.71171e-09
4.96039e-08
-2.93531e-09
4.95924e-08
-3.09895e-09
4.95648e-08
-3.16925e-09
4.95277e-08
-3.10253e-09
4.94936e-08
-2.54245e-09
4.94607e-08
-1.96807e-09
4.94229e-08
-1.55323e-09
4.9374e-08
-1.2586e-09
4.93086e-08
-1.04379e-09
4.92212e-08
-8.88391e-10
4.91082e-08
-7.66839e-10
4.89731e-08
-6.50774e-10
4.88178e-08
-5.24927e-10
4.86464e-08
-3.79983e-10
4.84672e-08
-2.10441e-10
4.82911e-08
-1.45798e-11
4.813e-08
2.04779e-10
4.79971e-08
4.39436e-10
4.79037e-08
6.7879e-10
4.78591e-08
9.10612e-10
4.78687e-08
1.12245e-09
4.79331e-08
1.3031e-09
4.80477e-08
1.44392e-09
4.82027e-08
1.53986e-09
4.83843e-08
1.58998e-09
4.85768e-08
1.59749e-09
1.56888e-09
4.87651e-08
6.33609e-08
-4.75188e-10
6.33696e-08
-5.37008e-10
6.33734e-08
-6.05133e-10
6.33735e-08
-6.78824e-10
6.33716e-08
-7.57196e-10
6.33698e-08
-8.3964e-10
6.337e-08
-9.26245e-10
6.33739e-08
-1.01762e-09
6.33834e-08
-1.11521e-09
6.33969e-08
-1.22234e-09
6.34129e-08
-1.34139e-09
6.34306e-08
-1.47594e-09
6.34482e-08
-1.62965e-09
6.34612e-08
-1.80381e-09
6.34648e-08
-1.99882e-09
6.34539e-08
-2.21224e-09
6.34236e-08
-2.43616e-09
6.33678e-08
-2.65596e-09
6.32831e-08
-2.85057e-09
6.31685e-08
-2.98432e-09
6.30257e-08
-3.02653e-09
6.28601e-08
-2.9369e-09
6.27017e-08
-2.38404e-09
6.25554e-08
-1.82178e-09
6.24143e-08
-1.41215e-09
6.22727e-08
-1.11695e-09
6.21263e-08
-8.97381e-10
6.19682e-08
-7.30346e-10
6.17957e-08
-5.94296e-10
6.16112e-08
-4.66337e-10
6.14182e-08
-3.31855e-10
6.12214e-08
-1.83238e-10
6.10287e-08
-1.77589e-11
6.08488e-08
1.65402e-10
6.06925e-08
3.61043e-10
6.05696e-08
5.62309e-10
6.04881e-08
7.60364e-10
6.04529e-08
9.45793e-10
6.04655e-08
1.10978e-09
6.05235e-08
1.24513e-09
6.06204e-08
1.347e-09
6.07468e-08
1.41344e-09
6.08915e-08
1.44532e-09
6.10429e-08
1.44614e-09
1.42117e-09
6.11906e-08
8.0448e-08
-5.0274e-10
8.0472e-08
-5.60976e-10
8.04922e-08
-6.25386e-10
8.05092e-08
-6.95762e-10
8.05237e-08
-7.71743e-10
8.05371e-08
-8.53021e-10
8.05505e-08
-9.39637e-10
8.05649e-08
-1.032e-09
8.05808e-08
-1.13115e-09
8.05974e-08
-1.23896e-09
8.06134e-08
-1.35735e-09
8.06261e-08
-1.48864e-09
8.06319e-08
-1.63546e-09
8.06262e-08
-1.79807e-09
8.06036e-08
-1.97625e-09
8.05578e-08
-2.16643e-09
8.04827e-08
-2.36109e-09
8.03721e-08
-2.54533e-09
8.02216e-08
-2.70004e-09
8.00293e-08
-2.79203e-09
7.97958e-08
-2.79302e-09
7.95247e-08
-2.66583e-09
7.92607e-08
-2.12002e-09
7.9015e-08
-1.57607e-09
7.87806e-08
-1.17783e-09
7.85525e-08
-8.8875e-10
7.83272e-08
-6.72172e-10
7.81002e-08
-5.0333e-10
7.78692e-08
-3.63299e-10
7.76357e-08
-2.32831e-10
7.74041e-08
-1.00238e-10
7.71804e-08
4.04824e-11
7.69701e-08
1.92566e-10
7.67821e-08
3.53331e-10
7.66242e-08
5.19003e-10
7.65028e-08
6.83696e-10
7.64225e-08
8.40684e-10
7.63849e-08
9.83314e-10
7.63889e-08
1.10579e-09
7.64302e-08
1.20384e-09
7.65021e-08
1.27509e-09
7.65964e-08
1.3192e-09
7.6704e-08
1.33769e-09
7.68165e-08
1.33365e-09
1.31109e-09
7.69266e-08
1.00981e-07
-5.47211e-10
1.01023e-07
-6.02943e-10
1.01063e-07
-6.64569e-10
1.01099e-07
-7.32169e-10
1.01133e-07
-8.05704e-10
1.01165e-07
-8.85099e-10
1.01196e-07
-9.70427e-10
1.01226e-07
-1.06194e-09
1.01255e-07
-1.16025e-09
1.01282e-07
-1.2663e-09
1.01306e-07
-1.38131e-09
1.01324e-07
-1.50652e-09
1.01332e-07
-1.64323e-09
1.01325e-07
-1.79088e-09
1.01296e-07
-1.94801e-09
1.0124e-07
-2.10991e-09
1.01148e-07
-2.2694e-09
1.01014e-07
-2.41163e-09
1.00833e-07
-2.51873e-09
1.00602e-07
-2.56044e-09
1.00319e-07
-2.51032e-09
9.99868e-08
-2.33386e-09
9.9658e-08
-1.79121e-09
9.93483e-08
-1.26632e-09
9.90511e-08
-8.80673e-10
9.87621e-08
-5.99727e-10