/*--------------------------------*- C++ -*----------------------------------*\
| =========                 |                                                 |
| \\      /  F ield         | OpenFOAM: The Open Source CFD Toolbox           |
|  \\    /   O peration     | Version:  2312                                  |
|   \\  /    A nd           | Website:  www.openfoam.com                      |
|    \\/     M anipulation  |                                                 |
\*---------------------------------------------------------------------------*/
FoamFile
{
    version     2.0;
    format      ascii;
    arch        "LSB;label=32;scalar=64";
    class       volVectorField;
    location    "95";
    object      U;
}
// * * * * * * * * * * * * * * * * * * * * * * * * * * * * * * * * * * * * * //

dimensions      [0 1 -1 0 0 0 0];

internalField   nonuniform List<vector> 
4800
(
(0.000467144 2.20246e-07 -1.82749e-26)
(0.000462492 2.04886e-07 -1.2839e-25)
(0.000460665 1.79479e-07 1.6466e-25)
(0.000460721 1.64361e-07 7.56409e-26)
(0.000461796 1.6536e-07 1.13125e-24)
(0.000463647 1.41178e-07 -2.70967e-24)
(0.000466159 8.62947e-08 2.55663e-24)
(0.000469311 -7.5313e-09 -3.74895e-24)
(0.000473178 -1.56419e-07 1.19065e-24)
(0.000477942 -4.0406e-07 4.16658e-24)
(0.000484049 -9.06857e-07 -1.28073e-24)
(0.000492825 -2.32048e-06 -1.01859e-25)
(0.000511747 -7.59387e-06 -1.59954e-24)
(0.000558825 -2.88936e-05 7.721e-25)
(0.000634964 -9.22837e-05 -6.20592e-25)
(0.00144913 1.13271e-06 -5.78259e-26)
(0.00143507 6.09074e-07 7.20715e-26)
(0.00142928 1.90432e-07 -6.64386e-25)
(0.00142894 -1.55376e-07 4.92837e-25)
(0.00143148 -4.33512e-07 1.60672e-24)
(0.00143634 -7.6445e-07 -2.59436e-24)
(0.00144311 -1.18498e-06 -7.64186e-25)
(0.00145162 -1.75685e-06 -2.01118e-25)
(0.00146211 -2.57775e-06 6.24051e-24)
(0.00147507 -3.88285e-06 -4.63973e-24)
(0.00149179 -6.34577e-06 5.04517e-25)
(0.00151506 -1.22239e-05 7.85709e-25)
(0.00155402 -2.93348e-05 -1.18197e-24)
(0.00161902 -8.16173e-05 -3.85608e-25)
(0.00168733 -0.000198207 1.58148e-24)
(0.00253911 3.59752e-06 -4.13761e-26)
(0.00251515 1.95007e-06 4.22899e-26)
(0.00250486 6.79404e-07 4.3423e-25)
(0.00250356 -3.87249e-07 -1.02943e-24)
(0.00250694 -1.31125e-06 1.01377e-24)
(0.00251416 -2.3657e-06 9.84386e-25)
(0.00252453 -3.6287e-06 -2.55696e-24)
(0.00253759 -5.28596e-06 -1.61572e-24)
(0.00255362 -7.63076e-06 3.85462e-24)
(0.00257325 -1.12848e-05 1.48604e-24)
(0.00259789 -1.77485e-05 -5.16254e-24)
(0.00262981 -3.10142e-05 -8.19568e-25)
(0.00267317 -6.06642e-05 2.22546e-24)
(0.0027265 -0.000126247 3.59525e-24)
(0.00276424 -0.000234533 -1.86691e-24)
(0.00374306 7.96769e-06 1.52948e-26)
(0.00370894 4.42746e-06 -1.06273e-25)
(0.00369371 1.71125e-06 4.73806e-25)
(0.00369074 -5.42944e-07 5.04526e-25)
(0.00369428 -2.46909e-06 -4.9129e-25)
(0.00370297 -4.69477e-06 -2.96548e-24)
(0.00371603 -7.29699e-06 -2.08049e-24)
(0.00373244 -1.06135e-05 7.72951e-24)
(0.00375242 -1.52116e-05 3.27181e-24)
(0.00377635 -2.21073e-05 -4.65115e-24)
(0.00380508 -3.33865e-05 -1.89505e-24)
(0.00383917 -5.355e-05 -1.4697e-24)
(0.00387791 -9.05294e-05 3.86827e-26)
(0.00391406 -0.000154309 1.09891e-24)
(0.0039294 -0.000239479 5.38321e-27)
(0.00506422 1.45954e-05 -2.80739e-26)
(0.00502027 8.27482e-06 -1.70877e-25)
(0.00499996 3.45396e-06 -1.08184e-25)
(0.00499463 -5.44938e-07 2.85992e-25)
(0.00499776 -3.83715e-06 -8.18574e-25)
(0.005007 -7.68057e-06 2.09775e-24)
(0.00502159 -1.21049e-05 -3.66776e-25)
(0.0050399 -1.75392e-05 1.34621e-24)
(0.0050619 -2.48412e-05 -7.4823e-24)
(0.00508748 -3.52615e-05 1.43198e-23)
(0.00511656 -5.09321e-05 -1.39395e-23)
(0.00514803 -7.55014e-05 7.41698e-24)
(0.00517868 -0.000113681 -6.92341e-24)
(0.00520095 -0.000168465 6.54022e-24)
(0.0052047 -0.000232172 -2.60611e-24)
(0.00650138 2.38318e-05 3.70724e-26)
(0.00644909 1.37647e-05 1.31811e-25)
(0.00642421 6.14784e-06 -6.96813e-25)
(0.00641616 -7.63595e-08 -4.41281e-25)
(0.00641862 -5.39855e-06 1.17062e-24)
(0.00642772 -1.11519e-05 4.31137e-25)
(0.00644263 -1.77716e-05 -3.42231e-24)
(0.00646137 -2.56319e-05 8.22589e-24)
(0.00648348 -3.57751e-05 -1.07843e-23)
(0.00650829 -4.9454e-05 2.57491e-24)
(0.00653483 -6.83776e-05 7.99062e-24)
(0.0065611 -9.47297e-05 -1.11605e-23)
(0.00658352 -0.000130275 5.6051e-24)
(0.00659661 -0.000174426 5.72322e-24)
(0.00659593 -0.000221 -4.35485e-24)
(0.00804682 3.57883e-05 3.05516e-26)
(0.00798957 2.10238e-05 -1.80077e-25)
(0.00796182 9.94146e-06 6.44495e-25)
(0.00795183 9.62895e-07 -8.95542e-25)
(0.00795342 -6.87311e-06 -3.07207e-24)
(0.00796228 -1.49342e-05 5.24435e-24)
(0.00797663 -2.39199e-05 -3.22595e-24)
(0.00799463 -3.43178e-05 1.10976e-23)
(0.00801534 -4.71315e-05 -7.54544e-24)
(0.00803761 -6.34008e-05 -3.56538e-24)
(0.00805998 -8.41822e-05 -7.08037e-24)
(0.0080803 -0.000110296 6.51629e-24)
(0.00809578 -0.00014164 1.83755e-24)
(0.00810325 -0.000176402 1.5583e-24)
(0.00810149 -0.000210478 -1.37118e-24)
(0.00968448 4.99887e-05 -4.35531e-26)
(0.00962823 2.97731e-05 5.92355e-25)
(0.00960104 1.46743e-05 -1.38001e-24)
(0.00959131 2.42629e-06 -1.13835e-24)
(0.00959291 -8.19503e-06 4.12506e-25)
(0.00960177 -1.88013e-05 8.30923e-25)
(0.0096155 -3.0235e-05 3.0598e-24)
(0.00963225 -4.30623e-05 -8.42089e-24)
(0.00965079 -5.81164e-05 -4.57032e-24)
(0.00966975 -7.60983e-05 1.24667e-23)
(0.00968758 -9.74277e-05 -3.89137e-24)
(0.00970247 -0.000122011 1.33049e-23)
(0.00971274 -0.000148944 -7.0146e-24)
(0.00971682 -0.000176429 -2.21457e-24)
(0.00971505 -0.000201997 1.30767e-24)
(0.0113899 6.49301e-05 -5.59827e-27)
(0.0113433 3.89812e-05 3.24316e-25)
(0.0113221 1.95798e-05 -4.62369e-25)
(0.0113163 3.87018e-06 1.11564e-24)
(0.0113202 -9.76806e-06 -6.69317e-24)
(0.0113303 -2.29611e-05 7.08283e-24)
(0.0113442 -3.67199e-05 -1.13136e-23)
(0.0113601 -5.16399e-05 6.93471e-24)
(0.0113766 -6.83213e-05 5.21003e-24)
(0.0113926 -8.7113e-05 1.139e-23)
(0.0114066 -0.000107973 -1.48934e-23)
(0.0114174 -0.000130378 -2.73455e-24)
(0.0114243 -0.000153307 1.30532e-24)
(0.0114265 -0.000175424 8.98696e-24)
(0.0114251 -0.000195338 -3.63743e-24)
(0.0131348 7.77348e-05 2.85817e-26)
(0.0131076 4.65272e-05 -1.31277e-25)
(0.0130991 2.3008e-05 6.02899e-25)
(0.0131017 3.9548e-06 -2.128e-24)
(0.0131113 -1.25752e-05 3.24165e-24)
(0.0131249 -2.8186e-05 -4.21988e-24)
(0.0131406 -4.39404e-05 7.11113e-24)
(0.0131569 -6.0428e-05 1.2763e-24)
(0.0131727 -7.80309e-05 -9.88912e-24)
(0.0131869 -9.68288e-05 1.41196e-23)
(0.0131986 -0.000116544 -1.55806e-23)
(0.0132072 -0.000136576 -4.5377e-24)
(0.0132124 -0.000156097 8.06446e-24)
(0.0132142 -0.000174264 2.36329e-24)
(0.0132135 -0.000190347 -1.02726e-24)
(0.0148979 8.44631e-05 9.28903e-26)
(0.0148972 4.92718e-05 -9.77936e-25)
(0.0149067 2.23865e-05 -1.67858e-24)
(0.0149219 4.93475e-07 3.93671e-24)
(0.0149403 -1.84517e-05 1.79551e-24)
(0.0149599 -3.60141e-05 -1.12888e-23)
(0.0149794 -5.32201e-05 3.45723e-24)
(0.0149979 -7.06106e-05 2.51217e-24)
(0.0150145 -8.84121e-05 -1.09692e-23)
(0.0150287 -0.000106562 1.14436e-23)
(0.01504 -0.000124735 -9.07937e-24)
(0.0150482 -0.000142442 2.33845e-23)
(0.0150536 -0.000159125 -1.11622e-23)
(0.0150561 -0.000174317 6.52686e-24)
(0.0150569 -0.000187674 -1.76871e-24)
(0.0166801 8.1846e-05 -6.72514e-27)
(0.0167051 4.42166e-05 6.0007e-25)
(0.0167328 1.50036e-05 -1.28683e-24)
(0.0167614 -8.9178e-06 -6.97091e-25)
(0.0167895 -2.95667e-05 7.71365e-24)
(0.016816 -4.84081e-05 -1.08088e-24)
(0.0168404 -6.63777e-05 -1.38924e-23)
(0.0168621 -8.39549e-05 1.62673e-23)
(0.0168809 -0.00010129 -3.66429e-24)
(0.0168965 -0.000118296 -1.26568e-23)
(0.0169089 -0.000134717 1.34626e-23)
(0.0169183 -0.000150233 7.13917e-24)
(0.0169251 -0.000164528 -6.14337e-24)
(0.0169293 -0.000177384 -1.03942e-23)
(0.0169321 -0.000188673 8.64193e-25)
(0.0185079 6.99628e-05 -3.03573e-26)
(0.0185482 3.07644e-05 -5.95796e-25)
(0.0185876 -2.99753e-08 3.29617e-24)
(0.018625 -2.52844e-05 3.30231e-25)
(0.0186597 -4.69825e-05 2.10847e-24)
(0.0186911 -6.64669e-05 -7.31603e-24)
(0.0187189 -8.45733e-05 6.34149e-24)
(0.0187431 -0.000101742 1.46043e-24)
(0.0187638 -0.000118122 1.30652e-23)
(0.0187808 -0.000133685 -2.02341e-23)
(0.0187947 -0.000148292 -9.09626e-24)
(0.0188056 -0.000161791 -5.90795e-24)
(0.0188141 -0.000174042 1.12272e-23)
(0.0188202 -0.00018498 -3.07907e-25)
(0.0188251 -0.000194595 1.06651e-24)
(0.0204091 5.2859e-05 -2.98115e-26)
(0.0204515 1.18746e-05 4.88195e-25)
(0.0204924 -2.02716e-05 -7.32689e-25)
(0.0205307 -4.66096e-05 -1.90024e-26)
(0.0205659 -6.90485e-05 1.39235e-24)
(0.0205974 -8.88284e-05 3.65614e-24)
(0.0206251 -0.000106727 -1.41783e-23)
(0.0206491 -0.000123191 1.17291e-24)
(0.0206695 -0.000138429 7.26964e-24)
(0.0206865 -0.000152508 -3.32506e-24)
(0.0207006 -0.000165422 9.09617e-24)
(0.020712 -0.000177148 6.2646e-24)
(0.0207213 -0.000187673 -1.14135e-23)
(0.0207285 -0.000197021 7.67063e-24)
(0.0207347 -0.000205245 -6.36809e-24)
(0.022375 3.51311e-05 -7.22962e-25)
(0.0224115 -7.66598e-06 8.56966e-25)
(0.0224468 -4.12959e-05 6.94904e-25)
(0.0224798 -6.87331e-05 -5.34838e-24)
(0.0225101 -9.18387e-05 4.85142e-24)
(0.0225373 -0.000111816 -3.96815e-24)
(0.0225612 -0.000129438 2.80251e-24)
(0.0225819 -0.000145194 -2.0718e-23)
(0.0225997 -0.000159377 2.9908e-23)
(0.0226145 -0.000172162 -1.76427e-23)
(0.022627 -0.000183656 1.57547e-23)
(0.0226373 -0.000193936 1.30025e-23)
(0.0226459 -0.000203073 -2.27015e-23)
(0.0226527 -0.000211144 7.33772e-24)
(0.0226587 -0.000218234 -3.05063e-25)
(0.0243429 1.84459e-05 -2.40859e-26)
(0.0243725 -2.53772e-05 9.39742e-25)
(0.0244006 -6.01359e-05 -1.05601e-24)
(0.0244266 -8.84302e-05 -1.35726e-25)
(0.0244504 -0.000112016 1.74537e-24)
(0.0244716 -0.000132069 -3.17607e-24)
(0.0244903 -0.00014938 3.16367e-24)
(0.0245064 -0.000164495 -1.0427e-23)
(0.0245201 -0.000177786 2.39967e-23)
(0.0245317 -0.000189518 -3.09351e-23)
(0.0245415 -0.00019988 2.54002e-23)
(0.0245495 -0.000209021 -8.58416e-24)
(0.0245563 -0.000217064 4.30652e-25)
(0.0245617 -0.000224122 1.90651e-24)
(0.0245665 -0.000230291 -3.6942e-24)
(0.02621 2.50246e-06 -1.9614e-24)
(0.0262349 -4.14157e-05 4.78187e-24)
(0.0262574 -7.64738e-05 -3.08137e-24)
(0.0262776 -0.000105023 1.7584e-25)
(0.0262957 -0.000128656 1.37552e-24)
(0.0263117 -0.000148493 -1.82514e-24)
(0.0263256 -0.000165338 -2.42371e-24)
(0.0263374 -0.00017978 -6.32306e-24)
(0.0263475 -0.000192248 2.8561e-24)
(0.0263559 -0.000203066 1.55973e-23)
(0.0263629 -0.000212474 -8.33236e-24)
(0.0263686 -0.000220663 5.03409e-24)
(0.0263734 -0.000227787 -2.08068e-24)
(0.0263771 -0.000233975 -6.12248e-24)
(0.0263804 -0.000239335 3.12746e-24)
(0.0278493 -1.38087e-05 6.4703e-25)
(0.0278711 -5.66562e-05 -1.25572e-24)
(0.0278898 -9.11959e-05 -2.38116e-24)
(0.0279059 -0.000119338 5.40892e-24)
(0.02792 -0.000142504 -1.56307e-24)
(0.0279322 -0.000161766 -3.4043e-25)
(0.0279426 -0.000177925 -8.51169e-25)
(0.0279514 -0.00019159 -1.58079e-24)
(0.0279587 -0.000203215 1.24322e-24)
(0.0279647 -0.000213149 -2.05241e-24)
(0.0279696 -0.000221661 4.68865e-24)
(0.0279735 -0.000228961 2.57755e-24)
(0.0279767 -0.000235217 -9.53449e-24)
(0.027979 -0.000240568 6.65678e-24)
(0.027981 -0.000245119 -1.36824e-24)
(0.029105 -3.13438e-05 1.93939e-24)
(0.0291247 -7.20233e-05 4.21575e-24)
(0.0291409 -0.000105177 -8.98247e-24)
(0.0291542 -0.000132243 -3.35964e-24)
(0.0291654 -0.000154455 6.46146e-24)
(0.0291746 -0.000172798 2.39429e-24)
(0.0291823 -0.000188053 -7.43259e-25)
(0.0291884 -0.000200814 -2.84487e-24)
(0.0291933 -0.00021153 1.23227e-24)
(0.029197 -0.000220551 -3.62625e-24)
(0.0291998 -0.000228148 2.83695e-24)
(0.0292017 -0.000234536 -2.4521e-25)
(0.029203 -0.000239883 -2.65007e-25)
(0.0292036 -0.000244327 3.77839e-25)
(0.0292038 -0.000247974 -1.80487e-25)
(0.0297744 -4.90632e-05 -5.199e-24)
(0.029789 -8.61009e-05 -1.27673e-23)
(0.0297995 -0.000116511 4.63975e-24)
(0.029807 -0.000141392 2.68944e-23)
(0.0298125 -0.000161772 -8.06969e-24)
(0.0298162 -0.00017853 -5.13997e-24)
(0.0298187 -0.000192368 3.33895e-24)
(0.0298202 -0.000203832 7.95028e-24)
(0.0298207 -0.000213339 -1.39637e-23)
(0.0298204 -0.000221218 5.06837e-24)
(0.0298195 -0.000227719 1.34079e-25)
(0.029818 -0.000233046 8.08674e-25)
(0.029816 -0.000237353 -4.55861e-25)
(0.0298137 -0.000240768 1.06312e-24)
(0.029811 -0.000243388 -6.07361e-25)
(0.0296177 -6.69864e-05 8.38822e-24)
(0.0296297 -9.91803e-05 -1.97654e-23)
(0.0296379 -0.000125607 2.7951e-24)
(0.0296434 -0.000147227 3.28895e-23)
(0.0296468 -0.000164929 -3.35041e-23)
(0.0296486 -0.00017945 1.33657e-23)
(0.0296491 -0.000191373 1.36675e-23)
(0.0296486 -0.000201161 -3.20827e-23)
(0.0296472 -0.000209171 1.16576e-26)
(0.0296451 -0.000215684 1.11808e-23)
(0.0296424 -0.000220913 3.20206e-24)
(0.0296391 -0.000225032 -2.08362e-24)
(0.0296354 -0.00022817 1.65089e-24)
(0.0296314 -0.000230442 -4.78441e-25)
(0.0296269 -0.000231931 1.18074e-25)
(0.0286597 -7.89036e-05 5.26714e-24)
(0.0286657 -0.000106413 -1.12508e-23)
(0.0286687 -0.000129099 -8.29074e-24)
(0.0286696 -0.000147729 3.89626e-23)
(0.0286688 -0.00016302 -3.68514e-23)
(0.0286668 -0.000175556 3.54662e-24)
(0.0286638 -0.000185805 6.55583e-24)
(0.02866 -0.000194142 4.08526e-24)
(0.0286555 -0.000200859 4.36425e-24)
(0.0286504 -0.000206186 -2.32253e-23)
(0.0286448 -0.0002103 1.46191e-23)
(0.0286388 -0.000213342 3.57838e-25)
(0.0286324 -0.000215426 6.79938e-24)
(0.0286258 -0.000216649 -3.11408e-24)
(0.0286188 -0.000217086 -5.68927e-25)
(0.0271459 -8.43386e-05 1.31966e-23)
(0.0271487 -0.000107734 -2.3559e-23)
(0.0271485 -0.000127126 4.77293e-24)
(0.0271462 -0.000143113 -1.20377e-23)
(0.0271422 -0.000156254 -1.62258e-23)
(0.0271369 -0.000167008 5.40566e-23)
(0.0271307 -0.000175742 -2.14292e-23)
(0.0271238 -0.000182756 6.30524e-24)
(0.0271162 -0.000188285 -3.60676e-24)
(0.027108 -0.000192515 -9.88334e-24)
(0.0270994 -0.000195591 1.89842e-23)
(0.0270905 -0.000197633 -1.09796e-23)
(0.0270812 -0.000198739 1.3832e-24)
(0.0270717 -0.000198994 1.72784e-24)
(0.0270619 -0.000198462 -1.92068e-25)
(0.0252909 -8.69671e-05 5.10593e-24)
(0.0252895 -0.000106269 -2.65236e-23)
(0.0252853 -0.000122317 4.62388e-23)
(0.0252791 -0.000135578 -3.54978e-23)
(0.0252713 -0.000146481 3.59153e-23)
(0.0252623 -0.000155373 -1.17705e-23)
(0.0252523 -0.000162538 -8.2405e-24)
(0.0252417 -0.000168206 -9.28192e-24)
(0.0252305 -0.000172556 1.68794e-23)
(0.0252189 -0.000175728 -2.32976e-25)
(0.0252068 -0.000177832 -1.65777e-23)
(0.0251946 -0.000178968 -2.24559e-24)
(0.025182 -0.000179215 3.96782e-24)
(0.0251693 -0.000178648 -8.65177e-25)
(0.0251563 -0.000177325 1.84793e-25)
(0.0232409 -8.48223e-05 6.81221e-25)
(0.0232344 -0.000100435 -9.97567e-24)
(0.0232253 -0.000113469 -5.6121e-24)
(0.0232144 -0.000124255 4.57614e-23)
(0.0232022 -0.00013311 -4.50898e-23)
(0.023189 -0.000140293 1.32023e-23)
(0.0231749 -0.000146026 2.24185e-24)
(0.0231603 -0.000150478 -1.18572e-24)
(0.0231453 -0.000153778 -5.64914e-24)
(0.0231299 -0.000156031 2.46819e-23)
(0.0231142 -0.000157325 -1.97346e-23)
(0.0230984 -0.000157737 -9.21222e-25)
(0.0230825 -0.000157335 1.72119e-24)
(0.0230665 -0.000156179 1.46054e-24)
(0.0230504 -0.000154318 -1.13577e-24)
(0.0210982 -7.8233e-05 1.01498e-24)
(0.0210864 -9.06734e-05 9.25871e-24)
(0.0210724 -0.000101101 -1.06267e-23)
(0.0210571 -0.000109749 -7.34913e-24)
(0.0210407 -0.000116845 4.67738e-23)
(0.0210235 -0.000122578 -3.5773e-23)
(0.0210057 -0.000127104 -8.09362e-25)
(0.0209875 -0.000130545 -7.41028e-24)
(0.0209691 -0.000132999 -5.96816e-25)
(0.0209504 -0.000134546 1.06479e-24)
(0.0209317 -0.000135258 -4.01637e-24)
(0.020913 -0.000135195 3.26821e-24)
(0.0208943 -0.000134407 1.13905e-24)
(0.0208758 -0.000132939 1.0202e-24)
(0.0208573 -0.000130829 1.13986e-24)
(0.0189396 -6.84095e-05 7.23644e-24)
(0.0189237 -7.82468e-05 -1.10913e-23)
(0.0189061 -8.65269e-05 -8.86841e-24)
(0.0188875 -9.34283e-05 2.70479e-23)
(0.018868 -9.91153e-05 -9.68767e-24)
(0.018848 -0.000103716 -1.35768e-23)
(0.0188277 -0.000107333 4.74921e-24)
(0.0188071 -0.00011005 1.05895e-23)
(0.0187864 -0.00011194 -1.68426e-23)
(0.0187657 -0.000113062 1.66812e-23)
(0.018745 -0.000113468 -8.89903e-24)
(0.0187246 -0.0001132 3.80535e-24)
(0.0187043 -0.000112296 -4.95364e-24)
(0.0186844 -0.000110794 4.89916e-24)
(0.0186648 -0.000108726 -1.17257e-24)
(0.0168253 -5.71165e-05 -1.40455e-24)
(0.0168071 -6.48925e-05 -4.85913e-24)
(0.0167876 -7.14892e-05 -1.54376e-23)
(0.0167674 -7.70532e-05 4.31011e-23)
(0.0167465 -8.16841e-05 -7.75106e-24)
(0.0167252 -8.5455e-05 -1.21006e-23)
(0.0167036 -8.84305e-05 4.16513e-24)
(0.016682 -9.06697e-05 -6.04556e-24)
(0.0166603 -9.22235e-05 -1.30171e-23)
(0.0166388 -9.31344e-05 1.2537e-23)
(0.0166174 -9.34378e-05 5.98242e-25)
(0.0165964 -9.31672e-05 -4.01025e-24)
(0.0165757 -9.23522e-05 4.57322e-24)
(0.0165554 -9.1023e-05 2.79565e-25)
(0.0165356 -8.92052e-05 -3.53241e-25)
(0.014799 -4.59538e-05 5.405e-24)
(0.0147803 -5.21249e-05 7.91313e-24)
(0.0147605 -5.74218e-05 -7.41426e-24)
(0.01474 -6.19576e-05 -1.60719e-23)
(0.014719 -6.57777e-05 2.15663e-23)
(0.0146976 -6.89216e-05 -2.35428e-23)
(0.014676 -7.14316e-05 -8.82427e-25)
(0.0146543 -7.33478e-05 9.09339e-24)
(0.0146327 -7.47042e-05 3.15774e-24)
(0.0146112 -7.55292e-05 -6.52129e-24)
(0.0145899 -7.58485e-05 -8.13148e-27)
(0.014569 -7.5687e-05 1.33768e-23)
(0.0145485 -7.50667e-05 -5.11035e-24)
(0.0145284 -7.40102e-05 -1.30306e-24)
(0.0145089 -7.25355e-05 -8.20926e-26)
(0.0128879 -3.58979e-05 -5.61515e-24)
(0.0128698 -4.07874e-05 7.22482e-24)
(0.0128508 -4.50452e-05 8.04127e-25)
(0.0128311 -4.87515e-05 1.44934e-23)
(0.0128107 -5.19134e-05 -1.18382e-23)
(0.01279 -5.45508e-05 9.2201e-25)
(0.012769 -5.66906e-05 -1.27365e-24)
(0.0127479 -5.83579e-05 -3.68962e-24)
(0.0127268 -5.9574e-05 3.21048e-24)
(0.0127057 -6.03579e-05 -1.0377e-23)
(0.0126849 -6.07279e-05 7.09388e-25)
(0.0126644 -6.07017e-05 2.46294e-24)
(0.0126442 -6.02946e-05 1.54333e-24)
(0.0126246 -5.95225e-05 6.08468e-25)
(0.0126055 -5.83975e-05 2.25176e-25)
(0.0111053 -2.73172e-05 4.16043e-24)
(0.0110886 -3.11493e-05 -3.29462e-24)
(0.0110709 -3.45469e-05 -1.43921e-23)
(0.0110523 -3.75502e-05 1.3512e-23)
(0.0110331 -4.01424e-05 1.87652e-23)
(0.0110133 -4.23339e-05 -4.79645e-24)
(0.0109932 -4.41412e-05 -9.68629e-24)
(0.0109729 -4.55789e-05 -1.35304e-23)
(0.0109525 -4.666e-05 1.01986e-23)
(0.0109322 -4.73968e-05 5.98814e-25)
(0.0109119 -4.78022e-05 -2.29353e-24)
(0.0108919 -4.7888e-05 -6.29798e-25)
(0.0108722 -4.76642e-05 1.29389e-24)
(0.0108529 -4.71413e-05 -3.88428e-26)
(0.0108342 -4.63264e-05 -2.5887e-25)
(0.0094548 -2.02278e-05 -2.61966e-24)
(0.00943962 -2.31746e-05 -1.85427e-24)
(0.00942342 -2.58404e-05 2.2741e-24)
(0.00940628 -2.82238e-05 -7.14647e-24)
(0.00938837 -3.03008e-05 2.34408e-23)
(0.00936985 -3.20786e-05 -3.101e-23)
(0.00935086 -3.35666e-05 3.03676e-23)
(0.00933154 -3.47725e-05 -1.28503e-23)
(0.00931202 -3.5704e-05 2.91942e-24)
(0.00929241 -3.6369e-05 4.69878e-26)
(0.00927283 -3.6776e-05 -2.27754e-24)
(0.00925339 -3.69323e-05 7.88461e-25)
(0.0092342 -3.68438e-05 -1.75914e-24)
(0.00921537 -3.65166e-05 -2.38665e-25)
(0.00919698 -3.59545e-05 1.21597e-25)
(0.00793402 -1.45033e-05 -1.27375e-24)
(0.00792055 -1.67094e-05 3.29017e-25)
(0.007906 -1.87438e-05 7.08631e-25)
(0.00789043 -2.05746e-05 -3.26688e-24)
(0.007874 -2.21828e-05 -1.46105e-24)
(0.00785687 -2.35745e-05 1.27132e-23)
(0.00783918 -2.47546e-05 -7.46836e-24)
(0.00782106 -2.57264e-05 1.06622e-24)
(0.00780263 -2.64944e-05 -1.03249e-24)
(0.00778402 -2.70632e-05 -1.1146e-24)
(0.00776534 -2.74381e-05 -3.28318e-25)
(0.00774671 -2.7623e-05 2.13067e-24)
(0.00772824 -2.76213e-05 5.61397e-25)
(0.00771004 -2.74356e-05 -1.28317e-24)
(0.0076922 -2.70678e-05 -2.03057e-25)
(0.00653769 -9.98378e-06 -4.63587e-25)
(0.00652601 -1.15777e-05 -1.51787e-25)
(0.00651321 -1.30695e-05 -7.43276e-24)
(0.00649936 -1.4415e-05 1.98488e-24)
(0.00648462 -1.56053e-05 -5.30569e-24)
(0.00646911 -1.66455e-05 3.74342e-24)
(0.00645297 -1.75374e-05 7.03903e-24)
(0.00643634 -1.82823e-05 5.25941e-24)
(0.00641932 -1.88822e-05 -7.37166e-24)
(0.00640204 -1.93398e-05 2.22018e-24)
(0.00638461 -1.9658e-05 1.89592e-24)
(0.00636714 -1.98385e-05 -2.73151e-24)
(0.00634975 -1.98829e-05 1.45554e-24)
(0.00633255 -1.97917e-05 -1.18864e-25)
(0.00631562 -1.95657e-05 3.81473e-25)
(0.00525913 -6.51386e-06 -1.81753e-24)
(0.00524931 -7.61176e-06 -2.4792e-24)
(0.00523837 -8.64688e-06 -4.38319e-25)
(0.00522641 -9.57973e-06 6.15905e-24)
(0.00521356 -1.04107e-05 -4.34221e-24)
(0.00519994 -1.11433e-05 -8.3295e-25)
(0.00518567 -1.17778e-05 6.96251e-24)
(0.00517087 -1.23143e-05 1.36757e-26)
(0.00515564 -1.27536e-05 -1.40732e-24)
(0.0051401 -1.30968e-05 -5.14347e-24)
(0.00512435 -1.33453e-05 5.63832e-25)
(0.0051085 -1.34996e-05 3.54612e-24)
(0.00509265 -1.35602e-05 -4.56623e-25)
(0.00507691 -1.35267e-05 -5.03726e-25)
(0.00506137 -1.33986e-05 3.35613e-25)
(0.00409117 -3.94767e-06 -3.97712e-25)
(0.00408324 -4.65588e-06 2.45705e-26)
(0.00407426 -5.32096e-06 2.96084e-24)
(0.00406435 -5.91889e-06 1.96797e-24)
(0.0040536 -6.45515e-06 -1.37058e-24)
(0.00404214 -6.93191e-06 -3.35759e-24)
(0.00403004 -7.34874e-06 1.35253e-24)
(0.00401743 -7.70514e-06 -5.67189e-24)
(0.00400438 -8.00116e-06 4.36645e-24)
(0.00399101 -8.23703e-06 2.23681e-24)
(0.0039774 -8.41326e-06 -7.47963e-27)
(0.00396364 -8.52977e-06 -2.44653e-24)
(0.00394983 -8.58656e-06 4.46862e-25)
(0.00393607 -8.58271e-06 -3.43789e-25)
(0.00392243 -8.51732e-06 1.72882e-25)
(0.00302656 -2.14555e-06 -7.33307e-25)
(0.0030205 -2.56422e-06 1.70176e-26)
(0.00301355 -2.94834e-06 2.37859e-24)
(0.0030058 -3.292e-06 -1.48619e-24)
(0.00299734 -3.60177e-06 6.07631e-24)
(0.00298824 -3.87884e-06 -1.1057e-23)
(0.0029786 -4.12269e-06 8.97957e-24)
(0.00296848 -4.33281e-06 -7.4715e-24)
(0.00295797 -4.50898e-06 5.35417e-24)
(0.00294715 -4.6511e-06 -3.42807e-24)
(0.00293609 -4.75931e-06 1.17762e-24)
(0.00292487 -4.83337e-06 1.70784e-25)
(0.00291357 -4.87322e-06 2.7543e-25)
(0.00290226 -4.87809e-06 -3.41351e-25)
(0.00289103 -4.84696e-06 7.15136e-26)
(0.00205814 -9.71706e-07 1.11446e-24)
(0.00205392 -1.18925e-06 1.1979e-24)
(0.002049 -1.37856e-06 -5.12621e-24)
(0.00204348 -1.54591e-06 3.74116e-24)
(0.0020374 -1.69601e-06 -3.94438e-26)
(0.00203083 -1.82955e-06 9.51865e-25)
(0.00202383 -1.94647e-06 -1.16962e-24)
(0.00201645 -2.04674e-06 -2.42878e-24)
(0.00200875 -2.13045e-06 2.40626e-24)
(0.00200079 -2.19774e-06 2.50086e-25)
(0.00199262 -2.24888e-06 -1.91527e-24)
(0.0019843 -2.2839e-06 6.85548e-25)
(0.0019759 -2.30297e-06 4.11236e-25)
(0.00196746 -2.30535e-06 -4.77744e-26)
(0.00195905 -2.28943e-06 -4.81233e-26)
(0.00117899 -2.91612e-07 -1.12648e-24)
(0.00117651 -3.53558e-07 3.43798e-24)
(0.00117359 -4.06658e-07 2.03485e-24)
(0.00117028 -4.55776e-07 -3.67846e-24)
(0.00116662 -5.01152e-07 -4.30183e-25)
(0.00116265 -5.42509e-07 -3.80577e-25)
(0.00115839 -5.7987e-07 1.15474e-24)
(0.00115389 -6.13407e-07 -1.94463e-24)
(0.00114917 -6.43384e-07 2.63658e-24)
(0.00114428 -6.70053e-07 -1.28954e-24)
(0.00113924 -6.9371e-07 -8.3552e-25)
(0.00113409 -7.14486e-07 5.04926e-25)
(0.00112887 -7.32565e-07 -6.04993e-25)
(0.00112362 -7.45758e-07 6.09123e-25)
(0.00111837 -7.499e-07 -1.04332e-25)
(0.000382465 1.59695e-08 -8.08964e-27)
(0.000381578 1.07759e-07 6.71502e-25)
(0.000380542 1.73142e-07 7.64212e-25)
(0.000379378 2.14399e-07 -1.20236e-24)
(0.000378096 2.35605e-07 2.47624e-24)
(0.000376705 2.40041e-07 -2.68651e-24)
(0.000375214 2.30439e-07 1.74971e-25)
(0.000373636 2.09192e-07 1.46464e-24)
(0.00037198 1.78433e-07 -2.02453e-24)
(0.000370257 1.40096e-07 -3.63826e-25)
(0.000368481 9.58933e-08 1.3898e-24)
(0.000366662 4.74039e-08 -6.12537e-25)
(0.000364812 -3.98501e-09 -2.28848e-25)
(0.000362946 -5.5506e-08 1.91795e-25)
(0.000361074 -1.03364e-07 -8.67107e-27)
(0.000939537 -0.000230086 6.17439e-26)
(0.00108052 -0.000136342 1.44866e-24)
(0.00131868 -4.34347e-05 -3.97355e-24)
(0.00156348 2.99804e-05 5.39733e-24)
(0.00180044 8.58523e-05 -2.01782e-24)
(0.00203411 0.000124928 -1.68798e-24)
(0.00226399 0.000149732 1.81068e-24)
(0.00249017 0.000162411 -3.3333e-24)
(0.00271292 0.000164807 3.07977e-25)
(0.0029325 0.000158557 1.9658e-24)
(0.00314919 0.000145118 -3.51038e-25)
(0.00336333 0.000125788 3.6033e-25)
(0.00357528 0.000101745 -4.39484e-26)
(0.00378542 7.41601e-05 1.71997e-25)
(0.00399425 4.43265e-05 -6.13027e-25)
(0.00420235 1.38883e-05 3.15334e-25)
(0.004411 -1.49996e-05 -4.72071e-26)
(0.00462191 -3.94735e-05 3.0577e-26)
(0.0048387 -5.63036e-05 -1.33519e-26)
(0.00506586 -6.18565e-05 2.4707e-26)
(0.00531049 -5.43246e-05 -8.77922e-27)
(0.00557851 -3.42966e-05 7.77489e-27)
(0.00585053 -1.06041e-05 -8.21263e-27)
(0.00609282 4.62717e-06 -5.51306e-27)
(0.00629268 7.41735e-06 1.36532e-26)
(0.00644955 -2.26459e-06 -7.89631e-27)
(0.00656507 -2.3684e-05 1.33225e-26)
(0.00664179 -5.62652e-05 -2.79218e-26)
(0.0066818 -9.93001e-05 -3.226e-25)
(0.0066857 -0.000151097 7.22537e-25)
(0.006653 -0.000209512 -1.68795e-24)
(0.00658366 -0.00027097 2.44087e-24)
(0.00647722 -0.00032892 -1.07552e-24)
(0.00633314 -0.000376461 -2.42625e-24)
(0.00615199 -0.000405477 2.40886e-24)
(0.00593496 -0.000406823 1.01759e-23)
(0.00568378 -0.000370268 -3.49927e-24)
(0.00540067 -0.000283812 1.75628e-24)
(0.00508853 -0.000132215 6.90185e-25)
(0.00475147 0.000104927 -1.23127e-23)
(0.00439424 0.000450577 -1.44429e-25)
(0.00402321 0.000919938 4.76597e-24)
(0.00362535 0.00147781 1.33141e-24)
(0.00322105 0.00198206 -6.51163e-24)
(0.00299472 0.00202972 -3.07458e-25)
(0.00178167 -0.000314864 -1.74575e-24)
(0.00184257 -0.000259154 -2.209e-24)
(0.00199305 -0.000170095 4.76516e-24)
(0.00218159 -8.96248e-05 1.89924e-24)
(0.00238292 -2.32307e-05 -6.59109e-24)
(0.00259169 2.67636e-05 6.6289e-24)
(0.00280323 6.17571e-05 -2.32181e-24)
(0.00301519 8.37014e-05 1.60499e-24)
(0.00322642 9.44322e-05 -2.13623e-24)
(0.0034363 9.56445e-05 3.39029e-26)
(0.00364457 8.88775e-05 -9.82604e-25)
(0.00385114 7.55125e-05 1.91904e-24)
(0.00405608 5.68064e-05 -1.01059e-24)
(0.00425948 3.40017e-05 -7.52178e-25)
(0.00446161 8.44738e-06 -3.08237e-25)
(0.00466278 -1.819e-05 8.90484e-25)
(0.00486396 -4.37589e-05 1.0674e-26)
(0.00506644 -6.54562e-05 1.6067e-25)
(0.00527339 -8.0133e-05 -5.8285e-26)
(0.00548865 -8.42345e-05 6.43951e-27)
(0.00571879 -7.59314e-05 2.28343e-26)
(0.00596941 -5.55248e-05 1.47824e-26)
(0.00622319 -3.13178e-05 -5.02597e-26)
(0.00644977 -1.48519e-05 -1.51264e-28)
(0.0066376 -9.94221e-06 4.05522e-26)
(0.00678602 -1.6716e-05 -5.97133e-27)
(0.0068962 -3.451e-05 -1.33933e-26)
(0.00697015 -6.27198e-05 9.87698e-26)
(0.00700963 -0.000100476 -3.79013e-26)
(0.0070149 -0.000145815 2.60509e-25)
(0.00698554 -0.000196465 -2.7593e-24)
(0.00692163 -0.000248881 5.66298e-24)
(0.0068231 -0.000296359 -5.85337e-24)
(0.00668977 -0.000332086 1.38972e-23)
(0.00652287 -0.000348105 -1.9282e-23)
(0.00632448 -0.000335438 4.92137e-24)
(0.00609768 -0.000284072 1.67034e-23)
(0.0058467 -0.000182418 -5.14424e-24)
(0.00557768 -1.61174e-05 -1.23152e-23)
(0.00530011 0.000233541 -6.83146e-24)
(0.00502889 0.000588709 1.55554e-23)
(0.00478912 0.00106405 -1.44599e-23)
(0.00460347 0.00162568 -2.68367e-24)
(0.00451967 0.00212216 8.68672e-24)
(0.00455643 0.00211379 2.48165e-24)
(0.0027821 -0.000325209 -1.93515e-26)
(0.00279395 -0.000313278 -2.60828e-24)
(0.00286183 -0.000258278 4.92861e-24)
(0.00298367 -0.000188921 3.61589e-24)
(0.00313425 -0.000123145 -6.08948e-24)
(0.00330408 -6.84168e-05 1.47274e-25)
(0.00348545 -2.65533e-05 5.1081e-25)
(0.0036734 2.9106e-06 4.99719e-24)
(0.00386498 2.11063e-05 -5.86333e-24)
(0.00405836 2.94068e-05 3.36414e-24)
(0.00425239 2.92272e-05 8.60431e-25)
(0.00444637 2.19124e-05 -5.11996e-24)
(0.00463987 8.72843e-06 1.82918e-24)
(0.0048326 -9.05414e-06 6.36175e-25)
(0.00502447 -3.00569e-05 -1.09287e-24)
(0.00521546 -5.26068e-05 1.49567e-24)
(0.00540614 -7.45813e-05 -8.24227e-25)
(0.00559736 -9.32389e-05 1.0248e-25)
(0.0057917 -0.000105524 8.57281e-26)
(0.00599234 -0.000107969 7.35604e-27)
(0.0062052 -9.87358e-05 2.50121e-27)
(0.00643541 -7.78441e-05 -3.13661e-26)
(0.00666789 -5.30774e-05 4.67324e-26)
(0.00687589 -3.53787e-05 -9.84442e-26)
(0.00704918 -2.83691e-05 6.5858e-26)
(0.00718702 -3.22408e-05 -2.05922e-26)
(0.0072901 -4.6386e-05 9.46896e-26)
(0.00735988 -7.01712e-05 -1.57732e-25)
(0.00739777 -0.000102571 7.27123e-25)
(0.00740365 -0.000141315 6.72524e-25)
(0.00737724 -0.000184074 1.42863e-24)
(0.00731868 -0.00022733 -6.55687e-24)
(0.00722833 -0.000264226 2.62314e-24)
(0.00710642 -0.000288115 7.08027e-24)
(0.00695484 -0.00029132 -1.62171e-23)
(0.00677664 -0.000265242 2.37886e-23)
(0.00657626 -0.000200469 -1.53484e-23)
(0.00635997 -8.64787e-05 1.97927e-23)
(0.00613682 8.8995e-05 -3.70328e-23)
(0.00592082 0.000340596 1.39308e-23)
(0.00573369 0.000683907 4.61872e-24)
(0.00560939 0.00112468 6.76663e-24)
(0.00558101 0.00162244 -8.39094e-24)
(0.00568309 0.00203456 2.06873e-24)
(0.0058415 0.00201419 -1.20329e-24)
(0.00392043 -0.000310746 -7.09204e-25)
(0.00390604 -0.000325596 -1.00835e-24)
(0.00392155 -0.000302753 -4.12849e-24)
(0.00397931 -0.000257341 1.41205e-24)
(0.00407419 -0.000203002 9.13042e-25)
(0.00419591 -0.00015172 2.92039e-24)
(0.004337 -0.000108486 -5.43772e-24)
(0.00449132 -7.50399e-05 2.21809e-24)
(0.00465453 -5.16003e-05 6.34308e-24)
(0.00482363 -3.75744e-05 -1.74136e-24)
(0.00499655 -3.19653e-05 -1.49071e-24)
(0.00517182 -3.3655e-05 -2.20882e-25)
(0.0053484 -4.14936e-05 6.50569e-25)
(0.00552549 -5.42638e-05 -1.18795e-24)
(0.00570259 -7.06128e-05 3.11727e-25)
(0.00587924 -8.89013e-05 -1.80702e-27)
(0.0060556 -0.000107053 -1.35694e-25)
(0.00623194 -0.000122426 2.52461e-25)
(0.00641028 -0.000132075 6.46471e-27)
(0.00659299 -0.000132643 -3.93592e-26)
(0.00678526 -0.000122303 7.7368e-26)
(0.00699166 -0.000100813 2.52154e-26)
(0.00719939 -7.54535e-05 8.56279e-26)
(0.00738563 -5.65481e-05 -5.05607e-26)
(0.00754151 -4.74869e-05 1.48876e-26)
(0.00766627 -4.84946e-05 -9.36988e-26)
(0.00776014 -5.89982e-05 1.37666e-25)
(0.007824 -7.83349e-05 -4.08466e-25)
(0.00785896 -0.000105326 8.46657e-25)
(0.0078643 -0.000137364 8.36095e-26)
(0.00784032 -0.000172206 -1.09631e-24)
(0.00778678 -0.000206309 -2.29395e-25)
(0.00770467 -0.000232736 -2.69928e-25)
(0.0075946 -0.000245134 -1.7989e-24)
(0.00745914 -0.000236274 2.91033e-24)
(0.00730228 -0.000198215 -6.94306e-24)
(0.00712967 -0.000122572 3.05594e-23)
(0.00694925 -5.55393e-07 -1.64115e-23)