/*--------------------------------*- C++ -*----------------------------------*\
| =========                 |                                                 |
| \\      /  F ield         | OpenFOAM: The Open Source CFD Toolbox           |
|  \\    /   O peration     | Version:  2312                                  |
|   \\  /    A nd           | Website:  www.openfoam.com                      |
|    \\/     M anipulation  |                                                 |
\*---------------------------------------------------------------------------*/
FoamFile
{
    version     2.0;
    format      ascii;
    arch        "LSB;label=32;scalar=64";
    class       volScalarField;
    location    "191";
    object      p;
}
// * * * * * * * * * * * * * * * * * * * * * * * * * * * * * * * * * * * * * //

dimensions      [0 2 -2 0 0 0 0];

internalField   nonuniform List<scalar> 
4800
(
1.33045e-13
-1.65404e-06
-2.99927e-06
-4.10914e-06
-5.03616e-06
-5.81945e-06
-6.48694e-06
-7.06426e-06
-7.57178e-06
-8.01928e-06
-8.41754e-06
-8.77133e-06
-9.07639e-06
-9.56238e-06
-1.11624e-05
1.97998e-08
-1.63096e-06
-2.97427e-06
-4.08335e-06
-5.01051e-06
-5.79511e-06
-6.4653e-06
-7.047e-06
-7.56086e-06
-8.01816e-06
-8.43474e-06
-8.82886e-06
-9.21652e-06
-9.70516e-06
-1.05396e-05
4.07648e-08
-1.60646e-06
-2.94778e-06
-4.05614e-06
-4.98363e-06
-5.76952e-06
-6.44211e-06
-7.02616e-06
-7.54474e-06
-8.00947e-06
-8.43665e-06
-8.84586e-06
-9.24734e-06
-9.65222e-06
-1.0042e-05
6.2126e-08
-1.58103e-06
-2.91993e-06
-4.02715e-06
-4.9545e-06
-5.74103e-06
-6.41589e-06
-7.00036e-06
-7.52029e-06
-7.98688e-06
-8.41239e-06
-8.80828e-06
-9.16916e-06
-9.46691e-06
-9.63635e-06
8.55413e-08
-1.55273e-06
-2.88856e-06
-3.99403e-06
-4.92054e-06
-5.70677e-06
-6.38186e-06
-6.96623e-06
-7.48271e-06
-7.94368e-06
-8.355e-06
-8.71835e-06
-9.0177e-06
-9.21742e-06
-9.26562e-06
1.12424e-07
-1.52006e-06
-2.85202e-06
-3.95492e-06
-4.87962e-06
-5.66421e-06
-6.33706e-06
-6.91859e-06
-7.42682e-06
-7.87335e-06
-8.25876e-06
-8.57784e-06
-8.81244e-06
-8.93531e-06
-8.92021e-06
1.44797e-07
-1.48099e-06
-2.80813e-06
-3.90738e-06
-4.82886e-06
-5.60983e-06
-6.27754e-06
-6.85132e-06
-7.34606e-06
-7.76975e-06
-8.12049e-06
-8.39088e-06
-8.56735e-06
-8.63643e-06
-8.59223e-06
1.86218e-07
-1.43201e-06
-2.75321e-06
-3.84738e-06
-4.76371e-06
-5.53837e-06
-6.19729e-06
-6.75817e-06
-7.23318e-06
-7.62768e-06
-7.93966e-06
-8.1638e-06
-8.29404e-06
-8.32909e-06
-8.27456e-06
2.42257e-07
-1.36756e-06
-2.68149e-06
-3.76876e-06
-4.6775e-06
-5.44257e-06
-6.08849e-06
-6.63139e-06
-7.08158e-06
-7.44357e-06
-7.7175e-06
-7.90254e-06
-7.9999e-06
-8.01624e-06
-7.96211e-06
3.2047e-07
-1.27983e-06
-2.58482e-06
-3.66292e-06
-4.56116e-06
-5.31302e-06
-5.94175e-06
-6.46251e-06
-6.88492e-06
-7.21479e-06
-7.45534e-06
-7.6108e-06
-7.6877e-06
-7.69681e-06
-7.64988e-06
4.29711e-07
-1.15915e-06
-2.45277e-06
-3.51886e-06
-4.40333e-06
-5.13843e-06
-5.74655e-06
-6.24278e-06
-6.63749e-06
-6.93864e-06
-7.15311e-06
-7.28903e-06
-7.3561e-06
-7.36651e-06
-7.33144e-06
5.79227e-07
-9.94672e-07
-2.27337e-06
-3.32388e-06
-4.19107e-06
-4.90632e-06
-5.4918e-06
-5.96337e-06
-6.33308e-06
-6.61139e-06
-6.80821e-06
-6.93409e-06
-7.00006e-06
-7.01815e-06
-6.99836e-06
7.78396e-07
-7.74775e-07
-2.03351e-06
-3.06407e-06
-3.9105e-06
-4.60373e-06
-5.1663e-06
-5.6154e-06
-5.96501e-06
-6.22767e-06
-6.41514e-06
-6.53913e-06
-6.61105e-06
-6.64176e-06
-6.63996e-06
1.03677e-06
-4.86904e-07
-1.71887e-06
-2.72433e-06
-3.5467e-06
-4.21689e-06
-4.75809e-06
-5.18877e-06
-5.52444e-06
-5.77894e-06
-5.96489e-06
-6.09418e-06
-6.17719e-06
-6.22431e-06
-6.24278e-06
1.36352e-06
-1.18084e-07
-1.31425e-06
-2.28849e-06
-3.08361e-06
-3.73057e-06
-4.25307e-06
-4.67034e-06
-4.99857e-06
-5.25196e-06
-5.44306e-06
-5.58321e-06
-5.68214e-06
-5.74859e-06
-5.78933e-06
1.76617e-06
3.43607e-07
-8.05132e-07
-1.74072e-06
-2.505e-06
-3.1286e-06
-3.63517e-06
-4.04382e-06
-4.3705e-06
-4.62889e-06
-4.83076e-06
-4.98648e-06
-5.10481e-06
-5.19354e-06
-5.25856e-06
2.24859e-06
9.06597e-07
-1.80187e-07
-1.06804e-06
-1.79687e-06
-2.3962e-06
-2.88863e-06
-3.29218e-06
-3.62165e-06
-3.88958e-06
-4.10662e-06
-4.28198e-06
-4.42329e-06
-4.53719e-06
-4.62881e-06
2.80862e-06
1.57246e-06
5.64847e-07
-2.64256e-07
-9.51421e-07
-1.52384e-06
-2.00204e-06
-2.40197e-06
-2.73651e-06
-3.01647e-06
-3.25113e-06
-3.44855e-06
-3.6155e-06
-3.75771e-06
-3.87936e-06
3.43653e-06
2.33254e-06
1.42259e-06
6.64624e-07
2.70301e-08
-5.13751e-07
-9.75186e-07
-1.37048e-06
-1.71e-06
-2.00237e-06
-2.25503e-06
-2.47458e-06
-2.66687e-06
-2.83724e-06
-2.98985e-06
4.11393e-06
3.16477e-06
2.36888e-06
1.69353e-06
1.11346e-06
6.09868e-07
1.691e-07
-2.18846e-07
-5.61702e-07
-8.6588e-07
-1.13692e-06
-1.37973e-06
-1.59847e-06
-1.79673e-06
-1.97813e-06
4.7801e-06
3.98984e-06
3.31185e-06
2.72247e-06
2.20315e-06
1.74016e-06
1.32378e-06
9.47083e-07
6.04789e-07
2.92482e-07
5.97448e-09
-2.58432e-07
-5.04078e-07
-7.34381e-07
-9.50998e-07
5.33904e-06
4.68364e-06
4.10665e-06
3.59201e-06
3.12686e-06
2.70186e-06
2.31051e-06
1.94817e-06
1.61117e-06
1.29636e-06
1.00092e-06
7.22161e-07
4.5776e-07
2.06038e-07
-3.67894e-08
5.77251e-06
5.21628e-06
4.71354e-06
4.25362e-06
3.82803e-06
3.4307e-06
3.0574e-06
2.705e-06
2.37092e-06
2.05286e-06
1.74858e-06
1.45596e-06
1.17269e-06
8.97018e-07
6.27715e-07
6.09361e-06
5.60905e-06
5.16008e-06
4.74017e-06
4.34395e-06
3.96764e-06
3.6084e-06
3.26398e-06
2.93238e-06
2.61178e-06
2.3005e-06
1.99707e-06
1.70037e-06
1.40956e-06
1.12371e-06
6.32658e-06
5.89317e-06
5.48328e-06
5.09299e-06
4.71893e-06
4.35864e-06
4.01009e-06
3.67154e-06
3.34144e-06
3.01845e-06
2.70141e-06
2.38937e-06
2.08142e-06
1.7766e-06
1.47398e-06
6.4918e-06
6.0948e-06
5.71326e-06
5.34473e-06
4.98693e-06
4.6382e-06
4.29703e-06
3.96208e-06
3.63218e-06
3.30635e-06
2.98371e-06
2.66349e-06
2.34485e-06
2.02731e-06
1.71062e-06
6.60588e-06
6.23492e-06
5.87387e-06
5.52105e-06
5.17485e-06
4.83411e-06
4.49769e-06
4.16455e-06
3.83379e-06
3.50467e-06
3.17653e-06
2.8488e-06
2.52103e-06
2.19291e-06
1.86428e-06
6.68266e-06
6.33053e-06
5.9843e-06
5.64276e-06
5.30476e-06
4.96947e-06
4.63597e-06
4.30346e-06
3.97125e-06
3.63881e-06
3.30564e-06
2.97135e-06
2.63577e-06
2.29868e-06
1.95968e-06
6.73323e-06
6.39499e-06
6.05964e-06
5.72628e-06
5.39415e-06
5.06259e-06
4.73083e-06
4.39826e-06
4.06435e-06
3.72874e-06
3.39105e-06
3.05104e-06
2.7085e-06
2.36352e-06
2.01561e-06
6.76615e-06
6.43844e-06
6.11125e-06
5.78401e-06
5.4562e-06
5.12721e-06
4.79645e-06
4.46341e-06
4.12772e-06
3.78912e-06
3.44736e-06
3.10233e-06
2.75371e-06
2.40178e-06
2.04624e-06
6.78772e-06
6.46826e-06
6.14739e-06
5.82488e-06
5.50032e-06
5.17317e-06
4.84291e-06
4.5092e-06
4.17175e-06
3.83037e-06
3.48496e-06
3.13551e-06
2.78155e-06
2.42363e-06
2.06152e-06
6.80236e-06
6.48956e-06
6.17377e-06
5.85505e-06
5.53301e-06
5.20718e-06
4.87716e-06
4.54268e-06
4.20355e-06
3.85965e-06
3.51093e-06
3.15753e-06
2.79892e-06
2.43581e-06
2.06799e-06
6.81298e-06
6.50572e-06
6.19414e-06
5.87854e-06
5.55854e-06
5.2337e-06
4.90375e-06
4.5685e-06
4.2278e-06
3.88161e-06
3.5299e-06
3.17253e-06
2.81024e-06
2.44264e-06
2.06983e-06
6.8214e-06
6.51888e-06
6.21087e-06
5.89792e-06
5.57958e-06
5.25553e-06
4.92556e-06
4.58954e-06
4.24741e-06
3.89915e-06
3.54481e-06
3.18432e-06
2.81832e-06
2.44673e-06
2.06953e-06
6.82867e-06
6.53026e-06
6.22537e-06
5.91468e-06
5.59775e-06
5.27433e-06
4.9443e-06
4.60757e-06
4.26412e-06
3.914e-06
3.55733e-06
3.19409e-06
2.82475e-06
2.44957e-06
2.06848e-06
6.83534e-06
6.54054e-06
6.23839e-06
5.92967e-06
5.61394e-06
5.29106e-06
4.96094e-06
4.62355e-06
4.27891e-06
3.92712e-06
3.56835e-06
3.20254e-06
2.83039e-06
2.45198e-06
2.06741e-06
6.84163e-06
6.55002e-06
6.25028e-06
5.94327e-06
5.62859e-06
5.30616e-06
4.97594e-06
4.63795e-06
4.29224e-06
3.93894e-06
3.57829e-06
3.21016e-06
2.8356e-06
2.4543e-06
2.06659e-06
6.84772e-06
6.55897e-06
6.26136e-06
5.95585e-06
5.64208e-06
5.32003e-06
4.98969e-06
4.65113e-06
4.30445e-06
3.94981e-06
3.58746e-06
3.21729e-06
2.84049e-06
2.45665e-06
2.06614e-06
6.85397e-06
6.56792e-06
6.27232e-06
5.9682e-06
5.65527e-06
5.33356e-06
5.0031e-06
4.66399e-06
4.31638e-06
3.96045e-06
3.59651e-06
3.22444e-06
2.84543e-06
2.45922e-06
2.06606e-06
6.86007e-06
6.57663e-06
6.283e-06
5.98028e-06
5.66824e-06
5.34695e-06
5.01645e-06
4.6769e-06
4.32843e-06
3.97125e-06
3.60573e-06
3.23179e-06
2.85065e-06
2.46206e-06
2.06626e-06
-1.25075e-05
-1.03057e-05
-8.94599e-06
-8.03035e-06
-7.29271e-06
-6.72295e-06
-6.27951e-06
-5.93583e-06
-5.6757e-06
-5.48736e-06
-5.36216e-06
-5.29383e-06
-5.27769e-06
-5.31089e-06
-5.39312e-06
-5.52759e-06
-5.72053e-06
-5.9844e-06
-6.33706e-06
-6.80468e-06
-7.40983e-06
-8.15911e-06
-8.92086e-06
-9.4586e-06
-9.65662e-06
-9.4715e-06
-8.89301e-06
-7.9397e-06
-6.64002e-06
-5.02449e-06
-3.12502e-06
-9.76568e-07
1.3812e-06
3.90307e-06
6.53847e-06
9.23216e-06
1.19246e-05
1.45515e-05
1.70395e-05
1.92991e-05
2.12018e-05
2.25784e-05
2.30287e-05
2.21746e-05
1.87213e-05
-1.09096e-05
-9.7685e-06
-8.73812e-06
-7.92041e-06
-7.22776e-06
-6.67402e-06
-6.23682e-06
-5.89633e-06
-5.6387e-06
-5.45303e-06
-5.33098e-06
-5.26638e-06
-5.25455e-06
-5.29256e-06
-5.38014e-06
-5.52047e-06
-5.71963e-06
-5.98976e-06
-6.34813e-06
-6.81981e-06
-7.42561e-06
-8.17041e-06
-8.92233e-06
-9.44789e-06
-9.63483e-06
-9.44077e-06
-8.85544e-06
-7.89724e-06
-6.59498e-06
-4.97985e-06
-3.08493e-06
-9.4673e-07
1.39305e-06
3.88659e-06
6.47991e-06
9.11305e-06
1.17197e-05
1.42252e-05
1.65397e-05
1.85455e-05
2.0062e-05
2.08046e-05
2.02079e-05
1.74466e-05
1.15105e-05
-1.00669e-05
-9.34684e-06
-8.52334e-06
-7.79327e-06
-7.15071e-06
-6.61915e-06
-6.19153e-06
-5.85594e-06
-5.60161e-06
-5.41902e-06
-5.30035e-06
-5.23968e-06
-5.23237e-06
-5.27546e-06
-5.36873e-06
-5.51532e-06
-5.7211e-06
-5.99788e-06
-6.36222e-06
-6.8379e-06
-7.44375e-06
-8.18264e-06
-8.92249e-06
-9.43344e-06
-9.60725e-06
-9.40306e-06
-8.81044e-06
-7.84778e-06
-6.54441e-06
-4.93247e-06
-3.04652e-06
-9.2511e-07
1.38744e-06
3.83997e-06
6.37414e-06
8.92411e-06
1.14154e-05
1.37613e-05
1.5855e-05
1.75537e-05
1.8645e-05
1.88084e-05
1.75379e-05
1.42658e-05
8.91389e-06
-9.52569e-06
-9e-06
-8.33487e-06
-7.67422e-06
-7.07956e-06
-6.57159e-06
-6.15381e-06
-5.82268e-06
-5.57082e-06
-5.39031e-06
-5.27408e-06
-5.21658e-06
-5.21322e-06
-5.261e-06
-5.35976e-06
-5.51259e-06
-5.72509e-06
-6.00866e-06
-6.37902e-06
-6.85854e-06
-7.46379e-06
-8.19535e-06
-8.92082e-06
-9.41441e-06
-9.57236e-06
-9.35556e-06
-8.75359e-06
-7.78512e-06
-6.48026e-06
-4.87252e-06
-2.99846e-06
-8.99261e-07
1.37741e-06
3.77623e-06
6.23362e-06
8.67702e-06
1.10232e-05
1.31741e-05
1.50093e-05
1.63726e-05
1.70525e-05
1.67685e-05
1.51783e-05
1.20212e-05
7.5738e-06
-9.1061e-06
-8.69512e-06
-8.15036e-06
-7.57254e-06
-7.02322e-06
-6.5382e-06
-6.12988e-06
-5.80235e-06
-5.55158e-06
-5.37156e-06
-5.25623e-06
-5.20058e-06
-5.20011e-06
-5.25179e-06
-5.35553e-06
-5.51429e-06
-5.73335e-06
-6.02356e-06
-6.39971e-06
-6.8825e-06
-7.48602e-06
-8.20823e-06
-8.91651e-06
-9.38982e-06
-9.52946e-06
-9.29826e-06
-8.68605e-06
-7.71196e-06
-6.40724e-06
-4.80709e-06
-2.95055e-06
-8.81939e-07
1.34723e-06
3.67698e-06
6.03814e-06
8.35151e-06
1.05261e-05
1.24558e-05
1.40142e-05
1.50484e-05
1.53751e-05
1.47923e-05
1.31223e-05
1.03218e-05
6.68726e-06
-8.75556e-06
-8.42479e-06
-7.97184e-06
-7.47713e-06
-6.97876e-06
-6.51841e-06
-6.12251e-06
-5.79924e-06
-5.54872e-06
-5.36763e-06
-5.25141e-06
-5.19589e-06
-5.1968e-06
-5.2511e-06
-5.35886e-06
-5.52287e-06
-5.7479e-06
-6.04422e-06
-6.42548e-06
-6.91048e-06
-7.51053e-06
-8.22071e-06
-8.90831e-06
-9.35799e-06
-9.47673e-06
-9.22958e-06
-8.60683e-06
-7.62833e-06
-6.32678e-06
-4.73948e-06
-2.90835e-06
-8.81245e-07
1.28615e-06
3.52909e-06
5.77308e-06
7.93335e-06
9.91382e-06
1.16057e-05
1.28865e-05
1.36213e-05
1.3672e-05
1.29197e-05
1.13086e-05
8.91209e-06
6.00201e-06
-8.44022e-06
-8.17197e-06
-7.8025e-06
-7.37666e-06
-6.93266e-06
-6.50802e-06
-6.13054e-06
-5.81458e-06
-5.5652e-06
-5.38247e-06
-5.26394e-06
-5.20686e-06
-5.20733e-06
-5.26258e-06
-5.37298e-06
-5.54108e-06
-5.77098e-06
-6.07237e-06
-6.45749e-06
-6.94301e-06
-7.53718e-06
-8.23185e-06
-8.89458e-06
-9.31672e-06
-9.41171e-06
-9.14714e-06
-8.51393e-06
-7.53304e-06
-6.23897e-06
-4.67146e-06
-2.87568e-06
-9.03307e-07
1.18583e-06
3.32254e-06
5.42807e-06
7.41426e-06
9.18399e-06
1.06324e-05
1.16499e-05
1.213e-05
1.19832e-05
1.11593e-05
9.67671e-06
7.65042e-06
5.30236e-06
-8.14086e-06
-7.92273e-06
-7.62353e-06
-7.26598e-06
-6.88051e-06
-6.49884e-06
-6.14767e-06
-5.84491e-06
-5.60018e-06
-5.41725e-06
-5.29633e-06
-5.2367e-06
-5.23515e-06
-5.28958e-06
-5.40104e-06
-5.57172e-06
-5.8052e-06
-6.10969e-06
-6.49677e-06
-6.9804e-06
-7.56545e-06
-8.24027e-06
-8.87309e-06
-9.26336e-06
-9.33165e-06
-9.04839e-06
-8.40549e-06
-7.42541e-06
-6.14481e-06
-4.60612e-06
-2.85803e-06
-9.55991e-07
1.03643e-06
3.04663e-06
4.99348e-06
6.78862e-06
8.33871e-06
9.54907e-06
1.033e-05
1.06065e-05
1.03319e-05
9.50343e-06
8.17589e-06
6.46657e-06
4.54578e-06
-7.84832e-06
-7.67171e-06
-7.4315e-06
-7.13859e-06
-6.8133e-06
-6.48041e-06
-6.16374e-06
-5.88205e-06
-5.64811e-06
-5.46892e-06
-5.34764e-06
-5.28605e-06
-5.28171e-06
-5.33403e-06
-5.4452e-06
-5.61683e-06
-5.85167e-06
-6.15738e-06
-6.54388e-06
-7.02241e-06
-7.59423e-06
-8.24395e-06
-8.84108e-06
-9.19483e-06
-9.23365e-06
-8.93106e-06
-8.2803e-06
-7.30596e-06
-6.04703e-06
-4.54871e-06
-2.86323e-06
-1.04941e-06
8.26479e-07
2.69015e-06
4.46073e-06
6.0535e-06
7.38356e-06
8.37125e-06
8.94941e-06
9.07263e-06
8.72618e-06
7.93473e-06
6.76495e-06
5.32038e-06
3.72834e-06
-7.55667e-06
-7.41586e-06
-7.22577e-06
-6.99113e-06
-6.72429e-06
-6.4433e-06
-6.16773e-06
-5.91516e-06
-5.69959e-06
-5.53013e-06
-5.41275e-06
-5.35183e-06
-5.34503e-06
-5.39509e-06
-5.50553e-06
-5.67675e-06
-5.9109e-06
-6.21532e-06
-6.59818e-06
-7.06773e-06
-7.62145e-06
-8.24008e-06
-8.79524e-06
-9.10786e-06
-9.1151e-06
-8.7936e-06
-8.13841e-06
-7.17701e-06
-5.95066e-06
-4.50699e-06
-2.90156e-06
-1.19565e-06
5.4349e-07
2.24229e-06
3.82325e-06
5.20894e-06
6.32665e-06
7.11409e-06
7.52582e-06
7.53992e-06
7.16266e-06
6.43098e-06
5.40992e-06
4.18464e-06
2.84957e-06
-7.25944e-06
-7.15077e-06
-7.00413e-06
-6.82126e-06
-6.60921e-06
-6.3804e-06
-6.14996e-06
-5.93303e-06
-5.74324e-06
-5.59041e-06
-5.48273e-06
-5.42667e-06
-5.41859e-06
-5.46823e-06
-5.57919e-06
-5.74922e-06
-5.98066e-06
-6.28125e-06
-6.65719e-06
-7.11344e-06
-7.64373e-06
-8.22499e-06
-8.73188e-06
-8.99948e-06
-8.97445e-06
-8.63618e-06
-7.98212e-06
-7.04374e-06
-5.86388e-06
-4.49178e-06
-2.98589e-06
-1.40847e-06
1.74694e-07
1.69352e-06
3.07691e-06
4.25766e-06
5.17719e-06
5.7904e-06
6.07015e-06
6.01108e-06
5.63074e-06
4.96872e-06
4.0823e-06
3.03891e-06
1.90858e-06
-6.9483e-06
-6.86959e-06
-6.7617e-06
-6.62507e-06
-6.46356e-06
-6.28542e-06
-6.10171e-06
-5.9249e-06
-5.76695e-06
-5.63766e-06
-5.5475e-06
-5.49805e-06
-5.49236e-06
-5.54628e-06
-5.66032e-06
-5.82885e-06
-6.05574e-06
-6.35025e-06
-6.71609e-06
-7.15473e-06
-7.65633e-06
-8.19437e-06
-8.6475e-06
-8.86784e-06
-8.81225e-06
-8.46184e-06
-7.81728e-06
-6.91543e-06
-5.79886e-06
-4.5172e-06
-3.13131e-06
-1.70243e-06
-2.9192e-07
1.03648e-06
2.22044e-06
3.20452e-06
3.94437e-06
4.40992e-06
4.58779e-06
4.48256e-06
4.11617e-06
3.52556e-06
2.75825e-06
1.86651e-06
9.02424e-07
-6.61266e-06
-6.56272e-06
-6.4904e-06
-6.39572e-06
-6.28075e-06
-6.15087e-06
-6.01389e-06
-5.87956e-06
-5.75788e-06
-5.65762e-06
-5.59083e-06
-5.55502e-06
-5.55768e-06
-5.61979e-06
-5.7373e-06
-5.90463e-06
-6.12734e-06
-6.41449e-06
-6.76771e-06
-7.18499e-06
-7.65349e-06
-8.14386e-06
-8.5398e-06
-8.71352e-06
-8.6324e-06
-8.27747e-06
-7.65457e-06
-6.80642e-06
-5.77214e-06
-4.60035e-06
-3.35441e-06
-2.0917e-06
-8.66181e-07
2.66984e-07
1.25563e-06
2.05616e-06
2.63689e-06
2.97957e-06
3.07998e-06
2.94753e-06
2.60419e-06
2.08176e-06
1.41825e-06
6.53555e-07
-1.73473e-07
-6.23924e-06
-6.21759e-06
-6.17881e-06
-6.12295e-06
-6.05116e-06
-5.9669e-06
-5.87575e-06
-5.78485e-06
-5.70229e-06
-5.63558e-06
-5.59308e-06
-5.58111e-06
-5.60389e-06
-5.67486e-06
-5.79508e-06
-5.96318e-06
-6.18425e-06
-6.46383e-06
-6.80292e-06
-7.19634e-06
-7.62908e-06
-8.06994e-06
-8.40863e-06
-8.54081e-06
-8.44321e-06
-8.09446e-06
-7.50957e-06
-6.73754e-06
-5.80313e-06
-4.75959e-06
-3.67162e-06
-2.58833e-06
-1.55432e-06
-6.15218e-07
1.87323e-07
8.2055e-07
1.26288e-06
1.50436e-06
1.54602e-06
1.39866e-06
1.08183e-06
6.21526e-07
4.72957e-08
-6.10757e-07
-1.32364e-06
-5.81086e-06
-5.81778e-06
-5.81157e-06
-5.7925e-06
-5.76138e-06
-5.72052e-06
-5.67383e-06
-5.62655e-06
-5.58487e-06
-5.55523e-06
-5.54479e-06
-5.56016e-06
-5.60624e-06
-5.69099e-06
-5.81917e-06
-5.99223e-06
-6.21366e-06
-6.48631e-06
-6.81118e-06
-7.18041e-06
-7.57759e-06
-7.97095e-06
-8.25696e-06
-8.35885e-06
-8.25658e-06
-7.9272e-06
-7.41053e-06
-6.73023e-06
-5.90813e-06
-5.01306e-06
-4.09816e-06
-3.20112e-06
-2.35833e-06
-1.60641e-06
-9.77062e-07
-4.9371e-07
-1.70403e-07
-1.20439e-08
-1.54715e-08
-1.70566e-07
-4.61106e-07
-8.66719e-07
-1.36505e-06
-1.93368e-06
-2.55099e-06
-5.30661e-06
-5.34293e-06
-5.36927e-06
-5.38608e-06
-5.39412e-06
-5.39507e-06
-5.39178e-06
-5.38813e-06
-5.38886e-06
-5.39926e-06
-5.42503e-06
-5.4719e-06
-5.54473e-06
-5.64963e-06
-5.79199e-06
-5.97443e-06
-6.19942e-06
-6.4681e-06
-6.781e-06
-7.12874e-06
-7.49464e-06
-7.84756e-06
-8.09396e-06
-8.18008e-06
-8.08495e-06
-7.81061e-06
-7.38061e-06
-6.79157e-06
-6.10781e-06
-5.38054e-06
-4.64646e-06
-3.93496e-06
-3.27656e-06
-2.7e-06
-2.2284e-06
-1.87777e-06
-1.65675e-06
-1.56751e-06
-1.60674e-06
-1.76609e-06
-2.03269e-06
-2.39133e-06
-2.8257e-06
-3.31935e-06
-3.85625e-06
-4.70511e-06
-4.77195e-06
-4.83139e-06
-4.88405e-06
-4.93063e-06
-4.97253e-06
-5.012e-06
-5.05201e-06
-5.09615e-06
-5.14849e-06
-5.2135e-06
-5.29591e-06
-5.40032e-06
-5.53164e-06
-5.69448e-06
-5.89161e-06
-6.12535e-06
-6.39543e-06
-6.70199e-06
-7.03475e-06
-7.37769e-06
-7.70326e-06
-7.93105e-06
-8.02142e-06
-7.96705e-06
-7.76373e-06
-7.41202e-06
-6.94934e-06
-6.42852e-06
-5.87814e-06
-5.32269e-06
-4.78934e-06
-4.30372e-06
-3.88726e-06
-3.55615e-06
-3.32147e-06
-3.18893e-06
-3.15921e-06
-3.22891e-06
-3.39165e-06
-3.63826e-06
-3.95795e-06
-4.33919e-06
-4.77018e-06
-5.23916e-06
-3.98709e-06
-4.08624e-06
-4.18017e-06
-4.26968e-06
-4.35527e-06
-4.43817e-06
-4.52036e-06
-4.60426e-06
-4.69262e-06
-4.78851e-06
-4.89549e-06
-5.01737e-06
-5.15808e-06
-5.3215e-06
-5.5111e-06
-5.72978e-06
-5.97904e-06
-6.2589e-06
-6.56767e-06
-6.89634e-06
-7.23213e-06
-7.54535e-06
-7.78047e-06
-7.91362e-06
-7.91666e-06
-7.78578e-06
-7.54826e-06
-7.23782e-06
-6.88275e-06
-6.50413e-06
-6.12156e-06
-5.75769e-06
-5.4321e-06
-5.15974e-06
-4.9518e-06
-4.81637e-06
-4.75817e-06
-4.77915e-06
-4.87688e-06
-5.045e-06
-5.27652e-06
-5.56472e-06
-5.90232e-06
-6.28117e-06
-6.69273e-06
-3.13167e-06
-3.26588e-06
-3.397e-06
-3.52554e-06
-3.65192e-06
-3.77741e-06
-3.90384e-06
-4.03323e-06
-4.16773e-06
-4.30969e-06
-4.4619e-06
-4.62741e-06
-4.80928e-06
-5.01067e-06
-5.23406e-06
-5.48226e-06
-5.75607e-06
-6.05554e-06
-6.3793e-06
-6.71819e-06
-7.06613e-06
-7.39688e-06
-7.66858e-06
-7.86095e-06
-7.937e-06
-7.90952e-06
-7.80643e-06
-7.65376e-06
-7.46344e-06
-7.2513e-06
-7.03447e-06
-6.82969e-06
-6.65086e-06
-6.50839e-06
-6.4103e-06
-6.36195e-06
-6.36642e-06
-6.42685e-06
-6.54937e-06
-6.72195e-06
-6.94093e-06
-7.2032e-06
-7.50423e-06
-7.83847e-06
-8.19999e-06
-2.14992e-06
-2.31869e-06
-2.48646e-06
-2.6533e-06
-2.81985e-06
-2.98761e-06
-3.15843e-06
-3.33402e-06
-3.51603e-06
-3.70628e-06
-3.90692e-06
-4.12028e-06
-4.34878e-06
-4.5948e-06
-4.86046e-06
-5.14768e-06
-5.45748e-06
-5.78976e-06
-6.14324e-06
-6.51334e-06
-6.89276e-06
-7.27302e-06
-7.6126e-06
-7.86379e-06
-8.03407e-06
-8.1355e-06
-8.18018e-06
-8.18154e-06
-8.15e-06
-8.09712e-06
-8.03522e-06
-7.97594e-06
-7.92923e-06
-7.90359e-06
-7.90531e-06
-7.93919e-06
-8.00868e-06
-8.11282e-06
-8.24428e-06
-8.41366e-06
-8.62012e-06
-8.86e-06
-9.12911e-06
-9.42357e-06
-9.73976e-06
-1.15798e-06
-1.3617e-06
-1.56607e-06
-1.77265e-06
-1.98132e-06
-2.19274e-06
-2.40849e-06
-2.63022e-06
-2.85945e-06
-3.09768e-06
-3.34659e-06
-3.60803e-06
-3.88389e-06
-4.17612e-06
-4.48646e-06
-4.81645e-06
-5.16714e-06
-5.53872e-06
-5.93098e-06
-6.34125e-06
-6.76607e-06
-7.19784e-06
-7.59838e-06
-7.93674e-06
-8.2155e-06
-8.43913e-06
-8.61276e-06
-8.74537e-06
-8.84644e-06
-8.92465e-06
-8.98861e-06
-9.04676e-06
-9.10644e-06
-9.17376e-06
-9.2533e-06
-9.34819e-06
-9.46153e-06
-9.5955e-06
-9.75349e-06
-9.93356e-06
-1.01359e-05
-1.03597e-05
-1.06036e-05
-1.08656e-05
-1.11438e-05
-2.78181e-07
-5.23433e-07
-7.66547e-07
-1.0092e-06
-1.25525e-06
-1.50637e-06
-1.76311e-06
-2.0265e-06
-2.29802e-06
-2.57913e-06
-2.87121e-06
-3.17572e-06
-3.49428e-06
-3.82849e-06
-4.17988e-06
-4.54977e-06
-4.93926e-06
-5.34893e-06
-5.77888e-06
-6.2281e-06
-6.69401e-06
-7.17237e-06
-7.63387e-06
-8.0475e-06
-8.40889e-06
-8.72123e-06
-8.98874e-06
-9.21781e-06
-9.41573e-06
-9.58947e-06
-9.74548e-06
-9.88986e-06
-1.0028e-05
-1.01645e-05
-1.03033e-05
-1.04482e-05
-1.06017e-05
-1.0767e-05
-1.09447e-05
-1.11356e-05
-1.13392e-05
-1.15552e-05
-1.17835e-05
-1.20236e-05
-1.22747e-05
3.62261e-07
9.534e-08
-1.73328e-07
-4.4502e-07
-7.21729e-07
-1.00443e-06
-1.29369e-06
-1.59045e-06
-1.89599e-06
-2.2115e-06
-2.53811e-06
-2.87705e-06
-3.22965e-06
-3.59728e-06
-3.98125e-06
-4.38273e-06
-4.80278e-06
-5.24214e-06
-5.70118e-06
-6.1796e-06
-6.67621e-06
-7.18934e-06
-7.69267e-06
-8.1546e-06
-8.5693e-06
-8.93981e-06
-9.26972e-06
-9.56388e-06
-9.82792e-06
-1.00673e-05
-1.02869e-05
-1.04912e-05
-1.06845e-05
-1.08706e-05
-1.10527e-05
-1.12339e-05
-1.14162e-05
-1.16018e-05
-1.17924e-05
-1.19888e-05
-1.21911e-05
-1.24e-05
-1.26157e-05
-1.28384e-05
-1.30679e-05
8.37664e-07
5.49477e-07
2.57487e-07
-3.94422e-08
-3.42187e-07
-6.51434e-07
-9.67906e-07
-1.29247e-06
-1.62605e-06
-1.96958e-06
-2.324e-06
-2.69034e-06
-3.06971e-06
-3.46322e-06
-3.87197e-06
-4.29698e-06
-4.73921e-06
-5.19939e-06
-5.67805e-06
-6.1753e-06
-6.69079e-06
-7.2236e-06
-7.7495e-06
-8.23861e-06
-8.68504e-06
-9.09153e-06
-9.46123e-06
-9.79803e-06
-1.01062e-05
-1.03898e-05
-1.06527e-05
-1.08984e-05
-1.11302e-05
-1.13511e-05
-1.15638e-05
-1.17705e-05
-1.19732e-05
-1.21739e-05
-1.23746e-05
-1.25761e-05
-1.27791e-05
-1.29843e-05
-1.31925e-05
-1.34039e-05
-1.36187e-05
1.17058e-06
8.6339e-07
5.51073e-07
2.33042e-07
-9.12864e-08
-4.22549e-07
-7.6139e-07
-1.10845e-06
-1.46442e-06
-1.83001e-06
-2.20601e-06
-2.59325e-06
-2.99261e-06
-3.40497e-06
-3.83122e-06
-4.27221e-06
-4.72873e-06
-5.20146e-06
-5.69093e-06
-6.1974e-06
-6.72081e-06
-7.26053e-06
-7.79467e-06
-8.29592e-06
-8.75875e-06
-9.18563e-06
-9.57928e-06
-9.94273e-06
-1.02792e-05
-1.05919e-05
-1.08837e-05
-1.11574e-05
-1.14157e-05
-1.16608e-05
-1.1895e-05
-1.21202e-05
-1.23386e-05
-1.25517e-05
-1.2761e-05
-1.29676e-05
-1.31724e-05
-1.33765e-05
-1.35804e-05
-1.37846e-05
-1.39897e-05
1.39207e-06
1.06868e-06
7.39499e-07
4.04146e-07
6.21156e-08
-2.87077e-07
-6.43881e-07
-1.00875e-06
-1.38219e-06
-1.76476e-06
-2.15706e-06
-2.55971e-06
-2.97339e-06
-3.39876e-06
-3.83652e-06
-4.28731e-06
-4.75178e-06
-5.23045e-06
-5.72381e-06
-6.23209e-06
-6.75531e-06
-7.29302e-06
-7.82571e-06
-8.32897e-06
-8.79789e-06
-9.23455e-06
-9.64116e-06
-1.00201e-05
-1.03738e-05
-1.07049e-05
-1.10155e-05
-1.13079e-05
-1.15842e-05
-1.18464e-05
-1.20961e-05
-1.2335e-05
-1.25651e-05
-1.27881e-05
-1.30048e-05
-1.32162e-05
-1.34236e-05
-1.36279e-05
-1.38298e-05
-1.403e-05
-1.42292e-05
1.53271e-06
1.19568e-06
8.52486e-07
5.02801e-07
1.46274e-07
-2.17398e-07
-5.88502e-07
-9.67348e-07
-1.35429e-06
-1.74973e-06
-2.15408e-06
-2.56779e-06
-2.99134e-06
-3.42521e-06
-3.8699e-06
-4.32586e-06
-4.79359e-06
-5.27346e-06
-5.76584e-06
-6.27087e-06
-6.78862e-06
-7.31869e-06
-7.84387e-06
-8.34283e-06
-8.81119e-06
-9.25062e-06
-9.66285e-06
-1.00498e-05
-1.04134e-05
-1.07556e-05
-1.10782e-05
-1.13829e-05
-1.16715e-05
-1.19456e-05
-1.22066e-05
-1.24558e-05
-1.2695e-05
-1.29255e-05
-1.31482e-05
-1.33642e-05
-1.35745e-05
-1.37801e-05
-1.39818e-05
-1.41805e-05
-1.43768e-05
1.61691e-06
1.26838e-06
9.13475e-07
5.51958e-07
1.83627e-07
-1.91677e-07
-5.74114e-07
-9.63868e-07
-1.36116e-06
-1.76623e-06
-2.17935e-06
-2.60081e-06
-3.03092e-06
-3.46997e-06
-3.91831e-06
-4.37624e-06
-4.84406e-06
-5.32202e-06
-5.81036e-06
-6.30912e-06
-6.81837e-06
-7.33767e-06
-7.85205e-06
-8.34312e-06
-8.80697e-06
-9.24484e-06
-9.6581e-06
-1.00483e-05
-1.04169e-05
-1.07655e-05
-1.10955e-05
-1.14083e-05
-1.17052e-05
-1.19876e-05
-1.22567e-05
-1.25137e-05
-1.27598e-05
-1.29964e-05
-1.32243e-05
-1.34444e-05
-1.36579e-05
-1.38656e-05
-1.40685e-05
-1.42674e-05
-1.4463e-05
1.66337e-06
1.30517e-06
9.40493e-07
5.69226e-07
1.91283e-07
-1.9338e-07
-5.84814e-07
-9.83093e-07
-1.38832e-06
-1.8006e-06
-2.22008e-06
-2.6469e-06
-3.08123e-06
-3.52322e-06
-3.97306e-06
-4.43089e-06
-4.89689e-06
-5.37116e-06
-5.85382e-06
-6.3448e-06
-6.84415e-06
-7.35137e-06
-7.85354e-06
-8.33501e-06
-8.79224e-06
-9.22612e-06
-9.63772e-06
-1.00283e-05
-1.03989e-05
-1.07509e-05
-1.10853e-05
-1.14032e-05
-1.17058e-05
-1.1994e-05
-1.2269e-05
-1.25318e-05
-1.27834e-05
-1.30249e-05
-1.32572e-05
-1.34812e-05
-1.36979e-05
-1.39082e-05
-1.4113e-05
-1.43132e-05
-1.45096e-05
1.68595e-06
1.31957e-06
9.46712e-07
5.67353e-07
1.81514e-07
-2.10754e-07
-6.09412e-07
-1.01444e-06
-1.42583e-06
-1.84358e-06
-2.26773e-06
-2.69829e-06
-3.1353e-06
-3.57879e-06
-4.02881e-06
-4.48539e-06
-4.94856e-06
-5.4183e-06
-5.89462e-06
-6.37735e-06
-6.86649e-06
-7.36146e-06
-7.85124e-06
-8.32261e-06
-8.77235e-06
-9.20105e-06
-9.60955e-06
-9.9988e-06
-1.03697e-05
-1.07232e-05
-1.10601e-05
-1.13812e-05
-1.16876e-05
-1.19799e-05
-1.22593e-05
-1.25264e-05
-1.27824e-05
-1.3028e-05
-1.32641e-05
-1.34916e-05
-1.37113e-05
-1.39243e-05
-1.41314e-05
-1.43335e-05
-1.45315e-05
1.6943e-06
1.32094e-06
9.41153e-07
5.54995e-07
1.62576e-07
-2.35974e-07
-6.4054e-07
-1.05102e-06
-1.46731e-06
-1.88933e-06
-2.31699e-06
-2.75022e-06
-3.18895e-06
-3.6331e-06
-4.0826e-06
-4.53736e-06
-4.99731e-06
-5.46229e-06
-5.93225e-06
-6.40689e-06
-6.88616e-06
-7.36941e-06
-7.84731e-06
-8.30879e-06
-8.75092e-06
-9.17404e-06
-9.57881e-06
-9.96594e-06
-1.03361e-05
-1.06899e-05
-1.10281e-05
-1.13513e-05
-1.16602e-05
-1.19556e-05
-1.22381e-05
-1.25086e-05
-1.2768e-05
-1.3017e-05
-1.32564e-05
-1.34869e-05
-1.37095e-05
-1.39252e-05
-1.41347e-05
-1.4339e-05
-1.45389e-05
1.69478e-06
1.3154e-06
9.29666e-07
5.37712e-07
1.3972e-07
-2.6412e-07
-6.73625e-07
-1.08862e-06
-1.50892e-06
-1.93437e-06
-2.3648e-06
-2.80003e-06
-3.23991e-06
-3.68426e-06
-4.13291e-06
-4.58567e-06
-5.04237e-06
-5.50276e-06
-5.96667e-06
-6.43373e-06
-6.90383e-06
-7.37623e-06
-7.84314e-06
-8.29534e-06
-8.73016e-06
-9.14779e-06
-9.54868e-06
-9.93333e-06
-1.03022e-05
-1.06558e-05
-1.09945e-05
-1.1319e-05
-1.16297e-05
-1.19272e-05
-1.22123e-05
-1.24854e-05
-1.27476e-05
-1.29993e-05
-1.32415e-05
-1.34746e-05
-1.36998e-05
-1.39179e-05
-1.41297e-05
-1.43362e-05
-1.45383e-05
1.69137e-06
1.30674e-06
9.15845e-07
5.18879e-07
1.16083e-07
-2.92297e-07
-7.06021e-07
-1.12485e-06
-1.54854e-06
-1.97685e-06
-2.40953e-06
-2.84635e-06
-3.28706e-06
-3.73139e-06
-4.1791e-06
-4.6299e-06
-5.08354e-06
-5.53967e-06
-5.99803e-06
-6.45819e-06
-6.91996e-06
-7.38256e-06
-7.83948e-06
-8.2832e-06
-8.71127e-06
-9.12373e-06
-9.52088e-06
-9.90301e-06
-1.02704e-05
-1.06234e-05
-1.09623e-05
-1.12876e-05
-1.15995e-05
-1.18987e-05
-1.21857e-05
-1.2461e-05
-1.27253e-05
-1.29792e-05
-1.32238e-05
-1.34593e-05
-1.36866e-05
-1.39069e-05
-1.41208e-05
-1.43294e-05
-1.45336e-05
1.68644e-06
1.29718e-06
9.01753e-07
5.00397e-07
9.34029e-08
-3.18937e-07
-7.36332e-07
-1.15848e-06
-1.58509e-06
-2.01586e-06
-2.45047e-06
-2.88861e-06
-3.32997e-06
-3.77422e-06
-4.22102e-06
-4.67001e-06
-5.12086e-06
-5.57315e-06
-6.02654e-06
-6.48053e-06
-6.93485e-06
-7.38868e-06
-7.83668e-06
-8.27275e-06
-8.69472e-06
-9.10247e-06
-9.49614e-06
-9.87587e-06
-1.02418e-05
-1.05941e-05
-1.0933e-05
-1.12587e-05
-1.15716e-05
-1.18721e-05
-1.21606e-05
-1.24376e-05
-1.27036e-05
-1.29593e-05
-1.32061e-05
-1.34434e-05
-1.36727e-05
-1.38948e-05
-1.41107e-05
-1.43211e-05
-1.45272e-05
1.68127e-06
1.28791e-06
8.88471e-07
4.83232e-07
7.25279e-08
-3.43309e-07
-7.63942e-07
-1.18902e-06
-1.6182e-06
-2.05112e-06
-2.48742e-06
-2.92672e-06
-3.36865e-06
-3.8128e-06
-4.25878e-06
-4.70616e-06
-5.15453e-06
-5.60341e-06
-6.0524e-06
-6.50092e-06
-6.94865e-06
-7.3947e-06
-7.83477e-06
-8.26405e-06
-8.68056e-06
-9.08409e-06
-9.47462e-06
-9.85214e-06
-1.02167e-05
-1.05682e-05
-1.0907e-05
-1.1233e-05
-1.15467e-05
-1.18481e-05
-1.21379e-05
-1.24163e-05
-1.26836e-05
-1.29412e-05
-1.31895e-05
-1.34285e-05
-1.36594e-05
-1.38831e-05
-1.41006e-05
-1.43127e-05
-1.45204e-05
1.67652e-06
1.27951e-06
8.76497e-07
4.67806e-07
5.3802e-08
-3.65145e-07
-7.88656e-07
-1.21634e-06
-1.64781e-06
-2.08265e-06
-2.52045e-06
-2.96079e-06
-3.40323e-06
-3.84731e-06
-4.29258e-06
-4.73855e-06
-5.18475e-06
-5.63065e-06
-6.07577e-06
-6.51947e-06
-6.9614e-06
-7.40061e-06
-7.83368e-06
-8.25695e-06
-8.66865e-06
-9.06844e-06
-9.45617e-06
-9.83171e-06
-1.01949e-05
-1.05458e-05
-1.08844e-05
-1.12107e-05
-1.15249e-05
-1.18272e-05
-1.2118e-05
-1.23976e-05
-1.2666e-05
-1.29251e-05
-1.31747e-05
-1.34151e-05
-1.36473e-05
-1.38725e-05
-1.40913e-05
-1.43048e-05
-1.45139e-05
1.67244e-06
1.27219e-06
8.66004e-07
4.54246e-07
3.73091e-08
-3.84403e-07
-8.10475e-07
-1.24048e-06
-1.67399e-06
-2.11055e-06
-2.5497e-06
-2.99098e-06
-3.43389e-06
-3.87794e-06
-4.32261e-06
-4.76738e-06
-5.2117e-06
-5.655e-06
-6.09674e-06
-6.53626e-06
-6.97311e-06
-7.40632e-06
-7.83325e-06
-8.25125e-06
-8.65872e-06
-9.05523e-06
-9.44051e-06
-9.8143e-06
-1.01764e-05
-1.05267e-05
-1.08651e-05
-1.11916e-05
-1.15063e-05
-1.18093e-05
-1.21009e-05
-1.23814e-05
-1.26509e-05
-1.29113e-05
-1.31619e-05
-1.34035e-05
-1.36369e-05
-1.38631e-05
-1.40831e-05
-1.42978e-05
-1.4508e-05
1.66906e-06
1.2659e-06
8.56883e-07
4.42382e-07
2.2822e-08
-4.01364e-07
-8.2973e-07
-1.26182e-06
-1.69716e-06
-2.13527e-06
-2.57565e-06
-3.01778e-06
-3.46115e-06
-3.90521e-06
-4.3494e-06
-4.79313e-06
-5.23584e-06
-5.67688e-06
-6.11568e-06
-6.55153e-06
-6.98394e-06
-7.41185e-06
-7.83333e-06
-8.24665e-06
-8.6504e-06
-9.04402e-06
-9.42715e-06
-9.79942e-06
-1.01606e-05
-1.05103e-05
-1.08486e-05
-1.11753e-05
-1.14903e-05
-1.17939e-05
-1.20863e-05
-1.23677e-05
-1.26381e-05
-1.28994e-05