/*--------------------------------*- C++ -*----------------------------------*\
| =========                 |                                                 |
| \\      /  F ield         | OpenFOAM: The Open Source CFD Toolbox           |
|  \\    /   O peration     | Version:  2312                                  |
|   \\  /    A nd           | Website:  www.openfoam.com                      |
|    \\/     M anipulation  |                                                 |
\*---------------------------------------------------------------------------*/
FoamFile
{
    version     2.0;
    format      ascii;
    arch        "LSB;label=32;scalar=64";
    class       volScalarField;
    location    "168";
    object      p;
}
// * * * * * * * * * * * * * * * * * * * * * * * * * * * * * * * * * * * * * //

dimensions      [0 2 -2 0 0 0 0];

internalField   nonuniform List<scalar> 
4800
(
-6.94553e-12
-1.06372e-06
-1.92219e-06
-2.63884e-06
-3.24643e-06
-3.78234e-06
-4.25462e-06
-4.67368e-06
-5.05144e-06
-5.39511e-06
-5.70951e-06
-5.99499e-06
-6.24382e-06
-6.6944e-06
-8.2935e-06
1.2521e-08
-1.05071e-06
-1.90897e-06
-2.62591e-06
-3.23437e-06
-3.77181e-06
-4.24644e-06
-4.66888e-06
-5.0519e-06
-5.40463e-06
-5.73658e-06
-6.0613e-06
-6.39103e-06
-6.83211e-06
-7.62348e-06
2.55029e-08
-1.03701e-06
-1.89508e-06
-2.61247e-06
-3.22095e-06
-3.75923e-06
-4.23575e-06
-4.66087e-06
-5.04796e-06
-5.40701e-06
-5.74864e-06
-6.08687e-06
-6.42798e-06
-6.7775e-06
-7.10781e-06
3.84331e-08
-1.02277e-06
-1.88012e-06
-2.5975e-06
-3.20568e-06
-3.74372e-06
-4.22136e-06
-4.64767e-06
-5.03591e-06
-5.39553e-06
-5.73437e-06
-6.05777e-06
-6.35583e-06
-6.59517e-06
-6.70373e-06
5.26015e-08
-1.0066e-06
-1.86258e-06
-2.57905e-06
-3.18721e-06
-3.72307e-06
-4.20039e-06
-4.62581e-06
-5.01118e-06
-5.36407e-06
-5.68739e-06
-5.97685e-06
-6.21182e-06
-6.35237e-06
-6.34272e-06
6.94743e-08
-9.87001e-07
-1.84087e-06
-2.55538e-06
-3.16317e-06
-3.69498e-06
-4.16937e-06
-4.59066e-06
-4.96788e-06
-5.30568e-06
-5.6019e-06
-5.84601e-06
-6.01555e-06
-6.08005e-06
-6.01107e-06
9.14738e-08
-9.61623e-07
-1.81253e-06
-2.52385e-06
-3.12936e-06
-3.65626e-06
-4.12409e-06
-4.53651e-06
-4.89928e-06
-5.21378e-06
-5.47445e-06
-5.66925e-06
-5.7808e-06
-5.79311e-06
-5.69875e-06
1.22849e-07
-9.2646e-07
-1.7735e-06
-2.48031e-06
-3.08083e-06
-3.60126e-06
-4.0585e-06
-4.45656e-06
-4.79847e-06
-5.0832e-06
-5.30441e-06
-5.45267e-06
-5.51858e-06
-5.49859e-06
-5.39687e-06
1.7022e-07
-8.75292e-07
-1.71763e-06
-2.41846e-06
-3.01152e-06
-3.52221e-06
-3.96463e-06
-4.34312e-06
-4.65895e-06
-4.9104e-06
-5.09293e-06
-5.20193e-06
-5.23551e-06
-5.19812e-06
-5.09874e-06
2.42655e-07
-7.99449e-07
-1.63635e-06
-2.32964e-06
-2.91387e-06
-3.41008e-06
-3.83362e-06
-4.1883e-06
-4.47505e-06
-4.69324e-06
-4.84161e-06
-4.9206e-06
-4.93378e-06
-4.88962e-06
-4.7981e-06
3.51137e-07
-6.88092e-07
-1.51886e-06
-2.20287e-06
-2.77437e-06
-3.25438e-06
-3.65613e-06
-3.98465e-06
-4.24213e-06
-4.43025e-06
-4.55131e-06
-4.60975e-06
-4.61228e-06
-4.5687e-06
-4.48833e-06
5.07984e-07
-5.28726e-07
-1.35256e-06
-2.02583e-06
-2.58236e-06
-3.0441e-06
-3.42293e-06
-3.72555e-06
-3.95644e-06
-4.12004e-06
-4.22162e-06
-4.26812e-06
-4.26761e-06
-4.22973e-06
-4.16251e-06
7.27163e-07
-3.07042e-07
-1.12299e-06
-1.78476e-06
-2.32498e-06
-2.76803e-06
-3.12517e-06
-3.40492e-06
-3.61437e-06
-3.76045e-06
-3.85046e-06
-3.89252e-06
-3.8949e-06
-3.86637e-06
-3.81367e-06
1.02533e-06
-6.02868e-09
-8.1313e-07
-1.45972e-06
-1.98765e-06
-2.41426e-06
-2.75347e-06
-3.01594e-06
-3.21097e-06
-3.34732e-06
-3.43338e-06
-3.47757e-06
-3.48772e-06
-3.47154e-06
-3.43465e-06
1.42228e-06
3.94762e-07
-4.0423e-07
-1.03979e-06
-1.55477e-06
-1.96902e-06
-2.29648e-06
-2.54927e-06
-2.73819e-06
-2.87302e-06
-2.96255e-06
-3.01496e-06
-3.03743e-06
-3.03666e-06
-3.01739e-06
1.93934e-06
9.18196e-07
1.26123e-07
-5.01498e-07
-1.0089e-06
-1.41701e-06
-1.74065e-06
-1.99275e-06
-2.18475e-06
-2.32665e-06
-2.4271e-06
-2.49384e-06
-2.53344e-06
-2.55175e-06
-2.55292e-06
2.59556e-06
1.58452e-06
8.00373e-07
1.74141e-07
-3.33293e-07
-7.43604e-07
-1.07264e-06
-1.33394e-06
-1.53883e-06
-1.69687e-06
-1.8162e-06
-1.904e-06
-1.96629e-06
-2.00833e-06
-2.03391e-06
3.40304e-06
2.4062e-06
1.62839e-06
9.9818e-07
4.82747e-07
6.1605e-08
-2.82444e-07
-5.63263e-07
-7.91444e-07
-9.75522e-07
-1.12282e-06
-1.23987e-06
-1.3322e-06
-1.40455e-06
-1.46043e-06
4.36293e-06
3.38035e-06
2.61259e-06
1.97334e-06
1.44364e-06
1.00374e-06
6.35292e-07
3.24985e-07
6.35301e-08
-1.56367e-07
-3.41108e-07
-4.9653e-07
-6.27675e-07
-7.3883e-07
-8.33328e-07
5.45341e-06
4.53172e-06
3.74545e-06
3.09152e-06
2.54258e-06
2.0761e-06
1.67492e-06
1.32715e-06
1.02466e-06
7.6109e-07
5.30794e-07
3.28598e-07
1.49997e-07
-8.8218e-09
-1.5105e-07
6.5334e-06
5.63968e-06
4.87273e-06
4.21367e-06
3.6439e-06
3.14561e-06
2.70515e-06
2.3132e-06
1.96303e-06
1.64905e-06
1.36627e-06
1.11029e-06
8.77258e-07
6.63926e-07
4.67449e-07
7.45699e-06
6.5926e-06
5.83655e-06
5.17456e-06
4.58749e-06
4.06077e-06
3.58502e-06
3.15344e-06
2.76025e-06
2.40038e-06
2.06945e-06
1.76375e-06
1.48007e-06
1.21568e-06
9.68124e-07
8.13197e-06
7.30761e-06
6.57113e-06
5.91017e-06
5.31129e-06
4.76451e-06
4.26291e-06
3.80092e-06
3.37353e-06
2.97634e-06
2.60564e-06
2.25836e-06
1.93183e-06
1.62381e-06
1.33224e-06
8.62464e-06
7.83727e-06
7.11968e-06
6.4625e-06
5.85762e-06
5.29816e-06
4.77845e-06
4.29366e-06
3.83957e-06
3.41258e-06
3.00969e-06
2.6284e-06
2.26655e-06
1.92235e-06
1.59414e-06
8.97339e-06
8.21761e-06
7.5178e-06
6.86767e-06
6.2619e-06
5.69533e-06
5.16329e-06
4.66177e-06
4.18737e-06
3.73727e-06
3.30908e-06
2.90081e-06
2.51076e-06
2.13749e-06
1.77972e-06
9.21135e-06
8.48363e-06
7.80158e-06
7.16082e-06
6.55752e-06
5.9877e-06
5.44769e-06
4.9343e-06
4.44492e-06
3.97734e-06
3.52969e-06
3.10044e-06
2.68826e-06
2.29207e-06
1.91088e-06
9.36937e-06
8.66707e-06
8.00217e-06
7.37157e-06
6.77252e-06
6.202e-06
5.65718e-06
5.13562e-06
4.63534e-06
4.15465e-06
3.69215e-06
3.24668e-06
2.81726e-06
2.40312e-06
2.00352e-06
9.47188e-06
8.79238e-06
8.14334e-06
7.52282e-06
6.9289e-06
6.35927e-06
5.8118e-06
5.28469e-06
4.77648e-06
4.28595e-06
3.81206e-06
3.35402e-06
2.91113e-06
2.4829e-06
2.06884e-06
9.53701e-06
8.87759e-06
8.24287e-06
7.63192e-06
7.04338e-06
6.47549e-06
5.92672e-06
5.39582e-06
4.88175e-06
4.3837e-06
3.90096e-06
3.43304e-06
2.97951e-06
2.54012e-06
2.11457e-06
9.57755e-06
8.93566e-06
8.31372e-06
7.71156e-06
7.12821e-06
6.56238e-06
6.01308e-06
5.47949e-06
4.96097e-06
4.45702e-06
3.96724e-06
3.4914e-06
3.0293e-06
2.5809e-06
2.14608e-06
9.60233e-06
8.97569e-06
8.36504e-06
7.77075e-06
7.19214e-06
6.62838e-06
6.07892e-06
5.54332e-06
5.02126e-06
4.51253e-06
4.017e-06
3.53464e-06
3.06548e-06
2.60964e-06
2.16719e-06
9.61727e-06
9.00392e-06
8.40316e-06
7.81577e-06
7.24134e-06
6.67949e-06
6.13001e-06
5.5928e-06
5.0678e-06
4.55505e-06
4.05466e-06
3.5668e-06
3.09168e-06
2.62958e-06
2.1807e-06
9.62629e-06
9.02452e-06
8.43236e-06
7.85094e-06
7.28013e-06
6.71994e-06
6.17046e-06
5.63185e-06
5.10429e-06
4.58807e-06
4.08347e-06
3.59087e-06
3.1106e-06
2.64311e-06
2.18871e-06
9.63196e-06
9.04025e-06
8.4555e-06
7.87921e-06
7.31151e-06
6.75271e-06
6.20317e-06
5.66326e-06
5.13343e-06
4.61411e-06
4.1058e-06
3.60901e-06
3.12423e-06
2.65201e-06
2.19279e-06
9.63587e-06
9.05282e-06
8.47448e-06
7.90258e-06
7.33751e-06
6.77984e-06
6.23015e-06
5.68903e-06
5.15709e-06
4.63499e-06
4.12334e-06
3.62281e-06
3.13401e-06
2.6576e-06
2.19411e-06
9.63885e-06
9.06326e-06
8.49047e-06
7.92234e-06
7.35949e-06
6.8027e-06
6.25278e-06
5.71049e-06
5.17663e-06
4.65198e-06
4.13731e-06
3.63342e-06
3.14101e-06
2.66085e-06
2.19357e-06
9.64133e-06
9.07222e-06
8.50422e-06
7.9393e-06
7.37829e-06
6.8222e-06
6.27198e-06
5.72857e-06
5.19292e-06
4.66595e-06
4.14856e-06
3.64163e-06
3.14599e-06
2.66248e-06
2.1918e-06
9.64359e-06
9.08014e-06
8.5163e-06
7.95412e-06
7.39468e-06
6.83912e-06
6.28856e-06
5.74409e-06
5.20678e-06
4.67768e-06
4.1578e-06
3.6481e-06
3.14952e-06
2.66295e-06
2.1892e-06
9.64591e-06
9.08769e-06
8.52762e-06
7.96794e-06
7.40987e-06
6.85473e-06
6.30379e-06
5.75825e-06
5.21933e-06
4.68816e-06
4.16586e-06
3.6535e-06
3.15207e-06
2.66256e-06
2.18586e-06
9.64829e-06
9.09508e-06
8.53858e-06
7.98122e-06
7.42436e-06
6.8695e-06
6.31803e-06
5.77134e-06
5.23074e-06
4.6975e-06
4.17285e-06
3.65795e-06
3.15388e-06
2.6617e-06
2.18225e-06
-9.50284e-06
-7.13682e-06
-5.70025e-06
-4.7405e-06
-3.98321e-06
-3.4129e-06
-2.98107e-06
-2.65458e-06
-2.40956e-06
-2.22603e-06
-2.08653e-06
-1.97486e-06
-1.87538e-06
-1.77293e-06
-1.65258e-06
-1.50129e-06
-1.30861e-06
-1.07376e-06
-8.08183e-07
-5.44638e-07
-3.39537e-07
-2.6189e-07
-3.45737e-07
-4.87046e-07
-5.52329e-07
-4.60494e-07
-1.69141e-07
3.40148e-07
1.07684e-06
2.04468e-06
3.24358e-06
4.66335e-06
6.28371e-06
8.07831e-06
1.00069e-05
1.20207e-05
1.40621e-05
1.60649e-05
1.79497e-05
1.96169e-05
2.09246e-05
2.16725e-05
2.14215e-05
1.97959e-05
1.52416e-05
-7.88866e-06
-6.62467e-06
-5.52158e-06
-4.65997e-06
-3.94692e-06
-3.39131e-06
-2.96439e-06
-2.64002e-06
-2.39637e-06
-2.21425e-06
-2.07636e-06
-1.96642e-06
-1.86867e-06
-1.7679e-06
-1.64919e-06
-1.49955e-06
-1.30862e-06
-1.0756e-06
-8.11587e-07
-5.48338e-07
-3.40616e-07
-2.55358e-07
-3.2644e-07
-4.53335e-07
-5.05932e-07
-4.04367e-07
-1.06833e-07
4.05074e-07
1.1404e-06
2.10238e-06
3.2899e-06
4.69063e-06
6.28161e-06
8.03419e-06
9.90456e-06
1.18392e-05
1.37738e-05
1.56317e-05
1.73171e-05
1.87015e-05
1.95888e-05
1.96662e-05
1.83138e-05
1.47976e-05
7.95293e-06
-7.04599e-06
-6.23356e-06
-5.33869e-06
-4.56655e-06
-3.9026e-06
-3.36676e-06
-2.94825e-06
-2.62711e-06
-2.38499e-06
-2.20402e-06
-2.06731e-06
-1.95865e-06
-1.86219e-06
-1.7627e-06
-1.6453e-06
-1.4971e-06
-1.30783e-06
-1.07672e-06
-8.14478e-07
-5.51749e-07
-3.41428e-07
-2.48045e-07
-3.05149e-07
-4.16077e-07
-4.54622e-07
-3.42392e-07
-3.83835e-08
4.75649e-07
1.20811e-06
2.16157e-06
3.33355e-06
4.70916e-06
6.2619e-06
7.9603e-06
9.7562e-06
1.15902e-05
1.33902e-05
1.5068e-05
1.65114e-05
1.75685e-05
1.80132e-05
1.75063e-05
1.5504e-05
1.16064e-05
5.58871e-06
-6.52143e-06
-5.91882e-06
-5.18746e-06
-4.48561e-06
-3.86837e-06
-3.35367e-06
-2.94248e-06
-2.62325e-06
-2.38096e-06
-2.19937e-06
-2.06227e-06
-1.95354e-06
-1.85731e-06
-1.75828e-06
-1.64163e-06
-1.49452e-06
-1.30676e-06
-1.07756e-06
-8.17216e-07
-5.55091e-07
-3.42049e-07
-2.39941e-07
-2.81818e-07
-3.75167e-07
-3.98062e-07
-2.73708e-07
3.78625e-08
5.54555e-07
1.2839e-06
2.22717e-06
3.38092e-06
4.72642e-06
6.23281e-06
7.86527e-06
9.5705e-06
1.12826e-05
1.29212e-05
1.43878e-05
1.55583e-05
1.62706e-05
1.63045e-05
1.53753e-05
1.31322e-05
9.39271e-06
4.40446e-06
-6.12232e-06
-5.64802e-06
-5.04403e-06
-4.42553e-06
-3.85119e-06
-3.35686e-06
-2.95201e-06
-2.63265e-06
-2.38755e-06
-2.20264e-06
-2.06266e-06
-1.95173e-06
-1.85398e-06
-1.7541e-06
-1.63729e-06
-1.49075e-06
-1.30432e-06
-1.07718e-06
-8.19101e-07
-5.57956e-07
-3.4232e-07
-2.31e-07
-2.56364e-07
-3.3051e-07
-3.36351e-07
-1.98841e-07
1.20654e-07
6.39593e-07
1.364e-06
2.29288e-06
3.42453e-06
4.73228e-06
6.18172e-06
7.73445e-06
9.33176e-06
1.09014e-05
1.23563e-05
1.35912e-05
1.44785e-05
1.4863e-05
1.45592e-05
1.33684e-05
1.11179e-05
7.79954e-06
3.73029e-06
-5.79333e-06
-5.4084e-06
-4.90499e-06
-4.37091e-06
-3.84747e-06
-3.37548e-06
-2.9781e-06
-2.65765e-06
-2.40747e-06
-2.21635e-06
-2.07054e-06
-1.95468e-06
-1.85307e-06
-1.75048e-06
-1.63218e-06
-1.48538e-06
-1.29997e-06
-1.07499e-06
-8.1965e-07
-5.60012e-07
-3.42086e-07
-2.21198e-07
-2.28805e-07
-2.82157e-07
-2.6969e-07
-1.1828e-07
2.0905e-07
7.29342e-07
1.44434e-06
2.35475e-06
3.45907e-06
4.71899e-06
6.09904e-06
7.55675e-06
9.02841e-06
1.04367e-05
1.16907e-05
1.26841e-05
1.32958e-05
1.33922e-05
1.28373e-05
1.15189e-05
9.39049e-06
6.54659e-06
3.2749e-06
-5.49947e-06
-5.18384e-06
-4.76938e-06
-4.30532e-06
-3.84055e-06
-3.40181e-06
-3.01653e-06
-2.69661e-06
-2.44075e-06
-2.24152e-06
-2.08732e-06
-1.96368e-06
-1.85553e-06
-1.74798e-06
-1.62651e-06
-1.47836e-06
-1.29347e-06
-1.07069e-06
-8.18589e-07
-5.61082e-07
-3.41306e-07
-2.1064e-07
-1.9934e-07
-2.30404e-07
-1.98609e-07
-3.27749e-08
3.0205e-07
8.21023e-07
1.51967e-06
2.41219e-06
3.47961e-06
4.67942e-06
5.97652e-06
7.32336e-06
8.65246e-06
9.88374e-06
1.09262e-05
1.168e-05
1.20385e-05
1.18989e-05
1.11765e-05
9.82828e-06
7.88068e-06
5.46017e-06
2.79562e-06
-5.22004e-06
-4.95954e-06
-4.62012e-06
-4.22771e-06
-3.81691e-06
-3.4201e-06
-3.05675e-06
-2.74245e-06
-2.48282e-06
-2.2757e-06
-2.11197e-06
-1.97841e-06
-1.86128e-06
-1.74654e-06
-1.62012e-06
-1.46944e-06
-1.28451e-06
-1.06401e-06
-8.1573e-07
-5.61125e-07
-3.40132e-07
-1.99691e-07
-1.68512e-07
-1.75953e-07
-1.24356e-07
5.6221e-08
3.9731e-07
9.06165e-07
1.59205e-06
2.46155e-06
3.47734e-06
4.6041e-06
5.80442e-06
7.02494e-06
8.19668e-06
9.24038e-06
1.00695e-05
1.05959e-05
1.07345e-05
1.04151e-05
9.59628e-06
8.28119e-06
6.52978e-06
4.46424e-06
2.25649e-06
-4.94433e-06
-4.72839e-06
-4.45076e-06
-4.12435e-06
-3.77143e-06
-3.41725e-06
-3.08321e-06
-2.78352e-06
-2.52457e-06
-2.31247e-06
-2.14035e-06
-1.99611e-06
-1.86848e-06
-1.74492e-06
-1.61215e-06
-1.45798e-06
-1.27266e-06
-1.0547e-06
-8.11059e-07
-5.60342e-07
-3.3907e-07
-1.8919e-07
-1.37468e-07
-1.20186e-07
-4.86583e-08
1.4579e-07
4.87073e-07
9.85872e-07
1.66042e-06
2.48878e-06
3.44012e-06
4.48232e-06
5.5716e-06
6.65171e-06
7.65485e-06
8.50579e-06
9.12867e-06
9.44962e-06
9.40709e-06
8.96065e-06
8.10041e-06
6.85475e-06
5.2928e-06
3.5191e-06
1.65941e-06
-4.66518e-06
-4.48608e-06
-4.25917e-06
-3.99032e-06
-3.69295e-06
-3.38493e-06
-3.08466e-06
-2.80489e-06
-2.55372e-06
-2.34278e-06
-2.16556e-06
-2.01151e-06
-1.87336e-06
-1.7405e-06
-1.60086e-06
-1.4429e-06
-1.25736e-06
-1.04266e-06
-8.04953e-07
-5.59407e-07
-3.3922e-07
-1.80764e-07
-1.08359e-07
-6.60712e-08
2.75707e-08
2.28761e-07
5.67722e-07
1.06162e-06
1.70575e-06
2.47987e-06
3.3573e-06
4.30174e-06
5.26604e-06
6.19414e-06
7.02277e-06
7.68341e-06
8.11355e-06
8.25669e-06
8.07288e-06
7.54468e-06
6.68184e-06
5.52325e-06
4.13436e-06
2.5991e-06
1.00874e-06
-4.37589e-06
-4.22811e-06
-4.04328e-06
-3.82364e-06
-3.5768e-06
-3.31455e-06
-3.05168e-06
-2.7955e-06
-2.56011e-06
-2.35656e-06
-2.17775e-06
-2.01702e-06
-1.87053e-06
-1.72961e-06
-1.58388e-06
-1.42291e-06
-1.23816e-06
-1.02811e-06
-7.98269e-07
-5.59948e-07
-3.42677e-07
-1.77229e-07
-8.48613e-08
-1.90115e-08
9.47182e-08
3.0208e-07
6.38414e-07
1.11247e-06
1.71452e-06
2.42507e-06
3.21608e-06
4.04874e-06
4.8758e-06
5.64386e-06
6.29569e-06
6.7766e-06
7.0341e-06
7.02974e-06
6.74151e-06
6.16752e-06
5.32754e-06
4.26177e-06
3.02653e-06
1.68694e-06
3.0929e-07
-4.0697e-06
-3.94934e-06
-3.80011e-06
-3.62249e-06
-3.42036e-06
-3.20109e-06
-2.97466e-06
-2.74898e-06
-2.53583e-06
-2.34283e-06
-2.16686e-06
-2.00499e-06
-1.85427e-06
-1.70838e-06
-1.55894e-06
-1.39711e-06
-1.21538e-06
-1.01235e-06
-7.92836e-07
-5.64354e-07
-3.53133e-07
-1.83129e-07
-7.28115e-08
1.50179e-08
1.43848e-07
3.56979e-07
6.827e-07
1.1254e-06
1.67475e-06
2.30989e-06
3.00107e-06
3.70949e-06
4.39041e-06
4.99586e-06
5.47806e-06
5.79203e-06
5.90029e-06
5.77855e-06
5.41763e-06
4.82471e-06
4.02293e-06
3.04887e-06
1.94841e-06
7.7104e-07
-4.34839e-07
-3.73994e-06
-3.64431e-06
-3.526e-06
-3.38474e-06
-3.2222e-06
-3.04287e-06
-2.85332e-06
-2.66089e-06
-2.47277e-06
-2.29462e-06
-2.12733e-06
-1.97002e-06
-1.82049e-06
-1.6742e-06
-1.52501e-06
-1.36598e-06
-1.19074e-06
-9.97913e-07
-7.91385e-07
-5.78014e-07
-3.75947e-07
-2.0515e-07
-8.05723e-08
2.56906e-08
1.65273e-07
3.77322e-07
6.83092e-07
1.08427e-06
1.56929e-06
2.11664e-06
2.6964e-06
3.27166e-06
3.80262e-06
4.24915e-06
4.57241e-06
4.73849e-06
4.72261e-06
4.51135e-06
4.10371e-06
3.51104e-06
2.75578e-06
1.86882e-06
8.86185e-07
-1.54963e-07
-1.21915e-06
-3.37992e-06
-3.30746e-06
-3.21704e-06
-3.10814e-06
-2.98131e-06
-2.83908e-06
-2.6857e-06
-2.52625e-06
-2.36565e-06
-2.20817e-06
-2.05594e-06
-1.90936e-06
-1.76721e-06
-1.62654e-06
-1.48311e-06
-1.33192e-06
-1.16809e-06
-9.90253e-07
-8.00657e-07
-6.0716e-07
-4.18867e-07
-2.52646e-07
-1.19611e-07
-5.97553e-10
1.43529e-07
3.4526e-07
6.20841e-07
9.69766e-07
1.37906e-06
1.82771e-06
2.28826e-06
2.7266e-06
3.11145e-06
3.40875e-06
3.58869e-06
3.62856e-06
3.51344e-06
3.23731e-06
2.80353e-06
2.22433e-06
1.51934e-06
7.1334e-07
-1.66095e-07
-1.09136e-06
-2.03638e-06
-2.98251e-06
-2.93297e-06
-2.86903e-06
-2.79024e-06
-2.69657e-06
-2.58933e-06
-2.47107e-06
-2.34507e-06
-2.21476e-06
-2.08327e-06
-1.95273e-06
-1.82369e-06
-1.69555e-06
-1.5675e-06
-1.43729e-06
-1.30082e-06
-1.15445e-06
-9.97226e-07
-8.31029e-07
-6.60306e-07
-4.92524e-07
-3.38044e-07
-2.04756e-07
-8.11856e-08
5.91592e-08
2.40614e-07
4.75206e-07
7.60944e-07
1.08526e-06
1.42861e-06
1.76643e-06
2.07445e-06
2.32212e-06
2.48439e-06
2.5412e-06
2.47841e-06
2.28792e-06
1.96819e-06
1.52434e-06
9.67548e-07
3.13847e-07
-4.17616e-07
-1.20622e-06
-2.03162e-06
-2.87468e-06
-2.54006e-06
-2.51485e-06
-2.47791e-06
-2.42893e-06
-2.36773e-06
-2.2949e-06
-2.21194e-06
-2.12081e-06
-2.02392e-06
-1.92326e-06
-1.82046e-06
-1.71741e-06
-1.61201e-06
-1.50408e-06
-1.39522e-06
-1.28162e-06
-1.16e-06
-1.02996e-06
-8.93095e-07
-7.52125e-07
-6.11509e-07
-4.76844e-07
-3.53756e-07
-2.36691e-07
-1.10416e-07
4.07429e-08
2.2431e-07
4.3823e-07
6.73656e-07
9.13834e-07
1.13677e-06
1.32019e-06
1.44408e-06
1.49129e-06
1.44852e-06
1.30716e-06
1.06343e-06
7.18223e-07
2.76857e-07
-2.51378e-07
-8.54095e-07
-1.51699e-06
-2.22492e-06
-2.96306e-06
-3.71737e-06
-2.04666e-06
-2.0489e-06
-2.04142e-06
-2.02412e-06
-1.99683e-06
-1.95987e-06
-1.91398e-06
-1.86062e-06
-1.80072e-06
-1.73646e-06
-1.66833e-06
-1.59295e-06
-1.51948e-06
-1.44845e-06
-1.37143e-06
-1.28786e-06
-1.19845e-06
-1.10337e-06
-1.00324e-06
-8.99279e-07
-7.93293e-07
-6.87579e-07
-5.86189e-07
-4.88429e-07
-3.8797e-07
-2.78044e-07
-1.535e-07
-1.11712e-08
1.4093e-07
2.83081e-07
3.97578e-07
4.71685e-07
4.92727e-07
4.48827e-07
3.31086e-07
1.34497e-07
-1.42271e-07
-4.97348e-07
-9.26014e-07
-1.42107e-06
-1.97339e-06
-2.57259e-06
-3.20779e-06
-3.86827e-06
-4.54379e-06
-1.50408e-06
-1.53852e-06
-1.56468e-06
-1.58276e-06
-1.59277e-06
-1.59495e-06
-1.5897e-06
-1.57776e-06
-1.55979e-06
-1.53669e-06
-1.50923e-06
-1.47802e-06
-1.44773e-06
-1.41646e-06
-1.37817e-06
-1.3343e-06
-1.28684e-06
-1.23565e-06
-1.18015e-06
-1.12062e-06
-1.05732e-06
-9.90917e-07
-9.23458e-07
-8.55787e-07
-7.9223e-07
-7.3287e-07
-6.65507e-07
-5.87648e-07
-5.15579e-07
-4.64659e-07
-4.41708e-07
-4.54325e-07
-5.11698e-07
-6.21983e-07
-7.90775e-07
-1.02085e-06
-1.31247e-06
-1.66373e-06
-2.0709e-06
-2.52869e-06
-3.03062e-06
-3.56942e-06
-4.13743e-06
-4.72702e-06
-5.33078e-06
-9.15897e-07
-9.90017e-07
-1.05677e-06
-1.11658e-06
-1.1698e-06
-1.21671e-06
-1.25765e-06
-1.2931e-06
-1.32361e-06
-1.34991e-06
-1.37283e-06
-1.39292e-06
-1.41062e-06
-1.42519e-06
-1.43565e-06
-1.4427e-06
-1.44688e-06
-1.44753e-06
-1.44394e-06
-1.43598e-06
-1.42316e-06
-1.4059e-06
-1.38432e-06
-1.35942e-06
-1.3391e-06
-1.3213e-06
-1.3033e-06
-1.28855e-06
-1.29006e-06
-1.31174e-06
-1.3569e-06
-1.43179e-06
-1.54307e-06
-1.69585e-06
-1.89338e-06
-2.13731e-06
-2.42774e-06
-2.76326e-06
-3.14117e-06
-3.55775e-06
-4.00857e-06
-4.48871e-06
-4.99294e-06
-5.51593e-06
-6.05239e-06
-2.8222e-07
-4.06338e-07
-5.24131e-07
-6.35804e-07
-7.41796e-07
-8.42562e-07
-9.38496e-07
-1.02997e-06
-1.11736e-06
-1.20106e-06
-1.28139e-06
-1.35852e-06
-1.43261e-06
-1.50393e-06
-1.57242e-06
-1.63792e-06
-1.69998e-06
-1.75808e-06
-1.81183e-06
-1.86032e-06
-1.90381e-06
-1.94182e-06
-1.97347e-06
-2.00421e-06
-2.02965e-06
-2.0484e-06
-2.06708e-06
-2.10402e-06
-2.15885e-06
-2.22919e-06
-2.31813e-06
-2.43108e-06
-2.57245e-06
-2.74515e-06
-2.95113e-06
-3.19163e-06
-3.46694e-06
-3.77626e-06
-4.11787e-06
-4.48936e-06
-4.88786e-06
-5.31017e-06
-5.75283e-06
-6.21226e-06
-6.68475e-06
2.82341e-07
1.04273e-07
-6.77241e-08
-2.3403e-07
-3.95199e-07
-5.5171e-07
-7.03915e-07
-8.52061e-07
-9.96356e-07
-1.13699e-06
-1.27416e-06
-1.40802e-06
-1.53873e-06
-1.66636e-06
-1.79068e-06
-1.91128e-06
-2.02768e-06
-2.13943e-06
-2.24577e-06
-2.34614e-06
-2.44048e-06
-2.528e-06
-2.60832e-06
-2.68022e-06
-2.74017e-06
-2.79232e-06
-2.85203e-06
-2.92534e-06
-3.0103e-06
-3.10667e-06
-3.21752e-06
-3.34648e-06
-3.49639e-06
-3.66944e-06
-3.86735e-06
-4.0913e-06
-4.34174e-06
-4.61834e-06
-4.92014e-06
-5.24575e-06
-5.59344e-06
-5.96123e-06
-6.3469e-06
-6.74809e-06
-7.16233e-06
7.32063e-07
5.02899e-07
2.79618e-07
6.19413e-08
-1.50587e-07
-3.58354e-07
-5.6161e-07
-7.60497e-07
-9.55118e-07
-1.14556e-06
-1.33192e-06
-1.51423e-06
-1.69248e-06
-1.86652e-06
-2.03606e-06
-2.20068e-06
-2.35995e-06
-2.51319e-06
-2.65983e-06
-2.79931e-06
-2.93106e-06
-3.05622e-06
-3.17092e-06
-3.26956e-06
-3.35648e-06
-3.43943e-06
-3.5258e-06
-3.61691e-06
-3.71447e-06
-3.82092e-06
-3.93871e-06
-4.07016e-06
-4.2174e-06
-4.38235e-06
-4.56649e-06
-4.77089e-06
-4.99607e-06
-5.24207e-06
-5.50852e-06
-5.79471e-06
-6.09967e-06
-6.4222e-06
-6.76093e-06
-7.11435e-06
-7.48084e-06
1.05225e-06
7.79354e-07
5.12555e-07
2.5166e-07
-3.6399e-09
-2.53581e-07
-4.98283e-07
-7.37784e-07
-9.72091e-07
-1.2012e-06
-1.42508e-06
-1.64366e-06
-1.85682e-06
-2.06434e-06
-2.2659e-06
-2.46108e-06
-2.6494e-06
-2.83024e-06
-3.00315e-06
-3.16754e-06
-3.32328e-06
-3.47123e-06
-3.6048e-06
-3.72145e-06
-3.82576e-06
-3.92506e-06
-4.02209e-06
-4.11961e-06
-4.22115e-06
-4.32948e-06
-4.44662e-06
-4.57452e-06
-4.71509e-06
-4.87004e-06
-5.04069e-06
-5.22798e-06
-5.43252e-06
-5.6546e-06
-5.89421e-06
-6.15111e-06
-6.42483e-06
-6.71467e-06
-7.01978e-06
-7.33914e-06
-7.67167e-06
1.27756e-06
9.68487e-07
6.65994e-07
3.70006e-07
8.03689e-08
-2.03001e-07
-4.80099e-07
-7.50861e-07
-1.01521e-06
-1.27304e-06
-1.52427e-06
-1.76875e-06
-2.00629e-06
-2.23664e-06
-2.45948e-06
-2.67442e-06
-2.88102e-06
-3.07881e-06
-3.2674e-06
-3.44642e-06
-3.61592e-06
-3.77624e-06
-3.92198e-06
-4.04917e-06
-4.16409e-06
-4.27064e-06
-4.37249e-06
-4.47351e-06
-4.577e-06
-4.68539e-06
-4.80069e-06
-4.92479e-06
-5.05944e-06
-5.20614e-06
-5.3661e-06
-5.54028e-06
-5.72941e-06
-5.93398e-06
-6.15427e-06
-6.3903e-06
-6.64192e-06
-6.90877e-06
-7.19036e-06
-7.48605e-06
-7.79511e-06
1.43364e-06
1.09557e-06
7.6474e-07
4.41194e-07
1.24916e-07
-1.84041e-07
-4.85563e-07
-7.79501e-07
-1.06571e-06
-1.34403e-06
-1.61433e-06
-1.87641e-06
-2.13008e-06
-2.37508e-06
-2.61113e-06
-2.83789e-06
-3.05506e-06
-3.26225e-06
-3.45924e-06
-3.64586e-06
-3.82217e-06
-3.98881e-06
-4.14055e-06
-4.27486e-06
-4.39513e-06
-4.50592e-06
-4.61143e-06
-4.71515e-06
-4.8199e-06
-4.92806e-06
-5.0417e-06
-5.1627e-06
-5.2927e-06
-5.43311e-06
-5.58516e-06
-5.74986e-06
-5.92804e-06
-6.12035e-06
-6.32722e-06
-6.54891e-06
-6.78548e-06
-7.03684e-06
-7.30273e-06
-7.58278e-06
-7.87653e-06
1.54144e-06
1.18059e-06
8.27725e-07
4.82999e-07
1.46513e-07
-1.81571e-07
-5.01052e-07
-8.11719e-07
-1.11338e-06
-1.40585e-06
-1.68895e-06
-1.96249e-06
-2.22627e-06
-2.48007e-06
-2.72367e-06
-2.95682e-06
-3.17933e-06
-3.39097e-06
-3.59169e-06
-3.78142e-06
-3.96041e-06
-4.12927e-06
-4.28439e-06
-4.422e-06
-4.54557e-06
-4.65965e-06
-4.76797e-06
-4.87361e-06
-4.97929e-06
-5.0874e-06
-5.20001e-06
-5.31895e-06
-5.4458e-06
-5.582e-06
-5.72879e-06
-5.88725e-06
-6.05829e-06
-6.24266e-06
-6.44092e-06
-6.65347e-06
-6.88054e-06
-7.12221e-06
-7.37844e-06
-7.64903e-06
-7.93373e-06
1.61577e-06
1.2372e-06
8.67402e-07
5.06596e-07
1.54983e-07
-1.8719e-07
-5.19658e-07
-8.42169e-07
-1.1545e-06
-1.45645e-06
-1.74784e-06
-2.02848e-06
-2.2982e-06
-2.55683e-06
-2.80422e-06
-3.04021e-06
-3.26475e-06
-3.47775e-06
-3.67932e-06
-3.86957e-06
-4.04899e-06
-4.21828e-06
-4.37387e-06
-4.513e-06
-4.63879e-06
-4.75519e-06
-4.86549e-06
-4.97264e-06
-5.07927e-06
-5.18772e-06
-5.29998e-06
-5.41787e-06
-5.54297e-06
-5.67673e-06
-5.82043e-06
-5.97519e-06
-6.14199e-06
-6.32163e-06
-6.51479e-06
-6.72198e-06
-6.94355e-06
-7.17975e-06
-7.43067e-06
-7.69627e-06
-7.97644e-06
1.66673e-06
1.27441e-06
8.91614e-07
5.18623e-07
1.5572e-07
-1.96781e-07
-5.38574e-07
-8.69383e-07
-1.18897e-06
-1.49713e-06
-1.79369e-06
-2.07848e-06
-2.35136e-06
-2.61223e-06
-2.86101e-06
-3.09765e-06
-3.32219e-06
-3.5347e-06
-3.73545e-06
-3.9247e-06
-4.10305e-06
-4.27123e-06
-4.42611e-06
-4.56575e-06
-4.69282e-06
-4.8107e-06
-4.92245e-06
-5.03087e-06
-5.13847e-06
-5.24749e-06
-5.35989e-06
-5.47746e-06
-5.6018e-06
-5.73437e-06
-5.87646e-06
-6.02925e-06
-6.19375e-06
-6.37086e-06
-6.56132e-06
-6.76575e-06
-6.98462e-06
-7.21827e-06
-7.46691e-06
-7.73062e-06
-8.0094e-06
1.70112e-06
1.29802e-06
9.05154e-07
5.22853e-07
1.51465e-07
-2.08649e-07
-5.57156e-07
-8.93768e-07
-1.21825e-06
-1.53038e-06
-1.83001e-06
-2.117e-06
-2.39126e-06
-2.65273e-06
-2.90143e-06
-3.13739e-06
-3.36075e-06
-3.5717e-06
-3.77064e-06
-3.95795e-06
-4.13433e-06
-4.30058e-06
-4.45402e-06
-4.5934e-06
-4.72098e-06
-4.83973e-06
-4.95247e-06
-5.06188e-06
-5.17034e-06
-5.27999e-06
-5.39276e-06
-5.51042e-06
-5.63458e-06
-5.76669e-06
-5.90809e-06
-6.05998e-06
-6.22345e-06
-6.39945e-06
-6.5888e-06
-6.7922e-06
-7.0102e-06
-7.24324e-06
-7.4916e-06
-7.75546e-06
-8.03489e-06
1.72351e-06
1.31183e-06
9.11032e-07
5.21502e-07
1.43639e-07
-2.22163e-07
-5.75556e-07
-9.16248e-07
-1.244e-06
-1.55861e-06
-1.85993e-06
-2.14787e-06
-2.42238e-06
-2.68346e-06
-2.9312e-06
-3.1657e-06
-3.38721e-06
-3.596e-06
-3.79258e-06
-3.9774e-06
-4.15137e-06
-4.31518e-06
-4.46668e-06
-4.60523e-06
-4.73275e-06
-4.85184e-06
-4.96516e-06
-5.07525e-06
-5.18436e-06
-5.29456e-06
-5.40774e-06
-5.52563e-06
-5.64986e-06
-5.7819e-06
-5.92311e-06
-6.07475e-06
-6.23794e-06
-6.4137e-06
-6.60291e-06
-6.80633e-06
-7.02459e-06
-7.25819e-06
-7.5075e-06
-7.77275e-06
-8.05408e-06
1.73713e-06
1.31847e-06
9.11299e-07
5.16035e-07
1.33129e-07
-2.37008e-07
-5.9402e-07
-9.37613e-07
-1.26755e-06
-1.58365e-06
-1.88578e-06
-2.17389e-06
-2.44796e-06
-2.70807e-06
-2.95434e-06
-3.18697e-06
-3.40628e-06
-3.61261e-06
-3.80656e-06
-3.98868e-06
-4.15994e-06
-4.32101e-06
-4.47025e-06
-4.6076e-06
-4.73463e-06
-4.85362e-06
-4.96716e-06
-5.07762e-06
-5.18713e-06
-5.29771e-06
-5.41119e-06
-5.5293e-06
-5.65367e-06
-5.78579e-06
-5.92706e-06
-6.07875e-06
-6.24206e-06
-6.41803e-06
-6.60762e-06
-6.81164e-06
-7.03078e-06
-7.26561e-06
-7.51655e-06
-7.78388e-06
-8.0678e-06
1.74437e-06
1.31991e-06
9.07479e-07
5.07561e-07
1.20628e-07
-2.52897e-07
-6.12655e-07
-9.58352e-07
-1.28976e-06
-1.60671e-06
-1.9091e-06
-2.1969e-06
-2.47016e-06
-2.72897e-06
-2.97353e-06
-3.2041e-06
-3.42105e-06
-3.62483e-06
-3.81607e-06
-3.99539e-06
-4.16384e-06
-4.32205e-06
-4.46883e-06
-4.60475e-06
-4.73096e-06
-4.84953e-06
-4.96297e-06
-5.0735e-06
-5.18317e-06
-5.2939e-06
-5.40753e-06
-5.52577e-06
-5.65023e-06
-5.78244e-06
-5.92381e-06
-6.07567e-06
-6.23923e-06
-6.41562e-06
-6.60582e-06
-6.81071e-06
-7.03103e-06
-7.2674e-06
-7.52028e-06
-7.79001e-06
-8.07682e-06
1.74701e-06
1.31762e-06
9.00767e-07
4.96978e-07
1.06743e-07
-2.69506e-07
-6.31409e-07
-9.78676e-07
-1.31108e-06
-1.62849e-06
-1.93081e-06
-2.21805e-06
-2.49028e-06
-2.74765e-06
-2.99042e-06
-3.21888e-06
-3.43348e-06
-3.63471e-06
-3.82327e-06
-3.99982e-06
-4.16548e-06
-4.32085e-06
-4.46505e-06
-4.59937e-06
-4.72456e-06
-4.84246e-06
-4.95554e-06
-5.0659e-06
-5.17549e-06
-5.28619e-06
-5.3998e-06
-5.51801e-06
-5.64246e-06
-5.77467e-06
-5.9161e-06
-6.06811e-06
-6.23195e-06
-6.40879e-06
-6.59966e-06
-6.80549e-06
-7.02707e-06
-7.26505e-06
-7.51996e-06
-7.79216e-06
-8.08192e-06
1.74642e-06
1.31275e-06
8.92107e-07
4.85025e-07
9.20139e-08
-2.86489e-07
-6.50123e-07
-9.98601e-07
-1.33171e-06
-1.64933e-06
-1.9514e-06
-2.23794e-06
-2.50907e-06
-2.76498e-06
-3.00596e-06
-3.23236e-06
-3.44468e-06
-3.64345e-06
-3.82943e-06
-4.0033e-06
-4.16628e-06
-4.31883e-06
-4.46052e-06
-4.59314e-06
-4.71719e-06
-4.83423e-06
-4.94677e-06
-5.05675e-06
-5.16607e-06
-5.27656e-06
-5.38997e-06
-5.50802e-06
-5.63233e-06
-5.76444e-06
-5.90585e-06
-6.05793e-06
-6.22199e-06
-6.39922e-06
-6.59072e-06
-6.79744e-06
-7.02023e-06
-7.25978e-06
-7.51665e-06
-7.79124e-06
-8.08383e-06
1.74363e-06
1.30621e-06
8.82246e-07
4.72307e-07
7.691e-08
-3.03505e-07
-6.68578e-07
-1.01803e-06
-1.35165e-06
-1.66934e-06
-1.97106e-06
-2.25686e-06
-2.52689e-06
-2.78138e-06
-3.02064e-06
-3.24508e-06
-3.45524e-06
-3.6517e-06
-3.83523e-06
-4.00658e-06
-4.167e-06
-4.31679e-06
-4.45615e-06
-4.58704e-06
-4.70987e-06
-4.82593e-06
-4.93778e-06
-5.04724e-06
-5.15614e-06
-5.26627e-06
-5.37936e-06
-5.49712e-06
-5.62116e-06
-5.75307e-06
-5.89434e-06
-6.0464e-06
-6.21058e-06
-6.38812e-06
-6.58014e-06
-6.78766e-06
-7.01154e-06
-7.25253e-06
-7.51121e-06
-7.78802e-06
-8.08325e-06
1.73942e-06
1.29867e-06
8.71783e-07
4.59334e-07
6.18538e-08
-3.20216e-07
-6.86516e-07
-1.03677e-06
-1.37079e-06
-1.68847e-06
-1.98981e-06
-2.27488e-06
-2.54385e-06
-2.79699e-06
-3.03464e-06
-3.25726e-06
-3.46541e-06
-3.65971e-06
-3.84098e-06
-4.00996e-06
-4.16796e-06
-4.31509e-06
-4.45241e-06
-4.58159e-06
-4.70309e-06
-4.81814e-06
-4.92922e-06
-5.03807e-06
-5.14644e-06
-5.2561e-06
-5.36877e-06
-5.48613e-06
-5.60982e-06
-5.74142e-06
-5.88246e-06
-6.0344e-06
-6.1986e-06
-6.37634e-06
-6.56878e-06
-6.77696e-06
-7.0018e-06
-7.24406e-06
-7.50437e-06
-7.78319e-06
-8.08083e-06
1.73439e-06
1.29068e-06
8.61197e-07
4.46532e-07
4.72186e-08
-3.36298e-07
-7.03659e-07
-1.0546e-06
-1.38893e-06
-1.70657e-06
-2.00752e-06
-2.2919e-06
-2.55988e-06
-2.81177e-06
-3.04795e-06
-3.26889e-06
-3.4752e-06
-3.66753e-06
-3.84672e-06
-4.01353e-06
-4.16928e-06
-4.31404e-06
-4.44942e-06
-4.57692e-06
-4.69708e-06
-4.81116e-06
-4.92143e-06
-5.0296e-06
-5.13739e-06
-5.24652e-06
-5.35869e-06
-5.47558e-06
-5.59884e-06
-5.73007e-06
-5.87081e-06
-6.02255e-06
-6.18668e-06
-6.36451e-06
-6.55725e-06
-6.76597e-06
-6.99161e-06
-7.23498e-06
-7.49672e-06
-7.77733e-06
-8.07712e-06
1.72884e-06
1.28247e-06
8.5066e-07
4.34013e-07
3.30674e-08
-3.5173e-07
-7.20024e-07
-1.07155e-06
-1.40613e-06
-1.72371e-06
-2.0243e-06
-2.30802e-06
-2.57509e-06
-2.82583e-06
-3.06065e-06
-3.28006e-06
-3.48468e-06
-3.6752e-06
-3.85249e-06
-4.01732e-06
-4.171e-06
-4.31363e-06
-4.44711e-06
-4.57301e-06
-4.69189e-06
-4.80501e-06
-4.91445e-06
-5.02192e-06
-5.12908e-06
-5.23763e-06
-5.34925e-06
-5.46563e-06
-5.5884e-06
-5.71919e-06
-5.85957e-06
-6.01104e-06
-6.17502e-06
-6.35287e-06
-6.5458e-06
-6.75493e-06
-6.98124e-06
-7.22556e-06
-7.48855e-06
-7.77073e-06
-8.07245e-06
1.72267e-06
1.27376e-06
8.39743e-07
4.21216e-07
1.87263e-08
-3.67278e-07
-7.36443e-07
-1.08851e-06