/*--------------------------------*- C++ -*----------------------------------*\
| =========                 |                                                 |
| \\      /  F ield         | OpenFOAM: The Open Source CFD Toolbox           |
|  \\    /   O peration     | Version:  2312                                  |
|   \\  /    A nd           | Website:  www.openfoam.com                      |
|    \\/     M anipulation  |                                                 |
\*---------------------------------------------------------------------------*/
FoamFile
{
    version     2.0;
    format      ascii;
    arch        "LSB;label=32;scalar=64";
    class       volScalarField;
    location    "129.75";
    object      p;
}
// * * * * * * * * * * * * * * * * * * * * * * * * * * * * * * * * * * * * * //

dimensions      [0 2 -2 0 0 0 0];

internalField   nonuniform List<scalar> 
4800
(
1.68431e-11
-1.84656e-06
-3.39692e-06
-4.71401e-06
-5.84224e-06
-6.81548e-06
-7.66041e-06
-8.39826e-06
-9.05268e-06
-9.63496e-06
-1.01545e-05
-1.06175e-05
-1.10195e-05
-1.1592e-05
-1.331e-05
2.01142e-08
-1.82179e-06
-3.36879e-06
-4.68378e-06
-5.81109e-06
-6.78501e-06
-7.63231e-06
-8.37476e-06
-9.03619e-06
-9.62933e-06
-1.01688e-05
-1.06753e-05
-1.11665e-05
-1.17519e-05
-1.26892e-05
4.17828e-08
-1.79505e-06
-3.33855e-06
-4.65147e-06
-5.77804e-06
-6.75243e-06
-7.60212e-06
-8.34667e-06
-9.01273e-06
-9.61407e-06
-1.01655e-05
-1.06886e-05
-1.11959e-05
-1.16983e-05
-1.21776e-05
6.44517e-08
-1.76659e-06
-3.30598e-06
-4.61625e-06
-5.74147e-06
-6.71552e-06
-7.5662e-06
-8.31234e-06
-8.97879e-06
-9.58178e-06
-1.01318e-05
-1.0641e-05
-1.11054e-05
-1.14953e-05
-1.17419e-05
8.99162e-08
-1.73419e-06
-3.26849e-06
-4.57521e-06
-5.69809e-06
-6.67066e-06
-7.5202e-06
-8.26646e-06
-8.92882e-06
-9.52442e-06
-1.00591e-05
-1.05333e-05
-1.09313e-05
-1.12158e-05
-1.13317e-05
1.19692e-07
-1.69614e-06
-3.22416e-06
-4.52613e-06
-5.64532e-06
-6.61466e-06
-7.4605e-06
-8.20233e-06
-8.85582e-06
-9.43448e-06
-9.94024e-06
-1.03659e-05
-1.0693e-05
-1.08929e-05
-1.09379e-05
1.55761e-07
-1.65033e-06
-3.1706e-06
-4.46623e-06
-5.5798e-06
-6.54335e-06
-7.38193e-06
-8.11361e-06
-8.75149e-06
-9.30419e-06
-9.77064e-06
-1.0142e-05
-1.04041e-05
-1.0543e-05
-1.05526e-05
2.01312e-07
-1.59341e-06
-3.10411e-06
-4.39126e-06
-5.49657e-06
-6.45086e-06
-7.27755e-06
-7.99293e-06
-8.60765e-06
-9.12675e-06
-9.54864e-06
-9.86727e-06
-1.00763e-05
-1.01745e-05
-1.01685e-05
2.60925e-07
-1.52049e-06
-3.0193e-06
-4.29522e-06
-5.38879e-06
-6.32948e-06
-7.1389e-06
-7.83161e-06
-8.41635e-06
-8.89758e-06
-9.27485e-06
-9.54748e-06
-9.71688e-06
-9.79056e-06
-9.78043e-06
3.40182e-07
-1.42531e-06
-2.90916e-06
-4.17025e-06
-5.24783e-06
-6.16988e-06
-6.95646e-06
-7.62094e-06
-8.17164e-06
-8.61376e-06
-8.9507e-06
-9.1868e-06
-9.32946e-06
-9.39068e-06
-9.38383e-06
4.4457e-07
-1.30093e-06
-2.76554e-06
-4.00725e-06
-5.06378e-06
-5.96187e-06
-6.72052e-06
-7.35289e-06
-7.86819e-06
-8.27392e-06
-8.57732e-06
-8.78718e-06
-8.91418e-06
-8.97206e-06
-8.9737e-06
5.78207e-07
-1.1409e-06
-2.58029e-06
-3.79687e-06
-4.8267e-06
-5.69567e-06
-6.42252e-06
-7.02114e-06
-7.50263e-06
-7.87723e-06
-8.15535e-06
-8.34852e-06
-8.46905e-06
-8.53047e-06
-8.54447e-06
7.43447e-07
-9.4018e-07
-2.34614e-06
-3.53063e-06
-4.52783e-06
-5.36324e-06
-6.05611e-06
-6.62169e-06
-7.07321e-06
-7.42331e-06
-7.68445e-06
-7.86947e-06
-7.9908e-06
-8.06101e-06
-8.0903e-06
9.41675e-07
-6.95525e-07
-2.05747e-06
-3.20167e-06
-4.1602e-06
-4.95865e-06
-5.61714e-06
-6.15228e-06
-6.57899e-06
-6.91147e-06
-7.16316e-06
-7.347e-06
-7.47479e-06
-7.55776e-06
-7.60477e-06
1.16758e-06
-4.07419e-07
-1.71215e-06
-2.80639e-06
-3.71992e-06
-4.47863e-06
-5.10337e-06
-5.61148e-06
-6.01869e-06
-6.33975e-06
-6.58813e-06
-6.77617e-06
-6.91463e-06
-7.01331e-06
-7.07988e-06
1.40933e-06
-8.0302e-08
-1.31444e-06
-2.34577e-06
-3.20695e-06
-3.92319e-06
-4.51483e-06
-4.99892e-06
-5.39099e-06
-5.70543e-06
-5.95501e-06
-6.15098e-06
-6.30291e-06
-6.41926e-06
-6.50665e-06
1.65993e-06
2.73651e-07
-8.71711e-07
-1.82685e-06
-2.62672e-06
-3.2965e-06
-3.85433e-06
-4.31559e-06
-4.69483e-06
-5.00544e-06
-5.25887e-06
-5.46496e-06
-5.63195e-06
-5.76708e-06
-5.87607e-06
1.90351e-06
6.439e-07
-3.97036e-07
-1.26508e-06
-1.99368e-06
-2.6106e-06
-3.13105e-06
-3.5676e-06
-3.93322e-06
-4.23982e-06
-4.49713e-06
-4.71327e-06
-4.89507e-06
-5.04865e-06
-5.179e-06
2.11968e-06
1.00866e-06
9.33842e-08
-6.74807e-07
-1.32714e-06
-1.88519e-06
-2.36211e-06
-2.76909e-06
-3.1174e-06
-3.41693e-06
-3.6754e-06
-3.899e-06
-4.09312e-06
-4.26276e-06
-4.41228e-06
2.28669e-06
1.34588e-06
5.6614e-07
-8.96194e-08
-6.54682e-07
-1.14588e-06
-1.57304e-06
-1.94508e-06
-2.27109e-06
-2.55877e-06
-2.81384e-06
-3.04074e-06
-3.2435e-06
-3.42602e-06
-3.59185e-06
2.38759e-06
1.6255e-06
9.82205e-07
4.33208e-07
-4.42526e-08
-4.64775e-07
-8.37524e-07
-1.16977e-06
-1.46793e-06
-1.73724e-06
-1.9818e-06
-2.20495e-06
-2.40976e-06
-2.59911e-06
-2.77574e-06
2.43878e-06
1.82388e-06
1.29463e-06
8.36094e-07
4.33294e-07
7.37095e-08
-2.51151e-07
-5.46776e-07
-8.17276e-07
-1.06619e-06
-1.29664e-06
-1.51133e-06
-1.71263e-06
-1.90269e-06
-2.08361e-06
2.48024e-06
1.97358e-06
1.53147e-06
1.1422e-06
7.94662e-07
4.79421e-07
1.90038e-07
-7.75417e-08
-3.26362e-07
-5.59146e-07
-7.78403e-07
-9.86277e-07
-1.18465e-06
-1.37513e-06
-1.55931e-06
2.51829e-06
2.09004e-06
1.71075e-06
1.37096e-06
1.06259e-06
7.79075e-07
5.15677e-07
2.69044e-07
3.65371e-08
-1.84122e-07
-3.94972e-07
-5.97733e-07
-7.93923e-07
-9.8483e-07
-1.17173e-06
2.55741e-06
2.18429e-06
1.84893e-06
1.54404e-06
1.26367e-06
1.00303e-06
7.58304e-07
5.2657e-07
3.05478e-07
9.30761e-08
-1.12334e-07
-3.12183e-07
-5.07747e-07
-7.00101e-07
-8.90321e-07
2.59809e-06
2.26308e-06
1.95817e-06
1.67765e-06
1.41681e-06
1.17184e-06
9.39547e-07
7.17382e-07
5.03262e-07
2.95485e-07
9.25846e-08
-1.06673e-07
-3.03398e-07
-4.98528e-07
-6.93009e-07
2.63811e-06
2.32939e-06
2.04537e-06
1.78139e-06
1.53353e-06
1.29861e-06
1.07393e-06
8.57232e-07
6.46672e-07
4.40731e-07
2.38104e-07
3.76882e-08
-1.6152e-07
-3.60368e-07
-5.59722e-07
2.67523e-06
2.3847e-06
2.11488e-06
1.86184e-06
1.62226e-06
1.39345e-06
1.17302e-06
9.58981e-07
7.49661e-07
5.43687e-07
3.39863e-07
1.37173e-07
-6.53202e-08
-2.68402e-07
-4.72888e-07
2.70801e-06
2.43027e-06
2.17013e-06
1.92426e-06
1.68986e-06
1.46455e-06
1.2462e-06
1.03302e-06
8.23483e-07
6.16329e-07
4.10439e-07
2.04854e-07
-1.3112e-09
-2.088e-07
-4.18391e-07
2.73599e-06
2.46751e-06
2.21409e-06
1.97299e-06
1.7418e-06
1.51838e-06
1.30078e-06
1.08738e-06
8.76798e-07
6.67844e-07
4.59464e-07
2.50746e-07
4.08411e-08
-1.70961e-07
-3.85412e-07
2.75939e-06
2.49789e-06
2.24933e-06
2.01152e-06
1.78236e-06
1.55985e-06
1.34225e-06
1.12807e-06
9.16045e-07
7.05044e-07
4.94067e-07
2.82242e-07
6.87509e-08
-1.47093e-07
-3.66022e-07
2.77879e-06
2.52278e-06
2.27793e-06
2.04254e-06
1.81471e-06
1.59259e-06
1.37462e-06
1.15943e-06
9.45836e-07
7.32777e-07
5.19297e-07
3.04553e-07
8.77536e-08
-1.3177e-07
-3.54733e-07
2.79486e-06
2.54337e-06
2.30152e-06
2.06803e-06
1.84113e-06
1.61916e-06
1.40067e-06
1.18444e-06
9.69326e-07
7.54336e-07
5.38551e-07
3.21157e-07
1.01383e-07
-1.21426e-07
-3.47972e-07
2.80821e-06
2.56058e-06
2.32128e-06
2.08939e-06
1.86322e-06
1.64129e-06
1.4223e-06
1.20508e-06
9.88581e-07
7.7185e-07
5.54005e-07
3.34257e-07
1.1185e-07
-1.13858e-07
-3.43556e-07
2.81935e-06
2.57513e-06
2.33808e-06
2.10758e-06
1.88205e-06
1.66015e-06
1.4407e-06
1.22261e-06
1.0049e-06
7.86638e-07
5.66985e-07
3.45173e-07
1.20461e-07
-1.07785e-07
-3.40244e-07
2.8287e-06
2.58751e-06
2.35249e-06
2.12325e-06
1.8983e-06
1.67646e-06
1.45663e-06
1.23781e-06
1.01905e-06
7.99466e-07
5.78248e-07
3.54644e-07
1.27927e-07
-1.0253e-07
-3.37397e-07
2.83655e-06
2.59808e-06
2.3649e-06
2.1368e-06
1.9124e-06
1.69066e-06
1.47054e-06
1.25111e-06
1.03146e-06
8.10755e-07
5.88195e-07
3.63047e-07
1.34599e-07
-9.77708e-08
-3.34729e-07
2.84323e-06
2.60724e-06
2.37574e-06
2.14869e-06
1.92482e-06
1.7032e-06
1.48288e-06
1.26294e-06
1.04255e-06
8.20879e-07
5.97164e-07
3.70684e-07
1.40733e-07
-9.33034e-08
-3.32091e-07
2.84923e-06
2.61563e-06
2.38576e-06
2.15972e-06
1.93641e-06
1.71495e-06
1.49447e-06
1.27411e-06
1.05306e-06
8.30531e-07
6.05772e-07
3.78077e-07
1.46752e-07
-8.88166e-08
-3.29294e-07
2.85453e-06
2.62324e-06
2.39495e-06
2.16995e-06
1.94721e-06
1.72596e-06
1.50537e-06
1.28465e-06
1.06301e-06
8.39698e-07
6.13976e-07
3.85153e-07
1.52545e-07
-8.445e-08
-3.26497e-07
-1.48381e-05
-1.26029e-05
-1.1214e-05
-1.02771e-05
-9.51366e-06
-8.91001e-06
-8.42134e-06
-8.01837e-06
-7.68361e-06
-7.40516e-06
-7.1755e-06
-6.99061e-06
-6.8495e-06
-6.75528e-06
-6.71577e-06
-6.74475e-06
-6.86706e-06
-7.11797e-06
-7.53956e-06
-8.19641e-06
-9.15569e-06
-1.04624e-05
-1.1954e-05
-1.32705e-05
-1.42149e-05
-1.47128e-05
-1.47356e-05
-1.42878e-05
-1.33847e-05
-1.20507e-05
-1.03149e-05
-8.21387e-06
-5.79239e-06
-3.10413e-06
-2.10345e-07
2.82202e-06
5.92227e-06
9.0168e-06
1.20273e-05
1.48656e-05
1.74171e-05
1.95316e-05
2.08849e-05
2.12037e-05
1.94538e-05
-1.31603e-05
-1.20286e-05
-1.09867e-05
-1.0156e-05
-9.43971e-06
-8.85232e-06
-8.36935e-06
-7.96858e-06
-7.63496e-06
-7.3576e-06
-7.1294e-06
-6.9465e-06
-6.80807e-06
-6.71735e-06
-6.68229e-06
-6.71664e-06
-6.84542e-06
-7.10353e-06
-7.53199e-06
-8.19439e-06
-9.15641e-06
-1.0461e-05
-1.19453e-05
-1.32525e-05
-1.41884e-05
-1.46796e-05
-1.46977e-05
-1.42456e-05
-1.33399e-05
-1.2005e-05
-1.02714e-05
-8.17691e-06
-5.7684e-06
-3.10187e-06
-2.41585e-07
2.7414e-06
5.77041e-06
8.76268e-06
1.1625e-05
1.4243e-05
1.64539e-05
1.80052e-05
1.84055e-05
1.69172e-05
1.25422e-05
-1.2273e-05
-1.1574e-05
-1.07496e-05
-1.00124e-05
-9.34857e-06
-8.78422e-06
-8.31068e-06
-7.91395e-06
-7.58239e-06
-7.30663e-06
-7.08022e-06
-6.89966e-06
-6.76428e-06
-6.67757e-06
-6.64758e-06
-6.68806e-06
-6.82419e-06
-7.09048e-06
-7.52657e-06
-8.19496e-06
-9.15954e-06
-1.04606e-05
-1.19353e-05
-1.32303e-05
-1.41552e-05
-1.46378e-05
-1.46497e-05
-1.41933e-05
-1.32856e-05
-1.19518e-05
-1.02239e-05
-8.1418e-06
-5.75485e-06
-3.12223e-06
-3.12252e-07
2.59865e-06
5.52617e-06
8.37632e-06
1.10392e-05
1.33759e-05
1.51894e-05
1.61869e-05
1.59057e-05
1.37949e-05
9.66906e-06
-1.16885e-05
-1.11903e-05
-1.0531e-05
-9.86972e-06
-9.25648e-06
-8.71725e-06
-8.25407e-06
-7.86154e-06
-7.53172e-06
-7.25703e-06
-7.03189e-06
-6.85324e-06
-6.72069e-06
-6.63795e-06
-6.61318e-06
-6.66012e-06
-6.80411e-06
-7.07916e-06
-7.52336e-06
-8.198e-06
-9.16498e-06
-1.04616e-05
-1.19245e-05
-1.32045e-05
-1.41152e-05
-1.45861e-05
-1.45889e-05
-1.41257e-05
-1.32144e-05
-1.18814e-05
-1.01607e-05
-8.09506e-06
-5.73719e-06
-3.15035e-06
-4.07882e-07
2.40733e-06
5.20248e-06
7.8723e-06
1.02927e-05
1.23092e-05
1.37182e-05
1.42533e-05
1.35829e-05
1.14273e-05
7.9589e-06
-1.12225e-05
-1.08422e-05
-1.031e-05
-9.7338e-06
-9.16934e-06
-8.65578e-06
-8.2033e-06
-7.81486e-06
-7.48621e-06
-7.21179e-06
-6.98717e-06
-6.80988e-06
-6.67984e-06
-6.601e-06
-6.58168e-06
-6.63545e-06
-6.78785e-06
-7.07227e-06
-7.52488e-06
-8.20567e-06
-9.17431e-06
-1.04645e-05
-1.19126e-05
-1.31742e-05
-1.40675e-05
-1.45239e-05
-1.45156e-05
-1.40448e-05
-1.31303e-05
-1.18003e-05
-1.00915e-05
-8.0498e-06
-5.73214e-06
-3.20639e-06
-5.51443e-07
2.14321e-06
4.77687e-06
7.23551e-06
9.38728e-06
1.10769e-05
1.21205e-05
1.23152e-05
1.14726e-05
9.51581e-06
6.66406e-06
-1.08187e-05
-1.052e-05
-1.00848e-05
-9.59033e-06
-9.08329e-06
-8.5977e-06
-8.15934e-06
-7.77637e-06
-7.44904e-06
-7.17442e-06
-6.94962e-06
-6.77306e-06
-6.6451e-06
-6.57005e-06
-6.5563e-06
-6.6172e-06
-6.77849e-06
-7.07275e-06
-7.53382e-06
-8.22021e-06
-9.18915e-06
-1.04701e-05
-1.18991e-05
-1.31379e-05
-1.40099e-05
-1.4449e-05
-1.44278e-05
-1.39492e-05
-1.30331e-05
-1.17101e-05
-1.00199e-05
-8.01248e-06
-5.74903e-06
-3.30249e-06
-7.57178e-07
1.79157e-06
4.2374e-06
6.46227e-06
8.33558e-06
9.71544e-06
1.04554e-05
1.0425e-05
9.54746e-06
7.86092e-06
5.5857e-06
-1.0442e-05
-1.0205e-05
-9.85489e-06
-9.43411e-06
-8.98263e-06
-8.53672e-06
-8.11924e-06
-7.74591e-06
-7.42196e-06
-7.14784e-06
-6.92284e-06
-6.7467e-06
-6.62053e-06
-6.54909e-06
-6.54096e-06
-6.60918e-06
-6.77963e-06
-7.08394e-06
-7.55306e-06
-8.24399e-06
-9.21115e-06
-1.04789e-05
-1.18835e-05
-1.30942e-05
-1.39402e-05
-1.43583e-05
-1.43225e-05
-1.38361e-05
-1.29208e-05
-1.16102e-05
-9.94737e-06
-7.98663e-06
-5.79382e-06
-3.44663e-06
-1.03402e-06
1.34477e-06
3.58138e-06
5.55992e-06
7.16011e-06
8.26402e-06
8.76861e-06
8.60664e-06
7.77375e-06
6.35591e-06
4.54319e-06
-1.00726e-05
-9.88415e-06
-9.60485e-06
-9.25523e-06
-8.86462e-06
-8.46361e-06
-8.07589e-06
-7.71929e-06
-7.40347e-06
-7.13273e-06
-6.90907e-06
-6.73409e-06
-6.61002e-06
-6.54238e-06
-6.54009e-06
-6.61575e-06
-6.79547e-06
-7.10974e-06
-7.58594e-06
-8.27962e-06
-9.24205e-06
-1.04915e-05
-1.18649e-05
-1.30408e-05
-1.38552e-05
-1.42484e-05
-1.4196e-05
-1.37024e-05
-1.27918e-05
-1.15006e-05
-9.87616e-06
-7.97704e-06
-5.8735e-06
-3.64719e-06
-1.38996e-06
7.98012e-07
2.81098e-06
4.54156e-06
5.8868e-06
6.75746e-06
7.09078e-06
6.86578e-06
6.11645e-06
4.93861e-06
3.48306e-06
-9.70127e-06
-9.55239e-06
-9.3317e-06
-9.0479e-06
-8.71944e-06
-8.3695e-06
-8.01994e-06
-7.68873e-06
-7.38834e-06
-7.12643e-06
-6.90789e-06
-6.73657e-06
-6.61618e-06
-6.5534e-06
-6.55767e-06
-6.64117e-06
-6.83027e-06
-7.15413e-06
-7.63571e-06
-8.32958e-06
-9.28328e-06
-1.05077e-05
-1.18416e-05
-1.29747e-05
-1.37511e-05
-1.41152e-05
-1.40448e-05
-1.35457e-05
-1.2645e-05
-1.13827e-05
-9.81021e-06
-7.99011e-06
-5.99626e-06
-3.91267e-06
-1.83158e-06
1.49641e-07
1.93263e-06
3.42361e-06
4.54063e-06
5.22246e-06
5.43815e-06
5.19555e-06
4.54374e-06
3.5709e-06
2.39257e-06
-9.32239e-06
-9.20726e-06
-9.03577e-06
-8.81063e-06
-8.54217e-06
-8.24665e-06
-7.94203e-06
-7.64485e-06
-7.36853e-06
-7.12301e-06
-6.91564e-06
-6.75256e-06
-6.63919e-06
-6.58362e-06
-6.59611e-06
-6.68837e-06
-6.88724e-06
-7.22015e-06
-7.70467e-06
-8.39535e-06
-9.33526e-06
-1.05265e-05
-1.18108e-05
-1.28923e-05
-1.36236e-05
-1.39544e-05
-1.38651e-05
-1.33638e-05
-1.24807e-05
-1.12594e-05
-9.75504e-06
-8.03346e-06
-6.17062e-06
-4.25061e-06
-2.3629e-06
-5.98235e-07
9.56389e-07
2.22376e-06
3.14312e-06
3.67687e-06
3.81602e-06
3.5826e-06
3.02822e-06
2.22705e-06
1.26623e-06
-8.93095e-06
-8.84606e-06
-8.71693e-06
-8.54359e-06
-8.33127e-06
-8.09055e-06
-7.83509e-06
-7.57896e-06
-7.33509e-06
-7.11432e-06
-6.92567e-06
-6.77719e-06
-6.67595e-06
-6.63148e-06
-6.65496e-06
-6.75765e-06
-6.96715e-06
-7.30836e-06
-7.79244e-06
-8.47647e-06
-9.39661e-06
-1.05447e-05
-1.17679e-05
-1.27878e-05
-1.34672e-05
-1.37614e-05
-1.3654e-05
-1.31561e-05
-1.23008e-05
-1.11355e-05
-9.7178e-06
-8.11564e-06
-6.4048e-06
-4.66669e-06
-2.98478e-06
-1.43996e-06
-1.05362e-07
9.58906e-07
1.71077e-06
2.13023e-06
2.2213e-06
2.01106e-06
1.54685e-06
8.88097e-07
1.00111e-07
-8.52153e-06
-8.46495e-06
-8.37356e-06
-8.24648e-06
-8.08598e-06
-7.89862e-06
-7.69419e-06
-7.48397e-06
-7.27945e-06
-7.09128e-06
-6.92927e-06
-6.80268e-06
-6.71988e-06
-6.69169e-06
-6.72994e-06
-6.84569e-06
-7.06713e-06
-7.41495e-06
-7.8942e-06
-8.56893e-06
-9.46293e-06
-1.05567e-05
-1.17065e-05
-1.26549e-05
-1.32765e-05
-1.35324e-05
-1.34102e-05
-1.29238e-05
-1.21097e-05
-1.10177e-05
-9.70713e-06
-8.24552e-06
-6.70588e-06
-5.16401e-06
-3.69471e-06
-2.36691e-06
-1.23919e-06
-3.56011e-07
2.55332e-07
5.86385e-07
6.47484e-07
4.65608e-07
8.08586e-08
-4.60516e-07
-1.10972e-06
-8.08826e-06
-8.05906e-06
-8.00244e-06
-7.91738e-06
-7.80472e-06
-7.66838e-06
-7.51514e-06
-7.35363e-06
-7.19351e-06
-7.04452e-06
-6.91644e-06
-6.81894e-06
-6.76129e-06
-6.7552e-06
-6.81227e-06
-6.94503e-06
-7.18109e-06
-7.52875e-06
-8.00237e-06
-8.66584e-06
-9.52527e-06
-1.0554e-05
-1.16184e-05
-1.24868e-05
-1.30466e-05
-1.32655e-05
-1.31348e-05
-1.26714e-05
-1.19146e-05
-1.09153e-05
-9.7326e-06
-8.43132e-06
-7.07869e-06
-5.74232e-06
-4.48661e-06
-3.36801e-06
-2.43141e-06
-1.70823e-06
-1.21516e-06
-9.53881e-07
-9.12061e-07
-1.06616e-06
-1.38445e-06
-1.8304e-06
-2.36753e-06
-7.62473e-06
-7.62256e-06
-7.59873e-06
-7.55256e-06
-7.48429e-06
-7.39631e-06
-7.29324e-06
-7.18153e-06
-7.06898e-06
-6.96404e-06
-6.87586e-06
-6.81392e-06
-6.78765e-06
-6.8092e-06
-6.88959e-06
-7.04228e-06
-7.29482e-06
-7.64133e-06
-8.10976e-06
-8.75491e-06
-9.56859e-06
-1.05235e-05
-1.14942e-05
-1.22769e-05
-1.27745e-05
-1.29614e-05
-1.28325e-05
-1.2407e-05
-1.17258e-05
-1.0839e-05
-9.80359e-06
-8.67931e-06
-7.52474e-06
-6.39742e-06
-5.351e-06
-4.43024e-06
-3.66828e-06
-3.08646e-06
-2.69453e-06
-2.49104e-06
-2.46444e-06
-2.59533e-06
-2.85896e-06
-3.22821e-06
-3.67557e-06
-7.1228e-06
-7.14763e-06
-7.15544e-06
-7.14591e-06
-7.11921e-06
-7.0769e-06
-7.02226e-06
-6.9601e-06
-6.89655e-06
-6.8387e-06
-6.7946e-06
-6.77304e-06
-6.78345e-06
-6.83709e-06
-6.94508e-06
-7.11995e-06
-7.3826e-06
-7.73845e-06
-8.20138e-06
-8.81568e-06
-9.57634e-06
-1.04508e-05
-1.13244e-05
-1.20206e-05
-1.24603e-05
-1.26246e-05
-1.25115e-05
-1.21418e-05
-1.15553e-05
-1.07995e-05
-9.92783e-06
-8.99255e-06
-8.04142e-06
-7.12117e-06
-6.2755e-06
-5.5392e-06
-4.93605e-06
-4.48014e-06
-4.17715e-06
-4.02475e-06
-4.01335e-06
-4.12782e-06
-4.34962e-06
-4.65887e-06
-5.03536e-06
-6.57324e-06
-6.62507e-06
-6.66362e-06
-6.68894e-06
-6.70138e-06
-6.70216e-06
-6.69371e-06
-6.67973e-06
-6.66509e-06
-6.65563e-06
-6.65811e-06
-6.67955e-06
-6.72979e-06
-6.81879e-06
-6.9568e-06
-7.15511e-06
-7.43041e-06
-7.79203e-06
-8.24856e-06
-8.82796e-06
-9.53067e-06
-1.03234e-05
-1.11009e-05
-1.17159e-05
-1.21076e-05
-1.22628e-05
-1.21827e-05
-1.18883e-05
-1.1415e-05
-1.08057e-05
-1.01095e-05
-9.36956e-06
-8.62155e-06
-7.90197e-06
-7.24595e-06
-6.68018e-06
-6.22143e-06
-5.87912e-06
-5.65688e-06
-5.55279e-06
-5.55965e-06
-5.66636e-06
-5.85946e-06
-6.12455e-06
-6.44689e-06
-5.96679e-06
-6.04542e-06
-6.11372e-06
-6.17214e-06
-6.2213e-06
-6.26238e-06
-6.29738e-06
-6.32924e-06
-6.36172e-06
-6.39953e-06
-6.44827e-06
-6.51509e-06
-6.6063e-06
-6.73142e-06
-6.90081e-06
-7.12372e-06
-7.4128e-06
-7.77675e-06
-8.22379e-06
-8.77013e-06
-9.41355e-06
-1.01268e-05
-1.0816e-05
-1.13631e-05
-1.17231e-05
-1.18867e-05
-1.18588e-05
-1.16587e-05
-1.13142e-05
-1.08628e-05
-1.03483e-05
-9.80323e-06
-9.2527e-06
-8.72486e-06
-8.24699e-06
-7.83884e-06
-7.51234e-06
-7.27439e-06
-7.12804e-06
-7.07227e-06
-7.10222e-06
-7.21024e-06
-7.38703e-06
-7.62258e-06
-7.90643e-06
-5.29359e-06
-5.39844e-06
-5.49533e-06
-5.58498e-06
-5.66832e-06
-5.74662e-06
-5.82166e-06
-5.8959e-06
-5.97257e-06
-6.05558e-06
-6.14975e-06
-6.26026e-06
-6.39185e-06
-6.55254e-06
-6.75245e-06
-6.99977e-06
-7.30231e-06
-7.66801e-06
-8.104e-06
-8.61781e-06
-9.20658e-06
-9.84935e-06
-1.04663e-05
-1.09649e-05
-1.13135e-05
-1.15074e-05
-1.15513e-05
-1.14606e-05
-1.12577e-05
-1.09725e-05
-1.06392e-05
-1.02816e-05
-9.91882e-06
-9.5727e-06
-9.26221e-06
-9.00073e-06
-8.7973e-06
-8.65801e-06
-8.58593e-06
-8.58086e-06
-8.63985e-06
-8.75806e-06
-8.92958e-06
-9.14791e-06
-9.40618e-06
-4.5488e-06
-4.67792e-06
-4.8012e-06
-4.91945e-06
-5.03384e-06
-5.14577e-06
-5.2569e-06
-5.3693e-06
-5.48552e-06
-5.6087e-06
-5.74293e-06
-5.89279e-06
-6.06287e-06
-6.25954e-06
-6.48886e-06
-6.75846e-06
-7.07399e-06
-7.44186e-06
-7.86716e-06
-8.35347e-06
-8.89788e-06
-9.48567e-06
-1.00527e-05
-1.05265e-05
-1.08864e-05
-1.11312e-05
-1.1263e-05
-1.1292e-05
-1.12384e-05
-1.11233e-05
-1.09653e-05
-1.07845e-05
-1.05998e-05
-1.04253e-05
-1.02717e-05
-1.0148e-05
-1.00621e-05
-1.00199e-05
-1.00243e-05
-1.00755e-05
-1.0172e-05
-1.03114e-05
-1.04902e-05
-1.07043e-05
-1.09492e-05
-3.74731e-06
-3.89722e-06
-4.04299e-06
-4.18563e-06
-4.32656e-06
-4.46734e-06
-4.60962e-06
-4.75525e-06
-4.90623e-06
-5.06494e-06
-5.23382e-06
-5.4161e-06
-5.61774e-06
-5.84249e-06
-6.09789e-06
-6.38611e-06
-6.71231e-06
-7.08236e-06
-7.50003e-06
-7.96715e-06
-8.48223e-06
-9.03733e-06
-9.58117e-06
-1.0056e-05
-1.04494e-05
-1.07603e-05
-1.09898e-05
-1.11469e-05
-1.12428e-05
-1.12883e-05
-1.1298e-05
-1.12888e-05
-1.1273e-05
-1.12579e-05
-1.12499e-05
-1.12568e-05
-1.12856e-05
-1.13409e-05
-1.14252e-05
-1.15391e-05
-1.16826e-05
-1.18548e-05
-1.20543e-05
-1.2279e-05
-1.25261e-05
-2.94496e-06
-3.11079e-06
-3.27436e-06
-3.43662e-06
-3.59899e-06
-3.76299e-06
-3.93018e-06
-4.10232e-06
-4.28124e-06
-4.46935e-06
-4.66982e-06
-4.8836e-06
-5.11308e-06
-5.3627e-06
-5.64021e-06
-5.94675e-06
-6.2859e-06
-6.66244e-06
-7.07949e-06
-7.53888e-06
-8.04093e-06
-8.58204e-06
-9.12405e-06
-9.62121e-06
-1.00611e-05
-1.04431e-05
-1.07685e-05
-1.10406e-05
-1.12646e-05
-1.14494e-05
-1.16059e-05
-1.17432e-05
-1.18672e-05
-1.19833e-05
-1.2098e-05
-1.22175e-05
-1.23468e-05
-1.2489e-05
-1.2646e-05
-1.28194e-05
-1.30099e-05
-1.32179e-05
-1.34426e-05
-1.36831e-05
-1.39376e-05
-2.25975e-06
-2.43469e-06
-2.60937e-06
-2.78457e-06
-2.96153e-06
-3.14168e-06
-3.32654e-06
-3.51751e-06
-3.71624e-06
-3.92435e-06
-4.14332e-06
-4.37818e-06
-4.63364e-06
-4.91357e-06
-5.21208e-06
-5.53459e-06
-5.8873e-06
-6.27352e-06
-6.69577e-06
-7.15666e-06
-7.65802e-06
-8.20003e-06
-8.75242e-06
-9.27461e-06
-9.75549e-06
-1.01946e-05
-1.05915e-05
-1.09474e-05
-1.12667e-05
-1.15554e-05
-1.18186e-05
-1.2061e-05
-1.22873e-05
-1.25032e-05
-1.27136e-05
-1.29224e-05
-1.31324e-05
-1.33462e-05
-1.35658e-05
-1.37928e-05
-1.40284e-05
-1.4273e-05
-1.45268e-05
-1.47895e-05
-1.50608e-05
-1.74072e-06
-1.92246e-06
-2.10554e-06
-2.29077e-06
-2.47931e-06
-2.67244e-06
-2.87152e-06
-3.07792e-06
-3.29336e-06
-3.51984e-06
-3.75941e-06
-4.01496e-06
-4.28775e-06
-4.57929e-06
-4.89034e-06
-5.22553e-06
-5.58902e-06
-5.98336e-06
-6.41127e-06
-6.87575e-06
-7.37951e-06
-7.92456e-06
-8.48546e-06
-9.02573e-06
-9.53468e-06
-1.00113e-05
-1.04553e-05
-1.08679e-05
-1.12517e-05
-1.16093e-05
-1.19438e-05
-1.22589e-05
-1.25591e-05
-1.28479e-05
-1.31284e-05
-1.34029e-05
-1.36736e-05
-1.39427e-05
-1.42119e-05
-1.44827e-05
-1.47559e-05
-1.50322e-05
-1.53121e-05
-1.55956e-05
-1.58829e-05
-1.35753e-06
-1.54498e-06
-1.73515e-06
-1.92886e-06
-2.12722e-06
-2.33139e-06
-2.54264e-06
-2.76234e-06
-2.99192e-06
-3.23282e-06
-3.48689e-06
-3.75499e-06
-4.04012e-06
-4.34277e-06
-4.66586e-06
-5.01249e-06
-5.38534e-06
-5.78695e-06
-6.22017e-06
-6.68798e-06
-7.19337e-06
-7.73898e-06
-8.30284e-06
-8.8519e-06
-9.37612e-06
-9.87492e-06
-1.03482e-05
-1.07965e-05
-1.12209e-05
-1.16231e-05
-1.20059e-05
-1.23722e-05
-1.27244e-05
-1.30647e-05
-1.33949e-05
-1.37169e-05
-1.40324e-05
-1.4343e-05
-1.46501e-05
-1.49547e-05
-1.52575e-05
-1.55594e-05
-1.58605e-05
-1.61611e-05
-1.64613e-05
-1.08089e-06
-1.27425e-06
-1.47146e-06
-1.67335e-06
-1.88093e-06
-2.09525e-06
-2.31741e-06
-2.54851e-06
-2.7897e-06
-3.04232e-06
-3.30774e-06
-3.58797e-06
-3.88377e-06
-4.19726e-06
-4.53076e-06
-4.88636e-06
-5.26636e-06
-5.67323e-06
-6.10964e-06
-6.57835e-06
-7.08223e-06
-7.62401e-06
-8.1844e-06
-8.7339e-06
-9.26361e-06
-9.77308e-06
-1.0262e-05
-1.07306e-05
-1.11797e-05
-1.1611e-05
-1.20261e-05
-1.24265e-05
-1.28137e-05
-1.3189e-05
-1.35539e-05
-1.39096e-05
-1.42575e-05
-1.45986e-05
-1.49338e-05
-1.5264e-05
-1.55897e-05
-1.59114e-05
-1.62295e-05
-1.65441e-05
-1.68553e-05
-8.88995e-07
-1.08866e-06
-1.29301e-06
-1.50287e-06
-1.71916e-06
-1.94279e-06
-2.17471e-06
-2.41591e-06
-2.66747e-06
-2.93055e-06
-3.20631e-06
-3.49614e-06
-3.80146e-06
-4.12395e-06
-4.46533e-06
-4.82741e-06
-5.21225e-06
-5.62205e-06
-6.05916e-06
-6.52602e-06
-7.02525e-06
-7.55935e-06
-8.11138e-06
-8.65543e-06
-9.18367e-06
-9.69561e-06
-1.0191e-05
-1.06701e-05
-1.11337e-05
-1.15826e-05
-1.20176e-05
-1.24396e-05
-1.28495e-05
-1.32483e-05
-1.36369e-05
-1.40162e-05
-1.4387e-05
-1.47501e-05
-1.51059e-05
-1.54551e-05
-1.57982e-05
-1.61353e-05
-1.64669e-05
-1.6793e-05
-1.71137e-05
-7.61472e-07
-9.6755e-07
-1.17893e-06
-1.3964e-06
-1.62078e-06
-1.85292e-06
-2.09368e-06
-2.34391e-06
-2.60449e-06
-2.87652e-06
-3.16092e-06
-3.45907e-06
-3.7722e-06
-4.10162e-06
-4.44882e-06
-4.81539e-06
-5.20311e-06
-5.61382e-06
-6.04956e-06
-6.51242e-06
-7.00468e-06
-7.52854e-06
-8.06914e-06
-8.60402e-06
-9.12634e-06
-9.63569e-06
-1.01319e-05
-1.0615e-05
-1.10855e-05
-1.15437e-05
-1.199e-05
-1.24251e-05
-1.28494e-05
-1.32636e-05
-1.36682e-05
-1.40637e-05
-1.44506e-05
-1.48293e-05
-1.52001e-05
-1.55635e-05
-1.59196e-05
-1.62687e-05
-1.66108e-05
-1.69462e-05
-1.72745e-05
-6.80453e-07
-8.9282e-07
-1.11093e-06
-1.33552e-06
-1.56736e-06
-1.8072e-06
-2.05581e-06
-2.31386e-06
-2.58237e-06
-2.86181e-06
-3.15355e-06
-3.45857e-06
-3.77786e-06
-4.11259e-06
-4.46402e-06
-4.8335e-06
-5.22251e-06
-5.63259e-06
-6.06547e-06
-6.52289e-06
-7.00683e-06
-7.51906e-06
-8.04669e-06
-8.57044e-06
-9.08442e-06
-9.58817e-06
-1.00814e-05
-1.05642e-05
-1.10367e-05
-1.1499e-05
-1.19513e-05
-1.23939e-05
-1.28271e-05
-1.32511e-05
-1.36663e-05
-1.40728e-05
-1.44708e-05
-1.48607e-05
-1.52424e-05
-1.56163e-05
-1.59823e-05
-1.63405e-05
-1.66911e-05
-1.70339e-05
-1.7369e-05
-6.31585e-07
-8.49917e-07
-1.07428e-06
-1.3054e-06
-1.54396e-06
-1.79061e-06
-2.04607e-06
-2.31101e-06
-2.58591e-06
-2.87185e-06
-3.16971e-06
-3.48026e-06
-3.80442e-06
-4.14316e-06
-4.49755e-06
-4.86871e-06
-5.25786e-06
-5.66628e-06
-6.0954e-06
-6.54664e-06
-7.02168e-06
-7.5219e-06
-8.03616e-06
-8.54813e-06
-9.05266e-06
-9.54921e-06
-1.00375e-05
-1.05175e-05
-1.09891e-05
-1.14523e-05
-1.19072e-05
-1.23539e-05
-1.27923e-05
-1.32225e-05
-1.36446e-05
-1.40586e-05
-1.44644e-05
-1.48623e-05
-1.52521e-05
-1.56338e-05
-1.60074e-05
-1.6373e-05
-1.67303e-05
-1.70794e-05
-1.74206e-05
-6.03864e-07
-8.27685e-07
-1.05773e-06
-1.29469e-06
-1.53918e-06
-1.79177e-06
-2.05306e-06
-2.32381e-06
-2.60439e-06
-2.89576e-06
-3.19862e-06
-3.51365e-06
-3.84164e-06
-4.18339e-06
-4.53981e-06
-4.91179e-06
-5.30036e-06
-5.70653e-06
-6.1315e-06
-6.57637e-06
-7.04254e-06
-7.53104e-06
-8.03233e-06
-8.53267e-06
-9.02755e-06
-9.51635e-06
-9.9988e-06
-1.04747e-05
-1.0944e-05
-1.14065e-05
-1.18621e-05
-1.23106e-05
-1.27519e-05
-1.3186e-05
-1.36126e-05
-1.40318e-05
-1.44432e-05
-1.4847e-05
-1.52428e-05
-1.56306e-05
-1.60103e-05
-1.63816e-05
-1.67446e-05
-1.7099e-05
-1.74449e-05
-5.89255e-07
-8.18017e-07
-1.05313e-06
-1.29523e-06
-1.5449e-06
-1.80266e-06
-2.06902e-06
-2.34472e-06
-2.6301e-06
-2.92599e-06
-3.23299e-06
-3.55167e-06
-3.88268e-06
-4.22673e-06
-4.58452e-06
-4.9568e-06
-5.34439e-06
-5.74809e-06
-6.16886e-06
-6.60753e-06
-7.06528e-06
-7.54278e-06
-8.03195e-06
-8.52133e-06
-9.00692e-06
-9.48811e-06
-9.96457e-06
-1.04361e-05
-1.09024e-05
-1.13632e-05
-1.18183e-05
-1.22675e-05
-1.27104e-05
-1.31469e-05
-1.35767e-05
-1.39995e-05
-1.44151e-05
-1.48233e-05
-1.52238e-05
-1.56165e-05
-1.6001e-05
-1.63772e-05
-1.67449e-05
-1.71038e-05
-1.74539e-05
-5.82238e-07
-8.15385e-07
-1.05496e-06
-1.30156e-06
-1.55572e-06
-1.81794e-06
-2.08878e-06
-2.36873e-06
-2.65809e-06
-2.95779e-06
-3.26825e-06
-3.58993e-06
-3.92341e-06
-4.26923e-06
-4.62798e-06
-5.00026e-06
-5.38671e-06
-5.78793e-06
-6.20469e-06
-6.63758e-06
-7.08755e-06
-7.55499e-06
-8.0331e-06
-8.51243e-06
-8.98944e-06
-9.46349e-06
-9.93424e-06
-1.04014e-05
-1.08645e-05
-1.13234e-05
-1.17776e-05
-1.22267e-05
-1.26705e-05
-1.31086e-05
-1.35406e-05
-1.39661e-05
-1.43849e-05
-1.47967e-05
-1.5201e-05
-1.55975e-05
-1.59861e-05
-1.63664e-05
-1.67381e-05
-1.71011e-05
-1.74551e-05
-5.79253e-07
-8.1626e-07
-1.05974e-06
-1.31026e-06
-1.56832e-06
-1.83439e-06
-2.109e-06
-2.39278e-06
-2.68549e-06
-2.98842e-06
-3.30182e-06
-3.62603e-06
-3.96154e-06
-4.30879e-06
-4.66825e-06
-5.04037e-06
-5.42565e-06
-5.82454e-06
-6.23759e-06
-6.66521e-06
-7.10814e-06
-7.56652e-06
-8.03472e-06
-8.505e-06
-8.97425e-06
-9.44182e-06
-9.90733e-06
-1.03704e-05
-1.08305e-05
-1.12874e-05
-1.17405e-05
-1.21893e-05
-1.26336e-05
-1.30728e-05
-1.35064e-05
-1.39342e-05
-1.43555e-05
-1.47701e-05
-1.51776e-05
-1.55775e-05
-1.59695e-05
-1.63532e-05
-1.67285e-05
-1.7095e-05
-1.74525e-05
-5.78155e-07
-8.18546e-07
-1.06544e-06
-1.31938e-06
-1.58083e-06
-1.85023e-06
-2.12826e-06
-2.41515e-06
-2.71078e-06
-3.01652e-06
-3.33245e-06
-3.65882e-06
-3.99605e-06
-4.34449e-06
-4.70449e-06
-5.0764e-06
-5.46058e-06
-5.85732e-06
-6.26703e-06
-6.68993e-06
-7.12656e-06
-7.57687e-06
-8.03625e-06
-8.49848e-06
-8.96081e-06
-9.42259e-06
-9.8834e-06
-1.03428e-05
-1.08002e-05
-1.12551e-05
-1.17071e-05
-1.21557e-05
-1.26002e-05
-1.30402e-05
-1.34753e-05
-1.39048e-05
-1.43283e-05
-1.47454e-05
-1.51555e-05
-1.55582e-05
-1.59532e-05
-1.63401e-05
-1.67184e-05
-1.7088e-05
-1.74484e-05
-5.7775e-07
-8.211e-07
-1.07098e-06
-1.3279e-06
-1.59231e-06
-1.86464e-06
-2.14574e-06
-2.43507e-06
-2.73339e-06
-3.04156e-06
-3.35969e-06
-3.68794e-06
-4.02665e-06
-4.3761e-06
-4.73655e-06
-5.10824e-06
-5.49141e-06
-5.88623e-06
-6.29295e-06
-6.71165e-06
-7.1427e-06
-7.58586e-06
-8.03743e-06
-8.49253e-06
-8.94876e-06
-9.40544e-06
-9.8621e-06
-1.03182e-05
-1.07731e-05
-1.12264e-05
-1.16775e-05
-1.21256e-05
-1.25704e-05
-1.30112e-05
-1.34474e-05
-1.38784e-05
-1.43038e-05
-1.4723e-05
-1.51355e-05
-1.55407e-05
-1.59384e-05
-1.63279e-05
-1.6709e-05
-1.70814e-05
-1.74445e-05
-5.7744e-07
-8.23375e-07
-1.07585e-06
-1.33539e-06
-1.60238e-06
-1.87732e-06
-2.16101e-06
-2.45249e-06
-2.75319e-06
-3.06348e-06
-3.38353e-06
-3.71342e-06
-4.05342e-06
-4.40375e-06
-4.76458e-06
-5.13607e-06
-5.51833e-06
-5.91145e-06
-6.31553e-06
-6.73052e-06
-7.15665e-06
-7.5935e-06
-8.03819e-06
-8.48702e-06
-8.93788e-06
-9.39009e-06
-9.8431e-06
-1.02963e-05
-1.07492e-05
-1.1201e-05
-1.16512e-05
-1.20991e-05
-1.25441e-05
-1.29855e-05
-1.34227e-05
-1.38552e-05
-1.42822e-05
-1.47033e-05
-1.51179e-05
-1.55254e-05
-1.59253e-05
-1.63173e-05
-1.67008e-05
-1.70756e-05
-1.7441e-05
-5.76981e-07
-8.25166e-07
-1.07991e-06
-1.34171e-06
-1.61096e-06
-1.88818e-06
-2.17403e-06
-2.46753e-06
-2.77028e-06
-3.08243e-06
-3.40415e-06
-3.73547e-06
-4.0766e-06
-4.42769e-06
-4.78886e-06
-5.16016e-06
-5.54164e-06
-5.93326e-06
-6.33503e-06
-6.74677e-06
-7.16858e-06
-7.59989e-06
-8.03854e-06
-8.48188e-06
-8.92806e-06
-9.37636e-06
-9.82622e-06
-1.0277e-05
-1.0728e-05
-1.11785e-05
-1.1628e-05
-1.20757e-05
-1.25209e-05
-1.2963e-05
-1.34012e-05
-1.38349e-05
-1.42634e-05
-1.46862e-05
-1.51026e-05
-1.55121e-05
-1.59141e-05
-1.63082e-05
-1.66939e-05
-1.70709e-05
-1.74384e-05
-5.76283e-07
-8.26451e-07
-1.08319e-06
-1.34698e-06
-1.6182e-06
-1.89739e-06
-2.1851e-06
-2.48042e-06
-2.78497e-06
-3.09878e-06
-3.42195e-06
-3.75453e-06
-4.09667e-06
-4.44844e-06
-4.80991e-06
-5.18106e-06
-5.56185e-06
-5.95215e-06
-6.3519e-06
-6.7608e-06