/*--------------------------------*- C++ -*----------------------------------*\
| =========                 |                                                 |
| \\      /  F ield         | OpenFOAM: The Open Source CFD Toolbox           |
|  \\    /   O peration     | Version:  2312                                  |
|   \\  /    A nd           | Website:  www.openfoam.com                      |
|    \\/     M anipulation  |                                                 |
\*---------------------------------------------------------------------------*/
FoamFile
{
    version     2.0;
    format      ascii;
    arch        "LSB;label=32;scalar=64";
    class       volVectorField;
    location    "129.75";
    object      U;
}
// * * * * * * * * * * * * * * * * * * * * * * * * * * * * * * * * * * * * * //

dimensions      [0 1 -1 0 0 0 0];

internalField   nonuniform List<vector> 
4800
(
(0.00049228 4.02944e-07 -3.52141e-26)
(0.000481896 4.71658e-07 -2.48195e-25)
(0.000474859 5.11708e-07 3.18384e-25)
(0.000470176 5.23848e-07 1.46086e-25)
(0.000467253 5.0569e-07 2.16069e-24)
(0.00046574 4.70766e-07 -5.1498e-24)
(0.000465424 4.1326e-07 4.80582e-24)
(0.000466301 3.25235e-07 -6.95341e-24)
(0.000468278 1.81542e-07 2.23704e-24)
(0.00047153 -9.8581e-08 7.6019e-24)
(0.000476477 -6.56617e-07 -2.34424e-24)
(0.000484458 -2.12999e-06 -2.01018e-25)
(0.000502755 -7.47975e-06 -2.84549e-24)
(0.000549954 -2.91845e-05 1.30018e-24)
(0.000629413 -9.66343e-05 -1.02773e-24)
(0.00151836 2.10934e-06 -1.11971e-25)
(0.00148641 1.68736e-06 1.39577e-25)
(0.00146451 1.34607e-06 -1.2926e-24)
(0.00144967 1.03058e-06 9.65386e-25)
(0.0014401 6.99304e-07 3.10657e-24)
(0.00143473 3.39244e-07 -4.96057e-24)
(0.00143288 -9.17048e-08 -1.40285e-24)
(0.00143444 -6.84231e-07 -3.25329e-25)
(0.00143905 -1.51711e-06 1.15173e-23)
(0.00144735 -2.90631e-06 -8.52575e-24)
(0.00146047 -5.52867e-06 9.28776e-25)
(0.00148127 -1.16351e-05 1.40847e-24)
(0.00151869 -2.90835e-05 -2.0708e-24)
(0.00158401 -8.23217e-05 -6.02468e-25)
(0.00165557 -0.000204084 2.68053e-24)
(0.00264862 6.82005e-06 -8.00958e-26)
(0.00259336 5.43903e-06 8.18153e-26)
(0.00255509 4.35251e-06 8.45516e-25)
(0.00252882 3.38135e-06 -2.0175e-24)
(0.00251147 2.40281e-06 1.98163e-24)
(0.00250119 1.31698e-06 1.86789e-24)
(0.00249672 -3.14519e-08 -4.7813e-24)
(0.00249783 -1.79955e-06 -2.92144e-24)
(0.00250364 -4.26237e-06 7.09527e-24)
(0.00251514 -8.18001e-06 2.6865e-24)
(0.00253348 -1.50751e-05 -9.35382e-24)
(0.0025608 -2.89728e-05 -1.39857e-24)
(0.00260129 -5.97426e-05 3.988e-24)
(0.00265376 -0.000127511 6.26316e-24)
(0.00269235 -0.000241817 -3.23072e-24)
(0.0038891 1.53231e-05 2.95786e-26)
(0.00380922 1.23454e-05 -2.06444e-25)
(0.00375334 1.0007e-05 9.22901e-25)
(0.00371443 7.92815e-06 9.90533e-25)
(0.00368813 5.85462e-06 -9.8253e-25)
(0.00367177 3.5798e-06 -5.68831e-24)
(0.00366341 8.14033e-07 -3.87426e-24)
(0.00366258 -2.85304e-06 1.43523e-23)
(0.00366783 -7.60219e-06 5.88542e-24)
(0.00367988 -1.50387e-05 -8.58924e-24)
(0.00369931 -2.71817e-05 -3.46634e-24)
(0.00372622 -4.85572e-05 -2.63395e-24)
(0.00375985 -8.75038e-05 8.19872e-26)
(0.00379278 -0.000154625 1.94308e-24)
(0.00380583 -0.000245802 9.4956e-27)
(0.00524383 2.84795e-05 -5.42183e-26)
(0.005139 2.31355e-05 -3.32884e-25)
(0.00506479 1.89361e-05 -2.12213e-25)
(0.00501234 1.52221e-05 5.70064e-25)
(0.00497609 1.15585e-05 -1.62468e-24)
(0.00495248 7.61118e-06 4.05418e-24)
(0.00493896 2.90737e-06 -7.14682e-25)
(0.00493433 -3.04846e-06 2.48943e-24)
(0.00493716 -1.07874e-05 -1.37803e-23)
(0.00494695 -2.20198e-05 2.62469e-23)
(0.00496337 -3.90163e-05 -2.5453e-23)
(0.00498468 -6.53686e-05 1.34117e-23)
(0.00500736 -0.000106181 -1.24371e-23)
(0.00502335 -0.000164838 1.17421e-23)
(0.00502155 -0.000234042 -4.6882e-24)
(0.00671307 4.72645e-05 7.15686e-26)
(0.00658474 3.87393e-05 2.57404e-25)
(0.00649259 3.20197e-05 -1.3593e-24)
(0.0064264 2.61028e-05 -8.64137e-25)
(0.0063796 2.03338e-05 2.3139e-24)
(0.00634786 1.42324e-05 8.30692e-25)
(0.00632801 7.16424e-06 -6.49819e-24)
(0.00631806 -1.45298e-06 1.55023e-23)
(0.0063163 -1.24053e-05 -2.01433e-23)
(0.00632138 -2.72984e-05 4.83263e-24)
(0.00633168 -4.79223e-05 1.46635e-23)
(0.00634452 -7.65068e-05 -2.03619e-23)
(0.0063558 -0.000115058 1.01924e-23)
(0.00635942 -0.00016315 1.04916e-23)
(0.00635013 -0.000214579 -7.99343e-24)
(0.008291 7.24204e-05 5.92025e-26)
(0.00814348 5.99949e-05 -3.51001e-25)
(0.00803566 5.013e-05 1.26026e-24)
(0.00795679 4.14584e-05 -1.75066e-24)
(0.00789972 3.30914e-05 -5.95842e-24)
(0.00785955 2.43976e-05 1.01576e-23)
(0.00783263 1.46389e-05 -6.16694e-24)
(0.00781629 3.11275e-06 2.09748e-23)
(0.00780834 -1.09268e-05 -1.42677e-23)
(0.00780675 -2.87959e-05 -6.66134e-24)
(0.00780919 -5.16457e-05 -1.31007e-23)
(0.0078127 -8.03118e-05 1.20415e-23)
(0.00781383 -0.000114794 3.39044e-24)
(0.00780875 -0.000153294 2.91884e-24)
(0.0077956 -0.000191574 -2.56984e-24)
(0.00996298 0.00010395 -8.56366e-26)
(0.00980468 8.72548e-05 1.16293e-24)
(0.00968625 7.38149e-05 -2.71071e-24)
(0.00959773 6.19648e-05 -2.22815e-24)
(0.00953211 5.06155e-05 8.30885e-25)
(0.00948431 3.90094e-05 1.6401e-24)
(0.00945042 2.6374e-05 5.88867e-24)
(0.00942737 1.19824e-05 -1.60359e-23)
(0.00941252 -4.81068e-06 -8.55018e-24)
(0.00940343 -2.48187e-05 2.35398e-23)
(0.00939758 -4.85528e-05 -7.30781e-24)
(0.00939227 -7.59092e-05 2.50062e-23)
(0.00938504 -0.000105982 -1.31704e-23)
(0.00937369 -0.000136914 -4.22364e-24)
(0.009358 -0.000166096 2.50538e-24)
(0.0117042 0.000140459 -1.14521e-26)
(0.0115481 0.000119844 6.44602e-25)
(0.0114275 0.000102851 -9.1794e-25)
(0.011335 8.77103e-05 2.20456e-24)
(0.0112646 7.32392e-05 -1.31557e-23)
(0.0112115 5.86262e-05 1.38927e-23)
(0.0111721 4.31408e-05 -2.19008e-23)
(0.0111432 2.61457e-05 1.34641e-23)
(0.0111219 7.17088e-06 1.00144e-23)
(0.0111058 -1.41287e-05 2.17641e-23)
(0.0110925 -3.77359e-05 -2.84366e-23)
(0.0110798 -6.31012e-05 -5.2967e-24)
(0.0110661 -8.9154e-05 2.4e-24)
(0.0110502 -0.000114477 1.75025e-23)
(0.0110326 -0.000137565 -7.13756e-24)
(0.0134824 0.000178559 6.45692e-26)
(0.0133445 0.000155449 -2.7451e-25)
(0.0132333 0.000135666 1.21563e-24)
(0.013145 0.000117663 -4.26344e-24)
(0.0130756 0.000100352 6.46507e-24)
(0.0130216 8.2993e-05 -8.35123e-24)
(0.0129797 6.4989e-05 1.39849e-23)
(0.0129471 4.58794e-05 2.4573e-24)
(0.0129212 2.54328e-05 -1.92924e-23)
(0.0128998 3.62475e-06 2.75208e-23)
(0.012881 -1.92095e-05 -3.03782e-23)
(0.0128631 -4.24165e-05 -9.01054e-24)
(0.0128451 -6.51072e-05 1.58372e-23)
(0.0128263 -8.63661e-05 4.7281e-24)
(0.0128072 -0.000105374 -2.07043e-24)
(0.0152694 0.000213107 2.77088e-25)
(0.0151634 0.000189945 -2.172e-24)
(0.0150729 0.000168974 -3.4082e-24)
(0.0149978 0.000149219 8.11253e-24)
(0.0149365 0.000129909 3.62174e-24)
(0.0148869 0.00011053 -2.27532e-23)
(0.0148469 9.07146e-05 7.00558e-24)
(0.0148142 7.02396e-05 5.04401e-24)
(0.0147868 4.90963e-05 -2.18943e-23)
(0.014763 2.74837e-05 2.27705e-23)
(0.0147415 5.82132e-06 -1.83601e-23)
(0.0147209 -1.5317e-05 4.71126e-23)
(0.0147009 -3.53039e-05 -2.27413e-23)
(0.0146809 -5.36201e-05 1.34329e-23)
(0.0146614 -6.98526e-05 -3.67688e-24)
(0.0170577 0.000239317 -1.3035e-25)
(0.016988 0.000218646 1.52186e-24)
(0.016924 0.000198472 -2.88513e-24)
(0.016868 0.000178532 -1.43861e-24)
(0.0168202 0.000158517 1.61318e-23)
(0.0167799 0.000138258 -2.34783e-24)
(0.0167459 0.00011768 -2.86697e-23)
(0.0167169 9.68107e-05 3.34613e-23)
(0.0166915 7.58237e-05 -7.50365e-24)
(0.0166685 5.50234e-05 -2.60992e-23)
(0.0166472 3.48124e-05 2.79092e-23)
(0.0166268 1.56116e-05 1.51761e-23)
(0.0166071 -2.1809e-06 -1.26396e-23)
(0.0165877 -1.83062e-05 -2.21252e-23)
(0.0165692 -3.25817e-05 1.86382e-24)
(0.0188683 0.000256176 2.63883e-26)
(0.0188266 0.00023925 -1.76309e-24)
(0.0187858 0.000221232 8.01032e-24)
(0.0187482 0.000202425 4.18495e-25)
(0.0187147 0.000182949 4.4204e-24)
(0.0186851 0.000162989 -1.59524e-23)
(0.0186591 0.000142753 1.3604e-23)
(0.0186358 0.00012247 3.11045e-24)
(0.0186147 0.000102433 2.80694e-23)
(0.0185948 8.29678e-05 -4.32983e-23)
(0.0185761 6.4413e-05 -1.96841e-23)
(0.0185579 4.70531e-05 -1.3116e-23)
(0.0185403 3.11182e-05 2.46132e-23)
(0.018523 1.67153e-05 -7.21587e-25)
(0.0185066 3.90624e-06 2.40533e-24)
(0.0207277 0.000267389 -3.98766e-27)
(0.020701 0.000253819 1.91595e-24)
(0.0206741 0.000238112 -2.77398e-24)
(0.0206487 0.0002209 1.67066e-26)
(0.0206254 0.000202597 3.30148e-24)
(0.0206041 0.000183654 8.33921e-24)
(0.0205847 0.000164481 -3.23577e-23)
(0.0205667 0.000145426 2.73066e-24)
(0.0205498 0.00012682 1.64347e-23)
(0.0205335 0.000108961 -7.60514e-24)
(0.0205179 9.211e-05 2.07542e-23)
(0.0205025 7.64461e-05 1.46294e-23)
(0.0204877 6.20943e-05 -2.65149e-23)
(0.020473 4.908e-05 1.82572e-23)
(0.0204591 3.74077e-05 -1.5183e-23)
(0.0226264 0.000275182 -2.73035e-25)
(0.0226086 0.000265481 -3.592e-25)
(0.0225889 0.000252004 3.49168e-24)
(0.0225701 0.000236441 -1.63318e-23)
(0.0225525 0.000219504 1.4262e-23)
(0.022536 0.000201854 -1.00528e-23)
(0.0225207 0.000184019 7.24421e-24)
(0.0225061 0.000166395 -5.08346e-23)
(0.0224921 0.000149308 7.33909e-23)
(0.0224785 0.000133007 -4.32622e-23)
(0.0224653 0.000117682 3.86657e-23)
(0.0224523 0.000103442 3.24977e-23)
(0.0224398 9.03486e-05 -5.68062e-23)
(0.0224273 7.83894e-05 1.85275e-23)
(0.0224156 6.75416e-05 -7.80812e-25)
(0.0245107 0.000280572 -1.05692e-26)
(0.0245006 0.000275145 -1.31631e-24)
(0.0244864 0.000264299 1.4023e-24)
(0.0244722 0.000250607 -4.63897e-25)
(0.0244585 0.000235221 6.07822e-24)
(0.0244454 0.000219043 -1.02795e-23)
(0.0244329 0.000202674 9.36485e-24)
(0.0244208 0.000186512 -2.92773e-23)
(0.0244091 0.000170862 6.64067e-23)
(0.0243975 0.000155936 -8.48439e-23)
(0.0243863 0.000141878 6.94785e-23)
(0.0243752 0.000128755 -2.34673e-23)
(0.0243645 0.000116596 1.23085e-24)
(0.0243539 0.000105375 5.4292e-24)
(0.0243438 9.50608e-05 -1.03862e-23)
(0.0262952 0.000283971 -8.07226e-25)
(0.0262898 0.000280945 2.93009e-25)
(0.0262821 0.000274216 1.50888e-24)
(0.0262722 0.000262922 -3.30074e-24)
(0.0262623 0.000249496 1.11367e-23)
(0.0262525 0.000235069 -1.08778e-23)
(0.0262429 0.000220312 -8.98225e-24)
(0.0262333 0.000205631 -2.12182e-23)
(0.0262239 0.000191325 1.12275e-23)
(0.0262145 0.000177593 5.14193e-23)
(0.0262054 0.000164563 -2.70554e-23)
(0.0261962 0.000152286 1.60487e-23)
(0.0261874 0.000140783 -6.61017e-24)
(0.0261785 0.000130029 -1.95744e-23)
(0.02617 0.00012 1.00193e-23)
(0.0278639 0.000285905 2.70048e-25)
(0.0278618 0.000284148 -3.08132e-25)
(0.0278582 0.000279726 2.02095e-24)
(0.027853 0.000271996 -7.63467e-24)
(0.0278467 0.000260925 -2.00779e-24)
(0.0278401 0.000248576 2.02427e-23)
(0.0278334 0.000235637 -1.5004e-23)
(0.0278265 0.000222539 -8.48961e-24)
(0.0278196 0.000209587 8.02237e-24)
(0.0278126 0.000196988 -8.76659e-24)
(0.0278056 0.000184867 2.05451e-23)
(0.0277986 0.000173282 1.01691e-23)
(0.0277917 0.000162259 -3.80656e-23)
(0.0277847 0.000151788 2.61995e-23)
(0.0277781 0.000141857 -5.32311e-24)
(0.0290503 0.000286201 8.62566e-25)
(0.0290522 0.000285582 2.55239e-25)
(0.0290517 0.000283024 -9.66747e-25)
(0.0290503 0.000277873 3.25852e-24)
(0.0290478 0.000269149 -5.03275e-24)
(0.0290449 0.000258885 -9.04384e-24)
(0.0290416 0.000247719 -8.92374e-24)
(0.0290378 0.00023612 2.47e-23)
(0.0290337 0.000224425 2.22314e-23)
(0.0290295 0.000212848 -5.32087e-23)
(0.0290251 0.000201521 2.97716e-23)
(0.0290205 0.00019051 -2.02402e-24)
(0.029016 0.000179854 -1.6093e-24)
(0.0290112 0.00016956 2.14303e-24)
(0.0290066 0.00015963 -9.80259e-25)
(0.0296279 0.000277715 -2.11102e-24)
(0.029636 0.000281949 -2.44964e-24)
(0.0296409 0.000281164 4.18596e-24)
(0.029644 0.000276895 -1.11896e-25)
(0.0296463 0.000270228 7.41963e-25)
(0.0296477 0.000261928 3.8487e-24)
(0.0296485 0.000252548 -2.99243e-24)
(0.0296487 0.00024251 -1.97641e-23)
(0.0296483 0.000232125 4.39967e-23)
(0.0296476 0.000221595 -1.80554e-23)
(0.0296465 0.000211052 6.82838e-24)
(0.0296452 0.000200577 -1.20863e-23)
(0.0296436 0.00019023 -1.20877e-23)
(0.0296418 0.000180043 1.76146e-23)
(0.0296399 0.000170037 -7.5143e-24)
(0.0294139 0.000266697 3.10811e-24)
(0.0294237 0.000272456 -6.41442e-24)
(0.0294313 0.000273428 1.68101e-24)
(0.0294375 0.000271114 3.00632e-24)
(0.0294427 0.000266372 -6.64557e-25)
(0.0294471 0.000259822 -2.15447e-24)
(0.0294507 0.000251988 -8.34732e-24)
(0.0294538 0.000243283 2.0552e-23)
(0.0294563 0.000233997 5.42908e-24)
(0.0294583 0.000224322 -1.26825e-23)
(0.02946 0.00021439 -6.6796e-24)
(0.0294613 0.000204297 7.71151e-24)
(0.0294623 0.000194118 -8.22579e-24)
(0.0294631 0.000183903 4.70359e-24)
(0.0294636 0.00017369 -2.03937e-24)
(0.0284189 0.000252177 1.81244e-24)
(0.0284356 0.000258324 -3.57456e-24)
(0.0284502 0.000260167 -1.50958e-24)
(0.0284629 0.000258894 7.13547e-24)
(0.028474 0.000255298 -4.73517e-24)
(0.0284838 0.000249959 1.1353e-24)
(0.0284925 0.000243331 1.34223e-25)
(0.0285003 0.000235746 -8.26157e-25)
(0.0285072 0.000227444 -2.48795e-24)
(0.0285134 0.000218592 1.64599e-23)
(0.0285188 0.00020932 -1.01084e-23)
(0.0285236 0.000199725 1.25339e-24)
(0.0285279 0.000189886 -1.43884e-23)
(0.0285317 0.00017986 6.96902e-24)
(0.028535 0.000169692 2.30614e-24)
(0.026833 0.000233411 4.33732e-24)
(0.0268509 0.00023916 -7.41838e-24)
(0.0268676 0.000241137 1.59645e-24)
(0.0268828 0.000240319 -2.25495e-24)
(0.0268968 0.000237428 -1.54142e-24)
(0.0269098 0.000232957 7.31965e-24)
(0.0269219 0.000227251 -1.72629e-24)
(0.0269331 0.000220564 -1.45552e-25)
(0.0269435 0.000213092 3.70008e-25)
(0.0269531 0.000204989 3.56942e-24)
(0.026962 0.000196376 -8.25176e-24)
(0.0269703 0.000187345 6.9135e-24)
(0.026978 0.000177973 -5.08986e-25)
(0.0269852 0.000168318 -2.35656e-24)
(0.0269918 0.000158426 3.86448e-25)
(0.0249191 0.000215047 1.63242e-24)
(0.0249402 0.000220023 -7.96767e-24)
(0.0249602 0.000221809 1.30151e-23)
(0.0249791 0.000221179 -9.21984e-24)
(0.0249969 0.00021871 7.67783e-24)
(0.0250136 0.000214783 -3.0007e-24)
(0.0250294 0.000209665 -1.69124e-24)
(0.0250443 0.000203566 -9.2027e-25)
(0.0250583 0.000196658 -3.37607e-25)
(0.0250715 0.00018908 -1.53835e-24)
(0.0250839 0.00018094 2.29493e-24)
(0.0250957 0.000172326 1.21547e-24)
(0.0251067 0.000163309 -2.00507e-24)
(0.0251172 0.000153948 7.24164e-25)
(0.025127 0.00014429 -2.21394e-25)
(0.0228225 0.000195041 2.14901e-25)
(0.0228479 0.000199044 -2.98706e-24)
(0.0228725 0.000200408 -1.38157e-24)
(0.0228959 0.000199705 1.21545e-23)
(0.0229182 0.000197371 -1.12843e-23)
(0.0229395 0.000193704 3.12852e-24)
(0.0229597 0.00018893 4.38086e-25)
(0.0229789 0.000183227 -1.73139e-25)
(0.0229972 0.000176741 -3.52504e-25)
(0.0230145 0.000169591 3.61172e-25)
(0.0230309 0.000161875 1.93977e-25)
(0.0230466 0.000153672 3.73786e-25)
(0.0230614 0.000145047 -3.46915e-25)
(0.0230754 0.000136057 -1.02061e-24)
(0.0230887 0.000126751 8.79726e-25)
(0.0206587 0.000172678 3.19016e-25)
(0.0206889 0.000175656 2.77712e-24)
(0.0207182 0.000176477 -3.20748e-24)
(0.0207464 0.000175562 -2.00303e-24)
(0.0207735 0.000173239 1.19966e-23)
(0.0207993 0.000169746 -9.18576e-24)
(0.020824 0.000165266 -3.10717e-25)
(0.0208476 0.000159946 -1.43379e-24)
(0.0208701 0.000153905 3.83587e-26)
(0.0208916 0.000147245 2.67752e-25)
(0.020912 0.000140047 1.94741e-25)
(0.0209314 0.000132381 3.35561e-25)
(0.0209498 0.000124308 2.14024e-25)
(0.0209672 0.000115879 1.34516e-26)
(0.0209836 0.000107142 -6.04412e-25)
(0.0185097 0.000148551 2.27911e-24)
(0.0185441 0.000150585 -3.45892e-24)
(0.0185777 0.000150892 -2.56875e-24)
(0.01861 0.000149783 7.78044e-24)
(0.0186411 0.000147498 -2.79929e-24)
(0.0186709 0.00014422 -3.48684e-24)
(0.0186994 0.000140091 1.27373e-24)
(0.0187267 0.000135228 2.25408e-24)
(0.0187527 0.000129726 -3.05501e-24)
(0.0187775 0.000123669 2.50773e-24)
(0.0188011 0.000117125 -9.20701e-25)
(0.0188235 0.000110154 1.09132e-25)
(0.0188446 0.00010281 6.56989e-25)
(0.0188646 9.51411e-05 -1.06935e-24)
(0.0188833 8.71913e-05 4.49743e-25)
(0.0164277 0.000123834 -4.44509e-25)
(0.0164652 0.000125109 -1.48506e-24)
(0.0165016 0.000125034 -4.55947e-24)
(0.0165367 0.000123839 1.26902e-23)
(0.0165705 0.000121689 -2.39509e-24)
(0.0166029 0.000118716 -3.37434e-24)
(0.016634 0.00011503 9.94918e-25)
(0.0166636 0.000110721 -1.47411e-24)
(0.0166919 0.000105867 -2.49362e-24)
(0.0167187 0.000100531 2.45165e-24)
(0.0167442 9.47731e-05 1.15384e-25)
(0.0167682 8.86438e-05 -3.40811e-26)
(0.0167908 8.21909e-05 7.07328e-26)
(0.016812 7.54576e-05 -9.59561e-26)
(0.0168317 6.84847e-05 1.03941e-25)
(0.014443 9.99008e-05 1.72044e-24)
(0.0144817 0.000100634 2.42043e-24)
(0.0145192 0.000100343 -2.35803e-24)
(0.0145554 9.91904e-05 -4.79237e-24)
(0.0145903 9.72777e-05 6.22276e-24)
(0.0146237 9.47006e-05 -6.54596e-24)
(0.0146557 9.15425e-05 -4.58852e-26)
(0.0146862 8.78731e-05 2.39193e-24)
(0.0147151 8.37514e-05 7.49276e-25)
(0.0147426 7.92298e-05 -1.10961e-24)
(0.0147684 7.43558e-05 3.47167e-25)
(0.0147928 6.91733e-05 1.14893e-24)
(0.0148154 6.37237e-05 -3.96432e-25)
(0.0148365 5.80444e-05 6.63471e-26)
(0.0148559 5.21721e-05 1.96914e-26)
(0.0125716 7.79514e-05 -1.79741e-24)
(0.0126096 7.83404e-05 2.30347e-24)
(0.0126465 7.79813e-05 2.36243e-25)
(0.0126821 7.69725e-05 4.30527e-24)
(0.0127163 7.5372e-05 -3.58215e-24)
(0.0127492 7.325e-05 1.91951e-25)
(0.0127805 7.06689e-05 -4.30043e-25)
(0.0128104 6.76807e-05 -1.00012e-24)
(0.0128387 6.43304e-05 6.5872e-25)
(0.0128654 6.06593e-05 -2.08009e-24)
(0.0128904 5.67056e-05 3.58899e-25)
(0.0129138 5.25056e-05 4.9824e-25)
(0.0129354 4.80937e-05 1.90143e-25)
(0.0129553 4.35017e-05 1.51478e-26)
(0.0129734 3.87609e-05 -4.65804e-26)
(0.010821 5.87895e-05 1.3384e-24)
(0.0108568 5.89858e-05 -1.06604e-24)
(0.0108915 5.86603e-05 -4.45152e-24)
(0.0109251 5.78526e-05 4.17376e-24)
(0.0109574 5.65953e-05 5.48659e-24)
(0.0109883 5.49415e-05 -1.55683e-24)
(0.0110179 5.29361e-05 -2.78973e-24)
(0.0110459 5.06167e-05 -3.45896e-24)
(0.0110724 4.80168e-05 2.51103e-24)
(0.0110974 4.5168e-05 7.17932e-26)
(0.0111206 4.21004e-05 -4.24397e-25)
(0.0111422 3.88427e-05 -2.56869e-26)
(0.0111621 3.54226e-05 7.26769e-26)
(0.0111802 3.1866e-05 -4.15682e-26)
(0.0111964 2.81986e-05 4.83493e-26)
(0.00919448 4.27833e-05 -8.46216e-25)
(0.00922682 4.2888e-05 -5.7216e-25)
(0.00925831 4.2647e-05 7.36357e-25)
(0.00928878 4.20519e-05 -2.15098e-24)
(0.00931813 4.11262e-05 6.99542e-24)
(0.00934626 3.99093e-05 -8.96259e-24)
(0.0093731 3.84317e-05 8.45807e-24)
(0.00939857 3.67197e-05 -3.48625e-24)
(0.00942261 3.47973e-05 6.63498e-25)
(0.00944513 3.26885e-05 -9.57268e-26)
(0.0094661 3.04154e-05 -4.98896e-25)
(0.00948545 2.80004e-05 -1.73615e-27)
(0.00950312 2.54646e-05 -1.65254e-25)
(0.0095191 2.28284e-05 2.25636e-26)
(0.00953331 2.01122e-05 -2.11954e-26)
(0.00769248 2.99404e-05 -4.1278e-25)
(0.00772068 3.00104e-05 1.12164e-25)
(0.00774822 2.98627e-05 2.27364e-25)
(0.00777494 2.94589e-05 -9.94788e-25)
(0.00780072 2.88223e-05 -4.03582e-25)
(0.00782547 2.79797e-05 3.69528e-24)
(0.0078491 2.69505e-05 -2.14223e-24)
(0.00787152 2.57524e-05 2.69982e-25)
(0.00789265 2.44024e-05 -2.70057e-25)
(0.00791244 2.29174e-05 -2.32547e-25)
(0.00793081 2.13134e-05 -1.26463e-26)
(0.00794771 1.96068e-05 2.76601e-25)
(0.00796309 1.7813e-05 -9.36613e-26)
(0.00797692 1.59477e-05 -2.53492e-26)
(0.00798912 1.40259e-05 3.37557e-26)
(0.00631351 2.00235e-05 -1.50584e-25)
(0.00633722 2.00828e-05 -4.58551e-26)
(0.0063605 2.00119e-05 -2.32455e-24)
(0.00638315 1.97612e-05 6.64105e-25)
(0.00640506 1.93554e-05 -1.53162e-24)
(0.00642614 1.88097e-05 1.19639e-24)
(0.00644629 1.81361e-05 2.04142e-24)
(0.00646543 1.73459e-05 1.37681e-24)
(0.00648349 1.64504e-05 -1.83693e-24)
(0.0065004 1.54611e-05 5.512e-25)
(0.00651609 1.43888e-05 3.44159e-25)
(0.00653051 1.32452e-05 -3.30876e-25)
(0.0065436 1.20409e-05 1.67011e-25)
(0.00655534 1.07873e-05 6.09558e-26)
(0.00656568 9.49519e-06 -6.12749e-26)
(0.0050544 1.26596e-05 -5.91272e-25)
(0.00507359 1.27126e-05 -7.83259e-25)
(0.00509254 1.26927e-05 -1.11919e-25)
(0.00511104 1.25532e-05 1.92562e-24)
(0.00512901 1.23169e-05 -1.3104e-24)
(0.00514634 1.19904e-05 -2.10976e-25)
(0.00516295 1.15806e-05 1.97791e-24)
(0.00517877 1.10946e-05 -4.68181e-26)
(0.00519371 1.05393e-05 -4.03709e-25)
(0.00520773 9.92199e-06 -1.11917e-24)
(0.00522074 9.24969e-06 2.43415e-25)
(0.00523272 8.53002e-06 5.42699e-25)
(0.0052436 7.77001e-06 -6.23684e-26)
(0.00525336 6.97762e-06 5.18143e-26)
(0.00526196 6.16012e-06 -5.24791e-26)
(0.00391046 7.42276e-06 -1.29482e-25)
(0.00392531 7.46537e-06 9.97794e-27)
(0.00394007 7.47181e-06 9.33617e-25)
(0.00395453 7.40537e-06 5.89245e-25)
(0.00396863 7.28322e-06 -4.47368e-25)
(0.00398228 7.1069e-06 -1.00711e-24)
(0.00399542 6.88012e-06 3.7762e-25)
(0.00400796 6.60683e-06 -1.50625e-24)
(0.00401985 6.29099e-06 1.14541e-24)
(0.00403103 5.93693e-06 4.71307e-25)
(0.00404144 5.54881e-06 -9.4647e-26)
(0.00405104 5.13133e-06 -3.9064e-25)
(0.00405979 4.6887e-06 2.97655e-26)
(0.00406766 4.22615e-06 2.52353e-26)
(0.00407461 3.7486e-06 -2.64257e-26)
(0.00287576 3.88882e-06 -2.38769e-25)
(0.00288657 3.91469e-06 9.23043e-27)
(0.0028974 3.92836e-06 7.5307e-25)
(0.00290805 3.9036e-06 -4.69093e-25)
(0.00291849 3.8505e-06 1.82679e-24)
(0.00292864 3.76828e-06 -3.28135e-24)
(0.00293844 3.65875e-06 2.56566e-24)
(0.00294784 3.52383e-06 -2.03387e-24)
(0.00295679 3.36554e-06 1.36447e-24)
(0.00296523 3.18616e-06 -7.87683e-25)
(0.00297312 2.9879e-06 2.56727e-25)
(0.00298042 2.77333e-06 2.92348e-26)
(0.00298711 2.54472e-06 3.25029e-27)
(0.00299315 2.30522e-06 8.07034e-27)
(0.00299852 2.0582e-06 -1.07114e-26)
(0.00194345 1.67809e-06 3.62731e-25)
(0.00195061 1.68486e-06 3.78341e-25)
(0.00195784 1.69407e-06 -1.62761e-24)
(0.00196499 1.68796e-06 1.17268e-24)
(0.00197203 1.67041e-06 -1.88927e-26)
(0.00197891 1.64028e-06 2.69552e-25)
(0.00198559 1.59827e-06 -3.49718e-25)
(0.00199202 1.54509e-06 -6.52693e-25)
(0.00199817 1.48153e-06 6.21705e-25)
(0.002004 1.40858e-06 3.36566e-26)
(0.00200948 1.32715e-06 -3.66288e-25)
(0.00201458 1.23843e-06 1.36892e-25)
(0.00201927 1.14334e-06 3.55133e-26)
(0.00202354 1.04352e-06 -8.26743e-27)
(0.00202735 9.41228e-07 7.07248e-27)
(0.0011061 4.93855e-07 -3.66397e-25)
(0.00111003 4.9722e-07 1.10703e-24)
(0.00111404 5.05821e-07 6.28717e-25)
(0.00111803 5.09182e-07 -1.16308e-24)
(0.00112198 5.0817e-07 -1.34746e-25)
(0.00112587 5.02611e-07 -1.13618e-25)
(0.00112967 4.92874e-07 3.257e-25)
(0.00113335 4.79267e-07 -5.31719e-25)
(0.00113689 4.62083e-07 6.63069e-25)
(0.00114026 4.41648e-07 -3.27465e-25)
(0.00114345 4.18225e-07 -1.62613e-25)
(0.00114643 3.92189e-07 8.11571e-26)
(0.00114919 3.63698e-07 -1.88648e-26)
(0.00115172 3.33259e-07 -7.33366e-27)
(0.00115401 3.02077e-07 1.5046e-26)
(0.000356013 9.01226e-08 -2.61787e-27)
(0.000357153 1.27946e-07 2.1418e-25)
(0.00035834 1.57404e-07 2.36282e-25)
(0.000359535 1.77096e-07 -3.78523e-25)
(0.000360738 1.8886e-07 7.42752e-25)
(0.000361936 1.94072e-07 -8.07722e-25)
(0.00036312 1.93858e-07 4.88372e-26)
(0.000364279 1.89053e-07 3.85213e-25)
(0.000365404 1.80269e-07 -5.28901e-25)
(0.000366487 1.67958e-07 -6.77985e-26)
(0.000367519 1.52417e-07 2.72302e-25)
(0.000368495 1.33867e-07 -1.09499e-25)
(0.000369406 1.12365e-07 -8.43282e-27)
(0.00037025 8.80005e-08 2.04255e-27)
(0.000371021 6.11157e-08 1.2224e-27)
(0.000933962 -0.000260886 1.01483e-25)
(0.00106574 -0.000191961 2.69895e-24)
(0.00128656 -0.000119777 -7.90602e-24)
(0.00151096 -6.2066e-05 1.17828e-23)
(0.00172455 -1.68004e-05 -4.4247e-24)
(0.00193256 1.70264e-05 -4.45203e-24)
(0.00213539 4.21828e-05 5.14174e-24)
(0.00233413 6.09805e-05 -1.03322e-23)
(0.00252998 7.53096e-05 6.05327e-25)
(0.00272396 8.67121e-05 6.59031e-24)
(0.00291691 9.64571e-05 -1.26803e-24)
(0.00310956 0.00010566 1.37763e-24)
(0.00330259 0.000115385 -1.30464e-25)
(0.00349673 0.00012673 8.81673e-25)
(0.00369305 0.00014078 -3.2492e-24)
(0.00389311 0.000158673 1.78999e-24)
(0.00409906 0.000181406 -5.88957e-25)
(0.00431416 0.000209286 2.35303e-26)
(0.00454362 0.000241935 1.47416e-24)
(0.00479344 0.000277857 -9.36495e-25)
(0.00507116 0.000311686 1.22588e-25)
(0.00538243 0.00033337 -1.0816e-25)
(0.0057043 0.000325317 2.07968e-25)
(0.00599422 0.000281627 8.01085e-25)
(0.00623679 0.000207869 -1.43997e-24)
(0.00643113 0.000110294 -9.86767e-25)
(0.00657854 -5.36414e-06 1.51871e-26)
(0.00668081 -0.000134247 2.49289e-24)
(0.00673909 -0.000272299 3.61598e-24)
(0.00675391 -0.000415399 -7.13393e-24)
(0.00672538 -0.000558832 6.51607e-24)
(0.00665355 -0.000697017 -6.28991e-24)
(0.00653879 -0.000823509 1.7915e-24)
(0.00638197 -0.000931146 5.23294e-25)
(0.00618453 -0.00101219 -6.01186e-25)
(0.00594836 -0.00105837 3.95635e-24)
(0.00567571 -0.00106061 -9.28094e-26)
(0.00536897 -0.00100834 2.269e-24)
(0.00503077 -0.000888083 1.61238e-24)
(0.00466448 -0.000681462 -9.81572e-24)
(0.00427392 -0.000365184 -1.29234e-25)
(0.00386506 8.10791e-05 4.83859e-24)
(0.00343003 0.000642079 1.88099e-24)
(0.00299091 0.001226 -7.0999e-24)
(0.00274346 0.00150704 -3.80116e-25)
(0.00174976 -0.000341 -3.03264e-24)
(0.00180259 -0.000305204 -4.45605e-24)
(0.00193502 -0.000235387 9.24565e-24)
(0.00210242 -0.000169734 4.55237e-24)
(0.00227923 -0.00011376 -1.59536e-23)
(0.00246098 -6.91563e-05 1.73255e-23)
(0.00264385 -3.42955e-05 -6.2509e-24)
(0.0028265 -6.99747e-06 5.14587e-24)
(0.00300874 1.47232e-05 -6.79139e-24)
(0.00319078 3.2566e-05 7.25537e-26)
(0.00337302 4.79514e-05 -3.68021e-24)
(0.0035559 6.21153e-05 7.30606e-24)
(0.00373995 7.62071e-05 -4.05979e-24)
(0.00392583 9.13673e-05 -3.7189e-24)
(0.0041145 0.000108691 -2.57662e-24)
(0.00430747 0.000129305 4.75249e-24)
(0.00450678 0.000154181 -6.47131e-25)
(0.00471553 0.000183542 2.67853e-24)
(0.00493874 0.000216986 4.90975e-25)
(0.00518214 0.000253074 -8.34784e-25)
(0.00545298 0.000286622 -3.682e-25)
(0.00575685 0.000307982 -2.31575e-25)
(0.00607201 0.000300276 1.12851e-24)
(0.00635734 0.000258184 1.37708e-24)
(0.00659765 0.000187231 -1.23522e-24)
(0.00679171 9.34674e-05 -6.00438e-24)
(0.00694036 -1.7446e-05 8.11687e-24)
(0.00704502 -0.000140686 -5.72051e-24)
(0.00710664 -0.000271995 1.92696e-24)
(0.00712567 -0.000407145 -1.2658e-24)
(0.00710235 -0.000541331 9.67395e-24)
(0.007037 -0.000668943 -1.33524e-23)
(0.00693034 -0.000783569 7.39452e-24)
(0.00678375 -0.000878124 -4.5661e-24)
(0.00659934 -0.00094497 1.61904e-24)
(0.00637993 -0.000975919 1.25772e-27)
(0.00612906 -0.000962009 8.99403e-24)
(0.00585113 -0.000892889 -1.66497e-24)
(0.00555185 -0.000755641 -8.84433e-24)
(0.00523977 -0.000533031 -6.23978e-24)
(0.00492811 -0.000203365 1.4293e-23)
(0.00463978 0.000252471 -1.46019e-23)
(0.00440142 0.000818294 -4.08247e-24)
(0.00425857 0.00138819 9.97902e-24)
(0.0042718 0.0016003 3.71741e-24)
(0.00270806 -0.000346898 -3.61006e-26)
(0.00271318 -0.000350241 -5.16376e-24)
(0.00276485 -0.000311243 9.85556e-24)
(0.00286623 -0.000255476 8.75939e-24)
(0.0029925 -0.00019965 -1.41652e-23)
(0.003135 -0.000150349 2.74928e-25)
(0.00328687 -0.000109129 1.4213e-24)
(0.00344427 -7.51859e-05 1.57777e-23)
(0.00360524 -4.71045e-05 -1.87216e-23)
(0.00376884 -2.33982e-05 1.16445e-23)
(0.00393473 -2.69484e-06 3.57926e-24)
(0.00410289 1.62524e-05 -1.95723e-23)
(0.00427356 3.46155e-05 7.07441e-24)
(0.00444718 5.3543e-05 2.85794e-24)
(0.0046246 7.41136e-05 -6.05859e-24)
(0.0048072 9.74351e-05 9.96846e-24)
(0.00499686 0.000124444 -7.15856e-24)
(0.00519652 0.000155269 -2.22583e-25)
(0.005411 0.000189474 5.29155e-25)
(0.0056457 0.000225693 6.31207e-25)
(0.00590757 0.000258926 7.37279e-26)
(0.00620206 0.000279915 4.02181e-25)
(0.00650871 0.000272508 -1.14217e-24)
(0.00678797 0.000231986 3.40155e-24)
(0.00702484 0.00016385 -5.37663e-24)
(0.00721768 7.39584e-05 3.09327e-24)
(0.00736686 -3.21308e-05 -7.24279e-24)
(0.00747341 -0.000149545 9.76555e-24)
(0.00753806 -0.000273899 -9.16234e-24)
(0.00756121 -0.000400834 2.66002e-25)
(0.00754323 -0.000525462 -2.24498e-25)
(0.0074847 -0.000642151 1.56226e-23)
(0.00738678 -0.000744546 -5.15618e-24)
(0.00725141 -0.000825693 -2.19652e-24)
(0.00708141 -0.000878154 1.91601e-25)
(0.00688059 -0.000894034 6.58347e-24)
(0.00665389 -0.000864831 -6.11338e-24)
(0.00640771 -0.000781038 1.38076e-23)
(0.00615075 -0.000631463 -2.78179e-23)
(0.00589597 -0.000402345 1.09192e-23)
(0.00566335 -7.82226e-05 4.17295e-24)
(0.00548456 0.000350649 7.30104e-24)
(0.00539735 0.000858837 -9.11635e-24)
(0.00543193 0.00133699 3.00379e-24)
(0.00557781 0.0015009 -1.90993e-24)
(0.0037928 -0.000327154 -1.31233e-24)
(0.0037696 -0.000354871 -2.06232e-24)
(0.00377307 -0.000342541 -8.89748e-24)
(0.00381101 -0.00030964 2.21528e-24)
(0.00388272 -0.000264165 1.50158e-24)
(0.00397775 -0.000217965 7.37984e-24)
(0.00408938 -0.00017569 -1.59773e-23)
(0.00421265 -0.00013857 5.99707e-24)
(0.00434427 -0.000106377 2.06936e-23)
(0.00448218 -7.82817e-05 -5.4785e-24)
(0.00462521 -5.32464e-05 -5.21094e-24)
(0.00477278 -3.01914e-05 -8.35606e-25)
(0.00492472 -8.03368e-06 2.76697e-24)
(0.00508122 1.43149e-05 -5.44551e-24)
(0.00524292 3.78698e-05 1.23623e-24)
(0.00541105 6.3688e-05 -5.03991e-25)
(0.00558731 9.26587e-05 -2.89702e-24)
(0.00577441 0.000124786 9.55222e-25)
(0.00597701 0.000159594 5.22717e-24)
(0.00620015 0.000195801 -5.65843e-25)
(0.0064504 0.000228591 -1.24858e-24)
(0.00673303 0.000249096 -3.58878e-25)
(0.00702895 0.000241907 -2.02017e-24)
(0.00730026 0.000202929 -1.17271e-25)
(0.00753213 0.000137652 -4.81874e-24)
(0.00772245 5.17437e-05 8.29684e-24)
(0.0078711 -4.93505e-05 -7.28627e-24)
(0.00797871 -0.000160701 1.40936e-23)
(0.00804579 -0.000277807 -1.23181e-23)
(0.00807271 -0.000396191 2.7042e-24)
(0.00805997 -0.000510903 5.35937e-24)
(0.00800848 -0.000616337 -1.14585e-25)
(0.00791984 -0.000706263 -3.27915e-25)
(0.00779657 -0.000773963 -1.05875e-25)
(0.00764225 -0.000812369 -7.56614e-25)
(0.00746168 -0.000814142 -2.66519e-24)
(0.00726109 -0.000771661 1.57499e-23)
(0.00704862 -0.00067692 -8.05813e-24)
(0.0068352 -0.000521454 2.56509e-25)
(0.00663629 -0.000296506 -2.73087e-23)
(0.00647393 5.04336e-06 2.10589e-23)
(0.00637894 0.000382005 -8.69247e-24)
(0.00638426 0.000804356 1.46143e-24)
(0.00650234 0.00118469 1.21778e-23)
(0.00670434 0.00135385 -3.30815e-24)
(0.00499948 -0.000296863 -5.45911e-24)
(0.0049655 -0.000333948 1.12368e-23)
(0.00494 -0.000340686 3.29842e-24)
(0.00493787 -0.000328144 1.42407e-23)
(0.00495825 -0.000300985 -3.51077e-23)
(0.00500526 -0.000264471 -1.14918e-24)