/*--------------------------------*- C++ -*----------------------------------*\
| =========                 |                                                 |
| \\      /  F ield         | OpenFOAM: The Open Source CFD Toolbox           |
|  \\    /   O peration     | Version:  2312                                  |
|   \\  /    A nd           | Website:  www.openfoam.com                      |
|    \\/     M anipulation  |                                                 |
\*---------------------------------------------------------------------------*/
FoamFile
{
    version     2.0;
    format      ascii;
    arch        "LSB;label=32;scalar=64";
    class       volScalarField;
    location    "400";
    object      p;
}
// * * * * * * * * * * * * * * * * * * * * * * * * * * * * * * * * * * * * * //

dimensions      [0 2 -2 0 0 0 0];

internalField   nonuniform List<scalar> 
4800
(
-6.13059e-13
-3.45916e-07
-6.45961e-07
-9.07164e-07
-1.13665e-06
-1.33935e-06
-1.51921e-06
-1.67926e-06
-1.82165e-06
-1.94749e-06
-2.05739e-06
-2.15535e-06
-2.25531e-06
-2.38143e-06
-2.9066e-06
3.26477e-09
-3.42241e-07
-6.41983e-07
-9.03095e-07
-1.13274e-06
-1.33591e-06
-1.51666e-06
-1.67824e-06
-1.82326e-06
-1.95388e-06
-2.07278e-06
-2.1862e-06
-2.30823e-06
-2.47381e-06
-2.8619e-06
7.36826e-09
-3.37787e-07
-6.37271e-07
-8.98337e-07
-1.12821e-06
-1.33196e-06
-1.51375e-06
-1.67707e-06
-1.82502e-06
-1.96072e-06
-2.08838e-06
-2.21527e-06
-2.35304e-06
-2.51753e-06
-2.75142e-06
1.19364e-08
-3.32797e-07
-6.31957e-07
-8.92892e-07
-1.12289e-06
-1.32709e-06
-1.50974e-06
-1.6745e-06
-1.82473e-06
-1.96392e-06
-2.0962e-06
-2.22678e-06
-2.36058e-06
-2.49755e-06
-2.63488e-06
1.71724e-08
-3.26992e-07
-6.2569e-07
-8.86335e-07
-1.11628e-06
-1.32069e-06
-1.50385e-06
-1.66946e-06
-1.82085e-06
-1.96123e-06
-2.09351e-06
-2.21965e-06
-2.3387e-06
-2.44393e-06
-2.52373e-06
2.33724e-08
-3.20034e-07
-6.18084e-07
-8.78211e-07
-1.10782e-06
-1.31208e-06
-1.4952e-06
-1.66074e-06
-1.81173e-06
-1.95058e-06
-2.07857e-06
-2.19491e-06
-2.29562e-06
-2.37319e-06
-2.41857e-06
3.09382e-08
-3.11482e-07
-6.08633e-07
-8.67926e-07
-1.09678e-06
-1.30032e-06
-1.48258e-06
-1.6468e-06
-1.79543e-06
-1.92988e-06
-2.05002e-06
-2.15355e-06
-2.23604e-06
-2.2921e-06
-2.31737e-06
4.05026e-08
-3.00653e-07
-5.96571e-07
-8.54595e-07
-1.08212e-06
-1.28415e-06
-1.46443e-06
-1.62575e-06
-1.76987e-06
-1.89734e-06
-2.00718e-06
-2.09692e-06
-2.16331e-06
-2.20382e-06
-2.21767e-06
5.3079e-08
-2.86483e-07
-5.80732e-07
-8.36917e-07
-1.06233e-06
-1.26183e-06
-1.43877e-06
-1.59544e-06
-1.73304e-06
-1.85158e-06
-1.94999e-06
-2.02656e-06
-2.07981e-06
-2.10966e-06
-2.11727e-06
7.0217e-08
-2.6738e-07
-5.59402e-07
-8.13037e-07
-1.03539e-06
-1.23113e-06
-1.40324e-06
-1.5536e-06
-1.68306e-06
-1.7916e-06
-1.87867e-06
-1.9437e-06
-1.98692e-06
-2.0098e-06
-2.01428e-06
9.41626e-08
-2.41062e-07
-5.30173e-07
-7.80422e-07
-9.98634e-07
-1.1893e-06
-1.35515e-06
-1.49784e-06
-1.61822e-06
-1.71664e-06
-1.79337e-06
-1.84903e-06
-1.88504e-06
-1.90369e-06
-1.90704e-06
1.27931e-07
-2.04478e-07
-4.89869e-07
-7.35803e-07
-9.48769e-07
-1.13314e-06
-1.29157e-06
-1.42577e-06
-1.5369e-06
-1.62593e-06
-1.69397e-06
-1.74256e-06
-1.77383e-06
-1.79034e-06
-1.79395e-06
1.75181e-07
-1.53887e-07
-4.34635e-07
-6.75278e-07
-8.82002e-07
-1.05913e-06
-1.20949e-06
-1.33508e-06
-1.43757e-06
-1.51857e-06
-1.57991e-06
-1.6237e-06
-1.65234e-06
-1.66837e-06
-1.67336e-06
2.39815e-07
-8.51913e-08
-3.60295e-07
-5.9468e-07
-7.9439e-07
-9.63789e-07
-1.10604e-06
-1.22363e-06
-1.31873e-06
-1.39353e-06
-1.45029e-06
-1.49139e-06
-1.51925e-06
-1.53623e-06
-1.54358e-06
3.25424e-07
5.55711e-09
-2.62881e-07
-4.90148e-07
-6.82389e-07
-8.44113e-07
-9.78889e-07
-1.08968e-06
-1.17912e-06
-1.24975e-06
-1.30406e-06
-1.34444e-06
-1.37318e-06
-1.39239e-06
-1.40311e-06
4.34871e-07
1.21724e-07
-1.39042e-07
-3.58574e-07
-5.43308e-07
-6.97952e-07
-8.26433e-07
-9.32092e-07
-1.01786e-06
-1.08644e-06
-1.14032e-06
-1.18181e-06
-1.21298e-06
-1.23569e-06
-1.25081e-06
5.70029e-07
2.65789e-07
1.37332e-08
-1.97749e-07
-3.75379e-07
-5.24018e-07
-6.47802e-07
-7.50278e-07
-8.34485e-07
-9.03106e-07
-9.58529e-07
-1.00287e-06
-1.03799e-06
-1.06549e-06
-1.08614e-06
7.31418e-07
4.38855e-07
1.96641e-07
-6.68961e-09
-1.77928e-07
-3.21927e-07
-4.42822e-07
-5.44158e-07
-6.28912e-07
-6.99626e-07
-7.585e-07
-8.07431e-07
-8.48038e-07
-8.81727e-07
-9.09218e-07
9.17442e-07
6.39724e-07
4.08539e-07
2.13363e-07
4.77183e-08
-9.30312e-08
-2.12811e-07
-3.14973e-07
-4.02288e-07
-4.77065e-07
-5.41257e-07
-5.96524e-07
-6.44268e-07
-6.85692e-07
-7.21523e-07
1.12308e-06
8.63462e-07
6.44452e-07
4.57425e-07
2.96683e-07
1.57995e-07
3.78331e-08
-6.67967e-08
-1.58377e-07
-2.38925e-07
-3.10115e-07
-3.73357e-07
-4.29842e-07
-4.80581e-07
-5.26367e-07
1.32557e-06
1.08557e-06
8.78939e-07
6.99635e-07
5.43074e-07
4.05513e-07
2.83886e-07
1.7568e-07
7.8816e-08
-8.41347e-09
-8.74234e-08
-1.594e-07
-2.25349e-07
-2.86112e-07
-3.42559e-07
1.49236e-06
1.26998e-06
1.07435e-06
9.01746e-07
7.48629e-07
6.11751e-07
4.88491e-07
3.76799e-07
2.75001e-07
1.81681e-07
9.56469e-08
1.58988e-08
-5.84126e-08
-1.27988e-07
-1.93655e-07
1.61646e-06
1.4087e-06
1.22244e-06
1.0556e-06
9.05489e-07
7.69305e-07
6.44837e-07
5.30412e-07
4.24658e-07
3.26397e-07
2.34623e-07
1.48494e-07
6.72919e-08
-9.57298e-09
-8.28384e-08
1.70673e-06
1.51099e-06
1.33269e-06
1.17085e-06
1.02338e-06
8.879e-07
7.62554e-07
6.45975e-07
5.37035e-07
4.34747e-07
3.38268e-07
2.46887e-07
1.59997e-07
7.70977e-08
-2.4474e-09
1.77116e-06
1.58526e-06
1.41372e-06
1.2562e-06
1.11104e-06
9.76242e-07
8.50263e-07
7.31984e-07
6.20466e-07
5.14885e-07
4.14531e-07
3.18807e-07
2.272e-07
1.39288e-07
5.45262e-08
1.81646e-06
1.63867e-06
1.47287e-06
1.31906e-06
1.17592e-06
1.04175e-06
9.15295e-07
7.95636e-07
6.81994e-07
5.73678e-07
4.70095e-07
3.70746e-07
2.75199e-07
1.83098e-07
9.39841e-08
1.84798e-06
1.67692e-06
1.51599e-06
1.36536e-06
1.22394e-06
1.09033e-06
9.63488e-07
8.42681e-07
7.27256e-07
6.16638e-07
5.10337e-07
4.07936e-07
3.09076e-07
2.13458e-07
1.20697e-07
1.86975e-06
1.70433e-06
1.54755e-06
1.39964e-06
1.25968e-06
1.12653e-06
9.99369e-07
8.77582e-07
7.60636e-07
6.48057e-07
5.39442e-07
4.3445e-07
3.32783e-07
2.34194e-07
1.3836e-07
1.88477e-06
1.72412e-06
1.57087e-06
1.42529e-06
1.28657e-06
1.1538e-06
1.02634e-06
9.03702e-07
7.85438e-07
6.7117e-07
5.60569e-07
4.53359e-07
3.49295e-07
2.48177e-07
1.49736e-07
1.8952e-06
1.73862e-06
1.58839e-06
1.44477e-06
1.30709e-06
1.17464e-06
1.04691e-06
9.23513e-07
8.04098e-07
6.88359e-07
5.76037e-07
4.66911e-07
3.60784e-07
2.57498e-07
1.56829e-07
1.90253e-06
1.74945e-06
1.60181e-06
1.45987e-06
1.32307e-06
1.19086e-06
1.06287e-06
9.388e-07
8.18367e-07
7.01337e-07
5.87512e-07
4.76718e-07
3.68801e-07
2.6364e-07
1.6105e-07
1.90781e-06
1.75774e-06
1.61234e-06
1.47182e-06
1.33575e-06
1.20374e-06
1.07551e-06
9.50824e-07
8.29484e-07
7.11314e-07
5.96165e-07
4.83908e-07
3.74427e-07
2.67631e-07
1.63373e-07
1.91172e-06
1.76428e-06
1.62079e-06
1.48149e-06
1.34604e-06
1.21418e-06
1.08571e-06
9.60468e-07
8.38316e-07
7.19131e-07
6.0281e-07
4.89263e-07
3.78405e-07
2.70175e-07
1.64457e-07
1.91472e-06
1.76957e-06
1.62773e-06
1.48947e-06
1.35455e-06
1.22279e-06
1.09409e-06
9.68346e-07
8.45464e-07
7.25372e-07
6.08009e-07
4.93317e-07
3.81242e-07
2.71747e-07
1.64744e-07
1.91711e-06
1.77394e-06
1.63354e-06
1.49617e-06
1.36169e-06
1.23001e-06
1.1011e-06
9.74885e-07
8.51344e-07
7.3044e-07
6.12146e-07
4.96436e-07
3.8328e-07
2.72666e-07
1.64527e-07
1.91905e-06
1.77764e-06
1.63847e-06
1.50187e-06
1.36776e-06
1.23614e-06
1.10701e-06
9.80378e-07
8.56242e-07
7.3461e-07
6.15485e-07
4.98868e-07
3.84753e-07
2.73145e-07
1.64e-07
1.92069e-06
1.7808e-06
1.6427e-06
1.50676e-06
1.37296e-06
1.24138e-06
1.11205e-06
9.85033e-07
8.60362e-07
7.38077e-07
6.18209e-07
5.00784e-07
3.85815e-07
2.73325e-07
1.63288e-07
1.9221e-06
1.78356e-06
1.64641e-06
1.51104e-06
1.37751e-06
1.24594e-06
1.11643e-06
9.89052e-07
8.63891e-07
7.41012e-07
6.20471e-07
5.02316e-07
3.86579e-07
2.73296e-07
1.62456e-07
1.92336e-06
1.78609e-06
1.64979e-06
1.51494e-06
1.38166e-06
1.2501e-06
1.1204e-06
9.92688e-07
8.67067e-07
7.43632e-07
6.22461e-07
5.03624e-07
3.87169e-07
2.73147e-07
1.61559e-07
1.92442e-06
1.78827e-06
1.65274e-06
1.51836e-06
1.3853e-06
1.25376e-06
1.12392e-06
9.95916e-07
8.69897e-07
7.45977e-07
6.24257e-07
5.04824e-07
3.87739e-07
2.7307e-07
1.60825e-07
-3.89997e-06
-3.28309e-06
-2.83289e-06
-2.51545e-06
-2.25573e-06
-2.04317e-06
-1.86665e-06
-1.71817e-06
-1.59266e-06
-1.48652e-06
-1.39709e-06
-1.32227e-06
-1.26034e-06
-1.20982e-06
-1.16945e-06
-1.13826e-06
-1.11568e-06
-1.10171e-06
-1.09713e-06
-1.10365e-06
-1.12303e-06
-1.15593e-06
-1.19186e-06
-1.20754e-06
-1.18606e-06
-1.116e-06
-9.91049e-07
-8.10635e-07
-5.78624e-07
-3.02308e-07
8.77768e-09
3.43826e-07
6.9151e-07
1.04047e-06
1.37957e-06
1.69786e-06
1.98451e-06
2.22876e-06
2.42006e-06
2.54812e-06
2.60305e-06
2.57223e-06
2.42381e-06
2.13186e-06
1.45527e-06
-3.28949e-06
-3.02121e-06
-2.72246e-06
-2.46028e-06
-2.22637e-06
-2.02568e-06
-1.85479e-06
-1.70912e-06
-1.5851e-06
-1.47984e-06
-1.391e-06
-1.31665e-06
-1.25515e-06
-1.20507e-06
-1.16517e-06
-1.13448e-06
-1.11243e-06
-1.09902e-06
-1.09494e-06
-1.10183e-06
-1.12127e-06
-1.15375e-06
-1.1887e-06
-1.20318e-06
-1.18077e-06
-1.11042e-06
-9.86087e-07
-8.07381e-07
-5.78277e-07
-3.06133e-07
-5.50562e-10
3.27562e-07
6.66699e-07
1.00519e-06
1.33134e-06
1.63328e-06
1.8986e-06
2.11356e-06
2.26223e-06
2.32469e-06
2.27386e-06
2.06798e-06
1.63063e-06
8.304e-07
-5.28411e-07
-2.93846e-06
-2.80969e-06
-2.60384e-06
-2.39049e-06
-2.18518e-06
-1.99994e-06
-1.83735e-06
-1.6963e-06
-1.57498e-06
-1.4714e-06
-1.38371e-06
-1.31023e-06
-1.24944e-06
-1.19999e-06
-1.16068e-06
-1.13059e-06
-1.10913e-06
-1.09629e-06
-1.09275e-06
-1.1e-06
-1.11947e-06
-1.15142e-06
-1.18519e-06
-1.19819e-06
-1.17457e-06
-1.10375e-06
-9.80077e-07
-8.03432e-07
-5.77997e-07
-3.11292e-07
-1.30747e-08
3.05547e-07
6.32774e-07
9.56491e-07
1.26431e-06
1.54332e-06
1.77946e-06
1.95634e-06
2.05373e-06
2.04509e-06
1.89421e-06
1.55116e-06
9.49354e-07
1.72382e-08
-1.26812e-06
-2.71613e-06
-2.64139e-06
-2.49169e-06
-2.31734e-06
-2.13886e-06
-1.97007e-06
-1.81714e-06
-1.68178e-06
-1.56387e-06
-1.46242e-06
-1.37614e-06
-1.30366e-06
-1.24365e-06
-1.19486e-06
-1.15616e-06
-1.12666e-06
-1.10579e-06
-1.09354e-06
-1.09053e-06
-1.09813e-06
-1.1176e-06
-1.14892e-06
-1.18131e-06
-1.1926e-06
-1.16753e-06
-1.09609e-06
-9.73114e-07
-7.98815e-07
-5.77674e-07
-3.17452e-07
-2.81446e-08
2.78859e-07
5.91383e-07
8.96781e-07
1.18191e-06
1.43279e-06
1.63385e-06
1.7667e-06
1.80858e-06
1.73052e-06
1.49613e-06
1.06327e-06
3.9337e-07
-5.2561e-07
-1.64226e-06
-2.55442e-06
-2.50155e-06
-2.38855e-06
-2.24523e-06
-2.09051e-06
-1.93787e-06
-1.79523e-06
-1.66625e-06
-1.55225e-06
-1.45322e-06
-1.3685e-06
-1.29709e-06
-1.23788e-06
-1.18974e-06
-1.15163e-06
-1.12271e-06
-1.10244e-06
-1.09078e-06
-1.08831e-06
-1.09626e-06
-1.11568e-06
-1.14626e-06
-1.1771e-06
-1.18651e-06
-1.15991e-06
-1.08794e-06
-9.65957e-07
-7.94599e-07
-5.78688e-07
-3.26266e-07
-4.76057e-08
2.45586e-07
5.4073e-07
8.24642e-07
1.08347e-06
1.30238e-06
1.46474e-06
1.55121e-06
1.53873e-06
1.39999e-06
1.1049e-06
6.26241e-07
-4.76979e-08
-8.93872e-07
-1.83606e-06
-2.42512e-06
-2.38219e-06
-2.2939e-06
-2.17542e-06
-2.04154e-06
-1.90437e-06
-1.77227e-06
-1.65015e-06
-1.54047e-06
-1.44414e-06
-1.36111e-06
-1.2908e-06
-1.23236e-06
-1.18483e-06
-1.14728e-06
-1.11891e-06
-1.09921e-06
-1.08815e-06
-1.08621e-06
-1.0945e-06
-1.1138e-06
-1.14352e-06
-1.17263e-06
-1.18e-06
-1.15186e-06
-1.07956e-06
-9.59058e-07
-7.91465e-07
-5.81983e-07
-3.3897e-07
-7.29929e-08
2.03922e-07
4.78816e-07
7.38041e-07
9.67229e-07
1.15104e-06
1.27255e-06
1.31286e-06
1.25085e-06
1.06414e-06
7.32329e-07
2.43771e-07
-3.9377e-07
-1.14192e-06
-1.9276e-06
-2.31297e-06
-2.27621e-06
-2.20546e-06
-2.1073e-06
-1.99203e-06
-1.86975e-06
-1.74848e-06
-1.63372e-06
-1.52882e-06
-1.43548e-06
-1.3543e-06
-1.28514e-06
-1.22745e-06
-1.18047e-06
-1.1434e-06
-1.11552e-06
-1.09636e-06
-1.08586e-06
-1.08443e-06
-1.093e-06
-1.11211e-06
-1.1408e-06
-1.16799e-06
-1.17323e-06
-1.14358e-06
-1.07125e-06
-9.52859e-07
-7.90048e-07
-5.88436e-07
-3.56708e-07
-1.05722e-07
1.52216e-07
4.03854e-07
6.35252e-07
8.31868e-07
9.78386e-07
1.05856e-06
1.05529e-06
9.51277e-07
7.30856e-07
3.83711e-07
-8.94067e-08
-6.70105e-07
-1.31833e-06
-1.9758e-06
-2.20886e-06
-2.17739e-06
-2.12015e-06
-2.03913e-06
-1.94087e-06
-1.83321e-06
-1.72327e-06
-1.61663e-06
-1.51718e-06
-1.42733e-06
-1.34828e-06
-1.28039e-06
-1.22347e-06
-1.177e-06
-1.14034e-06
-1.11288e-06
-1.09418e-06
-1.08418e-06
-1.0832e-06
-1.09199e-06
-1.11081e-06
-1.13831e-06
-1.16339e-06
-1.16642e-06
-1.13541e-06
-1.06348e-06
-9.48027e-07
-7.91247e-07
-5.99201e-07
-3.80895e-07
-1.47429e-07
8.87041e-08
3.14132e-07
5.14918e-07
6.76795e-07
7.85153e-07
8.25361e-07
7.83284e-07
6.46436e-07
4.0607e-07
6.02826e-08
-3.82343e-07
-8.99923e-07
-1.45757e-06
-2.01274e-06
-2.10738e-06
-2.08105e-06
-2.03496e-06
-1.96876e-06
-1.88625e-06
-1.7931e-06
-1.69518e-06
-1.59769e-06
-1.50473e-06
-1.4192e-06
-1.34287e-06
-1.2766e-06
-1.22061e-06
-1.17469e-06
-1.13842e-06
-1.11131e-06
-1.09301e-06
-1.08345e-06
-1.08286e-06
-1.09177e-06
-1.11017e-06
-1.13631e-06
-1.15914e-06
-1.15998e-06
-1.12789e-06
-1.05699e-06
-9.45539e-07
-7.9631e-07
-6.15799e-07
-4.13288e-07
-2.00018e-07
1.15023e-08
2.08042e-07
3.76067e-07
5.02099e-07
5.72946e-07
5.76354e-07
5.0178e-07
3.41662e-07
9.31691e-08
-2.39798e-07
-6.44951e-07
-1.10128e-06
-1.58107e-06
-2.05444e-06
-2.00509e-06
-1.98383e-06
-1.94736e-06
-1.89416e-06
-1.8262e-06
-1.74737e-06
-1.66214e-06
-1.57498e-06
-1.48985e-06
-1.40986e-06
-1.33722e-06
-1.27328e-06
-1.21868e-06
-1.17357e-06
-1.13781e-06
-1.11111e-06
-1.0932e-06
-1.08404e-06
-1.08378e-06
-1.09274e-06
-1.11061e-06
-1.13524e-06
-1.15573e-06
-1.15455e-06
-1.12185e-06
-1.05287e-06
-9.46764e-07
-8.06898e-07
-6.40152e-07
-4.55983e-07
-2.65609e-07
-8.13046e-08
8.41817e-08
2.18175e-07
3.08502e-07
3.43974e-07
3.15146e-07
2.15131e-07
4.06601e-08
-2.06797e-07
-5.20116e-07
-8.86249e-07
-1.28708e-06
-1.70166e-06
-2.10925e-06
-1.89958e-06
-1.88332e-06
-1.85538e-06
-1.81367e-06
-1.75906e-06
-1.69407e-06
-1.62193e-06
-1.54619e-06
-1.47032e-06
-1.39739e-06
-1.32982e-06
-1.26933e-06
-1.21697e-06
-1.17329e-06
-1.13844e-06
-1.11238e-06
-1.095e-06
-1.0863e-06
-1.08638e-06
-1.09536e-06
-1.11263e-06
-1.13569e-06
-1.15391e-06
-1.15106e-06
-1.1185e-06
-1.05265e-06
-9.53548e-07
-8.25151e-07
-6.74612e-07
-5.114e-07
-3.46476e-07
-1.91569e-07
-5.85532e-08
4.11957e-08
9.72439e-08
1.00743e-07
4.51101e-08
-7.33007e-08
-2.54524e-07
-4.94483e-07
-7.84864e-07
-1.11358e-06
-1.46596e-06
-1.82655e-06
-2.18086e-06
-1.78892e-06
-1.77763e-06
-1.75743e-06
-1.72598e-06
-1.68352e-06
-1.63167e-06
-1.57264e-06
-1.50904e-06
-1.44371e-06
-1.37941e-06
-1.31854e-06
-1.263e-06
-1.21417e-06
-1.17292e-06
-1.13975e-06
-1.1149e-06
-1.09844e-06
-1.09047e-06
-1.09105e-06
-1.10013e-06
-1.11687e-06
-1.13847e-06
-1.15471e-06
-1.15086e-06
-1.11955e-06
-1.05838e-06
-9.68301e-07
-8.53736e-07
-7.2196e-07
-5.8223e-07
-4.44954e-07
-3.20974e-07
-2.20904e-07
-1.54474e-07
-1.30111e-07
-1.54275e-07
-2.30976e-07
-3.61337e-07
-5.43311e-07
-7.71644e-07
-1.03819e-06
-1.3326e-06
-1.64343e-06
-1.9594e-06
-2.27019e-06
-1.67135e-06
-1.66508e-06
-1.65212e-06
-1.63e-06
-1.59863e-06
-1.55909e-06
-1.51283e-06
-1.46169e-06
-1.40783e-06
-1.35355e-06
-1.30102e-06
-1.25214e-06
-1.20843e-06
-1.17104e-06
-1.14075e-06
-1.11806e-06
-1.10327e-06
-1.09659e-06
-1.09809e-06
-1.10761e-06
-1.12412e-06
-1.14465e-06
-1.15958e-06
-1.15581e-06
-1.12727e-06
-1.07275e-06
-9.94024e-07
-8.95825e-07
-7.85328e-07
-6.713e-07
-5.63285e-07
-4.70903e-07
-4.03197e-07
-3.68067e-07
-3.71872e-07
-4.18911e-07
-5.11128e-07
-6.47945e-07
-8.26255e-07
-1.04065e-06
-1.28389e-06
-1.54757e-06
-1.82298e-06
-2.10187e-06
-2.37678e-06
-1.54524e-06
-1.54417e-06
-1.53814e-06
-1.5247e-06
-1.50359e-06
-1.47557e-06
-1.44159e-06
-1.40289e-06
-1.36103e-06
-1.31782e-06
-1.27508e-06
-1.23455e-06
-1.19774e-06
-1.16592e-06
-1.14007e-06
-1.1209e-06
-1.10893e-06
-1.10448e-06
-1.1077e-06
-1.11835e-06
-1.1353e-06
-1.15561e-06
-1.17041e-06
-1.16827e-06
-1.14454e-06
-1.09904e-06
-1.03423e-06
-9.54942e-07
-8.67982e-07
-7.8133e-07
-7.03372e-07
-6.42248e-07
-6.05268e-07
-5.9848e-07
-6.26344e-07
-6.91391e-07
-7.94116e-07
-9.32988e-07
-1.10461e-06
-1.30406e-06
-1.52529e-06
-1.76174e-06
-2.00688e-06
-2.25468e-06
-2.49963e-06
-1.40912e-06
-1.41355e-06
-1.41439e-06
-1.40924e-06
-1.39779e-06
-1.38064e-06
-1.35844e-06
-1.33198e-06
-1.30236e-06
-1.27092e-06
-1.23912e-06
-1.20844e-06
-1.18027e-06
-1.15585e-06
-1.13624e-06
-1.12231e-06
-1.11469e-06
-1.11386e-06
-1.12001e-06
-1.13292e-06
-1.15149e-06
-1.17301e-06
-1.18948e-06
-1.19115e-06
-1.17472e-06
-1.14095e-06
-1.09268e-06
-1.03462e-06
-9.72921e-07
-9.1452e-07
-8.66419e-07
-8.35151e-07
-8.26298e-07
-8.44211e-07
-8.91772e-07
-9.70229e-07
-1.0792e-06
-1.2168e-06
-1.37986e-06
-1.56421e-06
-1.76509e-06
-1.9775e-06
-2.19661e-06
-2.41802e-06
-2.63759e-06
-1.26196e-06
-1.27231e-06
-1.2801e-06
-1.28308e-06
-1.28097e-06
-1.27425e-06
-1.2634e-06
-1.24894e-06
-1.2316e-06
-1.21238e-06
-1.19239e-06
-1.17281e-06
-1.15484e-06
-1.1396e-06
-1.12813e-06
-1.12133e-06
-1.11993e-06
-1.12447e-06
-1.13523e-06
-1.15206e-06
-1.174e-06
-1.1988e-06
-1.21942e-06
-1.22765e-06
-1.2214e-06
-1.20214e-06
-1.17284e-06
-1.13779e-06
-1.10227e-06
-1.07198e-06
-1.05246e-06
-1.04864e-06
-1.06456e-06
-1.10315e-06
-1.16612e-06
-1.25388e-06
-1.36568e-06
-1.49965e-06
-1.65314e-06
-1.82284e-06
-2.00513e-06
-2.19633e-06
-2.39289e-06
-2.59163e-06
-2.78941e-06
-1.10334e-06
-1.12016e-06
-1.13513e-06
-1.1463e-06
-1.15342e-06
-1.15692e-06
-1.15717e-06
-1.15451e-06
-1.14946e-06
-1.14274e-06
-1.13518e-06
-1.12769e-06
-1.12124e-06
-1.11681e-06
-1.11531e-06
-1.11761e-06
-1.12445e-06
-1.1364e-06
-1.15382e-06
-1.17668e-06
-1.20429e-06
-1.23503e-06
-1.26285e-06
-1.28078e-06
-1.28773e-06
-1.28555e-06
-1.27709e-06
-1.26599e-06
-1.25652e-06
-1.25308e-06
-1.25981e-06
-1.28023e-06
-1.31708e-06
-1.37225e-06
-1.44665e-06
-1.54027e-06
-1.65228e-06
-1.78111e-06
-1.92469e-06
-2.08055e-06
-2.24606e-06
-2.41856e-06
-2.59549e-06
-2.77457e-06
-2.95344e-06
-9.33553e-07
-9.57541e-07
-9.80117e-07
-9.99728e-07
-1.01621e-06
-1.02994e-06
-1.04123e-06
-1.05034e-06
-1.05763e-06
-1.06364e-06
-1.06898e-06
-1.07436e-06
-1.08054e-06
-1.0883e-06
-1.09844e-06
-1.11171e-06
-1.12882e-06
-1.15034e-06
-1.1767e-06
-1.20801e-06
-1.24395e-06
-1.28362e-06
-1.3219e-06
-1.35273e-06
-1.3756e-06
-1.39246e-06
-1.40578e-06
-1.41847e-06
-1.43376e-06
-1.45485e-06
-1.48466e-06
-1.52558e-06
-1.57938e-06
-1.64723e-06
-1.7296e-06
-1.82633e-06
-1.9367e-06
-2.05957e-06
-2.19341e-06
-2.3365e-06
-2.487e-06
-2.64305e-06
-2.80286e-06
-2.96479e-06
-3.12714e-06
-7.5429e-07
-7.86308e-07
-8.17044e-07
-8.45553e-07
-8.71778e-07
-8.9602e-07
-9.18529e-07
-9.39526e-07
-9.59313e-07
-9.7829e-07
-9.96934e-07
-1.01578e-06
-1.03543e-06
-1.05649e-06
-1.07963e-06
-1.10549e-06
-1.1347e-06
-1.16782e-06
-1.20532e-06
-1.2475e-06
-1.29442e-06
-1.34586e-06
-1.39751e-06
-1.44391e-06
-1.48465e-06
-1.52145e-06
-1.5563e-06
-1.59138e-06
-1.62902e-06
-1.67143e-06
-1.72057e-06
-1.77802e-06
-1.84493e-06
-1.92201e-06
-2.00952e-06
-2.10732e-06
-2.21493e-06
-2.33157e-06
-2.45625e-06
-2.58783e-06
-2.72508e-06
-2.86678e-06
-3.01169e-06
-3.15869e-06
-3.30659e-06
-5.68999e-07
-6.10025e-07
-6.49621e-07
-6.87672e-07
-7.24245e-07
-7.59505e-07
-7.93633e-07
-8.26846e-07
-8.59407e-07
-8.9164e-07
-9.23922e-07
-9.56674e-07
-9.9036e-07
-1.02548e-06
-1.06257e-06
-1.10218e-06
-1.14486e-06
-1.19114e-06
-1.24153e-06
-1.2965e-06
-1.35642e-06
-1.42161e-06
-1.48849e-06
-1.55195e-06
-1.61127e-06
-1.66761e-06
-1.72246e-06
-1.77748e-06
-1.83428e-06
-1.89431e-06
-1.95886e-06
-2.02896e-06
-2.10543e-06
-2.18877e-06
-2.27919e-06
-2.37663e-06
-2.48085e-06
-2.5914e-06
-2.70772e-06
-2.82912e-06
-2.95485e-06
-3.08412e-06
-3.21617e-06
-3.35022e-06
-3.48554e-06
-3.9571e-07
-4.46313e-07
-4.95229e-07
-5.43137e-07
-5.90216e-07
-6.36479e-07
-6.82043e-07
-7.27121e-07
-7.71961e-07
-8.16839e-07
-8.62061e-07
-9.07975e-07
-9.54964e-07
-1.00344e-06
-1.05386e-06
-1.10669e-06
-1.16242e-06
-1.22156e-06
-1.28466e-06
-1.35225e-06
-1.42493e-06
-1.50324e-06
-1.58418e-06
-1.66312e-06
-1.7387e-06
-1.81138e-06
-1.88229e-06
-1.95276e-06
-2.02398e-06
-2.09693e-06
-2.17249e-06
-2.2514e-06
-2.33425e-06
-2.42145e-06
-2.51321e-06
-2.60961e-06
-2.71056e-06
-2.8159e-06
-2.92532e-06
-3.03848e-06
-3.15495e-06
-3.27427e-06
-3.39598e-06
-3.51958e-06
-3.64471e-06
-2.56055e-07
-3.15643e-07
-3.73548e-07
-4.30732e-07
-4.87403e-07
-5.4351e-07
-5.99142e-07
-6.54504e-07
-7.09828e-07
-7.65355e-07
-8.2135e-07
-8.78113e-07
-9.35975e-07
-9.95295e-07
-1.05647e-06
-1.11991e-06
-1.18607e-06
-1.25545e-06
-1.32857e-06
-1.40601e-06
-1.48846e-06
-1.57648e-06
-1.66751e-06
-1.75737e-06
-1.84423e-06
-1.92798e-06
-2.00953e-06
-2.09006e-06
-2.17051e-06
-2.25162e-06
-2.33404e-06
-2.41834e-06
-2.50497e-06
-2.59429e-06
-2.68653e-06
-2.78183e-06
-2.88025e-06
-2.98174e-06
-3.08621e-06
-3.19347e-06
-3.3033e-06
-3.41546e-06
-3.52965e-06
-3.64557e-06
-3.76304e-06
-1.53004e-07
-2.20453e-07
-2.86312e-07
-3.51535e-07
-4.16316e-07
-4.80605e-07
-5.44482e-07
-6.08141e-07
-6.71793e-07
-7.35655e-07
-7.99961e-07
-8.64979e-07
-9.31003e-07
-9.98355e-07
-1.06739e-06
-1.13848e-06
-1.21206e-06
-1.28858e-06
-1.36857e-06
-1.45259e-06
-1.54134e-06
-1.63532e-06
-1.73233e-06
-1.82862e-06
-1.92211e-06
-2.01238e-06
-2.10019e-06
-2.18663e-06
-2.27247e-06
-2.3583e-06
-2.44464e-06
-2.53197e-06
-2.62067e-06
-2.71107e-06
-2.80341e-06
-2.89787e-06
-2.99455e-06
-3.0935e-06
-3.19471e-06
-3.29812e-06
-3.40361e-06
-3.51106e-06
-3.62029e-06
-3.7311e-06
-3.84342e-06
-7.90929e-08
-1.53232e-07
-2.25878e-07
-2.97859e-07
-3.69346e-07
-4.40304e-07
-5.10815e-07
-5.81058e-07
-6.51224e-07
-7.21506e-07
-7.92117e-07
-8.63299e-07
-9.35316e-07
-1.00846e-06
-1.08305e-06
-1.15945e-06
-1.23803e-06
-1.31924e-06
-1.40358e-06
-1.49156e-06
-1.58389e-06
-1.68098e-06
-1.78089e-06
-1.88033e-06
-1.97715e-06
-2.07078e-06
-2.16193e-06
-2.25156e-06
-2.34035e-06
-2.42878e-06
-2.51729e-06
-2.60631e-06
-2.69616e-06
-2.78715e-06
-2.8795e-06
-2.97342e-06
-3.06903e-06
-3.16642e-06
-3.26563e-06
-3.36666e-06
-3.46947e-06
-3.57399e-06
-3.68012e-06
-3.78774e-06
-3.8968e-06
-2.75222e-08
-1.07273e-07
-1.85593e-07
-2.63159e-07
-3.40109e-07
-4.16429e-07
-4.92206e-07
-5.67602e-07
-6.42787e-07
-7.17938e-07
-7.93249e-07
-8.6894e-07
-9.45253e-07
-1.02245e-06
-1.10084e-06
-1.18073e-06
-1.2625e-06
-1.34654e-06
-1.43332e-06
-1.52335e-06
-1.61727e-06
-1.71542e-06
-1.81611e-06
-1.91644e-06
-2.01434e-06
-2.10926e-06
-2.20182e-06
-2.29291e-06
-2.38309e-06
-2.47278e-06
-2.56239e-06
-2.65226e-06
-2.74272e-06
-2.83402e-06
-2.92639e-06
-3.02001e-06
-3.11504e-06
-3.21158e-06
-3.30969e-06
-3.4094e-06
-3.51073e-06
-3.61362e-06
-3.71804e-06
-3.8239e-06
-3.93119e-06
7.43208e-09
-7.69839e-08
-1.59987e-07
-2.42109e-07
-3.2346e-07
-4.04044e-07
-4.83954e-07
-5.63334e-07
-6.42339e-07
-7.2113e-07
-7.99887e-07
-8.78811e-07
-9.58126e-07
-1.03808e-06
-1.11893e-06
-1.201e-06
-1.28462e-06
-1.37016e-06
-1.45806e-06
-1.54879e-06
-1.64295e-06
-1.7408e-06
-1.84088e-06
-1.94065e-06
-2.03822e-06
-2.13309e-06
-2.22586e-06
-2.3173e-06
-2.4079e-06
-2.49804e-06
-2.58807e-06
-2.67831e-06
-2.76904e-06
-2.8605e-06
-2.95291e-06
-3.04644e-06
-3.14125e-06
-3.23743e-06
-3.33508e-06
-3.43424e-06
-3.53493e-06
-3.63714e-06
-3.74086e-06
-3.84601e-06
-3.95261e-06
3.03866e-08
-5.78926e-08
-1.44736e-07
-2.30553e-07
-3.1543e-07
-3.99388e-07
-4.82521e-07
-5.64961e-07
-6.46848e-07
-7.28333e-07
-8.09582e-07
-8.90783e-07
-9.72142e-07
-1.05389e-06
-1.13627e-06
-1.21958e-06
-1.30412e-06
-1.39025e-06
-1.47837e-06
-1.56891e-06
-1.66243e-06
-1.75915e-06
-1.85778e-06
-1.95613e-06
-2.05252e-06
-2.14656e-06
-2.23881e-06
-2.32995e-06
-2.42039e-06
-2.51047e-06
-2.60052e-06
-2.69082e-06
-2.78162e-06
-2.87317e-06
-2.96564e-06
-3.05922e-06
-3.15404e-06
-3.25021e-06
-3.34782e-06
-3.44693e-06
-3.54758e-06
-3.64976e-06
-3.75347e-06
-3.85866e-06
-3.96534e-06
4.49019e-08
-4.65788e-08
-1.3657e-07
-2.25381e-07
-3.13081e-07
-3.99708e-07
-4.85353e-07
-5.70138e-07
-6.54194e-07
-7.37661e-07
-8.20696e-07
-9.03475e-07
-9.86192e-07
-1.06906e-06
-1.15231e-06
-1.23622e-06
-1.32106e-06
-1.40718e-06
-1.49494e-06
-1.58475e-06
-1.67712e-06
-1.77223e-06
-1.86896e-06
-1.96544e-06
-2.06021e-06
-2.15299e-06
-2.24433e-06
-2.33478e-06
-2.42472e-06
-2.51446e-06
-2.60429e-06
-2.69447e-06
-2.78524e-06
-2.87681e-06
-2.96936e-06
-3.06306e-06
-3.15805e-06
-3.25442e-06
-3.35228e-06
-3.45167e-06
-3.55265e-06
-3.65522e-06
-3.75938e-06
-3.8651e-06
-3.97238e-06
5.3627e-08
-4.05184e-08
-1.33098e-07
-2.24345e-07
-3.14318e-07
-4.03064e-07
-4.90676e-07
-5.77267e-07
-6.62959e-07
-7.47886e-07
-8.32196e-07
-9.16057e-07
-9.99649e-07
-1.08317e-06
-1.16686e-06
-1.25094e-06
-1.3357e-06
-1.42144e-06
-1.5085e-06
-1.59727e-06
-1.68822e-06
-1.78149e-06
-1.87613e-06
-1.97055e-06
-2.06351e-06
-2.15486e-06
-2.24509e-06
-2.33467e-06
-2.42393e-06
-2.51316e-06
-2.60264e-06
-2.69259e-06
-2.78325e-06
-2.87481e-06
-2.96745e-06
-3.06132e-06
-3.15655e-06
-3.25325e-06
-3.35151e-06
-3.45138e-06
-3.55292e-06
-3.65613e-06
-3.76102e-06
-3.86756e-06
-3.97576e-06
5.84694e-08
-3.79097e-08
-1.32633e-07
-2.25878e-07
-3.17696e-07
-4.08143e-07
-4.97311e-07
-5.85305e-07
-6.72242e-07
-7.58251e-07
-8.43474e-07
-9.28069e-07
-1.01221e-06
-1.09609e-06
-1.17991e-06
-1.26391e-06
-1.34835e-06
-1.4335e-06
-1.51969e-06
-1.60727e-06
-1.69668e-06
-1.78805e-06
-1.88057e-06
-1.9729e-06
-2.06404e-06
-2.15391e-06
-2.24296e-06
-2.33159e-06
-2.4201e-06
-2.50876e-06
-2.59781e-06
-2.68748e-06
-2.77799e-06
-2.86952e-06
-2.96224e-06
-3.05628e-06
-3.1518e-06
-3.24887e-06
-3.34761e-06
-3.44806e-06
-3.55027e-06
-3.65426e-06
-3.76003e-06
-3.86755e-06
-3.97683e-06
6.07646e-08
-3.75036e-08
-1.3402e-07
-2.28921e-07
-3.22255e-07
-4.14084e-07
-5.04498e-07
-5.93597e-07
-6.81496e-07
-7.68317e-07
-8.54199e-07
-9.39293e-07
-1.02376e-06
-1.1078e-06
-1.19158e-06
-1.27535e-06
-1.35933e-06
-1.4438e-06
-1.52905e-06
-1.61539e-06
-1.70326e-06
-1.79275e-06
-1.88321e-06
-1.97354e-06
-2.06292e-06
-2.15135e-06
-2.23923e-06
-2.3269e-06
-2.41464e-06
-2.5027e-06
-2.5913e-06
-2.68067e-06
-2.771e-06
-2.86248e-06
-2.95525e-06
-3.04948e-06
-3.14527e-06
-3.24274e-06
-3.34197e-06
-3.44303e-06
-3.54595e-06
-3.65077e-06
-3.75748e-06
-3.86605e-06
-3.97647e-06
6.14252e-08
-3.84557e-08
-1.36487e-07
-2.32777e-07
-3.27372e-07
-4.2034e-07
-5.11768e-07
-6.01753e-07
-6.90406e-07
-7.77848e-07
-8.64211e-07
-9.49644e-07
-1.0343e-06
-1.11836e-06
-1.20202e-06
-1.28547e-06
-1.36894e-06
-1.45268e-06
-1.53697e-06
-1.6221e-06
-1.70848e-06
-1.79618e-06
-1.8847e-06
-1.97316e-06
-2.06089e-06
-2.14796e-06
-2.23472e-06
-2.32147e-06
-2.40846e-06
-2.49593e-06
-2.58408e-06
-2.67314e-06
-2.76328e-06
-2.85468e-06
-2.9475e-06
-3.04188e-06
-3.13794e-06
-3.23579e-06
-3.3355e-06
-3.43716e-06
-3.54079e-06
-3.64643e-06
-3.75406e-06
-3.86367e-06
-3.97523e-06
6.10635e-08
-4.02064e-08
-1.39532e-07
-2.36999e-07
-3.32659e-07
-4.26578e-07
-5.18843e-07
-6.0955e-07
-6.98806e-07
-7.86731e-07
-8.73453e-07
-9.59115e-07
-1.04387e-06
-1.12789e-06
-1.21135e-06
-1.29444e-06
-1.37739e-06
-1.46042e-06
-1.54379e-06
-1.62776e-06
-1.71273e-06
-1.79876e-06
-1.88547e-06
-1.97221e-06
-2.05844e-06
-2.14426e-06
-2.22998e-06
-2.31586e-06
-2.40213e-06
-2.48903e-06
-2.57675e-06
-2.66549e-06
-2.75543e-06
-2.84675e-06
-2.9396e-06
-3.03411e-06
-3.13041e-06
-3.2286e-06
-3.32877e-06
-3.43099e-06
-3.53529e-06
-3.6417e-06
-3.75023e-06
-3.86083e-06
-3.97349e-06
6.00841e-08
-4.23916e-08
-1.42832e-07
-2.41309e-07
-3.37876e-07
-4.326e-07
-5.25567e-07
-6.16871e-07
-7.06618e-07
-7.94925e-07
-8.8192e-07
-9.67739e-07
-1.05253e-06
-1.13647e-06
-1.21971e-06
-1.30244e-06
-1.38487e-06
-1.46722e-06
-1.54972e-06
-1.63262e-06
-1.71627e-06
-1.80077e-06
-1.88583e-06
-1.971e-06
-2.05586e-06
-2.14053e-06
-2.22529e-06
-2.31036e-06
-2.39598e-06
-2.48234e-06
-2.56964e-06
-2.65808e-06
-2.74783e-06
-2.83906e-06
-2.93191e-06
-3.02653e-06
-3.12304e-06
-3.22154e-06
-3.32212e-06
-3.42485e-06
-3.52977e-06
-3.6369e-06
-3.74625e-06
-3.85779e-06
-3.97147e-06
5.87525e-08
-4.47765e-08
-1.46185e-07
-2.45535e-07
-3.42882e-07
-4.38294e-07
-5.31856e-07
-6.23661e-07
-7.13814e-07
-8.0243e-07
-8.89634e-07
-9.75562e-07
-1.06036e-06
-1.14418e-06
-1.2272e-06
-1.30958e-06
-1.39152e-06
-1.47323e-06
-1.55493e-06
-1.63684e-06
-1.71929e-06
-1.80238e-06
-1.88593e-06
-1.96969e-06
-2.05333e-06
-2.13696e-06
-2.22084e-06
-2.30518e-06
-2.39018e-06
-2.47604e-06
-2.56296e-06
-2.65111e-06
-2.74066e-06
-2.83179e-06
-2.92464e-06
-3.01934e-06
-3.11603e-06
-3.2148e-06
-3.31575e-06
-3.41894e-06
-3.52442e-06
-3.63221e-06
-3.74231e-06
-3.8547e-06
-3.96932e-06
5.72422e-08
-4.72104e-08
-1.49463e-07
-2.49573e-07
-3.47595e-07
-4.436e-07
-5.3767e-07
-6.299e-07
-7.20392e-07
-8.0926e-07
-8.96629e-07
-9.82631e-07
-1.06741e-06
-1.15111e-06
-1.23391e-06
-1.31595e-06
-1.39744e-06
-1.47856e-06
-1.55953e-06
-1.64053e-06
-1.7219e-06
-1.80371e-06
-1.8859e-06
-1.9684e-06
-2.05093e-06
-2.13363e-06
-2.21672e-06
-2.30038e-06
-2.38483e-06
-2.47023e-06
-2.55679e-06
-2.64467e-06
-2.73404e-06
-2.82507e-06
-2.9179e-06
-3.01267e-06
-3.1095e-06
-3.20851e-06
-3.30977e-06
-3.41337e-06
-3.51935e-06
-3.62773e-06
-3.73851e-06
-3.85166e-06
-3.96715e-06
5.56597e-08
-4.9605e-08
-1.52596e-07
-2.53369e-07
-3.51979e-07
-4.48497e-07
-5.43005e-07
-6.35596e-07
-7.26374e-07
-8.15452e-07
-9.02951e-07
-9.89004e-07
-1.07375e-06
-1.15733e-06
-1.23991e-06
-1.32165e-06
-1.40272e-06
-1.48331e-06
-1.5636e-06
-1.64379e-06
-1.72418e-06
-1.80483e-06
-1.8858e-06
-1.96716e-06
-2.04872e-06
-2.13058e-06
-2.21295e-06
-2.29602e-06
-2.37995e-06
-2.46494e-06
-2.55117e-06
-2.63879e-06
-2.72799e-06
-2.81891e-06
-2.91172e-06
-3.00653e-06
-3.10349e-06
-3.2027e-06
-3.30424e-06
-3.4082e-06
-3.51461e-06
-3.62351e-06
-3.7349e-06
-3.84875e-06
-3.965e-06
5.40471e-08
-5.19421e-08
-1.5559e-07
-2.5695e-07
-3.56079e-07
-4.53048e-07
-5.47938e-07
-6.40844e-07
-7.31867e-07
-8.21121e-07
-9.08727e-07
-9.94813e-07
-1.07952e-06
-1.16298e-06
-1.24536e-06
-1.32681e-06
-1.40749e-06
-1.48759e-06
-1.56727e-06
-1.64672e-06
-1.72622e-06
-1.80581e-06
-1.88567e-06
-1.966e-06
-2.04667e-06
-2.12778e-06
-2.2095e-06
-2.29202e-06