/*--------------------------------*- C++ -*----------------------------------*\
| =========                 |                                                 |
| \\      /  F ield         | OpenFOAM: The Open Source CFD Toolbox           |
|  \\    /   O peration     | Version:  2312                                  |
|   \\  /    A nd           | Website:  www.openfoam.com                      |
|    \\/     M anipulation  |                                                 |
\*---------------------------------------------------------------------------*/
FoamFile
{
    version     2.0;
    format      ascii;
    arch        "LSB;label=32;scalar=64";
    class       surfaceScalarField;
    location    "400";
    object      phi;
}
// * * * * * * * * * * * * * * * * * * * * * * * * * * * * * * * * * * * * * //

dimensions      [0 3 -1 0 0 0 0];

oriented        oriented;

internalField   nonuniform List<scalar> 
9445
(
1.80452e-10
2.92546e-12
1.79033e-10
1.41879e-12
1.78544e-10
4.89007e-13
1.78719e-10
-1.7547e-13
1.79403e-10
-6.83164e-13
1.80508e-10
-1.10581e-12
1.82008e-10
-1.49955e-12
1.83929e-10
-1.92065e-12
1.86394e-10
-2.4652e-12
1.89755e-10
-3.36138e-12
1.94968e-10
-5.21249e-12
2.04589e-10
-9.62111e-12
2.245e-10
-1.99111e-11
2.69281e-10
-4.47816e-11
-1.19609e-10
3.88891e-10
6.3161e-10
1.32691e-11
6.26421e-10
6.60778e-12
6.24439e-10
2.4712e-12
6.24719e-10
-4.56026e-13
6.26722e-10
-2.68537e-12
6.30147e-10
-4.53138e-12
6.34892e-10
-6.24409e-12
6.41046e-10
-8.07459e-12
6.49003e-10
-1.04228e-11
6.59762e-10
-1.41206e-11
6.75525e-10
-2.09752e-11
7.00539e-10
-3.46355e-11
7.41794e-10
-6.11653e-11
8.07064e-10
-1.10052e-10
-1.91626e-10
8.7908e-10
1.24962e-09
3.38847e-11
1.23903e-09
1.72016e-11
1.23468e-09
6.81608e-12
1.23471e-09
-4.77698e-13
1.23803e-09
-6.00722e-12
1.24405e-09
-1.05573e-11
1.25255e-09
-1.47454e-11
1.26366e-09
-1.91755e-11
1.27796e-09
-2.47311e-11
1.29687e-09
-3.30241e-11
1.32287e-09
-4.69786e-11
1.35942e-09
-7.11808e-11
1.40908e-09
-1.1083e-10
1.46738e-09
-1.68348e-10
-2.36364e-10
1.51211e-09
2.08187e-09
6.83831e-11
2.06369e-09
3.53828e-11
2.05572e-09
1.47867e-11
2.05482e-09
4.22869e-13
2.05921e-09
-1.0399e-11
2.06788e-09
-1.92282e-11
2.08038e-09
-2.7247e-11
2.09676e-09
-3.55546e-11
2.11761e-09
-4.55832e-11
2.14416e-09
-5.95734e-11
2.17804e-09
-8.08589e-11
2.22015e-09
-1.13287e-10
2.26813e-09
-1.58807e-10
2.31324e-09
-2.13464e-10
-2.64417e-10
2.3413e-09
3.18702e-09
1.21233e-10
3.15842e-09
6.39851e-11
3.14506e-09
2.81516e-11
3.14215e-09
3.32784e-12
3.14698e-09
-1.52297e-11
3.15795e-09
-3.01994e-11
3.17424e-09
-4.35376e-11
3.19562e-09
-5.69326e-11
3.22232e-09
-7.22848e-11
3.25481e-09
-9.20588e-11
3.29308e-09
-1.19129e-10
3.33534e-09
-1.55546e-10
3.3766e-09
-2.0007e-10
3.40906e-09
-2.4592e-10
-2.81586e-10
3.42622e-09
4.63689e-09
1.97663e-10
4.59434e-09
1.06536e-10
4.57322e-09
4.92792e-11
4.56668e-09
9.86064e-12
4.57079e-09
-1.93403e-11
4.58316e-09
-4.25655e-11
4.60238e-09
-6.27556e-11
4.62768e-09
-8.22304e-11
4.65857e-09
-1.03184e-10
4.69438e-09
-1.27866e-10
4.7334e-09
-1.58143e-10
4.77208e-09
-1.94231e-10
4.80513e-09
-2.33124e-10
4.82745e-09
-2.68231e-10
-2.91654e-10
4.83751e-09
6.51804e-09
3.03295e-10
6.45744e-09
1.67132e-10
6.42557e-09
8.11494e-11
6.41317e-09
2.22659e-11
6.41475e-09
-2.09211e-11
6.42689e-09
-5.47101e-11
6.44738e-09
-8.32402e-11
6.47463e-09
-1.09485e-10
6.50722e-09
-1.35776e-10
6.54327e-09
-1.63911e-10
6.57985e-09
-1.94728e-10
6.61292e-09
-2.27302e-10
6.63821e-09
-2.58412e-10
6.65319e-09
-2.83207e-10
-2.97266e-10
6.6588e-09
8.93255e-09
4.43158e-10
8.84971e-09
2.49978e-10
8.8037e-09
1.27158e-10
8.78261e-09
4.33574e-11
8.77918e-09
-1.74874e-11
8.78872e-09
-6.42504e-11
8.80798e-09
-1.02499e-10
8.83441e-09
-1.35918e-10
8.86559e-09
-1.66961e-10
8.89873e-09
-1.97047e-10
8.93042e-09
-2.26411e-10
8.957e-09
-2.53885e-10
8.97565e-09
-2.77061e-10
8.98559e-09
-2.93153e-10
-3.00276e-10
8.9886e-09
1.19973e-08
6.19811e-10
1.1889e-08
3.58302e-10
1.18256e-08
1.90517e-10
1.17928e-08
7.61854e-11
1.17814e-08
-6.07304e-12
1.17853e-08
-6.8178e-11
1.18002e-08
-1.17374e-10
1.18224e-08
-1.58203e-10
1.18489e-08
-1.93408e-10
1.18762e-08
-2.24379e-10
1.19012e-08
-2.51353e-10
1.19209e-08
-2.73638e-10
1.19339e-08
-2.90044e-10
1.19403e-08
-2.9953e-10
-3.01806e-10
1.19418e-08
1.58403e-08
8.30211e-10
1.57062e-08
4.92394e-10
1.56237e-08
2.73004e-10
1.55767e-08
1.23217e-10
1.55544e-08
1.61905e-11
1.55495e-08
-6.33272e-11
1.55567e-08
-1.24493e-10
1.55714e-08
-1.72929e-10
1.559e-08
-2.11986e-10
1.56091e-08
-2.43483e-10
1.56259e-08
-2.68199e-10
1.56386e-08
-2.86305e-10
1.56463e-08
-2.97804e-10
1.56497e-08
-3.02905e-10
-3.02219e-10
1.56501e-08
2.05936e-08
1.06171e-09
2.04393e-08
6.46696e-10
2.03394e-08
3.72895e-10
2.02778e-08
1.84847e-10
2.0243e-08
5.09422e-11
2.0227e-08
-4.73089e-11
2.02236e-08
-1.21089e-10
2.0228e-08
-1.77325e-10
2.02363e-08
-2.20307e-10
2.02455e-08
-2.52673e-10
2.02534e-08
-2.76068e-10
2.02587e-08
-2.91625e-10
2.02612e-08
-3.00318e-10
2.02615e-08
-3.03161e-10
-3.01234e-10
2.02605e-08
2.63835e-08
1.28894e-09
2.62234e-08
8.06816e-10
2.61139e-08
4.82439e-10
2.60414e-08
2.57352e-10
2.59954e-08
9.69111e-11
2.5968e-08
-1.99251e-11
2.59531e-08
-1.06202e-10
2.5946e-08
-1.70225e-10
2.59431e-08
-2.17414e-10
2.59419e-08
-2.51417e-10
2.59406e-08
-2.74822e-10
2.59386e-08
-2.89626e-10
2.59358e-08
-2.9751e-10
2.59326e-08
-2.99971e-10
-2.98311e-10
2.59297e-08
3.3323e-08
1.47597e-09
3.31807e-08
9.49053e-10
3.30767e-08
5.8642e-10
3.30029e-08
3.31202e-10
3.29515e-08
1.48265e-10
3.29163e-08
1.53161e-11
3.28921e-08
-8.19899e-11
3.2875e-08
-1.53132e-10
3.28622e-08
-2.04584e-10
3.28517e-08
-2.40935e-10
3.28424e-08
-2.65588e-10
3.2834e-08
-2.81193e-10
3.28264e-08
-2.89893e-10
3.28199e-08
-2.9345e-10
-2.93253e-10
3.28148e-08
4.15162e-08
1.58831e-09
4.14188e-08
1.04648e-09
4.13403e-08
6.64893e-10
4.12795e-08
3.91995e-10
4.12331e-08
1.94621e-10
4.11977e-08
5.07798e-11
4.117e-08
-5.43e-11
4.11476e-08
-1.30767e-10
4.11288e-08
-1.858e-10
4.11126e-08
-2.24642e-10
4.10982e-08
-2.51234e-10
4.10856e-08
-2.68616e-10
4.10749e-08
-2.79172e-10
4.10662e-08
-2.84776e-10
-2.86824e-10
4.10598e-08
5.1082e-08
1.61193e-09
5.10459e-08
1.08253e-09
5.10085e-08
7.02327e-10
5.09741e-08
4.26416e-10
5.09438e-08
2.24911e-10
5.09173e-08
7.72395e-11
5.0894e-08
-3.09565e-11
5.08731e-08
-1.09878e-10
5.08542e-08
-1.66936e-10
5.08372e-08
-2.07623e-10
5.08221e-08
-2.36088e-10
5.08089e-08
-2.55499e-10
5.07981e-08
-2.68287e-10
5.07896e-08
-2.76314e-10
-2.80925e-10
5.07837e-08
6.21703e-08
1.56241e-09
6.21903e-08
1.06252e-09
6.21943e-08
6.98392e-10
6.21894e-08
4.31289e-10
6.21797e-08
2.34641e-10
6.21672e-08
8.96558e-11
6.21534e-08
-1.71445e-11
6.21391e-08
-9.55565e-11
6.2125e-08
-1.52808e-10
6.21117e-08
-1.943e-10
6.20997e-08
-2.24101e-10
6.20895e-08
-2.45295e-10
6.20814e-08
-2.60217e-10
6.20757e-08
-2.70628e-10
-2.77777e-10
6.20726e-08
7.49129e-08
1.46962e-09
7.49675e-08
1.00785e-09
7.49982e-08
6.67737e-10
7.50133e-08
4.16207e-10
7.50182e-08
2.29762e-10
7.50164e-08
9.14138e-11
7.50105e-08
-1.12395e-11
7.50023e-08
-8.73339e-11
7.49931e-08
-1.43661e-10
7.49841e-08
-1.85301e-10
7.49761e-08
-2.16074e-10
7.49697e-08
-2.38851e-10
7.49652e-08
-2.55789e-10
7.49631e-08
-2.685e-10
-2.78112e-10
7.49634e-08
8.9273e-08
1.35281e-09
8.93448e-08
9.3612e-10
8.9387e-08
6.25554e-10
8.94094e-08
3.93716e-10
8.94188e-08
2.20356e-10
8.94198e-08
9.05131e-11
8.94154e-08
-6.89979e-12
8.94082e-08
-8.01314e-11
8.93999e-08
-1.35345e-10
8.93917e-08
-1.77158e-10
8.93847e-08
-2.0903e-10
8.93794e-08
-2.33555e-10
8.93763e-08
-2.52672e-10
8.93756e-08
-2.67826e-10
-2.80013e-10
8.93775e-08
1.04851e-07
1.2136e-09
1.04936e-07
8.50442e-10
1.04986e-07
5.75837e-10
1.05012e-07
3.68171e-10
1.05021e-07
2.10817e-10
1.0502e-07
9.12351e-11
1.05013e-07
1.9397e-15
1.05003e-07
-6.99668e-11
1.04992e-07
-1.23997e-10
1.04981e-07
-1.66097e-10
1.04971e-07
-1.99277e-10
1.04963e-07
-2.25796e-10
1.04958e-07
-2.4734e-10
1.04955e-07
-2.6517e-10
-2.80141e-10
1.04956e-07
1.20696e-07
1.04685e-09
1.20801e-07
7.45852e-10
1.20863e-07
5.14258e-10
1.20895e-07
3.36072e-10
1.20907e-07
1.98544e-10
1.20906e-07
9.18923e-11
1.20898e-07
8.66661e-12
1.20884e-07
-5.68144e-11
1.20869e-07
-1.08868e-10
1.20854e-07
-1.50759e-10
1.2084e-07
-1.84952e-10
1.20827e-07
-2.13303e-10
1.20817e-07
-2.37202e-10
1.2081e-07
-2.57697e-10
-2.75488e-10
1.20805e-07
1.19724e-07
8.74224e-10
1.19835e-07
6.34422e-10
1.19903e-07
4.46312e-10
1.1994e-07
2.98653e-10
1.19957e-07
1.82207e-10
1.19959e-07
8.97695e-11
1.19952e-07
1.5777e-11
1.19939e-07
-4.40725e-11
1.19923e-07
-9.30881e-11
1.19906e-07
-1.33794e-10
1.19889e-07
-1.68105e-10
1.19874e-07
-1.97473e-10
1.19859e-07
-2.22992e-10
1.19847e-07
-2.45494e-10
-2.65541e-10
1.19837e-07
1.02347e-07
7.2036e-10
1.0245e-07
5.31515e-10
1.02515e-07
3.80564e-10
1.02554e-07
2.59664e-10
1.02574e-07
1.62249e-10
1.02581e-07
8.31278e-11
1.02578e-07
1.82292e-11
1.0257e-07
-3.56291e-11
1.02558e-07
-8.0915e-11
1.02544e-07
-1.19527e-10
1.02528e-07
-1.52919e-10
1.02513e-07
-1.82199e-10
1.02498e-07
-2.08209e-10
1.02484e-07
-2.31589e-10
-2.52782e-10
1.02472e-07
8.57297e-08
5.85036e-10
8.58236e-08
4.3759e-10
8.58866e-08
3.17561e-10
8.59268e-08
2.19501e-10
8.59502e-08
1.38824e-10
8.59615e-08
7.18593e-11
8.5964e-08
1.5681e-11
8.59604e-08
-3.20246e-11
8.59525e-08
-7.30634e-11
8.59418e-08
-1.08832e-10
8.59293e-08
-1.40407e-10
8.59157e-08
-1.68612e-10
8.59016e-08
-1.94077e-10
8.58873e-08
-2.1728e-10
-2.38557e-10
8.58731e-08
7.06759e-08
4.6716e-10
7.07605e-08
3.52962e-10
7.08197e-08
2.58328e-10
7.08597e-08
1.79497e-10
7.08852e-08
1.1333e-10
7.08998e-08
5.72851e-11
7.09062e-08
9.2945e-12
7.09065e-08
-3.22934e-11
7.09022e-08
-6.87738e-11
7.08945e-08
-1.01151e-10
7.08843e-08
-1.30202e-10
7.08722e-08
-1.56524e-10
7.08587e-08
-1.80575e-10
7.08441e-08
-2.027e-10
-2.23143e-10
7.08287e-08
5.7511e-08
3.65611e-10
5.7586e-08
2.7798e-10
5.76402e-08
2.04073e-10
5.76784e-08
1.41323e-10
5.77041e-08
8.76424e-11
5.77201e-08
4.13128e-11
5.77284e-08
9.03992e-13
5.77309e-08
-3.47397e-11
5.77286e-08
-6.65251e-11
5.77227e-08
-9.51556e-11
5.77136e-08
-1.21176e-10
5.77021e-08
-1.45007e-10
5.76885e-08
-1.6697e-10
5.76731e-08
-1.87304e-10
-2.06178e-10
5.76561e-08
4.6278e-08
2.79704e-10
4.63428e-08
2.13207e-10
4.63908e-08
1.56125e-10
4.64253e-08
1.06742e-10
4.64493e-08
6.37291e-11
4.64646e-08
2.59642e-11
4.6473e-08
-7.51995e-12
4.64758e-08
-3.75111e-11
4.64739e-08
-6.46244e-11
4.64681e-08
-8.93374e-11
4.64589e-08
-1.12021e-10
4.64469e-08
-1.32959e-10
4.64323e-08
-1.52369e-10
4.64154e-08
-1.70411e-10
-1.87195e-10
4.63964e-08
3.68641e-08
2.08875e-10
3.69182e-08
1.59069e-10
3.69588e-08
1.15535e-10
3.69884e-08
7.71706e-11
3.70089e-08
4.31855e-11
3.7022e-08
1.28793e-11
3.70289e-08
-1.43824e-11
3.70305e-08
-3.91197e-11
3.70276e-08
-6.1735e-11
3.70208e-08
-8.25407e-11
3.70106e-08
-1.01779e-10
3.69972e-08
-1.19636e-10
3.69811e-08
-1.3625e-10
3.69624e-08
-1.51725e-10
-1.66127e-10
3.69414e-08
2.90818e-08
1.52215e-10
2.91254e-08
1.15451e-10
2.91582e-08
8.27103e-11
2.9182e-08
5.33262e-11
2.91983e-08
2.68868e-11
2.92082e-08
2.98053e-12
2.92127e-08
-1.87949e-11
2.92123e-08
-3.87691e-11
2.92078e-08
-5.71944e-11
2.91995e-08
-7.42665e-11
2.91879e-08
-9.01373e-11
2.91731e-08
-1.04922e-10
2.91556e-08
-1.18706e-10
2.91354e-08
-1.31552e-10
-1.43496e-10
2.91128e-08
2.27188e-08
1.08282e-10
2.27527e-08
8.15731e-11
2.27781e-08
5.73172e-11
2.27962e-08
3.51602e-11
2.28082e-08
1.49411e-11
2.28147e-08
-3.56391e-12
2.28165e-08
-2.05998e-11
2.28141e-08
-3.63652e-11
2.28079e-08
-5.1011e-11
2.27983e-08
-6.46542e-11
2.27856e-08
-7.73848e-11
2.27699e-08
-8.92701e-11
2.27516e-08
-1.0036e-10
2.27307e-08
-1.1069e-10
-1.20279e-10
2.27075e-08
1.75653e-08
7.52097e-11
1.75908e-08
5.61391e-11
1.76096e-08
3.84642e-11
1.76227e-08
2.20471e-11
1.76308e-08
6.88166e-12
1.76344e-08
-7.14286e-12
1.76339e-08
-2.01693e-11
1.76299e-08
-3.23105e-11
1.76225e-08
-4.36517e-11
1.76121e-08
-5.42585e-11
1.75989e-08
-6.41809e-11
1.75831e-08
-7.34554e-11
1.75649e-08
-8.2109e-11
1.75443e-08
-9.01598e-11
-9.76159e-11
1.75217e-08
1.34273e-08
5.09754e-11
1.34458e-08
3.76184e-11
1.34593e-08
2.49806e-11
1.34682e-08
1.30633e-11
1.34732e-08
1.94206e-12
1.34745e-08
-8.4326e-12
1.34724e-08
-1.814e-11
1.34674e-08
-2.72399e-11
1.34595e-08
-3.57765e-11
1.3449e-08
-4.3784e-11
1.34361e-08
-5.12872e-11
1.3421e-08
-5.83039e-11
1.34037e-08
-6.48468e-11
1.33845e-08
-7.09242e-11
-7.6539e-11
1.33634e-08
1.01317e-08
3.36428e-11
1.01448e-08
2.44954e-11
1.01541e-08
1.56634e-11
1.016e-08
7.22632e-12
1.01626e-08
-7.11199e-13
1.01624e-08
-8.17011e-12
1.01594e-08
-1.51918e-11
1.0154e-08
-2.18048e-11
1.01462e-08
-2.80296e-11
1.01363e-08
-3.38814e-11
1.01244e-08
-3.93704e-11
1.01106e-08
-4.45036e-11
1.0095e-08
-4.92857e-11
1.00778e-08
-5.37195e-11
-5.78057e-11
1.00591e-08
7.52823e-09
2.15229e-11
7.5373e-09
1.54291e-11
7.54352e-09
9.4338e-12
7.5471e-09
3.64697e-12
7.54822e-09
-1.831e-12
7.54706e-09
-7.01059e-12
7.54378e-09
-1.19114e-11
7.53852e-09
-1.65447e-11
7.53141e-09
-2.0918e-11
7.52257e-09
-2.50361e-11
7.5121e-09
-2.89015e-11
7.50011e-09
-3.25155e-11
7.4867e-09
-3.58784e-11
7.47197e-09
-3.89904e-11
-4.18516e-11
7.45602e-09
5.4883e-09
1.32375e-11
5.49441e-09
9.32092e-12
5.49844e-09
5.40622e-12
5.50049e-09
1.59902e-12
5.50068e-09
-2.02153e-12
5.49913e-09
-5.46333e-12
5.49595e-09
-8.73396e-12
5.49124e-09
-1.18362e-11
5.4851e-09
-1.47711e-11
5.4776e-09
-1.75383e-11
5.46883e-09
-2.01367e-11
5.45888e-09
-2.25652e-11
5.44783e-09
-2.48223e-11
5.43574e-09
-2.69069e-11
-2.88187e-11
5.42271e-09
3.9035e-09
7.71554e-12
3.9075e-09
5.31904e-12
3.91001e-09
2.89791e-12
3.91108e-09
5.32175e-13
3.91078e-09
-1.72528e-12
3.9092e-09
-3.88169e-12
3.9064e-09
-5.93863e-12
3.90246e-09
-7.89527e-12
3.89744e-09
-9.74992e-12
3.8914e-09
-1.15006e-11
3.88441e-09
-1.31448e-11
3.87653e-09
-1.46808e-11
3.86781e-09
-1.61068e-11
3.85833e-09
-1.74211e-11
-1.86232e-11
3.84813e-09
2.68347e-09
4.1539e-12
2.686e-09
2.78878e-12
2.68749e-09
1.40692e-12
2.68797e-09
5.40352e-14
2.68749e-09
-1.24049e-12
2.68609e-09
-2.48274e-12
2.68382e-09
-3.67178e-12
2.68073e-09
-4.80579e-12
2.67687e-09
-5.88257e-12
2.67226e-09
-6.89992e-12
2.66698e-09
-7.8556e-12
2.66104e-09
-8.74797e-12
2.65451e-09
-9.57552e-12
2.64743e-09
-1.03365e-11
-1.10301e-11
2.63983e-09
1.7537e-09
1.96549e-12
1.75522e-09
1.27095e-12
1.75604e-09
5.77854e-13
1.7562e-09
-1.00225e-13
1.75571e-09
-7.50966e-13
1.7546e-09
-1.37831e-12
1.75291e-09
-1.9808e-12
1.75066e-09
-2.55685e-12
1.74789e-09
-3.10472e-12
1.74461e-09
-3.62279e-12
1.74086e-09
-4.10953e-12
1.73668e-09
-4.56378e-12
1.73209e-09
-4.98463e-12
1.72712e-09
-5.37065e-12
-5.7203e-12
1.72181e-09
1.05326e-09
7.28555e-13
1.05409e-09
4.40124e-13
1.0545e-09
1.66679e-13
1.0545e-09
-1.00022e-13
1.05411e-09
-3.57257e-13
1.05333e-09
-6.06582e-13
1.0522e-09
-8.4694e-13
1.05072e-09
-1.07735e-12
1.04891e-09
-1.29683e-12
1.04679e-09
-1.50451e-12
1.04438e-09
-1.69962e-12
1.0417e-09
-1.88156e-12
1.03877e-09
-2.04995e-12
1.0356e-09
-2.20384e-12
-2.3413e-12
1.03222e-09
5.3277e-10
1.43445e-13
5.33142e-10
6.87844e-14
5.33298e-10
9.86936e-15
5.33246e-10
-4.757e-14
5.32993e-10
-1.03795e-13
5.32545e-10
-1.58849e-13
5.3191e-10
-2.12268e-13
5.31096e-10
-2.63659e-13
5.30112e-10
-3.12688e-13
5.28967e-10
-3.59077e-13
5.2767e-10
-4.02603e-13
5.26231e-10
-4.43084e-13
5.24662e-10
-4.80475e-13
5.22972e-10
-5.14379e-13
-5.43153e-13
5.21174e-10
1.5249e-10
1.52558e-10
1.52568e-10
1.52521e-10
1.52417e-10
1.52258e-10
1.52046e-10
1.51782e-10
1.5147e-10
1.5111e-10
1.50708e-10
1.50265e-10
1.49784e-10
1.4927e-10
1.48727e-10
4.67455e-10
-2.78751e-10
2.00188e-10
5.78503e-10
-2.9849e-10
1.87443e-10
6.95431e-10
-2.76014e-10
1.59086e-10
8.13103e-10
-2.41302e-10
1.2363e-10
9.30336e-10
-2.00706e-10
8.34732e-11
1.04732e-09
-1.57553e-10
4.05674e-11
1.16464e-09
-1.13409e-10
-3.90699e-12
1.28284e-09
-6.94309e-11
-4.87709e-11
1.4024e-09
-2.67794e-11
-9.27778e-11
1.52368e-09
1.32932e-11
-1.34575e-10
1.64696e-09
4.94155e-11
-1.72696e-10
1.77242e-09
8.01298e-11
-2.05594e-10
1.90018e-09
1.03979e-10
-2.3174e-10
2.0303e-09
1.1966e-10
-2.49777e-10
2.16281e-09
1.2626e-10
-2.58769e-10
2.29777e-09
1.2356e-10
-2.58524e-10
2.43534e-09
1.12346e-10
-2.49915e-10
2.57583e-09
9.44883e-11
-2.34974e-10
2.71974e-09
7.23387e-11
-2.16245e-10
2.86768e-09
4.62679e-11
-1.94209e-10
3.01988e-09
8.42059e-12
-1.60626e-10
3.17504e-09
-7.03676e-11
-8.47917e-11
3.3071e-09
-2.14347e-10
8.22934e-11
3.40736e-09
-4.09399e-10
3.09133e-10
3.47647e-09
-6.37646e-10
5.68534e-10
3.51533e-09
-8.69839e-10
8.3098e-10
3.52554e-09
-1.07653e-09
1.06633e-09
3.50943e-09
-1.23399e-09
1.25009e-09
3.4699e-09
-1.32635e-09
1.36588e-09
3.4101e-09
-1.34576e-09
1.40556e-09
3.33325e-09
-1.29109e-09
1.36795e-09
3.24237e-09
-1.16615e-09
1.25702e-09
3.14024e-09
-9.77807e-10
1.07994e-09
3.02925e-09
-7.34388e-10
8.45378e-10
2.91133e-09
-4.44516e-10
5.62435e-10
2.78777e-09
-1.16796e-10
2.40355e-10
2.65886e-09
2.39549e-10
-1.10636e-10
2.5234e-09
6.13028e-10
-4.77563e-10
2.3783e-09
9.87726e-10
-8.42628e-10
2.21861e-09
1.3414e-09
-1.18171e-09
2.03832e-09
1.6445e-09
-1.46422e-09
1.83271e-09
1.85978e-09
-1.65417e-09
1.60237e-09
1.94061e-09
-1.71027e-09
1.3631e-09
1.82668e-09
-1.58741e-09
1.40221e-09
1.16071e-09
-1.19983e-09
9.17995e-10
-3.17667e-10
9.8903e-10
-3.69525e-10
1.08446e-09
-3.71443e-10
1.1931e-09
-3.49941e-10
1.30889e-09
-3.16497e-10
1.42895e-09
-2.77619e-10
1.55213e-09
-2.36581e-10
1.678e-09
-1.95308e-10
1.80651e-09
-1.5529e-10
1.93771e-09
-1.17903e-10
2.07167e-09
-8.45478e-11
2.20847e-09
-5.66649e-11
2.34813e-09
-3.56791e-11
2.49065e-09
-2.2864e-11
2.63603e-09
-1.91251e-11
2.78431e-09
-2.47174e-11
2.93561e-09
-3.8953e-11
3.09023e-09
-6.0131e-11
3.24867e-09
-8.61022e-11
3.41154e-09
-1.16604e-10
3.57902e-09
-1.59061e-10
3.74962e-09
-2.40967e-10
3.89482e-09
-3.59548e-10
4.0052e-09
-5.19776e-10
4.08153e-09
-7.13982e-10
4.1249e-09
-9.13203e-10
4.13713e-09
-1.08876e-09
4.12086e-09
-1.21772e-09
4.07935e-09
-1.28484e-09
4.01616e-09
-1.28258e-09
3.93496e-09
-1.20989e-09
3.83926e-09
-1.07044e-09
3.73233e-09
-8.70873e-10
3.61712e-09
-6.19181e-10
3.49625e-09
-3.23647e-10
3.37187e-09
7.58051e-12
3.24547e-09
3.65957e-10
3.1175e-09
7.40998e-10
2.98723e-09
1.11799e-09
2.85308e-09
1.47555e-09
2.7141e-09
1.78348e-09
2.57293e-09
2.00095e-09
2.43917e-09
2.07437e-09
2.32767e-09
1.93818e-09
1.52671e-09
2.20318e-09
1.53269e-09
-3.38248e-10
1.57392e-09
-4.1075e-10
1.64271e-09
-4.40231e-10
1.73327e-09
-4.40508e-10
1.8391e-09
-4.22327e-10
1.95537e-09
-3.9388e-10
2.0791e-09
-3.60317e-10
2.20864e-09
-3.24843e-10
2.34305e-09
-2.89705e-10
2.48185e-09
-2.56698e-10
2.62474e-09
-2.27437e-10
2.77154e-09
-2.03467e-10
2.92212e-09
-1.86257e-10
3.07635e-09
-1.77098e-10
3.23415e-09
-1.76921e-10
3.39546e-09
-1.86037e-10
3.56038e-09
-2.03872e-10
3.72916e-09
-2.28909e-10
3.90227e-09
-2.59209e-10
4.08028e-09
-2.94613e-10
4.26329e-09
-3.4207e-10
4.44958e-09
-4.2726e-10
4.60816e-09
-5.18125e-10
4.72883e-09
-6.40449e-10
4.81254e-09
-7.97691e-10
4.86055e-09
-9.61208e-10
4.87494e-09
-1.10316e-09
4.85872e-09
-1.2015e-09
4.81554e-09
-1.24166e-09
4.74945e-09
-1.21649e-09
4.66462e-09
-1.12506e-09
4.56511e-09
-9.70938e-10
4.45481e-09
-7.60567e-10
4.33735e-09
-5.01724e-10
4.21619e-09
-2.02484e-10
4.09457e-09
1.29196e-10
3.97549e-09
4.85042e-10
3.8615e-09
8.54981e-10
3.75473e-09
1.22477e-09
3.65717e-09
1.57311e-09
3.5717e-09
1.86895e-09
3.5029e-09
2.06974e-09
3.45454e-09
2.12274e-09
3.41686e-09
1.97586e-09
1.60811e-09
3.33546e-09
2.35189e-09
-3.48845e-10
2.37233e-09
-4.31188e-10
2.41562e-09
-4.83518e-10
2.48313e-09
-5.08014e-10
2.57154e-09
-5.10738e-10
2.6764e-09
-4.98739e-10
2.79392e-09
-4.77846e-10
2.92141e-09
-4.52325e-10
3.05701e-09
-4.25311e-10
3.19954e-09
-3.99225e-10
3.34819e-09
-3.76086e-10
3.50241e-09
-3.57684e-10
3.66178e-09
-3.4563e-10
3.82599e-09
-3.41307e-10
3.99478e-09
-3.45716e-10
4.16801e-09
-3.5926e-10
4.34564e-09
-3.81504e-10
4.52786e-09
-4.11129e-10
4.71507e-09
-4.46418e-10
4.90776e-09
-4.87308e-10
5.10591e-09
-5.40221e-10
5.30753e-09
-6.2888e-10
5.47919e-09
-6.89787e-10
5.60995e-09
-7.71205e-10
5.70088e-09
-8.88626e-10
5.75346e-09
-1.01379e-09
5.77008e-09
-1.11978e-09
5.7541e-09
-1.18552e-09
5.70964e-09
-1.1972e-09
5.64128e-09
-1.14813e-09
5.55376e-09
-1.03754e-09
5.45179e-09
-8.68966e-10
5.33993e-09
-6.48713e-10
5.22265e-09
-3.84436e-10
5.10434e-09
-8.41792e-11
4.98952e-09
2.44017e-10
4.88282e-09
5.9174e-10
4.789e-09
9.48805e-10
4.7128e-09
1.30097e-09
4.65883e-09
1.62708e-09
4.63106e-09
1.89672e-09
4.63082e-09
2.06998e-09
4.65087e-09
2.10269e-09
4.66487e-09
1.96186e-09
1.65318e-09
4.6198e-09
3.43063e-09
-3.53254e-10
3.43716e-09
-4.37713e-10
3.45892e-09
-5.05283e-10
3.50225e-09
-5.51339e-10
3.56817e-09
-5.76662e-10
3.65462e-09
-5.85186e-10
3.75849e-09
-5.8172e-10
3.87684e-09
-5.70672e-10
4.00725e-09
-5.55723e-10
4.1479e-09
-5.39874e-10
4.29743e-09
-5.2562e-10
4.45485e-09
-5.15095e-10
4.61936e-09
-5.10149e-10
4.79039e-09
-5.1233e-10
4.96744e-09
-5.22772e-10
5.15019e-09
-5.42011e-10
5.33847e-09
-5.6978e-10
5.53232e-09
-6.04982e-10
5.73204e-09
-6.46132e-10
5.93798e-09
-6.93248e-10
6.14993e-09
-7.52176e-10
6.36558e-09
-8.44527e-10
6.54925e-09
-8.7346e-10
6.68927e-09
-9.11219e-10
6.78682e-09
-9.8618e-10
6.84359e-09
-1.07056e-09
6.86227e-09
-1.13846e-09
6.84665e-09
-1.16989e-09
6.80134e-09
-1.15189e-09
6.7315e-09
-1.07829e-09
6.6425e-09
-9.4854e-10
6.53975e-09
-7.66217e-10
6.42859e-09
-5.37554e-10
6.31434e-09
-2.70184e-10
6.20244e-09
2.77239e-11
6.09862e-09
3.47833e-10
6.00906e-09
6.81302e-10
5.94029e-09
1.01757e-09
5.89883e-09
1.34243e-09
5.89018e-09
1.63573e-09
5.91689e-09
1.87001e-09
5.97479e-09
2.01208e-09
6.04744e-09
2.03004e-09
6.10173e-09
1.90757e-09
1.66155e-09
6.09336e-09
4.8377e-09
-3.53443e-10
4.8353e-09
-4.3531e-10
4.84062e-09
-5.10606e-10
4.86182e-09
-5.72533e-10
4.90338e-09
-6.18228e-10
4.96641e-09
-6.48211e-10
5.04978e-09
-6.65093e-10
5.15142e-09
-6.72308e-10
5.26905e-09
-6.73353e-10
5.40061e-09
-6.71432e-10
5.54436e-09
-6.6937e-10
5.69889e-09
-6.69626e-10
5.86306e-09
-6.7432e-10
6.03594e-09
-6.85216e-10
6.2168e-09
-7.03626e-10
6.40505e-09
-7.30262e-10
6.60033e-09
-7.65058e-10
6.8025e-09
-8.07156e-10
7.01168e-09
-8.55309e-10
7.22803e-09
-9.09603e-10
7.4511e-09
-9.75245e-10
7.67815e-09
-1.07158e-09
7.87165e-09
-1.06696e-09
8.01922e-09
-1.05879e-09
8.12211e-09
-1.08907e-09
8.18218e-09
-1.13063e-09
8.20245e-09
-1.15873e-09
8.18714e-09
-1.15458e-09
8.14139e-09
-1.10615e-09
8.07096e-09
-1.00787e-09
7.98191e-09
-8.59488e-10
7.88037e-09
-6.64676e-10
7.77248e-09
-4.29663e-10
7.66442e-09
-1.62126e-10
7.56258e-09
1.29563e-10
7.47372e-09
4.36694e-10
7.40507e-09
7.49948e-10
7.36414e-09
1.05851e-09
7.35788e-09
1.34869e-09
7.39103e-09
1.60257e-09
7.46331e-09
1.79774e-09
7.56559e-09
1.9098e-09
7.67663e-09
1.919e-09
7.76393e-09
1.82027e-09
1.63196e-09
7.79352e-09
6.65628e-09
-3.50921e-10
6.6486e-09
-4.2763e-10
6.64264e-09
-5.04649e-10
6.64594e-09
-5.7583e-10
6.6646e-09
-6.36889e-10
6.70232e-09
-6.85938e-10
6.76048e-09
-7.23251e-10
6.83876e-09
-7.50588e-10
6.9359e-09
-7.70495e-10
7.05026e-09
-7.85791e-10
7.18015e-09
-7.99255e-10
7.32399e-09
-8.13469e-10
7.48041e-09
-8.30737e-10
7.6482e-09
-8.53009e-10
7.82636e-09
-8.81786e-10
8.01407e-09
-9.17967e-10
8.21071e-09
-9.61704e-10
8.41594e-09
-1.01239e-09
8.62964e-09
-1.06901e-09
8.85172e-09
-1.13168e-09
9.08138e-09
-1.20491e-09
9.31541e-09
-1.3056e-09
9.51502e-09
-1.26657e-09
9.66724e-09
-1.21101e-09
9.77324e-09
-1.19506e-09
9.83502e-09
-1.19241e-09
9.85591e-09
-1.17962e-09
9.84056e-09
-1.13923e-09
9.79464e-09
-1.06024e-09
9.72455e-09
-9.37768e-10
9.63698e-09
-7.71925e-10
9.53881e-09
-5.66506e-10
9.43692e-09
-3.27767e-10
9.33823e-09
-6.34399e-11
9.24985e-09
2.17948e-10
9.17911e-09
5.0743e-10
9.13361e-09
7.95452e-10
9.12071e-09
1.0714e-09
9.14653e-09
1.32288e-09
9.21387e-09
1.53523e-09
9.31953e-09
1.69207e-09
9.45153e-09
1.7778e-09
9.58819e-09
1.78234e-09
9.70156e-09
1.7069e-09
1.56708e-09
9.76644e-09
8.98473e-09
-3.47045e-10
8.97454e-09
-4.1744e-10
8.96197e-09
-4.92087e-10
8.9527e-09
-5.66559e-10
8.95265e-09
-6.36834e-10
8.96677e-09
-7.00062e-10
8.99843e-09
-7.54909e-10
9.04932e-09
-8.01481e-10
9.11982e-09
-8.40991e-10
9.20939e-09
-8.75356e-10
9.31697e-09
-9.06842e-10
9.44131e-09
-9.37808e-10
9.58108e-09
-9.70508e-10
9.73502e-09
-1.00695e-09
9.90197e-09
-1.04873e-09
1.00809e-08
-1.09691e-09
1.0271e-08
-1.15184e-09
1.04718e-08
-1.21312e-09
1.06827e-08
-1.27997e-09
1.09035e-08
-1.35247e-09
1.1133e-08
-1.43435e-09
1.13672e-08
-1.53988e-09
1.15673e-08
-1.46661e-09
1.17197e-08
-1.36339e-09
1.18253e-08
-1.30071e-09
1.18863e-08
-1.25336e-09
1.19061e-08
-1.19947e-09
1.18899e-08
-1.12302e-09
1.18438e-08
-1.01416e-09
1.17748e-08
-8.68775e-10
1.16903e-08
-6.87351e-10
1.15976e-08
-4.7383e-10
1.15043e-08
-2.34465e-10
1.14178e-08
2.30462e-11
1.13455e-08
2.90218e-10
1.12948e-08
5.58136e-10
1.12728e-08
8.17502e-10
1.12856e-08
1.05854e-09
1.13377e-08
1.27085e-09
1.14294e-08
1.44353e-09
1.15554e-08
1.56603e-09
1.17032e-08
1.62998e-09
1.18536e-08
1.63196e-09
1.19845e-08
1.57603e-09
1.47423e-09
1.20773e-08
1.19376e-08
-3.4281e-10
1.19268e-08
-4.06702e-10
1.19114e-08
-4.76674e-10
1.18949e-08
-5.5003e-10
1.18819e-08
-6.23801e-10
1.18771e-08
-6.95316e-10
1.18849e-08
-7.62657e-10
1.19083e-08
-8.24886e-10
1.19493e-08
-8.82042e-10
1.20089e-08
-9.34985e-10
1.20873e-08
-9.8516e-10
1.21838e-08
-1.03435e-09
1.22978e-08
-1.08448e-09
1.24282e-08
-1.13735e-09
1.2574e-08
-1.19453e-09
1.27342e-08
-1.25709e-09
1.29078e-08
-1.32549e-09
1.30942e-08
-1.39951e-09
1.32927e-08
-1.47848e-09
1.35026e-08
-1.56239e-09
1.37224e-08
-1.65408e-09
1.39475e-08
-1.76499e-09
1.41399e-08
-1.65906e-09
1.42861e-08
-1.50955e-09
1.43864e-08
-1.401e-09
1.44427e-08
-1.30974e-09
1.4459e-08
-1.21571e-09
1.44405e-08
-1.10448e-09
1.43938e-08
-9.67473e-10
1.43263e-08
-8.01339e-10
1.4246e-08
-6.06985e-10
1.41606e-08
-3.88445e-10
1.4078e-08
-1.51866e-10
1.40057e-08
9.52859e-11
1.39511e-08
3.44884e-10
1.39207e-08
5.88516e-10
1.39205e-08
8.1772e-10
1.39548e-08
1.02416e-09
1.40258e-08
1.19986e-09
1.41318e-08
1.33756e-09
1.42664e-08
1.43147e-09
1.4418e-08
1.47834e-09
1.45712e-08
1.47872e-09
1.47097e-08
1.4376e-09
1.36397e-09
1.48199e-08
1.56459e-08
-3.38583e-10
1.56356e-08
-3.96429e-10
1.56198e-08
-4.60871e-10
1.56003e-08
-5.3051e-10
1.558e-08
-6.03523e-10
1.55627e-08
-6.77971e-10
1.55522e-08
-7.52131e-10
1.5552e-08
-8.24771e-10
1.55653e-08
-8.95294e-10
1.55941e-08
-9.63761e-10
1.56397e-08
-1.03082e-09
1.57029e-08
-1.09754e-09
1.57837e-08
-1.16528e-09
1.58818e-08
-1.23545e-09
1.59966e-08
-1.30935e-09
1.61275e-08
-1.3879e-09
1.62735e-08
-1.47154e-09
1.64341e-08
-1.56006e-09
1.66084e-08
-1.65282e-09
1.67956e-08
-1.74955e-09
1.69935e-08
-1.85206e-09
1.71973e-08
-1.96874e-09
1.73716e-08
-1.83339e-09
1.75031e-08
-1.64101e-09
1.75913e-08
-1.48926e-09
1.76381e-08
-1.3565e-09
1.76471e-08
-1.22475e-09
1.7624e-08
-1.08136e-09
1.75756e-08
-9.19074e-10
1.75096e-08
-7.35366e-10
1.74341e-08
-5.31494e-10
1.73572e-08
-3.11482e-10
1.72865e-08
-8.11963e-11
1.72294e-08
1.52412e-10
1.71923e-08
3.81951e-10
1.71808e-08
5.99987e-10
1.71992e-08
7.99401e-10
1.72496e-08
9.737e-10
1.73321e-08
1.11735e-09
1.74435e-08
1.22618e-09
1.75772e-08
1.29781e-09
1.77234e-08
1.33213e-09
1.78705e-08
1.33163e-09
1.80068e-08
1.30125e-09
1.24775e-09
1.81231e-08
2.0256e-08
-3.34066e-10
2.02462e-08
-3.86671e-10
2.0231e-08
-4.457e-10
2.02111e-08
-5.10576e-10
2.0188e-08
-5.80367e-10
2.01639e-08
-6.53924e-10
2.01418e-08
-7.30063e-10
2.01248e-08
-8.07765e-10
2.01159e-08
-8.86338e-10
2.01176e-08
-9.65499e-10
2.01322e-08
-1.04539e-09
2.01612e-08
-1.12653e-09
2.02056e-08
-1.20972e-09
2.02661e-08
-1.29589e-09
2.03426e-08
-1.38591e-09
2.04352e-08
-1.48045e-09
2.05434e-08
-1.57972e-09
2.06667e-08
-1.68339e-09
2.08045e-08
-1.79066e-09
2.09558e-08
-1.90086e-09
2.11183e-08
-2.01457e-09
2.12865e-08
-2.13691e-09
2.14302e-08
-1.97708e-09
2.15367e-08
-1.74755e-09
2.16048e-08
-1.55734e-09
2.16357e-08
-1.38734e-09
2.16329e-08
-1.22198e-09
2.16021e-08
-1.05056e-09
2.15502e-08
-8.67163e-10
2.14849e-08
-6.70058e-10
2.14141e-08
-4.60759e-10
2.13458e-08
-2.43119e-10
2.12871e-08
-2.24899e-11
2.12445e-08
1.94998e-10
2.12234e-08
4.03038e-10
2.12278e-08
5.95548e-10
2.12602e-08
7.67052e-10
2.13209e-08
9.12999e-10
2.14082e-08
1.03005e-09
2.1518e-08
1.11633e-09
2.16442e-08
1.17162e-09
2.17789e-08
1.19745e-09
2.19136e-08
1.19695e-09
2.20403e-08
1.17456e-09
1.13537e-09
2.21526e-08
2.59243e-08
-3.28615e-10
2.59145e-08
-3.76872e-10
2.58999e-08
-4.31099e-10
2.58805e-08
-4.91183e-10
2.58569e-08
-5.56775e-10
2.58303e-08
-6.27335e-10
2.58025e-08
-7.0222e-10
2.57755e-08
-7.80803e-10
2.57517e-08
-8.62596e-10
2.57336e-08
-9.47326e-10
2.57232e-08
-1.03498e-09
2.57224e-08
-1.1258e-09
2.57329e-08
-1.22023e-09
2.57559e-08
-1.31881e-09
2.5792e-08
-1.42206e-09
2.58418e-08
-1.53029e-09
2.59056e-08
-1.64346e-09
2.59832e-08
-1.76097e-09
2.60742e-08
-1.88174e-09
2.61779e-08
-2.00446e-09
2.62917e-08
-2.12838e-09
2.64099e-08
-2.25515e-09
2.65099e-08
-2.07705e-09
2.65806e-08
-1.81823e-09
2.66196e-08
-1.59638e-09
2.66276e-08
-1.39536e-09
2.66079e-08
-1.20229e-09
2.65659e-08
-1.00848e-09
2.65081e-08
-8.09387e-10
2.6442e-08
-6.03958e-10
2.6375e-08
-3.93822e-10
2.63144e-08
-1.82466e-10
2.62664e-08
2.55097e-11
2.62363e-08
2.25059e-10
2.62282e-08
4.11198e-10
2.62443e-08
5.79385e-10
2.62855e-08
7.25836e-10
2.63508e-08
8.47776e-10
2.64372e-08
9.43608e-10
2.65405e-08
1.01302e-09
2.66552e-08
1.05698e-09
2.6775e-08
1.07764e-09
2.68938e-08
1.07811e-09
2.70063e-08
1.0621e-09
1.03351e-09
2.71081e-08
3.28081e-08
-3.21865e-10
3.27978e-08
-3.66585e-10
3.27834e-08
-4.16749e-10
3.27647e-08
-4.72488e-10
3.27418e-08
-5.33797e-10
3.2715e-08
-6.00538e-10
3.26852e-08
-6.72473e-10
3.26537e-08
-7.49336e-10
3.2622e-08
-8.30902e-10
3.25918e-08
-9.17055e-10
3.25646e-08
-1.00782e-09
3.25422e-08
-1.10338e-09
3.2526e-08
-1.20402e-09
3.25173e-08
-1.31009e-09
3.25171e-08
-1.42188e-09
3.25262e-08
-1.53945e-09
3.25453e-08
-1.6625e-09
3.25745e-08
-1.79019e-09
3.26138e-08
-1.92106e-09
3.26625e-08
-2.05311e-09
3.27182e-08
-2.18411e-09
3.27753e-08
-2.31229e-09
3.28207e-08
-2.12246e-09
3.28462e-08
-1.84363e-09
3.28484e-08
-1.59859e-09
3.28274e-08
-1.37444e-09
3.27862e-08
-1.16107e-09
3.27296e-08
-9.51831e-10
3.26636e-08
-7.43434e-10
3.2595e-08
-5.35365e-10
3.25304e-08
-3.29187e-10
3.24757e-08
-1.27826e-10