/*--------------------------------*- C++ -*----------------------------------*\
| =========                 |                                                 |
| \\      /  F ield         | OpenFOAM: The Open Source CFD Toolbox           |
|  \\    /   O peration     | Version:  2312                                  |
|   \\  /    A nd           | Website:  www.openfoam.com                      |
|    \\/     M anipulation  |                                                 |
\*---------------------------------------------------------------------------*/
FoamFile
{
    version     2.0;
    format      ascii;
    arch        "LSB;label=32;scalar=64";
    class       volVectorField;
    location    "400";
    object      U;
}
// * * * * * * * * * * * * * * * * * * * * * * * * * * * * * * * * * * * * * //

dimensions      [0 1 -1 0 0 0 0];

internalField   nonuniform List<vector> 
4800
(
(0.000144982 3.82247e-08 -8.76472e-27)
(0.000143354 5.08934e-08 -6.2486e-26)
(0.000142634 6.05346e-08 7.98905e-26)
(0.000142523 6.53977e-08 3.74331e-26)
(0.000142873 6.57257e-08 5.60044e-25)
(0.000143585 6.06991e-08 -1.33734e-24)
(0.000144615 4.9082e-08 1.25726e-24)
(0.000145957 2.84568e-08 -1.8313e-24)
(0.000147656 -7.03586e-09 5.82124e-25)
(0.00014986 -7.4866e-08 1.99447e-24)
(0.000152999 -2.38115e-07 -6.09722e-25)
(0.000158187 -7.25424e-07 -4.8898e-26)
(0.000168279 -2.17904e-06 -7.30699e-25)
(0.000193651 -9.29971e-06 3.38306e-25)
(0.000236347 -4.87215e-05 -2.654e-25)
(0.0004496 3.94935e-07 -3.57661e-26)
(0.000444421 2.32347e-07 4.45181e-26)
(0.00044203 1.02952e-07 -4.19412e-25)
(0.000441494 -2.32638e-08 3.103e-25)
(0.000442345 -1.58746e-07 1.01938e-24)
(0.000444283 -3.16666e-07 -1.62791e-24)
(0.000447168 -5.15996e-07 -4.73545e-25)
(0.000450985 -7.88535e-07 -1.19262e-25)
(0.000455873 -1.20446e-06 3.76636e-24)
(0.000462258 -1.94867e-06 -2.74344e-24)
(0.000471171 -3.54225e-06 2.92297e-25)
(0.000484771 -7.43163e-06 4.36745e-25)
(0.000507121 -1.7137e-05 -6.33416e-25)
(0.000545998 -4.07744e-05 -2.11942e-25)
(0.00059285 -9.6537e-05 7.92651e-25)
(0.000788065 1.29093e-06 -2.87883e-26)
(0.000778811 7.59396e-07 2.92705e-26)
(0.000774397 3.37416e-07 3.07759e-25)
(0.000773181 -6.50768e-08 -7.34706e-25)
(0.000774333 -4.9037e-07 7.232e-25)
(0.000777332 -9.79239e-07 6.89457e-25)
(0.000781924 -1.59011e-06 -1.7661e-24)
(0.000788067 -2.42025e-06 -1.0941e-24)
(0.000795963 -3.6725e-06 2.56103e-24)
(0.000806203 -5.82371e-06 9.55174e-25)
(0.000820016 -1.00046e-05 -3.21962e-24)
(0.000839416 -1.8706e-05 -4.90388e-25)
(0.000866735 -3.656e-05 1.26778e-24)
(0.000903034 -7.04241e-05 1.99312e-24)
(0.000936173 -0.000126289 -1.00111e-24)
(0.00116316 2.94565e-06 1.20863e-26)
(0.00114925 1.76956e-06 -8.45811e-26)
(0.0011424 8.37811e-07 3.79844e-25)
(0.00114018 -3.93759e-08 4.13709e-25)
(0.00114135 -9.57868e-07 -3.97237e-25)
(0.00114514 -2.00471e-06 -2.33895e-24)
(0.00115115 -3.30136e-06 -1.60387e-24)
(0.00115928 -5.04437e-06 5.83086e-24)
(0.0011697 -7.61683e-06 2.39087e-24)
(0.00118294 -1.18259e-05 -3.2923e-24)
(0.00119994 -1.93113e-05 -1.28459e-24)
(0.00122165 -3.29893e-05 -9.5108e-25)
(0.00124792 -5.68605e-05 1.63892e-26)
(0.00127576 -9.40721e-05 6.39797e-25)
(0.00129565 -0.000142528 3.05184e-27)
(0.00157747 5.61079e-06 -2.54208e-26)
(0.00155833 3.43751e-06 -1.56891e-25)
(0.00154858 1.71939e-06 -1.02703e-25)
(0.00154495 1.23207e-07 2.64449e-25)
(0.00154576 -1.52917e-06 -7.62937e-25)
(0.00154995 -3.39074e-06 1.87245e-24)
(0.00155694 -5.66478e-06 -3.17443e-25)
(0.0015665 -8.66394e-06 1.1291e-24)
(0.00157866 -1.29468e-05 -6.04711e-24)
(0.00159367 -1.95563e-05 1.10714e-23)
(0.0016118 -3.02975e-05 -1.02375e-23)
(0.00163276 -4.77436e-05 5.15345e-24)
(0.00165472 -7.43207e-05 -4.5547e-24)
(0.00167375 -0.000110093 4.06845e-24)
(0.00168429 -0.000150338 -1.5536e-24)
(0.00203319 9.60971e-06 3.87548e-26)
(0.00200828 6.00544e-06 1.40218e-25)
(0.00199514 3.16146e-06 -7.33704e-25)
(0.00198966 5.55652e-07 -4.72076e-25)
(0.00198963 -2.10434e-06 1.21895e-24)
(0.00199372 -5.05606e-06 4.34947e-25)
(0.00200111 -8.59323e-06 -3.31999e-24)
(0.00201136 -1.31355e-05 7.66664e-24)
(0.00202425 -1.93564e-05 -9.58639e-24)
(0.00203961 -2.83516e-05 2.15644e-24)
(0.00205699 -4.17132e-05 6.33628e-24)
(0.00207522 -6.12003e-05 -8.30873e-24)
(0.0020919 -8.7688e-05 3.86071e-24)
(0.00210384 -0.00011968 3.77879e-24)
(0.00210852 -0.000152685 -2.71825e-24)
(0.0025317 1.53282e-05 3.71268e-26)
(0.00250067 9.78044e-06 -2.19406e-25)
(0.00248372 5.40838e-06 7.8264e-25)
(0.00247591 1.45861e-06 -1.06962e-24)
(0.00247454 -2.50748e-06 -3.60208e-24)
(0.00247793 -6.8267e-06 5.92571e-24)
(0.00248501 -1.18781e-05 -3.49206e-24)
(0.00249507 -1.81527e-05 1.14291e-23)
(0.00250757 -2.63421e-05 -7.30912e-24)
(0.00252193 -3.74046e-05 -3.24026e-24)
(0.00253717 -5.24721e-05 -6.04356e-24)
(0.00255174 -7.2418e-05 5.09934e-24)
(0.00256351 -9.70739e-05 1.33716e-24)
(0.00257041 -0.000124563 1.07984e-24)
(0.00257169 -0.00015153 -8.92493e-25)
(0.00307304 2.31787e-05 -6.20655e-26)
(0.00303593 1.51167e-05 8.39867e-25)
(0.00301493 8.76342e-06 -1.92401e-24)
(0.0030044 3.10218e-06 -1.57211e-24)
(0.00300118 -2.47816e-06 5.30512e-25)
(0.00300325 -8.42182e-06 1.04371e-24)
(0.00300925 -1.51746e-05 3.66571e-24)
(0.00301821 -2.32463e-05 -9.49614e-24)
(0.00302929 -3.32485e-05 -4.85933e-24)
(0.00304155 -4.58743e-05 1.21117e-23)
(0.00305381 -6.1736e-05 -3.54581e-24)
(0.00306458 -8.10154e-05 1.10982e-23)
(0.00307228 -0.00010305 -5.34844e-24)
(0.00307581 -0.000126192 -1.58889e-24)
(0.00307521 -0.00014823 8.84332e-25)
(0.00365514 3.35212e-05 -9.50899e-27)
(0.00361268 2.23692e-05 5.33718e-25)
(0.00358777 1.35637e-05 -7.36184e-25)
(0.00357436 5.81439e-06 1.73223e-24)
(0.0035689 -1.6747e-06 -9.92869e-24)
(0.00356909 -9.45451e-06 9.90028e-24)
(0.00357333 -1.80106e-05 -1.48606e-23)
(0.00358038 -2.78188e-05 8.40001e-24)
(0.00358918 -3.93442e-05 5.84156e-24)
(0.00359864 -5.29814e-05 1.18437e-23)
(0.00360759 -6.89118e-05 -1.41011e-23)
(0.00361481 -8.6908e-05 -2.44647e-24)
(0.00361931 -0.000106203 9.64585e-25)
(0.00362057 -0.000125572 6.66491e-24)
(0.00361894 -0.000143669 -2.54854e-24)
(0.00427286 4.65102e-05 6.02119e-26)
(0.00422685 3.17896e-05 -2.5385e-25)
(0.00419884 2.01097e-05 1.10059e-24)
(0.00418279 9.93203e-06 -3.70057e-24)
(0.004175 2.8759e-07 5.31401e-24)
(0.00417299 -9.46899e-06 -6.46173e-24)
(0.00417497 -1.98353e-05 1.00771e-23)
(0.00417957 -3.12169e-05 1.70755e-24)
(0.00418559 -4.39152e-05 -1.1767e-23)
(0.00419193 -5.80741e-05 1.54014e-23)
(0.00419759 -7.36019e-05 -1.54095e-23)
(0.0042017 -9.0111e-05 -4.20683e-24)
(0.00420367 -0.000106935 6.63785e-24)
(0.00420332 -0.000123254 1.81438e-24)
(0.00420105 -0.000138292 -7.44619e-25)
(0.0049171 6.18458e-05 2.77174e-25)
(0.00487071 4.33377e-05 -2.22032e-24)
(0.00484135 2.85218e-05 -3.43618e-24)
(0.00482358 1.56869e-05 7.58007e-24)
(0.00481387 3.73885e-06 3.22841e-24)
(0.00480973 -8.03517e-06 -1.86502e-23)
(0.00480936 -2.01218e-05 5.15376e-24)
(0.00481133 -3.28457e-05 3.39805e-24)
(0.00481446 -4.63708e-05 -1.38158e-23)
(0.00481778 -6.06817e-05 1.28098e-23)
(0.00482047 -7.55698e-05 -9.50818e-24)
(0.00482195 -9.06519e-05 2.18803e-23)
(0.00482193 -0.000105435 -9.59671e-24)
(0.00482035 -0.000119416 5.16607e-24)
(0.00481757 -0.000132168 -1.32709e-24)
(0.00557458 7.84646e-05 -1.21211e-25)
(0.00553231 5.64119e-05 1.6531e-24)
(0.00550442 3.85096e-05 -3.02326e-24)
(0.00548668 2.30092e-05 -1.46076e-24)
(0.00547611 8.77806e-06 1.49084e-23)
(0.00547051 -4.91705e-06 -1.86045e-24)
(0.00546819 -1.8534e-05 -2.21052e-23)
(0.00546786 -3.23265e-05 2.33785e-23)
(0.00546847 -4.63727e-05 -4.6584e-24)
(0.00546921 -6.05916e-05 -1.48532e-23)
(0.00546948 -7.47711e-05 1.4324e-23)
(0.00546893 -8.86151e-05 7.08368e-24)
(0.00546738 -0.000101806 -5.29498e-24)
(0.00546485 -0.000114063 -8.49735e-24)
(0.00546165 -0.000125167 6.7318e-25)
(0.00622929 9.43503e-05 1.92417e-27)
(0.00619611 6.96028e-05 -1.9724e-24)
(0.00617318 4.91153e-05 8.70879e-24)
(0.00615792 3.12774e-05 5.87771e-25)
(0.00614823 1.5034e-05 4.29712e-24)
(0.00614241 -3.03366e-07 -1.35854e-23)
(0.00613913 -1.51457e-05 1.05745e-23)
(0.00613734 -2.96952e-05 2.2607e-24)
(0.00613622 -4.39948e-05 1.77557e-23)
(0.00613518 -5.79674e-05 -2.43387e-23)
(0.00613381 -7.14586e-05 -1.00129e-23)
(0.00613189 -8.4283e-05 -6.05683e-24)
(0.00612936 -9.62679e-05 1.02863e-23)
(0.00612622 -0.000107281 -2.76077e-25)
(0.00612275 -0.000117227 8.67571e-25)
(0.00686632 0.000106855 -3.06036e-26)
(0.00684576 8.07612e-05 2.09132e-24)
(0.00683081 5.86419e-05 -2.77994e-24)
(0.00682046 3.91741e-05 -7.39475e-27)
(0.00681358 2.14847e-05 3.08223e-24)
(0.00680913 4.99548e-06 7.13511e-24)
(0.00680623 -1.06371e-05 -2.46986e-23)
(0.00680418 -2.55789e-05 1.74842e-24)
(0.00680244 -3.98718e-05 1.00653e-23)
(0.00680065 -5.34771e-05 -4.23904e-24)
(0.00679856 -6.63156e-05 1.03752e-23)
(0.00679608 -7.83018e-05 6.64923e-24)
(0.00679318 -8.93691e-05 -1.09729e-23)
(0.00678988 -9.94802e-05 6.93833e-24)
(0.00678643 -0.000108609 -5.46096e-24)
(0.00747646 0.000113864 -1.01385e-24)
(0.00746849 8.7775e-05 4.77723e-25)
(0.0074624 6.51452e-05 3.33978e-24)
(0.00745814 4.49778e-05 -1.57495e-23)
(0.0074553 2.66183e-05 1.24074e-23)
(0.00745343 9.6292e-06 -8.26872e-24)
(0.00745209 -6.25616e-06 5.23458e-24)
(0.0074509 -2.11763e-05 -3.38863e-23)
(0.00744962 -3.51853e-05 4.36883e-23)
(0.00744807 -4.82896e-05 -2.33416e-23)
(0.00744616 -6.04758e-05 1.88707e-23)
(0.00744387 -7.17321e-05 1.44877e-23)
(0.00744123 -8.2061e-05 -2.32023e-23)
(0.00743826 -9.14813e-05 6.99096e-24)
(0.00743519 -0.000100007 -2.79789e-25)
(0.00805604 0.000115245 -3.79393e-26)
(0.00805693 8.99313e-05 -1.8206e-25)
(0.00805767 6.76059e-05 9.14992e-26)
(0.0080585 4.75301e-05 -4.31815e-25)
(0.00805938 2.9223e-05 5.02363e-24)
(0.00806015 1.23607e-05 -7.72895e-24)
(0.00806068 -3.26338e-06 6.47176e-24)
(0.00806083 -1.77727e-05 -1.84803e-23)
(0.00806055 -3.12382e-05 3.79056e-23)
(0.00805981 -4.37038e-05 -4.40061e-23)
(0.0080586 -5.52033e-05 3.28946e-23)
(0.00805698 -6.57717e-05 -1.01926e-23)
(0.00805499 -7.5451e-05 4.95871e-25)
(0.00805268 -8.42899e-05 2.02655e-24)
(0.00805025 -9.23211e-05 -3.70434e-24)
(0.00859756 0.000112847 -3.22046e-24)
(0.00860256 8.85036e-05 5.34291e-24)
(0.00860665 6.68186e-05 -1.79432e-24)
(0.00861013 4.72459e-05 -2.031e-24)
(0.00861303 2.94162e-05 7.63777e-24)
(0.00861532 1.30708e-05 -6.98443e-24)
(0.008617 -1.96968e-06 -5.77048e-24)
(0.00861807 -1.58299e-05 -1.2628e-23)
(0.00861856 -2.86008e-05 5.6958e-24)
(0.00861849 -4.03555e-05 2.5274e-23)
(0.00861793 -5.11586e-05 -1.22448e-23)
(0.00861693 -6.10724e-05 6.78328e-24)
(0.00861557 -7.01591e-05 -2.58439e-24)
(0.00861388 -7.84805e-05 -7.22543e-24)
(0.00861204 -8.60771e-05 3.55027e-24)
(0.00907618 0.000108598 1.06314e-24)
(0.00908246 8.53896e-05 -1.656e-24)
(0.00908747 6.45469e-05 -7.32764e-25)
(0.00909156 4.56967e-05 -3.04016e-25)
(0.00909485 2.85542e-05 -2.38262e-24)
(0.00909739 1.29011e-05 1.01822e-23)
(0.00909922 -1.43022e-06 -7.47927e-24)
(0.00910041 -1.45712e-05 -4.47388e-24)
(0.00910101 -2.66294e-05 3.69714e-24)
(0.00910109 -3.76973e-05 -4.07285e-24)
(0.00910072 -4.78578e-05 8.7402e-24)
(0.00909994 -5.7187e-05 4.16039e-24)
(0.00909882 -6.57554e-05 -1.4525e-23)
(0.00909741 -7.36292e-05 9.48108e-24)
(0.00909583 -8.08496e-05 -1.866e-24)
(0.00944344 0.000102956 3.12136e-24)
(0.00945042 8.13297e-05 4.84944e-24)
(0.00945574 6.17262e-05 -9.49351e-24)
(0.00945985 4.39297e-05 -8.00117e-25)
(0.00946298 2.77319e-05 2.21829e-24)
(0.00946526 1.29533e-05 -2.88333e-24)
(0.0094668 -5.57936e-07 -4.56832e-24)
(0.00946769 -1.29307e-05 8.6403e-24)
(0.00946804 -2.42765e-05 9.20532e-24)
(0.0094679 -3.46934e-05 -2.07015e-23)
(0.00946735 -4.42689e-05 1.11701e-23)
(0.00946643 -5.30814e-05 -7.36124e-25)
(0.00946522 -6.12011e-05 -5.85178e-25)
(0.00946373 -6.86917e-05 7.51943e-25)
(0.00946207 -7.55897e-05 -3.36414e-25)
(0.00962991 9.52507e-05 -8.08268e-24)
(0.00963778 7.58095e-05 -1.57041e-23)
(0.00964364 5.80042e-05 7.20091e-24)
(0.00964799 4.17396e-05 2.32622e-23)
(0.00965114 2.68726e-05 -5.90645e-24)
(0.00965332 1.32646e-05 -1.73641e-24)
(0.00965467 7.90428e-07 8.05618e-25)
(0.00965534 -1.06631e-05 -3.55388e-24)
(0.00965544 -2.11979e-05 9.41981e-24)
(0.00965505 -3.09049e-05 -3.94677e-24)
(0.00965425 -3.98646e-05 2.43053e-24)
(0.00965309 -4.81479e-05 -3.56708e-24)
(0.00965164 -5.58169e-05 -3.98564e-24)
(0.00964992 -6.29267e-05 5.74307e-24)
(0.00964799 -6.9505e-05 -2.45104e-24)
(0.00955225 8.52999e-05 1.24802e-23)
(0.00956087 6.8491e-05 -2.56159e-23)
(0.00956729 5.29374e-05 3.73273e-24)
(0.00957199 3.86145e-05 3.04593e-23)
(0.00957533 2.5429e-05 -2.69784e-23)
(0.00957757 1.3282e-05 8.68864e-24)
(0.00957892 2.07977e-06 5.42637e-24)
(0.00957952 -8.26718e-06 -1.14066e-23)
(0.0095795 -1.78432e-05 2.17547e-24)
(0.00957897 -2.67241e-05 1.43365e-24)
(0.00957799 -3.49766e-05 -7.10146e-25)
(0.00957665 -4.26584e-05 1.61012e-24)
(0.00957498 -4.9819e-05 -1.93309e-24)
(0.00957304 -5.6502e-05 1.2926e-24)
(0.00957082 -6.27282e-05 -5.90155e-25)
(0.00921778 7.45243e-05 7.48071e-24)
(0.00922691 6.0357e-05 -1.42153e-23)
(0.00923382 4.71131e-05 -8.89797e-24)
(0.00923894 3.47999e-05 3.82359e-23)
(0.00924261 2.33617e-05 -3.22741e-23)
(0.00924511 1.27342e-05 3.20282e-24)
(0.00924666 2.85224e-06 4.65124e-24)
(0.00924741 -6.34999e-06 2.33504e-24)
(0.00924749 -1.49355e-05 1.7012e-24)
(0.00924701 -2.2961e-05 -7.3279e-24)
(0.00924605 -3.04762e-05 4.51061e-24)
(0.00924466 -3.75236e-05 6.63023e-25)
(0.00924291 -4.41395e-05 -1.52022e-24)
(0.00924085 -5.03553e-05 8.07065e-25)
(0.00923845 -5.61868e-05 5.01713e-25)
(0.00871579 6.40619e-05 1.80911e-23)
(0.00872531 5.22208e-05 -2.92399e-23)
(0.00873268 4.10413e-05 5.50274e-24)
(0.00873826 3.05438e-05 -1.19307e-23)
(0.00874236 2.07006e-05 -1.42242e-23)
(0.00874524 1.14744e-05 4.53653e-23)
(0.00874713 2.82241e-06 -1.64254e-23)
(0.00874817 -5.30069e-06 4.30021e-24)
(0.00874849 -1.29384e-05 -2.22563e-24)
(0.00874819 -2.01296e-05 -4.8077e-24)
(0.00874735 -2.69083e-05 8.33883e-24)
(0.00874602 -3.33035e-05 -3.83718e-24)
(0.00874427 -3.93397e-05 6.09758e-25)
(0.00874214 -4.50377e-05 9.84661e-26)
(0.00873961 -5.04079e-05 3.55077e-26)
(0.00811085 5.40302e-05 6.80668e-24)
(0.00812064 4.41893e-05 -3.23116e-23)
(0.00812839 3.48135e-05 5.1903e-23)
(0.00813437 2.5926e-05 -3.68526e-23)
(0.00813887 1.75187e-05 3.42638e-23)
(0.00814213 9.57424e-06 -1.08389e-23)
(0.00814436 2.06712e-06 -7.04044e-24)
(0.0081457 -5.03211e-06 -7.15613e-24)
(0.00814626 -1.17516e-05 1.16451e-23)
(0.00814614 -1.81164e-05 -8.05395e-25)
(0.0081454 -2.41477e-05 -9.90197e-24)
(0.00814412 -2.98639e-05 -9.3652e-25)
(0.00814235 -3.52801e-05 1.67263e-24)
(0.00814012 -4.04086e-05 -2.42969e-25)
(0.00813743 -4.52548e-05 2.47039e-26)
(0.00745013 4.45774e-05 8.8534e-25)
(0.00746004 3.64545e-05 -1.20008e-23)
(0.00746801 2.86509e-05 -6.18701e-24)
(0.00747426 2.11875e-05 4.80325e-23)
(0.00747903 1.40704e-05 -4.45775e-23)
(0.00748256 7.29705e-06 1.23707e-23)
(0.00748502 8.54356e-07 1.97288e-24)
(0.00748654 -5.27505e-06 -9.78855e-25)
(0.00748723 -1.11076e-05 -4.30364e-24)
(0.00748717 -1.66575e-05 1.77467e-23)
(0.00748644 -2.19365e-05 -1.36278e-23)
(0.0074851 -2.69547e-05 -4.65743e-25)
(0.00748318 -3.172e-05 1.00276e-24)
(0.00748075 -3.62385e-05 5.28116e-25)
(0.00747778 -4.05116e-05 -3.69389e-25)
(0.00676718 3.58639e-05 1.28292e-24)
(0.00677697 2.92233e-05 1.09593e-23)
(0.00678491 2.2794e-05 -1.19353e-23)
(0.00679119 1.65942e-05 -7.75866e-24)
(0.00679601 1.06404e-05 4.69065e-23)
(0.00679959 4.94039e-06 -3.44947e-23)
(0.00680207 -5.10196e-07 -8.00866e-25)
(0.00680358 -5.72003e-06 -6.481e-24)
(0.00680421 -1.0697e-05 -4.38191e-25)
(0.00680404 -1.54473e-05 9.13762e-25)
(0.00680313 -1.99761e-05 -2.83632e-24)
(0.00680155 -2.42876e-05 2.49079e-24)
(0.00679933 -2.83849e-05 9.00952e-25)
(0.00679652 -3.22698e-05 7.18201e-25)
(0.00679312 -3.59408e-05 5.1462e-25)
(0.00608502 2.80805e-05 8.83617e-24)
(0.00609438 2.27239e-05 -1.28743e-23)
(0.00610199 1.74987e-05 -9.75319e-24)
(0.00610801 1.24211e-05 2.85516e-23)
(0.00611261 7.5159e-06 -9.86995e-24)
(0.00611598 2.79737e-06 -1.31981e-23)
(0.00611824 -1.73327e-06 4.5128e-24)
(0.00611951 -6.07864e-06 9.54085e-24)
(0.00611986 -1.02405e-05 -1.45968e-23)
(0.00611938 -1.42199e-05 1.39418e-23)
(0.00611811 -1.80175e-05 -7.12064e-24)
(0.00611611 -2.16338e-05 2.86734e-24)
(0.00611342 -2.50687e-05 -3.30437e-24)
(0.00611009 -2.83213e-05 3.03169e-24)
(0.00610613 -3.13887e-05 -6.26758e-25)
(0.00541894 2.13849e-05 -1.63981e-24)
(0.00542755 1.71365e-05 -5.42598e-24)
(0.00543454 1.29603e-05 -1.65555e-23)
(0.00544003 8.87251e-06 4.47405e-23)
(0.00544416 4.90374e-06 -7.87136e-24)
(0.00544709 1.07196e-06 -1.18118e-23)
(0.00544893 -2.61834e-06 3.89506e-24)
(0.00544976 -6.16581e-06 -5.55613e-24)
(0.00544967 -9.56837e-06 -1.14292e-23)
(0.00544871 -1.28239e-05 1.08712e-23)
(0.00544695 -1.59306e-05 5.11726e-25)
(0.00544442 -1.88866e-05 -3.02469e-24)
(0.00544118 -2.16902e-05 3.43341e-24)
(0.00543726 -2.43393e-05 1.5725e-25)
(0.00543268 -2.68302e-05 -2.06331e-25)
(0.00477883 1.58467e-05 5.95536e-24)
(0.00478647 1.2543e-05 8.40358e-24)
(0.00479264 9.26829e-06 -7.70328e-24)
(0.0047974 6.04067e-06 -1.61269e-23)
(0.00480089 2.89454e-06 2.1063e-23)
(0.00480323 -1.51129e-07 -2.24274e-23)
(0.00480451 -3.09035e-06 -7.27397e-25)
(0.00480481 -5.91946e-06 8.31873e-24)
(0.00480418 -8.63438e-06 2.81141e-24)
(0.00480269 -1.12315e-05 -5.52093e-24)
(0.0048004 -1.37079e-05 1.72675e-25)
(0.00479733 -1.60606e-05 1.05493e-23)
(0.00479354 -1.82872e-05 -3.98202e-24)
(0.00478907 -2.03852e-05 -9.22383e-25)
(0.00478394 -2.23512e-05 -4.97175e-26)
(0.00417102 1.14336e-05 -5.7542e-24)
(0.00417758 8.92005e-06 7.22777e-24)
(0.00418281 6.4055e-06 7.77673e-25)
(0.00418677 3.91115e-06 1.37786e-23)
(0.00418954 1.47286e-06 -1.11001e-23)
(0.00419123 -8.9167e-07 8.0914e-25)
(0.00419191 -3.17636e-06 -1.18436e-24)
(0.00419165 -5.37653e-06 -3.27224e-24)
(0.00419051 -7.48752e-06 2.71379e-24)
(0.00418852 -9.5054e-06 -8.67528e-24)
(0.00418575 -1.14268e-05 7.01592e-25)
(0.00418222 -1.32488e-05 2.03754e-24)
(0.00417799 -1.49687e-05 1.20763e-24)
(0.00417309 -1.65843e-05 4.42981e-25)
(0.00416756 -1.80925e-05 1.35817e-25)
(0.00359938 8.0335e-06 3.90666e-24)
(0.00360484 6.16599e-06 -3.0442e-24)
(0.00360914 4.27907e-06 -1.29979e-23)
(0.00361228 2.39686e-06 1.20342e-23)
(0.00361435 5.54058e-07 1.63651e-23)
(0.00361542 -1.23463e-06 -4.21335e-24)
(0.00361555 -2.9639e-06 -8.26066e-24)
(0.0036148 -4.62907e-06 -1.12345e-23)
(0.00361322 -6.22578e-06 8.36477e-24)
(0.00361084 -7.75038e-06 4.50385e-25)
(0.00360772 -9.19974e-06 -1.79201e-24)
(0.00360388 -1.05711e-05 -4.43739e-25)
(0.00359938 -1.18622e-05 9.18735e-25)
(0.00359426 -1.30711e-05 -4.80094e-26)
(0.00358853 -1.41953e-05 -1.50402e-25)
(0.00306606 5.49063e-06 -2.2231e-24)
(0.00307048 4.13909e-06 -1.54277e-24)
(0.0030739 2.75942e-06 1.88738e-24)
(0.00307629 1.37737e-06 -5.80022e-24)
(0.00307773 2.38805e-08 1.88384e-23)
(0.00307827 -1.29024e-06 -2.4602e-23)
(0.00307795 -2.56084e-06 2.37916e-23)
(0.00307683 -3.78385e-06 -9.971e-24)
(0.00307493 -4.95561e-06 2.19425e-24)
(0.00307232 -6.07307e-06 -1.61144e-26)
(0.00306901 -7.13354e-06 -1.69177e-24)
(0.00306506 -8.13474e-06 4.99049e-25)
(0.00306049 -9.07478e-06 -1.1939e-24)
(0.00305535 -9.95212e-06 -1.39483e-25)
(0.00304966 -1.07651e-05 6.61736e-26)
(0.00257187 3.63893e-06 -9.65709e-25)
(0.00257537 2.68982e-06 2.49726e-25)
(0.00257801 1.71149e-06 5.28122e-25)
(0.00257976 7.29062e-07 -2.39638e-24)
(0.00258067 -2.32205e-07 -1.04795e-24)
(0.00258079 -1.16544e-06 9.15146e-24)
(0.00258015 -2.06761e-06 -5.34142e-24)
(0.00257879 -2.93553e-06 7.44159e-25)
(0.00257675 -3.76635e-06 -7.22442e-25)
(0.00257406 -4.55767e-06 -7.51716e-25)
(0.00257075 -5.30736e-06 -1.95686e-25)
(0.00256686 -6.01363e-06 1.35602e-24)
(0.00256242 -6.67502e-06 2.80366e-25)
(0.00255748 -7.29038e-06 -7.50255e-25)
(0.00255205 -7.8587e-06 -1.01196e-25)
(0.00211666 2.32407e-06 -3.11414e-25)
(0.00211936 1.6814e-06 -1.00127e-25)
(0.00212134 1.01364e-06 -4.90882e-24)
(0.00212257 3.42786e-07 1.32232e-24)
(0.00212308 -3.12432e-07 -3.42638e-24)
(0.0021229 -9.48425e-07 2.45594e-24)
(0.00212207 -1.56309e-06 4.52317e-24)
(0.00212061 -2.1541e-06 3.31242e-24)
(0.00211856 -2.71939e-06 -4.59698e-24)
(0.00211595 -3.25716e-06 1.38195e-24)
(0.0021128 -3.76583e-06 1.12651e-24)
(0.00210915 -4.24408e-06 -1.55278e-24)
(0.00210503 -4.69083e-06 8.23077e-25)
(0.00210047 -5.10526e-06 -3.56496e-26)
(0.00209549 -5.48679e-06 1.71199e-25)
(0.0016995 1.41445e-06 -1.07684e-24)
(0.00170154 9.99184e-07 -1.45614e-24)
(0.00170298 5.65731e-07 -2.47349e-25)
(0.00170379 1.31e-07 3.58993e-24)
(0.00170401 -2.92596e-07 -2.50838e-24)
(0.00170365 -7.03734e-07 -4.65592e-25)
(0.00170275 -1.101e-06 3.9634e-24)
(0.00170132 -1.48282e-06 -1.09623e-26)
(0.0016994 -1.84778e-06 -8.00984e-25)
(0.001697 -2.19461e-06 -2.79253e-24)
(0.00169415 -2.52218e-06 3.51477e-25)
(0.00169088 -2.82962e-06 1.83727e-24)
(0.00168722 -3.11616e-06 -2.33694e-25)
(0.00168319 -3.38121e-06 -2.11723e-25)
(0.00167881 -3.62445e-06 1.34174e-25)
(0.00131892 8.03995e-07 -2.07671e-25)
(0.0013204 5.52197e-07 1.34093e-26)
(0.0013214 2.89874e-07 1.53087e-24)
(0.00132191 2.78065e-08 1.00593e-24)
(0.00132194 -2.26873e-07 -7.1157e-25)
(0.0013215 -4.74093e-07 -1.71245e-24)
(0.00132063 -7.1294e-07 6.79973e-25)
(0.00131934 -9.42434e-07 -2.82384e-24)
(0.00131764 -1.16167e-06 2.16813e-24)
(0.00131556 -1.36982e-06 1.07144e-24)
(0.00131312 -1.56615e-06 -3.51461e-26)
(0.00131035 -1.75011e-06 -1.12907e-24)
(0.00130725 -1.9212e-06 1.92011e-25)
(0.00130386 -2.07902e-06 -1.31201e-25)
(0.00130019 -2.22332e-06 6.1256e-26)
(0.00097303 4.10524e-07 -3.38421e-25)
(0.00097405 2.71054e-07 8.85753e-27)
(0.000974714 1.27944e-07 1.08943e-24)
(0.000974998 -1.39851e-08 -6.79686e-25)
(0.000974921 -1.51459e-07 2.75031e-24)
(0.000974495 -2.84865e-07 -4.98898e-24)
(0.000973734 -4.13672e-07 4.0203e-24)
(0.000972652 -5.37343e-07 -3.3138e-24)
(0.000971263 -6.55365e-07 2.34617e-24)
(0.000969583 -7.67275e-07 -1.47595e-24)
(0.000967627 -8.72655e-07 5.0279e-25)
(0.000965413 -9.71191e-07 7.04779e-26)
(0.000962958 -1.06262e-06 1.00199e-25)
(0.000960281 -1.14666e-06 -1.20452e-25)
(0.000957396 -1.22306e-06 2.24553e-26)
(0.000659716 1.73455e-07 4.57253e-25)
(0.000660359 1.06975e-07 4.88347e-25)
(0.000660757 4.15785e-08 -2.09061e-24)
(0.00066089 -2.25197e-08 1.52109e-24)
(0.000660773 -8.43722e-08 -1.77601e-26)
(0.000660415 -1.44324e-07 3.79073e-25)
(0.000659824 -2.02114e-07 -4.70656e-25)
(0.000659009 -2.57502e-07 -9.57324e-25)
(0.000657981 -3.10249e-07 9.41586e-25)
(0.00065675 -3.60147e-07 8.93876e-26)
(0.000655327 -4.07004e-07 -7.14233e-25)
(0.000653724 -4.50683e-07 2.57263e-25)
(0.000651954 -4.91079e-07 1.41474e-25)
(0.00065003 -5.28011e-07 -1.7587e-26)
(0.000647962 -5.6119e-07 -1.34455e-26)
(0.000376717 5.15311e-08 -4.14322e-25)
(0.000377051 3.24856e-08 1.26162e-24)
(0.000377241 1.49969e-08 7.40355e-25)
(0.000377278 -2.8234e-09 -1.34422e-24)
(0.000377172 -2.08212e-08 -1.56874e-25)
(0.000376925 -3.89717e-08 -1.37412e-25)
(0.000376544 -5.70376e-08 4.12229e-25)
(0.000376032 -7.48181e-08 -6.90039e-25)
(0.000375396 -9.2134e-08 9.21251e-25)
(0.000374642 -1.08832e-07 -4.51377e-25)
(0.000373776 -1.2478e-07 -2.80141e-25)
(0.000372806 -1.39873e-07 1.65035e-25)
(0.000371738 -1.54041e-07 -1.78142e-25)
(0.000370581 -1.67147e-07 1.7276e-25)
(0.000369341 -1.78857e-07 -2.61298e-26)
(0.000121732 1.34732e-08 -2.34446e-27)
(0.000121806 3.17406e-08 1.93978e-25)
(0.000121837 4.59943e-08 2.19277e-25)
(0.000121819 5.5266e-08 -3.46222e-25)
(0.000121757 6.01683e-08 7.05721e-25)
(0.000121651 6.14395e-08 -7.65914e-25)
(0.000121503 5.97146e-08 4.91309e-26)
(0.000121313 5.55543e-08 4.06531e-25)
(0.000121084 4.94458e-08 -5.61191e-25)
(0.000120817 4.18117e-08 -9.54042e-26)
(0.000120514 3.30132e-08 3.67082e-25)
(0.000120177 2.3365e-08 -1.5968e-25)
(0.000119809 1.31158e-08 -5.31391e-26)
(0.000119412 2.52104e-09 4.35249e-26)
(0.000118988 -8.06101e-09 -1.70325e-27)
(0.000357532 -0.000147882 3.45257e-26)
(0.000412949 -0.000132306 9.14123e-25)
(0.000503138 -0.000104853 -2.67389e-24)
(0.000598126 -7.83178e-05 3.93754e-24)
(0.000692813 -5.45719e-05 -1.50155e-24)
(0.000787739 -3.4187e-05 -1.43179e-24)
(0.000883042 -1.71259e-05 1.62146e-24)
(0.000978942 -3.23228e-06 -3.15228e-24)
(0.00107567 7.68868e-06 2.49279e-25)
(0.0011734 1.58542e-05 1.95208e-24)
(0.00127229 2.14969e-05 -3.61147e-25)
(0.00137244 2.48667e-05 3.82771e-25)
(0.00147394 2.62354e-05 -4.00526e-26)
(0.00157688 2.59048e-05 2.26995e-25)
(0.00168134 2.42139e-05 -8.37298e-25)
(0.00178746 2.1543e-05 4.57464e-25)
(0.00189544 1.83063e-05 -1.3944e-25)
(0.00200556 1.49162e-05 1.21691e-26)
(0.00211828 1.17012e-05 3.16838e-25)
(0.0022341 8.72867e-06 -1.96642e-25)
(0.00235354 5.48603e-06 2.19976e-26)
(0.00247645 3.85325e-07 -1.85706e-26)
(0.00259201 -9.11753e-06 3.0012e-26)
(0.00268699 -2.4466e-05 1.01784e-25)
(0.00275863 -4.55777e-05 -1.82867e-25)
(0.00280745 -7.13408e-05 -1.00102e-25)
(0.00283397 -9.97739e-05 2.23537e-26)
(0.00283903 -0.00012838 2.10889e-25)
(0.00282377 -0.00015442 1.58166e-25)
(0.00278965 -0.000175113 -2.87055e-25)
(0.00273833 -0.000187755 -8.16115e-26)
(0.00267159 -0.000189753 3.12596e-25)
(0.00259125 -0.000178597 -1.92403e-25)
(0.00249914 -0.000151777 -5.63456e-25)
(0.00239707 -0.000106696 5.56158e-25)
(0.00228671 -4.06855e-05 2.35213e-24)
(0.00216955 4.87205e-05 -8.46929e-25)
(0.00204661 0.00016308 3.04855e-25)
(0.00191814 0.000301801 3.88211e-26)
(0.0017834 0.000460467 -2.38992e-24)
(0.00164074 0.000628915 -2.57759e-26)
(0.00148816 0.000789142 7.59289e-25)
(0.00132412 0.000912287 1.55616e-25)
(0.00115561 0.00095419 -9.54758e-25)
(0.00106058 0.000827526 -4.22587e-26)
(0.000638937 -0.000175784 -1.04854e-24)
(0.000664847 -0.000176536 -1.57063e-24)
(0.000722433 -0.000153102 3.27126e-24)
(0.000795519 -0.000125029 1.56614e-24)
(0.000875879 -9.79222e-05 -5.56993e-24)
(0.000960769 -7.38635e-05 6.00211e-24)
(0.00104861 -5.33244e-05 -2.17987e-24)
(0.00113865 -3.62598e-05 1.67912e-24)
(0.00123055 -2.24727e-05 -2.25099e-24)
(0.00132418 -1.17132e-05 3.17076e-26)
(0.00141945 -3.71238e-06 -1.13017e-24)
(0.00151635 1.81146e-06 2.24463e-24)
(0.00161487 5.15566e-06 -1.22678e-24)
(0.00171504 6.64049e-06 -1.06862e-24)
(0.0018169 6.61736e-06 -6.9073e-25)
(0.00192055 5.47274e-06 1.35987e-24)
(0.00202614 3.62191e-06 -1.55677e-25)
(0.00213394 1.47531e-06 6.91813e-25)
(0.00224433 -6.38665e-07 9.92614e-26)
(0.00235777 -2.64213e-06 -2.02945e-25)
(0.00247472 -5.00379e-06 -7.91324e-26)
(0.00259499 -9.21221e-06 -4.05093e-26)
(0.00270799 -1.76734e-05 1.82299e-25)
(0.00280084 -3.17057e-05 1.85221e-25)
(0.00287092 -5.11444e-05 -1.93979e-25)
(0.00291879 -7.48412e-05 -7.21552e-25)
(0.00294501 -0.000100827 8.92825e-25)
(0.00295045 -0.000126652 -5.28798e-25)
(0.00293629 -0.000149638 1.67505e-25)
(0.00290403 -0.00016707 -6.40538e-27)
(0.00285539 -0.00017631 -1.85838e-25)
(0.00279223 -0.000174824 8.18351e-25)
(0.0027165 -0.000160162 -1.21479e-24)
(0.00263021 -0.000129869 3.39939e-24)
(0.0025354 -8.14007e-05 -4.78527e-24)
(0.00243418 -1.21003e-05 1.23455e-24)
(0.00232861 8.06014e-05 3.95886e-24)
(0.00222069 0.000198568 -1.2777e-24)
(0.00211217 0.000341793 -2.64078e-24)
(0.0020046 0.000506646 -1.24713e-24)
(0.00189972 0.000683559 2.72535e-24)
(0.0018006 0.000853949 -2.17123e-24)
(0.00171309 0.000985555 1.88916e-27)
(0.00164662 0.00102639 1.15998e-24)
(0.00162237 0.000893632 4.34455e-26)
(0.00095402 -0.000185925 -1.22723e-26)
(0.000963145 -0.000200018 -1.87941e-24)
(0.000993651 -0.000187823 3.67937e-24)
(0.00104281 -0.000164609 3.16918e-24)
(0.0011047 -0.000138267 -5.30022e-24)
(0.00117547 -0.000112897 1.15536e-25)
(0.00125236 -9.01678e-05 5.26366e-25)
(0.00133366 -7.06148e-05 5.63304e-24)
(0.00141839 -5.4305e-05 -6.75383e-24)
(0.00150593 -4.11025e-05 4.07216e-24)
(0.00159591 -3.07842e-05 1.14486e-24)
(0.00168812 -2.30834e-05 -6.64066e-24)
(0.00178241 -1.77053e-05 2.40448e-24)
(0.00187869 -1.43273e-05 9.34289e-25)
(0.00197695 -1.2596e-05 -1.91446e-24)
(0.0020772 -1.21249e-05 3.08859e-24)
(0.00217956 -1.2501e-05 -2.16438e-24)
(0.00228424 -1.33177e-05 -3.02895e-26)
(0.00239157 -1.42465e-05 1.7512e-25)
(0.00250194 -1.51977e-05 1.78974e-25)
(0.00261572 -1.65931e-05 2.94584e-26)
(0.00273268 -1.98186e-05 8.89588e-26)
(0.00284251 -2.71421e-05 -2.00495e-25)
(0.00293273 -3.97585e-05 5.66173e-25)
(0.00300085 -5.74188e-05 -8.1465e-25)
(0.00304747 -7.89315e-05 4.51828e-25)
(0.00307319 -0.000102335 -8.03289e-25)
(0.00307891 -0.000125219 1.0535e-24)
(0.00306586 -0.000144966 -6.07576e-25)
(0.00303558 -0.000158929 3.18598e-25)
(0.00298985 -0.000164537 4.98101e-25)
(0.00293063 -0.000159333 -9.49216e-25)
(0.00286 -0.000140947 4.67391e-25)
(0.00278017 -0.000107023 1.84267e-24)
(0.00269348 -5.51385e-05 -4.28242e-24)
(0.00260244 1.72193e-05 6.22175e-24)
(0.00250978 0.000112482 -3.89477e-24)
(0.00241852 0.000232433 4.54053e-24)
(0.00233191 0.000377053 -7.99187e-24)
(0.0022536 0.000542629 2.87607e-24)
(0.00218792 0.000719043 8.12398e-25)
(0.00214017 0.000886132 7.71935e-25)
(0.00211573 0.00100942 -8.91068e-25)
(0.00211472 0.00103867 -9.8085e-26)
(0.00212349 0.000918902 1.46403e-25)
(0.00130178 -0.000188514 -4.51386e-25)
(0.00130186 -0.000209714 -7.84004e-25)
(0.00131364 -0.000208833 -3.55696e-24)
(0.00134151 -0.000193991 9.20153e-25)
(0.00138382 -0.000172203 6.49182e-25)
(0.00143784 -0.000148439 2.94553e-24)
(0.0015008 -0.000125494 -6.23659e-24)
(0.00157054 -0.000104722 2.49472e-24)
(0.00164553 -8.66839e-05 8.06078e-24)
(0.00172475 -7.15249e-05 -2.22532e-24)
(0.0018075 -5.91766e-05 -2.02735e-24)
(0.00189328 -4.94575e-05 -3.16578e-25)
(0.00198179 -4.21189e-05 1.0157e-24)
(0.0020728 -3.68654e-05 -1.98342e-24)
(0.00216619 -3.336e-05 4.67169e-25)
(0.00226191 -3.12291e-05 -1.54033e-25)
(0.00235998 -3.00709e-05 -9.2793e-25)
(0.00246056 -2.94885e-05 3.76645e-25)
(0.0025639 -2.91575e-05 1.5966e-24)
(0.00267031 -2.89782e-05 -2.03575e-25)
(0.00278008 -2.93242e-05 -3.41597e-25)
(0.0028929 -3.14733e-05 -8.17412e-26)
(0.0029988 -3.7548e-05 -3.97284e-25)
(0.00308577 -4.86176e-05 2.16888e-26)
(0.00315143 -6.43477e-05 -7.43485e-25)
(0.00319643 -8.35047e-05 1.3514e-24)
(0.0032214 -0.000104139 -9.07533e-25)
(0.00322726 -0.000123891 1.61719e-24)
(0.00321529 -0.000140213 -1.04965e-24)
(0.00318708 -0.000150544 3.46328e-25)