/*--------------------------------*- C++ -*----------------------------------*\
| =========                 |                                                 |
| \\      /  F ield         | OpenFOAM: The Open Source CFD Toolbox           |
|  \\    /   O peration     | Version:  2312                                  |
|   \\  /    A nd           | Website:  www.openfoam.com                      |
|    \\/     M anipulation  |                                                 |
\*---------------------------------------------------------------------------*/
FoamFile
{
    version     2.0;
    format      ascii;
    arch        "LSB;label=32;scalar=64";
    class       volScalarField;
    location    "40";
    object      p;
}
// * * * * * * * * * * * * * * * * * * * * * * * * * * * * * * * * * * * * * //

dimensions      [0 2 -2 0 0 0 0];

internalField   nonuniform List<scalar> 
4800
(
1.441e-13
-1.30196e-06
-2.45476e-06
-3.48703e-06
-4.41408e-06
-5.24778e-06
-6.00155e-06
-6.68067e-06
-7.29335e-06
-7.84948e-06
-8.35589e-06
-8.81496e-06
-9.21836e-06
-9.81066e-06
-1.16062e-05
1.14158e-08
-1.28751e-06
-2.43725e-06
-3.46748e-06
-4.39342e-06
-5.22761e-06
-5.98328e-06
-6.66599e-06
-7.28478e-06
-7.85142e-06
-8.37793e-06
-8.88088e-06
-9.37479e-06
-9.96938e-06
-1.09216e-05
2.40742e-08
-1.27144e-06
-2.41825e-06
-3.44609e-06
-4.3707e-06
-5.2039e-06
-5.96044e-06
-6.64576e-06
-7.26907e-06
-7.84312e-06
-8.38095e-06
-8.89942e-06
-9.40717e-06
-9.9087e-06
-1.03736e-05
3.79988e-08
-1.25328e-06
-2.39638e-06
-3.42114e-06
-4.34426e-06
-5.17515e-06
-5.93097e-06
-6.61731e-06
-7.24178e-06
-7.81641e-06
-8.35127e-06
-8.85346e-06
-9.31369e-06
-9.69533e-06
-9.91941e-06
5.46908e-08
-1.2312e-06
-2.36947e-06
-3.39006e-06
-4.31039e-06
-5.13891e-06
-5.89089e-06
-6.57518e-06
-7.19626e-06
-7.76286e-06
-8.27987e-06
-8.74359e-06
-9.13254e-06
-9.40339e-06
-9.49509e-06
7.58373e-08
-1.20336e-06
-2.33547e-06
-3.35053e-06
-4.26583e-06
-5.09086e-06
-5.83659e-06
-6.51347e-06
-7.1245e-06
-7.67315e-06
-8.15852e-06
-8.56989e-06
-8.88349e-06
-9.0665e-06
-9.08809e-06
1.03872e-07
-1.16727e-06
-2.29164e-06
-3.29935e-06
-4.20732e-06
-5.02517e-06
-5.76203e-06
-6.4254e-06
-7.0179e-06
-7.53845e-06
-7.98165e-06
-8.33502e-06
-8.58023e-06
-8.70046e-06
-8.68832e-06
1.42482e-07
-1.11925e-06
-2.234e-06
-3.23199e-06
-4.12964e-06
-4.93619e-06
-5.65892e-06
-6.30217e-06
-6.86763e-06
-7.35155e-06
-7.74698e-06
-8.04421e-06
-8.23371e-06
-8.31246e-06
-8.28624e-06
1.96663e-07
-1.05432e-06
-2.15722e-06
-3.1425e-06
-4.02595e-06
-4.81619e-06
-5.51894e-06
-6.13461e-06
-6.66567e-06
-7.10757e-06
-7.45481e-06
-7.70286e-06
-7.85061e-06
-7.90405e-06
-7.87456e-06
2.7221e-07
-9.66529e-07
-2.05493e-06
-3.0238e-06
-3.88831e-06
-4.65642e-06
-5.33381e-06
-5.9146e-06
-6.40615e-06
-6.80438e-06
-7.10712e-06
-7.31532e-06
-7.43397e-06
-7.47372e-06
-7.44728e-06
3.74724e-07
-8.49822e-07
-1.92046e-06
-2.86855e-06
-3.7087e-06
-4.44817e-06
-5.0895e-06
-5.63553e-06
-6.08617e-06
-6.4427e-06
-6.70726e-06
-6.88521e-06
-6.98512e-06
-7.01926e-06
-6.99973e-06
5.08648e-07
-6.98933e-07
-1.74786e-06
-2.67028e-06
-3.48045e-06
-4.18613e-06
-4.79277e-06
-5.2962e-06
-5.70683e-06
-6.02638e-06
-6.26016e-06
-6.41654e-06
-6.50573e-06
-6.5398e-06
-6.5295e-06
6.76977e-07
-5.09969e-07
-1.53256e-06
-2.42441e-06
-3.19937e-06
-3.86587e-06
-4.42597e-06
-4.89726e-06
-5.27276e-06
-5.56159e-06
-5.77228e-06
-5.91469e-06
-5.99925e-06
-6.03711e-06
-6.03746e-06
8.81515e-07
-2.8055e-07
-1.2717e-06
-2.12828e-06
-2.86448e-06
-3.49026e-06
-4.01626e-06
-4.44891e-06
-4.79285e-06
-5.05714e-06
-5.25162e-06
-5.38637e-06
-5.47111e-06
-5.51562e-06
-5.52769e-06
1.12347e-06
-9.30781e-09
-9.64588e-07
-1.78057e-06
-2.47877e-06
-3.06872e-06
-3.55948e-06
-3.9597e-06
-4.27775e-06
-4.52367e-06
-4.70781e-06
-4.83988e-06
-4.92858e-06
-4.9822e-06
-5.00694e-06
1.40362e-06
3.03311e-07
-6.15726e-07
-1.39296e-06
-2.0524e-06
-2.60662e-06
-3.06572e-06
-3.4405e-06
-3.74002e-06
-3.9746e-06
-4.15416e-06
-4.28761e-06
-4.38283e-06
-4.44844e-06
-4.486e-06
1.71343e-06
6.49706e-07
-2.32565e-07
-9.72238e-07
-1.59527e-06
-2.11675e-06
-2.54934e-06
-2.90595e-06
-3.19303e-06
-3.42399e-06
-3.60662e-06
-3.74454e-06
-3.85414e-06
-3.93176e-06
-3.98002e-06
2.04483e-06
1.02115e-06
1.75648e-07
-5.30742e-07
-1.12313e-06
-1.618e-06
-2.03147e-06
-2.37484e-06
-2.6529e-06
-2.88603e-06
-3.07912e-06
-3.23862e-06
-3.36146e-06
-3.44935e-06
-3.5112e-06
2.37932e-06
1.39932e-06
5.88662e-07
-8.97473e-08
-6.58094e-07
-1.13473e-06
-1.53571e-06
-1.87475e-06
-2.16067e-06
-2.40801e-06
-2.60328e-06
-2.7647e-06
-2.89925e-06
-3.00174e-06
-3.08842e-06
2.6999e-06
1.76433e-06
9.84526e-07
3.28737e-07
-2.25815e-07
-6.96288e-07
-1.09716e-06
-1.43957e-06
-1.73179e-06
-1.97823e-06
-2.18825e-06
-2.36557e-06
-2.51818e-06
-2.64864e-06
-2.76152e-06
2.96078e-06
2.07033e-06
1.31957e-06
6.81626e-07
1.36321e-07
-3.31546e-07
-7.34566e-07
-1.08272e-06
-1.38372e-06
-1.64459e-06
-1.87207e-06
-2.07135e-06
-2.24633e-06
-2.39941e-06
-2.53284e-06
3.1442e-06
2.29384e-06
1.56674e-06
9.41513e-07
4.01482e-07
-6.70096e-08
-4.75071e-07
-8.32034e-07
-1.14604e-06
-1.42353e-06
-1.66933e-06
-1.88744e-06
-2.08142e-06
-2.25441e-06
-2.4093e-06
3.26101e-06
2.4478e-06
1.74311e-06
1.13058e-06
5.95641e-07
1.26405e-07
-2.87143e-07
-6.53267e-07
-9.78826e-07
-1.2693e-06
-1.52916e-06
-1.76185e-06
-1.97031e-06
-2.15866e-06
-2.32787e-06
3.3412e-06
2.56428e-06
1.88243e-06
1.2823e-06
7.52357e-07
2.8239e-07
-1.36189e-07
-5.1043e-07
-8.45991e-07
-1.14775e-06
-1.41968e-06
-1.66512e-06
-1.88786e-06
-2.0879e-06
-2.26932e-06
3.40597e-06
2.66121e-06
2.00018e-06
1.41179e-06
8.86736e-07
4.16575e-07
-5.842e-09
-3.86519e-07
-7.30474e-07
-1.04183e-06
-1.32418e-06
-1.58077e-06
-1.81333e-06
-2.02461e-06
-2.21653e-06
3.46242e-06
2.7465e-06
2.10457e-06
1.52744e-06
1.00761e-06
5.38088e-07
1.12917e-07
-2.72995e-07
-6.24015e-07
-9.43736e-07
-1.2351e-06
-1.50081e-06
-1.74297e-06
-1.96354e-06
-2.16434e-06
3.5137e-06
2.82377e-06
2.19916e-06
1.63259e-06
1.11796e-06
6.4944e-07
2.22089e-07
-1.68367e-07
-5.2558e-07
-8.52569e-07
-1.15179e-06
-1.42563e-06
-1.67602e-06
-1.90471e-06
-2.11335e-06
3.56037e-06
2.89341e-06
2.28426e-06
1.72735e-06
1.2176e-06
7.50098e-07
3.20851e-07
-7.3555e-08
-4.36081e-07
-7.69325e-07
-1.07554e-06
-1.35661e-06
-1.61432e-06
-1.85022e-06
-2.06582e-06
3.60151e-06
2.95464e-06
2.35919e-06
1.81093e-06
1.30556e-06
8.39035e-07
4.08182e-07
1.0355e-08
-3.56822e-07
-6.95585e-07
-1.00799e-06
-1.29543e-06
-1.55963e-06
-1.80191e-06
-2.02365e-06
3.63632e-06
3.00696e-06
2.42357e-06
1.88293e-06
1.38142e-06
9.15799e-07
4.83633e-07
8.28717e-08
-2.88418e-07
-6.32039e-07
-9.49965e-07
-1.24297e-06
-1.51286e-06
-1.76074e-06
-1.98789e-06
3.6646e-06
3.0505e-06
2.47768e-06
1.94369e-06
1.44555e-06
9.80783e-07
5.47523e-07
1.44184e-07
-2.30723e-07
-5.78634e-07
-9.00912e-07
-1.19917e-06
-1.47408e-06
-1.72686e-06
-1.95869e-06
3.68672e-06
3.08593e-06
2.52235e-06
1.99413e-06
1.49894e-06
1.03493e-06
6.00711e-07
1.95131e-07
-1.82928e-07
-5.34624e-07
-8.61111e-07
-1.16351e-06
-1.44276e-06
-1.69978e-06
-1.93564e-06
3.70345e-06
3.11426e-06
2.55874e-06
2.03551e-06
1.54286e-06
1.0795e-06
6.44444e-07
2.36917e-07
-1.43906e-07
-4.98908e-07
-8.28983e-07
-1.13513e-06
-1.41808e-06
-1.67871e-06
-1.91803e-06
3.71569e-06
3.13663e-06
2.5881e-06
2.06918e-06
1.57871e-06
1.11589e-06
6.80089e-07
2.70842e-07
-1.124e-07
-4.70277e-07
-8.03492e-07
-1.11288e-06
-1.39903e-06
-1.6628e-06
-1.90502e-06
3.72435e-06
3.15411e-06
2.61166e-06
2.09645e-06
1.60785e-06
1.14545e-06
7.08965e-07
2.9819e-07
-8.71833e-08
-4.47589e-07
-7.83554e-07
-1.09571e-06
-1.38467e-06
-1.65111e-06
-1.89585e-06
3.73022e-06
3.16768e-06
2.63048e-06
2.11847e-06
1.63145e-06
1.16938e-06
7.32256e-07
3.20109e-07
-6.71529e-08
-4.2978e-07
-7.68143e-07
-1.08274e-06
-1.37411e-06
-1.64281e-06
-1.88972e-06
3.73401e-06
3.17816e-06
2.64549e-06
2.13622e-06
1.65054e-06
1.1887e-06
7.50961e-07
3.37579e-07
-5.13591e-08
-4.15941e-07
-7.56403e-07
-1.07313e-06
-1.36657e-06
-1.63723e-06
-1.88595e-06
3.73625e-06
3.18627e-06
2.65754e-06
2.15063e-06
1.66607e-06
1.20438e-06
7.66063e-07
3.51556e-07
-3.88847e-08
-4.05204e-07
-7.47523e-07
-1.06612e-06
-1.36138e-06
-1.63376e-06
-1.88402e-06
3.73735e-06
3.19283e-06
2.6677e-06
2.16294e-06
1.67937e-06
1.21777e-06
7.78862e-07
3.63266e-07
-2.86035e-08
-3.96561e-07
-7.40618e-07
-1.06096e-06
-1.35791e-06
-1.63187e-06
-1.88355e-06
3.73768e-06
3.19806e-06
2.67629e-06
2.17356e-06
1.69092e-06
1.22938e-06
7.89863e-07
3.73196e-07
-2.00581e-08
-3.89583e-07
-7.3528e-07
-1.05725e-06
-1.35573e-06
-1.63109e-06
-1.88403e-06
-1.30779e-05
-1.0626e-05
-9.12852e-06
-8.13491e-06
-7.34245e-06
-6.73155e-06
-6.24774e-06
-5.8511e-06
-5.51368e-06
-5.2122e-06
-4.92895e-06
-4.64296e-06
-4.34542e-06
-4.02364e-06
-3.67144e-06
-3.29037e-06
-2.89249e-06
-2.51318e-06
-2.20662e-06
-2.07112e-06
-2.2315e-06
-2.81794e-06
-3.86283e-06
-5.095e-06
-6.24188e-06
-7.17503e-06
-7.82289e-06
-8.14223e-06
-8.1051e-06
-7.69097e-06
-6.88813e-06
-5.69741e-06
-4.13615e-06
-2.23933e-06
-5.8409e-08
2.34192e-06
4.88731e-06
7.49652e-06
1.00812e-05
1.25418e-05
1.47524e-05
1.65525e-05
1.76055e-05
1.76391e-05
1.55721e-05
-1.13281e-05
-1.00576e-05
-8.92406e-06
-8.03933e-06
-7.2954e-06
-6.70001e-06
-6.2211e-06
-5.82552e-06
-5.48792e-06
-5.18579e-06
-4.89905e-06
-4.61531e-06
-4.31709e-06
-3.99468e-06
-3.64211e-06
-3.26118e-06
-2.86417e-06
-2.48653e-06
-2.18185e-06
-2.04749e-06
-2.20645e-06
-2.78602e-06
-3.81968e-06
-5.04072e-06
-6.17841e-06
-7.10526e-06
-7.75006e-06
-8.06894e-06
-8.03402e-06
-7.6253e-06
-6.83219e-06
-5.65752e-06
-4.12069e-06
-2.25907e-06
-1.26912e-07
2.20734e-06
4.66387e-06
7.15289e-06
9.57185e-06
1.17964e-05
1.36535e-05
1.48825e-05
1.49891e-05
1.32533e-05
8.68108e-06
-1.04113e-05
-9.6161e-06
-8.70985e-06
-7.92404e-06
-7.23411e-06
-6.66052e-06
-6.18959e-06
-5.79629e-06
-5.45881e-06
-5.15594e-06
-4.869e-06
-4.58356e-06
-4.28425e-06
-3.96102e-06
-3.60809e-06
-3.22755e-06
-2.83191e-06
-2.4567e-06
-2.15483e-06
-2.02254e-06
-2.18061e-06
-2.75279e-06
-3.77366e-06
-4.9815e-06
-6.10788e-06
-7.02662e-06
-7.66712e-06
-7.98497e-06
-7.95249e-06
-7.55056e-06
-6.77033e-06
-5.61692e-06
-4.11248e-06
-2.29753e-06
-2.30117e-07
2.01641e-06
4.35527e-06
6.68632e-06
8.89148e-06
1.08231e-05
1.22762e-05
1.29552e-05
1.23997e-05
1.00815e-05
5.82938e-06
-9.8186e-06
-9.24667e-06
-8.51738e-06
-7.81187e-06
-7.17402e-06
-6.62347e-06
-6.16088e-06
-5.76912e-06
-5.43068e-06
-5.12591e-06
-4.83734e-06
-4.54967e-06
-4.24877e-06
-3.92441e-06
-3.57108e-06
-3.19112e-06
-2.79729e-06
-2.42513e-06
-2.12677e-06
-1.99719e-06
-2.15463e-06
-2.71926e-06
-3.72619e-06
-4.91927e-06
-6.03246e-06
-6.941e-06
-7.57517e-06
-7.89014e-06
-7.85869e-06
-7.46304e-06
-6.69663e-06
-5.56763e-06
-4.10185e-06
-2.34391e-06
-3.56659e-07
1.78064e-06
3.97352e-06
6.11164e-06
8.06405e-06
9.66974e-06
1.07196e-05
1.09463e-05
1.00224e-05
7.68079e-06
4.11726e-06
-9.34689e-06
-8.91279e-06
-8.32384e-06
-7.70656e-06
-7.11743e-06
-6.59061e-06
-6.1365e-06
-5.74478e-06
-5.40373e-06
-5.09519e-06
-4.80314e-06
-4.51235e-06
-4.20915e-06
-3.88341e-06
-3.52988e-06
-3.15112e-06
-2.76006e-06
-2.3922e-06
-2.09868e-06
-1.97292e-06
-2.13044e-06
-2.68681e-06
-3.67795e-06
-4.85402e-06
-5.95175e-06
-6.84795e-06
-7.47419e-06
-7.78537e-06
-7.75511e-06
-7.3674e-06
-6.6185e-06
-5.52028e-06
-4.10281e-06
-2.41545e-06
-5.26274e-07
1.47944e-06
3.5003e-06
5.41844e-06
7.09677e-06
8.37492e-06
9.06627e-06
8.96693e-06
7.8918e-06
5.76819e-06
2.82115e-06
-8.93708e-06
-8.59747e-06
-8.11836e-06
-7.59072e-06
-7.05744e-06
-6.55849e-06
-6.11473e-06
-5.72271e-06
-5.37816e-06
-5.06395e-06
-4.76674e-06
-4.47148e-06
-4.16511e-06
-3.83771e-06
-3.48427e-06
-3.10759e-06
-2.72067e-06
-2.35881e-06
-2.07196e-06
-1.95152e-06
-2.10992e-06
-2.65738e-06
-3.63033e-06
-4.78658e-06
-5.86606e-06
-6.7474e-06
-7.36401e-06
-7.67069e-06
-7.64243e-06
-7.26547e-06
-6.53939e-06
-5.48029e-06
-4.12296e-06
-2.52175e-06
-7.49843e-07
1.10235e-06
2.92877e-06
4.60882e-06
6.0081e-06
6.98099e-06
7.37892e-06
7.07008e-06
5.97858e-06
4.14264e-06
1.78021e-06
-8.55166e-06
-8.28309e-06
-7.89887e-06
-7.44762e-06
-6.97541e-06
-6.51632e-06
-6.087e-06
-5.69941e-06
-5.35206e-06
-5.0313e-06
-4.728e-06
-4.42719e-06
-4.11692e-06
-3.78769e-06
-3.43484e-06
-3.06138e-06
-2.68031e-06
-2.32659e-06
-2.04864e-06
-1.93535e-06
-2.09563e-06
-2.63347e-06
-3.58551e-06
-4.71857e-06
-5.77649e-06
-6.63989e-06
-7.24483e-06
-7.54624e-06
-7.52105e-06
-7.15826e-06
-6.46134e-06
-5.45102e-06
-4.16702e-06
-2.66849e-06
-1.03292e-06
6.46055e-07
2.26132e-06
3.69551e-06
4.82564e-06
5.5305e-06
5.70475e-06
5.27869e-06
4.2456e-06
2.6879e-06
7.89193e-07
-8.16833e-06
-7.95468e-06
-7.64846e-06
-7.27353e-06
-6.8625e-06
-6.44439e-06
-6.0421e-06
-5.666e-06
-5.31807e-06
-4.99395e-06
-4.68504e-06
-4.37854e-06
-4.06438e-06
-3.73373e-06
-3.38244e-06
-3.01386e-06
-2.64086e-06
-2.29791e-06
-2.03162e-06
-1.92765e-06
-2.09105e-06
-2.61857e-06
-3.54635e-06
-4.65221e-06
-5.68468e-06
-6.52651e-06
-7.11741e-06
-7.41274e-06
-7.39207e-06
-7.04773e-06
-6.38746e-06
-5.43686e-06
-4.24042e-06
-2.86133e-06
-1.37975e-06
1.10292e-07
1.50503e-06
2.69632e-06
3.57885e-06
4.06062e-06
4.07509e-06
3.59727e-06
2.65656e-06
1.34263e-06
-2.01693e-07
-7.77565e-06
-7.60523e-06
-7.36174e-06
-7.05546e-06
-6.70612e-06
-6.33642e-06
-5.9665e-06
-5.6086e-06
-5.26795e-06
-4.94539e-06
-4.63313e-06
-4.32294e-06
-4.00639e-06
-3.67584e-06
-3.328e-06
-2.96676e-06
-2.60477e-06
-2.27594e-06
-2.02464e-06
-1.93253e-06
-2.1005e-06
-2.61685e-06
-3.51643e-06
-4.5902e-06
-5.5926e-06
-6.40887e-06
-6.98324e-06
-7.27161e-06
-7.25756e-06
-6.93699e-06
-6.32213e-06
-5.44335e-06
-4.34925e-06
-3.10563e-06
-1.79295e-06
-5.02134e-07
6.70818e-07
1.63168e-06
2.29627e-06
2.59981e-06
2.50675e-06
2.01924e-06
1.18066e-06
7.18692e-08
-1.19988e-06
-7.3667e-06
-7.23126e-06
-7.03825e-06
-6.7909e-06
-6.49985e-06
-6.18064e-06
-5.84903e-06
-5.51714e-06
-5.1921e-06
-4.87629e-06
-4.56627e-06
-4.25657e-06
-3.94097e-06
-3.6136e-06
-3.27243e-06
-2.92212e-06
-2.57506e-06
-2.26446e-06
-2.03217e-06
-1.95485e-06
-2.12891e-06
-2.63314e-06
-3.49974e-06
-4.53569e-06
-5.50211e-06
-6.28848e-06
-6.84476e-06
-7.12539e-06
-7.12065e-06
-6.83028e-06
-6.27077e-06
-5.47666e-06
-4.4994e-06
-3.40535e-06
-2.27238e-06
-1.18484e-06
-2.27298e-07
5.22523e-07
1.00133e-06
1.16723e-06
1.00577e-06
5.32849e-07
-2.06815e-07
-1.14639e-06
-2.20659e-06
-6.93675e-06
-6.83064e-06
-6.67882e-06
-6.48126e-06
-6.24279e-06
-5.9729e-06
-5.68295e-06
-5.38314e-06
-5.08073e-06
-4.77923e-06
-4.47837e-06
-4.17512e-06
-3.86573e-06
-3.54643e-06
-3.21668e-06
-2.88219e-06
-2.55506e-06
-2.26764e-06
-2.05898e-06
-1.99973e-06
-2.18136e-06
-2.67231e-06
-3.50076e-06
-4.49202e-06
-5.41653e-06
-6.16643e-06
-6.70322e-06
-6.97745e-06
-6.98576e-06
-6.73291e-06
-6.23946e-06
-5.54287e-06
-4.69559e-06
-3.76203e-06
-2.81452e-06
-1.92787e-06
-1.17314e-06
-6.11223e-07
-2.86742e-07
-2.25056e-07
-4.27868e-07
-8.74365e-07
-1.52457e-06
-2.3259e-06
-3.22007e-06
-6.48345e-06
-6.40274e-06
-6.28535e-06
-6.12987e-06
-5.93781e-06
-5.7143e-06
-5.46677e-06
-5.20291e-06
-4.92907e-06
-4.64923e-06
-4.36494e-06
-4.07531e-06
-3.77892e-06
-3.47412e-06
-3.16198e-06
-2.84942e-06
-2.54819e-06
-2.28958e-06
-2.1096e-06
-2.07185e-06
-2.26226e-06
-2.73854e-06
-3.52303e-06
-4.46051e-06
-5.34218e-06
-6.05066e-06
-6.55394e-06
-6.82763e-06
-6.8569e-06
-6.65042e-06
-6.23396e-06
-5.64683e-06
-4.94011e-06
-4.17365e-06
-3.4117e-06
-2.71769e-06
-2.14878e-06
-1.75106e-06
-1.55244e-06
-1.56911e-06
-1.79595e-06
-2.21222e-06
-2.78489e-06
-3.47383e-06
-4.23633e-06
-6.00773e-06
-5.94962e-06
-5.86171e-06
-5.74221e-06
-5.59087e-06
-5.41e-06
-5.20401e-06
-4.97814e-06
-4.7374e-06
-4.48555e-06
-4.22507e-06
-3.95662e-06
-3.68078e-06
-3.39785e-06
-3.11042e-06
-2.82665e-06
-2.55788e-06
-2.33387e-06
-2.18764e-06
-2.1747e-06
-2.37444e-06
-2.8345e-06
-3.56932e-06
-4.44463e-06
-5.2763e-06
-5.94069e-06
-6.40718e-06
-6.68159e-06
-6.73872e-06
-6.58764e-06
-6.25817e-06
-5.79013e-06
-5.2308e-06
-4.63301e-06
-4.05122e-06
-3.53675e-06
-3.13351e-06
-2.87441e-06
-2.7806e-06
-2.85732e-06
-3.09813e-06
-3.48527e-06
-3.99288e-06
-4.59099e-06
-5.24842e-06
-5.51386e-06
-5.47637e-06
-5.41441e-06
-5.32628e-06
-5.21094e-06
-5.06901e-06
-4.90282e-06
-4.71562e-06
-4.51108e-06
-4.29234e-06
-4.06218e-06
-3.82224e-06
-3.57455e-06
-3.3211e-06
-3.06572e-06
-2.81761e-06
-2.58772e-06
-2.40361e-06
-2.29547e-06
-2.30992e-06
-2.5187e-06
-2.96024e-06
-3.63852e-06
-4.44405e-06
-5.21366e-06
-5.83061e-06
-6.27315e-06
-6.54756e-06
-6.63695e-06
-6.54909e-06
-6.31384e-06
-5.97009e-06
-5.55958e-06
-5.12642e-06
-4.71445e-06
-4.3636e-06
-4.10652e-06
-3.96627e-06
-3.95662e-06
-4.0798e-06
-4.32941e-06
-4.69129e-06
-5.1459e-06
-5.67133e-06
-6.24498e-06
-5.00895e-06
-4.99099e-06
-4.95281e-06
-4.89293e-06
-4.81003e-06
-4.70388e-06
-4.57552e-06
-4.42687e-06
-4.26045e-06
-4.07868e-06
-3.88425e-06
-3.67933e-06
-3.46679e-06
-3.24996e-06
-3.03347e-06
-2.8272e-06
-2.64164e-06
-2.50144e-06
-2.43425e-06
-2.47731e-06
-2.69318e-06
-3.11261e-06
-3.72989e-06
-4.4582e-06
-5.15868e-06
-5.72801e-06
-6.14853e-06
-6.42682e-06
-6.55385e-06
-6.53494e-06
-6.39821e-06
-6.17902e-06
-5.91243e-06
-5.63389e-06
-5.37707e-06
-5.17177e-06
-5.04137e-06
-5.00143e-06
-5.06111e-06
-5.22183e-06
-5.47848e-06
-5.82049e-06
-6.23351e-06
-6.70183e-06
-7.20935e-06
-4.50385e-06
-4.505e-06
-4.48971e-06
-4.45652e-06
-4.4038e-06
-4.33101e-06
-4.23869e-06
-4.12805e-06
-4.00074e-06
-3.85854e-06
-3.70385e-06
-3.5391e-06
-3.36747e-06
-3.19308e-06
-3.02095e-06
-2.86118e-06
-2.72382e-06
-2.62955e-06
-2.60362e-06
-2.67432e-06
-2.89322e-06
-3.28679e-06
-3.84123e-06
-4.48545e-06
-5.11165e-06
-5.63494e-06
-6.03631e-06
-6.32197e-06
-6.48882e-06
-6.5418e-06
-6.50103e-06
-6.40211e-06
-6.26912e-06
-6.13011e-06
-6.01021e-06
-5.93107e-06
-5.90896e-06
-5.95356e-06
-6.07122e-06
-6.26445e-06
-6.52896e-06
-6.85714e-06
-7.23904e-06
-7.6639e-06
-8.12048e-06
-4.01475e-06
-4.03494e-06
-4.04264e-06
-4.03565e-06
-4.01181e-06
-3.97067e-06
-3.91289e-06
-3.83945e-06
-3.75145e-06
-3.65012e-06
-3.53748e-06
-3.41614e-06
-3.28928e-06
-3.1612e-06
-3.0368e-06
-2.92559e-06
-2.83741e-06
-2.78862e-06
-2.8009e-06
-2.89525e-06
-3.11254e-06
-3.47665e-06
-3.96644e-06
-4.52338e-06
-5.07344e-06
-5.55227e-06
-5.93681e-06
-6.23146e-06
-6.43781e-06
-6.5596e-06
-6.61396e-06
-6.61996e-06
-6.6054e-06
-6.58768e-06
-6.58259e-06
-6.60798e-06
-6.67649e-06
-6.79694e-06
-6.96327e-06
-7.18619e-06
-7.46033e-06
-7.78062e-06
-8.14124e-06
-8.53507e-06
-8.9543e-06
-3.55825e-06
-3.60029e-06
-3.6328e-06
-3.65196e-06
-3.65622e-06
-3.64568e-06
-3.62137e-06
-3.58417e-06
-3.53474e-06
-3.47412e-06
-3.40395e-06
-3.3269e-06
-3.24566e-06
-3.16446e-06
-3.08797e-06
-3.02534e-06
-2.98351e-06
-2.97544e-06
-3.01968e-06
-3.13294e-06
-3.34344e-06
-3.67218e-06
-4.09648e-06
-4.56847e-06
-5.04402e-06
-5.47838e-06
-5.84631e-06
-6.1476e-06
-6.38731e-06
-6.56899e-06
-6.70256e-06
-6.8042e-06
-6.89201e-06
-6.98054e-06
-7.06909e-06
-7.17336e-06
-7.30707e-06
-7.48305e-06
-7.70761e-06
-7.96512e-06
-8.25434e-06
-8.57278e-06
-8.92106e-06
-9.29468e-06
-9.68851e-06
-3.16275e-06
-3.22873e-06
-3.28467e-06
-3.32847e-06
-3.35967e-06
-3.3788e-06
-3.38674e-06
-3.38407e-06
-3.37111e-06
-3.34893e-06
-3.31898e-06
-3.28665e-06
-3.24979e-06
-3.21303e-06
-3.18157e-06
-3.15982e-06
-3.15741e-06
-3.18343e-06
-3.25188e-06
-3.37581e-06
-3.57224e-06
-3.85925e-06
-4.21976e-06
-4.61489e-06
-5.02075e-06
-5.40911e-06
-5.75758e-06
-6.06119e-06
-6.32463e-06
-6.55199e-06
-6.74852e-06
-6.92264e-06
-7.08613e-06
-7.24861e-06
-7.42357e-06
-7.60701e-06
-7.81104e-06
-8.04083e-06
-8.29623e-06
-8.57587e-06
-8.88012e-06
-9.20894e-06
-9.55785e-06
-9.92492e-06
-1.03071e-05
-2.86072e-06
-2.94908e-06
-3.02714e-06
-3.09438e-06
-3.15112e-06
-3.19774e-06
-3.23609e-06
-3.26498e-06
-3.28557e-06
-3.29869e-06
-3.30572e-06
-3.30539e-06
-3.304e-06
-3.30368e-06
-3.30775e-06
-3.32078e-06
-3.34912e-06
-3.39967e-06
-3.48164e-06
-3.60476e-06
-3.78027e-06
-4.02235e-06
-4.32242e-06
-4.65104e-06
-4.99313e-06
-5.33448e-06
-5.65922e-06
-5.96091e-06
-6.2401e-06
-6.49887e-06
-6.74018e-06
-6.96878e-06
-7.19027e-06
-7.4102e-06
-7.63818e-06
-7.8813e-06
-8.13682e-06
-8.40764e-06
-8.69598e-06
-9.00225e-06
-9.32612e-06
-9.66675e-06
-1.00227e-05
-1.03922e-05
-1.07733e-05
-2.65154e-06
-2.7583e-06
-2.86099e-06
-2.95152e-06
-3.0318e-06
-3.10316e-06
-3.16443e-06
-3.21786e-06
-3.26382e-06
-3.30289e-06
-3.33606e-06
-3.36477e-06
-3.39127e-06
-3.41769e-06
-3.44681e-06
-3.48207e-06
-3.52796e-06
-3.58959e-06
-3.67365e-06
-3.78763e-06
-3.93816e-06
-4.13782e-06
-4.38734e-06
-4.66334e-06
-4.9499e-06
-5.24642e-06
-5.54389e-06
-5.83501e-06
-6.11774e-06
-6.39361e-06
-6.66473e-06
-6.93289e-06
-7.20041e-06
-7.47216e-06
-7.73968e-06
-8.02061e-06
-8.3134e-06
-8.61793e-06
-8.93518e-06
-9.26591e-06
-9.61023e-06
-9.96754e-06
-1.03369e-05
-1.07171e-05
-1.11069e-05
-2.55028e-06
-2.68152e-06
-2.79532e-06
-2.90147e-06
-2.99849e-06
-3.08586e-06
-3.16417e-06
-3.23417e-06
-3.29647e-06
-3.35183e-06
-3.40123e-06
-3.44589e-06
-3.48743e-06
-3.52768e-06
-3.56891e-06
-3.61385e-06
-3.66572e-06
-3.72907e-06
-3.80796e-06
-3.90902e-06
-4.04159e-06
-4.20864e-06
-4.41361e-06
-4.6481e-06
-4.89898e-06
-5.16082e-06
-5.43161e-06
-5.70605e-06
-5.98188e-06
-6.25974e-06
-6.5406e-06
-6.82439e-06
-7.11104e-06
-7.40144e-06
-7.71082e-06
-8.02432e-06
-8.34576e-06
-8.6774e-06
-9.01984e-06
-9.3734e-06
-9.73807e-06
-1.01136e-05
-1.04995e-05
-1.08949e-05
-1.12992e-05
-2.48199e-06
-2.62399e-06
-2.75415e-06
-2.87354e-06
-2.98252e-06
-3.08146e-06
-3.17092e-06
-3.25149e-06
-3.32389e-06
-3.38889e-06
-3.44745e-06
-3.50071e-06
-3.55006e-06
-3.59709e-06
-3.64377e-06
-3.69241e-06
-3.74578e-06
-3.80754e-06
-3.88139e-06
-3.97291e-06
-4.09052e-06
-4.24002e-06
-4.41925e-06
-4.62237e-06
-4.84748e-06
-5.08698e-06
-5.33933e-06
-5.60195e-06
-5.87286e-06
-6.15129e-06
-6.43693e-06
-6.73e-06
-7.03124e-06
-7.3396e-06
-7.65938e-06
-7.98853e-06
-8.32787e-06
-8.67785e-06
-9.03855e-06
-9.41e-06
-9.79211e-06
-1.01847e-05
-1.05873e-05
-1.09995e-05
-1.14203e-05
-2.43523e-06
-2.5881e-06
-2.72859e-06
-2.85722e-06
-2.97463e-06
-3.08135e-06
-3.17799e-06
-3.26517e-06
-3.34363e-06
-3.41418e-06
-3.4778e-06
-3.53561e-06
-3.58894e-06
-3.63931e-06
-3.68854e-06
-3.73878e-06
-3.79262e-06
-3.85324e-06
-3.92443e-06
-4.01102e-06
-4.11925e-06
-4.25503e-06
-4.41864e-06
-4.60487e-06
-4.81094e-06
-5.03415e-06
-5.27261e-06
-5.52443e-06
-5.78812e-06
-6.06288e-06
-6.34842e-06
-6.64467e-06
-6.95146e-06
-7.2697e-06
-7.59916e-06
-7.93992e-06
-8.29216e-06
-8.65584e-06
-9.03086e-06
-9.41713e-06
-9.81443e-06
-1.02224e-05
-1.06406e-05
-1.10683e-05
-1.15048e-05
-2.39212e-06
-2.55377e-06
-2.70225e-06
-2.8381e-06
-2.96195e-06
-3.07444e-06
-3.17621e-06
-3.26796e-06
-3.35047e-06
-3.42466e-06
-3.49156e-06
-3.55232e-06
-3.60829e-06
-3.66098e-06
-3.71216e-06
-3.76393e-06
-3.81873e-06
-3.87954e-06
-3.94984e-06
-4.03383e-06
-4.13689e-06
-4.2648e-06
-4.41833e-06
-4.59289e-06
-4.78636e-06
-4.9976e-06
-5.22536e-06
-5.46852e-06
-5.7261e-06
-5.99743e-06
-6.28205e-06
-6.57955e-06
-6.88973e-06
-7.21289e-06
-7.54884e-06
-7.89753e-06
-8.25885e-06
-8.63266e-06
-9.01873e-06
-9.41679e-06
-9.82646e-06
-1.02473e-05
-1.06787e-05
-1.112e-05
-1.15706e-05
-2.34821e-06
-2.51733e-06
-2.67249e-06
-2.81427e-06
-2.94336e-06
-3.06046e-06
-3.16628e-06
-3.26161e-06
-3.34733e-06
-3.42442e-06
-3.49398e-06
-3.55722e-06
-3.61554e-06
-3.67045e-06
-3.72375e-06
-3.77747e-06
-3.83397e-06
-3.89602e-06
-3.96687e-06
-4.05035e-06
-4.15119e-06
-4.27465e-06
-4.42162e-06
-4.58834e-06
-4.77337e-06
-4.97638e-06
-5.19666e-06
-5.43343e-06
-5.68593e-06
-5.95369e-06
-6.23632e-06
-6.53349e-06
-6.84501e-06
-7.17085e-06
-7.51086e-06
-7.86486e-06
-8.23262e-06
-8.61388e-06
-9.00833e-06
-9.41558e-06
-9.83516e-06
-1.02666e-05
-1.07092e-05
-1.11624e-05
-1.16253e-05
-2.3045e-06
-2.48014e-06
-2.64108e-06
-2.78798e-06
-2.92159e-06
-3.04266e-06
-3.15199e-06
-3.25044e-06
-3.33899e-06
-3.41869e-06
-3.49071e-06
-3.55634e-06
-3.617e-06
-3.67427e-06
-3.72994e-06
-3.78599e-06
-3.84473e-06
-3.90876e-06
-3.98114e-06
-4.06537e-06
-4.16568e-06
-4.28676e-06
-4.42954e-06
-4.5911e-06
-4.77048e-06
-4.96761e-06
-5.1821e-06
-5.41352e-06
-5.66152e-06
-5.92579e-06
-6.20605e-06
-6.50217e-06
-6.81387e-06
-7.14102e-06
-7.48344e-06
-7.84092e-06
-8.21319e-06
-8.59992e-06
-9.00073e-06
-9.41518e-06
-9.84276e-06
-1.02829e-05
-1.07349e-05
-1.11981e-05
-1.16716e-05
-2.26341e-06
-2.44479e-06
-2.61083e-06
-2.76225e-06
-2.89985e-06
-3.02444e-06
-3.13689e-06
-3.23815e-06
-3.32927e-06
-3.41138e-06
-3.48573e-06
-3.55367e-06
-3.61667e-06
-3.67634e-06
-3.73446e-06
-3.793e-06
-3.8542e-06
-3.92053e-06
-3.99488e-06
-4.08045e-06
-4.18108e-06
-4.30094e-06
-4.44093e-06
-4.59883e-06
-4.77396e-06
-4.96644e-06
-5.17619e-06
-5.40316e-06
-5.64725e-06
-5.9083e-06
-6.18621e-06
-6.48082e-06
-6.79195e-06
-7.11946e-06
-7.46318e-06
-7.82289e-06
-8.1983e-06
-8.58904e-06
-8.99471e-06
-9.41483e-06
-9.84884e-06
-1.02961e-05
-1.07559e-05
-1.12275e-05
-1.17101e-05
-2.22692e-06
-2.41338e-06
-2.58391e-06
-2.73931e-06
-2.88041e-06
-3.00809e-06
-3.12328e-06
-3.22703e-06
-3.32044e-06
-3.40474e-06
-3.48122e-06
-3.55129e-06
-3.61647e-06
-3.6784e-06
-3.73886e-06
-3.7998e-06
-3.8634e-06
-3.932e-06
-4.00835e-06
-4.09538e-06
-4.1966e-06
-4.31572e-06
-4.45358e-06
-4.60856e-06
-4.78022e-06
-4.96887e-06
-5.17469e-06
-5.39787e-06
-5.63849e-06
-5.89655e-06
-6.17212e-06
-6.46494e-06
-6.7751e-06
-7.1024e-06
-7.4467e-06
-7.80778e-06
-8.18537e-06
-8.57908e-06
-8.98851e-06
-9.41314e-06
-9.85238e-06
-1.03056e-05
-1.0772e-05
-1.12508e-05
-1.1741e-05
-2.19613e-06
-2.38701e-06
-2.56145e-06
-2.72028e-06
-2.8644e-06
-2.99472e-06
-3.11226e-06
-3.21812e-06
-3.31349e-06
-3.39965e-06
-3.47797e-06
-3.54989e-06
-3.61698e-06
-3.68089e-06
-3.74342e-06
-3.80648e-06
-3.87221e-06
-3.94283e-06
-4.02096e-06
-4.10928e-06
-4.21103e-06
-4.32951e-06
-4.46551e-06
-4.61797e-06
-4.78667e-06
-4.97202e-06
-5.17443e-06
-5.39427e-06
-5.63176e-06
-5.88706e-06
-6.16024e-06
-6.45122e-06
-6.76022e-06
-7.08701e-06
-7.43144e-06
-7.79335e-06
-8.17248e-06
-8.56847e-06
-8.98089e-06
-9.4092e-06
-9.85283e-06
-1.03111e-05
-1.07831e-05
-1.12682e-05
-1.17653e-05
-2.17124e-06
-2.36592e-06
-2.54369e-06
-2.70543e-06
-2.85205e-06
-2.98456e-06
-3.10402e-06
-3.2116e-06
-3.30856e-06
-3.39623e-06
-3.47603e-06
-3.54946e-06
-3.6181e-06
-3.68365e-06
-3.74789e-06
-3.81271e-06
-3.8802e-06
-3.95248e-06
-4.03205e-06
-4.12136e-06
-4.22344e-06
-4.3412e-06
-4.47545e-06
-4.62564e-06
-4.79166e-06
-4.97406e-06
-5.17343e-06
-5.39027e-06
-5.62492e-06
-5.87765e-06
-6.14861e-06
-6.438e-06
-6.74552e-06
-7.0716e-06
-7.41592e-06
-7.77834e-06
-8.15862e-06
-8.55643e-06
-8.97132e-06
-9.40277e-06
-9.85018e-06
-1.03128e-05
-1.07899e-05
-1.12806e-05
-1.17838e-05
-2.15188e-06
-2.34978e-06
-2.53034e-06
-2.69447e-06
-2.84313e-06
-2.97738e-06
-3.09834e-06
-3.20726e-06
-3.30543e-06
-3.39424e-06
-3.47516e-06
-3.54973e-06
-3.61958e-06
-3.68639e-06
-3.75196e-06
-3.81817e-06
-3.88703e-06
-3.96059e-06
-4.04123e-06
-4.13122e-06
-4.23338e-06
-4.35029e-06
-4.48283e-06
-4.63086e-06
-4.79441e-06
-4.97413e-06
-5.17075e-06
-5.38487e-06
-5.61693e-06
-5.86728e-06
-6.13616e-06
-6.42382e-06
-6.73026e-06
-7.05546e-06
-7.39952e-06
-7.76227e-06
-8.14347e-06
-8.54279e-06
-8.95982e-06
-9.39403e-06
-9.8448e-06
-1.03114e-05
-1.0793e-05
-1.12887e-05
-1.17975e-05
-2.13739e-06
-2.33799e-06
-2.52085e-06
-2.68691e-06
-2.83718e-06
-2.97277e-06
-3.09486e-06
-3.20474e-06
-3.30378e-06
-3.39339e-06
-3.4751e-06
-3.55048e-06
-3.62119e-06
-3.68892e-06
-3.75547e-06
-3.8227e-06
-3.89256e-06
-3.96706e-06
-4.04844e-06
-4.13881e-06
-4.24082e-06
-4.35676e-06
-4.4876e-06
-4.63356e-06
-4.79479e-06
-4.97205e-06
-5.16617e-06
-5.37781e-06
-5.60751e-06
-5.85566e-06
-6.12264e-06
-6.40868e-06
-6.71391e-06
-7.0384e-06
-7.3822e-06
-7.74517e-06
-8.12714e-06
-8.5278e-06
-8.94672e-06
-9.3834e-06
-9.83721e-06
-1.03074e-05
-1.07932e-05
-1.12936e-05
-1.18075e-05
-2.12703e-06
-2.32986e-06
-2.5146e-06
-2.68219e-06
-2.83371e-06
-2.97028e-06
-3.09318e-06
-3.20372e-06
-3.30331e-06
-3.39344e-06
-3.47564e-06
-3.55154e-06
-3.62281e-06
-3.69116e-06
-3.75839e-06
-3.82632e-06
-3.89688e-06
-3.972e-06
-4.05383e-06
-4.14433e-06
-4.246e-06
-4.36087e-06
-4.49002e-06
-4.634e-06
-4.79306e-06
-4.96805e-06
-5.15987e-06
-5.36925e-06
-5.59678e-06
-5.84294e-06
-6.10816e-06
-6.39273e-06
-6.69685e-06
-7.02064e-06
-7.36416e-06
-7.72733e-06
-8.10998e-06
-8.51183e-06
-8.93248e-06
-9.3714e-06
-9.82799e-06
-1.03015e-05
-1.07911e-05
-1.12957e-05
-1.18144e-05
-2.12005e-06
-2.32472e-06
-2.51099e-06
-2.67977e-06
-2.83222e-06
-2.96951e-06
-3.09293e-06
-3.20387e-06
-3.30378e-06
-3.39417e-06
-3.47664e-06
-3.55281e-06
-3.6244e-06
-3.69312e-06
-3.76076e-06
-3.82914e-06
-3.90014e-06
-3.97564e-06
-4.05768e-06
-4.14812e-06
-4.2493e-06
-4.36305e-06
-4.49054e-06
-4.63262e-06
-4.78964e-06
-4.96253e-06
-5.15224e-06
-5.35954e-06
-5.58509e-06
-5.82944e-06
-6.09305e-06
-6.37628e-06
-6.67939e-06
-7.00252e-06
-7.34578e-06
-7.70912e-06
-8.09239e-06
-8.49532e-06
-8.91754e-06
-9.35852e-06
-9.81766e-06
-1.02942e-05
-1.07873e-05
-1.12959e-05
-1.18189e-05
-2.11575e-06
-2.32198e-06
-2.50943e-06
-2.67915e-06
-2.83229e-06
-2.97005e-06
-3.0938e-06
-3.20494e-06
-3.30496e-06
-3.39543e-06
-3.47796e-06
-3.55423e-06
-3.62594e-06
-3.69483e-06
-3.76269e-06
-3.83131e-06
-3.90255e-06
-3.97822e-06
-4.0603e-06
-4.15054e-06
-4.25114e-06
-4.36374e-06
-4.48961e-06
-4.62988e-06
-4.78501e-06
-4.95596e-06
-5.14372e-06
-5.34912e-06
-5.57287e-06
-5.81556e-06
-6.07771e-06
-6.35973e-06
-6.66191e-06
-6.98445e-06
-7.32747e-06
-7.69096e-06
-8.07479e-06
-8.47871e-06
-8.90236e-06
-9.34522e-06
-9.80669e-06
-1.0286e-05
-1.07823e-05
-1.12945e-05
-1.18216e-05
-2.11353e-06
-2.32106e-06
-2.50944e-06
-2.67991e-06
-2.83352e-06
-2.97157e-06
-3.09547e-06
-3.20666e-06
-3.30665e-06
-3.39706e-06
-3.47953e-06
-3.55574e-06
-3.62743e-06
-3.69634e-06
-3.76426e-06
-3.83297e-06
-3.90429e-06
-3.97999e-06
-4.06197e-06
-4.15191e-06
-4.25187e-06
-4.36334e-06
-4.48767e-06
-4.62625e-06
-4.77962e-06
-4.94879e-06
-5.13478e-06
-5.33845e-06
-5.56056e-06
-5.80176e-06
-6.06259e-06
-6.34351e-06
-6.64485e-06
-6.96685e-06
-7.30965e-06
-7.67327e-06
-8.05761e-06
-8.46244e-06
-8.88737e-06
-9.33195e-06
-9.79554e-06
-1.02774e-05
-1.07766e-05
-1.12921e-05
-1.18228e-05
-2.11294e-06
-2.3215e-06
-2.51064e-06
-2.68169e-06
-2.83558e-06
-2.97381e-06
-3.09774e-06
-3.20886e-06
-3.30873e-06
-3.39898e-06
-3.48128e-06
-3.55733e-06