/*--------------------------------*- C++ -*----------------------------------*\
| =========                 |                                                 |
| \\      /  F ield         | OpenFOAM: The Open Source CFD Toolbox           |
|  \\    /   O peration     | Version:  2312                                  |
|   \\  /    A nd           | Website:  www.openfoam.com                      |
|    \\/     M anipulation  |                                                 |
\*---------------------------------------------------------------------------*/
FoamFile
{
    version     2.0;
    format      ascii;
    arch        "LSB;label=32;scalar=64";
    class       surfaceScalarField;
    location    "6";
    object      phi;
}
// * * * * * * * * * * * * * * * * * * * * * * * * * * * * * * * * * * * * * //

dimensions      [0 3 -1 0 0 0 0];

oriented        oriented;

internalField   nonuniform List<scalar> 
9445
(
5.74442e-10
1.23813e-11
5.6694e-10
7.50288e-12
5.62552e-10
4.38788e-12
5.60297e-10
2.25522e-12
5.59633e-10
6.63421e-13
5.60282e-10
-6.48998e-13
5.62039e-10
-1.75715e-12
5.64842e-10
-2.80281e-12
5.68923e-10
-4.08073e-12
5.74657e-10
-5.73401e-12
5.83126e-10
-8.46911e-12
5.97882e-10
-1.47562e-11
6.31398e-10
-3.35155e-11
7.27495e-10
-9.60973e-11
-2.49711e-10
9.77206e-10
2.00536e-09
5.481e-11
1.97924e-09
3.36279e-11
1.96357e-09
2.00556e-11
1.95507e-09
1.07586e-11
1.9519e-09
3.83082e-12
1.953e-09
-1.75232e-12
1.95766e-09
-6.41233e-12
1.96575e-09
-1.08982e-11
1.97784e-09
-1.61712e-11
1.99502e-09
-2.29132e-11
2.02009e-09
-3.35411e-11
2.05993e-09
-5.45921e-11
2.1279e-09
-1.01484e-10
2.2369e-09
-2.05094e-10
-3.65037e-10
2.35222e-09
3.95749e-09
1.36677e-10
3.90645e-09
8.46702e-11
3.87523e-09
5.12714e-11
3.8576e-09
2.83942e-11
3.85002e-09
1.14112e-11
3.85033e-09
-2.06154e-12
3.85711e-09
-1.31997e-11
3.87008e-09
-2.38673e-11
3.88989e-09
-3.59818e-11
3.91778e-09
-5.08023e-11
3.95659e-09
-7.23451e-11
4.01098e-09
-1.08988e-10
4.08385e-09
-1.74356e-10
4.16178e-09
-2.83025e-10
-4.11518e-10
4.20827e-09
6.5734e-09
2.6858e-10
6.49004e-09
1.68032e-10
6.43802e-09
1.03298e-10
6.40747e-09
5.8936e-11
6.39269e-09
2.61922e-11
6.39012e-09
5.13813e-13
6.39744e-09
-2.05223e-11
6.41371e-09
-4.01376e-11
6.43935e-09
-6.16218e-11
6.47484e-09
-8.62919e-11
6.52131e-09
-1.18816e-10
6.57854e-09
-1.66214e-10
6.64021e-09
-2.36032e-10
6.68662e-09
-3.29429e-10
-4.20411e-10
6.69551e-09
1.00254e-08
4.61218e-10
9.90181e-09
2.91667e-10
9.82298e-09
1.82127e-10
9.77496e-09
1.0696e-10
9.74927e-09
5.1885e-11
9.74078e-09
8.9981e-12
9.74603e-09
-2.57695e-11
9.76286e-09
-5.69679e-11
9.79078e-09
-8.95387e-11
9.82891e-09
-1.2443e-10
9.87583e-09
-1.65735e-10
9.92707e-09
-2.17448e-10
9.9723e-09
-2.81259e-10
9.99485e-09
-3.51987e-10
-4.10479e-10
9.98492e-09
1.4517e-08
7.22843e-10
1.43461e-08
4.62621e-10
1.42346e-08
2.93616e-10
1.41642e-08
1.77344e-10
1.41234e-08
9.26636e-11
1.41051e-08
2.72989e-11
1.41045e-08
-2.51604e-11
1.41182e-08
-7.06409e-11
1.41436e-08
-1.14954e-10
1.41785e-08
-1.59297e-10
1.4219e-08
-2.06269e-10
1.42586e-08
-2.57029e-10
1.42872e-08
-3.099e-10
1.42942e-08
-3.58954e-10
-3.9335e-10
1.42771e-08
2.02803e-08
1.05455e-09
2.00588e-08
6.84123e-10
1.99108e-08
4.41606e-10
1.98142e-08
2.74031e-10
1.97544e-08
1.52378e-10
1.97224e-08
5.93693e-11
1.97116e-08
-1.44287e-11
1.97174e-08
-7.64034e-11
1.97352e-08
-1.32703e-10
1.97609e-08
-1.8509e-10
1.97896e-08
-2.34907e-10
1.98144e-08
-2.81803e-10
1.98279e-08
-3.23423e-10
1.98247e-08
-3.55784e-10
-3.74219e-10
1.98056e-08
2.7569e-08
1.44314e-09
2.73023e-08
9.50814e-10
2.71192e-08
6.24632e-10
2.69956e-08
3.97672e-10
2.69151e-08
2.32887e-10
2.68665e-08
1.07943e-10
2.68421e-08
9.99221e-12
2.68355e-08
-6.9848e-11
2.68409e-08
-1.38082e-10
2.6853e-08
-1.97151e-10
2.68662e-08
-2.48084e-10
2.68749e-08
-2.90558e-10
2.68748e-08
-3.23265e-10
2.68637e-08
-3.44708e-10
-3.53904e-10
2.68434e-08
3.66462e-08
1.85341e-09
3.63542e-08
1.24283e-09
3.61474e-08
8.31424e-10
3.60029e-08
5.42172e-10
3.59044e-08
3.31389e-10
3.58399e-08
1.72399e-10
3.58008e-08
4.91725e-11
3.57796e-08
-4.86766e-11
3.57699e-08
-1.28339e-10
3.57658e-08
-1.93092e-10
3.57624e-08
-2.44664e-10
3.57556e-08
-2.8381e-10
3.57432e-08
-3.10873e-10
3.57249e-08
-3.26403e-10
-3.31379e-10
3.57024e-08
4.77779e-08
2.22661e-09
4.74984e-08
1.52238e-09
4.72925e-08
1.03733e-09
4.71432e-08
6.91403e-10
4.70371e-08
4.3753e-10
4.69632e-08
2.46313e-10
4.69129e-08
9.9456e-11
4.68789e-08
-1.46643e-11
4.6855e-08
-1.04462e-10
4.68359e-08
-1.74032e-10
4.68178e-08
-2.26501e-10
4.6798e-08
-2.64055e-10
4.67757e-08
-2.88548e-10
4.67512e-08
-3.01908e-10
-3.06076e-10
4.67259e-08
6.12512e-08
2.49623e-09
6.10329e-08
1.74062e-09
6.08634e-08
1.20692e-09
6.0735e-08
8.19762e-10
6.06396e-08
5.32895e-10
6.05694e-08
3.16495e-10
6.05176e-08
1.51336e-10
6.0478e-08
2.48892e-11
6.04458e-08
-7.22919e-11
6.04172e-08
-1.45417e-10
6.03896e-08
-1.98904e-10
6.03618e-08
-2.36238e-10
6.03336e-08
-2.60336e-10
6.03056e-08
-2.73894e-10
-2.79266e-10
6.02788e-08
7.74416e-08
2.62426e-09
7.73216e-08
1.86071e-09
7.72198e-08
1.3087e-09
7.71379e-08
9.0164e-10
7.70737e-08
5.97116e-10
7.70233e-08
3.66847e-10
7.69828e-08
1.91821e-10
7.69487e-08
5.89784e-11
7.69179e-08
-4.14263e-11
7.68885e-08
-1.16049e-10
7.68595e-08
-1.69916e-10
7.68307e-08
-2.07431e-10
7.68025e-08
-2.32083e-10
7.67754e-08
-2.46882e-10
-2.54281e-10
7.67505e-08
9.69048e-08
2.63063e-09
9.68804e-08
1.88508e-09
9.68518e-08
1.33735e-09
9.68247e-08
9.28782e-10
9.68005e-08
6.21236e-10
9.67789e-08
3.88526e-10
9.67584e-08
2.12288e-10
9.6738e-08
7.93366e-11
9.67168e-08
-2.01564e-11
9.66946e-08
-9.38635e-11
9.66716e-08
-1.46952e-10
9.66485e-08
-1.84272e-10
9.66259e-08
-2.09486e-10
9.66046e-08
-2.25619e-10
-2.3505e-10
9.65854e-08
1.20375e-07
2.573e-09
1.20407e-07
1.85299e-09
1.20426e-07
1.31926e-09
1.20435e-07
9.18836e-10
1.2044e-07
6.16873e-10
1.2044e-07
3.88783e-10
1.20435e-07
2.16725e-10
1.20427e-07
8.75298e-11
1.20415e-07
-8.67818e-12
1.20402e-07
-8.01277e-11
1.20387e-07
-1.31816e-10
1.20371e-07
-1.68696e-10
1.20356e-07
-1.94384e-10
1.20342e-07
-2.11772e-10
-2.23073e-10
1.2033e-07
1.48581e-07
2.49188e-09
1.48633e-07
1.80149e-09
1.48665e-07
1.28634e-09
1.48686e-07
8.98402e-10
1.48697e-07
6.05611e-10
1.48701e-07
3.8473e-10
1.48699e-07
2.18397e-10
1.48693e-07
9.35715e-11
1.48684e-07
1.00067e-12
1.48672e-07
-6.8851e-11
1.4866e-07
-1.19614e-10
1.48648e-07
-1.56625e-10
1.48637e-07
-1.83293e-10
1.48628e-07
-2.02307e-10
-2.15701e-10
1.4862e-07
1.81993e-07
2.38978e-09
1.82056e-07
1.73877e-09
1.82093e-07
1.24956e-09
1.82112e-07
8.79178e-10
1.82119e-07
5.98685e-10
1.82117e-07
3.86531e-10
1.82109e-07
2.26351e-10
1.82097e-07
1.05667e-10
1.82083e-07
1.50658e-11
1.82068e-07
-5.35851e-11
1.82053e-07
-1.04699e-10
1.82039e-07
-1.42874e-10
1.82027e-07
-1.71383e-10
1.82017e-07
-1.92728e-10
-2.08767e-10
1.8201e-07
2.20689e-07
2.25455e-09
2.20772e-07
1.65637e-09
2.20818e-07
1.20318e-09
2.2084e-07
8.57351e-10
2.20845e-07
5.93608e-10
2.20839e-07
3.92635e-10
2.20825e-07
2.39622e-10
2.20808e-07
1.23132e-10
2.20789e-07
3.45018e-11
2.20769e-07
-3.36665e-11
2.2075e-07
-8.59107e-11
2.20733e-07
-1.25957e-10
2.20718e-07
-1.56926e-10
2.20707e-07
-1.81141e-10
-2.00301e-10
2.20698e-07
2.64226e-07
2.08094e-09
2.64334e-07
1.54847e-09
2.64396e-07
1.14097e-09
2.64427e-07
8.26742e-10
2.64436e-07
5.8458e-10
2.64431e-07
3.97879e-10
2.64417e-07
2.53791e-10
2.64397e-07
1.42358e-10
2.64376e-07
5.6095e-11
2.64353e-07
-1.09033e-11
2.64332e-07
-6.51093e-11
2.64314e-07
-1.07268e-10
2.64298e-07
-1.40971e-10
2.64285e-07
-1.6834e-10
-1.90845e-10
2.64275e-07
3.11274e-07
1.86973e-09
3.11409e-07
1.41333e-09
3.11491e-07
1.0594e-09
3.11535e-07
7.82846e-10
3.11553e-07
5.66795e-10
3.11553e-07
3.97711e-10
3.11542e-07
2.64993e-10
3.11524e-07
1.60286e-10
3.11503e-07
7.71914e-11
3.11481e-07
1.11611e-11
3.11459e-07
-4.37692e-11
3.1144e-07
-8.8319e-11
3.11424e-07
-1.24995e-10
3.11412e-07
-1.55703e-10
-1.81693e-10
3.11402e-07
3.58961e-07
1.61695e-09
3.5913e-07
1.24467e-09
3.59239e-07
9.50631e-10
3.59305e-07
7.16947e-10
3.5934e-07
5.31206e-10
3.59355e-07
3.83145e-10
3.59355e-07
2.64559e-10
3.59346e-07
1.68982e-10
3.59332e-07
9.13532e-11
3.59316e-07
2.77603e-11
3.59298e-07
-2.56198e-11
3.5928e-07
-7.07683e-11
3.59264e-07
-1.08988e-10
3.5925e-07
-1.4187e-10
-1.70569e-10
3.59239e-07
3.56728e-07
1.36699e-09
3.56901e-07
1.07182e-09
3.57018e-07
8.33583e-10
3.57094e-07
6.40702e-10
3.57141e-07
4.84467e-10
3.57167e-07
3.57382e-10
3.57178e-07
2.53327e-10
3.5718e-07
1.67447e-10
3.57175e-07
9.60371e-11
3.57166e-07
3.64641e-11
3.57155e-07
-1.42917e-11
3.57144e-07
-5.98157e-11
3.57133e-07
-9.85494e-11
3.57124e-07
-1.32657e-10
-1.63081e-10
3.57117e-07
3.05694e-07
1.14286e-09
3.05852e-07
9.135e-10
3.05962e-07
7.23789e-10
3.06035e-07
5.67304e-10
3.06082e-07
4.38076e-10
3.06108e-07
3.30811e-10
3.0612e-07
2.41122e-10
3.06122e-07
1.65466e-10
3.06117e-07
1.00999e-10
3.06109e-07
4.52968e-11
3.06098e-07
-3.85527e-12
3.06085e-07
-4.66353e-11
3.06072e-07
-8.51969e-11
3.06059e-07
-1.19771e-10
-1.51079e-10
3.06047e-07
2.56239e-07
9.51175e-10
2.56381e-07
7.71622e-10
2.56485e-07
6.20084e-10
2.56559e-07
4.92947e-10
2.56611e-07
3.86044e-10
2.56647e-07
2.95629e-10
2.56669e-07
2.18532e-10
2.56682e-07
1.52144e-10
2.56689e-07
9.43459e-11
2.56691e-07
4.34461e-11
2.56689e-07
-1.62225e-12
2.56684e-07
-4.22272e-11
2.56678e-07
-7.89212e-11
2.56671e-07
-1.12437e-10
-1.43215e-10
2.56663e-07
2.11335e-07
7.87267e-10
2.1146e-07
6.46603e-10
2.11555e-07
5.25934e-10
2.11625e-07
4.22959e-10
2.11676e-07
3.3484e-10
2.11712e-07
2.58952e-10
2.11738e-07
1.93046e-10
2.11755e-07
1.35262e-10
2.11765e-07
8.40931e-11
2.1177e-07
3.83559e-11
2.11771e-07
-2.83403e-12
2.1177e-07
-4.04183e-11
2.11765e-07
-7.48292e-11
2.1176e-07
-1.06596e-10
-1.36055e-10
2.11752e-07
1.71948e-07
6.46042e-10
1.72059e-07
5.36042e-10
1.72144e-07
4.40332e-10
1.7221e-07
3.57327e-10
1.7226e-07
2.85083e-10
1.72297e-07
2.21787e-10
1.72324e-07
1.65883e-10
1.72343e-07
1.16064e-10
1.72356e-07
7.12816e-11
1.72364e-07
3.06599e-11
1.72367e-07
-6.49672e-12
1.72367e-07
-4.06314e-11
1.72365e-07
-7.22917e-11
1.7236e-07
-1.01754e-10
-1.29258e-10
1.72353e-07
1.38262e-07
5.23832e-10
1.3836e-07
4.38102e-10
1.38437e-07
3.62539e-10
1.38499e-07
2.96003e-10
1.38547e-07
2.37147e-10
1.38584e-07
1.84742e-10
1.38612e-07
1.37736e-10
1.38633e-07
9.52298e-11
1.38647e-07
5.64836e-11
1.38657e-07
2.0871e-11
1.38663e-07
-1.20134e-11
1.38665e-07
-4.25038e-11
1.38663e-07
-7.10243e-11
1.38659e-07
-9.77282e-11
-1.22768e-10
1.38653e-07
1.10001e-07
4.17755e-10
1.10088e-07
3.51329e-10
1.10158e-07
2.92069e-10
1.10215e-07
2.39129e-10
1.10261e-07
1.91574e-10
1.10297e-07
1.48604e-10
1.10325e-07
1.09517e-10
1.10347e-07
7.3722e-11
1.10362e-07
4.06786e-11
1.10373e-07
9.94584e-12
1.1038e-07
-1.85298e-11
1.10383e-07
-4.5244e-11
1.10382e-07
-7.03491e-11
1.10378e-07
-9.39509e-11
-1.16144e-10
1.10371e-07
8.66508e-08
3.2603e-10
8.67271e-08
2.75044e-10
8.67901e-08
2.29039e-10
8.68419e-08
1.87361e-10
8.68841e-08
1.49386e-10
8.6918e-08
1.14616e-10
8.6945e-08
8.2595e-11
8.69657e-08
5.29469e-11
8.69811e-08
2.53265e-11
8.69918e-08
-7.16963e-13
8.6998e-08
-2.47702e-11
8.70004e-08
-4.76307e-11
8.69992e-08
-6.91495e-11
8.69947e-08
-8.9429e-11
-1.0852e-10
8.6987e-08
6.75936e-08
2.47905e-10
6.76593e-08
2.0931e-10
6.77143e-08
1.74103e-10
6.77599e-08
1.41771e-10
6.77973e-08
1.11929e-10
6.78276e-08
8.42851e-11
6.78517e-08
5.85624e-11
6.78701e-08
3.45009e-11
6.78836e-08
1.18715e-11
6.78923e-08
-9.42809e-12
6.78969e-08
-2.94301e-11
6.78977e-08
-4.83799e-11
6.78948e-08
-6.62809e-11
6.78886e-08
-8.31664e-11
-9.90515e-11
6.78791e-08
5.21966e-08
1.83058e-10
5.22515e-08
1.54378e-10
5.22977e-08
1.27933e-10
5.23361e-08
1.03323e-10
5.23677e-08
8.03507e-11
5.23931e-08
5.88531e-11
5.2413e-08
3.86703e-11
5.24279e-08
1.96458e-11
5.24381e-08
1.60292e-12
5.24441e-08
-1.53619e-11
5.24461e-08
-3.14607e-11
5.24444e-08
-4.66939e-11
5.24392e-08
-6.1098e-11
5.24308e-08
-7.4681e-11
-8.74346e-11
5.24191e-08
3.98635e-08
1.30947e-10
3.99078e-08
1.10116e-10
3.9945e-08
9.07023e-11
3.9976e-08
7.24066e-11
4.00011e-08
5.51618e-11
4.00211e-08
3.88842e-11
4.00363e-08
2.34824e-11
4.00471e-08
8.86793e-12
4.00537e-08
-5.02276e-12
4.00565e-08
-1.81779e-11
4.00557e-08
-3.06712e-11
4.00515e-08
-4.25048e-11
4.00441e-08
-5.36893e-11
4.00337e-08
-6.42204e-11
-7.408e-11
4.00203e-08
3.00615e-08
9.0502e-11
3.00958e-08
7.57806e-11
3.01246e-08
6.19149e-11
3.01483e-08
4.86961e-11
3.01673e-08
3.61382e-11
3.0182e-08
2.41952e-11
3.01927e-08
1.28227e-11
3.01995e-08
1.97903e-12
3.02029e-08
-8.35443e-12
3.02029e-08
-1.81893e-11
3.01997e-08
-2.75304e-11
3.01936e-08
-3.63803e-11
3.01847e-08
-4.47357e-11
3.0173e-08
-5.25846e-11
-5.99069e-11
3.01589e-08
2.23292e-08
6.01857e-11
2.23549e-08
5.01137e-11
2.23762e-08
4.05374e-11
2.23936e-08
3.13172e-11
2.24073e-08
2.25047e-11
2.24174e-08
1.40667e-11
2.24242e-08
5.99067e-12
2.24279e-08
-1.73011e-12
2.24287e-08
-9.12211e-12
2.24267e-08
-1.6171e-11
2.2422e-08
-2.28678e-11
2.24148e-08
-2.92095e-11
2.24053e-08
-3.51881e-11
2.23935e-08
-4.07881e-11
-4.59912e-11
2.23796e-08
1.62762e-08
3.82309e-11
1.62947e-08
3.16078e-11
1.63099e-08
2.52707e-11
1.63221e-08
1.91221e-11
1.63314e-08
1.32191e-11
1.6338e-08
7.53099e-12
1.63419e-08
2.0654e-12
1.63433e-08
-3.16686e-12
1.63424e-08
-8.2046e-12
1.63392e-08
-1.30117e-11
1.6334e-08
-1.75781e-11
1.63266e-08
-2.18988e-11
1.63174e-08
-2.59656e-11
1.63064e-08
-2.97625e-11
-3.32741e-11
1.62937e-08
1.15759e-08
2.2891e-11
1.15888e-08
1.87531e-11
1.15992e-08
1.47944e-11
1.16074e-08
1.0934e-11
1.16134e-08
7.21561e-12
1.16173e-08
3.61038e-12
1.16193e-08
1.34709e-13
1.16193e-08
-3.19256e-12
1.16175e-08
-6.41868e-12
1.1614e-08
-9.49561e-12
1.16088e-08
-1.24173e-11
1.16021e-08
-1.51791e-11
1.15939e-08
-1.77745e-11
1.15844e-08
-2.01895e-11
-2.24106e-11
1.15735e-08
7.95818e-09
1.26074e-11
7.96673e-09
1.0199e-11
7.9736e-09
7.92441e-12
7.97884e-09
5.70141e-12
7.9825e-09
3.55418e-12
7.98465e-09
1.45904e-12
7.98535e-09
-5.66734e-13
7.98466e-09
-2.50489e-12
7.98265e-09
-4.40105e-12
7.97935e-09
-6.20166e-12
7.97485e-09
-7.91534e-12
7.9692e-09
-9.53234e-12
7.96248e-09
-1.10499e-11
7.95475e-09
-1.24569e-11
-1.37415e-11
7.94608e-09
5.20117e-09
6.08488e-12
5.20655e-09
4.8268e-12
5.21079e-09
3.683e-12
5.21392e-09
2.56589e-12
5.21599e-09
1.48322e-12
5.21703e-09
4.20156e-13
5.21708e-09
-6.15507e-13
5.21618e-09
-1.6013e-12
5.21435e-09
-2.5719e-12
5.21164e-09
-3.49499e-12
5.2081e-09
-4.37348e-12
5.20377e-09
-5.20087e-12
5.19869e-09
-5.97687e-12
5.19293e-09
-6.69325e-12
-7.33931e-12
5.18653e-09
3.12403e-09
2.29837e-12
3.1271e-09
1.75606e-12
3.12948e-09
1.30678e-12
3.13118e-09
8.69355e-13
3.13222e-09
4.42379e-13
3.13262e-09
1.87686e-14
3.1324e-09
-3.94995e-13
3.13159e-09
-7.90244e-13
3.13019e-09
-1.17913e-12
3.12825e-09
-1.55078e-12
3.12578e-09
-1.90398e-12
3.12282e-09
-2.23632e-12
3.11939e-09
-2.54778e-12
3.11553e-09
-2.83334e-12
-3.08368e-12
3.11127e-09
1.58035e-09
4.63901e-13
1.58179e-09
3.14635e-13
1.58288e-09
2.20144e-13
1.58362e-09
1.28489e-13
1.58402e-09
3.63636e-14
1.5841e-09
-5.59793e-14
1.58385e-09
-1.48429e-13
1.5833e-09
-2.35747e-13
1.58244e-09
-3.22181e-13
1.58129e-09
-4.04741e-13
1.57987e-09
-4.82874e-13
1.57819e-09
-5.56922e-13
1.57627e-09
-6.25442e-13
1.57413e-09
-6.87389e-13
-7.35789e-13
1.57178e-09
4.52359e-10
4.52673e-10
4.52893e-10
4.53022e-10
4.53058e-10
4.53002e-10
4.52854e-10
4.52618e-10
4.52296e-10
4.51891e-10
4.51408e-10
4.50851e-10
4.50226e-10
4.49539e-10
4.48803e-10
1.16838e-09
-4.84668e-10
2.93493e-10
1.44183e-09
-4.20818e-10
1.47363e-10
1.71731e-09
-2.91036e-10
1.55651e-11
1.9885e-09
-1.57012e-10
-1.1418e-10
2.25369e-09
-2.39549e-11
-2.41233e-10
2.51367e-09
1.00885e-10
-3.60872e-10
2.76988e-09
2.16314e-10
-4.72522e-10
3.02352e-09
3.21582e-10
-5.75225e-10
3.27562e-09
4.15994e-10
-6.68087e-10
3.52696e-09
4.99014e-10
-7.50354e-10
3.77817e-09
5.70233e-10
-8.21446e-10
4.02978e-09
6.29628e-10
-8.81236e-10
4.28228e-09
6.77976e-10
-9.30477e-10
4.53627e-09
7.17519e-10
-9.71509e-10
4.79261e-09
7.5296e-10
-1.0093e-09
5.05272e-09
7.92878e-10
-1.05299e-09
5.31893e-09
8.51287e-10
-1.1175e-09
5.59505e-09
9.49362e-10
-1.22548e-09
5.88677e-09
1.11336e-09
-1.40508e-09
6.20187e-09
1.37038e-09
-1.68548e-09
6.54868e-09
1.72128e-09
-2.06808e-09
6.93192e-09
2.10976e-09
-2.49299e-09
7.28676e-09
2.00189e-09
-2.35674e-09
7.5818e-09
1.50474e-09
-1.79978e-09
7.81334e-09
8.42685e-10
-1.07423e-09
7.98205e-09
1.10083e-10
-2.78791e-10
8.091e-09
-6.21551e-10
5.12595e-10
8.14392e-09
-1.30596e-09
1.25305e-09
8.14416e-09
-1.91329e-09
1.91305e-09
8.09463e-09
-2.42254e-09
2.47208e-09
7.99801e-09
-2.81722e-09
2.91384e-09
7.85715e-09
-3.08418e-09
3.22504e-09
7.67517e-09
-3.21418e-09
3.39615e-09
7.45551e-09
-3.20271e-09
3.42238e-09
7.20164e-09
-3.05019e-09
3.30406e-09
6.91684e-09
-2.76119e-09
3.04599e-09
6.60392e-09
-2.34274e-09
2.65566e-09
6.26525e-09
-1.80163e-09
2.1403e-09
5.90295e-09
-1.14111e-09
1.50341e-09
5.51832e-09
-3.58873e-10
7.43505e-10
5.10846e-09
5.46603e-10
-1.36744e-10
4.66097e-09
1.55122e-09
-1.10374e-09
4.15269e-09
2.54122e-09
-2.03293e-09
3.58625e-09
3.25352e-09
-2.68709e-09
2.98595e-09
3.24374e-09
-2.64344e-09
2.42814e-09
-5.60591e-10
2.59025e-09
-5.82923e-10
2.81053e-09
-5.11314e-10
3.05677e-09
-4.03258e-10
3.31529e-09
-2.82475e-10
3.57898e-09
-1.62801e-10
3.84498e-09
-4.96904e-11
4.11224e-09
5.43291e-11
4.38047e-09
1.47764e-10
4.64973e-09
2.29753e-10
4.9202e-09
2.99762e-10
5.19212e-09
3.57703e-10
5.46582e-09
4.04277e-10
5.74178e-09
4.41566e-10
6.02077e-09
4.73964e-10
6.30419e-09
5.09459e-10
6.59437e-09
5.61104e-10
6.89523e-09
6.48511e-10
7.21265e-09
7.95932e-10
7.5548e-09
1.02823e-09
7.93055e-09
1.34553e-09
8.34526e-09
1.69505e-09
8.72979e-09
1.61736e-09
9.05074e-09
1.18379e-09
9.30409e-09
5.89332e-10
9.49025e-09
-7.6078e-11
9.6122e-09
-7.43493e-10
9.67367e-09
-1.36744e-09
9.67822e-09
-1.91784e-09
9.62905e-09
-2.37337e-09
9.52933e-09
-2.7175e-09
9.38253e-09
-2.93737e-09
9.1926e-09
-3.02425e-09
8.96401e-09
-2.97412e-09
8.70161e-09
-2.78779e-09
8.41046e-09
-2.47005e-09
8.09588e-09
-2.02816e-09
7.7639e-09
-1.46965e-09
7.4225e-09
-7.9971e-10
7.08355e-09
-1.99166e-11
6.76343e-09
8.66718e-10
6.48392e-09
1.83074e-09
6.27218e-09
2.75295e-09
6.17078e-09
3.35492e-09
3.07163e-09
6.0851e-09
4.22278e-09
-5.75111e-10
4.29442e-09
-6.54554e-10
4.43468e-09
-6.5158e-10
4.62715e-09
-5.95729e-10
4.85239e-09
-5.0771e-10
5.09804e-09
-4.08449e-10
5.35661e-09
-3.08266e-10
5.62383e-09
-2.12884e-10
5.89726e-09
-1.25667e-10
6.17555e-09
-4.85403e-11
6.45796e-09
1.73536e-11
6.7441e-09
7.15552e-11
7.03389e-09
1.14497e-10
7.32748e-09
1.47974e-10
7.62545e-09
1.75991e-10
7.92903e-09
2.05876e-10
8.24048e-09
2.49661e-10
8.56367e-09
3.25315e-10
8.90462e-09
4.5498e-10
9.27173e-09
6.61125e-10
9.67432e-09
9.42934e-10
1.01184e-08
1.25101e-09
1.05308e-08
1.20489e-09
1.08765e-08
8.38157e-10
1.11509e-08
3.149e-10
1.13542e-08
-2.79345e-10
1.1489e-08
-8.78356e-10
1.15592e-08
-1.43761e-09
1.15684e-08
-1.92703e-09
1.15202e-08
-2.32515e-09
1.14182e-08
-2.61557e-09
1.12668e-08
-2.78598e-09
1.1071e-08
-2.82837e-09
1.08364e-08
-2.73953e-09
1.05696e-08
-2.521e-09
1.02779e-08
-2.17833e-09
9.96958e-09
-1.71987e-09
9.65506e-09
-1.15512e-09
9.34874e-09
-4.93396e-10
9.07229e-09
2.56535e-10
8.85849e-09
1.08052e-09
8.74957e-09
1.93966e-09
8.78076e-09
2.72176e-09
8.93569e-09
3.19999e-09
2.99784e-09
9.00948e-09
6.67485e-09
-5.54451e-10
6.68525e-09
-6.6495e-10
6.7475e-09
-7.13834e-10
6.86751e-09
-7.15735e-10
7.03605e-09
-6.76254e-10
7.23975e-09
-6.1215e-10
7.46906e-09
-5.3758e-10
7.71719e-09
-4.61013e-10
7.97946e-09
-3.87931e-10
8.25274e-09
-3.21817e-10
8.53497e-09
-2.64879e-10
8.82483e-09
-2.18304e-10
9.12151e-09
-1.82185e-10
9.42467e-09
-1.5519e-10
9.7345e-09
-1.33834e-10
1.00519e-08
-1.11537e-10
1.03789e-08
-7.73666e-11
1.07193e-08
-1.50739e-11
1.1079e-08
9.52729e-11
1.14666e-08
2.73605e-10
1.18915e-08
5.17987e-10
1.23603e-08
7.8219e-10
1.27969e-08
7.68364e-10
1.31642e-08
4.70816e-10
1.34575e-08
2.15989e-11
1.36763e-08
-4.98156e-10
1.38231e-08
-1.02511e-09
1.39014e-08
-1.51591e-09
1.3915e-08
-1.9407e-09
1.3868e-08
-2.27815e-09
1.37647e-08
-2.51228e-09
1.36103e-08
-2.63155e-09
1.34109e-08
-2.62899e-09
1.31739e-08
-2.50249e-09
1.29077e-08
-2.25478e-09
1.26221e-08
-1.89273e-09
1.23286e-08
-1.42647e-09
1.2042e-08
-8.68492e-10
1.1782e-08
-2.33335e-10
1.15766e-08
4.61917e-10
1.1465e-08
1.19213e-09
1.14917e-08
1.9129e-09
1.16808e-08
2.53269e-09
1.19847e-08
2.89612e-09
2.80481e-09
1.21777e-08
9.94893e-09
-5.18459e-10
9.92049e-09
-6.36507e-10
9.92416e-09
-7.17504e-10
9.9715e-09
-7.63081e-10
1.00689e-08
-7.73671e-10
1.02111e-08
-7.54337e-10
1.03891e-08
-7.15584e-10
1.05962e-08
-6.68138e-10
1.08267e-08
-6.18381e-10
1.1076e-08
-5.71117e-10
1.13408e-08
-5.29716e-10
1.16188e-08
-4.9629e-10
1.19083e-08
-4.71665e-10
1.22082e-08
-4.55142e-10
1.25183e-08
-4.43892e-10
1.28389e-08
-4.32186e-10
1.31719e-08
-4.10277e-10
1.35205e-08
-3.63702e-10
1.38906e-08
-2.74822e-10
1.42905e-08
-1.26347e-10
1.473e-08
7.84884e-11
1.52158e-08
2.96412e-10
1.56696e-08
3.1453e-10
1.60533e-08
8.72017e-11
1.63612e-08
-2.86297e-10
1.65922e-08
-7.29226e-10
1.67484e-08
-1.18132e-09
1.68332e-08
-1.60065e-09
1.68504e-08
-1.95791e-09
1.68044e-08
-2.23219e-09
1.67004e-08
-2.40826e-09
1.65445e-08
-2.47569e-09
1.63444e-08
-2.42883e-09
1.61089e-08
-2.26705e-09
1.58488e-08
-1.99461e-09
1.55762e-08
-1.62016e-09
1.53059e-08
-1.15612e-09
1.50556e-08
-6.18273e-10
1.48484e-08
-2.61323e-11
1.47135e-08
5.96856e-10
1.46867e-08
1.21894e-09
1.48025e-08
1.79707e-09
1.50694e-08
2.26577e-09
1.54307e-08
2.5348e-09
2.51682e-09
1.57187e-08
1.42377e-08
-4.79084e-10
1.41902e-08
-5.89016e-10
1.41565e-08
-6.83787e-10
1.41489e-08
-7.55554e-10
1.41789e-08
-8.03663e-10
1.42502e-08
-8.2558e-10
1.43618e-08
-8.27176e-10
1.45088e-08
-8.15124e-10
1.46865e-08
-7.96107e-10
1.48906e-08
-7.75191e-10
1.51172e-08
-7.56376e-10
1.53634e-08
-7.42502e-10
1.56269e-08
-7.35101e-10
1.59059e-08
-7.34156e-10
1.61996e-08
-7.37566e-10
1.65079e-08
-7.40514e-10
1.68321e-08
-7.34499e-10
1.71753e-08
-7.06881e-10
1.75428e-08
-6.42367e-10
1.79428e-08
-5.2634e-10
1.83848e-08
-3.63474e-10
1.88755e-08
-1.94262e-10
1.93361e-08
-1.46119e-10
1.97274e-08
-3.04072e-10
2.00429e-08
-6.01768e-10
2.02805e-08
-9.66911e-10
2.04418e-08
-1.34256e-09
2.05297e-08
-1.68854e-09
2.05482e-08
-1.97644e-09
2.05022e-08
-2.18616e-09
2.03975e-08
-2.30359e-09
2.02416e-08
-2.31973e-09
2.00433e-08
-2.23059e-09
1.98136e-08
-2.0373e-09
1.95649e-08
-1.74593e-09
1.93119e-08
-1.36712e-09
1.90714e-08
-9.1562e-10
1.88631e-08
-4.1002e-10
1.87099e-08
1.27061e-10
1.86379e-08
6.68888e-10
1.86734e-08
1.18343e-09
1.88362e-08
1.63426e-09
1.91225e-08
1.97945e-09
1.94826e-08
2.17467e-09
2.1889e-09
1.98106e-08
1.97688e-08
-4.42274e-10
1.9718e-08
-5.38248e-10
1.96659e-08
-6.31696e-10
1.9625e-08
-7.14688e-10
1.96052e-08
-7.83769e-10
1.96147e-08
-8.35158e-10
1.96583e-08
-8.70785e-10
1.97364e-08
-8.93138e-10
1.98472e-08
-9.06932e-10
1.99883e-08
-9.16337e-10
2.0157e-08
-9.25078e-10
2.03506e-08
-9.36115e-10
2.05669e-08
-9.51326e-10
2.08039e-08
-9.71181e-10
2.10605e-08
-9.94212e-10
2.13365e-08
-1.01647e-09
2.16327e-08
-1.03068e-09
2.19518e-08
-1.02598e-09
2.22988e-08
-9.89412e-10
2.26814e-08
-9.08982e-10
2.31088e-08
-7.90833e-10
2.35873e-08
-6.72783e-10
2.40399e-08
-5.98644e-10
2.44263e-08
-6.90545e-10
2.4739e-08
-9.14419e-10
2.49747e-08
-1.20261e-09
2.5134e-08
-1.50186e-09
2.52196e-08
-1.77413e-09
2.52355e-08
-1.99233e-09
2.51869e-08
-2.1376e-09
2.50806e-08
-2.19734e-09
2.49252e-08
-2.16432e-09
2.47311e-08
-2.03647e-09
2.45107e-08
-1.81686e-09
2.42782e-08
-1.51347e-09
2.40499e-08
-1.13879e-09
2.38436e-08
-7.09362e-10
2.3679e-08
-2.4537e-10
2.35762e-08
2.29774e-10
2.35552e-08
6.8995e-10
2.36313e-08
1.10736e-09
2.38107e-08
1.45479e-09
2.40822e-08
1.70798e-09
2.44078e-08
1.84903e-09
1.8723e-09
2.47244e-08
2.68101e-08
-4.09014e-10
2.67629e-08
-4.91024e-10
2.67074e-08
-5.76228e-10
2.66519e-08
-6.59121e-10
2.66039e-08
-7.35772e-10
2.65718e-08
-8.03091e-10
2.65616e-08
-8.60579e-10
2.65774e-08
-9.08917e-10
2.66209e-08
-9.50491e-10
2.66926e-08
-9.88059e-10
2.6792e-08
-1.0244e-09
2.69178e-08
-1.06197e-09
2.7069e-08
-1.10247e-09
2.72443e-08
-1.14647e-09
2.74429e-08
-1.19287e-09
2.76648e-08
-1.23838e-09
2.7911e-08
-1.27681e-09
2.81839e-08
-1.29895e-09
2.84885e-08
-1.29403e-09
2.88321e-08
-1.25249e-09
2.92231e-08
-1.18184e-09
2.96675e-08
-1.11718e-09
3.00924e-08
-1.02355e-09
3.04575e-08
-1.05569e-09
3.07533e-08
-1.21019e-09
3.09751e-08
-1.42441e-09
3.11225e-08
-1.64931e-09
3.11978e-08
-1.84943e-09
3.1205e-08
-1.99949e-09
3.11497e-08
-2.08232e-09
3.10396e-08
-2.0872e-09
3.08842e-08
-2.00896e-09
3.06953e-08
-1.84762e-09
3.04867e-08
-1.60822e-09
3.02737e-08
-1.30043e-09
3.0073e-08
-9.38111e-10
2.99022e-08
-5.38612e-10
2.97789e-08
-1.22065e-10
2.97191e-08
2.89613e-10
2.97352e-08
6.7381e-10
2.98335e-08
1.0091e-09
3.00109e-08
1.27735e-09
3.02528e-08
1.46609e-09
3.05313e-08
1.57051e-09
1.59478e-09
3.08089e-08
3.56709e-08
-3.77511e-10
3.56277e-08
-4.47861e-10
3.5575e-08
-5.23446e-10
3.55167e-08
-6.00891e-10
3.54581e-08
-6.77157e-10
3.54049e-08
-7.49881e-10
3.53623e-08
-8.17941e-10
3.53347e-08
-8.81363e-10
3.53255e-08
-9.41282e-10
3.53369e-08
-9.99442e-10
3.53703e-08
-1.05778e-09
3.54264e-08
-1.11812e-09
3.55057e-08
-1.18176e-09
3.56084e-08
-1.24912e-09
3.57347e-08
-1.3192e-09
3.58855e-08
-1.38915e-09
3.60623e-08
-1.45366e-09
3.62682e-08
-1.50488e-09
3.65083e-08
-1.53405e-09
3.67895e-08
-1.53372e-09
3.71201e-08
-1.51245e-09
3.75054e-08
-1.50244e-09
3.78799e-08
-1.39804e-09
3.82039e-08
-1.37975e-09
3.84657e-08
-1.47192e-09
3.86587e-08
-1.6175e-09
3.87817e-08
-1.7723e-09
3.88364e-08
-1.90405e-09
3.88266e-08
-1.98975e-09
3.87586e-08
-2.01432e-09
3.86407e-08
-1.9693e-09
3.84835e-08
-1.85174e-09
3.82997e-08
-1.66379e-09
3.81036e-08
-1.41219e-09
3.79111e-08
-1.10788e-09
3.77382e-08
-7.65223e-10
3.76008e-08
-4.01192e-10
3.7513e-08
-3.42823e-11
3.74858e-08
3.16761e-10
3.75254e-08
6.34218e-10
3.76314e-08
9.03116e-10
3.77961e-08
1.11269e-09
3.80045e-08
1.25764e-09
3.82361e-08
1.3389e-09
1.36317e-09
3.84677e-08
4.66945e-08
-3.46071e-10
4.66538e-08
-4.07225e-10
4.66045e-08
-4.74097e-10
4.65484e-08
-5.44782e-10
4.64884e-08
-6.17224e-10
4.64282e-08
-6.8968e-10
4.63714e-08
-7.61084e-10
4.63212e-08
-8.31218e-10
4.62806e-08
-9.00688e-10
4.62519e-08
-9.70712e-10
4.62369e-08
-1.04279e-09
4.62372e-08
-1.11841e-09
4.62541e-08
-1.19867e-09
4.6289e-08
-1.28395e-09
4.63431e-08
-1.37339e-09
4.64185e-08
-1.46452e-09
4.65177e-08
-1.55286e-09
4.66446e-08
-1.63179e-09
4.68049e-08
-1.69428e-09
4.70058e-08
-1.73466e-09
4.72554e-08
-1.76204e-09
4.75584e-08
-1.80547e-09
4.78602e-08
-1.69986e-09
4.8123e-08
-1.64256e-09
4.83326e-08
-1.68151e-09
4.84809e-08
-1.76579e-09
4.85655e-08
-1.8569e-09
4.85878e-08
-1.9263e-09
4.85517e-08
-1.95369e-09
4.84639e-08
-1.92649e-09
4.83333e-08
-1.83868e-09
4.81711e-08
-1.6896e-09
4.79906e-08
-1.48326e-09
4.78061e-08
-1.22772e-09
4.76327e-08
-9.34431e-10
4.74848e-08
-6.17328e-10
4.73754e-08
-2.91822e-10
4.73148e-08
2.63723e-11
4.73091e-08
3.2243e-10
4.73597e-08
5.83616e-10
4.74625e-08
8.00345e-10
4.76082e-08
9.66989e-10
4.77835e-08
1.08227e-09
4.79732e-08
1.14921e-09
1.17427e-09
4.81621e-08
6.02477e-08
-3.15036e-10
6.02095e-08
-3.68985e-10
6.0164e-08
-4.28547e-10
6.01119e-08
-4.92759e-10
6.00551e-08
-5.60372e-10
5.99956e-08
-6.3019e-10
5.99359e-08
-7.01361e-10
5.98782e-08
-7.73571e-10
5.98247e-08
-8.47119e-10
5.97768e-08
-9.22847e-10
5.97359e-08
-1.00196e-09
5.97033e-08
-1.08573e-09
5.96798e-08
-1.17525e-09
5.96669e-08
-1.27101e-09
5.96661e-08
-1.37255e-09
5.96795e-08
-1.47797e-09
5.97104e-08
-1.58376e-09
5.97632e-08
-1.68458e-09
5.9844e-08
-1.77505e-09
5.99605e-08
-1.85119e-09
6.01205e-08
-1.92199e-09
6.03284e-08
-2.01337e-09
6.05425e-08
-1.91403e-09
6.07289e-08
-1.82894e-09
6.08717e-08
-1.82431e-09
6.09616e-08
-1.85566e-09
6.09956e-08
-1.89092e-09
6.09751e-08
-1.90578e-09
6.09043e-08
-1.88289e-09
6.07902e-08
-1.81238e-09
6.06422e-08
-1.69071e-09
6.04719e-08
-1.51933e-09
6.02924e-08
-1.3037e-09
6.01172e-08
-1.05251e-09
5.99596e-08
-7.76889e-10
5.98318e-08
-4.89463e-10
5.97432e-08
-2.03255e-10
5.97002e-08
6.93247e-11
5.97053e-08
3.17336e-10
5.97566e-08
5.32299e-10
5.98484e-08
7.08589e-10
5.99716e-08
8.43785e-10
6.01153e-08
9.38583e-10
6.02681e-08
9.96441e-10
1.02276e-09
6.04196e-08
7.67225e-08
-2.87119e-10
7.6689e-08
-3.35482e-10
7.66496e-08
-3.89128e-10
7.66045e-08
-4.47678e-10
7.65547e-08
-5.10491e-10
7.65013e-08
-5.76856e-10
7.64462e-08
-6.46195e-10
7.63908e-08
-7.18224e-10
7.63368e-08
-7.93062e-10
7.62851e-08
-8.71237e-10
7.62368e-08
-9.53627e-10
7.61923e-08
-1.04124e-09
7.61522e-08
-1.13508e-09
7.61168e-08
-1.23566e-09
7.60872e-08
-1.34294e-09
7.60648e-08
-1.4556e-09
7.60523e-08
-1.57124e-09
7.60536e-08
-1.68587e-09
7.60743e-08
-1.79577e-09
7.61219e-08
-1.89875e-09
7.62029e-08
-2.00298e-09
7.63212e-08
-2.13174e-09
7.6448e-08
-2.04079e-09
7.65548e-08
-1.93577e-09
7.66257e-08
-1.89521e-09
7.66512e-08
-1.88111e-09
7.66289e-08
-1.86861e-09
7.65607e-08
-1.83761e-09
7.64513e-08
-1.77355e-09
7.63083e-08
-1.66931e-09
7.61413e-08
-1.52371e-09
7.59618e-08
-1.33983e-09
7.5782e-08
-1.12392e-09
7.5614e-08
-8.84565e-10
7.54689e-08
-6.31794e-10
7.53557e-08
-3.76246e-10
7.52807e-08
-1.28231e-10
7.52469e-08
1.03105e-10
7.52541e-08
3.10142e-10
7.52988e-08
4.87654e-10
7.53747e-08
6.32651e-10
7.5474e-08
7.44507e-10
7.55879e-08
8.24704e-10
7.57079e-08
8.76439e-10
9.03978e-10
7.58266e-08
9.65641e-08
-2.659e-10
9.65388e-08
-3.10094e-10
9.65088e-08
-3.59171e-10
9.64742e-08
-4.13099e-10
9.64354e-08
-4.71657e-10
9.63931e-08
-5.34528e-10
9.63483e-08
-6.0142e-10
9.63022e-08
-6.7217e-10
9.6256e-08
-7.46858e-10
9.62106e-08
-8.25805e-10
9.61666e-08
-9.09634e-10
9.61244e-08
-9.99041e-10
9.60842e-08
-1.09485e-09
9.6046e-08
-1.19746e-09
9.60101e-08
-1.30707e-09
9.59772e-08
-1.42266e-09
9.59488e-08
-1.54291e-09
9.59277e-08
-1.66478e-09
9.59181e-08
-1.78617e-09
9.59259e-08
-1.90651e-09
9.59553e-08
-2.03234e-09
9.60087e-08
-2.18518e-09
9.60662e-08
-2.09833e-09
9.61065e-08
-1.97601e-09
9.61142e-08
-1.90295e-09
9.60812e-08
-1.84806e-09
9.60076e-08
-1.79504e-09
9.58966e-08
-1.72656e-09
9.57533e-08
-1.63027e-09
9.55858e-08
-1.50179e-09
9.54039e-08
-1.34189e-09
9.52187e-08
-1.15462e-09
9.50411e-08
-9.46242e-10
9.4881e-08
-7.24493e-10
9.47469e-08
-4.9774e-10