/*--------------------------------*- C++ -*----------------------------------*\
| =========                 |                                                 |
| \\      /  F ield         | OpenFOAM: The Open Source CFD Toolbox           |
|  \\    /   O peration     | Version:  2312                                  |
|   \\  /    A nd           | Website:  www.openfoam.com                      |
|    \\/     M anipulation  |                                                 |
\*---------------------------------------------------------------------------*/
FoamFile
{
    version     2.0;
    format      ascii;
    arch        "LSB;label=32;scalar=64";
    class       volScalarField;
    location    "0.75";
    object      p;
}
// * * * * * * * * * * * * * * * * * * * * * * * * * * * * * * * * * * * * * //

dimensions      [0 2 -2 0 0 0 0];

internalField   nonuniform List<scalar> 
4800
(
-5.89628e-12
-1.38454e-06
-2.54018e-06
-3.52194e-06
-4.36674e-06
-5.09864e-06
-5.74125e-06
-6.31132e-06
-6.81674e-06
-7.26964e-06
-7.67834e-06
-8.04474e-06
-8.36243e-06
-8.86102e-06
-1.04848e-05
1.51085e-08
-1.36688e-06
-2.52069e-06
-3.50126e-06
-4.34606e-06
-5.07896e-06
-5.72406e-06
-6.29808e-06
-6.80942e-06
-7.27202e-06
-7.69933e-06
-8.10671e-06
-8.50884e-06
-9.01213e-06
-9.86437e-06
3.12559e-08
-1.34789e-06
-2.49983e-06
-3.47939e-06
-4.324e-06
-5.05771e-06
-5.70363e-06
-6.28063e-06
-6.79668e-06
-7.2663e-06
-7.7044e-06
-8.12716e-06
-8.54386e-06
-8.96411e-06
-9.36849e-06
4.79938e-08
-1.3277e-06
-2.47721e-06
-3.45525e-06
-4.29907e-06
-5.03352e-06
-5.6786e-06
-6.25683e-06
-6.77495e-06
-7.24577e-06
-7.68199e-06
-8.09141e-06
-8.46716e-06
-8.77988e-06
-8.96241e-06
6.68056e-08
-1.30455e-06
-2.45086e-06
-3.42659e-06
-4.26872e-06
-5.00292e-06
-5.64666e-06
-6.22259e-06
-6.73876e-06
-7.20352e-06
-7.62487e-06
-8.00127e-06
-8.31479e-06
-8.52839e-06
-8.58863e-06
8.91523e-08
-1.2769e-06
-2.41906e-06
-3.39149e-06
-4.23076e-06
-4.96233e-06
-5.60396e-06
-6.17373e-06
-6.68188e-06
-7.13207e-06
-7.52663e-06
-7.85784e-06
-8.10554e-06
-8.24108e-06
-8.23706e-06
1.17194e-07
-1.24255e-06
-2.37945e-06
-3.34728e-06
-4.18205e-06
-4.90864e-06
-5.54456e-06
-6.10449e-06
-6.5975e-06
-7.02445e-06
-7.38321e-06
-7.66444e-06
-7.85264e-06
-7.93305e-06
-7.8989e-06
1.54552e-07
-1.19794e-06
-2.32828e-06
-3.28981e-06
-4.11785e-06
-4.83649e-06
-5.4622e-06
-6.00728e-06
-6.47834e-06
-6.87496e-06
-7.19342e-06
-7.42666e-06
-7.56694e-06
-7.61176e-06
-7.56606e-06
2.06688e-07
-1.1377e-06
-2.25996e-06
-3.2131e-06
-4.03159e-06
-4.73857e-06
-5.34927e-06
-5.87393e-06
-6.31744e-06
-6.67961e-06
-6.95796e-06
-7.14992e-06
-7.25521e-06
-7.27945e-06
-7.23257e-06
2.80798e-07
-1.05456e-06
-2.16697e-06
-3.10919e-06
-3.9148e-06
-4.60596e-06
-5.19684e-06
-5.69635e-06
-6.10882e-06
-6.43589e-06
-6.67814e-06
-6.83781e-06
-6.92008e-06
-6.93475e-06
-6.89301e-06
3.85106e-07
-9.39844e-07
-2.04012e-06
-2.96842e-06
-3.75751e-06
-4.42869e-06
-4.99555e-06
-5.46677e-06
-5.84766e-06
-6.14231e-06
-6.35494e-06
-6.49172e-06
-6.56101e-06
-6.5741e-06
-6.54163e-06
5.27999e-07
-7.84192e-07
-1.86931e-06
-2.78022e-06
-3.54908e-06
-4.19671e-06
-4.73678e-06
-5.17884e-06
-5.53035e-06
-5.79774e-06
-5.98839e-06
-6.11103e-06
-6.17542e-06
-6.1927e-06
-6.17236e-06
7.17751e-07
-5.77984e-07
-1.64409e-06
-2.5338e-06
-3.2791e-06
-3.90081e-06
-4.41343e-06
-4.8281e-06
-5.15432e-06
-5.40098e-06
-5.57742e-06
-5.6936e-06
-5.75944e-06
-5.78522e-06
-5.77909e-06
9.62672e-07
-3.11243e-07
-1.3537e-06
-2.21837e-06
-2.93756e-06
-3.53265e-06
-4.01931e-06
-4.41034e-06
-4.71704e-06
-4.95e-06
-5.11949e-06
-5.23573e-06
-5.30812e-06
-5.34576e-06
-5.3556e-06
1.27086e-06
2.6107e-08
-9.87324e-07
-1.82329e-06
-2.51487e-06
-3.08427e-06
-3.54828e-06
-3.92095e-06
-4.21468e-06
-4.44081e-06
-4.60988e-06
-4.7317e-06
-4.81485e-06
-4.86723e-06
-4.89481e-06
1.64912e-06
4.43127e-07
-5.35223e-07
-1.33921e-06
-2.00264e-06
-2.54853e-06
-2.99431e-06
-3.35452e-06
-3.64182e-06
-3.86756e-06
-4.04202e-06
-4.17422e-06
-4.27179e-06
-4.34161e-06
-4.38886e-06
2.10078e-06
9.45567e-07
9.06675e-09
-7.59979e-07
-1.39542e-06
-1.92055e-06
-2.35276e-06
-2.70627e-06
-2.99329e-06
-3.22464e-06
-3.40959e-06
-3.55639e-06
-3.67188e-06
-3.762e-06
-3.83124e-06
2.62312e-06
1.53269e-06
6.4549e-07
-8.5742e-08
-6.93508e-07
-1.20042e-06
-1.62314e-06
-1.97493e-06
-2.26694e-06
-2.50877e-06
-2.70865e-06
-2.87409e-06
-3.01117e-06
-3.12491e-06
-3.21918e-06
3.20561e-06
2.19458e-06
1.36448e-06
6.74083e-07
9.40212e-08
-3.96442e-07
-8.12408e-07
-1.1657e-06
-1.46612e-06
-1.72214e-06
-1.94044e-06
-2.12774e-06
-2.28928e-06
-2.42941e-06
-2.55162e-06
3.82702e-06
2.90834e-06
2.1424e-06
1.49583e-06
9.43918e-07
4.6889e-07
5.7775e-08
-2.99267e-07
-6.10221e-07
-8.81915e-07
-1.12066e-06
-1.33134e-06
-1.51858e-06
-1.68635e-06
-1.8379e-06
4.42483e-06
3.60148e-06
2.90092e-06
2.29793e-06
1.77321e-06
1.3125e-06
9.052e-07
5.43173e-07
2.19884e-07
-7.00335e-08
-3.31053e-07
-5.67383e-07
-7.82953e-07
-9.81001e-07
-1.16427e-06
4.91525e-06
4.17508e-06
3.53169e-06
2.9667e-06
2.46568e-06
2.01767e-06
1.61434e-06
1.24916e-06
9.16682e-07
6.12093e-07
3.31063e-07
7.06964e-08
-1.71306e-07
-3.97145e-07
-6.09093e-07
5.2824e-06
4.60747e-06
4.00885e-06
3.47328e-06
2.99016e-06
2.55116e-06
2.14969e-06
1.78041e-06
1.4388e-06
1.12112e-06
8.24291e-07
5.45971e-07
2.83989e-07
3.63039e-08
-1.99011e-07
5.55102e-06
4.92728e-06
4.36417e-06
3.85217e-06
3.38356e-06
2.95199e-06
2.55224e-06
2.17995e-06
1.83148e-06
1.50385e-06
1.19459e-06
9.01576e-07
6.22893e-07
3.56923e-07
1.02115e-07
5.74551e-06
5.16204e-06
4.62739e-06
4.13463e-06
3.67802e-06
3.25268e-06
2.85442e-06
2.4797e-06
2.12555e-06
1.78953e-06
1.46956e-06
1.16384e-06
8.70883e-07
5.89367e-07
3.17996e-07
5.885e-06
5.33335e-06
4.82152e-06
4.34432e-06
3.89741e-06
3.47699e-06
3.07968e-06
2.70261e-06
2.34339e-06
2e-06
1.67067e-06
1.35412e-06
1.04908e-06
7.54433e-07
4.69114e-07
5.98403e-06
5.4577e-06
4.96413e-06
4.49941e-06
4.06024e-06
3.6436e-06
3.24676e-06
2.86743e-06
2.5037e-06
2.15396e-06
1.81669e-06
1.49099e-06
1.17574e-06
8.7007e-07
5.73078e-07
6.05368e-06
5.54769e-06
5.06883e-06
4.61419e-06
4.18123e-06
3.7675e-06
3.37085e-06
2.98942e-06
2.62167e-06
2.26631e-06
1.92251e-06
1.58908e-06
1.2652e-06
9.50228e-07
6.43424e-07
6.10231e-06
5.61289e-06
5.14603e-06
4.69963e-06
4.2717e-06
3.86026e-06
3.46359e-06
3.08027e-06
2.7091e-06
2.34906e-06
1.99944e-06
1.65936e-06
1.32815e-06
1.0053e-06
6.90212e-07
6.13615e-06
5.66043e-06
5.20352e-06
4.76395e-06
4.34014e-06
3.9305e-06
3.53371e-06
3.14867e-06
2.77445e-06
2.41039e-06
2.05576e-06
1.70997e-06
1.37251e-06
1.04296e-06
7.20827e-07
6.15978e-06
5.69555e-06
5.247e-06
4.81316e-06
4.39276e-06
3.98457e-06
3.58759e-06
3.20102e-06
2.82416e-06
2.45653e-06
2.09756e-06
1.74685e-06
1.404e-06
1.0687e-06
7.4054e-07
6.17647e-06
5.72203e-06
5.2806e-06
4.85161e-06
4.43405e-06
4.02703e-06
3.62981e-06
3.24184e-06
2.86268e-06
2.4919e-06
2.12916e-06
1.77417e-06
1.42665e-06
1.08637e-06
7.53014e-07
6.18856e-06
5.74252e-06
5.3072e-06
4.88234e-06
4.46718e-06
4.06111e-06
3.66364e-06
3.27442e-06
2.89317e-06
2.51962e-06
2.15356e-06
1.79483e-06
1.44323e-06
1.09862e-06
7.60742e-07
6.1976e-06
5.75884e-06
5.3288e-06
4.90748e-06
4.49436e-06
4.08906e-06
3.69132e-06
3.30096e-06
2.91784e-06
2.54183e-06
2.17284e-06
1.81082e-06
1.45563e-06
1.10722e-06
7.65385e-07
6.20463e-06
5.77222e-06
5.34677e-06
4.92851e-06
4.51712e-06
4.11245e-06
3.71442e-06
3.32301e-06
2.9382e-06
2.56e-06
2.18841e-06
1.82346e-06
1.4651e-06
1.11334e-06
7.68036e-07
6.21032e-06
5.78347e-06
5.362e-06
4.94638e-06
4.53648e-06
4.13233e-06
3.73399e-06
3.34162e-06
2.95529e-06
2.57511e-06
2.2012e-06
1.83365e-06
1.47249e-06
1.11777e-06
7.69402e-07
6.21507e-06
5.79307e-06
5.37506e-06
4.96172e-06
4.55309e-06
4.14937e-06
3.7507e-06
3.35745e-06
2.96974e-06
2.58781e-06
2.21183e-06
1.84197e-06
1.47833e-06
1.121e-06
7.6994e-07
6.21917e-06
5.80142e-06
5.38644e-06
4.97506e-06
4.5675e-06
4.16403e-06
3.76515e-06
3.37108e-06
2.98214e-06
2.59862e-06
2.2208e-06
1.8489e-06
1.48305e-06
1.12339e-06
7.69926e-07
6.22296e-06
5.80916e-06
5.39696e-06
4.98739e-06
4.58079e-06
4.17762e-06
3.77843e-06
3.38356e-06
2.99343e-06
2.60841e-06
2.22886e-06
1.85503e-06
1.4871e-06
1.12525e-06
7.69506e-07
6.22651e-06
5.81665e-06
5.40714e-06
4.99931e-06
4.59365e-06
4.19074e-06
3.79121e-06
3.39554e-06
3.00422e-06
2.61771e-06
2.23637e-06
1.86058e-06
1.4906e-06
1.12668e-06
7.68873e-07
-1.18554e-05
-9.63191e-06
-8.26361e-06
-7.34495e-06
-6.60773e-06
-6.03866e-06
-5.59297e-06
-5.23994e-06
-4.95929e-06
-4.73522e-06
-4.55525e-06
-4.40907e-06
-4.28819e-06
-4.18586e-06
-4.09768e-06
-4.02293e-06
-3.96665e-06
-3.94333e-06
-3.97994e-06
-4.12099e-06
-4.42194e-06
-4.93709e-06
-5.61613e-06
-6.25212e-06
-6.69427e-06
-6.86845e-06
-6.73934e-06
-6.29571e-06
-5.5384e-06
-4.4753e-06
-3.12062e-06
-1.49613e-06
3.67621e-07
2.43102e-06
4.64619e-06
6.95845e-06
9.30746e-06
1.16273e-05
1.38435e-05
1.58667e-05
1.75724e-05
1.87976e-05
1.91752e-05
1.83899e-05
1.52377e-05
-1.02462e-05
-9.09745e-06
-8.06369e-06
-7.2459e-06
-6.55431e-06
-6.001e-06
-5.56107e-06
-5.21043e-06
-4.93119e-06
-4.70848e-06
-4.53007e-06
-4.38572e-06
-4.26696e-06
-4.16706e-06
-4.08166e-06
-4.01011e-06
-3.95743e-06
-3.93795e-06
-3.97815e-06
-4.12154e-06
-4.42198e-06
-4.93198e-06
-5.60139e-06
-6.22629e-06
-6.65857e-06
-6.82523e-06
-6.69108e-06
-6.24494e-06
-5.48783e-06
-4.4283e-06
-3.08168e-06
-1.47128e-06
3.70392e-07
2.40132e-06
4.57056e-06
6.81919e-06
9.08074e-06
1.12799e-05
1.3327e-05
1.51072e-05
1.64442e-05
1.70715e-05
1.64648e-05
1.38825e-05
8.36433e-06
-9.40223e-06
-8.67969e-06
-7.856e-06
-7.12926e-06
-6.48835e-06
-5.9568e-06
-5.52595e-06
-5.17929e-06
-4.90209e-06
-4.68093e-06
-4.50409e-06
-4.36154e-06
-4.24488e-06
-4.14745e-06
-4.06496e-06
-3.99684e-06
-3.94809e-06
-3.93287e-06
-3.9771e-06
-4.12312e-06
-4.42294e-06
-4.92693e-06
-5.58503e-06
-6.19687e-06
-6.6175e-06
-6.77532e-06
-6.63555e-06
-6.18707e-06
-5.4313e-06
-4.37769e-06
-3.04304e-06
-1.45268e-06
3.58397e-07
2.34506e-06
4.45242e-06
6.61626e-06
8.76269e-06
1.08055e-05
1.26393e-05
1.41242e-05
1.50606e-05
1.51434e-05
1.39039e-05
1.08306e-05
5.83348e-06
-8.86111e-06
-8.33736e-06
-7.67251e-06
-7.01859e-06
-6.42611e-06
-5.91765e-06
-5.49645e-06
-5.15339e-06
-4.87736e-06
-4.65672e-06
-4.48049e-06
-4.33894e-06
-4.22379e-06
-4.12844e-06
-4.04868e-06
-3.98397e-06
-3.9393e-06
-3.92858e-06
-3.97711e-06
-4.12589e-06
-4.4249e-06
-4.92207e-06
-5.56729e-06
-6.16406e-06
-6.57092e-06
-6.71788e-06
-6.57073e-06
-6.11867e-06
-5.36378e-06
-4.3168e-06
-2.9965e-06
-1.43082e-06
3.42006e-07
2.27298e-06
4.30242e-06
6.36003e-06
8.36403e-06
1.0218e-05
1.18045e-05
1.29714e-05
1.35191e-05
1.31817e-05
1.16404e-05
8.65997e-06
4.49252e-06
-8.43868e-06
-8.0342e-06
-7.49213e-06
-6.92125e-06
-6.3737e-06
-5.8883e-06
-5.47681e-06
-5.13634e-06
-4.86e-06
-4.63826e-06
-4.46113e-06
-4.31932e-06
-4.20472e-06
-4.11082e-06
-4.03346e-06
-3.97211e-06
-3.9317e-06
-3.9258e-06
-3.97896e-06
-4.13065e-06
-4.42853e-06
-4.91772e-06
-5.54805e-06
-6.12746e-06
-6.5185e-06
-6.65297e-06
-6.49752e-06
-6.04188e-06
-5.28911e-06
-4.25158e-06
-2.95048e-06
-1.41686e-06
3.07344e-07
2.16877e-06
4.10265e-06
6.03269e-06
7.87023e-06
9.51183e-06
1.0836e-05
1.1691e-05
1.19063e-05
1.12891e-05
9.67237e-06
7.01705e-06
3.59973e-06
-8.08177e-06
-7.75885e-06
-7.31176e-06
-6.82251e-06
-6.3278e-06
-5.86845e-06
-5.4683e-06
-5.13038e-06
-4.8527e-06
-4.62827e-06
-4.44852e-06
-4.30486e-06
-4.18952e-06
-4.09614e-06
-4.02061e-06
-3.96241e-06
-3.92634e-06
-3.92554e-06
-3.98363e-06
-4.13827e-06
-4.43451e-06
-4.91423e-06
-5.52721e-06
-6.08664e-06
-6.45958e-06
-6.58001e-06
-6.41569e-06
-5.95717e-06
-5.20882e-06
-4.18505e-06
-2.90985e-06
-1.41776e-06
2.4525e-07
2.02135e-06
3.84096e-06
5.62285e-06
7.27392e-06
8.68837e-06
9.74689e-06
1.0323e-05
1.02801e-05
9.50532e-06
7.94488e-06
5.66689e-06
2.92488e-06
-7.75573e-06
-7.49537e-06
-7.13225e-06
-6.7108e-06
-6.2739e-06
-5.85089e-06
-5.46649e-06
-5.13429e-06
-4.85617e-06
-4.62852e-06
-4.44487e-06
-4.29786e-06
-4.18038e-06
-4.08638e-06
-4.01192e-06
-3.95646e-06
-3.92466e-06
-3.92909e-06
-3.99228e-06
-4.14976e-06
-4.44362e-06
-4.91204e-06
-5.50478e-06
-6.04119e-06
-6.3935e-06
-6.49826e-06
-6.32465e-06
-5.86442e-06
-5.12366e-06
-4.11917e-06
-2.87811e-06
-1.43875e-06
1.48833e-07
1.8227e-06
3.50942e-06
5.12491e-06
6.57544e-06
7.75937e-06
8.57069e-06
8.90693e-06
8.67961e-06
7.83938e-06
6.40092e-06
4.46989e-06
2.2522e-06
-7.44036e-06
-7.22967e-06
-6.937e-06
-6.5847e-06
-6.20383e-06
-5.82167e-06
-5.46288e-06
-5.14246e-06
-4.86742e-06
-4.63801e-06
-4.45054e-06
-4.2995e-06
-4.17887e-06
-4.08329e-06
-4.00914e-06
-3.95598e-06
-3.92829e-06
-3.93798e-06
-4.0063e-06
-4.16629e-06
-4.45677e-06
-4.91166e-06
-5.48077e-06
-5.99075e-06
-6.31974e-06
-6.4072e-06
-6.22422e-06
-5.76417e-06
-5.03527e-06
-4.05708e-06
-2.86013e-06
-1.48646e-06
1.01367e-08
1.56449e-06
3.10113e-06
4.53605e-06
5.77939e-06
6.73944e-06
7.32887e-06
7.47415e-06
7.12798e-06
6.28464e-06
4.99228e-06
3.35794e-06
1.53854e-06
-7.12548e-06
-6.95518e-06
-6.72052e-06
-6.43176e-06
-6.10834e-06
-5.77278e-06
-5.44655e-06
-5.14552e-06
-4.87948e-06
-4.65218e-06
-4.46301e-06
-4.30876e-06
-4.18507e-06
-4.08762e-06
-4.01344e-06
-3.96235e-06
-3.93871e-06
-3.9537e-06
-4.02709e-06
-4.1891e-06
-4.47489e-06
-4.91359e-06
-5.45522e-06
-5.93506e-06
-6.23796e-06
-6.30678e-06
-6.11496e-06
-5.65802e-06
-4.94672e-06
-4.00364e-06
-2.86266e-06
-1.5692e-06
-1.79947e-07
1.23829e-06
2.61043e-06
3.85607e-06
4.89351e-06
5.64528e-06
6.04516e-06
6.04711e-06
5.63409e-06
4.82567e-06
3.68087e-06
2.29352e-06
7.79989e-07
-6.80463e-06
-6.66821e-06
-6.48161e-06
-6.24878e-06
-5.98101e-06
-5.69457e-06
-5.40676e-06
-5.13248e-06
-4.88258e-06
-4.66325e-06
-4.47662e-06
-4.32196e-06
-4.19685e-06
-4.09845e-06
-4.02475e-06
-3.97608e-06
-3.95679e-06
-3.97732e-06
-4.05577e-06
-4.21916e-06
-4.49875e-06
-4.91829e-06
-5.42822e-06
-5.87406e-06
-6.14833e-06
-6.19772e-06
-5.99855e-06
-5.54904e-06
-4.86286e-06
-3.96564e-06
-2.89424e-06
-1.69665e-06
-4.30974e-07
8.36428e-07
2.03378e-06
3.08768e-06
3.92792e-06
4.4933e-06
4.73817e-06
4.63832e-06
4.19626e-06
3.44307e-06
2.43623e-06
1.25235e-06
-2.30205e-08
-6.47199e-06
-6.3651e-06
-6.2191e-06
-6.03493e-06
-5.8186e-06
-5.5809e-06
-5.33487e-06
-5.0932e-06
-4.86638e-06
-4.66177e-06
-4.48348e-06
-4.33296e-06
-4.20981e-06
-4.11287e-06
-4.04137e-06
-3.99637e-06
-3.98235e-06
-4.009e-06
-4.09268e-06
-4.25687e-06
-4.52862e-06
-4.92594e-06
-5.39993e-06
-5.80809e-06
-6.05183e-06
-6.08206e-06
-5.8784e-06
-5.44234e-06
-4.79078e-06
-3.95205e-06
-2.96517e-06
-1.87933e-06
-7.52181e-07
3.52907e-07
1.37029e-06
2.23629e-06
2.89396e-06
3.29822e-06
3.42049e-06
3.25217e-06
2.80641e-06
2.11687e-06
1.23388e-06
2.17589e-07
-8.69147e-07
-6.12159e-06
-6.04145e-06
-5.93071e-06
-5.78905e-06
-5.61931e-06
-5.42824e-06
-5.2251e-06
-5.01989e-06
-4.82186e-06
-4.63846e-06
-4.47488e-06
-4.33421e-06
-4.21782e-06
-4.12619e-06
-4.05991e-06
-4.02089e-06
-4.01385e-06
-4.04776e-06
-4.13711e-06
-4.30168e-06
-4.56413e-06
-4.93646e-06
-5.37083e-06
-5.73835e-06
-5.95091e-06
-5.96382e-06
-5.76028e-06
-5.34562e-06
-4.74008e-06
-3.97394e-06
-3.08701e-06
-2.12787e-06
-1.15146e-06
-2.15736e-07
6.22085e-07
1.30958e-06
1.80315e-06
2.07176e-06
2.09972e-06
1.88802e-06
1.45405e-06
8.29165e-07
5.48224e-08
-8.2285e-07
-1.75752e-06
-5.74747e-06
-5.69232e-06
-5.61313e-06
-5.50915e-06
-5.38152e-06
-5.23422e-06
-5.07353e-06
-4.90692e-06
-4.74193e-06
-4.58535e-06
-4.44271e-06
-4.31803e-06
-4.21403e-06
-4.13265e-06
-4.07569e-06
-4.04601e-06
-4.04846e-06
-4.09145e-06
-4.18726e-06
-4.35206e-06
-4.60412e-06
-4.94943e-06
-5.34199e-06
-5.66751e-06
-5.85022e-06
-5.84986e-06
-5.65296e-06
-5.26946e-06
-4.72285e-06
-4.04401e-06
-3.27165e-06
-2.45163e-06
-1.63403e-06
-8.69405e-07
-2.05226e-07
3.175e-07
6.67196e-07
8.23968e-07
7.807e-07
5.43301e-07
1.29425e-07
-4.34114e-07
-1.11454e-06
-1.877e-06
-2.68728e-06
-5.34358e-06
-5.31246e-06
-5.26236e-06
-5.19253e-06
-5.10328e-06
-4.99687e-06
-4.87742e-06
-4.75025e-06
-4.6212e-06
-4.49605e-06
-4.37997e-06
-4.27739e-06
-4.19182e-06
-4.12626e-06
-4.08353e-06
-4.06731e-06
-4.08237e-06
-4.13692e-06
-4.24048e-06
-4.40586e-06
-4.64699e-06
-4.96458e-06
-5.3151e-06
-5.60044e-06
-5.75765e-06
-5.7505e-06
-5.56824e-06
-5.22697e-06
-4.7528e-06
-4.17515e-06
-3.5295e-06
-2.85697e-06
-2.20096e-06
-1.60352e-06
-1.10217e-06
-7.27523e-07
-5.01421e-07
-4.35583e-07
-5.32181e-07
-7.83587e-07
-1.17404e-06
-1.68192e-06
-2.28207e-06
-2.94854e-06
-3.65605e-06
-4.90324e-06
-4.89597e-06
-4.87362e-06
-4.83567e-06
-4.7821e-06
-4.71418e-06
-4.63456e-06
-4.54698e-06
-4.45578e-06
-4.36561e-06
-4.28097e-06
-4.20618e-06
-4.14504e-06
-4.1012e-06
-4.07808e-06
-4.07996e-06
-4.11147e-06
-4.18014e-06
-4.29348e-06
-4.46102e-06
-4.69141e-06
-4.98293e-06
-5.29285e-06
-5.54454e-06
-5.68486e-06
-5.67838e-06
-5.51982e-06
-5.23298e-06
-4.84401e-06
-4.37866e-06
-3.8675e-06
-3.34534e-06
-2.84791e-06
-2.40846e-06
-2.05539e-06
-1.81059e-06
-1.68858e-06
-1.6963e-06
-1.83299e-06
-2.09125e-06
-2.45822e-06
-2.91726e-06
-3.44962e-06
-4.03616e-06
-4.65833e-06
-4.41913e-06
-4.43636e-06
-4.44153e-06
-4.43441e-06
-4.41495e-06
-4.38394e-06
-4.34311e-06
-4.29508e-06
-4.24301e-06
-4.19053e-06
-4.14138e-06
-4.09942e-06
-4.06839e-06
-4.05203e-06
-4.05419e-06
-4.07896e-06
-4.13129e-06
-4.21674e-06
-4.3425e-06
-4.51505e-06
-4.73765e-06
-5.00696e-06
-5.28266e-06
-5.51139e-06
-5.6433e-06
-5.64379e-06
-5.52284e-06
-5.30419e-06
-5.01063e-06
-4.66375e-06
-4.28872e-06
-3.91342e-06
-3.5657e-06
-3.27068e-06
-3.04903e-06
-2.91591e-06
-2.88057e-06
-2.94718e-06
-3.11419e-06
-3.37533e-06
-3.72073e-06
-4.1381e-06
-4.61381e-06
-5.13403e-06
-5.68523e-06
-3.88526e-06
-3.92836e-06
-3.96174e-06
-3.98544e-06
-3.99959e-06
-4.00479e-06
-4.00228e-06
-3.99389e-06
-3.98197e-06
-3.96928e-06
-3.95887e-06
-3.95398e-06
-3.95806e-06
-3.97453e-06
-4.00729e-06
-4.05998e-06
-4.13736e-06
-4.24359e-06
-4.38494e-06
-4.5661e-06
-4.7869e-06
-5.04169e-06
-5.29685e-06
-5.50677e-06
-5.63463e-06
-5.66061e-06
-5.59453e-06
-5.45601e-06
-5.26342e-06
-5.03511e-06
-4.79123e-06
-4.55307e-06
-4.3412e-06
-4.17383e-06
-4.06556e-06
-4.02659e-06
-4.0628e-06
-4.17689e-06
-4.36741e-06
-4.62961e-06
-4.95639e-06
-5.33905e-06
-5.76801e-06
-6.23346e-06
-6.72566e-06
-3.29962e-06
-3.37071e-06
-3.43378e-06
-3.48919e-06
-3.53734e-06
-3.57885e-06
-3.6147e-06
-3.64628e-06
-3.67536e-06
-3.70406e-06
-3.73481e-06
-3.77029e-06
-3.81341e-06
-3.86727e-06
-3.93522e-06
-4.02072e-06
-4.12758e-06
-4.2597e-06
-4.42113e-06
-4.61481e-06
-4.83971e-06
-5.09062e-06
-5.33685e-06
-5.53964e-06
-5.67793e-06
-5.74515e-06
-5.74662e-06
-5.69471e-06
-5.60366e-06
-5.48882e-06
-5.36601e-06
-5.25084e-06
-5.15782e-06
-5.09957e-06
-5.08617e-06
-5.12472e-06
-5.21978e-06
-5.37253e-06
-5.58183e-06
-5.84458e-06
-6.15606e-06
-6.51047e-06
-6.90132e-06
-7.32185e-06
-7.76518e-06
-2.66152e-06
-2.7635e-06
-2.85879e-06
-2.94792e-06
-3.03156e-06
-3.11047e-06
-3.18556e-06
-3.25796e-06
-3.32907e-06
-3.40055e-06
-3.47433e-06
-3.5526e-06
-3.63775e-06
-3.7324e-06
-3.83934e-06
-3.96156e-06
-4.10211e-06
-4.26409e-06
-4.45011e-06
-4.66181e-06
-4.89862e-06
-5.15617e-06
-5.40777e-06
-5.62189e-06
-5.7888e-06
-5.90771e-06
-5.98111e-06
-6.01589e-06
-6.02232e-06
-6.01224e-06
-5.99755e-06
-5.98934e-06
-5.99747e-06
-6.03029e-06
-6.09466e-06
-6.19617e-06
-6.33797e-06
-6.52109e-06
-6.74499e-06
-7.00786e-06
-7.30683e-06
-7.63826e-06
-7.99797e-06
-8.38147e-06
-8.78407e-06
-1.97893e-06
-2.11374e-06
-2.24328e-06
-2.36804e-06
-2.4888e-06
-2.60646e-06
-2.72192e-06
-2.83619e-06
-2.9504e-06
-3.06587e-06
-3.18416e-06
-3.307e-06
-3.43634e-06
-3.5743e-06
-3.72312e-06
-3.88517e-06
-4.06284e-06
-4.25842e-06
-4.47377e-06
-4.7101e-06
-4.96738e-06
-5.2431e-06
-5.5154e-06
-5.759e-06
-5.9683e-06
-6.14406e-06
-6.28801e-06
-6.40443e-06
-6.50013e-06
-6.58332e-06
-6.66232e-06
-6.74486e-06
-6.83769e-06
-6.94648e-06
-7.07542e-06
-7.22732e-06
-7.40555e-06
-7.61194e-06
-7.8468e-06
-8.10933e-06
-8.39795e-06
-8.71058e-06
-9.04473e-06
-9.39762e-06
-9.76618e-06
-1.33806e-06
-1.50648e-06
-1.67054e-06
-1.8308e-06
-1.98811e-06
-2.14339e-06
-2.29753e-06
-2.45144e-06
-2.60609e-06
-2.76258e-06
-2.92221e-06
-3.0864e-06
-3.25674e-06
-3.43494e-06
-3.62281e-06
-3.82222e-06
-4.03508e-06
-4.26318e-06
-4.50814e-06
-4.7712e-06
-5.05302e-06
-5.35326e-06
-5.6542e-06
-5.93331e-06
-6.18555e-06
-6.4122e-06
-6.61505e-06
-6.79726e-06
-6.9634e-06
-7.11894e-06
-7.26951e-06
-7.42031e-06
-7.57585e-06
-7.7399e-06
-7.91584e-06
-8.10677e-06
-8.31458e-06
-8.54044e-06
-8.78503e-06
-9.04842e-06
-9.33014e-06
-9.62918e-06
-9.9442e-06
-1.02736e-05
-1.06155e-05
-8.12099e-07
-1.01037e-06
-1.20503e-06
-1.39661e-06
-1.58593e-06
-1.77382e-06
-1.96108e-06
-2.14853e-06
-2.33705e-06
-2.52763e-06
-2.72135e-06
-2.91945e-06
-3.12326e-06
-3.33421e-06
-3.55382e-06
-3.78364e-06
-4.0253e-06
-4.28037e-06
-4.5504e-06
-4.83677e-06
-5.14076e-06
-5.46353e-06
-5.78952e-06
-6.09741e-06
-6.38243e-06
-6.64618e-06
-6.89057e-06
-7.11824e-06
-7.33252e-06
-7.53723e-06
-7.73628e-06
-7.93334e-06
-8.13171e-06
-8.33441e-06
-8.54419e-06
-8.76326e-06
-8.99301e-06
-9.2344e-06
-9.48812e-06
-9.75455e-06
-1.00338e-05
-1.03255e-05
-1.0629e-05
-1.09434e-05
-1.12678e-05
-4.26162e-07
-6.48965e-07
-8.68572e-07
-1.08557e-06
-1.3007e-06
-1.51467e-06
-1.72819e-06
-1.94198e-06
-2.15686e-06
-2.37368e-06
-2.59344e-06
-2.81718e-06
-3.04606e-06
-3.28133e-06
-3.5243e-06
-3.77632e-06
-4.03885e-06
-4.31333e-06
-4.60127e-06
-4.9042e-06
-5.22374e-06
-5.56159e-06
-5.90354e-06
-6.22954e-06
-6.53527e-06
-6.82254e-06
-7.09333e-06
-7.34993e-06
-7.59495e-06
-7.83123e-06
-8.06162e-06
-8.28884e-06
-8.51542e-06
-8.74369e-06
-8.97569e-06
-9.21306e-06
-9.45713e-06
-9.70887e-06
-9.96901e-06
-1.02381e-05
-1.05163e-05
-1.08037e-05
-1.11002e-05
-1.14051e-05
-1.1718e-05
-1.45225e-07
-3.8858e-07
-6.29005e-07
-8.67012e-07
-1.10324e-06
-1.33831e-06
-1.57285e-06
-1.80752e-06
-2.04303e-06
-2.28016e-06
-2.51978e-06
-2.76284e-06
-3.01035e-06
-3.26341e-06
-3.52319e-06
-3.79089e-06
-4.06784e-06
-4.35538e-06
-4.65499e-06
-4.96821e-06
-5.29675e-06
-5.64238e-06
-5.99206e-06
-6.32741e-06
-6.64468e-06
-6.94582e-06
-7.2327e-06
-7.5073e-06
-7.77174e-06
-8.02823e-06
-8.27894e-06
-8.52598e-06
-8.77132e-06
-9.01678e-06
-9.26396e-06
-9.51431e-06
-9.76891e-06
-1.00287e-05
-1.02944e-05
-1.05665e-05
-1.08456e-05
-1.11316e-05
-1.14247e-05
-1.17246e-05
-1.2031e-05
5.35529e-08
-2.07053e-07
-4.64758e-07
-7.20012e-07
-9.73373e-07
-1.2254e-06
-1.47665e-06
-1.7277e-06
-1.97919e-06
-2.23184e-06
-2.48642e-06
-2.74378e-06
-3.00484e-06
-3.27056e-06
-3.54199e-06
-3.82023e-06
-4.10648e-06
-4.40199e-06
-4.70815e-06
-5.02644e-06
-5.3585e-06
-5.70603e-06
-6.05723e-06
-6.39561e-06
-6.71805e-06
-7.02639e-06
-7.32232e-06
-7.60755e-06
-7.88385e-06
-8.15301e-06
-8.41678e-06
-8.67683e-06
-8.93475e-06
-9.19199e-06
-9.44989e-06
-9.70969e-06
-9.97229e-06
-1.02385e-05
-1.05091e-05
-1.07847e-05
-1.10656e-05
-1.13521e-05
-1.16443e-05
-1.19421e-05
-1.22456e-05
1.90363e-07
-8.45251e-08
-3.56398e-07
-6.25669e-07
-8.92833e-07
-1.15838e-06
-1.42279e-06
-1.68659e-06
-1.95037e-06
-2.21476e-06
-2.48048e-06
-2.74828e-06
-3.01899e-06
-3.29348e-06
-3.57269e-06
-3.85761e-06
-4.14934e-06
-4.44902e-06
-4.75796e-06
-5.07749e-06
-5.40918e-06
-5.75457e-06
-6.10312e-06
-6.44037e-06
-6.76368e-06
-7.07469e-06
-7.3749e-06
-7.66579e-06
-7.94889e-06
-8.2257e-06
-8.49768e-06
-8.76618e-06
-9.0325e-06
-9.29785e-06
-9.56335e-06
-9.83011e-06
-1.00989e-05
-1.03704e-05
-1.06454e-05
-1.09243e-05
-1.12077e-05
-1.14958e-05
-1.17888e-05
-1.20867e-05
-1.23897e-05
2.82405e-07
-4.29884e-09
-2.878e-07
-5.68478e-07
-8.46769e-07
-1.12309e-06
-1.39788e-06
-1.6716e-06
-1.94479e-06
-2.21805e-06
-2.49201e-06
-2.76736e-06
-3.04485e-06
-3.32526e-06
-3.60944e-06
-3.89829e-06
-4.19281e-06
-4.49403e-06
-4.80315e-06
-5.12137e-06
-5.45015e-06
-5.79084e-06
-6.13416e-06
-6.46764e-06
-6.78902e-06
-7.09971e-06
-7.40103e-06
-7.69429e-06
-7.98085e-06
-8.26197e-06
-8.53889e-06
-8.81275e-06
-9.08463e-06
-9.35555e-06
-9.62648e-06
-9.8984e-06
-1.0172e-05
-1.04479e-05
-1.07267e-05
-1.1009e-05
-1.12953e-05
-1.15857e-05
-1.18806e-05
-1.218e-05
-1.24841e-05
3.42767e-07
4.62381e-08
-2.46851e-07
-5.3685e-07
-8.24136e-07
-1.10907e-06
-1.39205e-06
-1.67351e-06
-1.95395e-06
-2.23389e-06
-2.51394e-06
-2.79472e-06
-3.0769e-06
-3.36119e-06
-3.64837e-06
-3.93924e-06
-4.23472e-06
-4.53572e-06
-4.84335e-06
-5.15866e-06
-5.48299e-06
-5.81753e-06
-6.15419e-06
-6.48235e-06
-6.80011e-06
-7.10861e-06
-7.40903e-06
-7.70257e-06
-7.99041e-06
-8.27366e-06
-8.55335e-06
-8.83047e-06
-9.10596e-06
-9.38071e-06
-9.65554e-06
-9.93134e-06
-1.02087e-05
-1.04882e-05
-1.07705e-05
-1.10561e-05
-1.13453e-05
-1.16385e-05
-1.1936e-05
-1.22379e-05
-1.25442e-05
3.81157e-07
7.64221e-08
-2.24611e-07
-5.22265e-07
-8.16865e-07
-1.10873e-06
-1.39823e-06
-1.68576e-06
-1.97178e-06
-2.2568e-06
-2.54135e-06
-2.82601e-06
-3.11138e-06
-3.39813e-06
-3.68694e-06
-3.97856e-06
-4.2738e-06
-4.57349e-06
-4.87862e-06
-5.19012e-06
-5.50924e-06
-5.83693e-06
-6.1663e-06
-6.48842e-06
-6.80163e-06
-7.10688e-06
-7.40523e-06
-7.69777e-06
-7.98554e-06
-8.26949e-06
-8.55053e-06
-8.82953e-06
-9.1073e-06
-9.38467e-06
-9.66233e-06
-9.9411e-06
-1.02215e-05
-1.05041e-05
-1.07894e-05
-1.1078e-05
-1.13703e-05
-1.16665e-05
-1.1967e-05
-1.22718e-05
-1.25812e-05
4.04667e-07
9.30296e-08
-2.14638e-07
-5.1863e-07
-8.19225e-07
-1.11672e-06
-1.41144e-06
-1.70378e-06
-1.99416e-06
-2.28305e-06
-2.57094e-06
-2.85837e-06
-3.1459e-06
-3.43411e-06
-3.72366e-06
-4.0152e-06
-4.30948e-06
-4.60723e-06
-4.90934e-06
-5.21663e-06
-5.53024e-06
-5.85096e-06
-6.17295e-06
-6.48882e-06
-6.7971e-06
-7.09859e-06
-7.39424e-06
-7.68507e-06
-7.97196e-06
-8.25575e-06
-8.53725e-06
-8.81721e-06
-9.09635e-06
-9.37537e-06
-9.65525e-06
-9.93632e-06
-1.02192e-05
-1.05043e-05
-1.07925e-05
-1.10839e-05
-1.13791e-05
-1.16784e-05
-1.1982e-05
-1.229e-05
-1.26028e-05
4.1832e-07
1.00828e-07
-2.12431e-07
-5.21717e-07
-8.27275e-07
-1.12938e-06
-1.42834e-06
-1.72453e-06
-2.01835e-06
-2.31022e-06
-2.60062e-06
-2.89004e-06
-3.17899e-06
-3.46803e-06
-3.75774e-06
-4.04871e-06
-4.34162e-06
-4.63712e-06
-4.93603e-06
-5.23903e-06
-5.54719e-06
-5.86114e-06
-6.176e-06
-6.48576e-06
-6.78908e-06
-7.08665e-06
-7.37937e-06
-7.66811e-06
-7.95368e-06
-8.23681e-06
-8.51822e-06
-8.79858e-06
-9.07854e-06
-9.35879e-06
-9.64016e-06
-9.92304e-06
-1.02079e-05
-1.04953e-05
-1.07859e-05
-1.108e-05
-1.13779e-05
-1.16802e-05
-1.19869e-05
-1.22982e-05
-1.26145e-05
4.25584e-07
1.03083e-07
-2.14928e-07
-5.28678e-07
-8.38387e-07
-1.14431e-06
-1.44676e-06
-1.74607e-06
-2.04263e-06
-2.33685e-06
-2.62916e-06
-2.92002e-06
-3.20991e-06
-3.49935e-06
-3.78886e-06
-4.07899e-06
-4.37036e-06
-4.66353e-06
-4.95924e-06
-5.2581e-06
-5.56108e-06
-5.86864e-06
-6.17683e-06
-6.48078e-06
-6.77932e-06
-7.07306e-06
-7.36282e-06
-7.64937e-06
-7.93342e-06
-8.21561e-06
-8.49661e-06
-8.77702e-06
-9.05743e-06
-9.33849e-06
-9.62098e-06
-9.90533e-06
-1.01919e-05
-1.04812e-05
-1.07739e-05
-1.10704e-05
-1.13709e-05
-1.16759e-05
-1.19856e-05
-1.23002e-05
-1.26199e-05
4.28798e-07
1.01979e-07
-2.20104e-07
-5.37653e-07
-8.50871e-07
-1.16e-06
-1.46535e-06
-1.76723e-06
-2.06602e-06
-2.3621e-06
-2.65589e-06
-2.94781e-06
-3.23832e-06
-3.5279e-06
-3.81702e-06
-4.1062e-06
-4.39597e-06
-4.68687e-06
-4.97954e-06
-5.27451e-06
-5.57265e-06
-5.87433e-06
-6.17637e-06
-6.47494e-06
-6.76902e-06
-7.05914e-06
-7.34605e-06
-7.63042e-06
-7.91288e-06
-8.19403e-06
-8.47445e-06
-8.75472e-06
-9.03533e-06
-9.3169e-06
-9.60027e-06
-9.88584e-06
-1.01738e-05
-1.04648e-05
-1.07594e-05
-1.10579e-05
-1.13608e-05
-1.16684e-05
-1.19809e-05
-1.22985e-05
-1.26214e-05
4.29508e-07
9.89375e-08
-2.26662e-07
-5.47472e-07
-8.63685e-07
-1.17554e-06
-1.48333e-06
-1.78736e-06
-2.08799e-06
-2.38558e-06
-2.68053e-06
-2.97326e-06
-3.26418e-06
-3.55373e-06
-3.84237e-06
-4.13056e-06
-4.41879e-06
-4.70754e-06
-4.99738e-06
-5.28876e-06
-5.58249e-06
-5.87882e-06
-6.17527e-06
-6.46892e-06
-6.75889e-06
-7.04567e-06
-7.32991e-06
-7.61221e-06
-7.89312e-06
-8.17319e-06
-8.45297e-06
-8.73298e-06
-9.01367e-06
-9.29546e-06
-9.57964e-06
-9.86617e-06
-1.01552e-05
-1.04477e-05
-1.07439e-05
-1.10444e-05
-1.13494e-05
-1.16593e-05
-1.19743e-05
-1.22947e-05
-1.26206e-05
4.28709e-07
9.48622e-08
-2.33794e-07
-5.57427e-07
-8.76222e-07
-1.19041e-06
-1.50028e-06
-1.80613e-06
-2.10829e-06
-2.40713e-06
-2.70303e-06
-2.99637e-06
-3.28756e-06
-3.57701e-06
-3.86514e-06
-4.15236e-06
-4.43914e-06
-4.7259e-06
-5.01314e-06
-5.30127e-06
-5.591e-06
-5.8825e-06
-6.1739e-06
-6.4631e-06
-6.74934e-06
-7.03307e-06
-7.31486e-06
-7.59522e-06
-7.87467e-06
-8.1537e-06
-8.43282e-06
-8.71253e-06
-8.99307e-06
-9.27513e-06
-9.56001e-06
-9.84723e-06
-1.01373e-05
-1.04309e-05
-1.07286e-05
-1.10307e-05
-1.13376e-05
-1.16496e-05
-1.19669e-05
-1.22898e-05
-1.26184e-05
4.27041e-07
9.03223e-08
-2.41004e-07
-5.67093e-07
-8.88126e-07
-1.20433e-06
-1.51598e-06
-1.82338e-06
-2.12685e-06
-2.42674e-06
-2.72341e-06
-3.01724e-06
-3.30861e-06
-3.5979e-06
-3.88552e-06
-4.17184e-06
-4.45728e-06
-4.74222e-06
-5.02712e-06
-5.31232e-06
-5.59846e-06
-5.88562e-06
-6.17251e-06
-6.4577e-06
-6.74059e-06
-7.02156e-06
-7.30112e-06
-7.57972e-06
-7.85782e-06
-8.13586e-06
-8.41432e-06
-8.69369e-06
-8.97397e-06
-9.25645e-06
-9.54175e-06
-9.82951e-06
-1.01204e-05
-1.04151e-05
-1.0714e-05
-1.10175e-05
-1.13261e-05
-1.16399e-05
-1.19593e-05
-1.22845e-05
-1.26156e-05
4.24911e-07
8.5676e-08
-2.47981e-07
-5.76208e-07
-8.99184e-07
-1.21713e-06
-1.53032e-06
-1.83905e-06
-2.14363e-06
-2.4444e-06
-2.74172e-06
-3.03594e-06
-3.32743e-06
-3.61655e-06
-3.90368e-06
-4.18916e-06
-4.47339e-06
-4.7567e-06
-5.0395e-06
-5.32209e-06
-5.60503e-06
-5.88834e-06
-6.17119e-06
-6.45282e-06
-6.73273e-06
-7.01124e-06
-7.2888e-06
-7.56581e-06
-7.84267e-06
-8.11981e-06
-8.39765e-06
-8.67662e-06
-8.95679e-06
-9.23952e-06
-9.52507e-06
-9.81332e-06
-1.01049e-05
-1.04005e-05
-1.07005e-05
-1.10053e-05
-1.13152e-05
-1.16307e-05
-1.19519e-05
-1.2279e-05
-1.26123e-05
4.22525e-07
8.10638e-08
-2.54644e-07
-5.84746e-07
-9.09417e-07
-1.22888e-06
-1.54341e-06
-1.85327e-06
-2.1588e-06
-2.46033e-06
-2.75818e-06
-3.05272e-06
-3.34429e-06
-3.63324e-06
-3.91991e-06
-4.20464e-06
-4.48777e-06
-4.76961e-06
-5.05055e-06
-5.33081e-06
-5.61091e-06
-5.89078e-06
-6.17e-06
-6.44842e-06
-6.72568e-06
-7.002e-06
-7.27777e-06
-7.55335e-06
-7.82911e-06
-8.10542e-06
-8.38271e-06
-8.66131e-06
-8.94142e-06