/*--------------------------------*- C++ -*----------------------------------*\
| =========                 |                                                 |
| \\      /  F ield         | OpenFOAM: The Open Source CFD Toolbox           |
|  \\    /   O peration     | Version:  2312                                  |
|   \\  /    A nd           | Website:  www.openfoam.com                      |
|    \\/     M anipulation  |                                                 |
\*---------------------------------------------------------------------------*/
FoamFile
{
    version     2.0;
    format      ascii;
    arch        "LSB;label=32;scalar=64";
    class       volScalarField;
    location    "108.5";
    object      p;
}
// * * * * * * * * * * * * * * * * * * * * * * * * * * * * * * * * * * * * * //

dimensions      [0 2 -2 0 0 0 0];

internalField   nonuniform List<scalar> 
4800
(
-6.17016e-13
-1.66251e-06
-3.10138e-06
-4.35888e-06
-5.46327e-06
-6.4366e-06
-7.29548e-06
-8.06107e-06
-8.74577e-06
-9.35827e-06
-9.91012e-06
-1.04062e-05
-1.08397e-05
-1.1449e-05
-1.32409e-05
1.59591e-08
-1.64201e-06
-3.0772e-06
-4.33193e-06
-5.43511e-06
-6.4088e-06
-7.26979e-06
-8.03984e-06
-8.73139e-06
-9.35489e-06
-9.92736e-06
-1.0468e-05
-1.09933e-05
-1.16132e-05
-1.25893e-05
3.35272e-08
-1.61951e-06
-3.05089e-06
-4.30303e-06
-5.40475e-06
-6.3788e-06
-7.24039e-06
-8.01268e-06
-8.70952e-06
-9.34113e-06
-9.92552e-06
-1.04828e-05
-1.10238e-05
-1.15563e-05
-1.20563e-05
5.25086e-08
-1.59481e-06
-3.02171e-06
-4.27056e-06
-5.37012e-06
-6.34338e-06
-7.20555e-06
-7.97714e-06
-8.67566e-06
-9.30901e-06
-9.89113e-06
-1.04332e-05
-1.09285e-05
-1.13435e-05
-1.16035e-05
7.46156e-08
-1.56581e-06
-2.9871e-06
-4.23158e-06
-5.32788e-06
-6.29863e-06
-7.16027e-06
-7.92888e-06
-8.62295e-06
-9.24957e-06
-9.8148e-06
-1.03194e-05
-1.07446e-05
-1.10495e-05
-1.11754e-05
1.0149e-07
-1.53065e-06
-2.94497e-06
-4.18368e-06
-5.27513e-06
-6.24134e-06
-7.09883e-06
-7.86166e-06
-8.54456e-06
-9.15367e-06
-9.68822e-06
-1.01412e-05
-1.04916e-05
-1.07081e-05
-1.07613e-05
1.35316e-07
-1.48703e-06
-2.8927e-06
-4.12377e-06
-5.2081e-06
-6.16688e-06
-7.01575e-06
-7.76726e-06
-8.43187e-06
-9.01281e-06
-9.50577e-06
-9.90114e-06
-1.01828e-05
-1.03354e-05
-1.03522e-05
1.79365e-07
-1.43151e-06
-2.82645e-06
-4.04739e-06
-5.12149e-06
-6.06886e-06
-6.90388e-06
-7.63706e-06
-8.27536e-06
-8.81961e-06
-9.26503e-06
-9.6042e-06
-9.82947e-06
-9.939e-06
-9.93922e-06
2.38051e-07
-1.35951e-06
-2.741e-06
-3.94857e-06
-5.00839e-06
-5.9393e-06
-6.75428e-06
-7.46185e-06
-8.06675e-06
-8.56903e-06
-8.96616e-06
-9.25574e-06
-9.43834e-06
-9.52107e-06
-9.51608e-06
3.16477e-07
-1.26554e-06
-2.63012e-06
-3.82017e-06
-4.86067e-06
-5.7692e-06
-6.55753e-06
-7.23285e-06
-7.79925e-06
-8.25828e-06
-8.61076e-06
-8.85999e-06
-9.01263e-06
-9.08054e-06
-9.07731e-06
4.18894e-07
-1.14383e-06
-2.48708e-06
-3.65454e-06
-4.66985e-06
-5.54972e-06
-6.30518e-06
-6.94326e-06
-7.46896e-06
-7.8867e-06
-8.2011e-06
-8.41988e-06
-8.55337e-06
-8.61513e-06
-8.61827e-06
5.46207e-07
-9.89508e-07
-2.30591e-06
-3.44475e-06
-4.42845e-06
-5.27361e-06
-5.99138e-06
-6.58967e-06
-7.07547e-06
-7.45616e-06
-7.74027e-06
-7.93794e-06
-8.06102e-06
-8.12299e-06
-8.13568e-06
7.00303e-07
-8.00892e-07
-2.08418e-06
-3.18697e-06
-4.13206e-06
-4.93704e-06
-5.61411e-06
-6.17272e-06
-6.62197e-06
-6.97182e-06
-7.23304e-06
-7.41743e-06
-7.53688e-06
-7.60376e-06
-7.62834e-06
8.80666e-07
-5.80659e-07
-1.82189e-06
-2.88007e-06
-3.78012e-06
-4.54071e-06
-5.17579e-06
-5.6968e-06
-6.11456e-06
-6.44035e-06
-6.6859e-06
-6.86331e-06
-6.98403e-06
-7.05908e-06
-7.09726e-06
1.07799e-06
-3.30131e-07
-1.52042e-06
-2.52826e-06
-3.37807e-06
-4.0911e-06
-4.68379e-06
-5.16957e-06
-5.56074e-06
-5.86902e-06
-6.10555e-06
-6.28144e-06
-6.40721e-06
-6.49276e-06
-6.54574e-06
1.28074e-06
-5.67941e-08
-1.18592e-06
-2.13878e-06
-2.93538e-06
-3.60074e-06
-4.15264e-06
-4.60504e-06
-4.97209e-06
-5.26682e-06
-5.49949e-06
-5.6786e-06
-5.8127e-06
-5.91056e-06
-5.97919e-06
1.47498e-06
2.20896e-07
-8.30709e-07
-1.7201e-06
-2.46327e-06
-3.08588e-06
-3.6029e-06
-4.0254e-06
-4.36822e-06
-4.64872e-06
-4.87885e-06
-5.06392e-06
-5.20892e-06
-5.32064e-06
-5.40554e-06
1.64419e-06
4.84433e-07
-4.81084e-07
-1.29172e-06
-1.97944e-06
-2.5653e-06
-3.05206e-06
-3.44623e-06
-3.76671e-06
-4.03388e-06
-4.26052e-06
-4.45114e-06
-4.60789e-06
-4.73451e-06
-4.83613e-06
1.76693e-06
7.13052e-07
-1.63229e-07
-8.96792e-07
-1.51965e-06
-2.05201e-06
-2.5044e-06
-2.87805e-06
-3.1871e-06
-3.44733e-06
-3.67006e-06
-3.86317e-06
-4.02896e-06
-4.16888e-06
-4.28614e-06
1.82116e-06
8.85145e-07
1.00581e-07
-5.61531e-07
-1.12064e-06
-1.60113e-06
-2.01017e-06
-2.35447e-06
-2.64862e-06
-2.90401e-06
-3.12714e-06
-3.32275e-06
-3.49431e-06
-3.64414e-06
-3.77452e-06
1.8046e-06
9.80677e-07
2.84599e-07
-3.04331e-07
-8.05306e-07
-1.23544e-06
-1.60594e-06
-1.92728e-06
-2.2082e-06
-2.45464e-06
-2.67216e-06
-2.86547e-06
-3.03796e-06
-3.19252e-06
-3.33166e-06
1.73742e-06
1.00995e-06
3.90889e-07
-1.38606e-07
-5.93281e-07
-9.86264e-07
-1.32911e-06
-1.63114e-06
-1.8978e-06
-2.13443e-06
-2.34776e-06
-2.53897e-06
-2.70893e-06
-2.86267e-06
-3.00474e-06
1.67658e-06
1.02467e-06
4.64724e-07
-1.87244e-08
-4.37848e-07
-8.03826e-07
-1.12633e-06
-1.41265e-06
-1.66823e-06
-1.89751e-06
-2.10403e-06
-2.29094e-06
-2.46074e-06
-2.61554e-06
-2.76058e-06
1.63475e-06
1.04088e-06
5.26e-07
7.7256e-08
-3.15754e-07
-6.62272e-07
-9.70061e-07
-1.24533e-06
-1.49295e-06
-1.71674e-06
-1.92018e-06
-2.10614e-06
-2.27665e-06
-2.43393e-06
-2.58004e-06
1.61599e-06
1.06686e-06
5.86168e-07
1.63145e-07
-2.10852e-07
-5.43466e-07
-8.41191e-07
-1.10937e-06
-1.35231e-06
-1.57348e-06
-1.77579e-06
-1.96158e-06
-2.13297e-06
-2.29181e-06
-2.43985e-06
1.61882e-06
1.10418e-06
6.49257e-07
2.45154e-07
-1.15267e-07
-4.38452e-07
-7.29919e-07
-9.94239e-07
-1.23514e-06
-1.45564e-06
-1.65832e-06
-1.84538e-06
-2.01881e-06
-2.18029e-06
-2.3314e-06
1.63754e-06
1.14944e-06
7.13848e-07
3.23525e-07
-2.74893e-08
-3.44672e-07
-6.32712e-07
-8.9551e-07
-1.1363e-06
-1.3578e-06
-1.56235e-06
-1.75197e-06
-1.92847e-06
-2.09337e-06
-2.2482e-06
1.66518e-06
1.19766e-06
7.76675e-07
3.96395e-07
5.1796e-08
-2.61788e-07
-5.48352e-07
-8.1125e-07
-1.05332e-06
-1.277e-06
-1.48439e-06
-1.67733e-06
-1.85749e-06
-2.02632e-06
-2.18527e-06
1.69589e-06
1.24461e-06
8.34892e-07
4.62056e-07
1.21834e-07
-1.8975e-07
-4.76106e-07
-7.40123e-07
-9.84294e-07
-1.21077e-06
-1.42148e-06
-1.6181e-06
-1.80219e-06
-1.97513e-06
-2.13832e-06
1.72571e-06
1.28756e-06
8.86769e-07
5.19598e-07
1.82407e-07
-1.28178e-07
-4.15057e-07
-6.80719e-07
-9.2735e-07
-1.15687e-06
-1.37103e-06
-1.57139e-06
-1.7594e-06
-1.93637e-06
-2.10366e-06
1.75242e-06
1.32514e-06
9.3163e-07
5.68914e-07
2.33898e-07
-7.62601e-08
-3.64014e-07
-6.3151e-07
-8.80667e-07
-1.11321e-06
-1.33072e-06
-1.53464e-06
-1.72635e-06
-1.9071e-06
-2.07819e-06
1.77508e-06
1.35699e-06
9.69574e-07
6.10486e-07
2.77116e-07
-3.29067e-08
-3.2165e-07
-5.90962e-07
-8.4253e-07
-1.07789e-06
-1.2985e-06
-1.50569e-06
-1.70076e-06
-1.88492e-06
-2.05943e-06
1.79357e-06
1.38337e-06
1.00117e-06
6.45124e-07
3.13071e-07
3.05904e-09
-2.86651e-07
-5.57649e-07
-8.11414e-07
-1.04933e-06
-1.27271e-06
-1.4828e-06
-1.68085e-06
-1.86801e-06
-2.04551e-06
1.8082e-06
1.40487e-06
1.02718e-06
6.73757e-07
3.42815e-07
3.27757e-08
-2.57814e-07
-5.30315e-07
-7.86024e-07
-1.02618e-06
-1.25199e-06
-1.46462e-06
-1.66525e-06
-1.855e-06
-2.03508e-06
1.81949e-06
1.42218e-06
1.04844e-06
6.97306e-07
3.67335e-07
5.72744e-08
-2.34081e-07
-5.07891e-07
-7.6529e-07
-1.00739e-06
-1.2353e-06
-1.45012e-06
-1.65297e-06
-1.84494e-06
-2.02721e-06
1.82799e-06
1.43598e-06
1.06572e-06
7.16603e-07
3.87499e-07
7.74359e-08
-2.14571e-07
-4.89506e-07
-7.48358e-07
-9.92126e-07
-1.22184e-06
-1.43853e-06
-1.64327e-06
-1.83712e-06
-2.02125e-06
1.83426e-06
1.44691e-06
1.07969e-06
7.32347e-07
4.04018e-07
9.39731e-08
-1.98581e-07
-4.74471e-07
-7.34563e-07
-9.79756e-07
-1.211e-06
-1.42927e-06
-1.63562e-06
-1.83106e-06
-2.01675e-06
1.83877e-06
1.45553e-06
1.091e-06
7.45226e-07
4.17594e-07
1.07584e-07
-1.85428e-07
-4.62134e-07
-7.23285e-07
-9.69694e-07
-1.20225e-06
-1.42186e-06
-1.62955e-06
-1.82633e-06
-2.01334e-06
1.84196e-06
1.46258e-06
1.10058e-06
7.56283e-07
4.29317e-07
1.19359e-07
-1.74055e-07
-4.5149e-07
-7.13595e-07
-9.611e-07
-1.19483e-06
-1.41564e-06
-1.62453e-06
-1.82249e-06
-2.01067e-06
1.8443e-06
1.46869e-06
1.10912e-06
7.66258e-07
4.39957e-07
1.30072e-07
-1.63712e-07
-4.41831e-07
-7.04835e-07
-9.53372e-07
-1.1882e-06
-1.41019e-06
-1.62026e-06
-1.81934e-06
-2.00859e-06
-1.47937e-05
-1.24452e-05
-1.09949e-05
-1.00259e-05
-9.24216e-06
-8.62521e-06
-8.12402e-06
-7.70269e-06
-7.33727e-06
-7.00973e-06
-6.70679e-06
-6.41899e-06
-6.14038e-06
-5.86929e-06
-5.60966e-06
-5.37511e-06
-5.18929e-06
-5.0971e-06
-5.16262e-06
-5.47163e-06
-6.14412e-06
-7.27982e-06
-8.77943e-06
-1.03124e-05
-1.16292e-05
-1.26114e-05
-1.31958e-05
-1.33528e-05
-1.30688e-05
-1.23404e-05
-1.11734e-05
-9.58603e-06
-7.6107e-06
-5.29472e-06
-2.69855e-06
1.07381e-07
3.04603e-06
6.03621e-06
8.99223e-06
1.18202e-05
1.44037e-05
1.6598e-05
1.80911e-05
1.86588e-05
1.73512e-05
-1.30602e-05
-1.18648e-05
-1.07748e-05
-9.91575e-06
-9.1807e-06
-8.57973e-06
-8.08351e-06
-7.66325e-06
-7.29754e-06
-6.96953e-06
-6.66626e-06
-6.37825e-06
-6.09973e-06
-5.82922e-06
-5.5709e-06
-5.3386e-06
-5.15607e-06
-5.06815e-06
-5.13834e-06
-5.45089e-06
-6.12474e-06
-7.25725e-06
-8.74815e-06
-1.02716e-05
-1.15809e-05
-1.25581e-05
-1.31397e-05
-1.32955e-05
-1.30118e-05
-1.22855e-05
-1.11239e-05
-9.54676e-06
-7.58847e-06
-5.29866e-06
-2.7405e-06
1.18853e-08
2.87611e-06
5.7626e-06
8.57186e-06
1.11856e-05
1.34415e-05
1.50963e-05
1.56829e-05
1.45131e-05
1.06096e-05
-1.21464e-05
-1.14068e-05
-1.05439e-05
-9.78289e-06
-9.102e-06
-8.52349e-06
-8.03576e-06
-7.61832e-06
-7.25311e-06
-6.9248e-06
-6.62108e-06
-6.3328e-06
-6.05442e-06
-5.78469e-06
-5.52806e-06
-5.29863e-06
-5.12018e-06
-5.03756e-06
-5.11348e-06
-5.43038e-06
-6.1059e-06
-7.2345e-06
-8.7146e-06
-1.0226e-05
-1.15254e-05
-1.24955e-05
-1.30728e-05
-1.32267e-05
-1.29434e-05
-1.22208e-05
-1.10676e-05
-9.50585e-06
-7.57259e-06
-5.3205e-06
-2.81651e-06
-1.39676e-07
2.62059e-06
5.36432e-06
7.97632e-06
1.03147e-05
1.21843e-05
1.33007e-05
1.32215e-05
1.14183e-05
7.67642e-06
-1.15457e-05
-1.10213e-05
-1.03306e-05
-9.64905e-06
-9.02118e-06
-8.46683e-06
-7.98839e-06
-7.57375e-06
-7.20847e-06
-6.87917e-06
-6.57437e-06
-6.28536e-06
-6.00685e-06
-5.73785e-06
-5.48307e-06
-5.25688e-06
-5.08307e-06
-5.00643e-06
-5.08883e-06
-5.41062e-06
-6.08812e-06
-7.21239e-06
-8.68013e-06
-1.01773e-05
-1.14643e-05
-1.24247e-05
-1.29951e-05
-1.31445e-05
-1.28597e-05
-1.21398e-05
-1.09957e-05
-9.45241e-06
-7.55057e-06
-5.34688e-06
-2.9131e-06
-3.3427e-07
2.29228e-06
4.85596e-06
7.22801e-06
9.25162e-06
1.07252e-05
1.13837e-05
1.09077e-05
9.01903e-06
5.85784e-06
-1.10638e-05
-1.06684e-05
-1.01137e-05
-9.51778e-06
-8.94112e-06
-8.41159e-06
-7.94309e-06
-7.53076e-06
-7.16442e-06
-6.83309e-06
-6.52637e-06
-6.23605e-06
-5.9572e-06
-5.68904e-06
-5.43659e-06
-5.21441e-06
-5.04623e-06
-4.97669e-06
-5.06663e-06
-5.39395e-06
-6.07344e-06
-7.19227e-06
-8.64507e-06
-1.01251e-05
-1.13968e-05
-1.23449e-05
-1.29063e-05
-1.305e-05
-1.27636e-05
-1.20478e-05
-1.09166e-05
-9.3984e-06
-7.53809e-06
-5.39708e-06
-3.05246e-06
-5.95529e-07
1.86902e-06
4.22236e-06
6.32824e-06
8.02826e-06
9.13704e-06
9.45473e-06
8.78891e-06
7.05526e-06
4.44619e-06
-1.06418e-05
-1.03345e-05
-9.88496e-06
-9.37482e-06
-8.85397e-06
-8.35407e-06
-7.89923e-06
-7.48961e-06
-7.12185e-06
-6.78777e-06
-6.47832e-06
-6.18612e-06
-5.90671e-06
-5.63962e-06
-5.39011e-06
-5.17296e-06
-5.01169e-06
-4.95065e-06
-5.04944e-06
-5.38293e-06
-6.0642e-06
-7.17591e-06
-8.61025e-06
-1.00694e-05
-1.13221e-05
-1.22548e-05
-1.2805e-05
-1.29421e-05
-1.26548e-05
-1.19461e-05
-1.08333e-05
-9.34911e-06
-7.54301e-06
-5.48147e-06
-3.24687e-06
-9.36042e-07
1.34104e-06
3.46177e-06
5.29102e-06
6.68294e-06
7.48756e-06
7.57091e-06
6.84881e-06
5.34713e-06
3.26546e-06
-1.02428e-05
-1.00014e-05
-9.64207e-06
-9.20921e-06
-8.7441e-06
-8.28652e-06
-7.8498e-06
-7.4469e-06
-7.07989e-06
-6.74369e-06
-6.43149e-06
-6.13726e-06
-5.85734e-06
-5.59174e-06
-5.34602e-06
-5.13512e-06
-4.98228e-06
-4.93131e-06
-5.04036e-06
-5.3806e-06
-6.06319e-06
-7.16551e-06
-8.57695e-06
-1.00104e-05
-1.12397e-05
-1.21532e-05
-1.26895e-05
-1.28189e-05
-1.25318e-05
-1.18339e-05
-1.07466e-05
-9.30702e-06
-7.56972e-06
-5.60603e-06
-3.50291e-06
-1.3609e-06
7.08174e-07
2.58385e-06
4.14082e-06
5.25595e-06
5.82052e-06
5.76031e-06
5.06138e-06
3.79708e-06
2.14176e-06
-9.84534e-06
-9.65482e-06
-9.36955e-06
-9.01074e-06
-8.60834e-06
-8.19345e-06
-7.78439e-06
-7.39605e-06
-7.03458e-06
-6.69906e-06
-6.3857e-06
-6.09044e-06
-5.81089e-06
-5.54781e-06
-5.30718e-06
-5.1042e-06
-4.96161e-06
-4.92251e-06
-5.04337e-06
-5.39082e-06
-6.07383e-06
-7.16377e-06
-8.54666e-06
-9.94863e-06
-1.11492e-05
-1.20387e-05
-1.2558e-05
-1.26787e-05
-1.23933e-05
-1.17112e-05
-1.06579e-05
-9.27548e-06
-7.62325e-06
-5.77675e-06
-3.8259e-06
-1.87216e-06
-2.47714e-08
1.60399e-06
2.90546e-06
3.78403e-06
4.16968e-06
4.03281e-06
3.39722e-06
2.34725e-06
1.02187e-06
-9.43884e-06
-9.28877e-06
-9.06358e-06
-8.77187e-06
-8.43185e-06
-8.06585e-06
-7.69282e-06
-7.32752e-06
-6.97867e-06
-6.64918e-06
-6.33857e-06
-6.04517e-06
-5.7683e-06
-5.50989e-06
-5.27654e-06
-5.08382e-06
-4.95383e-06
-4.92874e-06
-5.06309e-06
-5.41803e-06
-6.10002e-06
-7.17358e-06
-8.52083e-06
-9.88445e-06
-1.10497e-05
-1.19098e-05
-1.24086e-05
-1.25198e-05
-1.22388e-05
-1.15788e-05
-1.05698e-05
-9.2589e-06
-7.7093e-06
-5.99931e-06
-4.21945e-06
-2.46853e-06
-8.48647e-07
5.41075e-07
1.61221e-06
2.29627e-06
2.55437e-06
2.38583e-06
1.82901e-06
9.62525e-07
-1.07064e-07
-9.01693e-06
-8.90021e-06
-8.72406e-06
-8.49067e-06
-8.20959e-06
-7.89585e-06
-7.56516e-06
-7.23102e-06
-6.90319e-06
-6.58723e-06
-6.28558e-06
-5.99909e-06
-5.72913e-06
-5.47911e-06
-5.25646e-06
-5.07732e-06
-4.963e-06
-4.95446e-06
-5.10416e-06
-5.46667e-06
-6.14555e-06
-7.19744e-06
-8.50026e-06
-9.81772e-06
-1.094e-05
-1.17644e-05
-1.22392e-05
-1.23409e-05
-1.2068e-05
-1.14381e-05
-1.04859e-05
-9.26226e-06
-7.83331e-06
-6.27794e-06
-4.68424e-06
-3.14472e-06
-1.75042e-06
-5.84345e-07
2.85668e-07
8.13915e-07
9.82035e-07
8.10093e-07
3.33654e-07
-3.79733e-07
-1.24952e-06
-8.57493e-06
-8.48697e-06
-8.35171e-06
-8.16848e-06
-7.94144e-06
-7.67978e-06
-7.39508e-06
-7.09864e-06
-6.79995e-06
-6.50588e-06
-6.22099e-06
-5.94836e-06
-5.69142e-06
-5.4552e-06
-5.24812e-06
-5.087e-06
-4.99223e-06
-5.00327e-06
-5.17018e-06
-5.54017e-06
-6.21322e-06
-7.23627e-06
-8.48414e-06
-9.74758e-06
-1.08184e-05
-1.16005e-05
-1.20478e-05
-1.21408e-05
-1.18815e-05
-1.12918e-05
-1.04102e-05
-9.29051e-06
-7.99963e-06
-6.6144e-06
-5.21737e-06
-3.89152e-06
-2.71439e-06
-1.75208e-06
-1.05357e-06
-6.46361e-07
-5.33949e-07
-7.02693e-07
-1.10646e-06
-1.69409e-06
-2.40656e-06
-8.10967e-06
-8.04759e-06
-7.94754e-06
-7.8078e-06
-7.62955e-06
-7.41784e-06
-7.18048e-06
-6.92624e-06
-6.66345e-06
-6.3992e-06
-6.13933e-06
-5.88852e-06
-5.65204e-06
-5.43642e-06
-5.25103e-06
-5.11334e-06
-5.0427e-06
-5.07675e-06
-5.26249e-06
-5.6396e-06
-6.30392e-06
-7.28769e-06
-8.47018e-06
-9.67099e-06
-1.06826e-05
-1.1415e-05
-1.18324e-05
-1.19192e-05
-1.16809e-05
-1.1143e-05
-1.0347e-05
-9.34778e-06
-8.21046e-06
-7.00709e-06
-5.81186e-06
-4.69611e-06
-3.72308e-06
-2.94333e-06
-2.39102e-06
-2.08197e-06
-2.01344e-06
-2.16627e-06
-2.50532e-06
-2.99072e-06
-3.57833e-06
-7.62001e-06
-7.58204e-06
-7.5133e-06
-7.41194e-06
-7.27767e-06
-7.11294e-06
-6.92266e-06
-6.71318e-06
-6.49134e-06
-6.2637e-06
-6.03657e-06
-5.81564e-06
-5.60749e-06
-5.41989e-06
-5.26299e-06
-5.15462e-06
-5.11297e-06
-5.17351e-06
-5.37899e-06
-5.76275e-06
-6.41388e-06
-7.3472e-06
-8.45894e-06
-9.57875e-06
-1.05261e-05
-1.12053e-05
-1.15921e-05
-1.16768e-05
-1.14686e-05
-1.09955e-05
-1.03002e-05
-9.43628e-06
-8.46466e-06
-7.45e-06
-6.45624e-06
-5.54219e-06
-4.75756e-06
-4.13975e-06
-3.71188e-06
-3.48223e-06
-3.44504e-06
-3.58287e-06
-3.87001e-06
-4.27382e-06
-4.76238e-06
-7.10699e-06
-7.09206e-06
-7.052e-06
-6.98522e-06
-6.89089e-06
-6.77001e-06
-6.6255e-06
-6.46178e-06
-6.28419e-06
-6.09841e-06
-5.9106e-06
-5.72683e-06
-5.55453e-06
-5.40213e-06
-5.2804e-06
-5.2069e-06
-5.1987e-06
-5.2886e-06
-5.51342e-06
-5.90366e-06
-6.53379e-06
-7.41123e-06
-8.45089e-06
-9.46554e-06
-1.03338e-05
-1.09658e-05
-1.1326e-05
-1.14153e-05
-1.12479e-05
-1.0853e-05
-1.0272e-05
-9.55505e-06
-8.75659e-06
-7.93208e-06
-7.13433e-06
-6.41008e-06
-5.79716e-06
-5.32265e-06
-5.00205e-06
-4.83953e-06
-4.82906e-06
-4.95648e-06
-5.20184e-06
-5.54248e-06
-5.9536e-06
-6.57387e-06
-6.58133e-06
-6.56816e-06
-6.53318e-06
-6.47553e-06
-6.39553e-06
-6.29493e-06
-6.17676e-06
-6.0451e-06
-5.90468e-06
-5.76103e-06
-5.62029e-06
-5.49009e-06
-5.3791e-06
-5.29807e-06
-5.26423e-06
-5.29283e-06
-5.41304e-06
-5.65678e-06
-6.05011e-06
-6.65123e-06
-7.47943e-06
-8.42077e-06
-9.32468e-06
-1.01085e-05
-1.06937e-05
-1.10347e-05
-1.11378e-05
-1.10225e-05
-1.07177e-05
-1.02617e-05
-9.69887e-06
-9.0755e-06
-8.43712e-06
-7.82565e-06
-7.27707e-06
-6.8195e-06
-6.47241e-06
-6.24636e-06
-6.14362e-06
-6.1592e-06
-6.28243e-06
-6.49876e-06
-6.79162e-06
-7.1435e-06
-6.026e-06
-6.05546e-06
-6.06797e-06
-6.06273e-06
-6.03912e-06
-5.99729e-06
-5.93838e-06
-5.86459e-06
-5.77908e-06
-5.68582e-06
-5.58899e-06
-5.49515e-06
-5.41136e-06
-5.34596e-06
-5.30878e-06
-5.31796e-06
-5.38497e-06
-5.53496e-06
-5.79557e-06
-6.18605e-06
-6.75264e-06
-7.51814e-06
-8.35061e-06
-9.15014e-06
-9.85729e-06
-1.03942e-05
-1.07221e-05
-1.08489e-05
-1.07959e-05
-1.05904e-05
-1.02654e-05
-9.85808e-06
-9.40598e-06
-8.94484e-06
-8.50676e-06
-8.11863e-06
-7.80115e-06
-7.56837e-06
-7.42783e-06
-7.38113e-06
-7.42477e-06
-7.55136e-06
-7.75072e-06
-8.01124e-06
-8.32053e-06
-5.47112e-06
-5.52222e-06
-5.55947e-06
-5.58235e-06
-5.59053e-06
-5.58422e-06
-5.56437e-06
-5.53263e-06
-5.49151e-06
-5.44421e-06
-5.39585e-06
-5.35072e-06
-5.3154e-06
-5.29803e-06
-5.30855e-06
-5.35718e-06
-5.46042e-06
-5.63699e-06
-5.90925e-06
-6.29309e-06
-6.8195e-06
-7.50213e-06
-8.24031e-06
-8.94706e-06
-9.57493e-06
-1.0066e-05
-1.03892e-05
-1.05502e-05
-1.05683e-05
-1.04673e-05
-1.02743e-05
-1.00186e-05
-9.72909e-06
-9.43272e-06
-9.15342e-06
-8.9105e-06
-8.71942e-06
-8.5905e-06
-8.52937e-06
-8.53758e-06
-8.61315e-06
-8.75139e-06
-8.94565e-06
-9.18811e-06
-9.47022e-06
-4.9203e-06
-4.99227e-06
-5.05297e-06
-5.10214e-06
-5.1397e-06
-5.16605e-06
-5.18214e-06
-5.18948e-06
-5.19022e-06
-5.18719e-06
-5.1841e-06
-5.18531e-06
-5.19638e-06
-5.22432e-06
-5.27715e-06
-5.36529e-06
-5.50113e-06
-5.69893e-06
-5.97687e-06
-6.34764e-06
-6.82821e-06
-7.42886e-06
-8.08166e-06
-8.70186e-06
-9.25513e-06
-9.70713e-06
-1.00349e-05
-1.02391e-05
-1.0334e-05
-1.03387e-05
-1.0274e-05
-1.01615e-05
-1.0023e-05
-9.8772e-06
-9.74196e-06
-9.6308e-06
-9.55439e-06
-9.52164e-06
-9.53658e-06
-9.60079e-06
-9.71357e-06
-9.87233e-06
-1.00731e-05
-1.03109e-05
-1.05801e-05
-4.38765e-06
-4.47873e-06
-4.56062e-06
-4.63333e-06
-4.69701e-06
-4.75225e-06
-4.80008e-06
-4.84194e-06
-4.87971e-06
-4.91578e-06
-4.95319e-06
-4.99574e-06
-5.04808e-06
-5.11601e-06
-5.20621e-06
-5.32707e-06
-5.48821e-06
-5.69998e-06
-5.97569e-06
-6.32569e-06
-6.75993e-06
-7.28711e-06
-7.85903e-06
-8.40274e-06
-8.89477e-06
-9.31806e-06
-9.65699e-06
-9.90853e-06
-1.00809e-05
-1.01871e-05
-1.02423e-05
-1.02613e-05
-1.02596e-05
-1.02501e-05
-1.02446e-05
-1.02536e-05
-1.0284e-05
-1.03425e-05
-1.04328e-05
-1.05563e-05
-1.07134e-05
-1.09029e-05
-1.11227e-05
-1.13699e-05
-1.1641e-05
-3.8909e-06
-3.998e-06
-4.09732e-06
-4.1893e-06
-4.27437e-06
-4.35328e-06
-4.42709e-06
-4.49719e-06
-4.56526e-06
-4.63333e-06
-4.70391e-06
-4.78011e-06
-4.86572e-06
-4.96527e-06
-5.08408e-06
-5.22844e-06
-5.40556e-06
-5.62351e-06
-5.89164e-06
-6.21705e-06
-6.60765e-06
-7.07198e-06
-7.56722e-06
-8.04994e-06
-8.49736e-06
-8.90133e-06
-9.25323e-06
-9.54929e-06
-9.79272e-06
-9.99094e-06
-1.0153e-05
-1.02886e-05
-1.04073e-05
-1.05183e-05
-1.06293e-05
-1.07481e-05
-1.088e-05
-1.10277e-05
-1.11944e-05
-1.13821e-05
-1.15917e-05
-1.18229e-05
-1.20748e-05
-1.23459e-05
-1.26343e-05
-3.4592e-06
-3.57848e-06
-3.69044e-06
-3.796e-06
-3.89618e-06
-3.99193e-06
-4.08417e-06
-4.17417e-06
-4.26346e-06
-4.35379e-06
-4.44723e-06
-4.54632e-06
-4.65408e-06
-4.77406e-06
-4.91034e-06
-5.0677e-06
-5.25156e-06
-5.46774e-06
-5.72359e-06
-6.02726e-06
-6.38574e-06
-6.81265e-06
-7.24494e-06
-7.68208e-06
-8.10015e-06
-8.49566e-06
-8.86344e-06
-9.19921e-06
-9.5027e-06
-9.7769e-06
-1.00266e-05
-1.02576e-05
-1.04759e-05
-1.06871e-05
-1.08963e-05
-1.11077e-05
-1.1325e-05
-1.15509e-05
-1.17876e-05
-1.20367e-05
-1.22992e-05
-1.25754e-05
-1.28651e-05
-1.31677e-05
-1.34821e-05
-3.13986e-06
-3.26668e-06
-3.38327e-06
-3.49459e-06
-3.60301e-06
-3.70847e-06
-3.81112e-06
-3.91225e-06
-4.01332e-06
-4.11591e-06
-4.22182e-06
-4.33318e-06
-4.45249e-06
-4.58259e-06
-4.72683e-06
-4.88896e-06
-5.07326e-06
-5.2849e-06
-5.52874e-06
-5.80889e-06
-6.13307e-06
-6.50397e-06
-6.93692e-06
-7.35562e-06
-7.76026e-06
-8.15415e-06
-8.5343e-06
-8.89705e-06
-9.24077e-06
-9.56614e-06
-9.87565e-06
-1.01727e-05
-1.04609e-05
-1.07437e-05
-1.10242e-05
-1.13051e-05
-1.15888e-05
-1.18774e-05
-1.21723e-05
-1.24748e-05
-1.27857e-05
-1.31054e-05
-1.3434e-05
-1.37711e-05
-1.41163e-05
-2.89847e-06
-3.02756e-06
-3.14898e-06
-3.26576e-06
-3.37942e-06
-3.49023e-06
-3.59896e-06
-3.70677e-06
-3.81497e-06
-3.92502e-06
-4.03853e-06
-4.15739e-06
-4.28377e-06
-4.42015e-06
-4.56936e-06
-4.73462e-06
-4.91963e-06
-5.12848e-06
-5.36605e-06
-5.6381e-06
-5.95059e-06
-6.30884e-06
-6.70651e-06
-7.1066e-06
-7.50274e-06
-7.89539e-06
-8.28212e-06
-8.66005e-06
-9.02755e-06
-9.38465e-06
-9.73263e-06
-1.00734e-05
-1.0409e-05
-1.07414e-05
-1.10724e-05
-1.14038e-05
-1.17371e-05
-1.20735e-05
-1.24141e-05
-1.27597e-05
-1.31109e-05
-1.34679e-05
-1.38308e-05
-1.41995e-05
-1.45735e-05
-2.71762e-06
-2.8487e-06
-2.97408e-06
-3.09484e-06
-3.2121e-06
-3.32679e-06
-3.43985e-06
-3.55239e-06
-3.66563e-06
-3.78094e-06
-3.89986e-06
-4.02413e-06
-4.15573e-06
-4.29688e-06
-4.45011e-06
-4.61829e-06
-4.80472e-06
-5.01327e-06
-5.24811e-06
-5.51417e-06
-5.81703e-06
-6.16102e-06
-6.53882e-06
-6.92589e-06
-7.31505e-06
-7.70511e-06
-8.09395e-06
-8.47959e-06
-8.86089e-06
-9.23767e-06
-9.61044e-06
-9.98009e-06
-1.03477e-05
-1.07142e-05
-1.10808e-05
-1.14483e-05
-1.18177e-05
-1.21897e-05
-1.2565e-05
-1.2944e-05
-1.3327e-05
-1.37141e-05
-1.41053e-05
-1.45004e-05
-1.48991e-05
-2.57977e-06
-2.71361e-06
-2.84213e-06
-2.96619e-06
-3.08687e-06
-3.2052e-06
-3.3222e-06
-3.43895e-06
-3.55666e-06
-3.67664e-06
-3.80038e-06
-3.92951e-06
-4.06587e-06
-4.21151e-06
-4.36874e-06
-4.54017e-06
-4.72875e-06
-4.93778e-06
-5.17101e-06
-5.43287e-06
-5.72844e-06
-6.06252e-06
-6.42722e-06
-6.80396e-06
-7.18596e-06
-7.57169e-06
-7.95952e-06
-8.34814e-06
-8.73676e-06
-9.12503e-06
-9.51301e-06
-9.901e-06
-1.02894e-05
-1.06788e-05
-1.10695e-05
-1.14623e-05
-1.18574e-05
-1.22552e-05
-1.26562e-05
-1.30603e-05
-1.34678e-05
-1.38785e-05
-1.42923e-05
-1.47088e-05
-1.51278e-05
-2.47452e-06
-2.61157e-06
-2.74347e-06
-2.87112e-06
-2.99554e-06
-3.11779e-06
-3.23889e-06
-3.35992e-06
-3.48209e-06
-3.60669e-06
-3.73516e-06
-3.86905e-06
-4.01009e-06
-4.16018e-06
-4.32146e-06
-4.49626e-06
-4.68726e-06
-4.89739e-06
-5.13012e-06
-5.38952e-06
-5.67979e-06
-6.00548e-06
-6.35986e-06
-6.7272e-06
-7.10159e-06
-7.48179e-06
-7.86658e-06
-8.25502e-06
-8.64648e-06
-9.04056e-06
-9.43708e-06
-9.83602e-06
-1.02375e-05
-1.06415e-05
-1.10485e-05
-1.14584e-05
-1.18715e-05
-1.22878e-05
-1.27074e-05
-1.31303e-05
-1.35562e-05
-1.3985e-05
-1.44164e-05
-1.48499e-05
-1.52852e-05
-2.39513e-06
-2.53595e-06
-2.67169e-06
-2.80327e-06
-2.93173e-06
-3.0581e-06
-3.18343e-06
-3.30882e-06
-3.43546e-06
-3.56464e-06
-3.69774e-06
-3.83626e-06
-3.98183e-06
-4.13623e-06
-4.30143e-06
-4.47956e-06
-4.67307e-06
-4.88468e-06
-5.1173e-06
-5.37499e-06
-5.66074e-06
-5.97916e-06
-6.32422e-06
-6.68254e-06
-7.04921e-06
-7.42324e-06
-7.80368e-06
-8.18981e-06
-8.58112e-06
-8.97721e-06
-9.37779e-06
-9.7827e-06
-1.01918e-05
-1.06051e-05
-1.10225e-05
-1.1444e-05
-1.18694e-05
-1.22987e-05
-1.27317e-05
-1.31682e-05
-1.36079e-05
-1.40505e-05
-1.44954e-05
-1.49422e-05
-1.53904e-05
-2.33635e-06
-2.48125e-06
-2.62104e-06
-2.75671e-06
-2.88929e-06
-3.01982e-06
-3.14936e-06
-3.27903e-06
-3.41001e-06
-3.54358e-06
-3.68108e-06
-3.82396e-06
-3.97378e-06
-4.13219e-06
-4.30105e-06
-4.48232e-06
-4.67823e-06
-4.89113e-06
-5.12301e-06
-5.37968e-06
-5.66142e-06
-5.97311e-06
-6.30943e-06
-6.65918e-06
-7.01827e-06
-7.38582e-06
-7.76111e-06
-8.1436e-06
-8.53288e-06
-8.92858e-06
-9.33038e-06
-9.73803e-06
-1.01513e-05
-1.057e-05
-1.0994e-05
-1.1423e-05
-1.18568e-05
-1.22952e-05
-1.27378e-05
-1.31843e-05
-1.36343e-05
-1.40873e-05
-1.45427e-05
-1.49999e-05
-1.54584e-05
-2.29361e-06
-2.44263e-06
-2.58647e-06
-2.72615e-06
-2.86273e-06
-2.99726e-06
-3.1308e-06
-3.26448e-06
-3.39951e-06
-3.53712e-06
-3.67865e-06
-3.82548e-06
-3.9791e-06
-4.1411e-06
-4.31318e-06
-4.49719e-06
-4.69521e-06
-4.90946e-06
-5.14325e-06
-5.39588e-06
-5.67357e-06
-5.97889e-06
-6.30704e-06
-6.64871e-06
-7.00044e-06
-7.36148e-06
-7.73128e-06
-8.10947e-06
-8.49569e-06
-8.88961e-06
-9.29092e-06
-9.69931e-06
-1.01145e-05
-1.05362e-05
-1.09642e-05
-1.13981e-05
-1.18376e-05
-1.22824e-05
-1.2732e-05
-1.31859e-05
-1.36437e-05
-1.41047e-05
-1.45684e-05
-1.5034e-05
-1.55008e-05
-2.26301e-06
-2.41596e-06
-2.56362e-06
-2.70707e-06
-2.84736e-06
-2.98554e-06
-3.12271e-06
-3.26002e-06
-3.39866e-06
-3.53987e-06
-3.68494e-06
-3.83522e-06
-3.99214e-06
-4.1572e-06
-4.33201e-06
-4.51828e-06
-4.71786e-06
-4.93275e-06
-5.16559e-06
-5.4171e-06
-5.69099e-06
-5.99031e-06
-6.31089e-06
-6.64503e-06
-6.98979e-06
-7.34453e-06
-7.70888e-06
-8.08256e-06
-8.46528e-06
-8.85674e-06
-9.25662e-06
-9.6646e-06
-1.00804e-05
-1.05036e-05
-1.0934e-05
-1.13712e-05
-1.18146e-05
-1.2264e-05
-1.27187e-05
-1.31784e-05
-1.36422e-05
-1.41097e-05
-1.458e-05
-1.50525e-05
-1.55264e-05
-2.24128e-06
-2.39781e-06
-2.54895e-06
-2.69579e-06
-2.83937e-06
-2.98079e-06
-3.12116e-06
-3.26163e-06
-3.4034e-06
-3.5477e-06
-3.69579e-06
-3.84901e-06
-4.00871e-06
-4.17633e-06
-4.35337e-06
-4.5414e-06
-4.74212e-06
-4.95727e-06
-5.18954e-06
-5.4396e-06
-5.70965e-06
-6.00339e-06
-6.31701e-06
-6.64421e-06
-6.98248e-06
-7.33133e-06
-7.69049e-06
-8.05978e-06
-8.43894e-06
-8.82769e-06
-9.22573e-06
-9.63274e-06
-1.00484e-05
-1.04723e-05
-1.09042e-05
-1.13435e-05
-1.17898e-05
-1.22426e-05
-1.27014e-05
-1.31656e-05
-1.36344e-05
-1.41072e-05
-1.45831e-05
-1.50615e-05
-1.55414e-05
-2.22585e-06
-2.38556e-06
-2.53976e-06
-2.68954e-06
-2.83598e-06
-2.98018e-06
-3.12328e-06
-3.26644e-06
-3.41086e-06
-3.55777e-06
-3.7084e-06
-3.86406e-06
-4.02606e-06
-4.19577e-06
-4.37461e-06
-4.56403e-06
-4.76556e-06
-4.98077e-06
-5.21276e-06
-5.46064e-06
-5.72713e-06
-6.0158e-06
-6.32308e-06
-6.64397e-06
-6.97633e-06
-7.31977e-06
-7.67416e-06
-8.03934e-06
-8.41509e-06
-8.80115e-06
-9.19724e-06
-9.60305e-06
-1.00182e-05
-1.04424e-05
-1.08752e-05
-1.13161e-05
-1.17646e-05
-1.22202e-05
-1.26822e-05
-1.31501e-05
-1.36231e-05
-1.41004e-05
-1.45813e-05
-1.50648e-05
-1.555e-05
-2.21482e-06
-2.37729e-06
-2.53412e-06
-2.68641e-06
-2.83527e-06
-2.98182e-06
-3.12721e-06
-3.27262e-06
-3.41925e-06
-3.56831e-06
-3.72105e-06
-3.87872e-06
-4.0426e-06
-4.21401e-06
-4.39428e-06
-4.58478e-06
-4.78689e-06
-5.00237e-06
-5.23344e-06
-5.47891e-06
-5.7425e-06
-6.02646e-06
-6.328e-06
-6.64318e-06
-6.9702e-06
-7.30877e-06
-7.65884e-06
-8.02027e-06
-8.39287e-06
-8.77641e-06
-9.17063e-06
-9.57522e-06
-9.98981e-06
-1.0414e-05
-1.08474e-05
-1.12896e-05
-1.17399e-05
-1.21978e-05
-1.26626e-05
-1.31337e-05
-1.36103e-05
-1.40917e-05
-1.45768e-05
-1.50649e-05
-1.5555e-05
-2.20688e-06
-2.3717e-06
-2.53075e-06
-2.68515e-06
-2.83603e-06
-2.98452e-06
-3.13181e-06
-3.27908e-06
-3.42753e-06
-3.57837e-06
-3.73283e-06
-3.89215e-06
-4.05756e-06
-4.23034e-06
-4.41174e-06
-4.60306e-06
-4.80565e-06
-5.02135e-06
-5.25078e-06
-5.4945e-06
-5.75544e-06
-6.035e-06
-6.33136e-06
-6.64143e-06
-6.96365e-06
-7.29787e-06
-7.64406e-06
-8.00213e-06
-8.37189e-06
-8.75316e-06
-9.14565e-06
-9.54908e-06
-9.96309e-06
-1.03873e-05
-1.08212e-05
-1.12644e-05
-1.17162e-05
-1.21761e-05
-1.26434e-05
-1.31174e-05
-1.35972e-05
-1.40821e-05
-1.45712e-05
-1.50634e-05
-1.55578e-05
-2.20112e-06
-2.36792e-06
-2.52883e-06
-2.68498e-06
-2.83752e-06
-2.98763e-06
-3.13647e-06
-3.28526e-06
-3.4352e-06
-3.58749e-06
-3.74336e-06
-3.90402e-06
-4.07067e-06
-4.24454e-06
-4.42685e-06
-4.6188e-06
-4.82173e-06
-5.03731e-06
-5.26531e-06
-5.50748e-06
-5.7659e-06
-6.0415e-06
-6.33317e-06
-6.63866e-06
-6.95661e-06
-7.28696e-06
-7.6297e-06
-7.98477e-06
-8.35201e-06
-8.73124e-06
-9.1222e-06
-9.5246e-06
-9.93807e-06
-1.03622e-05
-1.07966e-05
-1.12406e-05
-1.16938e-05
-1.21555e-05
-1.2625e-05
-1.31016e-05
-1.35844e-05
-1.40725e-05
-1.45651e-05
-1.50611e-05
-1.55595e-05
-2.19694e-06
-2.36539e-06
-2.52784e-06
-2.68544e-06
-2.83935e-06
-2.99076e-06
-3.14088e-06
-3.29091e-06
-3.44206e-06
-3.59553e-06
-3.75254e-06
-3.91428e-06
-4.08194e-06
-4.25669e-06
-4.4397e-06
-4.63212e-06
-4.83522e-06
-5.05045e-06
-5.27749e-06
-5.51808e-06
-5.77414e-06
-6.0462e-06
-6.33364e-06
-6.63504e-06
-6.9492e-06
-7.27611e-06
-7.6158e-06
-7.96822e-06
-8.33324e-06
-8.71067e-06
-9.10028e-06
-9.50177e-06
-9.91478e-06
-1.03389e-05
-1.07737e-05
-1.12186e-05
-1.1673e-05
-1.21363e-05
-1.26078e-05
-1.30867e-05
-1.35722e-05
-1.40633e-05
-1.4559e-05
-1.50585e-05
-1.55604e-05
-2.19392e-06
-2.36375e-06
-2.52746e-06
-2.68624e-06
-2.84127e-06
-2.99375e-06
-3.1449e-06
-3.29593e-06
-3.44806e-06
-3.60249e-06
-3.76042e-06
-3.92304e-06
-4.0915e-06
-4.26695e-06
-4.4505e-06
-4.64326e-06
-4.84643e-06
-5.0612e-06
-5.28748e-06
-5.52665e-06
-5.78048e-06
-6.04937e-06
-6.33308e-06
-6.63083e-06
-6.94163e-06
-7.26551e-06
-7.60252e-06
-7.95261e-06
-8.31567e-06
-8.69154e-06
-9.07997e-06
-9.48068e-06
-9.89331e-06
-1.03174e-05
-1.07526e-05
-1.11983e-05
-1.16538e-05
-1.21186e-05
-1.25919e-05
-1.3073e-05
-1.35608e-05
-1.40546e-05
-1.45533e-05
-1.50558e-05
-1.5561e-05
-2.19176e-06
-2.36274e-06
-2.52751e-06
-2.68726e-06
-2.8432e-06
-2.99655e-06
-3.14854e-06
-3.30038e-06
-3.4533e-06