/*--------------------------------*- C++ -*----------------------------------*\
| =========                 |                                                 |
| \\      /  F ield         | OpenFOAM: The Open Source CFD Toolbox           |
|  \\    /   O peration     | Version:  2312                                  |
|   \\  /    A nd           | Website:  www.openfoam.com                      |
|    \\/     M anipulation  |                                                 |
\*---------------------------------------------------------------------------*/
FoamFile
{
    version     2.0;
    format      ascii;
    arch        "LSB;label=32;scalar=64";
    class       volVectorField;
    location    "114.5";
    object      U;
}
// * * * * * * * * * * * * * * * * * * * * * * * * * * * * * * * * * * * * * //

dimensions      [0 1 -1 0 0 0 0];

internalField   nonuniform List<vector> 
4800
(
(0.000472538 4.21678e-07 -3.16081e-26)
(0.000461486 4.66231e-07 -2.19606e-25)
(0.000454071 4.81877e-07 2.82605e-25)
(0.000449181 4.72572e-07 1.25977e-25)
(0.000446135 4.40654e-07 1.83271e-24)
(0.000444488 3.86644e-07 -4.34831e-24)
(0.000444043 3.23815e-07 4.0181e-24)
(0.000444679 2.41639e-07 -5.74751e-24)
(0.000446289 1.11038e-07 1.86266e-24)
(0.000449066 -1.42082e-07 6.20343e-24)
(0.000453379 -6.41649e-07 -1.91596e-24)
(0.000460528 -2.01131e-06 -1.70536e-25)
(0.00047754 -7.05848e-06 -2.29289e-24)
(0.000521784 -2.73594e-05 1.05469e-24)
(0.000594983 -8.87265e-05 -8.36387e-25)
(0.00145869 2.249e-06 -1.00304e-25)
(0.00142532 1.77743e-06 1.24958e-25)
(0.00140289 1.40329e-06 -1.12824e-24)
(0.00138801 1.06864e-06 8.49343e-25)
(0.00137861 7.4023e-07 2.64493e-24)
(0.00137334 3.80439e-07 -4.19244e-24)
(0.00137157 -2.48349e-08 -1.14721e-24)
(0.00137284 -5.47625e-07 -2.3827e-25)
(0.00137681 -1.28199e-06 9.46398e-24)
(0.00138415 -2.53653e-06 -6.97341e-24)
(0.00139581 -4.91541e-06 7.59537e-25)
(0.00141456 -1.06013e-05 1.13978e-24)
(0.00144892 -2.70513e-05 -1.66951e-24)
(0.00150926 -7.70008e-05 -4.92187e-25)
(0.00157423 -0.000188901 2.16864e-24)
(0.00254686 7.19822e-06 -7.16289e-26)
(0.00248992 5.63821e-06 7.3266e-26)
(0.00245157 4.42708e-06 7.38204e-25)
(0.00242602 3.3744e-06 -1.74801e-24)
(0.0024097 2.37552e-06 1.69668e-24)
(0.0024003 1.30699e-06 1.56045e-24)
(0.0023966 3.96896e-08 -4.00502e-24)
(0.00239786 -1.52765e-06 -2.40245e-24)
(0.00240328 -3.71369e-06 5.85692e-24)
(0.00241384 -7.23915e-06 2.18081e-24)
(0.00243043 -1.34786e-05 -7.60195e-24)
(0.00245517 -2.63101e-05 -1.11588e-24)
(0.00249204 -5.50607e-05 3.22705e-24)
(0.00253962 -0.000118197 5.04296e-24)
(0.00257357 -0.000222587 -2.59975e-24)
(0.00374384 1.60483e-05 2.64266e-26)
(0.00366245 1.26201e-05 -1.83209e-25)
(0.00360746 9.96334e-06 8.08492e-25)
(0.0035706 7.66978e-06 8.42267e-25)
(0.00354677 5.51611e-06 -8.58501e-25)
(0.00353263 3.25313e-06 -4.79358e-24)
(0.00352623 6.19509e-07 -3.17816e-24)
(0.00352659 -2.62464e-06 1.1935e-23)
(0.00353217 -6.89093e-06 4.82344e-24)
(0.00354395 -1.35929e-05 -7.07114e-24)
(0.00356201 -2.45089e-05 -2.8279e-24)
(0.00358669 -4.40579e-05 -2.1305e-24)
(0.00361722 -8.00399e-05 7.13957e-26)
(0.00364647 -0.000141954 1.56369e-24)
(0.00365679 -0.000224509 7.61211e-27)
(0.00505471 2.96541e-05 -4.84343e-26)
(0.00494873 2.33853e-05 -2.94767e-25)
(0.00487676 1.85308e-05 -1.79421e-25)
(0.00482817 1.43687e-05 5.00846e-25)
(0.00479631 1.0503e-05 -1.37918e-24)
(0.00477679 6.52775e-06 3.43097e-24)
(0.00476688 2.02042e-06 -6.12936e-25)
(0.00476506 -3.40273e-06 2.04081e-24)
(0.00476945 -1.0258e-05 -1.13242e-23)
(0.0047802 -2.04366e-05 2.14945e-23)
(0.00479637 -3.56301e-05 -2.0721e-23)
(0.0048166 -5.94734e-05 1.08587e-23)
(0.00483754 -9.66936e-05 -1.00146e-23)
(0.0048516 -0.000150133 9.41508e-24)
(0.0048488 -0.000212168 -3.74672e-24)
(0.00648121 4.90345e-05 6.39851e-26)
(0.00635188 3.88094e-05 2.27959e-25)
(0.00626342 3.08848e-05 -1.19422e-24)
(0.00620311 2.4134e-05 -7.31577e-25)
(0.00616292 1.79339e-05 1.99572e-24)
(0.00613751 1.17026e-05 6.99574e-25)
(0.00612334 4.833e-06 -5.42694e-24)
(0.00611812 -3.08181e-06 1.2864e-23)
(0.00611988 -1.29584e-05 -1.65996e-23)
(0.00612753 -2.6346e-05 3.99926e-24)
(0.00613929 -4.47315e-05 1.19279e-23)
(0.00615282 -7.03196e-05 -1.64675e-23)
(0.00616428 -0.000104963 8.23672e-24)
(0.00616801 -0.000148086 8.37997e-24)
(0.00615943 -0.000193535 -6.37419e-24)
(0.00801948 7.50686e-05 5.30181e-26)
(0.00787039 5.97365e-05 -3.12501e-25)
(0.00776731 4.7807e-05 1.10836e-24)
(0.0076962 3.76916e-05 -1.52557e-24)
(0.00764797 2.84967e-05 -5.07355e-24)
(0.00761647 1.94606e-05 8.64104e-24)
(0.00759749 9.81642e-06 -5.17267e-24)
(0.00758806 -9.49813e-07 1.73965e-23)
(0.00758582 -1.37288e-05 -1.18455e-23)
(0.00758886 -2.98134e-05 -5.47072e-24)
(0.00759486 -5.01431e-05 -1.06277e-23)
(0.00760119 -7.55705e-05 9.78913e-24)
(0.00760469 -0.000106103 2.7375e-24)
(0.00760188 -0.000140002 2.32704e-24)
(0.00759124 -0.000173202 -2.04689e-24)
(0.00965744 0.00010805 -7.68343e-26)
(0.00949569 8.66534e-05 1.03649e-24)
(0.00938212 6.98591e-05 -2.39538e-24)
(0.00930258 5.56378e-05 -1.90729e-24)
(0.00924757 4.28181e-05 7.59955e-25)
(0.00921051 3.04737e-05 1.42714e-24)
(0.00918675 1.77343e-05 4.95269e-24)
(0.00917275 3.99651e-06 -1.3324e-23)
(0.00916582 -1.14856e-05 -6.94621e-24)
(0.00916356 -2.96016e-05 1.93912e-23)
(0.00916351 -5.07509e-05 -5.91981e-24)
(0.00916327 -7.48883e-05 2.02394e-23)
(0.00916062 -0.00010121 -1.06378e-23)
(0.00915364 -0.000127998 -3.37346e-24)
(0.0091423 -0.000152833 1.99555e-24)
(0.0113731 0.000147061 -1.02747e-26)
(0.0112101 0.00011922 5.75222e-25)
(0.0110931 9.70205e-05 -8.16709e-25)
(0.0110096 7.81523e-05 1.91448e-24)
(0.0109506 6.12283e-05 -1.1291e-23)
(0.0109097 4.52056e-05 1.18838e-23)
(0.010882 2.91782e-05 -1.83763e-23)
(0.010864 1.25211e-05 1.13602e-23)
(0.0108525 -5.33341e-06 8.3304e-24)
(0.0108452 -2.48512e-05 1.78278e-23)
(0.0108398 -4.60453e-05 -2.32533e-23)
(0.0108343 -6.84583e-05 -4.24704e-24)
(0.0108272 -9.1159e-05 1.99203e-24)
(0.0108176 -0.000112887 1.40122e-23)
(0.0108059 -0.000132302 -5.69235e-24)
(0.0131369 0.000189299 5.75044e-26)
(0.0129874 0.000155667 -2.44888e-25)
(0.0128769 0.000128173 1.07346e-24)
(0.0127962 0.000104554 -3.71807e-24)
(0.0127378 8.33706e-05 5.58688e-24)
(0.012696 6.35588e-05 -7.11903e-24)
(0.0126666 4.42547e-05 1.18015e-23)
(0.012646 2.48894e-05 1.97892e-24)
(0.0126313 5.07073e-06 -1.60329e-23)
(0.0126202 -1.53568e-05 2.26221e-23)
(0.0126109 -3.62049e-05 -2.48859e-23)
(0.0126017 -5.69548e-05 -7.25248e-24)
(0.012592 -7.68679e-05 1.28352e-23)
(0.0125809 -9.51755e-05 3.79335e-24)
(0.0125693 -0.000111199 -1.65543e-24)
(0.0149214 0.00023002 2.39501e-25)
(0.0147994 0.000192459 -1.92483e-24)
(0.0147059 0.000160672 -2.98113e-24)
(0.0146357 0.000132856 7.12569e-24)
(0.0145835 0.000107759 3.09327e-24)
(0.0145453 8.44394e-05 -1.94071e-23)
(0.0145173 6.21637e-05 6.05193e-24)
(0.0144966 4.04776e-05 4.30772e-24)
(0.0144808 1.91467e-05 -1.80801e-23)
(0.014468 -1.83709e-06 1.89372e-23)
(0.0144568 -2.22325e-05 -1.49286e-23)
(0.0144461 -4.16409e-05 3.84306e-23)
(0.0144354 -5.95979e-05 -1.84179e-23)
(0.0144241 -7.57186e-05 1.08235e-23)
(0.0144131 -8.9714e-05 -2.95066e-24)
(0.0167186 0.000264294 -1.0086e-25)
(0.0166303 0.000225179 1.32378e-24)
(0.0165601 0.000190739 -2.53602e-24)
(0.016506 0.000159877 -1.23632e-24)
(0.0164648 0.000131728 1.38941e-23)
(0.0164338 0.000105607 -2.12054e-24)
(0.0164105 8.09859e-05 -2.4285e-23)
(0.0163925 5.75509e-05 2.8104e-23)
(0.0163781 3.51884e-05 -6.34719e-24)
(0.016366 1.39361e-05 -2.15926e-23)
(0.0163551 -6.02822e-06 2.29447e-23)
(0.0163447 -2.44777e-05 1.22912e-23)
(0.0163347 -4.11808e-05 -1.03815e-23)
(0.0163244 -5.60088e-05 -1.79127e-23)
(0.0163148 -6.88952e-05 1.50207e-24)
(0.0185492 0.000290498 8.64839e-27)
(0.0184887 0.000251267 -1.49387e-24)
(0.01844 0.000215523 6.92278e-24)
(0.0184018 0.000182782 3.33141e-25)
(0.0183725 0.000152588 3.72865e-24)
(0.0183501 0.000124546 -1.36479e-23)
(0.0183328 9.8347e-05 1.14718e-23)
(0.0183191 7.38074e-05 2.51819e-24)
(0.0183078 5.08731e-05 2.32153e-23)
(0.0182979 2.95676e-05 -3.60164e-23)
(0.0182889 9.97064e-06 -1.62034e-23)
(0.0182802 -7.84564e-06 -1.06608e-23)
(0.018272 -2.38241e-05 2.0104e-23)
(0.0182637 -3.79843e-05 -5.77722e-25)
(0.018256 -5.03792e-05 1.94597e-24)
(0.0204416 0.000311671 -1.49729e-26)
(0.0203974 0.000272308 1.54813e-24)
(0.0203621 0.000235616 -2.24556e-24)
(0.0203348 0.000201523 1.0536e-26)
(0.0203139 0.000169876 2.79625e-24)
(0.0202978 0.000140508 7.01306e-24)
(0.0202853 0.000113269 -2.71658e-23)
(0.0202752 8.80529e-05 2.37828e-24)
(0.0202667 6.48089e-05 1.37121e-23)
(0.0202591 4.35038e-05 -6.24506e-24)
(0.0202522 2.41207e-05 1.7081e-23)
(0.0202455 6.61968e-06 1.19219e-23)
(0.0202393 -9.06022e-06 -2.16425e-23)
(0.0202329 -2.30216e-05 1.48048e-23)
(0.0202272 -3.53758e-05 -1.23052e-23)
(0.0223882 0.000331284 -5.25751e-25)
(0.0223536 0.000291624 1.47279e-25)
(0.0223261 0.000253989 2.66448e-24)
(0.0223047 0.000218677 -1.32658e-23)
(0.0222883 0.000185786 1.16485e-23)
(0.0222756 0.000155313 -8.30416e-24)
(0.0222656 0.000127209 5.98905e-24)
(0.0222574 0.000101399 -4.18064e-23)
(0.0222505 7.7802e-05 6.03464e-23)
(0.0222443 5.63233e-05 -3.53958e-23)
(0.0222387 3.68577e-05 3.15945e-23)
(0.0222333 1.9283e-05 2.63843e-23)
(0.0222284 3.47346e-06 -4.61033e-23)
(0.0222234 -1.0721e-05 1.50047e-23)
(0.022219 -2.34414e-05 -6.30834e-25)
(0.0243264 0.000348994 -1.98013e-26)
(0.0243016 0.000309668 -3.97172e-25)
(0.0242812 0.000271629 3.70946e-25)
(0.0242651 0.000235558 -3.62274e-25)
(0.0242524 0.000201804 4.71347e-24)
(0.0242423 0.000170507 -8.05593e-24)
(0.0242341 0.000141692 7.43056e-24)
(0.0242273 0.000115299 -2.33786e-23)
(0.0242215 9.12227e-05 5.30998e-23)
(0.0242162 6.93259e-05 -6.78833e-23)
(0.0242115 4.94565e-05 5.55838e-23)
(0.0242069 3.14448e-05 -1.87702e-23)
(0.0242029 1.51266e-05 9.79975e-25)
(0.0241988 3.28614e-07 4.32594e-24)
(0.0241953 -1.31077e-05 -8.28363e-24)
(0.0261583 0.000362282 -1.69887e-24)
(0.0261441 0.000324215 2.9115e-24)
(0.0261319 0.000286652 -8.07248e-25)
(0.0261219 0.000250607 -1.88317e-24)
(0.0261137 0.00021664 7.42453e-24)
(0.026107 0.000185019 -7.50717e-24)
(0.0261015 0.000155826 -6.6681e-24)
(0.0260967 0.000129019 -1.60639e-23)
(0.0260925 0.000104485 8.22961e-24)
(0.0260887 8.20693e-05 3.9118e-23)
(0.0260852 6.16049e-05 -2.06618e-23)
(0.0260818 4.29163e-05 1.23543e-23)
(0.0260788 2.58338e-05 -5.07113e-24)
(0.0260757 1.01867e-05 -1.51251e-23)
(0.0260731 -4.18028e-06 7.75005e-24)
(0.0277652 0.000369545 5.72635e-25)
(0.0277606 0.000333478 -9.92544e-25)
(0.0277562 0.000297197 -2.65307e-25)
(0.0277522 0.000261942 -9.06798e-25)
(0.0277489 0.00022843 -2.06887e-24)
(0.027746 0.000197019 1.08685e-23)
(0.0277435 0.000167841 -8.73712e-24)
(0.0277413 0.000140878 -5.63948e-24)
(0.0277393 0.000116027 5.16255e-24)
(0.0277373 9.31361e-05 -6.12962e-24)
(0.0277355 7.20347e-05 1.42823e-23)
(0.0277336 5.25561e-05 7.30956e-24)
(0.0277319 3.45389e-05 -2.72755e-23)
(0.0277301 1.7837e-05 1.89002e-23)
(0.0277286 2.32234e-06 -3.86733e-24)
(0.028991 0.000370338 1.72931e-24)
(0.0289949 0.000336757 3.04363e-24)
(0.0289975 0.000302408 -6.72199e-24)
(0.0289992 0.000268623 -7.08612e-25)
(0.0290006 0.000236194 2.08124e-24)
(0.0290016 0.000205528 -2.63616e-24)
(0.0290024 0.000176793 -4.79415e-24)
(0.0290029 0.000150001 9.82157e-24)
(0.0290033 0.000125074 1.16254e-23)
(0.0290033 0.000101883 -2.83689e-23)
(0.0290033 8.02851e-05 1.65052e-23)
(0.029003 6.01177e-05 -1.16435e-24)
(0.0290027 4.12347e-05 -9.89879e-25)
(0.0290023 2.34916e-05 1.34427e-24)
(0.0290019 6.7545e-06 -6.23271e-25)
(0.029619 0.000360317 -4.62093e-24)
(0.0296311 0.000329642 -1.05402e-23)
(0.0296408 0.000297841 4.88622e-24)
(0.0296487 0.000266205 2.04283e-23)
(0.0296553 0.000235519 -5.89612e-24)
(0.0296609 0.000206195 -2.56332e-24)
(0.0296657 0.000178419 1.48833e-24)
(0.0296698 0.000152229 -1.20984e-24)
(0.0296733 0.000127577 5.72127e-24)
(0.0296762 0.000104377 -2.87132e-24)
(0.0296787 8.25298e-05 2.81491e-24)
(0.0296807 6.19187e-05 -4.086e-24)
(0.0296823 4.24393e-05 -5.21469e-24)
(0.0296835 2.40055e-05 7.97575e-24)
(0.0296846 6.47246e-06 -3.55006e-24)
(0.0294346 0.000344326 7.45787e-24)
(0.0294521 0.000316492 -1.75418e-23)
(0.0294668 0.000287334 2.53981e-24)
(0.0294793 0.000258021 2.86023e-23)
(0.02949 0.000229278 -2.88672e-23)
(0.0294994 0.000201494 1.11891e-23)
(0.0295076 0.000174853 1.0407e-23)
(0.0295148 0.000149406 -2.41804e-23)
(0.0295211 0.000125147 1.16046e-24)
(0.0295267 0.000102026 7.31024e-24)
(0.0295316 7.99739e-05 1.39458e-24)
(0.0295358 5.89323e-05 -8.45755e-26)
(0.0295397 3.88408e-05 -4.67916e-25)
(0.029543 1.95959e-05 7.3393e-25)
(0.0295457 1.21006e-06 -4.09374e-25)
(0.0285046 0.000319686 4.70129e-24)
(0.0285293 0.000294712 -1.01456e-23)
(0.02855 0.000268444 -7.82609e-24)
(0.0285673 0.00024186 3.6696e-23)
(0.0285818 0.000215577 -3.51936e-23)
(0.0285942 0.000189923 3.27772e-24)
(0.0286046 0.00016506 6.4136e-24)
(0.0286135 0.000141055 4.10817e-24)
(0.0286209 0.000117919 4.50262e-24)
(0.0286271 9.56339e-05 -2.40285e-23)
(0.0286322 7.41732e-05 1.51409e-23)
(0.0286363 5.35024e-05 3.8547e-25)
(0.0286395 3.35952e-05 6.96596e-24)
(0.0286421 1.44232e-05 -3.19471e-24)
(0.0286443 -4.04328e-06 -5.39119e-25)
(0.026951 0.000288074 1.18419e-23)
(0.0269803 0.000265858 -2.14163e-23)
(0.0270058 0.000242514 4.26658e-24)
(0.0270277 0.000218824 -1.21314e-23)
(0.0270469 0.000195276 -1.73305e-23)
(0.0270636 0.000172126 5.617e-23)
(0.0270781 0.000149509 -2.29416e-23)
(0.0270908 0.000127485 7.075e-24)
(0.0271019 0.000106079 -4.17299e-24)
(0.0271114 8.531e-05 -1.23863e-23)
(0.0271196 6.51789e-05 2.42082e-23)
(0.0271267 4.56767e-05 -1.46282e-23)
(0.0271328 2.67986e-05 1.76883e-24)
(0.0271379 8.52078e-06 2.60718e-24)
(0.0271419 -9.21223e-06 -3.15956e-25)
(0.0250837 0.000257259 4.59448e-24)
(0.0251172 0.00023745 -2.46252e-23)
(0.0251467 0.000216663 4.41774e-23)
(0.0251725 0.000195503 -3.49822e-23)
(0.0251952 0.000174347 3.75099e-23)
(0.0252152 0.000153394 -1.17589e-23)
(0.0252327 0.000132762 -8.72931e-24)
(0.0252481 0.000112518 -1.0817e-23)
(0.0252616 9.27073e-05 2.13979e-23)
(0.0252733 7.33491e-05 8.50157e-25)
(0.0252834 5.44638e-05 -2.24664e-23)
(0.0252921 3.60345e-05 -3.61359e-24)
(0.0252993 1.80383e-05 6.28732e-24)
(0.0253055 4.75759e-07 -1.52791e-24)
(0.0253103 -1.66048e-05 3.60443e-25)
(0.0230436 0.000224872 6.14276e-25)
(0.0230811 0.000207333 -9.35454e-24)
(0.0231145 0.000188935 -5.9149e-24)
(0.0231439 0.000170144 4.62013e-23)
(0.0231698 0.00015125 -4.68904e-23)
(0.0231927 0.000132423 1.40704e-23)
(0.0232129 0.000113771 2.54913e-24)
(0.0232306 9.53642e-05 -1.43714e-24)
(0.0232459 7.72536e-05 -7.47704e-24)
(0.0232593 5.94705e-05 3.4029e-23)
(0.0232707 4.2036e-05 -2.77594e-23)
(0.0232804 2.49704e-05 -1.65721e-24)
(0.0232883 8.31875e-06 2.76125e-24)
(0.0232948 -7.89632e-06 2.95854e-24)
(0.0232997 -2.37291e-05 -2.37024e-24)
(0.0209366 0.000191784 9.16349e-25)
(0.0209772 0.000176459 8.77025e-24)
(0.0210135 0.000160387 -1.00008e-23)
(0.0210455 0.000143932 -7.55158e-24)
(0.0210738 0.000127321 5.00737e-23)
(0.0210987 0.000110696 -3.82824e-23)
(0.0211206 9.41586e-05 -6.4227e-25)
(0.0211397 7.77806e-05 -8.99029e-24)
(0.0211561 6.16149e-05 -1.0017e-24)
(0.0211702 4.57104e-05 1.20972e-24)
(0.0211821 3.01003e-05 -6.41354e-24)
(0.0211919 1.48327e-05 4.55635e-24)
(0.0211996 -8.13482e-08 1.50233e-24)
(0.0212055 -1.46505e-05 1.58401e-24)
(0.0212095 -2.88481e-05 2.4391e-24)
(0.0188341 0.000159568 6.5345e-24)
(0.0188763 0.000146435 -1.01503e-23)
(0.0189139 0.000132668 -8.88277e-24)
(0.0189471 0.000118558 2.72619e-23)
(0.0189764 0.000104276 -9.73317e-24)
(0.019002 8.99429e-05 -1.50922e-23)
(0.0190244 7.56469e-05 5.13588e-24)
(0.0190437 6.14608e-05 1.30419e-23)
(0.0190602 4.74368e-05 -2.19657e-23)
(0.0190739 3.36256e-05 2.28292e-23)
(0.0190852 2.00563e-05 -1.2964e-23)
(0.019094 6.75934e-06 6.02093e-24)
(0.0191004 -6.26483e-06 -9.01248e-24)
(0.0191047 -1.89718e-05 9.47372e-24)
(0.0191068 -3.13295e-05 -2.51657e-24)
(0.0167816 0.000129612 -1.26743e-24)
(0.0168236 0.000118629 -4.6312e-24)
(0.016861 0.000107127 -1.54435e-23)
(0.0168939 9.53363e-05 4.32417e-23)
(0.0169228 8.33769e-05 -7.32639e-24)
(0.016948 7.13469e-05 -1.29321e-23)
(0.0169697 5.93244e-05 5.02563e-24)
(0.0169881 4.73738e-05 -7.19147e-24)
(0.0170035 3.55449e-05 -1.73194e-23)
(0.017016 2.38713e-05 1.65632e-23)
(0.0170257 1.24052e-05 8.00346e-25)
(0.0170327 1.14526e-06 -6.74943e-24)
(0.0170371 -9.87376e-06 7.63877e-24)
(0.0170391 -2.05968e-05 6.14279e-25)
(0.0170387 -3.1001e-05 -7.51523e-25)
(0.0148078 0.000102877 4.87073e-24)
(0.0148481 9.39448e-05 7.64508e-24)
(0.0148839 8.46049e-05 -6.69047e-24)
(0.0149153 7.50282e-05 -1.61368e-23)
(0.0149428 6.52916e-05 2.26275e-23)
(0.0149666 5.54749e-05 -2.57589e-23)
(0.0149868 4.56452e-05 -1.69393e-24)
(0.0150036 3.58597e-05 1.05014e-23)
(0.0150173 2.61605e-05 3.9083e-24)
(0.0150279 1.65913e-05 -9.19957e-24)
(0.0150356 7.1858e-06 -7.50815e-25)
(0.0150405 -2.05209e-06 2.11332e-23)
(0.0150427 -1.10655e-05 -8.18398e-24)
(0.0150423 -1.98253e-05 -2.36679e-24)
(0.0150393 -2.83099e-05 -1.72193e-25)
(0.0129309 7.9823e-05 -5.05119e-24)
(0.0129686 7.27743e-05 6.54992e-24)
(0.0130019 6.54217e-05 8.40761e-25)
(0.0130311 5.78734e-05 1.4851e-23)
(0.0130565 5.01764e-05 -1.18014e-23)
(0.0130782 4.23987e-05 1.30601e-24)
(0.0130965 3.45988e-05 -1.12262e-24)
(0.0131114 2.68234e-05 -4.21391e-24)
(0.0131232 1.91139e-05 4.3216e-24)
(0.0131318 1.15086e-05 -1.40379e-23)
(0.0131376 4.02255e-06 4.87849e-25)
(0.0131404 -3.31258e-06 3.37922e-24)
(0.0131405 -1.046e-05 2.37119e-24)
(0.013138 -1.74021e-05 1.04308e-24)
(0.0131329 -2.41138e-05 4.64998e-25)
(0.0111626 6.0496e-05 3.73519e-24)
(0.0111969 5.51118e-05 -2.92167e-24)
(0.0112273 4.95134e-05 -1.39463e-23)
(0.0112538 4.37493e-05 1.31225e-23)
(0.0112768 3.78527e-05 1.98468e-23)
(0.0112963 3.18829e-05 -4.3735e-24)
(0.0113125 2.58871e-05 -1.04691e-23)
(0.0113255 1.99031e-05 -1.62789e-23)
(0.0113354 1.39659e-05 1.25861e-23)
(0.0113424 8.10534e-06 9.38498e-25)
(0.0113464 2.34433e-06 -3.20459e-24)
(0.0113477 -3.29975e-06 -1.06294e-24)
(0.0113462 -8.8014e-06 2.1381e-24)
(0.0113422 -1.41393e-05 -5.13358e-27)
(0.0113356 -1.92893e-05 -5.26753e-25)
(0.00950967 4.4676e-05 -2.34708e-24)
(0.00954031 4.07072e-05 -1.81977e-24)
(0.00956744 3.65955e-05 2.02721e-24)
(0.00959118 3.23412e-05 -7.30533e-24)
(0.00961164 2.79757e-05 2.4241e-23)
(0.00962893 2.3548e-05 -3.34675e-23)
(0.00964315 1.90934e-05 3.41393e-23)
(0.00965439 1.46414e-05 -1.48229e-23)
(0.00966275 1.02184e-05 3.77967e-24)
(0.00966831 5.85353e-06 3.36181e-25)
(0.00967114 1.565e-06 -3.01145e-24)
(0.00967133 -2.63466e-06 1.39576e-24)
(0.00966897 -6.73628e-06 -2.78927e-24)
(0.00966417 -1.07121e-05 -4.50901e-25)
(0.00965698 -1.45397e-05 2.44296e-25)
(0.00797534 3.20045e-05 -1.13884e-24)
(0.00800219 2.91935e-05 2.60994e-25)
(0.00802604 2.62916e-05 6.47119e-25)
(0.00804693 2.32685e-05 -3.29198e-24)
(0.00806492 2.01582e-05 -1.68675e-24)
(0.00808009 1.69973e-05 1.36771e-23)
(0.00809251 1.38111e-05 -8.16823e-24)
(0.00810225 1.06213e-05 1.30021e-24)
(0.00810936 7.4479e-06 -1.23136e-24)
(0.00811392 4.31278e-06 -1.49583e-24)
(0.008116 1.23582e-06 -5.66052e-25)
(0.00811566 -1.77143e-06 3.22147e-24)
(0.00811299 -4.7227e-06 1.13455e-24)
(0.00810809 -7.58248e-06 -2.19602e-24)
(0.008101 -1.03281e-05 -4.0375e-25)
(0.00656015 2.20747e-05 -4.13613e-25)
(0.0065832 2.01738e-05 -1.562e-25)
(0.00660378 1.82178e-05 -7.16764e-24)
(0.00662185 1.6163e-05 1.66646e-24)
(0.00663745 1.40448e-05 -5.80012e-24)
(0.00665062 1.18872e-05 3.52896e-24)
(0.0066614 9.70755e-06 7.61928e-24)
(0.00666983 7.52136e-06 6.26176e-24)
(0.00667597 5.34258e-06 -9.07003e-24)
(0.00667985 3.18502e-06 2.74969e-24)
(0.00668155 1.07117e-06 2.66065e-24)
(0.00668113 -9.86595e-07 -4.16781e-24)
(0.00667861 -3.02474e-06 2.24513e-24)
(0.00667413 -4.99966e-06 -2.96343e-25)
(0.00666772 -6.88761e-06 7.52428e-25)
(0.00526241 1.44848e-05 -1.61812e-24)
(0.0052817 1.32701e-05 -2.34838e-24)
(0.00529905 1.20239e-05 -5.74563e-25)
(0.00531434 1.07031e-05 5.95047e-24)
(0.0053276 9.33976e-06 -4.45514e-24)
(0.00533884 7.94736e-06 -1.04667e-24)
(0.00534808 6.53708e-06 7.71228e-24)
(0.00535535 5.11948e-06 1.95978e-25)
(0.00536067 3.7037e-06 -1.56953e-24)
(0.00536409 2.29807e-06 -6.77701e-24)
(0.00536563 9.16659e-07 4.75269e-25)
(0.00536539 -4.09826e-07 5.1713e-24)
(0.00536337 -1.74323e-06 -6.8441e-25)
(0.00535964 -3.04143e-06 -9.47954e-25)
(0.00535427 -4.27238e-06 6.58005e-25)
(0.00407868 8.86218e-06 -3.53298e-25)
(0.00409428 8.14086e-06 9.68277e-27)
(0.00410841 7.40418e-06 2.81488e-24)
(0.00412094 6.61702e-06 2.05302e-24)
(0.00413187 5.80387e-06 -1.22652e-24)
(0.0041412 4.97065e-06 -3.47882e-24)
(0.00414893 4.12424e-06 1.52604e-24)
(0.00415507 3.2712e-06 -6.68035e-24)
(0.00415964 2.41717e-06 5.19444e-24)
(0.00416266 1.56711e-06 2.98624e-24)
(0.00416415 7.24972e-07 1.9864e-25)
(0.0041642 -7.13347e-08 -3.51347e-24)
(0.00416282 -8.7579e-07 7.17059e-25)
(0.00415999 -1.67291e-06 -6.30976e-25)
(0.00415584 -2.42029e-06 3.37475e-25)
(0.00300409 4.87011e-06 -6.49936e-25)
(0.00301607 4.48196e-06 -7.81627e-27)
(0.00302702 4.09059e-06 2.24014e-24)
(0.00303677 3.67044e-06 -1.40874e-24)
(0.00304535 3.23646e-06 6.27228e-24)
(0.00305273 2.79036e-06 -1.16187e-23)
(0.0030589 2.33596e-06 9.88306e-24)
(0.00306388 1.87692e-06 -8.61763e-24)
(0.00306766 1.41625e-06 6.48923e-24)
(0.00307026 9.56773e-07 -4.40259e-24)
(0.00307168 4.99743e-07 1.5519e-24)
(0.00307198 6.77292e-08 2.40341e-25)
(0.00307122 -3.65848e-07 4.64904e-25)
(0.00306931 -8.01751e-07 -6.0097e-25)
(0.00306638 -1.20791e-06 1.39166e-25)
(0.00203276 2.22114e-06 9.85466e-25)
(0.00204119 2.04029e-06 1.13181e-24)
(0.00204897 1.86448e-06 -4.78826e-24)
(0.00205593 1.67642e-06 3.58704e-24)
(0.00206211 1.4826e-06 -2.17395e-27)
(0.00206747 1.28323e-06 1.06231e-24)
(0.00207202 1.08016e-06 -1.22004e-24)
(0.00207573 8.75223e-07 -2.83049e-24)
(0.00207862 6.70295e-07 2.88807e-24)
(0.00208068 4.66465e-07 3.84399e-25)
(0.00208192 2.63529e-07 -2.63828e-24)
(0.00208237 7.19419e-08 9.28035e-25)
(0.00208208 -1.19689e-07 6.42995e-25)
(0.00208099 -3.11012e-07 -7.01034e-26)
(0.00207917 -4.90226e-07 -9.34515e-26)
(0.00115809 7.06587e-07 -9.93825e-25)
(0.00116305 6.52164e-07 3.10454e-24)
(0.00116767 6.02979e-07 2.00466e-24)
(0.00117184 5.48288e-07 -3.45784e-24)
(0.00117557 4.89809e-07 -4.12943e-25)
(0.00117884 4.27928e-07 -3.95654e-25)
(0.00118164 3.63585e-07 1.28714e-24)
(0.00118397 2.97731e-07 -2.2314e-24)
(0.00118582 2.33713e-07 3.2203e-24)
(0.0011872 1.71705e-07 -1.57102e-24)
(0.00118809 1.09055e-07 -1.14442e-24)
(0.00118852 4.90876e-08 7.24988e-25)
(0.00118851 -9.88366e-09 -1.00638e-24)
(0.00118804 -6.72933e-08 1.05949e-24)
(0.00118713 -1.24756e-07 -2.02363e-25)
(0.000373055 1.3861e-07 -7.09129e-27)
(0.000374653 1.77884e-07 6.0887e-25)
(0.00037616 2.10434e-07 7.40704e-25)
(0.000377533 2.32897e-07 -1.12238e-24)
(0.000378777 2.45911e-07 2.52775e-24)
(0.000379884 2.50038e-07 -2.73174e-24)
(0.000380846 2.45932e-07 1.95466e-25)
(0.000381661 2.34251e-07 1.72401e-24)
(0.000382324 2.17375e-07 -2.39223e-24)
(0.000382836 1.95865e-07 -5.07013e-25)
(0.000383191 1.68096e-07 1.88946e-24)
(0.000383393 1.34836e-07 -8.57994e-25)
(0.000383452 9.7312e-08 -3.79779e-25)
(0.000383361 5.61643e-08 3.26564e-25)
(0.000383123 8.92367e-09 -1.67369e-26)
(0.000880858 -0.000229342 8.24219e-26)
(0.00100784 -0.000148396 2.12148e-24)
(0.00122257 -6.39904e-05 -6.11469e-24)
(0.00144248 6.55386e-06 8.91672e-24)
(0.00165471 6.50699e-05 -3.34473e-24)
(0.00186426 0.000112242 -3.24064e-24)
(0.00207148 0.00015015 3.69945e-24)
(0.0022773 0.000180456 -7.37056e-24)
(0.00248257 0.000204443 4.22226e-25)
(0.00268789 0.000223129 4.70903e-24)
(0.00289372 0.000237356 -9.20699e-25)
(0.00310048 0.000247842 1.01896e-24)
(0.00330871 0.000255251 -8.67296e-26)
(0.00351914 0.000260202 7.05685e-25)
(0.00373279 0.000263169 -2.60664e-24)
(0.00395111 0.000264453 1.45153e-24)
(0.00417621 0.000264123 -5.00464e-25)
(0.00441101 0.000262011 1.57703e-26)
(0.00465954 0.000257341 1.26068e-24)
(0.00492702 0.000248397 -7.99376e-25)
(0.00521932 0.000231377 9.96236e-26)
(0.00554083 0.000199237 -8.62063e-26)
(0.00586494 0.000144141 1.50818e-25)
(0.00614917 6.88772e-05 5.33897e-25)
(0.00637947 -2.07769e-05 -9.61208e-25)
(0.00655683 -0.000120701 -5.60569e-25)
(0.00668424 -0.000226069 8.98981e-26)
(0.00676455 -0.000332811 1.26687e-24)
(0.0068003 -0.000438313 1.30014e-24)
(0.00679381 -0.000540129 -2.48245e-24)
(0.00674697 -0.000635058 1.00894e-24)
(0.00666127 -0.000719037 -9.42005e-26)
(0.00653818 -0.000787101 -3.68563e-25)
(0.00637926 -0.000833423 -2.12561e-24)
(0.00618625 -0.000851362 2.08522e-24)
(0.00596113 -0.000833407 1.07082e-23)
(0.005706 -0.000770886 -3.38406e-24)
(0.00542309 -0.000653219 2.18273e-24)
(0.0051149 -0.000466562 9.82697e-25)
(0.00478475 -0.000192273 -1.40151e-23)
(0.00443546 0.000191675 -1.66888e-25)
(0.0040705 0.000698828 5.63506e-24)
(0.00367532 0.0012962 1.73787e-24)
(0.00326298 0.00185079 -7.83925e-24)
(0.00302779 0.00196112 -3.86987e-25)
(0.00166154 -0.000306026 -2.42904e-24)
(0.00171374 -0.000258483 -3.43879e-24)
(0.00184601 -0.00017697 7.1989e-24)
(0.00201291 -9.97399e-05 3.37156e-24)
(0.00219136 -3.16472e-05 -1.17961e-23)
(0.00237707 2.52123e-05 1.26223e-23)
(0.00256649 7.18925e-05 -4.52777e-24)
(0.00275829 0.000109974 3.66155e-24)
(0.00295209 0.000140839 -4.83889e-24)
(0.00314777 0.000165633 4.64789e-26)
(0.0033454 0.000185308 -2.70216e-24)
(0.00354514 0.000200647 5.40077e-24)
(0.00374738 0.00021236 -3.05766e-24)
(0.0039527 0.000221095 -2.96093e-24)
(0.004162 0.000227338 -2.19632e-24)
(0.00437661 0.000231393 3.83848e-24)
(0.00459844 0.000233325 -5.72121e-25)
(0.00483017 0.000232956 2.29174e-24)
(0.00507547 0.000229513 4.17188e-25)
(0.00533909 0.000221328 -7.22731e-25)
(0.00562636 0.000204789 -3.08949e-25)
(0.00594124 0.000173258 -1.7721e-25)
(0.00625785 0.000119497 8.24118e-25)
(0.00653536 4.6684e-05 8.90229e-25)
(0.00676041 -3.9491e-05 -8.98268e-25)
(0.00693408 -0.000135155 -3.58499e-24)
(0.00705926 -0.000235577 4.57124e-24)
(0.00713861 -0.000336637 -2.88198e-24)
(0.0071745 -0.000435662 9.37075e-25)
(0.0071693 -0.00053015 -2.67172e-25)
(0.00712502 -0.000616843 1.22953e-24)
(0.00704345 -0.000691644 2.89935e-25)
(0.00692639 -0.000749608 -2.9231e-24)
(0.00677593 -0.000784955 1.17289e-23)
(0.00659449 -0.00079112 -1.78201e-23)
(0.006385 -0.000760684 4.70172e-24)
(0.00615099 -0.000685119 1.83545e-23)
(0.00589682 -0.000554143 -5.41491e-24)
(0.00562836 -0.000354583 -1.40106e-23)
(0.00535471 -6.88279e-05 -8.04443e-24)
(0.00508935 0.000323865 1.83446e-23)
(0.00485504 0.000838075 -1.74346e-23)
(0.00467533 0.00144218 -3.83991e-24)
(0.0045877 0.00199274 1.1269e-23)
(0.00463389 0.00204719 3.69247e-24)
(0.00258732 -0.000312395 -2.77007e-26)
(0.00259333 -0.000304032 -3.93109e-24)
(0.00264897 -0.000253474 7.6514e-24)
(0.00275361 -0.000186426 6.46808e-24)
(0.00288469 -0.000119154 -1.0556e-23)
(0.00303383 -5.84424e-05 2.1449e-25)
(0.00319466 -6.21716e-06 1.02436e-24)
(0.00336352 3.78452e-05 1.1239e-23)
(0.00353839 7.4588e-05 -1.33445e-23)
(0.00371814 0.00010494 8.37372e-24)
(0.00390214 0.000129774 2.71092e-24)
(0.00409015 0.000149835 -1.45134e-23)
(0.00428226 0.000165813 5.26812e-24)
(0.00447883 0.000178358 2.23012e-24)
(0.00468055 0.000187942 -4.92416e-24)
(0.00488855 0.000194855 8.26891e-24)
(0.00510455 0.000199149 -6.04522e-24)
(0.00533092 0.000200637 -2.07625e-25)
(0.00557094 0.000198539 4.63306e-25)
(0.00582884 0.000191242 5.54908e-25)
(0.00610934 0.000175322 7.86232e-26)
(0.00641588 0.000144549 3.2829e-25)
(0.00672333 9.22781e-05 -8.20951e-25)
(0.00699265 2.20793e-05 2.36336e-24)
(0.00721114 -6.04329e-05 -3.50397e-24)
(0.00738 -0.000151636 1.97305e-24)
(0.007502 -0.000246887 -3.80466e-24)
(0.00757962 -0.000341995 5.0678e-24)
(0.00761508 -0.000434226 -3.58032e-24)
(0.00761078 -0.000521041 1.04871e-24)
(0.00756891 -0.000599129 1.55859e-24)
(0.00749153 -0.000664378 -2.51304e-25)
(0.00738087 -0.000711889 5.97028e-25)
(0.00723954 -0.000736002 6.07441e-24)
(0.00707072 -0.000730345 -1.54977e-23)
(0.00687835 -0.000687819 2.47957e-23)
(0.00666738 -0.00060043 -1.65171e-23)
(0.00644432 -0.000458894 2.27425e-23)
(0.0062182 -0.000252012 -4.29836e-23)
(0.00600269 3.40938e-05 1.62561e-23)
(0.00581875 0.000413784 5.52604e-24)
(0.00569896 0.000893263 8.54319e-24)
(0.00567895 0.00143446 -1.06287e-23)
(0.0057795 0.00189804 3.12835e-24)
(0.00596441 0.00193513 -1.91751e-24)
(0.00364361 -0.00029434 -1.03442e-24)
(0.00362339 -0.000310213 -1.58703e-24)
(0.00363075 -0.000288435 -6.81651e-24)
(0.00367559 -0.000243874 1.84531e-24)
(0.00375474 -0.000187373 1.2183e-24)
(0.00385896 -0.00013041 5.40707e-24)
(0.00398197 -7.78225e-05 -1.14401e-23)
(0.00411909 -3.11882e-05 4.31435e-24)
(0.00426705 9.20053e-06 1.47894e-23)
(0.00442372 4.36376e-05 -3.87272e-24)
(0.00458774 7.26497e-05 -3.75886e-24)
(0.00475832 9.67712e-05 -6.18909e-25)
(0.00493519 0.000116574 2.13416e-24)
(0.00511842 0.000132642 -4.28455e-24)
(0.00530842 0.000145391 9.45513e-25)
(0.00550609 0.000155063 -4.57526e-25)
(0.00571289 0.000161679 -2.52042e-24)
(0.00593087 0.00016503 7.97038e-25)
(0.00616287 0.000164324 4.52371e-24)
(0.00641256 0.000157999 -5.16967e-25)
(0.00668399 0.000142822 -1.05716e-24)
(0.00697996 0.000112973 -2.79596e-25)
(0.00727615 6.23924e-05 -1.4455e-24)
(0.00753537 -4.96177e-06 3.39248e-26)
(0.00774563 -8.35521e-05 -2.91104e-24)
(0.00790819 -0.000170024 5.25792e-24)
(0.00802576 -0.000259813 -3.81658e-24)
(0.0081006 -0.000348634 7.03889e-24)
(0.0081348 -0.000433706 -5.14299e-24)
(0.0081308 -0.000512479 1.47402e-24)
(0.00809102 -0.000581619 1.21832e-24)
(0.00801782 -0.000637043 -2.93689e-25)
(0.00791383 -0.000673971 -4.01883e-25)
(0.00778225 -0.000686968 -1.79774e-24)
(0.00762699 -0.000670037 2.57466e-24)
(0.00745297 -0.000616674 -7.53852e-24)
(0.00726647 -0.000519857 3.4238e-23)
(0.00707574 -0.000371987 -1.82883e-23)
(0.00689205 -0.000164911 -8.32809e-25)
(0.00673148 0.000109736 -3.78218e-23)
(0.00661702 0.000457952 2.85475e-23)
(0.0065802 0.000875292 -1.03391e-23)
(0.00665209 0.00132273 2.31674e-24)
(0.00683657 0.00169348 1.34373e-23)
(0.0070816 0.00177961 -3.43138e-24)
(0.00482762 -0.000266145 -4.28613e-24)
(0.00479706 -0.000293368 8.75376e-24)
(0.00477754 -0.000289671 2.4464e-24)
(0.00478122 -0.000268755 1.07308e-23)