/*--------------------------------*- C++ -*----------------------------------*\
| =========                 |                                                 |
| \\      /  F ield         | OpenFOAM: The Open Source CFD Toolbox           |
|  \\    /   O peration     | Version:  2312                                  |
|   \\  /    A nd           | Website:  www.openfoam.com                      |
|    \\/     M anipulation  |                                                 |
\*---------------------------------------------------------------------------*/
FoamFile
{
    version     2.0;
    format      ascii;
    arch        "LSB;label=32;scalar=64";
    class       volScalarField;
    location    "25";
    object      p;
}
// * * * * * * * * * * * * * * * * * * * * * * * * * * * * * * * * * * * * * //

dimensions      [0 2 -2 0 0 0 0];

internalField   nonuniform List<scalar> 
4800
(
-4.05504e-13
-1.41515e-06
-2.59345e-06
-3.59158e-06
-4.448e-06
-5.18814e-06
-5.83638e-06
-6.41045e-06
-6.91898e-06
-7.37417e-06
-7.78477e-06
-8.15296e-06
-8.47244e-06
-8.97498e-06
-1.06108e-05
1.55269e-08
-1.397e-06
-2.57346e-06
-3.57044e-06
-4.42686e-06
-5.16807e-06
-5.81886e-06
-6.39695e-06
-6.91146e-06
-7.37639e-06
-7.80567e-06
-8.21493e-06
-8.61898e-06
-9.12471e-06
-9.97998e-06
3.20986e-08
-1.37752e-06
-2.55209e-06
-3.54808e-06
-4.40438e-06
-5.14648e-06
-5.79814e-06
-6.37923e-06
-6.89852e-06
-7.37049e-06
-7.81052e-06
-8.23503e-06
-8.65327e-06
-9.07429e-06
-9.47714e-06
4.92499e-08
-1.35684e-06
-2.52898e-06
-3.52349e-06
-4.37906e-06
-5.12206e-06
-5.77289e-06
-6.35514e-06
-6.87654e-06
-7.34969e-06
-7.78769e-06
-8.19848e-06
-8.57501e-06
-8.88717e-06
-9.0665e-06
6.8492e-08
-1.3332e-06
-2.50214e-06
-3.49438e-06
-4.34834e-06
-5.09104e-06
-5.74075e-06
-6.32061e-06
-6.83998e-06
-7.30701e-06
-7.72987e-06
-8.1071e-06
-8.42053e-06
-8.63255e-06
-8.68896e-06
9.13079e-08
-1.30502e-06
-2.46982e-06
-3.45882e-06
-4.30999e-06
-5.05009e-06
-5.69773e-06
-6.27152e-06
-6.78264e-06
-7.23491e-06
-7.6306e-06
-7.96204e-06
-8.20886e-06
-8.3421e-06
-8.33411e-06
1.19889e-07
-1.27008e-06
-2.42964e-06
-3.41409e-06
-4.26083e-06
-4.99599e-06
-5.63787e-06
-6.20192e-06
-6.69769e-06
-7.12638e-06
-7.48584e-06
-7.76671e-06
-7.95341e-06
-8.0311e-06
-7.99306e-06
1.57913e-07
-1.22477e-06
-2.37779e-06
-3.35601e-06
-4.19608e-06
-4.92332e-06
-5.55497e-06
-6.10407e-06
-6.57769e-06
-6.97569e-06
-7.29441e-06
-7.5268e-06
-7.66515e-06
-7.70707e-06
-7.65764e-06
2.10921e-07
-1.16361e-06
-2.3086e-06
-3.27849e-06
-4.10907e-06
-4.82465e-06
-5.44126e-06
-5.96982e-06
-6.41563e-06
-6.77882e-06
-7.05703e-06
-7.24778e-06
-7.35092e-06
-7.37222e-06
-7.32183e-06
2.86188e-07
-1.07926e-06
-2.21441e-06
-3.17343e-06
-3.99118e-06
-4.69092e-06
-5.28765e-06
-5.79094e-06
-6.20546e-06
-6.53325e-06
-6.77506e-06
-6.93329e-06
-7.01331e-06
-7.02512e-06
-6.98011e-06
3.91979e-07
-9.62905e-07
-2.08589e-06
-3.03101e-06
-3.83225e-06
-4.51199e-06
-5.08461e-06
-5.55938e-06
-5.94226e-06
-6.23742e-06
-6.44941e-06
-6.58466e-06
-6.65173e-06
-6.6621e-06
-6.6266e-06
5.36641e-07
-8.05147e-07
-1.91283e-06
-2.84048e-06
-3.62146e-06
-4.2776e-06
-4.8234e-06
-5.269e-06
-5.62229e-06
-5.89006e-06
-6.08002e-06
-6.20116e-06
-6.26343e-06
-6.27819e-06
-6.25505e-06
7.28349e-07
-5.96356e-07
-1.68467e-06
-2.59089e-06
-3.34816e-06
-3.97831e-06
-4.49662e-06
-4.9148e-06
-5.24279e-06
-5.48983e-06
-5.66564e-06
-5.78043e-06
-5.84432e-06
-5.86779e-06
-5.85912e-06
9.75282e-07
-3.26585e-07
-1.3906e-06
-2.2713e-06
-3.00214e-06
-3.60549e-06
-4.0978e-06
-4.4924e-06
-4.80098e-06
-5.03445e-06
-5.20349e-06
-5.31852e-06
-5.38917e-06
-5.42472e-06
-5.43226e-06
1.28543e-06
1.4226e-08
-1.01974e-06
-1.87096e-06
-2.57361e-06
-3.15095e-06
-3.62052e-06
-3.99683e-06
-4.29262e-06
-4.51956e-06
-4.68844e-06
-4.80931e-06
-4.89096e-06
-4.94151e-06
-4.96703e-06
1.66556e-06
4.35167e-07
-5.62225e-07
-1.38032e-06
-2.05396e-06
-2.60727e-06
-3.05844e-06
-3.42237e-06
-3.71198e-06
-3.93895e-06
-4.11351e-06
-4.245e-06
-4.34137e-06
-4.40968e-06
-4.45517e-06
2.11905e-06
9.42113e-07
-1.14164e-08
-7.93018e-07
-1.4375e-06
-1.96929e-06
-2.4066e-06
-2.76398e-06
-3.05369e-06
-3.28651e-06
-3.47186e-06
-3.61832e-06
-3.733e-06
-3.82198e-06
-3.88983e-06
2.64322e-06
1.5345e-06
6.32875e-07
-1.08955e-07
-7.24291e-07
-1.23684e-06
-1.66406e-06
-2.01957e-06
-2.31451e-06
-2.55837e-06
-2.75913e-06
-2.92472e-06
-3.06143e-06
-3.17445e-06
-3.26774e-06
3.2272e-06
2.20206e-06
1.36075e-06
6.62129e-07
7.62411e-08
-4.18581e-07
-8.3816e-07
-1.19455e-06
-1.4975e-06
-1.7554e-06
-1.9755e-06
-2.16372e-06
-2.32542e-06
-2.46529e-06
-2.58698e-06
3.8498e-06
2.92165e-06
2.14816e-06
1.496e-06
9.4011e-07
4.61995e-07
4.81199e-08
-3.11631e-07
-6.25181e-07
-8.99117e-07
-1.13927e-06
-1.35079e-06
-1.5385e-06
-1.70652e-06
-1.85822e-06
4.44793e-06
3.61958e-06
2.91511e-06
2.30925e-06
1.78247e-06
1.32006e-06
9.11081e-07
5.47254e-07
2.22103e-07
-6.9614e-08
-3.32222e-07
-5.69538e-07
-7.85872e-07
-9.84654e-07
-1.16869e-06
4.93818e-06
4.19634e-06
3.55181e-06
2.9861e-06
2.48462e-06
2.03617e-06
1.63224e-06
1.26622e-06
9.3278e-07
6.27275e-07
3.45385e-07
8.34936e-08
-1.59867e-07
-3.86826e-07
-5.99891e-07
5.3047e-06
4.63017e-06
4.03218e-06
3.49736e-06
3.01499e-06
2.57658e-06
2.17544e-06
1.80617e-06
1.46429e-06
1.14605e-06
8.48411e-07
5.69273e-07
3.06139e-07
5.71394e-08
-1.79583e-07
5.57221e-06
4.95015e-06
4.38878e-06
3.87851e-06
3.4115e-06
2.98131e-06
2.58262e-06
2.21105e-06
1.86295e-06
1.53535e-06
1.22578e-06
9.32124e-07
6.52479e-07
3.8523e-07
1.28833e-07
5.76527e-06
5.18421e-06
4.65198e-06
4.16158e-06
3.7072e-06
3.28385e-06
2.88727e-06
2.51387e-06
2.16066e-06
1.8252e-06
1.50536e-06
1.19926e-06
9.05511e-07
6.2278e-07
3.49774e-07
5.90327e-06
5.35446e-06
4.84548e-06
4.37109e-06
3.92688e-06
3.50895e-06
3.11383e-06
2.7386e-06
2.38078e-06
2.03832e-06
1.70948e-06
1.39286e-06
1.0872e-06
7.91424e-07
5.04468e-07
6.00105e-06
5.47782e-06
4.98739e-06
4.5258e-06
4.08968e-06
3.6759e-06
3.28163e-06
2.90451e-06
2.54252e-06
2.19398e-06
1.85743e-06
1.53186e-06
1.21615e-06
9.09407e-07
6.10749e-07
6.06984e-06
5.56709e-06
5.09154e-06
4.64023e-06
4.21053e-06
3.79989e-06
3.40605e-06
3.02708e-06
2.66137e-06
2.3076e-06
1.96447e-06
1.63125e-06
1.30698e-06
9.9095e-07
6.8243e-07
6.11797e-06
5.63185e-06
5.16839e-06
4.72541e-06
4.30084e-06
3.89262e-06
3.49891e-06
3.11818e-06
2.74912e-06
2.39063e-06
2.04201e-06
1.70224e-06
1.37065e-06
1.04672e-06
7.29851e-07
6.1516e-06
5.67918e-06
5.22567e-06
4.78955e-06
4.36915e-06
3.96279e-06
3.56902e-06
3.18665e-06
2.81466e-06
2.45218e-06
2.09859e-06
1.75313e-06
1.41526e-06
1.08458e-06
7.60614e-07
6.17521e-06
5.71425e-06
5.26908e-06
4.83867e-06
4.42167e-06
4.01677e-06
3.62283e-06
3.23893e-06
2.86429e-06
2.49832e-06
2.14038e-06
1.78998e-06
1.4467e-06
1.11024e-06
7.80187e-07
6.19199e-06
5.74077e-06
5.30267e-06
4.87707e-06
4.4629e-06
4.05914e-06
3.66495e-06
3.27966e-06
2.90269e-06
2.53357e-06
2.17183e-06
1.81713e-06
1.46916e-06
1.12768e-06
7.92389e-07
6.20421e-06
5.76134e-06
5.32931e-06
4.9078e-06
4.49599e-06
4.09314e-06
3.69867e-06
3.3121e-06
2.93304e-06
2.56112e-06
2.19604e-06
1.83758e-06
1.4855e-06
1.13966e-06
7.99814e-07
6.21341e-06
5.77777e-06
5.35097e-06
4.93297e-06
4.52315e-06
4.12105e-06
3.72627e-06
3.33852e-06
2.95757e-06
2.58318e-06
2.21515e-06
1.85337e-06
1.49768e-06
1.14801e-06
8.04184e-07
6.2206e-06
5.79127e-06
5.36901e-06
4.95402e-06
4.54591e-06
4.14441e-06
3.74932e-06
3.36049e-06
2.97784e-06
2.60123e-06
2.23058e-06
1.86586e-06
1.50699e-06
1.15394e-06
8.06615e-07
6.22642e-06
5.80261e-06
5.38431e-06
4.97194e-06
4.56527e-06
4.16427e-06
3.76886e-06
3.37904e-06
2.99487e-06
2.61628e-06
2.24329e-06
1.87596e-06
1.51426e-06
1.15824e-06
8.07823e-07
6.23128e-06
5.8123e-06
5.39744e-06
4.98732e-06
4.5819e-06
4.18131e-06
3.78557e-06
3.39486e-06
3.00932e-06
2.62896e-06
2.2539e-06
1.88424e-06
1.52005e-06
1.1614e-06
8.08261e-07
6.23548e-06
5.82072e-06
5.40887e-06
5.0007e-06
4.59634e-06
4.19608e-06
3.8e-06
3.40852e-06
3.02173e-06
2.63979e-06
2.26288e-06
1.89118e-06
1.52477e-06
1.16377e-06
8.082e-07
6.23935e-06
5.82852e-06
5.41944e-06
5.01307e-06
4.60968e-06
4.20964e-06
3.81331e-06
3.42105e-06
3.03307e-06
2.64963e-06
2.27098e-06
1.89735e-06
1.52886e-06
1.16565e-06
8.07776e-07
6.24297e-06
5.83606e-06
5.42966e-06
5.02502e-06
4.62257e-06
4.22281e-06
3.82614e-06
3.43309e-06
3.04394e-06
2.65902e-06
2.27862e-06
1.903e-06
1.53244e-06
1.16714e-06
8.07171e-07
-1.19762e-05
-9.72234e-06
-8.33681e-06
-7.40738e-06
-6.66187e-06
-6.08658e-06
-5.63615e-06
-5.27941e-06
-4.99575e-06
-4.76915e-06
-4.58684e-06
-4.43835e-06
-4.315e-06
-4.21019e-06
-4.11969e-06
-4.04346e-06
-3.98691e-06
-3.9656e-06
-4.00689e-06
-4.15591e-06
-4.46926e-06
-5.00203e-06
-5.70306e-06
-6.363e-06
-6.82516e-06
-7.01318e-06
-6.89035e-06
-6.44565e-06
-5.68002e-06
-4.60131e-06
-3.22338e-06
-1.56752e-06
3.36067e-07
2.44777e-06
4.71928e-06
7.09502e-06
9.51341e-06
1.19071e-05
1.42002e-05
1.63014e-05
1.80845e-05
1.9386e-05
1.98313e-05
1.90955e-05
1.59604e-05
-1.03541e-05
-9.18552e-06
-8.13682e-06
-7.30835e-06
-6.60843e-06
-6.04881e-06
-5.60402e-06
-5.24957e-06
-4.96726e-06
-4.74196e-06
-4.56117e-06
-4.41446e-06
-4.29318e-06
-4.19075e-06
-4.10299e-06
-4.02992e-06
-3.97696e-06
-3.95953e-06
-4.00452e-06
-4.15608e-06
-4.46918e-06
-4.99701e-06
-5.68836e-06
-6.33693e-06
-6.78888e-06
-6.96907e-06
-6.84099e-06
-6.39355e-06
-5.62786e-06
-4.55242e-06
-3.1822e-06
-1.5401e-06
3.41681e-07
2.42106e-06
4.64657e-06
6.95836e-06
9.28863e-06
1.15605e-05
1.36827e-05
1.55376e-05
1.69491e-05
1.76455e-05
1.70951e-05
1.45397e-05
9.00286e-06
-9.50305e-06
-8.76625e-06
-7.92913e-06
-7.19189e-06
-6.54269e-06
-6.00468e-06
-5.56881e-06
-5.2182e-06
-4.93782e-06
-4.71398e-06
-4.53468e-06
-4.38969e-06
-4.27045e-06
-4.17043e-06
-4.08552e-06
-4.01583e-06
-3.96681e-06
-3.95369e-06
-4.00284e-06
-4.15725e-06
-4.46999e-06
-4.99205e-06
-5.67204e-06
-6.30721e-06
-6.74713e-06
-6.91815e-06
-6.78416e-06
-6.33412e-06
-5.56948e-06
-4.49962e-06
-3.14102e-06
-1.51862e-06
3.32791e-07
2.36795e-06
4.53135e-06
6.75773e-06
8.97175e-06
1.10856e-05
1.29917e-05
1.4549e-05
1.55523e-05
1.5695e-05
1.44997e-05
1.14414e-05
6.42483e-06
-8.95782e-06
-8.42273e-06
-7.74618e-06
-7.08187e-06
-6.48111e-06
-5.96601e-06
-5.53955e-06
-5.19231e-06
-4.91292e-06
-4.68945e-06
-4.51063e-06
-4.36653e-06
-4.2487e-06
-4.15067e-06
-4.06842e-06
-4.00209e-06
-3.95713e-06
-3.94858e-06
-4.00215e-06
-4.15955e-06
-4.47178e-06
-4.98728e-06
-5.65434e-06
-6.27408e-06
-6.6998e-06
-6.85955e-06
-6.71784e-06
-6.26388e-06
-5.49975e-06
-4.4361e-06
-3.09141e-06
-1.49331e-06
3.20077e-07
2.29951e-06
4.38459e-06
6.50383e-06
8.57382e-06
1.04963e-05
1.21511e-05
1.33851e-05
1.39929e-05
1.37061e-05
1.21993e-05
9.22869e-06
5.0471e-06
-8.53239e-06
-8.11846e-06
-7.56624e-06
-6.98562e-06
-6.4299e-06
-5.93762e-06
-5.52054e-06
-5.1756e-06
-4.89562e-06
-4.67082e-06
-4.4909e-06
-4.34638e-06
-4.22897e-06
-4.13228e-06
-4.05234e-06
-3.9893e-06
-3.94859e-06
-3.94489e-06
-4.00325e-06
-4.1638e-06
-4.47521e-06
-4.98301e-06
-5.63512e-06
-6.23712e-06
-6.64652e-06
-6.79331e-06
-6.64288e-06
-6.18493e-06
-5.42248e-06
-4.36783e-06
-3.04189e-06
-1.47551e-06
2.89388e-07
2.19906e-06
4.18788e-06
6.17823e-06
8.07964e-06
9.78644e-06
1.11734e-05
1.20902e-05
1.23587e-05
1.17837e-05
1.01939e-05
7.5463e-06
4.11726e-06
-8.173e-06
-7.84222e-06
-7.38619e-06
-6.88824e-06
-6.3855e-06
-5.91904e-06
-5.51307e-06
-5.17035e-06
-4.88869e-06
-4.66089e-06
-4.47808e-06
-4.33149e-06
-4.21315e-06
-4.11684e-06
-4.03862e-06
-3.97866e-06
-3.94226e-06
-3.94371e-06
-4.00713e-06
-4.17088e-06
-4.48097e-06
-4.97959e-06
-5.61429e-06
-6.19586e-06
-6.58661e-06
-6.7188e-06
-6.559e-06
-6.09769e-06
-5.33918e-06
-4.29779e-06
-2.99733e-06
-1.47221e-06
2.31465e-07
2.05535e-06
3.92884e-06
5.76923e-06
7.48151e-06
8.95774e-06
1.00766e-05
1.07056e-05
1.07085e-05
9.96883e-06
8.42979e-06
6.15794e-06
3.4076e-06
-7.84476e-06
-7.57781e-06
-7.20705e-06
-6.77773e-06
-6.33302e-06
-5.90304e-06
-5.51264e-06
-5.1753e-06
-4.89285e-06
-4.66146e-06
-4.47442e-06
-4.32419e-06
-4.20349e-06
-4.10638e-06
-4.0291e-06
-3.9718e-06
-3.93963e-06
-3.94634e-06
-4.01497e-06
-4.18182e-06
-4.48983e-06
-4.97744e-06
-5.5918e-06
-6.14985e-06
-6.51936e-06
-6.63523e-06
-6.46555e-06
-6.00197e-06
-5.2505e-06
-4.22789e-06
-2.96118e-06
-1.48864e-06
1.39382e-07
1.86026e-06
3.5994e-06
5.27108e-06
6.77956e-06
8.02085e-06
8.88629e-06
9.27019e-06
9.08258e-06
8.27166e-06
6.85067e-06
4.92506e-06
2.70212e-06
-7.52738e-06
-7.31103e-06
-7.01177e-06
-6.6524e-06
-6.26437e-06
-5.8755e-06
-5.51056e-06
-5.18477e-06
-4.90506e-06
-4.67152e-06
-4.48028e-06
-4.32569e-06
-4.20158e-06
-4.10269e-06
-4.02558e-06
-3.97048e-06
-3.94237e-06
-3.95435e-06
-4.02821e-06
-4.1978e-06
-4.5027e-06
-4.97703e-06
-5.56762e-06
-6.09868e-06
-6.44415e-06
-6.54198e-06
-6.36225e-06
-5.89822e-06
-5.158e-06
-4.16118e-06
-2.93827e-06
-1.53143e-06
5.11603e-09
1.60535e-06
3.19248e-06
4.68079e-06
5.9783e-06
6.99097e-06
7.62903e-06
7.81666e-06
7.50475e-06
6.6862e-06
5.40863e-06
3.77952e-06
1.95724e-06
-7.21063e-06
-7.03538e-06
-6.79498e-06
-6.49993e-06
-6.17e-06
-5.82805e-06
-5.49576e-06
-5.18922e-06
-4.91822e-06
-4.68642e-06
-4.49311e-06
-4.33497e-06
-4.20752e-06
-4.10656e-06
-4.02928e-06
-3.97615e-06
-3.95205e-06
-3.96931e-06
-4.04831e-06
-4.22009e-06
-4.52049e-06
-4.97885e-06
-5.54174e-06
-6.04199e-06
-6.36056e-06
-6.4389e-06
-6.24955e-06
-5.78791e-06
-5.06467e-06
-4.10247e-06
-2.93532e-06
-1.60893e-06
-1.80547e-07
1.28202e-06
2.70227e-06
3.99803e-06
5.08551e-06
5.88507e-06
6.32846e-06
6.36767e-06
5.98433e-06
5.19726e-06
4.06545e-06
2.6834e-06
1.16883e-06
-6.88801e-06
-6.74719e-06
-6.55552e-06
-6.3171e-06
-6.04341e-06
-5.75096e-06
-5.45727e-06
-5.17745e-06
-4.92239e-06
-4.69828e-06
-4.50718e-06
-4.34831e-06
-4.21918e-06
-4.11709e-06
-4.04018e-06
-3.9894e-06
-3.96961e-06
-3.99236e-06
-4.0764e-06
-4.2497e-06
-4.54396e-06
-4.98326e-06
-5.51411e-06
-5.97956e-06
-6.26857e-06
-6.32654e-06
-6.12899e-06
-5.67401e-06
-4.97526e-06
-4.0585e-06
-2.96091e-06
-1.7309e-06
-4.273e-07
8.82443e-07
2.12507e-06
3.22542e-06
4.11136e-06
4.71979e-06
5.0032e-06
4.93604e-06
4.51988e-06
3.78542e-06
2.79034e-06
1.61199e-06
3.37021e-07
-6.55357e-06
-6.44274e-06
-6.29222e-06
-6.10305e-06
-5.88132e-06
-5.63801e-06
-5.38635e-06
-5.13919e-06
-4.9071e-06
-4.6975e-06
-4.51449e-06
-4.3595e-06
-4.23213e-06
-4.13135e-06
-4.05658e-06
-4.00944e-06
-3.9949e-06
-4.02372e-06
-4.11292e-06
-4.28704e-06
-4.57337e-06
-4.99038e-06
-5.48475e-06
-5.91158e-06
-6.16898e-06
-6.20673e-06
-6.00379e-06
-5.5615e-06
-4.89677e-06
-4.03822e-06
-3.02538e-06
-1.908e-06
-7.44547e-07
4.00438e-07
1.45985e-06
2.36833e-06
3.06723e-06
3.50981e-06
3.66611e-06
3.52651e-06
3.1035e-06
2.43063e-06
1.55854e-06
5.4801e-07
-5.37157e-07
-6.2012e-06
-6.11749e-06
-6.00268e-06
-5.8565e-06
-5.68185e-06
-5.48557e-06
-5.27707e-06
-5.0665e-06
-4.8632e-06
-4.6747e-06
-4.50624e-06
-4.36094e-06
-4.24018e-06
-4.14464e-06
-4.07508e-06
-4.03396e-06
-4.02643e-06
-4.06247e-06
-4.1572e-06
-4.33161e-06
-4.6083e-06
-5.00001e-06
-5.45395e-06
-5.83905e-06
-6.06395e-06
-6.08326e-06
-5.87955e-06
-5.458e-06
-4.83879e-06
-4.05274e-06
-3.14038e-06
-2.15099e-06
-1.14036e-06
-1.67614e-07
7.0864e-07
1.43447e-06
1.96481e-06
2.26727e-06
2.32513e-06
2.13863e-06
1.72475e-06
1.11486e-06
3.50726e-07
-5.20964e-07
-1.45315e-06
-5.82468e-06
-5.76629e-06
-5.68341e-06
-5.57533e-06
-5.44321e-06
-5.2911e-06
-5.12538e-06
-4.95361e-06
-4.78345e-06
-4.62179e-06
-4.47422e-06
-4.34484e-06
-4.23646e-06
-4.15118e-06
-4.09102e-06
-4.05931e-06
-4.06138e-06
-4.10641e-06
-4.20745e-06
-4.38192e-06
-4.64762e-06
-5.01171e-06
-5.42257e-06
-5.76443e-06
-5.95787e-06
-5.96269e-06
-5.76487e-06
-5.37403e-06
-4.81344e-06
-4.11485e-06
-3.31795e-06
-2.46941e-06
-1.62012e-06
-8.21719e-07
-1.22944e-07
4.33901e-07
8.16021e-07
1.00246e-06
9.85325e-07
7.70006e-07
3.73922e-07
-1.76062e-07
-8.46878e-07
-1.60322e-06
-2.41033e-06
-5.41768e-06
-5.38362e-06
-5.33016e-06
-5.25661e-06
-5.16327e-06
-5.05245e-06
-4.92831e-06
-4.79628e-06
-4.66228e-06
-4.5322e-06
-4.41129e-06
-4.30409e-06
-4.21423e-06
-4.14491e-06
-4.09916e-06
-4.08104e-06
-4.09597e-06
-4.15239e-06
-4.26093e-06
-4.43576e-06
-4.68971e-06
-5.02512e-06
-5.39244e-06
-5.69225e-06
-5.85833e-06
-5.85502e-06
-5.67154e-06
-5.32287e-06
-4.83468e-06
-4.23772e-06
-3.56881e-06
-2.86987e-06
-2.18506e-06
-1.55735e-06
-1.02537e-06
-6.20818e-07
-3.66462e-07
-2.74823e-07
-3.48681e-07
-5.80784e-07
-9.55499e-07
-1.45112e-06
-2.04226e-06
-2.70258e-06
-3.40642e-06
-4.97316e-06
-4.96323e-06
-4.93786e-06
-4.89655e-06
-4.83929e-06
-4.76737e-06
-4.68347e-06
-4.59141e-06
-4.4956e-06
-4.40078e-06
-4.31158e-06
-4.23243e-06
-4.16726e-06
-4.11993e-06
-4.09409e-06
-4.09434e-06
-4.12588e-06
-4.19653e-06
-4.31451e-06
-4.49077e-06
-4.73318e-06
-5.04055e-06
-5.36673e-06
-5.62966e-06
-5.77671e-06
-5.77301e-06
-5.61342e-06
-5.31935e-06
-4.91675e-06
-4.43306e-06
-3.90034e-06
-3.35423e-06
-2.83108e-06
-2.36499e-06
-1.98524e-06
-1.71463e-06
-1.56839e-06
-1.55384e-06
-1.67087e-06
-1.91234e-06
-2.26543e-06
-2.71343e-06
-3.23737e-06
-3.81788e-06
-4.43607e-06
-4.48343e-06
-4.49831e-06
-4.50081e-06
-4.49072e-06
-4.468e-06
-4.43344e-06
-4.38881e-06
-4.33677e-06
-4.28057e-06
-4.2239e-06
-4.17064e-06
-4.12475e-06
-4.09014e-06
-4.07073e-06
-4.07059e-06
-4.09416e-06
-4.14673e-06
-4.23446e-06
-4.36483e-06
-4.54474e-06
-4.77798e-06
-5.05997e-06
-5.35146e-06
-5.58795e-06
-5.72601e-06
-5.72855e-06
-5.60538e-06
-5.37932e-06
-5.07312e-06
-4.70971e-06
-4.31546e-06
-3.91901e-06
-3.54883e-06
-3.23079e-06
-2.98629e-06
-2.83116e-06
-2.77526e-06
-2.82312e-06
-2.97342e-06
-3.22012e-06
-3.5534e-06
-3.96091e-06
-4.42889e-06
-4.94333e-06
-5.49045e-06
-3.94219e-06
-3.98333e-06
-4.01444e-06
-4.03562e-06
-4.04699e-06
-4.04917e-06
-4.04342e-06
-4.03162e-06
-4.01619e-06
-3.99996e-06
-3.98608e-06
-3.9779e-06
-3.97903e-06
-3.99309e-06
-4.02414e-06
-4.07619e-06
-4.15427e-06
-4.26296e-06
-4.40892e-06
-4.59585e-06
-4.82501e-06
-5.09028e-06
-5.35862e-06
-5.57767e-06
-5.70868e-06
-5.73385e-06
-5.66401e-06
-5.51825e-06
-5.31483e-06
-5.07265e-06
-4.81251e-06
-4.55633e-06
-4.32538e-06
-4.13857e-06
-4.01118e-06
-3.95391e-06
-3.97293e-06
-4.07133e-06
-4.24786e-06
-4.49786e-06
-4.81424e-06
-5.18826e-06
-5.61027e-06
-6.07032e-06
-6.55854e-06
-3.34699e-06
-3.41662e-06
-3.47797e-06
-3.53143e-06
-3.57741e-06
-3.61656e-06
-3.64989e-06
-3.67882e-06
-3.7052e-06
-3.7312e-06
-3.75933e-06
-3.7924e-06
-3.83343e-06
-3.8857e-06
-3.95269e-06
-4.03814e-06
-4.14604e-06
-4.28052e-06
-4.44568e-06
-4.64424e-06
-4.87585e-06
-5.13564e-06
-5.39178e-06
-5.60062e-06
-5.74006e-06
-5.8051e-06
-5.80232e-06
-5.74422e-06
-5.64473e-06
-5.519e-06
-5.38308e-06
-5.25316e-06
-5.14445e-06
-5.07028e-06
-5.04132e-06
-5.06508e-06
-5.14601e-06
-5.28589e-06
-5.48373e-06
-5.73639e-06
-6.03914e-06
-6.38616e-06
-6.77093e-06
-7.18659e-06
-7.62618e-06
-2.69624e-06
-2.79742e-06
-2.89172e-06
-2.97968e-06
-3.062e-06
-3.13945e-06
-3.213e-06
-3.28379e-06
-3.35327e-06
-3.42318e-06
-3.49549e-06
-3.57249e-06
-3.65667e-06
-3.75074e-06
-3.85763e-06
-3.98041e-06
-4.12229e-06
-4.2864e-06
-4.47546e-06
-4.69121e-06
-4.93315e-06
-5.19675e-06
-5.45382e-06
-5.67064e-06
-5.83721e-06
-5.95363e-06
-6.02336e-06
-6.05344e-06
-6.05366e-06
-6.03543e-06
-6.01067e-06
-5.99099e-06
-5.9869e-06
-6.00737e-06
-6.05962e-06
-6.14936e-06
-6.2805e-06
-6.45379e-06
-6.66866e-06
-6.92341e-06
-7.21526e-06
-7.5406e-06
-7.89522e-06
-8.27457e-06
-8.67389e-06
-1.99932e-06
-2.13408e-06
-2.26346e-06
-2.38797e-06
-2.50844e-06
-2.62578e-06
-2.74092e-06
-2.85489e-06
-2.96885e-06
-3.08417e-06
-3.20243e-06
-3.32543e-06
-3.45515e-06
-3.59374e-06
-3.74349e-06
-3.9068e-06
-4.08607e-06
-4.28359e-06
-4.50129e-06
-4.74033e-06
-5.00043e-06
-5.27866e-06
-5.55233e-06
-5.7957e-06
-6.00328e-06
-6.17637e-06
-6.31715e-06
-6.42988e-06
-6.52095e-06
-6.59822e-06
-6.66999e-06
-6.74427e-06
-6.82824e-06
-6.92803e-06
-7.04841e-06
-7.19269e-06
-7.36349e-06
-7.56267e-06
-7.79071e-06
-8.047e-06
-8.3301e-06
-8.63796e-06
-8.96807e-06
-9.31762e-06
-9.68348e-06
-1.34327e-06
-1.51249e-06
-1.67732e-06
-1.83836e-06
-1.99652e-06
-2.15273e-06
-2.30788e-06
-2.46289e-06
-2.61875e-06
-2.77657e-06
-2.93763e-06
-3.10337e-06
-3.27535e-06
-3.45527e-06
-3.64491e-06
-3.8461e-06
-4.06066e-06
-4.29035e-06
-4.53667e-06
-4.80072e-06
-5.08294e-06
-5.38279e-06
-5.68253e-06
-5.9598e-06
-6.20971e-06
-6.43372e-06
-6.63377e-06
-6.81292e-06
-6.97554e-06
-7.12688e-06
-7.27252e-06
-7.41784e-06
-7.56766e-06
-7.72604e-06
-7.89641e-06
-8.08174e-06
-8.2843e-06
-8.50534e-06
-8.74547e-06
-9.00475e-06
-9.28274e-06
-9.57849e-06
-9.8907e-06
-1.02177e-05
-1.05578e-05
-8.04185e-07
-1.00395e-06
-1.20026e-06
-1.39363e-06
-1.58487e-06
-1.77482e-06
-1.96431e-06
-2.15413e-06
-2.34516e-06
-2.53835e-06
-2.73475e-06
-2.93555e-06
-3.14202e-06
-3.35553e-06
-3.5775e-06
-3.8094e-06
-4.05273e-06
-4.30895e-06
-4.57949e-06
-4.86561e-06
-5.1685e-06
-5.4893e-06
-5.81268e-06
-6.11767e-06
-6.3997e-06
-6.66045e-06
-6.90188e-06
-7.12658e-06
-7.33781e-06
-7.53928e-06
-7.73483e-06
-7.92821e-06
-8.12282e-06
-8.32177e-06
-8.52781e-06
-8.74329e-06
-8.96976e-06
-9.20822e-06
-9.45933e-06
-9.72344e-06
-1.00006e-05
-1.02904e-05
-1.05923e-05
-1.09054e-05
-1.12287e-05
-4.08365e-07
-6.33128e-07
-8.54996e-07
-1.07449e-06
-1.29232e-06
-1.5092e-06
-1.72586e-06
-1.94298e-06
-2.16132e-06
-2.38168e-06
-2.60498e-06
-2.8322e-06
-3.06442e-06
-3.30276e-06
-3.54843e-06
-3.80268e-06
-4.06681e-06
-4.34217e-06
-4.63018e-06
-4.93227e-06
-5.25003e-06
-5.5852e-06
-5.92382e-06
-6.2463e-06
-6.54854e-06
-6.83245e-06
-7.10003e-06
-7.35359e-06
-7.59573e-06
-7.82924e-06
-8.05695e-06
-8.28158e-06
-8.50569e-06
-8.7316e-06
-8.96137e-06
-9.19664e-06
-9.43884e-06
-9.68898e-06
-9.94777e-06
-1.02157e-05
-1.04929e-05
-1.07795e-05
-1.10751e-05
-1.13795e-05
-1.16919e-05
-1.20436e-07
-3.66095e-07
-6.09185e-07
-8.50177e-07
-1.08968e-06
-1.32832e-06
-1.56668e-06
-1.80536e-06
-2.04501e-06
-2.28632e-06
-2.53009e-06
-2.77715e-06
-3.02842e-06
-3.28487e-06
-3.54755e-06
-3.81756e-06
-4.09608e-06
-4.38438e-06
-4.68384e-06
-4.99595e-06
-5.32239e-06
-5.665e-06
-6.01098e-06
-6.34241e-06
-6.65583e-06
-6.95326e-06
-7.23665e-06
-7.50804e-06
-7.7696e-06
-8.02352e-06
-8.27196e-06
-8.51701e-06
-8.76061e-06
-9.00455e-06
-9.25039e-06
-9.4995e-06
-9.75312e-06
-1.00122e-05
-1.02773e-05
-1.05492e-05
-1.0828e-05
-1.11139e-05
-1.14069e-05
-1.17068e-05
-1.20133e-05
8.32752e-08
-1.79828e-07
-4.4047e-07
-6.99069e-07
-9.56146e-07
-1.21222e-06
-1.46778e-06
-1.72334e-06
-1.97946e-06
-2.23674e-06
-2.49586e-06
-2.75756e-06
-3.02263e-06
-3.29192e-06
-3.56636e-06
-3.84693e-06
-4.13474e-06
-4.43093e-06
-4.73685e-06
-5.05391e-06
-5.38376e-06
-5.72814e-06
-6.07547e-06
-6.40972e-06
-6.72805e-06
-7.03242e-06
-7.32465e-06
-7.60654e-06
-7.87991e-06
-8.14655e-06
-8.4082e-06
-8.66652e-06
-8.92305e-06
-9.17923e-06
-9.4363e-06
-9.69538e-06
-9.95758e-06
-1.02237e-05
-1.04944e-05
-1.07702e-05
-1.10514e-05
-1.13383e-05
-1.16309e-05
-1.19292e-05
-1.22332e-05
2.23568e-07
-5.39914e-08
-3.29043e-07
-6.0196e-07
-8.73185e-07
-1.14314e-06
-1.41224e-06
-1.68092e-06
-1.94965e-06
-2.21897e-06
-2.48948e-06
-2.76182e-06
-3.03668e-06
-3.31482e-06
-3.59707e-06
-3.88431e-06
-4.17756e-06
-4.47786e-06
-4.78648e-06
-5.10472e-06
-5.43413e-06
-5.77631e-06
-6.12094e-06
-6.45398e-06
-6.77305e-06
-7.07998e-06
-7.37638e-06
-7.66384e-06
-7.94394e-06
-8.2182e-06
-8.48807e-06
-8.75491e-06
-9.01997e-06
-9.28446e-06
-9.54945e-06
-9.81587e-06
-1.00846e-05
-1.03564e-05
-1.06319e-05
-1.09114e-05
-1.11955e-05
-1.14844e-05
-1.17782e-05
-1.2077e-05
-1.23806e-05
3.17822e-07
2.8286e-08
-2.58599e-07
-5.43163e-07
-8.25776e-07
-1.10678e-06
-1.38652e-06
-1.66536e-06
-1.94373e-06
-2.22209e-06
-2.50097e-06
-2.78094e-06
-3.06262e-06
-3.34667e-06
-3.63385e-06
-3.92495e-06
-4.22089e-06
-4.52264e-06
-4.83136e-06
-5.14822e-06
-5.47468e-06
-5.81217e-06
-6.15161e-06
-6.4809e-06
-6.79805e-06
-7.10466e-06
-7.40214e-06
-7.69193e-06
-7.97542e-06
-8.25394e-06
-8.52872e-06
-8.8009e-06
-9.07155e-06
-9.34165e-06
-9.61214e-06
-9.88409e-06
-1.01579e-05
-1.04343e-05
-1.07139e-05
-1.09971e-05
-1.12843e-05
-1.15758e-05
-1.18717e-05
-1.21722e-05
-1.24773e-05
3.79422e-07
7.99238e-08
-2.16714e-07
-5.10784e-07
-8.02586e-07
-1.0924e-06
-1.3805e-06
-1.66723e-06
-1.95295e-06
-2.23808e-06
-2.52309e-06
-2.80847e-06
-3.09479e-06
-3.38264e-06
-3.67271e-06
-3.96572e-06
-4.2625e-06
-4.56392e-06
-4.87106e-06
-5.18496e-06
-5.507e-06
-5.83839e-06
-6.17127e-06
-6.49537e-06
-6.80899e-06
-7.11347e-06
-7.41008e-06
-7.70013e-06
-7.98487e-06
-8.26546e-06
-8.54297e-06
-8.81839e-06
-9.09265e-06
-9.36662e-06
-9.64111e-06
-9.91702e-06
-1.01948e-05
-1.0475e-05
-1.07582e-05
-1.10448e-05
-1.13352e-05
-1.16296e-05
-1.19283e-05
-1.22314e-05
-1.25388e-05
4.18353e-07
1.10531e-07
-1.94183e-07
-4.96044e-07
-7.95292e-07
-1.09215e-06
-1.38687e-06
-1.67973e-06
-1.97108e-06
-2.26128e-06
-2.55075e-06
-2.83994e-06
-3.12936e-06
-3.41955e-06
-3.71112e-06
-4.00474e-06
-4.30115e-06
-4.60116e-06
-4.90572e-06
-5.21579e-06
-5.53264e-06
-5.85731e-06
-6.18305e-06
-6.50126e-06
-6.81047e-06
-7.11179e-06
-7.40638e-06
-7.69545e-06
-7.98011e-06
-8.26139e-06
-8.54022e-06
-8.81749e-06
-9.09404e-06
-9.37065e-06
-9.64799e-06
-9.92688e-06
-1.02078e-05
-1.04911e-05
-1.07775e-05
-1.10672e-05
-1.13608e-05
-1.16583e-05
-1.19601e-05
-1.22662e-05
-1.25767e-05
4.4193e-07
1.27116e-07
-1.84328e-07
-4.92616e-07
-7.97937e-07
-1.10048e-06
-1.40046e-06
-1.69814e-06
-1.99383e-06
-2.28785e-06
-2.58059e-06
-2.87245e-06
-3.1639e-06
-3.45542e-06
-3.74759e-06
-4.04099e-06
-4.33633e-06
-4.6343e-06
-4.93579e-06
-5.24165e-06
-5.55306e-06
-5.87087e-06
-6.18939e-06
-6.50152e-06
-6.80595e-06
-7.10361e-06
-7.39559e-06
-7.68299e-06
-7.96678e-06
-8.2479e-06
-8.52718e-06
-8.80541e-06
-9.08332e-06
-9.36162e-06
-9.64114e-06
-9.92234e-06
-1.02057e-05
-1.04917e-05
-1.07808e-05
-1.10735e-05
-1.137e-05
-1.16707e-05
-1.19756e-05
-1.2285e-05
-1.2599e-05
4.5538e-07
1.34646e-07
-1.8245e-07
-4.96087e-07
-8.06412e-07
-1.11359e-06
-1.41781e-06
-1.71933e-06
-2.0184e-06
-2.31534e-06
-2.61049e-06
-2.90423e-06
-3.19698e-06
-3.48919e-06
-3.78138e-06
-4.07409e-06
-4.36795e-06
-4.6636e-06
-4.96186e-06
-5.26345e-06
-5.56947e-06
-5.88062e-06
-6.19218e-06
-6.49834e-06
-6.79796e-06
-7.09182e-06
-7.38095e-06
-7.66633e-06
-7.94884e-06
-8.2293e-06
-8.50849e-06
-8.78712e-06
-9.06585e-06
-9.34531e-06
-9.62635e-06
-9.90937e-06
-1.01947e-05
-1.0483e-05
-1.07746e-05
-1.10699e-05
-1.13692e-05
-1.16728e-05
-1.19809e-05
-1.22936e-05
-1.2611e-05
4.62325e-07
1.36535e-07
-1.85354e-07
-5.03487e-07
-8.17984e-07
-1.12899e-06
-1.43668e-06
-1.74129e-06
-2.04305e-06
-2.34226e-06
-2.63922e-06
-2.9343e-06
-3.22787e-06
-3.52035e-06
-3.81223e-06
-4.10399e-06
-4.39622e-06
-4.68949e-06
-4.98453e-06
-5.28198e-06
-5.58288e-06
-5.88775e-06
-6.19277e-06
-6.49328e-06
-6.78825e-06
-7.07839e-06
-7.36465e-06
-7.64789e-06
-7.92892e-06
-8.20847e-06
-8.48726e-06
-8.76595e-06
-9.04515e-06
-9.32538e-06
-9.60751e-06
-9.89197e-06
-1.0179e-05
-1.04692e-05
-1.07629e-05
-1.10606e-05
-1.13625e-05
-1.16689e-05
-1.19799e-05
-1.22958e-05
-1.26167e-05
4.65201e-07
1.35057e-07
-1.90936e-07
-5.12892e-07
-8.3091e-07
-1.14512e-06
-1.4557e-06
-1.76284e-06
-2.06678e-06
-2.36778e-06
-2.66614e-06
-2.96218e-06
-3.25626e-06
-3.54878e-06
-3.84017e-06
-4.13088e-06
-4.42144e-06
-4.71238e-06
-5.00436e-06
-5.29794e-06
-5.59405e-06
-5.89313e-06
-6.19212e-06
-6.48737e-06
-6.77799e-06
-7.06461e-06
-7.3481e-06
-7.62923e-06
-7.90872e-06
-8.18725e-06
-8.46547e-06
-8.744e-06
-9.02334e-06
-9.30415e-06
-9.58712e-06
-9.87277e-06
-1.01612e-05
-1.0453e-05
-1.07486e-05
-1.10484e-05
-1.13526e-05
-1.16615e-05
-1.19754e-05
-1.22943e-05
-1.26184e-05
4.65604e-07
1.31678e-07
-1.9786e-07
-5.23099e-07
-8.44127e-07
-1.16107e-06
-1.47407e-06
-1.78333e-06
-2.08907e-06
-2.39152e-06
-2.69098e-06
-2.98773e-06
-3.28214e-06
-3.57454e-06
-3.86536e-06
-4.155e-06
-4.44396e-06
-4.73269e-06
-5.02182e-06
-5.31182e-06
-5.60356e-06
-5.89736e-06
-6.19086e-06
-6.48129e-06
-6.7679e-06
-7.05126e-06
-7.33216e-06
-7.61127e-06
-7.88925e-06
-8.16674e-06
-8.44432e-06
-8.7226e-06
-9.00204e-06
-9.28303e-06
-9.56676e-06
-9.85337e-06
-1.01429e-05
-1.04361e-05
-1.07334e-05
-1.1035e-05
-1.13413e-05
-1.16525e-05
-1.19689e-05
-1.22906e-05
-1.26177e-05
4.64555e-07
1.2732e-07
-2.05304e-07
-5.33391e-07
-8.57018e-07
-1.1763e-06
-1.49138e-06
-1.80244e-06
-2.10968e-06
-2.41333e-06
-2.71367e-06
-3.01098e-06
-3.30558e-06
-3.5978e-06
-3.88802e-06
-4.17663e-06
-4.46407e-06
-4.75078e-06
-5.03729e-06
-5.32405e-06
-5.61182e-06
-5.90084e-06
-6.18937e-06
-6.47543e-06
-6.75839e-06
-7.03878e-06
-7.31727e-06
-7.5945e-06
-7.87106e-06
-8.14752e-06
-8.42444e-06
-8.70243e-06
-8.98174e-06
-9.26293e-06
-9.54736e-06
-9.83467e-06
-1.01252e-05
-1.04195e-05
-1.07182e-05
-1.10215e-05
-1.13296e-05
-1.1643e-05
-1.19617e-05
-1.22858e-05
-1.26156e-05
4.62698e-07
1.22558e-07
-2.12768e-07
-5.43341e-07
-8.69229e-07
-1.19054e-06
-1.50741e-06
-1.82001e-06
-2.12853e-06
-2.4332e-06
-2.73427e-06
-3.032e-06
-3.32671e-06
-3.61872e-06
-3.90836e-06
-4.196e-06
-4.48205e-06
-4.7669e-06
-5.05105e-06
-5.33487e-06
-5.61907e-06
-5.90381e-06
-6.18788e-06
-6.47e-06
-6.74967e-06
-7.02736e-06
-7.30368e-06
-7.57918e-06
-7.85441e-06
-8.12991e-06
-8.40618e-06
-8.68382e-06
-8.96287e-06
-9.24443e-06
-9.5293e-06
-9.81713e-06
-1.01084e-05
-1.04038e-05
-1.07037e-05
-1.10084e-05
-1.13182e-05
-1.16334e-05
-1.19541e-05
-1.22806e-05
-1.26129e-05
4.60437e-07
1.17746e-07
-2.19947e-07
-5.5269e-07
-8.80548e-07
-1.20362e-06
-1.52204e-06
-1.83596e-06
-2.14558e-06
-2.45111e-06
-2.75279e-06
-3.05087e-06
-3.34565e-06
-3.63742e-06
-3.92652e-06
-4.21327e-06
-4.49806e-06
-4.78124e-06
-5.06327e-06
-5.34447e-06
-5.62549e-06
-5.90641e-06
-6.18649e-06
-6.4651e-06
-6.74183e-06
-7.01711e-06
-7.29146e-06
-7.5654e-06
-7.83942e-06
-8.11403e-06
-8.38969e-06
-8.66693e-06
-8.94583e-06
-9.22765e-06
-9.51278e-06
-9.80106e-06
-1.00931e-05
-1.03894e-05
-1.06903e-05
-1.09962e-05
-1.13075e-05
-1.16243e-05
-1.19468e-05
-1.22753e-05
-1.26097e-05
4.5797e-07
1.13017e-07
-2.26764e-07
-5.61418e-07
-8.91004e-07
-1.21562e-06
-1.53539e-06
-1.85046e-06
-2.16103e-06
-2.46729e-06
-2.76948e-06
-3.06784e-06
-3.36265e-06
-3.6542e-06
-3.94279e-06
-4.22874e-06
-4.51239e-06
-4.79407e-06
-5.0742e-06
-5.35307e-06
-5.63125e-06
-5.90876e-06
-6.18524e-06
-6.46069e-06
-6.73481e-06
-7.00793e-06
-7.28053e-06
-7.55306e-06
-7.82598e-06
-8.09977e-06
-8.37487e-06
-8.65176e-06