/*--------------------------------*- C++ -*----------------------------------*\
| =========                 |                                                 |
| \\      /  F ield         | OpenFOAM: The Open Source CFD Toolbox           |
|  \\    /   O peration     | Version:  2312                                  |
|   \\  /    A nd           | Website:  www.openfoam.com                      |
|    \\/     M anipulation  |                                                 |
\*---------------------------------------------------------------------------*/
FoamFile
{
    version     2.0;
    format      ascii;
    arch        "LSB;label=32;scalar=64";
    class       surfaceScalarField;
    location    "134.25";
    object      phi;
}
// * * * * * * * * * * * * * * * * * * * * * * * * * * * * * * * * * * * * * //

dimensions      [0 3 -1 0 0 0 0];

oriented        oriented;

internalField   nonuniform List<scalar> 
9445
(
6.11589e-10
9.75079e-12
6.05984e-10
5.60455e-12
6.02968e-10
3.01582e-12
6.01744e-10
1.22445e-12
6.01894e-10
-1.50119e-13
6.03247e-10
-1.35337e-12
6.05675e-10
-2.4277e-12
6.09169e-10
-3.49348e-12
6.14007e-10
-4.83847e-12
6.20618e-10
-6.61078e-12
6.30156e-10
-9.53838e-12
6.46323e-10
-1.6167e-11
6.82297e-10
-3.59739e-11
7.85113e-10
-1.02816e-10
-2.68882e-10
1.05399e-09
2.13538e-09
4.39512e-11
2.1149e-09
2.60798e-11
2.10312e-09
1.47961e-11
2.09739e-09
6.95169e-12
2.09633e-09
9.1679e-13
2.09919e-09
-4.21541e-12
2.10554e-09
-8.77795e-12
2.11543e-09
-1.33849e-11
2.12952e-09
-1.89267e-11
2.14906e-09
-2.61578e-11
2.17704e-09
-3.75119e-11
2.22062e-09
-5.9752e-11
2.29387e-09
-1.09217e-10
2.41065e-09
-2.196e-10
-3.92656e-10
2.53442e-09
4.21332e-09
1.10906e-10
4.17204e-09
6.73549e-11
4.14719e-09
3.96436e-11
4.13383e-09
2.03198e-11
4.12933e-09
5.41627e-12
4.13205e-09
-6.93752e-12
4.14115e-09
-1.78812e-11
4.15667e-09
-2.89019e-11
4.17936e-09
-4.16188e-11
4.21072e-09
-5.75173e-11
4.25377e-09
-8.05601e-11
4.31337e-09
-1.19349e-10
4.39242e-09
-1.88276e-10
4.47659e-09
-3.03765e-10
-4.42899e-10
4.52683e-09
6.9949e-09
2.19707e-10
6.92593e-09
1.36322e-10
6.8827e-09
8.2876e-11
6.85756e-09
4.54617e-11
6.84631e-09
1.66623e-11
6.84624e-09
-6.86581e-12
6.85588e-09
-2.75274e-11
6.87479e-09
-4.78062e-11
6.90354e-09
-7.03702e-11
6.94287e-09
-9.68434e-11
6.99404e-09
-1.3173e-10
7.05679e-09
-1.821e-10
7.12434e-09
-2.55833e-10
7.17552e-09
-3.54939e-10
-4.53323e-10
7.18594e-09
1.06593e-08
3.78705e-10
1.05557e-08
2.39966e-10
1.04882e-08
1.50326e-10
1.04464e-08
8.72636e-11
1.04241e-08
3.90118e-11
1.04176e-08
-3.53043e-13
1.04244e-08
-3.43417e-11
1.0443e-08
-6.64421e-11
1.04733e-08
-1.00695e-10
1.05147e-08
-1.38164e-10
1.05656e-08
-1.82657e-10
1.06215e-08
-2.3797e-10
1.06713e-08
-3.05719e-10
1.06973e-08
-3.80915e-10
-4.44206e-10
1.06882e-08
1.54158e-08
5.92335e-10
1.52724e-08
3.83368e-10
1.51757e-08
2.47046e-10
1.51124e-08
1.50522e-10
1.50745e-08
7.69551e-11
1.50569e-08
1.72215e-11
1.50563e-08
-3.37178e-11
1.507e-08
-8.01949e-11
1.50961e-08
-1.26741e-10
1.51323e-08
-1.74402e-10
1.51749e-08
-2.25264e-10
1.5217e-08
-2.80077e-10
1.52482e-08
-3.36845e-10
1.52568e-08
-3.89515e-10
-4.27093e-10
1.52397e-08
2.14998e-08
8.55757e-10
2.13171e-08
5.66099e-10
2.11893e-08
3.74779e-10
2.11017e-08
2.38147e-10
2.10447e-08
1.34009e-10
2.10119e-08
4.9963e-11
2.09991e-08
-2.08589e-11
2.10024e-08
-8.35087e-11
2.10181e-08
-1.42418e-10
2.10423e-08
-1.98685e-10
2.107e-08
-2.52919e-10
2.10941e-08
-3.04194e-10
2.1107e-08
-3.49739e-10
2.11029e-08
-3.85359e-10
-4.06283e-10
2.1082e-08
2.91639e-08
1.14759e-09
2.8953e-08
7.76902e-10
2.87998e-08
5.27985e-10
2.86899e-08
3.48103e-10
2.86135e-08
2.10392e-10
2.85638e-08
9.97138e-11
2.85354e-08
7.49906e-12
2.85237e-08
-7.18253e-11
2.85238e-08
-1.42553e-10
2.85309e-08
-2.05697e-10
2.85393e-08
-2.61324e-10
2.85435e-08
-3.0839e-10
2.85389e-08
-3.45139e-10
2.85234e-08
-3.69858e-10
-3.81484e-10
2.84986e-08
3.86655e-08
1.42389e-09
3.84541e-08
9.88219e-10
3.82929e-08
6.89183e-10
3.81715e-08
4.69505e-10
3.80822e-08
2.9978e-10
3.80185e-08
1.63371e-10
3.79753e-08
5.07053e-11
3.79473e-08
-4.38294e-11
3.79297e-08
-1.24914e-10
3.79172e-08
-1.93229e-10
3.79052e-08
-2.49331e-10
3.78899e-08
-2.9307e-10
3.7869e-08
-3.24281e-10
3.78424e-08
-3.4328e-10
-3.50951e-10
3.78119e-08
5.02636e-08
1.62122e-09
5.00963e-08
1.15547e-09
4.99587e-08
8.26774e-10
4.98482e-08
5.79972e-10
4.97615e-08
3.86546e-10
4.96945e-08
2.30308e-10
4.96435e-08
1.01782e-10
4.96035e-08
-3.8802e-12
4.95709e-08
-9.23039e-11
4.95415e-08
-1.63821e-10
4.9512e-08
-2.19844e-10
4.94804e-08
-2.61492e-10
4.94461e-08
-2.89985e-10
4.94098e-08
-3.06917e-10
-3.1407e-10
4.93729e-08
6.42473e-08
1.6789e-09
6.41737e-08
1.22907e-09
6.4099e-08
9.01437e-10
6.40302e-08
6.48815e-10
6.39697e-08
4.47045e-10
6.39174e-08
2.82528e-10
6.3872e-08
1.47192e-10
6.38317e-08
3.64398e-11
6.37927e-08
-5.33074e-11
6.37544e-08
-1.25461e-10
6.37148e-08
-1.80273e-10
6.36736e-08
-2.20324e-10
6.36313e-08
-2.47659e-10
6.35888e-08
-2.64466e-10
-2.72815e-10
6.35476e-08
8.10147e-08
1.57698e-09
8.10621e-08
1.18173e-09
8.10781e-08
8.85406e-10
8.10763e-08
6.506e-10
8.10642e-08
4.59134e-10
8.10457e-08
3.01098e-10
8.10223e-08
1.70574e-10
8.09948e-08
6.3902e-11
8.09627e-08
-2.11566e-11
8.09268e-08
-8.96291e-11
8.08877e-08
-1.41184e-10
8.08462e-08
-1.7882e-10
8.08036e-08
-2.04982e-10
8.0761e-08
-2.21951e-10
-2.31713e-10
8.07199e-08
1.0116e-07
1.35636e-09
1.0131e-07
1.03208e-09
1.01411e-07
7.84546e-10
1.01477e-07
5.8411e-10
1.01519e-07
4.17786e-10
1.01541e-07
2.79008e-10
1.01547e-07
1.63927e-10
1.01542e-07
6.97537e-11
1.01526e-07
-5.52848e-12
1.01502e-07
-6.55297e-11
1.01472e-07
-1.11227e-10
1.01438e-07
-1.44911e-10
1.01402e-07
-1.68892e-10
1.01365e-07
-1.85232e-10
-1.95638e-10
1.01329e-07
1.2545e-07
1.08807e-09
1.25649e-07
8.3278e-10
1.25797e-07
6.36945e-10
1.25905e-07
4.76391e-10
1.25981e-07
3.41726e-10
1.26031e-07
2.28668e-10
1.2606e-07
1.34649e-10
1.26072e-07
5.75222e-11
1.26071e-07
-4.33047e-12
1.26059e-07
-5.36243e-11
1.2604e-07
-9.17164e-11
1.26015e-07
-1.20203e-10
1.25987e-07
-1.41004e-10
1.25958e-07
-1.55797e-10
-1.65919e-10
1.25928e-07
1.54627e-07
8.2191e-10
1.5483e-07
6.29741e-10
1.54984e-07
4.82905e-10
1.55099e-07
3.61479e-10
1.55182e-07
2.58748e-10
1.55239e-07
1.721e-10
1.55274e-07
9.98114e-11
1.55291e-07
4.02565e-11
1.55294e-07
-7.72448e-12
1.55287e-07
-4.60463e-11
1.55271e-07
-7.64556e-11
1.55251e-07
-9.94286e-11
1.55226e-07
-1.16713e-10
1.552e-07
-1.29541e-10
-1.38844e-10
1.55173e-07
1.89191e-07
5.73455e-10
1.8938e-07
4.41282e-10
1.89521e-07
3.41279e-10
1.89625e-07
2.57862e-10
1.89698e-07
1.85816e-10
1.89746e-07
1.2426e-10
1.89773e-07
7.2327e-11
1.89784e-07
2.8938e-11
1.89783e-07
-6.64466e-12
1.89772e-07
-3.51113e-11
1.89754e-07
-5.82573e-11
1.89731e-07
-7.61212e-11
1.89704e-07
-9.00596e-11
1.89675e-07
-1.00872e-10
-1.09103e-10
1.89646e-07
2.29258e-07
3.44846e-10
2.29429e-07
2.69911e-10
2.29555e-07
2.15368e-10
2.29645e-07
1.68361e-10
2.29705e-07
1.25951e-10
2.2974e-07
8.86721e-11
2.29757e-07
5.56756e-11
2.29759e-07
2.71204e-11
2.29749e-07
2.7839e-12
2.29731e-07
-1.71728e-11
2.29706e-07
-3.34412e-11
2.29677e-07
-4.63196e-11
2.29644e-07
-5.73988e-11
2.29609e-07
-6.61821e-11
-7.30784e-11
2.29573e-07
2.74379e-07
1.40922e-10
2.74527e-07
1.21242e-10
2.74634e-07
1.08405e-10
2.74708e-07
9.43058e-11
2.74756e-07
7.87101e-11
2.7478e-07
6.3982e-11
2.74788e-07
4.75967e-11
2.74782e-07
3.38223e-11
2.74764e-07
2.08032e-11
2.74737e-07
9.60505e-12
2.74704e-07
-1.02025e-12
2.74668e-07
-9.66565e-12
2.74628e-07
-1.73029e-11
2.74585e-07
-2.35031e-11
-2.85438e-11
2.7454e-07
3.23068e-07
-3.15489e-11
3.23187e-07
1.63927e-12
3.23272e-07
2.42235e-11
3.23326e-07
3.98028e-11
3.23354e-07
5.03793e-11
3.23367e-07
5.12141e-11
3.23366e-07
4.91871e-11
3.23353e-07
4.61152e-11
3.23332e-07
4.19284e-11
3.23304e-07
3.80119e-11
3.23268e-07
3.49165e-11
3.23226e-07
3.2567e-11
3.23178e-07
2.99908e-11
3.23127e-07
2.734e-11
2.50192e-11
3.23074e-07
3.72152e-07
-1.75051e-10
3.7226e-07
-1.06109e-10
3.72336e-07
-5.20996e-11
3.72387e-07
-1.11872e-11
3.72419e-07
1.88166e-11
3.72433e-07
3.73859e-11
3.72431e-07
5.0352e-11
3.72417e-07
6.06822e-11
3.72391e-07
6.80714e-11
3.72356e-07
7.29563e-11
3.72314e-07
7.63142e-11
3.72268e-07
7.87696e-11
3.72218e-07
8.06431e-11
3.72163e-07
8.22118e-11
8.36986e-11
3.72104e-07
3.69675e-07
-2.55728e-10
3.69732e-07
-1.63795e-10
3.69772e-07
-9.21868e-11
3.698e-07
-3.9369e-11
3.69811e-07
8.48217e-12
3.69807e-07
4.07167e-11
3.69793e-07
6.50529e-11
3.69769e-07
8.40627e-11
3.69739e-07
9.88763e-11
3.69701e-07
1.10329e-10
3.69658e-07
1.19504e-10
3.6961e-07
1.2721e-10
3.69556e-07
1.33993e-10
3.69498e-07
1.40147e-10
1.45713e-10
3.69436e-07
3.16237e-07
-2.78229e-10
3.16255e-07
-1.81422e-10
3.16269e-07
-1.06648e-10
3.16275e-07
-4.53642e-11
3.1628e-07
3.97778e-12
3.16278e-07
4.21155e-11
3.16271e-07
7.22842e-11
3.16258e-07
9.65809e-11
3.16241e-07
1.16459e-10
3.16218e-07
1.32979e-10
3.16191e-07
1.47116e-10
3.16158e-07
1.59493e-10
3.16122e-07
1.70594e-10
3.16081e-07
1.80677e-10
1.8988e-10
3.16037e-07
2.6478e-07
-2.61892e-10
2.64767e-07
-1.68318e-10
2.64756e-07
-9.53316e-11
2.64745e-07
-3.48283e-11
2.64733e-07
1.5764e-11
2.6472e-07
5.52937e-11
2.64705e-07
8.76952e-11
2.64687e-07
1.14621e-10
2.64666e-07
1.37429e-10
2.64642e-07
1.57011e-10
2.64615e-07
1.74154e-10
2.64585e-07
1.89341e-10
2.64552e-07
2.03005e-10
2.64518e-07
2.1547e-10
2.26989e-10
2.64481e-07
2.17925e-07
-2.18794e-10
2.17893e-07
-1.36272e-10
2.17866e-07
-6.82594e-11
2.17844e-07
-1.22701e-11
2.17825e-07
3.44364e-11
2.17807e-07
7.27348e-11
2.1779e-07
1.04824e-10
2.17773e-07
1.32149e-10
2.17754e-07
1.5577e-10
2.17735e-07
1.76434e-10
2.17714e-07
1.94754e-10
2.17693e-07
2.11179e-10
2.1767e-07
2.26052e-10
2.17645e-07
2.39653e-10
2.52203e-10
2.1762e-07
1.76793e-07
-1.63593e-10
1.76751e-07
-9.38851e-11
1.76718e-07
-3.5805e-11
1.76693e-07
1.27918e-11
1.76674e-07
5.37464e-11
1.76658e-07
8.8328e-11
1.76645e-07
1.17887e-10
1.76634e-07
1.4352e-10
1.76624e-07
1.66029e-10
1.76614e-07
1.85997e-10
1.76605e-07
2.03883e-10
1.76596e-07
2.20036e-10
1.76588e-07
2.34719e-10
1.76579e-07
2.48148e-10
2.60472e-10
1.76571e-07
1.41638e-07
-1.10219e-10
1.41599e-07
-5.4858e-11
1.41572e-07
-8.13057e-12
1.41553e-07
3.17091e-11
1.4154e-07
6.59103e-11
1.41533e-07
9.53265e-11
1.4153e-07
1.20913e-10
1.4153e-07
1.43455e-10
1.41533e-07
1.63514e-10
1.41537e-07
1.81502e-10
1.41544e-07
1.97742e-10
1.41551e-07
2.12479e-10
1.4156e-07
2.25901e-10
1.4157e-07
2.38147e-10
2.49316e-10
1.41581e-07
1.12227e-07
-6.93869e-11
1.122e-07
-2.77019e-11
1.12184e-07
7.93739e-12
1.12176e-07
3.90833e-11
1.12176e-07
6.64713e-11
1.12181e-07
9.03216e-11
1.1219e-07
1.11387e-10
1.12204e-07
1.30221e-10
1.1222e-07
1.47181e-10
1.12239e-07
1.62534e-10
1.1226e-07
1.76489e-10
1.12283e-07
1.892e-10
1.12309e-07
2.00785e-10
1.12335e-07
2.11329e-10
2.20893e-10
1.12364e-07
8.80396e-08
-4.42697e-11
8.80262e-08
-1.43194e-11
8.80226e-08
1.14752e-11
8.80268e-08
3.4892e-11
8.80371e-08
5.62352e-11
8.80526e-08
7.48121e-11
8.80725e-08
9.14724e-11
8.80961e-08
1.0659e-10
8.81229e-08
1.20365e-10
8.81525e-08
1.32955e-10
8.81845e-08
1.44477e-10
8.82187e-08
1.55019e-10
8.82549e-08
1.64648e-10
8.82928e-08
1.73408e-10
1.81332e-10
8.83323e-08
6.84125e-08
-3.2097e-11
6.84097e-08
-1.16107e-11
6.84152e-08
6.04377e-12
6.84268e-08
2.32728e-11
6.84435e-08
3.94838e-11
6.84649e-08
5.34349e-11
6.84902e-08
6.62014e-11
6.85188e-08
7.79637e-11
6.85504e-08
8.88186e-11
6.85845e-08
9.88468e-11
6.86208e-08
1.08105e-10
6.86592e-08
1.16635e-10
6.86994e-08
1.24469e-10
6.87412e-08
1.31622e-10
1.38112e-10
6.87844e-08
5.26497e-08
-2.80936e-11
5.26527e-08
-1.46151e-11
5.26614e-08
-2.62575e-12
5.26752e-08
9.43673e-12
5.26937e-08
2.10181e-11
5.27158e-08
3.13376e-11
5.27411e-08
4.09146e-11
5.27692e-08
4.98454e-11
5.27998e-08
5.82004e-11
5.28326e-08
6.60165e-11
5.28674e-08
7.33147e-11
5.29039e-08
8.011e-11
5.2942e-08
8.64119e-11
5.29814e-08
9.222e-11
9.75407e-11
5.3022e-08
4.00941e-08
-2.73157e-11
4.00981e-08
-1.86425e-11
4.01063e-08
-1.08694e-11
4.01187e-08
-2.94516e-12
4.01346e-08
5.10735e-12
4.01534e-08
1.25727e-11
4.01747e-08
1.95729e-11
4.01984e-08
2.61907e-11
4.02241e-08
3.24803e-11
4.02517e-08
3.84514e-11
4.02809e-08
4.41068e-11
4.03115e-08
4.94483e-11
4.03435e-08
5.44709e-11
4.03765e-08
5.91666e-11
6.35356e-11
4.04105e-08
3.01643e-08
-2.66355e-11
3.01667e-08
-2.10556e-11
3.01722e-08
-1.63407e-11
3.01808e-08
-1.15469e-11
3.01921e-08
-6.14702e-12
3.02055e-08
-8.59059e-13
3.0221e-08
4.11646e-12
3.02383e-08
8.88694e-12
3.02572e-08
1.3505e-11
3.02777e-08
1.79608e-11
3.02996e-08
2.22525e-11
3.03226e-08
2.63766e-11
3.03468e-08
3.03194e-11
3.03719e-08
3.40707e-11
3.76276e-11
3.03978e-08
2.23643e-08
-2.45187e-11
2.23644e-08
-2.10954e-11
2.23664e-08
-1.83615e-11
2.23705e-08
-1.56423e-11
2.23766e-08
-1.22978e-11
2.23845e-08
-8.70486e-12
2.23939e-08
-5.25775e-12
2.24047e-08
-1.9288e-12
2.24168e-08
1.35958e-12
2.24302e-08
4.58262e-12
2.24447e-08
7.74375e-12
2.24603e-08
1.08414e-11
2.24767e-08
1.38552e-11
2.2494e-08
1.67764e-11
1.96016e-11
2.2512e-08
1.62796e-08
-2.0746e-11
1.62774e-08
-1.8849e-11
1.62765e-08
-1.74664e-11
1.62768e-08
-1.59879e-11
1.62785e-08
-1.39777e-11
1.62815e-08
-1.17204e-11
1.62857e-08
-9.47966e-12
1.6291e-08
-7.23818e-12
1.62974e-08
-4.98419e-12
1.63047e-08
-2.75029e-12
1.6313e-08
-5.19266e-13
1.63221e-08
1.71421e-12
1.6332e-08
3.92369e-12
1.63427e-08
6.10361e-12
8.25399e-12
1.63541e-08
1.1568e-08
-1.59549e-11
1.15642e-08
-1.50468e-11
1.15612e-08
-1.44607e-11
1.1559e-08
-1.37525e-11
1.15576e-08
-1.26365e-11
1.15572e-08
-1.12975e-11
1.15576e-08
-9.91456e-12
1.15589e-08
-8.50053e-12
1.1561e-08
-7.05735e-12
1.15638e-08
-5.59736e-12
1.15674e-08
-4.11244e-12
1.15717e-08
-2.59369e-12
1.15767e-08
-1.06889e-12
1.15824e-08
4.58491e-13
1.9959e-12
1.15886e-08
7.94914e-09
-1.09525e-11
7.94472e-09
-1.06243e-11
7.94071e-09
-1.04526e-11
7.93713e-09
-1.01746e-11
7.93411e-09
-9.6139e-12
7.9317e-09
-8.88397e-12
7.92988e-09
-8.10238e-12
7.92867e-09
-7.28592e-12
7.92805e-09
-6.44018e-12
7.92802e-09
-5.56182e-12
7.92855e-09
-4.64843e-12
7.92966e-09
-3.70555e-12
7.93134e-09
-2.74324e-12
7.93356e-09
-1.76469e-12
-7.59327e-13
7.93632e-09
5.19503e-09
-6.45799e-12
5.19083e-09
-6.41761e-12
5.18679e-09
-6.4138e-12
5.18295e-09
-6.34096e-12
5.17944e-09
-6.09925e-12
5.1763e-09
-5.74992e-12
5.17356e-09
-5.36203e-12
5.17123e-09
-4.94796e-12
5.1693e-09
-4.51079e-12
5.16778e-09
-4.04754e-12
5.16669e-09
-3.55781e-12
5.16603e-09
-3.04504e-12
5.1658e-09
-2.51479e-12
5.166e-09
-1.96542e-12
-1.38891e-12
5.16663e-09
3.12139e-09
-2.98142e-12
3.11801e-09
-3.0391e-12
3.11466e-09
-3.06635e-12
3.11138e-09
-3.06402e-12
3.10827e-09
-2.98364e-12
3.10537e-09
-2.85046e-12
3.1027e-09
-2.69711e-12
3.10029e-09
-2.52978e-12
3.09812e-09
-2.34999e-12
3.09623e-09
-2.15602e-12
3.09462e-09
-1.94759e-12
3.0933e-09
-1.72612e-12
3.09228e-09
-1.4941e-12
3.09157e-09
-1.25056e-12
-9.87322e-13
3.09117e-09
1.58011e-09
-8.02582e-13
1.57792e-09
-8.52814e-13
1.57572e-09
-8.59712e-13
1.57352e-09
-8.63669e-13
1.57138e-09
-8.4813e-13
1.56935e-09
-8.18086e-13
1.56743e-09
-7.82475e-13
1.56565e-09
-7.4273e-13
1.56399e-09
-6.99301e-13
1.56249e-09
-6.51537e-13
1.56114e-09
-5.99337e-13
1.55996e-09
-5.43034e-13
1.55895e-09
-4.83571e-13
1.55812e-09
-4.20465e-13
-3.47031e-13
1.55748e-09
4.52852e-10
4.51999e-10
4.5114e-10
4.50276e-10
4.49428e-10
4.4861e-10
4.47827e-10
4.47084e-10
4.46385e-10
4.45734e-10
4.45134e-10
4.44591e-10
4.44108e-10
4.43687e-10
4.4334e-10
1.25961e-09
-5.28402e-10
3.22783e-10
1.55296e-09
-4.73048e-10
1.79706e-10
1.84756e-09
-3.54155e-10
5.95528e-11
2.13642e-09
-2.38186e-10
-5.06746e-11
2.41716e-09
-1.32171e-10
-1.48568e-10
2.69024e-09
-4.5573e-11
-2.27508e-10
2.95681e-09
1.91097e-11
-2.85683e-10
3.21794e-09
5.99441e-11
-3.21074e-10
3.47452e-09
7.57422e-11
-3.32323e-10
3.72729e-09
6.5895e-11
-3.18658e-10
3.9768e-09
3.04619e-11
-2.79976e-10
4.22349e-09
-2.92682e-11
-2.17423e-10
4.46768e-09
-1.098e-10
-1.34391e-10
4.70973e-09
-2.03664e-10
-3.83855e-11
4.9503e-09
-2.96978e-10
5.64056e-11
5.19082e-09
-3.65981e-10
1.25465e-10
5.43404e-09
-3.72623e-10
1.29403e-10
5.68504e-09
-2.62455e-10
1.14583e-11
5.95164e-09
3.86506e-11
-3.05251e-10
6.24533e-09
6.13908e-10
-9.07604e-10
6.5791e-09
1.5203e-09
-1.85406e-09
6.96181e-09
2.77632e-09
-3.15904e-09
7.32936e-09
3.51175e-09
-3.87929e-09
7.64512e-09
3.52099e-09
-3.83674e-09
7.90082e-09
3.11914e-09
-3.37484e-09
8.09445e-09
2.45657e-09
-2.6502e-09
8.22761e-09
1.64748e-09
-1.78063e-09
8.30257e-09
7.74864e-10
-8.49826e-10
8.32113e-09
-1.00522e-10
8.19631e-11
8.28452e-09
-9.29929e-10
9.66536e-10
8.19402e-09
-1.67146e-09
1.76196e-09
8.05146e-09
-2.28946e-09
2.43202e-09
7.85956e-09
-2.7561e-09
2.94799e-09
7.62189e-09
-3.05305e-09
3.29072e-09
7.34251e-09
-3.17194e-09
3.45132e-09
7.02553e-09
-3.11325e-09
3.43024e-09
6.67461e-09
-2.88379e-09
3.23471e-09
6.29289e-09
-2.493e-09
2.87473e-09
5.88326e-09
-1.94832e-09
2.35795e-09
5.4485e-09
-1.25101e-09
1.68577e-09
4.98962e-09
-3.993e-10
8.58178e-10
4.50006e-09
5.91726e-10
-1.02161e-10
3.96633e-09
1.63013e-09
-1.0964e-09
3.39701e-09
2.48872e-09
-1.91941e-09
2.52071e-09
3.06503e-09
-2.18873e-09
2.61562e-09
-6.09597e-10
2.78796e-09
-6.45384e-10
3.02184e-09
-5.88043e-10
3.28249e-09
-4.98831e-10
3.55449e-09
-4.04168e-10
3.82977e-09
-3.20853e-10
4.10478e-09
-2.55906e-10
4.37801e-09
-2.13286e-10
4.64887e-09
-1.95114e-10
4.91716e-09
-2.02401e-10
5.1829e-09
-2.35276e-10
5.44612e-09
-2.92484e-10
5.70687e-09
-3.70554e-10
5.96535e-09
-4.6214e-10
6.22209e-09
-5.53723e-10
6.47851e-09
-6.22395e-10
6.73745e-09
-6.31563e-10
7.00431e-09
-5.29313e-10
7.28751e-09
-2.44549e-10
7.59957e-09
3.01845e-10
7.95503e-09
1.16485e-09
8.36449e-09
2.36685e-09
8.76077e-09
3.11547e-09
9.10469e-09
3.17707e-09
9.38653e-09
2.83729e-09
9.6031e-09
2.24e-09
9.75521e-09
1.49536e-09
9.84471e-09
6.8537e-10
9.87313e-09
-1.28948e-10
9.84178e-09
-8.98573e-10
9.75215e-09
-1.58184e-09
9.6066e-09
-2.14391e-09
9.4086e-09
-2.55809e-09
9.16272e-09
-2.80717e-09
8.8744e-09
-2.88362e-09
8.54952e-09
-2.78838e-09
8.19424e-09
-2.52851e-09
7.81522e-09
-2.11399e-09
7.42089e-09
-1.55399e-09
7.02361e-09
-8.53728e-10
6.64218e-09
-1.78773e-11
6.30235e-09
9.31559e-10
6.03944e-09
1.89304e-09
5.90766e-09
2.62051e-09
2.59156e-09
5.83681e-09
4.54113e-09
-6.23894e-10
4.61656e-09
-7.2081e-10
4.76313e-09
-7.34621e-10
4.9644e-09
-7.00098e-10
5.19873e-09
-6.38499e-10
5.45249e-09
-5.74616e-10
5.71701e-09
-5.20423e-10
5.98721e-09
-4.83488e-10
6.26004e-09
-4.67938e-10
6.53364e-09
-4.76e-10
6.80688e-09
-5.08521e-10
7.07903e-09
-5.64628e-10
7.34957e-09
-6.41099e-10
7.61829e-09
-7.30865e-10
7.88547e-09
-8.20895e-10
8.15233e-09
-8.89262e-10
8.42175e-09
-9.00976e-10
8.69935e-09
-8.06915e-10
8.99411e-09
-5.3931e-10
9.31956e-09
-2.3608e-11
9.69194e-09
7.92471e-10
1.01238e-08
1.93502e-09
1.05457e-08
2.69352e-09
1.09163e-08
2.80652e-09
1.12239e-08
2.52962e-09
1.1464e-08
1.99997e-09
1.16361e-08
1.3232e-09
1.17416e-08
5.79921e-10
1.17815e-08
-1.68897e-10
1.17573e-08
-8.74301e-10
1.16706e-08
-1.49518e-09
1.15245e-08
-1.99781e-09
1.13234e-08
-2.35697e-09
1.10731e-08
-2.55689e-09
1.07808e-08
-2.59129e-09
1.04545e-08
-2.46213e-09
1.01036e-08
-2.17752e-09
9.73873e-09
-1.74917e-09
9.37468e-09
-1.18994e-09
9.03328e-09
-5.12327e-10
8.74773e-09
2.6767e-10
8.56406e-09
1.11523e-09
8.5264e-09
1.93071e-09
8.63731e-09
2.50959e-09
2.50565e-09
8.72322e-09
7.16364e-09
-6.01595e-10
7.17299e-09
-7.30154e-10
7.23588e-09
-7.97509e-10
7.35772e-09
-8.21942e-10
7.52929e-09
-8.10073e-10
7.73575e-09
-7.81078e-10
7.96601e-09
-7.50677e-10
8.2123e-09
-7.29779e-10
8.46895e-09
-7.24588e-10
8.73204e-09
-7.3909e-10
8.99886e-09
-7.75345e-10
9.2675e-09
-8.3326e-10
9.53655e-09
-9.1015e-10
9.80513e-09
-9.9945e-10
1.0073e-08
-1.08879e-09
1.03412e-08
-1.1574e-09
1.06123e-08
-1.17207e-09
1.08921e-08
-1.08676e-09
1.11901e-08
-8.3734e-10
1.15208e-08
-3.54311e-10
1.19023e-08
4.11052e-10
1.2349e-08
1.48827e-09
1.27909e-08
2.25158e-09
1.31845e-08
2.41295e-09
1.35161e-08
2.19804e-09
1.37789e-08
1.73716e-09
1.39713e-08
1.13076e-09
1.40936e-08
4.57664e-10
1.41464e-08
-2.21704e-10
1.4131e-08
-8.58883e-10
1.40495e-08
-1.41373e-09
1.39058e-08
-1.85404e-09
1.37052e-08
-2.15643e-09
1.34553e-08
-2.30697e-09
1.31651e-08
-2.30107e-09
1.28453e-08
-2.14229e-09
1.25083e-08
-1.84054e-09
1.21694e-08
-1.41026e-09
1.18485e-08
-8.69081e-10
1.15738e-08
-2.37659e-10
1.13846e-08
4.56907e-10
1.13286e-08
1.17119e-09
1.14391e-08
1.82028e-09
1.16875e-08
2.26121e-09
2.31202e-09
1.18811e-08
1.06501e-08
-5.63474e-10
1.06179e-08
-6.97955e-10
1.06186e-08
-7.98243e-10
1.06634e-08
-8.66708e-10
1.07562e-08
-9.02889e-10
1.08949e-08
-9.19783e-10
1.10673e-08
-9.23022e-10
1.1266e-08
-9.28483e-10
1.14839e-08
-9.42518e-10
1.17155e-08
-9.70733e-10
1.19566e-08
-1.01645e-09
1.22039e-08
-1.08057e-09
1.2455e-08
-1.16117e-09
1.27079e-08
-1.25242e-09
1.29619e-08
-1.34279e-09
1.32174e-08
-1.41291e-09
1.34769e-08
-1.43149e-09
1.3746e-08
-1.35593e-09
1.40348e-08
-1.12606e-09
1.43584e-08
-6.77913e-10
1.47368e-08
3.25954e-11
1.51869e-08
1.03822e-09
1.56394e-08
1.79902e-09
1.60494e-08
2.00294e-09
1.64005e-08
1.84693e-09
1.66835e-08
1.45419e-09
1.68949e-08
9.19325e-10
1.70338e-08
3.18824e-10
1.71001e-08
-2.88008e-10
1.7095e-08
-8.53757e-10
1.7021e-08
-1.33977e-09
1.68828e-08
-1.71581e-09
1.66871e-08
-1.96076e-09
1.64431e-08
-2.06295e-09
1.61619e-08
-2.01993e-09
1.5857e-08
-1.83731e-09
1.55438e-08
-1.52738e-09
1.52412e-08
-1.10768e-09
1.49725e-08
-6.00393e-10
1.47675e-08
-3.26077e-11
1.46624e-08
5.61982e-10
1.46948e-08
1.1388e-09
1.48809e-08
1.63414e-09
1.51799e-08
1.96221e-09
2.0392e-09
1.54527e-08
1.51981e-08
-5.21931e-10
1.51463e-08
-6.46101e-10
1.51065e-08
-7.58474e-10
1.50928e-08
-8.53032e-10
1.51138e-08
-9.2392e-10
1.51747e-08
-9.80675e-10
1.52735e-08
-1.02175e-09
1.54043e-08
-1.05935e-09
1.5561e-08
-1.09923e-09
1.57382e-08
-1.14785e-09
1.59307e-08
-1.20901e-09
1.61345e-08
-1.28435e-09
1.63461e-08
-1.37275e-09
1.65628e-08
-1.46917e-09
1.67831e-08
-1.56307e-09
1.70068e-08
-1.63663e-09
1.7236e-08
-1.66065e-09
1.74764e-08
-1.59636e-09
1.77381e-08
-1.38778e-09
1.80372e-08
-9.76993e-10
1.83957e-08
-3.25845e-10
1.88323e-08
6.01596e-10
1.92815e-08
1.3498e-09
1.96974e-08
1.58701e-09
2.00604e-08
1.48396e-09
2.03581e-08
1.15648e-09
2.0585e-08
6.92457e-10
2.07384e-08
1.6543e-10
2.08175e-08
-3.67099e-10
2.08231e-08
-8.59449e-10
2.07584e-08
-1.27505e-09
2.06288e-08
-1.58618e-09
2.04424e-08
-1.7744e-09
2.02102e-08
-1.83072e-09
1.99454e-08
-1.75515e-09
1.96638e-08
-1.55567e-09
1.93834e-08
-1.24699e-09
1.91251e-08
-8.49411e-10
1.8913e-08
-3.88218e-10
1.87738e-08
1.06525e-10
1.87356e-08
6.00218e-10
1.88209e-08
1.05349e-09
1.90321e-08
1.4229e-09
1.93309e-08
1.66341e-09
1.74285e-09
1.96273e-08
2.10421e-08
-4.81966e-10
2.09861e-08
-5.90102e-10
2.09266e-08
-6.98957e-10
2.08751e-08
-8.01566e-10
2.08439e-08
-8.92765e-10
2.08379e-08
-9.74647e-10
2.0862e-08
-1.04586e-09
2.09157e-08
-1.11301e-09
2.09963e-08
-1.17988e-09
2.11001e-08
-1.25158e-09
2.12227e-08
-1.33166e-09
2.13603e-08
-1.42187e-09
2.1509e-08
-1.52148e-09
2.16658e-08
-1.62603e-09
2.18287e-08
-1.72596e-09
2.19972e-08
-1.80505e-09
2.21728e-08
-1.83628e-09
2.23614e-08
-1.78502e-09
2.25734e-08
-1.59972e-09
2.28252e-08
-1.22883e-09
2.31411e-08
-6.41764e-10
2.35419e-08
2.00866e-10
2.39684e-08
9.23292e-10
2.43749e-08
1.18044e-09
2.47379e-08
1.12104e-09
2.50412e-08
8.53193e-10
2.52767e-08
4.56925e-10
2.54399e-08
2.19975e-12
2.55289e-08
-4.56105e-10
2.55443e-08
-8.74826e-10
2.54894e-08
-1.22015e-09
2.53706e-08
-1.46742e-09
2.51976e-08
-1.60132e-09
2.49827e-08
-1.61581e-09
2.4741e-08
-1.51354e-09
2.44902e-08
-1.30482e-09
2.42496e-08
-1.00636e-09
2.40403e-08
-6.40126e-10
2.38844e-08
-2.32316e-10
2.38031e-08
1.87757e-10
2.38144e-08
5.88988e-10
2.39272e-08
9.40671e-10
2.41347e-08
1.21535e-09
2.44061e-08
1.39209e-09
1.46232e-09
2.46866e-08
2.84597e-08
-4.4311e-10
2.8405e-08
-5.35355e-10
2.83396e-08
-6.33562e-10
2.82709e-08
-7.32865e-10
2.82075e-08
-8.29373e-10
2.8155e-08
-9.22127e-10
2.81196e-08
-1.01056e-09
2.81037e-08
-1.09709e-09
2.81081e-08
-1.18424e-09
2.81317e-08
-1.27516e-09
2.81723e-08
-1.37235e-09
2.82274e-08
-1.47694e-09
2.8294e-08
-1.58806e-09
2.83694e-08
-1.70148e-09
2.84518e-08
-1.80831e-09
2.85407e-08
-1.89393e-09
2.86377e-08
-1.93328e-09
2.8749e-08
-1.89631e-09
2.8885e-08
-1.73581e-09
2.9063e-08
-1.4068e-09
2.93094e-08
-8.88196e-10
2.96467e-08
-1.36384e-10
3.00258e-08
5.44138e-10
3.04028e-08
8.03528e-10
3.07489e-08
7.74901e-10
3.10441e-08
5.57968e-10
3.12775e-08
2.23545e-10
3.14423e-08
-1.62595e-10
3.15353e-08
-5.49135e-10
3.15568e-08
-8.9627e-10
3.15103e-08
-1.17367e-09
3.14031e-08
-1.36024e-09
3.12459e-08
-1.44415e-09
3.10526e-08
-1.42245e-09
3.08394e-08
-1.30037e-09
3.06247e-08
-1.0901e-09
3.04278e-08
-8.09495e-10
3.02683e-08
-4.80655e-10
3.01645e-08
-1.28428e-10
3.01309e-08
2.21278e-10
3.01766e-08
5.43368e-10
3.03012e-08
8.16022e-10
3.04935e-08
1.02306e-09
3.07295e-08
1.15606e-09
1.21581e-09
3.0976e-08
3.77713e-08
-4.02482e-10
3.77169e-08
-4.81006e-10
3.76504e-08
-5.67024e-10
3.75752e-08
-6.57664e-10
3.7496e-08
-7.50236e-10
3.74173e-08
-8.43354e-10
3.73433e-08
-9.3654e-10
3.72768e-08
-1.0306e-09
3.72197e-08
-1.12713e-09
3.71725e-08
-1.22797e-09
3.71348e-08
-1.33467e-09
3.71055e-08
-1.44761e-09
3.7083e-08
-1.56555e-09
3.70657e-08
-1.68421e-09
3.70525e-08
-1.79516e-09
3.70439e-08
-1.88527e-09
3.70417e-08
-1.93115e-09
3.70531e-08
-1.90767e-09
3.7089e-08
-1.7717e-09
3.7167e-08
-1.48478e-09
3.73161e-08
-1.03736e-09
3.75603e-08
-3.80542e-10
3.78643e-08
2.40153e-10
3.81873e-08
4.80497e-10
3.84956e-08
4.66663e-10
3.87646e-08
2.88966e-10
3.89806e-08
7.47337e-12
3.91347e-08
-3.1665e-10
3.92222e-08
-6.36678e-10
3.9243e-08
-9.17001e-10
3.92007e-08
-1.13144e-09
3.91034e-08
-1.26291e-09
3.89625e-08
-1.30325e-09
3.87926e-08
-1.25256e-09
3.86105e-08
-1.11823e-09
3.8434e-08
-9.13633e-10
3.82811e-08
-6.56633e-10
3.81684e-08
-3.6792e-10
3.81093e-08
-6.9317e-11
3.81125e-08
2.1809e-10
3.81803e-08
4.75518e-10
3.83077e-08
6.88612e-10
3.84823e-08
8.48476e-10
3.86858e-08
9.5261e-10
1.00464e-09
3.88969e-08
4.93285e-08
-3.58101e-10
4.92725e-08
-4.2499e-10
4.92048e-08
-4.99312e-10
4.91267e-08
-5.79534e-10
4.90404e-08
-6.6394e-10
4.89483e-08
-7.51328e-10
4.8853e-08
-8.41153e-10
4.8756e-08
-9.33628e-10
4.86585e-08
-1.02966e-09
4.85609e-08
-1.13034e-09
4.84628e-08
-1.23664e-09
4.83637e-08
-1.34844e-09
4.82625e-08
-1.46436e-09
4.81584e-08
-1.58017e-09
4.80513e-08
-1.68797e-09
4.79422e-08
-1.77625e-09
4.78341e-08
-1.82304e-09
4.7735e-08
-1.80856e-09
4.76568e-08
-1.69344e-09
4.76174e-08
-1.44541e-09
4.76482e-08
-1.06814e-09
4.77745e-08
-5.06848e-10
4.79779e-08
3.67161e-11
4.82227e-08
2.3571e-10
4.84698e-08
2.19553e-10
4.86915e-08
6.72317e-11
4.88718e-08
-1.7281e-10
4.89995e-08
-4.44279e-10
4.90686e-08
-7.05861e-10
4.90787e-08
-9.27059e-10
4.90336e-08
-1.08631e-09
4.89415e-08
-1.17083e-09
4.88143e-08
-1.17608e-09
4.86666e-08
-1.10488e-09
4.85146e-08
-9.66173e-10
4.83746e-08
-7.73618e-10
4.82619e-08
-5.43949e-10
4.81893e-08
-2.95316e-10
4.81656e-08
-4.56191e-11
4.81947e-08
1.88994e-10
4.82751e-08
3.9513e-10
4.83997e-08
5.6397e-10
4.85572e-08
6.90942e-10
4.87338e-08
7.76078e-10
8.23247e-10
4.89152e-08
6.35003e-08
-3.10863e-10
6.3443e-08
-3.67629e-10
6.33748e-08
-4.31107e-10
6.32958e-08
-5.00583e-10
6.32069e-08
-5.75052e-10
6.31092e-08
-6.53597e-10
6.30037e-08
-7.35643e-10
6.28911e-08
-8.21053e-10
6.27716e-08
-9.10166e-10
6.26447e-08
-1.00344e-09
6.25094e-08
-1.10136e-09
6.23644e-08
-1.20341e-09
6.22083e-08
-1.30824e-09
6.204e-08
-1.41183e-09
6.1859e-08
-1.50703e-09
6.16671e-08
-1.58428e-09
6.1467e-08
-1.623e-09
6.12677e-08
-1.60923e-09
6.10814e-08
-1.50716e-09
6.09267e-08
-1.29074e-09
6.08352e-08
-9.76581e-10
6.08344e-08
-5.061e-10
6.09244e-08
-5.32415e-11
6.10737e-08
8.64314e-11
6.12393e-08
5.39169e-11
6.13938e-08
-8.72952e-11
6.15203e-08
-2.99289e-10
6.1605e-08
-5.29006e-10
6.16417e-08
-7.42491e-10
6.16294e-08
-9.14777e-10
6.15722e-08
-1.02913e-09
6.14784e-08
-1.07705e-09
6.13597e-08
-1.05733e-09
6.12297e-08
-9.74942e-10
6.11032e-08
-8.39606e-10
6.09939e-08
-6.64361e-10
6.0914e-08
-4.63987e-10
6.08722e-08
-2.53538e-10
6.08734e-08
-4.68898e-11
6.09182e-08
1.44267e-10
6.10032e-08
3.10097e-10
6.11212e-08
4.46018e-10
6.12625e-08
5.49616e-10
6.14168e-08
6.21811e-10
6.65879e-10
6.15741e-08
8.06737e-08
-2.64599e-10
8.06184e-08
-3.12381e-10
8.05532e-08
-3.65879e-10
8.04774e-08
-4.24828e-10
8.03911e-08
-4.88689e-10
8.02943e-08
-5.56824e-10
8.01874e-08
-6.28698e-10
8.00703e-08
-7.03943e-10
7.99426e-08
-7.82474e-10
7.98033e-08
-8.64151e-10
7.96509e-08
-9.48992e-10
7.94835e-08
-1.03596e-09
7.92989e-08
-1.12371e-09
7.90954e-08
-1.20832e-09
7.88718e-08
-1.28347e-09
7.86291e-08
-1.34156e-09
7.83697e-08
-1.36359e-09
7.81019e-08
-1.34142e-09
7.78373e-08
-1.24258e-09
7.75953e-08
-1.04867e-09
7.74031e-08
-7.84431e-10
7.72912e-08
-3.94215e-10
7.72796e-08
-4.16032e-11
7.73306e-08
3.54462e-11
7.7405e-08
-2.0493e-11
7.74821e-08
-1.6441e-10
7.75435e-08
-3.60686e-10
7.75735e-08
-5.59049e-10
7.75666e-08
-7.35533e-10
7.75222e-08
-8.70443e-10
7.74448e-08
-9.51652e-10
7.73423e-08
-9.74559e-10
7.72257e-08
-9.40735e-10
7.71072e-08
-8.565e-10
7.69992e-08
-7.31563e-10
7.69125e-08
-5.77653e-10
7.68557e-08
-4.07175e-10
7.68342e-08
-2.32059e-10
7.685e-08
-6.26867e-11
7.69012e-08
9.30151e-11
7.69843e-08
2.27006e-10
7.70924e-08
3.37929e-10
7.72178e-08
4.24248e-10
7.73526e-08
4.87004e-10
5.28702e-10
7.74898e-08
1.01288e-07
-2.238e-10
1.0124e-07
-2.63588e-10
1.01182e-07
-3.08006e-10
1.01114e-07
-3.56994e-10
1.01035e-07
-4.10277e-10
1.00946e-07
-4.67421e-10
1.00845e-07
-5.27956e-10
1.00733e-07
-5.91382e-10
1.00608e-07
-6.57339e-10
1.00469e-07
-7.25217e-10
1.00314e-07
-7.94643e-10
1.00142e-07
-8.64052e-10
9.99508e-08
-9.32077e-10
9.97372e-08
-9.94727e-10
9.95003e-08
-1.04658e-09
9.92402e-08
-1.08149e-09
9.89591e-08
-1.08242e-09
9.86641e-08
-1.04641e-09
9.83647e-08
-9.43207e-10
9.80814e-08
-7.65432e-10
9.78341e-08
-5.37072e-10
9.76492e-08
-2.09349e-10
9.75642e-08
4.34258e-11
9.75422e-08
5.74103e-11
9.75443e-08
-2.26075e-11
9.75509e-08
-1.70951e-10
9.75478e-08
-3.57642e-10
9.7522e-08
-5.33247e-10
9.74692e-08
-6.82667e-10
9.739e-08
-7.91274e-10
9.72893e-08
-8.50916e-10
9.71748e-08
-8.60119e-10
9.70564e-08
-8.2236e-10
9.69445e-08
-7.44508e-10
9.68485e-08
-6.35569e-10
9.67764e-08
-5.05557e-10