/*--------------------------------*- C++ -*----------------------------------*\
| =========                 |                                                 |
| \\      /  F ield         | OpenFOAM: The Open Source CFD Toolbox           |
|  \\    /   O peration     | Version:  2312                                  |
|   \\  /    A nd           | Website:  www.openfoam.com                      |
|    \\/     M anipulation  |                                                 |
\*---------------------------------------------------------------------------*/
FoamFile
{
    version     2.0;
    format      ascii;
    arch        "LSB;label=32;scalar=64";
    class       volScalarField;
    location    "598";
    object      p;
}
// * * * * * * * * * * * * * * * * * * * * * * * * * * * * * * * * * * * * * //

dimensions      [0 2 -2 0 0 0 0];

internalField   nonuniform List<scalar> 
4800
(
2.94584e-13
-1.40716e-06
-2.58103e-06
-3.57167e-06
-4.4202e-06
-5.15475e-06
-5.79642e-06
-6.36182e-06
-6.86443e-06
-7.3154e-06
-7.72451e-06
-8.10591e-06
-8.49066e-06
-8.9512e-06
-1.02925e-05
1.31522e-08
-1.39121e-06
-2.56317e-06
-3.5528e-06
-4.40112e-06
-5.13633e-06
-5.77964e-06
-6.34797e-06
-6.85542e-06
-7.31454e-06
-7.73782e-06
-8.14148e-06
-8.55214e-06
-9.03452e-06
-9.90752e-06
2.92222e-08
-1.37217e-06
-2.54214e-06
-3.53067e-06
-4.37879e-06
-5.1147e-06
-5.75972e-06
-6.33099e-06
-6.84311e-06
-7.30946e-06
-7.74373e-06
-8.16115e-06
-8.57694e-06
-8.9948e-06
-9.43346e-06
4.64552e-08
-1.35147e-06
-2.51906e-06
-3.50609e-06
-4.35354e-06
-5.08955e-06
-5.73541e-06
-6.30819e-06
-6.82226e-06
-7.29032e-06
-7.72362e-06
-8.12988e-06
-8.50587e-06
-8.81972e-06
-9.01596e-06
6.56454e-08
-1.32799e-06
-2.49251e-06
-3.47734e-06
-4.3233e-06
-5.05841e-06
-5.70361e-06
-6.27545e-06
-6.78723e-06
-7.24938e-06
-7.66825e-06
-8.04235e-06
-8.35553e-06
-8.56964e-06
-8.63476e-06
8.81578e-08
-1.30019e-06
-2.46073e-06
-3.44238e-06
-4.28567e-06
-5.0183e-06
-5.66056e-06
-6.22791e-06
-6.73176e-06
-7.1792e-06
-7.57131e-06
-7.90015e-06
-8.14607e-06
-8.27981e-06
-8.27409e-06
1.16035e-07
-1.26587e-06
-2.42127e-06
-3.39846e-06
-4.23741e-06
-4.96531e-06
-5.60138e-06
-6.15952e-06
-6.64872e-06
-7.07268e-06
-7.4287e-06
-7.70685e-06
-7.8914e-06
-7.96678e-06
-7.92534e-06
1.52603e-07
-1.2216e-06
-2.37035e-06
-3.34142e-06
-4.17381e-06
-4.89391e-06
-5.51963e-06
-6.06299e-06
-6.53066e-06
-6.9239e-06
-7.2388e-06
-7.46756e-06
-7.60184e-06
-7.63845e-06
-7.58153e-06
2.02965e-07
-1.16217e-06
-2.30238e-06
-3.26522e-06
-4.08824e-06
-4.79679e-06
-5.40733e-06
-5.93017e-06
-6.37036e-06
-6.72846e-06
-7.00187e-06
-7.18733e-06
-7.28406e-06
-7.29733e-06
-7.2365e-06
2.74157e-07
-1.08047e-06
-2.20975e-06
-3.16173e-06
-3.97208e-06
-4.66486e-06
-5.25531e-06
-5.75263e-06
-6.16147e-06
-6.48339e-06
-6.71887e-06
-6.86967e-06
-6.9408e-06
-6.94217e-06
-6.88434e-06
3.74689e-07
-9.67736e-07
-2.08317e-06
-3.02108e-06
-3.81505e-06
-4.48783e-06
-5.05395e-06
-5.52241e-06
-5.89871e-06
-6.18671e-06
-6.39048e-06
-6.51594e-06
-6.57171e-06
-6.56947e-06
-6.51899e-06
5.1353e-07
-8.14343e-07
-1.91255e-06
-2.83254e-06
-3.60628e-06
-4.25534e-06
-4.79424e-06
-5.23275e-06
-5.57818e-06
-5.83708e-06
-6.01666e-06
-6.12569e-06
-6.17439e-06
-6.17455e-06
-6.13441e-06
6.99362e-07
-6.10438e-07
-1.68756e-06
-2.58554e-06
-3.33543e-06
-3.95814e-06
-4.46878e-06
-4.87867e-06
-5.19723e-06
-5.43341e-06
-5.59664e-06
-5.69711e-06
-5.74533e-06
-5.75236e-06
-5.7248e-06
9.40472e-07
-3.45911e-07
-1.39744e-06
-2.26939e-06
-2.99268e-06
-3.58804e-06
-4.07154e-06
-4.45627e-06
-4.75358e-06
-4.97413e-06
-5.12848e-06
-5.22717e-06
-5.28024e-06
-5.29767e-06
-5.28466e-06
1.24492e-06
-1.04938e-08
-1.03093e-06
-1.87308e-06
-2.56812e-06
-3.13684e-06
-3.59623e-06
-3.96086e-06
-4.24345e-06
-4.45554e-06
-4.60792e-06
-4.71079e-06
-4.77335e-06
-4.80444e-06
-4.80817e-06
1.62042e-06
4.05786e-07
-5.77354e-07
-1.38631e-06
-2.05252e-06
-2.59671e-06
-3.03635e-06
-3.38685e-06
-3.66154e-06
-3.8721e-06
-4.02897e-06
-4.14161e-06
-4.21819e-06
-4.26654e-06
-4.28993e-06
2.07251e-06
9.10706e-07
-2.85161e-08
-8.01429e-07
-1.43916e-06
-1.96187e-06
-2.38687e-06
-2.72958e-06
-3.00321e-06
-3.21897e-06
-3.38658e-06
-3.51454e-06
-3.61004e-06
-3.67994e-06
-3.72701e-06
2.60174e-06
1.5066e-06
6.18039e-07
-1.16464e-07
-7.26524e-07
-1.23119e-06
-1.6468e-06
-1.98802e-06
-2.26725e-06
-2.49483e-06
-2.67945e-06
-2.8286e-06
-2.94851e-06
-3.0451e-06
-3.12091e-06
3.20108e-06
2.18697e-06
1.3553e-06
6.61132e-07
7.79501e-08
-4.11664e-07
-8.22546e-07
-1.16787e-06
-1.45869e-06
-1.70413e-06
-1.91177e-06
-2.08802e-06
-2.23819e-06
-2.36718e-06
-2.47756e-06
3.85442e-06
2.93418e-06
2.16398e-06
1.51105e-06
9.53912e-07
4.76915e-07
6.69559e-08
-2.87109e-07
-5.94497e-07
-8.62812e-07
-1.09846e-06
-1.30685e-06
-1.49244e-06
-1.65907e-06
-1.80964e-06
4.49057e-06
3.66728e-06
2.95745e-06
2.34367e-06
1.81073e-06
1.34459e-06
9.33704e-07
5.69086e-07
2.435e-07
-4.91193e-08
-3.13954e-07
-5.55409e-07
-7.77242e-07
-9.82407e-07
-1.17424e-06
5.00569e-06
4.26514e-06
3.60697e-06
3.02672e-06
2.51461e-06
2.05806e-06
1.64695e-06
1.2742e-06
9.34323e-07
6.2251e-07
3.34592e-07
6.70638e-08
-1.83154e-07
-4.18374e-07
-6.4181e-07
5.38135e-06
4.70646e-06
4.09125e-06
3.53969e-06
3.04583e-06
2.59851e-06
2.18892e-06
1.8115e-06
1.46204e-06
1.13674e-06
8.32165e-07
5.45447e-07
2.74056e-07
1.61381e-08
-2.31143e-07
5.6491e-06
5.02606e-06
4.44678e-06
3.91987e-06
3.4419e-06
3.00309e-06
2.59589e-06
2.21592e-06
1.85992e-06
1.52481e-06
1.20776e-06
9.06419e-07
6.187e-07
3.43096e-07
7.72073e-08
5.83613e-06
5.25395e-06
4.70472e-06
4.19896e-06
3.73471e-06
3.30349e-06
2.89894e-06
2.5176e-06
2.15691e-06
1.81434e-06
1.48757e-06
1.17466e-06
8.73895e-07
5.84048e-07
3.03124e-07
5.96489e-06
5.4151e-06
4.89102e-06
4.40331e-06
3.95068e-06
3.52591e-06
3.12377e-06
2.74152e-06
2.37712e-06
2.02851e-06
1.69377e-06
1.37132e-06
1.05977e-06
7.58112e-07
4.64717e-07
6.05255e-06
5.52869e-06
5.02562e-06
4.55311e-06
4.11012e-06
3.69061e-06
3.29039e-06
2.90732e-06
2.53974e-06
2.18597e-06
1.84445e-06
1.51391e-06
1.19324e-06
8.81605e-07
5.77696e-07
6.11181e-06
5.60893e-06
5.12338e-06
4.66354e-06
4.22843e-06
3.81309e-06
3.41425e-06
3.03027e-06
2.6598e-06
2.30147e-06
1.95405e-06
1.61653e-06
1.28802e-06
9.67852e-07
6.54975e-07
6.15178e-06
5.66611e-06
5.19515e-06
4.74579e-06
4.31703e-06
3.90491e-06
3.50698e-06
3.12198e-06
2.74881e-06
2.38639e-06
2.03375e-06
1.69013e-06
1.35481e-06
1.02729e-06
7.06705e-07
6.17889e-06
5.7075e-06
5.24868e-06
4.80795e-06
4.38427e-06
3.97462e-06
3.57721e-06
3.19109e-06
2.81539e-06
2.44927e-06
2.09201e-06
1.74302e-06
1.40177e-06
1.06785e-06
7.40606e-07
6.19757e-06
5.73817e-06
5.28948e-06
4.85581e-06
4.43621e-06
4.02844e-06
3.63126e-06
3.24397e-06
2.86591e-06
2.49645e-06
2.13507e-06
1.78135e-06
1.43488e-06
1.09539e-06
7.62354e-07
6.21082e-06
5.76158e-06
5.32134e-06
4.89346e-06
4.47715e-06
4.07082e-06
3.67368e-06
3.28522e-06
2.90496e-06
2.53249e-06
2.16745e-06
1.80953e-06
1.45847e-06
1.11409e-06
7.75999e-07
6.22061e-06
5.78007e-06
5.34689e-06
4.92379e-06
4.51015e-06
4.10494e-06
3.7077e-06
3.31809e-06
2.93582e-06
2.56064e-06
2.19231e-06
1.83067e-06
1.47556e-06
1.12687e-06
7.84339e-07
6.22821e-06
5.79516e-06
5.36792e-06
4.94878e-06
4.53733e-06
4.133e-06
3.73557e-06
3.34487e-06
2.96076e-06
2.58313e-06
2.21188e-06
1.84693e-06
1.48821e-06
1.13572e-06
7.89262e-07
6.23441e-06
5.80783e-06
5.38562e-06
4.96979e-06
4.56017e-06
4.15653e-06
3.75886e-06
3.36713e-06
2.98135e-06
2.60151e-06
2.22763e-06
1.85973e-06
1.49782e-06
1.14195e-06
7.92006e-07
6.23967e-06
5.81871e-06
5.40077e-06
4.98774e-06
4.57965e-06
4.17657e-06
3.77862e-06
3.38594e-06
2.99863e-06
2.61681e-06
2.24058e-06
1.87005e-06
1.50528e-06
1.14641e-06
7.93374e-07
6.24426e-06
5.82822e-06
5.41392e-06
5.00326e-06
4.59648e-06
4.19383e-06
3.79559e-06
3.40201e-06
3.01332e-06
2.62972e-06
2.25139e-06
1.8785e-06
1.5112e-06
1.14965e-06
7.93868e-07
6.2484e-06
5.83672e-06
5.42559e-06
5.01698e-06
4.6113e-06
4.209e-06
3.81047e-06
3.41605e-06
3.02609e-06
2.64086e-06
2.26062e-06
1.88561e-06
1.51602e-06
1.15206e-06
7.93794e-07
6.25229e-06
5.84463e-06
5.43638e-06
5.02961e-06
4.62494e-06
4.22293e-06
3.82409e-06
3.42888e-06
3.03771e-06
2.65095e-06
2.26892e-06
1.89191e-06
1.52018e-06
1.15397e-06
7.9338e-07
6.2556e-06
5.85152e-06
5.4458e-06
5.04067e-06
4.6369e-06
4.23516e-06
3.83607e-06
3.44016e-06
3.04794e-06
2.65983e-06
2.27622e-06
1.89746e-06
1.52384e-06
1.15564e-06
7.93003e-07
-1.18673e-05
-9.70921e-06
-8.26347e-06
-7.3182e-06
-6.57962e-06
-6.00715e-06
-5.56004e-06
-5.20616e-06
-4.92459e-06
-4.69945e-06
-4.51804e-06
-4.36994e-06
-4.24658e-06
-4.14131e-06
-4.05009e-06
-3.97276e-06
-3.9153e-06
-3.89298e-06
-3.93429e-06
-4.08324e-06
-4.39666e-06
-4.92572e-06
-5.61642e-06
-6.26107e-06
-6.70899e-06
-6.88738e-06
-6.7609e-06
-6.31851e-06
-5.56147e-06
-4.49795e-06
-3.14268e-06
-1.51777e-06
3.46e-07
2.40897e-06
4.6234e-06
6.93495e-06
9.28389e-06
1.16052e-05
1.38266e-05
1.58616e-05
1.75971e-05
1.88639e-05
1.93592e-05
1.854e-05
1.51858e-05
-1.04119e-05
-9.18039e-06
-8.07552e-06
-7.23037e-06
-6.53204e-06
-5.97308e-06
-5.53031e-06
-5.17795e-06
-4.89721e-06
-4.67301e-06
-4.49286e-06
-4.34637e-06
-4.22496e-06
-4.12201e-06
-4.03349e-06
-3.95933e-06
-3.9055e-06
-3.88713e-06
-3.9322e-06
-4.08373e-06
-4.39695e-06
-4.92119e-06
-5.60229e-06
-6.23577e-06
-6.6738e-06
-6.8447e-06
-6.71346e-06
-6.26893e-06
-5.51252e-06
-4.453e-06
-3.10615e-06
-1.49553e-06
3.46267e-07
2.37735e-06
4.5471e-06
6.79719e-06
9.06207e-06
1.12677e-05
1.33265e-05
1.51253e-05
1.65015e-05
1.71844e-05
1.66901e-05
1.41377e-05
8.72924e-06
-9.51026e-06
-8.73939e-06
-7.87064e-06
-7.11856e-06
-6.4689e-06
-5.93088e-06
-5.49641e-06
-5.1476e-06
-4.86865e-06
-4.6458e-06
-4.46706e-06
-4.32221e-06
-4.20276e-06
-4.10214e-06
-4.01642e-06
-3.9456e-06
-3.89567e-06
-3.88162e-06
-3.93086e-06
-4.08527e-06
-4.39822e-06
-4.91686e-06
-5.5867e-06
-6.20697e-06
-6.63308e-06
-6.79481e-06
-6.6576e-06
-6.21038e-06
-5.45487e-06
-4.40075e-06
-3.06526e-06
-1.47397e-06
3.37991e-07
2.32563e-06
4.4344e-06
6.6007e-06
8.75157e-06
1.08022e-05
1.26493e-05
1.41567e-05
1.51312e-05
1.5275e-05
1.41489e-05
1.1188e-05
6.25946e-06
-8.92973e-06
-8.38497e-06
-7.68251e-06
-7.01198e-06
-6.40934e-06
-5.89368e-06
-5.46805e-06
-5.12238e-06
-4.84433e-06
-4.62179e-06
-4.44349e-06
-4.2995e-06
-4.18142e-06
-4.08276e-06
-3.99967e-06
-3.9322e-06
-3.88636e-06
-3.87689e-06
-3.93059e-06
-4.08807e-06
-4.40057e-06
-4.9128e-06
-5.56979e-06
-6.17488e-06
-6.58702e-06
-6.73763e-06
-6.59286e-06
-6.14187e-06
-5.387e-06
-4.3392e-06
-3.01764e-06
-1.45051e-06
3.23889e-07
2.25669e-06
4.28861e-06
6.35e-06
8.36005e-06
1.02238e-05
1.18252e-05
1.30168e-05
1.36024e-05
1.33212e-05
1.18702e-05
8.99768e-06
4.83917e-06
-8.48994e-06
-8.07545e-06
-7.50641e-06
-6.91497e-06
-6.35875e-06
-5.86644e-06
-5.44977e-06
-5.10625e-06
-4.82755e-06
-4.60362e-06
-4.4242e-06
-4.27976e-06
-4.16208e-06
-4.06475e-06
-3.98396e-06
-3.91981e-06
-3.87823e-06
-3.87368e-06
-3.9322e-06
-4.09287e-06
-4.4046e-06
-4.90928e-06
-5.55142e-06
-6.13908e-06
-6.53519e-06
-6.67307e-06
-6.51982e-06
-6.0651e-06
-5.31214e-06
-4.27351e-06
-2.97078e-06
-1.43518e-06
2.91281e-07
2.15544e-06
4.09294e-06
6.02818e-06
7.87345e-06
9.52649e-06
1.08659e-05
1.17473e-05
1.19974e-05
1.14248e-05
9.86323e-06
7.2624e-06
3.86178e-06
-8.11705e-06
-7.78988e-06
-7.33118e-06
-6.81956e-06
-6.31345e-06
-5.84833e-06
-5.44287e-06
-5.1017e-06
-4.82126e-06
-4.59424e-06
-4.41187e-06
-4.26534e-06
-4.14673e-06
-4.04977e-06
-3.97071e-06
-3.90965e-06
-3.87241e-06
-3.87304e-06
-3.93665e-06
-4.10058e-06
-4.41102e-06
-4.90667e-06
-5.53151e-06
-6.09914e-06
-6.47696e-06
-6.6005e-06
-6.43813e-06
-5.98031e-06
-5.23149e-06
-4.20626e-06
-2.92893e-06
-1.43424e-06
2.31845e-07
2.01169e-06
3.83613e-06
5.6246e-06
7.28489e-06
8.71238e-06
9.78933e-06
1.03877e-05
1.03733e-05
9.62943e-06
8.09765e-06
5.83752e-06
3.09567e-06
-7.77597e-06
-7.51354e-06
-7.14575e-06
-6.71317e-06
-6.26316e-06
-5.83233e-06
-5.44367e-06
-5.10781e-06
-4.82637e-06
-4.59558e-06
-4.40887e-06
-4.25866e-06
-4.13766e-06
-4.0399e-06
-3.96179e-06
-3.90341e-06
-3.87041e-06
-3.87635e-06
-3.94518e-06
-4.11223e-06
-4.4206e-06
-4.90538e-06
-5.51006e-06
-6.0547e-06
-6.41168e-06
-6.51917e-06
-6.34723e-06
-5.88744e-06
-5.14584e-06
-4.13943e-06
-2.89565e-06
-1.45294e-06
1.38642e-07
1.81735e-06
3.51014e-06
5.13349e-06
6.59437e-06
7.79175e-06
8.62022e-06
8.97659e-06
8.77101e-06
7.95018e-06
6.52495e-06
4.59841e-06
2.37855e-06
-7.44719e-06
-7.23564e-06
-6.94246e-06
-6.58464e-06
-6.19526e-06
-5.80677e-06
-5.44311e-06
-5.11872e-06
-4.83987e-06
-4.60678e-06
-4.41574e-06
-4.26107e-06
-4.13662e-06
-4.03706e-06
-3.9591e-06
-3.90292e-06
-3.87399e-06
-3.88523e-06
-3.95926e-06
-4.12906e-06
-4.43427e-06
-4.90594e-06
-5.48712e-06
-6.0054e-06
-6.33883e-06
-6.42861e-06
-6.24695e-06
-5.78704e-06
-5.05689e-06
-4.07621e-06
-2.87585e-06
-1.49797e-06
3.63187e-09
1.56397e-06
3.10788e-06
4.55177e-06
5.80616e-06
6.77943e-06
7.38448e-06
7.54644e-06
7.21561e-06
6.38355e-06
5.09693e-06
3.46398e-06
1.64547e-06
-7.11947e-06
-6.94956e-06
-6.71773e-06
-6.42745e-06
-6.09944e-06
-5.75942e-06
-5.42921e-06
-5.12443e-06
-4.85448e-06
-4.62319e-06
-4.43003e-06
-4.27176e-06
-4.14389e-06
-4.0422e-06
-3.96402e-06
-3.9098e-06
-3.88483e-06
-3.90133e-06
-3.9804e-06
-4.15236e-06
-4.45298e-06
-4.90885e-06
-5.46277e-06
-5.95103e-06
-6.25807e-06
-6.32871e-06
-6.13784e-06
-5.68071e-06
-4.96767e-06
-4.02142e-06
-2.8762e-06
-1.57759e-06
-1.82241e-07
1.24313e-06
2.62366e-06
3.87912e-06
4.92786e-06
5.69208e-06
6.1055e-06
6.12019e-06
5.71734e-06
4.91536e-06
3.77357e-06
2.38814e-06
8.78652e-07
-6.78519e-06
-6.65068e-06
-6.47002e-06
-6.23907e-06
-5.96967e-06
-5.68084e-06
-5.39057e-06
-5.11346e-06
-4.86012e-06
-4.63689e-06
-4.44612e-06
-4.28713e-06
-4.15754e-06
-4.05464e-06
-3.97675e-06
-3.9248e-06
-3.90403e-06
-3.92593e-06
-4.00986e-06
-4.18323e-06
-4.47754e-06
-4.91459e-06
-5.43717e-06
-5.89155e-06
-6.16954e-06
-6.22013e-06
-6.02152e-06
-5.57147e-06
-4.88298e-06
-3.98177e-06
-2.90516e-06
-1.70135e-06
-4.28471e-07
8.47173e-07
2.05384e-06
3.11805e-06
3.96934e-06
4.54598e-06
4.80179e-06
4.71113e-06
4.2757e-06
3.52667e-06
2.5227e-06
1.34253e-06
7.38638e-08
-6.43789e-06
-6.33461e-06
-6.19773e-06
-6.01857e-06
-5.80322e-06
-5.56528e-06
-5.31862e-06
-5.07552e-06
-4.84622e-06
-4.63826e-06
-4.45602e-06
-4.30113e-06
-4.17334e-06
-4.07169e-06
-3.99581e-06
-3.94735e-06
-3.93164e-06
-3.95941e-06
-4.04819e-06
-4.22217e-06
-4.5083e-06
-4.92342e-06
-5.41059e-06
-5.82736e-06
-6.07412e-06
-6.10475e-06
-5.90124e-06
-5.46435e-06
-4.80981e-06
-3.96611e-06
-2.97292e-06
-1.87976e-06
-7.44331e-07
3.6994e-07
1.39725e-06
2.2736e-06
2.94156e-06
3.35547e-06
3.48626e-06
3.32456e-06
2.88353e-06
2.19769e-06
1.31873e-06
3.08278e-07
-7.69474e-07
-6.07153e-06
-5.99676e-06
-5.89838e-06
-5.76485e-06
-5.59864e-06
-5.4095e-06
-5.20772e-06
-5.00281e-06
-4.80367e-06
-4.61788e-06
-4.45095e-06
-4.30618e-06
-4.18521e-06
-4.08882e-06
-4.01802e-06
-3.97535e-06
-3.96634e-06
-4.00098e-06
-4.09486e-06
-4.26881e-06
-4.54499e-06
-4.93531e-06
-5.38354e-06
-5.75966e-06
-5.97404e-06
-5.9863e-06
-5.78262e-06
-5.36699e-06
-4.75776e-06
-3.98551e-06
-3.09107e-06
-2.12351e-06
-1.1379e-06
-1.92353e-07
6.55607e-07
1.35305e-06
1.8558e-06
2.13244e-06
2.16704e-06
1.96049e-06
1.53078e-06
9.10349e-07
1.41809e-07
-7.27903e-07
-1.65161e-06
-5.68046e-06
-5.63244e-06
-5.56886e-06
-5.47618e-06
-5.35463e-06
-5.21147e-06
-5.05422e-06
-4.88982e-06
-4.72536e-06
-4.56771e-06
-4.42267e-06
-4.29454e-06
-4.18633e-06
-4.10032e-06
-4.03883e-06
-4.0053e-06
-4.00546e-06
-4.04857e-06
-4.14822e-06
-4.32179e-06
-4.58666e-06
-4.95007e-06
-5.35706e-06
-5.69094e-06
-5.87358e-06
-5.87114e-06
-5.67424e-06
-5.29004e-06
-4.739e-06
-4.05272e-06
-3.27155e-06
-2.44213e-06
-1.61471e-06
-8.40031e-07
-1.65964e-07
3.6596e-07
7.2366e-07
8.87097e-07
8.49334e-07
6.16696e-07
2.07652e-07
-3.49979e-07
-1.02261e-06
-1.77515e-06
-2.57274e-06
-5.25944e-06
-5.23717e-06
-5.20583e-06
-5.15042e-06
-5.0698e-06
-4.96973e-06
-4.8558e-06
-4.73281e-06
-4.60607e-06
-4.48136e-06
-4.36414e-06
-4.25905e-06
-4.16993e-06
-4.10011e-06
-4.053e-06
-4.03276e-06
-4.04528e-06
-4.09903e-06
-4.2056e-06
-4.37898e-06
-4.63197e-06
-4.96767e-06
-5.33314e-06
-5.62564e-06
-5.77971e-06
-5.76882e-06
-5.58797e-06
-5.24701e-06
-4.76761e-06
-4.18095e-06
-3.52509e-06
-2.84228e-06
-2.17614e-06
-1.56886e-06
-1.0583e-06
-6.75439e-07
-4.42316e-07
-3.70731e-07
-4.6221e-07
-7.08452e-07
-1.09291e-06
-1.59319e-06
-2.18369e-06
-2.83857e-06
-3.53202e-06
-4.80318e-06
-4.80635e-06
-4.80559e-06
-4.78493e-06
-4.74239e-06
-4.68291e-06
-4.61079e-06
-4.52927e-06
-4.44213e-06
-4.35397e-06
-4.26957e-06
-4.19342e-06
-4.12965e-06
-4.08216e-06
-4.05501e-06
-4.05284e-06
-4.0815e-06
-4.14863e-06
-4.26385e-06
-4.43796e-06
-4.67965e-06
-4.9887e-06
-5.31513e-06
-5.5704e-06
-5.7023e-06
-5.69197e-06
-5.53837e-06
-5.25314e-06
-4.85792e-06
-4.38191e-06
-3.85918e-06
-3.326e-06
-2.81836e-06
-2.36958e-06
-2.00821e-06
-1.75631e-06
-1.62829e-06
-1.63055e-06
-1.7619e-06
-2.01422e-06
-2.37394e-06
-2.82392e-06
-3.34519e-06
-3.91903e-06
-4.52635e-06
-4.30715e-06
-4.33605e-06
-4.36479e-06
-4.37708e-06
-4.37059e-06
-4.34974e-06
-4.31805e-06
-4.27766e-06
-4.23117e-06
-4.18213e-06
-4.13455e-06
-4.09244e-06
-4.05979e-06
-4.04062e-06
-4.03919e-06
-4.06025e-06
-4.10937e-06
-4.19323e-06
-4.3196e-06
-4.49644e-06
-4.72903e-06
-5.01488e-06
-5.30806e-06
-5.53399e-06
-5.65347e-06
-5.65505e-06
-5.54085e-06
-5.32313e-06
-5.02211e-06
-4.66358e-06
-4.27632e-06
-3.88982e-06
-3.53222e-06
-3.22862e-06
-2.99959e-06
-2.86029e-06
-2.81982e-06
-2.88141e-06
-3.0429e-06
-3.29749e-06
-3.63484e-06
-4.04239e-06
-4.50647e-06
-5.01376e-06
-5.55027e-06
-3.76937e-06
-3.82467e-06
-3.88194e-06
-3.9258e-06
-3.95392e-06
-3.97027e-06
-3.97782e-06
-3.97804e-06
-3.97269e-06
-3.96451e-06
-3.95671e-06
-3.95275e-06
-3.95616e-06
-3.97073e-06
-4.00052e-06
-4.05001e-06
-4.12422e-06
-4.22877e-06
-4.36971e-06
-4.55264e-06
-4.78032e-06
-5.04921e-06
-5.3184e-06
-5.52651e-06
-5.64619e-06
-5.67239e-06
-5.60933e-06
-5.46864e-06
-5.2679e-06
-5.02847e-06
-4.77328e-06
-4.52495e-06
-4.30441e-06
-4.12972e-06
-4.01521e-06
-3.97102e-06
-4.00288e-06
-4.11239e-06
-4.29753e-06
-4.5532e-06
-4.87203e-06
-5.24522e-06
-5.66324e-06
-6.11681e-06
-6.59582e-06
-3.19213e-06
-3.27462e-06
-3.35936e-06
-3.43348e-06
-3.49506e-06
-3.54751e-06
-3.59325e-06
-3.6334e-06
-3.66923e-06
-3.70284e-06
-3.7368e-06
-3.77392e-06
-3.81721e-06
-3.86995e-06
-3.93573e-06
-4.01845e-06
-4.12236e-06
-4.25198e-06
-4.41182e-06
-4.60566e-06
-4.8347e-06
-5.09552e-06
-5.35298e-06
-5.55767e-06
-5.69193e-06
-5.75543e-06
-5.75328e-06
-5.69553e-06
-5.59639e-06
-5.47243e-06
-5.34078e-06
-5.21789e-06
-5.11859e-06
-5.0554e-06
-5.03807e-06
-5.07331e-06
-5.16485e-06
-5.31371e-06
-5.51848e-06
-5.77575e-06
-6.08064e-06
-6.42731e-06
-6.80933e-06
-7.22046e-06
-7.6536e-06
-2.58198e-06
-2.69255e-06
-2.80368e-06
-2.90695e-06
-3.00127e-06
-3.08911e-06
-3.17229e-06
-3.25173e-06
-3.3285e-06
-3.40425e-06
-3.48099e-06
-3.56097e-06
-3.64663e-06
-3.74065e-06
-3.84598e-06
-3.9658e-06
-4.10348e-06
-4.26246e-06
-4.44598e-06
-4.65656e-06
-4.89468e-06
-5.15787e-06
-5.41737e-06
-5.6344e-06
-5.79777e-06
-5.90944e-06
-5.97443e-06
-6.00091e-06
-5.99964e-06
-5.98259e-06
-5.96185e-06
-5.94875e-06
-5.95341e-06
-5.98428e-06
-6.04794e-06
-6.14895e-06
-6.28998e-06
-6.47192e-06
-6.6941e-06
-6.95456e-06
-7.25035e-06
-7.57786e-06
-7.93303e-06
-8.31179e-06
-8.70941e-06
-1.9514e-06
-2.09069e-06
-2.22697e-06
-2.35843e-06
-2.4851e-06
-2.60802e-06
-2.72816e-06
-2.8464e-06
-2.96377e-06
-3.08158e-06
-3.20138e-06
-3.32491e-06
-3.45408e-06
-3.59098e-06
-3.73791e-06
-3.8973e-06
-4.07167e-06
-4.26354e-06
-4.47517e-06
-4.70824e-06
-4.96321e-06
-5.23854e-06
-5.51263e-06
-5.7566e-06
-5.96178e-06
-6.12931e-06
-6.26346e-06
-6.37091e-06
-6.45951e-06
-6.53742e-06
-6.61262e-06
-6.69264e-06
-6.78414e-06
-6.89275e-06
-7.02289e-06
-7.17782e-06
-7.35972e-06
-7.56966e-06
-7.80764e-06
-8.07281e-06
-8.36368e-06
-8.67826e-06
-9.01423e-06
-9.36909e-06
-9.74012e-06
-1.35427e-06
-1.52267e-06
-1.68406e-06
-1.84329e-06
-2.0015e-06
-2.15825e-06
-2.31367e-06
-2.4686e-06
-2.62409e-06
-2.7812e-06
-2.94111e-06
-3.10515e-06
-3.27482e-06
-3.45175e-06
-3.63766e-06
-3.83441e-06
-4.04386e-06
-4.26784e-06
-4.50801e-06
-4.76556e-06
-5.04114e-06
-5.33349e-06
-5.62818e-06
-5.90569e-06
-6.15635e-06
-6.3778e-06
-6.57327e-06
-6.74881e-06
-6.91041e-06
-7.06349e-06
-7.21327e-06
-7.36474e-06
-7.52241e-06
-7.69014e-06
-7.87104e-06
-8.06757e-06
-8.28157e-06
-8.51416e-06
-8.76582e-06
-9.03648e-06
-9.32563e-06
-9.63241e-06
-9.95574e-06
-1.02942e-05
-1.06468e-05
-8.52492e-07
-1.04832e-06
-1.23606e-06
-1.42313e-06
-1.61099e-06
-1.79855e-06
-1.98555e-06
-2.17278e-06
-2.36121e-06
-2.55175e-06
-2.7453e-06
-2.94292e-06
-3.14582e-06
-3.35528e-06
-3.5727e-06
-3.79949e-06
-4.03713e-06
-4.28705e-06
-4.55058e-06
-4.82866e-06
-5.12222e-06
-5.43012e-06
-5.74345e-06
-6.04938e-06
-6.33631e-06
-6.59856e-06
-6.83864e-06
-7.06239e-06
-7.27473e-06
-7.4794e-06
-7.6799e-06
-7.87972e-06
-8.08212e-06
-8.28989e-06
-8.50541e-06
-8.73059e-06
-8.96692e-06
-9.21549e-06
-9.47699e-06
-9.75176e-06
-1.00398e-05
-1.0341e-05
-1.06548e-05
-1.09805e-05
-1.13178e-05
-4.66246e-07
-6.86791e-07
-8.99635e-07
-1.11222e-06
-1.32599e-06
-1.53975e-06
-1.75319e-06
-1.96702e-06
-2.18212e-06
-2.39924e-06
-2.61912e-06
-2.84265e-06
-3.07081e-06
-3.30468e-06
-3.5454e-06
-3.79415e-06
-4.05215e-06
-4.32061e-06
-4.60068e-06
-4.89322e-06
-5.19938e-06
-5.51808e-06
-5.84399e-06
-6.16845e-06
-6.47882e-06
-6.76747e-06
-7.03641e-06
-7.29125e-06
-7.53617e-06
-7.77387e-06
-8.00685e-06
-8.23771e-06
-8.46892e-06
-8.70263e-06
-8.9407e-06
-9.18468e-06
-9.43586e-06
-9.69526e-06
-9.96365e-06
-1.02415e-05
-1.05292e-05
-1.08267e-05
-1.1134e-05
-1.14508e-05
-1.17769e-05
-1.77651e-07
-4.19598e-07
-6.5473e-07
-8.89525e-07
-1.12521e-06
-1.36076e-06
-1.59592e-06
-1.83131e-06
-2.0677e-06
-2.3057e-06
-2.54597e-06
-2.78923e-06
-3.03634e-06
-3.2882e-06
-3.54579e-06
-3.81013e-06
-4.08227e-06
-4.36328e-06
-4.65423e-06
-4.95595e-06
-5.26969e-06
-5.59449e-06
-5.92708e-06
-6.26139e-06
-6.58472e-06
-6.88872e-06
-7.17512e-06
-7.44915e-06
-7.71439e-06
-7.97288e-06
-8.22653e-06
-8.47737e-06
-8.72735e-06
-8.97819e-06
-9.23138e-06
-9.48822e-06
-9.74982e-06
-1.00171e-05
-1.02908e-05
-1.05715e-05
-1.08595e-05
-1.11552e-05
-1.14585e-05
-1.17693e-05
-1.20879e-05
3.19785e-08
-2.28188e-07
-4.82459e-07
-7.36067e-07
-9.89975e-07
-1.24338e-06
-1.49612e-06
-1.74873e-06
-2.00186e-06
-2.25604e-06
-2.51183e-06
-2.76987e-06
-3.0309e-06
-3.2957e-06
-3.56513e-06
-3.84009e-06
-4.12152e-06
-4.4104e-06
-4.70775e-06
-5.01436e-06
-5.33156e-06
-5.65847e-06
-5.99297e-06
-6.33047e-06
-6.65894e-06
-6.97031e-06
-7.26616e-06
-7.55121e-06
-7.82851e-06
-8.0997e-06
-8.36625e-06
-8.62985e-06
-8.89207e-06
-9.15431e-06
-9.41781e-06
-9.68365e-06
-9.95279e-06
-1.0226e-05
-1.05041e-05
-1.07875e-05
-1.10767e-05
-1.13719e-05
-1.16733e-05
-1.1981e-05
-1.2295e-05
1.79983e-07
-9.5505e-08
-3.65836e-07
-6.35048e-07
-9.03857e-07
-1.17167e-06
-1.43841e-06
-1.70457e-06
-1.97066e-06
-2.23718e-06
-2.50459e-06
-2.77349e-06
-3.04451e-06
-3.31835e-06
-3.59578e-06
-3.8776e-06
-4.16468e-06
-4.45793e-06
-4.7583e-06
-5.06661e-06
-5.38417e-06
-5.71021e-06
-6.04313e-06
-6.3792e-06
-6.70751e-06
-7.02088e-06
-7.32082e-06
-7.61149e-06
-7.89543e-06
-8.17398e-06
-8.44837e-06
-8.72e-06
-8.99017e-06
-9.26006e-06
-9.5307e-06
-9.80302e-06
-1.00778e-05
-1.03559e-05
-1.06377e-05
-1.09239e-05
-1.12149e-05
-1.15109e-05
-1.18122e-05
-1.21187e-05
-1.24308e-05
2.81544e-07
-6.73505e-09
-2.90361e-07
-5.72356e-07
-8.53228e-07
-1.13256e-06
-1.41037e-06
-1.68707e-06
-1.96312e-06
-2.23892e-06
-2.51493e-06
-2.79166e-06
-3.06969e-06
-3.34965e-06
-3.63222e-06
-3.91814e-06
-4.20822e-06
-4.5033e-06
-4.80431e-06
-5.11204e-06
-5.42777e-06
-5.75083e-06
-6.07986e-06
-6.41156e-06
-6.73643e-06
-7.04841e-06
-7.34903e-06
-7.64184e-06
-7.92891e-06
-8.21136e-06
-8.49027e-06
-8.76683e-06
-9.04213e-06
-9.31716e-06
-9.59281e-06
-9.86988e-06
-1.01491e-05
-1.0431e-05
-1.07163e-05
-1.10054e-05
-1.12986e-05
-1.15963e-05
-1.18987e-05
-1.22058e-05
-1.25179e-05
3.49173e-07
5.02423e-08
-2.44319e-07
-5.36724e-07
-8.27318e-07
-1.11583e-06
-1.40234e-06
-1.68722e-06
-1.97085e-06
-2.25361e-06
-2.5359e-06
-2.81819e-06
-3.10102e-06
-3.38495e-06
-3.6706e-06
-3.95867e-06
-4.24989e-06
-4.54506e-06
-4.84506e-06
-5.15068e-06
-5.46315e-06
-5.7819e-06
-6.10562e-06
-6.43132e-06
-6.75091e-06
-7.05958e-06
-7.35883e-06
-7.65162e-06
-7.93962e-06
-8.22379e-06
-8.5051e-06
-8.78455e-06
-9.06311e-06
-9.3416e-06
-9.62082e-06
-9.90145e-06
-1.01841e-05
-1.04694e-05
-1.07578e-05
-1.10497e-05
-1.13456e-05
-1.16455e-05
-1.19499e-05
-1.22586e-05
-1.25721e-05
3.92707e-07
8.49007e-08
-2.18643e-07
-5.19515e-07
-8.17943e-07
-1.11377e-06
-1.40714e-06
-1.69835e-06
-1.98776e-06
-2.2757e-06
-2.56256e-06
-2.84876e-06
-3.13479e-06
-3.42117e-06
-3.70848e-06
-3.99735e-06
-4.28847e-06
-4.58259e-06
-4.88055e-06
-5.1831e-06
-5.49145e-06
-5.80512e-06
-6.1228e-06
-6.44177e-06
-6.75528e-06
-7.05969e-06
-7.35645e-06
-7.64796e-06
-7.93557e-06
-8.22012e-06
-8.50248e-06
-8.78354e-06
-9.06411e-06
-9.34495e-06
-9.62673e-06
-9.91008e-06
-1.01956e-05
-1.04837e-05
-1.0775e-05
-1.10697e-05
-1.13682e-05
-1.16708e-05
-1.19777e-05
-1.22889e-05
-1.26047e-05
4.19609e-07
1.04381e-07
-2.0656e-07
-5.1434e-07
-8.1911e-07
-1.12081e-06
-1.41959e-06
-1.71575e-06
-2.00958e-06
-2.30141e-06
-2.59158e-06
-2.8805e-06
-3.16862e-06
-3.45641e-06
-3.74442e-06
-4.03322e-06
-4.32346e-06
-4.61585e-06
-4.91116e-06
-5.21015e-06
-5.51395e-06
-5.82218e-06
-6.13357e-06
-6.44567e-06
-6.75295e-06
-7.05277e-06
-7.34653e-06
-7.63611e-06
-7.92258e-06
-8.20673e-06
-8.48933e-06
-8.77116e-06
-9.05295e-06
-9.33537e-06
-9.61903e-06
-9.9045e-06
-1.01923e-05
-1.04829e-05
-1.07767e-05
-1.10741e-05
-1.13754e-05
-1.16808e-05
-1.19905e-05
-1.23045e-05
-1.26232e-05
4.35348e-07
1.13876e-07
-2.03194e-07
-5.16649e-07
-8.26597e-07
-1.13304e-06
-1.43616e-06
-1.73621e-06
-2.03347e-06
-2.32824e-06
-2.62084e-06
-2.91166e-06
-3.2011e-06
-3.48962e-06
-3.77771e-06
-4.06592e-06
-4.35484e-06
-4.64513e-06
-4.93752e-06
-5.23273e-06
-5.53185e-06
-5.83459e-06
-6.13976e-06
-6.44521e-06
-6.7465e-06
-7.04182e-06
-7.33242e-06
-7.61976e-06
-7.90474e-06
-8.18805e-06
-8.4704e-06
-8.75249e-06
-9.03498e-06
-9.31847e-06
-9.60353e-06
-9.89068e-06
-1.01804e-05
-1.04731e-05
-1.07693e-05
-1.10692e-05
-1.13731e-05
-1.16813e-05
-1.19939e-05
-1.2311e-05
-1.26328e-05
4.43797e-07
1.17032e-07
-2.05158e-07
-5.23323e-07
-8.37548e-07
-1.14789e-06
-1.45453e-06
-1.75769e-06
-2.05765e-06
-2.35468e-06
-2.64909e-06
-2.94124e-06
-3.2315e-06
-3.52031e-06
-3.80812e-06
-4.09544e-06
-4.38283e-06
-4.67088e-06
-4.96029e-06
-5.25173e-06
-5.54625e-06
-5.84362e-06
-6.14283e-06
-6.44207e-06
-6.73783e-06
-7.02891e-06
-7.31641e-06
-7.60145e-06
-7.88478e-06
-8.16704e-06
-8.44888e-06
-8.73093e-06
-9.01378e-06
-9.298e-06
-9.58411e-06
-9.8726e-06
-1.01639e-05
-1.04585e-05
-1.07568e-05
-1.1059e-05
-1.13654e-05
-1.16763e-05
-1.19917e-05
-1.23119e-05
-1.26369e-05
4.47616e-07
1.16326e-07
-2.10185e-07
-5.32304e-07
-8.50111e-07
-1.16369e-06
-1.47323e-06
-1.77894e-06
-2.08106e-06
-2.37987e-06
-2.67565e-06
-2.96875e-06
-3.25951e-06
-3.54835e-06
-3.83568e-06
-4.12198e-06
-4.40776e-06
-4.69358e-06
-4.98009e-06
-5.26789e-06
-5.55801e-06
-5.85029e-06
-6.14389e-06
-6.43746e-06
-6.72823e-06
-7.01543e-06
-7.29999e-06
-7.58279e-06
-7.86446e-06
-8.1456e-06
-8.42679e-06
-8.70861e-06
-8.99162e-06
-9.27632e-06
-9.56324e-06
-9.85283e-06
-1.01455e-05
-1.04417e-05
-1.07418e-05
-1.10461e-05
-1.13548e-05
-1.16682e-05
-1.19864e-05
-1.23095e-05
-1.26376e-05
4.48578e-07
1.13386e-07
-2.16811e-07
-5.42292e-07
-8.63138e-07
-1.17946e-06
-1.49142e-06
-1.79924e-06
-2.10314e-06
-2.40337e-06
-2.70023e-06
-2.99402e-06
-3.28508e-06
-3.57379e-06
-3.86055e-06
-4.14579e-06
-4.42999e-06
-4.71368e-06
-4.99744e-06
-5.28183e-06
-5.56783e-06
-5.85533e-06
-6.14376e-06
-6.43221e-06
-6.71853e-06
-7.00222e-06
-7.28407e-06
-7.56475e-06
-7.84483e-06
-8.12484e-06
-8.40533e-06
-8.68683e-06
-8.96985e-06
-9.25489e-06
-9.54243e-06
-9.83291e-06
-1.01268e-05
-1.04244e-05
-1.07261e-05
-1.10322e-05
-1.13431e-05
-1.16588e-05
-1.19795e-05
-1.23053e-05
-1.26363e-05
4.47834e-07
1.09251e-07
-2.24121e-07
-5.52493e-07
-8.7595e-07
-1.19461e-06
-1.50864e-06
-1.81824e-06
-2.12362e-06
-2.42503e-06
-2.72274e-06
-3.01705e-06
-3.30829e-06
-3.59679e-06
-3.88294e-06
-4.16715e-06
-4.44986e-06
-4.73154e-06
-5.01276e-06
-5.294e-06
-5.5762e-06
-5.85927e-06
-6.14296e-06
-6.42684e-06
-6.70922e-06
-6.98978e-06
-7.26914e-06
-7.54786e-06
-7.82644e-06
-8.10538e-06
-8.38516e-06
-8.66629e-06
-8.94925e-06
-9.23452e-06
-9.52254e-06
-9.81376e-06
-1.01086e-05
-1.04074e-05
-1.07106e-05
-1.10183e-05
-1.1331e-05
-1.16488e-05
-1.19719e-05
-1.23003e-05
-1.2634e-05
4.46119e-07
1.04572e-07
-2.31556e-07
-5.62435e-07
-8.88155e-07
-1.20884e-06
-1.52464e-06
-1.83576e-06
-2.14239e-06
-2.44479e-06
-2.7432e-06
-3.03791e-06
-3.32923e-06
-3.6175e-06
-3.90305e-06
-4.18628e-06
-4.46761e-06
-4.74745e-06
-5.02634e-06
-5.30472e-06
-5.58345e-06
-5.86248e-06
-6.14186e-06
-6.42167e-06
-6.70057e-06
-6.97833e-06
-7.25545e-06
-7.53239e-06
-7.80959e-06
-8.08752e-06
-8.36662e-06
-8.64737e-06
-8.93022e-06
-9.21563e-06
-9.50404e-06
-9.79586e-06
-1.00915e-05
-1.03914e-05
-1.06958e-05
-1.1005e-05
-1.13194e-05
-1.1639e-05
-1.19642e-05
-1.22948e-05
-1.2631e-05
4.43881e-07
9.97332e-08
-2.38801e-07
-5.71869e-07
-8.99562e-07
-1.222e-06
-1.53934e-06
-1.85177e-06
-2.15948e-06
-2.4627e-06
-2.7617e-06
-3.05673e-06
-3.34809e-06
-3.6361e-06
-3.92109e-06
-4.20342e-06
-4.48348e-06
-4.76166e-06
-5.03844e-06
-5.31423e-06
-5.58983e-06
-5.86517e-06
-6.14066e-06
-6.41686e-06
-6.69269e-06
-6.96796e-06
-7.24307e-06
-7.5184e-06
-7.79435e-06
-8.07135e-06
-8.34981e-06
-8.63019e-06
-8.9129e-06
-9.1984e-06
-9.48711e-06
-9.77944e-06
-1.00758e-05
-1.03765e-05
-1.0682e-05
-1.09925e-05
-1.13084e-05
-1.16297e-05
-1.19567e-05
-1.22894e-05
-1.26278e-05
4.41351e-07
9.48814e-08
-2.4579e-07
-5.808e-07
-9.10241e-07
-1.23423e-06
-1.55293e-06
-1.8665e-06
-2.17515e-06
-2.4791e-06
-2.77859e-06
-3.07388e-06
-3.36525e-06
-3.65301e-06
-3.93747e-06
-4.21896e-06
-4.49786e-06
-4.77452e-06
-5.04939e-06
-5.32282e-06
-5.59557e-06
-5.86754e-06
-6.13946e-06
-6.41242e-06
-6.68552e-06
-6.95855e-06
-7.23183e-06
-7.5057e-06
-7.78051e-06
-8.05664e-06