/*--------------------------------*- C++ -*----------------------------------*\
| =========                 |                                                 |
| \\      /  F ield         | OpenFOAM: The Open Source CFD Toolbox           |
|  \\    /   O peration     | Version:  2312                                  |
|   \\  /    A nd           | Website:  www.openfoam.com                      |
|    \\/     M anipulation  |                                                 |
\*---------------------------------------------------------------------------*/
FoamFile
{
    version     2.0;
    format      ascii;
    arch        "LSB;label=32;scalar=64";
    class       surfaceScalarField;
    location    "598";
    object      phi;
}
// * * * * * * * * * * * * * * * * * * * * * * * * * * * * * * * * * * * * * //

dimensions      [0 3 -1 0 0 0 0];

oriented        oriented;

internalField   nonuniform List<scalar> 
9445
(
5.72483e-10
1.23045e-11
5.65002e-10
7.48079e-12
5.60547e-10
4.45532e-12
5.58236e-10
2.3103e-12
5.57535e-10
7.01068e-13
5.58128e-10
-5.92948e-13
5.59871e-10
-1.74322e-12
5.62767e-10
-2.89622e-12
5.67e-10
-4.23298e-12
5.73117e-10
-6.11636e-12
5.82703e-10
-9.58611e-12
6.00479e-10
-1.77766e-11
6.38411e-10
-3.79319e-11
7.28746e-10
-9.03349e-11
-2.46269e-10
9.75015e-10
1.99848e-09
5.45728e-11
1.97241e-09
3.35458e-11
1.95658e-09
2.02856e-11
1.94792e-09
1.09754e-11
1.9446e-09
4.01824e-12
1.94554e-09
-1.53485e-12
1.9502e-09
-6.40655e-12
1.95851e-09
-1.12069e-11
1.97093e-09
-1.66456e-11
1.98877e-09
-2.3961e-11
2.0152e-09
-3.60159e-11
2.05695e-09
-5.95233e-11
2.12646e-09
-1.07447e-10
2.2375e-09
-2.01371e-10
-3.59679e-10
2.35091e-09
3.94376e-09
1.36335e-10
3.89278e-09
8.4527e-11
3.86134e-09
5.17228e-11
3.84346e-09
2.88518e-11
3.83564e-09
1.18429e-11
3.83574e-09
-1.63504e-12
3.84263e-09
-1.32986e-11
3.85598e-09
-2.45581e-11
3.87627e-09
-3.69301e-11
3.905e-09
-5.26929e-11
3.94511e-09
-7.61298e-11
4.00077e-09
-1.15179e-10
4.07451e-09
-1.81189e-10
4.15543e-09
-2.82285e-10
-4.05924e-10
4.20167e-09
6.55047e-09
2.6839e-10
6.46708e-09
1.67914e-10
6.41482e-09
1.03987e-10
6.384e-09
5.96633e-11
6.36896e-09
2.68891e-11
6.36619e-09
1.1348e-12
6.37368e-09
-2.0795e-11
6.39054e-09
-4.14128e-11
6.41676e-09
-6.31498e-11
6.45311e-09
-8.90426e-11
6.50056e-09
-1.23579e-10
6.55839e-09
-1.73011e-10
6.62013e-09
-2.42926e-10
6.66854e-09
-3.30697e-10
-4.16885e-10
6.6795e-09
9.99048e-09
4.61729e-10
9.86657e-09
2.91825e-10
9.7875e-09
1.83051e-10
9.73924e-09
1.07926e-10
9.71341e-09
5.27164e-11
9.70481e-09
9.73858e-12
9.7102e-09
-2.6187e-11
9.7277e-09
-5.89093e-11
9.75626e-09
-9.17117e-11
9.79509e-09
-1.27875e-10
9.84246e-09
-1.70944e-10
9.89355e-09
-2.24109e-10
9.93833e-09
-2.87703e-10
9.96254e-09
-3.54901e-10
-4.10197e-10
9.95585e-09
1.44669e-08
7.24977e-10
1.42951e-08
4.63591e-10
1.41833e-08
2.94848e-10
1.41127e-08
1.78492e-10
1.4072e-08
9.34732e-11
1.40538e-08
2.79458e-11
1.40533e-08
-2.5752e-11
1.40674e-08
-7.29759e-11
1.40934e-08
-1.17736e-10
1.41287e-08
-1.63153e-10
1.41692e-08
-2.11419e-10
1.42082e-08
-2.63101e-10
1.42363e-08
-3.1584e-10
1.42446e-08
-3.632e-10
-3.95981e-10
1.42304e-08
2.02117e-08
1.05962e-09
1.99884e-08
6.86829e-10
1.98398e-08
4.43463e-10
1.97429e-08
2.75387e-10
1.96833e-08
1.53103e-10
1.96515e-08
5.97562e-11
1.9641e-08
-1.52312e-11
1.96469e-08
-7.8859e-11
1.96649e-08
-1.35816e-10
1.96908e-08
-1.89028e-10
1.97191e-08
-2.39726e-10
1.97433e-08
-2.87266e-10
1.97565e-08
-3.29042e-10
1.97542e-08
-3.6094e-10
-3.78872e-10
1.97371e-08
2.74787e-08
1.4527e-09
2.72089e-08
9.56576e-10
2.70245e-08
6.27858e-10
2.69004e-08
3.9955e-10
2.68198e-08
2.33708e-10
2.67714e-08
1.08132e-10
2.67471e-08
9.08849e-12
2.67404e-08
-7.21767e-11
2.67457e-08
-1.41148e-10
2.67576e-08
-2.00899e-10
2.67704e-08
-2.5255e-10
2.67788e-08
-2.95667e-10
2.67786e-08
-3.28837e-10
2.67682e-08
-3.50485e-10
-3.59786e-10
2.67491e-08
3.6531e-08
1.86864e-09
3.62345e-08
1.25304e-09
3.60252e-08
8.37205e-10
3.58793e-08
5.45365e-10
3.57801e-08
3.32903e-10
3.57154e-08
1.72869e-10
3.56759e-08
4.85582e-11
3.56543e-08
-5.0562e-11
3.56442e-08
-1.30999e-10
3.56398e-08
-1.96492e-10
3.56361e-08
-2.48878e-10
3.56293e-08
-2.88836e-10
3.5617e-08
-3.16616e-10
3.55992e-08
-3.32671e-10
-3.38017e-10
3.55775e-08
4.76322e-08
2.24717e-09
4.73476e-08
1.53761e-09
4.7138e-08
1.04682e-09
4.69863e-08
6.97061e-10
4.68785e-08
4.40751e-10
4.68034e-08
2.47986e-10
4.6752e-08
9.986e-11
4.67172e-08
-1.57024e-11
4.66926e-08
-1.06376e-10
4.6673e-08
-1.76968e-10
4.66547e-08
-2.30514e-10
4.66349e-08
-2.69102e-10
4.66128e-08
-2.94497e-10
4.65887e-08
-3.08536e-10
-3.13177e-10
4.65639e-08
6.10628e-08
2.51912e-09
6.0841e-08
1.75939e-09
6.06677e-08
1.22008e-09
6.05362e-08
8.2858e-10
6.04382e-08
5.38739e-10
6.03659e-08
3.20298e-10
6.03123e-08
1.53464e-10
6.02714e-08
2.51914e-11
6.02383e-08
-7.32327e-11
6.0209e-08
-1.47753e-10
6.01812e-08
-2.02632e-10
6.01533e-08
-2.41199e-10
6.01251e-08
-2.66323e-10
6.00972e-08
-2.80646e-10
-2.86542e-10
6.00706e-08
7.71874e-08
2.64514e-09
7.70673e-08
1.87953e-09
7.69639e-08
1.32349e-09
7.68797e-08
9.12733e-10
7.68131e-08
6.05343e-10
7.67606e-08
3.72797e-10
7.67184e-08
1.95686e-10
7.66829e-08
6.06934e-11
7.66512e-08
-4.15373e-11
7.66213e-08
-1.17809e-10
7.65919e-08
-1.73301e-10
7.65629e-08
-2.12168e-10
7.65345e-08
-2.37901e-10
7.65073e-08
-2.53504e-10
-2.61451e-10
7.64823e-08
9.65532e-08
2.64731e-09
9.65316e-08
1.90109e-09
9.65042e-08
1.35094e-09
9.64771e-08
9.3984e-10
9.64524e-08
6.30032e-10
9.643e-08
3.95161e-10
9.6409e-08
2.16692e-10
9.63883e-08
8.1434e-11
9.6367e-08
-2.02447e-11
9.63448e-08
-9.56148e-11
9.63218e-08
-1.50343e-10
9.62986e-08
-1.8897e-10
9.62759e-08
-2.15206e-10
9.62545e-08
-2.321e-10
-2.42043e-10
9.62351e-08
1.19893e-07
2.58634e-09
1.19928e-07
1.86605e-09
1.19949e-07
1.33033e-09
1.19961e-07
9.27933e-10
1.19967e-07
6.24071e-10
1.19968e-07
3.93956e-10
1.19965e-07
2.19702e-10
1.19958e-07
8.82495e-11
1.19948e-07
-1.01558e-11
1.19935e-07
-8.29826e-11
1.19921e-07
-1.36064e-10
1.19906e-07
-1.74018e-10
1.19891e-07
-2.00518e-10
1.19878e-07
-2.18492e-10
-2.30159e-10
1.19866e-07
1.47935e-07
2.50355e-09
1.47988e-07
1.81286e-09
1.48023e-07
1.29506e-09
1.48046e-07
9.04713e-10
1.48061e-07
6.09757e-10
1.48068e-07
3.86715e-10
1.48069e-07
2.1825e-10
1.48066e-07
9.14572e-11
1.48059e-07
-3.41973e-12
1.4805e-07
-7.38641e-11
1.4804e-07
-1.25678e-10
1.48029e-07
-1.63386e-10
1.48019e-07
-1.90511e-10
1.4801e-07
-2.09802e-10
-2.23284e-10
1.48004e-07
1.81145e-07
2.40073e-09
1.81208e-07
1.74911e-09
1.81248e-07
1.25584e-09
1.8127e-07
8.81989e-10
1.81281e-07
5.98662e-10
1.81284e-07
3.84071e-10
1.81281e-07
2.21766e-10
1.81273e-07
9.92989e-11
1.81262e-07
7.18886e-12
1.8125e-07
-6.18368e-11
1.81238e-07
-1.13375e-10
1.81226e-07
-1.51738e-10
1.81216e-07
-1.80237e-10
1.81208e-07
-2.01421e-10
-2.17133e-10
1.81201e-07
2.19595e-07
2.26427e-09
2.19679e-07
1.66473e-09
2.19729e-07
1.20577e-09
2.19756e-07
8.55266e-10
2.19766e-07
5.88005e-10
2.19766e-07
3.84432e-10
2.19758e-07
2.29499e-10
2.19746e-07
1.1167e-10
2.19731e-07
2.20941e-11
2.19715e-07
-4.60244e-11
2.197e-07
-9.78955e-11
2.19685e-07
-1.37509e-10
2.19673e-07
-1.67902e-10
2.19663e-07
-1.91407e-10
-2.0968e-10
2.19656e-07
2.62848e-07
2.08693e-09
2.6296e-07
1.5519e-09
2.63029e-07
1.13733e-09
2.63066e-07
8.17661e-10
2.63083e-07
5.71669e-10
2.63085e-07
3.82496e-10
2.63077e-07
2.3698e-10
2.63064e-07
1.24914e-10
2.63048e-07
3.84046e-11
2.6303e-07
-2.86247e-11
2.63013e-07
-8.08347e-11
2.62997e-07
-1.2179e-10
2.62984e-07
-1.54197e-10
2.62972e-07
-1.80141e-10
-2.01081e-10
2.62964e-07
3.0964e-07
1.86932e-09
3.09783e-07
1.40907e-09
3.09872e-07
1.04777e-09
3.09924e-07
7.65857e-10
3.0995e-07
5.46218e-10
3.09957e-07
3.75017e-10
3.09953e-07
2.41345e-10
3.09941e-07
1.36641e-10
3.09925e-07
5.42247e-11
3.09908e-07
-1.10764e-11
3.0989e-07
-6.32393e-11
3.09874e-07
-1.05311e-10
3.09859e-07
-1.39612e-10
3.09847e-07
-1.67944e-10
-1.91548e-10
3.09837e-07
3.57268e-07
1.6143e-09
3.5744e-07
1.23711e-09
3.57551e-07
9.36629e-10
3.57619e-07
6.98652e-10
3.57655e-07
5.1016e-10
3.57669e-07
3.6056e-10
3.57669e-07
2.41427e-10
3.5766e-07
1.46061e-10
3.57645e-07
6.91713e-11
3.57627e-07
6.62733e-12
3.57608e-07
-4.47703e-11
3.57591e-07
-8.74893e-11
3.57574e-07
-1.23415e-10
3.57561e-07
-1.54025e-10
-1.80327e-10
3.57549e-07
3.55107e-07
1.35859e-09
3.55283e-07
1.06138e-09
3.55399e-07
8.20467e-10
3.55472e-07
6.26151e-10
3.55513e-07
4.69163e-10
3.55532e-07
3.41876e-10
3.55535e-07
2.38146e-10
3.55528e-07
1.53014e-10
3.55515e-07
8.2511e-11
3.55498e-07
2.3512e-11
3.55479e-07
-2.64262e-11
3.55461e-07
-6.92085e-11
3.55444e-07
-1.06308e-10
3.55429e-07
-1.38883e-10
-1.67753e-10
3.55416e-07
3.04075e-07
1.13618e-09
3.04232e-07
9.04583e-10
3.04339e-07
7.13462e-10
3.04409e-07
5.56266e-10
3.04451e-07
4.26609e-10
3.04474e-07
3.1917e-10
3.04482e-07
2.29583e-10
3.04481e-07
1.54252e-10
3.04473e-07
9.02656e-11
3.04462e-07
3.53093e-11
3.04448e-07
-1.24398e-11
3.04433e-07
-5.44127e-11
3.04418e-07
-9.17324e-11
3.04405e-07
-1.25282e-10
-1.5572e-10
3.04393e-07
2.55024e-07
9.44963e-10
2.55162e-07
7.65833e-10
2.55261e-07
6.15266e-10
2.55328e-07
4.88851e-10
2.55372e-07
3.82343e-10
2.55399e-07
2.9216e-10
2.55414e-07
2.15272e-10
2.55419e-07
1.49122e-10
2.55417e-07
9.16171e-11
2.55412e-07
4.10808e-11
2.55403e-07
-3.8179e-12
2.55393e-07
-4.41317e-11
2.55382e-07
-8.06965e-11
2.55371e-07
-1.14168e-10
-1.45056e-10
2.5536e-07
2.104e-07
7.81223e-10
2.10522e-07
6.43525e-10
2.10612e-07
5.25548e-10
2.10676e-07
4.24335e-10
2.10721e-07
3.37204e-10
2.10752e-07
2.61856e-10
2.10771e-07
1.96245e-10
2.10781e-07
1.38589e-10
2.10785e-07
8.74125e-11
2.10785e-07
4.15318e-11
2.10781e-07
-1.50749e-15
2.10775e-07
-3.79435e-11
2.10767e-07
-7.29008e-11
2.10758e-07
-1.05347e-10
-1.35666e-10
2.10749e-07
1.71231e-07
6.40834e-10
1.71339e-07
5.35616e-10
1.71421e-07
4.43639e-10
1.71482e-07
3.62928e-10
1.71527e-07
2.9193e-10
1.7156e-07
2.29276e-10
1.71583e-07
1.73627e-10
1.71597e-07
1.23769e-10
1.71606e-07
7.86906e-11
1.7161e-07
3.7578e-11
1.7161e-07
-2.24273e-13
1.71608e-07
-3.52435e-11
1.71603e-07
-6.79081e-11
1.71596e-07
-9.85482e-11
-1.27445e-10
1.71588e-07
1.37715e-07
5.19896e-10
1.3781e-07
4.40048e-10
1.37885e-07
3.68737e-10
1.37943e-07
3.04664e-10
1.37988e-07
2.47081e-10
1.38022e-07
1.95278e-10
1.38048e-07
1.48419e-10
1.38066e-07
1.05699e-10
1.38078e-07
6.64472e-11
1.38085e-07
3.01278e-11
1.38089e-07
-3.69628e-12
1.38089e-07
-3.53807e-11
1.38086e-07
-6.52173e-11
1.38081e-07
-9.34269e-11
-1.2021e-10
1.38074e-07
1.09584e-07
4.15271e-10
1.09669e-07
3.55224e-10
1.09738e-07
3.00336e-10
1.09793e-07
2.49781e-10
1.09836e-07
2.03385e-10
1.09871e-07
1.6089e-10
1.09897e-07
1.21811e-10
1.09917e-07
8.56312e-11
1.09932e-07
5.19307e-11
1.09942e-07
2.03748e-11
1.09947e-07
-9.3137e-12
1.09949e-07
-3.73639e-11
1.09948e-07
-6.39658e-11
1.09944e-07
-8.92595e-11
-1.13384e-10
1.09937e-07
8.6333e-08
3.25025e-10
8.64078e-08
2.80437e-10
8.64695e-08
2.38614e-10
8.65202e-08
1.99075e-10
8.65615e-08
1.62048e-10
8.65949e-08
1.27576e-10
8.66213e-08
9.54045e-11
8.66417e-08
6.52251e-11
8.66568e-08
3.67939e-11
8.66673e-08
9.91993e-12
8.66735e-08
-1.55608e-11
8.66759e-08
-3.97869e-11
8.66748e-08
-6.28752e-11
8.66705e-08
-8.49084e-11
-1.05981e-10
8.66631e-08
6.73502e-08
2.48293e-10
6.74149e-08
2.15742e-10
6.74692e-08
1.84295e-10
6.75146e-08
1.53738e-10
6.75521e-08
1.2457e-10
6.75826e-08
9.70182e-11
6.7607e-08
7.09761e-11
6.7626e-08
4.62781e-11
6.764e-08
2.2803e-11
6.76494e-08
4.56356e-13
6.76547e-08
-2.08494e-11
6.76561e-08
-4.11908e-11
6.76539e-08
-6.06347e-11
6.76482e-08
-7.92265e-11
-9.70317e-11
6.76393e-08
5.20095e-08
1.84624e-10
5.20639e-08
1.61361e-10
5.21101e-08
1.38094e-10
5.2149e-08
1.14827e-10
5.21814e-08
9.22273e-11
5.22078e-08
7.06147e-11
5.22288e-08
4.99718e-11
5.22448e-08
3.0227e-11
5.22563e-08
1.13374e-11
5.22635e-08
-6.73254e-12
5.22666e-08
-2.40228e-11
5.2266e-08
-4.05693e-11
5.22618e-08
-5.64075e-11
5.22541e-08
-7.15609e-11
-8.60782e-11
5.22432e-08
3.97196e-08
1.33357e-10
3.97638e-08
1.17139e-10
3.98017e-08
1.00235e-10
3.98337e-08
8.28301e-11
3.98602e-08
6.56759e-11
3.98817e-08
4.9112e-11
3.98985e-08
3.31652e-11
3.99109e-08
1.78193e-11
3.99192e-08
3.07436e-12
3.99235e-08
-1.10743e-11
3.99242e-08
-2.46394e-11
3.99212e-08
-3.76339e-11
3.99149e-08
-5.00748e-11
3.99053e-08
-6.1974e-11
-7.33722e-11
3.98926e-08
2.99511e-08
9.33497e-11
2.99859e-08
8.23497e-11
3.00158e-08
7.03146e-11
3.0041e-08
5.75771e-11
3.00618e-08
4.48905e-11
3.00784e-08
3.25613e-11
3.00909e-08
2.0627e-11
3.00996e-08
9.09722e-12
3.01047e-08
-2.01093e-12
3.01063e-08
-1.26885e-11
3.01046e-08
-2.29346e-11
3.00997e-08
-3.27504e-11
3.00918e-08
-4.21431e-11
3.0081e-08
-5.11194e-11
-5.97157e-11
3.00673e-08
2.22454e-08
6.30654e-11
2.22719e-08
5.58214e-11
2.22948e-08
4.74589e-11
2.2314e-08
3.84016e-11
2.23295e-08
2.9334e-11
2.23416e-08
2.04917e-11
2.23503e-08
1.19038e-11
2.23558e-08
3.58677e-12
2.23582e-08
-4.43918e-12
2.23577e-08
-1.21613e-11
2.23544e-08
-1.95726e-11
2.23483e-08
-2.66695e-11
2.23396e-08
-3.34543e-11
2.23284e-08
-3.99313e-11
-4.61339e-11
2.23148e-08
1.62136e-08
4.08071e-11
1.62333e-08
3.61916e-11
1.62502e-08
3.0568e-11
1.62642e-08
2.43818e-11
1.62753e-08
1.81902e-11
1.62837e-08
1.2145e-11
1.62893e-08
6.26133e-12
1.62923e-08
5.5409e-13
1.62929e-08
-4.9593e-12
1.6291e-08
-1.02666e-11
1.62868e-08
-1.53594e-11
1.62803e-08
-2.02329e-11
1.62718e-08
-2.4887e-11
1.62611e-08
-2.93246e-11
-3.35751e-11
1.62486e-08
1.15304e-08
2.49449e-11
1.15445e-08
2.21211e-11
1.15565e-08
1.85193e-11
1.15664e-08
1.45317e-11
1.1574e-08
1.05592e-11
1.15795e-08
6.67994e-12
1.15829e-08
2.89809e-12
1.15842e-08
-7.75104e-13
1.15836e-08
-4.32653e-12
1.1581e-08
-7.74619e-12
1.15767e-08
-1.10267e-11
1.15706e-08
-1.41636e-11
1.15629e-08
-1.7156e-11
1.15536e-08
-2.00056e-11
-2.27354e-11
1.15427e-08
7.92631e-09
1.40512e-11
7.93601e-09
1.24192e-11
7.94425e-09
1.02826e-11
7.95086e-09
7.9241e-12
7.95582e-09
5.59163e-12
7.95919e-09
3.31307e-12
7.961e-09
1.08808e-12
7.9613e-09
-1.07582e-12
7.96014e-09
-3.16971e-12
7.95758e-09
-5.18646e-12
7.95368e-09
-7.12055e-12
7.94848e-09
-8.96866e-12
7.94206e-09
-1.07301e-11
7.93446e-09
-1.24046e-11
-1.4008e-11
7.92573e-09
5.18001e-09
6.94814e-12
5.18634e-09
6.08675e-12
5.19165e-09
4.97186e-12
5.19582e-09
3.75506e-12
5.19885e-09
2.56094e-12
5.20077e-09
1.39281e-12
5.20161e-09
2.4975e-13
5.2014e-09
-8.63654e-13
5.20017e-09
-1.94205e-12
5.19796e-09
-2.98105e-12
5.19482e-09
-3.97723e-12
5.19078e-09
-4.92845e-12
5.18588e-09
-5.83427e-12
5.18017e-09
-6.69374e-12
-7.5138e-12
5.17368e-09
3.11116e-09
2.6984e-12
3.11493e-09
2.31295e-12
3.11805e-09
1.85628e-12
3.12043e-09
1.36704e-12
3.12211e-09
8.8925e-13
3.12308e-09
4.20083e-13
3.12337e-09
-4.04999e-14
3.12299e-09
-4.90084e-13
3.12198e-09
-9.26022e-13
3.12034e-09
-1.34613e-12
3.11812e-09
-1.74879e-12
3.11532e-09
-2.13285e-12
3.11198e-09
-2.49833e-12
3.10813e-09
-2.84384e-12
-3.1695e-12
3.10379e-09
1.57377e-09
5.6955e-13
1.57563e-09
4.52075e-13
1.57714e-09
3.51286e-13
1.57826e-09
2.45202e-13
1.57901e-09
1.40745e-13
1.57939e-09
3.68783e-14
1.57942e-09
-6.58925e-14
1.57909e-09
-1.66617e-13
1.57843e-09
-2.64413e-13
1.57745e-09
-3.58593e-13
1.57615e-09
-4.48702e-13
1.57455e-09
-5.34362e-13
1.57266e-09
-6.15729e-13
1.57051e-09
-6.91971e-13
-7.59904e-13
1.5681e-09
4.50464e-10
4.50916e-10
4.51267e-10
4.51513e-10
4.51653e-10
4.5169e-10
4.51624e-10
4.51458e-10
4.51193e-10
4.50835e-10
4.50386e-10
4.49852e-10
4.49236e-10
4.48544e-10
4.47784e-10
1.15992e-09
-5.05521e-10
3.20617e-10
1.42749e-09
-4.44708e-10
1.77137e-10
1.70362e-09
-3.10959e-10
3.48281e-11
1.97642e-09
-1.71508e-10
-1.01294e-10
2.24292e-09
-3.65828e-11
-2.29914e-10
2.50373e-09
8.87959e-11
-3.49608e-10
2.76044e-09
2.03766e-10
-4.60474e-10
3.01439e-09
3.08063e-10
-5.62015e-10
3.26666e-09
4.0126e-10
-6.53527e-10
3.51807e-09
4.82926e-10
-7.34336e-10
3.76925e-09
5.52735e-10
-8.03921e-10
4.02073e-09
6.10746e-10
-8.62226e-10
4.273e-09
6.57865e-10
-9.10129e-10
4.52663e-09
6.96545e-10
-9.50179e-10
4.78251e-09
7.31831e-10
-9.87706e-10
5.04206e-09
7.72794e-10
-1.03235e-09
5.3077e-09
8.34152e-10
-1.09979e-09
5.58332e-09
9.37388e-10
-1.21301e-09
5.87478e-09
1.10918e-09
-1.40064e-09
6.1898e-09
1.3731e-09
-1.68813e-09
6.53636e-09
1.72696e-09
-2.07353e-09
6.91838e-09
2.09775e-09
-2.47975e-09
7.27059e-09
1.96619e-09
-2.3184e-09
7.56266e-09
1.46645e-09
-1.75853e-09
7.79159e-09
8.11804e-10
-1.04073e-09
7.95807e-09
8.90776e-11
-2.55558e-10
8.06501e-09
-6.33313e-10
5.26377e-10
8.11595e-09
-1.3093e-09
1.25836e-09
8.11423e-09
-1.90849e-09
1.91021e-09
8.06285e-09
-2.40926e-09
2.46063e-09
7.96466e-09
-2.79502e-09
2.89321e-09
7.82262e-09
-3.05309e-09
3.19512e-09
7.63998e-09
-3.17497e-09
3.35762e-09
7.42016e-09
-3.15691e-09
3.37673e-09
7.16661e-09
-2.99985e-09
3.25339e-09
6.88255e-09
-2.7086e-09
2.99266e-09
6.57071e-09
-2.29012e-09
2.60196e-09
6.23322e-09
-1.75112e-09
2.08861e-09
5.87153e-09
-1.09565e-09
1.45733e-09
5.48584e-09
-3.24479e-10
7.10177e-10
5.07324e-09
5.5893e-10
-1.46336e-10
4.62566e-09
1.52836e-09
-1.08078e-09
4.13333e-09
2.49023e-09
-1.9979e-09
3.62225e-09
3.20863e-09
-2.69755e-09
3.11564e-09
3.23346e-09
-2.72685e-09
2.41573e-09
-5.70342e-10
2.57384e-09
-6.02814e-10
2.79201e-09
-5.29136e-10
3.03921e-09
-4.18702e-10
3.29907e-09
-2.96447e-10
3.56392e-09
-1.76054e-10
3.83082e-09
-6.31334e-11
4.09874e-09
4.01464e-11
4.36743e-09
1.32563e-10
4.637e-09
2.13363e-10
4.90762e-09
2.8211e-10
5.17955e-09
3.38814e-10
5.45311e-09
3.84309e-10
5.72876e-09
4.20891e-10
6.00731e-09
4.53283e-10
6.29016e-09
4.89945e-10
6.57974e-09
5.44569e-10
6.88006e-09
6.37066e-10
7.1972e-09
7.9204e-10
7.53928e-09
1.03102e-09
7.91482e-09
1.35142e-09
8.32833e-09
1.68423e-09
8.71008e-09
1.58444e-09
9.02776e-09
1.14877e-09
9.27816e-09
5.61401e-10
9.46177e-09
-9.45332e-11
9.58141e-09
-7.52947e-10
9.64064e-09
-1.36853e-09
9.64299e-09
-1.91085e-09
9.59178e-09
-2.35805e-09
9.49033e-09
-2.69357e-09
9.34225e-09
-2.90501e-09
9.15159e-09
-2.98432e-09
8.92285e-09
-2.92816e-09
8.66084e-09
-2.73783e-09
8.37056e-09
-2.41832e-09
8.05726e-09
-1.97682e-09
7.72683e-09
-1.4207e-09
7.38677e-09
-7.55583e-10
7.04777e-09
1.45209e-11
6.72573e-09
8.80968e-10
6.4446e-09
1.80949e-09
6.24122e-09
2.69361e-09
6.16231e-09
3.28753e-09
3.18435e-09
6.0936e-09
4.20774e-09
-5.76409e-10
4.27468e-09
-6.69759e-10
4.41314e-09
-6.67591e-10
4.60435e-09
-6.09916e-10
4.83e-09
-5.22096e-10
5.07666e-09
-4.22712e-10
5.33632e-09
-3.22796e-10
5.6045e-09
-2.28033e-10
5.8787e-09
-1.41642e-10
6.15757e-09
-6.5506e-11
6.44036e-09
-6.81124e-13
6.7267e-09
5.24766e-11
7.01648e-09
9.45342e-11
7.30986e-09
1.27507e-10
7.60744e-09
1.55704e-10
7.91047e-09
1.86916e-10
8.2213e-09
2.33738e-10
8.54394e-09
3.14425e-10
8.88459e-09
4.51393e-10
9.25164e-09
6.63967e-10
9.65407e-09
9.48991e-10
1.0097e-08
1.24135e-09
1.05065e-08
1.1749e-09
1.08486e-08
8.06688e-10
1.11197e-08
2.9029e-10
1.132e-08
-2.94874e-10
1.14522e-08
-8.85153e-10
1.15199e-08
-1.43615e-09
1.15266e-08
-1.91756e-09
1.14761e-08
-2.30754e-09
1.13722e-08
-2.58974e-09
1.12195e-08
-2.75225e-09
1.10229e-08
-2.78772e-09
1.07882e-08
-2.69353e-09
1.05221e-08
-2.47167e-09
1.02316e-08
-2.12786e-09
9.92519e-09
-1.67038e-09
9.61306e-09
-1.10857e-09
9.30931e-09
-4.51833e-10
9.0348e-09
2.89034e-10
8.82007e-09
1.09569e-09
8.70609e-09
1.92347e-09
8.73233e-09
2.66737e-09
8.89141e-09
3.12846e-09
3.05695e-09
9.01881e-09
6.65651e-09
-5.53419e-10
6.66017e-09
-6.7342e-10
6.72088e-09
-7.28297e-10
6.83963e-09
-7.28669e-10
7.00704e-09
-6.89508e-10
7.21096e-09
-6.26632e-10
7.44116e-09
-5.52992e-10
7.69034e-09
-4.77215e-10
7.95359e-09
-4.04895e-10
8.2277e-09
-3.39611e-10
8.51056e-09
-2.83545e-10
8.80083e-09
-2.37794e-10
9.09769e-09
-2.02324e-10
9.40079e-09
-1.75588e-10
9.71031e-09
-1.53817e-10
1.00272e-08
-1.29992e-10
1.03536e-08
-9.26928e-11
1.06935e-08
-2.54047e-11
1.10529e-08
9.19943e-11
1.14404e-08
2.76482e-10
1.18652e-08
5.24143e-10
1.2333e-08
7.73589e-10
1.27665e-08
7.41385e-10
1.313e-08
4.43182e-10
1.34196e-08
6.80161e-13
1.36351e-08
-5.10387e-10
1.37788e-08
-1.0289e-09
1.38543e-08
-1.51159e-09
1.38652e-08
-1.9285e-09
1.38158e-08
-2.25808e-09
1.37105e-08
-2.48443e-09
1.35546e-08
-2.59644e-09
1.33546e-08
-2.58771e-09
1.31178e-08
-2.45667e-09
1.28525e-08
-2.20643e-09
1.25687e-08
-1.84401e-09
1.22778e-08
-1.37951e-09
1.19945e-08
-8.2526e-10
1.17384e-08
-1.95707e-10
1.15367e-08
4.90705e-10
1.14257e-08
1.20665e-09
1.14461e-08
1.90308e-09
1.16217e-08
2.49181e-09
1.19128e-08
2.83739e-09
2.80645e-09
1.21633e-08
9.92101e-09
-5.18584e-10
9.88847e-09
-6.40875e-10
9.88866e-09
-7.28492e-10
9.93577e-09
-7.75778e-10
1.00324e-08
-7.8613e-10
1.01737e-08
-7.67933e-10
1.0352e-08
-7.31321e-10
1.056e-08
-6.85162e-10
1.07914e-08
-6.3634e-10
1.10417e-08
-5.89882e-10
1.13074e-08
-5.49215e-10
1.1586e-08
-5.16407e-10
1.18758e-08
-4.92178e-10
1.21759e-08
-4.75634e-10
1.24857e-08
-4.63692e-10
1.2806e-08
-4.50213e-10
1.31383e-08
-4.2504e-10
1.34864e-08
-3.73481e-10
1.38562e-08
-2.77792e-10
1.42561e-08
-1.23461e-10
1.46956e-08
8.46708e-11
1.51804e-08
2.88773e-10
1.56312e-08
2.90635e-10
1.60107e-08
6.36564e-11
1.63145e-08
-3.03166e-10
1.65419e-08
-7.3779e-10
1.66948e-08
-1.18176e-09
1.67764e-08
-1.59318e-09
1.67906e-08
-1.94276e-09
1.67421e-08
-2.20951e-09
1.6636e-08
-2.37837e-09
1.64789e-08
-2.43928e-09
1.62783e-08
-2.38712e-09
1.60433e-08
-2.22174e-09
1.57846e-08
-1.94771e-09
1.55144e-08
-1.57382e-09
1.52474e-08
-1.11246e-09
1.50014e-08
-5.7924e-10
1.47991e-08
6.57796e-12
1.4669e-08
6.2079e-10
1.46444e-08
1.23127e-09
1.47554e-08
1.79209e-09
1.50086e-08
2.23858e-09
1.53543e-08
2.4917e-09
2.49223e-09
1.56685e-08
1.41935e-08
-4.8175e-10
1.41462e-08
-5.93494e-10
1.41096e-08
-6.91918e-10
1.41009e-08
-7.67113e-10
1.41305e-08
-8.15707e-10
1.42018e-08
-8.39243e-10
1.43132e-08
-8.42757e-10
1.44607e-08
-8.32585e-10
1.46392e-08
-8.14877e-10
1.48442e-08
-7.94915e-10
1.50718e-08
-7.76811e-10
1.53188e-08
-7.63407e-10
1.55828e-08
-7.56167e-10
1.58621e-08
-7.54911e-10
1.61557e-08
-7.5732e-10
1.64637e-08
-7.58212e-10
1.67874e-08
-7.48757e-10
1.71301e-08
-7.16134e-10
1.74973e-08
-6.45031e-10
1.78973e-08
-5.23463e-10
1.83393e-08
-3.57327e-10
1.88291e-08
-2.0103e-10
1.92866e-08
-1.66873e-10
1.96736e-08
-3.2331e-10
1.99847e-08
-6.14273e-10
2.02184e-08
-9.71476e-10
2.0376e-08
-1.33935e-09
2.04605e-08
-1.67767e-09
2.04759e-08
-1.95817e-09
2.04272e-08
-2.16083e-09
2.03206e-08
-2.27173e-09
2.01635e-08
-2.28223e-09
1.99652e-08
-2.1888e-09
1.97364e-08
-1.99297e-09
1.94898e-08
-1.70108e-09
1.92398e-08
-1.32385e-09
1.90033e-08
-8.75935e-10
1.87998e-08
-3.75716e-10
1.86519e-08
1.54414e-10
1.85848e-08
6.87889e-10
1.86232e-08
1.1929e-09
1.87835e-08
1.63179e-09
1.90596e-08
1.96251e-09
1.94056e-08
2.14564e-09
2.16197e-09
1.97359e-08
1.97027e-08
-4.47355e-10
1.96537e-08
-5.44471e-10
1.96017e-08
-6.39926e-10
1.956e-08
-7.25429e-10
1.95402e-08
-7.95869e-10
1.95502e-08
-8.49293e-10
1.95942e-08
-8.86675e-10
1.96726e-08
-9.11044e-10
1.97841e-08
-9.26417e-10
1.99262e-08
-9.36975e-10
2.00959e-08
-9.46489e-10
2.02904e-08
-9.57919e-10
2.05073e-08
-9.73095e-10
2.07448e-08
-9.92358e-10
2.10015e-08
-1.01407e-09
2.12773e-08
-1.03396e-09
2.1573e-08
-1.04451e-09
2.18916e-08
-1.03475e-09
2.22384e-08
-9.91781e-10
2.2621e-08
-9.06117e-10
2.30485e-08
-7.8475e-10
2.35261e-08
-6.78698e-10
2.39754e-08
-6.16171e-10
2.43574e-08
-7.05291e-10
2.46654e-08
-9.22295e-10
2.48969e-08
-1.20291e-09
2.50523e-08
-1.49477e-09
2.51343e-08
-1.7597e-09
2.5147e-08
-1.97089e-09
2.50959e-08
-2.10969e-09
2.49879e-08
-2.16372e-09
2.48317e-08
-2.12608e-09
2.4638e-08
-1.99508e-09
2.44192e-08
-1.77411e-09
2.41894e-08
-1.47132e-09
2.39648e-08
-1.0992e-09
2.37629e-08
-6.74123e-10
2.36032e-08
-2.15945e-10
2.35054e-08
2.52212e-10
2.34885e-08
7.04807e-10
2.3567e-08
1.11438e-09
2.37454e-08
1.45337e-09
2.40105e-08
1.69739e-09
2.43258e-08
1.83033e-09
1.85142e-09
2.46364e-08
2.67175e-08
-4.15765e-10
2.6672e-08
-4.99026e-10
2.66179e-08
-5.85744e-10
2.65629e-08
-6.70434e-10
2.65157e-08
-7.48749e-10
2.64845e-08
-8.18014e-10
2.64752e-08
-8.7738e-10
2.64918e-08
-9.27676e-10
2.65363e-08
-9.70919e-10
2.66091e-08
-1.00975e-09
2.67095e-08
-1.04691e-09
2.68364e-08
-1.08481e-09
2.69884e-08
-1.12511e-09
2.71643e-08
-1.16825e-09
2.73632e-08
-1.213e-09
2.75851e-08
-1.25582e-09
2.78309e-08
-1.29035e-09
2.81035e-08
-1.30734e-09
2.84079e-08
-1.29615e-09
2.87514e-08
-1.24965e-09
2.91425e-08
-1.17582e-09
2.95859e-08
-1.12214e-09
3.00075e-08
-1.03769e-09
3.03679e-08
-1.06578e-09
3.06589e-08
-1.21325e-09
3.08763e-08
-1.42031e-09
3.10198e-08
-1.63826e-09
3.10915e-08
-1.83145e-09
3.10956e-08
-1.97501e-09
3.10381e-08
-2.0521e-09
3.09266e-08
-2.05224e-09
3.0771e-08
-1.97054e-09
3.05833e-08
-1.8073e-09
3.03769e-08
-1.56774e-09
3.01672e-08
-1.26162e-09
2.99706e-08
-9.02646e-10
2.98044e-08
-5.07906e-10
2.96856e-08
-9.71401e-11
2.96297e-08
3.08094e-10
2.96488e-08
6.8576e-10
2.97485e-08
1.01465e-09
2.99252e-08
1.27663e-09
3.01634e-08
1.45924e-09
3.04353e-08
1.55839e-09
1.58005e-09
3.07067e-08
3.5547e-08
-3.85275e-10
3.55051e-08
-4.57109e-10
3.54535e-08
-5.34211e-10
3.53964e-08
-6.13283e-10
3.53389e-08
-6.91264e-10
3.52868e-08
-7.65879e-10
3.52453e-08
-8.35909e-10
3.52189e-08
-9.01283e-10
3.52109e-08
-9.62923e-10
3.52236e-08
-1.02241e-09
3.52582e-08
-1.08159e-09
3.53156e-08
-1.1422e-09
3.5396e-08
-1.20549e-09
3.54995e-08
-1.27175e-09
3.56264e-08
-1.33988e-09
3.57774e-08
-1.40682e-09
3.59542e-08
-1.46714e-09
3.61599e-08
-1.51311e-09
3.63999e-08
-1.53608e-09
3.66812e-08
-1.53099e-09
3.70119e-08
-1.50652e-09
3.7396e-08
-1.50621e-09
3.77669e-08
-1.40857e-09
3.80861e-08
-1.38503e-09
3.83429e-08
-1.47007e-09
3.85317e-08
-1.60902e-09
3.86508e-08
-1.75744e-09
3.87022e-08
-1.88277e-09
3.86898e-08
-1.9626e-09
3.862e-08
-1.98233e-09
3.85015e-08
-1.9337e-09
3.83448e-08
-1.81394e-09
3.81629e-08
-1.62532e-09
3.79698e-08
-1.37467e-09
3.7781e-08
-1.07284e-09
3.76124e-08
-7.33975e-10
3.74791e-08
-3.74678e-10
3.73951e-08
-1.30768e-11
3.73707e-08
3.32422e-10
3.7412e-08
6.44463e-10
3.75185e-08
9.08172e-10
3.76823e-08
1.11282e-09
3.78883e-08
1.25327e-09
3.81159e-08
1.33079e-09
1.3528e-09
3.83431e-08
4.6533e-08
-3.54407e-10
4.64931e-08
-4.17193e-10
4.64445e-08
-4.85682e-10
4.63892e-08
-5.57994e-10
4.63301e-08
-6.32155e-10
4.62707e-08
-7.0649e-10
4.62147e-08
-7.79895e-10
4.61655e-08
-8.52023e-10
4.61259e-08
-9.23303e-10
4.60982e-08
-9.9477e-10
4.60844e-08
-1.06779e-09
4.60859e-08
-1.14372e-09
4.6104e-08
-1.22358e-09
4.61399e-08
-1.3076e-09
4.61948e-08
-1.39486e-09
4.62708e-08
-1.48274e-09
4.63703e-08
-1.56667e-09
4.64974e-08
-1.64023e-09
4.66579e-08
-1.69655e-09
4.68591e-08
-1.73225e-09
4.71089e-08
-1.75632e-09
4.74105e-08
-1.80778e-09
4.77084e-08
-1.70652e-09
4.79664e-08
-1.64295e-09
4.81711e-08
-1.67481e-09
4.83153e-08
-1.75325e-09
4.83966e-08
-1.83871e-09
4.84162e-08
-1.90233e-09
4.83782e-08
-1.92462e-09
4.82895e-08
-1.89362e-09
4.81592e-08
-1.80341e-09
4.79986e-08
-1.65337e-09
4.78208e-08
-1.44749e-09
4.76398e-08
-1.19374e-09
4.74704e-08
-9.03373e-10
4.73264e-08
-5.90045e-10
4.72206e-08
-2.68834e-10
4.71627e-08
4.48054e-11
4.71588e-08
3.36313e-10
4.72102e-08
5.93074e-10
4.73128e-08
8.05547e-10
4.74575e-08
9.68161e-10
4.7631e-08
1.07981e-09
4.7818e-08
1.14377e-09
1.16683e-09
4.80039e-08
6.00397e-08
-3.23567e-10
6.00017e-08
-3.79194e-10
5.99565e-08
-4.40431e-10
5.99048e-08
-5.06279e-10
5.98482e-08
-5.75573e-10
5.97889e-08
-6.472e-10
5.97293e-08
-7.20302e-10
5.96717e-08
-7.94472e-10
5.96183e-08
-8.69858e-10
5.95707e-08
-9.47132e-10
5.95302e-08
-1.02732e-09
5.9498e-08
-1.11155e-09
5.94752e-08
-1.20077e-09
5.94629e-08
-1.29534e-09
5.94627e-08
-1.39466e-09
5.94768e-08
-1.49678e-09
5.95082e-08
-1.5981e-09
5.95616e-08
-1.69357e-09
5.9643e-08
-1.77799e-09
5.97602e-08
-1.84943e-09
5.99206e-08
-1.91675e-09
6.01268e-08
-2.01396e-09
6.0337e-08
-1.91669e-09
6.05186e-08
-1.82456e-09
6.06569e-08
-1.81309e-09
6.07434e-08
-1.83975e-09
6.0775e-08
-1.87033e-09
6.07528e-08
-1.88016e-09
6.06813e-08
-1.85307e-09
6.05675e-08
-1.77986e-09
6.04211e-08
-1.65701e-09
6.02535e-08
-1.48577e-09
6.00774e-08
-1.2714e-09
5.99061e-08
-1.02242e-09
5.97524e-08
-7.49717e-10
5.9628e-08
-4.65642e-10
5.95422e-08
-1.83015e-10
5.95012e-08
8.58575e-11
5.95073e-08
3.30209e-10
5.95588e-08
5.41534e-10
5.96501e-08
7.14246e-10
5.97723e-08
8.4601e-10
5.99144e-08
9.37703e-10
6.00652e-08
9.92973e-10
1.01745e-09
6.02145e-08
7.64542e-08
-2.95504e-10
7.64205e-08
-3.45498e-10
7.63809e-08
-4.00796e-10
7.63355e-08
-4.60944e-10
7.62853e-08
-5.25351e-10
7.62315e-08
-5.93386e-10
7.61757e-08
-6.64487e-10
7.61195e-08
-7.38313e-10
7.60645e-08
-8.14872e-10
7.60119e-08
-8.94556e-10
7.59627e-08
-9.78067e-10
7.59174e-08
-1.06626e-09
7.58766e-08
-1.15994e-09
7.58408e-08
-1.25952e-09
7.58108e-08
-1.36475e-09
7.57884e-08
-1.47432e-09
7.5776e-08
-1.58569e-09
7.57777e-08
-1.69525e-09
7.57991e-08
-1.79945e-09
7.58474e-08
-1.89767e-09
7.5929e-08
-1.99838e-09
7.60453e-08
-2.13031e-09
7.61682e-08
-2.03957e-09
7.62706e-08
-1.92697e-09
7.63378e-08
-1.88023e-09
7.63612e-08
-1.8632e-09
7.63381e-08
-1.84718e-09
7.62698e-08
-1.81188e-09
7.61613e-08
-1.74455e-09
7.60201e-08
-1.63872e-09
7.58561e-08
-1.49296e-09
7.56803e-08
-1.30997e-09
7.55046e-08
-1.09571e-09
7.53407e-08
-8.58503e-10
7.51992e-08
-6.08221e-10
7.50889e-08
-3.55339e-10
7.50159e-08
-1.10092e-10
7.49835e-08
1.18321e-10
7.49913e-08
3.22428e-10
7.50359e-08
4.96895e-10
7.51113e-08
6.38808e-10
7.52097e-08
7.47666e-10
7.53222e-08
8.25129e-10
7.54407e-08
8.74542e-10
9.0034e-10
7.55578e-08
9.62136e-08
-2.73998e-10
9.61878e-08
-3.19686e-10
9.61573e-08
-3.70295e-10
9.6122e-08
-4.25701e-10
9.60824e-08
-4.85699e-10
9.6039e-08
-5.50034e-10
9.5993e-08
-6.18436e-10
9.59454e-08
-6.90714e-10
9.58974e-08
-7.66865e-10
9.585e-08
-8.47125e-10
9.58038e-08
-9.31947e-10
9.57595e-08
-1.02192e-09
9.57172e-08
-1.11762e-09
9.5677e-08
-1.21939e-09
9.56394e-08
-1.32714e-09
9.56051e-08
-1.44002e-09
9.55758e-08
-1.55632e-09
9.55541e-08
-1.67365e-09
9.55446e-08
-1.78987e-09
9.55523e-08
-1.90539e-09
9.55819e-08
-2.02797e-09
9.56325e-08
-2.18097e-09
9.56864e-08
-2.09342e-09
9.57226e-08
-1.96313e-09
9.57279e-08
-1.88553e-09
9.56953e-08
-1.83063e-09
9.56231e-08
-1.77502e-09
9.55139e-08
-1.70264e-09
9.53733e-08
-1.60395e-09
9.52094e-08
-1.47483e-09
9.50319e-08
-1.31545e-09
9.48513e-08
-1.12935e-09
9.4678e-08
-9.22479e-10
9.45219e-08
-7.02388e-10
9.43911e-08
-4.77403e-10
9.42916e-08
-2.5586e-10