/*--------------------------------*- C++ -*----------------------------------*\
| =========                 |                                                 |
| \\      /  F ield         | OpenFOAM: The Open Source CFD Toolbox           |
|  \\    /   O peration     | Version:  2312                                  |
|   \\  /    A nd           | Website:  www.openfoam.com                      |
|    \\/     M anipulation  |                                                 |
\*---------------------------------------------------------------------------*/
FoamFile
{
    version     2.0;
    format      ascii;
    arch        "LSB;label=32;scalar=64";
    class       volVectorField;
    location    "598";
    object      U;
}
// * * * * * * * * * * * * * * * * * * * * * * * * * * * * * * * * * * * * * //

dimensions      [0 1 -1 0 0 0 0];

internalField   nonuniform List<vector> 
4800
(
(0.000461278 1.64593e-07 -3.56134e-26)
(0.00045368 2.27136e-07 -2.50241e-25)
(0.000449047 2.70043e-07 3.20866e-25)
(0.000446395 2.93263e-07 1.46383e-25)
(0.000445218 3.00573e-07 2.15883e-24)
(0.000445178 2.91485e-07 -5.13414e-24)
(0.000446095 2.63403e-07 4.78627e-24)
(0.000447908 2.10756e-07 -6.90788e-24)
(0.000450673 1.21064e-07 2.2035e-24)
(0.00045462 -3.93893e-08 7.46251e-24)
(0.000460414 -3.92177e-07 -2.27636e-24)
(0.000469971 -1.39931e-06 -1.79819e-25)
(0.00048894 -4.51853e-06 -2.73008e-24)
(0.00053847 -2.03284e-05 1.23014e-24)
(0.000616309 -0.00010259 -9.51873e-25)
(0.00142631 1.65153e-06 -1.44467e-25)
(0.00140301 1.20629e-06 1.79519e-25)
(0.00138864 8.68294e-07 -1.64522e-24)
(0.00138018 5.57089e-07 1.22436e-24)
(0.00137607 2.3956e-07 3.9003e-24)
(0.0013753 -1.16009e-07 -6.17847e-24)
(0.0013773 -5.55591e-07 -1.74548e-24)
(0.00138185 -1.1492e-06 -4.0592e-25)
(0.00138906 -2.0267e-06 1.38715e-23)
(0.00139946 -3.49133e-06 -1.00436e-23)
(0.00141445 -6.41899e-06 1.06648e-24)
(0.00143725 -1.34882e-05 1.57855e-24)
(0.00147467 -3.18551e-05 -2.25641e-24)
(0.00154078 -7.87937e-05 -6.54451e-25)
(0.00161326 -0.000189444 2.69088e-24)
(0.00249302 5.26962e-06 -1.15296e-25)
(0.0024528 3.81811e-06 1.17214e-25)
(0.00242773 2.71994e-06 1.1935e-24)
(0.00241267 1.73868e-06 -2.82098e-24)
(0.0024049 7.6092e-07 2.7383e-24)
(0.00240268 -3.09139e-07 2.54593e-24)
(0.00240501 -1.60194e-06 -6.50413e-24)
(0.00241143 -3.31157e-06 -3.94081e-24)
(0.00242198 -5.78049e-06 9.20592e-24)
(0.00243724 -9.72642e-06 3.36722e-24)
(0.00245861 -1.68747e-05 -1.1296e-23)
(0.00248849 -3.14279e-05 -1.64155e-24)
(0.00252967 -6.22148e-05 4.40239e-24)
(0.00258283 -0.000123518 6.59857e-24)
(0.00262336 -0.000227272 -3.24395e-24)
(0.00366743 1.17468e-05 4.78111e-26)
(0.00360936 8.59198e-06 -3.29442e-25)
(0.00357278 6.2033e-06 1.45211e-24)
(0.00355034 4.10124e-06 1.53038e-24)
(0.00353809 2.0332e-06 -1.49797e-24)
(0.00353356 -2.00233e-07 -8.48098e-24)
(0.00353523 -2.85284e-06 -5.64414e-24)
(0.00354233 -6.28841e-06 2.05406e-23)
(0.00355461 -1.11092e-05 8.19736e-24)
(0.00357236 -1.84446e-05 -1.12973e-23)
(0.00359619 -3.05818e-05 -4.33635e-24)
(0.00362658 -5.19997e-05 -3.132e-24)
(0.00366198 -8.98824e-05 8.77364e-26)
(0.00369623 -0.000151273 2.04322e-24)
(0.00371226 -0.000234074 9.45487e-27)
(0.00495347 2.17795e-05 -9.87765e-26)
(0.00487735 1.60792e-05 -5.94434e-25)
(0.00482877 1.17534e-05 -3.69022e-25)
(0.00479834 7.99823e-06 9.79695e-25)
(0.00478086 4.35686e-06 -2.71262e-24)
(0.00477309 4.85676e-07 6.57471e-24)
(0.00477298 -4.01668e-06 -1.11744e-24)
(0.00477932 -9.69204e-06 3.76577e-24)
(0.00479144 -1.73635e-05 -1.99436e-23)
(0.00480897 -2.83869e-05 3.58264e-23)
(0.00483146 -4.50476e-05 -3.26026e-23)
(0.00485753 -7.08884e-05 1.60917e-23)
(0.00488342 -0.00011004 -1.39099e-23)
(0.00490214 -0.000164015 1.22012e-23)
(0.00490445 -0.000226828 -4.58393e-24)
(0.0063514 3.60904e-05 1.46771e-25)
(0.00625837 2.69147e-05 5.1323e-25)
(0.00619809 1.99223e-05 -2.64345e-24)
(0.00615949 1.3923e-05 -1.6213e-24)
(0.00613628 8.19724e-06 4.20732e-24)
(0.00612448 2.22074e-06 1.44846e-24)
(0.00612151 -4.56034e-06 -1.08079e-23)
(0.00612565 -1.28325e-05 2.44231e-23)
(0.00613568 -2.35294e-05 -2.9865e-23)
(0.00615053 -3.79693e-05 6.68882e-24)
(0.00616878 -5.79498e-05 1.89029e-23)
(0.00618803 -8.55556e-05 -2.42913e-23)
(0.0062043 -0.000122218 1.12298e-23)
(0.00621238 -0.000166735 1.06307e-23)
(0.00620823 -0.000213684 -7.59945e-24)
(0.00785564 5.52056e-05 1.35644e-25)
(0.00774912 4.1653e-05 -7.77288e-25)
(0.00767882 3.12515e-05 2.68724e-24)
(0.00763277 2.24031e-05 -3.57908e-24)
(0.00760392 1.40914e-05 -1.1591e-23)
(0.00758771 5.58895e-06 1.87336e-23)
(0.00758108 -3.7953e-06 -1.06997e-23)
(0.00758185 -1.48269e-05 3.39896e-23)
(0.00758826 -2.84113e-05 -2.14434e-23)
(0.00759864 -4.56049e-05 -9.24399e-24)
(0.00761101 -6.74989e-05 -1.67045e-23)
(0.00762279 -9.48572e-05 1.40833e-23)
(0.00763083 -0.000127452 3.63209e-24)
(0.007632 -0.000163297 2.85435e-24)
(0.00762507 -0.000198576 -2.35498e-24)
(0.00945246 7.90537e-05 -2.16023e-25)
(0.00933916 6.04659e-05 2.80656e-24)
(0.00926264 4.60401e-05 -6.2355e-24)
(0.00921131 3.38138e-05 -4.83148e-24)
(0.00917794 2.24894e-05 1.71091e-24)
(0.00915773 1.11422e-05 3.13615e-24)
(0.00914731 -1.02104e-06 1.04378e-23)
(0.00914413 -1.4767e-05 -2.61802e-23)
(0.0091461 -3.08542e-05 -1.27889e-23)
(0.00915119 -4.99653e-05 3.21342e-23)
(0.00915731 -7.2528e-05 -9.065e-24)
(0.0091622 -9.84344e-05 2.82318e-23)
(0.00916376 -0.000126761 -1.35696e-23)
(0.00916038 -0.000155681 -3.96079e-24)
(0.00915211 -0.000182804 2.19788e-24)
(0.0111186 0.000106398 -3.10885e-26)
(0.0110091 8.26878e-05 1.6612e-24)
(0.0109329 6.39784e-05 -2.22904e-24)
(0.0108804 4.80781e-05 4.98667e-24)
(0.0108452 3.34965e-05 -2.75963e-23)
(0.0108225 1.91633e-05 2.68701e-23)
(0.0108092 4.23903e-06 -3.87863e-23)
(0.0108024 -1.19741e-05 2.17173e-23)
(0.0108001 -3.00238e-05 1.46373e-23)
(0.0108002 -5.02291e-05 2.87316e-23)
(0.0108008 -7.25499e-05 -3.39634e-23)
(0.0108001 -9.6468e-05 -5.68416e-24)
(0.010797 -0.000120972 2.40612e-24)
(0.0107906 -0.000144711 1.56393e-23)
(0.0107816 -0.000166292 -5.96578e-24)
(0.0128239 0.000134289 1.82307e-25)
(0.0127313 0.000106287 -7.33672e-25)
(0.0126644 8.3667e-05 3.03331e-24)
(0.012617 6.42401e-05 -9.80207e-24)
(0.0125841 4.6489e-05 1.36067e-23)
(0.012562 2.93063e-05 -1.59899e-23)
(0.0125478 1.18829e-05 2.4253e-23)
(0.0125391 -6.35755e-06 3.82681e-24)
(0.0125338 -2.57495e-05 -2.71247e-23)
(0.0125302 -4.63414e-05 3.47287e-23)
(0.0125268 -6.78532e-05 -3.45299e-23)
(0.0125224 -8.96859e-05 -9.1732e-24)
(0.0125163 -0.000111018 1.47616e-23)
(0.0125083 -0.000130977 4.00592e-24)
(0.0124989 -0.000148802 -1.64465e-24)
(0.014541 0.000158164 7.67337e-25)
(0.0144769 0.000127685 -5.85559e-24)
(0.0144283 0.000102302 -8.56024e-24)
(0.0143927 8.01014e-05 1.85091e-23)
(0.0143673 5.97394e-05 7.47295e-24)
(0.0143497 4.02186e-05 -4.23124e-23)
(0.0143377 2.08476e-05 1.1727e-23)
(0.0143295 1.20582e-06 7.56969e-24)
(0.0143235 -1.88651e-05 -2.92083e-23)
(0.0143184 -3.92612e-05 2.7331e-23)
(0.0143131 -5.96439e-05 -1.96125e-23)
(0.0143071 -7.95078e-05 4.56678e-23)
(0.0143 -9.82903e-05 -1.998e-23)
(0.0142916 -0.000115491 1.07939e-23)
(0.0142828 -0.000130728 -2.77476e-24)
(0.0162617 0.000173628 -3.0337e-25)
(0.0162294 0.000142778 3.98057e-24)
(0.0162036 0.000116231 -7.02224e-24)
(0.0161841 9.2488e-05 -3.19869e-24)
(0.01617 7.05096e-05 3.20731e-23)
(0.0161601 4.95252e-05 -4.18704e-24)
(0.0161531 2.90284e-05 -4.54783e-23)
(0.016148 8.76322e-06 4.7336e-23)
(0.0161437 -1.13028e-05 -9.52225e-24)
(0.0161395 -3.10118e-05 -2.94227e-23)
(0.0161347 -5.00711e-05 2.82465e-23)
(0.0161292 -6.81271e-05 1.37432e-23)
(0.0161227 -8.48461e-05 -1.0639e-23)
(0.0161154 -9.99804e-05 -1.68818e-23)
(0.0161079 -0.000113366 1.33803e-24)
(0.0180059 0.000179727 3.29075e-27)
(0.0179972 0.000149624 -4.36301e-24)
(0.0179902 0.000123066 1.85613e-23)
(0.0179852 9.88824e-05 1.0267e-24)
(0.0179821 7.63141e-05 8.37797e-24)
(0.0179803 5.48238e-05 -2.67249e-23)
(0.0179793 3.40876e-05 2.02778e-23)
(0.0179784 1.39805e-05 4.08457e-24)
(0.0179771 -5.462e-06 3.31008e-23)
(0.0179752 -2.40919e-05 -4.59965e-23)
(0.0179724 -4.17034e-05 -1.8744e-23)
(0.0179687 -5.80878e-05 -1.12072e-23)
(0.0179641 -7.30799e-05 1.94275e-23)
(0.0179587 -8.65879e-05 -5.10131e-25)
(0.0179532 -9.85669e-05 1.64655e-24)
(0.0198013 0.000180012 -6.32925e-26)
(0.019803 0.000150455 4.30307e-24)
(0.0198052 0.000124029 -5.57203e-24)
(0.0198081 9.97853e-05 2.56481e-27)
(0.0198113 7.71468e-05 5.77449e-24)
(0.0198145 5.57337e-05 1.30269e-23)
(0.0198173 3.53351e-05 -4.48958e-23)
(0.0198193 1.58868e-05 3.42146e-24)
(0.0198205 -2.57108e-06 1.82207e-23)
(0.0198206 -1.99418e-05 -7.50228e-24)
(0.0198197 -3.61139e-05 1.86064e-23)
(0.0198178 -5.09947e-05 1.18288e-23)
(0.0198151 -6.45317e-05 -1.98207e-23)
(0.0198116 -7.6724e-05 1.25333e-23)
(0.0198081 -8.75891e-05 -9.93428e-24)
(0.0216437 0.000178682 -1.89171e-24)
(0.0216476 0.000149312 7.7834e-25)
(0.0216518 0.000122807 6.26847e-24)
(0.0216563 9.84545e-05 -2.85384e-23)
(0.0216608 7.58254e-05 2.22563e-23)
(0.0216649 5.46395e-05 -1.43858e-23)
(0.0216684 3.47369e-05 9.19828e-24)
(0.0216711 1.60559e-05 -5.80835e-23)
(0.0216727 -1.40235e-06 7.54063e-23)
(0.0216734 -1.76109e-05 -4.00296e-23)
(0.0216732 -3.25436e-05 3.25695e-23)
(0.0216721 -4.61938e-05 2.48581e-23)
(0.0216704 -5.85811e-05 -4.02463e-23)
(0.021668 -6.97564e-05 1.22073e-23)
(0.0216656 -7.9768e-05 -4.89157e-25)
(0.0234782 0.000176888 -6.46669e-26)
(0.023483 0.000147976 -6.29556e-25)
(0.0234873 0.000121604 4.60334e-25)
(0.0234916 9.73341e-05 -7.37822e-25)
(0.0234955 7.48844e-05 8.51437e-24)
(0.0234989 5.40545e-05 -1.30011e-23)
(0.0235015 3.4711e-05 1.07789e-23)
(0.0235034 1.67761e-05 -3.05547e-23)
(0.0235045 2.04336e-07 6.27392e-23)
(0.0235048 -1.5039e-05 -7.29115e-23)
(0.0235044 -2.89918e-05 5.4646e-23)
(0.0235033 -4.17036e-05 -1.70421e-23)
(0.0235017 -5.32367e-05 8.09146e-25)
(0.0234995 -6.36692e-05 3.36616e-24)
(0.0234975 -7.30617e-05 -6.23564e-24)
(0.025213 0.000173542 -5.08695e-24)
(0.0252198 0.00014572 7.93408e-24)
(0.0252252 0.000120054 -2.26886e-24)
(0.0252298 9.63615e-05 -3.5109e-24)
(0.0252335 7.44931e-05 1.26345e-23)
(0.0252365 5.43124e-05 -1.14672e-23)
(0.0252387 3.57066e-05 -9.22375e-24)
(0.02524 1.85849e-05 -2.00489e-23)
(0.0252406 2.86923e-06 9.40304e-24)
(0.0252405 -1.15154e-05 4.0555e-23)
(0.0252398 -2.46452e-05 -1.97448e-23)
(0.0252386 -3.66003e-05 1.08798e-23)
(0.025237 -4.74629e-05 -4.22937e-24)
(0.0252349 -5.73224e-05 -1.1698e-23)
(0.0252329 -6.62401e-05 5.7666e-24)
(0.0267344 0.000167585 1.57942e-24)
(0.0267435 0.000141486 -2.39892e-24)
(0.0267504 0.000117144 -5.99249e-25)
(0.0267558 9.45869e-05 -1.65861e-24)
(0.0267601 7.37591e-05 -3.51308e-24)
(0.0267632 5.45739e-05 1.64652e-23)
(0.0267654 3.69381e-05 -1.19441e-23)
(0.0267667 2.0759e-05 -6.94474e-24)
(0.0267673 5.94362e-06 5.85584e-24)
(0.0267671 -7.60089e-06 -6.29887e-24)
(0.0267665 -1.99663e-05 1.36715e-23)
(0.0267653 -3.12435e-05 6.4435e-24)
(0.0267638 -4.15187e-05 -2.27354e-23)
(0.0267619 -5.08817e-05 1.49028e-23)
(0.0267599 -5.93879e-05 -2.93487e-24)
(0.0278992 0.000158605 4.41981e-24)
(0.02791 0.000134765 6.57006e-24)
(0.0279183 0.000112309 -1.29926e-23)
(0.0279246 9.14041e-05 -6.48243e-25)
(0.0279294 7.20528e-05 2.4433e-24)
(0.0279329 5.42022e-05 -4.73714e-24)
(0.0279353 3.77805e-05 -6.87352e-24)
(0.0279368 2.27039e-05 1.36585e-23)
(0.0279375 8.8807e-06 1.40306e-23)
(0.0279375 -3.78293e-06 -3.17039e-23)
(0.027937 -1.53784e-05 1.71261e-23)
(0.027936 -2.5993e-05 -1.12952e-24)
(0.0279346 -3.57062e-05 -8.91419e-25)
(0.0279329 -4.46e-05 1.1487e-24)
(0.0279311 -5.27188e-05 -5.1476e-25)
(0.0285167 0.000146524 -1.10614e-23)
(0.0285287 0.000125417 -2.11157e-23)
(0.0285379 0.000105351 1.00761e-23)
(0.0285449 8.65673e-05 3.10762e-23)
(0.0285501 6.90937e-05 -7.87047e-24)
(0.0285539 5.29003e-05 -2.09691e-24)
(0.0285565 3.79378e-05 9.20649e-25)
(0.0285582 2.41403e-05 -5.78555e-24)
(0.028559 1.14293e-05 1.48328e-23)
(0.0285592 -2.77243e-07 -6.18841e-24)
(0.0285588 -1.1059e-05 3.59394e-24)
(0.0285579 -2.09907e-05 -5.38355e-24)
(0.0285567 -3.0139e-05 -5.94976e-24)
(0.0285551 -3.85724e-05 8.59696e-24)
(0.0285533 -4.6321e-05 -3.67301e-24)
(0.0283446 0.000131825 1.68991e-23)
(0.0283571 0.000113843 -3.46187e-23)
(0.0283667 9.65891e-05 5.10853e-24)
(0.028374 8.03116e-05 4.11387e-23)
(0.0283795 6.50479e-05 -3.65538e-23)
(0.0283834 5.07876e-05 1.17729e-23)
(0.0283861 3.75045e-05 7.24247e-24)
(0.0283877 2.5153e-05 -1.53078e-23)
(0.0283886 1.36738e-05 3.10494e-24)
(0.0283888 3.0033e-06 1.78658e-24)
(0.0283884 -6.92003e-06 -1.09792e-24)
(0.0283875 -1.61547e-05 2.38165e-24)
(0.0283862 -2.47529e-05 -2.85468e-24)
(0.0283847 -3.27675e-05 1.90635e-24)
(0.0283828 -4.02215e-05 -8.71474e-25)
(0.0273983 0.000116433 1.02355e-23)
(0.0274111 0.000101579 -1.94377e-23)
(0.0274211 8.71726e-05 -1.21964e-23)
(0.0274288 7.34278e-05 5.26329e-23)
(0.0274346 6.03912e-05 -4.46479e-23)
(0.0274388 4.80754e-05 4.44091e-24)
(0.0274418 3.64755e-05 6.51016e-24)
(0.0274438 2.55654e-05 3.30033e-24)
(0.0274449 1.53054e-05 2.4426e-24)
(0.0274453 5.65221e-06 -1.06359e-23)
(0.0274451 -3.43648e-06 6.57329e-24)
(0.0274444 -1.20008e-05 9.44498e-25)
(0.0274433 -2.00777e-05 -2.07027e-24)
(0.0274418 -2.7703e-05 1.10981e-24)
(0.02744 -3.48965e-05 7.13792e-25)
(0.0259391 0.000102014 2.52742e-23)
(0.0259519 8.98674e-05 -4.0817e-23)
(0.0259623 7.79344e-05 7.69318e-24)
(0.0259704 6.639e-05 -1.68451e-23)
(0.0259767 5.52942e-05 -2.02866e-23)
(0.0259814 4.46817e-05 6.47489e-23)
(0.0259848 3.45662e-05 -2.36244e-23)
(0.0259873 2.49387e-05 6.25703e-24)
(0.0259888 1.57775e-05 -3.2713e-24)
(0.0259897 7.05794e-06 -7.2557e-24)
(0.0259898 -1.24433e-06 1.27249e-23)
(0.0259895 -9.15255e-06 -6.0242e-24)
(0.0259886 -1.66888e-05 9.32266e-25)
(0.0259874 -2.38742e-05 2.53924e-25)
(0.0259857 -3.07225e-05 3.62343e-26)
(0.0241573 8.85713e-05 9.79618e-24)
(0.0241702 7.86909e-05 -4.65178e-23)
(0.0241808 6.88498e-05 7.49448e-23)
(0.0241894 5.91826e-05 -5.34342e-23)
(0.0241961 4.97604e-05 5.00988e-23)
(0.0242013 4.06368e-05 -1.57976e-23)
(0.0242054 3.18392e-05 -1.0363e-23)
(0.0242083 2.33717e-05 -1.07177e-23)
(0.0242104 1.52274e-05 1.77807e-23)
(0.0242117 7.39739e-06 -1.02178e-24)
(0.0242123 -1.28191e-07 -1.54596e-23)
(0.0242123 -7.3593e-06 -1.58125e-24)
(0.0242117 -1.43067e-05 2.80337e-24)
(0.0242107 -2.09799e-05 -4.53096e-25)
(0.0242091 -2.73869e-05 6.11891e-26)
(0.0221927 7.61403e-05 1.3251e-24)
(0.0222057 6.81411e-05 -1.79734e-23)
(0.0222166 6.00535e-05 -9.37214e-24)
(0.0222256 5.1975e-05 7.24595e-23)
(0.0222329 4.39872e-05 -6.75513e-23)
(0.0222387 3.61595e-05 1.88305e-23)
(0.0222433 2.85296e-05 3.03666e-24)
(0.0222469 2.11114e-05 -1.52626e-24)
(0.0222495 1.39098e-05 -6.84465e-24)
(0.0222513 6.9279e-06 2.85567e-23)
(0.0222523 1.67081e-07 -2.20787e-23)
(0.0222527 -6.37278e-06 -8.3476e-25)
(0.0222524 -1.26939e-05 1.70019e-24)
(0.0222516 -1.87974e-05 1.05834e-24)
(0.0222501 -2.46868e-05 -7.70367e-25)
(0.0201479 6.46518e-05 2.01678e-24)
(0.020161 5.81961e-05 1.72504e-23)
(0.0201723 5.15624e-05 -1.87344e-23)
(0.0201818 4.48184e-05 -1.22966e-23)
(0.0201897 3.80566e-05 7.47616e-23)
(0.0201961 3.13585e-05 -5.49743e-23)
(0.0202013 2.47686e-05 -1.22799e-24)
(0.0202055 1.83068e-05 -1.05655e-23)
(0.0202086 1.19864e-05 -7.76753e-25)
(0.0202109 5.81912e-06 1.47272e-24)
(0.0202124 -1.86159e-07 -4.97591e-24)
(0.0202131 -6.02302e-06 4.19299e-24)
(0.0202131 -1.16879e-05 1.49255e-24)
(0.0202125 -1.71767e-05 1.24488e-24)
(0.0202112 -2.24894e-05 1.07702e-24)
(0.0180974 5.40063e-05 1.47341e-23)
(0.0181107 4.88165e-05 -2.13825e-23)
(0.0181224 4.33901e-05 -1.63455e-23)
(0.0181324 3.77732e-05 4.77959e-23)
(0.0181408 3.20686e-05 -1.64865e-23)
(0.0181478 2.63663e-05 -2.23842e-23)
(0.0181536 2.07132e-05 7.61326e-24)
(0.0181583 1.51325e-05 1.64875e-23)
(0.018162 9.64287e-06 -2.55386e-23)
(0.0181647 4.26142e-06 2.46757e-23)
(0.0181666 -9.98387e-07 -1.28147e-23)
(0.0181676 -6.12636e-06 5.2944e-24)
(0.0181678 -1.11156e-05 -6.46496e-24)
(0.0181673 -1.59587e-05 6.13229e-24)
(0.018166 -2.06537e-05 -1.36444e-24)
(0.0160938 4.4166e-05 -2.92663e-24)
(0.0161072 4.00224e-05 -9.70216e-24)
(0.0161192 3.56079e-05 -2.96875e-23)
(0.0161295 3.09551e-05 8.00279e-23)
(0.0161383 2.61762e-05 -1.39126e-23)
(0.0161458 2.13649e-05 -2.12556e-23)
(0.016152 1.65677e-05 7.16415e-24)
(0.0161571 1.18087e-05 -1.0182e-23)
(0.0161611 7.10955e-06 -2.14606e-23)
(0.0161641 2.49012e-06 2.03641e-23)
(0.0161661 -2.0341e-06 9.60329e-25)
(0.0161672 -6.45128e-06 -6.10812e-24)
(0.0161675 -1.07529e-05 6.90716e-24)
(0.0161669 -1.49304e-05 3.7272e-25)
(0.0161654 -1.89811e-05 -4.7596e-25)
(0.0141721 3.52011e-05 1.14588e-23)
(0.0141854 3.19346e-05 1.62452e-23)
(0.0141974 2.83807e-05 -1.46684e-23)
(0.0142078 2.45665e-05 -3.11049e-23)
(0.0142167 2.06115e-05 4.08134e-23)
(0.0142242 1.66094e-05 -4.36862e-23)
(0.0142306 1.26031e-05 -1.6472e-24)
(0.0142357 8.6165e-06 1.63264e-23)
(0.0142398 4.6721e-06 5.594e-24)
(0.0142428 7.90331e-07 -1.13492e-23)
(0.0142447 -3.01321e-06 8.63662e-26)
(0.0142456 -6.72668e-06 2.24556e-23)
(0.0142456 -1.03414e-05 -8.5051e-24)
(0.0142447 -1.38489e-05 -2.08316e-24)
(0.0142428 -1.72469e-05 -1.23116e-25)
(0.0123536 2.72571e-05 -1.19893e-23)
(0.0123664 2.47321e-05 1.49844e-23)
(0.012378 2.1916e-05 1.6442e-24)
(0.012388 1.88374e-05 2.89207e-23)
(0.0123967 1.56211e-05 -2.31088e-23)
(0.012404 1.23563e-05 1.81387e-24)
(0.0124101 9.08076e-06 -2.40327e-24)
(0.012415 5.81694e-06 -6.94932e-24)
(0.0124187 2.5867e-06 5.98649e-24)
(0.0124213 -5.90916e-07 -1.91417e-23)
(0.0124228 -3.70171e-06 1.35872e-24)
(0.0124233 -6.7349e-06 4.49385e-24)
(0.0124227 -9.68268e-06 2.76087e-24)
(0.0124212 -1.25378e-05 1.059e-24)
(0.0124187 -1.52991e-05 3.64401e-25)
(0.0106497 2.04645e-05 8.82113e-24)
(0.0106616 1.85624e-05 -6.82143e-24)
(0.0106723 1.63752e-05 -2.94494e-23)
(0.0106816 1.39394e-05 2.71791e-23)
(0.0106897 1.13818e-05 3.74401e-23)
(0.0106964 8.78294e-06 -9.35801e-24)
(0.0107019 6.17446e-06 -1.88973e-23)
(0.0107062 3.57639e-06 -2.62659e-23)
(0.0107093 1.00829e-06 1.96469e-23)
(0.0107113 -1.51373e-06 1.13558e-24)
(0.0107122 -3.97791e-06 -4.34332e-24)
(0.010712 -6.37522e-06 -1.15507e-24)
(0.0107107 -8.69935e-06 2.36737e-24)
(0.0107085 -1.09449e-05 -9.13337e-26)
(0.0107052 -1.31122e-05 -4.39408e-25)
(0.00906504 1.4872e-05 -5.42202e-24)
(0.00907569 1.34813e-05 -3.80899e-24)
(0.0090853 1.18213e-05 4.56332e-24)
(0.00909366 9.94013e-06 -1.43321e-23)
(0.00910076 7.96167e-06 4.65344e-23)
(0.00910665 5.95433e-06 -6.11778e-23)
(0.00911133 3.94252e-06 5.95791e-23)
(0.00911484 1.94268e-06 -2.50752e-23)
(0.0091172 -2.93572e-08 5.67336e-24)
(0.00911843 -1.96116e-06 7.51303e-26)
(0.00911856 -3.84372e-06 -4.38669e-24)
(0.00911763 -5.67011e-06 1.45289e-24)
(0.00911567 -7.4357e-06 -3.29593e-24)
(0.00911272 -9.13692e-06 -4.24013e-25)
(0.00910878 -1.07757e-05 2.10491e-25)
(0.00760022 1.04318e-05 -2.52625e-24)
(0.00760946 9.44696e-06 6.37966e-25)
(0.0076178 8.21973e-06 1.37855e-24)
(0.00762501 6.80991e-06 -6.35688e-24)
(0.00763105 5.33164e-06 -2.85555e-24)
(0.00763595 3.83779e-06 2.45169e-23)
(0.00763972 2.34507e-06 -1.4341e-23)
(0.00764236 8.65664e-07 2.04749e-24)
(0.0076439 -5.88902e-07 -1.97428e-24)
(0.00764438 -2.00977e-06 -2.12032e-24)
(0.00764381 -3.39046e-06 -6.0802e-25)
(0.00764224 -4.726e-06 3.98247e-24)
(0.00763968 -6.0133e-06 9.72662e-25)
(0.00763619 -7.25028e-06 -2.3312e-24)
(0.00763177 -8.44006e-06 -3.48584e-25)
(0.00625314 7.02352e-06 -8.65262e-25)
(0.00626091 6.34951e-06 -2.85477e-25)
(0.00626791 5.47141e-06 -1.3782e-23)
(0.00627391 4.45577e-06 3.61555e-24)
(0.00627885 3.39933e-06 -9.84153e-24)
(0.00628274 2.33792e-06 6.83724e-24)
(0.00628559 1.28123e-06 1.29379e-23)
(0.00628741 2.37387e-07 9.68152e-24)
(0.00628822 -7.85897e-07 -1.35407e-23)
(0.00628805 -1.78272e-06 4.07351e-24)
(0.00628694 -2.74861e-06 3.44983e-24)
(0.0062849 -3.68027e-06 -4.9091e-24)
(0.00628197 -4.57574e-06 2.61157e-24)
(0.00627819 -5.43401e-06 -1.75799e-25)
(0.00627358 -6.25872e-06 6.32485e-25)
(0.00501991 4.4918e-06 -3.1427e-24)
(0.00502624 4.04823e-06 -4.29443e-24)
(0.00503193 3.44785e-06 -7.84634e-25)
(0.00503673 2.75478e-06 1.06034e-23)
(0.0050406 2.04256e-06 -7.49324e-24)
(0.00504354 1.33148e-06 -1.45736e-24)
(0.00504556 6.26103e-07 1.20246e-23)
(0.00504668 -6.86043e-08 3.29505e-26)
(0.00504691 -7.47838e-07 -2.42995e-24)
(0.00504628 -1.40786e-06 -8.86135e-24)
(0.00504482 -2.04575e-06 1.00057e-24)
(0.00504256 -2.65945e-06 6.04315e-24)
(0.00503953 -3.24781e-06 -7.76406e-25)
(0.00503576 -3.81039e-06 -8.01751e-25)
(0.00503126 -4.35063e-06 5.25255e-25)
(0.00389543 2.67645e-06 -6.29595e-25)
(0.00390039 2.39865e-06 3.65498e-26)
(0.00390483 2.01472e-06 4.69535e-24)
(0.0039085 1.57652e-06 3.14275e-24)
(0.00391138 1.13279e-06 -2.15544e-24)
(0.00391349 6.92311e-07 -5.33781e-24)
(0.00391482 2.56728e-07 2.16007e-24)
(0.00391539 -1.71174e-07 -9.06432e-24)
(0.00391523 -5.88601e-07 6.97521e-24)
(0.00391435 -9.93322e-07 3.56477e-24)
(0.00391278 -1.38357e-06 -3.27809e-26)
(0.00391054 -1.75816e-06 -3.86633e-24)
(0.00390766 -2.11645e-06 6.9157e-25)
(0.00390417 -2.45822e-06 -5.11416e-25)
(0.00390009 -2.78618e-06 2.5093e-25)
(0.00287374 1.43107e-06 -1.05523e-24)
(0.00287743 1.26774e-06 2.05402e-26)
(0.0028807 1.04554e-06 3.43474e-24)
(0.00288334 7.97576e-07 -2.14506e-24)
(0.00288536 5.50692e-07 8.83152e-24)
(0.00288677 3.07026e-07 -1.60795e-23)
(0.00288756 6.69172e-08 1.30925e-23)
(0.00288777 -1.68251e-07 -1.09139e-23)
(0.00288739 -3.97036e-07 7.82765e-24)
(0.00288645 -6.18257e-07 -5.00767e-24)
(0.00288497 -8.30984e-07 1.71935e-24)
(0.00288298 -1.03461e-06 2.47726e-25)
(0.00288048 -1.22886e-06 3.84972e-25)
(0.00287751 -1.41357e-06 -4.721e-25)
(0.00287408 -1.59033e-06 9.51617e-26)
(0.00194839 6.34928e-07 1.45428e-24)
(0.00195089 5.48896e-07 1.57345e-24)
(0.00195308 4.40647e-07 -6.71873e-24)
(0.00195481 3.23933e-07 4.91347e-24)
(0.00195609 2.09862e-07 -4.75473e-26)
(0.00195693 9.7993e-08 1.26561e-24)
(0.00195734 -1.17021e-08 -1.54702e-24)
(0.00195733 -1.18657e-07 -3.23124e-24)
(0.0019569 -2.2226e-07 3.20308e-24)
(0.00195608 -3.2201e-07 3.30723e-25)
(0.00195487 -4.17523e-07 -2.5377e-24)
(0.00195329 -5.08555e-07 9.10943e-25)
(0.00195136 -5.95065e-07 5.33663e-25)
(0.00194909 -6.76884e-07 -6.37427e-26)
(0.0019465 -7.54438e-07 -5.83934e-26)
(0.00111259 1.99659e-07 -1.33543e-24)
(0.00111399 1.77395e-07 4.08476e-24)
(0.0011152 1.50356e-07 2.43956e-24)
(0.00111613 1.19131e-07 -4.38672e-24)
(0.00111679 8.67478e-08 -5.14093e-25)
(0.0011172 5.29918e-08 -4.57981e-25)
(0.00111735 1.82231e-08 1.39634e-24)
(0.00111724 -1.70517e-08 -2.35444e-24)
(0.0011169 -5.23603e-08 3.19701e-24)
(0.00111632 -8.73065e-08 -1.56488e-24)
(0.00111551 -1.21577e-07 -1.0089e-24)
(0.00111448 -1.54922e-07 6.06507e-25)
(0.00111324 -1.87227e-07 -7.05386e-25)
(0.00111181 -2.18217e-07 7.01654e-25)
(0.00111019 -2.47421e-07 -1.15455e-25)
(0.000359523 4.51361e-08 -7.62939e-27)
(0.000359904 1.02027e-07 6.35475e-25)
(0.000360225 1.46673e-07 7.28151e-25)
(0.000360456 1.76853e-07 -1.14084e-24)
(0.000360606 1.94213e-07 2.3694e-24)
(0.000360674 2.00641e-07 -2.56931e-24)
(0.000360663 1.97867e-07 1.68466e-25)
(0.000360572 1.87447e-07 1.4131e-24)
(0.000360403 1.7075e-07 -1.95287e-24)
(0.000360159 1.48978e-07 -3.49987e-25)
(0.000359841 1.23168e-07 1.33563e-24)
(0.000359452 9.42376e-08 -5.87469e-25)
(0.000358996 6.29129e-08 -2.12505e-25)
(0.000358476 2.99674e-08 1.7685e-25)
(0.000357894 -3.59481e-09 -7.63271e-27)
(0.000889498 -0.000260607 1.01636e-25)
(0.00102708 -0.000176416 2.63035e-24)
(0.0012461 -8.86934e-05 -7.65461e-24)
(0.00147388 -1.91615e-05 1.12113e-23)
(0.00169442 3.36187e-05 -4.2557e-24)
(0.00191009 7.20907e-05 -4.09813e-24)
(0.00212165 9.91241e-05 4.68205e-24)
(0.00232974 0.000116985 -9.28772e-24)
(0.00253513 0.000127469 6.14399e-25)
(0.00273845 0.000132077 5.91245e-24)
(0.00294025 0.000132088 -1.13093e-24)
(0.00314104 0.000128643 1.22642e-24)
(0.00334134 0.000122807 -1.21135e-25)
(0.00354175 0.000115636 7.66179e-25)
(0.00374308 0.00010824 -2.82438e-24)
(0.00394647 0.000101836 1.55103e-24)
(0.00415362 9.77616e-05 -4.79509e-25)
(0.00436711 9.73941e-05 3.76073e-26)
(0.00459067 0.000101853 1.11942e-24)
(0.00482936 0.00011134 -7.00935e-25)
(0.0050891 0.000123924 8.63393e-26)
(0.0053748 0.000133839 -7.55686e-26)
(0.00566358 0.000130895 1.43797e-25)
(0.005919 0.000109363 5.53232e-25)
(0.00612932 6.96238e-05 -9.89641e-25)
(0.00629447 1.40562e-05 -6.61028e-25)
(0.00641597 -5.44847e-05 3.77971e-26)
(0.00649581 -0.000133344 1.56959e-24)
(0.00653564 -0.000219909 1.95504e-24)
(0.00653644 -0.000311155 -3.73443e-24)
(0.0064987 -0.000403285 2.49293e-24)
(0.00642271 -0.000491528 -1.72328e-24)
(0.00630891 -0.000570136 1.88376e-25)
(0.00615806 -0.000632496 -1.51944e-24)
(0.00597142 -0.000671249 1.44703e-24)
(0.00575063 -0.000678288 9.40722e-24)
(0.00549765 -0.000644506 -2.57949e-24)
(0.00521471 -0.000559149 2.36379e-24)
(0.00490432 -0.000408747 1.2595e-24)
(0.00456941 -0.000176221 -1.35857e-23)
(0.00421334 0.000157534 -1.6427e-25)
(0.00383914 0.000604835 5.50953e-24)
(0.0034489 0.00114612 1.70017e-24)
(0.00305277 0.00168056 -7.25948e-24)
(0.00285722 0.00188375 -3.62618e-25)
(0.00169239 -0.000321108 -3.11566e-24)
(0.00174574 -0.000283689 -4.42238e-24)
(0.00188002 -0.000204712 9.38918e-24)
(0.00205258 -0.000129512 4.40248e-24)
(0.00223792 -6.67145e-05 -1.57331e-23)
(0.00242916 -1.77911e-05 1.70156e-23)
(0.0026226 1.88289e-05 -6.18284e-24)
(0.00281644 4.52265e-05 4.94422e-24)
(0.00301006 6.32619e-05 -6.61046e-24)
(0.0032033 7.45513e-05 7.76257e-26)
(0.00339621 8.049e-05 -3.55175e-24)
(0.003589 8.23117e-05 7.09796e-24)
(0.00378196 8.11553e-05 -3.94893e-24)
(0.00397554 7.81288e-05 -3.5557e-24)
(0.00417039 7.43721e-05 -2.35938e-24)
(0.00436748 7.11086e-05 4.56306e-24)
(0.00456834 6.96585e-05 -5.39132e-25)
(0.0047753 7.13625e-05 2.37525e-24)
(0.00499176 7.73002e-05 3.69795e-25)
(0.00522241 8.7676e-05 -7.05369e-25)
(0.00547277 0.00010069 -2.93105e-25)
(0.00574762 0.000110938 -1.77286e-25)
(0.00602541 0.000108787 8.60424e-25)
(0.00627167 8.89249e-05 1.04654e-24)
(0.00647528 5.17864e-05 -9.3794e-25)
(0.00663608 -3.27822e-07 -4.44105e-24)
(0.00675528 -6.46161e-05 5.83567e-24)
(0.00683455 -0.000138393 -3.90481e-24)
(0.0068753 -0.000218951 1.28279e-24)
(0.00687844 -0.000303152 -5.93713e-25)
(0.00684451 -0.000387114 3.79144e-24)
(0.00677402 -0.000466036 -3.55141e-24)
(0.00666769 -0.000534196 -3.19147e-25)
(0.0065268 -0.000585054 8.43252e-24)
(0.0063532 -0.000611352 -1.42127e-23)
(0.00614946 -0.000605102 3.81618e-24)
(0.00591885 -0.00055736 1.76191e-23)
(0.00566561 -0.000457658 -4.80766e-24)
(0.00539547 -0.000293073 -1.38885e-23)
(0.00511678 -4.7474e-05 -8.32184e-24)
(0.00484258 0.000297061 1.84121e-23)
(0.00459341 0.000750941 -1.70222e-23)
(0.00440095 0.00128897 -3.58111e-24)
(0.00429957 0.00179239 1.02068e-23)
(0.00436973 0.00194966 3.33944e-24)
(0.00263482 -0.0003278 -3.61788e-26)
(0.0026377 -0.00033114 -5.36123e-24)
(0.00269652 -0.000282583 1.0404e-23)
(0.00280334 -0.000219398 8.73189e-24)
(0.00293889 -0.00015755 -1.47244e-23)
(0.00309229 -0.000104239 3.15029e-25)
(0.0032564 -6.1246e-05 1.47735e-24)
(0.00342679 -2.8e-05 1.62482e-23)
(0.00360104 -3.27733e-06 -1.958e-23)
(0.00377782 1.42794e-05 1.21889e-23)
(0.00395638 2.5981e-05 3.70489e-24)
(0.00413642 3.30465e-05 -2.07476e-23)
(0.00431785 3.66257e-05 7.57376e-24)
(0.00450085 3.78418e-05 3.03575e-24)
(0.00468582 3.78422e-05 -6.34155e-24)
(0.00487354 3.78427e-05 1.03214e-23)
(0.00506528 3.91372e-05 -7.29187e-24)
(0.00526308 4.30238e-05 -1.27174e-25)
(0.00546999 5.05407e-05 5.71725e-25)
(0.00569025 6.18961e-05 6.06255e-25)
(0.00592896 7.54249e-05 7.85784e-26)
(0.00619065 8.60768e-05 3.47511e-25)
(0.00645525 8.47776e-05 -9.66652e-25)
(0.0066904 6.66204e-05 2.85661e-24)
(0.00688566 3.21019e-05 -4.46914e-24)
(0.00704074 -1.65429e-05 2.5443e-24)
(0.00715652 -7.65526e-05 -5.58258e-24)
(0.00723436 -0.000145202 7.35247e-24)
(0.00727541 -0.000219681 -6.03657e-24)
(0.00728051 -0.000296734 9.02443e-25)
(0.00725028 -0.00037239 1.23324e-24)
(0.00718542 -0.000441814 4.55734e-24)
(0.00708706 -0.000499325 -1.04984e-24)
(0.00695693 -0.000538501 4.70492e-24)
(0.0067976 -0.000552284 -1.35191e-23)
(0.00661259 -0.000532999 2.35204e-23)
(0.00640655 -0.000472221 -1.59934e-23)
(0.00618574 -0.000360428 2.35643e-23)
(0.0059589 -0.000186503 -4.45574e-23)
(0.00573895 6.22615e-05 1.67121e-23)
(0.00554564 0.000397863 5.56667e-24)
(0.00540805 0.000821613 8.31562e-24)
(0.0053636 0.00129814 -9.81743e-24)
(0.00543604 0.00171069 2.6441e-24)
(0.00561676 0.00183735 -1.66863e-24)
(0.00370095 -0.000310354 -1.30438e-24)
(0.0036796 -0.000336777 -2.15723e-24)
(0.00368728 -0.000319561 -9.67161e-24)
(0.00373484 -0.000278431 2.679e-24)
(0.003816 -0.00022813 1.81345e-24)
(0.00392279 -0.000178496 7.99213e-24)
(0.00404796 -0.00013452 -1.71637e-23)
(0.00418582 -9.78789e-05 6.76556e-24)
(0.00433252 -6.86531e-05 2.29617e-23)
(0.00448557 -4.62013e-05 -6.26285e-24)
(0.00464335 -2.95927e-05 -5.97436e-24)
(0.0048049 -1.7806e-05 -9.65231e-25)
(0.00496965 -9.79624e-06 3.20413e-24)
(0.0051374 -4.49878e-06 -6.34476e-24)
(0.00530825 -8.07066e-07 1.48993e-24)
(0.00548269 2.45395e-06 -5.2288e-25)
(0.00566172 6.52777e-06 -3.1203e-24)
(0.00584704 1.26517e-05 1.22223e-24)
(0.0060413 2.18085e-05 5.50162e-24)
(0.00624825 3.41989e-05 -6.48503e-25)
(0.00647249 4.82858e-05 -1.24528e-24)
(0.00671826 5.93731e-05 -3.4439e-25)
(0.00696703 5.89634e-05 -1.9138e-24)
(0.00718877 4.2568e-05 -1.08854e-25)
(0.00737368 1.07579e-05 -4.42239e-24)
(0.00752133 -3.42837e-05 7.52348e-24)
(0.00763228 -8.98287e-05 -6.16784e-24)
(0.00770753 -0.00015311 1.14537e-23)
(0.00774801 -0.000221223 -9.10017e-24)
(0.00775448 -0.000290816 2.25318e-24)
(0.00772764 -0.000357857 2.94581e-24)
(0.00766843 -0.000417535 -3.139e-25)
(0.00757835 -0.000464289 -4.90497e-25)
(0.00745967 -0.000491937 -1.73506e-24)
(0.00731564 -0.000493803 2.1268e-24)
(0.00715071 -0.000462813 -7.76998e-24)
(0.00697081 -0.000391501 3.58424e-23)
(0.00678387 -0.000271975 -1.86328e-23)
(0.00660079 -9.5989e-05 -6.33149e-25)
(0.00643693 0.000144225 -3.98825e-23)
(0.00631401 0.000453111 2.87365e-23)
(0.00626027 0.000822926 -9.89003e-24)
(0.00630513 0.00121592 2.28639e-24)
(0.00645657 0.00154165 1.10444e-23)
(0.00667359 0.00166754 -2.72813e-24)
(0.00488691 -0.000284601 -5.34419e-24)