/*--------------------------------*- C++ -*----------------------------------*\
| =========                 |                                                 |
| \\      /  F ield         | OpenFOAM: The Open Source CFD Toolbox           |
|  \\    /   O peration     | Version:  2312                                  |
|   \\  /    A nd           | Website:  www.openfoam.com                      |
|    \\/     M anipulation  |                                                 |
\*---------------------------------------------------------------------------*/
FoamFile
{
    version     2.0;
    format      ascii;
    arch        "LSB;label=32;scalar=64";
    class       volVectorField;
    location    "19";
    object      U;
}
// * * * * * * * * * * * * * * * * * * * * * * * * * * * * * * * * * * * * * //

dimensions      [0 1 -1 0 0 0 0];

internalField   nonuniform List<vector> 
4800
(
(0.000466317 3.15458e-07 -2.69373e-26)
(0.000458589 3.4593e-07 -1.89315e-25)
(0.000453927 3.57539e-07 2.42992e-25)
(0.000451308 3.48194e-07 1.11123e-25)
(0.000450128 3.2988e-07 1.64095e-24)
(0.000450129 2.97324e-07 -3.90782e-24)
(0.000451066 2.57315e-07 3.66028e-24)
(0.000452837 1.80797e-07 -5.31387e-24)
(0.000455528 2.46359e-08 1.70379e-24)
(0.000459319 -2.41315e-07 5.81391e-24)
(0.000464616 -7.55341e-07 -1.79159e-24)
(0.000472707 -2.1651e-06 -1.51684e-25)
(0.000490825 -7.35562e-06 -2.18623e-24)
(0.000536881 -2.83177e-05 1.01717e-24)
(0.000612979 -9.20279e-05 -8.08701e-25)
(0.00144191 1.64683e-06 -8.56992e-26)
(0.00141829 1.19279e-06 1.06813e-25)
(0.0014038 8.30983e-07 -9.84632e-25)
(0.0013954 5.0341e-07 7.35795e-25)
(0.00139127 1.85384e-07 2.36349e-24)
(0.00139062 -1.60091e-07 -3.75225e-24)
(0.00139262 -5.57534e-07 -1.07169e-24)
(0.00139702 -1.08512e-06 -2.56508e-25)
(0.00140407 -1.91296e-06 8.82784e-24)
(0.00141416 -3.24414e-06 -6.52273e-24)
(0.00142851 -5.71977e-06 7.10017e-25)
(0.00144985 -1.1586e-05 1.08298e-24)
(0.00148707 -2.85148e-05 -1.602e-24)
(0.00155085 -8.0061e-05 -4.85133e-25)
(0.00161951 -0.00019616 2.09551e-24)
(0.0025203 5.294e-06 -6.1352e-26)
(0.00247966 3.82795e-06 6.26915e-26)
(0.00245438 2.68994e-06 6.44497e-25)
(0.00243934 1.70175e-06 -1.53693e-24)
(0.00243152 7.23155e-07 1.50869e-24)
(0.00242942 -3.46462e-07 1.40625e-24)
(0.00243172 -1.58432e-06 -3.63324e-24)
(0.00243782 -3.21783e-06 -2.27981e-24)
(0.00244816 -5.61254e-06 5.47614e-24)
(0.00246299 -9.31825e-06 2.06553e-24)
(0.00248368 -1.58345e-05 -7.18159e-24)
(0.0025124 -2.91466e-05 -1.08977e-24)
(0.00255328 -5.87988e-05 3.06823e-24)
(0.00260509 -0.000124123 4.856e-24)
(0.00264267 -0.000232663 -2.50872e-24)
(0.00370754 1.18437e-05 2.26804e-26)
(0.00364906 8.67118e-06 -1.57922e-25)
(0.00361216 6.21722e-06 7.0429e-25)
(0.00358965 4.10085e-06 7.53907e-25)
(0.00357731 2.02439e-06 -7.4869e-25)
(0.00357279 -2.49026e-07 -4.25203e-24)
(0.00357447 -2.74676e-06 -2.87731e-24)
(0.00358099 -6.0629e-06 1.10079e-23)
(0.00359306 -1.08171e-05 4.59339e-24)
(0.00361029 -1.78256e-05 -6.59657e-24)
(0.0036335 -2.92475e-05 -2.65791e-24)
(0.00366311 -4.96195e-05 -2.02835e-24)
(0.00369838 -8.69378e-05 6.08103e-26)
(0.00373213 -0.000151176 1.50013e-24)
(0.00374609 -0.000237335 7.33127e-27)
(0.00500748 2.19258e-05 -4.16233e-26)
(0.0049311 1.6216e-05 -2.54561e-25)
(0.00488214 1.18075e-05 -1.61044e-25)
(0.00485152 8.0251e-06 4.35285e-25)
(0.00483388 4.37213e-06 -1.23822e-24)
(0.0048259 5.12242e-07 3.09029e-24)
(0.00482587 -3.9343e-06 -5.3908e-25)
(0.00483151 -9.28526e-06 1.89561e-24)
(0.00484335 -1.68845e-05 -1.06326e-23)
(0.00486036 -2.75277e-05 2.01905e-23)
(0.00488233 -4.34714e-05 -1.95356e-23)
(0.00490799 -6.84488e-05 1.03106e-23)
(0.00493397 -0.000107289 -9.56861e-24)
(0.00495257 -0.000163045 9.02611e-24)
(0.00495342 -0.000228137 -3.59886e-24)
(0.00642019 3.62466e-05 5.4994e-26)
(0.00632723 2.70894e-05 1.96871e-25)
(0.00626661 2.00245e-05 -1.03884e-24)
(0.00622773 1.3993e-05 -6.57878e-25)
(0.00620429 8.26642e-06 1.76464e-24)
(0.00619213 2.28315e-06 6.33531e-25)
(0.00618902 -4.33322e-06 -4.9534e-24)
(0.00619265 -1.23073e-05 1.18269e-23)
(0.00620234 -2.28525e-05 -1.54105e-23)
(0.0062167 -3.68983e-05 3.69441e-24)
(0.00623456 -5.62568e-05 1.12453e-23)
(0.00625363 -8.32065e-05 -1.56219e-23)
(0.00627006 -0.000119627 7.82296e-24)
(0.00627813 -0.000164983 8.01628e-24)
(0.0062731 -0.000213062 -6.10149e-24)
(0.00793981 5.53078e-05 4.54767e-26)
(0.00783386 4.18233e-05 -2.68987e-25)
(0.0077634 3.14022e-05 9.63341e-25)
(0.00771708 2.25375e-05 -1.33654e-24)
(0.00768796 1.42496e-05 -4.54309e-24)
(0.00767134 5.74613e-06 7.74556e-24)
(0.0076644 -3.4448e-06 -4.70512e-24)
(0.00766475 -1.4166e-05 1.60225e-23)
(0.00767083 -2.75326e-05 -1.08971e-23)
(0.00768082 -4.43669e-05 -5.09533e-24)
(0.00769291 -6.57776e-05 -1.00255e-23)
(0.0077046 -9.26636e-05 9.21779e-24)
(0.00771276 -0.000125003 2.59267e-24)
(0.00771393 -0.000161007 2.21706e-24)
(0.00770655 -0.000196517 -1.95064e-24)
(0.00955223 7.89968e-05 -6.55384e-26)
(0.00944009 6.05421e-05 8.90079e-25)
(0.00936382 4.61965e-05 -2.07214e-24)
(0.00931239 3.40069e-05 -1.6973e-24)
(0.00927883 2.27444e-05 6.34939e-25)
(0.00925827 1.14366e-05 1.24991e-24)
(0.0092475 -5.48456e-07 4.48955e-24)
(0.00924396 -1.39763e-05 -1.2235e-23)
(0.00924564 -2.98099e-05 -6.53268e-24)
(0.00925045 -4.8604e-05 1.79711e-23)
(0.00925636 -7.07897e-05 -5.57089e-24)
(0.00926118 -9.63221e-05 1.90486e-23)
(0.00926279 -0.000124336 -1.00277e-23)
(0.00925935 -0.000153032 -3.19444e-24)
(0.00925087 -0.000179893 1.89099e-24)
(0.0112341 0.000106043 -8.66329e-27)
(0.0111262 8.25314e-05 4.91976e-25)
(0.0110508 6.40335e-05 -7.0056e-25)
(0.0109986 4.82666e-05 1.67921e-24)
(0.0109634 3.38068e-05 -1.00156e-23)
(0.0109406 1.95744e-05 1.05756e-23)
(0.010927 4.83078e-06 -1.66723e-23)
(0.01092 -1.10842e-05 1.02487e-23)
(0.0109175 -2.88664e-05 7.62479e-24)
(0.0109174 -4.87779e-05 1.65535e-23)
(0.0109179 -7.07645e-05 -2.162e-23)
(0.0109171 -9.43215e-05 -3.99698e-24)
(0.010914 -0.00011844 1.84712e-24)
(0.0109075 -0.000141769 1.31719e-23)
(0.0108984 -0.000162883 -5.35546e-24)
(0.0129557 0.000133511 4.74142e-26)
(0.0128649 0.000105752 -2.06388e-25)
(0.0127992 8.34645e-05 9.23254e-25)
(0.0127525 6.42926e-05 -3.23823e-24)
(0.0127199 4.67482e-05 4.90939e-24)
(0.012698 2.97406e-05 -6.33998e-24)
(0.0126838 1.25262e-05 1.0615e-23)
(0.0126751 -5.44344e-06 1.86151e-24)
(0.0126697 -2.45521e-05 -1.46325e-23)
(0.0126661 -4.48395e-05 2.08363e-23)
(0.0126626 -6.60047e-05 -2.29776e-23)
(0.0126582 -8.74419e-05 -6.75974e-24)
(0.0126522 -0.000108321 1.19251e-23)
(0.012644 -0.000127784 3.53477e-24)
(0.0126346 -0.000145076 -1.54351e-24)
(0.0146914 0.000156955 1.88554e-25)
(0.0146286 0.000126711 -1.60411e-24)
(0.0145812 0.000101714 -2.58236e-24)
(0.0145465 7.98623e-05 6.12056e-24)
(0.0145217 5.97922e-05 2.73722e-24)
(0.0145045 4.05208e-05 -1.71921e-23)
(0.0144928 2.14042e-05 5.29665e-24)
(0.0144847 2.03246e-06 3.81462e-24)
(0.0144789 -1.77276e-05 -1.64892e-23)
(0.0144738 -3.77826e-05 1.71785e-23)
(0.0144687 -5.77761e-05 -1.37365e-23)
(0.0144627 -7.71985e-05 3.52887e-23)
(0.0144557 -9.5482e-05 -1.69562e-23)
(0.0144473 -0.000112152 9.97602e-24)
(0.0144384 -0.000126846 -2.72103e-24)
(0.0164352 0.000172185 -6.96164e-26)
(0.0164032 0.000141504 1.08126e-24)
(0.0163779 0.000115295 -2.12484e-24)
(0.016359 9.19045e-05 -1.08214e-24)
(0.0163454 7.02474e-05 1.20865e-23)
(0.016336 4.95549e-05 -1.75499e-24)
(0.0163294 2.93488e-05 -2.14953e-23)
(0.0163245 9.39033e-06 2.50706e-23)
(0.0163205 -1.03322e-05 -5.63394e-24)
(0.0163164 -2.96582e-05 -1.9485e-23)
(0.0163118 -4.82841e-05 2.07793e-23)
(0.0163063 -6.58631e-05 1.1194e-23)
(0.0163 -8.20621e-05 -9.42143e-24)
(0.0162927 -9.66605e-05 -1.63003e-23)
(0.0162852 -0.000109519 1.36724e-24)
(0.0182076 0.000178336 -2.57452e-27)
(0.0181984 0.000148359 -1.20151e-24)
(0.0181911 0.000122046 5.75886e-24)
(0.0181861 9.81394e-05 3.715e-25)
(0.0181831 7.5842e-05 3.3004e-24)
(0.0181814 5.46226e-05 -1.18003e-23)
(0.0181805 3.41755e-05 1.00841e-23)
(0.0181797 1.43937e-05 2.29561e-24)
(0.0181786 -4.68282e-06 2.0729e-23)
(0.0181768 -2.29031e-05 -3.20288e-23)
(0.0181741 -4.00587e-05 -1.44906e-23)
(0.0181704 -5.59565e-05 -9.57009e-24)
(0.0181659 -7.04358e-05 1.80248e-23)
(0.0181605 -8.3429e-05 -5.17844e-25)
(0.0181551 -9.4916e-05 1.7454e-24)
(0.020035 0.00017882 -1.78288e-26)
(0.020036 0.000149432 1.22169e-24)
(0.0200376 0.000123229 -1.78166e-24)
(0.02004 9.92095e-05 -6.77543e-28)
(0.0200429 7.67827e-05 2.38331e-24)
(0.0200458 5.55934e-05 6.07679e-24)
(0.0200484 3.54566e-05 -2.35653e-23)
(0.0200503 1.6322e-05 1.98791e-24)
(0.0200513 -1.77258e-06 1.19844e-23)
(0.0200513 -1.87379e-05 -5.51603e-24)
(0.0200503 -3.44683e-05 1.50632e-23)
(0.0200483 -4.889e-05 1.05383e-23)
(0.0200457 -6.19573e-05 -1.91236e-23)
(0.0200421 -7.36882e-05 1.30727e-23)
(0.0200385 -8.41237e-05 -1.08657e-23)
(0.0219116 0.000177719 -5.29689e-25)
(0.0219148 0.000148614 2.77237e-25)
(0.0219183 0.00012239 2.11642e-24)
(0.0219222 9.82881e-05 -1.09982e-23)
(0.0219262 7.5873e-05 9.69717e-24)
(0.0219298 5.49041e-05 -7.10407e-24)
(0.0219329 3.52563e-05 5.09239e-24)
(0.0219351 1.68822e-05 -3.61986e-23)
(0.0219365 -2.25751e-07 5.22481e-23)
(0.0219369 -1.60519e-05 -3.07866e-23)
(0.0219365 -3.0583e-05 2.75004e-23)
(0.0219352 -4.38316e-05 2.29909e-23)
(0.0219334 -5.58243e-05 -4.01654e-23)
(0.0219308 -6.6625e-05 1.30655e-23)
(0.0219283 -7.63037e-05 -5.48722e-25)
(0.0237812 0.000176175 -1.87761e-26)
(0.0237853 0.000147658 -1.62014e-25)
(0.023789 0.000121671 1.23535e-25)
(0.0237925 9.77301e-05 -3.02985e-25)
(0.0237958 7.55519e-05 3.94897e-24)
(0.0237985 5.49771e-05 -6.79475e-24)
(0.0238007 3.59106e-05 6.32887e-24)
(0.0238021 1.82868e-05 -2.00584e-23)
(0.0238029 2.05327e-06 4.56699e-23)
(0.0238027 -1.28404e-05 -5.84899e-23)
(0.0238021 -2.64485e-05 4.79335e-23)
(0.0238006 -3.88379e-05 -1.61916e-23)
(0.0237989 -5.00751e-05 8.41094e-25)
(0.0237966 -6.02466e-05 3.71182e-24)
(0.0237943 -6.94341e-05 -7.12126e-24)
(0.0255509 0.000173094 -1.55403e-24)
(0.025557 0.000145859 2.79707e-24)
(0.0255616 0.000120721 -9.38628e-25)
(0.0255653 9.74705e-05 -1.52219e-24)
(0.0255683 7.59645e-05 6.21379e-24)
(0.0255705 5.61032e-05 -6.33106e-24)
(0.0255721 3.78061e-05 -5.72333e-24)
(0.0255729 2.09936e-05 -1.38473e-23)
(0.0255731 5.58435e-06 7.05256e-24)
(0.0255726 -8.50912e-06 3.37138e-23)
(0.0255716 -2.13799e-05 -1.78095e-23)
(0.0255701 -3.31198e-05 1.06263e-23)
(0.0255683 -4.38131e-05 -4.3744e-24)
(0.025566 -5.3553e-05 -1.29656e-23)
(0.0255638 -6.24223e-05 6.63691e-24)
(0.0271043 0.000167418 5.10114e-25)
(0.0271124 0.000142167 -8.85672e-25)
(0.0271184 0.000118543 -2.60114e-25)
(0.0271227 9.65708e-05 -7.40966e-25)
(0.027126 7.62216e-05 -1.84457e-24)
(0.0271282 5.74372e-05 9.58901e-24)
(0.0271298 4.01496e-05 -7.7215e-24)
(0.0271305 2.42682e-05 -4.98598e-24)
(0.0271306 9.70284e-06 4.56832e-24)
(0.0271301 -3.65005e-06 -5.3927e-24)
(0.0271291 -1.58805e-05 1.25672e-23)
(0.0271277 -2.70861e-05 6.37842e-24)
(0.027126 -3.73567e-05 -2.38081e-23)
(0.027124 -4.67831e-05 1.64515e-23)
(0.0271219 -5.54403e-05 -3.35538e-24)
(0.0282896 0.000158975 1.50673e-24)
(0.0282994 0.000136257 2.53951e-24)
(0.0283065 0.000114716 -5.6577e-24)
(0.0283117 9.45354e-05 -2.96328e-25)
(0.0283155 7.57716e-05 1.29412e-24)
(0.0283181 5.83993e-05 -2.91282e-24)
(0.0283199 4.23646e-05 -4.64499e-24)
(0.0283209 2.7579e-05 1.00656e-23)
(0.0283212 1.39568e-05 1.12458e-23)
(0.0283209 1.39503e-06 -2.73153e-23)
(0.0283202 -1.01887e-05 1.57559e-23)
(0.0283191 -2.08886e-05 -1.10198e-24)
(0.0283177 -3.07848e-05 -9.18873e-25)
(0.028316 -3.99543e-05 1.23936e-24)
(0.0283142 -4.84579e-05 -5.71907e-25)
(0.0289015 0.000146371 -3.94925e-24)
(0.028913 0.000126614 -8.49246e-24)
(0.0289216 0.000107629 4.57938e-24)
(0.0289281 8.96846e-05 1.5464e-23)
(0.028933 7.28837e-05 -4.31472e-24)
(0.0289366 5.72326e-05 -1.20359e-24)
(0.0289392 4.26917e-05 5.56132e-25)
(0.028941 2.91933e-05 -4.4966e-24)
(0.028942 1.66643e-05 1.21875e-23)
(0.0289424 5.02453e-06 -5.38756e-24)
(0.0289423 -5.80076e-06 3.23396e-24)
(0.0289416 -1.58892e-05 -5.11296e-24)
(0.0289405 -2.53e-05 -5.85843e-24)
(0.028939 -3.40926e-05 8.77588e-24)
(0.0289373 -4.23132e-05 -3.837e-24)
(0.028721 0.000132289 6.25643e-24)
(0.0287331 0.000115467 -1.43737e-23)
(0.0287425 9.90911e-05 2.35584e-24)
(0.0287497 8.34556e-05 2.07211e-23)
(0.0287553 6.86808e-05 -2.00912e-23)
(0.0287596 5.47949e-05 6.98428e-24)
(0.0287628 4.17708e-05 4.49981e-24)
(0.0287652 2.95634e-05 -1.01334e-23)
(0.0287668 1.81145e-05 2.3742e-24)
(0.0287678 7.37553e-06 1.12753e-24)
(0.0287682 -2.7052e-06 -1.01118e-24)
(0.0287681 -1.21595e-05 2.13395e-24)
(0.0287675 -2.10271e-05 -2.62066e-24)
(0.0287665 -2.93594e-05 1.78103e-24)
(0.0287652 -3.71978e-05 -8.2695e-25)
(0.0277794 0.000116957 3.87963e-24)
(0.0277924 0.000102822 -8.18332e-24)
(0.0278025 8.89305e-05 -5.63038e-24)
(0.0278103 7.55484e-05 2.6457e-23)
(0.0278162 6.27955e-05 -2.42777e-23)
(0.0278207 5.07007e-05 2.59373e-24)
(0.0278241 3.92542e-05 4.05353e-24)
(0.0278264 2.84218e-05 2.17642e-24)
(0.0278279 1.81722e-05 1.69704e-24)
(0.0278286 8.47048e-06 -7.74001e-24)
(0.0278287 -7.04097e-07 4.97671e-24)
(0.0278284 -9.38302e-06 7.33306e-25)
(0.0278275 -1.75962e-05 -1.62458e-24)
(0.0278263 -2.5375e-05 8.9833e-25)
(0.0278246 -3.27426e-05 5.88227e-25)
(0.026281 0.000101662 9.64869e-24)
(0.0262943 8.98696e-05 -1.71323e-23)
(0.0263049 7.81965e-05 3.49796e-24)
(0.0263135 6.68664e-05 -8.30082e-24)
(0.0263204 5.59826e-05 -1.07196e-23)
(0.0263259 4.55746e-05 3.63693e-23)
(0.0263302 3.56429e-05 -1.40373e-23)
(0.0263335 2.61692e-05 3.91304e-24)
(0.0263359 1.71394e-05 -2.14043e-24)
(0.0263375 8.52923e-06 -4.9666e-24)
(0.0263384 3.20974e-07 9.03304e-24)
(0.0263388 -7.52388e-06 -4.44762e-24)
(0.0263385 -1.50171e-05 6.94994e-25)
(0.0263377 -2.21668e-05 2.32256e-25)
(0.0263365 -2.89767e-05 2.06022e-26)
(0.0244631 8.83663e-05 3.71455e-24)
(0.0244763 7.84874e-05 -1.91931e-23)
(0.0244873 6.8635e-05 3.32762e-23)
(0.0244963 5.89931e-05 -2.53801e-23)
(0.0245036 4.96456e-05 2.53049e-23)
(0.0245095 4.06268e-05 -8.41143e-24)
(0.0245143 3.1942e-05 -5.79273e-24)
(0.024518 2.35905e-05 -6.26744e-24)
(0.0245208 1.55611e-05 1.08318e-23)
(0.0245227 7.84695e-06 -6.07771e-25)
(0.0245239 4.30271e-07 -1.00513e-23)
(0.0245245 -6.68652e-06 -1.07882e-24)
(0.0245244 -1.35071e-05 1.9493e-24)
(0.0245238 -2.00361e-05 -3.31951e-25)
(0.0245226 -2.62725e-05 4.89521e-26)
(0.022463 7.6069e-05 4.94327e-25)
(0.0224764 6.77868e-05 -7.22301e-24)
(0.0224876 5.9467e-05 -4.0325e-24)
(0.022497 5.12544e-05 3.29565e-23)
(0.0225048 4.32225e-05 -3.23799e-23)
(0.0225112 3.54061e-05 9.45636e-24)
(0.0225164 2.78222e-05 1.59051e-24)
(0.0225205 2.04776e-05 -8.30121e-25)
(0.0225236 1.33755e-05 -3.85398e-24)
(0.0225259 6.51525e-06 1.65569e-23)
(0.0225274 -9.97529e-08 -1.31214e-23)
(0.0225282 -6.46755e-06 -5.17354e-25)
(0.0225283 -1.25854e-05 1.06003e-24)
(0.0225277 -1.84522e-05 6.95435e-25)
(0.0225266 -2.40639e-05 -5.16088e-25)
(0.0203843 6.46307e-05 7.3575e-25)
(0.0203979 5.76784e-05 6.71326e-24)
(0.0204095 5.06547e-05 -7.70348e-24)
(0.0204193 4.36732e-05 -5.32728e-24)
(0.0204276 3.67962e-05 3.3877e-23)
(0.0204345 3.00587e-05 -2.59087e-23)
(0.0204401 2.34845e-05 -5.96202e-25)
(0.0204447 1.70863e-05 -5.32505e-24)
(0.0204482 1.08756e-05 -4.06095e-25)
(0.0204508 4.85602e-06 7.78177e-25)
(0.0204526 -9.59729e-07 -2.7124e-24)
(0.0204536 -6.57369e-06 2.31172e-24)
(0.0204538 -1.19791e-05 8.32552e-25)
(0.0204534 -1.71699e-05 7.07851e-25)
(0.0204523 -2.21386e-05 6.36491e-25)
(0.0183026 5.39891e-05 5.24411e-24)
(0.0183164 4.81557e-05 -8.04133e-24)
(0.0183283 4.22436e-05 -6.45341e-24)
(0.0183385 3.63391e-05 1.96821e-23)
(0.0183473 3.04915e-05 -7.04946e-24)
(0.0183546 2.47349e-05 -9.90197e-24)
(0.0183607 1.90943e-05 3.46527e-24)
(0.0183656 1.35866e-05 7.7106e-24)
(0.0183695 8.22433e-06 -1.22201e-23)
(0.0183724 3.01425e-06 1.2044e-23)
(0.0183744 -2.03183e-06 -6.36703e-24)
(0.0183756 -6.91065e-06 2.67503e-24)
(0.018376 -1.16127e-05 -3.32562e-24)
(0.0183756 -1.61294e-05 3.19869e-24)
(0.0183744 -2.04518e-05 -7.22472e-25)
(0.0162709 4.41074e-05 -1.01786e-24)
(0.0162848 3.92384e-05 -3.5328e-24)
(0.0162969 3.43006e-05 -1.12571e-23)
(0.0163074 2.9354e-05 3.14278e-23)
(0.0163164 2.44355e-05 -5.63564e-24)
(0.016324 1.95776e-05 -8.85318e-24)
(0.0163304 1.48035e-05 3.05864e-24)
(0.0163356 1.01328e-05 -4.4372e-24)
(0.0163396 5.57314e-06 -9.53316e-24)
(0.0163427 1.14377e-06 9.18493e-24)
(0.0163447 -3.1598e-06 4.38996e-25)
(0.0163459 -7.32277e-06 -2.83756e-24)
(0.0163462 -1.13318e-05 3.24052e-24)
(0.0163456 -1.51786e-05 1.78157e-25)
(0.0163442 -1.88541e-05 -2.28651e-25)
(0.0143243 3.50639e-05 3.91699e-24)
(0.014338 3.10489e-05 5.76296e-24)
(0.0143501 2.69821e-05 -5.37258e-24)
(0.0143605 2.28989e-05 -1.17349e-23)
(0.0143695 1.88279e-05 1.57926e-23)
(0.0143771 1.47992e-05 -1.72821e-23)
(0.0143834 1.08341e-05 -6.66474e-25)
(0.0143885 6.94955e-06 6.69432e-24)
(0.0143924 3.15439e-06 2.32753e-24)
(0.0143953 -5.34664e-07 -4.78527e-24)
(0.0143971 -4.12014e-06 3.23553e-26)
(0.014398 -7.58387e-06 9.6734e-24)
(0.0143979 -1.09137e-05 -3.69362e-24)
(0.0143969 -1.41024e-05 -9.12892e-25)
(0.0143951 -1.71411e-05 -5.44308e-26)
(0.0124838 2.70214e-05 -4.06873e-24)
(0.0124969 2.37749e-05 5.23778e-24)
(0.0125085 2.04931e-05 5.89638e-25)
(0.0125185 1.71916e-05 1.06061e-23)
(0.012527 1.38955e-05 -8.64495e-24)
(0.0125342 1.06313e-05 6.90202e-25)
(0.0125401 7.41779e-06 -9.27953e-25)
(0.0125447 4.26688e-06 -2.71904e-24)
(0.0125482 1.19299e-06 2.36972e-24)
(0.0125506 -1.80445e-06 -7.64919e-24)
(0.0125519 -4.70523e-06 5.45585e-25)
(0.0125522 -7.50083e-06 1.82376e-24)
(0.0125515 -1.01833e-05 1.12835e-24)
(0.0125499 -1.27455e-05 4.35545e-25)
(0.0125473 -1.51783e-05 1.50898e-25)
(0.0107605 2.01343e-05 3.01355e-24)
(0.0107726 1.75776e-05 -2.384e-24)
(0.0107832 1.49977e-05 -1.04871e-23)
(0.0107924 1.23978e-05 9.84686e-24)
(0.0108001 9.80214e-06 1.37654e-23)
(0.0108065 7.23247e-06 -3.48691e-24)
(0.0108116 4.70329e-06 -7.11773e-24)
(0.0108155 2.22469e-06 -9.98859e-24)
(0.0108183 -1.91489e-07 7.5327e-24)
(0.0108199 -2.54624e-06 4.38905e-25)
(0.0108205 -4.81847e-06 -1.68821e-24)
(0.01082 -7.00271e-06 -4.51838e-25)
(0.0108185 -9.09308e-06 9.30065e-25)
(0.0108162 -1.10829e-05 -3.58181e-26)
(0.0108128 -1.29638e-05 -1.74118e-25)
(0.00915861 1.44747e-05 -1.89632e-24)
(0.00916937 1.25244e-05 -1.35226e-24)
(0.00917874 1.05591e-05 1.64535e-24)
(0.00918672 8.57583e-06 -5.22815e-24)
(0.00919337 6.59822e-06 1.7161e-23)
(0.00919876 4.64224e-06 -2.27705e-23)
(0.00920293 2.71812e-06 2.23523e-23)
(0.00920594 8.35976e-07 -9.47137e-24)
(0.00920781 -1.00109e-06 2.1555e-24)
(0.00920861 -2.78363e-06 2.90921e-26)
(0.00920836 -4.5005e-06 -1.68249e-24)
(0.00920713 -6.14697e-06 5.59951e-25)
(0.00920492 -7.71771e-06 -1.27352e-24)
(0.00920183 -9.2068e-06 -1.64412e-25)
(0.00919784 -1.06073e-05 8.18129e-26)
(0.0076784 1.00099e-05 -9.21189e-25)
(0.00768758 8.57587e-06 2.35809e-25)
(0.00769552 7.13277e-06 5.13309e-25)
(0.0077022 5.67577e-06 -2.38554e-24)
(0.00770765 4.2264e-06 -1.07865e-24)
(0.00771194 2.79428e-06 9.32708e-24)
(0.00771509 1.38682e-06 -5.48536e-24)
(0.00771716 1.34676e-08 7.86623e-25)
(0.00771818 -1.32831e-06 -7.6147e-25)
(0.00771819 -2.62539e-06 -8.20701e-25)
(0.00771723 -3.87219e-06 -2.3617e-25)
(0.00771534 -5.06467e-06 1.55001e-24)
(0.00771255 -6.19837e-06 3.79705e-25)
(0.00770892 -7.26837e-06 -9.11011e-25)
(0.00770448 -8.26941e-06 -1.36467e-25)
(0.00631742 6.62287e-06 -3.34857e-25)
(0.00632497 5.6125e-06 -1.10976e-25)
(0.00633144 4.59847e-06 -5.40284e-24)
(0.00633679 3.57561e-06 1.42754e-24)
(0.00634106 2.56142e-06 -3.89552e-24)
(0.00634428 1.55992e-06 2.72024e-24)
(0.00634649 5.77074e-07 5.16186e-24)
(0.00634772 -3.80169e-07 3.87302e-24)
(0.00634801 -1.31461e-06 -5.43045e-24)
(0.00634739 -2.21636e-06 1.6371e-24)
(0.00634589 -3.08107e-06 1.3891e-24)
(0.00634356 -3.90572e-06 -1.97986e-24)
(0.00634043 -4.68707e-06 1.05453e-24)
(0.00633655 -5.42118e-06 -7.11443e-26)
(0.00633195 -6.10423e-06 2.55969e-25)
(0.00507156 4.15074e-06 -1.31082e-24)
(0.00507754 3.47482e-06 -1.79715e-24)
(0.00508261 2.801e-06 -3.27999e-25)
(0.00508671 2.12307e-06 4.47168e-24)
(0.0050899 1.45332e-06 -3.16788e-24)
(0.00509218 7.91693e-07 -6.16917e-25)
(0.00509359 1.4407e-07 5.10535e-24)
(0.00509415 -4.86304e-07 1.38136e-26)
(0.0050939 -1.10105e-06 -1.03486e-24)
(0.00509287 -1.69349e-06 -3.77846e-24)
(0.00509108 -2.2603e-06 4.26839e-25)
(0.00508856 -2.79937e-06 2.58168e-24)
(0.00508537 -3.30855e-06 -3.31915e-25)
(0.00508153 -3.78483e-06 -3.43051e-25)
(0.00507707 -4.22538e-06 2.24842e-25)
(0.00393557 2.41839e-06 -2.86311e-25)
(0.0039401 1.99562e-06 1.68896e-26)
(0.0039439 1.58057e-06 2.14348e-24)
(0.0039469 1.1649e-06 1.43608e-24)
(0.00394915 7.55685e-07 -9.88168e-25)
(0.00395066 3.50883e-07 -2.44771e-24)
(0.00395145 -4.39737e-08 9.91279e-25)
(0.00395155 -4.29952e-07 -4.15633e-24)
(0.00395097 -8.03747e-07 3.20088e-24)
(0.00394975 -1.16532e-06 1.63968e-24)
(0.0039479 -1.51031e-06 -1.49367e-26)
(0.00394546 -1.83757e-06 -1.78009e-24)
(0.00394246 -2.14574e-06 3.18554e-25)
(0.00393893 -2.43258e-06 -2.35663e-25)
(0.00393491 -2.69586e-06 1.15656e-25)
(0.00290341 1.26048e-06 -5.26812e-25)
(0.00290665 1.01752e-06 1.07034e-26)
(0.00290933 7.87399e-07 1.71747e-24)
(0.0029114 5.59224e-07 -1.07371e-24)
(0.00291288 3.35951e-07 4.42086e-24)
(0.00291379 1.16446e-07 -8.05453e-24)
(0.00291414 -1.01382e-07 6.51478e-24)
(0.00291397 -3.08829e-07 -5.43243e-24)
(0.00291326 -5.15493e-07 3.92504e-24)
(0.00291205 -7.11338e-07 -2.51169e-24)
(0.00291036 -8.98483e-07 8.62545e-25)
(0.00290822 -1.07553e-06 1.24306e-25)
(0.00290564 -1.24144e-06 1.93251e-25)
(0.00290266 -1.39458e-06 -2.37012e-25)
(0.00289929 -1.53309e-06 4.77818e-26)
(0.00196852 5.37936e-07 7.98823e-25)
(0.00197064 4.10637e-07 8.63498e-25)
(0.00197236 3.00782e-07 -3.69141e-24)
(0.00197364 1.94808e-07 2.70007e-24)
(0.00197452 9.30446e-08 -2.63813e-26)
(0.001975 -2.89581e-09 6.95183e-25)
(0.00197508 -1.0356e-07 -8.48286e-25)
(0.00197479 -1.97926e-07 -1.77149e-24)
(0.00197413 -2.88764e-07 1.7605e-24)
(0.00197311 -3.74452e-07 1.8181e-25)
(0.00197175 -4.5537e-07 -1.39507e-24)
(0.00197007 -5.30606e-07 5.00778e-25)
(0.00196809 -6.0085e-07 2.93455e-25)
(0.00196583 -6.65279e-07 -3.50511e-26)
(0.0019633 -7.22353e-07 -3.21194e-26)
(0.0011241 1.58464e-07 -8.05544e-25)
(0.00112523 1.11802e-07 2.46334e-24)
(0.00112613 8.15391e-08 1.46926e-24)
(0.00112678 5.20143e-08 -2.64487e-24)
(0.00112719 2.28876e-08 -3.09918e-25)
(0.00112737 -4.52479e-09 -2.74597e-25)
(0.00112732 -3.60837e-08 8.37004e-25)
(0.00112705 -6.51968e-08 -1.41822e-24)
(0.00112657 -9.31732e-08 1.92567e-24)
(0.00112587 -1.20077e-07 -9.42563e-25)
(0.00112498 -1.44264e-07 -6.07741e-25)
(0.00112389 -1.63963e-07 3.6537e-25)
(0.00112263 -1.85398e-07 -4.25057e-25)
(0.00112121 -2.08804e-07 4.22823e-25)
(0.00111963 -2.32902e-07 -6.95827e-26)
(0.000363242 5.92079e-08 -5.74724e-27)
(0.000363516 1.13535e-07 4.78166e-25)
(0.000363723 1.58046e-07 5.46979e-25)
(0.000363855 1.87204e-07 -8.57259e-25)
(0.000363917 2.03002e-07 1.78075e-24)
(0.000363909 2.075e-07 -1.93341e-24)
(0.00036383 2.02317e-07 1.26738e-25)
(0.000363682 1.89665e-07 1.06315e-24)
(0.000363465 1.70536e-07 -1.46936e-24)
(0.000363184 1.46257e-07 -2.6343e-25)
(0.000362838 1.19e-07 1.0053e-24)
(0.000362431 9.07885e-08 -4.42227e-25)
(0.000361967 5.78425e-08 -1.60089e-25)
(0.00036145 2.04725e-08 1.33248e-25)
(0.000360885 -2.02357e-08 -5.75504e-27)
(0.000908982 -0.000239382 8.03068e-26)
(0.00104153 -0.00015965 2.04529e-24)
(0.00126478 -7.78616e-05 -5.86478e-24)
(0.00149327 -1.20592e-05 8.49327e-24)
(0.0017131 3.93996e-05 -3.18556e-24)
(0.00192906 7.72752e-05 -3.04312e-24)
(0.00214111 0.000104034 3.45004e-24)
(0.0023498 0.000121721 -6.79538e-24)
(0.00255586 0.000132054 4.44375e-25)
(0.00275989 0.000136515 4.2682e-24)
(0.00296243 0.000136382 -8.1176e-25)
(0.003164 0.000132789 8.75497e-25)
(0.00336513 0.000126792 -8.58686e-26)
(0.00356645 0.000119433 5.41981e-25)
(0.00376877 0.000111794 -1.98882e-24)
(0.00397319 0.00010507 1.08787e-24)
(0.00418145 0.00010056 -3.35415e-25)
(0.00439595 9.96882e-05 2.62159e-26)
(0.00462056 0.000103583 7.78404e-25)
(0.00486004 0.000112795 -4.86397e-25)
(0.00512089 0.000125537 5.96751e-26)
(0.00540811 0.000136914 -5.21684e-26)
(0.00569973 0.000135759 9.9525e-26)
(0.00595878 0.000114748 3.8489e-25)
(0.0061724 7.46738e-05 -6.90772e-25)
(0.00634041 1.83645e-05 -4.63898e-25)
(0.0064644 -5.10959e-05 2.57094e-26)
(0.00654663 -0.000131067 1.12789e-24)
(0.00658884 -0.000219051 1.43104e-24)
(0.00659199 -0.000312186 -2.77315e-24)
(0.00655644 -0.000406777 1.8974e-24)
(0.00648228 -0.000498058 -1.34866e-24)
(0.00636975 -0.000580181 1.60694e-25)
(0.00621948 -0.000646354 -1.16288e-24)
(0.00603264 -0.000688998 1.11999e-24)
(0.00581084 -0.000699785 7.45353e-24)
(0.00555606 -0.000669422 -2.04743e-24)
(0.00527059 -0.000586929 1.92045e-24)
(0.00495713 -0.000438242 1.03229e-24)
(0.00461939 -0.000204604 -1.10217e-23)
(0.00426116 0.000136073 -1.34585e-25)
(0.00388752 0.000597636 4.65138e-24)
(0.00348728 0.00115044 1.4885e-24)
(0.00307839 0.00167306 -6.52543e-24)
(0.00284698 0.00179882 -3.24169e-25)
(0.0017115 -0.000319576 -2.35338e-24)
(0.001767 -0.00027443 -3.2946e-24)
(0.00190506 -0.000195719 6.92068e-24)
(0.00207867 -0.000122809 3.19486e-24)
(0.00226346 -6.11468e-05 -1.11674e-23)
(0.0024547 -1.28541e-05 1.18792e-23)
(0.0026483 2.34729e-05 -4.2531e-24)
(0.00284241 4.97106e-05 3.36296e-24)
(0.00303642 6.76194e-05 -4.44714e-24)
(0.00323012 7.87892e-05 5.14789e-26)
(0.00342357 8.46041e-05 -2.34697e-24)
(0.00361695 8.62925e-05 4.65067e-24)
(0.00381059 8.49841e-05 -2.56791e-24)
(0.00400493 8.17729e-05 -2.29765e-24)
(0.00420064 7.77751e-05 -1.51654e-24)
(0.00439864 7.41944e-05 2.91253e-24)
(0.00460052 7.23188e-05 -3.42932e-25)
(0.00480839 7.35332e-05 1.50287e-24)
(0.00502584 7.89305e-05 2.32653e-25)
(0.0052572 8.90467e-05 -4.43337e-25)
(0.00550859 0.000102206 -1.83438e-25)
(0.00578477 0.000113856 -1.10499e-25)
(0.00606517 0.000113394 5.38766e-25)
(0.00631491 9.39973e-05 6.60089e-25)
(0.00652178 5.65121e-05 -5.93443e-25)
(0.00668546 3.64493e-06 -2.83383e-24)
(0.00680721 -6.15935e-05 3.77681e-24)
(0.00688893 -0.000136531 -2.56967e-24)
(0.0069321 -0.000218555 8.58257e-25)
(0.00693761 -0.000304664 -4.08376e-25)
(0.00690587 -0.000391055 2.66719e-24)
(0.00683719 -0.000472914 -2.58181e-24)
(0.00673214 -0.000544413 -1.55874e-25)
(0.00659182 -0.000598834 6.00335e-24)
(0.00641802 -0.000628703 -1.03375e-23)
(0.00621328 -0.000625816 2.81851e-24)
(0.0059809 -0.00058104 1.3277e-23)
(0.00572515 -0.000483719 -3.64868e-24)
(0.0054519 -0.000320499 -1.06678e-23)
(0.00517016 -7.38382e-05 -6.42818e-24)
(0.00489352 0.000276994 1.46593e-23)
(0.00464479 0.000746309 -1.41027e-23)
(0.00444792 0.00130462 -3.09079e-24)
(0.00434304 0.00181952 9.20307e-24)
(0.00437306 0.00188734 2.92127e-24)
(0.00265941 -0.000327829 -2.67442e-26)
(0.00266781 -0.000322873 -3.77262e-24)
(0.00272687 -0.000275858 7.33019e-24)
(0.00283626 -0.000213229 6.13272e-24)
(0.00297206 -0.000152049 -1.00339e-23)
(0.00312554 -9.93107e-05 2.08389e-25)
(0.00328963 -5.66534e-05 9.59912e-25)
(0.00346002 -2.36155e-05 1.03548e-23)
(0.00363437 9.42856e-07 -1.2261e-23)
(0.00381133 1.83569e-05 7.51759e-24)
(0.00399018 2.99213e-05 2.2557e-24)
(0.00417059 3.68452e-05 -1.24687e-23)
(0.00435249 4.02674e-05 4.50105e-24)
(0.00453605 4.12965e-05 1.78701e-24)
(0.00472172 4.10581e-05 -3.70076e-24)
(0.00491019 4.07494e-05 5.9749e-24)
(0.00510281 4.16371e-05 -4.191e-24)
(0.00530141 4.50599e-05 -7.25894e-26)
(0.0055092 5.20695e-05 3.2523e-25)
(0.00573007 6.3185e-05 3.43026e-25)
(0.0059697 7.68398e-05 4.4608e-26)
(0.00623253 8.88233e-05 1.94643e-25)
(0.00649947 8.90961e-05 -5.43962e-25)
(0.00673792 7.13492e-05 1.62131e-24)
(0.00693636 3.6499e-05 -2.55758e-24)
(0.00709433 -1.28562e-05 1.47077e-24)
(0.00721271 -7.3767e-05 -3.29147e-24)
(0.00729303 -0.000143528 4.41492e-24)
(0.00733653 -0.000219411 -3.71039e-24)
(0.00734401 -0.000298277 5.52446e-25)
(0.00731594 -0.000376221 7.67215e-25)
(0.00725287 -0.000448393 3.06505e-24)
(0.00715573 -0.000509015 -7.3585e-25)
(0.00702613 -0.000551502 3.12143e-24)
(0.00686655 -0.0005686 -9.20778e-24)
(0.00668048 -0.000552436 1.63861e-23)
(0.0064726 -0.000494408 -1.13442e-23)
(0.00624918 -0.000384828 1.70193e-23)
(0.00601903 -0.000212266 -3.2608e-23)
(0.00579557 3.71598e-05 1.24427e-23)
(0.00559925 0.000378 4.33267e-24)
(0.0054618 0.000816315 6.77366e-24)
(0.00541808 0.0013159 -8.41489e-24)
(0.00549116 0.00174662 2.36393e-24)
(0.00565 0.00179033 -1.42579e-24)
(0.00373554 -0.000311527 -9.97165e-25)
(0.00371758 -0.00033152 -1.51925e-24)
(0.00372751 -0.000313385 -6.48669e-24)
(0.00377519 -0.000273528 1.79458e-24)
(0.0038576 -0.000223065 1.19062e-24)
(0.00396486 -0.000173649 5.11263e-24)
(0.00409007 -0.000129901 -1.06614e-23)
(0.00422778 -9.34697e-05 4.07933e-24)
(0.00437434 -6.44396e-05 1.35135e-23)
(0.00452732 -4.21636e-05 -3.59819e-24)
(0.00468512 -2.57207e-05 -3.36334e-24)
(0.00484678 -1.41005e-05 -5.33804e-25)
(0.00501176 -6.26905e-06 1.74387e-24)
(0.00517984 -1.1765e-06 -3.40244e-24)
(0.00535116 2.26389e-06 7.87802e-25)
(0.00552616 5.20942e-06 -2.73936e-25)
(0.00570588 8.88178e-06 -1.61502e-24)
(0.00589184 1.4556e-05 6.26324e-25)
(0.00608684 2.32304e-05 2.79434e-24)
(0.00629426 3.53975e-05 -3.28042e-25)
(0.00651929 4.95938e-05 -6.23593e-25)
(0.00676597 6.19479e-05 -1.71347e-25)
(0.0070168 6.29856e-05 -9.5922e-25)
(0.00724159 4.69257e-05 -5.62782e-26)
(0.00742958 1.47687e-05 -2.27038e-24)
(0.0075801 -3.09828e-05 3.92306e-24)
(0.00769365 -8.74355e-05 -3.2918e-24)
(0.0077714 -0.000151849 6.25227e-24)
(0.00781434 -0.000221383 -5.09701e-24)
(0.00782316 -0.000292779 1.28815e-24)
(0.00779844 -0.000362053 1.74654e-24)
(0.00774095 -0.000424364 -1.86432e-25)
(0.00765202 -0.00047405 -3.0068e-25)
(0.00753378 -0.000504766 -1.08118e-24)
(0.00738942 -0.000509649 1.34839e-24)
(0.00722336 -0.000481423 -5.10016e-24)
(0.00704152 -0.000412442 2.40827e-23)
(0.00685186 -0.000294637 -1.27753e-23)
(0.00666533 -0.000119511 -4.36802e-25)
(0.00649762 0.000121574 -2.89536e-23)
(0.0063711 0.000434884 2.19442e-23)
(0.00631641 0.000816496 -7.95467e-24)
(0.00636377 0.00122901 1.97508e-24)
(0.00651869 0.0015715 9.8664e-24)
(0.00673468 0.00165133 -2.35266e-24)
(0.00493504 -0.000285713 -4.12043e-24)