/*--------------------------------*- C++ -*----------------------------------*\
| =========                 |                                                 |
| \\      /  F ield         | OpenFOAM: The Open Source CFD Toolbox           |
|  \\    /   O peration     | Version:  2312                                  |
|   \\  /    A nd           | Website:  www.openfoam.com                      |
|    \\/     M anipulation  |                                                 |
\*---------------------------------------------------------------------------*/
FoamFile
{
    version     2.0;
    format      ascii;
    arch        "LSB;label=32;scalar=64";
    class       surfaceScalarField;
    location    "35";
    object      phi;
}
// * * * * * * * * * * * * * * * * * * * * * * * * * * * * * * * * * * * * * //

dimensions      [0 3 -1 0 0 0 0];

oriented        oriented;

internalField   nonuniform List<scalar> 
9445
(
6.03584e-10
1.81739e-11
5.91171e-10
1.24124e-11
5.82638e-10
8.53348e-12
5.76902e-10
5.73594e-12
5.73309e-10
3.59326e-12
5.71439e-10
1.86994e-12
5.71092e-10
3.46521e-13
5.72276e-10
-1.18402e-12
5.74927e-10
-2.65029e-12
5.79384e-10
-4.45693e-12
5.86825e-10
-7.44094e-12
6.00775e-10
-1.39506e-11
6.33692e-10
-3.29167e-11
7.29499e-10
-9.58068e-11
-2.51545e-10
9.81044e-10
2.10122e-09
8.04551e-11
2.05843e-09
5.52034e-11
2.02879e-09
3.81761e-11
2.00861e-09
2.59135e-11
1.99563e-09
1.65722e-11
1.98841e-09
9.09837e-12
1.98619e-09
2.56071e-12
1.98875e-09
-3.73893e-12
1.99592e-09
-9.82415e-12
2.00887e-09
-1.7405e-11
2.0305e-09
-2.90692e-11
2.06752e-09
-5.09766e-11
2.13335e-09
-9.87483e-11
2.24098e-09
-2.03435e-10
-3.664e-10
2.35584e-09
4.13833e-09
2.00705e-10
4.05532e-09
1.3822e-10
3.99745e-09
9.60403e-11
3.95766e-09
6.57087e-11
3.93153e-09
4.27055e-11
3.91619e-09
2.44388e-11
3.91011e-09
8.63403e-12
3.91245e-09
-6.07527e-12
3.92286e-09
-2.02379e-11
3.94275e-09
-3.7297e-11
3.97495e-09
-6.12648e-11
4.02386e-09
-9.98878e-11
4.09226e-09
-1.6715e-10
4.16666e-09
-2.77828e-10
-4.09646e-10
4.2099e-09
6.86251e-09
3.94805e-10
6.72767e-09
2.73052e-10
6.63301e-09
1.90701e-10
6.56718e-09
1.31545e-10
6.52301e-09
8.68742e-11
6.49578e-09
5.16682e-11
6.48272e-09
2.16921e-11
6.48203e-09
-5.38235e-12
6.49289e-09
-3.11044e-11
6.51573e-09
-6.01356e-11
6.55161e-09
-9.71392e-11
6.59984e-09
-1.48121e-10
6.65388e-09
-2.21188e-10
6.69378e-09
-3.17733e-10
-4.12296e-10
6.69643e-09
1.04533e-08
6.79441e-10
1.02539e-08
4.72459e-10
1.01126e-08
3.3194e-10
1.00131e-08
2.31014e-10
9.94493e-09
1.55094e-10
9.9009e-09
9.56944e-11
9.87646e-09
4.61285e-11
9.8686e-09
2.48618e-12
9.87548e-09
-3.79858e-11
9.89552e-09
-8.01774e-11
9.92695e-09
-1.28567e-10
9.96487e-09
-1.86047e-10
9.99856e-09
-2.54872e-10
1.00109e-08
-3.30116e-10
-3.92851e-10
9.9915e-09
1.51241e-08
1.06913e-09
1.48479e-08
7.4873e-10
1.465e-08
5.29824e-10
1.45086e-08
3.72359e-10
1.44095e-08
2.5424e-10
1.43427e-08
1.62437e-10
1.43015e-08
8.73415e-11
1.42811e-08
2.29302e-11
1.42779e-08
-3.48091e-11
1.42884e-08
-9.06439e-11
1.43077e-08
-1.47915e-10
1.43289e-08
-2.07262e-10
1.43415e-08
-2.67415e-10
1.43341e-08
-3.2274e-10
-3.6258e-10
1.43038e-08
2.11209e-08
1.57053e-09
2.07594e-08
1.11026e-09
2.04966e-08
7.92587e-10
2.03059e-08
5.6313e-10
2.01689e-08
3.91175e-10
2.00731e-08
2.58251e-10
2.00091e-08
1.51392e-10
1.99699e-08
6.21212e-11
1.995e-08
-1.49377e-11
1.99438e-08
-8.44176e-11
1.99447e-08
-1.48817e-10
1.99453e-08
-2.07868e-10
1.99375e-08
-2.5965e-10
1.99153e-08
-3.00567e-10
-3.26219e-10
1.9879e-08
2.8714e-08
2.17338e-09
2.82686e-08
1.55564e-09
2.79385e-08
1.12268e-09
2.76942e-08
8.07484e-10
2.75145e-08
5.70841e-10
2.73842e-08
3.88526e-10
2.72917e-08
2.4395e-10
2.72277e-08
1.2605e-10
2.71849e-08
2.78894e-11
2.71559e-08
-5.54128e-11
2.71337e-08
-1.2658e-10
2.71115e-08
-1.85732e-10
2.70841e-08
-2.32254e-10
2.70488e-08
-2.65194e-10
-2.83974e-10
2.70065e-08
3.81845e-08
2.84022e-09
3.76744e-08
2.06579e-09
3.72861e-08
1.51096e-09
3.69917e-08
1.10189e-09
3.67695e-08
7.93042e-10
3.66028e-08
5.55191e-10
3.64785e-08
3.68326e-10
3.63856e-08
2.18874e-10
3.63155e-08
9.8051e-11
3.62597e-08
3.61526e-13
3.62119e-08
-7.87331e-11
3.61663e-08
-1.40198e-10
3.61197e-08
-1.85662e-10
3.60709e-08
-2.16408e-10
-2.33991e-10
3.6021e-08
4.98137e-08
3.50281e-09
4.92813e-08
2.59824e-09
4.88611e-08
1.93112e-09
4.85327e-08
1.43031e-09
4.82773e-08
1.04844e-09
4.80791e-08
7.53389e-10
4.79248e-08
5.22649e-10
4.78031e-08
3.40544e-10
4.77047e-08
1.9643e-10
4.76222e-08
8.29053e-11
4.75489e-08
-5.47098e-12
4.74811e-08
-7.2382e-11
4.74163e-08
-1.20915e-10
4.7354e-08
-1.54089e-10
-1.74616e-10
4.72946e-08
6.38986e-08
4.07955e-09
6.34036e-08
3.09324e-09
6.2994e-08
2.34073e-09
6.26612e-08
1.76308e-09
6.23931e-08
1.31655e-09
6.21773e-08
9.69185e-10
6.20024e-08
6.9755e-10
6.18584e-08
4.84572e-10
6.17369e-08
3.17897e-10
6.16315e-08
1.88365e-10
6.15371e-08
8.89393e-11
6.14507e-08
1.40104e-11
6.13706e-08
-4.08236e-11
6.12962e-08
-7.97109e-11
-1.05922e-10
6.12275e-08
8.08234e-08
4.5182e-09
8.04165e-08
3.50012e-09
8.00603e-08
2.697e-09
7.97572e-08
2.06611e-09
7.95028e-08
1.57101e-09
7.92895e-08
1.18242e-09
7.91096e-08
8.77507e-10
7.89555e-08
6.38625e-10
7.88212e-08
4.52227e-10
7.87018e-08
3.07731e-10
7.8594e-08
1.96758e-10
7.84955e-08
1.12518e-10
7.84051e-08
4.95439e-11
7.83225e-08
2.89344e-12
-3.02845e-11
7.82469e-08
1.01159e-07
4.82921e-09
1.0085e-07
3.80921e-09
1.00565e-07
2.98268e-09
1.0031e-07
2.32069e-09
1.00087e-07
1.79425e-09
9.98918e-08
1.3775e-09
9.97205e-08
1.04881e-09
9.95686e-08
7.90535e-10
9.94324e-08
5.88465e-10
9.9309e-08
4.31132e-10
9.91964e-08
3.09333e-10
9.90933e-08
2.15597e-10
9.89989e-08
1.43953e-10
9.89123e-08
8.94837e-11
4.83698e-11
9.88337e-08
1.25661e-07
5.05844e-09
1.25422e-07
4.04782e-09
1.25192e-07
3.2126e-09
1.24979e-07
2.53388e-09
1.24785e-07
1.98862e-09
1.24608e-07
1.55378e-09
1.24448e-07
1.20891e-09
1.24302e-07
9.36523e-10
1.24169e-07
7.22157e-10
1.24046e-07
5.53922e-10
1.23933e-07
4.22251e-10
1.23829e-07
3.19389e-10
1.23734e-07
2.39174e-10
1.23647e-07
1.76589e-10
1.27722e-10
1.23567e-07
1.55053e-07
5.22447e-09
1.54866e-07
4.2347e-09
1.54675e-07
3.4032e-09
1.5449e-07
2.71919e-09
1.54314e-07
2.16461e-09
1.54149e-07
1.719e-09
1.53995e-07
1.36316e-09
1.53851e-07
1.08014e-09
1.53718e-07
8.55581e-10
1.53594e-07
6.77602e-10
1.5348e-07
5.3659e-10
1.53374e-07
4.2476e-10
1.53277e-07
3.3593e-10
1.53189e-07
2.6511e-10
2.08397e-10
1.53108e-07
1.89784e-07
5.30968e-09
1.8966e-07
4.35867e-09
1.89516e-07
3.54781e-09
1.89362e-07
2.87299e-09
1.89206e-07
2.32024e-09
1.89053e-07
1.87195e-09
1.88906e-07
1.51083e-09
1.88765e-07
1.22091e-09
1.88632e-07
9.88548e-10
1.88507e-07
8.02252e-10
1.88391e-07
6.52684e-10
1.88284e-07
5.3226e-10
1.88185e-07
4.34932e-10
1.88094e-07
3.55829e-10
2.91126e-10
1.88011e-07
2.29933e-07
5.29832e-09
2.29888e-07
4.40428e-09
2.29804e-07
3.63159e-09
2.29695e-07
2.98214e-09
2.29571e-07
2.44375e-09
2.29441e-07
2.00236e-09
2.29309e-07
1.64298e-09
2.29178e-07
1.35129e-09
2.29052e-07
1.11476e-09
2.28932e-07
9.22655e-10
2.28818e-07
7.66214e-10
2.28712e-07
6.38289e-10
2.28614e-07
5.33118e-10
2.28524e-07
4.46062e-10
3.73475e-10
2.28442e-07
2.75066e-07
5.18162e-09
2.75104e-07
4.36653e-09
2.75087e-07
3.64847e-09
2.75031e-07
3.03786e-09
2.74949e-07
2.52554e-09
2.74851e-07
2.10071e-09
2.74743e-07
1.75083e-09
2.74631e-07
1.46336e-09
2.74519e-07
1.2271e-09
2.74409e-07
1.0325e-09
2.74303e-07
8.7161e-10
2.74204e-07
7.37836e-10
2.74111e-07
6.25904e-10
2.74026e-07
5.31486e-10
4.51314e-10
2.73948e-07
3.2373e-07
4.95578e-09
3.23869e-07
4.22746e-09
3.23938e-07
3.5798e-09
3.23953e-07
3.02302e-09
3.23928e-07
2.55064e-09
3.23874e-07
2.154e-09
3.23802e-07
1.8228e-09
3.23719e-07
1.54681e-09
3.2363e-07
1.31649e-09
3.23538e-07
1.12372e-09
3.23448e-07
9.6157e-10
3.23362e-07
8.24286e-10
3.23281e-07
7.07196e-10
3.23206e-07
6.06437e-10
5.1905e-10
3.23138e-07
3.72859e-07
4.58717e-09
3.73123e-07
3.96342e-09
3.73297e-07
3.40586e-09
3.73402e-07
2.91786e-09
3.73454e-07
2.4987e-09
3.73466e-07
2.14167e-09
3.7345e-07
1.83891e-09
3.73415e-07
1.58225e-09
3.73367e-07
1.36433e-09
3.73312e-07
1.17845e-09
3.73255e-07
1.01901e-09
3.73198e-07
8.81206e-10
3.73144e-07
7.61123e-10
3.73095e-07
6.55497e-10
5.61816e-10
3.73052e-07
3.70354e-07
4.16187e-09
3.70678e-07
3.63958e-09
3.70915e-07
3.16887e-09
3.71082e-07
2.75119e-09
3.71193e-07
2.38721e-09
3.71262e-07
2.0727e-09
3.71299e-07
1.80165e-09
3.71314e-07
1.56787e-09
3.71313e-07
1.36555e-09
3.71301e-07
1.18955e-09
3.71285e-07
1.0354e-09
3.71267e-07
8.9931e-10
3.7125e-07
7.7808e-10
3.71236e-07
6.69047e-10
5.70302e-10
3.71228e-07
3.1761e-07
3.68052e-09
3.17993e-07
3.25691e-09
3.18291e-07
2.87013e-09
3.1852e-07
2.52303e-09
3.1869e-07
2.21642e-09
3.18816e-07
1.94746e-09
3.18905e-07
1.71192e-09
3.18968e-07
1.50518e-09
3.19011e-07
1.32295e-09
3.19039e-07
1.16133e-09
3.19057e-07
1.01697e-09
3.1907e-07
8.86944e-10
3.19079e-07
7.68794e-10
3.19088e-07
6.60478e-10
5.60317e-10
3.19098e-07
2.65964e-07
3.22677e-09
2.6634e-07
2.88046e-09
2.66649e-07
2.5611e-09
2.669e-07
2.27227e-09
2.67102e-07
2.01411e-09
2.67265e-07
1.78461e-09
2.67396e-07
1.58058e-09
2.67503e-07
1.39863e-09
2.6759e-07
1.23554e-09
2.67663e-07
1.08836e-09
2.67726e-07
9.54516e-10
2.67781e-07
8.31912e-10
2.67831e-07
7.18498e-10
2.67879e-07
6.12842e-10
5.13636e-10
2.67925e-07
2.19191e-07
2.78852e-09
2.19564e-07
2.50711e-09
2.1988e-07
2.24567e-09
2.20145e-07
2.0071e-09
2.20367e-07
1.79151e-09
2.20555e-07
1.59727e-09
2.20713e-07
1.42206e-09
2.20849e-07
1.26337e-09
2.20965e-07
1.11882e-09
2.21067e-07
9.86242e-10
2.21158e-07
8.63731e-10
2.2124e-07
7.49677e-10
2.21316e-07
6.42616e-10
2.21388e-07
5.41483e-10
4.453e-10
2.21456e-07
1.78257e-07
2.36253e-09
1.78628e-07
2.13687e-09
1.78947e-07
1.92579e-09
1.79223e-07
1.73138e-09
1.79461e-07
1.55366e-09
1.79667e-07
1.39138e-09
1.79846e-07
1.24285e-09
1.80003e-07
1.10628e-09
1.80142e-07
9.79948e-10
1.80266e-07
8.6231e-10
1.80378e-07
7.52006e-10
1.8048e-07
6.4787e-10
1.80573e-07
5.48919e-10
1.8066e-07
4.54367e-10
3.63567e-10
1.80742e-07
1.43355e-07
1.95596e-09
1.43714e-07
1.77828e-09
1.44029e-07
1.61083e-09
1.44305e-07
1.4551e-09
1.44548e-07
1.311e-09
1.44762e-07
1.17759e-09
1.44951e-07
1.0537e-09
1.45119e-07
9.3812e-10
1.45269e-07
8.29664e-10
1.45404e-07
7.27276e-10
1.45526e-07
6.30046e-10
1.45637e-07
5.37189e-10
1.45738e-07
4.48071e-10
1.4583e-07
3.6213e-10
2.79e-10
1.45915e-07
1.14153e-07
1.58024e-09
1.14487e-07
1.44338e-09
1.14785e-07
1.31328e-09
1.15049e-07
1.19103e-09
1.15284e-07
1.07643e-09
1.15492e-07
9.68834e-10
1.15679e-07
8.67502e-10
1.15845e-07
7.71658e-10
1.15994e-07
6.8055e-10
1.16128e-07
5.93498e-10
1.16248e-07
5.09932e-10
1.16356e-07
4.29362e-10
1.16453e-07
3.5142e-10
1.16539e-07
2.75789e-10
2.02144e-10
1.16616e-07
9.00458e-08
1.24566e-09
9.03464e-08
1.14282e-09
9.06156e-08
1.0441e-09
9.08563e-08
9.50313e-10
9.10715e-08
8.6117e-10
9.12641e-08
7.76298e-10
9.14363e-08
6.9528e-10
9.15903e-08
6.17671e-10
9.17278e-08
5.43029e-10
9.18503e-08
4.70964e-10
9.19591e-08
4.01154e-10
9.20551e-08
3.33331e-10
9.21393e-08
2.67308e-10
9.22121e-08
2.02937e-10
1.40101e-10
9.22741e-08
7.03481e-08
9.58222e-10
7.06079e-08
8.83011e-10
7.08419e-08
8.10096e-10
7.10522e-08
7.39961e-10
7.12411e-08
6.72323e-10
7.14104e-08
6.07029e-10
7.15617e-08
5.43897e-10
7.16967e-08
4.82707e-10
7.18165e-08
4.23235e-10
7.19222e-08
3.65293e-10
7.20146e-08
3.08736e-10
7.20945e-08
2.5345e-10
7.21624e-08
1.99374e-10
7.22189e-08
1.46464e-10
9.46781e-11
7.22643e-08
5.43904e-08
7.19139e-10
5.46077e-08
6.65748e-10
5.48043e-08
6.13492e-10
5.49817e-08
5.62514e-10
5.51414e-08
5.12595e-10
5.52847e-08
4.63749e-10
5.54127e-08
4.15939e-10
5.55263e-08
3.6909e-10
5.56264e-08
3.23119e-10
5.57137e-08
2.7797e-10
5.57889e-08
2.33609e-10
5.58523e-08
1.90023e-10
5.59044e-08
1.47224e-10
5.59457e-08
1.05251e-10
6.41182e-11
5.59762e-08
4.1566e-08
5.25844e-10
4.17425e-08
4.89186e-10
4.1903e-08
4.52992e-10
4.20485e-08
4.17085e-10
4.21797e-08
3.81367e-10
4.22975e-08
3.45951e-10
4.24026e-08
3.10872e-10
4.24955e-08
2.76138e-10
4.25769e-08
2.41755e-10
4.26471e-08
2.0774e-10
4.27066e-08
1.74121e-10
4.27557e-08
1.40938e-10
4.27946e-08
1.08249e-10
4.28238e-08
7.6114e-11
4.45737e-11
4.28433e-08
3.13423e-08
3.73501e-10
3.14822e-08
3.49279e-10
3.161e-08
3.25166e-10
3.17263e-08
3.00755e-10
3.18316e-08
2.76085e-10
3.19263e-08
2.51298e-10
3.20107e-08
2.2646e-10
3.20852e-08
2.0162e-10
3.21501e-08
1.76824e-10
3.22058e-08
1.52125e-10
3.22523e-08
1.27579e-10
3.229e-08
1.03247e-10
3.2319e-08
7.9203e-11
3.23396e-08
5.55107e-11
3.22248e-11
3.2352e-08
2.32599e-08
2.56319e-10
2.33681e-08
2.41025e-10
2.34676e-08
2.25669e-10
2.35586e-08
2.09743e-10
2.36413e-08
1.93396e-10
2.37159e-08
1.7675e-10
2.37825e-08
1.59875e-10
2.38413e-08
1.42833e-10
2.38924e-08
1.25681e-10
2.3936e-08
1.08484e-10
2.39723e-08
9.12999e-11
2.40014e-08
7.4195e-11
2.40233e-08
5.72384e-11
2.40384e-08
4.04865e-11
2.39824e-11
2.40466e-08
1.69266e-08
1.6845e-10
1.70083e-08
1.59313e-10
1.70839e-08
1.5005e-10
1.71535e-08
1.40169e-10
1.7217e-08
1.29873e-10
1.72745e-08
1.19243e-10
1.7326e-08
1.08339e-10
1.73716e-08
9.72184e-11
1.74114e-08
8.59352e-11
1.74453e-08
7.4546e-11
1.74735e-08
6.31042e-11
1.7496e-08
5.16662e-11
1.7513e-08
4.02906e-11
1.75245e-08
2.90224e-11
1.78901e-11
1.75306e-08
1.20103e-08
1.04482e-10
1.20703e-08
9.9391e-11
1.21261e-08
9.41744e-11
1.21779e-08
8.84323e-11
1.22254e-08
8.23597e-11
1.22686e-08
7.59983e-11
1.23076e-08
6.93931e-11
1.23422e-08
6.25882e-11
1.23725e-08
5.5626e-11
1.23985e-08
4.85503e-11
1.24202e-08
4.14024e-11
1.24376e-08
3.42251e-11
1.24509e-08
2.70631e-11
1.24599e-08
1.99506e-11
1.2911e-11
1.24649e-08
8.23275e-09
5.96528e-11
8.27508e-09
5.70663e-11
8.31486e-09
5.43924e-11
8.35194e-09
5.13486e-11
8.38622e-09
4.80806e-11
8.41762e-09
4.46021e-11
8.44607e-09
4.09433e-11
8.47152e-09
3.71335e-11
8.49395e-09
3.32015e-11
8.51332e-09
2.91768e-11
8.52964e-09
2.50872e-11
8.5429e-09
2.09617e-11
8.55313e-09
1.68303e-11
8.56037e-09
1.27175e-11
8.64203e-12
8.56463e-09
5.36237e-09
2.98995e-11
5.39069e-09
2.87452e-11
5.41753e-09
2.75588e-11
5.44271e-09
2.61609e-11
5.46616e-09
2.4634e-11
5.48778e-09
2.29787e-11
5.50751e-09
2.12124e-11
5.5253e-09
1.93515e-11
5.54109e-09
1.74126e-11
5.55485e-09
1.54129e-11
5.56657e-09
1.3368e-11
5.57624e-09
1.12949e-11
5.58386e-09
9.2106e-12
5.58944e-09
7.13099e-12
5.07068e-12
5.59301e-09
3.20869e-09
1.18219e-11
3.22604e-09
1.14008e-11
3.2426e-09
1.09963e-11
3.25826e-09
1.05032e-11
3.27294e-09
9.95087e-12
3.28658e-09
9.33792e-12
3.29912e-09
8.67209e-12
3.31051e-09
7.96083e-12
3.32071e-09
7.2115e-12
3.32969e-09
6.43195e-12
3.33743e-09
5.62906e-12
3.34392e-09
4.81077e-12
3.34914e-09
3.98416e-12
3.35312e-09
3.15775e-12
2.34383e-12
3.35584e-09
1.61644e-09
2.6157e-12
1.62533e-09
2.51107e-12
1.63389e-09
2.44226e-12
1.64204e-09
2.35408e-12
1.64974e-09
2.24908e-12
1.65695e-09
2.12726e-12
1.66363e-09
1.99073e-12
1.66975e-09
1.84161e-12
1.67528e-09
1.68186e-12
1.6802e-09
1.51363e-12
1.68449e-09
1.33867e-12
1.68814e-09
1.1592e-12
1.69115e-09
9.76823e-13
1.69351e-09
7.94199e-13
6.19325e-13
1.69524e-09
4.60251e-10
4.62762e-10
4.65205e-10
4.67559e-10
4.69808e-10
4.71935e-10
4.73926e-10
4.75767e-10
4.77449e-10
4.78963e-10
4.80302e-10
4.81461e-10
4.82438e-10
4.83232e-10
4.83851e-10
1.16942e-09
-4.98192e-10
3.09815e-10
1.43683e-09
-4.47274e-10
1.79864e-10
1.70393e-09
-3.2979e-10
6.26882e-11
1.96501e-09
-2.0427e-10
-5.6807e-11
2.21888e-09
-7.35876e-11
-1.80281e-10
2.46682e-09
5.85082e-11
-3.06451e-10
2.71091e-09
1.93968e-10
-4.38053e-10
2.95295e-09
3.35809e-10
-5.7785e-10
3.19445e-09
4.87372e-10
-7.28872e-10
3.43658e-09
6.52262e-10
-8.94397e-10
3.68029e-09
8.34481e-10
-1.07819e-09
3.92641e-09
1.03887e-09
-1.28499e-09
4.17588e-09
1.27173e-09
-1.5212e-09
4.42999e-09
1.54065e-09
-1.79476e-09
4.69075e-09
1.8543e-09
-2.11505e-09
4.96095e-09
2.22335e-09
-2.49355e-09
5.24449e-09
2.65844e-09
-2.94198e-09
5.54695e-09
3.16513e-09
-3.46759e-09
5.87567e-09
3.73705e-09
-4.06577e-09
6.23945e-09
4.3424e-09
-4.70619e-09
6.64634e-09
4.88927e-09
-5.29616e-09
7.09861e-09
5.18183e-09
-5.6341e-09
7.51472e-09
4.20238e-09
-4.61849e-09
7.85656e-09
2.6582e-09
-3.00004e-09
8.12095e-09
1.08294e-09
-1.34733e-09
8.30947e-09
-3.87885e-10
1.99364e-10
8.42681e-09
-1.68679e-09
1.56945e-09
8.47912e-09
-2.78477e-09
2.73246e-09
8.47224e-09
-3.66623e-09
3.67312e-09
8.41111e-09
-4.32803e-09
4.38915e-09
8.30016e-09
-4.7764e-09
4.88735e-09
8.14363e-09
-5.02174e-09
5.17827e-09
7.9457e-09
-5.07626e-09
5.27419e-09
7.71051e-09
-4.95364e-09
5.18882e-09
7.44197e-09
-4.66861e-09
4.93715e-09
7.14351e-09
-4.23643e-09
4.5349e-09
6.81783e-09
-3.67167e-09
3.99734e-09
6.46694e-09
-2.98623e-09
3.33713e-09
6.09223e-09
-2.18673e-09
2.56144e-09
5.69408e-09
-1.27223e-09
1.67038e-09
5.2692e-09
-2.39162e-10
6.6404e-10
4.80465e-09
8.97026e-10
-4.32476e-10
4.27693e-09
2.03702e-09
-1.50931e-09
3.68956e-09
2.93107e-09
-2.3437e-09
2.86221e-09
3.34069e-09
-2.51334e-09
2.42768e-09
-5.70036e-10
2.58186e-09
-6.01453e-10
2.79159e-09
-5.39518e-10
3.02553e-09
-4.38211e-10
3.27035e-09
-3.18409e-10
3.51942e-09
-1.90562e-10
3.77068e-09
-5.72942e-11
4.0238e-09
8.26958e-11
4.2791e-09
2.32069e-10
4.53717e-09
3.9419e-10
4.79866e-09
5.7299e-10
5.06431e-09
7.73224e-10
5.33503e-09
1.00102e-09
5.61221e-09
1.26347e-09
5.89804e-09
1.56847e-09
6.19556e-09
1.92583e-09
6.50896e-09
2.34504e-09
6.84421e-09
2.82989e-09
7.20912e-09
3.37214e-09
7.61304e-09
3.93849e-09
8.06444e-09
4.43787e-09
8.56576e-09
4.68051e-09
9.02736e-09
3.74078e-09
9.40766e-09
2.2779e-09
9.70334e-09
7.87265e-10
9.91595e-09
-6.00494e-10
1.00504e-08
-1.8212e-09
1.01132e-08
-2.84766e-09
1.01111e-08
-3.66408e-09
1.00496e-08
-4.26649e-09
9.93382e-09
-4.66068e-09
9.76902e-09
-4.85693e-09
9.56034e-09
-4.86758e-09
9.31312e-09
-4.70642e-09
9.03275e-09
-4.38824e-09
8.72454e-09
-3.92823e-09
8.39383e-09
-3.34095e-09
8.04638e-09
-2.63879e-09
7.68971e-09
-1.83006e-09
7.33492e-09
-9.17438e-10
6.99875e-09
9.70092e-11
6.70402e-09
1.19175e-09
6.4815e-09
2.25954e-09
6.38088e-09
3.03169e-09
2.92933e-09
6.31376e-09
4.2185e-09
-5.78639e-10
4.28107e-09
-6.64018e-10
4.40876e-09
-6.67204e-10
4.58682e-09
-6.16276e-10
4.7959e-09
-5.27486e-10
5.02412e-09
-4.18784e-10
5.26503e-09
-2.98207e-10
5.5152e-09
-1.67474e-10
5.77297e-09
-2.56978e-11
6.0377e-09
1.29464e-10
6.30932e-09
3.01364e-10
6.5882e-09
4.94345e-10
6.87506e-09
7.14157e-10
7.17126e-09
9.67268e-10
7.4791e-09
1.26062e-09
7.80183e-09
1.6031e-09
8.14388e-09
2.003e-09
8.51156e-09
2.46221e-09
8.91314e-09
2.97055e-09
9.35838e-09
3.49325e-09
9.85612e-09
3.94013e-09
1.04088e-08
4.12784e-09
1.09182e-08
3.23134e-09
1.13392e-08
1.85696e-09
1.16681e-08
4.58295e-10
1.19066e-08
-8.3894e-10
1.20595e-08
-1.97413e-09
1.21341e-08
-2.92226e-09
1.21376e-08
-3.6676e-09
1.20766e-08
-4.20541e-09
1.1957e-08
-4.54112e-09
1.17852e-08
-4.68508e-09
1.15675e-08
-4.64991e-09
1.13108e-08
-4.44974e-09
1.10223e-08
-4.09976e-09
1.07097e-08
-3.61562e-09
1.03815e-08
-3.0127e-09
1.00479e-08
-2.30516e-09
9.72296e-09
-1.50516e-09
9.42839e-09
-6.22863e-10
9.19721e-09
3.28183e-10
9.07477e-09
1.3142e-09
9.10264e-09
2.23167e-09
9.27342e-09
2.86091e-09
2.82173e-09
9.38102e-09
6.66723e-09
-5.49434e-10
6.66683e-09
-6.63624e-10
6.71512e-09
-7.15491e-10
6.81835e-09
-7.1951e-10
6.96818e-09
-6.77312e-10
7.15136e-09
-6.01964e-10
7.35983e-09
-5.06682e-10
7.58768e-09
-3.9532e-10
7.83115e-09
-2.69168e-10
8.08808e-09
-1.27462e-10
8.35738e-09
3.20632e-11
8.63877e-09
2.12951e-10
8.9326e-09
4.2033e-10
9.24006e-09
6.59808e-10
9.56353e-09
9.37154e-10
9.90636e-09
1.26026e-09
1.02732e-08
1.6362e-09
1.06706e-08
2.06479e-09
1.11072e-08
2.53389e-09
1.15932e-08
3.00729e-09
1.21375e-08
3.39585e-09
1.27423e-08
3.52302e-09
1.33006e-08
2.67302e-09
1.37633e-08
1.39426e-09
1.41267e-08
9.49467e-11
1.43919e-08
-1.1042e-09
1.45642e-08
-2.14637e-09
1.46512e-08
-3.00924e-09
1.4661e-08
-3.67744e-09
1.46011e-08
-4.14553e-09
1.44787e-08
-4.41876e-09
1.43014e-08
-4.50774e-09
1.4077e-08
-4.42554e-09
1.38142e-08
-4.18693e-09
1.35223e-08
-3.80787e-09
1.32117e-08
-3.30499e-09
1.28942e-08
-2.69525e-09
1.25847e-08
-1.99557e-09
1.23027e-08
-1.22321e-09
1.20767e-08
-3.96847e-10
1.19464e-08
4.58457e-10
1.19599e-08
1.30071e-09
1.21478e-08
2.04382e-09
1.24711e-08
2.53754e-09
2.58405e-09
1.27088e-08
9.94432e-09
-5.0226e-10
9.9017e-09
-6.21004e-10
9.889e-09
-7.02786e-10
9.91831e-09
-7.48825e-10
9.99379e-09
-7.5279e-10
1.0112e-08
-7.20215e-10
1.02658e-08
-6.60455e-10
1.04491e-08
-5.78573e-10
1.06572e-08
-4.77276e-10
1.08869e-08
-3.57186e-10
1.11362e-08
-2.17283e-10
1.14043e-08
-5.50868e-11
1.16909e-08
1.33716e-10
1.19971e-08
3.53634e-10
1.23252e-08
6.08981e-10
1.26789e-08
9.06646e-10
1.30626e-08
1.25244e-09
1.34835e-08
1.64394e-09
1.39504e-08
2.06701e-09
1.44735e-08
2.48414e-09
1.50619e-08
2.8075e-09
1.57171e-08
2.86777e-09
1.63233e-08
2.06684e-09
1.68271e-08
8.90413e-10
1.72246e-08
-3.02474e-10
1.75165e-08
-1.39615e-09
1.7708e-08
-2.33787e-09
1.78074e-08
-3.10864e-09
1.78238e-08
-3.6938e-09
1.77656e-08
-4.0874e-09
1.76416e-08
-4.29469e-09
1.74605e-08
-4.32672e-09
1.72323e-08
-4.19726e-09
1.69673e-08
-3.92199e-09
1.66774e-08
-3.51794e-09
1.63756e-08
-3.00319e-09
1.6077e-08
-2.39671e-09
1.58001e-08
-1.71859e-09
1.55677e-08
-9.90876e-10
1.54099e-08
-2.39007e-10
1.53632e-08
5.05153e-10
1.5465e-08
1.19896e-09
1.5729e-08
1.77973e-09
1.61062e-08
2.16035e-09
2.25207e-09
1.64382e-08
1.42501e-08
-4.48515e-10
1.41857e-08
-5.56667e-10
1.41322e-08
-6.4919e-10
1.4102e-08
-7.18715e-10
1.4107e-08
-7.5778e-10
1.41519e-08
-7.65092e-10
1.42354e-08
-7.43967e-10
1.43546e-08
-6.97723e-10
1.4506e-08
-6.28724e-10
1.46869e-08
-5.38036e-10
1.48951e-08
-4.25471e-10
1.51295e-08
-2.89531e-10
1.53899e-08
-1.26674e-10
1.56772e-08
6.63504e-11
1.5994e-08
2.92118e-10
1.63441e-08
5.56616e-10
1.67321e-08
8.64416e-10
1.71654e-08
1.21063e-09
1.76532e-08
1.57919e-09
1.82058e-08
1.93156e-09
1.88318e-08
2.18149e-09
1.9532e-08
2.16754e-09
2.01818e-08
1.41705e-09
2.07236e-08
3.48681e-10
2.11525e-08
-7.31433e-10
2.14691e-08
-1.71277e-09
2.16783e-08
-2.54702e-09
2.1789e-08
-3.21929e-09
2.18112e-08
-3.71607e-09
2.17549e-08
-4.03104e-09
2.16299e-08
-4.16973e-09
2.14471e-08
-4.14389e-09
2.1218e-08
-3.96815e-09
2.09553e-08
-3.65929e-09
2.0673e-08
-3.23568e-09
2.03868e-08
-2.71696e-09
2.01143e-08
-2.12418e-09
1.98758e-08
-1.48009e-09
1.96948e-08
-8.09919e-10
1.9598e-08
-1.42221e-10
1.96128e-08
4.90394e-10
1.97607e-08
1.05099e-09
2.00418e-08
1.49863e-09
2.04119e-08
1.79032e-09
1.89446e-09
2.07695e-08
1.9824e-08
-3.93506e-10
1.97527e-08
-4.85406e-10
1.96775e-08
-5.73928e-10
1.96095e-08
-6.50767e-10
1.95607e-08
-7.08995e-10
1.954e-08
-7.44358e-10
1.95518e-08
-7.55804e-10
1.95979e-08
-7.43808e-10
1.96783e-08
-7.09104e-10
1.97923e-08
-6.52021e-10
1.99392e-08
-5.724e-10
2.01189e-08
-4.69269e-10
2.03317e-08
-3.39454e-10
2.0579e-08
-1.80965e-10
2.08644e-08
6.79906e-12
2.11917e-08
2.29289e-10
2.15661e-08
4.89965e-10
2.19956e-08
7.81181e-10
2.24897e-08
1.0851e-09
2.30586e-08
1.36259e-09
2.37106e-08
1.52948e-09
2.44452e-08
1.43302e-09
2.51298e-08
7.32427e-10
2.57024e-08
-2.2389e-10
2.61571e-08
-1.18622e-09
2.64938e-08
-2.0494e-09
2.67168e-08
-2.77003e-09
2.68358e-08
-3.3383e-09
2.6862e-08
-3.7423e-09
2.68065e-08
-3.97556e-09
2.6681e-08
-4.04419e-09
2.6498e-08
-3.96089e-09
2.62711e-08
-3.74127e-09
2.60151e-08
-3.40326e-09
2.57459e-08
-2.96656e-09
2.54812e-08
-2.45226e-09
2.52399e-08
-1.88289e-09
2.50425e-08
-1.28262e-09
2.491e-08
-6.77489e-10
2.4863e-08
-9.52267e-11
2.4918e-08
4.3546e-10
2.50822e-08
8.86754e-10
2.53464e-08
1.23448e-09
2.56755e-08
1.46118e-09
1.56124e-09
2.60087e-08
2.69506e-08
-3.37545e-10
2.68784e-08
-4.13293e-10
2.67955e-08
-4.90984e-10
2.67092e-08
-5.64469e-10
2.66283e-08
-6.28129e-10
2.65614e-08
-6.77472e-10
2.65154e-08
-7.09746e-10
2.64951e-08
-7.23548e-10
2.65042e-08
-7.18132e-10
2.65449e-08
-6.92714e-10
2.66191e-08
-6.46664e-10
2.6729e-08
-5.79128e-10
2.68762e-08
-4.86675e-10
2.70637e-08
-3.68516e-10
2.72968e-08
-2.26255e-10
2.75803e-08
-5.42152e-11
2.79201e-08
1.5021e-10
2.83251e-08
3.76141e-10
2.88058e-08
6.04421e-10
2.93724e-08
7.95921e-10
3.00327e-08
8.69203e-10
3.07846e-08
6.81185e-10
3.14895e-08
2.747e-11
3.2081e-08
-8.15383e-10
3.25518e-08
-1.65698e-09
3.29002e-08
-2.39784e-09
3.31304e-08
-3.00022e-09
3.32526e-08
-3.4605e-09
3.32792e-08
-3.76885e-09
3.32224e-08
-3.9188e-09
3.30957e-08
-3.91749e-09
3.29136e-08
-3.7788e-09
3.26916e-08
-3.51925e-09
3.24461e-08
-3.1578e-09
3.21948e-08
-2.71522e-09
3.1956e-08
-2.21346e-09
3.17486e-08
-1.67551e-09
3.15913e-08
-1.12527e-09
3.15009e-08
-5.87147e-10
3.14909e-08
-8.51663e-11
3.15681e-08
3.58219e-10
3.17303e-08
7.24547e-10
3.19636e-08
1.00122e-09
3.22411e-08
1.18363e-09
1.27615e-09
3.25262e-08
3.59615e-08
-2.78048e-10
3.58883e-08
-3.40103e-10
3.58032e-08
-4.05869e-10
3.571e-08
-4.71355e-10
3.56143e-08
-5.32415e-10
3.55222e-08
-5.85327e-10
3.54397e-08
-6.27234e-10
3.53723e-08
-6.56163e-10
3.5325e-08
-6.70822e-10
3.53021e-08
-6.69824e-10
3.53078e-08
-6.52337e-10
3.53464e-08
-6.17782e-10
3.54217e-08
-5.62002e-10
3.55389e-08
-4.85679e-10
3.57057e-08
-3.93096e-10
3.59285e-08
-2.77007e-10
3.62144e-08
-1.35622e-10
3.65743e-08
1.61701e-11
3.702e-08
1.588e-10
3.75621e-08
2.53795e-10
3.82079e-08
2.23348e-10
3.8954e-08
-6.48323e-11
3.96587e-08
-6.77261e-10
4.02518e-08
-1.40849e-09
4.0724e-08
-2.12918e-09
4.10721e-08
-2.7459e-09
4.12994e-08
-3.22761e-09
4.14172e-08
-3.57824e-09
4.14385e-08
-3.79021e-09
4.1377e-08
-3.85722e-09
4.12475e-08
-3.78804e-09
4.10666e-08
-3.59791e-09
4.08514e-08
-3.304e-09
4.06195e-08
-2.9259e-09
4.03891e-08
-2.48489e-09
4.01785e-08
-2.00286e-09
4.0005e-08
-1.50197e-09
3.98839e-08
-1.00416e-09
3.98272e-08
-5.30422e-10
3.98415e-08
-9.94892e-11
3.99274e-08
2.72325e-10
4.00773e-08
5.74591e-10
4.02767e-08
8.01885e-10
4.05049e-08
9.55426e-10
1.04234e-09
4.07387e-08
4.72289e-08
-2.12318e-10
4.71522e-08
-2.63405e-10
4.70649e-08
-3.18546e-10
4.69688e-08
-3.75287e-10
4.68671e-08
-4.30731e-10
4.67638e-08
-4.82033e-10
4.66634e-08
-5.26743e-10
4.65701e-08
-5.62944e-10
4.64887e-08
-5.89423e-10
4.64236e-08
-6.04719e-10
4.63796e-08
-6.08327e-10
4.63624e-08
-6.00516e-10
4.63766e-08
-5.76199e-10
4.64292e-08
-5.38352e-10
4.65309e-08
-4.94798e-10
4.66889e-08
-4.34976e-10
4.6912e-08
-3.58712e-10
4.72135e-08
-2.85348e-10
4.76074e-08
-2.35058e-10
4.81047e-08
-2.43532e-10
4.87127e-08
-3.84687e-10
4.94268e-08
-7.78861e-10
5.01065e-08
-1.357e-09
5.06796e-08
-1.98158e-09
5.11346e-08
-2.58423e-09
5.14664e-08
-3.07768e-09
5.1678e-08
-3.43923e-09
5.17815e-08
-3.6817e-09
5.17906e-08
-3.79931e-09
5.17195e-08
-3.78609e-09
5.15848e-08
-3.65335e-09
5.14046e-08
-3.41777e-09
5.11972e-08
-3.09658e-09
5.09807e-08
-2.70937e-09
5.07729e-08
-2.27708e-09
5.05905e-08
-1.82051e-09
5.04482e-08
-1.35969e-09
5.03574e-08
-9.13347e-10
5.03252e-08
-4.98158e-10
5.03534e-08
-1.27675e-10
5.04382e-08
1.87441e-10
5.05708e-08
4.42082e-10
5.07375e-08
6.35126e-10
5.09229e-08
7.70043e-10
8.53887e-10
5.11113e-08
6.11548e-08
-1.39574e-10
6.10734e-08
-1.82047e-10
6.09833e-08
-2.28435e-10
6.08853e-08
-2.77322e-10
6.07814e-08
-3.26815e-10
6.06742e-08
-3.74872e-10
6.05671e-08
-4.19584e-10
6.04634e-08
-4.59294e-10
6.03671e-08
-4.93045e-10
6.02819e-08
-5.19534e-10
6.02122e-08
-5.38636e-10
6.01635e-08
-5.51794e-10
6.01406e-08
-5.53348e-10
6.01512e-08
-5.48904e-10
6.02062e-08
-5.49873e-10
6.03126e-08
-5.41314e-10
6.04811e-08
-5.2719e-10
6.07274e-08
-5.3169e-10
6.10661e-08
-5.73739e-10
6.15089e-08
-6.86381e-10
6.2063e-08
-9.38736e-10
6.27226e-08
-1.43851e-09
6.33535e-08
-1.98786e-09
6.38844e-08
-2.51244e-09
6.43024e-08
-3.00224e-09
6.46004e-08
-3.37568e-09
6.4782e-08
-3.62089e-09
6.48608e-08
-3.76051e-09
6.48503e-08
-3.78875e-09
6.47646e-08
-3.70044e-09
6.46221e-08
-3.51087e-09
6.44422e-08
-3.23778e-09
6.42431e-08
-2.89754e-09
6.40427e-08
-2.50898e-09
6.38575e-08
-2.09181e-09
6.37016e-08
-1.66465e-09
6.35864e-08
-1.24448e-09
6.35193e-08
-8.46228e-10
6.35033e-08
-4.82215e-10
6.35371e-08
-1.61476e-10
6.36151e-08
1.09503e-10
6.37282e-08
3.28966e-10
6.38652e-08
4.98061e-10
6.40144e-08
6.20838e-10
7.03409e-10
6.41649e-08
7.8169e-08
-6.16827e-11
7.80846e-08
-9.76337e-11
7.79934e-08
-1.37239e-10
7.78959e-08
-1.79782e-10
7.77932e-08
-2.24166e-10
7.76874e-08
-2.69059e-10
7.7581e-08
-3.13174e-10
7.7477e-08
-3.55298e-10
7.73786e-08
-3.94676e-10
7.72897e-08
-4.30618e-10
7.72141e-08
-4.63032e-10
7.71559e-08
-4.9356e-10
7.71218e-08
-5.19317e-10
7.712e-08
-5.47066e-10
7.71533e-08
-5.83209e-10
7.72315e-08
-6.19429e-10
7.73701e-08
-6.65863e-10
7.75818e-08
-7.43407e-10
7.78796e-08
-8.71536e-10
7.8275e-08
-1.08176e-09
7.87737e-08
-1.43746e-09
7.93686e-08
-2.03342e-09
7.99351e-08
-2.5543e-09
8.04072e-08
-2.98458e-09
8.07719e-08
-3.36694e-09
8.1021e-08
-3.62479e-09
8.11609e-08
-3.76074e-09
8.12071e-08
-3.80675e-09
8.11713e-08
-3.75287e-09
8.10675e-08
-3.59667e-09
8.09162e-08
-3.35953e-09
8.07369e-08
-3.05849e-09
8.05472e-08
-2.7079e-09
8.03636e-08
-2.32532e-09
8.02001e-08
-1.92837e-09
8.00682e-08
-1.53272e-09
7.99756e-08
-1.15183e-09
7.99262e-08
-7.9685e-10
7.99202e-08
-4.76252e-10
7.99544e-08
-1.95683e-10
8.00225e-08
4.14567e-11
8.01166e-08
2.34792e-10
8.02277e-08
3.87024e-10
8.03467e-08
5.01852e-10
5.8429e-10
8.04658e-08
9.87542e-08
1.77657e-11
9.86703e-08
-1.36824e-11
9.85816e-08
-4.85947e-11
9.84885e-08
-8.66738e-11
9.83918e-08
-1.2744e-10
9.82929e-08
-1.70195e-10
9.8194e-08
-2.14253e-10
9.80977e-08
-2.58993e-10
9.80069e-08
-3.03908e-10
9.79255e-08
-3.49194e-10
9.78575e-08
-3.94994e-10
9.78063e-08
-4.42358e-10
9.77801e-08
-4.93177e-10
9.77845e-08
-5.51487e-10
9.78162e-08
-6.14903e-10
9.78915e-08
-6.94753e-10
9.80273e-08
-8.01628e-10
9.82305e-08
-9.46554e-10
9.85102e-08
-1.15131e-09
9.88765e-08
-1.44806e-09
9.9332e-08
-1.89296e-09
9.98657e-08
-2.56711e-09
1.00365e-07
-3.0532e-09
1.00772e-07
-3.3922e-09
1.01075e-07
-3.67001e-09
1.01267e-07
-3.81658e-09
1.0136e-07
-3.85401e-09
1.01372e-07
-3.81835e-09
1.01308e-07
-3.68927e-09
1.01186e-07
-3.47454e-09
1.01029e-07
-3.20216e-09
1.00853e-07
-2.88305e-09
1.00676e-07
-2.53023e-09
1.0051e-07
-2.15983e-09
1.00368e-07
-1.78655e-09
1.00258e-07
-1.42266e-09
1.00185e-07
-1.0782e-09
1.00149e-07
-7.60994e-10
1.00149e-07
-4.76609e-10
1.00182e-07
-2.28147e-10
1.00239e-07
-1.58299e-11
1.00317e-07
1.5722e-10
1.00406e-07
2.97726e-10
1.005e-07
4.07489e-10
4.90628e-10
1.00594e-07
1.23489e-07
9.6528e-11
1.23408e-07
6.73677e-11