/*--------------------------------*- C++ -*----------------------------------*\
| =========                 |                                                 |
| \\      /  F ield         | OpenFOAM: The Open Source CFD Toolbox           |
|  \\    /   O peration     | Version:  2312                                  |
|   \\  /    A nd           | Website:  www.openfoam.com                      |
|    \\/     M anipulation  |                                                 |
\*---------------------------------------------------------------------------*/
FoamFile
{
    version     2.0;
    format      ascii;
    arch        "LSB;label=32;scalar=64";
    class       surfaceScalarField;
    location    "8";
    object      phi;
}
// * * * * * * * * * * * * * * * * * * * * * * * * * * * * * * * * * * * * * //

dimensions      [0 3 -1 0 0 0 0];

oriented        oriented;

internalField   nonuniform List<scalar> 
9445
(
5.75215e-10
1.2362e-11
5.67724e-10
7.49047e-12
5.63347e-10
4.37721e-12
5.61101e-10
2.24605e-12
5.60446e-10
6.55221e-13
5.61102e-10
-6.5669e-13
5.62867e-10
-1.76431e-12
5.65677e-10
-2.81022e-12
5.69766e-10
-4.0891e-12
5.7551e-10
-5.7437e-12
5.83991e-10
-8.481e-12
5.98763e-10
-1.47725e-11
6.3231e-10
-3.35472e-11
7.28504e-10
-9.61933e-11
-2.49969e-10
9.78473e-10
2.00808e-09
5.47452e-11
1.98199e-09
3.35763e-11
1.96636e-09
2.00125e-11
1.95788e-09
1.07225e-11
1.95474e-09
3.79891e-12
1.95586e-09
-1.78118e-12
1.96054e-09
-6.43924e-12
1.96865e-09
-1.09264e-11
1.98077e-09
-1.62025e-11
1.99797e-09
-2.29494e-11
2.02308e-09
-3.35846e-11
2.06295e-09
-5.46488e-11
2.13098e-09
-1.01573e-10
2.24006e-09
-2.05274e-10
-3.65372e-10
2.35546e-09
3.96288e-09
1.36523e-10
3.91191e-09
8.45456e-11
3.88075e-09
5.11704e-11
3.86316e-09
2.83118e-11
3.85562e-09
1.13396e-11
3.85597e-09
-2.12426e-12
3.86278e-09
-1.32578e-11
3.87579e-09
-2.39283e-11
3.89563e-09
-3.60484e-11
3.92356e-09
-5.08782e-11
3.96241e-09
-7.24343e-11
4.01686e-09
-1.09097e-10
4.08979e-09
-1.74502e-10
4.16776e-09
-2.83249e-10
-4.11856e-10
4.21425e-09
6.58238e-09
2.68274e-10
6.49913e-09
1.6779e-10
6.44719e-09
1.03108e-10
6.41672e-09
5.87855e-11
6.402e-09
2.60653e-11
6.39947e-09
4.05104e-13
6.40683e-09
-2.06205e-11
6.42314e-09
-4.02399e-11
6.44882e-09
-6.1732e-11
6.48436e-09
-8.64148e-11
6.53088e-09
-1.18956e-10
6.58816e-09
-1.66378e-10
6.64989e-09
-2.36226e-10
6.69631e-09
-3.29676e-10
-4.20725e-10
6.70518e-09
1.00391e-08
4.60665e-10
9.91567e-09
2.91243e-10
9.83697e-09
1.81805e-10
9.78904e-09
1.06714e-10
9.76342e-09
5.16853e-11
9.75499e-09
8.83306e-12
9.76029e-09
-2.59168e-11
9.77717e-09
-5.71155e-11
9.80513e-09
-8.96951e-11
9.84331e-09
-1.246e-10
9.89028e-09
-1.65925e-10
9.94156e-09
-2.1766e-10
9.98683e-09
-2.81492e-10
1.00094e-08
-3.52247e-10
-4.10771e-10
9.99945e-09
1.45367e-08
7.21896e-10
1.43661e-08
4.61917e-10
1.42548e-08
2.93099e-10
1.41845e-08
1.76961e-10
1.41438e-08
9.23675e-11
1.41256e-08
2.70623e-11
1.41251e-08
-2.53647e-11
1.41388e-08
-7.08355e-11
1.41642e-08
-1.15154e-10
1.41992e-08
-1.59508e-10
1.42397e-08
-2.06498e-10
1.42793e-08
-2.57275e-10
1.4308e-08
-3.1016e-10
1.4315e-08
-3.59225e-10
-3.93629e-10
1.42978e-08
2.03077e-08
1.05298e-09
2.00866e-08
6.82985e-10
1.99389e-08
4.40792e-10
1.98424e-08
2.73445e-10
1.97829e-08
1.51944e-10
1.97509e-08
5.90359e-11
1.97402e-08
-1.4703e-11
1.9746e-08
-7.66505e-11
1.97638e-08
-1.32944e-10
1.97897e-08
-1.85335e-10
1.98183e-08
-2.35162e-10
1.98431e-08
-2.82069e-10
1.98566e-08
-3.23695e-10
1.98535e-08
-3.56058e-10
-3.74491e-10
1.98343e-08
2.76057e-08
1.4406e-09
2.73397e-08
9.49005e-10
2.71571e-08
6.23356e-10
2.70338e-08
3.96772e-10
2.69535e-08
2.3224e-10
2.69051e-08
1.07464e-10
2.68808e-08
9.61739e-12
2.68743e-08
-7.01643e-11
2.68797e-08
-1.3837e-10
2.68918e-08
-1.97427e-10
2.6905e-08
-2.48358e-10
2.69137e-08
-2.90832e-10
2.69136e-08
-3.23538e-10
2.69025e-08
-3.44976e-10
-3.54165e-10
2.68822e-08
3.66944e-08
1.84943e-09
3.64034e-08
1.24001e-09
3.61973e-08
8.2944e-10
3.60533e-08
5.40777e-10
3.59551e-08
3.30399e-10
3.58909e-08
1.71682e-10
3.58519e-08
4.86338e-11
3.58308e-08
-4.91045e-11
3.58211e-08
-1.287e-10
3.58171e-08
-1.93413e-10
3.58137e-08
-2.44962e-10
3.5807e-08
-2.84092e-10
3.57946e-08
-3.11143e-10
3.57763e-08
-3.26662e-10
-3.31627e-10
3.57538e-08
4.78398e-08
2.22064e-09
4.75617e-08
1.51812e-09
4.73568e-08
1.03431e-09
4.72083e-08
6.8926e-10
4.71027e-08
4.36003e-10
4.70292e-08
2.4521e-10
4.69792e-08
9.8643e-11
4.69454e-08
-1.52856e-11
4.69216e-08
-1.04957e-10
4.69026e-08
-1.74443e-10
4.68845e-08
-2.26854e-10
4.68648e-08
-2.64367e-10
4.68425e-08
-2.8883e-10
4.6818e-08
-3.02167e-10
-3.06316e-10
4.67927e-08
6.13297e-08
2.48782e-09
6.11133e-08
1.73449e-09
6.09451e-08
1.2025e-09
6.08178e-08
8.16571e-10
6.07232e-08
5.30586e-10
6.06536e-08
3.14811e-10
6.06022e-08
1.50089e-10
6.05629e-08
2.39547e-11
6.0531e-08
-7.30207e-11
6.05026e-08
-1.45995e-10
6.04751e-08
-1.99374e-10
6.04473e-08
-2.3663e-10
6.04192e-08
-2.6067e-10
6.03912e-08
-2.74184e-10
-2.79523e-10
6.03644e-08
7.7541e-08
2.61324e-09
7.7423e-08
1.85249e-09
7.73229e-08
1.30262e-09
7.72423e-08
8.97155e-10
7.71791e-08
5.93801e-10
7.71295e-08
3.64384e-10
7.70896e-08
1.89975e-10
7.7056e-08
5.75815e-11
7.70255e-08
-4.25096e-11
7.69964e-08
-1.16895e-10
7.69676e-08
-1.70588e-10
7.69389e-08
-2.07975e-10
7.69108e-08
-2.32531e-10
7.68839e-08
-2.47256e-10
-2.54598e-10
7.68589e-08
9.7031e-08
2.61717e-09
9.70087e-08
1.8748e-09
9.69817e-08
1.32957e-09
9.6956e-08
9.22908e-10
9.6933e-08
6.168e-10
9.69122e-08
3.85165e-10
9.68924e-08
2.09724e-10
9.68727e-08
7.73671e-11
9.68518e-08
-2.16986e-11
9.683e-08
-9.50675e-11
9.68073e-08
-1.47907e-10
9.67844e-08
-1.85038e-10
9.6762e-08
-2.10107e-10
9.67409e-08
-2.2613e-10
-2.35473e-10
9.67217e-08
1.20536e-07
2.55744e-09
1.2057e-07
1.84087e-09
1.2059e-07
1.3099e-09
1.20601e-07
9.11643e-10
1.20606e-07
6.11341e-10
1.20607e-07
3.84516e-10
1.20603e-07
2.13422e-10
1.20596e-07
8.49543e-11
1.20585e-07
-1.07283e-11
1.20572e-07
-8.17335e-11
1.20557e-07
-1.33096e-10
1.20541e-07
-1.69726e-10
1.20527e-07
-1.9522e-10
1.20513e-07
-2.12453e-10
-2.23632e-10
1.20501e-07
1.48785e-07
2.47457e-09
1.48839e-07
1.78782e-09
1.48873e-07
1.27563e-09
1.48894e-07
8.90035e-10
1.48907e-07
5.99081e-10
1.48912e-07
3.79621e-10
1.48911e-07
2.14392e-10
1.48905e-07
9.04274e-11
1.48896e-07
-1.56861e-12
1.48885e-07
-7.08468e-11
1.48873e-07
-1.21226e-10
1.48861e-07
-1.57928e-10
1.48851e-07
-1.8435e-10
1.48841e-07
-2.03167e-10
-2.16402e-10
1.48834e-07
1.82251e-07
2.37117e-09
1.82315e-07
1.72387e-09
1.82353e-07
1.23773e-09
1.82373e-07
8.69818e-10
1.82381e-07
5.91285e-10
1.8238e-07
3.80671e-10
1.82373e-07
2.21694e-10
1.82361e-07
1.01942e-10
1.82347e-07
1.21074e-11
1.82332e-07
-5.59942e-11
1.82318e-07
-1.06636e-10
1.82304e-07
-1.44441e-10
1.82293e-07
-1.72654e-10
1.82283e-07
-1.93758e-10
-2.09599e-10
1.82277e-07
2.21011e-07
2.23514e-09
2.21094e-07
1.64066e-09
2.21141e-07
1.19055e-09
2.21164e-07
8.47238e-10
2.21169e-07
5.85515e-10
2.21164e-07
3.86154e-10
2.21151e-07
2.34417e-10
2.21134e-07
1.18944e-10
2.21115e-07
3.11335e-11
2.21096e-07
-3.64392e-11
2.21077e-07
-8.8143e-11
2.2106e-07
-1.27763e-10
2.21046e-07
-1.58388e-10
2.21035e-07
-1.8232e-10
-2.01242e-10
2.21026e-07
2.6462e-07
2.06129e-09
2.64729e-07
1.5324e-09
2.64791e-07
1.12792e-09
2.64822e-07
8.1617e-10
2.64832e-07
5.76025e-10
2.64827e-07
3.90953e-10
2.64813e-07
2.48177e-10
2.64794e-07
1.37814e-10
2.64773e-07
5.24359e-11
2.64751e-07
-1.40297e-11
2.6473e-07
-6.75602e-11
2.64712e-07
-1.09263e-10
2.64696e-07
-1.42581e-10
2.64683e-07
-1.69622e-10
-1.91846e-10
2.64674e-07
3.11746e-07
1.85044e-09
3.11881e-07
1.3974e-09
3.11963e-07
1.04632e-09
3.12007e-07
7.72141e-10
3.12025e-07
5.58045e-10
3.12025e-07
3.90556e-10
3.12014e-07
2.59138e-10
3.11997e-07
1.55481e-10
3.11976e-07
7.32398e-11
3.11954e-07
8.03044e-12
3.11933e-07
-4.64285e-11
3.11914e-07
-9.04376e-11
3.11898e-07
-1.2667e-10
3.11885e-07
-1.57003e-10
-1.82667e-10
3.11876e-07
3.59509e-07
1.5987e-09
3.59677e-07
1.22945e-09
3.59785e-07
9.38002e-10
3.59851e-07
7.06501e-10
3.59886e-07
5.22579e-10
3.59901e-07
3.76023e-10
3.59901e-07
2.58685e-10
3.59893e-07
1.64149e-10
3.59879e-07
8.73959e-11
3.59862e-07
2.45478e-11
3.59844e-07
-2.82714e-11
3.59826e-07
-7.28596e-11
3.5981e-07
-1.10603e-10
3.59796e-07
-1.43073e-10
-1.71405e-10
3.59785e-07
3.5727e-07
1.35025e-09
3.57442e-07
1.05774e-09
3.57558e-07
8.21789e-10
3.57634e-07
6.30857e-10
3.5768e-07
4.76266e-10
3.57706e-07
3.50567e-10
3.57717e-07
2.47679e-10
3.57718e-07
1.62793e-10
3.57713e-07
9.22424e-11
3.57704e-07
3.3442e-11
3.57693e-07
-1.68649e-11
3.57682e-07
-6.17127e-11
3.57671e-07
-9.99545e-11
3.57661e-07
-1.33622e-10
-1.63644e-10
3.57654e-07
3.06148e-07
1.1279e-09
3.06305e-07
9.00806e-10
3.06413e-07
7.13052e-10
3.06486e-07
5.58252e-10
3.06532e-07
4.30466e-10
3.06558e-07
3.24435e-10
3.0657e-07
2.35806e-10
3.06572e-07
1.61067e-10
3.06566e-07
9.73876e-11
3.06557e-07
4.23604e-11
3.06547e-07
-6.10349e-12
3.06533e-07
-4.83837e-11
3.0652e-07
-8.64132e-11
3.06507e-07
-1.20517e-10
-1.51393e-10
3.06494e-07
2.56612e-07
9.38081e-10
2.56752e-07
7.60439e-10
2.56855e-07
6.10573e-10
2.56928e-07
4.84886e-10
2.56979e-07
3.7924e-10
2.57014e-07
2.89916e-10
2.57036e-07
2.13771e-10
2.57049e-07
1.4822e-10
2.57055e-07
9.11647e-11
2.57056e-07
4.09364e-11
2.57054e-07
-3.56228e-12
2.57049e-07
-4.35946e-11
2.57042e-07
-7.97898e-11
2.57035e-07
-1.12835e-10
-1.43171e-10
2.57026e-07
2.11633e-07
7.76085e-10
2.11757e-07
6.37017e-10
2.11849e-07
5.17756e-10
2.11918e-07
4.16013e-10
2.11968e-07
3.28974e-10
2.12004e-07
2.54037e-10
2.12029e-07
1.88974e-10
2.12045e-07
1.31942e-10
2.12055e-07
8.14515e-11
2.1206e-07
3.63271e-11
2.12061e-07
-4.31081e-12
2.12058e-07
-4.1364e-11
2.12054e-07
-7.52893e-11
2.12048e-07
-1.06599e-10
-1.35625e-10
2.1204e-07
1.72181e-07
6.36789e-10
1.7229e-07
5.2809e-10
1.72374e-07
4.33539e-10
1.72439e-07
3.51558e-10
1.72487e-07
2.80222e-10
1.72524e-07
2.17735e-10
1.7255e-07
1.62558e-10
1.72569e-07
1.13398e-10
1.72581e-07
6.92163e-11
1.72588e-07
2.91476e-11
1.72591e-07
-7.49881e-12
1.72591e-07
-4.11529e-11
1.72588e-07
-7.23605e-11
1.72583e-07
-1.01395e-10
-1.28492e-10
1.72576e-07
1.38441e-07
5.16418e-10
1.38537e-07
4.3172e-10
1.38613e-07
3.57084e-10
1.38674e-07
2.91376e-10
1.38721e-07
2.33263e-10
1.38757e-07
1.8153e-10
1.38784e-07
1.35135e-10
1.38804e-07
9.31883e-11
1.38819e-07
5.49597e-11
1.38828e-07
1.98322e-11
1.38833e-07
-1.26035e-11
1.38835e-07
-4.26682e-11
1.38833e-07
-7.07839e-11
1.38829e-07
-9.71031e-11
-1.21776e-10
1.38822e-07
1.10136e-07
4.11983e-10
1.10222e-07
3.46351e-10
1.10291e-07
2.87811e-10
1.10347e-07
2.35522e-10
1.10391e-07
1.8856e-10
1.10427e-07
1.46132e-10
1.10454e-07
1.07544e-10
1.10475e-07
7.22127e-11
1.10491e-07
3.96017e-11
1.10501e-07
9.2823e-12
1.10508e-07
-1.88155e-11
1.1051e-07
-4.51635e-11
1.10509e-07
-6.99202e-11
1.10505e-07
-9.31896e-11
-1.15065e-10
1.10499e-07
8.67518e-08
3.21641e-10
8.68269e-08
2.71249e-10
8.68889e-08
2.25787e-10
8.69398e-08
1.84608e-10
8.69813e-08
1.47092e-10
8.70146e-08
1.12749e-10
8.70411e-08
8.1124e-11
8.70614e-08
5.18478e-11
8.70765e-08
2.45768e-11
8.70869e-08
-1.1185e-12
8.70929e-08
-2.48697e-11
8.70952e-08
-4.74255e-11
8.70939e-08
-6.86549e-11
8.70894e-08
-8.86568e-11
-1.07481e-10
8.70818e-08
6.76683e-08
2.44629e-10
6.7733e-08
2.06465e-10
6.77872e-08
1.71657e-10
6.78321e-08
1.39697e-10
6.7869e-08
1.10202e-10
6.78988e-08
8.28842e-11
6.79225e-08
5.74681e-11
6.79406e-08
3.36974e-11
6.79539e-08
1.13442e-11
6.79624e-08
-9.6845e-12
6.7967e-08
-2.94402e-11
6.79677e-08
-4.81464e-11
6.79649e-08
-6.58137e-11
6.79587e-08
-8.24756e-11
-9.81462e-11
6.79494e-08
5.22514e-08
1.8065e-10
5.23056e-08
1.52273e-10
5.23512e-08
1.26114e-10
5.23891e-08
1.01775e-10
5.24202e-08
7.90571e-11
5.24453e-08
5.78019e-11
5.24649e-08
3.78502e-11
5.24796e-08
1.90467e-11
5.24897e-08
1.21197e-12
5.24956e-08
-1.55425e-11
5.24976e-08
-3.1449e-11
5.24959e-08
-4.64935e-11
5.24908e-08
-6.07151e-11
5.24825e-08
-7.41233e-11
-8.6709e-11
5.2471e-08
3.99036e-08
1.29203e-10
3.99473e-08
1.08581e-10
3.9984e-08
8.93655e-11
4.00146e-08
7.12602e-11
4.00394e-08
5.41974e-11
4.00591e-08
3.80948e-11
4.00741e-08
2.28619e-11
4.00848e-08
8.40866e-12
4.00913e-08
-5.32548e-12
4.00941e-08
-1.83255e-11
4.00933e-08
-3.06734e-11
4.00892e-08
-4.23649e-11
4.00819e-08
-5.34112e-11
4.00716e-08
-6.38095e-11
-7.35415e-11
4.00584e-08
3.00905e-08
8.92624e-11
3.01244e-08
7.46789e-11
3.01529e-08
6.09469e-11
3.01763e-08
4.78581e-11
3.0195e-08
3.54261e-11
3.02095e-08
2.36051e-11
3.022e-08
1.23524e-11
3.02268e-08
1.6224e-12
3.02301e-08
-8.59808e-12
3.02301e-08
-1.83213e-11
3.0227e-08
-2.75564e-11
3.02209e-08
-3.63026e-11
3.02121e-08
-4.45568e-11
3.02006e-08
-5.23081e-11
-5.95363e-11
3.01865e-08
2.23502e-08
5.93263e-11
2.23755e-08
4.93421e-11
2.23966e-08
3.98525e-11
2.24137e-08
3.07176e-11
2.24272e-08
2.19888e-11
2.24371e-08
1.36327e-11
2.24439e-08
5.63815e-12
2.24475e-08
-2.0044e-12
2.24482e-08
-9.31987e-12
2.24462e-08
-1.62902e-11
2.24415e-08
-2.29128e-11
2.24344e-08
-2.91816e-11
2.24249e-08
-3.50889e-11
2.24132e-08
-4.06197e-11
-4.57558e-11
2.23995e-08
1.62911e-08
3.7656e-11
1.63093e-08
3.10862e-11
1.63244e-08
2.48026e-11
1.63364e-08
1.87074e-11
1.63455e-08
1.28576e-11
1.6352e-08
7.22178e-12
1.63558e-08
1.80896e-12
1.63571e-08
-3.37202e-12
1.63562e-08
-8.36052e-12
1.6353e-08
-1.31144e-11
1.63477e-08
-1.76314e-11
1.63405e-08
-2.19031e-11
1.63313e-08
-2.59218e-11
1.63203e-08
-2.9672e-11
-3.31381e-11
1.63077e-08
1.15863e-08
2.2526e-11
1.1599e-08
1.84183e-11
1.16093e-08
1.44906e-11
1.16174e-08
1.06616e-11
1.16232e-08
6.97493e-12
1.16271e-08
3.40134e-12
1.16289e-08
-4.29213e-14
1.16289e-08
-3.33764e-12
1.16271e-08
-6.53452e-12
1.16235e-08
-9.57737e-12
1.16184e-08
-1.24681e-11
1.16117e-08
-1.51989e-11
1.16035e-08
-1.77638e-11
1.1594e-08
-2.0149e-11
-2.2341e-11
1.15832e-08
7.96528e-09
1.23931e-11
7.9737e-09
1.00004e-11
7.98045e-09
7.74222e-12
7.98558e-09
5.53615e-12
7.98914e-09
3.40625e-12
7.99122e-09
1.32824e-12
7.99185e-09
-6.79904e-13
7.99112e-09
-2.59932e-12
7.98906e-09
-4.47873e-12
7.98574e-09
-6.26056e-12
7.98123e-09
-7.95596e-12
7.97559e-09
-9.555e-12
7.96888e-09
-1.10548e-11
7.96117e-09
-1.24444e-11
-1.37117e-11
7.95254e-09
5.20579e-09
5.97401e-12
5.21107e-09
4.72302e-12
5.21523e-09
3.58675e-12
5.21829e-09
2.47762e-12
5.22029e-09
1.40327e-12
5.22127e-09
3.48301e-13
5.22127e-09
-6.78634e-13
5.22032e-09
-1.65548e-12
5.21846e-09
-2.61717e-12
5.21573e-09
-3.53127e-12
5.21218e-09
-4.40037e-12
5.20784e-09
-5.21862e-12
5.20277e-09
-5.98553e-12
5.19702e-09
-6.69293e-12
-7.33008e-12
5.19064e-09
3.12681e-09
2.25289e-12
3.12982e-09
1.71304e-12
3.13214e-09
1.26646e-12
3.13379e-09
8.31999e-13
3.13478e-09
4.08056e-13
3.13514e-09
-1.24247e-14
3.13489e-09
-4.22831e-13
3.13405e-09
-8.14538e-13
3.13263e-09
-1.20007e-12
3.13066e-09
-1.56815e-12
3.12818e-09
-1.91757e-12
3.12521e-09
-2.24624e-12
3.12178e-09
-2.55401e-12
3.11792e-09
-2.83592e-12
-3.08263e-12
3.11367e-09
1.58176e-09
4.53285e-13
1.58317e-09
3.04431e-13
1.58423e-09
2.10478e-13
1.58494e-09
1.19443e-13
1.58532e-09
2.79432e-14
1.58537e-09
-6.37318e-14
1.5851e-09
-1.55476e-13
1.58453e-09
-2.4199e-13
1.58366e-09
-3.2773e-13
1.5825e-09
-4.0947e-13
1.58107e-09
-4.86788e-13
1.57938e-09
-5.59971e-13
1.57746e-09
-6.27649e-13
1.57531e-09
-6.88757e-13
-7.36324e-13
1.57296e-09
4.52767e-10
4.53072e-10
4.53282e-10
4.53402e-10
4.5343e-10
4.53366e-10
4.5321e-10
4.52968e-10
4.52641e-10
4.52231e-10
4.51744e-10
4.51184e-10
4.50557e-10
4.49868e-10
4.49132e-10
1.1699e-09
-4.85084e-10
2.93661e-10
1.4437e-09
-4.21096e-10
1.47292e-10
1.71951e-09
-2.91188e-10
1.53732e-11
1.99103e-09
-1.57124e-10
-1.14391e-10
2.25652e-09
-2.41268e-11
-2.41359e-10
2.51677e-09
1.00538e-10
-3.60794e-10
2.77322e-09
2.15667e-10
-4.72115e-10
3.02707e-09
3.20509e-10
-5.74363e-10
3.27935e-09
4.14369e-10
-6.66646e-10
3.53085e-09
4.96717e-10
-7.48215e-10
3.7822e-09
5.67155e-10
-8.18504e-10
4.03392e-09
6.25675e-10
-8.774e-10
4.28652e-09
6.73072e-10
-9.25673e-10
4.5406e-09
7.11611e-10
-9.65687e-10
4.79701e-09
7.46022e-10
-1.00243e-09
5.05717e-09
7.84943e-10
-1.0451e-09
5.32339e-09
8.42437e-10
-1.10866e-09
5.59948e-09
9.39848e-10
-1.21593e-09
5.89111e-09
1.10362e-09
-1.39525e-09
6.20606e-09
1.36134e-09
-1.67629e-09
6.5527e-09
1.71464e-09
-2.06128e-09
6.93583e-09
2.10812e-09
-2.49125e-09
7.29074e-09
2.00759e-09
-2.3625e-09
7.586e-09
1.51633e-09
-1.81159e-09
7.81786e-09
8.58221e-10
-1.09008e-09
7.98692e-09
1.27741e-10
-2.968e-10
8.09623e-09
-6.03243e-10
4.93932e-10
8.14948e-09
-1.28817e-09
1.23492e-09
8.15002e-09
-1.89693e-09
1.89639e-09
8.10073e-09
-2.40832e-09
2.45762e-09
8.00427e-09
-2.80563e-09
2.90209e-09
7.86347e-09
-3.07552e-09
3.21632e-09
7.68145e-09
-3.20854e-09
3.39056e-09
7.46163e-09
-3.20001e-09
3.41983e-09
7.20749e-09
-3.0502e-09
3.30434e-09
6.92232e-09
-2.7636e-09
3.04877e-09
6.60892e-09
-2.34717e-09
2.66057e-09
6.26968e-09
-1.80771e-09
2.14694e-09
5.90673e-09
-1.14844e-09
1.51139e-09
5.52139e-09
-3.67062e-10
7.52402e-10
5.11082e-09
5.37975e-10
-1.27404e-10
4.6627e-09
1.54283e-09
-1.09471e-09
4.15392e-09
2.53393e-09
-2.02515e-09
3.58716e-09
3.24839e-09
-2.68163e-09
2.98369e-09
3.24466e-09
-2.64119e-09
2.43146e-09
-5.61083e-10
2.59377e-09
-5.834e-10
2.81431e-09
-5.11733e-10
3.06084e-09
-4.03656e-10
3.31965e-09
-2.82929e-10
3.5836e-09
-1.63412e-10
3.84984e-09
-5.05765e-11
4.1173e-09
5.30457e-11
4.38571e-09
1.45958e-10
4.65512e-09
2.27305e-10
4.92572e-09
2.96561e-10
5.19774e-09
3.53652e-10
5.47152e-09
3.99297e-10
5.74752e-09
4.35604e-10
6.02655e-09
4.66996e-10
6.30997e-09
5.01523e-10
6.60012e-09
5.52291e-10
6.90088e-09
6.39085e-10
7.21816e-09
7.86342e-10
7.56009e-09
1.0194e-09
7.93561e-09
1.33912e-09
8.35016e-09
1.69357e-09
8.73474e-09
1.62302e-09
9.0559e-09
1.19516e-09
9.30959e-09
6.04533e-10
9.49614e-09
-5.88079e-11
9.61848e-09
-7.25587e-10
9.68035e-09
-1.35003e-09
9.68524e-09
-1.90183e-09
9.63637e-09
-2.35944e-09
9.53685e-09
-2.70612e-09
9.39015e-09
-2.92881e-09
9.2002e-09
-3.01859e-09
8.97147e-09
-2.97128e-09
8.7088e-09
-2.78753e-09
8.41727e-09
-2.47207e-09
8.10219e-09
-2.0321e-09
7.76961e-09
-1.47512e-09
7.42753e-09
-8.06361e-10
7.08779e-09
-2.73224e-11
6.7669e-09
8.58868e-10
6.48667e-09
1.82305e-09
6.27441e-09
2.74619e-09
6.17284e-09
3.34996e-09
3.06913e-09
6.0874e-09
4.22876e-09
-5.75591e-10
4.30045e-09
-6.55097e-10
4.44087e-09
-6.52147e-10
4.63354e-09
-5.96331e-10
4.859e-09
-5.08387e-10
5.10487e-09
-4.09285e-10
5.36366e-09
-3.09362e-10
5.63106e-09
-2.14353e-10
5.90464e-09
-1.27628e-10
6.18306e-09
-5.11122e-11
6.46556e-09
1.40601e-11
6.75177e-09
6.74425e-11
7.04158e-09
1.09484e-10
7.33518e-09
1.4201e-10
7.63312e-09
1.69052e-10
7.93664e-09
1.98006e-10
8.24797e-09
2.4096e-10
8.57099e-09
3.1606e-10
8.91171e-09
4.45628e-10
9.27851e-09
6.52597e-10
9.68079e-09
9.36845e-10
1.01246e-08
1.24977e-09
1.0537e-08
1.21056e-09
1.08829e-08
8.49317e-10
1.11577e-08
3.29755e-10
1.13614e-08
-2.62496e-10
1.14967e-08
-8.60901e-10
1.15673e-08
-1.42066e-09
1.15769e-08
-1.91143e-09
1.1529e-08
-2.31156e-09
1.14273e-08
-2.60445e-09
1.12761e-08
-2.77757e-09
1.10802e-08
-2.82273e-09
1.08455e-08
-2.73656e-09
1.05785e-08
-2.52048e-09
1.02864e-08
-2.17997e-09
9.97758e-09
-1.7233e-09
9.66243e-09
-1.15998e-09
9.35539e-09
-4.99316e-10
9.07815e-09
2.49911e-10
8.8635e-09
1.07352e-09
8.7538e-09
1.93275e-09
8.78444e-09
2.71555e-09
8.93922e-09
3.19518e-09
2.99499e-09
9.01336e-09
6.68447e-09
-5.54879e-10
6.69485e-09
-6.65479e-10
6.75715e-09
-7.1444e-10
6.87724e-09
-7.16428e-10
7.04592e-09
-6.77063e-10
7.24977e-09
-6.13133e-10
7.47923e-09
-5.38822e-10
7.72749e-09
-4.62613e-10
7.98986e-09
-3.89998e-10
8.26321e-09
-3.24462e-10
8.54548e-09
-2.68211e-10
8.83534e-09
-2.22418e-10
9.13199e-09
-1.87162e-10
9.43508e-09
-1.6108e-10
9.74478e-09
-1.40657e-10
1.0062e-08
-1.19243e-10
1.03888e-08
-8.58472e-11
1.07289e-08
-2.40402e-11
1.10883e-08
8.62817e-11
1.14754e-08
2.65508e-10
1.18999e-08
5.12342e-10
1.23683e-08
7.81295e-10
1.28048e-08
7.7412e-10
1.31723e-08
4.81807e-10
1.34659e-08
3.61087e-11
1.36852e-08
-4.81753e-10
1.38325e-08
-1.00815e-09
1.39113e-08
-1.49946e-09
1.39254e-08
-1.92558e-09
1.38788e-08
-2.26497e-09
1.37758e-08
-2.50147e-09
1.36216e-08
-2.62333e-09
1.34223e-08
-2.6234e-09
1.31851e-08
-2.49944e-09
1.29187e-08
-2.25403e-09
1.26327e-08
-1.89399e-09
1.23388e-08
-1.4294e-09
1.20516e-08
-8.72731e-10
1.17908e-08
-2.38525e-10
1.15846e-08
4.56095e-10
1.14721e-08
1.186e-09
1.1498e-08
1.90681e-09
1.16865e-08
2.5271e-09
1.19902e-08
2.89153e-09
2.80166e-09
1.21835e-08
9.9634e-09
-5.18833e-10
9.93491e-09
-6.36984e-10
9.93855e-09
-7.18083e-10
9.9859e-09
-7.63775e-10
1.00833e-08
-7.74503e-10
1.02256e-08
-7.55372e-10
1.04036e-08
-7.1688e-10
1.06108e-08
-6.69783e-10
1.08413e-08
-6.20471e-10
1.10906e-08
-5.73754e-10
1.13554e-08
-5.33002e-10
1.16333e-08
-5.00316e-10
1.19226e-08
-4.76507e-10
1.22224e-08
-4.60847e-10
1.25322e-08
-4.50476e-10
1.28525e-08
-4.39591e-10
1.31851e-08
-4.18387e-10
1.35333e-08
-3.72216e-10
1.39028e-08
-2.83281e-10
1.43022e-08
-1.33836e-10
1.4741e-08
7.34618e-11
1.52263e-08
2.96027e-10
1.56799e-08
3.2049e-10
1.60637e-08
9.80875e-11
1.63719e-08
-2.72109e-10
1.66034e-08
-7.13281e-10
1.67601e-08
-1.16489e-09
1.68454e-08
-1.58476e-09
1.68632e-08
-1.94332e-09
1.68177e-08
-2.21949e-09
1.67141e-08
-2.39783e-09
1.65585e-08
-2.46772e-09
1.63584e-08
-2.42335e-09
1.61229e-08
-2.26395e-09
1.58626e-08
-1.99367e-09
1.55896e-08
-1.62108e-09
1.53188e-08
-1.15857e-09
1.5068e-08
-6.21916e-10
1.48601e-08
-3.06118e-11
1.47244e-08
5.91817e-10
1.46967e-08
1.21365e-09
1.48117e-08
1.79181e-09
1.5078e-08
2.26084e-09
1.54389e-08
2.53056e-09
2.51353e-09
1.57271e-08
1.42584e-08
-4.7942e-10
1.42109e-08
-5.89438e-10
1.41771e-08
-6.84308e-10
1.41695e-08
-7.56199e-10
1.41995e-08
-8.04447e-10
1.42707e-08
-8.26569e-10
1.43822e-08
-8.2843e-10
1.45292e-08
-8.16713e-10
1.47068e-08
-7.98117e-10
1.49108e-08
-7.77713e-10
1.51373e-08
-7.59503e-10
1.53833e-08
-7.46318e-10
1.56464e-08
-7.39675e-10
1.59251e-08
-7.39529e-10
1.62184e-08
-7.43746e-10
1.65262e-08
-7.47437e-10
1.68499e-08
-7.4204e-10
1.71924e-08
-7.14729e-10
1.75592e-08
-6.50064e-10
1.79583e-08
-5.32985e-10
1.83994e-08
-3.67646e-10
1.88894e-08
-1.93914e-10
1.93497e-08
-1.39786e-10
1.97409e-08
-2.93185e-10
2.00567e-08
-5.87849e-10
2.02948e-08
-9.51414e-10
2.04566e-08
-1.32669e-09
2.05451e-08
-1.67325e-09
2.05642e-08
-1.96245e-09
2.05187e-08
-2.174e-09
2.04145e-08
-2.29361e-09
2.02589e-08
-2.31208e-09
2.00608e-08
-2.22528e-09
1.98311e-08
-2.03421e-09
1.95822e-08
-1.74483e-09
1.93289e-08
-1.36774e-09
1.9088e-08
-9.17632e-10
1.88791e-08
-4.13101e-10
1.87253e-08
1.23225e-10
1.86525e-08
6.6458e-10
1.86873e-08
1.17891e-09
1.88493e-08
1.62976e-09
1.9135e-08
1.97519e-09
1.94947e-08
2.17087e-09
2.18571e-09
1.98225e-08
1.97975e-08
-4.42587e-10
1.97467e-08
-5.3863e-10
1.96946e-08
-6.32163e-10
1.96536e-08
-7.15263e-10
1.96336e-08
-7.84477e-10
1.96431e-08
-8.36047e-10
1.96866e-08
-8.71919e-10
1.97645e-08
-8.94579e-10
1.98751e-08
-9.08757e-10
2.0016e-08
-9.18628e-10
2.01845e-08
-9.27918e-10
2.03777e-08
-9.39578e-10
2.05935e-08
-9.55472e-10
2.083e-08
-9.76042e-10
2.10861e-08
-9.99789e-10
2.13613e-08
-1.02268e-09
2.16567e-08
-1.0374e-09
2.19748e-08
-1.03289e-09
2.23208e-08
-9.96061e-10
2.27023e-08
-9.1448e-10
2.31285e-08
-7.93846e-10
2.3606e-08
-6.71412e-10
2.40579e-08
-5.91709e-10
2.44443e-08
-6.79502e-10
2.47571e-08
-9.00675e-10
2.49932e-08
-1.18751e-09
2.5153e-08
-1.48655e-09
2.52393e-08
-1.75947e-09
2.52558e-08
-1.97899e-09
2.52078e-08
-2.12604e-09
2.51021e-08
-2.18786e-09
2.49471e-08
-2.15705e-09
2.47532e-08
-2.03138e-09
2.45328e-08
-1.81383e-09
2.43002e-08
-1.51227e-09
2.40716e-08
-1.13915e-09
2.3865e-08
-7.10993e-10
2.36999e-08
-2.47959e-10
2.35966e-08
2.26515e-10
2.35749e-08
6.86283e-10
2.36503e-08
1.10351e-09
2.38291e-08
1.45095e-09
2.40999e-08
1.70432e-09
2.44251e-08
1.84568e-09
1.86935e-09
2.47415e-08
2.68489e-08
-4.09308e-10
2.68016e-08
-4.91376e-10
2.67461e-08
-5.7665e-10
2.66905e-08
-6.59631e-10
2.66424e-08
-7.36396e-10
2.66102e-08
-8.03866e-10
2.65999e-08
-8.61556e-10
2.66155e-08
-9.10155e-10
2.66588e-08
-9.52056e-10
2.67301e-08
-9.90023e-10
2.68291e-08
-1.02684e-09
2.69544e-08
-1.06494e-09
2.7105e-08
-1.10602e-09
2.72796e-08
-1.15063e-09
2.74774e-08
-1.19762e-09
2.76983e-08
-1.24363e-09
2.79434e-08
-1.28244e-09
2.82151e-08
-1.30461e-09
2.85183e-08
-1.29929e-09
2.88603e-08
-1.25648e-09
2.92498e-08
-1.18332e-09
2.96928e-08
-1.11442e-09
3.01168e-08
-1.01571e-09
3.04816e-08
-1.04427e-09
3.07774e-08
-1.19648e-09
3.09995e-08
-1.40964e-09
3.11475e-08
-1.63451e-09
3.12234e-08
-1.8354e-09
3.12312e-08
-1.98681e-09
3.11766e-08
-2.07139e-09
3.1067e-08
-2.07827e-09
3.0912e-08
-2.00211e-09
3.07235e-08
-1.84282e-09
3.0515e-08
-1.60531e-09
3.03019e-08
-1.2992e-09
3.0101e-08
-9.38296e-10
2.993e-08
-5.39934e-10
2.98063e-08
-1.24244e-10
2.97459e-08
2.86838e-10
2.97615e-08
6.70674e-10
2.98593e-08
1.0058e-09
3.00362e-08
1.27405e-09
3.02776e-08
1.46292e-09
3.05557e-08
1.56756e-09
1.5921e-09
3.08329e-08
3.57222e-08
-3.77784e-10
3.5679e-08
-4.48181e-10
3.56262e-08
-5.23823e-10
3.55679e-08
-6.01339e-10
3.55092e-08
-6.77696e-10
3.54559e-08
-7.50539e-10
3.54131e-08
-8.18754e-10
3.53853e-08
-8.82379e-10
3.53758e-08
-9.42553e-10
3.53868e-08
-1.00102e-09
3.54197e-08
-1.05973e-09
3.54753e-08
-1.12049e-09
3.55538e-08
-1.18458e-09
3.56556e-08
-1.2524e-09
3.57809e-08
-1.32292e-09
3.59305e-08
-1.3932e-09
3.61059e-08
-1.45789e-09
3.63103e-08
-1.50896e-09
3.65485e-08
-1.53756e-09
3.68279e-08
-1.53581e-09
3.71565e-08
-1.51199e-09
3.754e-08
-1.49787e-09
3.79132e-08
-1.38895e-09
3.82366e-08
-1.3677e-09
3.84982e-08
-1.45804e-09
3.86915e-08
-1.6029e-09
3.88149e-08
-1.75794e-09
3.88701e-08
-1.89061e-09
3.8861e-08
-1.97771e-09
3.87936e-08
-2.00403e-09
3.86763e-08
-1.96093e-09
3.85196e-08
-1.84535e-09
3.8336e-08
-1.6593e-09
3.81402e-08
-1.40944e-09
3.79476e-08
-1.10666e-09
3.77746e-08
-7.65292e-10
3.7637e-08
-4.02283e-10
3.75489e-08
-3.6141e-11
3.75213e-08
3.14367e-10
3.75605e-08
6.31495e-10
3.76661e-08
9.00236e-10
3.78303e-08
1.10979e-09
3.80384e-08
1.25482e-09
3.82698e-08
1.33624e-09
1.36071e-09
3.85011e-08
4.67612e-08
-3.46328e-10
4.67206e-08
-4.07516e-10
4.66712e-08
-4.74431e-10
4.6615e-08
-5.45168e-10
4.6555e-08
-6.17678e-10
4.64947e-08
-6.90219e-10
4.64377e-08
-7.61734e-10
4.63873e-08
-8.3201e-10
4.63464e-08
-9.01657e-10
4.63173e-08
-9.71895e-10
4.63018e-08
-1.04423e-09
4.63014e-08
-1.12013e-09
4.63175e-08
-1.20069e-09
4.63513e-08
-1.28624e-09
4.64043e-08
-1.37592e-09
4.64783e-08
-1.46717e-09
4.65759e-08
-1.55547e-09
4.67009e-08
-1.634e-09
4.68591e-08
-1.6957e-09
4.70577e-08
-1.73447e-09
4.7305e-08
-1.75922e-09
4.76058e-08
-1.79868e-09
4.79059e-08
-1.68914e-09
4.81678e-08
-1.62957e-09
4.8377e-08
-1.66722e-09
4.85253e-08
-1.7512e-09
4.86102e-08
-1.84284e-09
4.86329e-08
-1.91334e-09
4.85974e-08
-1.94223e-09
4.85102e-08
-1.91679e-09
4.83801e-08
-1.83085e-09
4.82184e-08
-1.68365e-09
4.80382e-08
-1.47909e-09
4.78539e-08
-1.22516e-09
4.76805e-08
-9.33272e-10
4.75326e-08
-6.17332e-10
4.74231e-08
-2.92751e-10
4.73622e-08
2.47478e-11
4.73562e-08
3.20317e-10
4.74065e-08
5.81195e-10
4.7509e-08
7.97764e-10
4.76544e-08
9.64367e-10
4.78295e-08
1.07969e-09
4.8019e-08
1.14674e-09
1.17194e-09
4.82078e-08
6.03334e-08
-3.15297e-10
6.02951e-08
-3.69265e-10
6.02495e-08
-4.28852e-10
6.01975e-08
-4.93095e-10
6.01405e-08
-5.60748e-10
6.00809e-08
-6.30616e-10
6.00211e-08
-7.01851e-10
5.99632e-08
-7.74142e-10
5.99093e-08
-8.47788e-10
5.98611e-08
-9.23632e-10
5.98197e-08
-1.00287e-09
5.97863e-08
-1.08678e-09
5.97621e-08
-1.17642e-09
5.97481e-08
-1.27227e-09
5.9746e-08
-1.37382e-09
5.9758e-08
-1.47911e-09
5.97871e-08
-1.58459e-09
5.98378e-08
-1.68473e-09
5.99163e-08
-1.77417e-09
6.00303e-08
-1.84845e-09
6.01876e-08
-1.9165e-09
6.03929e-08
-2.004e-09
6.06051e-08
-1.90133e-09
6.07903e-08
-1.81474e-09
6.09324e-08
-1.80936e-09
6.1022e-08
-1.84085e-09
6.10562e-08
-1.87699e-09
6.1036e-08
-1.89318e-09
6.09657e-08
-1.87191e-09
6.08521e-08
-1.80317e-09
6.07046e-08
-1.68335e-09
6.05347e-08
-1.51377e-09
6.03554e-08
-1.29981e-09
6.01804e-08
-1.05012e-09
6.00229e-08
-7.75791e-10
5.9895e-08
-4.89431e-10
5.98063e-08
-2.0407e-10
5.97632e-08
6.78692e-11
5.97681e-08
3.15423e-10
5.98192e-08
5.30087e-10
5.99107e-08
7.06209e-10
6.00338e-08
8.41337e-10
6.01773e-08
9.36143e-10
6.033e-08
9.94063e-10
1.02048e-09
6.04815e-08
7.68311e-08
-2.87423e-10
7.67976e-08
-3.35788e-10
7.67582e-08
-3.89438e-10
7.67131e-08
-4.47993e-10
7.66631e-08
-5.10814e-10
7.66097e-08
-5.7719e-10
7.65544e-08
-6.46542e-10
7.64988e-08
-7.18588e-10
7.64445e-08
-7.93444e-10
7.63925e-08
-8.71637e-10
7.63437e-08
-9.54033e-10
7.62985e-08
-1.04164e-09
7.62575e-08
-1.13542e-09
7.62211e-08
-1.2359e-09
7.61903e-08
-1.34294e-09
7.61664e-08
-1.45522e-09
7.6152e-08
-1.57025e-09
7.61512e-08
-1.68393e-09
7.61696e-08
-1.79252e-09
7.62145e-08
-1.89335e-09
7.62927e-08
-1.9947e-09
7.64083e-08
-2.11964e-09
7.65329e-08
-2.02593e-09
7.66384e-08
-1.9202e-09
7.67084e-08
-1.8794e-09
7.67335e-08
-1.8659e-09
7.67111e-08
-1.85465e-09
7.66431e-08
-1.8252e-09
7.65341e-08
-1.76288e-09
7.63914e-08
-1.66047e-09
7.62247e-08
-1.51669e-09
7.60455e-08
-1.33455e-09
7.58659e-08
-1.12024e-09
7.56981e-08
-8.82293e-10
7.55531e-08
-6.30727e-10
7.54398e-08
-3.76174e-10
7.53647e-08
-1.28949e-10
7.53308e-08
1.01783e-10
7.53378e-08
3.08379e-10
7.53823e-08
4.85591e-10
7.54581e-08
6.304e-10
7.55573e-08
7.4216e-10
7.56711e-08
8.22328e-10
7.57911e-08
8.74084e-10
9.01676e-10
7.59099e-08
9.67006e-08
-2.6629e-10
9.66753e-08
-3.10467e-10
9.66454e-08
-3.59523e-10
9.66108e-08
-4.13428e-10
9.65719e-08
-4.71959e-10
9.65295e-08
-5.34796e-10
9.64846e-08
-6.01647e-10
9.64384e-08
-6.72349e-10
9.63919e-08
-7.46971e-10
9.63461e-08
-8.2584e-10
9.63017e-08
-9.09548e-10
9.62588e-08
-9.98813e-10
9.62178e-08
-1.09438e-09
9.61786e-08
-1.1967e-09
9.61415e-08
-1.30582e-09
9.61071e-08
-1.42084e-09
9.6077e-08
-1.54013e-09
9.60539e-08
-1.66086e-09
9.6042e-08
-1.78062e-09
9.60472e-08
-1.89852e-09
9.60739e-08
-2.02138e-09
9.61246e-08
-2.17043e-09
9.61801e-08
-2.08134e-09
9.6219e-08
-1.95912e-09
9.62258e-08
-1.88618e-09
9.61922e-08
-1.83236e-09
9.61185e-08
-1.78094e-09
9.60075e-08
-1.71422e-09
9.58644e-08
-1.61977e-09
9.56971e-08
-1.49317e-09
9.55155e-08
-1.33509e-09
9.53305e-08
-1.14951e-09
9.51529e-08
-9.42664e-10
9.49929e-08
-7.22253e-10
9.48588e-08
-4.96639e-10
9.47568e-08
-2.74139e-10