/*--------------------------------*- C++ -*----------------------------------*\
| =========                 |                                                 |
| \\      /  F ield         | OpenFOAM: The Open Source CFD Toolbox           |
|  \\    /   O peration     | Version:  2312                                  |
|   \\  /    A nd           | Website:  www.openfoam.com                      |
|    \\/     M anipulation  |                                                 |
\*---------------------------------------------------------------------------*/
FoamFile
{
    version     2.0;
    format      ascii;
    arch        "LSB;label=32;scalar=64";
    class       volVectorField;
    location    "8";
    object      U;
}
// * * * * * * * * * * * * * * * * * * * * * * * * * * * * * * * * * * * * * //

dimensions      [0 1 -1 0 0 0 0];

internalField   nonuniform List<vector> 
4800
(
(0.000463493 3.12684e-07 -2.67742e-26)
(0.00045584 3.42963e-07 -1.88203e-25)
(0.000451234 3.54415e-07 2.41555e-25)
(0.000448659 3.44937e-07 1.10503e-25)
(0.000447511 3.27092e-07 1.6321e-24)
(0.000447541 2.94692e-07 -3.88721e-24)
(0.000448494 2.552e-07 3.6414e-24)
(0.000450281 1.78697e-07 -5.28677e-24)
(0.00045298 2.26161e-08 1.69497e-24)
(0.000456775 -2.4235e-07 5.78502e-24)
(0.00046207 -7.54597e-07 -1.78267e-24)
(0.00047015 -2.16026e-06 -1.50918e-25)
(0.000488227 -7.33494e-06 -2.17557e-24)
(0.000534168 -2.82276e-05 1.01227e-24)
(0.000610111 -9.17589e-05 -8.04836e-25)
(0.00143318 1.63191e-06 -8.5184e-26)
(0.00140978 1.18018e-06 1.06171e-25)
(0.00139546 8.19589e-07 -9.79014e-25)
(0.00138719 4.92901e-07 7.31528e-25)
(0.00138316 1.76039e-07 2.35067e-24)
(0.00138259 -1.6864e-07 -3.73233e-24)
(0.00138465 -5.64398e-07 -1.0665e-24)
(0.0013891 -1.09081e-06 -2.55537e-25)
(0.00139618 -1.91751e-06 8.78346e-24)
(0.00140629 -3.24512e-06 -6.49024e-24)
(0.00142064 -5.71418e-06 7.06481e-25)
(0.00144197 -1.15672e-05 1.07772e-24)
(0.00147915 -2.84551e-05 -1.59437e-24)
(0.00154285 -7.98499e-05 -4.83077e-25)
(0.00161146 -0.000195605 2.08578e-24)
(0.00250506 5.24848e-06 -6.09858e-26)
(0.00246478 3.78857e-06 6.23162e-26)
(0.00243978 2.65454e-06 6.40824e-25)
(0.00242496 1.66964e-06 -1.5283e-24)
(0.0024173 6.92606e-07 1.50042e-24)
(0.00241536 -3.74008e-07 1.39902e-24)
(0.00241774 -1.60861e-06 -3.61509e-24)
(0.00242393 -3.23884e-06 -2.26883e-24)
(0.00243433 -5.62904e-06 5.44851e-24)
(0.0024492 -9.327e-06 2.05546e-24)
(0.00246992 -1.58299e-05 -7.14646e-24)
(0.00249865 -2.912e-05 -1.08476e-24)
(0.00253953 -5.87215e-05 3.0533e-24)
(0.00259134 -0.000123899 4.83341e-24)
(0.00262899 -0.000232164 -2.49729e-24)
(0.00368513 1.17449e-05 2.25458e-26)
(0.00362715 8.58488e-06 -1.56994e-25)
(0.00359064 6.1392e-06 7.00257e-25)
(0.00356844 4.02973e-06 7.49847e-25)
(0.00355633 1.95605e-06 -7.44433e-25)
(0.00355202 -3.05989e-07 -4.22995e-24)
(0.00355383 -2.80147e-06 -2.86422e-24)
(0.00356049 -6.11504e-06 1.09556e-23)
(0.00357265 -1.086e-05 4.57081e-24)
(0.00358995 -1.78559e-05 -6.56348e-24)
(0.00361322 -2.92593e-05 -2.64481e-24)
(0.00364287 -4.96056e-05 -2.01863e-24)
(0.00367819 -8.68802e-05 6.03843e-26)
(0.003712 -0.000151021 1.49312e-24)
(0.00372609 -0.000237019 7.29829e-27)
(0.00497724 2.17493e-05 -4.13774e-26)
(0.00490148 1.60603e-05 -2.53074e-25)
(0.00485301 1.16658e-05 -1.60189e-25)
(0.00482278 7.89509e-06 4.32781e-25)
(0.00480544 4.24724e-06 -1.23158e-24)
(0.00479771 4.05023e-07 3.07381e-24)
(0.00479787 -4.03586e-06 -5.36302e-25)
(0.00480368 -9.38378e-06 1.88745e-24)
(0.00481567 -1.69761e-05 -1.05824e-23)
(0.00483278 -2.75999e-05 2.0091e-23)
(0.00485485 -4.35229e-05 -1.94403e-23)
(0.00488059 -6.84767e-05 1.02612e-23)
(0.00490664 -0.000107289 -9.52389e-24)
(0.00492534 -0.000162998 8.98483e-24)
(0.00492633 -0.000228018 -3.58285e-24)
(0.00638149 3.59668e-05 5.46702e-26)
(0.00628924 2.68399e-05 1.95722e-25)
(0.00622917 1.97958e-05 -1.03288e-24)
(0.00619074 1.37815e-05 -6.5438e-25)
(0.00616766 8.06369e-06 1.75488e-24)
(0.0061558 2.09712e-06 6.30191e-25)
(0.00615294 -4.51361e-06 -4.92611e-24)
(0.00615676 -1.24701e-05 1.1762e-23)
(0.00616663 -2.30092e-05 -1.53333e-23)
(0.00618114 -3.70375e-05 3.67563e-24)
(0.00619912 -5.63771e-05 1.11909e-23)
(0.00621831 -8.33088e-05 -1.55479e-23)
(0.00623485 -0.000119716 7.78592e-24)
(0.00624303 -0.00016506 7.98031e-24)
(0.00623813 -0.000213123 -6.07463e-24)
(0.00789209 5.49035e-05 4.52094e-26)
(0.00778686 4.14572e-05 -2.67411e-25)
(0.00771699 3.10633e-05 9.57819e-25)
(0.00767115 2.22212e-05 -1.32902e-24)
(0.00764242 1.39464e-05 -4.51866e-24)
(0.00762613 5.45993e-06 7.70396e-24)
(0.00761948 -3.71641e-06 -4.68059e-24)
(0.00762005 -1.44271e-05 1.59411e-23)
(0.00762634 -2.77841e-05 -1.08415e-23)
(0.0076365 -4.46027e-05 -5.07006e-24)
(0.00764874 -6.59982e-05 -9.97766e-24)
(0.00766058 -9.28729e-05 9.1734e-24)
(0.00766887 -0.000125209 2.5805e-24)
(0.00767016 -0.000161218 2.20721e-24)
(0.0076629 -0.00019674 -1.94213e-24)
(0.00949505 7.84594e-05 -6.51532e-26)
(0.00938355 6.00451e-05 8.84862e-25)
(0.00930783 4.573e-05 -2.06018e-24)
(0.00925688 3.35659e-05 -1.68811e-24)
(0.00922371 2.23203e-05 6.31008e-25)
(0.00920348 1.10302e-05 1.24289e-24)
(0.009193 -9.39426e-07 4.46607e-24)
(0.00918971 -1.43555e-05 -1.21729e-23)
(0.00919162 -3.01801e-05 -6.50149e-24)
(0.00919661 -4.89629e-05 1.78816e-23)
(0.0092027 -7.11391e-05 -5.54462e-24)
(0.00920766 -9.66671e-05 1.8959e-23)
(0.00920942 -0.000124685 -9.98088e-24)
(0.00920611 -0.000153393 -3.1802e-24)
(0.00919774 -0.000180274 1.88279e-24)
(0.0111671 0.000105389 -8.61219e-27)
(0.0110597 8.19078e-05 4.89088e-25)
(0.0109848 6.3436e-05 -6.96467e-25)
(0.010933 4.76929e-05 1.66987e-24)
(0.0108981 3.32502e-05 -9.96114e-24)
(0.0108756 1.90343e-05 1.05185e-23)
(0.0108623 4.30466e-06 -1.65859e-23)
(0.0108556 -1.15995e-05 1.01947e-23)
(0.0108533 -2.93745e-05 7.58602e-24)
(0.0108534 -4.92798e-05 1.6473e-23)
(0.010854 -7.12632e-05 -2.15154e-23)
(0.0108534 -9.48221e-05 -3.97902e-24)
(0.0108504 -0.000118949 1.8376e-24)
(0.010844 -0.000142293 1.31131e-23)
(0.010835 -0.000163427 -5.33237e-24)
(0.0128788 0.000132791 4.71304e-26)
(0.0127881 0.000105035 -2.05165e-25)
(0.0127227 8.2757e-05 9.17941e-25)
(0.0126763 6.35988e-05 -3.22007e-24)
(0.012644 4.60655e-05 4.88236e-24)
(0.0126223 2.90694e-05 -6.30607e-24)
(0.0126084 1.18639e-05 1.05595e-23)
(0.0125998 -6.09545e-06 1.85294e-24)
(0.0125946 -2.52022e-05 -1.45588e-23)
(0.0125912 -4.54901e-05 2.07346e-23)
(0.0125879 -6.66585e-05 -2.28666e-23)
(0.0125835 -8.81032e-05 -6.7292e-24)
(0.0125776 -0.000108995 1.18696e-23)
(0.0125696 -0.000128475 3.519e-24)
(0.0125603 -0.000145787 -1.53687e-24)
(0.0146041 0.000156247 1.87365e-25)
(0.0145412 0.000125961 -1.59448e-24)
(0.0144939 0.000100945 -2.56785e-24)
(0.0144593 7.90872e-05 6.08553e-24)
(0.0144347 5.90148e-05 2.72256e-24)
(0.0144176 3.9744e-05 -1.71001e-23)
(0.014406 2.06273e-05 5.26728e-24)
(0.0143981 1.25638e-06 3.79404e-24)
(0.0143924 -1.8508e-05 -1.64082e-23)
(0.0143875 -3.85692e-05 1.70919e-23)
(0.0143825 -5.85717e-05 -1.36725e-23)
(0.0143766 -7.80063e-05 3.51222e-23)
(0.0143696 -9.63055e-05 -1.68785e-23)
(0.0143613 -0.000112993 9.93128e-24)
(0.0143525 -0.000127708 -2.70933e-24)
(0.0163365 0.000171552 -6.90774e-26)
(0.0163043 0.000140785 1.07454e-24)
(0.016279 0.000114524 -2.11216e-24)
(0.0162601 9.11019e-05 -1.07627e-24)
(0.0162466 6.94241e-05 1.202e-23)
(0.0162372 4.87167e-05 -1.74401e-24)
(0.0162307 2.8499e-05 -2.13819e-23)
(0.0162259 8.52659e-06 2.49413e-23)
(0.0162219 -1.12079e-05 -5.60409e-24)
(0.0162179 -3.05466e-05 -1.9389e-23)
(0.0162134 -4.91873e-05 2.06793e-23)
(0.0162079 -6.67831e-05 1.11433e-23)
(0.0162017 -8.30009e-05 -9.37603e-24)
(0.0161945 -9.76191e-05 -1.62267e-23)
(0.016187 -0.000110498 1.36135e-24)
(0.0180959 0.000177771 -2.67341e-27)
(0.0180866 0.000147685 -1.19371e-24)
(0.0180793 0.000121298 5.72404e-24)
(0.0180743 9.73411e-05 3.7063e-25)
(0.0180713 7.50075e-05 3.28334e-24)
(0.0180697 5.376e-05 -1.17351e-23)
(0.0180689 3.32899e-05 1.0031e-23)
(0.0180681 1.34875e-05 2.2852e-24)
(0.0180671 -5.60893e-06 2.06271e-23)
(0.0180653 -2.38492e-05 -3.18674e-23)
(0.0180626 -4.1026e-05 -1.44206e-23)
(0.0180589 -5.69455e-05 -9.52642e-24)
(0.0180546 -7.14467e-05 1.79405e-23)
(0.0180492 -8.44616e-05 -5.15674e-25)
(0.0180438 -9.597e-05 1.73784e-24)
(0.0199086 0.000178256 -1.78051e-26)
(0.0199097 0.000148754 1.21321e-24)
(0.0199113 0.00012247 -1.76945e-24)
(0.0199138 9.83933e-05 -8.33655e-28)
(0.0199167 7.59241e-05 2.36982e-24)
(0.0199197 5.47002e-05 6.04413e-24)
(0.0199224 3.45358e-05 -2.34391e-23)
(0.0199243 1.53759e-05 1.9754e-24)
(0.0199254 -2.73948e-06 1.19219e-23)
(0.0199254 -1.97279e-05 -5.48934e-24)
(0.0199245 -3.54823e-05 1.49894e-23)
(0.0199225 -4.99274e-05 1.04893e-23)
(0.0199199 -6.30174e-05 -1.9034e-23)
(0.0199164 -7.477e-05 1.30139e-23)
(0.0199128 -8.52266e-05 -1.08183e-23)
(0.0217694 0.000177105 -5.28388e-25)
(0.0217727 0.000147878 2.78741e-25)
(0.0217763 0.000121571 2.10146e-24)
(0.0217803 9.74075e-05 -1.09304e-23)
(0.0217843 7.49471e-05 9.63814e-24)
(0.021788 5.39425e-05 -7.06492e-24)
(0.0217912 3.42653e-05 5.06348e-24)
(0.0217935 1.5865e-05 -3.6011e-23)
(0.021795 -1.26659e-06 5.19769e-23)
(0.0217954 -1.71162e-05 -3.06326e-23)
(0.021795 -3.16691e-05 2.7364e-23)
(0.0217938 -4.49382e-05 2.28825e-23)
(0.021792 -5.69502e-05 -3.99766e-23)
(0.0217895 -6.77694e-05 1.30053e-23)
(0.021787 -7.74661e-05 -5.46312e-25)
(0.0236227 0.000175511 -1.87254e-26)
(0.0236269 0.000146861 -1.5623e-25)
(0.0236307 0.00012078 1.17514e-25)
(0.0236343 9.67716e-05 -3.01143e-25)
(0.0236376 7.45428e-05 3.9251e-24)
(0.0236405 5.393e-05 -6.75491e-24)
(0.0236428 3.48315e-05 6.29356e-24)
(0.0236442 1.71809e-05 -1.99516e-23)
(0.023645 9.20941e-07 4.54321e-23)
(0.0236449 -1.3995e-05 -5.81929e-23)
(0.0236443 -2.76219e-05 4.76959e-23)
(0.0236429 -4.00277e-05 -1.61126e-23)
(0.0236413 -5.12804e-05 8.37475e-25)
(0.0236389 -6.14666e-05 3.69549e-24)
(0.0236367 -7.06683e-05 -7.09002e-24)
(0.0253768 0.000172401 -1.54982e-24)
(0.0253829 0.000145021 2.79499e-24)
(0.0253876 0.00011978 -9.44471e-25)
(0.0253913 9.64544e-05 -1.50952e-24)
(0.0253943 7.48927e-05 6.17202e-24)
(0.0253966 5.49885e-05 -6.29064e-24)
(0.0253982 3.66581e-05 -5.69154e-24)
(0.0253991 1.98179e-05 -1.37744e-23)
(0.0253993 4.38569e-06 7.0113e-24)
(0.0253989 -9.72824e-06 3.35415e-23)
(0.0253979 -2.26161e-05 -1.77203e-23)
(0.0253964 -3.43708e-05 1.05763e-23)
(0.0253946 -4.50775e-05 -4.35309e-24)
(0.0253924 -5.48297e-05 -1.29073e-23)
(0.0253902 -6.37103e-05 6.60817e-24)
(0.0269159 0.000166707 5.08784e-25)
(0.0269241 0.000141306 -8.83864e-25)
(0.02693 0.000117574 -2.67454e-25)
(0.0269344 9.55214e-05 -7.15051e-25)
(0.0269377 7.5112e-05 -1.838e-24)
(0.02694 5.62826e-05 9.52182e-24)
(0.0269415 3.89596e-05 -7.67218e-24)
(0.0269423 2.30516e-05 -4.95917e-24)
(0.0269425 8.46471e-06 4.54258e-24)
(0.0269419 -4.90331e-06 -5.36643e-24)
(0.026941 -1.71476e-05 1.25054e-23)
(0.0269395 -2.83666e-05 6.34992e-24)
(0.0269379 -3.86494e-05 -2.3701e-23)
(0.0269358 -4.80862e-05 1.63792e-23)
(0.0269338 -5.67521e-05 -3.34132e-24)
(0.0280899 0.000158249 1.50306e-24)
(0.0280998 0.000135383 2.53666e-24)
(0.0281069 0.000113732 -5.64957e-24)
(0.0281121 9.34703e-05 -3.04761e-25)
(0.0281159 7.46455e-05 1.30576e-24)
(0.0281186 5.72271e-05 -2.88902e-24)
(0.0281204 4.1157e-05 -4.62162e-24)
(0.0281214 2.63442e-05 1.00009e-23)
(0.0281217 1.27004e-05 1.11899e-23)
(0.0281214 1.2149e-07 -2.71818e-23)
(0.0281207 -1.14777e-05 1.56817e-23)
(0.0281196 -2.21904e-05 -1.09696e-24)
(0.0281182 -3.20966e-05 -9.15031e-25)
(0.0281165 -4.12734e-05 1.23435e-24)
(0.0281147 -4.97822e-05 -5.697e-25)
(0.0286961 0.000145637 -3.94042e-24)
(0.0287076 0.00012574 -8.4772e-24)
(0.0287162 0.00010665 4.56589e-24)
(0.0287227 8.86271e-05 1.54433e-23)
(0.0287275 7.17673e-05 -4.31012e-24)
(0.0287312 5.60711e-05 -1.20729e-24)
(0.0287338 4.14963e-05 5.59484e-25)
(0.0287355 2.79711e-05 -4.46471e-24)
(0.0287366 1.54212e-05 1.2114e-23)
(0.0287369 3.76336e-06 -5.35678e-24)
(0.0287368 -7.07557e-06 3.222e-24)
(0.0287361 -1.71729e-05 -5.09166e-24)
(0.0287349 -2.6589e-05 -5.83818e-24)
(0.0287335 -3.53844e-05 8.74696e-24)
(0.0287317 -4.36059e-05 -3.82512e-24)
(0.0285174 0.000131564 6.24379e-24)
(0.0285295 0.000114613 -1.43442e-23)
(0.0285388 9.81396e-05 2.35077e-24)
(0.028546 8.24293e-05 2.06804e-23)
(0.0285516 6.75982e-05 -2.00519e-23)
(0.0285559 5.36687e-05 6.97054e-24)
(0.0285591 4.06121e-05 4.49027e-24)
(0.0285615 2.83796e-05 -1.01118e-23)
(0.0285631 1.69144e-05 2.37001e-24)
(0.0285641 6.1648e-06 1.12418e-24)
(0.0285644 -3.91801e-06 -1.00983e-24)
(0.0285643 -1.33719e-05 2.13109e-24)
(0.0285636 -2.22387e-05 -2.61732e-24)
(0.0285627 -3.05693e-05 1.77892e-24)
(0.0285613 -3.84044e-05 -8.26036e-25)
(0.027585 0.000116254 3.87252e-24)
(0.0275979 0.000102006 -8.16754e-24)
(0.0276079 8.80283e-05 -5.61826e-24)
(0.0276157 7.458e-05 2.63997e-23)
(0.0276216 6.17756e-05 -2.42222e-23)
(0.0276261 4.96421e-05 2.58897e-24)
(0.0276294 3.81656e-05 4.04313e-24)
(0.0276317 2.73121e-05 2.16912e-24)
(0.0276331 1.70475e-05 1.68738e-24)
(0.0276338 7.33767e-06 -7.68387e-24)
(0.0276339 -1.84205e-06 4.94125e-24)
(0.0276335 -1.05227e-05 7.3329e-25)
(0.0276325 -1.87341e-05 -1.64835e-24)
(0.0276313 -2.65084e-05 9.09381e-25)
(0.0276295 -3.38692e-05 5.91064e-25)
(0.0261005 0.000101002 9.6323e-24)
(0.0261137 8.91139e-05 -1.71013e-23)
(0.0261243 7.73666e-05 3.49195e-24)
(0.0261329 6.59794e-05 -8.28082e-24)
(0.0261397 5.50509e-05 -1.06883e-23)
(0.0261451 4.46091e-05 3.62716e-23)
(0.0261494 3.46512e-05 -1.39953e-23)
(0.0261526 2.51591e-05 3.89882e-24)
(0.0261549 1.61146e-05 -2.13153e-24)
(0.0261565 7.49452e-06 -4.93592e-24)
(0.0261574 -7.23919e-07 8.97063e-24)
(0.0261577 -8.57285e-06 -4.40609e-24)
(0.0261573 -1.60642e-05 6.90599e-25)
(0.0261566 -2.32075e-05 2.22589e-25)
(0.0261552 -3.00079e-05 2.19703e-26)
(0.0242988 8.77478e-05 3.70863e-24)
(0.024312 7.77877e-05 -1.91588e-23)
(0.0243229 6.78722e-05 3.32117e-23)
(0.0243318 5.81803e-05 -2.53265e-23)
(0.0243391 4.87944e-05 2.52416e-23)
(0.024345 3.97453e-05 -8.39332e-24)
(0.0243496 3.10381e-05 -5.77781e-24)
(0.0243533 2.26693e-05 -6.24558e-24)
(0.024356 1.46288e-05 1.07824e-23)
(0.0243579 6.90684e-06 -6.14159e-25)
(0.024359 -5.09543e-07 -9.99392e-24)
(0.0243595 -7.62435e-06 -1.06703e-24)
(0.0243593 -1.44407e-05 1.92913e-24)
(0.0243587 -2.09621e-05 -3.26345e-25)
(0.0243574 -2.71877e-05 4.74812e-26)
(0.0223157 7.54969e-05 4.9358e-25)
(0.022329 6.7147e-05 -7.21043e-24)
(0.0223402 5.87739e-05 -4.0228e-24)
(0.0223495 5.05192e-05 3.28853e-23)
(0.0223573 4.24545e-05 -3.23039e-23)
(0.0223636 3.4613e-05 9.43264e-24)
(0.0223687 2.70103e-05 1.58572e-24)
(0.0223727 1.96525e-05 -8.27133e-25)
(0.0223758 1.25422e-05 -3.83624e-24)
(0.022378 5.67867e-06 1.64711e-23)
(0.0223794 -9.35447e-07 -1.30495e-23)
(0.0223801 -7.29928e-06 -5.1168e-25)
(0.0223801 -1.34104e-05 1.05163e-24)
(0.0223795 -1.92679e-05 6.83968e-25)
(0.0223783 -2.48676e-05 -5.06673e-25)
(0.020254 6.41126e-05 7.34684e-25)
(0.0202675 5.71047e-05 6.70169e-24)
(0.020279 5.00371e-05 -7.69048e-24)
(0.0202887 4.30209e-05 -5.3156e-24)
(0.0202969 3.6117e-05 3.37937e-23)
(0.0203037 2.93594e-05 -2.58452e-23)
(0.0203092 2.27706e-05 -5.95898e-25)
(0.0203137 1.6363e-05 -5.30668e-24)
(0.0203171 1.01468e-05 -4.03084e-25)
(0.0203197 4.1258e-06 7.76069e-25)
(0.0203214 -1.68949e-06 -2.69347e-24)
(0.0203223 -7.29853e-06 2.30049e-24)
(0.0203224 -1.26956e-05 8.29296e-25)
(0.0203219 -1.78754e-05 7.03439e-25)
(0.0203207 -2.28309e-05 6.26925e-25)
(0.0181884 5.35293e-05 5.23675e-24)
(0.0182021 4.76512e-05 -8.02931e-24)
(0.0182139 4.17038e-05 -6.44057e-24)
(0.0182241 3.57715e-05 1.96422e-23)
(0.0182327 2.99026e-05 -7.03536e-24)
(0.0182399 2.41303e-05 -9.87546e-24)
(0.0182459 1.84789e-05 3.45674e-24)
(0.0182507 1.29645e-05 7.68353e-24)
(0.0182545 7.59914e-06 -1.21705e-23)
(0.0182573 2.38912e-06 1.19888e-23)
(0.0182592 -2.65415e-06 -6.33297e-24)
(0.0182603 -7.52732e-06 2.65752e-24)
(0.0182605 -1.22208e-05 -3.2952e-24)
(0.0182601 -1.67266e-05 3.16482e-24)
(0.0182588 -2.10357e-05 -7.12662e-25)
(0.0161718 4.37078e-05 -1.01647e-24)
(0.0161856 3.88037e-05 -3.52687e-24)
(0.0161976 3.3838e-05 -1.12351e-23)
(0.016208 2.88698e-05 3.13657e-23)
(0.0162169 2.39347e-05 -5.62662e-24)
(0.0162244 1.90653e-05 -8.83217e-24)
(0.0162306 1.4283e-05 3.04855e-24)
(0.0162357 9.60839e-06 -4.42309e-24)
(0.0162396 5.04668e-06 -9.49286e-24)
(0.0162426 6.20905e-07 9.14681e-24)
(0.0162445 -3.67816e-06 4.37134e-25)
(0.0162456 -7.83539e-06 -2.8165e-24)
(0.0162457 -1.18365e-05 3.21687e-24)
(0.0162451 -1.56731e-05 1.75711e-25)
(0.0162436 -1.93362e-05 -2.25731e-25)
(0.014239 3.47246e-05 3.91171e-24)
(0.0142526 3.06827e-05 5.75294e-24)
(0.0142645 2.65946e-05 -5.36526e-24)
(0.0142749 2.24949e-05 -1.17118e-23)
(0.0142837 1.84116e-05 1.57571e-23)
(0.0142912 1.43745e-05 -1.72383e-23)
(0.0142974 1.0404e-05 -6.61128e-25)
(0.0143024 6.5172e-06 6.6747e-24)
(0.0143062 2.72175e-06 2.31933e-24)
(0.014309 -9.64255e-07 -4.76188e-24)
(0.0143107 -4.54491e-06 3.68563e-26)
(0.0143114 -8.00242e-06 9.61146e-24)
(0.0143112 -1.13244e-05 -3.66933e-24)
(0.0143101 -1.45035e-05 -9.04834e-25)
(0.0143082 -1.75307e-05 -5.37628e-26)
(0.0124111 2.67411e-05 -4.06331e-24)
(0.0124241 2.34746e-05 5.23053e-24)
(0.0124355 2.0177e-05 5.88337e-25)
(0.0124454 1.68633e-05 1.05839e-23)
(0.0124539 1.35584e-05 -8.62838e-24)
(0.0124609 1.02882e-05 6.87011e-25)
(0.0124667 7.07187e-06 -9.26972e-25)
(0.0124712 3.91934e-06 -2.71128e-24)
(0.0124745 8.49463e-07 2.35939e-24)
(0.0124768 -2.1482e-06 -7.61526e-24)
(0.012478 -5.04488e-06 5.4617e-25)
(0.0124781 -7.83401e-06 1.81554e-24)
(0.0124773 -1.05088e-05 1.12161e-24)
(0.0124756 -1.30622e-05 4.32174e-25)
(0.0124729 -1.54849e-05 1.49094e-25)
(0.0106991 1.99101e-05 3.00956e-24)
(0.0107111 1.73389e-05 -2.38098e-24)
(0.0107216 1.47476e-05 -1.04687e-23)
(0.0107306 1.21391e-05 9.82946e-24)
(0.0107382 9.53741e-06 1.37336e-23)
(0.0107445 6.96376e-06 -3.48227e-24)
(0.0107495 4.43301e-06 -7.10026e-24)
(0.0107533 1.9543e-06 -9.95546e-24)
(0.0107559 -4.59488e-07 7.50598e-24)
(0.0107574 -2.81283e-06 4.36177e-25)
(0.0107578 -5.08117e-06 -1.68004e-24)
(0.0107573 -7.25967e-06 -4.48417e-25)
(0.0107557 -9.34341e-06 9.23319e-25)
(0.0107532 -1.13258e-05 -3.60386e-26)
(0.0107498 -1.31982e-05 -1.72073e-25)
(0.00910734 1.43018e-05 -1.89382e-24)
(0.00911798 1.23413e-05 -1.34979e-24)
(0.00912724 1.0368e-05 1.64324e-24)
(0.0091351 8.37883e-06 -5.21721e-24)
(0.00914163 6.39727e-06 1.71238e-23)
(0.0091469 4.43874e-06 -2.27143e-23)
(0.00915095 2.51377e-06 2.22903e-23)
(0.00915383 6.32775e-07 -9.44318e-24)
(0.00915558 -1.20551e-06 2.14681e-24)
(0.00915626 -2.98442e-06 2.7314e-26)
(0.0091559 -4.69727e-06 -1.67536e-24)
(0.00915455 -6.33903e-06 5.55199e-25)
(0.00915224 -7.90441e-06 -1.26506e-24)
(0.00914903 -9.38751e-06 -1.62754e-25)
(0.00914493 -1.07813e-05 8.08634e-26)
(0.00763617 9.88186e-06 -9.19983e-25)
(0.00764524 8.44096e-06 2.35644e-25)
(0.00765307 6.9925e-06 5.12577e-25)
(0.00765963 5.53155e-06 -2.38075e-24)
(0.00766497 4.07967e-06 -1.07547e-24)
(0.00766915 2.64586e-06 9.30413e-24)
(0.00767219 1.23813e-06 -5.47121e-24)
(0.00767415 -1.34674e-07 7.83884e-25)
(0.00767505 -1.47656e-06 -7.58973e-25)
(0.00767495 -2.77062e-06 -8.17036e-25)
(0.00767388 -4.01434e-06 -2.34303e-25)
(0.00767188 -5.20326e-06 1.5407e-24)
(0.00766899 -6.33287e-06 3.75279e-25)
(0.00766526 -7.39832e-06 -9.03672e-25)
(0.00766072 -8.39428e-06 -1.34896e-25)
(0.00628323 6.53255e-06 -3.3442e-25)
(0.00629068 5.51768e-06 -1.1074e-25)
(0.00629705 4.50017e-06 -5.39339e-24)
(0.0063023 3.47476e-06 1.42619e-24)
(0.00630646 2.45903e-06 -3.88547e-24)
(0.00630958 1.45636e-06 2.71597e-24)
(0.00631169 4.73787e-07 5.14886e-24)
(0.00631282 -4.83634e-07 3.86027e-24)
(0.00631301 -1.41764e-06 -5.41091e-24)
(0.00631229 -2.31703e-06 1.63114e-24)
(0.00631069 -3.17957e-06 1.38209e-24)
(0.00630827 -4.00165e-06 -1.96758e-24)
(0.00630505 -4.78005e-06 1.04784e-24)
(0.00630108 -5.51091e-06 -6.97756e-26)
(0.00629639 -6.19035e-06 2.53036e-25)
(0.00504451 4.09063e-06 -1.30911e-24)
(0.00505041 3.41193e-06 -1.79419e-24)
(0.00505539 2.73595e-06 -3.26741e-25)
(0.00505941 2.05645e-06 4.46375e-24)
(0.0050625 1.38578e-06 -3.16104e-24)
(0.0050647 7.23299e-07 -6.14635e-25)
(0.00506602 7.68677e-08 5.09149e-24)
(0.0050665 -5.53922e-07 1.27958e-26)
(0.00506616 -1.16891e-06 -1.03204e-24)
(0.00506503 -1.75967e-06 -3.76209e-24)
(0.00506316 -2.32503e-06 4.26746e-25)
(0.00506056 -2.86236e-06 2.56714e-24)
(0.00505729 -3.36958e-06 -3.29929e-25)
(0.00505337 -3.84368e-06 -3.39488e-25)
(0.00504884 -4.28183e-06 2.22273e-25)
(0.00391486 2.38135e-06 -2.85938e-25)
(0.00391933 1.95699e-06 1.6921e-26)
(0.00392305 1.54068e-06 2.13986e-24)
(0.00392599 1.1241e-06 1.43281e-24)
(0.00392816 7.14351e-07 -9.86876e-25)
(0.0039296 3.09076e-07 -2.44222e-24)
(0.00393031 -8.51618e-08 9.88424e-25)
(0.00393034 -4.70599e-07 -4.14662e-24)
(0.00392969 -8.45727e-07 3.19314e-24)
(0.00392839 -1.20589e-06 1.63228e-24)
(0.00392647 -1.54992e-06 -1.6238e-26)
(0.00392397 -1.87608e-06 -1.77024e-24)
(0.0039209 -2.18305e-06 3.16237e-25)
(0.00391731 -2.46856e-06 -2.33337e-25)
(0.00391322 -2.73037e-06 1.14336e-25)
(0.00288832 1.24009e-06 -5.26125e-25)
(0.00289151 9.96333e-07 1.07904e-26)
(0.00289414 7.65547e-07 1.71465e-24)
(0.00289615 5.36893e-07 -1.0719e-24)
(0.00289757 3.13376e-07 4.411e-24)
(0.00289843 9.40051e-08 -8.03553e-24)
(0.00289872 -1.24754e-07 6.49711e-24)
(0.00289849 -3.31423e-07 -5.41562e-24)
(0.00289773 -5.3821e-07 3.91118e-24)
(0.00289646 -7.33683e-07 -2.50136e-24)
(0.00289472 -9.20274e-07 8.58761e-25)
(0.00289252 -1.0967e-06 1.23642e-25)
(0.00288989 -1.26195e-06 1.91639e-25)
(0.00288686 -1.41435e-06 -2.34882e-25)
(0.00288345 -1.55207e-06 4.72369e-26)
(0.00195842 5.28651e-07 7.9778e-25)
(0.00196049 4.0105e-07 8.6205e-25)
(0.00196217 2.90894e-07 -3.68545e-24)
(0.00196342 1.84716e-07 2.6953e-24)
(0.00196425 8.28995e-08 -2.65059e-26)
(0.00196469 -1.29787e-08 6.93223e-25)
(0.00196473 -1.14355e-07 -8.47368e-25)
(0.0019644 -2.08371e-07 -1.76801e-24)
(0.0019637 -2.99077e-07 1.7544e-24)
(0.00196264 -3.84668e-07 1.8067e-25)
(0.00196125 -4.65255e-07 -1.38816e-24)
(0.00195953 -5.40232e-07 4.9836e-25)
(0.00195751 -6.10197e-07 2.91406e-25)
(0.00195521 -6.74313e-07 -3.48554e-26)
(0.00195265 -7.31038e-07 -3.17529e-26)
(0.00111839 1.55527e-07 -8.04491e-25)
(0.0011195 1.08917e-07 2.45981e-24)
(0.00112038 7.85549e-08 1.4664e-24)
(0.001121 4.89673e-08 -2.64047e-24)
(0.00112139 1.98245e-08 -3.09365e-25)
(0.00112155 -7.68848e-09 -2.74295e-25)
(0.00112147 -3.94112e-08 8.35647e-25)
(0.00112118 -6.83172e-08 -1.41385e-24)
(0.00112067 -9.63413e-08 1.91863e-24)
(0.00111995 -1.23222e-07 -9.39156e-25)
(0.00111903 -1.46977e-07 -6.04756e-25)
(0.00111793 -1.66755e-07 3.63326e-25)
(0.00111664 -1.88239e-07 -4.21631e-25)
(0.0011152 -2.11652e-07 4.19074e-25)
(0.0011136 -2.35678e-07 -6.87881e-26)
(0.00036142 5.87839e-08 -5.73972e-27)
(0.000361687 1.13278e-07 4.77435e-25)
(0.000361887 1.57815e-07 5.45885e-25)
(0.000362011 1.86977e-07 -8.55773e-25)
(0.000362066 2.02763e-07 1.77678e-24)
(0.00036205 2.07225e-07 -1.92914e-24)
(0.000361962 2.0204e-07 1.26369e-25)
(0.000361806 1.89367e-07 1.05958e-24)
(0.000361582 1.7018e-07 -1.46436e-24)
(0.000361292 1.45872e-07 -2.62072e-25)
(0.000360939 1.18848e-07 1.00038e-24)
(0.000360524 9.05057e-08 -4.39898e-25)
(0.000360053 5.74584e-08 -1.58809e-25)
(0.000359529 2.00219e-08 1.32116e-25)
(0.000358957 -2.06908e-08 -5.68923e-27)
(0.000904957 -0.000238978 7.99919e-26)
(0.00103697 -0.000159813 2.03812e-24)
(0.00125929 -7.84539e-05 -5.84533e-24)
(0.00148687 -1.29377e-05 8.46717e-24)
(0.00170587 3.83336e-05 -3.17583e-24)
(0.00192106 7.60901e-05 -3.03507e-24)
(0.00213237 0.000102773 3.44143e-24)
(0.00234037 0.000120407 -6.77954e-24)
(0.00254577 0.000130696 4.42955e-25)
(0.00274914 0.000135115 4.2588e-24)
(0.00295104 0.000134933 -8.10033e-25)
(0.00315197 0.000131282 8.73644e-25)
(0.00335247 0.000125218 -8.57047e-26)
(0.00355314 0.000117782 5.40714e-25)
(0.0037548 0.000110057 -1.98408e-24)
(0.00395855 0.000103238 1.0852e-24)
(0.00416612 9.86251e-05 -3.34367e-25)
(0.00437989 9.76331e-05 2.62938e-26)
(0.0046037 0.000101401 7.75123e-25)
(0.00484228 0.000110471 -4.84205e-25)
(0.00510204 0.000123108 5.92899e-26)
(0.00538795 0.000134467 -5.18043e-26)
(0.00567817 0.000133503 9.8673e-26)
(0.00593599 0.000112862 3.81407e-25)
(0.00614866 7.32449e-05 -6.84566e-25)
(0.00631594 1.74161e-05 -4.5974e-25)
(0.00643936 -5.15665e-05 2.54241e-26)
(0.00652113 -0.000131043 1.11786e-24)
(0.00656293 -0.000218476 1.41842e-24)
(0.00656575 -0.000310961 -2.74868e-24)
(0.00652994 -0.000404772 1.88078e-24)
(0.00645565 -0.000495124 -1.33716e-24)
(0.00634313 -0.000576175 1.59563e-25)
(0.00619308 -0.000641157 -1.15062e-24)
(0.00600668 -0.000682527 1.1082e-24)
(0.00578557 -0.000692007 7.37227e-24)
(0.00553175 -0.000660358 -2.02683e-24)
(0.00524751 -0.000576654 1.89606e-24)
(0.00493557 -0.000426892 1.01634e-24)
(0.00459963 -0.000192428 -1.08901e-23)
(0.00424346 0.000148559 -1.32893e-25)
(0.00387199 0.000609448 4.58669e-24)
(0.00347389 0.00115981 1.45973e-24)
(0.00306705 0.00167779 -6.4273e-24)
(0.00283666 0.00179811 -3.18586e-25)
(0.00170325 -0.000318864 -2.34428e-24)
(0.0017586 -0.000274114 -3.28402e-24)
(0.00189612 -0.000195842 6.89654e-24)
(0.00206906 -0.00012326 3.18579e-24)
(0.00225317 -6.18413e-05 -1.11358e-23)
(0.00244375 -1.37215e-05 1.18478e-23)
(0.00263669 2.2484e-05 -4.24213e-24)
(0.00283017 4.86317e-05 3.35546e-24)
(0.00302357 6.64668e-05 -4.43714e-24)
(0.00321667 7.75683e-05 5.13338e-26)
(0.00340952 8.33136e-05 -2.34212e-24)
(0.00360231 8.49273e-05 4.64103e-24)
(0.00379535 8.35374e-05 -2.56253e-24)
(0.00398908 8.02369e-05 -2.29242e-24)
(0.00418416 7.61437e-05 -1.51238e-24)
(0.00438153 7.24588e-05 2.90567e-24)
(0.00458274 7.04744e-05 -3.41576e-25)
(0.00478992 7.15656e-05 1.49789e-24)
(0.00500659 7.68369e-05 2.31219e-25)
(0.00523708 8.68153e-05 -4.41564e-25)
(0.00548742 9.98786e-05 -1.82424e-25)
(0.00576236 0.000111517 -1.09626e-25)
(0.00604142 0.000111244 5.34193e-25)
(0.00628996 9.22052e-05 6.54013e-25)
(0.00649589 5.51612e-05 -5.88163e-25)
(0.00665884 2.7596e-06 -2.80829e-24)
(0.00678 -6.20127e-05 3.74293e-24)
(0.00686122 -0.000136466 -2.5468e-24)
(0.00690397 -0.00021795 8.50644e-25)
(0.00690913 -0.000303427 -4.04816e-25)
(0.00687712 -0.000389064 2.64435e-24)
(0.00680828 -0.000470036 -2.56112e-24)
(0.00670323 -0.000540521 -1.51094e-25)
(0.0065631 -0.000593823 5.93662e-24)
(0.00638972 -0.000622508 -1.02234e-23)
(0.00618564 -0.000618419 2.78778e-24)
(0.00595417 -0.00057248 1.3124e-23)
(0.00569959 -0.000474086 -3.60952e-24)
(0.00542775 -0.000309946 -1.05396e-23)
(0.00514768 -6.25925e-05 -6.34351e-24)
(0.0048729 0.000288456 1.44636e-23)
(0.00462604 0.000757068 -1.38966e-23)
(0.00443069 0.00131309 -3.01575e-24)
(0.00432673 0.00182368 9.05823e-24)
(0.00435634 0.00188666 2.85273e-24)
(0.00264586 -0.000327188 -2.66426e-26)
(0.00265434 -0.000322427 -3.76e-24)
(0.00271328 -0.000275694 7.30572e-24)
(0.00282231 -0.000213356 6.11545e-24)
(0.00295767 -0.000152429 -1.00043e-23)
(0.00311066 -9.98902e-05 2.07651e-25)
(0.00327424 -5.73851e-05 9.5752e-25)
(0.00344412 -2.44662e-05 1.03318e-23)
(0.00361796 -7.3992e-09 -1.2234e-23)
(0.00379441 1.73161e-05 7.50196e-24)
(0.00397274 2.87921e-05 2.25127e-24)
(0.00415263 3.56254e-05 -1.24434e-23)
(0.004334 3.89528e-05 4.49193e-24)
(0.00451702 3.98812e-05 1.78317e-24)
(0.00470211 3.9538e-05 -3.69199e-24)
(0.00489 3.91174e-05 5.95961e-24)
(0.005082 3.98904e-05 -4.17922e-24)
(0.00527995 4.3187e-05 -7.16669e-26)
(0.00548702 5.00713e-05 3.24635e-25)
(0.00570707 6.1054e-05 3.41828e-25)
(0.00594571 7.46219e-05 4.46617e-26)
(0.00620736 8.66002e-05 1.93363e-25)
(0.00647302 8.7062e-05 -5.39236e-25)
(0.00671032 6.9661e-05 1.60696e-24)
(0.00690784 3.52365e-05 -2.53451e-24)
(0.00706507 -1.36669e-05 1.45745e-24)
(0.00718285 -7.41221e-05 -3.26208e-24)
(0.00726265 -0.000143407 4.37551e-24)
(0.00730571 -0.00021876 -3.67773e-24)
(0.00731281 -0.000297011 5.47225e-25)
(0.00728446 -0.000374227 7.59502e-25)
(0.00722122 -0.000445553 3.04188e-24)
(0.00712406 -0.000505216 -7.30923e-25)
(0.00699464 -0.000546659 3.08478e-24)
(0.00683545 -0.000562663 -9.10113e-24)
(0.00665 -0.000545405 1.61948e-23)
(0.00644297 -0.000486338 -1.12107e-23)
(0.00622064 -0.000375826 1.68072e-23)
(0.00599181 -0.0002025 -3.21927e-23)
(0.00576985 4.74698e-05 1.22832e-23)
(0.00557518 0.000388432 4.2726e-24)
(0.00543931 0.000826133 6.65978e-24)
(0.00539673 0.00132386 -8.27121e-24)
(0.00547016 0.00175113 2.30312e-24)
(0.00562792 0.00179086 -1.38473e-24)
(0.00371574 -0.000311096 -9.93206e-25)
(0.00369801 -0.000331162 -1.51437e-24)
(0.00370802 -0.000313172 -6.46801e-24)
(0.00375566 -0.000273495 1.78673e-24)
(0.0038379 -0.000223246 1.18569e-24)
(0.0039449 -0.000174019 5.09861e-24)
(0.0040698 -0.000130429 -1.06364e-23)
(0.00420717 -9.41286e-05 4.06894e-24)
(0.00435338 -6.52127e-05 1.34847e-23)
(0.00450597 -4.30419e-05 -3.59037e-24)
(0.00466338 -2.67008e-05 -3.35652e-24)
(0.00482462 -1.51829e-05 -5.32739e-25)
(0.00498917 -7.45635e-06 1.74027e-24)
(0.00515679 -2.47316e-06 -3.39517e-24)
(0.00532764 8.55092e-07 7.86273e-25)
(0.00550213 3.68266e-06 -2.72944e-25)
(0.00568131 7.23625e-06 -1.60957e-24)
(0.00586668 1.27828e-05 6.25439e-25)
(0.00606102 2.13338e-05 2.78304e-24)
(0.00626769 3.33739e-05 -3.27349e-25)
(0.0064918 4.7493e-05 -6.20189e-25)
(0.00673739 5.98492e-05 -1.70046e-25)
(0.00698702 6.1076e-05 -9.50836e-25)
(0.00721073 4.53515e-05 -5.53722e-26)
(0.00739782 1.36059e-05 -2.2497e-24)
(0.0075476 -3.17066e-05 3.88751e-24)
(0.00766054 -8.77134e-05 -3.26238e-24)
(0.00773777 -0.000151659 6.19657e-24)
(0.00778024 -0.000220673 -5.05212e-24)
(0.00778867 -0.00029147 1.27659e-24)
(0.00776365 -0.000360044 1.73179e-24)
(0.00770599 -0.000421549 -1.8447e-25)
(0.00761703 -0.000470335 -2.97472e-25)
(0.00749896 -0.000500082 -1.06824e-24)
(0.00735496 -0.000503964 1.33165e-24)
(0.00718947 -0.000474753 -5.03723e-24)
(0.00700843 -0.000404856 2.37795e-23)
(0.00681977 -0.000286256 -1.26169e-23)
(0.00663443 -0.000110516 -4.35866e-25)
(0.00646806 0.00013095 -2.85348e-23)
(0.00634296 0.000444321 2.1622e-23)
(0.00628963 0.000825451 -7.80643e-24)
(0.00633795 0.00123661 1.9708e-24)
(0.00649311 0.00157663 9.6124e-24)
(0.00670797 0.0016533 -2.27249e-24)
(0.00490813 -0.000285531 -4.10408e-24)