/*--------------------------------*- C++ -*----------------------------------*\
| =========                 |                                                 |
| \\      /  F ield         | OpenFOAM: The Open Source CFD Toolbox           |
|  \\    /   O peration     | Version:  2312                                  |
|   \\  /    A nd           | Website:  www.openfoam.com                      |
|    \\/     M anipulation  |                                                 |
\*---------------------------------------------------------------------------*/
FoamFile
{
    version     2.0;
    format      ascii;
    arch        "LSB;label=32;scalar=64";
    class       volVectorField;
    location    "85.5";
    object      U;
}
// * * * * * * * * * * * * * * * * * * * * * * * * * * * * * * * * * * * * * //

dimensions      [0 1 -1 0 0 0 0];

internalField   nonuniform List<vector> 
4800
(
(0.000475357 4.3283e-07 -3.2795e-26)
(0.000463964 4.83239e-07 -2.28139e-25)
(0.000456233 5.03495e-07 2.93505e-25)
(0.000451059 4.97745e-07 1.31136e-25)
(0.00044776 4.67957e-07 1.90987e-24)
(0.00044591 4.13103e-07 -4.53264e-24)
(0.000445251 3.51144e-07 4.19079e-24)
(0.000445754 2.62919e-07 -5.99645e-24)
(0.000447264 1.33827e-07 1.94278e-24)
(0.000449953 -1.1818e-07 6.47604e-24)
(0.000454203 -6.2362e-07 -2.00019e-24)
(0.000461322 -2.00251e-06 -1.77954e-25)
(0.000478343 -7.06924e-06 -2.39405e-24)
(0.000522722 -2.74637e-05 1.09808e-24)
(0.000596422 -8.93898e-05 -8.6995e-25)
(0.00146683 2.30775e-06 -1.04075e-25)
(0.00143238 1.8424e-06 1.29664e-25)
(0.00140893 1.47314e-06 -1.1733e-24)
(0.00139315 1.1426e-06 8.82748e-25)
(0.00138296 8.14969e-07 2.75539e-24)
(0.00137704 4.55298e-07 -4.36956e-24)
(0.0013746 4.54872e-08 -1.19774e-24)
(0.00137546 -4.89347e-07 -2.49386e-25)
(0.00137908 -1.22525e-06 9.8624e-24)
(0.0013861 -2.478e-06 -7.27579e-24)
(0.00139756 -4.87659e-06 7.92855e-25)
(0.00141619 -1.05972e-05 1.18961e-24)
(0.00145056 -2.71156e-05 -1.74144e-24)
(0.00151111 -7.72798e-05 -5.10276e-25)
(0.00157656 -0.000189989 2.25857e-24)
(0.0025603 7.39504e-06 -7.43219e-26)
(0.00250142 5.85306e-06 7.60104e-26)
(0.00246127 4.65623e-06 7.67608e-25)
(0.00243412 3.61491e-06 -1.81868e-24)
(0.0024164 2.61707e-06 1.76676e-24)
(0.00240584 1.55933e-06 1.62738e-24)
(0.00240099 2.80556e-07 -4.17604e-24)
(0.0024015 -1.3198e-06 -2.50174e-24)
(0.00240627 -3.50915e-06 6.09094e-24)
(0.00241624 -7.04136e-06 2.27402e-24)
(0.00243245 -1.33388e-05 -7.93392e-24)
(0.00245693 -2.62573e-05 -1.16359e-24)
(0.00249372 -5.51735e-05 3.36774e-24)
(0.00254139 -0.000118646 5.25913e-24)
(0.00257554 -0.000223891 -2.71096e-24)
(0.00376253 1.65035e-05 2.74179e-26)
(0.00367824 1.31165e-05 -1.90221e-25)
(0.00362059 1.04918e-05 8.40387e-25)
(0.00358137 8.22293e-06 8.77506e-25)
(0.00355547 6.07248e-06 -8.92721e-25)
(0.0035396 3.83102e-06 -4.99612e-24)
(0.00353159 1.20246e-06 -3.32255e-24)
(0.00353073 -2.14659e-06 1.24412e-23)
(0.00353537 -6.40358e-06 5.012e-24)
(0.00354622 -1.3113e-05 -7.3657e-24)
(0.00356369 -2.41477e-05 -2.95112e-24)
(0.00358791 -4.38494e-05 -2.2233e-24)
(0.00361815 -8.00802e-05 7.44904e-26)
(0.00364727 -0.000142427 1.63179e-24)
(0.00365747 -0.000225749 7.94601e-27)
(0.00507861 3.05236e-05 -5.02434e-26)
(0.0049687 2.43314e-05 -3.06106e-25)
(0.00489316 1.9535e-05 -1.87071e-25)
(0.00484139 1.54162e-05 5.20468e-25)
(0.00480674 1.15582e-05 -1.43674e-24)
(0.00478489 7.61213e-06 3.57478e-24)
(0.0047729 3.10075e-06 -6.38185e-25)
(0.00476935 -2.41004e-06 2.1321e-24)
(0.00477246 -9.3424e-06 -1.18166e-23)
(0.00478195 -1.95068e-05 2.23955e-23)
(0.00479724 -3.48726e-05 -2.1624e-23)
(0.00481675 -5.89283e-05 1.13335e-23)
(0.00483714 -9.64565e-05 -1.04553e-23)
(0.00485078 -0.000150351 9.8334e-24)
(0.00484756 -0.000213034 -3.91495e-24)
(0.00651032 5.05173e-05 6.63629e-26)
(0.00637602 4.04215e-05 2.36725e-25)
(0.00628303 3.25908e-05 -1.24088e-24)
(0.00621871 2.59078e-05 -7.62381e-25)
(0.00617501 1.97232e-05 2.07672e-24)
(0.00614662 1.35242e-05 7.29076e-25)
(0.00612986 6.65424e-06 -5.65839e-24)
(0.00612248 -1.37884e-06 1.34166e-23)
(0.00612245 -1.1319e-05 -1.73172e-23)
(0.00612857 -2.47695e-05 4.1714e-24)
(0.00613913 -4.33426e-05 1.24499e-23)
(0.00615165 -6.9181e-05 -1.71938e-23)
(0.00616226 -0.000104158 8.59993e-24)
(0.00616526 -0.000147716 8.76193e-24)
(0.00615599 -0.000193701 -6.66661e-24)
(0.00805384 7.74062e-05 5.49834e-26)
(0.0078988 6.22819e-05 -3.24318e-25)
(0.00779027 5.04961e-05 1.15156e-24)
(0.00771433 4.04797e-05 -1.58621e-24)
(0.00766187 3.13135e-05 -5.28401e-24)
(0.00762676 2.23071e-05 8.99987e-24)
(0.00760469 1.26644e-05 -5.39205e-24)
(0.00759264 1.77297e-06 1.8145e-23)
(0.00758818 -1.11031e-05 -1.23547e-23)
(0.00758934 -2.72867e-05 -5.70861e-24)
(0.0075938 -4.78184e-05 -1.10982e-23)
(0.00759881 -7.35132e-05 1.02206e-23)
(0.00760117 -0.000104377 2.85988e-24)
(0.00759733 -0.000138671 2.43544e-24)
(0.00758575 -0.000172313 -2.14266e-24)
(0.00969707 0.000111514 -7.97059e-26)
(0.00952857 9.04434e-05 1.07579e-24)
(0.00940874 7.38634e-05 -2.48799e-24)
(0.00932362 5.97824e-05 -1.98604e-24)
(0.00926374 4.70122e-05 7.87716e-25)
(0.00922249 3.46935e-05 1.48439e-24)
(0.00919512 2.19478e-05 5.1624e-24)
(0.00917808 8.09069e-06 -1.3898e-23)
(0.00916853 -7.51713e-06 -7.25478e-24)
(0.00916404 -2.57677e-05 2.02362e-23)
(0.00916212 -4.71268e-05 -6.18597e-24)
(0.00916025 -7.15305e-05 2.11527e-23)
(0.00915617 -9.81629e-05 -1.11201e-23)
(0.00914791 -0.000125297 -3.53238e-24)
(0.00913539 -0.000150495 2.09065e-24)
(0.0114179 0.000151923 -1.06726e-26)
(0.0112476 0.000124588 5.97204e-25)
(0.0111238 0.000102707 -8.48092e-25)
(0.0110342 8.40379e-05 1.9917e-24)
(0.0109698 6.7196e-05 -1.17562e-23)
(0.0109241 5.12004e-05 1.23761e-23)
(0.0108925 3.51557e-05 -1.91619e-23)
(0.0108709 1.83901e-05 1.18415e-23)
(0.0108565 3.90776e-07 8.69135e-24)
(0.0108467 -1.92921e-05 1.86221e-23)
(0.0108391 -4.07005e-05 -2.42933e-23)
(0.0108316 -6.3368e-05 -4.44763e-24)
(0.0108229 -8.63513e-05 2.07556e-24)
(0.0108118 -0.000108377 1.46809e-23)
(0.0107987 -0.00012809 -5.96842e-24)
(0.0131864 0.000195789 5.99553e-26)
(0.0130296 0.000162928 -2.54678e-25)
(0.012912 0.000135909 1.11596e-24)
(0.0128248 0.000112579 -3.86849e-24)
(0.0127607 9.15296e-05 5.81656e-24)
(0.0127139 7.17608e-05 -7.41863e-24)
(0.0126802 5.24355e-05 1.23068e-23)
(0.0126558 3.29681e-05 2.071e-24)
(0.0126378 1.3e-05 -1.67385e-23)
(0.0126239 -7.61355e-06 2.36411e-23)
(0.0126122 -2.86744e-05 -2.60162e-23)
(0.0126009 -4.96634e-05 -7.59985e-24)
(0.0125893 -6.98305e-05 1.34364e-23)
(0.0125765 -8.8395e-05 3.97785e-24)
(0.0125633 -0.000104667 -1.73715e-24)
(0.0149746 0.000238284 2.52229e-25)
(0.0148457 0.000201855 -2.00676e-24)
(0.0147454 0.000170769 -3.10236e-24)
(0.0146687 0.000143378 7.41673e-24)
(0.0146108 0.000118501 3.22515e-24)
(0.0145674 9.5267e-05 -2.02367e-23)
(0.0145349 7.29859e-05 6.3046e-24)
(0.0145103 5.12084e-05 4.49085e-24)
(0.0144911 2.97344e-05 -1.89035e-23)
(0.0144754 8.57e-06 1.97851e-23)
(0.0144616 -1.2032e-05 -1.56401e-23)
(0.0144485 -3.16675e-05 4.0246e-23)
(0.0144357 -4.98561e-05 -1.93102e-23)
(0.0144226 -6.6203e-05 1.13585e-23)
(0.0144099 -8.04112e-05 -3.09915e-24)
(0.0167744 0.000274396 -1.09704e-25)
(0.0166797 0.00023685 1.38773e-24)
(0.0166032 0.000203403 -2.6467e-24)
(0.016543 0.000173158 -1.28939e-24)
(0.0164963 0.000145358 1.44946e-23)
(0.0164604 0.000119401 -2.20544e-24)
(0.0164327 9.48186e-05 -2.53626e-23)
(0.0164108 7.13261e-05 2.93717e-23)
(0.0163931 4.88393e-05 -6.62815e-24)
(0.0163779 2.74231e-05 -2.26024e-23)
(0.0163644 7.26499e-06 2.40379e-23)
(0.0163516 -1.13911e-05 1.2908e-23)
(0.0163394 -2.83066e-05 -1.08749e-23)
(0.0163272 -4.33381e-05 -1.88155e-23)
(0.0163158 -5.64129e-05 1.57939e-24)
(0.0186059 0.000302472 1.29449e-26)
(0.0185399 0.000265266 -1.57606e-24)
(0.0184854 0.000230844 7.25332e-24)
(0.0184419 0.000198953 3.42115e-25)
(0.0184076 0.000169272 3.89819e-24)
(0.0183806 0.000141509 -1.42676e-23)
(0.0183592 0.000115425 1.20032e-23)
(0.0183418 9.08849e-05 2.64506e-24)
(0.0183273 6.78682e-05 2.43402e-23)
(0.0183145 4.64285e-05 -3.77356e-23)
(0.0183029 2.66651e-05 -1.7002e-23)
(0.0182919 8.66927e-06 -1.12113e-23)
(0.0182816 -7.49268e-06 2.11231e-23)
(0.0182714 -2.18395e-05 -6.09804e-25)
(0.018262 -3.44098e-05 2.04905e-24)
(0.0204975 0.000325512 -1.28771e-26)
(0.0204485 0.00028862 1.65084e-24)
(0.0204084 0.000253589 -2.39249e-24)
(0.0203764 0.000220595 1.29779e-26)
(0.0203511 0.000189649 2.93369e-24)
(0.020331 0.000160695 7.35507e-24)
(0.0203149 0.00013367 -2.84966e-23)
(0.0203015 0.000108528 2.4865e-24)
(0.0202901 8.52595e-05 1.43899e-23)
(0.0202799 6.38683e-05 -6.56805e-24)
(0.0202706 4.43589e-05 1.7959e-23)
(0.0202618 2.67062e-05 1.25593e-23)
(0.0202535 1.08681e-05 -2.27924e-23)
(0.0202454 -3.25879e-06 1.56165e-23)
(0.020238 -1.57787e-05 -1.29823e-23)
(0.0224412 0.000346859 -4.8761e-25)
(0.0224028 0.000310112 4.94764e-26)
(0.0223713 0.000274482 2.87082e-24)
(0.0223462 0.000240531 -1.40668e-23)
(0.0223262 0.000208542 1.23341e-23)
(0.0223101 0.000178638 -8.7518e-24)
(0.0222971 0.000150864 6.31433e-24)
(0.0222861 0.000125213 -4.40516e-23)
(0.0222766 0.000101658 6.35902e-23)
(0.0222681 8.01406e-05 -3.73254e-23)
(0.0222605 6.05878e-05 3.33248e-23)
(0.0222532 4.28937e-05 2.78712e-23)
(0.0222465 2.69442e-05 -4.87075e-23)
(0.0222399 1.26016e-05 1.5862e-23)
(0.0222341 -2.74866e-07 -6.67422e-25)
(0.0243753 0.000366063 -1.86488e-26)
(0.0243475 0.000330053 -5.78956e-25)
(0.0243241 0.000294348 5.66119e-25)
(0.024305 0.000259904 -3.86722e-25)
(0.0242895 0.00022726 5.03769e-24)
(0.0242767 0.000196698 -8.58755e-24)
(0.0242661 0.000168344 7.89564e-24)
(0.0242571 0.000142212 -2.47989e-23)
(0.0242492 0.000118255 5.63064e-23)
(0.0242421 9.63746e-05 -7.19764e-23)
(0.0242357 7.64512e-05 5.89448e-23)
(0.0242296 5.83398e-05 -1.99082e-23)
(0.024224 4.1893e-05 1.04217e-24)
(0.0242186 2.69492e-05 4.59894e-24)
(0.0242139 1.33591e-05 -8.80145e-24)
(0.0262029 0.000380719 -1.60532e-24)
(0.0261864 0.000346242 2.52773e-24)
(0.0261719 0.000311269 -4.23956e-25)
(0.0261596 0.000277072 -2.15626e-24)
(0.0261493 0.000244402 8.18186e-24)
(0.0261406 0.000213666 -8.20729e-24)
(0.0261333 0.000185057 -7.1728e-24)
(0.0261268 0.000158611 -1.72109e-23)
(0.0261211 0.000134277 8.87305e-24)
(0.0261158 0.000111941 4.18826e-23)
(0.026111 9.1465e-05 -2.21086e-23)
(0.0261064 7.26945e-05 1.32101e-23)
(0.0261023 5.54794e-05 -5.42144e-24)
(0.0260982 3.96664e-05 -1.61768e-23)
(0.0260946 2.51099e-05 8.29005e-24)
(0.027806 0.000389216 5.40583e-25)
(0.0277996 0.000356905 -9.13154e-25)
(0.0277934 0.0003234 1.18712e-25)
(0.0277878 0.000290165 -1.99983e-24)
(0.0277829 0.000258096 -2.09571e-24)
(0.0277786 0.000227691 1.25242e-23)
(0.0277748 0.000199194 -9.87034e-24)
(0.0277714 0.000172669 -6.18857e-24)
(0.0277682 0.000148079 5.70228e-24)
(0.0277652 0.000125315 -6.66178e-24)
(0.0277624 0.000104246 1.55396e-23)
(0.0277597 8.47201e-05 7.90898e-24)
(0.0277572 6.65924e-05 -2.95309e-23)
(0.0277546 4.97247e-05 2.04454e-23)
(0.0277525 3.39907e-05 -4.18056e-24)
(0.0290272 0.000391066 1.62709e-24)
(0.0290298 0.000361323 2.69187e-24)
(0.0290311 0.000329843 -6.01661e-24)
(0.0290318 0.000298171 -1.28831e-25)
(0.0290321 0.000267275 1.09202e-24)
(0.0290322 0.000237698 -3.59518e-24)
(0.0290322 0.000209712 -5.46736e-24)
(0.029032 0.000183412 1.21164e-23)
(0.0290317 0.000158781 1.3363e-23)
(0.0290312 0.000135742 -3.24711e-23)
(0.0290306 0.000114181 1.87323e-23)
(0.0290298 9.39743e-05 -1.3114e-24)
(0.029029 7.49946e-05 -1.10061e-24)
(0.0290281 5.71112e-05 1.48941e-24)
(0.0290274 4.02045e-05 -6.8895e-25)
(0.0296479 0.000381972 -4.32845e-24)
(0.0296592 0.00035499 -9.59074e-24)
(0.0296683 0.00032599 4.82016e-24)
(0.0296757 0.000296447 1.79793e-23)
(0.0296818 0.0002673 -5.10094e-24)
(0.0296871 0.000239083 -1.76947e-24)
(0.0296915 0.000212079 9.30753e-25)
(0.0296954 0.000186398 -3.61834e-24)
(0.0296987 0.000162055 1.07475e-23)
(0.0297015 0.000139002 -4.87388e-24)
(0.0297038 0.000117168 3.39306e-24)
(0.0297057 9.64639e-05 -5.19876e-24)
(0.0297073 7.681e-05 -6.22758e-24)
(0.0297086 5.81098e-05 9.41929e-24)
(0.0297097 4.02837e-05 -4.1529e-24)
(0.0294586 0.00036663 6.95752e-24)
(0.0294757 0.000342275 -1.62805e-23)
(0.0294901 0.00031578 2.43085e-24)
(0.0295024 0.000288478 2.58143e-23)
(0.029513 0.00026123 -2.58109e-23)
(0.0295223 0.00023453 9.75152e-24)
(0.0295306 0.00020865 8.38132e-24)
(0.0295379 0.000183711 -1.93381e-23)
(0.0295443 0.00015975 1.65107e-24)
(0.0295501 0.000136754 5.12228e-24)
(0.0295551 0.000114694 4.93091e-25)
(0.0295596 9.35192e-05 8.03251e-25)
(0.0295636 7.31729e-05 -1.36064e-24)
(0.0295672 5.36096e-05 1.20284e-24)
(0.0295706 3.4774e-05 -6.05547e-25)
(0.028523 0.000342106 4.37301e-24)
(0.0285483 0.000320245 -9.4152e-24)
(0.0285698 0.000296378 -7.17813e-24)
(0.0285879 0.000271622 3.36539e-23)
(0.0286033 0.000246707 -3.21182e-23)
(0.0286165 0.000222052 3.04887e-24)
(0.0286279 0.00019789 5.79667e-24)
(0.0286376 0.00017434 3.6343e-24)
(0.0286459 0.000151456 3.8391e-24)
(0.028653 0.000129253 -2.01835e-23)
(0.028659 0.000107731 1.27459e-23)
(0.0286641 8.6869e-05 4.75011e-25)
(0.0286682 6.66468e-05 4.90425e-24)
(0.0286716 4.70427e-05 -2.21015e-24)
(0.0286743 2.80454e-05 -2.6348e-25)
(0.0269613 0.000309857 1.1e-23)
(0.0269914 0.000290303 -1.98788e-23)
(0.0270178 0.000269021 3.96536e-24)
(0.027041 0.000246904 -1.11814e-23)
(0.0270613 0.000224537 -1.58882e-23)
(0.0270793 0.000202245 5.16034e-23)
(0.0270951 0.000180219 -2.10051e-23)
(0.0271091 0.000158564 6.43532e-24)
(0.0271214 0.000137342 -3.77661e-24)
(0.0271323 0.000116586 -1.10321e-23)
(0.0271418 9.63144e-05 2.14667e-23)
(0.0271501 7.65429e-05 -1.28289e-23)
(0.0271573 5.72808e-05 1.57567e-24)
(0.0271637 3.85178e-05 2.20204e-24)
(0.0271691 2.02627e-05 -2.5848e-25)
(0.0250855 0.000278137 4.26509e-24)
(0.0251203 0.00026057 -2.2854e-23)
(0.0251513 0.000241527 4.0987e-23)
(0.0251787 0.000221705 -3.24415e-23)
(0.0252031 0.000201552 3.47419e-23)
(0.0252249 0.000181324 -1.091e-23)
(0.0252442 0.000161182 -8.08585e-24)
(0.0252614 0.000141224 -9.97561e-24)
(0.0252767 0.000121523 1.96335e-23)
(0.0252902 0.000102127 6.97276e-25)
(0.0253021 8.30697e-05 -2.05086e-23)
(0.0253126 6.43738e-05 -3.243e-24)
(0.0253217 4.60467e-05 5.6487e-24)
(0.0253296 2.80743e-05 -1.35468e-24)
(0.0253362 1.04503e-05 3.15848e-25)
(0.0230372 0.000244447 5.70124e-25)
(0.0230767 0.000228756 -8.68706e-24)
(0.0231122 0.000211801 -5.4997e-24)
(0.0231439 0.000194114 4.29344e-23)
(0.0231722 0.000176044 -4.35794e-23)
(0.0231975 0.000157799 1.30776e-23)
(0.02322 0.000139523 2.36814e-24)
(0.0232401 0.000121315 -1.33374e-24)
(0.0232579 0.00010325 -6.92336e-24)
(0.0232737 8.5381e-05 3.14596e-23)
(0.0232875 6.77467e-05 -2.56436e-23)
(0.0232996 5.03693e-05 -1.51249e-24)
(0.0233099 3.32773e-05 2.53484e-24)
(0.0233187 1.65022e-05 2.67877e-24)
(0.0233259 7.76072e-08 -2.14248e-24)
(0.0209238 0.000209576 8.50542e-25)
(0.0209671 0.000195738 8.15062e-24)
(0.0210062 0.000180826 -9.29282e-24)
(0.0210412 0.000165253 -7.02983e-24)
(0.0210725 0.000149289 4.66407e-23)
(0.0211004 0.000133108 -3.56591e-23)
(0.0211254 0.000116838 -5.98037e-25)
(0.0211475 0.000100573 -8.37796e-24)
(0.021167 8.43851e-05 -9.30568e-25)
(0.0211842 6.83296e-05 1.12999e-24)
(0.021199 5.24521e-05 -5.94834e-24)
(0.0212117 3.67929e-05 4.24305e-24)
(0.0212224 2.13934e-05 1.40512e-24)
(0.0212311 6.28852e-06 1.47348e-24)
(0.021238 -8.52136e-06 2.23693e-24)
(0.0188175 0.000175185 6.0664e-24)
(0.018863 0.000163219 -9.42731e-24)
(0.0189041 0.000150359 -8.27279e-24)
(0.0189408 0.000136933 2.53928e-23)
(0.0189737 0.000123142 -9.066e-24)
(0.019003 0.00010913 -1.40853e-23)
(0.019029 9.50042e-05 4.7923e-24)
(0.0190519 8.0853e-05 1.21828e-23)
(0.0190719 6.67435e-05 -2.05185e-23)
(0.0190892 5.27325e-05 2.13192e-23)
(0.0191038 3.88642e-05 -1.20983e-23)
(0.0191161 2.51874e-05 5.61079e-24)
(0.0191259 1.17261e-05 -8.36896e-24)
(0.0191335 -1.50871e-06 8.78102e-24)
(0.0191387 -1.44809e-05 -2.32508e-24)
(0.0167635 0.00014283 -1.17691e-24)
(0.0168093 0.000132747 -4.30898e-24)
(0.0168506 0.000121939 -1.43917e-23)
(0.0168874 0.000110666 4.02984e-23)
(0.0169204 9.90691e-05 -6.81737e-24)
(0.0169496 8.72626e-05 -1.20724e-23)
(0.0169752 7.53384e-05 4.70105e-24)
(0.0169977 6.33738e-05 -6.72561e-24)
(0.0170169 5.14287e-05 -1.62068e-23)
(0.0170333 3.9553e-05 1.54994e-23)
(0.0170467 2.77913e-05 7.49212e-25)
(0.0170574 1.61811e-05 -6.29955e-24)
(0.0170655 4.75919e-06 7.13033e-24)
(0.0170709 -6.47451e-06 5.69459e-25)
(0.0170739 -1.74419e-05 -6.97245e-25)
(0.0147897 0.000113672 4.52389e-24)
(0.0148341 0.000105422 7.11952e-24)
(0.014874 9.66066e-05 -6.21481e-24)
(0.0149097 8.74194e-05 -1.50461e-23)
(0.0149413 7.79497e-05 2.11251e-23)
(0.0149693 6.82887e-05 -2.40734e-23)
(0.0149936 5.85157e-05 -1.59531e-24)
(0.0150146 4.86946e-05 9.82558e-24)
(0.0150323 3.88803e-05 3.6597e-24)
(0.0150469 2.91146e-05 -8.61617e-24)
(0.0150584 1.94458e-05 -6.97353e-25)
(0.0150671 9.90497e-06 1.97681e-23)
(0.0150729 5.20099e-07 -7.65533e-24)
(0.015076 -8.67847e-06 -2.20824e-24)
(0.0150763 -1.76429e-05 -1.60095e-25)
(0.0129136 8.83391e-05 -4.69245e-24)
(0.0129553 8.1802e-05 6.08665e-24)
(0.0129928 7.48446e-05 7.85359e-25)
(0.0130261 6.75905e-05 1.38615e-23)
(0.0130557 6.00932e-05 -1.10061e-23)
(0.0130816 5.24284e-05 1.22762e-24)
(0.0131039 4.46634e-05 -1.0449e-24)
(0.0131229 3.68505e-05 -3.9439e-24)
(0.0131386 2.90369e-05 4.05075e-24)
(0.0131512 2.12618e-05 -1.31556e-23)
(0.0131607 1.35667e-05 4.60636e-25)
(0.0131673 5.98387e-06 3.16944e-24)
(0.0131709 -1.48416e-06 2.22119e-24)
(0.0131717 -8.77694e-06 9.75258e-25)
(0.0131698 -1.58785e-05 4.32764e-25)
(0.0111461 6.69892e-05 3.47055e-24)
(0.0111843 6.19854e-05 -2.71328e-24)
(0.0112185 5.66852e-05 -1.29967e-23)
(0.0112491 5.1145e-05 1.22301e-23)
(0.011276 4.54006e-05 1.85466e-23)
(0.0112995 3.95167e-05 -4.07071e-24)
(0.0113196 3.35471e-05 -9.78962e-24)
(0.0113364 2.75333e-05 -1.52505e-23)
(0.0113501 2.15137e-05 1.17944e-23)
(0.0113608 1.55234e-05 8.79779e-25)
(0.0113684 9.59294e-06 -3.00379e-24)
(0.0113731 3.75028e-06 -9.94257e-25)
(0.011375 -1.98979e-06 2.0001e-24)
(0.0113742 -7.59464e-06 -6.36611e-27)
(0.0113707 -1.3048e-05 -4.90436e-25)
(0.00949371 4.94559e-05 -2.18114e-24)
(0.00952792 4.57669e-05 -1.69719e-24)
(0.00955868 4.18802e-05 1.88362e-24)
(0.00958608 3.77966e-05 -6.82184e-24)
(0.0096102 3.35486e-05 2.26436e-23)
(0.00963115 2.9189e-05 -3.12979e-23)
(0.00964899 2.47582e-05 3.19548e-23)
(0.00966381 2.02883e-05 -1.38814e-23)
(0.00967567 1.58088e-05 3.54369e-24)
(0.00968464 1.13479e-05 3.15301e-25)
(0.0096908 6.93066e-06 -2.82406e-24)
(0.0096942 2.57964e-06 1.30488e-24)
(0.00969491 -1.68155e-06 -2.61136e-24)
(0.00969304 -5.85054e-06 -4.20492e-25)
(0.00968864 -9.90693e-06 2.27478e-25)
(0.0079599 3.53902e-05 -1.05848e-24)
(0.00798991 3.27821e-05 2.41304e-25)
(0.00801698 3.00485e-05 6.01994e-25)
(0.00804113 2.7154e-05 -3.07333e-24)
(0.00806241 2.41341e-05 -1.58077e-24)
(0.00808087 2.10284e-05 1.27919e-23)
(0.00809655 1.78652e-05 -7.64273e-24)
(0.0081095 1.46686e-05 1.21872e-24)
(0.00811978 1.14603e-05 -1.15394e-24)
(0.00812743 8.26203e-06 -1.40252e-24)
(0.00813251 5.0926e-06 -5.30001e-25)
(0.00813508 1.97553e-06 3.01767e-24)
(0.0081352 -1.0726e-06 1.05718e-24)
(0.00813295 -4.06456e-06 -2.05288e-24)
(0.00812839 -6.97967e-06 -3.75952e-25)
(0.00654533 2.43673e-05 -3.84482e-25)
(0.00657107 2.26104e-05 -1.45996e-25)
(0.00659443 2.07769e-05 -6.68302e-24)
(0.00661532 1.88166e-05 1.54578e-24)
(0.00663378 1.67665e-05 -5.42874e-24)
(0.00664981 1.46529e-05 3.28956e-24)
(0.00666345 1.24948e-05 7.12874e-24)
(0.00667471 1.03095e-05 5.86825e-24)
(0.00668362 8.11233e-06 -8.50262e-24)
(0.00669024 5.91868e-06 2.57823e-24)
(0.00669459 3.74131e-06 2.49427e-24)
(0.00669672 1.6016e-06 -3.90358e-24)
(0.00669671 -4.80998e-07 2.10284e-24)
(0.00669458 -2.54072e-06 -2.74498e-25)
(0.00669042 -4.55284e-06 7.00604e-25)
(0.00524851 1.59525e-05 -1.50436e-24)
(0.00527002 1.48362e-05 -2.18869e-24)
(0.00528967 1.36755e-05 -5.41013e-25)
(0.00530733 1.2421e-05 5.54961e-24)
(0.00532298 1.11068e-05 -4.16306e-24)
(0.00533664 9.74781e-06 -9.82784e-25)
(0.0053483 8.3562e-06 7.22024e-24)
(0.00535797 6.94349e-06 1.85995e-25)
(0.00536567 5.52013e-06 -1.47037e-24)
(0.00537142 4.09637e-06 -6.3552e-24)
(0.00537526 2.68001e-06 4.47406e-25)
(0.0053772 1.28353e-06 4.8589e-24)
(0.00537732 -6.40201e-08 -6.39683e-25)
(0.00537568 -1.39627e-06 -8.78949e-25)
(0.00537225 -2.72142e-06 6.12691e-25)
(0.00406615 9.7336e-06 -3.285e-25)
(0.0040835 9.07555e-06 8.53695e-27)
(0.00409947 8.39446e-06 2.62428e-24)
(0.00411389 7.65063e-06 1.91999e-24)
(0.00412675 6.87061e-06 -1.14133e-24)
(0.00413803 6.06086e-06 -3.25229e-24)
(0.00414773 5.22889e-06 1.42943e-24)
(0.00415584 4.38179e-06 -6.2614e-24)
(0.00416236 3.52609e-06 4.86938e-24)
(0.00416731 2.66826e-06 2.80069e-24)
(0.0041707 1.81282e-06 1.85083e-25)
(0.00417255 9.65358e-07 -3.31959e-24)
(0.00417291 1.50381e-07 6.68583e-25)
(0.00417189 -6.45862e-07 -5.81839e-25)
(0.00416934 -1.45775e-06 3.14259e-25)
(0.00299348 5.33279e-06 -6.04389e-25)
(0.00300675 4.98169e-06 -8.1487e-27)
(0.00301907 4.6228e-06 2.08816e-24)
(0.00303026 4.22814e-06 -1.31349e-24)
(0.0030403 3.81414e-06 5.86436e-24)
(0.00304917 3.38269e-06 -1.0868e-23)
(0.00305686 2.93792e-06 9.2544e-24)
(0.00306336 2.48372e-06 -8.07604e-24)
(0.00306865 2.02376e-06 6.08486e-24)
(0.00307275 1.56176e-06 -4.1294e-24)
(0.00307566 1.1002e-06 1.45575e-24)
(0.00307739 6.4191e-07 2.28036e-25)
(0.00307796 1.96563e-07 4.32342e-25)
(0.0030775 -2.28237e-07 -5.50616e-25)
(0.00307586 -6.69068e-07 1.2932e-25)
(0.00202459 2.42437e-06 9.16509e-25)
(0.0020339 2.26221e-06 1.05541e-24)
(0.00204261 2.10261e-06 -4.46292e-24)
(0.00205056 1.92747e-06 3.34651e-24)
(0.00205775 1.74402e-06 -9.63964e-28)
(0.00206416 1.55249e-06 9.95349e-25)
(0.00206976 1.35485e-06 -1.14135e-24)
(0.00207455 1.15295e-06 -2.65343e-24)
(0.00207851 9.48504e-07 2.70829e-24)
(0.00208164 7.43391e-07 3.60667e-25)
(0.00208394 5.39096e-07 -2.47449e-24)
(0.00208543 3.36709e-07 8.79722e-25)
(0.0020861 1.38665e-07 6.02948e-25)
(0.00208603 -4.82146e-08 -6.49786e-26)
(0.00208516 -2.39043e-07 -8.66685e-26)
(0.00115284 7.67188e-07 -9.24387e-25)
(0.0011583 7.1901e-07 2.89039e-24)
(0.00116346 6.75613e-07 1.87251e-24)
(0.00116819 6.2606e-07 -3.22438e-24)
(0.00117251 5.72164e-07 -3.85373e-25)
(0.00117639 5.14203e-07 -3.70128e-25)
(0.00117982 4.53118e-07 1.20601e-24)
(0.00118278 3.89768e-07 -2.09172e-24)
(0.00118527 3.2489e-07 3.02077e-24)
(0.00118728 2.59323e-07 -1.47386e-24)
(0.00118881 1.94673e-07 -1.07356e-24)
(0.00118986 1.32408e-07 6.83324e-25)
(0.00119044 7.00997e-08 -9.48255e-25)
(0.00119057 1.27813e-08 9.87089e-25)
(0.00119025 -4.39979e-08 -1.87512e-25)
(0.000371135 1.4456e-07 -6.59652e-27)
(0.000372889 1.80302e-07 5.67173e-25)
(0.000374568 2.10675e-07 6.91706e-25)
(0.000376124 2.32199e-07 -1.04669e-24)
(0.000377561 2.45327e-07 2.36422e-24)
(0.000378868 2.50416e-07 -2.55472e-24)
(0.000380037 2.47953e-07 1.83199e-25)
(0.000381062 2.38406e-07 1.61704e-24)
(0.000381939 2.22206e-07 -2.24379e-24)
(0.000382664 1.99815e-07 -4.75839e-25)
(0.000383236 1.7231e-07 1.77279e-24)
(0.000383653 1.41213e-07 -8.04944e-25)
(0.000383913 1.04415e-07 -3.55519e-25)
(0.000384028 6.4503e-08 3.05181e-25)
(0.000383996 2.0997e-08 -1.5572e-26)
(0.000883188 -0.00023286 8.57113e-26)
(0.00100972 -0.000154035 2.22413e-24)
(0.00122356 -7.14656e-05 -6.4367e-24)
(0.00144234 -2.20096e-06 9.43881e-24)
(0.0016531 5.54009e-05 -3.54152e-24)
(0.00186097 0.000102093 -3.46627e-24)
(0.00206636 0.000139984 3.97135e-24)
(0.00227027 0.000170748 -7.94217e-24)
(0.00247364 0.000195664 4.46199e-25)
(0.0026771 0.000215733 5.08702e-24)
(0.00288116 0.00023178 -9.95706e-25)
(0.00308625 0.000244508 1.10216e-24)
(0.00329289 0.000254547 -9.386e-26)
(0.00350184 0.000262506 7.63314e-25)
(0.00371417 0.000268876 -2.8204e-24)
(0.00393137 0.000273939 1.57088e-24)
(0.00415563 0.0002777 -5.43691e-25)
(0.00439002 0.000279833 1.54724e-26)
(0.00463875 0.000279358 1.3783e-24)
(0.00490723 0.000274141 -8.75289e-25)
(0.00520173 0.000259814 1.10025e-25)
(0.00552668 0.000228729 -9.54124e-26)
(0.00585545 0.000172005 1.68267e-25)
(0.0061448 9.26494e-05 5.99755e-25)
(0.00638013 -2.2424e-06 -1.07993e-24)
(0.00656175 -0.000108219 -6.42413e-25)
(0.00669272 -0.000220725 8.8862e-26)
(0.00677621 -0.000335157 1.47939e-24)
(0.00681458 -0.000448203 1.63672e-24)
(0.00680992 -0.00055719 -3.15427e-24)
(0.00676403 -0.000658901 1.71829e-24)
(0.00667844 -0.000749262 -8.53382e-25)
(0.00655469 -0.000823316 -1.17599e-25)
(0.00639443 -0.000875248 -1.8614e-24)
(0.00619952 -0.000898436 1.81589e-24)
(0.00597202 -0.000885401 1.01361e-23)
(0.00571409 -0.000827509 -3.0755e-24)
(0.00542804 -0.000714243 2.22528e-24)
(0.00511637 -0.000531831 1.06477e-24)
(0.00478233 -0.000261668 -1.37722e-23)
(0.00442876 0.000118394 -1.65324e-25)
(0.00405927 0.000622449 5.63704e-24)
(0.00365979 0.00121978 1.78855e-24)
(0.00324399 0.00178168 -7.88901e-24)
(0.00300673 0.0019137 -3.93475e-25)
(0.00166412 -0.000309348 -2.53477e-24)
(0.0017157 -0.000263574 -3.62221e-24)
(0.00184673 -0.000183695 7.56485e-24)
(0.00201224 -0.000107734 3.58791e-24)
(0.00218899 -4.05211e-05 -1.25592e-23)
(0.0023728 1.58801e-05 1.34936e-23)
(0.00256016 6.25319e-05 -4.8477e-24)
(0.00274983 0.000101036 3.95034e-24)
(0.00294149 0.000132778 -5.21846e-24)
(0.00313509 0.000158896 4.95945e-26)
(0.00333072 0.00018033 -2.92252e-24)
(0.00352856 0.000197857 5.8407e-24)
(0.003729 0.000212143 -3.30654e-24)
(0.00393268 0.000223827 -3.20179e-24)
(0.00414054 0.000233413 -2.3784e-24)
(0.00435396 0.000241179 4.15129e-24)
(0.00457495 0.000247119 -6.23986e-25)
(0.00480635 0.000250898 2.49208e-24)
(0.00505203 0.000251538 4.60337e-25)
(0.00531696 0.000246954 -7.89182e-25)
(0.00560688 0.000232983 -3.39831e-25)
(0.0059258 0.000202398 -1.96917e-25)
(0.00624782 0.000146934 9.19156e-25)
(0.00653123 6.99997e-05 1.00303e-24)
(0.00676205 -2.13709e-05 -1.00108e-24)
(0.00694064 -0.000123007 -4.08266e-24)
(0.00706992 -0.000230478 5.25043e-24)
(0.0071529 -0.000339148 -3.37245e-24)
(0.00719183 -0.000445608 1.10309e-24)
(0.00718878 -0.000547119 -3.98745e-25)
(0.00714572 -0.000640418 2.30548e-24)
(0.00706445 -0.000721412 -1.36533e-24)
(0.00694686 -0.000785164 -1.75841e-24)
(0.00679512 -0.000825915 1.00773e-23)
(0.00661177 -0.000837119 -1.59362e-23)
(0.00639985 -0.000811386 4.25641e-24)
(0.00616292 -0.000740221 1.76302e-23)
(0.0059054 -0.000613391 -5.09365e-24)
(0.00563318 -0.000417782 -1.36742e-23)
(0.00535523 -0.000135901 -7.97836e-24)
(0.00508498 0.000253265 1.82032e-23)
(0.00484523 0.000764759 -1.74244e-23)
(0.00465978 0.00136871 -3.96547e-24)
(0.00456682 0.00192571 1.13291e-23)
(0.00461034 0.00200072 3.78965e-24)
(0.00258916 -0.000315331 -2.89722e-26)
(0.00259452 -0.00030839 -4.12627e-24)
(0.00264883 -0.000259292 8.05216e-24)
(0.0027519 -0.000193448 6.88646e-24)
(0.00288113 -0.000127015 -1.12127e-23)
(0.0030282 -6.67507e-05 2.24845e-25)
(0.00318677 -1.45809e-05 1.09837e-24)
(0.0033533 2.98459e-05 1.21165e-23)
(0.00352581 6.74019e-05 -1.43911e-23)
(0.00370323 9.89994e-05 9.0484e-24)
(0.003885 0.000125512 2.93284e-24)
(0.00407088 0.000147685 -1.56917e-23)
(0.00426098 0.00016616 5.69584e-24)
(0.00445573 0.000181572 2.4107e-24)
(0.00465587 0.000194417 -5.32547e-24)
(0.00486261 0.000204952 8.95073e-24)
(0.00507775 0.000213153 -6.55251e-24)
(0.00530388 0.000218667 -2.32527e-25)
(0.00554447 0.000220521 4.98798e-25)
(0.005804 0.000216678 6.04186e-25)
(0.00608764 0.000203179 8.40916e-26)
(0.00639889 0.000173225 3.62614e-25)
(0.00671256 0.00011916 -9.17049e-25)
(0.00698863 4.47953e-05 2.64742e-24)
(0.00721373 -4.28856e-05 -3.94948e-24)
(0.00738821 -0.000139966 2.2287e-24)
(0.00751492 -0.000242174 -4.42123e-24)
(0.0075967 -0.000344816 5.90219e-24)
(0.00763566 -0.000444373 -4.42212e-24)
(0.0076339 -0.000538053 1.00761e-24)
(0.00759356 -0.000622558 1.40713e-24)
(0.00751672 -0.000693789 1.67841e-24)
(0.0074057 -0.000746864 -8.2203e-26)
(0.0072632 -0.000776145 5.24259e-24)
(0.00709252 -0.000775282 -1.40102e-23)
(0.00689769 -0.000737198 2.32097e-23)
(0.00668373 -0.000653924 -1.5657e-23)
(0.00645717 -0.000516205 2.21562e-23)
(0.00622704 -0.000312878 -4.20657e-23)
(0.00600699 -3.01587e-05 1.59521e-23)
(0.00581784 0.000346621 5.47523e-24)
(0.00569207 0.000824005 8.57628e-24)
(0.00566564 0.00136535 -1.06762e-23)
(0.00576026 0.00183451 3.20331e-24)
(0.00594286 0.00188872 -1.97636e-24)
(0.00364392 -0.000296737 -1.08356e-24)
(0.00362284 -0.000313887 -1.6729e-24)
(0.0036291 -0.000293125 -7.20543e-24)
(0.00367224 -0.000249758 1.91086e-24)
(0.00374946 -0.000194019 1.26605e-24)
(0.00385147 -0.000137483 5.76864e-24)
(0.00397209 -8.49784e-05 -1.22952e-23)
(0.00410671 -3.80406e-05 4.62042e-24)
(0.00425211 3.08183e-06 1.59553e-23)
(0.00440623 3.86688e-05 -4.17607e-24)
(0.00456778 6.926e-05 -4.06136e-24)
(0.00473599 9.53986e-05 -6.68926e-25)
(0.00491063 0.000117597 2.30615e-24)
(0.00509185 0.000136423 -4.62984e-24)
(0.00528013 0.000152324 1.02086e-24)
(0.00547646 0.000165503 -4.97252e-25)
(0.00568239 0.000175893 -2.73959e-24)
(0.00590021 0.000183119 8.5442e-25)
(0.006133 0.000186203 4.93673e-24)
(0.00638467 0.000183152 -5.58535e-25)
(0.00665977 0.000170221 -1.16189e-24)
(0.00696118 0.00014104 -3.10256e-25)
(0.00726447 8.85546e-05 -1.61581e-24)
(0.00753136 1.69746e-05 2.69917e-26)
(0.00774912 -6.6764e-05 -3.31034e-24)
(0.00791809 -0.000159003 5.94685e-24)
(0.00804102 -0.000255648 -4.44008e-24)
(0.0081206 -0.000351927 8.26006e-24)
(0.00815881 -0.000444207 -6.26031e-24)
(0.00815781 -0.000529671 1.69403e-24)
(0.0081199 -0.000605016 1.77343e-24)
(0.00804752 -0.000666182 -2.823e-25)
(0.00794338 -0.000708415 -4.05081e-25)
(0.00781079 -0.000726309 -1.64285e-24)
(0.00765377 -0.000713886 2.24475e-24)
(0.00747733 -0.000664657 -7.13792e-24)
(0.00728784 -0.000571617 3.28277e-23)
(0.00709357 -0.000427174 -1.7496e-23)
(0.00690578 -0.000223171 -7.2636e-25)
(0.00674055 4.87908e-05 -3.73835e-23)
(0.00662079 0.000394741 2.82687e-23)
(0.00657796 0.00081072 -1.03888e-23)
(0.00664345 0.00125869 2.23414e-24)
(0.00682197 0.00163388 1.36879e-23)
(0.00706462 0.00173201 -3.53758e-24)
(0.0048258 -0.000267854 -4.49492e-24)
(0.00479433 -0.000296044 9.19717e-24)
(0.00477341 -0.00029337 2.60371e-24)
(0.00477576 -0.000273228 1.14072e-23)
(0.00480443 -0.000235155 -2.81151e-23)
(0.00486033 -0.000188914 -7.97377e-25)