/*--------------------------------*- C++ -*----------------------------------*\
| =========                 |                                                 |
| \\      /  F ield         | OpenFOAM: The Open Source CFD Toolbox           |
|  \\    /   O peration     | Version:  2312                                  |
|   \\  /    A nd           | Website:  www.openfoam.com                      |
|    \\/     M anipulation  |                                                 |
\*---------------------------------------------------------------------------*/
FoamFile
{
    version     2.0;
    format      ascii;
    arch        "LSB;label=32;scalar=64";
    class       volVectorField;
    location    "42";
    object      U;
}
// * * * * * * * * * * * * * * * * * * * * * * * * * * * * * * * * * * * * * //

dimensions      [0 1 -1 0 0 0 0];

internalField   nonuniform List<vector> 
4800
(
(0.000477787 4.42611e-07 -3.28418e-26)
(0.000466079 4.94544e-07 -2.28365e-25)
(0.000458089 5.15445e-07 2.93833e-25)
(0.000452699 5.09854e-07 1.31143e-25)
(0.000449218 4.7994e-07 1.9086e-24)
(0.000447221 4.23093e-07 -4.5289e-24)
(0.000446421 3.59822e-07 4.18557e-24)
(0.000446822 2.69585e-07 -5.98458e-24)
(0.000448246 1.43301e-07 1.94003e-24)
(0.000450853 -1.07043e-07 6.46065e-24)
(0.000455032 -6.1263e-07 -1.99624e-24)
(0.00046209 -1.99064e-06 -1.78146e-25)
(0.000479064 -7.05686e-06 -2.38875e-24)
(0.000523412 -2.74606e-05 1.09511e-24)
(0.000597106 -8.94335e-05 -8.67901e-25)
(0.0014741 2.36425e-06 -1.03452e-25)
(0.0014387 1.89664e-06 1.28888e-25)
(0.00141449 1.5258e-06 -1.1654e-24)
(0.00139807 1.19443e-06 8.77138e-25)
(0.00138735 8.66029e-07 2.73429e-24)
(0.001381 5.04487e-07 -4.33511e-24)
(0.00137816 9.25069e-08 -1.18637e-24)
(0.00137873 -4.44267e-07 -2.44871e-25)
(0.00138209 -1.17461e-06 9.7648e-24)
(0.00138887 -2.42167e-06 -7.20976e-24)
(0.00140012 -4.82011e-06 7.86368e-25)
(0.00141858 -1.05389e-05 1.17959e-24)
(0.00145279 -2.70553e-05 -1.72723e-24)
(0.0015132 -7.72302e-05 -5.05296e-25)
(0.00157851 -0.000189993 2.24344e-24)
(0.00257268 7.57766e-06 -7.36496e-26)
(0.0025122 6.02738e-06 7.53272e-26)
(0.00247077 4.82461e-06 7.60184e-25)
(0.00244256 3.77952e-06 -1.80068e-24)
(0.00242396 2.77758e-06 1.74857e-24)
(0.00241269 1.72065e-06 1.60892e-24)
(0.0024072 4.56704e-07 -4.18576e-24)
(0.00240723 -1.18927e-06 -2.50714e-24)
(0.00241157 -3.34819e-06 6.00978e-24)
(0.00242113 -6.86816e-06 2.24526e-24)
(0.00243702 -1.31679e-05 -7.84438e-24)
(0.0024612 -2.60809e-05 -1.14895e-24)
(0.00249772 -5.4994e-05 3.33466e-24)
(0.00254514 -0.000118454 5.20935e-24)
(0.00257905 -0.000223725 -2.68843e-24)
(0.00378037 1.69101e-05 2.70883e-26)
(0.00369382 1.35025e-05 -1.8792e-25)
(0.00363435 1.08623e-05 8.29937e-25)
(0.00359365 8.58287e-06 8.65647e-25)
(0.00356654 6.42165e-06 -8.81824e-25)
(0.00354968 4.1804e-06 -4.92754e-24)
(0.00354082 1.54424e-06 -3.27338e-24)
(0.00353925 -1.81661e-06 1.22543e-23)
(0.00354333 -6.05913e-06 4.92791e-24)
(0.00355362 -1.27411e-05 -7.25915e-24)
(0.00357066 -2.37813e-05 -2.91153e-24)
(0.00359446 -4.34695e-05 -2.1939e-24)
(0.00362434 -7.96785e-05 7.40933e-26)
(0.00365311 -0.000141998 1.61366e-24)
(0.00366299 -0.000225301 7.86752e-27)
(0.00510233 3.12748e-05 -4.94979e-26)
(0.00498948 2.50399e-05 -3.01554e-25)
(0.00491159 2.02102e-05 -1.84013e-25)
(0.00485794 1.60677e-05 5.12695e-25)
(0.00482175 1.21871e-05 -1.41344e-24)
(0.00479865 8.23498e-06 3.51695e-24)
(0.00478561 3.71639e-06 -6.28483e-25)
(0.00478115 -1.79648e-06 2.09938e-24)
(0.00478359 -8.76125e-06 -1.16401e-23)
(0.00479239 -1.88625e-05 2.20171e-23)
(0.00480714 -3.42246e-05 -2.12804e-23)
(0.00482614 -5.82564e-05 1.1161e-23)
(0.00484608 -9.5746e-05 -1.0306e-23)
(0.00485932 -0.000149589 9.7065e-24)
(0.00485573 -0.000212217 -3.87046e-24)
(0.00654043 5.17632e-05 6.52085e-26)
(0.00640252 4.15894e-05 2.3261e-25)
(0.00630667 3.36962e-05 -1.21902e-24)
(0.00624007 2.69666e-05 -7.47968e-25)
(0.00619453 2.074e-05 2.03934e-24)
(0.00616465 1.45202e-05 7.15304e-25)
(0.00614666 7.6394e-06 -5.55085e-24)
(0.00613823 -4.24885e-07 1.31625e-23)
(0.00613735 -1.03606e-05 -1.69914e-23)
(0.00614271 -2.3772e-05 4.09715e-24)
(0.00615263 -4.23255e-05 1.22257e-23)
(0.00616458 -6.81292e-05 -1.68984e-23)
(0.00617469 -0.000103054 8.46369e-24)
(0.00617724 -0.000146544 8.63488e-24)
(0.00616758 -0.000192451 -6.58157e-24)
(0.00809092 7.9328e-05 5.39061e-26)
(0.00793164 6.40749e-05 -3.17959e-25)
(0.00781977 5.21826e-05 1.1287e-24)
(0.00774117 4.20835e-05 -1.55443e-24)
(0.00768658 3.28454e-05 -5.17403e-24)
(0.00764976 2.37926e-05 8.81443e-24)
(0.00762629 1.41243e-05 -5.27903e-24)
(0.00761308 3.19477e-06 1.77621e-23)
(0.00760764 -9.69007e-06 -1.21025e-23)
(0.00760797 -2.58416e-05 -5.59287e-24)
(0.00761173 -4.63452e-05 -1.08768e-23)
(0.00761612 -7.19983e-05 1.00302e-23)
(0.00761794 -0.000102803 2.81003e-24)
(0.00761364 -0.00013702 2.3967e-24)
(0.00760164 -0.000170575 -2.11257e-24)
(0.00974171 0.000114319 -7.80076e-26)
(0.00956842 9.30548e-05 1.05267e-24)
(0.00944482 7.63078e-05 -2.43411e-24)
(0.00935672 6.20919e-05 -1.94098e-24)
(0.00929446 4.92063e-05 7.72174e-25)
(0.00925129 3.68028e-05 1.45252e-24)
(0.00922238 2.40029e-05 5.04515e-24)
(0.00920407 1.00959e-05 -1.35807e-23)
(0.00919345 -5.54103e-06 -7.08501e-24)
(0.00918807 -2.3777e-05 1.97951e-23)
(0.00918539 -4.51107e-05 -6.05288e-24)
(0.00918287 -6.94734e-05 2.07248e-23)
(0.00917824 -9.60467e-05 -1.09113e-23)
(0.0091695 -0.000123106 -3.47183e-24)
(0.00915656 -0.000148218 2.05886e-24)
(0.0114706 0.000155831 -1.04341e-26)
(0.0112952 0.00012823 5.83467e-25)
(0.0111673 0.000106108 -8.28577e-25)
(0.0110744 8.72353e-05 1.94435e-24)
(0.0110074 7.02191e-05 -1.14734e-23)
(0.0109597 5.4086e-05 1.20803e-23)
(0.0109263 3.79428e-05 -1.86943e-23)
(0.0109034 2.1098e-05 1.1562e-23)
(0.0108879 3.04779e-06 8.48616e-24)
(0.0108771 -1.66488e-05 1.81857e-23)
(0.0108687 -3.80496e-05 -2.37487e-23)
(0.0108606 -6.06895e-05 -4.3516e-24)
(0.0108513 -8.36253e-05 2.03471e-24)
(0.0108397 -0.000105588 1.44136e-23)
(0.0108262 -0.000125227 -5.87159e-24)
(0.0132473 0.000201 5.86164e-26)
(0.0130853 0.000167811 -2.48662e-25)
(0.0129635 0.000140473 1.08861e-24)
(0.0128729 0.00011686 -3.77222e-24)
(0.012806 9.55639e-05 5.67086e-24)
(0.0127571 7.55911e-05 -7.23064e-24)
(0.0127215 5.61079e-05 1.19944e-23)
(0.0126957 3.65152e-05 2.0152e-24)
(0.0126766 1.646e-05 -1.63233e-23)
(0.0126617 -4.20938e-06 2.30656e-23)
(0.0126491 -2.52951e-05 -2.54085e-23)
(0.0126372 -4.62834e-05 -7.42991e-24)
(0.0126249 -6.64263e-05 1.31573e-23)
(0.0126117 -8.49503e-05 3.90196e-24)
(0.0125981 -0.00010117 -1.70748e-24)
(0.0150439 0.000244948 2.47116e-25)
(0.01491 0.000208159 -1.95855e-24)
(0.0148054 0.000176686 -3.02169e-24)
(0.0147253 0.000148933 7.22842e-24)
(0.0146646 0.00012373 3.13967e-24)
(0.014619 0.000100216 -1.97058e-23)
(0.0145847 7.77051e-05 6.14533e-24)
(0.0145586 5.57421e-05 4.37747e-24)
(0.0145382 3.41244e-05 -1.84153e-23)
(0.0145215 1.28539e-05 1.92959e-23)
(0.0145068 -7.81765e-06 -1.5262e-23)
(0.014493 -2.74979e-05 3.93274e-23)
(0.0144797 -4.57003e-05 -1.8897e-23)
(0.0144661 -6.20418e-05 1.11341e-23)
(0.014453 -7.62308e-05 -3.04411e-24)
(0.0168519 0.000282605 -1.08366e-25)
(0.0167526 0.000244697 1.35521e-24)
(0.0166721 0.000210819 -2.58041e-24)
(0.0166086 0.000180143 -1.25434e-24)
(0.0165592 0.00015194 1.41091e-23)
(0.0165211 0.000125625 -2.15242e-24)
(0.0164916 0.000100736 -2.46872e-23)
(0.0164683 7.69871e-05 2.85959e-23)
(0.0164493 5.42904e-05 -6.45898e-24)
(0.0164332 3.27115e-05 -2.20307e-23)
(0.0164188 1.24278e-05 2.34522e-23)
(0.0164053 -6.31806e-06 1.26087e-23)
(0.0163926 -2.33048e-05 -1.06367e-23)
(0.0163799 -3.83881e-05 -1.8435e-23)
(0.0163681 -5.1494e-05 1.55055e-24)
(0.0186918 0.000312304 1.3679e-26)
(0.0186214 0.000274744 -1.54017e-24)
(0.0185634 0.000239858 7.07134e-24)
(0.0185168 0.000207476 3.26846e-25)
(0.0184799 0.000177324 3.78848e-24)
(0.0184509 0.000149126 -1.38884e-23)
(0.0184278 0.000122659 1.16801e-23)
(0.0184091 9.77867e-05 2.5712e-24)
(0.0183934 7.44878e-05 2.37002e-23)
(0.0183796 5.28133e-05 -3.67807e-23)
(0.0183673 3.28561e-05 -1.65864e-23)
(0.0183556 1.4705e-05 -1.09505e-23)
(0.0183447 -1.5913e-06 2.06583e-23)
(0.018334 -1.60498e-05 -5.97541e-25)
(0.0183242 -2.87111e-05 2.0109e-24)
(0.0205916 0.000337046 -1.18731e-26)
(0.0205388 0.000299802 1.61565e-24)
(0.0204955 0.000264275 -2.34093e-24)
(0.0204608 0.000230737 1.34746e-26)
(0.0204332 0.00019925 2.85605e-24)
(0.0204113 0.000169788 7.15615e-24)
(0.0203936 0.000142301 -2.77372e-23)
(0.0203789 0.000116747 2.42554e-24)
(0.0203665 9.31168e-05 1.40188e-23)
(0.0203554 7.14104e-05 -6.40176e-24)
(0.0203453 5.16288e-05 1.75221e-23)
(0.0203359 3.37363e-05 1.22679e-23)
(0.0203271 1.76958e-05 -2.22901e-23)
(0.0203185 3.39673e-06 1.52958e-23)
(0.0203108 -9.27517e-06 -1.27377e-23)
(0.022543 0.000360089 -4.61267e-25)
(0.0225014 0.000323005 2.5677e-26)
(0.0224672 0.000286859 2.81083e-24)
(0.0224398 0.00025232 -1.37199e-23)
(0.0224178 0.000219729 1.20284e-23)
(0.0224002 0.000189245 -8.52068e-24)
(0.0223858 0.00016093 6.15261e-24)
(0.0223737 0.000134786 -4.2901e-23)
(0.0223633 0.000110785 6.1971e-23)
(0.0223541 8.88691e-05 -3.63968e-23)
(0.0223457 6.89597e-05 3.25243e-23)
(0.0223379 5.09486e-05 2.72315e-23)
(0.0223308 3.47154e-05 -4.76425e-23)
(0.0223238 2.01177e-05 1.55345e-23)
(0.0223176 7.01148e-06 -6.54773e-25)
(0.0244828 0.000380815 -1.77429e-26)
(0.0244527 0.000344512 -5.93844e-25)
(0.0244273 0.000308293 5.84281e-25)
(0.0244064 0.000273236 -3.77116e-25)
(0.0243894 0.000239948 4.91415e-24)
(0.0243754 0.000208748 -8.37422e-24)
(0.0243638 0.000179785 7.69586e-24)
(0.0243539 0.000153083 -2.41695e-23)
(0.0243453 0.000128601 5.49017e-23)
(0.0243376 0.000106238 -7.02235e-23)
(0.0243306 8.58733e-05 5.7554e-23)
(0.0243241 6.73573e-05 -1.94558e-23)
(0.0243182 5.05393e-05 1.02002e-24)
(0.0243125 3.52516e-05 4.50567e-24)
(0.0243075 2.13432e-05 -8.63372e-24)
(0.0263141 0.000396687 -1.53061e-24)
(0.0262959 0.000361981 2.36927e-24)
(0.0262801 0.000326512 -3.43413e-25)
(0.0262666 0.000291692 -2.12258e-24)
(0.0262553 0.000258351 8.00734e-24)
(0.0262458 0.000226935 -8.02428e-24)
(0.0262377 0.000197661 -6.99579e-24)
(0.0262306 0.000170581 -1.67827e-23)
(0.0262244 0.00014565 8.667e-24)
(0.0262188 0.000122754 4.08881e-23)
(0.0262136 0.000101754 -2.15975e-23)
(0.0262088 8.24951e-05 1.29142e-23)
(0.0262044 6.48216e-05 -5.30384e-24)
(0.0262001 4.85777e-05 -1.58435e-23)
(0.0261964 3.36152e-05 8.12979e-24)
(0.0279187 0.000406238 5.1614e-25)
(0.0279113 0.000373645 -8.68179e-25)
(0.0279043 0.000339636 1.66131e-25)
(0.027898 0.000305768 -2.07297e-24)
(0.0278925 0.000273006 -2.02175e-24)
(0.0278877 0.000241886 1.22887e-23)
(0.0278835 0.000212678 -9.66559e-24)
(0.0278797 0.000185463 -6.04211e-24)
(0.0278764 0.000160209 5.57451e-24)
(0.0278731 0.000136814 -6.50543e-24)
(0.0278702 0.000115144 1.51867e-23)
(0.0278673 9.50474e-05 7.73175e-24)
(0.0278647 7.63773e-05 -2.88908e-23)
(0.0278621 5.89911e-05 2.00154e-23)
(0.0278599 4.27621e-05 -4.09677e-24)
(0.0291395 0.000408554 1.55465e-24)
(0.0291417 0.000378634 2.55416e-24)
(0.0291427 0.000346701 -5.71742e-24)
(0.0291431 0.000314415 -6.93328e-26)
(0.0291432 0.000282819 9.57177e-25)
(0.0291431 0.000252503 -3.55311e-24)
(0.0291429 0.000223772 -5.33338e-24)
(0.0291426 0.000196735 1.18992e-23)
(0.0291423 0.000171386 1.3062e-23)
(0.0291418 0.000147649 -3.17488e-23)
(0.0291412 0.000125419 1.83159e-23)
(0.0291404 0.000104565 -1.28242e-24)
(0.0291397 8.49632e-05 -1.07636e-24)
(0.0291388 6.64809e-05 1.45727e-24)
(0.0291381 4.89966e-05 -6.74623e-25)
(0.0297583 0.000399688 -4.13717e-24)
(0.0297697 0.000372483 -9.15725e-24)
(0.0297788 0.000343007 4.61368e-24)
(0.0297862 0.000312837 1.71536e-23)
(0.0297925 0.000282974 -4.86525e-24)
(0.0297978 0.000253997 -1.66722e-24)
(0.0298024 0.000226216 8.71435e-25)
(0.0298064 0.000199758 -3.59319e-24)
(0.0298099 0.000174647 1.05885e-23)
(0.0298129 0.000150841 -4.79139e-24)
(0.0298154 0.00012827 3.30856e-24)
(0.0298175 0.000106847 -5.07828e-24)
(0.0298193 8.64881e-05 -6.08199e-24)
(0.0298208 6.71011e-05 9.20502e-24)
(0.0298221 4.85987e-05 -4.06229e-24)
(0.0295685 0.000384271 6.65415e-24)
(0.0295859 0.000359652 -1.55765e-23)
(0.0296006 0.000332662 2.31865e-24)
(0.0296132 0.00030472 2.47818e-23)
(0.0296242 0.000276742 -2.48046e-23)
(0.0296339 0.000249259 9.39077e-24)
(0.0296425 0.000222571 8.10719e-24)
(0.0296501 0.000196813 -1.87146e-23)
(0.0296569 0.000172033 1.57518e-24)
(0.029663 0.000148224 4.98754e-24)
(0.0296684 0.000125357 4.95769e-25)
(0.0296732 0.000103388 7.57836e-25)
(0.0296775 8.22589e-05 -1.29816e-24)
(0.0296815 6.19195e-05 1.15627e-24)
(0.0296851 4.2322e-05 -5.83626e-25)
(0.0286349 0.000359199 4.18549e-24)
(0.0286611 0.00033704 -9.01867e-24)
(0.0286833 0.00031267 -6.91012e-24)
(0.0287021 0.000287276 3.24005e-23)
(0.0287183 0.000261637 -3.098e-23)
(0.0287321 0.000236202 2.92805e-24)
(0.0287441 0.000211229 5.61098e-24)
(0.0287544 0.000186848 3.53566e-24)
(0.0287633 0.000163125 3.76189e-24)
(0.0287709 0.000140081 -1.98306e-23)
(0.0287774 0.000117719 1.25242e-23)
(0.0287829 9.60222e-05 4.46631e-25)
(0.0287875 7.49705e-05 4.9535e-24)
(0.0287913 5.45394e-05 -2.23896e-24)
(0.0287943 3.472e-05 -2.84475e-25)
(0.0270705 0.000325841 1.05375e-23)
(0.0271018 0.00030595 -1.90586e-23)
(0.0271294 0.000284156 3.79772e-24)
(0.0271535 0.000261416 -1.0807e-23)
(0.0271748 0.000238345 -1.54236e-23)
(0.0271937 0.000215299 5.00152e-23)
(0.0272104 0.000192484 -2.04086e-23)
(0.0272252 0.000170021 6.27602e-24)
(0.0272383 0.000147976 -3.69264e-24)
(0.0272498 0.000126388 -1.08572e-23)
(0.02726 0.000105281 2.1164e-23)
(0.027269 8.46697e-05 -1.26995e-23)
(0.0272768 6.45659e-05 1.55258e-24)
(0.0272837 4.4962e-05 2.20765e-24)
(0.0272897 2.58628e-05 -2.61624e-25)
(0.0251908 0.000292872 4.08916e-24)
(0.0252271 0.000274936 -2.19561e-23)
(0.0252595 0.000255383 3.94613e-23)
(0.0252883 0.000234952 -3.13044e-23)
(0.025314 0.000214123 3.36537e-23)
(0.0253369 0.000193172 -1.05417e-23)
(0.0253573 0.00017227 -7.84306e-24)
(0.0253756 0.000151531 -9.73291e-24)
(0.0253918 0.00013103 1.92511e-23)
(0.0254062 0.000110822 7.42424e-25)
(0.0254189 9.0945e-05 -2.01921e-23)
(0.0254302 7.1424e-05 -3.22317e-24)
(0.0254401 5.22727e-05 5.61102e-24)
(0.0254487 3.34782e-05 -1.35366e-24)
(0.0254559 1.50321e-05 3.17325e-25)
(0.0231374 0.00025769 5.47042e-25)
(0.0231788 0.000241615 -8.35622e-24)
(0.0232161 0.00022416 -5.32863e-24)
(0.0232494 0.000205891 4.15054e-23)
(0.0232792 0.000187178 -4.22108e-23)
(0.023306 0.000168246 1.26873e-23)
(0.0233299 0.00014925 2.30604e-24)
(0.0233512 0.000130298 -1.3033e-24)
(0.0233702 0.000111472 -6.79575e-24)
(0.023387 9.28279e-05 3.09449e-23)
(0.0234019 7.44105e-05 -2.52514e-23)
(0.0234149 5.62455e-05 -1.50517e-24)
(0.0234261 3.83596e-05 2.51128e-24)
(0.0234357 2.07913e-05 2.67925e-24)
(0.0234437 3.57179e-06 -2.14556e-24)
(0.0210184 0.000221129 8.16739e-25)
(0.0210639 0.00020691 7.85044e-24)
(0.0211051 0.000191524 -8.94881e-24)
(0.0211419 0.000175407 -6.80614e-24)
(0.021175 0.000158847 4.52673e-23)
(0.0212047 0.000142031 -3.46154e-23)
(0.0212311 0.000125097 -5.69724e-25)
(0.0212547 0.000108143 -8.18736e-24)
(0.0212756 9.12517e-05 -9.21762e-25)
(0.0212939 7.44782e-05 1.10083e-24)
(0.0213099 5.7875e-05 -5.88484e-24)
(0.0213237 4.1485e-05 4.17445e-24)
(0.0213353 2.53436e-05 1.37868e-24)
(0.0213449 9.50173e-06 1.45602e-24)
(0.0213525 -6.03923e-06 2.23755e-24)
(0.0189062 0.000184964 5.8298e-24)
(0.0189541 0.000172642 -9.06733e-24)
(0.0189975 0.00015935 -8.00182e-24)
(0.0190363 0.000145434 2.45742e-23)
(0.0190711 0.000131108 -8.77382e-24)
(0.0191022 0.000116527 -1.37075e-23)
(0.0191299 0.000101808 4.65788e-24)
(0.0191543 8.70415e-05 1.19183e-23)
(0.0191757 7.23036e-05 -2.01273e-23)
(0.0191943 5.76522e-05 2.09588e-23)
(0.0192101 4.3136e-05 -1.19259e-23)
(0.0192234 2.88029e-05 5.54946e-24)
(0.0192342 1.46895e-05 -8.32099e-24)
(0.0192426 7.99331e-07 8.7498e-24)
(0.0192485 -1.28313e-05 -2.3249e-24)
(0.016846 0.000150878 -1.13193e-24)
(0.0168943 0.000140478 -4.15851e-24)
(0.0169379 0.000129294 -1.39306e-23)
(0.016977 0.000117597 3.902e-23)
(0.0170119 0.00010554 -6.57942e-24)
(0.0170429 9.32428e-05 -1.17331e-23)
(0.0170702 8.08079e-05 4.59681e-24)
(0.0170942 6.83149e-05 -6.57294e-24)
(0.0171148 5.58278e-05 -1.59201e-23)
(0.0171324 4.34037e-05 1.5222e-23)
(0.0171469 3.10855e-05 7.36221e-25)
(0.0171586 1.89163e-05 -6.24695e-24)
(0.0171675 6.94444e-06 7.06935e-24)
(0.0171737 -4.8536e-06 5.69853e-25)
(0.0171772 -1.63888e-05 -6.97093e-25)
(0.0148655 0.000120128 4.35485e-24)
(0.0149123 0.000111613 6.88326e-24)
(0.0149545 0.000102485 -5.98435e-24)
(0.0149922 9.29461e-05 -1.4583e-23)
(0.0150258 8.30956e-05 2.05268e-23)
(0.0150555 7.30294e-05 -2.34455e-23)
(0.0150814 6.28339e-05 -1.5876e-24)
(0.0151038 5.25764e-05 9.59671e-24)
(0.0151228 4.23137e-05 3.58631e-24)
(0.0151386 3.20946e-05 -8.49156e-24)
(0.0151511 2.19676e-05 -7.15736e-25)
(0.0151606 1.19666e-05 1.95733e-23)
(0.0151671 2.12348e-06 -7.5842e-24)
(0.0151708 -7.54024e-06 -2.19791e-24)
(0.0151716 -1.6964e-05 -1.60097e-25)
(0.0129818 9.33984e-05 -4.52175e-24)
(0.0130259 8.66517e-05 5.86838e-24)
(0.0130655 7.94468e-05 7.6363e-25)
(0.0131008 7.19137e-05 1.34647e-23)
(0.0131322 6.41141e-05 -1.06759e-23)
(0.0131597 5.61283e-05 1.21056e-24)
(0.0131835 4.80272e-05 -1.00625e-24)
(0.0132038 3.98678e-05 -3.85381e-24)
(0.0132207 3.1698e-05 3.98792e-24)
(0.0132343 2.35617e-05 -1.29553e-23)
(0.0132447 1.55012e-05 4.34816e-25)
(0.013252 7.54907e-06 3.12292e-24)
(0.0132562 -2.84807e-07 2.19877e-24)
(0.0132574 -7.93916e-06 9.69437e-25)
(0.0132558 -1.54003e-05 4.32954e-25)
(0.0112062 7.0865e-05 3.34833e-24)
(0.0112465 6.57038e-05 -2.61576e-24)
(0.0112828 6.02163e-05 -1.25999e-23)
(0.0113151 5.44646e-05 1.18594e-23)
(0.0113438 4.84903e-05 1.8071e-23)
(0.0113687 4.23618e-05 -3.9332e-24)
(0.0113902 3.61353e-05 -9.55073e-24)
(0.0114082 2.98565e-05 -1.49571e-23)
(0.011423 2.35646e-05 1.15815e-23)
(0.0114345 1.72966e-05 8.7241e-25)
(0.0114429 1.1087e-05 -2.96568e-24)
(0.0114483 4.96302e-06 -9.88867e-25)
(0.0114506 -1.06055e-06 1.98787e-24)
(0.0114501 -6.93881e-06 -4.17989e-27)
(0.0114468 -1.26672e-05 -4.91004e-25)
(0.00954539 5.23525e-05 -2.10733e-24)
(0.00958155 4.85515e-05 -1.649e-24)
(0.00961411 4.45296e-05 1.81957e-24)
(0.00964317 4.02926e-05 -6.64423e-24)
(0.00966882 3.58769e-05 2.20694e-23)
(0.00969114 3.13384e-05 -3.05747e-23)
(0.00971021 2.67191e-05 3.12823e-23)
(0.00972612 2.20539e-05 -1.36069e-23)
(0.00973893 1.73739e-05 3.49212e-24)
(0.00974873 1.27079e-05 3.21931e-25)
(0.00975556 8.08539e-06 -2.78559e-24)
(0.00975951 3.52646e-06 1.30181e-24)
(0.00976063 -9.45646e-07 -2.595e-24)
(0.00975904 -5.31551e-06 -4.20545e-25)
(0.00975479 -9.57672e-06 2.27978e-25)
(0.00800316 3.74924e-05 -1.02437e-24)
(0.0080349 3.48087e-05 2.31613e-25)
(0.00806359 3.19821e-05 5.83451e-25)
(0.00808924 2.89815e-05 -2.9962e-24)
(0.00811189 2.58448e-05 -1.552e-24)
(0.00813159 2.26136e-05 1.25158e-23)
(0.00814839 1.93176e-05 -7.48438e-24)
(0.00816234 1.5983e-05 1.19977e-24)
(0.00817349 1.26327e-05 -1.13485e-24)
(0.00818189 9.28909e-06 -1.38664e-24)
(0.00818759 5.9726e-06 -5.29057e-25)
(0.00819067 2.70748e-06 2.99827e-24)
(0.00819118 -4.91606e-07 1.06125e-24)
(0.00818919 -3.62404e-06 -2.04931e-24)
(0.00818477 -6.68758e-06 -3.77293e-25)
(0.00658047 2.58368e-05 -3.72813e-25)
(0.00660774 2.40318e-05 -1.42779e-25)
(0.00663252 2.21379e-05 -6.51185e-24)
(0.00665474 2.01079e-05 1.49315e-24)
(0.00667442 1.79804e-05 -5.32629e-24)
(0.00669157 1.5783e-05 3.20148e-24)
(0.00670621 1.35357e-05 6.99114e-24)
(0.00671838 1.12572e-05 5.78193e-24)
(0.00672809 8.96388e-06 -8.39044e-24)
(0.0067354 6.67165e-06 2.54496e-24)
(0.00674033 4.39337e-06 2.47553e-24)
(0.00674294 2.15259e-06 -3.88746e-24)
(0.0067433 -3.35176e-08 2.09501e-24)
(0.00674145 -2.18669e-06 -2.77852e-25)
(0.00673744 -4.30271e-06 7.04294e-25)
(0.00527609 1.69296e-05 -1.46191e-24)
(0.0052989 1.57848e-05 -2.13522e-24)
(0.00531977 1.45873e-05 -5.3647e-25)
(0.00533858 1.32899e-05 5.4207e-24)
(0.0053553 1.19274e-05 -4.08021e-24)
(0.00536994 1.05157e-05 -9.72754e-25)
(0.0053825 9.06746e-06 7.10505e-24)
(0.00539298 7.59536e-06 1.91395e-25)
(0.0054014 6.11029e-06 -1.44737e-24)
(0.00540779 4.62314e-06 -6.30448e-24)
(0.00541216 3.14169e-06 4.32819e-25)
(0.00541456 1.68026e-06 4.84124e-24)
(0.00541504 2.57993e-07 -6.37207e-25)
(0.00541369 -1.12318e-06 -8.82984e-25)
(0.00541044 -2.52009e-06 6.17161e-25)
(0.00408687 1.03391e-05 -3.20009e-25)
(0.00410529 9.6655e-06 7.60694e-27)
(0.00412228 8.96397e-06 2.56734e-24)
(0.00413766 8.19577e-06 1.88817e-24)
(0.00415143 7.38792e-06 -1.11254e-24)
(0.00416355 6.54744e-06 -3.19733e-24)
(0.00417402 5.68221e-06 1.41141e-24)
(0.00418283 4.79997e-06 -6.19528e-24)
(0.00418998 3.90751e-06 4.82024e-24)
(0.00419549 3.01178e-06 2.78675e-24)
(0.00419937 2.11742e-06 1.92634e-25)
(0.00420165 1.23217e-06 -3.31429e-24)
(0.00420234 3.65683e-07 6.69024e-25)
(0.0042016 -4.54253e-07 -5.8426e-25)
(0.00419927 -1.30908e-06 3.16908e-25)
(0.00300815 5.66976e-06 -5.90323e-25)
(0.00302226 5.31131e-06 -9.29982e-27)
(0.00303539 4.94242e-06 2.04734e-24)
(0.00304733 4.53551e-06 -1.28834e-24)
(0.0030581 4.10722e-06 5.77971e-24)
(0.00306765 3.65977e-06 -1.07213e-23)
(0.00307597 3.19748e-06 9.15122e-24)
(0.00308305 2.72464e-06 -8.00434e-24)
(0.00308887 2.24502e-06 6.04486e-24)
(0.00309344 1.76264e-06 -4.11295e-24)
(0.00309677 1.28015e-06 1.45156e-24)
(0.00309887 8.02043e-07 2.28124e-25)
(0.00309975 3.26665e-07 4.35741e-25)
(0.00309953 -1.1051e-07 -5.54064e-25)
(0.00309811 -5.72339e-07 1.30535e-25)
(0.00203406 2.58031e-06 8.9767e-25)
(0.00204396 2.4155e-06 1.03798e-24)
(0.00205326 2.25207e-06 -4.38623e-24)
(0.00206177 2.07198e-06 3.29413e-24)
(0.00206949 1.88254e-06 9.42932e-28)
(0.0020764 1.68414e-06 9.87729e-25)
(0.00208247 1.47885e-06 -1.12874e-24)
(0.00208769 1.26871e-06 -2.63866e-24)
(0.00209205 1.05551e-06 2.69692e-24)
(0.00209555 8.41209e-07 3.62842e-25)
(0.00209818 6.27242e-07 -2.47904e-24)
(0.00209996 4.15937e-07 8.81029e-25)
(0.00210088 2.05291e-07 6.13675e-25)
(0.00210101 1.14069e-08 -6.57151e-26)
(0.00210034 -1.88354e-07 -8.7692e-26)
(0.00115794 8.16992e-07 -9.07967e-25)
(0.00116376 7.67864e-07 2.84326e-24)
(0.00116927 7.23476e-07 1.85153e-24)
(0.00117435 6.72708e-07 -3.17964e-24)
(0.00117899 6.17309e-07 -3.80494e-25)
(0.00118318 5.57586e-07 -3.67051e-25)
(0.0011869 4.9447e-07 1.20022e-24)
(0.00119014 4.28887e-07 -2.08461e-24)
(0.00119288 3.616e-07 3.01926e-24)
(0.00119513 2.93441e-07 -1.47292e-24)
(0.00119687 2.25165e-07 -1.07839e-24)
(0.00119812 1.58572e-07 6.8788e-25)
(0.00119886 9.21673e-08 -9.60123e-25)
(0.00119914 3.4403e-08 1.00096e-24)
(0.00119895 -2.64656e-08 -1.90651e-25)
(0.000372654 1.51233e-07 -6.52511e-27)
(0.000374531 1.84717e-07 5.62235e-25)
(0.000376331 2.13858e-07 6.88398e-25)
(0.000378005 2.34873e-07 -1.03942e-24)
(0.000379556 2.47988e-07 2.35962e-24)
(0.000380973 2.53397e-07 -2.54923e-24)
(0.000382247 2.51444e-07 1.83682e-25)
(0.000383371 2.42491e-07 1.62533e-24)
(0.000384341 2.26894e-07 -2.2557e-24)
(0.000385152 2.05035e-07 -4.81779e-25)
(0.000385804 1.77361e-07 1.79321e-24)
(0.000386294 1.44988e-07 -8.15217e-25)
(0.000386618 1.07988e-07 -3.62465e-25)
(0.000386789 6.82905e-08 3.11636e-25)
(0.000386808 2.39351e-08 -1.5964e-26)
(0.000883987 -0.000233097 8.52076e-26)
(0.00101036 -0.00015412 2.21296e-24)
(0.00122408 -7.13863e-05 -6.4054e-24)
(0.00144265 -1.78411e-06 9.39789e-24)
(0.00165318 5.63253e-05 -3.52462e-24)
(0.00186084 0.000103701 -3.4555e-24)
(0.00206611 0.000142448 3.96111e-24)
(0.00227002 0.000174221 -7.92894e-24)
(0.00247349 0.000200268 4.40046e-25)
(0.00267722 0.000221553 5.08355e-24)
(0.00288167 0.000238862 -9.96747e-25)
(0.00308728 0.000252861 1.10492e-24)
(0.00329458 0.00026415 -9.32518e-26)
(0.00350435 0.000273309 7.69798e-25)
(0.00371763 0.000280785 -2.8451e-24)
(0.00393597 0.000286796 1.58596e-24)
(0.00416159 0.000291269 -5.51783e-25)
(0.00439759 0.000293783 1.45377e-26)
(0.00464831 0.000293218 1.40376e-24)
(0.00491917 0.000287335 -8.92002e-25)
(0.00521673 0.000271524 1.12275e-25)
(0.0055454 0.000237932 -9.73529e-26)
(0.00587839 0.000177695 1.71383e-25)
(0.00617161 9.42577e-05 6.09513e-25)
(0.00641009 -4.76934e-06 -1.09764e-24)
(0.00659404 -0.000114659 -6.50795e-25)
(0.00672664 -0.000230812 9.13766e-26)
(0.00681118 -0.000348397 1.49699e-24)
(0.00685003 -0.000463979 1.65312e-24)
(0.0068453 -0.000574936 -3.18697e-24)
(0.00679893 -0.000678123 1.73998e-24)
(0.00671258 -0.000769519 -8.71725e-25)
(0.00658784 -0.000844212 -1.13086e-25)
(0.00642646 -0.000896427 -1.85875e-24)
(0.00623034 -0.000919572 1.8135e-24)
(0.00600158 -0.000906182 1.01285e-23)
(0.00574236 -0.000847633 -3.0749e-24)
(0.00545499 -0.000733402 2.22302e-24)
(0.00514197 -0.000549704 1.06383e-24)
(0.00480658 -0.000277884 -1.37733e-23)
(0.00445153 0.000104488 -1.65423e-25)
(0.00408049 0.000611635 5.64774e-24)
(0.00367938 0.00121361 1.80063e-24)
(0.00326152 0.00178176 -7.92085e-24)
(0.00302317 0.00191933 -3.96233e-25)
(0.00166592 -0.000309443 -2.51779e-24)
(0.00171727 -0.000263539 -3.60116e-24)
(0.00184804 -0.000183462 7.50957e-24)
(0.00201329 -0.000107156 3.56754e-24)
(0.00218977 -3.9442e-05 -1.24821e-23)
(0.00237333 1.76195e-05 1.34154e-23)
(0.00256054 6.50961e-05 -4.81895e-24)
(0.00275016 0.000104571 3.93479e-24)
(0.00294191 0.000137407 -5.19593e-24)
(0.00313575 0.000164706 4.86307e-26)
(0.00333178 0.000187373 -2.92004e-24)
(0.00353017 0.000206143 5.83766e-24)
(0.00373134 0.000221656 -3.30918e-24)
(0.00393592 0.000234517 -3.21773e-24)
(0.00414487 0.000245186 -2.40361e-24)
(0.00435959 0.000253873 4.17601e-24)
(0.00458216 0.000260498 -6.34322e-25)
(0.00481543 0.000264628 2.52389e-24)
(0.00506341 0.000265147 4.69364e-25)
(0.00533105 0.000259863 -8.01423e-25)
(0.00562439 0.000244375 -3.45698e-25)
(0.0059474 0.000211264 -2.00221e-25)
(0.00627395 0.000152296 9.33593e-25)
(0.00656147 7.13238e-05 1.0156e-24)
(0.00679563 -2.40982e-05 -1.01651e-24)
(0.00697667 -0.000129582 -4.12829e-24)
(0.00710766 -0.000240626 5.30448e-24)
(0.00719175 -0.000352378 -3.40283e-24)
(0.00723118 -0.000461298 1.11244e-24)
(0.00722807 -0.000564704 -4.01827e-25)
(0.0071845 -0.000659415 2.32967e-24)
(0.00710241 -0.000741388 -1.39873e-24)
(0.00698378 -0.000805733 -1.73612e-24)
(0.00683085 -0.00084673 1.00362e-23)
(0.00664623 -0.000857858 -1.58814e-23)
(0.00643297 -0.000831743 4.24371e-24)
(0.00619468 -0.000759895 1.75807e-23)
(0.00593581 -0.000632075 -5.0816e-24)
(0.00566223 -0.000435151 -1.36446e-23)
(0.00538299 -0.000151603 -7.96711e-24)
(0.00511147 0.000239783 1.81899e-23)
(0.00487062 0.000754436 -1.74385e-23)
(0.00468453 0.001363 -4.00535e-24)
(0.00459146 0.00192612 1.13649e-23)
(0.00463605 0.00200616 3.8353e-24)
(0.00259238 -0.000315177 -2.87481e-26)
(0.00259743 -0.000308124 -4.09505e-24)
(0.00265139 -0.000258854 7.98314e-24)
(0.00275413 -0.00019266 6.83273e-24)
(0.00288302 -0.000125745 -1.1113e-23)
(0.00302979 -6.48547e-05 2.22047e-25)
(0.00318816 -1.19017e-05 1.08953e-24)
(0.00335459 3.34539e-05 1.20346e-23)
(0.00352715 7.20503e-05 -1.42918e-23)
(0.0037048 0.000104783 8.99892e-24)
(0.00388696 0.000132489 2.93001e-24)
(0.00407341 0.000155869 -1.5642e-23)
(0.00426429 0.000175537 5.67873e-24)
(0.00446003 0.000192097 2.41172e-24)
(0.00466139 0.000205994 -5.34478e-24)
(0.00486961 0.000217418 8.99961e-24)
(0.00508656 0.000226271 -6.6006e-24)
(0.00531483 0.000232102 -2.39523e-25)
(0.00555805 0.0002338 5.01927e-25)
(0.00582067 0.00022922 6.11461e-25)
(0.00610813 0.000214173 8.5177e-26)
(0.00642386 0.000181676 3.67958e-25)
(0.00674242 0.000124118 -9.28499e-25)
(0.00702286 4.57653e-05 2.67825e-24)
(0.0072515 -4.58888e-05 -3.98957e-24)
(0.00742858 -0.00014673 2.25019e-24)
(0.0075571 -0.000252429 -4.45044e-24)
(0.00764005 -0.000358073 5.94109e-24)
(0.00767954 -0.000460004 -4.44391e-24)
(0.00767772 -0.000555493 1.01223e-24)
(0.00763685 -0.000641332 1.40679e-24)
(0.00755915 -0.000713475 1.7118e-24)
(0.00744703 -0.000767086 -9.37683e-26)
(0.00730328 -0.000796562 5.21023e-24)
(0.00713125 -0.000795581 -1.39333e-23)
(0.00693501 -0.000757079 2.30923e-23)
(0.00671964 -0.000673091 -1.55832e-23)
(0.0064917 -0.000534355 2.20601e-23)
(0.00626019 -0.00032969 -4.19069e-23)
(0.00603891 -4.52485e-05 1.59006e-23)
(0.00584867 0.000333628 5.46413e-24)
(0.00572211 0.000813908 8.58584e-24)
(0.00569561 0.00135929 -1.06996e-23)
(0.00579105 0.00183367 3.23869e-24)
(0.00597579 0.00189229 -2.00768e-24)
(0.00364911 -0.00029626 -1.07302e-24)
(0.00362761 -0.0003133 -1.65814e-24)
(0.00363349 -0.000292383 -7.14116e-24)
(0.00367622 -0.000248695 1.88348e-24)
(0.00375303 -0.000192501 1.24688e-24)
(0.00385468 -0.000135385 5.70554e-24)
(0.00397503 -8.21525e-05 -1.21751e-23)
(0.0041095 -3.43451e-05 4.5666e-24)
(0.0042549 7.75536e-06 1.58119e-23)
(0.0044092 4.44195e-05 -4.13222e-24)
(0.00457112 7.61506e-05 -4.0283e-24)
(0.00473992 0.000103446 -6.64841e-25)
(0.00491538 0.000126791 2.29867e-24)
(0.00509767 0.000146724 -4.62111e-24)
(0.0052873 0.000163636 1.01612e-24)
(0.00548527 0.000177661 -5.02637e-25)
(0.00569325 0.000188663 -2.76148e-24)
(0.0059135 0.000196164 8.52634e-25)
(0.00614927 0.000199052 4.98356e-24)
(0.00640442 0.000195227 -5.62737e-25)
(0.00668377 0.000180717 -1.17536e-24)
(0.0069901 0.000148979 -3.13771e-25)
(0.00729866 9.30197e-05 -1.63134e-24)
(0.00757023 1.75112e-05 3.04238e-26)
(0.00779175 -7.01144e-05 -3.32921e-24)
(0.00796347 -0.00016601 5.98758e-24)
(0.00808831 -0.000266055 -4.45769e-24)
(0.00816913 -0.000365248 8.29024e-24)
(0.00820791 -0.000459803 -6.27666e-24)
(0.00820684 -0.000546975 1.69778e-24)
(0.00816839 -0.000623563 1.77854e-24)
(0.00809511 -0.000685562 -2.81095e-25)
(0.00798983 -0.000728263 -4.03027e-25)
(0.00785592 -0.000746293 -1.63074e-24)
(0.00769749 -0.000733701 2.22743e-24)
(0.0075196 -0.000684011 -7.08862e-24)
(0.00732865 -0.000590225 3.26147e-23)
(0.00713296 -0.000444745 -1.73896e-23)
(0.00694384 -0.0002394 -7.1993e-25)
(0.00677739 3.42602e-05 -3.72339e-23)
(0.00665662 0.000382181 2.818e-23)
(0.00661317 0.000800681 -1.04014e-23)
(0.00667873 0.00125193 2.19829e-24)
(0.00685822 0.0016312 1.38198e-23)
(0.00710312 0.00173341 -3.60642e-24)
(0.0048336 -0.000266973 -4.44497e-24)
(0.00480171 -0.000295063 9.08795e-24)
(0.00478029 -0.000292301 2.58685e-24)
(0.00478221 -0.000271779 1.13275e-23)
(0.00481044 -0.000233301 -2.77719e-23)