/*--------------------------------*- C++ -*----------------------------------*\
| =========                 |                                                 |
| \\      /  F ield         | OpenFOAM: The Open Source CFD Toolbox           |
|  \\    /   O peration     | Version:  2312                                  |
|   \\  /    A nd           | Website:  www.openfoam.com                      |
|    \\/     M anipulation  |                                                 |
\*---------------------------------------------------------------------------*/
FoamFile
{
    version     2.0;
    format      ascii;
    arch        "LSB;label=32;scalar=64";
    class       volScalarField;
    location    "70.5";
    object      p;
}
// * * * * * * * * * * * * * * * * * * * * * * * * * * * * * * * * * * * * * //

dimensions      [0 2 -2 0 0 0 0];

internalField   nonuniform List<scalar> 
4800
(
5.59795e-13
-1.3924e-06
-2.48103e-06
-3.34904e-06
-4.05349e-06
-4.63395e-06
-5.12071e-06
-5.5411e-06
-5.90514e-06
-6.22573e-06
-6.51252e-06
-6.76751e-06
-6.98638e-06
-7.4004e-06
-8.91824e-06
1.82562e-08
-1.37257e-06
-2.46085e-06
-3.32935e-06
-4.03498e-06
-4.61757e-06
-5.10721e-06
-5.53174e-06
-5.90146e-06
-6.23091e-06
-6.53466e-06
-6.8275e-06
-7.12374e-06
-7.52896e-06
-8.27733e-06
3.71841e-08
-1.35194e-06
-2.43988e-06
-3.30897e-06
-4.01602e-06
-4.6008e-06
-5.09213e-06
-5.51979e-06
-5.89421e-06
-6.23008e-06
-6.54335e-06
-6.84967e-06
-7.15726e-06
-7.47539e-06
-7.78294e-06
5.58892e-08
-1.33114e-06
-2.41841e-06
-3.28778e-06
-3.99584e-06
-4.58248e-06
-5.07478e-06
-5.50381e-06
-5.8805e-06
-6.21761e-06
-6.52872e-06
-6.82164e-06
-7.0892e-06
-7.30285e-06
-7.39736e-06
7.58374e-08
-1.30855e-06
-2.39472e-06
-3.26395e-06
-3.97251e-06
-4.56001e-06
-5.05325e-06
-5.48085e-06
-5.85616e-06
-6.18799e-06
-6.48521e-06
-6.7469e-06
-6.95567e-06
-7.07598e-06
-7.05682e-06
9.83578e-08
-1.28283e-06
-2.36742e-06
-3.23594e-06
-3.94428e-06
-4.53127e-06
-5.0242e-06
-5.44761e-06
-5.81633e-06
-6.13535e-06
-6.40815e-06
-6.62813e-06
-6.77616e-06
-6.82507e-06
-6.74914e-06
1.2556e-07
-1.25196e-06
-2.33438e-06
-3.20144e-06
-3.90847e-06
-4.49332e-06
-4.98299e-06
-5.3994e-06
-5.75561e-06
-6.05438e-06
-6.29521e-06
-6.4701e-06
-6.56468e-06
-6.56524e-06
-6.46564e-06
1.61393e-07
-1.21217e-06
-2.29182e-06
-3.15646e-06
-3.8607e-06
-4.44137e-06
-4.92433e-06
-5.32975e-06
-5.66797e-06
-5.94086e-06
-6.14657e-06
-6.27946e-06
-6.33269e-06
-6.30422e-06
-6.19876e-06
2.12346e-07
-1.15724e-06
-2.23355e-06
-3.09462e-06
-3.79426e-06
-4.3683e-06
-4.84156e-06
-5.2313e-06
-5.54739e-06
-5.79175e-06
-5.96376e-06
-6.06214e-06
-6.08717e-06
-6.04437e-06
-5.94294e-06
2.87699e-07
-1.07803e-06
-2.1504e-06
-3.00666e-06
-3.69969e-06
-4.26443e-06
-4.7244e-06
-5.09576e-06
-5.38788e-06
-5.6045e-06
-5.74787e-06
-5.82128e-06
-5.83012e-06
-5.78376e-06
-5.69235e-06
3.99112e-07
-9.62561e-07
-2.03014e-06
-2.88019e-06
-3.56463e-06
-4.11773e-06
-4.56227e-06
-4.91398e-06
-5.18301e-06
-5.37581e-06
-5.49791e-06
-5.55617e-06
-5.55891e-06
-5.51678e-06
-5.43928e-06
5.59997e-07
-7.96477e-07
-1.85781e-06
-2.70004e-06
-3.37414e-06
-3.91404e-06
-4.3425e-06
-4.67567e-06
-4.92528e-06
-5.10049e-06
-5.20964e-06
-5.26182e-06
-5.26656e-06
-5.23432e-06
-5.17345e-06
7.85793e-07
-5.62895e-07
-1.61578e-06
-2.44838e-06
-3.11091e-06
-3.63726e-06
-4.05086e-06
-4.36897e-06
-4.60504e-06
-4.77025e-06
-4.87479e-06
-4.92881e-06
-4.94195e-06
-4.92386e-06
-4.88168e-06
1.09501e-06
-2.41354e-07
-1.28276e-06
-2.10391e-06
-2.75445e-06
-3.26847e-06
-3.67039e-06
-3.97884e-06
-4.2086e-06
-4.37205e-06
-4.48001e-06
-4.54275e-06
-4.56954e-06
-4.56907e-06
-4.54747e-06
1.50928e-06
1.92622e-07
-8.33162e-07
-1.64106e-06
-2.28006e-06
-2.78447e-06
-3.17947e-06
-3.48476e-06
-3.71595e-06
-3.88589e-06
-4.00491e-06
-4.08267e-06
-4.12787e-06
-4.14841e-06
-4.14967e-06
2.05142e-06
7.65786e-07
-2.3825e-07
-1.03072e-06
-1.65943e-06
-2.15814e-06
-2.55206e-06
-2.8612e-06
-3.10117e-06
-3.28507e-06
-3.42216e-06
-3.52085e-06
-3.58914e-06
-3.63434e-06
-3.66143e-06
2.74162e-06
1.50297e-06
5.29583e-07
-2.43744e-07
-8.62965e-07
-1.36063e-06
-1.76034e-06
-2.08085e-06
-2.33648e-06
-2.54104e-06
-2.70264e-06
-2.8281e-06
-2.92447e-06
-2.99849e-06
-3.05503e-06
3.59258e-06
2.42135e-06
1.49031e-06
7.41603e-07
1.33089e-07
-3.65856e-07
-7.77265e-07
-1.11765e-06
-1.39578e-06
-1.62757e-06
-1.82011e-06
-1.97886e-06
-2.10983e-06
-2.21898e-06
-2.31072e-06
4.60373e-06
3.52316e-06
2.64834e-06
1.9309e-06
1.33539e-06
8.36894e-07
4.15255e-07
5.31407e-08
-2.55893e-07
-5.21632e-07
-7.50148e-07
-9.47406e-07
-1.11934e-06
-1.27099e-06
-1.40592e-06
5.75102e-06
4.7829e-06
3.97816e-06
3.29914e-06
2.71851e-06
2.2189e-06
1.78666e-06
1.40946e-06
1.07104e-06
7.7185e-07
5.07258e-07
2.70745e-07
5.63754e-08
-1.40039e-07
-3.2139e-07
6.9258e-06
6.07733e-06
5.34812e-06
4.71298e-06
4.15185e-06
3.64807e-06
3.19418e-06
2.78737e-06
2.4241e-06
2.09275e-06
1.78765e-06
1.50434e-06
1.23919e-06
9.89827e-07
7.54337e-07
7.93989e-06
7.19613e-06
6.53649e-06
5.9428e-06
5.40273e-06
4.90959e-06
4.45265e-06
4.02355e-06
3.61987e-06
3.25094e-06
2.90876e-06
2.584e-06
2.27317e-06
1.97584e-06
1.69102e-06
8.7142e-06
8.04781e-06
7.43824e-06
6.87493e-06
6.34938e-06
5.85496e-06
5.38719e-06
4.94577e-06
4.53054e-06
4.13935e-06
3.76642e-06
3.40697e-06
3.05927e-06
2.72282e-06
2.39645e-06
9.27782e-06
8.66904e-06
8.09779e-06
7.55812e-06
7.04512e-06
6.55602e-06
6.08928e-06
5.64441e-06
5.21768e-06
4.80644e-06
4.40793e-06
4.02034e-06
3.64245e-06
3.27331e-06
2.9118e-06
9.67623e-06
9.11095e-06
8.57024e-06
8.05152e-06
7.55244e-06
7.0711e-06
6.60608e-06
6.15438e-06
5.71562e-06
5.28774e-06
4.86942e-06
4.45954e-06
4.05697e-06
3.66081e-06
3.27028e-06
9.94845e-06
9.41665e-06
8.90069e-06
8.39954e-06
7.91157e-06
7.43518e-06
6.96923e-06
6.51298e-06
6.06532e-06
5.62525e-06
5.19189e-06
4.76439e-06
4.34192e-06
3.92398e-06
3.51007e-06
1.01275e-05
9.62176e-06
9.12533e-06
8.63775e-06
8.15809e-06
7.68622e-06
7.22041e-06
6.76093e-06
6.30675e-06
5.85737e-06
5.41218e-06
4.97063e-06
4.5323e-06
4.09695e-06
3.6643e-06
1.02406e-05
9.75523e-06
9.27416e-06
8.79746e-06
8.32484e-06
7.85627e-06
7.39176e-06
6.93004e-06
6.47093e-06
6.01424e-06
5.55967e-06
5.10699e-06
4.65603e-06
4.20675e-06
3.75906e-06
1.03091e-05
9.83994e-06
9.37134e-06
8.90374e-06
8.43728e-06
7.97192e-06
7.50803e-06
7.04461e-06
6.58167e-06
6.11922e-06
5.65721e-06
5.19564e-06
4.73454e-06
4.27404e-06
3.81421e-06
1.03488e-05
9.89295e-06
9.43464e-06
8.9747e-06
8.51344e-06
8.05092e-06
7.58749e-06
7.12275e-06
6.65677e-06
6.18969e-06
5.72166e-06
5.25285e-06
4.78346e-06
4.31378e-06
3.84403e-06
1.03711e-05
9.9262e-06
9.47649e-06
9.02299e-06
8.56612e-06
8.10602e-06
7.64306e-06
7.17726e-06
6.70876e-06
6.23784e-06
5.7648e-06
5.28996e-06
4.81365e-06
4.33631e-06
3.85828e-06
1.03834e-05
9.94772e-06
9.50528e-06
9.05725e-06
8.60409e-06
8.14602e-06
7.68346e-06
7.21675e-06
6.74608e-06
6.27188e-06
5.79455e-06
5.31457e-06
4.83236e-06
4.34849e-06
3.8634e-06
1.03904e-05
9.96266e-06
9.52643e-06
9.08306e-06
8.63302e-06
8.17664e-06
7.71435e-06
7.24684e-06
6.77425e-06
6.29716e-06
5.81609e-06
5.33161e-06
4.84427e-06
4.35471e-06
3.86349e-06
1.03951e-05
9.97415e-06
9.54325e-06
9.10386e-06
8.65644e-06
8.2015e-06
7.73933e-06
7.27108e-06
6.79674e-06
6.31704e-06
5.83264e-06
5.34417e-06
4.85229e-06
4.35771e-06
3.86107e-06
1.0399e-05
9.98398e-06
9.55767e-06
9.12169e-06
8.67648e-06
8.22245e-06
7.7606e-06
7.2916e-06
6.81564e-06
6.33358e-06
5.84617e-06
5.35412e-06
4.85816e-06
4.3591e-06
3.85763e-06
1.0403e-05
9.99303e-06
9.57072e-06
9.13765e-06
8.69432e-06
8.24116e-06
7.77947e-06
7.30961e-06
6.83217e-06
6.34794e-06
5.85779e-06
5.3625e-06
4.86288e-06
4.35979e-06
3.85399e-06
1.04072e-05
1.00017e-05
9.58284e-06
9.15226e-06
8.71051e-06
8.258e-06
7.79648e-06
7.32576e-06
6.84693e-06
6.36072e-06
5.86808e-06
5.36988e-06
4.86696e-06
4.36025e-06
3.85057e-06
1.04118e-05
1.00102e-05
9.59432e-06
9.16587e-06
8.72546e-06
8.2735e-06
7.81194e-06
7.34049e-06
6.86036e-06
6.37233e-06
5.87746e-06
5.37662e-06
4.87072e-06
4.36071e-06
3.84751e-06
1.0417e-05
1.00191e-05
9.60591e-06
9.17938e-06
8.74017e-06
8.28872e-06
7.8269e-06
7.35482e-06
6.87339e-06
6.38362e-06
5.88662e-06
5.38326e-06
4.87449e-06
4.36132e-06
3.84471e-06
1.04225e-05
1.00281e-05
9.61772e-06
9.19318e-06
8.75511e-06
8.30412e-06
7.84213e-06
7.36927e-06
6.88654e-06
6.39501e-06
5.8957e-06
5.38973e-06
4.87814e-06
4.36201e-06
3.84229e-06
-1.00883e-05
-7.85301e-06
-6.4882e-06
-5.57084e-06
-4.84005e-06
-4.28933e-06
-3.87557e-06
-3.57179e-06
-3.36042e-06
-3.22739e-06
-3.16099e-06
-3.15078e-06
-3.18701e-06
-3.26051e-06
-3.36219e-06
-3.48313e-06
-3.61502e-06
-3.75065e-06
-3.88816e-06
-4.02948e-06
-4.18161e-06
-4.34101e-06
-4.44029e-06
-4.36525e-06
-4.04015e-06
-3.43977e-06
-2.55837e-06
-1.40492e-06
-1.5915e-09
1.62692e-06
3.45554e-06
5.45686e-06
7.59937e-06
9.84642e-06
1.21558e-05
1.448e-05
1.67655e-05
1.89512e-05
2.09637e-05
2.27066e-05
2.40387e-05
2.47521e-05
2.43828e-05
2.25096e-05
1.74927e-05
-8.54048e-06
-7.34993e-06
-6.30136e-06
-5.47515e-06
-4.79055e-06
-4.2549e-06
-3.84712e-06
-3.54675e-06
-3.33829e-06
-3.20846e-06
-3.14573e-06
-3.13962e-06
-3.18029e-06
-3.25845e-06
-3.36491e-06
-3.49064e-06
-3.62722e-06
-3.76722e-06
-3.90831e-06
-4.05145e-06
-4.20206e-06
-4.35483e-06
-4.44203e-06
-4.35273e-06
-4.01434e-06
-3.40351e-06
-2.51487e-06
-1.35683e-06
4.79983e-08
1.674e-06
3.49486e-06
5.4814e-06
7.59982e-06
9.81059e-06
1.20678e-05
1.43186e-05
1.65023e-05
1.85466e-05
2.0361e-05
2.18172e-05
2.27182e-05
2.27381e-05
2.12224e-05
1.7388e-05
1.00558e-05
-7.72768e-06
-6.96306e-06
-6.11149e-06
-5.37146e-06
-4.73377e-06
-4.21858e-06
-3.81978e-06
-3.52418e-06
-3.31916e-06
-3.19265e-06
-3.13355e-06
-3.13146e-06
-3.17648e-06
-3.25921e-06
-3.37037e-06
-3.50082e-06
-3.64203e-06
-3.78629e-06
-3.93081e-06
-4.07543e-06
-4.22383e-06
-4.36875e-06
-4.44207e-06
-4.33667e-06
-3.98357e-06
-3.36159e-06
-2.46585e-06
-1.30422e-06
1.00116e-07
1.72033e-06
3.52853e-06
5.49335e-06
7.57813e-06
9.73972e-06
1.19276e-05
1.40827e-05
1.61357e-05
1.80022e-05
1.95733e-05
2.06992e-05
2.11484e-05
2.05703e-05
1.83964e-05
1.41898e-05
7.78311e-06
-7.22125e-06
-6.65052e-06
-5.95482e-06
-5.28182e-06
-4.68859e-06
-4.19454e-06
-3.80445e-06
-3.51261e-06
-3.30961e-06
-3.18489e-06
-3.12801e-06
-3.12874e-06
-3.17712e-06
-3.26369e-06
-3.37899e-06
-3.51377e-06
-3.65931e-06
-3.80759e-06
-3.95524e-06
-4.1009e-06
-4.24629e-06
-4.38197e-06
-4.43936e-06
-4.31555e-06
-3.94555e-06
-3.3107e-06
-2.40679e-06
-1.24112e-06
1.62166e-07
1.77462e-06
3.56639e-06
5.5033e-06
7.54519e-06
9.64454e-06
1.17454e-05
1.3782e-05
1.56759e-05
1.7332e-05
1.86286e-05
1.94048e-05
1.94367e-05
1.84315e-05
1.60265e-05
1.20292e-05
6.73183e-06
-6.84077e-06
-6.38578e-06
-5.81061e-06
-5.21699e-06
-4.66406e-06
-4.1909e-06
-3.80865e-06
-3.51885e-06
-3.31557e-06
-3.19018e-06
-3.1332e-06
-3.13468e-06
-3.18469e-06
-3.27366e-06
-3.39199e-06
-3.5302e-06
-3.67936e-06
-3.83109e-06
-3.98132e-06
-4.12735e-06
-4.26872e-06
-4.3936e-06
-4.43294e-06
-4.2886e-06
-3.90002e-06
-3.25141e-06
-2.33943e-06
-1.17076e-06
2.2913e-07
1.82976e-06
3.59894e-06
5.49929e-06
7.48664e-06
9.50874e-06
1.1504e-05
1.34e-05
1.51112e-05
1.65351e-05
1.7546e-05
1.79902e-05
1.76809e-05
1.6417e-05
1.40242e-05
1.05004e-05
6.1914e-06
-6.534e-06
-6.16153e-06
-5.6779e-06
-5.16449e-06
-4.65958e-06
-4.20949e-06
-3.83626e-06
-3.5479e-06
-3.34236e-06
-3.21363e-06
-3.1537e-06
-3.15319e-06
-3.20235e-06
-3.29158e-06
-3.41111e-06
-3.55125e-06
-3.70281e-06
-3.85691e-06
-4.00876e-06
-4.15412e-06
-4.29013e-06
-4.40235e-06
-4.42134e-06
-4.25437e-06
-3.8458e-06
-3.18313e-06
-2.26405e-06
-1.09455e-06
2.98137e-07
1.88103e-06
3.61935e-06
5.47217e-06
7.39106e-06
9.31898e-06
1.11892e-05
1.29241e-05
1.44337e-05
1.56143e-05
1.63468e-05
1.65001e-05
1.59396e-05
1.45556e-05
1.23068e-05
9.29921e-06
5.84196e-06
-6.26761e-06
-5.95998e-06
-5.55941e-06
-5.11256e-06
-4.66406e-06
-4.2449e-06
-3.88591e-06
-3.60105e-06
-3.39289e-06
-3.25898e-06
-3.19347e-06
-3.18797e-06
-3.23328e-06
-3.31999e-06
-3.43827e-06
-3.57819e-06
-3.73028e-06
-3.88514e-06
-4.03711e-06
-4.1803e-06
-4.30919e-06
-4.40656e-06
-4.4027e-06
-4.21098e-06
-3.78124e-06
-3.10472e-06
-2.18038e-06
-1.01326e-06
3.67082e-07
1.92459e-06
3.62173e-06
5.41393e-06
7.24851e-06
9.06416e-06
1.07902e-05
1.23462e-05
1.36423e-05
1.45802e-05
1.5057e-05
1.49731e-05
1.4248e-05
1.28445e-05
1.07979e-05
8.24729e-06
5.43824e-06
-6.02266e-06
-5.7676e-06
-5.43835e-06
-5.06001e-06
-4.66624e-06
-4.28704e-06
-3.95044e-06
-3.67421e-06
-3.46558e-06
-3.3266e-06
-3.25412e-06
-3.24115e-06
-3.27962e-06
-3.36077e-06
-3.47488e-06
-3.61186e-06
-3.76206e-06
-3.9155e-06
-4.06556e-06
-4.20459e-06
-4.32417e-06
-4.40422e-06
-4.37488e-06
-4.15643e-06
-3.70481e-06
-3.01547e-06
-2.08902e-06
-9.28798e-07
4.32414e-07
1.95474e-06
3.59811e-06
5.31445e-06
7.04736e-06
8.73232e-06
1.02968e-05
1.16611e-05
1.27401e-05
1.34474e-05
1.37023e-05
1.34393e-05
1.26232e-05
1.12651e-05
9.43485e-06
7.26661e-06
4.94539e-06
-5.78965e-06
-5.57832e-06
-5.30916e-06
-4.99513e-06
-4.65859e-06
-4.32479e-06
-4.01845e-06
-3.75775e-06
-3.55331e-06
-3.41213e-06
-3.33344e-06
-3.31181e-06
-3.34119e-06
-3.41403e-06
-3.52102e-06
-3.65212e-06
-3.79763e-06
-3.94702e-06
-4.09272e-06
-4.22519e-06
-4.33292e-06
-4.39299e-06
-4.33568e-06
-4.08892e-06
-3.61558e-06
-2.91567e-06
-1.99233e-06
-8.44978e-07
4.88339e-07
1.96314e-06
3.53767e-06
5.16103e-06
6.77402e-06
8.31075e-06
9.69967e-06
1.08654e-05
1.17326e-05
1.22311e-05
1.2304e-05
1.19168e-05
1.10669e-05
9.79146e-06
8.16952e-06
6.31611e-06
4.3673e-06
-5.56181e-06
-5.38792e-06
-5.1696e-06
-4.91327e-06
-4.63296e-06
-4.34741e-06
-4.07752e-06
-3.83816e-06
-3.64425e-06
-3.50673e-06
-3.42503e-06
-3.39516e-06
-3.41451e-06
-3.47723e-06
-3.57466e-06
-3.69714e-06
-3.83516e-06
-3.97777e-06
-4.11642e-06
-4.23974e-06
-4.33296e-06
-4.37051e-06
-4.28328e-06
-4.00757e-06
-3.51384e-06
-2.80827e-06
-1.89486e-06
-7.68146e-07
5.26301e-07
1.93834e-06
3.42658e-06
4.93847e-06
6.4135e-06
7.78676e-06
8.99077e-06
9.95825e-06
1.06268e-05
1.09446e-05
1.08768e-05
1.04125e-05
9.56926e-06
8.39477e-06
6.96358e-06
5.3686e-06
3.70928e-06
-5.33137e-06
-5.19059e-06
-5.01595e-06
-4.81062e-06
-4.58281e-06
-4.34645e-06
-4.11544e-06
-3.90182e-06
-3.72637e-06
-3.60015e-06
-3.51907e-06
-3.4826e-06
-3.49258e-06
-3.54475e-06
-3.63125e-06
-3.74309e-06
-3.87126e-06
-4.00461e-06
-4.13371e-06
-4.24548e-06
-4.32184e-06
-4.33495e-06
-4.21676e-06
-3.9132e-06
-3.40298e-06
-2.70071e-06
-1.80513e-06
-7.0623e-07
5.34532e-07
1.86523e-06
3.24784e-06
4.62953e-06
5.95021e-06
7.14855e-06
8.16418e-06
8.94075e-06
9.43028e-06
9.59821e-06
9.42771e-06
8.9237e-06
8.11376e-06
7.04621e-06
5.78543e-06
4.40405e-06
2.97495e-06
-5.08818e-06
-4.97764e-06
-4.84137e-06
-4.68084e-06
-4.5006e-06
-4.31019e-06
-4.11787e-06
-3.93753e-06
-3.78963e-06
-3.67805e-06
-3.60013e-06
-3.56153e-06
-3.56523e-06
-3.60816e-06
-3.68382e-06
-3.78426e-06
-3.90119e-06
-4.02357e-06
-4.14126e-06
-4.2398e-06
-4.29774e-06
-4.28601e-06
-4.13754e-06
-3.80836e-06
-3.28997e-06
-2.60888e-06
-1.73089e-06
-6.71466e-07
4.94561e-07
1.72384e-06
2.98159e-06
4.21573e-06
5.36903e-06
6.38632e-06
7.2165e-06
7.81548e-06
8.14942e-06
8.19814e-06
7.95767e-06
7.44186e-06
6.68111e-06
5.71925e-06
4.60906e-06
3.4063e-06
2.16476e-06
-4.81929e-06
-4.73716e-06
-4.63549e-06
-4.51485e-06
-4.37791e-06
-4.23048e-06
-4.08107e-06
-3.9394e-06
-3.8175e-06
-3.72117e-06
-3.65335e-06
-3.61905e-06
-3.62094e-06
-3.65741e-06
-3.72388e-06
-3.81368e-06
-3.9194e-06
-4.03044e-06
-4.13603e-06
-4.22103e-06
-4.26057e-06
-4.22585e-06
-4.05053e-06
-3.69986e-06
-3.19307e-06
-2.53793e-06
-1.68255e-06
-6.90717e-07
3.80001e-07
1.49045e-06
2.6064e-06
3.67898e-06
4.6569e-06
5.49319e-06
6.14719e-06
6.58667e-06
6.79023e-06
6.74791e-06
6.46389e-06
5.95577e-06
5.25249e-06
4.39115e-06
3.41359e-06
2.36218e-06
1.27682e-06
-4.50858e-06
-4.45405e-06
-4.3847e-06
-4.3009e-06
-4.20426e-06
-4.09869e-06
-3.99022e-06
-3.88572e-06
-3.79274e-06
-3.71797e-06
-3.66645e-06
-3.64208e-06
-3.64714e-06
-3.68139e-06
-3.74206e-06
-3.82387e-06
-3.92028e-06
-4.02146e-06
-4.11623e-06
-4.18918e-06
-4.21352e-06
-4.15952e-06
-3.96622e-06
-3.60716e-06
-3.11798e-06
-2.49253e-06
-1.69777e-06
-7.95133e-07
1.63149e-07
1.14061e-06
2.10172e-06
3.00409e-06
3.80503e-06
4.46668e-06
4.95926e-06
5.26116e-06
5.35896e-06
5.24978e-06
4.94238e-06
4.45479e-06
3.81211e-06
3.04423e-06
2.18349e-06
1.26186e-06
3.09103e-07
-4.13568e-06
-4.10909e-06
-4.07124e-06
-4.02255e-06
-3.96405e-06
-3.89826e-06
-3.82915e-06
-3.76172e-06
-3.70153e-06
-3.65423e-06
-3.62449e-06
-3.61571e-06
-3.63012e-06
-3.66828e-06
-3.72871e-06
-3.80743e-06
-3.89876e-06
-3.99398e-06
-4.08196e-06
-4.14716e-06
-4.16305e-06
-4.09773e-06
-3.90166e-06
-3.54945e-06
-3.08592e-06
-2.51223e-06
-1.80587e-06
-1.01013e-06
-1.79128e-07
6.51793e-07
1.44963e-06
2.18026e-06
2.80984e-06
3.30986e-06
3.66002e-06
3.84644e-06
3.86103e-06
3.70538e-06
3.38994e-06
2.93095e-06
2.34877e-06
1.6666e-06
9.08992e-07
9.99096e-08
-7.38402e-07
-3.67486e-06
-3.678e-06
-3.67245e-06
-3.6588e-06
-3.63783e-06
-3.61124e-06
-3.58177e-06
-3.553e-06
-3.52901e-06
-3.51398e-06
-3.51168e-06
-3.52512e-06
-3.55645e-06
-3.60655e-06
-3.67467e-06
-3.75797e-06
-3.85152e-06
-3.94759e-06
-4.0358e-06
-4.10147e-06
-4.1192e-06
-4.05731e-06
-3.87545e-06
-3.55341e-06
-3.13616e-06
-2.62886e-06
-2.0275e-06
-1.35896e-06
-6.69902e-07
4.53378e-09
6.36829e-07
1.20094e-06
1.67124e-06
2.02831e-06
2.25861e-06
2.35095e-06
2.30188e-06
2.11641e-06
1.80448e-06
1.37905e-06
8.55686e-07
2.51873e-07
-4.14042e-07
-1.12421e-06
-1.86203e-06
-3.09921e-06
-3.13504e-06
-3.16418e-06
-3.18732e-06
-3.20528e-06
-3.21932e-06
-3.2314e-06
-3.244e-06
-3.26002e-06
-3.28247e-06
-3.31425e-06
-3.35784e-06
-3.41509e-06
-3.48695e-06
-3.573e-06
-3.6712e-06
-3.77774e-06
-3.88589e-06
-3.98575e-06
-4.06328e-06
-4.09697e-06
-4.0582e-06
-3.91178e-06
-3.64833e-06
-3.29724e-06
-2.87616e-06
-2.39285e-06
-1.86642e-06
-1.32962e-06
-8.1334e-07
-3.41496e-07
6.59771e-08
3.94445e-07
6.29354e-07
7.60894e-07
7.79205e-07
6.84522e-07
4.83247e-07
1.83567e-07
-2.05151e-07
-6.71699e-07
-1.20323e-06
-1.78624e-06
-2.4076e-06
-3.05501e-06
-2.39072e-06
-2.46352e-06
-2.53096e-06
-2.59407e-06
-2.65386e-06
-2.71148e-06
-2.76835e-06
-2.8262e-06
-2.88707e-06
-2.95312e-06
-3.02655e-06
-3.10922e-06
-3.20261e-06
-3.30753e-06
-3.42365e-06
-3.54969e-06
-3.68215e-06
-3.81562e-06
-3.94465e-06
-4.0521e-06
-4.11851e-06
-4.12527e-06
-4.04086e-06
-3.85958e-06
-3.60226e-06
-3.29007e-06
-2.93658e-06
-2.55692e-06
-2.17267e-06
-1.80669e-06
-1.48107e-06
-1.21313e-06
-1.01084e-06
-8.76344e-07
-8.24565e-07
-8.61891e-07
-9.85967e-07
-1.19116e-06
-1.47185e-06
-1.82191e-06
-2.23348e-06
-2.69732e-06
-3.20368e-06
-3.74317e-06
-4.30686e-06
-1.52977e-06
-1.64709e-06
-1.75976e-06
-1.86921e-06
-1.97679e-06
-2.08369e-06
-2.19107e-06
-2.30024e-06
-2.4127e-06
-2.53003e-06
-2.65387e-06
-2.78562e-06
-2.92637e-06
-3.0769e-06
-3.23683e-06
-3.40495e-06
-3.57991e-06
-3.756e-06
-3.92476e-06
-4.0826e-06
-4.21145e-06
-4.28735e-06
-4.29076e-06
-4.21604e-06
-4.07711e-06
-3.89203e-06
-3.6755e-06
-3.44089e-06
-3.20384e-06
-2.97925e-06
-2.78117e-06
-2.6216e-06
-2.52025e-06
-2.47022e-06
-2.48139e-06
-2.55718e-06
-2.69546e-06
-2.8936e-06
-3.14912e-06
-3.45826e-06
-3.81544e-06
-4.21406e-06
-4.64743e-06
-5.10911e-06
-5.59281e-06
-4.94014e-07
-6.62905e-07
-8.2936e-07
-9.94267e-07
-1.15885e-06
-1.32429e-06
-1.49169e-06
-1.66213e-06
-1.83674e-06
-2.0167e-06
-2.20319e-06
-2.39723e-06
-2.59965e-06
-2.81101e-06
-3.03108e-06
-3.25916e-06
-3.49392e-06
-3.73066e-06
-3.96269e-06
-4.18984e-06
-4.39856e-06
-4.56774e-06
-4.68177e-06
-4.73204e-06
-4.72615e-06
-4.67734e-06
-4.59908e-06
-4.5029e-06
-4.40006e-06
-4.30562e-06
-4.2298e-06
-4.17242e-06
-4.1308e-06
-4.13419e-06
-4.18694e-06
-4.28431e-06
-4.42349e-06
-4.60497e-06
-4.82899e-06
-5.09343e-06
-5.39442e-06
-5.72765e-06
-6.08896e-06
-6.47424e-06
-6.87925e-06
5.26762e-07
3.01901e-07
7.81701e-08
-1.45413e-07
-3.70036e-07
-5.96826e-07
-8.268e-07
-1.0609e-06
-1.30003e-06
-1.5451e-06
-1.79697e-06
-2.05647e-06
-2.32425e-06
-2.60072e-06
-2.88585e-06
-3.17906e-06
-3.47903e-06
-3.78315e-06
-4.088e-06
-4.38945e-06
-4.67908e-06
-4.94667e-06
-5.17213e-06
-5.34094e-06
-5.45666e-06
-5.52894e-06
-5.56838e-06
-5.58517e-06
-5.58788e-06
-5.58622e-06
-5.58906e-06
-5.60166e-06
-5.63092e-06
-5.68393e-06
-5.7634e-06
-5.86884e-06
-6.00126e-06
-6.16274e-06
-6.35395e-06
-6.57373e-06
-6.82003e-06
-7.09064e-06
-7.38335e-06
-7.69575e-06
-8.02518e-06
1.41273e-06
1.13524e-06
8.5703e-07
5.77538e-07
2.95876e-07
1.10696e-08
-2.77793e-07
-5.71506e-07
-8.70788e-07
-1.17632e-06
-1.48878e-06
-1.8088e-06
-2.13686e-06
-2.47326e-06
-2.81801e-06
-3.17062e-06
-3.53019e-06
-3.89496e-06
-4.26203e-06
-4.62798e-06
-4.98804e-06
-5.33542e-06
-5.64778e-06
-5.90648e-06
-6.11274e-06
-6.27422e-06
-6.39926e-06
-6.49675e-06
-6.57573e-06
-6.64296e-06
-6.70423e-06
-6.76875e-06
-6.84238e-06
-6.92799e-06
-7.02461e-06
-7.13442e-06
-7.26083e-06
-7.40587e-06
-7.57007e-06
-7.75324e-06
-7.95489e-06
-8.17433e-06
-8.41059e-06
-8.66245e-06
-8.92846e-06
2.07483e-06
1.7526e-06
1.42838e-06
1.10177e-06
7.72069e-07
4.38527e-07
1.00439e-07
-2.4278e-07
-5.91651e-07
-9.4667e-07
-1.30832e-06
-1.67705e-06
-2.05319e-06
-2.43689e-06
-2.82809e-06
-3.22636e-06
-3.63089e-06
-4.04026e-06
-4.45238e-06
-4.86459e-06
-5.27305e-06
-5.67263e-06
-6.04114e-06
-6.35806e-06
-6.62328e-06
-6.84346e-06
-7.02597e-06
-7.17853e-06
-7.30848e-06
-7.42145e-06
-7.52295e-06
-7.61985e-06
-7.71746e-06
-7.81674e-06
-7.91933e-06
-8.02849e-06
-8.14702e-06
-8.27654e-06
-8.41798e-06
-8.57204e-06
-8.73913e-06
-8.91931e-06
-9.11231e-06
-9.31765e-06
-9.53468e-06
2.55342e-06
2.19345e-06
1.83068e-06
1.46479e-06
1.0953e-06
7.2166e-07
3.43437e-07
-3.97387e-08
-4.28197e-07
-8.22247e-07
-1.22219e-06
-1.62826e-06
-2.04062e-06
-2.45927e-06
-2.88403e-06
-3.31444e-06
-3.74976e-06
-4.18877e-06
-4.62978e-06
-5.07039e-06
-5.50748e-06
-5.93714e-06
-6.33803e-06
-6.68945e-06
-6.99087e-06
-7.24833e-06
-7.46823e-06
-7.65691e-06
-7.82018e-06
-7.96333e-06
-8.09201e-06
-8.21112e-06
-8.32347e-06
-8.4318e-06
-8.53917e-06
-8.64827e-06
-8.76123e-06
-8.87972e-06
-9.00518e-06
-9.13876e-06
-9.28128e-06
-9.43324e-06
-9.59494e-06
-9.76645e-06
-9.94773e-06
2.88167e-06
2.49085e-06
2.09675e-06
1.69916e-06
1.29778e-06
8.92333e-07
4.82611e-07
6.84532e-08
-3.50281e-07
-7.73719e-07
-1.20197e-06
-1.63508e-06
-2.07304e-06
-2.51568e-06
-2.96273e-06
-3.41364e-06
-3.86768e-06
-4.32372e-06
-4.78022e-06
-5.23516e-06
-5.68599e-06
-6.12945e-06
-6.54566e-06
-6.91505e-06
-7.23703e-06
-7.51697e-06
-7.76028e-06
-7.97229e-06
-8.158e-06
-8.32245e-06
-8.46937e-06
-8.60303e-06
-8.72638e-06
-8.84256e-06
-8.95433e-06
-9.06394e-06
-9.17346e-06
-9.28479e-06
-9.39957e-06
-9.51914e-06
-9.64459e-06
-9.7768e-06
-9.91643e-06
-1.0064e-05
-1.02199e-05
3.0971e-06
2.68149e-06
2.26238e-06
1.8397e-06
1.41335e-06
9.83286e-07
5.49495e-07
1.12009e-07
-3.29141e-07
-7.73906e-07
-1.22222e-06
-1.67396e-06
-2.12895e-06
-2.58688e-06
-3.04735e-06
-3.50976e-06
-3.97335e-06
-4.43702e-06
-4.89943e-06
-5.35881e-06
-5.81303e-06
-6.25926e-06
-6.67951e-06
-7.05604e-06
-7.38827e-06
-7.6809e-06
-7.93846e-06
-8.16537e-06
-8.36587e-06
-8.54408e-06
-8.70418e-06
-8.84868e-06
-8.9808e-06
-9.10341e-06
-9.21896e-06
-9.32971e-06
-9.43778e-06
-9.54508e-06
-9.65332e-06
-9.76399e-06
-9.87837e-06
-9.9976e-06
-1.01226e-05
-1.02542e-05
-1.03931e-05
3.23177e-06
2.7964e-06
2.35753e-06
1.91525e-06
1.46963e-06
1.02082e-06
5.68981e-07
1.14311e-07
-3.43007e-07
-8.0277e-07
-1.26476e-06
-1.72869e-06
-2.19425e-06
-2.66102e-06
-3.12849e-06
-3.596e-06
-4.06277e-06
-4.52775e-06
-4.98974e-06
-5.44714e-06
-5.89815e-06
-6.3403e-06
-6.7577e-06
-7.1347e-06
-7.4707e-06
-7.76966e-06
-8.03541e-06
-8.27166e-06
-8.48192e-06
-8.66982e-06
-8.83888e-06
-8.99151e-06
-9.13048e-06
-9.25836e-06
-9.37753e-06
-9.49021e-06
-9.59845e-06
-9.70416e-06
-9.80907e-06
-9.91476e-06
-1.00227e-05
-1.01341e-05
-1.02502e-05
-1.0372e-05
-1.05003e-05
3.31089e-06
2.85982e-06
2.40542e-06
1.94791e-06
1.48752e-06
1.02455e-06
5.59324e-07
9.21567e-08
-3.76629e-07
-8.46697e-07
-1.31769e-06
-1.78921e-06
-2.26082e-06
-2.73199e-06
-3.20215e-06
-3.67059e-06
-4.1365e-06
-4.59889e-06
-5.05664e-06
-5.50831e-06
-5.95238e-06
-6.38669e-06
-6.79739e-06
-7.17099e-06
-7.50682e-06
-7.80808e-06
-8.07801e-06
-8.31981e-06
-8.53645e-06
-8.73106e-06
-8.90659e-06
-9.06533e-06
-9.20971e-06
-9.34213e-06
-9.46483e-06
-9.57994e-06
-9.68944e-06
-9.79521e-06
-9.89901e-06
-1.00025e-05
-1.01072e-05
-1.02145e-05
-1.03257e-05
-1.0442e-05
-1.05645e-05
3.35346e-06
2.88986e-06
2.42319e-06
1.95378e-06
1.48201e-06
1.0083e-06
5.33087e-07
5.68107e-08
-4.20098e-07
-8.97188e-07
-1.37399e-06
-1.85001e-06
-2.32469e-06
-2.79746e-06
-3.26765e-06
-3.73453e-06
-4.19729e-06
-4.65493e-06
-5.10646e-06
-5.55053e-06
-5.98586e-06
-6.41055e-06
-6.8127e-06
-7.18081e-06
-7.51412e-06
-7.81519e-06
-8.08675e-06
-8.33161e-06
-8.55235e-06
-8.75159e-06
-8.93179e-06
-9.09517e-06
-9.24391e-06
-9.38022e-06
-9.50621e-06
-9.6239e-06
-9.73522e-06
-9.84204e-06
-9.94611e-06
-1.00491e-05
-1.01527e-05
-1.02583e-05
-1.03674e-05
-1.04812e-05
-1.06009e-05
3.37301e-06
2.89927e-06
2.42275e-06
1.94388e-06
1.46318e-06
9.81159e-07
4.98366e-07
1.53241e-08
-4.67433e-07
-9.4936e-07
-1.42989e-06
-1.90845e-06
-2.3844e-06
-2.8571e-06
-3.32584e-06
-3.78985e-06
-4.24831e-06
-4.70025e-06
-5.14474e-06
-5.58053e-06
-6.00655e-06
-6.42107e-06
-6.814e-06
-7.17565e-06
-7.50515e-06
-7.80456e-06
-8.07622e-06
-8.32252e-06
-8.54575e-06
-8.7481e-06
-8.9317e-06
-9.09864e-06
-9.25087e-06
-9.39042e-06
-9.51932e-06
-9.6395e-06
-9.75283e-06
-9.86116e-06
-9.96626e-06
-1.00698e-05
-1.01736e-05
-1.0279e-05
-1.03876e-05
-1.05007e-05
-1.06198e-05
3.37871e-06
2.89658e-06
2.41196e-06
1.92541e-06
1.43751e-06
9.48886e-07
4.60155e-07
-2.80737e-08
-5.15182e-07
-1.00054e-06
-1.48352e-06
-1.96344e-06
-2.43964e-06
-2.9114e-06
-3.37796e-06
-3.83854e-06
-4.2923e-06
-4.73832e-06
-5.17567e-06
-5.60324e-06
-6.02007e-06
-6.4246e-06
-6.80835e-06
-7.16325e-06
-7.48836e-06
-7.78532e-06
-8.05615e-06
-8.30289e-06
-8.52748e-06
-8.73186e-06
-8.91789e-06
-9.08755e-06
-9.24254e-06
-9.38473e-06
-9.5161e-06
-9.63851e-06
-9.75379e-06
-9.86376e-06
-9.97019e-06
-1.00748e-05
-1.01793e-05
-1.02854e-05
-1.03945e-05
-1.05081e-05
-1.06277e-05
3.37657e-06
2.88733e-06
2.3959e-06
1.90291e-06
1.40905e-06
9.14997e-07
4.21447e-07
-7.09182e-08
-5.61411e-07
-1.04933e-06
-1.53398e-06
-2.01463e-06
-2.49055e-06
-2.96097e-06
-3.42511e-06
-3.88216e-06
-4.33128e-06
-4.77155e-06
-5.2021e-06
-5.62188e-06
-6.03003e-06
-6.42515e-06
-6.80019e-06
-7.14846e-06
-7.46902e-06
-7.76319e-06
-8.03267e-06
-8.27921e-06
-8.50444e-06
-8.7101e-06
-8.89779e-06
-9.06951e-06
-9.22666e-06
-9.37094e-06
-9.50434e-06
-9.62865e-06
-9.74566e-06
-9.85716e-06
-9.96494e-06
-1.00708e-05
-1.01763e-05
-1.02833e-05
-1.03934e-05
-1.0508e-05
-1.06287e-05
3.37036e-06
2.87497e-06
2.37767e-06
1.87917e-06
1.38022e-06
8.81577e-07
3.83979e-07
-1.11824e-07
-6.05079e-07
-1.09503e-06
-1.58091e-06
-2.06195e-06
-2.53737e-06
-3.00636e-06
-3.46811e-06
-3.92179e-06
-4.36655e-06
-4.80149e-06
-5.22577e-06
-5.63839e-06
-6.03859e-06
-6.42508e-06
-6.79205e-06
-7.13406e-06
-7.45017e-06
-7.74147e-06
-8.00936e-06
-8.25531e-06
-8.48075e-06
-8.68717e-06
-8.87593e-06
-9.04915e-06
-9.20799e-06
-9.35389e-06
-9.4889e-06
-9.61475e-06
-9.73319e-06
-9.84602e-06
-9.95501e-06
-1.0062e-05
-1.01686e-05
-1.02766e-05
-1.03878e-05
-1.05036e-05
-1.06256e-05
3.3624e-06
2.8616e-06
2.35915e-06
1.85583e-06
1.35244e-06
8.49798e-07
3.48694e-07
-1.50065e-07
-6.45674e-07
-1.13732e-06
-1.6242e-06
-2.10549e-06
-2.58036e-06
-3.04798e-06
-3.50751e-06
-3.9581e-06
-4.3989e-06
-4.82902e-06
-5.24765e-06
-5.65382e-06
-6.04686e-06
-6.42555e-06
-6.78519e-06
-7.12143e-06
-7.43337e-06
-7.72187e-06
-7.98808e-06
-8.23324e-06
-8.45861e-06
-8.66534e-06
-8.85498e-06
-9.02912e-06
-9.18931e-06
-9.33643e-06
-9.47266e-06
-9.59971e-06
-9.71929e-06
-9.83318e-06
-9.94318e-06
-1.00511e-05
-1.01586e-05
-1.02677e-05
-1.03798e-05
-1.04968e-05
-1.06201e-05
3.35401e-06
2.8484e-06
2.34137e-06
1.83377e-06
1.32645e-06
8.20259e-07
3.16053e-07
-1.85317e-07
-6.82999e-07
-1.17614e-06
-1.66388e-06
-2.14537e-06
-2.61974e-06
-3.08612e-06
-3.54367e-06
-3.9915e-06
-4.42878e-06
-4.85461e-06
-5.26821e-06
-5.66865e-06
-6.05531e-06
-6.42704e-06
-6.78008e-06
-7.11109e-06
-7.4192e-06
-7.70506e-06
-7.96962e-06
-8.21389e-06
-8.43901e-06
-8.64579e-06
-8.8361e-06
-9.01091e-06
-9.17207e-06
-9.32006e-06
-9.4572e-06
-9.58515e-06
-9.70558e-06
-9.82028e-06
-9.93104e-06
-1.00397e-05
-1.0148e-05
-1.02578e-05
-1.03709e-05
-1.04888e-05
-1.06133e-05
3.34594e-06
2.83601e-06
2.32489e-06
1.81346e-06
1.30261e-06
7.93246e-07
2.86261e-07
-2.17452e-07
-7.16999e-07
-1.21149e-06
-1.70002e-06
-2.1817e-06
-2.65565e-06
-3.12097e-06
-3.57678e-06
-4.0222e-06
-4.45637e-06
-4.87843e-06
-5.2876e-06
-5.68299e-06
-6.064e-06
-6.42957e-06
-6.77675e-06
-7.10306e-06
-7.40771e-06
-7.69115e-06
-7.95414e-06
-8.19752e-06
-8.42228e-06
-8.62903e-06
-8.81962e-06
-8.99514e-06
-9.15681e-06
-9.3055e-06
-9.44329e-06
-9.57187e-06
-9.69292e-06
-9.80819e-06
-9.9195e-06
-1.00287e-05
-1.01376e-05
-1.0248e-05
-1.03617e-05
-1.04805e-05
-1.0606e-05
3.33854e-06
2.82475e-06
2.30997e-06
1.7951e-06
1.28109e-06
7.6888e-07
2.59397e-07
-2.46427e-07
-7.47662e-07
-1.24338e-06
-1.73265e-06
-2.21455e-06
-2.68816e-06
-3.15258e-06
-3.6069e-06
-4.05023e-06
-4.48171e-06
-4.90048e-06
-5.30578e-06
-5.69675e-06
-6.07282e-06
-6.43297e-06
-6.77496e-06
-7.09712e-06
-7.39867e-06
-7.67994e-06
-7.94149e-06
-8.184e-06
-8.40836e-06
-8.61506e-06
-8.80569e-06
-8.98178e-06
-9.14376e-06
-9.29297e-06
-9.4312e-06
-9.56023e-06
-9.68169e-06
-9.79734e-06
-9.909e-06
-1.00185e-05
-1.01278e-05
-1.02386e-05
-1.03529e-05
-1.04723e-05
-1.05986e-05
3.33187e-06
2.81459e-06
2.29649e-06
1.77852e-06
1.26166e-06
7.4687e-07
2.35123e-07
-2.7262e-07
-7.75396e-07
-1.27225e-06
-1.76222e-06
-2.24436e-06
-2.71772e-06
-3.18138e-06
-3.63443e-06
-4.07595e-06
-4.5051e-06
-4.92101e-06
-5.32292e-06
-5.71001e-06
-6.08174e-06
-6.4371e-06
-6.77447e-06
-7.09289e-06
-7.39168e-06
-7.67099e-06
-7.93122e-06
-8.17293e-06
-8.3969e-06
-8.60349e-06
-8.79419e-06
-8.97056e-06
-9.13279e-06
-9.28233e-06
-9.42087e-06
-9.55016e-06
-9.67186e-06
-9.78773e-06
-9.89959e-06
-1.00093e-05
-1.01188e-05
-1.02299e-05
-1.03445e-05
-1.04643e-05
-1.05913e-05
3.32562e-06
2.80498e-06
2.28371e-06
1.76277e-06