/*--------------------------------*- C++ -*----------------------------------*\
| =========                 |                                                 |
| \\      /  F ield         | OpenFOAM: The Open Source CFD Toolbox           |
|  \\    /   O peration     | Version:  2312                                  |
|   \\  /    A nd           | Website:  www.openfoam.com                      |
|    \\/     M anipulation  |                                                 |
\*---------------------------------------------------------------------------*/
FoamFile
{
    version     2.0;
    format      ascii;
    arch        "LSB;label=32;scalar=64";
    class       surfaceScalarField;
    location    "126";
    object      phi;
}
// * * * * * * * * * * * * * * * * * * * * * * * * * * * * * * * * * * * * * //

dimensions      [0 3 -1 0 0 0 0];

oriented        oriented;

internalField   nonuniform List<scalar> 
9445
(
6.0615e-10
1.64028e-11
5.95075e-10
1.10752e-11
5.87574e-10
7.50097e-12
5.82659e-10
4.91552e-12
5.79739e-10
2.91978e-12
5.78454e-10
1.28497e-12
5.78646e-10
-1.92222e-13
5.80313e-10
-1.66731e-12
5.83445e-10
-3.13128e-12
5.88423e-10
-4.97802e-12
5.96422e-10
-7.99943e-12
6.11019e-10
-1.4597e-11
6.44877e-10
-3.38574e-11
7.42903e-10
-9.80266e-11
-2.57915e-10
1.00082e-09
2.1105e-09
7.29881e-11
2.07192e-09
4.96574e-11
2.04544e-09
3.3978e-11
2.02772e-09
2.26366e-11
2.01673e-09
1.39112e-11
2.01119e-09
6.81665e-12
2.01052e-09
4.80959e-13
2.01446e-09
-5.61054e-12
2.02307e-09
-1.17368e-11
2.03754e-09
-1.94466e-11
2.0608e-09
-3.12575e-11
2.09973e-09
-5.35263e-11
2.16799e-09
-1.02123e-10
2.27904e-09
-2.09078e-10
-3.76711e-10
2.39784e-09
4.15658e-09
1.82641e-10
4.08118e-09
1.25064e-10
4.02889e-09
8.62666e-11
3.99331e-09
5.82112e-11
3.97052e-09
3.67066e-11
3.95798e-09
1.93494e-11
3.9544e-09
4.06847e-12
3.95904e-09
-1.02539e-11
3.97177e-09
-2.4462e-11
3.99413e-09
-4.18087e-11
4.02895e-09
-6.60839e-11
4.08083e-09
-1.05398e-10
4.15263e-09
-1.7393e-10
4.23071e-09
-2.87158e-10
-4.2307e-10
4.27707e-09
6.89179e-09
3.6005e-10
6.76859e-09
2.4826e-10
6.6822e-09
1.72658e-10
6.62243e-09
1.17982e-10
6.58292e-09
7.62198e-11
6.55949e-09
4.27805e-11
6.54974e-09
1.38113e-11
6.55216e-09
-1.26691e-11
6.56598e-09
-3.82792e-11
6.59201e-09
-6.78467e-11
6.63127e-09
-1.05336e-10
6.68315e-09
-1.57281e-10
6.74105e-09
-2.3183e-10
6.78456e-09
-3.30667e-10
-4.28221e-10
6.78971e-09
1.04948e-08
6.20344e-10
1.03119e-08
4.3119e-10
1.0182e-08
3.02578e-10
1.00905e-08
2.09463e-10
1.00282e-08
1.38551e-10
9.98875e-09
8.2205e-11
9.9682e-09
3.4357e-11
9.96393e-09
-8.39718e-12
9.97419e-09
-4.85351e-11
9.99771e-09
-9.13718e-11
1.00328e-08
-1.40453e-10
1.00746e-08
-1.99046e-10
1.01121e-08
-2.69349e-10
1.01279e-08
-3.46445e-10
-4.11212e-10
1.01109e-08
1.51775e-08
9.75969e-10
1.49237e-08
6.84986e-10
1.47407e-08
4.85539e-10
1.46095e-08
3.40723e-10
1.45174e-08
2.30641e-10
1.44559e-08
1.43747e-10
1.44188e-08
7.14143e-11
1.4402e-08
8.42129e-12
1.44022e-08
-4.87955e-11
1.4416e-08
-1.05153e-10
1.44388e-08
-1.63225e-10
1.44635e-08
-2.23705e-10
1.44793e-08
-2.85192e-10
1.44748e-08
-3.41924e-10
-3.83061e-10
1.44466e-08
2.11825e-08
1.43089e-09
2.08511e-08
1.01637e-09
2.06078e-08
7.28828e-10
2.04297e-08
5.18865e-10
2.03011e-08
3.59243e-10
2.0211e-08
2.3387e-10
2.01511e-08
1.31326e-10
2.01152e-08
4.43095e-11
2.00982e-08
-3.18598e-11
2.00947e-08
-1.016e-10
2.00982e-08
-1.66718e-10
2.01013e-08
-2.2679e-10
2.00958e-08
-2.79687e-10
2.00755e-08
-3.21637e-10
-3.48094e-10
2.00405e-08
2.87754e-08
1.97176e-09
2.83701e-08
1.42165e-09
2.80656e-08
1.03338e-09
2.78373e-08
7.47114e-10
2.76678e-08
5.28807e-10
2.75439e-08
3.57791e-10
2.74554e-08
2.19819e-10
2.73942e-08
1.05484e-10
2.73534e-08
8.94883e-12
2.7326e-08
-7.41985e-11
2.7305e-08
-1.45754e-10
2.72839e-08
-2.05692e-10
2.72573e-08
-2.53072e-10
2.72224e-08
-2.86755e-10
-3.06048e-10
2.71804e-08
3.82311e-08
2.55844e-09
3.77736e-08
1.87916e-09
3.74191e-08
1.38795e-09
3.71458e-08
1.02039e-09
3.69365e-08
7.38063e-10
3.67775e-08
5.16765e-10
3.66575e-08
3.39834e-10
3.6567e-08
1.9601e-10
3.64979e-08
7.80839e-11
3.64425e-08
-1.87861e-11
3.63943e-08
-9.7566e-11
3.6348e-08
-1.59466e-10
3.63005e-08
-2.05491e-10
3.62505e-08
-2.36747e-10
-2.54679e-10
3.61991e-08
4.9824e-08
3.12205e-09
4.93586e-08
2.34451e-09
4.89825e-08
1.76407e-09
4.86822e-08
1.32066e-09
4.84443e-08
9.7603e-10
4.82564e-08
7.04665e-10
4.81076e-08
4.8858e-10
4.79885e-08
3.15175e-10
4.78907e-08
1.75906e-10
4.78071e-08
6.47593e-11
4.77321e-08
-2.25766e-11
4.76619e-08
-8.92581e-11
4.75944e-08
-1.37943e-10
4.7529e-08
-1.7137e-10
-1.92117e-10
4.74664e-08
6.38456e-08
3.58395e-09
6.3432e-08
2.75817e-09
6.30779e-08
2.11817e-09
6.2782e-08
1.61659e-09
6.25375e-08
1.22046e-09
6.23362e-08
9.05948e-10
6.21695e-08
6.55311e-10
6.20293e-08
4.55393e-10
6.19086e-08
2.96569e-10
6.18019e-08
1.71528e-10
6.17048e-08
7.45257e-11
6.16146e-08
8.57648e-13
6.15302e-08
-5.35058e-11
6.14511e-08
-9.22227e-11
-1.18466e-10
6.13774e-08
8.06767e-08
3.89786e-09
8.03623e-08
3.07257e-09
8.0072e-08
2.40848e-09
7.98148e-08
1.87382e-09
7.95912e-08
1.44403e-09
7.9398e-08
1.09921e-09
7.92301e-08
8.23202e-10
7.90824e-08
6.03088e-10
7.89503e-08
4.28645e-10
7.88302e-08
2.91597e-10
7.87196e-08
1.85158e-10
7.86169e-08
1.03602e-10
7.85212e-08
4.21437e-11
7.84324e-08
-3.41981e-12
-3.64119e-11
7.83504e-08
1.00884e-07
4.08069e-09
1.00674e-07
3.28296e-09
1.00461e-07
2.62079e-09
1.0026e-07
2.07516e-09
1.00074e-07
1.62965e-09
9.9905e-08
1.26865e-09
9.97502e-08
9.77969e-10
9.9608e-08
7.45295e-10
9.94764e-08
5.60289e-10
9.93537e-08
4.14221e-10
9.92391e-08
2.99797e-10
9.91319e-08
2.10841e-10
9.90317e-08
1.4227e-10
9.89386e-08
8.97544e-11
4.9837e-11
9.88523e-08
1.25215e-07
4.18579e-09
1.25076e-07
3.4225e-09
1.24922e-07
2.77427e-09
1.24767e-07
2.23059e-09
1.24615e-07
1.78149e-09
1.24469e-07
1.41468e-09
1.24329e-07
1.1175e-09
1.24197e-07
8.78266e-10
1.2407e-07
6.8681e-10
1.2395e-07
5.34361e-10
1.23836e-07
4.13549e-10
1.23729e-07
3.18144e-10
1.23628e-07
2.43053e-10
1.23534e-07
1.83997e-10
1.37579e-10
1.23446e-07
1.54399e-07
4.23802e-09
1.54304e-07
3.51841e-09
1.54186e-07
2.89161e-09
1.54059e-07
2.3581e-09
1.53927e-07
1.91327e-09
1.53794e-07
1.54728e-09
1.53663e-07
1.2487e-09
1.53535e-07
1.00655e-09
1.53411e-07
8.11102e-10
1.53291e-07
6.53865e-10
1.53177e-07
5.27674e-10
1.53069e-07
4.26473e-10
1.52966e-07
3.45319e-10
1.5287e-07
2.80092e-10
2.27521e-10
1.5278e-07
1.88909e-07
4.23142e-09
1.88859e-07
3.56908e-09
1.88776e-07
2.97376e-09
1.88674e-07
2.46037e-09
1.88559e-07
2.02815e-09
1.88437e-07
1.66929e-09
1.88312e-07
1.37384e-09
1.88187e-07
1.13197e-09
1.88063e-07
9.34726e-10
1.87943e-07
7.74195e-10
1.87827e-07
6.43636e-10
1.87716e-07
5.37334e-10
1.87611e-07
4.50612e-10
1.87511e-07
3.79579e-10
3.21128e-10
1.87418e-07
2.28855e-07
4.15741e-09
2.28864e-07
3.56025e-09
2.28825e-07
3.01265e-09
2.28756e-07
2.52978e-09
2.28664e-07
2.11968e-09
2.28559e-07
1.77499e-09
2.28444e-07
1.4879e-09
2.28326e-07
1.25019e-09
2.28207e-07
1.05406e-09
2.28089e-07
8.92405e-10
2.27973e-07
7.59087e-10
2.27862e-07
6.4888e-10
2.27755e-07
5.5748e-10
2.27653e-07
4.81296e-10
4.17453e-10
2.27557e-07
2.73811e-07
4.0276e-09
2.73879e-07
3.49209e-09
2.73891e-07
3.00136e-09
2.73861e-07
2.55945e-09
2.73801e-07
2.18015e-09
2.73719e-07
1.85675e-09
2.73623e-07
1.58378e-09
2.73518e-07
1.35486e-09
2.73409e-07
1.16349e-09
2.73298e-07
1.00356e-09
2.73187e-07
8.6969e-10
2.73079e-07
7.57266e-10
2.72974e-07
6.6245e-10
2.72873e-07
5.82021e-10
5.13467e-10
2.72777e-07
3.22312e-07
3.82132e-09
3.22443e-07
3.36089e-09
3.22514e-07
2.93083e-09
3.22534e-07
2.5388e-09
3.22517e-07
2.19708e-09
3.22472e-07
1.90226e-09
3.22405e-07
1.65005e-09
3.22325e-07
1.43553e-09
3.22235e-07
1.25354e-09
3.22139e-07
1.09908e-09
3.22041e-07
9.67697e-10
3.21943e-07
8.55475e-10
3.21846e-07
7.59123e-10
3.21753e-07
6.75848e-10
6.03412e-10
3.21663e-07
3.71177e-07
3.51786e-09
3.71402e-07
3.13553e-09
3.71557e-07
2.77619e-09
3.7165e-07
2.44549e-09
3.71697e-07
2.15069e-09
3.71706e-07
1.89245e-09
3.71688e-07
1.66829e-09
3.71649e-07
1.47459e-09
3.71595e-07
1.30743e-09
3.71531e-07
1.163e-09
3.71461e-07
1.03781e-09
3.71388e-07
9.28785e-10
3.71314e-07
8.33259e-10
3.71241e-07
7.48935e-10
6.74032e-10
3.7117e-07
3.68542e-07
3.18546e-09
3.688e-07
2.87677e-09
3.68995e-07
2.58166e-09
3.69133e-07
2.30757e-09
3.69224e-07
2.05935e-09
3.69278e-07
1.83835e-09
3.69303e-07
1.64344e-09
3.69305e-07
1.47218e-09
3.69291e-07
1.32174e-09
3.69265e-07
1.18926e-09
3.69231e-07
1.07211e-09
3.69191e-07
9.67929e-10
3.6915e-07
8.7464e-10
3.69109e-07
7.90433e-10
7.14029e-10
3.69069e-07
3.15578e-07
2.80991e-09
3.15885e-07
2.57014e-09
3.16131e-07
2.33545e-09
3.16324e-07
2.11457e-09
3.16472e-07
1.91195e-09
3.16581e-07
1.72877e-09
3.1666e-07
1.56454e-09
3.16715e-07
1.41777e-09
3.1675e-07
1.28651e-09
3.1677e-07
1.16874e-09
3.1678e-07
1.06253e-09
3.16782e-07
9.66154e-10
3.16778e-07
8.78071e-10
3.16772e-07
7.96928e-10
7.21581e-10
3.16764e-07
2.63995e-07
2.4721e-09
2.64283e-07
2.282e-09
2.64526e-07
2.09302e-09
2.64727e-07
1.91345e-09
2.64892e-07
1.74693e-09
2.65026e-07
1.59447e-09
2.65135e-07
1.45579e-09
2.65223e-07
1.32987e-09
2.65294e-07
1.21534e-09
2.65352e-07
1.11076e-09
2.654e-07
1.01473e-09
2.6544e-07
9.25956e-10
2.65475e-07
8.433e-10
2.65506e-07
7.65761e-10
6.92477e-10
2.65535e-07
2.17257e-07
2.1511e-09
2.17539e-07
1.99991e-09
2.17783e-07
1.84844e-09
2.17994e-07
1.70316e-09
2.18173e-07
1.56701e-09
2.18327e-07
1.44079e-09
2.18459e-07
1.32431e-09
2.18572e-07
1.21685e-09
2.18669e-07
1.11749e-09
2.18755e-07
1.02519e-09
2.18831e-07
9.38956e-10
2.18899e-07
8.57852e-10
2.18961e-07
7.81055e-10
2.19019e-07
7.07849e-10
6.37636e-10
2.19074e-07
1.76361e-07
1.83911e-09
1.76641e-07
1.71962e-09
1.7689e-07
1.59947e-09
1.7711e-07
1.48322e-09
1.77304e-07
1.37307e-09
1.77476e-07
1.2696e-09
1.77627e-07
1.1727e-09
1.77762e-07
1.0819e-09
1.77883e-07
9.96547e-10
1.77992e-07
9.15941e-10
1.78092e-07
8.39388e-10
1.78183e-07
7.66247e-10
1.78269e-07
6.95962e-10
1.78348e-07
6.28044e-10
5.62088e-10
1.78424e-07
1.4152e-07
1.53743e-09
1.41795e-07
1.44442e-09
1.42044e-07
1.35055e-09
1.42268e-07
1.25895e-09
1.4247e-07
1.17112e-09
1.42652e-07
1.08746e-09
1.42817e-07
1.00793e-09
1.42967e-07
9.32213e-10
1.43103e-07
8.59911e-10
1.43229e-07
7.90558e-10
1.43344e-07
7.23708e-10
1.43452e-07
6.58951e-10
1.43552e-07
5.95937e-10
1.43645e-07
5.3436e-10
4.73982e-10
1.43733e-07
1.12418e-07
1.25271e-09
1.1268e-07
1.18192e-09
1.12921e-07
1.11009e-09
1.1314e-07
1.03934e-09
1.13341e-07
9.70602e-10
1.13524e-07
9.04154e-10
1.13692e-07
8.40004e-10
1.13846e-07
7.77994e-10
1.13988e-07
7.17884e-10
1.1412e-07
6.59401e-10
1.14241e-07
6.02286e-10
1.14354e-07
5.46303e-10
1.14458e-07
4.91263e-10
1.14556e-07
4.37009e-10
3.83417e-10
1.14646e-07
8.84603e-08
9.93208e-10
8.87014e-08
9.40827e-10
8.89242e-08
8.87273e-10
8.91295e-08
8.33962e-10
8.93188e-08
7.81381e-10
8.94932e-08
7.29755e-10
8.9654e-08
6.79144e-10
8.98025e-08
6.29494e-10
8.99397e-08
5.80688e-10
9.00665e-08
5.32593e-10
9.01837e-08
4.85084e-10
9.0292e-08
4.38058e-10
9.03918e-08
3.91438e-10
9.04836e-08
3.45171e-10
2.99229e-10
9.05678e-08
6.89515e-08
7.656e-10
6.91643e-08
7.28093e-10
6.93621e-08
6.89402e-10
6.95457e-08
6.50375e-10
6.97159e-08
6.11227e-10
6.98735e-08
5.72161e-10
7.00193e-08
5.33277e-10
7.01542e-08
4.94585e-10
7.02789e-08
4.56053e-10
7.03938e-08
4.17645e-10
7.04996e-08
3.79329e-10
7.05965e-08
3.41088e-10
7.06851e-08
3.02924e-10
7.07654e-08
2.6485e-10
2.26901e-10
7.08377e-08
5.32043e-08
5.73348e-10
5.33849e-08
5.4748e-10
5.35538e-08
5.20542e-10
5.37112e-08
4.92904e-10
5.38578e-08
4.6465e-10
5.3994e-08
4.3598e-10
5.41203e-08
4.07006e-10
5.42371e-08
3.77776e-10
5.43448e-08
3.48311e-10
5.44438e-08
3.18633e-10
5.45344e-08
2.88768e-10
5.46167e-08
2.58752e-10
5.4691e-08
2.28628e-10
5.47574e-08
1.9845e-10
1.68284e-10
5.4816e-08
4.05923e-08
4.16582e-10
4.07403e-08
3.99496e-10
4.08793e-08
3.81534e-10
4.10095e-08
3.6268e-10
4.11312e-08
3.42999e-10
4.12445e-08
3.22681e-10
4.13497e-08
3.01828e-10
4.14469e-08
2.80504e-10
4.15365e-08
2.58759e-10
4.16185e-08
2.36645e-10
4.1693e-08
2.14215e-10
4.17603e-08
1.91528e-10
4.18202e-08
1.68649e-10
4.1873e-08
1.45647e-10
1.22599e-10
4.19187e-08
3.05681e-08
2.92874e-10
3.06855e-08
2.82149e-10
3.07963e-08
2.70759e-10
3.09005e-08
2.5843e-10
3.09982e-08
2.4527e-10
3.10895e-08
2.31433e-10
3.11743e-08
2.17004e-10
3.12528e-08
2.02049e-10
3.13249e-08
1.86626e-10
3.13908e-08
1.70795e-10
3.14504e-08
1.54617e-10
3.15037e-08
1.38157e-10
3.15509e-08
1.21481e-10
3.15919e-08
1.04661e-10
8.77683e-11
3.16267e-08
2.26632e-08
1.98263e-10
2.27534e-08
1.91933e-10
2.28391e-08
1.85127e-10
2.29201e-08
1.77454e-10
2.29963e-08
1.69065e-10
2.30676e-08
1.6007e-10
2.31341e-08
1.50532e-10
2.31956e-08
1.40508e-10
2.32522e-08
1.30053e-10
2.33038e-08
1.19223e-10
2.33503e-08
1.08072e-10
2.33918e-08
9.66613e-11
2.34283e-08
8.50474e-11
2.34596e-08
7.32958e-11
6.14665e-11
2.34859e-08
1.64813e-08
1.28168e-10
1.65485e-08
1.24708e-10
1.66127e-08
1.20926e-10
1.66738e-08
1.16429e-10
1.67314e-08
1.11385e-10
1.67857e-08
1.05857e-10
1.68363e-08
9.98888e-11
1.68833e-08
9.35255e-11
1.69265e-08
8.681e-11
1.6966e-08
7.97873e-11
1.70015e-08
7.25016e-11
1.70332e-08
6.5001e-11
1.70609e-08
5.73309e-11
1.70847e-08
4.95447e-11
4.16887e-11
1.71044e-08
1.16899e-08
7.80195e-11
1.17383e-08
7.63045e-11
1.17848e-08
7.43905e-11
1.18293e-08
7.19525e-11
1.18715e-08
6.91409e-11
1.19114e-08
6.59792e-11
1.19488e-08
6.24975e-11
1.19836e-08
5.87263e-11
1.20157e-08
5.46961e-11
1.20451e-08
5.04392e-11
1.20716e-08
4.59871e-11
1.20952e-08
4.13749e-11
1.21159e-08
3.66345e-11
1.21337e-08
3.1806e-11
2.69238e-11
1.21484e-08
8.01211e-09
4.36332e-11
8.04553e-09
4.28826e-11
8.07789e-09
4.20342e-11
8.10899e-09
4.0851e-11
8.13869e-09
3.94399e-11
8.16687e-09
3.78028e-11
8.19341e-09
3.59578e-11
8.21821e-09
3.39236e-11
8.24118e-09
3.17193e-11
8.26226e-09
2.93654e-11
8.28136e-09
2.68821e-11
8.29845e-09
2.4292e-11
8.31347e-09
2.1615e-11
8.32639e-09
1.88786e-11
1.61077e-11
8.33721e-09
5.21929e-09
2.13809e-11
5.24107e-09
2.10974e-11
5.26231e-09
2.07941e-11
5.28285e-09
2.03131e-11
5.30258e-09
1.97115e-11
5.3214e-09
1.89837e-11
5.33921e-09
1.81397e-11
5.35595e-09
1.71891e-11
5.37153e-09
1.61422e-11
5.38588e-09
1.50105e-11
5.39896e-09
1.38046e-11
5.41071e-09
1.25373e-11
5.42111e-09
1.12193e-11
5.43012e-09
9.867e-12
8.49852e-12
5.43773e-09
3.12416e-09
8.23831e-12
3.13712e-09
8.14106e-12
3.14984e-09
8.07289e-12
3.16221e-09
7.93482e-12
3.17418e-09
7.74516e-12
3.18566e-09
7.50012e-12
3.1966e-09
7.20389e-12
3.20693e-09
6.86064e-12
3.2166e-09
6.47467e-12
3.22556e-09
6.051e-12
3.23377e-09
5.59413e-12
3.24119e-09
5.10981e-12
3.24781e-09
4.60217e-12
3.2536e-09
4.07943e-12
3.55405e-12
3.25854e-09
1.57475e-09
1.75606e-12
1.58118e-09
1.71884e-12
1.58753e-09
1.72161e-12
1.59375e-09
1.70987e-12
1.59981e-09
1.68427e-12
1.60567e-09
1.64429e-12
1.61128e-09
1.59114e-12
1.61662e-09
1.52599e-12
1.62164e-09
1.44998e-12
1.62633e-09
1.36442e-12
1.63065e-09
1.27039e-12
1.63459e-09
1.16944e-12
1.63813e-09
1.0624e-12
1.64126e-09
9.51772e-13
8.44559e-13
1.64397e-09
4.48799e-10
4.50518e-10
4.5224e-10
4.5395e-10
4.55634e-10
4.57278e-10
4.58869e-10
4.60395e-10
4.61845e-10
4.6321e-10
4.6448e-10
4.6565e-10
4.66712e-10
4.67664e-10
4.68508e-10
1.19326e-09
-5.15762e-10
3.23324e-10
1.46615e-09
-4.73249e-10
2.00352e-10
1.73847e-09
-3.6622e-10
9.3904e-11
2.00419e-09
-2.55129e-10
-1.05896e-11
2.26183e-09
-1.44119e-10
-1.13525e-10
2.51248e-09
-3.80405e-11
-2.12605e-10
2.758e-09
6.43181e-11
-3.0984e-10
3.00007e-09
1.6547e-10
-4.07544e-10
3.24013e-09
2.68525e-10
-5.08581e-10
3.47931e-09
3.77184e-10
-6.16367e-10
3.71853e-09
4.95883e-10
-7.35101e-10
3.95856e-09
6.30331e-10
-8.70356e-10
4.2002e-09
7.88287e-10
-1.02993e-09
4.44456e-09
9.80215e-10
-1.22458e-09
4.69328e-09
1.22042e-09
-1.46915e-09
4.9489e-09
1.52767e-09
-1.78329e-09
5.21549e-09
1.92203e-09
-2.18863e-09
5.49912e-09
2.42576e-09
-2.70939e-09
5.80767e-09
3.05983e-09
-3.36839e-09
6.15103e-09
3.82344e-09
-4.1668e-09
6.53891e-09
4.65478e-09
-5.04266e-09
6.97589e-09
5.38568e-09
-5.82266e-09
7.38356e-09
4.85443e-09
-5.2621e-09
7.72228e-09
3.60852e-09
-3.94724e-09
7.9873e-09
2.19669e-09
-2.46172e-09
8.17996e-09
7.75554e-10
-9.68206e-10
8.30425e-09
-5.49561e-10
4.25266e-10
8.36474e-09
-1.72178e-09
1.66129e-09
8.36575e-09
-2.71444e-09
2.71343e-09
8.31129e-09
-3.51487e-09
3.56933e-09
8.20517e-09
-4.11698e-09
4.2231e-09
8.05126e-09
-4.51937e-09
4.67328e-09
7.85358e-09
-4.72499e-09
4.92268e-09
7.61621e-09
-4.7412e-09
4.97856e-09
7.34315e-09
-4.57932e-09
4.85238e-09
7.03796e-09
-4.2535e-09
4.55869e-09
6.70355e-09
-3.77884e-09
4.11325e-09
6.34209e-09
-3.16882e-09
3.53028e-09
5.95526e-09
-2.4321e-09
2.81893e-09
5.54398e-09
-1.56976e-09
1.98104e-09
5.10635e-09
-5.79421e-10
1.01705e-09
4.6317e-09
5.24365e-10
-4.97113e-11
4.10173e-09
1.65007e-09
-1.1201e-09
3.52297e-09
2.56744e-09
-1.98868e-09
2.60961e-09
3.18179e-09
-2.26843e-09
2.47213e-09
-5.90053e-10
2.62938e-09
-6.305e-10
2.84278e-09
-5.79621e-10
3.08036e-09
-4.92704e-10
3.32821e-09
-3.91973e-10
3.57932e-09
-2.89153e-10
3.83129e-09
-1.87646e-10
4.08352e-09
-8.67627e-11
4.33621e-09
1.58376e-11
4.58983e-09
1.23561e-10
4.84495e-09
2.40758e-10
5.1022e-09
3.73081e-10
5.36235e-09
5.28139e-10
5.62656e-09
7.16004e-10
5.89662e-09
9.50372e-10
6.17524e-09
1.24904e-09
6.46689e-09
1.63038e-09
6.77814e-09
2.11452e-09
7.11744e-09
2.72053e-09
7.4954e-09
3.44548e-09
7.92261e-09
4.22758e-09
8.40437e-09
4.90391e-09
8.85524e-09
4.40356e-09
9.23183e-09
3.23193e-09
9.52869e-09
1.89983e-09
9.74685e-09
5.57391e-10
9.89032e-09
-6.93035e-10
9.96383e-09
-1.79529e-09
9.97202e-09
-2.72264e-09
9.91943e-09
-3.46228e-09
9.81054e-09
-4.00809e-09
9.65004e-09
-4.35887e-09
9.44292e-09
-4.51788e-09
9.19448e-09
-4.49276e-09
8.91015e-09
-4.29499e-09
8.59534e-09
-3.93869e-09
8.25549e-09
-3.43899e-09
7.89645e-09
-2.80978e-09
7.52568e-09
-2.06134e-09
7.15429e-09
-1.19837e-09
6.79917e-09
-2.243e-10
6.48369e-09
8.39841e-10
6.24065e-09
1.89311e-09
6.12327e-09
2.68482e-09
2.67523e-09
6.05765e-09
4.2866e-09
-5.99584e-10
4.35139e-09
-6.95285e-10
4.48113e-09
-7.09362e-10
4.66139e-09
-6.72967e-10
4.87231e-09
-6.02894e-10
5.1015e-09
-5.18344e-10
5.342e-09
-4.28138e-10
5.58999e-09
-3.3476e-10
5.84357e-09
-2.37743e-10
6.10191e-09
-1.34772e-10
6.36477e-09
-2.2104e-11
6.63233e-09
1.05519e-10
6.90513e-09
2.55336e-10
7.18428e-09
4.3686e-10
7.4716e-09
6.63051e-10
7.76997e-09
9.50667e-10
8.08419e-09
1.31617e-09
8.42135e-09
1.77736e-09
8.79045e-09
2.35143e-09
9.20276e-09
3.03317e-09
9.6697e-09
3.76064e-09
1.01973e-08
4.37627e-09
1.0693e-08
3.90788e-09
1.11094e-08
2.81556e-09
1.14401e-08
1.56911e-09
1.16858e-08
3.11731e-10
1.18503e-08
-8.57561e-10
1.19385e-08
-1.88351e-09
1.19554e-08
-2.73957e-09
1.19062e-08
-3.41301e-09
1.1796e-08
-3.89793e-09
1.16307e-08
-4.19351e-09
1.14163e-08
-4.30355e-09
1.11598e-08
-4.23622e-09
1.08683e-08
-4.00348e-09
1.05495e-08
-3.61995e-09
1.02121e-08
-3.10154e-09
9.86614e-09
-2.46382e-09
9.52555e-09
-1.72074e-09
9.21141e-09
-8.84228e-10
8.95627e-09
3.08418e-11
8.8048e-09
9.91312e-10
8.80019e-09
1.89773e-09
8.94244e-09
2.54257e-09
2.57217e-09
9.04551e-09
6.76209e-09
-5.7196e-10
6.76276e-09
-6.95954e-10
6.81214e-09
-7.58741e-10
6.91583e-09
-7.76664e-10
7.06613e-09
-7.53188e-10
7.24889e-09
-7.01107e-10
7.45543e-09
-6.3468e-10
7.6794e-09
-5.58723e-10
7.91665e-09
-4.75003e-10
8.16473e-09
-3.82848e-10
8.42227e-09
-2.7964e-10
8.6887e-09
-1.60913e-10
8.96412e-09
-2.00855e-11
9.24943e-09
1.51551e-10
9.54643e-09
3.66049e-10
9.85807e-09
6.39029e-10
1.01894e-08
9.8479e-10
1.05482e-08
1.4186e-09
1.09438e-08
1.95583e-09
1.13881e-08
2.58887e-09
1.18933e-08
3.25544e-09
1.24662e-08
3.8034e-09
1.30068e-08
3.3672e-09
1.34638e-08
2.35861e-09
1.38295e-08
1.20342e-09
1.41039e-08
3.73051e-11
1.42908e-08
-1.04445e-09
1.4395e-08
-1.98776e-09
1.4422e-08
-2.76655e-09
1.43775e-08
-3.3685e-09
1.42678e-08
-3.78817e-09
1.40997e-08
-4.02543e-09
1.3881e-08
-4.08486e-09
1.36202e-08
-3.97544e-09
1.33267e-08
-3.70997e-09
1.30108e-08
-3.30411e-09
1.26846e-08
-2.77527e-09
1.23624e-08
-2.14169e-09
1.20639e-08
-1.42217e-09
1.18166e-08
-6.36911e-10
1.16594e-08
1.88017e-10
1.16399e-08
1.0108e-09
1.17902e-08
1.7474e-09
1.20788e-08
2.25404e-09
2.34605e-09
1.23049e-08
1.00652e-08
-5.26277e-10
1.00232e-08
-6.53944e-10
1.00112e-08
-7.46769e-10
1.00403e-08
-8.05714e-10
1.01144e-08
-8.27307e-10
1.02308e-08
-8.17477e-10
1.03808e-08
-7.84724e-10
1.05581e-08
-7.36032e-10
1.07576e-08
-6.74459e-10
1.09755e-08
-6.00765e-10
1.12094e-08
-5.13609e-10
1.14581e-08
-4.09586e-10
1.17211e-08
-2.83026e-10
1.19989e-08
-1.26276e-10
1.22933e-08
7.15995e-11
1.26074e-08
3.25015e-10
1.29464e-08
6.45781e-10
1.33186e-08
1.04638e-09
1.37339e-08
1.54055e-09
1.42046e-08
2.11818e-09
1.47436e-08
2.71643e-09
1.53582e-08
3.18876e-09
1.59418e-08
2.78363e-09
1.64383e-08
1.86214e-09
1.68386e-08
8.03123e-10
1.71418e-08
-2.65976e-10
1.73515e-08
-1.25414e-09
1.74725e-08
-2.10872e-09
1.75105e-08
-2.80455e-09
1.74721e-08
-3.33007e-09
1.73646e-08
-3.68066e-09
1.71963e-08
-3.85717e-09
1.69767e-08
-3.86525e-09
1.67163e-08
-3.71501e-09
1.64267e-08
-3.42043e-09
1.61212e-08
-2.99861e-09
1.58149e-08
-2.46894e-09
1.55259e-08
-1.85269e-09
1.5277e-08
-1.17331e-09
1.50977e-08
-4.57537e-10
1.50239e-08
2.61785e-10
1.5093e-08
9.41744e-10
1.53203e-08
1.52006e-09
1.56626e-08
1.91179e-09
2.03239e-09
1.59762e-08
1.43943e-08
-4.73927e-10
1.43305e-08
-5.90164e-10
1.42767e-08
-6.92969e-10
1.4246e-08
-7.75031e-10
1.42487e-08
-8.29988e-10
1.42898e-08
-8.58627e-10
1.43677e-08
-8.62565e-10
1.44786e-08
-8.46927e-10
1.46186e-08
-8.14459e-10
1.47842e-08
-7.66398e-10
1.49728e-08
-7.02242e-10
1.51828e-08
-6.1954e-10
1.54133e-08
-5.13573e-10
1.5665e-08
-3.77923e-10
1.59395e-08
-2.02921e-10
1.62399e-08
2.46424e-11
1.6572e-08
3.13696e-10
1.69447e-08
6.73657e-10
1.73682e-08
1.11702e-09
1.78553e-08
1.63106e-09
1.84196e-08
2.15218e-09
1.90686e-08
2.53974e-09
1.96896e-08
2.16264e-09
2.02218e-08
1.32997e-09
2.0654e-08
3.70901e-10
2.09843e-08
-5.96258e-10
2.12156e-08
-1.48544e-09
2.13527e-08
-2.24585e-09
2.14018e-08
-2.85365e-09
2.13702e-08
-3.29851e-09
2.12666e-08
-3.57703e-09
2.11008e-08
-3.69135e-09
2.08841e-08
-3.64853e-09
2.06291e-08
-3.46003e-09
2.03499e-08
-3.14125e-09
2.00622e-08
-2.71091e-09
1.97837e-08
-2.19044e-09
1.95347e-08
-1.60367e-09
1.93385e-08
-9.77177e-10
1.92217e-08
-3.40749e-10
1.92117e-08
2.71821e-10
1.93305e-08
8.22914e-10
1.95798e-08
1.27084e-09
1.99192e-08
1.5723e-09
1.69611e-09
2.02555e-08
1.99863e-08
-4.19768e-10
1.99152e-08
-5.18973e-10
1.9839e-08
-6.16832e-10
1.97693e-08
-7.05327e-10
1.97175e-08
-7.78147e-10
1.96913e-08
-8.32408e-10
1.96953e-08
-8.66648e-10
1.97306e-08
-8.82211e-10
1.97964e-08
-8.80278e-10
1.98914e-08
-8.61356e-10
2.00141e-08
-8.24933e-10
2.01636e-08
-7.69017e-10
2.03395e-08
-6.89545e-10
2.0543e-08
-5.81341e-10
2.07761e-08
-4.36018e-10
2.10421e-08
-2.41377e-10
2.13476e-08
8.14501e-12
2.17027e-08
3.18619e-10
2.21177e-08
7.02014e-10
2.26058e-08
1.14288e-09
2.31814e-08
1.57661e-09
2.38521e-08
1.86905e-09
2.45004e-08
1.51437e-09
2.50605e-08
7.69809e-10
2.55187e-08
-8.723e-11
2.58713e-08
-9.48851e-10
2.61206e-08
-1.7348e-09
2.62714e-08
-2.39666e-09
2.63302e-08
-2.91244e-09
2.63053e-08
-3.27358e-09
2.62065e-08
-3.47827e-09
2.60455e-08
-3.53033e-09
2.58354e-08
-3.43843e-09
2.5591e-08
-3.21557e-09
2.53283e-08
-2.87861e-09
2.50651e-08
-2.44773e-09
2.48205e-08
-1.94585e-09
2.46151e-08
-1.39824e-09
2.44702e-08
-8.3226e-10
2.44065e-08
-2.77015e-10
2.44408e-08
2.37463e-10
2.45816e-08
6.8215e-10
2.48209e-08
1.03157e-09
2.51262e-08
1.26694e-09
1.38159e-09
2.54407e-08
2.71241e-08
-3.63521e-10
2.70509e-08
-4.45789e-10
2.69659e-08
-5.31792e-10
2.68763e-08
-6.15715e-10
2.67905e-08
-6.92402e-10
2.67163e-08
-7.58124e-10
2.666e-08
-8.10384e-10
2.6626e-08
-8.48209e-10
2.66169e-08
-8.71194e-10
2.66343e-08
-8.78733e-10
2.66791e-08
-8.6976e-10
2.67523e-08
-8.42246e-10
2.68551e-08
-7.92331e-10
2.69898e-08
-7.15973e-10
2.71597e-08
-6.05942e-10
2.73689e-08
-4.50594e-10
2.76254e-08
-2.48322e-10
2.79407e-08
3.3231e-12
2.83257e-08
3.16993e-10
2.87943e-08
6.74303e-10
2.93615e-08
1.00941e-09
3.00349e-08
1.19558e-09
3.06947e-08
8.54618e-10
3.12701e-08
1.94359e-10
3.17438e-08
-5.6092e-10
3.21103e-08
-1.31531e-09
3.2371e-08
-1.99546e-09
3.25303e-08
-2.55598e-09
3.25953e-08
-2.97743e-09
3.25752e-08
-3.25349e-09
3.24812e-08
-3.38433e-09
3.23266e-08
-3.37571e-09
3.21263e-08
-3.23815e-09
3.18969e-08
-2.98613e-09
3.16561e-08
-2.63776e-09
3.14225e-08
-2.21415e-09
3.12154e-08
-1.73874e-09
3.10537e-08
-1.23654e-09
3.09548e-08
-7.33398e-10
3.09327e-08
-2.54882e-10
3.0995e-08
1.75182e-10
3.11405e-08
5.36636e-10
3.13566e-08
8.15418e-10
3.16182e-08
1.00534e-09
1.10935e-09
3.18904e-08
3.61377e-08
-3.02089e-10
3.60616e-08
-3.69742e-10
3.59724e-08
-4.42614e-10
3.58737e-08
-5.17019e-10
3.57705e-08
-5.89168e-10
3.56682e-08
-6.55814e-10
3.55723e-08
-7.1445e-10
3.54874e-08
-7.63384e-10
3.54177e-08
-8.01484e-10
3.53665e-08
-8.27531e-10
3.53369e-08
-8.4012e-10
3.53319e-08
-8.37232e-10
3.53546e-08
-8.15019e-10
3.54092e-08
-7.70648e-10
3.55013e-08
-6.9799e-10
3.5636e-08
-5.85302e-10
3.58234e-08
-4.35771e-10
3.60776e-08
-2.50821e-10
3.64099e-08
-1.53581e-11
3.68353e-08
2.48888e-10
3.73702e-08
4.74569e-10
3.8022e-08
5.43769e-10
3.86716e-08
2.04979e-10
3.92442e-08
-3.78223e-10
3.97182e-08
-1.03492e-09
4.00858e-08
-1.68285e-09
4.03472e-08
-2.2569e-09
4.05067e-08
-2.7155e-09
4.05718e-08
-3.04253e-09
4.05527e-08
-3.23443e-09
4.0462e-08
-3.2936e-09
4.03142e-08
-3.22793e-09
4.01259e-08
-3.0498e-09
3.99147e-08
-2.77499e-09
3.96993e-08
-2.42231e-09
3.94981e-08
-2.01296e-09
3.9329e-08
-1.56963e-09
3.92079e-08
-1.11549e-09
3.91476e-08
-6.73013e-10
3.91555e-08
-2.62802e-10
3.92328e-08
9.78737e-11
3.93733e-08
3.96127e-10
3.95633e-08
6.25371e-10
3.97834e-08
7.85237e-10
8.81455e-10
4.00113e-08
4.73968e-08
-2.3247e-10
4.7315e-08
-2.87981e-10
4.72212e-08
-3.48732e-10
4.71167e-08
-4.12514e-10
4.70042e-08
-4.767e-10
4.68871e-08
-5.38745e-10
4.67691e-08
-5.96469e-10
4.66539e-08
-6.48138e-10
4.65449e-08
-6.92501e-10
4.64456e-08
-7.28247e-10
4.63596e-08
-7.5411e-10
4.62909e-08
-7.68517e-10
4.62437e-08
-7.67825e-10
4.62239e-08
-7.5085e-10
4.62387e-08
-7.12816e-10
4.62948e-08
-6.41371e-10
4.64046e-08
-5.45582e-10
4.6585e-08
-4.31234e-10
4.68478e-08
-2.78123e-10
4.72098e-08
-1.13093e-10
4.76889e-08
-4.56112e-12
4.82927e-08
-6.00727e-11
4.8907e-08
-4.09298e-10
4.94544e-08
-9.25574e-10
4.99091e-08
-1.48965e-09
5.0261e-08
-2.03472e-09
5.05091e-08
-2.50505e-09
5.06574e-08
-2.86377e-09
5.07139e-08
-3.09907e-09
5.06901e-08
-3.21057e-09
5.05993e-08
-3.20284e-09
5.04574e-08
-3.08597e-09
5.02816e-08
-2.87405e-09
5.00903e-08
-2.5837e-09
4.99017e-08
-2.23368e-09
4.9733e-08
-1.84425e-09
4.95995e-08
-1.43617e-09
4.95135e-08
-1.02948e-09
4.94829e-08
-6.42435e-10
4.95105e-08
-2.90424e-10
4.95933e-08
1.50746e-11
4.97236e-08
2.6592e-10
4.98885e-08
4.60468e-10
5.00731e-08
6.00555e-10
6.92017e-10
5.02626e-08
6.12988e-08
-1.53841e-10
6.121e-08
-1.99251e-10
6.11107e-08
-2.49404e-10
6.10013e-08
-3.03055e-10
6.0883e-08
-3.58487e-10
6.07581e-08
-4.13828e-10
6.0629e-08
-4.67315e-10
6.04982e-08
-5.17369e-10
6.03685e-08
-5.62831e-10
6.02427e-08
-6.02443e-10
6.01239e-08
-6.35255e-10
6.00157e-08
-6.60323e-10
5.99223e-08
-6.74475e-10
5.98499e-08
-6.78415e-10
5.98062e-08
-6.69078e-10
5.97987e-08
-6.33911e-10
5.98413e-08
-5.88167e-10
5.99523e-08
-5.4225e-10
6.01435e-08
-4.69332e-10
6.04341e-08
-4.03706e-10
6.08434e-08
-4.13879e-10
6.13787e-08
-5.95372e-10
6.19346e-08
-9.65149e-10
6.2434e-08
-1.42498e-09
6.28485e-08
-1.90417e-09
6.31663e-08
-2.35252e-09
6.33854e-08
-2.72409e-09
6.35093e-08
-2.9877e-09
6.35472e-08
-3.13699e-09
6.35115e-08
-3.17485e-09
6.34164e-08
-3.10774e-09
6.32781e-08
-2.9477e-09
6.31143e-08
-2.71021e-09
6.29426e-08
-2.41207e-09
6.278e-08
-2.07108e-09
6.26414e-08
-1.70564e-09
6.25389e-08
-1.33367e-09
6.2481e-08
-9.71498e-10
6.24716e-08
-6.33066e-10
6.25104e-08
-3.29212e-10
6.25923e-08
-6.68426e-11
6.27095e-08
1.48701e-10
6.28513e-08
3.18696e-10
6.30063e-08
4.45518e-10
5.34268e-10
6.31641e-08
7.82648e-08
-6.82938e-11
7.81709e-08
-1.05362e-10
7.8068e-08
-1.46521e-10
7.79561e-08
-1.91145e-10
7.78359e-08
-2.3821e-10
7.77085e-08
-2.86455e-10
7.75758e-08
-3.3459e-10
7.74397e-08
-3.8133e-10
7.73026e-08
-4.25726e-10
7.71668e-08
-4.66641e-10
7.70351e-08
-5.03512e-10
7.69104e-08
-5.35703e-10
7.67971e-08
-5.61088e-10
7.67001e-08
-5.81406e-10
7.6626e-08
-5.95025e-10
7.6585e-08
-5.92948e-10
7.65892e-08
-5.92335e-10
7.66517e-08
-6.04795e-10
7.67874e-08
-6.04989e-10
7.70186e-08
-6.34871e-10
7.73619e-08
-7.57249e-10
7.78232e-08
-1.0566e-09
7.83078e-08
-1.44983e-09
7.8743e-08
-1.86016e-09
7.91005e-08
-2.26161e-09
7.93686e-08
-2.62068e-09
7.95448e-08
-2.90028e-09
7.96328e-08
-3.07571e-09
7.96432e-08
-3.14742e-09
7.95896e-08
-3.12117e-09
7.94863e-08
-3.00449e-09
7.93496e-08
-2.81102e-09
7.91965e-08
-2.55709e-09
7.90433e-08
-2.2588e-09
7.89044e-08
-1.93223e-09
7.8792e-08
-1.59321e-09
7.87147e-08
-1.25643e-09
7.86777e-08
-9.34484e-10
7.86821e-08
-6.37452e-10
7.87255e-08
-3.72586e-10
7.88029e-08
-1.44225e-10
7.89061e-08
4.54715e-11
7.90272e-08
1.97614e-10
7.91574e-08
3.15314e-10
4.02607e-10
7.9289e-08
9.87637e-08
2.02913e-11
9.86685e-08
-1.0158e-11
9.85661e-08
-4.40549e-11
9.84561e-08
-8.11763e-11
9.83389e-08
-1.20979e-10
9.82152e-08
-1.62744e-10
9.80862e-08
-2.05649e-10
9.79537e-08
-2.48821e-10
9.78196e-08
-2.9164e-10
9.76861e-08
-3.33165e-10
9.75562e-08
-3.73549e-10
9.74322e-08
-4.11698e-10
9.7319e-08
-4.47943e-10
9.7221e-08
-4.8341e-10
9.71418e-08
-5.15787e-10
9.70988e-08
-5.49905e-10
9.70971e-08
-5.90717e-10
9.7137e-08
-6.44647e-10
9.7243e-08
-7.10955e-10
9.74425e-08
-8.34404e-10
9.77413e-08
-1.05609e-09
9.81407e-08
-1.456e-09
9.85567e-08
-1.86579e-09
9.89234e-08
-2.22688e-09
9.92167e-08
-2.55486e-09
9.94278e-08
-2.83179e-09
9.9554e-08
-3.02654e-09
9.96002e-08
-3.12184e-09
9.95792e-08
-3.12647e-09
9.95054e-08
-3.0474e-09
9.93931e-08
-2.89217e-09
9.92578e-08
-2.67569e-09
9.91151e-08
-2.41439e-09
9.89791e-08
-2.12279e-09
9.88615e-08
-1.81463e-09
9.87712e-08
-1.50291e-09
9.87139e-08
-1.19913e-09
9.8692e-08
-9.12585e-10
9.87048e-08
-6.50273e-10
9.87492e-08
-4.16935e-10
9.88199e-08
-2.14982e-10
9.89097e-08
-4.43283e-11
9.90129e-08
9.44351e-11
9.91224e-08
2.05793e-10
2.92363e-10
9.92327e-08