/*--------------------------------*- C++ -*----------------------------------*\
| =========                 |                                                 |
| \\      /  F ield         | OpenFOAM: The Open Source CFD Toolbox           |
|  \\    /   O peration     | Version:  2312                                  |
|   \\  /    A nd           | Website:  www.openfoam.com                      |
|    \\/     M anipulation  |                                                 |
\*---------------------------------------------------------------------------*/
FoamFile
{
    version     2.0;
    format      ascii;
    arch        "LSB;label=32;scalar=64";
    class       volVectorField;
    location    "126";
    object      U;
}
// * * * * * * * * * * * * * * * * * * * * * * * * * * * * * * * * * * * * * //

dimensions      [0 1 -1 0 0 0 0];

internalField   nonuniform List<vector> 
4800
(
(0.000489839 4.13039e-07 -3.52486e-26)
(0.000479126 4.81068e-07 -2.48e-25)
(0.000471818 5.19814e-07 3.18261e-25)
(0.000466913 5.30258e-07 1.45457e-25)
(0.000463805 5.11139e-07 2.14618e-24)
(0.000462134 4.71308e-07 -5.1117e-24)
(0.000461667 4.12832e-07 4.7631e-24)
(0.00046241 3.23304e-07 -6.87847e-24)
(0.000464247 1.82117e-07 2.21558e-24)
(0.000467356 -9.21347e-08 7.50478e-24)
(0.000472143 -6.42422e-07 -2.31496e-24)
(0.000479944 -2.10095e-06 -1.99843e-25)
(0.000497995 -7.40313e-06 -2.80294e-24)
(0.000544703 -2.8892e-05 1.28023e-24)
(0.000623289 -9.5536e-05 -1.012e-24)
(0.00151072 2.17038e-06 -1.12038e-25)
(0.00147784 1.74453e-06 1.39651e-25)
(0.0014552 1.40173e-06 -1.28918e-24)
(0.00143977 1.08546e-06 9.6392e-25)
(0.00142973 7.55883e-07 3.08728e-24)
(0.00142396 3.94308e-07 -4.92434e-24)
(0.00142173 -3.8051e-08 -1.38558e-24)
(0.00142296 -6.17951e-07 -3.15628e-25)
(0.00142721 -1.43632e-06 1.13738e-23)
(0.00143514 -2.79981e-06 -8.41843e-24)
(0.00144785 -5.38722e-06 9.17229e-25)
(0.0014682 -1.1433e-05 1.38819e-24)
(0.00150503 -2.87296e-05 -2.03892e-24)
(0.00156953 -8.14625e-05 -5.92633e-25)
(0.00164016 -0.000201843 2.6387e-24)
(0.00263526 7.01116e-06 -8.01145e-26)
(0.00257848 5.61075e-06 8.18461e-26)
(0.00253906 4.51319e-06 8.43267e-25)
(0.0025119 3.5336e-06 -2.00997e-24)
(0.00249385 2.55242e-06 1.97088e-24)
(0.002483 1.47354e-06 1.85091e-24)
(0.00247798 1.26862e-07 -4.73978e-24)
(0.00247863 -1.60803e-06 -2.88365e-24)
(0.00248395 -4.02787e-06 7.00219e-24)
(0.0024949 -7.8782e-06 2.64771e-24)
(0.00251268 -1.46841e-05 -9.22611e-24)
(0.00253934 -2.84306e-05 -1.37427e-24)
(0.0025791 -5.89181e-05 3.93028e-24)
(0.00263072 -0.000126013 6.16477e-24)
(0.00266857 -0.000238982 -3.17956e-24)
(0.00386965 1.57408e-05 2.95769e-26)
(0.00378767 1.27093e-05 -2.06307e-25)
(0.00373025 1.03367e-05 9.20802e-25)
(0.00369022 8.2317e-06 9.84226e-25)
(0.00366308 6.14545e-06 -9.8011e-25)
(0.00364603 3.88038e-06 -5.64376e-24)
(0.00363706 1.13001e-06 -3.82912e-24)
(0.00363567 -2.48794e-06 1.41927e-23)
(0.00364038 -7.15867e-06 5.79772e-24)
(0.00365181 -1.44662e-05 -8.4821e-24)
(0.00367061 -2.64491e-05 -3.42121e-24)
(0.00369682 -4.75715e-05 -2.59562e-24)
(0.00372969 -8.61133e-05 8.18783e-26)
(0.00376185 -0.000152527 1.91306e-24)
(0.00377433 -0.000242575 9.34429e-27)
(0.00521813 2.92443e-05 -5.42041e-26)
(0.00511058 2.37815e-05 -3.32594e-25)
(0.00503449 1.95025e-05 -2.10789e-25)
(0.00498074 1.57279e-05 5.68996e-25)
(0.00494355 1.20304e-05 -1.61371e-24)
(0.00491923 8.08604e-06 4.02485e-24)
(0.0049051 3.4086e-06 -7.11001e-25)
(0.00489989 -2.45884e-06 2.46368e-24)
(0.00490222 -1.01223e-05 -1.36399e-23)
(0.00491142 -2.11486e-05 2.5907e-23)
(0.00492724 -3.79029e-05 -2.51121e-23)
(0.0049479 -6.39116e-05 1.32201e-23)
(0.00496991 -0.000104243 -1.22493e-23)
(0.00498529 -0.000162212 1.15587e-23)
(0.00498305 -0.000230492 -4.61349e-24)
(0.0066813 4.85353e-05 7.15438e-26)
(0.00654957 3.978e-05 2.57198e-25)
(0.00645518 3.29005e-05 -1.35661e-24)
(0.00638752 2.68619e-05 -8.58098e-25)
(0.00633972 2.10181e-05 2.30356e-24)
(0.00630728 1.4898e-05 8.24053e-25)
(0.00628689 7.85784e-06 -6.43794e-24)
(0.00627645 -6.74591e-07 1.53431e-23)
(0.00627425 -1.14823e-05 -1.99142e-23)
(0.00627886 -2.61369e-05 4.7809e-24)
(0.00628868 -4.64516e-05 1.44665e-23)
(0.00630102 -7.46269e-05 -2.00711e-23)
(0.00631182 -0.000112656 1.00454e-23)
(0.006315 -0.000160098 1.03269e-23)
(0.00630542 -0.000210759 -7.86701e-24)
(0.00825379 7.44139e-05 5.9186e-26)
(0.00810207 6.15816e-05 -3.50837e-25)
(0.00799157 5.14256e-05 1.25794e-24)
(0.00791101 4.25308e-05 -1.74532e-24)
(0.0078529 3.40168e-05 -5.92071e-24)
(0.00781205 2.52586e-05 1.00918e-23)
(0.00778467 1.55099e-05 -6.11388e-24)
(0.00776798 4.0699e-06 2.07583e-23)
(0.00775971 -9.80867e-06 -1.41227e-23)
(0.00775782 -2.74102e-05 -6.58237e-24)
(0.00775996 -4.99094e-05 -1.29219e-23)
(0.00776317 -7.81329e-05 1.18804e-23)
(0.00776404 -0.000112084 3.34209e-24)
(0.00775875 -0.000149978 2.87356e-24)
(0.00774547 -0.000187596 -2.52987e-24)
(0.00992151 0.000106964 -8.56313e-26)
(0.00975804 8.96e-05 1.16269e-24)
(0.00963635 7.5669e-05 -2.70748e-24)
(0.00954584 6.34374e-05 -2.21608e-24)
(0.00947905 5.18233e-05 8.34455e-25)
(0.00943056 4.00705e-05 1.6351e-24)
(0.00939628 2.73946e-05 5.84076e-24)
(0.00937299 1.30644e-05 -1.58761e-23)
(0.00935797 -3.57065e-06 -8.43649e-24)
(0.00934877 -2.33171e-05 2.32747e-23)
(0.00934282 -4.66976e-05 -7.20885e-24)
(0.00933744 -7.36161e-05 2.46659e-23)
(0.00933017 -0.000103182 -1.29878e-23)
(0.00931884 -0.00013356 -4.1606e-24)
(0.00930323 -0.000162163 2.46752e-24)
(0.0116601 0.000144888 -1.14542e-26)
(0.0114978 0.000123249 6.44707e-25)
(0.0113733 0.000105481 -9.17766e-25)
(0.0112783 8.97267e-05 2.19721e-24)
(0.0112064 7.4811e-05 -1.30897e-23)
(0.0111526 5.99171e-05 1.38163e-23)
(0.0111128 4.42947e-05 -2.17181e-23)
(0.0110836 2.72926e-05 1.33627e-23)
(0.0110623 8.43085e-06 9.91811e-24)
(0.0110462 -1.26499e-05 2.15083e-23)
(0.011033 -3.59417e-05 -2.8096e-23)
(0.0110205 -6.0914e-05 -5.22161e-24)
(0.011007 -8.65171e-05 2.37412e-24)
(0.0109913 -0.000111356 1.7254e-23)
(0.0109739 -0.000133946 -7.03436e-24)
(0.0134378 0.000184886 6.45719e-26)
(0.0132926 0.000160318 -2.74626e-25)
(0.0131766 0.00013939 1.21467e-24)
(0.0130853 0.000120459 -4.25279e-24)
(0.0130141 0.000102448 6.44052e-24)
(0.012959 8.46083e-05 -8.30302e-24)
(0.0129165 6.63105e-05 1.38836e-23)
(0.0128837 4.70695e-05 2.42345e-24)
(0.0128579 2.663e-05 -1.91106e-23)
(0.0128366 4.95401e-06 2.72217e-23)
(0.012818 -1.76492e-05 -3.00354e-23)
(0.0128003 -4.05502e-05 -8.89203e-24)
(0.0127827 -6.28828e-05 1.56397e-23)
(0.0127642 -8.37522e-05 4.665e-24)
(0.0127455 -0.000102359 -2.04234e-24)
(0.015226 0.000221837 2.76604e-25)
(0.0151122 0.000196753 -2.17299e-24)
(0.0150162 0.000174213 -3.40287e-24)
(0.0149374 0.000153141 8.10428e-24)
(0.0148738 0.000132801 3.6033e-24)
(0.0148228 0.000112668 -2.26327e-23)
(0.014782 9.23332e-05 6.98131e-24)
(0.0147489 7.15364e-05 5.0179e-24)
(0.0147215 5.02368e-05 -2.1681e-23)
(0.0146978 2.86078e-05 2.25687e-23)
(0.0146765 7.03687e-06 -1.81499e-23)
(0.0146562 -1.39291e-05 4.65904e-23)
(0.0146366 -3.36874e-05 -2.24741e-23)
(0.014617 -5.17391e-05 1.32694e-23)
(0.0145981 -6.76886e-05 -3.63124e-24)
(0.0170169 0.000250876 -1.29084e-25)
(0.0169393 0.000227851 1.5212e-24)
(0.0168695 0.000205678 -2.88563e-24)
(0.0168094 0.000183998 -1.43329e-24)
(0.0167589 0.000162573 1.60793e-23)
(0.0167169 0.000141228 -2.35694e-24)
(0.0166819 0.00011984 -2.85067e-23)
(0.0166522 9.83922e-05 3.32319e-23)
(0.0166266 7.70205e-05 -7.45865e-24)
(0.0166036 5.59939e-05 -2.58709e-23)
(0.0165824 3.56803e-05 2.76458e-23)
(0.0165623 1.64704e-05 1.50118e-23)
(0.0165431 -1.26391e-06 -1.25175e-23)
(0.016524 -1.72843e-05 -2.18864e-23)
(0.0165061 -3.14259e-05 1.84322e-24)
(0.0188308 0.000270829 2.50039e-26)
(0.0187818 0.000251189 -1.75988e-24)
(0.0187354 0.00023078 8.00485e-24)
(0.0186937 0.000209814 4.09009e-25)
(0.0186573 0.000188538 4.39488e-24)
(0.0186259 0.000167137 -1.58994e-23)
(0.0185986 0.000145763 1.35298e-23)
(0.0185745 0.000124599 3.077e-24)
(0.0185529 0.000103897 2.78478e-23)
(0.018533 8.39452e-05 -4.29853e-23)
(0.0185143 6.50463e-05 -1.95203e-23)
(0.0184962 4.74518e-05 -1.29927e-23)
(0.018479 3.13645e-05 2.43916e-23)
(0.0184621 1.68705e-05 -7.14232e-25)
(0.0184462 4.01362e-06 2.38233e-24)
(0.020694 0.00028508 -5.12741e-27)
(0.0206611 0.000268573 1.90706e-24)
(0.0206293 0.000250188 -2.7611e-24)
(0.0206002 0.000230452 1.69783e-26)
(0.0205742 0.000209982 3.29079e-24)
(0.020551 0.00018925 8.30032e-24)
(0.0205303 0.000168605 -3.21999e-23)
(0.0205114 0.000148348 2.731e-24)
(0.020494 0.000128772 1.63395e-23)
(0.0204775 0.000110138 -7.54815e-24)
(0.0204619 9.267e-05 2.06037e-23)
(0.0204466 7.65151e-05 1.45125e-23)
(0.0204321 6.17701e-05 -2.63062e-23)
(0.0204177 4.84392e-05 1.81078e-23)
(0.0204042 3.65086e-05 -1.5059e-23)
(0.0225992 0.000296923 -3.07506e-25)
(0.0225749 0.000283202 -3.21011e-25)
(0.0225511 0.000266718 3.46151e-24)
(0.022529 0.000248306 -1.62461e-23)
(0.0225091 0.000228871 1.41902e-23)
(0.022491 0.000209092 -9.99921e-24)
(0.0224745 0.000189446 7.20805e-24)
(0.0224591 0.00017029 -5.05175e-23)
(0.0224447 0.000151915 7.29325e-23)
(0.0224308 0.000134534 -4.29703e-23)
(0.0224176 0.000118302 3.84009e-23)
(0.0224047 0.000103294 3.22642e-23)
(0.0223924 8.9545e-05 -5.63982e-23)
(0.0223802 7.70212e-05 1.83935e-23)
(0.0223688 6.56815e-05 -7.75189e-25)
(0.0244898 0.000306613 -1.21601e-26)
(0.0244731 0.000295953 -1.28255e-24)
(0.0244558 0.000281471 1.32547e-24)
(0.0244391 0.000264591 -4.59754e-25)
(0.0244237 0.00024648 6.02072e-24)
(0.0244093 0.000227918 -1.0188e-23)
(0.024396 0.000209445 9.28697e-24)
(0.0243832 0.000191447 -2.90406e-23)
(0.0243712 0.000174208 6.58744e-23)
(0.0243595 0.000157905 -8.41704e-23)
(0.0243483 0.000142647 6.89327e-23)
(0.0243374 0.00012847 -2.32841e-23)
(0.024327 0.000115379 1.22208e-24)
(0.0243166 0.000103328 5.3903e-24)
(0.0243069 9.22694e-05 -1.03104e-23)
(0.0262773 0.000312204 -9.62087e-25)
(0.0262692 0.000305924 5.68632e-25)
(0.0262581 0.00029392 1.3344e-24)
(0.0262466 0.000278913 -3.20185e-24)
(0.0262356 0.000262438 1.0905e-23)
(0.026225 0.00024534 -1.06753e-23)
(0.0262148 0.000228182 -8.85637e-24)
(0.0262049 0.00021137 -2.09519e-23)
(0.0261954 0.000195188 1.10568e-23)
(0.026186 0.000179802 5.08049e-23)
(0.026177 0.000165298 -2.67429e-23)
(0.0261681 0.000151697 1.58807e-23)
(0.0261596 0.000138997 -6.53646e-24)
(0.0261511 0.000127155 -1.9385e-23)
(0.0261431 0.00011613 9.92499e-24)
(0.0278485 0.00031467 2.74882e-25)
(0.0278454 0.000310641 -3.90381e-25)
(0.0278403 0.000302656 1.91655e-24)
(0.0278336 0.000290002 -7.15879e-24)
(0.0278269 0.000275594 -2.04212e-24)
(0.02782 0.000260273 1.94951e-23)
(0.0278131 0.000244624 -1.45184e-23)
(0.0278062 0.000229076 -8.28697e-24)
(0.0277995 0.000213932 7.81172e-24)
(0.0277927 0.000199364 -8.597e-24)
(0.0277861 0.00018546 2.01374e-23)
(0.0277794 0.000172249 1.00005e-23)
(0.0277729 0.000159735 -3.74245e-23)
(0.0277664 0.000147892 2.57784e-23)
(0.0277603 0.000136691 -5.24224e-24)
(0.0290389 0.000315313 8.37044e-25)
(0.0290395 0.000313019 5.02354e-25)
(0.0290389 0.000307427 -1.69325e-24)
(0.0290373 0.000297079 2.96288e-24)
(0.0290351 0.000284625 -4.28688e-24)
(0.0290323 0.000271084 -8.41828e-24)
(0.0290291 0.000256992 -8.54491e-24)
(0.0290256 0.000242763 2.32781e-23)
(0.029022 0.000228685 2.12846e-23)
(0.0290182 0.000214929 -5.10139e-23)
(0.0290143 0.000201595 2.86244e-23)
(0.0290103 0.000188726 -1.95145e-24)
(0.0290062 0.000176343 -1.5602e-24)
(0.029002 0.000164439 2.08136e-24)
(0.0289979 0.000153002 -9.5327e-25)
(0.0296215 0.00030898 -2.40138e-24)
(0.0296292 0.000308974 -3.43539e-24)
(0.0296344 0.000304229 4.27275e-24)
(0.0296384 0.000296208 2.3272e-24)
(0.0296414 0.000285979 -3.74675e-26)
(0.0296434 0.000274327 3.11925e-24)
(0.0296446 0.000261863 -2.48386e-24)
(0.0296453 0.000249005 -1.77015e-23)
(0.0296455 0.000236024 3.97824e-23)
(0.0296454 0.000223088 -1.639e-23)
(0.0296449 0.000210308 6.41879e-24)
(0.0296442 0.00019775 -1.12464e-23)
(0.0296432 0.000185457 -1.13979e-23)
(0.0296419 0.000173445 1.66622e-23)
(0.0296406 0.000161721 -7.12902e-24)
(0.0294096 0.000297504 3.61535e-24)
(0.0294204 0.00029918 -7.73535e-24)
(0.0294292 0.000296366 1.77138e-24)
(0.0294365 0.000290282 6.15684e-24)
(0.0294428 0.00028185 -4.14574e-24)
(0.0294481 0.000271841 -4.98561e-25)
(0.0294527 0.000260829 -6.00407e-24)
(0.0294565 0.000249192 1.49719e-23)
(0.0294599 0.000237173 4.91261e-24)
(0.0294628 0.000224936 -1.01992e-23)
(0.0294652 0.000212599 -5.68844e-24)
(0.0294672 0.000200247 6.76637e-24)
(0.0294689 0.000187941 -7.29156e-24)
(0.0294704 0.000175716 4.23243e-24)
(0.0294715 0.000163597 -1.84768e-24)
(0.0284236 0.000281171 2.15031e-24)
(0.0284422 0.000283425 -4.35692e-24)
(0.0284585 0.000281523 -2.31014e-24)
(0.0284726 0.000276611 1.08704e-23)
(0.028485 0.00026953 -8.63292e-24)
(0.028496 0.00026091 1.39912e-24)
(0.0285057 0.00025121 9.51112e-25)
(0.0285144 0.00024074 -1.74019e-25)
(0.028522 0.000229715 -1.55535e-24)
(0.0285288 0.000218287 1.1057e-23)
(0.0285348 0.000206578 -6.73754e-24)
(0.0285401 0.000194673 1.14018e-24)
(0.0285448 0.000182643 -1.15522e-23)
(0.028549 0.000170534 5.61951e-24)
(0.0285526 0.000158382 1.93072e-24)
(0.0268398 0.000259504 5.22131e-24)
(0.0268605 0.000261617 -9.0933e-24)
(0.0268795 0.000260087 1.90908e-24)
(0.0268968 0.000255932 -3.5464e-24)
(0.0269127 0.000249859 -3.66377e-24)
(0.0269274 0.000242349 1.38063e-23)
(0.0269409 0.000233751 -4.58007e-24)
(0.0269533 0.000224321 8.41889e-25)
(0.0269647 0.000214247 -2.56508e-25)
(0.0269752 0.000203672 1.33742e-24)
(0.0269849 0.000192706 -3.7022e-24)
(0.0269939 0.000181436 3.88184e-24)
(0.0270022 0.00016993 -1.89315e-25)
(0.0270098 0.00015824 -1.6537e-24)
(0.0270169 0.000146407 2.86937e-25)
(0.0249313 0.000238085 1.98331e-24)
(0.0249557 0.000239761 -1.00033e-23)
(0.0249786 0.000238359 1.69192e-23)
(0.025 0.000234678 -1.25231e-23)
(0.0250199 0.000229274 1.1638e-23)
(0.0250386 0.000222523 -4.13508e-24)
(0.025056 0.000214703 -2.63266e-24)
(0.0250723 0.000206029 -2.29447e-24)
(0.0250874 0.000196668 2.74751e-24)
(0.0251016 0.000186748 -1.16629e-24)
(0.0251149 0.000176372 -1.26193e-24)
(0.0251273 0.000165622 5.10204e-25)
(0.0251389 0.000154566 -7.95645e-25)
(0.0251497 0.000143257 3.94222e-25)
(0.0251598 0.000131741 -1.35921e-25)
(0.0228425 0.000214746 2.6237e-25)
(0.0228717 0.000215827 -3.77144e-24)
(0.0228995 0.000214338 -1.98592e-24)
(0.0229256 0.000210879 1.65803e-23)
(0.0229503 0.000205886 -1.59942e-23)
(0.0229736 0.000199658 4.59495e-24)
(0.0229955 0.000192425 7.29191e-25)
(0.0230161 0.000184366 -3.51318e-25)
(0.0230354 0.000175626 -1.37987e-24)
(0.0230537 0.000166318 5.25466e-24)
(0.0230708 0.000156536 -3.88336e-24)
(0.023087 0.000146357 6.9707e-26)
(0.0231021 0.000135846 1.14117e-25)
(0.0231163 0.000125056 -4.22137e-25)
(0.0231295 0.000114035 3.90353e-25)
(0.0206878 0.000189034 3.90137e-25)
(0.0207219 0.000189478 3.52119e-24)
(0.0207545 0.000187809 -4.04665e-24)
(0.0207855 0.000184476 -2.7315e-24)
(0.0208149 0.000179816 1.71089e-23)
(0.0208427 0.000174064 -1.30924e-23)
(0.020869 0.000167408 -3.44139e-25)
(0.0208938 0.000159993 -2.50161e-24)
(0.0209173 0.000151942 -1.1892e-25)
(0.0209394 0.000143354 3.98196e-25)
(0.0209602 0.00013431 -7.94061e-25)
(0.0209798 0.000124879 9.54543e-25)
(0.0209981 0.000115122 4.01597e-25)
(0.0210153 0.00010509 2.48309e-25)
(0.0210313 9.48297e-05 -1.39257e-25)
(0.0185473 0.000161802 2.78603e-24)
(0.0185856 0.000161698 -4.26582e-24)
(0.0186224 0.000159894 -3.38456e-24)
(0.0186573 0.000156728 1.03076e-23)
(0.0186905 0.000152446 -3.69727e-24)
(0.018722 0.000147231 -5.07372e-24)
(0.0187519 0.000141228 1.79529e-24)
(0.0187801 0.000134558 3.78839e-24)
(0.0188067 0.000127319 -5.79013e-24)
(0.0188318 0.000119594 5.48186e-24)
(0.0188554 0.000111454 -2.70583e-24)
(0.0188775 0.000102957 9.96938e-25)
(0.0188981 9.41605e-05 -8.17199e-25)
(0.0189173 8.51112e-05 5.45375e-25)
(0.018935 7.58556e-05 -7.32614e-27)
(0.0164719 0.000134386 -5.42503e-25)
(0.0165129 0.000133909 -1.87754e-24)
(0.0165523 0.000132097 -5.96473e-24)
(0.0165897 0.000129201 1.66421e-23)
(0.0166254 0.000125392 -3.00707e-24)
(0.0166592 0.000120805 -4.65713e-24)
(0.0166912 0.000115553 1.56499e-24)
(0.0167214 0.000109731 -2.27855e-24)
(0.0167498 0.00010342 -4.65311e-24)
(0.0167766 9.66854e-05 4.50349e-24)
(0.0168016 8.95881e-05 2.15367e-25)
(0.0168249 8.21812e-05 -1.0538e-24)
(0.0168464 7.45139e-05 1.21886e-24)
(0.0168663 6.66313e-05 1.40993e-26)
(0.0168844 5.85755e-05 -2.83868e-26)
(0.0144911 0.00010821 2.09525e-24)
(0.0145329 0.000107549 3.07914e-24)
(0.014573 0.000105869 -2.87436e-24)
(0.0146112 0.00010335 -6.26101e-24)
(0.0146476 0.000100099 8.40334e-24)
(0.014682 9.62146e-05 -9.15631e-24)
(0.0147146 9.17853e-05 -3.04991e-25)
(0.0147453 8.68851e-05 3.52094e-24)
(0.0147741 8.15766e-05 1.20035e-24)
(0.014801 7.59151e-05 -2.30576e-24)
(0.014826 6.99507e-05 1.64905e-25)
(0.0148492 6.37295e-05 4.16326e-24)
(0.0148704 5.72949e-05 -1.57382e-24)
(0.0148898 5.06866e-05 -3.06678e-25)
(0.0149072 4.39428e-05 -1.00285e-26)
(0.0126205 8.4443e-05 -2.18411e-24)
(0.0126613 8.37537e-05 2.81179e-24)
(0.0127004 8.23162e-05 3.16524e-25)
(0.0127377 8.02422e-05 5.68872e-24)
(0.0127732 7.75923e-05 -4.64209e-24)
(0.0128068 7.44416e-05 3.58031e-25)
(0.0128385 7.08574e-05 -5.11135e-25)
(0.0128683 6.68959e-05 -1.44578e-24)
(0.0128961 6.26059e-05 1.195e-24)
(0.0129221 5.80318e-05 -3.8324e-24)
(0.012946 5.32145e-05 3.64097e-25)
(0.0129679 4.81927e-05 9.22479e-25)
(0.0129879 4.3003e-05 5.18265e-25)
(0.0130058 3.76791e-05 1.72033e-25)
(0.0130216 3.22543e-05 3.26408e-26)
(0.0108683 6.38162e-05 1.62294e-24)
(0.0109066 6.32037e-05 -1.28372e-24)
(0.0109432 6.20672e-05 -5.65267e-24)
(0.0109783 6.04535e-05 5.30774e-24)
(0.0110116 5.83975e-05 7.40621e-24)
(0.0110431 5.59576e-05 -1.89695e-24)
(0.0110728 5.31832e-05 -3.8283e-24)
(0.0111007 5.01158e-05 -5.2739e-24)
(0.0111266 4.67923e-05 3.95001e-24)
(0.0111507 4.32476e-05 2.02816e-25)
(0.0111727 3.95141e-05 -8.35106e-25)
(0.0111928 3.5623e-05 -1.83742e-25)
(0.0112109 3.16038e-05 3.86444e-25)
(0.0112269 2.74842e-05 -3.51197e-26)
(0.0112408 2.3292e-05 -4.06312e-26)
(0.00923825 4.66234e-05 -1.02423e-24)
(0.00927282 4.61414e-05 -7.316e-25)
(0.00930605 4.53107e-05 8.8878e-25)
(0.00933783 4.41249e-05 -2.8272e-24)
(0.00936807 4.26103e-05 9.27344e-24)
(0.00939671 4.08111e-05 -1.22757e-23)
(0.00942368 3.87618e-05 1.19984e-23)
(0.00944893 3.6492e-05 -5.06651e-24)
(0.0094724 3.40289e-05 1.11539e-24)
(0.00949405 3.13989e-05 -2.39933e-26)
(0.00951383 2.86266e-05 -8.65477e-25)
(0.00953172 2.57364e-05 2.12468e-25)
(0.00954766 2.2751e-05 -5.61828e-25)
(0.00956165 1.96924e-05 -5.02945e-26)
(0.00957365 1.65824e-05 1.98379e-26)
(0.00773137 3.28114e-05 -4.98838e-25)
(0.00776159 3.24716e-05 1.27404e-25)
(0.00779074 3.1911e-05 2.78107e-25)
(0.00781868 3.10896e-05 -1.29378e-24)
(0.00784531 3.0034e-05 -5.82847e-25)
(0.00787056 2.8775e-05 5.04377e-24)
(0.00789434 2.73353e-05 -2.96309e-24)
(0.0079166 2.57353e-05 4.1671e-25)
(0.00793727 2.39944e-05 -4.05904e-25)
(0.00795629 2.21317e-05 -4.17555e-25)
(0.00797362 2.01652e-05 -9.74016e-26)
(0.00798923 1.81129e-05 7.18429e-25)
(0.00800305 1.59915e-05 9.65248e-26)
(0.0080151 1.38183e-05 -3.5652e-25)
(0.00802532 1.1609e-05 -3.37979e-26)
(0.00634674 2.21008e-05 -1.81747e-25)
(0.00637228 2.18865e-05 -6.04329e-26)
(0.00639705 2.1539e-05 -2.93707e-24)
(0.00642085 2.10055e-05 7.75507e-25)
(0.00644361 2.03139e-05 -2.11366e-24)
(0.00646522 1.94829e-05 1.48675e-24)
(0.00648561 1.85265e-05 2.79809e-24)
(0.0065047 1.74583e-05 2.06708e-24)
(0.00652244 1.62915e-05 -2.87072e-24)
(0.00653876 1.50392e-05 8.6619e-25)
(0.00655362 1.37138e-05 6.87021e-25)
(0.00656697 1.23281e-05 -9.07516e-25)
(0.00657878 1.08939e-05 4.79945e-25)
(0.00658902 9.42376e-06 5.12866e-27)
(0.00659766 7.92897e-06 6.42738e-26)
(0.00508161 1.40923e-05 -7.12907e-25)
(0.00510244 1.39729e-05 -9.78879e-25)
(0.00512276 1.37778e-05 -1.79992e-25)
(0.00514237 1.34567e-05 2.4361e-24)
(0.00516116 1.30358e-05 -1.72522e-24)
(0.00517907 1.25239e-05 -3.31656e-25)
(0.005196 1.19295e-05 2.76519e-24)
(0.00521189 1.12612e-05 -5.17997e-27)
(0.00522668 1.05271e-05 -5.64418e-25)
(0.00524031 9.73585e-06 -1.94474e-24)
(0.00525273 8.89554e-06 2.69158e-25)
(0.0052639 8.01467e-06 1.23559e-24)
(0.00527378 7.10108e-06 -1.55977e-25)
(0.00528236 6.16364e-06 -1.01924e-25)
(0.0052896 5.20998e-06 5.70937e-26)
(0.00393166 8.34405e-06 -1.55994e-25)
(0.00394794 8.28611e-06 9.06437e-27)
(0.00396392 8.18951e-06 1.1698e-24)
(0.00397939 8.01472e-06 7.84517e-25)
(0.00399429 7.78181e-06 -5.40435e-25)
(0.00400854 7.49357e-06 -1.33546e-24)
(0.00402206 7.15472e-06 5.36767e-25)
(0.00403479 6.77016e-06 -2.23574e-24)
(0.00404667 6.34474e-06 1.71841e-24)
(0.00405765 5.88359e-06 8.39772e-25)
(0.00406768 5.39161e-06 -4.55221e-26)
(0.00407673 4.87407e-06 -8.60345e-25)
(0.00408476 4.33577e-06 1.34831e-25)
(0.00409176 3.78256e-06 -7.54945e-26)
(0.00409769 3.2196e-06 2.96857e-26)
(0.00289124 4.42079e-06 -2.87482e-25)
(0.00290323 4.39442e-06 5.55532e-27)
(0.0029151 4.35374e-06 9.38773e-25)
(0.00292662 4.27101e-06 -5.87023e-25)
(0.00293778 4.15832e-06 2.41697e-24)
(0.00294849 4.01549e-06 -4.39914e-24)
(0.0029587 3.84491e-06 3.56969e-24)
(0.00296835 3.64905e-06 -2.95561e-24)
(0.00297739 3.43046e-06 2.09512e-24)
(0.00298578 3.19189e-06 -1.31232e-24)
(0.00299348 2.93597e-06 4.46029e-25)
(0.00300046 2.66565e-06 6.10546e-26)
(0.00300668 2.38352e-06 7.45478e-26)
(0.00301214 2.09313e-06 -8.5128e-26)
(0.00301681 1.79803e-06 1.24e-26)
(0.00195369 1.93372e-06 4.3653e-25)
(0.00196175 1.91832e-06 4.72874e-25)
(0.00196978 1.90378e-06 -2.02058e-24)
(0.00197762 1.87193e-06 1.47887e-24)
(0.00198524 1.82767e-06 -1.45956e-26)
(0.00199259 1.77014e-06 3.79197e-25)
(0.00199964 1.70033e-06 -4.66145e-25)
(0.00200633 1.61927e-06 -9.59186e-25)
(0.00201263 1.528e-06 9.44096e-25)
(0.00201851 1.42777e-06 8.6688e-26)
(0.00202393 1.3197e-06 -7.02062e-25)
(0.00202887 1.20518e-06 2.55106e-25)
(0.0020333 1.0853e-06 1.28611e-25)
(0.00203722 9.61883e-07 -1.75687e-26)
(0.00204061 8.37305e-07 -8.43214e-27)
(0.00111172 5.79997e-07 -4.40781e-25)
(0.00111622 5.76929e-07 1.349e-24)
(0.00112075 5.78573e-07 8.06894e-25)
(0.00112519 5.74292e-07 -1.45044e-24)
(0.00112954 5.65215e-07 -1.70133e-25)
(0.00113376 5.5122e-07 -1.51329e-25)
(0.00113782 5.32796e-07 4.5874e-25)
(0.00114171 5.10369e-07 -7.69775e-25)
(0.00114539 4.84328e-07 1.02938e-24)
(0.00114884 4.55112e-07 -5.05499e-25)
(0.00115204 4.23069e-07 -3.07656e-25)
(0.00115497 3.88649e-07 1.77838e-25)
(0.00115763 3.52075e-07 -1.70589e-25)
(0.00116 3.13907e-07 1.56332e-25)
(0.00116207 2.75322e-07 -1.85005e-26)
(0.000357714 1.03969e-07 -3.14843e-27)
(0.000359059 1.39524e-07 2.6245e-25)
(0.000360436 1.67943e-07 3.0119e-25)
(0.000361802 1.8737e-07 -4.71667e-25)
(0.000363156 1.99296e-07 9.79932e-25)
(0.000364486 2.04803e-07 -1.0628e-24)
(0.00036578 2.04808e-07 6.92091e-26)
(0.000367028 1.99986e-07 5.7507e-25)
(0.000368222 1.90829e-07 -7.93481e-25)
(0.000369351 1.77716e-07 -1.33082e-25)
(0.000370409 1.60895e-07 5.11217e-25)
(0.000371389 1.40568e-07 -2.20797e-25)
(0.000372285 1.16794e-07 -6.50961e-26)
(0.000373094 8.9668e-08 5.16931e-26)
(0.000373811 5.95138e-08 -1.55015e-27)
(0.000924692 -0.00025723 9.99014e-26)
(0.00105516 -0.000187597 2.65351e-24)
(0.00127401 -0.000114423 -7.76785e-24)
(0.00149654 -5.52846e-05 1.15665e-23)
(0.00170867 -8.24445e-06 -4.34324e-24)
(0.00191565 2.77502e-05 -4.36357e-24)
(0.0021179 5.53435e-05 5.03827e-24)
(0.00231655 7.67218e-05 -1.01274e-23)
(0.00251279 9.36556e-05 5.85759e-25)
(0.0027076 0.000107567 6.46923e-24)
(0.00290177 0.000119615 -1.249e-24)
(0.00309598 0.000130814 1.36174e-24)
(0.00329086 0.000142141 -1.2648e-25)
(0.00348715 0.000154552 8.85288e-25)
(0.00368594 0.000169034 -3.26492e-24)
(0.00388866 0.000186553 1.80296e-24)
(0.00409758 0.000207642 -6.00859e-25)
(0.0043162 0.000232549 2.16998e-26)
(0.00454935 0.00026099 1.5127e-24)
(0.0048028 0.000290863 -9.61661e-25)
(0.0050841 0.000316521 1.25314e-25)
(0.00539902 0.000328025 -1.10261e-25)
(0.00572397 0.000309334 2.08905e-25)
(0.00601578 0.000256478 7.94684e-25)
(0.00625904 0.000175394 -1.42892e-24)
(0.00645318 7.24996e-05 -9.59883e-25)
(0.00659955 -4.61461e-05 2.93935e-26)
(0.0066999 -0.000175815 2.39944e-24)
(0.00675557 -0.00031264 3.39461e-24)
(0.00676747 -0.000452684 -6.68632e-24)
(0.00673608 -0.000591371 5.92623e-24)
(0.00666181 -0.000723305 -5.59904e-24)
(0.00654527 -0.000842286 1.54098e-24)
(0.00638751 -0.000941426 1.85781e-25)
(0.00619004 -0.00101326 -2.59796e-25)
(0.00595483 -0.00104975 4.88432e-24)
(0.0056841 -0.00104198 -5.26199e-25)
(0.00538024 -0.000979472 2.2792e-24)
(0.00504586 -0.000848771 1.54341e-24)
(0.0046843 -0.000631499 -1.04639e-23)
(0.00429923 -0.000304572 -1.35429e-25)
(0.00389613 0.000151498 4.99141e-24)
(0.00346618 0.000719132 1.88667e-24)
(0.00303015 0.0013016 -7.27287e-24)
(0.00278373 0.00156343 -3.85618e-25)
(0.00173322 -0.000336506 -2.98261e-24)
(0.00178548 -0.000299787 -4.37642e-24)
(0.0019169 -0.000229003 9.08561e-24)
(0.00208308 -0.000162124 4.46389e-24)
(0.00225887 -0.000104536 -1.56427e-23)
(0.00243991 -5.79624e-05 1.69787e-23)
(0.00262248 -2.08597e-05 -6.12428e-24)
(0.00280528 8.84398e-06 5.04439e-24)
(0.00298815 3.30234e-05 -6.65775e-24)
(0.0031713 5.32594e-05 6.95385e-26)
(0.00335508 7.08582e-05 -3.6324e-24)
(0.0035399 8.69519e-05 7.22001e-24)
(0.00372624 0.000102592 -4.02617e-24)
(0.00391476 0.00011877 -3.72927e-24)
(0.00410648 0.000136487 -2.62445e-24)
(0.00430273 0.000156701 4.78039e-24)
(0.00450567 0.000179888 -6.67888e-25)
(0.00471867 0.000206253 2.73842e-24)
(0.00494633 0.000235523 5.06534e-25)
(0.0051941 0.000265614 -8.5812e-25)
(0.00546921 0.000291055 -3.77964e-25)
(0.00577734 0.00030233 -2.34634e-25)
(0.00609598 0.000284121 1.13499e-24)
(0.00638333 0.00023301 1.36055e-24)
(0.00662423 0.00015486 -1.24105e-24)
(0.00681786 5.58804e-05 -5.8758e-24)
(0.00696517 -5.79526e-05 7.89237e-24)
(0.00706759 -0.000181873 -5.5031e-24)
(0.00712625 -0.000311912 1.84762e-24)
(0.00714201 -0.000444029 -1.16098e-24)
(0.00711549 -0.000573569 8.76171e-24)
(0.00704735 -0.000695106 -1.18204e-23)
(0.00693859 -0.000802468 6.17456e-24)
(0.00679075 -0.000888832 -2.50842e-24)
(0.00660605 -0.000946826 -8.94948e-25)
(0.00638734 -0.000968489 6.16388e-25)
(0.0061382 -0.000945029 1.03256e-23)
(0.00586302 -0.000866192 -2.17887e-24)
(0.00556754 -0.000719086 -9.61947e-24)
(0.00526037 -0.000486473 -6.54277e-24)
(0.00495476 -0.000146774 1.49774e-23)
(0.00467353 0.000318504 -1.51363e-23)
(0.00444289 0.000891361 -4.11759e-24)
(0.00430731 0.0014612 1.02637e-23)
(0.00432509 0.00165594 3.77612e-24)
(0.00268384 -0.000342288 -3.54984e-26)
(0.00268877 -0.000344387 -5.07819e-24)
(0.00274022 -0.000304302 9.68726e-24)
(0.00284104 -0.000247302 8.58659e-24)
(0.00296684 -0.000189963 -1.38914e-23)
(0.00310905 -0.000138851 2.69973e-25)
(0.00326097 -9.55726e-05 1.39226e-24)
(0.00341883 -5.93974e-05 1.54636e-23)
(0.00358074 -2.90102e-05 -1.83537e-23)
(0.00374577 -3.03623e-06 1.14443e-23)
(0.00391355 1.97819e-05 3.5536e-24)
(0.00408407 4.05846e-05 -1.93497e-23)
(0.00425751 6.04382e-05 6.99937e-24)
(0.00443434 8.0333e-05 2.85348e-24)
(0.00461544 0.000101263 -6.10231e-24)
(0.004802 0.000124166 1.00911e-23)
(0.00499604 0.000149447 -7.28193e-24)
(0.00520079 0.000177255 -2.36879e-25)
(0.00542057 0.000207342 5.39541e-25)
(0.00566048 0.000237641 6.49618e-25)
(0.00592741 0.00026285 7.83009e-26)
(0.00622686 0.000273873 4.11604e-25)
(0.00653748 0.000256124 -1.14613e-24)
(0.00681895 0.000206761 3.39623e-24)
(0.00705635 0.000131587 -5.32056e-24)
(0.00724853 3.66042e-05 3.05218e-24)
(0.00739608 -7.2291e-05 -6.9951e-24)
(0.00750005 -0.00019028 9.42161e-24)
(0.00756138 -0.000313297 -8.65018e-24)
(0.00758089 -0.0004372 3.90943e-25)
(0.00755933 -0.00055726 2.08695e-26)
(0.00749766 -0.000668036 1.38436e-23)
(0.00739729 -0.000763404 -4.49719e-24)
(0.00726033 -0.000836664 -1.14788e-24)
(0.00708972 -0.000880637 -1.85965e-24)
(0.00688933 -0.000887656 9.05951e-24)
(0.0066641 -0.000849395 -7.55839e-24)
(0.00642047 -0.000756466 1.51468e-23)
(0.00616718 -0.000597733 -3.01398e-23)
(0.00591731 -0.00035947 1.17482e-23)
(0.00569094 -2.63245e-05 4.39974e-24)
(0.00551985 0.000410934 7.56007e-24)
(0.00544156 0.0009254 -9.43646e-24)
(0.00548499 0.00140394 3.07654e-24)
(0.00563681 0.00155426 -1.95002e-24)
(0.00376107 -0.000322519 -1.29009e-24)
(0.00373791 -0.000348897 -2.02588e-24)
(0.00374138 -0.000335501 -8.74637e-24)
(0.00377943 -0.000301255 2.18568e-24)
(0.00385116 -0.000254292 1.47774e-24)
(0.00394636 -0.000206389 7.2316e-24)
(0.00405842 -0.00016221 -1.565e-23)
(0.00418252 -0.000123022 5.86921e-24)
(0.00431542 -8.86802e-05 2.02992e-23)
(0.00445512 -5.84537e-05 -5.36251e-24)
(0.00460044 -3.14156e-05 -5.1237e-24)
(0.00475082 -6.59353e-06 -8.25738e-25)
(0.00490606 1.69864e-05 2.7555e-24)
(0.00506636 4.02438e-05 -5.44469e-24)
(0.00523244 6.41201e-05 1.22822e-24)
(0.00540528 8.95083e-05 -5.22409e-25)
(0.00558674 0.000116712 -2.97193e-24)
(0.00577987 0.000145808 9.62515e-25)
(0.00598874 0.000176579 5.37073e-24)
(0.00621802 0.000206974 -5.83772e-25)
(0.00647424 0.000231851 -1.2836e-24)
(0.00676264 0.000242544 -3.64701e-25)
(0.00706309 0.000225214 -2.0262e-24)
(0.00733685 0.000177618 -9.29833e-26)
(0.00756922 0.000105504 -4.72345e-24)
(0.00775866 1.46572e-05 8.18241e-24)
(0.00790537 -8.91037e-05 -7.03729e-24)
(0.00801006 -0.0002009 1.35551e-23)
(0.00807346 -0.000316577 -1.16842e-23)
(0.00809634 -0.000431909 2.61515e-24)
(0.00807964 -0.000542121 4.9317e-24)
(0.00802461 -0.000641798 -1.41948e-25)
(0.00793314 -0.000724938 -3.44778e-25)
(0.00780792 -0.000785067 -3.30954e-25)
(0.00765265 -0.00081537 -3.30779e-25)
(0.00747217 -0.000808736 -3.3438e-24)
(0.00727274 -0.000757733 1.83964e-23)
(0.00706254 -0.000654493 -9.51516e-24)
(0.00685253 -0.000490654 1.15394e-25)
(0.00665829 -0.00025755 -2.90468e-23)
(0.00650196 5.17697e-05 2.23181e-23)
(0.00641448 0.000435711 -9.04068e-24)
(0.00642859 0.000863148 1.57172e-24)
(0.00655554 0.00124422 1.25834e-23)
(0.00676432 0.00140478 -3.39733e-24)
(0.0049608 -0.000292206 -5.36617e-24)
(0.0049269 -0.000328098 1.10414e-23)
(0.00490163 -0.000333566 3.23484e-24)
(0.00489967 -0.000319981 1.40022e-23)
(0.0049206 -0.000291221 -3.45108e-23)
(0.00496815 -0.000253078 -1.12106e-24)
(0.00503586 -0.000213844 1.69456e-24)