/*--------------------------------*- C++ -*----------------------------------*\
| =========                 |                                                 |
| \\      /  F ield         | OpenFOAM: The Open Source CFD Toolbox           |
|  \\    /   O peration     | Version:  2312                                  |
|   \\  /    A nd           | Website:  www.openfoam.com                      |
|    \\/     M anipulation  |                                                 |
\*---------------------------------------------------------------------------*/
FoamFile
{
    version     2.0;
    format      ascii;
    arch        "LSB;label=32;scalar=64";
    class       volScalarField;
    location    "100";
    object      p;
}
// * * * * * * * * * * * * * * * * * * * * * * * * * * * * * * * * * * * * * //

dimensions      [0 2 -2 0 0 0 0];

internalField   nonuniform List<scalar> 
4800
(
-3.24875e-13
-9.38713e-07
-1.75787e-06
-2.47596e-06
-3.11194e-06
-3.67887e-06
-4.187e-06
-4.64466e-06
-5.05874e-06
-5.43468e-06
-5.77682e-06
-6.09353e-06
-6.40775e-06
-6.76436e-06
-7.79971e-06
7.36129e-09
-9.29738e-07
-1.74765e-06
-2.46503e-06
-3.1009e-06
-3.66844e-06
-4.17803e-06
-4.63835e-06
-5.0569e-06
-5.44049e-06
-5.79629e-06
-6.1355e-06
-6.47987e-06
-6.88318e-06
-7.62276e-06
1.64537e-08
-9.19025e-07
-1.73568e-06
-2.45235e-06
-3.08815e-06
-3.65636e-06
-4.16755e-06
-4.63068e-06
-5.05379e-06
-5.44481e-06
-5.81263e-06
-6.16902e-06
-6.52935e-06
-6.90805e-06
-7.34755e-06
2.67949e-08
-9.06744e-07
-1.72186e-06
-2.43749e-06
-3.07282e-06
-3.64122e-06
-4.15332e-06
-4.61815e-06
-5.04389e-06
-5.43839e-06
-5.8095e-06
-6.16431e-06
-6.50498e-06
-6.81789e-06
-7.07707e-06
3.89518e-08
-8.92102e-07
-1.70519e-06
-2.41919e-06
-3.05339e-06
-3.62114e-06
-4.13298e-06
-4.59772e-06
-5.02305e-06
-5.41556e-06
-5.78011e-06
-6.11739e-06
-6.41932e-06
-6.66387e-06
-6.81995e-06
5.38913e-08
-8.7399e-07
-1.68437e-06
-2.39596e-06
-3.02804e-06
-3.5939e-06
-4.10374e-06
-4.5658e-06
-4.98665e-06
-5.37084e-06
-5.7197e-06
-6.02901e-06
-6.28682e-06
-6.47417e-06
-6.57163e-06
7.31042e-08
-8.50773e-07
-1.65756e-06
-2.36566e-06
-2.99424e-06
-3.55642e-06
-4.06182e-06
-4.51774e-06
-4.92925e-06
-5.29865e-06
-5.62452e-06
-5.90068e-06
-6.11656e-06
-6.26091e-06
-6.32672e-06
9.89629e-08
-8.19917e-07
-1.62195e-06
-2.32514e-06
-2.94835e-06
-3.50445e-06
-4.00224e-06
-4.4479e-06
-4.84494e-06
-5.19397e-06
-5.49241e-06
-5.7349e-06
-5.91521e-06
-6.02993e-06
-6.08038e-06
1.35129e-07
-7.77594e-07
-1.57338e-06
-2.26985e-06
-2.88532e-06
-3.43231e-06
-3.9188e-06
-4.34982e-06
-4.7278e-06
-5.05267e-06
-5.32244e-06
-5.5344e-06
-5.68721e-06
-5.78336e-06
-5.82833e-06
1.86901e-07
-7.18346e-07
-1.506e-06
-2.19354e-06
-2.79847e-06
-3.33291e-06
-3.8042e-06
-4.21663e-06
-4.57224e-06
-4.8715e-06
-5.11424e-06
-5.30103e-06
-5.43456e-06
-5.52078e-06
-5.5666e-06
2.61318e-07
-6.34943e-07
-1.41217e-06
-2.08822e-06
-2.67955e-06
-3.19794e-06
-3.65051e-06
-4.04142e-06
-4.37325e-06
-4.64786e-06
-4.86742e-06
-5.03539e-06
-5.15715e-06
-5.24016e-06
-5.29119e-06
3.66749e-07
-5.18701e-07
-1.28281e-06
-1.9445e-06
-2.5192e-06
-3.01849e-06
-3.4498e-06
-3.81793e-06
-4.12665e-06
-4.37964e-06
-4.58124e-06
-4.73695e-06
-4.85347e-06
-4.93852e-06
-4.99808e-06
5.11955e-07
-3.60332e-07
-1.10834e-06
-1.75269e-06
-2.30811e-06
-2.78621e-06
-3.19524e-06
-3.54124e-06
-3.8295e-06
-4.0654e-06
-4.25489e-06
-4.40456e-06
-4.52143e-06
-4.61275e-06
-4.68353e-06
7.05159e-07
-1.50902e-07
-8.79771e-07
-1.50408e-06
-2.03834e-06
-2.49454e-06
-2.8821e-06
-3.20849e-06
-3.48045e-06
-3.70465e-06
-3.88792e-06
-4.03716e-06
-4.15909e-06
-4.26018e-06
-4.34448e-06
9.53651e-07
1.177e-07
-5.89155e-07
-1.19144e-06
-1.70395e-06
-2.13925e-06
-2.50793e-06
-2.81879e-06
-3.07961e-06
-3.29778e-06
-3.4804e-06
-3.63416e-06
-3.76516e-06
-3.87896e-06
-3.97883e-06
1.26351e-06
4.52375e-07
-2.29821e-07
-8.09142e-07
-1.30079e-06
-1.71783e-06
-2.07176e-06
-2.37225e-06
-2.62761e-06
-2.84541e-06
-3.03254e-06
-3.19518e-06
-3.33871e-06
-3.46783e-06
-3.58516e-06
1.63878e-06
8.57728e-07
2.02404e-07
-3.54102e-07
-8.27134e-07
-1.22985e-06
-1.57414e-06
-1.86996e-06
-2.12566e-06
-2.34849e-06
-2.54486e-06
-2.72029e-06
-2.87944e-06
-3.02627e-06
-3.1629e-06
2.07957e-06
1.334e-06
7.06999e-07
1.72071e-07
-2.85616e-07
-6.78733e-07
-1.01889e-06
-1.31581e-06
-1.57736e-06
-1.8102e-06
-2.02006e-06
-2.21178e-06
-2.38933e-06
-2.55603e-06
-2.71367e-06
2.57961e-06
1.87437e-06
1.27616e-06
7.60718e-07
3.14636e-07
-7.36691e-08
-4.1497e-07
-7.18213e-07
-9.90497e-07
-1.23767e-06
-1.46468e-06
-1.67568e-06
-1.87404e-06
-2.0625e-06
-2.2427e-06
3.12455e-06
2.46308e-06
1.89296e-06
1.39434e-06
9.56217e-07
5.68554e-07
2.21828e-07
-9.182e-08
-3.7852e-07
-6.43218e-07
-8.90067e-07
-1.12254e-06
-1.34348e-06
-1.5551e-06
-1.75901e-06
3.65711e-06
3.03786e-06
2.49251e-06
2.00715e-06
1.57368e-06
1.18366e-06
8.28922e-07
5.02874e-07
2.0043e-07
-8.2504e-08
-3.49379e-07
-6.03092e-07
-8.46032e-07
-1.08001e-06
-1.30671e-06
4.09758e-06
3.51271e-06
2.9868e-06
2.51133e-06
2.08068e-06
1.68766e-06
1.32533e-06
9.88223e-07
6.72207e-07
3.73887e-07
9.03634e-08
-1.80804e-07
-4.41645e-07
-6.93662e-07
-9.3848e-07
4.42955e-06
3.8715e-06
3.36116e-06
2.89395e-06
2.46594e-06
2.07096e-06
1.70303e-06
1.3576e-06
1.03124e-06
7.21092e-07
4.24674e-07
1.39908e-07
-1.34944e-07
-4.01161e-07
-6.60221e-07
4.67506e-06
4.13856e-06
3.64143e-06
3.18172e-06
2.7566e-06
2.36067e-06
1.98876e-06
1.63708e-06
1.30274e-06
9.83289e-07
6.76609e-07
3.80912e-07
9.47054e-08
-1.83117e-07
-4.53868e-07
4.85333e-06
4.33467e-06
3.84923e-06
3.39666e-06
2.97474e-06
2.57869e-06
2.20406e-06
1.84768e-06
1.50707e-06
1.18015e-06
8.65084e-07
5.60339e-07
2.6463e-07
-2.29993e-08
-3.03704e-07
4.98065e-06
4.47729e-06
4.00251e-06
3.55683e-06
3.13831e-06
2.74271e-06
2.36624e-06
2.00622e-06
1.66055e-06
1.32744e-06
1.0053e-06
6.92838e-07
3.88945e-07
9.27969e-08
-1.96607e-07
5.07024e-06
4.58037e-06
4.11545e-06
3.67635e-06
3.26126e-06
2.86645e-06
2.4887e-06
2.12578e-06
1.7759e-06
1.43751e-06
1.10927e-06
7.90083e-07
4.79006e-07
1.75334e-07
-1.21793e-07
5.13249e-06
4.65472e-06
4.19893e-06
3.76603e-06
3.35429e-06
2.96041e-06
2.58175e-06
2.21644e-06
1.86296e-06
1.51999e-06
1.1864e-06
8.61263e-07
5.43801e-07
2.33415e-07
-7.06247e-08
5.17536e-06
4.70856e-06
4.26118e-06
3.83404e-06
3.42542e-06
3.03253e-06
2.65318e-06
2.28584e-06
1.92923e-06
1.58222e-06
1.24388e-06
9.13448e-07
5.90274e-07
2.73866e-07
-3.63866e-08
5.20477e-06
4.74796e-06
4.30827e-06
3.88638e-06
3.48064e-06
3.08869e-06
2.70881e-06
2.33971e-06
1.98032e-06
1.62972e-06
1.28714e-06
9.51967e-07
6.23666e-07
3.01844e-07
-1.39998e-08
5.22503e-06
4.7773e-06
4.34459e-06
3.92741e-06
3.52426e-06
3.1332e-06
2.75287e-06
2.38221e-06
2.02035e-06
1.66654e-06
1.32017e-06
9.80739e-07
6.47828e-07
3.21137e-07
2.61867e-10
5.23919e-06
4.79966e-06
4.37321e-06
3.96024e-06
3.55939e-06
3.16913e-06
2.7884e-06
2.41636e-06
2.05229e-06
1.69561e-06
1.34583e-06
1.00258e-06
6.65524e-07
3.34455e-07
9.05571e-09
5.2493e-06
4.81717e-06
4.3963e-06
3.98704e-06
3.58822e-06
3.19868e-06
2.81759e-06
2.44429e-06
2.07824e-06
1.71898e-06
1.36615e-06
1.01946e-06
6.78694e-07
3.43693e-07
1.42288e-08
5.25674e-06
4.83123e-06
4.41532e-06
4.00932e-06
3.61229e-06
3.22336e-06
2.84194e-06
2.46751e-06
2.09968e-06
1.73811e-06
1.38254e-06
1.03278e-06
6.88676e-07
3.50148e-07
1.70373e-08
5.2624e-06
4.84281e-06
4.43126e-06
4.02812e-06
3.63266e-06
3.24428e-06
2.86254e-06
2.48709e-06
2.11766e-06
1.75401e-06
1.39599e-06
1.04348e-06
6.96388e-07
3.54701e-07
1.8322e-08
5.26684e-06
4.85251e-06
4.4448e-06
4.04417e-06
3.65008e-06
3.26216e-06
2.88013e-06
2.50376e-06
2.13289e-06
1.76739e-06
1.40718e-06
1.05221e-06
7.02449e-07
3.5794e-07
1.86383e-08
5.27043e-06
4.86075e-06
4.45642e-06
4.05798e-06
3.66509e-06
3.27757e-06
2.89526e-06
2.51807e-06
2.14591e-06
1.77875e-06
1.41658e-06
1.05941e-06
7.07278e-07
3.60253e-07
1.83431e-08
5.2734e-06
4.86791e-06
4.46657e-06
4.07007e-06
3.67825e-06
3.29107e-06
2.9085e-06
2.53055e-06
2.15722e-06
1.78857e-06
1.42463e-06
1.06549e-06
7.11205e-07
3.61912e-07
1.76486e-08
5.27599e-06
4.8744e-06
4.47581e-06
4.0811e-06
3.69026e-06
3.30339e-06
2.92058e-06
2.54192e-06
2.16751e-06
1.79745e-06
1.43187e-06
1.07088e-06
7.14598e-07
3.63188e-07
1.67256e-08
5.27821e-06
4.88008e-06
4.48395e-06
4.09083e-06
3.70088e-06
3.3143e-06
2.93128e-06
2.552e-06
2.17664e-06
1.80535e-06
1.43831e-06
1.0757e-06
7.17649e-07
3.6437e-07
1.59619e-08
-9.37549e-06
-8.04405e-06
-7.10337e-06
-6.46844e-06
-5.96349e-06
-5.56229e-06
-5.24015e-06
-4.97805e-06
-4.76365e-06
-4.58794e-06
-4.44394e-06
-4.3261e-06
-4.22978e-06
-4.15114e-06
-4.08708e-06
-4.03548e-06
-3.99565e-06
-3.96905e-06
-3.96011e-06
-3.97723e-06
-4.0316e-06
-4.1352e-06
-4.27459e-06
-4.39671e-06
-4.45465e-06
-4.41394e-06
-4.25197e-06
-3.95915e-06
-3.53687e-06
-2.99581e-06
-2.35364e-06
-1.63283e-06
-8.58794e-07
-5.85297e-08
7.40151e-07
1.5086e-06
2.21634e-06
2.82941e-06
3.30776e-06
3.60088e-06
3.64098e-06
3.32655e-06
2.47936e-06
7.78555e-07
-2.40534e-06
-8.2695e-06
-7.60394e-06
-6.93237e-06
-6.38791e-06
-5.92309e-06
-5.53878e-06
-5.22401e-06
-4.96545e-06
-4.75304e-06
-4.57868e-06
-4.43582e-06
-4.31903e-06
-4.22374e-06
-4.14612e-06
-4.08307e-06
-4.03248e-06
-3.99364e-06
-3.96796e-06
-3.95975e-06
-3.97715e-06
-4.03099e-06
-4.13273e-06
-4.26883e-06
-4.38707e-06
-4.4416e-06
-4.39871e-06
-4.23639e-06
-3.9455e-06
-3.52785e-06
-2.9945e-06
-2.36354e-06
-1.65802e-06
-9.04164e-07
-1.30102e-07
6.34683e-07
1.35905e-06
2.00882e-06
2.54364e-06
2.91241e-06
3.04435e-06
2.83336e-06
2.10891e-06
5.86607e-07
-2.21332e-06
-6.61285e-06
-7.60436e-06
-7.23797e-06
-6.74603e-06
-6.2846e-06
-5.8659e-06
-5.50472e-06
-5.20132e-06
-4.94869e-06
-4.73962e-06
-4.56741e-06
-4.42614e-06
-4.31067e-06
-4.21658e-06
-4.14009e-06
-4.07815e-06
-4.02868e-06
-3.99098e-06
-3.96642e-06
-3.95919e-06
-3.97714e-06
-4.03066e-06
-4.13055e-06
-4.26303e-06
-4.37681e-06
-4.42727e-06
-4.38178e-06
-4.21914e-06
-3.93094e-06
-3.51961e-06
-2.99679e-06
-2.38122e-06
-1.69671e-06
-9.70527e-07
-2.32234e-07
4.86632e-07
1.15202e-06
1.72555e-06
2.16075e-06
2.39746e-06
2.35161e-06
1.90019e-06
8.63084e-07
-9.97086e-07
-3.92625e-06
-7.82635e-06
-7.17145e-06
-6.94078e-06
-6.56891e-06
-6.17804e-06
-5.80397e-06
-5.46792e-06
-5.17773e-06
-4.93207e-06
-4.72676e-06
-4.55673e-06
-4.4169e-06
-4.30255e-06
-4.20944e-06
-4.13391e-06
-4.07298e-06
-4.02459e-06
-3.98806e-06
-3.96474e-06
-3.95865e-06
-3.97736e-06
-4.03072e-06
-4.12877e-06
-4.25737e-06
-4.36619e-06
-4.41204e-06
-4.36349e-06
-4.20044e-06
-3.91539e-06
-3.51163e-06
-3.00159e-06
-2.40485e-06
-1.74621e-06
-1.05415e-06
-3.59928e-07
3.02667e-07
8.96566e-07
1.37931e-06
1.69953e-06
1.79182e-06
1.56893e-06
9.14007e-07
-3.19411e-07
-2.27542e-06
-5.0141e-06
-8.31201e-06
-6.84477e-06
-6.68455e-06
-6.40111e-06
-6.07281e-06
-5.74117e-06
-5.43104e-06
-5.15525e-06
-4.91725e-06
-4.71586e-06
-4.54783e-06
-4.4091e-06
-4.29548e-06
-4.20301e-06
-4.12817e-06
-4.06807e-06
-4.02068e-06
-3.98535e-06
-3.96334e-06
-3.95856e-06
-3.97818e-06
-4.03149e-06
-4.12761e-06
-4.25201e-06
-4.35545e-06
-4.39631e-06
-4.34461e-06
-4.1815e-06
-3.90059e-06
-3.50622e-06
-3.01176e-06
-2.43779e-06
-1.81022e-06
-1.15888e-06
-5.16736e-07
8.02648e-08
5.92462e-07
9.74402e-07
1.17244e-06
1.12129e-06
7.407e-07
-6.38567e-08
-1.3886e-06
-3.29283e-06
-5.73263e-06
-8.46525e-06
-6.57012e-06
-6.45349e-06
-6.23786e-06
-5.96664e-06
-5.67674e-06
-5.39402e-06
-5.13436e-06
-4.90508e-06
-4.70801e-06
-4.5419e-06
-4.4039e-06
-4.29055e-06
-4.19827e-06
-4.12376e-06
-4.06421e-06
-4.01768e-06
-3.98349e-06
-3.96288e-06
-3.95952e-06
-3.98017e-06
-4.03345e-06
-4.12747e-06
-4.24724e-06
-4.34485e-06
-4.38044e-06
-4.32569e-06
-4.16325e-06
-3.88803e-06
-3.50554e-06
-3.03029e-06
-2.48391e-06
-1.89349e-06
-1.29022e-06
-7.08581e-07
-1.8623e-07
2.3547e-07
5.10021e-07
5.84939e-07
4.00766e-07
-1.07796e-07
-1.00522e-06
-2.33844e-06
-4.10547e-06
-6.21607e-06
-8.46109e-06
-6.31948e-06
-6.23503e-06
-6.07297e-06
-5.85419e-06
-5.60652e-06
-5.35389e-06
-5.11334e-06
-4.89499e-06
-4.70346e-06
-4.5397e-06
-4.40236e-06
-4.28893e-06
-4.19641e-06
-4.12178e-06
-4.06245e-06
-4.01654e-06
-3.98341e-06
-3.96418e-06
-3.96231e-06
-3.98405e-06
-4.03728e-06
-4.12892e-06
-4.24355e-06
-4.33484e-06
-4.36495e-06
-4.30748e-06
-4.1468e-06
-3.8793e-06
-3.51186e-06
-3.06018e-06
-2.54703e-06
-2.00061e-06
-1.45325e-06
-9.40557e-07
-5.01036e-07
-1.76376e-07
-1.1604e-08
-5.4457e-08
-3.5397e-07
-9.56302e-07
-1.896e-06
-3.18152e-06
-4.77602e-06
-6.58139e-06
-8.43918e-06
-6.07696e-06
-6.01917e-06
-5.90074e-06
-5.72966e-06
-5.52457e-06
-5.30522e-06
-5.08787e-06
-4.88405e-06
-4.70062e-06
-4.54071e-06
-4.40472e-06
-4.29133e-06
-4.19837e-06
-4.12334e-06
-4.06391e-06
-4.0184e-06
-3.98618e-06
-3.9683e-06
-3.96795e-06
-3.9908e-06
-4.04387e-06
-4.13279e-06
-4.2417e-06
-4.32623e-06
-4.35082e-06
-4.29124e-06
-4.13384e-06
-3.87671e-06
-3.52818e-06
-3.10519e-06
-2.63158e-06
-2.13646e-06
-1.65289e-06
-1.21684e-06
-8.66488e-07
-6.42037e-07
-5.84477e-07
-7.33814e-07
-1.1261e-06
-1.78824e-06
-2.73031e-06
-3.93624e-06
-5.35538e-06
-6.90065e-06
-8.45926e-06
-5.83333e-06
-5.79899e-06
-5.71706e-06
-5.58869e-06
-5.4253e-06
-5.24171e-06
-5.05185e-06
-4.86713e-06
-4.69573e-06
-4.54256e-06
-4.40974e-06
-4.29743e-06
-4.20449e-06
-4.12916e-06
-4.0696e-06
-4.02439e-06
-3.99304e-06
-3.9765e-06
-3.97769e-06
-4.00163e-06
-4.05441e-06
-4.14021e-06
-4.24283e-06
-4.32028e-06
-4.33957e-06
-4.27894e-06
-4.12696e-06
-3.88353e-06
-3.55854e-06
-3.17008e-06
-2.74285e-06
-2.30646e-06
-1.89402e-06
-1.54083e-06
-1.28333e-06
-1.1583e-06
-1.20055e-06
-1.4406e-06
-1.90127e-06
-2.59311e-06
-3.50937e-06
-4.62167e-06
-5.87868e-06
-7.2102e-06
-8.5379e-06
-5.58254e-06
-5.56967e-06
-5.51916e-06
-5.42868e-06
-5.30482e-06
-5.15794e-06
-4.99896e-06
-4.83797e-06
-4.68331e-06
-4.54095e-06
-4.41447e-06
-4.30545e-06
-4.21396e-06
-4.13921e-06
-4.08003e-06
-4.03543e-06
-4.00514e-06
-3.99011e-06
-3.99294e-06
-4.01801e-06
-4.07038e-06
-4.15269e-06
-4.24856e-06
-4.31889e-06
-4.33356e-06
-4.27353e-06
-4.12981e-06
-3.90425e-06
-3.60819e-06
-3.26071e-06
-2.88694e-06
-2.51637e-06
-2.18124e-06
-1.91493e-06
-1.75076e-06
-1.72033e-06
-1.85102e-06
-2.16356e-06
-2.66916e-06
-3.36645e-06
-4.23917e-06
-5.25538e-06
-6.36952e-06
-7.52785e-06
-8.67616e-06
-5.31978e-06
-5.32728e-06
-5.30471e-06
-5.24801e-06
-5.16086e-06
-5.05023e-06
-4.92408e-06
-4.79057e-06
-4.65727e-06
-4.53041e-06
-4.41444e-06
-4.31211e-06
-4.22468e-06
-4.15239e-06
-4.09493e-06
-4.05189e-06
-4.02336e-06
-4.01034e-06
-4.01519e-06
-4.0416e-06
-4.09358e-06
-4.17221e-06
-4.26116e-06
-4.32476e-06
-4.33613e-06
-4.27915e-06
-4.14742e-06
-3.94472e-06
-3.68367e-06
-3.38395e-06
-3.07053e-06
-2.77193e-06
-2.51843e-06
-2.34029e-06
-2.26643e-06
-2.32223e-06
-2.52735e-06
-2.89372e-06
-3.42369e-06
-4.10857e-06
-4.92826e-06
-5.85246e-06
-6.84367e-06
-7.86186e-06
-8.86915e-06
-5.04076e-06
-5.06816e-06
-5.0713e-06
-5.04526e-06
-4.99205e-06
-4.91634e-06
-4.82366e-06
-4.72012e-06
-4.61206e-06
-4.50525e-06
-4.40443e-06
-4.31305e-06
-4.23332e-06
-4.16647e-06
-4.11306e-06
-4.0734e-06
-4.04803e-06
-4.03812e-06
-4.04581e-06
-4.07414e-06
-4.12608e-06
-4.20127e-06
-4.2837e-06
-4.34168e-06
-4.35193e-06
-4.30143e-06
-4.18633e-06
-4.01223e-06
-3.7927e-06
-3.54743e-06
-3.30046e-06
-3.07835e-06
-2.90834e-06
-2.81659e-06
-2.82674e-06
-2.95771e-06
-3.22209e-06
-3.62488e-06
-4.16257e-06
-4.823e-06
-5.58606e-06
-6.42557e-06
-7.31203e-06
-8.21604e-06
-9.11075e-06
-4.74162e-06
-4.78886e-06
-4.81636e-06
-4.81878e-06
-4.7972e-06
-4.75484e-06
-4.6954e-06
-4.62323e-06
-4.54327e-06
-4.46046e-06
-4.3793e-06
-4.30348e-06
-4.23582e-06
-4.1783e-06
-4.13229e-06
-4.0988e-06
-4.07887e-06
-4.07391e-06
-4.08591e-06
-4.11735e-06
-4.17021e-06
-4.24291e-06
-4.32013e-06
-4.37462e-06
-4.38707e-06
-4.34753e-06
-4.25461e-06
-4.11537e-06
-3.94382e-06
-3.75895e-06
-3.58298e-06
-3.4396e-06
-3.35207e-06
-3.34184e-06
-3.427e-06
-3.6205e-06
-3.92922e-06
-4.35331e-06
-4.8862e-06
-5.51498e-06
-6.22168e-06
-6.98498e-06
-7.78235e-06
-8.59238e-06
-9.39572e-06
-4.41927e-06
-4.48654e-06
-4.53759e-06
-4.56697e-06
-4.57525e-06
-4.56475e-06
-4.53792e-06
-4.49771e-06
-4.44777e-06
-4.39211e-06
-4.33464e-06
-4.27892e-06
-4.228e-06
-4.18433e-06
-4.14987e-06
-4.12625e-06
-4.11498e-06
-4.1177e-06
-4.13634e-06
-4.17287e-06
-4.22849e-06
-4.30071e-06
-4.37532e-06
-4.42976e-06
-4.44899e-06
-4.426e-06
-4.36144e-06
-4.26337e-06
-4.14556e-06
-4.02552e-06
-3.92285e-06
-3.85754e-06
-3.84846e-06
-3.91216e-06
-4.06148e-06
-4.30445e-06
-4.64383e-06
-5.07699e-06
-5.59633e-06
-6.18995e-06
-6.8429e-06
-7.53853e-06
-8.26002e-06
-8.99179e-06
-9.71972e-06
-4.07153e-06
-4.15915e-06
-4.23331e-06
-4.28863e-06
-4.32546e-06
-4.34555e-06
-4.35054e-06
-4.34237e-06
-4.32368e-06
-4.29752e-06
-4.26713e-06
-4.23568e-06
-4.20613e-06
-4.1811e-06
-4.16291e-06
-4.1536e-06
-4.15504e-06
-4.16909e-06
-4.19764e-06
-4.24229e-06
-4.30362e-06
-4.37873e-06
-4.45487e-06
-4.51427e-06
-4.54613e-06
-4.54608e-06
-4.51623e-06
-4.46498e-06
-4.40515e-06
-4.35208e-06
-4.3221e-06
-4.33114e-06
-4.39362e-06
-4.52153e-06
-4.72328e-06
-5.00321e-06
-5.36153e-06
-5.79444e-06
-6.29469e-06
-6.85226e-06
-7.45534e-06
-8.09138e-06
-8.74798e-06
-9.41386e-06
-1.00786e-05
-3.69698e-06
-3.80537e-06
-3.90241e-06
-3.98301e-06
-4.04744e-06
-4.09714e-06
-4.13321e-06
-4.15695e-06
-4.1702e-06
-4.17526e-06
-4.17469e-06
-4.17116e-06
-4.16732e-06
-4.16572e-06
-4.16878e-06
-4.17872e-06
-4.19764e-06
-4.22754e-06
-4.27025e-06
-4.32712e-06
-4.39844e-06
-4.48132e-06
-4.5648e-06
-4.63562e-06
-4.68696e-06
-4.71654e-06
-4.7272e-06
-4.72696e-06
-4.72707e-06
-4.74019e-06
-4.77914e-06
-4.8559e-06
-4.98083e-06
-5.16198e-06
-5.40442e-06
-5.71007e-06
-6.07784e-06
-6.50387e-06
-6.98201e-06
-7.50437e-06
-8.06205e-06
-8.6458e-06
-9.24664e-06
-9.85642e-06
-1.04674e-05
-3.29506e-06
-3.42466e-06
-3.54444e-06
-3.64988e-06
-3.74128e-06
-3.81988e-06
-3.88647e-06
-3.94193e-06
-3.98757e-06
-4.02512e-06
-4.05655e-06
-4.08402e-06
-4.1098e-06
-4.13618e-06
-4.16547e-06
-4.19988e-06
-4.24157e-06
-4.29254e-06
-4.35458e-06
-4.42892e-06
-4.5158e-06
-4.61283e-06
-4.71091e-06
-4.80073e-06
-4.87878e-06
-4.94419e-06
-4.99978e-06
-5.05257e-06
-5.11181e-06
-5.18735e-06
-5.28865e-06
-5.42417e-06
-5.60097e-06
-5.82405e-06
-6.0962e-06
-6.41798e-06
-6.7879e-06
-7.20266e-06
-7.65747e-06
-8.14649e-06
-8.66327e-06
-9.20117e-06
-9.75376e-06
-1.03152e-05
-1.08797e-05
-2.86727e-06
-3.01832e-06
-3.16058e-06
-3.29044e-06
-3.40835e-06
-3.51536e-06
-3.61206e-06
-3.69909e-06
-3.77745e-06
-3.84843e-06
-3.91358e-06
-3.9746e-06
-4.03336e-06
-4.09184e-06
-4.15208e-06
-4.21615e-06
-4.28609e-06
-4.36383e-06
-4.45108e-06
-4.54906e-06
-4.6582e-06
-4.77691e-06
-4.89784e-06
-5.01464e-06
-5.12621e-06
-5.23235e-06
-5.33525e-06
-5.44055e-06
-5.55542e-06
-5.68707e-06
-5.84208e-06
-6.02613e-06
-6.24377e-06
-6.49797e-06
-6.79014e-06
-7.12024e-06
-7.48691e-06
-7.88764e-06
-8.31901e-06
-8.77693e-06
-9.2569e-06
-9.75431e-06
-1.02646e-05
-1.07836e-05
-1.13071e-05
-2.41864e-06
-2.59113e-06
-2.75539e-06
-2.90917e-06
-3.05315e-06
-3.18816e-06
-3.31465e-06
-3.43313e-06
-3.5444e-06
-3.6495e-06
-3.74963e-06
-3.84617e-06
-3.94061e-06
-4.03462e-06
-4.12993e-06
-4.22837e-06
-4.33179e-06
-4.44196e-06
-4.56051e-06
-4.68867e-06
-4.82723e-06
-4.97554e-06
-5.12759e-06
-5.27884e-06
-5.42948e-06
-5.57924e-06
-5.7294e-06
-5.88418e-06
-6.04888e-06
-6.22856e-06
-6.42758e-06
-6.64965e-06
-6.89763e-06
-7.1733e-06
-7.47738e-06
-7.80969e-06
-8.16923e-06
-8.55435e-06
-8.96277e-06
-9.39179e-06
-9.83845e-06
-1.02996e-05
-1.07721e-05
-1.12531e-05
-1.17394e-05
-1.95789e-06
-2.1515e-06
-2.33705e-06
-2.51415e-06
-2.68376e-06
-2.84644e-06
-3.00243e-06
-3.1522e-06
-3.29646e-06
-3.43607e-06
-3.57202e-06
-3.70539e-06
-3.83743e-06
-3.96948e-06
-4.10303e-06
-4.23961e-06
-4.38085e-06
-4.52834e-06
-4.68361e-06
-4.84793e-06
-5.02245e-06
-5.20729e-06
-5.39739e-06
-5.58899e-06
-5.78225e-06
-5.97628e-06
-6.17143e-06
-6.3708e-06
-6.57827e-06
-6.79727e-06
-7.03062e-06
-7.28079e-06
-7.54972e-06
-7.8386e-06
-8.14791e-06
-8.4776e-06
-8.82712e-06
-9.19553e-06
-9.5815e-06
-9.98338e-06
-1.03993e-05
-1.08273e-05
-1.12653e-05
-1.17111e-05
-1.21629e-05
-1.52738e-06
-1.74073e-06
-1.94608e-06
-2.14493e-06
-2.3385e-06
-2.527e-06
-2.71053e-06
-2.88953e-06
-3.06464e-06
-3.23665e-06
-3.40637e-06
-3.57471e-06
-3.74272e-06
-3.91152e-06
-4.08236e-06
-4.25657e-06
-4.43555e-06
-4.62074e-06
-4.81355e-06
-5.01526e-06
-5.22728e-06
-5.45002e-06
-5.67897e-06
-5.91058e-06
-6.14401e-06
-6.37729e-06
-6.61022e-06
-6.84534e-06
-7.08569e-06
-7.3337e-06
-7.59131e-06
-7.86027e-06
-8.14202e-06
-8.4375e-06
-8.74722e-06
-9.07133e-06
-9.4097e-06
-9.76191e-06
-1.01273e-05
-1.0505e-05
-1.08938e-05
-1.12926e-05
-1.17001e-05
-1.21148e-05
-1.25355e-05
-1.17669e-06
-1.40704e-06
-1.6301e-06
-1.84821e-06
-2.06256e-06
-2.2732e-06
-2.48015e-06
-2.68383e-06
-2.88487e-06
-3.08396e-06
-3.2818e-06
-3.4792e-06
-3.67706e-06
-3.87636e-06
-4.07818e-06
-4.28369e-06
-4.49413e-06
-4.7108e-06
-4.93503e-06
-5.16808e-06
-5.41144e-06
-5.66563e-06
-5.92635e-06
-6.18981e-06
-6.45395e-06
-6.71601e-06
-6.9757e-06
-7.23538e-06
-7.49764e-06
-7.7644e-06
-8.03713e-06
-8.31717e-06
-8.60568e-06
-8.90352e-06
-9.21124e-06
-9.5292e-06
-9.85752e-06
-1.01961e-05
-1.05447e-05
-1.09029e-05
-1.12701e-05
-1.16454e-05
-1.20282e-05
-1.24174e-05
-1.28122e-05
-9.12595e-07
-1.15743e-06
-1.39591e-06
-1.63047e-06
-1.86216e-06
-2.09097e-06
-2.31693e-06
-2.54044e-06
-2.76209e-06
-2.98248e-06
-3.20226e-06
-3.42213e-06
-3.64289e-06
-3.86542e-06
-4.09068e-06
-4.31972e-06
-4.55366e-06
-4.79369e-06
-5.04108e-06
-5.29703e-06
-5.56308e-06
-5.83972e-06
-6.12279e-06
-6.40813e-06
-6.69274e-06
-6.9735e-06
-7.25027e-06
-7.52536e-06
-7.8011e-06
-8.07905e-06
-8.36044e-06
-8.64641e-06
-8.93802e-06
-9.23607e-06
-9.54117e-06
-9.85376e-06
-1.01741e-05
-1.05024e-05
-1.08385e-05
-1.11822e-05
-1.15333e-05
-1.18913e-05
-1.22557e-05
-1.26258e-05
-1.3001e-05
-7.18092e-07
-9.75426e-07
-1.22728e-06
-1.47588e-06
-1.72209e-06
-1.96587e-06
-2.20729e-06
-2.44674e-06
-2.68472e-06
-2.92179e-06
-3.15852e-06
-3.39554e-06
-3.63357e-06
-3.8734e-06
-4.11589e-06
-4.36199e-06
-4.61273e-06
-4.86923e-06
-5.13266e-06
-5.4042e-06
-5.68537e-06
-5.97663e-06
-6.27396e-06
-6.57289e-06
-6.86982e-06
-7.16166e-06
-7.44851e-06
-7.73269e-06
-8.01626e-06
-8.30059e-06
-8.58675e-06
-8.8758e-06
-9.16869e-06
-9.46619e-06
-9.76891e-06
-1.00773e-05
-1.03918e-05
-1.07126e-05
-1.10398e-05
-1.13733e-05
-1.1713e-05
-1.20587e-05
-1.24099e-05
-1.27663e-05
-1.31274e-05
-5.78143e-07
-8.46386e-07
-1.10987e-06
-1.37046e-06
-1.62886e-06
-1.88502e-06
-2.13903e-06
-2.39125e-06
-2.64213e-06
-2.89216e-06
-3.14186e-06
-3.39178e-06
-3.64257e-06
-3.89495e-06
-4.1497e-06
-4.40768e-06
-4.66985e-06
-4.93724e-06
-5.21098e-06
-5.49219e-06
-5.78235e-06
-6.08189e-06
-6.38698e-06
-6.69301e-06
-6.99609e-06
-7.29339e-06
-7.58534e-06
-7.87416e-06
-8.16174e-06
-8.44926e-06
-8.73773e-06
-9.02812e-06
-9.3213e-06
-9.618e-06
-9.91883e-06
-1.02243e-05
-1.05347e-05
-1.08505e-05
-1.11717e-05
-1.14984e-05
-1.18305e-05
-1.21679e-05
-1.25104e-05
-1.28577e-05
-1.32094e-05
-4.80025e-07
-7.5785e-07
-1.03143e-06
-1.30227e-06
-1.5709e-06
-1.83728e-06
-2.10152e-06
-2.36395e-06
-2.62496e-06
-2.88498e-06
-3.14446e-06
-3.40393e-06
-3.66395e-06
-3.92517e-06
-4.18831e-06
-4.45417e-06
-4.72362e-06
-4.99763e-06
-5.27727e-06
-5.56361e-06
-5.85808e-06
-6.1611e-06
-6.46906e-06
-6.77736e-06
-7.08211e-06
-7.38092e-06
-7.67448e-06
-7.96493e-06
-8.25393e-06
-8.54257e-06
-8.83176e-06
-9.12244e-06
-9.4154e-06
-9.71133e-06
-1.00108e-05
-1.03143e-05
-1.06223e-05
-1.09349e-05
-1.12525e-05
-1.15751e-05
-1.19027e-05
-1.22352e-05
-1.25726e-05
-1.29144e-05
-1.32607e-05
-4.13184e-07
-6.99446e-07
-9.8178e-07
-1.26138e-06
-1.53859e-06
-1.81342e-06
-2.08597e-06
-2.35653e-06
-2.62546e-06
-2.89312e-06
-3.15993e-06
-3.42634e-06
-3.69287e-06
-3.96013e-06
-4.22875e-06
-4.49948e-06
-4.77313e-06
-5.0506e-06
-5.3329e-06
-5.62106e-06
-5.91647e-06
-6.2195e-06
-6.52683e-06
-6.83403e-06
-7.13741e-06
-7.43506e-06
-7.72793e-06
-8.01801e-06
-8.30675e-06
-8.59515e-06
-8.88409e-06
-9.17444e-06
-9.46692e-06
-9.76219e-06
-1.00608e-05
-1.03632e-05
-1.06698e-05
-1.09809e-05
-1.12967e-05
-1.16172e-05
-1.19427e-05
-1.22729e-05
-1.26078e-05
-1.29473e-05
-1.3291e-05
-3.69136e-07
-6.62838e-07
-9.5277e-07
-1.23983e-06
-1.52427e-06
-1.80608e-06
-2.08538e-06
-2.36244e-06
-2.63755e-06
-2.91103e-06
-3.18326e-06
-3.45465e-06
-3.72567e-06
-3.99687e-06
-4.26885e-06
-4.54228e-06
-4.81793e-06
-5.09662e-06
-5.37932e-06
-5.66702e-06
-5.96103e-06
-6.26174e-06
-6.56612e-06
-6.87001e-06
-7.17007e-06
-7.46492e-06
-7.75567e-06
-8.04413e-06
-8.33157e-06
-8.61892e-06
-8.90703e-06
-9.19668e-06
-9.48858e-06
-9.78333e-06
-1.00815e-05
-1.03834e-05
-1.06895e-05
-1.10002e-05
-1.13154e-05
-1.16356e-05
-1.19605e-05
-1.22903e-05
-1.26249e-05
-1.2964e-05
-1.33076e-05
-3.4127e-07
-6.41535e-07
-9.3806e-07
-1.23151e-06
-1.52203e-06
-1.80964e-06
-2.09445e-06
-2.3767e-06
-2.65663e-06
-2.93455e-06
-3.21077e-06
-3.48569e-06
-3.75973e-06
-4.03338e-06
-4.30721e-06
-4.58184e-06
-4.85797e-06
-5.1364e-06
-5.41801e-06
-5.70375e-06
-5.99489e-06
-6.29179e-06
-6.59179e-06
-6.89107e-06
-7.18672e-06
-7.47786e-06
-7.7657e-06
-8.05183e-06
-8.33738e-06
-8.62322e-06
-8.91018e-06
-9.19898e-06
-9.49027e-06
-9.78463e-06
-1.00826e-05
-1.03845e-05
-1.06908e-05
-1.10016e-05
-1.13174e-05
-1.16381e-05
-1.19638e-05
-1.22944e-05
-1.26301e-05
-1.29704e-05
-1.33153e-05
-3.24589e-07
-6.30649e-07
-9.32903e-07
-1.23182e-06
-1.5275e-06
-1.81994e-06
-2.10928e-06
-2.39571e-06
-2.67944e-06
-2.96074e-06
-3.23991e-06
-3.5173e-06
-3.79331e-06
-4.06838e-06
-4.34305e-06
-4.61788e-06
-4.89353e-06
-5.17074e-06
-5.45034e-06
-5.73325e-06
-6.02066e-06
-6.31294e-06
-6.60777e-06
-6.9018e-06
-7.19255e-06
-7.47959e-06
-7.76415e-06
-8.04761e-06
-8.331e-06
-8.61513e-06
-8.90078e-06
-9.18865e-06
-9.47934e-06
-9.77342e-06
-1.00713e-05
-1.03735e-05
-1.06803e-05
-1.0992e-05
-1.13087e-05
-1.16306e-05
-1.19578e-05
-1.22902e-05
-1.26278e-05
-1.29703e-05
-1.33176e-05
-3.15436e-07
-6.26616e-07
-9.33859e-07
-1.23749e-06
-1.53755e-06
-1.83407e-06
-2.12716e-06
-2.41697e-06
-2.70373e-06
-2.98764e-06
-3.269e-06
-3.54812e-06
-3.82537e-06
-4.10118e-06
-4.37601e-06
-4.65042e-06
-4.92501e-06
-5.20046e-06
-5.47758e-06
-5.7572e-06
-6.04047e-06
-6.32776e-06
-6.61713e-06
-6.9057e-06
-7.19148e-06
-7.47436e-06
-7.75555e-06
-8.03625e-06
-8.31738e-06
-8.59974e-06
-8.88406e-06
-9.17098e-06
-9.46111e-06
-9.75496e-06
-1.0053e-05
-1.03556e-05
-1.06631e-05
-1.09758e-05
-1.12939e-05
-1.16174e-05
-1.19465e-05
-1.22811e-05
-1.26211e-05
-1.29663e-05
-1.33166e-05
-3.11215e-07
-6.26922e-07
-9.38522e-07
-1.24622e-06
-1.55005e-06
-1.85002e-06
-2.14624e-06
-2.43886e-06
-2.72804e-06
-3.014e-06
-3.29701e-06
-3.57734e-06
-3.85536e-06
-4.13145e-06
-4.40606e-06
-4.67969e-06
-4.9529e-06
-5.22635e-06
-5.50076e-06
-5.77694e-06
-6.05596e-06
-6.33822e-06
-6.62212e-06
-6.90535e-06
-7.18632e-06
-7.46518e-06
-7.74307e-06
-8.02106e-06
-8.29998e-06
-8.5806e-06
-8.86359e-06
-9.1496e-06
-9.43918e-06
-9.73284e-06
-1.0031e-05
-1.03341e-05
-1.06425e-05
-1.09563e-05
-1.12758e-05
-1.16011e-05
-1.19323e-05
-1.22693e-05
-1.2612e-05
-1.29602e-05
-1.33137e-05
-3.10133e-07
-6.29848e-07
-9.45263e-07
-1.25651e-06
-1.56358e-06
-1.86651e-06
-2.16538e-06
-2.46033e-06
-2.7515e-06
-3.0391e-06
-3.32337e-06
-3.60457e-06
-3.88304e-06
-4.15914e-06
-4.43329e-06
-4.70596e-06
-4.97767e-06
-5.24903e-06
-5.52073e-06
-5.7935e-06
-6.06838e-06
-6.34573e-06
-6.62437e-06
-6.90252e-06
-7.17898e-06
-7.45408e-06
-7.72885e-06
-8.00426e-06
-8.28107e-06
-8.56001e-06
-8.84174e-06
-9.12687e-06
-9.41593e-06
-9.70942e-06
-1.00078e-05
-1.03114e-05
-1.06205e-05
-1.09355e-05
-1.12565e-05
-1.15836e-05
-1.19169e-05
-1.22563e-05
-1.26017e-05
-1.29529e-05
-1.33098e-05
-3.10983e-07
-6.3425e-07
-9.53016e-07
-1.26735e-06
-1.57725e-06
-1.88273e-06
-2.18388e-06
-2.48079e-06
-2.77362e-06
-3.06256e-06
-3.34781e-06
-3.62965e-06
-3.90837e-06
-4.18432e-06
-4.4579e-06
-4.72954e-06
-4.99974e-06
-5.26906e-06
-5.53813e-06
-5.80764e-06
-6.07858e-06
-6.3513e-06
-6.62498e-06
-6.89842e-06
-7.17074e-06
-7.44236e-06
-7.71424e-06
-7.98723e-06
-8.26207e-06
-8.53945e-06
-8.81999e-06
-9.10427e-06
-9.39284e-06
-9.68616e-06
-9.98467e-06
-1.02887e-05
-1.05987e-05
-1.09148e-05
-1.12371e-05
-1.15659e-05
-1.19012e-05
-1.2243e-05
-1.2591e-05
-1.29452e-05
-1.33052e-05
-3.12967e-07
-6.39385e-07
-9.61105e-07
-1.27816e-06
-1.59053e-06
-1.89823e-06
-2.20133e-06
-2.49993e-06
-2.79417e-06
-3.0842e-06
-3.37025e-06
-3.65255e-06
-3.9314e-06
-4.20712e-06
-4.48009e-06
-4.7507e-06
-5.01944e-06
-5.28682e-06
-5.55344e-06
-5.81991e-06
-6.08718e-06
-6.35559e-06
-6.62468e-06
-6.89381e-06
-7.16236e-06
-7.43081e-06
-7.70004e-06
-7.97081e-06
-8.24383e-06
-8.51975e-06
-8.79917e-06
-9.08267e-06
-9.37075e-06
-9.6639e-06
-9.96254e-06
-1.0267e-05
-1.05777e-05
-1.08947e-05
-1.12184e-05
-1.15488e-05
-1.1886e-05
-1.22299e-05
-1.25804e-05
-1.29373e-05
-1.33003e-05
-3.15568e-07
-6.44779e-07
-9.69106e-07
-1.28855e-06
-1.60309e-06
-1.91273e-06
-2.21753e-06
-2.51759e-06
-2.81302e-06
-3.10398e-06
-3.39067e-06
-3.67334e-06
-3.95224e-06
-4.22769e-06
-4.50004e-06
-4.76968e-06
-5.03705e-06
-5.30263e-06
-5.56699e-06
-5.83068e-06
-6.09458e-06
-6.35903e-06
-6.62393e-06
-6.88915e-06
-7.15431e-06
-7.41989e-06
-7.6867e-06
-7.95545e-06
-8.2268e-06
-8.50138e-06
-8.77977e-06
-9.06253e-06
-9.35016e-06
-9.64312e-06
-9.94185e-06
-1.02467e-05
-1.0558e-05
-1.08759e-05
-1.12008e-05
-1.15326e-05
-1.18715e-05
-1.22174e-05
-1.25702e-05
-1.29296e-05
-1.32954e-05
-3.18463e-07
-6.50151e-07
-9.76779e-07
-1.29833e-06
-1.61478e-06
-1.92612e-06
-2.23241e-06
-2.53373e-06
-2.83018e-06
-3.12194e-06
-3.40917e-06
-3.69211e-06
-3.97102e-06
-4.2462e-06
-4.51796e-06
-4.78669e-06
-5.0528e-06
-5.31674e-06
-5.57903e-06
-5.84019e-06
-6.10105e-06
-6.36189e-06
-6.62298e-06
-6.88469e-06
-7.1468e-06
-7.40981e-06
-7.67444e-06
-7.94135e-06
-8.21119e-06
-8.48454e-06
-8.76198e-06
-9.04405e-06
-9.33125e-06
-9.62403e-06
-9.9228e-06
-1.02279e-05
-1.05398e-05
-1.08585e-05
-1.11844e-05
-1.15176e-05
-1.1858e-05
-1.22057e-05
-1.25605e-05
-1.29222e-05
-1.32905e-05
-3.21501e-07
-6.55414e-07
-9.84104e-07
-1.30754e-06
-1.62569e-06
-1.93855e-06
-2.24616e-06
-2.54859e-06
-2.84595e-06
-3.13839e-06
-3.42608e-06
-3.70925e-06
-3.98814e-06
-4.26303e-06
-4.53425e-06
-4.80213e-06
-5.06708e-06
-5.32951e-06
-5.58992e-06