/*--------------------------------*- C++ -*----------------------------------*\
| =========                 |                                                 |
| \\      /  F ield         | OpenFOAM: The Open Source CFD Toolbox           |
|  \\    /   O peration     | Version:  2312                                  |
|   \\  /    A nd           | Website:  www.openfoam.com                      |
|    \\/     M anipulation  |                                                 |
\*---------------------------------------------------------------------------*/
FoamFile
{
    version     2.0;
    format      ascii;
    arch        "LSB;label=32;scalar=64";
    class       surfaceScalarField;
    location    "100";
    object      phi;
}
// * * * * * * * * * * * * * * * * * * * * * * * * * * * * * * * * * * * * * //

dimensions      [0 3 -1 0 0 0 0];

oriented        oriented;

internalField   nonuniform List<scalar> 
9445
(
3.63725e-10
6.10001e-12
3.60969e-10
2.75624e-12
3.6028e-10
6.88741e-13
3.61064e-10
-7.8332e-13
3.6296e-10
-1.8966e-12
3.65758e-10
-2.7981e-12
3.69367e-10
-3.60831e-12
3.73801e-10
-4.43423e-12
3.7922e-10
-5.41885e-12
3.86095e-10
-6.87498e-12
3.958e-10
-9.7052e-12
4.12349e-10
-1.65488e-11
4.45593e-10
-3.3244e-11
5.21178e-10
-7.55858e-11
-2.04252e-10
7.2543e-10
1.26961e-09
2.7807e-11
1.25926e-09
1.31025e-11
1.256e-09
3.94854e-12
1.25771e-09
-2.48591e-12
1.26313e-09
-7.32185e-12
1.27154e-09
-1.12034e-11
1.28258e-09
-1.46482e-11
1.29626e-09
-1.81148e-11
1.31302e-09
-2.21841e-11
1.33411e-09
-2.79648e-11
1.36247e-09
-3.80586e-11
1.40425e-09
-5.8337e-11
1.47054e-09
-9.95329e-11
1.574e-09
-1.79039e-10
-3.14487e-10
1.68423e-09
2.50551e-09
7.11438e-11
2.48404e-09
3.45666e-11
2.47629e-09
1.1703e-11
2.47802e-09
-4.21719e-12
2.4868e-09
-1.60985e-11
2.50114e-09
-2.55484e-11
2.52031e-09
-3.38147e-11
2.54417e-09
-4.19772e-11
2.57329e-09
-5.13025e-11
2.60921e-09
-6.38852e-11
2.65493e-09
-8.37786e-11
2.71482e-09
-1.18224e-10
2.79214e-09
-1.76851e-10
2.87899e-09
-2.65896e-10
-3.74972e-10
2.93948e-09
4.16314e-09
1.43712e-10
4.12578e-09
7.19241e-11
4.11062e-09
2.68626e-11
4.11066e-09
-4.26077e-12
4.12186e-09
-2.72929e-11
4.14172e-09
-4.54126e-11
4.16888e-09
-6.09734e-11
4.20283e-09
-7.59249e-11
4.24384e-09
-9.23191e-11
4.29296e-09
-1.13e-10
4.35157e-09
-1.42396e-10
4.41988e-09
-1.86531e-10
4.49322e-09
-2.5019e-10
4.55739e-09
-3.30065e-10
-4.08125e-10
4.59054e-09
6.35446e-09
2.54615e-10
6.29509e-09
1.31288e-10
6.26846e-09
5.35009e-11
6.26405e-09
1.47719e-13
6.27571e-09
-3.89607e-11
6.29964e-09
-6.93341e-11
6.3335e-09
-9.48376e-11
6.37606e-09
-1.18486e-10
6.4268e-09
-1.43054e-10
6.48543e-09
-1.71632e-10
6.55091e-09
-2.07877e-10
6.61952e-09
-2.5514e-10
6.68287e-09
-3.1354e-10
6.72862e-09
-3.75814e-10
-4.26616e-10
6.74711e-09
9.21385e-09
4.13733e-10
9.12525e-09
2.19884e-10
9.08188e-09
9.68774e-11
9.06906e-09
1.29667e-11
9.07803e-09
-4.7931e-11
9.10324e-09
-9.45487e-11
9.1411e-09
-1.32694e-10
9.18921e-09
-1.66596e-10
9.24578e-09
-1.99621e-10
9.30881e-09
-2.34665e-10
9.37499e-09
-2.74059e-10
9.43848e-09
-3.18633e-10
9.49091e-09
-3.65963e-10
9.52421e-09
-4.09116e-10
-4.38368e-10
9.53596e-09
1.28984e-08
6.29906e-10
1.27732e-08
3.45129e-10
1.2707e-08
1.6303e-10
1.26808e-08
3.92097e-11
1.26827e-08
-4.98031e-11
1.2705e-08
-1.16916e-10
1.27427e-08
-1.7033e-10
1.27917e-08
-2.15646e-10
1.28489e-08
-2.56765e-10
1.29105e-08
-2.96287e-10
1.29719e-08
-3.35455e-10
1.3027e-08
-3.73726e-10
1.30694e-08
-4.08336e-10
1.30949e-08
-4.34636e-10
-4.47886e-10
1.31044e-08
1.7585e-08
9.07178e-10
1.74177e-08
5.12447e-10
1.73232e-08
2.5751e-10
1.72782e-08
8.42093e-11
1.72678e-08
-3.93978e-11
1.72822e-08
-1.31231e-10
1.73142e-08
-2.02338e-10
1.73584e-08
-2.59896e-10
1.74101e-08
-3.08488e-10
1.74646e-08
-3.50727e-10
1.75167e-08
-3.87537e-10
1.75613e-08
-4.18344e-10
1.75944e-08
-4.41434e-10
1.76145e-08
-4.54732e-10
-4.56872e-10
1.76235e-08
2.34619e-08
1.23876e-09
2.3253e-08
7.21334e-10
2.31277e-08
3.82805e-10
2.306e-08
1.51891e-10
2.30326e-08
-1.19815e-11
2.30335e-08
-1.32185e-10
2.30542e-08
-2.22964e-10
2.30876e-08
-2.93342e-10
2.3128e-08
-3.48928e-10
2.31702e-08
-3.92924e-10
2.32095e-08
-4.26814e-10
2.32421e-08
-4.50966e-10
2.3266e-08
-4.65255e-10
2.32809e-08
-4.69705e-10
-4.6493e-10
2.3289e-08
3.07141e-08
1.59958e-09
3.04756e-08
9.59838e-10
3.03241e-08
5.34299e-10
3.02342e-08
2.41793e-10
3.01878e-08
3.44702e-11
3.01718e-08
-1.16186e-10
3.01765e-08
-2.27686e-10
3.01943e-08
-3.11118e-10
3.02189e-08
-3.73519e-10
3.02452e-08
-4.19256e-10
3.02694e-08
-4.51014e-10
3.0289e-08
-4.70551e-10
3.0303e-08
-4.79292e-10
3.03121e-08
-4.78737e-10
-4.70552e-10
3.03177e-08
3.95085e-08
1.94226e-09
3.92684e-08
1.19988e-09
3.91067e-08
6.95973e-10
3.90031e-08
3.45441e-10
3.89413e-08
9.62281e-11
3.89091e-08
-8.39621e-11
3.88969e-08
-2.15455e-10
3.88972e-08
-3.11387e-10
3.89041e-08
-3.80442e-10
3.89133e-08
-4.28479e-10
3.89219e-08
-4.59626e-10
3.89284e-08
-4.77034e-10
3.89325e-08
-4.83364e-10
3.89348e-08
-4.8105e-10
-4.72268e-10
3.89365e-08
4.99907e-08
2.20613e-09
4.97911e-08
1.39956e-09
4.96472e-08
8.39801e-10
4.95481e-08
4.44561e-10
4.94827e-08
1.61643e-10
4.94415e-08
-4.27787e-11
4.94168e-08
-1.90787e-10
4.94026e-08
-2.97147e-10
4.93942e-08
-3.72051e-10
4.93885e-08
-4.22773e-10
4.93836e-08
-4.54738e-10
4.93788e-08
-4.72198e-10
4.93741e-08
-4.78646e-10
4.937e-08
-4.7703e-10
-4.69733e-10
4.93675e-08
6.23211e-08
2.34563e-09
6.22009e-08
1.51977e-09
6.21057e-08
9.34962e-10
6.20344e-08
5.15938e-10
6.19825e-08
2.13509e-10
6.19452e-08
-5.4762e-12
6.1918e-08
-1.63545e-10
6.18972e-08
-2.76344e-10
6.18802e-08
-3.55071e-10
6.18654e-08
-4.07993e-10
6.18521e-08
-4.41399e-10
6.18401e-08
-4.60209e-10
6.18298e-08
-4.68343e-10
6.18217e-08
-4.68945e-10
-4.64414e-10
6.18164e-08
7.67422e-08
2.3611e-09
7.67123e-08
1.54967e-09
7.66802e-08
9.67044e-10
7.66509e-08
5.45222e-10
7.66256e-08
2.38855e-10
7.66036e-08
1.65203e-11
7.65839e-08
-1.43847e-10
7.65656e-08
-2.58056e-10
7.65482e-08
-3.37697e-10
7.65317e-08
-3.91473e-10
7.65163e-08
-4.26033e-10
7.65026e-08
-4.46522e-10
7.64912e-08
-4.5694e-10
7.64827e-08
-4.60393e-10
-4.59168e-10
7.64774e-08
9.3604e-08
2.29377e-09
9.36395e-08
1.51415e-09
9.36567e-08
9.49894e-10
9.36626e-08
5.39252e-10
9.36613e-08
2.40166e-10
9.36549e-08
2.29255e-11
9.36448e-08
-1.33768e-10
9.36322e-08
-2.45457e-10
9.36182e-08
-3.23672e-10
9.36038e-08
-3.77105e-10
9.35902e-08
-4.12365e-10
9.35782e-08
-4.34497e-10
9.35686e-08
-4.47347e-10
9.3562e-08
-4.53838e-10
-4.56074e-10
9.35589e-08
1.13251e-07
2.18376e-09
1.13319e-07
1.44706e-09
1.13358e-07
9.1056e-10
1.13378e-07
5.18783e-10
1.13386e-07
2.32899e-10
1.13384e-07
2.49647e-11
1.13375e-07
-1.2534e-10
1.13363e-07
-2.32987e-10
1.13348e-07
-3.09126e-10
1.13333e-07
-3.62133e-10
1.13319e-07
-3.98324e-10
1.13307e-07
-4.22462e-10
1.13298e-07
-4.38121e-10
1.13292e-07
-4.47981e-10
-4.53939e-10
1.1329e-07
1.35826e-07
2.04281e-09
1.35911e-07
1.36276e-09
1.35957e-07
8.63808e-10
1.35979e-07
4.97581e-10
1.35982e-07
2.29154e-10
1.35974e-07
3.29433e-11
1.35959e-07
-1.0989e-10
1.35939e-07
-2.13319e-10
1.35918e-07
-2.87758e-10
1.35897e-07
-3.41004e-10
1.35877e-07
-3.78892e-10
1.35861e-07
-4.05785e-10
1.35847e-07
-4.24926e-10
1.35838e-07
-4.38733e-10
-4.48898e-10
1.35833e-07
1.61137e-07
1.86519e-09
1.61243e-07
1.2576e-09
1.61299e-07
8.07746e-10
1.61321e-07
4.74958e-10
1.61321e-07
2.29016e-10
1.61307e-07
4.74512e-11
1.61283e-07
-8.64405e-11
1.61255e-07
-1.8512e-10
1.61225e-07
-2.57893e-10
1.61196e-07
-3.1171e-10
1.61169e-07
-3.51756e-10
1.61145e-07
-3.81893e-10
1.61125e-07
-4.04988e-10
1.6111e-07
-4.23173e-10
-4.37932e-10
1.61099e-07
1.88589e-07
1.64739e-09
1.88721e-07
1.12611e-09
1.88792e-07
7.36128e-10
1.88823e-07
4.4461e-10
1.88825e-07
2.26545e-10
1.88809e-07
6.31729e-11
1.88782e-07
-5.9539e-11
1.88749e-07
-1.52104e-10
1.88714e-07
-2.22401e-10
1.88679e-07
-2.76322e-10
1.88645e-07
-3.18268e-10
1.88615e-07
-3.51517e-10
1.88588e-07
-3.78508e-10
1.88566e-07
-4.01067e-10
-4.20452e-10
1.88549e-07
2.16986e-07
1.3935e-09
2.17144e-07
9.68147e-10
2.17234e-07
6.4615e-10
2.17276e-07
4.02239e-10
2.17286e-07
2.16832e-10
2.17274e-07
7.52183e-11
2.17248e-07
-3.36479e-11
2.17214e-07
-1.18093e-10
2.17176e-07
-1.84388e-10
2.17137e-07
-2.37235e-10
2.17099e-07
-2.80157e-10
2.17063e-07
-3.15792e-10
2.17031e-07
-3.46112e-10
2.17002e-07
-3.72609e-10
-3.96308e-10
2.16978e-07
2.16242e-07
1.14395e-09
2.16402e-07
8.08743e-10
2.16496e-07
5.51651e-10
2.16545e-07
3.5387e-10
2.16561e-07
2.007e-10
2.16555e-07
8.11088e-11
2.16534e-07
-1.32e-11
2.16505e-07
-8.85263e-11
2.1647e-07
-1.4965e-10
2.16433e-07
-2.00172e-10
2.16396e-07
-2.42803e-10
2.16359e-07
-2.79587e-10
2.16325e-07
-3.12068e-10
2.16294e-07
-3.41423e-10
-3.68483e-10
2.16266e-07
1.86591e-07
9.31893e-10
1.86731e-07
6.69325e-10
1.86817e-07
4.65345e-10
1.86865e-07
3.05922e-10
1.86886e-07
1.80107e-10
1.86887e-07
7.97233e-11
1.86875e-07
-1.39577e-12
1.86855e-07
-6.79568e-11
1.86828e-07
-1.23555e-10
1.86799e-07
-1.70918e-10
1.86769e-07
-2.12112e-10
1.86738e-07
-2.48708e-10
1.86707e-07
-2.81905e-10
1.86679e-07
-3.12623e-10
-3.41531e-10
1.86652e-07
1.58161e-07
7.52473e-10
1.58283e-07
5.47665e-10
1.58362e-07
3.86536e-10
1.58409e-07
2.58576e-10
1.58433e-07
1.55687e-10
1.58441e-07
7.18679e-11
1.58437e-07
2.57751e-12
1.58425e-07
-5.56781e-11
1.58407e-07
-1.05586e-10
1.58385e-07
-1.49192e-10
1.58361e-07
-1.88057e-10
1.58336e-07
-2.23379e-10
1.5831e-07
-2.56079e-10
1.58284e-07
-2.86869e-10
-3.16276e-10
1.58259e-07
1.3208e-07
6.00438e-10
1.32186e-07
4.4139e-10
1.32258e-07
3.1468e-10
1.32304e-07
2.12416e-10
1.32331e-07
1.28665e-10
1.32344e-07
5.90721e-11
1.32346e-07
3.23261e-13
1.3234e-07
-5.01584e-11
1.32329e-07
-9.43656e-11
1.32314e-07
-1.33822e-10
1.32296e-07
-1.69698e-10
1.32275e-07
-2.02894e-10
1.32253e-07
-2.34114e-10
1.3223e-07
-2.63903e-10
-2.92671e-10
1.32207e-07
1.08868e-07
4.70814e-10
1.08961e-07
3.48092e-10
1.09027e-07
2.49082e-10
1.09071e-07
1.67864e-10
1.091e-07
1.00144e-10
1.09116e-07
4.28156e-11
1.09123e-07
-6.51591e-12
1.09122e-07
-4.97362e-11
1.09116e-07
-8.83097e-11
1.09106e-07
-1.23359e-10
1.09092e-07
-1.55749e-10
1.09075e-07
-1.86155e-10
1.09056e-07
-2.15106e-10
1.09035e-07
-2.43012e-10
-2.7019e-10
1.09013e-07
8.86823e-08
3.60108e-10
8.8764e-08
2.66344e-10
8.88234e-08
1.89728e-10
8.88654e-08
1.25836e-10
8.88939e-08
7.1631e-11
8.89118e-08
2.4943e-11
8.89212e-08
-1.59344e-11
8.89238e-08
-5.23672e-11
8.89209e-08
-8.54172e-11
8.89135e-08
-1.15899e-10
8.89022e-08
-1.44445e-10
8.88876e-08
-1.71551e-10
8.88701e-08
-1.97611e-10
8.885e-08
-2.22932e-10
-2.47753e-10
8.88276e-08
7.14513e-08
2.66696e-10
7.15216e-08
1.96069e-10
7.15737e-08
1.376e-10
7.16115e-08
8.80171e-11
7.16379e-08
4.52395e-11
7.16551e-08
7.80368e-12
7.16646e-08
-2.54873e-11
7.16679e-08
-5.56104e-11
7.16658e-08
-8.33209e-11
7.16591e-08
-1.09198e-10
7.16483e-08
-1.33695e-10
7.16339e-08
-1.57172e-10
7.16162e-08
-1.79919e-10
7.15955e-08
-2.0216e-10
-2.24075e-10
7.15718e-08
5.69625e-08
1.90146e-10
5.70206e-08
1.37929e-10
5.70641e-08
9.41004e-11
5.70959e-08
5.62768e-11
5.7118e-08
2.31121e-11
5.71321e-08
-6.34026e-12
5.71396e-08
-3.29044e-11
5.71412e-08
-5.72634e-11
5.71378e-08
-7.99408e-11
5.713e-08
-1.01339e-10
5.71181e-08
-1.21777e-10
5.71024e-08
-1.41511e-10
5.70832e-08
-1.60751e-10
5.70607e-08
-1.79659e-10
-1.98373e-10
5.7035e-08
4.49303e-08
1.30027e-10
4.49759e-08
9.22774e-11
4.50099e-08
6.00969e-11
4.50344e-08
3.18028e-11
4.50509e-08
6.6015e-12
4.50606e-08
-1.60848e-11
4.50646e-08
-3.68123e-11
4.50633e-08
-5.60436e-11
4.50575e-08
-7.41306e-11
4.50475e-08
-9.13462e-11
4.50337e-08
-1.0791e-10
4.50162e-08
-1.24002e-10
4.49952e-08
-1.39771e-10
4.49709e-08
-1.55335e-10
-1.70798e-10
4.49433e-08
3.50447e-08
8.51018e-11
3.50785e-08
5.8486e-11
3.51032e-08
3.53777e-11
3.51203e-08
1.46461e-11
3.5131e-08
-4.09944e-12
3.51361e-08
-2.11864e-11
3.51363e-08
-3.69797e-11
3.5132e-08
-5.17829e-11
3.51237e-08
-6.58256e-11
3.51117e-08
-7.92886e-11
3.50961e-08
-9.23206e-11
3.50771e-08
-1.05045e-10
3.50549e-08
-1.17566e-10
3.50296e-08
-1.29971e-10
-1.42339e-10
3.50011e-08
2.70017e-08
5.32218e-11
2.70252e-08
3.49532e-11
2.70419e-08
1.87338e-11
2.70526e-08
3.86745e-12
2.70583e-08
-9.7615e-12
2.70594e-08
-2.23231e-11
2.70565e-08
-3.40511e-11
2.70499e-08
-4.51389e-11
2.70398e-08
-5.57325e-11
2.70264e-08
-6.59498e-11
2.701e-08
-7.58891e-11
2.69906e-08
-8.56337e-11
2.69683e-08
-9.5257e-11
2.69431e-08
-1.04822e-10
-1.14391e-10
2.69152e-08
2.05189e-08
3.17259e-11
2.05343e-08
1.95368e-11
2.05446e-08
8.42068e-12
2.05505e-08
-1.99105e-12
2.05524e-08
-1.16467e-11
2.05507e-08
-2.06291e-11
2.05457e-08
-2.90869e-11
2.05377e-08
-3.71404e-11
2.05269e-08
-4.48807e-11
2.05133e-08
-5.23831e-11
2.04971e-08
-5.97113e-11
2.04784e-08
-6.69206e-11
2.04572e-08
-7.40612e-11
2.04336e-08
-8.11792e-11
-8.83253e-11
2.04075e-08
1.5342e-08
1.79388e-11
1.53515e-08
1.00514e-11
1.53573e-08
2.63521e-12
1.53598e-08
-4.45068e-12
1.53592e-08
-1.1077e-11
1.53559e-08
-1.72872e-11
1.535e-08
-2.31763e-11
1.53416e-08
-2.88172e-11
1.5331e-08
-3.42657e-11
1.53182e-08
-3.95685e-11
1.53033e-08
-4.47658e-11
1.52862e-08
-4.98933e-11
1.52672e-08
-5.49849e-11
1.5246e-08
-6.00735e-11
-6.51998e-11
1.52229e-08
1.12467e-08
9.53057e-12
1.12522e-08
4.604e-12
1.1255e-08
-1.76772e-13
1.12554e-08
-4.81861e-12
1.12535e-08
-9.18026e-12
1.12495e-08
-1.32925e-11
1.12435e-08
-1.72153e-11
1.12357e-08
-2.09917e-11
1.12261e-08
-2.46546e-11
1.12147e-08
-2.8232e-11
1.12017e-08
-3.1748e-11
1.1187e-08
-3.52253e-11
1.11707e-08
-3.86856e-11
1.11528e-08
-4.21517e-11
-4.56552e-11
1.11333e-08
8.03818e-09
4.67291e-12
8.04106e-09
1.73088e-12
8.04208e-09
-1.20431e-12
8.04135e-09
-4.08449e-12
8.03897e-09
-6.79528e-12
8.03504e-09
-9.36414e-12
8.02965e-09
-1.18274e-11
8.02287e-09
-1.4209e-11
8.01474e-09
-1.65274e-11
8.00531e-09
-1.87984e-11
7.99459e-09
-2.10359e-11
7.98262e-09
-2.32531e-11
7.9694e-09
-2.54636e-11
7.95493e-09
-2.76822e-11
-2.9931e-11
7.93921e-09
5.5498e-09
2.04094e-12
5.55114e-09
3.91974e-13
5.55121e-09
-1.2795e-12
5.55005e-09
-2.92675e-12
5.54773e-09
-4.4764e-12
5.54432e-09
-5.95211e-12
5.53987e-09
-7.37379e-12
5.53441e-09
-8.75373e-12
5.52799e-09
-1.01014e-11
5.52061e-09
-1.14249e-11
5.51231e-09
-1.27315e-11
5.50308e-09
-1.40287e-11
5.49295e-09
-1.53241e-11
5.48189e-09
-1.66259e-11
-1.7948e-11
5.46991e-09
3.64095e-09
7.33566e-13
3.64145e-09
-1.02643e-13
3.64111e-09
-9.41917e-13
3.63995e-09
-1.76735e-12
3.63801e-09
-2.5432e-12
3.63535e-09
-3.28601e-12
3.63198e-09
-4.00493e-12
3.62793e-09
-4.70535e-12
3.62322e-09
-5.39139e-12
3.61786e-09
-6.06669e-12
3.61187e-09
-6.73457e-12
3.60524e-09
-7.39859e-12
3.59797e-09
-8.06269e-12
3.59008e-09
-8.73062e-12
-9.40839e-12
3.58154e-09
2.19445e-09
1.69544e-13
2.19453e-09
-1.84146e-13
2.1941e-09
-5.15256e-13
2.19317e-09
-8.3847e-13
2.19177e-09
-1.143e-12
2.18992e-09
-1.43672e-12
2.18764e-09
-1.72254e-12
2.18494e-09
-2.00208e-12
2.18182e-09
-2.27662e-12
2.1783e-09
-2.54737e-12
2.17438e-09
-2.8155e-12
2.17007e-09
-3.08231e-12
2.16535e-09
-3.34956e-12
2.16024e-09
-3.61814e-12
-3.88844e-12
2.15472e-09
1.11371e-09
-8.76782e-15
1.11363e-09
-1.06575e-13
1.11329e-09
-1.75816e-13
1.1127e-09
-2.43463e-13
1.11186e-09
-3.08492e-13
1.1108e-09
-3.72349e-13
1.10951e-09
-4.3514e-13
1.10801e-09
-4.96904e-13
1.10629e-09
-5.57712e-13
1.10436e-09
-6.17708e-13
1.10222e-09
-6.77107e-13
1.09987e-09
-7.36141e-13
1.09732e-09
-7.9533e-13
1.09455e-09
-8.54553e-13
-9.11592e-13
1.09158e-09
3.19928e-10
3.19821e-10
3.19645e-10
3.19402e-10
3.19093e-10
3.18721e-10
3.18286e-10
3.17789e-10
3.17231e-10
3.16613e-10
3.15936e-10
3.152e-10
3.14405e-10
3.1355e-10
3.12639e-10
8.6593e-10
-4.56124e-10
3.15625e-10
1.06707e-09
-4.6405e-10
2.62907e-10
1.27625e-09
-4.08738e-10
1.99563e-10
1.48454e-09
-3.43317e-10
1.35027e-10
1.68974e-09
-2.77724e-10
7.25202e-11
1.89219e-09
-2.17235e-10
1.47892e-11
2.09292e-09
-1.63924e-10
-3.6806e-11
2.29288e-09
-1.1914e-10
-8.08181e-11
2.49284e-09
-8.42141e-11
-1.15746e-10
2.6934e-09
-6.04979e-11
-1.40063e-10
2.89501e-09
-4.93916e-11
-1.5222e-10
3.09799e-09
-5.2274e-11
-1.50709e-10
3.30256e-09
-7.0357e-11
-1.34215e-10
3.50887e-09
-1.04423e-10
-1.01887e-10
3.71704e-09
-1.54394e-10
-5.3779e-11
3.92726e-09
-2.18723e-10
8.50946e-12
4.13985e-09
-2.93608e-10
8.10115e-11
4.35548e-09
-3.72317e-10
1.56696e-10
4.57519e-09
-4.45166e-10
2.25454e-10
4.80048e-09
-5.01852e-10
2.76559e-10
5.03274e-09
-5.38583e-10
3.06333e-10
5.27197e-09
-5.76014e-10
3.36771e-10
5.48054e-09
-5.90791e-10
3.82228e-10
5.64567e-09
-6.74781e-10
5.09663e-10
5.768e-09
-8.46953e-10
7.24611e-10
5.84802e-09
-1.07066e-09
9.90642e-10
5.88693e-09
-1.30409e-09
1.26517e-09
5.88695e-09
-1.50912e-09
1.5091e-09
5.85117e-09
-1.65557e-09
1.69136e-09
5.78332e-09
-1.72279e-09
1.79064e-09
5.6875e-09
-1.69951e-09
1.79534e-09
5.56779e-09
-1.58252e-09
1.70222e-09
5.42806e-09
-1.37465e-09
1.51438e-09
5.27173e-09
-1.08262e-09
1.23895e-09
5.1017e-09
-7.14867e-10
8.84893e-10
4.92032e-09
-2.79716e-10
4.61093e-10
4.72922e-09
2.15911e-10
-2.48092e-11
4.52884e-09
7.66322e-10
-5.65944e-10
4.31737e-09
1.36456e-09
-1.1531e-09
4.08897e-09
1.99661e-09
-1.7682e-09
3.83222e-09
2.63128e-09
-2.37454e-09
3.53144e-09
3.20587e-09
-2.90509e-09
3.17449e-09
3.60637e-09
-3.24942e-09
2.78185e-09
3.63991e-09
-3.24727e-09
2.94864e-09
2.43075e-09
-2.59753e-09
1.74369e-09
-5.15584e-10
1.86648e-09
-5.86838e-10
2.03346e-09
-5.75721e-10
2.22301e-09
-5.32867e-10
2.42352e-09
-4.78236e-10
2.62941e-09
-4.23125e-10
2.83841e-09
-3.72921e-10
3.04967e-09
-3.30402e-10
3.26296e-09
-2.97505e-10
3.4783e-09
-2.75833e-10
3.69577e-09
-2.66862e-10
3.91547e-09
-2.71976e-10
4.13747e-09
-2.92358e-10
4.36181e-09
-3.28764e-10
4.58854e-09
-3.81117e-10
4.81776e-09
-4.47942e-10
5.04976e-09
-5.25613e-10
5.28516e-09
-6.07721e-10
5.52503e-09
-6.85028e-10
5.77086e-09
-7.4769e-10
6.02409e-09
-7.91811e-10
6.28469e-09
-8.36613e-10
6.51191e-09
-8.18009e-10
6.69202e-09
-8.54899e-10
6.82583e-09
-9.80761e-10
6.91391e-09
-1.15874e-09
6.95763e-09
-1.34781e-09
6.95943e-09
-1.51092e-09
6.92274e-09
-1.61888e-09
6.85175e-09
-1.65181e-09
6.7511e-09
-1.59886e-09
6.6255e-09
-1.45692e-09
6.47956e-09
-1.2287e-09
6.31758e-09
-9.20638e-10
6.14357e-09
-5.40859e-10
5.96132e-09
-9.74653e-11
5.77456e-09
4.02668e-10
5.58705e-09
9.53827e-10
5.4023e-09
1.54932e-09
5.22302e-09
2.17588e-09
5.05146e-09
2.80284e-09
4.89232e-09
3.36501e-09
4.75851e-09
3.74018e-09
4.66761e-09
3.73081e-09
3.10356e-09
4.51268e-09
2.96109e-09
-5.37193e-10
3.02291e-09
-6.48663e-10
3.13572e-09
-6.88529e-10
3.28748e-09
-6.84628e-10
3.46554e-09
-6.56298e-10
3.66048e-09
-6.1806e-10
3.86652e-09
-5.78965e-10
4.08038e-09
-5.44254e-10
4.30018e-09
-5.17305e-10
4.52488e-09
-5.00535e-10
4.75388e-09
-4.9586e-10
4.98679e-09
-5.04892e-10
5.22336e-09
-5.2893e-10
5.46339e-09
-5.68791e-10
5.70673e-09
-6.24461e-10
5.95336e-09
-6.94571e-10
6.20345e-09
-7.757e-10
6.45752e-09
-8.61789e-10
6.71657e-09
-9.44078e-10
6.98209e-09
-1.01321e-09
7.25548e-09
-1.0652e-09
7.53664e-09
-1.11777e-09
7.78186e-09
-1.06323e-09
7.97648e-09
-1.04952e-09
8.12142e-09
-1.1257e-09
8.21735e-09
-1.25468e-09
8.26581e-09
-1.39626e-09
8.26949e-09
-1.5146e-09
8.23222e-09
-1.58161e-09
8.15868e-09
-1.57827e-09
8.05412e-09
-1.4943e-09
7.92402e-09
-1.32681e-09
7.77383e-09
-1.07852e-09
7.60895e-09
-7.55756e-10
7.43471e-09
-3.66613e-10
7.25666e-09
8.05861e-11
7.08106e-09
5.78265e-10
6.91546e-09
1.11943e-09
6.76914e-09
1.69563e-09
6.65342e-09
2.29161e-09
6.58157e-09
2.87469e-09
6.56755e-09
3.37904e-09
6.61733e-09
3.6904e-09
6.69774e-09
3.6504e-09
3.13247e-09
6.66884e-09
4.59364e-09
-5.40287e-10
4.61407e-09
-6.69101e-10
4.67541e-09
-7.49867e-10
4.7795e-09
-7.88719e-10
4.92e-09
-7.96796e-10
5.08839e-09
-7.86448e-10
5.27739e-09
-7.67963e-10
5.48173e-09
-7.48594e-10
5.69782e-09
-7.33403e-10
5.9233e-09
-7.26007e-10
6.15655e-09
-7.29113e-10
6.39648e-09
-7.44828e-10
6.64231e-09
-7.74756e-10
6.89343e-09
-8.1991e-10
7.14939e-09
-8.80426e-10
7.40992e-09
-9.551e-10
7.67498e-09
-1.04076e-09
7.94493e-09
-1.13174e-09
8.22063e-09
-1.21978e-09
8.50347e-09
-1.29605e-09
8.79476e-09
-1.35649e-09
9.09425e-09
-1.41726e-09
9.35559e-09
-1.32457e-09
9.56324e-09
-1.25717e-09
9.71815e-09
-1.28061e-09
9.8211e-09
-1.35763e-09
9.87376e-09
-1.44893e-09
9.87912e-09
-1.51996e-09
9.84142e-09
-1.5439e-09
9.76591e-09
-1.50276e-09
9.65853e-09
-1.38692e-09
9.5256e-09
-1.19388e-09
9.3736e-09
-9.2652e-10
9.20912e-09
-5.91276e-10
9.03902e-09
-1.96511e-10
8.87081e-09
2.48792e-10
8.71337e-09
7.35709e-10
8.5778e-09
1.255e-09
8.47822e-09
1.79522e-09
8.43176e-09
2.33807e-09
8.45658e-09
2.84987e-09
8.56497e-09
3.27064e-09
8.7467e-09
3.50867e-09
8.94009e-09
3.45701e-09
3.05963e-09
9.01293e-09
6.74213e-09
-5.35312e-10
6.73835e-09
-6.65317e-10
6.75916e-09
-7.70676e-10
6.81576e-09
-8.45315e-10
6.91023e-09
-8.91266e-10
7.039e-09
-9.15221e-10
7.19643e-09
-9.25398e-10
7.37705e-09
-9.29207e-10
7.5763e-09
-9.32652e-10
7.79069e-09
-9.40403e-10
8.01763e-09
-9.56055e-10
8.25518e-09
-9.82379e-10
8.50188e-09
-1.02145e-09
8.75658e-09
-1.07461e-09
9.01841e-09
-1.14225e-09
9.28672e-09
-1.22342e-09
9.5612e-09
-1.31523e-09
9.84191e-09
-1.41245e-09
1.01295e-08
-1.50739e-09
1.04252e-08
-1.59173e-09
1.07301e-08
-1.66136e-09
1.10436e-08
-1.73082e-09
1.13175e-08
-1.59842e-09
1.15352e-08
-1.47492e-09
1.16978e-08
-1.44318e-09
1.1806e-08
-1.4658e-09
1.18616e-08
-1.50453e-09
1.18679e-08
-1.52627e-09
1.18296e-08
-1.50563e-09
1.17526e-08
-1.42576e-09
1.16436e-08
-1.2779e-09
1.15098e-08
-1.06008e-09
1.13588e-08
-7.75529e-10
1.11985e-08
-4.31008e-10
1.10374e-08
-3.54004e-11
1.08849e-08
4.01339e-10
1.0752e-08
8.68587e-10
1.06524e-08
1.35455e-09
1.06029e-08
1.84479e-09
1.06221e-08
2.31881e-09
1.07272e-08
2.74483e-09
1.09233e-08
3.07448e-09
1.11878e-08
3.24417e-09
1.1452e-08
3.19287e-09
2.90439e-09
1.16072e-08
9.52906e-09
-5.2841e-10
9.51439e-09
-6.50649e-10
9.50907e-09
-7.65356e-10
9.52688e-09
-8.63127e-10
9.5759e-09
-9.40286e-10
9.65857e-09
-9.97888e-10
9.77336e-09
-1.04018e-09
9.91683e-09
-1.07268e-09
1.00851e-08
-1.10089e-09
1.02744e-08
-1.12973e-09
1.04817e-08
-1.16332e-09
1.07043e-08
-1.20501e-09
1.09402e-08
-1.25735e-09
1.11877e-08
-1.32208e-09
1.14453e-08
-1.39992e-09
1.17121e-08
-1.49021e-09
1.19873e-08
-1.59044e-09
1.22707e-08
-1.69583e-09
1.25626e-08
-1.79925e-09
1.28638e-08
-1.89296e-09
1.31752e-08
-1.97279e-09
1.34959e-08
-2.05151e-09
1.37763e-08
-1.87883e-09
1.39994e-08
-1.69795e-09
1.41657e-08
-1.6095e-09
1.4276e-08
-1.57611e-09
1.43323e-08
-1.56079e-09
1.4338e-08
-1.53206e-09
1.42985e-08
-1.46612e-09
1.42202e-08
-1.34746e-09
1.41107e-08
-1.16834e-09
1.39781e-08
-9.27477e-10
1.38311e-08
-6.28612e-10
1.36791e-08
-2.78985e-10
1.35319e-08
1.11847e-10
1.34003e-08
5.32908e-10
1.32969e-08
9.71976e-10
1.32362e-08
1.41522e-09
1.32347e-08
1.84632e-09
1.33088e-08
2.2447e-09
1.34703e-08
2.58337e-09
1.37168e-08
2.82794e-09
1.40203e-08
2.94071e-09
1.43196e-08
2.89353e-09
2.68894e-09
1.45351e-08
1.30991e-08
-5.23159e-10
1.30826e-08
-6.34124e-10
1.30648e-08
-7.47584e-10
1.30573e-08
-8.55596e-10
1.30698e-08
-9.52803e-10
1.31089e-08
-1.03693e-09
1.31773e-08
-1.1086e-09
1.32751e-08
-1.17054e-09
1.34007e-08
-1.2265e-09
1.35516e-08
-1.28059e-09
1.3725e-08
-1.33672e-09
1.39183e-08
-1.39835e-09
1.41293e-08
-1.46829e-09
1.43558e-08
-1.54857e-09
1.4596e-08
-1.64019e-09
1.48486e-08
-1.74281e-09
1.51125e-08
-1.85429e-09
1.53869e-08
-1.9703e-09
1.5672e-08
-2.0843e-09
1.59681e-08
-2.18906e-09
1.62757e-08
-2.28036e-09
1.65932e-08
-2.36904e-09
1.68713e-08
-2.15695e-09
1.70924e-08
-1.91903e-09
1.72565e-08
-1.77363e-09
1.73642e-08
-1.68381e-09
1.74175e-08
-1.61406e-09
1.74202e-08
-1.53477e-09
1.7378e-08
-1.42393e-09
1.72981e-08
-1.26756e-09
1.71888e-08
-1.05906e-09
1.70594e-08
-7.97998e-10
1.69195e-08
-4.88715e-10
1.67795e-08
-1.38999e-10
1.66503e-08
2.40981e-10
1.65438e-08
6.39474e-10
1.64725e-08
1.04326e-09
1.64501e-08
1.43763e-09
1.64902e-08
1.80618e-09
1.66044e-08
2.13049e-09
1.67977e-08
2.39007e-09
1.70621e-08
2.56356e-09
1.73702e-08
2.63257e-09
1.7675e-08
2.58877e-09
2.44201e-09
1.79219e-08
1.76211e-08
-5.20834e-10
1.76074e-08
-6.20425e-10
1.75871e-08
-7.27215e-10
1.75675e-08
-8.35987e-10
1.75568e-08
-9.42152e-10
1.75624e-08
-1.04256e-09
1.75897e-08
-1.1359e-09
1.76418e-08
-1.22262e-09
1.77198e-08
-1.30452e-09
1.78235e-08
-1.38425e-09
1.79516e-08
-1.4648e-09
1.81024e-08
-1.54914e-09
1.8274e-08
-1.6399e-09
1.84645e-08
-1.7391e-09
1.86722e-08
-1.84786e-09
1.88954e-08
-1.96602e-09
1.91328e-08
-2.09172e-09
1.93836e-08
-2.22105e-09
1.96473e-08
-2.348e-09
1.9924e-08
-2.46579e-09
2.02137e-08
-2.57002e-09
2.0514e-08
-2.6694e-09
2.07777e-08
-2.42064e-09
2.09868e-08
-2.12815e-09
2.11405e-08
-1.92734e-09
2.12389e-08
-1.78222e-09
2.1284e-08
-1.65914e-09
2.12799e-08
-1.53062e-09
2.12326e-08
-1.37668e-09
2.11501e-08
-1.18502e-09
2.10414e-08
-9.50332e-10
2.09164e-08
-6.73083e-10
2.0786e-08
-3.58225e-10
2.0661e-08
-1.40048e-11
2.05528e-08
3.49095e-10
2.04732e-08
7.19081e-10
2.04338e-08
1.08269e-09
2.04457e-08
1.42574e-09
2.05183e-08
1.73356e-09
2.06574e-08
1.99142e-09
2.08619e-08
2.18555e-09
2.11207e-08
2.30474e-09
2.14105e-08
2.34278e-09
2.16979e-08
2.30144e-09
2.19232e-09
2.19476e-08
2.32888e-08
-5.20618e-10
2.32787e-08
-6.10375e-10
2.32605e-08
-7.08943e-10
2.32379e-08
-8.1338e-10
2.32163e-08
-9.20582e-10
2.32016e-08
-1.0279e-09
2.31993e-08
-1.13362e-09
2.32138e-08
-1.23711e-09
2.32482e-08
-1.33887e-09
2.33042e-08
-1.44022e-09
2.33824e-08
-1.54304e-09
2.34827e-08
-1.64947e-09
2.36044e-08
-1.76156e-09
2.37463e-08
-1.88099e-09
2.39071e-08
-2.0087e-09
2.40856e-08
-2.1445e-09
2.42805e-08
-2.28667e-09
2.4491e-08
-2.43155e-09
2.47166e-08
-2.57353e-09
2.49569e-08
-2.70611e-09
2.52115e-08
-2.8246e-09
2.54773e-08
-2.93519e-09
2.57113e-08
-2.65465e-09
2.58958e-08
-2.31265e-09
2.60286e-08
-2.06013e-09
2.61091e-08
-1.86275e-09
2.61392e-08
-1.68923e-09
2.61231e-08
-1.51454e-09
2.60674e-08
-1.32095e-09
2.59804e-08
-1.098e-09
2.58717e-08
-8.41684e-10
2.5752e-08
-5.53379e-10
2.56323e-08
-2.38528e-10
2.55239e-08
9.44537e-11
2.54377e-08
4.35257e-10
2.53844e-08
7.72348e-10
2.53737e-08
1.09346e-09
2.54132e-08
1.38623e-09
2.55079e-08
1.63887e-09
2.56583e-08
1.84098e-09
2.58592e-08
1.9846e-09
2.60986e-08
2.06537e-09
2.63577e-08
2.08366e-09
2.66139e-08
2.04531e-09
1.96111e-09
2.68451e-08
3.03175e-08
-5.20421e-10
3.03094e-08
-6.02244e-10
3.02935e-08
-6.93062e-10
3.02715e-08
-7.9141e-10
3.02464e-08
-8.95473e-10
3.0222e-08
-1.00346e-09
3.02023e-08
-1.11397e-09
3.01914e-08
-1.22621e-09
3.01926e-08
-1.34011e-09
3.02087e-08
-1.45626e-09
3.02414e-08
-1.57576e-09
3.0292e-08
-1.70001e-09
3.03608e-08
-1.83041e-09
3.0448e-08
-1.96814e-09
3.0553e-08
-2.11379e-09
3.06755e-08
-2.26694e-09
3.08146e-08
-2.42581e-09
3.09699e-08
-2.58684e-09
3.1141e-08
-2.74462e-09
3.13276e-08
-2.89273e-09
3.15289e-08
-3.02589e-09
3.17411e-08
-3.14741e-09
3.19284e-08
-2.84193e-09
3.20739e-08
-2.45813e-09
3.21737e-08
-2.15996e-09
3.22265e-08
-1.91552e-09
3.22337e-08
-1.69647e-09
3.21998e-08
-1.48061e-09
3.21315e-08
-1.25262e-09
3.20374e-08
-1.00394e-09
3.19276e-08
-7.31892e-10
3.18128e-08
-4.38582e-10
3.1704e-08
-1.29691e-10
3.16118e-08
1.86619e-10
3.15463e-08
5.00791e-10
3.15161e-08
8.02497e-10
3.15283e-08
1.08132e-09
3.1587e-08
1.32748e-09
3.16933e-08
1.53256e-09
3.18441e-08
1.69019e-09
3.2032e-08
1.79677e-09
3.22453e-08
1.85207e-09
3.24695e-08
1.85941e-09
3.26893e-08
1.82547e-09
1.75928e-09
3.28912e-08
3.89342e-08
-5.18138e-10
3.89256e-08
-5.93619e-10
3.89103e-08
-6.77754e-10
3.88888e-08
-7.69945e-10
3.88626e-08
-8.69277e-10
3.88339e-08
-9.74709e-10
3.88052e-08
-1.08531e-09
3.87794e-08
-1.20045e-09
3.87593e-08
-1.31996e-09
3.87472e-08
-1.44414e-09
3.87451e-08
-1.57367e-09
3.87546e-08
-1.7095e-09
3.87768e-08
-1.8526e-09
3.88124e-08
-2.00375e-09
3.88618e-08
-2.16321e-09
3.89252e-08
-2.33035e-09
3.90026e-08
-2.50323e-09
3.90941e-08
-2.6783e-09
3.91996e-08
-2.85019e-09
3.93193e-08
-3.01234e-09
3.9452e-08
-3.15866e-09
3.95937e-08
-3.2891e-09
3.97184e-08
-2.96657e-09
3.9811e-08
-2.55078e-09
3.98661e-08
-2.21509e-09
3.98815e-08
-1.93087e-09
3.98582e-08
-1.67322e-09
3.98007e-08
-1.42305e-09
3.97157e-08
-1.16763e-09
3.9612e-08
-9.00247e-10
3.94995e-08
-6.19399e-10
3.93886e-08
-3.27664e-10
3.92895e-08
-3.05991e-11
3.92117e-08
2.6439e-10
3.91635e-08
5.49036e-10
3.91512e-08
8.14795e-10
3.91789e-08
1.05359e-09
3.92479e-08
1.25847e-09
3.93563e-08
1.42417e-09
3.9499e-08
1.54755e-09
3.96678e-08
1.62793e-09
3.98527e-08
1.66722e-09
4.00424e-08
1.66966e-09
4.02265e-08
1.6414e-09
1.58956e-09
4.03962e-08
4.93622e-08
-5.12876e-10
4.93518e-08
-5.83159e-10
4.93356e-08
-6.61589e-10
4.93137e-08
-7.48071e-10
4.92867e-08
-8.42273e-10
4.92557e-08
-9.43717e-10
4.92223e-08
-1.0519e-09
4.91883e-08
-1.16644e-09
4.91556e-08
-1.28721e-09
4.91258e-08
-1.4144e-09
4.91006e-08
-1.54846e-09
4.90812e-08
-1.69008e-09
4.90685e-08
-1.83994e-09
4.90634e-08
-1.99858e-09
4.90662e-08
-2.16606e-09
4.90775e-08
-2.34161e-09
4.90975e-08
-2.52326e-09
4.91267e-08
-2.70746e-09
4.91654e-08
-2.88888e-09
4.92137e-08
-3.06072e-09
4.92709e-08
-3.21585e-09
4.93325e-08
-3.35067e-09
4.93844e-08
-3.01842e-09
4.94148e-08
-2.5812e-09
4.9417e-08
-2.21735e-09
4.93882e-08
-1.90206e-09
4.93293e-08
-1.61429e-09
4.92444e-08
-1.3382e-09
4.91404e-08
-1.06361e-09
4.90257e-08
-7.85509e-10
4.89096e-08
-5.03299e-10
4.88016e-08
-2.19689e-10
4.87107e-08
6.03324e-11
4.86445e-08
3.30562e-10
4.86092e-08
5.84382e-10
4.86086e-08
8.15345e-10
4.86444e-08
1.01781e-09
4.87154e-08
1.18744e-09
4.88181e-08
1.32152e-09
4.89464e-08
1.41919e-09
4.90929e-08
1.48148e-09
4.92489e-08
1.51115e-09
4.94062e-08
1.51241e-09
4.95572e-08
1.49037e-09
1.45053e-09
4.96963e-08
6.18092e-08
-5.05681e-10
6.17976e-08
-5.71578e-10
6.17811e-08
-6.45063e-10
6.17593e-08
-7.26327e-10
6.17325e-08
-8.1541e-10
6.1701e-08
-9.12231e-10
6.16657e-08
-1.01664e-09
6.16278e-08
-1.1285e-09
6.15884e-08
-1.2478e-09
6.15486e-08
-1.37468e-09
6.15096e-08
-1.50946e-09
6.14722e-08
-1.65261e-09
6.14368e-08
-1.80457e-09
6.14039e-08
-1.96567e-09
6.13736e-08
-2.13577e-09
6.1346e-08
-2.31402e-09
6.13212e-08
-2.49846e-09
6.12993e-08
-2.68559e-09
6.12806e-08
-2.87015e-09
6.1265e-08
-3.04509e-09
6.12514e-08
-3.20224e-09
6.12351e-08
-3.33445e-09
6.12144e-08
-2.99773e-09
6.11819e-08
-2.54862e-09
6.11303e-08
-2.16582e-09
6.10569e-08
-1.82863e-09
6.09625e-08
-1.51987e-09
6.08512e-08
-1.22693e-09
6.07295e-08
-9.41918e-10
6.06052e-08
-6.61248e-10
6.04868e-08