/*--------------------------------*- C++ -*----------------------------------*\
| =========                 |                                                 |
| \\      /  F ield         | OpenFOAM: The Open Source CFD Toolbox           |
|  \\    /   O peration     | Version:  2312                                  |
|   \\  /    A nd           | Website:  www.openfoam.com                      |
|    \\/     M anipulation  |                                                 |
\*---------------------------------------------------------------------------*/
FoamFile
{
    version     2.0;
    format      ascii;
    arch        "LSB;label=32;scalar=64";
    class       volVectorField;
    location    "100";
    object      U;
}
// * * * * * * * * * * * * * * * * * * * * * * * * * * * * * * * * * * * * * //

dimensions      [0 1 -1 0 0 0 0];

internalField   nonuniform List<vector> 
4800
(
(0.000292255 9.5219e-08 -2.37905e-26)
(0.00028894 1.3503e-07 -1.69965e-25)
(0.000287661 1.65549e-07 2.17177e-25)
(0.00028773 1.83394e-07 1.02276e-25)
(0.000288818 1.89737e-07 1.53576e-24)
(0.000290693 1.83117e-07 -3.67158e-24)
(0.000293238 1.60812e-07 3.46163e-24)
(0.000296418 1.18035e-07 -5.06392e-24)
(0.000300283 4.48105e-08 1.60071e-24)
(0.000305028 -8.59993e-08 5.55851e-24)
(0.000311233 -3.74055e-07 -1.69333e-24)
(0.00032055 -1.19976e-06 -1.28128e-25)
(0.000337616 -3.69908e-06 -2.06476e-24)
(0.000379927 -1.61653e-05 9.34513e-25)
(0.000449243 -8.3966e-05 -7.24549e-25)
(0.000903908 8.23888e-07 -9.8603e-26)
(0.000893225 4.59858e-07 1.22668e-25)
(0.00088875 1.63718e-07 -1.15471e-24)
(0.000888352 -1.27964e-07 8.53112e-25)
(0.000890985 -4.40933e-07 2.8091e-24)
(0.000895942 -7.99063e-07 -4.48642e-24)
(0.000902844 -1.23854e-06 -1.31192e-24)
(0.000911564 -1.81533e-06 -3.38781e-25)
(0.000922225 -2.63626e-06 1.04095e-23)
(0.000935334 -3.9629e-06 -7.58454e-24)
(0.000952194 -6.56173e-06 8.06305e-25)
(0.000975789 -1.27284e-05 1.21027e-24)
(0.00101224 -2.84047e-05 -1.74563e-24)
(0.00107405 -6.77155e-05 -5.23155e-25)
(0.00114552 -0.000161514 2.10678e-24)
(0.00158046 2.71011e-06 -7.92914e-26)
(0.00156123 1.51896e-06 8.05802e-26)
(0.00155269 5.56805e-07 8.43221e-25)
(0.00155113 -3.6219e-07 -2.011e-24)
(0.00155468 -1.32606e-06 1.97791e-24)
(0.00156212 -2.40776e-06 1.88764e-24)
(0.00157277 -3.71237e-06 -4.82325e-24)
(0.00158634 -5.40044e-06 -2.99205e-24)
(0.00160295 -7.76558e-06 6.97866e-24)
(0.0016232 -1.14534e-05 2.60514e-24)
(0.00164852 -1.80464e-05 -8.7467e-24)
(0.00168138 -3.13233e-05 -1.31384e-24)
(0.00172481 -5.89154e-05 3.43736e-24)
(0.0017801 -0.000112794 5.25286e-24)
(0.00182737 -0.000203734 -2.60077e-24)
(0.00232667 6.18944e-06 3.31888e-26)
(0.0022976 3.57836e-06 -2.30748e-25)
(0.00228396 1.4755e-06 1.03284e-24)
(0.00228032 -4.99653e-07 1.12336e-24)
(0.00228392 -2.54494e-06 -1.07312e-24)
(0.00229296 -4.81389e-06 -6.31815e-24)
(0.00230638 -7.51474e-06 -4.32976e-24)
(0.00232367 -1.09564e-05 1.56523e-23)
(0.00234477 -1.56708e-05 6.405e-24)
(0.00237008 -2.27067e-05 -8.77155e-24)
(0.00240042 -3.42477e-05 -3.40921e-24)
(0.00243658 -5.45174e-05 -2.50329e-24)
(0.00247774 -9.00005e-05 5.6413e-26)
(0.00251896 -0.000146693 1.65704e-24)
(0.0025454 -0.00022262 7.76805e-27)
(0.00314632 1.17912e-05 -6.93824e-26)
(0.00310618 7.0218e-06 -4.22771e-25)
(0.0030863 3.18836e-06 -2.7559e-25)
(0.00307954 -3.5587e-07 7.07716e-25)
(0.0030821 -3.97241e-06 -2.03481e-24)
(0.00309157 -7.92795e-06 4.96823e-24)
(0.00310648 -1.2556e-05 -8.36079e-25)
(0.00312596 -1.83262e-05 2.96742e-24)
(0.00314962 -2.59836e-05 -1.57868e-23)
(0.00317734 -3.68218e-05 2.87155e-23)
(0.00320896 -5.31085e-05 -2.63806e-23)
(0.00324353 -7.83666e-05 1.31765e-23)
(0.00327793 -0.000116529 -1.15325e-23)
(0.00330606 -0.000168776 1.02133e-23)
(0.00331949 -0.000229245 -3.8694e-24)
(0.00404149 2.01629e-05 1.04658e-25)
(0.0039894 1.2366e-05 3.71592e-25)
(0.00396225 6.10627e-06 -1.93958e-24)
(0.00395124 4.06854e-07 -1.24054e-24)
(0.00395154 -5.31184e-06 3.17935e-24)
(0.00396011 -1.14602e-05 1.12721e-24)
(0.00397497 -1.85014e-05 -8.53881e-24)
(0.00399484 -2.70399e-05 1.95611e-23)
(0.00401884 -3.7937e-05 -2.42634e-23)
(0.00404622 -5.24806e-05 5.42667e-24)
(0.00407588 -7.25259e-05 1.57812e-23)
(0.00410579 -0.000100296 -2.05323e-23)
(0.00413233 -0.000137302 9.51278e-24)
(0.0041507 -0.000182278 9.2093e-24)
(0.00415707 -0.000229727 -6.60749e-24)
(0.00501136 3.20054e-05 9.85359e-26)
(0.00494727 2.02209e-05 -5.72686e-25)
(0.0049122 1.07587e-05 2.02058e-24)
(0.00489599 2.26517e-06 -2.73788e-24)
(0.00489286 -6.10189e-06 -9.13545e-24)
(0.00489913 -1.49203e-05 1.48777e-23)
(0.00491232 -2.47688e-05 -8.68315e-24)
(0.00493068 -3.63268e-05 2.81413e-23)
(0.00495284 -5.04401e-05 -1.78412e-23)
(0.00497745 -6.81609e-05 -7.83962e-24)
(0.00500282 -9.06693e-05 -1.44831e-23)
(0.00502661 -0.000118903 1.21881e-23)
(0.0050458 -0.00015278 3.18127e-24)
(0.00505741 -0.000190311 2.55668e-24)
(0.00506017 -0.000227536 -2.11254e-24)
(0.00605051 4.79121e-05 -1.6033e-25)
(0.00597591 3.11872e-05 2.12537e-24)
(0.00593316 1.77295e-05 -4.81309e-24)
(0.00591131 5.79562e-06 -3.88809e-24)
(0.00590387 -5.74016e-06 1.29543e-24)
(0.00590665 -1.76328e-05 2.51997e-24)
(0.0059167 -3.0547e-05 8.75407e-24)
(0.00593186 -4.51627e-05 -2.24308e-23)
(0.00595032 -6.21904e-05 -1.13457e-23)
(0.00597036 -8.23189e-05 2.81291e-23)
(0.00599009 -0.000106053 -8.16362e-24)
(0.00600741 -0.000133412 2.54919e-23)
(0.00602025 -0.000163572 -1.22824e-23)
(0.00602704 -0.000194693 -3.65234e-24)
(0.0060277 -0.000224256 2.03541e-24)
(0.00714696 6.80648e-05 -2.35829e-26)
(0.0070657 4.56418e-05 1.29759e-24)
(0.00701702 2.75063e-05 -1.76806e-24)
(0.00699009 1.15652e-05 4.10622e-24)
(0.00697818 -3.56895e-06 -2.32336e-23)
(0.00697679 -1.88149e-05 2.28578e-23)
(0.0069827 -3.48846e-05 -3.38963e-23)
(0.00699345 -5.23922e-05 1.8967e-23)
(0.00700699 -7.18449e-05 1.30743e-23)
(0.00702145 -9.35634e-05 2.6313e-23)
(0.00703508 -0.000117551 -3.12323e-23)
(0.00704624 -0.000143349 -5.40781e-24)
(0.0070537 -0.00016998 2.13554e-24)
(0.00705676 -0.000196055 1.48564e-23)
(0.00705581 -0.000220091 -5.70172e-24)
(0.00828062 9.17536e-05 1.40445e-25)
(0.00819953 6.33633e-05 -5.86517e-25)
(0.00814878 4.0185e-05 2.51436e-24)
(0.00811886 1.98933e-05 -8.3441e-24)
(0.00810344 9.21377e-07 1.18256e-23)
(0.00809815 -1.77663e-05 -1.41936e-23)
(0.00809973 -3.68859e-05 2.18831e-23)
(0.00810567 -5.69459e-05 3.67162e-24)
(0.00811389 -7.82459e-05 -2.51532e-23)
(0.00812264 -0.000100827 3.27944e-23)
(0.00813045 -0.00012442 -3.27891e-23)
(0.00813619 -0.000148436 -8.98513e-24)
(0.00813918 -0.000172045 1.42215e-23)
(0.00813918 -0.000194334 3.92557e-24)
(0.0081367 -0.000214484 -1.62041e-24)
(0.00942405 0.000116832 5.84542e-25)
(0.00935251 8.30384e-05 -4.80898e-24)
(0.00930572 5.50321e-05 -7.45062e-24)
(0.00927662 3.04671e-05 1.61497e-23)
(0.00926011 7.74536e-06 6.816e-24)
(0.0092524 -1.41968e-05 -3.88946e-23)
(0.00925056 -3.6034e-05 1.06337e-23)
(0.00925232 -5.81576e-05 6.96785e-24)
(0.00925581 -8.07055e-05 -2.827e-23)
(0.00925958 -0.000103565 2.61634e-23)
(0.00926252 -0.000126393 -1.95265e-23)
(0.0092639 -0.000148675 4.50875e-23)
(0.0092634 -0.00016983 -1.99571e-23)
(0.00926096 -0.000189334 1.08605e-23)
(0.00925709 -0.000206776 -2.81384e-24)
(0.0105482 0.00013958 -1.99389e-25)
(0.0104955 0.000101939 3.30654e-24)
(0.0104595 7.00913e-05 -6.09595e-24)
(0.0104362 4.19306e-05 -2.96179e-24)
(0.0104222 1.60129e-05 2.97727e-23)
(0.0104146 -8.6339e-06 -3.64038e-24)
(0.0104114 -3.25925e-05 -4.35263e-23)
(0.0104106 -5.61453e-05 4.58969e-23)
(0.0104109 -7.93348e-05 -9.11271e-24)
(0.0104112 -0.000102007 -2.9253e-23)
(0.0104107 -0.00012387 2.83813e-23)
(0.0104091 -0.000144569 1.42537e-23)
(0.0104063 -0.000163767 -1.05908e-23)
(0.0104022 -0.000181216 -1.73924e-23)
(0.0103973 -0.000196756 1.39433e-24)
(0.0116333 0.000155813 -4.25784e-26)
(0.0116042 0.000116448 -3.64057e-24)
(0.0115837 8.23629e-05 1.64664e-23)
(0.0115702 5.18593e-05 1.26639e-24)
(0.0115619 2.37851e-05 8.23307e-24)
(0.0115574 -2.63742e-06 -2.55777e-23)
(0.0115551 -2.78575e-05 1.99356e-23)
(0.011554 -5.20666e-05 4.32429e-24)
(0.0115531 -7.52686e-05 3.37416e-23)
(0.0115518 -9.73412e-05 -4.62403e-23)
(0.0115498 -0.000118098 -1.92645e-23)
(0.0115468 -0.000137348 -1.1898e-23)
(0.0115429 -0.000154949 2.02351e-23)
(0.0115382 -0.000170836 -5.69281e-25)
(0.011533 -0.00018499 1.7614e-24)
(0.0126782 0.000163471 -8.77677e-26)
(0.0126693 0.00012402 3.51919e-24)
(0.0126634 8.92302e-05 -4.65233e-24)
(0.0126603 5.7775e-05 -3.79737e-26)
(0.012659 2.8792e-05 5.54512e-24)
(0.0126588 1.71342e-06 1.29257e-23)
(0.012659 -2.37797e-05 -4.46623e-23)
(0.0126592 -4.7818e-05 3.03901e-24)
(0.0126587 -7.04092e-05 1.83587e-23)
(0.0126575 -9.14947e-05 -7.9132e-24)
(0.0126554 -0.000110998 1.94331e-23)
(0.0126523 -0.000128864 1.27746e-23)
(0.0126485 -0.000145081 -2.11792e-23)
(0.012644 -0.000159694 1.3758e-23)
(0.0126392 -0.000172764 -1.09114e-23)
(0.0136929 0.000164277 -2.4157e-24)
(0.0136954 0.000125284 1.75289e-24)
(0.0136985 9.05852e-05 5.2129e-24)
(0.0137021 5.91051e-05 -2.63932e-23)
(0.0137055 3.01706e-05 2.08381e-23)
(0.0137086 3.34966e-06 -1.43361e-23)
(0.013711 -2.16031e-05 8.99457e-24)
(0.0137125 -4.48062e-05 -5.98929e-23)
(0.0137129 -6.63052e-05 7.75452e-23)
(0.0137122 -8.61163e-05 -4.22567e-23)
(0.0137106 -0.000104258 3.45102e-23)
(0.0137081 -0.000120771 2.7308e-23)
(0.0137049 -0.000135726 -4.41518e-23)
(0.013701 -0.00014923 1.35404e-23)
(0.0136969 -0.000161382 -5.52568e-25)
(0.0146747 0.000161647 -8.22361e-26)
(0.0146813 0.000123232 9.27583e-25)
(0.0146875 8.89213e-05 -1.0437e-24)
(0.0146932 5.78523e-05 -6.96467e-25)
(0.0146981 2.94723e-05 8.09627e-24)
(0.0147019 3.41288e-06 -1.26342e-23)
(0.0147046 -2.0559e-05 1.08076e-23)
(0.0147062 -4.25914e-05 -3.15835e-23)
(0.0147067 -6.27884e-05 6.57752e-23)
(0.014706 -8.12398e-05 -7.77263e-23)
(0.0147045 -9.80391e-05 5.91868e-23)
(0.0147022 -0.000113292 -1.85988e-23)
(0.0146993 -0.00012712 9.84764e-25)
(0.0146958 -0.000139658 4.01841e-24)
(0.0146921 -0.000151022 -7.26378e-24)
(0.0155911 0.000157263 -6.54299e-24)
(0.0155993 0.000119957 1.20583e-23)
(0.0156061 8.65291e-05 -5.30767e-24)
(0.0156117 5.63353e-05 -2.48871e-24)
(0.0156161 2.89263e-05 1.11137e-23)
(0.0156192 3.97064e-06 -1.05116e-23)
(0.015621 -1.8774e-05 -9.37045e-24)
(0.0156217 -3.94952e-05 -2.12118e-23)
(0.0156214 -5.83517e-05 9.04505e-24)
(0.0156202 -7.54913e-05 4.36977e-23)
(0.0156182 -9.10587e-05 -2.15337e-23)
(0.0156155 -0.000105199 1.24785e-23)
(0.0156124 -0.000118059 -4.64017e-24)
(0.0156088 -0.000129786 -1.3926e-23)
(0.015605 -0.000140499 6.94886e-24)
(0.0163854 0.000150678 2.05918e-24)
(0.0163952 0.0001154 -3.3166e-24)
(0.0164026 8.36766e-05 -3.00097e-24)
(0.0164081 5.50618e-05 3.66845e-24)
(0.016412 2.9192e-05 -4.29715e-24)
(0.0164143 5.76674e-06 1.36947e-23)
(0.0164154 -1.54612e-05 -1.07985e-23)
(0.0164153 -3.47052e-05 -7.23793e-24)
(0.0164142 -5.21583e-05 5.8341e-24)
(0.0164123 -6.80005e-05 -7.10374e-24)
(0.0164098 -8.24023e-05 1.52592e-23)
(0.0164067 -9.55258e-05 7.7822e-24)
(0.0164032 -0.000107524 -2.72391e-23)
(0.0163993 -0.000118544 1.8204e-23)
(0.0163952 -0.000128697 -3.67534e-24)
(0.0169881 0.000141012 5.82677e-24)
(0.0169995 0.000108702 9.84548e-24)
(0.0170078 7.95607e-05 -1.89581e-23)
(0.0170137 5.3287e-05 -3.19193e-24)
(0.0170176 2.95772e-05 6.62877e-24)
(0.0170198 8.15627e-06 -3.01654e-24)
(0.0170205 -1.12176e-05 -7.21827e-24)
(0.0170201 -2.87639e-05 1.18129e-23)
(0.0170188 -4.46853e-05 1.50055e-23)
(0.0170166 -5.91697e-05 -3.44657e-23)
(0.0170139 -7.23905e-05 1.9204e-23)
(0.0170106 -8.45078e-05 -1.30831e-24)
(0.017007 -9.56675e-05 -1.11951e-24)
(0.017003 -0.000106006 1.48083e-24)
(0.0169987 -0.000115622 -6.76396e-25)
(0.0173155 0.000127939 -1.46585e-23)
(0.0173279 9.93761e-05 -2.97322e-23)
(0.0173369 7.35626e-05 1.23365e-23)
(0.0173433 5.02825e-05 4.59351e-23)
(0.0173474 2.92687e-05 -1.19537e-23)
(0.0173498 1.02707e-05 -4.38456e-24)
(0.0173506 -6.93642e-06 2.26017e-24)
(0.0173503 -2.25608e-05 -4.05595e-24)
(0.017349 -3.67957e-05 1.31727e-23)
(0.0173469 -4.98185e-05 -5.79469e-24)
(0.0173442 -6.17896e-05 4.6872e-24)
(0.017341 -7.28541e-05 -6.53677e-24)
(0.0173373 -8.3141e-05 -8.0218e-24)
(0.0173334 -9.27691e-05 1.186e-23)
(0.0173291 -0.000101819 -5.17642e-24)
(0.0172566 0.000112433 2.22706e-23)
(0.0172693 8.80201e-05 -4.60843e-23)
(0.0172785 6.59338e-05 6.52414e-24)
(0.0172851 4.59902e-05 5.69755e-23)
(0.0172894 2.79451e-05 -5.10617e-23)
(0.0172919 1.15752e-05 1.68037e-23)
(0.0172929 -3.31763e-06 1.09344e-23)
(0.0172927 -1.69184e-05 -2.29985e-23)
(0.0172915 -2.93996e-05 4.42855e-24)
(0.0172896 -4.09173e-05 3.01278e-24)
(0.017287 -5.16108e-05 -1.54878e-24)
(0.0172839 -6.16033e-05 3.6041e-24)
(0.0172803 -7.10029e-05 -4.3912e-24)
(0.0172765 -7.99078e-05 3.008e-24)
(0.0172722 -8.83844e-05 -1.39022e-24)
(0.0168092 9.68362e-05 1.33081e-23)
(0.0168218 7.63888e-05 -2.53789e-23)
(0.0168312 5.78694e-05 -1.61563e-23)
(0.0168379 4.10979e-05 6.9439e-23)
(0.0168424 2.58526e-05 -5.88891e-23)
(0.0168452 1.19416e-05 5.90734e-24)
(0.0168464 -8.03397e-07 8.55168e-24)
(0.0168465 -1.25387e-05 4.21162e-24)
(0.0168457 -2.34101e-05 2.77625e-24)
(0.016844 -3.35476e-05 -1.09548e-23)
(0.0168417 -4.30657e-05 6.8943e-24)
(0.0168388 -5.20648e-05 1.60626e-24)
(0.0168355 -6.06322e-05 -5.97849e-24)
(0.0168318 -6.88461e-05 2.99891e-24)
(0.0168276 -7.67621e-05 1.50321e-24)
(0.016084 8.25411e-05 3.232e-23)
(0.0160965 6.54986e-05 -5.22633e-23)
(0.0161059 5.00363e-05 9.8566e-24)
(0.0161129 3.59743e-05 -2.14332e-23)
(0.0161177 2.31165e-05 -2.53853e-23)
(0.0161208 1.13022e-05 8.13701e-23)
(0.0161225 3.92646e-07 -2.92952e-23)
(0.016123 -9.74147e-06 7.51049e-24)
(0.0161226 -1.92193e-05 -3.80246e-24)
(0.0161213 -2.8146e-05 -7.2163e-24)
(0.0161194 -3.66132e-05 1.17999e-23)
(0.0161168 -4.47005e-05 -4.24847e-24)
(0.0161137 -5.24774e-05 9.40862e-25)
(0.0161102 -6.00049e-05 -7.61782e-25)
(0.0161062 -6.73281e-05 2.22188e-25)
(0.0151622 6.94176e-05 1.22893e-23)
(0.0151746 5.52604e-05 -5.82894e-23)
(0.0151842 4.23915e-05 9.36368e-23)
(0.0151914 3.06309e-05 -6.64468e-23)
(0.0151966 1.98086e-05 6.14347e-23)
(0.0152001 9.79387e-06 -1.96572e-23)
(0.0152023 4.74294e-07 -1.26724e-23)
(0.0152033 -8.25551e-06 -1.24896e-23)
(0.0152032 -1.6492e-05 1.93242e-23)
(0.0152024 -2.43191e-05 -2.27254e-24)
(0.0152008 -3.18092e-05 -1.53282e-23)
(0.0151985 -3.90247e-05 -8.35729e-25)
(0.0151957 -4.60204e-05 1.62272e-24)
(0.0151923 -5.28433e-05 2.94144e-26)
(0.0151884 -5.95294e-05 -9.37474e-26)
(0.0141076 5.73644e-05 1.6264e-24)
(0.01412 4.56594e-05 -2.19775e-23)
(0.0141298 3.49959e-05 -1.12372e-23)
(0.0141373 2.51969e-05 8.74271e-23)
(0.0141429 1.61189e-05 -8.08612e-23)
(0.0141468 7.65973e-06 2.2374e-23)
(0.0141494 -2.69792e-07 3.51676e-24)
(0.0141508 -7.75451e-06 -1.70778e-24)
(0.0141512 -1.48713e-05 -7.16973e-24)
(0.0141507 -2.16861e-05 2.86371e-23)
(0.0141494 -2.82552e-05 -2.16146e-23)
(0.0141474 -3.46271e-05 -4.26266e-25)
(0.0141448 -4.08443e-05 1.31807e-24)
(0.0141415 -4.6943e-05 -1.48826e-26)
(0.0141375 -5.29516e-05 1.43299e-25)
(0.0129723 4.62549e-05 2.41485e-24)
(0.0129847 3.66467e-05 2.05198e-23)
(0.0129946 2.78713e-05 -2.23294e-23)
(0.0130024 1.97589e-05 -1.43746e-23)
(0.0130083 1.21939e-05 8.63074e-23)
(0.0130125 5.10023e-06 -6.3492e-23)
(0.0130154 -1.59167e-06 -1.56668e-24)
(0.0130171 -7.94949e-06 -1.154e-23)
(0.0130178 -1.40338e-05 -6.32744e-25)
(0.0130175 -1.98955e-05 1.69159e-24)
(0.0130164 -2.5578e-05 -4.12743e-24)
(0.0130145 -3.11188e-05 4.17884e-24)
(0.0130118 -3.6551e-05 1.61302e-24)
(0.0130084 -4.19022e-05 1.11685e-24)
(0.0130043 -4.7195e-05 1.46379e-25)
(0.0117982 3.6105e-05 1.71599e-23)
(0.0118103 2.83126e-05 -2.48913e-23)
(0.0118202 2.11757e-05 -1.86715e-23)
(0.011828 1.45366e-05 5.45179e-23)
(0.0118339 8.30744e-06 -1.88486e-23)
(0.0118382 2.43493e-06 -2.47376e-23)
(0.0118411 -3.13415e-06 8.51678e-24)
(0.0118429 -8.4537e-06 1.7349e-23)
(0.0118435 -1.35706e-05 -2.59155e-23)
(0.0118432 -1.85237e-05 2.41314e-23)
(0.0118419 -2.33459e-05 -1.1821e-23)
(0.0118398 -2.80662e-05 4.41046e-24)
(0.0118368 -3.27102e-05 -4.06711e-24)
(0.0118331 -3.72993e-05 3.14278e-24)
(0.0118285 -4.18513e-05 -3.61932e-25)
(0.0106175 2.70951e-05 -3.30597e-24)
(0.010629 2.089e-05 -1.08496e-23)
(0.0106384 1.51884e-05 -3.28408e-23)
(0.0106457 9.84885e-06 8.85142e-23)
(0.0106512 4.81036e-06 -1.56986e-23)
(0.0106552 3.8939e-08 -2.30785e-23)
(0.0106578 -4.50576e-06 7.38218e-24)
(0.0106592 -8.86609e-06 -1.05625e-23)
(0.0106595 -1.30775e-05 -2.07948e-23)
(0.0106588 -1.71689e-05 1.98362e-23)
(0.010657 -2.11652e-05 9.30876e-25)
(0.0106544 -2.50885e-05 -4.51741e-24)
(0.0106508 -2.89587e-05 5.17255e-24)
(0.0106464 -3.27922e-05 9.32161e-26)
(0.0106412 -3.66035e-05 -1.54806e-25)
(0.00945393 1.94589e-05 1.25258e-23)
(0.00946431 1.46377e-05 1.74972e-23)
(0.00947263 1.0188e-05 -1.61043e-23)
(0.00947907 5.98879e-06 -3.32306e-23)
(0.0094838 2.00454e-06 4.30288e-23)
(0.00948705 -1.78332e-06 -4.53741e-23)
(0.00948897 -5.40531e-06 -1.1698e-24)
(0.00948969 -8.89359e-06 1.65916e-23)
(0.00948929 -1.2274e-05 5.4813e-24)
(0.00948784 -1.55675e-05 -1.01096e-23)
(0.00948539 -1.87928e-05 8.35899e-25)
(0.00948199 -2.19664e-05 1.76328e-23)
(0.00947766 -2.51038e-05 -6.58347e-24)
(0.00947244 -2.82179e-05 -1.27214e-24)
(0.0094663 -3.13204e-05 -4.34358e-26)
(0.00832425 1.33402e-05 -1.26639e-23)
(0.00833306 9.70314e-06 1.58369e-23)
(0.00834002 6.32318e-06 1.67203e-24)
(0.00834524 3.10348e-06 2.96079e-23)
(0.00834888 3.19027e-08 -2.39077e-23)
(0.00835114 -2.89879e-06 1.60262e-24)
(0.00835215 -5.71133e-06 -2.61464e-24)
(0.00835199 -8.42902e-06 -6.8398e-24)
(0.00835075 -1.10699e-05 5.33744e-24)
(0.00834847 -1.3649e-05 -1.69726e-23)
(0.00834522 -1.618e-05 1.70323e-24)
(0.00834101 -1.86753e-05 3.98049e-24)
(0.00833587 -2.11467e-05 2.17394e-24)
(0.00832983 -2.36043e-05 7.04678e-25)
(0.00832287 -2.60581e-05 1.32308e-25)
(0.00724056 8.7183e-06 9.00111e-24)
(0.00724762 6.06239e-06 -6.99968e-24)
(0.00725305 3.56757e-06 -2.95405e-23)
(0.00725693 1.16409e-06 2.72876e-23)
(0.0072594 -1.1408e-06 3.65557e-23)
(0.00726061 -3.34714e-06 -9.64598e-24)
(0.00726065 -5.47138e-06 -1.83317e-23)
(0.00725961 -7.52968e-06 -2.42043e-23)
(0.00725754 -9.53436e-06 1.78498e-23)
(0.0072545 -1.1496e-05 8.42756e-25)
(0.00725051 -1.34245e-05 -3.60062e-24)
(0.0072456 -1.53291e-05 -7.51863e-25)
(0.00723979 -1.72186e-05 1.59008e-24)
(0.00723311 -1.91012e-05 -1.45493e-25)
(0.00722553 -2.09852e-05 -1.59812e-25)
(0.00621154 5.42289e-06 -5.35136e-24)
(0.00621688 3.54888e-06 -3.6702e-24)
(0.00622084 1.76069e-06 4.52749e-24)
(0.00622345 1.60391e-08 -1.36568e-23)
(0.00622483 -1.66404e-06 4.41834e-23)
(0.00622507 -3.2764e-06 -5.71718e-23)
(0.00622427 -4.83291e-06 5.47262e-23)
(0.00622248 -6.34451e-06 -2.27672e-23)
(0.00621975 -7.81952e-06 4.80739e-24)
(0.00621612 -9.2654e-06 -1.98561e-25)
(0.0062116 -1.06891e-05 -3.67111e-24)
(0.00620623 -1.20974e-05 8.26219e-25)
(0.00620002 -1.34967e-05 -2.26338e-24)
(0.00619297 -1.48936e-05 -1.95344e-25)
(0.00618509 -1.62953e-05 7.55906e-26)
(0.00524318 3.19965e-06 -2.41822e-24)
(0.00524699 1.92393e-06 6.30957e-25)
(0.00524967 6.81321e-07 1.31566e-24)
(0.00525121 -5.46275e-07 -5.88893e-24)
(0.00525168 -1.73101e-06 -2.51095e-24)
(0.00525117 -2.86982e-06 2.21796e-23)
(0.00524973 -3.97154e-06 -1.28924e-23)
(0.00524742 -5.04349e-06 1.74151e-24)
(0.00524426 -6.09128e-06 -1.70249e-24)
(0.00524029 -7.12002e-06 -1.68501e-24)
(0.00523553 -8.13452e-06 -3.57902e-25)
(0.00522999 -9.13946e-06 2.7972e-24)
(0.00522369 -1.01396e-05 3.3706e-25)
(0.00521663 -1.11399e-05 -1.3404e-24)
(0.0052088 -1.21466e-05 -1.22778e-25)
(0.00433913 1.77827e-06 -8.06502e-25)
(0.0043417 9.43025e-07 -2.55092e-25)
(0.00434336 1.0989e-07 -1.25792e-23)
(0.00434407 -7.21651e-07 3.44249e-24)
(0.00434388 -1.52382e-06 -8.59209e-24)
(0.00434285 -2.29559e-06 6.31667e-24)
(0.00434102 -3.04363e-06 1.13412e-23)
(0.00433844 -3.77272e-06 8.09567e-24)
(0.00433513 -4.48655e-06 -1.11028e-23)
(0.00433111 -5.18851e-06 3.33282e-24)
(0.00432639 -5.88175e-06 2.54743e-24)
(0.00432099 -6.56946e-06 -3.28861e-24)
(0.00431492 -7.25493e-06 1.72902e-24)
(0.00430818 -7.94185e-06 2.50418e-26)
(0.00430076 -8.63531e-06 2.18135e-25)
(0.00350104 9.18189e-07 -2.86572e-24)
(0.00350267 3.95896e-07 -3.84828e-24)
(0.00350357 -1.37297e-07 -6.23088e-25)
(0.0035037 -6.72766e-07 9.45043e-24)
(0.00350309 -1.18783e-06 -6.54238e-24)
(0.00350178 -1.68379e-06 -1.16243e-24)
(0.00349981 -2.16542e-06 1.0174e-23)
(0.00349721 -2.63573e-06 -9.23942e-26)
(0.003494 -3.09701e-06 -2.05886e-24)
(0.00349018 -3.55137e-06 -6.73972e-24)
(0.00348578 -4.00076e-06 9.96091e-25)
(0.0034808 -4.44723e-06 4.15228e-24)
(0.00347524 -4.89292e-06 -5.18192e-25)
(0.00346912 -5.3404e-06 -3.22059e-25)
(0.00346241 -5.79353e-06 1.77653e-25)
(0.00272882 4.28478e-07 -5.64355e-25)
(0.00272977 1.20509e-07 3.82849e-26)
(0.00273016 -1.98907e-07 4.12762e-24)
(0.00272994 -5.1989e-07 2.67736e-24)
(0.00272912 -8.27171e-07 -1.93517e-24)
(0.00272775 -1.12343e-06 -4.55676e-24)
(0.00272586 -1.41175e-06 1.77666e-24)
(0.00272345 -1.69387e-06 -7.28799e-24)
(0.00272054 -1.97112e-06 5.57855e-24)
(0.00271715 -2.24471e-06 2.62681e-24)
(0.00271329 -2.51573e-06 -1.90408e-25)
(0.00270895 -2.78541e-06 -2.62837e-24)
(0.00270415 -3.05504e-06 4.0041e-25)
(0.00269888 -3.3262e-06 -2.17269e-25)
(0.00269314 -3.60149e-06 8.3493e-26)
(0.00202101 1.69471e-07 -9.33931e-25)
(0.0020215 1.17319e-09 2.75662e-26)
(0.00202158 -1.72384e-07 2.98667e-24)
(0.00202118 -3.45436e-07 -1.86183e-24)
(0.00202034 -5.0992e-07 7.44188e-24)
(0.00201909 -6.6862e-07 -1.34535e-23)
(0.00201743 -8.23275e-07 1.0737e-23)
(0.00201539 -9.74814e-07 -8.74431e-24)
(0.00201297 -1.12394e-06 6.09441e-24)
(0.00201017 -1.27127e-06 -3.74589e-24)
(0.00200701 -1.41738e-06 1.26158e-24)
(0.00200349 -1.56292e-06 1.68775e-25)
(0.00199961 -1.70862e-06 1.96134e-25)
(0.00199538 -1.8553e-06 -2.22475e-25)
(0.00199077 -2.00432e-06 3.12612e-26)
(0.0013751 4.75405e-08 1.27558e-24)
(0.00137529 -3.33608e-08 1.3534e-24)
(0.00137521 -1.12635e-07 -5.79916e-24)
(0.00137479 -1.90285e-07 4.20624e-24)
(0.00137407 -2.63466e-07 -5.51241e-26)
(0.00137306 -3.34097e-07 1.02157e-24)
(0.00137177 -4.02959e-07 -1.28597e-24)
(0.00137021 -4.70469e-07 -2.54684e-24)
(0.00136839 -5.36931e-07 2.48162e-24)
(0.00136632 -6.02617e-07 2.07363e-25)
(0.00136398 -6.67781e-07 -1.76595e-24)
(0.00136139 -7.32717e-07 6.4095e-25)
(0.00135855 -7.97784e-07 3.10901e-25)
(0.00135546 -8.63276e-07 -4.24356e-26)
(0.00135211 -9.29558e-07 -1.90006e-26)
(0.000787837 7.29888e-09 -1.16424e-24)
(0.00078786 -9.03145e-09 3.53729e-24)
(0.000787722 -2.40807e-08 2.05601e-24)
(0.00078739 -4.10925e-08 -3.75324e-24)
(0.000786885 -5.92654e-08 -4.37045e-25)
(0.000786216 -7.89556e-08 -3.78143e-25)
(0.000785386 -9.99857e-08 1.11814e-24)
(0.0007844 -1.22144e-07 -1.85736e-24)
(0.000783262 -1.45239e-07 2.43085e-24)
(0.000781972 -1.69116e-07 -1.19343e-24)
(0.000780533 -1.93655e-07 -7.00109e-25)
(0.000778945 -2.18777e-07 3.98227e-25)
(0.000777209 -2.44476e-07 -3.65268e-25)
(0.000775325 -2.70656e-07 3.30696e-25)
(0.000773287 -2.9695e-07 -3.7315e-26)
(0.000255511 3.35317e-08 -6.41771e-27)
(0.00025544 9.12954e-08 5.28213e-25)
(0.000255324 1.3536e-07 5.90106e-25)
(0.000255148 1.64823e-07 -9.3817e-25)
(0.000254923 1.81684e-07 1.87626e-24)
(0.000254649 1.87976e-07 -2.03818e-24)
(0.000254327 1.85458e-07 1.27086e-25)
(0.000253957 1.75645e-07 1.0294e-24)
(0.00025354 1.59842e-07 -1.41791e-24)
(0.000253075 1.39164e-07 -2.16875e-25)
(0.000252562 1.14565e-07 8.4781e-25)
(0.000252002 8.68711e-08 -3.59388e-25)
(0.000251394 5.67501e-08 -9.20432e-26)
(0.000250739 2.48766e-08 7.07074e-26)
(0.000250032 -7.91081e-09 -1.53765e-27)
(0.000664054 -0.000240188 8.25714e-26)
(0.000765178 -0.000200065 2.21996e-24)
(0.000927949 -0.000147983 -6.57313e-24)
(0.00109817 -0.000103526 9.87119e-24)
(0.00126496 -6.78119e-05 -3.75879e-24)
(0.00142966 -4.03987e-05 -3.78112e-24)
(0.00159268 -2.01028e-05 4.39583e-24)
(0.00175448 -5.8315e-06 -8.88543e-24)
(0.00191557 3.36166e-06 5.24692e-25)
(0.00207638 8.31578e-06 5.75161e-24)
(0.00223728 9.77579e-06 -1.11644e-24)
(0.0023986 8.41431e-06 1.22246e-24)
(0.00256064 4.85509e-06 -1.15996e-25)
(0.00272367 -3.00184e-07 7.8821e-25)
(0.00288797 -6.44167e-06 -2.90525e-24)
(0.00305385 -1.29244e-05 1.60087e-24)
(0.00322173 -1.90505e-05 -5.03071e-25)
(0.00339219 -2.40899e-05 4.07348e-26)
(0.00356604 -2.73618e-05 1.15334e-24)
(0.00374429 -2.8463e-05 -7.16493e-25)
(0.00392813 -2.76889e-05 7.94863e-26)
(0.00411807 -2.6806e-05 -6.69235e-26)
(0.00429876 -2.98378e-05 1.07473e-25)
(0.0044508 -4.03185e-05 3.71072e-25)
(0.00457017 -5.9397e-05 -6.67813e-25)
(0.00465757 -8.6506e-05 -4.06189e-25)
(0.00471346 -0.000119719 3.58479e-26)
(0.00473851 -0.000156143 9.61324e-25)
(0.00473378 -0.000192211 1.21317e-24)
(0.00470073 -0.000223955 -2.35042e-24)
(0.00464118 -0.000247213 1.76885e-24)
(0.00455726 -0.000257774 -1.45651e-24)
(0.00445123 -0.000251416 3.08411e-25)
(0.0043254 -0.000223843 -3.87935e-25)
(0.0041821 -0.00017051 3.61588e-25)
(0.00402361 -8.63154e-05 3.13172e-24)
(0.00385213 3.47447e-05 -8.47595e-25)
(0.00366976 0.000199698 7.12693e-25)
(0.00347816 0.000415868 2.39829e-25)
(0.00327783 0.000688437 -4.03681e-24)
(0.00306695 0.00101501 -4.38061e-26)
(0.00284076 0.00137585 1.15377e-24)
(0.00259284 0.00171775 -1.19971e-25)
(0.00232324 0.00192997 -1.11848e-24)
(0.00218919 0.00177198 -5.53278e-27)
(0.00121832 -0.000287574 -2.56413e-24)
(0.00126094 -0.000279776 -3.84813e-24)
(0.00136165 -0.000234531 8.03113e-24)
(0.00149067 -0.000186505 3.98583e-24)
(0.00163072 -0.000143946 -1.42531e-23)
(0.00177667 -0.000109231 1.56992e-23)
(0.0019257 -8.21325e-05 -5.74719e-24)
(0.00207644 -6.17359e-05 4.77399e-24)
(0.00222837 -4.70744e-05 -6.3822e-24)
(0.00238129 -3.72389e-05 6.75414e-26)
(0.00253521 -3.14092e-05 -3.54854e-24)
(0.0026902 -2.88457e-05 7.10697e-24)
(0.00284638 -2.88688e-05 -3.98382e-24)
(0.00300392 -3.08319e-05 -3.66343e-24)
(0.00316299 -3.40911e-05 -2.49736e-24)
(0.00332384 -3.79782e-05 4.71627e-24)
(0.00348681 -4.17829e-05 -5.74661e-25)
(0.0036524 -4.47707e-05 2.4948e-24)
(0.0038213 -4.62598e-05 3.62176e-25)
(0.00399445 -4.58379e-05 -7.39162e-25)
(0.00417288 -4.37505e-05 -2.87067e-25)
(0.00435708 -4.16521e-05 -1.4483e-25)
(0.00453216 -4.33805e-05 6.51548e-25)
(0.00467948 -5.22512e-05 6.78437e-25)
(0.00479524 -6.92379e-05 -6.79669e-25)
(0.00488018 -9.36654e-05 -2.80292e-24)
(0.00493475 -0.000123581 3.63603e-24)
(0.00495965 -0.000156116 -2.40878e-24)
(0.00495591 -0.000187769 7.90252e-25)
(0.00492504 -0.000214656 -4.02291e-25)
(0.00486892 -0.000232712 2.81258e-24)
(0.00478977 -0.000237818 -3.29231e-24)
(0.00469003 -0.000225841 1.0832e-24)
(0.00457233 -0.000192572 1.72789e-24)
(0.00443942 -0.000133564 -3.77183e-24)
(0.00429428 -4.38439e-05 1.10081e-24)
(0.00414016 8.2451e-05 5.62339e-24)
(0.00398084 0.000252239 -1.60528e-24)
(0.00382088 0.000473001 -4.11585e-24)
(0.0036656 0.000750677 -2.01419e-24)
(0.00352131 0.00108428 4.272e-24)
(0.00339623 0.00145496 -2.93407e-24)
(0.00330311 0.00180631 1.21114e-24)
(0.00325322 0.00201474 1.21883e-24)
(0.00328697 0.00185658 -1.07982e-24)
(0.00184909 -0.000299106 -3.02802e-26)
(0.00185809 -0.000318116 -4.61986e-24)
(0.00190622 -0.000294163 9.07613e-24)
(0.00198883 -0.000254933 8.02288e-24)
(0.00209328 -0.000213384 -1.33509e-23)
(0.00221202 -0.000175806 2.68449e-25)
(0.0023399 -0.000144302 1.39459e-24)
(0.00247371 -0.000119056 1.57575e-23)
(0.00261163 -9.95839e-05 -1.90333e-23)
(0.00275263 -8.51804e-05 1.20515e-23)
(0.00289613 -7.50989e-05 3.79144e-24)
(0.00304182 -6.86166e-05 -2.08859e-23)
(0.00318955 -6.50459e-05 7.63702e-24)
(0.00333927 -6.37233e-05 3.11406e-24)
(0.00349103 -6.39879e-05 -6.5981e-24)
(0.00364495 -6.51587e-05 1.08062e-23)
(0.00380125 -6.65183e-05 -7.67189e-24)
(0.00396032 -6.7332e-05 -1.24507e-25)
(0.00412275 -6.69174e-05 6.30399e-25)
(0.00428932 -6.48528e-05 6.50953e-25)
(0.00446094 -6.13316e-05 1.0981e-25)
(0.00463798 -5.78937e-05 3.2026e-25)
(0.00480619 -5.81957e-05 -7.14444e-25)
(0.00494771 -6.53406e-05 2.03074e-24)
(0.005059 -8.01233e-05 -2.98573e-24)
(0.00514078 -0.000101754 1.66641e-24)
(0.00519352 -0.000128241 -3.46334e-24)
(0.00521792 -0.000156731 4.59048e-24)
(0.00521502 -0.000183775 -3.82227e-24)
(0.00518634 -0.000205572 4.20367e-25)
(0.00513383 -0.000218151 4.08533e-25)
(0.00505984 -0.000217503 4.35177e-24)
(0.004967 -0.000199615 -1.26687e-24)
(0.00485826 -0.000160426 8.57079e-25)
(0.00473686 -9.56933e-05 -3.43995e-24)
(0.00460647 -7.5693e-07 6.84367e-24)
(0.00447143 0.000129734 -4.73152e-24)
(0.00433721 0.000301903 6.60652e-24)
(0.00421096 0.000522145 -1.17478e-23)
(0.00410211 0.000794993 4.28902e-24)
(0.00402288 0.00111756 1.163e-24)
(0.00398808 0.00146814 4.96066e-25)
(0.00401261 0.0017877 -4.50089e-25)
(0.00409464 0.00196023 -1.11998e-24)
(0.00420318 0.00183062 1.02673e-24)
(0.00254837 -0.000295511 -1.11307e-24)
(0.00254087 -0.000328693 -1.91978e-24)
(0.00255366 -0.000326198 -8.7764e-24)
(0.00259522 -0.000302525 2.16736e-24)
(0.00266183 -0.000269281 1.49261e-24)
(0.00274809 -0.000234457 7.50267e-24)
(0.00284884 -0.000202338 -1.66831e-23)
(0.00296 -0.000174678 6.42613e-24)
(0.00307879 -0.00015193 2.27503e-23)
(0.00320333 -0.000133912 -6.13654e-24)
(0.00333242 -0.00012016 -5.98173e-24)
(0.00346526 -0.0001101 -9.79929e-25)
(0.00360136 -0.000103118 3.30271e-24)
(0.00374042 -9.85879e-05 -6.57569e-24)
(0.00388227 -9.58663e-05 1.52682e-24)
(0.00402687 -9.42823e-05 -5.70392e-25)
(0.00417431 -9.31282e-05 -3.32249e-24)
(0.00432482 -9.16799e-05 1.31438e-24)
(0.00447884 -8.92635e-05 5.74007e-24)
(0.004637 -8.54532e-05 -7.39856e-25)
(0.00480004 -8.03934e-05 -1.2309e-24)
(0.00496823 -7.55069e-05 -2.90937e-25)
(0.00512797 -7.42631e-05 -1.40927e-24)
(0.00526237 -7.95467e-05 5.30477e-26)
(0.00536808 -9.19676e-05 -2.80943e-24)
(0.00544581 -0.000110617 4.97028e-24)
(0.00549604 -0.000133464 -3.87801e-24)
(0.00551943 -0.000157677 7.2484e-24)
(0.00551705 -0.000179875 -5.83994e-24)
(0.00549045 -0.000196358 1.37599e-24)
(0.00544166 -0.000203286 2.11396e-24)
(0.00537313 -0.000196803 -1.17611e-25)
(0.00528773 -0.000173085 -2.00316e-25)
(0.00518872 -0.000128318 -4.2951e-25)
(0.00507981 -5.86091e-05 3.49262e-25)
(0.00496534 4.01588e-05 -2.09983e-24)
(0.00485059 0.000172463 9.53337e-24)
(0.00474236 0.000343043 -5.01837e-24)