/*--------------------------------*- C++ -*----------------------------------*\
| =========                 |                                                 |
| \\      /  F ield         | OpenFOAM: The Open Source CFD Toolbox           |
|  \\    /   O peration     | Version:  2312                                  |
|   \\  /    A nd           | Website:  www.openfoam.com                      |
|    \\/     M anipulation  |                                                 |
\*---------------------------------------------------------------------------*/
FoamFile
{
    version     2.0;
    format      ascii;
    arch        "LSB;label=32;scalar=64";
    class       volScalarField;
    location    "187.75";
    object      p;
}
// * * * * * * * * * * * * * * * * * * * * * * * * * * * * * * * * * * * * * //

dimensions      [0 2 -2 0 0 0 0];

internalField   nonuniform List<scalar> 
4800
(
6.1772e-14
-1.77879e-06
-3.25518e-06
-4.49574e-06
-5.54827e-06
-6.44893e-06
-7.22583e-06
-7.90068e-06
-8.49752e-06
-9.02694e-06
-9.49857e-06
-9.91819e-06
-1.02815e-05
-1.08188e-05
-1.24872e-05
2.00745e-08
-1.75452e-06
-3.22808e-06
-4.46706e-06
-5.5191e-06
-6.42066e-06
-7.20006e-06
-7.87945e-06
-8.48303e-06
-9.02288e-06
-9.51384e-06
-9.97563e-06
-1.04255e-05
-1.0972e-05
-1.18677e-05
4.15876e-08
-1.72849e-06
-3.19912e-06
-4.43654e-06
-5.48828e-06
-6.39063e-06
-7.17256e-06
-7.8541e-06
-8.46227e-06
-9.01002e-06
-9.51238e-06
-9.99023e-06
-1.04553e-05
-1.09189e-05
-1.13625e-05
6.3893e-08
-1.70103e-06
-3.1682e-06
-4.40358e-06
-5.45445e-06
-6.35687e-06
-7.14002e-06
-7.82319e-06
-8.43198e-06
-8.9814e-06
-9.48235e-06
-9.9466e-06
-1.03699e-05
-1.07234e-05
-1.094e-05
8.87459e-08
-1.67002e-06
-3.13293e-06
-4.36547e-06
-5.41462e-06
-6.31605e-06
-7.09848e-06
-7.78203e-06
-8.38692e-06
-8.92954e-06
-9.41571e-06
-9.84603e-06
-1.02051e-05
-1.04562e-05
-1.05459e-05
1.1763e-07
-1.63385e-06
-3.09147e-06
-4.32016e-06
-5.36639e-06
-6.26527e-06
-7.04459e-06
-7.72435e-06
-8.32076e-06
-8.84742e-06
-9.3059e-06
-9.68957e-06
-9.98024e-06
-1.015e-05
-1.01719e-05
1.52552e-07
-1.59044e-06
-3.04154e-06
-4.26499e-06
-5.30661e-06
-6.20063e-06
-6.97356e-06
-7.64415e-06
-8.22593e-06
-8.72798e-06
-9.14905e-06
-9.48078e-06
-9.70934e-06
-9.82106e-06
-9.81e-06
1.96861e-07
-1.53636e-06
-2.97945e-06
-4.19584e-06
-5.2305e-06
-6.11653e-06
-6.87884e-06
-7.5345e-06
-8.09467e-06
-8.56503e-06
-8.94393e-06
-9.22562e-06
-9.40392e-06
-9.47771e-06
-9.45313e-06
2.55548e-07
-1.46647e-06
-2.89969e-06
-4.10665e-06
-5.13132e-06
-6.00547e-06
-6.75228e-06
-7.38724e-06
-7.91973e-06
-8.35443e-06
-8.69144e-06
-8.93e-06
-9.0715e-06
-9.12311e-06
-9.09624e-06
3.35008e-07
-1.37389e-06
-2.79477e-06
-3.98928e-06
-5.00025e-06
-5.85809e-06
-6.58443e-06
-7.19371e-06
-7.69486e-06
-8.09346e-06
-8.39299e-06
-8.59793e-06
-8.71529e-06
-8.75662e-06
-8.73464e-06
4.4214e-07
-1.25058e-06
-2.65564e-06
-3.83383e-06
-4.82679e-06
-5.66373e-06
-6.36523e-06
-6.94556e-06
-7.41456e-06
-7.78e-06
-8.04923e-06
-8.23072e-06
-8.33489e-06
-8.37485e-06
-8.36279e-06
5.83283e-07
-1.08831e-06
-2.47258e-06
-3.62954e-06
-4.59973e-06
-5.41146e-06
-6.08502e-06
-6.63541e-06
-7.07433e-06
-7.4122e-06
-7.65935e-06
-7.827e-06
-7.92697e-06
-7.97228e-06
-7.9739e-06
7.63476e-07
-8.79324e-07
-2.23597e-06
-3.36571e-06
-4.30813e-06
-5.09111e-06
-5.73532e-06
-6.25711e-06
-6.67023e-06
-6.98738e-06
-7.22085e-06
-7.38308e-06
-7.48605e-06
-7.54177e-06
-7.55992e-06
9.85609e-07
-6.17036e-07
-1.93677e-06
-3.03213e-06
-3.94182e-06
-4.69352e-06
-5.30865e-06
-5.80495e-06
-6.19784e-06
-6.50142e-06
-6.72883e-06
-6.89265e-06
-7.00426e-06
-7.07442e-06
-7.11149e-06
1.25077e-06
-2.97087e-07
-1.56764e-06
-2.61995e-06
-3.49178e-06
-4.21039e-06
-4.79775e-06
-5.27253e-06
-5.65091e-06
-5.94746e-06
-6.17522e-06
-6.34618e-06
-6.47075e-06
-6.55839e-06
-6.61633e-06
1.55967e-06
8.25612e-08
-1.12433e-06
-2.12333e-06
-2.95137e-06
-3.63493e-06
-4.19582e-06
-4.65264e-06
-5.0214e-06
-5.31612e-06
-5.5491e-06
-5.73128e-06
-5.87198e-06
-5.97941e-06
-6.05987e-06
1.90823e-06
5.24259e-07
-6.05114e-07
-1.54065e-06
-2.31798e-06
-2.96334e-06
-3.49776e-06
-3.93873e-06
-4.30098e-06
-4.59726e-06
-4.8386e-06
-5.03467e-06
-5.19362e-06
-5.3225e-06
-5.42682e-06
2.27925e-06
1.02209e-06
-1.51831e-08
-8.76388e-07
-1.59502e-06
-2.19724e-06
-2.70301e-06
-3.12778e-06
-3.48416e-06
-3.783e-06
-4.03374e-06
-4.24463e-06
-4.42262e-06
-4.5737e-06
-4.70266e-06
2.65112e-06
1.55019e-06
6.26555e-07
-1.46915e-07
-7.97539e-07
-1.34983e-06
-1.82205e-06
-2.22719e-06
-2.57525e-06
-2.87479e-06
-3.13336e-06
-3.35765e-06
-3.5534e-06
-3.72561e-06
-3.87842e-06
3.01552e-06
2.08228e-06
1.29175e-06
6.21212e-07
4.82332e-08
-4.47269e-07
-8.80124e-07
-1.26052e-06
-1.59595e-06
-1.89264e-06
-2.15615e-06
-2.39152e-06
-2.6032e-06
-2.79513e-06
-2.97075e-06
3.33913e-06
2.57392e-06
1.91976e-06
1.35478e-06
8.61319e-07
4.25053e-07
3.52549e-08
-3.15599e-07
-6.32944e-07
-9.21161e-07
-1.18418e-06
-1.4256e-06
-1.64875e-06
-1.85656e-06
-2.0517e-06
3.59117e-06
2.96885e-06
2.42748e-06
1.95064e-06
1.52526e-06
1.14123e-06
7.91015e-07
4.69229e-07
1.71937e-07
-1.04032e-07
-3.61543e-07
-6.03225e-07
-8.31519e-07
-1.04858e-06
-1.25646e-06
3.78984e-06
3.27317e-06
2.81486e-06
2.40297e-06
2.02801e-06
1.68285e-06
1.3622e-06
1.06225e-06
7.80071e-07
5.13241e-07
2.59583e-07
1.71317e-08
-2.15934e-07
-4.41203e-07
-6.60203e-07
3.94186e-06
3.50136e-06
3.10265e-06
2.73741e-06
2.39893e-06
2.0822e-06
1.78348e-06
1.49988e-06
1.22909e-06
9.69159e-07
7.18349e-07
4.75148e-07
2.38167e-07
6.21321e-09
-2.21884e-07
4.05894e-06
3.67221e-06
3.31585e-06
2.98401e-06
2.6719e-06
2.3759e-06
2.09313e-06
1.82127e-06
1.55839e-06
1.30287e-06
1.05331e-06
8.08501e-07
5.67368e-07
3.28984e-07
9.24082e-08
4.14956e-06
3.80036e-06
3.47379e-06
3.16556e-06
2.87204e-06
2.59045e-06
2.31846e-06
2.05412e-06
1.79581e-06
1.54216e-06
1.29203e-06
1.04447e-06
7.98589e-07
5.53656e-07
3.08905e-07
4.21909e-06
3.89601e-06
3.59021e-06
3.2983e-06
3.01741e-06
2.74531e-06
2.48005e-06
2.21995e-06
1.96364e-06
1.70998e-06
1.45802e-06
1.20694e-06
9.56007e-07
7.04615e-07
4.5211e-07
4.27179e-06
3.967e-06
3.67559e-06
3.39479e-06
3.12227e-06
2.85617e-06
2.5948e-06
2.33672e-06
2.08074e-06
1.82589e-06
1.57133e-06
1.31636e-06
1.06034e-06
8.02735e-07
5.42988e-07
4.31134e-06
4.01957e-06
3.73821e-06
3.46497e-06
3.19795e-06
2.93553e-06
2.67622e-06
2.41876e-06
2.16209e-06
1.90537e-06
1.64784e-06
1.38887e-06
1.12791e-06
8.64489e-07
5.98113e-07
4.34096e-06
4.05872e-06
3.78453e-06
3.51654e-06
3.25318e-06
2.99298e-06
2.73459e-06
2.4769e-06
2.21898e-06
1.96006e-06
1.69946e-06
1.43662e-06
1.17102e-06
9.02267e-07
6.29913e-07
4.36333e-06
4.08836e-06
3.81947e-06
3.55528e-06
3.29442e-06
3.03553e-06
2.7774e-06
2.51903e-06
2.25961e-06
1.99841e-06
1.73483e-06
1.46836e-06
1.19852e-06
9.24969e-07
6.47285e-07
4.38061e-06
4.11138e-06
3.84661e-06
3.58531e-06
3.32624e-06
3.06813e-06
2.8099e-06
2.55067e-06
2.28969e-06
2.0263e-06
1.75995e-06
1.49016e-06
1.21651e-06
9.38667e-07
6.56268e-07
4.39436e-06
4.12987e-06
3.86844e-06
3.60948e-06
3.35175e-06
3.09412e-06
2.83565e-06
2.57552e-06
2.31304e-06
2.04762e-06
1.77875e-06
1.50598e-06
1.22892e-06
9.47284e-07
6.60723e-07
4.40568e-06
4.14523e-06
3.88665e-06
3.62963e-06
3.37298e-06
3.1157e-06
2.85693e-06
2.59594e-06
2.33209e-06
2.06484e-06
1.79371e-06
1.51828e-06
1.23821e-06
9.53212e-07
6.62977e-07
4.41529e-06
4.15836e-06
3.90228e-06
3.64695e-06
3.39123e-06
3.13422e-06
2.87517e-06
2.6134e-06
2.34832e-06
2.07944e-06
1.8063e-06
1.52853e-06
1.24579e-06
9.57821e-07
6.64339e-07
4.42362e-06
4.16983e-06
3.91598e-06
3.66214e-06
3.40723e-06
3.15048e-06
2.89118e-06
2.62873e-06
2.36257e-06
2.09225e-06
1.81734e-06
1.5375e-06
1.25241e-06
9.61825e-07
6.65476e-07
4.43095e-06
4.17996e-06
3.9281e-06
3.67559e-06
3.42142e-06
3.1649e-06
2.90541e-06
2.64236e-06
2.37527e-06
2.10369e-06
1.82724e-06
1.54559e-06
1.25843e-06
9.65545e-07
6.66674e-07
4.43752e-06
4.18907e-06
3.93901e-06
3.6877e-06
3.4342e-06
3.17791e-06
2.91826e-06
2.65471e-06
2.38679e-06
2.11412e-06
1.8363e-06
1.55305e-06
1.26407e-06
9.69155e-07
6.6805e-07
4.44378e-06
4.19775e-06
3.94942e-06
3.69925e-06
3.44642e-06
3.19037e-06
2.93058e-06
2.66658e-06
2.39792e-06
2.12422e-06
1.84515e-06
1.5604e-06
1.26972e-06
9.72913e-07
6.69716e-07
4.44957e-06
4.20589e-06
3.95925e-06
3.71022e-06
3.45808e-06
3.20232e-06
2.94246e-06
2.67806e-06
2.40872e-06
2.13408e-06
1.85382e-06
1.56766e-06
1.27535e-06
9.76727e-07
6.7154e-07
-1.39445e-05
-1.17297e-05
-1.03567e-05
-9.42995e-06
-8.67767e-06
-8.08835e-06
-7.61848e-06
-7.24032e-06
-6.93714e-06
-6.69748e-06
-6.51366e-06
-6.38096e-06
-6.29731e-06
-6.26333e-06
-6.28407e-06
-6.3702e-06
-6.53582e-06
-6.8069e-06
-7.22076e-06
-7.82279e-06
-8.65986e-06
-9.75538e-06
-1.09559e-05
-1.19573e-05
-1.25878e-05
-1.27861e-05
-1.25402e-05
-1.18619e-05
-1.07723e-05
-9.29786e-06
-7.46981e-06
-5.32514e-06
-2.90776e-06
-2.68564e-07
2.53532e-06
5.44188e-06
8.38542e-06
1.12967e-05
1.41002e-05
1.6708e-05
1.90017e-05
2.08222e-05
2.18165e-05
2.1674e-05
1.92469e-05
-1.23007e-05
-1.11695e-05
-1.01359e-05
-9.31209e-06
-8.60632e-06
-8.03321e-06
-7.56941e-06
-7.19391e-06
-6.89248e-06
-6.65465e-06
-6.47308e-06
-6.3432e-06
-6.26304e-06
-6.23326e-06
-6.25902e-06
-6.35105e-06
-6.52311e-06
-6.80097e-06
-7.22149e-06
-7.82877e-06
-8.66788e-06
-9.7603e-06
-1.09524e-05
-1.19435e-05
-1.25645e-05
-1.27549e-05
-1.25029e-05
-1.18202e-05
-1.0728e-05
-9.25329e-06
-7.42826e-06
-5.29147e-06
-2.88877e-06
-2.73556e-07
2.49382e-06
5.34698e-06
8.21388e-06
1.10156e-05
1.3661e-05
1.60352e-05
1.79694e-05
1.91974e-05
1.92005e-05
1.72065e-05
1.22074e-05
-1.14327e-05
-1.07257e-05
-9.90667e-06
-9.17408e-06
-8.51984e-06
-7.96947e-06
-7.51522e-06
-7.14417e-06
-6.84545e-06
-6.60994e-06
-6.43093e-06
-6.30419e-06
-6.22787e-06
-6.2027e-06
-6.23403e-06
-6.33259e-06
-6.51178e-06
-6.7971e-06
-7.2249e-06
-7.83768e-06
-8.67845e-06
-9.76637e-06
-1.09476e-05
-1.19257e-05
-1.2535e-05
-1.27159e-05
-1.24567e-05
-1.17696e-05
-1.06758e-05
-9.20317e-06
-7.38516e-06
-5.26236e-06
-2.88323e-06
-3.0441e-07
2.40955e-06
5.18663e-06
7.94689e-06
1.05999e-05
1.30375e-05
1.51199e-05
1.66444e-05
1.73086e-05
1.66319e-05
1.40572e-05
9.44466e-06
-1.08659e-05
-1.03576e-05
-9.69933e-06
-9.03994e-06
-8.43518e-06
-7.90932e-06
-7.46535e-06
-7.09874e-06
-6.80216e-06
-6.56825e-06
-6.39114e-06
-6.26697e-06
-6.19414e-06
-6.17341e-06
-6.21034e-06
-6.31568e-06
-6.5023e-06
-6.79543e-06
-7.23086e-06
-7.84926e-06
-8.69133e-06
-9.77351e-06
-1.09416e-05
-1.1904e-05
-1.24985e-05
-1.26668e-05
-1.2398e-05
-1.17044e-05
-1.0608e-05
-9.13761e-06
-7.32876e-06
-5.22464e-06
-2.87709e-06
-3.46897e-07
2.29624e-06
4.9737e-06
7.59688e-06
1.0064e-05
1.22529e-05
1.40092e-05
1.51263e-05
1.5333e-05
1.42935e-05
1.17352e-05
7.88133e-06
-1.04179e-05
-1.00269e-05
-9.49202e-06
-8.9168e-06
-8.35954e-06
-7.85822e-06
-7.42467e-06
-7.0621e-06
-6.76678e-06
-6.53339e-06
-6.35711e-06
-6.23467e-06
-6.16471e-06
-6.14808e-06
-6.19052e-06
-6.30278e-06
-6.49703e-06
-6.79819e-06
-7.24141e-06
-7.86518e-06
-8.70756e-06
-9.78198e-06
-1.09339e-05
-1.18773e-05
-1.24541e-05
-1.26075e-05
-1.23275e-05
-1.1627e-05
-1.05288e-05
-9.06343e-06
-7.26881e-06
-5.19132e-06
-2.88673e-06
-4.20531e-07
2.13198e-06
4.68549e-06
7.14353e-06
9.39575e-06
1.1313e-05
1.27415e-05
1.34979e-05
1.33802e-05
1.22048e-05
9.90798e-06
6.74255e-06
-1.00356e-05
-9.72546e-06
-9.28495e-06
-8.7919e-06
-8.28928e-06
-7.81489e-06
-7.395e-06
-7.03755e-06
-6.74327e-06
-6.50951e-06
-6.33295e-06
-6.21117e-06
-6.14325e-06
-6.13011e-06
-6.17775e-06
-6.29685e-06
-6.49868e-06
-6.80783e-06
-7.25867e-06
-7.88707e-06
-8.72813e-06
-9.7919e-06
-1.09236e-05
-1.1844e-05
-1.23998e-05
-1.25359e-05
-1.22434e-05
-1.15363e-05
-1.04386e-05
-8.98288e-06
-7.20983e-06
-5.16954e-06
-2.92209e-06
-5.37908e-07
1.90227e-06
4.30737e-06
6.57541e-06
8.59252e-06
1.02318e-05
1.13547e-05
1.18185e-05
1.14977e-05
1.03245e-05
8.35154e-06
5.8205e-06
-9.68383e-06
-9.43554e-06
-9.07911e-06
-8.65765e-06
-8.21008e-06
-7.77409e-06
-7.37414e-06
-7.02559e-06
-6.73399e-06
-6.50008e-06
-6.32267e-06
-6.20067e-06
-6.13391e-06
-6.12348e-06
-6.17576e-06
-6.30135e-06
-6.51034e-06
-6.82703e-06
-7.28488e-06
-7.91658e-06
-8.75393e-06
-9.80323e-06
-1.09097e-05
-1.18023e-05
-1.23332e-05
-1.24493e-05
-1.21432e-05
-1.14302e-05
-1.03363e-05
-8.89624e-06
-7.1541e-06
-5.16388e-06
-2.99012e-06
-7.07908e-07
1.59752e-06
3.83131e-06
5.88984e-06
7.662e-06
9.03231e-06
9.88786e-06
1.01315e-05
9.70311e-06
8.60808e-06
6.94437e-06
4.91527e-06
-9.34306e-06
-9.14379e-06
-8.85773e-06
-8.50617e-06
-8.11876e-06
-7.72693e-06
-7.35549e-06
-7.02249e-06
-6.73785e-06
-6.5061e-06
-6.32875e-06
-6.20656e-06
-6.14055e-06
-6.13223e-06
-6.18856e-06
-6.3201e-06
-6.53542e-06
-6.85875e-06
-7.32249e-06
-7.95542e-06
-8.78566e-06
-9.81557e-06
-1.08906e-05
-1.17495e-05
-1.2251e-05
-1.23442e-05
-1.20237e-05
-1.13067e-05
-1.02211e-05
-8.80477e-06
-7.10518e-06
-5.18036e-06
-3.09899e-06
-9.39905e-07
1.20895e-06
3.25207e-06
5.08882e-06
6.61725e-06
7.74015e-06
8.37451e-06
8.46451e-06
7.99663e-06
7.0138e-06
5.62089e-06
3.97681e-06
-9.00412e-06
-8.84516e-06
-8.61779e-06
-8.33156e-06
-8.00568e-06
-7.66409e-06
-7.32951e-06
-7.02043e-06
-6.7496e-06
-6.5249e-06
-6.35067e-06
-6.22997e-06
-6.16545e-06
-6.15933e-06
-6.21952e-06
-6.35654e-06
-6.57704e-06
-6.90577e-06
-7.37378e-06
-8.00496e-06
-8.82353e-06
-9.82791e-06
-1.08639e-05
-1.16825e-05
-1.21498e-05
-1.22174e-05
-1.18824e-05
-1.11642e-05
-1.00936e-05
-8.71133e-06
-7.06854e-06
-5.22685e-06
-3.25822e-06
-1.24356e-06
7.29084e-07
2.56732e-06
4.17829e-06
5.47414e-06
6.37929e-06
6.83926e-06
6.8303e-06
6.36688e-06
5.50587e-06
4.34202e-06
2.99579e-06
-8.66141e-06
-8.53703e-06
-8.35925e-06
-8.13159e-06
-7.86523e-06
-7.5772e-06
-7.28624e-06
-7.0095e-06
-6.76071e-06
-6.55004e-06
-6.38425e-06
-6.26875e-06
-6.20807e-06
-6.20543e-06
-6.27015e-06
-6.41257e-06
-6.63684e-06
-6.96962e-06
-7.43993e-06
-8.06558e-06
-8.86829e-06
-9.8382e-06
-1.08265e-05
-1.15974e-05
-1.20254e-05
-1.20652e-05
-1.17169e-05
-1.10026e-05
-9.95581e-06
-8.62075e-06
-7.0516e-06
-5.31277e-06
-3.47793e-06
-1.62779e-06
1.52749e-07
1.7782e-06
3.16733e-06
4.24913e-06
4.96937e-06
5.29714e-06
5.23012e-06
4.79666e-06
4.05401e-06
3.08114e-06
1.96837e-06
-8.30934e-06
-8.21603e-06
-8.08114e-06
-7.90539e-06
-7.69479e-06
-7.46073e-06
-7.21756e-06
-6.97998e-06
-6.76119e-06
-6.57236e-06
-6.42185e-06
-6.31707e-06
-6.26427e-06
-6.26781e-06
-6.33889e-06
-6.48703e-06
-6.71356e-06
-7.04961e-06
-7.52015e-06
-8.13539e-06
-8.9142e-06
-9.84265e-06
-1.07738e-05
-1.14894e-05
-1.18738e-05
-1.1885e-05
-1.15264e-05
-1.08233e-05
-9.81223e-06
-8.5403e-06
-7.06392e-06
-5.44873e-06
-3.76815e-06
-2.09986e-06
-5.22358e-07
8.89015e-07
2.0669e-06
2.9573e-06
3.5245e-06
3.75473e-06
3.65793e-06
3.26683e-06
2.6326e-06
1.81828e-06
8.91346e-07
-7.94125e-06
-7.87705e-06
-7.78045e-06
-7.65112e-06
-7.49204e-06
-7.31048e-06
-7.1169e-06
-6.92314e-06
-6.74094e-06
-6.58131e-06
-6.45332e-06
-6.36583e-06
-6.32613e-06
-6.34002e-06
-6.42074e-06
-6.57411e-06
-6.80157e-06
-7.14221e-06
-7.61071e-06
-8.20982e-06
-8.95757e-06
-9.83569e-06
-1.07005e-05
-1.13539e-05
-1.16915e-05
-1.16754e-05
-1.13126e-05
-1.06311e-05
-9.67035e-06
-8.48007e-06
-7.11702e-06
-5.64604e-06
-4.13796e-06
-2.66467e-06
-1.29539e-06
-9.33048e-08
8.88524e-07
1.61128e-06
2.05353e-06
2.21254e-06
2.10383e-06
1.75893e-06
1.22046e-06
5.37545e-07
-2.39315e-07
-7.54914e-06
-7.5131e-06
-7.4518e-06
-7.36468e-06
-7.25315e-06
-7.12175e-06
-6.97785e-06
-6.83058e-06
-6.6898e-06
-6.56557e-06
-6.46684e-06
-6.40335e-06
-6.38238e-06
-6.41232e-06
-6.50665e-06
-6.66305e-06
-6.89419e-06
-7.24071e-06
-7.70299e-06
-8.28075e-06
-8.99042e-06
-9.8099e-06
-1.06006e-05
-1.11866e-05
-1.14767e-05
-1.14379e-05
-1.10805e-05
-1.04341e-05
-9.54109e-06
-8.45285e-06
-7.22385e-06
-5.91568e-06
-4.59442e-06
-3.32392e-06
-2.16224e-06
-1.15974e-06
-3.56359e-07
2.21317e-07
5.61676e-07
6.67977e-07
5.56734e-07
2.5669e-07
-1.9942e-07
-7.73722e-07
-1.42828e-06
-7.12351e-06
-7.11519e-06
-7.08726e-06
-7.03929e-06
-6.97194e-06
-6.88809e-06
-6.79289e-06
-6.69317e-06
-6.59689e-06
-6.51274e-06
-6.44907e-06
-6.41536e-06
-6.41929e-06
-6.46995e-06
-6.58042e-06
-6.7463e-06
-6.98424e-06
-7.33105e-06
-7.78315e-06
-8.33544e-06
-9.00205e-06
-9.7565e-06
-1.04686e-05
-1.09855e-05
-1.12306e-05
-1.1178e-05
-1.08396e-05
-1.02446e-05
-9.43857e-06
-8.47331e-06
-7.39739e-06
-6.26685e-06
-5.14159e-06
-4.07577e-06
-3.11564e-06
-2.2996e-06
-1.6566e-06
-1.20417e-06
-9.47667e-07
-8.81253e-07
-9.89654e-07
-1.25189e-06
-1.63955e-06
-2.12474e-06
-2.67941e-06
-6.65238e-06
-6.67186e-06
-6.67607e-06
-6.66499e-06
-6.63914e-06
-6.60038e-06
-6.55231e-06
-6.50004e-06
-6.44983e-06
-6.40883e-06
-6.3846e-06
-6.38547e-06
-6.41953e-06
-6.49455e-06
-6.62164e-06
-6.80571e-06
-7.05573e-06
-7.39713e-06
-7.83403e-06
-8.36014e-06
-8.98039e-06
-9.66628e-06
-1.03003e-05
-1.07515e-05
-1.09586e-05
-1.09055e-05
-1.06032e-05
-1.00779e-05
-9.37885e-06
-8.55646e-06
-7.64862e-06
-6.70517e-06
-5.77953e-06
-4.91473e-06
-4.14573e-06
-3.50102e-06
-3.00133e-06
-2.65803e-06
-2.47312e-06
-2.44043e-06
-2.54745e-06
-2.77709e-06
-3.10881e-06
-3.52174e-06
-3.9951e-06
-6.12102e-06
-6.16871e-06
-6.20463e-06
-6.22909e-06
-6.24262e-06
-6.24667e-06
-6.24376e-06
-6.23796e-06
-6.23407e-06
-6.23783e-06
-6.25571e-06
-6.29492e-06
-6.36273e-06
-6.46675e-06
-6.6164e-06
-6.81849e-06
-7.08086e-06
-7.41988e-06
-7.84116e-06
-8.33953e-06
-8.91233e-06
-9.53079e-06
-1.00934e-05
-1.04883e-05
-1.06701e-05
-1.06349e-05
-1.03872e-05
-9.94949e-06
-9.37954e-06
-8.71525e-06
-7.98404e-06
-7.23176e-06
-6.50381e-06
-5.83165e-06
-5.24042e-06
-4.75136e-06
-4.37965e-06
-4.13282e-06
-4.01127e-06
-4.00966e-06
-4.11825e-06
-4.32404e-06
-4.61224e-06
-4.96789e-06
-5.37602e-06
-5.5141e-06
-5.59047e-06
-5.65786e-06
-5.71686e-06
-5.76819e-06
-5.81312e-06
-5.85373e-06
-5.8927e-06
-5.93387e-06
-5.98252e-06
-6.04392e-06
-6.12374e-06
-6.22837e-06
-6.36472e-06
-6.54037e-06
-6.76256e-06
-7.03791e-06
-7.37686e-06
-7.78408e-06
-8.25583e-06
-8.78424e-06
-9.34365e-06
-9.84822e-06
-1.02021e-05
-1.03791e-05
-1.0383e-05
-1.02051e-05
-9.87706e-06
-9.45671e-06
-8.95644e-06
-8.40353e-06
-7.84297e-06
-7.30667e-06
-6.81531e-06
-6.38717e-06
-6.03884e-06
-5.78193e-06
-5.62167e-06
-5.558e-06
-5.58698e-06
-5.70177e-06
-5.89359e-06
-6.15183e-06
-6.46493e-06
-6.82202e-06
-4.81678e-06
-4.92209e-06
-5.02058e-06
-5.11321e-06
-5.20109e-06
-5.28573e-06
-5.36879e-06
-5.4524e-06
-5.53485e-06
-5.62703e-06
-5.73225e-06
-5.85386e-06
-5.99695e-06
-6.16742e-06
-6.37169e-06
-6.61591e-06
-6.90585e-06
-7.24771e-06
-7.6447e-06
-8.09472e-06
-8.587e-06
-9.10172e-06
-9.56715e-06
-9.9048e-06
-1.01036e-05
-1.01615e-05
-1.00733e-05
-9.88121e-06
-9.61131e-06
-9.27355e-06
-8.90259e-06
-8.53086e-06
-8.17647e-06
-7.85266e-06
-7.57404e-06
-7.35412e-06
-7.20179e-06
-7.12085e-06
-7.11138e-06
-7.17119e-06
-7.29636e-06
-7.48149e-06
-7.72015e-06
-8.00405e-06
-8.32435e-06
-4.01889e-06
-4.15264e-06
-4.28129e-06
-4.40575e-06
-4.52716e-06
-4.64695e-06
-4.76701e-06
-4.88866e-06
-5.0191e-06
-5.1561e-06
-5.30478e-06
-5.46835e-06
-5.65061e-06
-5.85666e-06
-6.09161e-06
-6.36041e-06
-6.6676e-06
-7.01692e-06
-7.41092e-06
-7.84732e-06
-8.318e-06
-8.80702e-06
-9.25583e-06
-9.60785e-06
-9.84982e-06
-9.97978e-06
-1.00102e-05
-9.95677e-06
-9.83076e-06
-9.66045e-06
-9.47248e-06
-9.28035e-06
-9.09368e-06
-8.92419e-06
-8.7845e-06
-8.68473e-06
-8.63115e-06
-8.62675e-06
-8.67219e-06
-8.76661e-06
-8.90791e-06
-9.09279e-06
-9.31832e-06
-9.58127e-06
-9.87372e-06
-3.13654e-06
-3.2975e-06
-3.45505e-06
-3.6101e-06
-3.7639e-06
-3.91759e-06
-4.07269e-06
-4.23195e-06
-4.39822e-06
-4.57432e-06
-4.76166e-06
-4.96298e-06
-5.18206e-06
-5.42292e-06
-5.68927e-06
-5.98469e-06
-6.31265e-06
-6.6759e-06
-7.07612e-06
-7.51239e-06
-7.97934e-06
-8.46665e-06
-8.92907e-06
-9.31678e-06
-9.62098e-06
-9.84847e-06
-9.99903e-06
-1.00789e-05
-1.01102e-05
-1.01128e-05
-1.00953e-05
-1.00643e-05
-1.00298e-05
-1.00031e-05
-9.99315e-06
-1.00064e-05
-1.00473e-05
-1.01184e-05
-1.02217e-05
-1.03574e-05
-1.05249e-05
-1.07226e-05
-1.09468e-05
-1.11928e-05
-1.14607e-05
-2.2397e-06
-2.42487e-06
-2.60848e-06
-2.79163e-06
-2.97582e-06
-3.1631e-06
-3.35433e-06
-3.54939e-06
-3.74788e-06
-3.95854e-06
-4.18249e-06
-4.42054e-06
-4.67528e-06
-4.94996e-06
-5.24756e-06
-5.57083e-06
-5.92254e-06
-6.30498e-06
-6.71987e-06
-7.16718e-06
-7.64468e-06
-8.14757e-06
-8.63898e-06
-9.07793e-06
-9.45677e-06
-9.77492e-06
-1.00338e-05
-1.02444e-05
-1.04188e-05
-1.0563e-05
-1.0682e-05
-1.07836e-05
-1.08772e-05
-1.09704e-05
-1.10688e-05
-1.11766e-05
-1.12973e-05
-1.14339e-05
-1.15883e-05
-1.17614e-05
-1.19532e-05
-1.21631e-05
-1.23915e-05
-1.26374e-05
-1.28989e-05
-1.45991e-06
-1.66292e-06
-1.86641e-06
-2.07103e-06
-2.27796e-06
-2.48806e-06
-2.70379e-06
-2.92886e-06
-3.16769e-06
-3.41351e-06
-3.6688e-06
-3.93806e-06
-4.22396e-06
-4.52848e-06
-4.85396e-06
-5.20296e-06
-5.57792e-06
-5.98106e-06
-6.41416e-06
-6.87827e-06
-7.37338e-06
-7.89784e-06
-8.42154e-06
-8.9068e-06
-9.34354e-06
-9.73327e-06
-1.00802e-05
-1.03889e-05
-1.06627e-05
-1.09058e-05
-1.11247e-05
-1.13262e-05
-1.15165e-05
-1.17001e-05
-1.18808e-05
-1.20621e-05
-1.22471e-05
-1.24384e-05
-1.26379e-05
-1.28468e-05
-1.30661e-05
-1.32964e-05
-1.35374e-05
-1.37892e-05
-1.40505e-05
-8.76753e-07
-1.0944e-06
-1.31428e-06
-1.53728e-06
-1.76497e-06
-1.99876e-06
-2.2403e-06
-2.48833e-06
-2.7465e-06
-3.01392e-06
-3.29276e-06
-3.58599e-06
-3.89545e-06
-4.22271e-06
-4.56989e-06
-4.93926e-06
-5.33303e-06
-5.75326e-06
-6.2019e-06
-6.6806e-06
-7.1904e-06
-7.73168e-06
-8.27812e-06
-8.7943e-06
-9.27161e-06
-9.71191e-06
-1.01164e-05
-1.04862e-05
-1.08244e-05
-1.11358e-05
-1.14255e-05
-1.16979e-05
-1.19565e-05
-1.22046e-05
-1.24452e-05
-1.26813e-05
-1.29153e-05
-1.31492e-05
-1.33848e-05
-1.36235e-05
-1.38661e-05
-1.41131e-05
-1.43645e-05
-1.46204e-05
-1.4881e-05
-4.49336e-07
-6.79343e-07
-9.13097e-07
-1.15143e-06
-1.39517e-06
-1.64528e-06
-1.90243e-06
-2.17052e-06
-2.44686e-06
-2.73351e-06
-3.03255e-06
-3.34563e-06
-3.6742e-06
-4.01987e-06
-4.38453e-06
-4.77009e-06
-5.17853e-06
-5.61178e-06
-6.07181e-06
-6.56042e-06
-7.07919e-06
-7.62924e-06
-8.1872e-06
-8.72102e-06
-9.22247e-06
-9.69199e-06
-1.013e-05
-1.05384e-05
-1.09201e-05
-1.12786e-05
-1.16169e-05
-1.19378e-05
-1.22438e-05
-1.25374e-05
-1.28212e-05
-1.30971e-05
-1.33672e-05
-1.36331e-05
-1.38961e-05
-1.41575e-05
-1.4418e-05
-1.46781e-05
-1.49386e-05
-1.51998e-05
-1.54619e-05
-1.45077e-07
-3.86289e-07
-6.32263e-07
-8.83653e-07
-1.14137e-06
-1.40653e-06
-1.67986e-06
-1.96232e-06
-2.25443e-06
-2.55757e-06
-2.87296e-06
-3.20182e-06
-3.5455e-06
-3.90547e-06
-4.28332e-06
-4.68067e-06
-5.09927e-06
-5.54086e-06
-6.00729e-06
-6.50027e-06
-7.02151e-06
-7.57236e-06
-8.13217e-06
-8.67189e-06
-9.18358e-06
-9.66768e-06
-1.01252e-05
-1.05577e-05
-1.09674e-05
-1.13563e-05
-1.17263e-05
-1.20794e-05
-1.24177e-05
-1.2743e-05
-1.3057e-05
-1.33615e-05
-1.36577e-05
-1.39471e-05
-1.42308e-05
-1.45097e-05
-1.47845e-05
-1.5056e-05
-1.53248e-05
-1.55916e-05
-1.58563e-05
6.20291e-08
-1.89436e-07
-4.46439e-07
-7.09602e-07
-9.79516e-07
-1.25789e-06
-1.54428e-06
-1.83981e-06
-2.14535e-06
-2.46178e-06
-2.79005e-06
-3.13124e-06
-3.48651e-06
-3.85711e-06
-4.24434e-06
-4.6496e-06
-5.07437e-06
-5.52017e-06
-5.98861e-06
-6.48125e-06
-6.99968e-06
-7.54524e-06
-8.09958e-06
-8.63684e-06
-9.1501e-06
-9.63999e-06
-1.01073e-05
-1.05533e-05
-1.09791e-05
-1.13863e-05
-1.17762e-05
-1.21504e-05
-1.25102e-05
-1.2857e-05
-1.31921e-05
-1.35167e-05
-1.38318e-05
-1.41385e-05
-1.44377e-05
-1.47302e-05
-1.50166e-05
-1.52977e-05
-1.55737e-05
-1.58457e-05
-1.61134e-05
1.96521e-07
-6.43326e-08
-3.31416e-07
-6.05268e-07
-8.86654e-07
-1.17501e-06
-1.47229e-06
-1.77889e-06
-2.09535e-06
-2.42239e-06
-2.76084e-06
-3.11159e-06
-3.47558e-06
-3.85383e-06
-4.24742e-06
-4.6575e-06
-5.08532e-06
-5.53213e-06
-5.99932e-06
-6.4882e-06
-7.00018e-06
-7.53639e-06
-8.08071e-06
-8.61064e-06
-9.12024e-06
-9.60994e-06
-1.00803e-05
-1.0532e-05
-1.09662e-05
-1.13837e-05
-1.17857e-05
-1.21731e-05
-1.25469e-05
-1.29081e-05
-1.32576e-05
-1.35963e-05
-1.39249e-05
-1.42443e-05
-1.45552e-05
-1.48582e-05
-1.51537e-05
-1.54424e-05
-1.57251e-05
-1.60018e-05
-1.62729e-05
2.7941e-07
1.01119e-08
-2.65775e-07
-5.48614e-07
-8.38859e-07
-1.13686e-06
-1.44355e-06
-1.75934e-06
-2.08472e-06
-2.4203e-06
-2.76677e-06
-3.12482e-06
-3.49523e-06
-3.8788e-06
-4.27643e-06
-4.68904e-06
-5.11764e-06
-5.56324e-06
-6.027e-06
-6.50997e-06
-7.01337e-06
-7.53807e-06
-8.07005e-06
-8.59001e-06
-9.09274e-06
-9.57843e-06
-1.00474e-05
-1.05004e-05
-1.09379e-05
-1.13606e-05
-1.17694e-05
-1.21648e-05
-1.25475e-05
-1.29182e-05
-1.32775e-05
-1.36261e-05
-1.39644e-05
-1.42932e-05
-1.46129e-05
-1.4924e-05
-1.52267e-05
-1.55219e-05
-1.58102e-05
-1.60914e-05
-1.6366e-05
3.27321e-07
5.0518e-08
-2.32985e-07
-5.23682e-07
-8.21759e-07
-1.12784e-06
-1.44238e-06
-1.76574e-06
-2.09839e-06
-2.44081e-06
-2.79354e-06
-3.15713e-06
-3.5322e-06
-3.91939e-06
-4.3194e-06
-4.73294e-06
-5.16084e-06
-5.60388e-06
-6.06298e-06
-6.53896e-06
-7.03283e-06
-7.54523e-06
-8.06405e-06
-8.57289e-06
-9.06714e-06
-9.54679e-06
-1.00121e-05
-1.04635e-05
-1.09013e-05
-1.13262e-05
-1.17384e-05
-1.21384e-05
-1.25266e-05
-1.29035e-05
-1.32695e-05
-1.36251e-05
-1.39705e-05
-1.43062e-05
-1.46326e-05
-1.49501e-05
-1.52589e-05
-1.55596e-05
-1.58526e-05
-1.6138e-05
-1.64162e-05
3.52699e-07
6.92792e-08
-2.20886e-07
-5.18316e-07
-8.23237e-07
-1.13609e-06
-1.45717e-06
-1.78682e-06
-2.1254e-06
-2.47331e-06
-2.83096e-06
-3.19879e-06
-3.57726e-06
-3.96686e-06
-4.36814e-06
-4.78165e-06
-5.20799e-06
-5.64777e-06
-6.10171e-06
-6.57038e-06
-7.05464e-06
-7.55484e-06
-8.06065e-06
-8.55824e-06
-9.04351e-06
-9.51631e-06
-9.97679e-06
-1.04252e-05
-1.08618e-05
-1.12868e-05
-1.17004e-05
-1.21029e-05
-1.24945e-05
-1.28755e-05
-1.32461e-05
-1.36066e-05
-1.39573e-05
-1.42982e-05
-1.46299e-05
-1.49525e-05
-1.52663e-05
-1.55716e-05
-1.58689e-05
-1.61582e-05
-1.64399e-05
3.64401e-07
7.51793e-08
-2.20941e-07
-5.24144e-07
-8.34861e-07
-1.15341e-06
-1.48e-06
-1.8149e-06
-2.15838e-06
-2.51076e-06
-2.87234e-06
-3.24346e-06
-3.62446e-06
-4.0157e-06
-4.41758e-06
-4.8305e-06
-5.2549e-06
-5.6912e-06
-6.13993e-06
-6.60149e-06
-7.07654e-06
-7.56521e-06
-8.05874e-06
-8.54557e-06
-9.02205e-06
-9.48791e-06
-9.94321e-06
-1.0388e-05
-1.08225e-05
-1.12466e-05
-1.16605e-05
-1.20643e-05
-1.2458e-05
-1.28417e-05
-1.32156e-05
-1.35797e-05
-1.39343e-05
-1.42794e-05
-1.46153e-05
-1.4942e-05
-1.526e-05
-1.55693e-05
-1.58703e-05
-1.61633e-05
-1.64483e-05
3.684e-07
7.41001e-08
-2.27124e-07
-5.35477e-07
-8.51119e-07
-1.17454e-06
-1.50582e-06
-1.84514e-06
-2.19273e-06
-2.54882e-06
-2.91362e-06
-3.28737e-06
-3.67032e-06
-4.06271e-06
-4.46482e-06
-4.87689e-06
-5.29924e-06
-5.73213e-06
-6.17592e-06
-6.63083e-06
-7.09736e-06
-7.57544e-06
-8.05771e-06
-8.5346e-06
-9.00284e-06
-9.4621e-06
-9.91232e-06
-1.03535e-05
-1.07855e-05
-1.12083e-05
-1.16219e-05
-1.20262e-05
-1.24212e-05
-1.28068e-05
-1.3183e-05
-1.355e-05
-1.39076e-05
-1.4256e-05
-1.45952e-05
-1.49255e-05
-1.52469e-05
-1.55597e-05
-1.58641e-05
-1.61603e-05
-1.64484e-05
3.68475e-07
6.9724e-08
-2.35968e-07
-5.4884e-07
-8.68681e-07
-1.19632e-06
-1.53164e-06
-1.87475e-06
-2.22584e-06
-2.58506e-06
-2.95256e-06
-3.32849e-06
-3.71301e-06
-4.10625e-06
-4.50838e-06
-4.91955e-06
-5.33992e-06
-5.76963e-06
-6.20888e-06
-6.65774e-06
-7.11656e-06
-7.58508e-06
-8.05721e-06
-8.5251e-06
-8.98585e-06
-9.43903e-06
-9.88453e-06
-1.03222e-05
-1.07518e-05
-1.11731e-05
-1.15861e-05
-1.19906e-05
-1.23864e-05
-1.27733e-05
-1.31514e-05
-1.35205e-05
-1.38806e-05
-1.42317e-05
-1.45738e-05
-1.49071e-05
-1.52314e-05
-1.55472e-05
-1.58544e-05
-1.61536e-05
-1.64445e-05
3.66878e-07
6.4223e-08
-2.45491e-07
-5.62182e-07
-8.85688e-07
-1.21704e-06
-1.55586e-06
-1.90226e-06
-2.25637e-06
-2.61829e-06
-2.98811e-06
-3.36589e-06
-3.75172e-06
-4.14564e-06
-4.54773e-06
-4.95802e-06
-5.37657e-06
-5.80339e-06
-6.23856e-06
-6.68201e-06
-7.13393e-06
-7.59394e-06
-8.05703e-06
-8.51689e-06
-8.97091e-06
-9.41865e-06
-9.85986e-06
-1.02943e-05
-1.07216e-05
-1.11415e-05
-1.15539e-05
-1.19583e-05
-1.23547e-05
-1.27427e-05
-1.31223e-05
-1.34932e-05
-1.38553e-05
-1.42087e-05
-1.45532e-05
-1.4889e-05
-1.52159e-05
-1.55341e-05
-1.58439e-05
-1.61459e-05
-1.64393e-05
3.64844e-07
5.8731e-08
-2.54591e-07
-5.74444e-07
-9.01272e-07
-1.23588e-06
-1.57777e-06
-1.92705e-06
-2.28382e-06
-2.6481e-06
-3.01993e-06
-3.39932e-06
-3.78628e-06
-4.18078e-06
-4.5828e-06
-4.99229e-06
-5.40921e-06
-5.83346e-06
-6.26501e-06
-6.70365e-06
-7.14947e-06
-7.60194e-06
-8.05703e-06
-8.50976e-06
-8.95784e-06
-9.40074e-06
-9.83814e-06
-1.02697e-05
-1.06949e-05
-1.11136e-05
-1.15253e-05
-1.19297e-05
-1.23265e-05
-1.27154e-05
-1.30961e-05
-1.34686e-05
-1.38325e-05
-1.41878e-05
-1.45344e-05
-1.48723e-05
-1.52015e-05
-1.55219e-05
-1.58341e-05
-1.61383e-05
-1.6434e-05
3.6298e-07
5.37884e-08
-2.62649e-07
-5.85278e-07
-9.1511e-07
-1.25256e-06
-1.59715e-06
-1.94898e-06
-2.30807e-06
-2.67444e-06
-3.04805e-06
-3.42886e-06
-3.81681e-06
-4.21182e-06
-4.61379e-06
-5.02258e-06
-5.43806e-06
-5.86005e-06
-6.2884e-06
-6.72281e-06
-7.16326e-06
-7.60908e-06
-8.05711e-06
-8.50357e-06
-8.94641e-06
-9.38506e-06
-9.8191e-06
-1.02481e-05
-1.06715e-05
-1.1089e-05
-1.15002e-05
-1.19045e-05
-1.23017e-05
-1.26914e-05
-1.30732e-05
-1.3447e-05
-1.38124e-05
-1.41694e-05
-1.45178e-05
-1.48577e-05
-1.51888e-05
-1.5511e-05
-1.58254e-05
-1.61316e-05
-1.64292e-05
3.6153e-07
4.96163e-08
-2.69475e-07
-5.94633e-07
-9.27119e-07
-1.26704e-06
-1.61402e-06
-1.96809e-06
-2.32924e-06
-2.69744e-06
-3.07263e-06
-3.4547e-06
-3.84354e-06
-4.23901e-06
-4.64093e-06
-5.04912e-06
-5.46335e-06
-5.88336e-06
-6.30892e-06
-6.73964e-06
-7.17538e-06
-7.61538e-06
-8.05722e-06
-8.49817e-06
-8.93644e-06
-9.37138e-06
-9.8025e-06
-1.02293e-05
-1.06512e-05
-1.10677e-05
-1.14783e-05
-1.18826e-05
-1.22802e-05
-1.26705e-05
-1.30533e-05
-1.34282e-05
-1.37951e-05
-1.41535e-05
-1.45035e-05
-1.48451e-05
-1.51778e-05
-1.55017e-05
-1.58181e-05
-1.61259e-05
-1.64252e-05
3.60544e-07
4.62207e-08
-2.75147e-07
-6.02637e-07
-9.37451e-07
-1.27957e-06
-1.62866e-06
-1.98472e-06
-2.3477e-06
-2.71753e-06
-3.09412e-06
-3.47732e-06
-3.86696e-06
-4.26284e-06
-4.66476e-06
-5.07243e-06
-5.48558e-06
-5.90388e-06
-6.32701e-06
-6.7545e-06
-7.18611e-06
-7.62096e-06
-8.05731e-06
-8.49338e-06
-8.92763e-06
-9.35933e-06
-9.7879e-06