/*--------------------------------*- C++ -*----------------------------------*\
| =========                 |                                                 |
| \\      /  F ield         | OpenFOAM: The Open Source CFD Toolbox           |
|  \\    /   O peration     | Version:  2312                                  |
|   \\  /    A nd           | Website:  www.openfoam.com                      |
|    \\/     M anipulation  |                                                 |
\*---------------------------------------------------------------------------*/
FoamFile
{
    version     2.0;
    format      ascii;
    arch        "LSB;label=32;scalar=64";
    class       surfaceScalarField;
    location    "175.75";
    object      phi;
}
// * * * * * * * * * * * * * * * * * * * * * * * * * * * * * * * * * * * * * //

dimensions      [0 3 -1 0 0 0 0];

oriented        oriented;

internalField   nonuniform List<scalar> 
9445
(
5.71928e-10
1.38874e-11
5.63627e-10
8.30052e-12
5.58874e-10
4.75313e-12
5.56499e-10
2.37514e-12
5.55844e-10
6.54877e-13
5.56573e-10
-7.29131e-13
5.58276e-10
-1.70265e-12
5.60996e-10
-2.71983e-12
5.64892e-10
-3.89663e-12
5.70306e-10
-5.41321e-12
5.78293e-10
-7.98712e-12
5.92353e-10
-1.40598e-11
6.24724e-10
-3.23717e-11
7.18015e-10
-9.3291e-11
-2.39697e-10
9.57712e-10
1.99901e-09
6.05484e-11
1.97102e-09
3.62826e-11
1.95489e-09
2.08891e-11
1.94665e-09
1.06114e-11
1.94415e-09
3.1563e-12
1.94598e-09
-2.55848e-12
1.95098e-09
-6.7052e-12
1.95926e-09
-1.09969e-11
1.97115e-09
-1.57842e-11
1.98766e-09
-2.19224e-11
2.0115e-09
-3.18267e-11
2.04935e-09
-5.19123e-11
2.11413e-09
-9.71496e-11
2.2178e-09
-1.96969e-10
-3.47745e-10
2.32585e-09
3.9495e-09
1.49256e-10
3.89614e-09
8.96439e-11
3.86516e-09
5.18664e-11
3.84905e-09
2.6727e-11
3.84368e-09
8.52736e-12
3.84613e-09
-5.00697e-12
3.85438e-09
-1.49545e-11
3.86847e-09
-2.50861e-11
3.88861e-09
-3.59244e-11
3.91598e-09
-4.92967e-11
3.95328e-09
-6.91259e-11
4.00498e-09
-1.03614e-10
4.0737e-09
-1.65864e-10
4.14609e-09
-2.69361e-10
-3.89223e-10
4.18756e-09
6.5684e-09
2.90409e-10
6.48306e-09
1.74978e-10
6.43306e-09
1.01866e-10
6.40644e-09
5.33483e-11
6.39657e-09
1.84035e-11
6.39861e-09
-7.05237e-12
6.40946e-09
-2.58072e-11
6.42873e-09
-4.43539e-11
6.4561e-09
-6.32938e-11
6.49207e-09
-8.52621e-11
6.53765e-09
-1.14714e-10
6.59257e-09
-1.5853e-10
6.6506e-09
-2.23898e-10
6.69272e-09
-3.11481e-10
-3.95102e-10
6.6986e-09
1.00315e-08
4.94591e-10
9.9071e-09
2.9935e-10
9.83335e-09
1.75618e-10
9.79302e-09
9.368e-11
9.7763e-09
3.51254e-11
9.77622e-09
-6.97389e-12
9.7884e-09
-3.79916e-11
9.81121e-09
-6.71592e-11
9.84345e-09
-9.55379e-11
9.88423e-09
-1.26036e-10
9.93214e-09
-1.62625e-10
9.98285e-09
-2.09247e-10
1.00264e-08
-2.67493e-10
1.00471e-08
-3.32154e-10
-3.84407e-10
1.00364e-08
1.45469e-08
7.7033e-10
1.43772e-08
4.69098e-10
1.4275e-08
2.7776e-10
1.42175e-08
1.51154e-10
1.41911e-08
6.15867e-11
1.41865e-08
-2.42397e-12
1.41981e-08
-4.95278e-11
1.42219e-08
-9.10111e-11
1.42557e-08
-1.29263e-10
1.42968e-08
-1.67142e-10
1.43416e-08
-2.07513e-10
1.4384e-08
-2.51632e-10
1.44145e-08
-2.97936e-10
1.4423e-08
-3.40699e-10
-3.69462e-10
1.44081e-08
2.03534e-08
1.11978e-09
2.01352e-08
6.87346e-10
2.00016e-08
4.11345e-10
1.99243e-08
2.28493e-10
1.98855e-08
1.00372e-10
1.98739e-08
9.17548e-12
1.9882e-08
-5.7621e-11
1.99039e-08
-1.12919e-10
1.99354e-08
-1.60797e-10
1.99726e-08
-2.04339e-10
2.00105e-08
-2.45452e-10
2.0043e-08
-2.84053e-10
2.00631e-08
-3.18022e-10
2.0066e-08
-3.43617e-10
-3.56419e-10
2.00529e-08
2.77136e-08
1.53184e-09
2.74512e-08
9.49708e-10
2.72875e-08
5.75059e-10
2.71901e-08
3.25867e-10
2.7138e-08
1.52489e-10
2.71176e-08
2.95795e-11
2.71198e-08
-5.97963e-11
2.71368e-08
-1.29957e-10
2.7163e-08
-1.86973e-10
2.71931e-08
-2.34511e-10
2.72221e-08
-2.74399e-10
2.72448e-08
-3.06716e-10
2.72571e-08
-3.30418e-10
2.72577e-08
-3.44191e-10
-3.47147e-10
2.72485e-08
3.69031e-08
1.97419e-09
3.66141e-08
1.23864e-09
3.643e-08
7.59218e-10
3.63178e-08
4.38019e-10
3.6255e-08
2.15293e-10
3.62266e-08
5.79771e-11
3.62222e-08
-5.54045e-11
3.6233e-08
-1.40711e-10
3.62522e-08
-2.0614e-10
3.62741e-08
-2.56491e-10
3.62942e-08
-2.94462e-10
3.63088e-08
-3.21315e-10
3.6316e-08
-3.37652e-10
3.6316e-08
-3.44121e-10
-3.41683e-10
3.63105e-08
4.82056e-08
2.39049e-09
4.79246e-08
1.51964e-09
4.77416e-08
9.4227e-10
4.76282e-08
5.51342e-10
4.75634e-08
2.80111e-10
4.75323e-08
8.90512e-11
4.75244e-08
-4.74519e-11
4.75305e-08
-1.46851e-10
4.75439e-08
-2.19519e-10
4.75593e-08
-2.71894e-10
4.7573e-08
-3.08138e-10
4.75827e-08
-3.31062e-10
4.75879e-08
-3.42785e-10
4.7589e-08
-3.45274e-10
-3.40399e-10
4.75877e-08
6.19338e-08
2.71422e-09
6.17067e-08
1.74677e-09
6.15563e-08
1.09266e-09
6.14635e-08
6.4412e-10
6.14117e-08
3.31857e-10
6.13886e-08
1.12245e-10
6.13846e-08
-4.3486e-11
6.13918e-08
-1.54107e-10
6.14044e-08
-2.32044e-10
6.14181e-08
-2.85582e-10
6.14304e-08
-3.2045e-10
6.14402e-08
-3.40853e-10
6.14474e-08
-3.50021e-10
6.14528e-08
-3.5069e-10
-3.45141e-10
6.14576e-08
7.85006e-08
2.9046e-09
7.8363e-08
1.88439e-09
7.82735e-08
1.18216e-09
7.82227e-08
6.94866e-10
7.82003e-08
3.5433e-10
7.81972e-08
1.15277e-10
7.82071e-08
-5.33244e-11
7.82237e-08
-1.70681e-10
7.82427e-08
-2.51127e-10
7.82617e-08
-3.04586e-10
7.82794e-08
-3.38065e-10
7.82952e-08
-3.56748e-10
7.83098e-08
-3.64537e-10
7.83236e-08
-3.64543e-10
-3.59187e-10
7.83377e-08
9.85152e-08
2.97852e-09
9.8465e-08
1.93456e-09
9.84399e-08
1.20722e-09
9.84363e-08
6.98475e-10
9.84484e-08
3.42228e-10
9.84705e-08
9.31747e-11
9.84992e-08
-8.20146e-11
9.85302e-08
-2.01635e-10
9.85611e-08
-2.82033e-10
9.85908e-08
-3.3427e-10
9.86189e-08
-3.662e-10
9.86457e-08
-3.83562e-10
9.86718e-08
-3.90587e-10
9.86977e-08
-3.90503e-10
-3.85731e-10
9.87243e-08
1.22779e-07
2.99204e-09
1.22778e-07
1.93599e-09
1.2279e-07
1.19495e-09
1.22814e-07
6.744e-10
1.22846e-07
3.09807e-10
1.22884e-07
5.5769e-11
1.22924e-07
-1.22638e-10
1.22965e-07
-2.42546e-10
1.23005e-07
-3.22174e-10
1.23044e-07
-3.7332e-10
1.23083e-07
-4.0433e-10
1.2312e-07
-4.21206e-10
1.23158e-07
-4.28299e-10
1.23196e-07
-4.28832e-10
-4.25166e-10
1.23236e-07
1.52075e-07
2.98099e-09
1.52088e-07
1.92355e-09
1.52106e-07
1.17649e-09
1.52131e-07
6.49517e-10
1.52161e-07
2.7975e-10
1.52195e-07
2.15067e-11
1.52233e-07
-1.60233e-10
1.52272e-07
-2.8133e-10
1.52311e-07
-3.61793e-10
1.52352e-07
-4.1375e-10
1.52393e-07
-4.4579e-10
1.52436e-07
-4.64018e-10
1.52481e-07
-4.72804e-10
1.52527e-07
-4.75328e-10
-4.73876e-10
1.52576e-07
1.86882e-07
2.93614e-09
1.86908e-07
1.89801e-09
1.86926e-07
1.15833e-09
1.86943e-07
6.32994e-10
1.8696e-07
2.62228e-10
1.86983e-07
-1.11383e-12
1.87008e-07
-1.85106e-10
1.87036e-07
-3.09462e-10
1.87067e-07
-3.93122e-10
1.87102e-07
-4.48437e-10
1.8714e-07
-4.84012e-10
1.87182e-07
-5.05926e-10
1.87228e-07
-5.18505e-10
1.87277e-07
-5.24864e-10
-5.27195e-10
1.8733e-07
2.27232e-07
2.83234e-09
2.27289e-07
1.84072e-09
2.2732e-07
1.12713e-09
2.27338e-07
6.15102e-10
2.2735e-07
2.50121e-10
2.27363e-07
-1.40456e-11
2.27379e-07
-2.00275e-10
2.27397e-07
-3.28199e-10
2.27421e-07
-4.16375e-10
2.27449e-07
-4.76841e-10
2.27483e-07
-5.17901e-10
2.27522e-07
-5.45426e-10
2.27567e-07
-5.6362e-10
2.27618e-07
-5.75511e-10
-5.83224e-10
2.27674e-07
2.72626e-07
2.6571e-09
2.72727e-07
1.73979e-09
2.72783e-07
1.07118e-09
2.72813e-07
5.85298e-10
2.72828e-07
2.34659e-10
2.72839e-07
-2.51983e-11
2.72851e-07
-2.11981e-10
2.72865e-07
-3.42842e-10
2.72885e-07
-4.36132e-10
2.72911e-07
-5.02927e-10
2.72944e-07
-5.50885e-10
2.72984e-07
-5.85505e-10
2.73032e-07
-6.10775e-10
2.73086e-07
-6.2958e-10
-6.43962e-10
2.73146e-07
3.21702e-07
2.40995e-09
3.2185e-07
1.59213e-09
3.21934e-07
9.8669e-10
3.2198e-07
5.39379e-10
3.22004e-07
2.10654e-10
3.22019e-07
-4.04633e-11
3.22034e-07
-2.26034e-10
3.22051e-07
-3.59811e-10
3.22073e-07
-4.5852e-10
3.22102e-07
-5.32237e-10
3.22139e-07
-5.87888e-10
3.22184e-07
-6.30522e-10
3.22237e-07
-6.63846e-10
3.22298e-07
-6.90562e-10
-7.12211e-10
3.22367e-07
3.71527e-07
2.08582e-09
3.71731e-07
1.38751e-09
3.71856e-07
8.62488e-10
3.71927e-07
4.68e-10
3.71969e-07
1.68206e-10
3.71993e-07
-6.36323e-11
3.72004e-07
-2.37197e-10
3.72012e-07
-3.67829e-10
3.72021e-07
-4.68098e-10
3.72035e-07
-5.46333e-10
3.72056e-07
-6.08344e-10
3.72084e-07
-6.58437e-10
3.7212e-07
-6.99758e-10
3.72164e-07
-7.34615e-10
-7.64676e-10
3.72216e-07
3.69546e-07
1.73415e-09
3.69778e-07
1.1553e-09
3.6993e-07
7.11109e-10
3.70028e-07
3.69886e-10
3.70085e-07
1.11003e-10
3.70123e-07
-1.01297e-10
3.70146e-07
-2.60201e-10
3.70163e-07
-3.85289e-10
3.7018e-07
-4.85362e-10
3.702e-07
-5.66246e-10
3.70225e-07
-6.3272e-10
3.70255e-07
-6.88465e-10
3.70291e-07
-7.36104e-10
3.70334e-07
-7.77537e-10
-8.13944e-10
3.70383e-07
3.17205e-07
1.43209e-09
3.17397e-07
9.62994e-10
3.17513e-07
5.95096e-10
3.17577e-07
3.05594e-10
3.17613e-07
7.54799e-11
3.17622e-07
-1.10129e-10
3.1762e-07
-2.58762e-10
3.17614e-07
-3.7859e-10
3.17605e-07
-4.76909e-10
3.17598e-07
-5.5898e-10
3.17594e-07
-6.28584e-10
3.17594e-07
-6.88526e-10
3.17599e-07
-7.40853e-10
3.17608e-07
-7.87105e-10
-8.28382e-10
3.17623e-07
2.66066e-07
1.14847e-09
2.6626e-07
7.69763e-10
2.66389e-07
4.65511e-10
2.66474e-07
2.21047e-10
2.66523e-07
2.58311e-11
2.6655e-07
-1.36828e-10
2.66561e-07
-2.69285e-10
2.66562e-07
-3.79732e-10
2.66558e-07
-4.72742e-10
2.66551e-07
-5.52211e-10
2.66543e-07
-6.21064e-10
2.66536e-07
-6.81458e-10
2.6653e-07
-7.34967e-10
2.66526e-07
-7.82793e-10
-8.25795e-10
2.66523e-07
2.19675e-07
8.99409e-10
2.19849e-07
5.95422e-10
2.19967e-07
3.47394e-10
2.20044e-07
1.44784e-10
2.20091e-07
-2.14241e-11
2.20115e-07
-1.60516e-10
2.20123e-07
-2.77723e-10
2.20121e-07
-3.77551e-10
2.20112e-07
-4.63389e-10
2.20097e-07
-5.38024e-10
2.2008e-07
-6.03656e-10
2.2006e-07
-6.61947e-10
2.2004e-07
-7.1409e-10
2.20018e-07
-7.60978e-10
-8.03261e-10
2.19995e-07
1.79024e-07
6.88028e-10
1.79172e-07
4.47184e-10
1.79272e-07
2.47646e-10
1.79336e-07
8.09157e-11
1.79372e-07
-5.75318e-11
1.79387e-07
-1.76105e-10
1.79387e-07
-2.77883e-10
1.79376e-07
-3.66091e-10
1.79356e-07
-4.4321e-10
1.79329e-07
-5.11225e-10
1.79297e-07
-5.71723e-10
1.79261e-07
-6.25915e-10
1.79222e-07
-6.74665e-10
1.79179e-07
-7.18618e-10
-7.58237e-10
1.79134e-07
1.44248e-07
5.16749e-10
1.44367e-07
3.28207e-10
1.44446e-07
1.69488e-10
1.44492e-07
3.42597e-11
1.44514e-07
-7.96312e-11
1.44517e-07
-1.79096e-10
1.44505e-07
-2.6579e-10
1.44481e-07
-3.42057e-10
1.44448e-07
-4.09655e-10
1.44406e-07
-4.69964e-10
1.44359e-07
-5.24071e-10
1.44306e-07
-5.72817e-10
1.44248e-07
-6.16805e-10
1.44186e-07
-6.56484e-10
-6.92173e-10
1.4412e-07
1.1502e-07
3.83842e-10
1.1511e-07
2.38026e-10
1.15166e-07
1.13157e-10
1.15195e-07
5.61867e-12
1.15203e-07
-8.73222e-11
1.15193e-07
-1.69269e-10
1.15169e-07
-2.41811e-10
1.15133e-07
-3.06462e-10
1.15088e-07
-3.64411e-10
1.15035e-07
-4.16582e-10
1.14974e-07
-4.63698e-10
1.14908e-07
-5.06321e-10
1.14836e-07
-5.44853e-10
1.14759e-07
-5.796e-10
-6.10768e-10
1.14677e-07
9.07952e-08
2.83876e-10
9.08608e-08
1.72484e-10
9.08983e-08
7.56434e-11
9.09128e-08
-8.91972e-12
9.0909e-08
-8.34764e-11
9.08897e-08
-1.49977e-10
9.08575e-08
-2.09619e-10
9.08144e-08
-2.63374e-10
9.0762e-08
-3.1201e-10
9.07015e-08
-3.56123e-10
9.0634e-08
-3.96176e-10
9.05602e-08
-4.32529e-10
9.04808e-08
-4.6544e-10
9.03963e-08
-4.95104e-10
-5.21647e-10
9.03072e-08
7.09576e-08
2.09628e-10
7.10043e-08
1.25757e-10
7.10283e-08
5.17112e-11
7.10332e-08
-1.38442e-11
7.10223e-08
-7.26155e-11
7.0998e-08
-1.25674e-10
7.09622e-08
-1.73798e-10
7.09164e-08
-2.17596e-10
7.0862e-08
-2.57543e-10
7.07998e-08
-2.94004e-10
7.07309e-08
-3.27263e-10
7.06559e-08
-3.57536e-10
7.05755e-08
-3.84979e-10
7.04901e-08
-4.09711e-10
-4.31802e-10
7.04002e-08
5.48816e-08
1.5442e-10
5.49151e-08
9.22925e-11
5.49301e-08
3.66869e-11
5.49296e-08
-1.32816e-11
5.49156e-08
-5.8706e-11
5.48902e-08
-1.00194e-10
5.48546e-08
-1.38202e-10
5.48101e-08
-1.73088e-10
5.47577e-08
-2.0513e-10
5.46982e-08
-2.34536e-10
5.46324e-08
-2.61468e-10
5.45609e-08
-2.86049e-10
5.44843e-08
-3.08364e-10
5.44031e-08
-3.28481e-10
-3.46434e-10
5.43177e-08
4.19734e-08
1.13018e-10
4.19978e-08
6.79419e-11
4.20074e-08
2.70544e-11
4.20044e-08
-1.02138e-11
4.19902e-08
-4.4514e-11
4.19662e-08
-7.61829e-11
4.19334e-08
-1.05449e-10
4.18928e-08
-1.32514e-10
4.18452e-08
-1.57523e-10
4.17913e-08
-1.80586e-10
4.17316e-08
-2.01788e-10
4.16667e-08
-2.2119e-10
4.15972e-08
-2.38835e-10
4.15235e-08
-2.54756e-10
-2.68962e-10
4.1446e-08
3.16941e-08
8.1684e-11
3.17123e-08
4.98045e-11
3.17188e-08
2.0514e-11
3.17151e-08
-6.53376e-12
3.17023e-08
-3.17045e-11
3.16813e-08
-5.51826e-11
3.16529e-08
-7.70392e-11
3.16178e-08
-9.73852e-11
3.15766e-08
-1.16289e-10
3.15298e-08
-1.33799e-10
3.14779e-08
-1.49954e-10
3.14215e-08
-1.64778e-10
3.1361e-08
-1.78287e-10
3.12967e-08
-1.90492e-10
-2.01389e-10
3.12291e-08
2.35717e-08
5.7813e-11
2.35855e-08
3.59686e-11
2.35904e-08
1.56631e-11
2.35872e-08
-3.29587e-12
2.35766e-08
-2.11161e-11
2.35593e-08
-3.79093e-11
2.35359e-08
-5.36298e-11
2.35069e-08
-6.83525e-11
2.34727e-08
-8.21005e-11
2.34338e-08
-9.48888e-11
2.33905e-08
-1.06729e-10
2.33434e-08
-1.17624e-10
2.32927e-08
-1.27577e-10
2.32388e-08
-1.36584e-10
-1.44634e-10
2.3182e-08
1.7203e-08
3.95961e-11
1.72137e-08
2.52226e-11
1.72176e-08
1.1731e-11
1.72153e-08
-9.73131e-13
1.72072e-08
-1.30126e-11
1.71938e-08
-2.44976e-11
1.71754e-08
-3.52801e-11
1.71525e-08
-4.54375e-11
1.71254e-08
-5.49679e-11
1.70944e-08
-6.38697e-11
1.70598e-08
-7.21405e-11
1.70219e-08
-7.9774e-11
1.69811e-08
-8.67651e-11
1.69376e-08
-9.31041e-11
-9.87777e-11
1.68918e-08
1.22494e-08
2.57889e-11
1.22578e-08
1.68313e-11
1.22612e-08
8.36845e-12
1.22599e-08
3.49747e-13
1.22541e-08
-7.28177e-12
1.22443e-08
-1.46876e-11
1.22307e-08
-2.16349e-11
1.22135e-08
-2.82191e-11
1.21929e-08
-3.44254e-11
1.21693e-08
-4.02462e-11
1.21428e-08
-4.56738e-11
1.21137e-08
-5.06983e-11
1.20823e-08
-5.53129e-11
1.20487e-08
-5.9506e-11
-6.32635e-11
1.20132e-08
8.43045e-09
1.55356e-11
8.43692e-09
1.03685e-11
8.43979e-09
5.49089e-12
8.43932e-09
8.27114e-13
8.43563e-09
-3.59529e-12
8.42891e-09
-7.97061e-12
8.41936e-09
-1.20787e-11
8.40713e-09
-1.59914e-11
8.3924e-09
-1.96953e-11
8.37534e-09
-2.31837e-11
8.35611e-09
-2.64484e-11
8.33489e-09
-2.94799e-11
8.31185e-09
-3.22723e-11
8.28716e-09
-3.48153e-11
-3.70948e-11
8.26099e-09
5.51527e-09
8.23593e-12
5.52004e-09
5.5914e-12
5.5224e-09
3.13256e-12
5.52248e-09
7.47866e-13
5.52037e-09
-1.48709e-12
5.51614e-09
-3.74117e-12
5.50993e-09
-5.87022e-12
5.50185e-09
-7.90413e-12
5.49199e-09
-9.83701e-12
5.48047e-09
-1.16658e-11
5.46741e-09
-1.33838e-11
5.45291e-09
-1.49838e-11
5.4371e-09
-1.64621e-11
5.4201e-09
-1.78109e-11
-1.90173e-11
5.40202e-09
3.31551e-09
3.44463e-12
3.31875e-09
2.35155e-12
3.32051e-09
1.37901e-12
3.32083e-09
4.212e-13
3.31981e-09
-4.65655e-13
3.31745e-09
-1.37678e-12
3.31382e-09
-2.24577e-12
3.309e-09
-3.07764e-12
3.30303e-09
-3.87137e-12
3.29599e-09
-4.62635e-12
3.28794e-09
-5.33816e-12
3.27896e-09
-6.00274e-12
3.26912e-09
-6.61834e-12
3.25849e-09
-7.18021e-12
-7.67798e-12
3.24715e-09
1.6784e-09
8.02582e-13
1.68022e-09
5.29734e-13
1.68128e-09
3.18289e-13
1.6816e-09
1.05553e-13
1.68122e-09
-8.89108e-14
1.68014e-09
-2.95229e-13
1.67839e-09
-4.94347e-13
1.676e-09
-6.8483e-13
1.67299e-09
-8.68224e-13
1.66941e-09
-1.04378e-12
1.66528e-09
-1.20912e-12
1.66064e-09
-1.3636e-12
1.65553e-09
-1.50688e-12
1.64999e-09
-1.63664e-12
-1.74701e-12
1.64406e-09
4.80731e-10
4.8126e-10
4.81579e-10
4.81684e-10
4.81595e-10
4.813e-10
4.80806e-10
4.80121e-10
4.79253e-10
4.78209e-10
4.77e-10
4.75636e-10
4.74129e-10
4.72493e-10
4.70746e-10
1.14671e-09
-4.45335e-10
2.56337e-10
1.41894e-09
-3.51703e-10
7.9472e-11
1.6948e-09
-1.89018e-10
-8.68428e-11
1.96834e-09
-1.7642e-11
-2.55897e-10
2.23786e-09
1.58252e-10
-4.27772e-10
2.50428e-09
3.31889e-10
-5.98313e-10
2.76916e-09
5.01606e-10
-7.66481e-10
3.03369e-09
6.6594e-10
-9.30475e-10
3.29882e-09
8.22891e-10
-1.08802e-09
3.56526e-09
9.69965e-10
-1.2364e-09
3.83358e-09
1.10419e-09
-1.37251e-09
4.10431e-09
1.22204e-09
-1.49277e-09
4.37802e-09
1.31927e-09
-1.59299e-09
4.6554e-09
1.39085e-09
-1.66823e-09
4.93725e-09
1.43096e-09
-1.71281e-09
5.22471e-09
1.43358e-09
-1.72104e-09
5.51941e-09
1.39338e-09
-1.68808e-09
5.82393e-09
1.30817e-09
-1.61269e-09
6.14213e-09
1.17766e-09
-1.49586e-09
6.47919e-09
1.00408e-09
-1.34114e-09
6.84029e-09
7.72124e-10
-1.13322e-09
7.22659e-09
4.24003e-10
-8.10305e-10
7.57289e-09
-1.29758e-10
-2.16548e-10
7.85245e-09
-7.2816e-10
4.48604e-10
8.0653e-09
-1.30792e-09
1.09508e-09
8.21484e-09
-1.83678e-09
1.68724e-09
8.30631e-09
-2.28948e-09
2.19801e-09
8.345e-09
-2.65527e-09
2.61657e-09
8.33526e-09
-2.93052e-09
2.94026e-09
8.2806e-09
-3.11401e-09
3.16868e-09
8.184e-09
-3.20474e-09
3.30134e-09
8.04812e-09
-3.19794e-09
3.33382e-09
7.87561e-09
-3.08933e-09
3.26184e-09
7.66925e-09
-2.87595e-09
3.08231e-09
7.43182e-09
-2.55705e-09
2.79448e-09
7.16587e-09
-2.1342e-09
2.40014e-09
6.87363e-09
-1.6103e-09
1.90255e-09
6.55693e-09
-9.87388e-10
1.30408e-09
6.21749e-09
-2.63819e-10
6.03259e-10
5.85579e-09
5.67345e-10
-2.05637e-10
5.46737e-09
1.51036e-09
-1.12195e-09
5.03459e-09
2.53881e-09
-2.10603e-09
4.52538e-09
3.52145e-09
-3.01224e-09
3.94248e-09
4.13383e-09
-3.55093e-09
3.5884e-09
3.58299e-09
-3.22891e-09
2.40062e-09
-5.20099e-10
2.5647e-09
-5.15789e-10
2.78849e-09
-4.1281e-10
3.03991e-09
-2.69054e-10
3.30547e-09
-1.07312e-10
3.57841e-09
5.89525e-11
3.85613e-09
2.2388e-10
4.13767e-09
3.84404e-10
4.42273e-09
5.3783e-10
4.71133e-09
6.81363e-10
5.00363e-09
8.11895e-10
5.29987e-09
9.25799e-10
5.60043e-09
1.01871e-09
5.90584e-09
1.08544e-09
6.21677e-09
1.12003e-09
6.53418e-09
1.11617e-09
6.85951e-09
1.06805e-09
7.19512e-09
9.72558e-10
7.54458e-09
8.28201e-10
7.91283e-09
6.35827e-10
8.30479e-09
3.80167e-10
8.72138e-09
7.41328e-12
9.09322e-09
-5.01601e-10
9.39281e-09
-1.02775e-09
9.62082e-09
-1.53592e-09
9.78101e-09
-1.99698e-09
9.87899e-09
-2.38746e-09
9.92041e-09
-2.69668e-09
9.90997e-09
-2.92008e-09
9.85165e-09
-3.05569e-09
9.74896e-09
-3.10205e-09
9.60518e-09
-3.05416e-09
9.42375e-09
-2.90791e-09
9.20848e-09
-2.66068e-09
8.96348e-09
-2.31205e-09
8.69317e-09
-1.86389e-09
8.40235e-09
-1.31948e-09
8.09681e-09
-6.81843e-10
7.78466e-09
4.8327e-11
7.47801e-09
8.7399e-10
7.19413e-09
1.79425e-09
6.95432e-09
2.77862e-09
6.78535e-09
3.69042e-09
6.71524e-09
4.20394e-09
3.69437e-09
6.60927e-09
4.20185e-09
-5.3438e-10
4.27618e-09
-5.90127e-10
4.42252e-09
-5.59143e-10
4.62269e-09
-4.69227e-10
4.85779e-09
-3.42414e-10
5.11577e-09
-1.99023e-10
5.38952e-09
-4.98735e-11
5.67492e-09
9.90047e-11
5.9696e-09
2.43147e-10
6.27225e-09
3.78721e-10
6.5821e-09
5.0204e-10
6.89881e-09
6.09092e-10
7.2223e-09
6.95217e-10
7.55274e-09
7.55001e-10
7.89049e-09
7.8228e-10
8.23621e-09
7.7045e-10
8.59099e-09
7.13271e-10
8.95675e-09
6.06794e-10
9.33661e-09
4.48347e-10
9.73497e-09
2.37465e-10
1.01562e-08
-4.10545e-11
1.06007e-08
-4.37088e-10
1.09953e-08
-8.96244e-10
1.13123e-08
-1.34469e-09
1.15529e-08
-1.7766e-09
1.17216e-08
-2.1656e-09
1.18241e-08
-2.49005e-09
1.18666e-08
-2.73918e-09
1.18542e-08
-2.90765e-09
1.17914e-08
-2.99284e-09
1.16822e-08
-2.99292e-09
1.15308e-08
-2.90275e-09
1.13416e-08
-2.71866e-09
1.11196e-08
-2.43866e-09
1.08706e-08
-2.06306e-09
1.06013e-08
-1.59458e-09
1.03196e-08
-1.0378e-09
1.00358e-08
-3.98078e-10
9.76487e-09
3.19282e-10
9.52986e-09
1.109e-09
9.36546e-09
1.95864e-09
9.31641e-09
2.82767e-09
9.41688e-09
3.58995e-09
9.61991e-09
4.00091e-09
3.62409e-09
9.6902e-09
6.67885e-09
-5.14628e-10
6.69236e-09
-6.03634e-10
6.76114e-09
-6.27929e-10
6.89171e-09
-5.99789e-10
7.0727e-09
-5.23404e-10
7.29182e-09
-4.18151e-10
7.54003e-09
-2.98078e-10
7.81065e-09
-1.71619e-10
8.09915e-09
-4.53551e-11
8.40253e-09
7.53501e-11
8.71875e-09
1.85816e-10
9.04651e-09
2.81329e-10
9.38503e-09
3.56701e-10
9.73388e-09
4.06149e-10
1.00929e-08
4.23246e-10
1.04623e-08
4.01087e-10
1.08425e-08
3.33036e-10
1.12349e-08
2.14384e-10
1.16419e-08
4.14133e-11
1.20669e-08
-1.87578e-10
1.25134e-08
-4.87603e-10
1.2981e-08
-9.04688e-10
1.33935e-08
-1.30868e-09
1.37231e-08
-1.67426e-09
1.39721e-08
-2.02567e-09
1.41454e-08
-2.33886e-09
1.42493e-08
-2.59396e-09
1.42901e-08
-2.78002e-09
1.42736e-08
-2.89106e-09
1.42047e-08
-2.92399e-09
1.40884e-08
-2.8766e-09
1.39295e-08
-2.74387e-09
1.37337e-08
-2.52281e-09
1.35074e-08
-2.21241e-09
1.32585e-08
-1.81414e-09
1.2996e-08
-1.33215e-09
1.27314e-08
-7.73119e-10
1.24791e-08
-1.45796e-10
1.22596e-08
5.38769e-10
1.21026e-08
1.26597e-09
1.20493e-08
2.01199e-09
1.21454e-08
2.73159e-09
1.24101e-08
3.32524e-09
1.27825e-08
3.62847e-09
3.41131e-09
1.29953e-08
1.00023e-08
-4.80515e-10
9.97911e-09
-5.80426e-10
9.98977e-09
-6.38596e-10
1.00484e-08
-6.58455e-10
1.01616e-08
-6.36607e-10
1.03222e-08
-5.78736e-10
1.0523e-08
-4.98812e-10
1.07571e-08
-4.05782e-10
1.10192e-08
-3.07439e-10
1.1305e-08
-2.10403e-10
1.16112e-08
-1.20376e-10
1.19354e-08
-4.29408e-11
1.22761e-08
1.60139e-11
1.2632e-08
5.02188e-11
1.30024e-08
5.29218e-11
1.33865e-08
1.69136e-11
1.37844e-08
-6.47832e-11
1.41963e-08
-1.97512e-10
1.46235e-08
-3.85869e-10
1.50686e-08
-6.32633e-10
1.55334e-08
-9.52403e-10
1.60161e-08
-1.38744e-09
1.64385e-08
-1.73107e-09
1.67735e-08
-2.00927e-09
1.70245e-08
-2.27666e-09
1.71967e-08
-2.51101e-09
1.72969e-08
-2.69421e-09
1.73319e-08
-2.81497e-09
1.73078e-08
-2.867e-09
1.72307e-08
-2.84683e-09
1.71058e-08
-2.75178e-09
1.69393e-08
-2.5773e-09
1.67379e-08
-2.32143e-09
1.65099e-08
-1.98444e-09
1.62651e-08
-1.56935e-09
1.60152e-08
-1.08223e-09
1.57744e-08
-5.32311e-10
1.55606e-08
6.79594e-11
1.53972e-08
7.0219e-10
1.53146e-08
1.34862e-09
1.53496e-08
1.97696e-09
1.5537e-08
2.54419e-09
1.58809e-08
2.98131e-09
1.63137e-08
3.19573e-09
3.08847e-09
1.66365e-08
1.43728e-08
-4.45203e-10
1.43322e-08
-5.39907e-10
1.43089e-08
-6.15248e-10
1.4314e-08
-6.63533e-10
1.43613e-08
-6.83917e-10
1.44554e-08
-6.72872e-10
1.45937e-08
-6.37102e-10
1.47725e-08
-5.84619e-10
1.49877e-08
-5.22616e-10
1.52352e-08
-4.5787e-10
1.55113e-08
-3.96499e-10
1.58131e-08
-3.44747e-10
1.61383e-08
-3.09148e-10
1.64849e-08
-2.96429e-10
1.68515e-08
-3.13639e-10
1.72366e-08
-3.68235e-10
1.76393e-08
-4.67437e-10
1.80588e-08
-6.17036e-10
1.84952e-08
-8.22267e-10
1.89493e-08
-1.08673e-09
1.94212e-08
-1.42425e-09
1.99071e-08
-1.87336e-09
2.0328e-08
-2.15202e-09
2.06582e-08
-2.33943e-09
2.09019e-08
-2.52033e-09
2.10647e-08
-2.67384e-09
2.11542e-08
-2.78366e-09
2.11772e-08
-2.83801e-09
2.11409e-08
-2.83073e-09
2.1052e-08
-2.75793e-09
2.09165e-08
-2.61627e-09
2.07414e-08
-2.40217e-09
2.05351e-08
-2.1151e-09
2.03075e-08
-1.75684e-09
2.00703e-08
-1.33221e-09
1.98375e-08
-8.49378e-10
1.96253e-08
-3.2013e-10
1.94532e-08
2.40044e-10
1.93442e-08
8.11142e-10
1.93245e-08
1.36832e-09
1.94205e-08
1.88103e-09
1.96508e-08
2.31388e-09
2.00075e-08
2.62463e-09
2.04331e-08
2.77009e-09
2.71676e-09
2.08048e-08
2.00237e-08
-4.1599e-10
1.99832e-08
-4.9941e-10
1.99447e-08
-5.76729e-10
1.99211e-08
-6.39901e-10
1.99218e-08
-6.84664e-10
1.99581e-08
-7.09134e-10
2.00336e-08
-7.126e-10
2.01491e-08
-7.0018e-10
2.03041e-08
-6.77536e-10
2.04964e-08
-6.5019e-10
2.07235e-08
-6.23633e-10
2.0983e-08
-6.04203e-10
2.12725e-08
-5.9869e-10
2.15901e-08
-6.13978e-10
2.19336e-08
-6.57196e-10
2.23012e-08
-7.35863e-10
2.2691e-08
-8.57235e-10
2.31013e-08
-1.02727e-09
2.35305e-08
-1.25148e-09
2.39777e-08
-1.53396e-09
2.44406e-08
-1.88715e-09
2.49131e-08
-2.34586e-09
2.53173e-08
-2.55618e-09
2.5629e-08
-2.65112e-09
2.58531e-08
-2.74448e-09
2.59957e-08
-2.81648e-09
2.60648e-08
-2.85274e-09
2.60679e-08
-2.84112e-09
2.60131e-08
-2.77594e-09
2.59078e-08
-2.65255e-09
2.57582e-08
-2.46668e-09
2.55726e-08
-2.21663e-09
2.53611e-08
-1.90355e-09
2.5135e-08
-1.53081e-09
2.49078e-08
-1.10499e-09
2.46947e-08
-6.36209e-10
2.45128e-08
-1.38235e-10
2.4381e-08
3.71846e-10
2.43192e-08
8.72915e-10
2.43463e-08
1.34116e-09
2.44768e-08
1.75058e-09
2.47149e-08
2.07579e-09
2.50455e-08
2.29399e-09
2.5426e-08
2.38965e-09
2.35845e-09
2.57843e-08
2.72276e-08
-3.95167e-10
2.71956e-08
-4.67339e-10
2.71586e-08
-5.39786e-10
2.71255e-08
-6.0677e-10
2.71047e-08
-6.6393e-10
2.71048e-08
-7.09176e-10
2.71331e-08
-7.4089e-10
2.71936e-08
-7.60713e-10
2.72895e-08
-7.73455e-10
2.74217e-08
-7.82339e-10
2.75897e-08
-7.91654e-10
2.77929e-08
-8.07364e-10
2.80301e-08
-8.35942e-10
2.83e-08
-8.83904e-10
2.86009e-08
-9.58064e-10
2.89307e-08
-1.06564e-09
2.9287e-08
-1.21359e-09
2.96674e-08
-1.40761e-09
3.00689e-08
-1.65305e-09
3.04889e-08
-1.95396e-09
3.09224e-08
-2.3206e-09
3.13605e-08
-2.784e-09
3.17289e-08
-2.92451e-09
3.20054e-08
-2.92764e-09
3.2195e-08
-2.93414e-09
3.23041e-08
-2.92555e-09
3.23411e-08
-2.88971e-09
3.23147e-08
-2.81475e-09
3.2234e-08
-2.69524e-09
3.21062e-08
-2.52471e-09
3.19377e-08
-2.29815e-09
3.17387e-08
-2.01766e-09
3.15205e-08
-1.68537e-09
3.12958e-08
-1.30615e-09
3.1079e-08
-8.88114e-10
3.08855e-08
-4.42715e-10
3.07318e-08
1.543e-11
3.06344e-08
4.69257e-10
3.06082e-08
8.99148e-10
3.06642e-08
1.28516e-09
3.08067e-08
1.60803e-09
3.10305e-08
1.85196e-09
3.13179e-08
2.00666e-09
3.16376e-08
2.06996e-09
2.04835e-09
3.19477e-08
3.62975e-08
-3.82154e-10
3.62758e-08
-4.45629e-10
3.62481e-08
-5.12107e-10
3.62193e-08
-5.78015e-10
3.61954e-08
-6.40013e-10
3.61825e-08
-6.96239e-10
3.61869e-08
-7.45289e-10
3.62133e-08
-7.87122e-10
3.62671e-08
-8.27212e-10
3.63501e-08
-8.65388e-10
3.64642e-08
-9.05764e-10
3.66108e-08
-9.53964e-10
3.67906e-08
-1.0157e-09
3.70034e-08
-1.09672e-09
3.72485e-08
-1.20319e-09
3.75245e-08
-1.34165e-09
3.78293e-08
-1.51835e-09
3.81599e-08
-1.73824e-09
3.85128e-08
-2.00593e-09
3.88837e-08
-2.32487e-09
3.92651e-08
-2.70202e-09
3.96457e-08
-3.16456e-09
3.99572e-08
-3.23605e-09
4.01801e-08
-3.15055e-09
4.03188e-08
-3.07284e-09
4.03794e-08
-2.98613e-09
4.03715e-08
-2.88178e-09
4.03071e-08
-2.75033e-09
4.01931e-08
-2.58121e-09
4.00344e-08
-2.36602e-09
3.98415e-08
-2.10525e-09
3.96253e-08
-1.80152e-09
3.93981e-08
-1.4582e-09
3.91733e-08
-1.0813e-09
3.89651e-08
-6.79951e-10
3.87885e-08
-2.66037e-10
3.86574e-08
1.46467e-10
3.85849e-08
5.41797e-10
3.85801e-08
9.03935e-10
3.86473e-08
1.21793e-09
3.87841e-08
1.47128e-09
3.89804e-08
1.65567e-09
3.92188e-08
1.76819e-09
3.94766e-08
1.81222e-09
1.79668e-09
3.97282e-08
4.75819e-08
-3.763e-10
4.75702e-08
-4.33898e-10
4.75538e-08
-4.95706e-10
4.75354e-08
-5.59686e-10
4.75189e-08
-6.23503e-10
4.75086e-08
-6.8588e-10
4.75087e-08
-7.45444e-10
4.75239e-08
-8.0229e-10
4.75583e-08
-8.61666e-10
4.76141e-08
-9.21171e-10
4.76934e-08
-9.85083e-10
4.77991e-08
-1.05959e-09
4.79324e-08
-1.14906e-09
4.80944e-08
-1.25865e-09
4.82851e-08
-1.39391e-09
4.85039e-08
-1.56054e-09
4.87495e-08
-1.76388e-09
4.9019e-08
-2.00777e-09
4.93086e-08
-2.29558e-09
4.96133e-08
-2.62955e-09
4.99236e-08
-3.01225e-09
5.0226e-08
-3.46701e-09
5.04619e-08
-3.47196e-09
5.06141e-08
-3.30269e-09
5.0686e-08
-3.14474e-09
5.06838e-08
-2.98396e-09
5.0624e-08
-2.82196e-09
5.0515e-08
-2.64139e-09
5.0358e-08
-2.42415e-09
5.01619e-08
-2.16995e-09
4.99396e-08
-1.88292e-09
4.97028e-08
-1.56477e-09
4.94642e-08
-1.21953e-09
4.92368e-08
-8.53948e-10
4.90342e-08
-4.77351e-10
4.88693e-08
-1.01087e-10
4.87529e-08
2.62791e-10
4.86938e-08
6.00908e-10
4.86961e-08
9.01633e-10
4.87591e-08
1.15494e-09
4.88766e-08
1.35378e-09
4.90374e-08
1.49494e-09
4.92262e-08
1.5794e-09
4.94261e-08
1.61228e-09
1.60188e-09
4.96209e-08
6.14598e-08
-3.78596e-10
6.14586e-08
-4.327e-10
6.14546e-08
-4.91648e-10
6.14493e-08
-5.54434e-10
6.14456e-08
-6.19749e-10
6.14467e-08
-6.86972e-10
6.14553e-08
-7.54044e-10
6.14747e-08
-8.21718e-10
6.15063e-08
-8.93264e-10
6.15551e-08
-9.69933e-10
6.16234e-08
-1.05345e-09
6.17118e-08
-1.14799e-09
6.18213e-08
-1.25852e-09
6.19526e-08
-1.38995e-09
6.2106e-08
-1.54729e-09
6.22809e-08
-1.73546e-09
6.2476e-08
-1.95897e-09
6.26887e-08
-2.22043e-09
6.29149e-08
-2.52184e-09
6.31491e-08
-2.86376e-09
6.33805e-08
-3.2436e-09
6.3595e-08
-3.68154e-09
6.3744e-08
-3.62096e-09
6.38139e-08
-3.37255e-09
6.38057e-08
-3.13662e-09
6.37429e-08
-2.92115e-09
6.36327e-08
-2.7117e-09
6.3469e-08
-2.47775e-09
6.32616e-08
-2.21673e-09
6.30258e-08
-1.93419e-09
6.27731e-08
-1.63017e-09
6.25152e-08
-1.30688e-09
6.22645e-08
-9.68799e-10
6.20333e-08
-6.22771e-10
6.18334e-08
-2.77486e-10
6.16745e-08
5.78184e-11
6.15647e-08
3.72592e-10
6.15082e-08
6.57423e-10
6.15053e-08
9.04485e-10
6.15524e-08
1.1079e-09
6.16417e-08
1.2645e-09
6.17625e-08
1.37408e-09
6.19026e-08
1.43934e-09
6.20494e-08
1.46549e-09
1.45941e-09
6.21919e-08
7.83508e-08
-3.9176e-10
7.83625e-08
-4.4434e-10
7.8373e-08
-5.02169e-10
7.83834e-08
-5.64878e-10
7.83956e-08
-6.31935e-10
7.84113e-08
-7.02657e-10
7.84342e-08
-7.76985e-10
7.84671e-08
-8.54537e-10
7.85109e-08
-9.37086e-10
7.85682e-08
-1.02727e-09
7.86411e-08
-1.12634e-09
7.87306e-08
-1.23747e-09
7.88369e-08
-1.36487e-09
7.896e-08
-1.51302e-09
7.90991e-08
-1.6864e-09
7.92528e-08
-1.88915e-09
7.94188e-08
-2.12496e-09
7.95937e-08
-2.3953e-09
7.97727e-08
-2.70087e-09
7.99491e-08
-3.04018e-09
8.0111e-08
-3.40547e-09
8.0245e-08
-3.81558e-09
8.03064e-08
-3.68235e-09
8.02929e-08
-3.35901e-09
8.02252e-08
-3.0689e-09
8.01115e-08
-2.80749e-09
7.99399e-08
-2.54009e-09
7.97199e-08
-2.25779e-09
7.94695e-08
-1.96634e-09
7.91998e-08
-1.66447e-09
7.89222e-08
-1.35255e-09
7.86482e-08
-1.0329e-09
7.83893e-08
-7.09911e-10
7.81563e-08
-3.89762e-10
7.79586e-08
-7.97868e-11
7.78027e-08
2.13709e-10
7.76937e-08
4.81607e-10
7.76324e-08
7.18729e-10
7.76166e-08
9.20283e-10
7.76411e-08
1.08342e-09
7.76982e-08
1.20741e-09
7.77786e-08
1.29364e-09
7.78727e-08
1.3453e-09
7.79711e-08
1.36705e-09
1.36431e-09
7.80662e-08
9.87512e-08
-4.18656e-10
9.87782e-08
-4.71376e-10
9.88057e-08
-5.29624e-10
9.88343e-08
-5.93461e-10
9.88651e-08
-6.62829e-10
9.89001e-08
-7.3762e-10
9.89412e-08
-8.18076e-10
9.89912e-08
-9.04513e-10
9.90518e-08
-9.97688e-10
9.9124e-08
-1.09948e-09
9.92096e-08
-1.212e-09
9.93098e-08
-1.33759e-09
9.94244e-08
-1.47948e-09
9.95527e-08
-1.64136e-09
9.96933e-08
-1.82695e-09
9.98436e-08
-2.03944e-09
1e-07
-2.28149e-09
1.00158e-07
-2.55334e-09
1.00312e-07
-2.85437e-09
1.00452e-07
-3.18025e-09
1.00567e-07
-3.52057e-09
1.00637e-07
-3.88616e-09
1.0063e-07
-3.67538e-09
1.00565e-07
-3.29403e-09
1.00457e-07
-2.96001e-09
1.00288e-07
-2.63941e-09
1.00067e-07
-2.31834e-09
9.98109e-08
-2.00198e-09
9.95331e-08
-1.68852e-09
9.92443e-08
-1.3757e-09
9.89556e-08
-1.06378e-09
9.86776e-08
-7.54895e-10