/*--------------------------------*- C++ -*----------------------------------*\
| =========                 |                                                 |
| \\      /  F ield         | OpenFOAM: The Open Source CFD Toolbox           |
|  \\    /   O peration     | Version:  2312                                  |
|   \\  /    A nd           | Website:  www.openfoam.com                      |
|    \\/     M anipulation  |                                                 |
\*---------------------------------------------------------------------------*/
FoamFile
{
    version     2.0;
    format      ascii;
    arch        "LSB;label=32;scalar=64";
    class       volScalarField;
    location    "152";
    object      p;
}
// * * * * * * * * * * * * * * * * * * * * * * * * * * * * * * * * * * * * * //

dimensions      [0 2 -2 0 0 0 0];

internalField   nonuniform List<scalar> 
4800
(
-2.0631e-11
-1.72039e-06
-3.1945e-06
-4.47112e-06
-5.58311e-06
-6.55641e-06
-7.40926e-06
-8.16614e-06
-8.84134e-06
-9.44341e-06
-9.98462e-06
-1.04701e-05
-1.08937e-05
-1.14911e-05
-1.32598e-05
1.72085e-08
-1.69858e-06
-3.16911e-06
-4.44319e-06
-5.55399e-06
-6.52794e-06
-7.38277e-06
-8.14431e-06
-8.82647e-06
-9.43949e-06
-1.00011e-05
-1.05309e-05
-1.10455e-05
-1.16543e-05
-1.26184e-05
3.60227e-08
-1.67477e-06
-3.14159e-06
-4.41324e-06
-5.52286e-06
-6.497e-06
-7.35342e-06
-8.11678e-06
-8.80427e-06
-9.42545e-06
-9.99895e-06
-1.05454e-05
-1.10758e-05
-1.15989e-05
-1.20925e-05
5.61017e-08
-1.64894e-06
-3.11136e-06
-4.37993e-06
-5.48771e-06
-6.46108e-06
-7.31901e-06
-8.08132e-06
-8.77039e-06
-9.39352e-06
-9.96493e-06
-1.04966e-05
-1.09821e-05
-1.13894e-05
-1.16453e-05
7.91832e-08
-1.61891e-06
-3.07586e-06
-4.34034e-06
-5.44521e-06
-6.41639e-06
-7.27387e-06
-8.03397e-06
-8.7183e-06
-9.33494e-06
-9.88991e-06
-1.03848e-05
-1.08014e-05
-1.11e-05
-1.12228e-05
1.06863e-07
-1.58289e-06
-3.03305e-06
-4.29209e-06
-5.39255e-06
-6.35963e-06
-7.21295e-06
-7.96831e-06
-8.64151e-06
-9.24094e-06
-9.76585e-06
-1.021e-05
-1.0553e-05
-1.07643e-05
-1.08149e-05
1.41264e-07
-1.53862e-06
-2.98036e-06
-4.23219e-06
-5.3261e-06
-6.28629e-06
-7.13141e-06
-7.87595e-06
-8.53158e-06
-9.10331e-06
-9.58742e-06
-9.97492e-06
-1.02503e-05
-1.03985e-05
-1.04129e-05
1.85638e-07
-1.48267e-06
-2.91398e-06
-4.15621e-06
-5.24062e-06
-6.19015e-06
-7.02205e-06
-7.74891e-06
-8.3792e-06
-8.91492e-06
-9.3524e-06
-9.68471e-06
-9.90459e-06
-1.00104e-05
-1.00084e-05
2.44413e-07
-1.4103e-06
-2.8286e-06
-4.05815e-06
-5.12921e-06
-6.06327e-06
-6.87601e-06
-7.57819e-06
-8.17635e-06
-8.67092e-06
-9.06108e-06
-9.34481e-06
-9.52286e-06
-9.6024e-06
-9.59547e-06
3.22694e-07
-1.31577e-06
-2.71768e-06
-3.93054e-06
-4.98352e-06
-5.89653e-06
-6.68381e-06
-7.35483e-06
-7.91511e-06
-8.36837e-06
-8.7151e-06
-8.95946e-06
-9.10839e-06
-9.1737e-06
-9.16887e-06
4.25521e-07
-1.19314e-06
-2.57417e-06
-3.76528e-06
-4.79458e-06
-5.68057e-06
-6.43659e-06
-7.07198e-06
-7.5933e-06
-8.00625e-06
-8.31639e-06
-8.53147e-06
-8.66209e-06
-8.72191e-06
-8.72391e-06
5.57116e-07
-1.03702e-06
-2.39153e-06
-3.55474e-06
-4.55419e-06
-5.40743e-06
-6.12764e-06
-6.72513e-06
-7.20843e-06
-7.58602e-06
-7.86711e-06
-8.06238e-06
-8.18363e-06
-8.24444e-06
-8.25664e-06
7.16567e-07
-8.44788e-07
-2.16507e-06
-3.29319e-06
-4.25633e-06
-5.07183e-06
-5.75362e-06
-6.31348e-06
-6.7622e-06
-7.1108e-06
-7.37069e-06
-7.554e-06
-7.67277e-06
-7.73947e-06
-7.76445e-06
9.00001e-07
-6.16616e-07
-1.8932e-06
-2.97838e-06
-3.89868e-06
-4.67225e-06
-5.31473e-06
-5.83947e-06
-6.2587e-06
-6.58497e-06
-6.83086e-06
-7.00883e-06
-7.13039e-06
-7.2066e-06
-7.2463e-06
1.10536e-06
-3.56892e-07
-1.57883e-06
-2.61235e-06
-3.48372e-06
-4.21177e-06
-4.81469e-06
-5.30765e-06
-5.70311e-06
-6.01358e-06
-6.25166e-06
-6.4295e-06
-6.55776e-06
-6.6461e-06
-6.70203e-06
1.32394e-06
-7.13569e-08
-1.22829e-06
-2.20238e-06
-3.02014e-06
-3.69995e-06
-4.26239e-06
-4.72565e-06
-5.10205e-06
-5.40237e-06
-5.63776e-06
-5.81942e-06
-5.95714e-06
-6.05942e-06
-6.13271e-06
1.53911e-06
2.33615e-07
-8.50906e-07
-1.75935e-06
-2.52197e-06
-3.15259e-06
-3.67363e-06
-4.10696e-06
-4.46597e-06
-4.7594e-06
-4.99558e-06
-5.18373e-06
-5.33262e-06
-5.44988e-06
-5.54122e-06
1.72683e-06
5.37047e-07
-4.61166e-07
-1.29688e-06
-2.00067e-06
-2.58405e-06
-3.06698e-06
-3.47077e-06
-3.81148e-06
-4.09817e-06
-4.33617e-06
-4.53178e-06
-4.69227e-06
-4.82449e-06
-4.93365e-06
1.86954e-06
8.04565e-07
-8.82275e-08
-8.39825e-07
-1.47568e-06
-2.01206e-06
-2.4609e-06
-2.83789e-06
-3.15946e-06
-3.43736e-06
-3.67542e-06
-3.87721e-06
-4.04812e-06
-4.19398e-06
-4.31949e-06
1.95423e-06
1.01729e-06
2.37037e-07
-4.24888e-07
-9.89921e-07
-1.46936e-06
-1.87908e-06
-2.22889e-06
-2.53263e-06
-2.80028e-06
-3.03494e-06
-3.2395e-06
-3.41817e-06
-3.57549e-06
-3.71525e-06
1.96765e-06
1.16295e-06
4.85102e-07
-9.15416e-08
-5.84093e-07
-1.00958e-06
-1.37597e-06
-1.69899e-06
-1.98698e-06
-2.24172e-06
-2.46825e-06
-2.66997e-06
-2.85083e-06
-3.01415e-06
-3.16283e-06
1.93318e-06
1.24042e-06
6.49496e-07
1.4261e-07
-2.96378e-07
-6.79732e-07
-1.01821e-06
-1.31533e-06
-1.57795e-06
-1.81625e-06
-2.03487e-06
-2.23333e-06
-2.41295e-06
-2.57765e-06
-2.73015e-06
1.89981e-06
1.29231e-06
7.68715e-07
3.14584e-07
-8.25964e-08
-4.32895e-07
-7.43948e-07
-1.02164e-06
-1.27243e-06
-1.50123e-06
-1.71098e-06
-1.90422e-06
-2.08256e-06
-2.24817e-06
-2.40321e-06
1.87891e-06
1.3358e-06
8.62753e-07
4.47994e-07
8.17134e-08
-2.44365e-07
-5.37046e-07
-8.01846e-07
-1.04325e-06
-1.26483e-06
-1.46948e-06
-1.65953e-06
-1.83685e-06
-2.00321e-06
-2.16034e-06
1.8751e-06
1.3801e-06
9.44448e-07
5.58466e-07
2.14243e-07
-9.51311e-08
-3.75396e-07
-6.31113e-07
-8.6596e-07
-1.08301e-06
-1.28487e-06
-1.47365e-06
-1.65118e-06
-1.819e-06
-1.97865e-06
1.88758e-06
1.4283e-06
1.01996e-06
6.54611e-07
3.25749e-07
2.76504e-08
-2.44479e-07
-4.94542e-07
-7.25771e-07
-9.40875e-07
-1.14217e-06
-1.33157e-06
-1.51075e-06
-1.68112e-06
-1.8441e-06
1.91151e-06
1.4787e-06
1.09017e-06
7.39412e-07
4.21028e-07
1.30215e-07
-1.37125e-07
-3.84399e-07
-6.14459e-07
-8.29697e-07
-1.03217e-06
-1.22361e-06
-1.40557e-06
-1.57939e-06
-1.74637e-06
1.94117e-06
1.52817e-06
1.15411e-06
8.13661e-07
5.02282e-07
2.15869e-07
-4.91163e-08
-2.95642e-07
-5.26213e-07
-7.42951e-07
-9.4771e-07
-1.14208e-06
-1.32753e-06
-1.50529e-06
-1.67664e-06
1.97196e-06
1.57413e-06
1.21083e-06
8.77732e-07
5.70973e-07
2.87018e-07
2.2814e-08
-2.24221e-07
-4.56296e-07
-6.75315e-07
-8.82968e-07
-1.08074e-06
-1.26998e-06
-1.4519e-06
-1.6277e-06
2.00092e-06
1.61501e-06
1.25995e-06
9.3222e-07
6.28531e-07
3.45834e-07
8.14948e-08
-1.66738e-07
-4.00826e-07
-6.22488e-07
-8.33274e-07
-1.03456e-06
-1.22763e-06
-1.41363e-06
-1.59373e-06
2.02648e-06
1.65024e-06
1.30169e-06
9.78043e-07
6.76464e-07
3.94333e-07
1.2938e-07
-1.20361e-07
-3.56637e-07
-5.81007e-07
-7.94893e-07
-9.99581e-07
-1.19629e-06
-1.38612e-06
-1.5702e-06
2.04812e-06
1.67991e-06
1.33671e-06
1.0163e-06
7.16249e-07
4.34319e-07
1.68558e-07
-8.27552e-08
-3.21181e-07
-5.48132e-07
-7.64921e-07
-9.72753e-07
-1.17279e-06
-1.36608e-06
-1.55374e-06
2.06588e-06
1.70453e-06
1.36584e-06
1.04811e-06
7.49244e-07
4.67349e-07
2.00753e-07
-5.20551e-08
-2.92469e-07
-5.21773e-07
-7.41182e-07
-9.51829e-07
-1.15483e-06
-1.35119e-06
-1.542e-06
2.08016e-06
1.72475e-06
1.38996e-06
1.07452e-06
7.76631e-07
4.94719e-07
2.27348e-07
-2.68082e-08
-2.68995e-07
-5.00383e-07
-7.22101e-07
-9.35219e-07
-1.1408e-06
-1.33984e-06
-1.53339e-06
2.09144e-06
1.74124e-06
1.40988e-06
1.09643e-06
7.99404e-07
5.17479e-07
2.4943e-07
-5.90397e-09
-2.49637e-07
-4.82838e-07
-7.06561e-07
-9.21818e-07
-1.12964e-06
-1.33097e-06
-1.52688e-06
2.10023e-06
1.75463e-06
1.4263e-06
1.11463e-06
8.18367e-07
5.36451e-07
2.6783e-07
1.14886e-08
-2.33573e-07
-4.68335e-07
-6.9378e-07
-9.10875e-07
-1.12061e-06
-1.32392e-06
-1.52183e-06
2.10698e-06
1.76545e-06
1.4398e-06
1.1297e-06
8.34139e-07
5.52259e-07
2.83167e-07
2.59742e-08
-2.20216e-07
-4.56307e-07
-6.83221e-07
-9.01879e-07
-1.11324e-06
-1.31823e-06
-1.51786e-06
2.11214e-06
1.77421e-06
1.45094e-06
1.14225e-06
8.47331e-07
5.6551e-07
2.96033e-07
3.81242e-08
-2.0902e-07
-4.46238e-07
-6.74401e-07
-8.94391e-07
-1.10714e-06
-1.31356e-06
-1.51465e-06
2.11621e-06
1.78166e-06
1.46062e-06
1.15325e-06
8.58963e-07
5.77226e-07
3.07421e-07
4.88806e-08
-1.99111e-07
-4.37335e-07
-6.66616e-07
-8.87801e-07
-1.1018e-06
-1.3095e-06
-1.51191e-06
2.11945e-06
1.78829e-06
1.46942e-06
1.16337e-06
8.69716e-07
5.8809e-07
3.18e-07
5.88782e-08
-1.89958e-07
-4.29176e-07
-6.59546e-07
-8.8188e-07
-1.09706e-06
-1.30596e-06
-1.50958e-06
-1.48056e-05
-1.24927e-05
-1.10614e-05
-1.01022e-05
-9.32408e-06
-8.71033e-06
-8.21175e-06
-7.79457e-06
-7.43613e-06
-7.12119e-06
-6.83804e-06
-6.57898e-06
-6.33972e-06
-6.12017e-06
-5.92587e-06
-5.77009e-06
-5.6777e-06
-5.69043e-06
-5.86339e-06
-6.28569e-06
-7.05018e-06
-8.22824e-06
-9.73235e-06
-1.1211e-05
-1.24255e-05
-1.327e-05
-1.36927e-05
-1.36728e-05
-1.32088e-05
-1.23026e-05
-1.09683e-05
-9.22964e-06
-7.12311e-06
-4.698e-06
-2.015e-06
8.56558e-07
3.84165e-06
6.86149e-06
9.83276e-06
1.26635e-05
1.52381e-05
1.74113e-05
1.88676e-05
1.93705e-05
1.79499e-05
-1.30898e-05
-1.19145e-05
-1.08393e-05
-9.98878e-06
-9.25895e-06
-8.66123e-06
-8.16778e-06
-7.75151e-06
-7.39371e-06
-7.07874e-06
-6.79569e-06
-6.53703e-06
-6.29859e-06
-6.08047e-06
-5.88841e-06
-5.7358e-06
-5.64767e-06
-5.66554e-06
-5.84373e-06
-6.2706e-06
-7.03709e-06
-8.21156e-06
-9.70765e-06
-1.11773e-05
-1.23842e-05
-1.32233e-05
-1.36425e-05
-1.36224e-05
-1.3156e-05
-1.22511e-05
-1.0921e-05
-9.19145e-06
-7.10061e-06
-4.70015e-06
-2.05358e-06
7.65963e-07
3.67792e-06
6.59491e-06
9.4195e-06
1.20348e-05
1.42787e-05
1.59064e-05
1.64443e-05
1.51922e-05
1.11681e-05
-1.21846e-05
-1.14576e-05
-1.06066e-05
-9.85273e-06
-9.17654e-06
-8.60141e-06
-8.11672e-06
-7.70371e-06
-7.34667e-06
-7.03192e-06
-6.74906e-06
-6.49089e-06
-6.25345e-06
-6.03705e-06
-5.84769e-06
-5.69891e-06
-5.6159e-06
-5.63989e-06
-5.82427e-06
-6.2565e-06
-7.02517e-06
-8.19502e-06
-9.68097e-06
-1.1139e-05
-1.23359e-05
-1.31676e-05
-1.3582e-05
-1.3559e-05
-1.30925e-05
-1.21904e-05
-1.08679e-05
-9.15267e-06
-7.08565e-06
-4.72154e-06
-2.12771e-06
6.17652e-07
3.42679e-06
6.20169e-06
8.82896e-06
1.11677e-05
1.30228e-05
1.41085e-05
1.39769e-05
1.20944e-05
8.25415e-06
-1.1589e-05
-1.10728e-05
-1.03917e-05
-9.7162e-06
-9.09224e-06
-8.54153e-06
-8.0665e-06
-7.65667e-06
-7.30001e-06
-6.98485e-06
-6.70161e-06
-6.44347e-06
-6.20677e-06
-5.99205e-06
-5.80557e-06
-5.66097e-06
-5.5836e-06
-5.61438e-06
-5.80559e-06
-6.24372e-06
-7.01478e-06
-8.17927e-06
-9.65342e-06
-1.10976e-05
-1.22818e-05
-1.31033e-05
-1.35101e-05
-1.34817e-05
-1.30133e-05
-1.21131e-05
-1.07991e-05
-9.10161e-06
-7.06512e-06
-4.74838e-06
-2.22362e-06
4.2481e-07
3.10108e-06
5.69639e-06
8.08357e-06
1.01068e-05
1.1564e-05
1.2191e-05
1.16649e-05
9.70746e-06
6.46742e-06
-1.1112e-05
-1.07214e-05
-1.01734e-05
-9.58322e-06
-9.00981e-06
-8.4842e-06
-8.01938e-06
-7.61227e-06
-7.25521e-06
-6.93874e-06
-6.6543e-06
-6.39565e-06
-6.15946e-06
-5.94649e-06
-5.76328e-06
-5.62351e-06
-5.55266e-06
-5.59119e-06
-5.79004e-06
-6.23456e-06
-7.00783e-06
-8.16543e-06
-9.62514e-06
-1.10525e-05
-1.2221e-05
-1.30296e-05
-1.34268e-05
-1.33919e-05
-1.29215e-05
-1.20251e-05
-1.07235e-05
-9.05056e-06
-7.05497e-06
-4.80015e-06
-2.36371e-06
1.63651e-07
2.67858e-06
5.06385e-06
7.18478e-06
8.88413e-06
9.97756e-06
1.02637e-05
9.55238e-06
7.76124e-06
5.08989e-06
-1.06955e-05
-1.03908e-05
-9.94544e-06
-9.43962e-06
-8.92259e-06
-8.42638e-06
-7.97498e-06
-7.57138e-06
-7.21384e-06
-6.89543e-06
-6.60905e-06
-6.34933e-06
-6.11338e-06
-5.9023e-06
-5.72285e-06
-5.58873e-06
-5.52543e-06
-5.57284e-06
-5.78022e-06
-6.23151e-06
-7.00649e-06
-8.15492e-06
-9.59662e-06
-1.10033e-05
-1.21524e-05
-1.29451e-05
-1.33305e-05
-1.32885e-05
-1.28169e-05
-1.19274e-05
-1.06442e-05
-9.00513e-06
-7.0635e-06
-4.88773e-06
-2.56081e-06
-1.79026e-07
2.14884e-06
4.30172e-06
6.14604e-06
7.53732e-06
8.32695e-06
8.38172e-06
7.61983e-06
6.07059e-06
3.93922e-06
-1.0303e-05
-1.00628e-05
-9.70604e-06
-9.27643e-06
-8.81495e-06
-8.36019e-06
-7.92755e-06
-7.53177e-06
-7.17582e-06
-6.85613e-06
-6.56781e-06
-6.30685e-06
-6.07113e-06
-5.8622e-06
-5.68714e-06
-5.55959e-06
-5.505e-06
-5.56247e-06
-5.7792e-06
-6.23744e-06
-7.01325e-06
-8.14947e-06
-9.56861e-06
-1.09497e-05
-1.20749e-05
-1.28479e-05
-1.32191e-05
-1.31692e-05
-1.26978e-05
-1.18195e-05
-1.05621e-05
-8.96806e-06
-7.09548e-06
-5.01766e-06
-2.82216e-06
-6.09068e-07
1.51094e-06
3.41892e-06
4.99121e-06
6.10632e-06
6.65735e-06
6.57198e-06
5.83902e-06
4.53541e-06
2.83971e-06
-9.91369e-06
-9.72352e-06
-9.43972e-06
-9.08321e-06
-8.68372e-06
-8.27209e-06
-7.86796e-06
-7.48749e-06
-7.13789e-06
-6.81976e-06
-6.53113e-06
-6.26989e-06
-6.03515e-06
-5.82916e-06
-5.6595e-06
-5.53974e-06
-5.49517e-06
-5.564e-06
-5.79084e-06
-6.25586e-06
-7.03104e-06
-8.15104e-06
-9.54194e-06
-1.08915e-05
-1.19872e-05
-1.27361e-05
-1.30902e-05
-1.30319e-05
-1.25629e-05
-1.17012e-05
-1.04788e-05
-8.94306e-06
-7.1565e-06
-5.1966e-06
-3.15388e-06
-1.12934e-06
7.68891e-07
2.43012e-06
3.74748e-06
4.62728e-06
5.00161e-06
4.84329e-06
4.17912e-06
3.09663e-06
1.73796e-06
-9.51728e-06
-9.36717e-06
-9.14286e-06
-8.85294e-06
-8.51563e-06
-8.15345e-06
-7.78612e-06
-7.42947e-06
-7.09338e-06
-6.78224e-06
-6.49719e-06
-6.23848e-06
-6.00686e-06
-5.80567e-06
-5.64322e-06
-5.533e-06
-5.50013e-06
-5.58179e-06
-5.8194e-06
-6.29068e-06
-7.06299e-06
-8.16151e-06
-9.51721e-06
-1.0828e-05
-1.18877e-05
-1.26072e-05
-1.29414e-05
-1.28744e-05
-1.24113e-05
-1.15734e-05
-1.03974e-05
-8.93505e-06
-7.2529e-06
-5.43101e-06
-3.5604e-06
-1.73943e-06
-6.90255e-08
1.35338e-06
2.44138e-06
3.12862e-06
3.37838e-06
3.19195e-06
2.61154e-06
1.71826e-06
6.21016e-07
-9.10767e-06
-8.99089e-06
-8.81554e-06
-8.5839e-06
-8.30575e-06
-7.99642e-06
-7.67226e-06
-7.3477e-06
-7.03364e-06
-6.73702e-06
-6.46176e-06
-6.21052e-06
-5.98604e-06
-5.79298e-06
-5.64069e-06
-5.54264e-06
-5.52369e-06
-5.61993e-06
-5.86894e-06
-6.34558e-06
-7.11184e-06
-8.18201e-06
-9.49432e-06
-1.0758e-05
-1.17739e-05
-1.24585e-05
-1.277e-05
-1.26953e-05
-1.22427e-05
-1.14379e-05
-1.03217e-05
-8.94966e-06
-7.39094e-06
-5.726e-06
-4.04337e-06
-2.43499e-06
-9.90698e-07
2.08292e-07
1.09636e-06
1.63039e-06
1.7953e-06
1.60766e-06
1.112e-06
3.76769e-07
-5.15993e-07
-8.6801e-06
-8.59238e-06
-8.45822e-06
-8.27711e-06
-8.05354e-06
-7.79707e-06
-7.51987e-06
-7.23409e-06
-6.95027e-06
-6.67657e-06
-6.41884e-06
-6.1819e-06
-5.97039e-06
-5.79045e-06
-5.65263e-06
-5.57037e-06
-5.56828e-06
-5.68107e-06
-5.9421e-06
-6.42296e-06
-7.17899e-06
-8.21202e-06
-9.47206e-06
-1.06791e-05
-1.16428e-05
-1.22866e-05
-1.25735e-05
-1.24933e-05
-1.20582e-05
-1.12978e-05
-1.02566e-05
-8.99282e-06
-7.57601e-06
-6.08446e-06
-4.60096e-06
-3.20785e-06
-1.98139e-06
-9.85932e-07
-2.68529e-07
1.4536e-07
2.54033e-07
7.84129e-08
-3.39047e-07
-9.43947e-07
-1.67516e-06
-8.23075e-06
-8.1695e-06
-8.07116e-06
-7.93427e-06
-7.76031e-06
-7.55478e-06
-7.32605e-06
-7.08367e-06
-6.8369e-06
-6.59405e-06
-6.36202e-06
-6.14718e-06
-5.95579e-06
-5.79529e-06
-5.67743e-06
-5.61556e-06
-5.6339e-06
-5.76535e-06
-6.0389e-06
-6.5227e-06
-7.26206e-06
-8.24875e-06
-9.44734e-06
-1.05883e-05
-1.14902e-05
-1.20883e-05
-1.23499e-05
-1.22685e-05
-1.18599e-05
-1.11573e-05
-1.02078e-05
-9.06998e-06
-7.81171e-06
-6.50611e-06
-5.22748e-06
-4.04638e-06
-3.02476e-06
-2.21143e-06
-1.63854e-06
-1.31971e-06
-1.24989e-06
-1.40735e-06
-1.7564e-06
-2.25494e-06
-2.8575e-06
-7.75707e-06
-7.7208e-06
-7.6547e-06
-7.55719e-06
-7.4283e-06
-7.27093e-06
-7.09054e-06
-6.8942e-06
-6.68954e-06
-6.48428e-06
-6.28555e-06
-6.10064e-06
-5.9369e-06
-5.80284e-06
-5.71102e-06
-5.67463e-06
-5.71733e-06
-5.86927e-06
-6.15577e-06
-6.64103e-06
-7.35294e-06
-8.28854e-06
-9.41338e-06
-1.04797e-05
-1.13122e-05
-1.18606e-05
-1.20984e-05
-1.20224e-05
-1.16517e-05
-1.10218e-05
-1.01806e-05
-9.18512e-06
-8.09861e-06
-6.98664e-06
-5.91306e-06
-4.93586e-06
-4.10341e-06
-3.45147e-06
-3.00128e-06
-2.75915e-06
-2.71743e-06
-2.85686e-06
-3.14989e-06
-3.56281e-06
-4.06274e-06
-7.25803e-06
-7.24587e-06
-7.2096e-06
-7.14788e-06
-7.06023e-06
-6.94805e-06
-6.81479e-06
-6.66551e-06
-6.50623e-06
-6.3437e-06
-6.1847e-06
-6.03677e-06
-5.90777e-06
-5.80693e-06
-5.74703e-06
-5.74105e-06
-5.81185e-06
-5.98503e-06
-6.28541e-06
-6.76842e-06
-7.44384e-06
-8.32866e-06
-9.36385e-06
-1.03392e-05
-1.11024e-05
-1.16013e-05
-1.18199e-05
-1.17586e-05
-1.14387e-05
-1.08969e-05
-1.01795e-05
-9.33947e-06
-8.43326e-06
-7.51711e-06
-6.64363e-06
-5.85867e-06
-5.19881e-06
-4.68967e-06
-4.34512e-06
-4.16759e-06
-4.14937e-06
-4.27474e-06
-4.52245e-06
-4.86889e-06
-5.28812e-06
-6.73346e-06
-6.74499e-06
-6.73696e-06
-6.70847e-06
-6.65896e-06
-6.58912e-06
-6.50118e-06
-6.39874e-06
-6.28646e-06
-6.17001e-06
-6.05549e-06
-5.95011e-06
-5.86183e-06
-5.79995e-06
-5.777e-06
-5.80539e-06
-5.90642e-06
-6.10209e-06
-6.41403e-06
-6.88862e-06
-7.53538e-06
-8.3522e-06
-9.28778e-06
-1.01617e-05
-1.08545e-05
-1.13097e-05
-1.15172e-05
-1.14822e-05
-1.12272e-05
-1.07877e-05
-1.02065e-05
-9.53039e-06
-8.80739e-06
-8.08377e-06
-7.4012e-06
-6.79472e-06
-6.29134e-06
-5.90926e-06
-5.65778e-06
-5.53772e-06
-5.54265e-06
-5.66062e-06
-5.87595e-06
-6.17116e-06
-6.52796e-06
-6.18443e-06
-6.21946e-06
-6.23862e-06
-6.2414e-06
-6.22749e-06
-6.19735e-06
-6.15253e-06
-6.0957e-06
-6.0305e-06
-5.96162e-06
-5.89441e-06
-5.83499e-06
-5.79155e-06
-5.77274e-06
-5.79018e-06
-5.85552e-06
-5.98704e-06
-6.20462e-06
-6.52512e-06
-6.98419e-06
-7.59874e-06
-8.3415e-06
-9.17068e-06
-9.94914e-06
-1.0571e-05
-1.09891e-05
-1.1196e-05
-1.11998e-05
-1.10228e-05
-1.0697e-05
-1.02599e-05
-9.75065e-06
-9.20815e-06
-8.66892e-06
-8.16494e-06
-7.72228e-06
-7.36054e-06
-7.09281e-06
-6.92566e-06
-6.85962e-06
-6.89003e-06
-7.00836e-06
-7.2035e-06
-7.46306e-06
-7.77402e-06
-5.61359e-06
-5.67199e-06
-5.71744e-06
-5.74986e-06
-5.76929e-06
-5.77623e-06
-5.77193e-06
-5.75848e-06
-5.73875e-06
-5.71658e-06
-5.69656e-06
-5.68497e-06
-5.68805e-06
-5.71387e-06
-5.77285e-06
-5.87573e-06
-6.03725e-06
-6.27382e-06
-6.59934e-06
-7.03838e-06
-7.60497e-06
-8.27892e-06
-9.01098e-06
-9.69713e-06
-1.02528e-05
-1.06429e-05
-1.08613e-05
-1.09167e-05
-1.08285e-05
-1.06239e-05
-1.03335e-05
-9.98844e-06
-9.61892e-06
-9.25259e-06
-8.91322e-06
-8.61985e-06
-8.38673e-06
-8.22342e-06
-8.13495e-06
-8.12214e-06
-8.18213e-06
-8.30934e-06
-8.49632e-06
-8.73463e-06
-9.01519e-06
-5.02636e-06
-5.10743e-06
-5.17794e-06
-5.23812e-06
-5.28838e-06
-5.32943e-06
-5.36245e-06
-5.38919e-06
-5.41208e-06
-5.43431e-06
-5.45989e-06
-5.49369e-06
-5.54152e-06
-5.61028e-06
-5.70854e-06
-5.84587e-06
-6.03417e-06
-6.28563e-06
-6.61493e-06
-7.02575e-06
-7.543e-06
-8.15126e-06
-8.79792e-06
-9.3989e-06
-9.89901e-06
-1.02734e-05
-1.05162e-05
-1.0634e-05
-1.06421e-05
-1.05614e-05
-1.04153e-05
-1.02274e-05
-1.002e-05
-9.81348e-06
-9.6248e-06
-9.46772e-06
-9.35263e-06
-9.28674e-06
-9.27412e-06
-9.316e-06
-9.41107e-06
-9.5561e-06
-9.74649e-06
-9.97679e-06
-1.0241e-05
-4.43095e-06
-4.53287e-06
-4.62624e-06
-4.71147e-06
-4.78931e-06
-4.8607e-06
-4.92685e-06
-4.98933e-06
-5.05022e-06
-5.11219e-06
-5.17858e-06
-5.25341e-06
-5.3415e-06
-5.4485e-06
-5.58107e-06
-5.74672e-06
-5.95443e-06
-6.21341e-06
-6.52902e-06
-6.92683e-06
-7.40007e-06
-7.94624e-06
-8.51811e-06
-9.051e-06
-9.51116e-06
-9.88262e-06
-1.01598e-05
-1.03465e-05
-1.0453e-05
-1.04936e-05
-1.04847e-05
-1.04433e-05
-1.03854e-05
-1.03251e-05
-1.02742e-05
-1.02426e-05
-1.02379e-05
-1.02656e-05
-1.0329e-05
-1.04297e-05
-1.05674e-05
-1.07408e-05
-1.09472e-05
-1.11834e-05
-1.14456e-05
-3.84304e-06
-3.96279e-06
-4.0755e-06
-4.18183e-06
-4.28282e-06
-4.37959e-06
-4.4734e-06
-4.5657e-06
-4.65827e-06
-4.75336e-06
-4.85369e-06
-4.96251e-06
-5.08374e-06
-5.22182e-06
-5.38201e-06
-5.57019e-06
-5.79196e-06
-6.05455e-06
-6.36813e-06
-6.7347e-06
-7.16541e-06
-7.65576e-06
-8.16955e-06
-8.65609e-06
-9.09295e-06
-9.4713e-06
-9.78757e-06
-1.00434e-05
-1.02441e-05
-1.03981e-05
-1.05156e-05
-1.06078e-05
-1.06854e-05
-1.07578e-05
-1.08331e-05
-1.09181e-05
-1.10183e-05
-1.11377e-05
-1.12791e-05
-1.1444e-05
-1.16331e-05
-1.1846e-05
-1.20817e-05
-1.23383e-05
-1.26137e-05
-3.30165e-06
-3.4341e-06
-3.56102e-06
-3.68308e-06
-3.80134e-06
-3.91698e-06
-4.03125e-06
-4.1455e-06
-4.26133e-06
-4.38062e-06
-4.50563e-06
-4.63898e-06
-4.78371e-06
-4.94342e-06
-5.12188e-06
-5.32413e-06
-5.55608e-06
-5.82256e-06
-6.13011e-06
-6.47708e-06
-6.87626e-06
-7.32689e-06
-7.80216e-06
-8.26162e-06
-8.69074e-06
-9.08527e-06
-9.44208e-06
-9.76031e-06
-1.00416e-05
-1.02904e-05
-1.05126e-05
-1.07153e-05
-1.0905e-05
-1.10877e-05
-1.12688e-05
-1.1453e-05
-1.16439e-05
-1.18445e-05
-1.20571e-05
-1.22834e-05
-1.25242e-05
-1.27798e-05
-1.30501e-05
-1.33342e-05
-1.3631e-05
-2.87442e-06
-3.01347e-06
-3.1482e-06
-3.27928e-06
-3.40771e-06
-3.53465e-06
-3.66128e-06
-3.78888e-06
-3.91886e-06
-4.05287e-06
-4.19281e-06
-4.3409e-06
-4.4997e-06
-4.67198e-06
-4.86122e-06
-5.07081e-06
-5.30361e-06
-5.56615e-06
-5.86466e-06
-6.21267e-06
-6.59688e-06
-7.02533e-06
-7.4805e-06
-7.92842e-06
-8.35815e-06
-8.76787e-06
-9.15474e-06
-9.51673e-06
-9.85399e-06
-1.01688e-05
-1.04646e-05
-1.07455e-05
-1.10156e-05
-1.12789e-05
-1.15389e-05
-1.17985e-05
-1.20604e-05
-1.23267e-05
-1.25993e-05
-1.28795e-05
-1.31682e-05
-1.34659e-05
-1.37724e-05
-1.40876e-05
-1.4411e-05
-2.55113e-06
-2.69467e-06
-2.83471e-06
-2.97197e-06
-3.10742e-06
-3.24216e-06
-3.37734e-06
-3.51415e-06
-3.65393e-06
-3.79816e-06
-3.94856e-06
-4.10708e-06
-4.27593e-06
-4.45756e-06
-4.6549e-06
-4.87127e-06
-5.11047e-06
-5.37728e-06
-5.67563e-06
-6.01009e-06
-6.38113e-06
-6.79531e-06
-7.23748e-06
-7.67879e-06
-8.10995e-06
-8.52926e-06
-8.93426e-06
-9.3232e-06
-9.69591e-06
-1.00535e-05
-1.0398e-05
-1.07318e-05
-1.10575e-05
-1.13774e-05
-1.16938e-05
-1.20086e-05
-1.23236e-05
-1.26404e-05
-1.29603e-05
-1.32841e-05
-1.36127e-05
-1.39462e-05
-1.42849e-05
-1.46287e-05
-1.49772e-05
-2.31121e-06
-2.45824e-06
-2.60236e-06
-2.74437e-06
-2.88524e-06
-3.02602e-06
-3.1678e-06
-3.31174e-06
-3.45908e-06
-3.61122e-06
-3.76974e-06
-3.93641e-06
-4.11324e-06
-4.30251e-06
-4.50684e-06
-4.72907e-06
-4.97238e-06
-5.24038e-06
-5.53585e-06
-5.86357e-06
-6.22704e-06
-6.63181e-06
-7.06443e-06
-7.50005e-06
-7.93032e-06
-8.35366e-06
-8.7683e-06
-9.17306e-06
-9.56766e-06
-9.95265e-06
-1.03291e-05
-1.06984e-05
-1.10619e-05
-1.14211e-05
-1.17772e-05
-1.21317e-05
-1.24857e-05
-1.28402e-05
-1.3196e-05
-1.35536e-05
-1.39135e-05
-1.4276e-05
-1.46413e-05
-1.50091e-05
-1.53793e-05
-2.13269e-06
-2.28333e-06
-2.43153e-06
-2.57813e-06
-2.72409e-06
-2.87044e-06
-3.01823e-06
-3.16854e-06
-3.32258e-06
-3.48167e-06
-3.6473e-06
-3.82109e-06
-4.0049e-06
-4.20075e-06
-4.41083e-06
-4.63759e-06
-4.88395e-06
-5.15283e-06
-5.44784e-06
-5.77223e-06
-6.13042e-06
-6.52708e-06
-6.95054e-06
-7.37925e-06
-7.80575e-06
-8.22883e-06
-8.64726e-06
-9.06021e-06
-9.46741e-06
-9.86905e-06
-1.02656e-05
-1.06578e-05
-1.10463e-05
-1.1432e-05
-1.18157e-05
-1.21982e-05
-1.258e-05
-1.29619e-05
-1.33441e-05
-1.37272e-05
-1.41113e-05
-1.44966e-05
-1.4883e-05
-1.52703e-05
-1.56584e-05
-2.00198e-06
-2.15676e-06
-2.30943e-06
-2.46086e-06
-2.61201e-06
-2.76388e-06
-2.91747e-06
-3.07385e-06
-3.23416e-06
-3.39969e-06
-3.57179e-06
-3.752e-06
-3.94197e-06
-4.14352e-06
-4.35869e-06
-4.58968e-06
-4.83902e-06
-5.10937e-06
-5.40382e-06
-5.72577e-06
-6.07902e-06
-6.46762e-06
-6.88147e-06
-7.30191e-06
-7.72254e-06
-8.14241e-06
-8.56061e-06
-8.97654e-06
-9.38992e-06
-9.80073e-06
-1.02091e-05
-1.06154e-05
-1.10199e-05
-1.14231e-05
-1.18253e-05
-1.22269e-05
-1.26283e-05
-1.30297e-05
-1.34313e-05
-1.38333e-05
-1.42357e-05
-1.46384e-05
-1.50413e-05
-1.54442e-05
-1.58466e-05
-1.9086e-06
-2.06793e-06
-2.22535e-06
-2.38176e-06
-2.53814e-06
-2.69544e-06
-2.85464e-06
-3.01677e-06
-3.18296e-06
-3.35442e-06
-3.53243e-06
-3.71842e-06
-3.91389e-06
-4.12054e-06
-4.3402e-06
-4.57483e-06
-4.82674e-06
-5.09819e-06
-5.39212e-06
-5.71147e-06
-6.05958e-06
-6.43999e-06
-6.8439e-06
-7.2553e-06
-7.66878e-06
-8.08354e-06
-8.49886e-06
-8.91427e-06
-9.32952e-06
-9.74449e-06
-1.01591e-05
-1.05735e-05
-1.09878e-05
-1.1402e-05
-1.18163e-05
-1.22308e-05
-1.26457e-05
-1.30609e-05
-1.34765e-05
-1.38924e-05
-1.43084e-05
-1.47244e-05
-1.51401e-05
-1.55551e-05
-1.59691e-05
-1.84348e-06
-2.00752e-06
-2.16976e-06
-2.33114e-06
-2.49262e-06
-2.65512e-06
-2.81962e-06
-2.98712e-06
-3.15872e-06
-3.33556e-06
-3.51888e-06
-3.71001e-06
-3.91035e-06
-4.12142e-06
-4.34478e-06
-4.58261e-06
-4.83636e-06
-5.10853e-06
-5.40158e-06
-5.71801e-06
-6.06083e-06
-6.43304e-06
-6.82698e-06
-7.22909e-06
-7.63477e-06
-8.04329e-06
-8.45409e-06
-8.86681e-06
-9.28122e-06
-9.69714e-06
-1.01144e-05
-1.0533e-05
-1.09528e-05
-1.13737e-05
-1.17957e-05
-1.22188e-05
-1.26429e-05
-1.30679e-05
-1.34935e-05
-1.39196e-05
-1.43458e-05
-1.47719e-05
-1.51975e-05
-1.56221e-05
-1.60453e-05
-1.79914e-06
-1.96781e-06
-2.13474e-06
-2.30087e-06
-2.46714e-06
-2.63447e-06
-2.80382e-06
-2.97619e-06
-3.15263e-06
-3.33426e-06
-3.52225e-06
-3.71783e-06
-3.92233e-06
-4.13711e-06
-4.3639e-06
-4.60376e-06
-4.85895e-06
-5.13138e-06
-5.42314e-06
-5.73645e-06
-6.07393e-06
-6.4381e-06
-6.82234e-06
-7.21528e-06
-7.61298e-06
-8.01478e-06
-8.42024e-06
-8.82909e-06
-9.2411e-06
-9.65606e-06
-1.00738e-05
-1.0494e-05
-1.09167e-05
-1.13415e-05
-1.17684e-05
-1.21972e-05
-1.26277e-05
-1.30595e-05
-1.34923e-05
-1.3926e-05
-1.436e-05
-1.4794e-05
-1.52274e-05
-1.56598e-05
-1.60906e-05
-1.76956e-06
-1.94259e-06
-2.11388e-06
-2.28438e-06
-2.45501e-06
-2.62669e-06
-2.80036e-06
-2.97703e-06
-3.15771e-06
-3.34348e-06
-3.53546e-06
-3.73483e-06
-3.94278e-06
-4.16051e-06
-4.38987e-06
-4.63162e-06
-4.88775e-06
-5.16e-06
-5.45023e-06
-5.76031e-06
-6.09256e-06
-6.44902e-06
-6.82407e-06
-7.20825e-06
-7.59818e-06
-7.99325e-06
-8.39314e-06
-8.79763e-06
-9.2065e-06
-9.61948e-06
-1.00364e-05
-1.04569e-05
-1.08808e-05
-1.13079e-05
-1.17378e-05
-1.21704e-05
-1.26053e-05
-1.3042e-05
-1.34804e-05
-1.39198e-05
-1.43599e-05
-1.48001e-05
-1.524e-05
-1.56788e-05
-1.61161e-05
-1.75005e-06
-1.92706e-06
-2.10229e-06
-2.27669e-06
-2.45117e-06
-2.62666e-06
-2.8041e-06
-2.98448e-06
-3.1688e-06
-3.3581e-06
-3.55345e-06
-3.75597e-06
-3.9668e-06
-4.18721e-06
-4.41844e-06
-4.66152e-06
-4.91813e-06
-5.18994e-06
-5.47849e-06
-5.78536e-06
-6.1126e-06
-6.46185e-06
-6.82836e-06
-7.2044e-06
-7.58701e-06
-7.97568e-06
-8.37016e-06
-8.77025e-06
-9.17572e-06
-9.58631e-06
-1.00017e-05
-1.04218e-05
-1.08461e-05
-1.12743e-05
-1.17063e-05
-1.21414e-05
-1.25795e-05
-1.30201e-05
-1.34626e-05
-1.39067e-05
-1.43517e-05
-1.47971e-05
-1.52423e-05
-1.56867e-05
-1.61295e-05
-1.73719e-06
-1.91773e-06
-2.09643e-06
-2.27423e-06
-2.45206e-06
-2.63083e-06
-2.81151e-06
-2.99505e-06
-3.18245e-06
-3.37472e-06
-3.57289e-06
-3.77802e-06
-3.99118e-06
-4.21356e-06
-4.44665e-06
-4.69055e-06
-4.94733e-06
-5.21856e-06
-5.50539e-06
-5.80918e-06
-6.13173e-06
-6.47432e-06
-6.83306e-06
-7.20165e-06
-7.57755e-06
-7.9603e-06
-8.34973e-06
-8.74563e-06
-9.14777e-06
-9.55588e-06
-9.96968e-06
-1.03889e-05
-1.08131e-05
-1.1242e-05
-1.16752e-05
-1.21123e-05
-1.25529e-05
-1.29964e-05
-1.34424e-05
-1.38902e-05
-1.43394e-05
-1.47892e-05
-1.52391e-05
-1.56882e-05
-1.61359e-05
-1.7286e-06
-1.91221e-06
-2.09391e-06
-2.27465e-06
-2.45534e-06
-2.63691e-06
-2.82033e-06
-3.00655e-06
-3.19654e-06
-3.39131e-06
-3.59183e-06
-3.79912e-06
-4.01419e-06
-4.23839e-06
-4.47272e-06
-4.71709e-06
-4.97394e-06
-5.24452e-06
-5.52966e-06
-5.83056e-06
-6.14879e-06
-6.48534e-06
-6.83706e-06
-7.19893e-06
-7.56876e-06
-7.94616e-06
-8.33099e-06
-8.72304e-06
-9.12208e-06
-9.52783e-06
-9.93998e-06
-1.03582e-05
-1.07822e-05
-1.12114e-05
-1.16456e-05
-1.20842e-05
-1.25268e-05
-1.29728e-05
-1.34216e-05
-1.38728e-05
-1.43255e-05
-1.47792e-05
-1.52331e-05
-1.56866e-05
-1.61387e-05
-1.72271e-06
-1.90897e-06
-2.09324e-06
-2.27648e-06
-2.4596e-06
-2.64355e-06
-2.82928e-06
-3.01775e-06
-3.20993e-06
-3.40678e-06
-3.60927e-06
-3.81835e-06
-4.03505e-06
-4.26088e-06
-4.49574e-06
-4.7406e-06
-4.99748e-06
-5.26734e-06
-5.55087e-06
-5.8491e-06
-6.1634e-06
-6.49449e-06
-6.83992e-06
-7.19578e-06
-7.56017e-06
-7.93279e-06
-8.3135e-06
-8.70209e-06
-9.09832e-06
-9.50191e-06
-9.91253e-06
-1.03298e-05
-1.07535e-05
-1.1183e-05
-1.16179e-05
-1.20578e-05
-1.25021e-05
-1.29502e-05
-1.34016e-05
-1.38556e-05
-1.43115e-05
-1.47686e-05
-1.52262e-05
-1.56834e-05
-1.61396e-05
-1.71854e-06
-1.90707e-06
-2.09353e-06
-2.27888e-06
-2.46406e-06
-2.65001e-06
-2.83769e-06
-3.02806e-06
-3.22207e-06
-3.42068e-06
-3.62481e-06
-3.8354e-06
-4.05351e-06
-4.28048e-06
-4.51576e-06
-4.7611e-06
-5.01791e-06
-5.28701e-06
-5.56904e-06
-5.86483e-06
-6.17557e-06
-6.50177e-06
-6.84158e-06
-7.19207e-06
-7.55164e-06
-7.92002e-06
-8.29707e-06
-8.68258e-06
-9.07631e-06
-9.47797e-06
-9.88723e-06
-1.03037e-05
-1.0727e-05
-1.11567e-05
-1.15923e-05
-1.20333e-05
-1.24791e-05
-1.29291e-05
-1.33827e-05
-1.38393e-05
-1.42981e-05
-1.47583e-05
-1.52192e-05
-1.56799e-05
-1.61396e-05
-1.71549e-06
-1.90595e-06
-2.09426e-06
-2.2814e-06
-2.46831e-06
-2.65595e-06
-2.84528e-06
-3.03725e-06
-3.2328e-06
-3.43287e-06
-3.63838e-06
-3.85024e-06
-4.06953e-06
-4.2973e-06
-4.53305e-06
-4.77876e-06
-5.03542e-06
-5.30377e-06
-5.5844e-06
-5.87798e-06
-6.18553e-06
-6.50736e-06
-6.84217e-06
-7.18789e-06
-7.54319e-06
-7.90782e-06
-8.28164e-06
-8.66444e-06
-9.05598e-06
-9.45594e-06
-9.86399e-06
-1.02798e-05
-1.07028e-05
-1.11327e-05
-1.15689e-05
-1.20108e-05
-1.2458e-05
-1.29098e-05
-1.33654e-05
-1.38243e-05
-1.42856e-05
-1.47486e-05
-1.52125e-05
-1.56764e-05
-1.61394e-05
-1.71321e-06
-1.9053e-06
-2.09518e-06
-2.28382e-06
-2.47219e-06
-2.66125e-06
-2.85195e-06
-3.04525e-06
-3.24209e-06
-3.4434e-06
-3.65007e-06
-3.86299e-06
-4.08322e-06
-4.31161e-06
-4.54786e-06
-4.79379e-06
-5.05028e-06
-5.31791e-06
-5.59726e-06
-5.88886e-06
-6.19356e-06
-6.51151e-06
-6.84189e-06
-7.1834e-06
-7.53495e-06
-7.89628e-06
-8.26727e-06
-8.6477e-06
-9.03731e-06
-9.43581e-06
-9.84283e-06
-1.0258e-05
-1.06808e-05
-1.11109e-05
-1.15476e-05
-1.19905e-05
-1.24389e-05
-1.28922e-05
-1.33497e-05
-1.38107e-05
-1.42743e-05
-1.47398e-05
-1.52064e-05
-1.56731e-05
-1.61391e-05
-1.71145e-06
-1.90494e-06
-2.09615e-06
-2.28607e-06
-2.47567e-06
-2.66592e-06
-2.85779e-06
-3.05221e-06
-3.25013e-06
-3.45247e-06
-3.66011e-06
-3.87392e-06