/*--------------------------------*- C++ -*----------------------------------*\
| =========                 |                                                 |
| \\      /  F ield         | OpenFOAM: The Open Source CFD Toolbox           |
|  \\    /   O peration     | Version:  2312                                  |
|   \\  /    A nd           | Website:  www.openfoam.com                      |
|    \\/     M anipulation  |                                                 |
\*---------------------------------------------------------------------------*/
FoamFile
{
    version     2.0;
    format      ascii;
    arch        "LSB;label=32;scalar=64";
    class       volVectorField;
    location    "152";
    object      U;
}
// * * * * * * * * * * * * * * * * * * * * * * * * * * * * * * * * * * * * * //

dimensions      [0 1 -1 0 0 0 0];

internalField   nonuniform List<vector> 
4800
(
(0.000496026 3.39905e-07 -3.28085e-26)
(0.000487591 4.03839e-07 -2.32968e-25)
(0.000482113 4.44376e-07 2.98359e-25)
(0.000478678 4.5821e-07 1.38987e-25)
(0.000476783 4.50882e-07 2.07372e-24)
(0.000476104 4.28132e-07 -4.94716e-24)
(0.000476604 3.68235e-07 4.64574e-24)
(0.000478112 2.98325e-07 -6.77799e-24)
(0.00048067 1.44658e-07 2.16839e-24)
(0.000484493 -1.55696e-07 7.45178e-24)
(0.000490033 -7.28304e-07 -2.29552e-24)
(0.000498606 -2.23368e-06 -1.92196e-25)
(0.000517653 -7.70322e-06 -2.81091e-24)
(0.000566166 -2.99429e-05 1.291e-24)
(0.000647475 -9.89696e-05 -1.02157e-24)
(0.00153143 1.75149e-06 -1.04479e-25)
(0.00150516 1.35102e-06 1.30278e-25)
(0.00148772 1.02629e-06 -1.22227e-24)
(0.00147643 7.19541e-07 9.09001e-25)
(0.00146975 4.03018e-07 2.97643e-24)
(0.00146672 4.74453e-08 -4.74113e-24)
(0.00146714 -4.09795e-07 -1.36685e-24)
(0.00147037 -9.82872e-07 -3.39468e-25)
(0.00147665 -1.85371e-06 1.12797e-23)
(0.00148654 -3.32231e-06 -8.35019e-24)
(0.00150124 -6.02298e-06 9.09378e-25)
(0.00152362 -1.22591e-05 1.38916e-24)
(0.00156279 -3.00678e-05 -2.05125e-24)
(0.00163024 -8.45495e-05 -6.03359e-25)
(0.00170374 -0.000209304 2.66255e-24)
(0.00267306 5.6897e-06 -7.48441e-26)
(0.00262726 4.40234e-06 7.6401e-26)
(0.00259634 3.38736e-06 7.99631e-25)
(0.00257581 2.46647e-06 -1.91572e-24)
(0.00256311 1.52091e-06 1.89347e-24)
(0.00255657 4.22005e-07 1.80771e-24)
(0.0025557 -9.71685e-07 -4.62207e-24)
(0.00255935 -2.72007e-06 -2.86953e-24)
(0.00256782 -5.30891e-06 6.9684e-24)
(0.00258186 -9.40347e-06 2.64809e-24)
(0.00260255 -1.64888e-05 -9.20135e-24)
(0.00263222 -3.06992e-05 -1.39573e-24)
(0.00267504 -6.2052e-05 3.93493e-24)
(0.00272991 -0.000131331 6.2122e-24)
(0.00277023 -0.000248356 -3.2062e-24)
(0.00392648 1.28313e-05 2.76687e-26)
(0.00385992 1.00872e-05 -1.93683e-25)
(0.00381423 7.92814e-06 8.71558e-25)
(0.00378319 5.97832e-06 9.4995e-25)
(0.00376318 3.98861e-06 -9.28802e-25)
(0.00375186 1.69279e-06 -5.48242e-24)
(0.00374814 -1.18255e-06 -3.70689e-24)
(0.00375077 -4.65914e-06 1.3699e-23)
(0.00375934 -9.74926e-06 5.8384e-24)
(0.00377476 -1.75393e-05 -8.42695e-24)
(0.00379707 -2.998e-05 -3.40231e-24)
(0.00382684 -5.18592e-05 -2.59971e-24)
(0.00386316 -9.15994e-05 7.71661e-26)
(0.00389854 -0.000160121 1.92395e-24)
(0.00391337 -0.000253432 9.41425e-27)
(0.00529482 2.38947e-05 -5.07475e-26)
(0.00520734 1.90288e-05 -3.12673e-25)
(0.00514619 1.51969e-05 -2.04007e-25)
(0.0051037 1.17502e-05 5.37639e-25)
(0.00507526 8.26528e-06 -1.56027e-24)
(0.0050579 4.32406e-06 3.89991e-24)
(0.00504971 -3.83308e-07 -6.82606e-25)
(0.00504963 -6.41217e-06 2.42852e-24)
(0.00505617 -1.4353e-05 -1.34735e-23)
(0.0050698 -2.61715e-05 2.58266e-23)
(0.00508946 -4.35953e-05 -2.50166e-23)
(0.00511386 -7.06145e-05 1.32219e-23)
(0.00513939 -0.000112336 -1.22928e-23)
(0.00515787 -0.000172262 1.16208e-23)
(0.00515799 -0.000243114 -4.64225e-24)
(0.00677708 3.96471e-05 6.6977e-26)
(0.00667037 3.19909e-05 2.41782e-25)
(0.00659427 2.59446e-05 -1.28241e-24)
(0.00654015 2.05258e-05 -8.30912e-25)
(0.00650266 1.5097e-05 2.20402e-24)
(0.00647827 9.09762e-06 8.013e-25)
(0.00646443 2.03757e-06 -6.29582e-24)
(0.00645962 -6.59985e-06 1.50718e-23)
(0.0064622 -1.79076e-05 -1.96598e-23)
(0.00647123 -3.33743e-05 4.70639e-24)
(0.00648494 -5.4596e-05 1.44115e-23)
(0.00650093 -8.39713e-05 -2.00647e-23)
(0.00651503 -0.000123496 1.00489e-23)
(0.00652109 -0.000172755 1.03721e-23)
(0.00651377 -0.000225522 -7.90281e-24)
(0.00836576 6.05592e-05 5.5329e-26)
(0.00824442 4.95846e-05 -3.28921e-25)
(0.00815585 4.08604e-05 1.18839e-24)
(0.00809131 3.30505e-05 -1.65873e-24)
(0.0080451 2.52865e-05 -5.71455e-24)
(0.00801338 1.68872e-05 9.74696e-24)
(0.00799318 7.21411e-06 -5.96158e-24)
(0.00798245 -4.29779e-06 2.03964e-23)
(0.00797922 -1.86581e-05 -1.38669e-23)
(0.0079817 -3.71237e-05 -6.51148e-24)
(0.0079876 -6.0658e-05 -1.28779e-23)
(0.00799416 -9.01731e-05 1.18281e-23)
(0.00799797 -0.000125647 3.33839e-24)
(0.00799519 -0.000165246 2.8804e-24)
(0.00798394 -0.000204689 -2.53574e-24)
(0.0100444 8.63117e-05 -7.97765e-26)
(0.00991698 7.18717e-05 1.08841e-24)
(0.00982126 6.02426e-05 -2.54894e-24)
(0.00974954 4.97942e-05 -2.13046e-24)
(0.00969652 3.94562e-05 7.66054e-25)
(0.00965838 2.84595e-05 1.55471e-24)
(0.00963204 1.61146e-05 5.68323e-24)
(0.00961507 1.82268e-06 -1.55726e-23)
(0.00960524 -1.51651e-05 -8.39432e-24)
(0.00960034 -3.56894e-05 2.29583e-23)
(0.00959798 -6.00967e-05 -7.17535e-24)
(0.00959562 -8.82792e-05 2.45539e-23)
(0.0095909 -0.000119298 -1.29409e-23)
(0.00958167 -0.00015125 -4.15716e-24)
(0.00956774 -0.000181483 2.46601e-24)
(0.0117865 0.000115176 -1.06049e-26)
(0.0116658 9.78403e-05 6.02041e-25)
(0.0115716 8.35497e-05 -8.5892e-25)
(0.0114985 7.05598e-05 2.0909e-24)
(0.0114427 5.76957e-05 -1.25561e-23)
(0.0114007 4.41638e-05 1.32831e-23)
(0.0113698 2.93239e-05 -2.11471e-23)
(0.0113476 1.26536e-05 1.29658e-23)
(0.0113317 -6.33388e-06 9.71126e-24)
(0.01132 -2.79292e-05 2.12432e-23)
(0.0113103 -5.20571e-05 -2.77729e-23)
(0.0113005 -7.8116e-05 -5.19941e-24)
(0.0112893 -0.000104982 2.34196e-24)
(0.0112754 -0.000131192 1.7172e-23)
(0.0112593 -0.000155197 -7.00312e-24)
(0.0135597 0.00014353 5.91906e-26)
(0.0134607 0.000124862 -2.54497e-25)
(0.0133789 0.000108867 1.14017e-24)
(0.0133127 9.39723e-05 -4.02872e-24)
(0.0132599 7.90695e-05 6.14031e-24)
(0.0132185 6.34471e-05 -7.98942e-24)
(0.0131863 4.66164e-05 1.34473e-23)
(0.0131613 2.82363e-05 2.4128e-24)
(0.0131415 8.11379e-06 -1.86819e-23)
(0.0131249 -1.36761e-05 2.6763e-23)
(0.0131098 -3.6737e-05 -2.95746e-23)
(0.013095 -6.03688e-05 -8.80695e-24)
(0.0130795 -8.36268e-05 1.54596e-23)
(0.0130626 -0.000105546 4.62061e-24)
(0.0130451 -0.000125268 -2.02326e-24)
(0.0153372 0.000166334 2.49568e-25)
(0.0152716 0.00014869 -2.00492e-24)
(0.0152124 0.000132673 -3.21203e-24)
(0.0151612 0.000117135 7.61015e-24)
(0.0151182 0.000101207 3.45478e-24)
(0.0150828 8.43942e-05 -2.17147e-23)
(0.0150536 6.6457e-05 6.64504e-24)
(0.0150295 4.73021e-05 4.81425e-24)
(0.0150088 2.7031e-05 -2.11947e-23)
(0.0149904 5.88625e-06 2.19891e-23)
(0.014973 -1.55913e-05 -1.78435e-23)
(0.0149558 -3.6759e-05 4.57467e-23)
(0.0149385 -5.69433e-05 -2.21054e-23)
(0.0149206 -7.55812e-05 1.30629e-23)
(0.0149028 -9.22219e-05 -3.57523e-24)
(0.0171149 0.000179642 -1.12221e-25)
(0.017084 0.000165056 1.39483e-24)
(0.0170513 0.000150799 -2.67434e-24)
(0.0170198 0.000136185 -1.36511e-24)
(0.0169912 0.000120602 1.52573e-23)
(0.0169658 0.00010384 -2.16087e-24)
(0.0169435 8.59675e-05 -2.73633e-23)
(0.0169237 6.71643e-05 3.20602e-23)
(0.0169057 4.77162e-05 -7.17295e-24)
(0.0168886 2.80273e-05 -2.51427e-23)
(0.0168719 8.57203e-06 2.69301e-23)
(0.0168552 -1.01365e-05 1.46783e-23)
(0.0168385 -2.76427e-05 -1.22088e-23)
(0.0168214 -4.36408e-05 -2.13911e-23)
(0.0168048 -5.79093e-05 1.80153e-24)
(0.0189141 0.000181984 1.9934e-26)
(0.0189088 0.00017231 -1.60063e-24)
(0.0188974 0.000160882 7.41866e-24)
(0.0188835 0.000148382 4.47428e-25)
(0.0188686 0.000134351 4.22266e-24)
(0.0188539 0.000118812 -1.50575e-23)
(0.0188397 0.000102132 1.29481e-23)
(0.0188258 8.47199e-05 3.01093e-24)
(0.0188122 6.69884e-05 2.69132e-23)
(0.0187985 4.93554e-05 -4.14396e-23)
(0.0187846 3.22454e-05 -1.88859e-23)
(0.0187703 1.60126e-05 -1.26026e-23)
(0.018756 9.55347e-07 2.36393e-23)
(0.0187411 -1.2765e-05 -6.92536e-25)
(0.0187268 -2.50457e-05 2.30931e-24)
(0.0207652 0.00017952 -5.55136e-27)
(0.020769 0.00017248 1.7508e-24)
(0.0207683 0.000163939 -2.53982e-24)
(0.0207645 0.00015402 1.0555e-26)
(0.0207585 0.000142248 3.1001e-24)
(0.020751 0.000128702 7.89046e-24)
(0.0207427 0.000113946 -3.06337e-23)
(0.0207337 9.8575e-05 2.54033e-24)
(0.020724 8.30702e-05 1.56141e-23)
(0.0207136 6.78165e-05 -7.25766e-24)
(0.0207028 5.31508e-05 1.97932e-23)
(0.0206913 3.93231e-05 1.39611e-23)
(0.0206796 2.65241e-05 -2.53012e-23)
(0.0206674 1.48358e-05 1.741e-23)
(0.0206555 4.30302e-06 -1.44743e-23)
(0.0226591 0.000174367 -2.82949e-25)
(0.022665 0.000170581 -3.05681e-25)
(0.0226665 0.000164172 3.2293e-24)
(0.0226658 0.00015639 -1.52407e-23)
(0.022663 0.000146887 1.3323e-23)
(0.0226585 0.000135609 -9.47579e-24)
(0.022653 0.000123082 6.81276e-24)
(0.0226464 0.000109971 -4.81518e-23)
(0.022639 9.67951e-05 6.95163e-23)
(0.0226306 8.39056e-05 -4.10474e-23)
(0.0226218 7.15585e-05 3.66941e-23)
(0.0226122 5.99236e-05 3.0834e-23)
(0.0226025 4.91241e-05 -5.38903e-23)
(0.0225923 3.9203e-05 1.75678e-23)
(0.0225824 3.01821e-05 -7.39608e-25)
(0.0245424 0.000168812 -1.08011e-26)
(0.0245493 0.000167819 -1.26135e-24)
(0.024551 0.000163752 1.30646e-24)
(0.0245507 0.000158015 -4.37006e-25)
(0.0245485 0.000150695 5.72837e-24)
(0.0245446 0.000141721 -9.69515e-24)
(0.0245397 0.000131518 8.84386e-24)
(0.024534 0.000120693 -2.76932e-23)
(0.0245276 0.000109766 6.28569e-23)
(0.0245204 9.90715e-05 -8.03398e-23)
(0.0245127 8.8815e-05 6.57852e-23)
(0.0245043 7.91115e-05 -2.22161e-23)
(0.0244959 7.00422e-05 1.15937e-24)
(0.024487 6.16334e-05 5.11579e-24)
(0.0244783 5.39018e-05 -9.79733e-24)
(0.0263274 0.00016214 -8.81115e-25)
(0.0263356 0.000164649 2.13601e-25)
(0.026338 0.000162541 1.50677e-24)
(0.0263378 0.000159035 -3.03409e-24)
(0.0263362 0.000154173 1.0427e-23)
(0.0263328 0.000147737 -1.03397e-23)
(0.0263282 0.000139911 -8.55103e-24)
(0.0263228 0.000131382 -2.01803e-23)
(0.0263171 0.000122611 1.06939e-23)
(0.0263107 0.00011393 4.88924e-23)
(0.0263039 0.000105533 -2.57152e-23)
(0.0262965 9.75154e-05 1.52122e-23)
(0.026289 8.994e-05 -6.28164e-24)
(0.0262812 8.28285e-05 -1.8499e-23)
(0.0262735 7.61999e-05 9.45857e-24)
(0.0278967 0.000152921 2.72709e-25)
(0.0279047 0.000160464 -3.15286e-25)
(0.0279083 0.000161103 1.96318e-24)
(0.0279084 0.000159663 -6.04476e-24)
(0.0279073 0.000156881 -1.6047e-24)
(0.0279049 0.000152934 1.87096e-23)
(0.0279012 0.000147729 -1.45487e-23)
(0.0278965 0.000141488 -8.22895e-24)
(0.0278914 0.000134831 7.80127e-24)
(0.0278859 0.000128065 -8.45296e-24)
(0.0278801 0.000121383 1.98182e-23)
(0.0278737 0.000114885 9.7435e-24)
(0.0278672 0.000108636 -3.64859e-23)
(0.0278604 0.000102665 2.50604e-23)
(0.0278537 9.69979e-05 -5.07883e-24)
(0.029083 0.000145096 7.35339e-25)
(0.029089 0.000153611 -3.21701e-26)
(0.0290935 0.000159629 -4.8196e-25)
(0.029095 0.000160255 3.13825e-24)
(0.0290947 0.000159174 -4.10007e-24)
(0.0290935 0.000157231 -7.59401e-24)
(0.0290914 0.00015443 -8.19308e-24)
(0.0290882 0.000150582 2.49261e-23)
(0.0290843 0.000145934 2.24118e-23)
(0.0290802 0.000140996 -5.35424e-23)
(0.0290757 0.000135923 2.98432e-23)
(0.0290708 0.00013082 -2.02062e-24)
(0.0290657 0.000125773 -1.58985e-24)
(0.0290602 0.000120829 2.10906e-24)
(0.0290547 0.000116023 -9.61987e-25)
(0.0296607 0.000134761 -1.72223e-24)
(0.0296688 0.00014599 -1.18726e-24)
(0.0296742 0.000152914 4.11887e-24)
(0.0296775 0.000157392 -3.41059e-24)
(0.0296799 0.000159101 1.59456e-24)
(0.0296802 0.000158681 3.69327e-24)
(0.0296799 0.000157615 -3.02258e-24)
(0.0296788 0.000155726 -2.11947e-23)
(0.0296771 0.000152945 4.9105e-23)
(0.029675 0.000149717 -2.00515e-23)
(0.0296725 0.000146144 7.22267e-24)
(0.0296697 0.000142333 -1.298e-23)
(0.0296665 0.000138384 -1.27003e-23)
(0.029663 0.000134363 1.84012e-23)
(0.0296594 0.000130319 -7.80712e-24)
(0.0294499 0.000124636 2.41822e-24)
(0.0294567 0.000136842 -4.54964e-24)
(0.0294612 0.000145741 1.61713e-24)
(0.0294648 0.000151706 -2.04268e-24)
(0.0294667 0.000155381 5.03763e-24)
(0.0294683 0.000157563 -4.94621e-24)
(0.0294689 0.000157671 -9.62854e-24)
(0.0294689 0.000157379 2.2469e-23)
(0.0294687 0.000156437 6.08391e-24)
(0.029468 0.000154658 -1.69546e-23)
(0.0294669 0.00015234 -8.37305e-24)
(0.0294655 0.000149614 9.29762e-24)
(0.0294638 0.000146577 -9.77519e-24)
(0.0294619 0.000143304 5.46476e-24)
(0.0294598 0.000139854 -2.34394e-24)
(0.0284352 0.000116059 1.34484e-24)
(0.0284444 0.00012861 -2.4343e-24)
(0.0284522 0.000137974 -1.46303e-25)
(0.0284589 0.000144773 7.74749e-25)
(0.0284646 0.000149529 2.15727e-24)
(0.0284695 0.000152625 7.33983e-25)
(0.0284735 0.00015446 -1.39241e-24)
(0.0284769 0.000155214 -2.05689e-24)
(0.0284797 0.000154968 -4.09108e-24)
(0.028482 0.000154099 2.53521e-23)
(0.028484 0.000152676 -1.63093e-23)
(0.0284857 0.000150672 1.4941e-24)
(0.028487 0.000148281 -2.01834e-23)
(0.0284879 0.000145559 9.72883e-24)
(0.0284886 0.000142552 3.07025e-24)
(0.0268547 0.00010751 3.0973e-24)
(0.0268624 0.000119498 -4.95575e-24)
(0.0268695 0.000128673 1.16665e-24)
(0.0268761 0.000135577 1.37166e-25)
(0.0268822 0.000140632 2.69181e-24)
(0.0268879 0.000144165 -5.23102e-24)
(0.0268931 0.000146415 3.97649e-24)
(0.0268978 0.000147648 -2.19176e-24)
(0.0269023 0.000148083 1.6916e-24)
(0.0269065 0.000147802 8.44031e-24)
(0.0269104 0.000146865 -1.82358e-23)
(0.026914 0.000145369 1.36433e-23)
(0.0269174 0.00014341 -1.21317e-24)
(0.0269205 0.000141047 -3.94445e-24)
(0.0269234 0.000138328 6.12354e-25)
(0.0249344 0.000100466 1.135e-24)
(0.0249423 0.000111493 -4.80063e-24)
(0.0249502 0.000120093 6.5165e-24)
(0.0249581 0.000126707 -3.38665e-24)
(0.0249658 0.000131679 7.08956e-26)
(0.0249733 0.000135274 -9.50868e-25)
(0.0249805 0.000137717 1.49322e-25)
(0.0249875 0.000139207 1.99336e-24)
(0.0249943 0.000139882 -7.18085e-24)
(0.0250009 0.000139831 -2.52248e-24)
(0.0250072 0.000139132 1.03872e-23)
(0.0250134 0.000137859 2.88307e-24)
(0.0250193 0.000136085 -4.85689e-24)
(0.0250251 0.000133866 1.51251e-24)
(0.0250306 0.000131248 -4.2724e-25)
(0.0228227 9.36763e-05 1.47105e-25)
(0.0228322 0.000103347 -1.74084e-24)
(0.0228421 0.000110983 -2.16215e-25)
(0.0228524 0.000116921 4.08104e-24)
(0.0228627 0.000121438 -2.33684e-24)
(0.0228729 0.000124752 2.60295e-25)
(0.0228832 0.000127037 -1.6752e-25)
(0.0228933 0.000128432 2.14625e-25)
(0.0229032 0.000129046 1.98603e-24)
(0.022913 0.000128966 -1.09554e-23)
(0.0229226 0.000128262 9.68945e-24)
(0.0229321 0.000126997 1.12101e-24)
(0.0229413 0.000125229 -1.45804e-24)
(0.0229505 0.000123008 -2.5083e-24)
(0.0229593 0.000120373 2.09939e-24)
(0.0206362 8.56721e-05 2.1707e-25)
(0.0206484 9.37411e-05 1.57091e-24)
(0.0206614 0.00010016 -1.86588e-24)
(0.0206749 0.000105174 -6.4476e-25)
(0.0206886 0.000108997 1.97031e-24)
(0.0207024 0.000111791 -1.52573e-24)
(0.0207162 0.000113684 -2.9486e-25)
(0.02073 0.000114781 8.96175e-25)
(0.0207437 0.000115171 4.27155e-25)
(0.0207572 0.000114929 -3.96203e-27)
(0.0207706 0.000114113 2.6026e-24)
(0.0207838 0.000112775 -1.11341e-24)
(0.0207968 0.000110962 -2.16819e-25)
(0.0208096 0.000108714 -5.56279e-25)
(0.0208222 0.000106066 -1.78687e-24)
(0.0184613 7.58658e-05 1.55221e-24)
(0.0184769 8.23006e-05 -2.2569e-24)
(0.0184933 8.74411e-05 -1.10538e-24)
(0.0185103 9.14565e-05 3.20156e-24)
(0.0185276 9.44979e-05 -1.18001e-24)
(0.018545 9.66821e-05 -2.5212e-25)
(0.0185624 9.81058e-05 2.39476e-25)
(0.0185799 9.88504e-05 -1.13207e-24)
(0.0185972 9.89847e-05 3.1789e-24)
(0.0186143 9.85652e-05 -4.42368e-24)
(0.0186313 9.76384e-05 3.33948e-24)
(0.018648 9.62446e-05 -2.06183e-24)
(0.0186645 9.44208e-05 4.36624e-24)
(0.0186807 9.22001e-05 -5.16864e-24)
(0.0186966 8.96129e-05 1.62422e-24)
(0.0163561 6.45311e-05 -3.04247e-25)
(0.0163748 6.94619e-05 -8.41531e-25)
(0.0163942 7.34088e-05 -2.0439e-24)
(0.0164142 7.64814e-05 5.5812e-24)
(0.0164344 7.87819e-05 -1.40931e-24)
(0.0164548 8.03939e-05 -8.63248e-25)
(0.0164751 8.13882e-05 -2.48491e-25)
(0.0164954 8.18236e-05 2.62983e-25)
(0.0165156 8.1749e-05 2.4899e-24)
(0.0165355 8.12056e-05 -2.26766e-24)
(0.0165552 8.0229e-05 -1.16102e-25)
(0.0165746 7.88507e-05 2.50763e-24)
(0.0165936 7.71008e-05 -2.7862e-24)
(0.0166122 7.50068e-05 -3.81173e-25)
(0.0166303 7.25943e-05 4.45723e-25)
(0.0143552 5.25006e-05 1.18561e-24)
(0.0143758 5.61516e-05 1.31017e-24)
(0.0143971 5.90794e-05 -1.61835e-24)
(0.0144189 6.13507e-05 -2.14538e-24)
(0.0144409 6.30299e-05 2.04394e-24)
(0.0144629 6.41746e-05 -1.29891e-24)
(0.014485 6.48333e-05 6.28132e-25)
(0.0145069 6.5046e-05 5.83814e-27)
(0.0145286 6.48466e-05 -2.52954e-25)
(0.01455 6.42651e-05 1.72818e-24)
(0.0145711 6.33286e-05 8.68096e-25)
(0.0145918 6.20618e-05 -6.27054e-24)
(0.014612 6.04887e-05 2.51311e-24)
(0.0146317 5.86312e-05 1.01264e-24)
(0.0146508 5.65111e-05 9.65893e-26)
(0.0124761 4.07796e-05 -1.24753e-24)
(0.0124972 4.34069e-05 1.56378e-24)
(0.012519 4.55237e-05 8.29992e-26)
(0.0125411 4.71629e-05 1.73267e-24)
(0.0125634 4.83622e-05 -1.69048e-24)
(0.0125858 4.916e-05 -2.04777e-25)
(0.0126081 4.95878e-05 -3.23683e-25)
(0.0126302 4.9672e-05 -6.56998e-26)
(0.012652 4.94358e-05 -5.90516e-25)
(0.0126735 4.89008e-05 2.01032e-24)
(0.0126946 4.80865e-05 4.0811e-25)
(0.0127153 4.7012e-05 -4.99571e-25)
(0.0127353 4.56957e-05 -6.13241e-25)
(0.0127548 4.41549e-05 -3.79426e-25)
(0.0127736 4.24073e-05 -2.51531e-25)
(0.0107262 3.0212e-05 9.35096e-25)
(0.0107465 3.20575e-05 -7.69506e-25)
(0.0107673 3.35592e-05 -2.40728e-24)
(0.0107884 3.47232e-05 2.23552e-24)
(0.0108097 3.55715e-05 1.76032e-24)
(0.010831 3.61291e-05 -1.0544e-24)
(0.0108522 3.64153e-05 -7.22694e-25)
(0.0108732 3.64468e-05 5.09666e-25)
(0.0108939 3.62386e-05 -6.89655e-25)
(0.0109143 3.58057e-05 -2.51555e-25)
(0.0109342 3.51621e-05 5.49091e-25)
(0.0109537 3.43214e-05 3.70865e-25)
(0.0109725 3.32978e-05 -7.10472e-25)
(0.0109907 3.21042e-05 -6.22281e-26)
(0.0110082 3.07549e-05 2.78308e-25)
(0.00910699 2.13149e-05 -5.94576e-25)
(0.00912528 2.25829e-05 -2.9407e-25)
(0.00914405 2.36312e-05 5.2438e-25)
(0.0091631 2.44474e-05 -8.92799e-25)
(0.00918229 2.50464e-05 2.68849e-24)
(0.00920151 2.54434e-05 -2.36734e-24)
(0.00922065 2.56489e-05 1.11616e-24)
(0.00923962 2.5673e-05 -1.34668e-25)
(0.00925832 2.5525e-05 -3.71526e-25)
(0.00927669 2.52148e-05 -2.99816e-25)
(0.00929463 2.47518e-05 3.50082e-25)
(0.00931207 2.41457e-05 -5.45037e-25)
(0.00932894 2.34065e-05 8.1553e-25)
(0.00934518 2.25442e-05 2.0904e-25)
(0.0093607 2.15694e-05 -1.27104e-25)
(0.00761679 1.42719e-05 -2.91359e-25)
(0.00763239 1.51223e-05 1.01705e-25)
(0.00764845 1.58404e-05 1.51259e-25)
(0.00766476 1.64045e-05 -4.48533e-25)
(0.00768121 1.68268e-05 -2.25071e-26)
(0.00769772 1.71149e-05 1.01467e-24)
(0.00771419 1.72738e-05 -4.81556e-25)
(0.00773052 1.73088e-05 -5.48062e-26)
(0.00774663 1.72256e-05 2.60782e-26)
(0.00776244 1.70303e-05 1.99321e-25)
(0.00777789 1.67288e-05 2.01717e-25)
(0.0077929 1.63279e-05 -8.02146e-25)
(0.00780738 1.58342e-05 -5.85881e-25)
(0.00782131 1.52551e-05 8.08668e-25)
(0.00783458 1.4598e-05 2.07911e-25)
(0.00625202 9.01027e-06 -1.06665e-25)
(0.00626462 9.56242e-06 -1.83869e-26)
(0.00627765 1.00409e-05 -1.282e-24)
(0.00629093 1.04223e-05 5.42504e-25)
(0.00630436 1.07171e-05 -3.52282e-25)
(0.00631788 1.09271e-05 7.24988e-25)
(0.00633139 1.1054e-05 5.23719e-25)
(0.00634482 1.11007e-05 -1.28465e-25)
(0.0063581 1.107e-05 4.68114e-25)
(0.00637114 1.09655e-05 -1.54172e-25)
(0.0063839 1.07908e-05 -4.72443e-25)
(0.00639629 1.05502e-05 1.08196e-24)
(0.00640826 1.02479e-05 -6.02327e-25)
(0.00641977 9.88918e-06 2.0822e-25)
(0.00643073 9.47904e-06 -3.84668e-25)
(0.00500766 5.30034e-06 -4.19919e-25)
(0.00501729 5.64177e-06 -4.60626e-25)
(0.0050273 5.94775e-06 4.56989e-26)
(0.00503755 6.19702e-06 1.05013e-24)
(0.00504797 6.39733e-06 -5.28051e-25)
(0.00505849 6.54717e-06 6.22942e-26)
(0.00506905 6.64684e-06 3.57748e-25)
(0.00507958 6.69749e-06 -1.68796e-25)
(0.00509002 6.70041e-06 -7.07587e-26)
(0.00510031 6.65755e-06 7.96001e-25)
(0.00511039 6.5708e-06 2.19868e-25)
(0.0051202 6.44285e-06 -1.13405e-24)
(0.00512971 6.27615e-06 1.66269e-25)
(0.00513885 6.07436e-06 4.45405e-25)
(0.00514758 5.84072e-06 -3.34589e-25)
(0.00387762 2.8429e-06 -9.2128e-26)
(0.00388451 3.038e-06 1.5309e-26)
(0.00389174 3.22198e-06 5.39159e-25)
(0.00389918 3.3764e-06 2.1188e-25)
(0.0039068 3.50572e-06 -3.1362e-25)
(0.00391453 3.60718e-06 -3.77782e-25)
(0.00392232 3.68058e-06 4.37359e-26)
(0.00393014 3.72622e-06 7.81219e-26)
(0.00393792 3.74456e-06 -1.08172e-25)
(0.00394562 3.7366e-06 -3.90058e-25)
(0.00395319 3.70323e-06 -2.36849e-25)
(0.00396059 3.64599e-06 7.43408e-25)
(0.00396778 3.56616e-06 -2.32019e-25)
(0.00397473 3.4662e-06 2.82291e-25)
(0.00398138 3.34836e-06 -1.70876e-25)
(0.00285495 1.33066e-06 -1.70098e-25)
(0.0028595 1.42569e-06 2.20302e-26)
(0.00286431 1.52481e-06 4.47247e-25)
(0.00286931 1.61165e-06 -2.72305e-25)
(0.00287446 1.68758e-06 6.97234e-25)
(0.00287973 1.75003e-06 -1.09444e-24)
(0.00288508 1.79866e-06 5.01584e-25)
(0.00289048 1.83338e-06 -5.95311e-26)
(0.00289589 1.85414e-06 -2.57591e-25)
(0.00290127 1.86147e-06 4.17362e-25)
(0.00290659 1.85572e-06 -1.83809e-25)
(0.00291182 1.83769e-06 -4.72454e-26)
(0.00291693 1.80792e-06 -1.76637e-25)
(0.00292189 1.76796e-06 2.44481e-25)
(0.00292667 1.7196e-06 -7.02194e-26)
(0.00193217 4.89625e-07 2.58602e-25)
(0.00193482 5.17877e-07 2.2083e-25)
(0.00193766 5.59478e-07 -9.88048e-25)
(0.00194064 5.99161e-07 6.47588e-25)
(0.00194375 6.36042e-07 -3.59987e-26)
(0.00194696 6.68382e-07 4.05749e-26)
(0.00195025 6.95819e-07 -1.23173e-25)
(0.0019536 7.18144e-07 1.06578e-26)
(0.00195699 7.35058e-07 -9.0874e-26)
(0.00196038 7.46518e-07 -9.7406e-26)
(0.00196376 7.52496e-07 4.31571e-25)
(0.00196711 7.53272e-07 -1.43324e-25)
(0.0019704 7.48923e-07 -1.95682e-25)
(0.00197362 7.40288e-07 1.44267e-26)
(0.00197674 7.28875e-07 4.70118e-26)
(0.00110155 1.09056e-07 -2.61315e-25)
(0.00110276 1.11129e-07 7.41491e-25)
(0.00110409 1.2694e-07 3.07215e-25)
(0.00110551 1.42304e-07 -6.86391e-25)
(0.00110701 1.56176e-07 -7.36304e-26)
(0.00110859 1.68252e-07 -4.02742e-26)
(0.00111024 1.78676e-07 4.74109e-26)
(0.00111193 1.88188e-07 -2.14062e-26)
(0.00111366 1.97297e-07 -1.57554e-25)
(0.00111542 2.04527e-07 7.07936e-26)
(0.00111719 2.09679e-07 1.81762e-25)
(0.00111896 2.12784e-07 -1.52911e-25)
(0.00112071 2.13723e-07 3.63216e-25)
(0.00112244 2.12802e-07 -4.22535e-25)
(0.00112414 2.11106e-07 1.01519e-25)
(0.000355369 3.56694e-08 -1.86601e-27)
(0.000355572 8.33793e-08 1.38951e-25)
(0.000355827 1.20589e-07 1.20755e-25)
(0.000356121 1.43972e-07 -2.23932e-25)
(0.000356456 1.56094e-07 2.87974e-25)
(0.000356826 1.5948e-07 -3.21128e-25)
(0.000357229 1.56281e-07 5.88102e-27)
(0.000357658 1.48695e-07 -3.17822e-26)
(0.000358111 1.38621e-07 5.37504e-26)
(0.000358581 1.25821e-07 8.88266e-26)
(0.000359065 1.10937e-07 -2.94961e-25)
(0.000359559 9.4492e-08 1.57891e-25)
(0.000360059 7.67777e-08 1.34255e-25)
(0.000360561 5.80688e-08 -1.23621e-25)
(0.000361062 3.8872e-08 8.37477e-27)
(0.000960759 -0.000265994 1.00958e-25)
(0.0010977 -0.000194728 2.66888e-24)
(0.00132675 -0.000121734 -7.79699e-24)
(0.00155964 -6.51701e-05 1.15819e-23)
(0.00178109 -2.30876e-05 -4.34859e-24)
(0.00199616 5.56674e-06 -4.35145e-24)
(0.00220493 2.37866e-05 5.01335e-24)
(0.0024082 3.41414e-05 -1.00323e-23)
(0.00260705 3.88735e-05 6.21123e-25)
(0.00280244 3.98552e-05 6.35512e-24)
(0.00299527 3.87206e-05 -1.20745e-24)
(0.00318633 3.69319e-05 1.29512e-24)
(0.00337637 3.5899e-05 -1.31518e-25)
(0.0035662 3.71044e-05 7.78434e-25)
(0.00375682 4.2163e-05 -2.85768e-24)
(0.0039497 5.28554e-05 1.55752e-24)
(0.00414706 7.10857e-05 -4.78949e-25)
(0.00435206 9.85234e-05 3.19818e-26)
(0.00456989 0.000136263 1.14657e-24)
(0.00480607 0.000184187 -7.23374e-25)
(0.00506902 0.000237377 9.51634e-26)
(0.00536552 0.000287557 -8.47248e-26)
(0.00567351 0.000316242 1.72135e-25)
(0.00595155 0.000310382 6.95507e-25)
(0.0061849 0.000271411 -1.24834e-24)
(0.00637306 0.000204287 -9.13742e-25)
(0.0065174 0.00011381 -2.64265e-26)
(0.00661959 3.91239e-06 2.37574e-24)
(0.00668051 -0.000121757 3.65836e-24)
(0.00670001 -0.000259238 -7.23676e-24)
(0.00667733 -0.000403578 6.9948e-24)
(0.00661153 -0.000548668 -6.99155e-24)
(0.00650208 -0.000687286 2.094e-24)
(0.00634914 -0.000811347 1.07858e-24)
(0.00615364 -0.000912173 -1.15856e-24)
(0.00591725 -0.000980618 2.1188e-24)
(0.00564208 -0.00100692 6.81809e-25)
(0.00533055 -0.000980018 2.15054e-24)
(0.00498538 -0.00088612 1.66998e-24)
(0.00461018 -0.000706541 -8.21741e-24)
(0.00420942 -0.000417377 -1.12436e-25)
(0.00379039 3.10303e-06 4.3448e-24)
(0.00334772 0.000543525 1.76543e-24)
(0.00290615 0.00111874 -6.44982e-24)
(0.00265923 0.00141877 -3.49409e-25)
(0.00180094 -0.000349205 -3.01547e-24)
(0.00185677 -0.000312409 -4.40159e-24)
(0.00199482 -0.000242002 9.13474e-24)
(0.00216903 -0.000177247 4.46552e-24)
(0.00235263 -0.000123898 -1.56454e-23)
(0.00254073 -8.38611e-05 1.69532e-23)
(0.00272907 -5.52939e-05 -6.1125e-24)
(0.0029159 -3.58099e-05 4.99066e-24)
(0.00310082 -2.31005e-05 -6.58775e-24)
(0.0032839 -1.51653e-05 7.61222e-26)
(0.00346551 -1.02229e-05 -3.47978e-24)
(0.00364612 -6.68198e-06 6.87736e-24)
(0.00382627 -3.03334e-06 -3.77187e-24)
(0.00400663 2.26872e-06 -3.30378e-24)
(0.00418811 1.08641e-05 -2.12984e-24)
(0.00437207 2.45236e-05 4.16575e-24)
(0.00456062 4.51148e-05 -4.90782e-25)
(0.00475676 7.42275e-05 2.1502e-24)
(0.00496555 0.000112926 3.6376e-25)
(0.00519217 0.000161084 -6.44963e-25)
(0.00544492 0.00021388 -2.82412e-25)
(0.00573072 0.000263482 -1.85274e-25)
(0.00602919 0.000292204 9.29109e-25)
(0.00630065 0.000287594 1.21263e-24)
(0.00653056 0.000251036 -1.02208e-24)
(0.00671793 0.000187309 -5.45188e-24)
(0.00686349 0.00010115 7.51338e-24)
(0.00696838 -3.38056e-06 -5.45481e-24)
(0.00703312 -0.000122627 1.85455e-24)
(0.00705746 -0.00025229 -1.33975e-24)
(0.00704069 -0.000387329 1.04544e-23)
(0.00698214 -0.000521581 -1.49625e-23)
(0.00688162 -0.000647859 8.98139e-24)
(0.00673979 -0.000758176 -7.86939e-24)
(0.00655824 -0.000843976 5.92434e-24)
(0.00633952 -0.000896239 -1.08362e-24)
(0.00608701 -0.000905321 6.15997e-24)
(0.00580506 -0.000860385 -6.55732e-25)
(0.00549936 -0.00074821 -7.02209e-24)
(0.00517849 -0.000551352 -5.3954e-24)
(0.00485582 -0.000247751 1.23699e-23)
(0.00455472 0.000182701 -1.29002e-23)
(0.00430291 0.000726547 -3.71922e-24)
(0.00414787 0.00128478 8.94373e-24)
(0.00415256 0.00151297 3.33092e-24)
(0.00278728 -0.00035609 -3.57913e-26)
(0.00279407 -0.0003601 -5.10436e-24)
(0.00284888 -0.000321399 9.72761e-24)
(0.0029551 -0.000266763 8.59702e-24)
(0.00308662 -0.000213332 -1.39185e-23)
(0.00323431 -0.000168154 2.7251e-25)
(0.00339083 -0.000132623 1.38911e-24)
(0.00355178 -0.000105825 1.53241e-23)
(0.00371489 -8.61362e-05 -1.8163e-23)
(0.003879 -7.17597e-05 1.1186e-23)
(0.00404364 -6.09901e-05 3.31376e-24)
(0.00420873 -5.22266e-05 -1.84051e-23)
(0.00437445 -4.39278e-05 6.63466e-24)
(0.00454123 -3.45236e-05 2.58714e-24)
(0.00470979 -2.23724e-05 -5.28071e-24)
(0.00488135 -5.73062e-06 8.48326e-24)
(0.00505785 1.72258e-05 -5.93926e-24)
(0.00524211 4.79973e-05 -1.26113e-25)
(0.005439 8.76162e-05 4.38656e-25)
(0.00565338 0.000135954 4.87609e-25)
(0.00589336 0.000188274 5.12131e-26)
(0.006166 0.00023718 3.10386e-25)
(0.00645271 0.000265826 -9.47794e-25)
(0.00671575 0.000262372 2.87814e-24)
(0.00694077 0.000228166 -4.70024e-24)
(0.00712623 0.000167818 2.73226e-24)
(0.00727219 8.60091e-05 -6.82864e-24)
(0.0073792 -1.31596e-05 9.23187e-24)
(0.00744742 -0.000125757 -9.13587e-24)
(0.00747649 -0.000247406 -4.73538e-26)
(0.00746577 -0.000372904 -7.0557e-25)
(0.00741484 -0.000496039 1.74747e-23)
(0.00732394 -0.000609679 -5.91238e-24)
(0.00719425 -0.00070598 -3.89959e-24)
(0.0070281 -0.000776612 3.80515e-24)
(0.00682897 -0.000812864 1.79645e-24)
(0.0066016 -0.000805555 -3.18671e-24)
(0.00635231 -0.000744675 1.06651e-23)
(0.0060897 -0.000618687 -2.2169e-23)
(0.0058266 -0.000413604 8.85392e-24)
(0.00558288 -0.000113663 3.54199e-24)
(0.00539013 0.000291744 6.39444e-24)
(0.00528652 0.000779322 -7.98236e-24)
(0.00530431 0.0012456 2.61495e-24)
(0.00543697 0.00141998 -1.65852e-24)
(0.00390146 -0.000337042 -1.29984e-24)
(0.00387943 -0.000366299 -2.03224e-24)
(0.00388479 -0.000355091 -8.7439e-24)
(0.00392564 -0.000323784 2.2032e-24)
(0.004001 -0.000280808 1.4939e-24)
(0.00409985 -0.000238523 7.23915e-24)
(0.00421503 -0.000201441 -1.55895e-23)
(0.00434095 -0.000170853 5.88454e-24)
(0.00447394 -0.000146405 2.00351e-23)
(0.00461164 -0.000127005 -5.34427e-24)
(0.00475266 -0.000111316 -4.99965e-24)
(0.00489624 -9.79173e-05 -7.87483e-25)
(0.00504209 -8.53553e-05 2.53309e-24)
(0.00519029 -7.21111e-05 -4.90446e-24)
(0.00534132 -5.6591e-05 1.14434e-24)
(0.00549619 -3.71156e-05 -3.79439e-25)
(0.00565664 -1.19252e-05 -2.28866e-24)
(0.00582528 2.03691e-05 8.51555e-25)
(0.00600678 6.07572e-05 4.05514e-24)
(0.00620564 0.000109117 -4.38738e-25)
(0.00642973 0.000160772 -9.52379e-25)
(0.00668624 0.000208764 -2.83814e-25)
(0.00695851 0.000237148 -1.678e-24)
(0.00721087 0.00023472 -1.76699e-25)
(0.00742915 0.000202793 -4.34915e-24)
(0.0076112 0.000145819 7.33382e-24)
(0.00775638 6.84282e-05 -6.86156e-24)
(0.00786462 -2.5211e-05 1.34183e-23)
(0.00793571 -0.000130976 -1.21375e-23)
(0.00796913 -0.000244352 2.55546e-24)
(0.00796437 -0.000360021 5.62374e-24)
(0.00792129 -0.000471766 -4.97061e-26)
(0.00784056 -0.000572573 -2.67257e-25)
(0.00772395 -0.000654847 3.07477e-25)
(0.0075745 -0.000710644 -1.46401e-24)
(0.00739667 -0.000731824 -1.2829e-24)
(0.00719648 -0.000710087 1.00477e-23)
(0.00698193 -0.000636892 -4.95169e-24)
(0.00676385 -0.000503368 4.95688e-25)
(0.00655748 -0.000300437 -2.25557e-23)
(0.00638477 -2.0579e-05 1.75349e-23)
(0.00627628 0.00033568 -7.45478e-24)
(0.00626515 0.000740056 1.27583e-24)
(0.00636565 0.00110905 1.03336e-23)
(0.00655276 0.00128079 -2.74969e-24)
(0.00513728 -0.00030778 -5.40146e-24)
(0.00510444 -0.000346604 1.11073e-23)
(0.00508055 -0.000355127 3.23353e-24)
(0.00508036 -0.000344253 1.39124e-23)
(0.00510282 -0.000319855 -3.43679e-23)
(0.00515244 -0.000287275 -1.09381e-24)