/*--------------------------------*- C++ -*----------------------------------*\
| =========                 |                                                 |
| \\      /  F ield         | OpenFOAM: The Open Source CFD Toolbox           |
|  \\    /   O peration     | Version:  2312                                  |
|   \\  /    A nd           | Website:  www.openfoam.com                      |
|    \\/     M anipulation  |                                                 |
\*---------------------------------------------------------------------------*/
FoamFile
{
    version     2.0;
    format      ascii;
    arch        "LSB;label=32;scalar=64";
    class       volVectorField;
    location    "36.75";
    object      U;
}
// * * * * * * * * * * * * * * * * * * * * * * * * * * * * * * * * * * * * * //

dimensions      [0 1 -1 0 0 0 0];

internalField   nonuniform List<vector> 
4800
(
(0.000479094 1.91018e-07 -1.88416e-26)
(0.000475329 1.8437e-07 -1.34412e-25)
(0.000474109 1.76323e-07 1.71801e-25)
(0.000474483 1.76321e-07 8.12619e-26)
(0.000475817 1.85688e-07 1.2327e-24)
(0.000477872 1.71043e-07 -2.96232e-24)
(0.000480539 1.22166e-07 2.81647e-24)
(0.000483851 2.93431e-08 -4.16401e-24)
(0.000487903 -1.2743e-07 1.31602e-24)
(0.000492903 -3.90987e-07 4.66607e-24)
(0.000499317 -9.19982e-07 -1.43301e-24)
(0.000508488 -2.3834e-06 -1.11203e-25)
(0.000528043 -7.81177e-06 -1.80402e-24)
(0.00057656 -2.98151e-05 8.65037e-25)
(0.000655443 -9.59325e-05 -6.93417e-25)
(0.00148618 9.58687e-07 -5.97294e-26)
(0.00147444 4.69963e-07 7.44929e-26)
(0.00147011 9.16886e-08 -7.02743e-25)
(0.00147043 -2.20351e-07 5.175e-25)
(0.00147346 -5.00571e-07 1.74702e-24)
(0.00147868 -8.21125e-07 -2.83452e-24)
(0.00148567 -1.24253e-06 -8.55294e-25)
(0.00149445 -1.83086e-06 -2.38787e-25)
(0.00150528 -2.69259e-06 6.95779e-24)
(0.00151874 -4.06607e-06 -5.18751e-24)
(0.00153616 -6.63713e-06 5.64222e-25)
(0.00156036 -1.27065e-05 8.83635e-25)
(0.00160068 -3.02953e-05 -1.33087e-24)
(0.00166785 -8.41872e-05 -4.28275e-25)
(0.00173875 -0.000205331 1.77393e-24)
(0.0026036 3.08407e-06 -4.28009e-26)
(0.0025831 1.56668e-06 4.36794e-26)
(0.00257486 4.217e-07 4.60886e-25)
(0.00257428 -5.49295e-07 -1.10034e-24)
(0.00257814 -1.46462e-06 1.09594e-24)
(0.00258561 -2.48842e-06 1.08574e-24)
(0.00259605 -3.75443e-06 -2.81315e-24)
(0.00260926 -5.46257e-06 -1.80274e-24)
(0.00262558 -7.91468e-06 4.28963e-24)
(0.00264573 -1.17464e-05 1.66875e-24)
(0.00267119 -1.84876e-05 -5.79149e-24)
(0.00270424 -3.22107e-05 -9.2682e-25)
(0.00274913 -6.27412e-05 2.50245e-24)
(0.0028044 -0.000130398 4.04796e-24)
(0.00284378 -0.000243044 -2.10182e-24)
(0.00383685 6.89835e-06 1.58307e-26)
(0.00380716 3.67209e-06 -1.10852e-25)
(0.00379427 1.24615e-06 5.01091e-25)
(0.00379186 -7.95014e-07 5.48542e-25)
(0.00379566 -2.67165e-06 -5.21639e-25)
(0.00380423 -4.81833e-06 -3.24869e-24)
(0.00381697 -7.41432e-06 -2.31954e-24)
(0.00383318 -1.08229e-05 8.5541e-24)
(0.00385317 -1.5617e-05 3.66489e-24)
(0.00387739 -2.28363e-05 -5.18366e-24)
(0.00390675 -3.46074e-05 -2.12122e-24)
(0.0039418 -5.55205e-05 -1.65244e-24)
(0.00398179 -9.37124e-05 4.16259e-26)
(0.00401931 -0.000159644 1.23852e-24)
(0.00403548 -0.000248368 6.0791e-27)
(0.00518844 1.27257e-05 -2.90446e-26)
(0.00514981 7.02508e-06 -1.78697e-25)
(0.00513198 2.75911e-06 -1.18629e-25)
(0.00512691 -8.46821e-07 3.01486e-25)
(0.0051299 -4.00689e-06 -8.90534e-25)
(0.00513843 -7.67281e-06 2.28929e-24)
(0.00515211 -1.20655e-05 -3.95919e-25)
(0.00516969 -1.76276e-05 1.50061e-24)
(0.0051912 -2.52158e-05 -8.33408e-24)
(0.00521661 -3.61077e-05 1.60101e-23)
(0.00524584 -5.2476e-05 -1.56204e-23)
(0.00527777 -7.80381e-05 8.33631e-24)
(0.00530908 -0.000117624 -7.80487e-24)
(0.005332 -0.000174439 7.39124e-24)
(0.00533594 -0.000240935 -2.95117e-24)
(0.00665606 2.08526e-05 3.82888e-26)
(0.00661011 1.18804e-05 1.37861e-25)
(0.00658786 5.20937e-06 -7.3456e-25)
(0.00657984 -2.80322e-07 -4.85754e-25)
(0.00658162 -5.44557e-06 1.26873e-24)
(0.00658931 -1.08155e-05 4.72415e-25)
(0.00660263 -1.73334e-05 -3.7711e-24)
(0.00661997 -2.53317e-05 9.10588e-24)
(0.00664093 -3.58275e-05 -1.19946e-23)
(0.00666491 -5.00946e-05 2.8565e-24)
(0.00669093 -6.987e-05 8.95936e-24)
(0.00671694 -9.73707e-05 -1.25562e-23)
(0.00673924 -0.000134396 6.3085e-24)
(0.0067522 -0.0001804 6.48985e-24)
(0.00675111 -0.000229187 -4.94348e-24)
(0.00823052 3.1273e-05 3.14546e-26)
(0.00818099 1.83032e-05 -1.87022e-25)
(0.00815624 8.72347e-06 6.78615e-25)
(0.00814638 8.10432e-07 -9.51846e-25)
(0.00814669 -6.41781e-06 -3.337e-24)
(0.00815354 -1.39952e-05 5.70097e-24)
(0.00816565 -2.27572e-05 -3.54344e-24)
(0.00818156 -3.32479e-05 1.22901e-23)
(0.0082004 -4.64285e-05 -8.35075e-24)
(0.0082211 -6.334e-05 -3.97494e-24)
(0.00824218 -8.5044e-05 -7.95506e-24)
(0.00826141 -0.000112357 7.31156e-24)
(0.00827594 -0.000145154 2.07069e-24)
(0.00828248 -0.000181584 1.77141e-24)
(0.00827967 -0.000217477 -1.55968e-24)
(0.00989393 4.33223e-05 -4.46363e-26)
(0.00984733 2.58808e-05 6.14427e-25)
(0.00982403 1.3039e-05 -1.44565e-24)
(0.00981484 2.45746e-06 -1.23128e-24)
(0.00981502 -7.13879e-06 4.18015e-25)
(0.00982148 -1.69613e-05 8.85606e-25)
(0.00983249 -2.79722e-05 3.35454e-24)
(0.00984658 -4.07645e-05 -9.31598e-24)
(0.00986261 -5.61178e-05 -5.13425e-24)
(0.00987929 -7.47066e-05 1.38754e-23)
(0.00989507 -9.69268e-05 -4.37957e-24)
(0.00990812 -0.000122649 1.49837e-23)
(0.00991665 -0.000150917 -7.91057e-24)
(0.00991906 -0.000179867 -2.51784e-24)
(0.00991561 -0.000206955 1.48982e-24)
(0.01162 5.52406e-05 -5.70698e-27)
(0.0115855 3.33543e-05 3.35835e-25)
(0.0115697 1.72124e-05 -4.8054e-25)
(0.0115653 3.97127e-06 1.19017e-24)
(0.0115682 -8.01565e-06 -7.21842e-24)
(0.011576 -2.00012e-05 7.66128e-24)
(0.0115871 -3.30196e-05 -1.24304e-23)
(0.0116 -4.76627e-05 7.58707e-24)
(0.0116136 -6.44635e-05 5.76181e-24)
(0.0116268 -8.37136e-05 1.2735e-23)
(0.0116382 -0.000105318 -1.66724e-23)
(0.0116465 -0.000128694 -3.10462e-24)
(0.011651 -0.000152755 1.4448e-24)
(0.011651 -0.000176097 1.02191e-23)
(0.0116473 -0.000197261 -4.14875e-24)
(0.013379 6.38952e-05 2.90247e-26)
(0.0133665 3.83135e-05 -1.35109e-25)
(0.0133653 1.93191e-05 6.31876e-25)
(0.0133709 3.74217e-06 -2.26087e-24)
(0.0133804 -1.02928e-05 3.4751e-24)
(0.0133924 -2.40911e-05 -4.57966e-24)
(0.0134056 -3.86345e-05 7.78254e-24)
(0.0134191 -5.44593e-05 1.44637e-24)
(0.0134319 -7.18613e-05 -1.09528e-23)
(0.013443 -9.08351e-05 1.57665e-23)
(0.0134519 -0.000111024 -1.74423e-23)
(0.0134576 -0.000131753 -5.14905e-24)
(0.0134601 -0.000152122 9.10205e-24)
(0.0134592 -0.000171223 2.68957e-24)
(0.013456 -0.000188267 -1.17249e-24)
(0.0151501 6.52673e-05 9.5073e-26)
(0.0151658 3.73998e-05 -1.01022e-24)
(0.0151844 1.64891e-05 -1.78088e-24)
(0.0152041 -7.49723e-07 4.14923e-24)
(0.0152239 -1.6166e-05 1.94723e-24)
(0.0152429 -3.11088e-05 -1.22535e-23)
(0.0152607 -4.64523e-05 3.71142e-24)
(0.0152769 -6.26284e-05 2.72478e-24)
(0.0152908 -7.97501e-05 -1.2226e-23)
(0.0153022 -9.76452e-05 1.26841e-23)
(0.0153106 -0.00011589 -1.02461e-23)
(0.015316 -0.000133909 2.63229e-23)
(0.0153186 -0.000151068 -1.26413e-23)
(0.0153183 -0.000166838 7.42553e-24)
(0.0153164 -0.000180823 -2.01977e-24)
(0.0169358 5.63803e-05 -9.7413e-27)
(0.0169771 2.7671e-05 6.27857e-25)
(0.0170149 5.84257e-06 -1.3473e-24)
(0.017049 -1.20956e-05 -7.53082e-25)
(0.0170797 -2.80682e-05 8.30295e-24)
(0.0171068 -4.33352e-05 -1.10695e-24)
(0.0171304 -5.8634e-05 -1.51888e-23)
(0.0171505 -7.42924e-05 1.79169e-23)
(0.0171672 -9.03201e-05 -4.01159e-24)
(0.0171804 -0.0001065 -1.4119e-23)
(0.0171903 -0.000122465 1.50995e-23)
(0.0171971 -0.0001378 8.11603e-24)
(0.0172012 -0.000152109 -6.89388e-24)
(0.0172027 -0.000165114 -1.18238e-23)
(0.0172029 -0.000176634 9.8762e-25)
(0.0187636 3.79075e-05 -2.71611e-26)
(0.0188187 8.86206e-06 -6.41527e-25)
(0.0188677 -1.31603e-05 3.51152e-24)
(0.018911 -3.11402e-05 3.81307e-25)
(0.0189487 -4.70435e-05 2.3209e-24)
(0.0189814 -6.19574e-05 -7.93331e-24)
(0.0190092 -7.65058e-05 6.97403e-24)
(0.0190325 -9.0956e-05 1.66484e-24)
(0.0190516 -0.0001053 1.46242e-23)
(0.0190668 -0.000119365 -2.25315e-23)
(0.0190786 -0.000132893 -1.02283e-23)
(0.0190872 -0.00014563 -6.72763e-24)
(0.0190934 -0.000157358 1.27216e-23)
(0.0190971 -0.000167948 -3.56936e-25)
(0.0190996 -0.000177337 1.22125e-24)
(0.0206606 1.41688e-05 -2.70275e-26)
(0.0207156 -1.53545e-05 5.65069e-25)
(0.020765 -3.7539e-05 -8.45511e-25)
(0.0208086 -5.55675e-05 -1.97193e-26)
(0.0208468 -7.11873e-05 1.52626e-24)
(0.0208797 -8.54317e-05 4.04063e-24)
(0.0209077 -9.88819e-05 -1.56955e-23)
(0.0209311 -0.0001118 1.24799e-24)
(0.0209504 -0.000124229 8.09806e-24)
(0.020966 -0.000136089 -3.76476e-24)
(0.0209784 -0.000147251 1.02759e-23)
(0.0209878 -0.00015759 7.15639e-24)
(0.0209951 -0.000167009 -1.30145e-23)
(0.0210002 -0.000175467 8.82021e-24)
(0.0210042 -0.000182962 -7.32812e-24)
(0.0226163 -9.99789e-06 -6.48621e-25)
(0.0226633 -4.01326e-05 7.10321e-25)
(0.0227056 -6.28492e-05 9.10183e-25)
(0.0227431 -8.10219e-05 -6.16657e-24)
(0.0227761 -9.63552e-05 5.55255e-24)
(0.0228046 -0.000109881 -4.48027e-24)
(0.0228289 -0.000122183 3.16086e-24)
(0.0228492 -0.000133567 -2.35146e-23)
(0.022866 -0.000144158 3.39528e-23)
(0.0228797 -0.00015398 -2.01505e-23)
(0.0228907 -0.000163017 1.80234e-23)
(0.0228992 -0.000171256 1.50064e-23)
(0.022906 -0.00017868 -2.62167e-23)
(0.022911 -0.000185296 8.50234e-24)
(0.0229151 -0.000191129 -3.54964e-25)
(0.0245692 -3.23675e-05 -2.12785e-26)
(0.0246069 -6.29667e-05 6.48017e-25)
(0.0246405 -8.60465e-05 -7.4107e-25)
(0.0246701 -0.000104212 -1.65901e-25)
(0.024696 -0.000119158 2.1558e-24)
(0.0247182 -0.000131895 -3.8517e-24)
(0.0247371 -0.000143041 3.76365e-24)
(0.0247529 -0.000152968 -1.23004e-23)
(0.0247659 -0.000161897 2.82739e-23)
(0.0247764 -0.000169922 -3.64507e-23)
(0.0247848 -0.000177101 2.99606e-23)
(0.0247913 -0.000183506 -1.01338e-23)
(0.0247965 -0.000189179 5.15394e-25)
(0.0248002 -0.000194169 2.27811e-24)
(0.0248032 -0.00019852 -4.4004e-24)
(0.0264191 -5.33351e-05 -1.70333e-24)
(0.0264495 -8.35864e-05 3.90657e-24)
(0.0264759 -0.000106421 -2.29949e-24)
(0.0264986 -0.000124145 -2.86082e-25)
(0.0265182 -0.000138406 2.5886e-24)
(0.0265348 -0.000150165 -2.92931e-24)
(0.0265488 -0.000160066 -3.19253e-24)
(0.0265602 -0.000168535 -8.05647e-24)
(0.0265695 -0.000175921 3.84232e-24)
(0.0265769 -0.00018232 1.97722e-23)
(0.0265827 -0.000187864 -1.05141e-23)
(0.026587 -0.000192674 6.30796e-24)
(0.0265902 -0.000196764 -2.61102e-24)
(0.0265923 -0.00020021 -7.66133e-24)
(0.0265939 -0.00020312 3.91287e-24)
(0.0280412 -7.38096e-05 5.5144e-25)
(0.0280665 -0.000102826 -1.0376e-24)
(0.0280876 -0.000124667 -1.51406e-24)
(0.0281053 -0.00014144 3.00017e-24)
(0.0281201 -0.000154575 -1.54738e-24)
(0.0281323 -0.000165094 2.95951e-24)
(0.0281423 -0.000173602 -3.06152e-24)
(0.0281503 -0.000180474 -2.59277e-24)
(0.0281566 -0.000186354 2.25676e-24)
(0.0281614 -0.000191065 -2.99786e-24)
(0.028165 -0.000195019 6.9341e-24)
(0.0281674 -0.000198355 3.61949e-24)
(0.0281691 -0.000201021 -1.34631e-23)
(0.0281698 -0.000202989 9.32488e-24)
(0.0281698 -0.00020445 -1.90097e-24)
(0.0292799 -9.50944e-05 1.62263e-24)
(0.0293007 -0.000122018 3.21648e-24)
(0.0293172 -0.000142006 -6.95844e-24)
(0.0293302 -0.000157233 -1.83476e-24)
(0.0293405 -0.000168753 3.83535e-24)
(0.0293486 -0.000177658 1.68698e-27)
(0.0293548 -0.000184473 -2.30701e-24)
(0.0293595 -0.000189674 2.74073e-24)
(0.0293627 -0.00019387 5.24064e-24)
(0.0293647 -0.000196897 -1.30147e-23)
(0.0293658 -0.000198918 7.85174e-24)
(0.0293655 -0.000200894 -4.82698e-25)
(0.0293648 -0.000201566 -3.17404e-25)
(0.0293637 -0.000201688 3.77943e-25)
(0.0293628 -0.000201656 -2.21974e-25)
(0.0299209 -0.000113057 -4.27352e-24)
(0.0299329 -0.000136403 -9.75259e-24)
(0.0299415 -0.00015387 4.44711e-24)
(0.0299473 -0.000166823 1.91014e-23)
(0.0299516 -0.000176422 -5.53589e-24)
(0.0299542 -0.000183523 -2.63272e-24)
(0.0299557 -0.000188491 1.58102e-24)
(0.0299563 -0.000192076 5.33642e-25)
(0.0299558 -0.00019457 1.38435e-24)
(0.0299546 -0.000195992 -1.02893e-24)
(0.0299531 -0.000196447 1.78641e-24)
(0.0299512 -0.000196303 -2.45447e-24)
(0.0299485 -0.000195681 -3.26831e-24)
(0.0299452 -0.000194735 4.99711e-24)
(0.0299417 -0.000193364 -2.22024e-24)
(0.0297565 -0.000126459 6.78711e-24)
(0.029765 -0.000145823 -1.56277e-23)
(0.0297701 -0.000160126 2.51771e-24)
(0.029773 -0.000170554 2.29671e-23)
(0.0297743 -0.000178063 -2.24683e-23)
(0.0297742 -0.000183249 8.04753e-24)
(0.0297731 -0.000186647 5.99334e-24)
(0.0297712 -0.000188671 -1.37558e-23)
(0.0297685 -0.000189573 1.86664e-24)
(0.0297652 -0.000189586 2.86735e-24)
(0.0297612 -0.000188923 -1.88252e-25)
(0.0297568 -0.000187709 1.20618e-24)
(0.029752 -0.000185909 -1.62849e-24)
(0.029747 -0.000183528 1.20316e-24)
(0.0297417 -0.000180635 -5.73174e-25)
(0.0287856 -0.000134388 4.20837e-24)
(0.0287885 -0.000150053 -8.81565e-24)
(0.0287887 -0.000161526 -5.84535e-24)
(0.0287871 -0.000169627 2.75107e-23)
(0.0287843 -0.000175133 -2.489e-23)
(0.0287805 -0.000178636 2.75296e-24)
(0.0287758 -0.00018056 4.03492e-24)
(0.0287705 -0.00018125 2.05451e-24)
(0.0287647 -0.000180951 1.42884e-24)
(0.0287586 -0.000179793 -6.14837e-24)
(0.028752 -0.00017786 3.97034e-24)
(0.0287453 -0.000175242 7.51973e-25)
(0.0287384 -0.000172016 -2.39534e-24)
(0.0287313 -0.000168256 1.26645e-24)
(0.0287239 -0.000164026 6.68282e-25)
(0.027265 -0.000135619 1.04577e-23)
(0.0272625 -0.000147982 -1.83983e-23)
(0.0272578 -0.000156832 3.80417e-24)
(0.0272518 -0.000162839 -8.14248e-24)
(0.0272449 -0.000166651 -9.80928e-24)
(0.0272373 -0.000168755 3.44348e-23)
(0.0272291 -0.000169485 -1.27816e-23)
(0.0272206 -0.000169081 3.30478e-24)
(0.0272117 -0.00016771 -1.69845e-24)
(0.0272027 -0.000165496 -3.02775e-24)
(0.0271935 -0.000162545 4.97342e-24)
(0.0271841 -0.000158958 -1.59258e-24)
(0.0271746 -0.00015481 4.01911e-25)
(0.027165 -0.000150157 -4.77832e-25)
(0.0271553 -0.000145044 1.2243e-25)
(0.0253953 -0.000131469 4.0246e-24)
(0.025387 -0.000140943 -2.03143e-23)
(0.025377 -0.000147616 3.44104e-23)
(0.0253662 -0.000151932 -2.55409e-23)
(0.0253548 -0.000154365 2.40298e-23)
(0.0253431 -0.0001553 -8.36436e-24)
(0.025331 -0.000155009 -5.41725e-24)
(0.0253187 -0.000153683 -5.15652e-24)
(0.0253064 -0.000151472 7.58884e-24)
(0.025294 -0.000148502 -1.38466e-24)
(0.0252816 -0.000144869 -5.82289e-24)
(0.0252693 -0.000140648 -9.27646e-26)
(0.025257 -0.000135895 2.77282e-25)
(0.0252448 -0.00013066 1.47129e-25)
(0.0252327 -0.000124979 -7.85873e-26)
(0.0233215 -0.000121955 5.3544e-25)
(0.0233069 -0.000129069 -7.59442e-24)
(0.0232912 -0.000133932 -3.81336e-24)
(0.0232752 -0.000136839 3.24891e-23)
(0.0232589 -0.000138163 -3.10017e-23)
(0.0232427 -0.000138205 8.82292e-24)
(0.0232264 -0.000137179 1.37398e-24)
(0.0232104 -0.000135244 -6.54508e-25)
(0.0231945 -0.000132531 -2.58121e-24)
(0.023179 -0.000129144 1.0047e-23)
(0.0231637 -0.000125161 -7.53123e-24)
(0.0231487 -0.000120641 -3.61379e-27)
(0.023134 -0.000115631 3.34689e-25)
(0.0231197 -0.000110172 -3.54456e-25)
(0.0231057 -0.000104301 3.49884e-25)
(0.0211476 -0.000108132 7.97041e-25)
(0.0211275 -0.000113253 7.00827e-24)
(0.0211069 -0.000116596 -8.08438e-24)
(0.0210866 -0.000118448 -5.1724e-24)
(0.0210664 -0.000119063 3.15466e-23)
(0.0210465 -0.000118628 -2.41368e-23)
(0.0210271 -0.000117288 -7.07973e-25)
(0.0210083 -0.000115166 -4.24046e-24)
(0.0209899 -0.000112364 -1.28993e-25)
(0.0209722 -0.000108965 6.79004e-25)
(0.020955 -0.000105032 -1.06664e-24)
(0.0209384 -0.000100614 1.42975e-24)
(0.0209224 -9.57533e-05 5.8504e-25)
(0.020907 -9.04899e-05 3.21302e-25)
(0.0208922 -8.48589e-05 -2.6062e-25)
(0.0189566 -9.16237e-05 5.68404e-24)
(0.0189331 -9.53944e-05 -8.62987e-24)
(0.0189096 -9.78417e-05 -6.42669e-24)
(0.0188867 -9.91487e-05 1.94854e-23)
(0.0188644 -9.94618e-05 -7.00092e-24)
(0.0188427 -9.89075e-05 -8.86661e-24)
(0.0188218 -9.75966e-05 3.19997e-24)
(0.0188017 -9.56235e-05 6.04637e-24)
(0.0187823 -9.30664e-05 -8.74318e-24)
(0.0187638 -8.9988e-05 7.86864e-24)
(0.0187461 -8.64383e-05 -3.60319e-24)
(0.0187293 -8.24593e-05 1.16612e-24)
(0.0187133 -7.8087e-05 -5.54491e-25)
(0.0186982 -7.33564e-05 7.2368e-26)
(0.0186839 -6.82991e-05 1.97369e-25)
(0.0168145 -7.49127e-05 -1.10441e-24)
(0.0167898 -7.7893e-05 -3.67461e-24)
(0.0167656 -7.98455e-05 -1.12324e-23)
(0.0167422 -8.09149e-05 3.12719e-23)
(0.0167195 -8.11984e-05 -5.9068e-24)
(0.0166977 -8.07813e-05 -8.28661e-24)
(0.0166767 -7.97389e-05 2.47909e-24)
(0.0166567 -7.81394e-05 -3.66499e-24)
(0.0166377 -7.60413e-05 -6.62987e-24)
(0.0166196 -7.34922e-05 6.46806e-24)
(0.0166024 -7.05308e-05 3.02643e-25)
(0.0165863 -6.71899e-05 -9.79247e-25)
(0.0165712 -6.34988e-05 1.16082e-24)
(0.0165571 -5.94873e-05 -4.97925e-26)
(0.016544 -5.51838e-05 4.25469e-26)
(0.0147679 -5.96544e-05 4.25617e-24)
(0.0147438 -6.21307e-05 5.93101e-24)
(0.0147204 -6.38198e-05 -5.83472e-24)
(0.0146978 -6.48471e-05 -1.16752e-23)
(0.014676 -6.52575e-05 1.5071e-23)
(0.014655 -6.50972e-05 -1.57924e-23)
(0.0146349 -6.44184e-05 -1.2295e-25)
(0.0146158 -6.32736e-05 5.75065e-24)
(0.0145976 -6.17073e-05 1.82379e-24)
(0.0145804 -5.97541e-05 -2.98111e-24)
(0.0145642 -5.7441e-05 5.37494e-25)
(0.0145491 -5.47926e-05 4.43177e-24)
(0.0145351 -5.18322e-05 -1.61597e-24)
(0.0145222 -4.85858e-05 -1.92081e-25)
(0.0145103 -4.50781e-05 6.75714e-27)
(0.0128441 -4.65321e-05 -4.42833e-24)
(0.0128218 -4.8653e-05 5.66834e-24)
(0.0127999 -5.01951e-05 5.65419e-25)
(0.0127788 -5.12446e-05 1.03605e-23)
(0.0127582 -5.18027e-05 -8.66097e-24)
(0.0127384 -5.18956e-05 4.34542e-25)
(0.0127194 -5.15642e-05 -1.02902e-24)
(0.0127013 -5.08486e-05 -2.36888e-24)
(0.012684 -4.9781e-05 1.62377e-24)
(0.0126677 -4.83844e-05 -5.18983e-24)
(0.0126524 -4.66766e-05 6.98141e-25)
(0.0126381 -4.46757e-05 1.20832e-24)
(0.0126248 -4.23997e-05 5.70056e-25)
(0.0126126 -3.98714e-05 1.41674e-25)
(0.0126015 -3.71117e-05 -1.17907e-26)
(0.0110555 -3.56189e-05 3.28562e-24)
(0.011035 -3.74398e-05 -2.62271e-24)
(0.011015 -3.88542e-05 -1.07694e-23)
(0.0109954 -3.98989e-05 1.00933e-23)
(0.0109762 -4.05519e-05 1.30417e-23)
(0.0109575 -4.08326e-05 -3.76668e-24)
(0.0109395 -4.07731e-05 -6.59598e-24)
(0.0109222 -4.04026e-05 -8.15141e-24)
(0.0109056 -3.9743e-05 5.93528e-24)
(0.0108899 -3.88089e-05 2.1001e-25)
(0.0108751 -3.76113e-05 -1.07567e-24)
(0.0108611 -3.61626e-05 -1.59082e-25)
(0.0108482 -3.44771e-05 3.59635e-25)
(0.0108362 -3.25737e-05 -5.90254e-26)
(0.0108254 -3.04693e-05 7.5975e-27)
(0.0094038 -2.66864e-05 -2.07126e-24)
(0.00938535 -2.82175e-05 -1.37479e-24)
(0.00936705 -2.94785e-05 1.80453e-24)
(0.00934888 -3.0459e-05 -5.12082e-24)
(0.00933095 -3.11324e-05 1.66231e-23)
(0.00931335 -3.15161e-05 -2.11319e-23)
(0.00929619 -3.16339e-05 1.98373e-23)
(0.00927955 -3.15063e-05 -8.15532e-24)
(0.0092635 -3.11477e-05 1.57874e-24)
(0.00924812 -3.05664e-05 -1.6691e-25)
(0.00923347 -2.97685e-05 -1.19007e-24)
(0.00921963 -2.87625e-05 1.48845e-25)
(0.00920665 -2.75592e-05 -5.7773e-25)
(0.00919462 -2.61732e-05 -2.04944e-26)
(0.00918356 -2.4618e-05 -1.47432e-27)
(0.00788554 -1.94437e-05 -1.00805e-24)
(0.00786903 -2.06878e-05 2.7949e-25)
(0.00785241 -2.17616e-05 5.53054e-25)
(0.00783569 -2.26209e-05 -2.36792e-24)
(0.00781899 -2.32471e-05 -9.29174e-25)
(0.00780243 -2.36557e-05 8.68466e-24)
(0.00778611 -2.38635e-05 -5.01914e-24)
(0.00777012 -2.38842e-05 6.30059e-25)
(0.00775456 -2.3727e-05 -6.28554e-25)
(0.00773951 -2.33957e-05 -5.64411e-25)
(0.00772504 -2.28936e-05 -7.52545e-26)
(0.00771125 -2.22258e-05 8.13363e-25)
(0.0076982 -2.14003e-05 -9.75793e-27)
(0.00768597 -2.04276e-05 -2.92476e-25)
(0.00767461 -1.93178e-05 -7.32505e-29)
(0.00649423 -1.3643e-05 -3.67144e-25)
(0.00647967 -1.46107e-05 -1.08228e-25)
(0.00646477 -1.5473e-05 -5.57473e-24)
(0.00644959 -1.61732e-05 1.63561e-24)
(0.00643425 -1.67047e-05 -3.56746e-24)
(0.00641888 -1.70798e-05 2.86283e-24)
(0.00640358 -1.73099e-05 4.77548e-24)
(0.00638845 -1.74037e-05 3.20229e-24)
(0.00637358 -1.73666e-05 -4.29188e-24)
(0.00635907 -1.72001e-05 1.2822e-24)
(0.00634501 -1.69053e-05 8.73275e-25)
(0.00633147 -1.64851e-05 -1.00807e-24)
(0.00631855 -1.59451e-05 5.20167e-25)
(0.00630633 -1.52921e-05 5.00007e-26)
(0.00629486 -1.4533e-05 3.4495e-27)
(0.00522228 -9.09301e-06 -1.44016e-24)
(0.00520973 -9.805e-06 -1.88291e-24)
(0.0051967 -1.04495e-05 -2.39557e-25)
(0.00518325 -1.09761e-05 4.60774e-24)
(0.00516953 -1.13883e-05 -3.09252e-24)
(0.00515564 -1.16945e-05 -4.74468e-25)
(0.00514168 -1.19019e-05 4.6051e-24)
(0.00512777 -1.20158e-05 -1.09211e-25)
(0.00511398 -1.2039e-05 -9.27091e-25)
(0.00510041 -1.19718e-05 -2.67787e-24)
(0.00508715 -1.18141e-05 4.892e-25)
(0.00507429 -1.15673e-05 1.47267e-24)
(0.00506191 -1.12349e-05 -1.76409e-25)
(0.00505011 -1.08209e-05 -4.02773e-26)
(0.00503894 -1.03294e-05 4.94376e-27)
(0.00406172 -5.63809e-06 -3.15247e-25)
(0.00405131 -6.12589e-06 2.64947e-26)
(0.00404033 -6.56582e-06 2.2394e-24)
(0.00402887 -6.92618e-06 1.38023e-24)
(0.00401707 -7.21527e-06 -1.08365e-24)
(0.00400503 -7.4381e-06 -2.36725e-24)
(0.00399283 -7.59859e-06 8.75316e-25)
(0.00398057 -7.69978e-06 -3.4872e-24)
(0.00396834 -7.74305e-06 2.65087e-24)
(0.00395621 -7.72795e-06 1.13353e-24)
(0.00394428 -7.65405e-06 -1.56235e-25)
(0.00393263 -7.52176e-06 -1.03777e-24)
(0.00392134 -7.33301e-06 1.30754e-25)
(0.00391049 -7.08976e-06 -3.95691e-26)
(0.00390014 -6.79418e-06 3.13127e-27)
(0.00300468 -3.13751e-06 -5.81391e-25)
(0.00299651 -3.4441e-06 2.67459e-26)
(0.00298776 -3.7121e-06 1.80896e-24)
(0.00297856 -3.93133e-06 -1.12501e-24)
(0.002969 -4.11037e-06 4.29145e-24)
(0.00295916 -4.25174e-06 -7.68172e-24)
(0.00294914 -4.35747e-06 5.95756e-24)
(0.00293899 -4.42915e-06 -4.70249e-24)
(0.00292881 -4.46743e-06 3.16124e-24)
(0.00291865 -4.47188e-06 -1.85351e-24)
(0.00290859 -4.44204e-06 6.09453e-25)
(0.0028987 -4.37792e-06 7.51376e-26)
(0.00288907 -4.28052e-06 6.00063e-26)
(0.00287975 -4.15075e-06 -5.94735e-26)
(0.00287081 -3.98932e-06 1.41294e-27)
(0.00204351 -1.45521e-06 8.83698e-25)
(0.00203765 -1.62497e-06 9.078e-25)
(0.00203129 -1.76415e-06 -3.91599e-24)
(0.00202455 -1.87731e-06 2.80327e-24)
(0.0020175 -1.97002e-06 -5.12147e-26)
(0.00201019 -2.04336e-06 6.21509e-25)
(0.0020027 -2.09848e-06 -8.17185e-25)
(0.00199508 -2.13639e-06 -1.50589e-24)
(0.00198738 -2.1577e-06 1.43599e-24)
(0.00197966 -2.16243e-06 9.03105e-26)
(0.00197197 -2.15057e-06 -9.03774e-25)
(0.00196439 -2.12216e-06 3.29669e-25)
(0.00195695 -2.07787e-06 1.29783e-25)
(0.00194972 -2.01769e-06 -1.97734e-26)
(0.00194274 -1.94102e-06 -9.6673e-28)
(0.00117093 -4.57634e-07 -8.93284e-25)
(0.00116739 -5.00653e-07 2.68484e-24)
(0.00116351 -5.36851e-07 1.49094e-24)
(0.00115936 -5.69781e-07 -2.79306e-24)
(0.00115501 -5.98981e-07 -3.21643e-25)
(0.00115047 -6.2367e-07 -2.66035e-25)
(0.00114579 -6.43879e-07 7.52522e-25)
(0.00114101 -6.59905e-07 -1.22562e-24)
(0.00113615 -6.7204e-07 1.5313e-24)
(0.00113126 -6.80391e-07 -7.52538e-25)
(0.00112637 -6.85006e-07 -3.97421e-25)
(0.00112152 -6.85865e-07 2.12569e-25)
(0.00111674 -6.83124e-07 -1.44228e-25)
(0.00111208 -6.74575e-07 1.1149e-25)
(0.00110755 -6.57495e-07 -2.01939e-27)
(0.000380039 -1.20339e-08 -6.41504e-27)
(0.00037876 8.74962e-08 5.20682e-25)
(0.000377363 1.56043e-07 5.64326e-25)
(0.000375875 1.97388e-07 -9.13361e-25)
(0.00037431 2.16959e-07 1.75013e-24)
(0.000372678 2.19076e-07 -1.90526e-24)
(0.000370992 2.07212e-07 1.12982e-25)
(0.000369264 1.84307e-07 8.87737e-25)
(0.000367506 1.52918e-07 -1.22051e-24)
(0.000365729 1.15322e-07 -1.65339e-25)
(0.000363947 7.35355e-08 6.63191e-25)
(0.000362171 2.93734e-08 -2.73885e-25)
(0.000360414 -1.56088e-08 -5.55909e-26)
(0.000358692 -5.84785e-08 3.98677e-26)
(0.000357015 -9.63826e-08 -1.56033e-28)
(0.000970046 -0.000242788 6.89038e-26)
(0.00111431 -0.000151586 1.65926e-24)
(0.00135761 -6.14371e-05 -4.62001e-24)
(0.00160706 8.6568e-06 6.42097e-24)
(0.00184751 6.06407e-05 -2.4027e-24)
(0.00208359 9.54121e-05 -2.1174e-24)
(0.0023147 0.000115709 2.32284e-24)
(0.00254092 0.000123864 -4.39076e-24)
(0.00276259 0.000121902 3.69504e-25)
(0.00298002 0.00011168 2.64232e-24)
(0.00319359 9.48118e-05 -4.76611e-25)
(0.00340371 7.27476e-05 4.89837e-25)
(0.00361079 4.68459e-05 -6.03881e-26)
(0.00381522 1.84954e-05 2.31098e-25)
(0.00401755 -1.06844e-05 -8.25599e-25)
(0.00421841 -3.86679e-05 4.24422e-25)
(0.00441924 -6.28065e-05 -6.79163e-26)
(0.00462201 -7.9625e-05 3.66635e-26)
(0.00483078 -8.53532e-05 1.82205e-26)
(0.0050507 -7.59391e-05 6.31021e-27)
(0.00528982 -4.93324e-05 -5.58953e-27)
(0.00555511 -6.62022e-06 4.44884e-27)
(0.00582858 4.02195e-05 3.70907e-27)
(0.00607584 7.51366e-05 6.00916e-26)
(0.00628215 9.27011e-05 -1.03763e-25)
(0.00644601 9.22918e-05 -1.30105e-25)
(0.00656903 7.46147e-05 -1.81815e-26)
(0.00665372 4.07107e-05 3.40857e-25)
(0.00670157 -8.48475e-06 4.24302e-25)
(0.00671288 -7.1517e-05 -7.80799e-25)
(0.00668689 -0.00014561 1.62056e-25)
(0.00662232 -0.000226155 3.2742e-25)
(0.006518 -0.00030683 -3.27382e-25)
(0.0063734 -0.000379831 -1.47738e-24)
(0.00618887 -0.000436205 1.44729e-24)
(0.00596555 -0.000466112 7.70607e-24)
(0.00570525 -0.000458783 -2.30404e-24)
(0.00541031 -0.000401898 1.78153e-24)
(0.00508372 -0.000280087 9.20277e-25)
(0.00472981 -7.29074e-05 -1.07545e-23)
(0.00435383 0.000244217 -1.30435e-25)
(0.0039633 0.000688914 4.47019e-24)
(0.00354979 0.00123382 1.3769e-24)
(0.00313343 0.00175435 -6.22974e-24)
(0.00290184 0.00186753 -3.03233e-25)
(0.00183624 -0.000329655 -1.9688e-24)
(0.00189768 -0.000277032 -2.57547e-24)
(0.00205012 -0.000190551 5.50941e-24)
(0.00224109 -0.000112933 2.31745e-24)
(0.00244432 -4.99071e-05 -8.06446e-24)
(0.0026543 -3.68398e-06 8.2935e-24)
(0.0028661 2.73013e-05 -2.93113e-24)
(0.00307721 4.51443e-05 2.1358e-24)
(0.00328649 5.18568e-05 -2.83393e-24)
(0.00349335 4.93705e-05 4.28423e-26)
(0.00369755 3.93852e-05 -1.33661e-24)
(0.00389906 2.34486e-05 2.60713e-24)
(0.00409798 3.01316e-06 -1.3704e-24)
(0.0042944 -2.04558e-05 -1.00968e-24)
(0.00448863 -4.52851e-05 -4.11053e-25)
(0.00468102 -6.94133e-05 1.19238e-24)
(0.00487275 -9.02313e-05 3.8838e-27)
(0.00506539 -0.000104333 2.42197e-25)
(0.00526257 -0.000108045 -5.42461e-26)
(0.00546892 -9.74163e-05 -8.73261e-27)
(0.00569208 -7.03801e-05 1.58173e-26)
(0.00593884 -2.77331e-05 5.24441e-27)
(0.0061936 1.91416e-05 1.16148e-26)
(0.00642536 5.49206e-05 1.23136e-25)
(0.00662037 7.43838e-05 -2.77769e-26)
(0.00677681 7.67578e-05 -6.70866e-25)
(0.00689567 6.26282e-05 9.98927e-25)
(0.00697886 3.31013e-05 -7.52174e-25)
(0.00702736 -1.06194e-05 2.62604e-25)
(0.00704122 -6.70118e-05 -7.09185e-26)
(0.00701965 -0.000132939 7.57043e-26)
(0.00696152 -0.000203727 1.01377e-24)
(0.00686597 -0.000273056 -2.26663e-24)
(0.00673293 -0.000333226 8.09547e-24)
(0.00656334 -0.000375443 -1.23053e-23)
(0.00635924 -0.00039005 3.22632e-24)
(0.00612373 -0.000366499 1.32581e-23)
(0.00586112 -0.000292853 -3.7704e-24)
(0.00557752 -0.000154581 -1.03964e-23)
(0.00528245 6.72172e-05 -6.15379e-24)
(0.00499074 0.00039526 1.40329e-23)
(0.00472754 0.000846601 -1.33893e-23)
(0.00451994 0.00139402 -2.74205e-24)
(0.00441097 0.00190269 8.69337e-24)
(0.00444266 0.0019539 2.59827e-24)
(0.00286219 -0.000339706 -2.19837e-26)
(0.00287335 -0.000331302 -3.00399e-24)
(0.00294048 -0.000279528 5.73764e-24)
(0.00306248 -0.000213061 4.4263e-24)
(0.0032131 -0.000150466 -7.36892e-24)
(0.00338263 -9.91644e-05 1.68509e-25)
(0.00356297 -6.08982e-05 6.51268e-25)
(0.00374893 -3.51562e-05 6.61699e-24)
(0.0039375 -2.06579e-05 -7.78401e-24)
(0.0041268 -1.57832e-05 4.54238e-24)
(0.00431566 -1.89665e-05 1.17644e-24)
(0.00450339 -2.86864e-05 -6.94652e-24)
(0.00468957 -4.34678e-05 2.48229e-24)
(0.00487388 -6.18051e-05 8.55953e-25)
(0.00505628 -8.20296e-05 -1.46166e-24)
(0.00523678 -0.000102047 2.00682e-24)
(0.00541618 -0.000119296 -1.12191e-24)
(0.0055956 -0.000130458 1.17225e-25)
(0.0057782 -0.00013197 1.05652e-25)
(0.00596797 -0.000119991 1.77572e-26)
(0.00617208 -9.24485e-05 -2.24198e-28)
(0.00639703 -4.9852e-05 -2.18988e-26)
(0.00662976 -2.99633e-06 -2.03856e-26)
(0.00684304 3.35531e-05 1.3545e-25)
(0.00702421 5.48286e-05 -4.01195e-25)
(0.00717112 5.99284e-05 2.66347e-25)
(0.00728414 4.93195e-05 -9.1389e-25)
(0.00736451 2.41767e-05 1.22632e-24)
(0.00741271 -1.40959e-05 -1.03347e-24)
(0.0074285 -6.3696e-05 3.6483e-25)
(0.00741106 -0.000121346 7.68052e-25)
(0.00735943 -0.000182253 -1.17177e-24)
(0.00727307 -0.000240121 6.53518e-25)
(0.00715237 -0.00028741 4.13994e-24)
(0.00699896 -0.000315597 -1.05811e-23)
(0.00681579 -0.000315415 1.71665e-23)
(0.00660732 -0.000276899 -1.15416e-23)
(0.00637984 -0.000189134 1.64685e-23)
(0.00614236 -3.95711e-05 -3.13676e-23)
(0.00590872 0.000186655 1.19307e-23)
(0.00570036 0.000505608 4.10528e-24)
(0.00555085 0.000925152 6.27991e-24)
(0.00549776 0.00141069 -7.793e-24)
(0.00556656 0.00183049 2.04881e-24)
(0.00572438 0.00185576 -1.20346e-24)
(0.00402616 -0.00032413 -8.10759e-25)
(0.0040102 -0.00034295 -1.17829e-24)
(0.00402429 -0.000323015 -4.89229e-24)
(0.00408 -0.000280982 1.55456e-24)
(0.00417317 -0.000229913 1.01542e-24)
(0.00429299 -0.000181897 3.61697e-24)
(0.00443158 -0.000141969 -7.04715e-24)
(0.00458257 -0.000111945 2.80973e-24)
(0.00474153 -9.19252e-05 8.45636e-24)
(0.00490534 -8.10618e-05 -2.3136e-24)
(0.00507183 -7.82406e-05 -2.01422e-24)
(0.0052395 -8.21645e-05 -2.9916e-25)
(0.00540732 -9.14633e-05 8.75525e-25)
(0.00557441 -0.000104685 -1.59212e-24)
(0.00574032 -0.000120195 4.18087e-25)
(0.0059046 -0.000135941 -4.60344e-27)
(0.00606764 -0.000149426 -2.04177e-25)
(0.00623004 -0.000157448 3.14915e-25)
(0.0063944 -0.00015658 1.05634e-25)
(0.00656404 -0.000143117 -4.70543e-26)
(0.00674552 -0.000114999 5.71364e-26)
(0.00694493 -7.2466e-05 1.24171e-26)
(0.00715193 -2.57345e-05 -3.44171e-26)
(0.00734333 1.14351e-05 -1.05818e-25)
(0.00750772 3.43812e-05 -4.96786e-25)
(0.00764261 4.2103e-05 6.83395e-25)
(0.00774769 3.495e-05 -8.74128e-25)
(0.00782358 1.41714e-05 1.68448e-24)
(0.0078702 -1.86177e-05 -1.37852e-24)
(0.007887 -6.1378e-05 4.42595e-25)
(0.00787315 -0.000110694 2.58676e-25)
(0.00782783 -0.0001617 -1.59963e-25)
(0.00775085 -0.000208187 -2.35335e-25)
(0.00764309 -0.000242883 -1.18817e-24)
(0.00750683 -0.000257704 1.72553e-24)
(0.00734595 -0.000244042 -5.16078e-24)
(0.0071661 -0.000192944 2.37456e-23)
(0.00697526 -9.51751e-05 -1.26425e-23)
(0.00678451 5.8811e-05 -5.17153e-25)