/*--------------------------------*- C++ -*----------------------------------*\
| =========                 |                                                 |
| \\      /  F ield         | OpenFOAM: The Open Source CFD Toolbox           |
|  \\    /   O peration     | Version:  2312                                  |
|   \\  /    A nd           | Website:  www.openfoam.com                      |
|    \\/     M anipulation  |                                                 |
\*---------------------------------------------------------------------------*/
FoamFile
{
    version     2.0;
    format      ascii;
    arch        "LSB;label=32;scalar=64";
    class       volScalarField;
    location    "161.75";
    object      p;
}
// * * * * * * * * * * * * * * * * * * * * * * * * * * * * * * * * * * * * * //

dimensions      [0 2 -2 0 0 0 0];

internalField   nonuniform List<scalar> 
4800
(
1.79317e-14
-1.60482e-06
-2.8991e-06
-3.95857e-06
-4.83749e-06
-5.57603e-06
-6.20172e-06
-6.74231e-06
-7.21617e-06
-7.63288e-06
-8.00368e-06
-8.33291e-06
-8.61635e-06
-9.08358e-06
-1.06595e-05
1.96505e-08
-1.58224e-06
-2.87493e-06
-3.93393e-06
-4.81323e-06
-5.55327e-06
-6.18172e-06
-6.72664e-06
-7.2067e-06
-7.63297e-06
-8.02173e-06
-8.39063e-06
-8.75521e-06
-9.2225e-06
-1.00345e-05
4.03643e-08
-1.55837e-06
-2.84944e-06
-3.90802e-06
-4.78789e-06
-5.52944e-06
-6.16038e-06
-6.70759e-06
-7.19243e-06
-7.62593e-06
-8.02499e-06
-8.40862e-06
-8.78646e-06
-9.16951e-06
-9.53908e-06
6.13302e-08
-1.53375e-06
-2.8228e-06
-3.88059e-06
-4.7606e-06
-5.50301e-06
-6.13641e-06
-6.68376e-06
-7.17024e-06
-7.60567e-06
-8.00293e-06
-8.37332e-06
-8.71092e-06
-8.98783e-06
-9.13936e-06
8.4168e-08
-1.50651e-06
-2.79295e-06
-3.84939e-06
-4.7289e-06
-5.47127e-06
-6.10539e-06
-6.65228e-06
-7.13551e-06
-7.56575e-06
-7.949e-06
-8.2873e-06
-8.56431e-06
-8.74465e-06
-8.777e-06
1.10265e-07
-1.47519e-06
-2.75831e-06
-3.81268e-06
-4.69079e-06
-5.43184e-06
-6.0641e-06
-6.60841e-06
-7.0835e-06
-7.49978e-06
-7.85776e-06
-8.1526e-06
-8.36609e-06
-8.47117e-06
-8.44189e-06
1.41651e-07
-1.43779e-06
-2.71674e-06
-3.76804e-06
-4.64345e-06
-5.38132e-06
-6.00891e-06
-6.54599e-06
-7.00792e-06
-7.40199e-06
-7.72624e-06
-7.97353e-06
-8.13029e-06
-8.18311e-06
-8.12611e-06
1.81959e-07
-1.39075e-06
-2.66454e-06
-3.71149e-06
-4.58241e-06
-5.31458e-06
-5.93404e-06
-6.45888e-06
-6.90172e-06
-7.26752e-06
-7.55419e-06
-7.75653e-06
-7.8685e-06
-7.88868e-06
-7.82251e-06
2.36968e-07
-1.32836e-06
-2.59587e-06
-3.63685e-06
-4.50103e-06
-5.22442e-06
-5.83179e-06
-6.3396e-06
-6.7585e-06
-7.09296e-06
-7.34292e-06
-7.50758e-06
-7.58803e-06
-7.59075e-06
-7.52596e-06
3.14648e-07
-1.24249e-06
-2.5023e-06
-3.53532e-06
-4.39013e-06
-5.1014e-06
-5.69278e-06
-6.17971e-06
-6.57215e-06
-6.8757e-06
-7.09373e-06
-7.23022e-06
-7.29151e-06
-7.28807e-06
-7.23129e-06
4.24549e-07
-1.12288e-06
-2.37295e-06
-3.39552e-06
-4.23807e-06
-4.93401e-06
-5.50629e-06
-5.97021e-06
-6.3364e-06
-6.61284e-06
-6.80624e-06
-6.92455e-06
-6.97718e-06
-6.97597e-06
-6.93172e-06
5.76971e-07
-9.57775e-07
-2.19502e-06
-3.20405e-06
-4.03127e-06
-4.70924e-06
-5.26074e-06
-5.70186e-06
-6.04483e-06
-6.30004e-06
-6.47723e-06
-6.58684e-06
-6.6394e-06
-6.64665e-06
-6.61823e-06
7.82827e-07
-7.3416e-07
-1.95419e-06
-2.94589e-06
-3.75485e-06
-4.41316e-06
-4.94401e-06
-5.36485e-06
-5.68965e-06
-5.93084e-06
-6.09989e-06
-6.2094e-06
-6.26883e-06
-6.28927e-06
-6.27921e-06
1.05391e-06
-4.37415e-07
-1.63424e-06
-2.60418e-06
-3.39225e-06
-4.03045e-06
-4.54262e-06
-4.94751e-06
-5.26067e-06
-5.49588e-06
-5.66568e-06
-5.78062e-06
-5.85215e-06
-5.88958e-06
-5.90007e-06
1.40241e-06
-5.16359e-08
-1.21719e-06
-2.16012e-06
-2.92485e-06
-3.54341e-06
-4.04013e-06
-4.43447e-06
-4.74257e-06
-4.97855e-06
-5.15472e-06
-5.28209e-06
-5.37038e-06
-5.42814e-06
-5.46151e-06
1.8395e-06
4.38757e-07
-6.84894e-07
-1.59435e-06
-2.33297e-06
-2.93249e-06
-3.41716e-06
-3.8063e-06
-4.11575e-06
-4.35898e-06
-4.54759e-06
-4.69187e-06
-4.8006e-06
-4.88148e-06
-4.93997e-06
2.37297e-06
1.04627e-06
-2.18839e-08
-8.89748e-07
-1.59862e-06
-2.17896e-06
-2.654e-06
-3.04205e-06
-3.35786e-06
-3.61374e-06
-3.82008e-06
-3.98586e-06
-4.11864e-06
-4.22525e-06
-4.31111e-06
3.00424e-06
1.77643e-06
7.80268e-07
-3.59068e-08
-7.09799e-07
-1.26933e-06
-1.73548e-06
-2.12454e-06
-2.44945e-06
-2.72102e-06
-2.94847e-06
-3.13965e-06
-3.30063e-06
-3.43698e-06
-3.5536e-06
3.72585e-06
2.62326e-06
1.71726e-06
9.64549e-07
3.32717e-07
-2.02301e-07
-6.58216e-07
-1.04831e-06
-1.38295e-06
-1.67068e-06
-1.91918e-06
-2.1355e-06
-2.32558e-06
-2.49482e-06
-2.64592e-06
4.51848e-06
3.56415e-06
2.76468e-06
2.08661e-06
1.50424e-06
9.98576e-07
5.55878e-07
1.66129e-07
-1.7834e-07
-4.83729e-07
-7.55091e-07
-9.96971e-07
-1.21444e-06
-1.41248e-06
-1.59704e-06
5.3104e-06
4.50928e-06
3.82089e-06
3.22129e-06
2.69186e-06
2.21903e-06
1.79326e-06
1.40762e-06
1.05666e-06
7.35974e-07
4.41148e-07
1.67882e-07
-8.46655e-08
-3.17848e-07
-5.36087e-07
5.98248e-06
5.312e-06
4.7196e-06
4.18923e-06
3.7082e-06
3.26743e-06
2.86059e-06
2.48327e-06
2.13191e-06
1.80317e-06
1.49458e-06
1.20374e-06
9.24944e-07
6.54942e-07
3.94035e-07
6.50206e-06
5.92754e-06
5.40551e-06
4.92562e-06
4.47967e-06
4.06199e-06
3.66861e-06
3.29652e-06
2.94314e-06
2.60589e-06
2.28194e-06
1.96892e-06
1.66501e-06
1.37337e-06
1.08969e-06
6.885e-06
6.38004e-06
5.90923e-06
5.46659e-06
5.04715e-06
4.64745e-06
4.2649e-06
3.89731e-06
3.54271e-06
3.19934e-06
2.8659e-06
2.54135e-06
2.22501e-06
1.91208e-06
1.60573e-06
7.1604e-06
6.70539e-06
6.27224e-06
5.85764e-06
5.4586e-06
5.07298e-06
4.69898e-06
4.33505e-06
3.97977e-06
3.63195e-06
3.2905e-06
2.95434e-06
2.62235e-06
2.29353e-06
1.96765e-06
7.35306e-06
6.93398e-06
6.52854e-06
6.13489e-06
5.75114e-06
5.37594e-06
5.00805e-06
4.6463e-06
4.28964e-06
3.93705e-06
3.58758e-06
3.24065e-06
2.89596e-06
2.5528e-06
2.2106e-06
7.48369e-06
7.09062e-06
6.70555e-06
6.32733e-06
5.95472e-06
5.5869e-06
5.22295e-06
4.86198e-06
4.50321e-06
4.14594e-06
3.78966e-06
3.43388e-06
3.07867e-06
2.72335e-06
2.36753e-06
7.56956e-06
7.19559e-06
6.82552e-06
6.4586e-06
6.09408e-06
5.73141e-06
5.36992e-06
5.00896e-06
4.64801e-06
4.28663e-06
3.92486e-06
3.56151e-06
3.19724e-06
2.83154e-06
2.46421e-06
7.62446e-06
7.26477e-06
6.9059e-06
6.5474e-06
6.18884e-06
5.82986e-06
5.46994e-06
5.10862e-06
4.74555e-06
4.38038e-06
4.01283e-06
3.64376e-06
3.27188e-06
2.89743e-06
2.52041e-06
7.65885e-06
7.31015e-06
6.95984e-06
6.60778e-06
6.25376e-06
5.89747e-06
5.53853e-06
5.17662e-06
4.81154e-06
4.44312e-06
4.07126e-06
3.69635e-06
3.31788e-06
2.936e-06
2.55078e-06
7.68034e-06
7.34034e-06
6.99678e-06
6.64981e-06
6.29932e-06
5.94503e-06
5.58666e-06
5.22404e-06
4.85709e-06
4.48576e-06
4.11002e-06
3.73012e-06
3.34597e-06
2.95772e-06
2.56548e-06
7.69416e-06
7.36125e-06
7.02317e-06
6.68034e-06
6.33265e-06
5.97988e-06
5.62184e-06
5.25848e-06
4.88979e-06
4.51582e-06
4.13659e-06
3.75239e-06
3.36333e-06
2.96953e-06
2.57123e-06
7.70374e-06
7.37676e-06
7.04325e-06
6.70386e-06
6.35844e-06
6.00684e-06
5.64899e-06
5.28487e-06
4.91459e-06
4.53821e-06
4.15588e-06
3.7679e-06
3.37455e-06
2.97588e-06
2.57226e-06
7.71116e-06
7.38924e-06
7.05963e-06
6.72315e-06
6.37962e-06
6.02896e-06
5.67117e-06
5.30633e-06
4.93457e-06
4.55603e-06
4.17093e-06
3.77954e-06
3.38243e-06
2.97945e-06
2.57113e-06
7.7176e-06
7.40006e-06
7.07384e-06
6.73985e-06
6.39791e-06
6.04802e-06
5.69023e-06
5.32469e-06
4.95158e-06
4.57111e-06
4.18343e-06
3.78908e-06
3.38861e-06
2.98176e-06
2.56927e-06
7.72365e-06
7.40996e-06
7.08668e-06
6.75486e-06
6.41428e-06
6.06502e-06
5.70719e-06
5.34098e-06
4.96664e-06
4.58441e-06
4.19437e-06
3.79749e-06
3.39392e-06
2.98363e-06
2.56741e-06
7.72952e-06
7.41922e-06
7.09854e-06
6.76857e-06
6.42916e-06
6.08043e-06
5.72253e-06
5.3557e-06
4.98024e-06
4.5964e-06
4.20427e-06
3.80517e-06
3.39877e-06
2.98543e-06
2.56587e-06
7.73538e-06
7.42808e-06
7.10969e-06
6.78135e-06
6.44293e-06
6.09462e-06
5.73663e-06
5.36921e-06
4.99272e-06
4.60742e-06
4.21346e-06
3.8123e-06
3.40337e-06
2.98731e-06
2.56476e-06
7.74155e-06
7.43709e-06
7.12083e-06
6.79398e-06
6.45647e-06
6.10854e-06
5.75041e-06
5.38243e-06
5.00495e-06
4.61826e-06
4.2226e-06
3.81937e-06
3.40809e-06
2.98946e-06
2.56404e-06
7.74768e-06
7.44597e-06
7.13181e-06
6.80647e-06
6.46994e-06
6.12248e-06
5.76435e-06
5.39581e-06
5.01734e-06
4.62929e-06
4.23194e-06
3.82666e-06
3.41306e-06
2.99177e-06
2.56366e-06
-1.19619e-05
-9.76153e-06
-8.40651e-06
-7.49216e-06
-6.75888e-06
-6.19567e-06
-5.76119e-06
-5.42927e-06
-5.1837e-06
-5.01246e-06
-4.90659e-06
-4.85894e-06
-4.86376e-06
-4.91722e-06
-5.01714e-06
-5.16376e-06
-5.35976e-06
-5.61279e-06
-5.9349e-06
-6.3446e-06
-6.85879e-06
-7.4766e-06
-8.07442e-06
-8.4517e-06
-8.50223e-06
-8.18184e-06
-7.48963e-06
-6.44994e-06
-5.09062e-06
-3.44013e-06
-1.52865e-06
6.10504e-07
2.93919e-06
5.41387e-06
7.98581e-06
1.06017e-05
1.32037e-05
1.57287e-05
1.81038e-05
2.02387e-05
2.2003e-05
2.32138e-05
2.34626e-05
2.23413e-05
1.85034e-05
-1.03799e-05
-9.23278e-06
-8.2024e-06
-7.38541e-06
-6.69681e-06
-6.14942e-06
-5.7212e-06
-5.39263e-06
-5.14977e-06
-4.98145e-06
-4.87902e-06
-4.83534e-06
-4.84465e-06
-4.90308e-06
-5.00844e-06
-5.16084e-06
-5.36285e-06
-5.62184e-06
-5.94925e-06
-6.36251e-06
-6.8769e-06
-7.48971e-06
-8.07701e-06
-8.44172e-06
-8.48086e-06
-8.15094e-06
-7.45124e-06
-6.40645e-06
-5.04477e-06
-3.39526e-06
-1.48915e-06
6.38685e-07
2.94804e-06
5.39272e-06
7.92047e-06
1.04731e-05
1.29859e-05
1.5385e-05
1.75809e-05
1.94544e-05
2.08204e-05
2.13843e-05
2.0566e-05
1.75181e-05
1.12319e-05
-9.54621e-06
-8.81951e-06
-7.99281e-06
-7.2628e-06
-6.62368e-06
-6.09819e-06
-5.67954e-06
-5.35595e-06
-5.11656e-06
-4.95153e-06
-4.85272e-06
-4.81317e-06
-4.82712e-06
-4.89075e-06
-5.00178e-06
-5.16027e-06
-5.36859e-06
-5.63379e-06
-5.96663e-06
-6.3833e-06
-6.89722e-06
-7.50361e-06
-8.07819e-06
-8.42807e-06
-8.45402e-06
-8.11342e-06
-7.40588e-06
-6.35657e-06
-4.99417e-06
-3.34857e-06
-1.45244e-06
6.57362e-07
2.93802e-06
5.33991e-06
7.80634e-06
1.02731e-05
1.26672e-05
1.49028e-05
1.68729e-05
1.84329e-05
1.93676e-05
1.93481e-05
1.78589e-05
1.43273e-05
8.6976e-06
-9.01432e-06
-8.48086e-06
-7.81179e-06
-7.15003e-06
-6.55787e-06
-6.05557e-06
-5.6466e-06
-5.32745e-06
-5.09057e-06
-4.92771e-06
-4.83149e-06
-4.79518e-06
-4.81312e-06
-4.88148e-06
-4.99794e-06
-5.16239e-06
-5.37701e-06
-5.64846e-06
-5.98669e-06
-6.40649e-06
-6.91923e-06
-7.51772e-06
-8.07726e-06
-8.40965e-06
-8.41981e-06
-8.06619e-06
-7.34892e-06
-6.29395e-06
-4.93074e-06
-3.29037e-06
-1.40744e-06
6.78647e-07
2.92172e-06
5.26797e-06
7.6554e-06
1.0013e-05
1.2259e-05
1.42961e-05
1.60041e-05
1.72258e-05
1.77472e-05
1.72842e-05
1.5492e-05
1.21138e-05
7.44329e-06
-8.60507e-06
-8.18571e-06
-7.63618e-06
-7.05706e-06
-6.50881e-06
-6.02892e-06
-5.62908e-06
-5.31331e-06
-5.07735e-06
-4.91487e-06
-4.81953e-06
-4.78498e-06
-4.80565e-06
-4.87782e-06
-4.99904e-06
-5.16899e-06
-5.38959e-06
-5.667e-06
-6.01026e-06
-6.43254e-06
-6.94295e-06
-7.53156e-06
-8.07332e-06
-8.38548e-06
-8.37765e-06
-8.00942e-06
-7.28168e-06
-6.22146e-06
-4.85929e-06
-3.22781e-06
-1.36393e-06
6.89893e-07
2.88368e-06
5.15894e-06
7.44806e-06
9.6734e-06
1.17454e-05
1.35589e-05
1.49883e-05
1.58803e-05
1.60513e-05
1.52992e-05
1.34484e-05
1.0463e-05
6.65471e-06
-8.26606e-06
-7.92679e-06
-7.46823e-06
-6.97214e-06
-6.47443e-06
-6.01828e-06
-5.63011e-06
-5.31814e-06
-5.08201e-06
-4.9181e-06
-4.8216e-06
-4.7868e-06
-4.80845e-06
-4.88298e-06
-5.00779e-06
-5.1823e-06
-5.40809e-06
-5.69073e-06
-6.03819e-06
-6.46179e-06
-6.96815e-06
-7.54428e-06
-8.065e-06
-8.35387e-06
-8.32581e-06
-7.9417e-06
-7.20343e-06
-6.13945e-06
-4.78165e-06
-3.16455e-06
-1.32783e-06
6.82667e-07
2.81288e-06
4.99953e-06
7.1697e-06
9.24021e-06
1.11165e-05
1.26912e-05
1.3843e-05
1.44379e-05
1.43391e-05
1.343e-05
1.16591e-05
9.10748e-06
6.05764e-06
-7.96389e-06
-7.68746e-06
-7.31216e-06
-6.88354e-06
-6.44096e-06
-6.01941e-06
-5.64875e-06
-5.34336e-06
-5.10768e-06
-4.94145e-06
-4.84208e-06
-4.80494e-06
-4.82546e-06
-4.90047e-06
-5.02718e-06
-5.20476e-06
-5.4344e-06
-5.72099e-06
-6.07124e-06
-6.49439e-06
-6.99432e-06
-7.5547e-06
-8.05041e-06
-8.31258e-06
-8.26195e-06
-7.86084e-06
-7.11248e-06
-6.04717e-06
-4.69838e-06
-3.10289e-06
-1.30352e-06
6.50314e-07
2.7005e-06
4.77934e-06
6.80969e-06
8.70512e-06
1.03702e-05
1.17018e-05
1.25922e-05
1.29372e-05
1.26492e-05
1.16819e-05
1.00582e-05
7.89937e-06
5.43414e-06
-7.67947e-06
-7.45363e-06
-7.14873e-06
-6.7881e-06
-6.40282e-06
-6.0238e-06
-5.67865e-06
-5.38553e-06
-5.1535e-06
-4.98609e-06
-4.88343e-06
-4.84242e-06
-4.85991e-06
-4.93345e-06
-5.06007e-06
-5.23874e-06
-5.47035e-06
-5.75898e-06
-6.10996e-06
-6.53031e-06
-7.02055e-06
-7.56111e-06
-8.02725e-06
-8.25897e-06
-8.18345e-06
-7.76461e-06
-7.00744e-06
-5.94454e-06
-4.61115e-06
-3.04659e-06
-1.29713e-06
5.84349e-07
2.53617e-06
4.48726e-06
6.35817e-06
8.06244e-06
9.5087e-06
1.06044e-05
1.12621e-05
1.14097e-05
1.10034e-05
1.00444e-05
8.59154e-06
6.76681e-06
4.74474e-06
-7.40356e-06
-7.21974e-06
-6.974e-06
-6.67777e-06
-6.35182e-06
-6.02101e-06
-5.70947e-06
-5.43633e-06
-5.21375e-06
-5.04884e-06
-4.94451e-06
-4.89946e-06
-4.91295e-06
-4.98361e-06
-5.10818e-06
-5.28577e-06
-5.51708e-06
-5.80532e-06
-6.15431e-06
-6.56849e-06
-7.0453e-06
-7.56123e-06
-7.99267e-06
-8.19011e-06
-8.08775e-06
-7.65116e-06
-6.88776e-06
-5.83295e-06
-4.52359e-06
-3.00174e-06
-1.3173e-06
4.73941e-07
2.30782e-06
4.11162e-06
5.80626e-06
7.30908e-06
8.53744e-06
9.4141e-06
9.87459e-06
9.87628e-06
9.40801e-06
8.49788e-06
7.21602e-06
5.66923e-06
3.98742e-06
-7.13006e-06
-6.98247e-06
-6.78703e-06
-6.5489e-06
-6.28087e-06
-6.00125e-06
-5.72983e-06
-5.48456e-06
-5.27865e-06
-5.1221e-06
-5.01965e-06
-4.97205e-06
-4.98237e-06
-5.05e-06
-5.17106e-06
-5.34553e-06
-5.57419e-06
-5.85932e-06
-6.20312e-06
-6.60732e-06
-7.06616e-06
-7.55209e-06
-7.94347e-06
-8.10314e-06
-7.97277e-06
-7.51963e-06
-6.75446e-06
-5.71595e-06
-4.4419e-06
-2.97712e-06
-1.37526e-06
3.06148e-07
2.00229e-06
3.64111e-06
5.14699e-06
6.44477e-06
7.46421e-06
8.14559e-06
8.44628e-06
8.34723e-06
7.85796e-06
7.01843e-06
5.89639e-06
4.5793e-06
3.16315e-06
-6.85218e-06
-6.73707e-06
-6.58523e-06
-6.39872e-06
-6.18504e-06
-5.95682e-06
-5.7295e-06
-5.51852e-06
-5.33639e-06
-5.19527e-06
-5.09882e-06
-5.05144e-06
-5.06203e-06
-5.12842e-06
-5.24519e-06
-5.41499e-06
-5.63896e-06
-5.91828e-06
-6.25353e-06
-6.64362e-06
-7.07969e-06
-7.53014e-06
-7.87643e-06
-7.9959e-06
-7.83783e-06
-7.37115e-06
-6.61123e-06
-5.60048e-06
-4.37568e-06
-2.98468e-06
-1.48494e-06
6.62955e-08
1.60607e-06
3.06563e-06
4.37578e-06
5.47177e-06
6.29764e-06
6.81093e-06
6.98726e-06
6.82378e-06
6.34096e-06
5.58095e-06
4.6031e-06
3.47644e-06
2.27196e-06
-6.56099e-06
-6.47608e-06
-6.36308e-06
-6.22265e-06
-6.05907e-06
-5.88067e-06
-5.6991e-06
-5.52657e-06
-5.37479e-06
-5.25546e-06
-5.1706e-06
-5.12708e-06
-5.14361e-06
-5.21127e-06
-5.32361e-06
-5.48804e-06
-5.70593e-06
-5.97716e-06
-6.30072e-06
-6.67275e-06
-7.08155e-06
-7.49163e-06
-7.78903e-06
-7.86784e-06
-7.68467e-06
-7.21008e-06
-6.4661e-06
-5.49821e-06
-4.33864e-06
-3.03963e-06
-1.66257e-06
-2.61151e-07
1.1064e-06
2.37721e-06
3.4908e-06
4.39438e-06
5.04624e-06
5.41883e-06
5.50145e-06
5.30077e-06
4.84117e-06
4.16169e-06
3.31142e-06
2.34374e-06
1.31137e-06
-6.245e-06
-6.18903e-06
-6.11161e-06
-6.01293e-06
-5.8954e-06
-5.76441e-06
-5.6284e-06
-5.49663e-06
-5.37924e-06
-5.28504e-06
-5.21903e-06
-5.19034e-06
-5.21463e-06
-5.28444e-06
-5.39489e-06
-5.55526e-06
-5.76684e-06
-6.02859e-06
-6.3381e-06
-6.6889e-06
-7.06704e-06
-7.43341e-06
-7.68065e-06
-7.72132e-06
-7.51855e-06
-7.04507e-06
-6.33283e-06
-5.42661e-06
-4.34813e-06
-3.16003e-06
-1.92579e-06
-6.91198e-07
4.92705e-07
1.57098e-06
2.4932e-06
3.21854e-06
3.71799e-06
3.97538e-06
3.98876e-06
3.76978e-06
3.34237e-06
2.73974e-06
2.00103e-06
1.16701e-06
2.77002e-07
-5.88977e-06
-5.86217e-06
-5.81825e-06
-5.75817e-06
-5.68328e-06
-5.59714e-06
-5.50549e-06
-5.41551e-06
-5.33464e-06
-5.27147e-06
-5.23237e-06
-5.22501e-06
-5.25815e-06
-5.33204e-06
-5.44576e-06
-5.60516e-06
-5.81138e-06
-6.0634e-06
-6.35786e-06
-6.68567e-06
-7.03182e-06
-7.35391e-06
-7.5537e-06
-7.56326e-06
-7.34818e-06
-6.8895e-06
-6.23574e-06
-5.40322e-06
-4.42245e-06
-3.36766e-06
-2.29328e-06
-1.23715e-06
-2.42345e-07
6.45669e-07
1.38697e-06
1.95142e-06
2.31988e-06
2.48436e-06
2.44764e-06
2.22265e-06
1.83051e-06
1.29822e-06
6.5614e-07
-6.49678e-08
-8.35734e-07
-5.47654e-06
-5.47759e-06
-5.46623e-06
-5.44278e-06
-5.40813e-06
-5.36465e-06
-5.31636e-06
-5.26856e-06
-5.22729e-06
-5.19941e-06
-5.19101e-06
-5.20799e-06
-5.25667e-06
-5.34111e-06
-5.46255e-06
-5.62429e-06
-5.82745e-06
-6.07112e-06
-6.35152e-06
-6.65719e-06
-6.9727e-06
-7.25422e-06
-7.41482e-06
-7.4038e-06
-7.18691e-06
-6.77435e-06
-6.19267e-06
-5.43972e-06
-4.58556e-06
-3.68556e-06
-2.78248e-06
-1.90938e-06
-1.10232e-06
-3.96716e-07
1.77858e-07
6.00182e-07
8.58126e-07
9.4842e-07
8.75688e-07
6.51908e-07
2.94638e-07
-1.75001e-07
-7.3406e-07
-1.35957e-06
-2.02962e-06
-4.98218e-06
-5.01304e-06
-5.03442e-06
-5.04689e-06
-5.05126e-06
-5.04925e-06
-5.04375e-06
-5.03866e-06
-5.03862e-06
-5.04878e-06
-5.07427e-06
-5.12017e-06
-5.19177e-06
-5.2936e-06
-5.42784e-06
-5.59669e-06
-5.80129e-06
-6.04052e-06
-6.31035e-06
-6.59867e-06
-6.88892e-06
-7.13984e-06
-7.27451e-06
-7.25583e-06
-7.07089e-06
-6.71689e-06
-6.20458e-06
-5.56851e-06
-4.8671e-06
-4.13487e-06
-3.40616e-06
-2.71332e-06
-2.08607e-06
-1.55017e-06
-1.1261e-06
-8.27841e-07
-6.6269e-07
-6.31666e-07
-7.30418e-07
-9.48953e-07
-1.27356e-06
-1.68835e-06
-2.17634e-06
-2.72057e-06
-3.30481e-06
-4.38277e-06
-4.44531e-06
-4.50051e-06
-4.54918e-06
-4.59233e-06
-4.63146e-06
-4.66866e-06
-4.7068e-06
-4.7493e-06
-4.80012e-06
-4.86343e-06
-4.94353e-06
-5.04469e-06
-5.17067e-06
-5.32413e-06
-5.50677e-06
-5.71967e-06
-5.96128e-06
-6.22748e-06
-6.50624e-06
-6.7827e-06
-7.01919e-06
-7.1507e-06
-7.1532e-06
-7.00729e-06
-6.72306e-06
-6.32013e-06
-5.8287e-06
-5.28501e-06
-4.72225e-06
-4.16778e-06
-3.64886e-06
-3.18869e-06
-2.80579e-06
-2.51434e-06
-2.32357e-06
-2.23773e-06
-2.25563e-06
-2.37403e-06
-2.58561e-06
-2.88082e-06
-3.24824e-06
-3.67546e-06
-4.15013e-06
-4.66035e-06
-3.65803e-06
-3.75527e-06
-3.84654e-06
-3.93282e-06
-4.01557e-06
-4.09636e-06
-4.17687e-06
-4.25921e-06
-4.34599e-06
-4.44026e-06
-4.54532e-06
-4.66456e-06
-4.80132e-06
-4.95855e-06
-5.13895e-06
-5.34379e-06
-5.57399e-06
-5.82785e-06
-6.10061e-06
-6.38381e-06
-6.65896e-06
-6.90148e-06
-7.06647e-06
-7.11095e-06
-7.02313e-06
-6.84173e-06
-6.56733e-06
-6.22706e-06
-5.84647e-06
-5.45234e-06
-5.06769e-06
-4.7127e-06
-4.40423e-06
-4.15574e-06
-3.97729e-06
-3.87615e-06
-3.85606e-06
-3.91624e-06
-4.05124e-06
-4.25648e-06
-4.52637e-06
-4.85336e-06
-5.22869e-06
-5.64351e-06
-6.0893e-06
-2.78684e-06
-2.92236e-06
-3.05327e-06
-3.18054e-06
-3.3059e-06
-3.43102e-06
-3.55738e-06
-3.68663e-06
-3.8208e-06
-3.96227e-06
-4.11358e-06
-4.27735e-06
-4.45624e-06
-4.65255e-06
-4.86864e-06
-5.10559e-06
-5.36365e-06
-5.64247e-06
-5.93569e-06
-6.23943e-06
-6.53838e-06
-6.80862e-06
-7.02779e-06
-7.14329e-06
-7.15689e-06
-7.08532e-06
-6.95042e-06
-6.76499e-06
-6.54927e-06
-6.32159e-06
-6.09873e-06
-5.89524e-06
-5.72361e-06
-5.59399e-06
-5.51298e-06
-5.4863e-06
-5.51887e-06
-5.61007e-06
-5.75611e-06
-5.95448e-06
-6.20181e-06
-6.49308e-06
-6.82247e-06
-7.18409e-06
-7.5721e-06
-1.77373e-06
-1.94694e-06
-2.11768e-06
-2.28702e-06
-2.45658e-06
-2.62791e-06
-2.80241e-06
-2.98146e-06
-3.16668e-06
-3.35986e-06
-3.56295e-06
-3.77798e-06
-4.00698e-06
-4.25185e-06
-4.51431e-06
-4.79536e-06
-5.09526e-06
-5.4134e-06
-5.74641e-06
-6.08999e-06
-6.43824e-06
-6.77293e-06
-7.05522e-06
-7.26233e-06
-7.39153e-06
-7.45315e-06
-7.46411e-06
-7.4355e-06
-7.37881e-06
-7.3066e-06
-7.23127e-06
-7.16435e-06
-7.11522e-06
-7.09101e-06
-7.09851e-06
-7.14008e-06
-7.21433e-06
-7.32471e-06
-7.47565e-06
-7.66618e-06
-7.89243e-06
-8.15056e-06
-8.43737e-06
-8.7497e-06
-9.08386e-06
-7.5009e-07
-9.64247e-07
-1.17819e-06
-1.39225e-06
-1.60791e-06
-1.82676e-06
-2.05028e-06
-2.27978e-06
-2.51653e-06
-2.76193e-06
-3.01749e-06
-3.28487e-06
-3.56571e-06
-3.86156e-06
-4.17375e-06
-4.50329e-06
-4.85053e-06
-5.21541e-06
-5.59618e-06
-5.99016e-06
-6.39213e-06
-6.79067e-06
-7.156e-06
-7.46252e-06
-7.7059e-06
-7.89308e-06
-8.03409e-06
-8.13753e-06
-8.21194e-06
-8.26689e-06
-8.31174e-06
-8.35472e-06
-8.40253e-06
-8.45998e-06
-8.53178e-06
-8.62183e-06
-8.7357e-06
-8.87216e-06
-9.03261e-06
-9.21743e-06
-9.42555e-06
-9.65559e-06
-9.90621e-06
-1.01757e-05
-1.04619e-05
1.41967e-07
-1.08526e-07
-3.61342e-07
-6.17004e-07
-8.75721e-07
-1.1386e-06
-1.40716e-06
-1.6827e-06
-1.96631e-06
-2.25906e-06
-2.56223e-06
-2.87719e-06
-3.20532e-06
-3.54791e-06
-3.90611e-06
-4.28087e-06
-4.67271e-06
-5.08177e-06
-5.50731e-06
-5.94735e-06
-6.39903e-06
-6.85709e-06
-7.29335e-06
-7.67924e-06
-8.01039e-06
-8.29123e-06
-8.52797e-06
-8.72769e-06
-8.89773e-06
-9.04543e-06
-9.17771e-06
-9.30048e-06
-9.41913e-06
-9.53876e-06
-9.66307e-06
-9.79638e-06
-9.93942e-06
-1.00964e-05
-1.02669e-05
-1.04506e-05
-1.06479e-05
-1.08591e-05
-1.10839e-05
-1.13215e-05
-1.15707e-05
8.10043e-07
5.28809e-07
2.4381e-07
-4.51923e-08
-3.38586e-07
-6.37391e-07
-9.4285e-07
-1.25599e-06
-1.57767e-06
-1.90879e-06
-2.25043e-06
-2.6037e-06
-2.96974e-06
-3.34963e-06
-3.74434e-06
-4.15473e-06
-4.58139e-06
-5.02457e-06
-5.48401e-06
-5.9587e-06
-6.44705e-06
-6.946e-06
-7.42922e-06
-7.86763e-06
-8.25614e-06
-8.59822e-06
-8.89874e-06
-9.16362e-06
-9.39878e-06
-9.60985e-06
-9.80211e-06
-9.98038e-06
-1.01491e-05
-1.03122e-05
-1.04728e-05
-1.06337e-05
-1.07973e-05
-1.09659e-05
-1.11401e-05
-1.13207e-05
-1.15086e-05
-1.17048e-05
-1.19091e-05
-1.21215e-05
-1.23414e-05
1.30086e-06
9.92768e-07
6.8025e-07
3.62936e-07
4.01538e-08
-2.88946e-07
-6.25212e-07
-9.69385e-07
-1.32217e-06
-1.68433e-06
-2.05672e-06
-2.44025e-06
-2.8358e-06
-3.24424e-06
-3.66639e-06
-4.10295e-06
-4.55448e-06
-5.02125e-06
-5.50327e-06
-5.99997e-06
-6.51033e-06
-7.03245e-06
-7.542e-06
-8.01064e-06
-8.43336e-06
-8.81347e-06
-9.15508e-06
-9.46284e-06
-9.7414e-06
-9.99522e-06
-1.02285e-05
-1.04451e-05
-1.06484e-05
-1.08414e-05
-1.10268e-05
-1.12073e-05
-1.13856e-05
-1.15631e-05
-1.17411e-05
-1.1921e-05
-1.21037e-05
-1.22901e-05
-1.24806e-05
-1.26756e-05
-1.2875e-05
1.64137e-06
1.31107e-06
9.75671e-07
6.34708e-07
2.87592e-07
-6.6256e-08
-4.27392e-07
-7.96358e-07
-1.17371e-06
-1.56005e-06
-1.95603e-06
-2.36232e-06
-2.7796e-06
-3.20853e-06
-3.64974e-06
-4.10377e-06
-4.57107e-06
-5.05187e-06
-5.54624e-06
-6.05381e-06
-6.57387e-06
-7.10507e-06
-7.62521e-06
-8.10803e-06
-8.54896e-06
-8.95106e-06
-9.31766e-06
-9.65244e-06
-9.95908e-06
-1.02411e-05
-1.05019e-05
-1.07443e-05
-1.09714e-05
-1.11855e-05
-1.13891e-05
-1.15845e-05
-1.17741e-05
-1.19594e-05
-1.21416e-05
-1.23223e-05
-1.25023e-05
-1.26828e-05
-1.28643e-05
-1.30475e-05
-1.32329e-05
1.86675e-06
1.51817e-06
1.16389e-06
8.03534e-07
4.36726e-07
6.30948e-08
-3.1772e-07
-7.06086e-07
-1.1024e-06
-1.50707e-06
-1.92057e-06
-2.34336e-06
-2.77591e-06
-3.21869e-06
-3.67215e-06
-4.13664e-06
-4.6125e-06
-5.09985e-06
-5.59875e-06
-6.10888e-06
-6.6297e-06
-7.16011e-06
-7.68026e-06
-8.1666e-06
-8.61499e-06
-9.02808e-06
-9.40856e-06
-9.75936e-06
-1.00834e-05
-1.03835e-05
-1.06623e-05
-1.09223e-05
-1.11658e-05
-1.1395e-05
-1.16121e-05
-1.1819e-05
-1.20177e-05
-1.22094e-05
-1.23957e-05
-1.25779e-05
-1.27571e-05
-1.29344e-05
-1.31106e-05
-1.32866e-05
-1.3463e-05
2.00904e-06
1.64526e-06
1.27541e-06
8.99283e-07
5.16648e-07
1.27301e-07
-2.68952e-07
-6.72314e-07
-1.08302e-06
-1.50132e-06
-1.92751e-06
-2.36186e-06
-2.80467e-06
-3.25623e-06
-3.71679e-06
-4.18657e-06
-4.66575e-06
-5.15436e-06
-5.65237e-06
-6.15947e-06
-6.67523e-06
-7.19866e-06
-7.71229e-06
-8.19541e-06
-8.64433e-06
-9.06121e-06
-9.44821e-06
-9.80768e-06
-1.0142e-05
-1.04533e-05
-1.07439e-05
-1.10157e-05
-1.12707e-05
-1.15106e-05
-1.17374e-05
-1.19534e-05
-1.21592e-05
-1.23565e-05
-1.25467e-05
-1.27312e-05
-1.2911e-05
-1.30873e-05
-1.32611e-05
-1.34332e-05
-1.36045e-05
2.09343e-06
1.71704e-06
1.33443e-06
9.45517e-07
5.50199e-07
1.48424e-07
-2.59856e-07
-6.7471e-07
-1.09623e-06
-1.52452e-06
-1.95972e-06
-2.40194e-06
-2.85133e-06
-3.308e-06
-3.77206e-06
-4.24359e-06
-4.72262e-06
-5.20907e-06
-5.70285e-06
-6.20361e-06
-6.71097e-06
-7.224e-06
-7.72748e-06
-8.20355e-06
-8.64887e-06
-9.0651e-06
-9.45399e-06
-9.81741e-06
-1.01573e-05
-1.04754e-05
-1.07734e-05
-1.10532e-05
-1.13162e-05
-1.1564e-05
-1.17983e-05
-1.20207e-05
-1.22323e-05
-1.24344e-05
-1.26285e-05
-1.28156e-05
-1.29971e-05
-1.3174e-05
-1.33473e-05
-1.35181e-05
-1.36872e-05
2.13936e-06
1.75251e-06
1.35943e-06
9.60123e-07
5.5462e-07
1.42995e-07
-2.74682e-07
-6.98362e-07
-1.12802e-06
-1.56363e-06
-2.00518e-06
-2.45268e-06
-2.9061e-06
-3.36544e-06
-3.83068e-06
-4.30173e-06
-4.77854e-06
-5.26092e-06
-5.74869e-06
-6.24146e-06
-6.73886e-06
-7.24e-06
-7.73176e-06
-8.1989e-06
-8.63838e-06
-9.05141e-06
-9.43941e-06
-9.80389e-06
-1.01464e-05
-1.04683e-05
-1.0771e-05
-1.1056e-05
-1.13246e-05
-1.15782e-05
-1.18181e-05
-1.20456e-05
-1.22619e-05
-1.24682e-05
-1.26658e-05
-1.28558e-05
-1.30395e-05
-1.32179e-05
-1.3392e-05
-1.35631e-05
-1.3732e-05
2.16108e-06
1.76549e-06
1.36373e-06
9.55886e-07
5.42112e-07
1.22583e-07
-3.02538e-07
-7.33102e-07
-1.16897e-06
-1.61002e-06
-2.05612e-06
-2.50715e-06
-2.96298e-06
-3.42347e-06
-3.8885e-06
-4.35786e-06
-4.83139e-06
-5.3088e-06
-5.78986e-06
-6.27409e-06
-6.76116e-06
-7.25015e-06
-7.72987e-06
-8.18745e-06
-8.62007e-06
-9.02861e-06
-9.41418e-06
-9.77803e-06
-1.01213e-05
-1.04452e-05
-1.07508e-05
-1.10392e-05
-1.13118e-05
-1.15695e-05
-1.18136e-05
-1.20452e-05
-1.22654e-05
-1.24753e-05
-1.26761e-05
-1.2869e-05
-1.3055e-05
-1.32354e-05
-1.34111e-05
-1.35834e-05
-1.37532e-05
2.1684e-06
1.76542e-06
1.35636e-06
9.41408e-07
5.20801e-07
9.48e-08
-3.36351e-07
-7.72415e-07
-1.21317e-06
-1.65837e-06
-2.10782e-06
-2.56128e-06
-3.01852e-06
-3.4793e-06
-3.94339e-06
-4.41049e-06
-4.88034e-06
-5.35258e-06
-5.82688e-06
-6.30272e-06
-6.77977e-06
-7.25708e-06
-7.72518e-06
-8.1733e-06
-8.59883e-06
-9.00236e-06
-9.3848e-06
-9.74708e-06
-1.00901e-05
-1.04148e-05
-1.07221e-05
-1.10128e-05
-1.12881e-05
-1.15489e-05
-1.17961e-05
-1.2031e-05
-1.22544e-05
-1.24674e-05
-1.2671e-05
-1.28665e-05
-1.30549e-05
-1.32374e-05
-1.34151e-05
-1.3589e-05
-1.37603e-05
2.1678e-06
1.75846e-06
1.34317e-06
9.22183e-07
4.95814e-07
6.4391e-08
-3.7177e-07
-8.12359e-07
-1.25707e-06
-1.70559e-06
-2.15761e-06
-2.61282e-06
-3.0709e-06
-3.53153e-06
-3.99438e-06
-4.45907e-06
-4.92525e-06
-5.39247e-06
-5.86037e-06
-6.32834e-06
-6.79605e-06
-7.26252e-06
-7.71982e-06
-8.159e-06
-8.57766e-06
-8.97617e-06
-9.35522e-06
-9.71551e-06
-1.00577e-05
-1.03825e-05
-1.06907e-05
-1.0983e-05
-1.12603e-05
-1.15233e-05
-1.1773e-05
-1.20103e-05
-1.22365e-05
-1.2452e-05
-1.26581e-05
-1.28559e-05
-1.30465e-05
-1.32311e-05
-1.34107e-05
-1.35865e-05
-1.37596e-05
2.16329e-06
1.74843e-06
1.32773e-06
9.01532e-07
4.70207e-07
3.4141e-08
-4.0629e-07
-8.50708e-07
-1.29873e-06
-1.74999e-06
-2.2041e-06
-2.66066e-06
-3.11929e-06
-3.57959e-06
-4.04113e-06
-4.50348e-06
-4.96621e-06
-5.4288e-06
-5.89082e-06
-6.35163e-06
-6.81085e-06
-7.26749e-06
-7.71497e-06
-8.14593e-06
-8.55818e-06
-8.95192e-06
-9.32763e-06
-9.6858e-06
-1.00269e-05
-1.03515e-05
-1.06601e-05
-1.09534e-05
-1.12321e-05
-1.14969e-05
-1.17486e-05
-1.19878e-05
-1.22161e-05
-1.24338e-05
-1.2642e-05
-1.28418e-05
-1.30344e-05
-1.32208e-05
-1.34023e-05
-1.35799e-05
-1.37548e-05
2.15726e-06
1.73754e-06
1.3121e-06
8.81331e-07
4.45673e-07
5.55536e-09
-4.3859e-07
-8.86327e-07
-1.33722e-06
-1.79082e-06
-2.24669e-06
-2.70438e-06
-3.16341e-06
-3.62333e-06
-4.08364e-06
-4.54385e-06
-5.00344e-06
-5.46187e-06
-5.91861e-06
-6.37301e-06
-6.82464e-06
-7.27248e-06
-7.71115e-06
-8.1347e-06
-8.54113e-06
-8.93047e-06
-9.30305e-06
-9.65915e-06
-9.99909e-06
-1.03233e-05
-1.06321e-05
-1.09261e-05
-1.12058e-05
-1.14719e-05
-1.1725e-05
-1.19659e-05
-1.2196e-05
-1.24155e-05
-1.26254e-05
-1.28269e-05
-1.30211e-05
-1.32092e-05
-1.33923e-05
-1.35715e-05
-1.37481e-05
2.15105e-06
1.727e-06
1.29735e-06
8.62539e-07
4.23044e-07
-2.06568e-08
-4.68084e-07
-9.18751e-07
-1.37217e-06
-1.82784e-06
-2.28526e-06
-2.74392e-06
-3.2033e-06
-3.66287e-06
-4.12208e-06
-4.58038e-06
-5.0372e-06
-5.49193e-06
-5.944e-06
-6.39272e-06
-6.83762e-06
-7.27767e-06
-7.70851e-06
-8.12544e-06
-8.52665e-06
-8.91204e-06
-9.28175e-06
-9.63591e-06
-9.97471e-06
-1.02984e-05
-1.06073e-05
-1.09017e-05
-1.11822e-05
-1.14494e-05
-1.17036e-05
-1.19459e-05
-1.21774e-05
-1.23985e-05
-1.26097e-05
-1.28126e-05
-1.30083e-05
-1.31978e-05
-1.33822e-05
-1.35629e-05
-1.37409e-05
2.1453e-06
1.7174e-06
1.284e-06
8.4558e-07
4.02666e-07
-4.42289e-08
-4.94582e-07
-9.47861e-07
-1.40353e-06
-1.86105e-06
-2.31986e-06
-2.77941e-06
-3.23911e-06
-3.69839e-06
-4.15666e-06
-4.61329e-06
-5.06768e-06
-5.51916e-06
-5.96714e-06
-6.41087e-06
-6.84985e-06
-7.28302e-06
-7.70694e-06
-8.11802e-06
-8.51461e-06
-8.89648e-06
-9.26363e-06
-9.61604e-06
-9.95377e-06
-1.0277e-05
-1.05858e-05
-1.08806e-05
-1.11617e-05
-1.14298e-05
-1.16848e-05
-1.19284e-05
-1.2161e-05
-1.23833e-05
-1.25956e-05
-1.27997e-05
-1.29965e-05
-1.31872e-05
-1.33728e-05
-1.35547e-05
-1.37339e-05
2.1403e-06
1.70896e-06
1.27222e-06
8.30593e-07
3.84631e-07
-6.51125e-08
-5.18076e-07
-9.73691e-07
-1.43138e-06
-1.89056e-06
-2.35063e-06
-2.81098e-06
-3.27101e-06
-3.73007e-06
-4.18753e-06
-4.64273e-06
-5.09502e-06
-5.54369e-06
-5.9881e-06
-6.42747e-06
-6.86128e-06
-7.28844e-06
-7.70627e-06
-8.11221e-06
-8.50474e-06
-8.88352e-06
-9.2484e-06
-9.59926e-06
-9.93604e-06
-1.02588e-05
-1.05676e-05
-1.08626e-05
-1.11443e-05
-1.1413e-05
-1.16687e-05
-1.19133e-05
-1.2147e-05
-1.23701e-05
-1.25834e-05
-1.27885e-05
-1.29862e-05
-1.31778e-05
-1.33644e-05
-1.35472e-05
-1.37275e-05
2.13606e-06
1.70163e-06
1.26189e-06
8.17387e-07
3.68691e-07
-8.36093e-08
-5.38919e-07
-9.96635e-07
-1.45615e-06
-1.91683e-06
-2.37805e-06
-2.83916e-06
-3.29951e-06
-3.75842e-06
-4.21521e-06
-4.66919e-06
-5.11966e-06
-5.56589e-06
-6.00719e-06
-6.44275e-06
-6.87202e-06
-7.29388e-06
-7.70632e-06
-8.10769e-06
-8.49663e-06
-8.87269e-06
-9.23558e-06
-9.58507e-06
-9.92101e-06
-1.02433e-05
-1.05521e-05
-1.08473e-05
-1.11294e-05
-1.13987e-05
-1.16552e-05
-1.19006e-05
-1.2135e-05
-1.23588e-05
-1.2573e-05
-1.27788e-05