/*--------------------------------*- C++ -*----------------------------------*\
| =========                 |                                                 |
| \\      /  F ield         | OpenFOAM: The Open Source CFD Toolbox           |
|  \\    /   O peration     | Version:  2312                                  |
|   \\  /    A nd           | Website:  www.openfoam.com                      |
|    \\/     M anipulation  |                                                 |
\*---------------------------------------------------------------------------*/
FoamFile
{
    version     2.0;
    format      ascii;
    arch        "LSB;label=32;scalar=64";
    class       volVectorField;
    location    "76.75";
    object      U;
}
// * * * * * * * * * * * * * * * * * * * * * * * * * * * * * * * * * * * * * //

dimensions      [0 1 -1 0 0 0 0];

internalField   nonuniform List<vector> 
4800
(
(0.000470224 2.06802e-07 -1.82633e-26)
(0.000465988 1.93466e-07 -1.29062e-25)
(0.00046446 1.74217e-07 1.65309e-25)
(0.000464717 1.63973e-07 7.6809e-26)
(0.000465938 1.69326e-07 1.15565e-24)
(0.00046791 1.47302e-07 -2.77155e-24)
(0.000470519 9.42743e-08 2.62345e-24)
(0.000473764 1.17352e-09 -3.86067e-24)
(0.000477725 -1.50088e-07 1.22343e-24)
(0.000482594 -4.02772e-07 4.30666e-24)
(0.000488826 -9.14093e-07 -1.32323e-24)
(0.000497753 -2.34405e-06 -1.04059e-25)
(0.000516902 -7.66849e-06 -1.65883e-24)
(0.000564472 -2.92002e-05 7.99404e-25)
(0.000641543 -9.34973e-05 -6.4204e-25)
(0.00145877 1.05389e-06 -5.7835e-26)
(0.00144585 5.41179e-07 7.21009e-26)
(0.00144083 1.36759e-07 -6.68892e-25)
(0.00144099 -1.97367e-07 4.94758e-25)
(0.00144385 -4.70934e-07 1.6408e-24)
(0.001449 -8.01615e-07 -2.65344e-24)
(0.00145596 -1.22301e-06 -7.89559e-25)
(0.00146468 -1.79963e-06 -2.13427e-25)
(0.00147537 -2.63376e-06 6.43781e-24)
(0.00148858 -3.96154e-06 -4.79252e-24)
(0.0015056 -6.46056e-06 5.21161e-25)
(0.00152924 -1.24025e-05 8.13889e-25)
(0.0015687 -2.9673e-05 -1.22549e-24)
(0.00163448 -8.24899e-05 -3.9851e-25)
(0.00170372 -0.000200596 1.63824e-24)
(0.00255598 3.35936e-06 -4.14108e-26)
(0.00253379 1.75499e-06 4.2301e-26)
(0.00252466 5.28203e-07 4.38779e-25)
(0.00252406 -5.07573e-07 -1.0432e-24)
(0.00252784 -1.41312e-06 1.03231e-24)
(0.00253543 -2.46486e-06 1.01086e-24)
(0.00254604 -3.72764e-06 -2.62261e-24)
(0.00255933 -5.3999e-06 -1.6674e-24)
(0.00257561 -7.77958e-06 3.97337e-24)
(0.00259553 -1.14933e-05 1.53826e-24)
(0.00262056 -1.80508e-05 -5.34161e-24)
(0.00265295 -3.14719e-05 -8.51759e-25)
(0.00269691 -6.14207e-05 2.30522e-24)
(0.00275098 -0.000127702 3.72827e-24)
(0.00278936 -0.000237452 -1.93621e-24)
(0.00376766 7.46189e-06 1.53134e-26)
(0.00373587 4.02781e-06 -1.06707e-25)
(0.0037221 1.4116e-06 4.78154e-25)
(0.00371995 -7.65078e-07 5.14866e-25)
(0.0037239 -2.65046e-06 -4.96562e-25)
(0.00373296 -4.86401e-06 -3.03721e-24)
(0.00374619 -7.45763e-06 -2.14617e-24)
(0.00376279 -1.08009e-05 7.94842e-24)
(0.00378296 -1.54627e-05 3.3828e-24)
(0.00380717 -2.24675e-05 -4.79777e-24)
(0.00383626 -3.39143e-05 -1.95875e-24)
(0.0038708 -5.43348e-05 -1.52247e-24)
(0.00391008 -9.17306e-05 3.91961e-26)
(0.00394681 -0.000156245 1.13976e-24)
(0.00396254 -0.000242624 5.5883e-27)
(0.00509677 1.36965e-05 -2.81083e-26)
(0.0050557 7.58847e-06 -1.71746e-25)
(0.00503707 2.95922e-06 -1.10648e-25)
(0.00503263 -8.85993e-07 2.88242e-25)
(0.00503612 -4.10169e-06 -8.36195e-25)
(0.00504564 -7.91053e-06 2.14564e-24)
(0.00506028 -1.23076e-05 -3.73214e-25)
(0.00507865 -1.77768e-05 1.38879e-24)
(0.00510074 -2.51715e-05 -7.7166e-24)
(0.00512648 -3.57511e-05 1.47936e-23)
(0.00515579 -5.16608e-05 -1.4416e-23)
(0.00518758 -7.65728e-05 7.6813e-24)
(0.0052186 -0.00011524 -7.17985e-24)
(0.00524123 -0.000170728 6.78945e-24)
(0.00524516 -0.000235396 -2.70761e-24)
(0.00654173 2.23835e-05 3.71008e-26)
(0.00649289 1.2695e-05 1.32487e-25)
(0.00646993 5.40874e-06 -7.02447e-25)
(0.00646281 -5.55641e-07 -4.49965e-25)
(0.00646557 -5.71421e-06 1.18552e-24)
(0.0064748 -1.14079e-05 4.41625e-25)
(0.0064896 -1.79693e-05 -3.5129e-24)
(0.00650822 -2.58623e-05 8.46039e-24)
(0.00653024 -3.61182e-05 -1.11149e-23)
(0.00655502 -4.99955e-05 2.65071e-24)
(0.00658161 -6.92119e-05 8.26539e-24)
(0.00660798 -9.59624e-05 -1.15616e-23)
(0.00663053 -0.000132024 5.80767e-24)
(0.00664373 -0.000176824 5.94758e-24)
(0.00664304 -0.000224173 -4.52746e-24)
(0.00809432 3.35862e-05 3.05428e-26)
(0.00804118 1.94447e-05 -1.80557e-25)
(0.00801565 8.89318e-06 6.49494e-25)
(0.00800667 3.48464e-07 -9.05718e-25)
(0.00800857 -7.24515e-06 -3.13535e-24)
(0.00801741 -1.51639e-05 5.35445e-24)
(0.00803148 -2.40403e-05 -3.30687e-24)
(0.00804917 -3.44493e-05 1.14159e-23)
(0.00806959 -4.73767e-05 -7.75958e-24)
(0.00809162 -6.3861e-05 -3.67834e-24)
(0.00811379 -8.49593e-05 -7.32929e-24)
(0.00813396 -0.00011149 6.74163e-24)
(0.0081493 -0.000143344 1.90449e-24)
(0.00815662 -0.000178694 1.62043e-24)
(0.00815464 -0.000213413 -1.4262e-24)
(0.00973793 4.67598e-05 -4.34647e-26)
(0.00968659 2.75072e-05 5.936e-25)
(0.00966204 1.32154e-05 -1.38798e-24)
(0.00965354 1.60293e-06 -1.15908e-24)
(0.00965552 -8.60475e-06 4.0921e-25)
(0.00966427 -1.89372e-05 8.41044e-25)
(0.00967761 -3.01932e-05 3.1339e-24)
(0.00969391 -4.29816e-05 -8.65795e-24)
(0.00971197 -5.81206e-05 -4.73008e-24)
(0.00973048 -7.63016e-05 1.28508e-23)
(0.00974788 -9.79347e-05 -4.03006e-24)
(0.00976238 -0.000122913 1.37821e-23)
(0.00977225 -0.000150315 -7.27027e-24)
(0.00977594 -0.000178317 -2.30228e-24)
(0.00977375 -0.000204425 1.3605e-24)
(0.0114476 6.03164e-05 -5.57315e-27)
(0.0114068 3.57732e-05 3.24727e-25)
(0.0113888 1.75416e-05 -4.63586e-25)
(0.0113846 2.75078e-06 1.12979e-24)
(0.0113891 -1.02408e-05 -6.80793e-24)
(0.0113991 -2.29893e-05 7.21299e-24)
(0.0114126 -3.64515e-05 -1.15968e-23)
(0.011428 -5.12403e-05 7.09568e-24)
(0.011444 -6.79371e-05 5.35512e-24)
(0.0114593 -8.68705e-05 1.17608e-23)
(0.0114727 -0.000107979 -1.53858e-23)
(0.011483 -0.000130717 -2.8406e-24)
(0.0114892 -0.000154041 1.34313e-24)
(0.0114909 -0.000176589 9.33982e-24)
(0.0114888 -0.000196947 -3.78447e-24)
(0.0131946 7.13042e-05 2.83661e-26)
(0.0131741 4.20304e-05 -1.31051e-25)
(0.0131694 2.01311e-05 6.06224e-25)
(0.0131742 2.35457e-06 -2.1511e-24)
(0.0131847 -1.3228e-05 3.28859e-24)
(0.0131985 -2.81587e-05 -4.30255e-24)
(0.013214 -4.3441e-05 7.27571e-24)
(0.0132299 -5.96533e-05 1.32501e-24)
(0.0132451 -7.71511e-05 -1.01682e-23)
(0.0132586 -9.59844e-05 1.45664e-23)
(0.0132696 -0.000115847 -1.609e-23)
(0.0132775 -0.000136111 -4.7104e-24)
(0.013282 -0.000155923 8.35441e-24)
(0.013283 -0.000174415 2.45566e-24)
(0.0132817 -0.000190836 -1.06854e-24)
(0.0149581 7.57785e-05 9.18942e-26)
(0.0149646 4.30797e-05 -9.76399e-25)
(0.0149784 1.83202e-05 -1.69531e-24)
(0.0149963 -1.87299e-06 3.96516e-24)
(0.0150161 -1.95085e-05 1.82948e-24)
(0.0150362 -3.6093e-05 -1.15068e-23)
(0.0150558 -5.25888e-05 3.50804e-24)
(0.015074 -6.95019e-05 2.55999e-24)
(0.0150902 -8.70216e-05 -1.13029e-23)
(0.0151037 -0.000105047 1.17655e-23)
(0.0151144 -0.000123219 -9.40044e-24)
(0.0151219 -0.000141015 2.41874e-23)
(0.0151265 -0.000157851 -1.15713e-23)
(0.0151283 -0.000173237 6.77714e-24)
(0.0151283 -0.000186809 -1.839e-24)
(0.0167397 7.05928e-05 -6.71866e-27)
(0.0167716 3.59639e-05 6.00253e-25)
(0.016804 9.35459e-06 -1.2908e-24)
(0.0168354 -1.23977e-05 -7.08727e-25)
(0.0168653 -3.13347e-05 7.8303e-24)
(0.0168927 -4.88541e-05 -1.07507e-24)
(0.0169174 -6.58217e-05 -1.41943e-23)
(0.0169391 -8.2666e-05 1.66713e-23)
(0.0169576 -9.94905e-05 -3.74638e-24)
(0.0169727 -0.000116163 -1.30373e-23)
(0.0169846 -0.000132389 1.38962e-23)
(0.0169933 -0.000147813 7.40596e-24)
(0.0169994 -0.000162091 -6.34324e-24)
(0.0170029 -0.00017498 -1.07843e-23)
(0.017005 -0.000186337 8.98088e-25)
(0.0185663 5.60472e-05 -2.96737e-26)
(0.0186128 2.02376e-05 -5.99708e-25)
(0.0186565 -7.49555e-06 3.32114e-24)
(0.0186968 -3.01564e-05 3.47413e-25)
(0.0187333 -4.97524e-05 2.15909e-24)
(0.0187657 -6.756e-05 -7.44096e-24)
(0.0187942 -8.43462e-05 6.48879e-24)
(0.0188185 -0.000100493 1.51677e-24)
(0.018839 -0.000116097 1.34644e-23)
(0.0188558 -0.00013108 -2.08094e-23)
(0.0188692 -0.000145265 -9.38977e-24)
(0.0188796 -0.000158459 -6.12671e-24)
(0.0188875 -0.000170496 1.1622e-23)
(0.018893 -0.000181285 -3.21246e-25)
(0.0188972 -0.000190797 1.10807e-24)
(0.0204656 3.62842e-05 -2.90083e-26)
(0.0205133 -8.27824e-07 5.00588e-25)
(0.020558 -2.95771e-05 -7.51426e-25)
(0.0205988 -5.30069e-05 -1.96108e-26)
(0.0206357 -7.30006e-05 1.4192e-24)
(0.0206682 -9.07656e-05 3.7426e-24)
(0.0206965 -0.000107027 -1.45232e-23)
(0.0207207 -0.000122173 1.18161e-24)
(0.0207411 -0.000136355 7.46716e-24)
(0.020758 -0.000149592 -3.43735e-24)
(0.0207717 -0.000161833 9.39491e-24)
(0.0207827 -0.000173022 6.49633e-24)
(0.0207915 -0.000183116 -1.18279e-23)
(0.0207982 -0.000192115 7.97187e-24)
(0.0208037 -0.000200052 -6.62002e-24)
(0.0224286 1.58357e-05 -6.99221e-25)
(0.0224695 -2.26397e-05 8.14965e-25)
(0.0225078 -5.25203e-05 7.42432e-25)
(0.022543 -7.67204e-05 -5.52172e-24)
(0.0225748 -9.70584e-05 4.99962e-24)
(0.0226029 -0.000114703 -4.08519e-24)
(0.0226274 -0.000130379 2.88213e-24)
(0.0226483 -0.000144522 -2.13951e-23)
(0.022666 -0.000157371 3.08877e-23)
(0.0226807 -0.000169049 -1.82676e-23)
(0.022693 -0.000179615 1.63232e-23)
(0.0227028 -0.000189116 1.35144e-23)
(0.022711 -0.00019759 -2.35999e-23)
(0.0227173 -0.000205095 7.63658e-24)
(0.0227228 -0.000211696 -3.1792e-25)
(0.0243932 -3.10251e-06 -2.3167e-26)
(0.0244263 -4.25276e-05 8.56688e-25)
(0.0244568 -7.32763e-05 -9.66081e-25)
(0.0244845 -9.80347e-05 -1.42961e-25)
(0.0245094 -0.000118555 1.84564e-24)
(0.0245313 -0.000135979 -3.34129e-24)
(0.0245504 -0.000151049 3.31148e-24)
(0.0245666 -0.00016426 -1.08941e-23)
(0.0245804 -0.000175936 2.50702e-23)
(0.0245918 -0.000186293 -3.23292e-23)
(0.0246013 -0.000195474 2.65603e-23)
(0.024609 -0.000203593 -8.97985e-24)
(0.0246154 -0.000210742 4.52653e-25)
(0.0246203 -0.000217008 2.00238e-24)
(0.0246246 -0.000222472 -3.87632e-24)
(0.0262578 -2.09753e-05 -1.87641e-24)
(0.0262849 -6.0369e-05 4.50639e-24)
(0.0263091 -9.13121e-05 -2.84348e-24)
(0.0263305 -0.000116129 4.60157e-26)
(0.0263494 -0.00013646 1.70745e-24)
(0.0263659 -0.000153409 -2.1249e-24)
(0.02638 -0.000167744 -2.62892e-24)
(0.0263919 -0.000180012 -6.78353e-24)
(0.0264019 -0.000190596 3.12043e-24)
(0.0264101 -0.000199773 1.67036e-23)
(0.0264168 -0.000207741 -8.90946e-24)
(0.0264222 -0.000214662 5.37041e-24)
(0.0264266 -0.000220657 -2.22044e-24)
(0.0264299 -0.000225833 -6.52951e-24)
(0.0264327 -0.000230275 3.33534e-24)
(0.0278953 -3.89613e-05 6.15074e-25)
(0.0279184 -7.72235e-05 -1.18432e-24)
(0.0279382 -0.000107491 -2.11512e-24)
(0.0279551 -0.000131709 4.67591e-24)
(0.0279696 -0.000151383 -1.55089e-24)
(0.027982 -0.000167538 6.27997e-25)
(0.0279925 -0.000180945 -1.49464e-24)
(0.0280012 -0.000192173 -1.86962e-24)
(0.0280084 -0.000201654 1.53412e-24)
(0.0280141 -0.00020969 -2.31855e-24)
(0.0280186 -0.000216503 5.32152e-24)
(0.0280221 -0.000222281 2.86484e-24)
(0.0280248 -0.000227162 -1.06199e-23)
(0.0280266 -0.00023126 7.39018e-24)
(0.028028 -0.000234663 -1.51426e-24)
(0.0291493 -5.77383e-05 1.83366e-24)
(0.0291696 -9.40235e-05 3.89201e-24)
(0.0291861 -0.000122868 -8.32464e-24)
(0.0291995 -0.00014589 -2.88099e-24)
(0.0292106 -0.000164431 5.63391e-24)
(0.0292196 -0.000179451 1.65491e-24)
(0.0292269 -0.000191718 -1.21479e-24)
(0.0292326 -0.000201744 -1.13319e-24)
(0.0292369 -0.000210025 2.44297e-24)
(0.0292401 -0.000216847 -6.45909e-24)
(0.0292423 -0.000222447 4.34635e-24)
(0.0292436 -0.000227024 -3.42695e-25)
(0.0292443 -0.000230715 -3.34603e-25)
(0.0292443 -0.000233637 4.67306e-25)
(0.0292439 -0.000235873 -2.20385e-25)
(0.0298135 -7.56498e-05 -4.88891e-24)
(0.0298269 -0.00010837 -1.17783e-23)
(0.0298365 -0.000134479 4.56399e-24)
(0.0298432 -0.000155293 2.43533e-23)
(0.029848 -0.000171926 -7.24578e-24)
(0.0298512 -0.000185263 -4.33385e-24)
(0.0298532 -0.000195973 2.77449e-24)
(0.0298541 -0.000204581 5.58702e-24)
(0.0298542 -0.000211486 -9.08083e-24)
(0.0298535 -0.000216991 3.12827e-24)
(0.0298521 -0.000221323 6.44988e-25)
(0.0298503 -0.000224651 -2.13346e-25)
(0.0298479 -0.000227106 -1.32633e-24)
(0.0298452 -0.000228805 2.28059e-24)
(0.0298422 -0.000229829 -1.10682e-24)
(0.0296535 -9.20148e-05 7.85649e-24)
(0.029664 -0.00011983 -1.83943e-23)
(0.0296709 -0.000142118 2.70273e-24)
(0.0296752 -0.000159903 2.96135e-23)
(0.0296775 -0.000174054 -2.98645e-23)
(0.0296784 -0.000185289 1.16162e-23)
(0.0296782 -0.000194178 1.11506e-23)
(0.0296769 -0.000201166 -2.60753e-23)
(0.0296749 -0.000206591 6.10522e-25)
(0.0296722 -0.000210717 8.46531e-24)
(0.0296689 -0.000213733 2.09647e-24)
(0.0296652 -0.000215796 -1.01025e-24)
(0.029661 -0.000217022 5.80806e-25)
(0.0296565 -0.000217511 6.95662e-26)
(0.0296516 -0.000217337 -1.06843e-25)
(0.0286865 -0.00010215 4.91521e-24)
(0.0286911 -0.000125613 -1.04413e-23)
(0.028693 -0.00014447 -7.47719e-24)
(0.0286928 -0.000159514 3.51535e-23)
(0.0286912 -0.000171444 -3.28729e-23)
(0.0286884 -0.000180823 3.28331e-24)
(0.0286846 -0.00018811 5.7175e-24)
(0.0286802 -0.000193678 3.40852e-24)
(0.0286751 -0.000197808 3.38467e-24)
(0.0286695 -0.000200717 -1.75266e-23)
(0.0286634 -0.000202571 1.10647e-23)
(0.0286569 -0.000203506 4.86894e-25)
(0.0286501 -0.000203623 3.74462e-24)
(0.0286431 -0.000203003 -1.65916e-24)
(0.0286357 -0.000201703 -1.59795e-25)
(0.0271668 -0.000105812 1.2289e-23)
(0.0271674 -0.000125495 -2.1847e-23)
(0.0271652 -0.000141322 4.45213e-24)
(0.0271613 -0.000153933 -1.07366e-23)
(0.0271559 -0.000163871 -1.40768e-23)
(0.0271496 -0.000171575 4.7491e-23)
(0.0271424 -0.000177417 -1.85306e-23)
(0.0271346 -0.000181703 5.2972e-24)
(0.0271263 -0.000184666 -2.96511e-24)
(0.0271175 -0.000186485 -7.57804e-24)
(0.0271084 -0.0001873 1.42739e-23)
(0.0270991 -0.000187225 -7.82511e-24)
(0.0270895 -0.000186345 1.0533e-24)
(0.0270798 -0.000184734 9.87259e-25)
(0.0270698 -0.000182454 -8.64938e-26)
(0.0253034 -0.000105659 4.74786e-24)
(0.0252991 -0.000121573 -2.44608e-23)
(0.0252924 -0.000134394 4.22997e-23)
(0.0252841 -0.000144602 -3.21747e-23)
(0.0252745 -0.000152601 3.19342e-23)
(0.0252641 -0.000158719 -1.06337e-23)
(0.025253 -0.000163238 -7.29414e-24)
(0.0252414 -0.000166384 -7.89192e-24)
(0.0252295 -0.000168331 1.37412e-23)
(0.0252173 -0.000169216 -6.25534e-25)
(0.0252049 -0.000169158 -1.29404e-23)
(0.0251924 -0.000168259 -1.51611e-24)
(0.0251797 -0.000166605 2.71752e-24)
(0.025167 -0.000164265 -5.22111e-25)
(0.0251541 -0.000161295 9.55366e-26)
(0.0232427 -0.000100484 6.3295e-25)
(0.0232329 -0.000113115 -9.18394e-24)
(0.0232209 -0.000123288 -5.00941e-24)
(0.0232078 -0.000131358 4.1325e-23)
(0.0231936 -0.000137638 -4.03721e-23)
(0.0231788 -0.000142374 1.17336e-23)
(0.0231636 -0.000145762 1.94969e-24)
(0.0231481 -0.000147956 -1.00633e-24)
(0.0231324 -0.000149079 -4.60975e-24)
(0.0231166 -0.000149245 1.97183e-23)
(0.0231007 -0.000148556 -1.55937e-23)
(0.0230849 -0.000147102 -6.08961e-25)
(0.0230691 -0.000144953 1.24977e-24)
(0.0230534 -0.000142164 8.43038e-25)
(0.0230378 -0.000138779 -6.3031e-25)
(0.0210881 -9.08834e-05 9.42838e-25)
(0.0210729 -0.000100793 8.51022e-24)
(0.0210561 -0.000108768 -9.78157e-24)
(0.0210385 -0.000115064 -6.62089e-24)
(0.0210203 -0.000119922 4.16658e-23)
(0.0210017 -0.000123523 -3.18698e-23)
(0.0209829 -0.000126004 -7.77009e-25)
(0.020964 -0.000127473 -6.33944e-24)
(0.0209452 -0.000128029 -4.37221e-25)
(0.0209265 -0.000127761 9.34829e-25)
(0.0209079 -0.000126746 -3.01205e-24)
(0.0208896 -0.000125051 2.64364e-24)
(0.0208715 -0.000122727 9.50901e-25)
(0.0208538 -0.000119821 7.82214e-25)
(0.0208364 -0.000116372 6.62208e-25)
(0.0189185 -7.83299e-05 6.72287e-24)
(0.0188994 -8.60665e-05 -1.02758e-23)
(0.0188792 -9.23028e-05 -8.05293e-24)
(0.0188586 -9.7253e-05 2.4521e-23)
(0.0188377 -0.000101083 -8.79022e-24)
(0.0188166 -0.000103906 -1.19929e-23)
(0.0187956 -0.000105809 4.22923e-24)
(0.0187747 -0.000106871 9.05346e-24)
(0.0187541 -0.000107165 -1.40976e-23)
(0.0187338 -0.000106755 1.36896e-23)
(0.0187138 -0.0001057 -7.09823e-24)
(0.0186942 -0.000104048 2.90647e-24)
(0.0186752 -0.000101844 -3.45287e-24)
(0.0186566 -9.91266e-05 3.25176e-24)
(0.0186386 -9.59302e-05 -7.04742e-25)
(0.0167958 -6.47585e-05 -1.30529e-24)
(0.0167748 -7.08648e-05 -4.46511e-24)
(0.0167532 -7.58429e-05 -1.40333e-23)
(0.0167314 -7.98535e-05 3.915e-23)
(0.0167094 -8.29887e-05 -7.1383e-24)
(0.0166874 -8.53146e-05 -1.08212e-23)
(0.0166656 -8.68913e-05 3.59562e-24)
(0.0166441 -8.77761e-05 -5.24203e-24)
(0.016623 -8.80217e-05 -1.08507e-23)
(0.0166023 -8.76757e-05 1.0479e-23)
(0.016582 -8.67806e-05 4.97946e-25)
(0.0165624 -8.53756e-05 -2.97672e-24)
(0.0165433 -8.34939e-05 3.40977e-24)
(0.0165249 -8.11668e-05 1.67018e-25)
(0.0165072 -7.842e-05 -2.18019e-25)
(0.0147644 -5.18325e-05 5.02516e-24)
(0.0147434 -5.67263e-05 7.25308e-24)
(0.0147219 -6.07745e-05 -6.89183e-24)
(0.0147002 -6.40995e-05 -1.46034e-23)
(0.0146784 -6.67453e-05 1.93901e-23)
(0.0146568 -6.87495e-05 -2.09389e-23)
(0.0146353 -7.01517e-05 -6.22471e-25)
(0.0146141 -7.0991e-05 7.96681e-24)
(0.0145933 -7.1304e-05 2.70659e-24)
(0.0145729 -7.11254e-05 -5.31833e-24)
(0.0145531 -7.04866e-05 1.7984e-25)
(0.0145338 -6.94163e-05 1.03297e-23)
(0.0145153 -6.79383e-05 -3.91964e-24)
(0.0144975 -6.60753e-05 -9.23885e-25)
(0.0144804 -6.38465e-05 -5.17348e-26)
(0.0128514 -4.0437e-05 -5.22287e-24)
(0.0128314 -4.43724e-05 6.70988e-24)
(0.012811 -4.76914e-05 7.24167e-25)
(0.0127903 -5.04824e-05 1.31109e-23)
(0.0127695 -5.2751e-05 -1.07776e-23)
(0.0127487 -5.45149e-05 7.56363e-25)
(0.012728 -5.57995e-05 -1.19322e-24)
(0.0127075 -5.66309e-05 -3.24474e-24)
(0.0126874 -5.70346e-05 2.67208e-24)
(0.0126676 -5.70353e-05 -8.61674e-24)
(0.0126484 -5.66556e-05 7.07344e-25)
(0.0126297 -5.59154e-05 2.0369e-24)
(0.0126117 -5.48305e-05 1.21194e-24)
(0.0125944 -5.34174e-05 4.49255e-25)
(0.0125779 -5.16897e-05 1.44218e-25)
(0.0110694 -3.0823e-05 3.87135e-24)
(0.0110509 -3.39629e-05 -3.07292e-24)
(0.011032 -3.66771e-05 -1.31856e-23)
(0.0110127 -3.90092e-05 1.23732e-23)
(0.0109931 -4.094e-05 1.68462e-23)
(0.0109734 -4.24788e-05 -4.45587e-24)
(0.0109537 -4.36422e-05 -8.64872e-24)
(0.0109341 -4.44472e-05 -1.17134e-23)
(0.0109147 -4.49112e-05 8.75682e-24)
(0.0108956 -4.50514e-05 4.66362e-25)
(0.0108769 -4.48835e-05 -1.87986e-24)
(0.0108587 -4.442e-05 -4.69293e-25)
(0.0108411 -4.36712e-05 9.75448e-25)
(0.0108241 -4.26481e-05 -4.58333e-26)
(0.0108079 -4.13603e-05 -1.67847e-25)
(0.00942119 -2.29164e-05 -2.43848e-24)
(0.00940452 -2.53772e-05 -1.69438e-24)
(0.00938725 -2.75612e-05 2.11904e-24)
(0.00936942 -2.94666e-05 -6.46887e-24)
(0.00935117 -3.10677e-05 2.11582e-23)
(0.00933265 -3.23714e-05 -2.76932e-23)
(0.00931397 -3.33885e-05 2.68229e-23)
(0.00929527 -3.4129e-05 -1.12676e-23)
(0.00927664 -3.46049e-05 2.46513e-24)
(0.00925821 -3.48276e-05 -2.66765e-26)
(0.00924006 -3.48073e-05 -1.90876e-24)
(0.0092223 -3.45513e-05 5.7022e-25)
(0.00920502 -3.40656e-05 -1.35672e-24)
(0.00918831 -3.33572e-05 -1.64189e-25)
(0.00917224 -3.24327e-05 7.95633e-26)
(0.00790393 -1.65281e-05 -1.18598e-24)
(0.00788911 -1.8405e-05 3.12967e-25)
(0.00787355 -2.01114e-05 6.57107e-25)
(0.00785729 -2.1613e-05 -2.96645e-24)
(0.00784048 -2.28901e-05 -1.28176e-24)
(0.00782327 -2.39493e-05 1.13606e-23)
(0.00780577 -2.47964e-05 -6.64516e-24)
(0.0077881 -2.54373e-05 9.1877e-25)
(0.00777039 -2.58798e-05 -8.96073e-25)
(0.00775275 -2.61311e-05 -9.27932e-25)
(0.00773528 -2.61974e-05 -2.41982e-25)
(0.00771809 -2.60822e-05 1.68238e-24)
(0.00770126 -2.57889e-05 3.66278e-25)
(0.00768491 -2.53214e-05 -9.45334e-25)
(0.0076691 -2.4684e-05 -1.33738e-25)
(0.00651184 -1.14607e-05 -4.3173e-25)
(0.00649892 -1.2841e-05 -1.37203e-25)
(0.00648515 -1.41189e-05 -6.81399e-24)
(0.00647059 -1.52468e-05 1.87049e-24)
(0.0064554 -1.62163e-05 -4.72143e-24)
(0.00643969 -1.70328e-05 3.45089e-24)
(0.0064236 -1.76989e-05 6.27861e-24)
(0.00640724 -1.82181e-05 4.56468e-24)
(0.00639072 -1.85948e-05 -6.33002e-24)
(0.00637417 -1.88335e-05 1.90284e-24)
(0.00635768 -1.89373e-05 1.54849e-24)
(0.00634136 -1.89078e-05 -2.14488e-24)
(0.0063253 -1.87465e-05 1.13708e-24)
(0.00630962 -1.84552e-05 -6.11147e-26)
(0.00629438 -1.80365e-05 2.52386e-25)
(0.00523787 -7.54029e-06 -1.69288e-24)
(0.0052269 -8.50701e-06 -2.2809e-24)
(0.00521504 -9.40978e-06 -3.70936e-25)
(0.00520237 -1.02063e-05 5.64224e-24)
(0.00518901 -1.08978e-05 -3.92385e-24)
(0.00517509 -1.14878e-05 -7.11588e-25)
(0.00516072 -1.19773e-05 6.1693e-24)
(0.00514601 -1.23679e-05 -2.87774e-26)
(0.00513108 -1.2662e-05 -1.24567e-24)
(0.00511603 -1.28619e-05 -4.30733e-24)
(0.00510094 -1.29691e-05 5.39573e-25)
(0.00508594 -1.29839e-05 2.84094e-24)
(0.0050711 -1.29069e-05 -3.61261e-25)
(0.00505654 -1.27385e-05 -3.45528e-25)
(0.00504234 -1.24797e-05 2.227e-25)
(0.00407454 -4.61204e-06 -3.70474e-25)
(0.00406559 -5.24562e-06 2.53214e-26)
(0.00405576 -5.83462e-06 2.7208e-24)
(0.00404515 -6.35312e-06 1.77095e-24)
(0.00403388 -6.80755e-06 -1.27575e-24)
(0.00402205 -7.19994e-06 -3.02575e-24)
(0.00400975 -7.53024e-06 1.19177e-24)
(0.00399709 -7.79893e-06 -4.93425e-24)
(0.00398416 -8.00712e-06 3.78693e-24)
(0.00397105 -8.1557e-06 1.86246e-24)
(0.00395786 -8.24529e-06 -5.87513e-26)
(0.00394467 -8.27564e-06 -1.96748e-24)
(0.00393157 -8.24684e-06 3.39143e-25)
(0.00391866 -8.1585e-06 -2.39963e-25)
(0.00390601 -8.01072e-06 1.14916e-25)
(0.00301436 -2.53119e-06 -6.83129e-25)
(0.00300746 -2.91211e-06 2.04489e-26)
(0.00299977 -3.25705e-06 2.18918e-24)
(0.0029914 -3.55921e-06 -1.36602e-24)
(0.00298243 -3.82593e-06 5.47829e-24)
(0.00297295 -4.05822e-06 -9.92468e-24)
(0.00296305 -4.25578e-06 7.96277e-24)
(0.00295279 -4.41858e-06 -6.5374e-24)
(0.00294226 -4.54702e-06 4.61267e-24)
(0.00293154 -4.6414e-06 -2.89445e-24)
(0.0029207 -4.70195e-06 9.84895e-25)
(0.00290982 -4.72833e-06 1.38269e-25)
(0.00289897 -4.72051e-06 2.01958e-25)
(0.00288822 -4.67807e-06 -2.45183e-25)
(0.00287766 -4.60051e-06 4.75752e-26)
(0.00205003 -1.15782e-06 1.03823e-24)
(0.00204517 -1.35932e-06 1.10138e-24)
(0.00203967 -1.5317e-06 -4.72402e-24)
(0.00203365 -1.681e-06 3.4287e-24)
(0.00202715 -1.81231e-06 -4.36497e-26)
(0.00202024 -1.92615e-06 8.40604e-25)
(0.00201297 -2.02254e-06 -1.05142e-24)
(0.00200542 -2.10164e-06 -2.11724e-24)
(0.00199762 -2.16386e-06 2.07827e-24)
(0.00198965 -2.20953e-06 1.95659e-25)
(0.00198156 -2.23898e-06 -1.57167e-24)
(0.00197341 -2.25218e-06 5.64675e-25)
(0.00196524 -2.24933e-06 3.15343e-25)
(0.00195713 -2.2298e-06 -3.82438e-26)
(0.00194913 -2.19231e-06 -3.2019e-26)
(0.00117452 -3.54675e-07 -1.04945e-24)
(0.00117163 -4.09817e-07 3.18851e-24)
(0.00116833 -4.57043e-07 1.85319e-24)
(0.00116468 -5.00746e-07 -3.38396e-24)
(0.00116073 -5.40893e-07 -3.94011e-25)
(0.00115652 -5.76942e-07 -3.42163e-25)
(0.00115206 -6.08778e-07 1.01926e-24)
(0.00114741 -6.36536e-07 -1.70206e-24)
(0.00114259 -6.60517e-07 2.26262e-24)
(0.00113764 -6.80977e-07 -1.10786e-24)
(0.0011326 -6.98199e-07 -6.86707e-25)
(0.0011275 -7.12248e-07 4.05486e-25)
(0.00112238 -7.23243e-07 -4.47857e-25)
(0.00111727 -7.28871e-07 4.39333e-25)
(0.00111221 -7.2553e-07 -6.93888e-26)
(0.000381105 5.71922e-09 -7.53643e-27)
(0.000380068 1.00789e-07 6.21483e-25)
(0.000378892 1.67573e-07 6.975e-25)
(0.000377601 2.08991e-07 -1.10623e-24)
(0.000376205 2.2964e-07 2.23292e-24)
(0.000374714 2.33188e-07 -2.42478e-24)
(0.000373139 2.22652e-07 1.5408e-25)
(0.00037149 2.00647e-07 1.2697e-24)
(0.00036978 1.69467e-07 -1.7528e-24)
(0.000368021 1.31172e-07 -2.96351e-25)
(0.000366223 8.75826e-08 1.14298e-24)
(0.0003644 4.03648e-08 -4.97406e-25)
(0.000362564 -9.01712e-09 -1.69759e-25)
(0.000360728 -5.76667e-08 1.39963e-25)
(0.000358905 -1.02161e-07 -5.76262e-27)
(0.000949416 -0.000234349 6.38844e-26)
(0.00109152 -0.000141519 1.51152e-24)
(0.00133142 -4.96051e-05 -4.16647e-24)
(0.00157781 2.26029e-05 5.70282e-24)
(0.00181599 7.7033e-05 -2.13268e-24)
(0.00205052 0.000114463 -1.81621e-24)
(0.00228084 0.000137509 1.96355e-24)
(0.00250704 0.000148371 -3.64809e-24)
(0.00272938 0.000148958 3.27501e-25)
(0.00294812 0.000140975 2.16563e-24)
(0.00316358 0.000125944 -3.8741e-25)
(0.00337611 0.000105223 3.96923e-25)
(0.00358608 8.00653e-05 -4.91552e-26)
(0.00379385 5.17408e-05 1.85481e-25)
(0.00399994 2.16382e-05 -6.60437e-25)
(0.00420495 -8.32591e-06 3.3807e-25)
(0.0044102 -3.58802e-05 -4.81754e-26)
(0.00461754 -5.78581e-05 3.2913e-26)
(0.00483081 -7.0783e-05 -1.98264e-26)
(0.00505476 -7.07926e-05 2.95582e-26)
(0.00529693 -5.60368e-05 -9.07616e-27)
(0.00556357 -2.72469e-05 7.8177e-27)
(0.00583573 5.44393e-06 -5.98648e-27)
(0.00607933 2.84463e-05 1.08352e-26)
(0.00628104 3.73481e-05 -1.54512e-26)
(0.00643994 3.19712e-05 -4.34845e-26)
(0.0065576 1.29306e-05 1.56731e-27)
(0.00663667 -1.91793e-05 8.39756e-26)
(0.00667902 -6.34903e-05 -8.36333e-26)
(0.00668517 -0.000118532 2.40698e-25)
(0.00665461 -0.000181856 -1.07854e-24)
(0.0065868 -0.00024943 1.73701e-24)
(0.00648103 -0.000314882 -8.236e-25)
(0.00633678 -0.000370986 -2.09647e-24)
(0.00615453 -0.000409339 2.07508e-24)
(0.00593547 -0.000420562 9.28822e-24)
(0.00568134 -0.000394244 -3.07956e-24)
(0.00539441 -0.000318277 1.75288e-24)
(0.0050776 -0.000177377 7.62148e-25)
(0.00473513 4.87605e-05 -1.17131e-23)
(0.00437196 0.000383882 -1.38814e-25)
(0.00399472 0.00084354 4.63523e-24)
(0.00359285 0.00139509 1.33299e-24)
(0.00318468 0.00190366 -6.36948e-24)
(0.00295688 0.00197206 -3.03377e-25)
(0.00179916 -0.000319843 -1.81226e-24)
(0.0018603 -0.000265232 -2.31841e-24)
(0.00201149 -0.000177118 4.98727e-24)
(0.0022009 -9.77005e-05 2.02427e-24)
(0.00240292 -3.25748e-05 -7.03154e-24)
(0.00261216 1.59497e-05 7.12662e-24)
(0.00282384 4.93589e-05 -2.50403e-24)
(0.00303553 6.96424e-05 1.76296e-24)
(0.00324606 7.86923e-05 -2.34383e-24)
(0.00345483 7.82783e-05 3.68184e-26)
(0.00366156 7.00042e-05 -1.08384e-24)
(0.00386618 5.53161e-05 2.11394e-24)
(0.00406875 3.55535e-05 -1.10949e-24)
(0.00426935 1.20581e-05 -8.12742e-25)
(0.00446825 -1.37331e-05 -3.18277e-25)
(0.00466578 -3.98662e-05 9.56443e-25)
(0.00486296 -6.40868e-05 1.64114e-26)
(0.00506122 -8.33079e-05 1.59817e-25)
(0.00526395 -9.41332e-05 -6.32604e-26)
(0.00547529 -9.27859e-05 1.12045e-26)
(0.0057023 -7.73951e-05 2.48e-26)
(0.00595096 -4.8395e-05 1.38336e-26)
(0.00620455 -1.53624e-05 -3.93036e-26)
(0.0064324 8.74171e-06 3.21e-26)
(0.00662229 1.96804e-05 2.78611e-26)
(0.0067731 1.71666e-05 -1.93151e-25)
(0.00688585 1.72388e-06 2.81638e-25)
(0.00696262 -2.60126e-05 -1.59643e-25)
(0.00700488 -6.50017e-05 5.42922e-26)
(0.00701287 -0.000113515 1.51938e-25)
(0.00698604 -0.00016895 -1.82298e-24)
(0.00692406 -0.000227243 4.11091e-24)
(0.00682653 -0.000281932 -4.63778e-24)
(0.00669336 -0.000325882 1.1887e-23)
(0.00652564 -0.00035085 -1.68424e-23)
(0.00632544 -0.00034763 4.32635e-24)
(0.00609585 -0.00030603 1.54439e-23)
(0.00584113 -0.000214342 -4.65277e-24)
(0.00556735 -5.81361e-05 -1.15922e-23)
(0.00528409 0.000181319 -6.55797e-24)
(0.00500617 0.000526327 1.49391e-23)
(0.0047584 0.000992196 -1.40005e-23)
(0.00456617 0.0015473 -2.67209e-24)
(0.0044715 0.00204687 8.95565e-24)
(0.00450957 0.00205669 2.58498e-24)
(0.0028075 -0.000330158 -2.01354e-26)
(0.0028192 -0.000319466 -2.72642e-24)
(0.00288693 -0.000265619 5.17029e-24)
(0.00300891 -0.000197324 3.85847e-24)
(0.00315958 -0.000132751 -6.47223e-24)
(0.00332939 -7.93788e-05 1.53632e-25)
(0.00351048 -3.89502e-05 5.52839e-25)
(0.0036978 -1.10033e-05 5.47994e-24)
(0.00388835 5.63751e-06 -6.43495e-24)
(0.00408028 1.24207e-05 3.71019e-24)
(0.00427242 1.08245e-05 9.46966e-25)
(0.00446406 2.25958e-06 -5.63592e-24)
(0.00465476 -1.1919e-05 2.01267e-24)
(0.0048442 -3.03401e-05 6.91998e-25)
(0.0050323 -5.15063e-05 -1.17051e-24)
(0.00521905 -7.35676e-05 1.58269e-24)
(0.00540507 -9.41881e-05 -8.57034e-25)
(0.00559132 -0.000110401 1.11896e-25)
(0.00578067 -0.000118906 8.73504e-26)
(0.00597658 -0.000116021 3.36491e-27)
(0.00618552 -9.98654e-05 3.47188e-28)
(0.00641308 -7.0583e-05 -3.27008e-26)
(0.00664493 -3.72001e-05 3.37677e-26)
(0.00685411 -1.20328e-05 -4.65224e-26)
(0.00702964 8.95395e-07 -5.36415e-26)
(0.00717022 1.2183e-06 5.51195e-26)
(0.00727633 -1.06209e-05 -2.07237e-25)
(0.00734943 -3.39538e-05 2.58175e-25)
(0.00739057 -6.75484e-05 1.69237e-25)
(0.0073997 -0.000109427 5.60601e-25)
(0.00737624 -0.000156838 1.19586e-24)
(0.00732005 -0.000205739 -4.75938e-24)
(0.0072311 -0.000249555 1.96193e-24)
(0.0071097 -0.000281321 6.05978e-24)
(0.00695764 -0.000293068 -1.42375e-23)
(0.00677793 -0.000275975 2.14234e-23)
(0.00657499 -0.000220444 -1.39753e-23)
(0.00635511 -0.000115818 1.85443e-23)
(0.00612729 5.02655e-05 -3.48793e-23)
(0.00590549 0.000292544 1.3164e-23)
(0.0057113 0.000626674 4.41324e-24)
(0.00557826 0.00105911 6.54891e-24)
(0.00554221 0.00155166 -8.12116e-24)
(0.00563012 0.00196506 2.04721e-24)
(0.00579079 0.00195755 -1.19024e-24)
(0.00395356 -0.000315423 -7.39408e-25)
(0.00393877 -0.000331655 -1.05909e-24)
(0.00395392 -0.000309849 -4.35721e-24)
(0.00401112 -0.000265647 1.45417e-24)
(0.00410552 -0.000212531 9.43556e-25)
(0.0042267 -0.000162556 3.12897e-24)
(0.00436705 -0.000120641 -5.91918e-24)
(0.00452031 -8.85927e-05 2.39593e-24)
(0.0046821 -6.65931e-05 6.97027e-24)
(0.00484937 -5.39753e-05 -1.91305e-24)
(0.00502 -4.96868e-05 -1.64413e-24)
(0.00519249 -5.25475e-05 -2.43078e-25)
(0.0053658 -6.13117e-05 7.09814e-25)
(0.00553908 -7.46619e-05 -1.28855e-24)
(0.00571182 -9.11264e-05 3.40747e-25)
(0.00588358 -0.00010891 3.59209e-27)
(0.00605454 -0.000125711 -1.26982e-25)
(0.00622513 -0.000138682 2.66869e-25)
(0.00639762 -0.000144644 -2.02771e-26)
(0.00657471 -0.000140028 -3.51692e-26)
(0.00676218 -0.000122969 8.5329e-26)
(0.00696512 -9.33371e-05 2.45498e-26)
(0.00717167 -5.96231e-05 6.2111e-26)
(0.00735889 -3.34672e-05 -7.08835e-26)
(0.00751715 -1.86385e-05 -1.27392e-25)
(0.00764499 -1.55451e-05 1.12021e-25)
(0.00774233 -2.38089e-05 -1.64837e-25)
(0.00781004 -4.2732e-05 2.26371e-25)
(0.00784872 -7.08938e-05 1.47907e-25)
(0.00785799 -0.00010605 1.90868e-25)
(0.0078373 -0.000145383 -6.5386e-25)
(0.00778662 -0.000184902 -2.04126e-25)
(0.00770636 -0.000217956 -2.55694e-25)
(0.00759724 -0.000237864 -1.58325e-24)
(0.00746171 -0.00023711 2.49788e-24)
(0.00730369 -0.000207531 -6.29992e-24)
(0.00712885 -0.000140551 2.80676e-23)
(0.00694511 -2.72073e-05 -1.50374e-23)