/*--------------------------------*- C++ -*----------------------------------*\
| =========                 |                                                 |
| \\      /  F ield         | OpenFOAM: The Open Source CFD Toolbox           |
|  \\    /   O peration     | Version:  2312                                  |
|   \\  /    A nd           | Website:  www.openfoam.com                      |
|    \\/     M anipulation  |                                                 |
\*---------------------------------------------------------------------------*/
FoamFile
{
    version     2.0;
    format      ascii;
    arch        "LSB;label=32;scalar=64";
    class       volVectorField;
    location    "183";
    object      U;
}
// * * * * * * * * * * * * * * * * * * * * * * * * * * * * * * * * * * * * * //

dimensions      [0 1 -1 0 0 0 0];

internalField   nonuniform List<vector> 
4800
(
(0.000461403 3.37268e-07 -2.38669e-26)
(0.000453022 3.41187e-07 -1.64609e-25)
(0.000448129 3.26863e-07 2.12154e-25)
(0.000445489 2.95974e-07 9.36032e-26)
(0.000444412 2.56902e-07 1.35561e-24)
(0.000444606 2.08446e-07 -3.21428e-24)
(0.000445608 1.72056e-07 2.97962e-24)
(0.000447426 8.45289e-08 -4.27425e-24)
(0.000450071 -6.55898e-08 1.37981e-24)
(0.000453721 -3.03984e-07 4.62106e-24)
(0.000458742 -7.80061e-07 -1.42562e-24)
(0.000466422 -2.13034e-06 -1.24307e-25)
(0.000483916 -7.16714e-06 -1.72036e-24)
(0.000528418 -2.73893e-05 8.12991e-25)
(0.000600526 -8.72016e-05 -6.50107e-25)
(0.0014282 1.79272e-06 -7.57642e-26)
(0.00140322 1.266e-06 9.43556e-26)
(0.0013886 8.50938e-07 -8.41761e-25)
(0.00138063 4.86817e-07 6.35034e-25)
(0.00137725 1.38266e-07 1.95172e-24)
(0.00137755 -2.24565e-07 -3.0785e-24)
(0.00138006 -5.80436e-07 -8.55971e-25)
(0.00138498 -1.10364e-06 -1.83651e-25)
(0.00139217 -1.88294e-06 7.063e-24)
(0.00140214 -3.11078e-06 -5.19761e-24)
(0.00141594 -5.43329e-06 5.6545e-25)
(0.0014363 -1.10492e-05 8.55991e-25)
(0.00147188 -2.7428e-05 -1.26536e-24)
(0.00153269 -7.72102e-05 -3.94917e-25)
(0.00159678 -0.000187353 1.66873e-24)
(0.00249888 5.68499e-06 -5.4148e-26)
(0.00245672 3.97481e-06 5.5433e-26)
(0.00243196 2.65664e-06 5.51303e-25)
(0.00241832 1.53904e-06 -1.30266e-24)
(0.00241234 4.54169e-07 1.24829e-24)
(0.00241241 -6.30266e-07 1.13506e-24)
(0.00241599 -1.79483e-06 -2.98215e-24)
(0.00242348 -3.37848e-06 -1.82645e-24)
(0.0024345 -5.60422e-06 4.39385e-24)
(0.00244954 -9.03978e-06 1.63579e-24)
(0.00246981 -1.5135e-05 -5.69641e-24)
(0.00249742 -2.77645e-05 -8.55254e-25)
(0.00253634 -5.61473e-05 2.42584e-24)
(0.00258513 -0.000118678 3.83379e-24)
(0.00261932 -0.000220932 -1.98043e-24)
(0.0036802 1.25765e-05 2.00046e-26)
(0.00362055 8.83415e-06 -1.37987e-25)
(0.00358532 5.96018e-06 6.05193e-25)
(0.00356568 3.54355e-06 6.24887e-25)
(0.0035567 1.23184e-06 -6.41015e-25)
(0.00355602 -1.08883e-06 -3.51553e-24)
(0.00356005 -3.47464e-06 -2.33183e-24)
(0.00356925 -6.72334e-06 8.94693e-24)
(0.0035829 -1.11187e-05 3.65057e-24)
(0.00360108 -1.76128e-05 -5.28197e-24)
(0.00362444 -2.8243e-05 -2.11492e-24)
(0.00365338 -4.73906e-05 -1.60351e-24)
(0.00368718 -8.27066e-05 5.12112e-26)
(0.0037188 -0.000143494 1.18122e-24)
(0.00373089 -0.000223881 5.74626e-27)
(0.00497683 2.30642e-05 -3.67312e-26)
(0.00489997 1.62602e-05 -2.21749e-25)
(0.00485422 1.10492e-05 -1.32153e-25)
(0.00482835 6.70023e-06 3.75324e-25)
(0.00481594 2.5881e-06 -1.02479e-24)
(0.00481377 -1.46319e-06 2.51684e-24)
(0.00481762 -5.53384e-06 -4.45823e-25)
(0.00482747 -1.09426e-05 1.52652e-24)
(0.00484221 -1.7994e-05 -8.52612e-24)
(0.00486129 -2.7838e-05 1.60917e-23)
(0.00488445 -4.25997e-05 -1.55166e-23)
(0.00491044 -6.58498e-05 8.15041e-24)
(0.00493607 -0.00010216 -7.52347e-24)
(0.00495397 -0.000154237 7.06144e-24)
(0.00495449 -0.000214274 -2.80246e-24)
(0.00638971 3.7841e-05 4.86124e-26)
(0.00629707 2.67998e-05 1.71485e-25)
(0.00624136 1.83573e-05 -8.96206e-25)
(0.00620932 1.13638e-05 -5.42449e-25)
(0.00619325 4.85569e-06 1.48831e-24)
(0.00618881 -1.39463e-06 5.1853e-25)
(0.00619184 -7.76596e-06 -4.01635e-24)
(0.00620126 -1.56524e-05 9.55675e-24)
(0.00621547 -2.55308e-05 -1.23756e-23)
(0.00623337 -3.85261e-05 2.97865e-24)
(0.00625383 -5.63699e-05 8.9188e-24)
(0.00627467 -8.1224e-05 -1.23178e-23)
(0.0062923 -0.000114837 6.16512e-24)
(0.00630133 -0.000156573 6.22272e-24)
(0.00629751 -0.000200278 -4.72373e-24)
(0.00791396 5.74381e-05 4.03034e-26)
(0.00780887 4.09316e-05 -2.36165e-25)
(0.00774488 2.83023e-05 8.32074e-25)
(0.00770743 1.79032e-05 -1.14127e-24)
(0.00768786 8.3991e-06 -3.77369e-24)
(0.00768086 -5.64981e-07 6.42777e-24)
(0.00768234 -9.68483e-06 -3.8448e-24)
(0.00769035 -2.02686e-05 1.2944e-23)
(0.00770274 -3.28859e-05 -8.81298e-24)
(0.00771796 -4.84881e-05 -4.07562e-24)
(0.00773431 -6.81652e-05 -7.9168e-24)
(0.00774947 -9.27664e-05 7.29716e-24)
(0.00776056 -0.000122247 2.03638e-24)
(0.0077644 -0.000154861 1.711e-24)
(0.00775976 -0.000186595 -1.50266e-24)
(0.00953661 8.18475e-05 -5.82151e-26)
(0.00942525 5.87955e-05 7.82042e-25)
(0.00935645 4.1085e-05 -1.80006e-24)
(0.00931551 2.65472e-05 -1.41737e-24)
(0.0092934 1.34967e-05 5.73287e-25)
(0.00928419 1.31529e-06 1.06416e-24)
(0.00928384 -1.08328e-05 3.67754e-24)
(0.00928982 -2.41572e-05 -9.89433e-24)
(0.00929967 -3.92541e-05 -5.15835e-24)
(0.00931147 -5.67585e-05 1.44028e-23)
(0.0093234 -7.71456e-05 -4.38081e-24)
(0.00933343 -0.000100391 1.49598e-23)
(0.00933972 -0.000125683 -7.85578e-24)
(0.0093406 -0.000151324 -2.46244e-24)
(0.00933631 -0.000174947 1.45074e-24)
(0.0112356 0.00011 -7.68611e-27)
(0.0111275 7.98056e-05 4.32464e-25)
(0.0110597 5.63917e-05 -6.13422e-25)
(0.0110188 3.71516e-05 1.42592e-24)
(0.0109963 2.01314e-05 -8.38667e-24)
(0.0109862 4.4037e-06 8.82115e-24)
(0.0109845 -1.09131e-05 -1.36054e-23)
(0.0109886 -2.69006e-05 8.41444e-24)
(0.0109959 -4.40862e-05 6.16456e-24)
(0.0110044 -6.28068e-05 1.31513e-23)
(0.0110125 -8.31017e-05 -1.7141e-23)
(0.0110187 -0.000104545 -3.08742e-24)
(0.0110218 -0.000126223 1.49845e-24)
(0.0110211 -0.000146902 1.01408e-23)
(0.0110174 -0.000165287 -4.09554e-24)
(0.0129827 0.000139222 4.15303e-26)
(0.01289 0.000102179 -1.81087e-25)
(0.012831 7.29937e-05 7.99139e-25)
(0.0127953 4.88582e-05 -2.75962e-24)
(0.0127757 2.77046e-05 4.13795e-24)
(0.012767 8.36952e-06 -5.25795e-24)
(0.0127656 -1.00657e-05 8.7008e-24)
(0.0127688 -2.84891e-05 1.44646e-24)
(0.0127745 -4.73302e-05 -1.17863e-23)
(0.0127807 -6.67202e-05 1.65639e-23)
(0.0127862 -8.6488e-05 -1.81873e-23)
(0.01279 -0.000106149 -5.21971e-24)
(0.0127915 -0.000124991 9.30144e-24)
(0.0127903 -0.000142269 2.71373e-24)
(0.0127875 -0.000157338 -1.17751e-24)
(0.0147538 0.000165251 1.56931e-25)
(0.0146872 0.000122735 -1.39034e-24)
(0.0146447 8.84764e-05 -2.20257e-24)
(0.0146198 5.98064e-05 5.2493e-24)
(0.0146072 3.47546e-05 2.26886e-24)
(0.0146028 1.20635e-05 -1.42289e-23)
(0.0146038 -9.17707e-06 4.45073e-24)
(0.014608 -2.96514e-05 3.16218e-24)
(0.0146135 -4.96999e-05 -1.31252e-23)
(0.014619 -6.93673e-05 1.3799e-23)
(0.0146236 -8.84566e-05 -1.07e-23)
(0.0146266 -0.000106604 2.76109e-23)
(0.014628 -0.00012337 -1.31205e-23)
(0.0146274 -0.000138386 7.65392e-24)
(0.0146259 -0.00015139 -2.07154e-24)
(0.0165448 0.000183834 -4.4569e-26)
(0.0165076 0.000137776 9.08166e-25)
(0.0164853 9.97218e-05 -1.81602e-24)
(0.0164743 6.73931e-05 -9.0037e-25)
(0.0164713 3.90902e-05 1.0083e-23)
(0.0164734 1.36089e-05 -1.5519e-24)
(0.0164786 -9.88611e-06 -1.75711e-23)
(0.0164853 -3.18918e-05 2.02787e-23)
(0.0164924 -5.26983e-05 -4.60051e-24)
(0.0164987 -7.23641e-05 -1.54527e-23)
(0.016504 -9.07751e-05 1.63302e-23)
(0.0165077 -0.000107742 8.59001e-24)
(0.0165101 -0.000123066 -7.40154e-24)
(0.0165109 -0.000136628 -1.24931e-23)
(0.0165112 -0.00014838 1.03829e-24)
(0.0183788 0.000193862 -1.76659e-26)
(0.0183638 0.000145534 -9.63636e-25)
(0.018358 0.000104786 4.78365e-24)
(0.0183589 6.97249e-05 2.89734e-25)
(0.0183644 3.89485e-05 2.67191e-24)
(0.0183725 1.13505e-05 -9.71237e-24)
(0.0183819 -1.37668e-05 8.14911e-24)
(0.0183915 -3.67726e-05 1.75713e-24)
(0.0184005 -5.79552e-05 1.63157e-23)
(0.0184084 -7.74445e-05 -2.54171e-23)
(0.018415 -9.52508e-05 -1.13173e-23)
(0.0184201 -0.000111348 -7.31363e-24)
(0.0184241 -0.000125713 1.38941e-23)
(0.0184267 -0.000138378 -3.83549e-25)
(0.0184289 -0.000149412 1.31976e-24)
(0.020285 0.000198697 -2.71149e-26)
(0.0202799 0.000148168 8.94725e-25)
(0.0202817 0.000105049 -1.31101e-24)
(0.0202883 6.76843e-05 -5.51896e-27)
(0.0202977 3.48898e-05 1.92086e-24)
(0.0203084 5.5946e-06 4.8578e-24)
(0.0203196 -2.06706e-05 -1.87906e-23)
(0.0203304 -4.43478e-05 1.66721e-24)
(0.0203403 -6.574e-05 9.47745e-24)
(0.0203489 -8.50584e-05 -4.25395e-24)
(0.0203563 -0.000102439 1.1658e-23)
(0.0203623 -0.000117987 8.00561e-24)
(0.0203674 -0.000131796 -1.4572e-23)
(0.0203712 -0.000143985 9.82042e-24)
(0.0203748 -0.000154688 -8.14627e-24)
(0.022256 0.000202547 -7.33734e-25)
(0.0222534 0.000149703 7.17176e-25)
(0.0222563 0.000104214 1.37479e-24)
(0.022263 6.46691e-05 -8.19348e-24)
(0.0222717 2.99893e-05 7.30093e-24)
(0.0222814 -7.63588e-07 -5.47436e-24)
(0.0222914 -2.80726e-05 3.92376e-24)
(0.022301 -5.2401e-05 -2.77718e-23)
(0.0223099 -7.40921e-05 4.00714e-23)
(0.0223176 -9.34504e-05 -2.34049e-23)
(0.0223244 -0.000110718 2.08538e-23)
(0.0223301 -0.000126092 1.71853e-23)
(0.0223351 -0.000139747 -2.99919e-23)
(0.0223391 -0.00015185 9.70295e-24)
(0.022343 -0.000162567 -4.04502e-25)
(0.0242272 0.000206157 -2.57671e-26)
(0.0242268 0.000151693 6.65651e-25)
(0.0242299 0.00010433 -7.6839e-25)
(0.0242354 6.30187e-05 -2.09515e-25)
(0.0242422 2.67845e-05 2.69258e-24)
(0.0242497 -5.17021e-06 -4.73691e-24)
(0.0242574 -3.3436e-05 4.52633e-24)
(0.0242648 -5.84134e-05 -1.45365e-23)
(0.0242717 -8.05288e-05 3.31758e-23)
(0.0242778 -0.000100166 -4.24958e-23)
(0.0242831 -0.00011763 3.47643e-23)
(0.0242876 -0.000133178 -1.17254e-23)
(0.0242918 -0.000147027 5.95553e-25)
(0.0242951 -0.000159377 2.63614e-24)
(0.0242985 -0.000170406 -5.07868e-24)
(0.0260939 0.000207365 -2.16689e-24)
(0.0260976 0.000152614 4.98098e-24)
(0.0261026 0.000104452 -2.951e-24)
(0.0261084 6.21623e-05 -2.67662e-25)
(0.0261144 2.50053e-05 2.86728e-24)
(0.0261205 -7.71655e-06 -3.27269e-24)
(0.0261267 -3.65543e-05 -3.5863e-24)
(0.0261325 -6.19936e-05 -9.05499e-24)
(0.0261379 -8.45094e-05 4.30809e-24)
(0.0261425 -0.000104511 2.22032e-23)
(0.0261466 -0.000122327 -1.1802e-23)
(0.02615 -0.000138232 7.10256e-24)
(0.0261532 -0.000152466 -2.92077e-24)
(0.0261557 -0.000165239 -8.67239e-24)
(0.0261583 -0.000176739 4.43662e-24)
(0.0277315 0.000204222 7.30417e-25)
(0.0277398 0.000150594 -1.39789e-24)
(0.0277473 0.000102897 -2.38731e-24)
(0.0277543 6.06932e-05 5.19553e-24)
(0.0277606 2.33692e-05 -1.84348e-24)
(0.0277665 -9.59126e-06 1.27904e-24)
(0.0277721 -3.86403e-05 -2.1326e-24)
(0.0277772 -6.43114e-05 -2.40586e-24)
(0.0277818 -8.71176e-05 1.99412e-24)
(0.0277856 -0.000107469 -2.96262e-24)
(0.027789 -0.000125682 6.8053e-24)
(0.0277919 -0.000142025 3.68978e-24)
(0.0277945 -0.000156734 -1.3678e-23)
(0.0277967 -0.000170017 9.55496e-24)
(0.0277988 -0.000182057 -1.96849e-24)
(0.0289872 0.000196314 2.22619e-24)
(0.0289992 0.000145134 4.83068e-24)
(0.029009 9.90629e-05 -1.02951e-23)
(0.0290173 5.80749e-05 -3.81692e-24)
(0.029024 2.15473e-05 7.35222e-24)
(0.0290301 -1.09848e-05 2.63501e-24)
(0.0290358 -3.98274e-05 -1.01882e-24)
(0.0290409 -6.55024e-05 -2.87764e-24)
(0.0290454 -8.85e-05 1.89354e-24)
(0.0290492 -0.000109186 -5.36024e-24)
(0.0290525 -0.000127839 3.97711e-24)
(0.0290553 -0.000144705 -3.34768e-25)
(0.0290578 -0.000160001 -3.5859e-25)
(0.0290599 -0.000173923 5.12709e-25)
(0.0290618 -0.000186633 -2.45518e-25)
(0.0296549 0.000180997 -6.02737e-24)
(0.0296704 0.000133595 -1.51591e-23)
(0.0296829 9.04676e-05 5.12737e-24)
(0.0296927 5.16968e-05 3.25182e-23)
(0.0297007 1.7093e-05 -9.83818e-24)
(0.0297072 -1.38959e-05 -6.61393e-24)
(0.0297126 -4.16468e-05 4.34289e-24)
(0.0297167 -6.66323e-05 1.13751e-23)
(0.0297198 -8.92303e-05 -2.06807e-23)
(0.029722 -0.000109717 7.67386e-24)
(0.0297235 -0.000128316 -2.99585e-25)
(0.0297245 -0.000145247 1.87369e-24)
(0.029725 -0.000160703 1.94819e-25)
(0.0297252 -0.00017486 2.66982e-25)
(0.029725 -0.000187852 -3.28446e-25)
(0.0294961 0.000162132 9.8418e-24)
(0.0295142 0.000118849 -2.35264e-23)
(0.0295286 7.9264e-05 3.07294e-24)
(0.0295405 4.32203e-05 4.16733e-23)
(0.0295502 1.04885e-05 -4.31839e-23)
(0.0295576 -1.87018e-05 1.79312e-23)
(0.0295636 -4.49119e-05 2.00026e-23)
(0.0295682 -6.87028e-05 -4.71471e-23)
(0.0295717 -9.03836e-05 -1.30564e-24)
(0.0295742 -0.000110149 1.78078e-23)
(0.029576 -0.000128186 5.78885e-24)
(0.0295771 -0.000144689 -4.47826e-24)
(0.0295776 -0.000159828 3.9793e-24)
(0.0295777 -0.000173751 -1.61389e-24)
(0.0295772 -0.000186568 5.70677e-25)
(0.0285794 0.000140172 6.25111e-24)
(0.0285968 0.000101865 -1.35649e-23)
(0.0286099 6.6521e-05 -1.07646e-23)
(0.0286193 3.41005e-05 5.0499e-23)
(0.0286263 4.56508e-06 -4.9002e-23)
(0.0286321 -2.20815e-05 4.35466e-24)
(0.0286359 -4.63878e-05 9.11825e-24)
(0.0286381 -6.86801e-05 6.15887e-24)
(0.028639 -8.91156e-05 7.37502e-24)
(0.0286392 -0.000107847 -4.06783e-23)
(0.0286386 -0.000125047 2.55116e-23)
(0.0286373 -0.000140883 1.36706e-27)
(0.0286354 -0.000155486 1.59109e-23)
(0.0286329 -0.000168963 -7.44886e-24)
(0.0286299 -0.000181395 -1.76292e-24)
(0.0270599 0.000117448 1.57767e-23)
(0.0270798 8.43695e-05 -2.85384e-23)
(0.0270953 5.36132e-05 5.67966e-24)
(0.0271074 2.54014e-05 -1.62326e-23)
(0.0271166 -2.66184e-07 -2.33287e-23)
(0.0271235 -2.41788e-05 7.54902e-23)
(0.027128 -4.64296e-05 -3.10043e-23)
(0.0271307 -6.69668e-05 9.69315e-24)
(0.0271319 -8.58537e-05 -5.7826e-24)
(0.027132 -0.000103251 -1.78138e-23)
(0.0271309 -0.000119317 3.51974e-23)
(0.027129 -0.000134178 -2.18555e-23)
(0.0271261 -0.000147918 2.52483e-24)
(0.0271226 -0.000160609 4.27422e-24)
(0.0271182 -0.00017231 -5.53375e-25)
(0.0252197 9.67996e-05 6.12504e-24)
(0.0252401 6.81991e-05 -3.26857e-23)
(0.0252561 4.15233e-05 5.84182e-23)
(0.0252683 1.67354e-05 -4.60915e-23)
(0.0252774 -6.28991e-06 4.91813e-23)
(0.0252837 -2.77912e-05 -1.54296e-23)
(0.0252878 -4.77949e-05 -1.14162e-23)
(0.0252899 -6.62972e-05 -1.41713e-23)
(0.0252903 -8.33882e-05 2.82106e-23)
(0.0252893 -9.92044e-05 1.32526e-24)
(0.025287 -0.000113859 -2.98781e-23)
(0.0252835 -0.000127433 -4.95928e-24)
(0.0252789 -0.000139983 8.61098e-24)
(0.0252735 -0.000151558 -2.14446e-24)
(0.025267 -0.000162201 5.18117e-25)
(0.0232 7.72678e-05 8.1872e-25)
(0.0232199 5.2819e-05 -1.23684e-23)
(0.0232352 2.98047e-05 -7.65436e-24)
(0.0232465 8.24375e-06 6.02699e-23)
(0.0232545 -1.19171e-05 -6.08886e-23)
(0.0232597 -3.07164e-05 1.82052e-23)
(0.0232624 -4.82052e-05 3.27502e-24)
(0.023263 -6.44597e-05 -1.83774e-24)
(0.0232617 -7.95621e-05 -9.53249e-24)
(0.0232587 -9.35885e-05 4.33998e-23)
(0.0232542 -0.0001066 -3.54112e-23)
(0.0232484 -0.000118648 -2.14092e-24)
(0.0232412 -0.00012977 3.54172e-24)
(0.023233 -0.000140003 3.88292e-24)
(0.0232237 -0.000149373 -3.12041e-24)
(0.0211009 6.00676e-05 1.22058e-24)
(0.0211192 3.94745e-05 1.15492e-23)
(0.0211327 2.00145e-05 -1.31889e-23)
(0.0211423 1.73206e-06 -9.77329e-24)
(0.0211484 -1.54438e-05 6.43165e-23)
(0.0211516 -3.15006e-05 -4.91669e-23)
(0.0211522 -4.65045e-05 -8.65524e-25)
(0.0211505 -6.05228e-05 -1.13418e-23)
(0.0211467 -7.35925e-05 -1.23282e-24)
(0.021141 -8.57444e-05 1.52731e-24)
(0.0211337 -9.70128e-05 -7.97398e-24)
(0.0211249 -0.000107433 5.6676e-24)
(0.0211147 -0.000117031 1.8547e-24)
(0.0211032 -0.00012583 1.95693e-24)
(0.0210905 -0.000133843 3.06782e-24)
(0.0189919 4.59149e-05 8.69745e-24)
(0.0190077 2.89295e-05 -1.34631e-23)
(0.0190189 1.28297e-05 -1.1521e-23)
(0.0190261 -2.38569e-06 3.53135e-23)
(0.0190298 -1.67114e-05 -1.26124e-23)
(0.0190306 -3.01734e-05 -1.9163e-23)
(0.0190287 -4.28117e-05 6.54937e-24)
(0.0190243 -5.46494e-05 1.62955e-23)
(0.0190178 -6.56977e-05 -2.72595e-23)
(0.0190094 -7.59733e-05 2.82022e-23)
(0.0189992 -8.54985e-05 -1.59438e-23)
(0.0189874 -9.4295e-05 7.37826e-24)
(0.018974 -0.000102376 -1.10276e-23)
(0.0189593 -0.000109755 1.16015e-23)
(0.0189433 -0.000116437 -3.0889e-24)
(0.0169224 3.48469e-05 -1.68577e-24)
(0.0169354 2.11161e-05 -6.06968e-24)
(0.0169441 8.03943e-06 -1.99945e-23)
(0.0169489 -4.37237e-06 5.5953e-23)
(0.0169504 -1.61045e-05 -9.60911e-24)
(0.0169489 -2.71767e-05 -1.64942e-23)
(0.0169446 -3.76005e-05 6.26752e-24)
(0.016938 -4.73791e-05 -8.99058e-24)
(0.0169291 -5.65173e-05 -2.13229e-23)
(0.0169182 -6.50244e-05 2.04069e-23)
(0.0169055 -7.29103e-05 9.83495e-25)
(0.0168912 -8.01842e-05 -8.18152e-24)
(0.0168753 -8.68504e-05 9.26281e-24)
(0.016858 -9.29145e-05 7.44706e-25)
(0.0168394 -9.83779e-05 -9.10877e-25)
(0.0149278 2.64042e-05 6.47466e-24)
(0.0149385 1.55075e-05 9.97e-24)
(0.014945 5.09593e-06 -8.8875e-24)
(0.0149479 -4.82656e-06 -2.0843e-23)
(0.0149475 -1.42481e-05 2.89253e-23)
(0.0149441 -2.31719e-05 -3.26305e-23)
(0.0149381 -3.1595e-05 -1.9682e-24)
(0.0149298 -3.95138e-05 1.31589e-23)
(0.0149192 -4.69276e-05 4.84223e-24)
(0.0149065 -5.38368e-05 -1.12197e-23)
(0.0148921 -6.02417e-05 -8.42253e-25)
(0.0148759 -6.61439e-05 2.55753e-23)
(0.0148582 -7.15429e-05 -9.89003e-24)
(0.0148392 -7.64402e-05 -2.85102e-24)
(0.0148188 -8.08345e-05 -2.07499e-25)
(0.0130325 1.99814e-05 -6.7115e-24)
(0.0130412 1.15121e-05 8.68361e-24)
(0.0130461 3.39693e-06 1.07328e-24)
(0.0130475 -4.37225e-06 1.90621e-23)
(0.0130458 -1.17828e-05 -1.52473e-23)
(0.0130413 -1.88271e-05 1.57282e-24)
(0.0130342 -2.54954e-05 -1.48674e-24)
(0.0130248 -3.17795e-05 -5.28257e-24)
(0.0130132 -3.76733e-05 5.28418e-24)
(0.0129995 -4.31713e-05 -1.71651e-23)
(0.0129841 -4.82694e-05 6.4738e-25)
(0.012967 -5.29654e-05 4.11496e-24)
(0.0129483 -5.7256e-05 2.86391e-24)
(0.0129283 -6.11407e-05 1.25427e-24)
(0.0129069 -6.46159e-05 5.59206e-25)
(0.0112508 1.50537e-05 4.96107e-24)
(0.011258 8.62578e-06 -3.89438e-24)
(0.0112617 2.44677e-06 -1.81356e-23)
(0.0112622 -3.49857e-06 1.70537e-23)
(0.0112598 -9.19522e-06 2.52617e-23)
(0.0112547 -1.46293e-05 -5.76096e-24)
(0.0112471 -1.97879e-05 -1.32579e-23)
(0.0112373 -2.46603e-05 -2.02071e-23)
(0.0112253 -2.92375e-05 1.55598e-23)
(0.0112114 -3.3512e-05 1.1286e-24)
(0.0111956 -3.74782e-05 -3.90153e-24)
(0.0111783 -4.11319e-05 -1.27839e-24)
(0.0111594 -4.4469e-05 2.57592e-24)
(0.0111392 -4.74871e-05 -6.10763e-27)
(0.0111178 -5.01819e-05 -6.3339e-25)
(0.00958963 1.12305e-05 -3.11631e-24)
(0.00959576 6.47998e-06 -2.35549e-24)
(0.00959872 1.8955e-06 2.69467e-24)
(0.00959874 -2.52993e-06 -9.36325e-24)
(0.00959603 -6.79152e-06 3.09884e-23)
(0.0095908 -1.08709e-05 -4.23743e-23)
(0.00958324 -1.47534e-05 4.28643e-23)
(0.0095735 -1.84284e-05 -1.85186e-23)
(0.00956173 -2.18865e-05 4.63772e-24)
(0.00954811 -2.51202e-05 3.72377e-25)
(0.00953276 -2.81237e-05 -3.68333e-24)
(0.00951583 -3.08921e-05 1.67442e-24)
(0.00949745 -3.34213e-05 -3.36471e-24)
(0.00947779 -3.57081e-05 -5.42459e-25)
(0.00945694 -3.7748e-05 2.93939e-25)
(0.00805078 8.23404e-06 -1.51156e-24)
(0.00805606 4.83285e-06 3.59126e-25)
(0.00805854 1.54055e-06 8.53601e-25)
(0.00805836 -1.64927e-06 -4.23063e-24)
(0.00805571 -4.73565e-06 -2.10148e-24)
(0.00805074 -7.6992e-06 1.7315e-23)
(0.00804361 -1.05256e-05 -1.0304e-23)
(0.00803445 -1.32064e-05 1.60801e-24)
(0.00802341 -1.57337e-05 -1.52819e-24)
(0.00801062 -1.81006e-05 -1.82718e-24)
(0.0079962 -2.0302e-05 -6.77267e-25)
(0.00798031 -2.23332e-05 3.89716e-24)
(0.00796305 -2.41904e-05 1.36106e-24)
(0.00794458 -2.58702e-05 -2.6429e-24)
(0.00792499 -2.73686e-05 -4.86171e-25)
(0.00663255 5.87284e-06 -5.48779e-25)
(0.00663717 3.53035e-06 -1.9928e-25)
(0.00663936 1.25726e-06 -9.30667e-24)
(0.0066392 -9.49939e-07 2.24706e-24)
(0.00663685 -3.09554e-06 -7.30767e-24)
(0.00663243 -5.16228e-06 4.60063e-24)
(0.00662605 -7.13605e-06 9.62445e-24)
(0.00661785 -9.01239e-06 7.77033e-24)
(0.00660793 -1.07847e-05 -1.11982e-23)
(0.00659641 -1.24477e-05 3.38972e-24)
(0.00658341 -1.3997e-05 3.23523e-24)
(0.00656905 -1.54286e-05 -5.03915e-24)
(0.00655345 -1.67393e-05 2.71144e-24)
(0.00653672 -1.79259e-05 -3.57378e-25)
(0.00651898 -1.89849e-05 9.06564e-25)
(0.00533128 4.01549e-06 -2.14609e-24)
(0.00533531 2.47984e-06 -3.06048e-24)
(0.0053373 9.87662e-07 -6.92774e-25)
(0.0053373 -4.5764e-07 7.71542e-24)
(0.0053354 -1.87191e-06 -5.69106e-24)
(0.00533171 -3.23892e-06 -1.28167e-24)
(0.00532632 -4.54498e-06 9.68973e-24)
(0.00531933 -5.78996e-06 2.05089e-25)
(0.00531082 -6.96856e-06 -1.96596e-24)
(0.00530092 -8.07683e-06 -8.2882e-24)
(0.0052897 -9.11146e-06 6.11125e-25)
(0.00527727 -1.00692e-05 6.28245e-24)
(0.00526374 -1.09478e-05 -8.29256e-25)
(0.00524922 -1.17442e-05 -1.14221e-24)
(0.00523378 -1.24556e-05 7.93021e-25)
(0.00414199 2.57296e-06 -4.68383e-25)
(0.00414546 1.63198e-06 1.74915e-26)
(0.00414727 7.20032e-07 3.6617e-24)
(0.00414746 -1.59014e-07 2.60226e-24)
(0.00414609 -1.0228e-06 -1.61571e-24)
(0.00414321 -1.8651e-06 -4.42958e-24)
(0.00413893 -2.66818e-06 1.90881e-24)
(0.0041333 -3.43611e-06 -8.29289e-24)
(0.0041264 -4.16515e-06 6.43716e-24)
(0.00411831 -4.85238e-06 3.64433e-24)
(0.00410912 -5.49536e-06 2.19234e-25)
(0.0040989 -6.09173e-06 -4.29225e-24)
(0.00408774 -6.63979e-06 8.71637e-25)
(0.00407572 -7.13732e-06 -7.60139e-25)
(0.00406294 -7.58187e-06 4.06708e-25)
(0.00305894 1.48353e-06 -8.61299e-25)
(0.00306181 9.59077e-07 -1.57866e-27)
(0.0030634 4.57941e-07 2.91847e-24)
(0.00306373 -2.18063e-08 -1.82124e-24)
(0.00306288 -4.95555e-07 7.93839e-24)
(0.00306082 -9.61938e-07 -1.47343e-23)
(0.00305767 -1.40495e-06 1.24118e-23)
(0.00305345 -1.8293e-06 -1.0728e-23)
(0.00304822 -2.23337e-06 8.01323e-24)
(0.00304206 -2.61502e-06 -5.39378e-24)
(0.003035 -2.97242e-06 1.89495e-24)
(0.00302713 -3.304e-06 2.94894e-25)
(0.0030185 -3.60879e-06 5.66339e-25)
(0.00300918 -3.88517e-06 -7.23578e-25)
(0.00299923 -4.1314e-06 1.67665e-25)
(0.0020759 7.07664e-07 1.30541e-24)
(0.00207808 4.51497e-07 1.47142e-24)
(0.00207936 2.18186e-07 -6.24552e-24)
(0.00207975 -6.48131e-10 4.61309e-24)
(0.0020793 -2.21171e-07 -1.42156e-26)
(0.002078 -4.35783e-07 1.32851e-24)
(0.00207592 -6.38793e-07 -1.54763e-24)
(0.00207306 -8.32155e-07 -3.51425e-24)
(0.00206949 -1.01462e-06 3.56869e-24)
(0.00206523 -1.18663e-06 4.61257e-25)
(0.00206032 -1.34752e-06 -3.20645e-24)
(0.00205482 -1.49662e-06 1.13896e-24)
(0.00204876 -1.63367e-06 7.84381e-25)
(0.00204219 -1.75788e-06 -8.44002e-26)
(0.00203516 -1.86701e-06 -1.12529e-25)
(0.00118634 2.41211e-07 -1.31591e-24)
(0.00118771 1.52922e-07 4.08322e-24)
(0.00118856 8.53944e-08 2.57502e-24)
(0.00118888 2.19466e-08 -4.47434e-24)
(0.00118871 -4.45231e-08 -5.31278e-25)
(0.00118803 -1.09413e-07 -5.01972e-25)
(0.00118689 -1.72227e-07 1.60941e-24)
(0.00118529 -2.32465e-07 -2.77546e-24)
(0.00118325 -2.83729e-07 3.96541e-24)
(0.0011808 -3.33143e-07 -1.93434e-24)
(0.00117796 -3.82664e-07 -1.39052e-24)
(0.00117475 -4.32288e-07 8.81794e-25)
(0.0011712 -4.82295e-07 -1.21971e-24)
(0.00116734 -5.3265e-07 1.27715e-24)
(0.0011632 -5.77691e-07 -2.43493e-25)
(0.000383632 8.48492e-08 -9.38567e-27)
(0.000384064 1.42267e-07 7.98095e-25)
(0.000384333 1.92444e-07 9.53515e-25)
(0.000384435 2.26386e-07 -1.4594e-24)
(0.000384381 2.45848e-07 3.21394e-24)
(0.000384168 2.51961e-07 -3.47651e-24)
(0.0003838 2.46212e-07 2.43867e-25)
(0.000383282 2.30497e-07 2.13128e-24)
(0.000382618 2.1071e-07 -2.95596e-24)
(0.000381815 1.82907e-07 -6.13419e-25)
(0.000380879 1.46523e-07 2.2944e-24)
(0.000379819 1.02513e-07 -1.03891e-24)
(0.000378642 5.16202e-08 -4.5681e-25)
(0.000377358 -5.38845e-09 3.92624e-25)
(0.000375975 -6.39844e-08 -2.01209e-26)
(0.000888163 -0.000216271 6.43309e-26)
(0.00102065 -0.000124013 1.5468e-24)
(0.00124504 -3.07878e-05 -4.30083e-24)
(0.00147598 4.55686e-05 5.95792e-24)
(0.00170029 0.000106964 -2.23024e-24)
(0.00192264 0.000154027 -1.94799e-24)
(0.00214289 0.000188913 2.13426e-24)
(0.00236149 0.00021337 -4.05586e-24)
(0.00257893 0.000228832 2.9979e-25)
(0.00279553 0.00023652 2.49502e-24)
(0.00301161 0.000237505 -4.74839e-25)
(0.00322751 0.000232735 5.1813e-25)
(0.00344368 0.000223028 -4.67212e-26)
(0.0036607 0.000209097 3.42511e-25)
(0.00387933 0.000191585 -1.25738e-24)
(0.00410055 0.000171167 6.93695e-25)
(0.00432586 0.000148616 -2.18711e-25)
(0.00455721 0.000124974 1.92551e-26)
(0.00479783 0.000101288 4.90194e-25)
(0.00505165 7.85898e-05 -3.02345e-25)
(0.00532393 5.64282e-05 3.29697e-26)
(0.00561843 3.20871e-05 -2.77501e-26)
(0.00591117 8.8439e-07 4.49794e-26)
(0.00616548 -3.93532e-05 1.48677e-25)
(0.00637028 -8.7794e-05 -2.66343e-25)
(0.00652661 -0.000142791 -1.10583e-25)
(0.0066373 -0.000202215 7.63698e-26)
(0.00670581 -0.000264408 1.29003e-25)
(0.00673495 -0.000327784 -4.1746e-25)
(0.00672653 -0.000390479 9.40237e-25)
(0.00668185 -0.00045007 -2.47967e-24)
(0.00660168 -0.000502761 3.57671e-24)
(0.00648654 -0.000543703 -1.55895e-24)
(0.00633724 -0.000566955 -3.3056e-24)
(0.00615487 -0.000565578 3.29057e-24)
(0.00594093 -0.000531645 1.30893e-23)
(0.00569717 -0.000455982 -4.72144e-24)
(0.0054257 -0.00032743 1.94817e-24)
(0.00512908 -0.000131442 5.99839e-25)
(0.00481089 0.000151393 -1.48426e-23)
(0.00447448 0.000543038 -1.70834e-25)
(0.00412376 0.00105508 5.5231e-24)
(0.00374093 0.00164598 1.47942e-24)
(0.00334409 0.00216018 -7.47434e-24)
(0.00311708 0.00217365 -3.49917e-25)
(0.00168504 -0.000295916 -1.842e-24)
(0.00174198 -0.000239473 -2.40109e-24)
(0.00188373 -0.000149913 5.13829e-24)
(0.00206181 -6.70833e-05 2.14028e-24)
(0.00225274 3.95787e-06 -7.44838e-24)
(0.00245178 6.09528e-05 7.63422e-24)
(0.0026549 0.000105012 -2.69365e-24)
(0.00286026 0.000137751 1.98138e-24)
(0.00306706 0.000160643 -2.63131e-24)
(0.00327487 0.000174992 3.09355e-26)
(0.00348356 0.000181951 -1.38088e-24)
(0.00369315 0.000182531 2.75239e-24)
(0.00390385 0.000177601 -1.54229e-24)
(0.00411601 0.00016792 -1.44699e-24)
(0.00433025 0.000154172 -1.00984e-24)
(0.0045473 0.000137057 1.85661e-24)
(0.00476842 0.000117364 -2.27483e-25)
(0.00499519 9.61211e-05 9.8096e-25)
(0.00523041 7.4358e-05 1.34981e-25)
(0.00547737 5.31051e-05 -2.84963e-25)
(0.00574069 3.20127e-05 -1.08287e-25)
(0.00602357 8.67616e-06 -5.4568e-26)
(0.00630324 -2.11124e-05 2.4569e-25)
(0.0065455 -5.91633e-05 2.38223e-25)
(0.00674044 -0.000104613 -2.74025e-25)
(0.00688923 -0.000155932 -7.95507e-25)
(0.00699451 -0.000211082 8.35599e-25)
(0.00705955 -0.000268392 -2.57535e-25)
(0.00708695 -0.000326157 5.63845e-26)
(0.00707849 -0.000382389 3.85211e-25)
(0.00703555 -0.000434569 -4.04784e-24)
(0.00695911 -0.00047882 8.27426e-24)
(0.00685002 -0.000510284 -8.39474e-24)
(0.00670955 -0.000523074 1.91619e-23)
(0.00653949 -0.000510342 -2.61403e-23)
(0.00634227 -0.000464284 6.64725e-24)
(0.00612108 -0.000375913 2.12379e-23)
(0.00588016 -0.000234451 -6.75194e-24)
(0.00562549 -2.615e-05 -1.52299e-23)
(0.00536648 0.000267099 -8.17481e-24)
(0.00511738 0.000666378 1.85993e-23)
(0.00490227 0.00118425 -1.71018e-23)
(0.00474047 0.00178141 -3.16697e-24)
(0.00468024 0.00229182 1.01355e-23)
(0.00472764 0.00225911 2.97071e-24)
(0.00263466 -0.000304827 -2.06033e-26)
(0.00264472 -0.000290129 -2.82077e-24)
(0.00270863 -0.0002329 5.36985e-24)
(0.00282382 -0.00016079 4.08566e-24)
(0.00296707 -9.06719e-05 -6.82433e-24)
(0.00312955 -2.96259e-05 1.57278e-25)
(0.00330434 2.04124e-05 5.98909e-25)
(0.00348721 5.97081e-05 6.1378e-24)
(0.00367569 8.91242e-05 -7.2499e-24)
(0.00386826 0.000109694 4.3914e-24)
(0.00406405 0.000122458 1.35091e-24)
(0.00426256 0.000128382 -7.40324e-24)
(0.00446361 0.000128324 2.67988e-24)
(0.00466725 0.000123048 1.10728e-24)
(0.0048738 0.000113256 -2.37157e-24)
(0.00508374 9.96614e-05 3.88366e-24)
(0.005298 8.3056e-05 -2.75086e-24)
(0.00551778 6.44495e-05 -3.88978e-26)
(0.00574532 4.48481e-05 2.28407e-25)
(0.00598328 2.52769e-05 2.27973e-25)
(0.00623553 5.48662e-06 3.81934e-26)
(0.0065046 -1.66233e-05 1.07928e-25)
(0.00676897 -4.47989e-05 -2.40332e-25)
(0.00699708 -8.04949e-05 6.70672e-25)
(0.00718026 -0.0001228 -9.17755e-25)
(0.00731981 -0.000170278 5.01937e-25)
(0.00741824 -0.000220981 -4.74509e-25)
(0.0074786 -0.000273209 5.71514e-25)
(0.00750325 -0.000325145 7.65178e-25)
(0.00749403 -0.00037468 1.15544e-24)
(0.00745239 -0.000419208 2.18012e-24)
(0.00737952 -0.00045478 -9.57575e-24)
(0.00727663 -0.000476567 3.84468e-24)
(0.00714548 -0.000478805 9.80928e-24)
(0.0069886 -0.00045487 -2.20092e-23)
(0.00680941 -0.000397307 3.14748e-23)
(0.00661254 -0.000297721 -2.00494e-23)
(0.00640436 -0.000146412 2.48616e-23)
(0.00619395 6.82381e-05 -4.61294e-23)
(0.00599542 0.000360346 1.72521e-23)
(0.00583043 0.000744516 5.62582e-24)
(0.00573289 0.00122489 8.16454e-24)
(0.00573311 0.00175639 -1.01282e-23)
(0.00586784 0.00218541 2.58215e-24)
(0.00604162 0.00215128 -1.53394e-24)
(0.00372021 -0.000289744 -7.59654e-25)
(0.00370477 -0.000300524 -1.102e-24)
(0.00371844 -0.000274688 -4.58218e-24)
(0.00377318 -0.000225481 1.48187e-24)
(0.00386379 -0.000166565 9.58905e-25)
(0.00398091 -0.00010925 3.34073e-24)
(0.00411774 -5.84934e-05 -6.49764e-24)
(0.00426897 -1.60631e-05 2.56426e-24)
(0.00443084 1.76815e-05 7.96647e-24)
(0.0046008 4.30729e-05 -2.11503e-24)
(0.00477715 6.07669e-05 -1.96719e-24)
(0.00495876 7.15111e-05 -3.17145e-25)
(0.00514495 7.60358e-05 1.07134e-24)
(0.00533539 7.50393e-05 -2.12638e-24)
(0.00553004 6.9195e-05 4.82423e-25)
(0.00572903 5.91947e-05 -1.90938e-25)
(0.00593294 4.58148e-05 -1.0752e-24)
(0.00614249 3.00286e-05 4.28739e-25)
(0.00635941 1.28087e-05 1.80533e-24)
(0.00658557 -4.83704e-06 -2.35568e-25)
(0.00682407 -2.30638e-05 -3.74369e-25)
(0.00707664 -4.3683e-05 -8.72286e-26)
(0.00732308 -6.99969e-05 -4.18344e-25)
(0.00753457 -0.000103122 4.20327e-26)
(0.00770379 -0.000142089 -6.57967e-25)
(0.00783213 -0.00018553 1.29864e-24)
(0.00792194 -0.000231587 -4.46958e-25)
(0.00797614 -0.000278521 4.99937e-25)
(0.00799681 -0.000324409 6.7713e-25)
(0.00798593 -0.00036705 2.91348e-25)
(0.00794499 -0.000403758 -1.55389e-24)
(0.00787538 -0.000430559 -3.31403e-25)
(0.00777867 -0.000442723 -3.6628e-25)
(0.00765719 -0.000434728 -2.46453e-24)
(0.00751414 -0.000400347 4.04782e-24)
(0.00735393 -0.000332762 -9.17777e-24)
(0.00718249 -0.00022461 3.97875e-23)
(0.00700789 -6.79577e-05 -2.14288e-23)
(0.00684139 0.000145614 -1.29808e-24)
(0.00669941 0.000424594 -3.88055e-23)
(0.00660529 0.000774665 2.9051e-23)
(0.00659146 0.00118988 -9.79589e-24)
(0.00668489 0.00162586 2.66435e-24)