/*--------------------------------*- C++ -*----------------------------------*\
| =========                 |                                                 |
| \\      /  F ield         | OpenFOAM: The Open Source CFD Toolbox           |
|  \\    /   O peration     | Version:  2312                                  |
|   \\  /    A nd           | Website:  www.openfoam.com                      |
|    \\/     M anipulation  |                                                 |
\*---------------------------------------------------------------------------*/
FoamFile
{
    version     2.0;
    format      ascii;
    arch        "LSB;label=32;scalar=64";
    class       surfaceScalarField;
    location    "75.5";
    object      phi;
}
// * * * * * * * * * * * * * * * * * * * * * * * * * * * * * * * * * * * * * //

dimensions      [0 3 -1 0 0 0 0];

oriented        oriented;

internalField   nonuniform List<scalar> 
9445
(
6.19997e-10
1.46676e-11
6.10157e-10
9.84057e-12
6.03624e-10
6.53307e-12
5.99526e-10
4.09804e-12
5.97321e-10
2.20474e-12
5.96695e-10
6.25848e-13
5.97501e-10
-8.06088e-13
5.99784e-10
-2.28329e-12
6.03527e-10
-3.74289e-12
6.09198e-10
-5.67042e-12
6.17974e-10
-8.77653e-12
6.33509e-10
-1.5535e-11
6.68826e-10
-3.53166e-11
7.70525e-10
-1.01699e-10
-2.68264e-10
1.03879e-09
2.15889e-09
6.56594e-11
2.12414e-09
4.45924e-11
2.10058e-09
3.00913e-11
2.08525e-09
1.94244e-11
2.07632e-09
1.11411e-11
2.07266e-09
4.28617e-12
2.0737e-09
-1.85185e-12
2.07936e-09
-7.94532e-12
2.08976e-09
-1.41401e-11
2.10621e-09
-2.21214e-11
2.13169e-09
-3.42515e-11
2.17327e-09
-5.71175e-11
2.245e-09
-1.07043e-10
2.36094e-09
-2.17645e-10
-3.92506e-10
2.48518e-09
4.25145e-09
1.65002e-10
4.18291e-09
1.13131e-10
4.13569e-09
7.73175e-11
4.10413e-09
5.09806e-11
4.08469e-09
3.05861e-11
4.07515e-09
1.38188e-11
4.0743e-09
-9.93791e-13
4.08165e-09
-1.52991e-11
4.09725e-09
-2.97454e-11
4.12278e-09
-4.76433e-11
4.16107e-09
-7.25485e-11
4.21692e-09
-1.12964e-10
4.29329e-09
-1.83416e-10
4.3761e-09
-3.0045e-10
-4.42288e-10
4.42588e-09
7.04711e-09
3.26174e-10
6.93439e-09
2.25854e-10
6.8554e-09
1.56308e-10
6.80124e-09
1.05135e-10
6.76623e-09
6.56012e-11
6.74667e-09
3.33785e-11
6.74047e-09
5.20797e-12
6.7464e-09
-2.12275e-11
6.76378e-09
-4.71308e-11
6.79379e-09
-7.76511e-11
6.83735e-09
-1.16113e-10
6.89396e-09
-1.69575e-10
6.95682e-09
-2.46272e-10
7.00473e-09
-3.48357e-10
-4.50128e-10
7.01256e-09
1.07262e-08
5.62524e-10
1.05582e-08
3.93839e-10
1.04383e-08
2.7618e-10
1.0354e-08
1.89418e-10
1.02971e-08
1.22489e-10
1.02621e-08
6.83841e-11
1.02456e-08
2.17703e-11
1.02451e-08
-2.0782e-11
1.02592e-08
-6.12067e-11
1.02869e-08
-1.05357e-10
1.03266e-08
-1.5576e-10
1.03731e-08
-2.16115e-10
1.04154e-08
-2.88524e-10
1.04351e-08
-3.68129e-10
-4.35616e-10
1.04206e-08
1.55009e-08
8.83826e-10
1.5268e-08
6.26788e-10
1.50984e-08
4.45793e-10
1.49761e-08
3.1173e-10
1.48902e-08
2.08322e-10
1.48333e-08
1.25272e-10
1.48002e-08
5.49195e-11
1.4787e-08
-7.53572e-12
1.47908e-08
-6.50752e-11
1.48083e-08
-1.22821e-10
1.4835e-08
-1.8249e-10
1.48637e-08
-2.44824e-10
1.48834e-08
-3.08241e-10
1.48822e-08
-3.66854e-10
-4.0966e-10
1.48562e-08
2.16127e-08
1.29018e-09
2.13104e-08
9.29059e-10
2.10851e-08
6.71105e-10
2.09183e-08
4.78521e-10
2.0797e-08
3.29657e-10
2.07117e-08
2.10605e-10
2.06552e-08
1.11348e-10
2.06222e-08
2.55123e-11
2.06079e-08
-5.08124e-11
2.06069e-08
-1.21845e-10
2.06131e-08
-1.88622e-10
2.06187e-08
-2.50501e-10
2.06156e-08
-3.05113e-10
2.05973e-08
-3.4851e-10
-3.76026e-10
2.05636e-08
2.93226e-08
1.76321e-09
2.89583e-08
1.29343e-09
2.86787e-08
9.50673e-10
2.84657e-08
6.91495e-10
2.83053e-08
4.90059e-10
2.81867e-08
3.29185e-10
2.81014e-08
1.96722e-10
2.80421e-08
8.47661e-11
2.80026e-08
-1.12818e-11
2.79761e-08
-9.54086e-11
2.79559e-08
-1.68417e-10
2.79354e-08
-2.29979e-10
2.79092e-08
-2.78851e-10
2.78744e-08
-3.13713e-10
-3.3378e-10
2.78321e-08
3.88979e-08
2.25765e-09
3.84975e-08
1.6938e-09
3.81784e-08
1.26975e-09
3.7927e-08
9.42911e-10
3.77307e-08
6.86336e-10
3.75789e-08
4.80964e-10
3.74625e-08
3.13171e-10
3.73733e-08
1.73944e-10
3.73043e-08
5.77588e-11
3.72481e-08
-3.92078e-11
3.71986e-08
-1.18916e-10
3.71507e-08
-1.82074e-10
3.71011e-08
-2.29322e-10
3.7049e-08
-2.61573e-10
-2.80176e-10
3.69954e-08
5.0603e-08
2.7018e-09
5.02149e-08
2.0819e-09
4.98887e-08
1.59597e-09
4.96203e-08
1.21128e-09
4.94021e-08
9.04591e-10
4.92255e-08
6.57504e-10
4.90825e-08
4.56148e-10
4.89655e-08
2.91001e-10
4.88674e-08
1.55841e-10
4.87819e-08
4.62618e-11
4.8704e-08
-4.09464e-11
4.86301e-08
-1.08186e-10
4.85584e-08
-1.57662e-10
4.84887e-08
-1.91844e-10
-2.13181e-10
4.84217e-08
6.47222e-08
3.01917e-09
6.44067e-08
2.39747e-09
6.41191e-08
1.8835e-09
6.3868e-08
1.4624e-09
6.3653e-08
1.1196e-09
6.347e-08
8.40494e-10
6.33137e-08
6.12482e-10
6.31783e-08
4.26342e-10
6.30587e-08
2.7548e-10
6.29503e-08
1.5469e-10
6.28496e-08
5.96792e-11
6.27547e-08
-1.3221e-11
6.26646e-08
-6.7602e-11
6.25794e-08
-1.06572e-10
-1.33159e-10
6.24993e-08
8.16363e-08
3.16893e-09
8.1436e-08
2.59777e-09
8.12271e-08
2.09239e-09
8.10274e-08
1.66204e-09
8.08441e-08
1.30297e-09
8.06777e-08
1.00684e-09
8.05268e-08
7.63434e-10
8.03886e-08
5.64465e-10
8.02607e-08
4.0338e-10
8.01409e-08
2.74534e-10
8.00276e-08
1.72962e-10
7.99202e-08
9.4163e-11
7.98185e-08
3.41574e-11
7.97226e-08
-1.0706e-11
-4.34338e-11
7.96329e-08
1.01903e-07
3.17206e-09
1.01827e-07
2.67359e-09
1.01705e-07
2.2144e-09
1.0157e-07
1.79727e-09
1.01433e-07
1.4399e-09
1.01298e-07
1.14173e-09
1.01167e-07
8.9478e-10
1.01039e-07
6.91873e-10
1.00916e-07
5.26838e-10
1.00796e-07
3.94011e-10
1.00681e-07
2.88262e-10
1.0057e-07
2.04914e-10
1.00464e-07
1.39923e-10
1.00364e-07
8.96522e-11
5.11329e-11
1.0027e-07
1.26259e-07
3.12032e-09
1.26263e-07
2.66964e-09
1.26217e-07
2.2604e-09
1.26135e-07
1.87953e-09
1.26037e-07
1.53753e-09
1.25931e-07
1.24799e-09
1.2582e-07
1.00612e-09
1.25706e-07
8.05904e-10
1.25591e-07
6.41733e-10
1.25476e-07
5.08287e-10
1.25364e-07
4.00673e-10
1.25255e-07
3.14412e-10
1.25149e-07
2.45652e-10
1.25048e-07
1.90984e-10
1.47639e-10
1.24951e-07
1.55464e-07
3.04529e-09
1.55493e-07
2.64107e-09
1.55484e-07
2.26893e-09
1.55437e-07
1.92699e-09
1.55362e-07
1.61234e-09
1.55272e-07
1.33806e-09
1.55172e-07
1.10642e-09
1.55065e-07
9.12777e-10
1.54954e-07
7.52295e-10
1.54842e-07
6.20251e-10
1.54731e-07
5.12256e-10
1.54621e-07
4.24244e-10
1.54514e-07
3.52705e-10
1.5441e-07
2.94546e-10
2.47251e-10
1.54311e-07
1.90009e-07
2.94005e-09
1.90052e-07
2.59846e-09
1.90058e-07
2.26277e-09
1.9003e-07
1.9554e-09
1.89969e-07
1.6732e-09
1.89887e-07
1.41972e-09
1.89792e-07
1.20158e-09
1.89688e-07
1.01706e-09
1.89578e-07
8.62298e-10
1.89465e-07
7.33236e-10
1.89351e-07
6.26095e-10
1.89238e-07
5.3735e-10
1.89126e-07
4.63926e-10
1.89018e-07
4.03097e-10
3.52622e-10
1.88913e-07
2.30018e-07
2.79576e-09
2.3008e-07
2.53712e-09
2.30098e-07
2.24411e-09
2.30085e-07
1.96905e-09
2.30039e-07
1.71923e-09
2.29966e-07
1.49245e-09
2.29877e-07
1.29093e-09
2.29776e-07
1.11801e-09
2.29667e-07
9.71036e-10
2.29553e-07
8.46796e-10
2.29437e-07
7.42095e-10
2.29321e-07
6.53959e-10
2.29205e-07
5.79805e-10
2.29091e-07
5.17317e-10
4.6456e-10
2.28979e-07
2.75041e-07
2.62744e-09
2.75138e-07
2.44042e-09
2.7517e-07
2.21178e-09
2.7517e-07
1.96955e-09
2.7514e-07
1.74859e-09
2.75082e-07
1.55034e-09
2.75002e-07
1.37115e-09
2.74908e-07
1.21239e-09
2.74803e-07
1.0755e-09
2.74692e-07
9.5809e-10
2.74576e-07
8.57685e-10
2.74459e-07
7.71828e-10
2.7434e-07
6.98404e-10
2.74222e-07
6.35511e-10
5.81572e-10
2.74105e-07
3.23535e-07
2.44425e-09
3.23666e-07
2.30918e-09
3.23741e-07
2.13663e-09
3.23767e-07
1.94412e-09
3.23762e-07
1.75359e-09
3.23731e-07
1.58062e-09
3.23675e-07
1.42703e-09
3.23599e-07
1.28904e-09
3.23508e-07
1.16644e-09
3.23407e-07
1.05918e-09
3.23299e-07
9.65805e-10
3.23186e-07
8.84631e-10
3.2307e-07
8.14068e-10
3.22953e-07
7.52594e-10
6.98846e-10
3.22836e-07
3.72326e-07
2.20792e-09
3.72507e-07
2.12813e-09
3.72639e-07
2.00399e-09
3.72717e-07
1.86625e-09
3.72752e-07
1.71875e-09
3.72755e-07
1.57799e-09
3.72733e-07
1.44885e-09
3.72688e-07
1.33371e-09
3.72625e-07
1.22956e-09
3.72549e-07
1.13575e-09
3.72462e-07
1.05247e-09
3.72368e-07
9.78672e-10
3.72269e-07
9.13316e-10
3.72166e-07
8.55242e-10
8.03516e-10
3.72061e-07
3.69577e-07
1.99474e-09
3.69752e-07
1.95295e-09
3.69886e-07
1.87e-09
3.69983e-07
1.76883e-09
3.70042e-07
1.65976e-09
3.70071e-07
1.54952e-09
3.70076e-07
1.44418e-09
3.7006e-07
1.34922e-09
3.70027e-07
1.26271e-09
3.6998e-07
1.18288e-09
3.69922e-07
1.11051e-09
3.69855e-07
1.04501e-09
3.69783e-07
9.85646e-10
3.69707e-07
9.31668e-10
8.82423e-10
3.69628e-07
3.16107e-07
1.76186e-09
3.16313e-07
1.74762e-09
3.16486e-07
1.69659e-09
3.16628e-07
1.62637e-09
3.16741e-07
1.54737e-09
3.16825e-07
1.4656e-09
3.16883e-07
1.38587e-09
3.16921e-07
1.31102e-09
3.16943e-07
1.24112e-09
3.1695e-07
1.1759e-09
3.16945e-07
1.11538e-09
3.16931e-07
1.05933e-09
3.16909e-07
1.00732e-09
3.16882e-07
9.58833e-10
9.13401e-10
3.16851e-07
2.6433e-07
1.57408e-09
2.64505e-07
1.57284e-09
2.64661e-07
1.5404e-09
2.64797e-07
1.49086e-09
2.64911e-07
1.43284e-09
2.65006e-07
1.37151e-09
2.65081e-07
1.31012e-09
2.65142e-07
1.25062e-09
2.65189e-07
1.19382e-09
2.65225e-07
1.13984e-09
2.65252e-07
1.08863e-09
2.65271e-07
1.04007e-09
2.65284e-07
9.93918e-10
2.65293e-07
9.49837e-10
9.07484e-10
2.65299e-07
2.1732e-07
1.40081e-09
2.17488e-07
1.40523e-09
2.17643e-07
1.38484e-09
2.17784e-07
1.35014e-09
2.17909e-07
1.30774e-09
2.18019e-07
1.26161e-09
2.18115e-07
1.2142e-09
2.18198e-07
1.16702e-09
2.18271e-07
1.12087e-09
2.18335e-07
1.07603e-09
2.18391e-07
1.03251e-09
2.18441e-07
9.90239e-10
2.18486e-07
9.4907e-10
2.18527e-07
9.088e-10
8.69215e-10
2.18565e-07
1.76144e-07
1.22912e-09
1.76314e-07
1.23524e-09
1.76476e-07
1.22256e-09
1.76628e-07
1.19834e-09
1.76769e-07
1.16744e-09
1.76897e-07
1.13279e-09
1.77015e-07
1.09624e-09
1.77123e-07
1.05894e-09
1.77223e-07
1.02152e-09
1.77315e-07
9.84264e-10
1.774e-07
9.47217e-10
1.7748e-07
9.10359e-10
1.77555e-07
8.73615e-10
1.77627e-07
8.36879e-10
8.00025e-10
1.77696e-07
1.41059e-07
1.0534e-09
1.41235e-07
1.05961e-09
1.41405e-07
1.05195e-09
1.41568e-07
1.03529e-09
1.41723e-07
1.01303e-09
1.41868e-07
9.87256e-10
1.42005e-07
9.593e-10
1.42134e-07
9.29984e-10
1.42256e-07
8.99783e-10
1.42371e-07
8.68925e-10
1.42481e-07
8.37499e-10
1.42586e-07
8.05522e-10
1.42687e-07
7.72976e-10
1.42784e-07
7.39821e-10
7.05996e-10
1.42878e-07
1.11788e-07
8.75515e-10
1.11966e-07
8.81484e-10
1.1214e-07
8.7738e-10
1.12309e-07
8.66428e-10
1.12471e-07
8.50864e-10
1.12627e-07
8.321e-10
1.12775e-07
8.11055e-10
1.12917e-07
7.88314e-10
1.13052e-07
7.64227e-10
1.13182e-07
7.38989e-10
1.13307e-07
7.12695e-10
1.13427e-07
6.85392e-10
1.13543e-07
6.57101e-10
1.13655e-07
6.27829e-10
5.97572e-10
1.13763e-07
8.77491e-08
7.02708e-10
8.79221e-08
7.08532e-10
8.80923e-08
7.07139e-10
8.82581e-08
7.00589e-10
8.84187e-08
6.90257e-10
8.85738e-08
6.77075e-10
8.87232e-08
6.61673e-10
8.8867e-08
6.4446e-10
8.90055e-08
6.25693e-10
8.9139e-08
6.05533e-10
8.92676e-08
5.84075e-10
8.93916e-08
5.61384e-10
8.95112e-08
5.37509e-10
8.96266e-08
5.12492e-10
4.86368e-10
8.97378e-08
6.82378e-08
5.43556e-10
6.8397e-08
5.49295e-10
6.85542e-08
5.49944e-10
6.87081e-08
5.46724e-10
6.88579e-08
5.40428e-10
6.90033e-08
5.31669e-10
6.91441e-08
5.20871e-10
6.92803e-08
5.08317e-10
6.94118e-08
4.94194e-10
6.95387e-08
4.78631e-10
6.9661e-08
4.61721e-10
6.97789e-08
4.43539e-10
6.98922e-08
4.24151e-10
7.00011e-08
4.03618e-10
3.82001e-10
7.01055e-08
5.2544e-08
4.04768e-10
5.2683e-08
4.10325e-10
5.28206e-08
4.12376e-10
5.29558e-08
4.1153e-10
5.3088e-08
4.08228e-10
5.32168e-08
4.02876e-10
5.33419e-08
3.9575e-10
5.34632e-08
3.87039e-10
5.35805e-08
3.7688e-10
5.36937e-08
3.65379e-10
5.38028e-08
3.5262e-10
5.39077e-08
3.38678e-10
5.40082e-08
3.23625e-10
5.41043e-08
3.07529e-10
2.90464e-10
5.41958e-08
4.00178e-08
2.89819e-10
4.01331e-08
2.94988e-10
4.02476e-08
2.97821e-10
4.03607e-08
2.98498e-10
4.04716e-08
2.97273e-10
4.05801e-08
2.94411e-10
4.06858e-08
2.90085e-10
4.07884e-08
2.84419e-10
4.08878e-08
2.77511e-10
4.09837e-08
2.69446e-10
4.1076e-08
2.60293e-10
4.11646e-08
2.50124e-10
4.12492e-08
2.39004e-10
4.13297e-08
2.27001e-10
2.14186e-10
4.1406e-08
3.00922e-08
1.9906e-10
3.01836e-08
2.03618e-10
3.02747e-08
2.06681e-10
3.0365e-08
2.0816e-10
3.04541e-08
2.08232e-10
3.05414e-08
2.07058e-10
3.06268e-08
2.04737e-10
3.07099e-08
2.01351e-10
3.07904e-08
1.96968e-10
3.08682e-08
1.91651e-10
3.0943e-08
1.85455e-10
3.10147e-08
1.78439e-10
3.10831e-08
1.7066e-10
3.11479e-08
1.62178e-10
1.53054e-10
3.1209e-08
2.22857e-08
1.30568e-10
2.2355e-08
1.3434e-10
2.24244e-08
1.37201e-10
2.24937e-08
1.38934e-10
2.25622e-08
1.39683e-10
2.26297e-08
1.3953e-10
2.26959e-08
1.38532e-10
2.27606e-08
1.36736e-10
2.28233e-08
1.34189e-10
2.28841e-08
1.30934e-10
2.29425e-08
1.27013e-10
2.29985e-08
1.22469e-10
2.30518e-08
1.17347e-10
2.31023e-08
1.11697e-10
1.05567e-10
2.31498e-08
1.6194e-08
8.11361e-11
1.62443e-08
8.40357e-11
1.62951e-08
8.64166e-11
1.6346e-08
8.80363e-11
1.63967e-08
8.90119e-11
1.64468e-08
8.93741e-11
1.64962e-08
8.91504e-11
1.65446e-08
8.83689e-11
1.65917e-08
8.70565e-11
1.66374e-08
8.52422e-11
1.66815e-08
8.29532e-11
1.67237e-08
8.02218e-11
1.6764e-08
7.70789e-11
1.68021e-08
7.35627e-11
6.97078e-11
1.6838e-08
1.14807e-08
4.7105e-11
1.15156e-08
4.91422e-11
1.15511e-08
5.09195e-11
1.15869e-08
5.22224e-11
1.16228e-08
5.31372e-11
1.16585e-08
5.36636e-11
1.16938e-08
5.38137e-11
1.17286e-08
5.36018e-11
1.17626e-08
5.30424e-11
1.17957e-08
5.21529e-11
1.18277e-08
5.09499e-11
1.18584e-08
4.94545e-11
1.18878e-08
4.76863e-11
1.19157e-08
4.56728e-11
4.34384e-11
1.1942e-08
7.86734e-09
2.49169e-11
7.8903e-09
2.61878e-11
7.91385e-09
2.73659e-11
7.93779e-09
2.82807e-11
7.96194e-09
2.89845e-11
7.98614e-09
2.94644e-11
8.01023e-09
2.9725e-11
8.03406e-09
2.97722e-11
8.05749e-09
2.96129e-11
8.08039e-09
2.92564e-11
8.10263e-09
2.87117e-11
8.12409e-09
2.79913e-11
8.14467e-09
2.71061e-11
8.16427e-09
2.60743e-11
2.49136e-11
8.18279e-09
5.12554e-09
1.14314e-11
5.13964e-09
1.2095e-11
5.15424e-09
1.27652e-11
5.1692e-09
1.33131e-11
5.18443e-09
1.37611e-11
5.1998e-09
1.40966e-11
5.2152e-09
1.43207e-11
5.23054e-09
1.44354e-11
5.24571e-09
1.44434e-11
5.26061e-09
1.43491e-11
5.27517e-09
1.41563e-11
5.28929e-09
1.38716e-11
5.30289e-09
1.35001e-11
5.31592e-09
1.30525e-11
1.25423e-11
5.32829e-09
3.06921e-09
4.05508e-12
3.077e-09
4.30417e-12
3.08516e-09
4.6041e-12
3.09361e-09
4.86221e-12
3.10229e-09
5.08211e-12
3.11113e-09
5.25724e-12
3.12006e-09
5.38776e-12
3.12903e-09
5.47418e-12
3.13795e-09
5.51722e-12
3.14678e-09
5.51854e-12
3.15546e-09
5.47941e-12
3.16393e-09
5.40256e-12
3.17214e-09
5.28951e-12
3.18005e-09
5.14581e-12
4.98149e-12
3.18761e-09
1.54805e-09
7.52899e-13
1.55157e-09
7.86172e-13
1.55531e-09
8.66671e-13
1.55923e-09
9.396e-13
1.56331e-09
1.00312e-12
1.56751e-09
1.05614e-12
1.5718e-09
1.09885e-12
1.57614e-09
1.13144e-12
1.58051e-09
1.15405e-12
1.58486e-09
1.16706e-12
1.58917e-09
1.17065e-12
1.5934e-09
1.16552e-12
1.59754e-09
1.15176e-12
1.60156e-09
1.13117e-12
1.11003e-12
1.60543e-09
4.41665e-10
4.42451e-10
4.43318e-10
4.44257e-10
4.4526e-10
4.46316e-10
4.47415e-10
4.48547e-10
4.49701e-10
4.50868e-10
4.52038e-10
4.53204e-10
4.54356e-10
4.55487e-10
4.56597e-10
1.23895e-09
-5.4104e-10
3.4088e-10
1.52235e-09
-5.05977e-10
2.2258e-10
1.80491e-09
-4.09224e-10
1.26664e-10
2.07996e-09
-3.1361e-10
3.85554e-11
2.34572e-09
-2.25134e-10
-4.0624e-11
2.60296e-09
-1.50249e-10
-1.06992e-10
2.85333e-09
-8.877e-11
-1.61603e-10
3.09836e-09
-3.8962e-11
-2.06062e-10
3.33937e-09
1.92259e-12
-2.42936e-10
3.57752e-09
3.75805e-11
-2.75726e-10
3.81369e-09
7.30483e-11
-3.09221e-10
4.04863e-09
1.15173e-10
-3.50119e-10
4.28306e-09
1.73853e-10
-4.08278e-10
4.51788e-09
2.6345e-10
-4.98269e-10
4.75454e-09
4.04661e-10
-6.41319e-10
4.99547e-09
6.26557e-10
-8.67494e-10
5.24473e-09
9.66606e-10
-1.21586e-09
5.5085e-09
1.47231e-09
-1.73608e-09
5.79551e-09
2.19418e-09
-2.48119e-09
6.11783e-09
3.1631e-09
-3.48542e-09
6.48791e-09
4.35795e-09
-4.72804e-09
6.91254e-09
5.67801e-09
-6.10264e-09
7.3161e-09
5.77705e-09
-6.18061e-09
7.65763e-09
4.94537e-09
-5.2869e-09
7.93038e-09
3.76037e-09
-4.03312e-09
8.13388e-09
2.41874e-09
-2.62223e-09
8.27066e-09
1.05748e-09
-1.19427e-09
8.34402e-09
-2.37181e-10
1.63814e-10
8.35697e-09
-1.41079e-09
1.39785e-09
8.31214e-09
-2.4271e-09
2.47192e-09
8.21219e-09
-3.26084e-09
3.36079e-09
8.06017e-09
-3.89523e-09
4.04724e-09
7.85973e-09
-4.32143e-09
4.52188e-09
7.61498e-09
-4.53861e-09
4.78336e-09
7.33022e-09
-4.55329e-09
4.83805e-09
7.00948e-09
-4.37773e-09
4.69846e-09
6.65616e-09
-4.02752e-09
4.38085e-09
6.27287e-09
-3.5183e-09
3.90159e-09
5.86172e-09
-2.86173e-09
3.27288e-09
5.42446e-09
-2.06178e-09
2.49904e-09
4.96103e-09
-1.11702e-09
1.58045e-09
4.46541e-09
-3.86314e-11
5.3425e-10
3.92446e-09
1.09342e-09
-5.52461e-10
3.34956e-09
2.07428e-09
-1.49938e-09
2.28824e-09
3.01558e-09
-1.95426e-09
2.56283e-09
-6.18688e-10
2.72642e-09
-6.69561e-10
2.94732e-09
-6.30127e-10
3.19257e-09
-5.58867e-10
3.44751e-09
-4.80071e-10
3.70443e-09
-4.07168e-10
3.96044e-09
-3.44782e-10
4.21463e-09
-2.93148e-10
4.46697e-09
-2.50421e-10
4.71782e-09
-2.13266e-10
4.96767e-09
-1.76802e-10
5.21706e-09
-1.34213e-10
5.46661e-09
-7.57015e-11
5.71727e-09
1.27872e-11
5.97061e-09
1.51326e-10
6.22929e-09
3.67874e-10
6.49776e-09
6.98137e-10
6.78279e-09
1.18728e-09
7.09389e-09
1.88309e-09
7.44431e-09
2.81268e-09
7.84804e-09
3.95423e-09
8.31315e-09
5.2129e-09
8.7579e-09
5.3323e-09
9.1374e-09
4.56587e-09
9.44365e-09
3.45412e-09
9.6753e-09
2.18709e-09
9.83443e-09
8.98355e-10
9.92416e-09
-3.26911e-10
9.94759e-09
-1.43422e-09
9.90767e-09
-2.38718e-09
9.80757e-09
-3.16074e-09
9.65106e-09
-3.73871e-09
9.44269e-09
-4.11306e-09
9.18773e-09
-4.28365e-09
8.8919e-09
-4.25746e-09
8.56108e-09
-4.0469e-09
8.20113e-09
-3.66758e-09
7.81821e-09
-3.13539e-09
7.41996e-09
-2.46348e-09
7.01761e-09
-1.65944e-09
6.62871e-09
-7.2812e-10
6.2788e-09
3.11273e-10
6.00407e-09
1.36815e-09
5.86404e-09
2.21431e-09
2.34964e-09
5.80264e-09
4.43684e-09
-6.29647e-10
4.50461e-09
-7.37329e-10
4.63853e-09
-7.64044e-10
4.82389e-09
-7.44228e-10
5.03987e-09
-6.96053e-10
5.2732e-09
-6.40495e-10
5.51615e-09
-5.87742e-10
5.76441e-09
-5.414e-10
6.01564e-09
-5.01658e-10
6.26875e-09
-4.66375e-10
6.52332e-09
-4.31366e-10
6.77932e-09
-3.90217e-10
7.0371e-09
-3.33476e-10
7.29746e-09
-2.47577e-10
7.56201e-09
-1.1323e-10
7.83362e-09
9.62727e-11
8.11709e-09
4.14659e-10
8.41983e-09
8.84537e-10
8.7521e-09
1.55082e-09
9.12841e-09
2.43637e-09
9.56443e-09
3.51821e-09
1.00697e-08
4.70765e-09
1.05564e-08
4.84561e-09
1.09754e-08
4.14679e-09
1.13174e-08
3.1122e-09
1.15796e-08
1.92483e-09
1.17636e-08
7.1438e-10
1.18721e-08
-4.35411e-10
1.19083e-08
-1.47039e-09
1.18754e-08
-2.35434e-09
1.17774e-08
-3.06269e-09
1.16188e-08
-3.5801e-09
1.14053e-08
-3.89959e-09
1.11437e-08
-4.02202e-09
1.08414e-08
-3.95518e-09
1.05066e-08
-3.71214e-09
1.01483e-08
-3.30927e-09
9.77689e-09
-2.76397e-09
9.40618e-09
-2.09277e-09
9.05695e-09
-1.31021e-09
8.76146e-09
-4.3263e-10
8.56522e-09
5.07509e-10
8.51531e-09
1.41806e-09
8.62289e-09
2.10674e-09
2.24896e-09
8.72357e-09
6.98576e-09
-6.0284e-10
6.98757e-09
-7.39145e-10
7.03885e-09
-8.15321e-10
7.14428e-09
-8.49657e-10
7.297e-09
-8.48769e-10
7.48143e-09
-8.24933e-10
7.68802e-09
-7.94323e-10
7.90969e-09
-7.63075e-10
8.14176e-09
-7.33726e-10
8.38127e-09
-7.05891e-10
8.62651e-09
-6.76602e-10
8.87658e-09
-6.40283e-10
9.13125e-09
-5.88155e-10
9.39107e-09
-5.07395e-10
9.65756e-09
-3.79717e-10
9.93369e-09
-1.79853e-10
1.02247e-08
1.23681e-10
1.05385e-08
5.70703e-10
1.08862e-08
1.20311e-09
1.12836e-08
2.03895e-09
1.17483e-08
3.05358e-09
1.22911e-08
4.16478e-09
1.28188e-08
4.31792e-09
1.32779e-08
3.68775e-09
1.36567e-08
2.73336e-09
1.39514e-08
1.63016e-09
1.41622e-08
5.03503e-10
1.42917e-08
-5.64828e-10
1.43428e-08
-1.52149e-09
1.43193e-08
-2.33086e-09
1.42258e-08
-2.96919e-09
1.4068e-08
-3.42232e-09
1.3853e-08
-3.68461e-09
1.35893e-08
-3.75827e-09
1.32864e-08
-3.65228e-09
1.29551e-08
-3.38092e-09
1.26079e-08
-2.96204e-09
1.22595e-08
-2.41552e-09
1.19291e-08
-1.76244e-09
1.16442e-08
-1.02523e-09
1.14431e-08
-2.31526e-10
1.13737e-08
5.76892e-10
1.14721e-08
1.31961e-09
1.17175e-08
1.86136e-09
2.02984e-09
1.19366e-08
1.03759e-08
-5.58134e-10
1.0334e-08
-6.97202e-10
1.03226e-08
-8.03952e-10
1.03515e-08
-8.78556e-10
1.04247e-08
-9.21939e-10
1.05399e-08
-9.40172e-10
1.06869e-08
-9.41315e-10
1.08586e-08
-9.34778e-10
1.10492e-08
-9.24293e-10
1.12543e-08
-9.10978e-10
1.14709e-08
-8.93224e-10
1.16972e-08
-8.66579e-10
1.19322e-08
-8.23227e-10
1.21762e-08
-7.51365e-10
1.24305e-08
-6.33975e-10
1.2698e-08
-4.47431e-10
1.29846e-08
-1.62826e-10
1.32987e-08
2.56603e-10
1.36521e-08
8.49673e-10
1.40621e-08
1.62896e-09
1.45482e-08
2.56745e-09
1.5123e-08
3.59e-09
1.56881e-08
3.75286e-09
1.61853e-08
3.19051e-09
1.66007e-08
2.31797e-09
1.69283e-08
1.30253e-09
1.71673e-08
2.64568e-10
1.73191e-08
-7.16715e-10
1.73871e-08
-1.58941e-09
1.73752e-08
-2.31898e-09
1.7289e-08
-2.88299e-09
1.71355e-08
-3.26879e-09
1.69233e-08
-3.47247e-09
1.66629e-08
-3.49789e-09
1.63663e-08
-3.35562e-09
1.60469e-08
-3.06158e-09
1.57205e-08
-2.63561e-09
1.54055e-08
-2.10048e-09
1.51247e-08
-1.48165e-09
1.49073e-08
-8.07859e-10
1.47894e-08
-1.13619e-10
1.48089e-08
5.57418e-10
1.49849e-08
1.14357e-09
1.52834e-08
1.56285e-09
1.73351e-09
1.55797e-08
1.4805e-08
-5.06875e-10
1.47412e-08
-6.33405e-10
1.46864e-08
-7.49183e-10
1.46546e-08
-8.46793e-10
1.46544e-08
-9.21733e-10
1.46913e-08
-9.77008e-10
1.47626e-08
-1.01271e-09
1.48641e-08
-1.03623e-09
1.49908e-08
-1.05102e-09
1.51385e-08
-1.05868e-09
1.53038e-08
-1.05847e-09
1.54842e-08
-1.04696e-09
1.56783e-08
-1.01737e-09
1.5886e-08
-9.59097e-10
1.61087e-08
-8.56612e-10
1.63494e-08
-6.88109e-10
1.66142e-08
-4.27652e-10
1.69126e-08
-4.18067e-11
1.7257e-08
5.05221e-10
1.76663e-08
1.21972e-09
1.81622e-08
2.07153e-09
1.87587e-08
2.9935e-09
1.93537e-08
3.15785e-09
1.98843e-08
2.65989e-09
2.03333e-08
1.86896e-09
2.06924e-08
9.43483e-10
2.09589e-08
-1.91893e-12
2.11335e-08
-8.91359e-10
2.12192e-08
-1.67511e-09
2.12207e-08
-2.32043e-09
2.11444e-08
-2.80665e-09
2.09987e-08
-3.12312e-09
2.07941e-08
-3.26794e-09
2.05432e-08
-3.24696e-09
2.02602e-08
-3.07261e-09
1.99613e-08
-2.76267e-09
1.96648e-08
-2.33908e-09
1.93914e-08
-1.82711e-09
1.9165e-08
-1.25521e-09
1.90122e-08
-6.55142e-10
1.89611e-08
-6.25189e-11
1.9035e-08
4.8353e-10
1.92385e-08
9.40084e-10
1.9538e-08
1.26339e-09
1.4214e-09
1.98501e-08
2.05101e-08
-4.53283e-10
2.04384e-08
-5.61729e-10
2.03605e-08
-6.71335e-10
2.02881e-08
-7.74412e-10
2.0232e-08
-8.6563e-10
2.01988e-08
-9.43732e-10
2.01931e-08
-1.00703e-09
2.02149e-08
-1.05808e-09
2.02627e-08
-1.0988e-09
2.03341e-08
-1.13002e-09
2.04266e-08
-1.15097e-09
2.05383e-08
-1.15869e-09
2.06681e-08
-1.1472e-09
2.08161e-08
-1.10703e-09
2.09837e-08
-1.02428e-09
2.11746e-08
-8.78981e-10
2.13955e-08
-6.48608e-10
2.16571e-08
-3.0333e-10
2.19724e-08
1.89941e-10
2.23619e-08
8.30194e-10
2.28503e-08
1.58308e-09
2.34527e-08
2.39109e-09
2.40652e-08
2.54535e-09
2.46201e-08
2.10501e-09
2.50962e-08
1.39291e-09
2.5482e-08
5.57669e-10
2.57729e-08
-2.9283e-10
2.59685e-08
-1.08692e-09
2.60713e-08
-1.77795e-09
2.60866e-08
-2.33573e-09
2.60219e-08
-2.742e-09
2.58873e-08
-2.9885e-09
2.56951e-08
-3.07567e-09
2.54597e-08
-3.01155e-09
2.51976e-08
-2.81054e-09
2.49271e-08
-2.49216e-09
2.4668e-08
-2.07997e-09
2.44416e-08
-1.6007e-09
2.427e-08
-1.08362e-09
2.41747e-08
-5.59874e-10
2.41737e-08
-6.15551e-11
2.4277e-08
3.8027e-10
2.4479e-08
7.38043e-10
2.47514e-08
9.91045e-10
1.13061e-09
2.50422e-08
2.77751e-08
-3.96227e-10
2.77001e-08
-4.86735e-10
2.76119e-08
-5.83201e-10
2.75177e-08
-6.80232e-10
2.74255e-08
-7.73354e-10
2.73416e-08
-8.59845e-10
2.72722e-08
-9.37667e-10
2.72207e-08
-1.00654e-09
2.71885e-08
-1.06667e-09
2.71763e-08
-1.11773e-09
2.71836e-08
-1.15829e-09
2.72102e-08
-1.18535e-09
2.72563e-08
-1.19327e-09
2.73228e-08
-1.17355e-09
2.74124e-08
-1.11386e-09
2.75294e-08
-9.95932e-10
2.76818e-08
-8.01097e-10
2.78819e-08
-5.03374e-10
2.81435e-08
-7.17053e-11
2.84894e-08
4.84332e-10
2.89475e-08
1.12495e-09
2.95338e-08
1.8048e-09
3.01453e-08
1.93381e-09
3.071e-08
1.54037e-09
3.12016e-08
9.01253e-10
3.16053e-08
1.54024e-10
3.19138e-08
-6.01346e-10
3.21253e-08
-1.29846e-09
3.22421e-08
-1.89475e-09
3.22699e-08
-2.36347e-09
3.22173e-08
-2.6894e-09
3.20959e-08
-2.86708e-09
3.19197e-08
-2.89954e-09
3.17052e-08
-2.79701e-09
3.14703e-08
-2.57566e-09
3.12345e-08
-2.25633e-09
3.10178e-08
-1.86328e-09
3.08402e-08
-1.42311e-09
3.07202e-08
-9.63646e-10
3.0673e-08
-5.12643e-10
3.07076e-08
-9.61841e-11
3.08246e-08
2.63283e-10
3.10133e-08
5.4932e-10
3.12509e-08
7.53472e-10
8.76509e-10
3.1505e-08
3.69311e-08
-3.31906e-10
3.6851e-08
-4.0666e-10
3.67563e-08
-4.88521e-10
3.66503e-08
-5.74196e-10
3.65373e-08
-6.60395e-10
3.6422e-08
-7.4454e-10
3.6309e-08
-8.24652e-10
3.6202e-08
-8.99538e-10
3.61038e-08
-9.68454e-10
3.60164e-08
-1.03039e-09
3.59416e-08
-1.08343e-09
3.58807e-08
-1.12452e-09
3.58357e-08
-1.14826e-09
3.58092e-08
-1.14701e-09
3.58054e-08
-1.11004e-09
3.583e-08
-1.02055e-09
3.58931e-08
-8.64198e-10
3.60089e-08
-6.19146e-10
3.61924e-08
-2.55242e-10
3.64689e-08
2.07843e-10
3.68705e-08
7.23315e-10
3.74136e-08
1.26168e-09
3.8e-08
1.34745e-09
3.85542e-08
9.86201e-10
3.90446e-08
4.10876e-10
3.9452e-08
-2.53399e-10
3.97667e-08
-9.16072e-10
3.99853e-08
-1.51707e-09
4.01096e-08
-2.01902e-09
4.01456e-08
-2.39951e-09
4.01033e-08
-2.64701e-09
3.99954e-08
-2.75922e-09
3.98376e-08
-2.74178e-09
3.96476e-08
-2.60694e-09
3.94441e-08
-2.3722e-09
3.92466e-08
-2.05887e-09
3.90741e-08
-1.69073e-09
3.89436e-08
-1.29266e-09
3.88693e-08
-8.89268e-10
3.88601e-08
-5.03442e-10
3.89187e-08
-1.54796e-10
3.90403e-08
1.41627e-10
3.92131e-08
3.76539e-10
3.94189e-08
5.47697e-10
6.58805e-10
3.96366e-08
4.83468e-08
-2.57003e-10
4.82583e-08
-3.1817e-10
4.81559e-08
-3.86082e-10
4.80405e-08
-4.58852e-10
4.79143e-08
-5.34217e-10
4.77799e-08
-6.10077e-10
4.76399e-08
-6.8465e-10
4.74969e-08
-7.5655e-10
4.73531e-08
-8.24669e-10
4.72105e-08
-8.8779e-10
4.7071e-08
-9.43957e-10
4.69369e-08
-9.90415e-10
4.68109e-08
-1.02227e-09
4.66969e-08
-1.03296e-09
4.66006e-08
-1.01381e-09
4.65293e-08
-9.49196e-10
4.64949e-08
-8.29811e-10
4.65142e-08
-6.38431e-10
4.66033e-08
-3.44374e-10
4.67904e-08
2.08054e-11
4.7112e-08
4.01673e-10
4.75845e-08
7.89226e-10
4.81186e-08
8.13321e-10
4.86379e-08
4.66835e-10
4.91054e-08
-5.65675e-11
4.94977e-08
-6.45742e-10
4.98026e-08
-1.22095e-09
5.00152e-08
-1.72965e-09
5.01368e-08
-2.14062e-09
5.01739e-08
-2.43662e-09
5.01372e-08
-2.61036e-09
5.00409e-08
-2.66286e-09
4.99014e-08
-2.60228e-09
4.97369e-08
-2.44246e-09
4.95662e-08
-2.20147e-09
4.94074e-08
-1.90012e-09
4.92772e-08
-1.56049e-09
4.9189e-08
-1.20452e-09
4.91524e-08
-8.52664e-10
4.91717e-08
-5.22676e-10
4.92454e-08
-2.28552e-10
4.93665e-08
2.05973e-11
4.95241e-08
2.189e-10
4.9704e-08
3.67778e-10
4.7098e-10
4.98918e-08
6.24132e-08
-1.70858e-10
6.23151e-08
-2.20089e-10
6.22042e-08
-2.75132e-10
6.20803e-08
-3.34971e-10
6.19442e-08
-3.98137e-10
6.17971e-08
-4.63023e-10
6.16406e-08
-5.28092e-10
6.1476e-08
-5.91964e-10
6.13047e-08
-6.53367e-10
6.11279e-08
-7.11022e-10
6.0947e-08
-7.63038e-10
6.07638e-08
-8.07175e-10
6.05807e-08
-8.3924e-10
6.04017e-08
-8.53955e-10
6.02331e-08
-8.45172e-10
6.00825e-08
-7.98559e-10
5.9963e-08
-7.10345e-10
5.9893e-08
-5.68453e-10
5.989e-08
-3.41389e-10
5.99837e-08
-7.28911e-11
6.02141e-08
1.71282e-10
6.05965e-08
4.06855e-10
6.10553e-08
3.54503e-10
6.15162e-08
5.9423e-12
6.19379e-08
-4.78272e-10
6.22939e-08
-1.00176e-09
6.257e-08
-1.49706e-09
6.27605e-08
-1.92012e-09
6.28665e-08
-2.24661e-09
6.28949e-08
-2.46503e-09
6.28571e-08
-2.57258e-09
6.27679e-08
-2.57363e-09
6.26441e-08
-2.47846e-09
6.25034e-08
-2.30183e-09
6.23635e-08
-2.06153e-09
6.22403e-08
-1.77692e-09
6.21473e-08
-1.46745e-09
6.20942e-08
-1.15147e-09
6.20867e-08
-8.4511e-10
6.21255e-08
-5.61526e-10
6.22073e-08
-3.10322e-10
6.23251e-08
-9.72799e-11
6.24689e-08
7.51929e-11
6.26281e-08
2.08527e-10
3.06492e-10
6.27926e-08
7.95381e-08
-7.61238e-11
7.94328e-08
-1.14767e-10
7.93158e-08
-1.58089e-10
7.91864e-08
-2.05591e-10
7.90446e-08
-2.5637e-10
7.88909e-08
-3.0928e-10
7.87259e-08
-3.63077e-10
7.85504e-08
-4.16512e-10
7.83653e-08
-4.68293e-10
7.81715e-08
-5.17151e-10
7.79697e-08
-5.61256e-10
7.77613e-08
-5.9883e-10
7.75485e-08
-6.2636e-10
7.73343e-08
-6.39818e-10
7.71246e-08
-6.35461e-10
7.69268e-08
-6.00764e-10
7.67537e-08
-5.37197e-10
7.66221e-08
-4.36917e-10
7.65531e-08
-2.72362e-10
7.65751e-08
-9.49018e-11
7.67224e-08
2.39987e-11
7.70125e-08
1.16752e-10
7.73868e-08
-1.98227e-11
7.77749e-08
-3.82169e-10
7.81337e-08
-8.36975e-10
7.84352e-08
-1.30334e-09
7.86652e-08
-1.72704e-09
7.88181e-08
-2.07305e-09
7.88957e-08
-2.32415e-09
7.89053e-08
-2.47466e-09
7.8859e-08
-2.5262e-09
7.87714e-08
-2.48609e-09
7.8659e-08
-2.3661e-09
7.85384e-08
-2.18114e-09
7.84247e-08
-1.94789e-09
7.83313e-08
-1.68349e-09
7.82682e-08
-1.40432e-09
7.82417e-08
-1.12504e-09
7.82545e-08
-8.57917e-10
7.83054e-08
-6.12427e-10
7.83902e-08
-3.95056e-10
7.85022e-08
-2.09296e-10
7.86333e-08
-5.59281e-11
7.87756e-08
6.62849e-11
1.60568e-10
7.89215e-08
1.00171e-07
2.27083e-11
1.00063e-07
-6.68966e-12
9.99441e-08
-3.95915e-11
9.98143e-08
-7.58239e-11
9.96728e-08
-1.14842e-10
9.95194e-08
-1.55878e-10
9.93543e-08
-1.9801e-10
9.9178e-08
-2.40204e-10
9.89911e-08
-2.81303e-10
9.87941e-08
-3.20162e-10
9.85879e-08
-3.55132e-10
9.8374e-08
-3.84854e-10
9.8154e-08
-4.06415e-10
9.79314e-08
-4.17234e-10
9.77107e-08
-4.14773e-10
9.74998e-08
-3.89824e-10
9.73107e-08
-3.48049e-10
9.71543e-08
-2.80565e-10
9.70596e-08
-1.77685e-10
9.70554e-08
-9.06271e-11
9.71435e-08
-6.41679e-11
9.73553e-08
-9.50651e-11
9.76583e-08
-3.22818e-10
9.79775e-08
-7.0132e-10
9.82689e-08
-1.12838e-09
9.85079e-08
-1.5424e-09
9.86823e-08
-1.90136e-09
9.87883e-08
-2.1791e-09
9.88293e-08
-2.36513e-09
9.88137e-08
-2.45907e-09
9.87538e-08
-2.46628e-09
9.86639e-08
-2.39626e-09
9.85593e-08
-2.26148e-09
9.84544e-08
-2.07618e-09
9.83617e-08
-1.85525e-09
9.82915e-08
-1.61326e-09
9.82506e-08
-1.36345e-09
9.82428e-08
-1.11718e-09
9.82684e-08
-8.83562e-10
9.83253e-08
-6.69321e-10
9.8409e-08
-4.78799e-10
9.85138e-08
-3.14105e-10
9.86334e-08
-1.75456e-10
9.87612e-08
-6.15491e-11
2.99075e-11