/*--------------------------------*- C++ -*----------------------------------*\
| =========                 |                                                 |
| \\      /  F ield         | OpenFOAM: The Open Source CFD Toolbox           |
|  \\    /   O peration     | Version:  2312                                  |
|   \\  /    A nd           | Website:  www.openfoam.com                      |
|    \\/     M anipulation  |                                                 |
\*---------------------------------------------------------------------------*/
FoamFile
{
    version     2.0;
    format      ascii;
    arch        "LSB;label=32;scalar=64";
    class       volVectorField;
    location    "113";
    object      U;
}
// * * * * * * * * * * * * * * * * * * * * * * * * * * * * * * * * * * * * * //

dimensions      [0 1 -1 0 0 0 0];

internalField   nonuniform List<vector> 
4800
(
(0.000473103 2.10467e-07 -1.95023e-26)
(0.000468725 2.05613e-07 -1.38292e-25)
(0.000467035 1.93217e-07 1.77139e-25)
(0.00046698 1.90394e-07 8.28037e-26)
(0.000468033 1.92286e-07 1.24596e-24)
(0.00046983 1.78369e-07 -2.9906e-24)
(0.000472276 1.2941e-07 2.83232e-24)
(0.000475382 3.60257e-08 -4.16859e-24)
(0.000479246 -1.193e-07 1.3216e-24)
(0.000484058 -3.78326e-07 4.64746e-24)
(0.000490272 -8.98026e-07 -1.42831e-24)
(0.00049922 -2.34056e-06 -1.1289e-25)
(0.000518438 -7.69513e-06 -1.78743e-24)
(0.000566263 -2.93689e-05 8.55025e-25)
(0.000644059 -9.44224e-05 -6.85149e-25)
(0.00146708 1.06833e-06 -6.17701e-26)
(0.00145359 5.74787e-07 7.70177e-26)
(0.00144795 1.88291e-07 -7.21988e-25)
(0.0014471 -1.29302e-07 5.33278e-25)
(0.00144943 -4.24255e-07 1.76675e-24)
(0.00145394 -7.36823e-07 -2.86142e-24)
(0.00146037 -1.152e-06 -8.52786e-25)
(0.00146862 -1.7334e-06 -2.30112e-25)
(0.00147898 -2.58209e-06 6.94768e-24)
(0.00149197 -3.93128e-06 -5.17062e-24)
(0.00150888 -6.46086e-06 5.62463e-25)
(0.00153253 -1.24522e-05 8.76703e-25)
(0.00157215 -2.98266e-05 -1.31708e-24)
(0.00163837 -8.29751e-05 -4.21977e-25)
(0.00170835 -0.000202216 1.75326e-24)
(0.0025696 3.4243e-06 -4.42282e-26)
(0.00254627 1.88012e-06 4.51635e-26)
(0.00253593 7.15849e-07 4.71677e-25)
(0.00253351 -2.74902e-07 -1.12267e-24)
(0.00253635 -1.22831e-06 1.11156e-24)
(0.00254271 -2.23533e-06 1.09005e-24)
(0.00255232 -3.4965e-06 -2.82976e-24)
(0.00256478 -5.18679e-06 -1.79916e-24)
(0.00258042 -7.60475e-06 4.2873e-24)
(0.00259989 -1.13743e-05 1.65759e-24)
(0.00262466 -1.80141e-05 -5.75595e-24)
(0.00265697 -3.15649e-05 -9.13109e-25)
(0.00270104 -6.17513e-05 2.48259e-24)
(0.00275546 -0.000128553 4.00389e-24)
(0.00279428 -0.000239489 -2.07804e-24)
(0.00378633 7.63898e-06 1.63504e-26)
(0.00375274 4.34103e-06 -1.14143e-25)
(0.00373703 1.86905e-06 5.13396e-25)
(0.00373217 -2.31099e-07 5.55478e-25)
(0.00373473 -2.19542e-06 -5.33553e-25)
(0.00374187 -4.30488e-06 -3.2697e-24)
(0.00375359 -6.90934e-06 -2.31664e-24)
(0.00376891 -1.02901e-05 8.57574e-24)
(0.00378809 -1.50248e-05 3.64713e-24)
(0.00381155 -2.21362e-05 -5.17553e-24)
(0.00384014 -3.3737e-05 -2.11159e-24)
(0.0038744 -5.43887e-05 -1.63896e-24)
(0.00391361 -9.21574e-05 4.27323e-26)
(0.00395043 -0.000157312 1.22604e-24)
(0.00396624 -0.000244766 6.01334e-27)
(0.00512014 1.40728e-05 -2.99951e-26)
(0.00507652 8.21987e-06 -1.83789e-25)
(0.00505514 3.85269e-06 -1.20011e-25)
(0.00504714 1.34557e-07 3.10774e-25)
(0.00504865 -3.23988e-06 -9.03779e-25)
(0.00505553 -6.81837e-06 2.30679e-24)
(0.00506807 -1.12421e-05 -4.02093e-25)
(0.0050847 -1.6777e-05 1.49808e-24)
(0.00510537 -2.42849e-05 -8.32235e-24)
(0.00513001 -3.50287e-05 1.59491e-23)
(0.00515851 -5.11684e-05 -1.55373e-23)
(0.00518972 -7.64062e-05 8.27531e-24)
(0.00522036 -0.000115543 -7.73506e-24)
(0.00524274 -0.00017171 7.31907e-24)
(0.0052464 -0.000237312 -2.92129e-24)
(0.00656931 2.30696e-05 3.95637e-26)
(0.00651722 1.38136e-05 1.41778e-25)
(0.00649063 6.93932e-06 -7.53291e-25)
(0.00647939 1.17657e-06 -4.91372e-25)
(0.00647914 -4.21386e-06 1.28945e-24)
(0.00648512 -9.53965e-06 4.74767e-25)
(0.00649725 -1.61307e-05 -3.78883e-24)
(0.00651363 -2.41207e-05 9.12599e-24)
(0.00653379 -3.45311e-05 -1.19889e-23)
(0.00655706 -4.86279e-05 2.85965e-24)
(0.00658245 -6.81418e-05 8.9127e-24)
(0.00660789 -9.52893e-05 -1.24688e-23)
(0.00662969 -0.000131874 6.26247e-24)
(0.00664226 -0.00017734 6.43052e-24)
(0.00664096 -0.000225492 -4.89797e-24)
(0.0081255 3.4705e-05 3.25552e-26)
(0.00806853 2.12523e-05 -1.92887e-25)
(0.00803859 1.12932e-05 6.96259e-25)
(0.00802508 2.96639e-06 -9.72995e-25)
(0.00802286 -4.58089e-06 -3.37953e-24)
(0.0080279 -1.2265e-05 5.77167e-24)
(0.00803875 -2.11277e-05 -3.56622e-24)
(0.0080537 -3.16476e-05 1.23166e-23)
(0.00807179 -4.47626e-05 -8.37186e-24)
(0.00809188 -6.15107e-05 -3.96913e-24)
(0.00811245 -8.2956e-05 -7.91278e-24)
(0.00813128 -0.000109925 7.27634e-24)
(0.00814548 -0.000142315 2.05733e-24)
(0.0081518 -0.000178292 1.75711e-24)
(0.00814887 -0.000213704 -1.54717e-24)
(0.00977187 4.84221e-05 -4.63574e-26)
(0.00971641 3.0216e-05 6.34388e-25)
(0.0096869 1.67324e-05 -1.48674e-24)
(0.00967343 5.54961e-06 -1.24995e-24)
(0.00967062 -4.55247e-06 4.3754e-25)
(0.00967499 -1.46276e-05 9.05073e-25)
(0.0096846 -2.58374e-05 3.38042e-24)
(0.00969768 -3.87342e-05 -9.3456e-24)
(0.00971297 -5.40789e-05 -5.11135e-24)
(0.00972911 -7.25504e-05 1.38771e-23)
(0.0097445 -9.45566e-05 -4.3594e-24)
(0.00975726 -0.000119987 1.49142e-23)
(0.00976562 -0.000147909 -7.87015e-24)
(0.00976794 -0.000176486 -2.50164e-24)
(0.00976449 -0.000203194 1.48013e-24)
(0.0114831 6.25853e-05 -5.96644e-27)
(0.0114383 3.95653e-05 3.47392e-25)
(0.0114152 2.24321e-05 -4.96278e-25)
(0.0114057 8.31155e-06 1.21578e-24)
(0.011405 -4.40569e-06 -7.33684e-24)
(0.0114103 -1.68686e-05 7.77604e-24)
(0.0114197 -3.02408e-05 -1.25218e-23)
(0.0114315 -4.51124e-05 7.65812e-24)
(0.0114443 -6.20095e-05 5.78609e-24)
(0.0114569 -8.12359e-05 1.2728e-23)
(0.0114679 -0.000102717 -1.6656e-23)
(0.011476 -0.000125892 -3.08982e-24)
(0.0114804 -0.000149702 1.44455e-24)
(0.0114804 -0.000172765 1.01735e-23)
(0.0114768 -0.000193644 -4.12976e-24)
(0.0132302 7.41605e-05 3.07517e-26)
(0.0132062 4.70108e-05 -1.40926e-25)
(0.0131966 2.65997e-05 6.51362e-25)
(0.0131962 9.79603e-06 -2.31629e-24)
(0.0132015 -5.27629e-06 3.54569e-24)
(0.0132104 -1.98387e-05 -4.64575e-24)
(0.0132216 -3.49577e-05 7.86371e-24)
(0.0132335 -5.11953e-05 1.439e-24)
(0.0132453 -6.88559e-05 -1.10081e-23)
(0.0132558 -8.79536e-05 1.57962e-23)
(0.0132642 -0.000108158 -1.74605e-23)
(0.0132697 -0.000128821 -5.13819e-24)
(0.0132721 -0.000149067 9.09244e-24)
(0.0132711 -0.00016801 2.68391e-24)
(0.013268 -0.000184878 -1.16995e-24)
(0.0149919 7.9117e-05 1.04312e-25)
(0.0149955 4.92453e-05 -1.05914e-24)
(0.015005 2.64638e-05 -1.82776e-24)
(0.0150181 7.62179e-06 4.27684e-24)
(0.0150329 -9.21217e-06 1.97952e-24)
(0.0150484 -2.52675e-05 -1.24517e-23)
(0.0150637 -4.14768e-05 3.79025e-24)
(0.015078 -5.83142e-05 2.76868e-24)
(0.0150907 -7.59168e-05 -1.22856e-23)
(0.0151011 -9.41397e-05 1.27703e-23)
(0.0151089 -0.00011259 -1.02629e-23)
(0.0151139 -0.00013072 2.63851e-23)
(0.0151162 -0.000147921 -1.26586e-23)
(0.0151159 -0.000163686 7.43201e-24)
(0.015114 -0.000177632 -2.0214e-24)
(0.0167693 7.42759e-05 -1.56897e-26)
(0.016799 4.3208e-05 6.65407e-25)
(0.0168278 1.91786e-05 -1.40553e-24)
(0.0168551 -8.49922e-07 -7.68448e-25)
(0.0168806 -1.86285e-05 8.49726e-24)
(0.0169038 -3.53703e-05 -1.16098e-24)
(0.0169245 -5.18656e-05 -1.54274e-23)
(0.0169425 -6.84808e-05 1.81408e-23)
(0.0169577 -8.52594e-05 -4.06959e-24)
(0.0169697 -0.000102018 -1.42311e-23)
(0.0169788 -0.000118422 1.51979e-23)
(0.016985 -0.000134086 8.14962e-24)
(0.0169888 -0.000148638 -6.93375e-24)
(0.0169901 -0.000161821 -1.18755e-23)
(0.0169902 -0.000173473 9.91876e-25)
(0.0185892 5.99701e-05 -2.49385e-26)
(0.018634 2.8438e-05 -6.85651e-25)
(0.0186748 3.8039e-06 3.67056e-24)
(0.0187116 -1.66893e-05 3.64141e-25)
(0.0187445 -3.4723e-05 2.35473e-24)
(0.0187733 -5.14443e-05 -8.13028e-24)
(0.0187982 -6.75158e-05 7.09554e-24)
(0.0188193 -8.32302e-05 1.66935e-24)
(0.0188368 -9.86136e-05 1.47817e-23)
(0.0188507 -0.000113531 -2.2812e-23)
(0.0188616 -0.000127757 -1.03303e-23)
(0.0188695 -0.000141067 -6.78165e-24)
(0.0188752 -0.000153267 1.28323e-23)
(0.0188786 -0.000164247 -3.59647e-25)
(0.018881 -0.000173963 1.23132e-24)
(0.020479 4.04428e-05 -2.64563e-26)
(0.0205253 8.13225e-06 6.11438e-25)
(0.0205676 -1.7057e-05 -9.10442e-25)
(0.0206057 -3.77817e-05 -1.73999e-26)
(0.0206396 -5.58008e-05 1.5717e-24)
(0.0206691 -7.21606e-05 4.12965e-24)
(0.0206945 -8.74411e-05 -1.60324e-23)
(0.0207159 -0.000101925 1.29789e-24)
(0.0207337 -0.000115685 8.24419e-24)
(0.0207481 -0.000128676 -3.81388e-24)
(0.0207596 -0.000140797 1.04173e-23)
(0.0207683 -0.000151958 7.2434e-24)
(0.0207752 -0.000162084 -1.31761e-23)
(0.0207799 -0.000171159 8.92698e-24)
(0.0207837 -0.000179197 -7.41814e-24)
(0.0224299 2.02452e-05 -6.49018e-25)
(0.0224697 -1.30204e-05 6.95275e-25)
(0.0225063 -3.88264e-05 9.75561e-25)
(0.0225393 -5.99061e-05 -6.42101e-24)
(0.0225687 -7.79209e-05 5.7694e-24)
(0.0225943 -9.38456e-05 -4.59391e-24)
(0.0226164 -0.000108263 3.2504e-24)
(0.022635 -0.000121503 -2.3974e-23)
(0.0226506 -0.000133714 3.46161e-23)
(0.0226632 -0.000144954 -2.04971e-23)
(0.0226734 -0.000155229 1.83258e-23)
(0.0226814 -0.000164546 1.52406e-23)
(0.0226879 -0.000172916 -2.66265e-23)
(0.0226925 -0.000180374 8.63429e-24)
(0.0226964 -0.000186969 -3.60559e-25)
(0.024381 1.33955e-06 -2.15529e-26)
(0.0244132 -3.23451e-05 6.31959e-25)
(0.0244423 -5.86199e-05 -7.24444e-25)
(0.0244684 -7.99335e-05 -1.71335e-25)
(0.0244914 -9.78035e-05 2.22323e-24)
(0.0245115 -0.000113195 -3.95976e-24)
(0.0245286 -0.000126724 3.85212e-24)
(0.024543 -0.00013878 -1.25454e-23)
(0.024555 -0.000149591 2.87996e-23)
(0.0245647 -0.000159304 -3.709e-23)
(0.0245726 -0.000168012 3.04685e-23)
(0.0245787 -0.000175787 -1.03034e-23)
(0.0245836 -0.000182688 5.244e-25)
(0.0245871 -0.000188782 2.31806e-24)
(0.0245901 -0.000194129 -4.47704e-24)
(0.0262325 -1.65509e-05 -1.74031e-24)
(0.026259 -4.98845e-05 3.98313e-24)
(0.0262821 -7.60319e-05 -2.33851e-24)
(0.0263022 -9.70816e-05 -2.95195e-25)
(0.0263197 -0.000114446 2.63814e-24)
(0.0263347 -0.000129073 -2.98091e-24)
(0.0263473 -0.000141607 -3.2361e-24)
(0.0263578 -0.000152479 -8.15468e-24)
(0.0263663 -0.000161975 3.89954e-24)
(0.0263731 -0.000170303 2.00019e-23)
(0.0263785 -0.000177613 -1.06328e-23)
(0.0263825 -0.000184024 6.38122e-24)
(0.0263857 -0.000189625 -2.63792e-24)
(0.0263878 -0.000194499 -7.7625e-24)
(0.0263895 -0.000198711 3.96736e-24)
(0.027859 -3.43611e-05 5.67314e-25)
(0.0278815 -6.64082e-05 -1.06949e-24)
(0.0279003 -9.16477e-05 -1.59399e-24)
(0.0279161 -0.000111836 3.20452e-24)
(0.0279295 -0.00012828 -1.57033e-24)
(0.0279406 -0.000141846 2.78074e-24)
(0.0279498 -0.000153201 -2.95563e-24)
(0.0279573 -0.00016281 -2.56064e-24)
(0.0279632 -0.000170995 2.2191e-24)
(0.0279677 -0.000177991 -2.97778e-24)
(0.0279711 -0.000183977 6.88325e-24)
(0.0279734 -0.000189097 3.60014e-24)
(0.0279751 -0.000193449 -1.339e-23)
(0.0279759 -0.000197126 9.28091e-24)
(0.0279763 -0.000200203 -1.89545e-24)
(0.0291037 -5.29169e-05 1.67971e-24)
(0.0291229 -8.2828e-05 3.37929e-24)
(0.0291383 -0.000106437 -7.29204e-24)
(0.0291506 -0.000125205 -2.05521e-24)
(0.0291605 -0.000140297 4.22096e-24)
(0.0291684 -0.000152497 3.18948e-25)
(0.0291746 -0.000162463 -2.12071e-24)
(0.0291793 -0.000170648 2.02558e-24)
(0.0291826 -0.000177436 4.77328e-24)
(0.0291849 -0.000183029 -1.19415e-23)
(0.0291862 -0.000187639 7.30112e-24)
(0.0291867 -0.000191413 -5.36102e-25)
(0.0291866 -0.000194452 -4.77625e-25)
(0.0291858 -0.00019685 6.5364e-25)
(0.0291846 -0.000198669 -3.04353e-25)
(0.0297584 -7.01117e-05 -4.4461e-24)
(0.0297708 -9.66776e-05 -1.03324e-23)
(0.0297797 -0.000117635 4.47375e-24)
(0.0297859 -0.000134204 2.06105e-23)
(0.0297902 -0.000147348 -6.02839e-24)
(0.0297931 -0.000157802 -3.1227e-24)
(0.0297948 -0.000166136 1.92457e-24)
(0.0297954 -0.000172794 1.97351e-24)
(0.0297952 -0.0001781 -1.57666e-24)
(0.0297943 -0.000182291 1.41718e-25)
(0.0297928 -0.000185534 1.46644e-24)
(0.0297907 -0.000187967 -1.82776e-24)
(0.0297882 -0.000189697 -2.74187e-24)
(0.0297854 -0.000190815 4.27876e-24)
(0.0297822 -0.000191375 -1.93428e-24)
(0.0295924 -8.47035e-05 7.09776e-24)
(0.0296017 -0.000106964 -1.64585e-23)
(0.0296078 -0.000124574 2.55386e-24)
(0.0296115 -0.000138441 2.51583e-23)
(0.0296134 -0.000149312 -2.49456e-23)
(0.029614 -0.000157805 9.27642e-24)
(0.0296135 -0.000164408 7.82966e-24)
(0.0296121 -0.000169493 -1.81456e-23)
(0.02961 -0.000173336 1.39866e-24)
(0.0296072 -0.000176143 4.89117e-24)
(0.0296039 -0.000178067 6.35423e-25)
(0.0296002 -0.000179229 4.16975e-25)
(0.029596 -0.000179721 -8.47519e-25)
(0.0295916 -0.000179624 8.07678e-25)
(0.0295868 -0.000178994 -4.11558e-25)
(0.0286176 -9.40566e-05 4.41765e-24)
(0.0286219 -0.000112452 -9.31686e-24)
(0.0286236 -0.000126976 -6.41828e-24)
(0.0286234 -0.000138327 3.01894e-23)
(0.0286218 -0.000147116 -2.77742e-23)
(0.0286192 -0.000153834 2.92234e-24)
(0.0286157 -0.000158878 4.66959e-24)
(0.0286115 -0.000162559 2.58695e-24)
(0.0286066 -0.000165108 2.2203e-24)
(0.0286014 -0.000166702 -1.07737e-23)
(0.0285957 -0.000167472 6.85361e-24)
(0.0285897 -0.000167521 6.35836e-25)
(0.0285833 -0.000166925 1.53838e-25)
(0.0285767 -0.000165742 5.00864e-26)
(0.0285699 -0.000164012 3.22561e-25)
(0.0270941 -9.73009e-05 1.10072e-23)
(0.0270942 -0.000112392 -1.94705e-23)
(0.027092 -0.000124257 3.99528e-24)
(0.0270882 -0.000133428 -9.11723e-24)
(0.0270832 -0.00014039 -1.15147e-23)
(0.0270773 -0.000145545 3.95232e-23)
(0.0270707 -0.000149234 -1.5087e-23)
(0.0270636 -0.000151718 4.13298e-24)
(0.027056 -0.000153186 -2.23503e-24)
(0.0270481 -0.000153775 -5.02723e-24)
(0.0270399 -0.000153589 9.08513e-24)
(0.0270315 -0.000152707 -4.38277e-24)
(0.0270228 -0.000151189 6.90429e-25)
(0.0270141 -0.000149092 1.9183e-25)
(0.0270052 -0.000146462 2.63135e-26)
(0.0252267 -9.64048e-05 4.24328e-24)
(0.0252221 -0.000108332 -2.16607e-23)
(0.0252154 -0.000117697 3.7117e-23)
(0.0252075 -0.00012488 -2.79329e-23)
(0.0251987 -0.00013024 2.70972e-23)
(0.0251892 -0.000134086 -9.19715e-24)
(0.0251793 -0.000136671 -6.15593e-24)
(0.025169 -0.000138184 -6.321e-24)
(0.0251584 -0.000138762 1.03312e-23)
(0.0251476 -0.000138519 -9.80446e-25)
(0.0251367 -0.000137548 -9.0794e-24)
(0.0251256 -0.000135929 -7.70629e-25)
(0.0251145 -0.000133724 1.43621e-24)
(0.0251034 -0.000130987 -1.75301e-25)
(0.0250921 -0.000127756 6.04394e-27)
(0.0231617 -9.08544e-05 5.65031e-25)
(0.023152 -0.000100091 -8.11826e-24)
(0.0231406 -0.000107335 -4.27866e-24)
(0.0231284 -0.000112849 3.57653e-23)
(0.0231156 -0.000116888 -3.46048e-23)
(0.0231023 -0.000119668 9.97213e-24)
(0.0230888 -0.000121361 1.61472e-24)
(0.0230752 -0.0001221 -8.08174e-25)
(0.0230615 -0.000121999 -3.50783e-24)
(0.0230478 -0.000121163 1.4537e-23)
(0.0230342 -0.000119678 -1.13012e-23)
(0.0230206 -0.000117614 -3.02994e-25)
(0.0230071 -0.00011502 7.78095e-25)
(0.0229938 -0.000111936 2.45488e-25)
(0.0229807 -0.000108393 -1.42576e-25)
(0.0210039 -8.13743e-05 8.41335e-25)
(0.0209894 -8.85209e-05 7.51118e-24)
(0.0209739 -9.40669e-05 -8.64626e-24)
(0.0209581 -9.82188e-05 -5.71978e-24)
(0.0209419 -0.000101189 3.5549e-23)
(0.0209255 -0.000103142 -2.71946e-23)
(0.0209092 -0.000104198 -7.16611e-25)
(0.020893 -0.000104455 -5.15846e-24)
(0.0208769 -0.000103999 -2.81745e-25)
(0.0208611 -0.000102911 7.85516e-25)
(0.0208455 -0.000101254 -2.01774e-24)
(0.0208303 -9.90775e-05 1.99903e-24)
(0.0208153 -9.64205e-05 7.52921e-25)
(0.0208008 -9.33178e-05 5.4557e-25)
(0.0207865 -8.97991e-05 2.11752e-25)
(0.0188336 -6.952e-05 5.99962e-24)
(0.0188161 -7.50233e-05 -9.14467e-24)
(0.0187979 -7.92953e-05 -7.01951e-24)
(0.0187798 -8.25178e-05 2.13379e-23)
(0.0187616 -8.48267e-05 -7.65615e-24)
(0.0187435 -8.63171e-05 -1.01463e-23)
(0.0187257 -8.70656e-05 3.61031e-24)
(0.0187081 -8.71423e-05 7.37476e-24)
(0.018691 -8.66144e-05 -1.11855e-23)
(0.0186742 -8.55417e-05 1.05844e-23)
(0.0186579 -8.39731e-05 -5.27396e-24)
(0.0186421 -8.19486e-05 2.01943e-24)
(0.0186268 -7.95003e-05 -2.01897e-24)
(0.018612 -7.66587e-05 1.69414e-24)
(0.0185978 -7.34498e-05 -2.68738e-25)
(0.0167132 -5.70871e-05 -1.16529e-24)
(0.0166944 -6.14545e-05 -3.94124e-24)
(0.0166754 -6.48976e-05 -1.22503e-23)
(0.0166566 -6.75444e-05 3.41484e-23)
(0.0166379 -6.94671e-05 -6.3149e-24)
(0.0166194 -7.0724e-05 -9.28472e-24)
(0.0166013 -7.13703e-05 2.96601e-24)
(0.0165837 -7.14596e-05 -4.34616e-24)
(0.0165665 -7.10431e-05 -8.57681e-24)
(0.0165498 -7.01656e-05 8.31194e-24)
(0.0165337 -6.88646e-05 3.92993e-25)
(0.0165182 -6.71702e-05 -1.97685e-24)
(0.0165033 -6.51063e-05 2.28204e-24)
(0.0164892 -6.2696e-05 6.30415e-26)
(0.0164756 -5.99596e-05 -9.25734e-26)
(0.0146864 -4.5562e-05 4.48845e-24)
(0.0146679 -4.91255e-05 6.38676e-24)
(0.0146494 -5.19839e-05 -6.1544e-24)
(0.014631 -5.42413e-05 -1.27452e-23)
(0.0146128 -5.59318e-05 1.67378e-23)
(0.0145949 -5.70879e-05 -1.78674e-23)
(0.0145774 -5.77468e-05 -3.81426e-25)
(0.0145602 -5.79476e-05 6.6871e-24)
(0.0145436 -5.77285e-05 2.21544e-24)
(0.0145275 -5.7123e-05 -4.08868e-24)
(0.014512 -5.61587e-05 3.32372e-25)
(0.0144972 -5.48562e-05 7.33517e-24)
(0.014483 -5.32316e-05 -2.75458e-24)
(0.0144696 -5.13016e-05 -5.63868e-25)
(0.0144568 -4.90827e-05 -2.35846e-26)
(0.0127792 -3.55904e-05 -4.66756e-24)
(0.0127619 -3.85196e-05 5.98747e-24)
(0.0127446 -4.09299e-05 6.26325e-25)
(0.0127273 -4.28982e-05 1.13927e-23)
(0.01271 -4.44235e-05 -9.42701e-24)
(0.012693 -4.55202e-05 5.87235e-25)
(0.0126763 -4.62143e-05 -1.07406e-24)
(0.0126599 -4.65353e-05 -2.73586e-24)
(0.0126439 -4.65116e-05 2.11087e-24)
(0.0126285 -4.6168e-05 -6.78585e-24)
(0.0126136 -4.55231e-05 6.77817e-25)
(0.0125993 -4.45903e-05 1.59696e-24)
(0.0125856 -4.3379e-05 8.83925e-25)
(0.0125727 -4.1902e-05 2.96347e-25)
(0.0125604 -4.01722e-05 6.90265e-26)
(0.0110037 -2.72656e-05 3.46149e-24)
(0.0109879 -2.96592e-05 -2.7539e-24)
(0.0109719 -3.16917e-05 -1.16089e-23)
(0.0109557 -3.33991e-05 1.08883e-23)
(0.0109396 -3.47587e-05 1.45251e-23)
(0.0109234 -3.57784e-05 -3.97785e-24)
(0.0109075 -3.64781e-05 -7.41464e-24)
(0.0108918 -3.68793e-05 -9.70509e-24)
(0.0108764 -3.7003e-05 7.18668e-24)
(0.0108614 -3.68662e-05 3.36226e-25)
(0.0108469 -3.64811e-05 -1.45582e-24)
(0.0108329 -3.58548e-05 -3.14561e-25)
(0.0108194 -3.49929e-05 6.66652e-25)
(0.0108067 -3.39048e-05 -5.05603e-26)
(0.0107946 -3.26006e-05 -8.31081e-26)
(0.00936222 -2.04372e-05 -2.18128e-24)
(0.00934788 -2.23569e-05 -1.488e-24)
(0.00933322 -2.40394e-05 1.89745e-24)
(0.00931826 -2.54796e-05 -5.62657e-24)
(0.0093031 -2.665e-05 1.83494e-23)
(0.00928785 -2.75578e-05 -2.37492e-23)
(0.00927262 -2.82176e-05 2.27323e-23)
(0.0092575 -2.86448e-05 -9.47284e-24)
(0.00924257 -2.88541e-05 1.98329e-24)
(0.00922792 -2.88569e-05 -8.72425e-26)
(0.00921363 -2.866e-05 -1.5217e-24)
(0.00919977 -2.82668e-05 3.62287e-25)
(0.00918639 -2.76803e-05 -9.62201e-25)
(0.00917359 -2.69071e-05 -9.39931e-26)
(0.00916141 -2.5955e-05 4.034e-26)
(0.00785172 -1.48933e-05 -1.06128e-24)
(0.00783887 -1.63882e-05 2.85843e-25)
(0.00782554 -1.77352e-05 5.85662e-25)
(0.00781175 -1.88999e-05 -2.58888e-24)
(0.00779762 -1.98614e-05 -1.07847e-24)
(0.00778326 -2.0627e-05 9.7505e-24)
(0.00776879 -2.12067e-05 -5.67736e-24)
(0.0077543 -2.16111e-05 7.57411e-25)
(0.00773989 -2.18502e-05 -7.44803e-25)
(0.00772563 -2.19309e-05 -7.33488e-25)
(0.00771162 -2.18569e-05 -1.59386e-25)
(0.00769793 -2.16291e-05 1.23649e-24)
(0.00768464 -2.12489e-05 1.84695e-25)
(0.00767184 -2.07206e-05 -6.2068e-25)
(0.00765957 -2.00498e-05 -6.893e-26)
(0.00646645 -1.04485e-05 -3.8645e-25)
(0.0064551 -1.15684e-05 -1.19188e-25)
(0.00644315 -1.25979e-05 -6.00516e-24)
(0.00643062 -1.34911e-05 1.69342e-24)
(0.00641765 -1.4238e-05 -4.03491e-24)
(0.00640435 -1.48452e-05 3.05834e-24)
(0.00639083 -1.53189e-05 5.37902e-24)
(0.00637717 -1.56661e-05 3.79453e-24)
(0.00636349 -1.58933e-05 -5.19736e-24)
(0.00634986 -1.60045e-05 1.55904e-24)
(0.00633638 -1.60013e-05 1.19374e-24)
(0.00632312 -1.58832e-05 -1.56346e-24)
(0.00631016 -1.56509e-05 8.22594e-25)
(0.0062976 -1.53065e-05 -8.5967e-27)
(0.0062855 -1.4854e-05 1.31539e-25)
(0.0051994 -6.95994e-06 -1.51568e-24)
(0.00518963 -7.75744e-06 -2.0175e-24)
(0.00517917 -8.49708e-06 -2.99616e-25)
(0.00516808 -9.13835e-06 4.96939e-24)
(0.00515649 -9.68092e-06 -3.40816e-24)
(0.00514451 -1.01294e-05 -5.81126e-25)
(0.00513222 -1.04876e-05 5.24841e-24)
(0.00511974 -1.07595e-05 -6.23773e-26)
(0.00510714 -1.09492e-05 -1.05878e-24)
(0.00509452 -1.10587e-05 -3.43079e-24)
(0.00508195 -1.10886e-05 4.98021e-25)
(0.00506952 -1.10379e-05 2.13258e-24)
(0.00505731 -1.09067e-05 -2.66403e-25)
(0.0050454 -1.06956e-05 -1.9632e-25)
(0.00503387 -1.04069e-05 1.16913e-25)
(0.0040431 -4.31155e-06 -3.31751e-25)
(0.00403499 -4.84231e-06 2.47952e-26)
(0.00402618 -5.33154e-06 2.40398e-24)
(0.00401675 -5.75459e-06 1.53173e-24)
(0.00400682 -6.11648e-06 -1.14155e-24)
(0.00399646 -6.41998e-06 -2.62089e-24)
(0.00398577 -6.6669e-06 1.00784e-24)
(0.00397484 -6.8595e-06 -4.11368e-24)
(0.00396375 -6.99989e-06 3.14617e-24)
(0.00395258 -7.08903e-06 1.47292e-24)
(0.00394139 -7.12694e-06 -9.9901e-26)
(0.00393027 -7.11267e-06 -1.48506e-24)
(0.0039193 -7.04596e-06 2.34313e-25)
(0.00390855 -6.9267e-06 -1.41654e-25)
(0.00389809 -6.75568e-06 6.05963e-26)
(0.00299002 -2.39719e-06 -6.11805e-25)
(0.00298366 -2.72164e-06 2.23152e-26)
(0.00297666 -3.01172e-06 1.93744e-24)
(0.0029691 -3.26114e-06 -1.20733e-24)
(0.00296107 -3.47628e-06 4.74796e-24)
(0.00295265 -3.6585e-06 -8.56191e-24)
(0.00294391 -3.8086e-06 6.78134e-24)
(0.00293492 -3.92765e-06 -5.48629e-24)
(0.00292575 -4.01669e-06 3.80316e-24)
(0.00291647 -4.07617e-06 -2.32966e-24)
(0.00290713 -4.10601e-06 7.83439e-25)
(0.00289782 -4.10551e-06 1.05368e-25)
(0.00288858 -4.07443e-06 1.3146e-25)
(0.00287949 -4.01242e-06 -1.53478e-25)
(0.00287061 -3.91944e-06 2.51454e-26)
(0.00203279 -1.11168e-06 9.2992e-25)
(0.00202824 -1.28702e-06 9.7379e-25)
(0.00202315 -1.43413e-06 -4.18635e-24)
(0.00201763 -1.55908e-06 3.02184e-24)
(0.00201172 -1.66641e-06 -4.50871e-26)
(0.00200549 -1.75679e-06 7.128e-25)
(0.00199899 -1.83073e-06 -9.08593e-25)
(0.00199227 -1.88896e-06 -1.76962e-24)
(0.00198539 -1.93221e-06 1.71879e-24)
(0.0019784 -1.96095e-06 1.4216e-25)
(0.00197133 -1.97538e-06 -1.21987e-24)
(0.00196425 -1.97531e-06 4.40592e-25)
(0.00195721 -1.9608e-06 2.2166e-25)
(0.00195025 -1.93135e-06 -2.87482e-26)
(0.00194343 -1.88582e-06 -1.69367e-26)
(0.00116428 -3.46714e-07 -9.40026e-25)
(0.00116152 -3.94171e-07 2.84357e-24)
(0.00115842 -4.34104e-07 1.62305e-24)
(0.00115503 -4.70724e-07 -2.99382e-24)
(0.00115139 -5.03765e-07 -3.47066e-25)
(0.00114753 -5.3265e-07 -2.95737e-25)
(0.00114349 -5.57399e-07 8.63868e-25)
(0.0011393 -5.783e-07 -1.42923e-24)
(0.00113499 -5.95754e-07 1.85753e-24)
(0.00113059 -6.10105e-07 -9.10789e-25)
(0.00112613 -6.21586e-07 -5.34201e-25)
(0.00112165 -6.30224e-07 3.05613e-25)
(0.00111718 -6.3611e-07 -2.96732e-25)
(0.00111274 -6.37528e-07 2.77422e-25)
(0.00110838 -6.30624e-07 -3.66876e-26)
(0.000377655 3.31169e-09 -6.75098e-27)
(0.000376647 9.57555e-08 5.53153e-25)
(0.00037552 1.60192e-07 6.12273e-25)
(0.000374297 1.99773e-07 -9.78875e-25)
(0.000372987 2.19236e-07 1.93608e-24)
(0.000371601 2.22337e-07 -2.10446e-24)
(0.000370148 2.12121e-07 1.3027e-25)
(0.000368641 1.9119e-07 1.05485e-24)
(0.000367088 1.61808e-07 -1.45402e-24)
(0.0003655 1.25961e-07 -2.2792e-25)
(0.000363888 8.54073e-08 8.90047e-25)
(0.000362264 4.17313e-08 -3.80837e-25)
(0.000360637 -3.69526e-09 -1.12927e-25)
(0.000359021 -4.84965e-08 9.04007e-26)
(0.000357426 -8.91277e-08 -3.04325e-27)
(0.000953473 -0.000238873 6.80978e-26)
(0.0010954 -0.000148475 1.64265e-24)
(0.00133481 -5.87188e-05 -4.57738e-24)
(0.00158041 1.15705e-05 6.36829e-24)
(0.00181736 6.42619e-05 -2.38319e-24)
(0.00205029 0.000100185 -2.10391e-24)
(0.00227866 0.000122002 2.31006e-24)
(0.00250256 0.000131952 -4.37386e-24)
(0.00272234 0.000131986 3.61839e-25)
(0.00293833 0.000123868 2.6404e-24)
(0.0031509 0.000109157 -4.79323e-25)
(0.00336043 8.92608e-05 4.96184e-25)
(0.00356735 6.54825e-05 -5.91436e-26)
(0.00377206 3.91622e-05 2.45806e-25)
(0.00397515 1.18109e-05 -8.8254e-25)
(0.00417729 -1.463e-05 4.59503e-25)
(0.00437998 -3.77663e-05 -8.72139e-26)
(0.00458521 -5.43991e-05 3.42114e-26)
(0.00479702 -6.11429e-05 8.02487e-26)
(0.00502041 -5.4439e-05 -3.45554e-26)
(0.00526313 -3.28523e-05 -1.62464e-28)
(0.00553143 2.12845e-06 -1.71155e-28)
(0.00580634 3.89855e-05 1.02692e-26)
(0.00605298 6.36596e-05 7.65738e-26)
(0.00625747 7.19138e-05 -1.33766e-25)
(0.00641889 6.36365e-05 -1.34139e-25)
(0.00653904 3.98072e-05 -6.57935e-27)
(0.00662046 1.55147e-06 3.31754e-25)
(0.00666479 -5.01339e-05 3.50034e-25)
(0.00667256 -0.000113658 -6.28464e-25)
(0.00664332 -0.000186131 -8.98552e-26)
(0.00657613 -0.000263009 6.41088e-25)
(0.00647011 -0.000338147 -4.46966e-25)
(0.00632496 -0.000404052 -1.64918e-24)
(0.00614115 -0.000452135 1.62106e-24)
(0.0059199 -0.000472924 8.16979e-24)
(0.00566299 -0.000455979 -2.53054e-24)
(0.0053727 -0.000389239 1.76973e-24)
(0.00505197 -0.000257544 8.67138e-25)
(0.004705 -4.07514e-05 -1.10252e-23)
(0.00433678 0.000285025 -1.3265e-25)
(0.00395416 0.000735956 4.50546e-24)
(0.00354761 0.00128221 1.3579e-24)
(0.00313623 0.00179613 -6.25025e-24)
(0.00290662 0.00189273 -3.02465e-25)
(0.00180434 -0.000324346 -1.94724e-24)
(0.00186498 -0.000271893 -2.55293e-24)
(0.00201519 -0.000185793 5.45569e-24)
(0.00220339 -0.000108161 2.30021e-24)
(0.00240386 -4.46773e-05 -8.00474e-24)
(0.00261122 2.42774e-06 8.23827e-24)
(0.00282068 3.46782e-05 -2.91231e-24)
(0.0030298 5.4084e-05 2.12899e-24)
(0.0032375 6.25892e-05 -2.8247e-24)
(0.00344321 6.20272e-05 4.1601e-26)
(0.00364671 5.40472e-05 -1.34968e-24)
(0.00384798 4.01502e-05 2.6394e-24)
(0.00404711 2.17249e-05 -1.39855e-24)
(0.00424426 1.84445e-07 -1.06748e-24)
(0.00443976 -2.29059e-05 -4.86029e-25)
(0.00463403 -4.5592e-05 1.27847e-24)
(0.00482828 -6.54884e-05 -2.5577e-26)
(0.00502413 -7.94754e-05 3.36655e-25)
(0.00522519 -8.42497e-05 -2.85166e-26)
(0.00543591 -7.63384e-05 -4.45312e-26)
(0.00566361 -5.42653e-05 -1.04997e-27)
(0.00591435 -1.92094e-05 -3.68126e-27)
(0.0061714 1.7892e-05 4.83451e-26)
(0.00640318 4.36358e-05 1.46817e-25)
(0.00659676 5.39464e-05 -6.70145e-26)
(0.00675093 4.85694e-05 -7.26233e-25)
(0.00686694 2.83837e-05 1.03311e-24)
(0.00694673 -5.41591e-06 -7.31001e-25)
(0.00699151 -5.16582e-05 2.50645e-25)
(0.00700159 -0.00010853 -2.80115e-26)
(0.00697649 -0.000172965 -3.15507e-25)
(0.00691544 -0.000240317 1.70943e-24)
(0.00681786 -0.000304438 -2.85482e-24)
(0.00668391 -0.000357929 9.1339e-24)
(0.00651467 -0.000392348 -1.35819e-23)
(0.00631223 -0.000398393 3.54121e-24)
(0.0060797 -0.000365837 1.39087e-23)
(0.00582135 -0.000283001 -4.03489e-24)
(0.00554322 -0.000135556 -1.07504e-23)
(0.00525476 9.51442e-05 -6.26647e-24)
(0.00497065 0.000431334 1.42844e-23)
(0.00471552 0.000888866 -1.35474e-23)
(0.00451541 0.00143839 -2.71636e-24)
(0.00441212 0.00194215 8.75115e-24)
(0.00444565 0.0019788 2.59402e-24)
(0.00281246 -0.000334351 -2.17553e-26)
(0.0028236 -0.000325486 -2.97778e-24)
(0.00289009 -0.00027353 5.68701e-24)
(0.0030106 -0.000206914 4.39291e-24)
(0.00315946 -0.00014392 -7.31004e-24)
(0.00332716 -9.18968e-05 1.66802e-25)
(0.0035058 -5.25655e-05 6.47283e-25)
(0.0036903 -2.54697e-05 6.59324e-24)
(0.00387776 -9.37367e-06 -7.75996e-24)
(0.00406632 -2.7584e-06 4.54965e-24)
(0.00425491 -4.09713e-06 1.20355e-24)
(0.00444283 -1.19167e-05 -7.03838e-24)
(0.0046297 -2.48154e-05 2.51898e-24)
(0.00481527 -4.13488e-05 8.90211e-25)
(0.00499955 -5.99268e-05 -1.57833e-24)
(0.00518261 -7.86049e-05 2.24471e-24)
(0.0053653 -9.50215e-05 -1.32768e-24)
(0.00554881 -0.000106142 9.63242e-26)
(0.00573624 -0.000108759 1.19932e-25)
(0.00593142 -9.94943e-05 4.43909e-26)
(0.00614118 -7.68396e-05 4.07623e-27)
(0.00637124 -4.16688e-05 -3.72696e-27)
(0.00660729 -4.34474e-06 -5.5522e-26)
(0.00682136 2.24103e-05 2.25138e-25)
(0.00700159 3.47213e-05 -5.01724e-25)
(0.00714649 3.22143e-05 3.1639e-25)
(0.00725671 1.56723e-05 -9.0973e-25)
(0.00733361 -1.36465e-05 1.21359e-24)
(0.00737791 -5.43642e-05 -8.86803e-25)
(0.00738967 -0.000104477 4.5028e-25)
(0.00736842 -0.000160746 9.11098e-25)
(0.00731354 -0.000218432 -1.96931e-24)
(0.0072248 -0.000271405 9.58837e-25)
(0.0071028 -0.000312426 4.66758e-24)
(0.00694932 -0.000333309 -1.16211e-23)
(0.00676737 -0.000325129 1.84185e-23)
(0.0065614 -0.000278241 -1.22675e-23)
(0.00633768 -0.00018199 1.7098e-23)
(0.00610517 -2.40484e-05 -3.24299e-23)
(0.00587766 0.00021026 1.23034e-23)
(0.00567649 0.000536604 4.19682e-24)
(0.00553485 0.000961967 6.35856e-24)
(0.0054894 0.00145009 -7.88931e-24)
(0.00556429 0.00186684 2.06099e-24)
(0.00572406 0.00188105 -1.20849e-24)
(0.00395702 -0.000319136 -8.02127e-25)
(0.00394142 -0.000337093 -1.16823e-24)
(0.00395557 -0.000316681 -4.85746e-24)
(0.004011 -0.00027412 1.53764e-24)
(0.00410345 -0.000222527 1.00401e-24)
(0.00422237 -0.000173819 3.59061e-24)
(0.00436007 -0.000132937 -7.00994e-24)
(0.00451031 -0.000101715 2.78882e-24)
(0.00466877 -8.02598e-05 8.44064e-24)
(0.00483242 -6.78306e-05 -2.30154e-24)
(0.00499918 -6.33258e-05 -2.01935e-24)
(0.0051676 -6.54938e-05 -3.02829e-25)
(0.00533669 -7.30489e-05 9.02908e-25)
(0.00550568 -8.45974e-05 -1.66304e-24)
(0.00567416 -9.85811e-05 4.27387e-25)
(0.00584179 -0.000113098 -2.77163e-26)
(0.00600901 -0.00012585 -3.14005e-25)
(0.00617649 -0.00013391 3.27392e-25)
(0.00634677 -0.000134187 3.25028e-25)
(0.00652299 -0.000123424 -6.95051e-26)
(0.00671138 -0.000100099 -9.07122e-28)
(0.00691722 -6.47934e-05 -2.1037e-27)
(0.00712874 -2.73072e-05 -9.5922e-26)
(0.00732186 3.55509e-07 -8.84301e-26)
(0.00748592 1.45674e-05 -5.4922e-25)
(0.00761913 1.48626e-05 8.15939e-25)
(0.00772156 1.93437e-06 -8.72731e-25)
(0.00779393 -2.2882e-05 1.64059e-24)
(0.0078365 -5.8027e-05 -1.22466e-24)
(0.00784906 -0.000101302 4.39947e-25)
(0.0078311 -0.000149329 9.41423e-26)
(0.00778221 -0.000197318 -1.76696e-25)
(0.00770248 -0.000239219 -2.47185e-25)
(0.007593 -0.000268057 -1.30392e-24)
(0.00745621 -0.000276075 1.93978e-24)
(0.00729604 -0.000254995 -5.50334e-24)
(0.00711816 -0.000196182 2.50629e-23)
(0.00693051 -9.06568e-05 -1.33732e-23)
(0.00674411 7.08909e-05 -5.95862e-25)