/*--------------------------------*- C++ -*----------------------------------*\
| =========                 |                                                 |
| \\      /  F ield         | OpenFOAM: The Open Source CFD Toolbox           |
|  \\    /   O peration     | Version:  2312                                  |
|   \\  /    A nd           | Website:  www.openfoam.com                      |
|    \\/     M anipulation  |                                                 |
\*---------------------------------------------------------------------------*/
FoamFile
{
    version     2.0;
    format      ascii;
    arch        "LSB;label=32;scalar=64";
    class       volVectorField;
    location    "41.25";
    object      U;
}
// * * * * * * * * * * * * * * * * * * * * * * * * * * * * * * * * * * * * * //

dimensions      [0 1 -1 0 0 0 0];

internalField   nonuniform List<vector> 
4800
(
(0.000459196 3.42105e-07 -2.20717e-26)
(0.000450685 3.3392e-07 -1.50882e-25)
(0.0004458 3.09024e-07 1.94847e-25)
(0.000443215 2.66858e-07 8.44636e-26)
(0.000442371 2.17617e-07 1.21147e-24)
(0.000442672 1.76427e-07 -2.86666e-24)
(0.000443781 1.31257e-07 2.64411e-24)
(0.000445688 3.67519e-08 -3.77067e-24)
(0.000448399 -1.09814e-07 1.22139e-24)
(0.000452068 -3.36551e-07 4.05407e-24)
(0.000457049 -7.98087e-07 -1.25165e-24)
(0.000464635 -2.12539e-06 -1.10622e-25)
(0.000481962 -7.10726e-06 -1.50401e-24)
(0.000525969 -2.70732e-05 7.18233e-25)
(0.00059668 -8.54695e-05 -5.76712e-25)
(0.00142206 1.82936e-06 -6.9489e-26)
(0.00139695 1.27193e-06 8.65109e-26)
(0.00138257 8.37713e-07 -7.59883e-25)
(0.00137497 4.46716e-07 5.76068e-25)
(0.00137245 8.04118e-08 1.73613e-24)
(0.00137317 -2.62374e-07 -2.73095e-24)
(0.00137617 -6.23723e-07 -7.46686e-25)
(0.00138149 -1.15465e-06 -1.50684e-25)
(0.00138898 -1.91931e-06 6.17419e-24)
(0.0013991 -3.10769e-06 -4.53646e-24)
(0.00141289 -5.37606e-06 4.93599e-25)
(0.00143305 -1.09028e-05 7.45366e-25)
(0.0014682 -2.70908e-05 -1.10325e-24)
(0.00152807 -7.62659e-05 -3.51351e-25)
(0.00159061 -0.000184279 1.46573e-24)
(0.00248928 5.77254e-06 -4.94823e-26)
(0.00244722 3.96269e-06 5.07022e-26)
(0.00242315 2.58088e-06 4.96405e-25)
(0.00241043 1.3726e-06 -1.16752e-24)
(0.0024061 2.46735e-07 1.1112e-24)
(0.00240706 -8.12154e-07 9.99962e-25)
(0.00241164 -1.98753e-06 -2.63409e-24)
(0.00242004 -3.56616e-06 -1.59301e-24)
(0.00243168 -5.74368e-06 3.83634e-24)
(0.00244715 -9.08215e-06 1.42011e-24)
(0.00246756 -1.50315e-05 -4.95251e-24)
(0.00249503 -2.74249e-05 -7.41384e-25)
(0.00253348 -5.53663e-05 2.10992e-24)
(0.00258138 -0.000116921 3.33927e-24)
(0.00261451 -0.000216918 -1.72752e-24)
(0.00366785 1.27139e-05 1.82246e-26)
(0.00360873 8.74199e-06 -1.2515e-25)
(0.00357486 5.71886e-06 5.44596e-25)
(0.0035569 3.09822e-06 5.52032e-25)
(0.00355047 6.56501e-07 -5.66702e-25)
(0.00355135 -1.51652e-06 -3.05047e-24)
(0.00355701 -4.00751e-06 -2.04215e-24)
(0.00356782 -7.24623e-06 7.84435e-24)
(0.00358252 -1.15294e-05 3.16439e-24)
(0.00360152 -1.78465e-05 -4.59787e-24)
(0.00362534 -2.82039e-05 -1.83699e-24)
(0.0036544 -4.69266e-05 -1.39016e-24)
(0.00368798 -8.15418e-05 4.56636e-26)
(0.00371911 -0.000141111 1.02495e-24)
(0.00373076 -0.000219427 4.98166e-27)
(0.00496265 2.32259e-05 -3.33825e-26)
(0.00488694 1.59859e-05 -2.00281e-25)
(0.0048434 1.04889e-05 -1.15928e-25)
(0.00482013 5.77281e-06 3.37477e-25)
(0.00481117 1.48065e-06 -9.02554e-25)
(0.00481155 -2.44967e-06 2.22266e-24)
(0.0048177 -6.65151e-06 -3.97916e-25)
(0.00482993 -1.20738e-05 1.32962e-24)
(0.0048463 -1.89254e-05 -7.40306e-24)
(0.00486672 -2.85046e-05 1.39438e-23)
(0.00489081 -4.28618e-05 -1.34352e-23)
(0.00491739 -6.55118e-05 7.04874e-24)
(0.00494328 -0.000100933 -6.49768e-24)
(0.00496126 -0.000151703 6.0917e-24)
(0.00496195 -0.000209916 -2.41529e-24)
(0.00637488 3.79795e-05 4.41073e-26)
(0.00628405 2.61951e-05 1.54485e-25)
(0.00623147 1.72605e-05 -8.0383e-25)
(0.00620308 9.68654e-06 -4.75518e-25)
(0.00619134 2.88007e-06 1.32035e-24)
(0.00619055 -3.32504e-06 4.52007e-25)
(0.00619673 -9.76278e-06 -3.49193e-24)
(0.00620925 -1.77176e-05 8.32794e-24)
(0.00622581 -2.73493e-05 -1.07314e-23)
(0.00624569 -3.99996e-05 2.58963e-24)
(0.00626769 -5.73289e-05 7.69913e-24)
(0.00628971 -8.14565e-05 -1.06142e-23)
(0.00630823 -0.000114081 5.31887e-24)
(0.006318 -0.000154528 5.33237e-24)
(0.00631499 -0.00019665 -4.04891e-24)
(0.00789986 5.74965e-05 3.65294e-26)
(0.00779716 3.98087e-05 -2.1308e-25)
(0.00773718 2.6388e-05 7.45025e-25)
(0.00770443 1.51457e-05 -1.01629e-24)
(0.00769002 5.14985e-06 -3.31423e-24)
(0.0076876 -3.82404e-06 5.64448e-24)
(0.00769337 -1.31174e-05 -3.35218e-24)
(0.00770515 -2.37192e-05 1.12266e-23)
(0.00772065 -3.60859e-05 -7.65266e-24)
(0.00773853 -5.12876e-05 -3.52199e-24)
(0.0077571 -7.03809e-05 -6.8033e-24)
(0.00777411 -9.41946e-05 6.28705e-24)
(0.00778678 -0.000122676 1.74974e-24)
(0.00779205 -0.00015409 1.45796e-24)
(0.00778882 -0.000184474 -1.28152e-24)
(0.00952484 8.17845e-05 -5.2706e-26)
(0.0094162 5.69506e-05 7.04329e-25)
(0.00935209 3.80273e-05 -1.61272e-24)
(0.00931674 2.23272e-05 -1.24526e-24)
(0.00930051 8.52881e-06 5.23641e-25)
(0.00929673 -3.85527e-06 9.43872e-25)
(0.00930158 -1.6205e-05 3.20319e-24)
(0.00931208 -2.9576e-05 -8.56779e-24)
(0.00932579 -4.44456e-05 -4.4143e-24)
(0.00934095 -6.15363e-05 1.24328e-23)
(0.00935578 -8.13244e-05 -3.74774e-24)
(0.00936835 -0.00010379 1.28049e-23)
(0.00937688 -0.000128139 -6.7254e-24)
(0.00937982 -0.000152714 -2.09213e-24)
(0.00937749 -0.000175202 1.23155e-24)
(0.011228 0.000109826 -6.93945e-27)
(0.0111226 7.70606e-05 3.88799e-25)
(0.0110598 5.18622e-05 -5.5055e-25)
(0.0110251 3.10645e-05 1.26109e-24)
(0.011009 1.29737e-05 -7.3656e-24)
(0.0110049 -3.22637e-06 7.73405e-24)
(0.0110091 -1.88637e-05 -1.18059e-23)
(0.0110184 -3.49555e-05 7.32804e-24)
(0.0110302 -5.19753e-05 5.33044e-24)
(0.0110427 -7.03223e-05 1.12768e-23)
(0.0110543 -9.00623e-05 -1.46973e-23)
(0.0110636 -0.000110794 -2.61194e-24)
(0.0110696 -0.000131639 1.30539e-24)
(0.0110715 -0.000151408 8.5895e-24)
(0.0110703 -0.000168856 -3.46217e-24)
(0.0129815 0.000139023 3.71682e-26)
(0.0128911 9.84312e-05 -1.62304e-25)
(0.012837 6.67245e-05 7.12e-25)
(0.0128076 4.0534e-05 -2.44054e-24)
(0.0127946 1.78998e-05 3.64001e-24)
(0.0127923 -2.27015e-06 -4.58875e-24)
(0.012797 -2.12225e-05 7.55232e-24)
(0.0128059 -3.98767e-05 1.22111e-24)
(0.0128165 -5.86688e-05 -1.01517e-23)
(0.0128272 -7.77865e-05 1.41779e-23)
(0.0128367 -9.71035e-05 -1.55472e-23)
(0.0128441 -0.000116175 -4.40458e-24)
(0.0128489 -0.000134331 7.90753e-24)
(0.0128508 -0.00015087 2.2892e-24)
(0.0128509 -0.000165189 -9.91524e-25)
(0.0147615 0.000165171 1.36289e-25)
(0.0146967 0.000117985 -1.2361e-24)
(0.0146587 8.03212e-05 -1.94514e-24)
(0.0146397 4.89834e-05 4.64828e-24)
(0.0146335 2.19418e-05 1.97516e-24)
(0.0146354 -2.03832e-06 -1.2383e-23)
(0.0146426 -2.40766e-05 3.90385e-24)
(0.0146524 -4.49929e-05 2.75726e-24)
(0.0146631 -6.51834e-05 -1.12097e-23)
(0.0146733 -8.47517e-05 1.18553e-23)
(0.0146822 -0.000103557 -9.04331e-24)
(0.0146892 -0.000121287 2.34262e-23)
(0.0146941 -0.000137548 -1.10749e-23)
(0.0146969 -0.000152012 6.43765e-24)
(0.0146985 -0.000164451 -1.73754e-24)
(0.0165644 0.000183983 -3.20103e-26)
(0.0165286 0.000132093 7.92587e-25)
(0.0165103 8.96722e-05 -1.60125e-24)
(0.0165046 5.39699e-05 -7.8396e-25)
(0.0165073 2.30761e-05 8.79125e-24)
(0.0165154 -4.22867e-06 -1.39197e-24)
(0.0165264 -2.88885e-05 -1.51733e-23)
(0.0165386 -5.16325e-05 1.7425e-23)
(0.0165507 -7.28503e-05 -3.97679e-24)
(0.0165617 -9.26649e-05 -1.31537e-23)
(0.0165713 -0.000111024 1.3842e-23)
(0.016579 -0.000127795 7.18593e-24)
(0.0165851 -0.000142829 -6.28991e-24)
(0.0165894 -0.000156044 -1.04731e-23)
(0.0165929 -0.000167426 8.67073e-25)
(0.0184144 0.000194248 -2.29536e-26)
(0.0184006 0.000138977 -8.1824e-25)
(0.0183981 9.29145e-05 4.14784e-24)
(0.0184035 5.37527e-05 2.4442e-25)
(0.0184141 1.97195e-05 2.28827e-24)
(0.0184275 -1.02798e-05 -8.394e-24)
(0.0184422 -3.70048e-05 6.98138e-24)
(0.0184568 -6.11202e-05 1.45997e-24)
(0.0184705 -8.30492e-05 1.37862e-23)
(0.0184828 -0.000102997 -2.15989e-23)
(0.0184935 -0.000121039 -9.53588e-24)
(0.0185024 -0.000137205 -6.08683e-24)
(0.01851 -0.000151527 1.16417e-23)
(0.018516 -0.000164073 -3.13454e-25)
(0.0185213 -0.000174947 1.09582e-24)
(0.0203416 0.000199341 -2.94732e-26)
(0.0203375 0.000140825 7.16726e-25)
(0.0203421 9.14721e-05 -1.05371e-24)
(0.0203524 4.92908e-05 -7.31986e-27)
(0.020366 1.25825e-05 1.63657e-24)
(0.0203814 -1.96493e-05 4.12484e-24)
(0.0203972 -4.80555e-05 -1.59447e-23)
(0.0204124 -7.32752e-05 1.45672e-24)
(0.0204264 -9.57916e-05 8.01674e-24)
(0.0204389 -0.000115918 -3.54513e-24)
(0.02045 -0.000133855 9.74676e-24)
(0.0204595 -0.000149767 6.62097e-24)
(0.0204679 -0.000163802 -1.209e-23)
(0.0204749 -0.000176119 8.08057e-24)
(0.0204814 -0.000186884 -6.70643e-24)
(0.0223387 0.000203615 -7.76893e-25)
(0.0223366 0.000141815 8.55302e-25)
(0.0223417 8.92333e-05 1.00556e-24)
(0.0223512 4.40874e-05 -6.64675e-24)
(0.0223634 4.83502e-06 5.96597e-24)
(0.0223769 -2.94136e-05 -4.55086e-24)
(0.0223909 -5.93616e-05 3.26422e-24)
(0.0224042 -8.5669e-05 -2.30174e-23)
(0.0224165 -0.000108884 3.32246e-23)
(0.0224276 -0.000129417 -1.92965e-23)
(0.0224376 -0.000147578 1.71783e-23)
(0.0224464 -0.000163625 1.40325e-23)
(0.0224544 -0.000177786 -2.44981e-23)
(0.0224612 -0.000190272 7.90418e-24)
(0.0224677 -0.000201282 -3.28328e-25)
(0.024338 0.000207786 -2.71679e-26)
(0.024338 0.000143522 9.58159e-25)
(0.0243428 8.83464e-05 -1.08088e-24)
(0.0243503 4.06971e-05 -1.6086e-25)
(0.0243598 -7.27207e-07 2.05053e-24)
(0.0243704 -3.67365e-05 -3.67359e-24)
(0.0243813 -6.80968e-05 3.58143e-24)
(0.0243918 -9.55141e-05 -1.16038e-23)
(0.0244015 -0.000119585 2.65156e-23)
(0.0244103 -0.000140783 -3.39611e-23)
(0.0244183 -0.000159487 2.77554e-23)
(0.0244254 -0.000176021 -9.35797e-24)
(0.0244321 -0.000190662 4.67293e-25)
(0.0244378 -0.000203653 2.0752e-24)
(0.0244435 -0.000215209 -4.01855e-24)
(0.0262302 0.000209426 -2.292e-24)
(0.0262348 0.000144214 5.57095e-24)
(0.0262412 8.75782e-05 -3.58421e-24)
(0.0262485 3.84037e-05 2.45978e-25)
(0.0262567 -4.35502e-06 1.38654e-24)
(0.0262653 -4.15331e-05 -1.8895e-24)
(0.0262741 -7.39173e-05 -2.56224e-24)
(0.0262823 -0.000102256 -6.68763e-24)
(0.0262899 -0.000127157 3.02237e-24)
(0.0262967 -0.000149105 1.64832e-23)
(0.0263029 -0.000168502 -8.80556e-24)
(0.0263085 -0.000185702 5.33442e-24)
(0.0263137 -0.000201008 -2.1957e-24)
(0.0263182 -0.00021468 -6.52105e-24)
(0.0263227 -0.000226937 3.33796e-24)
(0.0278878 0.000206243 7.77421e-25)
(0.0278973 0.00014189 -1.52251e-24)
(0.0279064 8.52746e-05 -3.0923e-24)
(0.0279148 3.56345e-05 7.24308e-24)
(0.0279229 -7.69913e-06 -1.75253e-24)
(0.0279309 -4.54103e-05 -2.01929e-24)
(0.0279385 -7.83486e-05 1.46775e-25)
(0.0279455 -0.000107305 -1.26857e-24)
(0.0279519 -0.000132873 8.87571e-25)
(0.0279576 -0.000155513 -1.84591e-24)
(0.0279628 -0.000175617 4.17522e-24)
(0.0279674 -0.000193539 2.43274e-24)
(0.0279717 -0.000209581 -8.9591e-24)
(0.0279755 -0.000224002 6.32912e-24)
(0.0279793 -0.000237015 -1.31767e-24)
(0.0291576 0.000197743 2.38613e-24)
(0.0291712 0.000135829 5.45633e-24)
(0.0291826 8.09406e-05 -1.15385e-23)
(0.0291918 3.23074e-05 -4.97231e-24)
(0.0292004 -1.06528e-05 9.30021e-24)
(0.0292086 -4.83104e-05 4.6e-24)
(0.0292162 -8.14478e-05 4.31931e-25)
(0.0292229 -0.000110811 -7.67481e-24)
(0.0292289 -0.000136936 -1.83748e-24)
(0.0292343 -0.000160242 3.44539e-24)
(0.0292392 -0.000181096 -8.08686e-25)
(0.0292435 -0.000199831 -1.91535e-26)
(0.0292474 -0.00021673 -1.21274e-25)
(0.0292507 -0.000232031 2.01815e-25)
(0.0292539 -0.000245926 -1.04965e-25)
(0.0298354 0.00018096 -6.50502e-24)
(0.0298528 0.000123087 -1.68895e-23)
(0.0298665 7.12743e-05 5.05214e-24)
(0.0298774 2.53002e-05 3.73318e-23)
(0.0298865 -1.55595e-05 -1.14437e-23)
(0.0298942 -5.18003e-05 -8.30563e-24)
(0.0299003 -8.41089e-05 5.53921e-24)
(0.0299049 -0.000113029 1.67996e-23)
(0.0299084 -0.000138957 -3.20887e-23)
(0.0299111 -0.000162249 1.2247e-23)
(0.0299132 -0.00018324 -1.62377e-24)
(0.0299147 -0.000202233 4.43077e-24)
(0.0299157 -0.000219473 2.49296e-24)
(0.0299162 -0.000235164 -2.99814e-24)
(0.0299165 -0.000249472 1.0318e-24)
(0.0296865 0.000159993 1.06922e-23)
(0.0297066 0.000107051 -2.57524e-23)
(0.0297232 5.88459e-05 3.1944e-24)
(0.0297365 1.52931e-05 4.73347e-23)
(0.0297469 -2.30886e-05 -4.95639e-23)
(0.0297553 -5.72461e-05 2.1085e-23)
(0.0297619 -8.7988e-05 2.47536e-23)
(0.0297669 -0.000115716 -5.854e-23)
(0.0297708 -0.000140713 -2.58734e-24)
(0.0297737 -0.000163294 2.31201e-23)
(0.0297758 -0.000183766 8.01956e-24)
(0.0297772 -0.000202392 -6.70703e-24)
(0.0297779 -0.000219372 6.23275e-24)
(0.0297781 -0.000234878 -2.7981e-24)
(0.0297777 -0.000249046 1.06389e-24)
(0.0287896 0.000136293 6.82641e-24)
(0.0288081 8.9092e-05 -1.48912e-23)
(0.0288212 4.58497e-05 -1.21024e-23)
(0.0288311 6.69153e-06 5.67406e-23)
(0.0288392 -2.83061e-05 -5.55065e-23)
(0.0288445 -5.9968e-05 4.75111e-24)
(0.0288476 -8.873e-05 1.05067e-23)
(0.0288493 -0.00011482 7.31665e-24)
(0.02885 -0.000138491 9.08146e-24)
(0.0288497 -0.000160035 -5.06795e-23)
(0.0288486 -0.000179703 3.17462e-23)
(0.0288467 -0.000197696 -2.63965e-25)
(0.0288441 -0.000214163 2.15195e-23)
(0.028841 -0.000229238 -1.01271e-23)
(0.0288373 -0.000243025 -2.53453e-24)
(0.0272763 0.000111938 1.72844e-23)
(0.0272978 7.09245e-05 -3.13617e-23)
(0.0273145 3.34593e-05 6.21715e-24)
(0.0273272 -3.83132e-07 -1.82994e-23)
(0.0273365 -3.17262e-05 -2.67472e-23)
(0.0273427 -6.06425e-05 8.59936e-23)
(0.0273464 -8.70568e-05 -3.56624e-23)
(0.0273483 -0.000111117 1.13207e-23)
(0.0273486 -0.000133091 -6.82116e-24)
(0.0273477 -0.000153225 -2.15725e-23)
(0.0273454 -0.000171697 4.29088e-23)
(0.0273422 -0.000188644 -2.70581e-23)
(0.0273379 -0.000204173 3.06236e-24)
(0.0273329 -0.000218386 5.51932e-24)
(0.027327 -0.000231363 -7.32752e-25)
(0.0254401 8.95111e-05 6.72389e-24)
(0.0254622 5.40945e-05 -3.60705e-23)
(0.0254791 2.13369e-05 6.48044e-23)
(0.0254915 -8.92027e-06 -5.14234e-23)
(0.0255001 -3.69817e-05 5.54753e-23)
(0.0255057 -6.28504e-05 -1.72488e-23)
(0.0255086 -8.65502e-05 -1.29116e-23)
(0.0255093 -0.000108262 -1.63411e-23)
(0.0255082 -0.000128201 3.30875e-23)
(0.0255054 -0.000146539 1.93255e-24)
(0.0255011 -0.000163391 -3.55385e-23)
(0.0254955 -0.000178855 -6.10232e-24)
(0.0254887 -0.000193011 1.05714e-23)
(0.0254809 -0.000205936 -2.68623e-24)
(0.025472 -0.000217687 6.60007e-25)
(0.0234239 6.83506e-05 9.00094e-25)
(0.0234449 3.79385e-05 -1.3672e-23)
(0.0234605 9.60439e-06 -8.60034e-24)
(0.0234714 -1.6733e-05 6.73578e-23)
(0.0234783 -4.11215e-05 -6.8356e-23)
(0.023482 -6.36259e-05 2.05142e-23)
(0.0234828 -8.43713e-05 3.72681e-24)
(0.0234811 -0.000103498 -2.11217e-24)
(0.0234772 -0.000121126 -1.11079e-23)
(0.0234714 -0.000137357 5.09106e-23)
(0.0234639 -0.000152273 -4.16755e-23)
(0.0234549 -0.000165945 -2.61305e-24)
(0.0234444 -0.000178431 4.25421e-24)
(0.0234327 -0.000189783 4.82379e-24)
(0.0234197 -0.000200041 -3.89178e-24)
(0.0213261 5.01016e-05 1.34328e-24)
(0.0213446 2.45433e-05 1.27847e-23)
(0.0213575 6.25522e-07 -1.45914e-23)
(0.0213656 -2.16586e-05 -1.09325e-23)
(0.0213697 -4.23419e-05 7.23287e-23)
(0.0213703 -6.15342e-05 -5.5298e-23)
(0.0213678 -7.93307e-05 -9.28261e-25)
(0.0213627 -9.57946e-05 -1.29697e-23)
(0.0213551 -0.000110987 -1.46638e-24)
(0.0213454 -0.000124974 1.72684e-24)
(0.0213338 -0.000137817 -9.46162e-24)
(0.0213205 -0.000149565 6.59773e-24)
(0.0213056 -0.000160256 2.13329e-24)
(0.0212892 -0.000169923 2.30814e-24)
(0.0212715 -0.00017859 3.77911e-24)
(0.019214 3.58242e-05 9.57866e-24)
(0.0192288 1.48432e-05 -1.48498e-23)
(0.0192382 -4.89856e-06 -1.28396e-23)
(0.0192428 -2.33461e-05 3.93927e-23)
(0.0192433 -4.056e-05 -1.40655e-23)
(0.0192403 -5.66091e-05 -2.16254e-23)
(0.0192341 -7.15305e-05 7.36608e-24)
(0.0192251 -8.53526e-05 1.86208e-23)
(0.0192136 -9.81159e-05 -3.13719e-23)
(0.0191999 -0.000109867 3.26549e-23)
(0.0191841 -0.000120644 -1.86075e-23)
(0.0191665 -0.000130477 8.70127e-24)
(0.0191472 -0.000139389 -1.32302e-23)
(0.0191264 -0.000147401 1.40204e-23)
(0.0191042 -0.000154526 -3.77678e-24)
(0.0171359 2.54923e-05 -1.85768e-24)
(0.0171469 8.60132e-06 -6.72815e-24)
(0.0171526 -7.35184e-06 -2.22826e-23)
(0.0171537 -2.23189e-05 6.23891e-23)
(0.0171509 -3.63511e-05 -1.06426e-23)
(0.0171445 -4.9475e-05 -1.85226e-23)
(0.017135 -6.17016e-05 7.13489e-24)
(0.0171227 -7.30477e-05 -1.02203e-23)
(0.0171078 -8.35384e-05 -2.4559e-23)
(0.0170907 -9.31998e-05 2.34862e-23)
(0.0170715 -0.000102053 1.1331e-24)
(0.0170504 -0.000110114 -9.6947e-24)
(0.0170276 -0.000117396 1.09674e-23)
(0.0170034 -0.00012391 9.09382e-25)
(0.0169777 -0.000129666 -1.10877e-24)
(0.0151279 1.83831e-05 7.13938e-24)
(0.0151356 5.06476e-06 1.10738e-23)
(0.0151383 -7.55733e-06 -9.80235e-24)
(0.0151368 -1.9459e-05 -2.32524e-23)
(0.0151314 -3.06691e-05 3.24232e-23)
(0.0151226 -4.11871e-05 -3.67451e-23)
(0.0151107 -5.10113e-05 -2.33439e-24)
(0.0150961 -6.01487e-05 1.49064e-23)
(0.0150789 -6.86107e-05 5.52878e-24)
(0.0150595 -7.64089e-05 -1.30074e-23)
(0.015038 -8.35532e-05 -1.10477e-24)
(0.0150147 -9.00521e-05 3.00593e-23)
(0.0149896 -9.59105e-05 -1.16398e-23)
(0.0149631 -0.000101136 -3.40613e-24)
(0.0149353 -0.00010573 -2.51945e-25)
(0.0132157 1.35754e-05 -7.40597e-24)
(0.013221 3.29733e-06 9.5904e-24)
(0.0132218 -6.47912e-06 1.20281e-24)
(0.0132185 -1.57567e-05 2.13257e-23)
(0.0132116 -2.4538e-05 -1.70105e-23)
(0.0132014 -3.28042e-05 1.81702e-24)
(0.0131882 -4.05464e-05 -1.632e-24)
(0.0131724 -4.77645e-05 -5.97976e-24)
(0.0131541 -5.44613e-05 6.09353e-24)
(0.0131336 -6.06405e-05 -1.98117e-23)
(0.013111 -6.63054e-05 6.62988e-25)
(0.0130866 -7.14586e-05 4.7524e-24)
(0.0130606 -7.6101e-05 3.35404e-24)
(0.0130332 -8.02356e-05 1.48844e-24)
(0.0130044 -8.38618e-05 6.78184e-25)
(0.0114156 1.02591e-05 5.47951e-24)
(0.0114193 2.50957e-06 -4.29604e-24)
(0.011419 -4.8931e-06 -2.01919e-23)
(0.0114149 -1.19719e-05 1.89936e-23)
(0.0114073 -1.87038e-05 2.83873e-23)
(0.0113967 -2.50594e-05 -6.36681e-24)
(0.0113832 -3.10285e-05 -1.49328e-23)
(0.0113672 -3.66073e-05 -2.30311e-23)
(0.0113488 -4.17945e-05 1.77856e-23)
(0.0113282 -4.65892e-05 1.32486e-24)
(0.0113056 -5.09911e-05 -4.52479e-24)
(0.0112813 -5.49994e-05 -1.51609e-24)
(0.0112554 -5.86124e-05 3.04854e-24)
(0.0112281 -6.18303e-05 4.08796e-27)
(0.0111995 -6.46509e-05 -7.67955e-25)
(0.00973545 7.85987e-06 -3.44601e-24)
(0.00973834 2.17315e-06 -2.62897e-24)
(0.00973752 -3.2939e-06 2.97834e-24)
(0.00973328 -8.56259e-06 -1.04972e-23)
(0.00972589 -1.35927e-05 3.47876e-23)
(0.00971559 -1.83535e-05 -4.77864e-23)
(0.00970261 -2.28367e-05 4.85533e-23)
(0.00968718 -2.70378e-05 -2.10353e-23)
(0.00966949 -3.09536e-05 5.33724e-24)
(0.00964973 -3.45811e-05 4.7531e-25)
(0.00962809 -3.7918e-05 -4.2485e-24)
(0.00960475 -4.09618e-05 1.99907e-24)
(0.00957988 -4.37097e-05 -3.96795e-24)
(0.00955366 -4.61602e-05 -6.53453e-25)
(0.00952624 -4.83101e-05 3.56543e-25)
(0.00817762 6.01326e-06 -1.67391e-24)
(0.00818011 1.96936e-06 3.92657e-25)
(0.00817933 -1.94727e-06 9.47426e-25)
(0.00817546 -5.74938e-06 -4.74385e-24)
(0.00816871 -9.39162e-06 -2.38908e-24)
(0.0081593 -1.2845e-05 1.95516e-23)
(0.00814741 -1.61061e-05 -1.16555e-23)
(0.00813323 -1.91701e-05 1.84088e-24)
(0.00811693 -2.20337e-05 -1.74509e-24)
(0.00809871 -2.46933e-05 -2.11556e-24)
(0.0080787 -2.71457e-05 -8.06528e-25)
(0.0080571 -2.93878e-05 4.57841e-24)
(0.00803404 -3.14166e-05 1.65312e-24)
(0.0080097 -3.32297e-05 -3.15173e-24)
(0.00798423 -3.48237e-05 -5.90298e-25)
(0.00674072 4.51208e-06 -6.08781e-25)
(0.00674309 1.74113e-06 -2.24251e-25)
(0.00674263 -9.56417e-07 -1.0408e-23)
(0.00673943 -3.5931e-06 2.47565e-24)
(0.00673367 -6.12811e-06 -8.27925e-24)
(0.00672551 -8.53351e-06 5.1298e-24)
(0.00671512 -1.08115e-05 1.08954e-23)
(0.00670266 -1.29581e-05 8.88954e-24)
(0.00668827 -1.49699e-05 -1.28598e-23)
(0.00667211 -1.68435e-05 3.89477e-24)
(0.00665431 -1.85761e-05 3.77399e-24)
(0.00663504 -2.01643e-05 -5.93931e-24)
(0.00661442 -2.16055e-05 3.19933e-24)
(0.00659262 -2.28971e-05 -4.44624e-25)
(0.00656976 -2.40358e-05 1.10231e-24)
(0.00542117 3.25146e-06 -2.38557e-24)
(0.00542352 1.44138e-06 -3.4237e-24)
(0.00542349 -3.20124e-07 -7.98828e-25)
(0.0054211 -2.0559e-06 8.64976e-24)
(0.0054165 -3.73096e-06 -6.42039e-24)
(0.00540982 -5.31946e-06 -1.47586e-24)
(0.00540119 -6.82902e-06 1.10216e-23)
(0.00539073 -8.25573e-06 2.63282e-25)
(0.00537858 -9.59708e-06 -2.23623e-24)
(0.00536486 -1.08501e-05 -9.61675e-24)
(0.00534968 -1.20122e-05 6.6013e-25)
(0.00533318 -1.30807e-05 7.38277e-24)
(0.00531548 -1.40535e-05 -9.77402e-25)
(0.00529671 -1.49281e-05 -1.38484e-24)
(0.00527697 -1.57016e-05 9.66004e-25)
(0.00421408 2.19113e-06 -5.21844e-25)
(0.00421638 1.08503e-06 1.763e-26)
(0.00421674 1.33905e-08 4.09268e-24)
(0.00421519 -1.0432e-06 2.94332e-24)
(0.00421177 -2.07605e-06 -1.80496e-24)
(0.00420664 -3.0514e-06 -5.01481e-24)
(0.00419986 -3.98173e-06 2.1809e-24)
(0.00419156 -4.86404e-06 -9.52074e-24)
(0.00418182 -5.69634e-06 7.3984e-24)
(0.00417075 -6.47621e-06 4.24564e-24)
(0.00415843 -7.20173e-06 2.92991e-25)
(0.00414498 -7.87084e-06 -5.05055e-24)
(0.0041305 -8.48203e-06 1.04004e-24)
(0.00411509 -9.03322e-06 -9.21293e-25)
(0.00409884 -9.52199e-06 4.96486e-25)
(0.00311377 1.32335e-06 -9.62018e-25)
(0.00311591 7.10016e-07 -5.26681e-27)
(0.00311654 1.22643e-07 3.25182e-24)
(0.00311571 -4.54728e-07 -2.04254e-24)
(0.0031134 -1.02729e-06 9.0615e-24)
(0.00310975 -1.56549e-06 -1.67512e-23)
(0.00310481 -2.07986e-06 1.41812e-23)
(0.00309866 -2.56929e-06 -1.23209e-23)
(0.00309136 -3.03237e-06 9.25502e-24)
(0.00308299 -3.46709e-06 -6.27209e-24)
(0.00307363 -3.87218e-06 2.21e-24)
(0.00306335 -4.24628e-06 3.47214e-25)
(0.00305222 -4.58847e-06 6.82144e-25)
(0.00304034 -4.89727e-06 -8.74912e-25)
(0.00302778 -5.17099e-06 2.05169e-25)
(0.00211412 6.58534e-07 1.46195e-24)
(0.0021159 3.62227e-07 1.65899e-24)
(0.00211662 8.91001e-08 -6.96481e-24)
(0.00211632 -1.77815e-07 5.19505e-24)
(0.00211496 -4.42507e-07 -1.06057e-26)
(0.00211264 -6.90818e-07 1.52416e-24)
(0.00210939 -9.26836e-07 -1.76283e-24)
(0.00210527 -1.14972e-06 -4.05227e-24)
(0.00210032 -1.36013e-06 4.12887e-24)
(0.00209459 -1.55744e-06 5.48665e-25)
(0.00208813 -1.74116e-06 -3.77114e-24)
(0.00208099 -1.91076e-06 1.33772e-24)
(0.00207323 -2.06604e-06 9.38581e-25)
(0.00206491 -2.20623e-06 -9.97944e-26)
(0.00205607 -2.32895e-06 -1.38057e-25)
(0.00120872 2.35199e-07 -1.47775e-24)
(0.00120992 1.3459e-07 4.59639e-24)
(0.00121051 5.36325e-08 2.90957e-24)
(0.00121049 -2.47682e-08 -5.05648e-24)
(0.00120986 -1.03817e-07 -6.04751e-25)
(0.00120865 -1.8005e-07 -5.73347e-25)
(0.00120688 -2.52973e-07 1.85203e-24)
(0.00120459 -3.16561e-07 -3.20421e-24)
(0.00120179 -3.7629e-07 4.61058e-24)
(0.00119852 -4.35344e-07 -2.24793e-24)
(0.0011948 -4.93866e-07 -1.63904e-24)
(0.00119067 -5.51969e-07 1.04609e-24)
(0.00118615 -6.10047e-07 -1.47419e-24)
(0.00118129 -6.6786e-07 1.55123e-24)
(0.0011761 -7.18471e-07 -2.99533e-25)
(0.000391052 8.89096e-08 -1.06135e-26)
(0.000391456 1.49784e-07 9.05619e-25)
(0.000391667 2.02258e-07 1.08933e-24)
(0.000391683 2.38992e-07 -1.66096e-24)
(0.000391504 2.59689e-07 3.69165e-24)
(0.000391136 2.66044e-07 -3.99167e-24)
(0.000390585 2.60078e-07 2.82825e-25)
(0.000389859 2.47586e-07 2.48616e-24)
(0.000388963 2.26111e-07 -3.44989e-24)
(0.000387907 1.9422e-07 -7.29648e-25)
(0.000386698 1.52975e-07 2.72263e-24)
(0.000385346 1.0335e-07 -1.23716e-24)
(0.00038386 4.61211e-08 -5.55696e-25)
(0.000382253 -1.76735e-08 4.79109e-25)
(0.000380533 -8.24553e-08 -2.4924e-26)
(0.000881603 -0.000207662 5.68399e-26)
(0.00101445 -0.000110345 1.3185e-24)
(0.00123993 -1.27339e-05 -3.59065e-24)
(0.0014725 6.74684e-05 4.81991e-24)
(0.00169916 0.000132226 -1.80095e-24)
(0.00192452 0.000182132 -1.4647e-24)
(0.00214843 0.000219298 1.55561e-24)
(0.00237125 0.000245392 -2.85216e-24)
(0.00259338 0.00026178 2.39319e-25)
(0.00281505 0.000269654 1.71147e-24)
(0.0030365 0.000270043 -3.23773e-25)
(0.00325803 0.00026384 3.55335e-25)
(0.00348009 0.000251794 -3.01972e-26)
(0.00370322 0.000234518 2.44346e-25)
(0.00392818 0.00021252 -8.96256e-25)
(0.00415584 0.000186324 4.9656e-25)
(0.00438756 0.000156581 -1.56242e-25)
(0.00462499 0.000124305 1.6643e-26)
(0.00487099 9.05786e-05 3.32538e-25)
(0.00512917 5.68259e-05 -2.01639e-25)
(0.00540415 2.33792e-05 1.90367e-26)
(0.00569937 -1.15612e-05 -1.52527e-26)
(0.00599026 -5.04762e-05 1.9346e-26)
(0.00624082 -9.45899e-05 4.4178e-26)
(0.00644103 -0.000143506 -7.82972e-26)
(0.00659224 -0.000195828 3.48974e-26)
(0.00669784 -0.000249765 9.03432e-26)
(0.00676144 -0.00030393 -2.7004e-25)
(0.00678619 -0.000357274 -1.11862e-24)
(0.00677377 -0.000408132 2.34558e-24)
(0.0067266 -0.000454772 -4.07913e-24)
(0.0066453 -0.000493495 5.34804e-24)
(0.00653021 -0.000519694 -2.16688e-24)
(0.00638207 -0.000527664 -4.02393e-24)
(0.00620195 -0.000510645 4.0202e-24)
(0.00599128 -0.000460813 1.48727e-23)
(0.00575176 -0.000369018 -5.60353e-24)
(0.00548541 -0.000224035 1.91433e-24)
(0.00519474 -1.11183e-05 4.26649e-25)
(0.00488334 0.000289293 -1.59315e-23)
(0.00455442 0.000699403 -1.80561e-25)
(0.00421148 0.00122983 5.72569e-24)
(0.00383457 0.00183468 1.43729e-24)
(0.00344293 0.00234515 -7.6664e-24)
(0.00321676 0.00231784 -3.51115e-25)
(0.00167772 -0.000287275 -1.60252e-24)
(0.0017355 -0.000226351 -1.99378e-24)
(0.00187915 -0.000132721 4.31565e-24)
(0.00205958 -4.62833e-05 1.66907e-24)
(0.00225346 2.79431e-05 -5.78439e-24)
(0.00245605 8.76296e-05 5.74679e-24)
(0.00266332 0.000133868 -2.00151e-24)
(0.0028734 0.000168185 1.37096e-24)
(0.00308541 0.000191985 -1.828e-24)
(0.00329888 0.000206539 2.26208e-26)
(0.00351355 0.000212942 -9.41077e-25)
(0.00372941 0.000212135 1.883e-24)
(0.00394666 0.000204917 -1.06463e-24)
(0.00416565 0.000191946 -1.02797e-24)
(0.00438691 0.000173779 -7.36836e-25)
(0.0046111 0.000150975 1.32757e-24)
(0.0048393 0.000124211 -1.60601e-25)
(0.00507276 9.44983e-05 6.95984e-25)
(0.00531385 6.28987e-05 8.08445e-26)
(0.00556546 3.08366e-05 -1.96313e-25)
(0.0058315 -1.26619e-06 -6.75319e-26)
(0.00611469 -3.49185e-05 -2.69319e-26)
(0.00639158 -7.21631e-05 1.06824e-25)
(0.00662883 -0.00011392 5.47652e-26)
(0.00681781 -0.000159752 -1.23478e-25)
(0.00696009 -0.000208371 5.966e-26)
(0.00705896 -0.000258077 -3.72255e-25)
(0.00711793 -0.000307457 6.62765e-25)
(0.00713973 -0.00035532 -2.60064e-25)
(0.00712632 -0.000399963 6.75466e-25)
(0.00708015 -0.00043956 -6.47404e-24)
(0.00700197 -0.000470219 1.21305e-23)
(0.00689241 -0.000487342 -1.12466e-23)
(0.00675272 -0.000485289 2.35353e-23)
(0.00658468 -0.000457393 -3.1305e-23)
(0.00639068 -0.000395953 7.89041e-24)
(0.00617388 -0.000292018 2.36287e-23)
(0.00593853 -0.000134757 -7.7261e-24)
(0.00569061 8.97093e-05 -1.65319e-23)
(0.00543972 0.000399742 -8.61656e-24)
(0.00520039 0.000816546 1.96007e-23)
(0.00499713 0.0013522 -1.77935e-23)
(0.0048476 0.00196367 -3.10205e-24)
(0.00480455 0.00246975 1.04373e-23)
(0.00485913 0.00240555 2.97159e-24)
(0.00262957 -0.000296605 -1.77249e-26)
(0.00264046 -0.000278129 -2.37603e-24)
(0.00270663 -0.000217132 4.45617e-24)
(0.00282461 -0.000141629 3.16617e-24)
(0.00297124 -6.84592e-05 -5.37007e-24)
(0.00313769 -4.84217e-06 1.33204e-25)
(0.00331707 4.72977e-05 4.38008e-25)
(0.0035051 8.81271e-05 4.26412e-24)
(0.00369929 0.000118446 -5.0197e-24)
(0.00389806 0.000139256 2.98668e-24)
(0.00410043 0.000151524 9.25097e-25)
(0.00430586 0.00015613 -5.06424e-24)
(0.00451416 0.000153858 1.83546e-24)
(0.00472534 0.000145375 7.77569e-25)
(0.00493967 0.000131263 -1.69587e-24)
(0.00515749 0.000112101 2.79096e-24)
(0.00537954 8.85855e-05 -1.97777e-24)
(0.00560665 6.17183e-05 -1.5883e-26)
(0.0058406 3.25341e-05 1.74016e-25)
(0.00608356 2.45423e-06 1.61816e-25)
(0.00633857 -2.80117e-05 3.2111e-26)
(0.00660755 -6.00906e-05 6.19914e-26)
(0.00686819 -9.5403e-05 -9.79896e-26)
(0.00708995 -0.000134586 2.36578e-25)
(0.00726569 -0.000177142 -1.99469e-25)
(0.00739723 -0.00022187 8.27262e-26)
(0.00748775 -0.000267154 6.57159e-25)
(0.00754073 -0.000311533 -9.67486e-25)
(0.0075584 -0.000353672 2.46488e-24)
(0.00754321 -0.000391891 1.33086e-24)
(0.0074975 -0.000424227 2.62723e-24)
(0.00742213 -0.000446594 -1.40297e-23)
(0.00731811 -0.000454466 5.44288e-24)
(0.00718723 -0.000442342 1.19955e-23)
(0.00703201 -0.000403784 -2.60945e-23)
(0.00685587 -0.000331451 3.61272e-23)
(0.00666344 -0.000217002 -2.26837e-23)
(0.0064611 -5.07134e-05 2.70464e-23)
(0.00625803 0.000179056 -4.98247e-23)
(0.00606864 0.000486593 1.85531e-23)
(0.00591502 0.000886461 5.95055e-24)
(0.00583207 0.00138224 8.44916e-24)
(0.00584788 0.00192546 -1.04841e-23)
(0.00600786 0.00235035 2.56129e-24)
(0.00618341 0.0022947 -1.51984e-24)
(0.00372031 -0.000282207 -6.47518e-25)
(0.00370595 -0.000289392 -9.09674e-25)
(0.00372146 -0.000260935 -3.69951e-24)
(0.00377943 -0.000208365 1.31814e-24)
(0.00387367 -0.000146564 8.42866e-25)
(0.00399501 -8.68108e-05 2.53935e-24)
(0.00413673 -3.40321e-05 -4.63675e-24)
(0.00429348 9.87861e-06 1.88554e-24)
(0.00446149 4.45169e-05 5.47836e-24)
(0.00463814 7.01899e-05 -1.45523e-24)
(0.00482162 8.74569e-05 -1.33465e-24)
(0.00501077 9.69657e-05 -2.16678e-25)
(0.00520489 9.93708e-05 7.47219e-25)
(0.00540359 9.52767e-05 -1.49812e-24)
(0.00560677 8.5242e-05 3.36475e-25)
(0.00581439 6.98372e-05 -1.3985e-25)
(0.00602683 4.97549e-05 -7.67977e-25)
(0.00624439 2.59747e-05 3.25115e-25)
(0.00646826 -5.09288e-07 1.24413e-24)
(0.00669979 -2.82895e-05 -1.78797e-25)
(0.00694111 -5.67768e-05 -2.36116e-25)
(0.00719321 -8.69322e-05 -4.46698e-26)
(0.00743493 -0.00011998 -1.65151e-25)
(0.00763871 -0.00015631 7.11585e-26)
(0.00779892 -0.000195352 2.14331e-26)
(0.00791761 -0.000235964 1.65893e-25)
(0.00799793 -0.000276616 6.93739e-25)
(0.00804327 -0.000315756 -1.77755e-24)
(0.0080554 -0.000351956 2.8832e-24)
(0.00803755 -0.000383611 -1.10564e-25)
(0.00799157 -0.00040855 -2.75062e-24)
(0.00791855 -0.000422552 -3.72384e-25)
(0.0078199 -0.000421272 -3.76576e-25)
(0.00769801 -0.000399458 -2.89366e-24)
(0.00755612 -0.000351079 4.91463e-24)
(0.00739863 -0.000269446 -1.03852e-23)
(0.00723148 -0.000147279 4.43091e-23)
(0.00706277 2.33414e-05 -2.39473e-23)
(0.00690387 0.000250756 -1.57694e-24)
(0.00677151 0.000543435 -4.1252e-23)
(0.00668938 0.000906826 3.08039e-23)