/*--------------------------------*- C++ -*----------------------------------*\
| =========                 |                                                 |
| \\      /  F ield         | OpenFOAM: The Open Source CFD Toolbox           |
|  \\    /   O peration     | Version:  2312                                  |
|   \\  /    A nd           | Website:  www.openfoam.com                      |
|    \\/     M anipulation  |                                                 |
\*---------------------------------------------------------------------------*/
FoamFile
{
    version     2.0;
    format      ascii;
    arch        "LSB;label=32;scalar=64";
    class       volVectorField;
    location    "23.75";
    object      U;
}
// * * * * * * * * * * * * * * * * * * * * * * * * * * * * * * * * * * * * * //

dimensions      [0 1 -1 0 0 0 0];

internalField   nonuniform List<vector> 
4800
(
(0.000467314 3.16099e-07 -2.69655e-26)
(0.000459569 3.46523e-07 -1.89496e-25)
(0.000454896 3.58052e-07 2.43229e-25)
(0.000452271 3.48647e-07 1.11213e-25)
(0.000451086 3.30342e-07 1.64403e-24)
(0.000451084 2.97639e-07 -3.91583e-24)
(0.000452019 2.5749e-07 3.66274e-24)
(0.000453789 1.80922e-07 -5.31728e-24)
(0.000456481 2.46729e-08 1.70491e-24)
(0.000460272 -2.4151e-07 5.81746e-24)
(0.000465572 -7.56017e-07 -1.79268e-24)
(0.000473668 -2.16711e-06 -1.51768e-25)
(0.0004918 -7.36317e-06 -2.18755e-24)
(0.000537897 -2.83491e-05 1.01787e-24)
(0.000614039 -9.21108e-05 -8.09269e-25)
(0.00144501 1.65042e-06 -8.57885e-26)
(0.00142134 1.19545e-06 1.06923e-25)
(0.00140682 8.33008e-07 -9.85494e-25)
(0.0013984 5.05002e-07 7.3647e-25)
(0.00139426 1.86684e-07 2.36528e-24)
(0.00139359 -1.59083e-07 -3.75492e-24)
(0.00139559 -5.56963e-07 -1.07232e-24)
(0.00139999 -1.08488e-06 -2.5658e-25)
(0.00140704 -1.91321e-06 8.83337e-24)
(0.00141713 -3.24535e-06 -6.52674e-24)
(0.00143148 -5.72279e-06 7.10451e-25)
(0.00145283 -1.1593e-05 1.08363e-24)
(0.00149007 -2.85357e-05 -1.60296e-24)
(0.00155388 -8.01336e-05 -4.85431e-25)
(0.00162253 -0.00019634 2.09678e-24)
(0.00252574 5.30487e-06 -6.14157e-26)
(0.00248501 3.83591e-06 6.27573e-26)
(0.00245968 2.69594e-06 6.45062e-25)
(0.00244462 1.70637e-06 -1.53821e-24)
(0.00243677 7.268e-07 1.50986e-24)
(0.00243466 -3.43726e-07 1.40717e-24)
(0.00243696 -1.58223e-06 -3.63556e-24)
(0.00244304 -3.21658e-06 -2.28117e-24)
(0.00245338 -5.61253e-06 5.47961e-24)
(0.00246821 -9.32024e-06 2.06676e-24)
(0.0024889 -1.58398e-05 -7.18591e-24)
(0.00251763 -2.91578e-05 -1.09039e-24)
(0.00255851 -5.88247e-05 3.07008e-24)
(0.00261032 -0.000124194 4.85873e-24)
(0.00264785 -0.000232814 -2.51006e-24)
(0.00371555 1.18666e-05 2.2704e-26)
(0.00365697 8.68799e-06 -1.58077e-25)
(0.00362 6.22992e-06 7.04922e-25)
(0.00359746 4.11067e-06 7.54466e-25)
(0.00358509 2.03222e-06 -7.49344e-25)
(0.00358054 -2.43403e-07 -4.25489e-24)
(0.00358221 -2.742e-06 -2.87886e-24)
(0.00358873 -6.05931e-06 1.10148e-23)
(0.00360079 -1.08156e-05 4.59616e-24)
(0.00361801 -1.78269e-05 -6.60071e-24)
(0.00364122 -2.92529e-05 -2.65952e-24)
(0.00367083 -4.96302e-05 -2.02953e-24)
(0.00370609 -8.69578e-05 6.0886e-26)
(0.00373982 -0.000151221 1.50096e-24)
(0.00375373 -0.000237419 7.33477e-27)
(0.00501831 2.19655e-05 -4.16668e-26)
(0.00494182 1.62452e-05 -2.54805e-25)
(0.00489278 1.18295e-05 -1.61154e-25)
(0.00486212 8.04221e-06 4.35681e-25)
(0.00484445 4.3859e-06 -1.23914e-24)
(0.00483644 5.226e-07 3.09255e-24)
(0.00483639 -3.92579e-06 -5.39485e-25)
(0.00484203 -9.27807e-06 1.89668e-24)
(0.00485385 -1.68795e-05 -1.0639e-23)
(0.00487085 -2.75258e-05 2.02028e-23)
(0.00489282 -4.3473e-05 -1.95472e-23)
(0.00491847 -6.84531e-05 1.03164e-23)
(0.00494443 -0.000107295 -9.57367e-24)
(0.004963 -0.000163055 9.03048e-24)
(0.00496382 -0.000228156 -3.60039e-24)
(0.00643408 3.63069e-05 5.50519e-26)
(0.006341 2.71337e-05 1.97058e-25)
(0.0062803 2.0058e-05 -1.03979e-24)
(0.00624138 1.40191e-05 -6.58348e-25)
(0.0062179 8.28757e-06 1.76607e-24)
(0.00620572 2.29989e-06 6.3398e-25)
(0.00620259 -4.31854e-06 -4.95692e-24)
(0.00620621 -1.22954e-05 1.18351e-23)
(0.00621589 -2.28423e-05 -1.54202e-23)
(0.00623024 -3.68903e-05 3.69683e-24)
(0.00624809 -5.62506e-05 1.12518e-23)
(0.00626714 -8.31999e-05 -1.56304e-23)
(0.00628356 -0.000119616 7.82719e-24)
(0.0062916 -0.000164964 8.01961e-24)
(0.00628654 -0.000213033 -6.10379e-24)
(0.00795695 5.53902e-05 4.55249e-26)
(0.0078509 4.18837e-05 -2.69255e-25)
(0.00778039 3.14479e-05 9.6422e-25)
(0.00773403 2.25731e-05 -1.3377e-24)
(0.00770488 1.42785e-05 -4.54649e-24)
(0.00768825 5.76976e-06 7.75135e-24)
(0.00768129 -3.42441e-06 -4.70836e-24)
(0.00768162 -1.41476e-05 1.60328e-23)
(0.0076877 -2.75154e-05 -1.09042e-23)
(0.00769768 -4.43507e-05 -5.09842e-24)
(0.00770975 -6.57608e-05 -1.00308e-23)
(0.00772142 -9.26433e-05 9.22292e-24)
(0.00772957 -0.000124974 2.59397e-24)
(0.00773072 -0.000160965 2.21787e-24)
(0.00772332 -0.000196458 -1.95129e-24)
(0.00957278 7.90969e-05 -6.56074e-26)
(0.00946059 6.06154e-05 8.90957e-25)
(0.00938429 4.62517e-05 -2.07407e-24)
(0.00933285 3.40495e-05 -1.69858e-24)
(0.00929927 2.27788e-05 6.35633e-25)
(0.00927871 1.14653e-05 1.25097e-24)
(0.00926794 -5.23235e-07 4.49265e-24)
(0.00926439 -1.39528e-05 -1.22429e-23)
(0.00926607 -2.97866e-05 -6.53614e-24)
(0.00927087 -4.85797e-05 1.7982e-23)
(0.00927678 -7.07623e-05 -5.57363e-24)
(0.00928158 -9.62886e-05 1.90578e-23)
(0.00928318 -0.000124292 -1.00324e-23)
(0.00927973 -0.000152974 -3.19555e-24)
(0.00927124 -0.000179817 1.89153e-24)
(0.0112581 0.000106148 -8.67207e-27)
(0.0111503 8.26071e-05 4.92454e-25)
(0.0110749 6.40892e-05 -7.01229e-25)
(0.0110227 4.83086e-05 1.68059e-24)
(0.0109875 3.384e-05 -1.00232e-23)
(0.0109648 1.96019e-05 1.05836e-23)
(0.0109512 4.85531e-06 -1.66834e-23)
(0.0109442 -1.10605e-05 1.02558e-23)
(0.0109417 -2.88416e-05 7.62958e-24)
(0.0109416 -4.875e-05 1.65623e-23)
(0.0109421 -7.07312e-05 -2.16314e-23)
(0.0109413 -9.428e-05 -3.99837e-24)
(0.0109382 -0.000118387 1.84844e-24)
(0.0109317 -0.000141702 1.31762e-23)
(0.0109225 -0.000162799 -5.35677e-24)
(0.0129833 0.000133595 4.7457e-26)
(0.0128926 0.00010581 -2.06581e-25)
(0.012827 8.3503e-05 9.24071e-25)
(0.0127804 6.43182e-05 -3.24089e-24)
(0.0127479 4.67659e-05 4.9132e-24)
(0.0127261 2.97538e-05 -6.3445e-24)
(0.0127119 1.25379e-05 1.06221e-23)
(0.0127032 -5.43096e-06 1.86228e-24)
(0.0126979 -2.45367e-05 -1.46411e-23)
(0.0126943 -4.48189e-05 2.0847e-23)
(0.0126908 -6.59767e-05 -2.29889e-23)
(0.0126864 -8.74042e-05 -6.76193e-24)
(0.0126804 -0.000108272 1.19298e-23)
(0.0126722 -0.000127721 3.53576e-24)
(0.0126628 -0.000144999 -1.54382e-24)
(0.0147228 0.000156987 1.8867e-25)
(0.0146601 0.000126721 -1.60549e-24)
(0.0146129 0.00010171 -2.58444e-24)
(0.0145783 7.98476e-05 6.12565e-24)
(0.0145537 5.97721e-05 2.73911e-24)
(0.0145366 4.04987e-05 -1.72038e-23)
(0.0145249 2.13829e-05 5.30069e-24)
(0.0145169 2.01425e-06 3.81733e-24)
(0.0145111 -1.77405e-05 -1.64974e-23)
(0.0145061 -3.77882e-05 1.7188e-23)
(0.014501 -5.77725e-05 -1.37414e-23)
(0.0144951 -7.7184e-05 3.53024e-23)
(0.0144881 -9.54554e-05 -1.69615e-23)
(0.0144797 -0.000112112 9.9785e-24)
(0.0144708 -0.000126793 -2.72145e-24)
(0.0164707 0.000172142 -6.95888e-26)
(0.0164389 0.000141442 1.08203e-24)
(0.0164138 0.000115221 -2.12654e-24)
(0.016395 9.18234e-05 -1.08288e-24)
(0.0163816 7.01637e-05 1.20949e-23)
(0.0163722 4.9472e-05 -1.75671e-24)
(0.0163657 2.92695e-05 -2.15084e-23)
(0.016361 9.3168e-06 2.50846e-23)
(0.016357 -1.03982e-05 -5.63744e-24)
(0.0163529 -2.97148e-05 -1.94937e-23)
(0.0163484 -4.83299e-05 2.07875e-23)
(0.0163429 -6.58971e-05 1.11965e-23)
(0.0163367 -8.20837e-05 -9.42519e-24)
(0.0163294 -9.66694e-05 -1.63038e-23)
(0.016322 -0.000109515 1.36738e-24)
(0.0182477 0.000178221 -2.65008e-27)
(0.0182387 0.000148221 -1.20217e-24)
(0.0182316 0.000121893 5.76276e-24)
(0.0182267 9.79788e-05 3.716e-25)
(0.0182238 7.5679e-05 3.30217e-24)
(0.0182223 5.44612e-05 -1.18077e-23)
(0.0182215 3.40192e-05 1.00894e-23)
(0.0182208 1.42449e-05 2.29611e-24)
(0.0182197 -4.82234e-06 2.07368e-23)
(0.0182179 -2.3032e-05 -3.20427e-23)
(0.0182153 -4.01764e-05 -1.44953e-23)
(0.0182116 -5.60622e-05 -9.5717e-24)
(0.0182073 -7.05293e-05 1.8029e-23)
(0.0182019 -8.35102e-05 -5.17802e-25)
(0.0181965 -9.49852e-05 1.74548e-24)
(0.0200806 0.000178662 -1.78934e-26)
(0.0200816 0.00014924 1.22202e-24)
(0.0200833 0.000123014 -1.78217e-24)
(0.0200858 9.89808e-05 -6.88896e-28)
(0.0200888 7.65478e-05 2.38457e-24)
(0.0200918 5.53571e-05 6.07967e-24)
(0.0200944 3.52237e-05 -2.35762e-23)
(0.0200964 1.60953e-05 1.98959e-24)
(0.0200975 -1.98933e-06 1.19893e-23)
(0.0200975 -1.89447e-05 -5.51729e-24)
(0.0200966 -3.46647e-05 1.5067e-23)
(0.0200947 -4.90756e-05 1.05395e-23)
(0.0200921 -6.21317e-05 -1.91262e-23)
(0.0200885 -7.38514e-05 1.30729e-23)
(0.020085 -8.4276e-05 -1.08653e-23)
(0.021963 0.000177543 -5.31209e-25)
(0.0219663 0.000148392 2.79358e-25)
(0.0219698 0.000122138 2.11629e-24)
(0.0219737 9.80154e-05 -1.10014e-23)
(0.0219778 7.55882e-05 9.70026e-24)
(0.0219814 5.46135e-05 -7.10645e-24)
(0.0219846 3.49648e-05 5.09424e-24)
(0.0219869 1.65934e-05 -3.62083e-23)
(0.0219883 -5.09298e-07 5.22621e-23)
(0.0219887 -1.63284e-05 -3.0792e-23)
(0.0219884 -3.08508e-05 2.75045e-23)
(0.0219871 -4.409e-05 2.29914e-23)
(0.0219853 -5.60728e-05 -4.01657e-23)
(0.0219828 -6.68637e-05 1.30649e-23)
(0.0219803 -7.65328e-05 -5.48639e-25)
(0.0238385 0.000175986 -1.88267e-26)
(0.0238427 0.000147417 -1.59115e-25)
(0.0238464 0.000121394 1.20353e-25)
(0.0238499 9.74278e-05 -3.02995e-25)
(0.0238532 7.52327e-05 3.94891e-24)
(0.023856 5.46483e-05 -6.79495e-24)
(0.0238583 3.55767e-05 6.32926e-24)
(0.0238597 1.79522e-05 -2.00593e-23)
(0.0238605 1.71942e-06 4.56708e-23)
(0.0238604 -1.31701e-05 -5.84892e-23)
(0.0238597 -2.67719e-05 4.7931e-23)
(0.0238583 -3.91536e-05 -1.61904e-23)
(0.0238567 -5.03828e-05 8.40783e-25)
(0.0238543 -6.05461e-05 3.71059e-24)
(0.0238521 -6.97255e-05 -7.11901e-24)
(0.025614 0.000172889 -1.5582e-24)
(0.0256201 0.000145599 2.80857e-24)
(0.0256248 0.000120421 -9.47177e-25)
(0.0256284 9.71409e-05 -1.51928e-24)
(0.0256314 7.56149e-05 6.20828e-24)
(0.0256337 5.57404e-05 -6.32668e-24)
(0.0256353 3.7436e-05 -5.72122e-24)
(0.0256362 2.06199e-05 -1.38427e-23)
(0.0256364 5.21091e-06 7.05e-24)
(0.0256359 -8.88067e-06 3.37022e-23)
(0.025635 -2.17476e-05 -1.78032e-23)
(0.0256334 -3.34825e-05 1.06219e-23)
(0.0256317 -4.41699e-05 -4.37287e-24)
(0.0256294 -5.39034e-05 -1.29591e-23)
(0.0256272 -6.27659e-05 6.63313e-24)
(0.0271725 0.000167194 5.1151e-25)
(0.0271807 0.000141886 -8.88578e-25)
(0.0271866 0.000118219 -2.68202e-25)
(0.027191 9.62143e-05 -7.19861e-25)
(0.0271943 7.58421e-05 -1.84633e-24)
(0.0271966 5.70422e-05 9.56777e-24)
(0.0271981 3.97446e-05 -7.70827e-24)
(0.0271989 2.38579e-05 -4.98072e-24)
(0.0271991 9.29053e-06 4.56293e-24)
(0.0271985 -4.06114e-06 -5.38781e-24)
(0.0271976 -1.6289e-05 1.25555e-23)
(0.0271962 -2.74915e-05 6.37266e-24)
(0.0271945 -3.7758e-05 -2.37862e-23)
(0.0271925 -4.71794e-05 1.64361e-23)
(0.0271904 -5.5831e-05 -3.35206e-24)
(0.0283619 0.000158732 1.51098e-24)
(0.0283717 0.000135956 2.55051e-24)
(0.0283789 0.00011437 -5.68067e-24)
(0.0283841 9.4155e-05 -3.09602e-25)
(0.0283879 7.53662e-05 1.31778e-24)
(0.0283906 5.79762e-05 -2.89469e-24)
(0.0283924 4.19294e-05 -4.6351e-24)
(0.0283934 2.71363e-05 1.00256e-23)
(0.0283937 1.35097e-05 1.12193e-23)
(0.0283934 9.46235e-07 -2.72532e-23)
(0.0283927 -1.06379e-05 1.57227e-23)
(0.0283916 -2.13366e-05 -1.09981e-24)
(0.0283902 -3.12301e-05 -9.17245e-25)
(0.0283885 -4.03956e-05 1.23721e-24)
(0.0283868 -4.8894e-05 -5.70918e-25)
(0.0289761 0.000146111 -3.96078e-24)
(0.0289877 0.000126297 -8.52507e-24)
(0.0289963 0.000107267 4.58612e-24)
(0.0290028 8.92878e-05 1.55414e-23)
(0.0290077 7.24608e-05 -4.33908e-24)
(0.0290113 5.67904e-05 -1.22482e-24)
(0.0290139 4.22359e-05 5.70761e-25)
(0.0290157 2.87281e-05 -4.43934e-24)
(0.0290167 1.61929e-05 1.207e-23)
(0.0290172 4.54898e-06 -5.34113e-24)
(0.029017 -6.27824e-06 3.22184e-24)
(0.0290163 -1.63662e-05 -5.08869e-24)
(0.0290152 -2.57747e-05 -5.83753e-24)
(0.0290138 -3.45634e-05 8.74642e-24)
(0.0290121 -4.27792e-05 -3.82472e-24)
(0.0287953 0.000132012 6.27526e-24)
(0.0288074 0.000115135 -1.44204e-23)
(0.0288167 9.87161e-05 2.36071e-24)
(0.028824 8.30463e-05 2.08161e-23)
(0.0288295 6.82454e-05 -2.01935e-23)
(0.0288339 5.43396e-05 7.03072e-24)
(0.0288371 4.13013e-05 4.56179e-24)
(0.0288395 2.90835e-05 -1.02812e-23)
(0.0288412 1.7629e-05 2.36103e-24)
(0.0288421 6.88736e-06 1.1923e-24)
(0.0288425 -3.19157e-06 -9.8512e-25)
(0.0288424 -1.26426e-05 2.1088e-24)
(0.0288418 -2.15064e-05 -2.59562e-24)
(0.0288408 -2.98344e-05 1.76815e-24)
(0.0288395 -3.76674e-05 -8.21624e-25)
(0.0278507 0.000116669 3.89153e-24)
(0.0278637 0.000102484 -8.20987e-24)
(0.0278738 8.85526e-05 -5.65354e-24)
(0.0278815 7.51392e-05 2.65658e-23)
(0.0278875 6.23615e-05 -2.43872e-23)
(0.027892 5.02482e-05 2.60204e-24)
(0.0278953 3.87877e-05 4.07534e-24)
(0.0278977 2.79459e-05 2.19291e-24)
(0.0278991 1.76903e-05 1.71952e-24)
(0.0278999 7.98618e-06 -7.86887e-24)
(0.0278999 -1.18903e-06 5.0568e-24)
(0.0278996 -9.86652e-06 7.30275e-25)
(0.0278987 -1.80761e-05 -1.55602e-24)
(0.0278975 -2.58495e-05 8.65629e-25)
(0.0278958 -3.32102e-05 5.78932e-25)
(0.0263477 0.000101371 9.67853e-24)
(0.0263609 8.95356e-05 -1.71874e-23)
(0.0263716 7.78274e-05 3.50868e-24)
(0.0263801 6.64698e-05 -8.33583e-24)
(0.026387 5.5564e-05 -1.07735e-23)
(0.0263925 4.51398e-05 3.65389e-23)
(0.0263968 3.51955e-05 -1.41097e-23)
(0.0264001 2.57136e-05 3.93712e-24)
(0.0264024 1.66774e-05 -2.15542e-24)
(0.0264041 8.06366e-06 -5.01847e-24)
(0.026405 -1.48397e-07 9.13833e-24)
(0.0264053 -7.99336e-06 -4.5172e-24)
(0.026405 -1.54831e-05 7.02292e-25)
(0.0264043 -2.26264e-05 2.48306e-25)
(0.026403 -2.9428e-05 1.83171e-26)
(0.0245243 8.80773e-05 3.72606e-24)
(0.0245375 7.81616e-05 -1.92563e-23)
(0.0245484 6.82797e-05 3.33917e-23)
(0.0245574 5.86139e-05 -2.54734e-23)
(0.0245647 4.92479e-05 2.54092e-23)
(0.0245706 4.02147e-05 -8.44276e-24)
(0.0245754 3.15195e-05 -5.8171e-24)
(0.024579 2.31604e-05 -6.3005e-24)
(0.0245818 1.51267e-05 1.09031e-23)
(0.0245837 7.41004e-06 -6.00405e-25)
(0.0245849 -4.7125e-09 -1.01319e-23)
(0.0245855 -7.11838e-06 -1.09431e-24)
(0.0245853 -1.39344e-05 1.97594e-24)
(0.0245847 -2.04567e-05 -3.3918e-25)
(0.0245835 -2.66844e-05 5.08241e-26)
(0.0225183 7.57895e-05 4.95854e-25)
(0.0225316 6.74772e-05 -7.24675e-24)
(0.0225428 5.91331e-05 -4.04825e-24)
(0.0225522 5.0901e-05 3.30776e-23)
(0.02256 4.2854e-05 -3.25047e-23)
(0.0225664 3.5026e-05 9.49427e-24)
(0.0225715 2.74339e-05 1.59765e-24)
(0.0225756 2.00837e-05 -8.3432e-25)
(0.0225787 1.29791e-05 -3.87723e-24)
(0.022581 6.11896e-06 1.66661e-23)
(0.0225824 -4.92983e-07 -1.32118e-23)
(0.0225831 -6.85605e-06 -5.23857e-25)
(0.0225832 -1.29677e-05 1.07001e-24)
(0.0225826 -1.88272e-05 7.08228e-25)
(0.0225814 -2.443e-05 -5.26541e-25)
(0.0204337 6.43715e-05 7.3801e-25)
(0.0204472 5.73956e-05 6.73531e-24)
(0.0204588 5.03529e-05 -7.72855e-24)
(0.0204686 4.33561e-05 -5.34681e-24)
(0.0204768 3.64674e-05 3.40087e-23)
(0.0204836 2.97213e-05 -2.60093e-23)
(0.0204892 2.31413e-05 -5.97539e-25)
(0.0204937 1.67399e-05 -5.3502e-24)
(0.0204972 1.05282e-05 -4.09398e-25)
(0.0204998 4.50957e-06 7.81342e-25)
(0.0205015 -1.30343e-06 -2.73363e-24)
(0.0205025 -6.91193e-06 2.32537e-24)
(0.0205027 -1.23104e-05 8.36682e-25)
(0.0205022 -1.74931e-05 7.12864e-25)
(0.0205011 -2.24523e-05 6.46309e-25)
(0.0183462 5.37611e-05 5.26012e-24)
(0.0183599 4.79097e-05 -8.06636e-24)
(0.0183718 4.19832e-05 -6.47586e-24)
(0.018382 3.60673e-05 1.97512e-23)
(0.0183906 3.02111e-05 -7.07405e-24)
(0.0183979 2.44484e-05 -9.94157e-24)
(0.0184039 1.88043e-05 3.47854e-24)
(0.0184088 1.32949e-05 7.74647e-24)
(0.0184126 7.93334e-06 -1.22824e-23)
(0.0184155 2.72391e-06 1.21104e-23)
(0.0184175 -2.31828e-06 -6.40613e-24)
(0.0184186 -7.19159e-06 2.69411e-24)
(0.0184189 -1.18867e-05 -3.35681e-24)
(0.0184184 -1.63951e-05 3.23273e-24)
(0.0184172 -2.07078e-05 -7.32077e-25)
(0.016309 4.39176e-05 -1.02095e-24)
(0.0163228 3.90352e-05 -3.54425e-24)
(0.0163349 3.40866e-05 -1.12958e-23)
(0.0163453 2.91317e-05 3.15362e-23)
(0.0163542 2.42068e-05 -5.65359e-24)
(0.0163618 1.9345e-05 -8.88623e-24)
(0.0163681 1.45682e-05 3.07211e-24)
(0.0163732 9.89774e-06 -4.45637e-24)
(0.0163772 5.33839e-06 -9.58203e-24)
(0.0163802 9.15371e-07 9.23149e-24)
(0.0163822 -3.38497e-06 4.41252e-25)
(0.0163833 -7.54458e-06 -2.85931e-24)
(0.0163835 -1.15483e-05 3.26503e-24)
(0.0163829 -1.5388e-05 1.8047e-25)
(0.0163814 -1.9055e-05 -2.31434e-25)
(0.0143572 3.4914e-05 3.92879e-24)
(0.0143708 3.08891e-05 5.78181e-24)
(0.0143828 2.68142e-05 -5.38879e-24)
(0.0143932 2.27248e-05 -1.17751e-23)
(0.0144021 1.86491e-05 1.58498e-23)
(0.0144096 1.46174e-05 -1.73481e-23)
(0.0144159 1.06506e-05 -6.71607e-25)
(0.0144209 6.76626e-06 6.72173e-24)
(0.0144248 2.97233e-06 2.33805e-24)
(0.0144276 -7.1192e-07 -4.81173e-24)
(0.0144294 -4.29514e-06 2.8817e-26)
(0.0144302 -7.75587e-06 9.73859e-24)
(0.01443 -1.10811e-05 -3.719e-24)
(0.014429 -1.42638e-05 -9.20821e-25)
(0.0144271 -1.72954e-05 -5.50588e-26)
(0.012512 2.69085e-05 -4.08092e-24)
(0.012525 2.36546e-05 5.25363e-24)
(0.0125365 2.03666e-05 5.91744e-25)
(0.0125465 1.70603e-05 1.06431e-23)
(0.0125549 1.37606e-05 -8.67416e-24)
(0.012562 1.04939e-05 6.93801e-25)
(0.0125679 7.27927e-06 -9.30522e-25)
(0.0125725 4.12785e-06 -2.72994e-24)
(0.0125759 1.05573e-06 2.3818e-24)
(0.0125782 -1.94326e-06 -7.68865e-24)
(0.0125794 -4.84058e-06 5.46078e-25)
(0.0125797 -7.63197e-06 1.83324e-24)
(0.0125789 -1.03101e-05 1.13549e-24)
(0.0125772 -1.28675e-05 4.38907e-25)
(0.0125746 -1.52948e-05 1.52581e-25)
(0.0107843 2.00529e-05 3.02253e-24)
(0.0107964 1.74905e-05 -2.39101e-24)
(0.010807 1.49059e-05 -1.05213e-23)
(0.010816 1.23022e-05 9.87905e-24)
(0.0108237 9.70357e-06 1.38153e-23)
(0.0108301 7.13176e-06 -3.49727e-24)
(0.0108351 4.60144e-06 -7.14423e-24)
(0.010839 2.12224e-06 -1.00317e-23)
(0.0108417 -2.93635e-07 7.56642e-24)
(0.0108433 -2.64882e-06 4.41744e-25)
(0.0108438 -4.91869e-06 -1.6974e-24)
(0.0108432 -7.09986e-06 -4.55245e-25)
(0.0108417 -9.18719e-06 9.36857e-25)
(0.0108393 -1.11736e-05 -3.56895e-26)
(0.0108359 -1.30505e-05 -1.76019e-25)
(0.00917861 1.44183e-05 -1.90195e-24)
(0.00918932 1.24637e-05 -1.35672e-24)
(0.00919863 1.04947e-05 1.6502e-24)
(0.00920657 8.50838e-06 -5.2463e-24)
(0.00921317 6.52837e-06 1.72215e-23)
(0.00921851 4.5705e-06 -2.28553e-23)
(0.00922262 2.6452e-06 2.24401e-23)
(0.00922558 7.62554e-07 -9.50989e-24)
(0.0092274 -1.0755e-06 2.16589e-24)
(0.00922815 -2.85765e-06 3.04547e-26)
(0.00922786 -4.57311e-06 -1.69083e-24)
(0.00922658 -6.21769e-06 5.64556e-25)
(0.00922433 -7.78644e-06 -1.28218e-24)
(0.00922119 -9.27325e-06 -1.6598e-25)
(0.00921716 -1.0671e-05 8.26944e-26)
(0.00769495 9.97244e-06 -9.23915e-25)
(0.00770408 8.53517e-06 2.36414e-25)
(0.00771198 7.08925e-06 5.14866e-25)
(0.00771861 5.62983e-06 -2.39368e-24)
(0.00772402 4.1785e-06 -1.083e-24)
(0.00772826 2.74473e-06 9.36166e-24)
(0.00773138 1.33622e-06 -5.50614e-24)
(0.0077334 -3.79697e-08 7.9009e-25)
(0.00773438 -1.38046e-06 -7.64717e-25)
(0.00773434 -2.67741e-06 -8.24905e-25)
(0.00773334 -3.92358e-06 -2.37991e-25)
(0.00773141 -5.11498e-06 1.55975e-24)
(0.00772858 -6.24746e-06 3.83784e-25)
(0.00772492 -7.31603e-06 -9.18197e-25)
(0.00772044 -8.3153e-06 -1.37924e-25)
(0.00633087 6.59919e-06 -3.35846e-25)
(0.00633839 5.58642e-06 -1.11362e-25)
(0.00634483 4.57029e-06 -5.42031e-24)
(0.00635014 3.54557e-06 1.43142e-24)
(0.00635437 2.52985e-06 -3.91022e-24)
(0.00635756 1.52696e-06 2.72871e-24)
(0.00635973 5.43284e-07 5.18115e-24)
(0.00636093 -4.14898e-07 3.88955e-24)
(0.00636118 -1.34994e-06 -5.45479e-24)
(0.00636052 -2.25174e-06 1.64449e-24)
(0.00635899 -3.11624e-06 1.3968e-24)
(0.00635662 -3.94034e-06 -1.99258e-24)
(0.00635346 -4.721e-06 1.06142e-24)
(0.00634955 -5.45429e-06 -7.23458e-26)
(0.00634491 -6.13629e-06 2.58687e-25)
(0.00508225 4.13662e-06 -1.31468e-24)
(0.00508821 3.45903e-06 -1.80284e-24)
(0.00509325 2.78371e-06 -3.29496e-25)
(0.00509733 2.10444e-06 4.48619e-24)
(0.00510048 1.43355e-06 -3.17895e-24)
(0.00510274 7.70833e-07 -6.197e-25)
(0.00510412 1.22692e-07 5.12507e-24)
(0.00510465 -5.08364e-07 1.45468e-26)
(0.00510437 -1.12387e-06 -1.03885e-24)
(0.0051033 -1.71644e-06 -3.79736e-24)
(0.00510148 -2.28326e-06 4.27655e-25)
(0.00509894 -2.82209e-06 2.5971e-24)
(0.00509571 -3.33094e-06 -3.33985e-25)
(0.00509185 -3.8068e-06 -3.46391e-25)
(0.00508737 -4.24678e-06 2.2722e-25)
(0.0039438 2.41063e-06 -2.87153e-25)
(0.00394832 1.98676e-06 1.69051e-26)
(0.0039521 1.57072e-06 2.15031e-24)
(0.00395508 1.15415e-06 1.4412e-24)
(0.00395731 7.44161e-07 -9.91069e-25)
(0.00395879 3.38617e-07 -2.45638e-24)
(0.00395956 -5.66954e-08 9.9521e-25)
(0.00395963 -4.42871e-07 -4.17518e-24)
(0.00395903 -8.17648e-07 3.21559e-24)
(0.00395778 -1.17925e-06 1.64808e-24)
(0.00395591 -1.5243e-06 -1.39887e-26)
(0.00395345 -1.85148e-06 -1.79057e-24)
(0.00395042 -2.15954e-06 3.2086e-25)
(0.00394687 -2.4462e-06 -2.37857e-25)
(0.00394282 -2.7092e-06 1.16875e-25)
(0.00290944 1.25669e-06 -5.28358e-25)
(0.00291267 1.01308e-06 1.06705e-26)
(0.00291534 7.82368e-07 1.72289e-24)
(0.00291739 5.53663e-07 -1.07712e-24)
(0.00291886 3.2993e-07 4.43646e-24)
(0.00291975 1.10092e-07 -8.08362e-24)
(0.00292009 -1.08393e-07 6.53883e-24)
(0.00291989 -3.15829e-07 -5.45389e-24)
(0.00291917 -5.22911e-07 3.94235e-24)
(0.00291794 -7.18956e-07 -2.52381e-24)
(0.00291623 -9.06172e-07 8.66875e-25)
(0.00291407 -1.08321e-06 1.25018e-25)
(0.00291147 -1.2491e-06 1.94809e-25)
(0.00290847 -1.40217e-06 -2.39046e-25)
(0.00290509 -1.54057e-06 4.82847e-26)
(0.00197259 5.36422e-07 8.01164e-25)
(0.0019747 4.08783e-07 8.66232e-25)
(0.00197641 2.98635e-07 -3.70295e-24)
(0.00197769 1.92403e-07 2.70879e-24)
(0.00197855 9.0421e-08 -2.63561e-26)
(0.00197902 -5.66941e-09 6.97899e-25)
(0.00197909 -1.06719e-07 -8.51671e-25)
(0.00197879 -2.01157e-07 -1.77961e-24)
(0.00197811 -2.9212e-07 1.76816e-24)
(0.00197708 -3.77943e-07 1.82969e-25)
(0.00197571 -4.58885e-07 -1.40265e-24)
(0.00197402 -5.34135e-07 5.03446e-25)
(0.00197202 -6.04387e-07 2.95504e-25)
(0.00196975 -6.68808e-07 -3.52559e-26)
(0.0019672 -7.25843e-07 -3.24569e-26)
(0.00112641 1.58061e-07 -8.07903e-25)
(0.00112754 1.11293e-07 2.47075e-24)
(0.00112844 8.0937e-08 1.47416e-24)
(0.00112908 5.13341e-08 -2.65322e-24)
(0.00112949 2.214e-08 -3.1092e-25)
(0.00112966 -5.35444e-09 -2.75575e-25)
(0.0011296 -3.70132e-08 8.40278e-25)
(0.00112933 -6.6129e-08 -1.42401e-24)
(0.00112883 -9.41775e-08 1.93429e-24)
(0.00112813 -1.21136e-07 -9.46756e-25)
(0.00112723 -1.45242e-07 -6.11019e-25)
(0.00112613 -1.64992e-07 3.67528e-25)
(0.00112487 -1.86474e-07 -4.28378e-25)
(0.00112343 -2.09921e-07 4.26398e-25)
(0.00112184 -2.34035e-07 -7.0313e-26)
(0.000363987 5.9204e-08 -5.76405e-27)
(0.000364259 1.13606e-07 4.79614e-25)
(0.000364465 1.58172e-07 5.48757e-25)
(0.000364595 1.87371e-07 -8.59933e-25)
(0.000364656 2.03193e-07 1.787e-24)
(0.000364645 2.07699e-07 -1.94017e-24)
(0.000364564 2.02511e-07 1.2724e-25)
(0.000364413 1.89851e-07 1.06768e-24)
(0.000364195 1.70683e-07 -1.47567e-24)
(0.00036391 1.46363e-07 -2.64892e-25)
(0.000363561 1.19136e-07 1.0107e-24)
(0.000363152 9.08472e-08 -4.44722e-25)
(0.000362685 5.78229e-08 -1.61329e-25)
(0.000362166 2.03755e-08 1.34333e-25)
(0.000361598 -2.03973e-08 -5.81538e-27)
(0.00091046 -0.000239429 8.03376e-26)
(0.00104323 -0.000159409 2.04523e-24)
(0.00126688 -7.73993e-05 -5.86344e-24)
(0.00149575 -1.14429e-05 8.48908e-24)
(0.00171595 4.01144e-05 -3.18395e-24)
(0.00193228 7.80447e-05 -3.04017e-24)
(0.00214466 0.000104824 3.44613e-24)
(0.00235368 0.000122502 -6.78646e-24)
(0.00256005 0.000132806 4.44213e-25)
(0.00276436 0.000137221 4.262e-24)
(0.00296718 0.000137029 -8.10484e-25)
(0.003169 0.000133369 8.74048e-25)
(0.00337038 0.000127298 -8.57603e-26)
(0.00357193 0.000119861 5.40887e-25)
(0.00377448 0.000112143 -1.98474e-24)
(0.00397911 0.000105344 1.08557e-24)
(0.00418759 0.000100766 -3.3454e-25)
(0.00440232 9.98414e-05 2.62143e-26)
(0.00462719 0.000103705 7.76124e-25)
(0.00486699 0.000112913 -4.84952e-25)
(0.00512825 0.000125673 5.95173e-26)
(0.00541596 0.000137079 -5.20404e-26)
(0.00570813 0.000135936 9.93665e-26)
(0.00596765 0.000114914 3.84444e-25)
(0.00618163 7.48228e-05 -6.89935e-25)
(0.00634991 1.85048e-05 -4.63346e-25)
(0.0064741 -5.09548e-05 2.58208e-26)
(0.00655649 -0.000130926 1.12618e-24)
(0.00659883 -0.000218931 1.42707e-24)
(0.0066021 -0.000312125 -2.76494e-24)
(0.00656663 -0.000406831 1.88507e-24)
(0.00649253 -0.00049829 -1.33299e-24)
(0.00638 -0.000580658 1.54463e-25)
(0.00622967 -0.000647134 -1.17469e-24)
(0.00604268 -0.000690126 1.13176e-24)
(0.00582065 -0.000701287 7.50038e-24)
(0.00556554 -0.000671301 -2.06367e-24)
(0.00527964 -0.00058917 1.9288e-24)
(0.00496565 -0.000440803 1.03632e-24)
(0.00462727 -0.000207398 -1.10794e-23)
(0.00426831 0.000133235 -1.35285e-25)
(0.0038939 0.000595112 4.67652e-24)
(0.00349291 0.00114885 1.49839e-24)
(0.0030833 0.00167306 -6.56235e-24)
(0.00285154 0.00180035 -3.26171e-25)
(0.00171459 -0.000319747 -2.35397e-24)
(0.00177017 -0.000274392 -3.29364e-24)
(0.00190848 -0.000195458 6.91994e-24)
(0.0020824 -0.000122384 3.1925e-24)
(0.00226751 -6.06029e-05 -1.11589e-23)
(0.00245907 -1.22345e-05 1.18679e-23)
(0.00265298 2.41315e-05 -4.24876e-24)
(0.0028474 5.03787e-05 3.35831e-24)
(0.0030417 6.82735e-05 -4.44107e-24)
(0.00323569 7.94108e-05 5.14476e-26)
(0.0034294 8.51791e-05 -2.34314e-24)
(0.00362304 8.68101e-05 4.64299e-24)
(0.00381692 8.54364e-05 -2.56348e-24)
(0.00401148 8.21549e-05 -2.2931e-24)
(0.0042074 7.80845e-05 -1.51285e-24)
(0.00440561 7.4433e-05 2.90653e-24)
(0.00460769 7.24932e-05 -3.4186e-25)
(0.00481579 7.36565e-05 1.49884e-24)
(0.00503347 7.90224e-05 2.31899e-25)
(0.00526511 8.91312e-05 -4.4201e-25)
(0.00551686 0.000102305 -1.82906e-25)
(0.00579349 0.00011398 -1.10273e-25)
(0.00607438 0.00011353 5.37868e-25)
(0.00632454 9.41268e-05 6.59386e-25)
(0.00653174 5.66305e-05 -5.92617e-25)
(0.00669568 3.75981e-06 -2.83042e-24)
(0.00681762 -6.14742e-05 3.77191e-24)
(0.00689949 -0.00013641 -2.56558e-24)
(0.0069428 -0.000218451 8.56832e-25)
(0.00694843 -0.000304615 -4.06269e-25)
(0.00691679 -0.000391113 2.64749e-24)
(0.00684817 -0.000473138 -2.54582e-24)
(0.00674312 -0.000544862 -1.88762e-25)
(0.00660275 -0.000599562 6.07333e-24)
(0.00642883 -0.000629747 -1.04321e-23)
(0.00622387 -0.000627195 2.84233e-24)
(0.00599119 -0.000582754 1.33557e-23)
(0.00573506 -0.000485743 -3.67245e-24)
(0.00546132 -0.000322787 -1.07266e-23)
(0.00517901 -7.63082e-05 -6.46282e-24)
(0.00490173 0.000274507 1.47391e-23)
(0.00465238 0.000744138 -1.41831e-23)
(0.00445503 0.00130331 -3.11668e-24)
(0.00434992 0.00181969 9.25777e-24)
(0.00438015 0.00188885 2.94535e-24)
(0.00266456 -0.000327986 -2.67484e-26)
(0.00267294 -0.000322909 -3.77214e-24)
(0.0027321 -0.000275739 7.32867e-24)
(0.00284168 -0.000212962 6.12805e-24)
(0.00297772 -0.000151661 -1.00275e-23)
(0.00313145 -9.88359e-05 2.08379e-25)
(0.0032958 -5.61257e-05 9.58863e-25)
(0.00346646 -2.30635e-05 1.03407e-23)
(0.00364107 1.49503e-06 -1.22441e-23)
(0.00381828 1.88899e-05 7.50619e-24)
(0.00399738 3.04195e-05 2.25169e-24)
(0.00417802 3.72966e-05 -1.2448e-23)
(0.00436015 4.06628e-05 4.4935e-24)
(0.00454392 4.16295e-05 1.78367e-24)
(0.00472979 4.13254e-05 -3.69303e-24)
(0.00491846 4.09513e-05 5.9615e-24)
(0.00511127 4.17787e-05 -4.18087e-24)
(0.00531006 4.51524e-05 -7.21284e-26)
(0.00551806 5.21305e-05 3.24411e-25)
(0.00573918 6.32364e-05 3.41993e-25)
(0.00597912 7.69029e-05 4.44006e-26)
(0.00624233 8.89075e-05 1.94127e-25)
(0.00650969 8.91926e-05 -5.43107e-25)
(0.00674851 7.14421e-05 1.619e-24)
(0.00694725 3.65859e-05 -2.55438e-24)
(0.00710544 -1.2768e-05 1.46901e-24)
(0.007224 -7.36713e-05 -3.28654e-24)
(0.00730447 -0.000143429 4.4081e-24)
(0.00734811 -0.000219327 -3.70077e-24)
(0.0073557 -0.000298244 5.55617e-25)
(0.00732773 -0.000376287 7.74304e-25)
(0.00726473 -0.000448613 3.02263e-24)
(0.0071676 -0.000509443 -7.19647e-25)
(0.00703796 -0.000552183 3.15786e-24)
(0.00687827 -0.000569567 -9.28886e-24)
(0.00669201 -0.000553701 1.65025e-23)
(0.00648386 -0.000495965 -1.14188e-23)
(0.00626009 -0.000386646 1.7117e-23)
(0.00602951 -0.000214295 -3.27933e-23)
(0.00580555 3.49998e-05 1.25125e-23)
(0.00560871 0.000375847 4.35729e-24)
(0.00547076 0.00081443 6.81694e-24)
(0.00542672 0.00131471 -8.46933e-24)
(0.00549979 0.00174659 2.38553e-24)
(0.00565909 0.00179138 -1.44015e-24)
(0.00374312 -0.000311619 -9.97339e-25)
(0.0037251 -0.000331545 -1.51878e-24)
(0.00373503 -0.000313322 -6.48336e-24)
(0.00378278 -0.000273359 1.79577e-24)
(0.00386533 -0.000222793 1.19115e-24)
(0.00397276 -0.000173295 5.10831e-24)
(0.00409815 -0.00012949 -1.06485e-23)
(0.00423607 -9.30261e-05 4.07512e-24)
(0.00438285 -6.39855e-05 1.34943e-23)
(0.00453603 -4.17178e-05 -3.5933e-24)
(0.00469405 -2.52992e-05 -3.35817e-24)
(0.00485591 -1.3716e-05 -5.32922e-25)
(0.00502108 -5.93159e-06 1.74072e-24)
(0.00518934 -8.93424e-07 -3.396e-24)
(0.00536085 2.48819e-06 7.86443e-25)
(0.00553602 5.37409e-06 -2.73099e-25)
(0.00571591 8.99053e-06 -1.61059e-24)
(0.00590203 1.46183e-05 6.25102e-25)
(0.00609721 2.32616e-05 2.78633e-24)
(0.00630483 3.54172e-05 -3.27032e-25)
(0.00653011 4.96219e-05 -6.21782e-25)
(0.00677711 6.19938e-05 -1.70968e-25)
(0.00702827 6.30433e-05 -9.57715e-25)
(0.00725338 4.69827e-05 -5.65349e-26)
(0.00744162 1.48242e-05 -2.26767e-24)
(0.00759233 -3.09223e-05 3.91814e-24)
(0.00770605 -8.73652e-05 -3.28666e-24)
(0.00778394 -0.000151774 6.24147e-24)
(0.007827 -0.000221322 -5.08478e-24)
(0.00783593 -0.000292766 1.28682e-24)
(0.00781131 -0.000362133 1.73749e-24)
(0.00775389 -0.000424586 -1.87503e-25)
(0.00766498 -0.000474462 -3.0184e-25)
(0.00754671 -0.000505408 -1.09033e-24)
(0.00740225 -0.000510544 1.3637e-24)
(0.00723602 -0.000482581 -5.1352e-24)
(0.00705394 -0.000413849 2.42376e-23)
(0.00686397 -0.00029626 -1.28577e-23)
(0.00667707 -0.000121296 -4.40021e-25)
(0.00650894 0.000119703 -2.91271e-23)
(0.00638198 0.000433035 2.20761e-23)
(0.00632689 0.000814849 -8.01068e-24)
(0.00637401 0.00122785 1.97889e-24)
(0.00652896 0.00157115 9.95801e-24)
(0.00674542 0.00165186 -2.38092e-24)
(0.00494538 -0.000285731 -4.12099e-24)