/*--------------------------------*- C++ -*----------------------------------*\
| =========                 |                                                 |
| \\      /  F ield         | OpenFOAM: The Open Source CFD Toolbox           |
|  \\    /   O peration     | Version:  2312                                  |
|   \\  /    A nd           | Website:  www.openfoam.com                      |
|    \\/     M anipulation  |                                                 |
\*---------------------------------------------------------------------------*/
FoamFile
{
    version     2.0;
    format      ascii;
    arch        "LSB;label=32;scalar=64";
    class       surfaceScalarField;
    location    "37.5";
    object      phi;
}
// * * * * * * * * * * * * * * * * * * * * * * * * * * * * * * * * * * * * * //

dimensions      [0 3 -1 0 0 0 0];

oriented        oriented;

internalField   nonuniform List<scalar> 
9445
(
5.70353e-10
1.27708e-11
5.63261e-10
7.09206e-12
5.59691e-10
3.56955e-12
5.58473e-10
1.21797e-12
5.58969e-10
-4.96057e-13
5.60466e-10
-1.49702e-12
5.629e-10
-2.43383e-12
5.6629e-10
-3.38937e-12
5.70736e-10
-4.44661e-12
5.76579e-10
-5.84228e-12
5.84902e-10
-8.32338e-12
5.99221e-10
-1.43189e-11
6.31841e-10
-3.26203e-11
7.25503e-10
-9.36621e-11
-2.39234e-10
9.64737e-10
1.99631e-09
5.52674e-11
1.97271e-09
3.06924e-11
1.96079e-09
1.54895e-11
1.95671e-09
5.3011e-12
1.95797e-09
-1.75616e-12
1.96254e-09
-6.07377e-12
1.97018e-09
-1.00707e-11
1.98074e-09
-1.39489e-11
1.99451e-09
-1.82189e-11
2.01252e-09
-2.38521e-11
2.03752e-09
-3.33256e-11
2.07623e-09
-5.30257e-11
2.14152e-09
-9.79141e-11
2.24519e-09
-1.97327e-10
-3.46443e-10
2.3524e-09
3.94849e-09
1.3539e-10
3.90394e-09
7.52428e-11
3.88133e-09
3.80977e-11
3.87341e-09
1.32224e-11
3.87514e-09
-3.48895e-12
3.88303e-09
-1.39599e-11
3.89651e-09
-2.35554e-11
3.91502e-09
-3.24618e-11
3.93881e-09
-4.20035e-11
3.96914e-09
-5.41849e-11
4.00877e-09
-7.29547e-11
4.06219e-09
-1.06445e-10
4.13195e-09
-1.67669e-10
4.20458e-09
-2.69966e-10
-3.87772e-10
4.24591e-09
6.57312e-09
2.6189e-10
6.50254e-09
1.45823e-10
6.46639e-09
7.42481e-11
6.45315e-09
2.64626e-11
6.45468e-09
-5.01899e-12
6.4657e-09
-2.49832e-11
6.4851e-09
-4.29519e-11
6.51157e-09
-5.8937e-11
6.54485e-09
-7.52868e-11
6.5857e-09
-9.503e-11
6.63522e-09
-1.2247e-10
6.69316e-09
-1.64389e-10
6.75334e-09
-2.27845e-10
6.79679e-09
-3.13416e-10
-3.94713e-10
6.80373e-09
1.00472e-08
4.43479e-10
9.94523e-09
2.47759e-10
9.89231e-09
1.27163e-10
9.87173e-09
4.70462e-11
9.87188e-09
-5.17117e-12
9.88548e-09
-3.85829e-11
9.91013e-09
-6.75993e-11
9.94362e-09
-9.24264e-11
9.98468e-09
-1.16347e-10
1.00328e-08
-1.43159e-10
1.00868e-08
-1.76437e-10
1.01424e-08
-2.20001e-10
1.01899e-08
-2.75317e-10
1.02136e-08
-3.37142e-10
-3.86645e-10
1.02055e-08
1.45796e-08
6.86749e-10
1.44418e-08
3.85534e-10
1.43692e-08
1.99844e-10
1.43389e-08
7.72732e-11
1.43361e-08
-2.35868e-12
1.43514e-08
-5.3876e-11
1.438e-08
-9.62029e-11
1.44187e-08
-1.31061e-10
1.44648e-08
-1.62539e-10
1.45164e-08
-1.94748e-10
1.45701e-08
-2.30121e-10
1.46199e-08
-2.69754e-10
1.46565e-08
-3.11972e-10
1.46704e-08
-3.5103e-10
-3.76513e-10
1.46603e-08
2.04093e-08
9.92151e-10
2.02343e-08
5.60523e-10
2.01405e-08
2.93699e-10
2.0099e-08
1.18734e-10
2.00918e-08
4.86072e-12
2.01076e-08
-6.96835e-11
2.01386e-08
-1.27194e-10
2.01801e-08
-1.72538e-10
2.02284e-08
-2.109e-10
2.02799e-08
-2.46262e-10
2.03301e-08
-2.80266e-10
2.0373e-08
-3.12647e-10
2.04022e-08
-3.41167e-10
2.04132e-08
-3.62036e-10
-3.70824e-10
2.04075e-08
2.77981e-08
1.34762e-09
2.75915e-08
7.67108e-10
2.74792e-08
4.06072e-10
2.74275e-08
1.70393e-10
2.74159e-08
1.64258e-11
2.74312e-08
-8.49933e-11
2.74633e-08
-1.59236e-10
2.75058e-08
-2.15088e-10
2.7554e-08
-2.59068e-10
2.76031e-08
-2.95351e-10
2.76484e-08
-3.25557e-10
2.76853e-08
-3.49551e-10
2.77103e-08
-3.66139e-10
2.77221e-08
-3.73886e-10
-3.71811e-10
2.77231e-08
3.7021e-08
1.72122e-09
3.68005e-08
9.87622e-10
3.66798e-08
5.26768e-10
3.6624e-08
2.26162e-10
3.66114e-08
2.9054e-11
3.66275e-08
-1.0112e-10
3.66609e-08
-1.92595e-10
3.67041e-08
-2.58254e-10
3.67513e-08
-3.06278e-10
3.67976e-08
-3.41664e-10
3.68389e-08
-3.66864e-10
3.68722e-08
-3.82865e-10
3.68961e-08
-3.90036e-10
3.6911e-08
-3.8882e-10
-3.79995e-10
3.69192e-08
4.83625e-08
2.05885e-09
4.81609e-08
1.18918e-09
4.80525e-08
6.35222e-10
4.80059e-08
2.72677e-10
4.80009e-08
3.41177e-11
4.80232e-08
-1.23389e-10
4.80612e-08
-2.30605e-10
4.81071e-08
-3.04228e-10
4.81553e-08
-3.544e-10
4.82011e-08
-3.87499e-10
4.82416e-08
-4.0737e-10
4.82752e-08
-4.1646e-10
4.83017e-08
-4.16554e-10
4.83222e-08
-4.09316e-10
-3.96348e-10
4.83386e-08
6.21404e-08
2.2979e-09
6.20001e-08
1.32944e-09
6.19325e-08
7.02827e-10
6.1915e-08
2.90211e-10
6.19313e-08
1.77969e-11
6.19693e-08
-1.61407e-10
6.2019e-08
-2.80221e-10
6.20732e-08
-3.58484e-10
6.21272e-08
-4.08394e-10
6.21776e-08
-4.37932e-10
6.22227e-08
-4.5243e-10
6.22619e-08
-4.55638e-10
6.22957e-08
-4.50355e-10
6.23253e-08
-4.38919e-10
-4.23265e-10
6.23522e-08
7.87796e-08
2.40183e-09
7.87314e-08
1.37759e-09
7.87284e-08
7.05918e-10
7.87576e-08
2.61009e-10
7.88086e-08
-3.32124e-11
7.88724e-08
-2.25239e-10
7.89416e-08
-3.49415e-10
7.9011e-08
-4.27899e-10
7.90774e-08
-4.74749e-10
7.91388e-08
-4.99394e-10
7.91948e-08
-5.08356e-10
7.92454e-08
-5.06298e-10
7.92917e-08
-4.96615e-10
7.93347e-08
-4.81936e-10
-4.64269e-10
7.93757e-08
9.89058e-08
2.39111e-09
9.89429e-08
1.34043e-09
9.9003e-08
6.45825e-10
9.90796e-08
1.84388e-10
9.91667e-08
-1.20323e-10
9.92581e-08
-3.16615e-10
9.9349e-08
-4.40315e-10
9.94363e-08
-5.15218e-10
9.95184e-08
-5.5686e-10
9.95948e-08
-5.75756e-10
9.96657e-08
-5.79205e-10
9.97317e-08
-5.72375e-10
9.97941e-08
-5.58943e-10
9.98537e-08
-5.41595e-10
-5.22283e-10
9.99117e-08
1.23337e-07
2.32588e-09
1.23416e-07
1.26108e-09
1.23508e-07
5.54117e-10
1.23608e-07
8.38232e-11
1.23714e-07
-2.25807e-10
1.23819e-07
-4.22074e-10
1.23922e-07
-5.42951e-10
1.2402e-07
-6.13338e-10
1.24113e-07
-6.49858e-10
1.24201e-07
-6.63766e-10
1.24284e-07
-6.62814e-10
1.24365e-07
-6.52414e-10
1.24442e-07
-6.36339e-10
1.24518e-07
-6.17237e-10
-5.96955e-10
1.24592e-07
1.52866e-07
2.24791e-09
1.52947e-07
1.17993e-09
1.53034e-07
4.67043e-10
1.53129e-07
-1.06779e-11
1.53226e-07
-3.23209e-10
1.53324e-07
-5.19866e-10
1.5342e-07
-6.39447e-10
1.53515e-07
-7.07684e-10
1.53607e-07
-7.41818e-10
1.53697e-07
-7.53544e-10
1.53785e-07
-7.50869e-10
1.53872e-07
-7.39322e-10
1.53958e-07
-7.22694e-10
1.54044e-07
-7.03579e-10
-6.83722e-10
1.54131e-07
1.8797e-07
2.15249e-09
1.88048e-07
1.10267e-09
1.88119e-07
3.95448e-10
1.88194e-07
-8.55433e-11
1.8827e-07
-3.98962e-10
1.88347e-07
-5.9679e-10
1.88425e-07
-7.17703e-10
1.88505e-07
-7.87282e-10
1.88586e-07
-8.22798e-10
1.88668e-07
-8.36048e-10
1.88752e-07
-8.35117e-10
1.88839e-07
-8.25552e-10
1.88927e-07
-8.11117e-10
1.89018e-07
-7.94344e-10
-7.76878e-10
1.89111e-07
2.28657e-07
2.01456e-09
2.28749e-07
1.01141e-09
2.28816e-07
3.28488e-10
2.28877e-07
-1.4717e-10
2.28935e-07
-4.56518e-10
2.28992e-07
-6.54323e-10
2.29052e-07
-7.77738e-10
2.29116e-07
-8.511e-10
2.29184e-07
-8.9101e-10
2.29257e-07
-9.08961e-10
2.29335e-07
-9.12877e-10
2.29418e-07
-9.08183e-10
2.29505e-07
-8.98552e-10
2.29597e-07
-8.86447e-10
-8.73463e-10
2.29694e-07
2.74394e-07
1.81979e-09
2.74513e-07
8.93012e-10
2.74588e-07
2.52915e-10
2.74646e-07
-2.04778e-10
2.74694e-07
-5.0436e-10
2.7474e-07
-7.00068e-10
2.74788e-07
-8.26162e-10
2.74842e-07
-9.04811e-10
2.74902e-07
-9.51313e-10
2.74969e-07
-9.76485e-10
2.75044e-07
-9.87814e-10
2.75127e-07
-9.90447e-10
2.75216e-07
-9.87862e-10
2.75312e-07
-9.82408e-10
-9.75626e-10
2.75414e-07
3.23805e-07
1.57111e-09
3.23954e-07
7.44687e-10
3.24042e-07
1.64427e-10
3.24105e-07
-2.67105e-10
3.24153e-07
-5.52472e-10
3.24197e-07
-7.44207e-10
3.24243e-07
-8.72239e-10
3.24294e-07
-9.56248e-10
3.24353e-07
-1.01007e-09
3.2442e-07
-1.04352e-09
3.24496e-07
-1.06347e-09
3.2458e-07
-1.07466e-09
3.24672e-07
-1.0803e-09
3.24773e-07
-1.08261e-09
-1.08269e-09
3.2488e-07
3.74012e-07
1.26806e-09
3.74195e-07
5.62054e-10
3.74306e-07
5.33897e-11
3.74364e-07
-3.24658e-10
3.74392e-07
-5.81363e-10
3.74409e-07
-7.60708e-10
3.74423e-07
-8.85946e-10
3.7444e-07
-9.73255e-10
3.74464e-07
-1.03408e-09
3.74497e-07
-1.07667e-09
3.7454e-07
-1.10672e-09
3.74594e-07
-1.12821e-09
3.74657e-07
-1.14388e-09
3.7473e-07
-1.15565e-09
-1.1649e-09
3.74812e-07
3.72206e-07
9.44202e-10
3.72405e-07
3.63223e-10
3.72529e-07
-7.07723e-11
3.72593e-07
-3.88067e-10
3.72627e-07
-6.15525e-10
3.72647e-07
-7.8106e-10
3.72663e-07
-9.01572e-10
3.72679e-07
-9.89951e-10
3.72701e-07
-1.05562e-09
3.72729e-07
-1.10522e-09
3.72766e-07
-1.1433e-09
3.72811e-07
-1.17313e-09
3.72864e-07
-1.19699e-09
3.72925e-07
-1.21652e-09
-1.23268e-09
3.72993e-07
3.19739e-07
7.10553e-10
3.19869e-07
2.33018e-10
3.19928e-07
-1.29206e-10
3.19942e-07
-4.02039e-10
3.19932e-07
-6.05966e-10
3.1991e-07
-7.59318e-10
3.19885e-07
-8.7579e-10
3.1986e-07
-9.65379e-10
3.1984e-07
-1.03532e-09
3.19825e-07
-1.09083e-09
3.19818e-07
-1.1356e-09
3.19817e-07
-1.17231e-09
3.19823e-07
-1.20284e-09
3.19835e-07
-1.22855e-09
-1.25034e-09
3.19852e-07
2.68498e-07
4.86072e-10
2.68631e-07
1.0043e-10
2.68698e-07
-1.96543e-10
2.68722e-07
-4.2546e-10
2.68718e-07
-6.02491e-10
2.68699e-07
-7.4003e-10
2.68671e-07
-8.48095e-10
2.6864e-07
-9.34188e-10
2.68608e-07
-1.00376e-09
2.68578e-07
-1.06081e-09
2.68551e-07
-1.10818e-09
2.68527e-07
-1.148e-09
2.68506e-07
-1.18173e-09
2.68487e-07
-1.21044e-09
-1.23485e-09
2.68472e-07
2.21923e-07
3.00299e-10
2.2203e-07
-7.07606e-12
2.22082e-07
-2.48723e-10
2.22096e-07
-4.39462e-10
2.22085e-07
-5.90849e-10
2.22057e-07
-7.11813e-10
2.22018e-07
-8.09508e-10
2.21973e-07
-8.89442e-10
2.21925e-07
-9.55681e-10
2.21876e-07
-1.0112e-09
2.21825e-07
-1.05816e-09
2.21776e-07
-1.09813e-09
2.21726e-07
-1.13223e-09
2.21677e-07
-1.16127e-09
-1.18581e-09
2.21628e-07
1.81054e-07
1.58726e-10
1.8113e-07
-8.32526e-11
1.81159e-07
-2.7824e-10
1.81155e-07
-4.35168e-10
1.81127e-07
-5.62557e-10
1.81082e-07
-6.66833e-10
1.81025e-07
-7.53028e-10
1.80961e-07
-8.25059e-10
1.80891e-07
-8.85861e-10
1.80818e-07
-9.37595e-10
1.80741e-07
-9.8183e-10
1.80663e-07
-1.01972e-09
1.80583e-07
-1.05207e-09
1.80501e-07
-1.07949e-09
-1.10237e-09
1.80418e-07
1.46027e-07
6.33981e-11
1.4607e-07
-1.25824e-10
1.46072e-07
-2.8101e-10
1.46046e-07
-4.08419e-10
1.45997e-07
-5.14035e-10
1.45933e-07
-6.02341e-10
1.45856e-07
-6.76789e-10
1.45771e-07
-7.40078e-10
1.4568e-07
-7.94261e-10
1.45583e-07
-8.40867e-10
1.45482e-07
-8.81004e-10
1.45378e-07
-9.15488e-10
1.45271e-07
-9.44893e-10
1.45161e-07
-9.69644e-10
-9.90021e-10
1.45049e-07
1.16521e-07
8.69642e-12
1.16533e-07
-1.37717e-10
1.16512e-07
-2.59889e-10
1.16466e-07
-3.62205e-10
1.16401e-07
-4.48729e-10
1.16321e-07
-5.22441e-10
1.1623e-07
-5.85643e-10
1.1613e-07
-6.40151e-10
1.16023e-07
-6.87369e-10
1.1591e-07
-7.28344e-10
1.15793e-07
-7.63835e-10
1.15672e-07
-7.94403e-10
1.15548e-07
-8.20439e-10
1.1542e-07
-8.42238e-10
-8.5999e-10
1.1529e-07
9.20194e-08
-1.56354e-11
9.20096e-08
-1.27925e-10
9.1973e-08
-2.23227e-10
9.19154e-08
-3.04634e-10
9.18414e-08
-3.74756e-10
9.17545e-08
-4.35492e-10
9.16572e-08
-4.88341e-10
9.15515e-08
-5.34507e-10
9.14391e-08
-5.74917e-10
9.1321e-08
-6.10267e-10
9.11982e-08
-6.41061e-10
9.10715e-08
-6.6767e-10
9.09414e-08
-6.90351e-10
9.08085e-08
-7.09304e-10
-7.24653e-10
9.06731e-08
7.19298e-08
-2.14208e-11
7.19085e-08
-1.06662e-10
7.18656e-08
-1.80297e-10
7.18054e-08
-2.44399e-10
7.17311e-08
-3.00534e-10
7.16455e-08
-3.49868e-10
7.15505e-08
-3.93364e-10
7.14478e-08
-4.31797e-10
7.13387e-08
-4.65762e-10
7.12241e-08
-4.95703e-10
7.1105e-08
-5.21942e-10
7.0982e-08
-5.44715e-10
7.08559e-08
-5.64184e-10
7.0727e-08
-5.80479e-10
-5.93673e-10
7.05961e-08
5.56422e-08
-1.80877e-11
5.56175e-08
-8.19493e-11
5.55753e-08
-1.38143e-10
5.55188e-08
-1.8792e-10
5.54505e-08
-2.32135e-10
5.53721e-08
-2.71491e-10
5.52853e-08
-3.06599e-10
5.51915e-08
-3.37941e-10
5.50916e-08
-3.65885e-10
5.49866e-08
-3.907e-10
5.48772e-08
-4.12583e-10
5.47642e-08
-4.31677e-10
5.46481e-08
-4.48077e-10
5.45295e-08
-4.61861e-10
-4.73069e-10
5.44088e-08
4.25648e-08
-1.16649e-11
4.25416e-08
-5.86867e-11
4.25043e-08
-1.0085e-10
4.24551e-08
-1.38762e-10
4.23958e-08
-1.72839e-10
4.23278e-08
-2.0351e-10
4.22524e-08
-2.31156e-10
4.21705e-08
-2.56066e-10
4.20831e-08
-2.78455e-10
4.19909e-08
-2.98478e-10
4.18945e-08
-3.16247e-10
4.17947e-08
-3.31842e-10
4.16919e-08
-3.45312e-10
4.15868e-08
-3.56703e-10
-3.66027e-10
4.14797e-08
3.21532e-08
-5.39759e-12
3.21337e-08
-3.92384e-11
3.2103e-08
-7.01526e-11
3.20626e-08
-9.82832e-11
3.20135e-08
-1.2381e-10
3.1957e-08
-1.47011e-10
3.1894e-08
-1.68119e-10
3.18252e-08
-1.87297e-10
3.17514e-08
-2.04662e-10
3.16733e-08
-2.20296e-10
3.15913e-08
-2.34257e-10
3.1506e-08
-2.46583e-10
3.1418e-08
-2.57297e-10
3.13277e-08
-2.66418e-10
-2.73947e-10
3.12356e-08
2.39272e-08
-7.14562e-13
2.39122e-08
-2.43313e-11
2.38884e-08
-4.63051e-11
2.38566e-08
-6.64692e-11
2.38177e-08
-8.49082e-11
2.37725e-08
-1.01813e-10
2.37217e-08
-1.17321e-10
2.36659e-08
-1.31519e-10
2.36057e-08
-1.44462e-10
2.35416e-08
-1.56189e-10
2.34741e-08
-1.66725e-10
2.34036e-08
-1.76082e-10
2.33305e-08
-1.8427e-10
2.32554e-08
-1.91289e-10
-1.97134e-10
2.31786e-08
1.7476e-08
2.02012e-12
1.74655e-08
-1.37663e-11
1.74479e-08
-2.87515e-11
1.7424e-08
-4.25625e-11
1.73944e-08
-5.52722e-11
1.73596e-08
-6.70161e-11
1.73201e-08
-7.78724e-11
1.72765e-08
-8.78799e-11
1.72291e-08
-9.70619e-11
1.71783e-08
-1.0543e-10
1.71246e-08
-1.12993e-10
1.70683e-08
-1.19749e-10
1.70097e-08
-1.25699e-10
1.69493e-08
-1.30837e-10
-1.3515e-10
1.68873e-08
1.24557e-08
3.05097e-12
1.24489e-08
-6.89769e-12
1.24367e-08
-1.65484e-11
1.24195e-08
-2.54446e-11
1.2398e-08
-3.36774e-11
1.23723e-08
-4.134e-11
1.23429e-08
-4.84734e-11
1.23101e-08
-5.50916e-11
1.22742e-08
-6.12002e-11
1.22356e-08
-6.67989e-11
1.21945e-08
-7.18867e-11
1.21512e-08
-7.64582e-11
1.2106e-08
-8.05098e-11
1.20592e-08
-8.40318e-11
-8.70111e-11
1.20111e-08
8.58171e-09
2.86883e-12
8.57772e-09
-2.90419e-12
8.56977e-09
-8.60425e-12
8.55819e-09
-1.3864e-11
8.54326e-09
-1.87511e-11
8.52526e-09
-2.33304e-11
8.5044e-09
-2.7622e-11
8.48094e-09
-3.16281e-11
8.45509e-09
-3.53467e-11
8.42706e-09
-3.87731e-11
8.39708e-09
-4.19034e-11
8.36535e-09
-4.47315e-11
8.33209e-09
-4.72534e-11
8.29752e-09
-4.94598e-11
-5.13365e-11
8.26185e-09
5.62079e-09
2.04147e-12
5.6188e-09
-9.21721e-13
5.61406e-09
-3.86035e-12
5.60678e-09
-6.58141e-12
5.59714e-09
-9.11693e-12
5.58532e-09
-1.15083e-11
5.57146e-09
-1.37642e-11
5.55572e-09
-1.5883e-11
5.53823e-09
-1.78604e-11
5.51915e-09
-1.96917e-11
5.49862e-09
-2.13733e-11
5.47679e-09
-2.29003e-11
5.45381e-09
-2.42699e-11
5.42982e-09
-2.54748e-11
-2.65019e-11
5.40499e-09
3.38309e-09
1.05644e-12
3.38233e-09
-1.69225e-13
3.37983e-09
-1.35726e-12
3.37571e-09
-2.46088e-12
3.37009e-09
-3.49488e-12
3.36306e-09
-4.47641e-12
3.3547e-09
-5.4096e-12
3.34511e-09
-6.29148e-12
3.33437e-09
-7.11893e-12
3.32257e-09
-7.88885e-12
3.30979e-09
-8.59909e-12
3.29614e-09
-9.24671e-12
3.2817e-09
-9.83047e-12
3.26657e-09
-1.03458e-11
-1.07823e-11
3.25085e-09
1.71479e-09
2.87879e-13
1.71464e-09
-1.72969e-14
1.71357e-09
-2.82299e-13
1.71164e-09
-5.30305e-13
1.70891e-09
-7.65747e-13
1.70542e-09
-9.91671e-13
1.70122e-09
-1.20979e-12
1.69635e-09
-1.41666e-12
1.69084e-09
-1.61176e-12
1.68474e-09
-1.79389e-12
1.67811e-09
-1.96237e-12
1.67098e-09
-2.11625e-12
1.6634e-09
-2.25527e-12
1.65543e-09
-2.3772e-12
-2.47683e-12
1.64713e-09
4.91911e-10
4.91894e-10
4.91612e-10
4.91082e-10
4.90316e-10
4.89324e-10
4.88114e-10
4.86698e-10
4.85086e-10
4.83292e-10
4.8133e-10
4.79213e-10
4.76958e-10
4.74581e-10
4.72104e-10
1.15665e-09
-4.35458e-10
2.43543e-10
1.43403e-09
-3.28689e-10
5.13073e-11
1.71603e-09
-1.52597e-10
-1.29401e-10
1.99666e-09
3.15805e-11
-3.12211e-10
2.274e-09
2.19324e-10
-4.96656e-10
2.54886e-09
4.03029e-10
-6.77897e-10
2.82269e-09
5.80175e-10
-8.54001e-10
3.09657e-09
7.48134e-10
-1.02201e-09
3.3713e-09
9.0365e-10
-1.17839e-09
3.6475e-09
1.04283e-09
-1.31903e-09
3.92564e-09
1.16092e-09
-1.43907e-09
4.2062e-09
1.25221e-09
-1.53276e-09
4.48962e-09
1.30972e-09
-1.59314e-09
4.77634e-09
1.32503e-09
-1.61176e-09
5.0668e-09
1.28818e-09
-1.57865e-09
5.36152e-09
1.18884e-09
-1.48355e-09
5.66125e-09
1.01804e-09
-1.31778e-09
5.96753e-09
7.71374e-10
-1.07766e-09
6.28309e-09
4.51143e-10
-7.667e-10
6.61202e-09
7.26672e-11
-4.01595e-10
6.95916e-09
-3.54603e-10
7.46228e-12
7.32653e-09
-8.4626e-10
4.78886e-10
7.65488e-09
-1.25082e-09
9.22471e-10
7.92079e-09
-1.5748e-09
1.3089e-09
8.12448e-09
-1.88265e-09
1.67895e-09
8.26898e-09
-2.15812e-09
2.01362e-09
8.35886e-09
-2.38678e-09
2.2969e-09
8.39903e-09
-2.56359e-09
2.52342e-09
8.39293e-09
-2.68826e-09
2.69436e-09
8.34364e-09
-2.75018e-09
2.79947e-09
8.2541e-09
-2.75576e-09
2.8453e-09
8.1259e-09
-2.69387e-09
2.82207e-09
7.96099e-09
-2.5521e-09
2.71702e-09
7.76168e-09
-2.32395e-09
2.52326e-09
7.53053e-09
-2.00444e-09
2.2356e-09
7.26994e-09
-1.59118e-09
1.85176e-09
6.98208e-09
-1.0837e-09
1.37157e-09
6.66888e-09
-4.81288e-10
7.94492e-10
6.3321e-09
2.20008e-10
1.16771e-10
5.97271e-09
1.02929e-09
-6.69902e-10
5.58618e-09
1.95198e-09
-1.56545e-09
5.15413e-09
2.96093e-09
-2.52887e-09
4.64257e-09
3.91721e-09
-3.40566e-09
4.05672e-09
4.47091e-09
-3.88506e-09
3.81849e-09
3.68816e-09
-3.44992e-09
2.42892e-09
-5.11981e-10
2.59792e-09
-4.97689e-10
2.82855e-09
-3.8323e-10
3.08811e-09
-2.27972e-10
3.3628e-09
-5.53663e-11
3.64566e-09
1.20163e-10
3.93395e-09
2.91885e-10
4.22655e-09
4.55534e-10
4.52302e-09
6.07184e-10
4.8232e-09
7.42649e-10
5.12713e-09
8.57e-10
5.43494e-09
9.44396e-10
5.74684e-09
9.97818e-10
6.06305e-09
1.00882e-09
6.38376e-09
9.67478e-10
6.70919e-09
8.63411e-10
7.03974e-09
6.8749e-10
7.37652e-09
4.34591e-10
7.72177e-09
1.05893e-10
8.07908e-09
-2.84635e-10
8.45282e-09
-7.28351e-10
8.84472e-09
-1.23816e-09
9.19264e-09
-1.59874e-09
9.47327e-09
-1.85544e-09
9.68772e-09
-2.0971e-09
9.83942e-09
-2.30981e-09
9.93329e-09
-2.48065e-09
9.97439e-09
-2.60469e-09
9.96637e-09
-2.68024e-09
9.91303e-09
-2.69683e-09
9.81772e-09
-2.66045e-09
9.68224e-09
-2.55839e-09
9.50929e-09
-2.37915e-09
9.3022e-09
-2.11687e-09
9.06485e-09
-1.76709e-09
8.8015e-09
-1.32782e-09
8.51692e-09
-7.99124e-10
8.21701e-09
-1.8138e-10
7.91015e-09
5.26867e-10
7.60915e-09
1.33029e-09
7.33193e-09
2.2292e-09
7.1003e-09
3.19255e-09
6.9405e-09
4.07702e-09
6.88236e-09
4.52905e-09
3.93523e-09
6.76561e-09
4.26187e-09
-5.27942e-10
4.34017e-09
-5.75989e-10
4.49351e-09
-5.36563e-10
4.70229e-09
-4.36761e-10
4.94742e-09
-3.00493e-10
5.21656e-09
-1.48976e-10
5.50236e-09
6.08094e-12
5.80053e-09
1.57366e-10
6.10848e-09
2.99237e-10
6.42464e-09
4.26491e-10
6.74808e-09
5.3356e-10
7.07827e-09
6.14207e-10
7.41489e-09
6.61199e-10
7.7577e-09
6.66007e-10
8.10647e-09
6.1871e-10
8.46095e-09
5.08933e-10
8.82098e-09
3.27454e-10
9.18703e-09
6.85469e-11
9.56057e-09
-2.67654e-10
9.94438e-09
-6.68437e-10
1.0342e-08
-1.12599e-09
1.07545e-08
-1.65068e-09
1.11176e-08
-1.96182e-09
1.14087e-08
-2.14653e-09
1.163e-08
-2.31838e-09
1.17854e-08
-2.46521e-09
1.18803e-08
-2.57557e-09
1.19197e-08
-2.64411e-09
1.19078e-08
-2.66826e-09
1.18491e-08
-2.63818e-09
1.17474e-08
-2.55877e-09
1.16047e-08
-2.41565e-09
1.14247e-08
-2.19912e-09
1.12119e-08
-1.90415e-09
1.0972e-08
-1.52718e-09
1.07114e-08
-1.06722e-09
1.04381e-08
-5.25756e-10
1.01624e-08
9.43218e-11
9.89966e-09
7.89569e-10
9.67384e-09
1.5561e-09
9.52083e-09
2.38222e-09
9.48696e-09
3.22642e-09
9.60781e-09
3.95616e-09
9.81879e-09
4.31808e-09
3.87339e-09
9.88063e-09
6.78647e-09
-5.10681e-10
6.80348e-09
-5.92997e-10
6.87899e-09
-6.12075e-10
7.01857e-09
-5.76343e-10
7.21007e-09
-4.9199e-10
7.44125e-09
-3.80158e-10
7.70274e-09
-2.55408e-10
7.9877e-09
-1.27596e-10
8.29128e-09
-4.34103e-12
8.61011e-09
1.07659e-10
8.94192e-09
2.01746e-10
9.28516e-09
2.70973e-10
9.63866e-09
3.07691e-10
1.00015e-08
3.03172e-10
1.03728e-08
2.47457e-10
1.07515e-08
1.302e-10
1.11368e-08
-5.78141e-11
1.15281e-08
-3.22785e-10
1.19259e-08
-6.65495e-10
1.23318e-08
-1.07432e-09
1.2748e-08
-1.54222e-09
1.31746e-08
-2.07722e-09
1.35459e-08
-2.33311e-09
1.38408e-08
-2.44149e-09
1.40629e-08
-2.54049e-09
1.42167e-08
-2.61897e-09
1.43081e-08
-2.66693e-09
1.43417e-08
-2.6778e-09
1.43227e-08
-2.64925e-09
1.42569e-08
-2.57233e-09
1.41477e-08
-2.44958e-09
1.39973e-08
-2.26525e-09
1.3811e-08
-2.01287e-09
1.3595e-08
-1.68811e-09
1.33565e-08
-1.28869e-09
1.31045e-08
-8.1525e-10
1.28503e-08
-2.7156e-10
1.26087e-08
3.35997e-10
1.24004e-08
9.97838e-10
1.2256e-08
1.70053e-09
1.22176e-08
2.42058e-09
1.23318e-08
3.11223e-09
1.26159e-08
3.67205e-09
1.30021e-08
3.93187e-09
3.65781e-09
1.32177e-08
1.01747e-08
-4.79901e-10
1.01571e-08
-5.75387e-10
1.01746e-08
-6.29518e-10
1.02422e-08
-6.44001e-10
1.03665e-08
-6.16284e-10
1.05398e-08
-5.53415e-10
1.07548e-08
-4.70443e-10
1.10047e-08
-3.77527e-10
1.12836e-08
-2.83208e-10
1.15867e-08
-1.95421e-10
1.19104e-08
-1.22001e-10
1.22522e-08
-7.07438e-11
1.26097e-08
-4.98441e-11
1.29812e-08
-6.83124e-11
1.33648e-08
-1.36183e-10
1.37588e-08
-2.63737e-10
1.4161e-08
-4.60064e-10
1.45699e-08
-7.3167e-10
1.49845e-08
-1.08007e-09
1.54046e-08
-1.49446e-09
1.58308e-08
-1.96845e-09
1.62614e-08
-2.50779e-09
1.66308e-08
-2.70253e-09
1.69203e-08
-2.73092e-09
1.71346e-08
-2.75486e-09
1.72791e-08
-2.76342e-09
1.73601e-08
-2.74799e-09
1.73821e-08
-2.69975e-09
1.73518e-08
-2.61894e-09
1.72762e-08
-2.49677e-09
1.71571e-08
-2.33048e-09
1.6998e-08
-2.1061e-09
1.68059e-08
-1.82086e-09
1.65887e-08
-1.47083e-09
1.63554e-08
-1.0554e-09
1.61175e-08
-5.77334e-10
1.58892e-08
-4.32603e-11
1.56884e-08
5.36778e-10
1.55388e-08
1.14738e-09
1.54715e-08
1.76792e-09
1.55237e-08
2.3683e-09
1.57305e-08
2.90545e-09
1.60942e-08
3.30833e-09
1.65427e-08
3.4834e-09
3.32984e-09
1.68707e-08
1.46304e-08
-4.50048e-10
1.45971e-08
-5.42036e-10
1.45818e-08
-6.14229e-10
1.45971e-08
-6.59328e-10
1.46561e-08
-6.75235e-10
1.4764e-08
-6.61343e-10
1.49178e-08
-6.24287e-10
1.5114e-08
-5.73691e-10
1.53477e-08
-5.16892e-10
1.56143e-08
-4.62032e-10
1.59099e-08
-4.17594e-10
1.62311e-08
-3.9193e-10
1.65749e-08
-3.9365e-10
1.69385e-08
-4.31978e-10
1.73193e-08
-5.16968e-10
1.77143e-08
-6.58737e-10
1.81203e-08
-8.66075e-10
1.85342e-08
-1.14557e-09
1.89534e-08
-1.49922e-09
1.93756e-08
-1.91665e-09
1.9799e-08
-2.39184e-09
2.02195e-08
-2.92828e-09
2.05733e-08
-3.05633e-09
2.08446e-08
-3.00222e-09
2.10397e-08
-2.94997e-09
2.11644e-08
-2.88818e-09
2.12257e-08
-2.80927e-09
2.12285e-08
-2.70258e-09
2.11813e-08
-2.57168e-09
2.10914e-08
-2.40686e-09
2.09582e-08
-2.19733e-09
2.07884e-08
-1.93628e-09
2.05904e-08
-1.62283e-09
2.03733e-08
-1.25373e-09
2.01481e-08
-8.30266e-10
1.99284e-08
-3.57599e-10
1.97301e-08
1.55008e-10
1.95729e-08
6.93983e-10
1.94798e-08
1.2405e-09
1.94771e-08
1.77062e-09
1.95913e-08
2.25409e-09
1.9841e-08
2.65582e-09
2.02164e-08
2.93291e-09
2.06575e-08
3.04231e-09
2.95029e-09
2.1037e-08
2.03862e-08
-4.28766e-10
2.0355e-08
-5.10857e-10
2.03272e-08
-5.86428e-10
2.03158e-08
-6.47928e-10
2.03305e-08
-6.89951e-10
2.03818e-08
-7.12588e-10
2.04749e-08
-7.17403e-10
2.061e-08
-7.08787e-10
2.07855e-08
-6.92378e-10
2.09989e-08
-6.75488e-10
2.12476e-08
-6.66243e-10
2.15285e-08
-6.72786e-10
2.18385e-08
-7.03652e-10
2.21744e-08
-7.67945e-10
2.25329e-08
-8.75489e-10
2.29102e-08
-1.036e-09
2.33018e-08
-1.25769e-09
2.37031e-08
-1.54689e-09
2.41097e-08
-1.90576e-09
2.45168e-08
-2.3238e-09
2.49199e-08
-2.79491e-09
2.53117e-08
-3.32013e-09
2.56323e-08
-3.37693e-09
2.58696e-08
-3.23948e-09
2.60309e-08
-3.11128e-09
2.61226e-08
-2.9799e-09
2.61513e-08
-2.83797e-09
2.61268e-08
-2.67802e-09
2.60575e-08
-2.50237e-09
2.59442e-08
-2.29358e-09
2.57908e-08
-2.04396e-09
2.56072e-08
-1.75272e-09
2.54018e-08
-1.41741e-09
2.5185e-08
-1.03695e-09
2.49694e-08
-6.14603e-10
2.47695e-08
-1.57722e-10
2.46021e-08
3.22383e-10
2.44861e-08
8.10018e-10
2.44411e-08
1.28553e-09
2.44858e-08
1.72588e-09
2.46344e-08
2.10553e-09
2.48906e-08
2.39959e-09
2.52381e-08
2.5854e-09
2.56325e-08
2.64794e-09
2.58333e-09
2.59994e-08
2.77131e-08
-4.18741e-10
2.76931e-08
-4.90913e-10
2.76698e-08
-5.63136e-10
2.76517e-08
-6.29808e-10
2.76487e-08
-6.86884e-10
2.76665e-08
-7.30395e-10
2.77151e-08
-7.66038e-10
2.77985e-08
-7.92165e-10
2.79176e-08
-8.11499e-10
2.80735e-08
-8.31349e-10
2.82656e-08
-8.58404e-10
2.84927e-08
-8.99837e-10
2.87525e-08
-9.63512e-10
2.90425e-08
-1.05788e-09
2.93591e-08
-1.1921e-09
2.96982e-08
-1.37509e-09
3.00545e-08
-1.61404e-09
3.04222e-08
-1.91458e-09
3.0795e-08
-2.2786e-09
3.1166e-08
-2.69472e-09
3.15273e-08
-3.15621e-09
3.18682e-08
-3.66103e-09
3.2135e-08
-3.64372e-09
3.23196e-08
-3.42417e-09
3.24301e-08
-3.22171e-09
3.2472e-08
-3.02183e-09
3.24577e-08
-2.82367e-09
3.2398e-08
-2.61832e-09
3.22925e-08
-2.39688e-09
3.21454e-08
-2.14645e-09
3.19666e-08
-1.86515e-09
3.17646e-08
-1.55073e-09
3.15488e-08
-1.20166e-09
3.13308e-08
-8.189e-10
3.11237e-08
-4.07476e-10
3.09422e-08
2.37135e-11
3.08024e-08
4.62228e-10
3.07202e-08
8.92213e-10
3.07101e-08
1.29561e-09
3.07828e-08
1.65318e-09
3.0942e-08
1.94631e-09
3.11819e-08
2.15976e-09
3.14836e-08
2.28371e-09
3.18149e-08
2.31657e-09
2.26542e-09
3.21328e-08
3.69204e-08
-4.19869e-10
3.69141e-08
-4.84699e-10
3.69035e-08
-5.52526e-10
3.68934e-08
-6.19709e-10
3.68906e-08
-6.84073e-10
3.69001e-08
-7.39827e-10
3.69285e-08
-7.94524e-10
3.69814e-08
-8.44996e-10
3.70616e-08
-8.91719e-10
3.71719e-08
-9.41707e-10
3.73139e-08
-1.00037e-09
3.74878e-08
-1.07374e-09
3.76931e-08
-1.16878e-09
3.79281e-08
-1.2929e-09
3.81902e-08
-1.4542e-09
3.84755e-08
-1.6604e-09
3.87786e-08
-1.91716e-09
3.9093e-08
-2.22893e-09
3.94111e-08
-2.59671e-09
3.97239e-08
-3.00751e-09
4.00209e-08
-3.45321e-09
4.02875e-08
-3.92764e-09
4.04792e-08
-3.8354e-09
4.0592e-08
-3.53697e-09
4.06322e-08
-3.26193e-09
4.06134e-08
-3.00303e-09
4.0548e-08
-2.75826e-09
4.04354e-08
-2.5058e-09
4.02791e-08
-2.24055e-09
4.00913e-08
-1.95863e-09
3.98802e-08
-1.65406e-09
3.96544e-08
-1.32497e-09
3.94242e-08
-9.71454e-10
3.92015e-08
-5.96184e-10
3.89995e-08
-2.05459e-10
3.88317e-08
1.91474e-10
3.8712e-08
5.8194e-10
3.86523e-08
9.51943e-10
3.86613e-08
1.28662e-09
3.87427e-08
1.57182e-09
3.88933e-08
1.7957e-09
3.91025e-08
1.95057e-09
3.93521e-08
2.03403e-09
3.96187e-08
2.04997e-09
2.00781e-09
3.98763e-08
4.83508e-08
-4.32079e-10
4.83585e-08
-4.92405e-10
4.83631e-08
-5.57167e-10
4.83677e-08
-6.24266e-10
4.83762e-08
-6.92563e-10
4.83936e-08
-7.57292e-10
4.84215e-08
-8.22435e-10
4.84658e-08
-8.89238e-10
4.85309e-08
-9.56853e-10
4.86188e-08
-1.02954e-09
4.87308e-08
-1.11237e-09
4.88679e-08
-1.21091e-09
4.90305e-08
-1.33133e-09
4.92176e-08
-1.48e-09
4.94272e-08
-1.66388e-09
4.96562e-08
-1.88931e-09
4.98992e-08
-2.1602e-09
5.01497e-08
-2.47939e-09
5.03994e-08
-2.84649e-09
5.06381e-08
-3.24619e-09
5.08533e-08
-3.66843e-09
5.10266e-08
-4.10091e-09
5.11257e-08
-3.93449e-09
5.11478e-08
-3.55909e-09
5.1111e-08
-3.22505e-09
5.10276e-08
-2.91962e-09
5.08905e-08
-2.62119e-09
5.07095e-08
-2.32476e-09
5.04979e-08
-2.02902e-09
5.02632e-08
-1.72391e-09
5.0014e-08
-1.40487e-09
4.97597e-08
-1.07069e-09
4.9511e-08
-7.22665e-10
4.92794e-08
-3.6466e-10
4.90772e-08
-3.27553e-12
4.8916e-08
3.52673e-10
4.88063e-08
6.9169e-10
4.87555e-08
1.00276e-09
4.87672e-08
1.27495e-09
4.88399e-08
1.49906e-09
4.89669e-08
1.66872e-09
4.91362e-08
1.78124e-09
4.93322e-08
1.83806e-09
4.95374e-08
1.84471e-09
1.80982e-09
4.97354e-08
6.2377e-08
-4.56902e-10
6.23997e-08
-5.15088e-10
6.2421e-08
-5.785e-10
6.24429e-08
-6.46103e-10
6.24673e-08
-7.16951e-10
6.24996e-08
-7.89591e-10
6.25409e-08
-8.63809e-10
6.25941e-08
-9.42393e-10
6.26628e-08
-1.02557e-09
6.2749e-08
-1.1157e-09
6.28536e-08
-1.21703e-09
6.29772e-08
-1.33448e-09
6.31194e-08
-1.47354e-09
6.32791e-08
-1.63964e-09
6.34539e-08
-1.8387e-09
6.36403e-08
-2.07575e-09
6.38331e-08
-2.35301e-09
6.40254e-08
-2.67169e-09
6.42085e-08
-3.02958e-09
6.43713e-08
-3.40898e-09
6.45006e-08
-3.79769e-09
6.45731e-08
-4.17339e-09
6.45694e-08
-3.93081e-09
6.45095e-08
-3.49925e-09
6.4397e-08
-3.11252e-09
6.42256e-08
-2.7482e-09
6.40102e-08
-2.40585e-09
6.37652e-08
-2.07974e-09
6.34967e-08
-1.76047e-09
6.32133e-08
-1.44059e-09
6.29248e-08
-1.11628e-09
6.26407e-08
-7.86673e-10
6.23717e-08
-4.53643e-10
6.21287e-08
-1.21661e-10
6.19213e-08
2.04105e-10
6.17595e-08
5.14528e-10
6.16494e-08
8.01721e-10
6.15947e-08
1.05749e-09
6.15949e-08
1.27476e-09
6.16456e-08
1.44841e-09
6.17384e-08
1.57585e-09
6.18623e-08
1.65735e-09
6.20044e-08
1.69593e-09
6.21521e-08
1.6971e-09
1.66792e-09
6.2294e-08
7.94161e-08
-4.97294e-10
7.94562e-08
-5.55243e-10
7.94967e-08
-6.18926e-10
7.95386e-08
-6.88009e-10
7.95837e-08
-7.62073e-10
7.9635e-08
-8.40867e-10
7.96953e-08
-9.24128e-10
7.97658e-08
-1.0129e-09
7.98489e-08
-1.10868e-09
7.99466e-08
-1.21338e-09
8.00596e-08
-1.33001e-09
8.01876e-08
-1.46255e-09
8.03297e-08
-1.61563e-09
8.04837e-08
-1.79362e-09
8.06463e-08
-2.00132e-09
8.08129e-08
-2.24235e-09
8.09773e-08
-2.5174e-09
8.11317e-08
-2.82606e-09
8.12661e-08
-3.16399e-09
8.1369e-08
-3.51195e-09
8.14247e-08
-3.85331e-09
8.14078e-08
-4.15651e-09
8.13294e-08
-3.85245e-09
8.11928e-08
-3.36264e-09
8.09932e-08
-2.91293e-09
8.07483e-08
-2.50327e-09
8.04711e-08
-2.12869e-09
8.01696e-08
-1.7782e-09
7.98519e-08
-1.44281e-09
7.95275e-08
-1.1162e-09
7.92063e-08
-7.95093e-10
7.88984e-08
-4.78693e-10
7.86135e-08
-1.68776e-10
7.83598e-08
1.31979e-10
7.81469e-08
4.17046e-10
7.79802e-08
6.81208e-10
7.78631e-08
9.18799e-10
7.77959e-08
1.1247e-09
7.77757e-08
1.29502e-09
7.77965e-08
1.42758e-09
7.78502e-08
1.52214e-09
7.79271e-08
1.58041e-09
7.80172e-08
1.60584e-09
7.81111e-08
1.60322e-09
1.57808e-09
7.8201e-08
9.99703e-08
-5.55846e-10
1.0003e-07
-6.15095e-10
1.00092e-07
-6.80468e-10
1.00156e-07
-7.521e-10
1.00224e-07
-8.30041e-10
1.00297e-07
-9.14399e-10
1.00378e-07
-1.00535e-09
1.00469e-07
-1.1036e-09
1.00571e-07
-1.21047e-09
1.00685e-07
-1.32763e-09
1.00813e-07
-1.45734e-09
1.00953e-07
-1.60253e-09
1.01104e-07
-1.76678e-09
1.01263e-07
-1.95327e-09
1.01427e-07
-2.16541e-09
1.0159e-07
-2.40521e-09
1.01745e-07
-2.67186e-09
1.01882e-07
-2.96303e-09
1.0199e-07
-3.27211e-09
1.02056e-07
-3.57855e-09
1.02064e-07
-3.86041e-09
1.01996e-07
-4.08889e-09
1.01861e-07
-3.71717e-09
1.01659e-07
-3.16099e-09
1.01405e-07
-2.65939e-09
1.01116e-07
-2.21337e-09
1.00798e-07
-1.81074e-09
1.00461e-07
-1.44124e-09