/*--------------------------------*- C++ -*----------------------------------*\
| =========                 |                                                 |
| \\      /  F ield         | OpenFOAM: The Open Source CFD Toolbox           |
|  \\    /   O peration     | Version:  2312                                  |
|   \\  /    A nd           | Website:  www.openfoam.com                      |
|    \\/     M anipulation  |                                                 |
\*---------------------------------------------------------------------------*/
FoamFile
{
    version     2.0;
    format      ascii;
    arch        "LSB;label=32;scalar=64";
    class       volVectorField;
    location    "59.75";
    object      U;
}
// * * * * * * * * * * * * * * * * * * * * * * * * * * * * * * * * * * * * * //

dimensions      [0 1 -1 0 0 0 0];

internalField   nonuniform List<vector> 
4800
(
(0.000465167 4.07668e-07 -2.80676e-26)
(0.000454523 4.3383e-07 -1.93419e-25)
(0.000447594 4.32518e-07 2.49358e-25)
(0.000443203 4.09854e-07 1.09423e-25)
(0.000440623 3.68033e-07 1.57833e-24)
(0.000439377 3.10798e-07 -3.73139e-24)
(0.000439364 2.41604e-07 3.43279e-24)
(0.000440227 1.75904e-07 -4.89391e-24)
(0.000442021 3.84094e-08 1.59022e-24)
(0.000444899 -2.04383e-07 5.24951e-24)
(0.000449233 -6.7986e-07 -1.62259e-24)
(0.000456294 -2.01232e-06 -1.46415e-25)
(0.000473079 -6.96763e-06 -1.93331e-24)
(0.000516539 -2.68359e-05 8.98424e-25)
(0.000587481 -8.58556e-05 -7.1545e-25)
(0.00143736 2.18595e-06 -8.83541e-26)
(0.00140553 1.68405e-06 1.10036e-25)
(0.00138485 1.28388e-06 -9.79356e-25)
(0.00137172 9.32773e-07 7.40385e-25)
(0.00136394 5.94161e-07 2.26644e-24)
(0.00136009 2.3097e-07 -3.57931e-24)
(0.00135976 -1.88213e-07 -9.64705e-25)
(0.00136183 -6.47573e-07 -1.90574e-25)
(0.00136658 -1.38229e-06 7.99236e-24)
(0.00137438 -2.59279e-06 -5.87073e-24)
(0.00138625 -4.88549e-06 6.39528e-25)
(0.00140486 -1.04256e-05 9.57294e-25)
(0.00143868 -2.65588e-05 -1.40385e-24)
(0.00149764 -7.54963e-05 -4.22494e-25)
(0.00156026 -0.000183866 1.83675e-24)
(0.00251177 6.95865e-06 -6.28787e-26)
(0.00245788 5.30064e-06 6.43707e-26)
(0.00242288 4.00727e-06 6.3915e-25)
(0.00240063 2.90225e-06 -1.50742e-24)
(0.00238736 1.87076e-06 1.45422e-24)
(0.00238064 7.67806e-07 1.32063e-24)
(0.00237964 -4.98873e-07 -3.39851e-24)
(0.00238242 -1.93732e-06 -2.02783e-24)
(0.00238944 -4.10302e-06 4.95332e-24)
(0.00240105 -7.48935e-06 1.82754e-24)
(0.00241822 -1.34947e-05 -6.37453e-24)
(0.00244305 -2.5947e-05 -9.32567e-25)
(0.00247942 -5.39704e-05 2.70751e-24)
(0.00252587 -0.000115543 4.23644e-24)
(0.00255837 -0.00021623 -2.18671e-24)
(0.00369541 1.54416e-05 2.31306e-26)
(0.00361891 1.17821e-05 -1.5967e-25)
(0.00356919 8.93559e-06 6.99477e-25)
(0.0035375 6.51995e-06 7.17056e-25)
(0.0035184 4.2885e-06 -7.4143e-25)
(0.00350844 1.9372e-06 -4.06511e-24)
(0.00350614 -7.01672e-07 -2.62577e-24)
(0.003509 -3.62514e-06 9.93703e-24)
(0.00351716 -7.92822e-06 4.06068e-24)
(0.0035308 -1.43624e-05 -5.94938e-24)
(0.00355005 -2.48278e-05 -2.36918e-24)
(0.00357535 -4.37064e-05 -1.7814e-24)
(0.00360591 -7.85789e-05 6.13411e-26)
(0.00363475 -0.000138551 1.30857e-24)
(0.00364471 -0.000217768 6.36498e-27)
(0.00499356 2.84138e-05 -4.22955e-26)
(0.00489456 2.16985e-05 -2.5585e-25)
(0.00483006 1.64867e-05 -1.51636e-25)
(0.00478871 1.20933e-05 4.32875e-25)
(0.00476348 8.07934e-06 -1.17084e-24)
(0.00474985 3.94316e-06 2.90884e-24)
(0.00474543 -5.49575e-07 -5.19366e-25)
(0.00474758 -5.54606e-06 1.69688e-24)
(0.0047556 -1.24024e-05 -9.51712e-24)
(0.00476915 -2.21855e-05 1.79905e-23)
(0.00478735 -3.67166e-05 -1.73062e-23)
(0.00480902 -5.96267e-05 9.05831e-24)
(0.00483086 -9.54671e-05 -8.34324e-24)
(0.00484552 -0.00014687 7.83564e-24)
(0.00484342 -0.000206047 -3.11568e-24)
(0.00640814 4.68088e-05 5.57821e-26)
(0.00628799 3.581e-05 1.97362e-25)
(0.00620929 2.7282e-05 -1.02975e-24)
(0.00615844 2.01378e-05 -6.18176e-25)
(0.00612692 1.36858e-05 1.70411e-24)
(0.00610922 7.20536e-06 5.90242e-25)
(0.00610196 4.09257e-07 -4.56124e-24)
(0.00610234 -7.16243e-06 1.07843e-23)
(0.00610899 -1.68615e-05 -1.38809e-23)
(0.00612049 -2.97308e-05 3.35346e-24)
(0.00613533 -4.73036e-05 9.93314e-24)
(0.00615132 -7.17766e-05 -1.36898e-23)
(0.00616474 -0.000104913 6.85562e-24)
(0.00617015 -0.000146073 6.93092e-24)
(0.00616329 -0.000189117 -5.27398e-24)
(0.00793551 7.14337e-05 4.6163e-26)
(0.00779762 5.48461e-05 -2.70924e-25)
(0.00770653 4.19631e-05 9.5406e-25)
(0.00764704 3.12194e-05 -1.3067e-24)
(0.0076095 2.16232e-05 -4.29379e-24)
(0.00758758 1.22396e-05 7.31172e-24)
(0.00757703 2.62029e-06 -4.34714e-24)
(0.00757475 -7.79169e-06 1.45476e-23)
(0.00757873 -2.02786e-05 -9.91653e-24)
(0.00758685 -3.57609e-05 -4.56037e-24)
(0.00759708 -5.518e-05 -8.81227e-24)
(0.00760698 -7.94077e-05 8.13751e-24)
(0.00761356 -0.000108433 2.2699e-24)
(0.00761351 -0.000140532 1.91486e-24)
(0.00760554 -0.000171715 -1.68593e-24)
(0.00956394 0.000102556 -6.67911e-26)
(0.00941491 7.92118e-05 8.96876e-25)
(0.00931518 6.09753e-05 -2.06274e-24)
(0.00924916 4.57923e-05 -1.61407e-24)
(0.0092067 3.23562e-05 6.65177e-25)
(0.00918095 1.95456e-05 1.21887e-24)
(0.00916709 6.73225e-06 4.15856e-24)
(0.00916168 -6.69574e-06 -1.11251e-23)
(0.00916225 -2.18039e-05 -5.73827e-24)
(0.00916633 -3.92663e-05 1.61472e-23)
(0.0091717 -5.94748e-05 -4.88816e-24)
(0.00917615 -8.24202e-05 1.67222e-23)
(0.00917767 -0.000107326 -8.79156e-24)
(0.00917447 -0.000132524 -2.76898e-24)
(0.00916668 -0.000155675 1.63709e-24)
(0.0112721 0.000139316 -8.89649e-27)
(0.0111225 0.000108559 4.96762e-25)
(0.0110205 8.4246e-05 -7.04241e-25)
(0.0109519 6.39496e-05 1.62924e-24)
(0.0109069 4.60993e-05 -9.55169e-24)
(0.0108786 2.9441e-05 1.00387e-23)
(0.0108622 1.32006e-05 -1.53732e-23)
(0.0108539 -3.25574e-06 9.5363e-24)
(0.0108511 -2.07214e-05 6.94646e-24)
(0.0108513 -3.95951e-05 1.47532e-23)
(0.0108524 -5.98874e-05 -1.92438e-23)
(0.0108526 -8.11905e-05 -3.47201e-24)
(0.0108507 -0.000102626 1.67384e-24)
(0.0108458 -0.000122991 1.14722e-23)
(0.0108385 -0.000141014 -4.65349e-24)
(0.0130312 0.000179067 4.92501e-26)
(0.0128948 0.000141226 -2.10554e-25)
(0.0127996 0.000110716 9.19165e-25)
(0.0127343 8.50302e-05 -3.16308e-24)
(0.0126906 6.24798e-05 4.73118e-24)
(0.0126625 4.17675e-05 -5.98726e-24)
(0.0126452 2.20485e-05 9.87589e-24)
(0.0126352 2.70845e-06 1.61386e-24)
(0.01263 -1.67971e-05 -1.33214e-23)
(0.0126273 -3.66615e-05 1.8691e-23)
(0.0126254 -5.67173e-05 -2.05391e-23)
(0.0126229 -7.65023e-05 -5.91698e-24)
(0.0126191 -9.53386e-05 1.05432e-23)
(0.0126135 -0.000112514 3.09529e-24)
(0.0126069 -0.000127407 -1.34909e-24)
(0.0148152 0.000217266 1.98781e-25)
(0.0147052 0.000173893 -1.6405e-24)
(0.0146263 0.000137938 -2.53281e-24)
(0.0145711 0.000107215 6.06559e-24)
(0.0145336 8.01485e-05 2.59532e-24)
(0.014509 5.55256e-05 -1.62765e-23)
(0.0144934 3.25303e-05 5.11369e-24)
(0.0144839 1.06118e-05 3.61999e-24)
(0.0144781 -1.05923e-05 -1.49074e-23)
(0.0144742 -3.1172e-05 1.56994e-23)
(0.014471 -5.09522e-05 -1.21975e-23)
(0.0144674 -6.95954e-05 3.15121e-23)
(0.0144632 -8.66963e-05 -1.50371e-23)
(0.014458 -0.00010192 8.81177e-24)
(0.0144525 -0.000115028 -2.39742e-24)
(0.0166174 0.000249087 -7.45853e-26)
(0.0165395 0.000202381 1.1071e-24)
(0.0164825 0.000162427 -2.14608e-24)
(0.0164422 0.000127632 -1.03706e-24)
(0.0164148 9.67438e-05 1.16654e-23)
(0.0163969 6.87588e-05 -1.82546e-24)
(0.0163856 4.29783e-05 -2.0221e-23)
(0.0163785 1.89487e-05 2.32973e-23)
(0.0163741 -3.58878e-06 -5.29022e-24)
(0.0163709 -2.4702e-05 -1.77535e-23)
(0.0163682 -4.43025e-05 1.8798e-23)
(0.0163652 -6.22329e-05 9.95867e-24)
(0.016362 -7.83282e-05 -8.52721e-24)
(0.0163579 -9.25042e-05 -1.45465e-23)
(0.0163541 -0.000104737 1.2164e-24)
(0.0184596 0.00027287 -3.13501e-27)
(0.0184081 0.000224269 -1.21921e-24)
(0.0183708 0.000181592 5.76697e-24)
(0.018345 0.000143789 2.75463e-25)
(0.018328 0.000109965 3.08399e-24)
(0.0183174 7.93649e-05 -1.13668e-23)
(0.0183111 5.14398e-05 9.48158e-24)
(0.0183076 2.58278e-05 2.02744e-24)
(0.0183057 2.30897e-06 1.89642e-23)
(0.0183044 -1.92208e-05 -2.95675e-23)
(0.0183033 -3.87826e-05 -1.32084e-23)
(0.0183018 -5.63814e-05 -8.60355e-24)
(0.0183002 -7.20299e-05 1.63183e-23)
(0.018298 -8.57962e-05 -4.59956e-25)
(0.0182961 -9.77757e-05 1.56907e-24)
(0.020372 0.000291728 -2.04136e-26)
(0.0203352 0.000241261 1.20978e-24)
(0.0203096 0.000196227 -1.75922e-24)
(0.0202927 0.000155917 4.85576e-27)
(0.0202824 0.000119704 2.29911e-24)
(0.0202766 8.70165e-05 5.75127e-24)
(0.0202738 5.74049e-05 -2.22612e-23)
(0.0202727 3.05544e-05 1.9975e-24)
(0.0202727 6.23217e-06 1.1207e-23)
(0.0202729 -1.57377e-05 -5.0444e-24)
(0.0202732 -3.54766e-05 1.38348e-23)
(0.0202732 -5.31095e-05 9.57524e-24)
(0.0202732 -6.8767e-05 -1.74306e-23)
(0.0202726 -8.26061e-05 1.18508e-23)
(0.0202723 -9.47856e-05 -9.85824e-24)
(0.0223478 0.000309509 -6.23967e-25)
(0.0223187 0.000257033 4.31483e-25)
(0.0222988 0.000209637 1.97739e-24)
(0.0222858 0.000166929 -1.04786e-23)
(0.0222781 0.000128493 9.25185e-24)
(0.0222739 9.39029e-05 -6.68292e-24)
(0.022272 6.27594e-05 4.82244e-24)
(0.0222715 3.47225e-05 -3.35818e-23)
(0.0222718 9.51552e-06 4.84983e-23)
(0.0222724 -1.31148e-05 -2.83396e-23)
(0.0222731 -3.3374e-05 2.52869e-23)
(0.0222737 -5.14626e-05 2.09873e-23)
(0.0222743 -6.75817e-05 -3.66925e-23)
(0.0222745 -8.19388e-05 1.1922e-23)
(0.022275 -9.47273e-05 -5.00171e-25)
(0.0243208 0.000325999 -2.28567e-26)
(0.0243001 0.000272331 1.69859e-25)
(0.0242855 0.000223191 -2.36199e-25)
(0.0242758 0.000178566 -2.76596e-25)
(0.0242698 0.000138259 3.57712e-24)
(0.0242664 0.000101986 -6.17854e-24)
(0.0242647 6.94132e-05 5.76792e-24)
(0.0242641 4.0194e-05 -1.8252e-23)
(0.0242641 1.40024e-05 4.15062e-23)
(0.0242644 -9.49728e-06 -5.30849e-23)
(0.0242649 -3.0588e-05 4.34607e-23)
(0.0242654 -4.95054e-05 -1.46791e-23)
(0.024266 -6.6478e-05 7.58739e-25)
(0.0242664 -8.17363e-05 3.35677e-24)
(0.0242671 -9.54908e-05 -6.45208e-24)
(0.0261867 0.000338171 -1.95878e-24)
(0.0261761 0.000284629 4.06907e-24)
(0.0261685 0.000234899 -2.01296e-24)
(0.0261634 0.000189328 -9.61575e-25)
(0.0261604 0.000147923 4.80658e-24)
(0.0261589 0.000110513 -5.06915e-24)
(0.0261584 7.68336e-05 -4.86998e-24)
(0.0261584 4.65539e-05 -1.19434e-23)
(0.0261588 1.93846e-05 5.96002e-24)
(0.0261593 -5.04524e-06 2.91904e-23)
(0.0261599 -2.70977e-05 -1.54673e-23)
(0.0261605 -4.70218e-05 9.29123e-24)
(0.0261613 -6.505e-05 -3.81493e-24)
(0.0261618 -8.14147e-05 -1.13983e-23)
(0.0261627 -9.63276e-05 5.84665e-24)
(0.0278227 0.000343878 6.66411e-25)
(0.0278216 0.000291674 -1.23391e-24)
(0.0278211 0.000242518 -1.5395e-24)
(0.0278212 0.000197044 2.76276e-24)
(0.0278218 0.000155436 -1.92672e-24)
(0.0278229 0.00011761 5.07167e-24)
(0.0278243 8.3357e-05 -4.73977e-24)
(0.0278257 5.23491e-05 -3.67598e-24)
(0.0278273 2.42662e-05 3.24123e-24)
(0.0278285 -1.16111e-06 -4.21383e-24)
(0.0278298 -2.42456e-05 9.76694e-24)
(0.0278309 -4.52552e-05 5.14513e-24)
(0.0278322 -6.44489e-05 -1.91555e-23)
(0.0278333 -8.2051e-05 1.33466e-23)
(0.0278345 -9.82509e-05 -2.74602e-24)
(0.0290746 0.00034259 2.04072e-24)
(0.0290817 0.000292778 4.18788e-24)
(0.0290875 0.000245279 -9.00395e-24)
(0.0290924 0.00020089 -2.71649e-24)
(0.0290967 0.000159955 5.48499e-24)
(0.0291005 0.000122485 7.87317e-25)
(0.0291039 8.82726e-05 -2.31684e-24)
(0.0291068 5.70714e-05 1.54282e-24)
(0.0291095 2.85184e-05 5.29856e-24)
(0.0291119 2.31402e-06 -1.34486e-23)
(0.0291141 -2.17099e-05 8.41279e-24)
(0.0291163 -4.38196e-05 -6.31031e-25)
(0.0291184 -6.42693e-05 -5.9001e-25)
(0.0291203 -8.3252e-05 8.20851e-25)
(0.0291223 -0.000100922 -3.86806e-25)
(0.0297292 0.000329734 -5.53711e-24)
(0.0297442 0.000283372 -1.36821e-23)
(0.0297564 0.000238692 4.94377e-24)
(0.0297665 0.000196523 2.88069e-23)
(0.0297751 0.000157286 -8.64785e-24)
(0.0297824 0.000121033 -5.42339e-24)
(0.0297887 8.76083e-05 3.50835e-24)
(0.029794 5.68328e-05 7.7823e-24)
(0.0297985 2.85366e-05 -1.31717e-23)
(0.0298023 2.36654e-06 4.68972e-24)
(0.0298055 -2.19536e-05 6.14768e-25)
(0.0298081 -4.46389e-05 1.55209e-25)
(0.0298101 -6.58402e-05 -1.41383e-24)
(0.0298117 -8.56945e-05 2.5849e-24)
(0.029813 -0.000104324 -1.30871e-24)
(0.0295616 0.000310713 9.06152e-24)
(0.029582 0.000268067 -2.16655e-23)
(0.029599 0.000226623 2.82903e-24)
(0.0296132 0.000187166 3.84015e-23)
(0.0296254 0.000150062 -3.97689e-23)
(0.0296359 0.000115355 1.64518e-23)
(0.0296449 8.30153e-05 1.80666e-23)
(0.029653 5.29218e-05 -4.25142e-23)
(0.02966 2.47902e-05 -8.24588e-25)
(0.0296656 -1.42974e-06 1.57214e-23)
(0.0296701 -2.583e-05 4.93903e-24)
(0.0296739 -4.8653e-05 -3.64279e-24)
(0.0296771 -7.01056e-05 3.13239e-24)
(0.0296799 -9.03146e-05 -1.15776e-24)
(0.0296821 -0.000109374 3.77296e-25)
(0.0286545 0.000283824 5.77205e-24)
(0.0286795 0.000245469 -1.25687e-23)
(0.0286998 0.000208007 -1.01313e-23)
(0.0287162 0.000172077 4.75196e-23)
(0.0287294 0.00013799 -4.63621e-23)
(0.0287402 0.000105837 4.0508e-24)
(0.0287489 7.55791e-05 8.72561e-24)
(0.0287556 4.70797e-05 5.95443e-24)
(0.0287609 2.02407e-05 7.1675e-24)
(0.0287655 -4.9529e-06 -3.95183e-23)
(0.028769 -2.8637e-05 2.47955e-23)
(0.0287713 -5.10232e-05 4.4595e-27)
(0.0287727 -7.22197e-05 1.54275e-23)
(0.0287736 -9.23074e-05 -7.22806e-24)
(0.0287739 -0.000111363 -1.69794e-24)
(0.0271149 0.00025106 1.46211e-23)
(0.0271447 0.000217205 -2.65579e-23)
(0.0271697 0.000184055 5.25631e-24)
(0.0271905 0.000152127 -1.56251e-23)
(0.027208 0.000121685 -2.28655e-23)
(0.0272227 9.27728e-05 7.34061e-23)
(0.0272349 6.53464e-05 -3.04071e-23)
(0.0272452 3.93769e-05 9.60913e-24)
(0.0272537 1.48429e-05 -5.76703e-24)
(0.0272604 -8.55076e-06 -1.80103e-23)
(0.0272655 -3.10158e-05 3.57022e-23)
(0.0272692 -5.24642e-05 -2.23301e-23)
(0.0272716 -7.28437e-05 2.56404e-24)
(0.0272732 -9.22237e-05 4.43893e-24)
(0.0272737 -0.000110682 -5.7903e-25)
(0.0252611 0.000219681 5.69114e-24)
(0.0252942 0.000189842 -3.06755e-23)
(0.0253224 0.000160558 5.53397e-23)
(0.025346 0.000132213 -4.40915e-23)
(0.025366 0.000104981 4.78516e-23)
(0.0253828 7.89127e-05 -1.48393e-23)
(0.0253968 5.39849e-05 -1.11605e-23)
(0.0254083 3.00895e-05 -1.4175e-23)
(0.0254176 7.16451e-06 2.87283e-23)
(0.025425 -1.4806e-05 1.66062e-24)
(0.0254304 -3.58422e-05 -3.08346e-23)
(0.0254343 -5.59088e-05 -5.26155e-24)
(0.0254367 -7.50185e-05 9.11694e-24)
(0.0254378 -9.32352e-05 -2.30169e-24)
(0.0254376 -0.000110604 5.61972e-25)
(0.0232347 0.000187583 7.62207e-25)
(0.0232705 0.000161562 -1.16567e-23)
(0.023301 0.000135925 -7.46599e-24)
(0.0233266 0.000110964 5.80903e-23)
(0.0233482 8.68209e-05 -5.91885e-23)
(0.0233662 6.35289e-05 1.78192e-23)
(0.0233809 4.10605e-05 3.25983e-24)
(0.0233929 1.94435e-05 -1.85758e-24)
(0.0234023 -1.27675e-06 -9.82189e-24)
(0.0234095 -2.1167e-05 4.50873e-23)
(0.0234145 -4.02106e-05 -3.69353e-23)
(0.0234176 -5.84132e-05 -2.32253e-24)
(0.0234188 -7.57985e-05 3.77948e-24)
(0.0234183 -9.23919e-05 4.27316e-24)
(0.0234162 -0.000108202 -3.44577e-24)
(0.0211381 0.000156154 1.13795e-24)
(0.0211751 0.000133807 1.09284e-23)
(0.0212065 0.000111709 -1.24585e-23)
(0.0212328 9.00998e-05 -9.47375e-24)
(0.0212547 6.90838e-05 6.30633e-23)
(0.0212727 4.87306e-05 -4.82162e-23)
(0.0212872 2.90788e-05 -7.7435e-25)
(0.0212986 1.01772e-05 -1.1482e-23)
(0.0213071 -8.0329e-06 -1.32981e-24)
(0.021313 -2.55495e-05 1.52289e-24)
(0.0213163 -4.23552e-05 -8.52856e-24)
(0.0213174 -5.84538e-05 5.91504e-24)
(0.0213163 -7.38415e-05 1.91462e-24)
(0.0213132 -8.85138e-05 2.08464e-24)
(0.0213081 -0.000102465 3.41817e-24)
(0.0190394 0.000127008 8.1176e-24)
(0.0190758 0.000108208 -1.26181e-23)
(0.0191066 8.9565e-05 -1.10965e-23)
(0.0191321 7.12821e-05 3.40796e-23)
(0.019153 5.34625e-05 -1.2164e-23)
(0.0191698 3.61669e-05 -1.89988e-23)
(0.0191829 1.94463e-05 6.44837e-24)
(0.0191925 3.27562e-06 1.65718e-23)
(0.019199 -1.23591e-05 -2.80839e-23)
(0.0192026 -2.74059e-05 2.93568e-23)
(0.0192034 -4.18525e-05 -1.68061e-23)
(0.0192016 -5.56877e-05 7.89643e-24)
(0.0191974 -6.88935e-05 -1.20694e-23)
(0.0191909 -8.14601e-05 1.28075e-23)
(0.0191822 -9.33774e-05 -3.45561e-24)
(0.016983 0.000101244 -1.57479e-24)
(0.0170174 8.58014e-05 -5.76656e-24)
(0.0170462 7.04603e-05 -1.92717e-23)
(0.0170698 5.53905e-05 5.39834e-23)
(0.0170888 4.06632e-05 -9.11389e-24)
(0.0171035 2.63166e-05 -1.62005e-23)
(0.0171144 1.23924e-05 6.34879e-24)
(0.0171217 -1.11548e-06 -9.07732e-24)
(0.0171256 -1.41543e-05 -2.20896e-23)
(0.0171264 -2.67081e-05 2.11107e-23)
(0.0171244 -3.87627e-05 1.02032e-24)
(0.0171195 -5.02977e-05 -8.86278e-24)
(0.017112 -6.12935e-05 1.00222e-23)
(0.0171021 -7.17371e-05 8.37374e-25)
(0.0170897 -8.16137e-05 -1.02031e-24)
(0.014999 7.93118e-05 6.05325e-24)
(0.0150306 6.69454e-05 9.52254e-24)
(0.0150568 5.46449e-05 -8.31521e-24)
(0.0150779 4.25335e-05 -2.01372e-23)
(0.0150945 3.06531e-05 2.82958e-23)
(0.0151069 1.9051e-05 -3.22859e-23)
(0.0151153 7.76034e-06 -2.18651e-24)
(0.0151202 -3.19593e-06 1.32046e-23)
(0.0151217 -1.37724e-05 4.94141e-24)
(0.0151199 -2.39637e-05 -1.17815e-23)
(0.0151152 -3.37499e-05 -1.07585e-24)
(0.0151076 -4.31081e-05 2.74435e-23)
(0.0150973 -5.20181e-05 -1.06391e-23)
(0.0150845 -6.04645e-05 -3.13036e-24)
(0.0150692 -6.84308e-05 -2.32392e-25)
(0.0131083 6.11211e-05 -6.27993e-24)
(0.0131367 5.14763e-05 8.14547e-24)
(0.01316 4.18737e-05 1.05022e-24)
(0.0131786 3.23901e-05 1.85479e-23)
(0.0131929 2.30574e-05 -1.47232e-23)
(0.013203 1.39283e-05 1.65622e-24)
(0.0132094 5.03184e-06 -1.38423e-24)
(0.0132122 -3.6148e-06 -5.29291e-24)
(0.0132116 -1.19735e-05 5.50166e-24)
(0.0132079 -2.00322e-05 -1.78909e-23)
(0.0132012 -2.7769e-05 5.47675e-25)
(0.0131916 -3.51632e-05 4.30272e-24)
(0.0131793 -4.21957e-05 3.06199e-24)
(0.0131646 -4.88515e-05 1.36667e-24)
(0.0131473 -5.51155e-05 6.25875e-25)
(0.0113245 4.62917e-05 4.6467e-24)
(0.0113498 3.89791e-05 -3.63357e-24)
(0.0113704 3.16947e-05 -1.73907e-23)
(0.0113866 2.44741e-05 1.6366e-23)
(0.0113988 1.73469e-05 2.4837e-23)
(0.0114071 1.03627e-05 -5.42761e-24)
(0.0114118 3.54371e-06 -1.31138e-23)
(0.0114131 -3.08905e-06 -2.05376e-23)
(0.0114112 -9.51287e-06 1.59107e-23)
(0.0114062 -1.57124e-05 1.21286e-24)
(0.0113984 -2.16633e-05 -4.10012e-24)
(0.0113877 -2.73487e-05 -1.39123e-24)
(0.0113745 -3.27525e-05 2.79327e-24)
(0.0113588 -3.78618e-05 6.20306e-27)
(0.0113408 -4.26634e-05 -7.08469e-25)
(0.00965559 3.4351e-05 -2.92246e-24)
(0.00967789 2.89772e-05 -2.27143e-24)
(0.00969603 2.36221e-05 2.52368e-24)
(0.00971023 1.82899e-05 -9.13553e-24)
(0.0097207 1.30112e-05 3.03344e-23)
(0.00972764 7.82577e-06 -4.19671e-23)
(0.00973123 2.75789e-06 4.29099e-23)
(0.00973164 -2.17287e-06 -1.86605e-23)
(0.00972904 -6.9624e-06 4.80266e-24)
(0.00972357 -1.15929e-05 4.63383e-25)
(0.00971536 -1.60356e-05 -3.83242e-24)
(0.00970456 -2.02803e-05 1.83928e-24)
(0.0096913 -2.43144e-05 -3.6285e-24)
(0.00967573 -2.81272e-05 -6.01514e-25)
(0.00965797 -3.17076e-05 3.2871e-25)
(0.0081053 2.48392e-05 -1.41972e-24)
(0.00812481 2.10278e-05 3.24239e-25)
(0.00814072 1.72285e-05 8.07219e-25)
(0.00815315 1.34252e-05 -4.11977e-24)
(0.00816227 9.65065e-06 -2.12249e-24)
(0.00816822 5.93317e-06 1.71695e-23)
(0.00817115 2.29631e-06 -1.02627e-23)
(0.0081712 -1.2404e-06 1.6457e-24)
(0.00816849 -4.68954e-06 -1.55575e-24)
(0.00816316 -8.03483e-06 -1.91086e-24)
(0.00815533 -1.12401e-05 -7.42436e-25)
(0.00814512 -1.43038e-05 4.17418e-24)
(0.00813265 -1.72171e-05 1.52641e-24)
(0.00811806 -1.9971e-05 -2.89247e-24)
(0.00810145 -2.25569e-05 -5.4387e-25)
(0.00667404 1.73547e-05 -5.16399e-25)
(0.00669092 1.47629e-05 -1.95741e-25)
(0.00670477 1.21789e-05 -8.96963e-24)
(0.00671564 9.57744e-06 2.07456e-24)
(0.00672365 6.99064e-06 -7.29468e-24)
(0.0067289 4.43588e-06 4.4058e-24)
(0.0067315 1.93303e-06 9.58244e-24)
(0.00673157 -4.95863e-07 7.92533e-24)
(0.00672919 -2.87916e-06 -1.15115e-23)
(0.00672448 -5.20166e-06 3.49002e-24)
(0.00671755 -7.41987e-06 3.42282e-24)
(0.00670849 -9.54226e-06 -5.41842e-24)
(0.00669741 -1.15628e-05 2.92145e-24)
(0.00668444 -1.34743e-05 -4.11413e-25)
(0.00666968 -1.527e-05 1.01513e-24)
(0.0053599 1.15652e-05 -2.02387e-24)
(0.00537425 9.8934e-06 -2.94221e-24)
(0.00538614 8.2276e-06 -7.25947e-25)
(0.00539555 6.54116e-06 7.46122e-24)
(0.00540257 4.86204e-06 -5.59925e-24)
(0.00540727 3.19847e-06 -1.32793e-24)
(0.00540972 1.56323e-06 9.73193e-24)
(0.00541001 -1.75757e-08 2.63909e-25)
(0.00540824 -1.57158e-06 -1.97181e-24)
(0.00540442 -3.10713e-06 -8.67559e-24)
(0.00539871 -4.56353e-06 5.65628e-25)
(0.00539117 -5.95861e-06 6.71811e-24)
(0.00538187 -7.2892e-06 -8.9146e-25)
(0.00537095 -8.54955e-06 -1.27376e-24)
(0.00535847 -9.73441e-06 8.8938e-25)
(0.00415926 7.199e-06 -4.42802e-25)
(0.0041711 6.194e-06 1.17158e-26)
(0.00418104 5.19562e-06 3.53502e-24)
(0.004189 4.18012e-06 2.58638e-24)
(0.00419504 3.16818e-06 -1.53551e-24)
(0.0041992 2.16214e-06 -4.38337e-24)
(0.00420154 1.16856e-06 1.93195e-24)
(0.0042021 2.06537e-07 -8.4008e-24)
(0.00420104 -7.2527e-07 6.53654e-24)
(0.00419823 -1.67349e-06 3.83662e-24)
(0.00419387 -2.5649e-06 2.87895e-25)
(0.00418799 -3.41864e-06 -4.59405e-24)
(0.00418067 -4.23469e-06 9.52014e-25)
(0.00417199 -5.00862e-06 -8.4693e-25)
(0.00416202 -5.73644e-06 4.57082e-25)
(0.00306725 4.02954e-06 -8.16468e-25)
(0.00307657 3.48184e-06 -1.06071e-26)
(0.00308449 2.94349e-06 2.81906e-24)
(0.00309091 2.39493e-06 -1.77312e-24)
(0.00309588 1.84858e-06 7.92022e-24)
(0.00309943 1.30349e-06 -1.46848e-23)
(0.00310158 7.64105e-07 1.2523e-23)
(0.00310236 2.36779e-07 -1.07805e-23)
(0.0031019 -2.64472e-07 8.13482e-24)
(0.00310008 -7.85894e-07 -5.63799e-24)
(0.00309704 -1.27658e-06 1.99566e-24)
(0.00309283 -1.74474e-06 3.15593e-25)
(0.00308748 -2.19286e-06 6.26034e-25)
(0.00308106 -2.61757e-06 -8.03612e-25)
(0.00307364 -3.01592e-06 1.88909e-25)
(0.00207809 1.87364e-06 1.24103e-24)
(0.00208482 1.61613e-06 1.42781e-24)
(0.00209061 1.37e-06 -6.03932e-24)
(0.00209538 1.12005e-06 4.52799e-24)
(0.00209914 8.72164e-07 -8.13328e-28)
(0.00210192 6.26313e-07 1.34991e-24)
(0.00210373 3.83672e-07 -1.54477e-24)
(0.00210457 1.4524e-07 -3.57364e-24)
(0.00210452 -8.02243e-08 3.64115e-24)
(0.00210355 -3.13303e-07 5.0076e-25)
(0.00210169 -5.34959e-07 -3.41976e-24)
(0.00209899 -7.43257e-07 1.21299e-24)
(0.00209548 -9.42778e-07 8.58832e-25)
(0.00209121 -1.13232e-06 -9.12084e-26)
(0.00208621 -1.30943e-06 -1.27149e-25)
(0.00118539 6.12421e-07 -1.25475e-24)
(0.00118946 5.32332e-07 3.92203e-24)
(0.001193 4.58115e-07 2.53877e-24)
(0.00119596 3.79331e-07 -4.3732e-24)
(0.00119835 2.98702e-07 -5.22525e-25)
(0.00120016 2.25377e-07 -5.02348e-25)
(0.00120141 1.52371e-07 1.64048e-24)
(0.0012021 7.84059e-08 -2.84974e-24)
(0.00120226 1.00703e-08 4.11598e-24)
(0.00120188 -6.18822e-08 -2.00664e-24)
(0.00120097 -1.31206e-07 -1.48632e-24)
(0.00119956 -1.9073e-07 9.52464e-25)
(0.00119766 -2.50725e-07 -1.35293e-24)
(0.00119531 -3.15475e-07 1.42548e-24)
(0.00119252 -3.81705e-07 -2.75976e-25)
(0.000382404 1.34413e-07 -9.01381e-27)
(0.000383743 1.81042e-07 7.7462e-25)
(0.00038493 2.17934e-07 9.44131e-25)
(0.000385934 2.41489e-07 -1.42908e-24)
(0.000386763 2.53018e-07 3.22902e-24)
(0.000387414 2.60189e-07 -3.48908e-24)
(0.000387885 2.57878e-07 2.50911e-25)
(0.000388171 2.45498e-07 2.22133e-24)
(0.000388286 2.26677e-07 -3.08031e-24)
(0.000388228 1.99285e-07 -6.62951e-25)
(0.000387993 1.65228e-07 2.46966e-24)
(0.00038759 1.29604e-07 -1.12509e-24)
(0.000387026 8.66174e-08 -5.10127e-25)
(0.000386307 3.32753e-08 4.40255e-25)
(0.00038544 -2.79157e-08 -2.29743e-26)
(0.000868649 -0.00021527 7.02365e-26)
(0.000996307 -0.00012642 1.74732e-24)
(0.00121288 -3.51346e-05 -4.94743e-24)
(0.00143556 4.12944e-05 7.03967e-24)
(0.00165176 0.000104702 -2.63658e-24)
(0.00186631 0.000155617 -2.43956e-24)
(0.00207943 0.000196021 2.73872e-24)
(0.0022918 0.000227458 -5.36659e-24)
(0.00250406 0.000251118 3.26335e-25)
(0.00271663 0.00026796 3.39807e-24)
(0.00292984 0.000278814 -6.65303e-25)
(0.00314405 0.000284427 7.40512e-25)
(0.00335975 0.000285437 -6.03687e-26)
(0.00357763 0.000282355 5.26764e-25)
(0.00379869 0.000275537 -1.94533e-24)
(0.00402428 0.000265184 1.08638e-24)
(0.00425626 0.000251366 -3.75994e-25)
(0.00449718 0.000234039 1.41965e-26)
(0.00475055 0.000212958 9.31459e-25)
(0.00502081 0.000187244 -5.87587e-25)
(0.00531306 0.000154567 7.02385e-26)
(0.0056307 0.000110124 -5.99829e-26)
(0.00594638 4.96996e-05 9.88354e-26)
(0.0062193 -2.365e-05 3.28635e-25)
(0.00643802 -0.000105534 -5.91755e-25)
(0.00660381 -0.000191745 -2.90331e-25)
(0.00671909 -0.000279103 1.03674e-25)
(0.00678777 -0.000366058 5.47183e-25)
(0.00681389 -0.000450788 9.72393e-26)
(0.00680035 -0.000530676 -7.60314e-26)
(0.00674912 -0.000602731 -1.63823e-24)
(0.00666166 -0.000663239 2.79285e-24)
(0.0065393 -0.000707562 -1.34299e-24)
(0.0063834 -0.000730141 -3.21807e-24)
(0.00619552 -0.000724523 3.19675e-24)
(0.00597743 -0.000683279 1.32558e-23)
(0.00573107 -0.000597708 -4.69672e-24)
(0.00545857 -0.000457068 2.06863e-24)
(0.00516243 -0.000247217 6.78606e-25)
(0.00484579 5.10809e-05 -1.53521e-23)
(0.00451144 0.000458538 -1.77569e-25)
(0.00416253 0.000987569 5.78681e-24)
(0.00378025 0.00159731 1.60629e-24)
(0.00337929 0.00213412 -7.89121e-24)
(0.00314961 0.0021678 -3.75839e-25)
(0.00164583 -0.00029201 -2.03846e-24)
(0.00169964 -0.000237568 -2.77017e-24)
(0.00183528 -0.000149669 5.85242e-24)
(0.00200618 -6.69052e-05 2.59332e-24)
(0.0021896 5.79772e-06 -9.04784e-24)
(0.00238121 6.61788e-05 9.49868e-24)
(0.0025774 0.00011524 -3.38154e-24)
(0.00277664 0.000154432 2.64455e-24)
(0.00297834 0.000185021 -3.5005e-24)
(0.00318222 0.000208066 3.35963e-26)
(0.00338824 0.000224483 -1.9537e-24)
(0.00359646 0.00023508 3.91475e-24)
(0.00380718 0.000240528 -2.23095e-24)
(0.00402094 0.000241362 -2.20172e-24)
(0.00423858 0.000237964 -1.66195e-24)
(0.00446128 0.000230553 2.86604e-24)
(0.00469066 0.000219211 -4.2889e-25)
(0.00492899 0.000203898 1.71538e-24)
(0.00517932 0.000184382 2.98324e-25)
(0.00544553 0.000159826 -5.36291e-25)
(0.00573206 0.000128065 -2.22167e-25)
(0.00604173 8.46828e-05 -1.19718e-25)
(0.00634793 2.59823e-05 5.40495e-25)
(0.00661182 -4.47126e-05 5.31845e-25)
(0.00682301 -0.000123093 -5.90279e-25)
(0.00698297 -0.00020505 -1.96249e-24)
(0.00709397 -0.000287487 2.32173e-24)
(0.00715975 -0.000368948 -1.21647e-24)
(0.00718432 -0.00044759 3.69192e-25)
(0.00717067 -0.000520674 2.19063e-25)
(0.00712086 -0.000585105 -2.79422e-24)
(0.00703662 -0.000637122 6.59093e-24)
(0.00691961 -0.000672083 -7.47812e-24)
(0.0067717 -0.000684474 1.8465e-23)
(0.00659513 -0.000667916 -2.56465e-23)
(0.00639267 -0.000615086 6.57038e-24)
(0.00616769 -0.000517448 2.1678e-23)
(0.00592455 -0.000364611 -6.82472e-24)
(0.00566923 -0.000143203 -1.57006e-23)
(0.00541085 0.000164596 -8.51694e-24)
(0.00516337 0.000579662 1.94012e-23)
(0.00495051 0.00111465 -1.79824e-23)
(0.0047919 0.00173127 -3.53787e-24)
(0.00473197 0.00226695 1.07413e-23)
(0.00478309 0.00225087 3.30441e-24)
(0.00257195 -0.000299324 -2.29995e-26)
(0.00257978 -0.000285212 -3.21002e-24)
(0.00263949 -0.000228717 6.16894e-24)
(0.00274892 -0.000156387 4.95163e-24)
(0.00288574 -8.4733e-05 -8.16124e-24)
(0.00304156 -2.06687e-05 1.7529e-25)
(0.00320995 3.38739e-05 7.57899e-25)
(0.00338708 7.90732e-05 8.12048e-24)
(0.00357073 0.000115636 -9.62896e-24)
(0.00375964 0.000144378 6.01478e-24)
(0.00395306 0.00016612 1.97272e-24)
(0.00415063 0.000181622 -1.051e-23)
(0.00435231 0.000191531 3.81957e-24)
(0.00455837 0.000196367 1.6441e-24)
(0.00476943 0.000196515 -3.67385e-24)
(0.00498643 0.000192198 6.1935e-24)
(0.00521073 0.000183504 -4.53562e-24)
(0.00544423 0.000170393 -1.45479e-25)
(0.00568952 0.00015264 3.58067e-25)
(0.00594984 0.000129452 4.15888e-25)
(0.00622888 9.88308e-05 6.48896e-26)
(0.00652881 5.6745e-05 2.30297e-25)
(0.00682374 6.90198e-09 -5.3068e-25)
(0.00707693 -6.78074e-05 1.48967e-24)
(0.00727908 -0.000142468 -2.09166e-24)
(0.00743188 -0.000219931 1.15447e-24)
(0.00753742 -0.000297169 -1.72692e-24)
(0.00759931 -0.000372838 2.24944e-24)
(0.00762153 -0.000445087 -6.0634e-25)
(0.00760717 -0.00051105 1.27821e-24)
(0.00755846 -0.000567526 2.22185e-24)
(0.00747734 -0.000610721 -7.57257e-24)
(0.00736587 -0.000636029 3.20152e-24)
(0.00722646 -0.00063805 9.45558e-24)
(0.00706208 -0.000610614 -2.16838e-23)
(0.00687653 -0.000546738 3.16219e-23)
(0.00667467 -0.000438461 -2.03049e-23)
(0.00646298 -0.00027646 2.56169e-23)
(0.00625065 -4.94131e-05 -4.7694e-23)
(0.0060517 0.000256427 1.78764e-23)
(0.0058876 0.00065571 5.87858e-24)
(0.00579206 0.00115263 8.69505e-24)
(0.005797 0.00170307 -1.08096e-23)
(0.00593076 0.00215571 2.96604e-24)
(0.00612124 0.00213593 -1.7905e-24)
(0.00363224 -0.000282723 -8.51385e-25)
(0.00361451 -0.000293283 -1.27132e-24)
(0.00362525 -0.000267249 -5.38264e-24)
(0.00367562 -0.000217359 1.58583e-24)
(0.003761 -0.000156771 1.03201e-24)
(0.00387245 -9.66327e-05 4.08535e-24)
(0.00400367 -4.17802e-05 -8.35474e-24)
(0.00414977 6.0309e-06 3.19424e-24)
(0.00430732 4.63556e-05 1.06374e-23)
(0.00447404 7.9347e-05 -2.7787e-24)
(0.00464848 0.000105466 -2.69529e-24)
(0.00482971 0.000125266 -4.47249e-25)
(0.00501725 0.000139257 1.56467e-24)
(0.00521107 0.000147878 -3.16189e-24)
(0.00541146 0.00015147 6.92563e-25)
(0.00561909 0.000150232 -3.47159e-25)
(0.00583498 0.000144239 -1.88793e-24)
(0.00606066 0.000133434 6.12887e-25)
(0.00629818 0.000117601 3.34346e-24)
(0.0065501 9.59826e-05 -3.99144e-25)
(0.00681931 6.67439e-05 -7.59898e-25)
(0.00710718 2.62397e-05 -1.89821e-25)
(0.00738861 -2.82261e-05 -9.27783e-25)
(0.00762904 -9.28551e-05 7.70587e-26)
(0.0078203 -0.000163508 -1.60105e-24)
(0.00796429 -0.000236173 3.04031e-24)
(0.00806292 -0.000307868 -1.71259e-24)
(0.00811964 -0.000377395 2.88099e-24)
(0.00813849 -0.000442923 -1.23164e-24)
(0.00812269 -0.00050146 7.33332e-25)
(0.00807459 -0.000549712 -8.15721e-25)
(0.00799641 -0.000583896 -3.49936e-25)
(0.0078906 -0.000599515 -4.0467e-25)
(0.00776011 -0.000591397 -2.44554e-24)
(0.00760865 -0.000553763 3.91625e-24)
(0.00744101 -0.000480257 -9.28633e-24)
(0.00726339 -0.000363942 4.05939e-23)
(0.00708404 -0.000197259 -2.18457e-23)
(0.00691432 2.79606e-05 -1.26689e-24)
(0.0067707 0.000319833 -4.05811e-23)
(0.00667655 0.000684024 3.04558e-23)
(0.00666418 0.00111464 -1.05308e-23)
(0.00676204 0.00156808 2.6257e-24)
(0.00697547 0.00193228 1.32122e-23)
(0.00723484 0.00198167 -3.28465e-24)
(0.00482365 -0.000256371 -3.50594e-24)