/*--------------------------------*- C++ -*----------------------------------*\
| =========                 |                                                 |
| \\      /  F ield         | OpenFOAM: The Open Source CFD Toolbox           |
|  \\    /   O peration     | Version:  2312                                  |
|   \\  /    A nd           | Website:  www.openfoam.com                      |
|    \\/     M anipulation  |                                                 |
\*---------------------------------------------------------------------------*/
FoamFile
{
    version     2.0;
    format      ascii;
    arch        "LSB;label=32;scalar=64";
    class       volScalarField;
    location    "77";
    object      p;
}
// * * * * * * * * * * * * * * * * * * * * * * * * * * * * * * * * * * * * * //

dimensions      [0 2 -2 0 0 0 0];

internalField   nonuniform List<scalar> 
4800
(
-7.60891e-13
-9.56242e-07
-1.72953e-06
-2.37043e-06
-2.93256e-06
-3.42941e-06
-3.86958e-06
-4.26504e-06
-4.62521e-06
-4.95541e-06
-5.2595e-06
-5.5372e-06
-5.78001e-06
-6.22854e-06
-7.83497e-06
1.1168e-08
-9.45029e-07
-1.71853e-06
-2.3599e-06
-2.92289e-06
-3.42122e-06
-3.86356e-06
-4.26224e-06
-4.62757e-06
-4.96675e-06
-5.28834e-06
-5.60532e-06
-5.92918e-06
-6.36624e-06
-7.15491e-06
2.2646e-08
-9.33294e-07
-1.70708e-06
-2.34871e-06
-2.91163e-06
-3.41102e-06
-3.85506e-06
-4.25626e-06
-4.62555e-06
-4.97091e-06
-5.30203e-06
-5.63226e-06
-5.96709e-06
-6.31087e-06
-6.63395e-06
3.39932e-08
-9.21094e-07
-1.69455e-06
-2.3363e-06
-2.89798e-06
-3.39795e-06
-3.84287e-06
-4.24492e-06
-4.61525e-06
-4.96101e-06
-5.28911e-06
-5.6041e-06
-5.89516e-06
-6.12764e-06
-6.22777e-06
4.64342e-08
-9.07123e-07
-1.67946e-06
-2.32161e-06
-2.88003e-06
-3.37961e-06
-3.82431e-06
-4.22492e-06
-4.59215e-06
-4.93095e-06
-5.2432e-06
-5.52375e-06
-5.751e-06
-5.88397e-06
-5.86585e-06
6.14456e-08
-8.8988e-07
-1.66014e-06
-2.30261e-06
-2.85654e-06
-3.3533e-06
-3.79571e-06
-4.19164e-06
-4.55033e-06
-4.8737e-06
-5.15844e-06
-5.39309e-06
-5.55432e-06
-5.61088e-06
-5.53377e-06
8.15216e-08
-8.66943e-07
-1.63417e-06
-2.27458e-06
-2.825e-06
-3.31591e-06
-3.75235e-06
-4.13921e-06
-4.48293e-06
-4.78258e-06
-5.0313e-06
-5.21613e-06
-5.31894e-06
-5.32318e-06
-5.22113e-06
1.11028e-07
-8.34211e-07
-1.5975e-06
-2.23387e-06
-2.7798e-06
-3.26229e-06
-3.68819e-06
-4.06066e-06
-4.38298e-06
-4.65235e-06
-4.86111e-06
-4.99896e-06
-5.05584e-06
-5.02778e-06
-4.91873e-06
1.56755e-07
-7.85372e-07
-1.54391e-06
-2.17485e-06
-2.71368e-06
-3.1848e-06
-3.59561e-06
-3.94833e-06
-4.244e-06
-4.47951e-06
-4.64909e-06
-4.74726e-06
-4.77158e-06
-4.72612e-06
-4.61963e-06
2.27998e-07
-7.11668e-07
-1.46486e-06
-2.08889e-06
-2.61798e-06
-3.07438e-06
-3.46589e-06
-3.7945e-06
-4.06048e-06
-4.2621e-06
-4.39697e-06
-4.46473e-06
-4.46839e-06
-4.41605e-06
-4.31746e-06
3.36051e-07
-6.0213e-07
-1.34958e-06
-1.96519e-06
-2.48221e-06
-2.921e-06
-3.29003e-06
-3.59206e-06
-3.82818e-06
-3.99905e-06
-4.10602e-06
-4.15273e-06
-4.14537e-06
-4.09335e-06
-4.00572e-06
4.93669e-07
-4.44044e-07
-1.1855e-06
-1.79138e-06
-2.29461e-06
-2.71411e-06
-3.0594e-06
-3.33499e-06
-3.54392e-06
-3.68961e-06
-3.77642e-06
-3.81061e-06
-3.79968e-06
-3.75289e-06
-3.67798e-06
7.15536e-07
-2.22701e-07
-9.58234e-07
-1.55378e-06
-2.04261e-06
-2.443e-06
-2.76587e-06
-3.01804e-06
-3.20498e-06
-3.33248e-06
-3.40701e-06
-3.43605e-06
-3.42734e-06
-3.38924e-06
-3.32823e-06
1.01954e-06
7.96897e-08
-6.50252e-07
-1.23671e-06
-1.71233e-06
-2.09614e-06
-2.40076e-06
-2.6353e-06
-2.8074e-06
-2.9246e-06
-2.99449e-06
-3.0249e-06
-3.02318e-06
-2.99666e-06
-2.95068e-06
1.42757e-06
4.84587e-07
-2.42391e-07
-8.21995e-07
-1.28777e-06
-1.66013e-06
-1.95339e-06
-2.17842e-06
-2.34433e-06
-2.45967e-06
-2.53248e-06
-2.57043e-06
-2.58027e-06
-2.56836e-06
-2.53916e-06
1.96375e-06
1.01763e-06
2.88182e-07
-2.8944e-07
-7.51168e-07
-1.11978e-06
-1.4109e-06
-1.63632e-06
-1.80584e-06
-1.92836e-06
-2.01191e-06
-2.06382e-06
-2.09027e-06
-2.09679e-06
-2.08728e-06
2.64861e-06
1.69984e-06
9.63364e-07
3.80456e-07
-8.58679e-08
-4.60581e-07
-7.60441e-07
-9.97457e-07
-1.18137e-06
-1.32088e-06
-1.42376e-06
-1.49692e-06
-1.54606e-06
-1.57613e-06
-1.59067e-06
3.4945e-06
2.54462e-06
1.79719e-06
1.2013e-06
7.20393e-07
3.28172e-07
7.49862e-09
-2.53293e-07
-4.63404e-07
-6.30975e-07
-7.63265e-07
-8.66692e-07
-9.46568e-07
-1.00738e-06
-1.05246e-06
4.50082e-06
3.55396e-06
2.79413e-06
2.17926e-06
1.67365e-06
1.25205e-06
8.98403e-07
6.01797e-07
3.53649e-07
1.46497e-07
-2.62534e-08
-1.70418e-07
-2.90904e-07
-3.91855e-07
-4.76504e-07
5.65497e-06
4.71521e-06
3.94439e-06
3.30537e-06
2.7664e-06
2.30556e-06
1.90876e-06
1.56606e-06
1.26949e-06
1.01219e-06
7.88218e-07
5.92394e-07
4.20275e-07
2.68091e-07
1.32695e-07
6.79375e-06
5.8785e-06
5.10208e-06
4.43703e-06
3.8596e-06
3.35306e-06
2.90594e-06
2.50957e-06
2.15678e-06
1.84153e-06
1.55858e-06
1.30346e-06
1.07221e-06
8.61484e-07
6.68386e-07
7.7665e-06
6.87006e-06
6.09161e-06
5.40577e-06
4.7956e-06
4.24935e-06
3.75785e-06
3.31352e-06
2.90995e-06
2.54178e-06
2.20444e-06
1.89402e-06
1.6071e-06
1.34081e-06
1.09263e-06
8.48728e-06
7.61892e-06
6.845e-06
6.14847e-06
5.51758e-06
4.94354e-06
4.41885e-06
3.93703e-06
3.49255e-06
3.08082e-06
2.69796e-06
2.34069e-06
2.00614e-06
1.69194e-06
1.39597e-06
9.01226e-06
8.17171e-06
7.40721e-06
6.7079e-06
6.06538e-06
5.47276e-06
4.92394e-06
4.41354e-06
3.93699e-06
3.49051e-06
3.07086e-06
2.67536e-06
2.30168e-06
1.94788e-06
1.61225e-06
9.38036e-06
8.56685e-06
7.81571e-06
7.11958e-06
6.47231e-06
5.86848e-06
5.30316e-06
4.77203e-06
4.27142e-06
3.79825e-06
3.34994e-06
2.92434e-06
2.51959e-06
2.1342e-06
1.76679e-06
9.62994e-06
8.84325e-06
8.10802e-06
7.41901e-06
6.77181e-06
6.16219e-06
5.58626e-06
5.04063e-06
4.52241e-06
4.02922e-06
3.55903e-06
3.1102e-06
2.68131e-06
2.2712e-06
1.87882e-06
9.7954e-06
9.03428e-06
8.31558e-06
7.63566e-06
6.99145e-06
6.3797e-06
5.79737e-06
5.24187e-06
4.711e-06
4.20298e-06
3.71629e-06
3.24972e-06
2.80219e-06
2.3729e-06
1.96105e-06
9.90266e-06
9.16505e-06
8.46236e-06
7.79231e-06
7.15277e-06
6.54121e-06
5.95535e-06
5.39325e-06
4.85335e-06
4.33437e-06
3.83521e-06
3.35502e-06
2.89308e-06
2.44886e-06
2.02184e-06
9.97063e-06
9.25415e-06
8.56646e-06
7.90629e-06
7.27212e-06
6.66204e-06
6.0744e-06
5.5079e-06
4.96147e-06
4.43424e-06
3.9255e-06
3.43474e-06
2.96152e-06
2.50559e-06
2.06665e-06
1.00127e-05
9.31503e-06
8.64101e-06
7.99017e-06
7.3614e-06
6.75335e-06
6.16497e-06
5.59544e-06
5.04413e-06
4.51053e-06
3.99426e-06
3.49511e-06
3.0129e-06
2.54759e-06
2.09912e-06
1.00383e-05
9.35704e-06
8.69526e-06
8.05289e-06
7.42916e-06
6.82327e-06
6.23467e-06
5.66294e-06
5.10782e-06
4.56911e-06
4.04674e-06
3.54074e-06
3.05117e-06
2.57819e-06
2.1219e-06
1.00535e-05
9.3866e-06
8.73561e-06
8.10072e-06
7.48152e-06
6.87768e-06
6.28905e-06
5.7156e-06
5.15733e-06
4.61437e-06
4.08689e-06
3.57515e-06
3.07939e-06
2.59997e-06
2.13715e-06
1.00624e-05
9.40804e-06
8.76647e-06
8.13808e-06
7.52282e-06
6.92078e-06
6.33217e-06
5.75722e-06
5.19626e-06
4.64963e-06
4.11774e-06
3.60104e-06
3.09997e-06
2.61502e-06
2.1466e-06
1.00676e-05
9.42422e-06
8.7908e-06
8.168e-06
7.55612e-06
6.9556e-06
6.36693e-06
5.79063e-06
5.22724e-06
4.67736e-06
4.14158e-06
3.62052e-06
3.11478e-06
2.625e-06
2.1517e-06
1.00709e-05
9.43698e-06
8.8106e-06
8.19258e-06
7.58356e-06
6.98427e-06
6.39545e-06
5.81786e-06
5.25225e-06
4.69942e-06
4.16014e-06
3.63519e-06
3.1253e-06
2.63123e-06
2.15362e-06
1.00732e-05
9.44746e-06
8.82714e-06
8.21321e-06
7.60659e-06
7.00827e-06
6.4192e-06
5.84036e-06
5.2727e-06
4.71717e-06
4.17472e-06
3.64625e-06
3.13264e-06
2.63473e-06
2.15328e-06
1.0075e-05
9.45637e-06
8.84124e-06
8.23078e-06
7.62616e-06
7.02858e-06
6.43919e-06
5.85914e-06
5.28957e-06
4.73158e-06
4.18625e-06
3.65461e-06
3.13764e-06
2.6363e-06
2.15141e-06
1.00766e-05
9.46419e-06
8.85355e-06
8.24606e-06
7.64311e-06
7.04608e-06
6.45631e-06
5.87511e-06
5.30375e-06
4.74349e-06
4.19552e-06
3.66098e-06
3.14095e-06
2.63647e-06
2.14847e-06
1.00782e-05
9.47158e-06
8.86503e-06
8.26022e-06
7.65874e-06
7.06214e-06
6.47192e-06
5.88954e-06
5.31643e-06
4.75396e-06
4.20342e-06
3.66607e-06
3.14307e-06
2.63557e-06
2.14456e-06
1.00798e-05
9.47857e-06
8.87588e-06
8.27358e-06
7.6734e-06
7.07708e-06
6.48629e-06
5.90267e-06
5.32777e-06
4.7631e-06
4.21008e-06
3.67007e-06
3.14434e-06
2.63408e-06
2.14029e-06
-9.02887e-06
-6.62433e-06
-5.16871e-06
-4.19809e-06
-3.4346e-06
-2.86201e-06
-2.43077e-06
-2.10604e-06
-1.86264e-06
-1.67914e-06
-1.53641e-06
-1.41647e-06
-1.30169e-06
-1.17466e-06
-1.01782e-06
-8.15325e-07
-5.55063e-07
-2.31254e-07
1.4197e-07
5.30366e-07
8.69456e-07
1.07572e-06
1.08657e-06
9.92077e-07
9.28989e-07
9.8782e-07
1.21711e-06
1.6409e-06
2.27911e-06
3.13021e-06
4.21031e-06
5.51607e-06
7.01924e-06
8.7036e-06
1.05289e-05
1.24472e-05
1.44006e-05
1.63219e-05
1.81303e-05
1.97244e-05
2.09579e-05
2.16276e-05
2.12861e-05
1.95544e-05
1.48226e-05
-7.40452e-06
-6.11432e-06
-4.99426e-06
-4.12191e-06
-3.40267e-06
-2.84446e-06
-2.41803e-06
-2.0952e-06
-1.85296e-06
-1.67063e-06
-1.52923e-06
-1.41065e-06
-1.29717e-06
-1.17128e-06
-1.01548e-06
-8.13942e-07
-5.52776e-07
-2.32194e-07
1.40051e-07
5.28713e-07
8.7102e-07
1.08548e-06
1.10974e-06
1.0303e-06
9.8042e-07
1.04925e-06
1.28471e-06
1.71084e-06
2.34755e-06
3.19121e-06
4.25842e-06
5.5445e-06
7.01611e-06
8.6558e-06
1.04199e-05
1.22555e-05
1.40982e-05
1.58701e-05
1.7474e-05
1.87794e-05
1.95863e-05
1.95778e-05
1.8125e-05
1.45041e-05
7.5053e-06
-6.55809e-06
-5.72656e-06
-4.81596e-06
-4.03353e-06
-3.36343e-06
-2.82513e-06
-2.40632e-06
-2.08634e-06
-1.84528e-06
-1.66375e-06
-1.52315e-06
-1.40536e-06
-1.2926e-06
-1.16736e-06
-1.01216e-06
-8.11275e-07
-5.5147e-07
-2.31787e-07
1.39278e-07
5.27905e-07
8.73291e-07
1.09629e-06
1.13503e-06
1.0721e-06
1.03677e-06
1.11651e-06
1.35843e-06
1.78648e-06
2.42046e-06
3.25278e-06
4.30454e-06
5.56453e-06
6.99567e-06
8.5785e-06
1.02652e-05
1.19968e-05
1.37009e-05
1.52886e-05
1.66461e-05
1.76193e-05
1.79791e-05
1.73822e-05
1.52754e-05
1.12921e-05
5.17138e-06
-6.03348e-06
-5.41554e-06
-4.66999e-06
-3.95818e-06
-3.33493e-06
-2.81723e-06
-2.40532e-06
-2.08673e-06
-1.84499e-06
-1.66238e-06
-1.52087e-06
-1.40243e-06
-1.28924e-06
-1.16375e-06
-1.00854e-06
-8.07937e-07
-5.49149e-07
-2.30553e-07
1.3917e-07
5.27603e-07
8.76097e-07
1.10809e-06
1.1624e-06
1.11744e-06
1.09813e-06
1.19011e-06
1.43945e-06
1.86991e-06
2.5012e-06
3.31836e-06
4.35482e-06
5.58285e-06
6.96541e-06
8.47967e-06
1.00729e-05
1.16793e-05
1.32186e-05
1.45913e-05
1.56722e-05
1.62973e-05
1.62444e-05
1.52266e-05
1.28898e-05
9.06626e-06
4.00132e-06
-5.63516e-06
-5.14864e-06
-4.53224e-06
-3.90387e-06
-3.32375e-06
-2.82597e-06
-2.41972e-06
-2.10026e-06
-1.85503e-06
-1.66845e-06
-1.52335e-06
-1.40196e-06
-1.28648e-06
-1.15934e-06
-1.00315e-06
-8.023e-07
-5.44219e-07
-2.27137e-07
1.40735e-07
5.28399e-07
8.79661e-07
1.12086e-06
1.1918e-06
1.16626e-06
1.16431e-06
1.26946e-06
1.52649e-06
1.95908e-06
2.58512e-06
3.3835e-06
4.40165e-06
5.58966e-06
6.9132e-06
8.34521e-06
9.82786e-06
1.12891e-05
1.26416e-05
1.37797e-05
1.45747e-05
1.48704e-05
1.44799e-05
1.32044e-05
1.08703e-05
7.47526e-06
3.34038e-06
-5.30713e-06
-4.91214e-06
-4.39856e-06
-3.8554e-06
-3.32565e-06
-2.84983e-06
-2.45031e-06
-2.12882e-06
-1.87765e-06
-1.68408e-06
-1.53225e-06
-1.40496e-06
-1.28469e-06
-1.15394e-06
-9.95412e-07
-7.93488e-07
-5.35867e-07
-2.2062e-07
1.44729e-07
5.30766e-07
8.84158e-07
1.13451e-06
1.22298e-06
1.2182e-06
1.23477e-06
1.35375e-06
1.61822e-06
2.05236e-06
2.66429e-06
3.44884e-06
4.43973e-06
5.57714e-06
6.82947e-06
8.16433e-06
9.51911e-06
1.08167e-05
1.19659e-05
1.28606e-05
1.33786e-05
1.3386e-05
1.27463e-05
1.13477e-05
9.14408e-06
6.23312e-06
2.90513e-06
-5.01401e-06
-4.68988e-06
-4.26681e-06
-3.79502e-06
-3.32365e-06
-2.88056e-06
-2.49234e-06
-2.17016e-06
-1.91239e-06
-1.70984e-06
-1.54843e-06
-1.41217e-06
-1.28428e-06
-1.1476e-06
-9.85017e-07
-7.80971e-07
-5.23454e-07
-2.10404e-07
1.51647e-07
5.34966e-07
8.89586e-07
1.14871e-06
1.25541e-06
1.27253e-06
1.30857e-06
1.44171e-06
1.71303e-06
2.14596e-06
2.73732e-06
3.51192e-06
4.46174e-06
5.53706e-06
6.70581e-06
7.92842e-06
9.13897e-06
1.0258e-05
1.11945e-05
1.18483e-05
1.2113e-05
1.18856e-05
1.10813e-05
9.65747e-06
7.64157e-06
5.16156e-06
2.44751e-06
-4.73479e-06
-4.46685e-06
-4.11987e-06
-3.72036e-06
-3.30344e-06
-2.90169e-06
-2.5348e-06
-2.2163e-06
-1.95409e-06
-1.74289e-06
-1.57037e-06
-1.4227e-06
-1.2846e-06
-1.1397e-06
-9.71312e-07
-7.64035e-07
-5.06291e-07
-1.95999e-07
1.61803e-07
5.4107e-07
8.95675e-07
1.16277e-06
1.28805e-06
1.32788e-06
1.38398e-06
1.53106e-06
1.80835e-06
2.23412e-06
2.8093e-06
3.56133e-06
4.45766e-06
5.45978e-06
6.53246e-06
7.62833e-06
8.68068e-06
9.61115e-06
1.03341e-05
1.07608e-05
1.08064e-05
1.04012e-05
9.50374e-06
8.11761e-06
6.30331e-06
4.18369e-06
1.93104e-06
-4.45854e-06
-4.23579e-06
-3.95126e-06
-3.61822e-06
-3.25921e-06
-2.89964e-06
-2.56122e-06
-2.25435e-06
-1.99328e-06
-1.77653e-06
-1.59336e-06
-1.43323e-06
-1.2833e-06
-1.12854e-06
-9.52997e-07
-7.41671e-07
-4.83635e-07
-1.77064e-07
1.75137e-07
5.48624e-07
9.01703e-07
1.17532e-06
1.31905e-06
1.38193e-06
1.45812e-06
1.6183e-06
1.89828e-06
2.31368e-06
2.87401e-06
3.58445e-06
4.41728e-06
5.3357e-06
6.29855e-06
7.25459e-06
8.13834e-06
8.87692e-06
9.39375e-06
9.61602e-06
9.48247e-06
8.95277e-06
8.01718e-06
6.70438e-06
5.08369e-06
3.25974e-06
1.35815e-06
-4.17801e-06
-3.99235e-06
-3.75884e-06
-3.48359e-06
-3.18003e-06
-2.86671e-06
-2.55758e-06
-2.2714e-06
-2.01869e-06
-1.80103e-06
-1.60969e-06
-1.43808e-06
-1.27632e-06
-1.11128e-06
-9.28165e-07
-7.12698e-07
-4.55e-07
-1.53694e-07
1.91552e-07
5.56271e-07
9.05757e-07
1.18396e-06
1.34534e-06
1.43091e-06
1.5264e-06
1.69705e-06
1.97723e-06
2.38006e-06
2.91343e-06
3.57211e-06
4.33098e-06
5.15267e-06
5.99224e-06
6.79825e-06
7.50781e-06
8.05779e-06
8.38362e-06
8.43012e-06
8.15774e-06
7.54911e-06
6.61407e-06
5.39158e-06
3.94704e-06
2.36416e-06
7.33793e-07
-3.88662e-06
-3.7322e-06
-3.54066e-06
-3.31442e-06
-3.06088e-06
-2.7928e-06
-2.51887e-06
-2.25559e-06
-2.01835e-06
-1.80482e-06
-1.60961e-06
-1.42991e-06
-1.2585e-06
-1.08446e-06
-8.94724e-07
-6.76111e-07
-4.20335e-07
-1.27589e-07
2.09485e-07
5.64523e-07
9.02959e-07
1.18445e-06
1.362e-06
1.46902e-06
1.58189e-06
1.75989e-06
2.03553e-06
2.41984e-06
2.9152e-06
3.51183e-06
4.18485e-06
4.89666e-06
5.60132e-06
6.24869e-06
6.78682e-06
7.15828e-06
7.31397e-06
7.21577e-06
6.84182e-06
6.19031e-06
5.28102e-06
4.15405e-06
2.8655e-06
1.48007e-06
6.35414e-08
-3.57812e-06
-3.4507e-06
-3.29427e-06
-3.10932e-06
-2.89956e-06
-2.67227e-06
-2.43674e-06
-2.2035e-06
-1.98327e-06
-1.77751e-06
-1.58458e-06
-1.40218e-06
-1.22521e-06
-1.04523e-06
-8.51284e-07
-6.32155e-07
-3.80666e-07
-9.70693e-08
2.24355e-07
5.65408e-07
8.90132e-07
1.17083e-06
1.36172e-06
1.48774e-06
1.6148e-06
1.79587e-06
2.06036e-06
2.41726e-06
2.86422e-06
3.38778e-06
3.96279e-06
4.55373e-06
5.11572e-06
5.60567e-06
5.97672e-06
6.18492e-06
6.19487e-06
5.98269e-06
5.53929e-06
4.87186e-06
4.0035e-06
2.97057e-06
1.81861e-06
5.96676e-07
-6.47392e-07
-3.24679e-06
-3.14343e-06
-3.0172e-06
-2.86778e-06
-2.69676e-06
-2.50859e-06
-2.30976e-06
-2.10743e-06
-1.90829e-06
-1.71571e-06
-1.53039e-06
-1.35098e-06
-1.17374e-06
-9.9256e-07
-7.98745e-07
-5.83135e-07
-3.39024e-07
-6.69947e-08
2.30362e-07
5.50713e-07
8.61112e-07
1.13492e-06
1.33437e-06
1.47531e-06
1.61187e-06
1.79e-06
2.03549e-06
2.35484e-06
2.74235e-06
3.18218e-06
3.64914e-06
4.10983e-06
4.52918e-06
4.86536e-06
5.08178e-06
5.1469e-06
5.03714e-06
4.73948e-06
4.25298e-06
3.58901e-06
2.76987e-06
1.8262e-06
7.93681e-07
-2.91003e-07
-1.39288e-06
-2.88745e-06
-2.80642e-06
-2.70721e-06
-2.58922e-06
-2.4529e-06
-2.30066e-06
-2.13651e-06
-1.96513e-06
-1.79097e-06
-1.61725e-06
-1.44559e-06
-1.27559e-06
-1.10462e-06
-9.28422e-07
-7.40613e-07
-5.34526e-07
-3.04383e-07
-5.08202e-08
2.21541e-07
5.16679e-07
8.04882e-07
1.0652e-06
1.26672e-06
1.41655e-06
1.55622e-06
1.72395e-06
1.94141e-06
2.21292e-06
2.53076e-06
2.87792e-06
3.23212e-06
3.56373e-06
3.84114e-06
4.03317e-06
4.11258e-06
4.05766e-06
3.85409e-06
3.49625e-06
2.98772e-06
2.34071e-06
1.57472e-06
7.14265e-07
-2.13433e-07
-1.18118e-06
-2.16337e-06
-2.4949e-06
-2.4359e-06
-2.36221e-06
-2.2733e-06
-2.16899e-06
-2.05043e-06
-1.9199e-06
-1.78031e-06
-1.63468e-06
-1.48529e-06
-1.33327e-06
-1.1793e-06
-1.0222e-06
-8.59049e-07
-6.84978e-07
-4.95315e-07
-2.8689e-07
-5.88775e-08
1.87258e-07
4.48971e-07
7.07618e-07
9.47113e-07
1.14234e-06
1.29306e-06
1.42785e-06
1.57643e-06
1.7568e-06
1.97153e-06
2.21207e-06
2.46376e-06
2.70444e-06
2.91027e-06
3.05687e-06
3.12166e-06
3.08572e-06
2.93524e-06
2.66255e-06
2.26654e-06
1.75259e-06
1.13193e-06
4.20448e-07
-3.62942e-07
-1.19793e-06
-2.06454e-06
-2.94402e-06
-2.06425e-06
-2.02873e-06
-1.98112e-06
-1.92103e-06
-1.84813e-06
-1.76278e-06
-1.66618e-06
-1.56017e-06
-1.44618e-06
-1.32664e-06
-1.20219e-06
-1.0723e-06
-9.36447e-07
-7.95151e-07
-6.43774e-07
-4.7898e-07
-2.99059e-07
-1.02982e-07
1.07849e-07
3.30017e-07
5.52277e-07
7.62514e-07
9.41323e-07
1.08333e-06
1.20374e-06
1.32461e-06
1.46129e-06
1.61584e-06
1.77708e-06
1.93162e-06
2.0638e-06
2.15583e-06
2.1896e-06
2.14917e-06
2.02227e-06
1.80105e-06
1.48223e-06
1.06703e-06
5.60967e-07
-2.66234e-08
-6.8343e-07
-1.39531e-06
-2.14738e-06
-2.92508e-06
-3.71472e-06
-1.59276e-06
-1.58412e-06
-1.56534e-06
-1.53625e-06
-1.49641e-06
-1.44617e-06
-1.38559e-06
-1.31607e-06
-1.23984e-06
-1.15368e-06
-1.06029e-06
-9.65524e-07
-8.64601e-07
-7.54337e-07
-6.34033e-07
-5.0288e-07
-3.59934e-07
-2.04294e-07
-3.67732e-08
1.39875e-07
3.18966e-07
4.9148e-07
6.42412e-07
7.63021e-07
8.59644e-07
9.49555e-07
1.04195e-06
1.13262e-06
1.21439e-06
1.27978e-06
1.31743e-06
1.31429e-06
1.25776e-06
1.13726e-06
9.45258e-07
6.7771e-07
3.33857e-07
-8.4103e-08
-5.7129e-07
-1.12048e-06
-1.72258e-06
-2.36731e-06
-3.04394e-06
-3.74194e-06
-4.45132e-06
-1.08552e-06
-1.10909e-06
-1.12392e-06
-1.13008e-06
-1.1274e-06
-1.1159e-06
-1.09572e-06
-1.06733e-06
-1.03149e-06
-9.87775e-07
-9.38839e-07
-8.85907e-07
-8.25793e-07
-7.55146e-07
-6.76264e-07
-5.89161e-07
-4.92606e-07
-3.85815e-07
-2.6897e-07
-1.44229e-07
-1.51664e-08
1.13394e-07
2.26514e-07
3.13548e-07
3.80664e-07
4.37829e-07
4.83144e-07
5.12405e-07
5.25506e-07
5.17533e-07
4.79962e-07
4.04128e-07
2.82293e-07
1.07988e-07
-1.23335e-07
-4.13851e-07
-7.63317e-07
-1.1694e-06
-1.62806e-06
-2.13392e-06
-2.68052e-06
-3.26067e-06
-3.86677e-06
-4.49131e-06
-5.127e-06
-5.49262e-07
-6.13277e-07
-6.69452e-07
-7.18052e-07
-7.592e-07
-7.93009e-07
-8.19655e-07
-8.39426e-07
-8.52797e-07
-8.5997e-07
-8.61109e-07
-8.56039e-07
-8.43927e-07
-8.24469e-07
-7.98211e-07
-7.64651e-07
-7.22652e-07
-6.71903e-07
-6.12227e-07
-5.44862e-07
-4.72201e-07
-3.9572e-07
-3.26894e-07
-2.70304e-07
-2.38071e-07
-2.16157e-07
-2.15531e-07
-2.35024e-07
-2.73499e-07
-3.34809e-07
-4.2463e-07
-5.48072e-07
-7.09413e-07
-9.12267e-07
-1.15932e-06
-1.45189e-06
-1.78966e-06
-2.17075e-06
-2.59211e-06
-3.04983e-06
-3.5394e-06
-4.05589e-06
-4.5941e-06
-5.14876e-06
-5.71465e-06
8.8063e-09
-1.07359e-07
-2.16444e-07
-3.1856e-07
-4.14003e-07
-5.03049e-07
-5.85894e-07
-6.62649e-07
-7.33389e-07
-7.98078e-07
-8.56657e-07
-9.09241e-07
-9.55802e-07
-9.9602e-07
-1.02946e-06
-1.05548e-06
-1.07355e-06
-1.08305e-06
-1.08395e-06
-1.0767e-06
-1.06151e-06
-1.04425e-06
-1.02928e-06
-1.01583e-06
-9.98438e-07
-1.00562e-06
-1.03684e-06
-1.08742e-06
-1.15728e-06
-1.2491e-06
-1.3659e-06
-1.51049e-06
-1.68539e-06
-1.89283e-06
-2.13449e-06
-2.41118e-06
-2.7226e-06
-3.06747e-06
-3.44375e-06
-3.84881e-06
-4.27961e-06
-4.73285e-06
-5.20503e-06
-5.69254e-06
-6.1917e-06
4.87522e-07
3.14635e-07
1.48806e-07
-1.02435e-08
-1.62898e-07
-3.09428e-07
-4.49965e-07
-5.84536e-07
-7.1312e-07
-8.35666e-07
-9.52128e-07
-1.06245e-06
-1.1664e-06
-1.26354e-06
-1.35332e-06
-1.43521e-06
-1.50852e-06
-1.57255e-06
-1.62704e-06
-1.671e-06
-1.70557e-06
-1.73446e-06
-1.75385e-06
-1.76926e-06
-1.78851e-06
-1.82272e-06
-1.87224e-06
-1.93708e-06
-2.01883e-06
-2.11923e-06
-2.2399e-06
-2.38263e-06
-2.54944e-06
-2.74209e-06
-2.96185e-06
-3.20935e-06
-3.48448e-06
-3.78648e-06
-4.11404e-06
-4.46552e-06
-4.83897e-06
-5.23224e-06
-5.643e-06
-6.0688e-06
-6.50713e-06
8.57219e-07
6.30015e-07
4.10051e-07
1.97148e-07
-9.00279e-09
-2.08604e-07
-4.01709e-07
-5.88249e-07
-7.68106e-07
-9.41147e-07
-1.10722e-06
-1.2661e-06
-1.41742e-06
-1.56073e-06
-1.69548e-06
-1.82101e-06
-1.93654e-06
-2.04144e-06
-2.13462e-06
-2.21609e-06
-2.2863e-06
-2.34351e-06
-2.3931e-06
-2.43516e-06
-2.47859e-06
-2.52662e-06
-2.58264e-06
-2.64999e-06
-2.73083e-06
-2.82657e-06
-2.93872e-06
-3.0691e-06
-3.21948e-06
-3.3912e-06
-3.58516e-06
-3.80182e-06
-4.04129e-06
-4.30326e-06
-4.58709e-06
-4.89185e-06
-5.21632e-06
-5.5591e-06
-5.91862e-06
-6.29324e-06
-6.68123e-06
1.11329e-06
8.39397e-07
5.73323e-07
3.14975e-07
6.41966e-08
-1.79057e-07
-4.14704e-07
-6.42582e-07
-8.6251e-07
-1.07428e-06
-1.27764e-06
-1.47226e-06
-1.65774e-06
-1.8336e-06
-1.99925e-06
-2.15402e-06
-2.2972e-06
-2.428e-06
-2.54577e-06
-2.65032e-06
-2.74125e-06
-2.81935e-06
-2.88428e-06
-2.94121e-06
-2.99324e-06
-3.04469e-06
-3.10067e-06
-3.16492e-06
-3.23971e-06
-3.3268e-06
-3.42793e-06
-3.54481e-06
-3.67886e-06
-3.83123e-06
-4.00273e-06
-4.19396e-06
-4.40518e-06
-4.63641e-06
-4.88737e-06
-5.15755e-06
-5.44624e-06
-5.75253e-06
-6.07538e-06
-6.41363e-06
-6.76606e-06
1.29033e-06
9.77936e-07
6.74225e-07
3.7924e-07
9.29791e-08
-1.84473e-07
-4.52942e-07
-7.12201e-07
-9.61992e-07
-1.20203e-06
-1.43201e-06
-1.65155e-06
-1.86027e-06
-2.05768e-06
-2.24323e-06
-2.41631e-06
-2.5763e-06
-2.72254e-06
-2.85456e-06
-2.97202e-06
-3.07468e-06
-3.16404e-06
-3.23995e-06
-3.3035e-06
-3.35906e-06
-3.4123e-06
-3.46796e-06
-3.52938e-06
-3.59904e-06
-3.679e-06
-3.7711e-06
-3.87695e-06
-3.99791e-06
-4.13505e-06
-4.28925e-06
-4.46115e-06
-4.65124e-06
-4.85976e-06
-5.08676e-06
-5.33205e-06
-5.59523e-06
-5.87573e-06
-6.17287e-06
-6.48584e-06
-6.81377e-06
1.41346e-06
1.07049e-06
7.37195e-07
4.13723e-07
1.00197e-07
-2.03187e-07
-4.96158e-07
-7.78406e-07
-1.04961e-06
-1.30945e-06
-1.5576e-06
-1.7937e-06
-2.01737e-06
-2.22817e-06
-2.42566e-06
-2.60932e-06
-2.77869e-06
-2.93327e-06
-3.07276e-06
-3.19722e-06
-3.30662e-06
-3.40271e-06
-3.48389e-06
-3.55127e-06
-3.60997e-06
-3.66518e-06
-3.72097e-06
-3.78059e-06
-3.84672e-06
-3.92156e-06
-4.00697e-06
-4.10455e-06
-4.21564e-06
-4.34141e-06
-4.48284e-06
-4.64075e-06
-4.81579e-06
-5.00836e-06
-5.21868e-06
-5.44675e-06
-5.69243e-06
-5.95544e-06
-6.23535e-06
-6.53164e-06
-6.84369e-06
1.50083e-06
1.13401e-06
7.77868e-07
4.32666e-07
9.86385e-08
-2.23909e-07
-5.34626e-07
-8.33155e-07
-1.11916e-06
-1.39231e-06
-1.65231e-06
-1.89881e-06
-2.1315e-06
-2.35001e-06
-2.55402e-06
-2.74315e-06
-2.91713e-06
-3.07565e-06
-3.21867e-06
-3.34614e-06
-3.45954e-06
-3.55899e-06
-3.64327e-06
-3.71381e-06
-3.77531e-06
-3.83238e-06
-3.88881e-06
-3.94779e-06
-4.01198e-06
-4.0836e-06
-4.16456e-06
-4.25651e-06
-4.3609e-06
-4.479e-06
-4.6119e-06
-4.76051e-06
-4.92553e-06
-5.1075e-06
-5.30678e-06
-5.52359e-06
-5.75801e-06
-6.00995e-06
-6.2792e-06
-6.56541e-06
-6.86816e-06
1.56386e-06
1.17867e-06
8.05157e-07
4.43669e-07
9.45317e-08
-2.41875e-07
-5.65161e-07
-8.74954e-07
-1.17092e-06
-1.45274e-06
-1.72014e-06
-1.97283e-06
-2.21056e-06
-2.43307e-06
-2.64014e-06
-2.83157e-06
-3.00728e-06
-3.16719e-06
-3.31169e-06
-3.44043e-06
-3.55511e-06
-3.65618e-06
-3.74253e-06
-3.81554e-06
-3.87947e-06
-3.93848e-06
-3.99608e-06
-4.05532e-06
-4.11879e-06
-4.18877e-06
-4.26721e-06
-4.35583e-06
-4.45614e-06
-4.56949e-06
-4.69701e-06
-4.83967e-06
-4.99831e-06
-5.17359e-06
-5.36604e-06
-5.57602e-06
-5.80376e-06
-6.04932e-06
-6.31264e-06
-6.59353e-06
-6.89172e-06
1.60977e-06
1.21048e-06
8.23806e-07
4.5015e-07
8.99097e-08
-2.56487e-07
-5.88626e-07
-9.06131e-07
-1.20868e-06
-1.49598e-06
-1.76778e-06
-2.02386e-06
-2.26405e-06
-2.48819e-06
-2.6962e-06
-2.88803e-06
-3.06374e-06
-3.22344e-06
-3.36747e-06
-3.49661e-06
-3.61155e-06
-3.71328e-06
-3.8009e-06
-3.87581e-06
-3.94186e-06
-4.00275e-06
-4.06173e-06
-4.12173e-06
-4.18531e-06
-4.25474e-06
-4.332e-06
-4.41884e-06
-4.51683e-06
-4.62734e-06
-4.7516e-06
-4.89069e-06
-5.04554e-06
-5.21693e-06
-5.40549e-06
-5.61172e-06
-5.83594e-06
-6.07835e-06
-6.33901e-06
-6.61785e-06
-6.9147e-06
1.64293e-06
1.23271e-06
8.35951e-07
4.53112e-07
8.46451e-08
-2.68986e-07
-6.07357e-07
-9.30101e-07
-1.23691e-06
-1.52752e-06
-1.80174e-06
-2.0594e-06
-2.30042e-06
-2.52474e-06
-2.73239e-06
-2.92345e-06
-3.09817e-06
-3.25679e-06
-3.39984e-06
-3.52817e-06
-3.64265e-06
-3.74434e-06
-3.83257e-06
-3.90886e-06
-3.97661e-06
-4.03911e-06
-4.09942e-06
-4.16036e-06
-4.22446e-06
-4.29394e-06
-4.37077e-06
-4.45674e-06
-4.55347e-06
-4.66239e-06
-4.78482e-06
-4.92192e-06
-5.0747e-06
-5.24403e-06
-5.43064e-06
-5.63511e-06
-5.8579e-06
-6.09928e-06
-6.35944e-06
-6.63837e-06
-6.936e-06
1.6661e-06
1.24725e-06
8.42639e-07
4.52762e-07
7.81195e-08
-2.80803e-07
-6.23582e-07
-9.49866e-07
-1.25937e-06
-1.55187e-06
-1.82721e-06
-2.0853e-06
-2.32613e-06
-2.54972e-06
-2.75624e-06
-2.94587e-06
-3.11899e-06
-3.27603e-06
-3.41768e-06
-3.54456e-06
-3.65807e-06
-3.75917e-06
-3.84749e-06
-3.92463e-06
-3.99357e-06
-4.0573e-06
-4.11873e-06
-4.18058e-06
-4.24529e-06
-4.31502e-06
-4.39178e-06
-4.47738e-06
-4.57346e-06
-4.68155e-06
-4.803e-06
-4.93905e-06
-5.09079e-06
-5.25917e-06
-5.44502e-06
-5.64901e-06
-5.87166e-06
-6.11335e-06
-6.37432e-06
-6.65466e-06
-6.95436e-06
1.68132e-06
1.25551e-06
8.4465e-07
4.49267e-07
6.98999e-08
-2.92959e-07
-6.38896e-07
-9.67574e-07
-1.27873e-06
-1.57219e-06
-1.84783e-06
-2.10563e-06
-2.34564e-06
-2.56799e-06
-2.77292e-06
-2.96074e-06
-3.13193e-06
-3.28704e-06
-3.42703e-06
-3.55209e-06
-3.6643e-06
-3.76441e-06
-3.85236e-06
-3.92985e-06
-3.9995e-06
-4.06406e-06
-4.12633e-06
-4.18888e-06
-4.25409e-06
-4.32409e-06
-4.40089e-06
-4.4863e-06
-4.58204e-06
-4.68965e-06
-4.81056e-06
-4.94608e-06
-5.09737e-06
-5.26545e-06
-5.45123e-06
-5.65545e-06
-5.87871e-06
-6.12146e-06
-6.38401e-06
-6.6665e-06
-6.96896e-06
1.69027e-06
1.25871e-06
8.42753e-07
4.42957e-07
5.98837e-08
-3.05977e-07
-6.5422e-07
-9.84526e-07
-1.29666e-06
-1.59047e-06
-1.86591e-06
-2.12298e-06
-2.36182e-06
-2.58264e-06
-2.78575e-06
-2.97156e-06
-3.14064e-06
-3.29357e-06
-3.43093e-06
-3.55486e-06
-3.66556e-06
-3.76439e-06
-3.85162e-06
-3.92903e-06
-3.99895e-06
-4.06397e-06
-4.12674e-06
-4.18974e-06
-4.25526e-06
-4.32542e-06
-4.4022e-06
-4.48746e-06
-4.58292e-06
-4.6902e-06
-4.81078e-06
-4.94601e-06
-5.09713e-06
-5.26523e-06
-5.45129e-06
-5.6561e-06
-5.88035e-06
-6.12453e-06
-6.38902e-06
-6.674e-06
-6.97954e-06
1.69436e-06
1.25795e-06
8.37735e-07
4.34311e-07
4.82476e-08
-3.19968e-07
-6.69941e-07
-1.00137e-06
-1.31404e-06
-1.60785e-06
-1.88277e-06
-2.13889e-06
-2.37639e-06
-2.59554e-06
-2.79674e-06
-2.98048e-06
-3.14739e-06
-3.29816e-06
-3.4337e-06
-3.55552e-06
-3.6645e-06
-3.76185e-06
-3.84809e-06
-3.92508e-06
-3.99492e-06
-4.06006e-06
-4.12304e-06
-4.18622e-06
-4.25183e-06
-4.32197e-06
-4.39862e-06
-4.48365e-06
-4.57882e-06
-4.68578e-06
-4.80606e-06
-4.94108e-06
-5.09214e-06
-5.26038e-06
-5.44684e-06
-5.6524e-06
-5.87776e-06
-6.12351e-06
-6.39005e-06
-6.67761e-06
-6.98629e-06
1.6948e-06
1.25422e-06
8.30367e-07
4.23882e-07
3.53379e-08
-3.34783e-07
-6.86097e-07
-1.01832e-06
-1.33126e-06
-1.62485e-06
-1.89911e-06
-2.15416e-06
-2.39024e-06
-2.6077e-06
-2.80699e-06
-2.98868e-06
-3.15346e-06
-3.30213e-06
-3.43571e-06
-3.5555e-06
-3.66268e-06
-3.75844e-06
-3.8435e-06
-3.91982e-06
-3.98931e-06
-4.05431e-06
-4.11722e-06
-4.18035e-06
-4.24584e-06
-4.31579e-06
-4.39217e-06
-4.47687e-06
-4.57166e-06
-4.67825e-06
-4.79821e-06
-4.933e-06
-5.08399e-06
-5.25238e-06
-5.43925e-06
-5.64554e-06
-5.87203e-06
-6.11932e-06
-6.38786e-06
-6.67794e-06
-6.98965e-06
1.69262e-06
1.24836e-06
8.21354e-07
4.12231e-07
2.15752e-08
-3.50135e-07
-7.02525e-07
-1.03533e-06
-1.34838e-06
-1.64164e-06
-1.91516e-06
-2.16912e-06
-2.4038e-06
-2.61961e-06
-2.81705e-06
-2.99675e-06
-3.15949e-06
-3.30612e-06
-3.43774e-06
-3.55559e-06
-3.66096e-06
-3.75509e-06
-3.83886e-06
-3.91433e-06
-3.98327e-06
-4.04792e-06
-4.11057e-06
-4.17343e-06
-4.23864e-06
-4.30824e-06
-4.38422e-06
-4.46847e-06
-4.5628e-06
-4.66894e-06
-4.7885e-06
-4.92302e-06
-5.07388e-06
-5.24236e-06
-5.42959e-06
-5.63655e-06
-5.86407e-06
-6.11279e-06
-6.38322e-06
-6.67564e-06
-6.99021e-06
1.68863e-06
1.24113e-06
8.11332e-07
3.99899e-07
7.41184e-09
-3.65656e-07
-7.18939e-07
-1.05219e-06
-1.36526e-06
-1.65814e-06
-1.93092e-06
-2.18381e-06
-2.41715e-06
-2.63138e-06
-2.82707e-06
-3.0049e-06
-3.16571e-06
-3.3104e-06
-3.44014e-06
-3.55612e-06
-3.65975e-06
-3.75226e-06
-3.83469e-06
-3.9092e-06
-3.97746e-06
-4.0416e-06
-4.10384e-06
-4.1663e-06
-4.23108e-06
-4.30022e-06
-4.37569e-06
-4.4594e-06
-4.55318e-06
-4.6588e-06
-4.77791e-06
-4.91207e-06
-5.06274e-06
-5.23124e-06
-5.41873e-06
-5.62625e-06
-5.85468e-06
-6.10469e-06
-6.37682e-06
-6.67139e-06
-6.98856e-06
1.68351e-06
1.23312e-06
8.00852e-07
3.87381e-07
-6.71267e-09
-3.80958e-07
-7.34999e-07
-1.0686e-06
-1.38164e-06
-1.67413e-06
-1.94619e-06
-2.19808e-06
-2.43016e-06
-2.64292e-06
-2.83699e-06
-3.01309e-06
-3.1721e-06
-3.31499e-06
-3.44294e-06
-3.55716e-06
-3.65919e-06
-3.75011e-06
-3.83119e-06
-3.90469e-06
-3.97221e-06
-4.03576e-06
-4.09747e-06
-4.15943e-06
-4.2237e-06
-4.29228e-06
-4.36717e-06
-4.45027e-06
-4.54345e-06
-4.64849e-06
-4.76709e-06
-4.90085e-06
-5.05126e-06
-5.21969e-06
-5.40736e-06
-5.61533e-06
-5.84453e-06
-6.09567e-06
-6.3693e-06
-6.66579e-06
-6.9853e-06
1.67762e-06
1.22463e-06
7.90147e-07
3.74854e-07
-2.06658e-08
-3.95948e-07
-7.50645e-07
-1.08453e-06
-1.39752e-06
-1.68962e-06
-1.961e-06
-2.21195e-06
-2.44286e-06
-2.65426e-06
-2.84682e-06
-3.02132e-06
-3.17866e-06
-3.31986e-06
-3.44614e-06
-3.55869e-06
-3.65926e-06
-3.74862e-06
-3.82838e-06
-3.90086e-06
-3.96759e-06
-4.03048e-06
-4.0916e-06
-4.15299e-06
-4.21667e-06
-4.28464e-06
-4.35889e-06
-4.44133e-06
-4.53386e-06
-4.63828e-06
-4.75632e-06
-4.88962e-06
-5.03972e-06
-5.20801e-06
-5.39576e-06
-5.60409e-06
-5.83392e-06
-6.08603e-06
-6.361e-06
-6.65919e-06
-6.98082e-06
1.6709e-06
1.21541e-06
7.78824e-07
3.61802e-07
-3.50676e-08
-4.11323e-07
-7.66626e-07
-1.10077e-06
-1.41367e-06
-1.70538e-06
-1.97609e-06
-2.22611e-06
-2.45587e-06
-2.66595e-06
-2.85705e-06
-3.02997e-06
-3.18568e-06
-3.32524e-06
-3.44987e-06