/*--------------------------------*- C++ -*----------------------------------*\
| =========                 |                                                 |
| \\      /  F ield         | OpenFOAM: The Open Source CFD Toolbox           |
|  \\    /   O peration     | Version:  2312                                  |
|   \\  /    A nd           | Website:  www.openfoam.com                      |
|    \\/     M anipulation  |                                                 |
\*---------------------------------------------------------------------------*/
FoamFile
{
    version     2.0;
    format      ascii;
    arch        "LSB;label=32;scalar=64";
    class       surfaceScalarField;
    location    "77";
    object      phi;
}
// * * * * * * * * * * * * * * * * * * * * * * * * * * * * * * * * * * * * * //

dimensions      [0 3 -1 0 0 0 0];

oriented        oriented;

internalField   nonuniform List<scalar> 
9445
(
5.75627e-10
9.56783e-12
5.71106e-10
4.52115e-12
5.69643e-10
1.46278e-12
5.7021e-10
-5.67237e-13
5.71891e-10
-1.68031e-12
5.74467e-10
-2.57601e-12
5.7788e-10
-3.41352e-12
5.8215e-10
-4.27017e-12
5.87404e-10
-5.25327e-12
5.94044e-10
-6.64075e-12
6.03206e-10
-9.16165e-12
6.18481e-10
-1.52746e-11
6.52518e-10
-3.4037e-11
7.49593e-10
-9.70754e-11
-2.48931e-10
9.98524e-10
2.0164e-09
4.15287e-11
2.00102e-09
1.99054e-11
1.99578e-09
6.7038e-12
1.99698e-09
-1.774e-12
2.00186e-09
-6.55199e-12
2.00973e-09
-1.04471e-11
2.02023e-09
-1.39163e-11
2.03335e-09
-1.73871e-11
2.04949e-09
-2.13925e-11
2.06984e-09
-2.69916e-11
2.09729e-09
-3.66118e-11
2.13876e-09
-5.67505e-11
2.20755e-09
-1.0282e-10
2.31602e-09
-2.05554e-10
-3.61559e-10
2.42865e-09
3.98986e-09
1.01974e-10
3.96033e-09
4.94328e-11
3.94975e-09
1.72893e-11
3.95094e-09
-2.96495e-12
3.95894e-09
-1.45485e-11
3.97254e-09
-2.40519e-11
3.99084e-09
-3.22183e-11
4.01357e-09
-4.01159e-11
4.04127e-09
-4.90864e-11
4.07544e-09
-6.11635e-11
4.11903e-09
-8.02094e-11
4.17674e-09
-1.14458e-10
4.25123e-09
-1.77312e-10
4.32872e-09
-2.83037e-10
-4.06485e-10
4.37364e-09
6.64288e-09
1.97522e-10
6.59544e-09
9.68651e-11
6.5774e-09
3.53326e-11
6.57746e-09
-3.02446e-12
6.58808e-09
-2.51639e-11
6.60728e-09
-4.32551e-11
6.63342e-09
-5.83571e-11
6.66561e-09
-7.231e-11
6.70416e-09
-8.76328e-11
6.75009e-09
-1.071e-10
6.80475e-09
-1.34867e-10
6.868e-09
-1.77709e-10
6.93353e-09
-2.42843e-10
6.98174e-09
-3.31238e-10
-4.16437e-10
6.99169e-09
1.01522e-08
3.34343e-10
1.00831e-08
1.65962e-10
1.00552e-08
6.32856e-11
1.00525e-08
-3.70073e-13
1.00649e-08
-3.75858e-11
1.0089e-08
-6.72876e-11
1.01221e-08
-9.15208e-11
1.01626e-08
-1.1278e-10
1.02099e-08
-1.34978e-10
1.0264e-08
-1.61156e-10
1.03237e-08
-1.94626e-10
1.03851e-08
-2.39037e-10
1.0438e-08
-2.95762e-10
1.04663e-08
-3.59571e-10
-4.11441e-10
1.04613e-08
1.47251e-08
5.15984e-10
1.46318e-08
2.5925e-10
1.45918e-08
1.03299e-10
1.45849e-08
6.59361e-12
1.45983e-08
-5.10628e-11
1.4626e-08
-9.49683e-11
1.46646e-08
-1.30083e-10
1.47112e-08
-1.59424e-10
1.47643e-08
-1.88085e-10
1.48222e-08
-2.19008e-10
1.48817e-08
-2.54157e-10
1.4937e-08
-2.94277e-10
1.49786e-08
-3.37407e-10
1.49966e-08
-3.77601e-10
-4.0422e-10
1.49894e-08
2.05966e-08
7.39398e-10
2.04802e-08
3.75645e-10
2.04281e-08
1.55361e-10
2.04162e-08
1.84917e-11
2.04302e-08
-6.5061e-11
2.04607e-08
-1.25487e-10
2.05029e-08
-1.72235e-10
2.05532e-08
-2.09782e-10
2.06088e-08
-2.43671e-10
2.06665e-08
-2.76671e-10
2.0722e-08
-3.09678e-10
2.07696e-08
-3.4189e-10
2.08029e-08
-3.70649e-10
2.08171e-08
-3.91865e-10
-4.00891e-10
2.08138e-08
2.80218e-08
9.89069e-10
2.78908e-08
5.06713e-10
2.78315e-08
2.14612e-10
2.78173e-08
3.26931e-11
2.78326e-08
-8.03909e-11
2.78661e-08
-1.58986e-10
2.79112e-08
-2.17257e-10
2.79635e-08
-2.62107e-10
2.80191e-08
-2.99292e-10
2.8074e-08
-3.3159e-10
2.81239e-08
-3.59595e-10
2.81645e-08
-3.82452e-10
2.81923e-08
-3.98443e-10
2.82062e-08
-4.05783e-10
-4.03269e-10
2.82086e-08
3.72672e-08
1.23108e-09
3.71416e-08
6.32346e-10
3.70879e-08
2.68283e-10
3.70796e-08
4.09819e-11
3.7101e-08
-1.01836e-10
3.71403e-08
-1.98194e-10
3.71896e-08
-2.66644e-10
3.72442e-08
-3.16694e-10
3.72996e-08
-3.54635e-10
3.73517e-08
-3.83673e-10
3.7397e-08
-4.04925e-10
3.7433e-08
-4.18451e-10
3.74585e-08
-4.23985e-10
3.74743e-08
-4.21556e-10
-4.11687e-10
3.74827e-08
4.86087e-08
1.41316e-09
4.85218e-08
7.1922e-10
4.84961e-08
2.94056e-10
4.85091e-08
2.79843e-11
4.85471e-08
-1.39838e-10
4.85991e-08
-2.50236e-10
4.86578e-08
-3.25372e-10
4.87182e-08
-3.77109e-10
4.87763e-08
-4.1265e-10
4.88287e-08
-4.36075e-10
4.88733e-08
-4.49541e-10
4.89091e-08
-4.54325e-10
4.89366e-08
-4.51422e-10
4.8957e-08
-4.41981e-10
-4.27275e-10
4.89726e-08
6.23604e-08
1.48036e-09
6.23509e-08
7.28638e-10
6.23807e-08
2.64285e-10
6.24352e-08
-2.64833e-11
6.25045e-08
-2.0917e-10
6.25804e-08
-3.26111e-10
6.26569e-08
-4.01905e-10
6.27301e-08
-4.50325e-10
6.27972e-08
-4.7968e-10
6.28562e-08
-4.95119e-10
6.29066e-08
-4.99902e-10
6.29486e-08
-4.96335e-10
6.29834e-08
-4.86228e-10
6.30127e-08
-4.71259e-10
-4.52923e-10
6.30383e-08
7.89493e-08
1.40796e-09
7.904e-08
6.37897e-10
7.91441e-08
1.60209e-10
7.92552e-08
-1.37536e-10
7.93678e-08
-3.21826e-10
7.94773e-08
-4.35555e-10
7.95799e-08
-5.04518e-10
7.96735e-08
-5.43911e-10
7.97569e-08
-5.63111e-10
7.983e-08
-5.68216e-10
7.98934e-08
-5.6331e-10
7.99484e-08
-5.51319e-10
7.99966e-08
-5.34427e-10
8.00398e-08
-5.14429e-10
-4.92756e-10
8.00796e-08
9.9003e-08
1.2265e-09
9.91779e-08
4.63001e-10
9.93481e-08
-9.95119e-12
9.9511e-08
-3.00441e-10
9.96646e-08
-4.75388e-10
9.98067e-08
-5.77696e-10
9.99359e-08
-6.33713e-10
1.00052e-07
-6.597e-10
1.00155e-07
-6.65938e-10
1.00245e-07
-6.5919e-10
1.00326e-07
-6.43989e-10
1.00398e-07
-6.235e-10
1.00464e-07
-5.99958e-10
1.00524e-07
-5.7504e-10
-5.49973e-10
1.00582e-07
1.2333e-07
1.00177e-09
1.2354e-07
2.53189e-10
1.2374e-07
-2.09353e-10
1.23926e-07
-4.86443e-10
1.24098e-07
-6.47707e-10
1.24256e-07
-7.35557e-10
1.24399e-07
-7.7679e-10
1.24528e-07
-7.88534e-10
1.24644e-07
-7.81777e-10
1.24748e-07
-7.63692e-10
1.24843e-07
-7.3899e-10
1.2493e-07
-7.10841e-10
1.25012e-07
-6.81375e-10
1.25089e-07
-6.52061e-10
-6.23884e-10
1.25163e-07
1.52715e-07
7.83881e-10
1.52916e-07
5.27881e-11
1.53104e-07
-3.97372e-10
1.53278e-07
-6.60973e-10
1.5344e-07
-8.09443e-10
1.53589e-07
-8.84634e-10
1.53726e-07
-9.13601e-10
1.53851e-07
-9.13979e-10
1.53967e-07
-8.97186e-10
1.54074e-07
-8.70596e-10
1.54174e-07
-8.38955e-10
1.54268e-07
-8.05345e-10
1.54358e-07
-7.71753e-10
1.54446e-07
-7.39446e-10
-7.09197e-10
1.54531e-07
1.87649e-07
5.82315e-10
1.87827e-07
-1.25172e-10
1.87985e-07
-5.55181e-10
1.8813e-07
-8.05546e-10
1.88263e-07
-9.4315e-10
1.88388e-07
-1.00906e-09
1.88504e-07
-1.02996e-09
1.88613e-07
-1.02345e-09
1.88717e-07
-1.00097e-09
1.88817e-07
-9.69857e-10
1.88912e-07
-9.34776e-10
1.89006e-07
-8.98692e-10
1.89097e-07
-8.63452e-10
1.89188e-07
-8.3016e-10
-7.9942e-10
1.89278e-07
2.2818e-07
3.825e-10
2.28339e-07
-2.84479e-10
2.2847e-07
-6.86292e-10
2.28585e-07
-9.20347e-10
2.28689e-07
-1.04752e-09
2.28787e-07
-1.10662e-09
2.2888e-07
-1.12312e-09
2.2897e-07
-1.11384e-09
2.29059e-07
-1.08976e-09
2.29147e-07
-1.05792e-09
2.29235e-07
-1.02277e-09
2.29324e-07
-9.87103e-10
2.29413e-07
-9.52636e-10
2.29503e-07
-9.20354e-10
-8.9075e-10
2.29594e-07
2.7379e-07
1.74298e-10
2.73938e-07
-4.32832e-10
2.7405e-07
-7.97895e-10
2.74142e-07
-1.01218e-09
2.74223e-07
-1.12884e-09
2.74299e-07
-1.18309e-09
2.74374e-07
-1.19818e-09
2.7445e-07
-1.18946e-09
2.74527e-07
-1.16719e-09
2.74607e-07
-1.13776e-09
2.7469e-07
-1.10532e-09
2.74775e-07
-1.07246e-09
2.74863e-07
-1.04073e-09
2.74954e-07
-1.01104e-09
-9.8377e-10
2.75047e-07
3.23091e-07
-4.88824e-11
3.23235e-07
-5.7648e-10
3.23336e-07
-8.99122e-10
3.23414e-07
-1.0902e-09
3.2348e-07
-1.19494e-09
3.23541e-07
-1.24423e-09
3.23602e-07
-1.25884e-09
3.23665e-07
-1.25231e-09
3.23731e-07
-1.23343e-09
3.23801e-07
-1.20803e-09
3.23876e-07
-1.17976e-09
3.23954e-07
-1.15095e-09
3.24037e-07
-1.12297e-09
3.24122e-07
-1.09661e-09
-1.07209e-09
3.2421e-07
3.73184e-07
-2.7009e-10
3.73299e-07
-6.91477e-10
3.73356e-07
-9.56935e-10
3.73383e-07
-1.11719e-09
3.73396e-07
-1.20768e-09
3.73405e-07
-1.25274e-09
3.73415e-07
-1.26942e-09
3.73431e-07
-1.26817e-09
3.73454e-07
-1.25597e-09
3.73483e-07
-1.23778e-09
3.7352e-07
-1.21668e-09
3.73564e-07
-1.19459e-09
3.73614e-07
-1.17265e-09
3.73668e-07
-1.15151e-09
-1.13157e-09
3.73728e-07
3.71289e-07
-4.56182e-10
3.71381e-07
-7.84011e-10
3.7142e-07
-9.95925e-10
3.71431e-07
-1.12776e-09
3.71428e-07
-1.20478e-09
3.71421e-07
-1.24576e-09
3.71415e-07
-1.26349e-09
3.71413e-07
-1.26638e-09
3.71417e-07
-1.26001e-09
3.71427e-07
-1.24814e-09
3.71444e-07
-1.23321e-09
3.71466e-07
-1.21675e-09
3.71493e-07
-1.19971e-09
3.71524e-07
-1.18262e-09
-1.16574e-09
3.71558e-07
3.18449e-07
-5.3449e-10
3.18463e-07
-7.97266e-10
3.18439e-07
-9.71941e-10
3.18395e-07
-1.08459e-09
3.18345e-07
-1.15436e-09
3.18294e-07
-1.19502e-09
3.18247e-07
-1.21626e-09
3.18205e-07
-1.22461e-09
3.1817e-07
-1.22458e-09
3.18141e-07
-1.21913e-09
3.18118e-07
-1.21022e-09
3.181e-07
-1.19911e-09
3.18087e-07
-1.18655e-09
3.18077e-07
-1.173e-09
-1.15871e-09
3.1807e-07
2.67265e-07
-5.86836e-10
2.6726e-07
-7.92225e-10
2.6722e-07
-9.3277e-10
2.67162e-07
-1.02662e-09
2.67096e-07
-1.08763e-09
2.67027e-07
-1.12583e-09
2.66959e-07
-1.14825e-09
2.66894e-07
-1.15982e-09
2.66833e-07
-1.16392e-09
2.66777e-07
-1.16282e-09
2.66725e-07
-1.15805e-09
2.66676e-07
-1.15058e-09
2.66631e-07
-1.141e-09
2.66587e-07
-1.12967e-09
-1.11681e-09
2.66545e-07
2.20666e-07
-6.01996e-10
2.20635e-07
-7.61195e-10
2.20575e-07
-8.73183e-10
2.20499e-07
-9.50429e-10
2.20414e-07
-1.00286e-09
2.20326e-07
-1.03757e-09
2.20238e-07
-1.05963e-09
2.2015e-07
-1.07261e-09
2.20065e-07
-1.079e-09
2.19983e-07
-1.08051e-09
2.19903e-07
-1.07827e-09
2.19826e-07
-1.07303e-09
2.1975e-07
-1.06525e-09
2.19675e-07
-1.05519e-09
-1.04301e-09
2.19602e-07
1.79744e-07
-5.78367e-10
1.79684e-07
-7.01187e-10
1.79601e-07
-7.89925e-10
1.79504e-07
-8.5318e-10
1.79399e-07
-8.97888e-10
1.7929e-07
-9.28982e-10
1.79181e-07
-9.49993e-10
1.79071e-07
-9.63438e-10
1.78964e-07
-9.71106e-10
1.78857e-07
-9.74245e-10
1.78753e-07
-9.73691e-10
1.7865e-07
-9.69997e-10
1.78548e-07
-9.63496e-10
1.78447e-07
-9.544e-10
-9.42819e-10
1.78347e-07
1.44666e-07
-5.21231e-10
1.44581e-07
-6.16169e-10
1.44478e-07
-6.86723e-10
1.44364e-07
-7.38814e-10
1.44243e-07
-7.77164e-10
1.44119e-07
-8.0509e-10
1.43994e-07
-8.24981e-10
1.43869e-07
-8.3858e-10
1.43745e-07
-8.47148e-10
1.43623e-07
-8.51573e-10
1.43501e-07
-8.52454e-10
1.43381e-07
-8.50191e-10
1.43263e-07
-8.45031e-10
1.43146e-07
-8.37142e-10
-8.26611e-10
1.4303e-07
1.15151e-07
-4.43117e-10
1.15052e-07
-5.17172e-10
1.14939e-07
-5.73881e-10
1.14817e-07
-6.17351e-10
1.14691e-07
-6.5067e-10
1.14562e-07
-6.75987e-10
1.14432e-07
-6.94892e-10
1.14302e-07
-7.08577e-10
1.14172e-07
-7.17915e-10
1.14044e-07
-7.23524e-10
1.13918e-07
-7.25825e-10
1.13793e-07
-7.25106e-10
1.13669e-07
-7.21548e-10
1.13547e-07
-7.15286e-10
-7.06392e-10
1.13427e-07
9.07062e-08
-3.58594e-10
9.0606e-08
-4.16944e-10
9.04951e-08
-4.63031e-10
9.03775e-08
-4.99713e-10
9.02557e-08
-5.28889e-10
9.01316e-08
-5.51911e-10
9.00066e-08
-5.69828e-10
8.98814e-08
-5.83443e-10
8.97569e-08
-5.93347e-10
8.96333e-08
-5.99958e-10
8.9511e-08
-6.03568e-10
8.93903e-08
-6.04381e-10
8.92713e-08
-6.0253e-10
8.91541e-08
-5.9812e-10
-5.91211e-10
8.90389e-08
7.07385e-08
-2.78793e-10
7.06465e-08
-3.24944e-10
7.0546e-08
-3.62543e-10
7.04398e-08
-3.9353e-10
7.03299e-08
-4.18966e-10
7.02176e-08
-4.39684e-10
7.01042e-08
-4.56372e-10
6.99903e-08
-4.69557e-10
6.98766e-08
-4.79628e-10
6.97635e-08
-4.8686e-10
6.96514e-08
-4.91451e-10
6.95405e-08
-4.93542e-10
6.94312e-08
-4.93229e-10
6.93237e-08
-4.90595e-10
-4.85686e-10
6.92182e-08
5.46145e-08
-2.0961e-10
5.45354e-08
-2.45887e-10
5.44492e-08
-2.7636e-10
5.43579e-08
-3.0223e-10
5.4263e-08
-3.24013e-10
5.41655e-08
-3.4222e-10
5.40664e-08
-3.57296e-10
5.39664e-08
-3.69573e-10
5.38661e-08
-3.79296e-10
5.37659e-08
-3.86642e-10
5.36662e-08
-3.91741e-10
5.35673e-08
-3.94687e-10
5.34696e-08
-3.95548e-10
5.33734e-08
-3.94386e-10
-3.91231e-10
5.3279e-08
4.17164e-08
-1.52805e-10
4.16514e-08
-1.8086e-10
4.15801e-08
-2.05136e-10
4.15042e-08
-2.26235e-10
4.14245e-08
-2.4436e-10
4.13421e-08
-2.59831e-10
4.12577e-08
-2.72924e-10
4.1172e-08
-2.83836e-10
4.10854e-08
-2.92717e-10
4.09985e-08
-2.99673e-10
4.09115e-08
-3.04787e-10
4.08249e-08
-3.08121e-10
4.07391e-08
-3.09718e-10
4.06543e-08
-3.0962e-10
-3.07844e-10
4.0571e-08
3.14795e-08
-1.07846e-10
3.14277e-08
-1.29008e-10
3.13704e-08
-1.4783e-10
3.13086e-08
-1.64476e-10
3.12433e-08
-1.79007e-10
3.11751e-08
-1.91625e-10
3.11046e-08
-2.02488e-10
3.10325e-08
-2.11708e-10
3.09592e-08
-2.1937e-10
3.0885e-08
-2.25535e-10
3.08105e-08
-2.30253e-10
3.07359e-08
-2.33558e-10
3.06617e-08
-2.3548e-10
3.05881e-08
-2.3604e-10
-2.35245e-10
3.05155e-08
2.34113e-08
-7.32927e-11
2.3371e-08
-8.87368e-11
2.3326e-08
-1.02802e-10
2.32769e-08
-1.15393e-10
2.32244e-08
-1.26529e-10
2.31691e-08
-1.36336e-10
2.31116e-08
-1.44898e-10
2.30521e-08
-1.52273e-10
2.29913e-08
-1.58504e-10
2.29293e-08
-1.63623e-10
2.28667e-08
-1.67657e-10
2.28038e-08
-1.70625e-10
2.27409e-08
-1.7254e-10
2.26782e-08
-1.73413e-10
-1.73242e-10
2.26162e-08
1.70951e-08
-4.75038e-11
1.70647e-08
-5.83125e-11
1.70302e-08
-6.83259e-11
1.69922e-08
-7.73601e-11
1.69511e-08
-8.5441e-11
1.69074e-08
-9.26419e-11
1.68615e-08
-9.90032e-11
1.68138e-08
-1.0455e-10
1.67646e-08
-1.09302e-10
1.67142e-08
-1.13271e-10
1.6663e-08
-1.16471e-10
1.66113e-08
-1.18908e-10
1.65593e-08
-1.2059e-10
1.65074e-08
-1.21516e-10
-1.21681e-10
1.64559e-08
1.21853e-08
-2.89288e-11
1.21631e-08
-3.60799e-11
1.21375e-08
-4.27623e-11
1.2109e-08
-4.88211e-11
1.20778e-08
-5.42947e-11
1.20444e-08
-5.92226e-11
1.2009e-08
-6.36205e-11
1.1972e-08
-6.74961e-11
1.19335e-08
-7.0855e-11
1.1894e-08
-7.37001e-11
1.18535e-08
-7.60357e-11
1.18125e-08
-7.78629e-11
1.17711e-08
-7.9184e-11
1.17296e-08
-7.99935e-11
-8.02828e-11
1.16882e-08
8.39865e-09
-1.61408e-11
8.38309e-09
-2.05176e-11
8.36492e-09
-2.45913e-11
8.34439e-09
-2.82965e-11
8.32177e-09
-3.16747e-11
8.29729e-09
-3.47444e-11
8.27118e-09
-3.7509e-11
8.24366e-09
-3.99683e-11
8.21492e-09
-4.21214e-11
8.18519e-09
-4.39669e-11
8.15466e-09
-4.55049e-11
8.12353e-09
-4.67338e-11
8.092e-09
-4.76538e-11
8.06026e-09
-4.8258e-11
-4.85359e-11
8.02852e-09
5.50443e-09
-7.87701e-12
5.49417e-09
-1.02543e-11
5.48199e-09
-1.24163e-11
5.46809e-09
-1.43877e-11
5.45261e-09
-1.62016e-11
5.43573e-09
-1.78645e-11
5.4176e-09
-1.9375e-11
5.39836e-09
-2.07302e-11
5.37817e-09
-2.19275e-11
5.35716e-09
-2.29643e-11
5.3355e-09
-2.38393e-11
5.31331e-09
-2.45505e-11
5.29076e-09
-2.50975e-11
5.26797e-09
-2.54744e-11
-2.567e-11
5.24511e-09
3.31593e-09
-3.03458e-12
3.30975e-09
-4.07858e-12
3.30231e-09
-4.97375e-12
3.29372e-09
-5.79393e-12
3.28407e-09
-6.55693e-12
3.27347e-09
-7.26315e-12
3.26201e-09
-7.91023e-12
3.24977e-09
-8.49549e-12
3.23686e-09
-9.01679e-12
3.22337e-09
-9.47205e-12
3.20939e-09
-9.86029e-12
3.19502e-09
-1.01799e-11
3.18035e-09
-1.04307e-11
3.16549e-09
-1.06089e-11
-1.07052e-11
3.15052e-09
1.68257e-09
-6.70102e-13
1.67944e-09
-9.50198e-13
1.67562e-09
-1.15189e-12
1.67116e-09
-1.34071e-12
1.66613e-09
-1.52031e-12
1.66055e-09
-1.68909e-12
1.65449e-09
-1.84543e-12
1.64798e-09
-1.98794e-12
1.64108e-09
-2.11567e-12
1.63383e-09
-2.22774e-12
1.6263e-09
-2.32383e-12
1.61852e-09
-2.40337e-12
1.61056e-09
-2.46628e-12
1.60246e-09
-2.51119e-12
-2.53263e-12
1.59429e-09
4.83397e-10
4.82447e-10
4.81295e-10
4.79954e-10
4.78434e-10
4.76745e-10
4.749e-10
4.72912e-10
4.70796e-10
4.68568e-10
4.66244e-10
4.63841e-10
4.61375e-10
4.58864e-10
4.56331e-10
1.19723e-09
-4.60042e-10
2.61337e-10
1.48395e-09
-3.62006e-10
7.52889e-11
1.77513e-09
-1.9585e-10
-9.53362e-11
2.06429e-09
-2.58099e-11
-2.63351e-10
2.34924e-09
1.42262e-10
-4.27204e-10
2.63052e-09
2.99408e-10
-5.80692e-10
2.90934e-09
4.41982e-10
-7.20803e-10
3.18658e-09
5.66419e-10
-8.43658e-10
3.46289e-09
6.68606e-10
-9.44919e-10
3.73873e-09
7.43998e-10
-1.01984e-09
4.01442e-09
7.87363e-10
-1.06305e-09
4.29018e-09
7.92639e-10
-1.0684e-09
4.56615e-09
7.52984e-10
-1.02896e-09
4.84238e-09
6.61188e-10
-9.37411e-10
5.11881e-09
5.10875e-10
-7.87314e-10
5.39563e-09
2.9869e-10
-5.75509e-10
5.67342e-09
2.81487e-11
-3.05933e-10
5.95404e-09
-2.84307e-10
3.68172e-12
6.24132e-09
-6.07444e-10
3.20168e-10
6.54167e-09
-8.87264e-10
5.8691e-10
6.86333e-09
-1.06582e-09
7.44165e-10
7.21247e-09
-1.09905e-09
7.49908e-10
7.53469e-09
-9.01408e-10
5.79192e-10
7.80411e-09
-7.55414e-10
4.85995e-10
8.01761e-09
-7.45223e-10
5.31715e-10
8.17584e-09
-8.36824e-10
6.78601e-10
8.28113e-09
-9.87728e-10
8.82432e-10
8.33681e-09
-1.17376e-09
1.11808e-09
8.34538e-09
-1.37682e-09
1.36825e-09
8.3076e-09
-1.56354e-09
1.60133e-09
8.22481e-09
-1.72287e-09
1.80566e-09
8.09932e-09
-1.84142e-09
1.96691e-09
7.93267e-09
-1.88396e-09
2.05061e-09
7.72709e-09
-1.83532e-09
2.04089e-09
7.48544e-09
-1.68406e-09
1.92571e-09
7.21062e-09
-1.42349e-09
1.69831e-09
6.90538e-09
-1.05113e-09
1.35636e-09
6.57231e-09
-5.65879e-10
8.98956e-10
6.21404e-09
3.55104e-11
3.22758e-10
5.83262e-09
7.60933e-10
-3.79509e-10
5.4257e-09
1.61547e-09
-1.20856e-09
4.97864e-09
2.57356e-09
-2.1265e-09
4.46263e-09
3.50434e-09
-2.98832e-09
3.88255e-09
4.08408e-09
-3.504e-09
3.54021e-09
3.5263e-09
-3.18396e-09
2.50841e-09
-5.39805e-10
2.68268e-09
-5.3627e-10
2.92e-09
-4.33174e-10
3.18653e-09
-2.92334e-10
3.46782e-09
-1.39029e-10
3.75634e-09
1.0887e-11
4.04891e-09
1.49407e-10
4.34405e-09
2.71283e-10
4.64104e-09
3.71619e-10
4.93948e-09
4.45552e-10
5.23914e-09
4.87703e-10
5.53984e-09
4.91945e-10
5.84136e-09
4.51461e-10
6.14343e-09
3.59115e-10
6.44569e-09
2.08619e-10
6.74791e-09
-3.53111e-12
7.05034e-09
-2.7428e-10
7.35435e-09
-5.88319e-10
7.6635e-09
-9.16589e-10
7.98407e-09
-1.20784e-09
8.32448e-09
-1.40624e-09
8.69155e-09
-1.46612e-09
9.02964e-09
-1.23949e-09
9.31281e-09
-1.03859e-09
9.53811e-09
-9.70523e-10
9.70604e-09
-1.00475e-09
9.81863e-09
-1.10033e-09
9.87912e-09
-1.23425e-09
9.8898e-09
-1.3875e-09
9.85157e-09
-1.52531e-09
9.76604e-09
-1.63734e-09
9.63591e-09
-1.71129e-09
9.46328e-09
-1.71133e-09
9.25134e-09
-1.62338e-09
9.00422e-09
-1.43694e-09
8.72663e-09
-1.1459e-09
8.42387e-09
-7.48365e-10
8.10235e-09
-2.44365e-10
7.77098e-09
3.66884e-10
7.44305e-09
1.08886e-09
7.13742e-09
1.9211e-09
6.87751e-09
2.83347e-09
6.69182e-09
3.69003e-09
6.61256e-09
4.16334e-09
3.6501e-09
6.50266e-09
4.39122e-09
-5.57381e-10
4.47227e-09
-6.17322e-10
4.62905e-09
-5.89954e-10
4.84243e-09
-5.05712e-10
5.09225e-09
-3.8885e-10
5.36549e-09
-2.62353e-10
5.65415e-09
-1.39249e-10
5.95337e-09
-2.79418e-11
6.26016e-09
6.48273e-11
6.57258e-09
1.33139e-10
6.88927e-09
1.7101e-10
7.20925e-09
1.7196e-10
7.53169e-09
1.2903e-10
7.85571e-09
3.50872e-11
8.18042e-09
-1.16084e-10
8.50501e-09
-3.28127e-10
8.82913e-09
-5.98398e-10
9.15351e-09
-9.12702e-10
9.48111e-09
-1.24419e-09
9.81785e-09
-1.54457e-09
1.01721e-08
-1.76045e-09
1.0551e-08
-1.84507e-09
1.0899e-08
-1.58748e-09
1.11908e-08
-1.33034e-09
1.14236e-08
-1.20336e-09
1.15979e-08
-1.17907e-09
1.17153e-08
-1.21772e-09
1.17788e-08
-1.29777e-09
1.17903e-08
-1.39896e-09
1.17511e-08
-1.48615e-09
1.16633e-08
-1.54951e-09
1.15294e-08
-1.57739e-09
1.13526e-08
-1.53451e-09
1.11372e-08
-1.408e-09
1.0889e-08
-1.1887e-09
1.06148e-08
-8.71705e-10
1.0323e-08
-4.56584e-10
1.00245e-08
5.41509e-11
9.73475e-09
6.566e-10
9.47777e-09
1.34584e-09
9.28932e-09
2.10955e-09
9.21576e-09
2.90703e-09
9.29378e-09
3.61201e-09
9.47412e-09
3.98299e-09
3.59291e-09
9.53132e-09
6.97543e-09
-5.41123e-10
6.99427e-09
-6.36165e-10
7.07088e-09
-6.66564e-10
7.21207e-09
-6.46899e-10
7.40581e-09
-5.82593e-10
7.63883e-09
-4.95374e-10
7.90099e-09
-4.01407e-10
8.18475e-09
-3.11705e-10
8.48472e-09
-2.35143e-10
8.797e-09
-1.79142e-10
9.11873e-09
-1.50716e-10
9.44772e-09
-1.57032e-10
9.78215e-09
-2.054e-10
1.01203e-08
-3.03067e-10
1.04604e-08
-4.56226e-10
1.0801e-08
-6.68662e-10
1.11407e-08
-9.38079e-10
1.14793e-08
-1.25136e-09
1.1819e-08
-1.5839e-09
1.2165e-08
-1.8905e-09
1.2525e-08
-2.12049e-09
1.29066e-08
-2.2267e-09
1.32556e-08
-1.93646e-09
1.35481e-08
-1.62284e-09
1.37819e-08
-1.43715e-09
1.39573e-08
-1.35442e-09
1.40753e-08
-1.33573e-09
1.41386e-08
-1.36108e-09
1.41485e-08
-1.40893e-09
1.4107e-08
-1.44465e-09
1.40171e-08
-1.45959e-09
1.38802e-08
-1.44049e-09
1.37011e-08
-1.35536e-09
1.34855e-08
-1.19244e-09
1.3241e-08
-9.44228e-10
1.2977e-08
-6.07659e-10
1.2705e-08
-1.84594e-10
1.24402e-08
3.19e-10
1.22034e-08
8.93326e-10
1.20251e-08
1.52418e-09
1.19469e-08
2.18769e-09
1.20157e-08
2.83831e-09
1.22514e-08
3.37623e-09
1.25959e-08
3.63853e-09
3.39866e-09
1.27902e-08
1.04322e-08
-5.11997e-10
1.0415e-08
-6.18938e-10
1.0433e-08
-6.84545e-10
1.05e-08
-7.13917e-10
1.06238e-08
-7.06381e-10
1.07964e-08
-6.68035e-10
1.10094e-08
-6.14379e-10
1.12552e-08
-5.57463e-10
1.15272e-08
-5.07162e-10
1.18201e-08
-4.72016e-10
1.21294e-08
-4.60094e-10
1.24518e-08
-4.7941e-10
1.27842e-08
-5.3776e-10
1.31237e-08
-6.4259e-10
1.34676e-08
-8.00115e-10
1.38132e-08
-1.01426e-09
1.41581e-08
-1.28299e-09
1.45009e-08
-1.59419e-09
1.48425e-08
-1.92551e-09
1.5187e-08
-2.23493e-09
1.55412e-08
-2.4747e-09
1.59124e-08
-2.59792e-09
1.62498e-08
-2.27385e-09
1.65319e-08
-1.90496e-09
1.6757e-08
-1.66231e-09
1.69254e-08
-1.5228e-09
1.70376e-08
-1.44793e-09
1.70953e-08
-1.41874e-09
1.71001e-08
-1.41369e-09
1.70537e-08
-1.3983e-09
1.69612e-08
-1.36708e-09
1.68217e-08
-1.30095e-09
1.66418e-08
-1.17548e-09
1.64293e-08
-9.7995e-10
1.61935e-08
-7.08463e-10
1.59462e-08
-3.60338e-10
1.57019e-08
5.97259e-11
1.54789e-08
5.42009e-10
1.5301e-08
1.07123e-09
1.51991e-08
1.62609e-09
1.52106e-08
2.17617e-09
1.53708e-08
2.67805e-09
1.5685e-08
3.06206e-09
1.60877e-08
3.23588e-09
3.10149e-09
1.63848e-08
1.49612e-08
-4.83839e-10
1.49281e-08
-5.85829e-10
1.49135e-08
-6.6988e-10
1.49278e-08
-7.28197e-10
1.49839e-08
-7.62478e-10
1.50882e-08
-7.72431e-10
1.52371e-08
-7.63225e-10
1.54256e-08
-7.45981e-10
1.56486e-08
-7.30118e-10
1.59005e-08
-7.2399e-10
1.61766e-08
-7.36112e-10
1.64722e-08
-7.75083e-10
1.67835e-08
-8.49046e-10
1.71065e-08
-9.65574e-10
1.74372e-08
-1.13085e-09
1.77719e-08
-1.34888e-09
1.81066e-08
-1.61776e-09
1.84386e-08
-1.92619e-09
1.87672e-08
-2.25411e-09
1.90949e-08
-2.56259e-09
1.94271e-08
-2.80692e-09
1.97703e-08
-2.9411e-09
2.00794e-08
-2.58292e-09
2.03362e-08
-2.16177e-09
2.05396e-08
-1.86579e-09
2.06899e-08
-1.673e-09
2.0787e-08
-1.54506e-09
2.08303e-08
-1.46206e-09
2.0824e-08
-1.40742e-09
2.07709e-08
-1.34521e-09
2.06729e-08
-1.26906e-09
2.05297e-08
-1.15772e-09
2.03501e-08
-9.95862e-10
2.01433e-08
-7.73205e-10
1.99205e-08
-4.85664e-10
1.96954e-08
-1.35204e-10
1.94844e-08
2.70672e-10
1.93076e-08
7.1888e-10
1.91882e-08
1.19061e-09
1.91529e-08
1.66139e-09
1.92286e-08
2.10045e-09
1.94348e-08
2.47188e-09
1.97643e-08
2.73259e-09
2.01613e-08
2.83879e-09
2.75667e-09
2.05062e-08
2.0794e-08
-4.64011e-10
2.0763e-08
-5.54899e-10
2.07345e-08
-6.41348e-10
2.07221e-08
-7.15755e-10
2.07335e-08
-7.73942e-10
2.07788e-08
-8.17745e-10
2.08636e-08
-8.4797e-10
2.09874e-08
-8.6976e-10
2.11479e-08
-8.90672e-10
2.13418e-08
-9.1784e-10
2.15649e-08
-9.59219e-10
2.18131e-08
-1.0233e-09
2.20821e-08
-1.11805e-09
2.23673e-08
-1.25081e-09
2.2664e-08
-1.42749e-09
2.29671e-08
-1.65198e-09
2.32715e-08
-1.92222e-09
2.35729e-08
-2.22751e-09
2.38687e-08
-2.54996e-09
2.41597e-08
-2.85356e-09
2.44492e-08
-3.09644e-09
2.47422e-08
-3.2341e-09
2.5002e-08
-2.84275e-09
2.52148e-08
-2.37453e-09
2.53799e-08
-2.03091e-09
2.54973e-08
-1.79041e-09
2.55664e-08
-1.61417e-09
2.55854e-08
-1.48101e-09
2.55595e-08
-1.38151e-09
2.54945e-08
-1.28027e-09
2.53855e-08
-1.16007e-09
2.52362e-08
-1.0084e-09
2.50568e-08
-8.16402e-10
2.48573e-08
-5.73709e-10
2.46502e-08
-2.78578e-10
2.44505e-08
6.44997e-11
2.42754e-08
4.45758e-10
2.41442e-08
8.50055e-10
2.40772e-08
1.2576e-09
2.40939e-08
1.64474e-09
2.42092e-08
1.98515e-09
2.44282e-08
2.25282e-09
2.47368e-08
2.42399e-09
2.50935e-08
2.48214e-09
2.42201e-09
2.54281e-08
2.81992e-08
-4.54623e-10
2.81788e-08
-5.34517e-10
2.81538e-08
-6.16339e-10
2.81329e-08
-6.94812e-10
2.81252e-08
-7.66304e-10
2.81365e-08
-8.29028e-10
2.81732e-08
-8.84643e-10
2.82413e-08
-9.37844e-10
2.83413e-08
-9.90746e-10
2.84723e-08
-1.04879e-09
2.86324e-08
-1.11932e-09
2.8819e-08
-1.20988e-09
2.90285e-08
-1.32758e-09
2.92566e-08
-1.47895e-09
2.94984e-08
-1.66923e-09
2.97482e-08
-1.90184e-09
3e-08
-2.17402e-09
3.02479e-08
-2.47539e-09
3.0488e-08
-2.79007e-09
3.07189e-08
-3.08449e-09
3.09417e-08
-3.31917e-09
3.1159e-08
-3.45144e-09
3.13457e-08
-3.02945e-09
3.14928e-08
-2.52165e-09
3.16001e-08
-2.13817e-09
3.16671e-08
-1.85739e-09
3.16903e-08
-1.63737e-09
3.16757e-08
-1.46643e-09
3.16229e-08
-1.32872e-09
3.15313e-08
-1.18863e-09
3.14032e-08
-1.03199e-09
3.12449e-08
-8.50141e-10
3.10638e-08
-6.35318e-10
3.08712e-08
-3.81017e-10
3.06801e-08
-8.75582e-11
3.05059e-08
2.38722e-10
3.0365e-08
5.86639e-10
3.02742e-08
9.40893e-10
3.02487e-08
1.28306e-09
3.03003e-08
1.59314e-09
3.0434e-08
1.85149e-09
3.06453e-08
2.04152e-09
3.09173e-08
2.15195e-09
3.122e-08
2.17952e-09
2.12959e-09
3.15124e-08
3.74833e-08
-4.55184e-10
3.74753e-08
-5.26572e-10
3.74615e-08
-6.02529e-10
3.74466e-08
-6.79887e-10
3.74362e-08
-7.55933e-10
3.7437e-08
-8.29814e-10
3.74514e-08
-8.99025e-10
3.74849e-08
-9.71379e-10
3.75414e-08
-1.04721e-09
3.76213e-08
-1.12864e-09
3.77242e-08
-1.22224e-09
3.78493e-08
-1.33503e-09
3.79944e-08
-1.47268e-09
3.81561e-08
-1.64057e-09
3.83297e-08
-1.84291e-09
3.85102e-08
-2.08229e-09
3.86907e-08
-2.35455e-09
3.88647e-08
-2.64942e-09
3.90274e-08
-2.95275e-09
3.91757e-08
-3.23275e-09
3.93078e-08
-3.4513e-09
3.94243e-08
-3.56792e-09
3.9514e-08
-3.11919e-09
3.95737e-08
-2.58136e-09
3.96031e-08
-2.16757e-09
3.95994e-08
-1.8536e-09
3.95654e-08
-1.60338e-09
3.95025e-08
-1.40355e-09
3.94039e-08
-1.23009e-09
3.92752e-08
-1.05995e-09
3.91214e-08
-8.78253e-10
3.89472e-08
-6.75888e-10
3.876e-08
-4.48143e-10
3.85711e-08
-1.92086e-10
3.83933e-08
9.02369e-11
3.82409e-08
3.91118e-10
3.81281e-08
6.99383e-10
3.80679e-08
1.00113e-09
3.807e-08
1.281e-09
3.81392e-08
1.52392e-09
3.82738e-08
1.71684e-09
3.84647e-08
1.85063e-09
3.86953e-08
1.92136e-09
3.89435e-08
1.93131e-09
1.88829e-09
3.91848e-08
4.89831e-08
-4.65646e-10
4.89876e-08
-5.31118e-10
4.89873e-08
-6.02222e-10
4.89846e-08
-6.77235e-10
4.89832e-08
-7.54457e-10
4.89864e-08
-8.33038e-10
4.89992e-08
-9.11841e-10
4.90219e-08
-9.94025e-10
4.90571e-08
-1.08249e-09
4.91075e-08
-1.17903e-09
4.91734e-08
-1.28812e-09
4.92535e-08
-1.41518e-09
4.93461e-08
-1.56526e-09
4.94483e-08
-1.74277e-09
4.95563e-08
-1.95091e-09
4.96652e-08
-2.19121e-09
4.97681e-08
-2.45739e-09
4.98585e-08
-2.73987e-09
4.99315e-08
-3.02567e-09
4.99825e-08
-3.28377e-09
5.00074e-08
-3.47624e-09
5.00048e-08
-3.56527e-09
4.99797e-08
-3.09409e-09
4.99351e-08
-2.5368e-09
4.98701e-08
-2.10255e-09
4.97831e-08
-1.76661e-09
4.96755e-08
-1.49583e-09
4.95454e-08
-1.27342e-09
4.93917e-08
-1.07641e-09
4.9218e-08
-8.86207e-10
4.9029e-08
-6.89228e-10
4.88307e-08
-4.77638e-10
4.8631e-08
-2.48427e-10
4.84403e-08
-1.33635e-12
4.82697e-08
2.60795e-10
4.81318e-08
5.28991e-10
4.80374e-08
7.93788e-10
4.7995e-08
1.04359e-09
4.80091e-08
1.26683e-09
4.80798e-08
1.45326e-09
4.82014e-08
1.59521e-09
4.83635e-08
1.68857e-09
4.85515e-08
1.73331e-09
4.87493e-08
1.7335e-09
1.69642e-09
4.89412e-08
6.30606e-08
-4.87947e-10
6.30791e-08
-5.49562e-10
6.30941e-08
-6.17218e-10
6.31069e-08
-6.90129e-10
6.31199e-08
-7.67417e-10
6.31353e-08
-8.4847e-10
6.31566e-08
-9.33084e-10
6.31833e-08
-1.02074e-09
6.32172e-08
-1.11641e-09
6.32602e-08
-1.22204e-09
6.33121e-08
-1.33997e-09
6.33708e-08
-1.4739e-09
6.3434e-08
-1.62842e-09
6.34982e-08
-1.80703e-09
6.35595e-08
-2.01223e-09
6.36125e-08
-2.24419e-09
6.36494e-08
-2.49427e-09
6.36646e-08
-2.75512e-09
6.36538e-08
-3.01481e-09
6.36097e-08
-3.23973e-09
6.35271e-08
-3.39358e-09
6.34032e-08
-3.44135e-09
6.32597e-08
-2.95059e-09
6.3106e-08
-2.38316e-09
6.29409e-08
-1.93739e-09
6.27629e-08
-1.58866e-09
6.25734e-08
-1.30636e-09
6.23705e-08
-1.07046e-09
6.21548e-08
-8.60746e-10
6.19296e-08
-6.61004e-10
6.16997e-08
-4.59323e-10
6.14717e-08
-2.49664e-10
6.12543e-08
-3.09577e-11
6.10546e-08
1.98347e-10
6.08842e-08
4.31169e-10
6.07516e-08
6.61651e-10
6.06639e-08
8.81467e-10
6.06255e-08
1.08198e-09
6.06371e-08
1.25525e-09
6.06953e-08
1.39501e-09
6.07932e-08
1.49737e-09
6.09205e-08
1.56121e-09
6.10656e-08
1.58823e-09
6.12165e-08
1.58265e-09
1.55037e-09
6.13625e-08
8.01172e-08
-5.25595e-10
8.01526e-08
-5.84933e-10
8.01858e-08
-6.50414e-10
8.02175e-08
-7.21816e-10
8.02489e-08
-7.98774e-10
8.02814e-08
-8.80983e-10
8.03168e-08
-9.68469e-10
8.03577e-08
-1.06164e-09
8.04035e-08
-1.16229e-09
8.04538e-08
-1.27229e-09
8.0508e-08
-1.39415e-09
8.05644e-08
-1.53036e-09
8.06199e-08
-1.68393e-09
8.06702e-08
-1.85733e-09
8.07102e-08
-2.05224e-09
8.07323e-08
-2.26626e-09
8.07287e-08
-2.49063e-09
8.06966e-08
-2.72302e-09
8.06272e-08
-2.94547e-09
8.05089e-08
-3.12139e-09
8.03399e-08
-3.22457e-09
8.01167e-08
-3.21814e-09
7.98729e-08
-2.70683e-09
7.96244e-08
-2.13465e-09
7.93706e-08
-1.68357e-09
7.91104e-08
-1.32844e-09
7.88449e-08
-1.04085e-09
7.8574e-08
-7.99599e-10
7.82997e-08
-5.86466e-10
7.80257e-08
-3.86975e-10
7.77568e-08
-1.90483e-10
7.75008e-08
6.39186e-12
7.72627e-08
2.07154e-10
7.70524e-08
4.08614e-10
7.68767e-08
6.06921e-10
7.67414e-08
7.96858e-10
7.66506e-08
9.72365e-10
7.66049e-08
1.12759e-09
7.66026e-08
1.25761e-09
7.66386e-08
1.35902e-09
7.67056e-08
1.43028e-09
7.6795e-08
1.47184e-09
7.68973e-08
1.48591e-09
7.70038e-08
1.47617e-09
1.44717e-09
7.7107e-08
1.00638e-07
-5.81423e-10
1.00692e-07
-6.3967e-10
1.00746e-07
-7.04005e-10
1.00799e-07
-7.74533e-10
1.00851e-07
-8.5125e-10
1.00904e-07
-9.34148e-10
1.00959e-07
-1.0234e-09
1.01017e-07
-1.11943e-09
1.01078e-07
-1.22311e-09
1.01141e-07
-1.33565e-09
1.01206e-07
-1.45889e-09
1.0127e-07
-1.59442e-09
1.0133e-07
-1.74388e-09
1.01381e-07
-1.90852e-09
1.01417e-07
-2.08825e-09
1.01429e-07
-2.27868e-09
1.01413e-07
-2.47462e-09
1.01361e-07
-2.67103e-09
1.0126e-07
-2.8443e-09
1.01103e-07
-2.96423e-09
1.00887e-07
-3.00809e-09
1.00605e-07
-2.93606e-09
1.00299e-07
-2.40107e-09
9.99894e-08
-1.82517e-09
9.96769e-08
-1.37114e-09
9.93612e-08
-1.0127e-09
9.90436e-08
-7.23279e-10
9.87258e-08