/*--------------------------------*- C++ -*----------------------------------*\
| =========                 |                                                 |
| \\      /  F ield         | OpenFOAM: The Open Source CFD Toolbox           |
|  \\    /   O peration     | Version:  2312                                  |
|   \\  /    A nd           | Website:  www.openfoam.com                      |
|    \\/     M anipulation  |                                                 |
\*---------------------------------------------------------------------------*/
FoamFile
{
    version     2.0;
    format      ascii;
    arch        "LSB;label=32;scalar=64";
    class       volScalarField;
    location    "150";
    object      p;
}
// * * * * * * * * * * * * * * * * * * * * * * * * * * * * * * * * * * * * * //

dimensions      [0 2 -2 0 0 0 0];

internalField   nonuniform List<scalar> 
4800
(
6.51196e-12
-1.10974e-06
-1.98771e-06
-2.70559e-06
-3.30028e-06
-3.81523e-06
-4.26435e-06
-4.65784e-06
-5.00886e-06
-5.32662e-06
-5.61625e-06
-5.87824e-06
-6.10563e-06
-6.53495e-06
-8.09881e-06
1.38782e-08
-1.09543e-06
-1.97343e-06
-2.69183e-06
-3.2877e-06
-3.80439e-06
-4.25612e-06
-4.65316e-06
-5.00942e-06
-5.33607e-06
-5.64287e-06
-5.94337e-06
-6.25001e-06
-6.66863e-06
-7.43539e-06
2.81683e-08
-1.0805e-06
-1.95854e-06
-2.67765e-06
-3.27443e-06
-3.79183e-06
-4.24569e-06
-4.64566e-06
-5.00602e-06
-5.33891e-06
-5.65519e-06
-5.96898e-06
-6.28671e-06
-6.61469e-06
-6.92684e-06
4.22363e-08
-1.06527e-06
-1.9429e-06
-2.66222e-06
-3.25993e-06
-3.77668e-06
-4.23194e-06
-4.63354e-06
-4.99521e-06
-5.32876e-06
-5.64241e-06
-5.94177e-06
-6.21745e-06
-6.43728e-06
-6.53119e-06
5.7386e-08
-1.04833e-06
-1.92501e-06
-2.6438e-06
-3.24267e-06
-3.75706e-06
-4.21214e-06
-4.6135e-06
-4.9727e-06
-5.29988e-06
-5.59855e-06
-5.86495e-06
-6.07915e-06
-6.20243e-06
-6.18044e-06
7.5033e-08
-1.02826e-06
-1.90334e-06
-2.62072e-06
-3.21975e-06
-3.7315e-06
-4.18329e-06
-4.58118e-06
-4.93296e-06
-5.24575e-06
-5.51829e-06
-5.74072e-06
-5.89138e-06
-5.94069e-06
-5.86096e-06
9.75327e-08
-1.00278e-06
-1.87553e-06
-2.59052e-06
-3.18746e-06
-3.69631e-06
-4.14174e-06
-4.53128e-06
-4.86966e-06
-5.16023e-06
-5.39856e-06
-5.57337e-06
-5.66795e-06
-5.66688e-06
-5.56296e-06
1.29124e-07
-9.67912e-07
-1.83756e-06
-2.54898e-06
-3.14186e-06
-3.64533e-06
-4.08142e-06
-4.45739e-06
-4.77625e-06
-5.03851e-06
-5.23905e-06
-5.36915e-06
-5.41994e-06
-5.38812e-06
-5.27782e-06
1.76553e-07
-9.17308e-07
-1.78318e-06
-2.48969e-06
-3.07651e-06
-3.57145e-06
-3.9943e-06
-4.35197e-06
-4.64643e-06
-4.87726e-06
-5.04102e-06
-5.13378e-06
-5.15398e-06
-5.10615e-06
-4.99908e-06
2.49238e-07
-8.41936e-07
-1.70349e-06
-2.40372e-06
-2.98221e-06
-3.46548e-06
-3.87142e-06
-4.20705e-06
-4.47446e-06
-4.67417e-06
-4.80589e-06
-4.8706e-06
-4.87209e-06
-4.81879e-06
-4.72048e-06
3.58806e-07
-7.30263e-07
-1.58702e-06
-2.27959e-06
-2.84751e-06
-3.3164e-06
-3.70288e-06
-4.01463e-06
-4.25517e-06
-4.42721e-06
-4.53387e-06
-4.58003e-06
-4.57255e-06
-4.52115e-06
-4.43492e-06
5.18533e-07
-5.68718e-07
-1.42011e-06
-2.10375e-06
-2.6592e-06
-3.11201e-06
-3.47833e-06
-3.76692e-06
-3.98356e-06
-4.13368e-06
-4.22325e-06
-4.25955e-06
-4.25076e-06
-4.20641e-06
-4.13436e-06
7.43715e-07
-3.41505e-07
-1.18692e-06
-1.8607e-06
-2.40213e-06
-2.83919e-06
-3.18705e-06
-3.4559e-06
-3.65405e-06
-3.7894e-06
-3.86987e-06
-3.9039e-06
-3.89979e-06
-3.86626e-06
-3.80988e-06
1.05287e-06
-2.94694e-08
-8.68426e-07
-1.53285e-06
-2.06005e-06
-2.48325e-06
-2.81684e-06
-3.0719e-06
-3.25878e-06
-3.38726e-06
-3.46635e-06
-3.50475e-06
-3.51032e-06
-3.49071e-06
-3.45145e-06
1.46806e-06
3.90627e-07
-4.40855e-07
-1.09992e-06
-1.61316e-06
-2.02688e-06
-2.35253e-06
-2.60158e-06
-2.78565e-06
-2.91556e-06
-3.00077e-06
-3.04973e-06
-3.06965e-06
-3.06719e-06
-3.04703e-06
2.01316e-06
9.4457e-07
1.23482e-07
-5.17148e-07
-1.03661e-06
-1.44947e-06
-1.77548e-06
-2.0277e-06
-2.21821e-06
-2.35819e-06
-2.45704e-06
-2.52276e-06
-2.56193e-06
-2.58041e-06
-2.58235e-06
2.71014e-06
1.65579e-06
8.42675e-07
2.02968e-07
-3.14061e-07
-7.32333e-07
-1.06748e-06
-1.33219e-06
-1.53867e-06
-1.69778e-06
-1.81833e-06
-1.90764e-06
-1.97174e-06
-2.01592e-06
-2.04405e-06
3.57308e-06
2.54232e-06
1.73751e-06
1.09564e-06
5.70878e-07
1.39091e-07
-2.13532e-07
-4.99905e-07
-7.32124e-07
-9.20101e-07
-1.07155e-06
-1.19288e-06
-1.28951e-06
-1.36624e-06
-1.42675e-06
4.60001e-06
3.60703e-06
2.81461e-06
2.16696e-06
1.62578e-06
1.17328e-06
7.95955e-07
4.79802e-07
2.13027e-07
-1.29388e-08
-2.04419e-07
-3.66783e-07
-5.04858e-07
-6.23018e-07
-7.24755e-07
5.76331e-06
4.81986e-06
4.04205e-06
3.3961e-06
2.83955e-06
2.36403e-06
1.9571e-06
1.60504e-06
1.29732e-06
1.02691e-06
7.88701e-07
5.78176e-07
3.91037e-07
2.2335e-07
7.17296e-08
6.94676e-06
6.05756e-06
5.30082e-06
4.64333e-06
4.07071e-06
3.56965e-06
3.12712e-06
2.73178e-06
2.37576e-06
2.05385e-06
1.76184e-06
1.49575e-06
1.25183e-06
1.02677e-06
8.17701e-07
7.96183e-06
7.12797e-06
6.38901e-06
5.72408e-06
5.13622e-06
4.61219e-06
4.13747e-06
3.70297e-06
3.30356e-06
2.93537e-06
2.59457e-06
2.27758e-06
1.98119e-06
1.70277e-06
1.43997e-06
8.71412e-06
7.91918e-06
7.20018e-06
6.54755e-06
5.95571e-06
5.41478e-06
4.91522e-06
4.45093e-06
4.01788e-06
3.61262e-06
3.23178e-06
2.87233e-06
2.53171e-06
2.20783e-06
1.89879e-06
9.2561e-06
8.49992e-06
7.80601e-06
7.16608e-06
6.57283e-06
6.02036e-06
5.50335e-06
5.01728e-06
4.55847e-06
4.12381e-06
3.71057e-06
3.31643e-06
2.93941e-06
2.57787e-06
2.23029e-06
9.63954e-06
8.91838e-06
8.24632e-06
7.61663e-06
7.0243e-06
6.46584e-06
5.93756e-06
5.43578e-06
4.95737e-06
4.49985e-06
4.06112e-06
3.63946e-06
3.23334e-06
2.84149e-06
2.46274e-06
9.90159e-06
9.20994e-06
8.55674e-06
7.93737e-06
7.34877e-06
6.78832e-06
6.25307e-06
5.74017e-06
5.24723e-06
4.7724e-06
4.31412e-06
3.87108e-06
3.44214e-06
3.02637e-06
2.6229e-06
1.00738e-05
9.40803e-06
8.7721e-06
8.16338e-06
7.57998e-06
7.01972e-06
6.48033e-06
5.95974e-06
5.45624e-06
4.96847e-06
4.49528e-06
4.03574e-06
3.58903e-06
3.15452e-06
2.73162e-06
1.01837e-05
9.54037e-06
8.92018e-06
8.3218e-06
7.74401e-06
7.18515e-06
6.64355e-06
6.11777e-06
5.60662e-06
5.10916e-06
4.62458e-06
4.15227e-06
3.6917e-06
3.24251e-06
2.80434e-06
1.0252e-05
9.62787e-06
9.02172e-06
8.43293e-06
7.86072e-06
7.30391e-06
6.76133e-06
6.23205e-06
5.7153e-06
5.21046e-06
4.71706e-06
4.23474e-06
3.76324e-06
3.30244e-06
2.85217e-06
1.02932e-05
9.68564e-06
9.09186e-06
8.51172e-06
7.94478e-06
7.39023e-06
6.84737e-06
6.31565e-06
5.79464e-06
5.28404e-06
4.78364e-06
4.29332e-06
3.81304e-06
3.34288e-06
2.88285e-06
1.03173e-05
9.72416e-06
9.14122e-06
8.56876e-06
8.00658e-06
7.45423e-06
6.9114e-06
6.37787e-06
5.8535e-06
5.33824e-06
4.83211e-06
4.33522e-06
3.84771e-06
3.36983e-06
2.90175e-06
1.03312e-05
9.75053e-06
9.17703e-06
8.61127e-06
8.05327e-06
7.50293e-06
6.96024e-06
6.42525e-06
5.89809e-06
5.37892e-06
4.86796e-06
4.36552e-06
3.87189e-06
3.38749e-06
2.91263e-06
1.03392e-05
9.76939e-06
9.20409e-06
8.64412e-06
8.08973e-06
7.54112e-06
6.99855e-06
6.46231e-06
5.93271e-06
5.41014e-06
4.895e-06
4.38775e-06
3.88885e-06
3.39882e-06
2.91811e-06
1.03442e-05
9.7837e-06
9.2255e-06
8.67051e-06
8.1192e-06
7.57204e-06
7.02951e-06
6.4921e-06
5.96032e-06
5.43473e-06
4.91588e-06
4.40439e-06
3.90083e-06
3.40586e-06
2.92002e-06
1.03477e-05
9.79527e-06
9.24321e-06
8.69248e-06
8.14378e-06
7.59781e-06
7.05522e-06
6.5167e-06
5.98292e-06
5.45459e-06
4.9324e-06
4.41711e-06
3.9094e-06
3.41003e-06
2.91965e-06
1.03505e-05
9.80518e-06
9.2584e-06
8.71131e-06
8.16482e-06
7.61979e-06
7.07706e-06
6.53745e-06
6.00182e-06
5.47098e-06
4.94577e-06
4.42705e-06
3.91561e-06
3.4123e-06
2.91786e-06
1.03531e-05
9.81401e-06
9.27173e-06
8.72775e-06
8.1831e-06
7.63881e-06
7.09585e-06
6.55521e-06
6.01785e-06
5.48473e-06
4.95678e-06
4.43497e-06
3.92017e-06
3.41333e-06
2.91525e-06
1.03558e-05
9.82208e-06
9.28369e-06
8.74237e-06
8.19926e-06
7.65554e-06
7.11233e-06
6.5707e-06
6.03175e-06
5.49653e-06
4.96608e-06
4.44145e-06
3.9236e-06
3.41353e-06
2.91215e-06
1.03587e-05
9.82998e-06
9.29514e-06
8.75622e-06
8.21449e-06
7.67123e-06
7.12771e-06
6.5851e-06
6.04459e-06
5.50734e-06
4.97447e-06
4.44711e-06
3.92632e-06
3.41315e-06
2.90858e-06
1.03619e-05
9.83796e-06
9.30653e-06
8.76989e-06
8.22941e-06
7.6865e-06
7.14248e-06
6.59873e-06
6.05656e-06
5.51724e-06
4.98199e-06
4.45201e-06
3.92846e-06
3.41245e-06
2.90495e-06
-9.27306e-06
-6.93957e-06
-5.52239e-06
-4.57372e-06
-3.82487e-06
-3.26187e-06
-2.83824e-06
-2.52232e-06
-2.29193e-06
-2.12851e-06
-2.01575e-06
-1.93859e-06
-1.88244e-06
-1.83306e-06
-1.77585e-06
-1.69724e-06
-1.58543e-06
-1.43468e-06
-1.24935e-06
-1.05196e-06
-8.82438e-07
-7.8702e-07
-7.83885e-07
-7.83482e-07
-6.72745e-07
-3.8878e-07
1.03732e-07
8.13233e-07
1.74402e-06
2.8903e-06
4.24771e-06
5.79999e-06
7.52738e-06
9.40122e-06
1.1382e-05
1.34225e-05
1.54671e-05
1.74516e-05
1.92982e-05
2.0908e-05
2.21355e-05
2.27758e-05
2.23737e-05
2.05378e-05
1.56255e-05
-7.68519e-06
-6.43518e-06
-5.34501e-06
-4.49237e-06
-3.78736e-06
-3.23883e-06
-2.82044e-06
-2.50697e-06
-2.2784e-06
-2.1169e-06
-2.00634e-06
-1.93155e-06
-1.87786e-06
-1.83091e-06
-1.77609e-06
-1.69981e-06
-1.59035e-06
-1.44185e-06
-1.25832e-06
-1.06143e-06
-8.89453e-07
-7.86543e-07
-7.70683e-07
-7.55832e-07
-6.32001e-07
-3.37983e-07
1.6121e-07
8.73858e-07
1.80405e-06
2.94521e-06
4.29193e-06
5.82561e-06
7.52421e-06
9.35649e-06
1.12793e-05
1.32405e-05
1.51775e-05
1.70154e-05
1.86595e-05
1.99809e-05
2.07799e-05
2.07357e-05
1.9208e-05
1.54618e-05
8.28269e-06
-6.85564e-06
-6.05046e-06
-5.16404e-06
-4.39926e-06
-3.74261e-06
-3.21419e-06
-2.80386e-06
-2.49395e-06
-2.26739e-06
-2.10764e-06
-1.99892e-06
-1.9261e-06
-1.87446e-06
-1.82958e-06
-1.77682e-06
-1.70264e-06
-1.59537e-06
-1.44908e-06
-1.26741e-06
-1.07108e-06
-8.96502e-07
-7.85447e-07
-7.55584e-07
-7.24775e-07
-5.86544e-07
-2.81691e-07
2.24292e-07
9.39371e-07
1.86731e-06
3.00041e-06
4.33213e-06
5.84084e-06
7.50155e-06
9.27992e-06
1.11283e-05
1.29886e-05
1.47901e-05
1.64462e-05
1.78456e-05
1.88355e-05
1.91864e-05
1.85516e-05
1.637e-05
1.22687e-05
6.00819e-06
-6.34143e-06
-5.74141e-06
-5.01585e-06
-4.31992e-06
-3.70909e-06
-3.20144e-06
-2.79866e-06
-2.49101e-06
-2.26477e-06
-2.105e-06
-1.99653e-06
-1.92433e-06
-1.87363e-06
-1.82998e-06
-1.77866e-06
-1.70616e-06
-1.60085e-06
-1.45665e-06
-1.27679e-06
-1.08095e-06
-9.03466e-07
-7.83479e-07
-7.38205e-07
-6.89736e-07
-5.35411e-07
-2.18296e-07
2.9547e-07
1.01336e-06
1.93863e-06
3.06174e-06
4.37544e-06
5.85374e-06
7.46806e-06
9.18038e-06
1.09378e-05
1.26755e-05
1.43146e-05
1.57578e-05
1.68819e-05
1.75244e-05
1.74628e-05
1.64087e-05
1.40046e-05
1.0083e-05
4.90733e-06
-5.95323e-06
-5.47806e-06
-4.87773e-06
-4.26338e-06
-3.69451e-06
-3.207e-06
-2.81065e-06
-2.50316e-06
-2.2746e-06
-2.11209e-06
-2.00132e-06
-1.9275e-06
-1.87593e-06
-1.83206e-06
-1.78113e-06
-1.70959e-06
-1.60585e-06
-1.46363e-06
-1.28565e-06
-1.0904e-06
-9.09883e-07
-7.80281e-07
-7.18213e-07
-6.50504e-07
-4.78694e-07
-1.48447e-07
3.7324e-07
1.09329e-06
2.01348e-06
3.12301e-06
4.41388e-06
5.85379e-06
7.41089e-06
9.04311e-06
1.06921e-05
1.22866e-05
1.3741e-05
1.49512e-05
1.57907e-05
1.61046e-05
1.57069e-05
1.4399e-05
1.2008e-05
8.53527e-06
4.31394e-06
-5.63669e-06
-5.24922e-06
-4.74681e-06
-4.21546e-06
-3.69623e-06
-3.23053e-06
-2.84177e-06
-2.53349e-06
-2.3003e-06
-2.13215e-06
-2.01603e-06
-1.93772e-06
-1.88275e-06
-1.83661e-06
-1.7845e-06
-1.7128e-06
-1.60997e-06
-1.46945e-06
-1.29337e-06
-1.09883e-06
-9.15244e-07
-7.75409e-07
-6.95202e-07
-6.06772e-07
-4.16308e-07
-7.24559e-08
4.5677e-07
1.17746e-06
2.08731e-06
3.18063e-06
4.44165e-06
5.83274e-06
7.31986e-06
8.85642e-06
1.0379e-05
1.18115e-05
1.30642e-05
1.40321e-05
1.45956e-05
1.46226e-05
1.39782e-05
1.25524e-05
1.03021e-05
7.33005e-06
3.93508e-06
-5.35734e-06
-5.03821e-06
-4.6231e-06
-4.16077e-06
-3.69879e-06
-3.26518e-06
-2.88871e-06
-2.58109e-06
-2.34265e-06
-2.16691e-06
-2.04269e-06
-1.95682e-06
-1.89553e-06
-1.84459e-06
-1.78925e-06
-1.71589e-06
-1.61299e-06
-1.4737e-06
-1.29943e-06
-1.10571e-06
-9.19017e-07
-7.68402e-07
-6.68792e-07
-5.58309e-07
-3.48283e-07
9.23182e-09
5.45368e-07
1.26276e-06
2.15723e-06
3.23186e-06
4.45278e-06
5.78281e-06
7.18603e-06
8.61074e-06
9.98977e-06
1.12444e-05
1.22849e-05
1.30132e-05
1.33246e-05
1.31185e-05
1.23126e-05
1.08675e-05
8.81448e-06
6.28672e-06
3.5208e-06
-5.09493e-06
-4.83047e-06
-4.48935e-06
-4.0975e-06
-3.68943e-06
-3.29681e-06
-2.94185e-06
-2.63943e-06
-2.39772e-06
-2.21464e-06
-2.08086e-06
-1.98496e-06
-1.91459e-06
-1.85625e-06
-1.79542e-06
-1.71865e-06
-1.61453e-06
-1.47584e-06
-1.30323e-06
-1.11043e-06
-9.20701e-07
-7.58889e-07
-6.388e-07
-5.05262e-07
-2.75058e-07
9.55092e-08
6.36306e-07
1.34272e-06
2.2245e-06
3.27075e-06
4.4383e-06
5.69439e-06
6.99897e-06
8.29588e-06
9.51634e-06
1.05825e-05
1.14097e-05
1.19114e-05
1.20049e-05
1.16231e-05
1.0728e-05
9.3267e-06
7.48399e-06
5.32753e-06
3.03465e-06
-4.83903e-06
-4.61909e-06
-4.3393e-06
-4.01282e-06
-3.66215e-06
-3.31242e-06
-2.98692e-06
-2.69654e-06
-2.45674e-06
-2.26956e-06
-2.12672e-06
-2.01966e-06
-1.93835e-06
-1.87046e-06
-1.80215e-06
-1.72032e-06
-1.61385e-06
-1.4752e-06
-1.30417e-06
-1.11252e-06
-9.19971e-07
-7.46807e-07
-6.05464e-07
-4.48617e-07
-1.98139e-07
1.84235e-07
7.21067e-07
1.41893e-06
2.28494e-06
3.2855e-06
4.38673e-06
5.55577e-06
6.74661e-06
7.90106e-06
8.95153e-06
9.82463e-06
1.04455e-05
1.07432e-05
1.0659e-05
1.01555e-05
9.22666e-06
7.90496e-06
6.26388e-06
4.41227e-06
2.47972e-06
-4.58245e-06
-4.39964e-06
-4.17059e-06
-3.90164e-06
-3.60634e-06
-3.30366e-06
-3.00919e-06
-2.73857e-06
-2.50924e-06
-2.32325e-06
-2.17327e-06
-2.05556e-06
-1.96286e-06
-1.88441e-06
-1.80738e-06
-1.71938e-06
-1.60982e-06
-1.47094e-06
-1.30173e-06
-1.11175e-06
-9.16968e-07
-7.32769e-07
-5.69916e-07
-3.89961e-07
-1.22573e-07
2.69367e-07
8.00351e-07
1.49051e-06
2.32062e-06
3.26214e-06
4.28584e-06
5.3534e-06
6.41584e-06
7.41572e-06
8.28966e-06
8.97222e-06
9.40131e-06
9.52365e-06
9.30233e-06
8.72322e-06
7.79978e-06
6.57475e-06
5.11731e-06
3.51481e-06
1.8613e-06
-4.31806e-06
-4.16707e-06
-3.98042e-06
-3.76092e-06
-3.51603e-06
-3.25939e-06
-2.99962e-06
-2.75512e-06
-2.54376e-06
-2.36301e-06
-2.21006e-06
-2.08464e-06
-1.98216e-06
-1.89372e-06
-1.80801e-06
-1.71372e-06
-1.60112e-06
-1.46238e-06
-1.29574e-06
-1.10853e-06
-9.12724e-07
-7.18533e-07
-5.35534e-07
-3.30712e-07
-5.61238e-08
3.4431e-07
8.73626e-07
1.53531e-06
2.3159e-06
3.18849e-06
4.12098e-06
5.07218e-06
5.99338e-06
6.83048e-06
7.52697e-06
8.02836e-06
8.28622e-06
8.26424e-06
7.94336e-06
7.32502e-06
6.43249e-06
5.30931e-06
4.01494e-06
2.61718e-06
1.18441e-06
-4.03794e-06
-3.91504e-06
-3.76454e-06
-3.58727e-06
-3.38724e-06
-3.17244e-06
-2.95245e-06
-2.7408e-06
-2.54802e-06
-2.37616e-06
-2.22601e-06
-2.09808e-06
-1.98943e-06
-1.89338e-06
-1.8006e-06
-1.70128e-06
-1.58678e-06
-1.44953e-06
-1.28703e-06
-1.10443e-06
-9.09736e-07
-7.07789e-07
-5.07527e-07
-2.83471e-07
3.93863e-09
4.01718e-07
9.14521e-07
1.53797e-06
2.25832e-06
3.04875e-06
3.87508e-06
4.69645e-06
5.46703e-06
6.13839e-06
6.66277e-06
6.99792e-06
7.10866e-06
6.97306e-06
6.58493e-06
5.95456e-06
5.10817e-06
4.08522e-06
2.93416e-06
1.70662e-06
4.52621e-07
-3.73349e-06
-3.6362e-06
-3.51743e-06
-3.3772e-06
-3.21756e-06
-3.04363e-06
-2.86277e-06
-2.68327e-06
-2.51248e-06
-2.35507e-06
-2.21354e-06
-2.0887e-06
-1.97872e-06
-1.879e-06
-1.78239e-06
-1.68086e-06
-1.567e-06
-1.43378e-06
-1.27809e-06
-1.10293e-06
-9.12627e-07
-7.0774e-07
-4.9314e-07
-2.57366e-07
3.85461e-08
4.25619e-07
9.08965e-07
1.48221e-06
2.12935e-06
2.82325e-06
3.53014e-06
4.21176e-06
4.8276e-06
5.33531e-06
5.70009e-06
5.88828e-06
5.87732e-06
5.65645e-06
5.22742e-06
4.60432e-06
3.81222e-06
2.88442e-06
1.85906e-06
7.75026e-07
-3.30914e-07
-3.39521e-06
-3.32218e-06
-3.23236e-06
-3.12555e-06
-3.00265e-06
-2.8667e-06
-2.72242e-06
-2.5753e-06
-2.43084e-06
-2.29365e-06
-2.1666e-06
-2.05086e-06
-1.94557e-06
-1.84775e-06
-1.75229e-06
-1.65301e-06
-1.54392e-06
-1.41869e-06
-1.27381e-06
-1.11028e-06
-9.29144e-07
-7.27032e-07
-5.07384e-07
-2.63899e-07
2.9556e-08
3.95222e-07
8.36773e-07
1.3464e-06
1.9069e-06
2.49183e-06
3.0698e-06
3.60726e-06
4.06895e-06
4.42596e-06
4.64677e-06
4.70981e-06
4.60245e-06
4.32124e-06
3.87204e-06
3.26937e-06
2.53505e-06
1.69586e-06
7.81085e-07
-1.80258e-07
-1.16104e-06
-3.01199e-06
-2.96317e-06
-2.90109e-06
-2.82556e-06
-2.73685e-06
-2.63666e-06
-2.5279e-06
-2.41429e-06
-2.29979e-06
-2.18798e-06
-2.08144e-06
-1.98145e-06
-1.88783e-06
-1.79899e-06
-1.71155e-06
-1.62091e-06
-1.52248e-06
-1.41084e-06
-1.28224e-06
-1.13598e-06
-9.70325e-07
-7.79372e-07
-5.64191e-07
-3.24361e-07
-4.53866e-08
2.87001e-07
6.7415e-07
1.10712e-06
1.56927e-06
2.03679e-06
2.4826e-06
2.8785e-06
3.19947e-06
3.41824e-06
3.51475e-06
3.4762e-06
3.29652e-06
2.97635e-06
2.52295e-06
1.94944e-06
1.27362e-06
5.16241e-07
-3.00684e-07
-1.15565e-06
-2.02864e-06
-2.57089e-06
-2.54791e-06
-2.51426e-06
-2.46988e-06
-2.41485e-06
-2.35007e-06
-2.27734e-06
-2.1991e-06
-2.11803e-06
-2.03671e-06
-1.95716e-06
-1.88065e-06
-1.8072e-06
-1.73557e-06
-1.66424e-06
-1.59055e-06
-1.51101e-06
-1.42045e-06
-1.31521e-06
-1.1934e-06
-1.05156e-06
-8.8204e-07
-6.83995e-07
-4.61981e-07
-2.11349e-07
7.45697e-08
3.95219e-07
7.41433e-07
1.09774e-06
1.44611e-06
1.76511e-06
2.03258e-06
2.22451e-06
2.32385e-06
2.31915e-06
2.20323e-06
1.9736e-06
1.63268e-06
1.18751e-06
6.49026e-07
3.10794e-08
-6.50753e-07
-1.38023e-06
-2.14157e-06
-2.91999e-06
-2.05991e-06
-2.06611e-06
-2.06361e-06
-2.05251e-06
-2.03289e-06
-2.00532e-06
-1.97088e-06
-1.93112e-06
-1.88777e-06
-1.84257e-06
-1.79712e-06
-1.752e-06
-1.70854e-06
-1.66563e-06
-1.62095e-06
-1.57266e-06
-1.52154e-06
-1.46122e-06
-1.38826e-06
-1.30017e-06
-1.19246e-06
-1.05675e-06
-8.9085e-07
-7.02185e-07
-4.94008e-07
-2.66893e-07
-2.36179e-08
2.28284e-07
4.79877e-07
7.17085e-07
9.22618e-07
1.07299e-06
1.15422e-06
1.15777e-06
1.07688e-06
9.07129e-07
6.47691e-07
3.01484e-07
-1.25391e-07
-6.24387e-07
-1.18519e-06
-1.79643e-06
-2.44638e-06
-3.12356e-06
-3.81711e-06
-1.47551e-06
-1.51585e-06
-1.54892e-06
-1.57506e-06
-1.59458e-06
-1.60786e-06
-1.61571e-06
-1.61889e-06
-1.61877e-06
-1.61617e-06
-1.61191e-06
-1.60903e-06
-1.60343e-06
-1.59538e-06
-1.59192e-06
-1.58582e-06
-1.57273e-06
-1.55204e-06
-1.52154e-06
-1.47773e-06
-1.41562e-06
-1.3274e-06
-1.21012e-06
-1.07188e-06
-9.18693e-07
-7.56717e-07
-5.9694e-07
-4.38916e-07
-2.85723e-07
-1.44295e-07
-4.14374e-08
1.00261e-08
5.11462e-09
-6.11888e-08
-1.94027e-07
-3.96316e-07
-6.67923e-07
-1.00609e-06
-1.40606e-06
-1.8616e-06
-2.36534e-06
-2.90924e-06
-3.48497e-06
-4.08433e-06
-4.69942e-06
-8.15065e-07
-8.97651e-07
-9.73792e-07
-1.04413e-06
-1.10926e-06
-1.16969e-06
-1.226e-06
-1.27876e-06
-1.32871e-06
-1.37655e-06
-1.4228e-06
-1.46857e-06
-1.51268e-06
-1.55695e-06
-1.60329e-06
-1.64752e-06
-1.6835e-06
-1.71391e-06
-1.73714e-06
-1.74891e-06
-1.74443e-06
-1.71763e-06
-1.66472e-06
-1.59215e-06
-1.50642e-06
-1.41546e-06
-1.33242e-06
-1.25441e-06
-1.17979e-06
-1.12699e-06
-1.10993e-06
-1.13209e-06
-1.19639e-06
-1.30783e-06
-1.4706e-06
-1.68632e-06
-1.9544e-06
-2.27274e-06
-2.63809e-06
-3.04623e-06
-3.49214e-06
-3.97026e-06
-4.47485e-06
-5.00015e-06
-5.5405e-06
-6.97448e-08
-2.05327e-07
-3.35789e-07
-4.61421e-07
-5.82835e-07
-7.00663e-07
-8.15452e-07
-9.27671e-07
-1.03779e-06
-1.14631e-06
-1.25369e-06
-1.36049e-06
-1.46681e-06
-1.57258e-06
-1.67728e-06
-1.7792e-06
-1.87711e-06
-1.97066e-06
-2.05753e-06
-2.13433e-06
-2.19704e-06
-2.24206e-06
-2.26514e-06
-2.26608e-06
-2.25484e-06
-2.24293e-06
-2.22533e-06
-2.2011e-06
-2.19013e-06
-2.20824e-06
-2.25241e-06
-2.32183e-06
-2.42113e-06
-2.55559e-06
-2.72823e-06
-2.93988e-06
-3.19016e-06
-3.47794e-06
-3.80137e-06
-4.15786e-06
-4.54418e-06
-4.95671e-06
-5.39163e-06
-5.84504e-06
-6.31299e-06
6.18929e-07
4.25924e-07
2.37623e-07
5.35204e-08
-1.27105e-07
-3.04898e-07
-4.80354e-07
-6.53852e-07
-8.25723e-07
-9.96285e-07
-1.16578e-06
-1.33439e-06
-1.502e-06
-1.66833e-06
-1.83319e-06
-1.99605e-06
-2.15577e-06
-2.31067e-06
-2.45881e-06
-2.59778e-06
-2.7248e-06
-2.8381e-06
-2.93051e-06
-2.998e-06
-3.04749e-06
-3.07688e-06
-3.11717e-06
-3.14991e-06
-3.19541e-06
-3.25818e-06
-3.33571e-06
-3.42951e-06
-3.54411e-06
-3.68348e-06
-3.84986e-06
-4.04425e-06
-4.267e-06
-4.51785e-06
-4.79597e-06
-5.09992e-06
-5.42782e-06
-5.77748e-06
-6.14649e-06
-6.53232e-06
-6.93238e-06
1.18725e-06
9.39741e-07
6.96336e-07
4.5668e-07
2.20198e-07
-1.3632e-08
-2.45184e-07
-4.74708e-07
-7.02383e-07
-9.28342e-07
-1.15267e-06
-1.37537e-06
-1.59638e-06
-1.81547e-06
-2.03233e-06
-2.24623e-06
-2.45595e-06
-2.6601e-06
-2.85713e-06
-3.04518e-06
-3.22247e-06
-3.38712e-06
-3.53119e-06
-3.65117e-06
-3.7511e-06
-3.84109e-06
-3.89709e-06
-3.96423e-06
-4.04028e-06
-4.12323e-06
-4.21471e-06
-4.31789e-06
-4.43587e-06
-4.57111e-06
-4.72548e-06
-4.90029e-06
-5.0963e-06
-5.31376e-06
-5.55241e-06
-5.81163e-06
-6.09046e-06
-6.38769e-06
-6.70192e-06
-7.03161e-06
-7.37512e-06
1.59954e-06
1.30533e-06
1.01505e-06
7.28439e-07
4.45121e-07
1.64755e-07
-1.12869e-07
-3.87853e-07
-6.6024e-07
-9.30037e-07
-1.19722e-06
-1.46168e-06
-1.72327e-06
-1.98164e-06
-2.23628e-06
-2.48642e-06
-2.73109e-06
-2.96916e-06
-3.19926e-06
-3.41992e-06
-3.62958e-06
-3.82676e-06
-4.00317e-06
-4.1522e-06
-4.27371e-06
-4.38245e-06
-4.47485e-06
-4.56468e-06
-4.65412e-06
-4.74521e-06
-4.84152e-06
-4.94602e-06
-5.06096e-06
-5.18833e-06
-5.32993e-06
-5.48717e-06
-5.66101e-06
-5.85195e-06
-6.06019e-06
-6.28563e-06
-6.5279e-06
-6.78642e-06
-7.06039e-06
-7.34889e-06
-7.65086e-06
1.8922e-06
1.55917e-06
1.23022e-06
9.05227e-07
5.83978e-07
2.66327e-07
-4.77678e-08
-3.58267e-07
-6.65091e-07
-9.68129e-07
-1.26724e-06
-1.56222e-06
-1.85278e-06
-2.13849e-06
-2.41881e-06
-2.69305e-06
-2.96038e-06
-3.21977e-06
-3.47009e-06
-3.71007e-06
-3.93852e-06
-4.15435e-06
-4.34907e-06
-4.51582e-06
-4.65886e-06
-4.77755e-06
-4.88624e-06
-4.9872e-06
-5.08394e-06
-5.18025e-06
-5.27934e-06
-5.38364e-06
-5.49521e-06
-5.616e-06
-5.74774e-06
-5.89183e-06
-6.04931e-06
-6.22095e-06
-6.40723e-06
-6.60844e-06
-6.82458e-06
-7.0555e-06
-7.30082e-06
-7.56006e-06
-7.83261e-06
2.09321e-06
1.72897e-06
1.3692e-06
1.01388e-06
6.62994e-07
3.16554e-07
-2.5324e-08
-3.62471e-07
-6.94696e-07
-1.02179e-06
-1.3435e-06
-1.65954e-06
-1.96956e-06
-2.2731e-06
-2.56963e-06
-2.85852e-06
-3.13903e-06
-3.41028e-06
-3.67137e-06
-3.92128e-06
-4.15911e-06
-4.38396e-06
-4.58737e-06
-4.76313e-06
-4.91469e-06
-5.04627e-06
-5.164e-06
-5.27211e-06
-5.37472e-06
-5.4752e-06
-5.57626e-06
-5.68025e-06
-5.7893e-06
-5.90533e-06
-6.03e-06
-6.16472e-06
-6.31066e-06
-6.46876e-06
-6.63975e-06
-6.82411e-06
-7.02217e-06
-7.23403e-06
-7.45967e-06
-7.69889e-06
-7.95143e-06
2.22844e-06
1.83962e-06
1.45578e-06
1.07706e-06
7.03556e-07
3.35455e-07
-2.70003e-08
-3.83535e-07
-7.3387e-07
-1.07771e-06
-1.41474e-06
-1.74462e-06
-2.06695e-06
-2.38128e-06
-2.68712e-06
-2.98389e-06
-3.27096e-06
-3.54761e-06
-3.81317e-06
-4.06683e-06
-4.30796e-06
-4.53584e-06
-4.7427e-06
-4.92334e-06
-5.08052e-06
-5.21873e-06
-5.34246e-06
-5.45609e-06
-5.56319e-06
-5.66675e-06
-5.7694e-06
-5.87349e-06
-5.98114e-06
-6.09421e-06
-6.21435e-06
-6.34303e-06
-6.4815e-06
-6.63081e-06
-6.79184e-06
-6.96526e-06
-7.15159e-06
-7.35115e-06
-7.56415e-06
-7.79065e-06
-8.03061e-06
2.31759e-06
1.90962e-06
1.50724e-06
1.11068e-06
7.20201e-07
3.36092e-07
-4.12983e-08
-4.11615e-07
-7.74511e-07
-1.12963e-06
-1.47663e-06
-1.8151e-06
-2.14467e-06
-2.46489e-06
-2.77532e-06
-3.07543e-06
-3.36474e-06
-3.64267e-06
-3.90873e-06
-4.16232e-06
-4.40308e-06
-4.63047e-06
-4.83765e-06
-5.01997e-06
-5.18045e-06
-5.32268e-06
-5.45072e-06
-5.5683e-06
-5.6787e-06
-5.78476e-06
-5.88902e-06
-5.99379e-06
-6.10109e-06
-6.21278e-06
-6.33052e-06
-6.45578e-06
-6.5899e-06
-6.73401e-06
-6.88909e-06
-7.05595e-06
-7.23525e-06
-7.42751e-06
-7.63309e-06
-7.85224e-06
-8.08509e-06
2.37498e-06
1.95213e-06
1.5355e-06
1.12543e-06
7.22265e-07
3.26409e-07
-6.17189e-08
-4.41705e-07
-8.13154e-07
-1.17567e-06
-1.52888e-06
-1.87237e-06
-2.20576e-06
-2.52863e-06
-2.8406e-06
-3.14122e-06
-3.43012e-06
-3.70684e-06
-3.97108e-06
-4.22242e-06
-4.46071e-06
-4.68561e-06
-4.89125e-06
-5.07368e-06
-5.23553e-06
-5.38018e-06
-5.51103e-06
-5.63141e-06
-5.74436e-06
-5.8526e-06
-5.95853e-06
-6.06434e-06
-6.17204e-06
-6.28345e-06
-6.40023e-06
-6.5239e-06
-6.65581e-06
-6.79718e-06
-6.94908e-06
-7.11242e-06
-7.28799e-06
-7.47643e-06
-7.67825e-06
-7.89382e-06
-8.12341e-06
2.41069e-06
1.97618e-06
1.54852e-06
1.12812e-06
7.15421e-07
3.10899e-07
-8.49683e-08
-4.71729e-07
-8.48951e-07
-1.21622e-06
-1.57312e-06
-1.91927e-06
-2.25429e-06
-2.57779e-06
-2.88945e-06
-3.18889e-06
-3.47584e-06
-3.74997e-06
-4.01111e-06
-4.259e-06
-4.4937e-06
-4.71504e-06
-4.91799e-06
-5.09938e-06
-5.26147e-06
-5.40738e-06
-5.54e-06
-5.66236e-06
-5.77731e-06
-5.88737e-06
-5.99485e-06
-6.10184e-06
-6.21031e-06
-6.32206e-06
-6.43876e-06
-6.56194e-06
-6.69301e-06
-6.83324e-06
-6.98377e-06
-7.1456e-06
-7.31962e-06
-7.50657e-06
-7.70705e-06
-7.92156e-06
-8.15047e-06
2.43163e-06
1.98783e-06
1.55148e-06
1.12305e-06
7.03055e-07
2.9204e-07
-1.09488e-07
-5.01042e-07
-8.82167e-07
-1.25242e-06
-1.61141e-06
-1.95872e-06
-2.29401e-06
-2.61694e-06
-2.92722e-06
-3.22455e-06
-3.50874e-06
-3.77957e-06
-4.03699e-06
-4.28088e-06
-4.51145e-06
-4.72865e-06
-4.9283e-06
-5.10792e-06
-5.26946e-06
-5.41581e-06
-5.54946e-06
-5.67315e-06
-5.78956e-06
-5.90107e-06
-6.00986e-06
-6.11796e-06
-6.2273e-06
-6.33967e-06
-6.45674e-06
-6.58006e-06
-6.71108e-06
-6.85111e-06
-7.00137e-06
-7.16293e-06
-7.33674e-06
-7.52364e-06
-7.72431e-06
-7.93933e-06
-8.16916e-06
2.44253e-06
1.99117e-06
1.5478e-06
1.11298e-06
6.87275e-07
2.71269e-07
-1.34498e-07
-5.29517e-07
-9.1331e-07
-1.28543e-06
-1.64547e-06
-1.99305e-06
-2.32783e-06
-2.64951e-06
-2.95785e-06
-3.25262e-06
-3.53369e-06
-3.80094e-06
-4.05442e-06
-4.29411e-06
-4.52038e-06
-4.73324e-06
-4.92931e-06
-5.10671e-06
-5.2671e-06
-5.41337e-06
-5.5475e-06
-5.67197e-06
-5.78937e-06
-5.90194e-06
-6.01174e-06
-6.12078e-06
-6.23092e-06
-6.34395e-06
-6.46155e-06
-6.58528e-06
-6.71663e-06
-6.85697e-06
-7.00755e-06
-7.16951e-06
-7.34388e-06
-7.53154e-06
-7.73328e-06
-7.94972e-06
-8.18138e-06
2.44669e-06
1.98901e-06
1.53984e-06
1.09979e-06
6.69482e-07
2.49522e-07
-1.59522e-07
-5.57124e-07
-9.42791e-07
-1.31607e-06
-1.67656e-06
-2.02388e-06
-2.35774e-06
-2.67784e-06
-2.984e-06
-3.27606e-06
-3.55393e-06
-3.81758e-06
-4.06714e-06
-4.30268e-06
-4.52468e-06
-4.73323e-06
-4.92565e-06
-5.10063e-06
-5.25943e-06
-5.40523e-06
-5.53945e-06
-5.66426e-06
-5.78225e-06
-5.8955e-06
-6.00603e-06
-6.11576e-06
-6.22654e-06
-6.34013e-06
-6.45824e-06
-6.58244e-06
-6.71426e-06
-6.85509e-06
-7.00625e-06
-7.16893e-06
-7.34421e-06
-7.53305e-06
-7.73628e-06
-7.95457e-06
-8.18852e-06
2.4464e-06
1.98333e-06
1.52924e-06
1.0848e-06
6.50668e-07
2.27472e-07
-1.842e-07
-5.83803e-07
-9.70838e-07
-1.34485e-06
-1.70543e-06
-2.05224e-06
-2.38497e-06
-2.7034e-06
-3.00735e-06
-3.29671e-06
-3.57147e-06
-3.83165e-06
-4.07746e-06
-4.30903e-06
-4.52693e-06
-4.73132e-06
-4.92019e-06
-5.09261e-06
-5.24967e-06
-5.39465e-06
-5.52872e-06
-5.65353e-06
-5.77175e-06
-5.88539e-06
-5.99635e-06
-6.10652e-06
-6.21773e-06
-6.33173e-06
-6.45023e-06
-6.57483e-06
-6.70708e-06
-6.84843e-06
-7.00022e-06
-7.16371e-06
-7.34002e-06
-7.53017e-06
-7.73502e-06
-7.95532e-06
-8.19167e-06
2.44327e-06
1.9755e-06
1.51716e-06
1.06895e-06
6.31551e-07
2.05625e-07
-2.08228e-07
-6.09451e-07
-9.97535e-07
-1.37203e-06
-1.73253e-06
-2.0787e-06
-2.41027e-06
-2.72703e-06
-3.02885e-06
-3.31565e-06
-3.58748e-06
-3.84441e-06
-4.0867e-06
-4.31456e-06
-4.52861e-06
-4.72907e-06
-4.91453e-06
-5.08423e-06
-5.23969e-06
-5.38371e-06
-5.51738e-06
-5.6419e-06
-5.7601e-06
-5.87385e-06
-5.98499e-06
-6.09538e-06
-6.20681e-06
-6.32104e-06
-6.43978e-06
-6.56465e-06
-6.69724e-06
-6.83902e-06
-6.99139e-06
-7.15563e-06
-7.33294e-06
-7.52435e-06
-7.7308e-06
-7.95306e-06
-8.19178e-06
2.43843e-06
1.96651e-06
1.50442e-06
1.0529e-06
6.12661e-07
1.84371e-07
-2.31349e-07
-6.33933e-07
-1.02287e-06
-1.3977e-06
-1.75804e-06
-2.10355e-06
-2.43399e-06
-2.74918e-06
-3.049e-06
-3.33343e-06
-3.60256e-06
-3.85649e-06
-4.09555e-06
-4.31999e-06
-4.53047e-06
-4.72727e-06
-4.9095e-06
-5.07654e-06
-5.23056e-06
-5.37353e-06
-5.5065e-06
-5.63058e-06
-5.74856e-06
-5.86222e-06
-5.97335e-06
-6.08375e-06
-6.19523e-06
-6.30951e-06
-6.42833e-06
-6.55333e-06
-6.68612e-06
-6.82821e-06
-6.98104e-06
-7.14594e-06
-7.32412e-06
-7.51669e-06
-7.7246e-06
-7.94868e-06
-8.1896e-06
2.43265e-06
1.95703e-06
1.49162e-06
1.03716e-06
5.94408e-07
1.64037e-07
-2.53318e-07
-6.57082e-07
-1.04674e-06
-1.42183e-06
-1.78198e-06
-2.12687e-06
-2.45626e-06
-2.76999e-06
-3.06799e-06
-3.35026e-06
-3.61692e-06
-3.86814e-06
-4.10426e-06
-4.32559e-06
-4.53281e-06
-4.72626e-06
-4.90543e-06
-5.07001e-06
-5.22269e-06
-5.36452e-06
-5.4966e-06
-5.62021e-06
-5.73783e-06
-5.85125e-06
-5.96221e-06
-6.07249e-06
-6.18385e-06
-6.29805e-06
-6.41681e-06
-6.5418e-06
-6.67466e-06
-6.81693e-06
-6.97009e-06
-7.13549e-06
-7.31441e-06
-7.50797e-06
-7.71718e-06
-7.94289e-06
-8.1858e-06
2.42647e-06
1.94756e-06
1.47918e-06
1.02211e-06
5.77122e-07
1.44904e-07
-2.73898e-07
-6.78701e-07
-1.06898e-06
-1.4443e-06
-1.80426e-06
-2.14858e-06
-2.47702e-06
-2.78944e-06
-3.08581e-06
-3.36614e-06
-3.63059e-06
-3.87936e-06
-4.11284e-06
-4.33137e-06
-4.53566e-06
-4.72606e-06
-4.90245e-06
-5.06486e-06
-5.21606e-06
-5.35678e-06
-5.48797e-06
-5.61106e-06
-5.72823e-06
-5.84132e-06
-5.952e-06
-6.06203e-06
-6.17317e-06
-6.28717e-06
-6.40576e-06
-6.53064e-06
-6.66345e-06
-6.80578e-06
-6.95914e-06
-7.12492e-06
-7.30442e-06
-7.49882e-06
-7.70914e-06
-7.93626e-06
-8.18093e-06
2.42014e-06
1.93825e-06
1.46719e-06
1.00778e-06
5.60781e-07
1.26906e-07
-2.93193e-07
-6.98926e-07
-1.08977e-06
-1.46528e-06
-1.82508e-06
-2.16887e-06
-2.49645e-06
-2.80771e-06
-3.1026e-06
-3.38119e-06
-3.64365e-06
-3.89023e-06
-4.12133e-06
-4.33734e-06
-4.53899e-06
-4.72662e-06
-4.90045e-06
-5.06091e-06
-5.21061e-06
-5.35027e-06
-5.48061e-06
-5.60311e-06
-5.71978e-06
-5.83245e-06
-5.94277e-06
-6.05248e-06
-6.1633e-06
-6.27701e-06
-6.39534e-06
-6.52e-06
-6.65268e-06
-6.79497e-06
-6.94841e-06
-7.11444e-06
-7.29439e-06
-7.48947e-06
-7.70073e-06
-7.92908e-06
-8.1753e-06
2.41348e-06
1.92873e-06
1.45512e-06
9.93467e-07
5.44552e-07
1.09096e-07
-3.12238e-07