/*--------------------------------*- C++ -*----------------------------------*\
| =========                 |                                                 |
| \\      /  F ield         | OpenFOAM: The Open Source CFD Toolbox           |
|  \\    /   O peration     | Version:  2312                                  |
|   \\  /    A nd           | Website:  www.openfoam.com                      |
|    \\/     M anipulation  |                                                 |
\*---------------------------------------------------------------------------*/
FoamFile
{
    version     2.0;
    format      ascii;
    arch        "LSB;label=32;scalar=64";
    class       surfaceScalarField;
    location    "40.25";
    object      phi;
}
// * * * * * * * * * * * * * * * * * * * * * * * * * * * * * * * * * * * * * //

dimensions      [0 3 -1 0 0 0 0];

oriented        oriented;

internalField   nonuniform List<scalar> 
9445
(
6.0241e-10
7.2658e-12
5.99281e-10
3.12827e-12
5.9855e-10
7.31702e-13
5.99357e-10
-8.07624e-13
6.01306e-10
-1.94849e-12
6.04041e-10
-2.7351e-12
6.07595e-10
-3.55417e-12
6.12072e-10
-4.47724e-12
6.17671e-10
-5.59828e-12
6.24834e-10
-7.16363e-12
6.3475e-10
-9.91595e-12
6.51128e-10
-1.63779e-11
6.87155e-10
-3.60265e-11
7.89697e-10
-1.02542e-10
-2.65975e-10
1.05567e-09
2.10831e-09
3.25059e-11
2.09658e-09
1.48586e-11
2.09279e-09
4.52238e-12
2.09409e-09
-2.10632e-12
2.09906e-09
-6.92149e-12
2.10675e-09
-1.04193e-11
2.1171e-09
-1.3908e-11
2.13034e-09
-1.7719e-11
2.14707e-09
-2.23241e-11
2.16858e-09
-2.86818e-11
2.19792e-09
-3.92506e-11
2.24228e-09
-6.07337e-11
2.31558e-09
-1.09327e-10
2.43129e-09
-2.18262e-10
-3.87364e-10
2.55268e-09
4.16751e-09
8.15583e-11
4.14346e-09
3.89026e-11
4.13423e-09
1.37558e-11
4.13452e-09
-2.40018e-12
4.14156e-09
-1.39623e-11
4.1537e-09
-2.25549e-11
4.17074e-09
-3.09509e-11
4.19279e-09
-3.97674e-11
4.22064e-09
-5.01715e-11
4.25597e-09
-6.40154e-11
4.3019e-09
-8.51749e-11
4.36329e-09
-1.22132e-10
4.44299e-09
-1.89022e-10
4.52655e-09
-3.01819e-10
-4.36543e-10
4.57573e-09
6.93007e-09
1.60661e-10
6.88941e-09
7.95656e-11
6.87164e-09
3.15199e-11
6.86873e-09
5.10495e-13
6.87618e-09
-2.14086e-11
6.8914e-09
-3.77725e-11
6.91403e-09
-5.35849e-11
6.9437e-09
-6.94415e-11
6.98096e-09
-8.74262e-11
7.02701e-09
-1.10067e-10
7.08329e-09
-1.41452e-10
7.14964e-09
-1.88485e-10
7.2194e-09
-2.5878e-10
7.27166e-09
-3.54084e-10
-4.48033e-10
7.28315e-09
1.05754e-08
2.75107e-10
1.0514e-08
1.40974e-10
1.04843e-08
6.11789e-11
1.04755e-08
9.31992e-12
1.04811e-08
-2.69772e-11
1.04973e-08
-5.3956e-11
1.05233e-08
-7.95996e-11
1.05581e-08
-1.04245e-10
1.06014e-08
-1.30719e-10
1.06531e-08
-1.61823e-10
1.07123e-08
-2.00635e-10
1.07746e-08
-2.50722e-10
1.08293e-08
-3.13477e-10
1.0859e-08
-3.83796e-10
-4.42381e-10
1.08533e-08
1.53122e-08
4.26469e-10
1.52278e-08
2.25331e-10
1.51839e-08
1.05063e-10
1.51666e-08
2.66598e-11
1.51677e-08
-2.80972e-11
1.51827e-08
-6.89088e-11
1.52091e-08
-1.06001e-10
1.52454e-08
-1.40555e-10
1.52901e-08
-1.75496e-10
1.53417e-08
-2.13383e-10
1.53968e-08
-2.55751e-10
1.54491e-08
-3.03036e-10
1.54887e-08
-3.53033e-10
1.55045e-08
-3.9962e-10
-4.31881e-10
1.5494e-08
2.13741e-08
6.07964e-10
2.12697e-08
3.29801e-10
2.12123e-08
1.62398e-10
2.11858e-08
5.31723e-11
2.1181e-08
-2.32955e-11
2.11927e-08
-8.06202e-11
2.12167e-08
-1.2999e-10
2.12507e-08
-1.74543e-10
2.12922e-08
-2.16995e-10
2.1338e-08
-2.5921e-10
2.13837e-08
-3.01433e-10
2.14231e-08
-3.42369e-10
2.1449e-08
-3.78998e-10
2.14564e-08
-4.06993e-10
-4.21537e-10
2.14461e-08
2.90116e-08
7.98277e-10
2.88994e-08
4.42036e-10
2.88358e-08
2.25994e-10
2.88042e-08
8.47434e-11
2.87953e-08
-1.43464e-11
2.88034e-08
-8.87466e-11
2.88237e-08
-1.50261e-10
2.88528e-08
-2.03698e-10
2.88875e-08
-2.51708e-10
2.89239e-08
-2.95528e-10
2.89572e-08
-3.3482e-10
2.8983e-08
-3.68095e-10
2.89972e-08
-3.93237e-10
2.89985e-08
-4.08268e-10
-4.11917e-10
2.89889e-08
3.84808e-08
9.56732e-10
3.8387e-08
5.359e-10
3.83344e-08
2.78573e-10
3.83094e-08
1.09725e-10
3.83039e-08
-8.8014e-12
3.83128e-08
-9.76426e-11
3.83314e-08
-1.68933e-10
3.83562e-08
-2.28513e-10
3.83837e-08
-2.79113e-10
3.84099e-08
-3.21763e-10
3.84314e-08
-3.56306e-10
3.84453e-08
-3.82036e-10
3.84503e-08
-3.98265e-10
3.84469e-08
-4.04865e-10
-4.02358e-10
3.84374e-08
5.00439e-08
1.02686e-09
5.0008e-08
5.71845e-10
4.99948e-08
2.91776e-10
4.9997e-08
1.07476e-10
5.00099e-08
-2.16512e-11
5.00303e-08
-1.18065e-10
5.00549e-08
-1.93513e-10
5.00807e-08
-2.54306e-10
5.01049e-08
-3.03307e-10
5.01249e-08
-3.41761e-10
5.01387e-08
-3.70144e-10
5.01455e-08
-3.88787e-10
5.01454e-08
-3.98189e-10
5.01398e-08
-3.99328e-10
-3.93477e-10
5.0131e-08
6.4002e-08
9.57142e-10
6.4065e-08
5.08816e-10
6.41236e-08
2.33167e-10
6.41785e-08
5.25379e-11
6.423e-08
-7.30844e-11
6.42777e-08
-1.65835e-10
6.43207e-08
-2.3649e-10
6.43577e-08
-2.91326e-10
6.43877e-08
-3.33254e-10
6.44098e-08
-3.63899e-10
6.44241e-08
-3.84386e-10
6.44311e-08
-3.95805e-10
6.44322e-08
-3.99321e-10
6.44292e-08
-3.96353e-10
-3.8833e-10
6.44241e-08
8.07751e-08
7.35539e-10
8.09548e-08
3.29144e-10
8.11037e-08
8.42561e-11
8.12285e-08
-7.23266e-11
8.13343e-08
-1.78882e-10
8.14232e-08
-2.54726e-10
8.14969e-08
-3.10117e-10
8.15563e-08
-3.50815e-10
8.16027e-08
-3.79627e-10
8.16373e-08
-3.98462e-10
8.16617e-08
-4.08775e-10
8.16778e-08
-4.11947e-10
8.16878e-08
-4.09289e-10
8.16936e-08
-4.02187e-10
-3.91887e-10
8.16972e-08
1.00985e-07
4.0744e-10
1.01255e-07
5.8784e-11
1.0148e-07
-1.40168e-10
1.01668e-07
-2.60711e-10
1.01825e-07
-3.36026e-10
1.01956e-07
-3.84892e-10
1.02062e-07
-4.16852e-10
1.02148e-07
-4.36858e-10
1.02216e-07
-4.47808e-10
1.0227e-07
-4.51636e-10
1.02311e-07
-4.49752e-10
1.02342e-07
-4.43415e-10
1.02367e-07
-4.33726e-10
1.02386e-07
-4.21763e-10
-4.08423e-10
1.02403e-07
1.25422e-07
4.68843e-11
1.25725e-07
-2.44774e-10
1.25983e-07
-3.97755e-10
1.26201e-07
-4.78634e-10
1.26384e-07
-5.19262e-10
1.26537e-07
-5.37877e-10
1.26664e-07
-5.43358e-10
1.26767e-07
-5.40429e-10
1.26851e-07
-5.3201e-10
1.2692e-07
-5.19934e-10
1.26975e-07
-5.05342e-10
1.27021e-07
-4.89153e-10
1.27059e-07
-4.72101e-10
1.27093e-07
-4.5484e-10
-4.37865e-10
1.27122e-07
1.54843e-07
-2.924e-10
1.55131e-07
-5.32754e-10
1.55378e-07
-6.44193e-10
1.55587e-07
-6.88134e-10
1.55765e-07
-6.96951e-10
1.55915e-07
-6.87554e-10
1.56039e-07
-6.68326e-10
1.56144e-07
-6.44454e-10
1.5623e-07
-6.18483e-10
1.56302e-07
-5.92157e-10
1.56363e-07
-5.66215e-10
1.56415e-07
-5.4118e-10
1.56461e-07
-5.175e-10
1.56501e-07
-4.9538e-10
-4.74841e-10
1.56538e-07
1.89742e-07
-5.92815e-10
1.89993e-07
-7.83843e-10
1.90206e-07
-8.57051e-10
1.90387e-07
-8.68764e-10
1.9054e-07
-8.50006e-10
1.90669e-07
-8.16377e-10
1.90777e-07
-7.77162e-10
1.90869e-07
-7.35867e-10
1.90946e-07
-6.95671e-10
1.91012e-07
-6.58058e-10
1.91069e-07
-6.2317e-10
1.91119e-07
-5.90963e-10
1.91163e-07
-5.61964e-10
1.91204e-07
-5.35957e-10
-5.1227e-10
1.91241e-07
2.30202e-07
-8.5593e-10
2.30415e-07
-9.96714e-10
2.30591e-07
-1.03264e-09
2.30738e-07
-1.01631e-09
2.30862e-07
-9.73636e-10
2.30966e-07
-9.20593e-10
2.31054e-07
-8.65444e-10
2.31129e-07
-8.10949e-10
2.31193e-07
-7.59406e-10
2.31248e-07
-7.13295e-10
2.31297e-07
-6.71531e-10
2.3134e-07
-6.33916e-10
2.31379e-07
-6.01403e-10
2.31414e-07
-5.71155e-10
-5.44415e-10
2.31446e-07
2.75747e-07
-1.08756e-09
2.75925e-07
-1.17407e-09
2.76066e-07
-1.17404e-09
2.76181e-07
-1.1317e-09
2.76277e-07
-1.06877e-09
2.76356e-07
-1.00021e-09
2.76424e-07
-9.33218e-10
2.76482e-07
-8.69485e-10
2.76533e-07
-8.09872e-10
2.76578e-07
-7.57836e-10
2.76616e-07
-7.09621e-10
2.76648e-07
-6.66706e-10
2.76678e-07
-6.31192e-10
2.76707e-07
-5.99581e-10
-5.71059e-10
2.76733e-07
3.24953e-07
-1.27527e-09
3.25085e-07
-1.30625e-09
3.25184e-07
-1.27346e-09
3.25262e-07
-1.20932e-09
3.25323e-07
-1.13008e-09
3.25373e-07
-1.05015e-09
3.25414e-07
-9.73879e-10
3.25446e-07
-9.02089e-10
3.25474e-07
-8.3784e-10
3.255e-07
-7.83709e-10
3.25525e-07
-7.34179e-10
3.25548e-07
-6.89904e-10
3.25568e-07
-6.5086e-10
3.25584e-07
-6.15713e-10
-5.83585e-10
3.25596e-07
3.7464e-07
-1.36571e-09
3.74688e-07
-1.35482e-09
3.74716e-07
-1.30121e-09
3.74733e-07
-1.22627e-09
3.74745e-07
-1.14178e-09
3.74753e-07
-1.05793e-09
3.74762e-07
-9.83321e-10
3.74773e-07
-9.13311e-10
3.74785e-07
-8.49582e-10
3.74794e-07
-7.92294e-10
3.74799e-07
-7.40043e-10
3.74802e-07
-6.92744e-10
3.74802e-07
-6.51041e-10
3.74801e-07
-6.13945e-10
-5.80601e-10
3.74798e-07
3.7246e-07
-1.39284e-09
3.72456e-07
-1.35108e-09
3.72437e-07
-1.28183e-09
3.72414e-07
-1.20323e-09
3.72392e-07
-1.11978e-09
3.72371e-07
-1.03756e-09
3.7235e-07
-9.62242e-10
3.7233e-07
-8.93004e-10
3.7231e-07
-8.29671e-10
3.7229e-07
-7.72401e-10
3.7227e-07
-7.20492e-10
3.72251e-07
-6.73273e-10
3.7223e-07
-6.3042e-10
3.72208e-07
-5.91317e-10
-5.55251e-10
3.72182e-07
3.18979e-07
-1.34684e-09
3.18919e-07
-1.2905e-09
3.18854e-07
-1.21713e-09
3.1879e-07
-1.13893e-09
3.1873e-07
-1.0597e-09
3.18676e-07
-9.83693e-10
3.18626e-07
-9.12576e-10
3.1858e-07
-8.46914e-10
3.18537e-07
-7.86575e-10
3.18496e-07
-7.31223e-10
3.18456e-07
-6.80407e-10
3.18416e-07
-6.33469e-10
3.18375e-07
-5.89855e-10
3.18333e-07
-5.4903e-10
-5.1051e-10
3.18288e-07
2.6743e-07
-1.25122e-09
2.6733e-07
-1.19069e-09
2.67233e-07
-1.12048e-09
2.67141e-07
-1.04685e-09
2.67056e-07
-9.74678e-10
2.66978e-07
-9.05559e-10
2.66906e-07
-8.40389e-10
2.66839e-07
-7.79638e-10
2.66775e-07
-7.23341e-10
2.66715e-07
-6.70754e-10
2.66656e-07
-6.21909e-10
2.66599e-07
-5.75799e-10
2.66541e-07
-5.32302e-10
2.66483e-07
-4.90858e-10
-4.51065e-10
2.66424e-07
2.20447e-07
-1.12117e-09
2.20319e-07
-1.06245e-09
2.20196e-07
-9.97709e-10
2.20081e-07
-9.31697e-10
2.19974e-07
-8.67465e-10
2.19874e-07
-8.06181e-10
2.19782e-07
-7.48238e-10
2.19696e-07
-6.93726e-10
2.19616e-07
-6.42462e-10
2.19539e-07
-5.94178e-10
2.19465e-07
-5.48241e-10
2.19394e-07
-5.0449e-10
2.19324e-07
-4.62445e-10
2.19255e-07
-4.21835e-10
-3.82351e-10
2.19186e-07
1.79137e-07
-9.61236e-10
1.78985e-07
-9.10291e-10
1.78843e-07
-8.55242e-10
1.78711e-07
-7.99551e-10
1.78589e-07
-7.45339e-10
1.78476e-07
-6.93405e-10
1.78371e-07
-6.43901e-10
1.78274e-07
-5.96743e-10
1.78184e-07
-5.51777e-10
1.78098e-07
-5.08722e-10
1.78017e-07
-4.6725e-10
1.7794e-07
-4.27119e-10
1.77866e-07
-3.8806e-10
1.77794e-07
-3.49862e-10
-3.12334e-10
1.77724e-07
1.43734e-07
-7.91279e-10
1.43575e-07
-7.50692e-10
1.43427e-07
-7.07216e-10
1.4329e-07
-6.63305e-10
1.43165e-07
-6.20263e-10
1.4305e-07
-5.78534e-10
1.42945e-07
-5.38195e-10
1.42847e-07
-4.99183e-10
1.42757e-07
-4.61394e-10
1.42673e-07
-4.24635e-10
1.42594e-07
-3.88721e-10
1.42521e-07
-3.53476e-10
1.42451e-07
-3.18755e-10
1.42386e-07
-2.84416e-10
-2.50355e-10
1.42324e-07
1.14018e-07
-6.29723e-10
1.13868e-07
-6.00475e-10
1.1373e-07
-5.68827e-10
1.13603e-07
-5.36568e-10
1.13487e-07
-5.04436e-10
1.13381e-07
-4.72695e-10
1.13285e-07
-4.41446e-10
1.13196e-07
-4.10695e-10
1.13115e-07
-3.80376e-10
1.13041e-07
-3.5038e-10
1.12973e-07
-3.20596e-10
1.1291e-07
-2.90952e-10
1.12853e-07
-2.61384e-10
1.128e-07
-2.31828e-10
-2.02192e-10
1.12752e-07
8.95136e-08
-4.89271e-10
8.93835e-08
-4.7039e-10
8.9264e-08
-4.49296e-10
8.91548e-08
-4.27324e-10
8.90552e-08
-4.0484e-10
8.89645e-08
-3.82034e-10
8.88821e-08
-3.59062e-10
8.88074e-08
-3.35971e-10
8.87398e-08
-3.12732e-10
8.86787e-08
-2.89285e-10
8.86236e-08
-2.65574e-10
8.85743e-08
-2.41596e-10
8.85303e-08
-2.17355e-10
8.84913e-08
-1.92856e-10
-1.6807e-10
8.84572e-08
6.95966e-08
-3.74176e-10
6.94897e-08
-3.63579e-10
6.93914e-08
-3.50966e-10
6.93014e-08
-3.37278e-10
6.92192e-08
-3.22633e-10
6.91443e-08
-3.07213e-10
6.90765e-08
-2.91207e-10
6.90152e-08
-2.74692e-10
6.89601e-08
-2.57649e-10
6.89109e-08
-2.40045e-10
6.88672e-08
-2.21861e-10
6.88287e-08
-2.03132e-10
6.87953e-08
-1.83913e-10
6.87667e-08
-1.64252e-10
-1.44194e-10
6.87428e-08
5.35904e-08
-2.82766e-10
5.3505e-08
-2.78096e-10
5.34257e-08
-2.71715e-10
5.33526e-08
-2.64164e-10
5.32854e-08
-2.55428e-10
5.32239e-08
-2.45702e-10
5.31679e-08
-2.35186e-10
5.31171e-08
-2.23956e-10
5.30715e-08
-2.11998e-10
5.30307e-08
-1.99282e-10
5.29947e-08
-1.85815e-10
5.29632e-08
-1.7166e-10
5.29362e-08
-1.56883e-10
5.29135e-08
-1.41563e-10
-1.25762e-10
5.2895e-08
4.08404e-08
-2.10908e-10
4.07723e-08
-2.1005e-10
4.07085e-08
-2.07854e-10
4.06488e-08
-2.04488e-10
4.05933e-08
-1.99898e-10
4.05419e-08
-1.94292e-10
4.04945e-08
-1.87849e-10
4.04512e-08
-1.80631e-10
4.04118e-08
-1.72622e-10
4.03764e-08
-1.63796e-10
4.03447e-08
-1.5417e-10
4.03169e-08
-1.43811e-10
4.02928e-08
-1.32794e-10
4.02724e-08
-1.212e-10
-1.09085e-10
4.02557e-08
3.07573e-08
-1.54387e-10
3.07029e-08
-1.5568e-10
3.06511e-08
-1.55999e-10
3.06018e-08
-1.55222e-10
3.05552e-08
-1.53323e-10
3.05114e-08
-1.50502e-10
3.04705e-08
-1.46903e-10
3.04324e-08
-1.42569e-10
3.03973e-08
-1.37482e-10
3.03651e-08
-1.31618e-10
3.03359e-08
-1.24998e-10
3.03098e-08
-1.1768e-10
3.02868e-08
-1.09736e-10
3.02668e-08
-1.01235e-10
-9.22263e-11
3.02499e-08
2.28349e-08
-1.099e-10
2.27914e-08
-1.12157e-10
2.27491e-08
-1.13731e-10
2.27083e-08
-1.14342e-10
2.26689e-08
-1.14018e-10
2.26314e-08
-1.12929e-10
2.25957e-08
-1.11181e-10
2.25619e-08
-1.08804e-10
2.25302e-08
-1.05776e-10
2.25006e-08
-1.02077e-10
2.24734e-08
-9.77244e-11
2.24484e-08
-9.27648e-11
2.2426e-08
-8.72563e-11
2.2406e-08
-8.12527e-11
-7.47954e-11
2.23886e-08
1.66499e-08
-7.5138e-11
1.66153e-08
-7.75764e-11
1.65811e-08
-7.95307e-11
1.65475e-08
-8.06946e-11
1.65146e-08
-8.1145e-11
1.64827e-08
-8.10103e-11
1.64519e-08
-8.03644e-11
1.64223e-08
-7.92234e-11
1.63941e-08
-7.75688e-11
1.63674e-08
-7.53829e-11
1.63423e-08
-7.26757e-11
1.63191e-08
-6.94818e-11
1.62976e-08
-6.58445e-11
1.62782e-08
-6.18007e-11
-5.73818e-11
1.62608e-08
1.18538e-08
-4.85057e-11
1.18269e-08
-5.06558e-11
1.17998e-08
-5.24448e-11
1.17727e-08
-5.36398e-11
1.17459e-08
-5.43374e-11
1.17196e-08
-5.46241e-11
1.16937e-08
-5.45477e-11
1.16686e-08
-5.41168e-11
1.16444e-08
-5.33158e-11
1.16211e-08
-5.21299e-11
1.1599e-08
-5.05638e-11
1.15782e-08
-4.86395e-11
1.15587e-08
-4.63867e-11
1.15407e-08
-4.38281e-11
-4.09839e-11
1.15243e-08
8.1626e-09
-2.88031e-11
8.14237e-09
-3.04324e-11
8.12171e-09
-3.17792e-11
8.1008e-09
-3.27278e-11
8.07982e-09
-3.33657e-11
8.05894e-09
-3.37436e-11
8.03829e-09
-3.38898e-11
8.01798e-09
-3.38086e-11
7.99815e-09
-3.34884e-11
7.97894e-09
-3.29177e-11
7.96047e-09
-3.20977e-11
7.94287e-09
-3.10404e-11
7.92625e-09
-2.97642e-11
7.9107e-09
-2.8281e-11
-2.66003e-11
7.89632e-09
5.34626e-09
-1.50129e-11
5.33189e-09
-1.60633e-11
5.31701e-09
-1.68951e-11
5.30178e-09
-1.75004e-11
5.28635e-09
-1.79394e-11
5.27085e-09
-1.82366e-11
5.25536e-09
-1.84065e-11
5.24001e-09
-1.84509e-11
5.22488e-09
-1.83626e-11
5.2101e-09
-1.81338e-11
5.19576e-09
-1.7764e-11
5.18198e-09
-1.72583e-11
5.16884e-09
-1.66269e-11
5.15644e-09
-1.58745e-11
-1.50019e-11
5.14484e-09
3.21945e-09
-6.19732e-12
3.21013e-09
-6.7347e-12
3.20035e-09
-7.11955e-12
3.19026e-09
-7.40795e-12
3.17995e-09
-7.62846e-12
3.1695e-09
-7.78921e-12
3.15899e-09
-7.89553e-12
3.14849e-09
-7.94785e-12
3.13807e-09
-7.9427e-12
3.12781e-09
-7.87593e-12
3.11779e-09
-7.74667e-12
3.10809e-09
-7.55645e-12
3.09877e-09
-7.30968e-12
3.0899e-09
-7.00741e-12
-6.64564e-12
3.08155e-09
1.63345e-09
-1.47054e-12
1.62836e-09
-1.64257e-12
1.62298e-09
-1.73496e-12
1.61738e-09
-1.80834e-12
1.61162e-09
-1.86801e-12
1.60574e-09
-1.91421e-12
1.59979e-09
-1.94746e-12
1.59381e-09
-1.96749e-12
1.58784e-09
-1.97326e-12
1.58193e-09
-1.96348e-12
1.57612e-09
-1.93781e-12
1.57046e-09
-1.89644e-12
1.56499e-09
-1.8405e-12
1.55976e-09
-1.76992e-12
-1.68036e-12
1.55479e-09
4.69391e-10
4.67748e-10
4.66013e-10
4.64205e-10
4.62337e-10
4.60423e-10
4.58475e-10
4.56508e-10
4.54535e-10
4.52571e-10
4.50633e-10
4.48737e-10
4.46896e-10
4.45126e-10
4.43446e-10
1.26369e-09
-5.08831e-10
3.00814e-10
1.56214e-09
-4.33098e-10
1.34647e-10
1.86363e-09
-2.91347e-10
-1.01416e-11
2.16085e-09
-1.51537e-10
-1.45681e-10
2.45152e-09
-2.10411e-11
-2.69633e-10
2.73596e-09
8.99839e-11
-3.74419e-10
3.01513e-09
1.77655e-10
-4.56833e-10
3.28981e-09
2.38424e-10
-5.13101e-10
3.56064e-09
2.68494e-10
-5.39318e-10
3.82808e-09
2.64275e-10
-5.31717e-10
4.09245e-09
2.22125e-10
-4.86497e-10
4.35396e-09
1.38397e-10
-3.99912e-10
4.61259e-09
1.06452e-11
-2.69267e-10
4.86831e-09
-1.6175e-10
-9.39695e-11
5.12109e-09
-3.74126e-10
1.21345e-10
5.37143e-09
-6.13238e-10
3.6289e-10
5.62087e-09
-8.52265e-10
6.02824e-10
5.87297e-09
-1.04193e-09
7.89829e-10
6.13428e-09
-1.11161e-09
8.50305e-10
6.41505e-09
-9.60172e-10
6.79396e-10
6.72828e-09
-4.90219e-10
1.76992e-10
7.08514e-09
3.63727e-10
-7.20587e-10
7.429e-09
1.24664e-09
-1.5905e-09
7.72554e-09
1.70851e-09
-2.00504e-09
7.96653e-09
1.79059e-09
-2.03158e-09
8.15033e-09
1.58933e-09
-1.77314e-09
8.27846e-09
1.20366e-09
-1.33179e-09
8.35275e-09
7.07203e-10
-7.81495e-10
8.37448e-09
1.52141e-10
-1.7387e-10
8.3442e-09
-4.16279e-10
4.46553e-10
8.26235e-09
-9.55985e-10
1.03784e-09
8.12993e-09
-1.42784e-09
1.56027e-09
7.94891e-09
-1.7978e-09
1.97882e-09
7.72226e-09
-2.03968e-09
2.26633e-09
7.45365e-09
-2.13678e-09
2.40538e-09
7.14698e-09
-2.08148e-09
2.38816e-09
6.80591e-09
-1.87333e-09
2.2144e-09
6.43378e-09
-1.51546e-09
1.88759e-09
6.03391e-09
-1.00998e-09
1.40984e-09
5.60984e-09
-3.54192e-10
7.78268e-10
5.16147e-09
4.55898e-10
-7.53436e-12
4.68203e-09
1.40186e-09
-9.22423e-10
4.1525e-09
2.37561e-09
-1.84608e-09
3.57759e-09
3.11695e-09
-2.54204e-09
2.91493e-09
3.23859e-09
-2.57593e-09
2.63538e-09
-5.91526e-10
2.81357e-09
-6.11285e-10
3.05586e-09
-5.33643e-10
3.3266e-09
-4.22271e-10
3.61061e-09
-3.05057e-10
3.89959e-09
-1.98998e-10
4.18981e-09
-1.12563e-10
4.47942e-09
-5.11839e-11
4.76756e-09
-1.96436e-11
5.05373e-09
-2.18994e-11
5.3376e-09
-6.17479e-11
5.6189e-09
-1.42899e-10
5.8973e-09
-2.67757e-10
6.17231e-09
-4.36756e-10
6.44368e-09
-6.45503e-10
6.71164e-09
-8.81197e-10
6.97751e-09
-1.11814e-09
7.24482e-09
-1.30923e-09
7.52033e-09
-1.38712e-09
7.81499e-09
-1.25484e-09
8.14304e-09
-8.18271e-10
8.51758e-09
-1.08062e-11
8.88104e-09
8.83176e-10
9.19751e-09
1.39203e-09
9.45762e-09
1.53048e-09
9.65873e-09
1.38822e-09
9.8016e-09
1.06079e-09
9.88748e-09
6.21323e-10
9.91728e-09
1.22343e-10
9.89143e-09
-3.90426e-10
9.81045e-09
-8.75008e-10
9.67571e-09
-1.2931e-09
9.4898e-09
-1.61189e-09
9.25663e-09
-1.80651e-09
8.98116e-09
-1.86131e-09
8.66906e-09
-1.76938e-09
8.32651e-09
-1.53078e-09
7.96049e-09
-1.14945e-09
7.58002e-09
-6.29506e-10
7.19885e-09
2.69738e-11
6.83585e-09
8.18899e-10
6.51811e-09
1.71961e-09
6.27821e-09
2.61551e-09
6.16382e-09
3.23134e-09
2.99685e-09
6.0819e-09
4.59266e-09
-6.08461e-10
4.67276e-09
-6.91387e-10
4.82832e-09
-6.892e-10
5.04084e-09
-6.34787e-10
5.28895e-09
-5.53171e-10
5.55858e-09
-4.68632e-10
5.8409e-09
-3.94876e-10
6.13041e-09
-3.40692e-10
6.42379e-09
-3.13022e-10
6.71881e-09
-3.16924e-10
7.01391e-09
-3.56847e-10
7.30792e-09
-4.36913e-10
7.59981e-09
-5.5964e-10
7.88848e-09
-7.25425e-10
8.17315e-09
-9.30173e-10
8.45358e-09
-1.16163e-09
8.73074e-09
-1.3953e-09
9.00793e-09
-1.58642e-09
9.292e-09
-1.67118e-09
9.59444e-09
-1.55728e-09
9.93071e-09
-1.15454e-09
1.0316e-08
-3.96075e-10
1.06933e-08
5.0589e-10
1.10256e-08
1.05974e-09
1.13021e-08
1.25395e-09
1.1519e-08
1.1713e-09
1.16761e-08
9.03726e-10
1.17737e-08
5.23727e-10
1.18122e-08
8.38126e-11
1.17919e-08
-3.70121e-10
1.17134e-08
-7.96503e-10
1.15785e-08
-1.15819e-09
1.13906e-08
-1.42397e-09
1.11547e-08
-1.57064e-09
1.08775e-08
-1.58405e-09
1.05667e-08
-1.4586e-09
1.02316e-08
-1.19568e-09
9.88348e-09
-8.01351e-10
9.53786e-09
-2.83887e-10
9.21743e-09
3.47399e-10
8.95778e-09
1.07855e-09
8.80526e-09
1.87214e-09
8.80124e-09
2.61952e-09
8.936e-09
3.09658e-09
2.92317e-09
9.00968e-09
7.26386e-09
-5.8917e-10
7.27887e-09
-7.06396e-10
7.35042e-09
-7.60751e-10
7.48441e-09
-7.68777e-10
7.67122e-09
-7.39977e-10
7.89536e-09
-6.9278e-10
8.14584e-09
-6.45353e-10
8.4143e-09
-6.09155e-10
8.69488e-09
-5.93594e-10
8.98317e-09
-6.05213e-10
9.2759e-09
-6.49585e-10
9.57064e-09
-7.31645e-10
9.8652e-09
-8.54204e-10
1.01576e-08
-1.01784e-09
1.04463e-08
-1.21886e-09
1.07303e-08
-1.44565e-09
1.101e-08
-1.67502e-09
1.12883e-08
-1.86471e-09
1.15719e-08
-1.95477e-09
1.18727e-08
-1.85804e-09
1.22071e-08
-1.489e-09
1.25926e-08
-7.81589e-10
1.29748e-08
1.23759e-10
1.33161e-08
7.18464e-10
1.36041e-08
9.65876e-10
1.38336e-08
9.41822e-10
1.40029e-08
7.34388e-10
1.41114e-08
4.15286e-10
1.41586e-08
3.65556e-11
1.41446e-08
-3.56131e-10
1.40701e-08
-7.22006e-10
1.39375e-08
-1.02552e-09
1.37509e-08
-1.23744e-09
1.3517e-08
-1.33668e-09
1.3244e-08
-1.31106e-09
1.29423e-08
-1.15693e-09
1.26244e-08
-8.77818e-10
1.2306e-08
-4.82898e-10
1.20077e-08
1.43999e-11
1.17587e-08
5.96366e-10
1.16003e-08
1.23702e-09
1.15803e-08
1.89205e-09
1.17286e-08
2.4713e-09
1.20044e-08
2.82077e-09
2.73949e-09
1.21881e-08
1.08201e-08
-5.5597e-10
1.07958e-08
-6.82035e-10
1.0806e-08
-7.71033e-10
1.08623e-08
-8.24987e-10
1.09728e-08
-8.50531e-10
1.11305e-08
-8.50498e-10
1.13254e-08
-8.40266e-10
1.1549e-08
-8.32737e-10
1.17942e-08
-8.38816e-10
1.2055e-08
-8.6593e-10
1.23263e-08
-9.20874e-10
1.26042e-08
-1.00962e-09
1.28853e-08
-1.13532e-09
1.31664e-08
-1.29893e-09
1.34449e-08
-1.49733e-09
1.37188e-08
-1.7196e-09
1.39878e-08
-1.944e-09
1.4254e-08
-2.13092e-09
1.45238e-08
-2.22453e-09
1.48091e-08
-2.14336e-09
1.51274e-08
-1.80729e-09
1.54981e-08
-1.15231e-09
1.5872e-08
-2.50062e-10
1.62118e-08
3.78633e-10
1.65034e-08
6.74261e-10
1.67396e-08
7.05646e-10
1.69172e-08
5.5678e-10
1.7034e-08
2.9849e-10
1.70888e-08
-1.82467e-11
1.70811e-08
-3.48469e-10
1.70118e-08
-6.52694e-10
1.68837e-08
-8.97454e-10
1.67023e-08
-1.05599e-09
1.64754e-08
-1.10974e-09
1.62133e-08
-1.04902e-09
1.5929e-08
-8.72594e-10
1.56379e-08
-5.8673e-10
1.53592e-08
-2.04223e-10
1.51165e-08
2.57141e-10
1.49405e-08
7.72365e-10
1.48685e-08
1.309e-09
1.49378e-08
1.82275e-09
1.51614e-08
2.24775e-09
1.54885e-08
2.49361e-09
2.47081e-09
1.57572e-08
1.54601e-08
-5.22077e-10
1.54181e-08
-6.40044e-10
1.53913e-08
-7.44177e-10
1.5392e-08
-8.25711e-10
1.54312e-08
-8.8978e-10
1.55128e-08
-9.32076e-10
1.56371e-08
-9.64522e-10
1.57955e-08
-9.91188e-10
1.59831e-08
-1.02638e-09
1.61932e-08
-1.07608e-09
1.64204e-08
-1.14801e-09
1.66596e-08
-1.24888e-09
1.69062e-08
-1.38187e-09
1.71557e-08
-1.54843e-09
1.74044e-08
-1.74607e-09
1.76494e-08
-1.96457e-09
1.78892e-08
-2.18376e-09
1.8125e-08
-2.36671e-09
1.83625e-08
-2.46208e-09
1.86137e-08
-2.3945e-09
1.88964e-08
-2.09e-09
1.9232e-08
-1.48792e-09
1.95794e-08
-5.97483e-10
1.9903e-08
5.50658e-11
2.01863e-08
3.9096e-10
2.04199e-08
4.71994e-10
2.05989e-08
3.77783e-10
2.07192e-08
1.78212e-10
2.07785e-08
-7.75299e-11
2.07757e-08
-3.45751e-10
2.07118e-08
-5.88795e-10
2.05902e-08
-7.75842e-10
2.04173e-08
-8.83078e-10
2.02025e-08
-8.94924e-10
1.9958e-08
-8.04543e-10
1.96989e-08
-6.13442e-10
1.94427e-08
-3.30592e-10
1.92111e-08
2.74714e-11
1.9027e-08
4.41206e-10
1.89184e-08
8.80915e-10
1.89132e-08
1.31423e-09
1.90331e-08
1.70283e-09
1.92776e-08
2.00322e-09
1.96016e-08
2.16969e-09
2.16923e-09
1.99031e-08
2.14174e-08
-4.93414e-10
2.13746e-08
-5.97278e-10
2.13307e-08
-7.00223e-10
2.12994e-08
-7.94467e-10
2.12893e-08
-8.79608e-10
2.13076e-08
-9.5043e-10
2.13595e-08
-1.01646e-09
2.14446e-08
-1.07628e-09
2.15603e-08
-1.14202e-09
2.17013e-08
-1.21713e-09
2.18633e-08
-1.30999e-09
2.20415e-08
-1.42705e-09
2.22303e-08
-1.5707e-09
2.24248e-08
-1.74294e-09
2.26205e-08
-1.94173e-09
2.28132e-08
-2.15731e-09
2.30006e-08
-2.37114e-09
2.31829e-08
-2.54899e-09
2.33649e-08
-2.64414e-09
2.35582e-08
-2.58779e-09
2.37809e-08
-2.31263e-09
2.40556e-08
-1.76271e-09
2.43533e-08
-8.95182e-10
2.4641e-08
-2.32581e-10
2.48996e-08
1.32303e-10
2.51174e-08
2.54193e-10
2.52873e-08
2.07953e-10
2.54029e-08
6.25473e-11
2.54609e-08
-1.35518e-10
2.54596e-08
-3.44401e-10
2.53996e-08
-5.2883e-10
2.5285e-08
-6.61234e-10
2.51231e-08
-7.21206e-10
2.49247e-08
-6.96476e-10
2.47034e-08
-5.8326e-10
2.44758e-08
-3.85808e-10
2.42607e-08
-1.15566e-10
2.40784e-08
2.09787e-10
2.39515e-08
5.68142e-10
2.39005e-08
9.31926e-10
2.39425e-08
1.27218e-09
2.40857e-08
1.55971e-09
2.43207e-08
1.76817e-09
2.46128e-08
1.87762e-09
1.88035e-09
2.49017e-08
2.8966e-08
-4.70511e-10
2.89292e-08
-5.60483e-10
2.88843e-08
-6.55309e-10
2.88397e-08
-7.49939e-10
2.8802e-08
-8.4193e-10
2.87803e-08
-9.28722e-10
2.87779e-08
-1.01401e-09
2.87983e-08
-1.09672e-09
2.88422e-08
-1.18591e-09
2.89086e-08
-1.28355e-09
2.89943e-08
-1.39565e-09
2.90958e-08
-1.52852e-09
2.92079e-08
-1.68288e-09
2.93264e-08
-1.86137e-09
2.94462e-08
-2.06159e-09
2.95628e-08
-2.27391e-09
2.96731e-08
-2.4814e-09
2.97764e-08
-2.65233e-09
2.9877e-08
-2.74467e-09
2.99856e-08
-2.6964e-09
3.01202e-08
-2.44725e-09
3.03044e-08
-1.94694e-09
3.05248e-08
-1.11554e-09
3.07525e-08
-4.60284e-10
3.09658e-08
-8.10447e-11
3.11502e-08
6.98316e-11
3.12962e-08
6.19388e-11
3.13953e-08
-3.65699e-11
3.14428e-08
-1.83021e-10
3.14363e-08
-3.37894e-10
3.13763e-08
-4.68815e-10
3.12671e-08
-5.52053e-10
3.11169e-08
-5.70968e-10
3.09372e-08
-5.16772e-10
3.07426e-08
-3.8867e-10
3.055e-08
-1.93233e-10
3.03779e-08
5.65141e-11
3.02447e-08
3.43034e-10
3.01683e-08
6.44518e-10
3.01625e-08
9.3769e-10
3.02351e-08
1.19959e-09
3.03847e-08
1.41012e-09
3.05983e-08
1.55464e-09
3.08497e-08
1.62614e-09
1.62672e-09
3.11034e-08
3.84185e-08
-4.51584e-10
3.83879e-08
-5.29969e-10
3.83478e-08
-6.15191e-10
3.83022e-08
-7.04319e-10
3.82555e-08
-7.9527e-10
3.82134e-08
-8.86604e-10
3.81787e-08
-9.79288e-10
3.8156e-08
-1.07406e-09
3.81455e-08
-1.17539e-09
3.81484e-08
-1.28642e-09
3.81625e-08
-1.40974e-09
3.81852e-08
-1.55127e-09
3.82149e-08
-1.71256e-09
3.82471e-08
-1.89353e-09
3.82769e-08
-2.09144e-09
3.83e-08
-2.29697e-09
3.83132e-08
-2.49463e-09
3.83157e-08
-2.65482e-09
3.83111e-08
-2.74003e-09
3.83098e-08
-2.69512e-09
3.83294e-08
-2.46683e-09
3.83935e-08
-2.01109e-09
3.85078e-08
-1.22986e-09
3.86495e-08
-6.01958e-10
3.87942e-08
-2.25769e-10
3.89244e-08
-6.03414e-11
3.90285e-08
-4.21066e-11
3.90954e-08
-1.0348e-10
3.91196e-08
-2.07288e-10
3.90981e-08
-3.16401e-10
3.9031e-08
-4.01697e-10
3.89228e-08
-4.43864e-10
3.87821e-08
-4.30185e-10
3.86206e-08
-3.5527e-10
3.84529e-08
-2.20999e-10
3.82953e-08
-3.56051e-11
3.81639e-08
1.87905e-10
3.80743e-08
4.32617e-10
3.80389e-08
6.79852e-10
3.80654e-08
9.11197e-10
3.81549e-08
1.1101e-09
3.83011e-08
1.2639e-09
3.84906e-08
1.36522e-09
3.87038e-08
1.41293e-09
1.41178e-09
3.89187e-08
5.01152e-08
-4.35865e-10
5.00901e-08
-5.04856e-10
5.0056e-08
-5.81022e-10
5.00145e-08
-6.62848e-10
4.99682e-08
-7.48945e-10
4.99199e-08
-8.38333e-10
4.98718e-08
-9.31238e-10
4.98264e-08
-1.02858e-09
4.97837e-08
-1.1327e-09
4.97437e-08
-1.24642e-09
4.9706e-08
-1.37209e-09
4.96679e-08
-1.51315e-09
4.96266e-08
-1.67128e-09
4.95788e-08
-1.84573e-09
4.95207e-08
-2.03334e-09
4.94482e-08
-2.2244e-09
4.93584e-08
-2.4049e-09
4.92507e-08
-2.5471e-09
4.91285e-08
-2.61786e-09
4.90021e-08
-2.56872e-09
4.88887e-08
-2.3534e-09
4.88114e-08
-1.93377e-09
4.87966e-08
-1.21508e-09
4.88293e-08
-6.3464e-10
4.88837e-08
-2.80172e-10
4.89391e-08
-1.15712e-10
4.89818e-08
-8.48903e-11
4.89991e-08
-1.20755e-10
4.89851e-08
-1.93316e-10
4.89362e-08
-2.67433e-10
4.88521e-08
-3.17617e-10
4.87375e-08
-3.293e-10
4.86009e-08
-2.93524e-10
4.84535e-08
-2.07939e-10
4.8309e-08
-7.64582e-11
4.81817e-08
9.16917e-11
4.80846e-08
2.85057e-10
4.80293e-08
4.87895e-10
4.80233e-08
6.85862e-10
4.80692e-08
8.65231e-10
4.81645e-08
1.01488e-09
4.8301e-08
1.12737e-09
4.84667e-08
1.19953e-09
4.86471e-08
1.23252e-09
1.23104e-09
4.88278e-08
6.44136e-08
-4.25339e-10
6.43952e-08
-4.86535e-10
6.43688e-08
-5.54555e-10
6.43347e-08
-6.28744e-10
6.4294e-08
-7.083e-10
6.42483e-08
-7.92587e-10
6.41986e-08
-8.81569e-10
6.41458e-08
-9.758e-10
6.40897e-08
-1.07661e-09
6.40293e-08
-1.18595e-09
6.39629e-08
-1.30571e-09
6.38875e-08
-1.43778e-09
6.37997e-08
-1.58346e-09
6.36953e-08
-1.74128e-09
6.35701e-08
-1.90823e-09
6.342e-08
-2.07429e-09
6.32422e-08
-2.2271e-09
6.30359e-08
-2.34075e-09
6.28045e-08
-2.38646e-09
6.2558e-08
-2.32219e-09
6.23131e-08
-2.10859e-09
6.20923e-08
-1.71297e-09
6.19412e-08
-1.06393e-09
6.18534e-08
-5.46879e-10
6.18038e-08
-2.3049e-10
6.17689e-08
-8.08206e-11
6.17347e-08
-5.07207e-11
6.16902e-08
-7.62567e-11
6.16251e-08
-1.28191e-10
6.15358e-08
-1.78117e-10
6.14239e-08
-2.05786e-10
6.1294e-08
-1.99401e-10
6.11539e-08
-1.53355e-10
6.10137e-08
-6.77901e-11
6.08853e-08
5.19476e-11
6.07793e-08
1.97718e-10
6.07064e-08
3.57926e-10
6.06735e-08
5.20814e-10
6.0684e-08
6.75319e-10
6.07374e-08
8.11836e-10
6.08291e-08
9.23241e-10
6.0951e-08
1.00542e-09
6.10932e-08
1.05732e-09
6.1245e-08
1.08074e-09
1.07954e-09
6.13965e-08
8.16961e-08
-4.24287e-10
8.16884e-08
-4.78858e-10
8.16735e-08
-5.39591e-10
8.1651e-08
-6.06295e-10
8.16213e-08
-6.78592e-10
8.15848e-08
-7.56107e-10
8.1542e-08
-8.38694e-10
8.14927e-08
-9.26563e-10
8.14365e-08
-1.02036e-09
8.13716e-08
-1.12111e-09
8.12958e-08
-1.22991e-09
8.12056e-08
-1.3475e-09
8.10965e-08
-1.4744e-09
8.09635e-08
-1.60833e-09
8.08017e-08
-1.74639e-09
8.06058e-08
-1.87833e-09
8.03722e-08
-1.99359e-09
8.00996e-08
-2.06809e-09
7.97907e-08
-2.07754e-09
7.94544e-08
-1.98594e-09
7.91067e-08
-1.76088e-09
7.8769e-08
-1.37528e-09
7.84998e-08
-7.94718e-10
7.83015e-08
-3.48612e-10
7.81539e-08
-8.28384e-11
7.80322e-08
4.08629e-11
7.79167e-08
6.47755e-11
7.78008e-08
3.96315e-11
7.76773e-08
-4.67723e-12
7.75418e-08
-4.26315e-11
7.73959e-08
-5.98896e-11
7.72442e-08
-4.76293e-11
7.70937e-08
-2.86813e-12
7.69534e-08
7.24556e-11
7.68317e-08
1.73682e-10
7.67375e-08
2.91933e-10
7.66772e-08
4.18251e-10
7.66542e-08
5.438e-10
7.66691e-08
6.6042e-10
7.67193e-08
7.61602e-10
7.67996e-08
8.42891e-10
7.6903e-08
9.02071e-10
7.70213e-08
9.39029e-10
7.71466e-08
9.55452e-10
9.54233e-10
7.72719e-08
1.02415e-07
-4.36593e-10
1.02422e-07
-4.85416e-10
1.02422e-07
-5.39603e-10
1.02414e-07
-5.99179e-10
1.024e-07
-6.63997e-10
1.02378e-07
-7.33842e-10
1.02347e-07
-8.08527e-10
1.02309e-07
-8.88006e-10
1.02261e-07
-9.72406e-10
1.02202e-07
-1.06196e-09
1.02129e-07
-1.15697e-09
1.02038e-07
-1.25711e-09
1.01926e-07
-1.36207e-09
1.01786e-07
-1.46861e-09
1.01614e-07
-1.57382e-09
1.01403e-07
-1.66711e-09
1.01149e-07
-1.73958e-09
1.00849e-07
-1.76887e-09
1.00507e-07
-1.73491e-09
1.00128e-07
-1.60748e-09
9.97276e-08
-1.36023e-09
9.9325e-08
-9.72692e-10
9.8984e-08
-4.53753e-10
9.87121e-08
-7.67139e-11
9.84914e-08
1.37881e-10
9.83003e-08
2.31929e-10
9.81209e-08