/*--------------------------------*- C++ -*----------------------------------*\
| =========                 |                                                 |
| \\      /  F ield         | OpenFOAM: The Open Source CFD Toolbox           |
|  \\    /   O peration     | Version:  2312                                  |
|   \\  /    A nd           | Website:  www.openfoam.com                      |
|    \\/     M anipulation  |                                                 |
\*---------------------------------------------------------------------------*/
FoamFile
{
    version     2.0;
    format      ascii;
    arch        "LSB;label=32;scalar=64";
    class       surfaceScalarField;
    location    "185";
    object      phi;
}
// * * * * * * * * * * * * * * * * * * * * * * * * * * * * * * * * * * * * * //

dimensions      [0 3 -1 0 0 0 0];

oriented        oriented;

internalField   nonuniform List<scalar> 
9445
(
6.12472e-10
1.14156e-11
6.05439e-10
7.03309e-12
6.01226e-10
4.21281e-12
5.99014e-10
2.21221e-12
5.98345e-10
6.68841e-13
5.9898e-10
-6.35276e-13
6.00894e-10
-1.91351e-12
6.0394e-10
-3.04624e-12
6.08355e-10
-4.41489e-12
6.14606e-10
-6.25132e-12
6.23838e-10
-9.23192e-12
6.39719e-10
-1.58814e-11
6.75337e-10
-3.56179e-11
7.77421e-10
-1.02083e-10
-2.67563e-10
1.04498e-09
2.13658e-09
5.1288e-11
2.11131e-09
3.23027e-11
2.09555e-09
1.99751e-11
2.08656e-09
1.11947e-11
2.08279e-09
4.44498e-12
2.08338e-09
-1.23046e-12
2.08803e-09
-6.5573e-12
2.0964e-09
-1.14199e-11
2.10914e-09
-1.71521e-11
2.12754e-09
-2.46518e-11
2.15454e-09
-3.62338e-11
2.19726e-09
-5.86026e-11
2.2697e-09
-1.08055e-10
2.38574e-09
-2.18126e-10
-3.90939e-10
2.50912e-09
4.21308e-09
1.29163e-10
4.16268e-09
8.27029e-11
4.13032e-09
5.2336e-11
4.11085e-09
3.06665e-11
4.10125e-09
1.40477e-11
4.09985e-09
1.65622e-13
4.10576e-09
-1.24701e-11
4.11839e-09
-2.40473e-11
4.1386e-09
-3.7356e-11
4.16787e-09
-5.39292e-11
4.20915e-09
-7.75117e-11
4.26724e-09
-1.16691e-10
4.34506e-09
-1.85879e-10
4.4284e-09
-3.01459e-10
-4.40777e-10
4.47823e-09
6.99113e-09
2.55605e-10
6.90756e-09
1.66268e-10
6.85241e-09
1.07492e-10
6.81762e-09
6.54547e-11
6.79835e-09
3.33153e-11
6.79192e-09
6.60113e-12
6.79651e-09
-1.70673e-11
6.8109e-09
-3.84364e-11
6.83577e-09
-6.22274e-11
6.87194e-09
-9.00939e-11
6.92041e-09
-1.25982e-10
6.98088e-09
-1.77161e-10
7.04659e-09
-2.51589e-10
7.09642e-09
-3.5129e-10
-4.50272e-10
7.10591e-09
1.065e-08
4.40662e-10
1.05249e-08
2.91322e-10
1.04401e-08
1.92314e-10
1.03843e-08
1.21266e-10
1.03505e-08
6.70498e-11
1.03347e-08
2.24016e-11
1.0334e-08
-1.6363e-11
1.03464e-08
-5.08457e-11
1.03713e-08
-8.71051e-11
1.04082e-08
-1.26939e-10
1.04553e-08
-1.73105e-10
1.05079e-08
-2.29809e-10
1.05551e-08
-2.98793e-10
1.0579e-08
-3.75105e-10
-4.39415e-10
1.05681e-08
1.53996e-08
6.90628e-10
1.52264e-08
4.64485e-10
1.51056e-08
3.13077e-10
1.5023e-08
2.03879e-10
1.49695e-08
1.20536e-10
1.49393e-08
5.2686e-11
1.49281e-08
-5.2161e-12
1.49334e-08
-5.61418e-11
1.49524e-08
-1.06059e-10
1.49825e-08
-1.57089e-10
1.502e-08
-2.10576e-10
1.50577e-08
-2.67551e-10
1.50851e-08
-3.26196e-10
1.50905e-08
-3.80525e-10
-4.19556e-10
1.50707e-08
2.14772e-08
1.00246e-09
2.12547e-08
6.86975e-10
2.10949e-08
4.72928e-10
2.09814e-08
3.17357e-10
2.09036e-08
1.98295e-10
2.0854e-08
1.02279e-10
2.08272e-08
2.16074e-11
2.08192e-08
-4.81597e-11
2.08256e-08
-1.12436e-10
2.08419e-08
-1.73424e-10
2.08629e-08
-2.31492e-10
2.08812e-08
-2.85912e-10
2.08891e-08
-3.34116e-10
2.08806e-08
-3.7201e-10
-3.94871e-10
2.08559e-08
2.91384e-08
1.35605e-09
2.88763e-08
9.49017e-10
2.86815e-08
6.67772e-10
2.85379e-08
4.60946e-10
2.84345e-08
3.01725e-10
2.83628e-08
1.73988e-10
2.83163e-08
6.80576e-11
2.82899e-08
-2.17243e-11
2.82778e-08
-1.00381e-10
2.82746e-08
-1.70147e-10
2.82742e-08
-2.31157e-10
2.82709e-08
-2.82614e-10
2.82598e-08
-3.23002e-10
2.82386e-08
-3.5076e-10
-3.64925e-10
2.82086e-08
3.86442e-08
1.70732e-09
3.83695e-08
1.22376e-09
3.8156e-08
8.81216e-10
3.7992e-08
6.24949e-10
3.78681e-08
4.25676e-10
3.77762e-08
2.65809e-10
3.77098e-08
1.34455e-10
3.7663e-08
2.51566e-11
3.76294e-08
-6.6819e-11
3.76036e-08
-1.44393e-10
3.75803e-08
-2.07849e-10
3.75553e-08
-2.57559e-10
3.75259e-08
-2.93663e-10
3.74919e-08
-3.16688e-10
-3.27683e-10
3.74546e-08
5.0256e-08
1.99038e-09
5.00141e-08
1.46562e-09
4.98137e-08
1.08163e-09
4.96511e-08
7.87489e-10
4.95215e-08
5.55294e-10
4.94193e-08
3.68025e-10
4.9339e-08
2.14799e-10
4.92753e-08
8.8864e-11
4.92221e-08
-1.36748e-11
4.91756e-08
-9.79269e-11
4.91315e-08
-1.63746e-10
4.90874e-08
-2.13369e-10
4.9042e-08
-2.48346e-10
4.89959e-08
-2.70577e-10
-2.82076e-10
4.89503e-08
6.42613e-08
2.13952e-09
6.41053e-08
1.62157e-09
6.39593e-08
1.22765e-09
6.38299e-08
9.16858e-10
6.37186e-08
6.66586e-10
6.3624e-08
4.62661e-10
6.35431e-08
2.95732e-10
6.34723e-08
1.59575e-10
6.3409e-08
4.96825e-11
6.33488e-08
-3.77187e-11
6.32907e-08
-1.05628e-10
6.32333e-08
-1.56054e-10
6.31768e-08
-1.91826e-10
6.31218e-08
-2.15526e-10
-2.29518e-10
6.30692e-08
8.10513e-08
2.12869e-09
8.1014e-08
1.65889e-09
8.09544e-08
1.28726e-09
8.08867e-08
9.84561e-10
8.08179e-08
7.35293e-10
8.07511e-08
5.29515e-10
8.06865e-08
3.60286e-10
8.06237e-08
2.22365e-10
8.05619e-08
1.1154e-10
8.05002e-08
2.40034e-11
8.04382e-08
-4.36462e-11
8.03767e-08
-9.45885e-11
8.03163e-08
-1.31447e-10
8.0258e-08
-1.57168e-10
-1.7411e-10
8.02026e-08
1.01211e-07
1.994e-09
1.01279e-07
1.59085e-09
1.01305e-07
1.26117e-09
1.01304e-07
9.84965e-10
1.01287e-07
7.5286e-10
1.01258e-07
5.58804e-10
1.0122e-07
3.9817e-10
1.01175e-07
2.66896e-10
1.01125e-07
1.61234e-10
1.01072e-07
7.75317e-11
1.01016e-07
1.24051e-11
1.00959e-07
-3.72972e-11
1.00902e-07
-7.44299e-11
1.00846e-07
-1.01508e-10
-1.20761e-10
1.00793e-07
1.25497e-07
1.80278e-09
1.25622e-07
1.46569e-09
1.257e-07
1.18298e-09
1.25744e-07
9.40987e-10
1.25763e-07
7.34428e-10
1.25761e-07
5.59913e-10
1.25745e-07
4.14471e-10
1.25717e-07
2.94989e-10
1.2568e-07
1.98272e-10
1.25636e-07
1.21045e-10
1.25589e-07
6.02365e-11
1.25538e-07
1.29615e-11
1.25487e-07
-2.33066e-11
1.25437e-07
-5.08282e-11
-7.14714e-11
1.25387e-07
1.54648e-07
1.60142e-09
1.54788e-07
1.32598e-09
1.54882e-07
1.08908e-09
1.5494e-07
8.82689e-10
1.5497e-07
7.04305e-10
1.54978e-07
5.52028e-10
1.54968e-07
4.23998e-10
1.54945e-07
3.17924e-10
1.54912e-07
2.31221e-10
1.54872e-07
1.61131e-10
1.54828e-07
1.05062e-10
1.5478e-07
6.05781e-11
1.54731e-07
2.55595e-11
1.54682e-07
-1.90759e-12
-2.33682e-11
1.54634e-07
1.89161e-07
1.40298e-09
1.89299e-07
1.18743e-09
1.89392e-07
9.95999e-10
1.8945e-07
8.25362e-10
1.89478e-07
6.76103e-10
1.89483e-07
5.46937e-10
1.8947e-07
4.36769e-10
1.89444e-07
3.44271e-10
1.89407e-07
2.67569e-10
1.89364e-07
2.04497e-10
1.89316e-07
1.53035e-10
1.89265e-07
1.11282e-10
1.89213e-07
7.75626e-11
1.89161e-07
5.03337e-11
2.83514e-11
1.89109e-07
2.29157e-07
1.20731e-09
2.29292e-07
1.05205e-09
2.29382e-07
9.05929e-10
2.29436e-07
7.71596e-10
2.29461e-07
6.51636e-10
2.29461e-07
5.45953e-10
2.29444e-07
4.53937e-10
2.29413e-07
3.75187e-10
2.29372e-07
3.08619e-10
2.29324e-07
2.52689e-10
2.29271e-07
2.0602e-10
2.29215e-07
1.67271e-10
2.29158e-07
1.352e-10
2.29099e-07
1.08617e-10
8.65538e-11
2.29041e-07
2.74193e-07
1.01813e-09
2.74324e-07
9.21767e-10
2.74409e-07
8.20065e-10
2.7446e-07
7.21217e-10
2.74481e-07
6.30928e-10
2.74479e-07
5.47853e-10
2.74459e-07
4.73921e-10
2.74425e-07
4.09182e-10
2.7438e-07
3.53013e-10
2.74328e-07
3.04505e-10
2.74271e-07
2.63152e-10
2.74211e-07
2.28065e-10
2.74147e-07
1.98361e-10
2.74083e-07
1.73168e-10
1.51782e-10
2.74018e-07
3.22778e-07
8.42739e-10
3.22903e-07
7.96203e-10
3.22984e-07
7.38831e-10
3.23033e-07
6.73114e-10
3.23054e-07
6.09579e-10
3.23053e-07
5.48736e-10
3.23035e-07
4.92034e-10
3.23002e-07
4.41936e-10
3.22958e-07
3.97131e-10
3.22906e-07
3.56994e-10
3.22847e-07
3.21971e-10
3.22783e-07
2.91579e-10
3.22716e-07
2.65238e-10
3.22647e-07
2.42399e-10
2.22574e-10
3.22576e-07
3.71758e-07
6.65597e-10
3.71889e-07
6.65424e-10
3.71982e-07
6.46321e-10
3.7204e-07
6.14569e-10
3.7207e-07
5.80118e-10
3.7208e-07
5.37999e-10
3.72074e-07
4.98502e-10
3.72053e-07
4.629e-10
3.72019e-07
4.30949e-10
3.71974e-07
4.02073e-10
3.71921e-07
3.75374e-10
3.71861e-07
3.51233e-10
3.71797e-07
3.29615e-10
3.71729e-07
3.10337e-10
2.93286e-10
3.71658e-07
3.69207e-07
5.36621e-10
3.69304e-07
5.68222e-10
3.69376e-07
5.74004e-10
3.69424e-07
5.6695e-10
3.69453e-07
5.51018e-10
3.69462e-07
5.29235e-10
3.69454e-07
5.05926e-10
3.69434e-07
4.83367e-10
3.69403e-07
4.61451e-10
3.69365e-07
4.40717e-10
3.69319e-07
4.21326e-10
3.69267e-07
4.03206e-10
3.6921e-07
3.86334e-10
3.69149e-07
3.71019e-10
3.57206e-10
3.69086e-07
3.15821e-07
4.35264e-10
3.15908e-07
4.80946e-10
3.15979e-07
5.02807e-10
3.16035e-07
5.10839e-10
3.16077e-07
5.08935e-10
3.16105e-07
5.01675e-10
3.1612e-07
4.91159e-10
3.16124e-07
4.78566e-10
3.16121e-07
4.65221e-10
3.16109e-07
4.52749e-10
3.16089e-07
4.41176e-10
3.16063e-07
4.29324e-10
3.16032e-07
4.1713e-10
3.15997e-07
4.05727e-10
3.95466e-10
3.15959e-07
2.64348e-07
3.76565e-10
2.64403e-07
4.26239e-10
2.6445e-07
4.55241e-10
2.6449e-07
4.70997e-10
2.64521e-07
4.77722e-10
2.64544e-07
4.78633e-10
2.6456e-07
4.75945e-10
2.64567e-07
4.70821e-10
2.64569e-07
4.64e-10
2.64565e-07
4.56481e-10
2.64557e-07
4.49492e-10
2.64544e-07
4.42126e-10
2.64527e-07
4.33939e-10
2.64507e-07
4.25953e-10
4.18372e-10
2.64484e-07
2.17525e-07
3.40392e-10
2.17563e-07
3.87613e-10
2.176e-07
4.1799e-10
2.17635e-07
4.36935e-10
2.17664e-07
4.47992e-10
2.17689e-07
4.53633e-10
2.1771e-07
4.55615e-10
2.17725e-07
4.55075e-10
2.17737e-07
4.5276e-10
2.17744e-07
4.49094e-10
2.17749e-07
4.4476e-10
2.17751e-07
4.39982e-10
2.1775e-07
4.34849e-10
2.17747e-07
4.29326e-10
4.23414e-10
2.17742e-07
1.76449e-07
3.14024e-10
1.76482e-07
3.54884e-10
1.76517e-07
3.82814e-10
1.76552e-07
4.01547e-10
1.76587e-07
4.13762e-10
1.76619e-07
4.21334e-10
1.76649e-07
4.25604e-10
1.76677e-07
4.27481e-10
1.76702e-07
4.27563e-10
1.76725e-07
4.2625e-10
1.76745e-07
4.23945e-10
1.76764e-07
4.20894e-10
1.76782e-07
4.1715e-10
1.76799e-07
4.12707e-10
4.07566e-10
1.76815e-07
1.41374e-07
2.86118e-10
1.4141e-07
3.1905e-10
1.4145e-07
3.42559e-10
1.41493e-07
3.59074e-10
1.41536e-07
3.70506e-10
1.41579e-07
3.78208e-10
1.41621e-07
3.83149e-10
1.41663e-07
3.85992e-10
1.41703e-07
3.87178e-10
1.41742e-07
3.87007e-10
1.41781e-07
3.8572e-10
1.41818e-07
3.83484e-10
1.41855e-07
3.80376e-10
1.41891e-07
3.76424e-10
3.71644e-10
1.41927e-07
1.12049e-07
2.50435e-10
1.12093e-07
2.75615e-10
1.12141e-07
2.94244e-10
1.12192e-07
3.07804e-10
1.12245e-07
3.17585e-10
1.12299e-07
3.24512e-10
1.12353e-07
3.29239e-10
1.12407e-07
3.32206e-10
1.1246e-07
3.33711e-10
1.12513e-07
3.33957e-10
1.12566e-07
3.33104e-10
1.12618e-07
3.31266e-10
1.1267e-07
3.28513e-10
1.12721e-07
3.24874e-10
3.20368e-10
1.12773e-07
8.79366e-08
2.07192e-10
8.79865e-08
2.25748e-10
8.80408e-08
2.39938e-10
8.8098e-08
2.50591e-10
8.81571e-08
2.58538e-10
8.82172e-08
2.64377e-10
8.82779e-08
2.68517e-10
8.83389e-08
2.71235e-10
8.83999e-08
2.72718e-10
8.84607e-08
2.731e-10
8.85214e-08
2.72484e-10
8.85817e-08
2.70945e-10
8.86417e-08
2.68537e-10
8.87013e-08
2.65285e-10
2.61207e-10
8.87604e-08
6.83619e-08
1.60791e-10
6.84135e-08
1.74124e-10
6.84688e-08
1.84653e-10
6.85266e-08
1.92788e-10
6.85861e-08
1.99048e-10
6.86467e-08
2.03801e-10
6.87079e-08
2.07284e-10
6.87695e-08
2.09659e-10
6.88312e-08
2.11037e-10
6.88928e-08
2.11502e-10
6.89542e-08
2.11117e-10
6.90152e-08
2.09932e-10
6.90757e-08
2.07986e-10
6.91357e-08
2.05299e-10
2.01892e-10
6.9195e-08
5.26283e-08
1.16571e-10
5.26764e-08
1.25965e-10
5.27275e-08
1.33619e-10
5.27806e-08
1.397e-10
5.28351e-08
1.44531e-10
5.28906e-08
1.48321e-10
5.29467e-08
1.51197e-10
5.30031e-08
1.53246e-10
5.30596e-08
1.54528e-10
5.3116e-08
1.55093e-10
5.31721e-08
1.54978e-10
5.32278e-08
1.54218e-10
5.3283e-08
1.52838e-10
5.33374e-08
1.50854e-10
1.48289e-10
5.3391e-08
4.00843e-08
7.85929e-11
4.01252e-08
8.50777e-11
4.01683e-08
9.05225e-11
4.0213e-08
9.49705e-11
4.02589e-08
9.86271e-11
4.03056e-08
1.01598e-10
4.03529e-08
1.03939e-10
4.04004e-08
1.05693e-10
4.04481e-08
1.0689e-10
4.04956e-08
1.07557e-10
4.05429e-08
1.07714e-10
4.05897e-08
1.07383e-10
4.0636e-08
1.06583e-10
4.06815e-08
1.05325e-10
1.03629e-10
4.07262e-08
3.01555e-08
4.88628e-11
3.01873e-08
5.32148e-11
3.02209e-08
5.69768e-11
3.02557e-08
6.01429e-11
3.02915e-08
6.2844e-11
3.0328e-08
6.51189e-11
3.03649e-08
6.69855e-11
3.04022e-08
6.84609e-11
3.04395e-08
6.95566e-11
3.04768e-08
7.02859e-11
3.05138e-08
7.06581e-11
3.05505e-08
7.06871e-11
3.05867e-08
7.03835e-11
3.06223e-08
6.97579e-11
6.88241e-11
3.06571e-08
2.23517e-08
2.75445e-11
2.23746e-08
3.03414e-11
2.23987e-08
3.28375e-11
2.24239e-08
3.50107e-11
2.24498e-08
3.69399e-11
2.24763e-08
3.86245e-11
2.25032e-08
4.00644e-11
2.25304e-08
4.12633e-11
2.25577e-08
4.22223e-11
2.25851e-08
4.29464e-11
2.26123e-08
4.34387e-11
2.26393e-08
4.37071e-11
2.26659e-08
4.3757e-11
2.2692e-08
4.35975e-11
4.3237e-11
2.27176e-08
1.62626e-08
1.3591e-11
1.62777e-08
1.52702e-11
1.62937e-08
1.68388e-11
1.63104e-08
1.8261e-11
1.63278e-08
1.95772e-11
1.63456e-08
2.07678e-11
1.63639e-08
2.18265e-11
1.63824e-08
2.27508e-11
1.64011e-08
2.35372e-11
1.64198e-08
2.41863e-11
1.64386e-08
2.46975e-11
1.64572e-08
2.50752e-11
1.64756e-08
2.5321e-11
1.64938e-08
2.54427e-11
2.54454e-11
1.65116e-08
1.15481e-08
5.39015e-12
1.1557e-08
6.29342e-12
1.15667e-08
7.21232e-12
1.15768e-08
8.08702e-12
1.15875e-08
8.93119e-12
1.15985e-08
9.72074e-12
1.16099e-08
1.04495e-11
1.16216e-08
1.11132e-11
1.16334e-08
1.17068e-11
1.16453e-08
1.22291e-11
1.16574e-08
1.26781e-11
1.16694e-08
1.30558e-11
1.16813e-08
1.3362e-11
1.16932e-08
1.36031e-11
1.3783e-11
1.17048e-08
7.92879e-09
1.245e-12
7.93344e-09
1.64419e-12
7.93851e-09
2.13534e-12
7.94397e-09
2.63084e-12
7.94977e-09
3.12847e-12
7.95589e-09
3.60787e-12
7.96227e-09
4.06596e-12
7.96888e-09
4.49928e-12
7.97569e-09
4.90271e-12
7.98264e-09
5.27475e-12
7.98971e-09
5.61337e-12
7.99684e-09
5.91951e-12
8.00401e-09
6.19185e-12
8.01118e-09
6.43581e-12
6.65617e-12
8.01831e-09
5.17673e-09
-3.43164e-13
5.1786e-09
-2.33418e-13
5.18075e-09
-6.0402e-15
5.18313e-09
2.4515e-13
5.18576e-09
5.04515e-13
5.1886e-09
7.5986e-13
5.19166e-09
1.01207e-12
5.1949e-09
1.25896e-12
5.1983e-09
1.49619e-12
5.20186e-09
1.72291e-12
5.20553e-09
1.93764e-12
5.20931e-09
2.14092e-12
5.21317e-09
2.33118e-12
5.21709e-09
2.51265e-12
2.69181e-12
5.22106e-09
3.10708e-09
-5.62883e-13
3.10743e-09
-5.79796e-13
3.10792e-09
-4.93996e-13
3.10855e-09
-3.89937e-13
3.10934e-09
-2.80973e-13
3.11027e-09
-1.7242e-13
3.11134e-09
-6.07712e-14
3.11255e-09
5.14632e-14
3.11388e-09
1.61635e-13
3.11534e-09
2.7015e-13
3.1169e-09
3.76025e-13
3.11856e-09
4.79649e-13
3.12031e-09
5.79713e-13
3.12215e-09
6.79089e-13
7.84631e-13
3.12405e-09
1.57105e-09
-2.63701e-13
1.57077e-09
-3.01624e-13
1.57056e-09
-2.7861e-13
1.57042e-09
-2.50381e-13
1.57036e-09
-2.21902e-13
1.57038e-09
-1.93552e-13
1.57048e-09
-1.63775e-13
1.57067e-09
-1.33182e-13
1.57093e-09
-1.02542e-13
1.57128e-09
-7.1464e-14
1.57169e-09
-4.02124e-14
1.57218e-09
-8.79381e-15
1.57274e-09
2.21335e-14
1.57336e-09
5.40532e-14
9.13006e-14
1.57406e-09
4.49605e-10
4.49303e-10
4.49024e-10
4.48774e-10
4.48552e-10
4.48359e-10
4.48195e-10
4.48062e-10
4.47959e-10
4.47888e-10
4.47847e-10
4.47839e-10
4.47861e-10
4.47915e-10
4.48006e-10
1.24811e-09
-5.29469e-10
3.26343e-10
1.53731e-09
-4.79667e-10
1.90462e-10
1.82717e-09
-3.66756e-10
7.68969e-11
2.11084e-09
-2.55959e-10
-2.77074e-11
2.38611e-09
-1.53889e-10
-1.21384e-10
2.65359e-09
-6.90601e-11
-1.98421e-10
2.91458e-09
-3.03131e-12
-2.57953e-10
3.17029e-09
4.34255e-11
-2.99137e-10
3.42176e-09
7.03843e-11
-3.21856e-10
3.66986e-09
7.85775e-11
-3.26678e-10
3.91528e-09
6.96316e-11
-3.15045e-10
4.15854e-09
4.65655e-11
-2.89828e-10
4.40011e-09
1.48311e-11
-2.56404e-10
4.64054e-09
-1.61336e-11
-2.24295e-10
4.88076e-09
-3.07675e-11
-2.09455e-10
5.12252e-09
-4.06891e-12
-2.37691e-10
5.36896e-09
1.00075e-10
-3.46515e-10
5.62537e-09
3.33856e-10
-5.90261e-10
5.89991e-09
7.58837e-10
-1.03338e-09
6.20379e-09
1.44091e-09
-1.74479e-09
6.54885e-09
2.42163e-09
-2.76669e-09
6.94393e-09
3.64786e-09
-4.04294e-09
7.32202e-09
4.12507e-09
-4.50316e-09
7.64427e-09
3.85578e-09
-4.17803e-09
7.90304e-09
3.20747e-09
-3.46624e-09
8.09739e-09
2.3346e-09
-2.52895e-09
8.22945e-09
1.35889e-09
-1.49095e-09
8.30196e-09
3.63892e-10
-4.364e-10
8.31717e-09
-5.92072e-10
5.76855e-10
8.27688e-09
-1.46493e-09
1.50522e-09
8.18284e-09
-2.21894e-09
2.31298e-09
8.03732e-09
-2.82539e-09
2.9709e-09
7.84334e-09
-3.26332e-09
3.45731e-09
7.60458e-09
-3.52062e-09
3.75937e-09
7.32514e-09
-3.59405e-09
3.87349e-09
7.00901e-09
-3.48802e-09
3.80415e-09
6.65971e-09
-3.21209e-09
3.56139e-09
6.28014e-09
-2.7775e-09
3.15707e-09
5.8729e-09
-2.19279e-09
2.60003e-09
5.44036e-09
-1.45988e-09
1.89241e-09
4.98308e-09
-5.77081e-10
1.03437e-09
4.49411e-09
4.4116e-10
4.7805e-11
3.95994e-09
1.50592e-09
-9.71756e-10
3.38943e-09
2.39503e-09
-1.82452e-09
2.46928e-09
3.05676e-09
-2.13661e-09
2.58897e-09
-6.09321e-10
2.75804e-09
-6.48741e-10
2.98725e-09
-5.95962e-10
3.24243e-09
-5.11143e-10
3.50846e-09
-4.1992e-10
3.77747e-09
-3.38063e-10
4.04614e-09
-2.7171e-10
4.31314e-09
-2.23565e-10
4.57807e-09
-1.94551e-10
4.84096e-09
-1.84306e-10
5.10195e-09
-1.91364e-10
5.36127e-09
-2.12756e-10
5.61918e-09
-2.43078e-10
5.87613e-09
-2.73084e-10
6.13299e-09
-2.87629e-10
6.39159e-09
-2.62664e-10
6.65525e-09
-1.6359e-10
6.92966e-09
5.94526e-11
7.22363e-09
4.64867e-10
7.54944e-09
1.11509e-09
7.92022e-09
2.05086e-09
8.34647e-09
3.2216e-09
8.75734e-09
3.71421e-09
9.11071e-09
3.5024e-09
9.39758e-09
2.9206e-09
9.61607e-09
2.11611e-09
9.76771e-09
1.20725e-09
9.8549e-09
2.76701e-10
9.87981e-09
-6.1698e-10
9.84434e-09
-1.42946e-09
9.75061e-09
-2.12521e-09
9.60145e-09
-2.67622e-09
9.40067e-09
-3.06254e-09
9.15303e-09
-3.27298e-09
8.864e-09
-3.30502e-09
8.53938e-09
-3.16339e-09
8.18514e-09
-2.85785e-09
7.80776e-09
-2.40011e-09
7.41535e-09
-1.80038e-09
7.0199e-09
-1.06443e-09
6.63967e-09
-1.96849e-10
6.30011e-09
7.80722e-10
6.03643e-09
1.7696e-09
5.90384e-09
2.52763e-09
2.53763e-09
5.83549e-09
4.4915e-09
-6.22589e-10
4.56444e-09
-7.21676e-10
4.70686e-09
-7.38382e-10
4.90284e-09
-7.07123e-10
5.13106e-09
-6.48144e-10
5.37814e-09
-5.8514e-10
5.63573e-09
-5.29303e-10
5.89898e-09
-4.86814e-10
6.16512e-09
-4.6069e-10
6.43257e-09
-4.51754e-10
6.70043e-09
-4.5923e-10
6.96823e-09
-4.8055e-10
7.23574e-09
-5.10594e-10
7.50312e-09
-5.40466e-10
7.77108e-09
-5.55583e-10
8.04136e-09
-5.32951e-10
8.31745e-09
-4.39681e-10
8.60535e-09
-2.28443e-10
8.91451e-09
1.55708e-10
9.25831e-09
7.71289e-10
9.65122e-09
1.65795e-09
1.01056e-08
2.76723e-09
1.05475e-08
3.2723e-09
1.09315e-08
3.11839e-09
1.12469e-08
2.60519e-09
1.14906e-08
1.8724e-09
1.16633e-08
1.03457e-09
1.17668e-08
1.73166e-10
1.18032e-08
-6.53348e-10
1.17744e-08
-1.40068e-09
1.16831e-08
-2.03383e-09
1.15326e-08
-2.52577e-09
1.13279e-08
-2.85784e-09
1.10751e-08
-3.02013e-09
1.07812e-08
-3.01118e-09
1.04545e-08
-2.83662e-09
1.01038e-08
-2.50718e-09
9.73992e-09
-2.03623e-09
9.37716e-09
-1.43762e-09
9.03699e-09
-7.24263e-10
8.75243e-09
8.77101e-11
8.56888e-09
9.64269e-10
8.53108e-09
1.8074e-09
8.64329e-09
2.41542e-09
2.44708e-09
8.73384e-09
7.08234e-09
-5.99015e-10
7.08948e-09
-7.28814e-10
7.14885e-09
-7.97752e-10
7.26567e-09
-8.23949e-10
7.4313e-09
-8.13773e-10
7.63094e-09
-7.84779e-10
7.85394e-09
-7.52298e-10
8.09274e-09
-7.25614e-10
8.34207e-09
-7.10021e-10
8.59836e-09
-7.08044e-10
8.85923e-09
-7.20107e-10
9.12313e-09
-7.44448e-10
9.38907e-09
-7.76536e-10
9.65666e-09
-8.0805e-10
9.92625e-09
-8.25179e-10
1.01994e-08
-8.06131e-10
1.04797e-08
-7.19956e-10
1.07733e-08
-5.22068e-10
1.10903e-08
-1.61308e-10
1.14453e-08
4.16367e-10
1.18539e-08
1.24935e-09
1.23306e-08
2.29053e-09
1.27995e-08
2.80337e-09
1.32119e-08
2.70601e-09
1.35549e-08
2.26219e-09
1.38239e-08
1.60343e-09
1.40183e-08
8.40122e-10
1.41394e-08
5.21075e-11
1.41887e-08
-7.02698e-10
1.41685e-08
-1.38046e-09
1.40817e-08
-1.94706e-09
1.39328e-08
-2.37686e-09
1.37278e-08
-2.65283e-09
1.34744e-08
-2.76668e-09
1.31817e-08
-2.71848e-09
1.28603e-08
-2.51532e-09
1.25228e-08
-2.16961e-09
1.2184e-08
-1.69742e-09
1.18636e-08
-1.11729e-09
1.15896e-08
-4.50271e-10
1.14009e-08
2.76433e-10
1.13452e-08
1.01999e-09
1.14561e-08
1.6965e-09
1.17067e-08
2.16482e-09
2.24583e-09
1.19079e-08
1.05281e-08
-5.58994e-10
1.04931e-08
-6.93881e-10
1.04904e-08
-7.95016e-10
1.05306e-08
-8.64142e-10
1.06176e-08
-9.00753e-10
1.07495e-08
-9.16647e-10
1.09144e-08
-9.17276e-10
1.11053e-08
-9.16469e-10
1.13155e-08
-9.20183e-10
1.15398e-08
-9.32393e-10
1.17745e-08
-9.54826e-10
1.20168e-08
-9.86761e-10
1.22648e-08
-1.02451e-09
1.25173e-08
-1.06056e-09
1.27742e-08
-1.0821e-09
1.30368e-08
-1.06871e-09
1.33085e-08
-9.91664e-10
1.35958e-08
-8.09327e-10
1.39091e-08
-4.74675e-10
1.42643e-08
6.12116e-11
1.46783e-08
8.35357e-10
1.51676e-08
1.80117e-09
1.56563e-08
2.31471e-09
1.60921e-08
2.27021e-09
1.64596e-08
1.89469e-09
1.67522e-08
1.31086e-09
1.69678e-08
6.24485e-10
1.71067e-08
-8.67367e-11
1.71699e-08
-7.65982e-10
1.71599e-08
-1.3704e-09
1.70801e-08
-1.86725e-09
1.69359e-08
-2.23269e-09
1.67348e-08
-2.45171e-09
1.64862e-08
-2.51808e-09
1.62014e-08
-2.43377e-09
1.58939e-08
-2.2078e-09
1.55791e-08
-1.85483e-09
1.52757e-08
-1.39397e-09
1.50067e-08
-8.48289e-10
1.48016e-08
-2.45215e-10
1.46967e-08
3.81339e-10
1.47295e-08
9.87259e-10
1.49166e-08
1.50939e-09
1.52185e-08
1.86291e-09
1.96479e-09
1.54995e-08
1.50263e-08
-5.14586e-10
1.4971e-08
-6.38638e-10
1.49271e-08
-7.51046e-10
1.49083e-08
-8.4539e-10
1.49234e-08
-9.15829e-10
1.49775e-08
-9.70798e-10
1.50688e-08
-1.00849e-09
1.51915e-08
-1.03919e-09
1.53401e-08
-1.06884e-09
1.55096e-08
-1.10187e-09
1.56955e-08
-1.1407e-09
1.58942e-08
-1.18545e-09
1.61029e-08
-1.23329e-09
1.632e-08
-1.27762e-09
1.65447e-08
-1.30681e-09
1.6778e-08
-1.30195e-09
1.70232e-08
-1.23685e-09
1.72868e-08
-1.07298e-09
1.758e-08
-7.67828e-10
1.79195e-08
-2.78345e-10
1.83237e-08
4.31207e-10
1.88111e-08
1.31371e-09
1.93079e-08
1.8179e-09
1.97586e-08
1.81954e-09
2.01445e-08
1.50882e-09
2.04565e-08
9.98874e-10
2.06907e-08
3.90282e-10
2.08459e-08
-2.42015e-10
2.09229e-08
-8.42966e-10
2.09239e-08
-1.37134e-09
2.08529e-08
-1.79633e-09
2.07166e-08
-2.09638e-09
2.05239e-08
-2.25893e-09
2.02859e-08
-2.28015e-09
2.00164e-08
-2.16425e-09
1.97311e-08
-1.92243e-09
1.94479e-08
-1.57169e-09
1.91877e-08
-1.1338e-09
1.89744e-08
-6.34909e-10
1.88346e-08
-1.05434e-10
1.87962e-08
4.19719e-10
1.88819e-08
9.0153e-10
1.90945e-08
1.29679e-09
1.93966e-08
1.56089e-09
1.6619e-09
1.96994e-08
2.0812e-08
-4.70608e-10
2.07515e-08
-5.78142e-10
2.06868e-08
-6.86369e-10
2.06295e-08
-7.88088e-10
2.05916e-08
-8.77937e-10
2.05781e-08
-9.57258e-10
2.05942e-08
-1.02467e-09
2.06396e-08
-1.08457e-09
2.07118e-08
-1.14106e-09
2.08076e-08
-1.19764e-09
2.09234e-08
-1.25647e-09
2.10558e-08
-1.3179e-09
2.12021e-08
-1.3796e-09
2.13603e-08
-1.43577e-09
2.15294e-08
-1.47592e-09
2.17102e-08
-1.48273e-09
2.19061e-08
-1.4328e-09
2.21239e-08
-1.29077e-09
2.2375e-08
-1.01896e-09
2.26778e-08
-5.81132e-10
2.30514e-08
5.76246e-11
2.35167e-08
8.48449e-10
2.40049e-08
1.32969e-09
2.44574e-08
1.36707e-09
2.48514e-08
1.11474e-09
2.51752e-08
6.75148e-10
2.54223e-08
1.43107e-10
2.55902e-08
-4.09911e-10
2.56787e-08
-9.31447e-10
2.569e-08
-1.38263e-09
2.56289e-08
-1.73522e-09
2.5503e-08
-1.97046e-09
2.53227e-08
-2.07861e-09
2.5101e-08
-2.05851e-09
2.48535e-08
-1.91677e-09
2.45978e-08
-1.6667e-09
2.43533e-08
-1.32719e-09
2.41411e-08
-9.21592e-10
2.39831e-08
-4.76936e-10
2.39007e-08
-2.29642e-11
2.39114e-08
4.08972e-10
2.40246e-08
7.88338e-10
2.42336e-08
1.08779e-09
2.45079e-08
1.2866e-09
1.37633e-09
2.47935e-08
2.81645e-08
-4.2646e-10
2.81039e-08
-5.17608e-10
2.80321e-08
-6.14581e-10
2.79564e-08
-7.12335e-10
2.78852e-08
-8.0675e-10
2.78243e-08
-8.96374e-10
2.77799e-08
-9.80285e-10
2.7755e-08
-1.0596e-09
2.77503e-08
-1.13644e-09
2.77655e-08
-1.21284e-09
2.77991e-08
-1.29003e-09
2.78491e-08
-1.36793e-09
2.79138e-08
-1.44424e-09
2.79915e-08
-1.51356e-09
2.80821e-08
-1.56646e-09
2.81863e-08
-1.58697e-09
2.83083e-08
-1.55477e-09
2.84551e-08
-1.43752e-09
2.86387e-08
-1.20261e-09
2.88793e-08
-8.2174e-10
2.91967e-08
-2.59797e-10
2.9614e-08
4.31194e-10
3.00715e-08
8.72204e-10
3.05076e-08
9.30968e-10
3.0895e-08
7.27326e-10
3.12185e-08
3.51658e-10
3.14692e-08
-1.07596e-10
3.16426e-08
-5.83286e-10
3.17375e-08
-1.02643e-09
3.17563e-08
-1.40137e-09
3.17041e-08
-1.68307e-09
3.15897e-08
-1.85605e-09
3.14248e-08
-1.91371e-09
3.1224e-08
-1.85766e-09
3.1004e-08
-1.69679e-09
3.07834e-08
-1.44612e-09
3.05817e-08
-1.1255e-09
3.04185e-08
-7.58342e-10
3.03118e-08
-3.70295e-10
3.02764e-08
1.24407e-11
3.03212e-08
3.6415e-10
3.04461e-08
6.63487e-10
3.06397e-08
8.94213e-10
3.08782e-08
1.04804e-09
1.12592e-09
3.11286e-08
3.74072e-08
-3.79019e-10
3.73455e-08
-4.55965e-10
3.72711e-08
-5.4018e-10
3.71875e-08
-6.28652e-10
3.70992e-08
-7.18487e-10
3.70107e-08
-8.07923e-10
3.69265e-08
-8.96057e-10
3.68498e-08
-9.82925e-10
3.67828e-08
-1.06942e-09
3.67266e-08
-1.15657e-09
3.66813e-08
-1.24479e-09
3.66469e-08
-1.3335e-09
3.66228e-08
-1.42017e-09
3.66089e-08
-1.49967e-09
3.66059e-08
-1.56344e-09
3.66156e-08
-1.59662e-09
3.66431e-08
-1.58226e-09
3.66962e-08
-1.49067e-09
3.6788e-08
-1.29442e-09
3.69407e-08
-9.74471e-10
3.71748e-08
-4.93803e-10
3.75151e-08
9.08168e-11
3.79158e-08
4.71552e-10
3.83128e-08
5.33927e-10
3.8674e-08
3.66151e-10
3.89807e-08
4.49423e-11
3.92212e-08
-3.48113e-10
3.93891e-08
-7.51114e-10
3.94821e-08
-1.11952e-09
3.95025e-08
-1.42171e-09
3.94559e-08
-1.63651e-09
3.9352e-08
-1.75211e-09
3.92035e-08
-1.76519e-09
3.90258e-08
-1.68002e-09
3.88364e-08
-1.50738e-09
3.86535e-08
-1.2632e-09
3.84952e-08
-9.67192e-10
3.83781e-08
-6.41269e-10
3.83158e-08
-3.08014e-10
3.83166e-08
1.16651e-11
3.83834e-08
2.97351e-10
3.85108e-08
5.36128e-10
3.86863e-08
7.18646e-10
3.88918e-08
8.42594e-10
9.11782e-10
3.91059e-08
4.88972e-08
-3.25888e-10
4.8832e-08
-3.90759e-10
4.87546e-08
-4.62781e-10
4.86662e-08
-5.40305e-10
4.85692e-08
-6.21436e-10
4.84659e-08
-7.04685e-10
4.8359e-08
-7.89136e-10
4.82506e-08
-8.74469e-10
4.81421e-08
-9.60925e-10
4.80345e-08
-1.04897e-09
4.79283e-08
-1.13858e-09
4.78238e-08
-1.229e-09
4.77213e-08
-1.31769e-09
4.76215e-08
-1.3999e-09
4.75262e-08
-1.46817e-09
4.74382e-08
-1.50857e-09
4.7364e-08
-1.50803e-09
4.73124e-08
-1.43916e-09
4.72976e-08
-1.27959e-09
4.73442e-08
-1.02109e-09
4.7473e-08
-6.2253e-10
4.77108e-08
-1.47068e-10
4.80291e-08
1.53336e-10
4.83626e-08
2.00351e-10
4.86752e-08
5.35606e-11
4.89453e-08
-2.2508e-10
4.91584e-08
-5.61226e-10
4.93061e-08
-8.98868e-10
4.93856e-08
-1.19899e-09
4.93987e-08
-1.43477e-09
4.93516e-08
-1.58942e-09
4.92544e-08
-1.65498e-09
4.91206e-08
-1.63137e-09
4.89657e-08
-1.52515e-09
4.88067e-08
-1.34831e-09
4.86603e-08
-1.11681e-09
4.85421e-08
-8.49031e-10
4.84651e-08
-5.64205e-10
4.84379e-08
-2.80903e-10
4.8465e-08
-1.54232e-11
4.85441e-08
2.18308e-10
4.86684e-08
4.11768e-10
4.88266e-08
5.60458e-10
4.90046e-08
6.64575e-10
7.28192e-10
4.91882e-08
6.30108e-08
-2.67427e-10
6.29418e-08
-3.21799e-10
6.28616e-08
-3.82575e-10
6.27702e-08
-4.48943e-10
6.26685e-08
-5.19752e-10
6.25577e-08
-5.93874e-10
6.2439e-08
-6.70437e-10
6.23135e-08
-7.48929e-10
6.21817e-08
-8.29143e-10
6.20439e-08
-9.11108e-10
6.18997e-08
-9.94451e-10
6.17491e-08
-1.07838e-09
6.15919e-08
-1.1605e-09
6.14286e-08
-1.23661e-09
6.12612e-08
-1.30071e-09
6.10924e-08
-1.33984e-09
6.09298e-08
-1.34539e-09
6.07828e-08
-1.29214e-09
6.0666e-08
-1.16284e-09
6.06059e-08
-9.60918e-10
6.06234e-08
-6.40056e-10
6.07471e-08
-2.70776e-10
6.09659e-08
-6.54899e-11
6.12157e-08
-4.94496e-11
6.14591e-08
-1.898e-10
6.16731e-08
-4.39155e-10
6.1841e-08
-7.29049e-10
6.19529e-08
-1.01078e-09
6.20054e-08
-1.25154e-09
6.20005e-08
-1.42987e-09
6.19448e-08
-1.53365e-09
6.18485e-08
-1.55877e-09
6.17252e-08
-1.50799e-09
6.15896e-08
-1.38959e-09
6.14573e-08
-1.21596e-09
6.13426e-08
-1.00215e-09
6.12579e-08
-7.64375e-10
6.12123e-08
-5.18602e-10
6.12108e-08
-2.79342e-10
6.12539e-08
-5.85723e-11
6.13378e-08
1.34447e-10
6.14556e-08
2.94003e-10
6.15974e-08
4.18568e-10
6.17529e-08
5.09136e-10
5.69174e-10
6.19119e-08
8.01422e-08
-2.07045e-10
8.00725e-08
-2.5214e-10
7.99926e-08
-3.02637e-10
7.99019e-08
-3.58203e-10
7.98003e-08
-4.18192e-10
7.96882e-08
-4.81822e-10
7.95662e-08
-5.48341e-10
7.94344e-08
-6.17149e-10
7.9293e-08
-6.87738e-10
7.91416e-08
-7.59777e-10
7.89797e-08
-8.32508e-10
7.88064e-08
-9.0506e-10
7.86209e-08
-9.75072e-10
7.84232e-08
-1.03889e-09
7.82145e-08
-1.09196e-09
7.7997e-08
-1.12234e-09
7.77776e-08
-1.12599e-09
7.75653e-08
-1.07986e-09
7.73751e-08
-9.72616e-10
7.7231e-08
-8.16875e-10
7.71562e-08
-5.65178e-10
7.71803e-08
-2.94948e-10
7.73e-08
-1.85189e-10
7.74571e-08
-2.06498e-10
7.76204e-08
-3.53158e-10
7.77665e-08
-5.85252e-10
7.78764e-08
-8.38871e-10
7.79402e-08
-1.07459e-09
7.79548e-08
-1.2662e-09
7.79227e-08
-1.39773e-09
7.78507e-08
-1.46164e-09
7.77492e-08
-1.45732e-09
7.7631e-08
-1.38974e-09
7.75095e-08
-1.26808e-09
7.73979e-08
-1.10436e-09
7.73077e-08
-9.11977e-10
7.72479e-08
-7.04545e-10
7.7224e-08
-4.94741e-10
7.72382e-08
-2.93528e-10
7.72891e-08
-1.09478e-10
7.73716e-08
5.19056e-11
7.74801e-08
1.85525e-10
7.76063e-08
2.92363e-10
7.77423e-08
3.73116e-10
4.30529e-10
7.7881e-08
1.00735e-07
-1.49268e-10
1.00669e-07
-1.86186e-10
1.00594e-07
-2.27439e-10
1.00508e-07
-2.72926e-10
1.00412e-07
-3.2231e-10
1.00306e-07
-3.75079e-10
1.00188e-07
-4.3063e-10
1.00059e-07
-4.88372e-10
9.99191e-08
-5.4764e-10
9.97672e-08
-6.07883e-10
9.96027e-08
-6.68033e-10
9.94248e-08
-7.27149e-10
9.92326e-08
-7.82819e-10
9.90256e-08
-8.3195e-10
9.88046e-08
-8.70939e-10
9.85716e-08
-8.89327e-10
9.83322e-08
-8.8661e-10
9.8094e-08
-8.41703e-10
9.78731e-08
-7.5168e-10
9.76858e-08
-6.29611e-10
9.7557e-08
-4.36374e-10
9.75251e-08
-2.6301e-10
9.75632e-08
-2.23326e-10
9.76373e-08
-2.80534e-10
9.77287e-08
-4.44551e-10
9.78105e-08
-6.67095e-10
9.78616e-08
-8.89968e-10
9.78747e-08
-1.08768e-09
9.78483e-08
-1.23979e-09
9.77858e-08
-1.33523e-09
9.76946e-08
-1.37048e-09
9.7585e-08
-1.34767e-09
9.74684e-08
-1.27316e-09
9.73565e-08
-1.1562e-09
9.72598e-08
-1.00769e-09
9.71869e-08
-8.3904e-10
9.71436e-08
-6.6119e-10
9.71327e-08
-4.83887e-10
9.71544e-08
-3.15208e-10
9.72061e-08
-1.6123e-10
9.72839e-08
-2.59099e-11
9.73812e-08