/*--------------------------------*- C++ -*----------------------------------*\
| =========                 |                                                 |
| \\      /  F ield         | OpenFOAM: The Open Source CFD Toolbox           |
|  \\    /   O peration     | Version:  2312                                  |
|   \\  /    A nd           | Website:  www.openfoam.com                      |
|    \\/     M anipulation  |                                                 |
\*---------------------------------------------------------------------------*/
FoamFile
{
    version     2.0;
    format      ascii;
    arch        "LSB;label=32;scalar=64";
    class       volScalarField;
    location    "110";
    object      p;
}
// * * * * * * * * * * * * * * * * * * * * * * * * * * * * * * * * * * * * * //

dimensions      [0 2 -2 0 0 0 0];

internalField   nonuniform List<scalar> 
4800
(
1.27515e-11
-1.08624e-06
-1.938e-06
-2.62898e-06
-3.19692e-06
-3.68849e-06
-4.11522e-06
-4.48834e-06
-4.82128e-06
-5.12281e-06
-5.39792e-06
-5.64694e-06
-5.86294e-06
-6.28253e-06
-7.83457e-06
1.38999e-08
-1.07212e-06
-1.92414e-06
-2.61585e-06
-3.18509e-06
-3.67849e-06
-4.10788e-06
-4.48452e-06
-4.82265e-06
-5.13296e-06
-5.42506e-06
-5.71228e-06
-6.00683e-06
-6.41441e-06
-7.16972e-06
2.8139e-08
-1.05746e-06
-1.90975e-06
-2.60239e-06
-3.17264e-06
-3.66689e-06
-4.0985e-06
-4.47806e-06
-4.82025e-06
-5.13671e-06
-5.43817e-06
-5.73848e-06
-6.04383e-06
-6.36045e-06
-6.66204e-06
4.20551e-08
-1.04261e-06
-1.89475e-06
-2.58783e-06
-3.15904e-06
-3.6529e-06
-4.08601e-06
-4.46718e-06
-4.81067e-06
-5.12778e-06
-5.42657e-06
-5.71246e-06
-5.9759e-06
-6.18477e-06
-6.2691e-06
5.69302e-08
-1.02621e-06
-1.87768e-06
-2.57049e-06
-3.1429e-06
-3.63466e-06
-4.0678e-06
-4.44872e-06
-4.78977e-06
-5.10057e-06
-5.38448e-06
-5.63761e-06
-5.83998e-06
-5.95292e-06
-5.92221e-06
7.41632e-08
-1.00684e-06
-1.85704e-06
-2.54873e-06
-3.12175e-06
-3.61049e-06
-4.04085e-06
-4.41842e-06
-4.75213e-06
-5.0487e-06
-5.30672e-06
-5.51627e-06
-5.65567e-06
-5.69539e-06
-5.60785e-06
9.61103e-08
-9.82252e-07
-1.83048e-06
-2.52007e-06
-3.09165e-06
-3.57711e-06
-4.00152e-06
-4.37105e-06
-4.69155e-06
-4.96619e-06
-5.19039e-06
-5.35283e-06
-5.4368e-06
-5.42689e-06
-5.3159e-06
1.27053e-07
-9.48427e-07
-1.79395e-06
-2.48035e-06
-3.04833e-06
-3.52869e-06
-3.94393e-06
-4.30032e-06
-4.60162e-06
-4.84835e-06
-5.03527e-06
-5.15361e-06
-5.19445e-06
-5.15446e-06
-5.03765e-06
1.73855e-07
-8.98937e-07
-1.74113e-06
-2.42312e-06
-2.98553e-06
-3.45784e-06
-3.86014e-06
-4.19876e-06
-4.47612e-06
-4.69194e-06
-4.84268e-06
-4.92431e-06
-4.9352e-06
-4.87977e-06
-4.76664e-06
2.46166e-07
-8.24565e-07
-1.66297e-06
-2.33928e-06
-2.8941e-06
-3.35531e-06
-3.74117e-06
-4.05841e-06
-4.30936e-06
-4.49468e-06
-4.61402e-06
-4.66824e-06
-4.66101e-06
-4.60061e-06
-4.49659e-06
3.55996e-07
-7.1345e-07
-1.54771e-06
-2.21709e-06
-2.76235e-06
-3.21001e-06
-3.57708e-06
-3.8712e-06
-4.09603e-06
-4.2544e-06
-4.34936e-06
-4.38567e-06
-4.37e-06
-4.3119e-06
-4.22026e-06
5.17174e-07
-5.51517e-07
-1.38123e-06
-2.04251e-06
-2.57664e-06
-3.00945e-06
-3.35723e-06
-3.62907e-06
-3.83089e-06
-3.96814e-06
-4.04672e-06
-4.07376e-06
-4.05725e-06
-4.00655e-06
-3.92931e-06
7.45782e-07
-3.22241e-07
-1.14699e-06
-1.7994e-06
-2.32157e-06
-2.73997e-06
-3.0704e-06
-3.32354e-06
-3.50784e-06
-3.63121e-06
-3.70143e-06
-3.72678e-06
-3.7154e-06
-3.67582e-06
-3.61444e-06
1.06147e-06
-5.43665e-09
-8.24864e-07
-1.46854e-06
-1.97971e-06
-2.38614e-06
-2.70365e-06
-2.94416e-06
-3.11828e-06
-3.23573e-06
-3.30536e-06
-3.33568e-06
-3.33442e-06
-3.30907e-06
-3.265e-06
1.48783e-06
4.23493e-07
-3.9033e-07
-1.02684e-06
-1.53003e-06
-1.92928e-06
-2.24046e-06
-2.47637e-06
-2.64893e-06
-2.7689e-06
-2.84553e-06
-2.88709e-06
-2.90067e-06
-2.89281e-06
-2.86807e-06
2.0507e-06
9.92096e-07
1.83804e-07
-4.47164e-07
-9.4803e-07
-1.34728e-06
-1.66071e-06
-1.90138e-06
-2.08181e-06
-2.2131e-06
-2.30442e-06
-2.36355e-06
-2.39699e-06
-2.41054e-06
-2.40823e-06
2.77411e-06
1.72675e-06
9.2383e-07
2.9412e-07
-2.11083e-07
-6.18725e-07
-9.43585e-07
-1.19884e-06
-1.39714e-06
-1.54918e-06
-1.6635e-06
-1.74728e-06
-1.80649e-06
-1.84641e-06
-1.87084e-06
3.67454e-06
2.64774e-06
1.85012e-06
1.21506e-06
6.97305e-07
2.72924e-07
-7.21181e-08
-3.51683e-07
-5.7816e-07
-7.61173e-07
-9.08141e-07
-1.02538e-06
-1.11836e-06
-1.19189e-06
-1.24962e-06
4.75099e-06
3.76008e-06
2.97035e-06
2.32403e-06
1.78595e-06
1.3379e-06
9.6518e-07
6.52719e-07
3.88717e-07
1.65105e-07
-2.41342e-08
-1.84366e-07
-3.20544e-07
-4.37113e-07
-5.3755e-07
5.97393e-06
5.03114e-06
4.25459e-06
3.60328e-06
3.0454e-06
2.5714e-06
2.16575e-06
1.81392e-06
1.50578e-06
1.23483e-06
9.96217e-07
7.85318e-07
5.9768e-07
4.29302e-07
2.76813e-07
7.22093e-06
6.32661e-06
5.5634e-06
4.90344e-06
4.32793e-06
3.82457e-06
3.37929e-06
2.98046e-06
2.62068e-06
2.29513e-06
1.99965e-06
1.73013e-06
1.48273e-06
1.25414e-06
1.04151e-06
8.29537e-06
7.45306e-06
6.70485e-06
6.03398e-06
5.44139e-06
4.91198e-06
4.43088e-06
3.98965e-06
3.58363e-06
3.20903e-06
2.86191e-06
2.53859e-06
2.2359e-06
1.95121e-06
1.68218e-06
9.09164e-06
8.28659e-06
7.55852e-06
6.89801e-06
6.2988e-06
5.74978e-06
5.24145e-06
4.76825e-06
4.32642e-06
3.91245e-06
3.52289e-06
3.15471e-06
2.80537e-06
2.47283e-06
2.15516e-06
9.66577e-06
8.90106e-06
8.19687e-06
7.54727e-06
6.94434e-06
6.38188e-06
5.85455e-06
5.358e-06
4.88866e-06
4.44342e-06
4.01955e-06
3.61474e-06
3.22704e-06
2.85484e-06
2.49664e-06
1.0072e-05
9.34157e-06
8.65934e-06
8.01899e-06
7.41576e-06
6.84619e-06
6.30651e-06
5.79308e-06
5.30284e-06
4.83336e-06
4.38258e-06
3.9488e-06
3.5305e-06
3.12646e-06
2.73552e-06
1.03499e-05
9.64764e-06
8.98394e-06
8.35353e-06
7.75352e-06
7.18132e-06
6.63395e-06
6.1086e-06
5.60297e-06
5.11526e-06
4.64394e-06
4.18774e-06
3.74554e-06
3.31645e-06
2.89963e-06
1.05266e-05
9.85377e-06
9.20785e-06
8.58815e-06
7.99316e-06
7.42081e-06
6.86887e-06
6.33536e-06
5.81863e-06
5.31737e-06
4.83047e-06
4.35703e-06
3.89628e-06
3.44764e-06
3.01056e-06
1.06427e-05
9.991e-06
9.36093e-06
8.75165e-06
8.16223e-06
7.59113e-06
7.03678e-06
6.49781e-06
5.97311e-06
5.46176e-06
4.96301e-06
4.47631e-06
4.00117e-06
3.53729e-06
3.08436e-06
1.07139e-05
1.00811e-05
9.46516e-06
8.86555e-06
8.28176e-06
7.71269e-06
7.15728e-06
6.61468e-06
6.08417e-06
5.56521e-06
5.05736e-06
4.56033e-06
4.0739e-06
3.59802e-06
3.13258e-06
1.07561e-05
1.014e-05
9.53654e-06
8.94571e-06
8.36726e-06
7.80051e-06
7.24481e-06
6.69972e-06
6.16486e-06
5.63999e-06
5.12495e-06
4.6197e-06
4.12424e-06
3.63873e-06
3.16323e-06
1.07804e-05
1.01788e-05
9.58632e-06
9.0033e-06
8.42972e-06
7.86524e-06
7.30962e-06
6.7627e-06
6.22443e-06
5.69481e-06
5.17392e-06
4.66194e-06
4.15907e-06
3.66563e-06
3.18187e-06
1.0794e-05
1.02051e-05
9.62215e-06
9.04596e-06
8.47668e-06
7.91428e-06
7.35883e-06
6.81048e-06
6.26938e-06
5.73579e-06
5.20998e-06
4.69233e-06
4.1832e-06
3.68308e-06
3.19235e-06
1.08017e-05
1.02237e-05
9.64906e-06
9.07878e-06
8.51321e-06
7.95262e-06
7.39734e-06
6.84773e-06
6.30419e-06
5.76715e-06
5.23708e-06
4.71452e-06
4.19999e-06
3.6941e-06
3.19737e-06
1.08062e-05
1.02377e-05
9.67028e-06
9.10508e-06
8.54268e-06
7.98361e-06
7.42841e-06
6.87765e-06
6.33191e-06
5.7918e-06
5.25796e-06
4.73106e-06
4.21177e-06
3.70081e-06
3.19882e-06
1.08093e-05
1.0249e-05
9.68784e-06
9.127e-06
8.56729e-06
8.00945e-06
7.45423e-06
6.90236e-06
6.3546e-06
5.8117e-06
5.27446e-06
4.74367e-06
4.22013e-06
3.70465e-06
3.19799e-06
1.08119e-05
1.02587e-05
9.70295e-06
9.14583e-06
8.58838e-06
8.03153e-06
7.47619e-06
6.92324e-06
6.37359e-06
5.82815e-06
5.28782e-06
4.75352e-06
4.22615e-06
3.70662e-06
3.19577e-06
1.08143e-05
1.02675e-05
9.71626e-06
9.16231e-06
8.60676e-06
8.05068e-06
7.49513e-06
6.94114e-06
6.38974e-06
5.84197e-06
5.29884e-06
4.76137e-06
4.23055e-06
3.70739e-06
3.19279e-06
1.08169e-05
1.02755e-05
9.72826e-06
9.17702e-06
8.62305e-06
8.06758e-06
7.51178e-06
6.95679e-06
6.40378e-06
5.85386e-06
5.30817e-06
4.7678e-06
4.23384e-06
3.70736e-06
3.18935e-06
1.08198e-05
1.02835e-05
9.7398e-06
9.19102e-06
8.63846e-06
8.08348e-06
7.52737e-06
6.97139e-06
6.41679e-06
5.86479e-06
5.31662e-06
4.77346e-06
4.23645e-06
3.70677e-06
3.18547e-06
1.08231e-05
1.02915e-05
9.75133e-06
9.20487e-06
8.65361e-06
8.09897e-06
7.54236e-06
6.98523e-06
6.42893e-06
5.87482e-06
5.3242e-06
4.77835e-06
4.23851e-06
3.7059e-06
3.18155e-06
-8.98718e-06
-6.65217e-06
-5.23548e-06
-4.28746e-06
-3.53936e-06
-2.97859e-06
-2.55843e-06
-2.24742e-06
-2.02341e-06
-1.8678e-06
-1.76414e-06
-1.69708e-06
-1.65165e-06
-1.61298e-06
-1.56569e-06
-1.49482e-06
-1.38689e-06
-1.2338e-06
-1.03637e-06
-8.14055e-07
-6.04186e-07
-4.49279e-07
-3.71808e-07
-2.93487e-07
-1.12034e-07
2.36829e-07
7.8243e-07
1.53966e-06
2.5035e-06
3.67325e-06
5.04544e-06
6.60215e-06
8.32412e-06
1.01839e-05
1.21426e-05
1.41536e-05
1.61623e-05
1.81048e-05
1.9903e-05
2.14583e-05
2.26213e-05
2.31842e-05
2.26818e-05
2.07155e-05
1.55829e-05
-7.40663e-06
-6.15211e-06
-5.0605e-06
-4.20708e-06
-3.50326e-06
-2.95684e-06
-2.54189e-06
-2.23336e-06
-2.01124e-06
-1.85766e-06
-1.7563e-06
-1.69172e-06
-1.64884e-06
-1.61268e-06
-1.5678e-06
-1.49926e-06
-1.39361e-06
-1.24267e-06
-1.04689e-06
-8.24881e-07
-6.12423e-07
-4.49905e-07
-3.59488e-07
-2.66384e-07
-7.15975e-08
2.8765e-07
8.39958e-07
1.60072e-06
2.56384e-06
3.72815e-06
5.08953e-06
6.62733e-06
8.31988e-06
1.01373e-05
1.20369e-05
1.39672e-05
1.58664e-05
1.76602e-05
1.92524e-05
2.05145e-05
2.12434e-05
2.11133e-05
1.94722e-05
1.55889e-05
8.21007e-06
-6.58122e-06
-5.77179e-06
-4.88231e-06
-4.11649e-06
-3.46051e-06
-2.93399e-06
-2.527e-06
-2.22203e-06
-2.00199e-06
-1.85023e-06
-1.7508e-06
-1.68828e-06
-1.64751e-06
-1.61346e-06
-1.57064e-06
-1.50413e-06
-1.40056e-06
-1.25168e-06
-1.05753e-06
-8.35872e-07
-6.20639e-07
-4.49872e-07
-3.4526e-07
-2.35898e-07
-2.65305e-08
3.43839e-07
9.0286e-07
1.66645e-06
2.62711e-06
3.78279e-06
5.12908e-06
6.64157e-06
8.29552e-06
1.00582e-05
1.18822e-05
1.37101e-05
1.54719e-05
1.70823e-05
1.84263e-05
1.93534e-05
1.96304e-05
1.8906e-05
1.66082e-05
1.2388e-05
5.98743e-06
-6.07142e-06
-5.46728e-06
-4.73763e-06
-4.0402e-06
-3.42968e-06
-2.92369e-06
-2.52407e-06
-2.22129e-06
-2.00156e-06
-1.84982e-06
-1.75067e-06
-1.68879e-06
-1.64899e-06
-1.61615e-06
-1.57471e-06
-1.50976e-06
-1.40799e-06
-1.261e-06
-1.0684e-06
-8.4697e-07
-6.28647e-07
-4.48852e-07
-3.28643e-07
-2.01342e-07
2.42476e-08
4.07113e-07
9.73722e-07
1.74058e-06
2.698e-06
3.8429e-06
5.17125e-06
6.6528e-06
8.2595e-06
9.95511e-06
1.16869e-05
1.33908e-05
1.49881e-05
1.63815e-05
1.74501e-05
1.80277e-05
1.7891e-05
1.67494e-05
1.42412e-05
1.02105e-05
4.92903e-06
-5.68776e-06
-5.20862e-06
-4.60504e-06
-3.98755e-06
-3.41854e-06
-2.93258e-06
-2.53911e-06
-2.23633e-06
-2.01421e-06
-1.85967e-06
-1.75815e-06
-1.69459e-06
-1.65383e-06
-1.62069e-06
-1.5795e-06
-1.51532e-06
-1.41487e-06
-1.2696e-06
-1.07855e-06
-8.57405e-07
-6.35864e-07
-4.46403e-07
-3.09261e-07
-1.62498e-07
8.06281e-08
4.76781e-07
1.05097e-06
1.8206e-06
2.77131e-06
3.90269e-06
5.20832e-06
6.6506e-06
8.19911e-06
9.81359e-06
1.14358e-05
1.29952e-05
1.44062e-05
1.55656e-05
1.63475e-05
1.65958e-05
1.6124e-05
1.47335e-05
1.22513e-05
8.6846e-06
4.37582e-06
-5.37719e-06
-4.98502e-06
-4.47985e-06
-3.94519e-06
-3.42493e-06
-2.96043e-06
-2.57417e-06
-2.27038e-06
-2.04348e-06
-1.88313e-06
-1.77605e-06
-1.7078e-06
-1.66346e-06
-1.62783e-06
-1.58521e-06
-1.52056e-06
-1.42066e-06
-1.27673e-06
-1.08719e-06
-8.66415e-07
-6.41615e-07
-4.4196e-07
-2.8663e-07
-1.19044e-07
1.42658e-07
5.52522e-07
1.13356e-06
1.90402e-06
2.84239e-06
3.95938e-06
5.23419e-06
6.62632e-06
8.10398e-06
9.62181e-06
1.11167e-05
1.25129e-05
1.37209e-05
1.46372e-05
1.51424e-05
1.51044e-05
1.43886e-05
1.28863e-05
1.05561e-05
7.50497e-06
4.03772e-06
-5.10452e-06
-4.78067e-06
-4.36212e-06
-3.89711e-06
-3.4335e-06
-3.00038e-06
-2.62614e-06
-2.32261e-06
-2.09026e-06
-1.92205e-06
-1.80645e-06
-1.73025e-06
-1.67926e-06
-1.63847e-06
-1.59221e-06
-1.52544e-06
-1.425e-06
-1.28182e-06
-1.0936e-06
-8.73262e-07
-6.45201e-07
-4.34934e-07
-2.60279e-07
-7.07156e-08
2.10255e-07
6.34006e-07
1.22056e-06
1.9858e-06
2.91136e-06
4.00951e-06
5.24172e-06
6.57175e-06
7.96488e-06
9.36995e-06
1.07205e-05
1.19385e-05
1.29334e-05
1.36096e-05
1.3863e-05
1.35936e-05
1.27202e-05
1.12051e-05
9.08165e-06
6.48655e-06
3.65994e-06
-4.8494e-06
-4.58037e-06
-4.23553e-06
-3.84102e-06
-3.43123e-06
-3.03918e-06
-2.68512e-06
-2.38625e-06
-2.15072e-06
-1.97477e-06
-1.8489e-06
-1.76208e-06
-1.70149e-06
-1.65275e-06
-1.60042e-06
-1.5296e-06
-1.4273e-06
-1.28413e-06
-1.097e-06
-8.77155e-07
-6.45924e-07
-4.24814e-07
-2.29944e-07
-1.76131e-08
2.82908e-07
7.1939e-07
1.30939e-06
2.06263e-06
2.97806e-06
4.04413e-06
5.22145e-06
6.47726e-06
7.7711e-06
9.0475e-06
1.02387e-05
1.12692e-05
1.20495e-05
1.24995e-05
1.25364e-05
1.20941e-05
1.11359e-05
9.67076e-06
7.76569e-06
5.55077e-06
3.20562e-06
-4.60156e-06
-4.37722e-06
-4.09372e-06
-3.76455e-06
-3.41194e-06
-3.06267e-06
-2.73681e-06
-2.44949e-06
-2.21634e-06
-2.03553e-06
-1.8995e-06
-1.80066e-06
-1.72843e-06
-1.66941e-06
-1.60879e-06
-1.53207e-06
-1.42658e-06
-1.28272e-06
-1.09651e-06
-8.7738e-07
-6.43284e-07
-4.11442e-07
-1.95813e-07
3.9249e-08
3.59425e-07
8.028e-07
1.39566e-06
2.13802e-06
3.03343e-06
4.05177e-06
5.16258e-06
6.33084e-06
7.51024e-06
8.64346e-06
9.66363e-06
1.04973e-05
1.10758e-05
1.13236e-05
1.1185e-05
1.06243e-05
9.63695e-06
8.25724e-06
6.56046e-06
4.65723e-06
2.6786e-06
-4.3538e-06
-4.16677e-06
-3.93413e-06
-3.66241e-06
-3.36529e-06
-3.06096e-06
-2.76721e-06
-2.49976e-06
-2.27677e-06
-2.09541e-06
-1.95088e-06
-1.84044e-06
-1.75596e-06
-1.68542e-06
-1.61506e-06
-1.53111e-06
-1.42151e-06
-1.27654e-06
-1.0914e-06
-8.73533e-07
-6.37274e-07
-3.95523e-07
-1.58978e-07
9.7867e-08
4.34406e-07
8.81827e-07
1.47565e-06
2.20499e-06
3.06113e-06
4.02014e-06
5.05257e-06
6.11842e-06
7.16875e-06
8.14708e-06
8.99104e-06
9.6359e-06
1.00223e-05
1.00967e-05
9.82378e-06
9.19116e-06
8.21381e-06
6.93603e-06
5.42846e-06
3.77973e-06
2.0848e-06
-4.09882e-06
-3.94375e-06
-3.75361e-06
-3.53115e-06
-3.28457e-06
-3.02414e-06
-2.76463e-06
-2.52616e-06
-2.31914e-06
-2.14107e-06
-1.99236e-06
-1.87328e-06
-1.77795e-06
-1.69625e-06
-1.61595e-06
-1.52445e-06
-1.41058e-06
-1.26476e-06
-1.08141e-06
-8.65922e-07
-6.2881e-07
-3.78804e-07
-1.23164e-07
1.56182e-07
4.9963e-07
9.56503e-07
1.54085e-06
2.24113e-06
3.04738e-06
3.93631e-06
4.8759e-06
5.82427e-06
6.73281e-06
7.54829e-06
8.21545e-06
8.68092e-06
8.89732e-06
8.82971e-06
8.46055e-06
7.79267e-06
6.85071e-06
5.67956e-06
4.33984e-06
2.90023e-06
1.42974e-06
-3.82846e-06
-3.70155e-06
-3.54749e-06
-3.36718e-06
-3.16474e-06
-2.94845e-06
-2.72881e-06
-2.51992e-06
-2.3294e-06
-2.15975e-06
-2.01327e-06
-1.8905e-06
-1.78757e-06
-1.6968e-06
-1.60795e-06
-1.50997e-06
-1.39284e-06
-1.24736e-06
-1.06742e-06
-8.56244e-07
-6.20775e-07
-3.64549e-07
-9.35199e-08
2.01669e-07
5.55989e-07
1.00905e-06
1.57167e-06
2.23291e-06
2.97811e-06
3.78296e-06
4.61454e-06
5.43202e-06
6.18959e-06
6.83976e-06
7.33636e-06
7.63722e-06
7.70864e-06
7.53037e-06
7.09755e-06
6.42171e-06
5.53027e-06
4.46376e-06
3.27153e-06
2.00589e-06
7.17257e-07
-3.53373e-06
-3.4325e-06
-3.31021e-06
-3.16698e-06
-3.00505e-06
-2.82973e-06
-2.64838e-06
-2.46949e-06
-2.29993e-06
-2.1444e-06
-2.00575e-06
-1.88466e-06
-1.77874e-06
-1.68263e-06
-1.58834e-06
-1.48658e-06
-1.36864e-06
-1.22598e-06
-1.05226e-06
-8.48526e-07
-6.18088e-07
-3.59771e-07
-7.95162e-08
2.2409e-07
5.84178e-07
1.02419e-06
1.55344e-06
2.16241e-06
2.83287e-06
3.5394e-06
4.24993e-06
4.92671e-06
5.52942e-06
6.01798e-06
6.35593e-06
6.51178e-06
6.46438e-06
6.20429e-06
5.73446e-06
5.07008e-06
4.23719e-06
3.26998e-06
2.20728e-06
1.08849e-06
-4.9324e-08
-3.20455e-06
-3.12768e-06
-3.0344e-06
-2.92457e-06
-2.79921e-06
-2.66143e-06
-2.51601e-06
-2.36856e-06
-2.22457e-06
-2.0885e-06
-1.96325e-06
-1.84979e-06
-1.74687e-06
-1.65097e-06
-1.5562e-06
-1.45518e-06
-1.34057e-06
-1.2047e-06
-1.04137e-06
-8.49678e-07
-6.2997e-07
-3.75392e-07
-9.68645e-08
2.1183e-07
5.65323e-07
9.8084e-07
1.4643e-06
2.00661e-06
2.58859e-06
3.18463e-06
3.76505e-06
4.29742e-06
4.74818e-06
5.08577e-06
5.28143e-06
5.31476e-06
5.17432e-06
4.85773e-06
4.37186e-06
3.73217e-06
2.96128e-06
2.08669e-06
1.13822e-06
1.45283e-07
-8.64757e-07
-2.82897e-06
-2.77641e-06
-2.71093e-06
-2.63236e-06
-2.54105e-06
-2.43875e-06
-2.32845e-06
-2.21393e-06
-2.09914e-06
-1.98755e-06
-1.88169e-06
-1.78263e-06
-1.68988e-06
-1.60136e-06
-1.51309e-06
-1.41942e-06
-1.31423e-06
-1.19095e-06
-1.04385e-06
-8.70387e-07
-6.68245e-07
-4.28991e-07
-1.57697e-07
1.41693e-07
4.75582e-07
8.54246e-07
1.27909e-06
1.7411e-06
2.22266e-06
2.69985e-06
3.14803e-06
3.54064e-06
3.8501e-06
4.05076e-06
4.12443e-06
4.05947e-06
3.85057e-06
3.49918e-06
3.01341e-06
2.4072e-06
1.69903e-06
9.10212e-07
6.31815e-08
-8.20253e-07
-1.71987e-06
-2.39298e-06
-2.36649e-06
-2.3296e-06
-2.2823e-06
-2.22468e-06
-2.15772e-06
-2.08325e-06
-2.00371e-06
-1.92177e-06
-1.83993e-06
-1.76007e-06
-1.68329e-06
-1.60951e-06
-1.53718e-06
-1.4639e-06
-1.38615e-06
-1.29878e-06
-1.19606e-06
-1.07289e-06
-9.25582e-07
-7.49894e-07
-5.36321e-07
-2.86827e-07
-1.17323e-08
2.88233e-07
6.16445e-07
9.71006e-07
1.34208e-06
1.71508e-06
2.07348e-06
2.39667e-06
2.65984e-06
2.84061e-06
2.92415e-06
2.90003e-06
2.7616e-06
2.50691e-06
2.13913e-06
1.66607e-06
1.09933e-06
4.53324e-07
-2.55943e-07
-1.01189e-06
-1.79848e-06
-2.60076e-06
-1.8834e-06
-1.88653e-06
-1.88119e-06
-1.86752e-06
-1.84561e-06
-1.81606e-06
-1.77995e-06
-1.73884e-06
-1.69442e-06
-1.64838e-06
-1.6021e-06
-1.55618e-06
-1.51106e-06
-1.46615e-06
-1.41916e-06
-1.36764e-06
-1.30796e-06
-1.23548e-06
-1.14578e-06
-1.03449e-06
-8.96306e-07
-7.2168e-07
-5.10422e-07
-2.7537e-07
-2.38055e-08
2.41308e-07
5.14699e-07
7.87513e-07
1.05507e-06
1.30373e-06
1.51142e-06
1.65717e-06
1.72979e-06
1.72134e-06
1.62501e-06
1.43682e-06
1.15673e-06
7.88365e-07
3.38388e-07
-1.84174e-07
-7.68576e-07
-1.40309e-06
-2.07569e-06
-2.77469e-06
-3.48907e-06
-1.29591e-06
-1.33396e-06
-1.36493e-06
-1.38921e-06
-1.40707e-06
-1.41899e-06
-1.42567e-06
-1.42793e-06
-1.42708e-06
-1.42382e-06
-1.41911e-06
-1.41481e-06
-1.40943e-06
-1.40164e-06
-1.39286e-06
-1.38081e-06
-1.36069e-06
-1.32966e-06
-1.28465e-06
-1.22093e-06
-1.13272e-06
-1.01152e-06
-8.56133e-07
-6.78484e-07
-4.87098e-07
-2.91296e-07
-1.03447e-07
7.19563e-08
2.42367e-07
3.91368e-07
4.95114e-07
5.44559e-07
5.3508e-07
4.60792e-07
3.16574e-07
1.00308e-07
-1.87077e-07
-5.42309e-07
-9.6029e-07
-1.43443e-06
-1.95703e-06
-2.51972e-06
-3.11395e-06
-3.73132e-06
-4.3638e-06
-6.2676e-07
-7.08383e-07
-7.83703e-07
-8.53414e-07
-9.18113e-07
-9.78331e-07
-1.03461e-06
-1.08753e-06
-1.13784e-06
-1.18609e-06
-1.23298e-06
-1.27914e-06
-1.32348e-06
-1.36652e-06
-1.40934e-06
-1.44833e-06
-1.47965e-06
-1.50235e-06
-1.51409e-06
-1.51003e-06
-1.48467e-06
-1.4316e-06
-1.34857e-06
-1.2447e-06
-1.12761e-06
-1.00552e-06
-8.79772e-07
-7.96756e-07
-7.11879e-07
-6.53015e-07
-6.32405e-07
-6.52534e-07
-7.17574e-07
-8.33069e-07
-1.00266e-06
-1.22722e-06
-1.50567e-06
-1.83561e-06
-2.21355e-06
-2.635e-06
-3.09464e-06
-3.58667e-06
-4.10514e-06
-4.64414e-06
-5.19789e-06
1.34295e-07
-2.50266e-09
-1.34336e-07
-2.61503e-07
-3.84625e-07
-5.04335e-07
-6.21168e-07
-7.35566e-07
-8.47963e-07
-9.58766e-07
-1.06832e-06
-1.17695e-06
-1.28465e-06
-1.39112e-06
-1.4955e-06
-1.59592e-06
-1.69103e-06
-1.77956e-06
-1.85873e-06
-1.92444e-06
-1.97199e-06
-1.99784e-06
-1.99844e-06
-1.97674e-06
-1.94688e-06
-1.91868e-06
-1.89017e-06
-1.82773e-06
-1.7995e-06
-1.80609e-06
-1.84076e-06
-1.90351e-06
-1.9994e-06
-2.13325e-06
-2.30732e-06
-2.52202e-06
-2.77677e-06
-3.07028e-06
-3.4005e-06
-3.76457e-06
-4.15904e-06
-4.58012e-06
-5.02383e-06
-5.48614e-06
-5.96297e-06
8.39103e-07
6.42345e-07
4.50147e-07
2.6199e-07
7.71454e-08
-1.05021e-07
-2.84984e-07
-4.63084e-07
-6.39603e-07
-8.14786e-07
-9.88787e-07
-1.16168e-06
-1.33323e-06
-1.5029e-06
-1.67024e-06
-1.83454e-06
-1.99443e-06
-2.14778e-06
-2.29215e-06
-2.42445e-06
-2.54155e-06
-2.64126e-06
-2.71697e-06
-2.76811e-06
-2.80329e-06
-2.82173e-06
-2.83579e-06
-2.84718e-06
-2.87636e-06
-2.92456e-06
-2.98932e-06
-3.07295e-06
-3.17988e-06
-3.3135e-06
-3.47568e-06
-3.66733e-06
-3.88869e-06
-4.13938e-06
-4.41835e-06
-4.72398e-06
-5.05426e-06
-5.40687e-06
-5.77928e-06
-6.16886e-06
-6.57292e-06
1.42319e-06
1.16926e-06
9.19256e-07
6.72842e-07
4.29448e-07
1.88571e-07
-5.01387e-08
-2.8689e-07
-5.2181e-07
-7.54966e-07
-9.86355e-07
-1.21588e-06
-1.44332e-06
-1.66833e-06
-1.89038e-06
-2.10854e-06
-2.32126e-06
-2.52679e-06
-2.72312e-06
-2.90795e-06
-3.07903e-06
-3.23377e-06
-3.36478e-06
-3.46917e-06
-3.54962e-06
-3.6139e-06
-3.66353e-06
-3.71717e-06
-3.77766e-06
-3.84545e-06
-3.92296e-06
-4.01362e-06
-4.12049e-06
-4.24589e-06
-4.39165e-06
-4.55908e-06
-4.74884e-06
-4.96107e-06
-5.1954e-06
-5.45112e-06
-5.72718e-06
-6.02231e-06
-6.335e-06
-6.66366e-06
-7.00656e-06
1.84724e-06
1.54419e-06
1.24488e-06
9.49096e-07
6.56467e-07
3.66684e-07
7.95725e-08
-2.04924e-07
-4.86793e-07
-7.6597e-07
-1.04235e-06
-1.31574e-06
-1.58586e-06
-1.85221e-06
-2.11409e-06
-2.37049e-06
-2.62015e-06
-2.8616e-06
-3.0931e-06
-3.31271e-06
-3.51836e-06
-3.70808e-06
-3.87361e-06
-4.00922e-06
-4.1171e-06
-4.20626e-06
-4.28475e-06
-4.35968e-06
-4.43315e-06
-4.50847e-06
-4.5896e-06
-4.6796e-06
-4.78085e-06
-4.89544e-06
-5.02523e-06
-5.17161e-06
-5.33549e-06
-5.51734e-06
-5.71731e-06
-5.93527e-06
-6.1708e-06
-6.42327e-06
-6.69184e-06
-6.97552e-06
-7.27324e-06
2.14785e-06
1.80398e-06
1.46401e-06
1.12787e-06
7.95358e-07
4.66383e-07
1.40943e-07
-1.80873e-07
-4.98924e-07
-8.13031e-07
-1.12297e-06
-1.42844e-06
-1.72902e-06
-2.02413e-06
-2.31303e-06
-2.5948e-06
-2.86834e-06
-3.13233e-06
-3.38525e-06
-3.62543e-06
-3.85117e-06
-4.06089e-06
-4.24576e-06
-4.39935e-06
-4.52569e-06
-4.6326e-06
-4.7268e-06
-4.8122e-06
-4.8929e-06
-4.97306e-06
-5.05605e-06
-5.14449e-06
-5.24067e-06
-5.34669e-06
-5.46432e-06
-5.59501e-06
-5.7398e-06
-5.89949e-06
-6.07457e-06
-6.2653e-06
-6.4717e-06
-6.69357e-06
-6.93053e-06
-7.18206e-06
-7.44753e-06
2.35374e-06
1.97711e-06
1.60478e-06
1.2368e-06
8.73175e-07
5.1398e-07
1.59378e-07
-1.90403e-07
-5.35108e-07
-8.74448e-07
-1.2081e-06
-1.53565e-06
-1.85662e-06
-2.1704e-06
-2.47627e-06
-2.77338e-06
-3.06074e-06
-3.33718e-06
-3.60145e-06
-3.85217e-06
-4.08803e-06
-4.3076e-06
-4.50227e-06
-4.66682e-06
-4.80463e-06
-4.92273e-06
-5.02574e-06
-5.1183e-06
-5.20478e-06
-5.28872e-06
-5.37304e-06
-5.46031e-06
-5.55286e-06
-5.65272e-06
-5.76166e-06
-5.88117e-06
-6.01247e-06
-6.15657e-06
-6.3142e-06
-6.48589e-06
-6.67197e-06
-6.87256e-06
-7.08761e-06
-7.31696e-06
-7.56033e-06
2.49176e-06
2.08938e-06
1.69185e-06
1.29935e-06
9.12044e-07
5.30169e-07
1.54027e-07
-2.16042e-07
-5.79688e-07
-9.36534e-07
-1.28618e-06
-1.62815e-06
-1.96194e-06
-2.28693e-06
-2.60244e-06
-2.90769e-06
-3.20181e-06
-3.48384e-06
-3.75275e-06
-4.00746e-06
-4.24699e-06
-4.47013e-06
-4.66899e-06
-4.83881e-06
-4.98408e-06
-5.10893e-06
-5.21823e-06
-5.31646e-06
-5.4074e-06
-5.49423e-06
-5.57979e-06
-5.66665e-06
-5.75707e-06
-5.85307e-06
-5.95641e-06
-6.06867e-06
-6.19117e-06
-6.32504e-06
-6.4712e-06
-6.63039e-06
-6.80313e-06
-6.98981e-06
-7.19064e-06
-7.4057e-06
-7.63497e-06
2.58227e-06
2.15991e-06
1.74303e-06
1.33193e-06
9.26909e-07
5.28341e-07
1.36633e-07
-2.47789e-07
-6.24501e-07
-9.93064e-07
-1.35302e-06
-1.70387e-06
-2.04509e-06
-2.37608e-06
-2.69621e-06
-3.00479e-06
-3.30109e-06
-3.58431e-06
-3.85369e-06
-4.10837e-06
-4.34768e-06
-4.57072e-06
-4.77057e-06
-4.94314e-06
-5.09207e-06
-5.22136e-06
-5.33526e-06
-5.43765e-06
-5.53199e-06
-5.62133e-06
-5.70841e-06
-5.79569e-06
-5.88537e-06
-5.97946e-06
-6.07973e-06
-6.1878e-06
-6.30506e-06
-6.43276e-06
-6.57193e-06
-6.72347e-06
-6.88808e-06
-7.06633e-06
-7.25862e-06
-7.46524e-06
-7.68634e-06
2.64015e-06
2.20233e-06
1.77065e-06
1.34551e-06
9.27324e-07
5.16568e-07
1.13732e-07
-2.80695e-07
-6.66235e-07
-1.0424e-06
-1.40871e-06
-1.76464e-06
-2.10967e-06
-2.44323e-06
-2.76478e-06
-3.07369e-06
-3.36938e-06
-3.6512e-06
-3.9186e-06
-4.17094e-06
-4.40783e-06
-4.62867e-06
-4.82743e-06
-5.0007e-06
-5.15155e-06
-5.28369e-06
-5.40075e-06
-5.50622e-06
-5.60335e-06
-5.69501e-06
-5.78379e-06
-5.87205e-06
-5.96196e-06
-6.05548e-06
-6.15441e-06
-6.26039e-06
-6.37488e-06
-6.4992e-06
-6.6345e-06
-6.78178e-06
-6.9419e-06
-7.11556e-06
-7.30331e-06
-7.50559e-06
-7.72271e-06
2.67583e-06
2.22595e-06
1.78286e-06
1.34705e-06
9.19011e-07
4.99313e-07
8.85046e-08
-3.1288e-07
-7.04321e-07
-1.0853e-06
-1.45532e-06
-1.81384e-06
-2.16038e-06
-2.49441e-06
-2.81542e-06
-3.1229e-06
-3.41638e-06
-3.69536e-06
-3.95946e-06
-4.20822e-06
-4.44152e-06
-4.65893e-06
-4.85535e-06
-5.02805e-06
-5.17962e-06
-5.31343e-06
-5.43262e-06
-5.5404e-06
-5.63979e-06
-5.73348e-06
-5.82394e-06
-5.91342e-06
-6.00406e-06
-6.09779e-06
-6.19643e-06
-6.30164e-06
-6.41493e-06
-6.5377e-06
-6.67117e-06
-6.81645e-06
-6.97449e-06
-7.14612e-06
-7.33202e-06
-7.53271e-06
-7.74865e-06
2.69645e-06
2.23699e-06
1.78495e-06
1.34086e-06
9.05324e-07
4.78958e-07
6.23548e-08
-3.43914e-07
-7.39298e-07
-1.12326e-06
-1.49528e-06
-1.85486e-06
-2.2015e-06
-2.53473e-06
-2.85411e-06
-3.1592e-06
-3.44965e-06
-3.72506e-06
-3.98521e-06
-4.22982e-06
-4.45894e-06
-4.67229e-06
-4.86569e-06
-5.037e-06
-5.18841e-06
-5.32305e-06
-5.4436e-06
-5.55303e-06
-5.65417e-06
-5.74953e-06
-5.84146e-06
-5.93216e-06
-6.0237e-06
-6.11802e-06
-6.21692e-06
-6.32211e-06
-6.43513e-06
-6.55743e-06
-6.69032e-06
-6.83499e-06
-6.99248e-06
-7.16369e-06
-7.34941e-06
-7.55026e-06
-7.76678e-06
2.70686e-06
2.23963e-06
1.78037e-06
1.32972e-06
8.88324e-07
4.56852e-07
3.59312e-08
-3.7384e-07
-7.71887e-07
-1.15766e-06
-1.53065e-06
-1.89034e-06
-2.23628e-06
-2.56804e-06
-2.88522e-06
-3.18747e-06
-3.47452e-06
-3.74609e-06
-4.00209e-06
-4.24234e-06
-4.46708e-06
-4.67616e-06
-4.86618e-06
-5.03557e-06
-5.18615e-06
-5.32106e-06
-5.44239e-06
-5.5529e-06
-5.65529e-06
-5.75193e-06
-5.84505e-06
-5.93681e-06
-6.02922e-06
-6.12421e-06
-6.22359e-06
-6.32909e-06
-6.44231e-06
-6.56473e-06
-6.69774e-06
-6.84257e-06
-7.00036e-06
-7.17209e-06
-7.35861e-06
-7.56062e-06
-7.77874e-06
2.71044e-06
2.23672e-06
1.77151e-06
1.31549e-06
8.69378e-07
4.33871e-07
9.62229e-09
-4.02744e-07
-8.0264e-07
-1.18951e-06
-1.56283e-06
-1.92212e-06
-2.26694e-06
-2.59691e-06
-2.91168e-06
-3.21095e-06
-3.49454e-06
-3.76227e-06
-4.01413e-06
-4.25008e-06
-4.47048e-06
-4.67528e-06
-4.86181e-06
-5.02899e-06
-5.17824e-06
-5.31302e-06
-5.43469e-06
-5.54581e-06
-5.64901e-06
-5.74655e-06
-5.84055e-06
-5.93312e-06
-6.02624e-06
-6.12182e-06
-6.2217e-06
-6.32761e-06
-6.4412e-06
-6.56399e-06
-6.69742e-06
-6.8428e-06
-7.00131e-06
-7.17402e-06
-7.36183e-06
-7.56552e-06
-7.78574e-06
2.70954e-06
2.23027e-06
1.76001e-06
1.29949e-06
8.49463e-07
4.10653e-07
-1.62592e-08
-4.30633e-07
-8.31865e-07
-1.2194e-06
-1.59271e-06
-1.95134e-06
-2.29488e-06
-2.62296e-06
-2.93529e-06
-3.23165e-06
-3.51189e-06
-3.77593e-06
-4.02384e-06
-4.25567e-06
-4.47189e-06
-4.67256e-06
-4.85565e-06
-5.02042e-06
-5.16817e-06
-5.30246e-06
-5.42414e-06
-5.53547e-06
-5.63913e-06
-5.73721e-06
-5.8318e-06
-5.92491e-06
-6.01853e-06
-6.11455e-06
-6.21481e-06
-6.32108e-06
-6.43502e-06
-6.55823e-06
-6.69217e-06
-6.83822e-06
-6.99761e-06
-7.17146e-06
-7.36075e-06
-7.56629e-06
-7.7888e-06
2.7058e-06
2.22171e-06
1.74707e-06
1.28267e-06
8.29295e-07
3.87695e-07
-4.14317e-08
-4.57428e-07
-8.59684e-07
-1.24764e-06
-1.62078e-06
-1.97865e-06
-2.32087e-06
-2.6471e-06
-2.95711e-06
-3.2507e-06
-3.5278e-06
-3.78838e-06
-4.03261e-06
-4.2606e-06
-4.47289e-06
-4.66964e-06
-4.84942e-06
-5.0116e-06
-5.15801e-06
-5.29147e-06
-5.41293e-06
-5.52417e-06
-5.62797e-06
-5.72631e-06
-5.8212e-06
-5.91462e-06
-6.00851e-06
-6.10478e-06
-6.20528e-06
-6.31177e-06
-6.42599e-06
-6.54954e-06
-6.68394e-06
-6.83063e-06
-6.99088e-06
-7.16587e-06
-7.35663e-06
-7.56401e-06
-7.78876e-06
2.70037e-06
2.212e-06
1.7335e-06
1.2657e-06
8.09407e-07
3.65387e-07
-6.56419e-08
-4.83008e-07
-8.86094e-07
-1.27434e-06
-1.64723e-06
-2.00434e-06
-2.3453e-06
-2.66981e-06
-2.97765e-06
-3.26868e-06
-3.54289e-06
-3.80031e-06
-4.04114e-06
-4.2656e-06
-4.47425e-06
-4.66735e-06
-4.84395e-06
-5.00358e-06
-5.14878e-06
-5.28124e-06
-5.40222e-06
-5.51318e-06
-5.61689e-06
-5.71526e-06
-5.81023e-06
-5.90374e-06
-5.99771e-06
-6.09405e-06
-6.1946e-06
-6.30119e-06
-6.41554e-06
-6.53931e-06
-6.67408e-06
-6.8213e-06
-6.98232e-06
-7.15834e-06
-7.35044e-06
-7.55954e-06
-7.78639e-06
2.69404e-06
2.20186e-06
1.71993e-06
1.2491e-06
7.90219e-07
3.4406e-07
-8.86398e-08
-5.07198e-07
-9.10993e-07
-1.29946e-06
-1.67211e-06
-2.0285e-06
-2.36829e-06
-2.69121e-06
-2.99708e-06
-3.2858e-06
-3.55739e-06
-3.81193e-06
-4.04969e-06
-4.27093e-06
-4.47626e-06
-4.666e-06
-4.8396e-06
-4.99686e-06
-5.14088e-06
-5.27229e-06
-5.39257e-06
-5.50315e-06
-5.60661e-06
-5.70484e-06
-5.79972e-06
-5.89314e-06
-5.98703e-06
-6.08327e-06
-6.18375e-06
-6.29028e-06
-6.40463e-06
-6.52851e-06
-6.6635e-06
-6.81113e-06
-6.97277e-06
-7.14968e-06
-7.34297e-06
-7.5536e-06
-7.78235e-06
2.68738e-06
2.19179e-06
1.70679e-06
1.23326e-06
7.72067e-07
3.24004e-07
-1.1018e-07
-5.29796e-07
-9.34215e-07
-1.32288e-06
-1.69529e-06
-2.05103e-06
-2.38978e-06
-2.71128e-06
-3.01539e-06
-3.30203e-06
-3.57127e-06
-3.82323e-06
-4.05823e-06
-4.27658e-06
-4.47893e-06
-4.66562e-06
-4.83646e-06
-4.99164e-06
-5.13432e-06
-5.26471e-06
-5.38421e-06
-5.49437e-06
-5.59748e-06
-5.69544e-06
-5.79009e-06
-5.8833e-06
-5.97698e-06
-6.07302e-06
-6.17329e-06
-6.27966e-06
-6.3939e-06
-6.51775e-06
-6.65285e-06
-6.80075e-06
-6.96288e-06
-7.14052e-06
-7.33482e-06
-7.54677e-06
-7.7772e-06
2.6806e-06
2.18193e-06
1.69416e-06
1.2182e-06
7.54924e-07
3.05146e-07
-1.30374e-07
-5.50941e-07
-9.55923e-07
-1.34476e-06
-1.71696e-06
-2.07213e-06
-2.40995e-06
-2.73018e-06
-3.03271e-06
-3.31749e-06
-3.58462e-06
-3.83427e-06
-4.0668e-06
-4.28255e-06
-4.4822e-06
-4.66612e-06
-4.83443e-06
-4.98773e-06
-5.12899e-06
-5.25843e-06
-5.37715e-06
-5.4868e-06
-5.58949e-06
-5.6871e-06
-5.78143e-06
-5.87433e-06
-5.9677e-06
-6.06343e-06
-6.1634e-06
-6.2695e-06
-6.38353e-06
-6.50726e-06
-6.64236e-06
-6.79042e-06
-6.95289e-06
-7.13111e-06
-7.32626e-06
-7.53935e-06
-7.77125e-06
2.67351e-06
2.17188e-06
1.68146e-06
1.20318e-06
7.37912e-07
2.86495e-07
-1.50305e-07
-5.71784e-07
-9.77309e-07
-1.36632e-06
-1.73834e-06
-2.09297e-06
-2.42991e-06