/*--------------------------------*- C++ -*----------------------------------*\
| =========                 |                                                 |
| \\      /  F ield         | OpenFOAM: The Open Source CFD Toolbox           |
|  \\    /   O peration     | Version:  2312                                  |
|   \\  /    A nd           | Website:  www.openfoam.com                      |
|    \\/     M anipulation  |                                                 |
\*---------------------------------------------------------------------------*/
FoamFile
{
    version     2.0;
    format      ascii;
    arch        "LSB;label=32;scalar=64";
    class       surfaceScalarField;
    location    "124";
    object      phi;
}
// * * * * * * * * * * * * * * * * * * * * * * * * * * * * * * * * * * * * * //

dimensions      [0 3 -1 0 0 0 0];

oriented        oriented;

internalField   nonuniform List<scalar> 
9445
(
5.85548e-10
8.51528e-12
5.81673e-10
3.87553e-12
5.80521e-10
1.15168e-12
5.81149e-10
-6.2753e-13
5.82924e-10
-1.77565e-12
5.85559e-10
-2.6342e-12
5.89016e-10
-3.45709e-12
5.93355e-10
-4.33925e-12
5.98738e-10
-5.38303e-12
6.05592e-10
-6.85379e-12
6.15072e-10
-9.48059e-12
6.30821e-10
-1.57484e-11
6.65709e-10
-3.48879e-11
7.65097e-10
-9.93885e-11
-2.56342e-10
1.02144e-09
2.05013e-09
3.74158e-11
2.03643e-09
1.75777e-11
2.03174e-09
5.8381e-12
2.03282e-09
-1.71011e-12
2.03766e-09
-6.6146e-12
2.04538e-09
-1.03525e-11
2.05574e-09
-1.38121e-11
2.06882e-09
-1.74215e-11
2.08514e-09
-2.16998e-11
2.10594e-09
-2.76567e-11
2.13418e-09
-3.77201e-11
2.1769e-09
-5.84743e-11
2.24769e-09
-1.05672e-10
2.35943e-09
-2.1113e-10
-3.73043e-10
2.47613e-09
4.05446e-09
9.27063e-11
4.02742e-09
4.46121e-11
4.01721e-09
1.60562e-11
4.01767e-09
-2.17858e-12
4.02509e-09
-1.40275e-11
4.03787e-09
-2.31359e-11
4.05543e-09
-3.13726e-11
4.07767e-09
-3.96575e-11
4.10526e-09
-4.92938e-11
4.13982e-09
-6.22121e-11
4.18436e-09
-8.22603e-11
4.24366e-09
-1.1778e-10
4.3205e-09
-1.82507e-10
4.40083e-09
-2.91462e-10
-4.20104e-10
4.44789e-09
6.74623e-09
1.80888e-10
6.7018e-09
8.90472e-11
6.68342e-09
3.44287e-11
6.68163e-09
-3.79713e-13
6.69055e-09
-2.29548e-11
6.70766e-09
-4.02447e-11
6.73192e-09
-5.56262e-11
6.76266e-09
-7.03978e-11
6.80034e-09
-8.69797e-11
6.8461e-09
-1.07974e-10
6.90132e-09
-1.37479e-10
6.96587e-09
-1.82327e-10
7.03329e-09
-2.49926e-10
7.08342e-09
-3.41591e-10
-4.30922e-10
7.09424e-09
1.03027e-08
3.07831e-10
1.02368e-08
1.54919e-10
1.02074e-08
6.38728e-11
1.02012e-08
5.87432e-12
1.02101e-08
-3.18945e-11
1.02301e-08
-6.02207e-11
1.02595e-08
-8.50884e-11
1.02969e-08
-1.07819e-10
1.0342e-08
-1.32078e-10
1.03947e-08
-1.60652e-10
1.0454e-08
-1.96717e-10
1.05155e-08
-2.43884e-10
1.05691e-08
-3.0355e-10
1.05981e-08
-3.70535e-10
-4.25674e-10
1.05928e-08
1.49311e-08
4.76346e-10
1.48412e-08
2.4478e-10
1.47984e-08
1.06728e-10
1.47856e-08
1.86458e-11
1.47928e-08
-3.91116e-11
1.48139e-08
-8.13159e-11
1.48463e-08
-1.17436e-10
1.48876e-08
-1.49115e-10
1.49363e-08
-1.80834e-10
1.49909e-08
-2.15174e-10
1.5048e-08
-2.53861e-10
1.51016e-08
-2.97498e-10
1.51421e-08
-3.44021e-10
1.51589e-08
-3.87396e-10
-4.16836e-10
1.51501e-08
2.08652e-08
6.8193e-10
2.0753e-08
3.57009e-10
2.0697e-08
1.62664e-10
2.0677e-08
3.86641e-11
2.06812e-08
-4.33185e-11
2.07021e-08
-1.02163e-10
2.07349e-08
-1.50292e-10
2.0777e-08
-1.91162e-10
2.08254e-08
-2.29251e-10
2.0877e-08
-2.66803e-10
2.09275e-08
-3.04361e-10
2.09709e-08
-3.40889e-10
2.10004e-08
-3.73563e-10
2.10112e-08
-3.98178e-10
-4.09994e-10
2.10044e-08
2.83575e-08
9.06765e-10
2.82328e-08
4.81709e-10
2.81695e-08
2.25948e-10
2.81454e-08
6.27959e-11
2.81477e-08
-4.564e-11
2.81681e-08
-1.22498e-10
2.82004e-08
-1.82613e-10
2.8241e-08
-2.31749e-10
2.8286e-08
-2.74321e-10
2.83316e-08
-3.12358e-10
2.83732e-08
-3.4598e-10
2.84063e-08
-3.74024e-10
2.84274e-08
-3.94587e-10
2.8435e-08
-4.05788e-10
-4.06388e-10
2.84314e-08
3.76695e-08
1.11424e-09
3.75549e-08
5.9633e-10
3.74988e-08
2.82088e-10
3.74801e-08
8.14837e-11
3.74865e-08
-5.20529e-11
3.75096e-08
-1.45632e-10
3.7543e-08
-2.16038e-10
3.75824e-08
-2.71116e-10
3.76236e-08
-3.15515e-10
3.76627e-08
-3.51427e-10
3.76961e-08
-3.79361e-10
3.7721e-08
-3.99012e-10
3.77364e-08
-4.09913e-10
3.77426e-08
-4.12024e-10
-4.05868e-10
3.77421e-08
4.90706e-08
1.25046e-09
4.9002e-08
6.64909e-10
4.89777e-08
3.06328e-10
4.89821e-08
7.71721e-11
4.9005e-08
-7.4985e-11
4.90396e-08
-1.802e-10
4.90801e-08
-2.56552e-10
4.91224e-08
-3.1348e-10
4.91631e-08
-3.5616e-10
4.9199e-08
-3.87354e-10
4.92281e-08
-4.08442e-10
4.92493e-08
-4.20264e-10
4.9263e-08
-4.2359e-10
4.92705e-08
-4.19498e-10
-4.09268e-10
4.92739e-08
6.28676e-08
1.26196e-09
6.28849e-08
6.47615e-10
6.29224e-08
2.68913e-10
6.29721e-08
2.73879e-11
6.30288e-08
-1.31627e-10
6.30879e-08
-2.39324e-10
6.31457e-08
-3.14368e-10
6.31994e-08
-3.67209e-10
6.3247e-08
-4.03678e-10
6.32869e-08
-4.27282e-10
6.33188e-08
-4.40299e-10
6.3343e-08
-4.4449e-10
6.33608e-08
-4.41382e-10
6.33738e-08
-4.32549e-10
-4.19471e-10
6.3384e-08
7.9482e-08
1.12933e-09
7.9606e-08
5.23619e-10
7.97239e-08
1.50949e-10
7.98355e-08
-8.41633e-11
7.99397e-08
-2.35826e-10
8.0035e-08
-3.34655e-10
8.01203e-08
-3.99611e-10
8.01946e-08
-4.41562e-10
8.02579e-08
-4.6694e-10
8.03105e-08
-4.79892e-10
8.03535e-08
-4.83297e-10
8.03884e-08
-4.79392e-10
8.0417e-08
-4.69984e-10
8.04411e-08
-4.56703e-10
-4.40919e-10
8.04626e-08
9.9534e-08
8.89159e-10
9.97449e-08
3.1272e-10
9.99326e-08
-3.67164e-11
1.00101e-07
-2.52535e-10
1.0025e-07
-3.85212e-10
1.00382e-07
-4.66148e-10
1.00496e-07
-5.13885e-10
1.00594e-07
-5.39583e-10
1.00677e-07
-5.50168e-10
1.00748e-07
-5.50177e-10
1.00807e-07
-5.42726e-10
1.00858e-07
-5.30126e-10
1.00902e-07
-5.14122e-10
1.00941e-07
-4.96144e-10
-4.77292e-10
1.00978e-07
1.23819e-07
6.10192e-10
1.24064e-07
6.77737e-11
1.24283e-07
-2.55795e-10
1.24478e-07
-4.46807e-10
1.24649e-07
-5.56801e-10
1.248e-07
-6.16513e-10
1.2493e-07
-6.44559e-10
1.25043e-07
-6.52464e-10
1.25141e-07
-6.47511e-10
1.25225e-07
-6.34409e-10
1.25298e-07
-6.16265e-10
1.25363e-07
-5.95248e-10
1.25422e-07
-5.72875e-10
1.25476e-07
-5.50279e-10
-5.28247e-10
1.25527e-07
1.53106e-07
3.44316e-10
1.5334e-07
-1.66552e-10
1.53548e-07
-4.63786e-10
1.53733e-07
-6.31485e-10
1.53897e-07
-7.20335e-10
1.54041e-07
-7.60765e-10
1.54168e-07
-7.71281e-10
1.54279e-07
-7.63774e-10
1.54377e-07
-7.45664e-10
1.54464e-07
-7.2168e-10
1.54543e-07
-6.94807e-10
1.54615e-07
-6.66999e-10
1.54681e-07
-6.39518e-10
1.54744e-07
-6.1321e-10
-5.8858e-10
1.54804e-07
1.87887e-07
1.03739e-10
1.88093e-07
-3.72714e-10
1.88271e-07
-6.41267e-10
1.88427e-07
-7.87211e-10
1.88564e-07
-8.57958e-10
1.88686e-07
-8.82661e-10
1.88795e-07
-8.79762e-10
1.88892e-07
-8.60956e-10
1.8898e-07
-8.33525e-10
1.8906e-07
-8.02066e-10
1.89135e-07
-7.69367e-10
1.89205e-07
-7.3716e-10
1.89272e-07
-7.06471e-10
1.89336e-07
-6.77908e-10
-6.51746e-10
1.894e-07
2.2823e-07
-1.25069e-10
2.28409e-07
-5.51011e-10
2.28556e-07
-7.88867e-10
2.28682e-07
-9.12778e-10
2.28791e-07
-9.66999e-10
2.28887e-07
-9.79273e-10
2.28975e-07
-9.66799e-10
2.29054e-07
-9.406e-10
2.29128e-07
-9.07567e-10
2.29198e-07
-8.71898e-10
2.29265e-07
-8.36132e-10
2.29329e-07
-8.01787e-10
2.29393e-07
-7.69688e-10
2.29455e-07
-7.40264e-10
-7.13627e-10
2.29517e-07
2.73635e-07
-3.43225e-10
2.73793e-07
-7.09371e-10
2.73917e-07
-9.1234e-10
2.74018e-07
-1.01377e-09
2.74104e-07
-1.05311e-09
2.7418e-07
-1.05529e-09
2.74249e-07
-1.03621e-09
2.74314e-07
-1.00573e-09
2.74377e-07
-9.70007e-10
2.74438e-07
-9.32708e-10
2.74498e-07
-8.96056e-10
2.74557e-07
-8.61313e-10
2.74617e-07
-8.29111e-10
2.74676e-07
-7.99751e-10
-7.73232e-10
2.74736e-07
3.22718e-07
-5.50937e-10
3.2286e-07
-8.51066e-10
3.22962e-07
-1.01469e-09
3.2304e-07
-1.09208e-09
3.23104e-07
-1.11707e-09
3.2316e-07
-1.11112e-09
3.23212e-07
-1.08755e-09
3.23261e-07
-1.05477e-09
3.23309e-07
-1.01819e-09
3.23357e-07
-9.80941e-10
3.23406e-07
-9.44788e-10
3.23455e-07
-9.10717e-10
3.23505e-07
-8.79197e-10
3.23556e-07
-8.50364e-10
-8.24133e-10
3.23607e-07
3.72544e-07
-7.10655e-10
3.72627e-07
-9.34471e-10
3.72668e-07
-1.05598e-09
3.72687e-07
-1.11073e-09
3.72695e-07
-1.12513e-09
3.72699e-07
-1.11537e-09
3.72705e-07
-1.09273e-09
3.72713e-07
-1.0628e-09
3.72724e-07
-1.0296e-09
3.72739e-07
-9.95877e-10
3.72757e-07
-9.63108e-10
3.72779e-07
-9.32088e-10
3.72803e-07
-9.03126e-10
3.72828e-07
-8.76289e-10
-8.51559e-10
3.72856e-07
3.70488e-07
-8.22583e-10
3.70536e-07
-9.81832e-10
3.70547e-07
-1.06701e-09
3.70539e-07
-1.10338e-09
3.70525e-07
-1.11059e-09
3.70509e-07
-1.09906e-09
3.70493e-07
-1.07701e-09
3.7048e-07
-1.04977e-09
3.7047e-07
-1.02009e-09
3.70464e-07
-9.89985e-10
3.70462e-07
-9.60472e-10
3.70462e-07
-9.32147e-10
3.70464e-07
-9.05211e-10
3.70467e-07
-8.79678e-10
-8.55509e-10
3.70471e-07
3.17433e-07
-8.52393e-10
3.17421e-07
-9.69458e-10
3.17386e-07
-1.03214e-09
3.17341e-07
-1.05839e-09
3.17293e-07
-1.06215e-09
3.17245e-07
-1.05149e-09
3.17201e-07
-1.03255e-09
3.1716e-07
-1.00908e-09
3.17123e-07
-9.83436e-10
3.1709e-07
-9.57036e-10
3.17061e-07
-9.30685e-10
3.17033e-07
-9.0481e-10
3.17008e-07
-8.79569e-10
3.16983e-07
-8.54981e-10
-8.31015e-10
3.16959e-07
2.66266e-07
-8.41589e-10
2.66222e-07
-9.25716e-10
2.66161e-07
-9.70962e-10
2.66093e-07
-9.89693e-10
2.66022e-07
-9.91219e-10
2.65952e-07
-9.81902e-10
2.65885e-07
-9.65856e-10
2.65822e-07
-9.45989e-10
2.65763e-07
-9.23962e-10
2.65707e-07
-9.00838e-10
2.65653e-07
-8.77251e-10
2.65602e-07
-8.53525e-10
2.65552e-07
-8.29784e-10
2.65503e-07
-8.06039e-10
-7.82235e-10
2.65454e-07
2.19663e-07
-7.93314e-10
2.19591e-07
-8.53471e-10
2.19506e-07
-8.85981e-10
2.19415e-07
-8.99174e-10
2.19324e-07
-8.99677e-10
2.19234e-07
-8.91922e-10
2.19147e-07
-8.78844e-10
2.19063e-07
-8.62431e-10
2.18983e-07
-8.43849e-10
2.18906e-07
-8.23888e-10
2.18832e-07
-8.02988e-10
2.1876e-07
-7.81387e-10
2.18689e-07
-7.59179e-10
2.1862e-07
-7.3637e-10
-7.12922e-10
2.1855e-07
1.78717e-07
-7.12046e-10
1.78619e-07
-7.55825e-10
1.78513e-07
-7.79934e-10
1.78404e-07
-7.90127e-10
1.78295e-07
-7.90902e-10
1.78189e-07
-7.85297e-10
1.78085e-07
-7.75347e-10
1.77985e-07
-7.62379e-10
1.77889e-07
-7.47238e-10
1.77795e-07
-7.30464e-10
1.77705e-07
-7.12381e-10
1.77616e-07
-6.93172e-10
1.7753e-07
-6.72916e-10
1.77445e-07
-6.51646e-10
-6.29354e-10
1.77362e-07
1.43627e-07
-6.08649e-10
1.43513e-07
-6.4197e-10
1.43395e-07
-6.61297e-10
1.43275e-07
-6.70611e-10
1.43157e-07
-6.72861e-10
1.43042e-07
-6.70028e-10
1.4293e-07
-6.63474e-10
1.42822e-07
-6.54118e-10
1.42717e-07
-6.42568e-10
1.42616e-07
-6.29226e-10
1.42518e-07
-6.14335e-10
1.42423e-07
-5.98051e-10
1.4233e-07
-5.8045e-10
1.4224e-07
-5.61576e-10
-5.41438e-10
1.42152e-07
1.14141e-07
-4.98107e-10
1.14024e-07
-5.2522e-10
1.13905e-07
-5.42228e-10
1.13786e-07
-5.51937e-10
1.1367e-07
-5.56227e-10
1.13556e-07
-5.56361e-10
1.13446e-07
-5.53249e-10
1.13339e-07
-5.4753e-10
1.13236e-07
-5.39646e-10
1.13137e-07
-5.29894e-10
1.13041e-07
-5.1847e-10
1.12948e-07
-5.05502e-10
1.12859e-07
-4.91067e-10
1.12773e-07
-4.75212e-10
-4.57958e-10
1.12689e-07
8.97722e-08
-3.93697e-10
8.96639e-08
-4.16925e-10
8.95545e-08
-4.32781e-10
8.94458e-08
-4.43288e-10
8.93392e-08
-4.4956e-10
8.92352e-08
-4.52375e-10
8.91343e-08
-4.52338e-10
8.90366e-08
-4.49901e-10
8.89424e-08
-4.45384e-10
8.88515e-08
-4.39013e-10
8.8764e-08
-4.30949e-10
8.86798e-08
-4.21304e-10
8.85989e-08
-4.10144e-10
8.85212e-08
-3.97518e-10
-3.8345e-10
8.84467e-08
6.99138e-08
-3.03011e-10
6.98201e-08
-3.23304e-10
6.97256e-08
-3.38266e-10
6.96316e-08
-3.49297e-10
6.9539e-08
-3.56967e-10
6.94484e-08
-3.61751e-10
6.93601e-08
-3.64061e-10
6.92745e-08
-3.64212e-10
6.91915e-08
-3.6244e-10
6.91114e-08
-3.58917e-10
6.90342e-08
-3.53777e-10
6.896e-08
-3.4711e-10
6.88889e-08
-3.38969e-10
6.88208e-08
-3.29397e-10
-3.18414e-10
6.87557e-08
5.39135e-08
-2.28261e-10
5.38361e-08
-2.45826e-10
5.37574e-08
-2.59642e-10
5.36787e-08
-2.70564e-10
5.36006e-08
-2.78814e-10
5.35235e-08
-2.84691e-10
5.34479e-08
-2.88475e-10
5.33741e-08
-2.90382e-10
5.33022e-08
-2.90583e-10
5.32325e-08
-2.89212e-10
5.31651e-08
-2.86371e-10
5.31001e-08
-2.82131e-10
5.30377e-08
-2.76526e-10
5.29779e-08
-2.69589e-10
-2.61335e-10
5.29208e-08
4.11387e-08
-1.68416e-10
4.10761e-08
-1.8321e-10
4.1012e-08
-1.95482e-10
4.0947e-08
-2.0562e-10
4.08819e-08
-2.13663e-10
4.0817e-08
-2.19809e-10
4.07527e-08
-2.24241e-10
4.06895e-08
-2.27104e-10
4.06274e-08
-2.28521e-10
4.05668e-08
-2.28592e-10
4.05078e-08
-2.27393e-10
4.04506e-08
-2.24968e-10
4.03955e-08
-2.21341e-10
4.03424e-08
-2.16531e-10
-2.10548e-10
4.02916e-08
3.10158e-08
-1.21265e-10
3.09658e-08
-1.33277e-10
3.0914e-08
-1.43678e-10
3.08609e-08
-1.52503e-10
3.0807e-08
-1.59729e-10
3.07527e-08
-1.65493e-10
3.06983e-08
-1.69909e-10
3.06443e-08
-1.73071e-10
3.05908e-08
-1.75065e-10
3.05382e-08
-1.75959e-10
3.04866e-08
-1.75807e-10
3.04363e-08
-1.74635e-10
3.03874e-08
-1.72454e-10
3.03402e-08
-1.69274e-10
-1.65101e-10
3.02947e-08
2.30482e-08
-8.45884e-11
2.30088e-08
-9.39337e-11
2.29675e-08
-1.02291e-10
2.29244e-08
-1.09491e-10
2.28802e-08
-1.15521e-10
2.28352e-08
-1.20473e-10
2.27897e-08
-1.24413e-10
2.2744e-08
-1.27399e-10
2.26985e-08
-1.29488e-10
2.26532e-08
-1.30726e-10
2.26086e-08
-1.31145e-10
2.25647e-08
-1.30758e-10
2.25218e-08
-1.29571e-10
2.24801e-08
-1.27583e-10
-1.248e-10
2.24398e-08
1.68183e-08
-5.65396e-11
1.67879e-08
-6.34558e-11
1.67553e-08
-6.9769e-11
1.67211e-08
-7.52527e-11
1.66855e-08
-7.99251e-11
1.66489e-08
-8.38448e-11
1.66115e-08
-8.70472e-11
1.65737e-08
-8.95654e-11
1.65356e-08
-9.1434e-11
1.64976e-08
-9.26799e-11
1.64597e-08
-9.33224e-11
1.64224e-08
-9.33662e-11
1.63856e-08
-9.28119e-11
1.63497e-08
-9.16556e-11
-8.98978e-11
1.63148e-08
1.1981e-08
-3.56378e-11
1.1958e-08
-4.04482e-11
1.19331e-08
-4.48716e-11
1.19066e-08
-4.8729e-11
1.18787e-08
-5.20633e-11
1.18498e-08
-5.4908e-11
1.182e-08
-5.72791e-11
1.17896e-08
-5.91931e-11
1.17589e-08
-6.06685e-11
1.17279e-08
-6.17201e-11
1.1697e-08
-6.23579e-11
1.16662e-08
-6.25825e-11
1.16357e-08
-6.23927e-11
1.16059e-08
-6.17817e-11
-6.07463e-11
1.15767e-08
8.25386e-09
-2.06513e-11
8.23714e-09
-2.37287e-11
8.21881e-09
-2.65352e-11
8.19907e-09
-2.89879e-11
8.17814e-09
-3.1135e-11
8.15622e-09
-3.2993e-11
8.13351e-09
-3.45667e-11
8.11018e-09
-3.58626e-11
8.0864e-09
-3.68891e-11
8.06233e-09
-3.7653e-11
8.03814e-09
-3.81591e-11
8.01396e-09
-3.84062e-11
7.98996e-09
-3.83929e-11
7.96629e-09
-3.81118e-11
-3.75562e-11
7.9431e-09
5.40756e-09
-1.05039e-11
5.39607e-09
-1.22427e-11
5.38332e-09
-1.37816e-11
5.36946e-09
-1.51294e-11
5.35465e-09
-1.63237e-11
5.33903e-09
-1.73704e-11
5.32273e-09
-1.82692e-11
5.30589e-09
-1.90213e-11
5.28863e-09
-1.96294e-11
5.27107e-09
-2.0096e-11
5.25333e-09
-2.0423e-11
5.23554e-09
-2.06087e-11
5.2178e-09
-2.06525e-11
5.20023e-09
-2.05481e-11
-2.02867e-11
5.18296e-09
3.25676e-09
-4.23329e-12
3.24954e-09
-5.02694e-12
3.24144e-09
-5.68086e-12
3.23257e-09
-6.2568e-12
3.22302e-09
-6.77448e-12
3.21288e-09
-7.23408e-12
3.20225e-09
-7.63385e-12
3.1912e-09
-7.97286e-12
3.17982e-09
-8.25144e-12
3.16819e-09
-8.46985e-12
3.1564e-09
-8.62872e-12
3.14452e-09
-8.72695e-12
3.13263e-09
-8.76428e-12
3.12082e-09
-8.7369e-12
-8.63638e-12
3.10917e-09
1.65232e-09
-9.82863e-13
1.6485e-09
-1.20685e-12
1.64417e-09
-1.35632e-12
1.63941e-09
-1.49164e-12
1.63425e-09
-1.61674e-12
1.62875e-09
-1.73e-12
1.62294e-09
-1.82994e-12
1.61688e-09
-1.91562e-12
1.61062e-09
-1.98673e-12
1.60419e-09
-2.04304e-12
1.59765e-09
-2.08473e-12
1.59103e-09
-2.11143e-12
1.58439e-09
-2.12313e-12
1.57777e-09
-2.11842e-12
-2.09202e-12
1.57123e-09
4.74699e-10
4.73492e-10
4.72135e-10
4.70644e-10
4.69027e-10
4.67297e-10
4.65467e-10
4.63552e-10
4.61565e-10
4.59522e-10
4.57437e-10
4.55326e-10
4.53202e-10
4.51084e-10
4.48992e-10
1.2237e-09
-4.82767e-10
2.80504e-10
1.51468e-09
-3.96723e-10
1.05746e-10
1.80935e-09
-2.43631e-10
-5.1043e-11
2.10095e-09
-8.92275e-11
-2.02372e-10
2.38723e-09
5.98821e-11
-3.46158e-10
2.66868e-09
1.9422e-10
-4.75668e-10
2.94637e-09
3.10287e-10
-5.8798e-10
3.22113e-09
4.04606e-10
-6.79363e-10
3.49358e-09
4.73375e-10
-7.45833e-10
3.76422e-09
5.12478e-10
-7.83116e-10
4.03338e-09
5.17488e-10
-7.86647e-10
4.30127e-09
4.83752e-10
-7.51642e-10
4.56796e-09
4.06632e-10
-6.73325e-10
4.83344e-09
2.82439e-10
-5.47914e-10
5.09769e-09
1.09928e-10
-3.7418e-10
5.36105e-09
-1.06312e-10
-1.57049e-10
5.62461e-09
-3.52015e-10
8.84502e-11
5.89109e-09
-5.96226e-10
3.29751e-10
6.16554e-09
-7.89433e-10
5.14982e-10
6.45615e-09
-8.5787e-10
5.67257e-10
6.7733e-09
-7.28733e-10
4.11588e-10
7.12529e-09
-3.49459e-10
-2.53141e-12
7.45685e-09
1.46159e-10
-4.7772e-10
7.73857e-09
4.12532e-10
-6.9425e-10
7.96484e-09
4.37902e-10
-6.64174e-10
8.13473e-09
2.85786e-10
-4.55672e-10
8.25018e-09
1.68069e-11
-1.3226e-10
8.31378e-09
-3.21208e-10
2.57606e-10
8.32743e-09
-6.91113e-10
6.77464e-10
8.29232e-09
-1.06089e-09
1.096e-09
8.2095e-09
-1.40013e-09
1.48295e-09
8.08043e-09
-1.67911e-09
1.80819e-09
7.90697e-09
-1.86971e-09
2.04317e-09
7.6918e-09
-1.95175e-09
2.16693e-09
7.43812e-09
-1.91175e-09
2.16542e-09
7.1493e-09
-1.74303e-09
2.03185e-09
6.82848e-09
-1.44423e-09
1.76505e-09
6.47859e-09
-1.01635e-09
1.36625e-09
6.10258e-09
-4.58608e-10
8.34609e-10
5.703e-09
2.34499e-10
1.65086e-10
5.27902e-09
1.06725e-09
-6.43271e-10
4.81917e-09
2.01651e-09
-1.55666e-09
4.29998e-09
2.96253e-09
-2.44334e-09
3.7226e-09
3.61935e-09
-3.04196e-09
3.23154e-09
3.37577e-09
-2.88471e-09
2.55703e-09
-5.63663e-10
2.73233e-09
-5.72027e-10
2.97084e-09
-4.82141e-10
3.23801e-09
-3.56394e-10
3.51917e-09
-2.2128e-10
3.80652e-09
-9.31264e-11
4.09658e-09
2.02265e-11
4.38771e-09
1.13472e-10
4.67911e-09
1.81971e-10
4.97039e-09
2.21203e-10
5.26128e-09
2.26594e-10
5.55157e-09
1.93464e-10
5.84097e-09
1.17233e-10
6.12913e-09
-5.72545e-12
6.41575e-09
-1.76686e-10
6.70083e-09
-3.91391e-10
6.98517e-09
-6.36353e-10
7.27125e-09
-8.82309e-10
7.56408e-09
-1.08226e-09
7.87209e-09
-1.16588e-09
8.20637e-09
-1.06301e-09
8.57642e-09
-7.19513e-10
8.92581e-09
-2.03232e-10
9.22441e-09
1.13928e-10
9.46617e-09
1.96144e-10
9.64951e-09
1.02448e-10
9.77586e-09
-1.09545e-10
9.84747e-09
-3.92812e-10
9.86602e-09
-7.09665e-10
9.83268e-09
-1.02755e-09
9.7487e-09
-1.31616e-09
9.616e-09
-1.54641e-09
9.43704e-09
-1.69075e-09
9.2154e-09
-1.73011e-09
8.95559e-09
-1.65194e-09
8.66273e-09
-1.45017e-09
8.34249e-09
-1.12399e-09
8.00152e-09
-6.75377e-10
7.64878e-09
-1.05867e-10
7.2975e-09
5.85783e-10
6.96675e-09
1.39799e-09
6.68086e-09
2.3024e-09
6.46908e-09
3.17431e-09
6.37265e-09
3.71578e-09
3.32237e-09
6.28182e-09
4.4652e-09
-5.8097e-10
4.54543e-09
-6.52264e-10
4.70084e-09
-6.37551e-10
4.91269e-09
-5.68236e-10
5.1604e-09
-4.68993e-10
5.4306e-09
-3.63324e-10
5.71486e-09
-2.64033e-10
6.00806e-09
-1.79727e-10
6.30702e-09
-1.16995e-10
6.60975e-09
-8.15221e-11
6.91484e-09
-7.85028e-11
7.22124e-09
-1.12935e-10
7.52798e-09
-1.89509e-10
7.83415e-09
-3.11888e-10
8.13888e-09
-4.81424e-10
8.4417e-09
-6.9421e-10
8.74291e-09
-9.37557e-10
9.04456e-09
-1.18396e-09
9.35139e-09
-1.3891e-09
9.67188e-09
-1.48637e-09
1.00177e-08
-1.40879e-09
1.03994e-08
-1.1013e-09
1.07609e-08
-5.64689e-10
1.10718e-08
-1.96971e-10
1.13256e-08
-5.76939e-11
1.15201e-08
-9.19772e-11
1.16558e-08
-2.45282e-10
1.17346e-08
-4.71596e-10
1.17578e-08
-7.32867e-10
1.17265e-08
-9.96258e-10
1.16422e-08
-1.23185e-09
1.15074e-08
-1.41159e-09
1.13252e-08
-1.5086e-09
1.11005e-08
-1.50537e-09
1.08392e-08
-1.39068e-09
1.05487e-08
-1.1597e-09
1.02378e-08
-8.13027e-10
9.91731e-09
-3.54912e-10
9.60276e-09
2.08686e-10
9.31755e-09
8.70984e-10
9.09681e-09
1.61874e-09
8.98617e-09
2.41305e-09
9.023e-09
3.13748e-09
9.18504e-09
3.55374e-09
3.25705e-09
9.25035e-09
7.07668e-09
-5.63409e-10
7.09361e-09
-6.69204e-10
7.16742e-09
-7.11359e-10
7.30437e-09
-7.05181e-10
7.49378e-09
-6.58402e-10
7.72148e-09
-5.91029e-10
7.97683e-09
-5.19382e-10
8.252e-09
-4.54894e-10
8.54131e-09
-4.06308e-10
8.84076e-09
-3.80971e-10
9.14738e-09
-3.85121e-10
9.45885e-09
-4.24406e-10
9.77319e-09
-5.03853e-10
1.00886e-08
-6.27301e-10
1.04035e-08
-7.96272e-10
1.07165e-08
-1.00725e-09
1.10273e-08
-1.24837e-09
1.13373e-08
-1.49394e-09
1.16506e-08
-1.70244e-09
1.19756e-08
-1.81132e-09
1.23241e-08
-1.75731e-09
1.2708e-08
-1.48519e-09
1.30727e-08
-9.29396e-10
1.33886e-08
-5.12919e-10
1.36489e-08
-3.17947e-10
1.38502e-08
-2.9325e-10
1.39923e-08
-3.87376e-10
1.40762e-08
-5.55564e-10
1.4103e-08
-7.59605e-10
1.40734e-08
-9.66722e-10
1.39894e-08
-1.14776e-09
1.3854e-08
-1.2762e-09
1.36713e-08
-1.3259e-09
1.34473e-08
-1.28143e-09
1.31901e-08
-1.13341e-09
1.29092e-08
-8.78863e-10
1.26168e-08
-5.20574e-10
1.2328e-08
-6.6107e-11
1.20636e-08
4.73088e-10
1.18533e-08
1.08124e-09
1.17383e-08
1.73372e-09
1.17658e-08
2.38555e-09
1.19608e-08
2.94254e-09
1.22718e-08
3.24273e-09
3.0725e-09
1.24563e-08
1.05619e-08
-5.32451e-10
1.05413e-08
-6.4859e-10
1.05554e-08
-7.25538e-10
1.06168e-08
-7.66491e-10
1.07335e-08
-7.75148e-10
1.08983e-08
-7.55816e-10
1.11016e-08
-7.22722e-10
1.13357e-08
-6.89004e-10
1.15937e-08
-6.64268e-10
1.187e-08
-6.57234e-10
1.216e-08
-6.75175e-10
1.24602e-08
-7.24544e-10
1.27671e-08
-8.10843e-10
1.30781e-08
-9.38212e-10
1.33902e-08
-1.10844e-09
1.37014e-08
-1.31844e-09
1.40102e-08
-1.55718e-09
1.43171e-08
-1.80083e-09
1.46255e-08
-2.01079e-09
1.49429e-08
-2.12877e-09
1.52815e-08
-2.09585e-09
1.56537e-08
-1.85742e-09
1.6009e-08
-1.28468e-09
1.63193e-08
-8.23236e-10
1.65773e-08
-5.75937e-10
1.67786e-08
-4.94546e-10
1.69218e-08
-5.30635e-10
1.70072e-08
-6.40981e-10
1.70351e-08
-7.87407e-10
1.70061e-08
-9.37725e-10
1.69222e-08
-1.06386e-09
1.67875e-08
-1.14153e-09
1.66069e-08
-1.14533e-09
1.6388e-08
-1.06248e-09
1.61405e-08
-8.8593e-10
1.58766e-08
-6.15034e-10
1.56114e-08
-2.55318e-10
1.53633e-08
1.82006e-10
1.5156e-08
6.80337e-10
1.50203e-08
1.21696e-09
1.49933e-08
1.76069e-09
1.51112e-08
2.26765e-09
1.5383e-08
2.6708e-09
1.57489e-08
2.87684e-09
2.79252e-09
1.60288e-08
1.51192e-08
-5.01545e-10
1.50818e-08
-6.11229e-10
1.50613e-08
-7.0503e-10
1.50689e-08
-7.7409e-10
1.5116e-08
-8.22252e-10
1.52092e-08
-8.49007e-10
1.53455e-08
-8.59019e-10
1.5519e-08
-8.62475e-10
1.5724e-08
-8.69249e-10
1.5955e-08
-8.88218e-10
1.62067e-08
-9.26963e-10
1.64747e-08
-9.9248e-10
1.67544e-08
-1.09059e-09
1.70419e-08
-1.22571e-09
1.73334e-08
-1.39993e-09
1.76255e-08
-1.61052e-09
1.79156e-08
-1.84729e-09
1.8203e-08
-2.08826e-09
1.84901e-08
-2.29781e-09
1.87833e-08
-2.42206e-09
1.90945e-08
-2.40698e-09
1.94365e-08
-2.19942e-09
1.97652e-08
-1.61337e-09
2.00551e-08
-1.11318e-09
2.02985e-08
-8.19325e-10
2.04897e-08
-6.85787e-10
2.06261e-08
-6.6703e-10
2.07069e-08
-7.21729e-10
2.07313e-08
-8.11789e-10
2.07001e-08
-9.06534e-10
2.06153e-08
-9.79078e-10
2.04819e-08
-1.00813e-09
2.03056e-08
-9.69042e-10
2.00955e-08
-8.52366e-10
1.98632e-08
-6.53619e-10
1.9623e-08
-3.748e-10
1.93918e-08
-2.42069e-11
1.919e-08
3.83824e-10
1.90413e-08
8.29106e-10
1.89723e-08
1.28589e-09
1.90106e-08
1.72246e-09
1.91764e-08
2.10181e-09
1.9466e-08
2.38121e-09
1.98277e-08
2.51512e-09
2.47044e-09
2.01498e-08
2.09802e-08
-4.77338e-10
2.09434e-08
-5.74447e-10
2.09072e-08
-6.68825e-10
2.08857e-08
-7.52589e-10
2.08863e-08
-8.2289e-10
2.09188e-08
-8.81429e-10
2.09866e-08
-9.2691e-10
2.10917e-08
-9.67499e-10
2.12298e-08
-1.0074e-09
2.13978e-08
-1.05616e-09
2.15911e-08
-1.12029e-09
2.18054e-08
-1.20676e-09
2.20358e-08
-1.32107e-09
2.22778e-08
-1.46766e-09
2.25266e-08
-1.64876e-09
2.27779e-08
-1.8618e-09
2.30279e-08
-2.09733e-09
2.32748e-08
-2.33507e-09
2.35193e-08
-2.54235e-09
2.3767e-08
-2.66972e-09
2.40285e-08
-2.6685e-09
2.43168e-08
-2.48773e-09
2.45971e-08
-1.89371e-09
2.48477e-08
-1.36372e-09
2.50601e-08
-1.03174e-09
2.52274e-08
-8.53154e-10
2.53455e-08
-7.85122e-10
2.54125e-08
-7.88691e-10
2.54261e-08
-8.25377e-10
2.53878e-08
-8.68306e-10
2.53001e-08
-8.91307e-10
2.51668e-08
-8.74841e-10
2.49957e-08
-7.97964e-10
2.47971e-08
-6.53796e-10
2.45841e-08
-4.40553e-10
2.43722e-08
-1.62929e-10
2.41792e-08
1.68797e-10
2.4025e-08
5.37974e-10
2.39307e-08
9.235e-10
2.39161e-08
1.30041e-09
2.39974e-08
1.64119e-09
2.41808e-08
1.91837e-09
2.44548e-08
2.10726e-09
2.47804e-08
2.18951e-09
2.15883e-09
2.5092e-08
2.84153e-08
-4.61218e-10
2.83867e-08
-5.45893e-10
2.83518e-08
-6.33895e-10
2.83192e-08
-7.19981e-10
2.8297e-08
-8.00743e-10
2.8292e-08
-8.76431e-10
2.83097e-08
-9.44564e-10
2.8354e-08
-1.01179e-09
2.84267e-08
-1.08014e-09
2.85263e-08
-1.15577e-09
2.86504e-08
-1.24442e-09
2.87963e-08
-1.35258e-09
2.89595e-08
-1.48433e-09
2.91358e-08
-1.64392e-09
2.93203e-08
-1.8333e-09
2.95082e-08
-2.04963e-09
2.96948e-08
-2.28394e-09
2.98771e-08
-2.51744e-09
3.0055e-08
-2.72021e-09
3.02323e-08
-2.847e-09
3.04186e-08
-2.85479e-09
3.06261e-08
-2.69531e-09
3.08328e-08
-2.10035e-09
3.10213e-08
-1.55218e-09
3.11827e-08
-1.19317e-09
3.13087e-08
-9.79208e-10
3.13936e-08
-8.69947e-10
3.1434e-08
-8.29077e-10
3.14269e-08
-8.18288e-10
3.13747e-08
-8.16158e-10
3.12791e-08
-7.95681e-10
3.11428e-08
-7.38532e-10
3.09759e-08
-6.3106e-10
3.07896e-08
-4.67486e-10
3.05974e-08
-2.48406e-10
3.04157e-08
1.87848e-11
3.02609e-08
3.23592e-10
3.01511e-08
6.47765e-10
3.01025e-08
9.72146e-10
3.01277e-08
1.27523e-09
3.02329e-08
1.53591e-09
3.04153e-08
1.73603e-09
3.06597e-08
1.86288e-09
3.09378e-08
1.91143e-09
1.88554e-09
3.1211e-08
3.7733e-08
-4.52097e-10
3.77138e-08
-5.26746e-10
3.7687e-08
-6.07038e-10
3.76569e-08
-6.89904e-10
3.7629e-08
-7.72839e-10
3.76076e-08
-8.55096e-10
3.7599e-08
-9.3588e-10
3.7605e-08
-1.01787e-09
3.76286e-08
-1.10374e-09
3.76704e-08
-1.19757e-09
3.77311e-08
-1.30503e-09
3.78081e-08
-1.42961e-09
3.78984e-08
-1.57467e-09
3.7999e-08
-1.74444e-09
3.81055e-08
-1.93984e-09
3.82131e-08
-2.15726e-09
3.83172e-08
-2.38799e-09
3.84141e-08
-2.61438e-09
3.85028e-08
-2.80893e-09
3.8586e-08
-2.93019e-09
3.86719e-08
-2.94069e-09
3.87718e-08
-2.79523e-09
3.8879e-08
-2.20755e-09
3.89817e-08
-1.65482e-09
3.90704e-08
-1.28195e-09
3.91354e-08
-1.04419e-09
3.91685e-08
-9.03069e-10
3.91666e-08
-8.27131e-10
3.91294e-08
-7.81095e-10
3.90541e-08
-7.40834e-10
3.89411e-08
-6.82686e-10
3.87967e-08
-5.94107e-10
3.86306e-08
-4.65041e-10
3.84546e-08
-2.91488e-10
3.82823e-08
-7.60475e-11
3.81279e-08
1.73169e-10
3.80074e-08
4.44099e-10
3.79343e-08
7.20885e-10
3.79195e-08
9.86895e-10
3.79692e-08
1.22551e-09
3.8083e-08
1.42213e-09
3.8253e-08
1.56602e-09
3.84642e-08
1.65173e-09
3.86956e-08
1.67997e-09
1.65715e-09
3.8924e-08
4.92713e-08
-4.49541e-10
4.92612e-08
-5.16575e-10
4.92441e-08
-5.89956e-10
4.92222e-08
-6.68065e-10
4.91987e-08
-7.49274e-10
4.91764e-08
-8.32806e-10
4.91589e-08
-9.18359e-10
4.91483e-08
-1.00734e-09
4.91466e-08
-1.10202e-09
4.9154e-08
-1.20495e-09
4.91696e-08
-1.32064e-09
4.91923e-08
-1.45234e-09
4.92214e-08
-1.60374e-09
4.92535e-08
-1.77655e-09
4.92844e-08
-1.97072e-09
4.93096e-08
-2.1825e-09
4.9325e-08
-2.40334e-09
4.93268e-08
-2.61621e-09
4.93139e-08
-2.79598e-09
4.9288e-08
-2.90433e-09
4.92562e-08
-2.90892e-09
4.92289e-08
-2.76784e-09
4.92167e-08
-2.19536e-09
4.92138e-08
-1.65193e-09
4.92108e-08
-1.27895e-09
4.91949e-08
-1.02831e-09
4.91612e-08
-8.69378e-10
4.91059e-08
-7.71792e-10
4.9022e-08
-6.97284e-10
4.89086e-08
-6.27435e-10
4.87701e-08
-5.44136e-10
4.86113e-08
-4.353e-10
4.8441e-08
-2.94791e-10
4.82708e-08
-1.21242e-10
4.81131e-08
8.16479e-11
4.79806e-08
3.05645e-10
4.78859e-08
5.38842e-10
4.78383e-08
7.68477e-10
4.78438e-08
9.81407e-10
4.79035e-08
1.16581e-09
4.80132e-08
1.31244e-09
4.81635e-08
1.41569e-09
4.83411e-08
1.4741e-09
4.85307e-08
1.49041e-09
1.47072e-09
4.87171e-08
6.33899e-08
-4.55427e-10
6.339e-08
-5.16691e-10
6.33844e-08
-5.84341e-10
6.3374e-08
-6.57649e-10
6.33604e-08
-7.35713e-10
6.33456e-08
-8.17963e-10
6.33315e-08
-9.04229e-10
6.33194e-08
-9.95287e-10
6.33101e-08
-1.09267e-09
6.33035e-08
-1.19843e-09
6.32986e-08
-1.31566e-09
6.32932e-08
-1.44702e-09
6.32847e-08
-1.59519e-09
6.32696e-08
-1.76144e-09
6.3244e-08
-1.9451e-09
6.32032e-08
-2.14174e-09
6.31429e-08
-2.34309e-09
6.30593e-08
-2.53254e-09
6.29509e-08
-2.68763e-09
6.28193e-08
-2.77273e-09
6.26702e-08
-2.75983e-09
6.2513e-08
-2.61064e-09
6.23763e-08
-2.05861e-09
6.22603e-08
-1.53589e-09
6.2155e-08
-1.1737e-09
6.20516e-08
-9.2494e-10
6.19408e-08
-7.58528e-10
6.18148e-08
-6.45817e-10
6.16731e-08
-5.55608e-10
6.15152e-08
-4.69483e-10
6.13432e-08
-3.72154e-10
6.11628e-08
-2.54894e-10
6.09821e-08
-1.14085e-10
6.08117e-08
4.91643e-11
6.06613e-08
2.32028e-10
6.05421e-08
4.24878e-10
6.04622e-08
6.1869e-10
6.04273e-08
8.03376e-10
6.04393e-08
9.69442e-10
6.0496e-08
1.10907e-09
6.05916e-08
1.21688e-09
6.07169e-08
1.29038e-09
6.0861e-08
1.33003e-09
6.10125e-08
1.33892e-09
1.32201e-09
6.11612e-08
8.04807e-08
-4.7355e-10
8.04945e-08
-5.30437e-10
8.05036e-08
-5.93451e-10
8.05083e-08
-6.62379e-10
8.05094e-08
-7.36837e-10
8.0508e-08
-8.16505e-10
8.0505e-08
-9.01301e-10
8.05014e-08
-9.91628e-10
8.04971e-08
-1.08842e-09
8.04918e-08
-1.19304e-09
8.04836e-08
-1.30746e-09
8.047e-08
-1.43346e-09
8.04475e-08
-1.57269e-09
8.04116e-08
-1.72551e-09
8.03573e-08
-1.89081e-09
8.02791e-08
-2.0636e-09
8.01719e-08
-2.23589e-09
8.00311e-08
-2.39171e-09
7.98545e-08
-2.51109e-09
7.96433e-08
-2.56144e-09
7.94013e-08
-2.51788e-09
7.9137e-08
-2.34633e-09
7.88935e-08
-1.81516e-09
7.86768e-08
-1.31918e-09
7.84775e-08
-9.74349e-10
7.82883e-08
-7.3573e-10
7.81004e-08
-5.70617e-10
7.79067e-08
-4.52149e-10
7.77069e-08
-3.55857e-10
7.75017e-08
-2.64265e-10
7.72936e-08
-1.64046e-10
7.70885e-08
-4.97823e-11
7.68941e-08
8.02877e-11
7.67175e-08
2.25803e-10
7.65684e-08
3.81134e-10
7.64536e-08
5.39683e-10
7.63781e-08
6.94162e-10
7.63442e-08
8.37307e-10
7.63509e-08
9.6269e-10
7.63945e-08
1.06546e-09
7.64687e-08
1.14274e-09
7.65653e-08
1.19373e-09
7.66758e-08
1.2196e-09
7.67916e-08
1.2231e-09
1.20802e-09
7.69056e-08
1.01011e-07
-5.07211e-10
1.01042e-07
-5.60775e-10
1.01068e-07
-6.20061e-10
1.01091e-07
-6.85132e-10
1.0111e-07
-7.55915e-10
1.01126e-07
-8.32301e-10
1.01139e-07
-9.14276e-10
1.01149e-07
-1.00202e-09
1.01157e-07
-1.09603e-09
1.01161e-07
-1.19699e-09
1.01159e-07
-1.30596e-09
1.0115e-07
-1.42371e-09
1.01128e-07
-1.55089e-09
1.01089e-07
-1.68678e-09
1.01028e-07
-1.82956e-09
1.00938e-07
-1.97369e-09
1.00813e-07
-2.11123e-09
1.00649e-07
-2.22707e-09
1.00441e-07
-2.30308e-09
1.0019e-07
-2.31031e-09
9.98975e-08
-2.22587e-09
9.9571e-08
-2.0198e-09
9.92614e-08
-1.50555e-09
9.89788e-08
-1.03656e-09
9.8714e-08
-7.09557e-10
9.84613e-08
-4.83001e-10
9.82148e-08