/*--------------------------------*- C++ -*----------------------------------*\
| =========                 |                                                 |
| \\      /  F ield         | OpenFOAM: The Open Source CFD Toolbox           |
|  \\    /   O peration     | Version:  2312                                  |
|   \\  /    A nd           | Website:  www.openfoam.com                      |
|    \\/     M anipulation  |                                                 |
\*---------------------------------------------------------------------------*/
FoamFile
{
    version     2.0;
    format      ascii;
    arch        "LSB;label=32;scalar=64";
    class       volVectorField;
    location    "124";
    object      U;
}
// * * * * * * * * * * * * * * * * * * * * * * * * * * * * * * * * * * * * * //

dimensions      [0 1 -1 0 0 0 0];

internalField   nonuniform List<vector> 
4800
(
(0.000470136 2.18893e-07 -1.9184e-26)
(0.000465505 2.10286e-07 -1.35398e-25)
(0.000463655 1.9205e-07 1.73611e-25)
(0.000463536 1.83897e-07 8.04338e-26)
(0.000464535 1.83832e-07 1.20521e-24)
(0.00046629 1.65799e-07 -2.88997e-24)
(0.000468715 1.14578e-07 2.73085e-24)
(0.000471793 2.09496e-08 -4.0098e-24)
(0.000475615 -1.31581e-07 1.27294e-24)
(0.000480366 -3.8537e-07 4.46032e-24)
(0.000486496 -8.96882e-07 -1.37109e-24)
(0.000495331 -2.3246e-06 -1.09039e-25)
(0.000514369 -7.63523e-06 -1.71233e-24)
(0.00056178 -2.91082e-05 8.21379e-25)
(0.000638732 -9.3328e-05 -6.5887e-25)
(0.00145798 1.11977e-06 -6.07274e-26)
(0.00144385 6.126e-07 7.57025e-26)
(0.00143785 2.12328e-07 -7.03808e-25)
(0.0014369 -1.17532e-07 5.21055e-25)
(0.00143916 -4.0984e-07 1.71072e-24)
(0.00144363 -7.28562e-07 -2.76563e-24)
(0.00145006 -1.14452e-06 -8.18477e-25)
(0.0014583 -1.7204e-06 -2.17164e-25)
(0.00146859 -2.55529e-06 6.67621e-24)
(0.00148146 -3.88268e-06 -4.9648e-24)
(0.00149819 -6.37886e-06 5.40014e-25)
(0.00152158 -1.23124e-05 8.40562e-25)
(0.00156079 -2.9547e-05 -1.26268e-24)
(0.00162634 -8.2232e-05 -4.06817e-25)
(0.00169548 -0.000200111 1.68348e-24)
(0.00255392 3.57395e-06 -4.34624e-26)
(0.00252966 1.98101e-06 4.44021e-26)
(0.00251886 7.73578e-07 4.59862e-25)
(0.00251639 -2.51092e-07 -1.09223e-24)
(0.00251922 -1.20639e-06 1.07792e-24)
(0.00252564 -2.22922e-06 1.05081e-24)
(0.00253536 -3.48935e-06 -2.72956e-24)
(0.00254787 -5.16154e-06 -1.72852e-24)
(0.0025635 -7.54287e-06 4.12203e-24)
(0.00258287 -1.12552e-05 1.58985e-24)
(0.00260743 -1.78075e-05 -5.5223e-24)
(0.00263942 -3.12151e-05 -8.74555e-25)
(0.00268303 -6.11293e-05 2.3804e-24)
(0.00273684 -0.000127304 3.83878e-24)
(0.0027751 -0.000236902 -1.99249e-24)
(0.00376379 7.94647e-06 1.60647e-26)
(0.00372904 4.53263e-06 -1.11886e-25)
(0.00371287 1.96068e-06 5.01102e-25)
(0.0037081 -2.07383e-07 5.37654e-25)
(0.00371076 -2.18818e-06 -5.20239e-25)
(0.00371815 -4.34015e-06 -3.15904e-24)
(0.00373016 -6.94334e-06 -2.22602e-24)
(0.00374568 -1.02892e-05 8.25824e-24)
(0.00376496 -1.49563e-05 3.50033e-24)
(0.00378842 -2.19619e-05 -4.97406e-24)
(0.00381688 -3.34045e-05 -2.02703e-24)
(0.00385088 -5.38154e-05 -1.57158e-24)
(0.00388972 -9.11943e-05 4.14433e-26)
(0.00392611 -0.000155666 1.17491e-24)
(0.00394163 -0.000241992 5.75879e-27)
(0.00509068 1.46031e-05 -2.94751e-26)
(0.00504571 8.52454e-06 -1.80019e-25)
(0.00502392 3.96806e-06 -1.15848e-25)
(0.00501618 9.472e-08 3.02274e-25)
(0.00501798 -3.26047e-06 -8.7035e-25)
(0.00502536 -6.95267e-06 2.23118e-24)
(0.00503844 -1.1384e-05 -3.90025e-25)
(0.00505546 -1.68654e-05 1.43967e-24)
(0.00507643 -2.4273e-05 -7.99984e-24)
(0.00510124 -3.48601e-05 1.53152e-23)
(0.00512977 -5.07715e-05 -1.49106e-23)
(0.0051609 -7.56836e-05 7.93504e-24)
(0.00519137 -0.000114356 -7.4105e-24)
(0.00521356 -0.000169852 7.00628e-24)
(0.00521715 -0.000234537 -2.79446e-24)
(0.00653316 2.39039e-05 3.88969e-26)
(0.0064795 1.42543e-05 1.38864e-25)
(0.00645257 7.05917e-06 -7.36015e-25)
(0.00644168 1.08183e-06 -4.74909e-25)
(0.00644206 -4.40809e-06 1.25375e-24)
(0.0064488 -9.86828e-06 4.5898e-25)
(0.00646172 -1.64807e-05 -3.65314e-24)
(0.00647875 -2.44043e-05 8.78755e-24)
(0.00649945 -3.46872e-05 -1.15288e-23)
(0.00652312 -4.85846e-05 2.75189e-24)
(0.00654878 -6.78147e-05 8.55113e-24)
(0.00657438 -9.45786e-05 -1.1951e-23)
(0.00659628 -0.000130664 6.00182e-24)
(0.00660893 -0.000175501 6.14736e-24)
(0.00660778 -0.0002229 -4.68043e-24)
(0.00808329 3.59556e-05 3.20329e-26)
(0.00802444 2.18654e-05 -1.89312e-25)
(0.00799413 1.14043e-05 6.80502e-25)
(0.00798103 2.7208e-06 -9.48263e-25)
(0.00797973 -5.03055e-06 -3.27089e-24)
(0.00798577 -1.28774e-05 5.5845e-24)
(0.00799765 -2.18102e-05 -3.44165e-24)
(0.00801352 -3.22737e-05 1.18579e-23)
(0.00803241 -4.52497e-05 -8.06162e-24)
(0.00805317 -6.17741e-05 -3.81398e-24)
(0.00807429 -8.2905e-05 -7.58604e-24)
(0.00809356 -0.000109466 6.97883e-24)
(0.00810815 -0.000141358 1.97054e-24)
(0.00811483 -0.000176758 1.67794e-24)
(0.00811229 -0.000211538 -1.47708e-24)
(0.00972469 5.02543e-05 -4.56596e-26)
(0.00966685 3.10736e-05 6.22801e-25)
(0.0096368 1.68403e-05 -1.45525e-24)
(0.00962373 5.09995e-06 -1.21173e-24)
(0.00962194 -5.34032e-06 4.32467e-25)
(0.00962751 -1.56721e-05 8.8128e-25)
(0.00963835 -2.70074e-05 3.26399e-24)
(0.00965258 -3.98845e-05 -8.99963e-24)
(0.00966892 -5.51039e-05 -4.89989e-24)
(0.00968599 -7.33541e-05 1.33397e-23)
(0.00970219 -9.50467e-05 -4.17627e-24)
(0.00971568 -0.000120079 1.42843e-23)
(0.0097247 -0.000147536 -7.53448e-24)
(0.00972765 -0.000175597 -2.3882e-24)
(0.00972481 -0.000201767 1.41193e-24)
(0.0114326 6.52389e-05 -5.88058e-27)
(0.0113847 4.08046e-05 3.4115e-25)
(0.0113606 2.25883e-05 -4.86842e-25)
(0.0113513 7.65252e-06 1.1834e-24)
(0.0113516 -5.61319e-06 -7.11822e-24)
(0.0113582 -1.84575e-05 7.53768e-24)
(0.0113689 -3.20495e-05 -1.20813e-23)
(0.0113819 -4.6975e-05 7.39812e-24)
(0.011396 -6.37966e-05 5.57173e-24)
(0.0114097 -8.28395e-05 1.22156e-23)
(0.0114218 -0.000104044 -1.59793e-23)
(0.0114309 -0.000126867 -2.95054e-24)
(0.0114362 -0.00015027 1.39154e-24)
(0.011437 -0.000172892 9.70894e-24)
(0.0114342 -0.00019332 -3.93677e-24)
(0.0131781 7.79521e-05 3.02728e-26)
(0.0131503 4.88553e-05 -1.38487e-25)
(0.0131392 2.69384e-05 6.37205e-25)
(0.0131386 8.98817e-06 -2.25691e-24)
(0.0131446 -6.89612e-06 3.44562e-24)
(0.0131547 -2.20299e-05 -4.4981e-24)
(0.0131671 -3.75132e-05 7.59461e-24)
(0.0131804 -5.3924e-05 1.37513e-24)
(0.0131934 -7.16045e-05 -1.05931e-23)
(0.0132052 -9.06001e-05 1.51621e-23)
(0.0132147 -0.000110606 -1.67459e-23)
(0.0132213 -0.000130996 -4.90569e-24)
(0.0132248 -0.00015092 8.69682e-24)
(0.0132248 -0.000169512 2.55971e-24)
(0.0132227 -0.000186021 -1.11462e-24)
(0.0149401 8.43921e-05 1.0171e-25)
(0.0149393 5.19887e-05 -1.03846e-24)
(0.0149468 2.72144e-05 -1.7814e-24)
(0.0149593 6.8272e-06 4.17531e-24)
(0.0149744 -1.11394e-05 1.91651e-24)
(0.0149907 -2.80204e-05 -1.2052e-23)
(0.015007 -4.47968e-05 3.68085e-24)
(0.0150225 -6.19791e-05 2.68056e-24)
(0.0150364 -7.97485e-05 -1.17953e-23)
(0.015048 -9.79993e-05 1.22823e-23)
(0.0150571 -0.000116372 -9.81321e-24)
(0.0150632 -0.000134345 2.52496e-23)
(0.0150667 -0.000151338 -1.20887e-23)
(0.0150673 -0.000166862 7.08613e-24)
(0.0150665 -0.000180555 -1.92469e-24)
(0.0167192 8.13063e-05 -1.32815e-26)
(0.0167445 4.71411e-05 6.48144e-25)
(0.0167709 2.06119e-05 -1.37272e-24)
(0.0167972 -1.37184e-06 -7.44669e-25)
(0.0168225 -2.06599e-05 8.24111e-24)
(0.0168462 -3.85366e-05 -1.14256e-24)
(0.0168677 -5.58548e-05 -1.48936e-23)
(0.0168866 -7.30375e-05 1.74739e-23)
(0.0169028 -9.01795e-05 -3.92758e-24)
(0.0169159 -0.000107143 -1.36531e-23)
(0.0169262 -0.000123631 1.45548e-23)
(0.0169334 -0.000139291 7.76918e-24)
(0.0169383 -0.000153779 -6.63979e-24)
(0.0169407 -0.000166856 -1.13182e-23)
(0.0169418 -0.000178377 9.43743e-25)
(0.0185418 6.88753e-05 -2.67218e-26)
(0.0185826 3.37559e-05 -6.60223e-25)
(0.018621 6.15977e-06 3.56153e-24)
(0.0186566 -1.67058e-05 3.477e-25)
(0.0186891 -3.66308e-05 2.26806e-24)
(0.018718 -5.48154e-05 -7.8624e-24)
(0.0187435 -7.19976e-05 6.83383e-24)
(0.0187653 -8.85381e-05 1.59021e-24)
(0.0187836 -0.00010452 1.41588e-23)
(0.0187985 -0.000119855 -2.18867e-23)
(0.0188103 -0.000134362 -9.87974e-24)
(0.0188192 -0.00014785 -6.4581e-24)
(0.0188259 -0.000160152 1.22408e-23)
(0.0188303 -0.000171182 -3.4034e-25)
(0.0188335 -0.000180913 1.17019e-24)
(0.0204356 5.12383e-05 -2.7734e-26)
(0.0204784 1.49368e-05 5.73266e-25)
(0.0205186 -1.36302e-05 -8.55057e-25)
(0.0205555 -3.7143e-05 -1.7575e-26)
(0.0205889 -5.74071e-05 1.51297e-24)
(0.0206184 -7.55499e-05 3.96794e-24)
(0.0206441 -9.22351e-05 -1.53965e-23)
(0.0206661 -0.000107816 1.26118e-24)
(0.0206845 -0.000122424 7.90301e-24)
(0.0206996 -0.000136068 -3.63726e-24)
(0.0207119 -0.000148691 9.9419e-24)
(0.0207216 -0.000160232 6.88699e-24)
(0.0207292 -0.000170649 -1.25355e-23)
(0.0207348 -0.000179944 8.46808e-24)
(0.0207395 -0.000188153 -7.03459e-24)
(0.0223918 3.29406e-05 -6.79398e-25)
(0.0224286 -4.69358e-06 7.57098e-25)
(0.0224634 -3.4268e-05 8.80241e-25)
(0.0224953 -5.84849e-05 -6.06249e-24)
(0.0225243 -7.90756e-05 5.46293e-24)
(0.0225499 -9.71041e-05 -4.3789e-24)
(0.0225722 -0.000113224 3.09822e-24)
(0.0225912 -0.000127833 -2.2827e-23)
(0.0226073 -0.000141146 3.29574e-23)
(0.0226205 -0.000153277 -1.94788e-23)
(0.0226315 -0.000164278 1.74063e-23)
(0.0226402 -0.00017419 1.44338e-23)
(0.0226474 -0.000183051 -2.52115e-23)
(0.0226528 -0.000190918 8.16614e-24)
(0.0226575 -0.000197855 -3.40504e-25)
(0.0243487 1.56412e-05 -2.26352e-26)
(0.0243785 -2.2685e-05 7.50202e-25)
(0.0244063 -5.29455e-05 -8.52026e-25)
(0.0244315 -7.76621e-05 -1.5879e-25)
(0.0244542 -9.84042e-05 2.05363e-24)
(0.0244741 -0.000116194 -3.68166e-24)
(0.0244915 -0.000131712 3.60715e-24)
(0.0245062 -0.000145412 -1.17875e-23)
(0.0245186 -0.000157586 2.70758e-23)
(0.0245289 -0.000168436 -3.4874e-23)
(0.0245373 -0.000178096 2.86393e-23)
(0.0245441 -0.000186678 -9.68207e-24)
(0.0245497 -0.000194272 4.90446e-25)
(0.0245539 -0.000200966 2.16927e-24)
(0.0245575 -0.00020684 -4.19392e-24)
(0.0262052 -7.75093e-07 -1.83665e-24)
(0.0262302 -3.8964e-05 4.3156e-24)
(0.0262524 -6.9298e-05 -2.6389e-24)
(0.0262719 -9.39743e-05 -1.1407e-25)
(0.0262892 -0.000114449 2.16056e-24)
(0.0263042 -0.000131727 -2.54595e-24)
(0.026317 -0.000146505 -2.93374e-24)
(0.0263278 -0.000159278 -7.47456e-24)
(0.0263368 -0.000170391 3.51045e-24)
(0.026344 -0.000180103 1.8368e-23)
(0.02635 -0.000188602 -9.78009e-24)
(0.0263546 -0.000196042 5.8832e-24)
(0.0263583 -0.000202542 -2.43148e-24)
(0.0263611 -0.000208207 -7.15782e-24)
(0.0263633 -0.000213125 3.65806e-24)
(0.0278357 -1.73937e-05 6.02464e-25)
(0.0278573 -5.43609e-05 -1.15001e-24)
(0.0278756 -8.39835e-05 -1.91769e-24)
(0.0278912 -0.000108008 4.10548e-24)
(0.0279045 -0.000127763 -1.57445e-24)
(0.0279158 -0.000144219 1.53823e-24)
(0.0279253 -0.000158069 -2.12251e-24)
(0.0279332 -0.000169825 -2.17772e-24)
(0.0279395 -0.000179864 1.8362e-24)
(0.0279446 -0.000188476 -2.6196e-24)
(0.0279485 -0.000195878 6.03292e-24)
(0.0279515 -0.000202243 3.20801e-24)
(0.0279537 -0.000207706 -1.19104e-23)
(0.0279551 -0.000212379 8.2768e-24)
(0.0279562 -0.000216349 -1.69443e-24)
(0.0290841 -3.50767e-05 1.79461e-24)
(0.0291032 -6.98687e-05 3.74032e-24)
(0.0291186 -9.79529e-05 -8.0241e-24)
(0.0291312 -0.000120703 -2.60716e-24)
(0.0291415 -0.000139284 5.17148e-24)
(0.0291498 -0.000154587 1.1875e-24)
(0.0291566 -0.000167293 -1.55309e-24)
(0.0291618 -0.000177903 -1.90809e-27)
(0.0291658 -0.000186796 3.3152e-24)
(0.0291687 -0.00019427 -8.5227e-24)
(0.0291706 -0.000200547 5.47139e-24)
(0.0291718 -0.000205806 -4.17311e-25)
(0.0291723 -0.000210182 -3.91572e-25)
(0.0291721 -0.00021379 5.42463e-25)
(0.0291716 -0.000216715 -2.5459e-25)
(0.029746 -5.22951e-05 -4.77732e-24)
(0.0297595 -8.36224e-05 -1.14035e-23)
(0.0297692 -0.000109037 4.54858e-24)
(0.029776 -0.000129619 2.33698e-23)
(0.0297809 -0.000146335 -6.92428e-24)
(0.0297842 -0.000159975 -4.00573e-24)
(0.0297862 -0.000171153 2.54349e-24)
(0.0297873 -0.000180343 4.57866e-24)
(0.0297874 -0.000187903 -6.96876e-24)
(0.0297868 -0.000194109 2.28551e-24)
(0.0297856 -0.000199168 8.94035e-25)
(0.0297838 -0.00020325 -6.89053e-25)
(0.0297816 -0.000206479 -1.76234e-24)
(0.029779 -0.000208962 2.9037e-24)
(0.0297761 -0.000210777 -1.36798e-24)
(0.0295838 -6.85877e-05 7.66596e-24)
(0.0295945 -9.53267e-05 -1.79212e-23)
(0.0296016 -0.000117046 2.65609e-24)
(0.0296062 -0.000134634 2.86222e-23)
(0.0296089 -0.000148887 -2.87878e-23)
(0.0296102 -0.000160442 1.11183e-23)
(0.0296103 -0.000169806 1.04669e-23)
(0.0296094 -0.000177381 -2.44407e-23)
(0.0296077 -0.000183474 7.72063e-25)
(0.0296054 -0.000188323 7.73313e-24)
(0.0296024 -0.000192105 1.79425e-24)
(0.029599 -0.000194965 -7.10313e-25)
(0.0295952 -0.000197011 2.77593e-25)
(0.029591 -0.000198336 2.30046e-25)
(0.0295865 -0.000199008 -1.74115e-25)
(0.0286161 -7.93971e-05 4.79289e-24)
(0.0286216 -0.000101935 -1.01756e-23)
(0.0286242 -0.000120284 -7.26532e-24)
(0.0286248 -0.000135144 3.41573e-23)
(0.0286239 -0.00014715 -3.18993e-23)
(0.0286219 -0.000156815 3.20117e-24)
(0.0286189 -0.00016455 5.53283e-24)
(0.0286151 -0.000170686 3.27736e-24)
(0.0286107 -0.000175475 3.21314e-24)
(0.0286058 -0.000179114 -1.6544e-23)
(0.0286004 -0.000181752 1.04527e-23)
(0.0285946 -0.000183512 5.06789e-25)
(0.0285884 -0.000184485 3.2365e-24)
(0.028582 -0.000184752 -1.41767e-24)
(0.0285753 -0.000184371 -9.06444e-26)
(0.0270981 -8.40821e-05 1.19762e-23)
(0.0270999 -0.000102965 -2.12887e-23)
(0.0270991 -0.000118379 4.33891e-24)
(0.0270965 -0.00013086 -1.04539e-23)
(0.0270924 -0.000140905 -1.36955e-23)
(0.0270873 -0.000148917 4.62189e-23)
(0.0270813 -0.000155225 -1.80242e-23)
(0.0270746 -0.000160094 5.14555e-24)
(0.0270674 -0.000163734 -2.87662e-24)
(0.0270597 -0.000166307 -7.31353e-24)
(0.0270516 -0.000167941 1.37508e-23)
(0.0270433 -0.000168738 -7.49929e-24)
(0.0270346 -0.000168779 1.01693e-24)
(0.0270258 -0.000168132 9.20602e-25)
(0.0270166 -0.000166846 -7.74625e-26)
(0.0252379 -8.53891e-05 4.62551e-24)
(0.0252355 -0.000100721 -2.38367e-23)
(0.0252306 -0.000113252 4.12316e-23)
(0.0252242 -0.000123394 -3.13719e-23)
(0.0252164 -0.000131523 3.11573e-23)
(0.0252077 -0.000137943 -1.03706e-23)
(0.0251982 -0.000142909 -7.11857e-24)
(0.0251883 -0.000146624 -7.70844e-24)
(0.0251778 -0.000149244 1.34279e-23)
(0.0251671 -0.000150893 -6.11201e-25)
(0.0251561 -0.00015167 -1.26455e-23)
(0.0251449 -0.000151662 -1.47862e-24)
(0.0251335 -0.000150938 2.65059e-24)
(0.025122 -0.000149558 -5.07332e-25)
(0.0251103 -0.000147569 9.22479e-26)
(0.0231818 -8.20781e-05 6.16548e-25)
(0.0231744 -9.43086e-05 -8.95132e-24)
(0.0231649 -0.000104322 -4.8928e-24)
(0.0231541 -0.000112415 4.03313e-23)
(0.0231423 -0.000118862 -3.94245e-23)
(0.0231298 -0.000123897 1.14642e-23)
(0.0231167 -0.000127708 1.90762e-24)
(0.0231032 -0.000130443 -9.86067e-25)
(0.0230895 -0.000132213 -4.52656e-24)
(0.0230756 -0.000133113 1.9381e-23)
(0.0230615 -0.000133227 -1.53346e-23)
(0.0230474 -0.000132626 -6.02611e-25)
(0.0230333 -0.000131371 1.23291e-24)
(0.0230192 -0.000129512 8.36176e-25)
(0.023005 -0.000127088 -6.25747e-25)
(0.0210333 -7.46831e-05 9.18333e-25)
(0.0210211 -8.43269e-05 8.29671e-24)
(0.0210073 -9.22504e-05 -9.53498e-24)
(0.0209926 -9.86481e-05 -6.46657e-24)
(0.0209772 -0.000103717 4.07363e-23)
(0.0209613 -0.000107626 -3.11588e-23)
(0.020945 -0.000110514 -7.55076e-25)
(0.0209286 -0.000112489 -6.21995e-24)
(0.0209121 -0.000113638 -4.3457e-25)
(0.0208957 -0.00011404 9.15894e-25)
(0.0208792 -0.000113759 -2.98381e-24)
(0.0208629 -0.000112851 2.60652e-24)
(0.0208467 -0.00011136 9.36841e-25)
(0.0208308 -0.000109324 7.74724e-25)
(0.020815 -0.000106776 6.6562e-25)
(0.018871 -6.45939e-05 6.54801e-24)
(0.0188553 -7.21787e-05 -1.00112e-23)
(0.0188386 -7.84197e-05 -7.86192e-24)
(0.0188212 -8.34825e-05 2.39434e-23)
(0.0188034 -8.75122e-05 -8.58246e-24)
(0.0187853 -9.06197e-05 -1.17419e-23)
(0.0187671 -9.2893e-05 4.13744e-24)
(0.0187489 -9.44065e-05 8.8932e-24)
(0.0187308 -9.52256e-05 -1.38762e-23)
(0.0187129 -9.54073e-05 1.34989e-23)
(0.0186952 -9.5e-05 -7.01679e-24)
(0.0186778 -9.40452e-05 2.88335e-24)
(0.0186607 -9.25775e-05 -3.44947e-24)
(0.018644 -9.06297e-05 3.26031e-24)
(0.0186277 -8.82295e-05 -7.11918e-25)
(0.0167559 -5.35096e-05 -1.27135e-24)
(0.0167386 -5.95126e-05 -4.35435e-24)
(0.0167205 -6.45029e-05 -1.37017e-23)
(0.016702 -6.86146e-05 3.82281e-23)
(0.0166833 -7.19277e-05 -6.95968e-24)
(0.0166644 -7.45025e-05 -1.05849e-23)
(0.0166455 -7.63954e-05 3.53084e-24)
(0.0166268 -7.76602e-05 -5.14505e-24)
(0.0166083 -7.83455e-05 -1.06939e-23)
(0.01659 -7.84935e-05 1.03249e-23)
(0.016572 -7.81405e-05 4.90919e-25)
(0.0165545 -7.73195e-05 -2.96507e-24)
(0.0165374 -7.60576e-05 3.39503e-24)
(0.0165208 -7.43807e-05 1.69419e-25)
(0.0165048 -7.23097e-05 -2.20514e-25)
(0.0147315 -4.28852e-05 4.89452e-24)
(0.014714 -4.77017e-05 7.07597e-24)
(0.014696 -5.17618e-05 -6.71275e-24)
(0.0146777 -5.51672e-05 -1.42613e-23)
(0.0146591 -5.79527e-05 1.89591e-23)
(0.0146405 -6.01514e-05 -2.04993e-23)
(0.0146218 -6.18009e-05 -6.27291e-25)
(0.0146034 -6.29389e-05 7.81324e-24)
(0.0145851 -6.35994e-05 2.66088e-24)
(0.0145671 -6.38129e-05 -5.2557e-24)
(0.0145495 -6.36069e-05 1.60172e-25)
(0.0145323 -6.3006e-05 1.02605e-23)
(0.0145156 -6.20299e-05 -3.8964e-24)
(0.0144995 -6.06968e-05 -9.24695e-25)
(0.014484 -5.90211e-05 -5.23032e-26)
(0.0128242 -3.35155e-05 -5.08718e-24)
(0.0128076 -3.73877e-05 6.53669e-24)
(0.0127905 -4.0707e-05 7.08049e-25)
(0.012773 -4.35474e-05 1.28122e-23)
(0.0127552 -4.59114e-05 -1.05241e-23)
(0.0127373 -4.78142e-05 7.47957e-25)
(0.0127193 -4.92798e-05 -1.16161e-24)
(0.0127014 -5.0333e-05 -3.18145e-24)
(0.0126837 -5.09974e-05 2.63597e-24)
(0.0126663 -5.12952e-05 -8.50167e-24)
(0.0126491 -5.12469e-05 6.86824e-25)
(0.0126324 -5.08696e-05 2.01139e-24)
(0.0126161 -5.01762e-05 1.20266e-24)
(0.0126004 -4.91791e-05 4.48297e-25)
(0.0125853 -4.78875e-05 1.45641e-25)
(0.0110466 -2.56118e-05 3.77088e-24)
(0.0110313 -2.86945e-05 -2.99234e-24)
(0.0110154 -3.13942e-05 -1.2867e-23)
(0.010999 -3.37479e-05 1.20749e-23)
(0.0109822 -3.57363e-05 1.64792e-23)
(0.0109652 -3.73662e-05 -4.3415e-24)
(0.010948 -3.86533e-05 -8.46592e-24)
(0.0109309 -3.96134e-05 -1.15067e-23)
(0.0109137 -4.02631e-05 8.61022e-24)
(0.0108968 -4.06183e-05 4.63365e-25)
(0.0108801 -4.06935e-05 -1.85743e-24)
(0.0108637 -4.04998e-05 -4.6789e-25)
(0.0108477 -4.00449e-05 9.7132e-25)
(0.0108323 -3.93365e-05 -4.43953e-26)
(0.0108173 -3.83804e-05 -1.69295e-25)
(0.00940162 -1.91033e-05 -2.37527e-24)
(0.00938777 -2.15115e-05 -1.65409e-24)
(0.00937323 -2.36704e-05 2.06384e-24)
(0.00935805 -2.55776e-05 -6.32228e-24)
(0.00934236 -2.72075e-05 2.06857e-23)
(0.00932629 -2.8565e-05 -2.71093e-23)
(0.00930997 -2.966e-05 2.62914e-23)
(0.0092935 -3.05024e-05 -1.10538e-23)
(0.00927699 -3.11036e-05 2.42849e-24)
(0.00926055 -3.14746e-05 -1.95685e-26)
(0.00924425 -3.1625e-05 -1.88204e-24)
(0.00922821 -3.15614e-05 5.70144e-25)
(0.00921249 -3.12878e-05 -1.3483e-24)
(0.00919719 -3.08085e-05 -1.64731e-25)
(0.00918236 -3.0127e-05 8.01631e-26)
(0.00788682 -1.38284e-05 -1.15528e-24)
(0.00787446 -1.56586e-05 3.04103e-25)
(0.0078613 -1.73351e-05 6.40407e-25)
(0.00784739 -1.88266e-05 -2.89836e-24)
(0.00783286 -2.01132e-05 -1.2576e-24)
(0.00781786 -2.11996e-05 1.11211e-23)
(0.00780248 -2.20914e-05 -6.50845e-24)
(0.00778686 -2.27945e-05 9.03188e-25)
(0.00777109 -2.33166e-05 -8.80183e-25)
(0.00775528 -2.36649e-05 -9.15508e-25)
(0.00773953 -2.38453e-05 -2.41697e-25)
(0.00772393 -2.38613e-05 1.66824e-24)
(0.00770857 -2.37145e-05 3.69426e-25)
(0.00769355 -2.3407e-05 -9.43149e-25)
(0.00767893 -2.29406e-05 -1.34634e-25)
(0.00649673 -9.6253e-06 -4.20572e-25)
(0.00648589 -1.09662e-05 -1.34136e-25)
(0.00647419 -1.22145e-05 -6.65037e-24)
(0.00646167 -1.33274e-05 1.81959e-24)
(0.00644847 -1.42952e-05 -4.62471e-24)
(0.0064347 -1.51221e-05 3.36603e-24)
(0.0064205 -1.58107e-05 6.14813e-24)
(0.00640596 -1.63645e-05 4.48393e-24)
(0.00639119 -1.67883e-05 -6.22532e-24)
(0.0063763 -1.70865e-05 1.87188e-24)
(0.00636138 -1.72626e-05 1.53069e-24)
(0.00634653 -1.73178e-05 -2.12791e-24)
(0.00633183 -1.72528e-05 1.12872e-24)
(0.00631739 -1.70679e-05 -6.29551e-26)
(0.00630328 -1.67639e-05 2.53932e-25)
(0.00522459 -6.35627e-06 -1.64919e-24)
(0.00521535 -7.29199e-06 -2.22531e-24)
(0.00520521 -8.16954e-06 -3.65706e-25)
(0.00519425 -8.95098e-06 5.5076e-24)
(0.00518258 -9.63578e-06 -3.83656e-24)
(0.00517032 -1.0227e-05 -7.00537e-25)
(0.00515758 -1.07255e-05 6.04619e-24)
(0.00514446 -1.11331e-05 -2.37115e-26)
(0.00513106 -1.14525e-05 -1.22117e-24)
(0.00511747 -1.16862e-05 -4.24756e-24)
(0.00510378 -1.1836e-05 5.25844e-25)
(0.0050901 -1.19021e-05 2.81351e-24)
(0.00507649 -1.18846e-05 -3.58247e-25)
(0.00506307 -1.17828e-05 -3.46595e-25)
(0.0050499 -1.15967e-05 2.2399e-25)
(0.00406314 -3.90157e-06 -3.60928e-25)
(0.00405556 -4.51272e-06 2.43861e-26)
(0.00404712 -5.08281e-06 2.65503e-24)
(0.0040379 -5.58898e-06 1.73258e-24)
(0.00402801 -6.03599e-06 -1.24302e-24)
(0.00401754 -6.4256e-06 -2.95963e-24)
(0.00400659 -6.75786e-06 1.16884e-24)
(0.00399526 -7.03341e-06 -4.84638e-24)
(0.00398361 -7.25355e-06 3.7208e-24)
(0.00397175 -7.41945e-06 1.83785e-24)
(0.00395976 -7.53193e-06 -5.30434e-26)
(0.00394771 -7.59082e-06 -1.94794e-24)
(0.00393568 -7.5959e-06 3.37465e-25)
(0.00392377 -7.54613e-06 -2.40378e-25)
(0.00391204 -7.44093e-06 1.15568e-25)
(0.00300504 -2.14888e-06 -6.65552e-25)
(0.00299917 -2.51517e-06 1.93868e-26)
(0.00299253 -2.84778e-06 2.13597e-24)
(0.00298522 -3.14142e-06 -1.33303e-24)
(0.00297732 -3.40223e-06 5.3586e-24)
(0.00296891 -3.63111e-06 -9.71301e-24)
(0.00296006 -3.82782e-06 7.80423e-24)
(0.00295084 -3.99246e-06 -6.41721e-24)
(0.00294134 -4.12557e-06 4.53575e-24)
(0.00293162 -4.22764e-06 -2.8523e-24)
(0.00292174 -4.29903e-06 9.71551e-25)
(0.00291179 -4.33952e-06 1.36826e-25)
(0.00290182 -4.34892e-06 2.01559e-25)
(0.0028919 -4.32641e-06 -2.45085e-25)
(0.00288211 -4.27114e-06 4.78464e-26)
(0.00204304 -9.87113e-07 1.01156e-24)
(0.00203888 -1.1808e-06 1.07479e-24)
(0.00203412 -1.34668e-06 -4.60869e-24)
(0.00202883 -1.49123e-06 3.34725e-24)
(0.00202308 -1.61893e-06 -4.17257e-26)
(0.00201693 -1.7303e-06 8.24356e-25)
(0.00201042 -1.82539e-06 -1.0289e-24)
(0.00200361 -1.90444e-06 -2.07934e-24)
(0.00199656 -1.9679e-06 2.0432e-24)
(0.00198932 -2.01622e-06 1.94413e-25)
(0.00198194 -2.0498e-06 -1.55336e-24)
(0.00197448 -2.06869e-06 5.5799e-25)
(0.00196697 -2.07302e-06 3.13579e-25)
(0.00195949 -2.06207e-06 -3.79314e-26)
(0.00195207 -2.0343e-06 -3.22066e-26)
(0.00117012 -3.02528e-07 -1.02252e-24)
(0.00116763 -3.56907e-07 3.10839e-24)
(0.00116475 -4.03001e-07 1.81065e-24)
(0.00116154 -4.45456e-07 -3.30219e-24)
(0.00115804 -4.84303e-07 -3.847e-25)
(0.00115427 -5.19116e-07 -3.34837e-25)
(0.00115026 -5.49884e-07 9.99639e-25)
(0.00114606 -5.76815e-07 -1.67094e-24)
(0.00114169 -6.00253e-07 2.22618e-24)
(0.00113719 -6.20539e-07 -1.08995e-24)
(0.00113259 -6.38012e-07 -6.78671e-25)
(0.00112791 -6.52809e-07 4.01629e-25)
(0.0011232 -6.65106e-07 -4.46743e-25)
(0.00111849 -6.73094e-07 4.39158e-25)
(0.00111381 -6.72546e-07 -6.9814e-26)
(0.000379516 1.14539e-08 -7.34331e-27)
(0.000378611 1.02166e-07 6.06043e-25)
(0.000377574 1.66155e-07 6.81343e-25)
(0.000376426 2.06063e-07 -1.07954e-24)
(0.000375178 2.26205e-07 2.18446e-24)
(0.000373837 2.30028e-07 -2.37188e-24)
(0.000372414 2.20365e-07 1.51168e-25)
(0.00037092 1.99675e-07 1.24797e-24)
(0.000369365 1.70117e-07 -1.72303e-24)
(0.00036776 1.33613e-07 -2.93241e-25)
(0.000366116 9.18546e-08 1.12966e-24)
(0.000364443 4.63762e-08 -4.92244e-25)
(0.000362753 -1.49116e-09 -1.69337e-25)
(0.000361059 -4.93299e-08 1.39808e-25)
(0.000359371 -9.3363e-08 -5.79982e-27)
(0.000945407 -0.000234718 6.55014e-26)
(0.00108657 -0.000143071 1.56455e-24)
(0.00132485 -5.20713e-05 -4.33558e-24)
(0.00156949 1.95617e-05 5.98169e-24)
(0.00180587 7.37281e-05 -2.23776e-24)
(0.00203858 0.00011121 -1.93956e-24)
(0.0022671 0.000134612 2.11327e-24)
(0.00249157 0.000146117 -3.96569e-24)
(0.0027123 0.000147627 3.39074e-25)
(0.00292957 0.000140825 2.37793e-24)
(0.00314374 0.00012721 -4.30237e-25)
(0.00335517 0.000108129 4.4516e-25)
(0.00356428 8.48219e-05 -5.28877e-26)
(0.00377145 5.85466e-05 2.21228e-25)
(0.00397723 3.0692e-05 -7.93642e-25)
(0.00418228 3.03538e-06 4.1322e-25)
(0.00438798 -2.21845e-05 -7.69571e-26)
(0.00459624 -4.19939e-05 3.22081e-26)
(0.00481087 -5.31423e-05 6.03656e-26)
(0.00503661 -5.21549e-05 -2.23085e-26)
(0.00528089 -3.75398e-05 -2.15254e-27)
(0.0055497 -1.04488e-05 1.77662e-27)
(0.00582375 1.88526e-05 4.62343e-27)
(0.0060687 3.74288e-05 4.83689e-26)
(0.00627129 4.14285e-05 -8.32256e-26)
(0.00643073 3.08777e-05 -8.56375e-26)
(0.00654873 6.65254e-06 3.99337e-27)
(0.00662786 -3.03343e-05 1.88682e-25)
(0.00666993 -7.91248e-05 6.88664e-26)
(0.00667557 -0.000138198 -6.27345e-26)
(0.00664449 -0.00020488 -7.77425e-25)
(0.00657606 -0.000274891 1.42341e-24)
(0.00646958 -0.000342113 -7.22947e-25)
(0.00632476 -0.000399343 -1.99855e-24)
(0.00614213 -0.000438236 1.97503e-24)
(0.00592289 -0.000449515 9.08719e-24)
(0.0056688 -0.000422877 -2.9699e-24)
(0.00538212 -0.000346331 1.76739e-24)
(0.00506573 -0.000204717 7.8892e-25)
(0.00472381 2.2103e-05 -1.16263e-23)
(0.0043612 0.000357747 -1.38203e-25)
(0.00398435 0.000817569 4.63151e-24)
(0.00358274 0.00136929 1.34767e-24)
(0.00317436 0.00187971 -6.3791e-24)
(0.0029461 0.00195428 -3.05268e-25)
(0.00179056 -0.000319682 -1.86554e-24)
(0.00185114 -0.000265915 -2.41543e-24)
(0.00200107 -0.000178641 5.17839e-24)
(0.00218894 -9.98062e-05 2.14109e-24)
(0.00238928 -3.49935e-05 -7.44388e-24)
(0.00259676 1.3517e-05 7.60155e-24)
(0.00280668 4.72064e-05 -2.67886e-24)
(0.00301664 6.80484e-05 1.92372e-24)
(0.00322555 7.79365e-05 -2.55498e-24)
(0.00343282 7.86195e-05 3.82801e-26)
(0.00363822 7.16813e-05 -1.21065e-24)
(0.00384172 5.85565e-05 2.36842e-24)
(0.00404342 4.05711e-05 -1.25561e-24)
(0.00424343 1.90542e-05 -9.61051e-25)
(0.00444208 -4.55256e-06 -4.37701e-25)
(0.00463976 -2.84517e-05 1.15166e-24)
(0.00483755 -5.04167e-05 -1.94948e-26)
(0.00503698 -6.75387e-05 2.93991e-25)
(0.00524141 -7.66462e-05 -3.35014e-26)
(0.005455 -7.43461e-05 -3.43123e-26)
(0.0056847 -5.91115e-05 3.89878e-27)
(0.00593626 -3.17917e-05 1.35e-27)
(0.00619251 -2.09993e-06 1.86695e-26)
(0.00642238 1.76419e-05 9.48777e-26)
(0.00661368 2.37457e-05 -3.43592e-26)
(0.00676541 1.61207e-05 -4.57207e-25)
(0.00687878 -4.44602e-06 6.31088e-25)
(0.00695579 -3.69943e-05 -4.00745e-25)
(0.00699785 -8.03907e-05 1.34751e-25)
(0.00700537 -0.0001329 9.55024e-26)
(0.00697803 -0.000191687 -1.36892e-24)
(0.00691539 -0.000252399 3.43051e-24)
(0.00681706 -0.000308873 -4.17753e-24)
(0.00668318 -0.000354 1.12705e-23)
(0.0065149 -0.00037958 -1.61535e-23)
(0.00631433 -0.000376502 4.16581e-24)
(0.00608455 -0.000334674 1.51964e-23)
(0.00582982 -0.000242498 -4.54256e-24)
(0.00555618 -8.56588e-05 -1.14787e-23)
(0.00527313 0.000154476 -6.53459e-24)
(0.00499539 0.000500045 1.48884e-23)
(0.00474753 0.000966218 -1.39925e-23)
(0.00455503 0.00152165 -2.71161e-24)
(0.00445897 0.0020233 8.97074e-24)
(0.00449651 0.00203935 2.61715e-24)
(0.00279307 -0.000329783 -2.07848e-26)
(0.00280445 -0.000319583 -2.83e-24)
(0.00287135 -0.000266335 5.38398e-24)
(0.0029921 -0.000198533 4.08436e-24)
(0.00314133 -0.00013427 -6.82453e-24)
(0.00330956 -8.09488e-05 1.58922e-25)
(0.003489 -4.03034e-05 5.9337e-25)
(0.00367467 -1.18819e-05 5.96718e-24)
(0.00386364 5.50859e-06 -7.01702e-24)
(0.00405408 1.32973e-05 4.09099e-24)
(0.0042449 1.29449e-05 1.07767e-24)
(0.00443542 5.85365e-06 -6.31822e-24)
(0.00462526 -6.63586e-06 2.26104e-24)
(0.00481416 -2.31653e-05 8.01017e-25)
(0.00500208 -4.22655e-05 -1.42204e-24)
(0.00518909 -6.21465e-05 2.01934e-24)
(0.00537591 -8.06015e-05 -1.18862e-24)
(0.00556361 -9.47986e-05 9.33286e-26)
(0.00575504 -0.000101656 1.1087e-25)
(0.0059537 -9.78711e-05 3.72443e-26)
(0.00616598 -8.18924e-05 4.75603e-27)
(0.00639725 -5.42715e-05 -9.92634e-27)
(0.00663262 -2.41763e-05 -2.3993e-26)
(0.0068446 -3.29807e-06 1.20067e-25)
(0.00702216 4.87421e-06 -3.03474e-25)
(0.00716413 1.60281e-07 1.96322e-25)
(0.00727118 -1.67331e-05 -5.14796e-25)
(0.00734476 -4.47955e-05 6.72786e-25)
(0.00738583 -8.27136e-05 -2.19368e-25)
(0.00739456 -0.000128544 5.58971e-25)
(0.00737061 -0.000179299 1.14981e-24)
(0.00731374 -0.000230577 -3.96473e-24)
(0.0072239 -0.00027618 1.68681e-24)
(0.00710167 -0.000309158 5.75075e-24)
(0.00694889 -0.000321574 -1.37e-23)
(0.0067686 -0.000304693 2.087e-23)
(0.00656524 -0.000249009 -1.36808e-23)
(0.00634507 -0.000143965 1.83538e-23)
(0.00611709 2.26986e-05 -3.45837e-23)
(0.00589517 0.000265656 1.3067e-23)
(0.0057008 0.000600444 4.3977e-24)
(0.00556726 0.00103348 6.56374e-24)
(0.00553073 0.00152682 -8.1416e-24)
(0.00561552 0.0019423 2.09043e-24)
(0.00577865 0.00194011 -1.22053e-24)
(0.00393246 -0.00031488 -7.64636e-25)
(0.00391735 -0.000331422 -1.10435e-24)
(0.003932 -0.000309921 -4.56815e-24)
(0.00398827 -0.000266077 1.48643e-24)
(0.00408152 -0.000213207 9.66852e-25)
(0.00420137 -0.000163271 3.32475e-24)
(0.00434025 -0.000121173 -6.39023e-24)
(0.00449201 -8.87206e-05 2.5623e-24)
(0.00465232 -6.60518e-05 7.62145e-24)
(0.00481818 -5.25204e-05 -2.08058e-24)
(0.00498754 -4.70874e-05 -1.81528e-24)
(0.00515896 -4.85757e-05 -2.71988e-25)
(0.00533146 -5.57543e-05 8.12437e-25)
(0.00550426 -6.73173e-05 -1.4981e-24)
(0.00567693 -8.18253e-05 3.85058e-25)
(0.00584909 -9.753e-05 -2.39615e-26)
(0.00602106 -0.000112276 -2.74659e-25)
(0.00619339 -0.000123336 3.02168e-25)
(0.00636836 -0.000127736 2.5981e-25)
(0.00654875 -0.000122288 -6.41981e-26)
(0.00674026 -0.000105437 1.45564e-26)
(0.00694779 -7.745e-05 4.9808e-27)
(0.00715882 -4.69637e-05 -3.97251e-26)
(0.00734972 -2.50111e-05 -6.92181e-26)
(0.00751073 -1.48417e-05 -3.40535e-25)
(0.00764052 -1.6693e-05 4.91186e-25)
(0.00773922 -2.99249e-05 -4.75921e-25)
(0.0078077 -5.34772e-05 8.26415e-25)
(0.00784648 -8.58551e-05 -3.75986e-25)
(0.00785547 -0.000124919 3.00294e-25)
(0.00783432 -0.000167564 -4.1284e-25)
(0.00778298 -0.000209398 -2.01671e-25)
(0.00770175 -0.00024422 -2.59498e-25)
(0.00759168 -0.000265363 -1.52891e-24)
(0.00745527 -0.00026532 2.37636e-24)
(0.00729648 -0.000236006 -6.16447e-24)
(0.00712098 -0.000168929 2.76025e-23)
(0.00693671 -5.52351e-05 -1.47757e-23)
(0.00675473 0.000114269 -7.3903e-25)