/*--------------------------------*- C++ -*----------------------------------*\
| =========                 |                                                 |
| \\      /  F ield         | OpenFOAM: The Open Source CFD Toolbox           |
|  \\    /   O peration     | Version:  2312                                  |
|   \\  /    A nd           | Website:  www.openfoam.com                      |
|    \\/     M anipulation  |                                                 |
\*---------------------------------------------------------------------------*/
FoamFile
{
    version     2.0;
    format      ascii;
    arch        "LSB;label=32;scalar=64";
    class       volVectorField;
    location    "2";
    object      U;
}
// * * * * * * * * * * * * * * * * * * * * * * * * * * * * * * * * * * * * * //

dimensions      [0 1 -1 0 0 0 0];

internalField   nonuniform List<vector> 
4800
(
(0.000461792 3.11698e-07 -2.66941e-26)
(0.000454164 3.41853e-07 -1.87679e-25)
(0.000449574 3.53438e-07 2.40871e-25)
(0.000447006 3.44171e-07 1.10234e-25)
(0.000445861 3.26586e-07 1.62846e-24)
(0.000445888 2.94419e-07 -3.8787e-24)
(0.000446838 2.55049e-07 3.63374e-24)
(0.000448618 1.78858e-07 -5.27613e-24)
(0.000451309 2.33132e-08 1.6915e-24)
(0.000455091 -2.40967e-07 5.77378e-24)
(0.000460371 -7.52037e-07 -1.77922e-24)
(0.00046843 -2.15485e-06 -1.50644e-25)
(0.000486468 -7.3183e-06 -2.17136e-24)
(0.000532315 -2.81612e-05 1.01023e-24)
(0.000608134 -9.15611e-05 -8.0321e-25)
(0.00142792 1.62738e-06 -8.49284e-26)
(0.00140459 1.17646e-06 1.05853e-25)
(0.0013903 8.17078e-07 -9.7647e-25)
(0.00138205 4.91543e-07 7.2955e-25)
(0.00137803 1.75961e-07 2.3453e-24)
(0.00137745 -1.6746e-07 -3.72417e-24)
(0.0013795 -5.62187e-07 -1.06447e-24)
(0.00138393 -1.08695e-06 -2.55226e-25)
(0.00139098 -1.9111e-06 8.76607e-24)
(0.00140107 -3.23526e-06 -6.47754e-24)
(0.00141538 -5.69903e-06 7.05106e-25)
(0.00143666 -1.15419e-05 1.07563e-24)
(0.00147377 -2.83989e-05 -1.59128e-24)
(0.00153737 -7.96823e-05 -4.8218e-25)
(0.00160592 -0.000195181 2.08178e-24)
(0.00249586 5.23422e-06 -6.08017e-26)
(0.00245568 3.77824e-06 6.21261e-26)
(0.00243073 2.64792e-06 6.39152e-25)
(0.00241593 1.66637e-06 -1.52447e-24)
(0.00240829 6.92962e-07 1.49688e-24)
(0.00240632 -3.70279e-07 1.39615e-24)
(0.0024087 -1.6018e-06 -3.60758e-24)
(0.00241486 -3.22747e-06 -2.26435e-24)
(0.00242523 -5.61131e-06 5.43762e-24)
(0.00244005 -9.30057e-06 2.0515e-24)
(0.00246072 -1.57911e-05 -7.1326e-24)
(0.00248939 -2.90612e-05 -1.0827e-24)
(0.0025302 -5.862e-05 3.04737e-24)
(0.00258194 -0.000123681 4.8243e-24)
(0.00261959 -0.000231728 -2.49269e-24)
(0.00367161 1.1716e-05 2.2477e-26)
(0.00361374 8.56457e-06 -1.56542e-25)
(0.00357729 6.12662e-06 6.98388e-25)
(0.00355511 4.02395e-06 7.4815e-25)
(0.00354301 1.9575e-06 -7.42488e-25)
(0.00353867 -2.98949e-07 -4.221e-24)
(0.00354046 -2.78809e-06 -2.85877e-24)
(0.00354709 -6.09268e-06 1.09327e-23)
(0.00355921 -1.08263e-05 4.56195e-24)
(0.00357647 -1.78073e-05 -6.55043e-24)
(0.00359968 -2.91908e-05 -2.63964e-24)
(0.00362927 -4.95093e-05 -2.01476e-24)
(0.00366453 -8.67392e-05 6.02158e-26)
(0.00369831 -0.00015079 1.49033e-24)
(0.00371241 -0.000236641 7.28536e-27)
(0.00495901 2.17023e-05 -4.12487e-26)
(0.00488336 1.60284e-05 -2.5236e-25)
(0.00483494 1.1647e-05 -1.5985e-25)
(0.00480472 7.88757e-06 4.31607e-25)
(0.00478737 4.25124e-06 -1.2288e-24)
(0.00477962 4.17321e-07 3.06694e-24)
(0.00477975 -4.01295e-06 -5.35017e-25)
(0.00478552 -9.34813e-06 1.88352e-24)
(0.00479746 -1.69233e-05 -1.05608e-23)
(0.00481453 -2.75273e-05 2.00517e-23)
(0.00483655 -4.34242e-05 -1.94028e-23)
(0.00486224 -6.83459e-05 1.02417e-23)
(0.00488826 -0.000107117 -9.50632e-24)
(0.00490692 -0.000162765 8.96881e-24)
(0.00490793 -0.000227696 -3.57676e-24)
(0.00635821 3.59023e-05 5.44956e-26)
(0.00626602 2.67979e-05 1.95174e-25)
(0.00620597 1.97732e-05 -1.03006e-24)
(0.00616753 1.37751e-05 -6.52941e-25)
(0.00614442 8.07306e-06 1.75056e-24)
(0.00613252 2.11965e-06 6.28818e-25)
(0.00612962 -4.47761e-06 -4.91593e-24)
(0.0061334 -1.24189e-05 1.17384e-23)
(0.00614323 -2.29375e-05 -1.53026e-23)
(0.00615769 -3.69418e-05 3.66814e-24)
(0.00617564 -5.62518e-05 1.11696e-23)
(0.00619479 -8.31498e-05 -1.55191e-23)
(0.00621131 -0.000119521 7.77151e-24)
(0.00621947 -0.000164823 7.96695e-24)
(0.00621456 -0.000212834 -6.06483e-24)
(0.00786344 5.48288e-05 4.50602e-26)
(0.0077582 4.14123e-05 -2.66605e-25)
(0.00768829 3.10437e-05 9.55183e-25)
(0.0076424 2.22226e-05 -1.32555e-24)
(0.00761361 1.39672e-05 -4.50829e-24)
(0.00759727 5.49727e-06 7.68632e-24)
(0.00759055 -3.66399e-06 -4.6706e-24)
(0.00759108 -1.43567e-05 1.59087e-23)
(0.00759732 -2.76918e-05 -1.08193e-23)
(0.00760744 -4.44853e-05 -5.06018e-24)
(0.00761965 -6.58513e-05 -9.9594e-24)
(0.00763145 -9.26938e-05 9.15632e-24)
(0.00763973 -0.000124998 2.57591e-24)
(0.00764101 -0.000160976 2.20374e-24)
(0.00763374 -0.000196466 -1.93919e-24)
(0.00946081 7.83934e-05 -6.49286e-26)
(0.00934918 6.00135e-05 8.82183e-25)
(0.00927334 4.57282e-05 -2.05433e-24)
(0.00922226 3.35888e-05 -1.68417e-24)
(0.00918899 2.23645e-05 6.28929e-25)
(0.00916867 1.10924e-05 1.2397e-24)
(0.00915811 -8.61192e-07 4.45648e-24)
(0.00915475 -1.42595e-05 -1.21483e-23)
(0.00915659 -3.00633e-05 -6.48988e-24)
(0.00916155 -4.88227e-05 1.78469e-23)
(0.00916759 -7.09728e-05 -5.53499e-24)
(0.00917254 -9.64733e-05 1.89263e-23)
(0.00917428 -0.000124464 -9.96393e-24)
(0.00917096 -0.000153148 -3.17544e-24)
(0.00916259 -0.000180006 1.88016e-24)
(0.0111271 0.000105367 -8.58082e-27)
(0.0110194 8.19191e-05 4.87594e-25)
(0.0109442 6.3478e-05 -6.94386e-25)
(0.0108922 4.77606e-05 1.66562e-24)
(0.0108572 3.33393e-05 -9.93748e-24)
(0.0108346 1.91407e-05 1.04939e-23)
(0.0108211 4.42573e-06 -1.65514e-23)
(0.0108143 -1.14633e-05 1.01727e-23)
(0.0108119 -2.92213e-05 7.57092e-24)
(0.010812 -4.9108e-05 1.64435e-23)
(0.0108125 -7.10715e-05 -2.14772e-23)
(0.0108119 -9.46102e-05 -3.97327e-24)
(0.0108089 -0.000118718 1.83371e-24)
(0.0108025 -0.000142044 1.30947e-23)
(0.0107934 -0.000163163 -5.32565e-24)
(0.0128328 0.000132865 4.69443e-26)
(0.0127417 0.000105133 -2.0448e-25)
(0.012676 8.2882e-05 9.15324e-25)
(0.0126292 6.37472e-05 -3.21166e-24)
(0.0125967 4.6233e-05 4.87033e-24)
(0.0125748 2.92512e-05 -6.29183e-24)
(0.0125607 1.2057e-05 1.05371e-23)
(0.0125519 -5.89328e-06 1.85025e-24)
(0.0125467 -2.49888e-05 -1.4531e-23)
(0.0125431 -4.52652e-05 2.06986e-23)
(0.0125398 -6.64222e-05 -2.28281e-23)
(0.0125354 -8.78559e-05 -6.72021e-24)
(0.0125295 -0.000108737 1.1852e-23)
(0.0125214 -0.000128209 3.5146e-24)
(0.0125121 -0.000145513 -1.53518e-24)
(0.0145517 0.000156474 1.86511e-25)
(0.0144882 0.000126198 -1.58907e-24)
(0.0144405 0.0001012 -2.56116e-24)
(0.0144055 7.93607e-05 6.06857e-24)
(0.0143806 5.93032e-05 2.71645e-24)
(0.0143633 4.00426e-05 -1.70619e-23)
(0.0143515 2.09324e-05 5.25432e-24)
(0.0143434 1.56535e-06 3.78538e-24)
(0.0143375 -1.81955e-05 -1.63805e-23)
(0.0143325 -3.82545e-05 1.70606e-23)
(0.0143274 -5.82556e-05 -1.36539e-23)
(0.0143214 -7.76894e-05 3.50718e-23)
(0.0143144 -9.59886e-05 -1.68573e-23)
(0.014306 -0.000112677 9.92023e-24)
(0.0142972 -0.000127393 -2.70683e-24)
(0.0162766 0.000171959 -6.86296e-26)
(0.016244 0.000141193 1.07071e-24)
(0.0162182 0.000114943 -2.10553e-24)
(0.016199 9.15364e-05 -1.0738e-24)
(0.0161852 6.9871e-05 1.19909e-23)
(0.0161755 4.91712e-05 -1.73796e-24)
(0.0161688 2.89558e-05 -2.13374e-23)
(0.0161638 8.98328e-06 2.48936e-23)
(0.0161596 -1.07549e-05 -5.59241e-24)
(0.0161555 -3.00998e-05 -1.93583e-23)
(0.0161509 -4.87482e-05 2.06497e-23)
(0.0161453 -6.63528e-05 1.11322e-23)
(0.016139 -8.25802e-05 -9.36249e-24)
(0.0161317 -9.72091e-05 -1.6211e-23)
(0.0161242 -0.000110099 1.36036e-24)
(0.0180269 0.000178323 -2.79173e-27)
(0.0180174 0.000148242 -1.18934e-24)
(0.0180098 0.000121871 5.7062e-24)
(0.0180046 9.79331e-05 3.71355e-25)
(0.0180014 7.56161e-05 3.27717e-24)
(0.0179996 5.43792e-05 -1.17072e-23)
(0.0179985 3.39128e-05 1.00112e-23)
(0.0179976 1.41078e-05 2.2832e-24)
(0.0179964 -4.99537e-06 2.05972e-23)
(0.0179945 -2.32461e-05 -3.18158e-23)
(0.0179918 -4.04356e-05 -1.44019e-23)
(0.017988 -5.63697e-05 -9.51851e-24)
(0.0179835 -7.08875e-05 1.79223e-23)
(0.0179781 -8.39204e-05 -5.15613e-25)
(0.0179726 -9.54482e-05 1.73694e-24)
(0.0198288 0.000178866 -1.78096e-26)
(0.0198298 0.000149381 1.20857e-24)
(0.0198314 0.000123125 -1.76287e-24)
(0.0198338 9.90799e-05 -1.0148e-27)
(0.0198367 7.66395e-05 2.36398e-24)
(0.0198395 5.54382e-05 6.03171e-24)
(0.0198421 3.52862e-05 -2.3392e-23)
(0.019844 1.61308e-05 1.96841e-24)
(0.019845 -1.9891e-06 1.19008e-23)
(0.0198449 -1.89861e-05 -5.48326e-24)
(0.0198439 -3.47523e-05 1.49714e-23)
(0.0198419 -4.92128e-05 1.04818e-23)
(0.0198392 -6.23214e-05 -1.90188e-23)
(0.0198356 -7.40952e-05 1.30085e-23)
(0.019832 -8.45753e-05 -1.0815e-23)
(0.0216773 0.00017769 -5.27642e-25)
(0.0216807 0.000148477 2.79418e-25)
(0.0216844 0.000122206 2.09413e-24)
(0.0216885 9.80875e-05 -1.08997e-23)
(0.0216926 7.5672e-05 9.61161e-24)
(0.0216963 5.47063e-05 -7.05022e-24)
(0.0216995 3.5058e-05 5.05185e-24)
(0.0217018 1.66767e-05 -3.59536e-23)
(0.0217032 -4.46262e-07 5.18943e-23)
(0.0217037 -1.62935e-05 -3.05959e-23)
(0.0217033 -3.08508e-05 2.73339e-23)
(0.021702 -4.41303e-05 2.28687e-23)
(0.0217002 -5.61579e-05 -3.99539e-23)
(0.0216976 -6.69966e-05 1.30003e-23)
(0.0216951 -7.67162e-05 -5.46272e-25)
(0.0235177 0.000176019 -1.86863e-26)
(0.0235221 0.000147355 -1.54154e-25)
(0.0235261 0.000121303 1.15372e-25)
(0.0235298 9.73439e-05 -3.00399e-25)
(0.0235333 7.51724e-05 3.9159e-24)
(0.0235363 5.46143e-05 -6.74022e-24)
(0.0235387 3.55642e-05 6.28181e-24)
(0.0235402 1.79515e-05 -1.99213e-23)
(0.023541 1.72051e-06 4.53722e-23)
(0.023541 -1.31766e-05 -5.81298e-23)
(0.0235404 -2.67944e-05 4.7655e-23)
(0.023539 -3.91993e-05 -1.61009e-23)
(0.0235374 -5.04576e-05 8.37903e-25)
(0.0235351 -6.0655e-05 3.6967e-24)
(0.0235328 -6.98729e-05 -7.09125e-24)
(0.0252593 0.000172811 -1.54601e-24)
(0.0252656 0.000145362 2.78905e-24)
(0.0252705 0.000120118 -9.43481e-25)
(0.0252744 9.68305e-05 -1.50566e-24)
(0.0252776 7.53267e-05 6.15911e-24)
(0.0252801 5.54883e-05 -6.27835e-24)
(0.0252819 3.72224e-05 -5.68369e-24)
(0.0252829 2.04401e-05 -1.37601e-23)
(0.0252832 5.05716e-06 6.99884e-24)
(0.0252828 -9.01827e-06 3.35145e-23)
(0.025282 -2.18772e-05 -1.77086e-23)
(0.0252805 -3.36116e-05 1.05747e-23)
(0.0252788 -4.43059e-05 -4.35082e-24)
(0.0252766 -5.40529e-05 -1.29109e-23)
(0.0252744 -6.29349e-05 6.61133e-24)
(0.0267879 0.000167043 5.07453e-25)
(0.0267963 0.000141491 -8.81526e-25)
(0.0268024 0.000117699 -2.66119e-25)
(0.026807 9.56491e-05 -7.16596e-25)
(0.0268105 7.528e-05 -1.83581e-24)
(0.026813 5.65114e-05 9.51317e-24)
(0.0268147 3.92583e-05 -7.66567e-24)
(0.0268156 2.34212e-05 -4.95668e-24)
(0.0268159 8.90099e-06 4.53959e-24)
(0.0268155 -4.4068e-06 -5.36623e-24)
(0.0268147 -1.65989e-05 1.25046e-23)
(0.0268133 -2.77737e-05 6.35315e-24)
(0.0268117 -3.80203e-05 -2.37125e-23)
(0.0268097 -4.74288e-05 1.639e-23)
(0.0268077 -5.60743e-05 -3.34443e-24)
(0.0279556 0.000158554 1.49918e-24)
(0.0279655 0.00013546 2.52927e-24)
(0.0279728 0.000113683 -5.63317e-24)
(0.0279781 9.33736e-05 -2.99272e-25)
(0.0279821 7.45542e-05 1.29493e-24)
(0.0279849 5.71748e-05 -2.89516e-24)
(0.0279868 4.11636e-05 -4.6247e-24)
(0.0279879 2.64204e-05 1.00144e-23)
(0.0279884 1.28502e-05 1.1201e-23)
(0.0279882 3.4476e-07 -2.72097e-23)
(0.0279876 -1.11843e-05 1.56983e-23)
(0.0279865 -2.18316e-05 -1.09819e-24)
(0.0279852 -3.16788e-05 -9.16346e-25)
(0.0279835 -4.0804e-05 1.23629e-24)
(0.0279818 -4.92686e-05 -5.70681e-25)
(0.0285601 0.000145952 -3.93092e-24)
(0.0285717 0.000125792 -8.45295e-24)
(0.0285804 0.000106537 4.55842e-24)
(0.0285869 8.84325e-05 1.53886e-23)
(0.0285918 7.15495e-05 -4.29332e-24)
(0.0285955 5.58704e-05 -1.1931e-24)
(0.0285982 4.13391e-05 5.4972e-25)
(0.0286 2.78744e-05 -4.50413e-24)
(0.028601 1.53946e-05 1.21962e-23)
(0.0286015 3.81128e-06 -5.38935e-24)
(0.0286013 -6.95262e-06 3.23249e-24)
(0.0286006 -1.69771e-05 -5.11091e-24)
(0.0285995 -2.63248e-05 -5.85735e-24)
(0.0285981 -3.50574e-05 8.77512e-24)
(0.0285964 -4.32225e-05 -3.8374e-24)
(0.0283832 0.000131777 6.22999e-24)
(0.0283954 0.000114581 -1.43094e-23)
(0.0284048 9.7955e-05 2.34743e-24)
(0.0284121 8.21729e-05 2.0607e-23)
(0.0284176 6.73265e-05 -1.99717e-23)
(0.0284219 5.34222e-05 6.93309e-24)
(0.0284251 4.0418e-05 4.43804e-24)
(0.0284275 2.82555e-05 -9.98716e-24)
(0.0284291 1.68707e-05 2.38211e-24)
(0.02843 6.20542e-06 1.0684e-24)
(0.0284303 -3.79241e-06 -1.03267e-24)
(0.0284301 -1.31657e-05 2.15379e-24)
(0.0284294 -2.19581e-05 -2.6403e-24)
(0.0284284 -3.02209e-05 1.79107e-24)
(0.0284271 -3.7995e-05 -8.31145e-25)
(0.0274564 0.000116307 3.8646e-24)
(0.0274694 0.000101881 -8.14908e-24)
(0.0274794 8.78057e-05 -5.59995e-24)
(0.0274871 7.43266e-05 2.63139e-23)
(0.027493 6.15388e-05 -2.41327e-23)
(0.0274974 4.9454e-05 2.58295e-24)
(0.0275006 3.80482e-05 4.02436e-24)
(0.0275028 2.72778e-05 2.15414e-24)
(0.0275041 1.71029e-05 1.66608e-24)
(0.0275048 7.48387e-06 -7.56087e-24)
(0.0275048 -1.60715e-06 4.86437e-24)
(0.0275043 -1.02054e-05 7.35545e-25)
(0.0275033 -1.83427e-05 -1.7114e-24)
(0.027502 -2.60523e-05 9.39304e-25)
(0.0275003 -3.3359e-05 5.99515e-25)
(0.0259818 0.000101026 9.61297e-24)
(0.025995 8.90378e-05 -1.70639e-23)
(0.0260055 7.72494e-05 3.48503e-24)
(0.0260139 6.58675e-05 -8.25122e-24)
(0.0260207 5.4977e-05 -1.06394e-23)
(0.026026 4.45941e-05 3.61228e-23)
(0.0260301 3.47081e-05 -1.39299e-23)
(0.0260332 2.52939e-05 3.87647e-24)
(0.0260355 1.6328e-05 -2.11749e-24)
(0.026037 7.7847e-06 -4.88757e-24)
(0.0260378 -3.64163e-07 8.8731e-24)
(0.026038 -8.14906e-06 -4.34257e-24)
(0.0260376 -1.55848e-05 6.83684e-25)
(0.0260368 -2.26851e-05 2.08642e-25)
(0.0260355 -2.94571e-05 2.39005e-26)
(0.0241924 8.78004e-05 3.70121e-24)
(0.0242056 7.77942e-05 -1.91144e-23)
(0.0242163 6.78733e-05 3.31255e-23)
(0.0242251 5.8208e-05 -2.52528e-23)
(0.0242323 4.8869e-05 2.51525e-23)
(0.0242381 3.98804e-05 -8.36763e-24)
(0.0242427 3.12391e-05 -5.75648e-24)
(0.0242462 2.29383e-05 -6.21528e-24)
(0.0242488 1.49615e-05 1.07169e-23)
(0.0242507 7.29796e-06 -6.19944e-25)
(0.0242518 -6.99855e-08 -9.92112e-24)
(0.0242523 -7.14666e-06 -1.05388e-24)
(0.0242521 -1.3936e-05 1.90648e-24)
(0.0242514 -2.04439e-05 -3.20516e-25)
(0.0242502 -2.66709e-05 4.60393e-26)
(0.0222223 7.55874e-05 4.92596e-25)
(0.0222356 6.72245e-05 -7.1936e-24)
(0.0222467 5.88667e-05 -4.00929e-24)
(0.0222559 5.06476e-05 3.27881e-23)
(0.0222636 4.2631e-05 -3.22001e-23)
(0.0222698 3.4844e-05 9.4003e-24)
(0.0222749 2.72971e-05 1.57939e-24)
(0.0222789 1.99922e-05 -8.23356e-25)
(0.0222819 1.2929e-05 -3.81551e-24)
(0.0222841 6.10384e-06 1.63753e-23)
(0.0222855 -4.81628e-07 -1.29708e-23)
(0.0222862 -6.8298e-06 -5.0669e-25)
(0.0222862 -1.29382e-05 1.04351e-24)
(0.0222857 -1.88056e-05 6.74974e-25)
(0.0222845 -2.44288e-05 -4.99449e-25)
(0.0201731 6.42226e-05 7.33225e-25)
(0.0201865 5.72206e-05 6.68588e-24)
(0.020198 5.01778e-05 -7.67271e-24)
(0.0202077 4.31987e-05 -5.29984e-24)
(0.0202158 3.63387e-05 3.36833e-23)
(0.0202226 2.96269e-05 -2.57608e-23)
(0.0202281 2.30827e-05 -5.94904e-25)
(0.0202326 1.67146e-05 -5.28467e-24)
(0.020236 1.05316e-05 -4.00374e-25)
(0.0202386 4.53425e-06 7.73092e-25)
(0.0202403 -1.26563e-06 -2.67691e-24)
(0.0202412 -6.87136e-06 2.28872e-24)
(0.0202414 -1.22787e-05 8.25348e-25)
(0.020241 -1.74814e-05 6.99313e-25)
(0.0202398 -2.24721e-05 6.2081e-25)
(0.0181189 5.3642e-05 5.22641e-24)
(0.0181326 4.77793e-05 -8.01262e-24)
(0.0181444 4.18595e-05 -6.42319e-24)
(0.0181546 3.59621e-05 1.95885e-23)
(0.0181632 3.01314e-05 -7.01621e-24)
(0.0181704 2.43973e-05 -9.84224e-24)
(0.0181764 1.87816e-05 3.44562e-24)
(0.0181813 1.32977e-05 7.65308e-24)
(0.0181851 7.95626e-06 -1.21184e-23)
(0.0181879 2.76071e-06 1.19344e-23)
(0.0181899 -2.27597e-06 -6.30211e-24)
(0.018191 -7.15346e-06 2.64334e-24)
(0.0181913 -1.18633e-05 -3.27464e-24)
(0.0181909 -1.63973e-05 3.14354e-24)
(0.0181897 -2.07462e-05 -7.07163e-25)
(0.0161125 4.38122e-05 -1.01447e-24)
(0.0161263 3.89265e-05 -3.51868e-24)
(0.0161384 3.39873e-05 -1.12055e-23)
(0.0161488 2.905e-05 3.12829e-23)
(0.0161577 2.41475e-05 -5.61358e-24)
(0.0161652 1.93096e-05 -8.80546e-24)
(0.0161715 1.45563e-05 3.03731e-24)
(0.0161766 9.90533e-06 -4.40714e-24)
(0.0161806 5.36167e-06 -9.45363e-24)
(0.0161836 9.45913e-07 9.1093e-24)
(0.0161856 -3.35339e-06 4.3531e-25)
(0.0161867 -7.51938e-06 -2.80185e-24)
(0.0161869 -1.15387e-05 3.20027e-24)
(0.0161863 -1.5404e-05 1.74499e-25)
(0.0161849 -1.91062e-05 -2.24232e-25)
(0.0141887 3.4812e-05 3.90412e-24)
(0.0142024 3.07878e-05 5.73927e-24)
(0.0142143 2.67228e-05 -5.35472e-24)
(0.0142247 2.26492e-05 -1.16814e-23)
(0.0142336 1.85928e-05 1.57123e-23)
(0.0142411 1.45815e-05 -1.71853e-23)
(0.0142474 1.06343e-05 -6.5679e-25)
(0.0142524 6.76624e-06 6.65227e-24)
(0.0142563 2.98478e-06 2.31081e-24)
(0.0142591 -6.93554e-07 -4.74183e-24)
(0.0142609 -4.27611e-06 3.80811e-26)
(0.0142617 -7.74273e-06 9.56688e-24)
(0.0142616 -1.10817e-05 -3.65211e-24)
(0.0142606 -1.42867e-05 -9.00097e-25)
(0.0142587 -1.73487e-05 -5.34381e-26)
(0.0123687 2.6806e-05 -4.05551e-24)
(0.0123818 2.35545e-05 5.22022e-24)
(0.0123933 2.02758e-05 5.86677e-25)
(0.0124032 1.69833e-05 1.05555e-23)
(0.0124117 1.37002e-05 -8.60656e-24)
(0.0124188 1.04512e-05 6.83927e-25)
(0.0124246 7.2534e-06 -9.24986e-25)
(0.0124292 4.11687e-06 -2.7025e-24)
(0.0124327 1.05572e-06 2.35013e-24)
(0.012435 -1.93491e-06 -7.58537e-24)
(0.0124362 -4.83051e-06 5.44852e-25)
(0.0124365 -7.62635e-06 1.80827e-24)
(0.0124357 -1.0315e-05 1.11669e-24)
(0.0124341 -1.28894e-05 4.30107e-25)
(0.0124314 -1.53405e-05 1.48245e-25)
(0.0106636 1.99514e-05 3.00384e-24)
(0.0106757 1.73919e-05 -2.37661e-24)
(0.0106862 1.48155e-05 -1.04442e-23)
(0.0106953 1.22237e-05 9.80634e-24)
(0.010703 9.63945e-06 1.3695e-23)
(0.0107093 7.08312e-06 -3.47481e-24)
(0.0107144 4.56785e-06 -7.07947e-24)
(0.0107183 2.10231e-06 -9.92166e-24)
(0.010721 -3.02423e-07 7.47973e-24)
(0.0107225 -2.64903e-06 4.34245e-25)
(0.0107231 -4.91535e-06 -1.67339e-24)
(0.0107226 -7.09781e-06 -4.46343e-25)
(0.010721 -9.19114e-06 9.19124e-25)
(0.0107186 -1.11888e-05 -3.59749e-26)
(0.0107152 -1.30825e-05 -1.71126e-25)
(0.00907794 1.43227e-05 -1.89025e-24)
(0.00908863 1.23708e-05 -1.34654e-24)
(0.00909793 1.04086e-05 1.64016e-24)
(0.00910585 8.43238e-06 -5.20358e-24)
(0.00911244 6.46457e-06 1.70781e-23)
(0.00911777 4.52007e-06 -2.2649e-23)
(0.00912189 2.60809e-06 2.22219e-23)
(0.00912484 7.37863e-07 -9.41312e-24)
(0.00912667 -1.08918e-06 2.13899e-24)
(0.00912742 -2.86271e-06 2.66782e-26)
(0.00912714 -4.57293e-06 -1.66912e-24)
(0.00912586 -6.21585e-06 5.52555e-25)
(0.00912361 -7.78663e-06 -1.25958e-24)
(0.00912046 -9.27958e-06 -1.61929e-25)
(0.00911641 -1.06879e-05 8.04275e-26)
(0.00761208 9.88786e-06 -9.18259e-25)
(0.00762118 8.45282e-06 2.35347e-25)
(0.00762905 7.01233e-06 5.11555e-25)
(0.00763565 5.56105e-06 -2.37474e-24)
(0.00764104 4.11966e-06 -1.07198e-24)
(0.00764527 2.69702e-06 9.2777e-24)
(0.00764838 1.29978e-06 -5.45523e-24)
(0.0076504 -6.3573e-08 7.81233e-25)
(0.00765137 -1.39597e-06 -7.56472e-25)
(0.00765134 -2.68448e-06 -8.13993e-25)
(0.00765033 -3.92446e-06 -2.33211e-25)
(0.0076484 -5.11231e-06 1.53434e-24)
(0.00764557 -6.244e-06 3.73263e-25)
(0.0076419 -7.31485e-06 -8.99526e-25)
(0.00763741 -8.31979e-06 -1.34177e-25)
(0.00626379 6.52958e-06 -3.33797e-25)
(0.00627126 5.51841e-06 -1.10444e-25)
(0.00627766 4.50629e-06 -5.38107e-24)
(0.00628294 3.48774e-06 1.42389e-24)
(0.00628714 2.47963e-06 -3.87409e-24)
(0.0062903 1.48547e-06 2.70989e-24)
(0.00629246 5.10803e-07 5.13413e-24)
(0.00629364 -4.38537e-07 3.84767e-24)
(0.00629388 -1.36498e-06 -5.39258e-24)
(0.00629322 -2.25915e-06 1.62555e-24)
(0.00629169 -3.11753e-06 1.37677e-24)
(0.00628933 -3.9373e-06 -1.95944e-24)
(0.00628617 -4.71557e-06 1.04347e-24)
(0.00628225 -5.44865e-06 -6.92883e-26)
(0.00627761 -6.13289e-06 2.51699e-25)
(0.00502917 4.08378e-06 -1.30668e-24)
(0.00503507 3.40717e-06 -1.79026e-24)
(0.00504007 2.73456e-06 -3.25374e-25)
(0.0050441 2.05957e-06 4.45353e-24)
(0.00504722 1.39406e-06 -3.15284e-24)
(0.00504944 7.37648e-07 -6.12419e-25)
(0.0050508 9.64777e-08 5.07648e-24)
(0.00505132 -5.28141e-07 1.22982e-26)
(0.00505103 -1.13697e-06 -1.02892e-24)
(0.00504995 -1.72331e-06 -3.74848e-24)
(0.00504813 -2.28484e-06 4.25671e-25)
(0.00504559 -2.8195e-06 2.55694e-24)
(0.00504237 -3.32543e-06 -3.28588e-25)
(0.0050385 -3.79981e-06 -3.37781e-25)
(0.00503402 -4.23998e-06 2.21105e-25)
(0.00390313 2.37421e-06 -2.85409e-25)
(0.00390759 1.95086e-06 1.69412e-26)
(0.00391132 1.53642e-06 2.13514e-24)
(0.00391426 1.12251e-06 1.42895e-24)
(0.00391644 7.15952e-07 -9.8495e-25)
(0.0039179 3.14575e-07 -2.43577e-24)
(0.00391864 -7.61387e-08 9.85434e-25)
(0.00391869 -4.57778e-07 -4.13193e-24)
(0.00391808 -8.2805e-07 3.18169e-24)
(0.00391682 -1.18504e-06 1.62632e-24)
(0.00391494 -1.52605e-06 -1.65477e-26)
(0.00391248 -1.84984e-06 -1.76329e-24)
(0.00390946 -2.15523e-06 3.14868e-25)
(0.00390592 -2.4401e-06 -2.32195e-25)
(0.00390187 -2.70235e-06 1.13738e-25)
(0.00287977 1.23466e-06 -5.25155e-25)
(0.00288296 9.91266e-07 1.08672e-26)
(0.00288558 7.61344e-07 1.71093e-24)
(0.00288758 5.34065e-07 -1.06954e-24)
(0.00288901 3.12263e-07 4.39941e-24)
(0.00288988 9.50343e-08 -8.01377e-24)
(0.00289018 -1.21378e-07 6.47696e-24)
(0.00288997 -3.25898e-07 -5.39776e-24)
(0.00288923 -5.29999e-07 3.89827e-24)
(0.00288799 -7.2322e-07 -2.49258e-24)
(0.00288628 -9.07797e-07 8.55667e-25)
(0.00288412 -1.08251e-06 1.23164e-25)
(0.00288152 -1.24643e-06 1.90769e-25)
(0.00287853 -1.39801e-06 -2.33781e-25)
(0.00287515 -1.5355e-06 4.69906e-26)
(0.00195269 5.25543e-07 7.96311e-25)
(0.00195475 3.98013e-07 8.60158e-25)
(0.00195642 2.88147e-07 -3.6776e-24)
(0.00195766 1.82526e-07 2.68919e-24)
(0.0019585 8.1461e-08 -2.65711e-26)
(0.00195894 -1.34735e-08 6.91146e-25)
(0.00195898 -1.13662e-07 -8.4494e-25)
(0.00195866 -2.06682e-07 -1.76213e-24)
(0.00195797 -2.96071e-07 1.74867e-24)
(0.00195693 -3.80453e-07 1.79914e-25)
(0.00195556 -4.59991e-07 -1.38296e-24)
(0.00195387 -5.3399e-07 4.96503e-25)
(0.00195187 -6.03131e-07 2.90174e-25)
(0.0019496 -6.66639e-07 -3.47184e-26)
(0.00194707 -7.23033e-07 -3.15879e-26)
(0.00111515 1.5434e-07 -8.03012e-25)
(0.00111626 1.07768e-07 2.45498e-24)
(0.00111713 7.74441e-08 1.46284e-24)
(0.00111775 4.79836e-08 -2.63473e-24)
(0.00111813 1.90428e-08 -3.08657e-25)
(0.00111828 -8.19837e-09 -2.73611e-25)
(0.00111821 -3.95784e-08 8.33304e-25)
(0.00111792 -6.81858e-08 -1.40947e-24)
(0.00111741 -9.57577e-08 1.91225e-24)
(0.0011167 -1.22218e-07 -9.36029e-25)
(0.0011158 -1.45724e-07 -6.02505e-25)
(0.0011147 -1.65099e-07 3.6191e-25)
(0.00111343 -1.86188e-07 -4.19755e-25)
(0.00111201 -2.09247e-07 4.17136e-25)
(0.00111042 -2.33029e-07 -6.84318e-26)
(0.000360387 5.85749e-08 -5.72917e-27)
(0.000360651 1.13127e-07 4.76465e-25)
(0.000360848 1.57641e-07 5.44567e-25)
(0.00036097 1.86762e-07 -8.53892e-25)
(0.000361022 2.025e-07 1.77214e-24)
(0.000361004 2.06915e-07 -1.92414e-24)
(0.000360916 2.017e-07 1.25989e-25)
(0.000360759 1.89e-07 1.05617e-24)
(0.000360536 1.69843e-07 -1.45964e-24)
(0.000360248 1.4559e-07 -2.61073e-25)
(0.000359897 1.18553e-07 9.96668e-25)
(0.000359487 9.03448e-08 -4.38222e-25)
(0.00035902 5.74752e-08 -1.58106e-25)
(0.000358502 2.02402e-08 1.31517e-25)
(0.000357936 -2.02956e-08 -5.65985e-27)
(0.000902134 -0.000238662 7.98724e-26)
(0.00103371 -0.000159806 2.03622e-24)
(0.00125533 -7.85965e-05 -5.84154e-24)
(0.00148224 -1.30682e-05 8.46505e-24)
(0.00170066 3.83271e-05 -3.17501e-24)
(0.00191534 7.62776e-05 -3.0371e-24)
(0.00212622 0.00010318 3.44538e-24)
(0.00233383 0.000121019 -6.7924e-24)
(0.00253887 0.000131467 4.40799e-25)
(0.00274192 0.000135972 4.27092e-24)
(0.00294348 0.000135787 -8.13283e-25)
(0.00314407 0.000132036 8.77877e-25)
(0.0033442 0.000125779 -8.58996e-26)
(0.00354448 0.000118074 5.44395e-25)
(0.00374573 0.000110037 -1.9973e-24)
(0.00394908 0.000102909 1.09255e-24)
(0.00415628 9.80492e-05 -3.3646e-25)
(0.00436978 9.69324e-05 2.66669e-26)
(0.00459349 0.000100731 7.78953e-25)
(0.00483219 0.000109972 -4.86447e-25)
(0.00509233 0.000122802 5.94927e-26)
(0.0053787 0.00013419 -5.1968e-26)
(0.00566916 0.000132837 9.88642e-26)
(0.00592655 0.000111632 3.81605e-25)
(0.00613834 7.15262e-05 -6.84942e-25)
(0.00630456 1.54187e-05 -4.59031e-25)
(0.00642695 -5.36263e-05 2.59094e-26)
(0.00650778 -0.000132981 1.11544e-24)
(0.00654881 -0.000220141 1.41389e-24)
(0.00655101 -0.000312216 -2.74003e-24)
(0.00651473 -0.000405485 1.87425e-24)
(0.00644011 -0.00049517 -1.33268e-24)
(0.00632745 -0.000575441 1.59257e-25)
(0.00617743 -0.000639548 -1.14404e-24)
(0.00599124 -0.000679978 1.10188e-24)
(0.00577054 -0.000688489 7.32782e-24)
(0.00551732 -0.000655877 -2.01596e-24)
(0.00523389 -0.000571251 1.88205e-24)
(0.00492293 -0.000420648 1.00695e-24)
(0.00458819 -0.000185503 -1.0816e-23)
(0.00423338 0.000155872 -1.31933e-25)
(0.0038633 0.000616522 4.54969e-24)
(0.00346653 0.00116557 1.44305e-24)
(0.00306091 0.00168088 -6.37095e-24)
(0.00283109 0.001798 -3.15365e-25)
(0.0016975 -0.000318287 -2.34111e-24)
(0.00175268 -0.000273727 -3.28209e-24)
(0.00188976 -0.000195617 6.89062e-24)
(0.0020622 -0.000123068 3.18614e-24)
(0.00224583 -6.15792e-05 -1.11378e-23)
(0.00243597 -1.33163e-05 1.18549e-23)
(0.00262854 2.30653e-05 -4.24526e-24)
(0.00282169 4.93838e-05 3.36299e-24)
(0.00301479 6.73511e-05 -4.44685e-24)
(0.00320762 7.85193e-05 5.10569e-26)
(0.0034002 8.42474e-05 -2.35304e-24)
(0.00359271 8.57508e-05 4.66361e-24)
(0.00378545 8.41604e-05 -2.57667e-24)
(0.00397884 8.05852e-05 -2.30792e-24)
(0.00417357 7.61741e-05 -1.52353e-24)
(0.00437059 7.21734e-05 2.92577e-24)
(0.00457147 6.99318e-05 -3.43429e-25)
(0.00477842 7.08835e-05 1.50702e-24)
(0.00499501 7.61664e-05 2.31871e-25)
(0.00522562 8.62952e-05 -4.43812e-25)
(0.00547634 9.95375e-05 -1.83135e-25)
(0.00575173 0.000111211 -1.09918e-25)
(0.00603105 0.000110588 5.3526e-25)
(0.00627923 9.1038e-05 6.5404e-25)
(0.00648438 5.35427e-05 -5.89297e-25)
(0.00664636 8.80428e-07 -2.80568e-24)
(0.00676655 -6.39534e-05 3.73748e-24)
(0.00684689 -0.000138295 -2.54134e-24)
(0.00688888 -0.000219522 8.48597e-25)
(0.00689342 -0.000304612 -4.03417e-25)
(0.00686093 -0.000389737 2.63565e-24)
(0.00679177 -0.000470079 -2.55376e-24)
(0.00668655 -0.000539829 -1.47316e-25)
(0.00654643 -0.000592314 5.90063e-24)
(0.00637323 -0.000620125 -1.0162e-23)
(0.00616952 -0.000615143 2.77134e-24)
(0.0059386 -0.000568326 1.30398e-23)
(0.00568475 -0.000469106 -3.58843e-24)
(0.00541382 -0.000304227 -1.04682e-23)
(0.00513484 -5.62459e-05 -6.29581e-24)
(0.00486128 0.000295091 1.43532e-23)
(0.00461562 0.000763452 -1.37795e-23)
(0.00442127 0.00131826 -2.9724e-24)
(0.00431791 0.00182644 8.97553e-24)
(0.00434731 0.00188657 2.81321e-24)
(0.00263647 -0.000326601 -2.66093e-26)
(0.00264494 -0.000321891 -3.75704e-24)
(0.00270372 -0.000275229 7.30067e-24)
(0.00281246 -0.000212915 6.11622e-24)
(0.0029475 -0.000151942 -1.00036e-23)
(0.00310019 -9.92965e-05 2.07304e-25)
(0.0032635 -5.66516e-05 9.58473e-25)
(0.00343314 -2.35931e-05 1.03539e-23)
(0.00360677 9.73748e-07 -1.2262e-23)
(0.00378303 1.83468e-05 7.52791e-24)
(0.00396118 2.9794e-05 2.26566e-24)
(0.00414087 3.651e-05 -1.25058e-23)
(0.00432202 3.96327e-05 4.51556e-24)
(0.00450478 4.02832e-05 1.79465e-24)
(0.0046896 3.96183e-05 -3.71775e-24)
(0.00487721 3.88757e-05 6.00123e-24)
(0.00506895 3.93817e-05 -4.20768e-24)
(0.00526671 4.2523e-05 -7.12055e-26)
(0.00547373 4.93987e-05 3.27175e-25)
(0.00569392 6.05086e-05 3.43739e-25)
(0.00593293 7.42412e-05 4.49997e-26)
(0.00619503 8.62611e-05 1.94013e-25)
(0.00646099 8.64106e-05 -5.40174e-25)
(0.00669801 6.85532e-05 1.60885e-24)
(0.00689486 3.37185e-05 -2.53499e-24)
(0.00705122 -1.54244e-05 1.45724e-24)
(0.00716809 -7.59363e-05 -3.25586e-24)
(0.00724707 -0.000145117 4.367e-24)
(0.0072894 -0.000220228 -3.66741e-24)
(0.00729589 -0.000298112 5.4636e-25)
(0.00726707 -0.000374844 7.56822e-25)
(0.00720349 -0.000445576 3.03436e-24)
(0.00710615 -0.000504551 -7.2952e-25)
(0.0069767 -0.000545231 3.06497e-24)
(0.00681767 -0.000560429 -9.04368e-24)
(0.00663254 -0.000542354 1.60913e-23)
(0.00642601 -0.000482495 -1.11381e-23)
(0.00620434 -0.000371253 1.66898e-23)
(0.00597635 -0.000197295 -3.19616e-23)
(0.00575534 5.321e-05 1.21942e-23)
(0.00556171 0.000394387 4.23882e-24)
(0.00542689 0.000831883 6.59518e-24)
(0.00538509 0.00132866 -8.18968e-24)
(0.00545882 0.00175402 2.26829e-24)
(0.00561601 0.00179144 -1.36115e-24)
(0.00370213 -0.000310587 -9.91884e-25)
(0.00368446 -0.000330617 -1.51348e-24)
(0.00369447 -0.000312622 -6.46687e-24)
(0.00374203 -0.000272916 1.78296e-24)
(0.00382413 -0.000222615 1.18304e-24)
(0.00393099 -0.000173295 5.10046e-24)
(0.00405575 -0.000129588 -1.0652e-23)
(0.00419301 -9.31716e-05 4.07113e-24)
(0.00433912 -6.41669e-05 1.35207e-23)
(0.00449164 -4.19603e-05 -3.59746e-24)
(0.00464897 -2.56563e-05 -3.36898e-24)
(0.00481012 -1.42595e-05 -5.35396e-25)
(0.00497455 -6.73867e-06 1.75118e-24)
(0.00514203 -2.03319e-06 -3.41779e-24)
(0.0053127 9.72817e-07 7.91429e-25)
(0.005487 3.47495e-06 -2.74797e-25)
(0.005666 6.75364e-06 -1.6197e-24)
(0.00585126 1.21305e-05 6.30982e-25)
(0.0060456 2.06534e-05 2.79804e-24)
(0.00625245 3.27977e-05 -3.296e-25)
(0.00647694 4.70669e-05 -6.22675e-25)
(0.00672299 5.94705e-05 -1.70517e-25)
(0.00697295 6.04238e-05 -9.52394e-25)
(0.00719648 4.42984e-05 -5.42209e-26)
(0.00738301 1.21863e-05 -2.24782e-24)
(0.00753202 -3.3341e-05 3.88674e-24)
(0.00764415 -8.93963e-05 -3.25635e-24)
(0.0077206 -0.000153241 6.18397e-24)
(0.00776238 -0.000222027 -5.03919e-24)
(0.00777023 -0.000292475 1.27331e-24)
(0.00774474 -0.000360591 1.72673e-24)
(0.00768674 -0.000421538 -1.83589e-25)
(0.00759758 -0.000469681 -2.95911e-25)
(0.00747946 -0.000498722 -1.06135e-24)
(0.00733558 -0.000501863 1.32259e-24)
(0.00717037 -0.000471912 -5.00308e-24)
(0.00698976 -0.000401309 2.3614e-23)
(0.00680169 -0.000282074 -1.25306e-23)
(0.00661708 -0.00010581 -4.35775e-25)
(0.00645154 0.000136038 -2.83011e-23)
(0.00632733 0.000449611 2.1442e-23)
(0.00627489 0.000830611 -7.72272e-24)
(0.00632387 0.00124111 1.96888e-24)
(0.00647928 0.0015798 9.46801e-24)
(0.00669356 0.00165469 -2.22683e-24)
(0.00488978 -0.000285113 -4.09882e-24)