/*--------------------------------*- C++ -*----------------------------------*\
| =========                 |                                                 |
| \\      /  F ield         | OpenFOAM: The Open Source CFD Toolbox           |
|  \\    /   O peration     | Version:  2312                                  |
|   \\  /    A nd           | Website:  www.openfoam.com                      |
|    \\/     M anipulation  |                                                 |
\*---------------------------------------------------------------------------*/
FoamFile
{
    version     2.0;
    format      ascii;
    arch        "LSB;label=32;scalar=64";
    class       surfaceScalarField;
    location    "194.25";
    object      phi;
}
// * * * * * * * * * * * * * * * * * * * * * * * * * * * * * * * * * * * * * //

dimensions      [0 3 -1 0 0 0 0];

oriented        oriented;

internalField   nonuniform List<scalar> 
9445
(
5.76834e-10
1.53769e-11
5.67086e-10
9.74797e-12
5.61004e-10
6.08254e-12
5.57443e-10
3.56091e-12
5.55727e-10
1.71576e-12
5.55474e-10
2.52884e-13
5.56496e-10
-1.0215e-12
5.58582e-10
-2.08677e-12
5.61919e-10
-3.33675e-12
5.66878e-10
-4.95915e-12
5.74507e-10
-7.62917e-12
5.88284e-10
-1.37767e-11
6.204e-10
-3.21161e-11
7.13372e-10
-9.29718e-11
-2.40075e-10
9.53447e-10
2.01359e-09
6.73751e-11
1.98052e-09
4.28183e-11
1.95977e-09
2.68341e-11
1.94746e-09
1.58763e-11
1.94128e-09
7.89366e-12
1.93992e-09
1.61233e-12
1.94254e-09
-3.64167e-12
1.9486e-09
-8.14208e-12
1.9586e-09
-1.33421e-11
1.97357e-09
-1.99275e-11
1.99619e-09
-3.02468e-11
2.03309e-09
-5.06808e-11
2.09721e-09
-9.62316e-11
2.20064e-09
-1.96409e-10
-3.48499e-10
2.30907e-09
3.97448e-09
1.6674e-10
3.91111e-09
1.06187e-10
3.87114e-09
6.68032e-11
3.84715e-09
3.98746e-11
3.83467e-09
2.03706e-11
3.83114e-09
5.13895e-12
3.83476e-09
-7.26198e-12
3.84451e-09
-1.78901e-11
3.86105e-09
-2.98779e-11
3.88546e-09
-4.43417e-11
3.92036e-09
-6.51471e-11
3.97019e-09
-1.00513e-10
4.03759e-09
-1.63633e-10
4.10929e-09
-2.68109e-10
-3.89587e-10
4.15038e-09
6.60436e-09
3.2564e-10
6.50258e-09
2.07969e-10
6.43793e-09
1.31453e-10
6.39856e-09
7.92454e-11
6.37726e-09
4.16695e-11
6.36981e-09
1.25877e-11
6.37314e-09
-1.05921e-11
6.38544e-09
-3.01894e-11
6.40701e-09
-5.14435e-11
6.4382e-09
-7.55351e-11
6.47985e-09
-1.06793e-10
6.53159e-09
-1.52261e-10
6.58719e-09
-2.19232e-10
6.62755e-09
-3.08461e-10
-3.9394e-10
6.6319e-09
1.00792e-08
5.56678e-10
9.93025e-09
3.56965e-10
9.83472e-09
2.2698e-10
9.77557e-09
1.38399e-10
9.7422e-09
7.50327e-11
9.72824e-09
2.65497e-11
9.72906e-09
-1.14085e-11
9.74189e-09
-4.302e-11
9.76564e-09
-7.51972e-11
9.79935e-09
-1.09242e-10
9.84134e-09
-1.48788e-10
9.88715e-09
-1.9807e-10
9.92671e-09
-2.58788e-10
9.94403e-09
-3.25785e-10
-3.80243e-10
9.93034e-09
1.46081e-08
8.70514e-10
1.44037e-08
5.61382e-10
1.42711e-08
3.59621e-10
1.41874e-08
2.2211e-10
1.41382e-08
1.24242e-10
1.41143e-08
5.03948e-11
1.41096e-08
-6.66659e-12
1.41199e-08
-5.33533e-11
1.4142e-08
-9.72893e-11
1.41732e-08
-1.40451e-10
1.42097e-08
-1.85307e-10
1.4245e-08
-2.3335e-10
1.42694e-08
-2.83146e-10
1.42726e-08
-3.29021e-10
-3.60499e-10
1.42528e-08
2.04314e-08
1.27121e-09
2.01667e-08
8.26145e-10
1.99922e-08
5.34035e-10
1.98798e-08
3.34517e-10
1.98111e-08
1.92986e-10
1.97739e-08
8.76151e-11
1.97601e-08
7.14452e-12
1.97638e-08
-5.71273e-11
1.97799e-08
-1.13388e-10
1.98039e-08
-1.64417e-10
1.98305e-08
-2.11919e-10
1.98532e-08
-2.56002e-10
1.98647e-08
-2.94699e-10
1.98601e-08
-3.24354e-10
-3.40588e-10
1.98401e-08
2.78141e-08
1.7488e-09
2.74921e-08
1.14821e-09
2.72759e-08
7.50257e-10
2.71333e-08
4.77095e-10
2.70428e-08
2.83466e-10
2.69896e-08
1.40854e-10
2.69634e-08
3.32709e-11
2.69569e-08
-5.05602e-11
2.6963e-08
-1.19487e-10
2.69759e-08
-1.77355e-10
2.699e-08
-2.25995e-10
2.69997e-08
-2.65712e-10
2.70007e-08
-2.95675e-10
2.6991e-08
-3.14718e-10
-3.22072e-10
2.69725e-08
3.70347e-08
2.27047e-09
3.66726e-08
1.5103e-09
3.64237e-08
9.99221e-10
3.62553e-08
6.45411e-10
3.61448e-08
3.94012e-10
3.60755e-08
2.10158e-10
3.60358e-08
7.30093e-11
3.60166e-08
-3.14311e-11
3.60103e-08
-1.13138e-10
3.60103e-08
-1.7735e-10
3.60113e-08
-2.26967e-10
3.60091e-08
-2.63575e-10
3.60015e-08
-2.88073e-10
3.59881e-08
-3.01352e-10
-3.04569e-10
3.59706e-08
4.83777e-08
2.77709e-09
4.80117e-08
1.87627e-09
4.77523e-08
1.25858e-09
4.75721e-08
8.25626e-10
4.74499e-08
5.1622e-10
4.73694e-08
2.9061e-10
4.73187e-08
1.2379e-10
4.72881e-08
-8.3728e-13
4.72699e-08
-9.49435e-11
4.72579e-08
-1.65355e-10
4.72476e-08
-2.16685e-10
4.72362e-08
-2.52183e-10
4.72225e-08
-2.74375e-10
4.72067e-08
-2.85572e-10
-2.87922e-10
4.71901e-08
6.21525e-08
3.19732e-09
6.18324e-08
2.19637e-09
6.15969e-08
1.49401e-09
6.14284e-08
9.94131e-10
6.13108e-08
6.33901e-10
6.12303e-08
3.71073e-10
6.11762e-08
1.77862e-10
6.11399e-08
3.54963e-11
6.11146e-08
-6.96465e-11
6.10951e-08
-1.45907e-10
6.10782e-08
-1.99763e-10
6.1062e-08
-2.3598e-10
6.10459e-08
-2.583e-10
6.10303e-08
-2.69911e-10
-2.73452e-10
6.10158e-08
7.87639e-08
3.48535e-09
7.85306e-08
2.42975e-09
7.83518e-08
1.67276e-09
7.82202e-08
1.12579e-09
7.8126e-08
7.28085e-10
7.80598e-08
4.37238e-10
7.80136e-08
2.24107e-10
7.79807e-08
6.83639e-11
7.79563e-08
-4.52451e-11
7.79367e-08
-1.26359e-10
7.792e-08
-1.82996e-10
7.7905e-08
-2.21002e-10
7.78916e-08
-2.44887e-10
7.788e-08
-2.5831e-10
-2.64135e-10
7.78707e-08
9.88104e-08
3.65441e-09
9.86665e-08
2.57371e-09
9.85528e-08
1.7864e-09
9.84677e-08
1.21094e-09
9.84061e-08
7.8963e-10
9.83624e-08
4.80966e-10
9.83314e-08
2.55124e-10
9.83092e-08
9.05855e-11
9.82924e-08
-2.84665e-11
9.82793e-08
-1.13237e-10
9.82687e-08
-1.72471e-10
9.82604e-08
-2.12682e-10
9.82543e-08
-2.38805e-10
9.82507e-08
-2.54698e-10
-2.63292e-10
9.82499e-08
1.23083e-07
3.75675e-09
1.22994e-07
2.66279e-09
1.22923e-07
1.8577e-09
1.22869e-07
1.2648e-09
1.2283e-07
8.2879e-10
1.22802e-07
5.08858e-10
1.22782e-07
2.74879e-10
1.22768e-07
1.04342e-10
1.22759e-07
-1.88677e-11
1.22752e-07
-1.06932e-10
1.22749e-07
-1.69062e-10
1.22748e-07
-2.12077e-10
1.22751e-07
-2.41109e-10
1.22756e-07
-2.60075e-10
-2.71903e-10
1.22765e-07
1.52355e-07
3.82197e-09
1.52291e-07
2.72638e-09
1.52236e-07
1.91307e-09
1.52191e-07
1.31001e-09
1.52155e-07
8.64415e-10
1.52128e-07
5.36188e-10
1.52107e-07
2.95518e-10
1.52092e-07
1.19401e-10
1.52082e-07
-8.84516e-12
1.52077e-07
-1.01355e-10
1.52075e-07
-1.67719e-10
1.52078e-07
-2.14907e-10
1.52085e-07
-2.48112e-10
1.52096e-07
-2.71254e-10
-2.87233e-10
1.52112e-07
1.87098e-07
3.83497e-09
1.87064e-07
2.7596e-09
1.87024e-07
1.95376e-09
1.86983e-07
1.3509e-09
1.86945e-07
9.02217e-10
1.86912e-07
5.6929e-10
1.86884e-07
3.23168e-10
1.86862e-07
1.41489e-10
1.86846e-07
7.29049e-12
1.86836e-07
-9.14614e-11
1.86832e-07
-1.6369e-10
1.86834e-07
-2.16674e-10
1.86841e-07
-2.55603e-10
1.86854e-07
-2.84358e-10
-3.05759e-10
1.86873e-07
2.27351e-07
3.76914e-09
2.27369e-07
2.74156e-09
2.27359e-07
1.96362e-09
2.27335e-07
1.37545e-09
2.27304e-07
9.32834e-10
2.27272e-07
6.01179e-10
2.27243e-07
3.52664e-10
2.27217e-07
1.672e-10
2.27197e-07
2.73633e-11
2.27184e-07
-7.86218e-11
2.27178e-07
-1.57634e-10
2.27179e-07
-2.17482e-10
2.27187e-07
-2.63291e-10
2.27201e-07
-2.98846e-10
-3.2688e-10
2.27222e-07
2.72637e-07
3.61305e-09
2.72719e-07
2.66025e-09
2.72751e-07
1.93069e-09
2.72755e-07
1.37218e-09
2.72741e-07
9.46566e-10
2.72719e-07
6.22839e-10
2.72695e-07
3.7691e-10
2.72673e-07
1.89556e-10
2.72653e-07
4.69308e-11
2.72642e-07
-6.74178e-11
2.72638e-07
-1.53421e-10
2.72641e-07
-2.20722e-10
2.72652e-07
-2.7424e-10
2.72671e-07
-3.17503e-10
-3.53079e-10
2.72697e-07
3.2159e-07
3.36302e-09
3.2174e-07
2.51e-09
3.21823e-07
1.84809e-09
3.21861e-07
1.33397e-09
3.21871e-07
9.36375e-10
3.21865e-07
6.29175e-10
3.21851e-07
3.90461e-10
3.21836e-07
2.0523e-10
3.21822e-07
6.0272e-11
3.21816e-07
-6.10388e-11
3.21817e-07
-1.54987e-10
3.21827e-07
-2.30646e-10
3.21846e-07
-2.92841e-10
3.21873e-07
-3.44874e-10
-3.88816e-10
3.21909e-07
3.71217e-07
3.00768e-09
3.7145e-07
2.27673e-09
3.71598e-07
1.70046e-09
3.71686e-07
1.24544e-09
3.71736e-07
8.87213e-10
3.7176e-07
6.04707e-10
3.71768e-07
3.82102e-10
3.7177e-07
2.03432e-10
3.71772e-07
5.87562e-11
3.71773e-07
-6.22002e-11
3.71778e-07
-1.60037e-10
3.71788e-07
-2.41053e-10
3.71805e-07
-3.09714e-10
3.71829e-07
-3.69009e-10
-4.21e-10
3.71861e-07
3.69104e-07
2.60959e-09
3.6938e-07
2.00054e-09
3.69568e-07
1.51206e-09
3.69694e-07
1.1193e-09
3.69778e-07
8.03978e-10
3.69832e-07
5.50072e-10
3.6987e-07
3.44329e-10
3.69896e-07
1.77086e-10
3.69913e-07
4.21373e-11
3.69932e-07
-8.09883e-11
3.69951e-07
-1.79299e-10
3.69974e-07
-2.64059e-10
3.70002e-07
-3.3805e-10
3.70037e-07
-4.03354e-10
-4.61582e-10
3.70077e-07
3.16765e-07
2.227e-09
3.17033e-07
1.73266e-09
3.17217e-07
1.32794e-09
3.17339e-07
9.97141e-10
3.17417e-07
7.2632e-10
3.17463e-07
5.03542e-10
3.17488e-07
3.19165e-10
3.17501e-07
1.63976e-10
3.17512e-07
3.1334e-11
3.17515e-07
-8.37946e-11
3.17519e-07
-1.83044e-10
3.17524e-07
-2.69628e-10
3.17533e-07
-3.46481e-10
3.17545e-07
-4.15672e-10
-4.78582e-10
3.17562e-07
2.6554e-07
1.86745e-09
2.65806e-07
1.46643e-09
2.66002e-07
1.13262e-09
2.66143e-07
8.55425e-10
2.66246e-07
6.24024e-10
2.66319e-07
4.29881e-10
2.66373e-07
2.65722e-10
2.66411e-07
1.25303e-10
2.6644e-07
2.77513e-12
2.6646e-07
-1.04177e-10
2.66476e-07
-1.98815e-10
2.6649e-07
-2.83452e-10
2.66503e-07
-3.59799e-10
2.66517e-07
-4.29408e-10
-4.93373e-10
2.66532e-07
2.19127e-07
1.53924e-09
2.19377e-07
1.21643e-09
2.19566e-07
9.43652e-10
2.19708e-07
7.13311e-10
2.19814e-07
5.17927e-10
2.19893e-07
3.5111e-10
2.19951e-07
2.07386e-10
2.19994e-07
8.22665e-11
2.20025e-07
-2.8244e-11
2.20048e-07
-1.26676e-10
2.20064e-07
-2.15249e-10
2.20076e-07
-2.95585e-10
2.20085e-07
-3.68947e-10
2.20092e-07
-4.36423e-10
-4.98855e-10
2.20098e-07
1.7849e-07
1.24412e-09
1.78719e-07
9.87309e-10
1.78896e-07
7.6717e-10
1.79031e-07
5.78475e-10
1.79133e-07
4.1586e-10
1.79209e-07
2.74582e-10
1.79266e-07
1.5085e-10
1.79307e-07
4.12372e-11
1.79335e-07
-5.6741e-11
1.79354e-07
-1.45465e-10
1.79365e-07
-2.26242e-10
1.7937e-07
-3.00241e-10
1.79369e-07
-3.68397e-10
1.79364e-07
-4.31484e-10
-4.90101e-10
1.79356e-07
1.4377e-07
9.86211e-10
1.43972e-07
7.84729e-10
1.4413e-07
6.09659e-10
1.44251e-07
4.57399e-10
1.44343e-07
3.24111e-10
1.44411e-07
2.06273e-10
1.4446e-07
1.0153e-10
1.44494e-07
7.54473e-12
1.44515e-07
-7.7579e-11
1.44525e-07
-1.5553e-10
1.44526e-07
-2.27151e-10
1.44519e-07
-2.93292e-10
1.44505e-07
-3.54595e-10
1.44485e-07
-4.11578e-10
-4.64629e-10
1.4446e-07
1.14625e-07
7.68113e-10
1.14798e-07
6.1243e-10
1.14932e-07
4.75361e-10
1.15035e-07
3.54359e-10
1.15112e-07
2.46757e-10
1.15168e-07
1.50428e-10
1.15207e-07
6.31809e-11
1.1523e-07
-1.54146e-11
1.1524e-07
-8.78121e-11
1.15239e-07
-1.54571e-10
1.15228e-07
-2.16398e-10
1.15209e-07
-2.73845e-10
1.15181e-07
-3.27316e-10
1.15147e-07
-3.77139e-10
-4.2355e-10
1.15106e-07
9.04936e-08
5.88947e-10
9.06355e-08
4.7057e-10
9.07459e-08
3.64963e-10
9.08298e-08
2.70422e-10
9.08914e-08
1.85145e-10
9.09342e-08
1.07624e-10
9.09605e-08
3.68834e-11
9.09729e-08
-2.77979e-11
9.09729e-08
-8.78226e-11
9.0962e-08
-1.43613e-10
9.09412e-08
-1.95598e-10
9.09114e-08
-2.44113e-10
9.08735e-08
-2.89402e-10
9.0828e-08
-3.31661e-10
-3.71022e-10
9.07755e-08
7.07368e-08
4.44919e-10
7.08509e-08
3.5647e-10
7.09393e-08
2.76568e-10
7.10057e-08
2.04044e-10
7.10531e-08
1.37717e-10
7.1084e-08
7.67295e-11
7.11005e-08
2.04006e-11
7.11042e-08
-3.15044e-11
7.10965e-08
-8.01027e-11
7.10784e-08
-1.25552e-10
7.10509e-08
-1.68109e-10
7.10148e-08
-2.07964e-10
7.09706e-08
-2.45252e-10
7.09191e-08
-2.80077e-10
-3.12501e-10
7.08605e-08
5.47207e-08
3.30937e-10
5.4811e-08
2.66155e-10
5.48806e-08
2.06926e-10
5.49323e-08
1.52417e-10
5.4968e-08
1.01939e-10
5.49897e-08
5.50441e-11
5.49989e-08
1.12253e-11
5.49968e-08
-2.93808e-11
5.49844e-08
-6.77266e-11
5.49626e-08
-1.03773e-10
5.49322e-08
-1.37662e-10
5.48937e-08
-1.69493e-10
5.48478e-08
-1.99327e-10
5.47949e-08
-2.27213e-10
-2.53165e-10
5.47356e-08
4.18517e-08
2.41815e-10
4.19224e-08
1.95458e-10
4.19767e-08
1.52583e-10
4.20166e-08
1.12577e-10
4.20434e-08
7.51045e-11
4.20585e-08
3.99401e-11
4.20629e-08
6.83287e-12
4.20576e-08
-2.41101e-11
4.20434e-08
-5.35077e-11
4.20209e-08
-8.12745e-11
4.19907e-08
-1.07469e-10
4.19534e-08
-1.32138e-10
4.19094e-08
-1.55299e-10
4.18591e-08
-1.76963e-10
-1.97121e-10
4.18031e-08
3.15964e-08
1.7287e-10
3.16513e-08
1.40604e-10
3.16935e-08
1.10428e-10
3.17241e-08
8.18858e-11
3.17444e-08
5.48724e-11
3.1755e-08
2.93006e-11
3.17568e-08
5.05731e-12
3.17504e-08
-1.77631e-11
3.17365e-08
-3.95959e-11
3.17156e-08
-6.02935e-11
3.1688e-08
-7.98761e-11
3.16542e-08
-9.83638e-11
3.16146e-08
-1.15752e-10
3.15697e-08
-1.32031e-10
-1.47181e-10
3.15198e-08
2.34891e-08
1.2013e-10
2.35313e-08
9.84152e-11
2.35639e-08
7.78953e-11
2.35875e-08
5.82291e-11
2.36029e-08
3.94438e-11
2.36107e-08
2.15147e-11
2.36114e-08
4.41763e-12
2.36054e-08
-1.17599e-11
2.35931e-08
-2.73833e-11
2.35751e-08
-4.22307e-11
2.35515e-08
-5.63088e-11
2.35228e-08
-6.96339e-11
2.34892e-08
-8.21909e-11
2.34512e-08
-9.396e-11
-1.04918e-10
2.34089e-08
1.71315e-08
8.03432e-11
1.71636e-08
6.63374e-11
1.71885e-08
5.29806e-11
1.72067e-08
4.00205e-11
1.72186e-08
2.75403e-11
1.72246e-08
1.55289e-11
1.7225e-08
4.02232e-12
1.72201e-08
-6.89287e-12
1.72103e-08
-1.75702e-11
1.71958e-08
-2.7735e-11
1.71769e-08
-3.73806e-11
1.71538e-08
-4.65365e-11
1.71268e-08
-5.51839e-11
1.70961e-08
-6.32996e-11
-7.08608e-11
1.70621e-08
1.21881e-08
5.09138e-11
1.22121e-08
4.23715e-11
1.22309e-08
3.41711e-11
1.22448e-08
2.61255e-11
1.2254e-08
1.83236e-11
1.22588e-08
1.07522e-11
1.22594e-08
3.44975e-12
1.22559e-08
-3.44746e-12
1.22487e-08
-1.03088e-11
1.22378e-08
-1.68638e-11
1.22235e-08
-2.30718e-11
1.22059e-08
-2.89847e-11
1.21853e-08
-3.45836e-11
1.21619e-08
-3.98463e-11
-4.47522e-11
1.21358e-08
8.37972e-09
2.97862e-11
8.39712e-09
2.4969e-11
8.41096e-09
2.03384e-11
8.42133e-09
1.57525e-11
8.42837e-09
1.12785e-11
8.43222e-09
6.90407e-12
8.43303e-09
2.63787e-12
8.43095e-09
-1.36024e-12
8.42603e-09
-5.38919e-12
8.41843e-09
-9.27007e-12
8.4083e-09
-1.29369e-11
8.39575e-09
-1.64394e-11
8.38094e-09
-1.97652e-11
8.36399e-09
-2.28965e-11
-2.58153e-11
8.34505e-09
5.47581e-09
1.53296e-11
5.48786e-09
1.29202e-11
5.49757e-09
1.06281e-11
5.50498e-09
8.34207e-12
5.51016e-09
6.09868e-12
5.51318e-09
3.8892e-12
5.51411e-09
1.70644e-12
5.51308e-09
-3.31142e-13
5.51008e-09
-2.39217e-12
5.50521e-09
-4.40031e-12
5.49857e-09
-6.29902e-12
5.49025e-09
-8.11516e-12
5.48033e-09
-9.84514e-12
5.46891e-09
-1.14763e-11
-1.29936e-11
5.45609e-09
3.28773e-09
6.23249e-12
3.29539e-09
5.2569e-12
3.30165e-09
4.36605e-12
3.30652e-09
3.47409e-12
3.31003e-09
2.59096e-12
3.3122e-09
1.71453e-12
3.31307e-09
8.36592e-13
3.31273e-09
1.48703e-14
3.31115e-09
-8.11603e-13
3.30838e-09
-1.62804e-12
3.30448e-09
-2.40273e-12
3.29951e-09
-3.1447e-12
3.29352e-09
-3.85341e-12
3.28656e-09
-4.52172e-12
-5.13809e-12
3.27871e-09
1.66214e-09
1.42015e-12
1.66622e-09
1.17719e-12
1.66959e-09
9.8859e-13
1.67227e-09
7.99544e-13
1.67425e-09
6.06268e-13
1.67555e-09
4.13293e-13
1.67618e-09
2.15386e-13
1.67616e-09
2.98446e-14
1.67551e-09
-1.55538e-13
1.67422e-09
-3.41224e-13
1.67233e-09
-5.17431e-13
1.66988e-09
-6.8861e-13
1.66687e-09
-8.50697e-13
1.66336e-09
-1.00311e-12
-1.1381e-12
1.65936e-09
4.75295e-10
4.76472e-10
4.77461e-10
4.7826e-10
4.78866e-10
4.7928e-10
4.79495e-10
4.79525e-10
4.79369e-10
4.79028e-10
4.78511e-10
4.77822e-10
4.76971e-10
4.75968e-10
4.7483e-10
1.14016e-09
-4.52861e-10
2.66144e-10
1.40824e-09
-3.68795e-10
1.0072e-10
1.679e-09
-2.15793e-10
-5.49667e-11
1.94668e-09
-5.3291e-11
-2.14389e-10
2.20976e-09
1.15281e-10
-3.78359e-10
2.46929e-09
2.84064e-10
-5.43599e-10
2.72699e-09
4.52427e-10
-7.1012e-10
2.98422e-09
6.20073e-10
-8.77309e-10
3.24208e-09
7.86401e-10
-1.04426e-09
3.50139e-09
9.50462e-10
-1.20977e-09
3.76283e-09
1.11091e-09
-1.37236e-09
4.02705e-09
1.26626e-09
-1.53049e-09
4.29477e-09
1.41484e-09
-1.68255e-09
4.56689e-09
1.55448e-09
-1.8266e-09
4.84462e-09
1.68249e-09
-1.96023e-09
5.12966e-09
1.79567e-09
-2.0807e-09
5.42434e-09
1.89037e-09
-2.18505e-09
5.7321e-09
1.96262e-09
-2.27038e-09
6.05763e-09
2.00572e-09
-2.33124e-09
6.40677e-09
2.00565e-09
-2.35479e-09
6.78486e-09
1.9178e-09
-2.29588e-09
7.19215e-09
1.64053e-09
-2.04782e-09
7.55767e-09
8.65286e-10
-1.23081e-09
7.85194e-09
-5.74664e-11
-2.36797e-10
8.07505e-09
-9.42645e-10
7.19536e-10
8.23047e-09
-1.73332e-09
1.5779e-09
8.32364e-09
-2.40055e-09
2.30737e-09
8.36063e-09
-2.93788e-09
2.90089e-09
8.34679e-09
-3.34452e-09
3.35837e-09
8.28638e-09
-3.62135e-09
3.68176e-09
8.183e-09
-3.77062e-09
3.874e-09
8.03993e-09
-3.79406e-09
3.93713e-09
7.86036e-09
-3.69325e-09
3.87282e-09
7.64744e-09
-3.47075e-09
3.68366e-09
7.4042e-09
-3.13075e-09
3.37399e-09
7.13332e-09
-2.67894e-09
2.94982e-09
6.837e-09
-2.12145e-09
2.41776e-09
6.51701e-09
-1.46287e-09
1.78285e-09
6.17482e-09
-7.03534e-10
1.04573e-09
5.81056e-09
1.61971e-10
2.02293e-10
5.41967e-09
1.13743e-09
-7.46549e-10
4.98493e-09
2.19809e-09
-1.76335e-09
4.47524e-09
3.21944e-09
-2.70975e-09
3.89083e-09
3.89532e-09
-3.31092e-09
3.4386e-09
3.53595e-09
-3.08372e-09
2.38211e-09
-5.25901e-10
2.54195e-09
-5.28636e-10
2.75997e-09
-4.33811e-10
3.00459e-09
-2.97911e-10
3.26262e-09
-1.42755e-10
3.52743e-09
1.92511e-11
3.79665e-09
1.83209e-10
4.06951e-09
3.47211e-10
4.34592e-09
5.09997e-10
4.62603e-09
6.7035e-10
4.91017e-09
8.26773e-10
5.19877e-09
9.77664e-10
5.4924e-09
1.12121e-09
5.79188e-09
1.25499e-09
6.0984e-09
1.37598e-09
6.41357e-09
1.4805e-09
6.73971e-09
1.56423e-09
7.08017e-09
1.62216e-09
7.43956e-09
1.64633e-09
7.82362e-09
1.62158e-09
8.23751e-09
1.50391e-09
8.68118e-09
1.19686e-09
9.07812e-09
4.68339e-10
9.39739e-09
-3.76736e-10
9.63967e-09
-1.18492e-09
9.80878e-09
-1.90242e-09
9.91049e-09
-2.50226e-09
9.95139e-09
-2.97878e-09
9.93737e-09
-3.33051e-09
9.87329e-09
-3.55727e-09
9.76335e-09
-3.66069e-09
9.61158e-09
-3.64229e-09
9.42204e-09
-3.50371e-09
9.19897e-09
-3.24768e-09
8.94678e-09
-2.87856e-09
8.67001e-09
-2.40217e-09
8.37349e-09
-1.82492e-09
8.06288e-09
-1.15226e-09
7.74601e-09
-3.86661e-10
7.43452e-09
4.73454e-10
7.14521e-09
1.42675e-09
6.89934e-09
2.44396e-09
6.72478e-09
3.39401e-09
6.64813e-09
3.97197e-09
3.53511e-09
6.55162e-09
4.16279e-09
-5.38305e-10
4.23324e-09
-5.99094e-10
4.37351e-09
-5.74079e-10
4.56639e-09
-4.90793e-10
4.79313e-09
-3.69488e-10
5.04188e-09
-2.295e-10
5.30584e-09
-8.07488e-11
5.58116e-09
7.18866e-11
5.86572e-09
2.25439e-10
6.15839e-09
3.77678e-10
6.45869e-09
5.26478e-10
6.7665e-09
6.69852e-10
7.08203e-09
8.05676e-10
7.40585e-09
9.31166e-10
7.73895e-09
1.04289e-09
8.08278e-09
1.13666e-09
8.43949e-09
1.20752e-09
8.81222e-09
1.24942e-09
9.20531e-09
1.25324e-09
9.62418e-09
1.20272e-09
1.00736e-08
1.05453e-09
1.05528e-08
7.17621e-10
1.098e-08
4.10994e-11
1.13231e-08
-7.19772e-10
1.15833e-08
-1.44518e-09
1.1765e-08
-2.08407e-09
1.18742e-08
-2.61144e-09
1.1918e-08
-3.0226e-09
1.1903e-08
-3.31551e-09
1.18347e-08
-3.48896e-09
1.1718e-08
-3.54402e-09
1.15579e-08
-3.48218e-09
1.13595e-08
-3.30532e-09
1.11284e-08
-3.01657e-09
1.08707e-08
-2.62087e-09
1.05932e-08
-2.12471e-09
1.0304e-08
-1.53567e-09
1.00131e-08
-8.61373e-10
9.73523e-09
-1.0878e-10
9.49287e-09
7.15814e-10
9.32005e-09
1.59957e-09
9.26058e-09
2.50343e-09
9.3476e-09
3.30699e-09
9.55225e-09
3.76733e-09
3.45218e-09
9.63517e-09
6.60949e-09
-5.15894e-10
6.61903e-09
-6.08637e-10
6.68189e-09
-6.36936e-10
6.8047e-09
-6.13609e-10
6.97672e-09
-5.415e-10
7.18568e-09
-4.38465e-10
7.42292e-09
-3.17985e-10
7.68212e-09
-1.87317e-10
7.95902e-09
-5.14615e-11
8.25088e-09
8.58175e-11
8.55606e-09
2.21297e-10
8.87362e-09
3.52301e-10
9.20311e-09
4.76177e-10
9.54468e-09
5.896e-10
9.89893e-09
6.8864e-10
1.0267e-08
7.68573e-10
1.06507e-08
8.23796e-10
1.10529e-08
8.47288e-10
1.14772e-08
8.2887e-10
1.19287e-08
7.51292e-10
1.24111e-08
5.72063e-10
1.2923e-08
2.0573e-10
1.33775e-08
-4.1334e-10
1.37413e-08
-1.08361e-09
1.40168e-08
-1.72068e-09
1.42086e-08
-2.27582e-09
1.4323e-08
-2.72587e-09
1.43678e-08
-3.06743e-09
1.43503e-08
-3.29801e-09
1.42768e-08
-3.41539e-09
1.4153e-08
-3.42022e-09
1.39849e-08
-3.31411e-09
1.3779e-08
-3.0994e-09
1.35424e-08
-2.77998e-09
1.32832e-08
-2.36171e-09
1.30109e-08
-1.85237e-09
1.27367e-08
-1.26145e-09
1.24751e-08
-5.99834e-10
1.22464e-08
1.19956e-10
1.20797e-08
8.82497e-10
1.20156e-08
1.66364e-09
1.21002e-08
2.41889e-09
1.2355e-08
3.05215e-09
1.2723e-08
3.39935e-09
3.23462e-09
1.29405e-08
9.89252e-09
-4.78079e-10
9.86415e-09
-5.80267e-10
9.86853e-09
-6.41311e-10
9.91937e-09
-6.64451e-10
1.00228e-08
-6.44882e-10
1.01723e-08
-5.88019e-10
1.0361e-08
-5.06668e-10
1.05825e-08
-4.08793e-10
1.08315e-08
-3.00497e-10
1.11042e-08
-1.86866e-10
1.13978e-08
-7.23388e-11
1.17105e-08
3.95806e-11
1.20412e-08
1.45557e-10
1.23892e-08
2.41555e-10
1.27548e-08
3.23051e-10
1.31386e-08
3.84748e-10
1.3542e-08
4.20432e-10
1.39671e-08
4.22179e-10
1.4417e-08
3.78922e-10
1.48957e-08
2.72626e-10
1.54059e-08
6.18541e-11
1.59446e-08
-3.32981e-10
1.64206e-08
-8.89318e-10
1.68001e-08
-1.46307e-09
1.70862e-08
-2.00682e-09
1.72839e-08
-2.47356e-09
1.74e-08
-2.84192e-09
1.74427e-08
-3.11017e-09
1.74203e-08
-3.27558e-09
1.73398e-08
-3.33489e-09
1.7208e-08
-3.28847e-09
1.70322e-08
-3.13826e-09
1.68201e-08
-2.88735e-09
1.65808e-08
-2.54064e-09
1.63244e-08
-2.10531e-09
1.60629e-08
-1.59086e-09
1.58106e-08
-1.0092e-09
1.55856e-08
-3.74762e-10
1.54107e-08
2.94764e-10
1.53164e-08
9.76833e-10
1.53392e-08
1.64082e-09
1.55143e-08
2.24383e-09
1.58477e-08
2.71872e-09
1.62744e-08
2.97271e-09
2.90829e-09
1.66007e-08
1.42122e-08
-4.37464e-10
1.41653e-08
-5.3329e-10
1.4134e-08
-6.10087e-10
1.413e-08
-6.60455e-10
1.41672e-08
-6.82024e-10
1.4249e-08
-6.69795e-10
1.4374e-08
-6.31706e-10
1.45388e-08
-5.73641e-10
1.47395e-08
-5.01135e-10
1.49723e-08
-4.19649e-10
1.52343e-08
-3.34376e-10
1.55232e-08
-2.49349e-10
1.58373e-08
-1.68523e-10
1.61756e-08
-9.67043e-11
1.65376e-08
-3.90255e-11
1.69237e-08
-1.33365e-12
1.73345e-08
9.62605e-12
1.77716e-08
-1.48438e-11
1.82369e-08
-8.64582e-11
1.87333e-08
-2.23732e-10
1.92619e-08
-4.66727e-10
1.98176e-08
-8.88759e-10
2.03061e-08
-1.37777e-09
2.06931e-08
-1.85007e-09
2.09828e-08
-2.29647e-09
2.11802e-08
-2.67098e-09
2.12923e-08
-2.95402e-09
2.13283e-08
-3.14614e-09
2.12972e-08
-3.24455e-09
2.12072e-08
-3.24488e-09
2.10661e-08
-3.14733e-09
2.08823e-08
-2.95447e-09
2.06653e-08
-2.67035e-09
2.04258e-08
-2.30114e-09
2.0176e-08
-1.85558e-09
1.99303e-08
-1.3451e-09
1.97051e-08
-7.83983e-10
1.952e-08
-1.89707e-10
1.9398e-08
4.16794e-10
1.93652e-08
1.00964e-09
1.9448e-08
1.55797e-09
1.96657e-08
2.02615e-09
2.00118e-08
2.37261e-09
2.04307e-08
2.55377e-09
2.53639e-09
2.08027e-08
1.98036e-08
-4.00952e-10
1.97548e-08
-4.84462e-10
1.97068e-08
-5.62035e-10
1.96718e-08
-6.25501e-10
1.96604e-08
-6.70644e-10
1.9683e-08
-6.92408e-10
1.97437e-08
-6.92333e-10
1.98436e-08
-6.73606e-10
1.99822e-08
-6.39737e-10
2.0158e-08
-5.95444e-10
2.03694e-08
-5.45796e-10
2.06146e-08
-4.94558e-10
2.08921e-08
-4.45956e-10
2.12008e-08
-4.05421e-10
2.15403e-08
-3.78522e-10
2.19105e-08
-3.71494e-10
2.23115e-08
-3.91434e-10
2.27443e-08
-4.47595e-10
2.32098e-08
-5.51987e-10
2.37092e-08
-7.23169e-10
2.42419e-08
-9.99386e-10
2.48002e-08
-1.44706e-09
2.52879e-08
-1.86552e-09
2.5671e-08
-2.23316e-09
2.59542e-08
-2.57962e-09
2.61425e-08
-2.85928e-09
2.62429e-08
-3.0544e-09
2.62655e-08
-3.16878e-09
2.62207e-08
-3.19978e-09
2.61175e-08
-3.14164e-09
2.59647e-08
-2.99455e-09
2.57722e-08
-2.76194e-09
2.55509e-08
-2.44907e-09
2.53133e-08
-2.0635e-09
2.50733e-08
-1.61557e-09
2.48466e-08
-1.11842e-09
2.46507e-08
-5.88137e-10
2.4505e-08
-4.40038e-11
2.44292e-08
4.92591e-10
2.44427e-08
9.96224e-10
2.45599e-08
1.44072e-09
2.47858e-08
1.80029e-09
2.51063e-08
2.05209e-09
2.54798e-08
2.18022e-09
2.18016e-09
2.58361e-08
2.6942e-08
-3.70491e-10
2.68993e-08
-4.41713e-10
2.68505e-08
-5.13202e-10
2.6804e-08
-5.79037e-10
2.67681e-08
-6.34793e-10
2.67524e-08
-6.76658e-10
2.67636e-08
-7.03502e-10
2.68064e-08
-7.16455e-10
2.68836e-08
-7.16919e-10
2.69969e-08
-7.08774e-10
2.71474e-08
-6.96256e-10
2.73347e-08
-6.81908e-10
2.75587e-08
-6.69896e-10
2.78192e-08
-6.65981e-10
2.81165e-08
-6.75767e-10
2.84505e-08
-7.05552e-10
2.88216e-08
-7.6246e-10
2.92299e-08
-8.55963e-10
2.96758e-08
-9.97881e-10
3.01589e-08
-1.20622e-09
3.06763e-08
-1.51683e-09
3.12176e-08
-1.98835e-09
3.16872e-08
-2.33513e-09
3.20514e-08
-2.59735e-09
3.23151e-08
-2.84335e-09
3.24829e-08
-3.02702e-09
3.25615e-08
-3.13298e-09
3.25624e-08
-3.16975e-09
3.24975e-08
-3.13481e-09
3.23763e-08
-3.02045e-09
3.22088e-08
-2.82706e-09
3.20061e-08
-2.55922e-09
3.17805e-08
-2.22349e-09
3.15458e-08
-1.82881e-09
3.13171e-08
-1.38685e-09
3.11106e-08
-9.11919e-10
3.09433e-08
-4.20852e-10
3.08318e-08
6.74363e-11
3.07918e-08
5.32631e-10
3.08344e-08
9.53608e-10
3.09644e-08
1.3107e-09
3.11771e-08
1.58765e-09
3.14552e-08
1.77392e-09
3.17685e-08
1.867e-09
1.87308e-09
3.20755e-08
3.59452e-08
-3.45097e-10
3.59101e-08
-4.06559e-10
3.58678e-08
-4.7086e-10
3.58229e-08
-5.34216e-10
3.57814e-08
-5.93216e-10
3.57497e-08
-6.44966e-10
3.57342e-08
-6.87989e-10
3.57403e-08
-7.22633e-10
3.5772e-08
-7.48578e-10
3.58336e-08
-7.70355e-10
3.59281e-08
-7.9077e-10
3.60569e-08
-8.10725e-10
3.62217e-08
-8.34728e-10
3.64243e-08
-8.68585e-10
3.66661e-08
-9.17482e-10
3.69479e-08
-9.87441e-10
3.72707e-08
-1.08522e-09
3.76349e-08
-1.22012e-09
3.80401e-08
-1.40317e-09
3.8485e-08
-1.6511e-09
3.89649e-08
-1.99667e-09
3.9466e-08
-2.48951e-09
3.98968e-08
-2.76591e-09
4.02245e-08
-2.92507e-09
4.04538e-08
-3.07259e-09
4.05875e-08
-3.16078e-09
4.06326e-08
-3.17802e-09
4.06025e-08
-3.13964e-09
4.05102e-08
-3.04255e-09
4.03659e-08
-2.8761e-09
4.01802e-08
-2.64136e-09
3.99653e-08
-2.34436e-09
3.97347e-08
-1.99292e-09
3.9503e-08
-1.5971e-09
3.92855e-08
-1.16932e-09
3.90978e-08
-7.24182e-10
3.89548e-08
-2.77904e-10
3.88698e-08
1.52479e-10
3.88526e-08
5.49777e-10
3.8908e-08
8.98235e-10
3.90339e-08
1.18482e-09
3.92207e-08
1.40083e-09
3.94515e-08
1.54308e-09
3.97039e-08
1.61466e-09
1.62429e-09
3.99527e-08
4.71686e-08
-3.23615e-10
4.71402e-08
-3.78153e-10
4.71059e-08
-4.36593e-10
4.70684e-08
-4.96687e-10
4.70313e-08
-5.56119e-10
4.69991e-08
-6.1273e-10
4.69763e-08
-6.65272e-10
4.69681e-08
-7.14385e-10
4.6977e-08
-7.57519e-10
4.70091e-08
-8.02426e-10
4.70667e-08
-8.48379e-10
4.71519e-08
-8.9592e-10
4.72683e-08
-9.51074e-10
4.74188e-08
-1.01908e-09
4.76059e-08
-1.1046e-09
4.78318e-08
-1.21337e-09
4.80981e-08
-1.35156e-09
4.8406e-08
-1.52802e-09
4.87553e-08
-1.75242e-09
4.91437e-08
-2.03956e-09
4.95655e-08
-2.41841e-09
5.00041e-08
-2.9281e-09
5.03755e-08
-3.13733e-09
5.06492e-08
-3.19881e-09
5.08288e-08
-3.25219e-09
5.09148e-08
-3.2467e-09
5.09145e-08
-3.17773e-09
5.0845e-08
-3.07012e-09
5.07194e-08
-2.91704e-09
5.05475e-08
-2.70419e-09
5.03407e-08
-2.43455e-09
5.01121e-08
-2.11575e-09
4.98758e-08
-1.75661e-09
4.96464e-08
-1.36772e-09
4.94386e-08
-9.61537e-10
4.92663e-08
-5.5183e-10
4.91414e-08
-1.52996e-10
4.90729e-08
2.20934e-10
4.90658e-08
5.56876e-10
4.91198e-08
8.44215e-10
4.92292e-08
1.07543e-09
4.93831e-08
1.24699e-09
4.95665e-08
1.35964e-09
4.97628e-08
1.41835e-09
1.43132e-09
4.99558e-08
6.09987e-08
-3.06534e-10
6.09772e-08
-3.56589e-10
6.09516e-08
-4.11054e-10
6.09237e-08
-4.68757e-10
6.08958e-08
-5.28227e-10
6.08713e-08
-5.88189e-10
6.08531e-08
-6.47111e-10
6.0846e-08
-7.07242e-10
6.08524e-08
-7.63999e-10
6.08758e-08
-8.25786e-10
6.09183e-08
-8.90914e-10
6.09833e-08
-9.60875e-10
6.10737e-08
-1.04154e-09
6.11925e-08
-1.13782e-09
6.1342e-08
-1.25412e-09
6.15248e-08
-1.39616e-09
6.17428e-08
-1.56956e-09
6.19976e-08
-1.78277e-09
6.22889e-08
-2.04374e-09
6.26144e-08
-2.36505e-09
6.29673e-08
-2.77132e-09
6.33287e-08
-3.28953e-09
6.36264e-08
-3.43502e-09
6.38336e-08
-3.40605e-09
6.39517e-08
-3.37021e-09
6.39779e-08
-3.27297e-09
6.39244e-08
-3.12425e-09
6.38123e-08
-2.95796e-09
6.36512e-08
-2.75599e-09
6.345e-08
-2.50295e-09
6.32213e-08
-2.20591e-09
6.29791e-08
-1.87349e-09
6.27374e-08
-1.51488e-09
6.25101e-08
-1.14048e-09
6.23104e-08
-7.6182e-10
6.21495e-08
-3.90896e-10
6.20358e-08
-3.93708e-11
6.19746e-08
2.82149e-10
6.19668e-08
5.64705e-10
6.20091e-08
8.01947e-10
6.20942e-08
9.90332e-10
6.22117e-08
1.12943e-09
6.23496e-08
1.2218e-09
6.24953e-08
1.27259e-09
1.28869e-09
6.2638e-08
7.78604e-08
-2.96287e-10
7.78478e-08
-3.43937e-10
7.7833e-08
-3.96312e-10
7.78172e-08
-4.52969e-10
7.78022e-08
-5.13136e-10
7.77904e-08
-5.7642e-10
7.7785e-08
-6.41773e-10
7.7788e-08
-7.10224e-10
7.78034e-08
-7.79358e-10
7.78306e-08
-8.52985e-10
7.78745e-08
-9.34838e-10
7.79396e-08
-1.02595e-09
7.80268e-08
-1.12876e-09
7.81373e-08
-1.2483e-09
7.82729e-08
-1.3897e-09
7.84354e-08
-1.5587e-09
7.8626e-08
-1.76016e-09
7.88456e-08
-2.00237e-09
7.9093e-08
-2.29116e-09
7.93652e-08
-2.6372e-09
7.96543e-08
-3.06042e-09
7.99385e-08
-3.57375e-09
8.01611e-08
-3.65765e-09
8.02994e-08
-3.54436e-09
8.03492e-08
-3.42005e-09
8.03097e-08
-3.23339e-09
8.02096e-08
-3.02415e-09
8.0061e-08
-2.8094e-09
7.98663e-08
-2.56127e-09
7.96384e-08
-2.27504e-09
7.93914e-08
-1.95889e-09
7.91391e-08
-1.62128e-09
7.88952e-08
-1.27092e-09
7.8672e-08
-9.17255e-10
7.84802e-08
-5.70073e-10
7.83282e-08
-2.38859e-10
7.8221e-08
6.78428e-11
7.81605e-08
3.42567e-10
7.81452e-08
5.80045e-10
7.81701e-08
7.77039e-10
7.82279e-08
9.32563e-10
7.83095e-08
1.04784e-09
7.84053e-08
1.12601e-09
7.85061e-08
1.17175e-09
1.19057e-09
7.86042e-08
9.82495e-08
-2.95891e-10
9.82485e-08
-3.42987e-10
9.82473e-08
-3.95061e-10
9.82465e-08
-4.52137e-10
9.82473e-08
-5.14021e-10
9.82516e-08
-5.80666e-10
9.82615e-08
-6.51647e-10
9.82788e-08
-7.27556e-10
9.83084e-08
-8.09007e-10
9.8352e-08
-8.9654e-10
9.84103e-08
-9.93122e-10
9.84858e-08
-1.10143e-09
9.8581e-08
-1.224e-09
9.86973e-08
-1.36459e-09
9.88354e-08
-1.52784e-09
9.89962e-08
-1.71943e-09
9.91792e-08
-1.94323e-09
9.93841e-08
-2.20724e-09
9.96077e-08
-2.51476e-09
9.98453e-08
-2.87478e-09
1.00087e-07
-3.30249e-09
1.00307e-07
-3.79381e-09
1.00468e-07
-3.81873e-09
1.00542e-07
-3.61823e-09
1.00524e-07
-3.40209e-09
1.00439e-07
-3.14822e-09
1.0031e-07
-2.89522e-09
1.00132e-07
-2.63126e-09
9.9912e-08
-2.34111e-09
9.96667e-08
-2.02969e-09
9.94108e-08
-1.70301e-09
9.91576e-08
-1.36807e-09
9.8919e-08
-1.03237e-09
9.87055e-08
-7.03702e-10
9.8525e-08
-3.89567e-10
9.83827e-08
-9.65683e-11
9.82811e-08