/*--------------------------------*- C++ -*----------------------------------*\
| =========                 |                                                 |
| \\      /  F ield         | OpenFOAM: The Open Source CFD Toolbox           |
|  \\    /   O peration     | Version:  2312                                  |
|   \\  /    A nd           | Website:  www.openfoam.com                      |
|    \\/     M anipulation  |                                                 |
\*---------------------------------------------------------------------------*/
FoamFile
{
    version     2.0;
    format      ascii;
    arch        "LSB;label=32;scalar=64";
    class       volScalarField;
    location    "175.25";
    object      p;
}
// * * * * * * * * * * * * * * * * * * * * * * * * * * * * * * * * * * * * * //

dimensions      [0 2 -2 0 0 0 0];

internalField   nonuniform List<scalar> 
4800
(
-1.53365e-11
-1.06559e-06
-1.92909e-06
-2.65252e-06
-3.26813e-06
-3.81198e-06
-4.2921e-06
-4.7187e-06
-5.10349e-06
-5.45365e-06
-5.774e-06
-6.0649e-06
-6.31858e-06
-6.77364e-06
-8.37918e-06
1.23825e-08
-1.05263e-06
-1.91586e-06
-2.6395e-06
-3.25593e-06
-3.80127e-06
-4.2837e-06
-4.71367e-06
-5.10374e-06
-5.463e-06
-5.80097e-06
-6.13127e-06
-6.46619e-06
-6.91213e-06
-7.70867e-06
2.52555e-08
-1.03897e-06
-1.90192e-06
-2.62593e-06
-3.24231e-06
-3.78844e-06
-4.27273e-06
-4.70535e-06
-5.0995e-06
-5.46511e-06
-5.81281e-06
-6.15669e-06
-6.50307e-06
-6.85742e-06
-7.19199e-06
3.81187e-08
-1.02472e-06
-1.88686e-06
-2.61084e-06
-3.2267e-06
-3.77259e-06
-4.25795e-06
-4.69173e-06
-5.08702e-06
-5.4532e-06
-5.79811e-06
-6.12711e-06
-6.43029e-06
-6.67415e-06
-6.78636e-06
5.22662e-08
-1.00848e-06
-1.86914e-06
-2.59218e-06
-3.20777e-06
-3.75147e-06
-4.23647e-06
-4.66931e-06
-5.06168e-06
-5.42109e-06
-5.75039e-06
-6.04531e-06
-6.28512e-06
-6.42981e-06
-6.42336e-06
6.9173e-08
-9.88733e-07
-1.84716e-06
-2.56811e-06
-3.18324e-06
-3.72277e-06
-4.20476e-06
-4.63339e-06
-5.01752e-06
-5.36173e-06
-5.66379e-06
-5.91311e-06
-6.08718e-06
-6.15543e-06
-6.0893e-06
9.12673e-08
-9.63127e-07
-1.81843e-06
-2.53605e-06
-3.14879e-06
-3.68326e-06
-4.15856e-06
-4.57819e-06
-4.94774e-06
-5.26848e-06
-5.53476e-06
-5.73448e-06
-5.85022e-06
-5.86592e-06
-5.77414e-06
1.22788e-07
-9.27659e-07
-1.77892e-06
-2.49184e-06
-3.09946e-06
-3.62725e-06
-4.09179e-06
-4.49688e-06
-4.84538e-06
-5.13609e-06
-5.36262e-06
-5.51549e-06
-5.58525e-06
-5.56835e-06
-5.46899e-06
1.70314e-07
-8.76143e-07
-1.72247e-06
-2.42917e-06
-3.02916e-06
-3.54696e-06
-3.99645e-06
-4.38172e-06
-4.70386e-06
-4.961e-06
-5.14852e-06
-5.26178e-06
-5.29889e-06
-5.26432e-06
-5.16711e-06
2.42822e-07
-7.99988e-07
-1.64061e-06
-2.33947e-06
-2.93024e-06
-3.43338e-06
-3.86369e-06
-4.22483e-06
-4.51753e-06
-4.74105e-06
-4.89405e-06
-4.97697e-06
-4.99337e-06
-4.95179e-06
-4.86228e-06
3.51143e-07
-6.88502e-07
-1.52265e-06
-2.21187e-06
-2.78959e-06
-3.27613e-06
-3.68426e-06
-4.01883e-06
-4.28185e-06
-4.47489e-06
-4.6002e-06
-4.66221e-06
-4.66767e-06
-4.62645e-06
-4.54793e-06
5.07368e-07
-5.29412e-07
-1.35622e-06
-2.0342e-06
-2.59661e-06
-3.06437e-06
-3.44909e-06
-3.75727e-06
-3.99323e-06
-4.1613e-06
-4.26672e-06
-4.31645e-06
-4.3186e-06
-4.28285e-06
-4.21732e-06
7.25145e-07
-3.08722e-07
-1.12721e-06
-1.793e-06
-2.33873e-06
-2.78722e-06
-3.14966e-06
-3.43441e-06
-3.64839e-06
-3.79846e-06
-3.89189e-06
-3.93683e-06
-3.94158e-06
-3.91496e-06
-3.86379e-06
1.0207e-06
-9.86132e-09
-8.19096e-07
-1.46974e-06
-2.00191e-06
-2.43321e-06
-2.77705e-06
-3.04389e-06
-3.24288e-06
-3.3827e-06
-3.47174e-06
-3.51843e-06
-3.53065e-06
-3.51616e-06
-3.48063e-06
1.41328e-06
3.87128e-07
-4.13531e-07
-1.05239e-06
-1.57114e-06
-1.98927e-06
-2.32058e-06
-2.57703e-06
-2.76929e-06
-2.90705e-06
-2.99907e-06
-3.05358e-06
-3.0778e-06
-3.07847e-06
-3.06036e-06
1.92355e-06
9.04492e-07
1.11682e-07
-5.19367e-07
-1.02986e-06
-1.44093e-06
-1.76755e-06
-2.02255e-06
-2.21721e-06
-2.36142e-06
-2.46385e-06
-2.53226e-06
-2.57324e-06
-2.59268e-06
-2.59475e-06
2.56986e-06
1.56138e-06
7.75857e-07
1.47304e-07
-3.6228e-07
-7.74592e-07
-1.10571e-06
-1.36908e-06
-1.57587e-06
-1.73555e-06
-1.85626e-06
-1.94523e-06
-2.00849e-06
-2.0513e-06
-2.07746e-06
3.36416e-06
2.37063e-06
1.5898e-06
9.57744e-07
4.41325e-07
1.91833e-08
-3.26084e-07
-6.08125e-07
-8.37353e-07
-1.02228e-06
-1.17026e-06
-1.28786e-06
-1.38061e-06
-1.45324e-06
-1.50929e-06
4.30601e-06
3.33198e-06
2.555e-06
1.91435e-06
1.38499e-06
9.44789e-07
5.75754e-07
2.65039e-07
3.43992e-09
-2.16423e-07
-4.01034e-07
-5.56255e-07
-6.87121e-07
-7.97905e-07
-8.91943e-07
5.36546e-06
4.43776e-06
3.65957e-06
3.00827e-06
2.46027e-06
1.99425e-06
1.59342e-06
1.24619e-06
9.44444e-07
6.81746e-07
4.5236e-07
2.51114e-07
7.35254e-08
-8.4198e-08
-2.25243e-07
6.42015e-06
5.52663e-06
4.76202e-06
4.10452e-06
3.53587e-06
3.03854e-06
2.59918e-06
2.20862e-06
1.86005e-06
1.5478e-06
1.26683e-06
1.01275e-06
7.81702e-07
5.70433e-07
3.76099e-07
7.32116e-06
6.45576e-06
5.70176e-06
5.0417e-06
4.4558e-06
3.9304e-06
3.45639e-06
3.02686e-06
2.63593e-06
2.2785e-06
1.95017e-06
1.64721e-06
1.36637e-06
1.10493e-06
8.60429e-07
7.98123e-06
7.15487e-06
6.41887e-06
5.75898e-06
5.1613e-06
4.61616e-06
4.11668e-06
3.65718e-06
3.23254e-06
2.83834e-06
2.47084e-06
2.12694e-06
1.80396e-06
1.49963e-06
1.21191e-06
8.46167e-06
7.67256e-06
6.95453e-06
6.29794e-06
5.69431e-06
5.13667e-06
4.61928e-06
4.13721e-06
3.68618e-06
3.26256e-06
2.86332e-06
2.48593e-06
2.12819e-06
1.78831e-06
1.46461e-06
8.80173e-06
8.04416e-06
7.34373e-06
6.69405e-06
6.08952e-06
5.52482e-06
4.99518e-06
4.49652e-06
4.0254e-06
3.57896e-06
3.15476e-06
2.75078e-06
2.36527e-06
1.9968e-06
1.64407e-06
9.03402e-06
8.30454e-06
7.62186e-06
6.98147e-06
6.37935e-06
5.81138e-06
5.27379e-06
4.76337e-06
4.27741e-06
3.81368e-06
3.37025e-06
2.94556e-06
2.53825e-06
2.14723e-06
1.77147e-06
9.18862e-06
8.48465e-06
7.81912e-06
7.18884e-06
6.59091e-06
6.02221e-06
5.47983e-06
4.96128e-06
4.4645e-06
3.98778e-06
3.52965e-06
3.08893e-06
2.66461e-06
2.2559e-06
1.86204e-06
9.2894e-06
8.60826e-06
7.95857e-06
7.33832e-06
6.74548e-06
6.17764e-06
5.63259e-06
5.10851e-06
4.60384e-06
4.11733e-06
3.64791e-06
3.19475e-06
2.75712e-06
2.33451e-06
1.9264e-06
9.35382e-06
8.69276e-06
8.05738e-06
7.44667e-06
6.85917e-06
6.29304e-06
5.74667e-06
5.21877e-06
4.70825e-06
4.21425e-06
3.73605e-06
3.27309e-06
2.82493e-06
2.39129e-06
1.97186e-06
9.39422e-06
8.7507e-06
8.1281e-06
7.52617e-06
6.94382e-06
6.3797e-06
5.83276e-06
5.30215e-06
4.78718e-06
4.28729e-06
3.80208e-06
3.33125e-06
2.87461e-06
2.43206e-06
2.00347e-06
9.41914e-06
8.79088e-06
8.17958e-06
7.58551e-06
7.00786e-06
6.44577e-06
5.89864e-06
5.366e-06
4.84747e-06
4.34281e-06
3.85185e-06
3.37455e-06
2.9109e-06
2.461e-06
2.02488e-06
9.43437e-06
8.81937e-06
8.21797e-06
7.63078e-06
7.05729e-06
6.49708e-06
5.94991e-06
5.41562e-06
4.89413e-06
4.38545e-06
3.88966e-06
3.40689e-06
2.93733e-06
2.48122e-06
2.03875e-06
9.44372e-06
8.84023e-06
8.24745e-06
7.66622e-06
7.09633e-06
6.53775e-06
5.99055e-06
5.45483e-06
4.93078e-06
4.41863e-06
3.91864e-06
3.43115e-06
2.95649e-06
2.49505e-06
2.04712e-06
9.44962e-06
8.85616e-06
8.27084e-06
7.69472e-06
7.12791e-06
6.5707e-06
6.02341e-06
5.4864e-06
4.96005e-06
4.44481e-06
3.94112e-06
3.44947e-06
2.97033e-06
2.50421e-06
2.05153e-06
9.45361e-06
8.86889e-06
8.28999e-06
7.71826e-06
7.15406e-06
6.59796e-06
6.0505e-06
5.51225e-06
4.98381e-06
4.46578e-06
3.95877e-06
3.46341e-06
2.98029e-06
2.51003e-06
2.05313e-06
9.45662e-06
8.87944e-06
8.3061e-06
7.73812e-06
7.17613e-06
6.6209e-06
6.07319e-06
5.53377e-06
5.00339e-06
4.48282e-06
3.97281e-06
3.47411e-06
2.98742e-06
2.51345e-06
2.05281e-06
9.45908e-06
8.88844e-06
8.3199e-06
7.75512e-06
7.19497e-06
6.64042e-06
6.0924e-06
5.55185e-06
5.01969e-06
4.4968e-06
3.98408e-06
3.48237e-06
2.99247e-06
2.5152e-06
2.05122e-06
9.4613e-06
8.89638e-06
8.33199e-06
7.76995e-06
7.21135e-06
6.65731e-06
6.10895e-06
5.56733e-06
5.03351e-06
4.50851e-06
3.9933e-06
3.48885e-06
2.99604e-06
2.51576e-06
2.04875e-06
9.46354e-06
8.9039e-06
8.34329e-06
7.78373e-06
7.2265e-06
6.67288e-06
6.12412e-06
5.58143e-06
5.04598e-06
4.51892e-06
4.00132e-06
3.49422e-06
2.9986e-06
2.51542e-06
2.04551e-06
9.46582e-06
8.91119e-06
8.35416e-06
7.79693e-06
7.2409e-06
6.68754e-06
6.13826e-06
5.59441e-06
5.05729e-06
4.52817e-06
4.00824e-06
3.49863e-06
3.0004e-06
2.51458e-06
2.04197e-06
-9.59694e-06
-7.22766e-06
-5.78885e-06
-4.82785e-06
-4.06935e-06
-3.49762e-06
-3.06424e-06
-2.73552e-06
-2.48752e-06
-2.30015e-06
-2.15582e-06
-2.03829e-06
-1.93189e-06
-1.82152e-06
-1.69241e-06
-1.53182e-06
-1.33003e-06
-1.08731e-06
-8.16109e-07
-5.51517e-07
-3.52713e-07
-2.91268e-07
-4.01576e-07
-5.75606e-07
-6.74505e-07
-6.17067e-07
-3.58771e-07
1.1912e-07
8.29094e-07
1.77325e-06
2.95314e-06
4.35926e-06
5.97103e-06
7.762e-06
9.69174e-06
1.1711e-05
1.3762e-05
1.57778e-05
1.76791e-05
1.93661e-05
2.06982e-05
2.14759e-05
2.1264e-05
1.96895e-05
1.5221e-05
-7.97829e-06
-6.71374e-06
-5.60949e-06
-4.74701e-06
-4.03286e-06
-3.47572e-06
-3.04739e-06
-2.72074e-06
-2.47406e-06
-2.28802e-06
-2.14521e-06
-2.02932e-06
-1.92457e-06
-1.81578e-06
-1.68823e-06
-1.52923e-06
-1.32914e-06
-1.08823e-06
-8.18594e-07
-5.5429e-07
-3.52889e-07
-2.83857e-07
-3.81429e-07
-5.4113e-07
-6.27387e-07
-5.60291e-07
-2.95917e-07
1.84437e-07
8.93034e-07
1.83128e-06
2.99971e-06
4.38683e-06
5.96931e-06
7.7184e-06
9.59016e-06
1.15307e-05
1.34753e-05
1.53469e-05
1.70499e-05
1.84557e-05
1.93694e-05
1.94799e-05
1.8172e-05
1.471e-05
7.94342e-06
-7.13326e-06
-6.32101e-06
-5.42575e-06
-4.65309e-06
-3.98822e-06
-3.45135e-06
-3.03094e-06
-2.70746e-06
-2.46224e-06
-2.27727e-06
-2.13557e-06
-2.02086e-06
-1.91731e-06
-1.80971e-06
-1.6834e-06
-1.52578e-06
-1.32733e-06
-1.08836e-06
-8.20499e-07
-5.56727e-07
-3.52778e-07
-2.75657e-07
-3.59275e-07
-5.03082e-07
-5.75304e-07
-4.97578e-07
-2.26805e-07
2.55556e-07
9.61316e-07
1.89105e-06
3.04389e-06
4.40597e-06
5.95033e-06
7.64541e-06
9.44294e-06
1.12832e-05
1.30937e-05
1.47859e-05
1.62478e-05
1.73275e-05
1.77999e-05
1.73275e-05
1.53709e-05
1.15198e-05
5.55777e-06
-6.60659e-06
-6.00473e-06
-5.27336e-06
-4.57138e-06
-3.95334e-06
-3.4375e-06
-3.02456e-06
-2.70299e-06
-2.45755e-06
-2.27191e-06
-2.12974e-06
-2.0149e-06
-1.9115e-06
-1.8043e-06
-1.67868e-06
-1.5221e-06
-1.32517e-06
-1.08815e-06
-8.22218e-07
-5.5908e-07
-3.52489e-07
-2.66696e-07
-3.35123e-07
-4.61428e-07
-5.1801e-07
-4.28169e-07
-1.49892e-07
3.35053e-07
1.03776e-06
1.95745e-06
3.09196e-06
4.42409e-06
5.9223e-06
7.55167e-06
9.25883e-06
1.09775e-05
1.26271e-05
1.41088e-05
1.52984e-05
1.6034e-05
1.6096e-05
1.52003e-05
1.29979e-05
9.30113e-06
4.35568e-06
-6.20519e-06
-5.73206e-06
-5.12848e-06
-4.51006e-06
-3.93501e-06
-3.43959e-06
-3.03313e-06
-2.71144e-06
-2.46317e-06
-2.27415e-06
-2.12906e-06
-2.01198e-06
-1.90703e-06
-1.79893e-06
-1.67313e-06
-1.51712e-06
-1.32156e-06
-1.08669e-06
-8.231e-07
-5.60995e-07
-3.5192e-07
-2.56981e-07
-3.08922e-07
-4.16087e-07
-4.55602e-07
-3.52554e-07
-6.63832e-08
4.20729e-07
1.11871e-06
2.02426e-06
3.13645e-06
4.4311e-06
5.87261e-06
7.4225e-06
9.02204e-06
1.05987e-05
1.2065e-05
1.33153e-05
1.42221e-05
1.46301e-05
1.43539e-05
1.31947e-05
1.09797e-05
7.69833e-06
3.66423e-06
-5.87364e-06
-5.49009e-06
-4.98742e-06
-4.45343e-06
-3.92964e-06
-3.45675e-06
-3.0578e-06
-2.73505e-06
-2.4817e-06
-2.28645e-06
-2.13551e-06
-2.01351e-06
-1.9047e-06
-1.7939e-06
-1.66664e-06
-1.51042e-06
-1.31599e-06
-1.08343e-06
-8.22716e-07
-5.62205e-07
-3.5099e-07
-2.46561e-07
-2.8075e-07
-3.67148e-07
-3.8831e-07
-2.71215e-07
2.28148e-08
5.11167e-07
1.20051e-06
2.0872e-06
3.17218e-06
4.41937e-06
5.79173e-06
7.24685e-06
8.72104e-06
1.01367e-05
1.14025e-05
1.24115e-05
1.30427e-05
1.31622e-05
1.26337e-05
1.13445e-05
9.2471e-06
6.43432e-06
3.19148e-06
-5.57682e-06
-5.26262e-06
-4.84905e-06
-4.38524e-06
-3.92047e-06
-3.481e-06
-3.09422e-06
-2.7721e-06
-2.5131e-06
-2.30972e-06
-2.15041e-06
-2.02072e-06
-1.90544e-06
-1.78975e-06
-1.65941e-06
-1.50197e-06
-1.30823e-06
-1.07814e-06
-8.20865e-07
-5.62607e-07
-3.49747e-07
-2.35628e-07
-2.50886e-07
-3.14961e-07
-3.16692e-07
-1.84938e-07
1.16659e-07
6.04071e-07
1.27764e-06
2.14556e-06
3.19441e-06
4.38191e-06
5.67158e-06
7.01607e-06
8.3479e-06
9.58674e-06
1.06411e-05
1.14107e-05
1.17884e-05
1.16712e-05
1.09735e-05
9.65179e-06
7.73139e-06
5.33729e-06
2.69685e-06
-5.29399e-06
-5.03493e-06
-4.6965e-06
-4.30457e-06
-3.89377e-06
-3.49648e-06
-3.13167e-06
-2.81545e-06
-2.55268e-06
-2.3414e-06
-2.17266e-06
-2.03323e-06
-1.90914e-06
-1.78642e-06
-1.65132e-06
-1.49155e-06
-1.29806e-06
-1.0706e-06
-8.17461e-07
-5.62258e-07
-3.48454e-07
-2.24657e-07
-2.19967e-07
-2.60305e-07
-2.42002e-07
-9.51608e-08
2.12687e-07
6.9177e-07
1.35104e-06
2.19612e-06
3.19457e-06
4.30945e-06
5.50258e-06
6.72099e-06
7.89557e-06
8.94686e-06
9.78796e-06
1.033e-05
1.04871e-05
1.01889e-05
9.39308e-06
8.10193e-06
6.37444e-06
4.33168e-06
2.14456e-06
-5.01443e-06
-4.7999e-06
-4.52331e-06
-4.19751e-06
-3.84469e-06
-3.49011e-06
-3.15485e-06
-2.85342e-06
-2.59121e-06
-2.37489e-06
-2.19807e-06
-2.04831e-06
-1.91399e-06
-1.78268e-06
-1.64152e-06
-1.4786e-06
-1.28511e-06
-1.06067e-06
-8.12612e-07
-5.61478e-07
-3.47755e-07
-2.14611e-07
-1.89243e-07
-2.04633e-07
-1.66163e-07
-4.5411e-09
3.03668e-07
7.73764e-07
1.4202e-06
2.226e-06
3.16096e-06
4.19138e-06
5.27373e-06
6.35201e-06
7.35809e-06
8.21663e-06
8.85107e-06
9.18707e-06
9.16233e-06
8.7357e-06
7.89654e-06
6.67243e-06
5.13165e-06
3.37789e-06
1.53623e-06
-4.73097e-06
-4.55321e-06
-4.32734e-06
-4.05915e-06
-3.76194e-06
-3.45368e-06
-3.1524e-06
-2.87066e-06
-2.61704e-06
-2.40154e-06
-2.21985e-06
-2.06081e-06
-1.91628e-06
-1.77599e-06
-1.62837e-06
-1.46211e-06
-1.26894e-06
-1.04839e-06
-8.06857e-07
-5.61022e-07
-3.48897e-07
-2.07236e-07
-1.60957e-07
-1.50815e-07
-8.9818e-08
7.93236e-08
3.85764e-07
8.50561e-07
1.46833e-06
2.22107e-06
3.08249e-06
4.01546e-06
4.97322e-06
5.89979e-06
6.73124e-06
7.39945e-06
7.84063e-06
7.99801e-06
7.83086e-06
7.32095e-06
6.47728e-06
5.33803e-06
3.96794e-06
2.45034e-06
8.76008e-07
-4.43699e-06
-4.29048e-06
-4.10663e-06
-3.88766e-06
-3.64097e-06
-3.37851e-06
-3.11432e-06
-2.85668e-06
-2.62027e-06
-2.41105e-06
-2.22796e-06
-2.06338e-06
-1.91074e-06
-1.76276e-06
-1.60961e-06
-1.44091e-06
-1.2492e-06
-1.03406e-06
-8.01274e-07
-5.62661e-07
-3.54071e-07
-2.05437e-07
-1.38835e-07
-1.0426e-07
-2.23148e-08
1.52929e-07
4.5831e-07
9.03898e-07
1.48105e-06
2.17113e-06
2.94659e-06
3.76839e-06
4.58939e-06
5.35618e-06
6.01155e-06
6.49923e-06
6.76706e-06
6.77577e-06
6.50275e-06
5.94535e-06
5.12264e-06
4.07417e-06
2.85569e-06
1.53184e-06
1.68595e-07
-4.12591e-06
-4.00671e-06
-3.8584e-06
-3.6814e-06
-3.47946e-06
-3.26004e-06
-3.0328e-06
-2.80564e-06
-2.5899e-06
-2.39325e-06
-2.21381e-06
-2.04771e-06
-1.89154e-06
-1.73928e-06
-1.58309e-06
-1.41429e-06
-1.22641e-06
-1.01903e-06
-7.96242e-07
-5.70116e-07
-3.67159e-07
-2.1377e-07
-1.28626e-07
-7.10593e-08
2.67281e-08
2.09288e-07
5.05239e-07
9.20679e-07
1.44631e-06
2.06194e-06
2.73837e-06
3.43669e-06
4.11202e-06
4.71631e-06
5.20165e-06
5.52223e-06
5.64e-06
5.53012e-06
5.18288e-06
4.60481e-06
3.81844e-06
2.85977e-06
1.77423e-06
6.10951e-07
-5.81914e-07
-3.79132e-06
-3.69676e-06
-3.57929e-06
-3.43858e-06
-3.27626e-06
-3.09674e-06
-2.90644e-06
-2.71259e-06
-2.52205e-06
-2.34105e-06
-2.17057e-06
-2.00943e-06
-1.85505e-06
-1.70314e-06
-1.54796e-06
-1.38288e-06
-1.20235e-06
-1.00594e-06
-7.96632e-07
-5.87228e-07
-3.93324e-07
-2.3884e-07
-1.38559e-07
-6.12602e-08
4.857e-08
2.31666e-07
5.09582e-07
8.85065e-07
1.34746e-06
1.87644e-06
2.44241e-06
3.00835e-06
3.53414e-06
3.9796e-06
4.30559e-06
4.47758e-06
4.47023e-06
4.26957e-06
3.87406e-06
3.29451e-06
2.55284e-06
1.67947e-06
7.10076e-07
-3.18481e-07
-1.37091e-06
-3.42702e-06
-3.35549e-06
-3.2658e-06
-3.15738e-06
-3.0307e-06
-2.88824e-06
-2.73414e-06
-2.57339e-06
-2.41098e-06
-2.25114e-06
-2.09595e-06
-1.94592e-06
-1.7996e-06
-1.65399e-06
-1.50536e-06
-1.34916e-06
-1.18108e-06
-1.00032e-06
-8.10263e-07
-6.19259e-07
-4.39919e-07
-2.89726e-07
-1.79789e-07
-8.80757e-08
2.79917e-08
2.02805e-07
4.53021e-07
7.78397e-07
1.16619e-06
1.59755e-06
2.04525e-06
2.47503e-06
2.85498e-06
3.15117e-06
3.33344e-06
3.37843e-06
3.27073e-06
3.0038e-06
2.58055e-06
2.01272e-06
1.31954e-06
5.25417e-07
-3.4238e-07
-1.25647e-06
-2.19093e-06
-3.02642e-06
-2.97766e-06
-2.91431e-06
-2.83587e-06
-2.74227e-06
-2.63476e-06
-2.51583e-06
-2.38875e-06
-2.25693e-06
-2.12344e-06
-1.9902e-06
-1.85792e-06
-1.72645e-06
-1.59447e-06
-1.45982e-06
-1.31916e-06
-1.16946e-06
-1.01027e-06
-8.44175e-07
-6.76617e-07
-5.17753e-07
-3.78496e-07
-2.66683e-07
-1.68316e-07
-5.3893e-08
1.03057e-07
3.15274e-07
5.80513e-07
8.84257e-07
1.21147e-06
1.53759e-06
1.83733e-06
2.08033e-06
2.24134e-06
2.29989e-06
2.24129e-06
2.05697e-06
1.74496e-06
1.30997e-06
7.62821e-07
1.19187e-07
-6.02076e-07
-1.38059e-06
-2.1962e-06
-3.02988e-06
-2.58262e-06
-2.55799e-06
-2.52144e-06
-2.47265e-06
-2.41139e-06
-2.33823e-06
-2.25457e-06
-2.16244e-06
-2.06419e-06
-1.9617e-06
-1.8572e-06
-1.75123e-06
-1.64219e-06
-1.53059e-06
-1.41886e-06
-1.30203e-06
-1.17772e-06
-1.04637e-06
-9.10253e-07
-7.72945e-07
-6.40654e-07
-5.2005e-07
-4.16429e-07
-3.22003e-07
-2.19033e-07
-8.97475e-08
7.49574e-08
2.73771e-07
4.8731e-07
7.12706e-07
9.24536e-07
1.10039e-06
1.21998e-06
1.26567e-06
1.22384e-06
1.08556e-06
8.46666e-07
5.07644e-07
7.34805e-08
-4.46842e-07
-1.04121e-06
-1.69555e-06
-2.39493e-06
-3.12466e-06
-3.87082e-06
-2.09065e-06
-2.09319e-06
-2.08584e-06
-2.06847e-06
-2.0409e-06
-2.00342e-06
-1.95674e-06
-1.90222e-06
-1.84098e-06
-1.77505e-06
-1.7029e-06
-1.62635e-06
-1.55353e-06
-1.47738e-06
-1.39634e-06
-1.31048e-06
-1.21921e-06
-1.12344e-06
-1.02442e-06
-9.24074e-07
-8.25472e-07
-7.32109e-07
-6.47762e-07
-5.6976e-07
-4.89945e-07
-3.99438e-07
-2.88923e-07
-1.7235e-07
-3.11018e-08
9.91314e-08
2.04572e-07
2.72404e-07
2.89472e-07
2.43714e-07
1.2609e-07
-6.85967e-08
-3.41951e-07
-6.92414e-07
-1.11556e-06
-1.60445e-06
-2.15016e-06
-2.74249e-06
-3.37072e-06
-4.02424e-06
-4.69293e-06
-1.55299e-06
-1.58733e-06
-1.61326e-06
-1.63091e-06
-1.6403e-06
-1.64162e-06
-1.63527e-06
-1.62194e-06
-1.60228e-06
-1.5772e-06
-1.54731e-06
-1.51496e-06
-1.48268e-06
-1.44755e-06
-1.40575e-06
-1.36005e-06
-1.31123e-06
-1.25941e-06
-1.20474e-06
-1.1482e-06
-1.09088e-06
-1.03447e-06
-9.80738e-07
-9.2963e-07
-8.84959e-07
-8.42349e-07
-7.96432e-07
-7.29201e-07
-6.68524e-07
-6.2707e-07
-6.11366e-07
-6.29469e-07
-6.90663e-07
-8.03161e-07
-9.72638e-07
-1.20199e-06
-1.49166e-06
-1.83995e-06
-2.24334e-06
-2.69676e-06
-3.19388e-06
-3.72758e-06
-4.29031e-06
-4.87454e-06
-5.47293e-06
-9.73961e-07
-1.04743e-06
-1.1134e-06
-1.17227e-06
-1.22436e-06
-1.26993e-06
-1.30934e-06
-1.34303e-06
-1.37157e-06
-1.39567e-06
-1.41611e-06
-1.43361e-06
-1.44836e-06
-1.45966e-06
-1.46736e-06
-1.47234e-06
-1.47468e-06
-1.47408e-06
-1.4705e-06
-1.46429e-06
-1.45553e-06
-1.44531e-06
-1.43342e-06
-1.42094e-06
-1.41675e-06
-1.41564e-06
-1.40968e-06
-1.40628e-06
-1.41755e-06
-1.44702e-06
-1.49863e-06
-1.57878e-06
-1.69404e-06
-1.84954e-06
-2.04862e-06
-2.29306e-06
-2.58305e-06
-2.9173e-06
-3.29323e-06
-3.70728e-06
-4.15517e-06
-4.63206e-06
-5.13283e-06
-5.65221e-06
-6.18499e-06
-3.55105e-07
-4.77759e-07
-5.9393e-07
-7.03814e-07
-8.07838e-07
-9.06435e-07
-9.99991e-07
-1.08886e-06
-1.17341e-06
-1.25403e-06
-1.33107e-06
-1.40478e-06
-1.47543e-06
-1.54326e-06
-1.60832e-06
-1.67059e-06
-1.72973e-06
-1.78554e-06
-1.83793e-06
-1.88637e-06
-1.93155e-06
-1.97296e-06
-2.01032e-06
-2.04868e-06
-2.08471e-06
-2.1129e-06
-2.14399e-06
-2.192e-06
-2.25514e-06
-2.3323e-06
-2.42739e-06
-2.54574e-06
-2.69156e-06
-2.86773e-06
-3.07632e-06
-3.31868e-06
-3.59516e-06
-3.905e-06
-4.24655e-06
-4.61749e-06
-5.01506e-06
-5.43612e-06
-5.87731e-06
-6.33507e-06
-6.80578e-06
1.93253e-07
1.76092e-08
-1.51789e-07
-3.15311e-07
-4.73494e-07
-6.26807e-07
-7.75585e-07
-9.20077e-07
-1.0605e-06
-1.19706e-06
-1.32998e-06
-1.45946e-06
-1.5857e-06
-1.70873e-06
-1.82844e-06
-1.94458e-06
-2.05685e-06
-2.16493e-06
-2.26829e-06
-2.36673e-06
-2.46017e-06
-2.54822e-06
-2.63018e-06
-2.69709e-06
-2.76942e-06
-2.83144e-06
-2.90095e-06
-2.98263e-06
-3.07443e-06
-3.17701e-06
-3.29373e-06
-3.4281e-06
-3.58284e-06
-3.76015e-06
-3.9618e-06
-4.18902e-06
-4.44226e-06
-4.7212e-06
-5.02489e-06
-5.352e-06
-5.70086e-06
-6.06955e-06
-6.45589e-06
-6.85755e-06
-7.27209e-06
6.2757e-07
4.01819e-07
1.82168e-07
-3.16618e-08
-2.4012e-07
-4.43583e-07
-6.42297e-07
-8.36409e-07
-1.02603e-06
-1.21128e-06
-1.39225e-06
-1.56901e-06
-1.74158e-06
-1.90985e-06
-2.07363e-06
-2.23262e-06
-2.38648e-06
-2.53469e-06
-2.67693e-06
-2.81284e-06
-2.94235e-06
-3.06743e-06
-3.18519e-06
-3.29455e-06
-3.37512e-06
-3.46105e-06
-3.5522e-06
-3.64849e-06
-3.75152e-06
-3.86351e-06
-3.98676e-06
-4.12351e-06
-4.27586e-06
-4.44565e-06
-4.63439e-06
-4.84312e-06
-5.07238e-06
-5.32218e-06
-5.59215e-06
-5.88158e-06
-6.18953e-06
-6.51485e-06
-6.85616e-06
-7.21198e-06
-7.58073e-06
9.3595e-07
6.67339e-07
4.05076e-07
1.48968e-07
-1.01293e-07
-3.45937e-07
-5.8509e-07
-8.188e-07
-1.04709e-06
-1.26997e-06
-1.48744e-06
-1.69947e-06
-1.90596e-06
-2.10675e-06
-2.30159e-06
-2.49016e-06
-2.67206e-06
-2.84687e-06
-3.01428e-06
-3.17397e-06
-3.32634e-06
-3.47254e-06
-3.60661e-06
-3.72523e-06
-3.82969e-06
-3.93061e-06
-4.0304e-06
-4.13185e-06
-4.23809e-06
-4.35144e-06
-4.47377e-06
-4.60698e-06
-4.75293e-06
-4.91324e-06
-5.08918e-06
-5.28168e-06
-5.49131e-06
-5.71833e-06
-5.96272e-06
-6.22425e-06
-6.50242e-06
-6.79657e-06
-7.10581e-06
-7.42916e-06
-7.76553e-06
1.15277e-06
8.48713e-07
5.51526e-07
2.61126e-07
-2.26451e-08
-2.99876e-07
-5.70575e-07
-8.34697e-07
-1.09218e-06
-1.34297e-06
-1.58697e-06
-1.8241e-06
-2.05421e-06
-2.2771e-06
-2.49252e-06
-2.70015e-06
-2.89968e-06
-3.09074e-06
-3.27313e-06
-3.4467e-06
-3.61174e-06
-3.76873e-06
-3.91253e-06
-4.04056e-06
-4.1559e-06
-4.26353e-06
-4.36766e-06
-4.47206e-06
-4.57967e-06
-4.69269e-06
-4.813e-06
-4.94241e-06
-5.08259e-06
-5.23496e-06
-5.40067e-06
-5.58064e-06
-5.77558e-06
-5.98594e-06
-6.21195e-06
-6.45363e-06
-6.7108e-06
-6.9831e-06
-7.27001e-06
-7.5709e-06
-7.88504e-06
1.30329e-06
9.70822e-07
6.45917e-07
3.28599e-07
1.88438e-08
-2.83312e-07
-5.77774e-07
-8.64419e-07
-1.14313e-06
-1.41379e-06
-1.67628e-06
-1.93046e-06
-2.17617e-06
-2.41323e-06
-2.64141e-06
-2.86045e-06
-3.07014e-06
-3.27025e-06
-3.46069e-06
-3.64142e-06
-3.81273e-06
-3.97528e-06
-4.12481e-06
-4.25833e-06
-4.37855e-06
-4.49028e-06
-4.5978e-06
-4.70444e-06
-4.81288e-06
-4.92535e-06
-5.04384e-06
-5.1701e-06
-5.30569e-06
-5.45196e-06
-5.61006e-06
-5.78096e-06
-5.96546e-06
-6.16415e-06
-6.37743e-06
-6.60552e-06
-6.84846e-06
-7.10614e-06
-7.37826e-06
-7.66445e-06
-7.96423e-06
1.40777e-06
1.05297e-06
7.06507e-07
3.68497e-07
3.90277e-08
-2.81763e-07
-5.93702e-07
-8.9661e-07
-1.19033e-06
-1.47471e-06
-1.74961e-06
-2.01489e-06
-2.27041e-06
-2.51598e-06
-2.75148e-06
-2.97671e-06
-3.19158e-06
-3.396e-06
-3.59004e-06
-3.77379e-06
-3.94776e-06
-4.1126e-06
-4.26456e-06
-4.40066e-06
-4.5239e-06
-4.6387e-06
-4.7487e-06
-4.85694e-06
-4.96601e-06
-5.07822e-06
-5.19553e-06
-5.31965e-06
-5.45212e-06
-5.59426e-06
-5.74729e-06
-5.91222e-06
-6.08992e-06
-6.28108e-06
-6.48624e-06
-6.70573e-06
-6.93977e-06
-7.18839e-06
-7.4515e-06
-7.72891e-06
-8.02033e-06
1.48034e-06
1.10818e-06
7.45129e-07
3.91395e-07
4.71535e-08
-2.87379e-07
-6.11971e-07
-9.26406e-07
-1.2305e-06
-1.5241e-06
-1.80706e-06
-2.07924e-06
-2.34053e-06
-2.5908e-06
-2.83e-06
-3.05803e-06
-3.27492e-06
-3.4807e-06
-3.6756e-06
-3.85991e-06
-4.03445e-06
-4.19935e-06
-4.3517e-06
-4.48905e-06
-4.61428e-06
-4.73116e-06
-4.84292e-06
-4.95244e-06
-5.06226e-06
-5.17462e-06
-5.29143e-06
-5.41441e-06
-5.54509e-06
-5.68483e-06
-5.83486e-06
-5.99626e-06
-6.16994e-06
-6.35665e-06
-6.55703e-06
-6.77153e-06
-7.00047e-06
-7.24405e-06
-7.50232e-06
-7.77522e-06
-8.06261e-06
1.53059e-06
1.14492e-06
7.69125e-07
4.03461e-07
4.81771e-08
-2.96446e-07
-6.3014e-07
-9.52669e-07
-1.26384e-06
-1.56349e-06
-1.85149e-06
-2.12772e-06
-2.39212e-06
-2.64461e-06
-2.88521e-06
-3.11393e-06
-3.33091e-06
-3.5363e-06
-3.73046e-06
-3.91377e-06
-4.08701e-06
-4.25114e-06
-4.40286e-06
-4.5406e-06
-4.66693e-06
-4.78514e-06
-4.89818e-06
-5.00879e-06
-5.1194e-06
-5.23217e-06
-5.34898e-06
-5.47154e-06
-5.60141e-06
-5.73995e-06
-5.88842e-06
-6.04792e-06
-6.21943e-06
-6.40377e-06
-6.60165e-06
-6.81363e-06
-7.04015e-06
-7.28148e-06
-7.5378e-06
-7.80916e-06
-8.09551e-06
1.56487e-06
1.16861e-06
7.8293e-07
4.08135e-07
4.45379e-08
-3.07537e-07
-6.47798e-07
-9.76001e-07
-1.29195e-06
-1.59549e-06
-1.8865e-06
-2.16491e-06
-2.43068e-06
-2.68382e-06
-2.92441e-06
-3.15254e-06
-3.36846e-06
-3.57243e-06
-3.76492e-06
-3.94641e-06
-4.11777e-06
-4.28004e-06
-4.43041e-06
-4.56787e-06
-4.69464e-06
-4.81359e-06
-4.9275e-06
-5.03895e-06
-5.15027e-06
-5.26352e-06
-5.38058e-06
-5.50315e-06
-5.63275e-06
-5.7708e-06
-5.91857e-06
-6.07721e-06
-6.24775e-06
-6.43108e-06
-6.62799e-06
-6.8391e-06
-7.06493e-06
-7.30586e-06
-7.56213e-06
-7.83387e-06
-8.12111e-06
1.5875e-06
1.18279e-06
7.89316e-07
4.07423e-07
3.74744e-08
-3.20175e-07
-6.65222e-07
-9.9742e-07
-1.31658e-06
-1.62255e-06
-1.91524e-06
-2.19461e-06
-2.46066e-06
-2.71348e-06
-2.95319e-06
-3.17999e-06
-3.3942e-06
-3.59616e-06
-3.78646e-06
-3.96566e-06
-4.1348e-06
-4.29457e-06
-4.44313e-06
-4.57979e-06
-4.70645e-06
-4.82566e-06
-4.94005e-06
-5.05206e-06
-5.16391e-06
-5.27759e-06
-5.39494e-06
-5.51764e-06
-5.64725e-06
-5.78517e-06
-5.93274e-06
-6.09113e-06
-6.26142e-06
-6.44457e-06
-6.64142e-06
-6.85266e-06
-7.07887e-06
-7.3205e-06
-7.57787e-06
-7.85117e-06
-8.14049e-06
1.60152e-06
1.18994e-06
7.90191e-07
4.02666e-07
2.77692e-08
-3.3413e-07
-6.82723e-07
-1.01776e-06
-1.33907e-06
-1.6465e-06
-1.94001e-06
-2.21957e-06
-2.48525e-06
-2.73716e-06
-2.97551e-06
-3.20057e-06
-3.41271e-06
-3.61236e-06
-3.8002e-06
-3.97685e-06
-4.14353e-06
-4.30055e-06
-4.44698e-06
-4.58247e-06
-4.70859e-06
-4.82766e-06
-4.94219e-06
-5.05447e-06
-5.16662e-06
-5.28057e-06
-5.39813e-06
-5.52097e-06
-5.65064e-06
-5.7886e-06
-5.93618e-06
-6.09462e-06
-6.26504e-06
-6.44844e-06
-6.64572e-06
-6.85763e-06
-7.08482e-06
-7.32778e-06
-7.58689e-06
-7.8624e-06
-8.15444e-06
1.60921e-06
1.19191e-06
7.86998e-07
3.94903e-07
1.60568e-08
-3.49161e-07
-7.00441e-07
-1.03754e-06
-1.36029e-06
-1.66857e-06
-1.96234e-06
-2.24163e-06
-2.50654e-06
-2.75723e-06
-2.99397e-06
-3.21708e-06
-3.42701e-06
-3.62425e-06
-3.80951e-06
-3.98345e-06
-4.14695e-06
-4.30178e-06
-4.44592e-06
-4.57998e-06
-4.70525e-06
-4.82387e-06
-4.93824e-06
-5.05052e-06
-5.16273e-06
-5.27676e-06
-5.39439e-06
-5.51727e-06
-5.64697e-06
-5.78497e-06
-5.93263e-06
-6.09122e-06
-6.2619e-06
-6.44574e-06
-6.64367e-06
-6.8565e-06
-7.08493e-06
-7.32951e-06
-7.59066e-06
-7.86866e-06
-8.16369e-06
1.61229e-06
1.19014e-06
7.80882e-07
3.84991e-07
2.9129e-09
-3.64968e-07
-7.18342e-07
-1.05697e-06
-1.3807e-06
-1.68942e-06
-1.98313e-06
-2.26189e-06
-2.52582e-06
-2.77516e-06
-3.01019e-06
-3.2313e-06
-3.43899e-06
-3.63381e-06
-3.81653e-06
-3.98783e-06
-4.14886e-06
-4.30077e-06
-4.44247e-06
-4.57495e-06
-4.69917e-06
-4.81709e-06
-4.93105e-06
-5.0431e-06
-5.15516e-06
-5.26909e-06
-5.38662e-06
-5.50941e-06
-5.63905e-06
-5.77702e-06
-5.92471e-06
-6.08343e-06
-6.2544e-06
-6.4387e-06
-6.63733e-06
-6.85115e-06
-7.08089e-06
-7.32715e-06
-7.5904e-06
-7.87095e-06
-8.16901e-06
1.6121e-06
1.18575e-06
7.72766e-07
3.7365e-07
-1.11395e-08
-3.81217e-07
-7.36274e-07
-1.07608e-06
-1.40049e-06
-1.70942e-06
-2.00288e-06
-2.28096e-06
-2.54384e-06
-2.79177e-06
-3.02509e-06
-3.24424e-06
-3.44975e-06
-3.64224e-06
-3.82249e-06
-3.99127e-06
-4.14981e-06
-4.29893e-06
-4.43816e-06
-4.569e-06
-4.69204e-06
-4.8091e-06
-4.92247e-06
-5.0341e-06
-5.14583e-06
-5.25948e-06
-5.37677e-06
-5.49935e-06
-5.6288e-06
-5.76663e-06
-5.91427e-06
-6.07307e-06
-6.24425e-06
-6.42897e-06
-6.62825e-06
-6.84301e-06
-7.07401e-06
-7.32189e-06
-7.58717e-06
-7.87018e-06
-8.17114e-06
1.60965e-06
1.17961e-06
7.63385e-07
3.61478e-07
-2.56367e-08
-3.97572e-07
-7.54022e-07
-1.09476e-06
-1.41966e-06
-1.72865e-06
-2.02177e-06
-2.29913e-06
-2.56094e-06
-2.8075e-06
-3.03917e-06
-3.25644e-06
-3.45988e-06
-3.65015e-06
-3.82808e-06
-3.99445e-06
-4.15058e-06
-4.29702e-06
-4.43393e-06
-4.56309e-06
-4.68488e-06
-4.80095e-06
-4.91362e-06
-5.02468e-06
-5.13595e-06
-5.24919e-06
-5.3661e-06
-5.48834e-06
-5.6175e-06
-5.7551e-06
-5.9026e-06
-6.06136e-06
-6.23267e-06
-6.41771e-06
-6.61755e-06
-6.83314e-06
-7.06528e-06
-7.31466e-06
-7.58181e-06
-7.8671e-06
-8.17078e-06
1.60573e-06
1.17243e-06
7.53337e-07
3.48983e-07
-4.01574e-08
-4.13694e-07
-7.71325e-07
-1.11283e-06
-1.43809e-06
-1.74707e-06
-2.03981e-06
-2.31645e-06
-2.57723e-06
-2.82248e-06
-3.0526e-06
-3.26811e-06
-3.46962e-06
-3.65783e-06
-3.83358e-06
-3.99769e-06
-4.15153e-06
-4.29541e-06
-4.43024e-06
-4.55771e-06
-4.6782e-06
-4.79325e-06
-4.90512e-06
-5.01553e-06
-5.12624e-06
-5.23898e-06
-5.35542e-06
-5.47723e-06
-5.60601e-06
-5.74328e-06
-5.89054e-06
-6.04919e-06
-6.22053e-06
-6.40579e-06
-6.60607e-06
-6.82236e-06
-7.0555e-06
-7.30621e-06
-7.57505e-06
-7.86241e-06
-8.16855e-06
1.60093e-06
1.16473e-06
7.43104e-07
3.36592e-07
-5.43257e-08
-4.29258e-07
-7.87906e-07
-1.13006e-06
-1.45561e-06
-1.76452e-06
-2.05687e-06
-2.33283e-06
-2.59265e-06
-2.83667e-06
-3.06537e-06
-3.27926e-06
-3.479e-06
-3.6653e-06
-3.83906e-06
-4.0011e-06
-4.15278e-06
-4.29435e-06
-4.42725e-06
-4.55305e-06
-4.67225e-06
-4.78629e-06
-4.89734e-06
-5.00705e-06
-5.11714e-06
-5.22931e-06
-5.34522e-06
-5.46654e-06
-5.59487e-06
-5.73175e-06
-5.87871e-06
-6.03715e-06
-6.20844e-06
-6.39382e-06
-6.59443e-06
-6.81129e-06
-7.04528e-06
-7.29714e-06
-7.56747e-06
-7.85667e-06
-8.16502e-06
1.59556e-06
1.15676e-06
7.32865e-07
3.24427e-07
-6.80689e-08
-4.44234e-07
-8.0377e-07
-1.14648e-06
-1.47225e-06
-1.78108e-06
-2.07305e-06
-2.34836e-06
-2.60728e-06
-2.85019e-06
-3.07756e-06
-3.28996e-06
-3.48807e-06
-3.67264e-06
-3.84455e-06
-4.00469e-06
-4.15437e-06
-4.29386e-06
-4.42491e-06
-4.54912e-06
-4.66706e-06
-4.78012e-06
-4.89032e-06
-4.99931e-06
-5.10874e-06
-5.2203e-06
-5.33564e-06
-5.45642e-06
-5.58424e-06
-5.72069e-06
-5.86727e-06
-6.02546e-06
-6.19661e-06
-6.38202e-06
-6.58286e-06
-6.80018e-06
-7.03488e-06
-7.28773e-06
-7.55936e-06
-7.85019e-06
-8.16053e-06
1.58955e-06
1.14827e-06
7.22214e-07
3.11951e-07
-8.20351e-08