/*--------------------------------*- C++ -*----------------------------------*\
| =========                 |                                                 |
| \\      /  F ield         | OpenFOAM: The Open Source CFD Toolbox           |
|  \\    /   O peration     | Version:  2312                                  |
|   \\  /    A nd           | Website:  www.openfoam.com                      |
|    \\/     M anipulation  |                                                 |
\*---------------------------------------------------------------------------*/
FoamFile
{
    version     2.0;
    format      ascii;
    arch        "LSB;label=32;scalar=64";
    class       surfaceScalarField;
    location    "47";
    object      phi;
}
// * * * * * * * * * * * * * * * * * * * * * * * * * * * * * * * * * * * * * //

dimensions      [0 3 -1 0 0 0 0];

oriented        oriented;

internalField   nonuniform List<scalar> 
9445
(
6.21504e-10
9.946e-12
6.15586e-10
5.91757e-12
6.1221e-10
3.37601e-12
6.1065e-10
1.5605e-12
6.10502e-10
1.47842e-13
6.116e-10
-1.09784e-12
6.13871e-10
-2.27144e-12
6.17267e-10
-3.39581e-12
6.2204e-10
-4.77311e-12
6.28659e-10
-6.61925e-12
6.38294e-10
-9.63423e-12
6.54662e-10
-1.63682e-11
6.91064e-10
-3.64019e-11
7.9516e-10
-1.04096e-10
-2.73022e-10
1.06818e-09
2.16885e-09
4.50596e-11
2.14709e-09
2.76799e-11
2.1339e-09
1.65649e-11
2.12687e-09
8.59171e-12
2.12465e-09
2.37278e-12
2.12654e-09
-2.99444e-12
2.13223e-09
-7.9578e-12
2.14163e-09
-1.28002e-11
2.15539e-09
-1.85331e-11
2.17485e-09
-2.60728e-11
2.20299e-09
-3.77775e-11
2.24705e-09
-6.04241e-11
2.3212e-09
-1.10552e-10
2.43958e-09
-2.22478e-10
-3.98795e-10
2.56535e-09
4.27742e-09
1.14091e-10
4.23338e-09
7.17237e-11
4.20558e-09
4.4369e-11
4.18948e-09
2.46871e-11
4.18251e-09
9.34042e-12
4.18324e-09
-3.72537e-12
4.19088e-09
-1.55954e-11
4.20521e-09
-2.71266e-11
4.22707e-09
-4.03945e-11
4.25803e-09
-5.70292e-11
4.3011e-09
-8.08479e-11
4.36115e-09
-1.20482e-10
4.44112e-09
-1.90522e-10
4.52648e-09
-3.07836e-10
-4.49837e-10
4.57752e-09
7.09804e-09
2.26595e-10
7.02425e-09
1.45513e-10
6.97593e-09
9.26915e-11
6.94607e-09
5.45441e-11
6.93055e-09
2.48651e-11
6.92702e-09
-1.97134e-13
6.93398e-09
-2.25589e-11
6.95063e-09
-4.3774e-11
6.9777e-09
-6.7461e-11
7.016e-09
-9.53369e-11
7.06672e-09
-1.31561e-10
7.12953e-09
-1.83292e-10
7.19754e-09
-2.58538e-10
7.24924e-09
-3.59528e-10
-4.60222e-10
7.25962e-09
1.08114e-08
3.91278e-10
1.07003e-08
2.56578e-10
1.0625e-08
1.67975e-10
1.05759e-08
1.0367e-10
1.0547e-08
5.37489e-11
1.05349e-08
1.19113e-11
1.05372e-08
-2.48709e-11
1.05522e-08
-5.87457e-11
1.05796e-08
-9.48464e-11
1.06188e-08
-1.34611e-10
1.06684e-08
-1.81123e-10
1.07235e-08
-2.3837e-10
1.07729e-08
-3.08018e-10
1.07986e-08
-3.85141e-10
-4.50354e-10
1.07887e-08
1.5628e-08
6.12604e-10
1.54742e-08
4.10356e-10
1.53664e-08
2.7578e-10
1.52926e-08
1.77446e-10
1.52453e-08
1.01086e-10
1.52195e-08
3.77147e-11
1.52119e-08
-1.72733e-11
1.52201e-08
-6.69078e-11
1.52416e-08
-1.16355e-10
1.52742e-08
-1.67217e-10
1.5314e-08
-2.20947e-10
1.5354e-08
-2.78352e-10
1.53834e-08
-3.37459e-10
1.53905e-08
-3.9222e-10
-4.31608e-10
1.53718e-08
2.17846e-08
8.85125e-10
2.15886e-08
6.0632e-10
2.14463e-08
4.18047e-10
2.13446e-08
2.79145e-10
2.12748e-08
1.70892e-10
2.12308e-08
8.17836e-11
2.1208e-08
5.4417e-12
2.12032e-08
-6.20454e-11
2.12121e-08
-1.2528e-10
2.12307e-08
-1.85822e-10
2.12537e-08
-2.43898e-10
2.12738e-08
-2.98534e-10
2.12834e-08
-3.46974e-10
2.12762e-08
-3.85028e-10
-4.07928e-10
2.12525e-08
2.95339e-08
1.18595e-09
2.93079e-08
8.3235e-10
2.91371e-08
5.88821e-10
2.90097e-08
4.06621e-10
2.8917e-08
2.63558e-10
2.88525e-08
1.46246e-10
2.88111e-08
4.68315e-11
2.87883e-08
-3.91827e-11
2.87789e-08
-1.15877e-10
2.87777e-08
-1.84607e-10
2.8779e-08
-2.452e-10
2.8777e-08
-2.96541e-10
2.87669e-08
-3.36897e-10
2.87465e-08
-3.6459e-10
-3.78606e-10
2.87171e-08
3.91327e-08
1.46878e-09
3.89059e-08
1.05908e-09
3.87255e-08
7.69308e-10
3.8584e-08
5.4811e-10
3.84752e-08
3.72287e-10
3.83937e-08
2.27833e-10
3.83342e-08
1.0627e-10
3.8292e-08
3.04017e-12
3.82617e-08
-8.55463e-11
3.82381e-08
-1.61008e-10
3.82162e-08
-2.23334e-10
3.81921e-08
-2.72411e-10
3.81633e-08
-3.08109e-10
3.81295e-08
-3.30815e-10
-3.41496e-10
3.80924e-08
5.08372e-08
1.66779e-09
5.06568e-08
1.2395e-09
5.05005e-08
9.2566e-10
5.03692e-08
6.79418e-10
5.02613e-08
4.80131e-10
5.01741e-08
3.15033e-10
5.01041e-08
1.76298e-10
5.00474e-08
5.97365e-11
4.9999e-08
-3.71758e-11
4.99555e-08
-1.17513e-10
4.99133e-08
-1.81078e-10
4.98701e-08
-2.29236e-10
4.98252e-08
-2.6322e-10
4.97791e-08
-2.84735e-10
-2.95667e-10
4.97333e-08
6.49339e-08
1.72153e-09
6.48512e-08
1.32214e-09
6.47609e-08
1.01599e-09
6.46729e-08
7.67467e-10
6.45915e-08
5.61461e-10
6.45184e-08
3.88166e-10
6.44528e-08
2.41859e-10
6.43931e-08
1.19476e-10
6.43371e-08
1.88444e-11
6.42819e-08
-6.23289e-11
6.42271e-08
-1.2627e-10
6.41717e-08
-1.73895e-10
6.41162e-08
-2.07705e-10
6.40615e-08
-2.30008e-10
-2.42967e-10
6.40088e-08
8.18202e-08
1.61119e-09
8.18627e-08
1.27964e-09
8.18674e-08
1.01126e-09
8.18496e-08
7.85277e-10
8.18186e-08
5.92424e-10
8.17801e-08
4.2669e-10
8.17367e-08
2.85245e-10
8.16897e-08
1.66501e-10
8.16396e-08
6.89599e-11
8.15856e-08
-8.28206e-12
8.15295e-08
-7.0251e-11
8.1472e-08
-1.16362e-10
8.14141e-08
-1.49814e-10
8.13572e-08
-1.7305e-10
-1.88154e-10
8.13023e-08
1.02092e-07
1.37721e-09
1.02242e-07
1.1303e-09
1.02334e-07
9.19056e-10
1.02386e-07
7.32732e-10
1.02411e-07
5.67976e-10
1.02415e-07
4.22983e-10
1.02402e-07
2.97338e-10
1.02378e-07
1.90981e-10
1.02344e-07
1.03328e-10
1.02302e-07
3.28756e-11
1.02255e-07
-2.26639e-11
1.02204e-07
-6.54455e-11
1.02151e-07
-9.72822e-11
1.02099e-07
-1.20428e-10
-1.36693e-10
1.02047e-07
1.26512e-07
1.09347e-09
1.26716e-07
9.26317e-10
1.26859e-07
7.7538e-10
1.26957e-07
6.35447e-10
1.27018e-07
5.06807e-10
1.27051e-07
3.90217e-10
1.27061e-07
2.86656e-10
1.27055e-07
1.97371e-10
1.27035e-07
1.22938e-10
1.27006e-07
6.25506e-11
1.26968e-07
1.44947e-11
1.26926e-07
-2.31517e-11
1.26881e-07
-5.21525e-11
1.26835e-07
-7.4074e-11
-9.03601e-11
1.26788e-07
1.55822e-07
8.12005e-10
1.56032e-07
7.16679e-10
1.56186e-07
6.21298e-10
1.56296e-07
5.25655e-10
1.56368e-07
4.34162e-10
1.5641e-07
3.48226e-10
1.56428e-07
2.68825e-10
1.56427e-07
1.98158e-10
1.56412e-07
1.38099e-10
1.56386e-07
8.8594e-11
1.56352e-07
4.84845e-11
1.56313e-07
1.62684e-11
1.5627e-07
-9.30399e-12
1.56225e-07
-2.94047e-11
-4.50194e-11
1.5618e-07
1.90528e-07
5.49927e-10
1.90723e-07
5.21625e-10
1.90865e-07
4.79035e-10
1.90967e-07
4.24287e-10
1.91034e-07
3.66762e-10
1.91072e-07
3.10875e-10
1.91085e-07
2.55119e-10
1.91081e-07
2.02339e-10
1.91063e-07
1.56571e-10
1.91033e-07
1.18188e-10
1.90995e-07
8.60798e-11
1.90953e-07
5.91337e-11
1.90906e-07
3.70345e-11
1.90858e-07
1.91362e-11
4.76334e-12
1.90808e-07
2.30756e-07
3.1363e-10
2.30933e-07
3.44385e-10
2.31059e-07
3.52891e-10
2.31144e-07
3.39349e-10
2.31199e-07
3.12032e-10
2.31227e-07
2.82922e-10
2.31234e-07
2.48103e-10
2.31222e-07
2.13952e-10
2.31196e-07
1.82501e-10
2.3116e-07
1.54469e-10
2.31116e-07
1.29883e-10
2.31067e-07
1.08301e-10
2.31014e-07
8.97815e-11
2.30959e-07
7.45991e-11
6.20746e-11
2.30901e-07
2.7606e-07
1.08798e-10
2.76212e-07
1.92676e-10
2.76317e-07
2.47201e-10
2.76384e-07
2.72206e-10
2.76421e-07
2.75279e-10
2.76436e-07
2.67747e-10
2.76433e-07
2.51155e-10
2.76415e-07
2.32398e-10
2.76385e-07
2.12431e-10
2.76345e-07
1.94348e-10
2.76297e-07
1.78293e-10
2.76241e-07
1.64229e-10
2.76179e-07
1.51296e-10
2.76114e-07
1.39595e-10
1.29457e-10
2.76047e-07
3.24898e-07
-5.82178e-11
3.25013e-07
7.70325e-11
3.25098e-07
1.62666e-10
3.25155e-07
2.15244e-10
3.25184e-07
2.45704e-10
3.25194e-07
2.58501e-10
3.25184e-07
2.61268e-10
3.25157e-07
2.58796e-10
3.25118e-07
2.51486e-10
3.25069e-07
2.4321e-10
3.25013e-07
2.34955e-10
3.2495e-07
2.26946e-10
3.24882e-07
2.19121e-10
3.2481e-07
2.12055e-10
2.05759e-10
3.24733e-07
3.74022e-07
-1.96762e-10
3.74134e-07
-3.5518e-11
3.74215e-07
8.22536e-11
3.74269e-07
1.60396e-10
3.74303e-07
2.12338e-10
3.74316e-07
2.45836e-10
3.7431e-07
2.67036e-10
3.74289e-07
2.79553e-10
3.74254e-07
2.86106e-10
3.74209e-07
2.88849e-10
3.74154e-07
2.8942e-10
3.74092e-07
2.89013e-10
3.74023e-07
2.88231e-10
3.73948e-07
2.87278e-10
2.86332e-10
3.73867e-07
3.71454e-07
-2.58679e-10
3.71511e-07
-9.23778e-11
3.71551e-07
4.26016e-11
3.71576e-07
1.35096e-10
3.71587e-07
2.01166e-10
3.71585e-07
2.48303e-10
3.7157e-07
2.8155e-10
3.71544e-07
3.05414e-10
3.71508e-07
3.22602e-10
3.71462e-07
3.34962e-10
3.71407e-07
3.4412e-10
3.71345e-07
3.51246e-10
3.71276e-07
3.57078e-10
3.71201e-07
3.62063e-10
3.66333e-10
3.71121e-07
3.1767e-07
-2.64582e-10
3.17681e-07
-1.02832e-10
3.17699e-07
2.41734e-11
3.17717e-07
1.17632e-10
3.1773e-07
1.87625e-10
3.17738e-07
2.4061e-10
3.17738e-07
2.81059e-10
3.17731e-07
3.12374e-10
3.17717e-07
3.36976e-10
3.17695e-07
3.56632e-10
3.17667e-07
3.72667e-10
3.17632e-07
3.86092e-10
3.17591e-07
3.9763e-10
3.17546e-07
4.07753e-10
4.16775e-10
3.17495e-07
2.65864e-07
-2.30921e-10
2.65847e-07
-8.54728e-11
2.65838e-07
3.3012e-11
2.65833e-07
1.22065e-10
2.6583e-07
1.91303e-10
2.65825e-07
2.45669e-10
2.65817e-07
2.88902e-10
2.65805e-07
3.23782e-10
2.6579e-07
3.52328e-10
2.65771e-07
3.76059e-10
2.65747e-07
3.96125e-10
2.6572e-07
4.13385e-10
2.65689e-07
4.28469e-10
2.65655e-07
4.41824e-10
4.5376e-10
2.65618e-07
2.18687e-07
-1.75972e-10
2.18649e-07
-4.79282e-11
2.18628e-07
5.48712e-11
2.18614e-07
1.35853e-10
2.18605e-07
2.00399e-10
2.18598e-07
2.52524e-10
2.18592e-07
2.95179e-10
2.18585e-07
3.30561e-10
2.18577e-07
3.60309e-10
2.18567e-07
3.8566e-10
2.18556e-07
4.07541e-10
2.18542e-07
4.26636e-10
2.18527e-07
4.43458e-10
2.18511e-07
4.58374e-10
4.7164e-10
2.18493e-07
1.77272e-07
-1.12127e-10
1.7723e-07
-6.29154e-12
1.77205e-07
7.97571e-11
1.77192e-07
1.49511e-10
1.77186e-07
2.06448e-10
1.77185e-07
2.53506e-10
1.77187e-07
2.92905e-10
1.77191e-07
3.26311e-10
1.77197e-07
3.54964e-10
1.77203e-07
3.79786e-10
1.77209e-07
4.01467e-10
1.77215e-07
4.20524e-10
1.77221e-07
4.37344e-10
1.77227e-07
4.5221e-10
4.65329e-10
1.77233e-07
1.41896e-07
-5.67796e-11
1.41863e-07
2.67237e-11
1.41847e-07
9.6069e-11
1.41843e-07
1.53498e-10
1.41848e-07
2.014e-10
1.4186e-07
2.41828e-10
1.41876e-07
2.7636e-10
1.41896e-07
3.06163e-10
1.41919e-07
3.32101e-10
1.41944e-07
3.54824e-10
1.41971e-07
3.74821e-10
1.41999e-07
3.92461e-10
1.42028e-07
4.0802e-10
1.42059e-07
4.217e-10
4.33645e-10
1.4209e-07
1.12332e-07
-1.97892e-11
1.12315e-07
4.34487e-11
1.12314e-07
9.74719e-11
1.12324e-07
1.43081e-10
1.12344e-07
1.81906e-10
1.1237e-07
2.15318e-10
1.12402e-07
2.44365e-10
1.12438e-07
2.69809e-10
1.12478e-07
2.92219e-10
1.12521e-07
3.12027e-10
1.12566e-07
3.29557e-10
1.12614e-07
3.45053e-10
1.12663e-07
3.58694e-10
1.12714e-07
3.7061e-10
3.80892e-10
1.12767e-07
8.80497e-08
-2.84815e-12
8.80492e-08
4.39806e-11
8.80619e-08
8.47907e-11
8.80849e-08
1.19995e-10
8.81163e-08
1.50537e-10
8.81543e-08
1.77317e-10
8.81977e-08
2.00982e-10
8.82455e-08
2.21996e-10
8.8297e-08
2.40708e-10
8.83517e-08
2.57382e-10
8.8409e-08
2.72217e-10
8.84687e-08
2.85359e-10
8.85305e-08
2.96918e-10
8.85941e-08
3.06969e-10
3.15572e-10
8.86594e-08
6.83697e-08
-3.60331e-13
6.83805e-08
3.32033e-11
6.84019e-08
6.33901e-11
6.8432e-08
8.99429e-11
6.84691e-08
1.13371e-10
6.85122e-08
1.34293e-10
6.85601e-08
1.53079e-10
6.86121e-08
1.69984e-10
6.86676e-08
1.85203e-10
6.87261e-08
1.98884e-10
6.87872e-08
2.11135e-10
6.88505e-08
2.22038e-10
6.89158e-08
2.31652e-10
6.89827e-08
2.40019e-10
2.4717e-10
6.90511e-08
5.25808e-08
-5.36834e-12
5.25962e-08
1.77467e-11
5.262e-08
3.96801e-11
5.26506e-08
5.9289e-11
5.26872e-08
7.68274e-11
5.27287e-08
9.27869e-11
5.27744e-08
1.07347e-10
5.28237e-08
1.20631e-10
5.28762e-08
1.32734e-10
5.29314e-08
1.43726e-10
5.29888e-08
1.53659e-10
5.30483e-08
1.6257e-10
5.31095e-08
1.70486e-10
5.31721e-08
1.77424e-10
1.83401e-10
5.32358e-08
4.00155e-08
-1.21872e-11
4.003e-08
3.23198e-12
4.00511e-08
1.85965e-11
4.00776e-08
3.27642e-11
4.01089e-08
4.55949e-11
4.01442e-08
5.74679e-11
4.01831e-08
6.84739e-11
4.0225e-08
7.86629e-11
4.02697e-08
8.80697e-11
4.03167e-08
9.67198e-11
4.03657e-08
1.04627e-10
4.04165e-08
1.11803e-10
4.04687e-08
1.18255e-10
4.05222e-08
1.23983e-10
1.28996e-10
4.05766e-08
3.00859e-08
-1.73215e-11
3.00965e-08
-7.33587e-12
3.01122e-08
2.91152e-12
3.01321e-08
1.28649e-11
3.01556e-08
2.20102e-11
3.01825e-08
3.05898e-11
3.02123e-08
3.86698e-11
3.02447e-08
4.62665e-11
3.02794e-08
5.33834e-11
3.03161e-08
6.00198e-11
3.03546e-08
6.61697e-11
3.03945e-08
7.1831e-11
3.04358e-08
7.69974e-11
3.04781e-08
8.16644e-11
8.58308e-11
3.05213e-08
2.2292e-08
-1.93292e-11
2.22977e-08
-1.30291e-11
2.23072e-08
-6.65299e-12
2.23201e-08
2.18222e-15
2.23358e-08
6.35491e-12
2.2354e-08
1.23457e-11
2.23746e-08
1.80693e-11
2.23973e-08
2.35357e-11
2.2422e-08
2.87373e-11
2.24483e-08
3.36613e-11
2.24762e-08
3.82928e-11
2.25054e-08
4.26235e-11
2.25358e-08
4.66408e-11
2.25671e-08
5.03384e-11
5.37103e-11
2.25992e-08
1.62167e-08
-1.8368e-11
1.62182e-08
-1.45083e-11
1.62223e-08
-1.07485e-11
1.62289e-08
-6.64269e-12
1.62377e-08
-2.4475e-12
1.62485e-08
1.58338e-12
1.62611e-08
5.4633e-12
1.62754e-08
9.22091e-12
1.62913e-08
1.28536e-11
1.63086e-08
1.63462e-11
1.63272e-08
1.96814e-11
1.6347e-08
2.28505e-11
1.63678e-08
2.58385e-11
1.63895e-08
2.86404e-11
3.12485e-11
1.6412e-08
1.15161e-08
-1.51932e-11
1.15147e-08
-1.30703e-11
1.15149e-08
-1.09841e-11
1.15168e-08
-8.55087e-12
1.15204e-08
-6.01459e-12
1.15254e-08
-3.49039e-12
1.15319e-08
-9.95098e-13
1.15397e-08
1.43657e-12
1.15487e-08
3.82398e-12
1.15589e-08
6.15391e-12
1.15702e-08
8.41107e-12
1.15824e-08
1.05906e-11
1.15956e-08
1.2677e-11
1.16096e-08
1.46681e-11
1.65576e-11
1.16243e-08
7.90876e-09
-1.09544e-11
7.90563e-09
-9.93841e-12
7.90354e-09
-8.89741e-12
7.90259e-09
-7.59939e-12
7.90275e-09
-6.17376e-12
7.90397e-09
-4.70901e-12
7.90623e-09
-3.25811e-12
7.90949e-09
-1.82035e-12
7.91368e-09
-3.74962e-13
7.91879e-09
1.05064e-12
7.92475e-09
2.44982e-12
7.93152e-09
3.82218e-12
7.93904e-09
5.15373e-12
7.94726e-09
6.44521e-12
7.69428e-12
7.95613e-09
5.1658e-09
-6.68774e-12
5.16217e-09
-6.3138e-12
5.15915e-09
-5.87233e-12
5.15681e-09
-5.2636e-12
5.1552e-09
-4.56066e-12
5.15431e-09
-3.822e-12
5.15413e-09
-3.07916e-12
5.15464e-09
-2.32914e-12
5.15583e-09
-1.56518e-12
5.15769e-09
-8.05338e-13
5.16018e-09
-4.46979e-14
5.16329e-09
7.11029e-13
5.16699e-09
1.45272e-12
5.17126e-09
2.18301e-12
2.90394e-12
5.17605e-09
3.10229e-09
-3.16739e-12
3.09908e-09
-3.10239e-12
3.09617e-09
-2.95944e-12
3.09363e-09
-2.73242e-12
3.09153e-09
-2.45728e-12
3.08987e-09
-2.16134e-12
3.08865e-09
-1.85942e-12
3.08787e-09
-1.54974e-12
3.08754e-09
-1.23199e-12
3.08764e-09
-9.09578e-13
3.08818e-09
-5.81149e-13
3.08914e-09
-2.53608e-13
3.09052e-09
7.29637e-14
3.09231e-09
3.99109e-13
7.29735e-13
3.09448e-09
1.56976e-09
-8.69384e-13
1.56755e-09
-8.96794e-13
1.56546e-09
-8.68188e-13
1.56355e-09
-8.17664e-13
1.56185e-09
-7.55028e-13
1.56037e-09
-6.86231e-13
1.55913e-09
-6.15327e-13
1.55812e-09
-5.41463e-13
1.55735e-09
-4.64693e-13
1.55683e-09
-3.85304e-13
1.55655e-09
-3.03136e-13
1.55652e-09
-2.2054e-13
1.55672e-09
-1.36831e-13
1.55718e-09
-5.18976e-14
3.82786e-14
1.55787e-09
4.49693e-10
4.48796e-10
4.47928e-10
4.4711e-10
4.46355e-10
4.45669e-10
4.45053e-10
4.44512e-10
4.44047e-10
4.43662e-10
4.43359e-10
4.43138e-10
4.43001e-10
4.42949e-10
4.42988e-10
1.27602e-09
-5.40622e-10
3.32784e-10
1.57199e-09
-4.90943e-10
1.94972e-10
1.86872e-09
-3.78733e-10
8.20048e-11
2.15904e-09
-2.70826e-10
-1.94979e-11
2.44053e-09
-1.7478e-10
-1.06704e-10
2.71363e-09
-1.00218e-10
-1.72883e-10
2.97952e-09
-4.96119e-11
-2.16283e-10
3.23927e-09
-2.4416e-11
-2.35328e-10
3.4938e-09
-2.53762e-11
-2.29157e-10
3.74391e-09
-5.24242e-11
-1.97688e-10
3.99023e-09
-1.04508e-10
-1.41808e-10
4.23321e-09
-1.78946e-10
-6.40339e-11
4.47321e-09
-2.70286e-10
3.02852e-11
4.71064e-09
-3.68256e-10
1.3082e-10
4.94629e-09
-4.55194e-10
2.19551e-10
5.18176e-09
-5.01831e-10
2.66353e-10
5.42023e-09
-4.64043e-10
2.25579e-10
5.66726e-09
-2.79008e-10
3.19724e-11
5.93147e-09
1.35708e-10
-3.99918e-10
6.2254e-09
8.66379e-10
-1.1603e-09
6.56248e-09
1.97979e-09
-2.31687e-09
6.95224e-09
3.48031e-09
-3.87006e-09
7.32928e-09
4.30941e-09
-4.68646e-09
7.6545e-09
4.29961e-09
-4.62483e-09
7.91838e-09
3.83336e-09
-4.09724e-09
8.11881e-09
3.07306e-09
-3.2735e-09
8.25747e-09
2.14691e-09
-2.28557e-09
8.33661e-09
1.14858e-09
-1.22772e-09
8.35789e-09
1.46928e-10
-1.68207e-10
8.32237e-09
-8.03239e-10
8.38765e-10
8.23118e-09
-1.65554e-09
1.74673e-09
8.08611e-09
-2.37117e-09
2.51624e-09
7.88995e-09
-2.92046e-09
3.11662e-09
7.64641e-09
-3.28447e-09
3.528e-09
7.35978e-09
-3.45526e-09
3.74189e-09
7.03435e-09
-3.43457e-09
3.76e-09
6.67397e-09
-3.23101e-09
3.59139e-09
6.28186e-09
-2.85613e-09
3.24824e-09
5.86092e-09
-2.31952e-09
2.74046e-09
5.41404e-09
-1.62426e-09
2.07114e-09
4.94271e-09
-7.68917e-10
1.24025e-09
4.44242e-09
2.33869e-10
2.66422e-10
3.90183e-09
1.29937e-09
-7.58789e-10
3.33138e-09
2.21402e-09
-1.64356e-09
2.35413e-09
3.00132e-09
-2.02407e-09
2.647e-09
-6.2227e-10
2.82014e-09
-6.64086e-10
3.05473e-09
-6.1332e-10
3.31579e-09
-5.31891e-10
3.5877e-09
-4.46681e-10
3.86221e-09
-3.74736e-10
4.13573e-09
-3.23133e-10
4.4067e-09
-2.95384e-10
4.67452e-09
-2.93192e-10
4.93905e-09
-3.16952e-10
5.20034e-09
-3.65796e-10
5.45847e-09
-4.37082e-10
5.71356e-09
-5.25376e-10
5.96586e-09
-6.20557e-10
6.21607e-09
-7.05406e-10
6.46585e-09
-7.51611e-10
6.71854e-09
-7.16727e-10
6.98016e-09
-5.40627e-10
7.26005e-09
-1.44188e-10
7.57203e-09
5.54404e-10
7.93124e-09
1.62058e-09
8.34905e-09
3.06249e-09
8.75696e-09
3.9015e-09
9.11283e-09
3.94374e-09
9.40528e-09
3.5409e-09
9.63088e-09
2.84746e-09
9.79049e-09
1.9873e-09
9.88587e-09
1.0532e-09
9.91839e-09
1.14406e-10
9.88915e-09
-7.74003e-10
9.79953e-09
-1.56592e-09
9.65183e-09
-2.22346e-09
9.44959e-09
-2.71822e-09
9.19757e-09
-3.03245e-09
8.90143e-09
-3.15911e-09
8.56726e-09
-3.10041e-09
8.20139e-09
-2.86514e-09
7.81053e-09
-2.46527e-09
7.40303e-09
-1.91202e-09
6.99111e-09
-1.21234e-09
6.59358e-09
-3.71392e-10
6.23737e-09
5.90082e-10
5.95937e-09
1.57738e-09
5.81747e-09
2.35592e-09
2.42051e-09
5.75108e-09
4.59129e-09
-6.36034e-10
4.66612e-09
-7.38918e-10
4.81185e-09
-7.59053e-10
5.01222e-09
-7.32255e-10
5.24526e-09
-6.79721e-10
5.49713e-09
-6.26609e-10
5.75903e-09
-5.85029e-10
6.02576e-09
-5.62118e-10
6.29422e-09
-5.61656e-10
6.5626e-09
-5.85323e-10
6.82978e-09
-6.32981e-10
7.09508e-09
-7.0238e-10
7.35805e-09
-7.88352e-10
7.61859e-09
-8.81091e-10
7.87715e-09
-9.63965e-10
8.13531e-09
-1.00977e-09
8.39651e-09
-9.77927e-10
8.66718e-09
-8.11297e-10
8.95737e-09
-4.34384e-10
9.28222e-09
2.29559e-10
9.65875e-09
1.24405e-09
1.01004e-08
2.62082e-09
1.05366e-08
3.46534e-09
1.09222e-08
3.55817e-09
1.12435e-08
3.21957e-09
1.14954e-08
2.59554e-09
1.16776e-08
1.80507e-09
1.17912e-08
9.39665e-10
1.1837e-08
6.8544e-11
1.18163e-08
-7.5326e-10
1.17306e-08
-1.48025e-09
1.1583e-08
-2.07581e-09
1.13778e-08
-2.51309e-09
1.11213e-08
-2.77591e-09
1.08207e-08
-2.85851e-09
1.04844e-08
-2.76411e-09
1.01218e-08
-2.5025e-09
9.74372e-09
-2.08724e-09
9.36476e-09
-1.53305e-09
9.0064e-09
-8.53983e-10
8.70188e-09
-6.68723e-11
8.49743e-09
7.94535e-10
8.43984e-09
1.63497e-09
8.53778e-09
2.25797e-09
2.33078e-09
8.62752e-09
7.23616e-09
-6.12574e-10
7.244e-09
-7.4676e-10
7.30504e-09
-8.20089e-10
7.42431e-09
-8.51527e-10
7.59318e-09
-8.4859e-10
7.79632e-09
-8.29753e-10
8.02249e-09
-8.11199e-10
8.26375e-09
-8.03375e-10
8.51435e-09
-8.12253e-10
8.77036e-09
-8.41331e-10
9.02909e-09
-8.91711e-10
9.28865e-09
-9.61939e-10
9.54772e-09
-1.04743e-09
9.80557e-09
-1.13893e-09
1.00622e-08
-1.22061e-09
1.0319e-08
-1.26656e-09
1.05794e-08
-1.23829e-09
1.08501e-08
-1.082e-09
1.11418e-08
-7.26141e-10
1.14711e-08
-9.97343e-11
1.1857e-08
8.58133e-10
1.23153e-08
2.16258e-09
1.27745e-08
3.00612e-09
1.31869e-08
3.14578e-09
1.35359e-08
2.87054e-09
1.38142e-08
2.31726e-09
1.40199e-08
1.59933e-09
1.41531e-08
8.0649e-10
1.42142e-08
7.45146e-12
1.42042e-08
-7.43249e-10
1.41251e-08
-1.40119e-09
1.39808e-08
-1.93141e-09
1.37767e-08
-2.30904e-09
1.35206e-08
-2.51983e-09
1.32219e-08
-2.55976e-09
1.28914e-08
-2.43364e-09
1.25419e-08
-2.15299e-09
1.21886e-08
-1.73398e-09
1.18515e-08
-1.1959e-09
1.15583e-08
-5.6079e-10
1.13481e-08
1.4326e-10
1.12693e-08
8.73395e-10
1.13574e-08
1.54681e-09
1.15902e-08
2.02523e-09
2.13341e-09
1.17876e-08
1.0749e-08
-5.72858e-10
1.07143e-08
-7.12054e-10
1.07123e-08
-8.18151e-10
1.07536e-08
-8.92815e-10
1.08419e-08
-9.36918e-10
1.09757e-08
-9.63547e-10
1.11422e-08
-9.77675e-10
1.1334e-08
-9.95152e-10
1.15438e-08
-1.02208e-09
1.17661e-08
-1.06364e-09
1.19967e-08
-1.12224e-09
1.22322e-08
-1.19745e-09
1.24703e-08
-1.28552e-09
1.27093e-08
-1.378e-09
1.29488e-08
-1.46009e-09
1.31896e-08
-1.5074e-09
1.34351e-08
-1.48378e-09
1.36923e-08
-1.33918e-09
1.39725e-08
-1.00629e-09
1.42935e-08
-4.20729e-10
1.46766e-08
4.75007e-10
1.51399e-08
1.6993e-09
1.56133e-08
2.53271e-09
1.60467e-08
2.71241e-09
1.64199e-08
2.49732e-09
1.67227e-08
2.01438e-09
1.69515e-08
1.37053e-09
1.71049e-08
6.5315e-10
1.71825e-08
-7.01734e-11
1.71852e-08
-7.45995e-10
1.71156e-08
-1.33152e-09
1.69781e-08
-1.79393e-09
1.67798e-08
-2.11075e-09
1.65301e-08
-2.2701e-09
1.62405e-08
-2.27017e-09
1.59246e-08
-2.11779e-09
1.55984e-08
-1.82679e-09
1.52808e-08
-1.41634e-09
1.4995e-08
-9.10145e-10
1.47708e-08
-3.36538e-10
1.46444e-08
2.69668e-10
1.46539e-08
8.63846e-10
1.48179e-08
1.38279e-09
1.51007e-08
1.74253e-09
1.86062e-09
1.53734e-08
1.5328e-08
-5.29078e-10
1.5273e-08
-6.5711e-10
1.52293e-08
-7.74405e-10
1.52111e-08
-8.74669e-10
1.52265e-08
-9.5231e-10
1.52807e-08
-1.01771e-09
1.53714e-08
-1.06838e-09
1.54933e-08
-1.11705e-09
1.56396e-08
-1.16834e-09
1.58047e-08
-1.22881e-09
1.59838e-08
-1.30131e-09
1.61726e-08
-1.38622e-09
1.63677e-08
-1.48068e-09
1.65668e-08
-1.57709e-09
1.67686e-08
-1.66189e-09
1.69736e-08
-1.71239e-09
1.71849e-08
-1.69507e-09
1.74097e-08
-1.56403e-09
1.76599e-08
-1.25644e-09
1.79546e-08
-7.15462e-10
1.83176e-08
1.1202e-10
1.87691e-08
1.2478e-09
1.92431e-08
2.05866e-09
1.96878e-08
2.26781e-09
2.00783e-08
2.10674e-09
2.04013e-08
1.69143e-09
2.06505e-08
1.12134e-09
2.08228e-08
4.80832e-10
2.0917e-08
-1.64392e-10
2.09337e-08
-7.62721e-10
2.08758e-08
-1.27363e-09
2.07489e-08
-1.66698e-09
2.05613e-08
-1.92317e-09
2.03243e-08
-2.03311e-09
2.00517e-08
-1.99749e-09
1.97594e-08
-1.82552e-09
1.9466e-08
-1.53338e-09
1.91926e-08
-1.14294e-09
1.89633e-08
-6.80921e-10
1.88054e-08
-1.78601e-10
1.87469e-08
3.28181e-10
1.88112e-08
7.99513e-10
1.90026e-08
1.19144e-09
1.92862e-08
1.4589e-09
1.56933e-09
1.95775e-08
2.12092e-08
-4.85806e-10
2.11491e-08
-5.96992e-10
2.10845e-08
-7.098e-10
2.10271e-08
-8.17235e-10
2.0989e-08
-9.14215e-10
2.09745e-08
-1.00329e-09
2.09887e-08
-1.08255e-09
2.10309e-08
-1.15928e-09
2.10985e-08
-1.23593e-09
2.11874e-08
-1.31766e-09
2.12933e-08
-1.4072e-09
2.14122e-08
-1.5051e-09
2.15405e-08
-1.60898e-09
2.16753e-08
-1.71196e-09
2.18152e-08
-1.80171e-09
2.19601e-08
-1.85734e-09
2.21131e-08
-1.84809e-09
2.22818e-08
-1.73273e-09
2.24783e-08
-1.45293e-09
2.27234e-08
-9.60519e-10
2.30432e-08
-2.07839e-10
2.34602e-08
8.3089e-10
2.39157e-08
1.60312e-09
2.43569e-08
1.82657e-09
2.47538e-08
1.7099e-09
2.50885e-08
1.35667e-09
2.53522e-08
8.57638e-10
2.55397e-08
2.93379e-10
2.56484e-08
-2.73156e-10
2.56788e-08
-7.93056e-10
2.56339e-08
-1.22879e-09
2.55205e-08
-1.5535e-09
2.53482e-08
-1.7509e-09
2.51301e-08
-1.81499e-09
2.48817e-08
-1.74917e-09
2.46212e-08
-1.56494e-09
2.43683e-08
-1.28049e-09
2.41446e-08
-9.1928e-10
2.39726e-08
-5.08936e-10
2.38741e-08
-8.00782e-11
2.38673e-08
3.35004e-10
2.39622e-08
7.04624e-10
2.41532e-08
1.00038e-09
2.44116e-08
1.20052e-09
1.29561e-09
2.46853e-08
2.86734e-08
-4.42074e-10
2.8613e-08
-5.3658e-10
2.8541e-08
-6.37779e-10
2.84646e-08
-7.40851e-10
2.83924e-08
-8.41979e-10
2.83294e-08
-9.40354e-10
2.82821e-08
-1.03528e-09
2.82522e-08
-1.12934e-09
2.82406e-08
-1.22435e-09
2.82461e-08
-1.32317e-09
2.82665e-08
-1.42758e-09
2.8299e-08
-1.53759e-09
2.83408e-08
-1.6508e-09
2.83895e-08
-1.76065e-09
2.84437e-08
-1.85593e-09
2.85038e-08
-1.91738e-09
2.85728e-08
-1.91711e-09
2.8659e-08
-1.81895e-09
2.87749e-08
-1.56881e-09
2.89429e-08
-1.12847e-09
2.9192e-08
-4.56928e-10
2.9546e-08
4.76864e-10
2.99582e-08
1.1909e-09
3.03761e-08
1.40868e-09
3.0763e-08
1.32303e-09
3.10965e-08
1.0231e-09
3.13647e-08
5.89505e-10
3.15598e-08
9.82964e-11
3.16779e-08
-3.91334e-10
3.1719e-08
-8.34121e-10
3.16865e-08
-1.1963e-09
3.15879e-08
-1.45489e-09
3.14343e-08
-1.59728e-09
3.124e-08
-1.62071e-09
3.1022e-08
-1.5312e-09
3.07993e-08
-1.3422e-09
3.05918e-08
-1.073e-09
3.04197e-08
-7.47174e-10
3.03018e-08
-3.91002e-10
3.02534e-08
-3.17375e-11
3.02841e-08
3.04322e-10
3.03945e-08
5.94188e-10
3.05743e-08
8.20636e-10
3.08006e-08
9.74242e-10
1.05488e-09
3.10413e-08
3.80448e-08
-3.94529e-10
3.79828e-08
-4.74484e-10
3.79075e-08
-5.62487e-10
3.78223e-08
-6.55729e-10
3.77319e-08
-7.51578e-10
3.76403e-08
-8.48706e-10
3.75516e-08
-9.46597e-10
3.74683e-08
-1.04602e-09
3.73921e-08
-1.14818e-09
3.73234e-08
-1.25449e-09
3.72617e-08
-1.36582e-09
3.72056e-08
-1.48153e-09
3.71538e-08
-1.59899e-09
3.71048e-08
-1.71167e-09
3.70582e-08
-1.80936e-09
3.70151e-08
-1.87423e-09
3.69792e-08
-1.88121e-09
3.69599e-08
-1.79962e-09
3.69701e-08
-1.57902e-09
3.7034e-08
-1.19238e-09
3.71837e-08
-6.06645e-10
3.74441e-08
2.16404e-10
3.77845e-08
8.5054e-10
3.81545e-08
1.03866e-09
3.85102e-08
9.67357e-10
3.88246e-08
7.08715e-10
3.90823e-08
3.31781e-10
3.92731e-08
-9.25396e-11
3.93917e-08
-5.09921e-10
3.94373e-08
-8.79685e-10
3.94136e-08
-1.17261e-09
3.93288e-08
-1.37006e-09
3.91948e-08
-1.46334e-09
3.9027e-08
-1.45289e-09
3.88428e-08
-1.34701e-09
3.86609e-08
-1.16031e-09
3.85001e-08
-9.1211e-10
3.83774e-08
-6.24549e-10
3.83073e-08
-3.20868e-10
3.8299e-08
-2.34781e-11
3.83557e-08
2.47648e-10
3.8473e-08
4.76901e-10
3.86392e-08
6.54465e-10
3.88365e-08
7.76904e-10
8.47044e-10
3.90443e-08
4.96796e-08
-3.40826e-10
4.96133e-08
-4.08212e-10
4.95342e-08
-4.83408e-10
4.94434e-08
-5.64938e-10
4.9343e-08
-6.51125e-10
4.92351e-08
-7.4079e-10
4.91218e-08
-8.33347e-10
4.90047e-08
-9.28926e-10
4.88847e-08
-1.02812e-09
4.87618e-08
-1.13161e-09
4.86357e-08
-1.23971e-09
4.85055e-08
-1.35135e-09
4.83704e-08
-1.46394e-09
4.82298e-08
-1.571e-09
4.8084e-08
-1.66357e-09
4.79349e-08
-1.72517e-09
4.77873e-08
-1.73362e-09
4.76519e-08
-1.66421e-09
4.75422e-08
-1.46933e-09
4.74841e-08
-1.13428e-09
4.75126e-08
-6.35054e-10
4.76536e-08
7.53222e-11
4.78954e-08
6.08786e-10
4.81917e-08
7.42352e-10
4.84918e-08
6.6722e-10
4.87653e-08
4.35233e-10
4.89938e-08
1.03338e-10
4.91644e-08
-2.63188e-10
4.92705e-08
-6.15999e-10
4.93107e-08
-9.19883e-10
4.92889e-08
-1.15079e-09
4.92136e-08
-1.29475e-09
4.90972e-08
-1.34702e-09
4.89552e-08
-1.3109e-09
4.88046e-08
-1.19633e-09
4.86625e-08
-1.01826e-09
4.85452e-08
-7.94847e-10
4.84664e-08
-5.4567e-10
4.84355e-08
-2.90026e-10
4.84573e-08
-4.52584e-11
4.85307e-08
1.74242e-10
4.86496e-08
3.58049e-10
4.88029e-08
5.0114e-10
4.89771e-08
6.0268e-10
6.65887e-10
4.91583e-08
6.39497e-08
-2.81698e-10
6.38794e-08
-3.37896e-10
6.37969e-08
-4.01002e-10
6.37024e-08
-4.70342e-10
6.35962e-08
-5.44933e-10
6.34792e-08
-6.23863e-10
6.33524e-08
-7.06503e-10
6.32161e-08
-7.92621e-10
6.30702e-08
-8.82267e-10
6.29142e-08
-9.75543e-10
6.27467e-08
-1.07228e-09
6.25665e-08
-1.17109e-09
6.23721e-08
-1.26959e-09
6.21626e-08
-1.36147e-09
6.19384e-08
-1.43935e-09
6.17015e-08
-1.48825e-09
6.14569e-08
-1.48909e-09
6.12163e-08
-1.42357e-09
6.09936e-08
-1.24661e-09
6.08155e-08
-9.56221e-10
6.0718e-08
-5.37537e-10
6.07306e-08
6.27561e-11
6.08591e-08
4.80213e-10
6.1061e-08
5.40496e-10
6.12827e-08
4.45546e-10
6.14939e-08
2.23983e-10
6.16734e-08
-7.61788e-11
6.18063e-08
-3.96032e-10
6.18847e-08
-6.94455e-10
6.19072e-08
-9.42385e-10
6.18777e-08
-1.12125e-09
6.18048e-08
-1.22183e-09
6.17008e-08
-1.24303e-09
6.15804e-08
-1.19046e-09
6.1459e-08
-1.07495e-09
6.13516e-08
-9.10846e-10
6.1271e-08
-7.14316e-10
6.12271e-08
-5.0178e-10
6.12256e-08
-2.88504e-10
6.12678e-08
-8.74159e-11
6.13502e-08
9.18297e-11
6.14668e-08
2.41443e-10
6.16081e-08
3.59818e-10
6.17639e-08
4.46882e-10
5.0541e-10
6.19244e-08
8.12418e-08
-2.2116e-10
8.11711e-08
-2.67177e-10
8.1089e-08
-3.18916e-10
8.09948e-08
-3.76136e-10
8.08882e-08
-4.38303e-10
8.07691e-08
-5.04777e-10
8.06375e-08
-5.7495e-10
8.04933e-08
-6.48377e-10
8.03357e-08
-7.24686e-10
8.01636e-08
-8.03459e-10
7.99754e-08
-8.84053e-10
7.9769e-08
-9.64659e-10
7.95424e-08
-1.04308e-09
7.9294e-08
-1.11304e-09
7.90235e-08
-1.16886e-09
7.87322e-08
-1.19695e-09
7.84248e-08
-1.18172e-09
7.8112e-08
-1.11074e-09
7.78079e-08
-9.42539e-10
7.75391e-08
-6.87336e-10
7.73365e-08
-3.34989e-10
7.72404e-08
1.58898e-10
7.72657e-08
4.54857e-10
7.73628e-08
4.43442e-10
7.74935e-08
3.14875e-10
7.763e-08
8.74233e-11
7.7747e-08
-1.93154e-10
7.78281e-08
-4.77097e-10
7.78659e-08
-7.32317e-10
7.78594e-08
-9.35849e-10
7.78126e-08
-1.07445e-09
7.77341e-08
-1.14331e-09
7.76354e-08
-1.14441e-09
7.75299e-08
-1.08491e-09
7.74306e-08
-9.75691e-10
7.73496e-08
-8.29797e-10
7.72962e-08
-6.60975e-10
7.72769e-08
-4.82426e-10
7.72942e-08
-3.0583e-10
7.73474e-08
-1.40649e-10
7.74327e-08
6.60706e-12
7.75436e-08
1.30526e-10
7.7673e-08
2.30373e-10
7.78131e-08
3.06792e-10
3.61761e-10
7.79568e-08
1.0199e-07
-1.64287e-10
1.01924e-07
-2.01015e-10
1.01848e-07
-2.42186e-10
1.01759e-07
-2.87747e-10
1.01658e-07
-3.37411e-10
1.01544e-07
-3.90736e-10
1.01416e-07
-4.47172e-10
1.01274e-07
-5.0617e-10
1.01117e-07
-5.6708e-10
1.00942e-07
-6.29114e-10
1.0075e-07
-6.91222e-10
1.00536e-07
-7.5123e-10
1.003e-07
-8.07026e-10
1.00039e-07
-8.52339e-10
9.97536e-08
-8.83107e-10
9.94433e-08
-8.86651e-10
9.91131e-08
-8.51578e-10
9.87716e-08
-7.69179e-10
9.84326e-08
-6.0353e-10
9.81221e-08
-3.76925e-10
9.78602e-08
-7.30326e-11
9.76912e-08
3.27877e-10
9.76496e-08
4.96436e-10
9.76692e-08
4.23827e-10
9.77174e-08
2.66684e-10
9.77779e-08
2.69151e-11
9.78314e-08
-2.46625e-10
9.78568e-08
-5.02464e-10
9.78491e-08
-7.2459e-10
9.78083e-08
-8.95083e-10
9.77392e-08
-1.00533e-09
9.765e-08
-1.05418e-09
9.75514e-08
-1.04579e-09
9.74545e-08
-9.88027e-10
9.737e-08
-8.91133e-10
9.73066e-08
-7.66417e-10
9.72708e-08
-6.2514e-10
9.7266e-08
-4.77637e-10
9.72929e-08
-3.32729e-10
9.73496e-08
-1.97349e-10