/*--------------------------------*- C++ -*----------------------------------*\
| =========                 |                                                 |
| \\      /  F ield         | OpenFOAM: The Open Source CFD Toolbox           |
|  \\    /   O peration     | Version:  2312                                  |
|   \\  /    A nd           | Website:  www.openfoam.com                      |
|    \\/     M anipulation  |                                                 |
\*---------------------------------------------------------------------------*/
FoamFile
{
    version     2.0;
    format      ascii;
    arch        "LSB;label=32;scalar=64";
    class       surfaceScalarField;
    location    "111.5";
    object      phi;
}
// * * * * * * * * * * * * * * * * * * * * * * * * * * * * * * * * * * * * * //

dimensions      [0 3 -1 0 0 0 0];

oriented        oriented;

internalField   nonuniform List<scalar> 
9445
(
6.08463e-10
1.63548e-11
5.9742e-10
1.10436e-11
5.89936e-10
7.48404e-12
5.85029e-10
4.90715e-12
5.82116e-10
2.9123e-12
5.80843e-10
1.27379e-12
5.81054e-10
-2.11102e-13
5.82749e-10
-1.69538e-12
5.85925e-10
-3.17584e-12
5.9096e-10
-5.03553e-12
5.99038e-10
-8.07791e-12
6.13745e-10
-1.47071e-11
6.47793e-10
-3.40472e-11
7.4632e-10
-9.85276e-11
-2.5946e-10
1.00578e-09
2.11837e-09
7.28203e-11
2.07983e-09
4.95823e-11
2.05334e-09
3.39693e-11
2.03559e-09
2.26621e-11
2.02457e-09
1.39362e-11
2.01902e-09
6.82182e-12
2.01836e-09
4.49795e-13
2.02235e-09
-5.68486e-12
2.03105e-09
-1.18779e-11
2.04566e-09
-1.96477e-11
2.06913e-09
-3.1545e-11
2.10836e-09
-5.39363e-11
2.17707e-09
-1.02763e-10
2.28883e-09
-2.10286e-10
-3.79115e-10
2.40849e-09
4.17172e-09
1.82305e-10
4.09631e-09
1.24995e-10
4.04391e-09
8.63702e-11
4.00817e-09
5.8395e-11
3.98522e-09
3.68841e-11
3.97258e-09
1.94713e-11
3.96893e-09
4.09628e-12
3.97358e-09
-1.03333e-11
3.9864e-09
-2.46971e-11
4.00894e-09
-4.21894e-11
4.04405e-09
-6.66588e-11
4.09633e-09
-1.06219e-10
4.16869e-09
-1.75123e-10
4.24742e-09
-2.89008e-10
-4.25963e-10
4.29426e-09
6.91619e-09
3.59512e-10
6.79287e-09
2.48323e-10
6.70616e-09
1.73079e-10
6.64599e-09
1.18559e-10
6.6061e-09
7.67792e-11
6.58235e-09
4.32216e-11
6.57238e-09
1.40659e-11
6.57466e-09
-1.26196e-11
6.58849e-09
-3.85229e-11
6.61465e-09
-6.83542e-11
6.65417e-09
-1.06178e-10
6.70646e-09
-1.58502e-10
6.76486e-09
-2.33525e-10
6.80886e-09
-3.33006e-10
-4.31375e-10
6.81427e-09
1.05308e-08
6.19542e-10
1.03475e-08
4.31573e-10
1.0217e-08
3.03634e-10
1.01247e-08
2.10796e-10
1.00617e-08
1.39856e-10
1.00216e-08
8.32992e-11
1.00005e-08
3.51375e-11
9.99586e-09
-7.97068e-12
1.00059e-08
-4.85802e-11
1.00294e-08
-9.18334e-11
1.00646e-08
-1.41404e-10
1.01066e-08
-2.00508e-10
1.01445e-08
-2.71361e-10
1.01605e-08
-3.49058e-10
-4.1445e-10
1.01436e-08
1.52275e-08
9.74716e-10
1.49731e-08
6.8589e-10
1.47892e-08
4.87632e-10
1.46566e-08
3.43301e-10
1.45633e-08
2.33197e-10
1.45006e-08
1.45977e-10
1.44626e-08
7.31633e-11
1.4445e-08
9.61491e-12
1.44447e-08
-4.82684e-11
1.44581e-08
-1.05247e-10
1.44807e-08
-1.63972e-10
1.45053e-08
-2.25095e-10
1.45211e-08
-2.87199e-10
1.45166e-08
-3.4451e-10
-3.86161e-10
1.44883e-08
2.1249e-08
1.4287e-09
2.0917e-08
1.01788e-09
2.06723e-08
7.32368e-10
2.04923e-08
5.23253e-10
2.03619e-08
3.63672e-10
2.027e-08
2.37858e-10
2.02085e-08
1.34634e-10
2.01713e-08
4.68221e-11
2.01533e-08
-3.02383e-11
2.01488e-08
-1.00829e-10
2.01517e-08
-1.66785e-10
2.01542e-08
-2.27638e-10
2.01482e-08
-2.81234e-10
2.01275e-08
-3.23783e-10
-3.50726e-10
2.00921e-08
2.88607e-08
1.96763e-09
2.8455e-08
1.42357e-09
2.81488e-08
1.03863e-09
2.79182e-08
7.53844e-10
2.77461e-08
5.35765e-10
2.76197e-08
3.64241e-10
2.7529e-08
2.2539e-10
2.74658e-08
1.10006e-10
2.74232e-08
1.23235e-11
2.73943e-08
-7.19064e-11
2.7372e-08
-1.44511e-10
2.73498e-08
-2.05386e-10
2.73221e-08
-2.53577e-10
2.72863e-08
-2.87931e-10
-3.07754e-10
2.72433e-08
3.83368e-08
2.55063e-09
3.78797e-08
1.88072e-09
3.75235e-08
1.39481e-09
3.72476e-08
1.02976e-09
3.70352e-08
7.4809e-10
3.68731e-08
5.26342e-10
3.67501e-08
3.48395e-10
3.66569e-08
2.0329e-10
3.65852e-08
8.39711e-11
3.65275e-08
-1.42066e-11
3.64773e-08
-9.42714e-11
3.64292e-08
-1.57286e-10
3.63799e-08
-2.04266e-10
3.63282e-08
-2.36314e-10
-2.54879e-10
3.62754e-08
4.99505e-08
3.10821e-09
4.9487e-08
2.34426e-09
4.91099e-08
1.77186e-09
4.88071e-08
1.33255e-09
4.85659e-08
9.89343e-10
4.83744e-08
7.17818e-10
4.82221e-08
5.00727e-10
4.80995e-08
3.25908e-10
4.79984e-08
1.85069e-10
4.79118e-08
7.23592e-11
4.78339e-08
-1.6425e-11
4.77611e-08
-8.44342e-11
4.76911e-08
-1.34242e-10
4.76234e-08
-1.68616e-10
-1.90142e-10
4.75586e-08
6.39921e-08
3.56158e-09
6.35823e-08
2.75414e-09
6.32285e-08
2.12559e-09
6.29308e-08
1.63028e-09
6.26833e-08
1.23679e-09
6.24784e-08
9.22727e-10
6.23078e-08
6.71337e-10
6.21637e-08
4.7005e-10
6.20392e-08
3.09582e-10
6.19287e-08
1.82843e-10
6.1828e-08
8.42247e-11
6.17345e-08
9.06499e-12
6.16469e-08
-4.65869e-11
6.15647e-08
-8.64205e-11
-1.13603e-10
6.14882e-08
8.08414e-08
3.86515e-09
8.05327e-08
3.06285e-09
8.02443e-08
2.41394e-09
7.99864e-08
1.88816e-09
7.97606e-08
1.46261e-09
7.95641e-08
1.1192e-09
7.93925e-08
8.42991e-10
7.92408e-08
6.21787e-10
7.91045e-08
4.45808e-10
7.89803e-08
3.07062e-10
7.88656e-08
1.98935e-10
7.87589e-08
1.158e-10
7.86594e-08
5.29214e-11
7.85668e-08
6.0967e-12
-2.79766e-11
7.84812e-08
1.01065e-07
4.03772e-09
1.00861e-07
3.26638e-09
1.00652e-07
2.62303e-09
1.00451e-07
2.08898e-09
1.00264e-07
1.64954e-09
1.00092e-07
1.29115e-09
9.99341e-08
1.00107e-09
9.97881e-08
7.67825e-10
9.96523e-08
5.81597e-10
9.95254e-08
4.33996e-10
9.94064e-08
3.17951e-10
9.92947e-08
2.27416e-10
9.91903e-08
1.57375e-10
9.90928e-08
1.03532e-10
6.24489e-11
9.90024e-08
1.25408e-07
4.12936e-09
1.25275e-07
3.39903e-09
1.25126e-07
2.77269e-09
1.24972e-07
2.24306e-09
1.24819e-07
1.8018e-09
1.24672e-07
1.43892e-09
1.24529e-07
1.14332e-09
1.24393e-07
9.04232e-10
1.24262e-07
7.12045e-10
1.24138e-07
5.58391e-10
1.2402e-07
4.36168e-10
1.23908e-07
3.39308e-10
1.23803e-07
2.62813e-10
1.23704e-07
2.02452e-10
1.54853e-10
1.23611e-07
1.54596e-07
4.16645e-09
1.54507e-07
3.4872e-09
1.54394e-07
2.88566e-09
1.54269e-07
2.36855e-09
1.54138e-07
1.93323e-09
1.54004e-07
1.57251e-09
1.53871e-07
1.27661e-09
1.53739e-07
1.03546e-09
1.53612e-07
8.39928e-10
1.53488e-07
6.81964e-10
1.53369e-07
5.54716e-10
1.53256e-07
4.5232e-10
1.53149e-07
3.69949e-10
1.53048e-07
3.0355e-10
2.49892e-10
1.52953e-07
1.89103e-07
4.14846e-09
1.89061e-07
3.52957e-09
1.88982e-07
2.9645e-09
1.88882e-07
2.46855e-09
1.88768e-07
2.04711e-09
1.88646e-07
1.69485e-09
1.88519e-07
1.40327e-09
1.88391e-07
1.16335e-09
1.88264e-07
9.66781e-10
1.8814e-07
8.06136e-10
1.8802e-07
6.75013e-10
1.87904e-07
5.67913e-10
1.87794e-07
4.80293e-10
1.87689e-07
4.08346e-10
3.49018e-10
1.8759e-07
2.29049e-07
4.07395e-09
2.29062e-07
3.5162e-09
2.29027e-07
2.99973e-09
2.28959e-07
2.53668e-09
2.28868e-07
2.13753e-09
2.28762e-07
1.80067e-09
2.28647e-07
1.51862e-09
2.28527e-07
1.28386e-09
2.28404e-07
1.08923e-09
2.28282e-07
9.28159e-10
2.28162e-07
7.94881e-10
2.28046e-07
6.84388e-10
2.27933e-07
5.92524e-10
2.27826e-07
5.15794e-10
4.5139e-10
2.27724e-07
2.74003e-07
3.94981e-09
2.74075e-07
3.44411e-09
2.74091e-07
2.98318e-09
2.74063e-07
2.56552e-09
2.74002e-07
2.19814e-09
2.73919e-07
1.88356e-09
2.73821e-07
1.61647e-09
2.73714e-07
1.39128e-09
2.73601e-07
1.20217e-09
2.73485e-07
1.04354e-09
2.7337e-07
9.10351e-10
2.73256e-07
7.98209e-10
2.73145e-07
7.03427e-10
2.73038e-07
6.2289e-10
5.54155e-10
2.72935e-07
3.22501e-07
3.74499e-09
3.22629e-07
3.31703e-09
3.22699e-07
2.91252e-09
3.22721e-07
2.54365e-09
3.22704e-07
2.21563e-09
3.22656e-07
1.93065e-09
3.22588e-07
1.68505e-09
3.22504e-07
1.47495e-09
3.2241e-07
1.29592e-09
3.22311e-07
1.14345e-09
3.22208e-07
1.01337e-09
3.22104e-07
9.02017e-10
3.22001e-07
8.06238e-10
3.219e-07
7.23352e-10
6.51185e-10
3.21803e-07
3.71336e-07
3.44426e-09
3.71557e-07
3.09641e-09
3.71707e-07
2.76242e-09
3.718e-07
2.45131e-09
3.71845e-07
2.17037e-09
3.71853e-07
1.92203e-09
3.71833e-07
1.70498e-09
3.71792e-07
1.51639e-09
3.71735e-07
1.35294e-09
3.71667e-07
1.21122e-09
3.71593e-07
1.08807e-09
3.71514e-07
9.80592e-10
3.71434e-07
8.86279e-10
3.71354e-07
8.02944e-10
7.28881e-10
3.71277e-07
3.68668e-07
3.12196e-09
3.68919e-07
2.84516e-09
3.69109e-07
2.57271e-09
3.69244e-07
2.31592e-09
3.69334e-07
2.08091e-09
3.69386e-07
1.86973e-09
3.69409e-07
1.68214e-09
3.69409e-07
1.51642e-09
3.69392e-07
1.37023e-09
3.69362e-07
1.24108e-09
3.69323e-07
1.12659e-09
3.69279e-07
1.02457e-09
3.69232e-07
9.33087e-10
3.69185e-07
8.50423e-10
7.75361e-10
3.69138e-07
3.15632e-07
2.75691e-09
3.15933e-07
2.54434e-09
3.16176e-07
2.32965e-09
3.16368e-07
2.1242e-09
3.16515e-07
1.93365e-09
3.16625e-07
1.75982e-09
3.16704e-07
1.60282e-09
3.16759e-07
1.46172e-09
3.16794e-07
1.33501e-09
3.16814e-07
1.22096e-09
3.16823e-07
1.11786e-09
3.16823e-07
1.0241e-09
3.16818e-07
9.38274e-10
3.16809e-07
8.59096e-10
7.85493e-10
3.16799e-07
2.64008e-07
2.43086e-09
2.64289e-07
2.26352e-09
2.64526e-07
2.09194e-09
2.64725e-07
1.92587e-09
2.64888e-07
1.77004e-09
2.65022e-07
1.62611e-09
2.65131e-07
1.49425e-09
2.65219e-07
1.37385e-09
2.6529e-07
1.26389e-09
2.65348e-07
1.16315e-09
2.65395e-07
1.07039e-09
2.65435e-07
9.8445e-10
2.65469e-07
9.04266e-10
2.65499e-07
8.28901e-10
7.57547e-10
2.65527e-07
2.17225e-07
2.12098e-09
2.175e-07
1.9885e-09
2.1774e-07
1.85171e-09
2.17948e-07
1.71803e-09
2.18127e-07
1.59121e-09
2.1828e-07
1.47261e-09
2.18412e-07
1.3624e-09
2.18526e-07
1.26017e-09
2.18625e-07
1.16521e-09
2.18711e-07
1.07668e-09
2.18788e-07
9.93713e-10
2.18857e-07
9.15464e-10
2.1892e-07
8.4118e-10
2.18979e-07
7.70191e-10
7.01936e-10
2.19034e-07
1.76289e-07
1.81856e-09
1.76563e-07
1.71414e-09
1.76809e-07
1.60609e-09
1.77027e-07
1.49961e-09
1.77221e-07
1.39748e-09
1.77393e-07
1.30069e-09
1.77546e-07
1.20942e-09
1.77683e-07
1.12338e-09
1.77806e-07
1.04213e-09
1.77917e-07
9.65071e-10
1.78019e-07
8.91626e-10
1.78114e-07
8.21222e-10
1.78201e-07
7.53346e-10
1.78284e-07
6.87553e-10
6.2346e-10
1.78362e-07
1.41417e-07
1.52429e-09
1.41688e-07
1.44321e-09
1.41935e-07
1.35914e-09
1.42159e-07
1.27563e-09
1.42362e-07
1.19455e-09
1.42546e-07
1.11663e-09
1.42713e-07
1.042e-09
1.42866e-07
9.7052e-10
1.43006e-07
9.01899e-10
1.43135e-07
8.35772e-10
1.43255e-07
7.71761e-10
1.43367e-07
7.09507e-10
1.43472e-07
6.48692e-10
1.4357e-07
5.89046e-10
5.30339e-10
1.43663e-07
1.12298e-07
1.24467e-09
1.12558e-07
1.1832e-09
1.12798e-07
1.11917e-09
1.13019e-07
1.055e-09
1.13222e-07
9.91853e-10
1.13408e-07
9.30225e-10
1.1358e-07
8.70262e-10
1.13738e-07
8.11913e-10
1.13885e-07
7.55016e-10
1.14022e-07
6.99366e-10
1.14149e-07
6.44749e-10
1.14267e-07
5.90969e-10
1.14378e-07
5.37857e-10
1.14482e-07
4.85277e-10
4.33116e-10
1.14579e-07
8.83372e-08
9.8828e-10
8.85774e-08
9.43069e-10
8.88009e-08
8.9564e-10
8.90083e-08
8.47581e-10
8.92006e-08
7.9955e-10
8.9379e-08
7.51898e-10
8.95444e-08
7.04784e-10
8.96981e-08
6.5822e-10
8.9841e-08
6.12144e-10
8.99739e-08
5.66466e-10
9.00976e-08
5.21091e-10
9.02126e-08
4.75941e-10
9.03195e-08
4.30956e-10
9.04187e-08
3.86095e-10
3.41341e-10
9.05104e-08
6.88349e-08
7.62323e-10
6.90477e-08
7.30256e-10
6.92471e-08
6.96293e-10
6.94332e-08
6.61393e-10
6.96069e-08
6.25876e-10
6.97688e-08
5.90024e-10
6.99196e-08
5.53995e-10
7.006e-08
5.17845e-10
7.01905e-08
4.81576e-10
7.03118e-08
4.45177e-10
7.04243e-08
4.08637e-10
7.05283e-08
3.71954e-10
7.06241e-08
3.35142e-10
7.07119e-08
2.98221e-10
2.61233e-10
7.07921e-08
5.30999e-08
5.70831e-10
5.32811e-08
5.4902e-10
5.34518e-08
5.25668e-10
5.3612e-08
5.01211e-10
5.3762e-08
4.75795e-10
5.39024e-08
4.49667e-10
5.40334e-08
4.22973e-10
5.41555e-08
3.95787e-10
5.42689e-08
3.68152e-10
5.4374e-08
3.40105e-10
5.44709e-08
3.11683e-10
5.45599e-08
2.82932e-10
5.46412e-08
2.53905e-10
5.47147e-08
2.24657e-10
1.9526e-10
5.47807e-08
4.05028e-08
4.14391e-10
4.06515e-08
4.00267e-10
4.07922e-08
3.84965e-10
4.09249e-08
3.68507e-10
4.10497e-08
3.50993e-10
4.11668e-08
3.32635e-10
4.12762e-08
3.13557e-10
4.13781e-08
2.93836e-10
4.14728e-08
2.73533e-10
4.15601e-08
2.52709e-10
4.16404e-08
2.31424e-10
4.17136e-08
2.09743e-10
4.17798e-08
1.87736e-10
4.18389e-08
1.65473e-10
1.43035e-10
4.18912e-08
3.04939e-08
2.9087e-10
3.06119e-08
2.82251e-10
3.07241e-08
2.72782e-10
3.08304e-08
2.6221e-10
3.09307e-08
2.50655e-10
3.1025e-08
2.38287e-10
3.11134e-08
2.25199e-10
3.11958e-08
2.11463e-10
3.12722e-08
1.97143e-10
3.13426e-08
1.82305e-10
3.1407e-08
1.67011e-10
3.14654e-08
1.5133e-10
3.15178e-08
1.35331e-10
3.15642e-08
1.19087e-10
1.02672e-10
3.16045e-08
2.26035e-08
1.96465e-10
2.26941e-08
1.91584e-10
2.27808e-08
1.86118e-10
2.28633e-08
1.79687e-10
2.29415e-08
1.72447e-10
2.30153e-08
1.64512e-10
2.30845e-08
1.5595e-10
2.31492e-08
1.46821e-10
2.32091e-08
1.3718e-10
2.32644e-08
1.27087e-10
2.33148e-08
1.16596e-10
2.33603e-08
1.05769e-10
2.3401e-08
9.46662e-11
2.34367e-08
8.33508e-11
7.18869e-11
2.34675e-08
1.64347e-08
1.26647e-10
1.65021e-08
1.24141e-10
1.6567e-08
1.21252e-10
1.66291e-08
1.17594e-10
1.66882e-08
1.13335e-10
1.67442e-08
1.08538e-10
1.67969e-08
1.03249e-10
1.68462e-08
9.75123e-11
1.6892e-08
9.13712e-11
1.69342e-08
8.48713e-11
1.69727e-08
7.80566e-11
1.70075e-08
7.09758e-11
1.70385e-08
6.36748e-11
1.70657e-08
5.62062e-11
4.8619e-11
1.70889e-08
1.16547e-08
7.68359e-11
1.17032e-08
7.5712e-11
1.17501e-08
7.43593e-11
1.17952e-08
7.24552e-11
1.18384e-08
7.01479e-11
1.18795e-08
6.74604e-11
1.19183e-08
6.44223e-11
1.19547e-08
6.10639e-11
1.19887e-08
5.74147e-11
1.20201e-08
5.35069e-11
1.20488e-08
4.93714e-11
1.20747e-08
4.50433e-11
1.20978e-08
4.05545e-11
1.21181e-08
3.59442e-11
3.12487e-11
1.21354e-08
7.98676e-09
4.28067e-11
8.02008e-09
4.23928e-11
8.05257e-09
4.1868e-11
8.08403e-09
4.09966e-11
8.1143e-09
3.98829e-11
8.14323e-09
3.85277e-11
8.1707e-09
3.69488e-11
8.1966e-09
3.5164e-11
8.22083e-09
3.31915e-11
8.24328e-09
3.10515e-11
8.26389e-09
2.87635e-11
8.28258e-09
2.63497e-11
8.29931e-09
2.38303e-11
8.31402e-09
2.12316e-11
1.85798e-11
8.32669e-09
5.20206e-09
2.0885e-11
5.22369e-09
2.07695e-11
5.24492e-09
2.06298e-11
5.26561e-09
2.03081e-11
5.28563e-09
1.98599e-11
5.30488e-09
1.9279e-11
5.32326e-09
1.85746e-11
5.34067e-09
1.77559e-11
5.35702e-09
1.68326e-11
5.37226e-09
1.58155e-11
5.38631e-09
1.4715e-11
5.39912e-09
1.35438e-11
5.41063e-09
1.2312e-11
5.42083e-09
1.10359e-11
9.73383e-12
5.42967e-09
3.11349e-09
8.0064e-12
3.12629e-09
7.97523e-12
3.13895e-09
7.97221e-12
3.15136e-09
7.89833e-12
3.16344e-09
7.77107e-12
3.17514e-09
7.58632e-12
3.18636e-09
7.34791e-12
3.19706e-09
7.05969e-12
3.20717e-09
6.72564e-12
3.21663e-09
6.35053e-12
3.22541e-09
5.9386e-12
3.23346e-09
5.49547e-12
3.24074e-09
5.02517e-12
3.24724e-09
4.53564e-12
4.03945e-12
3.25294e-09
1.56924e-09
1.69411e-12
1.57554e-09
1.67154e-12
1.58182e-09
1.68892e-12
1.58803e-09
1.69173e-12
1.59412e-09
1.68047e-12
1.60005e-09
1.6545e-12
1.60578e-09
1.61492e-12
1.61128e-09
1.56283e-12
1.61651e-09
1.49922e-12
1.62143e-09
1.42536e-12
1.62603e-09
1.34223e-12
1.63027e-09
1.25135e-12
1.63414e-09
1.1535e-12
1.63763e-09
1.05111e-12
9.51198e-13
1.64072e-09
4.47192e-10
4.48864e-10
4.50553e-10
4.52244e-10
4.53925e-10
4.55579e-10
4.57194e-10
4.58757e-10
4.60256e-10
4.61682e-10
4.63024e-10
4.64275e-10
4.65429e-10
4.6648e-10
4.67431e-10
1.19906e-09
-5.2027e-10
3.26993e-10
1.47302e-09
-4.80094e-10
2.06135e-10
1.7462e-09
-3.75736e-10
1.02554e-10
2.01266e-09
-2.67903e-10
1.44091e-12
2.2707e-09
-1.61154e-10
-9.68909e-11
2.52152e-09
-6.01691e-11
-1.9065e-10
2.76695e-09
3.62005e-11
-2.81626e-10
3.00866e-09
1.30529e-10
-3.72242e-10
3.2481e-09
2.26087e-10
-4.65526e-10
3.48643e-09
3.26794e-10
-5.6512e-10
3.72456e-09
4.37407e-10
-6.7554e-10
3.96328e-09
5.64045e-10
-8.02763e-10
4.20339e-09
7.15057e-10
-9.55165e-10
4.44597e-09
9.01827e-10
-1.14442e-09
4.69271e-09
1.13966e-09
-1.38639e-09
4.94613e-09
1.44918e-09
-1.7026e-09
5.2103e-09
1.85367e-09
-2.11784e-09
5.49146e-09
2.37668e-09
-2.65784e-09
5.79782e-09
3.04166e-09
-3.34802e-09
6.13945e-09
3.8534e-09
-4.19503e-09
6.52633e-09
4.75293e-09
-5.13981e-09
6.96344e-09
5.57233e-09
-6.00944e-09
7.37242e-09
5.09736e-09
-5.50634e-09
7.71318e-09
3.86621e-09
-4.20697e-09
7.98055e-09
2.448e-09
-2.71537e-09
8.17554e-09
1.00532e-09
-1.20031e-09
8.3021e-09
-3.52223e-10
2.25663e-10
8.36467e-09
-1.56237e-09
1.4998e-09
8.3674e-09
-2.59438e-09
2.59165e-09
8.31412e-09
-3.43337e-09
3.48665e-09
8.20853e-09
-4.07183e-09
4.17742e-09
8.05446e-09
-4.5073e-09
4.66137e-09
7.85593e-09
-4.74199e-09
4.94051e-09
7.6171e-09
-4.78287e-09
5.02171e-09
7.342e-09
-4.64123e-09
4.91632e-09
7.03428e-09
-4.33141e-09
4.63913e-09
6.6969e-09
-3.86897e-09
4.20635e-09
6.33209e-09
-3.26796e-09
3.63277e-09
5.94154e-09
-2.53762e-09
2.92817e-09
5.52627e-09
-1.67953e-09
2.0948e-09
5.0847e-09
-6.91503e-10
1.13307e-09
4.60636e-09
4.126e-10
6.5745e-11
4.07447e-09
1.54392e-09
-1.01203e-09
3.49606e-09
2.47652e-09
-1.89812e-09
2.55242e-09
3.15586e-09
-2.21221e-09
2.48309e-09
-5.94877e-10
2.64075e-09
-6.37749e-10
2.85457e-09
-5.89555e-10
3.09252e-09
-5.05858e-10
3.34054e-09
-4.09165e-10
3.59156e-09
-3.11197e-10
3.84316e-09
-2.15399e-10
4.09473e-09
-1.2104e-10
4.34646e-09
-2.56368e-11
4.59883e-09
7.44236e-11
4.85242e-09
1.83816e-10
5.10786e-09
3.08604e-10
5.36592e-09
4.56996e-10
5.62775e-09
6.39994e-10
5.89517e-09
8.72235e-10
6.17094e-09
1.17341e-09
6.45947e-09
1.56514e-09
6.76755e-09
2.0686e-09
7.10406e-09
2.70515e-09
7.47983e-09
3.47763e-09
7.90575e-09
4.32701e-09
8.38765e-09
5.09043e-09
8.84013e-09
4.64487e-09
9.2193e-09
3.48705e-09
9.51914e-09
2.14816e-09
9.74031e-09
7.84148e-10
9.8867e-09
-4.98607e-10
9.9629e-09
-1.63857e-09
9.97337e-09
-2.60485e-09
9.92243e-09
-3.38243e-09
9.81444e-09
-3.96385e-09
9.65404e-09
-4.34689e-09
9.44623e-09
-4.53418e-09
9.19635e-09
-4.533e-09
8.90991e-09
-4.35478e-09
8.5924e-09
-4.0139e-09
8.2493e-09
-3.52588e-09
7.88649e-09
-2.90515e-09
7.51142e-09
-2.16255e-09
7.1352e-09
-1.3033e-09
6.77475e-09
-3.31052e-10
6.45358e-09
7.33761e-10
6.20538e-09
1.79212e-09
6.08441e-09
2.5975e-09
2.61683e-09
6.02e-09
4.30383e-09
-6.04439e-10
4.36862e-09
-7.02539e-10
4.49828e-09
-7.19215e-10
4.67846e-09
-6.86043e-10
4.88917e-09
-6.19874e-10
5.11791e-09
-5.39938e-10
5.35766e-09
-4.55149e-10
5.60459e-09
-3.67966e-10
5.85675e-09
-2.77801e-10
6.11332e-09
-1.82141e-10
6.37406e-09
-7.69306e-11
6.63917e-09
4.34999e-11
6.90917e-09
1.86995e-10
7.18515e-09
3.64011e-10
7.46901e-09
5.88374e-10
7.76368e-09
8.78743e-10
8.07387e-09
1.25495e-09
8.40698e-09
1.73548e-09
8.77253e-09
2.33961e-09
9.18203e-09
3.06812e-09
9.6473e-09
3.86174e-09
1.0175e-08
4.5627e-09
1.06727e-08
4.14722e-09
1.10923e-08
3.06745e-09
1.14268e-08
1.81366e-09
1.16763e-08
5.34661e-10
1.18445e-08
-6.66841e-10
1.19362e-08
-1.73025e-09
1.19561e-08
-2.62475e-09
1.19091e-08
-3.33542e-09
1.18003e-08
-3.85508e-09
1.16354e-08
-4.182e-09
1.14206e-08
-4.31939e-09
1.11628e-08
-4.27513e-09
1.08691e-08
-4.06116e-09
1.05476e-08
-3.69234e-09
1.02067e-08
-3.18495e-09
9.85657e-09
-2.55506e-09
9.51117e-09
-1.81714e-09
9.19141e-09
-9.83547e-10
8.92986e-09
-6.95045e-11
8.77117e-09
8.92454e-10
8.75937e-09
1.80392e-09
8.8965e-09
2.46037e-09
2.5132e-09
9.00013e-09
6.78652e-09
-5.76694e-10
6.78694e-09
-7.02954e-10
6.83595e-09
-7.68223e-10
6.93902e-09
-7.89112e-10
7.08866e-09
-7.69522e-10
7.27051e-09
-7.21786e-10
7.47583e-09
-6.60463e-10
7.69819e-09
-5.90333e-10
7.93345e-09
-5.13062e-10
8.17911e-09
-4.27798e-10
8.4338e-09
-3.31617e-10
8.69695e-09
-2.19653e-10
8.96867e-09
-8.47222e-11
9.24982e-09
8.2854e-11
9.54231e-09
2.95883e-10
9.84916e-09
5.71895e-10
1.01754e-08
9.2874e-10
1.0529e-08
1.3819e-09
1.092e-08
1.94853e-09
1.13607e-08
2.62741e-09
1.18638e-08
3.35872e-09
1.24366e-08
3.98982e-09
1.29797e-08
3.60417e-09
1.34406e-08
2.60652e-09
1.38111e-08
1.44322e-09
1.40903e-08
2.55404e-10
1.42819e-08
-8.58422e-10
1.43906e-08
-1.8389e-09
1.44214e-08
-2.65558e-09
1.43799e-08
-3.29393e-09
1.42722e-08
-3.74736e-09
1.41051e-08
-4.01488e-09
1.38863e-08
-4.10059e-09
1.36244e-08
-4.01324e-09
1.33288e-08
-3.76563e-09
1.30101e-08
-3.37364e-09
1.26802e-08
-2.85506e-09
1.23537e-08
-2.22855e-09
1.205e-08
-1.51338e-09
1.17966e-08
-7.3017e-10
1.16323e-08
9.47943e-11
1.16048e-08
9.19901e-10
1.1747e-08
1.66173e-09
1.20292e-08
2.17816e-09
2.28691e-09
1.22555e-08
1.00977e-08
-5.30802e-10
1.00552e-08
-6.60418e-10
1.00426e-08
-7.55663e-10
1.00708e-08
-8.17266e-10
1.01437e-08
-8.42455e-10
1.02586e-08
-8.36719e-10
1.04069e-08
-8.0871e-10
1.0582e-08
-7.65417e-10
1.07787e-08
-7.09816e-10
1.09934e-08
-6.42504e-10
1.12236e-08
-5.61842e-10
1.1468e-08
-4.64044e-10
1.17262e-08
-3.42847e-10
1.19986e-08
-1.89596e-10
1.22872e-08
7.25152e-12
1.25951e-08
2.64005e-10
1.29275e-08
5.96332e-10
1.32932e-08
1.01629e-09
1.37027e-08
1.53899e-09
1.41688e-08
2.16129e-09
1.4705e-08
2.82255e-09
1.53195e-08
3.37531e-09
1.59059e-08
3.01778e-09
1.64073e-08
2.10515e-09
1.68135e-08
1.03702e-09
1.71228e-08
-5.39175e-11
1.73383e-08
-1.07397e-09
1.74648e-08
-1.96541e-09
1.75077e-08
-2.69848e-09
1.74733e-08
-3.25947e-09
1.73686e-08
-3.64268e-09
1.7202e-08
-3.84823e-09
1.69827e-08
-3.88138e-09
1.67216e-08
-3.75205e-09
1.64302e-08
-3.47429e-09
1.6122e-08
-3.06538e-09
1.5812e-08
-2.54509e-09
1.55185e-08
-1.93508e-09
1.52644e-08
-1.25921e-09
1.50788e-08
-5.4458e-10
1.49978e-08
1.75742e-10
1.5059e-08
8.58767e-10
1.52783e-08
1.44242e-09
1.56141e-08
1.84235e-09
1.97464e-09
1.59263e-08
1.44356e-08
-4.78096e-10
1.43711e-08
-5.95992e-10
1.43164e-08
-7.00905e-10
1.42846e-08
-7.85437e-10
1.42856e-08
-8.43547e-10
1.43248e-08
-8.75912e-10
1.44003e-08
-8.84138e-10
1.45082e-08
-8.73385e-10
1.46447e-08
-8.46315e-10
1.48062e-08
-8.04014e-10
1.49901e-08
-7.45686e-10
1.51946e-08
-6.68536e-10
1.5419e-08
-5.67263e-10
1.56638e-08
-4.34391e-10
1.59309e-08
-2.59876e-10
1.62236e-08
-2.86312e-11
1.65473e-08
2.72609e-10
1.69116e-08
6.51927e-10
1.73279e-08
1.12268e-09
1.78093e-08
1.67998e-09
1.83698e-08
2.26201e-09
1.90184e-08
2.72667e-09
1.96427e-08
2.39354e-09
2.01808e-08
1.56707e-09
2.06202e-08
5.97531e-10
2.0958e-08
-3.91658e-10
2.11965e-08
-1.31252e-09
2.13405e-08
-2.1094e-09
2.13958e-08
-2.75373e-09
2.13693e-08
-3.23301e-09
2.12695e-08
-3.54288e-09
2.11061e-08
-3.68487e-09
2.08905e-08
-3.66572e-09
2.06353e-08
-3.49683e-09
2.03547e-08
-3.19368e-09
2.00645e-08
-2.7752e-09
1.97825e-08
-2.26314e-09
1.95292e-08
-1.68173e-09
1.93279e-08
-1.05791e-09
1.92051e-08
-4.2182e-10
1.91884e-08
1.92472e-10
1.93e-08
7.47128e-10
1.95421e-08
1.20033e-09
1.98757e-08
1.50878e-09
1.64123e-09
2.02091e-08
2.00373e-08
-4.23307e-10
1.99652e-08
-5.23898e-10
1.98878e-08
-6.23532e-10
1.98166e-08
-7.14201e-10
1.97627e-08
-7.89711e-10
1.9734e-08
-8.47199e-10
1.97351e-08
-8.8518e-10
1.97667e-08
-9.04999e-10
1.98281e-08
-9.07762e-10
1.9918e-08
-8.9384e-10
2.00347e-08
-8.62422e-10
2.01774e-08
-8.11215e-10
2.03457e-08
-7.35609e-10
2.05406e-08
-6.29253e-10
2.07645e-08
-4.83746e-10
2.10209e-08
-2.85049e-10
2.1316e-08
-2.24729e-11
2.16605e-08
3.07385e-10
2.20665e-08
7.1666e-10
2.25474e-08
1.19911e-09
2.31181e-08
1.69126e-09
2.37881e-08
2.05676e-09
2.444e-08
1.74159e-09
2.50072e-08
9.99904e-10
2.54741e-08
1.30615e-10
2.58357e-08
-7.53312e-10
2.60939e-08
-1.57069e-09
2.62531e-08
-2.26859e-09
2.63195e-08
-2.82009e-09
2.63009e-08
-3.21448e-09
2.62072e-08
-3.44912e-09
2.60496e-08
-3.52731e-09
2.58414e-08
-3.45755e-09
2.55975e-08
-3.25285e-09
2.5334e-08
-2.93021e-09
2.50688e-08
-2.51003e-09
2.48212e-08
-2.01556e-09
2.46119e-08
-1.4724e-09
2.44623e-08
-9.08321e-10
2.43933e-08
-3.52763e-10
2.44218e-08
1.63913e-10
2.45566e-08
6.12373e-10
2.479e-08
9.66851e-10
2.50905e-08
1.20831e-09
1.3298e-09
2.54019e-08
2.7186e-08
-3.65997e-10
2.71115e-08
-4.49387e-10
2.70248e-08
-5.36833e-10
2.69331e-08
-6.22553e-10
2.68449e-08
-7.01449e-10
2.67675e-08
-7.69827e-10
2.67075e-08
-8.25182e-10
2.6669e-08
-8.66524e-10
2.66546e-08
-8.9337e-10
2.66658e-08
-9.05004e-10
2.67034e-08
-9.00033e-10
2.67684e-08
-8.76198e-10
2.68619e-08
-8.29146e-10
2.69861e-08
-7.53443e-10
2.71448e-08
-6.42408e-10
2.73423e-08
-4.8261e-10
2.75859e-08
-2.66049e-10
2.78882e-08
5.05654e-12
2.82623e-08
3.42627e-10
2.87217e-08
7.3962e-10
2.92828e-08
1.13025e-09
2.99549e-08
1.38464e-09
3.06186e-08
1.07786e-09
3.12022e-08
4.16331e-10
3.16863e-08
-3.53463e-10
3.20635e-08
-1.13056e-09
3.23347e-08
-1.84186e-09
3.2504e-08
-2.43793e-09
3.25781e-08
-2.89417e-09
3.25658e-08
-3.20219e-09
3.24782e-08
-3.36147e-09
3.23282e-08
-3.37734e-09
3.21309e-08
-3.26023e-09
3.19028e-08
-3.0248e-09
3.16619e-08
-2.68934e-09
3.14271e-08
-2.2752e-09
3.12177e-08
-1.80614e-09
3.10528e-08
-1.30754e-09
3.09501e-08
-8.05613e-10
3.09237e-08
-3.26298e-10
3.09813e-08
1.06238e-10
3.11223e-08
4.71436e-10
3.13342e-08
7.54947e-10
3.15923e-08
9.50243e-10
1.05996e-09
3.18621e-08
3.62123e-08
-3.02923e-10
3.61343e-08
-3.71416e-10
3.60429e-08
-4.45378e-10
3.59415e-08
-5.21156e-10
3.5835e-08
-5.94997e-10
3.57289e-08
-6.63677e-10
3.56284e-08
-7.24686e-10
3.55382e-08
-7.76305e-10
3.54621e-08
-8.17313e-10
3.54035e-08
-8.46416e-10
3.53653e-08
-8.61836e-10
3.53505e-08
-8.61411e-10
3.53623e-08
-8.4089e-10
3.54045e-08
-7.95686e-10
3.54831e-08
-7.21045e-10
3.56041e-08
-6.0354e-10
3.5776e-08
-4.3795e-10
3.60144e-08
-2.33409e-10
3.63337e-08
2.33716e-11
3.6748e-08
3.25291e-10
3.7275e-08
6.03238e-10
3.79247e-08
7.34987e-10
3.85784e-08
4.24142e-10
3.91601e-08
-1.6538e-10
3.9646e-08
-8.39389e-10
4.00261e-08
-1.51057e-09
4.02997e-08
-2.1155e-09
4.04709e-08
-2.60908e-09
4.05465e-08
-2.96986e-09
4.05367e-08
-3.19233e-09
4.04536e-08
-3.27836e-09
4.03117e-08
-3.23545e-09
4.01274e-08
-3.076e-09
3.99187e-08
-2.81611e-09
3.97043e-08
-2.47486e-09
3.95028e-08
-2.07372e-09
3.93324e-08
-1.63571e-09
3.92092e-08
-1.18436e-09
3.91461e-08
-7.42524e-10
3.91509e-08
-3.31166e-10
3.9225e-08
3.21704e-11
3.93625e-08
3.33943e-10
3.95499e-08
5.67535e-10
3.9768e-08
7.32175e-10
8.33312e-10
3.99946e-08
4.74867e-08
-2.30974e-10
4.74023e-08
-2.87004e-10
4.73054e-08
-3.48452e-10
4.71973e-08
-4.13134e-10
4.70808e-08
-4.78443e-10
4.69589e-08
-5.41845e-10
4.68354e-08
-6.01152e-10
4.67137e-08
-6.54596e-10
4.65972e-08
-7.00816e-10
4.64893e-08
-7.38475e-10
4.63933e-08
-7.65851e-10
4.63132e-08
-7.81347e-10
4.62534e-08
-7.81046e-10
4.62192e-08
-7.61475e-10
4.62184e-08
-7.20329e-10
4.62587e-08
-6.43766e-10
4.63502e-08
-5.29504e-10
4.65122e-08
-3.95381e-10
4.67599e-08
-2.24378e-10
4.71087e-08
-2.34792e-11
4.75782e-08
1.33802e-10
4.81788e-08
1.34324e-10
4.8797e-08
-1.94049e-10
4.93542e-08
-7.22566e-10
4.98221e-08
-1.30732e-09
5.01879e-08
-1.87635e-09
5.04497e-08
-2.37733e-09
5.06111e-08
-2.77047e-09
5.06796e-08
-3.0383e-09
5.0666e-08
-3.17882e-09
5.05841e-08
-3.19637e-09
5.04491e-08
-3.10053e-09
5.02787e-08
-2.9055e-09
5.00909e-08
-2.62838e-09
4.99044e-08
-2.2883e-09
4.97365e-08
-1.90585e-09
4.96029e-08
-1.50209e-09
4.9516e-08
-1.09744e-09
4.9484e-08
-7.10579e-10
4.95101e-08
-3.57255e-10
4.95912e-08
-4.88986e-11
4.972e-08
2.05154e-10
4.98838e-08
4.0371e-10
5.00679e-08
5.48051e-10
6.43838e-10
5.02574e-08
6.14065e-08
-1.49276e-10
6.13143e-08
-1.94837e-10
6.12111e-08
-2.45244e-10
6.10972e-08
-2.99264e-10
6.0974e-08
-3.55192e-10
6.08433e-08
-4.11151e-10
6.07075e-08
-4.65363e-10
6.05691e-08
-5.16208e-10
6.04307e-08
-5.6239e-10
6.02949e-08
-6.02684e-10
6.01646e-08
-6.35588e-10
6.00435e-08
-6.60265e-10
5.99359e-08
-6.73369e-10
5.98472e-08
-6.72844e-10
5.9786e-08
-6.59131e-10
5.97607e-08
-6.18419e-10
5.97826e-08
-5.51414e-10
5.98731e-08
-4.8587e-10
6.00477e-08
-3.98955e-10
6.03229e-08
-2.98732e-10
6.07208e-08
-2.64054e-10
6.12516e-08
-3.96525e-10
6.1811e-08
-7.53437e-10
6.23206e-08
-1.23213e-09
6.2749e-08
-1.73576e-09
6.30815e-08
-2.20888e-09
6.33153e-08
-2.6111e-09
6.34534e-08
-2.9086e-09
6.35041e-08
-3.08895e-09
6.34794e-08
-3.15417e-09
6.33939e-08
-3.11081e-09
6.32635e-08
-2.97016e-09
6.31058e-08
-2.74783e-09
6.29387e-08
-2.46129e-09
6.27793e-08
-2.12886e-09
6.26427e-08
-1.76924e-09
6.25413e-08
-1.40068e-09
6.24837e-08
-1.03991e-09
6.24744e-08
-7.01209e-10
6.25129e-08
-3.95744e-10
6.25951e-08
-1.3113e-10
6.27122e-08
8.80054e-11
6.28545e-08
2.61455e-10
6.30104e-08
3.92118e-10
4.8477e-10
6.31695e-08
7.83919e-08
-5.99401e-11
7.82938e-08
-9.6751e-11
7.81862e-08
-1.37664e-10
7.8069e-08
-1.82073e-10
7.79428e-08
-2.28955e-10
7.78087e-08
-2.77024e-10
7.76683e-08
-3.24968e-10
7.75235e-08
-3.71445e-10
7.73765e-08
-4.15375e-10
7.72294e-08
-4.55654e-10
7.7085e-08
-4.9114e-10
7.69462e-08
-5.2146e-10
7.68169e-08
-5.44056e-10
7.67025e-08
-5.58429e-10
7.66096e-08
-5.66241e-10
7.6548e-08
-5.56828e-10
7.65302e-08
-5.33596e-10
7.65729e-08
-5.28607e-10
7.66896e-08
-5.15618e-10
7.69033e-08
-5.12493e-10
7.72339e-08
-5.94575e-10
7.76898e-08
-8.52494e-10
7.81775e-08
-1.24114e-09
7.86228e-08
-1.67742e-09
7.89941e-08
-2.10708e-09
7.9277e-08
-2.49173e-09
7.94683e-08
-2.80242e-09
7.9571e-08
-3.01131e-09
7.95943e-08
-3.11226e-09
7.95517e-08
-3.11157e-09
7.94582e-08
-3.01724e-09
7.93297e-08
-2.8417e-09
7.91832e-08
-2.60134e-09
7.90351e-08
-2.31322e-09
7.89002e-08
-1.99398e-09
7.87908e-08
-1.65978e-09
7.87157e-08
-1.32563e-09
7.86804e-08
-1.00455e-09
7.86862e-08
-7.06982e-10
7.8731e-08
-4.40579e-10
7.88099e-08
-2.10009e-10
7.89142e-08
-1.62859e-11
7.90372e-08
1.38449e-10
7.91695e-08
2.59746e-10
3.50577e-10
7.93037e-08
9.89094e-08
3.31011e-11
9.88093e-08
3.28612e-12
9.87014e-08
-2.97657e-11
9.85854e-08
-6.60652e-11
9.84615e-08
-1.04975e-10
9.83302e-08
-1.4573e-10
9.81927e-08
-1.87504e-10
9.80506e-08
-2.29315e-10
9.79057e-08
-2.70488e-10
9.776e-08
-3.10005e-10
9.76164e-08
-3.47497e-10
9.74774e-08
-3.8248e-10
9.73469e-08
-4.13588e-10
9.72312e-08
-4.42637e-10
9.71327e-08
-4.67786e-10
9.70652e-08
-4.89345e-10
9.70434e-08
-5.11812e-10
9.70673e-08
-5.52518e-10
9.71516e-08
-5.99851e-10
9.73292e-08
-6.90083e-10
9.76163e-08
-8.81694e-10
9.80108e-08
-1.24704e-09
9.84298e-08
-1.66009e-09
9.88065e-08
-2.05415e-09
9.91128e-08
-2.41338e-09
9.93375e-08
-2.71646e-09
9.94787e-08
-2.94359e-09
9.95394e-08
-3.07201e-09
9.95306e-08
-3.10346e-09
9.94671e-08
-3.04809e-09
9.9364e-08
-2.91407e-09
9.92365e-08
-2.71425e-09
9.91003e-08
-2.46515e-09
9.89696e-08
-2.18254e-09
9.88564e-08
-1.88074e-09
9.87697e-08
-1.57306e-09
9.87154e-08
-1.27133e-09
9.86961e-08
-9.85268e-10
9.87113e-08
-7.22222e-10
9.87579e-08
-4.8718e-10
9.88307e-08
-2.82824e-10
9.89242e-08
-1.09756e-10
9.90301e-08
3.25296e-11
9.91429e-08
1.46989e-10
2.36798e-10
9.92567e-08