/*--------------------------------*- C++ -*----------------------------------*\
| =========                 |                                                 |
| \\      /  F ield         | OpenFOAM: The Open Source CFD Toolbox           |
|  \\    /   O peration     | Version:  2312                                  |
|   \\  /    A nd           | Website:  www.openfoam.com                      |
|    \\/     M anipulation  |                                                 |
\*---------------------------------------------------------------------------*/
FoamFile
{
    version     2.0;
    format      ascii;
    arch        "LSB;label=32;scalar=64";
    class       surfaceScalarField;
    location    "43";
    object      phi;
}
// * * * * * * * * * * * * * * * * * * * * * * * * * * * * * * * * * * * * * //

dimensions      [0 3 -1 0 0 0 0];

oriented        oriented;

internalField   nonuniform List<scalar> 
9445
(
6.25518e-10
1.37799e-11
6.16351e-10
9.16746e-12
6.1029e-10
6.06071e-12
6.06539e-10
3.75111e-12
6.04623e-10
1.91606e-12
6.0426e-10
3.63729e-13
6.05348e-10
-1.0886e-12
6.07846e-10
-2.49768e-12
6.11818e-10
-3.9724e-12
6.17746e-10
-5.92729e-12
6.26795e-10
-9.04925e-12
6.42642e-10
-1.58475e-11
6.78439e-10
-3.57965e-11
7.81347e-10
-1.02909e-10
-2.71412e-10
1.05276e-09
2.17862e-09
6.18965e-11
2.14596e-09
4.18214e-11
2.12387e-09
2.81574e-11
2.10962e-09
1.7997e-11
2.10158e-09
9.95643e-12
2.09875e-09
3.199e-12
2.10061e-09
-2.95269e-12
2.10694e-09
-8.82675e-12
2.11805e-09
-1.50859e-11
2.13527e-09
-2.31394e-11
2.16153e-09
-3.53173e-11
2.204e-09
-5.83108e-11
2.27679e-09
-1.08589e-10
2.39415e-09
-2.20267e-10
-3.97049e-10
2.51978e-09
4.2908e-09
1.55917e-10
4.22605e-09
1.06568e-10
4.18145e-09
7.2761e-11
4.15182e-09
4.76207e-11
4.13397e-09
2.78091e-11
4.12589e-09
1.12798e-11
4.1264e-09
-3.46735e-12
4.13492e-09
-1.73485e-11
4.15176e-09
-3.19258e-11
4.17856e-09
-4.99359e-11
4.21815e-09
-7.49026e-11
4.27534e-09
-1.15504e-10
4.35312e-09
-1.8637e-10
4.43722e-09
-3.04362e-10
-4.47615e-10
4.48778e-09
7.11255e-09
3.08711e-10
7.00568e-09
2.13444e-10
6.93069e-09
1.47752e-10
6.87945e-09
9.88574e-11
6.8468e-09
6.04538e-11
6.82936e-09
2.87261e-11
6.82508e-09
8.15612e-13
6.83271e-09
-2.49797e-11
6.85181e-09
-5.10312e-11
6.88356e-09
-8.16887e-11
6.92882e-09
-1.20159e-10
6.98713e-09
-1.73812e-10
7.05161e-09
-2.50855e-10
7.10082e-09
-3.53571e-10
-4.56185e-10
7.10939e-09
1.08251e-08
5.32784e-10
1.06656e-08
3.73006e-10
1.05514e-08
2.61935e-10
1.04712e-08
1.79063e-10
1.04175e-08
1.14105e-10
1.03853e-08
6.0952e-11
1.03712e-08
1.49269e-11
1.03731e-08
-2.68411e-11
1.03892e-08
-6.71936e-11
1.0419e-08
-1.11464e-10
1.04606e-08
-1.61808e-10
1.05091e-08
-2.22277e-10
1.05531e-08
-2.94879e-10
1.05743e-08
-3.74773e-10
-4.42603e-10
1.05608e-08
1.56414e-08
8.36717e-10
1.54203e-08
5.94163e-10
1.52585e-08
4.2369e-10
1.51417e-08
2.95862e-10
1.50601e-08
1.9569e-10
1.50067e-08
1.14338e-10
1.49766e-08
4.50715e-11
1.49661e-08
-1.63836e-11
1.49725e-08
-7.3534e-11
1.49922e-08
-1.3118e-10
1.50211e-08
-1.90705e-10
1.50518e-08
-2.53004e-10
1.50734e-08
-3.16422e-10
1.50736e-08
-3.75035e-10
-4.17819e-10
1.50488e-08
2.18024e-08
1.21897e-09
2.15165e-08
8.80097e-10
2.1302e-08
6.38206e-10
2.11426e-08
4.55231e-10
2.10268e-08
3.11494e-10
2.09459e-08
1.95275e-10
2.08931e-08
9.78557e-11
2.08633e-08
1.34479e-11
2.08518e-08
-6.20636e-11
2.08532e-08
-1.32624e-10
2.08616e-08
-1.99053e-10
2.08693e-08
-2.6068e-10
2.08679e-08
-3.15071e-10
2.08511e-08
-3.58233e-10
-3.85479e-10
2.08188e-08
2.9568e-08
1.65917e-09
2.92262e-08
1.22196e-09
2.89615e-08
9.02892e-10
2.87586e-08
6.581e-10
2.86055e-08
4.64564e-10
2.84926e-08
3.08197e-10
2.84117e-08
1.7871e-10
2.83562e-08
6.8948e-11
2.83199e-08
-2.56962e-11
2.8296e-08
-1.08793e-10
2.82781e-08
-1.81101e-10
2.82595e-08
-2.42104e-10
2.82349e-08
-2.90492e-10
2.82016e-08
-3.24897e-10
-3.44506e-10
2.81606e-08
3.92027e-08
2.11015e-09
3.88329e-08
1.59176e-09
3.85343e-08
1.2015e-09
3.82967e-08
8.95614e-10
3.81104e-08
6.50885e-10
3.79662e-08
4.52423e-10
3.78556e-08
2.89275e-10
3.77712e-08
1.53426e-10
3.77058e-08
3.96648e-11
3.76526e-08
-5.55907e-11
3.76055e-08
-1.34022e-10
3.75596e-08
-1.96188e-10
3.75117e-08
-2.42613e-10
3.7461e-08
-2.74148e-10
-2.92101e-10
3.74086e-08
5.09679e-08
2.49944e-09
5.06201e-08
1.93958e-09
5.03214e-08
1.50018e-09
5.0072e-08
1.14502e-09
4.98673e-08
8.55546e-10
4.97011e-08
6.18639e-10
4.95661e-08
4.24264e-10
4.94553e-08
2.6428e-10
4.9362e-08
1.32925e-10
4.92803e-08
2.61785e-11
4.92052e-08
-5.89905e-11
4.91336e-08
-1.24602e-10
4.90638e-08
-1.72778e-10
4.89956e-08
-2.05893e-10
-2.26328e-10
4.89298e-08
6.51464e-08
2.75171e-09
6.48812e-08
2.20477e-09
6.4629e-08
1.75236e-09
6.44028e-08
1.37124e-09
6.42058e-08
1.05258e-09
6.40366e-08
7.87743e-10
6.38912e-08
5.69729e-10
6.37643e-08
3.91167e-10
6.36512e-08
2.46021e-10
6.35479e-08
1.29524e-10
6.34511e-08
3.77573e-11
6.33592e-08
-3.27022e-11
6.32715e-08
-8.50753e-11
6.31881e-08
-1.22479e-10
-1.47792e-10
6.31096e-08
8.21207e-08
2.82703e-09
8.19797e-08
2.34575e-09
8.18128e-08
1.91927e-09
8.16439e-08
1.54015e-09
8.14827e-08
1.21377e-09
8.1334e-08
9.36475e-10
8.11971e-08
7.06593e-10
8.10702e-08
5.18138e-10
8.0951e-08
3.65159e-10
8.08381e-08
2.42496e-10
8.07302e-08
1.45654e-10
8.0627e-08
7.05086e-11
8.05285e-08
1.33786e-11
8.04352e-08
-2.91945e-11
-6.01221e-11
8.03476e-08
1.02441e-07
2.78287e-09
1.02429e-07
2.35728e-09
1.02365e-07
1.98331e-09
1.02266e-07
1.63908e-09
1.02155e-07
1.32526e-09
1.02041e-07
1.05048e-09
1.01926e-07
8.21002e-10
1.01813e-07
6.31897e-10
1.017e-07
4.77685e-10
1.01589e-07
3.53245e-10
1.01481e-07
2.54001e-10
1.01376e-07
1.75732e-10
1.01274e-07
1.14737e-10
1.01177e-07
6.76362e-11
3.16453e-11
1.01086e-07
1.26893e-07
2.68471e-09
1.26931e-07
2.31917e-09
1.26935e-07
1.97908e-09
1.26903e-07
1.67182e-09
1.26838e-07
1.38995e-09
1.26756e-07
1.13293e-09
1.26664e-07
9.12926e-10
1.26565e-07
7.30161e-10
1.26463e-07
5.79847e-10
1.26359e-07
4.57241e-10
1.26255e-07
3.58106e-10
1.26152e-07
2.78525e-10
1.26052e-07
2.15067e-10
1.25955e-07
1.64633e-10
1.24692e-10
1.25862e-07
1.56205e-07
2.55102e-09
1.56261e-07
2.26232e-09
1.56282e-07
1.9582e-09
1.56274e-07
1.67997e-09
1.56237e-07
1.42729e-09
1.56174e-07
1.19607e-09
1.56095e-07
9.91828e-10
1.56005e-07
8.19725e-10
1.55909e-07
6.76401e-10
1.55808e-07
5.57883e-10
1.55706e-07
4.60507e-10
1.55603e-07
3.80907e-10
1.55502e-07
3.16101e-10
1.55404e-07
2.63372e-10
2.20485e-10
1.55308e-07
1.90853e-07
2.38825e-09
1.9093e-07
2.18618e-09
1.90957e-07
1.93085e-09
1.90955e-07
1.68226e-09
1.90926e-07
1.45627e-09
1.9087e-07
1.25152e-09
1.90795e-07
1.06682e-09
1.90708e-07
9.07171e-10
1.90612e-07
7.72551e-10
1.9051e-07
6.59595e-10
1.90405e-07
5.65222e-10
1.90299e-07
4.86655e-10
1.90194e-07
4.21443e-10
1.9009e-07
3.67305e-10
3.22326e-10
1.89988e-07
2.30968e-07
2.2152e-09
2.31071e-07
2.0831e-09
2.31109e-07
1.89297e-09
2.31112e-07
1.67936e-09
2.31088e-07
1.48002e-09
2.31039e-07
1.30036e-09
2.30968e-07
1.13849e-09
2.30881e-07
9.94175e-10
2.30784e-07
8.69527e-10
2.3068e-07
7.63336e-10
2.30572e-07
6.7324e-10
2.30462e-07
5.96973e-10
2.3035e-07
5.32527e-10
2.3024e-07
4.78037e-10
4.31934e-10
2.3013e-07
2.76119e-07
2.04705e-09
2.76237e-07
1.96476e-09
2.76294e-07
1.83617e-09
2.76304e-07
1.66949e-09
2.76286e-07
1.49807e-09
2.76244e-07
1.3418e-09
2.7618e-07
1.20245e-09
2.76097e-07
1.07711e-09
2.76002e-07
9.65047e-10
2.75898e-07
8.67342e-10
2.75788e-07
7.82973e-10
2.75674e-07
7.10492e-10
2.75559e-07
6.4826e-10
2.75442e-07
5.94733e-10
5.48665e-10
2.75325e-07
3.24749e-07
1.86746e-09
3.24872e-07
1.84135e-09
3.24958e-07
1.75089e-09
3.24997e-07
1.62972e-09
3.24994e-07
1.50184e-09
3.24962e-07
1.37325e-09
3.24911e-07
1.25388e-09
3.24841e-07
1.14655e-09
3.24757e-07
1.04978e-09
3.24661e-07
9.62873e-10
3.24557e-07
8.86622e-10
3.24448e-07
8.20075e-10
3.24334e-07
7.62017e-10
3.24217e-07
7.1128e-10
6.6683e-10
3.24099e-07
3.73648e-07
1.65647e-09
3.73815e-07
1.67472e-09
3.73933e-07
1.63241e-09
3.74007e-07
1.55649e-09
3.74044e-07
1.4642e-09
3.74048e-07
1.3692e-09
3.74025e-07
1.27722e-09
3.73982e-07
1.18951e-09
3.73922e-07
1.10996e-09
3.73847e-07
1.03808e-09
3.7376e-07
9.73344e-10
3.73665e-07
9.1527e-10
3.73563e-07
8.63517e-10
3.73457e-07
8.17462e-10
7.76439e-10
3.73347e-07
3.70902e-07
1.48748e-09
3.71045e-07
1.53183e-09
3.71158e-07
1.51875e-09
3.71239e-07
1.47558e-09
3.71288e-07
1.41591e-09
3.71308e-07
1.34887e-09
3.71307e-07
1.2782e-09
3.71285e-07
1.21126e-09
3.71246e-07
1.14892e-09
3.71194e-07
1.09023e-09
3.71131e-07
1.03616e-09
3.71059e-07
9.87309e-10
3.7098e-07
9.42684e-10
3.70896e-07
9.01833e-10
8.64371e-10
3.70808e-07
3.17194e-07
1.31148e-09
3.17358e-07
1.36779e-09
3.17499e-07
1.37688e-09
3.17617e-07
1.3578e-09
3.17711e-07
1.32217e-09
3.17782e-07
1.27795e-09
3.1783e-07
1.22995e-09
3.1786e-07
1.18159e-09
3.17874e-07
1.13479e-09
3.17874e-07
1.09015e-09
3.17862e-07
1.04792e-09
3.17841e-07
1.00839e-09
3.17813e-07
9.71085e-10
3.17779e-07
9.36043e-10
9.03023e-10
3.1774e-07
2.6528e-07
1.18072e-09
2.6541e-07
1.23842e-09
2.65529e-07
1.25738e-09
2.65635e-07
1.25197e-09
2.65726e-07
1.23165e-09
2.65801e-07
1.20298e-09
2.65861e-07
1.17008e-09
2.65907e-07
1.13528e-09
2.65942e-07
1.10008e-09
2.65966e-07
1.06541e-09
2.65983e-07
1.03171e-09
2.65992e-07
9.99104e-10
2.65995e-07
9.67544e-10
2.65994e-07
9.36954e-10
9.07199e-10
2.6599e-07
2.18097e-07
1.065e-09
2.18217e-07
1.11805e-09
2.18334e-07
1.1405e-09
2.18443e-07
1.14301e-09
2.18542e-07
1.13289e-09
2.1863e-07
1.11512e-09
2.18707e-07
1.09285e-09
2.18774e-07
1.0679e-09
2.18833e-07
1.04152e-09
2.18884e-07
1.01454e-09
2.18928e-07
9.87421e-10
2.18967e-07
9.60298e-10
2.19001e-07
9.33185e-10
2.19032e-07
9.0605e-10
8.78834e-10
2.1906e-07
1.76739e-07
9.4986e-10
1.76862e-07
9.95128e-10
1.76985e-07
1.01727e-09
1.77104e-07
1.02378e-09
1.77217e-07
1.02e-09
1.77323e-07
1.00949e-09
1.77421e-07
9.94592e-10
1.77512e-07
9.76763e-10
1.77597e-07
9.56973e-10
1.77675e-07
9.35865e-10
1.77749e-07
9.13803e-10
1.77818e-07
8.90944e-10
1.77884e-07
8.67335e-10
1.77947e-07
8.42982e-10
8.17868e-10
1.78008e-07
1.41479e-07
8.26857e-10
1.4161e-07
8.63784e-10
1.41744e-07
8.83804e-10
1.41876e-07
8.91947e-10
1.42004e-07
8.91905e-10
1.42127e-07
8.86174e-10
1.42245e-07
8.76437e-10
1.42358e-07
8.63784e-10
1.42466e-07
8.48918e-10
1.4257e-07
8.323e-10
1.42669e-07
8.14214e-10
1.42766e-07
7.9481e-10
1.42859e-07
7.74157e-10
1.42949e-07
7.52291e-10
7.2922e-10
1.43038e-07
1.12057e-07
6.95563e-10
1.12196e-07
7.25041e-10
1.12337e-07
7.42432e-10
1.12478e-07
7.51004e-10
1.12617e-07
7.53204e-10
1.12753e-07
7.50711e-10
1.12884e-07
7.44686e-10
1.13012e-07
7.35889e-10
1.13136e-07
7.24813e-10
1.13257e-07
7.11791e-10
1.13374e-07
6.97042e-10
1.13488e-07
6.80702e-10
1.13599e-07
6.6285e-10
1.13708e-07
6.43536e-10
6.22794e-10
1.13815e-07
8.79036e-08
5.6218e-10
8.80431e-08
5.85559e-10
8.81851e-08
6.00455e-10
8.83272e-08
6.08916e-10
8.84679e-08
6.12473e-10
8.86064e-08
6.12219e-10
8.87422e-08
6.08922e-10
8.8875e-08
6.03095e-10
8.90047e-08
5.95081e-10
8.91314e-08
5.85119e-10
8.9255e-08
5.73377e-10
8.93758e-08
5.59972e-10
8.94936e-08
5.44984e-10
8.96087e-08
5.28474e-10
5.10495e-10
8.9721e-08
6.83137e-08
4.35401e-10
6.84453e-08
4.53928e-10
6.85791e-08
4.66618e-10
6.87134e-08
4.74666e-10
6.88469e-08
4.78976e-10
6.89789e-08
4.80245e-10
6.91088e-08
4.78966e-10
6.92364e-08
4.75476e-10
6.93615e-08
4.70005e-10
6.94839e-08
4.62726e-10
6.96035e-08
4.53765e-10
6.97203e-08
4.43221e-10
6.98341e-08
4.31174e-10
6.99449e-08
4.17688e-10
4.02828e-10
7.00525e-08
5.25719e-08
3.2272e-10
5.26885e-08
3.3735e-10
5.2807e-08
3.48061e-10
5.29262e-08
3.55454e-10
5.30451e-08
3.60046e-10
5.31631e-08
3.62271e-10
5.32797e-08
3.62432e-10
5.33944e-08
3.60743e-10
5.3507e-08
3.57356e-10
5.36174e-08
3.52393e-10
5.37252e-08
3.45948e-10
5.38303e-08
3.38106e-10
5.39325e-08
3.28937e-10
5.40317e-08
3.18506e-10
3.06878e-10
5.41277e-08
4.002e-08
2.28621e-10
4.01173e-08
2.40036e-10
4.02164e-08
2.48902e-10
4.03165e-08
2.55427e-10
4.04166e-08
2.59907e-10
4.05163e-08
2.62605e-10
4.0615e-08
2.63696e-10
4.07124e-08
2.6331e-10
4.08083e-08
2.61543e-10
4.09022e-08
2.5848e-10
4.09939e-08
2.54192e-10
4.10833e-08
2.48744e-10
4.117e-08
2.42197e-10
4.12539e-08
2.34609e-10
2.2604e-10
4.13348e-08
3.00835e-08
1.54403e-10
3.01604e-08
1.63107e-10
3.02391e-08
1.70218e-10
3.03188e-08
1.7571e-10
3.03989e-08
1.79769e-10
3.0479e-08
1.82539e-10
3.05586e-08
1.84111e-10
3.06373e-08
1.84562e-10
3.07149e-08
1.83951e-10
3.07911e-08
1.82333e-10
3.08655e-08
1.79758e-10
3.0938e-08
1.76276e-10
3.10082e-08
1.71933e-10
3.10761e-08
1.66779e-10
1.60864e-10
3.11412e-08
2.22746e-08
9.89298e-11
2.23324e-08
1.05332e-10
2.23918e-08
1.10791e-10
2.24523e-08
1.15169e-10
2.25135e-08
1.18594e-10
2.25749e-08
1.2113e-10
2.26362e-08
1.22819e-10
2.26971e-08
1.23703e-10
2.27572e-08
1.23815e-10
2.28163e-08
1.23189e-10
2.28742e-08
1.21858e-10
2.29307e-08
1.19857e-10
2.29854e-08
1.17219e-10
2.30382e-08
1.13984e-10
1.10189e-10
2.30888e-08
1.61848e-08
5.96117e-11
1.6226e-08
6.40858e-11
1.62688e-08
6.8045e-11
1.63126e-08
7.13229e-11
1.63572e-08
7.40074e-11
1.64022e-08
7.61132e-11
1.64474e-08
7.76567e-11
1.64924e-08
7.86566e-11
1.65371e-08
7.91295e-11
1.65812e-08
7.90952e-11
1.66245e-08
7.85722e-11
1.66668e-08
7.75844e-11
1.67079e-08
7.61535e-11
1.67475e-08
7.4309e-11
7.20775e-11
1.67856e-08
1.14748e-08
3.32673e-11
1.15027e-08
3.61769e-11
1.15319e-08
3.88487e-11
1.15621e-08
4.11259e-11
1.15931e-08
4.30633e-11
1.16245e-08
4.46503e-11
1.16563e-08
4.58906e-11
1.16882e-08
4.67903e-11
1.17199e-08
4.73562e-11
1.17514e-08
4.75983e-11
1.17825e-08
4.75263e-11
1.18129e-08
4.71544e-11
1.18426e-08
4.64956e-11
1.18713e-08
4.55705e-11
4.43975e-11
1.1899e-08
7.86475e-09
1.67258e-11
7.8825e-09
1.84304e-11
7.90128e-09
2.00695e-11
7.9209e-09
2.15073e-11
7.94119e-09
2.27703e-11
7.962e-09
2.38404e-11
7.98318e-09
2.47163e-11
8.00457e-09
2.53988e-11
8.02603e-09
2.58892e-11
8.04744e-09
2.61919e-11
8.06866e-09
2.63111e-11
8.08956e-09
2.62545e-11
8.11002e-09
2.60285e-11
8.12995e-09
2.56469e-11
2.5123e-11
8.14922e-09
5.12535e-09
7.17369e-12
5.13576e-09
8.01953e-12
5.14694e-09
8.89584e-12
5.15875e-09
9.68808e-12
5.17112e-09
1.04024e-11
5.18394e-09
1.10244e-11
5.1971e-09
1.1552e-11
5.21052e-09
1.19839e-11
5.22409e-09
1.23199e-11
5.23772e-09
1.25614e-11
5.25132e-09
1.27095e-11
5.26481e-09
1.27681e-11
5.27809e-09
1.27395e-11
5.29111e-09
1.2632e-11
1.24564e-11
5.30378e-09
3.07029e-09
2.30502e-12
3.0757e-09
2.61107e-12
3.08162e-09
2.98275e-12
3.08797e-09
3.32996e-12
3.09473e-09
3.64897e-12
3.10182e-09
3.93302e-12
3.10919e-09
4.18092e-12
3.11678e-09
4.39183e-12
3.12454e-09
4.56513e-12
3.1324e-09
4.70116e-12
3.14031e-09
4.79993e-12
3.14821e-09
4.86297e-12
3.15606e-09
4.89057e-12
3.16381e-09
4.88713e-12
4.86155e-12
3.1714e-09
1.54936e-09
3.43841e-13
1.55158e-09
3.86429e-13
1.55408e-09
4.80463e-13
1.55684e-09
5.71015e-13
1.55984e-09
6.54633e-13
1.56304e-09
7.30458e-13
1.56642e-09
7.98416e-13
1.56995e-09
8.58333e-13
1.57361e-09
9.09997e-13
1.57736e-09
9.53461e-13
1.58117e-09
9.88541e-13
1.58502e-09
1.01562e-12
1.58887e-09
1.03449e-12
1.59271e-09
1.04661e-12
1.05799e-12
1.59652e-09
4.42338e-10
4.42724e-10
4.43205e-10
4.43776e-10
4.4443e-10
4.45161e-10
4.45959e-10
4.46818e-10
4.47728e-10
4.48681e-10
4.4967e-10
4.50685e-10
4.5172e-10
4.52766e-10
4.53824e-10
1.25597e-09
-5.4683e-10
3.43624e-10
1.54378e-09
-5.10977e-10
2.23166e-10
1.83088e-09
-4.13952e-10
1.26847e-10
2.11039e-09
-3.19652e-10
4.01386e-11
2.38037e-09
-2.34649e-10
-3.53233e-11
2.64148e-09
-1.66132e-10
-9.49815e-11
2.89529e-09
-1.14473e-10
-1.39339e-10
3.14322e-09
-7.84122e-11
-1.69515e-10
3.38655e-09
-5.57456e-11
-1.87583e-10
3.62636e-09
-4.31556e-11
-1.9666e-10
3.86354e-09
-3.60062e-11
-2.01172e-10
4.09879e-09
-2.76427e-11
-2.07603e-10
4.33276e-09
-8.23819e-12
-2.25728e-10
4.56626e-09
3.70176e-11
-2.70526e-10
4.80065e-09
1.29907e-10
-3.64289e-10
5.03823e-09
3.01753e-10
-5.39335e-10
5.28291e-09
5.95345e-10
-8.40025e-10
5.54107e-09
1.06369e-09
-1.32185e-09
5.82164e-09
1.76861e-09
-2.04919e-09
6.13663e-09
2.76525e-09
-3.08024e-09
6.49962e-09
4.03993e-09
-4.40291e-09
6.91929e-09
5.50193e-09
-5.9216e-09
7.32073e-09
5.82433e-09
-6.22577e-09
7.66209e-09
5.18464e-09
-5.526e-09
7.93608e-09
4.13381e-09
-4.4078e-09
8.14196e-09
2.8746e-09
-3.08048e-09
8.282e-09
1.55222e-09
-1.69226e-09
8.35915e-09
2.61127e-10
-3.38274e-10
8.3759e-09
-9.36592e-10
9.19844e-10
8.33438e-09
-1.99759e-09
2.03911e-09
8.23678e-09
-2.88979e-09
2.98738e-09
8.08583e-09
-3.58999e-09
3.74094e-09
7.88498e-09
-4.08388e-09
4.28473e-09
7.6383e-09
-4.36634e-09
4.61302e-09
7.35014e-09
-4.44096e-09
4.72911e-09
7.02468e-09
-4.31832e-09
4.64378e-09
6.66548e-09
-4.01337e-09
4.37257e-09
6.2753e-09
-3.54185e-09
3.93202e-09
5.85645e-09
-2.91602e-09
3.33487e-09
5.41097e-09
-2.14049e-09
2.58597e-09
4.93945e-09
-1.21403e-09
1.68555e-09
4.43699e-09
-1.46828e-10
6.49292e-10
3.892e-09
9.83451e-10
-4.38465e-10
3.31698e-09
1.97685e-09
-1.40182e-09
2.22582e-09
2.98438e-09
-1.89323e-09
2.59871e-09
-6.25753e-10
2.76516e-09
-6.77434e-10
2.98983e-09
-6.38614e-10
3.23918e-09
-5.69011e-10
3.49824e-09
-4.93705e-10
3.75907e-09
-4.26961e-10
4.0186e-09
-3.74007e-10
4.27575e-09
-3.35555e-10
4.53036e-09
-3.10362e-10
4.78273e-09
-2.95525e-10
5.03328e-09
-2.86552e-10
5.28246e-09
-2.76829e-10
5.53084e-09
-2.56611e-10
5.77921e-09
-2.1136e-10
6.02903e-09
-1.19913e-10
6.28284e-09
4.79485e-11
6.5449e-09
3.33282e-10
6.82223e-09
7.86364e-10
7.12461e-09
1.46623e-09
7.4652e-09
2.42466e-09
7.85922e-09
3.6459e-09
8.31721e-09
5.04394e-09
8.75845e-09
5.38308e-09
9.13708e-09
4.80602e-09
9.44443e-09
3.82646e-09
9.67876e-09
2.64027e-09
9.84176e-09
1.38922e-09
9.93607e-09
1.6682e-10
9.96418e-09
-9.64699e-10
9.92843e-09
-1.96184e-09
9.83147e-09
-2.79283e-09
9.67668e-09
-3.4352e-09
9.4684e-09
-3.8756e-09
9.21185e-09
-4.10978e-09
8.91279e-09
-4.1419e-09
8.57723e-09
-3.98276e-09
8.21121e-09
-3.64734e-09
7.82102e-09
-3.15165e-09
7.41439e-09
-2.50939e-09
7.00273e-09
-1.72883e-09
6.60391e-09
-8.15209e-10
6.24434e-09
2.12745e-10
5.96119e-09
1.2666e-09
5.81566e-09
2.12237e-09
2.28645e-09
5.75504e-09
4.49928e-09
-6.37253e-10
4.56862e-09
-7.46775e-10
4.70513e-09
-7.75121e-10
4.89378e-09
-7.57656e-10
5.11334e-09
-7.13265e-10
5.35025e-09
-6.63874e-10
5.59652e-09
-6.20279e-10
5.84753e-09
-5.86568e-10
6.1008e-09
-5.63627e-10
6.35507e-09
-5.49797e-10
6.6098e-09
-5.41282e-10
6.86486e-09
-5.31883e-10
7.12044e-09
-5.12193e-10
7.3772e-09
-4.68123e-10
7.63658e-09
-3.79296e-10
7.9013e-09
-2.16767e-10
8.17597e-09
5.86087e-11
8.46826e-09
4.94076e-10
8.78885e-09
1.14564e-09
9.15204e-09
2.06147e-09
9.57493e-09
3.22301e-09
1.00701e-08
4.54872e-09
1.05514e-08
4.90181e-09
1.09686e-08
4.38884e-09
1.13113e-08
3.48375e-09
1.15765e-08
2.37508e-09
1.1765e-08
1.20071e-09
1.1879e-08
5.28261e-11
1.19209e-08
-1.00659e-09
1.18933e-08
-1.93421e-09
1.17993e-08
-2.69887e-09
1.16432e-08
-3.27914e-09
1.14305e-08
-3.66289e-09
1.11678e-08
-3.84705e-09
1.08626e-08
-3.8367e-09
1.05232e-08
-3.64341e-09
1.01588e-08
-3.28292e-09
9.77987e-09
-2.77272e-09
9.40032e-09
-2.12984e-09
9.04096e-09
-1.36947e-09
8.73418e-09
-5.08431e-10
8.52598e-09
4.20943e-10
8.46464e-09
1.32794e-09
8.56388e-09
2.02313e-09
2.1868e-09
8.66352e-09
7.08298e-09
-6.10838e-10
7.08568e-09
-7.49473e-10
7.13857e-09
-8.28017e-10
7.2462e-09
-8.65288e-10
7.40162e-09
-8.68685e-10
7.58898e-09
-8.5123e-10
7.79833e-09
-8.2963e-10
8.02225e-09
-8.10488e-10
8.25581e-09
-7.97186e-10
8.49585e-09
-7.89834e-10
8.74043e-09
-7.85865e-10
8.98848e-09
-7.7993e-10
9.23958e-09
-7.63297e-10
9.49404e-09
-7.22588e-10
9.75319e-09
-6.38439e-10
1.00198e-08
-4.83399e-10
1.02989e-08
-2.20453e-10
1.05987e-08
1.94252e-10
1.09309e-08
8.13433e-10
1.1311e-08
1.68143e-09
1.1758e-08
2.776e-09
1.2287e-08
4.01967e-09
1.28067e-08
4.38213e-09
1.32623e-08
3.9332e-09
1.36414e-08
3.10466e-09
1.39392e-08
2.07731e-09
1.41553e-08
9.84616e-10
1.42912e-08
-8.31288e-11
1.43493e-08
-1.06462e-09
1.43322e-08
-1.91717e-09
1.4244e-08
-2.61061e-09
1.40898e-08
-3.12492e-09
1.38764e-08
-3.44953e-09
1.36123e-08
-3.58288e-09
1.3307e-08
-3.53141e-09
1.29715e-08
-3.30793e-09
1.26183e-08
-2.92973e-09
1.22623e-08
-2.41675e-09
1.1923e-08
-1.79048e-09
1.16275e-08
-1.07398e-09
1.14144e-08
-2.95367e-10
1.1332e-08
5.03397e-10
1.14173e-08
1.24256e-09
1.16521e-08
1.78838e-09
1.97007e-09
1.18688e-08
1.05167e-08
-5.66737e-10
1.04754e-08
-7.08237e-10
1.04652e-08
-8.17801e-10
1.04955e-08
-8.9562e-10
1.05703e-08
-9.43475e-10
1.06877e-08
-9.68559e-10
1.08366e-08
-9.78559e-10
1.10097e-08
-9.836e-10
1.12009e-08
-9.88395e-10
1.14056e-08
-9.94482e-10
1.16204e-08
-1.00068e-09
1.18432e-08
-1.00277e-09
1.20729e-08
-9.9299e-10
1.23093e-08
-9.58956e-10
1.25534e-08
-8.82586e-10
1.28082e-08
-7.38182e-10
1.30788e-08
-4.91103e-10
1.33744e-08
-1.01318e-10
1.37075e-08
4.80316e-10
1.40947e-08
1.29422e-09
1.45575e-08
2.31327e-09
1.51135e-08
3.46366e-09
1.56671e-08
3.82854e-09
1.61588e-08
3.44145e-09
1.65735e-08
2.68995e-09
1.69043e-08
1.74659e-09
1.71491e-08
7.39789e-10
1.73086e-08
-2.42687e-10
1.73849e-08
-1.14084e-09
1.73809e-08
-1.91318e-09
1.73013e-08
-2.53105e-09
1.71526e-08
-2.97623e-09
1.69432e-08
-3.24011e-09
1.66833e-08
-3.32301e-09
1.6385e-08
-3.23309e-09
1.6062e-08
-2.9849e-09
1.573e-08
-2.59776e-09
1.54077e-08
-2.09447e-09
1.51181e-08
-1.50087e-09
1.48904e-08
-8.46253e-10
1.47607e-08
-1.65666e-10
1.47672e-08
4.96822e-10
1.49303e-08
1.07951e-09
1.52179e-08
1.50078e-09
1.67896e-09
1.5509e-08
1.49985e-08
-5.16417e-10
1.49356e-08
-6.45291e-10
1.48817e-08
-7.63952e-10
1.48512e-08
-8.65093e-10
1.48522e-08
-9.44444e-10
1.48901e-08
-1.00648e-09
1.49624e-08
-1.05084e-09
1.50642e-08
-1.08549e-09
1.51905e-08
-1.11468e-09
1.53365e-08
-1.14049e-09
1.54985e-08
-1.16264e-09
1.56736e-08
-1.17787e-09
1.58601e-08
-1.17952e-09
1.60575e-08
-1.15631e-09
1.62666e-08
-1.09172e-09
1.64905e-08
-9.62033e-10
1.67346e-08
-7.35219e-10
1.70089e-08
-3.7561e-10
1.73271e-08
1.6212e-10
1.77068e-08
9.14523e-10
1.81719e-08
1.8481e-09
1.87434e-08
2.89218e-09
1.93224e-08
3.24953e-09
1.98447e-08
2.91921e-09
2.02916e-08
2.24304e-09
2.06535e-08
1.38471e-09
2.09264e-08
4.66839e-10
2.11099e-08
-4.26159e-10
2.12054e-08
-1.23636e-09
2.12164e-08
-1.92414e-09
2.11483e-08
-2.46295e-09
2.10089e-08
-2.83687e-09
2.08084e-08
-3.03963e-09
2.05592e-08
-3.07374e-09
2.02755e-08
-2.94942e-09
1.99738e-08
-2.68316e-09
1.96724e-08
-2.29642e-09
1.93925e-08
-1.81451e-09
1.91578e-08
-1.26625e-09
1.89955e-08
-6.83919e-10
1.89336e-08
-1.03728e-10
1.89958e-08
4.34623e-10
1.91875e-08
8.87746e-10
1.94767e-08
1.21158e-09
1.37357e-09
1.97821e-08
2.07663e-08
-4.63991e-10
2.06957e-08
-5.74686e-10
2.06189e-08
-6.87105e-10
2.05475e-08
-7.93707e-10
2.04925e-08
-8.89402e-10
2.04598e-08
-9.73781e-10
2.04542e-08
-1.04524e-09
2.04754e-08
-1.10675e-09
2.05215e-08
-1.16081e-09
2.05898e-08
-1.20872e-09
2.06773e-08
-1.25012e-09
2.07816e-08
-1.28222e-09
2.09012e-08
-1.29913e-09
2.10356e-08
-1.29066e-09
2.11857e-08
-1.24191e-09
2.13551e-08
-1.13138e-09
2.15496e-08
-9.29735e-10
2.17803e-08
-6.06349e-10
2.20623e-08
-1.19884e-10
2.24142e-08
5.62691e-10
2.28628e-08
1.39948e-09
2.34325e-08
2.32247e-09
2.40233e-08
2.65878e-09
2.45659e-08
2.37654e-09
2.50378e-08
1.77117e-09
2.54257e-08
9.96763e-10
2.57234e-08
1.69132e-10
2.59289e-08
-6.3162e-10
2.60431e-08
-1.35055e-09
2.60697e-08
-1.95071e-09
2.6015e-08
-2.40831e-09
2.58884e-08
-2.71025e-09
2.57017e-08
-2.85295e-09
2.54694e-08
-2.8414e-09
2.52079e-08
-2.68794e-09
2.49357e-08
-2.41095e-09
2.46728e-08
-2.03357e-09
2.44409e-08
-1.58256e-09
2.42622e-08
-1.08757e-09
2.41586e-08
-5.80305e-10
2.41484e-08
-9.34864e-11
2.42418e-08
3.41169e-10
2.44342e-08
6.95414e-10
2.46978e-08
9.47926e-10
1.08938e-09
2.4982e-08
2.81048e-08
-4.08131e-10
2.80309e-08
-5.00818e-10
2.79438e-08
-6.00002e-10
2.78505e-08
-7.00444e-10
2.7759e-08
-7.97902e-10
2.76754e-08
-8.90126e-10
2.76055e-08
-9.75393e-10
2.75526e-08
-1.05377e-09
2.75177e-08
-1.12591e-09
2.75008e-08
-1.19189e-09
2.75013e-08
-1.25064e-09
2.75183e-08
-1.29922e-09
2.75514e-08
-1.33217e-09
2.76008e-08
-1.34007e-09
2.76685e-08
-1.30965e-09
2.77588e-08
-1.22165e-09
2.78785e-08
-1.04938e-09
2.80402e-08
-7.68037e-10
2.82607e-08
-3.40418e-10
2.85594e-08
2.63949e-10
2.89669e-08
9.91975e-10
2.95115e-08
1.77791e-09
3.00943e-08
2.076e-09
3.06418e-08
1.82905e-09
3.11264e-08
1.28655e-09
3.15309e-08
5.92241e-10
3.18461e-08
-1.4609e-10
3.20684e-08
-8.53861e-10
3.21979e-08
-1.48011e-09
3.22387e-08
-1.99145e-09
3.21979e-08
-2.36755e-09
3.20863e-08
-2.59862e-09
3.19174e-08
-2.6841e-09
3.17075e-08
-2.63148e-09
3.14747e-08
-2.45512e-09
3.12386e-08
-2.17482e-09
3.10195e-08
-1.81449e-09
3.08377e-08
-1.40082e-09
3.07122e-08
-9.62021e-10
3.06583e-08
-5.26434e-10
3.06856e-08
-1.20808e-10
3.07951e-08
2.31749e-10
3.09765e-08
5.14012e-10
3.12075e-08
7.1689e-10
8.40498e-10
3.14564e-08
3.73454e-08
-3.44917e-10
3.72663e-08
-4.21753e-10
3.71725e-08
-5.06188e-10
3.70671e-08
-5.95069e-10
3.69545e-08
-6.85296e-10
3.6839e-08
-7.74596e-10
3.67249e-08
-8.613e-10
3.66156e-08
-9.44514e-10
3.65136e-08
-1.02385e-09
3.64203e-08
-1.09861e-09
3.63369e-08
-1.16722e-09
3.62641e-08
-1.22649e-09
3.62033e-08
-1.27132e-09
3.61561e-08
-1.29287e-09
3.6126e-08
-1.27953e-09
3.61187e-08
-1.21435e-09
3.61423e-08
-1.073e-09
3.62117e-08
-8.37434e-10
3.63459e-08
-4.74674e-10
3.65652e-08
4.47114e-11
3.69041e-08
6.53086e-10
3.73956e-08
1.28637e-09
3.79451e-08
1.5265e-09
3.84761e-08
1.29805e-09
3.89557e-08
8.06964e-10
3.93621e-08
1.85877e-10
3.96828e-08
-4.66811e-10
3.99124e-08
-1.08345e-09
4.00504e-08
-1.61815e-09
4.01009e-08
-2.04196e-09
4.00721e-08
-2.33868e-09
3.99757e-08
-2.50228e-09
3.98269e-08
-2.53531e-09
3.96431e-08
-2.44767e-09
3.94433e-08
-2.25528e-09
3.9247e-08
-1.9786e-09
3.90737e-08
-1.64112e-09
3.89407e-08
-1.26786e-09
3.88626e-08
-8.83866e-10
3.88487e-08
-5.12589e-10
3.89022e-08
-1.74312e-10
3.90187e-08
1.15304e-10
3.91866e-08
3.4607e-10
3.93882e-08
5.15289e-10
6.26026e-10
3.96027e-08
4.88559e-08
-2.71074e-10
4.87683e-08
-3.34139e-10
4.86665e-08
-4.04377e-10
4.85515e-08
-4.80016e-10
4.84251e-08
-5.58943e-10
4.82898e-08
-6.39265e-10
4.81479e-08
-7.19439e-10
4.80017e-08
-7.98322e-10
4.78529e-08
-8.75063e-10
4.7703e-08
-9.48658e-10
4.75532e-08
-1.01742e-09
4.7405e-08
-1.07827e-09
4.72604e-08
-1.12678e-09
4.71224e-08
-1.15481e-09
4.69955e-08
-1.15272e-09
4.68873e-08
-1.10615e-09
4.68072e-08
-9.92848e-10
4.67723e-08
-8.02573e-10
4.68044e-08
-5.06774e-10
4.69244e-08
-7.52589e-11
4.71709e-08
4.06613e-10
4.75821e-08
8.75111e-10
4.80707e-08
1.03795e-09
4.856e-08
8.0874e-10
4.90122e-08
3.5476e-10
4.94008e-08
-2.027e-10
4.97102e-08
-7.7626e-10
4.99333e-08
-1.3065e-09
5.00689e-08
-1.75378e-09
5.01213e-08
-2.09436e-09
5.00994e-08
-2.31672e-09
5.00159e-08
-2.41879e-09
4.98868e-08
-2.4062e-09
4.973e-08
-2.29089e-09
4.95643e-08
-2.08965e-09
4.94084e-08
-1.82261e-09
4.92789e-08
-1.51167e-09
4.919e-08
-1.17896e-09
4.91515e-08
-8.45379e-10
4.91682e-08
-5.29258e-10
4.92391e-08
-2.45241e-10
4.93572e-08
-2.75023e-12
4.95124e-08
1.90863e-10
4.96904e-08
3.37227e-10
4.39315e-10
4.98771e-08
6.30246e-08
-1.86152e-10
6.29275e-08
-2.36984e-10
6.28171e-08
-2.93968e-10
6.26932e-08
-3.56176e-10
6.25565e-08
-4.22246e-10
6.2408e-08
-4.90715e-10
6.22487e-08
-5.60201e-10
6.20799e-08
-6.29498e-10
6.19024e-08
-6.975e-10
6.17167e-08
-7.63006e-10
6.15237e-08
-8.24375e-10
6.13241e-08
-8.78736e-10
6.112e-08
-9.22605e-10
6.09139e-08
-9.48712e-10
6.07109e-08
-9.49745e-10
6.05191e-08
-9.14332e-10
6.03486e-08
-8.22373e-10
6.02181e-08
-6.72054e-10
6.01509e-08
-4.39648e-10
6.01696e-08
-9.39375e-11
6.03145e-08
2.61719e-10
6.06278e-08
5.61821e-10
6.10322e-08
6.33542e-10
6.14561e-08
3.8484e-10
6.18577e-08
-4.6872e-11
6.22069e-08
-5.51893e-10
6.24855e-08
-1.05482e-09
6.2685e-08
-1.50603e-09
6.28043e-08
-1.87305e-09
6.28478e-08
-2.13789e-09
6.2825e-08
-2.29392e-09
6.27493e-08
-2.34303e-09
6.26367e-08
-2.29359e-09
6.25047e-08
-2.15894e-09
6.2371e-08
-1.95593e-09
6.22518e-08
-1.70343e-09
6.2161e-08
-1.42083e-09
6.21087e-08
-1.12672e-09
6.2101e-08
-8.37679e-10
6.21392e-08
-5.67406e-10
6.222e-08
-3.26101e-10
6.23374e-08
-1.20148e-10
6.24807e-08
4.75839e-11
6.26402e-08
1.77763e-10
2.73969e-10
6.28055e-08
8.02545e-08
-9.30884e-11
8.01504e-08
-1.32912e-10
8.00341e-08
-1.77649e-10
7.99048e-08
-2.26852e-10
7.97622e-08
-2.79685e-10
7.96066e-08
-3.35088e-10
7.94383e-08
-3.91898e-10
7.92577e-08
-4.48961e-10
7.90653e-08
-5.05066e-10
7.88612e-08
-5.58883e-10
7.86456e-08
-6.08814e-10
7.8419e-08
-6.52142e-10
7.81827e-08
-6.86303e-10
7.79388e-08
-7.04814e-10
7.76919e-08
-7.0281e-10
7.74493e-08
-6.71691e-10
7.72213e-08
-5.94411e-10
7.70259e-08
-4.76699e-10
7.68853e-08
-2.9903e-10
7.68272e-08
-3.57777e-11
7.68873e-08
2.0156e-10
7.71014e-08
3.47711e-10
7.74126e-08
3.22356e-10
7.7758e-08
3.94068e-11
7.80928e-08
-3.81652e-10
7.83849e-08
-8.43984e-10
7.86151e-08
-1.285e-09
7.8775e-08
-1.66596e-09
7.88641e-08
-1.96208e-09
7.88874e-08
-2.16126e-09
7.88551e-08
-2.26159e-09
7.87805e-08
-2.26844e-09
7.86792e-08
-2.19228e-09
7.85674e-08
-2.0471e-09
7.84604e-08
-1.84897e-09
7.83717e-08
-1.61474e-09
7.83117e-08
-1.36086e-09
7.82873e-08
-1.10227e-09
7.83013e-08
-8.51711e-10
7.83531e-08
-6.19157e-10
7.84386e-08
-4.11638e-10
7.85516e-08
-2.33169e-10
7.86843e-08
-8.50689e-11
7.88284e-08
3.36183e-11
1.25476e-10
7.89769e-08
1.00989e-07
3.45762e-12
1.00883e-07
-2.65568e-11
1.00765e-07
-6.02175e-11
1.00636e-07
-9.73248e-11
1.00494e-07
-1.37372e-10
1.00338e-07
-1.79624e-10
1.00169e-07
-2.23163e-10
9.99874e-08
-2.66982e-10
9.97922e-08
-3.09905e-10
9.9584e-08
-3.50631e-10
9.93628e-08
-3.87639e-10
9.91291e-08
-4.18467e-10
9.88841e-08
-4.41297e-10
9.86297e-08
-4.50392e-10
9.83704e-08
-4.43488e-10
9.81118e-08
-4.13106e-10
9.78654e-08
-3.48065e-10
9.7647e-08
-2.58236e-10
9.74721e-08
-1.24149e-10
9.73807e-08
5.5559e-11
9.74012e-08
1.81117e-10
9.75319e-08
2.17031e-10
9.7758e-08
9.62614e-11
9.80325e-08
-2.35097e-10
9.82999e-08
-6.49059e-10
9.85285e-08
-1.07265e-09
9.87017e-08
-1.45817e-09
9.88128e-08
-1.77708e-09
9.8863e-08
-2.01226e-09
9.88588e-08
-2.15708e-09
9.88109e-08
-2.21363e-09
9.87323e-08
-2.18987e-09
9.86375e-08
-2.09746e-09
9.85405e-08
-1.95015e-09
9.84541e-08
-1.76258e-09
9.83886e-08
-1.5492e-09
9.83512e-08
-1.32344e-09
9.83459e-08
-1.09698e-09
9.83736e-08
-8.79397e-10
9.84323e-08
-6.77904e-10
9.8518e-08
-4.97325e-10
9.86251e-08
-3.40234e-10
9.87473e-08
-2.07285e-10
9.88785e-08
-9.75598e-11