/*--------------------------------*- C++ -*----------------------------------*\
| =========                 |                                                 |
| \\      /  F ield         | OpenFOAM: The Open Source CFD Toolbox           |
|  \\    /   O peration     | Version:  2312                                  |
|   \\  /    A nd           | Website:  www.openfoam.com                      |
|    \\/     M anipulation  |                                                 |
\*---------------------------------------------------------------------------*/
FoamFile
{
    version     2.0;
    format      ascii;
    arch        "LSB;label=32;scalar=64";
    class       volScalarField;
    location    "168.5";
    object      p;
}
// * * * * * * * * * * * * * * * * * * * * * * * * * * * * * * * * * * * * * //

dimensions      [0 2 -2 0 0 0 0];

internalField   nonuniform List<scalar> 
4800
(
6.83211e-13
-1.28178e-06
-2.29247e-06
-3.10813e-06
-3.78102e-06
-4.34087e-06
-4.82461e-06
-5.24478e-06
-5.61264e-06
-5.94068e-06
-6.23656e-06
-6.50162e-06
-6.73033e-06
-7.15602e-06
-8.6996e-06
1.63327e-08
-1.26426e-06
-2.27468e-06
-3.09069e-06
-3.76471e-06
-4.32642e-06
-4.813e-06
-5.23711e-06
-5.61043e-06
-5.9474e-06
-6.26046e-06
-6.56387e-06
-6.87122e-06
-7.28825e-06
-8.05091e-06
3.32557e-08
-1.24598e-06
-2.25613e-06
-3.07262e-06
-3.74789e-06
-4.31115e-06
-4.79926e-06
-5.22666e-06
-5.60441e-06
-5.94774e-06
-6.2704e-06
-6.58735e-06
-6.90618e-06
-7.23497e-06
-7.5507e-06
5.00032e-08
-1.22742e-06
-2.2369e-06
-3.0535e-06
-3.72951e-06
-4.29432e-06
-4.78241e-06
-5.21171e-06
-5.59145e-06
-5.93569e-06
-6.25602e-06
-6.55917e-06
-6.83709e-06
-7.05971e-06
-7.15967e-06
6.79797e-08
-1.20704e-06
-2.21533e-06
-3.03156e-06
-3.70757e-06
-4.27384e-06
-4.76022e-06
-5.18893e-06
-5.56714e-06
-5.90556e-06
-6.21148e-06
-6.48257e-06
-6.70037e-06
-6.82795e-06
-6.81274e-06
8.85593e-08
-1.18345e-06
-2.18996e-06
-3.00518e-06
-3.68024e-06
-4.24634e-06
-4.73047e-06
-5.15469e-06
-5.52618e-06
-5.85109e-06
-6.13171e-06
-6.35994e-06
-6.51551e-06
-6.57016e-06
-6.49725e-06
1.13958e-07
-1.1545e-06
-2.15856e-06
-2.97187e-06
-3.64479e-06
-4.20884e-06
-4.68861e-06
-5.1043e-06
-5.46272e-06
-5.76649e-06
-6.01397e-06
-6.19573e-06
-6.29636e-06
-6.30135e-06
-6.2041e-06
1.48227e-07
-1.11634e-06
-2.11725e-06
-2.92753e-06
-3.59667e-06
-4.15566e-06
-4.62807e-06
-5.0311e-06
-5.37055e-06
-5.64721e-06
-5.85813e-06
-5.99637e-06
-6.05419e-06
-6.02898e-06
-5.92526e-06
1.97905e-07
-1.06274e-06
-2.05983e-06
-2.86578e-06
-3.52917e-06
-4.0804e-06
-4.5415e-06
-4.92743e-06
-5.24342e-06
-5.49001e-06
-5.66554e-06
-5.76763e-06
-5.79579e-06
-5.75513e-06
-5.65474e-06
2.7221e-07
-9.84706e-07
-1.97733e-06
-2.77755e-06
-3.433e-06
-3.97358e-06
-4.4198e-06
-4.78516e-06
-5.07539e-06
-5.29242e-06
-5.43741e-06
-5.51275e-06
-5.5232e-06
-5.47778e-06
-5.38655e-06
3.82581e-07
-8.7063e-07
-1.85798e-06
-2.65099e-06
-3.29634e-06
-3.82362e-06
-4.25239e-06
-4.59564e-06
-4.86063e-06
-5.05171e-06
-5.17333e-06
-5.23159e-06
-5.23428e-06
-5.19172e-06
-5.11333e-06
5.42057e-07
-7.06784e-07
-1.68765e-06
-2.47188e-06
-3.10527e-06
-3.61735e-06
-4.02766e-06
-4.34977e-06
-4.59286e-06
-4.76398e-06
-4.87033e-06
-4.9204e-06
-4.92325e-06
-4.88903e-06
-4.82595e-06
7.6554e-07
-4.77205e-07
-1.44988e-06
-2.2238e-06
-2.84402e-06
-3.34032e-06
-3.7332e-06
-4.03766e-06
-4.26456e-06
-4.42306e-06
-4.5223e-06
-4.57192e-06
-4.58116e-06
-4.55934e-06
-4.51342e-06
1.0708e-06
-1.62708e-07
-1.12506e-06
-1.88743e-06
-2.49436e-06
-2.97608e-06
-3.3548e-06
-3.64717e-06
-3.86521e-06
-4.01914e-06
-4.11904e-06
-4.17492e-06
-4.19568e-06
-4.18958e-06
-4.16253e-06
1.47866e-06
2.59572e-07
-6.89864e-07
-1.43987e-06
-2.03466e-06
-2.50498e-06
-2.8746e-06
-3.16185e-06
-3.3792e-06
-3.53678e-06
-3.64474e-06
-3.71298e-06
-3.7499e-06
-3.76283e-06
-3.75678e-06
2.01125e-06
8.14775e-07
-1.18219e-07
-8.55583e-07
-1.44063e-06
-1.90459e-06
-2.27156e-06
-2.56112e-06
-2.78589e-06
-2.95509e-06
-3.07818e-06
-3.16461e-06
-3.22232e-06
-3.2579e-06
-3.27578e-06
2.68807e-06
1.52633e-06
6.15264e-07
-1.09171e-07
-6.88487e-07
-1.15311e-06
-1.52372e-06
-1.82318e-06
-2.06303e-06
-2.25138e-06
-2.39659e-06
-2.50731e-06
-2.59096e-06
-2.65352e-06
-2.69905e-06
3.521e-06
2.40997e-06
1.529e-06
8.19631e-07
2.42121e-07
-2.3319e-07
-6.1114e-07
-9.27758e-07
-1.19058e-06
-1.4056e-06
-1.58032e-06
-1.7226e-06
-1.8391e-06
-1.93498e-06
-2.01385e-06
4.50843e-06
3.4668e-06
2.62594e-06
1.93712e-06
1.36697e-06
8.85078e-07
4.84617e-07
1.40759e-07
-1.51948e-07
-3.99862e-07
-6.10708e-07
-7.91788e-07
-9.48776e-07
-1.08585e-06
-1.20609e-06
5.62527e-06
4.67053e-06
3.87956e-06
3.21679e-06
2.65734e-06
2.1813e-06
1.74848e-06
1.37401e-06
1.04925e-06
7.6564e-07
5.15237e-07
2.91436e-07
8.97075e-08
-9.32035e-08
-2.60202e-07
6.76118e-06
5.89949e-06
5.16341e-06
4.5242e-06
3.96112e-06
3.46121e-06
3.01627e-06
2.61804e-06
2.26058e-06
1.93697e-06
1.64067e-06
1.36724e-06
1.11385e-06
8.78099e-07
6.57368e-07
7.73617e-06
6.9581e-06
6.27149e-06
5.66056e-06
5.10877e-06
4.60081e-06
4.12759e-06
3.7002e-06
3.3121e-06
2.95236e-06
2.61457e-06
2.29639e-06
1.99636e-06
1.71252e-06
1.44241e-06
8.47211e-06
7.75682e-06
7.10809e-06
6.51346e-06
5.96267e-06
5.4499e-06
4.97324e-06
4.53146e-06
4.1189e-06
3.729e-06
3.35794e-06
3.00399e-06
2.66575e-06
2.34144e-06
2.02908e-06
9.00515e-06
8.33872e-06
7.72027e-06
7.14244e-06
6.60037e-06
6.09182e-06
5.61241e-06
5.15835e-06
4.72586e-06
4.31202e-06
3.91452e-06
3.53163e-06
3.16182e-06
2.80372e-06
2.45591e-06
9.38112e-06
8.75382e-06
8.16225e-06
7.60228e-06
7.07076e-06
6.56429e-06
6.08028e-06
5.6156e-06
5.16816e-06
4.73622e-06
4.31791e-06
3.91164e-06
3.51618e-06
3.13057e-06
2.75382e-06
9.63815e-06
9.04278e-06
8.474e-06
7.92891e-06
7.40518e-06
6.90086e-06
6.41364e-06
5.94175e-06
5.48375e-06
5.03813e-06
4.60346e-06
4.17862e-06
3.76276e-06
3.35521e-06
2.95528e-06
9.80793e-06
9.23834e-06
8.68807e-06
8.15554e-06
7.63881e-06
7.137e-06
6.64837e-06
6.17172e-06
5.70586e-06
5.24967e-06
4.80221e-06
4.36278e-06
3.9308e-06
3.50583e-06
3.08742e-06
9.91608e-06
9.36744e-06
8.83262e-06
8.31117e-06
7.80068e-06
7.30161e-06
6.81252e-06
6.33248e-06
5.86064e-06
5.39631e-06
4.9389e-06
4.48799e-06
4.04323e-06
3.6044e-06
3.17127e-06
9.98258e-06
9.4513e-06
8.92936e-06
8.41645e-06
7.91253e-06
7.41629e-06
6.92721e-06
6.44474e-06
5.96838e-06
5.49773e-06
5.03248e-06
4.57244e-06
4.11746e-06
3.66752e-06
3.22256e-06
1.00222e-05
9.50547e-06
8.9945e-06
8.4893e-06
7.99067e-06
7.49703e-06
7.00821e-06
6.52397e-06
6.04409e-06
5.56841e-06
5.09683e-06
4.62938e-06
4.16608e-06
3.70709e-06
3.25249e-06
1.00451e-05
9.54077e-06
9.03923e-06
8.54097e-06
8.04658e-06
7.5552e-06
7.06671e-06
6.5811e-06
6.09836e-06
5.61853e-06
5.14173e-06
4.66812e-06
4.19791e-06
3.73138e-06
3.26877e-06
1.00583e-05
9.56448e-06
9.07104e-06
8.57875e-06
8.08802e-06
7.59858e-06
7.11039e-06
6.62362e-06
6.13845e-06
5.6551e-06
5.17384e-06
4.695e-06
4.2189e-06
3.74597e-06
3.27655e-06
1.00661e-05
9.58134e-06
9.09486e-06
8.60768e-06
8.1201e-06
7.6323e-06
7.14432e-06
6.65651e-06
6.1692e-06
5.68278e-06
5.19763e-06
4.71423e-06
4.23302e-06
3.75454e-06
3.27922e-06
1.00713e-05
9.59429e-06
9.11381e-06
8.63075e-06
8.1461e-06
7.65967e-06
7.1718e-06
6.68301e-06
6.19377e-06
5.7046e-06
5.21601e-06
4.72857e-06
4.24285e-06
3.75946e-06
3.27895e-06
1.00752e-05
9.60508e-06
9.1298e-06
8.65054e-06
8.16808e-06
7.68277e-06
7.19492e-06
6.70518e-06
6.21417e-06
5.7225e-06
5.2308e-06
4.73975e-06
4.25e-06
3.76225e-06
3.27712e-06
1.00789e-05
9.61464e-06
9.14388e-06
8.6678e-06
8.1873e-06
7.70284e-06
7.21494e-06
6.72428e-06
6.23162e-06
5.73767e-06
5.24316e-06
4.74885e-06
4.25547e-06
3.7638e-06
3.27455e-06
1.00825e-05
9.62342e-06
9.15655e-06
8.68314e-06
8.2044e-06
7.72059e-06
7.23255e-06
6.74101e-06
6.24683e-06
5.7508e-06
5.25374e-06
4.75649e-06
4.25985e-06
3.76468e-06
3.27173e-06
1.00863e-05
9.63171e-06
9.1682e-06
8.6971e-06
8.21979e-06
7.73653e-06
7.2483e-06
6.75592e-06
6.26033e-06
5.76242e-06
5.26305e-06
4.76313e-06
4.26354e-06
3.76518e-06
3.26887e-06
1.00905e-05
9.64005e-06
9.17963e-06
8.71065e-06
8.23456e-06
7.75179e-06
7.26332e-06
6.77009e-06
6.27313e-06
5.77341e-06
5.27183e-06
4.76936e-06
4.26692e-06
3.76549e-06
3.26595e-06
1.00949e-05
9.64863e-06
9.19121e-06
8.72426e-06
8.24934e-06
7.76697e-06
7.27822e-06
6.78411e-06
6.28572e-06
5.78401e-06
5.28013e-06
4.77512e-06
4.26996e-06
3.7657e-06
3.26319e-06
-9.88472e-06
-7.60989e-06
-6.22307e-06
-5.29153e-06
-4.55316e-06
-3.99546e-06
-3.57453e-06
-3.26136e-06
-3.0364e-06
-2.88372e-06
-2.78981e-06
-2.74247e-06
-2.73018e-06
-2.74197e-06
-2.76702e-06
-2.79539e-06
-2.81812e-06
-2.83065e-06
-2.83514e-06
-2.84406e-06
-2.8819e-06
-2.96714e-06
-3.06883e-06
-3.076e-06
-2.89462e-06
-2.47471e-06
-1.79808e-06
-8.68799e-07
3.01476e-07
1.69839e-06
3.30506e-06
5.10054e-06
7.05806e-06
9.14339e-06
1.13153e-05
1.35259e-05
1.57204e-05
1.78362e-05
1.97983e-05
2.15095e-05
2.2829e-05
2.35526e-05
2.32275e-05
2.14529e-05
1.66257e-05
-8.31642e-06
-7.10423e-06
-6.03944e-06
-5.20313e-06
-4.50835e-06
-3.96541e-06
-3.55011e-06
-3.23985e-06
-3.01723e-06
-2.86708e-06
-2.77608e-06
-2.73198e-06
-2.72317e-06
-2.73857e-06
-2.76731e-06
-2.79938e-06
-2.8258e-06
-2.84183e-06
-2.84923e-06
-2.85949e-06
-2.89558e-06
-2.97401e-06
-3.0636e-06
-3.05679e-06
-2.86275e-06
-2.43281e-06
-1.74907e-06
-8.15721e-07
3.55175e-07
1.74852e-06
3.34614e-06
5.12535e-06
7.05716e-06
9.10451e-06
1.12225e-05
1.33582e-05
1.54498e-05
1.74238e-05
1.9188e-05
2.06154e-05
2.15092e-05
2.15498e-05
2.00977e-05
1.6392e-05
9.26153e-06
-7.49472e-06
-6.71619e-06
-5.85207e-06
-5.10232e-06
-4.45571e-06
-3.93327e-06
-3.52654e-06
-3.22047e-06
-3.0006e-06
-2.85298e-06
-2.76473e-06
-2.72366e-06
-2.71812e-06
-2.73694e-06
-2.7692e-06
-2.80486e-06
-2.8349e-06
-2.85441e-06
-2.86469e-06
-2.87616e-06
-2.91007e-06
-2.98072e-06
-3.05664e-06
-3.03415e-06
-2.8261e-06
-2.38537e-06
-1.69445e-06
-7.57822e-07
4.11901e-07
1.79864e-06
3.38259e-06
5.13885e-06
7.03567e-06
9.03246e-06
1.10798e-05
1.31187e-05
1.5079e-05
1.68753e-05
1.83981e-05
1.94972e-05
1.99442e-05
1.93938e-05
1.72881e-05
1.32071e-05
6.96205e-06
-6.9828e-06
-6.40309e-06
-5.69716e-06
-5.01515e-06
-4.41395e-06
-3.91279e-06
-3.51428e-06
-3.21132e-06
-2.9927e-06
-2.84604e-06
-2.75908e-06
-2.71982e-06
-2.71655e-06
-2.73804e-06
-2.77327e-06
-2.81214e-06
-2.84555e-06
-2.86837e-06
-2.88139e-06
-2.8938e-06
-2.92502e-06
-2.98676e-06
-3.04724e-06
-3.00705e-06
-2.78307e-06
-2.32994e-06
-1.63067e-06
-6.90256e-07
4.77844e-07
1.85624e-06
3.42303e-06
5.15053e-06
7.00356e-06
8.93723e-06
1.08968e-05
1.28166e-05
1.46179e-05
1.62045e-05
1.74545e-05
1.82072e-05
1.82408e-05
1.72666e-05
1.49271e-05
1.10351e-05
5.86601e-06
-6.59633e-06
-6.13624e-06
-5.5526e-06
-4.95145e-06
-4.39162e-06
-3.91122e-06
-3.51993e-06
-3.21827e-06
-2.99855e-06
-2.85032e-06
-2.76231e-06
-2.7228e-06
-2.72008e-06
-2.74285e-06
-2.78001e-06
-2.82133e-06
-2.8576e-06
-2.8834e-06
-2.89891e-06
-2.91196e-06
-2.93986e-06
-2.99153e-06
-3.03476e-06
-2.97499e-06
-2.73356e-06
-2.26712e-06
-1.55932e-06
-6.15939e-07
5.48413e-07
1.91474e-06
3.45859e-06
5.14906e-06
6.94711e-06
8.80314e-06
1.06569e-05
1.24363e-05
1.40554e-05
1.5411e-05
1.63774e-05
1.6801e-05
1.6496e-05
1.5263e-05
1.29288e-05
9.4895e-06
5.27998e-06
-6.2821e-06
-5.90644e-06
-5.417e-06
-4.89766e-06
-4.38729e-06
-3.92907e-06
-3.54633e-06
-3.24537e-06
-3.02251e-06
-2.87002e-06
-2.77812e-06
-2.73565e-06
-2.73108e-06
-2.75312e-06
-2.79058e-06
-2.8331e-06
-2.87131e-06
-2.89943e-06
-2.91696e-06
-2.93013e-06
-2.95394e-06
-2.99421e-06
-3.01825e-06
-2.93703e-06
-2.67689e-06
-2.19669e-06
-1.4809e-06
-5.36357e-07
6.20752e-07
1.9696e-06
3.48279e-06
5.12581e-06
6.85553e-06
8.61766e-06
1.03468e-05
1.19659e-05
1.33846e-05
1.44985e-05
1.51888e-05
1.53237e-05
1.47687e-05
1.34135e-05
1.12152e-05
8.27552e-06
4.89545e-06
-6.00633e-06
-5.69678e-06
-5.2923e-06
-4.84037e-06
-4.38695e-06
-3.96023e-06
-3.59128e-06
-3.29294e-06
-3.06653e-06
-2.90793e-06
-2.80956e-06
-2.76124e-06
-2.75198e-06
-2.77073e-06
-2.80632e-06
-2.84828e-06
-2.88704e-06
-2.91643e-06
-2.93517e-06
-2.94768e-06
-2.96643e-06
-2.99376e-06
-2.99654e-06
-2.89205e-06
-2.61218e-06
-2.1182e-06
-1.39555e-06
-4.52615e-07
6.92466e-07
2.01701e-06
3.48997e-06
5.07318e-06
6.71954e-06
8.37051e-06
9.9568e-06
1.13986e-05
1.26058e-05
1.34789e-05
1.39154e-05
1.38146e-05
1.30946e-05
1.17165e-05
9.71237e-06
7.21644e-06
4.46789e-06
-5.74943e-06
-5.49312e-06
-5.16102e-06
-4.77838e-06
-4.37903e-06
-3.99337e-06
-3.6462e-06
-3.35575e-06
-3.12798e-06
-2.96346e-06
-2.85733e-06
-2.80087e-06
-2.78416e-06
-2.7969e-06
-2.82813e-06
-2.86736e-06
-2.90492e-06
-2.93417e-06
-2.95298e-06
-2.96379e-06
-2.97625e-06
-2.989e-06
-2.96839e-06
-2.83902e-06
-2.53873e-06
-2.03174e-06
-1.30422e-06
-3.67202e-07
7.59785e-07
2.05157e-06
3.4725e-06
4.98166e-06
6.52831e-06
8.05071e-06
9.47766e-06
1.07299e-05
1.1723e-05
1.23673e-05
1.25834e-05
1.2304e-05
1.14917e-05
1.01547e-05
8.35924e-06
6.23496e-06
3.96178e-06
-5.50144e-06
-5.28894e-06
-5.01728e-06
-4.6993e-06
-4.35723e-06
-4.01617e-06
-3.69883e-06
-3.42353e-06
-3.19898e-06
-3.03146e-06
-2.91853e-06
-2.85299e-06
-2.8269e-06
-2.8313e-06
-2.8558e-06
-2.89007e-06
-2.92449e-06
-2.95198e-06
-2.96952e-06
-2.97737e-06
-2.98222e-06
-2.9787e-06
-2.9327e-06
-2.77727e-06
-2.45659e-06
-1.93841e-06
-1.20985e-06
-2.84634e-07
8.1763e-07
2.06528e-06
3.42002e-06
4.83923e-06
6.26919e-06
7.64664e-06
8.90114e-06
9.95758e-06
1.07398e-05
1.11792e-05
1.12149e-05
1.08109e-05
9.96232e-06
8.70321e-06
7.10894e-06
5.29053e-06
3.38009e-06
-5.25541e-06
-5.07996e-06
-4.85891e-06
-4.59838e-06
-4.31218e-06
-4.01854e-06
-3.73714e-06
-3.48265e-06
-3.26766e-06
-3.10287e-06
-2.98655e-06
-2.91268e-06
-2.87663e-06
-2.87138e-06
-2.88742e-06
-2.91488e-06
-2.9444e-06
-2.96855e-06
-2.98349e-06
-2.98715e-06
-2.98309e-06
-2.96183e-06
-2.88895e-06
-2.70689e-06
-2.36754e-06
-1.8415e-06
-1.11879e-06
-2.09267e-07
8.58049e-07
2.04654e-06
3.31929e-06
4.6317e-06
5.92837e-06
7.14686e-06
8.22066e-06
9.08267e-06
9.66981e-06
9.92963e-06
9.82494e-06
9.34263e-06
8.49763e-06
7.33442e-06
5.92421e-06
4.35651e-06
2.72766e-06
-5.00394e-06
-4.86083e-06
-4.68274e-06
-4.4724e-06
-4.23797e-06
-3.99235e-06
-3.7502e-06
-3.52104e-06
-3.32212e-06
-3.16756e-06
-3.05214e-06
-2.97192e-06
-2.92697e-06
-2.91222e-06
-2.91919e-06
-2.93883e-06
-2.96228e-06
-2.98197e-06
-2.99327e-06
-2.99182e-06
-2.97795e-06
-2.93803e-06
-2.83771e-06
-2.6302e-06
-2.27484e-06
-1.75158e-06
-1.03502e-06
-1.47889e-07
8.67552e-07
1.97991e-06
3.15416e-06
4.34307e-06
5.49162e-06
6.541e-06
7.43154e-06
8.10682e-06
8.51804e-06
8.62924e-06
8.42164e-06
7.89775e-06
7.08239e-06
6.02095e-06
4.77484e-06
3.41387e-06
2.00847e-06
-4.73806e-06
-4.62408e-06
-4.48325e-06
-4.31659e-06
-4.12854e-06
-3.92737e-06
-3.72317e-06
-3.52708e-06
-3.35391e-06
-3.21294e-06
-3.10144e-06
-3.01957e-06
-2.96921e-06
-2.94694e-06
-2.94578e-06
-2.95786e-06
-2.97511e-06
-2.99002e-06
-2.99731e-06
-2.99057e-06
-2.96673e-06
-2.90866e-06
-2.78077e-06
-2.55144e-06
-2.19258e-06
-1.67342e-06
-9.63033e-07
-1.17476e-07
8.26334e-07
1.84695e-06
2.90644e-06
3.95658e-06
4.94555e-06
5.82077e-06
6.53173e-06
7.03385e-06
7.2925e-06
7.28553e-06
7.00722e-06
6.46911e-06
5.69901e-06
4.73811e-06
3.63665e-06
2.44808e-06
1.22417e-06
-4.447e-06
-4.36006e-06
-4.25245e-06
-4.12442e-06
-3.97831e-06
-3.81942e-06
-3.65568e-06
-3.49594e-06
-3.34989e-06
-3.22455e-06
-3.12224e-06
-3.04502e-06
-2.99428e-06
-2.96803e-06
-2.96124e-06
-2.9675e-06
-2.97978e-06
-2.99083e-06
-2.99481e-06
-2.9838e-06
-2.95103e-06
-2.87788e-06
-2.72406e-06
-2.48162e-06
-2.12844e-06
-1.6062e-06
-9.29029e-07
-1.45397e-07
7.13712e-07
1.62777e-06
2.55725e-06
3.45644e-06
4.27929e-06
4.98136e-06
5.5225e-06
5.8702e-06
6.00097e-06
5.90358e-06
5.58064e-06
5.04761e-06
4.331e-06
3.46564e-06
2.49125e-06
1.44829e-06
3.75047e-07
-4.11798e-06
-4.05704e-06
-3.98016e-06
-3.8874e-06
-3.77999e-06
-3.66135e-06
-3.5369e-06
-3.41295e-06
-3.29607e-06
-3.19223e-06
-3.10566e-06
-3.03899e-06
-2.99343e-06
-2.9681e-06
-2.9598e-06
-2.96369e-06
-2.97386e-06
-2.98357e-06
-2.9865e-06
-2.97386e-06
-2.93543e-06
-2.85213e-06
-2.68344e-06
-2.43012e-06
-2.08172e-06
-1.58387e-06
-9.6066e-07
-2.54965e-07
5.07983e-07
1.30149e-06
2.08864e-06
2.82983e-06
3.48622e-06
4.02287e-06
4.40952e-06
4.62407e-06
4.6513e-06
4.48775e-06
4.14053e-06
3.62549e-06
2.96565e-06
2.18906e-06
1.32635e-06
4.07922e-07
-5.3783e-07
-3.73533e-06
-3.70053e-06
-3.65336e-06
-3.59397e-06
-3.523e-06
-3.44255e-06
-3.35612e-06
-3.26814e-06
-3.1834e-06
-3.1067e-06
-3.04202e-06
-2.99203e-06
-2.95811e-06
-2.9402e-06
-2.93646e-06
-2.94345e-06
-2.95638e-06
-2.96918e-06
-2.97537e-06
-2.96578e-06
-2.92786e-06
-2.84187e-06
-2.67262e-06
-2.41793e-06
-2.0825e-06
-1.6315e-06
-1.08024e-06
-4.65071e-07
1.868e-07
8.47642e-07
1.48588e-06
2.06871e-06
2.56524e-06
2.94974e-06
3.20268e-06
3.30622e-06
3.25254e-06
3.04336e-06
2.68731e-06
2.19849e-06
1.59561e-06
9.00446e-07
1.36185e-07
-6.74525e-07
-1.51058e-06
-3.27982e-06
-3.27281e-06
-3.25606e-06
-3.22989e-06
-3.19472e-06
-3.15188e-06
-3.10367e-06
-3.05315e-06
-3.00379e-06
-2.95914e-06
-2.92238e-06
-2.89593e-06
-2.88129e-06
-2.87889e-06
-2.88774e-06
-2.9055e-06
-2.92849e-06
-2.95119e-06
-2.96744e-06
-2.9682e-06
-2.93988e-06
-2.86257e-06
-2.70658e-06
-2.47073e-06
-2.16417e-06
-1.77273e-06
-1.30867e-06
-7.99705e-07
-2.72323e-07
2.49313e-07
7.38997e-07
1.16987e-06
1.52146e-06
1.77586e-06
1.91503e-06
1.92814e-06
1.81394e-06
1.57644e-06
1.22336e-06
7.65966e-07
2.18686e-07
-4.01999e-07
-1.07885e-06
-1.79514e-06
-2.53522e-06
-2.73199e-06
-2.75579e-06
-2.77186e-06
-2.78069e-06
-2.78273e-06
-2.77892e-06
-2.77079e-06
-2.76046e-06
-2.75033e-06
-2.74296e-06
-2.7407e-06
-2.7456e-06
-2.75904e-06
-2.78175e-06
-2.81325e-06
-2.85181e-06
-2.89443e-06
-2.93626e-06
-2.97236e-06
-2.9939e-06
-2.98734e-06
-2.93415e-06
-2.80924e-06
-2.61223e-06
-2.35532e-06
-2.03938e-06
-1.67441e-06
-1.2817e-06
-8.84096e-07
-5.01916e-07
-1.55709e-07
1.38072e-07
3.65501e-07
5.09397e-07
5.5518e-07
4.99191e-07
3.43644e-07
9.25147e-08
-2.4846e-07
-6.70973e-07
-1.16428e-06
-1.7162e-06
-2.31417e-06
-2.94601e-06
-3.6002e-06
-2.08074e-06
-2.1397e-06
-2.19239e-06
-2.23956e-06
-2.28188e-06
-2.32014e-06
-2.35544e-06
-2.38923e-06
-2.42314e-06
-2.45902e-06
-2.49851e-06
-2.54329e-06
-2.59439e-06
-2.65268e-06
-2.71791e-06
-2.78984e-06
-2.86513e-06
-2.93656e-06
-3.00435e-06
-3.05997e-06
-3.09037e-06
-3.07949e-06
-3.0063e-06
-2.87071e-06
-2.68551e-06
-2.45868e-06
-2.20094e-06
-1.92735e-06
-1.65489e-06
-1.40347e-06
-1.18619e-06
-1.01325e-06
-8.90709e-07
-8.3823e-07
-8.64558e-07
-9.69001e-07
-1.1488e-06
-1.40143e-06
-1.72326e-06
-2.10839e-06
-2.54899e-06
-3.03632e-06
-3.56149e-06
-4.11584e-06
-4.69103e-06
-1.31484e-06
-1.41641e-06
-1.51255e-06
-1.60435e-06
-1.69277e-06
-1.77867e-06
-1.86297e-06
-1.9467e-06
-2.03107e-06
-2.11739e-06
-2.20683e-06
-2.3007e-06
-2.3996e-06
-2.50439e-06
-2.61459e-06
-2.72931e-06
-2.85124e-06
-2.97107e-06
-3.08381e-06
-3.18758e-06
-3.27169e-06
-3.32276e-06
-3.32282e-06
-3.27002e-06
-3.17533e-06
-3.04899e-06
-2.90182e-06
-2.74503e-06
-2.59043e-06
-2.45364e-06
-2.34429e-06
-2.26432e-06
-2.2286e-06
-2.24795e-06
-2.32479e-06
-2.45783e-06
-2.6464e-06
-2.89003e-06
-3.1865e-06
-3.53152e-06
-3.91954e-06
-4.3446e-06
-4.80071e-06
-5.28188e-06
-5.78219e-06
-4.1761e-07
-5.70277e-07
-7.19339e-07
-8.6539e-07
-1.00934e-06
-1.15212e-06
-1.29463e-06
-1.43772e-06
-1.58228e-06
-1.72922e-06
-1.87945e-06
-2.03374e-06
-2.19284e-06
-2.3569e-06
-2.52632e-06
-2.7002e-06
-2.8782e-06
-3.05857e-06
-3.23311e-06
-3.40003e-06
-3.55318e-06
-3.68316e-06
-3.77377e-06
-3.8191e-06
-3.8267e-06
-3.80679e-06
-3.76741e-06
-3.71844e-06
-3.67351e-06
-3.63464e-06
-3.60328e-06
-3.59312e-06
-3.6225e-06
-3.69266e-06
-3.80016e-06
-3.94502e-06
-4.12958e-06
-4.35492e-06
-4.61965e-06
-4.92075e-06
-5.25468e-06
-5.61781e-06
-6.00641e-06
-6.41654e-06
-6.84411e-06
4.45549e-07
2.37704e-07
3.25722e-08
-1.70544e-07
-3.72618e-07
-5.74601e-07
-7.77318e-07
-9.81494e-07
-1.18781e-06
-1.39694e-06
-1.60955e-06
-1.82625e-06
-2.04754e-06
-2.27371e-06
-2.50481e-06
-2.74036e-06
-2.97954e-06
-3.22027e-06
-3.459e-06
-3.69303e-06
-3.91799e-06
-4.12781e-06
-4.30653e-06
-4.44382e-06
-4.54399e-06
-4.61474e-06
-4.66298e-06
-4.69804e-06
-4.7289e-06
-4.75852e-06
-4.79405e-06
-4.84682e-06
-4.92288e-06
-5.02139e-06
-5.14202e-06
-5.28749e-06
-5.46075e-06
-5.66283e-06
-5.89295e-06
-6.14957e-06
-6.43093e-06
-6.73514e-06
-7.06003e-06
-7.40315e-06
-7.76188e-06
1.18009e-06
9.2041e-07
6.62235e-07
4.05121e-07
1.48266e-07
-1.09161e-07
-3.67865e-07
-6.2842e-07
-8.91342e-07
-1.15713e-06
-1.42627e-06
-1.69921e-06
-1.97629e-06
-2.25766e-06
-2.54327e-06
-2.83265e-06
-3.1249e-06
-3.41872e-06
-3.71211e-06
-4.00237e-06
-4.28608e-06
-4.55925e-06
-4.80572e-06
-5.01202e-06
-5.17996e-06
-5.31599e-06
-5.42778e-06
-5.52193e-06
-5.60261e-06
-5.68493e-06
-5.76876e-06
-5.86178e-06
-5.96442e-06
-6.07743e-06
-6.20391e-06
-6.34709e-06
-6.5089e-06
-6.69004e-06
-6.89058e-06
-7.11026e-06
-7.34853e-06
-7.60451e-06
-7.87709e-06
-8.16489e-06
-8.46643e-06
1.72346e-06
1.41973e-06
1.11673e-06
8.14112e-07
5.11253e-07
2.07534e-07
-9.75572e-08
-4.04422e-07
-7.13416e-07
-1.02488e-06
-1.33913e-06
-1.65644e-06
-1.977e-06
-2.30082e-06
-2.62775e-06
-2.95735e-06
-3.28892e-06
-3.62139e-06
-3.95308e-06
-4.28176e-06
-4.60484e-06
-4.91945e-06
-5.20935e-06
-5.45955e-06
-5.67112e-06
-5.85049e-06
-6.00462e-06
-6.13932e-06
-6.26035e-06
-6.36877e-06
-6.47871e-06
-6.59027e-06
-6.70386e-06
-6.8225e-06
-6.94958e-06
-7.08739e-06
-7.2373e-06
-7.40032e-06
-7.57722e-06
-7.76843e-06
-7.97399e-06
-8.19366e-06
-8.42695e-06
-8.67319e-06
-8.93159e-06
2.11394e-06
1.77337e-06
1.4331e-06
1.09287e-06
7.52267e-07
4.10898e-07
6.84565e-08
-2.75283e-07
-6.20516e-07
-9.67425e-07
-1.31617e-06
-1.66687e-06
-2.01956e-06
-2.37413e-06
-2.73037e-06
-3.08783e-06
-3.44583e-06
-3.80335e-06
-4.159e-06
-4.51106e-06
-4.85751e-06
-5.19596e-06
-5.51062e-06
-5.78659e-06
-6.02483e-06
-6.23122e-06
-6.41144e-06
-6.57052e-06
-6.71348e-06
-6.84589e-06
-6.97196e-06
-7.09408e-06
-7.21513e-06
-7.33812e-06
-7.46545e-06
-7.59892e-06
-7.74007e-06
-7.89025e-06
-8.05052e-06
-8.22162e-06
-8.40395e-06
-8.59772e-06
-8.80292e-06
-9.01938e-06
-9.24681e-06
2.38218e-06
2.01165e-06
1.64127e-06
1.27091e-06
9.00356e-07
5.29411e-07
1.57971e-07
-2.14026e-07
-5.86628e-07
-9.59866e-07
-1.33376e-06
-1.70828e-06
-2.08334e-06
-2.45872e-06
-2.83412e-06
-3.20906e-06
-3.58286e-06
-3.95461e-06
-4.3232e-06
-4.68718e-06
-5.04491e-06
-5.39433e-06
-5.72074e-06
-6.01017e-06
-6.26345e-06
-6.48593e-06
-6.68278e-06
-6.8601e-06
-7.01736e-06
-7.16326e-06
-7.29986e-06
-7.43031e-06
-7.55757e-06
-7.684e-06
-7.8116e-06
-7.94225e-06
-8.07765e-06
-8.21925e-06
-8.36823e-06
-8.52552e-06
-8.69184e-06
-8.86768e-06
-9.0534e-06
-9.24917e-06
-9.45506e-06
2.5598e-06
2.16534e-06
1.77112e-06
1.37713e-06
9.83317e-07
5.89696e-07
1.96321e-07
-1.96724e-07
-5.89352e-07
-9.81468e-07
-1.37296e-06
-1.76367e-06
-2.15341e-06
-2.54186e-06
-2.92867e-06
-3.3133e-06
-3.69515e-06
-4.07339e-06
-4.44707e-06
-4.81496e-06
-5.17571e-06
-5.52763e-06
-5.85739e-06
-6.15238e-06
-6.41335e-06
-6.64487e-06
-6.85104e-06
-7.03535e-06
-7.20666e-06
-7.36237e-06
-7.50712e-06
-7.64427e-06
-7.77633e-06
-7.90551e-06
-8.03385e-06
-8.16326e-06
-8.29543e-06
-8.43183e-06
-8.57374e-06
-8.72225e-06
-8.87826e-06
-9.04251e-06
-9.21558e-06
-9.39789e-06
-9.58979e-06
2.67295e-06
2.25955e-06
1.84664e-06
1.43433e-06
1.02273e-06
6.12003e-07
2.02339e-07
-2.06053e-07
-6.12974e-07
-1.01821e-06
-1.42156e-06
-1.82274e-06
-2.22148e-06
-2.61741e-06
-3.01011e-06
-3.39906e-06
-3.78367e-06
-4.1632e-06
-4.53682e-06
-4.90349e-06
-5.26215e-06
-5.61138e-06
-5.93937e-06
-6.23511e-06
-6.49926e-06
-6.73571e-06
-6.94813e-06
-7.14022e-06
-7.31671e-06
-7.47887e-06
-7.62963e-06
-7.77177e-06
-7.90765e-06
-8.03945e-06
-8.16917e-06
-8.29865e-06
-8.42954e-06
-8.56336e-06
-8.70144e-06
-8.84497e-06
-8.995e-06
-9.15242e-06
-9.31798e-06
-9.49231e-06
-9.67592e-06
2.7417e-06
2.31337e-06
1.88587e-06
1.45943e-06
1.03429e-06
6.10745e-07
1.89091e-07
-2.30361e-07
-6.47318e-07
-1.06148e-06
-1.47254e-06
-1.88015e-06
-2.28397e-06
-2.68358e-06
-3.07853e-06
-3.4683e-06
-3.85234e-06
-4.22995e-06
-4.60045e-06
-4.96293e-06
-5.3166e-06
-5.66024e-06
-5.9836e-06
-6.27726e-06
-6.54171e-06
-6.78025e-06
-6.99608e-06
-7.19251e-06
-7.373e-06
-7.53962e-06
-7.69471e-06
-7.84071e-06
-7.97987e-06
-8.11424e-06
-8.24575e-06
-8.37616e-06
-8.50711e-06
-8.64014e-06
-8.77662e-06
-8.91783e-06
-9.0649e-06
-9.21884e-06
-9.38052e-06
-9.55073e-06
-9.73013e-06
2.78091e-06
2.34071e-06
1.90175e-06
1.46434e-06
1.02884e-06
5.95627e-07
1.65112e-07
-2.62325e-07
-6.86312e-07
-1.10647e-06
-1.52243e-06
-1.93377e-06
-2.34011e-06
-2.74098e-06
-3.13593e-06
-3.52443e-06
-3.90596e-06
-4.27989e-06
-4.64563e-06
-5.00242e-06
-5.34964e-06
-5.68626e-06
-6.00354e-06
-6.2935e-06
-6.55647e-06
-6.79522e-06
-7.01258e-06
-7.21148e-06
-7.39472e-06
-7.56444e-06
-7.72272e-06
-7.87178e-06
-8.01371e-06
-8.15047e-06
-8.28388e-06
-8.41567e-06
-8.54748e-06
-8.68082e-06
-8.81713e-06
-8.95772e-06
-9.1038e-06
-9.25647e-06
-9.4167e-06
-9.58539e-06
-9.76331e-06
2.80103e-06
2.35127e-06
1.90314e-06
1.45707e-06
1.01348e-06
5.72867e-07
1.35687e-07
-2.97607e-07
-7.26578e-07
-1.15079e-06
-1.56979e-06
-1.98315e-06
-2.39042e-06
-2.79112e-06
-3.18478e-06
-3.57088e-06
-3.94893e-06
-4.31835e-06
-4.67863e-06
-5.0291e-06
-5.36934e-06
-5.69842e-06
-6.00901e-06
-6.29447e-06
-6.55492e-06
-6.79272e-06
-7.0104e-06
-7.21054e-06
-7.39552e-06
-7.5674e-06
-7.72805e-06
-7.87948e-06
-8.02369e-06
-8.16253e-06
-8.29777e-06
-8.43109e-06
-8.56411e-06
-8.69837e-06
-8.8353e-06
-8.97628e-06
-9.12256e-06
-9.27532e-06
-9.43562e-06
-9.60442e-06
-9.7826e-06
2.80916e-06
2.35152e-06
1.89591e-06
1.44283e-06
9.92792e-07
5.46347e-07
1.04016e-07
-3.33697e-07
-7.66295e-07
-1.19329e-06
-1.6142e-06
-2.02853e-06
-2.43582e-06
-2.83556e-06
-3.22728e-06
-3.61048e-06
-3.98467e-06
-4.34931e-06
-4.70398e-06
-5.0481e-06
-5.38134e-06
-5.70293e-06
-6.00676e-06
-6.28738e-06
-6.54478e-06
-6.78096e-06
-6.99819e-06
-7.19875e-06
-7.38471e-06
-7.55807e-06
-7.72043e-06
-7.87364e-06
-8.01965e-06
-8.16024e-06
-8.2971e-06
-8.4319e-06
-8.56622e-06
-8.70162e-06
-8.83955e-06
-8.98143e-06
-9.12855e-06
-9.28216e-06
-9.44337e-06
-9.61322e-06
-9.79264e-06
2.81004e-06
2.34576e-06
1.88389e-06
1.42499e-06
9.69652e-07
5.18473e-07
7.20218e-08
-3.69146e-07
-8.0449e-07
-1.23348e-06
-1.65559e-06
-2.07031e-06
-2.47713e-06
-2.87555e-06
-3.26509e-06
-3.64524e-06
-4.01555e-06
-4.37552e-06
-4.72477e-06
-5.06278e-06
-5.38935e-06
-5.70377e-06
-6.00108e-06
-6.27685e-06
-6.53098e-06
-6.76521e-06
-6.98154e-06
-7.182e-06
-7.36831e-06
-7.54263e-06
-7.70622e-06
-7.86073e-06
-8.00813e-06
-8.15011e-06
-8.28833e-06
-8.42441e-06
-8.55994e-06
-8.69648e-06
-8.83552e-06
-8.97847e-06
-9.12671e-06
-9.28149e-06
-9.44402e-06
-9.61536e-06
-9.79652e-06
2.80676e-06
2.33676e-06
1.86952e-06
1.40567e-06
9.4586e-07
4.90716e-07
4.08555e-08
-4.03125e-07
-8.40644e-07
-1.27114e-06
-1.69405e-06
-2.10884e-06
-2.51499e-06
-2.91198e-06
-3.29931e-06
-3.67651e-06
-4.04313e-06
-4.39871e-06
-4.7429e-06
-5.07524e-06
-5.3956e-06
-5.70337e-06
-5.99455e-06
-6.26564e-06
-6.51651e-06
-6.74864e-06
-6.96383e-06
-7.16387e-06
-7.35009e-06
-7.52495e-06
-7.68943e-06
-7.84483e-06
-7.99325e-06
-8.13629e-06
-8.27557e-06
-8.4127e-06
-8.54927e-06
-8.68683e-06
-8.82689e-06
-8.97091e-06
-9.12028e-06
-9.27633e-06
-9.44028e-06
-9.61326e-06
-9.79632e-06
2.80126e-06
2.32626e-06
1.85435e-06
1.3862e-06
9.22512e-07
4.63957e-07
1.11851e-08
-4.3517e-07
-8.74494e-07
-1.30619e-06
-1.72968e-06
-2.14441e-06
-2.54982e-06
-2.94541e-06
-3.33067e-06
-3.70512e-06
-4.06834e-06
-4.41989e-06
-4.75946e-06
-5.08663e-06
-5.40134e-06
-5.70304e-06
-5.98856e-06
-6.25527e-06
-6.50298e-06
-6.733e-06
-6.94695e-06
-7.1462e-06
-7.33226e-06
-7.50735e-06
-7.67243e-06
-7.82839e-06
-7.9775e-06
-8.12131e-06
-8.26138e-06
-8.39932e-06
-8.5367e-06
-8.67509e-06
-8.81603e-06
-8.96099e-06
-9.11141e-06
-9.26863e-06
-9.43395e-06
-9.60852e-06
-9.79344e-06
2.79478e-06
2.31534e-06
1.83929e-06
1.36734e-06
9.00246e-07
4.38696e-07
-1.66209e-08
-4.65041e-07
-9.05921e-07
-1.33864e-06
-1.76259e-06
-2.1772e-06
-2.58192e-06
-2.9762e-06
-3.35956e-06
-3.73153e-06
-4.09167e-06
-4.4396e-06
-4.77501e-06
-5.09754e-06
-5.40715e-06
-5.70336e-06
-5.98375e-06
-6.24639e-06
-6.49115e-06
-6.71912e-06
-6.93179e-06
-7.13011e-06
-7.31601e-06
-7.49111e-06
-7.65645e-06
-7.81274e-06
-7.9623e-06
-8.10662e-06
-8.24725e-06
-8.38576e-06
-8.52375e-06
-8.66277e-06
-8.8044e-06
-8.95013e-06
-9.10143e-06
-9.25969e-06
-9.42622e-06
-9.60224e-06
-9.78886e-06
2.78806e-06
2.30465e-06
1.8249e-06
1.34958e-06
8.79445e-07
4.15231e-07
-4.23474e-08
-4.92599e-07
-9.34855e-07
-1.36847e-06
-1.79283e-06
-2.20733e-06
-2.61141e-06
-3.00453e-06
-3.3862e-06
-3.75594e-06
-4.11336e-06
-4.45805e-06
-4.78976e-06
-5.10815e-06
-5.41321e-06
-5.70451e-06
-5.98027e-06
-6.23923e-06
-6.48125e-06
-6.7073e-06
-6.91867e-06
-7.11605e-06
-7.30173e-06
-7.47674e-06
-7.64205e-06
-7.79854e-06
-7.94835e-06
-8.09299e-06
-8.23398e-06
-8.37287e-06
-8.51127e-06
-8.65075e-06
-8.79288e-06
-8.9392e-06
-9.09121e-06
-9.25032e-06
-9.41788e-06
-9.59515e-06
-9.78328e-06
2.78152e-06
2.29456e-06
1.81152e-06
1.33318e-06
8.60336e-07
3.93744e-07
-6.58536e-08
-5.17742e-07
-9.61231e-07
-1.39566e-06
-1.82038e-06
-2.2348e-06
-2.63833e-06
-3.03043e-06
-3.41062e-06
-3.77841e-06
-4.13341e-06
-4.47526e-06
-4.8037e-06
-5.11844e-06
-5.41949e-06
-5.70643e-06
-5.97804e-06
-6.23369e-06
-6.47324e-06
-6.69751e-06
-6.90766e-06
-7.10421e-06
-7.28944e-06
-7.4643e-06
-7.62947e-06
-7.78606e-06
-7.93598e-06
-8.08079e-06
-8.22197e-06
-8.36109e-06
-8.49974e-06
-8.6395e-06
-8.78198e-06
-8.92873e-06
-9.08127e-06
-9.24105e-06
-9.40947e-06
-9.58779e-06
-9.7772e-06
2.7753e-06
2.28514e-06
1.79913e-06
1.31807e-06
8.42778e-07
3.74045e-07
-8.7373e-08
-5.40739e-07
-9.85346e-07
-1.42051e-06
-1.84558e-06
-2.25994e-06
-2.66301e-06
-3.05423e-06
-3.43311e-06
-3.79919e-06
-4.15208e-06
-4.49142e-06
-4.81698e-06
-5.12847e-06
-5.42596e-06
-5.70901e-06
-5.9769e-06
-6.22954e-06
-6.46685e-06
-6.68949e-06
-6.89852e-06
-7.09433e-06
-7.27905e-06
-7.45367e-06
-7.61864e-06
-7.77522e-06
-7.92515e-06
-8.07e-06
-8.21125e-06
-8.35045e-06
-8.48921e-06
-8.62912e-06
-8.7718e-06
-8.91883e-06
-9.07176e-06
-9.23206e-06
-9.40115e-06
-9.58035e-06
-9.77086e-06
2.76915e-06
2.27593e-06
1.78708e-06
1.30342e-06
8.25799e-07
3.55019e-07
-1.0814e-07