/*--------------------------------*- C++ -*----------------------------------*\
| =========                 |                                                 |
| \\      /  F ield         | OpenFOAM: The Open Source CFD Toolbox           |
|  \\    /   O peration     | Version:  2312                                  |
|   \\  /    A nd           | Website:  www.openfoam.com                      |
|    \\/     M anipulation  |                                                 |
\*---------------------------------------------------------------------------*/
FoamFile
{
    version     2.0;
    format      ascii;
    arch        "LSB;label=32;scalar=64";
    class       volScalarField;
    location    "300";
    object      p;
}
// * * * * * * * * * * * * * * * * * * * * * * * * * * * * * * * * * * * * * //

dimensions      [0 2 -2 0 0 0 0];

internalField   nonuniform List<scalar> 
4800
(
2.8419e-12
-1.27613e-06
-2.35086e-06
-3.26531e-06
-4.05436e-06
-4.74188e-06
-5.34593e-06
-5.8808e-06
-6.35816e-06
-6.78761e-06
-7.17743e-06
-7.54015e-06
-7.90462e-06
-8.33678e-06
-9.59836e-06
1.17038e-08
-1.26197e-06
-2.33498e-06
-3.24851e-06
-4.03737e-06
-4.72553e-06
-5.33115e-06
-5.86886e-06
-6.35095e-06
-6.78837e-06
-7.1922e-06
-7.57724e-06
-7.96878e-06
-8.42929e-06
-9.26811e-06
2.60588e-08
-1.24504e-06
-2.31627e-06
-3.22881e-06
-4.0175e-06
-4.70633e-06
-5.31362e-06
-5.85422e-06
-6.34092e-06
-6.78561e-06
-7.20067e-06
-7.60042e-06
-8.00014e-06
-8.40686e-06
-8.84677e-06
4.16084e-08
-1.22647e-06
-2.29556e-06
-3.20673e-06
-3.9948e-06
-4.68375e-06
-5.29189e-06
-5.83403e-06
-6.32285e-06
-6.76973e-06
-7.18501e-06
-7.57627e-06
-7.94184e-06
-8.25504e-06
-8.46889e-06
5.90965e-08
-1.20522e-06
-2.27154e-06
-3.18067e-06
-3.96734e-06
-4.65545e-06
-5.26303e-06
-5.80447e-06
-6.29152e-06
-6.73358e-06
-7.13662e-06
-7.49983e-06
-7.8093e-06
-8.03139e-06
-8.12142e-06
7.97784e-08
-1.17985e-06
-2.24256e-06
-3.14872e-06
-3.93287e-06
-4.61868e-06
-5.22358e-06
-5.76103e-06
-6.24112e-06
-6.67026e-06
-7.04965e-06
-7.37241e-06
-7.62105e-06
-7.76909e-06
-7.79135e-06
1.0554e-07
-1.14833e-06
-2.20634e-06
-3.10831e-06
-3.88836e-06
-4.56972e-06
-5.16893e-06
-5.69805e-06
-6.16499e-06
-6.57309e-06
-6.92004e-06
-7.19699e-06
-7.3896e-06
-7.48341e-06
-7.47086e-06
1.39433e-07
-1.10747e-06
-2.15936e-06
-3.05555e-06
-3.82937e-06
-4.50341e-06
-5.09305e-06
-5.60867e-06
-6.05607e-06
-6.43636e-06
-6.74601e-06
-6.9779e-06
-7.12423e-06
-7.18166e-06
-7.15347e-06
1.86168e-07
-1.05244e-06
-2.09641e-06
-2.98478e-06
-3.74969e-06
-4.41287e-06
-4.98842e-06
-5.48519e-06
-5.90749e-06
-6.25571e-06
-6.52743e-06
-6.71952e-06
-6.83099e-06
-6.86625e-06
-6.83356e-06
2.52331e-07
-9.76516e-07
-2.01031e-06
-2.88836e-06
-3.64119e-06
-4.2895e-06
-4.84634e-06
-5.31954e-06
-5.71301e-06
-6.02802e-06
-6.26484e-06
-6.42485e-06
-6.5124e-06
-6.53621e-06
-6.50578e-06
3.4611e-07
-8.71292e-07
-1.89212e-06
-2.75681e-06
-3.49405e-06
-4.12349e-06
-4.65757e-06
-5.10397e-06
-5.46737e-06
-5.75106e-06
-5.95853e-06
-6.09501e-06
-6.16816e-06
-6.18842e-06
-6.1647e-06
4.76388e-07
-7.27331e-07
-1.73194e-06
-2.57968e-06
-3.29769e-06
-3.90473e-06
-4.41328e-06
-4.83176e-06
-5.16648e-06
-5.42317e-06
-5.60823e-06
-5.72947e-06
-5.79609e-06
-5.81869e-06
-5.80485e-06
6.51868e-07
-5.34963e-07
-1.51971e-06
-2.34664e-06
-3.04204e-06
-3.62417e-06
-4.10617e-06
-4.49788e-06
-4.80755e-06
-5.04315e-06
-5.21311e-06
-5.32658e-06
-5.39308e-06
-5.42251e-06
-5.42106e-06
8.80804e-07
-2.84451e-07
-1.24526e-06
-2.04772e-06
-2.71796e-06
-3.27421e-06
-3.73066e-06
-4.0988e-06
-4.38868e-06
-4.60983e-06
-4.77175e-06
-4.88397e-06
-4.95557e-06
-4.99546e-06
-5.00857e-06
1.17103e-06
3.39019e-08
-8.98233e-07
-1.67296e-06
-2.31667e-06
-2.84782e-06
-3.28162e-06
-3.631e-06
-3.90726e-06
-4.12075e-06
-4.28124e-06
-4.39796e-06
-4.47918e-06
-4.53279e-06
-4.56269e-06
1.5298e-06
4.29215e-07
-4.69001e-07
-1.21326e-06
-1.83027e-06
-2.33857e-06
-2.754e-06
-3.09034e-06
-3.35949e-06
-3.57196e-06
-3.73717e-06
-3.86367e-06
-3.95882e-06
-4.0295e-06
-4.07888e-06
1.96228e-06
9.08388e-07
4.94835e-08
-6.62289e-07
-1.25345e-06
-1.74221e-06
-2.14435e-06
-2.47378e-06
-2.74236e-06
-2.96016e-06
-3.13593e-06
-3.27732e-06
-3.39079e-06
-3.48232e-06
-3.55455e-06
2.46881e-06
1.47303e-06
6.58666e-07
-1.92839e-08
-5.86117e-07
-1.05909e-06
-1.45326e-06
-1.78193e-06
-2.05624e-06
-2.28548e-06
-2.47745e-06
-2.63888e-06
-2.77533e-06
-2.89192e-06
-2.99104e-06
3.04228e-06
2.1162e-06
1.35095e-06
7.07571e-07
1.63414e-07
-2.97303e-07
-6.88329e-07
-1.02168e-06
-1.30733e-06
-1.55348e-06
-1.7669e-06
-1.95332e-06
-2.11748e-06
-2.2636e-06
-2.39404e-06
3.66665e-06
2.82031e-06
2.10723e-06
1.49832e-06
9.75163e-07
5.23737e-07
1.31914e-07
-2.10548e-07
-5.11998e-07
-7.7934e-07
-1.01836e-06
-1.23383e-06
-1.42969e-06
-1.60926e-06
-1.77512e-06
4.27443e-06
3.50936e-06
2.8467e-06
2.26972e-06
1.76526e-06
1.32098e-06
9.26287e-07
5.72845e-07
2.54017e-07
-3.57221e-08
-3.01087e-07
-5.46014e-07
-7.73801e-07
-9.87043e-07
-1.1886e-06
4.76918e-06
4.07295e-06
3.4529e-06
2.90283e-06
2.41409e-06
1.97581e-06
1.57881e-06
1.21643e-06
8.83531e-07
5.75717e-07
2.89204e-07
2.07953e-08
-2.32255e-07
-4.72013e-07
-7.01205e-07
5.13337e-06
4.49162e-06
3.90674e-06
3.37954e-06
2.90457e-06
2.47226e-06
2.07469e-06
1.70656e-06
1.36383e-06
1.04299e-06
7.40887e-07
4.54901e-07
1.82738e-07
-7.7287e-08
-3.27593e-07
5.39585e-06
4.79723e-06
4.24174e-06
3.73426e-06
3.27141e-06
2.84484e-06
2.44777e-06
2.07594e-06
1.7262e-06
1.39563e-06
1.08163e-06
7.8203e-07
4.94912e-07
2.18882e-07
-4.81304e-08
5.58144e-06
5.01708e-06
4.48631e-06
3.99591e-06
3.5437e-06
3.12244e-06
2.7264e-06
2.35217e-06
1.99721e-06
1.65911e-06
1.3357e-06
1.02518e-06
7.25956e-07
4.36866e-07
1.56173e-07
5.71075e-06
5.1739e-06
4.66405e-06
4.18842e-06
3.74543e-06
3.32884e-06
2.93391e-06
2.55792e-06
2.19879e-06
1.85453e-06
1.52335e-06
1.20373e-06
8.94387e-07
5.94341e-07
3.02155e-07
5.79977e-06
5.28532e-06
4.79321e-06
4.33023e-06
3.89506e-06
3.4824e-06
3.08842e-06
2.71095e-06
2.34828e-06
1.99877e-06
1.66093e-06
1.33355e-06
1.01557e-06
7.0617e-07
4.04181e-07
5.86053e-06
5.36456e-06
4.8875e-06
4.43528e-06
4.00664e-06
3.59719e-06
3.2039e-06
2.82504e-06
2.45923e-06
2.10511e-06
1.76148e-06
1.42735e-06
1.10188e-06
7.84406e-07
4.73965e-07
5.90183e-06
5.42131e-06
4.95702e-06
4.51389e-06
4.09064e-06
3.68375e-06
3.29088e-06
2.91068e-06
2.54201e-06
2.18377e-06
1.83502e-06
1.49498e-06
1.16297e-06
8.38459e-07
5.20683e-07
5.92997e-06
5.46254e-06
5.00908e-06
4.57356e-06
4.15475e-06
3.74988e-06
3.3572e-06
2.97567e-06
2.60437e-06
2.24244e-06
1.88915e-06
1.54389e-06
1.20613e-06
8.75472e-07
5.51299e-07
5.94939e-06
5.49313e-06
5.04887e-06
4.61971e-06
4.20455e-06
3.80126e-06
3.4086e-06
3.02578e-06
2.65207e-06
2.28681e-06
1.92947e-06
1.57959e-06
1.23676e-06
9.00706e-07
5.70932e-07
5.96311e-06
5.51648e-06
5.08002e-06
4.65619e-06
4.24401e-06
3.84198e-06
3.44922e-06
3.06515e-06
2.68923e-06
2.32099e-06
1.96004e-06
1.60605e-06
1.25874e-06
9.17926e-07
5.83225e-07
5.97316e-06
5.53487e-06
5.10504e-06
4.68566e-06
4.27597e-06
3.87494e-06
3.482e-06
3.09675e-06
2.71881e-06
2.34788e-06
1.9837e-06
1.62607e-06
1.27479e-06
9.29755e-07
5.90703e-07
5.98087e-06
5.54982e-06
5.12564e-06
4.71001e-06
4.3024e-06
3.90217e-06
3.50899e-06
3.12263e-06
2.74286e-06
2.36951e-06
2.00245e-06
1.64156e-06
1.28674e-06
9.37974e-07
5.95066e-07
5.98704e-06
5.56231e-06
5.14296e-06
4.73051e-06
4.32465e-06
3.92506e-06
3.53162e-06
3.14422e-06
2.76279e-06
2.38727e-06
2.01762e-06
1.65383e-06
1.29587e-06
9.43774e-07
5.97438e-07
5.99217e-06
5.57297e-06
5.15776e-06
4.74803e-06
4.34365e-06
3.94459e-06
3.55086e-06
3.16251e-06
2.77957e-06
2.4021e-06
2.03014e-06
1.66375e-06
1.30299e-06
9.47933e-07
5.98547e-07
5.99659e-06
5.58223e-06
5.17058e-06
4.76316e-06
4.36006e-06
3.96141e-06
3.5674e-06
3.17816e-06
2.79386e-06
2.41463e-06
2.0406e-06
1.6719e-06
1.30864e-06
9.50955e-07
5.98855e-07
6.0005e-06
5.59045e-06
5.18192e-06
4.77651e-06
4.3745e-06
3.97619e-06
3.58188e-06
3.19183e-06
2.80628e-06
2.42545e-06
2.04955e-06
1.67876e-06
1.31325e-06
9.53187e-07
5.98638e-07
6.00412e-06
5.59806e-06
5.19237e-06
4.78879e-06
4.38776e-06
3.98975e-06
3.59515e-06
3.20432e-06
2.81759e-06
2.43526e-06
2.0576e-06
1.68485e-06
1.31722e-06
9.54948e-07
5.98108e-07
6.0072e-06
5.60468e-06
5.20149e-06
4.79954e-06
4.39941e-06
4.00167e-06
3.60682e-06
3.21531e-06
2.82755e-06
2.4439e-06
2.0647e-06
1.69023e-06
1.32074e-06
9.56511e-07
5.97646e-07
-1.11767e-05
-9.24521e-06
-7.93706e-06
-7.07445e-06
-6.397e-06
-5.8685e-06
-5.4527e-06
-5.12132e-06
-4.85603e-06
-4.64303e-06
-4.4714e-06
-4.3322e-06
-4.2181e-06
-4.12331e-06
-4.04407e-06
-3.97955e-06
-3.93348e-06
-3.91644e-06
-3.94871e-06
-4.06215e-06
-4.29849e-06
-4.69705e-06
-5.21981e-06
-5.71123e-06
-6.05173e-06
-6.17635e-06
-6.04882e-06
-5.65433e-06
-4.99131e-06
-4.06734e-06
-2.8982e-06
-1.5075e-06
7.33786e-08
1.80605e-06
3.64632e-06
5.54549e-06
7.4512e-06
9.30692e-06
1.10492e-05
1.26013e-05
1.38624e-05
1.46802e-05
1.47846e-05
1.3697e-05
1.03774e-05
-9.8137e-06
-8.73889e-06
-7.75298e-06
-6.98816e-06
-6.35094e-06
-5.83679e-06
-5.42603e-06
-5.0966e-06
-4.83234e-06
-4.62032e-06
-4.44985e-06
-4.31207e-06
-4.19965e-06
-4.10683e-06
-4.02986e-06
-3.96796e-06
-3.92484e-06
-3.91099e-06
-3.94632e-06
-4.06194e-06
-4.29838e-06
-4.69351e-06
-5.20892e-06
-5.69134e-06
-6.02347e-06
-6.14152e-06
-6.00979e-06
-5.61373e-06
-4.95214e-06
-4.03323e-06
-2.87369e-06
-1.49833e-06
6.0005e-08
1.76104e-06
3.55811e-06
5.39901e-06
7.22617e-06
8.97483e-06
1.05678e-05
1.19044e-05
1.28365e-05
1.31192e-05
1.23204e-05
9.66846e-06
4.51084e-06
-8.97464e-06
-8.31649e-06
-7.55163e-06
-6.8776e-06
-6.2886e-06
-5.79609e-06
-5.39449e-06
-5.06923e-06
-4.80715e-06
-4.59666e-06
-4.42762e-06
-4.29139e-06
-4.18073e-06
-4.08992e-06
-4.01531e-06
-3.95615e-06
-3.91619e-06
-3.9058e-06
-3.94446e-06
-4.06249e-06
-4.29898e-06
-4.69008e-06
-5.19686e-06
-5.66863e-06
-5.99071e-06
-6.10077e-06
-5.9639e-06
-5.56597e-06
-4.90635e-06
-3.9942e-06
-2.84748e-06
-1.49269e-06
3.52567e-08
1.69353e-06
3.4321e-06
5.19424e-06
6.9159e-06
8.52295e-06
9.92421e-06
1.09996e-05
1.15738e-05
1.13805e-05
1.00333e-05
7.05362e-06
2.38128e-06
-8.43319e-06
-7.97578e-06
-7.36448e-06
-6.76945e-06
-6.22719e-06
-5.75802e-06
-5.3666e-06
-5.04562e-06
-4.78527e-06
-4.57562e-06
-4.40731e-06
-4.27201e-06
-4.16262e-06
-4.07352e-06
-4.00109e-06
-3.94466e-06
-3.90796e-06
-3.9012e-06
-3.94343e-06
-4.06397e-06
-4.30038e-06
-4.68684e-06
-5.18374e-06
-5.64328e-06
-5.95365e-06
-6.05416e-06
-5.91089e-06
-5.51038e-06
-4.85284e-06
-3.9487e-06
-2.81764e-06
-1.4883e-06
1.79486e-09
1.60663e-06
3.27223e-06
4.93675e-06
6.52944e-06
7.96743e-06
9.14937e-06
9.94551e-06
1.01807e-05
9.62588e-06
8.0199e-06
5.16286e-06
1.21923e-06
-8.02342e-06
-7.67914e-06
-7.18857e-06
-6.66833e-06
-6.17175e-06
-5.72693e-06
-5.34622e-06
-5.02907e-06
-4.76944e-06
-4.5594e-06
-4.39062e-06
-4.25524e-06
-4.14634e-06
-4.05839e-06
-3.98785e-06
-3.93406e-06
-3.90072e-06
-3.89782e-06
-3.94384e-06
-4.067e-06
-4.30309e-06
-4.68403e-06
-5.16952e-06
-5.61506e-06
-5.91209e-06
-6.0018e-06
-5.85153e-06
-5.44872e-06
-4.79472e-06
-3.90151e-06
-2.79085e-06
-1.49389e-06
-5.11475e-08
1.48788e-06
3.06506e-06
4.61364e-06
6.05718e-06
7.30692e-06
8.25817e-06
8.78449e-06
8.73478e-06
7.94424e-06
6.2753e-06
3.70309e-06
4.70344e-07
-7.67675e-06
-7.40717e-06
-7.0148e-06
-6.56813e-06
-6.1196e-06
-5.70231e-06
-5.33443e-06
-5.02161e-06
-4.76208e-06
-4.55046e-06
-4.37984e-06
-4.24306e-06
-4.13357e-06
-4.04598e-06
-3.97681e-06
-3.92543e-06
-3.89545e-06
-3.89656e-06
-3.94655e-06
-4.07235e-06
-4.30771e-06
-4.68201e-06
-5.15422e-06
-5.58375e-06
-5.86567e-06
-5.94339e-06
-5.78584e-06
-5.38161e-06
-4.73348e-06
-3.85535e-06
-2.77132e-06
-1.51536e-06
-1.31174e-07
1.32822e-06
2.80088e-06
4.21613e-06
5.49413e-06
6.54479e-06
7.26803e-06
7.55276e-06
7.28549e-06
6.36931e-06
4.76217e-06
2.532e-06
-8.37245e-08
-7.3599e-06
-7.14566e-06
-6.83353e-06
-6.45847e-06
-6.06235e-06
-5.67841e-06
-5.32822e-06
-5.0225e-06
-4.76398e-06
-4.55043e-06
-4.37696e-06
-4.23757e-06
-4.12631e-06
-4.0381e-06
-3.96961e-06
-3.92024e-06
-3.89347e-06
-3.89861e-06
-3.95262e-06
-4.08094e-06
-4.31498e-06
-4.68124e-06
-5.13796e-06
-5.54919e-06
-5.81409e-06
-5.87865e-06
-5.71373e-06
-5.30947e-06
-4.67038e-06
-3.81255e-06
-2.76272e-06
-1.55783e-06
-2.44724e-07
1.12043e-06
2.47281e-06
3.7397e-06
4.8412e-06
5.69139e-06
6.20171e-06
6.28461e-06
5.86715e-06
4.90901e-06
3.42845e-06
1.52727e-06
-5.99681e-07
-7.0542e-06
-6.88389e-06
-6.63757e-06
-6.32972e-06
-5.98935e-06
-5.64543e-06
-5.31997e-06
-5.02679e-06
-4.7726e-06
-4.55862e-06
-4.38251e-06
-4.23998e-06
-4.12611e-06
-4.03644e-06
-3.96795e-06
-3.92012e-06
-3.89633e-06
-3.90542e-06
-3.96337e-06
-4.09388e-06
-4.32577e-06
-4.68228e-06
-5.12098e-06
-5.51138e-06
-5.75725e-06
-5.80758e-06
-5.63563e-06
-5.23343e-06
-4.60754e-06
-3.77655e-06
-2.76995e-06
-1.62759e-06
-3.99045e-07
8.57223e-07
2.07514e-06
3.18256e-06
4.10338e-06
4.76099e-06
5.08304e-06
5.00846e-06
4.49983e-06
3.55619e-06
2.22571e-06
6.10956e-07
-1.14034e-06
-6.74895e-06
-6.61505e-06
-6.42309e-06
-6.17588e-06
-5.89155e-06
-5.5928e-06
-5.29937e-06
-5.02592e-06
-4.7817e-06
-4.57106e-06
-4.39443e-06
-4.24964e-06
-4.1333e-06
-4.04194e-06
-3.97311e-06
-3.92655e-06
-3.90556e-06
-3.91849e-06
-3.98021e-06
-4.11244e-06
-4.34107e-06
-4.68581e-06
-5.10366e-06
-5.4705e-06
-5.69538e-06
-5.73074e-06
-5.55271e-06
-5.15564e-06
-4.54845e-06
-3.75232e-06
-2.79946e-06
-1.73222e-06
-6.02119e-07
5.31543e-07
1.6036e-06
2.54552e-06
3.28867e-06
3.76926e-06
3.93325e-06
3.74401e-06
3.19081e-06
2.29549e-06
1.1156e-06
-2.59672e-07
-1.72207e-06
-6.437e-06
-6.33449e-06
-6.18814e-06
-5.99435e-06
-5.76349e-06
-5.51215e-06
-5.25643e-06
-5.00983e-06
-4.7825e-06
-4.58088e-06
-4.40785e-06
-4.26351e-06
-4.14631e-06
-4.05411e-06
-3.98537e-06
-3.94032e-06
-3.92228e-06
-3.93911e-06
-4.00443e-06
-4.13779e-06
-4.36189e-06
-4.6926e-06
-5.08658e-06
-5.42711e-06
-5.62926e-06
-5.64949e-06
-5.46729e-06
-5.07969e-06
-4.49818e-06
-3.74649e-06
-2.85919e-06
-1.88035e-06
-8.62132e-07
1.37222e-07
1.05593e-06
1.83193e-06
2.40689e-06
2.73132e-06
2.76879e-06
2.50221e-06
1.93809e-06
1.10837e-06
6.84769e-08
-1.10959e-06
-2.34737e-06
-6.11239e-06
-6.038e-06
-5.93097e-06
-5.78402e-06
-5.60254e-06
-5.39828e-06
-5.18347e-06
-4.96937e-06
-4.76562e-06
-4.57956e-06
-4.41576e-06
-4.27629e-06
-4.16145e-06
-4.07069e-06
-4.00361e-06
-3.96114e-06
-3.94678e-06
-3.96791e-06
-4.03684e-06
-4.17078e-06
-4.389e-06
-4.7034e-06
-5.07059e-06
-5.38229e-06
-5.56056e-06
-5.56647e-06
-5.38328e-06
-5.01104e-06
-4.46381e-06
-3.76759e-06
-2.95854e-06
-2.08127e-06
-1.18688e-06
-3.30423e-07
4.32077e-07
1.04727e-06
1.46852e-06
1.6602e-06
1.60079e-06
1.28683e-06
7.34045e-07
-2.37718e-08
-9.38568e-07
-1.95455e-06
-3.01481e-06
-5.76964e-06
-5.72132e-06
-5.6492e-06
-5.54376e-06
-5.40734e-06
-5.24825e-06
-5.07543e-06
-4.89754e-06
-4.72287e-06
-4.55864e-06
-4.41026e-06
-4.28121e-06
-4.17338e-06
-4.08774e-06
-4.02514e-06
-3.98736e-06
-3.97818e-06
-4.00457e-06
-4.07748e-06
-4.21166e-06
-4.42282e-06
-4.71895e-06
-5.05694e-06
-5.338e-06
-5.49228e-06
-5.48607e-06
-5.30673e-06
-4.95745e-06
-4.45464e-06
-3.82591e-06
-3.10789e-06
-2.3442e-06
-1.58293e-06
-8.73929e-07
-2.65559e-07
1.98718e-07
4.839e-07
5.6633e-07
4.35717e-07
9.67901e-08
-4.31381e-07
-1.11774e-06
-1.9231e-06
-2.80529e-06
-3.72276e-06
-5.40366e-06
-5.38018e-06
-5.33992e-06
-5.27193e-06
-5.17669e-06
-5.06026e-06
-4.92908e-06
-4.78942e-06
-4.64786e-06
-4.51084e-06
-4.38389e-06
-4.27124e-06
-4.17592e-06
-4.10017e-06
-4.04601e-06
-4.01607e-06
-4.01445e-06
-4.04772e-06
-4.12547e-06
-4.25997e-06
-4.46337e-06
-4.73999e-06
-5.04754e-06
-5.29749e-06
-5.42928e-06
-5.41501e-06
-5.24626e-06
-4.92919e-06
-4.48205e-06
-3.93298e-06
-3.31773e-06
-2.67713e-06
-2.05451e-06
-1.49285e-06
-1.03183e-06
-7.04938e-07
-5.36859e-07
-5.41883e-07
-7.22868e-07
-1.07115e-06
-1.56803e-06
-2.18722e-06
-2.89806e-06
-3.66918e-06
-4.47003e-06
-5.00987e-06
-5.01063e-06
-5.00018e-06
-4.96662e-06
-4.90934e-06
-4.83305e-06
-4.7424e-06
-4.64173e-06
-4.53597e-06
-4.43046e-06
-4.3303e-06
-4.2399e-06
-4.16293e-06
-4.10251e-06
-4.06158e-06
-4.04349e-06
-4.05262e-06
-4.0951e-06
-4.17918e-06
-4.3147e-06
-4.51045e-06
-4.76756e-06
-5.04521e-06
-5.26573e-06
-5.37876e-06
-5.3627e-06
-5.21315e-06
-4.93875e-06
-4.55868e-06
-4.10038e-06
-3.59712e-06
-3.08535e-06
-2.60221e-06
-2.18293e-06
-1.85842e-06
-1.65309e-06
-1.58334e-06
-1.65686e-06
-1.87227e-06
-2.21993e-06
-2.68344e-06
-3.24183e-06
-3.87185e-06
-4.55043e-06
-5.25504e-06
-4.5839e-06
-4.60882e-06
-4.6269e-06
-4.62567e-06
-4.60392e-06
-4.56557e-06
-4.51411e-06
-4.45244e-06
-4.38409e-06
-4.31329e-06
-4.24441e-06
-4.18163e-06
-4.12877e-06
-4.0894e-06
-4.06704e-06
-4.06547e-06
-4.08921e-06
-4.14391e-06
-4.23651e-06
-4.3746e-06
-4.56397e-06
-4.80329e-06
-5.05402e-06
-5.24959e-06
-5.35028e-06
-5.34091e-06
-5.22061e-06
-4.99963e-06
-4.69693e-06
-4.33791e-06
-3.95193e-06
-3.56988e-06
-3.22197e-06
-2.93561e-06
-2.73371e-06
-2.6332e-06
-2.64436e-06
-2.77069e-06
-3.009e-06
-3.35037e-06
-3.78156e-06
-4.28658e-06
-4.84821e-06
-5.44977e-06
-6.07459e-06
-4.12182e-06
-4.17131e-06
-4.21713e-06
-4.24682e-06
-4.25891e-06
-4.25682e-06
-4.24331e-06
-4.22032e-06
-4.1903e-06
-4.15649e-06
-4.12249e-06
-4.09198e-06
-4.06857e-06
-4.05589e-06
-4.05762e-06
-4.07769e-06
-4.12051e-06
-4.19115e-06
-4.29531e-06
-4.4386e-06
-4.62441e-06
-4.84979e-06
-5.0794e-06
-5.25762e-06
-5.35509e-06
-5.36267e-06
-5.28218e-06
-5.12437e-06
-4.90681e-06
-4.65166e-06
-4.38338e-06
-4.12675e-06
-3.90505e-06
-3.73861e-06
-3.64364e-06
-3.6314e-06
-3.7081e-06
-3.87487e-06
-4.12822e-06
-4.46088e-06
-4.86278e-06
-5.32221e-06
-5.82677e-06
-6.36455e-06
-6.92331e-06
-3.62168e-06
-3.69642e-06
-3.7694e-06
-3.82899e-06
-3.87375e-06
-3.90672e-06
-3.93018e-06
-3.94546e-06
-3.95424e-06
-3.95899e-06
-3.9626e-06
-3.96814e-06
-3.97883e-06
-3.99801e-06
-4.0292e-06
-4.07616e-06
-4.14293e-06
-4.23391e-06
-4.35363e-06
-4.50609e-06
-4.69295e-06
-4.91067e-06
-5.12787e-06
-5.29926e-06
-5.40479e-06
-5.44037e-06
-5.40952e-06
-5.32233e-06
-5.19398e-06
-5.04261e-06
-4.88745e-06
-4.74725e-06
-4.63909e-06
-4.57737e-06
-4.57314e-06
-4.63372e-06
-4.76281e-06
-4.96053e-06
-5.22394e-06
-5.54759e-06
-5.92431e-06
-6.34584e-06
-6.8035e-06
-7.28895e-06
-7.7933e-06
-3.08531e-06
-3.18602e-06
-3.28545e-06
-3.374e-06
-3.45056e-06
-3.51773e-06
-3.57734e-06
-3.63038e-06
-3.6781e-06
-3.72238e-06
-3.76549e-06
-3.80995e-06
-3.85844e-06
-3.91386e-06
-3.97932e-06
-4.05814e-06
-4.15383e-06
-4.27e-06
-4.41016e-06
-4.57707e-06
-4.77144e-06
-4.99004e-06
-5.20598e-06
-5.38321e-06
-5.50916e-06
-5.58336e-06
-5.60987e-06
-5.59739e-06
-5.55808e-06
-5.50587e-06
-5.45496e-06
-5.41881e-06
-5.40937e-06
-5.4365e-06
-5.50755e-06
-5.62729e-06
-5.79802e-06
-6.01966e-06
-6.29014e-06
-6.60577e-06
-6.96173e-06
-7.35249e-06
-7.77215e-06
-8.21502e-06
-8.67482e-06
-2.51869e-06
-2.64608e-06
-2.77121e-06
-2.8879e-06
-2.9957e-06
-3.09651e-06
-3.19168e-06
-3.28205e-06
-3.36863e-06
-3.4529e-06
-3.53666e-06
-3.62189e-06
-3.71079e-06
-3.80571e-06
-3.90926e-06
-4.02416e-06
-4.15328e-06
-4.29946e-06
-4.46535e-06
-4.65287e-06
-4.86241e-06
-5.09167e-06
-5.31863e-06
-5.51512e-06
-5.67351e-06
-5.79498e-06
-5.88334e-06
-5.94556e-06
-5.99081e-06
-6.02912e-06
-6.07037e-06
-6.12378e-06
-6.19742e-06
-6.29789e-06
-6.43011e-06
-6.59732e-06
-6.80112e-06
-7.04161e-06
-7.31761e-06
-7.62688e-06
-7.96645e-06
-8.33283e-06
-8.7222e-06
-9.1308e-06
-9.5544e-06
-1.93312e-06
-2.08759e-06
-2.2375e-06
-2.38161e-06
-2.52031e-06
-2.65447e-06
-2.78485e-06
-2.91219e-06
-3.03745e-06
-3.16182e-06
-3.2867e-06
-3.41364e-06
-3.54437e-06
-3.68076e-06
-3.82486e-06
-3.97882e-06
-4.14484e-06
-4.32511e-06
-4.52159e-06
-4.7357e-06
-4.96792e-06
-5.21696e-06
-5.46598e-06
-5.69384e-06
-5.8947e-06
-6.0691e-06
-6.22006e-06
-6.35318e-06
-6.47514e-06
-6.59274e-06
-6.71253e-06
-6.84055e-06
-6.98213e-06
-7.14164e-06
-7.32248e-06
-7.52711e-06
-7.75688e-06
-8.01218e-06
-8.29257e-06
-8.59695e-06
-8.92373e-06
-9.27089e-06
-9.63618e-06
-1.00172e-05
-1.04115e-05
-1.38007e-06
-1.5614e-06
-1.73554e-06
-1.90626e-06
-2.07473e-06
-2.24077e-06
-2.40453e-06
-2.56671e-06
-2.72826e-06
-2.89015e-06
-3.05348e-06
-3.21947e-06
-3.38948e-06
-3.565e-06
-3.74763e-06
-3.93904e-06
-4.14093e-06
-4.35498e-06
-4.58273e-06
-4.8253e-06
-5.08345e-06
-5.35625e-06
-5.63193e-06
-5.89572e-06
-6.14085e-06
-6.36526e-06
-6.57111e-06
-6.76331e-06
-6.94696e-06
-7.12666e-06
-7.30668e-06
-7.49109e-06
-7.6835e-06
-7.88695e-06
-8.10391e-06
-8.33629e-06
-8.58535e-06
-8.85169e-06
-9.13543e-06
-9.43625e-06
-9.75347e-06
-1.00861e-05
-1.04331e-05
-1.07929e-05
-1.11644e-05
-9.19571e-07
-1.12552e-06
-1.32383e-06
-1.52018e-06
-1.71595e-06
-1.91048e-06
-2.10363e-06
-2.29606e-06
-2.48867e-06
-2.68227e-06
-2.87774e-06
-3.07609e-06
-3.27842e-06
-3.48595e-06
-3.69996e-06
-3.92182e-06
-4.15291e-06
-4.3946e-06
-4.64818e-06
-4.91464e-06
-5.19501e-06
-5.48854e-06
-5.78732e-06
-6.08093e-06
-6.36101e-06
-6.62302e-06
-6.8686e-06
-7.10244e-06
-7.32873e-06
-7.55069e-06
-7.77128e-06
-7.99339e-06
-8.21966e-06
-8.45238e-06
-8.69343e-06
-8.9443e-06
-9.20609e-06
-9.47958e-06
-9.76516e-06
-1.0063e-05
-1.03728e-05
-1.06943e-05
-1.10269e-05
-1.13698e-05
-1.17226e-05
-5.67464e-07
-7.95233e-07
-1.01591e-06
-1.23523e-06
-1.45451e-06
-1.67299e-06
-1.89049e-06
-2.10763e-06
-2.32521e-06
-2.54392e-06
-2.7645e-06
-2.98779e-06
-3.21474e-06
-3.44636e-06
-3.68375e-06
-3.92804e-06
-4.18043e-06
-4.44211e-06
-4.71424e-06
-4.99776e-06
-5.29389e-06
-5.60199e-06
-5.91662e-06
-6.2301e-06
-6.53302e-06
-6.81944e-06
-7.09072e-06
-7.35134e-06
-7.60488e-06
-7.85375e-06
-8.10011e-06
-8.34614e-06
-8.59392e-06
-8.84523e-06
-9.1016e-06
-9.36427e-06
-9.63427e-06
-9.91236e-06
-1.01991e-05
-1.04948e-05
-1.07995e-05
-1.11132e-05
-1.14356e-05
-1.17664e-05
-1.21054e-05
-3.05548e-07
-5.52153e-07
-7.92529e-07
-1.0317e-06
-1.27078e-06
-1.5091e-06
-1.74654e-06
-1.98364e-06
-2.22108e-06
-2.45948e-06
-2.69946e-06
-2.94175e-06
-3.18716e-06
-3.43657e-06
-3.69093e-06
-3.95123e-06
-4.21853e-06
-4.4939e-06
-4.77844e-06
-5.07306e-06
-5.37906e-06
-5.69593e-06
-6.01971e-06
-6.34441e-06
-6.66036e-06
-6.96112e-06
-7.24792e-06
-7.52499e-06
-7.79542e-06
-8.06109e-06
-8.32369e-06
-8.58498e-06
-8.84661e-06
-9.11007e-06
-9.3766e-06
-9.64728e-06
-9.92303e-06
-1.02046e-05
-1.04925e-05
-1.07871e-05
-1.10887e-05
-1.13974e-05
-1.17132e-05
-1.20357e-05
-1.2365e-05
-1.15861e-07
-3.78577e-07
-6.35886e-07
-8.9189e-07
-1.14746e-06
-1.40206e-06
-1.65563e-06
-1.90867e-06
-2.16174e-06
-2.41538e-06
-2.67015e-06
-2.92666e-06
-3.18564e-06
-3.44786e-06
-3.71416e-06
-3.98542e-06
-4.2626e-06
-4.54669e-06
-4.83874e-06
-5.13963e-06
-5.45073e-06
-5.77156e-06
-6.09909e-06
-6.42833e-06
-6.74993e-06
-7.0577e-06
-7.35284e-06
-7.63926e-06
-7.91959e-06
-8.19537e-06
-8.46797e-06
-8.73887e-06
-9.00944e-06
-9.2809e-06
-9.55433e-06
-9.83065e-06
-1.01107e-05
-1.0395e-05
-1.06843e-05
-1.0979e-05
-1.12792e-05
-1.15852e-05
-1.1897e-05
-1.22146e-05
-1.2538e-05
1.77821e-08
-2.58607e-07
-5.30228e-07
-8.00278e-07
-1.0694e-06
-1.33721e-06
-1.6037e-06
-1.86931e-06
-2.13453e-06
-2.39982e-06
-2.66567e-06
-2.93264e-06
-3.20137e-06
-3.47255e-06
-3.74693e-06
-4.02531e-06
-4.30858e-06
-4.59764e-06
-4.89351e-06
-5.19706e-06
-5.50963e-06
-5.83082e-06
-6.15813e-06
-6.48717e-06
-6.80933e-06
-7.11911e-06
-7.41776e-06
-7.70877e-06
-7.99437e-06
-8.27585e-06
-8.55437e-06
-8.8312e-06
-9.1075e-06
-9.3843e-06
-9.66253e-06
-9.94299e-06
-1.02264e-05
-1.05133e-05
-1.08043e-05
-1.10998e-05
-1.14e-05
-1.17052e-05
-1.20154e-05
-1.23306e-05
-1.2651e-05
1.09311e-07
-1.78627e-07
-4.62221e-07
-7.43883e-07
-1.02407e-06
-1.30252e-06
-1.57928e-06
-1.85474e-06
-2.12932e-06
-2.40342e-06
-2.67749e-06
-2.95203e-06
-3.22761e-06
-3.50485e-06
-3.78444e-06
-4.06712e-06
-4.35369e-06
-4.64501e-06
-4.94205e-06
-5.24566e-06
-5.55715e-06
-5.87618e-06
-6.20054e-06
-6.52627e-06
-6.84574e-06
-7.15432e-06
-7.45336e-06
-7.74588e-06
-8.03374e-06
-8.31805e-06
-8.59983e-06
-8.88018e-06
-9.16009e-06
-9.44048e-06
-9.72212e-06
-1.00057e-05
-1.02919e-05
-1.05813e-05
-1.08743e-05
-1.11712e-05
-1.14724e-05
-1.17781e-05
-1.20884e-05
-1.24034e-05
-1.2723e-05
1.70114e-07
-1.27567e-07
-4.21128e-07
-7.1235e-07
-1.00155e-06
-1.28855e-06
-1.57345e-06
-1.8566e-06
-2.13835e-06
-2.41908e-06
-2.69918e-06
-2.97911e-06
-3.25938e-06
-3.54058e-06
-3.82331e-06
-4.10826e-06
-4.39618e-06
-4.68789e-06
-4.98428e-06
-5.2862e-06
-5.59491e-06
-5.91013e-06
-6.22984e-06
-6.55043e-06
-6.8653e-06
-7.17081e-06
-7.46835e-06
-7.76046e-06
-8.04869e-06
-8.33401e-06
-8.61735e-06
-8.89965e-06
-9.1818e-06
-9.46459e-06
-9.7487e-06
-1.00348e-05
-1.03234e-05
-1.0615e-05
-1.09101e-05
-1.1209e-05
-1.1512e-05
-1.18192e-05
-1.21308e-05
-1.24468e-05
-1.27674e-05
2.09114e-07
-9.67926e-08
-3.98647e-07
-6.97737e-07
-9.94271e-07
-1.28816e-06
-1.57953e-06
-1.86869e-06
-2.15595e-06
-2.44164e-06
-2.72614e-06
-3.00986e-06
-3.29328e-06
-3.57692e-06
-3.86134e-06
-4.14719e-06
-4.43516e-06
-4.72601e-06
-5.02059e-06
-5.31973e-06
-5.62462e-06
-5.93507e-06
-6.24918e-06
-6.56369e-06
-6.87305e-06
-7.17453e-06
-7.46951e-06
-7.7601e-06
-8.04758e-06
-8.33281e-06
-8.61663e-06
-8.89989e-06
-9.18338e-06
-9.46778e-06
-9.75373e-06
-1.00418e-05
-1.03325e-05
-1.06263e-05
-1.09236e-05
-1.12246e-05
-1.15298e-05
-1.18391e-05
-1.21528e-05
-1.24709e-05
-1.27936e-05
2.33069e-07
-7.98048e-08
-3.88577e-07
-6.94166e-07
-9.96705e-07
-1.29617e-06
-1.59271e-06
-1.88659e-06
-2.1781e-06
-2.46754e-06
-2.75525e-06
-3.04162e-06
-3.32709e-06
-3.61214e-06
-3.89729e-06
-4.18314e-06
-4.47033e-06
-4.75957e-06
-5.05167e-06
-5.3474e-06
-5.64794e-06
-5.95312e-06
-6.26123e-06
-6.56936e-06
-6.87293e-06
-7.17002e-06
-7.46196e-06
-7.75045e-06
-8.03655e-06
-8.32105e-06
-8.60472e-06
-8.88832e-06
-9.17256e-06
-9.45805e-06
-9.74538e-06
-1.00351e-05
-1.03276e-05
-1.06234e-05
-1.09228e-05
-1.12262e-05
-1.15337e-05
-1.18455e-05
-1.21618e-05
-1.24826e-05
-1.28079e-05
2.46925e-07
-7.18808e-08
-3.86456e-07
-6.97446e-07
-1.00494e-06
-1.30897e-06
-1.60968e-06
-1.90732e-06
-2.20214e-06
-2.49442e-06
-2.7845e-06
-3.07272e-06
-3.3595e-06
-3.64527e-06
-3.93053e-06
-4.21583e-06
-4.50176e-06
-4.78899e-06
-5.07827e-06
-5.37034e-06
-5.66631e-06
-5.96609e-06
-6.26816e-06
-6.57001e-06
-6.86793e-06
-7.16065e-06
-7.4494e-06
-7.73554e-06
-8.01996e-06
-8.3034e-06
-8.58655e-06
-8.87011e-06
-9.15472e-06
-9.44095e-06
-9.72934e-06
-1.00204e-05
-1.03145e-05
-1.06122e-05
-1.09137e-05
-1.12193e-05
-1.15292e-05
-1.18437e-05
-1.21627e-05
-1.24864e-05
-1.28149e-05
2.54184e-07
-6.97035e-08
-3.89183e-07
-7.04702e-07
-1.01633e-06
-1.32413e-06
-1.62826e-06
-1.92892e-06
-2.22637e-06
-2.52087e-06
-2.81271e-06
-3.10223e-06
-3.38982e-06
-3.67588e-06
-3.96088e-06
-4.24532e-06
-4.52975e-06
-4.8148e-06
-5.10116e-06
-5.38954e-06
-5.68099e-06
-5.97546e-06
-6.27167e-06
-6.56757e-06
-6.86019e-06
-7.14876e-06
-7.43438e-06
-7.71813e-06
-8.00077e-06
-8.28299e-06
-8.56543e-06
-8.84873e-06
-9.13347e-06
-9.4202e-06
-9.70942e-06
-1.00016e-05
-1.02971e-05
-1.05965e-05
-1.08999e-05
-1.12076e-05
-1.15199e-05
-1.1837e-05
-1.21589e-05
-1.24856e-05
-1.28172e-05
2.57251e-07
-7.10196e-08
-3.94678e-07
-7.14036e-07
-1.02916e-06
-1.34012e-06
-1.64708e-06
-1.95023e-06
-2.2498e-06
-2.54604e-06
-2.83923e-06
-3.12969e-06
-3.41777e-06
-3.70386e-06
-3.98838e-06
-4.27182e-06
-4.55468e-06
-4.83753e-06
-5.12103e-06
-5.40582e-06
-5.69292e-06
-5.98232e-06
-6.273e-06
-6.5634e-06
-6.85119e-06
-7.13593e-06
-7.41857e-06
-7.7e-06
-7.98089e-06
-8.26185e-06
-8.5435e-06
-8.82641e-06
-9.11114e-06
-9.39819e-06
-9.68806e-06
-9.98118e-06
-1.0278e-05
-1.05788e-05
-1.08839e-05
-1.11937e-05
-1.15082e-05
-1.18278e-05
-1.21524e-05
-1.2482e-05
-1.28168e-05
2.57731e-07
-7.4346e-08
-4.01597e-07
-7.24244e-07
-1.04235e-06
-1.356e-06
-1.66535e-06
-1.97058e-06
-2.27189e-06
-2.56954e-06
-2.86378e-06
-3.15492e-06
-3.44329e-06
-3.72925e-06
-4.01321e-06
-4.2956e-06
-4.5769e-06
-4.85764e-06
-5.13842e-06
-5.41984e-06
-5.70285e-06
-5.98748e-06
-6.27303e-06
-6.55844e-06
-6.84187e-06
-7.12313e-06
-7.40302e-06
-7.68227e-06
-7.96147e-06
-8.2412e-06
-8.52203e-06
-8.8045e-06
-9.08912e-06
-9.37639e-06
-9.66676e-06
-9.96067e-06
-1.02585e-05
-1.05606e-05
-1.08673e-05
-1.11789e-05
-1.14956e-05
-1.18174e-05
-1.21445e-05
-1.2477e-05
-1.28147e-05
2.56671e-07
-7.87324e-08
-4.09098e-07
-7.34589e-07
-1.05527e-06
-1.37123e-06
-1.68262e-06
-1.9896e-06
-2.29238e-06
-2.59119e-06
-2.88628e-06
-3.17793e-06
-3.46646e-06
-3.75222e-06
-4.03557e-06
-4.31693e-06
-4.59675e-06
-4.8755e-06
-5.15376e-06
-5.43205e-06
-5.71129e-06
-5.99151e-06
-6.27236e-06
-6.55326e-06
-6.83281e-06
-7.11093e-06
-7.3883e-06
-7.66553e-06
-7.94316e-06
-8.22173e-06
-8.50176e-06
-8.78376e-06
-9.06822e-06
-9.35562e-06
-9.64639e-06
-9.94096e-06
-1.02397e-05
-1.0543e-05
-1.08511e-05
-1.11643e-05
-1.14828e-05
-1.18068e-05
-1.21363e-05
-1.24713e-05
-1.28118e-05
2.5474e-07
-8.35815e-08
-4.16662e-07
-7.4463e-07
-1.06755e-06
-1.38551e-06
-1.69865e-06
-2.00714e-06
-2.31117e-06
-2.61095e-06
-2.90673e-06
-3.19878e-06
-3.48739e-06
-3.7729e-06
-4.05566e-06
-4.33605e-06
-4.61449e-06
-4.89142e-06
-5.16737e-06
-5.4428e-06
-5.7186e-06
-5.99478e-06
-6.27134e-06
-6.54822e-06
-6.82432e-06
-7.09963e-06
-7.37472e-06
-7.65011e-06
-7.9263e-06
-8.20378e-06
-8.48305e-06
-8.76459e-06
-9.04886e-06
-9.33633e-06
-9.62741e-06
-9.92253e-06
-1.02221e-05
-1.05263e-05
-1.08357e-05
-1.11503e-05
-1.14705e-05
-1.17964e-05
-1.2128e-05
-1.24653e-05
-1.28084e-05
2.52349e-07
-8.85403e-08
-4.23999e-07
-7.54134e-07
-1.07901e-06
-1.39871e-06
-1.71338e-06
-2.02317e-06
-2.32827e-06
-2.62887e-06
-2.92523e-06
-3.21759e-06
-3.50624e-06
-3.7915e-06
-4.07369e-06
-4.35318e-06
-4.63035e-06
-4.90562e-06
-5.17948e-06
-5.45234e-06
-5.72502e-06
-5.99753e-06
-6.27021e-06
-6.5435e-06
-6.81655e-06
-7.08935e-06
-7.36239e-06
-7.63612e-06
-7.911e-06
-8.18748e-06
-8.46604e-06
-8.74713e-06
-9.0312e-06
-9.31869e-06
-9.61002e-06
-9.9056e-06
-1.02058e-05
-1.05109e-05
-1.08214e-05
-1.11373e-05
-1.1459e-05
-1.17865e-05
-1.212e-05
-1.24594e-05
-1.28048e-05
2.49705e-07
-9.34802e-08
-4.31056e-07
-7.63118e-07
-1.08973e-06
-1.41098e-06
-1.727e-06
-2.03793e-06
-2.34395e-06
-2.64528e-06
-2.94212e-06
-3.23474e-06
-3.5234e-06
-3.8084e-06
-4.09005e-06
-4.36871e-06
-4.64472e-06
-4.91848e-06
-5.19042e-06
-5.46094e-06
-5.73079e-06
-5.99994e-06
-6.26907e-06
-6.53913e-06
-6.80945e-06
-7.07999e-06
-7.35117e-06
-7.62338e-06
-7.89706e-06