/*--------------------------------*- C++ -*----------------------------------*\
| =========                 |                                                 |
| \\      /  F ield         | OpenFOAM: The Open Source CFD Toolbox           |
|  \\    /   O peration     | Version:  2312                                  |
|   \\  /    A nd           | Website:  www.openfoam.com                      |
|    \\/     M anipulation  |                                                 |
\*---------------------------------------------------------------------------*/
FoamFile
{
    version     2.0;
    format      ascii;
    arch        "LSB;label=32;scalar=64";
    class       surfaceScalarField;
    location    "300";
    object      phi;
}
// * * * * * * * * * * * * * * * * * * * * * * * * * * * * * * * * * * * * * //

dimensions      [0 3 -1 0 0 0 0];

oriented        oriented;

internalField   nonuniform List<scalar> 
9445
(
5.16235e-10
1.07555e-11
5.09913e-10
6.32262e-12
5.06376e-10
3.53708e-12
5.04813e-10
1.56312e-12
5.04731e-10
8.10901e-14
5.05843e-10
-1.11109e-12
5.08015e-10
-2.17243e-12
5.11254e-10
-3.23952e-12
5.15738e-10
-4.48311e-12
5.2199e-10
-6.25225e-12
5.31542e-10
-9.55187e-12
5.48934e-10
-1.7392e-11
5.85585e-10
-3.66514e-11
6.71978e-10
-8.63927e-11
-2.34857e-10
9.06835e-10
1.80215e-09
4.80026e-11
1.77992e-09
2.85572e-11
1.76713e-09
1.63212e-11
1.76096e-09
7.7349e-12
1.75972e-09
1.31701e-12
1.76242e-09
-3.80681e-12
1.76856e-09
-8.30908e-12
1.77808e-09
-1.27621e-11
1.79144e-09
-1.78412e-11
1.80993e-09
-2.47484e-11
1.83666e-09
-3.62817e-11
1.87822e-09
-5.89511e-11
1.94672e-09
-1.05148e-10
2.05563e-09
-1.95304e-10
-3.47362e-10
2.16814e-09
3.55641e-09
1.20442e-10
3.51256e-09
7.24067e-11
3.48682e-09
4.20635e-11
3.47363e-09
2.09284e-11
3.46973e-09
5.2123e-12
3.47317e-09
-7.24014e-12
3.48289e-09
-1.80317e-11
3.49862e-09
-2.84914e-11
3.52085e-09
-4.00697e-11
3.55109e-09
-5.49928e-11
3.5923e-09
-7.74879e-11
3.64869e-09
-1.15339e-10
3.72301e-09
-1.79475e-10
3.80519e-09
-2.77485e-10
-3.97181e-10
3.85501e-09
5.90759e-09
2.38244e-10
5.83521e-09
1.4479e-10
5.79178e-09
8.54926e-11
5.76827e-09
4.44342e-11
5.75939e-09
1.40925e-11
5.76189e-09
-9.73758e-12
5.77391e-09
-3.00491e-11
5.79463e-09
-4.92176e-11
5.82414e-09
-6.95764e-11
5.86325e-09
-9.41063e-11
5.91305e-09
-1.27281e-10
5.97303e-09
-1.75324e-10
6.03721e-09
-2.43657e-10
6.08919e-09
-3.29461e-10
-4.13515e-10
6.10553e-09
9.01147e-09
4.12155e-10
8.90276e-09
2.53507e-10
8.83601e-09
1.52243e-10
8.798e-09
8.24375e-11
8.7809e-09
3.11992e-11
8.7798e-09
-8.64174e-12
8.7917e-09
-4.19522e-11
8.81487e-09
-7.23809e-11
8.84838e-09
-1.03086e-10
8.89156e-09
-1.37292e-10
8.94286e-09
-1.78573e-10
8.99772e-09
-2.30185e-10
9.04651e-09
-2.92455e-10
9.07551e-09
-3.58457e-10
-4.12652e-10
9.07465e-09
1.30527e-08
6.51542e-10
1.29001e-08
4.06151e-10
1.2804e-08
2.48297e-10
1.27467e-08
1.39734e-10
1.27174e-08
6.05666e-11
1.2709e-08
-3.31111e-13
1.27173e-08
-5.0188e-11
1.2739e-08
-9.40959e-11
1.27718e-08
-1.35914e-10
1.28132e-08
-1.78705e-10
1.28594e-08
-2.24694e-10
1.29037e-08
-2.74534e-10
1.29371e-08
-3.25892e-10
1.29509e-08
-3.72236e-10
-4.04211e-10
1.29425e-08
1.82434e-08
9.60323e-10
1.80418e-08
6.07736e-10
1.79115e-08
3.78556e-10
1.78304e-08
2.20845e-10
1.77845e-08
1.06446e-10
1.77648e-08
1.93826e-11
1.7765e-08
-5.03881e-11
1.77805e-08
-1.0955e-10
1.78072e-08
-1.62619e-10
1.78409e-08
-2.12446e-10
1.78765e-08
-2.60271e-10
1.79075e-08
-3.05489e-10
1.7927e-08
-3.45483e-10
1.79308e-08
-3.76035e-10
-3.92901e-10
1.79195e-08
2.48164e-08
1.33055e-09
2.45677e-08
8.56478e-10
2.44021e-08
5.44079e-10
2.42948e-08
3.28156e-10
2.42293e-08
1.71982e-10
2.41944e-08
5.42367e-11
2.41823e-08
-3.82459e-11
2.41866e-08
-1.1389e-10
2.4202e-08
-1.77995e-10
2.42231e-08
-2.33543e-10
2.42445e-08
-2.8162e-10
2.42607e-08
-3.21771e-10
2.42678e-08
-3.5253e-10
2.4264e-08
-3.72217e-10
-3.79883e-10
2.4251e-08
3.30138e-08
1.73433e-09
3.27323e-08
1.13791e-09
3.25386e-08
7.37816e-10
3.24079e-08
4.58813e-10
3.23231e-08
2.56875e-10
3.22716e-08
1.0566e-10
3.22445e-08
-1.1107e-11
3.22343e-08
-1.03679e-10
3.22347e-08
-1.784e-10
3.22401e-08
-2.3892e-10
3.22455e-08
-2.87019e-10
3.2247e-08
-3.23318e-10
3.22425e-08
-3.47992e-10
3.22317e-08
-3.61402e-10
-3.64471e-10
3.22162e-08
4.3074e-08
2.11929e-09
4.27921e-08
1.41984e-09
4.25898e-08
9.40126e-10
4.24476e-08
6.0101e-10
4.23501e-08
3.54343e-10
4.22856e-08
1.70211e-10
4.22446e-08
2.981e-11
4.22198e-08
-7.88367e-11
4.22047e-08
-1.63334e-10
4.21943e-08
-2.28447e-10
4.21844e-08
-2.77167e-10
4.21726e-08
-3.11531e-10
4.21579e-08
-3.33241e-10
4.21405e-08
-3.44062e-10
-3.45887e-10
4.21219e-08
5.52363e-08
2.41805e-09
5.50012e-08
1.65493e-09
5.4823e-08
1.11831e-09
5.46917e-08
7.3235e-10
5.45969e-08
4.49122e-10
5.45296e-08
2.37543e-10
5.44819e-08
7.74434e-11
5.44475e-08
-4.44245e-11
5.44211e-08
-1.36879e-10
5.43986e-08
-2.05921e-10
5.43772e-08
-2.55834e-10
5.43556e-08
-2.89944e-10
5.43335e-08
-3.11092e-10
5.43113e-08
-3.21887e-10
-3.24664e-10
5.42901e-08
6.97877e-08
2.58039e-09
6.96432e-08
1.79936e-09
6.95244e-08
1.23714e-09
6.94311e-08
8.25643e-10
6.93597e-08
5.20536e-10
6.93053e-08
2.91886e-10
6.92633e-08
1.19489e-10
6.92293e-08
-1.04627e-11
6.92001e-08
-1.07637e-10
6.91732e-08
-1.79025e-10
6.91473e-08
-2.29918e-10
6.91219e-08
-2.64535e-10
6.90972e-08
-2.86396e-10
6.90738e-08
-2.9851e-10
-3.03344e-10
6.90525e-08
8.71515e-08
2.60987e-09
8.71082e-08
1.84269e-09
8.70641e-08
1.2812e-09
8.70247e-08
8.64996e-10
8.69913e-08
5.53973e-10
8.69629e-08
3.20285e-10
8.6938e-08
1.44453e-10
8.69148e-08
1.26644e-11
8.68923e-08
-8.51435e-11
8.68698e-08
-1.56527e-10
8.68473e-08
-2.07338e-10
8.6825e-08
-2.42236e-10
8.68036e-08
-2.65002e-10
8.67838e-08
-2.7873e-10
-2.85821e-10
8.67663e-08
1.07927e-07
2.55849e-09
1.07953e-07
1.81693e-09
1.07965e-07
1.26901e-09
1.0797e-07
8.60316e-10
1.0797e-07
5.53993e-10
1.07966e-07
3.23886e-10
1.07959e-07
1.51217e-10
1.0795e-07
2.23155e-11
1.07937e-07
-7.30041e-11
1.07923e-07
-1.42513e-10
1.07908e-07
-1.9225e-10
1.07893e-07
-2.26969e-10
1.07878e-07
-2.50432e-10
1.07865e-07
-2.6562e-10
-2.74777e-10
1.07854e-07
1.32755e-07
2.47461e-09
1.32808e-07
1.76348e-09
1.32843e-07
1.23413e-09
1.32865e-07
8.3792e-10
1.32879e-07
5.40719e-10
1.32885e-07
3.17739e-10
1.32885e-07
1.5079e-10
1.32881e-07
2.63873e-11
1.32874e-07
-6.56223e-11
1.32864e-07
-1.33002e-10
1.32854e-07
-1.81745e-10
1.32843e-07
-2.16503e-10
1.32834e-07
-2.40881e-10
1.32826e-07
-2.57673e-10
-2.6893e-10
1.3282e-07
1.62069e-07
2.36945e-09
1.62134e-07
1.69798e-09
1.62175e-07
1.19374e-09
1.62198e-07
8.14517e-10
1.6221e-07
5.29325e-10
1.62212e-07
3.15055e-10
1.62209e-07
1.54402e-10
1.62201e-07
3.4352e-11
1.6219e-07
-5.49582e-11
1.62178e-07
-1.21058e-10
1.62166e-07
-1.69718e-10
1.62155e-07
-2.05361e-10
1.62145e-07
-2.31367e-10
1.62138e-07
-2.50322e-10
-2.64088e-10
1.62133e-07
1.95935e-07
2.23188e-09
1.9602e-07
1.6136e-09
1.96069e-07
1.14444e-09
1.96095e-07
7.8904e-10
1.96104e-07
5.20201e-10
1.96102e-07
3.17079e-10
1.96092e-07
1.63797e-10
1.96078e-07
4.82745e-11
1.96062e-07
-3.87e-11
1.96045e-07
-1.04157e-10
1.96029e-07
-1.5346e-10
1.96014e-07
-1.90692e-10
1.96002e-07
-2.18947e-10
1.95992e-07
-2.40585e-10
-2.57278e-10
1.95985e-07
2.33963e-07
2.05323e-09
2.34075e-07
1.50164e-09
2.34141e-07
1.07823e-09
2.34176e-07
7.54469e-10
2.34189e-07
5.07319e-10
2.34187e-07
3.1875e-10
2.34176e-07
1.74844e-10
2.34159e-07
6.48998e-11
2.3414e-07
-1.92938e-11
2.3412e-07
-8.40175e-11
2.341e-07
-1.34059e-10
2.34083e-07
-1.73058e-10
2.34067e-07
-2.03766e-10
2.34055e-07
-2.28284e-10
-2.48086e-10
2.34046e-07
2.75082e-07
1.83365e-09
2.75224e-07
1.35982e-09
2.75311e-07
9.91512e-10
2.75359e-07
7.0659e-10
2.7538e-07
4.86367e-10
2.75383e-07
3.16001e-10
2.75374e-07
1.8393e-10
2.75357e-07
8.11736e-11
2.75337e-07
7.85108e-13
2.75316e-07
-6.25691e-11
2.75295e-07
-1.12961e-10
2.75275e-07
-1.53497e-10
2.75258e-07
-1.86531e-10
2.75243e-07
-2.13877e-10
-2.36786e-10
2.75232e-07
3.17054e-07
1.57704e-09
3.17225e-07
1.18938e-09
3.17332e-07
8.83757e-10
3.17395e-07
6.43831e-10
3.17426e-07
4.55302e-10
3.17435e-07
3.0675e-10
3.1743e-07
1.89209e-10
3.17416e-07
9.56382e-11
3.17396e-07
2.05374e-11
3.17374e-07
-4.03531e-11
3.17351e-07
-9.03076e-11
3.17329e-07
-1.31834e-10
3.1731e-07
-1.66842e-10
3.17293e-07
-1.96816e-10
-2.22773e-10
3.17279e-07
3.15211e-07
1.32133e-09
3.15385e-07
1.01591e-09
3.15497e-07
7.7114e-10
3.15566e-07
5.75564e-10
3.15602e-07
4.18847e-10
3.15616e-07
2.92678e-10
3.15615e-07
1.90473e-10
3.15604e-07
1.06993e-10
3.15586e-07
3.81019e-11
3.15565e-07
-1.94297e-11
3.15543e-07
-6.81098e-11
3.15521e-07
-1.09878e-10
3.155e-07
-1.46225e-10
3.15482e-07
-1.78315e-10
-2.06972e-10
3.15466e-07
2.70316e-07
1.10035e-09
2.7047e-07
8.61961e-10
2.70573e-07
6.67715e-10
2.70639e-07
5.09587e-10
2.70678e-07
3.80286e-10
2.70697e-07
2.73909e-10
2.70701e-07
1.8572e-10
2.70696e-07
1.1189e-10
2.70685e-07
4.93649e-11
2.7067e-07
-4.2591e-12
2.70653e-07
-5.0859e-11
2.70635e-07
-9.19011e-11
2.70617e-07
-1.28527e-10
2.706e-07
-1.6163e-10
-1.91869e-10
2.70585e-07
2.27221e-07
9.11182e-10
2.27357e-07
7.26265e-10
2.27452e-07
5.73026e-10
2.27515e-07
4.4584e-10
2.27556e-07
3.39677e-10
2.27579e-07
2.50454e-10
2.2759e-07
1.74824e-10
2.27592e-07
1.10035e-10
2.27588e-07
5.38668e-11
2.27579e-07
4.56172e-12
2.27567e-07
-3.92619e-11
2.27554e-07
-7.86903e-11
2.2754e-07
-1.1458e-10
2.27526e-07
-1.476e-10
-1.78264e-10
2.27512e-07
1.87959e-07
7.49669e-10
1.88078e-07
6.06981e-10
1.88164e-07
4.86668e-10
1.88225e-07
3.84778e-10
1.88267e-07
2.97952e-10
1.88294e-07
2.23454e-10
1.8831e-07
1.58969e-10
1.88318e-07
1.02543e-10
1.88319e-07
5.25929e-11
1.88316e-07
7.85735e-12
1.88309e-07
-3.26602e-11
1.883e-07
-6.9749e-11
1.88289e-07
-1.04038e-10
1.88278e-07
-1.36017e-10
-1.66075e-10
1.88266e-07
1.53396e-07
6.11332e-10
1.53501e-07
5.01839e-10
1.5358e-07
4.07834e-10
1.53638e-07
3.26543e-10
1.5368e-07
2.55826e-10
1.5371e-07
1.93934e-10
1.53729e-07
1.39301e-10
1.53741e-07
9.05667e-11
1.53747e-07
4.6622e-11
1.53749e-07
6.5847e-12
1.53746e-07
-3.02478e-11
1.53741e-07
-6.44358e-11
1.53733e-07
-9.64306e-11
1.53724e-07
-1.26581e-10
-1.55173e-10
1.53713e-07
1.23716e-07
4.92146e-10
1.23809e-07
4.08715e-10
1.23881e-07
3.35709e-10
1.23937e-07
2.71187e-10
1.23979e-07
2.13903e-10
1.2401e-07
1.62817e-10
1.24032e-07
1.16905e-10
1.24048e-07
7.52369e-11
1.24057e-07
3.70569e-11
1.24062e-07
1.76677e-12
1.24063e-07
-3.11142e-11
1.2406e-07
-6.19737e-11
1.24055e-07
-9.11259e-11
1.24047e-07
-1.18811e-10
-1.45236e-10
1.24037e-07
9.87139e-08
3.89172e-10
9.87964e-08
3.26225e-10
9.88621e-08
2.70002e-10
9.89141e-08
2.19174e-10
9.89549e-08
1.73139e-10
9.89864e-08
1.31363e-10
9.90101e-08
9.32009e-11
9.90273e-08
5.80365e-11
9.9039e-08
2.53741e-11
9.90459e-08
-5.17582e-12
9.90487e-08
-3.39307e-11
9.90479e-08
-6.11485e-11
9.90438e-08
-8.70408e-11
9.90368e-08
-1.11767e-10
-1.35472e-10
9.9027e-08
7.79718e-08
3.00848e-10
7.8044e-08
2.54008e-10
7.81028e-08
2.11215e-10
7.81504e-08
1.71596e-10
7.81885e-08
1.35016e-10
7.82186e-08
1.01288e-10
7.82417e-08
7.00268e-11
7.82589e-08
4.08418e-11
7.82709e-08
1.34267e-11
7.82782e-08
-1.24581e-11
7.82812e-08
-3.70129e-11
7.82805e-08
-6.04011e-11
7.82762e-08
-8.27597e-11
7.82686e-08
-1.0419e-10
-1.24793e-10
7.82579e-08
6.09762e-08
2.26565e-10
6.10379e-08
1.92339e-10
6.10889e-08
1.60254e-10
6.11307e-08
1.29793e-10
6.11645e-08
1.01152e-10
6.11915e-08
7.4363e-11
6.12123e-08
4.92181e-11
6.12276e-08
2.54851e-11
6.12381e-08
2.99138e-12
6.1244e-08
-1.83996e-11
6.12458e-08
-3.8807e-11
6.12437e-08
-5.83287e-11
6.1238e-08
-7.70491e-11
6.12289e-08
-9.50302e-11
-1.12344e-10
6.12164e-08
4.71931e-08
1.65877e-10
4.7244e-08
1.41415e-10
4.72865e-08
1.1778e-10
4.73215e-08
9.4742e-11
4.735e-08
7.27136e-11
4.73725e-08
5.18549e-11
4.73896e-08
3.20684e-11
4.74019e-08
1.32307e-11
4.74096e-08
-4.74389e-12
4.74131e-08
-2.19261e-11
4.74127e-08
-3.83808e-11
4.74085e-08
-5.4163e-11
4.74008e-08
-6.9323e-11
4.73897e-08
-8.38983e-11
-9.79429e-11
4.73753e-08
3.6114e-08
1.17908e-10
3.61546e-08
1.00861e-10
3.61885e-08
8.37873e-11
3.62166e-08
6.66906e-11
3.62392e-08
5.01073e-11
3.62568e-08
3.42491e-11
3.62698e-08
1.90813e-11
3.62785e-08
4.54816e-12
3.62831e-08
-9.38535e-12
3.62839e-08
-2.27514e-11
3.62811e-08
-3.55817e-11
3.62749e-08
-4.79048e-11
3.62653e-08
-5.97499e-11
3.62526e-08
-7.11402e-11
-8.21196e-11
3.62367e-08
2.72808e-08
8.1224e-11
2.7312e-08
6.96678e-11
2.73381e-08
5.75962e-11
2.73596e-08
4.51934e-11
2.73767e-08
3.30348e-11
2.73896e-08
2.1326e-11
2.73987e-08
1.006e-11
2.7404e-08
-7.83066e-13
2.74058e-08
-1.12125e-11
2.74043e-08
-2.12399e-11
2.73996e-08
-3.08782e-11
2.73918e-08
-4.01408e-11
2.73811e-08
-4.9044e-11
2.73676e-08
-5.76033e-11
-6.58563e-11
2.73513e-08
2.02936e-08
5.40269e-11
2.03169e-08
4.64238e-11
2.03364e-08
3.81029e-11
2.03522e-08
2.9365e-11
2.03645e-08
2.07488e-11
2.03734e-08
1.24153e-11
2.03791e-08
4.36393e-12
2.03817e-08
-3.40932e-12
2.03814e-08
-1.09029e-11
2.03783e-08
-1.81179e-11
2.03725e-08
-2.50578e-11
2.03641e-08
-3.17278e-11
2.03531e-08
-3.81366e-11
2.03398e-08
-4.42947e-11
-5.02355e-11
2.03242e-08
1.48111e-08
3.4446e-11
1.48279e-08
2.96107e-11
1.48419e-08
2.40656e-11
1.48531e-08
1.81525e-11
1.48616e-08
1.23155e-11
1.48673e-08
6.65676e-12
1.48705e-08
1.17351e-12
1.48713e-08
-4.13256e-12
1.48696e-08
-9.25624e-12
1.48657e-08
-1.41943e-11
1.48596e-08
-1.89455e-11
1.48514e-08
-2.35113e-11
1.48411e-08
-2.78958e-11
1.48289e-08
-3.21063e-11
-3.61709e-11
1.48149e-08
1.05454e-08
2.07668e-11
1.05572e-08
1.78197e-11
1.05669e-08
1.43023e-11
1.05745e-08
1.0524e-11
1.05801e-08
6.80524e-12
1.05835e-08
3.19468e-12
1.0585e-08
-3.12264e-13
1.05846e-08
-3.7124e-12
1.05823e-08
-7.00015e-12
1.05783e-08
-1.01711e-11
1.05726e-08
-1.32227e-11
1.05652e-08
-1.61542e-11
1.05563e-08
-1.89678e-11
1.05459e-08
-2.16678e-11
-2.42755e-11
1.0534e-08
7.25657e-09
1.15471e-11
7.26454e-09
9.85513e-12
7.27105e-09
7.78898e-12
7.276e-09
5.57197e-12
7.27941e-09
3.40116e-12
7.28131e-09
1.29053e-12
7.28176e-09
-7.6431e-13
7.28081e-09
-2.76023e-12
7.2785e-09
-4.69261e-12
7.27489e-09
-6.55762e-12
7.27002e-09
-8.35256e-12
7.26394e-09
-1.00764e-11
7.2567e-09
-1.17301e-11
7.24835e-09
-1.33153e-11
-1.48461e-11
7.23892e-09
4.7466e-09
5.63945e-12
4.7517e-09
4.75586e-12
4.7558e-09
3.68797e-12
4.75882e-09
2.552e-12
4.76077e-09
1.44603e-12
4.7617e-09
3.68141e-13
4.76162e-09
-6.83999e-13
4.76056e-09
-1.708e-12
4.75857e-09
-2.70068e-12
4.75567e-09
-3.65938e-12
4.7519e-09
-4.58216e-12
4.74729e-09
-5.46811e-12
4.74188e-09
-6.31762e-12
4.7357e-09
-7.13073e-12
-7.91348e-12
4.72876e-09
2.85315e-09
2.16149e-12
2.85613e-09
1.77279e-12
2.85848e-09
1.33939e-12
2.86015e-09
8.85331e-13
2.86115e-09
4.44531e-13
2.8615e-09
1.29354e-14
2.86123e-09
-4.09886e-13
2.86034e-09
-8.22394e-13
2.85887e-09
-1.22283e-12
2.85682e-09
-1.60976e-12
2.85422e-09
-1.98216e-12
2.85109e-09
-2.33942e-12
2.84745e-09
-2.68188e-12
2.84333e-09
-3.00863e-12
-3.31957e-12
2.83874e-09
1.44434e-09
4.46444e-13
1.44578e-09
3.31542e-13
1.44688e-09
2.36889e-13
1.44763e-09
1.3901e-13
1.44803e-09
4.29341e-14
1.44809e-09
-5.23974e-14
1.44783e-09
-1.46554e-13
1.44725e-09
-2.38795e-13
1.44635e-09
-3.28459e-13
1.44516e-09
-4.15046e-13
1.44367e-09
-4.98244e-13
1.44191e-09
-5.77812e-13
1.43988e-09
-6.53969e-13
1.4376e-09
-7.26045e-13
-7.91053e-13
1.43507e-09
4.13752e-10
4.14083e-10
4.1432e-10
4.14459e-10
4.14502e-10
4.1445e-10
4.14303e-10
4.14064e-10
4.13736e-10
4.13321e-10
4.12823e-10
4.12245e-10
4.11591e-10
4.10865e-10
4.10074e-10
1.07961e-09
-4.91422e-10
3.1865e-10
1.32911e-09
-4.47482e-10
1.97981e-10
1.58708e-09
-3.32665e-10
7.46895e-11
1.84243e-09
-2.10511e-10
-4.48394e-11
2.0924e-09
-9.11654e-11
-1.58806e-10
2.33756e-09
2.03123e-11
-2.6547e-10
2.57936e-09
1.22772e-10
-3.64565e-10
2.81904e-09
2.15699e-10
-4.55383e-10
3.05762e-09
2.98471e-10
-5.37052e-10
3.29588e-09
3.70464e-10
-6.08722e-10
3.53441e-09
4.31125e-10
-6.69658e-10
3.77369e-09
4.80198e-10
-7.19479e-10
4.01415e-09
5.18096e-10
-7.58552e-10
4.25625e-09
5.46484e-10
-7.8859e-10
4.50068e-09
5.69127e-10
-8.13555e-10
4.74852e-09
5.93047e-10
-8.40884e-10
5.00158e-09
6.29842e-10
-8.82901e-10
5.2628e-09
6.96592e-10
-9.57814e-10
5.53662e-09
8.14735e-10
-1.08855e-09
5.82896e-09
1.00366e-09
-1.29601e-09
6.14609e-09
1.26285e-09
-1.57998e-09
6.49144e-09
1.53493e-09
-1.88027e-09
6.80782e-09
1.42334e-09
-1.73971e-09
7.06981e-09
1.01401e-09
-1.27602e-09
7.27514e-09
4.63861e-10
-6.69178e-10
7.42381e-09
-1.55311e-10
6.6417e-12
7.5176e-09
-7.81443e-10
6.87651e-10
7.55914e-09
-1.36837e-09
1.32683e-09
7.55131e-09
-1.88307e-09
1.8909e-09
7.4971e-09
-2.30159e-09
2.3558e-09
7.39965e-09
-2.60672e-09
2.70417e-09
7.26233e-09
-2.78698e-09
2.92431e-09
7.0887e-09
-2.8364e-09
3.01002e-09
6.88242e-09
-2.75426e-09
2.96054e-09
6.64698e-09
-2.54434e-09
2.77979e-09
6.3855e-09
-2.21356e-09
2.47505e-09
6.10058e-09
-1.77005e-09
2.05496e-09
5.79423e-09
-1.2209e-09
1.52725e-09
5.46759e-09
-5.70504e-10
8.97141e-10
5.12006e-09
1.7842e-10
1.69118e-10
4.74699e-09
1.01698e-09
-6.43911e-10
4.33815e-09
1.90905e-09
-1.50021e-09
3.88215e-09
2.75151e-09
-2.29551e-09
3.4023e-09
3.31246e-09
-2.83261e-09
3.0726e-09
3.02312e-09
-2.69342e-09
2.23144e-09
-5.5473e-10
2.38e-09
-5.96034e-10
2.58438e-09
-5.3705e-10
2.81607e-09
-4.42203e-10
3.06002e-09
-3.35115e-10
3.30914e-09
-2.28807e-10
3.56069e-09
-1.28776e-10
3.81371e-09
-3.73186e-11
4.06797e-09
4.42039e-11
4.32357e-09
1.14865e-10
4.58069e-09
1.7401e-10
4.83954e-09
2.21345e-10
5.10039e-09
2.57244e-10
5.36362e-09
2.83263e-10
5.62981e-09
3.02932e-10
5.90003e-09
3.22822e-10
6.17612e-09
3.53757e-10
6.46109e-09
4.11624e-10
6.75954e-09
5.16276e-10
7.07772e-09
6.85482e-10
7.42228e-09
9.18288e-10
7.79707e-09
1.16014e-09
8.14067e-09
1.07974e-09
8.42595e-09
7.28731e-10
8.6505e-09
2.39316e-10
8.81421e-09
-3.19021e-10
8.91883e-09
-8.86064e-10
8.96706e-09
-1.4166e-09
8.96201e-09
-1.87802e-09
8.90703e-09
-2.2466e-09
8.80575e-09
-2.50545e-09
8.66221e-09
-2.64344e-09
8.4808e-09
-2.65499e-09
8.2662e-09
-2.53966e-09
8.02322e-09
-2.30136e-09
7.7567e-09
-1.94705e-09
7.47165e-09
-1.485e-09
7.17365e-09
-9.22894e-10
6.86965e-09
-2.6651e-10
6.56913e-09
4.78944e-10
6.28513e-09
1.30097e-09
6.03675e-09
2.15743e-09
5.85362e-09
2.93463e-09
5.77324e-09
3.39284e-09
3.16393e-09
5.68191e-09
3.86511e-09
-5.64828e-10
3.93069e-09
-6.61617e-10
4.06237e-09
-6.68724e-10
4.24314e-09
-6.22977e-10
4.4562e-09
-5.48178e-10
4.68923e-09
-4.61828e-10
4.93483e-09
-3.74379e-10
5.18887e-09
-2.91356e-10
5.44904e-09
-2.15969e-10
5.71409e-09
-1.50188e-10
5.98334e-09
-9.52373e-11
6.25642e-09
-5.17391e-11
6.53321e-09
-1.95473e-11
6.8138e-09
2.67161e-12
7.0986e-09
1.81311e-11
7.38854e-09
3.28898e-11
7.68536e-09
5.69379e-11
7.99208e-09
1.04902e-10
8.31341e-09
1.94951e-10
8.65577e-09
3.43118e-10
9.02616e-09
5.479e-10
9.42881e-09
7.57493e-10
9.79834e-09
7.10201e-10
1.0106e-08
4.21085e-10
1.03491e-08
-3.84315e-12
1.05276e-08
-4.97422e-10
1.06429e-08
-1.00136e-09
1.06978e-08
-1.47156e-09
1.06958e-08
-1.87597e-09
1.06405e-08
-2.19131e-09
1.05362e-08
-2.40116e-09
1.03877e-08
-2.49499e-09
1.02005e-08
-2.46779e-09
9.98053e-09
-2.31967e-09
9.73417e-09
-2.055e-09
9.46841e-09
-1.68129e-09
9.19118e-09
-1.20777e-09
8.91223e-09
-6.43941e-10
8.64488e-09
8.35181e-13
8.40828e-09
7.15551e-10
8.2295e-09
1.47975e-09
8.143e-09
2.24393e-09
8.17895e-09
2.89869e-09
8.3214e-09
3.25038e-09
3.07535e-09
8.40999e-09
6.0891e-09
-5.48405e-10
6.0971e-09
-6.69615e-10
6.15805e-09
-7.29673e-10
6.27311e-09
-7.38038e-10
6.43365e-09
-7.08715e-10
6.62846e-09
-6.56641e-10
6.84812e-09
-5.94037e-10
7.08589e-09
-5.29126e-10
7.33723e-09
-4.67314e-10
7.59918e-09
-4.12136e-10
7.8698e-09
-3.65854e-10
8.14782e-09
-3.29764e-10
8.43247e-09
-3.04198e-10
8.72336e-09
-2.88217e-10
9.02054e-09
-2.79047e-10
9.32466e-09
-2.71231e-10
9.63728e-09
-2.55687e-10
9.96131e-09
-2.1913e-10
1.03014e-08
-1.45158e-10
1.06641e-08
-1.95865e-11
1.10566e-08
1.55407e-10
1.14834e-08
3.30703e-10
1.18758e-08
3.17857e-10
1.22033e-08
9.35235e-11
1.24632e-08
-2.63763e-10
1.2655e-08
-6.89161e-10
1.278e-08
-1.12642e-09
1.28412e-08
-1.53271e-09
1.2842e-08
-1.87679e-09
1.27867e-08
-2.13603e-09
1.26803e-08
-2.29474e-09
1.25285e-08
-2.3432e-09
1.2338e-08
-2.27724e-09
1.21161e-08
-2.0978e-09
1.18712e-08
-1.81012e-09
1.16127e-08
-1.42278e-09
1.13516e-08
-9.46629e-10
1.11016e-08
-3.94008e-10
1.08815e-08
2.20962e-10
1.07165e-08
8.80574e-10
1.06393e-08
1.55694e-09
1.06842e-08
2.19906e-09
1.0866e-08
2.71687e-09
1.11377e-08
2.97864e-09
2.8663e-09
1.13468e-08
9.04698e-09
-5.20737e-10
9.02154e-09
-6.44177e-10
9.02698e-09
-7.3511e-10
9.07666e-09
-7.87723e-10
9.173e-09
-8.05049e-10
9.31142e-09
-7.95062e-10
9.48478e-09
-7.67396e-10
9.68617e-09
-7.30518e-10
9.9099e-09
-6.91046e-10
1.01516e-08
-6.53865e-10
1.04082e-08
-6.22396e-10
1.06772e-08
-5.9883e-10
1.09572e-08
-5.8418e-10
1.12471e-08
-5.78084e-10
1.15464e-08
-5.7834e-10
1.18553e-08
-5.80201e-10
1.21752e-08
-5.75579e-10
1.25087e-08
-5.52603e-10
1.28603e-08
-4.96722e-10
1.32364e-08
-3.9569e-10
1.36443e-08
-2.52471e-10
1.40885e-08
-1.13559e-10
1.4498e-08
-9.15769e-11
1.48408e-08
-2.49362e-10
1.51139e-08
-5.36789e-10
1.53161e-08
-8.91389e-10
1.54488e-08
-1.2591e-09
1.55147e-08
-1.59861e-09
1.55176e-08
-1.8797e-09
1.54623e-08
-2.08072e-09
1.53545e-08
-2.18695e-09
1.52011e-08
-2.18977e-09
1.501e-08
-2.08613e-09
1.47903e-08
-1.87809e-09
1.45522e-08
-1.57211e-09
1.43077e-08
-1.17822e-09
1.40704e-08
-7.09359e-10
1.38574e-08
-1.80965e-10
1.36899e-08
3.88405e-10
1.35946e-08
9.75857e-10
1.36016e-08
1.54996e-09
1.37358e-08
2.06489e-09
1.39966e-08
2.45604e-09
1.43284e-08
2.64687e-09
2.58611e-09
1.46086e-08
1.29125e-08
-4.90721e-10
1.28727e-08
-6.04439e-10
1.28436e-08
-7.06024e-10
1.28415e-08
-7.85605e-10
1.28761e-08
-8.39661e-10
1.29507e-08
-8.69584e-10
1.30635e-08
-8.80196e-10
1.32105e-08
-8.77605e-10
1.33873e-08
-8.67773e-10
1.35893e-08
-8.55858e-10
1.38128e-08
-8.45936e-10
1.40549e-08
-8.40932e-10
1.43133e-08
-8.42546e-10
1.45862e-08
-8.51054e-10
1.48728e-08
-8.64913e-10
1.51728e-08
-8.80165e-10
1.5487e-08
-8.89783e-10
1.58177e-08
-8.83368e-10
1.61693e-08
-8.48268e-10
1.65478e-08
-7.74234e-10
1.69605e-08
-6.65095e-10
1.74117e-08
-5.64748e-10
1.78291e-08
-5.09005e-10
1.81799e-08
-6.00141e-10
1.84599e-08
-8.16863e-10
1.86678e-08
-1.09923e-09
1.88043e-08
-1.39561e-09
1.88721e-08
-1.66646e-09
1.88754e-08
-1.88293e-09
1.88193e-08
-2.02464e-09
1.87105e-08
-2.07818e-09
1.8557e-08
-2.03629e-09
1.83682e-08
-1.8973e-09
1.81548e-08
-1.66467e-09
1.79289e-08
-1.34629e-09
1.77045e-08
-9.53823e-10
1.74974e-08
-5.02199e-10
1.73259e-08
-9.43686e-12
1.72111e-08
5.03167e-10
1.71764e-08
1.01053e-09
1.7244e-08
1.48235e-09
1.74267e-08
1.88226e-09
1.77133e-08
2.16938e-09
1.8054e-08
2.30624e-09
2.27746e-09
1.83626e-08
1.78915e-08
-4.62711e-10
1.78497e-08
-5.62623e-10
1.78054e-08
-6.61746e-10
1.77716e-08
-7.51802e-10
1.77595e-08
-8.27529e-10
1.77767e-08
-8.86816e-10
1.7827e-08
-9.30496e-10
1.79109e-08
-9.61471e-10
1.80268e-08
-9.83663e-10
1.81721e-08
-1.0012e-09
1.83441e-08
-1.01787e-09
1.85399e-08
-1.03673e-09
1.87571e-08
-1.05982e-09
1.8994e-08
-1.0879e-09
1.92491e-08
-1.12002e-09
1.95219e-08
-1.15299e-09
1.9813e-08
-1.18084e-09
2.01243e-08
-1.19466e-09
2.04597e-08
-1.18367e-09
2.0825e-08
-1.13961e-09
2.12271e-08
-1.06719e-09
2.167e-08
-1.00763e-09
2.20822e-08
-9.21193e-10
2.24299e-08
-9.47871e-10
2.2708e-08
-1.0949e-09
2.2914e-08
-1.30522e-09
2.30483e-08
-1.52994e-09
2.31135e-08
-1.73165e-09
2.31138e-08
-1.88326e-09
2.30552e-08
-1.96599e-09
2.2945e-08
-1.96806e-09
2.27926e-08
-1.88384e-09
2.26085e-08
-1.71326e-09
2.24052e-08
-1.4613e-09
2.21962e-08
-1.13731e-09
2.19968e-08
-7.54392e-10
2.18235e-08
-3.28911e-10
2.16942e-08
1.19826e-10
2.16273e-08
5.70068e-10
2.16401e-08
9.97784e-10
2.17451e-08
1.3773e-09
2.19445e-08
1.68281e-09
2.22224e-08
1.89154e-09
2.25396e-08
1.98904e-09
1.97649e-09
2.28406e-08
2.42257e-08
-4.37424e-10
2.4187e-08
-5.24004e-10
2.41401e-08
-6.14846e-10
2.40928e-08
-7.04492e-10
2.40538e-08
-7.88478e-10
2.40309e-08
-8.63938e-10
2.40302e-08
-9.29833e-10
2.40556e-08
-9.86825e-10
2.41088e-08
-1.03681e-09
2.41899e-08
-1.08239e-09
2.42984e-08
-1.12631e-09
2.44327e-08
-1.1711e-09
2.45916e-08
-1.21865e-09
2.47735e-08
-1.26981e-09
2.49774e-08
-1.32396e-09
2.52029e-08
-1.37851e-09
2.54505e-08
-1.42844e-09
2.57221e-08
-1.4662e-09
2.60212e-08
-1.48282e-09
2.63535e-08
-1.47188e-09
2.67252e-08
-1.43889e-09
2.71398e-08
-1.42218e-09
2.75291e-08
-1.3105e-09
2.7859e-08
-1.27776e-09
2.81225e-08
-1.35847e-09
2.83163e-08
-1.49895e-09
2.84399e-08
-1.65356e-09
2.84957e-08
-1.78747e-09
2.84882e-08
-1.87573e-09
2.84238e-08
-1.90158e-09
2.83108e-08
-1.85514e-09
2.81596e-08
-1.73263e-09
2.7982e-08
-1.53567e-09
2.77914e-08
-1.2707e-09
2.76024e-08
-9.48304e-10
2.74305e-08
-5.82506e-10
2.72917e-08
-1.90105e-10
2.72016e-08
2.09922e-10
2.71743e-08
5.97444e-10
2.72201e-08
9.51921e-10
2.73435e-08
1.25389e-09
2.75394e-08
1.48695e-09
2.77907e-08
1.64022e-09
2.80688e-08
1.711e-09
1.70645e-09
2.83388e-08
3.21922e-08
-4.13364e-10
3.2157e-08
-4.88821e-10
3.21124e-08
-5.70296e-10
3.20625e-08
-6.54557e-10
3.20125e-08
-7.38505e-10
3.19683e-08
-8.19733e-10
3.19353e-08
-8.9684e-10
3.19181e-08
-9.69564e-10
3.19199e-08
-1.03865e-09
3.19431e-08
-1.10554e-09
3.19888e-08
-1.17203e-09
3.20576e-08
-1.23993e-09
3.21496e-08
-1.31064e-09
3.22646e-08
-1.3848e-09
3.24025e-08
-1.46187e-09
3.25636e-08
-1.53961e-09
3.27489e-08
-1.61373e-09
3.29606e-08
-1.67786e-09
3.32024e-08
-1.72461e-09
3.34797e-08
-1.74919e-09
3.37984e-08
-1.75762e-09
3.41612e-08
-1.78494e-09
3.45064e-08
-1.65578e-09
3.48004e-08
-1.57173e-09
3.5034e-08
-1.59207e-09
3.52023e-08
-1.66727e-09
3.53043e-08
-1.75552e-09
3.53419e-08
-1.82509e-09
3.53198e-08
-1.85365e-09
3.5245e-08
-1.82677e-09
3.51266e-08
-1.73674e-09
3.49757e-08
-1.58168e-09
3.48049e-08
-1.36487e-09
3.46281e-08
-1.09396e-09
3.44601e-08
-7.80267e-10
3.43155e-08
-4.3793e-10
3.42085e-08
-8.30632e-11
3.41512e-08
2.67144e-10
3.4153e-08
5.95636e-10
3.42185e-08
8.86489e-10
3.4346e-08
1.12638e-09
3.45269e-08
1.30608e-09
3.47453e-08
1.42177e-09
3.49805e-08
1.47582e-09
1.47642e-09
3.52105e-08
4.20974e-08
-3.88791e-10
4.2064e-08
-4.55409e-10
4.20221e-08
-5.28408e-10
4.19735e-08
-6.0599e-10
4.19212e-08
-6.862e-10
4.18688e-08
-7.6731e-10
4.182e-08
-8.4811e-10
4.17786e-08
-9.28111e-10
4.17475e-08
-1.00757e-09
4.17294e-08
-1.08738e-09
4.17261e-08
-1.16877e-09
4.17392e-08
-1.25307e-09
4.177e-08
-1.34136e-09
4.18193e-08
-1.43411e-09
4.18882e-08
-1.53078e-09
4.1978e-08
-1.62942e-09
4.20906e-08
-1.72635e-09
4.22289e-08
-1.81619e-09
4.23972e-08
-1.89291e-09
4.26011e-08
-1.95301e-09
4.28461e-08
-2.00267e-09
4.31342e-08
-2.07304e-09
4.34139e-08
-1.93542e-09
4.36527e-08
-1.81061e-09
4.38395e-08
-1.77888e-09
4.39679e-08
-1.79561e-09
4.40358e-08
-1.82349e-09
4.40452e-08
-1.83444e-09
4.40007e-08
-1.80918e-09
4.39098e-08
-1.73589e-09
4.37822e-08
-1.60912e-09
4.36294e-08
-1.42887e-09
4.34643e-08
-1.19978e-09
4.33006e-08
-9.30286e-10
4.31521e-08
-6.3177e-10
4.30318e-08
-3.17605e-10
4.2951e-08
-2.23223e-12
4.29182e-08
2.99932e-10
4.29383e-08
5.75545e-10
4.30115e-08
8.13297e-10
4.31329e-08
1.00495e-09
4.32928e-08
1.14616e-09
4.34778e-08
1.23683e-09
4.36726e-08
1.28104e-09
1.28613e-09
4.38628e-08
5.42647e-08
-3.63412e-10
5.42323e-08
-4.23014e-10
5.41927e-08
-4.8884e-10
5.41467e-08
-5.5997e-10
5.40958e-08
-6.35278e-10
5.40421e-08
-7.13647e-10
5.39882e-08
-7.94176e-10
5.39365e-08
-8.76381e-10
5.38892e-08
-9.60308e-10
5.38483e-08
-1.04651e-09
5.38155e-08
-1.1359e-09
5.3792e-08
-1.22955e-09
5.3779e-08
-1.3284e-09
5.37778e-08
-1.43291e-09
5.37898e-08
-1.54276e-09
5.38167e-08
-1.65639e-09
5.38612e-08
-1.77082e-09
5.39267e-08
-1.88168e-09
5.4018e-08
-1.98418e-09
5.41408e-08
-2.07586e-09
5.43008e-08
-2.16268e-09
5.44991e-08
-2.27135e-09
5.46969e-08
-2.13317e-09
5.4865e-08
-1.97876e-09
5.49905e-08
-1.90439e-09
5.50659e-08
-1.871e-09
5.50887e-08
-1.84629e-09
5.50606e-08
-1.80631e-09
5.49865e-08
-1.7351e-09
5.48742e-08
-1.62361e-09
5.47337e-08
-1.46858e-09
5.45765e-08
-1.27164e-09
5.44151e-08
-1.03838e-09
5.42622e-08
-7.77411e-10
5.41299e-08
-4.99468e-10
5.40287e-08
-2.16423e-10
5.39668e-08
5.9645e-11
5.39493e-08
3.17466e-10
5.39775e-08
5.47348e-10
5.40489e-08
7.41914e-10
5.41572e-08
8.96646e-10
5.42932e-08
1.01015e-09
5.44459e-08
1.08409e-09
5.46043e-08
1.12267e-09
1.13188e-09
5.47586e-08
6.90282e-08
-3.39174e-10
6.89984e-08
-3.9319e-10
6.89627e-08
-4.53076e-10
6.89211e-08
-5.18446e-10
6.88746e-08
-5.88753e-10
6.88243e-08
-6.63381e-10
6.87719e-08
-7.4176e-10
6.87191e-08
-8.23519e-10
6.86674e-08
-9.08613e-10
6.86182e-08
-9.97366e-10
6.85727e-08
-1.09041e-09
6.85317e-08
-1.18855e-09
6.84959e-08
-1.29258e-09
6.8466e-08
-1.40298e-09
6.84429e-08
-1.51965e-09
6.8428e-08
-1.64152e-09
6.84236e-08
-1.76639e-09
6.84329e-08
-1.89098e-09
6.84604e-08
-2.01174e-09
6.85117e-08
-2.12714e-09
6.85917e-08
-2.24266e-09
6.87006e-08
-2.38025e-09
6.88129e-08
-2.24546e-09
6.89045e-08
-2.07038e-09
6.89621e-08
-1.96192e-09
6.89779e-08
-1.88681e-09
6.89496e-08
-1.81799e-09
6.88791e-08
-1.73583e-09
6.87718e-08
-1.62779e-09
6.86356e-08
-1.48745e-09
6.84806e-08
-1.31351e-09
6.83177e-08
-1.10876e-09
6.81585e-08
-8.79178e-10
6.8014e-08
-6.32939e-10
6.7894e-08
-3.79521e-10
6.78064e-08
-1.28799e-10
6.77563e-08
1.09779e-10
6.77458e-08
3.27967e-10
6.77739e-08
5.19234e-10
6.78366e-08
6.7918e-10
6.79275e-08
8.05741e-10
6.80386e-08
8.9914e-10
6.8161e-08
9.6161e-10
6.82868e-08
9.96909e-10
1.00972e-09
6.8409e-08
8.67467e-08
-3.19593e-10
8.67227e-08
-3.69234e-10
8.6694e-08
-4.24317e-10
8.66603e-08
-4.8478e-10
8.6622e-08
-5.5046e-10
8.65797e-08
-6.21123e-10
8.65345e-08
-6.96511e-10
8.64874e-08
-7.76429e-10
8.64396e-08
-8.60851e-10
8.63923e-08
-9.49979e-10
8.63461e-08
-1.04423e-09
8.63017e-08
-1.14415e-09
8.62594e-08
-1.25033e-09
8.62196e-08
-1.36314e-09
8.61825e-08
-1.48255e-09
8.61488e-08
-1.60788e-09
8.612e-08
-1.73755e-09
8.60982e-08
-1.86922e-09
8.60869e-08
-2.00044e-09
8.60902e-08
-2.13044e-09
8.61115e-08
-2.26391e-09
8.61492e-08
-2.41801e-09
8.61891e-08
-2.28529e-09
8.62128e-08
-2.09408e-09
8.62081e-08
-1.95726e-09
8.61686e-08
-1.84729e-09
8.60927e-08
-1.74215e-09
8.59833e-08
-1.62639e-09
8.58461e-08
-1.49064e-09
8.56895e-08
-1.33079e-09
8.55229e-08
-1.14695e-09
8.53567e-08
-9.42538e-10
8.52008e-08
-7.23296e-10
8.50643e-08
-4.96418e-10
8.49545e-08
-2.69709e-10
8.48765e-08
-5.08535e-11
8.48331e-08