/*--------------------------------*- C++ -*----------------------------------*\
| =========                 |                                                 |
| \\      /  F ield         | OpenFOAM: The Open Source CFD Toolbox           |
|  \\    /   O peration     | Version:  2312                                  |
|   \\  /    A nd           | Website:  www.openfoam.com                      |
|    \\/     M anipulation  |                                                 |
\*---------------------------------------------------------------------------*/
FoamFile
{
    version     2.0;
    format      ascii;
    arch        "LSB;label=32;scalar=64";
    class       volVectorField;
    location    "300";
    object      U;
}
// * * * * * * * * * * * * * * * * * * * * * * * * * * * * * * * * * * * * * //

dimensions      [0 1 -1 0 0 0 0];

internalField   nonuniform List<vector> 
4800
(
(0.00041579 1.46184e-07 -3.2309e-26)
(0.000409246 2.02483e-07 -2.27814e-25)
(0.000405434 2.42113e-07 2.91899e-25)
(0.000403442 2.64006e-07 1.34066e-25)
(0.00040281 2.7119e-07 1.98482e-24)
(0.000403224 2.62893e-07 -4.72566e-24)
(0.000404519 2.36465e-07 4.4162e-24)
(0.000406643 1.86521e-07 -6.39238e-24)
(0.000409649 1.01252e-07 2.03516e-24)
(0.000413756 -5.12752e-08 6.92973e-24)
(0.000419606 -3.86907e-07 -2.11332e-24)
(0.000429047 -1.3462e-06 -1.65456e-25)
(0.000447477 -4.30319e-06 -2.54378e-24)
(0.000495079 -1.92265e-05 1.14778e-24)
(0.000570603 -9.75256e-05 -8.88717e-25)
(0.00128577 1.44689e-06 -1.31768e-25)
(0.00126555 1.02436e-06 1.63787e-25)
(0.00125358 6.97977e-07 -1.51033e-24)
(0.00124707 3.93457e-07 1.12221e-24)
(0.00124458 7.9428e-08 3.60171e-24)
(0.00124516 -2.73775e-07 -5.71618e-24)
(0.00124831 -7.09623e-07 -1.62778e-24)
(0.00125381 -1.29446e-06 -3.88254e-25)
(0.00126178 -2.15184e-06 1.29326e-23)
(0.00127275 -3.57343e-06 -9.37798e-24)
(0.0012881 -6.40669e-06 9.96127e-25)
(0.00131096 -1.32339e-05 1.47933e-24)
(0.00134799 -3.08973e-05 -2.11918e-24)
(0.00141288 -7.58176e-05 -6.19763e-25)
(0.00148502 -0.000181847 2.53493e-24)
(0.00224755 4.64333e-06 -1.05328e-25)
(0.00221242 3.25947e-06 1.07072e-25)
(0.00219134 2.19814e-06 1.09747e-24)
(0.00217951 1.2367e-06 -2.59945e-24)
(0.00217443 2.6815e-07 2.53107e-24)
(0.00217449 -7.97436e-07 2.36737e-24)
(0.00217875 -2.08398e-06 -6.04871e-24)
(0.00218681 -3.77681e-06 -3.68514e-24)
(0.00219871 -6.20495e-06 8.60637e-24)
(0.00221505 -1.00657e-05 3.1632e-24)
(0.00223721 -1.70473e-05 -1.06146e-23)
(0.00226764 -3.12494e-05 -1.55478e-24)
(0.00230919 -6.12e-05 4.14552e-24)
(0.00236271 -0.00012056 6.24275e-24)
(0.00240483 -0.000220818 -3.07451e-24)
(0.00330684 1.03966e-05 4.37675e-26)
(0.00325572 7.38024e-06 -3.02353e-25)
(0.00322461 5.06739e-06 1.33765e-24)
(0.00320664 3.00461e-06 1.4201e-24)
(0.00319813 9.53049e-07 -1.38268e-24)
(0.00319677 -1.27505e-06 -7.89815e-24)
(0.00320116 -3.92181e-06 -5.29248e-24)
(0.00321058 -7.33669e-06 1.92337e-23)
(0.00322484 -1.21026e-05 7.72155e-24)
(0.00324424 -1.9325e-05 -1.06273e-23)
(0.00326946 -3.12629e-05 -4.09156e-24)
(0.00330104 -5.23373e-05 -2.967e-24)
(0.00333763 -8.95673e-05 7.92388e-26)
(0.00337338 -0.000149719 1.94256e-24)
(0.00339183 -0.000230632 9.01807e-27)
(0.00446753 1.93739e-05 -9.06674e-26)
(0.00439989 1.39064e-05 -5.47746e-25)
(0.00435806 9.70882e-06 -3.43958e-25)
(0.00433318 6.01744e-06 9.06186e-25)
(0.00432038 2.39928e-06 -2.53157e-24)
(0.0043166 -1.47011e-06 6.14688e-24)
(0.00431994 -5.97481e-06 -1.04249e-24)
(0.00432927 -1.16379e-05 3.55577e-24)
(0.00434397 -1.92609e-05 -1.88544e-23)
(0.00436375 -3.01795e-05 3.39735e-23)
(0.00438823 -4.66707e-05 -3.09891e-23)
(0.00441613 -7.22777e-05 1.534e-23)
(0.00444385 -0.000111098 -1.33006e-23)
(0.00446462 -0.000164568 1.16943e-23)
(0.00446944 -0.000226689 -4.40267e-24)
(0.00573041 3.22988e-05 1.35197e-25)
(0.00564678 2.34601e-05 4.75126e-25)
(0.00559413 1.66538e-05 -2.45449e-24)
(0.00556188 1.07429e-05 -1.52037e-24)
(0.00554407 5.04228e-06 3.93582e-24)
(0.00553692 -9.44744e-07 1.36464e-24)
(0.00553799 -7.74905e-06 -1.02162e-23)
(0.00554568 -1.60359e-05 2.31634e-23)
(0.00555883 -2.67191e-05 -2.84234e-23)
(0.00557645 -4.11049e-05 6.36482e-24)
(0.00559721 -6.09999e-05 1.81101e-23)
(0.00561878 -8.85259e-05 -2.3343e-23)
(0.00563729 -0.000125149 1.07975e-23)
(0.00564762 -0.00016967 1.02774e-23)
(0.00564579 -0.00021664 -7.35367e-24)
(0.00709121 4.9774e-05 1.25495e-25)
(0.00699403 3.66373e-05 -7.22375e-25)
(0.00693155 2.64646e-05 2.51054e-24)
(0.00689217 1.7717e-05 -3.35791e-24)
(0.00686907 9.4192e-06 -1.09555e-23)
(0.00685788 8.7901e-07 1.77486e-23)
(0.00685567 -8.56667e-06 -1.01833e-23)
(0.00686033 -1.96615e-05 3.25052e-23)
(0.00687022 -3.32952e-05 -2.05335e-23)
(0.00688373 -5.05196e-05 -8.89224e-24)
(0.00689895 -7.24436e-05 -1.61541e-23)
(0.00691336 -9.98746e-05 1.3614e-23)
(0.00692384 -0.000132632 3.52125e-24)
(0.00692729 -0.000168746 2.78233e-24)
(0.00692247 -0.000204373 -2.29645e-24)
(0.00853836 7.19421e-05 -2.00869e-25)
(0.0084329 5.3758e-05 2.62628e-24)
(0.00836343 3.95471e-05 -5.86347e-24)
(0.00831835 2.73965e-05 -4.58871e-24)
(0.00829054 1.60464e-05 1.60375e-24)
(0.00827527 4.60971e-06 2.98141e-24)
(0.00826926 -7.67631e-06 1.00162e-23)
(0.00827005 -2.1557e-05 -2.52483e-23)
(0.00827557 -3.77795e-05 -1.24358e-23)
(0.00828389 -5.70266e-05 3.11513e-23)
(0.00829295 -7.9743e-05 -8.84718e-24)
(0.00830054 -0.000105853 2.75717e-23)
(0.00830455 -0.000134464 -1.32604e-23)
(0.00830339 -0.000163759 -3.88793e-24)
(0.00829706 -0.000191326 2.15973e-24)
(0.0100513 9.79753e-05 -2.90532e-26)
(0.00994636 7.4468e-05 1.56632e-24)
(0.0098752 5.58373e-05 -2.10986e-24)
(0.00982764 3.99076e-05 4.7628e-24)
(0.009797 2.52053e-05 -2.6502e-23)
(0.00977865 1.069e-05 2.58885e-23)
(0.00976921 -4.45138e-06 -3.76049e-23)
(0.00976609 -2.08974e-05 2.10431e-23)
(0.00976706 -3.91874e-05 1.42577e-23)
(0.00977014 -5.96421e-05 2.81513e-23)
(0.00977344 -8.22328e-05 -3.33107e-23)
(0.00977528 -0.000106459 -5.62029e-24)
(0.00977438 -0.000131321 2.3408e-24)
(0.00977002 -0.000155468 1.54586e-23)
(0.00976271 -0.00017749 -5.90564e-24)
(0.0116013 0.0001255 1.70942e-25)
(0.0115088 9.72216e-05 -6.95176e-25)
(0.0114438 7.43493e-05 2.90124e-24)
(0.011399 5.46535e-05 -9.43515e-24)
(0.0113689 3.65941e-05 1.31626e-23)
(0.0113498 1.90711e-05 -1.55565e-23)
(0.0113385 1.28867e-06 2.36995e-23)
(0.0113325 -1.73172e-05 3.79017e-24)
(0.0113298 -3.70749e-05 -2.66506e-23)
(0.0113286 -5.80346e-05 3.42671e-23)
(0.0113274 -7.99224e-05 -3.41164e-23)
(0.0113251 -0.000102146 -9.13024e-24)
(0.0113208 -0.000123885 1.46355e-23)
(0.0113144 -0.000144262 3.98786e-24)
(0.0113065 -0.000162506 -1.6394e-24)
(0.0131588 0.000150439 7.17366e-25)
(0.0130905 0.000118946 -5.58426e-24)
(0.0130404 9.27713e-05 -8.28211e-24)
(0.0130046 6.99011e-05 1.79162e-23)
(0.0129799 4.89244e-05 7.30869e-24)
(0.0129634 2.88182e-05 -4.14829e-23)
(0.0129528 8.88508e-06 1.14711e-23)
(0.0129461 -1.12965e-05 7.42531e-24)
(0.0129417 -3.18841e-05 -2.89777e-23)
(0.0129381 -5.27766e-05 2.7047e-23)
(0.0129343 -7.36386e-05 -1.95875e-23)
(0.0129295 -9.39667e-05 4.55213e-23)
(0.0129236 -0.000113198 -1.99712e-23)
(0.0129163 -0.000130828 1.08083e-23)
(0.0129084 -0.000146471 -2.78372e-24)
(0.0147072 0.000168208 -2.74798e-25)
(0.0146689 0.000135619 3.80661e-24)
(0.0146394 0.000107683 -6.78724e-24)
(0.0146177 8.27887e-05 -3.13903e-24)
(0.0146025 5.9811e-05 3.14893e-23)
(0.0145921 3.79311e-05 -4.05375e-24)
(0.0145851 1.66196e-05 -4.50153e-23)
(0.0145803 -4.39302e-06 4.69963e-23)
(0.0145764 -2.51472e-05 -9.42066e-24)
(0.0145726 -4.54909e-05 -2.93642e-23)
(0.0145684 -6.51356e-05 2.82601e-23)
(0.0145633 -8.37306e-05 1.38528e-23)
(0.0145573 -0.000100945 -1.06227e-23)
(0.0145505 -0.000116531 -1.69916e-23)
(0.0145433 -0.000130327 1.35042e-24)
(0.0162548 0.000176653 -9.03922e-27)
(0.0162418 0.000144475 -4.17998e-24)
(0.0162315 0.000116168 1.80341e-23)
(0.0162242 9.04881e-05 1.08535e-24)
(0.0162194 6.66129e-05 8.33422e-24)
(0.0162165 4.39619e-05 -2.64243e-23)
(0.0162147 2.21864e-05 2.01869e-23)
(0.0162133 1.14576e-06 4.13869e-24)
(0.0162118 -1.91367e-05 3.32166e-23)
(0.0162096 -3.8522e-05 -4.60114e-23)
(0.0162067 -5.68112e-05 -1.8846e-23)
(0.0162028 -7.38016e-05 -1.13543e-23)
(0.0161981 -8.9334e-05 1.95958e-23)
(0.0161927 -0.000103323 -5.2309e-25)
(0.016187 -0.00011573 1.67143e-24)
(0.0178251 0.000178092 -6.95062e-26)
(0.0178254 0.000146497 4.11e-24)
(0.0178264 0.000118295 -5.34545e-24)
(0.0178283 9.24877e-05 -7.14711e-27)
(0.0178307 6.8456e-05 5.71368e-24)
(0.0178332 4.57921e-05 1.29854e-23)
(0.0178354 2.42693e-05 -4.48051e-23)
(0.0178371 3.81358e-06 3.33438e-24)
(0.0178378 -1.55444e-05 1.82339e-23)
(0.0178376 -3.37166e-05 -7.58656e-24)
(0.0178363 -5.05996e-05 1.87733e-23)
(0.0178341 -6.61088e-05 1.20285e-23)
(0.0178311 -8.02006e-05 -2.01064e-23)
(0.0178273 -9.28836e-05 1.27957e-23)
(0.0178235 -0.000104184 -1.01443e-23)
(0.0194218 0.000176779 -2.01656e-24)
(0.019426 0.000145435 1.00882e-24)
(0.0194304 0.000117225 6.01579e-24)
(0.0194351 9.13744e-05 -2.80092e-23)
(0.0194398 6.74114e-05 2.19021e-23)
(0.019444 4.5029e-05 -1.43531e-23)
(0.0194475 2.40528e-05 9.14362e-24)
(0.01945 4.41236e-06 -5.84484e-23)
(0.0194516 -1.38993e-05 7.57982e-23)
(0.0194521 -3.08635e-05 -4.04776e-23)
(0.0194517 -4.64633e-05 3.29633e-23)
(0.0194504 -6.07013e-05 2.53716e-23)
(0.0194485 -7.36079e-05 -4.1067e-23)
(0.0194459 -8.52446e-05 1.24898e-23)
(0.0194432 -9.56697e-05 -5.02688e-25)
(0.0210046 0.000174704 -6.86436e-26)
(0.0210099 0.00014379 -2.73316e-25)
(0.0210147 0.000115729 1.17722e-25)
(0.0210194 9.00034e-05 -7.27364e-25)
(0.0210236 6.62825e-05 8.40615e-24)
(0.0210273 4.43321e-05 -1.28961e-23)
(0.0210301 2.39988e-05 1.07698e-23)
(0.021032 5.19059e-06 -3.07467e-23)
(0.0210331 -1.21497e-05 6.33137e-23)
(0.0210333 -2.80677e-05 -7.3859e-23)
(0.0210327 -4.2613e-05 5.55609e-23)
(0.0210315 -5.58468e-05 -1.7359e-23)
(0.0210297 -6.78434e-05 8.46267e-25)
(0.0210274 -7.86925e-05 3.50403e-24)
(0.021025 -8.8466e-05 -6.45251e-24)
(0.0224954 0.000171194 -5.40484e-24)
(0.0225025 0.000141364 8.84022e-24)
(0.0225081 0.00011403 -2.94108e-24)
(0.0225129 8.89293e-05 -3.27627e-24)
(0.0225168 6.58545e-05 1.22679e-23)
(0.0225197 4.46322e-05 -1.12281e-23)
(0.0225218 2.51234e-05 -9.23476e-24)
(0.022523 7.21763e-06 -2.02623e-23)
(0.0225234 -9.18007e-06 9.30552e-24)
(0.0225231 -2.41594e-05 4.11489e-23)
(0.0225222 -3.78109e-05 -2.00912e-23)
(0.0225207 -5.02285e-05 1.12036e-23)
(0.0225187 -6.15076e-05 -4.31038e-24)
(0.0225164 -7.17493e-05 -1.21583e-23)
(0.022514 -8.10271e-05 6.01212e-24)
(0.0237952 0.00016509 1.68163e-24)
(0.0238046 0.00013707 -2.59513e-24)
(0.0238116 0.000111157 -1.12708e-24)
(0.0238171 8.72961e-05 -4.77911e-25)
(0.0238212 6.5374e-05 -3.67329e-24)
(0.0238242 4.5263e-05 1.57943e-23)
(0.0238261 2.68393e-05 -1.16494e-23)
(0.0238271 9.98581e-06 -6.98498e-24)
(0.0238273 -5.41074e-06 5.83104e-24)
(0.0238268 -1.9461e-05 -6.45171e-24)
(0.0238257 -3.2273e-05 1.39697e-23)
(0.0238242 -4.39523e-05 6.71176e-24)
(0.0238222 -5.45989e-05 -2.36371e-23)
(0.0238199 -6.43142e-05 1.55707e-23)
(0.0238175 -7.31654e-05 -3.08607e-24)
(0.0247841 0.00015586 4.71429e-24)
(0.0247952 0.000130275 7.26611e-24)
(0.0248035 0.00010642 -1.42574e-23)
(0.0248098 8.43757e-05 -1.20979e-24)
(0.0248144 6.40904e-05 3.3624e-24)
(0.0248177 4.5468e-05 -4.32616e-24)
(0.0248197 2.84027e-05 -6.9095e-24)
(0.0248208 1.27834e-05 1.3168e-23)
(0.0248211 -1.50454e-06 1.41652e-23)
(0.0248207 -1.45743e-05 -3.21259e-23)
(0.0248197 -2.65336e-05 1.74844e-23)
(0.0248182 -3.74841e-05 -1.16241e-24)
(0.0248164 -4.7519e-05 -9.36271e-25)
(0.0248142 -5.67313e-05 1.21487e-24)
(0.0248119 -6.51769e-05 -5.47207e-25)
(0.0253055 0.000143444 -1.18044e-23)
(0.0253177 0.000120827 -2.29178e-23)
(0.0253269 9.95798e-05 1.05235e-23)
(0.0253338 7.98587e-05 3.42294e-23)
(0.0253389 6.16387e-05 -8.74309e-24)
(0.0253424 4.48476e-05 -2.6077e-24)
(0.0253447 2.94008e-05 1.2236e-24)
(0.0253459 1.52036e-05 -5.31466e-24)
(0.0253464 2.1539e-06 1.42703e-23)
(0.0253461 -9.84988e-06 -6.02361e-24)
(0.0253452 -2.09034e-05 3.80035e-24)
(0.0253438 -3.10956e-05 -5.58414e-24)
(0.0253421 -4.05055e-05 -6.34901e-24)
(0.02534 -4.92118e-05 9.23383e-24)
(0.0253377 -5.72556e-05 -3.96926e-24)
(0.0251588 0.000128482 1.80017e-23)
(0.0251714 0.00010921 -3.698e-23)
(0.0251811 9.09737e-05 5.39238e-24)
(0.0251883 7.39407e-05 4.4475e-23)
(0.0251935 5.80966e-05 -3.96353e-23)
(0.0251972 4.33902e-05 1.2862e-23)
(0.0251995 2.97606e-05 8.09035e-24)
(0.0252009 1.71342e-05 -1.70928e-23)
(0.0252013 5.42929e-06 3.35651e-24)
(0.0252011 -5.43621e-06 2.12449e-24)
(0.0252002 -1.55401e-05 -1.15742e-24)
(0.0251989 -2.4954e-05 2.60242e-24)
(0.0251972 -3.37416e-05 -3.14154e-24)
(0.0251952 -4.19643e-05 2.11853e-24)
(0.0251928 -4.96544e-05 -9.72409e-25)
(0.0243554 0.000113002 1.08675e-23)
(0.0243682 9.702e-05 -2.06622e-23)
(0.0243781 8.17738e-05 -1.30261e-23)
(0.0243856 6.74029e-05 5.61566e-23)
(0.0243912 5.39033e-05 -4.76573e-23)
(0.0243952 4.12476e-05 4.74547e-24)
(0.0243978 2.93979e-05 6.94901e-24)
(0.0243994 1.8302e-05 3.50443e-24)
(0.0244002 7.89912e-06 2.53493e-24)
(0.0244002 -1.87119e-06 -1.08331e-23)
(0.0243996 -1.1066e-05 6.71707e-24)
(0.0243985 -1.9738e-05 1.07774e-24)
(0.0243969 -2.7934e-05 -2.8117e-24)
(0.024395 -3.56983e-05 1.46984e-24)
(0.0243927 -4.30579e-05 8.68105e-25)
(0.0231102 9.85903e-05 2.67334e-23)
(0.023123 8.54413e-05 -4.31891e-23)
(0.0231332 7.27772e-05 8.13992e-24)
(0.0231412 6.07048e-05 -1.78142e-23)
(0.0231472 4.92339e-05 -2.13791e-23)
(0.0231516 3.83603e-05 6.829e-23)
(0.0231547 2.80666e-05 -2.48442e-23)
(0.0231568 1.83193e-05 6.53363e-24)
(0.023158 9.07724e-06 -3.3922e-24)
(0.0231584 2.99627e-07 -7.28483e-24)
(0.0231582 -8.05136e-06 1.2604e-23)
(0.0231574 -1.60104e-05 -5.70217e-24)
(0.0231561 -2.36091e-05 9.38491e-25)
(0.0231544 -3.08765e-05 5.39181e-26)
(0.0231522 -3.78324e-05 7.32629e-26)
(0.0215798 8.52149e-05 1.03176e-23)
(0.0215926 7.4442e-05 -4.89824e-23)
(0.021603 6.39604e-05 7.88691e-23)
(0.0216114 5.3844e-05 -5.61764e-23)
(0.0216178 4.41156e-05 5.25044e-23)
(0.0216227 3.47908e-05 -1.66136e-23)
(0.0216264 2.58682e-05 -1.08545e-23)
(0.021629 1.73296e-05 -1.11029e-23)
(0.0216307 9.15022e-06 1.81366e-23)
(0.0216316 1.30585e-06 -1.28087e-24)
(0.0216317 -6.22585e-06 -1.54648e-23)
(0.0216313 -1.34655e-05 -1.43155e-24)
(0.0216303 -2.04327e-05 2.56679e-24)
(0.0216288 -2.71444e-05 -3.54997e-25)
(0.0216268 -3.36143e-05 2.9522e-26)
(0.0198803 7.28748e-05 1.38889e-24)
(0.0198932 6.40842e-05 -1.88212e-23)
(0.0199039 5.54367e-05 -9.77056e-24)
(0.0199127 4.69768e-05 7.56424e-23)
(0.0199196 3.874e-05 -7.03865e-23)
(0.0199251 3.07593e-05 1.95864e-23)
(0.0199293 2.30461e-05 3.13948e-24)
(0.0199325 1.55941e-05 -1.56558e-24)
(0.0199347 8.39154e-06 -6.91855e-24)
(0.019936 1.42763e-06 2.85984e-23)
(0.0199366 -5.30802e-06 -2.19944e-23)
(0.0199365 -1.18253e-05 -7.49074e-25)
(0.0199358 -1.81346e-05 1.62052e-24)
(0.0199345 -2.42441e-05 8.32633e-25)
(0.0199326 -3.01619e-05 -5.7814e-25)
(0.0180991 6.14661e-05 2.10225e-24)
(0.0181121 5.4318e-05 1.79514e-23)
(0.0181232 4.72018e-05 -1.95046e-23)
(0.0181324 4.01399e-05 -1.27426e-23)
(0.0181399 3.31808e-05 7.72376e-23)
(0.018146 2.63721e-05 -5.68006e-23)
(0.0181508 1.97344e-05 -1.30106e-24)
(0.0181545 1.32694e-05 -1.07748e-23)
(0.0181572 6.97551e-06 -7.45406e-25)
(0.0181591 8.51545e-07 1.52026e-24)
(0.0181601 -5.10418e-06 -4.79077e-24)
(0.0181603 -1.08942e-05 4.18865e-24)
(0.0181598 -1.65224e-05 1.51806e-24)
(0.0181587 -2.1991e-05 1.21667e-24)
(0.0181569 -2.73043e-05 8.75427e-25)
(0.0163015 5.08888e-05 1.52624e-23)
(0.0163147 4.5107e-05 -2.21452e-23)
(0.0163261 3.92767e-05 -1.68496e-23)
(0.0163357 3.34052e-05 4.92507e-23)
(0.0163437 2.75542e-05 -1.69979e-23)
(0.0163503 2.17822e-05 -2.28878e-23)
(0.0163556 1.61148e-05 7.80823e-24)
(0.0163598 1.05594e-05 1.66676e-23)
(0.0163629 5.12117e-06 -2.56072e-23)
(0.0163651 -1.94306e-07 2.45414e-23)
(0.0163664 -5.38306e-06 -1.25832e-23)
(0.0163669 -1.04429e-05 5.09358e-24)
(0.0163666 -1.53735e-05 -5.92728e-24)
(0.0163655 -2.01733e-05 5.46379e-24)
(0.0163636 -2.48442e-05 -1.14099e-24)
(0.0145345 4.11426e-05 -3.01028e-24)
(0.0145478 3.651e-05 -9.95346e-24)
(0.0145593 3.17723e-05 -3.03742e-23)
(0.0145692 2.69295e-05 8.18726e-23)
(0.0145775 2.20554e-05 -1.43043e-23)
(0.0145843 1.72153e-05 -2.16462e-23)
(0.0145899 1.24367e-05 7.20574e-24)
(0.0145944 7.73033e-06 -1.02585e-23)
(0.0145978 3.10594e-06 -2.12886e-23)
(0.0146001 -1.42681e-06 2.02235e-23)
(0.0146015 -5.86086e-06 9.52441e-25)
(0.0146019 -1.01913e-05 -5.73823e-24)
(0.0146015 -1.44154e-05 6.50348e-24)
(0.0146002 -1.85296e-05 3.08689e-25)
(0.0145981 -2.25346e-05 -4.02336e-25)
(0.0128304 3.23457e-05 1.16951e-23)
(0.0128433 2.86918e-05 1.65173e-23)
(0.0128547 2.48944e-05 -1.49854e-23)
(0.0128645 2.09526e-05 -3.15601e-23)
(0.0128727 1.69512e-05 4.12741e-23)
(0.0128795 1.2958e-05 -4.40202e-23)
(0.0128851 8.99988e-06 -1.53255e-24)
(0.0128894 5.0893e-06 1.63687e-23)
(0.0128927 1.23871e-06 5.56118e-24)
(0.0128948 -2.54037e-06 -1.10431e-23)
(0.012896 -6.2397e-06 2.61607e-25)
(0.0128961 -9.85322e-06 2.12936e-23)
(0.0128953 -1.33771e-05 -8.04279e-24)
(0.0128936 -1.68075e-05 -1.89052e-24)
(0.0128909 -2.01445e-05 -1.04332e-25)
(0.0112093 2.46663e-05 -1.21352e-23)
(0.0112215 2.18482e-05 1.51682e-23)
(0.0112323 1.88612e-05 1.64836e-24)
(0.0112415 1.57103e-05 2.90407e-23)
(0.0112492 1.24888e-05 -2.32651e-23)
(0.0112557 9.26308e-06 1.75984e-24)
(0.0112608 6.05777e-06 -2.45096e-24)
(0.0112648 2.88576e-06 -6.91342e-24)
(0.0112676 -2.39554e-07 5.82191e-24)
(0.0112692 -3.30662e-06 -1.85881e-23)
(0.0112698 -6.30738e-06 1.43919e-24)
(0.0112694 -9.23582e-06 4.36271e-24)
(0.011268 -1.20881e-05 2.61512e-24)
(0.0112655 -1.48609e-05 9.7213e-25)
(0.0112621 -1.75548e-05 3.0814e-25)
(0.00968285 1.82229e-05 8.85215e-24)
(0.00969392 1.61088e-05 -6.85496e-24)
(0.00970369 1.38115e-05 -2.94234e-23)
(0.00971204 1.13472e-05 2.71605e-23)
(0.00971902 8.81439e-06 3.71579e-23)
(0.0097247 6.27426e-06 -9.41515e-24)
(0.00972915 3.74776e-06 -1.87283e-23)
(0.00973242 1.24725e-06 -2.57163e-23)
(0.00973452 -1.21476e-06 1.91705e-23)
(0.00973551 -3.62821e-06 1.06115e-24)
(0.00973541 -5.98607e-06 -4.15197e-24)
(0.00973427 -8.28313e-06 -1.05346e-24)
(0.0097321 -1.05163e-05 2.17128e-24)
(0.00972894 -1.26831e-05 -1.04477e-25)
(0.00972479 -1.47852e-05 -3.69739e-25)
(0.00825687 1.30284e-05 -5.39515e-24)
(0.00826657 1.1491e-05 -3.76705e-24)
(0.00827512 9.76756e-06 4.54656e-24)
(0.00828239 7.88855e-06 -1.4135e-23)
(0.00828837 5.95272e-06 4.58569e-23)
(0.00829314 4.01235e-06 -6.00574e-23)
(0.00829674 2.08358e-06 5.8249e-23)
(0.00829917 1.76967e-07 -2.44491e-23)
(0.00830049 -1.69722e-06 5.44319e-24)
(0.00830072 -3.53116e-06 5.52991e-27)
(0.0082999 -5.31929e-06 -4.19692e-24)
(0.00829804 -7.05759e-06 1.2914e-24)
(0.00829519 -8.74382e-06 -3.02811e-24)
(0.00829138 -1.03766e-05 -3.65348e-25)
(0.00828661 -1.19587e-05 1.75975e-25)
(0.00693353 8.99334e-06 -2.49383e-24)
(0.00694175 7.91171e-06 6.35122e-25)
(0.00694899 6.65414e-06 1.35979e-24)
(0.00695507 5.26462e-06 -6.22372e-24)
(0.00696 3.83543e-06 -2.76063e-24)
(0.00696379 2.4067e-06 2.38665e-23)
(0.00696649 9.89204e-07 -1.394e-23)
(0.0069681 -4.09162e-07 1.96434e-24)
(0.00696866 -1.78089e-06 -1.8999e-24)
(0.0069682 -3.12036e-06 -2.00314e-24)
(0.00696674 -4.42351e-06 -5.41893e-25)
(0.00696432 -5.68749e-06 3.66704e-24)
(0.00696097 -6.91086e-06 8.05956e-25)
(0.00695671 -8.09306e-06 -2.06969e-24)
(0.00695156 -9.23762e-06 -2.89387e-25)
(0.00571241 5.96278e-06 -8.48154e-25)
(0.00571917 5.22845e-06 -2.7687e-25)
(0.0057251 4.34135e-06 -1.34377e-23)
(0.00573002 3.35357e-06 3.56358e-24)
(0.0057339 2.34366e-06 -9.49179e-24)
(0.00573676 1.33825e-06 6.68748e-24)
(0.00573863 3.43268e-07 1.24915e-23)
(0.00573951 -6.36055e-07 9.24256e-24)
(0.00573945 -1.5947e-06 -1.28677e-23)
(0.00573845 -2.52887e-06 3.86912e-24)
(0.00573656 -3.43575e-06 3.20376e-24)
(0.00573379 -4.31347e-06 -4.46987e-24)
(0.00573018 -5.16118e-06 2.37252e-24)
(0.00572577 -5.97886e-06 -1.22295e-25)
(0.00572055 -6.77019e-06 5.21542e-25)
(0.00459127 3.75859e-06 -3.06244e-24)
(0.00459666 3.28031e-06 -4.16623e-24)
(0.00460136 2.6827e-06 -7.39364e-25)
(0.00460519 2.01709e-06 1.02733e-23)
(0.00460811 1.34308e-06 -7.22305e-24)
(0.00461015 6.75122e-07 -1.37495e-24)
(0.00461132 1.57292e-08 1.15034e-23)
(0.00461163 -6.31941e-07 -1.06093e-27)
(0.00461112 -1.26476e-06 -2.32517e-24)
(0.0046098 -1.88028e-06 -8.27155e-24)
(0.0046077 -2.47666e-06 9.97399e-25)
(0.00460485 -3.05274e-06 5.52124e-24)
(0.00460126 -3.60806e-06 -7.05237e-25)
(0.00459698 -4.14281e-06 -6.709e-25)
(0.00459201 -4.66029e-06 4.30564e-25)
(0.0035665 2.20932e-06 -6.1066e-25)
(0.00357064 1.91383e-06 3.69811e-26)
(0.00357423 1.53725e-06 4.53171e-24)
(0.00357707 1.12121e-06 3.00968e-24)
(0.00357916 7.04912e-07 -2.0915e-24)
(0.00358052 2.94076e-07 -5.11459e-24)
(0.00358115 -1.10639e-07 2.05121e-24)
(0.00358108 -5.07467e-07 -8.56122e-24)
(0.00358032 -8.94581e-07 6.57992e-24)
(0.00357889 -1.2705e-06 3.30137e-24)
(0.00357681 -1.6341e-06 -7.58121e-26)
(0.00357411 -1.98472e-06 -3.52037e-24)
(0.00357081 -2.32212e-06 6.1065e-25)
(0.00356694 -2.64647e-06 -4.30063e-25)
(0.00356249 -2.96024e-06 2.0471e-25)
(0.00263349 1.16591e-06 -1.01993e-24)
(0.00263651 9.95284e-07 2.24784e-26)
(0.00263909 7.80377e-07 3.30498e-24)
(0.00264109 5.47281e-07 -2.06308e-24)
(0.00264249 3.17342e-07 8.4318e-24)
(0.00264331 9.14269e-08 -1.53252e-23)
(0.00264358 -1.30517e-07 1.24178e-23)
(0.00264329 -3.47624e-07 -1.02942e-23)
(0.00264246 -5.5895e-07 7.33416e-24)
(0.00264112 -7.63713e-07 -4.64967e-24)
(0.00263927 -9.61323e-07 1.58965e-24)
(0.00263694 -1.15145e-06 2.25452e-25)
(0.00263414 -1.33403e-06 3.32119e-25)
(0.00263089 -1.5091e-06 -4.02314e-25)
(0.00262721 -1.67807e-06 7.73522e-26)
(0.00178695 5.10132e-07 1.40214e-24)
(0.00178897 4.2234e-07 1.50952e-24)
(0.00179066 3.1902e-07 -6.45143e-24)
(0.00179193 2.10248e-07 4.70825e-24)
(0.00179277 1.04661e-07 -4.96021e-26)
(0.00179321 1.47162e-09 1.19544e-24)
(0.00179325 -9.94649e-08 -1.47164e-24)
(0.00179289 -1.97804e-07 -3.03494e-24)
(0.00179216 -2.93151e-07 2.9965e-24)
(0.00179106 -3.8518e-07 2.95796e-25)
(0.0017896 -4.73654e-07 -2.31835e-24)
(0.0017878 -5.58452e-07 8.34155e-25)
(0.00178567 -6.39615e-07 4.70744e-25)
(0.00178323 -7.17077e-07 -5.76976e-26)
(0.00178048 -7.91185e-07 -4.7342e-26)
(0.00102117 1.58612e-07 -1.28539e-24)
(0.00102228 1.36663e-07 3.92496e-24)
(0.0010232 1.11721e-07 2.32816e-24)
(0.00102385 8.33054e-08 -4.20226e-24)
(0.00102426 5.37683e-08 -4.91683e-25)
(0.00102443 2.28942e-08 -4.34867e-25)
(0.00102436 -8.97922e-09 1.3161e-24)
(0.00102406 -4.14126e-08 -2.2113e-24)
(0.00102354 -7.40014e-08 2.97711e-24)
(0.00102281 -1.06409e-07 -1.45824e-24)
(0.00102186 -1.38371e-07 -9.20789e-25)
(0.00102071 -1.69679e-07 5.47216e-25)
(0.00101936 -2.00243e-07 -6.09138e-25)
(0.00101783 -2.29832e-07 5.96819e-25)
(0.00101612 -2.57984e-07 -9.34397e-26)
(0.000330255 4.22623e-08 -7.31995e-27)
(0.00033054 9.92534e-08 6.08092e-25)
(0.000330766 1.43654e-07 6.9294e-25)
(0.000330908 1.73581e-07 -1.08912e-24)
(0.000330976 1.90763e-07 2.24373e-24)
(0.00033097 1.97134e-07 -2.43395e-24)
(0.000330891 1.94432e-07 1.57937e-25)
(0.000330739 1.842e-07 1.31556e-24)
(0.000330516 1.67787e-07 -1.8169e-24)
(0.000330224 1.46372e-07 -3.16241e-25)
(0.000329863 1.20966e-07 1.21193e-24)
(0.000329438 9.24629e-08 -5.29657e-25)
(0.000328949 6.15702e-08 -1.82036e-25)
(0.0003284 2.90316e-08 1.5001e-25)
(0.000327792 -4.19228e-09 -6.09303e-27)
(0.000827919 -0.00025468 9.66097e-26)
(0.000955589 -0.000181555 2.52466e-24)
(0.00115946 -0.000102536 -7.37953e-24)
(0.00137175 -3.88672e-05 1.08843e-23)
(0.00157792 1.0177e-05 -4.1337e-24)
(0.00178006 4.64899e-05 -4.02482e-24)
(0.00197882 7.24761e-05 4.61439e-24)
(0.00217482 9.00839e-05 -9.18688e-24)
(0.00236874 0.000100878 5.96015e-25)
(0.00256118 0.000106181 5.86426e-24)
(0.00275264 0.00010713 -1.1243e-24)
(0.00294357 0.000104741 1.22109e-24)
(0.00313444 9.99621e-05 -1.19682e-25)
(0.00332577 9.37303e-05 7.67745e-25)
(0.00351821 8.70186e-05 -2.83064e-24)
(0.00371267 8.08795e-05 1.55596e-24)
(0.00391047 7.64554e-05 -4.83464e-25)
(0.00411359 7.49153e-05 3.80636e-26)
(0.0043249 7.72232e-05 1.12422e-24)
(0.00454824 8.36249e-05 -7.02551e-25)
(0.00478821 9.26808e-05 8.41762e-26)
(0.00504872 9.9841e-05 -7.29577e-26)
(0.00530961 9.66155e-05 1.33598e-25)
(0.00553957 7.76319e-05 5.04059e-25)
(0.00572895 4.2518e-05 -9.03324e-25)
(0.00587756 -7.1145e-06 -5.96109e-25)
(0.00598611 -6.88046e-05 3.49115e-26)
(0.00605575 -0.000139829 1.41654e-24)
(0.00608754 -0.000217202 1.77857e-24)
(0.00608227 -0.000297434 -3.40697e-24)
(0.00604059 -0.000376366 2.3439e-24)
(0.00596319 -0.000449091 -1.6967e-24)
(0.00585099 -0.00051001 2.33657e-25)
(0.00570528 -0.00055293 -1.20936e-24)
(0.00552771 -0.000571132 1.1501e-24)
(0.0053202 -0.000557288 7.73295e-24)
(0.00508492 -0.000503137 -2.1183e-24)
(0.00482421 -0.000398836 1.9297e-24)
(0.00454062 -0.000232098 9.89669e-25)
(0.00423695 1.19768e-05 -1.11028e-23)
(0.00391581 0.000348158 -1.30859e-25)
(0.00357863 0.000781056 4.29701e-24)
(0.00322502 0.00128105 1.19069e-24)
(0.00286179 0.0017412 -5.56353e-24)
(0.00268223 0.00185457 -2.64877e-25)
(0.00156237 -0.000311605 -2.97181e-24)
(0.00161285 -0.00028136 -4.27939e-24)
(0.0017382 -0.000210594 9.04486e-24)
(0.00189914 -0.000141846 4.3022e-24)
(0.00207245 -8.36669e-05 -1.53757e-23)
(0.00225174 -3.77818e-05 1.67177e-23)
(0.00243354 -2.98287e-06 -6.08356e-24)
(0.00261618 2.24908e-05 4.90491e-24)
(0.00279907 4.02571e-05 -6.55914e-24)
(0.00298203 5.17416e-05 7.57823e-26)
(0.00316513 5.81859e-05 -3.54254e-24)
(0.00334852 6.06927e-05 7.08103e-24)
(0.00353246 6.02797e-05 -3.94427e-24)
(0.00371732 5.79323e-05 -3.56682e-24)
(0.00390362 5.46548e-05 -2.38278e-24)
(0.00409215 5.15114e-05 4.58157e-24)
(0.00428408 4.96373e-05 -5.46475e-25)
(0.0044812 5.01773e-05 2.39704e-24)
(0.00468612 5.40688e-05 3.66838e-25)
(0.00490242 6.1559e-05 -7.11904e-25)
(0.00513437 7.13055e-05 -2.90503e-25)
(0.00538575 7.90236e-05 -1.67969e-25)
(0.00563737 7.66613e-05 8.02137e-25)
(0.00585948 5.9224e-05 9.48916e-25)
(0.00604293 2.64667e-05 -8.66394e-25)
(0.0061875 -1.99965e-05 -4.0151e-24)
(0.00629375 -7.77131e-05 5.2714e-24)
(0.00636263 -0.000143936 -3.5312e-24)
(0.00639507 -0.000215623 1.1611e-24)
(0.00639184 -0.000289234 -5.52477e-25)
(0.00635367 -0.000360584 3.60618e-24)
(0.00628143 -0.000424782 -3.59109e-24)
(0.00617635 -0.000476287 1.20047e-25)
(0.00604013 -0.000508991 6.58355e-24)
(0.00587499 -0.000516275 -1.13822e-23)
(0.00568374 -0.000490929 3.08637e-24)
(0.00546976 -0.000424861 1.44578e-23)
(0.00523729 -0.000308513 -3.97553e-24)
(0.00499197 -0.00013009 -1.13748e-23)
(0.00474177 0.000124665 -6.62084e-24)
(0.0044986 0.000470019 1.45124e-23)
(0.00428039 0.000909536 -1.31334e-23)
(0.00411387 0.0014091 -2.25318e-24)
(0.00402672 0.00184557 7.7487e-24)
(0.00408834 0.00192594 2.1408e-24)
(0.0024189 -0.000319581 -3.46616e-26)
(0.00242343 -0.000326398 -5.17507e-24)
(0.00247955 -0.000283621 1.00743e-23)
(0.00258006 -0.000226034 8.56654e-24)
(0.0027075 -0.000168832 -1.43974e-23)
(0.00285189 -0.000118987 3.03899e-25)
(0.00300664 -7.83633e-05 1.45834e-24)
(0.00316764 -4.65972e-05 1.61379e-23)
(0.00333264 -2.26642e-05 -1.9463e-23)
(0.0035004 -5.38195e-06 1.21487e-23)
(0.00367022 6.40866e-06 3.71223e-24)
(0.0038418 1.37952e-05 -2.07424e-23)
(0.00401505 1.78052e-05 7.57521e-24)
(0.00419008 1.94393e-05 3.04662e-24)
(0.0043672 1.9712e-05 -6.38448e-24)
(0.00454703 1.96862e-05 1.04085e-23)
(0.00473053 2.04813e-05 -7.36408e-24)
(0.00491928 2.32138e-05 -1.26953e-25)
(0.00511561 2.87926e-05 5.84849e-25)
(0.00532275 3.74676e-05 6.16262e-25)
(0.00554464 4.7996e-05 8.67165e-26)
(0.00578484 5.6356e-05 3.39166e-25)
(0.00602527 5.49322e-05 -8.97513e-25)
(0.00623783 3.91002e-05 2.63469e-24)
(0.00641393 8.74421e-06 -4.08244e-24)
(0.00655328 -3.45063e-05 2.31098e-24)
(0.00665627 -8.81957e-05 -5.05131e-24)
(0.00672365 -0.000149542 6.66295e-24)
(0.00675623 -0.00021544 -5.51248e-24)
(0.00675475 -0.000282292 7.68075e-25)
(0.00672002 -0.00034588 1.00445e-24)
(0.00665315 -0.000401335 4.64365e-24)
(0.00655566 -0.000443189 -1.15389e-24)
(0.00642973 -0.000465471 3.64863e-24)
(0.00627823 -0.000461765 -1.08046e-23)
(0.00610482 -0.000425173 1.90907e-23)
(0.00591422 -0.000348118 -1.30402e-23)
(0.00571255 -0.000221974 1.91752e-23)
(0.00550829 -3.66827e-05 -3.615e-23)
(0.00531383 0.000218937 1.33166e-23)
(0.00514755 0.000554093 4.36148e-24)
(0.00503551 0.000965008 6.17282e-24)
(0.00500959 0.00140983 -7.26125e-24)
(0.00508642 0.00176955 1.62209e-24)
(0.00525051 0.00183574 -9.43499e-25)
(0.00338405 -0.000305725 -1.25601e-24)
(0.00336629 -0.000333388 -2.09979e-24)
(0.00337542 -0.000319383 -9.46064e-24)
(0.00342158 -0.00028214 2.54958e-24)
(0.00349914 -0.000235624 1.73465e-24)
(0.0036008 -0.000189215 7.88283e-24)
(0.00371985 -0.000147715 -1.70627e-23)
(0.00385104 -0.000112827 6.69426e-24)
(0.00399082 -8.47293e-05 2.29069e-23)
(0.00413684 -6.29047e-05 -6.23575e-24)
(0.00428763 -4.65469e-05 -5.96875e-24)
(0.00444226 -3.47526e-05 -9.66868e-25)
(0.0046002 -2.65911e-05 3.21886e-24)
(0.00476122 -2.11145e-05 -6.38167e-24)
(0.00492536 -1.73429e-05 1.49435e-24)
(0.00509299 -1.42453e-05 -5.32875e-25)
(0.00526485 -1.07399e-05 -3.16064e-24)
(0.00544223 -5.75489e-06 1.23973e-24)
(0.00562717 1.57778e-06 5.5469e-24)
(0.00582251 1.15015e-05 -6.70977e-25)
(0.0060318 2.28687e-05 -1.2389e-24)
(0.00625833 3.19214e-05 -3.29437e-25)
(0.00648523 3.1497e-05 -1.77774e-24)
(0.00668624 1.73528e-05 -7.03232e-26)
(0.00685325 -1.04876e-05 -4.00953e-24)
(0.00698591 -5.03697e-05 6.85016e-24)
(0.00708442 -9.98295e-05 -5.59794e-24)
(0.00714933 -0.00015605 1.04196e-23)
(0.00718131 -0.000215876 -8.32746e-24)
(0.00718109 -0.000275667 2.03815e-24)
(0.00714961 -0.000331211 2.77402e-24)
(0.00708816 -0.000377709 -2.62039e-25)
(0.00699865 -0.000409847 -4.15599e-25)
(0.0068837 -0.000421908 -1.38567e-24)
(0.00674683 -0.000407855 1.64547e-24)
(0.00659257 -0.00036137 -6.27887e-24)
(0.00642679 -0.000275812 2.90042e-23)
(0.00625722 -0.000144139 -1.51339e-23)
(0.00609434 4.09427e-05 -5.88135e-25)
(0.00595286 0.000286103 -3.09961e-23)
(0.0058531 0.000593854 2.22582e-23)
(0.00582057 0.000953233 -7.10021e-24)
(0.00587994 0.00132249 2.21058e-24)
(0.00603317 0.00161 6.78888e-24)
(0.00623486 0.00169097 -1.33559e-24)