/*--------------------------------*- C++ -*----------------------------------*\
| =========                 |                                                 |
| \\      /  F ield         | OpenFOAM: The Open Source CFD Toolbox           |
|  \\    /   O peration     | Version:  2312                                  |
|   \\  /    A nd           | Website:  www.openfoam.com                      |
|    \\/     M anipulation  |                                                 |
\*---------------------------------------------------------------------------*/
FoamFile
{
    version     2.0;
    format      ascii;
    arch        "LSB;label=32;scalar=64";
    class       volScalarField;
    location    "151";
    object      p;
}
// * * * * * * * * * * * * * * * * * * * * * * * * * * * * * * * * * * * * * //

dimensions      [0 2 -2 0 0 0 0];

internalField   nonuniform List<scalar> 
4800
(
1.26689e-13
-1.69645e-06
-3.07698e-06
-4.21597e-06
-5.16682e-06
-5.96946e-06
-6.65375e-06
-7.24283e-06
-7.76093e-06
-8.21801e-06
-8.62398e-06
-8.98403e-06
-9.29438e-06
-9.78412e-06
-1.1386e-05
2.03217e-08
-1.67266e-06
-3.05112e-06
-4.18925e-06
-5.14023e-06
-5.94408e-06
-6.6311e-06
-7.22461e-06
-7.74911e-06
-8.21606e-06
-8.64043e-06
-9.04094e-06
-9.43408e-06
-9.92751e-06
-1.07666e-05
4.18586e-08
-1.64739e-06
-3.02373e-06
-4.16105e-06
-5.11232e-06
-5.91745e-06
-6.60717e-06
-7.20296e-06
-7.73199e-06
-8.20643e-06
-8.64155e-06
-9.05727e-06
-9.46443e-06
-9.87461e-06
-1.02699e-05
6.38222e-08
-1.62115e-06
-2.99494e-06
-4.13105e-06
-5.08214e-06
-5.8879e-06
-6.57922e-06
-7.17669e-06
-7.70664e-06
-8.18278e-06
-8.61641e-06
-9.01891e-06
-9.38561e-06
-9.68873e-06
-9.86354e-06
8.78973e-08
-1.59198e-06
-2.96255e-06
-4.09681e-06
-5.04704e-06
-5.85252e-06
-6.54375e-06
-7.14188e-06
-7.66831e-06
-8.13841e-06
-8.55797e-06
-8.92801e-06
-9.23322e-06
-9.43823e-06
-9.49142e-06
1.15493e-07
-1.55836e-06
-2.9249e-06
-4.05652e-06
-5.00489e-06
-5.80878e-06
-6.49775e-06
-7.09292e-06
-7.61151e-06
-8.06697e-06
-8.46053e-06
-8.78635e-06
-9.02675e-06
-9.15474e-06
-9.14421e-06
1.48601e-07
-1.51829e-06
-2.87984e-06
-4.00771e-06
-4.95283e-06
-5.75313e-06
-6.43697e-06
-7.02424e-06
-7.52958e-06
-7.96228e-06
-8.32099e-06
-8.59808e-06
-8.78024e-06
-8.85421e-06
-8.81422e-06
1.90724e-07
-1.46829e-06
-2.82372e-06
-3.94639e-06
-4.88632e-06
-5.68034e-06
-6.35536e-06
-6.92964e-06
-7.41545e-06
-7.81901e-06
-8.13881e-06
-8.36955e-06
-8.50534e-06
-8.54505e-06
-8.49445e-06
2.47347e-07
-1.40287e-06
-2.75081e-06
-3.86644e-06
-4.79872e-06
-5.58316e-06
-6.24514e-06
-6.80141e-06
-7.26252e-06
-7.63363e-06
-7.91525e-06
-8.10677e-06
-8.20953e-06
-8.23037e-06
-8.17999e-06
3.25896e-07
-1.31432e-06
-2.653e-06
-3.75927e-06
-4.68095e-06
-5.45216e-06
-6.09694e-06
-6.63103e-06
-7.06449e-06
-7.4035e-06
-7.65169e-06
-7.81351e-06
-7.89571e-06
-7.90923e-06
-7.86595e-06
4.35035e-07
-1.19305e-06
-2.51994e-06
-3.61392e-06
-4.52165e-06
-5.27603e-06
-5.90016e-06
-6.40969e-06
-6.81546e-06
-7.12575e-06
-7.34789e-06
-7.49018e-06
-7.56255e-06
-7.57739e-06
-7.54601e-06
5.83754e-07
-1.0284e-06
-2.33972e-06
-3.41769e-06
-4.30786e-06
-5.04224e-06
-5.64363e-06
-6.12848e-06
-6.50927e-06
-6.79677e-06
-7.00124e-06
-7.13354e-06
-7.20492e-06
-7.22759e-06
-7.21167e-06
7.81054e-07
-8.08974e-07
-2.09937e-06
-3.15672e-06
-4.02567e-06
-4.73774e-06
-5.31606e-06
-5.77834e-06
-6.13898e-06
-6.41088e-06
-6.60614e-06
-6.73678e-06
-6.81416e-06
-6.84965e-06
-6.852e-06
1.03592e-06
-5.2259e-07
-1.78477e-06
-2.81601e-06
-3.66018e-06
-4.34871e-06
-4.90533e-06
-5.34898e-06
-5.69559e-06
-5.95935e-06
-6.15317e-06
-6.28915e-06
-6.3781e-06
-6.43014e-06
-6.45309e-06
1.35662e-06
-1.56881e-07
-1.38113e-06
-2.3796e-06
-3.19537e-06
-3.85984e-06
-4.39719e-06
-4.82706e-06
-5.16605e-06
-5.42867e-06
-5.62772e-06
-5.77476e-06
-5.87974e-06
-5.95163e-06
-5.99703e-06
1.74958e-06
2.99235e-07
-8.74503e-07
-1.83202e-06
-2.61521e-06
-3.25503e-06
-3.77547e-06
-4.19604e-06
-4.53303e-06
-4.80041e-06
-5.0102e-06
-5.17294e-06
-5.29757e-06
-5.39194e-06
-5.46204e-06
2.21785e-06
8.53286e-07
-2.54272e-07
-1.16077e-06
-1.90597e-06
-2.51952e-06
-3.0243e-06
-3.43864e-06
-3.77757e-06
-4.05388e-06
-4.27841e-06
-4.46055e-06
-4.6081e-06
-4.72776e-06
-4.8247e-06
2.75844e-06
1.50583e-06
4.82947e-07
-3.60299e-07
-1.06019e-06
-1.64393e-06
-2.13219e-06
-2.54114e-06
-2.88379e-06
-3.17108e-06
-3.41235e-06
-3.61577e-06
-3.78822e-06
-3.93556e-06
-4.0623e-06
3.36049e-06
2.24754e-06
1.32905e-06
5.62744e-07
-8.2741e-08
-6.30864e-07
-1.09913e-06
-1.5008e-06
-1.84633e-06
-2.1444e-06
-2.40244e-06
-2.62702e-06
-2.82395e-06
-2.9983e-06
-3.15451e-06
4.00593e-06
3.05676e-06
2.26008e-06
1.58325e-06
1.00118e-06
4.95207e-07
5.1754e-08
-3.3912e-07
-6.8508e-07
-9.92496e-07
-1.26695e-06
-1.5134e-06
-1.73611e-06
-1.93881e-06
-2.1246e-06
4.63849e-06
3.85709e-06
3.18622e-06
2.60246e-06
2.08742e-06
1.62753e-06
1.21323e-06
8.37724e-07
4.95867e-07
1.83339e-07
-1.03797e-07
-3.69327e-07
-6.16633e-07
-8.48753e-07
-1.0689e-06
5.16838e-06
4.529e-06
3.96561e-06
3.4625e-06
3.00699e-06
2.58993e-06
2.20501e-06
1.84782e-06
1.51487e-06
1.20315e-06
9.09828e-07
6.32433e-07
3.68613e-07
1.16484e-07
-1.25416e-07
5.58168e-06
5.04632e-06
4.56175e-06
4.11761e-06
3.7056e-06
3.31988e-06
2.95642e-06
2.61233e-06
2.28524e-06
1.97302e-06
1.6736e-06
1.38507e-06
1.1054e-06
8.32426e-07
5.64498e-07
5.88915e-06
5.42841e-06
5.0005e-06
4.59913e-06
4.21915e-06
3.85699e-06
3.51006e-06
3.17634e-06
2.85404e-06
2.54155e-06
2.23728e-06
1.93985e-06
1.64808e-06
1.36134e-06
1.07892e-06
6.11331e-06
5.70529e-06
5.31808e-06
4.94803e-06
4.59193e-06
4.24754e-06
3.91306e-06
3.58695e-06
3.26782e-06
2.95446e-06
2.64579e-06
2.34094e-06
2.0391e-06
1.73951e-06
1.44134e-06
6.27312e-06
5.90213e-06
5.54407e-06
5.19673e-06
4.85795e-06
4.52626e-06
4.20034e-06
3.879e-06
3.56118e-06
3.24602e-06
2.93276e-06
2.62075e-06
2.30933e-06
1.99779e-06
1.68565e-06
6.38403e-06
6.0391e-06
5.7018e-06
5.37061e-06
5.044e-06
4.72099e-06
4.40055e-06
4.08178e-06
3.76389e-06
3.44622e-06
3.12822e-06
2.80938e-06
2.48921e-06
2.16774e-06
1.84416e-06
6.45902e-06
6.13261e-06
5.81008e-06
5.49027e-06
5.17211e-06
4.8549e-06
4.53784e-06
4.22019e-06
3.90137e-06
3.58088e-06
3.25835e-06
2.93343e-06
2.60572e-06
2.27512e-06
1.94191e-06
6.50864e-06
6.19564e-06
5.88372e-06
5.572e-06
5.25978e-06
4.94647e-06
4.6314e-06
4.31399e-06
3.9938e-06
3.67048e-06
3.34374e-06
3.01341e-06
2.67918e-06
2.34094e-06
1.99886e-06
6.54111e-06
6.23809e-06
5.93398e-06
5.62818e-06
5.32021e-06
5.00955e-06
4.6956e-06
4.37792e-06
4.05616e-06
3.73008e-06
3.39946e-06
3.0642e-06
2.72433e-06
2.37939e-06
2.02972e-06
6.56253e-06
6.26721e-06
5.96903e-06
5.66773e-06
5.36291e-06
5.05407e-06
4.7407e-06
4.42246e-06
4.09909e-06
3.7704e-06
3.43626e-06
3.09661e-06
2.75139e-06
2.40087e-06
2.04471e-06
6.5772e-06
6.28803e-06
5.99455e-06
5.69679e-06
5.39439e-06
5.08683e-06
4.77372e-06
4.4548e-06
4.12986e-06
3.79877e-06
3.46148e-06
3.11797e-06
2.76822e-06
2.41251e-06
2.05076e-06
6.58798e-06
6.30388e-06
6.01426e-06
5.71941e-06
5.41891e-06
5.11231e-06
4.79929e-06
4.47964e-06
4.15322e-06
3.81996e-06
3.47983e-06
3.13289e-06
2.77915e-06
2.41884e-06
2.05219e-06
6.59663e-06
6.31685e-06
6.03051e-06
5.73811e-06
5.43916e-06
5.1333e-06
4.82027e-06
4.49991e-06
4.17213e-06
3.83689e-06
3.49423e-06
3.14423e-06
2.78695e-06
2.42254e-06
2.05159e-06
6.60419e-06
6.32816e-06
6.04467e-06
5.75436e-06
5.45673e-06
5.15147e-06
4.83838e-06
4.51736e-06
4.18833e-06
3.85131e-06
3.50637e-06
3.15365e-06
2.79311e-06
2.4252e-06
2.05039e-06
6.61116e-06
6.33843e-06
6.05745e-06
5.76897e-06
5.47247e-06
5.16772e-06
4.85456e-06
4.53291e-06
4.20276e-06
3.86413e-06
3.51715e-06
3.16199e-06
2.79848e-06
2.42764e-06
2.04927e-06
6.61776e-06
6.34796e-06
6.0692e-06
5.78232e-06
5.4868e-06
5.18248e-06
4.86924e-06
4.54703e-06
4.21586e-06
3.8758e-06
3.52699e-06
3.16964e-06
2.80353e-06
2.43008e-06
2.04853e-06
6.62416e-06
6.35698e-06
6.08021e-06
5.79473e-06
5.50008e-06
5.19613e-06
4.88279e-06
4.56006e-06
4.22797e-06
3.88661e-06
3.53617e-06
3.17685e-06
2.80848e-06
2.43259e-06
2.04825e-06
6.63072e-06
6.36605e-06
6.09115e-06
5.80698e-06
5.51313e-06
5.20953e-06
4.8961e-06
4.57286e-06
4.23988e-06
3.89729e-06
3.5453e-06
3.18413e-06
2.81364e-06
2.43537e-06
2.04843e-06
6.63712e-06
6.37486e-06
6.1018e-06
5.81894e-06
5.52595e-06
5.22274e-06
4.90929e-06
4.58564e-06
4.25188e-06
3.90815e-06
3.55467e-06
3.19168e-06
2.81911e-06
2.43849e-06
2.04895e-06
-1.27438e-05
-1.0553e-05
-9.19905e-06
-8.2851e-06
-7.54832e-06
-6.97821e-06
-6.53362e-06
-6.18853e-06
-5.9273e-06
-5.73879e-06
-5.61504e-06
-5.55051e-06
-5.54138e-06
-5.58562e-06
-5.684e-06
-5.8409e-06
-6.06402e-06
-6.36655e-06
-6.7672e-06
-7.29182e-06
-7.9607e-06
-8.77613e-06
-9.59496e-06
-1.01674e-05
-1.03781e-05
-1.01893e-05
-9.59209e-06
-8.6059e-06
-7.26241e-06
-5.5954e-06
-3.63955e-06
-1.43201e-06
9.85852e-07
3.56759e-06
6.26176e-06
9.0126e-06
1.17604e-05
1.44407e-05
1.69808e-05
1.92909e-05
2.12346e-05
2.26756e-05
2.3185e-05
2.23979e-05
1.90299e-05
-1.11455e-05
-1.0013e-05
-8.98768e-06
-8.17247e-06
-7.48083e-06
-6.92694e-06
-6.4887e-06
-6.14689e-06
-5.88824e-06
-5.70251e-06
-5.58203e-06
-5.5214e-06
-5.51679e-06
-5.56611e-06
-5.67014e-06
-5.83326e-06
-6.06297e-06
-6.37216e-06
-6.77889e-06
-7.30789e-06
-7.9777e-06
-8.78884e-06
-9.59806e-06
-1.01584e-05
-1.03579e-05
-1.01602e-05
-9.55616e-06
-8.5649e-06
-7.21848e-06
-5.55139e-06
-3.59948e-06
-1.40148e-06
9.99227e-07
3.55361e-06
6.20681e-06
8.89837e-06
1.15618e-05
1.41223e-05
1.64907e-05
1.85499e-05
2.01164e-05
2.09184e-05
2.03822e-05
1.76869e-05
1.18201e-05
-1.03019e-05
-9.58842e-06
-8.76984e-06
-8.04242e-06
-7.401e-06
-6.86944e-06
-6.44091e-06
-6.10412e-06
-5.84891e-06
-5.66641e-06
-5.54949e-06
-5.49301e-06
-5.4932e-06
-5.54792e-06
-5.65797e-06
-5.82775e-06
-6.06453e-06
-6.38078e-06
-6.79387e-06
-7.32719e-06
-7.99727e-06
-8.80261e-06
-9.59989e-06
-1.01456e-05
-1.03319e-05
-1.0124e-05
-9.51263e-06
-8.51674e-06
-7.16885e-06
-5.50446e-06
-3.56094e-06
-1.37904e-06
9.95237e-07
3.50952e-06
6.1046e-06
8.71414e-06
1.12634e-05
1.36657e-05
1.58145e-05
1.757e-05
1.87131e-05
1.89326e-05
1.77198e-05
1.45054e-05
9.20702e-06
-9.75869e-06
-9.23863e-06
-8.57817e-06
-7.92016e-06
-7.32668e-06
-6.81897e-06
-6.40046e-06
-6.06832e-06
-5.81577e-06
-5.63556e-06
-5.5213e-06
-5.46824e-06
-5.4727e-06
-5.53245e-06
-5.64838e-06
-5.82483e-06
-6.06881e-06
-6.39227e-06
-6.81177e-06
-7.34924e-06
-8.01891e-06
-8.81697e-06
-9.59992e-06
-1.01282e-05
-1.02983e-05
-1.00777e-05
-9.45688e-06
-8.45493e-06
-7.10515e-06
-5.44444e-06
-3.5122e-06
-1.35185e-06
9.87288e-07
3.44868e-06
5.96789e-06
8.47181e-06
1.08769e-05
1.30851e-05
1.49757e-05
1.63919e-05
1.71276e-05
1.68974e-05
1.53599e-05
1.22523e-05
7.84821e-06
-9.33681e-06
-8.93059e-06
-8.3901e-06
-7.81489e-06
-7.26689e-06
-6.78249e-06
-6.37364e-06
-6.04538e-06
-5.79421e-06
-5.61478e-06
-5.50172e-06
-5.45083e-06
-5.45855e-06
-5.52258e-06
-5.64389e-06
-5.82674e-06
-6.07775e-06
-6.40828e-06
-6.83392e-06
-7.37491e-06
-8.04294e-06
-8.83159e-06
-9.59728e-06
-1.0105e-05
-1.02564e-05
-1.00212e-05
-9.39005e-06
-8.38219e-06
-7.03213e-06
-5.37851e-06
-3.46322e-06
-1.33286e-06
9.59413e-07
3.35241e-06
5.77609e-06
8.15066e-06
1.03848e-05
1.23721e-05
1.39863e-05
1.50741e-05
1.54536e-05
1.4921e-05
1.32982e-05
1.05398e-05
6.93946e-06
-8.98386e-06
-8.65727e-06
-8.20812e-06
-7.71575e-06
-7.21895e-06
-6.75934e-06
-6.36329e-06
-6.03974e-06
-5.78923e-06
-5.60912e-06
-5.49555e-06
-5.4452e-06
-5.45473e-06
-5.52181e-06
-5.64756e-06
-5.83613e-06
-6.09361e-06
-6.43062e-06
-6.86165e-06
-7.40498e-06
-8.0695e-06
-8.84585e-06
-9.59061e-06
-1.00743e-05
-1.02043e-05
-9.95285e-06
-9.31098e-06
-8.29843e-06
-6.95114e-06
-5.3099e-06
-3.41953e-06
-1.33019e-06
9.00781e-07
3.20742e-06
5.51434e-06
7.73613e-06
9.77629e-06
1.15257e-05
1.28617e-05
1.36492e-05
1.37498e-05
1.30439e-05
1.14747e-05
9.11405e-06
6.2322e-06
-8.66604e-06
-8.40148e-06
-8.03537e-06
-7.61207e-06
-7.16945e-06
-6.74563e-06
-6.3686e-06
-6.05289e-06
-5.80401e-06
-5.62276e-06
-5.50737e-06
-5.45592e-06
-5.46555e-06
-5.53402e-06
-5.66285e-06
-5.85598e-06
-6.11884e-06
-6.46117e-06
-6.89622e-06
-7.44006e-06
-8.09843e-06
-8.85873e-06
-9.57812e-06
-1.00337e-05
-1.01392e-05
-9.86992e-06
-9.21742e-06
-8.2022e-06
-6.86204e-06
-5.24021e-06
-3.38483e-06
-1.34992e-06
8.03015e-07
3.00357e-06
5.17208e-06
7.21967e-06
9.04873e-06
1.05539e-05
1.16255e-05
1.21564e-05
1.20566e-05
1.12754e-05
9.8303e-06
7.8354e-06
5.51199e-06
-8.36425e-06
-8.14944e-06
-7.85327e-06
-7.49818e-06
-7.11436e-06
-6.73387e-06
-6.38362e-06
-6.08163e-06
-5.83799e-06
-5.65714e-06
-5.53993e-06
-5.48652e-06
-5.49474e-06
-5.56287e-06
-5.69316e-06
-5.88939e-06
-6.15593e-06
-6.5018e-06
-6.93879e-06
-7.48048e-06
-8.12918e-06
-8.86873e-06
-9.55739e-06
-9.98029e-06
-1.00581e-05
-9.76958e-06
-9.1072e-06
-8.09252e-06
-6.76558e-06
-5.17235e-06
-3.36448e-06
-1.39986e-06
6.56252e-07
2.73006e-06
4.73947e-06
6.5954e-06
8.20389e-06
9.46982e-06
1.0303e-05
1.0628e-05
1.03976e-05
9.60848e-06
8.31494e-06
6.63385e-06
4.7354e-06
-8.06949e-06
-7.89599e-06
-7.65865e-06
-7.36822e-06
-7.04491e-06
-6.71363e-06
-6.39834e-06
-6.11803e-06
-5.88587e-06
-5.7095e-06
-5.59261e-06
-5.53793e-06
-5.54407e-06
-5.61052e-06
-5.7409e-06
-5.93856e-06
-6.2068e-06
-6.55386e-06
-6.98999e-06
-7.526e-06
-8.16052e-06
-8.87362e-06
-9.52537e-06
-9.91055e-06
-9.95758e-06
-9.64917e-06
-8.97875e-06
-7.96958e-06
-6.66423e-06
-5.11137e-06
-3.36619e-06
-1.49011e-06
4.48946e-07
2.37552e-06
4.20776e-06
5.86011e-06
7.24709e-06
8.28855e-06
8.91693e-06
9.08617e-06
8.78119e-06
8.02623e-06
6.88773e-06
5.46913e-06
3.89793e-06
-7.77596e-06
-7.6382e-06
-7.451e-06
-7.219e-06
-6.95449e-06
-6.67556e-06
-6.40197e-06
-6.15149e-06
-5.93849e-06
-5.77272e-06
-5.66045e-06
-5.60733e-06
-5.61183e-06
-5.67628e-06
-5.80627e-06
-6.00406e-06
-6.27177e-06
-6.61725e-06
-7.04911e-06
-7.57517e-06
-8.19014e-06
-8.87024e-06
-9.47831e-06
-9.82077e-06
-9.83469e-06
-9.50673e-06
-8.8317e-06
-7.8353e-06
-6.56272e-06
-5.06487e-06
-3.40017e-06
-1.63274e-06
1.68522e-07
1.92898e-06
3.57014e-06
5.01369e-06
6.18627e-06
7.02513e-06
7.48457e-06
7.54248e-06
7.20428e-06
6.50667e-06
5.51478e-06
4.31389e-06
2.99867e-06
-7.47728e-06
-7.37175e-06
-7.22815e-06
-7.04817e-06
-6.83886e-06
-6.61268e-06
-6.3849e-06
-6.17086e-06
-5.98454e-06
-5.83638e-06
-5.7346e-06
-5.68743e-06
-5.69163e-06
-5.75546e-06
-5.88638e-06
-6.08367e-06
-6.34852e-06
-6.68956e-06
-7.11347e-06
-7.62476e-06
-8.21428e-06
-8.85445e-06
-9.41196e-06
-9.70733e-06
-9.68723e-06
-9.34195e-06
-8.66793e-06
-7.69445e-06
-6.46901e-06
-5.04354e-06
-3.47917e-06
-1.84153e-06
-1.97907e-07
1.38075e-06
2.82236e-06
4.05875e-06
5.03061e-06
5.6924e-06
6.01685e-06
5.99973e-06
5.65631e-06
5.02641e-06
4.16754e-06
3.14737e-06
2.03624e-06
-7.16505e-06
-7.08969e-06
-6.98512e-06
-6.85176e-06
-6.6935e-06
-6.51863e-06
-6.33835e-06
-6.16527e-06
-6.01181e-06
-5.88802e-06
-5.80459e-06
-5.76588e-06
-5.77333e-06
-5.84026e-06
-5.97517e-06
-6.17184e-06
-6.43152e-06
-6.76542e-06
-7.17773e-06
-7.66939e-06
-8.22753e-06
-8.82127e-06
-9.32217e-06
-9.56764e-06
-9.51508e-06
-9.15737e-06
-8.49283e-06
-7.55587e-06
-6.39522e-06
-5.06153e-06
-3.61825e-06
-2.13108e-06
-6.62496e-07
7.23266e-07
1.96298e-06
3.00019e-06
3.78965e-06
4.3006e-06
4.51862e-06
4.45456e-06
4.12329e-06
3.56306e-06
2.82197e-06
1.95253e-06
1.00717e-06
-6.82847e-06
-6.78221e-06
-6.71358e-06
-6.62266e-06
-6.51152e-06
-6.38561e-06
-6.2529e-06
-6.12322e-06
-6.00709e-06
-5.91328e-06
-5.85412e-06
-5.83053e-06
-5.84694e-06
-5.92186e-06
-6.06075e-06
-6.2565e-06
-6.51108e-06
-6.83621e-06
-7.23391e-06
-7.70162e-06
-8.22326e-06
-8.76551e-06
-9.20578e-06
-9.4014e-06
-9.32153e-06
-8.95942e-06
-8.31648e-06
-7.43358e-06
-6.35815e-06
-5.13604e-06
-3.83399e-06
-2.51572e-06
-1.2353e-06
-4.79133e-08
9.93499e-07
1.84441e-06
2.47249e-06
2.85924e-06
3.00056e-06
2.9024e-06
2.59101e-06
2.0971e-06
1.4584e-06
7.15077e-07
-9.3712e-08
-6.45376e-06
-6.43624e-06
-6.40163e-06
-6.35006e-06
-6.28274e-06
-6.20321e-06
-6.11715e-06
-6.0319e-06
-5.9558e-06
-5.89677e-06
-5.86342e-06
-5.86282e-06
-5.89948e-06
-5.98611e-06
-6.12763e-06
-6.32251e-06
-6.57459e-06
-6.89056e-06
-7.27167e-06
-7.71241e-06
-8.19422e-06
-8.68269e-06
-9.0617e-06
-9.21193e-06
-9.11435e-06
-8.7592e-06
-8.15401e-06
-7.34909e-06
-6.37661e-06
-5.28498e-06
-4.14352e-06
-3.00812e-06
-1.92299e-06
-9.33398e-07
-8.16771e-08
5.98576e-07
1.08513e-06
1.36755e-06
1.44658e-06
1.33192e-06
1.04501e-06
6.11483e-07
6.0781e-08
-5.76755e-07
-1.27188e-06
-6.02312e-06
-6.03463e-06
-6.03312e-06
-6.0189e-06
-5.99288e-06
-5.95746e-06
-5.91669e-06
-5.87594e-06
-5.84165e-06
-5.82052e-06
-5.81998e-06
-5.84731e-06
-5.90767e-06
-6.00916e-06
-6.15829e-06
-6.35676e-06
-6.60798e-06
-6.91502e-06
-7.2789e-06
-7.69185e-06
-8.13347e-06
-8.57021e-06
-8.89211e-06
-9.00723e-06
-8.90577e-06
-8.57e-06
-8.0335e-06
-7.32476e-06
-6.4666e-06
-5.52662e-06
-4.56242e-06
-3.61768e-06
-2.72804e-06
-1.92986e-06
-1.25554e-06
-7.29191e-07
-3.65414e-07
-1.69582e-07
-1.38718e-07
-2.62943e-07
-5.25492e-07
-9.06039e-07
-1.38214e-06
-1.93115e-06
-2.53125e-06
-5.51482e-06
-5.55601e-06
-5.58747e-06
-5.60965e-06
-5.62336e-06
-5.6304e-06
-5.63371e-06
-5.63733e-06
-5.64616e-06
-5.66577e-06
-5.70212e-06
-5.76139e-06
-5.84878e-06
-5.97064e-06
-6.1334e-06
-6.33995e-06
-6.593e-06
-6.89366e-06
-7.2422e-06
-7.62973e-06
-8.03501e-06
-8.42715e-06
-8.70485e-06
-8.80169e-06
-8.7067e-06
-8.42613e-06
-7.98221e-06
-7.36795e-06
-6.64626e-06
-5.87986e-06
-5.10431e-06
-4.3504e-06
-3.64966e-06
-3.03144e-06
-2.51947e-06
-2.13029e-06
-1.87306e-06
-1.75007e-06
-1.75792e-06
-1.88878e-06
-2.12959e-06
-2.46503e-06
-2.87856e-06
-3.35356e-06
-3.87392e-06
-4.90607e-06
-4.97795e-06
-5.04262e-06
-5.10096e-06
-5.15374e-06
-5.2023e-06
-5.24887e-06
-5.29661e-06
-5.34933e-06
-5.41134e-06
-5.4873e-06
-5.58226e-06
-5.70116e-06
-5.84918e-06
-6.03158e-06
-6.25131e-06
-6.51099e-06
-6.81043e-06
-7.1489e-06
-7.51767e-06
-7.89512e-06
-8.25509e-06
-8.51084e-06
-8.61016e-06
-8.55468e-06
-8.35194e-06
-7.98878e-06
-7.50089e-06
-6.94704e-06
-6.36301e-06
-5.77405e-06
-5.20503e-06
-4.68288e-06
-4.23027e-06
-3.86399e-06
-3.59541e-06
-3.43077e-06
-3.37122e-06
-3.41352e-06
-3.55088e-06
-3.77415e-06
-4.07248e-06
-4.43431e-06
-4.84781e-06
-5.30114e-06
-4.1753e-06
-4.28016e-06
-4.37903e-06
-4.47397e-06
-4.56616e-06
-4.65629e-06
-4.74596e-06
-4.83778e-06
-4.93486e-06
-5.04052e-06
-5.15843e-06
-5.29267e-06
-5.4474e-06
-5.62683e-06
-5.83479e-06
-6.07427e-06
-6.34728e-06
-6.65335e-06
-6.99103e-06
-7.35107e-06
-7.71771e-06
-8.06325e-06
-8.32031e-06
-8.45752e-06
-8.47396e-06
-8.34175e-06
-8.09225e-06
-7.76156e-06
-7.38317e-06
-6.97919e-06
-6.56945e-06
-6.17637e-06
-5.82078e-06
-5.51876e-06
-5.2818e-06
-5.1181e-06
-5.03252e-06
-5.02667e-06
-5.09942e-06
-5.24586e-06
-5.4576e-06
-5.72705e-06
-6.04704e-06
-6.40981e-06
-6.80689e-06
-3.29997e-06
-3.43996e-06
-3.57625e-06
-3.70989e-06
-3.84283e-06
-3.97556e-06
-4.10937e-06
-4.24655e-06
-4.38956e-06
-4.54101e-06
-4.70376e-06
-4.88109e-06
-5.0762e-06
-5.29254e-06
-5.53291e-06
-5.79991e-06
-6.09532e-06
-6.41794e-06
-6.76743e-06
-7.13438e-06
-7.5084e-06
-7.87097e-06
-8.15751e-06
-8.3556e-06
-8.45223e-06
-8.42673e-06
-8.31515e-06
-8.14907e-06
-7.9443e-06
-7.7154e-06
-7.47927e-06
-7.2532e-06
-7.05203e-06
-6.88715e-06
-6.76692e-06
-6.69752e-06
-6.68224e-06
-6.7229e-06
-6.82085e-06
-6.97413e-06
-7.17609e-06
-7.42191e-06
-7.70733e-06
-8.02721e-06
-8.3756e-06
-2.3004e-06
-2.47277e-06
-2.64388e-06
-2.81506e-06
-2.98624e-06
-3.15905e-06
-3.33552e-06
-3.51752e-06
-3.70687e-06
-3.90548e-06
-4.11554e-06
-4.33955e-06
-4.58006e-06
-4.83965e-06
-5.1206e-06
-5.42492e-06
-5.75388e-06
-6.1072e-06
-6.48354e-06
-6.8784e-06
-7.2827e-06
-7.68606e-06
-8.04688e-06
-8.31992e-06
-8.50133e-06
-8.60741e-06
-8.65318e-06
-8.65048e-06
-8.61228e-06
-8.55083e-06
-8.47827e-06
-8.40637e-06
-8.34554e-06
-8.30458e-06
-8.2905e-06
-8.30787e-06
-8.36029e-06
-8.44898e-06
-8.57127e-06
-8.72646e-06
-8.91737e-06
-9.14287e-06
-9.39901e-06
-9.68138e-06
-9.98601e-06
-1.28169e-06
-1.48976e-06
-1.69327e-06
-1.90034e-06
-2.11206e-06
-2.32779e-06
-2.54833e-06
-2.77552e-06
-3.01112e-06
-3.25677e-06
-3.51419e-06
-3.78533e-06
-4.07222e-06
-4.37692e-06
-4.70136e-06
-5.04709e-06
-5.41541e-06
-5.8064e-06
-6.21979e-06
-6.65314e-06
-7.10166e-06
-7.55873e-06
-7.98421e-06
-8.34208e-06
-8.63538e-06
-8.87141e-06
-9.0542e-06
-9.19161e-06
-9.29425e-06
-9.37183e-06
-9.43305e-06
-9.48639e-06
-9.53968e-06
-9.59935e-06
-9.67058e-06
-9.75683e-06
-9.86075e-06
-9.98532e-06
-1.01322e-05
-1.03019e-05
-1.04937e-05
-1.07069e-05
-1.09404e-05
-1.11923e-05
-1.14605e-05
-3.64098e-07
-6.06115e-07
-8.54391e-07
-1.10154e-06
-1.34999e-06
-1.60385e-06
-1.8647e-06
-2.1332e-06
-2.41059e-06
-2.69849e-06
-2.99848e-06
-3.31214e-06
-3.64114e-06
-3.98721e-06
-4.35203e-06
-4.73701e-06
-5.14337e-06
-5.57178e-06
-6.02234e-06
-6.49413e-06
-6.98442e-06
-7.48854e-06
-7.97534e-06
-8.41175e-06
-8.79314e-06
-9.12287e-06
-9.40478e-06
-9.64499e-06
-9.85111e-06
-1.00306e-05
-1.01904e-05
-1.03366e-05
-1.04749e-05
-1.06101e-05
-1.07463e-05
-1.08873e-05
-1.10361e-05
-1.11948e-05
-1.1366e-05
-1.15503e-05
-1.17474e-05
-1.19567e-05
-1.21775e-05
-1.24097e-05
-1.26527e-05
2.97347e-07
3.26878e-08
-2.3679e-07
-5.09836e-07
-7.87731e-07
-1.07255e-06
-1.36522e-06
-1.66638e-06
-1.97717e-06
-2.29897e-06
-2.63308e-06
-2.9808e-06
-3.34353e-06
-3.72274e-06
-4.11987e-06
-4.53621e-06
-4.97293e-06
-5.43087e-06
-5.91047e-06
-6.41152e-06
-6.93272e-06
-7.47214e-06
-8.00232e-06
-8.48964e-06
-8.9273e-06
-9.31837e-06
-9.66643e-06
-9.9761e-06
-1.02531e-05
-1.05031e-05
-1.07314e-05
-1.09426e-05
-1.11409e-05
-1.13302e-05
-1.15141e-05
-1.16957e-05
-1.18774e-05
-1.20611e-05
-1.22485e-05
-1.24412e-05
-1.26396e-05
-1.28436e-05
-1.30536e-05
-1.32698e-05
-1.34922e-05
7.9777e-07
5.07955e-07
2.15595e-07
-8.16139e-08
-3.85397e-07
-6.96648e-07
-1.01613e-06
-1.34467e-06
-1.68327e-06
-2.03296e-06
-2.39479e-06
-2.76986e-06
-3.15936e-06
-3.56448e-06
-3.98645e-06
-4.42639e-06
-4.88536e-06
-5.36421e-06
-5.86353e-06
-6.38351e-06
-6.92381e-06
-7.48346e-06
-8.03703e-06
-8.55271e-06
-9.0238e-06
-9.45297e-06
-9.84326e-06
-1.01984e-05
-1.05227e-05
-1.08205e-05
-1.10956e-05
-1.13517e-05
-1.1592e-05
-1.18198e-05
-1.20376e-05
-1.22481e-05
-1.24531e-05
-1.26548e-05
-1.28551e-05
-1.30551e-05
-1.32557e-05
-1.34575e-05
-1.36612e-05
-1.38671e-05
-1.40756e-05
1.1413e-06
8.3568e-07
5.24294e-07
2.06428e-07
-1.18679e-07
-4.51678e-07
-7.93275e-07
-1.14419e-06
-1.50515e-06
-1.87696e-06
-2.26046e-06
-2.65656e-06
-3.0662e-06
-3.49035e-06
-3.93e-06
-4.38608e-06
-4.85948e-06
-5.35098e-06
-5.86117e-06
-6.39039e-06
-6.93862e-06
-7.50521e-06
-8.06714e-06
-8.59537e-06
-9.0837e-06
-9.5344e-06
-9.95006e-06
-1.03337e-05
-1.06884e-05
-1.10174e-05
-1.13238e-05
-1.16104e-05
-1.18797e-05
-1.21342e-05
-1.23762e-05
-1.26076e-05
-1.28302e-05
-1.30459e-05
-1.32567e-05
-1.34637e-05
-1.36675e-05
-1.38693e-05
-1.40696e-05
-1.42692e-05
-1.44686e-05
1.37087e-06
1.0501e-06
7.22425e-07
3.87544e-07
4.49794e-08
-3.05795e-07
-6.65301e-07
-1.03405e-06
-1.41259e-06
-1.80152e-06
-2.2015e-06
-2.61322e-06
-3.0374e-06
-3.47479e-06
-3.92615e-06
-4.3922e-06
-4.87366e-06
-5.37114e-06
-5.88518e-06
-6.41606e-06
-6.96386e-06
-7.5281e-06
-8.08825e-06
-8.6184e-06
-9.11298e-06
-9.57391e-06
-1.00033e-05
-1.04033e-05
-1.07766e-05
-1.11254e-05
-1.14521e-05
-1.17589e-05
-1.2048e-05
-1.23212e-05
-1.25804e-05
-1.28274e-05
-1.30636e-05
-1.32903e-05
-1.35098e-05
-1.37226e-05
-1.393e-05
-1.41328e-05
-1.43318e-05
-1.45279e-05
-1.47216e-05
1.5167e-06
1.18261e-06
8.4119e-07
4.92199e-07
1.35253e-07
-2.29994e-07
-6.03867e-07
-9.86713e-07
-1.37892e-06
-1.78092e-06
-2.19319e-06
-2.61621e-06
-3.0505e-06
-3.49661e-06
-3.95508e-06
-4.42643e-06
-4.91121e-06
-5.40985e-06
-5.92275e-06
-6.45011e-06
-6.99201e-06
-7.54803e-06
-8.10008e-06
-8.62547e-06
-9.11927e-06
-9.58298e-06
-1.00182e-05
-1.04267e-05
-1.08104e-05
-1.11712e-05
-1.15108e-05
-1.18309e-05
-1.21333e-05
-1.24195e-05
-1.2691e-05
-1.29495e-05
-1.31968e-05
-1.34316e-05
-1.36579e-05
-1.38761e-05
-1.4087e-05
-1.42917e-05
-1.4491e-05
-1.46859e-05
-1.48769e-05
1.60361e-06
1.25823e-06
9.05269e-07
5.44528e-07
1.7577e-07
-2.01184e-07
-5.86515e-07
-9.80436e-07
-1.38319e-06
-1.79506e-06
-2.21633e-06
-2.64734e-06
-3.08841e-06
-3.5399e-06
-4.00217e-06
-4.47557e-06
-4.96044e-06
-5.45706e-06
-5.96569e-06
-6.48641e-06
-7.01928e-06
-7.56385e-06
-8.10434e-06
-8.6212e-06
-9.11003e-06
-9.57192e-06
-1.00081e-05
-1.042e-05
-1.0809e-05
-1.11766e-05
-1.15241e-05
-1.18528e-05
-1.21642e-05
-1.24594e-05
-1.27396e-05
-1.3006e-05
-1.32594e-05
-1.3503e-05
-1.37355e-05
-1.39584e-05
-1.41731e-05
-1.43803e-05
-1.45811e-05
-1.47763e-05
-1.49668e-05
1.65119e-06
1.29625e-06
9.33595e-07
5.63098e-07
1.84665e-07
-2.01759e-07
-5.9624e-07
-9.98872e-07
-1.40977e-06
-1.82907e-06
-2.25693e-06
-2.69352e-06
-3.13901e-06
-3.5936e-06
-4.05748e-06
-4.53082e-06
-5.01383e-06
-5.50661e-06
-6.0093e-06
-6.52184e-06
-7.04425e-06
-7.576e-06
-8.1035e-06
-8.61006e-06
-9.09174e-06
-9.54924e-06
-9.98351e-06
-1.03956e-05
-1.07867e-05
-1.11578e-05
-1.151e-05
-1.18443e-05
-1.21617e-05
-1.24631e-05
-1.27497e-05
-1.30224e-05
-1.32821e-05
-1.35308e-05
-1.37682e-05
-1.39955e-05
-1.42137e-05
-1.44238e-05
-1.46267e-05
-1.48234e-05
-1.50146e-05
1.674e-06
1.31092e-06
9.40075e-07
5.61437e-07
1.75018e-07
-2.1914e-07
-6.21006e-07
-1.03057e-06
-1.44784e-06
-1.87282e-06
-2.30556e-06
-2.74608e-06
-3.19442e-06
-3.65065e-06
-4.1148e-06
-4.58691e-06
-5.06704e-06
-5.55513e-06
-6.05122e-06
-6.55511e-06
-7.06676e-06
-7.58557e-06
-8.09991e-06
-8.59569e-06
-9.0693e-06
-9.52119e-06
-9.95205e-06
-1.03627e-05
-1.0754e-05
-1.11266e-05
-1.14814e-05
-1.18191e-05
-1.21405e-05
-1.24464e-05
-1.27377e-05
-1.30152e-05
-1.32797e-05
-1.35325e-05
-1.37741e-05
-1.40051e-05
-1.42267e-05
-1.44397e-05
-1.46451e-05
-1.48437e-05
-1.50366e-05
1.68211e-06
1.31205e-06
9.34252e-07
5.48747e-07
1.55647e-07
-2.44926e-07
-6.52859e-07
-1.06805e-06
-1.49041e-06
-1.91986e-06
-2.35631e-06
-2.79968e-06
-3.2499e-06
-3.7069e-06
-4.1706e-06
-4.64092e-06
-5.11775e-06
-5.60095e-06
-6.09042e-06
-6.58585e-06
-7.08715e-06
-7.5936e-06
-8.09536e-06
-8.58061e-06
-9.04607e-06
-9.49195e-06
-9.91876e-06
-1.03271e-05
-1.07174e-05
-1.10904e-05
-1.14465e-05
-1.17863e-05
-1.21105e-05
-1.24196e-05
-1.27144e-05
-1.29955e-05
-1.32637e-05
-1.35201e-05
-1.37651e-05
-1.39994e-05
-1.4224e-05
-1.44398e-05
-1.46476e-05
-1.48485e-05
-1.50433e-05
1.6822e-06
1.3061e-06
9.22312e-07
5.30937e-07
1.32158e-07
-2.73836e-07
-6.8686e-07
-1.10674e-06
-1.53329e-06
-1.96635e-06
-2.40574e-06
-2.85127e-06
-3.30279e-06
-3.7601e-06
-4.22303e-06
-4.69136e-06
-5.1649e-06
-5.64337e-06
-6.12658e-06
-6.6141e-06
-7.10579e-06
-7.60083e-06
-8.09097e-06
-8.56637e-06
-9.02405e-06
-9.46404e-06
-9.88667e-06
-1.02923e-05
-1.06812e-05
-1.10539e-05
-1.14105e-05
-1.17517e-05
-1.20778e-05
-1.23892e-05
-1.26866e-05
-1.29706e-05
-1.32418e-05
-1.3501e-05
-1.37489e-05
-1.39861e-05
-1.42133e-05
-1.44316e-05
-1.46418e-05
-1.48449e-05
-1.50418e-05
1.67841e-06
1.29704e-06
9.0804e-07
5.11576e-07
1.07893e-07
-3.02766e-07
-7.20153e-07
-1.14402e-06
-1.57413e-06
-2.01021e-06
-2.45202e-06
-2.8993e-06
-3.35178e-06
-3.80919e-06
-4.27124e-06
-4.73763e-06
-5.20807e-06
-5.68218e-06
-6.15965e-06
-6.64e-06
-7.12298e-06
-7.60772e-06
-8.08735e-06
-8.55376e-06
-9.00427e-06
-9.43875e-06
-9.85736e-06
-1.02603e-05
-1.06476e-05
-1.10196e-05
-1.13764e-05
-1.17184e-05
-1.20458e-05
-1.2359e-05
-1.26585e-05
-1.29447e-05
-1.32181e-05
-1.34798e-05
-1.37301e-05
-1.39698e-05
-1.41993e-05
-1.44199e-05
-1.46322e-05
-1.48374e-05
-1.50363e-05
1.6732e-06
1.28718e-06
8.93595e-07
4.92667e-07
8.46878e-08
-3.30048e-07
-7.51241e-07
-1.17858e-06
-1.61176e-06
-2.05046e-06
-2.49435e-06
-2.9431e-06
-3.39636e-06
-3.85378e-06
-4.31499e-06
-4.7796e-06
-5.24722e-06
-5.71741e-06
-6.18976e-06
-6.6637e-06
-7.13891e-06
-7.61446e-06
-8.08469e-06
-8.54304e-06
-8.98708e-06
-9.41655e-06
-9.83146e-06
-1.02318e-05
-1.06175e-05
-1.09888e-05
-1.13456e-05
-1.16881e-05
-1.20165e-05
-1.2331e-05
-1.26321e-05
-1.29202e-05
-1.31956e-05
-1.34592e-05
-1.37114e-05
-1.39533e-05
-1.41848e-05
-1.44072e-05
-1.46215e-05
-1.48285e-05
-1.50292e-05
1.66789e-06
1.27774e-06
8.80092e-07
4.75211e-07
6.34296e-08
-3.54913e-07
-7.79467e-07
-1.20988e-06
-1.64577e-06
-2.08677e-06
-2.53249e-06
-2.98253e-06
-3.43647e-06
-3.89389e-06
-4.35435e-06
-4.81738e-06
-5.28252e-06
-5.74923e-06
-6.21705e-06
-6.68532e-06
-7.15366e-06
-7.62108e-06
-8.08299e-06
-8.53418e-06
-8.97246e-06
-9.39746e-06
-9.80903e-06
-1.0207e-05
-1.05913e-05
-1.09617e-05
-1.13184e-05
-1.16613e-05
-1.19904e-05
-1.23061e-05
-1.26085e-05
-1.28981e-05
-1.31751e-05
-1.34403e-05
-1.36943e-05
-1.39379e-05
-1.41711e-05
-1.43951e-05
-1.4611e-05
-1.48196e-05
-1.50219e-05
1.66312e-06
1.26929e-06
8.68025e-07
4.59626e-07
4.44613e-08
-3.77091e-07
-8.04639e-07
-1.23778e-06
-1.67609e-06
-2.11915e-06
-2.5665e-06
-3.0177e-06
-3.47227e-06
-3.92971e-06
-4.38953e-06
-4.85119e-06
-5.31416e-06
-5.77783e-06
-6.24167e-06
-6.70497e-06
-7.16728e-06
-7.62754e-06
-8.08211e-06
-8.52698e-06
-8.96018e-06
-9.38124e-06
-9.78985e-06
-1.01857e-05
-1.05687e-05
-1.09384e-05
-1.12949e-05
-1.16381e-05
-1.19679e-05
-1.22844e-05
-1.2588e-05
-1.28789e-05
-1.31572e-05
-1.34237e-05
-1.36793e-05
-1.39243e-05
-1.41588e-05
-1.43843e-05
-1.46015e-05
-1.48115e-05
-1.50151e-05
1.65914e-06
1.26203e-06
8.57552e-07
4.46025e-07
2.785e-08
-3.9656e-07
-8.26773e-07
-1.26235e-06
-1.70282e-06
-2.14771e-06
-2.59654e-06
-3.04879e-06
-3.50395e-06
-3.96145e-06
-4.42074e-06
-4.88122e-06
-5.34231e-06
-5.80335e-06
-6.26373e-06
-6.7227e-06
-7.17973e-06
-7.63374e-06
-8.08187e-06
-8.52121e-06
-8.94998e-06
-9.36758e-06
-9.77361e-06
-1.01677e-05
-1.05494e-05
-1.09186e-05
-1.12749e-05
-1.16183e-05
-1.19486e-05
-1.2266e-05
-1.25705e-05
-1.28624e-05
-1.31419e-05
-1.34095e-05
-1.36664e-05
-1.39126e-05
-1.41483e-05
-1.43749e-05
-1.45933e-05
-1.48044e-05
-1.50091e-05
1.65593e-06
1.2559e-06
8.48545e-07
4.34221e-07
1.33526e-08
-4.13615e-07
-8.46218e-07
-1.28398e-06
-1.72639e-06
-2.17295e-06
-2.62311e-06
-3.07634e-06
-3.53204e-06
-3.98963e-06
-4.44849e-06
-4.90799e-06
-5.36747e-06
-5.82623e-06
-6.2836e-06
-6.73879e-06
-7.19121e-06
-7.6397e-06
-8.08213e-06
-8.51657e-06
-8.94142e-06
-9.35599e-06
-9.75976e-06
-1.01522e-05
-1.0533e-05
-1.09016e-05
-1.12578e-05
-1.16014e-05
-1.19322e-05
-1.22502e-05
-1.25556e-05
-1.28485e-05
-1.31289e-05
-1.33975e-05