/*--------------------------------*- C++ -*----------------------------------*\
| =========                 |                                                 |
| \\      /  F ield         | OpenFOAM: The Open Source CFD Toolbox           |
|  \\    /   O peration     | Version:  2312                                  |
|   \\  /    A nd           | Website:  www.openfoam.com                      |
|    \\/     M anipulation  |                                                 |
\*---------------------------------------------------------------------------*/
FoamFile
{
    version     2.0;
    format      ascii;
    arch        "LSB;label=32;scalar=64";
    class       volScalarField;
    location    "18.25";
    object      p;
}
// * * * * * * * * * * * * * * * * * * * * * * * * * * * * * * * * * * * * * //

dimensions      [0 2 -2 0 0 0 0];

internalField   nonuniform List<scalar> 
4800
(
-1.4404e-11
-1.4128e-06
-2.58951e-06
-3.58657e-06
-4.44223e-06
-5.18181e-06
-5.82963e-06
-6.40336e-06
-6.91158e-06
-7.36649e-06
-7.77681e-06
-8.14467e-06
-8.46378e-06
-8.96535e-06
-1.05982e-05
1.54538e-08
-1.39469e-06
-2.56957e-06
-3.56546e-06
-4.42112e-06
-5.16177e-06
-5.81214e-06
-6.38989e-06
-6.90409e-06
-7.36873e-06
-7.79772e-06
-8.20664e-06
-8.61029e-06
-9.11545e-06
-9.96999e-06
3.19703e-08
-1.37526e-06
-2.54823e-06
-3.54314e-06
-4.39868e-06
-5.1402e-06
-5.79145e-06
-6.37219e-06
-6.89117e-06
-7.36286e-06
-7.80261e-06
-8.22682e-06
-8.64477e-06
-9.06566e-06
-9.46894e-06
4.90724e-08
-1.35462e-06
-2.52517e-06
-3.51858e-06
-4.37339e-06
-5.11581e-06
-5.76622e-06
-6.34814e-06
-6.86923e-06
-7.34212e-06
-7.77989e-06
-8.19048e-06
-8.56691e-06
-8.87929e-06
-9.05947e-06
6.82675e-08
-1.33103e-06
-2.49837e-06
-3.48952e-06
-4.34271e-06
-5.08483e-06
-5.73411e-06
-6.31367e-06
-6.83276e-06
-7.29956e-06
-7.72226e-06
-8.09943e-06
-8.41298e-06
-8.62546e-06
-8.68289e-06
9.10337e-08
-1.30289e-06
-2.4661e-06
-3.454e-06
-4.3044e-06
-5.04394e-06
-5.69116e-06
-6.26465e-06
-6.77553e-06
-7.22763e-06
-7.62326e-06
-7.95479e-06
-8.20193e-06
-8.33582e-06
-8.32887e-06
1.19554e-07
-1.26801e-06
-2.42598e-06
-3.40933e-06
-4.25531e-06
-4.98991e-06
-5.63139e-06
-6.19516e-06
-6.69074e-06
-7.11935e-06
-7.47886e-06
-7.75997e-06
-7.94714e-06
-8.02557e-06
-7.98853e-06
1.57492e-07
-1.22278e-06
-2.37421e-06
-3.35134e-06
-4.19065e-06
-4.91735e-06
-5.54863e-06
-6.09749e-06
-6.57098e-06
-6.96899e-06
-7.28787e-06
-7.52062e-06
-7.65954e-06
-7.70223e-06
-7.65374e-06
2.10368e-07
-1.16176e-06
-2.30515e-06
-3.27396e-06
-4.10379e-06
-4.81885e-06
-5.43512e-06
-5.96348e-06
-6.40924e-06
-6.77253e-06
-7.051e-06
-7.24219e-06
-7.34594e-06
-7.368e-06
-7.31849e-06
2.85434e-07
-1.0776e-06
-2.21116e-06
-3.1691e-06
-3.98611e-06
-4.68537e-06
-5.2818e-06
-5.78494e-06
-6.19949e-06
-6.52745e-06
-6.76959e-06
-6.92831e-06
-7.00895e-06
-7.02149e-06
-6.97728e-06
3.90933e-07
-9.61543e-07
-2.08294e-06
-3.02698e-06
-3.8275e-06
-4.50678e-06
-5.07914e-06
-5.55384e-06
-5.93679e-06
-6.23218e-06
-6.44455e-06
-6.5803e-06
-6.64797e-06
-6.65902e-06
-6.62424e-06
5.35191e-07
-8.04193e-07
-1.91029e-06
-2.83687e-06
-3.61715e-06
-4.27287e-06
-4.81844e-06
-5.26401e-06
-5.61743e-06
-5.88546e-06
-6.0758e-06
-6.19743e-06
-6.26027e-06
-6.27565e-06
-6.25317e-06
7.26349e-07
-5.95961e-07
-1.6827e-06
-2.58787e-06
-3.34445e-06
-3.9742e-06
-4.49232e-06
-4.9105e-06
-5.23863e-06
-5.48594e-06
-5.66213e-06
-5.77738e-06
-5.8418e-06
-5.86583e-06
-5.85773e-06
9.72545e-07
-3.26947e-07
-1.3894e-06
-2.26906e-06
-2.99923e-06
-3.6022e-06
-4.09433e-06
-4.48893e-06
-4.79766e-06
-5.03139e-06
-5.20078e-06
-5.31624e-06
-5.38735e-06
-5.4234e-06
-5.43146e-06
1.28171e-06
1.28423e-08
-1.01957e-06
-1.86978e-06
-2.57177e-06
-3.14873e-06
-3.61812e-06
-3.9944e-06
-4.2903e-06
-4.51749e-06
-4.68669e-06
-4.80792e-06
-4.88998e-06
-4.94096e-06
-4.96693e-06
1.66054e-06
4.32425e-07
-5.63449e-07
-1.38054e-06
-2.05353e-06
-2.60645e-06
-3.05741e-06
-3.4213e-06
-3.71099e-06
-3.93812e-06
-4.11291e-06
-4.2447e-06
-4.34141e-06
-4.41008e-06
-4.45595e-06
2.11236e-06
9.37608e-07
-1.44454e-08
-7.95059e-07
-1.43889e-06
-1.97027e-06
-2.40733e-06
-2.76461e-06
-3.05433e-06
-3.28724e-06
-3.47273e-06
-3.61939e-06
-3.73433e-06
-3.82359e-06
-3.89175e-06
2.63448e-06
1.52779e-06
6.27575e-07
-1.13282e-07
-7.27949e-07
-1.24004e-06
-1.66696e-06
-2.02229e-06
-2.31716e-06
-2.56103e-06
-2.76183e-06
-2.92751e-06
-3.06439e-06
-3.1776e-06
-3.27112e-06
3.21601e-06
2.1927e-06
1.35271e-06
6.55043e-07
6.98476e-08
-4.24466e-07
-8.43667e-07
-1.19977e-06
-1.50251e-06
-1.76027e-06
-1.98037e-06
-2.16863e-06
-2.3304e-06
-2.47034e-06
-2.59214e-06
3.83584e-06
2.90927e-06
2.13699e-06
1.48576e-06
9.30589e-07
4.53044e-07
3.96198e-08
-3.19782e-07
-6.33072e-07
-9.06823e-07
-1.14683e-06
-1.35823e-06
-1.54585e-06
-1.71381e-06
-1.86548e-06
4.43118e-06
3.60415e-06
2.90076e-06
2.29579e-06
1.76976e-06
1.30798e-06
8.99538e-07
5.36168e-07
2.11395e-07
-8.00196e-08
-3.42385e-07
-5.79444e-07
-7.95556e-07
-9.94158e-07
-1.17804e-06
4.91908e-06
4.17837e-06
3.5348e-06
2.96994e-06
2.46921e-06
2.02142e-06
1.61808e-06
1.25262e-06
9.19712e-07
6.14725e-07
3.3331e-07
7.16965e-08
-1.71442e-07
-3.9817e-07
-6.10983e-07
5.28389e-06
4.61033e-06
4.01323e-06
3.47923e-06
2.9976e-06
2.5599e-06
2.15941e-06
1.79075e-06
1.44944e-06
1.13171e-06
8.34541e-07
5.5585e-07
2.9313e-07
4.45134e-08
-1.91848e-07
5.5502e-06
4.92901e-06
4.36847e-06
3.85899e-06
3.39272e-06
2.96324e-06
2.56523e-06
2.19429e-06
1.84679e-06
1.51975e-06
1.21073e-06
9.17606e-07
6.38477e-07
3.71707e-07
1.15753e-07
5.74248e-06
5.1622e-06
4.63075e-06
4.14111e-06
3.68746e-06
3.26482e-06
2.86892e-06
2.49617e-06
2.14361e-06
1.80876e-06
1.48952e-06
1.18401e-06
8.90816e-07
6.0861e-07
3.361e-07
5.87998e-06
5.3319e-06
4.82365e-06
4.34999e-06
3.9065e-06
3.48927e-06
3.09484e-06
2.72027e-06
2.36311e-06
2.0213e-06
1.6931e-06
1.3771e-06
1.07202e-06
7.76808e-07
4.90392e-07
5.97747e-06
5.45492e-06
4.96518e-06
4.5043e-06
4.06887e-06
3.65578e-06
3.26221e-06
2.88576e-06
2.52444e-06
2.17655e-06
1.84068e-06
1.51575e-06
1.20066e-06
8.94503e-07
5.96419e-07
6.0461e-06
5.54399e-06
5.06911e-06
4.61847e-06
4.18945e-06
3.7795e-06
3.38635e-06
3.00805e-06
2.64301e-06
2.28989e-06
1.94746e-06
1.6149e-06
1.29127e-06
9.75855e-07
6.67937e-07
6.09417e-06
5.60865e-06
5.14582e-06
4.70349e-06
4.2796e-06
3.87206e-06
3.47903e-06
3.09898e-06
2.73061e-06
2.37282e-06
2.02483e-06
1.68572e-06
1.35479e-06
1.0315e-06
7.1525e-07
6.12777e-06
5.65593e-06
5.20303e-06
4.76755e-06
4.3478e-06
3.94211e-06
3.54902e-06
3.16733e-06
2.79602e-06
2.43423e-06
2.0813e-06
1.73651e-06
1.3993e-06
1.06928e-06
7.45945e-07
6.15137e-06
5.69097e-06
5.2464e-06
4.81661e-06
4.40026e-06
3.99601e-06
3.60274e-06
3.21953e-06
2.84558e-06
2.48028e-06
2.12302e-06
1.77329e-06
1.43069e-06
1.09488e-06
7.65476e-07
6.16817e-06
5.71748e-06
5.27997e-06
4.85498e-06
4.44144e-06
4.03833e-06
3.64481e-06
3.2602e-06
2.88391e-06
2.51548e-06
2.15442e-06
1.8004e-06
1.45311e-06
1.11229e-06
7.77653e-07
6.1804e-06
5.73806e-06
5.30659e-06
4.88569e-06
4.4745e-06
4.0723e-06
3.6785e-06
3.2926e-06
2.91422e-06
2.54299e-06
2.1786e-06
1.82082e-06
1.46943e-06
1.12425e-06
7.85065e-07
6.18961e-06
5.7545e-06
5.32825e-06
4.91084e-06
4.50164e-06
4.10018e-06
3.70607e-06
3.31899e-06
2.93873e-06
2.56502e-06
2.19768e-06
1.83659e-06
1.48159e-06
1.13259e-06
7.89429e-07
6.19681e-06
5.76799e-06
5.34629e-06
4.93189e-06
4.52438e-06
4.12352e-06
3.72909e-06
3.34093e-06
2.95897e-06
2.58306e-06
2.2131e-06
1.84907e-06
1.49088e-06
1.13852e-06
7.91859e-07
6.20265e-06
5.77934e-06
5.36158e-06
4.94979e-06
4.54373e-06
4.14337e-06
3.74862e-06
3.35946e-06
2.97598e-06
2.59809e-06
2.2258e-06
1.85915e-06
1.49815e-06
1.14281e-06
7.93069e-07
6.20751e-06
5.78902e-06
5.3747e-06
4.96516e-06
4.56035e-06
4.16039e-06
3.76531e-06
3.37527e-06
2.99042e-06
2.61075e-06
2.23639e-06
1.86743e-06
1.50394e-06
1.14597e-06
7.93511e-07
6.21171e-06
5.79745e-06
5.38612e-06
4.97853e-06
4.57478e-06
4.17515e-06
3.77972e-06
3.38892e-06
3.00281e-06
2.62156e-06
2.24536e-06
1.87436e-06
1.50865e-06
1.14835e-06
7.93455e-07
6.21558e-06
5.80524e-06
5.39669e-06
4.99089e-06
4.5881e-06
4.18869e-06
3.79301e-06
3.40143e-06
3.01414e-06
2.63139e-06
2.25345e-06
1.88053e-06
1.51274e-06
1.15023e-06
7.93038e-07
6.2192e-06
5.81278e-06
5.4069e-06
5.00283e-06
4.60097e-06
4.20184e-06
3.80583e-06
3.41345e-06
3.02499e-06
2.64077e-06
2.26108e-06
1.88618e-06
1.51632e-06
1.15172e-06
7.92439e-07
-1.19649e-05
-9.71878e-06
-8.33759e-06
-7.41077e-06
-6.66717e-06
-6.09319e-06
-5.64359e-06
-5.28733e-06
-5.00393e-06
-4.77742e-06
-4.59511e-06
-4.4466e-06
-4.3233e-06
-4.21866e-06
-4.12849e-06
-4.05277e-06
-3.99692e-06
-3.97641e-06
-4.0184e-06
-4.16773e-06
-4.48056e-06
-5.01168e-06
-5.71025e-06
-6.3682e-06
-6.82955e-06
-7.01807e-06
-6.89693e-06
-6.45492e-06
-5.69287e-06
-4.61865e-06
-3.24619e-06
-1.59693e-06
2.98822e-07
2.40141e-06
4.66254e-06
7.02677e-06
9.43271e-06
1.18133e-05
1.40928e-05
1.61805e-05
1.79507e-05
1.92399e-05
1.96759e-05
1.89366e-05
1.58086e-05
-1.03461e-05
-9.18256e-06
-8.13761e-06
-7.31174e-06
-6.61375e-06
-6.05543e-06
-5.61148e-06
-5.25753e-06
-4.97546e-06
-4.75025e-06
-4.56944e-06
-4.42271e-06
-4.30147e-06
-4.19919e-06
-4.11174e-06
-4.03917e-06
-3.98689e-06
-3.97024e-06
-4.01593e-06
-4.16781e-06
-4.48041e-06
-5.00667e-06
-5.69567e-06
-6.34233e-06
-6.79353e-06
-6.97428e-06
-6.8479e-06
-6.40318e-06
-5.6411e-06
-4.57017e-06
-3.20547e-06
-1.57e-06
3.03934e-07
2.37422e-06
4.58943e-06
6.88985e-06
9.20791e-06
1.1467e-05
1.35762e-05
1.54184e-05
1.68181e-05
1.75043e-05
1.69478e-05
1.43947e-05
8.87241e-06
-9.49687e-06
-8.76368e-06
-7.92992e-06
-7.19524e-06
-6.54793e-06
-6.01125e-06
-5.57625e-06
-5.22615e-06
-4.94603e-06
-4.72227e-06
-4.54296e-06
-4.39794e-06
-4.27872e-06
-4.17884e-06
-4.09423e-06
-4.02502e-06
-3.97667e-06
-3.96432e-06
-4.01415e-06
-4.16888e-06
-4.48117e-06
-5.00173e-06
-5.67947e-06
-6.31284e-06
-6.75209e-06
-6.92369e-06
-6.79144e-06
-6.34413e-06
-5.58313e-06
-4.51783e-06
-3.16477e-06
-1.54903e-06
2.94534e-07
2.32064e-06
4.47386e-06
6.68908e-06
8.89122e-06
1.09928e-05
1.28867e-05
1.44323e-05
1.54253e-05
1.55601e-05
1.43614e-05
1.13075e-05
6.30368e-06
-8.95269e-06
-8.42046e-06
-7.74681e-06
-7.08503e-06
-6.48615e-06
-5.97242e-06
-5.54688e-06
-5.20019e-06
-4.92109e-06
-4.69771e-06
-4.51889e-06
-4.37476e-06
-4.25695e-06
-4.15905e-06
-4.07709e-06
-4.01123e-06
-3.96692e-06
-3.95912e-06
-4.01335e-06
-4.17108e-06
-4.4829e-06
-4.99698e-06
-5.66191e-06
-6.27996e-06
-6.70508e-06
-6.86546e-06
-6.72552e-06
-6.27432e-06
-5.51387e-06
-4.45481e-06
-3.11572e-06
-1.52431e-06
2.81245e-07
2.2517e-06
4.32674e-06
6.4351e-06
8.49364e-06
1.04045e-05
1.20481e-05
1.32716e-05
1.38708e-05
1.35781e-05
1.20697e-05
9.10366e-06
4.93213e-06
-8.52801e-06
-8.11647e-06
-7.56675e-06
-6.98846e-06
-6.4346e-06
-5.94373e-06
-5.52764e-06
-5.18332e-06
-4.90367e-06
-4.679e-06
-4.49911e-06
-4.35457e-06
-4.23719e-06
-4.14062e-06
-4.06096e-06
-3.99838e-06
-3.9583e-06
-3.95533e-06
-4.01435e-06
-4.17523e-06
-4.48626e-06
-4.99274e-06
-5.64286e-06
-6.24328e-06
-6.65217e-06
-6.79964e-06
-6.65102e-06
-6.19586e-06
-5.43713e-06
-4.38711e-06
-3.06681e-06
-1.50712e-06
2.49967e-07
2.15077e-06
4.12977e-06
6.1096e-06
8.0001e-06
9.69606e-06
1.10728e-05
1.19806e-05
1.2242e-05
1.16628e-05
1.00726e-05
7.42904e-06
4.00808e-06
-8.16924e-06
-7.84042e-06
-7.38658e-06
-6.89068e-06
-6.38974e-06
-5.92476e-06
-5.51983e-06
-5.17779e-06
-4.89654e-06
-4.66893e-06
-4.48618e-06
-4.33961e-06
-4.22132e-06
-4.12514e-06
-4.0472e-06
-3.98769e-06
-3.9519e-06
-3.95405e-06
-4.01811e-06
-4.1822e-06
-4.49195e-06
-4.98935e-06
-5.6222e-06
-6.20233e-06
-6.59266e-06
-6.72561e-06
-6.56765e-06
-6.10917e-06
-5.35441e-06
-4.3177e-06
-3.0229e-06
-1.50447e-06
1.91469e-07
2.00664e-06
3.87061e-06
5.70093e-06
7.40296e-06
8.86923e-06
9.97894e-06
1.06002e-05
1.05976e-05
9.85501e-06
8.31623e-06
6.04793e-06
3.30395e-06
-7.84153e-06
-7.5762e-06
-7.20728e-06
-6.7798e-06
-6.33682e-06
-5.90827e-06
-5.51895e-06
-5.18237e-06
-4.9004e-06
-4.66927e-06
-4.48235e-06
-4.33219e-06
-4.21157e-06
-4.11462e-06
-4.03762e-06
-3.98076e-06
-3.94919e-06
-3.95659e-06
-4.02585e-06
-4.19302e-06
-4.50074e-06
-4.98725e-06
-5.59992e-06
-6.15668e-06
-6.52588e-06
-6.64256e-06
-6.47478e-06
-6.01407e-06
-5.26638e-06
-4.24848e-06
-2.98744e-06
-1.52156e-06
9.88442e-08
1.81124e-06
3.54123e-06
5.2034e-06
6.70237e-06
7.93466e-06
8.79211e-06
9.16956e-06
8.97756e-06
8.16467e-06
6.7443e-06
4.82175e-06
2.60383e-06
-7.52461e-06
-7.30964e-06
-7.01194e-06
-6.65418e-06
-6.2677e-06
-5.88018e-06
-5.51635e-06
-5.19137e-06
-4.91222e-06
-4.67902e-06
-4.48799e-06
-4.33352e-06
-4.20955e-06
-4.11085e-06
-4.03404e-06
-3.97938e-06
-3.95186e-06
-3.96451e-06
-4.03897e-06
-4.20889e-06
-4.51355e-06
-4.9869e-06
-5.57598e-06
-6.10592e-06
-6.45119e-06
-6.54992e-06
-6.37214e-06
-5.911e-06
-5.17461e-06
-4.18251e-06
-2.96526e-06
-1.565e-06
-3.58993e-08
1.55615e-06
3.1346e-06
4.61403e-06
5.90287e-06
6.90752e-06
7.53869e-06
7.72098e-06
7.40563e-06
6.58575e-06
5.30893e-06
3.68243e-06
1.86416e-06
-7.2083e-06
-7.03422e-06
-6.79514e-06
-6.50149e-06
-6.17293e-06
-5.83223e-06
-5.50102e-06
-5.19533e-06
-4.92494e-06
-4.69357e-06
-4.50054e-06
-4.34261e-06
-4.21535e-06
-4.11462e-06
-4.03767e-06
-3.98499e-06
-3.96146e-06
-3.97937e-06
-4.05895e-06
-4.23107e-06
-4.53129e-06
-4.98881e-06
-5.55038e-06
-6.04969e-06
-6.3682e-06
-6.44753e-06
-6.26018e-06
-5.80148e-06
-5.08208e-06
-4.12461e-06
-2.96306e-06
-1.64312e-06
-2.21934e-07
1.23284e-06
2.64495e-06
3.93255e-06
5.01224e-06
5.80476e-06
6.24227e-06
6.27709e-06
5.89106e-06
5.10308e-06
3.97203e-06
2.59217e-06
1.08083e-06
-6.88606e-06
-6.74627e-06
-6.55573e-06
-6.31851e-06
-6.04602e-06
-5.75471e-06
-5.46205e-06
-5.18307e-06
-4.92867e-06
-4.70505e-06
-4.51431e-06
-4.35572e-06
-4.22685e-06
-4.12504e-06
-4.04849e-06
-3.99817e-06
-3.97894e-06
-4.00232e-06
-4.08694e-06
-4.26058e-06
-4.55472e-06
-4.99334e-06
-5.52309e-06
-5.98781e-06
-6.27691e-06
-6.33595e-06
-6.14046e-06
-5.68846e-06
-4.99355e-06
-4.08148e-06
-2.98939e-06
-1.76563e-06
-4.68902e-07
8.33518e-07
2.06864e-06
3.16161e-06
4.04064e-06
4.64298e-06
4.92143e-06
4.85066e-06
4.43238e-06
3.69727e-06
2.7029e-06
1.52636e-06
2.5403e-07
-6.552e-06
-6.44206e-06
-6.29252e-06
-6.10438e-06
-5.88371e-06
-5.64142e-06
-5.39071e-06
-5.14437e-06
-4.91297e-06
-4.70391e-06
-4.52133e-06
-4.3667e-06
-4.23965e-06
-4.13921e-06
-4.06482e-06
-4.01816e-06
-4.00418e-06
-4.03361e-06
-4.12336e-06
-4.29784e-06
-4.58413e-06
-5.00062e-06
-5.49414e-06
-5.92046e-06
-6.1781e-06
-6.21703e-06
-6.01621e-06
-5.57692e-06
-4.916e-06
-4.06206e-06
-3.05454e-06
-1.94313e-06
-7.86149e-07
3.5207e-07
1.40467e-06
2.30658e-06
2.99946e-06
3.43683e-06
3.58898e-06
3.44642e-06
3.02171e-06
2.34836e-06
1.47687e-06
4.67838e-07
-6.15179e-07
-6.20001e-06
-6.11708e-06
-6.00312e-06
-5.85783e-06
-5.6841e-06
-5.48874e-06
-5.28111e-06
-5.07134e-06
-4.86872e-06
-4.68081e-06
-4.51284e-06
-4.36795e-06
-4.24758e-06
-4.15243e-06
-4.08329e-06
-4.04266e-06
-4.03568e-06
-4.07231e-06
-4.16758e-06
-4.34236e-06
-4.61909e-06
-5.01045e-06
-5.46381e-06
-5.84864e-06
-6.07395e-06
-6.09455e-06
-5.89301e-06
-5.47446e-06
-4.859e-06
-4.07741e-06
-3.17014e-06
-2.18634e-06
-1.18169e-06
-2.15079e-07
6.55108e-07
1.37519e-06
1.90035e-06
2.19842e-06
2.25282e-06
2.06389e-06
1.64864e-06
1.03836e-06
2.74724e-07
-5.9575e-07
-1.52618e-06
-5.82391e-06
-5.7662e-06
-5.68406e-06
-5.57676e-06
-5.44545e-06
-5.29415e-06
-5.12922e-06
-4.9582e-06
-4.78872e-06
-4.62767e-06
-4.48062e-06
-4.35172e-06
-4.24377e-06
-4.15893e-06
-4.09922e-06
-4.06801e-06
-4.07061e-06
-4.11622e-06
-4.2178e-06
-4.39267e-06
-4.65848e-06
-5.02242e-06
-5.43297e-06
-5.7748e-06
-5.96883e-06
-5.97504e-06
-5.77944e-06
-5.39157e-06
-4.83462e-06
-4.14025e-06
-3.34812e-06
-2.50474e-06
-1.66085e-06
-8.67902e-07
-1.74428e-07
3.77477e-07
7.55208e-07
9.37968e-07
9.17976e-07
7.00664e-07
3.03451e-07
-2.46853e-07
-9.17277e-07
-1.67265e-06
-2.47833e-06
-5.41742e-06
-5.38395e-06
-5.33114e-06
-5.25827e-06
-5.16563e-06
-5.05553e-06
-4.9321e-06
-4.80076e-06
-4.66742e-06
-4.53794e-06
-4.41758e-06
-4.3109e-06
-4.22151e-06
-4.15266e-06
-4.10738e-06
-4.08979e-06
-4.1052e-06
-4.16218e-06
-4.2713e-06
-4.44654e-06
-4.70067e-06
-5.03615e-06
-5.40342e-06
-5.70346e-06
-5.87028e-06
-5.86847e-06
-5.68723e-06
-5.34147e-06
-4.85674e-06
-4.26372e-06
-3.59916e-06
-2.90486e-06
-2.22483e-06
-1.60186e-06
-1.07443e-06
-6.74049e-07
-4.23362e-07
-3.34764e-07
-4.10976e-07
-6.44715e-07
-1.02036e-06
-1.51626e-06
-2.1071e-06
-2.76665e-06
-3.46933e-06
-4.97353e-06
-4.96412e-06
-4.9393e-06
-4.89859e-06
-4.84194e-06
-4.77064e-06
-4.68739e-06
-4.59595e-06
-4.50075e-06
-4.40652e-06
-4.31787e-06
-4.23924e-06
-4.17457e-06
-4.12773e-06
-4.10238e-06
-4.10314e-06
-4.1352e-06
-4.20632e-06
-4.32487e-06
-4.50159e-06
-4.74429e-06
-5.05191e-06
-5.37834e-06
-5.6417e-06
-5.78962e-06
-5.7875e-06
-5.63018e-06
-5.3389e-06
-4.93951e-06
-4.45941e-06
-3.93058e-06
-3.38853e-06
-2.86951e-06
-2.40745e-06
-2.03152e-06
-1.76438e-06
-1.62116e-06
-1.60912e-06
-1.72808e-06
-1.97089e-06
-2.32476e-06
-2.773e-06
-3.29673e-06
-3.87663e-06
-4.4939e-06
-4.48461e-06
-4.49994e-06
-4.50292e-06
-4.49333e-06
-4.47114e-06
-4.43712e-06
-4.39305e-06
-4.34156e-06
-4.28592e-06
-4.22979e-06
-4.17706e-06
-4.13168e-06
-4.09756e-06
-4.07864e-06
-4.07899e-06
-4.10305e-06
-4.15616e-06
-4.24436e-06
-4.3752e-06
-4.55553e-06
-4.78921e-06
-5.07164e-06
-5.36367e-06
-5.60074e-06
-5.73982e-06
-5.74402e-06
-5.62304e-06
-5.39958e-06
-5.09629e-06
-4.73607e-06
-4.3452e-06
-3.95223e-06
-3.58554e-06
-3.27087e-06
-3.02952e-06
-2.87723e-06
-2.82381e-06
-2.87369e-06
-3.02557e-06
-3.27337e-06
-3.60729e-06
-4.01503e-06
-4.48287e-06
-4.99684e-06
-5.54322e-06
-3.94444e-06
-3.98594e-06
-4.01744e-06
-4.03903e-06
-4.05085e-06
-4.05348e-06
-4.0482e-06
-4.03687e-06
-4.02192e-06
-4.00617e-06
-3.99276e-06
-3.98505e-06
-3.98664e-06
-4.00116e-06
-4.03267e-06
-4.08519e-06
-4.16375e-06
-4.27294e-06
-4.4193e-06
-4.60662e-06
-4.83631e-06
-5.10219e-06
-5.37128e-06
-5.59119e-06
-5.72333e-06
-5.7501e-06
-5.68228e-06
-5.53884e-06
-5.33799e-06
-5.09857e-06
-4.84131e-06
-4.58805e-06
-4.35999e-06
-4.17594e-06
-4.05111e-06
-3.99614e-06
-4.01715e-06
-4.1172e-06
-4.29499e-06
-4.5459e-06
-4.86283e-06
-5.23707e-06
-5.659e-06
-6.11871e-06
-6.60635e-06
-3.35061e-06
-3.42051e-06
-3.48215e-06
-3.53592e-06
-3.58223e-06
-3.62173e-06
-3.65543e-06
-3.68474e-06
-3.7115e-06
-3.73789e-06
-3.76642e-06
-3.79988e-06
-3.84131e-06
-3.89396e-06
-3.96136e-06
-4.04721e-06
-4.15553e-06
-4.29044e-06
-4.45599e-06
-4.65499e-06
-4.88717e-06
-5.14767e-06
-5.40468e-06
-5.61456e-06
-5.75523e-06
-5.82177e-06
-5.82077e-06
-5.76468e-06
-5.66739e-06
-5.54399e-06
-5.41048e-06
-5.28296e-06
-5.1766e-06
-5.10467e-06
-5.07778e-06
-5.1034e-06
-5.1859e-06
-5.32709e-06
-5.52597e-06
-5.77938e-06
-6.08261e-06
-6.42985e-06
-6.8146e-06
-7.23002e-06
-7.6692e-06
-2.70152e-06
-2.80286e-06
-2.89734e-06
-2.98551e-06
-3.06804e-06
-3.14573e-06
-3.21952e-06
-3.29057e-06
-3.36032e-06
-3.4305e-06
-3.5031e-06
-3.58038e-06
-3.66485e-06
-3.75922e-06
-3.86642e-06
-3.98952e-06
-4.13173e-06
-4.2962e-06
-4.48564e-06
-4.70185e-06
-4.94435e-06
-5.20869e-06
-5.46669e-06
-5.68461e-06
-5.85241e-06
-5.9702e-06
-6.04147e-06
-6.07326e-06
-6.07532e-06
-6.05901e-06
-6.03622e-06
-6.01849e-06
-6.01629e-06
-6.03854e-06
-6.09242e-06
-6.18363e-06
-6.31607e-06
-6.49044e-06
-6.70619e-06
-6.96158e-06
-7.25387e-06
-7.57943e-06
-7.9341e-06
-8.31333e-06
-8.71237e-06
-2.00658e-06
-2.14137e-06
-2.27079e-06
-2.39536e-06
-2.51591e-06
-2.63335e-06
-2.7486e-06
-2.86268e-06
-2.97677e-06
-3.09222e-06
-3.21063e-06
-3.33378e-06
-3.46365e-06
-3.60242e-06
-3.75236e-06
-3.91587e-06
-4.09538e-06
-4.29318e-06
-4.51121e-06
-4.75067e-06
-5.0113e-06
-5.29024e-06
-5.56483e-06
-5.80923e-06
-6.01796e-06
-6.19227e-06
-6.33439e-06
-6.44854e-06
-6.54111e-06
-6.61993e-06
-6.69327e-06
-6.7691e-06
-6.85458e-06
-6.9558e-06
-7.07752e-06
-7.22302e-06
-7.39489e-06
-7.59497e-06
-7.82376e-06
-8.08063e-06
-8.36415e-06
-8.67228e-06
-9.00252e-06
-9.35206e-06
-9.71779e-06
-1.35248e-06
-1.52157e-06
-1.6863e-06
-1.84726e-06
-2.00535e-06
-2.16151e-06
-2.31662e-06
-2.4716e-06
-2.62743e-06
-2.78523e-06
-2.94629e-06
-3.11205e-06
-3.28406e-06
-3.46403e-06
-3.65374e-06
-3.85502e-06
-4.06973e-06
-4.2996e-06
-4.54618e-06
-4.81059e-06
-5.09328e-06
-5.39378e-06
-5.69434e-06
-5.97254e-06
-6.22347e-06
-6.44856e-06
-6.64975e-06
-6.8301e-06
-6.99396e-06
-7.14657e-06
-7.29349e-06
-7.44008e-06
-7.59113e-06
-7.75068e-06
-7.92216e-06
-8.10851e-06
-8.31199e-06
-8.53383e-06
-8.77464e-06
-9.0345e-06
-9.31293e-06
-9.60901e-06
-9.92144e-06
-1.02486e-05
-1.05886e-05
-8.15015e-07
-1.01452e-06
-1.21059e-06
-1.40375e-06
-1.59479e-06
-1.78455e-06
-1.97386e-06
-2.16353e-06
-2.3544e-06
-2.54745e-06
-2.74373e-06
-2.94442e-06
-3.15081e-06
-3.36425e-06
-3.58619e-06
-3.8181e-06
-4.06148e-06
-4.31783e-06
-4.58855e-06
-4.87496e-06
-5.17826e-06
-5.49963e-06
-5.82373e-06
-6.12954e-06
-6.41247e-06
-6.67417e-06
-6.9166e-06
-7.14234e-06
-7.35464e-06
-7.55719e-06
-7.75384e-06
-7.9483e-06
-8.14397e-06
-8.34392e-06
-8.55093e-06
-8.76731e-06
-8.99461e-06
-9.23382e-06
-9.4856e-06
-9.75028e-06
-1.00279e-05
-1.03181e-05
-1.06203e-05
-1.09336e-05
-1.12571e-05
-4.20279e-07
-6.447e-07
-8.66237e-07
-1.08542e-06
-1.30294e-06
-1.51954e-06
-1.73592e-06
-1.95278e-06
-2.17086e-06
-2.39099e-06
-2.61408e-06
-2.84111e-06
-3.07316e-06
-3.31137e-06
-3.55694e-06
-3.81113e-06
-4.07526e-06
-4.35069e-06
-4.63883e-06
-4.94116e-06
-5.25928e-06
-5.59495e-06
-5.93422e-06
-6.25742e-06
-6.56047e-06
-6.84523e-06
-7.11371e-06
-7.36821e-06
-7.61131e-06
-7.8458e-06
-8.07448e-06
-8.30008e-06
-8.52514e-06
-8.75198e-06
-8.98263e-06
-9.21875e-06
-9.46175e-06
-9.71262e-06
-9.97207e-06
-1.02406e-05
-1.05183e-05
-1.08053e-05
-1.11014e-05
-1.14061e-05
-1.17188e-05
-1.33098e-07
-3.78349e-07
-6.21036e-07
-8.61634e-07
-1.10076e-06
-1.33903e-06
-1.57704e-06
-1.81539e-06
-2.05472e-06
-2.29573e-06
-2.53922e-06
-2.78603e-06
-3.03709e-06
-3.29335e-06
-3.55589e-06
-3.8258e-06
-4.10429e-06
-4.39261e-06
-4.69218e-06
-5.0045e-06
-5.33126e-06
-5.67432e-06
-6.02088e-06
-6.35298e-06
-6.66713e-06
-6.96534e-06
-7.24956e-06
-7.52182e-06
-7.78426e-06
-8.03908e-06
-8.28843e-06
-8.53438e-06
-8.77888e-06
-9.02368e-06
-9.27035e-06
-9.52027e-06
-9.77466e-06
-1.00344e-05
-1.03003e-05
-1.05727e-05
-1.08521e-05
-1.11385e-05
-1.14319e-05
-1.17322e-05
-1.20391e-05
7.00772e-08
-1.92556e-07
-4.52733e-07
-7.10876e-07
-9.67513e-07
-1.22316e-06
-1.47832e-06
-1.73349e-06
-1.98924e-06
-2.24618e-06
-2.50499e-06
-2.7664e-06
-3.03122e-06
-3.3003e-06
-3.57457e-06
-3.85503e-06
-4.14278e-06
-4.43899e-06
-4.745e-06
-5.06224e-06
-5.39238e-06
-5.73717e-06
-6.08503e-06
-6.41991e-06
-6.73891e-06
-7.04402e-06
-7.33703e-06
-7.61972e-06
-7.89392e-06
-8.16141e-06
-8.42392e-06
-8.68311e-06
-8.9405e-06
-9.19752e-06
-9.45538e-06
-9.71522e-06
-9.97815e-06
-1.0245e-05
-1.05164e-05
-1.07928e-05
-1.10746e-05
-1.1362e-05
-1.16551e-05
-1.19539e-05
-1.22583e-05
2.10019e-07
-6.70192e-08
-3.4156e-07
-6.13979e-07
-8.84723e-07
-1.15422e-06
-1.42288e-06
-1.69113e-06
-1.95947e-06
-2.22842e-06
-2.49859e-06
-2.77062e-06
-3.04522e-06
-3.32313e-06
-3.6052e-06
-3.89232e-06
-4.18551e-06
-4.48582e-06
-4.79452e-06
-5.11293e-06
-5.44262e-06
-5.78519e-06
-6.13031e-06
-6.46392e-06
-6.78364e-06
-7.09126e-06
-7.38839e-06
-7.67662e-06
-7.95751e-06
-8.23258e-06
-8.50328e-06
-8.77094e-06
-9.03684e-06
-9.30217e-06
-9.56802e-06
-9.8351e-06
-1.01046e-05
-1.03771e-05
-1.06532e-05
-1.09334e-05
-1.12182e-05
-1.15076e-05
-1.18019e-05
-1.21011e-05
-1.24052e-05
3.04057e-07
1.50743e-08
-2.71269e-07
-5.55307e-07
-8.37413e-07
-1.11793e-06
-1.3972e-06
-1.6756e-06
-1.95355e-06
-2.23153e-06
-2.51007e-06
-2.78972e-06
-3.07113e-06
-3.35495e-06
-3.64195e-06
-3.93293e-06
-4.22881e-06
-4.53057e-06
-4.83937e-06
-5.1564e-06
-5.48312e-06
-5.82098e-06
-6.16089e-06
-6.49072e-06
-6.80849e-06
-7.11575e-06
-7.41392e-06
-7.70444e-06
-7.98869e-06
-8.26799e-06
-8.54356e-06
-8.81654e-06
-9.08798e-06
-9.35885e-06
-9.63008e-06
-9.90286e-06
-1.01775e-05
-1.04546e-05
-1.07348e-05
-1.10187e-05
-1.13065e-05
-1.15986e-05
-1.1895e-05
-1.2196e-05
-1.25015e-05
3.65517e-07
6.65951e-08
-2.29481e-07
-5.23005e-07
-8.14281e-07
-1.10359e-06
-1.39121e-06
-1.67748e-06
-1.96278e-06
-2.24752e-06
-2.53218e-06
-2.81724e-06
-3.10329e-06
-3.39092e-06
-3.68082e-06
-3.97371e-06
-4.27043e-06
-4.57187e-06
-4.87909e-06
-5.19316e-06
-5.51545e-06
-5.84719e-06
-6.18052e-06
-6.50514e-06
-6.81934e-06
-7.12445e-06
-7.42172e-06
-7.71247e-06
-7.99794e-06
-8.27929e-06
-8.55756e-06
-8.83375e-06
-9.10879e-06
-9.38352e-06
-9.65879e-06
-9.93549e-06
-1.0214e-05
-1.04949e-05
-1.07788e-05
-1.1066e-05
-1.13571e-05
-1.16521e-05
-1.19514e-05
-1.22549e-05
-1.25629e-05
4.04357e-07
9.71287e-08
-2.07008e-07
-5.0831e-07
-8.0702e-07
-1.10336e-06
-1.39759e-06
-1.69e-06
-1.98092e-06
-2.27073e-06
-2.55984e-06
-2.84872e-06
-3.13788e-06
-3.42784e-06
-3.71925e-06
-4.01275e-06
-4.30912e-06
-4.60914e-06
-4.9138e-06
-5.22403e-06
-5.54113e-06
-5.86614e-06
-6.19231e-06
-6.51101e-06
-6.82078e-06
-7.1227e-06
-7.41793e-06
-7.70768e-06
-7.99305e-06
-8.27505e-06
-8.55463e-06
-8.83266e-06
-9.10997e-06
-9.38734e-06
-9.66546e-06
-9.94511e-06
-1.02267e-05
-1.05108e-05
-1.07978e-05
-1.10883e-05
-1.13824e-05
-1.16806e-05
-1.19829e-05
-1.22896e-05
-1.26006e-05
4.27879e-07
1.13669e-07
-1.97186e-07
-5.04906e-07
-8.09682e-07
-1.1117e-06
-1.41119e-06
-1.70841e-06
-2.00367e-06
-2.29731e-06
-2.58969e-06
-2.88125e-06
-3.17243e-06
-3.46374e-06
-3.75575e-06
-4.04905e-06
-4.34434e-06
-4.64233e-06
-4.94392e-06
-5.24995e-06
-5.5616e-06
-5.87974e-06
-6.19868e-06
-6.51128e-06
-6.81625e-06
-7.11449e-06
-7.40709e-06
-7.69514e-06
-7.97963e-06
-8.26146e-06
-8.54146e-06
-8.82044e-06
-9.09911e-06
-9.37819e-06
-9.65844e-06
-9.94039e-06
-1.02245e-05
-1.05112e-05
-1.0801e-05
-1.10944e-05
-1.13915e-05
-1.16928e-05
-1.19983e-05
-1.23082e-05
-1.26227e-05
4.41297e-07
1.21175e-07
-1.95325e-07
-5.08387e-07
-8.18162e-07
-1.12481e-06
-1.42855e-06
-1.7296e-06
-2.02824e-06
-2.3248e-06
-2.6196e-06
-2.91304e-06
-3.20553e-06
-3.49754e-06
-3.78957e-06
-4.08219e-06
-4.37601e-06
-4.67169e-06
-4.97004e-06
-5.2718e-06
-5.57807e-06
-5.88954e-06
-6.20149e-06
-6.50812e-06
-6.80825e-06
-7.10268e-06
-7.39242e-06
-7.67843e-06
-7.96161e-06
-8.24278e-06
-8.52268e-06
-8.80204e-06
-9.08153e-06
-9.36175e-06
-9.64353e-06
-9.92728e-06
-1.02134e-05
-1.05024e-05
-1.07947e-05
-1.10906e-05
-1.13906e-05
-1.16948e-05
-1.20035e-05
-1.23167e-05
-1.26346e-05
4.48224e-07
1.23054e-07
-1.98234e-07
-5.15788e-07
-8.2973e-07
-1.14021e-06
-1.44741e-06
-1.75155e-06
-2.05289e-06
-2.35171e-06
-2.64833e-06
-2.94311e-06
-3.23643e-06
-3.52872e-06
-3.82045e-06
-4.11213e-06
-4.40432e-06
-4.69762e-06
-4.99276e-06
-5.29039e-06
-5.59152e-06
-5.89671e-06
-6.20212e-06
-6.50307e-06
-6.79854e-06
-7.08924e-06
-7.37609e-06
-7.65996e-06
-7.94164e-06
-8.22189e-06
-8.50138e-06
-8.78079e-06
-9.06072e-06
-9.34172e-06
-9.62459e-06
-9.90979e-06
-1.01976e-05
-1.04885e-05
-1.07829e-05
-1.10812e-05
-1.13838e-05
-1.16908e-05
-1.20025e-05
-1.23189e-05
-1.26402e-05
4.51093e-07
1.21574e-07
-2.03812e-07
-5.25185e-07
-8.42647e-07
-1.15633e-06
-1.46641e-06
-1.7731e-06
-2.07661e-06
-2.37723e-06
-2.67525e-06
-2.971e-06
-3.26484e-06
-3.55716e-06
-3.84841e-06
-4.13904e-06
-4.42958e-06
-4.72056e-06
-5.01263e-06
-5.30638e-06
-5.60274e-06
-5.90213e-06
-6.2015e-06
-6.49718e-06
-6.78829e-06
-7.07545e-06
-7.35952e-06
-7.64127e-06
-7.9214e-06
-8.20061e-06
-8.47953e-06
-8.75879e-06
-9.03889e-06
-9.32041e-06
-9.60412e-06
-9.89051e-06
-1.01797e-05
-1.04722e-05
-1.07685e-05
-1.1069e-05
-1.13738e-05
-1.16834e-05
-1.19979e-05
-1.23173e-05
-1.26419e-05
4.51496e-07
1.182e-07
-2.10728e-07
-5.35381e-07
-8.55849e-07
-1.17226e-06
-1.48477e-06
-1.79357e-06
-2.09888e-06
-2.40096e-06
-2.70008e-06
-2.99655e-06
-3.29071e-06
-3.58293e-06
-3.87362e-06
-4.16318e-06
-4.45212e-06
-4.7409e-06
-5.03013e-06
-5.32031e-06
-5.61229e-06
-5.90639e-06
-6.20026e-06
-6.49112e-06
-6.7782e-06
-7.06209e-06
-7.34356e-06
-7.62327e-06
-7.9019e-06
-8.18005e-06
-8.45833e-06
-8.73733e-06
-9.01751e-06
-9.29923e-06
-9.5837e-06
-9.87105e-06
-1.01614e-05
-1.04553e-05
-1.07532e-05
-1.10555e-05
-1.13625e-05
-1.16744e-05
-1.19914e-05
-1.23136e-05
-1.26412e-05
4.50451e-07
1.13851e-07
-2.1816e-07
-5.45658e-07
-8.68724e-07
-1.18747e-06
-1.50206e-06
-1.81266e-06
-2.11948e-06
-2.42276e-06
-2.72277e-06
-3.01979e-06
-3.31415e-06
-3.60619e-06
-3.89629e-06
-4.18483e-06
-4.47226e-06
-4.75901e-06
-5.04563e-06
-5.33256e-06
-5.62056e-06
-5.90989e-06
-6.19878e-06
-6.48526e-06
-6.76869e-06
-7.0496e-06
-7.32866e-06
-7.60648e-06
-7.88367e-06
-8.1608e-06
-8.43842e-06
-8.71711e-06
-8.99716e-06
-9.27908e-06
-9.56425e-06
-9.85231e-06
-1.01435e-05
-1.04387e-05
-1.0738e-05
-1.1042e-05
-1.13508e-05
-1.16648e-05
-1.19841e-05
-1.23088e-05
-1.26391e-05
4.48601e-07
1.091e-07
-2.2561e-07
-5.55591e-07
-8.80916e-07
-1.20169e-06
-1.51807e-06
-1.83021e-06
-2.13831e-06
-2.44261e-06
-2.74335e-06
-3.04081e-06
-3.33529e-06
-3.62711e-06
-3.91663e-06
-4.20421e-06
-4.49025e-06
-4.77515e-06
-5.05941e-06
-5.3434e-06
-5.62784e-06
-5.91287e-06
-6.1973e-06
-6.47984e-06
-6.75997e-06
-7.03817e-06
-7.31504e-06
-7.59114e-06
-7.867e-06
-8.14315e-06
-8.42012e-06
-8.69847e-06
-8.97825e-06
-9.26053e-06
-9.54616e-06
-9.83473e-06
-1.01268e-05
-1.04229e-05
-1.07235e-05
-1.10289e-05
-1.13394e-05
-1.16552e-05
-1.19765e-05
-1.23035e-05
-1.26363e-05
4.46349e-07
1.043e-07
-2.32773e-07
-5.64923e-07
-8.92216e-07
-1.21476e-06
-1.53268e-06
-1.84615e-06
-2.15535e-06
-2.4605e-06
-2.76185e-06
-3.05966e-06
-3.35421e-06
-3.64581e-06
-3.93479e-06
-4.22148e-06
-4.50627e-06
-4.7895e-06
-5.07164e-06
-5.35302e-06
-5.63427e-06
-5.91548e-06
-6.19592e-06
-6.47493e-06
-6.75213e-06
-7.0279e-06
-7.30281e-06
-7.57734e-06
-7.85198e-06
-8.12724e-06
-8.40359e-06
-8.68154e-06
-8.96118e-06
-9.24372e-06
-9.5296e-06
-9.81863e-06
-1.01114e-05
-1.04084e-05
-1.07101e-05
-1.10167e-05
-1.13286e-05
-1.1646e-05
-1.19692e-05
-1.22982e-05
-1.26332e-05
4.43891e-07
9.95837e-08
-2.39575e-07
-5.73633e-07
-9.02653e-07
-1.22673e-06
-1.546e-06
-1.86062e-06
-2.17077e-06
-2.47666e-06
-2.77853e-06
-3.07662e-06
-3.37121e-06
-3.66259e-06
-3.95106e-06
-4.23695e-06
-4.5206e-06
-4.80234e-06
-5.08258e-06
-5.36163e-06
-5.64004e-06
-5.91784e-06
-6.19468e-06
-6.47053e-06
-6.7451e-06
-7.01872e-06
-7.29186e-06
-7.56497e-06
-7.83852e-06
-8.11296e-06
-8.38874e-06