/*--------------------------------*- C++ -*----------------------------------*\
| =========                 |                                                 |
| \\      /  F ield         | OpenFOAM: The Open Source CFD Toolbox           |
|  \\    /   O peration     | Version:  2312                                  |
|   \\  /    A nd           | Website:  www.openfoam.com                      |
|    \\/     M anipulation  |                                                 |
\*---------------------------------------------------------------------------*/
FoamFile
{
    version     2.0;
    format      ascii;
    arch        "LSB;label=32;scalar=64";
    class       volScalarField;
    location    "176.25";
    object      p;
}
// * * * * * * * * * * * * * * * * * * * * * * * * * * * * * * * * * * * * * //

dimensions      [0 2 -2 0 0 0 0];

internalField   nonuniform List<scalar> 
4800
(
-4.30027e-13
-1.56589e-06
-2.82577e-06
-3.85535e-06
-4.70859e-06
-5.42534e-06
-6.03177e-06
-6.55704e-06
-7.01725e-06
-7.42218e-06
-7.78289e-06
-8.10339e-06
-8.37934e-06
-8.8407e-06
-1.04114e-05
1.92573e-08
-1.5439e-06
-2.80236e-06
-3.83158e-06
-4.68525e-06
-5.40362e-06
-6.01279e-06
-6.54234e-06
-7.00869e-06
-7.42308e-06
-7.80164e-06
-8.16161e-06
-8.51833e-06
-8.97859e-06
-9.78354e-06
3.95232e-08
-1.52069e-06
-2.7777e-06
-3.80662e-06
-4.66093e-06
-5.38085e-06
-5.99251e-06
-6.52427e-06
-6.99546e-06
-7.41697e-06
-7.80573e-06
-8.18028e-06
-8.55001e-06
-8.92558e-06
-9.2878e-06
5.99908e-08
-1.49679e-06
-2.75195e-06
-3.7802e-06
-4.63472e-06
-5.35554e-06
-5.96959e-06
-6.5014e-06
-6.9744e-06
-7.39779e-06
-7.78468e-06
-8.14593e-06
-8.47538e-06
-8.74489e-06
-8.88949e-06
8.22536e-08
-1.47037e-06
-2.72311e-06
-3.75014e-06
-4.60425e-06
-5.32504e-06
-5.94012e-06
-6.47105e-06
-6.94096e-06
-7.35917e-06
-7.73203e-06
-8.06123e-06
-8.33021e-06
-8.50343e-06
-8.52947e-06
1.07697e-07
-1.43999e-06
-2.68961e-06
-3.7147e-06
-4.56752e-06
-5.287e-06
-5.90036e-06
-6.42866e-06
-6.89041e-06
-7.29475e-06
-7.6424e-06
-7.92829e-06
-8.13399e-06
-8.23232e-06
-8.19728e-06
1.38373e-07
-1.4036e-06
-2.64929e-06
-3.67148e-06
-4.52171e-06
-5.23806e-06
-5.84688e-06
-6.36799e-06
-6.81653e-06
-7.19882e-06
-7.51289e-06
-7.75143e-06
-7.90069e-06
-7.94717e-06
-7.88488e-06
1.77966e-07
-1.35764e-06
-2.59846e-06
-3.61649e-06
-4.46237e-06
-5.17309e-06
-5.77393e-06
-6.28287e-06
-6.71233e-06
-7.06655e-06
-7.34324e-06
-7.53709e-06
-7.64188e-06
-7.65609e-06
-7.58503e-06
2.32353e-07
-1.29631e-06
-2.53119e-06
-3.54349e-06
-4.38282e-06
-5.08489e-06
-5.67382e-06
-6.16585e-06
-6.57145e-06
-6.89454e-06
-7.13478e-06
-7.29122e-06
-7.3648e-06
-7.36185e-06
-7.29246e-06
3.09667e-07
-1.21139e-06
-2.43899e-06
-3.44367e-06
-4.27388e-06
-4.96401e-06
-5.53719e-06
-6.00854e-06
-6.38781e-06
-6.68018e-06
-6.88875e-06
-7.01729e-06
-7.07196e-06
-7.06309e-06
-7.00187e-06
4.19708e-07
-1.09241e-06
-2.31085e-06
-3.30556e-06
-4.12384e-06
-4.79893e-06
-5.3533e-06
-5.80192e-06
-6.15513e-06
-6.42059e-06
-6.60477e-06
-6.71535e-06
-6.76154e-06
-6.75502e-06
-6.70641e-06
5.73141e-07
-9.27348e-07
-2.13379e-06
-3.1156e-06
-3.91908e-06
-4.57659e-06
-5.11056e-06
-5.53671e-06
-5.86698e-06
-6.11153e-06
-6.27971e-06
-6.38163e-06
-6.42781e-06
-6.42978e-06
-6.39697e-06
7.81406e-07
-7.028e-07
-1.89317e-06
-2.85857e-06
-3.64452e-06
-4.28294e-06
-4.79675e-06
-5.20301e-06
-5.51548e-06
-5.74638e-06
-5.90697e-06
-6.00844e-06
-6.06139e-06
-6.0765e-06
-6.06196e-06
1.05708e-06
-4.03519e-07
-1.5723e-06
-2.51724e-06
-3.28335e-06
-3.90248e-06
-4.39825e-06
-4.78906e-06
-5.09014e-06
-5.31498e-06
-5.47571e-06
-5.58371e-06
-5.64896e-06
-5.68096e-06
-5.68681e-06
1.41349e-06
-1.26696e-08
-1.15246e-06
-2.07222e-06
-2.81646e-06
-3.41715e-06
-3.8984e-06
-4.27936e-06
-4.57591e-06
-4.80194e-06
-4.96962e-06
-5.08984e-06
-5.17193e-06
-5.22419e-06
-5.25267e-06
1.86319e-06
4.8656e-07
-6.14446e-07
-1.50325e-06
-2.22346e-06
-2.80681e-06
-3.27739e-06
-3.65425e-06
-3.95292e-06
-4.1867e-06
-4.36709e-06
-4.50432e-06
-4.60699e-06
-4.6825e-06
-4.73607e-06
2.41549e-06
1.10807e-06
5.846e-08
-7.92181e-07
-1.48544e-06
-2.05192e-06
-2.5148e-06
-2.89219e-06
-3.19856e-06
-3.44601e-06
-3.6447e-06
-3.80357e-06
-3.93007e-06
-4.03168e-06
-4.1131e-06
3.07319e-06
1.85876e-06
8.75948e-07
7.252e-08
-5.8954e-07
-1.13828e-06
-1.59478e-06
-1.97526e-06
-2.29248e-06
-2.55722e-06
-2.77842e-06
-2.96325e-06
-3.11843e-06
-3.25011e-06
-3.36337e-06
3.82959e-06
2.73356e-06
1.83474e-06
1.08925e-06
4.64377e-07
-6.39698e-08
-5.13561e-07
-8.97729e-07
-1.22669e-06
-1.5092e-06
-1.75308e-06
-1.96531e-06
-2.15223e-06
-2.31783e-06
-2.46655e-06
4.66465e-06
3.70944e-06
2.91021e-06
2.23303e-06
1.65199e-06
1.14796e-06
7.07157e-07
3.19486e-07
-2.26786e-08
-3.25063e-07
-5.92777e-07
-8.31345e-07
-1.04637e-06
-1.24397e-06
-1.42708e-06
5.50182e-06
4.69259e-06
3.99757e-06
3.39248e-06
2.85853e-06
2.3821e-06
1.95344e-06
1.56544e-06
1.21285e-06
8.90644e-07
5.93956e-07
3.21617e-07
7.25275e-08
-1.58884e-07
-3.79536e-07
6.21371e-06
5.52942e-06
4.92493e-06
4.38396e-06
3.89358e-06
3.4446e-06
3.03073e-06
2.64749e-06
2.29084e-06
1.95813e-06
1.6467e-06
1.35003e-06
1.06391e-06
7.90498e-07
5.32224e-07
6.76212e-06
6.16986e-06
5.63183e-06
5.13753e-06
4.67868e-06
4.24949e-06
3.84582e-06
3.46454e-06
3.10271e-06
2.75731e-06
2.42571e-06
2.10607e-06
1.79981e-06
1.50417e-06
1.21779e-06
7.16518e-06
6.64002e-06
6.15075e-06
5.69128e-06
5.25655e-06
4.84296e-06
4.44773e-06
4.06853e-06
3.70327e-06
3.35035e-06
3.0085e-06
2.6769e-06
2.35196e-06
2.0348e-06
1.72345e-06
7.45405e-06
6.97753e-06
6.52451e-06
6.09161e-06
5.67574e-06
5.27466e-06
4.88647e-06
4.50952e-06
4.1424e-06
3.78373e-06
3.43214e-06
3.08658e-06
2.74615e-06
2.41023e-06
2.0778e-06
7.65526e-06
7.21414e-06
6.78815e-06
6.3754e-06
5.97392e-06
5.58233e-06
5.19927e-06
4.82348e-06
4.45378e-06
4.08892e-06
3.72818e-06
3.37119e-06
3.01727e-06
2.66573e-06
2.31604e-06
7.79102e-06
7.37589e-06
6.97005e-06
6.57236e-06
6.18157e-06
5.79676e-06
5.41696e-06
5.04117e-06
4.6685e-06
4.29831e-06
3.93015e-06
3.56386e-06
3.19863e-06
2.83416e-06
2.47014e-06
7.87978e-06
7.48399e-06
7.09323e-06
6.70677e-06
6.32385e-06
5.94387e-06
5.56612e-06
5.18991e-06
4.81467e-06
4.44024e-06
4.06571e-06
3.69133e-06
3.31654e-06
2.94126e-06
2.56528e-06
7.93614e-06
7.55505e-06
7.17572e-06
6.79777e-06
6.42078e-06
6.04436e-06
5.66797e-06
5.29116e-06
4.91352e-06
4.53483e-06
4.15516e-06
3.77395e-06
3.39115e-06
3.00681e-06
2.62085e-06
7.97115e-06
7.6015e-06
7.23105e-06
6.85973e-06
6.48736e-06
6.11361e-06
5.7381e-06
5.36055e-06
4.98073e-06
4.59847e-06
4.21406e-06
3.82703e-06
3.43745e-06
3.04546e-06
2.6511e-06
7.99278e-06
7.63228e-06
7.26892e-06
6.90292e-06
6.53419e-06
6.16247e-06
5.78751e-06
5.40917e-06
5.02737e-06
4.64203e-06
4.2534e-06
3.86136e-06
3.46596e-06
3.06744e-06
2.66593e-06
8.00647e-06
7.6535e-06
7.29595e-06
6.93431e-06
6.56851e-06
6.19836e-06
5.82373e-06
5.4446e-06
5.06097e-06
4.67287e-06
4.28057e-06
3.88417e-06
3.48372e-06
3.07955e-06
2.67186e-06
8.01579e-06
7.66913e-06
7.31646e-06
6.95846e-06
6.59506e-06
6.22615e-06
5.8517e-06
5.4718e-06
5.08649e-06
4.69591e-06
4.30035e-06
3.90015e-06
3.49525e-06
3.08613e-06
2.67305e-06
8.02289e-06
7.68164e-06
7.33313e-06
6.97822e-06
6.61682e-06
6.24891e-06
5.87454e-06
5.49387e-06
5.10704e-06
4.71423e-06
4.31572e-06
3.91218e-06
3.50333e-06
3.08983e-06
2.67198e-06
8.029e-06
7.69244e-06
7.34754e-06
6.99528e-06
6.63557e-06
6.26846e-06
5.8941e-06
5.5127e-06
5.12449e-06
4.72958e-06
4.32852e-06
3.92197e-06
3.50958e-06
3.09217e-06
2.67009e-06
8.03473e-06
7.70227e-06
7.36053e-06
7.01056e-06
6.65228e-06
6.28584e-06
5.91144e-06
5.52934e-06
5.13985e-06
4.74299e-06
4.33979e-06
3.93043e-06
3.51489e-06
3.09398e-06
2.66812e-06
8.04032e-06
7.71147e-06
7.37247e-06
7.02448e-06
6.66743e-06
6.30154e-06
5.92706e-06
5.54431e-06
5.15364e-06
4.75503e-06
4.34996e-06
3.93803e-06
3.51968e-06
3.09565e-06
2.6664e-06
8.04592e-06
7.72027e-06
7.38369e-06
7.0374e-06
6.68139e-06
6.31595e-06
5.94136e-06
5.558e-06
5.16624e-06
4.76609e-06
4.35925e-06
3.94504e-06
3.52418e-06
3.09735e-06
2.66506e-06
8.05185e-06
7.7292e-06
7.39487e-06
7.05015e-06
6.69508e-06
6.33001e-06
5.9553e-06
5.57134e-06
5.17853e-06
4.77697e-06
4.36832e-06
3.95199e-06
3.52874e-06
3.09927e-06
2.66406e-06
8.05778e-06
7.73803e-06
7.40592e-06
7.0628e-06
6.70877e-06
6.34421e-06
5.96937e-06
5.5848e-06
5.19096e-06
4.78799e-06
4.37755e-06
3.95912e-06
3.53344e-06
3.10129e-06
2.66338e-06
-1.16976e-05
-9.48917e-06
-8.1311e-06
-7.21493e-06
-6.48148e-06
-5.91938e-06
-5.487e-06
-5.15786e-06
-4.91531e-06
-4.74691e-06
-4.64312e-06
-4.5961e-06
-4.59945e-06
-4.64845e-06
-4.73985e-06
-4.87258e-06
-5.04784e-06
-5.27177e-06
-5.55477e-06
-5.91463e-06
-6.36867e-06
-6.91718e-06
-7.44879e-06
-7.77613e-06
-7.79133e-06
-7.45119e-06
-6.75613e-06
-5.72759e-06
-4.39004e-06
-2.76963e-06
-8.94777e-07
1.20256e-06
3.48543e-06
5.91132e-06
8.43242e-06
1.09961e-05
1.3545e-05
1.60161e-05
1.83364e-05
2.04144e-05
2.21191e-05
2.32642e-05
2.34372e-05
2.22216e-05
1.82552e-05
-1.01183e-05
-8.96372e-06
-7.92963e-06
-7.11056e-06
-6.42163e-06
-5.87522e-06
-5.44903e-06
-5.12319e-06
-4.88332e-06
-4.71781e-06
-4.61741e-06
-4.57427e-06
-4.58199e-06
-4.63581e-06
-4.73242e-06
-4.87068e-06
-5.05165e-06
-5.28123e-06
-5.56921e-06
-5.93234e-06
-6.38632e-06
-6.92957e-06
-7.45045e-06
-7.76516e-06
-7.7688e-06
-7.41891e-06
-6.71639e-06
-5.68298e-06
-4.34341e-06
-2.72439e-06
-8.55419e-07
1.22998e-06
3.49276e-06
5.88771e-06
8.36344e-06
1.08625e-05
1.33205e-05
1.56638e-05
1.78027e-05
1.96162e-05
2.09192e-05
2.14133e-05
2.0514e-05
1.73692e-05
1.09716e-05
-9.28671e-06
-8.55393e-06
-7.72293e-06
-6.99078e-06
-6.35114e-06
-5.82645e-06
-5.40973e-06
-5.08879e-06
-4.85232e-06
-4.69001e-06
-4.59314e-06
-4.554e-06
-4.5662e-06
-4.625e-06
-4.72702e-06
-4.87104e-06
-5.05798e-06
-5.29342e-06
-5.58648e-06
-5.95272e-06
-6.40601e-06
-6.94261e-06
-7.45066e-06
-7.75056e-06
-7.74089e-06
-7.38016e-06
-6.66986e-06
-5.6322e-06
-4.29229e-06
-2.67764e-06
-8.1917e-07
1.24758e-06
3.4809e-06
5.83215e-06
8.24546e-06
1.06573e-05
1.29951e-05
1.51733e-05
1.70846e-05
1.85831e-05
1.94525e-05
1.93624e-05
1.77946e-05
1.41766e-05
8.45929e-06
-8.75778e-06
-8.21876e-06
-7.54545e-06
-6.88138e-06
-6.28845e-06
-5.78671e-06
-5.37952e-06
-5.06286e-06
-4.82875e-06
-4.66848e-06
-4.57405e-06
-4.53798e-06
-4.55396e-06
-4.61725e-06
-4.72439e-06
-4.87402e-06
-5.06688e-06
-5.30818e-06
-5.60626e-06
-5.97534e-06
-6.42723e-06
-6.95575e-06
-7.4487e-06
-7.73123e-06
-7.70575e-06
-7.3319e-06
-6.61204e-06
-5.56907e-06
-4.22881e-06
-2.61993e-06
-7.75233e-07
1.26716e-06
3.46215e-06
5.75688e-06
8.09015e-06
1.03917e-05
1.25801e-05
1.45586e-05
1.62071e-05
1.73656e-05
1.78219e-05
1.72905e-05
1.54261e-05
1.19742e-05
7.23322e-06
-8.35182e-06
-7.92748e-06
-7.37389e-06
-6.79246e-06
-6.24295e-06
-5.76336e-06
-5.3651e-06
-5.05156e-06
-4.81812e-06
-4.65801e-06
-4.56424e-06
-4.52966e-06
-4.54812e-06
-4.61491e-06
-4.72645e-06
-4.88119e-06
-5.07962e-06
-5.32648e-06
-5.62922e-06
-6.00052e-06
-6.44991e-06
-6.96847e-06
-7.4437e-06
-7.70626e-06
-7.66284e-06
-7.27434e-06
-6.54426e-06
-5.4965e-06
-4.1578e-06
-2.55836e-06
-7.33308e-07
1.2762e-06
3.42124e-06
5.64421e-06
7.87832e-06
1.00466e-05
1.206e-05
1.38142e-05
1.51854e-05
1.60127e-05
1.61201e-05
1.53036e-05
1.33882e-05
1.03408e-05
6.47774e-06
-8.01639e-06
-7.67255e-06
-7.21016e-06
-6.71179e-06
-6.21271e-06
-5.75665e-06
-5.36961e-06
-5.05945e-06
-4.82547e-06
-4.6636e-06
-4.56833e-06
-4.53315e-06
-4.55226e-06
-4.62103e-06
-4.73572e-06
-4.89458e-06
-5.09776e-06
-5.34946e-06
-5.65607e-06
-6.02849e-06
-6.47378e-06
-6.97992e-06
-7.43431e-06
-7.67405e-06
-7.61057e-06
-7.20624e-06
-6.46599e-06
-5.41497e-06
-4.0812e-06
-2.49672e-06
-6.99401e-07
1.26625e-06
3.34716e-06
5.48094e-06
7.59549e-06
9.60836e-06
1.14255e-05
1.29398e-05
1.40287e-05
1.45655e-05
1.44063e-05
1.34376e-05
1.16096e-05
9.00557e-06
5.91114e-06
-7.71809e-06
-7.43748e-06
-7.05858e-06
-6.62732e-06
-6.18389e-06
-5.76201e-06
-5.39188e-06
-5.08781e-06
-4.85378e-06
-4.68914e-06
-4.59055e-06
-4.55256e-06
-4.57013e-06
-4.63892e-06
-4.755e-06
-4.91643e-06
-5.12302e-06
-5.37828e-06
-5.6874e-06
-6.0593e-06
-6.49828e-06
-6.98891e-06
-7.41877e-06
-7.63248e-06
-7.54676e-06
-7.12561e-06
-6.37576e-06
-5.32398e-06
-3.99978e-06
-2.43751e-06
-6.78056e-07
1.23052e-06
3.23103e-06
5.25667e-06
7.23115e-06
9.06879e-06
1.06748e-05
1.19467e-05
1.27771e-05
1.3064e-05
1.27189e-05
1.16969e-05
1.00224e-05
7.81824e-06
5.31496e-06
-7.43777e-06
-7.2081e-06
-6.89988e-06
-6.53671e-06
-6.15008e-06
-5.77038e-06
-5.42533e-06
-5.13299e-06
-4.90202e-06
-4.73563e-06
-4.63312e-06
-4.59068e-06
-4.60474e-06
-4.67149e-06
-4.78686e-06
-4.94886e-06
-5.15697e-06
-5.41394e-06
-5.7236e-06
-6.09266e-06
-6.52243e-06
-6.9938e-06
-7.39486e-06
-7.57911e-06
-7.46902e-06
-7.03049e-06
-6.27253e-06
-5.22379e-06
-3.91551e-06
-2.38472e-06
-6.75607e-07
1.16038e-06
3.06243e-06
4.96033e-06
6.77553e-06
8.42239e-06
9.81032e-06
1.08476e-05
1.14475e-05
1.15391e-05
1.10792e-05
1.00699e-05
8.5714e-06
6.7066e-06
4.65092e-06
-7.1661e-06
-6.97868e-06
-6.72977e-06
-6.43098e-06
-6.10326e-06
-5.77138e-06
-5.45946e-06
-5.18646e-06
-4.96422e-06
-4.79966e-06
-4.69467e-06
-4.64748e-06
-4.65703e-06
-4.72017e-06
-4.83278e-06
-4.99317e-06
-5.20056e-06
-5.45689e-06
-5.76452e-06
-6.12774e-06
-6.54473e-06
-6.9924e-06
-7.35997e-06
-7.51129e-06
-7.37508e-06
-6.91938e-06
-6.15619e-06
-5.11616e-06
-3.83229e-06
-2.34467e-06
-7.0088e-07
1.04486e-06
2.82921e-06
4.58025e-06
6.21982e-06
7.66618e-06
8.83755e-06
9.65758e-06
1.00627e-05
1.00112e-05
9.49284e-06
8.53647e-06
7.21306e-06
5.63004e-06
3.91771e-06
-6.89684e-06
-6.74575e-06
-6.54716e-06
-6.30634e-06
-6.03621e-06
-5.75506e-06
-5.48271e-06
-5.23679e-06
-5.03039e-06
-4.87332e-06
-4.7692e-06
-4.71883e-06
-4.72474e-06
-4.7838e-06
-4.89206e-06
-5.04883e-06
-5.25322e-06
-5.50632e-06
-5.80894e-06
-6.1628e-06
-6.56289e-06
-6.98196e-06
-7.31122e-06
-7.42655e-06
-7.26321e-06
-6.79187e-06
-6.02835e-06
-5.00514e-06
-3.75665e-06
-2.32641e-06
-7.65338e-07
8.70905e-07
2.51817e-06
4.10512e-06
5.5571e-06
6.79994e-06
7.76428e-06
8.39134e-06
8.63941e-06
8.49029e-06
7.95427e-06
7.07199e-06
5.91173e-06
4.56132e-06
3.11684e-06
-6.62309e-06
-6.50447e-06
-6.34939e-06
-6.15999e-06
-5.94385e-06
-5.71359e-06
-5.48474e-06
-5.27218e-06
-5.08879e-06
-4.94578e-06
-4.84595e-06
-4.79626e-06
-4.8019e-06
-4.85801e-06
-4.96106e-06
-5.11279e-06
-5.31224e-06
-5.55958e-06
-5.85409e-06
-6.19487e-06
-6.57375e-06
-6.95931e-06
-7.24588e-06
-7.32324e-06
-7.13314e-06
-6.64965e-06
-5.89356e-06
-4.89826e-06
-3.69844e-06
-2.34211e-06
-8.83103e-07
6.23713e-07
2.11575e-06
3.52483e-06
4.78279e-06
5.82592e-06
6.59915e-06
7.06081e-06
7.18747e-06
6.97707e-06
6.45072e-06
5.65106e-06
4.63776e-06
3.48004e-06
2.24887e-06
-6.33588e-06
-6.24735e-06
-6.13092e-06
-5.9873e-06
-5.82084e-06
-5.63982e-06
-5.45606e-06
-5.28104e-06
-5.12767e-06
-5.00401e-06
-4.91321e-06
-4.86999e-06
-4.87987e-06
-4.93494e-06
-5.0329e-06
-5.17913e-06
-5.37241e-06
-5.61195e-06
-5.89553e-06
-6.21976e-06
-6.57347e-06
-6.92129e-06
-7.16217e-06
-7.20149e-06
-6.987e-06
-6.49782e-06
-5.76097e-06
-4.80797e-06
-3.6712e-06
-2.40711e-06
-1.07055e-06
2.87688e-07
1.60918e-06
2.83141e-06
3.895e-06
4.74831e-06
5.3505e-06
5.67469e-06
5.71068e-06
5.46619e-06
4.96612e-06
4.24975e-06
3.36642e-06
2.36956e-06
1.31184e-06
-6.02373e-06
-5.96392e-06
-5.8828e-06
-5.78058e-06
-5.65967e-06
-5.52546e-06
-5.38639e-06
-5.25135e-06
-5.13097e-06
-5.03085e-06
-4.95877e-06
-4.93016e-06
-4.94644e-06
-5.00105e-06
-5.09689e-06
-5.23907e-06
-5.42607e-06
-5.65671e-06
-5.92739e-06
-6.23243e-06
-6.55815e-06
-6.86555e-06
-7.06036e-06
-7.06438e-06
-6.83031e-06
-6.34576e-06
-5.64783e-06
-4.74996e-06
-3.69174e-06
-2.54004e-06
-1.34558e-06
-1.52262e-07
9.87866e-07
2.02e-06
2.89489e-06
3.57288e-06
4.02584e-06
4.23835e-06
4.20874e-06
3.94919e-06
3.48412e-06
2.84714e-06
2.07752e-06
1.21602e-06
3.01851e-07
-5.6723e-06
-5.6406e-06
-5.59266e-06
-5.52861e-06
-5.4498e-06
-5.35976e-06
-5.26417e-06
-5.16998e-06
-5.08465e-06
-5.01639e-06
-4.97137e-06
-4.95886e-06
-4.98295e-06
-5.04299e-06
-5.14145e-06
-5.28211e-06
-5.46391e-06
-5.68573e-06
-5.9429e-06
-6.22759e-06
-6.52459e-06
-6.79167e-06
-6.94417e-06
-6.91953e-06
-6.67088e-06
-6.2161e-06
-5.57199e-06
-4.73862e-06
-3.78126e-06
-2.7631e-06
-1.72679e-06
-7.0941e-07
2.44445e-07
1.08941e-06
1.78663e-06
2.30705e-06
2.63249e-06
2.75567e-06
2.67956e-06
2.4173e-06
1.99049e-06
1.42645e-06
7.5559e-07
8.66632e-09
-7.85057e-07
-5.26319e-06
-5.25984e-06
-5.24409e-06
-5.21624e-06
-5.17715e-06
-5.12916e-06
-5.07622e-06
-5.02352e-06
-4.97706e-06
-4.94338e-06
-4.92812e-06
-4.93726e-06
-4.97606e-06
-5.04744e-06
-5.15315e-06
-5.29582e-06
-5.47514e-06
-5.68993e-06
-5.93515e-06
-6.20067e-06
-6.47088e-06
-6.70234e-06
-6.82154e-06
-6.7766e-06
-6.53663e-06
-6.12877e-06
-5.53849e-06
-4.79515e-06
-3.96716e-06
-3.10052e-06
-2.23173e-06
-1.39415e-06
-6.24728e-07
4.16428e-08
5.76266e-07
9.58734e-07
1.17733e-06
1.22966e-06
1.12095e-06
8.63476e-07
4.74765e-07
-2.39702e-08
-6.09627e-07
-1.25921e-06
-1.9509e-06
-4.77359e-06
-4.79978e-06
-4.81647e-06
-4.82422e-06
-4.82377e-06
-4.81679e-06
-4.8061e-06
-4.79549e-06
-4.78946e-06
-4.79292e-06
-4.81071e-06
-4.84778e-06
-4.90891e-06
-4.99776e-06
-5.11619e-06
-5.26614e-06
-5.44794e-06
-5.65991e-06
-5.89743e-06
-6.14891e-06
-6.39798e-06
-6.60422e-06
-6.70241e-06
-6.65817e-06
-6.45239e-06
-6.08175e-06
-5.57396e-06
-4.95805e-06
-4.27719e-06
-3.5704e-06
-2.87146e-06
-2.21108e-06
-1.61797e-06
-1.11713e-06
-7.28303e-07
-4.65059e-07
-3.34539e-07
-3.37584e-07
-4.68568e-07
-7.17408e-07
-1.07045e-06
-1.51168e-06
-2.02397e-06
-2.5904e-06
-3.19482e-06
-4.18017e-06
-4.23785e-06
-4.28813e-06
-4.33192e-06
-4.37012e-06
-4.40405e-06
-4.43572e-06
-4.4679e-06
-4.50394e-06
-4.54759e-06
-4.60282e-06
-4.6737e-06
-4.76404e-06
-4.87714e-06
-5.0152e-06
-5.17967e-06
-5.37122e-06
-5.58758e-06
-5.82449e-06
-6.07066e-06
-6.31086e-06
-6.5078e-06
-6.60714e-06
-6.5826e-06
-6.41542e-06
-6.12674e-06
-5.72798e-06
-5.2492e-06
-4.72333e-06
-4.1808e-06
-3.65108e-06
-3.16012e-06
-2.72964e-06
-2.37739e-06
-2.11675e-06
-1.95612e-06
-1.89913e-06
-1.94587e-06
-2.09215e-06
-2.33057e-06
-2.65114e-06
-3.04213e-06
-3.49112e-06
-3.98584e-06
-4.51455e-06
-3.46387e-06
-3.55621e-06
-3.6424e-06
-3.72381e-06
-3.80172e-06
-3.87737e-06
-3.95233e-06
-4.02867e-06
-4.10895e-06
-4.19605e-06
-4.29305e-06
-4.40312e-06
-4.52922e-06
-4.67414e-06
-4.84002e-06
-5.02797e-06
-5.23872e-06
-5.46943e-06
-5.7168e-06
-5.97031e-06
-6.21347e-06
-6.42891e-06
-6.5594e-06
-6.57243e-06
-6.47999e-06
-6.2899e-06
-6.01529e-06
-5.6808e-06
-5.31283e-06
-4.93522e-06
-4.57018e-06
-4.23727e-06
-3.95265e-06
-3.72918e-06
-3.57691e-06
-3.50304e-06
-3.50723e-06
-3.58967e-06
-3.7469e-06
-3.9746e-06
-4.26627e-06
-4.61362e-06
-5.0078e-06
-5.44019e-06
-5.9024e-06
-2.60431e-06
-2.73554e-06
-2.86184e-06
-2.98471e-06
-3.10566e-06
-3.22604e-06
-3.3472e-06
-3.47082e-06
-3.59887e-06
-3.73357e-06
-3.87727e-06
-4.03242e-06
-4.20138e-06
-4.38639e-06
-4.58936e-06
-4.81097e-06
-5.05203e-06
-5.31016e-06
-5.58105e-06
-5.86084e-06
-6.12878e-06
-6.37644e-06
-6.56791e-06
-6.66021e-06
-6.658e-06
-6.57975e-06
-6.44053e-06
-6.2578e-06
-6.04926e-06
-5.83203e-06
-5.62199e-06
-5.43335e-06
-5.27849e-06
-5.16617e-06
-5.10323e-06
-5.09635e-06
-5.15034e-06
-5.25992e-06
-5.42407e-06
-5.64081e-06
-5.90592e-06
-6.21392e-06
-6.55906e-06
-6.93563e-06
-7.33779e-06
-1.60159e-06
-1.77224e-06
-1.94037e-06
-2.10709e-06
-2.27379e-06
-2.44184e-06
-2.61255e-06
-2.78734e-06
-2.96773e-06
-3.15541e-06
-3.35216e-06
-3.55988e-06
-3.78042e-06
-4.01552e-06
-4.26666e-06
-4.53453e-06
-4.8195e-06
-5.12023e-06
-5.43362e-06
-5.75674e-06
-6.07978e-06
-6.38492e-06
-6.64916e-06
-6.83644e-06
-6.94959e-06
-7.00037e-06
-7.00435e-06
-6.97206e-06
-6.91499e-06
-6.84559e-06
-6.77604e-06
-6.71713e-06
-6.67722e-06
-6.66438e-06
-6.6837e-06
-6.73482e-06
-6.81972e-06
-6.94479e-06
-7.11109e-06
-7.31569e-06
-7.55486e-06
-7.8255e-06
-8.12473e-06
-8.44924e-06
-8.79506e-06
-5.95028e-07
-8.08905e-07
-1.02186e-06
-1.23472e-06
-1.44893e-06
-1.666e-06
-1.88728e-06
-2.11397e-06
-2.34729e-06
-2.58852e-06
-2.83911e-06
-3.10058e-06
-3.37443e-06
-3.66204e-06
-3.9646e-06
-4.28286e-06
-4.61718e-06
-4.96707e-06
-5.33078e-06
-5.70575e-06
-6.08515e-06
-6.46015e-06
-6.80551e-06
-7.09176e-06
-7.31681e-06
-7.48954e-06
-7.61906e-06
-7.71329e-06
-7.7813e-06
-7.83272e-06
-7.87646e-06
-7.92024e-06
-7.96989e-06
-8.03074e-06
-8.10792e-06
-8.20509e-06
-8.3247e-06
-8.4685e-06
-8.63731e-06
-8.83045e-06
-9.04681e-06
-9.28537e-06
-9.5448e-06
-9.82316e-06
-1.0118e-05
2.8048e-07
2.78441e-08
-2.26651e-07
-4.82712e-07
-7.41214e-07
-1.00367e-06
-1.27144e-06
-1.54558e-06
-1.82703e-06
-2.11686e-06
-2.41629e-06
-2.72656e-06
-3.04893e-06
-3.38453e-06
-3.73437e-06
-4.09922e-06
-4.47947e-06
-4.87507e-06
-5.28495e-06
-5.70736e-06
-6.13908e-06
-6.57503e-06
-6.98943e-06
-7.35423e-06
-7.66551e-06
-7.92855e-06
-8.14983e-06
-8.3363e-06
-8.49528e-06
-8.63414e-06
-8.7594e-06
-8.87679e-06
-8.99192e-06
-9.109e-06
-9.23198e-06
-9.36603e-06
-9.51267e-06
-9.67271e-06
-9.84599e-06
-1.0033e-05
-1.02344e-05
-1.04504e-05
-1.06805e-05
-1.09236e-05
-1.11785e-05
9.34762e-07
6.49722e-07
3.61744e-07
7.07916e-08
-2.23994e-07
-5.2384e-07
-8.29811e-07
-1.14272e-06
-1.46336e-06
-1.79261e-06
-2.13147e-06
-2.48097e-06
-2.84212e-06
-3.21585e-06
-3.60302e-06
-4.00432e-06
-4.42018e-06
-4.85071e-06
-5.2954e-06
-5.75325e-06
-6.22238e-06
-6.69965e-06
-7.16044e-06
-7.57682e-06
-7.94404e-06
-8.26623e-06
-8.54874e-06
-8.79739e-06
-9.01802e-06
-9.21631e-06
-9.39751e-06
-9.56644e-06
-9.72748e-06
-9.88408e-06
-1.00395e-05
-1.01964e-05
-1.0358e-05
-1.0525e-05
-1.06982e-05
-1.08788e-05
-1.1068e-05
-1.12661e-05
-1.1473e-05
-1.16885e-05
-1.19123e-05
1.4135e-06
1.10084e-06
7.84456e-07
4.63933e-07
1.38514e-07
-1.92638e-07
-5.30256e-07
-8.74977e-07
-1.22745e-06
-1.5884e-06
-1.95861e-06
-2.33887e-06
-2.72999e-06
-3.1327e-06
-3.54769e-06
-3.97554e-06
-4.41664e-06
-4.87112e-06
-5.33879e-06
-5.81898e-06
-6.31049e-06
-6.81129e-06
-7.29816e-06
-7.74418e-06
-8.14488e-06
-8.50401e-06
-8.82595e-06
-9.11542e-06
-9.37709e-06
-9.61552e-06
-9.83488e-06
-1.0039e-05
-1.02311e-05
-1.04143e-05
-1.05914e-05
-1.07653e-05
-1.09379e-05
-1.11107e-05
-1.12852e-05
-1.14627e-05
-1.16442e-05
-1.18303e-05
-1.20214e-05
-1.22177e-05
-1.24195e-05
1.74554e-06
1.40987e-06
1.06969e-06
7.24602e-07
3.74056e-07
1.75201e-08
-3.4551e-07
-7.15513e-07
-1.09299e-06
-1.47847e-06
-1.87255e-06
-2.2758e-06
-2.68883e-06
-3.11217e-06
-3.54634e-06
-3.99177e-06
-4.44876e-06
-4.91742e-06
-5.39764e-06
-5.88893e-06
-6.39044e-06
-6.90066e-06
-7.39825e-06
-7.85841e-06
-8.2771e-06
-8.65764e-06
-9.00363e-06
-9.31886e-06
-9.60711e-06
-9.872e-06
-1.01169e-05
-1.03448e-05
-1.05586e-05
-1.07608e-05
-1.09536e-05
-1.11401e-05
-1.13217e-05
-1.15001e-05
-1.16769e-05
-1.18533e-05
-1.20303e-05
-1.22087e-05
-1.23893e-05
-1.25727e-05
-1.27594e-05
1.96542e-06
1.61071e-06
1.25096e-06
8.85899e-07
5.15175e-07
1.38453e-07
-2.44585e-07
-6.34253e-07
-1.03088e-06
-1.43484e-06
-1.84651e-06
-2.26629e-06
-2.69458e-06
-3.13175e-06
-3.57814e-06
-4.03401e-06
-4.49957e-06
-4.97483e-06
-5.45971e-06
-5.95376e-06
-6.45634e-06
-6.96621e-06
-7.46426e-06
-7.92821e-06
-8.35445e-06
-8.74582e-06
-9.10528e-06
-9.43589e-06
-9.74068e-06
-1.00225e-05
-1.02842e-05
-1.05284e-05
-1.07575e-05
-1.09744e-05
-1.11782e-05
-1.13742e-05
-1.15632e-05
-1.17467e-05
-1.1926e-05
-1.21026e-05
-1.22774e-05
-1.24515e-05
-1.26258e-05
-1.28011e-05
-1.2978e-05
2.10426e-06
1.73382e-06
1.35809e-06
9.76903e-07
5.90067e-07
1.97411e-07
-2.01214e-07
-6.05964e-07
-1.01702e-06
-1.43459e-06
-1.85889e-06
-2.29014e-06
-2.72858e-06
-3.1744e-06
-3.62779e-06
-4.08886e-06
-4.5577e-06
-5.03424e-06
-5.51835e-06
-6.00961e-06
-6.50748e-06
-7.01091e-06
-7.50301e-06
-7.96421e-06
-8.3913e-06
-8.78664e-06
-9.15259e-06
-9.49164e-06
-9.80626e-06
-1.00988e-05
-1.03716e-05
-1.06265e-05
-1.08655e-05
-1.10902e-05
-1.13055e-05
-1.15095e-05
-1.17046e-05
-1.18925e-05
-1.20748e-05
-1.22526e-05
-1.24272e-05
-1.25996e-05
-1.27708e-05
-1.29416e-05
-1.31129e-05
2.18671e-06
1.80334e-06
1.4146e-06
1.02043e-06
6.20771e-07
2.15606e-07
-1.95074e-07
-6.11291e-07
-1.03309e-06
-1.46055e-06
-1.89373e-06
-2.3327e-06
-2.77755e-06
-3.22833e-06
-3.68509e-06
-4.1478e-06
-4.61645e-06
-5.09086e-06
-5.57087e-06
-6.05603e-06
-6.54589e-06
-7.03948e-06
-7.52208e-06
-7.97681e-06
-8.40077e-06
-8.79581e-06
-9.16383e-06
-9.50688e-06
-9.82697e-06
-1.0126e-05
-1.04059e-05
-1.06683e-05
-1.09149e-05
-1.11475e-05
-1.13686e-05
-1.15785e-05
-1.17787e-05
-1.19709e-05
-1.21562e-05
-1.23361e-05
-1.25117e-05
-1.26841e-05
-1.28543e-05
-1.30234e-05
-1.31922e-05
2.23174e-06
1.83772e-06
1.43836e-06
1.0337e-06
6.23803e-07
2.08789e-07
-2.11242e-07
-6.36204e-07
-1.06603e-06
-1.50065e-06
-1.94003e-06
-2.3841e-06
-2.83282e-06
-3.2861e-06
-3.74388e-06
-4.20603e-06
-4.67241e-06
-5.14279e-06
-5.61692e-06
-6.09434e-06
-6.57464e-06
-7.05689e-06
-7.52842e-06
-7.97484e-06
-8.39348e-06
-8.78573e-06
-9.15317e-06
-9.49746e-06
-9.82023e-06
-1.01231e-05
-1.04075e-05
-1.0675e-05
-1.0927e-05
-1.1165e-05
-1.13909e-05
-1.16055e-05
-1.181e-05
-1.20058e-05
-1.21943e-05
-1.23766e-05
-1.25539e-05
-1.27275e-05
-1.28982e-05
-1.30673e-05
-1.32357e-05
2.25318e-06
1.85029e-06
1.44217e-06
1.02894e-06
6.10778e-07
1.87903e-07
-2.39493e-07
-6.71227e-07
-1.10713e-06
-1.54704e-06
-1.99078e-06
-2.43821e-06
-2.88915e-06
-3.34343e-06
-3.80087e-06
-4.26123e-06
-4.7243e-06
-5.18974e-06
-5.65728e-06
-6.12641e-06
-6.59675e-06
-7.06737e-06
-7.52748e-06
-7.96492e-06
-8.37722e-06
-8.76541e-06
-9.13077e-06
-9.47466e-06
-9.79839e-06
-1.01032e-05
-1.03905e-05
-1.06614e-05
-1.09172e-05
-1.11592e-05
-1.13889e-05
-1.16072e-05
-1.18153e-05
-1.20144e-05
-1.22057e-05
-1.23906e-05
-1.257e-05
-1.27453e-05
-1.29174e-05
-1.30875e-05
-1.32567e-05
2.26052e-06
1.85016e-06
1.4347e-06
1.01435e-06
5.89395e-07
1.60113e-07
-2.73218e-07
-7.10332e-07
-1.15097e-06
-1.59488e-06
-2.0418e-06
-2.49148e-06
-2.94367e-06
-3.39808e-06
-3.85446e-06
-4.31247e-06
-4.77182e-06
-5.23212e-06
-5.69302e-06
-6.15397e-06
-6.61462e-06
-7.07403e-06
-7.52308e-06
-7.9516e-06
-8.35728e-06
-8.74087e-06
-9.10342e-06
-9.446e-06
-9.76967e-06
-1.00754e-05
-1.03644e-05
-1.06376e-05
-1.08961e-05
-1.1141e-05
-1.13736e-05
-1.1595e-05
-1.18061e-05
-1.2008e-05
-1.22019e-05
-1.23892e-05
-1.25708e-05
-1.2748e-05
-1.29219e-05
-1.30936e-05
-1.32643e-05
2.26002e-06
1.84326e-06
1.42155e-06
9.95186e-07
5.64509e-07
1.29878e-07
-3.08366e-07
-7.49883e-07
-1.19434e-06
-1.6414e-06
-2.09074e-06
-2.54201e-06
-2.99489e-06
-3.449e-06
-3.90401e-06
-4.35953e-06
-4.81516e-06
-5.27048e-06
-5.72506e-06
-6.17833e-06
-6.62994e-06
-7.07892e-06
-7.51765e-06
-7.9377e-06
-8.33693e-06
-8.71587e-06
-9.07534e-06
-9.41617e-06
-9.73919e-06
-1.00452e-05
-1.03351e-05
-1.06098e-05
-1.08703e-05
-1.11174e-05
-1.13523e-05
-1.15761e-05
-1.17897e-05
-1.19939e-05
-1.21902e-05
-1.23796e-05
-1.25633e-05
-1.27424e-05
-1.29182e-05
-1.30917e-05
-1.32641e-05
2.2556e-06
1.83328e-06
1.40616e-06
9.74606e-07
5.39021e-07
9.98191e-08
-3.42598e-07
-7.87829e-07
-1.23547e-06
-1.68513e-06
-2.1364e-06
-2.58888e-06
-3.04215e-06
-3.49579e-06
-3.94939e-06
-4.40248e-06
-4.85462e-06
-5.30531e-06
-5.7541e-06
-6.20036e-06
-6.64373e-06
-7.08323e-06
-7.51256e-06
-7.9248e-06
-8.31799e-06
-8.69248e-06
-9.04888e-06
-9.38781e-06
-9.70989e-06
-1.00158e-05
-1.03062e-05
-1.05819e-05
-1.08437e-05
-1.10926e-05
-1.13292e-05
-1.1555e-05
-1.17706e-05
-1.19768e-05
-1.2175e-05
-1.23663e-05
-1.25519e-05
-1.27328e-05
-1.29104e-05
-1.30857e-05
-1.32599e-05
2.24959e-06
1.82238e-06
1.39052e-06
9.54417e-07
5.14546e-07
7.1362e-08
-3.7468e-07
-8.23123e-07
-1.27351e-06
-1.72538e-06
-2.17828e-06
-2.63173e-06
-3.08527e-06
-3.53841e-06
-3.99067e-06
-4.44153e-06
-4.8905e-06
-5.33703e-06
-5.7806e-06
-6.22058e-06
-6.65656e-06
-7.08757e-06
-7.50845e-06
-7.91363e-06
-8.30131e-06
-8.67167e-06
-9.02516e-06
-9.3622e-06
-9.68325e-06
-9.98881e-06
-1.02795e-05
-1.05559e-05
-1.08187e-05
-1.10687e-05
-1.13069e-05
-1.15341e-05
-1.17515e-05
-1.19593e-05
-1.21591e-05
-1.2352e-05
-1.25392e-05
-1.27217e-05
-1.29009e-05
-1.30778e-05
-1.32536e-05
2.24331e-06
1.81175e-06
1.37568e-06
9.35554e-07
4.91891e-07
4.51871e-08
-4.04055e-07
-8.5533e-07
-1.30813e-06
-1.76195e-06
-2.21627e-06
-2.67057e-06
-3.12433e-06
-3.577e-06
-4.02806e-06
-4.47694e-06
-4.92309e-06
-5.36591e-06
-5.80487e-06
-6.23927e-06
-6.6687e-06
-7.09217e-06
-7.50553e-06
-7.90438e-06
-8.28711e-06
-8.65374e-06
-9.00455e-06
-9.33981e-06
-9.65982e-06
-9.96496e-06
-1.02557e-05
-1.05326e-05
-1.07962e-05
-1.10472e-05
-1.12864e-05
-1.1515e-05
-1.17337e-05
-1.19428e-05
-1.2144e-05
-1.23382e-05
-1.25267e-05
-1.27106e-05
-1.28911e-05
-1.30694e-05
-1.32468e-05
2.23741e-06
1.80198e-06
1.36215e-06
9.18445e-07
4.71402e-07
2.15616e-08
-4.30532e-07
-8.84331e-07
-1.33929e-06
-1.79484e-06
-2.25044e-06
-2.7055e-06
-3.15947e-06
-3.61175e-06
-4.06177e-06
-4.50891e-06
-4.95258e-06
-5.39216e-06
-5.82705e-06
-6.25655e-06
-6.68021e-06
-7.09703e-06
-7.50372e-06
-7.89697e-06
-8.2753e-06
-8.63861e-06
-8.98701e-06
-9.32063e-06
-9.63966e-06
-9.94437e-06
-1.02351e-05
-1.05123e-05
-1.07766e-05
-1.10282e-05
-1.12684e-05
-1.14981e-05
-1.17178e-05
-1.1928e-05
-1.21302e-05
-1.23256e-05
-1.25152e-05
-1.27002e-05
-1.28818e-05
-1.30613e-05
-1.32399e-05
2.2322e-06
1.79331e-06
1.35014e-06
9.03242e-07
4.53186e-07
5.48357e-10
-4.5409e-07
-9.10145e-07
-1.36703e-06
-1.82414e-06
-2.28089e-06
-2.73666e-06
-3.19085e-06
-3.64282e-06
-4.09195e-06
-4.53759e-06
-4.97912e-06
-5.41586e-06
-5.84721e-06
-6.27243e-06
-6.69104e-06
-7.10203e-06
-7.50287e-06
-7.89119e-06
-8.26565e-06
-8.62602e-06
-8.97229e-06
-9.30445e-06
-9.62259e-06
-9.92687e-06
-1.02176e-05
-1.0495e-05
-1.07598e-05
-1.1012e-05
-1.12529e-05
-1.14835e-05
-1.1704e-05
-1.19151e-05
-1.21182e-05
-1.23144e-05
-1.25049e-05
-1.26908e-05
-1.28733e-05
-1.30538e-05
-1.32335e-05
2.22769e-06
1.7857e-06
1.33953e-06
8.89765e-07
4.37005e-07
-1.81439e-08
-4.7507e-07
-9.33155e-07
-1.39178e-06
-1.85031e-06
-2.30811e-06
-2.76455e-06
-3.21896e-06
-3.67069e-06
-4.11907e-06
-4.56343e-06
-5.00311e-06
-5.43739e-06
-5.86565e-06
-6.28712e-06
-6.7013e-06
-7.10715e-06
-7.50278e-06
-7.88671e-06
-8.25775e-06
-8.61553e-06
-8.95991e-06
-9.29078e-06
-9.60813e-06
-9.91204e-06
-1.02027e-05
-1.04803e-05
-1.07455e-05
-1.09982e-05
-1.12397e-05
-1.14711e-05
-1.16922e-05
-1.1904e-05
-1.21078e-05
-1.23047e-05