/*--------------------------------*- C++ -*----------------------------------*\
| =========                 |                                                 |
| \\      /  F ield         | OpenFOAM: The Open Source CFD Toolbox           |
|  \\    /   O peration     | Version:  2312                                  |
|   \\  /    A nd           | Website:  www.openfoam.com                      |
|    \\/     M anipulation  |                                                 |
\*---------------------------------------------------------------------------*/
FoamFile
{
    version     2.0;
    format      ascii;
    arch        "LSB;label=32;scalar=64";
    class       volScalarField;
    location    "163.75";
    object      p;
}
// * * * * * * * * * * * * * * * * * * * * * * * * * * * * * * * * * * * * * //

dimensions      [0 2 -2 0 0 0 0];

internalField   nonuniform List<scalar> 
4800
(
4.48147e-14
-1.17457e-06
-2.18885e-06
-3.08249e-06
-3.87401e-06
-4.58783e-06
-5.23018e-06
-5.80719e-06
-6.32933e-06
-6.80458e-06
-7.23832e-06
-7.63196e-06
-7.97708e-06
-8.5155e-06
-1.02359e-05
1.12315e-08
-1.16137e-06
-2.17369e-06
-3.06623e-06
-3.8573e-06
-4.572e-06
-5.2163e-06
-5.79675e-06
-6.32458e-06
-6.80977e-06
-7.26266e-06
-7.6985e-06
-8.13075e-06
-8.66769e-06
-9.5598e-06
2.33764e-08
-1.14695e-06
-2.1574e-06
-3.04859e-06
-3.83872e-06
-4.55303e-06
-5.19862e-06
-5.78158e-06
-6.3137e-06
-6.80586e-06
-7.26948e-06
-7.72014e-06
-8.1655e-06
-8.61045e-06
-9.02559e-06
3.62974e-08
-1.13099e-06
-2.1389e-06
-3.02806e-06
-3.81722e-06
-4.52947e-06
-5.17542e-06
-5.75931e-06
-6.29244e-06
-6.78519e-06
-7.24594e-06
-7.68095e-06
-8.08063e-06
-8.40962e-06
-8.59161e-06
5.13875e-08
-1.11187e-06
-2.11629e-06
-3.00237e-06
-3.79059e-06
-4.49854e-06
-5.14285e-06
-5.72537e-06
-6.25502e-06
-6.7402e-06
-7.18402e-06
-7.58236e-06
-7.91397e-06
-8.13679e-06
-8.1917e-06
7.02532e-08
-1.08788e-06
-2.0877e-06
-2.96939e-06
-3.75491e-06
-4.45819e-06
-5.09695e-06
-5.67408e-06
-6.19428e-06
-6.66248e-06
-7.07639e-06
-7.42509e-06
-7.68517e-06
-7.82463e-06
-7.81344e-06
9.53426e-08
-1.05657e-06
-2.05047e-06
-2.92623e-06
-3.70604e-06
-4.40373e-06
-5.03303e-06
-5.5988e-06
-6.10222e-06
-6.54402e-06
-6.91825e-06
-7.21223e-06
-7.40787e-06
-7.48851e-06
-7.44664e-06
1.30573e-07
-1.01412e-06
-2.00059e-06
-2.86848e-06
-3.6398e-06
-4.32801e-06
-4.94394e-06
-5.49173e-06
-5.97068e-06
-6.37838e-06
-6.7079e-06
-6.94933e-06
-7.093e-06
-7.13554e-06
-7.08201e-06
1.81574e-07
-9.55093e-07
-1.93243e-06
-2.79005e-06
-3.54962e-06
-4.22368e-06
-4.82097e-06
-5.34438e-06
-5.79227e-06
-6.16121e-06
-6.44601e-06
-6.64188e-06
-6.74723e-06
-6.76732e-06
-6.7125e-06
2.55398e-07
-8.7254e-07
-1.83885e-06
-2.68334e-06
-3.42729e-06
-4.08227e-06
-4.65531e-06
-5.14878e-06
-5.56124e-06
-5.8904e-06
-6.13444e-06
-6.29399e-06
-6.37334e-06
-6.38216e-06
-6.33203e-06
3.59703e-07
-7.58642e-07
-1.71168e-06
-2.53979e-06
-3.26386e-06
-3.8948e-06
-4.43894e-06
-4.89871e-06
-5.27428e-06
-5.56595e-06
-5.77568e-06
-5.9084e-06
-5.97182e-06
-5.97713e-06
-5.93528e-06
5.01969e-07
-6.05465e-07
-1.54258e-06
-2.35074e-06
-3.05072e-06
-3.65344e-06
-4.16573e-06
-4.59067e-06
-4.93086e-06
-5.18982e-06
-5.37276e-06
-5.48729e-06
-5.5426e-06
-5.54975e-06
-5.51835e-06
6.8945e-07
-4.05215e-07
-1.32346e-06
-2.10802e-06
-2.77993e-06
-3.35274e-06
-3.83237e-06
-4.22404e-06
-4.53297e-06
-4.76555e-06
-4.92928e-06
-5.03306e-06
-5.08628e-06
-5.09901e-06
-5.07945e-06
9.29696e-07
-1.49879e-07
-1.04639e-06
-1.80355e-06
-2.44746e-06
-2.98969e-06
-3.43827e-06
-3.80051e-06
-4.08407e-06
-4.29734e-06
-4.44904e-06
-4.54839e-06
-4.60424e-06
-4.62544e-06
-4.61886e-06
1.23089e-06
1.68972e-07
-7.01775e-07
-1.43357e-06
-2.04909e-06
-2.56262e-06
-2.98407e-06
-3.32277e-06
-3.58807e-06
-3.78936e-06
-3.93574e-06
-4.03614e-06
-4.09862e-06
-4.13083e-06
-4.13854e-06
1.60091e-06
5.61434e-07
-2.88278e-07
-9.94083e-07
-1.58317e-06
-2.07184e-06
-2.47211e-06
-2.79461e-06
-3.04935e-06
-3.24599e-06
-3.39347e-06
-3.50011e-06
-3.57313e-06
-3.61905e-06
-3.64281e-06
2.04467e-06
1.02618e-06
1.98703e-07
-4.84238e-07
-1.05136e-06
-1.52133e-06
-1.90785e-06
-2.22214e-06
-2.47426e-06
-2.67351e-06
-2.82834e-06
-2.94638e-06
-3.03409e-06
-3.09709e-06
-3.13962e-06
2.55861e-06
1.56469e-06
7.5729e-07
9.22456e-08
-4.5995e-07
-9.19362e-07
-1.30049e-06
-1.61493e-06
-1.8725e-06
-2.08192e-06
-2.25081e-06
-2.38587e-06
-2.49283e-06
-2.57676e-06
-2.64152e-06
3.13093e-06
2.16677e-06
1.37843e-06
7.25637e-07
1.79677e-07
-2.78773e-07
-6.63787e-07
-9.86922e-07
-1.25767e-06
-1.4842e-06
-1.67365e-06
-1.83197e-06
-1.96388e-06
-2.0735e-06
-2.16446e-06
3.74342e-06
2.81463e-06
2.04454e-06
1.39853e-06
8.51128e-07
3.84751e-07
-1.35595e-08
-3.54574e-07
-6.47215e-07
-8.9866e-07
-1.11516e-06
-1.30247e-06
-1.46524e-06
-1.60681e-06
-1.72992e-06
4.31789e-06
3.4264e-06
2.67289e-06
2.02926e-06
1.47527e-06
9.95628e-07
5.78509e-07
2.14319e-07
-1.05e-07
-3.86175e-07
-6.34706e-07
-8.55039e-07
-1.0509e-06
-1.22555e-06
-1.38203e-06
4.77546e-06
3.92047e-06
3.18314e-06
2.54195e-06
1.98106e-06
1.48791e-06
1.05232e-06
6.65703e-07
3.20831e-07
1.18966e-08
-2.65788e-07
-5.16269e-07
-7.43233e-07
-9.4976e-07
-1.13835e-06
5.10755e-06
4.28638e-06
3.56646e-06
2.9303e-06
2.36575e-06
1.86293e-06
1.41283e-06
1.00772e-06
6.41427e-07
3.08952e-07
6.02723e-09
-2.70963e-07
-5.25036e-07
-7.58581e-07
-9.73713e-07
5.34674e-06
4.5582e-06
3.85621e-06
3.2273e-06
2.66239e-06
2.15327e-06
1.69208e-06
1.27219e-06
8.88357e-07
5.36336e-07
2.12517e-07
-8.60919e-08
-3.6203e-07
-6.17423e-07
-8.54261e-07
5.51781e-06
4.76051e-06
4.07697e-06
3.45717e-06
2.89435e-06
2.38164e-06
1.91243e-06
1.48122e-06
1.08365e-06
7.16163e-07
3.75709e-07
5.9721e-08
-2.34036e-07
-5.07445e-07
-7.62269e-07
5.64356e-06
4.9134e-06
4.2469e-06
3.63703e-06
3.07809e-06
2.56412e-06
2.08965e-06
1.6502e-06
1.24213e-06
8.62448e-07
5.0859e-07
1.78395e-07
-1.30008e-07
-4.18198e-07
-6.87701e-07
5.73432e-06
5.0291e-06
4.37972e-06
3.78036e-06
3.22622e-06
2.71238e-06
2.23447e-06
1.78886e-06
1.37256e-06
9.83088e-07
6.1834e-07
2.76554e-07
-4.38174e-08
-3.44079e-07
-6.25545e-07
5.80105e-06
5.11902e-06
4.48537e-06
3.89576e-06
3.34646e-06
2.83348e-06
2.35331e-06
1.90305e-06
1.48025e-06
1.08291e-06
7.09299e-07
3.58024e-07
2.78175e-08
-2.82398e-07
-5.73743e-07
5.8508e-06
5.18908e-06
4.56939e-06
3.98875e-06
3.44418e-06
2.93246e-06
2.45082e-06
1.99697e-06
1.56896e-06
1.16518e-06
7.8427e-07
4.25127e-07
8.67411e-08
-2.31762e-07
-5.31333e-07
5.88747e-06
5.24346e-06
4.63623e-06
4.06374e-06
3.52357e-06
3.01321e-06
2.53057e-06
2.07386e-06
1.64157e-06
1.23244e-06
8.45426e-07
4.7969e-07
1.34442e-07
-1.91013e-07
-4.97479e-07
5.91417e-06
5.28566e-06
4.68945e-06
4.12418e-06
3.58796e-06
3.07893e-06
2.59554e-06
2.13647e-06
1.70058e-06
1.28694e-06
8.94768e-07
5.23453e-07
1.72398e-07
-1.58933e-07
-4.71213e-07
5.93339e-06
5.31839e-06
4.73185e-06
4.1729e-06
3.64014e-06
3.13231e-06
2.64832e-06
2.18725e-06
1.74828e-06
1.33077e-06
9.34181e-07
5.58098e-07
2.02086e-07
-1.3425e-07
-4.51467e-07
5.94705e-06
5.34381e-06
4.76571e-06
4.21224e-06
3.68248e-06
3.17569e-06
2.69117e-06
2.22834e-06
1.78668e-06
1.36581e-06
9.65399e-07
5.85196e-07
2.24917e-07
-1.15716e-07
-4.37153e-07
5.95664e-06
5.36365e-06
4.79287e-06
4.24412e-06
3.71695e-06
3.21102e-06
2.72599e-06
2.26158e-06
1.81755e-06
1.39372e-06
9.89957e-07
6.06161e-07
2.42175e-07
-1.02176e-07
-4.27245e-07
5.96331e-06
5.37924e-06
4.8148e-06
4.27011e-06
3.74514e-06
3.2399e-06
2.75437e-06
2.28853e-06
1.84236e-06
1.4159e-06
1.00917e-06
6.22214e-07
2.54982e-07
-9.26082e-08
-4.20826e-07
5.9679e-06
5.39159e-06
4.83262e-06
4.29142e-06
3.76831e-06
3.26361e-06
2.77757e-06
2.3104e-06
1.86231e-06
1.43349e-06
1.02413e-06
6.34375e-07
2.64284e-07
-8.61407e-08
-4.17101e-07
5.97102e-06
5.40145e-06
4.84719e-06
4.30896e-06
3.78741e-06
3.28313e-06
2.79657e-06
2.32819e-06
1.87835e-06
1.44742e-06
1.03571e-06
6.43474e-07
2.70863e-07
-8.20494e-08
-4.15403e-07
5.97312e-06
5.40946e-06
4.85927e-06
4.3236e-06
3.80336e-06
3.29936e-06
2.81231e-06
2.34279e-06
1.89137e-06
1.45853e-06
1.0447e-06
6.50236e-07
2.75369e-07
-7.97626e-08
-4.15237e-07
5.97453e-06
5.41635e-06
4.86988e-06
4.33652e-06
3.81744e-06
3.31366e-06
2.82607e-06
2.35545e-06
1.90249e-06
1.46782e-06
1.05197e-06
6.55387e-07
2.78379e-07
-7.88496e-08
-4.16317e-07
5.97545e-06
5.42226e-06
4.87928e-06
4.34811e-06
3.83009e-06
3.32646e-06
2.8383e-06
2.36656e-06
1.91208e-06
1.47562e-06
1.05783e-06
6.59249e-07
2.80274e-07
-7.88382e-08
-4.18119e-07
-1.16131e-05
-9.19757e-06
-7.72369e-06
-6.74727e-06
-5.96967e-06
-5.37516e-06
-4.91193e-06
-4.54251e-06
-4.24008e-06
-3.9826e-06
-3.75144e-06
-3.52986e-06
-3.30306e-06
-3.05848e-06
-2.78522e-06
-2.47941e-06
-2.14408e-06
-1.79961e-06
-1.48698e-06
-1.27687e-06
-1.27143e-06
-1.58585e-06
-2.24257e-06
-3.04472e-06
-3.78892e-06
-4.35334e-06
-4.67187e-06
-4.70705e-06
-4.43675e-06
-3.84768e-06
-2.93329e-06
-1.69777e-06
-1.58632e-07
1.65196e-06
3.68798e-06
5.89176e-06
8.19645e-06
1.05276e-05
1.28014e-05
1.49195e-05
1.67464e-05
1.81264e-05
1.86741e-05
1.80728e-05
1.51074e-05
-9.91596e-06
-8.65056e-06
-7.53145e-06
-6.65839e-06
-5.92723e-06
-5.34801e-06
-4.88972e-06
-4.52177e-06
-4.2197e-06
-3.96234e-06
-3.73133e-06
-3.50984e-06
-3.28316e-06
-3.03863e-06
-2.76579e-06
-2.46062e-06
-2.12643e-06
-1.7836e-06
-1.4727e-06
-1.26329e-06
-1.25581e-06
-1.56332e-06
-2.20807e-06
-2.99718e-06
-3.73085e-06
-4.28801e-06
-4.60268e-06
-4.63699e-06
-4.36882e-06
-3.78549e-06
-2.8819e-06
-1.66396e-06
-1.51374e-07
1.62122e-06
3.60473e-06
5.7374e-06
7.94647e-06
1.01483e-05
1.22442e-05
1.41102e-05
1.55639e-05
1.63355e-05
1.58915e-05
1.3477e-05
8.09494e-06
-9.02861e-06
-8.22653e-06
-7.33024e-06
-6.55238e-06
-5.87295e-06
-5.3149e-06
-4.86459e-06
-4.49931e-06
-4.19772e-06
-3.94036e-06
-3.70907e-06
-3.48735e-06
-3.26046e-06
-3.01596e-06
-2.74318e-06
-2.4387e-06
-2.10594e-06
-1.76526e-06
-1.45679e-06
-1.24875e-06
-1.23958e-06
-1.53979e-06
-2.17116e-06
-2.94528e-06
-3.66657e-06
-4.21503e-06
-4.525e-06
-4.55827e-06
-4.29289e-06
-3.71725e-06
-2.82793e-06
-1.63312e-06
-1.55276e-07
1.5677e-06
3.48276e-06
5.52297e-06
7.60827e-06
9.64435e-06
1.15168e-05
1.30778e-05
1.4118e-05
1.43284e-05
1.32311e-05
1.0297e-05
5.40613e-06
-8.46224e-06
-7.88014e-06
-7.15376e-06
-6.45282e-06
-5.82272e-06
-5.28703e-06
-4.84491e-06
-4.4815e-06
-4.17912e-06
-3.92025e-06
-3.68748e-06
-3.46444e-06
-3.23659e-06
-2.99154e-06
-2.71866e-06
-2.4149e-06
-2.08382e-06
-1.74568e-06
-1.44017e-06
-1.23397e-06
-1.22334e-06
-1.51592e-06
-2.13277e-06
-2.89025e-06
-3.59737e-06
-4.13534e-06
-4.43902e-06
-4.46998e-06
-4.20664e-06
-3.63891e-06
-2.76555e-06
-1.59774e-06
-1.61497e-07
1.50114e-06
3.33226e-06
5.25884e-06
7.19301e-06
9.03027e-06
1.06438e-05
1.18739e-05
1.25102e-05
1.22806e-05
1.0856e-05
7.9854e-06
3.90432e-06
-8.01803e-06
-7.57093e-06
-6.97913e-06
-6.36544e-06
-5.78022e-06
-5.26769e-06
-4.83345e-06
-4.47036e-06
-4.165e-06
-3.90247e-06
-3.6663e-06
-3.44038e-06
-3.21047e-06
-2.96413e-06
-2.69103e-06
-2.38822e-06
-2.0594e-06
-1.72469e-06
-1.42317e-06
-1.21973e-06
-1.20809e-06
-1.49261e-06
-2.09339e-06
-2.83211e-06
-3.52306e-06
-4.04887e-06
-4.3452e-06
-4.37355e-06
-4.11299e-06
-3.55541e-06
-2.70222e-06
-1.56813e-06
-1.83308e-07
1.40557e-06
3.13533e-06
4.92696e-06
6.68574e-06
8.30003e-06
9.63791e-06
1.05429e-05
1.08305e-05
1.03006e-05
8.77611e-06
6.20514e-06
2.85022e-06
-7.6389e-06
-7.2842e-06
-6.79834e-06
-6.27048e-06
-5.74095e-06
-5.25565e-06
-4.82975e-06
-4.46651e-06
-4.15626e-06
-3.88796e-06
-3.64623e-06
-3.41553e-06
-3.18213e-06
-2.93364e-06
-2.66005e-06
-2.35845e-06
-2.03268e-06
-1.70257e-06
-1.40645e-06
-1.20701e-06
-1.19503e-06
-1.47108e-06
-2.05397e-06
-2.7715e-06
-3.444e-06
-3.95582e-06
-4.24385e-06
-4.26974e-06
-4.01348e-06
-3.46948e-06
-2.64227e-06
-1.55053e-06
-2.28947e-07
1.27097e-06
2.88106e-06
4.51732e-06
6.08069e-06
7.45745e-06
8.51972e-06
9.12842e-06
9.14089e-06
8.4341e-06
6.94467e-06
4.73083e-06
2.03685e-06
-7.2878e-06
-7.0031e-06
-6.609e-06
-6.15388e-06
-5.68904e-06
-5.23841e-06
-4.82651e-06
-4.46643e-06
-4.15144e-06
-3.87654e-06
-3.62758e-06
-3.39027e-06
-3.15199e-06
-2.90048e-06
-2.62606e-06
-2.32601e-06
-2.00426e-06
-1.68017e-06
-1.39114e-06
-1.19724e-06
-1.1858e-06
-1.45304e-06
-2.01612e-06
-2.70969e-06
-3.36116e-06
-3.85693e-06
-4.13569e-06
-4.15943e-06
-3.90945e-06
-3.38331e-06
-2.58904e-06
-1.54961e-06
-3.04356e-07
1.09065e-06
2.56318e-06
4.02631e-06
5.38037e-06
6.51572e-06
7.31734e-06
7.67264e-06
7.48483e-06
6.69518e-06
5.30999e-06
3.42743e-06
1.24742e-06
-6.94317e-06
-6.7133e-06
-6.39616e-06
-6.01646e-06
-5.60877e-06
-5.19835e-06
-4.81286e-06
-4.46017e-06
-4.14523e-06
-3.86514e-06
-3.6085e-06
-3.36378e-06
-3.11982e-06
-2.86471e-06
-2.58943e-06
-2.29156e-06
-1.97511e-06
-1.6588e-06
-1.37893e-06
-1.19245e-06
-1.18264e-06
-1.4408e-06
-1.98198e-06
-2.64853e-06
-3.27609e-06
-3.75354e-06
-4.02215e-06
-4.04443e-06
-3.80326e-06
-3.3003e-06
-2.54718e-06
-1.5713e-06
-4.16393e-07
8.57738e-07
2.17655e-06
3.45315e-06
4.59179e-06
5.49245e-06
6.05979e-06
6.21063e-06
5.88891e-06
5.08061e-06
3.82661e-06
2.22807e-06
4.37672e-07
-6.59381e-06
-6.40756e-06
-6.15272e-06
-5.84052e-06
-5.49168e-06
-5.12869e-06
-4.7733e-06
-4.43711e-06
-4.12876e-06
-3.84674e-06
-3.58428e-06
-3.33344e-06
-3.08425e-06
-2.82582e-06
-2.55034e-06
-2.25586e-06
-1.94655e-06
-1.64031e-06
-1.37213e-06
-1.19532e-06
-1.18846e-06
-1.43732e-06
-1.95435e-06
-2.59056e-06
-3.19105e-06
-3.64748e-06
-3.90556e-06
-3.92782e-06
-3.6987e-06
-3.2254e-06
-2.523e-06
-1.62302e-06
-5.72869e-07
5.65419e-07
1.71739e-06
2.79969e-06
3.72535e-06
4.40729e-06
4.77312e-06
4.76739e-06
4.36476e-06
3.57742e-06
2.45811e-06
1.09584e-06
-3.96242e-07
-6.23267e-06
-6.08189e-06
-5.87734e-06
-5.62318e-06
-5.33105e-06
-5.01707e-06
-4.69787e-06
-4.38611e-06
-4.09028e-06
-3.81218e-06
-3.54874e-06
-3.295e-06
-3.04238e-06
-2.78246e-06
-2.50866e-06
-2.21975e-06
-1.92023e-06
-1.627e-06
-1.37361e-06
-1.20921e-06
-1.20685e-06
-1.44623e-06
-1.93673e-06
-2.53901e-06
-3.1092e-06
-3.54193e-06
-3.789e-06
-3.81371e-06
-3.60103e-06
-3.16527e-06
-2.52434e-06
-1.71324e-06
-7.81768e-07
2.07902e-07
1.18422e-06
2.07058e-06
2.79075e-06
3.2786e-06
3.47821e-06
3.35804e-06
2.91328e-06
2.16843e-06
1.17558e-06
7.27719e-09
-1.25357e-06
-5.85438e-06
-5.73341e-06
-5.57008e-06
-5.36518e-06
-5.12447e-06
-4.85826e-06
-4.5787e-06
-4.29671e-06
-4.02022e-06
-3.75305e-06
-3.49486e-06
-3.24281e-06
-2.99078e-06
-2.73295e-06
-2.4642e-06
-2.18421e-06
-1.8981e-06
-1.62164e-06
-1.38673e-06
-1.23791e-06
-1.24188e-06
-1.47165e-06
-1.93319e-06
-2.49779e-06
-3.03408e-06
-3.44471e-06
-3.67745e-06
-3.70343e-06
-3.51613e-06
-3.12786e-06
-2.56007e-06
-1.85074e-06
-1.05032e-06
-2.18636e-07
5.78586e-07
1.27473e-06
1.80679e-06
2.12427e-06
2.19059e-06
1.9901e-06
1.52937e-06
8.3636e-07
-4.32419e-08
-1.05276e-06
-2.13164e-06
-5.45515e-06
-5.36006e-06
-5.2313e-06
-5.06815e-06
-4.87292e-06
-4.6516e-06
-4.4124e-06
-4.1637e-06
-3.91238e-06
-3.66287e-06
-3.41649e-06
-3.17223e-06
-2.92656e-06
-2.67598e-06
-2.41704e-06
-2.15061e-06
-1.88255e-06
-1.62738e-06
-1.41514e-06
-1.2855e-06
-1.29782e-06
-1.51794e-06
-1.94826e-06
-2.47154e-06
-2.97124e-06
-3.36035e-06
-3.57725e-06
-3.60678e-06
-3.45348e-06
-3.12251e-06
-2.63935e-06
-2.04337e-06
-1.38353e-06
-7.1476e-07
-9.46681e-08
4.2116e-07
7.85176e-07
9.59277e-07
9.21483e-07
6.66588e-07
2.06263e-07
-4.33063e-07
-1.21392e-06
-2.09318e-06
-3.02659e-06
-5.03334e-06
-4.96136e-06
-4.86233e-06
-4.73497e-06
-4.57973e-06
-4.39971e-06
-4.20002e-06
-3.98656e-06
-3.76478e-06
-3.53882e-06
-3.3108e-06
-3.08125e-06
-2.84865e-06
-2.61156e-06
-2.36843e-06
-2.12118e-06
-1.87661e-06
-1.64782e-06
-1.4627e-06
-1.35599e-06
-1.37874e-06
-1.58939e-06
-1.98662e-06
-2.46526e-06
-2.92538e-06
-3.28744e-06
-3.49544e-06
-3.53843e-06
-3.42314e-06
-3.15892e-06
-2.77069e-06
-2.29663e-06
-1.78258e-06
-1.2762e-06
-8.25522e-07
-4.73705e-07
-2.57163e-07
-2.01503e-07
-3.19292e-07
-6.099e-07
-1.06055e-06
-1.64864e-06
-2.34482e-06
-3.11687e-06
-3.93243e-06
-4.58957e-06
-4.53891e-06
-4.46625e-06
-4.37028e-06
-4.25052e-06
-4.10831e-06
-3.94656e-06
-3.76913e-06
-3.57996e-06
-3.38254e-06
-3.17914e-06
-2.97126e-06
-2.75887e-06
-2.54223e-06
-2.32159e-06
-2.09976e-06
-1.88442e-06
-1.68725e-06
-1.53348e-06
-1.45324e-06
-1.48838e-06
-1.68995e-06
-2.05289e-06
-2.48466e-06
-2.90356e-06
-3.23918e-06
-3.44167e-06
-3.50342e-06
-3.43392e-06
-3.24515e-06
-2.95971e-06
-2.61185e-06
-2.24336e-06
-1.8932e-06
-1.5983e-06
-1.3923e-06
-1.30129e-06
-1.34183e-06
-1.52037e-06
-1.8337e-06
-2.27019e-06
-2.81178e-06
-3.43624e-06
-4.11988e-06
-4.83914e-06
-4.12639e-06
-4.09631e-06
-4.04811e-06
-3.98068e-06
-3.89321e-06
-3.78604e-06
-3.66068e-06
-3.51951e-06
-3.36516e-06
-3.20035e-06
-3.02719e-06
-2.84759e-06
-2.66255e-06
-2.4735e-06
-2.28226e-06
-2.09222e-06
-1.91168e-06
-1.751e-06
-1.63214e-06
-1.58112e-06
-1.63039e-06
-1.82311e-06
-2.15182e-06
-2.53639e-06
-2.91323e-06
-3.22488e-06
-3.42749e-06
-3.5136e-06
-3.49529e-06
-3.38686e-06
-3.20799e-06
-2.98697e-06
-2.75523e-06
-2.5469e-06
-2.39114e-06
-2.31149e-06
-2.32519e-06
-2.44258e-06
-2.66676e-06
-2.99406e-06
-3.415e-06
-3.91586e-06
-4.48031e-06
-5.09117e-06
-5.73144e-06
-3.64892e-06
-3.63977e-06
-3.61554e-06
-3.57538e-06
-3.51846e-06
-3.44468e-06
-3.35473e-06
-3.25002e-06
-3.13223e-06
-3.00339e-06
-2.86528e-06
-2.71988e-06
-2.56882e-06
-2.41416e-06
-2.25882e-06
-2.10655e-06
-1.96565e-06
-1.84547e-06
-1.764e-06
-1.74367e-06
-1.80828e-06
-1.99235e-06
-2.28827e-06
-2.6274e-06
-2.96234e-06
-3.25248e-06
-3.46047e-06
-3.57658e-06
-3.61236e-06
-3.58331e-06
-3.50608e-06
-3.40217e-06
-3.2968e-06
-3.2155e-06
-3.17969e-06
-3.20557e-06
-3.30419e-06
-3.4818e-06
-3.7399e-06
-4.0754e-06
-4.48123e-06
-4.94742e-06
-5.46228e-06
-6.01361e-06
-6.58923e-06
-3.16613e-06
-3.17942e-06
-3.17993e-06
-3.16717e-06
-3.14052e-06
-3.09971e-06
-3.04503e-06
-2.97729e-06
-2.89762e-06
-2.80748e-06
-2.70837e-06
-2.60207e-06
-2.49053e-06
-2.37602e-06
-2.26202e-06
-2.15238e-06
-2.05469e-06
-1.97756e-06
-1.93463e-06
-1.94477e-06
-2.02513e-06
-2.20091e-06
-2.46594e-06
-2.76339e-06
-3.06017e-06
-3.33097e-06
-3.5468e-06
-3.69549e-06
-3.78481e-06
-3.82966e-06
-3.84475e-06
-3.8456e-06
-3.8499e-06
-3.87571e-06
-3.93825e-06
-4.04854e-06
-4.21363e-06
-4.43726e-06
-4.72013e-06
-5.05996e-06
-5.45185e-06
-5.88894e-06
-6.3632e-06
-6.86613e-06
-7.38915e-06
-2.69164e-06
-2.73007e-06
-2.7574e-06
-2.77342e-06
-2.7779e-06
-2.77069e-06
-2.75191e-06
-2.72203e-06
-2.68186e-06
-2.63251e-06
-2.57526e-06
-2.51159e-06
-2.44346e-06
-2.37312e-06
-2.30399e-06
-2.23985e-06
-2.18688e-06
-2.1529e-06
-2.14786e-06
-2.18673e-06
-2.28223e-06
-2.44982e-06
-2.68617e-06
-2.94909e-06
-3.21372e-06
-3.46632e-06
-3.68842e-06
-3.86748e-06
-4.00588e-06
-4.1154e-06
-4.20835e-06
-4.2959e-06
-4.38948e-06
-4.50084e-06
-4.64027e-06
-4.81524e-06
-5.03035e-06
-5.28801e-06
-5.5885e-06
-5.93019e-06
-6.30982e-06
-6.72295e-06
-7.16433e-06
-7.62825e-06
-8.10877e-06
-2.24181e-06
-2.30892e-06
-2.36633e-06
-2.41386e-06
-2.45155e-06
-2.47951e-06
-2.49792e-06
-2.50712e-06
-2.50771e-06
-2.50056e-06
-2.48678e-06
-2.46763e-06
-2.44481e-06
-2.42038e-06
-2.39726e-06
-2.37887e-06
-2.36978e-06
-2.37622e-06
-2.40511e-06
-2.46801e-06
-2.5764e-06
-2.73642e-06
-2.94782e-06
-3.18224e-06
-3.42097e-06
-3.65717e-06
-3.88143e-06
-4.08358e-06
-4.26182e-06
-4.42288e-06
-4.57602e-06
-4.72946e-06
-4.88999e-06
-5.06451e-06
-5.25978e-06
-5.481e-06
-5.73162e-06
-6.01307e-06
-6.32513e-06
-6.66666e-06
-7.03579e-06
-7.42981e-06
-7.84535e-06
-8.27868e-06
-8.72583e-06
-1.83957e-06
-1.93958e-06
-2.03073e-06
-2.11298e-06
-2.18648e-06
-2.25152e-06
-2.30843e-06
-2.35756e-06
-2.39941e-06
-2.43465e-06
-2.46418e-06
-2.4891e-06
-2.51081e-06
-2.531e-06
-2.55193e-06
-2.57658e-06
-2.60795e-06
-2.65056e-06
-2.70981e-06
-2.79217e-06
-2.90331e-06
-3.05403e-06
-3.24347e-06
-3.45296e-06
-3.66986e-06
-3.89042e-06
-4.11067e-06
-4.32543e-06
-4.53074e-06
-4.72752e-06
-4.92205e-06
-5.12046e-06
-5.32693e-06
-5.54539e-06
-5.77924e-06
-6.03099e-06
-6.30393e-06
-6.59976e-06
-6.91771e-06
-7.25681e-06
-7.61633e-06
-7.99479e-06
-8.38998e-06
-8.79941e-06
-9.22064e-06
-1.52544e-06
-1.65952e-06
-1.78491e-06
-1.90165e-06
-2.01004e-06
-2.11048e-06
-2.20339e-06
-2.28912e-06
-2.36809e-06
-2.44084e-06
-2.50803e-06
-2.57058e-06
-2.62966e-06
-2.6865e-06
-2.7428e-06
-2.80086e-06
-2.86194e-06
-2.9301e-06
-3.00879e-06
-3.10295e-06
-3.2188e-06
-3.36355e-06
-3.5362e-06
-3.72483e-06
-3.9234e-06
-4.12903e-06
-4.33673e-06
-4.55052e-06
-4.76757e-06
-4.9862e-06
-5.20348e-06
-5.42044e-06
-5.64781e-06
-5.89328e-06
-6.15216e-06
-6.42267e-06
-6.7091e-06
-7.01235e-06
-7.33214e-06
-7.66847e-06
-8.02105e-06
-8.3889e-06
-8.77054e-06
-9.16435e-06
-9.56869e-06
-1.31335e-06
-1.47826e-06
-1.63389e-06
-1.78056e-06
-1.9187e-06
-2.04873e-06
-2.17101e-06
-2.28588e-06
-2.39367e-06
-2.4948e-06
-2.58992e-06
-2.67975e-06
-2.76516e-06
-2.84729e-06
-2.92721e-06
-3.00619e-06
-3.0874e-06
-3.17242e-06
-3.2643e-06
-3.36646e-06
-3.48354e-06
-3.62224e-06
-3.78287e-06
-3.95492e-06
-4.13813e-06
-4.32897e-06
-4.52299e-06
-4.72646e-06
-4.9375e-06
-5.15296e-06
-5.37545e-06
-5.60988e-06
-5.85375e-06
-6.10758e-06
-6.37404e-06
-6.6527e-06
-6.94467e-06
-7.25085e-06
-7.57149e-06
-7.90641e-06
-8.25518e-06
-8.61717e-06
-8.99158e-06
-9.37735e-06
-9.77324e-06
-1.17454e-06
-1.36457e-06
-1.54473e-06
-1.71535e-06
-1.87683e-06
-2.02949e-06
-2.17364e-06
-2.30963e-06
-2.43785e-06
-2.55874e-06
-2.67278e-06
-2.78054e-06
-2.8828e-06
-2.98091e-06
-3.07537e-06
-3.16763e-06
-3.25954e-06
-3.35327e-06
-3.45087e-06
-3.55579e-06
-3.67194e-06
-3.80438e-06
-3.95496e-06
-4.11817e-06
-4.29008e-06
-4.46472e-06
-4.6481e-06
-4.84452e-06
-5.0531e-06
-5.27119e-06
-5.49633e-06
-5.72997e-06
-5.9759e-06
-6.23328e-06
-6.50264e-06
-6.78444e-06
-7.07915e-06
-7.38714e-06
-7.70851e-06
-8.04316e-06
-8.39076e-06
-8.75083e-06
-9.12279e-06
-9.50596e-06
-9.89939e-06
-1.07637e-06
-1.28699e-06
-1.48695e-06
-1.67653e-06
-1.85609e-06
-2.02594e-06
-2.18642e-06
-2.33782e-06
-2.48054e-06
-2.61504e-06
-2.74185e-06
-2.86161e-06
-2.97511e-06
-3.0827e-06
-3.186e-06
-3.28613e-06
-3.38454e-06
-3.483e-06
-3.58383e-06
-3.69003e-06
-3.80543e-06
-3.93488e-06
-4.07857e-06
-4.23119e-06
-4.39206e-06
-4.56248e-06
-4.74357e-06
-4.93472e-06
-5.13572e-06
-5.34699e-06
-5.56941e-06
-5.80302e-06
-6.04864e-06
-6.30642e-06
-6.57662e-06
-6.8596e-06
-7.15557e-06
-7.46471e-06
-7.78705e-06
-8.12244e-06
-8.47062e-06
-8.83128e-06
-9.20387e-06
-9.58767e-06
-9.98195e-06
-1.00189e-06
-1.22918e-06
-1.44486e-06
-1.64923e-06
-1.84262e-06
-2.0254e-06
-2.19788e-06
-2.3604e-06
-2.51339e-06
-2.65733e-06
-2.79281e-06
-2.92041e-06
-3.0409e-06
-3.15507e-06
-3.26404e-06
-3.36901e-06
-3.4714e-06
-3.57299e-06
-3.67603e-06
-3.78329e-06
-3.89828e-06
-4.02498e-06
-4.16358e-06
-4.31112e-06
-4.46719e-06
-4.63208e-06
-4.80659e-06
-4.99168e-06
-5.18803e-06
-5.39606e-06
-5.61596e-06
-5.84794e-06
-6.09244e-06
-6.34976e-06
-6.62008e-06
-6.90361e-06
-7.2005e-06
-7.51082e-06
-7.83457e-06
-8.17163e-06
-8.52174e-06
-8.88451e-06
-9.25941e-06
-9.6459e-06
-1.00434e-05
-9.41492e-07
-1.1821e-06
-1.4102e-06
-1.62611e-06
-1.83019e-06
-2.02278e-06
-2.20424e-06
-2.37496e-06
-2.53539e-06
-2.68602e-06
-2.82752e-06
-2.96052e-06
-3.08582e-06
-3.2043e-06
-3.31704e-06
-3.42529e-06
-3.53049e-06
-3.63439e-06
-3.73914e-06
-3.8473e-06
-3.96208e-06
-4.08729e-06
-4.22307e-06
-4.36676e-06
-4.51828e-06
-4.67878e-06
-4.84935e-06
-5.03081e-06
-5.22374e-06
-5.42865e-06
-5.64601e-06
-5.87616e-06
-6.11941e-06
-6.37605e-06
-6.64625e-06
-6.93018e-06
-7.22792e-06
-7.53954e-06
-7.86502e-06
-8.2042e-06
-8.55679e-06
-8.92243e-06
-9.30072e-06
-9.69116e-06
-1.00932e-05
-8.90846e-07
-1.1422e-06
-1.38023e-06
-1.60529e-06
-1.81773e-06
-2.01792e-06
-2.20622e-06
-2.38307e-06
-2.54892e-06
-2.70446e-06
-2.85027e-06
-2.9871e-06
-3.1158e-06
-3.23732e-06
-3.35277e-06
-3.46341e-06
-3.57072e-06
-3.6764e-06
-3.78254e-06
-3.89155e-06
-4.0065e-06
-4.13077e-06
-4.26431e-06
-4.40518e-06
-4.55384e-06
-4.71151e-06
-4.87913e-06
-5.05755e-06
-5.24758e-06
-5.44992e-06
-5.66511e-06
-5.89355e-06
-6.1356e-06
-6.39154e-06
-6.66156e-06
-6.94584e-06
-7.24446e-06
-7.55745e-06
-7.88476e-06
-8.22625e-06
-8.58167e-06
-8.95071e-06
-9.33296e-06
-9.7279e-06
-1.01349e-05
-8.48503e-07
-1.10862e-06
-1.35471e-06
-1.58709e-06
-1.80615e-06
-2.01226e-06
-2.20582e-06
-2.3873e-06
-2.55728e-06
-2.71641e-06
-2.86539e-06
-3.005e-06
-3.13617e-06
-3.25989e-06
-3.37731e-06
-3.48973e-06
-3.59863e-06
-3.7057e-06
-3.81297e-06
-3.92274e-06
-4.03785e-06
-4.16132e-06
-4.29316e-06
-4.43206e-06
-4.57861e-06
-4.73394e-06
-4.89906e-06
-5.07499e-06
-5.26266e-06
-5.46285e-06
-5.67616e-06
-5.9031e-06
-6.14405e-06
-6.39934e-06
-6.66918e-06
-6.95378e-06
-7.25324e-06
-7.56759e-06
-7.89678e-06
-8.24068e-06
-8.59909e-06
-8.97167e-06
-9.35803e-06
-9.75762e-06
-1.01699e-05
-8.13941e-07
-1.08128e-06
-1.33391e-06
-1.57221e-06
-1.79654e-06
-2.0073e-06
-2.20493e-06
-2.38996e-06
-2.56306e-06
-2.72485e-06
-2.87614e-06
-3.01777e-06
-3.1507e-06
-3.27598e-06
-3.39482e-06
-3.50852e-06
-3.61858e-06
-3.72668e-06
-3.83479e-06
-3.94506e-06
-4.06019e-06
-4.18287e-06
-4.31322e-06
-4.45042e-06
-4.59512e-06
-4.7484e-06
-4.91139e-06
-5.08522e-06
-5.27087e-06
-5.46919e-06
-5.68085e-06
-5.90642e-06
-6.14635e-06
-6.401e-06
-6.67067e-06
-6.95556e-06
-7.25581e-06
-7.57146e-06
-7.90249e-06
-8.24879e-06
-8.61015e-06
-8.98623e-06
-9.37665e-06
-9.78089e-06
-1.01984e-05
-7.86634e-07
-1.05993e-06
-1.31795e-06
-1.56103e-06
-1.78958e-06
-2.004e-06
-2.2048e-06
-2.39255e-06
-2.56792e-06
-2.73168e-06
-2.88462e-06
-3.02765e-06
-3.16179e-06
-3.28813e-06
-3.40792e-06
-3.52247e-06
-3.63331e-06
-3.74207e-06
-3.85067e-06
-3.96116e-06
-4.07608e-06
-4.19783e-06
-4.32669e-06
-4.46227e-06
-4.60521e-06
-4.75662e-06
-4.91771e-06
-5.08965e-06
-5.27349e-06
-5.47011e-06
-5.68025e-06
-5.90455e-06
-6.14351e-06
-6.39756e-06
-6.66703e-06
-6.95217e-06
-7.25314e-06
-7.57002e-06
-7.90281e-06
-8.2514e-06
-8.6156e-06
-8.99508e-06
-9.38947e-06
-9.79826e-06
-1.02209e-05
-7.65862e-07
-1.04413e-06
-1.30657e-06
-1.55355e-06
-1.78547e-06
-2.00277e-06
-2.206e-06
-2.39578e-06
-2.57284e-06
-2.73797e-06
-2.89204e-06
-3.03598e-06
-3.17087e-06
-3.29786e-06
-3.4182e-06
-3.53323e-06
-3.64449e-06
-3.75356e-06
-3.86233e-06
-3.97274e-06
-4.0872e-06
-4.20786e-06
-4.33516e-06
-4.46911e-06
-4.61034e-06
-4.75996e-06
-4.91926e-06
-5.08945e-06
-5.27159e-06
-5.46662e-06
-5.67534e-06
-5.89844e-06
-6.13648e-06
-6.38994e-06
-6.65919e-06
-6.94453e-06
-7.24616e-06
-7.56418e-06
-7.89862e-06
-8.24938e-06
-8.61628e-06
-8.99903e-06
-9.39723e-06
-9.81038e-06
-1.02379e-05
-7.50754e-07
-1.03318e-06
-1.29928e-06
-1.54942e-06
-1.78403e-06
-2.00359e-06
-2.20867e-06
-2.39996e-06
-2.57821e-06
-2.74425e-06
-2.89903e-06
-3.04348e-06
-3.17877e-06
-3.30606e-06
-3.42662e-06
-3.54182e-06
-3.65319e-06
-3.76229e-06
-3.87095e-06
-3.98102e-06
-4.09478e-06
-4.21421e-06
-4.33988e-06
-4.47216e-06
-4.61167e-06
-4.75956e-06
-4.91714e-06
-5.08566e-06
-5.26619e-06
-5.45972e-06
-5.6671e-06
-5.88905e-06
-6.1262e-06
-6.37907e-06
-6.64809e-06
-6.9336e-06
-7.23581e-06
-7.55489e-06
-7.89086e-06
-8.24366e-06
-8.61312e-06
-8.99896e-06
-9.40077e-06
-9.81807e-06
-1.02502e-05
-7.40381e-07
-1.02631e-06
-1.29544e-06
-1.54817e-06
-1.78493e-06
-2.00624e-06
-2.21272e-06
-2.40509e-06
-2.58414e-06
-2.75074e-06
-2.90585e-06
-3.05057e-06
-3.18598e-06
-3.31329e-06
-3.43382e-06
-3.54894e-06
-3.66017e-06
-3.76905e-06
-3.87738e-06
-3.9869e-06
-4.0998e-06
-4.21786e-06
-4.34186e-06
-4.47244e-06
-4.61024e-06
-4.75643e-06
-4.91236e-06
-5.07927e-06
-5.25827e-06
-5.45037e-06
-5.65645e-06
-5.87731e-06
-6.1136e-06
-6.3659e-06
-6.63467e-06
-6.92029e-06
-7.22304e-06
-7.54307e-06
-7.88046e-06
-8.23515e-06
-8.607e-06
-8.99573e-06
-9.40095e-06
-9.82214e-06
-1.02587e-05
-7.33843e-07
-1.02273e-06
-1.2944e-06
-1.54925e-06
-1.78773e-06
-2.01041e-06
-2.21793e-06
-2.41106e-06
-2.59061e-06
-2.75751e-06
-2.91276e-06
-3.05747e-06
-3.19276e-06
-3.31989e-06
-3.4402e-06
-3.55504e-06
-3.66595e-06
-3.77444e-06
-3.88226e-06
-3.99108e-06
-4.10299e-06
-4.21963e-06
-4.34193e-06
-4.4708e-06
-4.6069e-06
-4.75144e-06
-4.90578e-06
-5.07114e-06
-5.24867e-06
-5.4394e-06
-5.64425e-06
-5.86406e-06
-6.09952e-06
-6.35125e-06
-6.61976e-06
-6.90547e-06
-7.20867e-06
-7.52957e-06
-7.86825e-06
-8.22469e-06
-8.59875e-06
-8.99016e-06
-9.39854e-06
-9.82336e-06
-1.0264e-05
-7.30326e-07
-1.02174e-06
-1.29554e-06
-1.55213e-06
-1.79201e-06
-2.01575e-06
-2.22405e-06
-2.41768e-06
-2.59752e-06
-2.76452e-06
-2.91972e-06
-3.06425e-06
-3.19928e-06
-3.32608e-06
-3.44601e-06
-3.56044e-06
-3.67089e-06
-3.77886e-06
-3.88605e-06
-3.99408e-06
-4.10492e-06
-4.2201e-06
-4.34072e-06
-4.4679e-06
-4.60235e-06
-4.7453e-06
-4.8981e-06
-5.06198e-06
-5.2381e-06
-5.42753e-06
-5.63121e-06
-5.85e-06
-6.08466e-06
-6.33584e-06
-6.60408e-06
-6.88983e-06
-7.19342e-06
-7.51509e-06
-7.85494e-06
-8.21298e-06
-8.58906e-06
-8.98294e-06
-9.39423e-06
-9.82241e-06
-1.02668e-05
-7.29115e-07
-1.02269e-06
-1.2983e-06
-1.55634e-06
-1.79735e-06
-2.02192e-06
-2.23078e-06
-2.42474e-06
-2.6047e-06
-2.77165e-06
-2.92667e-06
-3.07091e-06
-3.20558e-06
-3.33194e-06
-3.45141e-06
-3.56534e-06
-3.67524e-06
-3.7826e-06
-3.88909e-06
-3.99626e-06
-4.10602e-06
-4.21976e-06
-4.33872e-06
-4.46426e-06
-4.59713e-06
-4.73856e-06
-4.88989e-06
-5.05236e-06
-5.22715e-06
-5.41533e-06
-5.6179e-06
-5.83573e-06
-6.06962e-06
-6.32026e-06
-6.58821e-06
-6.87397e-06
-7.1779e-06
-7.50024e-06
-7.84114e-06
-8.20062e-06
-8.57854e-06
-8.97466e-06
-9.38861e-06
-9.81986e-06
-1.02678e-05
-7.29598e-07
-1.02504e-06
-1.30217e-06
-1.56143e-06
-1.80335e-06
-2.02857e-06
-2.23783e-06
-2.43198e-06
-2.61195e-06
-2.77876e-06
-2.93352e-06
-3.07739e-06
-3.21162e-06
-3.33751e-06
-3.45645e-06
-3.56982e-06
-3.67912e-06
-3.78584e-06
-3.89159e-06
-3.99789e-06
-4.10657e-06
-4.21891e-06
-4.33629e-06
-4.46027e-06
-4.59164e-06
-4.73163e-06
-4.88158e-06
-5.04273e-06
-5.21627e-06
-5.40329e-06
-5.6048e-06
-5.82173e-06
-6.05489e-06
-6.305e-06
-6.57267e-06
-6.85841e-06
-7.16261e-06
-7.48554e-06
-7.82737e-06
-8.18812e-06
-8.5677e-06
-8.96585e-06
-9.3822e-06
-9.81622e-06
-1.02673e-05
-7.3135e-07
-1.02841e-06
-1.30685e-06
-1.56713e-06
-1.80979e-06
-2.03551e-06
-2.24506e-06
-2.4393e-06
-2.61919e-06
-2.78578e-06
-2.94021e-06
-3.08367e-06
-3.21741e-06
-3.34282e-06
-3.46119e-06
-3.57398e-06
-3.68267e-06
-3.78872e-06
-3.89373e-06
-3.99916e-06
-4.10677e-06
-4.21776e-06
-4.33362e-06
-4.45612e-06
-4.58608e-06