/*--------------------------------*- C++ -*----------------------------------*\
| =========                 |                                                 |
| \\      /  F ield         | OpenFOAM: The Open Source CFD Toolbox           |
|  \\    /   O peration     | Version:  2312                                  |
|   \\  /    A nd           | Website:  www.openfoam.com                      |
|    \\/     M anipulation  |                                                 |
\*---------------------------------------------------------------------------*/
FoamFile
{
    version     2.0;
    format      ascii;
    arch        "LSB;label=32;scalar=64";
    class       surfaceScalarField;
    location    "139.25";
    object      phi;
}
// * * * * * * * * * * * * * * * * * * * * * * * * * * * * * * * * * * * * * //

dimensions      [0 3 -1 0 0 0 0];

oriented        oriented;

internalField   nonuniform List<scalar> 
9445
(
5.69911e-10
1.32683e-11
5.6222e-10
7.69117e-12
5.58017e-10
4.20284e-12
5.56168e-10
1.84932e-12
5.56012e-10
1.56301e-13
5.57087e-10
-1.07553e-12
5.59087e-10
-1.99942e-12
5.62097e-10
-3.01027e-12
5.6624e-10
-4.14288e-12
5.71842e-10
-5.60232e-12
5.7998e-10
-8.13781e-12
5.94159e-10
-1.41787e-11
6.26638e-10
-3.24793e-11
7.20064e-10
-9.34258e-11
-2.39534e-10
9.59598e-10
1.99307e-09
5.77414e-11
1.96724e-09
3.35259e-11
1.95302e-09
1.84229e-11
1.94661e-09
8.25293e-12
1.94575e-09
1.02135e-12
1.94876e-09
-4.08368e-12
1.95484e-09
-8.08221e-12
1.96409e-09
-1.22641e-11
1.9768e-09
-1.68448e-11
1.99396e-09
-2.27621e-11
2.01831e-09
-3.24926e-11
2.05656e-09
-5.2429e-11
2.12161e-09
-9.75316e-11
2.22538e-09
-1.97193e-10
-3.47403e-10
2.33325e-09
3.93946e-09
1.4206e-10
3.89033e-09
8.26575e-11
3.8631e-09
4.56543e-11
3.85053e-09
2.08229e-11
3.84823e-09
3.32139e-12
3.85297e-09
-8.82128e-12
3.86335e-09
-1.84693e-11
3.87932e-09
-2.82317e-11
3.90099e-09
-3.85158e-11
3.92963e-09
-5.13958e-11
3.96794e-09
-7.08068e-11
4.02043e-09
-1.04917e-10
4.08969e-09
-1.6679e-10
4.16235e-09
-2.69856e-10
-3.89018e-10
4.20397e-09
6.55414e-09
2.75884e-10
6.47576e-09
1.61037e-10
6.43189e-09
8.95243e-11
6.41096e-09
4.17557e-11
6.40596e-09
8.32345e-12
6.41178e-09
-1.46493e-11
6.42607e-09
-3.27553e-11
6.44837e-09
-5.05317e-11
6.47817e-09
-6.83136e-11
6.51617e-09
-8.93966e-11
6.56343e-09
-1.18068e-10
6.61968e-09
-1.61171e-10
6.67873e-09
-2.2584e-10
6.72158e-09
-3.12704e-10
-3.95515e-10
6.72808e-09
1.00129e-08
4.68956e-10
9.89889e-09
2.74999e-10
9.83429e-09
1.54126e-10
9.80222e-09
7.38269e-11
9.79263e-09
1.79068e-11
9.79833e-09
-2.03419e-11
9.81544e-09
-4.98713e-11
9.84266e-09
-7.77521e-11
9.87848e-09
-1.0413e-10
9.92226e-09
-1.33181e-10
9.97269e-09
-1.68497e-10
1.00255e-08
-2.13969e-10
1.00708e-08
-2.7114e-10
1.00929e-08
-3.34781e-10
-3.86072e-10
1.00834e-08
1.45235e-08
7.28933e-10
1.43684e-08
4.30112e-10
1.42791e-08
2.43403e-10
1.4233e-08
1.19971e-10
1.42164e-08
3.44626e-11
1.422e-08
-2.39711e-11
1.42384e-08
-6.82165e-11
1.42682e-08
-1.07552e-10
1.43069e-08
-1.42876e-10
1.43522e-08
-1.78512e-10
1.44007e-08
-2.16959e-10
1.44461e-08
-2.5938e-10
1.44791e-08
-3.04167e-10
1.44899e-08
-3.45577e-10
-3.73157e-10
1.4477e-08
2.03241e-08
1.0572e-09
2.01254e-08
6.28773e-10
2.00091e-08
3.59713e-10
1.99467e-08
1.82358e-10
1.99209e-08
6.02687e-11
1.99204e-08
-2.34773e-11
1.99378e-08
-8.56146e-11
1.99675e-08
-1.37161e-10
2.00057e-08
-1.81109e-10
2.00486e-08
-2.21396e-10
2.00914e-08
-2.59754e-10
2.0128e-08
-2.95983e-10
2.01517e-08
-3.279e-10
2.01579e-08
-3.51733e-10
-3.63046e-10
2.01477e-08
2.76762e-08
1.44222e-09
2.74389e-08
8.66078e-10
2.72975e-08
5.01187e-10
2.72192e-08
2.60615e-10
2.71836e-08
9.59046e-11
2.71776e-08
-1.74688e-11
2.71918e-08
-9.98667e-11
2.72189e-08
-1.64229e-10
2.72537e-08
-2.15937e-10
2.72913e-08
-2.58985e-10
2.73266e-08
-2.95094e-10
2.73549e-08
-3.24208e-10
2.73722e-08
-3.45198e-10
2.73771e-08
-3.56688e-10
-3.57739e-10
2.73718e-08
3.68547e-08
1.85192e-09
3.65963e-08
1.12444e-09
3.64396e-08
6.57926e-10
3.63511e-08
3.49129e-10
3.63086e-08
1.38347e-10
3.62981e-08
-6.96625e-12
3.63089e-08
-1.10621e-10
3.63324e-08
-1.87738e-10
3.63625e-08
-2.46064e-10
3.63939e-08
-2.90421e-10
3.64222e-08
-3.23369e-10
3.6444e-08
-3.46008e-10
3.64576e-08
-3.58815e-10
3.64633e-08
-3.62339e-10
-3.57455e-10
3.6463e-08
4.81427e-08
2.2311e-09
4.78971e-08
1.37006e-09
4.77462e-08
8.08787e-10
4.7661e-08
4.34394e-10
4.76205e-08
1.78848e-10
4.76108e-08
2.65245e-12
4.76213e-08
-1.21046e-10
4.76431e-08
-2.09563e-10
4.767e-08
-2.72986e-10
4.76972e-08
-3.17594e-10
4.77212e-08
-3.47349e-10
4.774e-08
-3.64855e-10
4.77533e-08
-3.7206e-10
4.77617e-08
-3.7079e-10
-3.62796e-10
4.7767e-08
6.18544e-08
2.51522e-09
6.16659e-08
1.5586e-09
6.15512e-08
9.2344e-10
6.14901e-08
4.95525e-10
6.14661e-08
2.02809e-10
6.14677e-08
1.10877e-12
6.14852e-08
-1.38534e-10
6.1511e-08
-2.35361e-10
6.15397e-08
-3.01682e-10
6.15675e-08
-3.4548e-10
6.15924e-08
-3.7221e-10
6.16134e-08
-3.85822e-10
6.16306e-08
-3.89332e-10
6.16451e-08
-3.85289e-10
-3.75824e-10
6.16582e-08
7.84065e-08
2.66548e-09
7.83086e-08
1.6565e-09
7.82564e-08
9.75551e-10
7.82394e-08
5.12595e-10
7.82469e-08
1.9524e-10
7.82712e-08
-2.31599e-11
7.83049e-08
-1.72225e-10
7.83424e-08
-2.72865e-10
7.838e-08
-3.39259e-10
7.84154e-08
-3.80925e-10
7.84477e-08
-4.04526e-10
7.84769e-08
-4.14948e-10
7.85034e-08
-4.15838e-10
7.85282e-08
-4.10085e-10
-3.99928e-10
7.85523e-08
9.84128e-08
2.70023e-09
9.84016e-08
1.66774e-09
9.84136e-08
9.6357e-10
9.84439e-08
4.82304e-10
9.84866e-08
1.52475e-10
9.85375e-08
-7.40213e-11
9.85913e-08
-2.26041e-10
9.86447e-08
-3.26281e-10
9.86958e-08
-3.90307e-10
9.87436e-08
-4.28767e-10
9.87882e-08
-4.49117e-10
9.883e-08
-4.56755e-10
9.88698e-08
-4.55628e-10
9.89084e-08
-4.48714e-10
-4.38225e-10
9.89467e-08
1.2268e-07
2.67711e-09
1.22715e-07
1.63281e-09
1.22762e-07
9.16479e-10
1.22819e-07
4.25645e-10
1.22881e-07
9.02291e-11
1.22947e-07
-1.4024e-10
1.23013e-07
-2.9192e-10
1.23077e-07
-3.90162e-10
1.23138e-07
-4.51391e-10
1.23196e-07
-4.86992e-10
1.23252e-07
-5.04874e-10
1.23306e-07
-5.10671e-10
1.23359e-07
-5.08435e-10
1.23411e-07
-5.01118e-10
-4.9085e-10
1.23464e-07
1.51997e-07
2.63465e-09
1.52041e-07
1.58898e-09
1.52089e-07
8.67631e-10
1.52143e-07
3.71667e-10
1.52202e-07
3.17736e-11
1.52263e-07
-2.01737e-10
1.52325e-07
-3.53727e-10
1.52386e-07
-4.51426e-10
1.52447e-07
-5.11886e-10
1.52507e-07
-5.46873e-10
1.52566e-07
-5.64498e-10
1.52626e-07
-5.70492e-10
1.52687e-07
-5.68921e-10
1.52748e-07
-5.62689e-10
-5.53836e-10
1.52811e-07
1.86844e-07
2.56617e-09
1.86894e-07
1.53933e-09
1.86936e-07
8.25902e-10
1.86976e-07
3.31447e-10
1.8702e-07
-1.21478e-11
1.87065e-07
-2.46897e-10
1.87112e-07
-4.00838e-10
1.87161e-07
-5.00492e-10
1.87212e-07
-5.63116e-10
1.87266e-07
-6.00485e-10
1.87322e-07
-6.20715e-10
1.87381e-07
-6.29525e-10
1.87443e-07
-6.30945e-10
1.87508e-07
-6.27815e-10
-6.22075e-10
1.87577e-07
2.27251e-07
2.44667e-09
2.27324e-07
1.4664e-09
2.27372e-07
7.78341e-10
2.27406e-07
2.96978e-10
2.27439e-07
-4.50511e-11
2.27471e-07
-2.78889e-10
2.27505e-07
-4.34539e-10
2.27542e-07
-5.37501e-10
2.27583e-07
-6.04378e-10
2.27629e-07
-6.46489e-10
2.2768e-07
-6.71705e-10
2.27736e-07
-6.8561e-10
2.27797e-07
-6.9213e-10
2.27864e-07
-6.94027e-10
-6.93164e-10
2.27935e-07
2.72708e-07
2.26395e-09
2.72817e-07
1.35735e-09
2.72882e-07
7.1332e-10
2.72922e-07
2.57755e-10
2.72952e-07
-7.53704e-11
2.72978e-07
-3.04906e-10
2.73004e-07
-4.61014e-10
2.73035e-07
-5.67736e-10
2.7307e-07
-6.40171e-10
2.73113e-07
-6.88722e-10
2.73162e-07
-7.20774e-10
2.73218e-07
-7.41626e-10
2.73281e-07
-7.55005e-10
2.7335e-07
-7.63532e-10
-7.6899e-10
2.73426e-07
3.2185e-07
2.01873e-09
3.21996e-07
1.21076e-09
3.22082e-07
6.27883e-10
3.22131e-07
2.08173e-10
3.22165e-07
-1.09236e-10
3.22192e-07
-3.32331e-10
3.2222e-07
-4.88165e-10
3.2225e-07
-5.98518e-10
3.22287e-07
-6.76892e-10
3.22331e-07
-7.32622e-10
3.22383e-07
-7.72448e-10
3.22442e-07
-8.0127e-10
3.2251e-07
-8.22547e-10
3.22585e-07
-8.38712e-10
-8.51072e-10
3.22667e-07
3.71759e-07
1.70588e-09
3.7195e-07
1.01921e-09
3.72064e-07
5.14165e-10
3.72132e-07
1.40196e-10
3.72169e-07
-1.46579e-10
3.72188e-07
-3.50697e-10
3.72199e-07
-4.99526e-10
3.7221e-07
-6.09388e-10
3.72224e-07
-6.91298e-10
3.72245e-07
-7.53147e-10
3.72273e-07
-8.00638e-10
3.7231e-07
-8.37889e-10
3.72355e-07
-8.67792e-10
3.72409e-07
-8.92426e-10
-9.13299e-10
3.72471e-07
3.69837e-07
1.37211e-09
3.70053e-07
8.03597e-10
3.7019e-07
3.76862e-10
3.7027e-07
6.02274e-11
3.70319e-07
-1.95511e-10
3.70346e-07
-3.78154e-10
3.70365e-07
-5.17783e-10
3.7038e-07
-6.25216e-10
3.70398e-07
-7.08679e-10
3.70419e-07
-7.74668e-10
3.70447e-07
-8.27903e-10
3.7048e-07
-8.71742e-10
3.70521e-07
-9.08549e-10
3.70569e-07
-9.40054e-10
-9.6733e-10
3.70623e-07
3.17494e-07
1.10404e-09
3.17654e-07
6.43667e-10
3.17743e-07
2.87942e-10
3.17792e-07
1.17194e-11
3.17802e-07
-2.0569e-10
3.17797e-07
-3.73798e-10
3.17785e-07
-5.05216e-10
3.17769e-07
-6.09642e-10
3.17755e-07
-6.93949e-10
3.17743e-07
-7.63151e-10
3.17736e-07
-8.20896e-10
3.17734e-07
-8.69866e-10
3.17738e-07
-9.11993e-10
3.17746e-07
-9.48709e-10
-9.81014e-10
3.1776e-07
2.66379e-07
8.51749e-10
2.66544e-07
4.78624e-10
2.66646e-07
1.85874e-10
2.66704e-07
-4.66496e-11
2.66729e-07
-2.30876e-10
2.66734e-07
-3.78864e-10
2.66728e-07
-4.98381e-10
2.66714e-07
-5.96077e-10
2.66697e-07
-6.77167e-10
2.6668e-07
-7.45493e-10
2.66662e-07
-8.03846e-10
2.66647e-07
-8.54299e-10
2.66633e-07
-8.9836e-10
2.66622e-07
-9.37157e-10
-9.71475e-10
2.66612e-07
2.19981e-07
6.34242e-10
2.20123e-07
3.36046e-10
2.20212e-07
9.73194e-11
2.2026e-07
-9.49212e-11
2.20281e-07
-2.51205e-10
2.20281e-07
-3.79696e-10
2.20269e-07
-4.86197e-10
2.20248e-07
-5.75354e-10
2.20222e-07
-6.50922e-10
2.20193e-07
-7.15798e-10
2.20161e-07
-7.72104e-10
2.20128e-07
-8.21403e-10
2.20094e-07
-8.64818e-10
2.2006e-07
-9.03194e-10
-9.37131e-10
2.20026e-07
1.79309e-07
4.57027e-10
1.79423e-07
2.21417e-10
1.79492e-07
2.91883e-11
1.79525e-07
-1.28374e-10
1.79533e-07
-2.59443e-10
1.79523e-07
-3.69286e-10
1.79499e-07
-4.62214e-10
1.79465e-07
-5.41544e-10
1.79424e-07
-6.09945e-10
1.79378e-07
-6.69511e-10
1.79327e-07
-7.2179e-10
1.79274e-07
-7.67914e-10
1.79218e-07
-8.08694e-10
1.79159e-07
-8.44745e-10
-8.765e-10
1.79099e-07
1.44499e-07
3.21435e-10
1.44584e-07
1.36997e-10
1.44629e-07
-1.5639e-11
1.44644e-07
-1.43518e-10
1.44636e-07
-2.51762e-10
1.44611e-07
-3.4414e-10
1.44572e-07
-4.2368e-10
1.44523e-07
-4.92703e-10
1.44467e-07
-5.53055e-10
1.44403e-07
-6.06186e-10
1.44335e-07
-6.5318e-10
1.44262e-07
-6.94837e-10
1.44185e-07
-7.31727e-10
1.44104e-07
-7.64282e-10
-7.92805e-10
1.4402e-07
1.15226e-07
2.23946e-10
1.15282e-07
8.10539e-11
1.15305e-07
-3.8706e-11
1.15303e-07
-1.41191e-10
1.1528e-07
-2.29391e-10
1.15242e-07
-3.05957e-10
1.15191e-07
-3.72906e-10
1.1513e-07
-4.318e-10
1.15061e-07
-4.83882e-10
1.14985e-07
-5.30131e-10
1.14903e-07
-5.71283e-10
1.14816e-07
-6.07886e-10
1.14725e-07
-6.40326e-10
1.14629e-07
-6.68898e-10
-6.93802e-10
1.1453e-07
9.0955e-08
1.56991e-10
9.09883e-08
4.77271e-11
9.09949e-08
-4.53626e-11
9.09802e-08
-1.26433e-10
9.09482e-08
-1.97418e-10
9.09022e-08
-2.59982e-10
9.08448e-08
-3.15421e-10
9.07777e-08
-3.64758e-10
9.07026e-08
-4.0881e-10
9.06207e-08
-4.48218e-10
9.05329e-08
-4.83463e-10
9.04399e-08
-5.14907e-10
9.03424e-08
-5.42799e-10
9.02408e-08
-5.67336e-10
-5.88643e-10
9.01357e-08
7.10769e-08
1.12001e-10
7.10953e-08
2.93293e-11
7.10919e-08
-4.19614e-11
7.10707e-08
-1.05307e-10
7.10349e-08
-1.61626e-10
7.09869e-08
-2.11941e-10
7.09285e-08
-2.5705e-10
7.08614e-08
-2.97601e-10
7.07867e-08
-3.34112e-10
7.07054e-08
-3.66985e-10
7.06185e-08
-3.96525e-10
7.05266e-08
-4.22958e-10
7.04302e-08
-4.4644e-10
7.033e-08
-4.67094e-10
-4.84994e-10
7.02263e-08
5.49706e-08
8.13463e-11
5.49799e-08
1.99611e-11
5.49719e-08
-3.39705e-11
5.49492e-08
-8.26226e-11
5.49141e-08
-1.26531e-10
5.48684e-08
-1.66226e-10
5.48136e-08
-2.02181e-10
5.47508e-08
-2.3479e-10
5.4681e-08
-2.64364e-10
5.46052e-08
-2.91147e-10
5.4524e-08
-3.15322e-10
5.4438e-08
-3.37024e-10
5.43479e-08
-3.56342e-10
5.42542e-08
-3.7335e-10
-3.88084e-10
5.41573e-08
4.20414e-08
5.98757e-11
4.20462e-08
1.51698e-11
4.20371e-08
-2.48009e-11
4.20159e-08
-6.14249e-11
4.19842e-08
-9.49032e-11
4.19435e-08
-1.25485e-10
4.18947e-08
-1.53435e-10
4.18389e-08
-1.78979e-10
4.17769e-08
-2.02297e-10
4.17092e-08
-2.23526e-10
4.16367e-08
-2.42772e-10
4.15598e-08
-2.60107e-10
4.1479e-08
-2.75579e-10
4.13949e-08
-2.89224e-10
-3.01056e-10
4.13079e-08
3.17483e-08
4.42074e-11
3.17511e-08
1.2453e-11
3.17427e-08
-1.64267e-11
3.17245e-08
-4.32826e-11
3.16977e-08
-6.8101e-11
3.16632e-08
-9.09739e-11
3.16218e-08
-1.12045e-10
3.15743e-08
-1.31432e-10
3.15212e-08
-1.49235e-10
3.14632e-08
-1.65525e-10
3.14008e-08
-1.80356e-10
3.13345e-08
-1.93761e-10
3.12647e-08
-2.05761e-10
3.11918e-08
-2.1637e-10
-2.25587e-10
3.11163e-08
2.36165e-08
3.23045e-11
2.36185e-08
1.04528e-11
2.36118e-08
-9.74759e-12
2.35973e-08
-2.87785e-11
2.35757e-08
-4.6534e-11
2.35478e-08
-6.30194e-11
2.35141e-08
-7.83138e-11
2.34751e-08
-9.2474e-11
2.34314e-08
-1.05548e-10
2.33835e-08
-1.17568e-10
2.33317e-08
-1.28557e-10
2.32764e-08
-1.38526e-10
2.32181e-08
-1.4748e-10
2.31572e-08
-1.55418e-10
-1.62332e-10
2.30939e-08
1.72405e-08
2.29818e-11
1.72424e-08
8.53513e-12
1.72377e-08
-4.99176e-12
1.72268e-08
-1.78862e-11
1.72103e-08
-3.00228e-11
1.71886e-08
-4.13569e-11
1.71623e-08
-5.19421e-11
1.71316e-08
-6.17991e-11
1.7097e-08
-7.09474e-11
1.70588e-08
-7.93966e-11
1.70174e-08
-8.7153e-11
1.69731e-08
-9.4215e-11
1.69262e-08
-1.00581e-10
1.6877e-08
-1.06242e-10
-1.11187e-10
1.68259e-08
1.22807e-08
1.55812e-11
1.22827e-08
6.52559e-12
1.22797e-08
-2.00731e-12
1.2272e-08
-1.0225e-11
1.226e-08
-1.80362e-11
1.2244e-08
-2.53572e-11
1.22243e-08
-3.22396e-11
1.22012e-08
-3.86836e-11
1.2175e-08
-4.46943e-11
1.21458e-08
-5.02704e-11
1.21141e-08
-5.54098e-11
1.208e-08
-6.01065e-11
1.20438e-08
-6.43557e-11
1.20057e-08
-6.8147e-11
-7.14675e-11
1.1966e-08
8.45558e-09
9.76477e-12
8.4576e-09
4.50566e-12
8.45604e-09
-4.41985e-13
8.45105e-09
-5.23592e-12
8.44286e-09
-9.85008e-12
8.43169e-09
-1.41844e-11
8.41773e-09
-1.82852e-11
8.40119e-09
-2.21445e-11
8.38226e-09
-2.57623e-11
8.36112e-09
-2.91331e-11
8.33797e-09
-3.22524e-11
8.31297e-09
-3.51133e-11
8.28633e-09
-3.77115e-11
8.25822e-09
-4.00374e-11
-4.20773e-11
8.22883e-09
5.53435e-09
5.37193e-12
5.53619e-09
2.66418e-12
5.5356e-09
1.42656e-13
5.53266e-09
-2.29418e-12
5.52749e-09
-4.67347e-12
5.52022e-09
-6.92016e-12
5.51099e-09
-9.05692e-12
5.49993e-09
-1.10773e-11
5.48715e-09
-1.29813e-11
5.47278e-09
-1.4763e-11
5.45694e-09
-1.64182e-11
5.43977e-09
-1.79416e-11
5.42139e-09
-1.93302e-11
5.40193e-09
-2.0577e-11
-2.16689e-11
5.38152e-09
3.32869e-09
2.32256e-12
3.33015e-09
1.1978e-12
3.33011e-09
1.86199e-13
3.3286e-09
-7.82742e-13
3.32567e-09
-1.74471e-12
3.32141e-09
-2.66194e-12
3.31589e-09
-3.5376e-12
3.30918e-09
-4.36985e-12
3.30136e-09
-5.15882e-12
3.2925e-09
-5.90012e-12
3.28267e-09
-6.59128e-12
3.27196e-09
-7.2292e-12
3.26044e-09
-7.81261e-12
3.2482e-09
-8.33691e-12
-8.7919e-12
3.23532e-09
1.68598e-09
5.55666e-13
1.68691e-09
2.734e-13
1.68704e-09
4.98062e-14
1.68642e-09
-1.62068e-13
1.68506e-09
-3.78717e-13
1.68299e-09
-5.88857e-13
1.68024e-09
-7.89797e-13
1.67685e-09
-9.83132e-13
1.67286e-09
-1.16741e-12
1.6683e-09
-1.34071e-12
1.66321e-09
-1.50263e-12
1.65763e-09
-1.65215e-12
1.65161e-09
-1.7891e-12
1.64518e-09
-1.91114e-12
-2.01287e-12
1.63841e-09
4.83226e-10
4.835e-10
4.83549e-10
4.83387e-10
4.83009e-10
4.8242e-10
4.8163e-10
4.80647e-10
4.79479e-10
4.78139e-10
4.76636e-10
4.74984e-10
4.73195e-10
4.71284e-10
4.69271e-10
1.14957e-09
-4.42089e-10
2.52119e-10
1.42358e-09
-3.4431e-10
7.02987e-11
1.70165e-09
-1.77418e-10
-1.00648e-10
1.97762e-09
-1.92508e-12
-2.74053e-10
2.24993e-09
1.77215e-10
-4.49521e-10
2.51931e-09
3.53344e-10
-6.22725e-10
2.78729e-09
5.24159e-10
-7.92135e-10
3.055e-09
6.87719e-10
-9.55433e-10
3.32334e-09
8.4143e-10
-1.10976e-09
3.59295e-09
9.82208e-10
-1.25182e-09
3.86435e-09
1.10637e-09
-1.37778e-09
4.13804e-09
1.20949e-09
-1.48318e-09
4.41452e-09
1.28622e-09
-1.5627e-09
4.69435e-09
1.33026e-09
-1.61009e-09
4.9782e-09
1.33434e-09
-1.61818e-09
5.26694e-09
1.29111e-09
-1.57985e-09
5.5619e-09
1.19446e-09
-1.48942e-09
5.86531e-09
1.04258e-09
-1.34598e-09
6.18066e-09
8.37481e-10
-1.15283e-09
6.51282e-09
5.88564e-10
-9.2073e-10
6.86703e-09
2.91482e-10
-6.45683e-10
7.24475e-09
-9.30016e-11
-2.84725e-10
7.5832e-09
-5.58207e-10
2.19762e-10
7.85694e-09
-1.02732e-09
7.53575e-10
8.066e-09
-1.48409e-09
1.27504e-09
8.21361e-09
-1.90191e-09
1.7543e-09
8.30471e-09
-2.26157e-09
2.17047e-09
8.34429e-09
-2.55132e-09
2.51174e-09
8.33633e-09
-2.76946e-09
2.77742e-09
8.28412e-09
-2.9111e-09
2.96332e-09
8.19051e-09
-2.97494e-09
3.06854e-09
8.0578e-09
-2.95328e-09
3.086e-09
7.88836e-09
-2.83932e-09
3.00876e-09
7.68479e-09
-2.6278e-09
2.83136e-09
7.44979e-09
-2.31597e-09
2.55098e-09
7.18587e-09
-1.90374e-09
2.16766e-09
6.89523e-09
-1.39261e-09
1.68324e-09
6.5798e-09
-7.83568e-10
1.099e-09
6.24135e-09
-7.40665e-11
4.1252e-10
5.88059e-09
7.4353e-10
-3.82772e-10
5.49302e-09
1.67366e-09
-1.28608e-09
5.06085e-09
2.68934e-09
-2.25717e-09
4.55156e-09
3.65637e-09
-3.14708e-09
3.96899e-09
4.24211e-09
-3.65954e-09
3.65839e-09
3.6068e-09
-3.2962e-09
2.40873e-09
-5.17571e-10
2.57462e-09
-5.10198e-10
2.80084e-09
-4.03643e-10
3.05522e-09
-2.56301e-10
3.32397e-09
-9.1536e-11
3.60039e-09
7.69244e-11
3.88178e-09
2.42765e-10
4.1671e-09
4.02405e-10
4.45598e-09
5.52549e-10
4.74836e-09
6.89823e-10
5.04432e-09
8.10415e-10
5.34405e-09
9.09767e-10
5.64783e-09
9.82443e-10
5.95604e-09
1.02204e-09
6.26915e-09
1.02123e-09
6.58784e-09
9.72422e-10
6.91317e-09
8.69134e-10
7.24704e-09
7.08707e-10
7.59262e-09
4.91893e-10
7.95445e-09
2.26735e-10
8.33746e-09
-9.15298e-11
8.74291e-09
-4.98447e-10
9.10438e-09
-9.1968e-10
9.39604e-09
-1.31898e-09
9.61858e-09
-1.70663e-09
9.77561e-09
-2.05894e-09
9.87239e-09
-2.35835e-09
9.91418e-09
-2.59311e-09
9.90524e-09
-2.76052e-09
9.84934e-09
-2.8552e-09
9.74989e-09
-2.87549e-09
9.60965e-09
-2.81305e-09
9.43177e-09
-2.66144e-09
9.21983e-09
-2.41586e-09
8.97787e-09
-2.07401e-09
8.71023e-09
-1.6361e-09
8.42174e-09
-1.10412e-09
8.11824e-09
-4.80066e-10
7.80797e-09
2.36209e-10
7.50328e-09
1.04821e-09
7.22161e-09
1.95533e-09
6.98434e-09
2.92661e-09
6.81786e-09
3.82285e-09
6.75108e-09
4.30889e-09
3.76892e-09
6.64055e-09
4.21902e-09
-5.32624e-10
4.29498e-09
-5.86162e-10
4.44389e-09
-5.52547e-10
4.6472e-09
-4.59613e-10
4.88586e-09
-3.30198e-10
5.14778e-09
-1.84997e-10
5.42575e-09
-3.52009e-11
5.71553e-09
1.12622e-10
6.01468e-09
2.53396e-10
6.32176e-09
3.8274e-10
6.63592e-09
4.96259e-10
6.95669e-09
5.88994e-10
7.2839e-09
6.55239e-10
7.61751e-09
6.88429e-10
7.95764e-09
6.81103e-10
8.30458e-09
6.25484e-10
8.65896e-09
5.14755e-10
9.02218e-09
3.45486e-10
9.39684e-09
1.17227e-10
9.78685e-09
-1.63275e-10
1.01966e-08
-5.01227e-10
1.06267e-08
-9.28559e-10
1.10077e-08
-1.30075e-09
1.1314e-08
-1.62522e-09
1.1547e-08
-1.93961e-09
1.17107e-08
-2.22272e-09
1.18109e-08
-2.45853e-09
1.1853e-08
-2.63517e-09
1.18415e-08
-2.74905e-09
1.17809e-08
-2.79462e-09
1.16752e-08
-2.76975e-09
1.15277e-08
-2.66554e-09
1.13424e-08
-2.47621e-09
1.11243e-08
-2.19777e-09
1.0879e-08
-1.82871e-09
1.06132e-08
-1.37022e-09
1.03346e-08
-8.25588e-10
1.00538e-08
-1.99236e-10
9.78573e-09
5.04275e-10
9.55379e-09
1.28015e-09
9.393e-09
2.11612e-09
9.34848e-09
2.97113e-09
9.45479e-09
3.71654e-09
9.65792e-09
4.10576e-09
3.7035e-09
9.72334e-09
6.70942e-09
-5.13969e-10
6.72458e-09
-6.01319e-10
6.79588e-09
-6.23848e-10
6.92975e-09
-5.93484e-10
7.11456e-09
-5.15003e-10
7.33802e-09
-4.0846e-10
7.59093e-09
-2.88107e-10
7.86652e-09
-1.62967e-10
8.16015e-09
-4.02319e-11
8.46864e-09
7.4246e-11
8.78983e-09
1.75072e-10
9.12227e-09
2.56552e-10
9.46501e-09
3.12494e-10
9.8174e-09
3.36039e-10
1.0179e-08
3.19551e-10
1.05494e-08
2.55054e-10
1.09287e-08
1.35462e-10
1.13175e-08
-4.33242e-11
1.17176e-08
-2.82853e-10
1.21318e-08
-5.77552e-10
1.25637e-08
-9.33041e-10
1.30128e-08
-1.37772e-09
1.34077e-08
-1.69559e-09
1.3723e-08
-1.94057e-09
1.39615e-08
-2.17808e-09
1.41277e-08
-2.38889e-09
1.42275e-08
-2.55837e-09
1.42667e-08
-2.67432e-09
1.42502e-08
-2.73258e-09
1.41832e-08
-2.72767e-09
1.40704e-08
-2.65689e-09
1.39156e-08
-2.5108e-09
1.37242e-08
-2.28479e-09
1.35024e-08
-1.976e-09
1.32579e-08
-1.58417e-09
1.29997e-08
-1.112e-09
1.2739e-08
-5.64938e-10
1.24906e-08
4.91445e-11
1.22751e-08
7.19836e-10
1.21223e-08
1.43295e-09
1.20736e-08
2.1648e-09
1.21749e-08
2.86985e-09
1.24443e-08
3.44709e-09
1.28188e-08
3.73125e-09
3.49194e-09
1.30304e-08
1.00509e-08
-4.81397e-10
1.00298e-08
-5.8026e-10
1.00431e-08
-6.37156e-10
1.01052e-08
-6.55539e-10
1.02225e-08
-6.32367e-10
1.03878e-08
-5.73726e-10
1.05937e-08
-4.93981e-10
1.08333e-08
-4.02642e-10
1.11012e-08
-3.08092e-10
1.13928e-08
-2.17312e-10
1.17046e-08
-1.3675e-10
1.20341e-08
-7.30138e-11
1.23796e-08
-3.29376e-11
1.27394e-08
-2.37708e-11
1.31123e-08
-5.33762e-11
1.34973e-08
-1.29916e-10
1.38934e-08
-2.60676e-10
1.43004e-08
-4.50275e-10
1.47187e-08
-7.01212e-10
1.51501e-08
-1.00888e-09
1.55962e-08
-1.37919e-09
1.60556e-08
-1.83709e-09
1.64554e-08
-2.09541e-09
1.67718e-08
-2.25693e-09
1.70084e-08
-2.41474e-09
1.71705e-08
-2.55101e-09
1.72644e-08
-2.65227e-09
1.72959e-08
-2.7058e-09
1.72707e-08
-2.70741e-09
1.71949e-08
-2.65182e-09
1.70733e-08
-2.53536e-09
1.6911e-08
-2.34842e-09
1.67143e-08
-2.0881e-09
1.64912e-08
-1.75296e-09
1.62514e-08
-1.34437e-09
1.60065e-08
-8.67038e-10
1.57706e-08
-3.2903e-10
1.55617e-08
2.58064e-10
1.54031e-08
8.7835e-10
1.53256e-08
1.51051e-09
1.5366e-08
2.12435e-09
1.5559e-08
2.67684e-09
1.5908e-08
3.09817e-09
1.63436e-08
3.29561e-09
3.16995e-09
1.66656e-08
1.4444e-08
-4.48329e-10
1.44062e-08
-5.42478e-10
1.43861e-08
-6.17113e-10
1.43951e-08
-6.6447e-10
1.44467e-08
-6.84033e-10
1.45461e-08
-6.73093e-10
1.469e-08
-6.37903e-10
1.4875e-08
-5.87574e-10
1.50966e-08
-5.29732e-10
1.53506e-08
-4.71274e-10
1.5633e-08
-4.19164e-10
1.59407e-08
-3.80729e-10
1.62711e-08
-3.63344e-10
1.66219e-08
-3.74598e-10
1.69911e-08
-4.2254e-10
1.73766e-08
-5.15453e-10
1.77766e-08
-6.60694e-10
1.81896e-08
-8.63193e-10
1.86145e-08
-1.12619e-09
1.90514e-08
-1.44571e-09
1.94999e-08
-1.82775e-09
1.99566e-08
-2.29373e-09
2.0349e-08
-2.48784e-09
2.06551e-08
-2.56302e-09
2.08798e-08
-2.63946e-09
2.10289e-08
-2.70007e-09
2.11089e-08
-2.73229e-09
2.11259e-08
-2.72286e-09
2.10869e-08
-2.6684e-09
2.09985e-08
-2.56339e-09
2.08657e-08
-2.40251e-09
2.06944e-08
-2.17713e-09
2.04927e-08
-1.88643e-09
2.02703e-08
-1.53054e-09
2.00386e-08
-1.11269e-09
1.98113e-08
-6.39762e-10
1.96048e-08
-1.2248e-10
1.94383e-08
4.24499e-10
1.93351e-08
9.81608e-10
1.93211e-08
1.52444e-09
1.94229e-08
2.02259e-09
1.9659e-08
2.4408e-09
2.00206e-08
2.73654e-09
2.04495e-08
2.86672e-09
2.79788e-09
2.08216e-08
2.01216e-08
-4.22232e-10
2.00847e-08
-5.05542e-10
2.00503e-08
-5.82669e-10
2.00314e-08
-6.4564e-10
2.00374e-08
-6.9003e-10
2.00793e-08
-7.14987e-10
2.01612e-08
-7.19733e-10
2.02836e-08
-7.10016e-10
2.04458e-08
-6.91955e-10
2.06454e-08
-6.70837e-10
2.08795e-08
-6.53279e-10
2.11455e-08
-6.46731e-10
2.14408e-08
-6.58635e-10
2.17628e-08
-6.96597e-10
2.21089e-08
-7.68632e-10
2.24764e-08
-8.82932e-10
2.28624e-08
-1.0467e-09
2.3264e-08
-1.26486e-09
2.3679e-08
-1.5411e-09
2.41048e-08
-1.87159e-09
2.45391e-08
-2.26204e-09
2.49756e-08
-2.7302e-09
2.53443e-08
-2.85658e-09
2.56256e-08
-2.84424e-09
2.58252e-08
-2.83909e-09
2.59494e-08
-2.82433e-09
2.6005e-08
-2.78786e-09
2.59988e-08
-2.71664e-09
2.59396e-08
-2.60917e-09
2.58338e-08
-2.45763e-09
2.56852e-08
-2.25392e-09
2.55025e-08
-1.99443e-09
2.52951e-08
-1.67905e-09
2.50741e-08
-1.30953e-09
2.48525e-08
-8.91059e-10
2.46453e-08
-4.32526e-10
2.44694e-08
5.33679e-11
2.43438e-08
5.5012e-10
2.42882e-08
1.0372e-09
2.43215e-08
1.49117e-09
2.44579e-08
1.8862e-09
2.47015e-08
2.19713e-09
2.50369e-08
2.40118e-09
2.54206e-08
2.48297e-09
2.43832e-09
2.57802e-08
2.73551e-08
-4.05544e-10
2.73276e-08
-4.78056e-10
2.72958e-08
-5.50828e-10
2.72683e-08
-6.18194e-10
2.72542e-08
-6.75841e-10
2.72611e-08
-7.21923e-10
2.72962e-08
-7.54874e-10
2.73649e-08
-7.78663e-10
2.74692e-08
-7.96271e-10
2.76094e-08
-8.11075e-10
2.77853e-08
-8.29095e-10
2.79957e-08
-8.57198e-10
2.82393e-08
-9.02223e-10
2.8514e-08
-9.71287e-10
2.88173e-08
-1.07196e-09
2.91464e-08
-1.21197e-09
2.94976e-08
-1.39799e-09
2.98673e-08
-1.6345e-09
3.02514e-08
-1.92521e-09
3.06456e-08
-2.26583e-09
3.10447e-08
-2.66115e-09
3.14395e-08
-3.12499e-09
3.17648e-08
-3.18187e-09
3.20037e-08
-3.08307e-09
3.21624e-08
-2.99787e-09
3.22476e-08
-2.90948e-09
3.22655e-08
-2.80578e-09
3.2227e-08
-2.67809e-09
3.21407e-08
-2.52292e-09
3.20095e-08
-2.32637e-09
3.18394e-08
-2.0839e-09
3.16416e-08
-1.79657e-09
3.14264e-08
-1.46392e-09
3.12061e-08
-1.08922e-09
3.09945e-08
-6.79415e-10
3.08068e-08
-2.44865e-10
3.06592e-08
2.00999e-10
3.0568e-08
6.4129e-10
3.0548e-08
1.05722e-09
3.06101e-08
1.42912e-09
3.07583e-08
1.73797e-09
3.09873e-08
1.96817e-09
3.12789e-08
2.10958e-09
3.16016e-08
2.16019e-09
2.12666e-09
3.19133e-08
3.64553e-08
-3.97861e-10
3.64394e-08
-4.62136e-10
3.6418e-08
-5.29467e-10
3.63962e-08
-5.96358e-10
3.63798e-08
-6.59425e-10
3.63755e-08
-7.17663e-10
3.63877e-08
-7.67004e-10
3.64238e-08
-8.14838e-10
3.64872e-08
-8.59595e-10
3.65791e-08
-9.03069e-10
3.67021e-08
-9.52086e-10
3.68571e-08
-1.01212e-09
3.70439e-08
-1.08909e-09
3.7262e-08
-1.18933e-09
3.75096e-08
-1.31957e-09
3.77843e-08
-1.48671e-09
3.80828e-08
-1.69646e-09
3.84006e-08
-1.9523e-09
3.87329e-08
-2.25751e-09
3.90736e-08
-2.60655e-09
3.94149e-08
-3.00247e-09
3.97449e-08
-3.45494e-09
4.00054e-08
-3.44242e-09
4.01832e-08
-3.26087e-09
4.02839e-08
-3.09849e-09
4.03135e-08
-2.93911e-09
4.02832e-08
-2.77548e-09
4.02057e-08
-2.60056e-09
4.00804e-08
-2.39767e-09
3.99133e-08
-2.15927e-09
3.97163e-08
-1.88684e-09
3.94991e-08
-1.57938e-09
3.92732e-08
-1.23806e-09
3.90514e-08
-8.67413e-10
3.88474e-08
-4.75423e-10
3.86758e-08
-7.32904e-11
3.85502e-08
3.26602e-10
3.84833e-08
7.08168e-10
3.84842e-08
1.05636e-09
3.85569e-08
1.35645e-09
3.86987e-08
1.59619e-09
3.88994e-08
1.76746e-09
3.91414e-08
1.86751e-09
3.94018e-08
1.89985e-09
1.87352e-09
3.96549e-08
4.77679e-08
-3.9875e-10
4.77634e-08
-4.57607e-10
4.77547e-08
-5.2079e-10
4.77447e-08
-5.86352e-10
4.77372e-08
-6.51913e-10
4.77367e-08
-7.17106e-10
4.77471e-08
-7.77492e-10
4.77726e-08
-8.40346e-10
4.78171e-08
-9.03997e-10
4.78831e-08
-9.69132e-10
4.7973e-08
-1.04193e-09
4.80882e-08
-1.12734e-09
4.82296e-08
-1.23053e-09
4.83974e-08
-1.35712e-09
4.85908e-08
-1.51299e-09
4.88081e-08
-1.704e-09
4.90464e-08
-1.9347e-09
4.93012e-08
-2.20718e-09
4.95675e-08
-2.52378e-09
4.98381e-08
-2.87712e-09
5.01031e-08
-3.26746e-09
5.03486e-08
-3.70052e-09
5.05257e-08
-3.61948e-09
5.06256e-08
-3.36075e-09
5.06501e-08
-3.12299e-09
5.06158e-08
-2.90488e-09
5.05355e-08
-2.69515e-09
5.04036e-08
-2.46864e-09
5.02264e-08
-2.22049e-09
5.00186e-08
-1.95145e-09
4.97893e-08
-1.65754e-09
4.9549e-08
-1.33904e-09
4.93093e-08
-9.98422e-10
4.9083e-08
-6.41124e-10
4.88831e-08
-2.75479e-10
4.87213e-08
8.85023e-11
4.86091e-08
4.38773e-10
4.85544e-08
7.62937e-10
4.85611e-08
1.04966e-09
4.86283e-08
1.28924e-09
4.87496e-08
1.47484e-09
4.89136e-08
1.60344e-09
4.9105e-08
1.67611e-09
4.93068e-08
1.69809e-09
1.67774e-09
4.95026e-08
6.16688e-08
-4.0941e-10
6.16764e-08
-4.65216e-10
6.16817e-08
-5.26027e-10
6.16863e-08
-5.90959e-10
6.1693e-08
-6.58601e-10
6.17048e-08
-7.28984e-10
6.17258e-08
-7.98448e-10
6.17555e-08
-8.70077e-10
6.17992e-08
-9.47629e-10
6.18606e-08
-1.03061e-09
6.19405e-08
-1.12182e-09
6.20394e-08
-1.22619e-09
6.21577e-08
-1.34887e-09
6.22955e-08
-1.4949e-09
6.24519e-08
-1.66936e-09
6.26251e-08
-1.8772e-09
6.28122e-08
-2.12182e-09
6.30089e-08
-2.40393e-09
6.32097e-08
-2.7246e-09
6.34069e-08
-3.07429e-09
6.35893e-08
-3.44989e-09
6.37422e-08
-3.85335e-09
6.38256e-08
-3.70291e-09
6.38333e-08
-3.36841e-09
6.37859e-08
-3.07564e-09
6.36931e-08
-2.8121e-09
6.35436e-08
-2.54559e-09
6.33467e-08
-2.27177e-09
6.31188e-08
-1.99257e-09
6.28684e-08
-1.70107e-09
6.26057e-08
-1.39481e-09
6.23414e-08
-1.07472e-09
6.2087e-08
-7.44026e-10
6.18542e-08
-4.08371e-10
6.16544e-08
-7.56336e-11
6.14965e-08
2.46386e-10
6.13886e-08
5.46714e-10
6.13343e-08
8.17202e-10
6.13338e-08
1.05013e-09
6.13832e-08
1.23989e-09
6.14745e-08
1.3835e-09
6.15971e-08
1.4809e-09
6.17383e-08
1.53486e-09
6.18857e-08
1.55066e-09
1.53519e-09
6.20283e-08
7.85755e-08
-4.32667e-10
7.85977e-08
-4.87344e-10
7.86191e-08
-5.47467e-10
7.86409e-08
-6.12743e-10
7.86648e-08
-6.8256e-10
7.86924e-08
-7.56512e-10
7.87283e-08
-8.34339e-10
7.87748e-08
-9.16573e-10
7.88319e-08
-1.00473e-09
7.89021e-08
-1.10081e-09
7.89873e-08
-1.20708e-09
7.9088e-08
-1.32692e-09
7.92039e-08
-1.46469e-09
7.93338e-08
-1.62484e-09
7.94761e-08
-1.81163e-09
7.96279e-08
-2.02904e-09
7.97855e-08
-2.27938e-09
7.99437e-08
-2.56212e-09
8.0096e-08
-2.8769e-09
8.02337e-08
-3.21201e-09
8.03456e-08
-3.5618e-09
8.04126e-08
-3.92033e-09
8.04043e-08
-3.6946e-09
8.03435e-08
-3.30769e-09
8.02362e-08
-2.96832e-09
8.00678e-08
-2.64373e-09
7.98507e-08
-2.3284e-09
7.9602e-08
-2.02316e-09
7.93295e-08
-1.72003e-09
7.90428e-08
-1.41436e-09
7.87524e-08
-1.10446e-09
7.84691e-08
-7.91417e-10
7.82037e-08
-4.7856e-10
7.79665e-08
-1.71199e-10
7.77652e-08
1.25723e-10
7.76078e-08
4.03732e-10
7.74978e-08
6.56684e-10
7.74361e-08
8.78967e-10
7.74201e-08
1.06612e-09
7.74444e-08
1.21553e-09
7.75013e-08
1.32662e-09
7.75814e-08
1.40087e-09
7.76747e-08
1.4415e-09
7.77722e-08
1.45319e-09
1.44135e-09
7.7866e-08
9.89854e-08
-4.71298e-10
9.90245e-08
-5.26436e-10
9.90643e-08
-5.87327e-10
9.91056e-08
-6.5407e-10
9.91497e-08
-7.26619e-10
9.91982e-08
-8.04997e-10
9.92533e-08
-8.89482e-10
9.93171e-08
-9.80391e-10
9.93912e-08
-1.07875e-09
9.94768e-08
-1.18643e-09
9.95752e-08
-1.30553e-09
9.96869e-08
-1.43854e-09
9.9811e-08
-1.5888e-09
9.9946e-08
-1.75985e-09
1.00089e-07
-1.95498e-09
1.00237e-07
-2.17694e-09
1.00385e-07
-2.42686e-09
1.00526e-07
-2.70293e-09
1.00651e-07
-3.00283e-09
1.00753e-07
-3.31357e-09
1.00817e-07
-3.6262e-09
1.0082e-07
-3.92305e-09
1.0076e-07
-3.63404e-09
1.00648e-07
-3.19622e-09
1.00476e-07
-2.79613e-09
1.00253e-07
-2.42083e-09
9.9996e-08
-2.07134e-09
9.97126e-08
-1.73974e-09
9.94122e-08
-1.41964e-09
9.9105e-08
-1.10724e-09
9.88016e-08