/*--------------------------------*- C++ -*----------------------------------*\
| =========                 |                                                 |
| \\      /  F ield         | OpenFOAM: The Open Source CFD Toolbox           |
|  \\    /   O peration     | Version:  2312                                  |
|   \\  /    A nd           | Website:  www.openfoam.com                      |
|    \\/     M anipulation  |                                                 |
\*---------------------------------------------------------------------------*/
FoamFile
{
    version     2.0;
    format      ascii;
    arch        "LSB;label=32;scalar=64";
    class       surfaceScalarField;
    location    "83.25";
    object      phi;
}
// * * * * * * * * * * * * * * * * * * * * * * * * * * * * * * * * * * * * * //

dimensions      [0 3 -1 0 0 0 0];

oriented        oriented;

internalField   nonuniform List<scalar> 
9445
(
6.17979e-10
1.01753e-11
6.11889e-10
6.08941e-12
6.08405e-10
3.48442e-12
6.06767e-10
1.63765e-12
6.06557e-10
2.09765e-13
6.076e-10
-1.04221e-12
6.09821e-10
-2.22092e-12
6.13164e-10
-3.34381e-12
6.17879e-10
-4.71499e-12
6.24431e-10
-6.55169e-12
6.33983e-10
-9.55152e-12
6.50241e-10
-1.6258e-11
6.86447e-10
-3.62067e-11
7.89999e-10
-1.03552e-10
-2.71518e-10
1.06152e-09
2.15646e-09
4.60097e-11
2.13419e-09
2.83577e-11
2.1207e-09
1.69783e-11
2.11346e-09
8.87365e-12
2.11108e-09
2.59493e-12
2.11284e-09
-2.80032e-12
2.11839e-09
-7.77969e-12
2.12766e-09
-1.26116e-11
2.14127e-09
-1.83211e-11
2.16054e-09
-2.58235e-11
2.18846e-09
-3.74736e-11
2.23223e-09
-6.00303e-11
2.30599e-09
-1.09964e-10
2.42381e-09
-2.2137e-10
-3.96724e-10
2.54902e-09
4.25295e-09
1.16351e-10
4.20803e-09
7.32725e-11
4.17973e-09
4.52803e-11
4.16332e-09
2.52824e-11
4.15612e-09
9.7967e-12
4.15666e-09
-3.34064e-12
4.16412e-09
-1.52409e-11
4.17825e-09
-2.67416e-11
4.19989e-09
-3.99583e-11
4.23058e-09
-5.65135e-11
4.27333e-09
-8.02232e-11
4.333e-09
-1.19703e-10
4.41253e-09
-1.89492e-10
4.49748e-09
-3.0632e-10
-4.47584e-10
4.54834e-09
7.05757e-09
2.30888e-10
6.98249e-09
1.48347e-10
6.93348e-09
9.42932e-11
6.90323e-09
5.55365e-11
6.88743e-09
2.55913e-11
6.8837e-09
3.89487e-13
6.89048e-09
-2.20229e-11
6.90692e-09
-4.31785e-11
6.93374e-09
-6.67762e-11
6.97175e-09
-9.45246e-11
7.02211e-09
-1.30581e-10
7.08451e-09
-1.82108e-10
7.15212e-09
-2.57096e-10
7.20351e-09
-3.57713e-10
-4.57926e-10
7.21385e-09
1.07503e-08
3.98537e-10
1.06374e-08
2.6121e-10
1.05612e-08
1.70487e-10
1.05116e-08
1.0513e-10
1.04825e-08
5.47399e-11
1.04702e-08
1.26652e-11
1.04724e-08
-2.41923e-11
1.04872e-08
-5.79923e-11
1.05143e-08
-9.39573e-11
1.05534e-08
-1.33541e-10
1.06026e-08
-1.79833e-10
1.06573e-08
-2.36842e-10
1.07065e-08
-3.06246e-10
1.07319e-08
-3.83103e-10
-4.48035e-10
1.0722e-08
1.5541e-08
6.241e-10
1.53848e-08
4.17496e-10
1.52757e-08
2.79518e-10
1.52014e-08
1.79476e-10
1.51538e-08
1.02329e-10
1.51279e-08
3.85656e-11
1.51202e-08
-1.65477e-11
1.51284e-08
-6.6103e-11
1.51498e-08
-1.15377e-10
1.51822e-08
-1.66009e-10
1.52219e-08
-2.19477e-10
1.52617e-08
-2.76621e-10
1.52909e-08
-3.35495e-10
1.52979e-08
-3.90056e-10
-4.29279e-10
1.52791e-08
2.16661e-08
9.0265e-10
2.14666e-08
6.17034e-10
2.13226e-08
4.23555e-10
2.122e-08
2.8198e-10
2.11499e-08
1.7244e-10
2.11058e-08
8.26777e-11
2.10832e-08
6.09911e-12
2.10784e-08
-6.13405e-11
2.10874e-08
-1.24385e-10
2.11061e-08
-1.84663e-10
2.1129e-08
-2.42448e-10
2.11492e-08
-2.96808e-10
2.11588e-08
-3.45015e-10
2.11516e-08
-3.82893e-10
-4.05671e-10
2.1128e-08
2.93785e-08
1.21199e-09
2.91472e-08
8.48264e-10
2.89737e-08
5.97063e-10
2.88449e-08
4.10792e-10
2.87517e-08
2.6566e-10
2.86871e-08
1.47248e-10
2.86458e-08
4.7368e-11
2.86232e-08
-3.87126e-11
2.86141e-08
-1.15244e-10
2.86131e-08
-1.83713e-10
2.86147e-08
-2.44009e-10
2.86129e-08
-2.95066e-10
2.86031e-08
-3.35183e-10
2.85829e-08
-3.62695e-10
-3.76587e-10
2.85538e-08
3.89351e-08
1.50649e-09
3.87008e-08
1.08249e-09
3.8516e-08
7.81862e-10
3.83722e-08
5.54665e-10
3.82622e-08
3.75581e-10
3.81802e-08
2.29283e-10
3.81208e-08
1.06819e-10
3.80788e-08
3.2819e-12
3.80488e-08
-8.52891e-11
3.80256e-08
-1.60547e-10
3.80042e-08
-2.22613e-10
3.79806e-08
-2.71421e-10
3.79523e-08
-3.0688e-10
3.7919e-08
-3.29392e-10
-3.39927e-10
3.78823e-08
5.0593e-08
1.72053e-09
5.04023e-08
1.27318e-09
5.02394e-08
9.44775e-10
5.0104e-08
6.9008e-10
4.99938e-08
4.85812e-10
4.99053e-08
3.17707e-10
4.98348e-08
1.77341e-10
4.97781e-08
6.00231e-11
4.973e-08
-3.72041e-11
4.96869e-08
-1.17507e-10
4.96453e-08
-1.80921e-10
4.96027e-08
-2.28876e-10
4.95585e-08
-2.62652e-10
4.95131e-08
-2.83977e-10
-2.94751e-10
4.94679e-08
6.46381e-08
1.79182e-09
6.45428e-08
1.36851e-09
6.44433e-08
1.04428e-09
6.43488e-08
7.84539e-10
6.42634e-08
5.71257e-10
6.41878e-08
3.93322e-10
6.41208e-08
2.44287e-10
6.40604e-08
1.20406e-10
6.40042e-08
1.9003e-11
6.39493e-08
-6.2569e-11
6.38949e-08
-1.26549e-10
6.38402e-08
-1.74138e-10
6.37854e-08
-2.07838e-10
6.37314e-08
-2.30004e-10
-2.42827e-10
6.36795e-08
8.14653e-08
1.7e-09
8.14941e-08
1.33968e-09
8.14875e-08
1.05087e-09
8.14612e-08
8.10904e-10
8.14243e-08
6.08109e-10
8.13819e-08
4.35776e-10
8.13359e-08
2.90224e-10
8.12873e-08
1.69002e-10
8.12364e-08
6.99671e-11
8.1182e-08
-8.16419e-12
8.1126e-08
-7.06276e-11
8.10688e-08
-1.16945e-10
8.10115e-08
-1.50488e-10
8.09552e-08
-1.73726e-10
-1.88784e-10
8.09012e-08
1.01667e-07
1.4848e-09
1.01802e-07
1.20465e-09
1.01882e-07
9.70262e-10
1.01926e-07
7.67301e-10
1.01944e-07
5.90416e-10
1.01942e-07
4.3702e-10
1.01927e-07
3.0586e-10
1.019e-07
1.95981e-10
1.01864e-07
1.06035e-10
1.01821e-07
3.40384e-11
1.01773e-07
-2.25782e-11
1.01722e-07
-6.59646e-11
1.0167e-07
-9.82009e-11
1.01618e-07
-1.21572e-10
-1.37959e-10
1.01567e-07
1.26002e-07
1.21826e-09
1.26192e-07
1.01474e-09
1.26324e-07
8.38256e-10
1.26412e-07
6.79099e-10
1.26466e-07
5.36213e-10
1.26494e-07
4.09361e-10
1.26501e-07
2.98863e-10
1.26492e-07
2.05124e-10
1.2647e-07
1.27704e-10
1.26439e-07
6.51353e-11
1.26401e-07
1.54504e-11
1.26358e-07
-2.33735e-11
1.26313e-07
-5.31194e-11
1.26267e-07
-7.55556e-11
-9.2187e-11
1.26221e-07
1.55213e-07
9.51918e-10
1.5541e-07
8.17753e-10
1.55554e-07
6.94457e-10
1.55655e-07
5.78077e-10
1.5572e-07
4.70733e-10
1.55757e-07
3.72672e-10
1.55771e-07
2.84883e-10
1.55767e-07
2.08875e-10
1.5575e-07
1.4511e-10
1.55722e-07
9.27235e-11
1.55687e-07
5.03183e-11
1.55647e-07
1.63966e-11
1.55605e-07
-1.03863e-11
1.5556e-07
-3.13516e-11
-4.75834e-11
1.55516e-07
1.89804e-07
7.01919e-10
1.89988e-07
6.3369e-10
1.90121e-07
5.60798e-10
1.90216e-07
4.83394e-10
1.90277e-07
4.10281e-10
1.90309e-07
3.4028e-10
1.90319e-07
2.74687e-10
1.90312e-07
2.16209e-10
1.90291e-07
1.66114e-10
1.9026e-07
1.23898e-10
1.90221e-07
8.86298e-11
1.90178e-07
5.95459e-11
1.90132e-07
3.58243e-11
1.90084e-07
1.66575e-11
1.28866e-12
1.90035e-07
2.299e-07
4.71964e-10
2.30069e-07
4.65096e-10
2.30188e-07
4.42073e-10
2.30269e-07
4.02077e-10
2.30318e-07
3.61396e-10
2.30343e-07
3.15016e-10
2.30347e-07
2.70481e-10
2.30334e-07
2.29958e-10
2.30306e-07
1.94088e-10
2.30268e-07
1.62038e-10
2.30222e-07
1.33685e-10
2.30173e-07
1.09226e-10
2.3012e-07
8.84338e-11
2.30065e-07
7.15062e-11
5.76078e-11
2.30009e-07
2.75057e-07
2.70219e-10
2.75203e-07
3.19029e-10
2.75306e-07
3.39735e-10
2.75369e-07
3.38372e-10
2.75403e-07
3.2717e-10
2.75417e-07
3.01056e-10
2.75411e-07
2.76522e-10
2.75392e-07
2.49694e-10
2.75361e-07
2.24718e-10
2.75321e-07
2.02232e-10
2.75272e-07
1.82189e-10
2.75217e-07
1.64738e-10
2.75156e-07
1.49023e-10
2.75092e-07
1.35262e-10
1.2345e-10
2.75027e-07
3.23747e-07
1.05956e-10
3.23864e-07
2.01947e-10
3.23949e-07
2.54691e-10
3.24002e-07
2.85455e-10
3.24032e-07
2.97818e-10
3.24037e-07
2.95139e-10
3.24025e-07
2.88694e-10
3.23999e-07
2.7585e-10
3.23962e-07
2.61716e-10
3.23916e-07
2.48702e-10
3.23861e-07
2.37183e-10
3.23799e-07
2.25999e-10
3.23733e-07
2.15308e-10
3.23663e-07
2.05711e-10
1.97252e-10
3.23589e-07
3.72758e-07
-4.51325e-11
3.7287e-07
8.92989e-11
3.72951e-07
1.74073e-10
3.73006e-07
2.29795e-10
3.7304e-07
2.64303e-10
3.73052e-07
2.83516e-10
3.73047e-07
2.93697e-10
3.73025e-07
2.97735e-10
3.72989e-07
2.97361e-10
3.72943e-07
2.94484e-10
3.7289e-07
2.90559e-10
3.7283e-07
2.86338e-10
3.72763e-07
2.82183e-10
3.7269e-07
2.78226e-10
2.74628e-10
3.72613e-07
3.70195e-07
-1.21898e-10
3.70259e-07
2.60537e-11
3.70304e-07
1.29249e-10
3.70333e-07
2.00661e-10
3.70346e-07
2.50528e-10
3.70346e-07
2.84469e-10
3.70332e-07
3.07105e-10
3.70307e-07
3.22485e-10
3.70272e-07
3.32664e-10
3.70228e-07
3.39022e-10
3.70175e-07
3.43067e-10
3.70116e-07
3.45806e-10
3.7005e-07
3.47829e-10
3.69979e-07
3.49444e-10
3.50668e-10
3.69903e-07
3.1659e-07
-1.42794e-10
3.16619e-07
-2.59269e-12
3.16647e-07
1.00902e-10
3.16671e-07
1.76403e-10
3.1669e-07
2.32244e-10
3.167e-07
2.736e-10
3.16703e-07
3.04427e-10
3.16698e-07
3.27634e-10
3.16685e-07
3.45329e-10
3.16665e-07
3.58992e-10
3.16639e-07
3.69797e-10
3.16606e-07
3.78658e-10
3.16567e-07
3.8616e-10
3.16524e-07
3.92662e-10
3.98374e-10
3.16477e-07
2.64966e-07
-1.26922e-10
2.64962e-07
1.68713e-12
2.64964e-07
9.93807e-11
2.64967e-07
1.73471e-10
2.64968e-07
2.30281e-10
2.64968e-07
2.74232e-10
2.64964e-07
3.08638e-10
2.64955e-07
3.35908e-10
2.64943e-07
3.57855e-10
2.64926e-07
3.75846e-10
2.64905e-07
3.90845e-10
2.6488e-07
4.03568e-10
2.64852e-07
4.14553e-10
2.6482e-07
4.24174e-10
4.32669e-10
2.64786e-07
2.17962e-07
-8.79156e-11
2.17939e-07
2.40395e-11
2.17928e-07
1.11155e-10
2.17922e-07
1.79325e-10
2.17919e-07
2.33135e-10
2.17917e-07
2.76095e-10
2.17915e-07
3.10835e-10
2.17911e-07
3.39323e-10
2.17906e-07
3.6302e-10
2.17899e-07
3.83002e-10
2.1789e-07
4.00049e-10
2.17879e-07
4.1475e-10
2.17866e-07
4.27545e-10
2.17851e-07
4.38742e-10
4.48556e-10
2.17835e-07
1.76708e-07
-4.04571e-11
1.7668e-07
5.19788e-11
1.76666e-07
1.25817e-10
1.7666e-07
1.85009e-10
1.7666e-07
2.32899e-10
1.76664e-07
2.72115e-10
1.7667e-07
3.04644e-10
1.76678e-07
3.31971e-10
1.76685e-07
3.55185e-10
1.76693e-07
3.75095e-10
1.76701e-07
3.92298e-10
1.76709e-07
4.07242e-10
1.76716e-07
4.20265e-10
1.76723e-07
4.31612e-10
4.41461e-10
1.7673e-07
1.41473e-07
-6.04395e-14
1.41452e-07
7.30201e-11
1.41445e-07
1.32778e-10
1.41449e-07
1.81724e-10
1.41459e-07
2.22212e-10
1.41475e-07
2.56104e-10
1.41495e-07
2.84807e-10
1.41518e-07
3.09363e-10
1.41543e-07
3.30538e-10
1.41569e-07
3.48907e-10
1.41596e-07
3.64899e-10
1.41625e-07
3.78832e-10
1.41654e-07
3.90948e-10
1.41684e-07
4.01419e-10
4.10364e-10
1.41715e-07
1.12025e-07
2.40662e-11
1.12018e-07
7.97629e-11
1.12025e-07
1.26324e-10
1.12041e-07
1.65255e-10
1.12065e-07
1.98133e-10
1.12095e-07
2.26211e-10
1.12129e-07
2.50422e-10
1.12167e-07
2.71451e-10
1.12208e-07
2.89804e-10
1.12251e-07
3.05864e-10
1.12296e-07
3.19913e-10
1.12343e-07
3.32162e-10
1.12391e-07
3.42767e-10
1.1244e-07
3.51842e-10
3.59466e-10
1.12491e-07
8.7832e-08
3.10946e-11
8.78397e-08
7.2138e-11
8.78586e-08
1.07375e-10
8.78865e-08
1.37405e-10
8.79213e-08
1.63277e-10
8.79617e-08
1.85799e-10
8.80066e-08
2.05545e-10
8.80551e-08
2.22932e-10
8.81067e-08
2.38271e-10
8.81607e-08
2.51796e-10
8.8217e-08
2.63682e-10
8.82751e-08
2.74055e-10
8.83348e-08
2.83014e-10
8.8396e-08
2.90627e-10
2.96945e-10
8.84586e-08
6.82182e-08
2.57197e-11
6.82353e-08
5.50307e-11
6.82615e-08
8.11215e-11
6.82953e-08
1.03692e-10
6.8335e-08
1.23533e-10
6.83797e-08
1.41134e-10
6.84284e-08
1.56816e-10
6.84805e-08
1.7081e-10
6.85355e-08
1.83292e-10
6.85929e-08
1.94393e-10
6.86524e-08
2.04211e-10
6.87136e-08
2.12816e-10
6.87764e-08
2.20266e-10
6.88404e-08
2.26595e-10
2.31835e-10
6.89055e-08
5.24764e-08
1.4368e-11
5.24967e-08
3.47479e-11
5.25242e-08
5.36039e-11
5.25577e-08
7.01839e-11
5.25962e-08
8.50479e-11
5.26388e-08
9.84817e-11
5.2685e-08
1.10644e-10
5.27341e-08
1.21652e-10
5.27858e-08
1.31591e-10
5.28397e-08
1.40526e-10
5.28954e-08
1.48505e-10
5.29527e-08
1.55561e-10
5.30112e-08
1.61723e-10
5.30708e-08
1.67004e-10
1.71424e-10
5.31312e-08
3.99439e-08
2.52121e-12
3.99624e-08
1.62743e-11
3.99865e-08
2.95213e-11
4.00152e-08
4.142e-11
4.0048e-08
5.22791e-11
4.00842e-08
6.2278e-11
4.01234e-08
7.1483e-11
4.01651e-08
7.99417e-11
4.0209e-08
8.76875e-11
4.02548e-08
9.47449e-11
4.03021e-08
1.01128e-10
4.03508e-08
1.06851e-10
4.04006e-08
1.11919e-10
4.04513e-08
1.16339e-10
1.20118e-10
4.05026e-08
3.00368e-08
-6.52296e-12
3.00507e-08
2.38646e-12
3.00689e-08
1.137e-11
3.00906e-08
1.96958e-11
3.01155e-08
2.73946e-11
3.01431e-08
3.46205e-11
3.01732e-08
4.13902e-11
3.02054e-08
4.77144e-11
3.02395e-08
5.35981e-11
3.02752e-08
5.90415e-11
3.03123e-08
6.40426e-11
3.03506e-08
6.86005e-11
3.03898e-08
7.27124e-11
3.04297e-08
7.63768e-11
7.95955e-11
3.04703e-08
2.22583e-08
-1.15715e-11
2.22667e-08
-6.06506e-12
2.22784e-08
-3.25506e-13
2.22928e-08
5.30529e-12
2.23096e-08
1.05886e-11
2.23286e-08
1.5628e-11
2.23496e-08
2.04321e-11
2.23723e-08
2.49981e-11
2.23966e-08
2.93197e-11
2.24222e-08
3.33844e-11
2.24491e-08
3.71833e-11
2.2477e-08
4.07086e-11
2.25057e-08
4.39518e-11
2.25352e-08
4.69101e-11
4.95802e-11
2.25652e-08
1.61936e-08
-1.29335e-11
1.61972e-08
-9.65989e-12
1.62032e-08
-6.29607e-12
1.62112e-08
-2.73799e-12
1.6221e-08
7.70626e-13
1.62325e-08
4.13783e-12
1.62455e-08
7.39575e-12
1.626e-08
1.05446e-11
1.62757e-08
1.35798e-11
1.62926e-08
1.64818e-11
1.63106e-08
1.92428e-11
1.63294e-08
2.18515e-11
1.63491e-08
2.42978e-11
1.63694e-08
2.65796e-11
2.86916e-11
1.63903e-08
1.15003e-08
-1.16426e-11
1.15005e-08
-9.8506e-12
1.15021e-08
-7.95789e-12
1.15053e-08
-5.89958e-12
1.15098e-08
-3.75393e-12
1.15156e-08
-1.61643e-12
1.15225e-08
4.68309e-13
1.15305e-08
2.51092e-12
1.15396e-08
4.5174e-12
1.15496e-08
6.46489e-12
1.15605e-08
8.35125e-12
1.15722e-08
1.01641e-11
1.15846e-08
1.18943e-11
1.15976e-08
1.35417e-11
1.51015e-11
1.16112e-08
7.898e-09
-8.81647e-12
7.89612e-09
-7.97233e-12
7.8952e-09
-7.03406e-12
7.89523e-09
-5.92934e-12
7.89618e-09
-4.70457e-12
7.89804e-09
-3.48002e-12
7.90078e-09
-2.26515e-12
7.90433e-09
-1.04398e-12
7.90868e-09
1.74777e-13
7.91377e-09
1.37174e-12
7.91957e-09
2.55266e-12
7.92603e-09
3.70477e-12
7.9331e-09
4.82142e-12
7.94074e-09
5.90474e-12
6.95292e-12
7.94889e-09
5.15867e-09
-5.55993e-12
5.15596e-09
-5.26359e-12
5.15379e-09
-4.8635e-12
5.1522e-09
-4.3425e-12
5.15123e-09
-3.73519e-12
5.15087e-09
-3.12056e-12
5.1511e-09
-2.49279e-12
5.15191e-09
-1.85266e-12
5.15329e-09
-1.20847e-12
5.15523e-09
-5.6505e-13
5.1577e-09
8.33979e-14
5.16068e-09
7.22738e-13
5.16415e-09
1.35086e-12
5.16808e-09
1.97093e-12
2.58475e-12
5.17245e-09
3.09785e-09
-2.69805e-12
3.09524e-09
-2.66079e-12
3.09291e-09
-2.52792e-12
3.0909e-09
-2.33218e-12
3.08925e-09
-2.09199e-12
3.08798e-09
-1.84563e-12
3.08708e-09
-1.58931e-12
3.08655e-09
-1.32453e-12
3.08639e-09
-1.05429e-12
3.08661e-09
-7.7894e-13
3.08719e-09
-4.96915e-13
3.08813e-09
-2.17517e-13
3.08942e-09
6.19961e-14
3.09105e-09
3.42017e-13
6.27648e-13
3.093e-09
1.56738e-09
-7.58613e-13
1.56551e-09
-7.91451e-13
1.56375e-09
-7.62867e-13
1.56213e-09
-7.18616e-13
1.5607e-09
-6.62323e-13
1.55946e-09
-6.04804e-13
1.55842e-09
-5.44402e-13
1.55757e-09
-4.80727e-13
1.55693e-09
-4.14605e-13
1.5565e-09
-3.4591e-13
1.55628e-09
-2.74758e-13
1.55626e-09
-2.03422e-13
1.55646e-09
-1.30472e-13
1.55686e-09
-5.6683e-14
2.29167e-14
1.55746e-09
4.48951e-10
4.4816e-10
4.47397e-10
4.46678e-10
4.46016e-10
4.45411e-10
4.44867e-10
4.44386e-10
4.43972e-10
4.43626e-10
4.43351e-10
4.43148e-10
4.43017e-10
4.4296e-10
4.42983e-10
1.26808e-09
-5.37648e-10
3.31082e-10
1.56224e-09
-4.88041e-10
1.93885e-10
1.85717e-09
-3.75812e-10
8.08826e-11
2.14578e-09
-2.67369e-10
-2.12421e-11
2.42569e-09
-1.70087e-10
-1.0982e-10
2.69737e-09
-9.33747e-11
-1.78307e-10
2.96202e-09
-3.95412e-11
-2.25111e-10
3.22072e-09
-9.94055e-12
-2.48759e-10
3.47442e-09
-5.2077e-12
-2.48492e-10
3.72393e-09
-2.52085e-11
-2.24302e-10
3.96988e-09
-6.87958e-11
-1.77153e-10
4.21274e-09
-1.33315e-10
-1.09551e-10
4.4529e-09
-2.13424e-10
-2.67351e-11
4.6908e-09
-2.99159e-10
6.1262e-11
4.92723e-09
-3.73463e-10
1.37032e-10
5.16383e-09
-4.08183e-10
1.71584e-10
5.40372e-09
-3.61046e-10
1.21159e-10
5.65237e-09
-1.71799e-10
-7.68494e-11
5.9182e-09
2.37935e-10
-5.03771e-10
6.21343e-09
9.49817e-10
-1.24504e-09
6.55107e-09
2.0264e-09
-2.36404e-09
6.94043e-09
3.46383e-09
-3.85319e-09
7.31627e-09
4.22442e-09
-4.60027e-09
7.63982e-09
4.1715e-09
-4.49505e-09
7.90189e-09
3.67926e-09
-3.94133e-09
8.10056e-09
2.90599e-09
-3.10466e-09
8.23752e-09
1.97826e-09
-2.11523e-09
8.31503e-09
9.8777e-10
-1.06528e-09
8.335e-09
1.53696e-12
-2.15046e-11
8.29843e-09
-9.2786e-10
9.64435e-10
8.2067e-09
-1.75574e-09
1.84747e-09
8.06169e-09
-2.44538e-09
2.59038e-09
7.86626e-09
-2.96887e-09
3.16431e-09
7.62412e-09
-3.30869e-09
3.55083e-09
7.33951e-09
-3.45786e-09
3.74247e-09
7.01667e-09
-3.41868e-09
3.74152e-09
6.65936e-09
-3.19991e-09
3.55721e-09
6.27075e-09
-2.81298e-09
3.20159e-09
5.85369e-09
-2.26718e-09
2.68425e-09
5.41096e-09
-1.56531e-09
2.00804e-09
4.94381e-09
-7.05954e-10
1.1731e-09
4.44721e-09
2.97567e-10
1.99035e-10
3.909e-09
1.35892e-09
-8.20705e-10
3.33958e-09
2.26264e-09
-1.69322e-09
2.38222e-09
3.00928e-09
-2.05193e-09
2.63025e-09
-6.18881e-10
2.80238e-09
-6.60176e-10
3.03561e-09
-6.09041e-10
3.2952e-09
-5.26961e-10
3.56565e-09
-4.4053e-10
3.83881e-09
-3.66532e-10
4.11112e-09
-3.11851e-10
4.38108e-09
-2.79903e-10
4.64813e-09
-2.72263e-10
4.91216e-09
-2.89231e-10
5.17323e-09
-3.29866e-10
5.43145e-09
-3.91544e-10
5.68698e-09
-4.6895e-10
5.94009e-09
-5.52274e-10
6.19153e-09
-6.24898e-10
6.44295e-09
-6.59604e-10
6.69766e-09
-6.15756e-10
6.96156e-09
-4.357e-10
7.24379e-09
-4.42935e-11
7.55777e-09
6.35842e-10
7.91814e-09
1.66602e-09
8.33601e-09
3.04596e-09
8.74292e-09
3.81752e-09
9.09704e-09
3.81738e-09
9.38742e-09
3.38887e-09
9.61091e-09
2.6825e-09
9.76843e-09
1.82075e-09
9.86181e-09
8.94384e-10
9.89258e-09
-2.9234e-11
9.86195e-09
-8.97228e-10
9.7715e-09
-1.66529e-09
9.62363e-09
-2.29751e-09
9.42198e-09
-2.76722e-09
9.1713e-09
-3.05801e-09
8.8772e-09
-3.16376e-09
8.54572e-09
-3.0872e-09
8.18311e-09
-2.83729e-09
7.79602e-09
-2.42589e-09
7.39275e-09
-1.86391e-09
6.98547e-09
-1.15804e-09
6.59288e-09
-3.13357e-10
6.24141e-09
6.49031e-10
5.96734e-09
1.63299e-09
5.82777e-09
2.40221e-09
2.44946e-09
5.76053e-09
4.56212e-09
-6.32656e-10
4.63659e-09
-7.34652e-10
4.78159e-09
-7.54043e-10
4.98094e-09
-7.26307e-10
5.21285e-09
-6.72442e-10
5.4636e-09
-6.17283e-10
5.72447e-09
-5.72718e-10
5.99036e-09
-5.45796e-10
6.25824e-09
-5.4014e-10
6.52631e-09
-5.57305e-10
6.79353e-09
-5.97087e-10
7.05924e-09
-6.57255e-10
7.32306e-09
-7.32761e-10
7.5849e-09
-8.14112e-10
7.84527e-09
-8.85274e-10
8.10577e-09
-9.20103e-10
8.3698e-09
-8.79782e-10
8.64363e-09
-7.09537e-10
8.9371e-09
-3.37764e-10
9.2649e-09
3.08049e-10
9.64344e-09
1.28747e-09
1.00858e-08
2.60357e-09
1.05213e-08
3.38202e-09
1.09051e-08
3.43356e-09
1.12242e-08
3.06987e-09
1.14736e-08
2.43309e-09
1.16532e-08
1.64108e-09
1.17643e-08
7.83329e-10
1.18079e-08
-7.28575e-11
1.17853e-08
-8.74662e-10
1.16985e-08
-1.57841e-09
1.15504e-08
-2.1494e-09
1.13456e-08
-2.56246e-09
1.10903e-08
-2.80267e-09
1.07917e-08
-2.86517e-09
1.04581e-08
-2.75364e-09
1.00989e-08
-2.47803e-09
9.72479e-09
-2.05182e-09
9.35034e-09
-1.48947e-09
8.99702e-09
-8.04715e-10
8.69803e-09
-1.43628e-11
8.49915e-09
8.47908e-10
8.44647e-09
1.68567e-09
8.54737e-09
2.30132e-09
2.36031e-09
8.63652e-09
7.19057e-09
-6.09373e-10
7.19843e-09
-7.42516e-10
7.25925e-09
-8.14862e-10
7.3781e-09
-8.45157e-10
7.54633e-09
-8.40671e-10
7.74877e-09
-8.19718e-10
7.97427e-09
-7.98219e-10
8.21502e-09
-7.86545e-10
8.46535e-09
-7.90475e-10
8.72141e-09
-8.13367e-10
8.98058e-09
-8.56252e-10
9.24102e-09
-9.17698e-10
9.5015e-09
-9.93237e-10
9.76131e-09
-1.07393e-09
1.00206e-08
-1.14453e-09
1.02806e-08
-1.18015e-09
1.05449e-08
-1.14402e-09
1.08199e-08
-9.84565e-10
1.11161e-08
-6.34029e-10
1.14496e-08
-2.54484e-11
1.18387e-08
8.98393e-10
1.22986e-08
2.14369e-09
1.27577e-08
2.92291e-09
1.31684e-08
3.02285e-09
1.35149e-08
2.72341e-09
1.37902e-08
2.15774e-09
1.39929e-08
1.43842e-09
1.4123e-08
6.53219e-10
1.41813e-08
-1.31137e-10
1.41689e-08
-8.62295e-10
1.40882e-08
-1.49768e-09
1.39429e-08
-2.00417e-09
1.3739e-08
-2.35848e-09
1.34839e-08
-2.54759e-09
1.3187e-08
-2.56831e-09
1.28592e-08
-2.42587e-09
1.25132e-08
-2.13195e-09
1.2164e-08
-1.70263e-09
1.18315e-08
-1.157e-09
1.15436e-08
-5.16811e-10
1.13392e-08
1.90056e-10
1.12663e-08
9.20737e-10
1.136e-08
1.59201e-09
1.15965e-08
2.06487e-09
2.16331e-09
1.17934e-08
1.06825e-08
-5.69832e-10
1.0648e-08
-7.0803e-10
1.06461e-08
-8.13007e-10
1.06874e-08
-8.8645e-10
1.07757e-08
-9.28941e-10
1.09093e-08
-9.53319e-10
1.10756e-08
-9.64544e-10
1.12674e-08
-9.78306e-10
1.14774e-08
-1.00053e-09
1.17003e-08
-1.03625e-09
1.19318e-08
-1.08779e-09
1.21689e-08
-1.15474e-09
1.24091e-08
-1.23348e-09
1.26511e-08
-1.31586e-09
1.28942e-08
-1.38764e-09
1.31394e-08
-1.42542e-09
1.33902e-08
-1.39472e-09
1.36531e-08
-1.24755e-09
1.39394e-08
-9.20274e-10
1.42662e-08
-3.52283e-10
1.4654e-08
5.10581e-10
1.51202e-08
1.67748e-09
1.55944e-08
2.44878e-09
1.60263e-08
2.59094e-09
1.63967e-08
2.35298e-09
1.66962e-08
1.85824e-09
1.69213e-08
1.21331e-09
1.70709e-08
5.0361e-10
1.71451e-08
-2.05272e-10
1.71448e-08
-8.62045e-10
1.70729e-08
-1.42575e-09
1.69341e-08
-1.86535e-09
1.67355e-08
-2.15986e-09
1.64864e-08
-2.29856e-09
1.61985e-08
-2.28038e-09
1.58852e-08
-2.11257e-09
1.55623e-08
-1.80909e-09
1.52487e-08
-1.38902e-09
1.49676e-08
-8.75904e-10
1.47486e-08
-2.97788e-10
1.46279e-08
3.10759e-10
1.46434e-08
9.05242e-10
1.4813e-08
1.42243e-09
1.50997e-08
1.77811e-09
1.88984e-09
1.53732e-08
1.52355e-08
-5.26184e-10
1.51808e-08
-6.53332e-10
1.51373e-08
-7.69553e-10
1.51194e-08
-8.68528e-10
1.51351e-08
-9.4462e-10
1.51896e-08
-1.00787e-09
1.52808e-08
-1.05575e-09
1.54033e-08
-1.10073e-09
1.55504e-08
-1.14765e-09
1.57168e-08
-1.20266e-09
1.58976e-08
-1.26861e-09
1.60887e-08
-1.34589e-09
1.6287e-08
-1.43175e-09
1.64901e-08
-1.51891e-09
1.66968e-08
-1.59435e-09
1.69077e-08
-1.63633e-09
1.71258e-08
-1.61289e-09
1.73583e-08
-1.48004e-09
1.76166e-08
-1.17849e-09
1.79192e-08
-6.54933e-10
1.82888e-08
1.40949e-10
1.8745e-08
1.22133e-09
1.92209e-08
1.97282e-09
1.96645e-08
2.14734e-09
2.00522e-08
1.96529e-09
2.03714e-08
1.53908e-09
2.06163e-08
9.68422e-10
2.07841e-08
3.35754e-10
2.08741e-08
-2.95237e-10
2.08871e-08
-8.75032e-10
2.08262e-08
-1.36492e-09
2.06973e-08
-1.73644e-09
2.05089e-08
-1.97143e-09
2.02722e-08
-2.06182e-09
2.00008e-08
-2.009e-09
1.97108e-08
-1.82256e-09
1.94205e-08
-1.51878e-09
1.91509e-08
-1.11945e-09
1.89261e-08
-6.51116e-10
1.87731e-08
-1.44789e-10
1.87199e-08
3.63956e-10
1.87897e-08
8.3546e-10
1.89862e-08
1.22596e-09
1.92738e-08
1.49048e-09
1.5967e-09
1.9567e-08
2.10849e-08
-4.83071e-10
2.1025e-08
-5.93487e-10
2.09608e-08
-7.05327e-10
2.09038e-08
-8.11559e-10
2.08663e-08
-9.07046e-10
2.08525e-08
-9.94118e-10
2.08676e-08
-1.07089e-09
2.09111e-08
-1.14418e-09
2.09802e-08
-1.21677e-09
2.10711e-08
-1.29353e-09
2.11796e-08
-1.37712e-09
2.13019e-08
-1.46814e-09
2.14344e-08
-1.56431e-09
2.15746e-08
-1.65906e-09
2.17208e-08
-1.74062e-09
2.18734e-08
-1.78892e-09
2.20353e-08
-1.77478e-09
2.22139e-08
-1.6586e-09
2.24208e-08
-1.38544e-09
2.26764e-08
-9.10456e-10
2.30053e-08
-1.88001e-10
2.34291e-08
7.97573e-10
2.38882e-08
1.51371e-09
2.43291e-08
1.70637e-09
2.47231e-08
1.5713e-09
2.50537e-08
1.20846e-09
2.53125e-08
7.09628e-10
2.54948e-08
1.53523e-10
2.55984e-08
-3.98921e-10
2.56242e-08
-9.00803e-10
2.55757e-08
-1.31635e-09
2.54595e-08
-1.6203e-09
2.52857e-08
-1.79766e-09
2.50673e-08
-1.84338e-09
2.48198e-08
-1.76148e-09
2.4561e-08
-1.56379e-09
2.43108e-08
-1.26857e-09
2.40906e-08
-8.99204e-10
2.39225e-08
-4.83113e-10
2.38284e-08
-5.06629e-11
2.38262e-08
3.66143e-10
2.39258e-08
7.3592e-10
2.41212e-08
1.03055e-09
2.43831e-08
1.22853e-09
1.32071e-09
2.46591e-08
2.85104e-08
-4.39633e-10
2.84504e-08
-5.33469e-10
2.83789e-08
-6.33817e-10
2.83031e-08
-7.35816e-10
2.82317e-08
-8.35586e-10
2.81697e-08
-9.322e-10
2.81237e-08
-1.02489e-09
2.80955e-08
-1.11598e-09
2.80862e-08
-1.20739e-09
2.80945e-08
-1.30183e-09
2.81184e-08
-1.40103e-09
2.81553e-08
-1.50506e-09
2.82026e-08
-1.61163e-09
2.82581e-08
-1.7145e-09
2.83204e-08
-1.80297e-09
2.83901e-08
-1.85856e-09
2.84702e-08
-1.8549e-09
2.85687e-08
-1.75717e-09
2.86978e-08
-1.51452e-09
2.88792e-08
-1.09186e-09
2.91403e-08
-4.49091e-10
2.95039e-08
4.34003e-10
2.99219e-08
1.09573e-09
3.03406e-08
1.28766e-09
3.07249e-08
1.18701e-09
3.10541e-08
8.79192e-10
3.13169e-08
4.46906e-10
3.1506e-08
-3.56257e-11
3.16183e-08
-5.112e-10
3.16539e-08
-9.36456e-10
3.16169e-08
-1.27931e-09
3.15148e-08
-1.51823e-09
3.1359e-08
-1.6418e-09
3.11637e-08
-1.64809e-09
3.09459e-08
-1.54368e-09
3.07243e-08
-1.34225e-09
3.05189e-08
-1.06316e-09
3.03496e-08
-7.29885e-10
3.0235e-08
-3.68485e-10
3.01903e-08
-5.94609e-12
3.02247e-08
3.31696e-10
3.03388e-08
6.21802e-10
3.0522e-08
8.47433e-10
3.0751e-08
9.99452e-10
1.078e-09
3.09937e-08
3.78353e-08
-3.92597e-10
3.77738e-08
-4.71988e-10
3.76993e-08
-5.59271e-10
3.76151e-08
-6.51597e-10
3.75257e-08
-7.4628e-10
3.74355e-08
-8.41913e-10
3.73485e-08
-9.37898e-10
3.72674e-08
-1.03487e-09
3.7194e-08
-1.134e-09
3.71288e-08
-1.23666e-09
3.70714e-08
-1.34368e-09
3.70208e-08
-1.45447e-09
3.69758e-08
-1.56656e-09
3.6935e-08
-1.67372e-09
3.68983e-08
-1.76625e-09
3.68667e-08
-1.827e-09
3.68442e-08
-1.83242e-09
3.68399e-08
-1.75282e-09
3.68662e-08
-1.54083e-09
3.69468e-08
-1.17247e-09
3.71118e-08
-6.14056e-10
3.73848e-08
1.60928e-10
3.77336e-08
7.46947e-10
3.8106e-08
9.1533e-10
3.84597e-08
8.33308e-10
3.87699e-08
5.68975e-10
3.90219e-08
1.94885e-10
3.92062e-08
-2.19979e-10
3.93182e-08
-6.23176e-10
3.93576e-08
-9.75824e-10
3.93285e-08
-1.25026e-09
3.92395e-08
-1.42914e-09
3.91025e-08
-1.50485e-09
3.89329e-08
-1.47852e-09
3.87482e-08
-1.3589e-09
3.85667e-08
-1.16082e-09
3.84071e-08
-9.0359e-10
3.82865e-08
-6.09243e-10
3.82188e-08
-3.00798e-10
3.82132e-08
-3.5567e-13
3.82727e-08
2.72254e-10
3.83926e-08
5.01894e-10
3.85611e-08
6.78942e-10
3.87603e-08
8.00243e-10
8.68859e-10
3.89694e-08
4.94149e-08
-3.39626e-10
4.93495e-08
-4.06587e-10
4.92715e-08
-4.81228e-10
4.91819e-08
-5.6204e-10
4.90829e-08
-6.47306e-10
4.89768e-08
-7.35787e-10
4.88658e-08
-8.26834e-10
4.87514e-08
-9.205e-10
4.86347e-08
-1.01733e-09
4.8516e-08
-1.11799e-09
4.83951e-08
-1.22277e-09
4.82714e-08
-1.33072e-09
4.81442e-08
-1.43938e-09
4.80131e-08
-1.5426e-09
4.78787e-08
-1.6319e-09
4.77431e-08
-1.6914e-09
4.76111e-08
-1.70042e-09
4.74932e-08
-1.63489e-09
4.74024e-08
-1.45002e-09
4.73642e-08
-1.13425e-09
4.74111e-08
-6.61022e-10
4.7568e-08
4.07549e-12
4.78211e-08
4.9384e-10
4.81216e-08
6.14875e-10
4.84207e-08
5.34134e-10
4.86906e-08
2.99092e-10
4.89134e-08
-2.78919e-11
4.90773e-08
-3.83893e-10
4.91763e-08
-7.22186e-10
4.92097e-08
-1.00925e-09
4.91819e-08
-1.22242e-09
4.91017e-08
-1.34889e-09
4.89816e-08
-1.38479e-09
4.88371e-08
-1.33401e-09
4.86851e-08
-1.20686e-09
4.85427e-08
-1.01841e-09
4.84258e-08
-7.86785e-10
4.8348e-08
-5.31427e-10
4.83186e-08
-2.7141e-10
4.83421e-08
-2.37904e-11
4.84172e-08
1.97153e-10
4.85376e-08
3.81516e-10
4.86921e-08
5.24363e-10
4.88672e-08
6.25128e-10
6.87231e-10
4.90489e-08
6.36212e-08
-2.81387e-10
6.3552e-08
-3.3734e-10
6.34709e-08
-4.00105e-10
6.33778e-08
-4.68983e-10
6.32735e-08
-5.42959e-10
6.31588e-08
-6.21081e-10
6.30346e-08
-7.02677e-10
6.29016e-08
-7.87471e-10
6.27597e-08
-8.75481e-10
6.26086e-08
-9.6682e-10
6.24471e-08
-1.06134e-09
6.22742e-08
-1.15778e-09
6.20887e-08
-1.2539e-09
6.18899e-08
-1.34376e-09
6.16784e-08
-1.42047e-09
6.14565e-08
-1.46947e-09
6.12293e-08
-1.47327e-09
6.10082e-08
-1.41375e-09
6.08067e-08
-1.24848e-09
6.06511e-08
-9.78647e-10
6.0575e-08
-5.85009e-10
6.06062e-08
-2.70523e-11
6.07486e-08
3.51424e-10
6.09565e-08
4.06953e-10
6.11788e-08
3.11842e-10
6.13875e-08
9.03745e-11
6.15618e-08
-2.02195e-10
6.16881e-08
-5.10145e-10
6.17594e-08
-7.93514e-10
6.17749e-08
-1.02476e-09
6.1739e-08
-1.18653e-09
6.16607e-08
-1.27059e-09
6.15525e-08
-1.27654e-09
6.14289e-08
-1.21047e-09
6.13055e-08
-1.08345e-09
6.1197e-08
-9.09874e-10
6.11161e-08
-7.0587e-10
6.10723e-08
-4.87686e-10
6.10713e-08
-2.70361e-10
6.1114e-08
-6.65505e-11
6.11971e-08
1.14118e-10
6.13141e-08
2.6443e-10
6.14557e-08
3.82799e-10
6.16114e-08
4.69399e-10
5.27152e-10
6.17715e-08
8.08416e-08
-2.21779e-10
8.0772e-08
-2.67774e-10
8.06913e-08
-3.19436e-10
8.05989e-08
-3.76505e-10
8.04943e-08
-4.38428e-10
8.03778e-08
-5.04538e-10
8.02493e-08
-5.74205e-10
8.01088e-08
-6.46963e-10
7.99558e-08
-7.22433e-10
7.97892e-08
-8.00234e-10
7.96076e-08
-8.79766e-10
7.94092e-08
-9.59396e-10
7.91924e-08
-1.03708e-09
7.89555e-08
-1.10692e-09
7.86988e-08
-1.16374e-09
7.84236e-08
-1.19423e-09
7.81348e-08
-1.18447e-09
7.78428e-08
-1.12173e-09
7.75614e-08
-9.67116e-10
7.73164e-08
-7.33615e-10
7.71375e-08
-4.06146e-10
7.70619e-08
4.85285e-11
7.71014e-08
3.11913e-10
7.72071e-08
3.01296e-10
7.73407e-08
1.78231e-10
7.74756e-08
-4.44773e-11
7.75881e-08
-3.14729e-10
7.76631e-08
-5.8516e-10
7.76943e-08
-8.2467e-10
7.7681e-08
-1.01148e-09
7.76279e-08
-1.13347e-09
7.7544e-08
-1.18664e-09
7.74409e-08
-1.17348e-09
7.73319e-08
-1.10148e-09
7.72302e-08
-9.81686e-10
7.71474e-08
-8.27123e-10
7.7093e-08
-6.51449e-10
7.7073e-08
-4.67693e-10
7.709e-08
-2.87346e-10
7.71431e-08
-1.19638e-10
7.72276e-08
2.96223e-11
7.73382e-08
1.53846e-10
7.7467e-08
2.5401e-10
7.76061e-08
3.30232e-10
3.84701e-10
7.77486e-08
1.01511e-07
-1.65754e-10
1.01446e-07
-2.02725e-10
1.01371e-07
-2.44129e-10
1.01284e-07
-2.89902e-10
1.01186e-07
-3.39748e-10
1.01074e-07
-3.93213e-10
1.0095e-07
-4.4974e-10
1.00812e-07
-5.08783e-10
1.00659e-07
-5.69707e-10
1.0049e-07
-6.31789e-10
1.00305e-07
-6.94045e-10
1.001e-07
-7.54515e-10
9.98739e-08
-8.11246e-10
9.96254e-08
-8.58361e-10
9.93539e-08
-8.92284e-10
9.90602e-08
-9.00508e-10
9.87491e-08
-8.73419e-10
9.84287e-08
-8.01311e-10
9.8113e-08
-6.51411e-10
9.78265e-08
-4.4708e-10
9.7588e-08
-1.67678e-10
9.74425e-08
1.94079e-10
9.74151e-08
3.39272e-10
9.74408e-08
2.75561e-10
9.74916e-08
1.27491e-10
9.75544e-08
-1.07282e-10
9.76041e-08
-3.64498e-10
9.76245e-08
-6.05522e-10
9.7611e-08
-8.11133e-10
9.75642e-08
-9.64742e-10
9.74895e-08
-1.05871e-09
9.73953e-08
-1.09251e-09
9.72925e-08
-1.07066e-09
9.71923e-08
-1.00123e-09
9.71051e-08
-8.94509e-10
9.70397e-08
-7.61757e-10
9.70024e-08
-6.14106e-10
9.69964e-08
-4.6171e-10
9.70222e-08
-3.1318e-10
9.70778e-08
-1.75229e-10
9.71599e-08