/*--------------------------------*- C++ -*----------------------------------*\
| =========                 |                                                 |
| \\      /  F ield         | OpenFOAM: The Open Source CFD Toolbox           |
|  \\    /   O peration     | Version:  2312                                  |
|   \\  /    A nd           | Website:  www.openfoam.com                      |
|    \\/     M anipulation  |                                                 |
\*---------------------------------------------------------------------------*/
FoamFile
{
    version     2.0;
    format      ascii;
    arch        "LSB;label=32;scalar=64";
    class       volScalarField;
    location    "94.5";
    object      p;
}
// * * * * * * * * * * * * * * * * * * * * * * * * * * * * * * * * * * * * * //

dimensions      [0 2 -2 0 0 0 0];

internalField   nonuniform List<scalar> 
4800
(
2.54092e-14
-1.22384e-06
-2.29829e-06
-3.2556e-06
-4.11234e-06
-4.88493e-06
-5.58399e-06
-6.21296e-06
-6.78215e-06
-7.29985e-06
-7.77192e-06
-8.20022e-06
-8.57626e-06
-9.14322e-06
-1.09033e-05
1.10069e-08
-1.21034e-06
-2.28225e-06
-3.23801e-06
-4.09383e-06
-4.86719e-06
-5.56809e-06
-6.20054e-06
-6.7756e-06
-7.30354e-06
-7.79527e-06
-8.26667e-06
-8.7317e-06
-9.29937e-06
-1.02236e-05
2.30923e-08
-1.19542e-06
-2.26492e-06
-3.21877e-06
-4.07341e-06
-4.84595e-06
-5.54796e-06
-6.18292e-06
-6.76236e-06
-7.29751e-06
-7.80029e-06
-8.2869e-06
-8.76549e-06
-9.24072e-06
-9.68237e-06
3.62254e-08
-1.17867e-06
-2.24503e-06
-3.19625e-06
-4.04962e-06
-4.81981e-06
-5.52176e-06
-6.15759e-06
-6.73806e-06
-7.27381e-06
-7.77368e-06
-8.24433e-06
-8.6763e-06
-9.03353e-06
-9.2383e-06
5.18421e-08
-1.15835e-06
-2.22052e-06
-3.16805e-06
-4.01946e-06
-4.78611e-06
-5.48544e-06
-6.11964e-06
-6.69649e-06
-7.22443e-06
-7.70689e-06
-8.13994e-06
-8.50215e-06
-8.75078e-06
-8.82561e-06
7.15907e-08
-1.1327e-06
-2.18947e-06
-3.13197e-06
-3.97948e-06
-4.74199e-06
-5.43486e-06
-6.06311e-06
-6.6301e-06
-7.14046e-06
-7.59211e-06
-7.97408e-06
-8.26276e-06
-8.42566e-06
-8.43228e-06
9.79147e-08
-1.09924e-06
-2.14916e-06
-3.08494e-06
-3.92572e-06
-4.68208e-06
-5.36493e-06
-5.98104e-06
-6.53046e-06
-7.01347e-06
-7.42409e-06
-7.74961e-06
-7.97175e-06
-8.07373e-06
-8.04805e-06
1.34607e-07
-1.05424e-06
-2.0956e-06
-3.02249e-06
-3.85365e-06
-4.59946e-06
-5.26833e-06
-5.8653e-06
-6.38902e-06
-6.83657e-06
-7.20083e-06
-7.47187e-06
-7.64004e-06
-7.7021e-06
-7.66344e-06
1.86949e-07
-9.92517e-07
-2.02339e-06
-2.93862e-06
-3.75656e-06
-4.48692e-06
-5.13606e-06
-5.70711e-06
-6.19811e-06
-6.60515e-06
-6.92279e-06
-7.14631e-06
-7.27429e-06
-7.31233e-06
-7.27127e-06
2.61311e-07
-9.07701e-07
-1.92582e-06
-2.82608e-06
-3.62648e-06
-4.33599e-06
-4.95927e-06
-5.49848e-06
-5.95197e-06
-6.31713e-06
-6.59195e-06
-6.77718e-06
-6.87742e-06
-6.90281e-06
-6.8655e-06
3.64242e-07
-7.92949e-07
-1.79565e-06
-2.67703e-06
-3.4551e-06
-4.13816e-06
-4.73016e-06
-5.23344e-06
-5.64768e-06
-5.97298e-06
-6.2113e-06
-6.36775e-06
-6.45044e-06
-6.47108e-06
-6.44118e-06
5.01618e-07
-6.41789e-07
-1.62597e-06
-2.48403e-06
-3.23487e-06
-3.88633e-06
-4.44361e-06
-4.9094e-06
-5.28567e-06
-5.57573e-06
-5.78496e-06
-5.92128e-06
-5.99431e-06
-6.01561e-06
-5.99535e-06
6.78475e-07
-4.48479e-07
-1.41095e-06
-2.24076e-06
-2.96011e-06
-3.57711e-06
-4.09852e-06
-4.52774e-06
-4.86971e-06
-5.13066e-06
-5.3183e-06
-5.4419e-06
-5.51129e-06
-5.53703e-06
-5.52779e-06
8.99447e-07
-2.07538e-07
-1.14592e-06
-1.9421e-06
-2.62789e-06
-3.21086e-06
-3.697e-06
-4.09287e-06
-4.40593e-06
-4.64453e-06
-4.81762e-06
-4.93475e-06
-5.0052e-06
-5.03823e-06
-5.04111e-06
1.16916e-06
8.67215e-08
-8.14273e-07
-1.58687e-06
-2.24015e-06
-2.78924e-06
-3.24331e-06
-3.61114e-06
-3.90185e-06
-4.12506e-06
-4.29011e-06
-4.40612e-06
-4.48151e-06
-4.52423e-06
-4.54039e-06
1.49164e-06
4.33903e-07
-4.40746e-07
-1.1784e-06
-1.79882e-06
-2.31712e-06
-2.74472e-06
-3.09149e-06
-3.36715e-06
-3.58175e-06
-3.74452e-06
-3.86417e-06
-3.9482e-06
-4.00294e-06
-4.03374e-06
1.86375e-06
8.33482e-07
-1.31337e-08
-7.19548e-07
-1.31068e-06
-1.80368e-06
-2.21181e-06
-2.54551e-06
-2.81411e-06
-3.0275e-06
-3.19355e-06
-3.32039e-06
-3.41792e-06
-3.48713e-06
-3.535e-06
2.28067e-06
1.28078e-06
4.61766e-07
-2.19183e-07
-7.8796e-07
-1.2625e-06
-1.65776e-06
-1.98493e-06
-2.25431e-06
-2.47689e-06
-2.65218e-06
-2.79648e-06
-2.90457e-06
-2.99468e-06
-3.0651e-06
2.7288e-06
1.76211e-06
9.67422e-07
3.06291e-07
-2.48818e-07
-7.14419e-07
-1.10498e-06
-1.43009e-06
-1.70268e-06
-1.93873e-06
-2.14228e-06
-2.31133e-06
-2.44019e-06
-2.54245e-06
-2.62418e-06
3.19014e-06
2.25936e-06
1.48551e-06
8.36682e-07
2.87737e-07
-1.79619e-07
-5.77914e-07
-9.19979e-07
-1.21624e-06
-1.46607e-06
-1.67757e-06
-1.8583e-06
-2.01165e-06
-2.14254e-06
-2.25626e-06
3.59863e-06
2.70669e-06
1.9528e-06
1.3121e-06
7.61357e-07
2.86029e-07
-1.24782e-07
-4.81043e-07
-7.90474e-07
-1.05921e-06
-1.294e-06
-1.50134e-06
-1.68514e-06
-1.8481e-06
-1.9928e-06
3.91063e-06
3.0562e-06
2.32047e-06
1.68348e-06
1.13048e-06
6.48829e-07
2.2621e-07
-1.4583e-07
-4.74632e-07
-7.66665e-07
-1.02739e-06
-1.26114e-06
-1.47104e-06
-1.65949e-06
-1.82881e-06
4.13229e-06
3.31086e-06
2.59297e-06
1.96318e-06
1.40998e-06
9.21604e-07
4.87937e-07
1.00987e-07
-2.45712e-07
-5.57478e-07
-8.38675e-07
-1.0929e-06
-1.32319e-06
-1.532e-06
-1.72172e-06
4.29147e-06
3.50231e-06
2.802e-06
2.18117e-06
1.62941e-06
1.13646e-06
6.93853e-07
2.94819e-07
-6.61286e-08
-3.93513e-07
-6.91221e-07
-9.62507e-07
-1.21017e-06
-1.43659e-06
-1.64388e-06
4.40784e-06
3.64712e-06
2.9663e-06
2.35596e-06
1.80734e-06
1.31208e-06
8.63212e-07
4.55054e-07
8.28379e-08
-2.57381e-07
-5.68921e-07
-8.54602e-07
-1.1169e-06
-1.35786e-06
-1.57933e-06
4.49414e-06
3.76262e-06
3.10106e-06
2.50143e-06
1.957e-06
1.46112e-06
1.00794e-06
5.92637e-07
2.11223e-07
-1.39574e-07
-4.62564e-07
-7.60173e-07
-1.03455e-06
-1.28749e-06
-1.52068e-06
4.56369e-06
3.85812e-06
3.21385e-06
2.62459e-06
2.08499e-06
1.58947e-06
1.13322e-06
7.12265e-07
3.23407e-07
-3.60559e-08
-3.68539e-07
-6.76119e-07
-9.60638e-07
-1.22366e-06
-1.46674e-06
4.62001e-06
3.93743e-06
3.30877e-06
2.72927e-06
2.19455e-06
1.69991e-06
1.24145e-06
8.1604e-07
4.21096e-07
5.43853e-08
-2.86096e-07
-6.02096e-07
-8.9521e-07
-1.16681e-06
-1.41827e-06
4.66531e-06
4.003e-06
3.38829e-06
2.81769e-06
2.28754e-06
1.79402e-06
1.33398e-06
9.04985e-07
5.04962e-07
1.32122e-07
-2.15155e-07
-5.38332e-07
-8.38793e-07
-1.11772e-06
-1.37633e-06
4.7011e-06
4.05655e-06
3.45421e-06
2.89157e-06
2.36559e-06
1.87322e-06
1.41202e-06
9.80057e-07
5.75748e-07
1.97702e-07
-1.55383e-07
-4.84721e-07
-7.91482e-07
-1.07669e-06
-1.34138e-06
4.72871e-06
4.0997e-06
3.50828e-06
2.95265e-06
2.43036e-06
1.93909e-06
1.47696e-06
1.04252e-06
6.34562e-07
2.52059e-07
-1.0602e-07
-4.40656e-07
-7.5283e-07
-1.04341e-06
-1.31335e-06
4.7495e-06
4.13406e-06
3.55221e-06
3.0027e-06
2.48364e-06
1.99334e-06
1.53044e-06
1.09387e-06
6.82788e-07
2.96439e-07
-6.59501e-08
-4.05155e-07
-7.21985e-07
-1.01718e-06
-1.29158e-06
4.76477e-06
4.16116e-06
3.58767e-06
3.04345e-06
2.52718e-06
2.03772e-06
1.57414e-06
1.13573e-06
7.21922e-07
3.32233e-07
-3.38959e-08
-3.77052e-07
-6.97897e-07
-9.9705e-07
-1.27526e-06
4.7757e-06
4.18242e-06
3.61619e-06
3.07654e-06
2.56267e-06
2.0739e-06
1.60969e-06
1.16963e-06
7.53435e-07
3.6082e-07
-8.56994e-09
-3.55161e-07
-6.7948e-07
-9.82041e-07
-1.26352e-06
4.78334e-06
4.19905e-06
3.63912e-06
3.1034e-06
2.59157e-06
2.10336e-06
1.63855e-06
1.197e-06
7.78675e-07
3.83478e-07
1.12242e-08
-3.38369e-07
-6.65707e-07
-9.71213e-07
-1.25549e-06
4.7885e-06
4.21205e-06
3.65756e-06
3.12522e-06
2.61512e-06
2.12734e-06
1.66194e-06
1.21904e-06
7.98806e-07
4.01315e-07
2.65352e-08
-3.25691e-07
-6.55661e-07
-9.63721e-07
-1.25041e-06
4.79186e-06
4.22222e-06
3.6724e-06
3.14296e-06
2.63431e-06
2.14684e-06
1.68087e-06
1.23674e-06
8.1479e-07
4.1526e-07
3.82484e-08
-3.16289e-07
-6.48558e-07
-9.58832e-07
-1.24759e-06
4.79392e-06
4.23024e-06
3.68449e-06
3.15753e-06
2.65011e-06
2.16285e-06
1.69632e-06
1.25105e-06
8.27547e-07
4.26183e-07
4.7178e-08
-3.09415e-07
-6.4372e-07
-9.55947e-07
-1.24652e-06
4.79504e-06
4.2369e-06
3.69486e-06
3.17016e-06
2.66381e-06
2.17671e-06
1.7096e-06
1.26322e-06
8.38214e-07
4.35102e-07
5.42087e-08
-3.04321e-07
-6.40537e-07
-9.54589e-07
-1.24685e-06
4.79553e-06
4.24238e-06
3.70379e-06
3.18122e-06
2.67588e-06
2.18887e-06
1.72116e-06
1.27366e-06
8.47193e-07
4.42394e-07
5.97075e-08
-3.00628e-07
-6.38587e-07
-9.54264e-07
-1.24804e-06
-1.23313e-05
-9.89708e-06
-8.41257e-06
-7.42704e-06
-6.6422e-06
-6.03984e-06
-5.5664e-06
-5.18301e-06
-4.86217e-06
-4.5809e-06
-4.31994e-06
-4.06259e-06
-3.7941e-06
-3.50255e-06
-3.17905e-06
-2.8227e-06
-2.44066e-06
-2.06189e-06
-1.73501e-06
-1.54458e-06
-1.60884e-06
-2.051e-06
-2.8981e-06
-3.92476e-06
-4.89073e-06
-5.66339e-06
-6.17295e-06
-6.37922e-06
-6.2559e-06
-5.78526e-06
-4.95714e-06
-3.77347e-06
-2.25114e-06
-4.23374e-07
1.66131e-06
3.94179e-06
6.34749e-06
8.80057e-06
1.12151e-05
1.34924e-05
1.55046e-05
1.70875e-05
1.78893e-05
1.76209e-05
1.51363e-05
-1.0607e-05
-9.33859e-06
-8.21369e-06
-7.33531e-06
-6.59801e-06
-6.01098e-06
-5.54247e-06
-5.16027e-06
-4.83946e-06
-4.55793e-06
-4.29662e-06
-4.03881e-06
-3.76997e-06
-3.47804e-06
-3.15445e-06
-2.7984e-06
-2.41726e-06
-2.04004e-06
-1.71488e-06
-1.52521e-06
-1.58764e-06
-2.02285e-06
-2.85806e-06
-3.87257e-06
-4.82897e-06
-5.59503e-06
-6.10117e-06
-6.30685e-06
-6.18595e-06
-5.72092e-06
-4.90326e-06
-3.73664e-06
-2.24005e-06
-4.49132e-07
1.58468e-06
3.79642e-06
6.10987e-06
8.43837e-06
1.06815e-05
1.27155e-05
1.4364e-05
1.53614e-05
1.51992e-05
1.31458e-05
8.20661e-06
-9.70471e-06
-8.90407e-06
-8.006e-06
-7.22527e-06
-6.54066e-06
-5.9751e-06
-5.51453e-06
-5.13475e-06
-4.81423e-06
-4.53224e-06
-4.27024e-06
-4.01171e-06
-3.74209e-06
-3.44954e-06
-3.12576e-06
-2.77017e-06
-2.39033e-06
-2.01531e-06
-1.69271e-06
-1.50461e-06
-1.56565e-06
-1.99351e-06
-2.81532e-06
-3.81567e-06
-4.76054e-06
-5.51841e-06
-6.02005e-06
-6.22477e-06
-6.10657e-06
-5.64892e-06
-4.84499e-06
-3.70074e-06
-2.23793e-06
-4.95367e-07
1.4717e-06
3.59327e-06
5.78607e-06
7.95301e-06
9.97816e-06
1.17147e-05
1.29551e-05
1.33996e-05
1.2582e-05
9.97769e-06
5.43979e-06
-9.1247e-06
-8.54782e-06
-7.82165e-06
-7.11972e-06
-6.48565e-06
-5.94284e-06
-5.49052e-06
-5.1124e-06
-4.79097e-06
-4.50721e-06
-4.24336e-06
-3.98316e-06
-3.71213e-06
-3.41862e-06
-3.09451e-06
-2.73948e-06
-2.36128e-06
-1.98901e-06
-1.66959e-06
-1.48363e-06
-1.54364e-06
-1.96386e-06
-2.77111e-06
-3.75568e-06
-4.68726e-06
-5.43504e-06
-5.93038e-06
-6.13255e-06
-6.01598e-06
-5.56554e-06
-4.77662e-06
-3.65821e-06
-2.23568e-06
-5.51918e-07
1.33302e-06
3.34321e-06
5.38768e-06
7.35918e-06
9.12916e-06
1.05376e-05
1.13767e-05
1.13767e-05
1.02117e-05
7.62409e-06
3.82892e-06
-8.66592e-06
-8.2264e-06
-7.63726e-06
-7.02348e-06
-6.43584e-06
-5.91665e-06
-5.47243e-06
-5.09447e-06
-4.77025e-06
-4.48274e-06
-4.21527e-06
-3.95202e-06
-3.6787e-06
-3.3838e-06
-3.05937e-06
-2.70536e-06
-2.32963e-06
-1.96119e-06
-1.64621e-06
-1.46342e-06
-1.52294e-06
-1.93506e-06
-2.72603e-06
-3.69263e-06
-4.60885e-06
-5.34468e-06
-5.83233e-06
-6.03134e-06
-5.91685e-06
-5.47553e-06
-4.70551e-06
-3.61943e-06
-2.24684e-06
-6.35296e-07
1.14995e-06
3.02703e-06
4.89815e-06
6.64879e-06
8.14479e-06
9.22821e-06
9.71455e-06
9.40223e-06
8.111e-06
5.77855e-06
2.64717e-06
-8.27073e-06
-7.92474e-06
-7.44337e-06
-6.91699e-06
-6.38607e-06
-5.89458e-06
-5.45911e-06
-5.08094e-06
-4.75253e-06
-4.45928e-06
-4.18623e-06
-3.91831e-06
-3.64159e-06
-3.34473e-06
-3.02003e-06
-2.66765e-06
-2.29552e-06
-1.93243e-06
-1.62355e-06
-1.44537e-06
-1.5052e-06
-1.90875e-06
-2.68137e-06
-3.62732e-06
-4.52569e-06
-5.24743e-06
-5.72601e-06
-5.92154e-06
-5.81029e-06
-5.38113e-06
-4.63551e-06
-3.59016e-06
-2.27924e-06
-7.55179e-07
9.11748e-07
2.63467e-06
4.31134e-06
5.82489e-06
7.04448e-06
7.82817e-06
8.03095e-06
7.5257e-06
6.24283e-06
4.23001e-06
1.71687e-06
-7.90147e-06
-7.62593e-06
-7.23772e-06
-6.78531e-06
-6.3185e-06
-5.86382e-06
-5.44267e-06
-5.06849e-06
-4.73604e-06
-4.43618e-06
-4.15618e-06
-3.88221e-06
-3.60102e-06
-3.3017e-06
-2.97688e-06
-2.62693e-06
-2.25982e-06
-1.90392e-06
-1.60324e-06
-1.43143e-06
-1.49257e-06
-1.88716e-06
-2.63908e-06
-3.56127e-06
-4.4389e-06
-5.14406e-06
-5.61194e-06
-5.80369e-06
-5.69718e-06
-5.28398e-06
-4.56929e-06
-3.57435e-06
-2.3381e-06
-9.17632e-07
6.12648e-07
2.16282e-06
3.62987e-06
4.90061e-06
5.85605e-06
6.37999e-06
6.37128e-06
5.76582e-06
4.56313e-06
2.85275e-06
8.25182e-07
-7.53617e-06
-7.31545e-06
-7.00475e-06
-6.62832e-06
-6.21996e-06
-5.80562e-06
-5.41213e-06
-5.04727e-06
-4.71454e-06
-4.40975e-06
-4.12309e-06
-3.84272e-06
-3.55666e-06
-3.25484e-06
-2.93045e-06
-2.58416e-06
-2.22392e-06
-1.87752e-06
-1.58759e-06
-1.42427e-06
-1.48798e-06
-1.87324e-06
-2.60181e-06
-3.49663e-06
-4.3502e-06
-5.03592e-06
-5.49127e-06
-5.67909e-06
-5.57932e-06
-5.18675e-06
-4.5107e-06
-3.57709e-06
-2.42946e-06
-1.12876e-06
2.48137e-07
1.61114e-06
2.86086e-06
3.89398e-06
4.60912e-06
4.91979e-06
4.76445e-06
4.12338e-06
3.03129e-06
1.5828e-06
-7.53518e-08
-7.16348e-06
-6.9861e-06
-6.73786e-06
-6.42943e-06
-6.081e-06
-5.71487e-06
-5.35238e-06
-5.00473e-06
-4.67881e-06
-4.3733e-06
-4.08255e-06
-3.79716e-06
-3.50714e-06
-3.20389e-06
-2.88126e-06
-2.54056e-06
-2.18971e-06
-1.85573e-06
-1.57967e-06
-1.4274e-06
-1.49513e-06
-1.87075e-06
-2.57298e-06
-3.43621e-06
-4.2618e-06
-4.92491e-06
-5.36594e-06
-5.54997e-06
-5.45966e-06
-5.09349e-06
-4.46504e-06
-3.60478e-06
-2.56014e-06
-1.39448e-06
-1.8477e-07
9.82161e-07
2.01486e-06
2.82378e-06
3.3305e-06
3.47422e-06
3.22468e-06
2.58874e-06
1.61392e-06
3.84447e-07
-9.90266e-07
-6.77641e-06
-6.63413e-06
-6.43612e-06
-6.18604e-06
-5.89495e-06
-5.57855e-06
-5.25297e-06
-4.93032e-06
-4.61817e-06
-4.31839e-06
-4.02821e-06
-3.74134e-06
-3.45017e-06
-3.14802e-06
-2.82971e-06
-2.49759e-06
-2.15956e-06
-1.84167e-06
-1.58326e-06
-1.44505e-06
-1.51842e-06
-1.88409e-06
-2.55661e-06
-3.38346e-06
-4.17651e-06
-4.81327e-06
-5.23848e-06
-5.41969e-06
-5.3425e-06
-5.00964e-06
-4.43889e-06
-3.66462e-06
-2.73692e-06
-1.71949e-06
-6.86564e-07
2.81809e-07
1.10569e-06
1.7122e-06
2.04299e-06
2.0608e-06
1.75577e-06
1.14771e-06
2.84485e-07
-7.64828e-07
-1.91975e-06
-6.36996e-06
-6.25709e-06
-6.10012e-06
-5.89937e-06
-5.66007e-06
-5.392e-06
-5.10681e-06
-4.8149e-06
-4.52368e-06
-4.23661e-06
-3.9534e-06
-3.67057e-06
-3.38301e-06
-3.0861e-06
-2.77625e-06
-2.45697e-06
-2.13624e-06
-1.83894e-06
-1.60256e-06
-1.48188e-06
-1.56264e-06
-1.91794e-06
-2.5571e-06
-3.34201e-06
-4.09812e-06
-4.70461e-06
-5.11174e-06
-5.29184e-06
-5.23322e-06
-4.94192e-06
-4.4397e-06
-3.76396e-06
-2.96564e-06
-2.10633e-06
-1.25459e-06
-4.809e-07
1.48301e-07
5.76742e-07
7.63909e-07
6.89418e-07
3.55358e-07
-2.14304e-07
-9.77216e-07
-1.87927e-06
-2.86153e-06
-5.94125e-06
-5.85382e-06
-5.73113e-06
-5.57206e-06
-5.37845e-06
-5.15578e-06
-4.91176e-06
-4.65428e-06
-4.38982e-06
-4.12233e-06
-3.85319e-06
-3.58115e-06
-3.30342e-06
-3.01759e-06
-2.7218e-06
-2.42079e-06
-2.12285e-06
-1.85135e-06
-1.64187e-06
-1.5425e-06
-1.63236e-06
-1.97675e-06
-2.57893e-06
-3.31552e-06
-4.03117e-06
-4.60799e-06
-4.99203e-06
-5.17148e-06
-5.13737e-06
-4.89722e-06
-4.47464e-06
-3.90892e-06
-3.24976e-06
-2.55407e-06
-1.88234e-06
-1.29374e-06
-8.40918e-07
-5.65239e-07
-4.93213e-07
-6.34284e-07
-9.80624e-07
-1.50909e-06
-2.18484e-06
-2.96668e-06
-3.81152e-06
-5.49018e-06
-5.42537e-06
-5.33203e-06
-5.20858e-06
-5.05506e-06
-4.8741e-06
-4.67037e-06
-4.4493e-06
-4.21599e-06
-3.97419e-06
-3.72609e-06
-3.47208e-06
-3.2113e-06
-2.94346e-06
-2.66834e-06
-2.39195e-06
-2.12292e-06
-1.88281e-06
-1.70514e-06
-1.63091e-06
-1.73129e-06
-2.06421e-06
-2.6258e-06
-3.30774e-06
-3.97576e-06
-4.51833e-06
-4.88368e-06
-5.06542e-06
-5.06211e-06
-4.88299e-06
-4.54982e-06
-4.1029e-06
-3.58858e-06
-3.0568e-06
-2.55833e-06
-2.14067e-06
-1.84376e-06
-1.69678e-06
-1.7162e-06
-1.90512e-06
-2.25404e-06
-2.74304e-06
-3.34481e-06
-4.02862e-06
-4.76301e-06
-5.01961e-06
-4.97551e-06
-4.90806e-06
-4.81569e-06
-4.69762e-06
-4.55475e-06
-4.38963e-06
-4.20568e-06
-4.00661e-06
-3.79555e-06
-3.5749e-06
-3.34608e-06
-3.10967e-06
-2.86716e-06
-2.61981e-06
-2.37464e-06
-2.14075e-06
-1.93739e-06
-1.79592e-06
-1.75012e-06
-1.86192e-06
-2.18258e-06
-2.69992e-06
-3.3221e-06
-3.93783e-06
-4.4436e-06
-4.79155e-06
-4.98213e-06
-5.01358e-06
-4.90448e-06
-4.66832e-06
-4.34503e-06
-3.97589e-06
-3.60247e-06
-3.26537e-06
-3.00122e-06
-2.83908e-06
-2.79908e-06
-2.89103e-06
-3.11482e-06
-3.46152e-06
-3.91526e-06
-4.45549e-06
-5.05966e-06
-5.70493e-06
-4.53519e-06
-4.51085e-06
-4.46717e-06
-4.40284e-06
-4.3168e-06
-4.20903e-06
-4.08074e-06
-3.93394e-06
-3.77113e-06
-3.59475e-06
-3.40703e-06
-3.20998e-06
-3.00505e-06
-2.79504e-06
-2.58245e-06
-2.37478e-06
-2.18165e-06
-2.01962e-06
-1.91741e-06
-1.90224e-06
-2.02556e-06
-2.33202e-06
-2.80282e-06
-3.36137e-06
-3.92042e-06
-4.38915e-06
-4.72458e-06
-4.92934e-06
-5.01092e-06
-4.96645e-06
-4.82894e-06
-4.62834e-06
-4.39842e-06
-4.17241e-06
-3.98072e-06
-3.85038e-06
-3.80242e-06
-3.85028e-06
-3.99989e-06
-4.24994e-06
-4.59297e-06
-5.017e-06
-5.50711e-06
-6.04716e-06
-6.62073e-06
-4.04544e-06
-4.04083e-06
-4.0202e-06
-3.98246e-06
-3.9265e-06
-3.85183e-06
-3.75898e-06
-3.64912e-06
-3.52391e-06
-3.38517e-06
-3.23478e-06
-3.07496e-06
-2.9077e-06
-2.73649e-06
-2.56478e-06
-2.39991e-06
-2.2518e-06
-2.13428e-06
-2.0725e-06
-2.08854e-06
-2.22192e-06
-2.51158e-06
-2.93502e-06
-3.42858e-06
-3.92761e-06
-4.36023e-06
-4.68642e-06
-4.90683e-06
-5.03043e-06
-5.06307e-06
-5.02378e-06
-4.93807e-06
-4.83476e-06
-4.73972e-06
-4.67538e-06
-4.65977e-06
-4.70699e-06
-4.82643e-06
-5.02212e-06
-5.2927e-06
-5.63247e-06
-6.03283e-06
-6.48334e-06
-6.97273e-06
-7.48934e-06
-3.56392e-06
-3.57936e-06
-3.5821e-06
-3.57088e-06
-3.54436e-06
-3.50184e-06
-3.4436e-06
-3.37052e-06
-3.28377e-06
-3.18471e-06
-3.07484e-06
-2.9563e-06
-2.83133e-06
-2.70358e-06
-2.57711e-06
-2.45854e-06
-2.35773e-06
-2.28575e-06
-2.26329e-06
-2.30872e-06
-2.45013e-06
-2.71845e-06
-3.09582e-06
-3.52536e-06
-3.96352e-06
-4.36038e-06
-4.67977e-06
-4.91782e-06
-5.08405e-06
-5.18662e-06
-5.23752e-06
-5.25553e-06
-5.26303e-06
-5.27991e-06
-5.32162e-06
-5.40027e-06
-5.52537e-06
-5.70308e-06
-5.9359e-06
-6.22305e-06
-6.56083e-06
-6.9434e-06
-7.36368e-06
-7.81404e-06
-8.28643e-06
-3.10832e-06
-3.14615e-06
-3.17411e-06
-3.19004e-06
-3.1929e-06
-3.18204e-06
-3.1579e-06
-3.12133e-06
-3.07323e-06
-3.01463e-06
-2.94676e-06
-2.8716e-06
-2.79139e-06
-2.70947e-06
-2.63018e-06
-2.55893e-06
-2.50473e-06
-2.47627e-06
-2.48927e-06
-2.55895e-06
-2.70366e-06
-2.94932e-06
-3.28119e-06
-3.65062e-06
-4.03056e-06
-4.3915e-06
-4.70375e-06
-4.95798e-06
-5.1611e-06
-5.32241e-06
-5.45067e-06
-5.55776e-06
-5.65828e-06
-5.76617e-06
-5.89291e-06
-6.04661e-06
-6.23341e-06
-6.4577e-06
-6.72113e-06
-7.02287e-06
-7.36053e-06
-7.73064e-06
-8.12886e-06
-8.55016e-06
-8.98911e-06
-2.69625e-06
-2.76046e-06
-2.81593e-06
-2.86056e-06
-2.8933e-06
-2.91435e-06
-2.92442e-06
-2.92429e-06
-2.91462e-06
-2.89616e-06
-2.87006e-06
-2.83802e-06
-2.80211e-06
-2.76503e-06
-2.7308e-06
-2.70429e-06
-2.69465e-06
-2.70458e-06
-2.7457e-06
-2.83235e-06
-2.97676e-06
-3.19665e-06
-3.48317e-06
-3.79852e-06
-4.12619e-06
-4.45117e-06
-4.75188e-06
-5.01682e-06
-5.24847e-06
-5.45459e-06
-5.64199e-06
-5.81763e-06
-5.9902e-06
-6.16885e-06
-6.36118e-06
-6.57267e-06
-6.80747e-06
-7.06846e-06
-7.35679e-06
-7.67203e-06
-8.01276e-06
-8.377e-06
-8.76201e-06
-9.16446e-06
-9.58073e-06
-2.35869e-06
-2.4522e-06
-2.53609e-06
-2.6096e-06
-2.67285e-06
-2.72625e-06
-2.77026e-06
-2.80548e-06
-2.83258e-06
-2.85236e-06
-2.86623e-06
-2.8749e-06
-2.88006e-06
-2.88436e-06
-2.89067e-06
-2.90242e-06
-2.9221e-06
-2.95953e-06
-3.02164e-06
-3.11756e-06
-3.25562e-06
-3.44716e-06
-3.68892e-06
-3.95617e-06
-4.2388e-06
-4.52846e-06
-4.81069e-06
-5.07701e-06
-5.32659e-06
-5.56369e-06
-5.79265e-06
-6.01686e-06
-6.24073e-06
-6.46984e-06
-6.70925e-06
-6.96284e-06
-7.23312e-06
-7.52166e-06
-7.82927e-06
-8.15613e-06
-8.50161e-06
-8.86426e-06
-9.2423e-06
-9.63392e-06
-1.00369e-05
-2.1237e-06
-2.24398e-06
-2.35412e-06
-2.45444e-06
-2.54551e-06
-2.62778e-06
-2.70124e-06
-2.76589e-06
-2.82214e-06
-2.86995e-06
-2.91933e-06
-2.96053e-06
-2.99721e-06
-3.03212e-06
-3.06744e-06
-3.10568e-06
-3.15051e-06
-3.20713e-06
-3.28061e-06
-3.37731e-06
-3.50461e-06
-3.67137e-06
-3.87367e-06
-4.09713e-06
-4.34121e-06
-4.60083e-06
-4.85995e-06
-5.11621e-06
-5.36936e-06
-5.61989e-06
-5.86994e-06
-6.12196e-06
-6.37794e-06
-6.64038e-06
-6.91203e-06
-7.19521e-06
-7.49099e-06
-7.79988e-06
-8.12312e-06
-8.46161e-06
-8.81482e-06
-9.18228e-06
-9.56265e-06
-9.95508e-06
-1.03512e-05
-1.98349e-06
-2.12722e-06
-2.26101e-06
-2.38509e-06
-2.49966e-06
-2.60512e-06
-2.70211e-06
-2.7915e-06
-2.87401e-06
-2.95138e-06
-3.0136e-06
-3.07322e-06
-3.12965e-06
-3.18327e-06
-3.23589e-06
-3.28959e-06
-3.34715e-06
-3.41171e-06
-3.4874e-06
-3.58011e-06
-3.69456e-06
-3.84024e-06
-4.01694e-06
-4.20929e-06
-4.42e-06
-4.65028e-06
-4.88941e-06
-5.13105e-06
-5.37704e-06
-5.62779e-06
-5.88393e-06
-6.14647e-06
-6.4167e-06
-6.69557e-06
-6.98393e-06
-7.28308e-06
-7.59449e-06
-7.9186e-06
-8.255e-06
-8.60353e-06
-8.96511e-06
-9.3346e-06
-9.71642e-06
-1.01075e-05
-1.05149e-05
-1.89663e-06
-2.06007e-06
-2.21264e-06
-2.35447e-06
-2.48586e-06
-2.60822e-06
-2.72111e-06
-2.8251e-06
-2.92069e-06
-3.008e-06
-3.08713e-06
-3.16044e-06
-3.22881e-06
-3.29325e-06
-3.3553e-06
-3.41671e-06
-3.47991e-06
-3.5476e-06
-3.62335e-06
-3.71168e-06
-3.81777e-06
-3.94872e-06
-4.10509e-06
-4.28033e-06
-4.47296e-06
-4.67884e-06
-4.89874e-06
-5.12938e-06
-5.36901e-06
-5.61752e-06
-5.87514e-06
-6.14214e-06
-6.4189e-06
-6.70574e-06
-7.00334e-06
-7.31234e-06
-7.63323e-06
-7.96636e-06
-8.31171e-06
-8.66756e-06
-9.03453e-06
-9.41692e-06
-9.80846e-06
-1.02101e-05
-1.06219e-05
-1.83559e-06
-2.01467e-06
-2.18199e-06
-2.33792e-06
-2.48293e-06
-2.61655e-06
-2.74032e-06
-2.85449e-06
-2.95941e-06
-3.05563e-06
-3.14378e-06
-3.22491e-06
-3.30015e-06
-3.37066e-06
-3.43789e-06
-3.50354e-06
-3.56973e-06
-3.63895e-06
-3.71431e-06
-3.79991e-06
-3.9007e-06
-4.02261e-06
-4.16777e-06
-4.32967e-06
-4.50613e-06
-4.69889e-06
-4.9065e-06
-5.12703e-06
-5.35933e-06
-5.60308e-06
-5.85828e-06
-6.12506e-06
-6.40352e-06
-6.69382e-06
-6.99625e-06
-7.31116e-06
-7.63867e-06
-7.97877e-06
-8.3302e-06
-8.69543e-06
-9.07236e-06
-9.4612e-06
-9.86112e-06
-1.02715e-05
-1.06919e-05
-1.78454e-06
-1.97617e-06
-2.15505e-06
-2.32149e-06
-2.476e-06
-2.61893e-06
-2.7509e-06
-2.87238e-06
-2.98393e-06
-3.08619e-06
-3.17994e-06
-3.26614e-06
-3.34588e-06
-3.42038e-06
-3.49106e-06
-3.55956e-06
-3.62791e-06
-3.69847e-06
-3.77423e-06
-3.85894e-06
-3.95706e-06
-4.07384e-06
-4.21067e-06
-4.36342e-06
-4.53094e-06
-4.71391e-06
-4.91182e-06
-5.12396e-06
-5.34976e-06
-5.5889e-06
-5.84131e-06
-6.10695e-06
-6.38578e-06
-6.6779e-06
-6.9834e-06
-7.30224e-06
-7.63432e-06
-7.97927e-06
-8.33813e-06
-8.70977e-06
-9.09392e-06
-9.49031e-06
-9.89836e-06
-1.03174e-05
-1.07468e-05
-1.73709e-06
-1.93897e-06
-2.12718e-06
-2.30212e-06
-2.46428e-06
-2.61415e-06
-2.75227e-06
-2.87923e-06
-2.99569e-06
-3.10238e-06
-3.20017e-06
-3.29002e-06
-3.37308e-06
-3.45057e-06
-3.52397e-06
-3.5949e-06
-3.66535e-06
-3.73763e-06
-3.81458e-06
-3.89958e-06
-3.99667e-06
-4.11053e-06
-4.24231e-06
-4.38911e-06
-4.55026e-06
-4.7264e-06
-4.91762e-06
-5.12373e-06
-5.3445e-06
-5.57977e-06
-5.82944e-06
-6.09346e-06
-6.37185e-06
-6.6646e-06
-6.97167e-06
-7.29297e-06
-7.62842e-06
-7.97804e-06
-8.34166e-06
-8.71892e-06
-9.10942e-06
-9.51273e-06
-9.92829e-06
-1.03555e-05
-1.07936e-05
-1.69241e-06
-1.90288e-06
-2.0988e-06
-2.28066e-06
-2.44902e-06
-2.60441e-06
-2.74743e-06
-2.87873e-06
-2.99906e-06
-3.10923e-06
-3.21017e-06
-3.30294e-06
-3.38869e-06
-3.46874e-06
-3.54455e-06
-3.6178e-06
-3.69043e-06
-3.76469e-06
-3.84327e-06
-3.92925e-06
-4.02634e-06
-4.13871e-06
-4.26736e-06
-4.41021e-06
-4.56704e-06
-4.73849e-06
-4.9249e-06
-5.12638e-06
-5.34299e-06
-5.57477e-06
-5.82176e-06
-6.08397e-06
-6.36146e-06
-6.6542e-06
-6.96209e-06
-7.28504e-06
-7.62318e-06
-7.97618e-06
-8.34386e-06
-8.7259e-06
-9.1219e-06
-9.53138e-06
-9.95376e-06
-1.03884e-05
-1.08346e-05
-1.6519e-06
-1.8695e-06
-2.07185e-06
-2.25947e-06
-2.43295e-06
-2.59287e-06
-2.73988e-06
-2.8747e-06
-2.99816e-06
-3.11115e-06
-3.21468e-06
-3.30986e-06
-3.39792e-06
-3.48019e-06
-3.5582e-06
-3.6336e-06
-3.70837e-06
-3.78463e-06
-3.86496e-06
-3.9522e-06
-4.04978e-06
-4.16141e-06
-4.28799e-06
-4.42814e-06
-4.58181e-06
-4.74969e-06
-4.93228e-06
-5.12999e-06
-5.34312e-06
-5.57188e-06
-5.81643e-06
-6.07686e-06
-6.35324e-06
-6.6456e-06
-6.95389e-06
-7.27801e-06
-7.61806e-06
-7.9737e-06
-8.34473e-06
-8.73083e-06
-9.13159e-06
-9.54649e-06
-9.97494e-06
-1.04163e-05
-1.08697e-05
-1.61676e-06
-1.84036e-06
-2.04812e-06
-2.24056e-06
-2.41828e-06
-2.58192e-06
-2.73218e-06
-2.86987e-06
-2.99587e-06
-3.11116e-06
-3.21681e-06
-3.31398e-06
-3.40395e-06
-3.48812e-06
-3.56803e-06
-3.64536e-06
-3.72203e-06
-3.80012e-06
-3.88207e-06
-3.97054e-06
-4.0687e-06
-4.17985e-06
-4.30487e-06
-4.44287e-06
-4.59399e-06
-4.75892e-06
-4.93836e-06
-5.13294e-06
-5.34311e-06
-5.56922e-06
-5.81153e-06
-6.07021e-06
-6.34539e-06
-6.63716e-06
-6.94558e-06
-7.27065e-06
-7.61191e-06
-7.96963e-06
-8.34344e-06
-8.733e-06
-9.13788e-06
-9.55756e-06
-9.99143e-06
-1.04388e-05
-1.08989e-05
-1.58731e-06
-1.81627e-06
-2.02859e-06
-2.22504e-06
-2.40626e-06
-2.57293e-06
-2.72582e-06
-2.8658e-06
-2.99382e-06
-3.11092e-06
-3.21823e-06
-3.31698e-06
-3.40849e-06
-3.49419e-06
-3.57566e-06
-3.65457e-06
-3.73283e-06
-3.81243e-06
-3.89574e-06
-3.98521e-06
-4.0838e-06
-4.19445e-06
-4.31806e-06
-4.45418e-06
-4.60305e-06
-4.76543e-06
-4.94217e-06
-5.13402e-06
-5.34159e-06
-5.56531e-06
-5.80553e-06
-6.06252e-06
-6.33648e-06
-6.62755e-06
-6.93583e-06
-7.26131e-06
-7.60377e-06
-7.96318e-06
-8.33935e-06
-8.73191e-06
-9.14043e-06
-9.56438e-06
-1.00031e-05
-1.0456e-05
-1.09222e-05
-1.56419e-06
-1.79732e-06
-2.01352e-06
-2.21327e-06
-2.39733e-06
-2.56643e-06
-2.72139e-06
-2.86315e-06
-2.99271e-06
-3.11118e-06
-3.21973e-06
-3.31965e-06
-3.41231e-06
-3.49918e-06
-3.58183e-06
-3.66196e-06
-3.74144e-06
-3.8222e-06
-3.90651e-06
-3.99667e-06
-4.09545e-06
-4.20547e-06
-4.32767e-06
-4.46202e-06
-4.60882e-06
-4.76889e-06
-4.94321e-06
-5.13263e-06
-5.33785e-06
-5.55938e-06
-5.79766e-06
-6.05304e-06
-6.32579e-06
-6.61611e-06
-6.92413e-06
-7.24988e-06
-7.59325e-06
-7.95416e-06
-8.33236e-06
-8.72758e-06
-9.13938e-06
-9.56721e-06
-1.00104e-05
-1.04683e-05
-1.09401e-05
-1.54655e-06
-1.78331e-06
-2.00259e-06
-2.20509e-06
-2.39142e-06
-2.56243e-06
-2.71898e-06
-2.86206e-06
-2.99274e-06
-3.11217e-06
-3.2216e-06
-3.32233e-06
-3.41578e-06
-3.50344e-06
-3.58693e-06
-3.66792e-06
-3.74826e-06
-3.82983e-06
-3.91481e-06
-4.00535e-06
-4.10405e-06
-4.21328e-06
-4.33404e-06
-4.46665e-06
-4.61146e-06
-4.76939e-06
-4.94149e-06
-5.12869e-06
-5.33175e-06
-5.55126e-06
-5.78774e-06
-6.04162e-06
-6.31321e-06
-6.60277e-06
-6.91049e-06
-7.23643e-06
-7.58053e-06
-7.94271e-06
-8.32278e-06
-8.7204e-06
-9.13517e-06
-9.56655e-06
-1.00139e-05
-1.04765e-05
-1.09534e-05
-1.53373e-06
-1.77354e-06
-1.99542e-06
-2.20007e-06
-2.38821e-06
-2.56068e-06
-2.71841e-06
-2.86244e-06
-2.99388e-06
-3.11393e-06
-3.22389e-06
-3.32511e-06
-3.41904e-06
-3.50721e-06
-3.59121e-06
-3.67275e-06
-3.75363e-06
-3.83569e-06
-3.92103e-06
-4.01167e-06
-4.11007e-06
-4.21835e-06
-4.33763e-06
-4.46851e-06
-4.61141e-06
-4.76733e-06
-4.93737e-06
-5.12252e-06
-5.32357e-06
-5.54122e-06
-5.77604e-06
-6.0285e-06
-6.299e-06
-6.58785e-06
-6.89525e-06
-7.22132e-06
-7.56605e-06
-7.92937e-06
-8.31109e-06
-8.71091e-06
-9.12842e-06
-9.56309e-06
-1.00143e-05
-1.04812e-05
-1.09629e-05
-1.52495e-06
-1.7673e-06
-1.99132e-06
-2.19772e-06
-2.38726e-06
-2.56083e-06
-2.71941e-06
-2.86407e-06
-2.99597e-06
-3.11638e-06
-3.22661e-06
-3.32806e-06
-3.42221e-06
-3.51061e-06
-3.59487e-06
-3.67669e-06
-3.75784e-06
-3.84014e-06
-3.92559e-06
-4.0161e-06
-4.11401e-06
-4.22124e-06
-4.33901e-06
-4.46817e-06
-4.60924e-06
-4.76325e-06
-4.93137e-06
-5.1146e-06
-5.31381e-06
-5.52973e-06
-5.763e-06
-6.01416e-06
-6.28364e-06
-6.5718e-06
-6.87889e-06
-7.20505e-06
-7.55034e-06
-7.91468e-06
-8.29791e-06
-8.69974e-06
-9.11977e-06
-9.55746e-06
-1.00122e-05
-1.04831e-05
-1.09693e-05
-1.51944e-06
-1.76393e-06
-1.98971e-06
-2.19752e-06
-2.38815e-06
-2.56253e-06
-2.72168e-06
-2.86673e-06
-2.99886e-06
-3.1194e-06
-3.22969e-06
-3.33116e-06
-3.42533e-06
-3.51376e-06
-3.59807e-06
-3.67996e-06
-3.76118e-06
-3.84349e-06
-3.92885e-06
-4.01907e-06
-4.11636e-06
-4.22247e-06
-4.33871e-06
-4.4662e-06
-4.60551e-06
-4.75772e-06
-4.92404e-06
-5.10549e-06
-5.30298e-06
-5.51731e-06
-5.74915e-06
-5.99908e-06
-6.26761e-06
-6.55513e-06
-6.86192e-06
-7.18816e-06
-7.53393e-06
-7.8992e-06
-8.2838e-06
-8.68747e-06
-9.10981e-06
-9.55029e-06
-1.00082e-05
-1.04829e-05
-1.09732e-05
-1.51651e-06
-1.7628e-06
-1.99003e-06
-2.19896e-06
-2.39043e-06
-2.5654e-06
-2.72492e-06
-2.87017e-06
-3.00236e-06
-3.12286e-06
-3.23305e-06
-3.33439e-06
-3.42842e-06
-3.51672e-06
-3.60093e-06
-3.68272e-06
-3.76385e-06
-3.84603e-06
-3.93115e-06
-4.02096e-06
-4.11754e-06
-4.2225e-06
-4.33725e-06
-4.46312e-06
-4.60075e-06
-4.75128e-06
-4.91591e-06
-5.0957e-06
-5.2916e-06
-5.50445e-06
-5.73497e-06
-5.98378e-06
-6.25143e-06
-6.53834e-06
-6.84483e-06
-7.17114e-06
-7.51734e-06
-7.88344e-06
-8.26929e-06
-8.67463e-06
-9.09908e-06
-9.5421e-06
-1.0003e-05
-1.0481e-05
-1.09752e-05
-1.51553e-06
-1.76334e-06
-1.99177e-06
-2.2016e-06
-2.39371e-06
-2.56908e-06
-2.72883e-06
-2.87411e-06
-3.00627e-06
-3.1266e-06
-3.23657e-06
-3.33768e-06
-3.43146e-06
-3.51952e-06
-3.60352e-06
-3.6851e-06
-3.76602e-06
-3.84796e-06
-3.93275e-06
-4.02206e-06
-4.1179e-06
-4.22172e-06
-4.33502e-06
-4.45934e-06
-4.59541e-06
-4.74437e-06
-4.90744e-06
-5.0857e-06
-5.28014e-06
-5.49163e-06
-5.72093e-06
-5.96872e-06
-6.23555e-06
-6.5219e-06
-6.82812e-06
-7.15446e-06
-7.50105e-06
-7.86788e-06
-8.25485e-06
-8.66171e-06
-9.08806e-06
-9.53338e-06
-9.997e-06
-1.04781e-05
-1.09758e-05
-1.51605e-06
-1.76515e-06
-1.99457e-06
-2.20512e-06
-2.39771e-06
-2.57335e-06
-2.73318e-06
-2.87841e-06
-3.01039e-06
-3.13051e-06
-3.2402e-06
-3.34099e-06
-3.43446e-06
-3.52222e-06
-3.60591e-06
-3.68722e-06
-3.76784e-06
-3.84945e-06
-3.93385e-06