/*--------------------------------*- C++ -*----------------------------------*\
| =========                 |                                                 |
| \\      /  F ield         | OpenFOAM: The Open Source CFD Toolbox           |
|  \\    /   O peration     | Version:  2312                                  |
|   \\  /    A nd           | Website:  www.openfoam.com                      |
|    \\/     M anipulation  |                                                 |
\*---------------------------------------------------------------------------*/
FoamFile
{
    version     2.0;
    format      ascii;
    arch        "LSB;label=32;scalar=64";
    class       volVectorField;
    location    "138";
    object      U;
}
// * * * * * * * * * * * * * * * * * * * * * * * * * * * * * * * * * * * * * //

dimensions      [0 1 -1 0 0 0 0];

internalField   nonuniform List<vector> 
4800
(
(0.000488471 2.40985e-07 -2.53075e-26)
(0.000483081 2.74157e-07 -1.81038e-25)
(0.000480221 2.93048e-07 2.31472e-25)
(0.000478988 3.05941e-07 1.09622e-25)
(0.000478909 3.09755e-07 1.65082e-24)
(0.000479835 2.93879e-07 -3.95665e-24)
(0.000481556 2.66212e-07 3.75039e-24)
(0.000484063 1.82019e-07 -5.51248e-24)
(0.000487471 1.28704e-08 1.75208e-24)
(0.00049202 -2.75709e-07 6.12365e-24)
(0.000498144 -8.32054e-07 -1.88379e-24)
(0.000507174 -2.33019e-06 -1.51883e-25)
(0.000526698 -7.82187e-06 -2.34075e-24)
(0.000575649 -3.01311e-05 1.09395e-24)
(0.000656526 -9.84162e-05 -8.70301e-25)
(0.00151183 1.21363e-06 -8.01616e-26)
(0.00149479 7.98332e-07 9.99879e-26)
(0.00148522 4.65652e-07 -9.50662e-25)
(0.0014805 1.74354e-07 7.03571e-25)
(0.00147924 -1.1442e-07 2.33864e-24)
(0.00148092 -4.61018e-07 -3.76049e-24)
(0.00148487 -8.61929e-07 -1.12521e-24)
(0.00149115 -1.43954e-06 -2.98806e-25)
(0.00149998 -2.34378e-06 9.16499e-24)
(0.00151198 -3.79185e-06 -6.8104e-24)
(0.0015284 -6.4552e-06 7.41565e-25)
(0.0015521 -1.26621e-05 1.14741e-24)
(0.00159237 -3.04967e-05 -1.71053e-24)
(0.00166041 -8.51215e-05 -5.22136e-25)
(0.00173344 -0.000209271 2.24663e-24)
(0.00264368 3.95748e-06 -5.73708e-26)
(0.00261367 2.6531e-06 5.85283e-26)
(0.00259613 1.65099e-06 6.20464e-25)
(0.00258673 7.65667e-07 -1.49348e-24)
(0.00258316 -1.50242e-07 1.47163e-24)
(0.00258453 -1.20416e-06 1.41933e-24)
(0.00258949 -2.48368e-06 -3.71918e-24)
(0.00259834 -4.24057e-06 -2.37194e-24)
(0.00261117 -6.82e-06 5.65471e-24)
(0.00262867 -1.0838e-05 2.17263e-24)
(0.00265225 -1.78325e-05 -7.54601e-24)
(0.00268417 -3.19361e-05 -1.17509e-24)
(0.00272868 -6.31368e-05 3.24711e-24)
(0.00278451 -0.000132186 5.18695e-24)
(0.002825 -0.000248213 -2.6862e-24)
(0.00388928 8.94465e-06 2.11847e-26)
(0.00384542 6.1829e-06 -1.48688e-25)
(0.00381882 4.0704e-06 6.73595e-25)
(0.0038036 2.21145e-06 7.47062e-25)
(0.00379649 2.97653e-07 -7.18406e-25)
(0.0037963 -1.91914e-06 -4.28641e-24)
(0.00380092 -4.45822e-06 -3.00484e-24)
(0.00381067 -8.02688e-06 1.12919e-23)
(0.00382557 -1.30963e-05 4.7908e-24)
(0.00384578 -2.06692e-05 -6.81833e-24)
(0.00387217 -3.29278e-05 -2.77332e-24)
(0.00390517 -5.45564e-05 -2.14084e-24)
(0.00394398 -9.38908e-05 5.86724e-26)
(0.00398111 -0.000161743 1.59666e-24)
(0.00399713 -0.000253762 7.83511e-27)
(0.00525108 1.66595e-05 -3.87968e-26)
(0.00519341 1.17986e-05 -2.39713e-25)
(0.00515722 8.08363e-06 -1.60084e-25)
(0.00513531 4.83215e-06 4.13852e-25)
(0.00512368 1.50309e-06 -1.22666e-24)
(0.00512042 -2.26756e-06 3.02508e-24)
(0.00512351 -6.50923e-06 -5.19664e-25)
(0.00513233 -1.23305e-05 1.96209e-24)
(0.005147 -2.04148e-05 -1.09572e-23)
(0.00516686 -3.18638e-05 2.0957e-23)
(0.00519179 -4.89815e-05 -2.0386e-23)
(0.0052205 -7.55912e-05 1.08362e-23)
(0.00524947 -0.00011669 -1.01222e-23)
(0.0052707 -0.000175684 9.59209e-24)
(0.00527313 -0.00024519 -3.83706e-24)
(0.00672694 2.75677e-05 5.10804e-26)
(0.00665719 1.99694e-05 1.84927e-25)
(0.00661194 1.41654e-05 -9.85475e-25)
(0.00658322 9.10555e-06 -6.52033e-25)
(0.00656649 3.99525e-06 1.71197e-24)
(0.00655909 -1.57329e-06 6.32263e-25)
(0.00655937 -8.15504e-06 -4.98588e-24)
(0.00656577 -1.64428e-05 1.19959e-23)
(0.00657794 -2.76252e-05 -1.57943e-23)
(0.00659468 -4.26721e-05 3.77173e-24)
(0.0066149 -6.34521e-05 1.17105e-23)
(0.00663628 -9.22738e-05 -1.63784e-23)
(0.00665486 -0.000131039 8.22165e-24)
(0.00666472 -0.000179276 8.50164e-24)
(0.00666076 -0.000230763 -6.48576e-24)
(0.00830795 4.18155e-05 4.20059e-26)
(0.00823041 3.09692e-05 -2.50413e-25)
(0.00817846 2.26738e-05 9.10595e-25)
(0.00814405 1.5455e-05 -1.27769e-24)
(0.00812255 8.27996e-06 -4.46497e-24)
(0.00811091 5.12205e-07 7.62317e-24)
(0.00810735 -8.38388e-06 -4.70922e-24)
(0.00811017 -1.9378e-05 1.62519e-23)
(0.00811821 -3.3395e-05 -1.10484e-23)
(0.00812991 -5.13088e-05 -5.23249e-24)
(0.00814356 -7.42442e-05 -1.04314e-23)
(0.00815664 -0.000103075 9.58677e-24)
(0.00816598 -0.000137716 2.7157e-24)
(0.00816799 -0.000176309 2.34319e-24)
(0.00816103 -0.000214604 -2.06563e-24)
(0.00997633 5.88012e-05 -6.00264e-26)
(0.00989868 4.45262e-05 8.24949e-25)
(0.00984484 3.35564e-05 -1.94222e-24)
(0.00980777 2.39984e-05 -1.6535e-24)
(0.00978324 1.46122e-05 5.69038e-25)
(0.00976834 4.56597e-06 1.19457e-24)
(0.00976115 -6.73109e-06 4.469e-24)
(0.00975994 -2.01541e-05 -1.23531e-23)
(0.00976318 -3.65025e-05 -6.75735e-24)
(0.00976908 -5.62969e-05 1.83422e-23)
(0.00977577 -7.99326e-05 -5.78009e-24)
(0.00978109 -0.000107298 1.97964e-23)
(0.00978296 -0.000137429 -1.04549e-23)
(0.00977948 -0.00016842 -3.35721e-24)
(0.00977067 -0.000197646 1.99292e-24)
(0.0117053 7.66665e-05 -7.83788e-27)
(0.0116385 5.93813e-05 4.53461e-25)
(0.0115903 4.59572e-05 -6.48549e-25)
(0.0115557 3.41916e-05 1.60388e-24)
(0.0115317 2.27014e-05 -9.70514e-24)
(0.011516 1.05595e-05 1.02921e-23)
(0.0115068 -2.89036e-06 -1.65955e-23)
(0.0115024 -1.8286e-05 1.0146e-23)
(0.0115014 -3.62154e-05 7.67168e-24)
(0.0115021 -5.68291e-05 1.69222e-23)
(0.0115028 -7.99805e-05 -2.21593e-23)
(0.0115019 -0.000105066 -4.16042e-24)
(0.0114983 -0.000130965 1.88667e-24)
(0.0114911 -0.000156219 1.37541e-23)
(0.011481 -0.000179303 -5.61047e-24)
(0.0134638 9.1968e-05 4.21638e-26)
(0.01342 7.29008e-05 -1.87503e-25)
(0.0133864 5.78145e-05 8.59476e-25)
(0.0133611 4.44175e-05 -3.06605e-24)
(0.0133428 3.13056e-05 4.70297e-24)
(0.01333 1.75586e-05 -6.17539e-24)
(0.0133216 2.56341e-06 1.0464e-23)
(0.0133164 -1.40907e-05 1.9264e-24)
(0.0133131 -3.27055e-05 -1.46799e-23)
(0.0133104 -5.31321e-05 2.11371e-23)
(0.0133072 -7.49352e-05 -2.34024e-23)
(0.0133024 -9.73893e-05 -6.9783e-24)
(0.0132956 -0.000119545 1.22762e-23)
(0.0132864 -0.000140441 3.66467e-24)
(0.0132756 -0.000159234 -1.60508e-24)
(0.0152285 0.000100214 1.6361e-25)
(0.0152159 8.12494e-05 -1.44895e-24)
(0.0152043 6.58379e-05 -2.43014e-24)
(0.0151945 5.1845e-05 5.70708e-24)
(0.0151869 3.79963e-05 2.64907e-24)
(0.0151813 2.34866e-05 -1.66656e-23)
(0.0151773 7.86396e-06 5.06342e-24)
(0.0151742 -9.12728e-06 3.70053e-24)
(0.0151714 -2.74381e-05 -1.65615e-23)
(0.0151681 -4.67639e-05 1.71617e-23)
(0.0151636 -6.65991e-05 -1.39871e-23)
(0.0151576 -8.62968e-05 3.58894e-23)
(0.01515 -0.000105162 -1.73456e-23)
(0.0151405 -0.000122617 1.0249e-23)
(0.0151303 -0.000138215 -2.80449e-24)
(0.0169996 9.80026e-05 -5.78183e-26)
(0.0170168 8.08709e-05 9.713e-25)
(0.017028 6.65513e-05 -1.9401e-24)
(0.0170356 5.31795e-05 -1.03568e-24)
(0.0170412 3.96929e-05 1.15012e-23)
(0.0170453 2.54857e-05 -1.56834e-24)
(0.0170481 1.02941e-05 -2.08954e-23)
(0.0170497 -5.95299e-06 2.46107e-23)
(0.0170499 -2.29733e-05 -5.49986e-24)
(0.0170485 -4.04281e-05 -1.94315e-23)
(0.0170454 -5.78484e-05 2.08474e-23)
(0.0170405 -7.47344e-05 1.13529e-23)
(0.0170341 -9.06201e-05 -9.49483e-24)
(0.0170261 -0.00010518 -1.65749e-23)
(0.0170176 -0.000118188 1.39485e-24)
(0.018803 8.58235e-05 -3.42285e-27)
(0.0188383 7.11039e-05 -1.08469e-24)
(0.0188651 5.85961e-05 5.2848e-24)
(0.0188857 4.66612e-05 4.2262e-25)
(0.0189018 3.44217e-05 3.21371e-24)
(0.0189141 2.14464e-05 -1.12253e-23)
(0.0189234 7.6414e-06 9.77746e-24)
(0.0189299 -6.93185e-06 2.32265e-24)
(0.0189339 -2.18936e-05 2.05183e-23)
(0.0189355 -3.69236e-05 -3.15673e-23)
(0.0189349 -5.1643e-05 -1.4415e-23)
(0.0189323 -6.57015e-05 -9.60566e-24)
(0.0189283 -7.88034e-05 1.80646e-23)
(0.0189227 -9.07731e-05 -5.23998e-25)
(0.0189166 -0.000101501 1.76129e-24)
(0.0206662 6.80515e-05 -1.52218e-26)
(0.0207052 5.52595e-05 1.12176e-24)
(0.0207364 4.43839e-05 -1.64136e-24)
(0.0207615 3.39669e-05 -5.64047e-27)
(0.0207817 2.32655e-05 2.2568e-24)
(0.0207976 1.19848e-05 5.84267e-24)
(0.0208098 5.3911e-08 -2.27047e-23)
(0.0208188 -1.22878e-05 1.83167e-24)
(0.020825 -2.47904e-05 1.16564e-23)
(0.0208285 -3.71756e-05 -5.44824e-24)
(0.0208299 -4.91541e-05 1.48617e-23)
(0.0208293 -6.04934e-05 1.04697e-23)
(0.0208273 -7.10129e-05 -1.90043e-23)
(0.0208238 -8.06223e-05 1.30387e-23)
(0.0208198 -8.92724e-05 -1.08516e-23)
(0.0225811 4.91473e-05 -4.30668e-25)
(0.0226155 3.77997e-05 1.6384e-25)
(0.0226435 2.8235e-05 2.03024e-24)
(0.0226663 1.91657e-05 -1.04642e-23)
(0.0226848 9.92585e-06 9.22654e-24)
(0.0226994 3.36874e-07 -6.84017e-24)
(0.0227108 -9.55488e-06 4.88389e-24)
(0.0227192 -1.95584e-05 -3.52568e-23)
(0.022725 -2.95862e-05 5.09267e-23)
(0.0227285 -3.94222e-05 -3.0197e-23)
(0.0227302 -4.88545e-05 2.70277e-23)
(0.0227301 -5.77314e-05 2.26994e-23)
(0.0227289 -6.59447e-05 -3.96992e-23)
(0.0227263 -7.34515e-05 1.29358e-23)
(0.0227234 -8.02314e-05 -5.43956e-25)
(0.0244915 3.09895e-05 -1.46594e-26)
(0.0245197 2.10656e-05 -3.61124e-25)
(0.0245424 1.2805e-05 3.43399e-25)
(0.0245606 5.13676e-06 -2.9654e-25)
(0.0245751 -2.49859e-06 3.88451e-24)
(0.0245865 -1.02807e-05 -6.6756e-24)
(0.0245952 -1.80717e-05 6.21952e-24)
(0.0246014 -2.58854e-05 -1.97523e-23)
(0.0246054 -3.35995e-05 4.50372e-23)
(0.0246076 -4.10805e-05 -5.77624e-23)
(0.0246083 -4.82107e-05 4.7397e-23)
(0.0246076 -5.48988e-05 -1.6028e-23)
(0.0246061 -6.10808e-05 8.31633e-25)
(0.0246035 -6.67335e-05 3.67219e-24)
(0.0246006 -7.18468e-05 -7.05754e-24)
(0.026305 1.34787e-05 -1.16551e-24)
(0.026328 5.14996e-06 1.73871e-24)
(0.0263459 -1.47939e-06 -1.58348e-25)
(0.0263599 -7.34303e-06 -1.76906e-24)
(0.0263707 -1.30398e-05 6.66619e-24)
(0.026379 -1.87149e-05 -6.68873e-24)
(0.026385 -2.43894e-05 -5.87048e-24)
(0.0263889 -3.00758e-05 -1.40936e-23)
(0.0263911 -3.56161e-05 7.28978e-24)
(0.0263917 -4.09067e-05 3.42529e-23)
(0.0263912 -4.5904e-05 -1.80691e-23)
(0.0263896 -5.05873e-05 1.07245e-23)
(0.0263874 -5.49171e-05 -4.43674e-24)
(0.0263843 -5.88733e-05 -1.30439e-23)
(0.026381 -6.24518e-05 6.67184e-24)
(0.0279002 -3.58682e-06 3.70911e-25)
(0.0279187 -9.79502e-06 -5.92864e-25)
(0.0279327 -1.44279e-05 6.19719e-25)
(0.0279432 -1.82011e-05 -3.04989e-24)
(0.0279508 -2.18347e-05 -1.66183e-24)
(0.0279563 -2.52786e-05 1.19802e-23)
(0.0279599 -2.87185e-05 -9.20707e-24)
(0.0279619 -3.23641e-05 -5.52335e-24)
(0.0279626 -3.5875e-05 5.15434e-24)
(0.0279622 -3.90581e-05 -5.80691e-24)
(0.0279606 -4.21472e-05 1.31873e-23)
(0.0279583 -4.48185e-05 6.53177e-24)
(0.0279553 -4.74587e-05 -2.46107e-23)
(0.0279519 -4.97187e-05 1.69071e-23)
(0.0279481 -5.18239e-05 -3.51822e-24)
(0.0291127 -1.92485e-05 1.04627e-24)
(0.0291268 -2.28558e-05 1.23804e-24)
(0.0291369 -2.5286e-05 -2.98749e-24)
(0.0291441 -2.67384e-05 1.4218e-24)
(0.029149 -2.85269e-05 -1.72333e-24)
(0.029152 -2.95662e-05 -5.31545e-24)
(0.0291536 -3.07527e-05 -5.92668e-24)
(0.0291536 -3.26131e-05 1.38356e-23)
(0.0291526 -3.40547e-05 1.08953e-23)
(0.0291512 -3.51059e-05 -2.3785e-23)
(0.0291492 -3.60202e-05 1.40977e-23)
(0.0291466 -3.68859e-05 -1.09876e-24)
(0.0291435 -3.77224e-05 -1.00886e-24)
(0.0291395 -3.85386e-05 1.44076e-24)
(0.0291354 -3.91685e-05 -6.58683e-25)
(0.0297202 -3.33049e-05 -2.62155e-24)
(0.0297306 -3.43133e-05 -4.33659e-24)
(0.029738 -3.43859e-05 4.12951e-24)
(0.0297431 -3.39382e-05 5.05142e-24)
(0.0297464 -3.32516e-05 -9.63358e-25)
(0.0297482 -3.24622e-05 1.91811e-24)
(0.0297489 -3.16571e-05 -1.53831e-24)
(0.0297485 -3.07695e-05 -1.14276e-23)
(0.0297475 -3.01075e-05 2.64752e-23)
(0.0297456 -2.95863e-05 -1.20963e-23)
(0.0297429 -2.91267e-05 4.88887e-24)
(0.0297397 -2.86272e-05 -8.57318e-24)
(0.0297361 -2.80037e-05 -8.63114e-24)
(0.0297323 -2.72694e-05 1.25842e-23)
(0.0297283 -2.64357e-05 -5.37084e-24)
(0.0295303 -4.4723e-05 3.96696e-24)
(0.0295365 -4.34306e-05 -8.47154e-24)
(0.0295404 -4.14535e-05 1.94113e-24)
(0.0295427 -3.90387e-05 6.769e-24)
(0.0295436 -3.64433e-05 -4.64596e-24)
(0.0295435 -3.38166e-05 -3.73764e-25)
(0.0295425 -3.12205e-05 -5.86895e-24)
(0.0295407 -2.87646e-05 1.45603e-23)
(0.0295383 -2.64577e-05 4.62577e-24)
(0.0295354 -2.4237e-05 -9.83795e-24)
(0.029532 -2.20384e-05 -5.36876e-24)
(0.0295284 -1.98403e-05 6.27374e-24)
(0.0295245 -1.76466e-05 -6.70673e-24)
(0.0295203 -1.54512e-05 3.83428e-24)
(0.0295159 -1.32718e-05 -1.66083e-24)
(0.0285252 -5.03978e-05 2.36319e-24)
(0.0285273 -4.732e-05 -4.67913e-24)
(0.0285279 -4.37523e-05 -2.06492e-24)
(0.0285276 -3.99265e-05 9.78326e-24)
(0.0285265 -3.60332e-05 -6.83998e-24)
(0.0285248 -3.21742e-05 1.43102e-24)
(0.0285226 -2.84015e-05 3.77792e-25)
(0.02852 -2.47408e-05 -7.70254e-25)
(0.0285171 -2.11818e-05 -2.52688e-24)
(0.028514 -1.77231e-05 1.67441e-23)
(0.0285106 -1.4345e-05 -1.03038e-23)
(0.0285071 -1.10311e-05 1.24549e-24)
(0.0285034 -7.80598e-06 -1.4486e-23)
(0.0284996 -4.65158e-06 7.01946e-24)
(0.0284956 -1.56076e-06 2.29146e-24)
(0.0269706 -5.11509e-05 5.70966e-24)
(0.0269691 -4.70105e-05 -9.66467e-24)
(0.0269668 -4.25469e-05 2.10728e-24)
(0.026964 -3.7943e-05 -2.49215e-24)
(0.0269608 -3.33496e-05 -1.08313e-24)
(0.0269574 -2.88344e-05 7.01739e-24)
(0.0269538 -2.44169e-05 -1.06717e-24)
(0.0269501 -2.01236e-05 -5.96765e-25)
(0.0269462 -1.59607e-05 7.2759e-25)
(0.0269422 -1.18878e-05 5.2915e-24)
(0.0269382 -7.91823e-06 -1.18965e-23)
(0.0269341 -4.08075e-06 9.52556e-24)
(0.0269299 -3.29947e-07 -7.77509e-25)
(0.0269258 3.33694e-06 -3.01742e-24)
(0.0269215 6.94837e-06 4.81107e-25)
(0.0250687 -4.8448e-05 2.15888e-24)
(0.0250637 -4.37163e-05 -1.01285e-23)
(0.0250585 -3.88112e-05 1.58246e-23)
(0.0250533 -3.38199e-05 -1.05517e-23)
(0.0250483 -2.88448e-05 7.37371e-24)
(0.0250434 -2.39254e-05 -3.31817e-24)
(0.0250385 -1.9126e-05 -1.52225e-24)
(0.0250339 -1.44683e-05 4.25699e-26)
(0.0250293 -9.93697e-06 -3.44191e-24)
(0.0250248 -5.53643e-06 -2.3922e-24)
(0.0250204 -1.27177e-06 6.48689e-24)
(0.0250162 2.8586e-06 2.22049e-24)
(0.0250121 6.89104e-06 -3.70721e-24)
(0.0250081 1.08292e-05 1.2147e-24)
(0.0250042 1.46783e-05 -3.52313e-25)
(0.022968 -4.24464e-05 2.84439e-25)
(0.02296 -3.76471e-05 -3.73168e-24)
(0.0229525 -3.27353e-05 -1.29812e-24)
(0.0229456 -2.7791e-05 1.30233e-23)
(0.0229392 -2.28703e-05 -1.10714e-23)
(0.0229333 -1.8018e-05 2.79852e-24)
(0.0229278 -1.32819e-05 2.56835e-25)
(0.0229228 -8.67112e-06 -7.7452e-27)
(0.0229182 -4.19413e-06 9.26178e-25)
(0.0229139 1.46581e-07 -6.28069e-24)
(0.0229099 4.36693e-06 5.93365e-24)
(0.0229063 8.48749e-06 9.18084e-25)
(0.022903 1.24851e-05 -1.10866e-24)
(0.0229 1.63618e-05 -2.13585e-24)
(0.0228972 2.01245e-05 1.80051e-24)
(0.0207804 -3.47099e-05 4.22007e-25)
(0.0207709 -3.02551e-05 3.40154e-24)
(0.0207623 -2.57376e-05 -3.97338e-24)
(0.0207549 -2.12339e-05 -2.03972e-24)
(0.0207483 -1.67664e-05 1.06552e-23)
(0.0207426 -1.23702e-05 -8.16705e-24)
(0.0207375 -8.05405e-06 -4.62235e-25)
(0.0207332 -3.83733e-06 -3.93337e-25)
(0.0207294 2.61113e-07 3.37623e-25)
(0.0207263 4.24919e-06 1.80882e-25)
(0.0207237 8.12358e-06 1.95074e-24)
(0.0207216 1.1882e-05 -5.85156e-25)
(0.0207199 1.55216e-05 -4.25688e-26)
(0.0207188 1.90423e-05 -3.99531e-25)
(0.0207181 2.24444e-05 -1.57588e-24)
(0.0185926 -2.69894e-05 3.01232e-24)
(0.0185833 -2.32147e-05 -4.47909e-24)
(0.0185752 -1.94039e-05 -2.79139e-24)
(0.0185685 -1.56354e-05 8.32263e-24)
(0.018563 -1.18983e-05 -3.01759e-24)
(0.0185585 -8.18648e-06 -2.65583e-24)
(0.0185549 -4.51629e-06 1.09455e-24)
(0.0185521 -9.131e-07 6.11055e-25)
(0.0185501 2.59707e-06 5.1171e-25)
(0.0185489 6.00964e-06 -1.86035e-24)
(0.0185483 9.32369e-06 2.01824e-24)
(0.0185483 1.25376e-05 -1.51599e-24)
(0.0185489 1.56488e-05 3.67404e-24)
(0.0185502 1.86536e-05 -4.48204e-24)
(0.0185519 2.15497e-05 1.45692e-24)
(0.016468 -2.05709e-05 -5.87222e-25)
(0.0164601 -1.763e-05 -1.78883e-24)
(0.0164536 -1.4665e-05 -4.95641e-24)
(0.0164485 -1.17524e-05 1.36947e-23)
(0.0164446 -8.84e-06 -2.9285e-24)
(0.0164419 -5.90652e-06 -3.03446e-24)
(0.0164402 -2.96813e-06 4.27278e-25)
(0.0164393 -5.04583e-08 -7.30453e-25)
(0.0164392 2.78858e-06 5.41512e-25)
(0.01644 5.54974e-06 -3.81409e-25)
(0.0164415 8.23752e-06 -2.77599e-26)
(0.0164436 1.08495e-05 1.99533e-24)
(0.0164465 1.33824e-05 -2.19918e-24)
(0.0164499 1.58306e-05 -3.47565e-25)
(0.016454 1.81899e-05 4.03087e-25)
(0.0144475 -1.58562e-05 2.27283e-24)
(0.0144413 -1.37365e-05 2.83208e-24)
(0.0144366 -1.15895e-05 -3.10961e-24)
(0.0144332 -9.49985e-06 -5.14892e-24)
(0.0144309 -7.3927e-06 5.93561e-24)
(0.0144298 -5.20668e-06 -5.3994e-24)
(0.0144296 -2.95232e-06 5.69125e-25)
(0.0144303 -6.99764e-07 1.51398e-24)
(0.0144317 1.49701e-06 2.38826e-25)
(0.014434 3.633e-06 8.25546e-25)
(0.014437 5.72398e-06 9.2351e-25)
(0.0144407 7.76769e-06 -4.57588e-24)
(0.014445 9.7603e-06 1.87715e-24)
(0.01445 1.16943e-05 8.618e-25)
(0.0144555 1.3564e-05 8.75341e-26)
(0.0125529 -1.26053e-05 -2.37545e-24)
(0.0125483 -1.11747e-05 3.00791e-24)
(0.012545 -9.71901e-06 2.27732e-25)
(0.0125427 -8.30294e-06 4.38302e-24)
(0.0125415 -6.86331e-06 -3.90363e-24)
(0.0125412 -5.34713e-06 -8.55894e-26)
(0.0125417 -3.78922e-06 -5.60777e-25)
(0.0125432 -2.08008e-06 -6.70317e-25)
(0.0125455 -4.17078e-07 -1.36453e-25)
(0.0125484 1.18768e-06 5.43316e-25)
(0.012552 2.77071e-06 5.46715e-25)
(0.0125563 4.32992e-06 -1.6288e-25)
(0.0125612 5.86407e-06 -4.21355e-25)
(0.0125666 7.36458e-06 -3.09713e-25)
(0.0125726 8.82591e-06 -2.27635e-25)
(0.0107932 -1.03155e-05 1.7699e-24)
(0.0107895 -9.42623e-06 -1.43578e-24)
(0.0107868 -8.51779e-06 -5.14662e-24)
(0.010785 -7.62189e-06 4.80316e-24)
(0.010784 -6.69889e-06 5.08198e-24)
(0.0107838 -5.6991e-06 -1.91026e-24)
(0.0107844 -4.63808e-06 -2.24787e-24)
(0.0107858 -3.4061e-06 -1.5821e-24)
(0.0107879 -2.20183e-06 8.70218e-25)
(0.0107906 -1.02522e-06 -1.81025e-25)
(0.010794 1.46192e-07 2.38312e-25)
(0.0107979 1.31801e-06 2.98769e-25)
(0.0108024 2.48374e-06 -5.58313e-25)
(0.0108074 3.636e-06 -6.82148e-26)
(0.0108129 4.77058e-06 2.51158e-25)
(0.00916906 -8.53786e-06 -1.11987e-24)
(0.00916559 -8.04451e-06 -6.42859e-25)
(0.00916293 -7.52266e-06 9.82202e-25)
(0.00916099 -6.99988e-06 -2.19152e-24)
(0.0091597 -6.42495e-06 6.9067e-24)
(0.00915907 -5.77648e-06 -7.39931e-24)
(0.00915905 -5.10213e-06 5.67061e-24)
(0.00915964 -4.30405e-06 -2.115e-24)
(0.00916091 -3.43221e-06 5.04851e-26)
(0.00916274 -2.57433e-06 -3.21871e-25)
(0.00916511 -1.72e-06 2.8742e-26)
(0.009168 -8.55271e-07 -4.60357e-25)
(0.00917138 1.83537e-08 6.04658e-25)
(0.00917527 8.93935e-07 1.83293e-25)
(0.00917959 1.76763e-06 -1.14379e-25)
(0.00767709 -6.96925e-06 -5.46705e-25)
(0.00767348 -6.73006e-06 1.72554e-25)
(0.00767048 -6.46205e-06 2.91361e-25)
(0.007668 -6.18875e-06 -1.04753e-24)
(0.00766602 -5.87177e-06 -2.57732e-25)
(0.00766455 -5.49487e-06 3.21438e-24)
(0.00766357 -5.04812e-06 -1.75359e-24)
(0.00766309 -4.51546e-06 1.04187e-25)
(0.00766314 -3.95817e-06 -1.2787e-25)
(0.00766368 -3.35283e-06 4.37308e-26)
(0.00766473 -2.72991e-06 1.67533e-25)
(0.00766624 -2.10315e-06 -5.37406e-25)
(0.0076682 -1.46074e-06 -5.31137e-25)
(0.00767062 -8.0742e-07 6.64919e-25)
(0.00767345 -1.45945e-07 1.8672e-25)
(0.00631158 -5.47655e-06 -1.99614e-25)
(0.00630771 -5.38939e-06 -4.57106e-26)
(0.00630425 -5.28214e-06 -2.69105e-24)
(0.00630115 -5.16478e-06 9.57234e-25)
(0.0062984 -5.01263e-06 -1.25211e-24)
(0.00629601 -4.80729e-06 1.44631e-24)
(0.00629399 -4.54213e-06 1.72953e-24)
(0.00629238 -4.20287e-06 6.9096e-25)
(0.0062912 -3.8174e-06 -6.4255e-25)
(0.00629044 -3.41101e-06 1.76972e-25)
(0.00629011 -2.98828e-06 -2.17595e-25)
(0.0062902 -2.55635e-06 7.2908e-25)
(0.0062907 -2.09265e-06 -4.25092e-25)
(0.00629162 -1.61773e-06 1.97717e-25)
(0.00629293 -1.13019e-06 -3.45195e-25)
(0.00506568 -4.05888e-06 -7.84547e-25)
(0.00506164 -4.05671e-06 -9.36516e-25)
(0.00505784 -4.03713e-06 -1.35991e-26)
(0.00505426 -4.00473e-06 2.21366e-24)
(0.00505089 -3.94479e-06 -1.30736e-24)
(0.00504777 -3.84353e-06 -5.73491e-26)
(0.00504491 -3.69453e-06 1.51965e-24)
(0.00504236 -3.48979e-06 -1.91953e-25)
(0.00504016 -3.24969e-06 -3.02299e-25)
(0.00503831 -2.98646e-06 7.88135e-26)
(0.00503682 -2.70579e-06 3.23747e-25)
(0.0050357 -2.4095e-06 -6.88566e-25)
(0.00503495 -2.09676e-06 1.10911e-25)
(0.00503457 -1.77011e-06 3.87834e-25)
(0.00503456 -1.43373e-06 -2.96561e-25)
(0.00393196 -2.77419e-06 -1.71997e-25)
(0.00392797 -2.81095e-06 2.2125e-26)
(0.0039241 -2.82781e-06 1.10484e-24)
(0.00392032 -2.83225e-06 5.58643e-25)
(0.00391667 -2.81778e-06 -5.87758e-25)
(0.00391315 -2.77526e-06 -9.73263e-25)
(0.00390981 -2.69926e-06 2.64238e-25)
(0.0039067 -2.58496e-06 -8.05994e-25)
(0.00390385 -2.44428e-06 5.64975e-25)
(0.00390129 -2.28476e-06 -8.53211e-26)
(0.00389902 -2.11155e-06 -2.5848e-25)
(0.00389706 -1.92724e-06 4.36748e-25)
(0.00389542 -1.72843e-06 -1.81408e-25)
(0.00389411 -1.51741e-06 2.46728e-25)
(0.00389313 -1.29415e-06 -1.53693e-25)
(0.00290268 -1.68942e-06 -3.17567e-25)
(0.00289905 -1.73857e-06 2.90702e-26)
(0.00289544 -1.76396e-06 9.0454e-25)
(0.00289186 -1.77886e-06 -5.56585e-25)
(0.00288831 -1.78237e-06 1.7756e-24)
(0.00288483 -1.76907e-06 -3.02366e-24)
(0.00288146 -1.73518e-06 1.99729e-24)
(0.00287824 -1.67738e-06 -1.2442e-24)
(0.00287521 -1.60208e-06 5.46901e-25)
(0.0028724 -1.51418e-06 -6.58942e-26)
(0.00286981 -1.41701e-06 -2.28298e-26)
(0.00286747 -1.31199e-06 -2.57762e-26)
(0.00286539 -1.19691e-06 -1.47556e-25)
(0.00286358 -1.0732e-06 2.0916e-25)
(0.00286205 -9.41019e-07 -6.33327e-26)
(0.00197009 -8.55466e-07 4.83103e-25)
(0.00196713 -9.01915e-07 4.50448e-25)
(0.00196414 -9.2485e-07 -1.97922e-24)
(0.00196113 -9.39661e-07 1.35563e-24)
(0.00195812 -9.47407e-07 -4.94188e-26)
(0.00195512 -9.4572e-07 1.95911e-25)
(0.00195218 -9.32855e-07 -3.27916e-25)
(0.00194932 -9.06744e-07 -3.67996e-25)
(0.0019466 -8.70673e-07 2.72161e-25)
(0.00194401 -8.27363e-07 -7.03039e-26)
(0.0019416 -7.7886e-07 1.84465e-25)
(0.00193936 -7.26118e-07 -5.48973e-26)
(0.0019373 -6.68203e-07 -1.50018e-25)
(0.00193546 -6.05793e-07 9.02276e-27)
(0.00193383 -5.38248e-07 4.25522e-26)
(0.00112657 -2.9554e-07 -4.88657e-25)
(0.00112457 -3.05117e-07 1.4236e-24)
(0.00112251 -3.08721e-07 6.82922e-25)
(0.00112043 -3.12974e-07 -1.39353e-24)
(0.00111834 -3.16217e-07 -1.54871e-25)
(0.00111623 -3.1692e-07 -1.06984e-25)
(0.00111415 -3.14509e-07 2.3549e-25)
(0.00111211 -3.07832e-07 -3.28173e-25)
(0.00111014 -2.9795e-07 2.29556e-25)
(0.00110825 -2.8585e-07 -1.1862e-25)
(0.00110646 -2.72492e-07 7.46303e-26)
(0.00110477 -2.58491e-07 -9.20738e-26)
(0.00110321 -2.43524e-07 3.01541e-25)
(0.00110177 -2.27971e-07 -3.62797e-25)
(0.00110048 -2.10234e-07 9.22772e-26)
(0.000364797 -5.34788e-09 -3.51093e-27)
(0.000363962 7.51429e-08 2.7214e-25)
(0.000363112 1.29262e-07 2.63847e-25)
(0.000362255 1.60787e-07 -4.56484e-25)
(0.000361394 1.75191e-07 7.28141e-25)
(0.000360532 1.76504e-07 -8.00519e-25)
(0.000359674 1.67667e-07 3.40541e-26)
(0.000358829 1.51553e-07 1.8977e-25)
(0.000358008 1.30273e-07 -2.51275e-25)
(0.000357216 1.05575e-07 4.49127e-26)
(0.00035646 7.87616e-08 -1.19663e-25)
(0.000355743 5.08285e-08 8.37997e-26)
(0.000355069 2.28021e-08 1.12054e-25)
(0.000354442 -4.68325e-09 -1.05646e-25)
(0.000353867 -3.01126e-08 7.67963e-27)
(0.000973144 -0.000257694 8.60902e-26)
(0.00111482 -0.000176921 2.20022e-24)
(0.00135275 -9.60302e-05 -6.32177e-24)
(0.00159571 -3.38156e-05 9.18778e-24)
(0.00182814 1.16451e-05 -3.44458e-24)
(0.0020548 4.12333e-05 -3.3189e-24)
(0.00227531 5.78697e-05 3.77129e-24)
(0.00249001 6.40294e-05 -7.42848e-24)
(0.00269955 6.19332e-05 5.09337e-25)
(0.00290455 5.35711e-05 4.63467e-24)
(0.00310566 4.0699e-05 -8.64776e-25)
(0.0033035 2.49024e-05 9.12188e-25)
(0.00349871 7.792e-06 -1.00925e-25)
(0.00369194 -9.04273e-06 4.99383e-25)
(0.003884 -2.36799e-05 -1.81712e-24)
(0.00407606 -3.38784e-05 9.71104e-25)
(0.00427009 -3.68941e-05 -2.54067e-25)
(0.00446881 -2.97017e-05 3.84201e-26)
(0.00467727 -9.39749e-06 5.14098e-25)
(0.0049009 2.65187e-05 -3.13241e-25)
(0.0051487 7.66103e-05 3.89937e-26)
(0.00542706 0.000137071 -3.53102e-26)
(0.00571495 0.000190341 8.20868e-26)
(0.00597474 0.000217948 3.66698e-25)
(0.00619255 0.000217948 -6.55413e-25)
(0.00636727 0.000193317 -5.28736e-25)
(0.00650019 0.000146463 -3.85928e-26)
(0.00659343 7.9394e-05 1.40464e-24)
(0.00664815 -5.97236e-06 2.21028e-24)
(0.00666428 -0.000107003 -4.35559e-24)
(0.0066408 -0.000219775 4.11621e-24)
(0.00657637 -0.000338669 -3.99987e-24)
(0.00646991 -0.000456521 1.13934e-24)
(0.00632106 -0.000564929 1.98497e-25)
(0.00613036 -0.000654638 -2.56193e-25)
(0.00589915 -0.000715787 3.66955e-24)
(0.00562942 -0.00073784 -2.78733e-25)
(0.00532354 -0.000708958 1.89116e-24)
(0.00498441 -0.000614512 1.33452e-24)
(0.00461608 -0.000434979 -8.42526e-24)
(0.00422362 -0.000146036 -1.10315e-25)
(0.00381486 0.000272519 4.08545e-24)
(0.00338399 0.000803239 1.5082e-24)
(0.00295502 0.00134697 -5.93016e-24)
(0.00271626 0.00157009 -3.08294e-25)
(0.00183187 -0.000343356 -2.52303e-24)
(0.00189086 -0.000299393 -3.54594e-24)
(0.00203705 -0.000221685 7.44236e-24)
(0.00222084 -0.000151528 3.46748e-24)
(0.00241536 -9.47249e-05 -1.21206e-23)
(0.0026152 -5.3523e-05 1.2933e-23)
(0.00281565 -2.6155e-05 -4.63575e-24)
(0.00301441 -1.03827e-05 3.66794e-24)
(0.00321064 -3.97008e-06 -4.8468e-24)
(0.00340404 -4.82913e-06 6.20018e-26)
(0.00359463 -1.10893e-05 -2.46329e-24)
(0.00378265 -2.10564e-05 4.84063e-24)
(0.00396843 -3.3e-05 -2.60937e-24)
(0.00415241 -4.5278e-05 -2.13735e-24)
(0.00433521 -5.5916e-05 -1.19686e-24)
(0.00451782 -6.26764e-05 2.63276e-24)
(0.004702 -6.28454e-05 -2.08014e-25)
(0.00489021 -5.34861e-05 1.09477e-24)
(0.00508723 -3.17645e-05 1.24592e-25)
(0.00529812 4.75253e-06 -2.85779e-25)
(0.00553172 5.47108e-05 -1.14276e-25)
(0.00579451 0.00011474 -8.08798e-26)
(0.00606769 0.000167975 4.35579e-25)
(0.00631625 0.000196544 6.53104e-25)
(0.00652686 0.000198579 -4.88966e-25)
(0.00669786 0.000176943 -3.05569e-24)
(0.00682981 0.000133954 4.30388e-24)
(0.00692418 7.16902e-05 -3.20386e-24)
(0.00698168 -7.69487e-06 1.09916e-24)
(0.00700201 -0.000101443 -7.95506e-25)
(0.00698418 -0.000205357 6.09041e-24)
(0.00692702 -0.000313764 -8.44701e-24)
(0.00682979 -0.000419524 4.62675e-24)
(0.0066926 -0.000514347 -2.26207e-24)
(0.00651661 -0.00058913 -1.71783e-25)
(0.00630405 -0.000634173 3.20856e-25)
(0.00605814 -0.000639116 7.82262e-24)
(0.00578318 -0.00059241 -1.53837e-24)
(0.00548505 -0.00048013 -7.50607e-24)
(0.00517272 -0.00028415 -5.22059e-24)
(0.00486025 1.79381e-05 1.19442e-23)
(0.00457179 0.000444923 -1.20508e-23)
(0.00433496 0.00097814 -3.03754e-24)
(0.00419596 0.00150595 8.16906e-24)
(0.00420906 0.00166111 2.75681e-24)
(0.00284301 -0.000352127 -2.93589e-26)
(0.00285245 -0.000350649 -4.13234e-24)
(0.00291363 -0.000306403 7.8727e-24)
(0.00302834 -0.000246958 6.65272e-24)
(0.00317004 -0.000190234 -1.08556e-23)
(0.00332908 -0.000143768 2.2306e-25)
(0.00349762 -0.00010908 1.04561e-24)
(0.00367066 -8.55052e-05 1.12742e-23)
(0.00384547 -7.14987e-05 -1.33293e-23)
(0.00402041 -6.5271e-05 8.07041e-24)
(0.00419462 -6.50552e-05 2.27612e-24)
(0.00436769 -6.91449e-05 -1.29111e-23)
(0.00453948 -7.5853e-05 4.63841e-24)
(0.00471009 -8.344e-05 1.72111e-24)
(0.00487985 -8.99315e-05 -3.29452e-24)
(0.0050495 -9.31138e-05 5.04075e-24)
(0.00522052 -9.03161e-05 -3.32571e-24)
(0.00539506 -7.87034e-05 2.40274e-26)
(0.0055776 -5.55182e-05 2.56988e-25)
(0.00577274 -1.83925e-05 2.2111e-25)
(0.00598913 3.13861e-05 1.97603e-26)
(0.00623331 9.08949e-05 1.23652e-25)
(0.00648884 0.000143983 -4.50426e-25)
(0.00672367 0.000173387 1.42573e-24)
(0.00692504 0.000177344 -2.4747e-24)
(0.00709072 0.000158638 1.46501e-24)
(0.00722047 0.000119496 -3.95521e-24)
(0.00731509 6.20694e-05 5.35382e-24)
(0.00737478 -1.13057e-05 -5.42349e-24)
(0.00739902 -9.76002e-05 -4.64273e-28)
(0.00738681 -0.000192488 -2.60514e-25)
(0.0073372 -0.000290211 9.82947e-24)
(0.00724981 -0.000383676 -3.27116e-24)
(0.00712526 -0.00046475 -1.08855e-24)
(0.00696538 -0.000524587 -8.95732e-25)
(0.00677333 -0.000553838 6.26203e-24)
(0.00655367 -0.000542661 -5.41506e-24)
(0.00631264 -0.00048041 1.15064e-23)
(0.00605897 -0.000354976 -2.30739e-23)
(0.00580588 -0.000151871 9.04432e-24)
(0.00557375 0.000144857 3.41565e-24)
(0.00539487 0.000544644 5.77346e-24)
(0.00530698 0.00102002 -7.18806e-24)
(0.00533976 0.00145768 2.1199e-24)
(0.00547775 0.00156908 -1.30023e-24)
(0.00398671 -0.000334713 -1.06969e-24)
(0.00396778 -0.000359911 -1.63146e-24)
(0.0039776 -0.000345237 -6.9528e-24)
(0.00402597 -0.000309742 1.89138e-24)
(0.00411046 -0.000263975 1.262e-24)
(0.00421983 -0.00022052 5.54217e-24)
(0.00434654 -0.000184045 -1.16034e-23)
(0.00448434 -0.000156239 4.44782e-24)
(0.00462908 -0.000136873 1.46147e-23)
(0.00477788 -0.000124932 -3.93432e-24)
(0.00492886 -0.000119062 -3.59197e-24)
(0.00508084 -0.000117762 -5.52951e-25)
(0.00523311 -0.000119464 1.71131e-24)
(0.0053853 -0.000122463 -3.23267e-24)
(0.00553737 -0.00012483 7.89257e-25)
(0.00568973 -0.000124413 -1.62476e-25)
(0.00584352 -0.000118613 -1.11742e-24)
(0.00600055 -0.000104722 5.77212e-25)
(0.00616492 -8.00818e-05 1.81929e-24)
(0.00634074 -4.23961e-05 -2.15046e-25)
(0.0065364 7.08532e-06 -3.7864e-25)
(0.00675841 6.59027e-05 -1.19532e-25)
(0.00699293 0.000118649 -7.95203e-25)
(0.00721108 0.000148697 -1.65326e-25)
(0.00740076 0.00015441 -2.39639e-24)
(0.00755911 0.00013854 3.90978e-24)
(0.00768507 0.000103218 -3.94105e-24)
(0.00777871 5.06687e-05 7.75824e-24)
(0.0078397 -1.65843e-05 -7.12871e-24)
(0.00786727 -9.52841e-05 1.51961e-24)
(0.00786045 -0.000180976 3.28515e-24)
(0.00781847 -0.000267865 -6.77567e-26)
(0.00774136 -0.000348968 -2.20027e-25)
(0.00763026 -0.000416413 -1.63037e-25)
(0.00748771 -0.000461769 -3.62936e-25)
(0.00731777 -0.000476306 -2.30851e-24)
(0.00712623 -0.000451115 1.31575e-23)
(0.00692102 -0.000377097 -6.76044e-24)
(0.006713 -0.000244923 1.49207e-25)
(0.00651771 -4.51886e-05 -2.18041e-23)
(0.00635732 0.000229582 1.67831e-23)