/*--------------------------------*- C++ -*----------------------------------*\
| =========                 |                                                 |
| \\      /  F ield         | OpenFOAM: The Open Source CFD Toolbox           |
|  \\    /   O peration     | Version:  2312                                  |
|   \\  /    A nd           | Website:  www.openfoam.com                      |
|    \\/     M anipulation  |                                                 |
\*---------------------------------------------------------------------------*/
FoamFile
{
    version     2.0;
    format      ascii;
    arch        "LSB;label=32;scalar=64";
    class       volScalarField;
    location    "99";
    object      p;
}
// * * * * * * * * * * * * * * * * * * * * * * * * * * * * * * * * * * * * * //

dimensions      [0 2 -2 0 0 0 0];

internalField   nonuniform List<scalar> 
4800
(
4.09467e-13
-1.03454e-06
-1.84984e-06
-2.51461e-06
-3.06937e-06
-3.55326e-06
-3.97535e-06
-4.34763e-06
-4.6827e-06
-4.98741e-06
-5.26645e-06
-5.51987e-06
-5.74021e-06
-6.16544e-06
-7.73049e-06
1.29879e-08
-1.02146e-06
-1.83709e-06
-2.50255e-06
-3.05855e-06
-3.54422e-06
-3.96882e-06
-4.3445e-06
-4.68472e-06
-4.99825e-06
-5.2944e-06
-5.5863e-06
-5.88586e-06
-6.29887e-06
-7.06078e-06
2.62806e-08
-1.00789e-06
-1.82387e-06
-2.4903e-06
-3.04666e-06
-3.53347e-06
-3.96019e-06
-4.3386e-06
-4.68285e-06
-5.00251e-06
-5.30803e-06
-5.61302e-06
-5.92335e-06
-6.24462e-06
-6.5494e-06
3.92737e-08
-9.94075e-07
-1.80994e-06
-2.47717e-06
-3.033e-06
-3.52025e-06
-3.94836e-06
-4.32807e-06
-4.67353e-06
-4.99376e-06
-5.29649e-06
-5.58681e-06
-5.85471e-06
-6.06724e-06
-6.1533e-06
5.32215e-08
-9.78693e-07
-1.79388e-06
-2.46111e-06
-3.01666e-06
-3.50255e-06
-3.93078e-06
-4.30976e-06
-4.65254e-06
-4.96629e-06
-5.25387e-06
-5.51098e-06
-5.71707e-06
-5.83277e-06
-5.80305e-06
6.95413e-08
-9.60314e-07
-1.77417e-06
-2.44019e-06
-2.99592e-06
-3.47814e-06
-3.90419e-06
-4.27937e-06
-4.61437e-06
-4.91357e-06
-5.17483e-06
-5.38775e-06
-5.5301e-06
-5.57181e-06
-5.48488e-06
9.06361e-08
-9.36627e-07
-1.74841e-06
-2.4121e-06
-2.9665e-06
-3.44409e-06
-3.86442e-06
-4.23144e-06
-4.55265e-06
-4.82943e-06
-5.05631e-06
-5.22142e-06
-5.30761e-06
-5.29909e-06
-5.18847e-06
1.20834e-07
-9.03584e-07
-1.71253e-06
-2.37279e-06
-2.92342e-06
-3.39504e-06
-3.80567e-06
-4.15944e-06
-4.46081e-06
-4.70904e-06
-4.89795e-06
-5.01825e-06
-5.06064e-06
-5.02154e-06
-4.90491e-06
1.67022e-07
-8.54763e-07
-1.6602e-06
-2.31581e-06
-2.86057e-06
-3.32324e-06
-3.72024e-06
-4.05588e-06
-4.33258e-06
-4.5491e-06
-4.70107e-06
-4.78392e-06
-4.79573e-06
-4.74075e-06
-4.62758e-06
2.38826e-07
-7.81029e-07
-1.58248e-06
-2.23214e-06
-2.7689e-06
-3.21951e-06
-3.59923e-06
-3.91288e-06
-4.16231e-06
-4.34744e-06
-4.46715e-06
-4.52184e-06
-4.51489e-06
-4.45447e-06
-4.35012e-06
3.48169e-07
-6.70697e-07
-1.46784e-06
-2.11027e-06
-2.63694e-06
-3.07302e-06
-3.43294e-06
-3.72264e-06
-3.94501e-06
-4.10219e-06
-4.1966e-06
-4.23256e-06
-4.2165e-06
-4.15786e-06
-4.06549e-06
5.08737e-07
-5.09971e-07
-1.3025e-06
-1.93661e-06
-2.45163e-06
-2.87184e-06
-3.21129e-06
-3.47765e-06
-3.67597e-06
-3.81099e-06
-3.88803e-06
-3.91385e-06
-3.89622e-06
-3.84436e-06
-3.76591e-06
7.36427e-07
-2.82708e-07
-1.07038e-06
-1.69546e-06
-2.19832e-06
-2.60313e-06
-2.92388e-06
-3.17032e-06
-3.35001e-06
-3.47006e-06
-3.53772e-06
-3.56092e-06
-3.5476e-06
-3.50617e-06
-3.44298e-06
1.05069e-06
3.07908e-08
-7.5227e-07
-1.36766e-06
-1.86014e-06
-2.25233e-06
-2.55884e-06
-2.79137e-06
-2.95975e-06
-3.07282e-06
-3.13885e-06
-3.16605e-06
-3.16196e-06
-3.13399e-06
-3.08742e-06
1.47509e-06
4.54882e-07
-3.25336e-07
-9.32648e-07
-1.41747e-06
-1.80203e-06
-2.10114e-06
-2.32789e-06
-2.49364e-06
-2.60822e-06
-2.68024e-06
-2.7177e-06
-2.72754e-06
-2.71622e-06
-2.68823e-06
2.03558e-06
1.01785e-06
2.35805e-07
-3.65629e-07
-8.48355e-07
-1.23216e-06
-1.53241e-06
-1.76298e-06
-1.93579e-06
-2.06084e-06
-2.14664e-06
-2.20076e-06
-2.22961e-06
-2.23889e-06
-2.23256e-06
2.75613e-06
1.74718e-06
9.74812e-07
3.59968e-07
-1.30268e-07
-5.22321e-07
-8.33617e-07
-1.07856e-06
-1.26888e-06
-1.41409e-06
-1.52216e-06
-1.60015e-06
-1.65404e-06
-1.689e-06
-1.70872e-06
3.65231e-06
2.65619e-06
1.88076e-06
1.25765e-06
7.52709e-07
3.43158e-07
1.06703e-08
-2.59595e-07
-4.78571e-07
-6.54622e-07
-7.94856e-07
-9.0575e-07
-9.92847e-07
-1.06088e-06
-1.11333e-06
4.72444e-06
3.75056e-06
2.97409e-06
2.33567e-06
1.8091e-06
1.37394e-06
1.01076e-06
7.04941e-07
4.46874e-07
2.29583e-07
4.69243e-08
-1.06914e-07
-2.37048e-07
-3.47808e-07
-4.42504e-07
5.94188e-06
4.99373e-06
4.23284e-06
3.58186e-06
3.03184e-06
2.56546e-06
2.16413e-06
1.81499e-06
1.51009e-06
1.24356e-06
1.00998e-06
8.04191e-07
6.21596e-07
4.5833e-07
3.11187e-07
7.18722e-06
6.29356e-06
5.51528e-06
4.8498e-06
4.27442e-06
3.7703e-06
3.32301e-06
2.923e-06
2.5639e-06
2.24056e-06
1.94812e-06
1.68216e-06
1.43881e-06
1.2148e-06
1.00734e-06
8.25334e-06
7.38984e-06
6.61938e-06
5.94518e-06
5.34835e-06
4.8112e-06
4.3232e-06
3.87802e-06
3.4705e-06
3.09583e-06
2.74963e-06
2.4282e-06
2.12836e-06
1.84746e-06
1.58307e-06
9.03396e-06
8.2051e-06
7.45795e-06
6.78509e-06
6.17389e-06
5.61308e-06
5.09552e-06
4.61619e-06
4.17052e-06
3.75428e-06
3.36377e-06
2.99599e-06
2.64837e-06
2.31876e-06
2.00515e-06
9.60097e-06
8.8092e-06
8.0834e-06
7.41463e-06
6.79555e-06
6.21967e-06
5.68161e-06
5.17688e-06
4.70155e-06
4.25219e-06
3.8259e-06
3.42032e-06
3.0334e-06
2.66344e-06
2.30883e-06
1.0002e-05
9.24284e-06
8.5351e-06
7.87288e-06
7.25181e-06
6.66749e-06
6.11558e-06
5.59231e-06
5.09455e-06
4.61968e-06
4.16546e-06
3.73006e-06
3.31188e-06
2.90962e-06
2.52205e-06
1.02747e-05
9.54354e-06
8.85324e-06
8.20014e-06
7.58117e-06
6.99296e-06
6.43219e-06
5.89594e-06
5.38181e-06
4.88784e-06
4.41234e-06
3.95391e-06
3.51137e-06
3.08377e-06
2.67021e-06
1.04535e-05
9.74765e-06
9.07447e-06
8.43158e-06
7.8168e-06
7.22763e-06
6.66157e-06
6.11649e-06
5.59061e-06
5.08248e-06
4.59087e-06
4.1148e-06
3.65342e-06
3.20612e-06
2.77227e-06
1.05673e-05
9.88424e-06
9.22703e-06
8.59434e-06
7.98475e-06
7.39641e-06
6.82752e-06
6.27655e-06
5.74225e-06
5.22363e-06
4.71984e-06
4.23024e-06
3.75431e-06
3.29169e-06
2.84203e-06
1.06377e-05
9.97471e-06
9.33196e-06
8.70898e-06
8.10492e-06
7.51842e-06
6.94823e-06
6.39334e-06
5.85297e-06
5.32646e-06
4.81333e-06
4.31323e-06
3.82591e-06
3.35126e-06
2.88914e-06
1.068e-05
1.00345e-05
9.40464e-06
8.79065e-06
8.19198e-06
7.60771e-06
7.03708e-06
6.47952e-06
5.9346e-06
5.402e-06
4.88153e-06
4.37309e-06
3.87668e-06
3.39239e-06
2.92029e-06
1.07045e-05
1.00743e-05
9.45592e-06
8.84998e-06
8.25627e-06
7.67426e-06
7.10362e-06
6.54412e-06
5.99565e-06
5.45817e-06
4.93173e-06
4.41648e-06
3.91262e-06
3.42043e-06
2.94013e-06
1.07183e-05
1.01016e-05
9.49315e-06
8.8943e-06
8.30499e-06
7.72508e-06
7.15457e-06
6.59354e-06
6.04214e-06
5.50058e-06
4.96913e-06
4.44816e-06
3.93802e-06
3.43917e-06
2.952e-06
1.0726e-05
1.0121e-05
9.52125e-06
8.92854e-06
8.34305e-06
7.76496e-06
7.19459e-06
6.63224e-06
6.0783e-06
5.53321e-06
4.99744e-06
4.47151e-06
3.95595e-06
3.45137e-06
2.95828e-06
1.07305e-05
1.01357e-05
9.5434e-06
8.95597e-06
8.37374e-06
7.7972e-06
7.22687e-06
6.6633e-06
6.10709e-06
5.55886e-06
5.01925e-06
4.48895e-06
3.96863e-06
3.45901e-06
2.96074e-06
1.07337e-05
1.01474e-05
9.56162e-06
8.97872e-06
8.39926e-06
7.82396e-06
7.25358e-06
6.68885e-06
6.13054e-06
5.57946e-06
5.0364e-06
4.50218e-06
3.9776e-06
3.46351e-06
2.96063e-06
1.07362e-05
1.01574e-05
9.57715e-06
8.99812e-06
8.42099e-06
7.84669e-06
7.27614e-06
6.71028e-06
6.15003e-06
5.59633e-06
5.05014e-06
4.51238e-06
3.98398e-06
3.46587e-06
2.95888e-06
1.07385e-05
1.0166e-05
9.5907e-06
9.01497e-06
8.43978e-06
7.86625e-06
7.29546e-06
6.7285e-06
6.16644e-06
5.61036e-06
5.06132e-06
4.52036e-06
3.98852e-06
3.4668e-06
2.95612e-06
1.07409e-05
1.01739e-05
9.60278e-06
9.02988e-06
8.45633e-06
7.8834e-06
7.31232e-06
6.74431e-06
6.18057e-06
5.62229e-06
5.07064e-06
4.52676e-06
3.99177e-06
3.46676e-06
2.95272e-06
1.07434e-05
1.01816e-05
9.6143e-06
9.04396e-06
8.47186e-06
7.89941e-06
7.32799e-06
6.75892e-06
6.19353e-06
5.63311e-06
5.07893e-06
4.53222e-06
3.99418e-06
3.46599e-06
2.94872e-06
1.07462e-05
1.01895e-05
9.62576e-06
9.0578e-06
8.48695e-06
7.9148e-06
7.34286e-06
6.7726e-06
6.20547e-06
5.6429e-06
5.08623e-06
4.53683e-06
3.99595e-06
3.46486e-06
2.9446e-06
-8.88969e-06
-6.53175e-06
-5.10314e-06
-4.14896e-06
-3.39523e-06
-2.8313e-06
-2.40862e-06
-2.09462e-06
-1.86621e-06
-1.70384e-06
-1.59015e-06
-1.50884e-06
-1.44399e-06
-1.37972e-06
-1.29957e-06
-1.18797e-06
-1.03092e-06
-8.20674e-07
-5.61103e-07
-2.76458e-07
-1.0206e-08
1.84793e-07
2.67961e-07
3.17474e-07
4.42592e-07
7.16884e-07
1.17904e-06
1.83995e-06
2.7065e-06
3.7786e-06
5.06009e-06
6.53349e-06
8.17919e-06
9.97373e-06
1.18778e-05
1.38449e-05
1.58196e-05
1.77371e-05
1.95188e-05
2.10646e-05
2.22255e-05
2.27942e-05
2.2308e-05
2.03728e-05
1.52964e-05
-7.29754e-06
-6.03022e-06
-4.92909e-06
-4.06862e-06
-3.36092e-06
-2.81144e-06
-2.39384e-06
-2.08213e-06
-1.85539e-06
-1.6948e-06
-1.58311e-06
-1.50394e-06
-1.44125e-06
-1.37906e-06
-1.30086e-06
-1.19113e-06
-1.03595e-06
-8.27442e-07
-5.69182e-07
-2.8474e-07
-1.5722e-08
1.87198e-07
2.83514e-07
3.48034e-07
4.86399e-07
7.70944e-07
1.23991e-06
1.90391e-06
2.76928e-06
3.8352e-06
5.10544e-06
6.55953e-06
8.17486e-06
9.92601e-06
1.17699e-05
1.36552e-05
1.55193e-05
1.7287e-05
1.88624e-05
2.0115e-05
2.08425e-05
2.07203e-05
1.91002e-05
1.5256e-05
7.93467e-06
-6.46699e-06
-5.64916e-06
-4.75195e-06
-3.9802e-06
-3.32011e-06
-2.79046e-06
-2.38066e-06
-2.07228e-06
-1.84733e-06
-1.68825e-06
-1.57813e-06
-1.50061e-06
-1.43958e-06
-1.37902e-06
-1.30238e-06
-1.1942e-06
-1.04068e-06
-8.3385e-07
-5.77008e-07
-2.92831e-07
-2.09887e-08
1.90407e-07
3.01038e-07
3.8203e-07
5.34863e-07
8.30421e-07
1.30632e-06
1.97274e-06
2.83537e-06
3.89161e-06
5.14671e-06
6.57525e-06
8.15109e-06
9.84648e-06
1.16139e-05
1.33957e-05
1.51215e-05
1.67044e-05
1.80317e-05
1.89494e-05
1.92255e-05
1.85098e-05
1.62331e-05
1.20504e-05
5.69543e-06
-5.95408e-06
-5.34426e-06
-4.60825e-06
-3.90554e-06
-3.29103e-06
-2.78187e-06
-2.37925e-06
-2.07275e-06
-1.84777e-06
-1.68835e-06
-1.57811e-06
-1.5008e-06
-1.44028e-06
-1.38043e-06
-1.30468e-06
-1.1976e-06
-1.04547e-06
-8.4019e-07
-5.84734e-07
-3.00806e-07
-2.59294e-08
1.94632e-07
3.20869e-07
4.19954e-07
5.88784e-07
8.96689e-07
1.38044e-06
2.04976e-06
2.90869e-06
3.95288e-06
5.19097e-06
6.58822e-06
8.11598e-06
9.74352e-06
1.14179e-05
1.30749e-05
1.46358e-05
1.6003e-05
1.70526e-05
1.76206e-05
1.7483e-05
1.635e-05
1.3861e-05
9.86102e-06
4.61594e-06
-5.56736e-06
-5.08468e-06
-4.47612e-06
-3.85376e-06
-3.28111e-06
-2.79196e-06
-2.39525e-06
-2.08837e-06
-1.86059e-06
-1.69795e-06
-1.58492e-06
-1.50547e-06
-1.44353e-06
-1.38289e-06
-1.30691e-06
-1.20019e-06
-1.04907e-06
-8.45251e-07
-5.91331e-07
-3.07893e-07
-3.00373e-08
2.00199e-07
3.43256e-07
4.61944e-07
6.4799e-07
9.69044e-07
1.46086e-06
2.13268e-06
2.98293e-06
4.01458e-06
5.23091e-06
6.58813e-06
8.05707e-06
9.60279e-06
1.11669e-05
1.26788e-05
1.4053e-05
1.51851e-05
1.59483e-05
1.61869e-05
1.57142e-05
1.43313e-05
1.18654e-05
8.32281e-06
4.04219e-06
-5.25332e-06
-4.85863e-06
-4.35009e-06
-3.81162e-06
-3.28779e-06
-2.82009e-06
-2.43034e-06
-2.12197e-06
-1.88895e-06
-1.72006e-06
-1.601e-06
-1.51638e-06
-1.45039e-06
-1.38681e-06
-1.30898e-06
-1.2015e-06
-1.05074e-06
-8.48188e-07
-5.95967e-07
-3.1337e-07
-3.27617e-08
2.07495e-07
3.6846e-07
5.08123e-07
7.1233e-07
1.04689e-06
1.54666e-06
2.21832e-06
3.0539e-06
4.07463e-06
5.25995e-06
6.56642e-06
7.96424e-06
9.41285e-06
1.08491e-05
1.21973e-05
1.3368e-05
1.42569e-05
1.47436e-05
1.46957e-05
1.39784e-05
1.24825e-05
1.01655e-05
7.13323e-06
3.68756e-06
-4.97646e-06
-4.6509e-06
-4.22975e-06
-3.76191e-06
-3.29514e-06
-2.85906e-06
-2.48079e-06
-2.17221e-06
-1.93332e-06
-1.75609e-06
-1.62803e-06
-1.53501e-06
-1.46192e-06
-1.3928e-06
-1.31102e-06
-1.20127e-06
-1.04999e-06
-8.48343e-07
-5.97945e-07
-3.16588e-07
-3.35911e-08
2.16858e-07
3.96647e-07
5.5846e-07
7.81409e-07
1.1295e-06
1.6362e-06
2.30003e-06
3.12534e-06
4.12871e-06
5.27062e-06
6.51484e-06
7.82843e-06
9.16422e-06
1.04559e-05
1.16253e-05
1.25835e-05
1.32321e-05
1.34668e-05
1.31873e-05
1.23117e-05
1.08012e-05
8.68828e-06
6.10773e-06
3.29763e-06
-4.71619e-06
-4.44594e-06
-4.09918e-06
-3.70225e-06
-3.2896e-06
-2.89473e-06
-2.53619e-06
-2.23192e-06
-1.98948e-06
-1.804e-06
-1.6652e-06
-1.5611e-06
-1.47806e-06
-1.4007e-06
-1.31269e-06
-1.19897e-06
-1.04612e-06
-8.44966e-07
-5.96539e-07
-3.16927e-07
-3.20997e-08
2.28445e-07
4.27678e-07
6.12539e-07
8.54096e-07
1.2155e-06
1.72292e-06
2.37915e-06
3.19676e-06
4.16654e-06
5.25337e-06
6.42387e-06
7.63915e-06
8.8468e-06
9.97946e-06
1.09601e-05
1.17049e-05
1.21274e-05
1.21456e-05
1.16927e-05
1.07313e-05
9.26911e-06
7.37183e-06
5.16797e-06
2.83545e-06
-4.462e-06
-4.23664e-06
-3.95153e-06
-3.62022e-06
-3.26491e-06
-2.91232e-06
-2.5823e-06
-2.28915e-06
-2.04869e-06
-1.85776e-06
-1.70827e-06
-1.59178e-06
-1.49682e-06
-1.40905e-06
-1.31281e-06
-1.19354e-06
-1.03817e-06
-8.37223e-07
-5.91096e-07
-3.13977e-07
-2.81767e-08
2.41992e-07
4.6076e-07
6.692e-07
9.28551e-07
1.29996e-06
1.8053e-06
2.45765e-06
3.25359e-06
4.1762e-06
5.19778e-06
6.28203e-06
7.38434e-06
8.44992e-06
9.4129e-06
1.02011e-05
1.07403e-05
1.09602e-05
1.08026e-05
1.02307e-05
9.23892e-06
7.8603e-06
6.16882e-06
4.27367e-06
2.30458e-06
-4.20666e-06
-4.01854e-06
-3.78427e-06
-3.51043e-06
-3.21047e-06
-2.90298e-06
-2.605e-06
-2.33116e-06
-2.10005e-06
-1.90814e-06
-1.74975e-06
-1.62137e-06
-1.51404e-06
-1.41482e-06
-1.30915e-06
-1.18337e-06
-1.02498e-06
-8.24335e-07
-5.81232e-07
-3.07806e-07
-2.24731e-08
2.56387e-07
4.9404e-07
7.25393e-07
1.0024e-06
1.37661e-06
1.88361e-06
2.52168e-06
3.28089e-06
4.14735e-06
5.09213e-06
6.07574e-06
7.05089e-06
7.96324e-06
8.75052e-06
9.34966e-06
9.69877e-06
9.74533e-06
9.45311e-06
8.80849e-06
7.82533e-06
6.54674e-06
5.04211e-06
3.39885e-06
1.71085e-06
-3.94308e-06
-3.78666e-06
-3.5946e-06
-3.36969e-06
-3.11947e-06
-2.85588e-06
-2.59326e-06
-2.34761e-06
-2.13095e-06
-1.94164e-06
-1.77911e-06
-1.64202e-06
-1.52388e-06
-1.41377e-06
-1.29879e-06
-1.16657e-06
-1.00548e-06
-8.05972e-07
-5.67234e-07
-2.99227e-07
-1.65886e-08
2.68728e-07
5.24815e-07
7.73646e-07
1.06777e-06
1.44569e-06
1.9429e-06
2.55476e-06
3.26832e-06
4.06721e-06
4.92121e-06
5.7897e-06
6.62534e-06
7.37776e-06
7.98895e-06
8.40906e-06
8.58933e-06
8.49423e-06
8.10534e-06
7.4245e-06
6.47524e-06
5.30134e-06
3.9623e-06
2.52578e-06
1.05992e-06
-3.66366e-06
-3.53502e-06
-3.37875e-06
-3.19572e-06
-2.98999e-06
-2.76979e-06
-2.54531e-06
-2.32877e-06
-2.12849e-06
-1.94745e-06
-1.78676e-06
-1.64579e-06
-1.52018e-06
-1.4015e-06
-1.27894e-06
-1.14176e-06
-9.7947e-07
-7.82961e-07
-5.50873e-07
-2.90857e-07
-1.30321e-08
2.74807e-07
5.4471e-07
8.0873e-07
1.11351e-06
1.49171e-06
1.9699e-06
2.54427e-06
3.2003e-06
3.91813e-06
4.66728e-06
5.40808e-06
6.095e-06
6.68195e-06
7.12715e-06
7.38425e-06
7.42043e-06
7.21493e-06
6.76197e-06
6.07213e-06
5.17186e-06
4.10069e-06
2.90702e-06
1.64228e-06
3.5617e-07
-3.36036e-06
-3.25689e-06
-3.13191e-06
-2.98547e-06
-2.81963e-06
-2.63946e-06
-2.45213e-06
-2.26548e-06
-2.08617e-06
-1.91882e-06
-1.76556e-06
-1.62621e-06
-1.49792e-06
-1.37468e-06
-1.248e-06
-1.10895e-06
-9.48413e-07
-7.5805e-07
-5.36041e-07
-2.87388e-07
-1.80103e-08
2.66299e-07
5.43864e-07
8.19684e-07
1.12764e-06
1.49705e-06
1.94615e-06
2.47117e-06
3.05657e-06
3.68019e-06
4.31221e-06
4.91698e-06
5.45184e-06
5.88211e-06
6.16959e-06
6.28287e-06
6.20105e-06
5.91393e-06
5.4235e-06
4.74407e-06
3.90084e-06
2.92715e-06
1.86102e-06
7.41114e-07
-3.96119e-07
-3.02443e-06
-2.94467e-06
-2.84803e-06
-2.7343e-06
-2.60431e-06
-2.46097e-06
-2.30885e-06
-2.1532e-06
-1.99909e-06
-1.85076e-06
-1.71064e-06
-1.57907e-06
-1.45426e-06
-1.33215e-06
-1.20662e-06
-1.07058e-06
-9.16289e-07
-7.36565e-07
-5.29419e-07
-2.97186e-07
-4.19901e-08
2.3175e-07
5.10912e-07
7.89613e-07
1.09209e-06
1.4415e-06
1.84992e-06
2.31309e-06
2.81506e-06
3.33328e-06
3.83993e-06
4.30242e-06
4.69322e-06
4.97558e-06
5.12292e-06
5.11566e-06
4.94192e-06
4.59857e-06
4.09167e-06
3.43597e-06
2.65337e-06
1.77062e-06
8.16895e-07
-1.79021e-07
-1.19027e-06
-2.64586e-06
-2.5897e-06
-2.52012e-06
-2.4369e-06
-2.34023e-06
-2.23168e-06
-2.114e-06
-1.99069e-06
-1.86535e-06
-1.74117e-06
-1.62019e-06
-1.50315e-06
-1.38924e-06
-1.27579e-06
-1.15859e-06
-1.03225e-06
-8.90552e-07
-7.27708e-07
-5.41373e-07
-3.31829e-07
-9.87448e-08
1.58135e-07
4.26829e-07
6.97646e-07
9.84137e-07
1.30156e-06
1.65706e-06
2.04634e-06
2.45437e-06
2.86089e-06
3.24169e-06
3.57137e-06
3.82257e-06
3.97152e-06
4.00048e-06
3.89736e-06
3.65641e-06
3.27866e-06
2.77166e-06
2.14872e-06
1.42768e-06
6.29262e-07
-2.24651e-07
-1.11275e-06
-2.01522e-06
-2.21328e-06
-2.18242e-06
-2.14068e-06
-2.08796e-06
-2.02424e-06
-1.9503e-06
-1.86777e-06
-1.77889e-06
-1.68606e-06
-1.59143e-06
-1.49661e-06
-1.40193e-06
-1.3069e-06
-1.21077e-06
-1.11126e-06
-1.00363e-06
-8.82831e-07
-7.44661e-07
-5.86479e-07
-4.06971e-07
-2.04198e-07
2.46249e-08
2.70005e-07
5.19398e-07
7.77081e-07
1.05079e-06
1.34231e-06
1.64804e-06
1.95798e-06
2.25483e-06
2.51624e-06
2.71969e-06
2.84741e-06
2.88457e-06
2.81961e-06
2.64545e-06
2.36016e-06
1.9667e-06
1.47247e-06
8.88522e-07
2.28743e-07
-4.91332e-07
-1.25557e-06
-2.04832e-06
-2.85499e-06
-1.71655e-06
-1.71459e-06
-1.70367e-06
-1.68385e-06
-1.65511e-06
-1.61787e-06
-1.57309e-06
-1.52202e-06
-1.46631e-06
-1.40721e-06
-1.34572e-06
-1.28351e-06
-1.21843e-06
-1.14921e-06
-1.07721e-06
-9.98597e-07
-9.08656e-07
-8.04478e-07
-6.83435e-07
-5.43285e-07
-3.81094e-07
-1.92274e-07
1.61591e-08
2.29535e-07
4.44639e-07
6.62081e-07
8.80502e-07
1.10239e-06
1.31886e-06
1.51151e-06
1.66091e-06
1.75463e-06
1.7818e-06
1.73234e-06
1.59884e-06
1.37766e-06
1.0689e-06
6.75951e-07
2.05134e-07
-3.34895e-07
-9.3376e-07
-1.5801e-06
-2.26224e-06
-2.96881e-06
-3.68906e-06
-1.15428e-06
-1.18661e-06
-1.21138e-06
-1.22887e-06
-1.23928e-06
-1.2429e-06
-1.24018e-06
-1.23222e-06
-1.21904e-06
-1.20283e-06
-1.18436e-06
-1.15918e-06
-1.13301e-06
-1.10821e-06
-1.07726e-06
-1.03765e-06
-9.88952e-07
-9.292e-07
-8.55559e-07
-7.65023e-07
-6.54136e-07
-5.18507e-07
-3.62225e-07
-1.97586e-07
-3.49266e-08
1.17691e-07
2.60784e-07
4.03171e-07
5.32704e-07
6.29171e-07
6.84465e-07
6.92347e-07
6.44706e-07
5.34313e-07
3.56849e-07
1.10875e-07
-2.02723e-07
-5.80991e-07
-1.01908e-06
-1.5106e-06
-2.04806e-06
-2.62337e-06
-3.22823e-06
-3.8545e-06
-4.49436e-06
-5.2581e-07
-6.01162e-07
-6.69748e-07
-7.32155e-07
-7.88834e-07
-8.40184e-07
-8.86536e-07
-9.28434e-07
-9.66161e-07
-1.00051e-06
-1.03179e-06
-1.05923e-06
-1.08651e-06
-1.11284e-06
-1.1317e-06
-1.14289e-06
-1.14749e-06
-1.14354e-06
-1.12788e-06
-1.09733e-06
-1.04859e-06
-9.78543e-07
-8.89124e-07
-7.88572e-07
-6.86753e-07
-5.83596e-07
-5.14644e-07
-4.43445e-07
-3.93881e-07
-3.74997e-07
-3.89063e-07
-4.413e-07
-5.38296e-07
-6.84762e-07
-8.82946e-07
-1.13336e-06
-1.43521e-06
-1.78636e-06
-2.1834e-06
-2.62186e-06
-3.09652e-06
-3.60178e-06
-4.13188e-06
-4.68107e-06
-5.24374e-06
1.7448e-07
4.41061e-08
-8.06668e-08
-2.00074e-07
-3.14612e-07
-4.24783e-07
-5.30977e-07
-6.33563e-07
-7.32858e-07
-8.29248e-07
-9.23095e-07
-1.01434e-06
-1.10291e-06
-1.18796e-06
-1.26802e-06
-1.34287e-06
-1.41196e-06
-1.4731e-06
-1.52373e-06
-1.56084e-06
-1.58237e-06
-1.58617e-06
-1.57085e-06
-1.54824e-06
-1.52647e-06
-1.50248e-06
-1.45136e-06
-1.43002e-06
-1.43899e-06
-1.47195e-06
-1.52937e-06
-1.61642e-06
-1.73799e-06
-1.89681e-06
-2.09419e-06
-2.33064e-06
-2.60589e-06
-2.91869e-06
-3.26686e-06
-3.64749e-06
-4.05717e-06
-4.49219e-06
-4.94866e-06
-5.42266e-06
-5.91021e-06
8.10768e-07
6.20562e-07
4.35674e-07
2.55664e-07
7.99216e-08
-9.20769e-08
-2.60697e-07
-4.26188e-07
-5.8872e-07
-7.48387e-07
-9.05205e-07
-1.05895e-06
-1.20941e-06
-1.35645e-06
-1.49945e-06
-1.63738e-06
-1.76878e-06
-1.89201e-06
-2.005e-06
-2.10552e-06
-2.19205e-06
-2.26219e-06
-2.31368e-06
-2.35142e-06
-2.37165e-06
-2.38502e-06
-2.39613e-06
-2.42426e-06
-2.46978e-06
-2.53058e-06
-2.60896e-06
-2.70892e-06
-2.83362e-06
-2.98522e-06
-3.16527e-06
-3.37468e-06
-3.61362e-06
-3.88151e-06
-4.17714e-06
-4.49884e-06
-4.84454e-06
-5.21193e-06
-5.59851e-06
-6.00165e-06
-6.41869e-06
1.32962e-06
1.08217e-06
8.39672e-07
6.01826e-07
3.68162e-07
1.38275e-07
-8.80773e-08
-3.10999e-07
-5.30501e-07
-7.46537e-07
-9.59016e-07
-1.16778e-06
-1.3726e-06
-1.57305e-06
-1.76837e-06
-1.95739e-06
-2.13892e-06
-2.31148e-06
-2.47334e-06
-2.62288e-06
-2.75794e-06
-2.87754e-06
-2.978e-06
-3.05551e-06
-3.11592e-06
-3.16245e-06
-3.21137e-06
-3.26618e-06
-3.32808e-06
-3.39969e-06
-3.48411e-06
-3.58399e-06
-3.70166e-06
-3.83917e-06
-3.99814e-06
-4.17959e-06
-4.38393e-06
-4.61109e-06
-4.8606e-06
-5.13163e-06
-5.42306e-06
-5.7335e-06
-6.06144e-06
-6.40519e-06
-6.76306e-06
1.70241e-06
1.40575e-06
1.11409e-06
8.27289e-07
5.45035e-07
2.67106e-07
-6.58463e-09
-2.76003e-07
-5.41052e-07
-8.01585e-07
-1.05742e-06
-1.30828e-06
-1.55375e-06
-1.79326e-06
-2.026e-06
-2.25101e-06
-2.46717e-06
-2.67311e-06
-2.86738e-06
-3.04837e-06
-3.21444e-06
-3.365e-06
-3.49386e-06
-3.5958e-06
-3.67793e-06
-3.74934e-06
-3.81641e-06
-3.88172e-06
-3.94927e-06
-4.02301e-06
-4.10578e-06
-4.1998e-06
-4.30727e-06
-4.43014e-06
-4.56994e-06
-4.72773e-06
-4.90413e-06
-5.09947e-06
-5.31374e-06
-5.5467e-06
-5.79779e-06
-6.06628e-06
-6.35124e-06
-6.6516e-06
-6.96623e-06
1.96504e-06
1.6276e-06
1.29557e-06
9.68896e-07
6.47469e-07
3.31243e-07
2.02912e-08
-2.85223e-07
-5.85086e-07
-8.79044e-07
-1.16679e-06
-1.44795e-06
-1.72201e-06
-1.98835e-06
-2.24623e-06
-2.49473e-06
-2.73284e-06
-2.95934e-06
-3.173e-06
-3.37246e-06
-3.55649e-06
-3.7242e-06
-3.86862e-06
-3.98647e-06
-4.08433e-06
-4.16882e-06
-4.24433e-06
-4.31538e-06
-4.38641e-06
-4.46083e-06
-4.54127e-06
-4.63001e-06
-4.72918e-06
-4.84059e-06
-4.96572e-06
-5.10571e-06
-5.26143e-06
-5.43348e-06
-5.6222e-06
-5.82769e-06
-6.04983e-06
-6.28829e-06
-6.54258e-06
-6.81208e-06
-7.09607e-06
2.14522e-06
1.77518e-06
1.41113e-06
1.05315e-06
7.0131e-07
3.55725e-07
1.66191e-08
-3.15723e-07
-6.4099e-07
-9.58835e-07
-1.26887e-06
-1.57064e-06
-1.86362e-06
-2.14719e-06
-2.42063e-06
-2.68312e-06
-2.93377e-06
-3.17157e-06
-3.39552e-06
-3.60455e-06
-3.79771e-06
-3.97396e-06
-4.12726e-06
-4.2551e-06
-4.36221e-06
-4.45389e-06
-4.53529e-06
-4.61104e-06
-4.68485e-06
-4.7598e-06
-4.83853e-06
-4.9234e-06
-5.01646e-06
-5.11947e-06
-5.23397e-06
-5.36121e-06
-5.50224e-06
-5.65784e-06
-5.8286e-06
-6.01489e-06
-6.21688e-06
-6.43455e-06
-6.66774e-06
-6.91615e-06
-7.17938e-06
2.26734e-06
1.87176e-06
1.48287e-06
1.10089e-06
7.26024e-07
3.5854e-07
-1.21893e-09
-3.52875e-07
-6.96039e-07
-1.0303e-06
-1.35521e-06
-1.67029e-06
-1.975e-06
-2.26875e-06
-2.5509e-06
-2.82072e-06
-3.0775e-06
-3.3204e-06
-3.54869e-06
-3.76155e-06
-3.95836e-06
-4.1384e-06
-4.29609e-06
-4.4293e-06
-4.54177e-06
-4.63873e-06
-4.72493e-06
-4.80434e-06
-4.88037e-06
-4.95603e-06
-5.03397e-06
-5.11649e-06
-5.20562e-06
-5.30315e-06
-5.41065e-06
-5.52948e-06
-5.6608e-06
-5.80554e-06
-5.96446e-06
-6.13813e-06
-6.32694e-06
-6.5311e-06
-6.75071e-06
-6.9857e-06
-7.23591e-06
2.3491e-06
1.93378e-06
1.52591e-06
1.12581e-06
7.33806e-07
3.50297e-07
-2.42874e-08
-3.89499e-07
-7.44893e-07
-1.09001e-06
-1.42439e-06
-1.74754e-06
-2.05894e-06
-2.35804e-06
-2.6443e-06
-2.9171e-06
-3.17588e-06
-3.42001e-06
-3.64898e-06
-3.86224e-06
-4.05945e-06
-4.24047e-06
-4.39961e-06
-4.53544e-06
-4.65146e-06
-4.75232e-06
-4.84209e-06
-4.9244e-06
-5.0025e-06
-5.07931e-06
-5.15737e-06
-5.23894e-06
-5.32604e-06
-5.42048e-06
-5.52387e-06
-5.63764e-06
-5.76303e-06
-5.90109e-06
-6.05271e-06
-6.21863e-06
-6.39939e-06
-6.59542e-06
-6.80697e-06
-7.03417e-06
-7.27706e-06
2.40307e-06
1.97253e-06
1.55019e-06
1.13647e-06
7.318e-07
3.36659e-07
-4.84477e-08
-4.23026e-07
-7.86596e-07
-1.13868e-06
-1.47879e-06
-1.80647e-06
-2.12121e-06
-2.42255e-06
-2.71e-06
-2.98309e-06
-3.24139e-06
-3.48445e-06
-3.71198e-06
-3.92365e-06
-4.11947e-06
-4.29974e-06
-4.45824e-06
-4.59526e-06
-4.71359e-06
-4.81718e-06
-4.90964e-06
-4.99439e-06
-5.0745e-06
-5.15273e-06
-5.23152e-06
-5.3131e-06
-5.39947e-06
-5.49247e-06
-5.59373e-06
-5.70473e-06
-5.82679e-06
-5.96107e-06
-6.10856e-06
-6.27011e-06
-6.44644e-06
-6.63808e-06
-6.84545e-06
-7.06882e-06
-7.30836e-06
2.4378e-06
1.99543e-06
1.56198e-06
1.13794e-06
7.2384e-07
3.2022e-07
-7.23661e-08
-4.53393e-07
-8.22357e-07
-1.17877e-06
-1.52215e-06
-1.85205e-06
-2.16802e-06
-2.46965e-06
-2.75655e-06
-3.02834e-06
-3.28474e-06
-3.52545e-06
-3.75035e-06
-3.95928e-06
-4.15249e-06
-4.33044e-06
-4.48769e-06
-4.62501e-06
-4.74471e-06
-4.85012e-06
-4.94461e-06
-5.03136e-06
-5.11327e-06
-5.19293e-06
-5.27273e-06
-5.35484e-06
-5.44125e-06
-5.53379e-06
-5.63415e-06
-5.74385e-06
-5.86428e-06
-5.99666e-06
-6.14211e-06
-6.30157e-06
-6.47585e-06
-6.66562e-06
-6.8714e-06
-7.09357e-06
-7.3324e-06
2.45905e-06
2.00732e-06
1.56518e-06
1.1332e-06
7.11951e-07
3.02055e-07
-9.59134e-08
-4.81405e-07
-8.53903e-07
-1.21291e-06
-1.55797e-06
-1.88865e-06
-2.20456e-06
-2.50533e-06
-2.79067e-06
-3.06029e-06
-3.31403e-06
-3.55172e-06
-3.77338e-06
-3.97897e-06
-4.16878e-06
-4.34206e-06
-4.49924e-06
-4.63625e-06
-4.75656e-06
-4.8631e-06
-4.959e-06
-5.0473e-06
-5.13068e-06
-5.21163e-06
-5.29244e-06
-5.37526e-06
-5.46205e-06
-5.55468e-06
-5.65483e-06
-5.76408e-06
-5.88389e-06
-6.01555e-06
-6.16024e-06
-6.31901e-06
-6.49274e-06
-6.6822e-06
-6.88801e-06
-7.11062e-06
-7.35042e-06
2.47081e-06
2.01149e-06
1.56239e-06
1.12412e-06
6.9734e-07
2.82685e-07
-1.19241e-07
-5.07874e-07
-8.82688e-07
-1.24319e-06
-1.58895e-06
-1.91954e-06
-2.23463e-06
-2.53391e-06
-2.81716e-06
-3.08419e-06
-3.33492e-06
-3.5693e-06
-3.78748e-06
-3.98954e-06
-4.17594e-06
-4.34649e-06
-4.50088e-06
-4.6368e-06
-4.75716e-06
-4.86424e-06
-4.96104e-06
-5.05042e-06
-5.13491e-06
-5.21688e-06
-5.29857e-06
-5.38206e-06
-5.46933e-06
-5.56223e-06
-5.6625e-06
-5.77174e-06
-5.89146e-06
-6.02303e-06
-6.16769e-06
-6.32656e-06
-6.5006e-06
-6.69067e-06
-6.89744e-06
-7.12146e-06
-7.36316e-06
2.47591e-06
2.01028e-06
1.55545e-06
1.11208e-06
6.80873e-07
2.62496e-07
-1.42433e-07
-5.33338e-07
-9.0969e-07
-1.27101e-06
-1.61686e-06
-1.94689e-06
-2.26077e-06
-2.55826e-06
-2.83919e-06
-3.10347e-06
-3.3511e-06
-3.58213e-06
-3.7968e-06
-3.99533e-06
-4.17834e-06
-4.34599e-06
-4.49744e-06
-4.63177e-06
-4.75179e-06
-4.85894e-06
-4.95619e-06
-5.04624e-06
-5.13148e-06
-5.21417e-06
-5.2965e-06
-5.38051e-06
-5.46818e-06
-5.56137e-06
-5.66184e-06
-5.77123e-06
-5.8911e-06
-6.02286e-06
-6.16784e-06
-6.3272e-06
-6.50199e-06
-6.69312e-06
-6.90133e-06
-7.12723e-06
-7.3713e-06
2.47639e-06
2.0054e-06
1.54573e-06
1.0981e-06
6.63252e-07
2.41864e-07
-1.65429e-07
-5.58042e-07
-9.35448e-07
-1.29717e-06
-1.64281e-06
-1.97201e-06
-2.28451e-06
-2.58011e-06
-2.8587e-06
-3.12025e-06
-3.36484e-06
-3.59261e-06
-3.80389e-06
-3.99899e-06
-4.17868e-06
-4.34329e-06
-4.49187e-06
-4.62436e-06
-4.74377e-06
-4.85065e-06
-4.94798e-06
-5.03835e-06
-5.124e-06
-5.20712e-06
-5.28983e-06
-5.37417e-06
-5.4621e-06
-5.55547e-06
-5.65608e-06
-5.76562e-06
-5.88567e-06
-6.01772e-06
-6.16312e-06
-6.32312e-06
-6.49882e-06
-6.69117e-06
-6.901e-06
-7.12895e-06
-7.37554e-06
2.47379e-06
1.99813e-06
1.53428e-06
1.08301e-06
6.45068e-07
2.21161e-07
-1.88066e-07
-5.82023e-07
-9.60186e-07
-1.32209e-06
-1.66734e-06
-1.99563e-06
-2.30672e-06
-2.60046e-06
-2.87678e-06
-3.13572e-06
-3.37743e-06
-3.60211e-06
-3.81019e-06
-4.00204e-06
-4.17854e-06
-4.34013e-06
-4.4858e-06
-4.61662e-06
-4.73508e-06
-4.84147e-06
-4.93859e-06
-5.02898e-06
-5.11476e-06
-5.19805e-06
-5.28092e-06
-5.36538e-06
-5.45337e-06
-5.54679e-06
-5.64744e-06
-5.75704e-06
-5.87721e-06
-6.0095e-06
-6.15532e-06
-6.31594e-06
-6.49254e-06
-6.68612e-06
-6.89755e-06
-7.12751e-06
-7.37658e-06
2.4692e-06
1.98942e-06
1.5219e-06
1.06744e-06
6.26816e-07
2.00742e-07
-2.10123e-07
-6.05188e-07
-9.83929e-07
-1.34589e-06
-1.69071e-06
-2.01808e-06
-2.3278e-06
-2.61977e-06
-2.89397e-06
-3.15047e-06
-3.3895e-06
-3.61132e-06
-3.81642e-06
-4.00522e-06
-4.17872e-06
-4.33737e-06
-4.48021e-06
-4.60959e-06
-4.72681e-06
-4.83258e-06
-4.92927e-06
-5.01945e-06
-5.10514e-06
-5.18839e-06
-5.27121e-06
-5.3556e-06
-5.4435e-06
-5.53682e-06
-5.63737e-06
-5.74691e-06
-5.86711e-06
-5.99954e-06
-6.14568e-06
-6.30685e-06
-6.48426e-06
-6.67896e-06
-6.89188e-06
-7.12373e-06
-7.37511e-06
2.46344e-06
1.97999e-06
1.50921e-06
1.05192e-06
6.08928e-07
1.80953e-07
-2.31339e-07
-6.27351e-07
-1.00656e-06
-1.36853e-06
-1.7129e-06
-2.0394e-06
-2.34786e-06
-2.63819e-06
-2.91043e-06
-3.16471e-06
-3.40128e-06
-3.62047e-06
-3.82283e-06
-4.00885e-06
-4.17954e-06
-4.33538e-06
-4.47565e-06
-4.60361e-06
-4.71953e-06
-4.82453e-06
-4.92068e-06
-5.0105e-06
-5.09594e-06
-5.17897e-06
-5.26158e-06
-5.34575e-06
-5.43343e-06
-5.5265e-06
-5.62683e-06
-5.7362e-06
-5.85632e-06
-5.98879e-06
-6.13513e-06
-6.29672e-06
-6.47481e-06
-6.6705e-06
-6.88474e-06
-7.11829e-06
-7.37178e-06
2.4571e-06
1.97037e-06
1.49668e-06
1.03688e-06
5.91778e-07
1.62117e-07
-2.51434e-07
-6.48276e-07
-1.02789e-06
-1.38985e-06
-1.7338e-06
-2.0595e-06
-2.3668e-06
-2.65566e-06
-2.92613e-06
-3.17839e-06
-3.41274e-06
-3.62956e-06
-3.82945e-06
-4.01292e-06
-4.18105e-06
-4.33428e-06
-4.4723e-06
-4.59876e-06
-4.7134e-06
-4.81754e-06
-4.91311e-06
-5.00248e-06
-5.08755e-06
-5.17025e-06
-5.25254e-06
-5.33638e-06
-5.42371e-06
-5.51645e-06
-5.61646e-06
-5.72556e-06
-5.84549e-06
-5.9779e-06
-6.12434e-06
-6.28623e-06
-6.46486e-06
-6.66137e-06
-6.87675e-06
-7.1118e-06
-7.36716e-06
2.45046e-06
1.96076e-06
1.48445e-06
1.02238e-06
5.75388e-07
1.44213e-07
-2.70464e-07
-6.68046e-07
-1.04802e-06
-1.40996e-06
-1.75353e-06
-2.0785e-06
-2.38476e-06
-2.67227e-06
-2.94115e-06
-3.19159e-06
-3.42394e-06
-3.63861e-06
-3.83624e-06
-4.01741e-06
-4.18321e-06
-4.33405e-06
-4.47003e-06
-4.59491e-06
-4.70837e-06
-4.81163e-06
-4.90658e-06
-4.99542e-06
-5.08004e-06
-5.16232e-06
-5.2442e-06
-5.32762e-06
-5.41453e-06
-5.50684e-06
-5.60646e-06
-5.71521e-06
-5.83486e-06
-5.96712e-06
-6.11355e-06
-6.27563e-06
-6.45467e-06
-6.65187e-06
-6.86822e-06
-7.10457e-06
-7.36158e-06
2.44334e-06
1.9508e-06
1.47198e-06
1.00775e-06
5.58949e-07
1.26331e-07
-2.89421e-07
-6.87709e-07
-1.06802e-06
-1.42994e-06
-1.77315e-06
-2.09743e-06
-2.4027e-06
-2.68894e-06
-2.95629e-06
-3.205e-06
-3.43543e-06
-3.64806e-06