/*--------------------------------*- C++ -*----------------------------------*\
| =========                 |                                                 |
| \\      /  F ield         | OpenFOAM: The Open Source CFD Toolbox           |
|  \\    /   O peration     | Version:  2312                                  |
|   \\  /    A nd           | Website:  www.openfoam.com                      |
|    \\/     M anipulation  |                                                 |
\*---------------------------------------------------------------------------*/
FoamFile
{
    version     2.0;
    format      ascii;
    arch        "LSB;label=32;scalar=64";
    class       volVectorField;
    location    "99";
    object      U;
}
// * * * * * * * * * * * * * * * * * * * * * * * * * * * * * * * * * * * * * //

dimensions      [0 1 -1 0 0 0 0];

internalField   nonuniform List<vector> 
4800
(
(0.000459187 2.80326e-07 -1.94153e-26)
(0.000452636 2.63348e-07 -1.33782e-25)
(0.000449368 2.34269e-07 1.72444e-25)
(0.0004482 1.96476e-07 7.61673e-26)
(0.000448506 1.67054e-07 1.10992e-24)
(0.00044965 1.44157e-07 -2.64281e-24)
(0.000451573 8.63158e-08 2.46044e-24)
(0.000454172 -1.0183e-08 -3.55077e-24)
(0.000457526 -1.5358e-07 1.13973e-24)
(0.000461767 -3.85958e-07 3.87666e-24)
(0.000467309 -8.61079e-07 -1.19426e-24)
(0.000475454 -2.21922e-06 -1.00436e-25)
(0.000493486 -7.31214e-06 -1.46257e-24)
(0.000538744 -2.7787e-05 7.061e-25)
(0.000611535 -8.80074e-05 -5.68277e-25)
(0.00142357 1.48112e-06 -6.12466e-26)
(0.00140419 9.28235e-07 7.62734e-26)
(0.00139445 4.90759e-07 -6.80153e-25)
(0.00139086 1.09572e-07 5.10468e-25)
(0.00139152 -2.31027e-07 1.58257e-24)
(0.0013945 -5.37733e-07 -2.52744e-24)
(0.00139982 -9.45811e-07 -7.13176e-25)
(0.00140698 -1.49789e-06 -1.63601e-25)
(0.0014162 -2.27738e-06 5.85952e-24)
(0.00142787 -3.50653e-06 -4.32928e-24)
(0.00144317 -5.846e-06 4.708e-25)
(0.00146483 -1.15027e-05 7.22124e-25)
(0.00150171 -2.80449e-05 -1.07888e-24)
(0.00156375 -7.84157e-05 -3.51784e-25)
(0.00162863 -0.000189644 1.44308e-24)
(0.00249368 4.67187e-06 -4.37013e-26)
(0.00246113 2.90186e-06 4.47487e-26)
(0.00244466 1.53582e-06 4.44548e-25)
(0.00243839 3.61141e-07 -1.04256e-24)
(0.00243912 -6.86728e-07 1.00515e-24)
(0.00244354 -1.70209e-06 9.41587e-25)
(0.00245187 -2.95852e-06 -2.46364e-24)
(0.00246306 -4.55984e-06 -1.51433e-24)
(0.00247733 -6.79247e-06 3.63171e-24)
(0.00249516 -1.02441e-05 1.37082e-24)
(0.00251785 -1.63837e-05 -4.77223e-24)
(0.00254755 -2.91042e-05 -7.37349e-25)
(0.00258835 -5.76932e-05 2.04507e-24)
(0.00263869 -0.000120782 3.27551e-24)
(0.00267388 -0.000223885 -1.6985e-24)
(0.00367608 1.02884e-05 1.61236e-26)
(0.00363028 6.43696e-06 -1.11035e-25)
(0.00360687 3.48167e-06 4.86998e-25)
(0.00359754 9.30565e-07 4.9794e-25)
(0.00359795 -1.23649e-06 -5.02395e-25)
(0.00360325 -3.39699e-06 -2.86248e-24)
(0.00361393 -6.02808e-06 -1.95215e-24)
(0.00362827 -9.25636e-06 7.36275e-24)
(0.00364629 -1.36482e-05 3.03671e-24)
(0.00366825 -2.01739e-05 -4.36689e-24)
(0.00369487 -3.08729e-05 -1.76117e-24)
(0.00372662 -5.01349e-05 -1.34942e-24)
(0.00376282 -8.56394e-05 3.98344e-26)
(0.00379642 -0.000146799 1.00211e-24)
(0.00380995 -0.000227682 4.88799e-27)
(0.00497498 1.87788e-05 -2.9572e-26)
(0.00491635 1.18185e-05 -1.77939e-25)
(0.00488604 6.50614e-06 -1.062e-25)
(0.00487333 2.00064e-06 3.01345e-25)
(0.00487289 -1.93376e-06 -8.19228e-25)
(0.00487852 -5.6087e-06 2.03522e-24)
(0.00489065 -1.01172e-05 -3.64519e-25)
(0.00490698 -1.54602e-05 1.26331e-24)
(0.00492713 -2.2464e-05 -7.0298e-24)
(0.00495089 -3.23463e-05 1.33406e-23)
(0.00497805 -4.71899e-05 -1.29174e-23)
(0.00500748 -7.05577e-05 6.82352e-24)
(0.00503603 -0.000107014 -6.32717e-24)
(0.00505637 -0.000159294 5.9503e-24)
(0.00505886 -0.000219572 -2.36335e-24)
(0.00639054 3.06435e-05 3.90846e-26)
(0.00632054 1.94123e-05 1.37253e-25)
(0.00628389 1.0886e-05 -7.182e-25)
(0.00626784 3.7012e-06 -4.36035e-25)
(0.00626595 -2.49669e-06 1.18438e-24)
(0.00627151 -8.21568e-06 4.16457e-25)
(0.00628419 -1.50322e-05 -3.28025e-24)
(0.00630122 -2.28348e-05 7.82684e-24)
(0.00632184 -3.26242e-05 -1.01635e-23)
(0.00634524 -4.56404e-05 2.44055e-24)
(0.00637035 -6.35567e-05 7.40096e-24)
(0.00639517 -8.85146e-05 -1.02637e-23)
(0.0064162 -0.000122235 5.14911e-24)
(0.00642812 -0.000164075 5.19599e-24)
(0.00642676 -0.000207878 -3.94757e-24)
(0.00791683 4.61991e-05 3.23174e-26)
(0.00783867 2.94885e-05 -1.88903e-25)
(0.00779726 1.68492e-05 6.6516e-25)
(0.00777856 6.29003e-06 -9.12885e-25)
(0.00777499 -2.68536e-06 -3.03246e-24)
(0.0077804 -1.11352e-05 5.17063e-24)
(0.00779281 -2.04721e-05 -3.11499e-24)
(0.00780947 -3.09004e-05 1.05531e-23)
(0.00782916 -4.33789e-05 -7.18521e-24)
(0.00785059 -5.89466e-05 -3.34571e-24)
(0.00787219 -7.86511e-05 -6.54231e-24)
(0.00789181 -0.000103316 6.03568e-24)
(0.00790671 -0.000132868 1.68889e-24)
(0.00791383 -0.000165542 1.41466e-24)
(0.00791203 -0.000197322 -1.2437e-24)
(0.00953982 6.52311e-05 -4.63878e-26)
(0.00945922 4.19752e-05 6.23028e-25)
(0.00941623 2.43876e-05 -1.43428e-24)
(0.00939666 9.83472e-06 -1.1323e-24)
(0.00939231 -2.55876e-06 4.52105e-25)
(0.00939753 -1.404e-05 8.4579e-25)
(0.0094094 -2.61155e-05 2.96643e-24)
(0.00942513 -3.91772e-05 -8.03046e-24)
(0.00944311 -5.40277e-05 -4.23158e-24)
(0.00946179 -7.13915e-05 1.17535e-23)
(0.00947951 -9.17142e-05 -3.59478e-24)
(0.00949446 -0.000114946 1.22825e-23)
(0.00950493 -0.00014025 -6.46059e-24)
(0.00950942 -0.000165912 -2.01756e-24)
(0.00950828 -0.000189562 1.18826e-24)
(0.0112368 8.65258e-05 -6.0353e-27)
(0.0111624 5.61114e-05 3.42554e-25)
(0.011123 3.29901e-05 -4.86155e-25)
(0.0111058 1.39937e-05 1.13299e-24)
(0.0111026 -2.21984e-06 -6.68194e-24)
(0.0111086 -1.70101e-05 7.0368e-24)
(0.0111204 -3.18834e-05 -1.09407e-23)
(0.0111353 -4.73969e-05 6.75637e-24)
(0.0111515 -6.41585e-05 4.98015e-24)
(0.0111676 -8.25704e-05 1.06776e-23)
(0.011182 -0.000102652 -1.39337e-23)
(0.0111935 -0.000123953 -2.50394e-24)
(0.0112012 -0.00014554 1.23618e-24)
(0.0112044 -0.000166167 8.22278e-24)
(0.0112042 -0.00018453 -3.31602e-24)
(0.01298 0.000107411 3.14807e-26)
(0.0129224 7.00493e-05 -1.40805e-25)
(0.0128934 4.13127e-05 6.29156e-25)
(0.0128828 1.77377e-05 -2.17851e-24)
(0.012884 -2.40073e-06 3.27376e-24)
(0.0128925 -2.05429e-05 -4.1774e-24)
(0.0129054 -3.81041e-05 6.94012e-24)
(0.0129204 -5.57431e-05 1.1709e-24)
(0.0129358 -7.3899e-05 -9.45617e-24)
(0.0129501 -9.27377e-05 1.33189e-23)
(0.0129625 -0.000112075 -1.46383e-23)
(0.012972 -0.000131403 -4.18194e-24)
(0.0129785 -0.000149992 7.48699e-24)
(0.0129816 -0.000167083 2.17214e-24)
(0.0129825 -0.000182023 -9.41023e-25)
(0.0147471 0.000123863 1.07417e-25)
(0.0147151 8.07572e-05 -1.0569e-24)
(0.0147027 4.70132e-05 -1.72736e-24)
(0.0147032 1.91838e-05 4.09571e-24)
(0.0147118 -4.61351e-06 1.7862e-24)
(0.0147252 -2.58303e-05 -1.12127e-23)
(0.0147411 -4.57541e-05 3.49574e-24)
(0.0147575 -6.5067e-05 2.49702e-24)
(0.0147733 -8.41005e-05 -1.04295e-23)
(0.0147874 -0.000102907 1.09764e-23)
(0.0147993 -0.00012128 -8.48072e-24)
(0.0148085 -0.000138837 2.19268e-23)
(0.0148151 -0.000155122 -1.03871e-23)
(0.0148191 -0.000169749 6.04197e-24)
(0.0148216 -0.000182445 -1.63068e-24)
(0.0165366 0.000132074 -1.41913e-26)
(0.0165316 8.49514e-05 6.56881e-25)
(0.0165377 4.73244e-05 -1.37304e-24)
(0.016551 1.59778e-05 -7.01264e-25)
(0.0165686 -1.08672e-05 7.81819e-24)
(0.0165882 -3.45931e-05 -1.18322e-24)
(0.0166081 -5.63509e-05 -1.3718e-23)
(0.0166271 -7.67989e-05 1.58702e-23)
(0.0166445 -9.62272e-05 -3.60649e-24)
(0.0166596 -0.000114684 -1.21072e-23)
(0.0166723 -0.000132046 1.27809e-23)
(0.0166823 -0.000148111 6.66429e-24)
(0.0166902 -0.000162664 -5.82086e-24)
(0.0166958 -0.00017557 -9.70293e-24)
(0.0167002 -0.00018677 8.02908e-25)
(0.0183732 0.000131364 -2.94131e-26)
(0.0183869 8.14009e-05 -6.5477e-25)
(0.0184065 4.08603e-05 3.50366e-24)
(0.0184295 6.75994e-06 2.72193e-25)
(0.018454 -2.2436e-05 2.06824e-24)
(0.0184784 -4.80272e-05 -7.40515e-24)
(0.0185015 -7.10475e-05 6.26104e-24)
(0.0185227 -9.21267e-05 1.35715e-24)
(0.0185415 -0.000111572 1.25475e-23)
(0.0185578 -0.000129497 -1.95844e-23)
(0.0185716 -0.000145904 -8.68882e-24)
(0.0185829 -0.000160758 -5.56014e-24)
(0.0185922 -0.000174025 1.06267e-23)
(0.0185995 -0.000185721 -2.85079e-25)
(0.0186058 -0.000195904 9.98991e-25)
(0.0202862 0.000125335 -3.11493e-26)
(0.020306 7.26487e-05 5.34389e-25)
(0.0203297 2.94706e-05 -7.94931e-25)
(0.0203553 -6.99906e-06 -1.42124e-26)
(0.0203815 -3.81306e-05 1.41498e-24)
(0.0204066 -6.51732e-05 3.63699e-24)
(0.0204299 -8.90944e-05 -1.407e-23)
(0.020451 -0.000110525 1.24136e-24)
(0.0204696 -0.000129835 7.12914e-24)
(0.0204858 -0.000147237 -3.1845e-24)
(0.0204997 -0.000162864 8.7415e-24)
(0.0205114 -0.000176812 5.94534e-24)
(0.0205214 -0.000189171 -1.08542e-23)
(0.0205296 -0.000200046 7.23972e-24)
(0.0205369 -0.000209559 -6.00625e-24)
(0.0222679 0.000118543 -7.80219e-25)
(0.0222858 6.30556e-05 9.29112e-25)
(0.0223066 1.71301e-05 7.02012e-25)
(0.0223291 -2.15528e-05 -5.4079e-24)
(0.0223519 -5.44177e-05 4.90144e-24)
(0.0223738 -8.27358e-05 -3.9274e-24)
(0.0223941 -0.000107452 2.79409e-24)
(0.0224123 -0.00012922 -2.01592e-23)
(0.0224286 -0.000148485 2.90968e-23)
(0.0224427 -0.00016557 -1.69884e-23)
(0.0224551 -0.000180713 1.51356e-23)
(0.0224657 -0.000194112 1.23693e-23)
(0.022475 -0.000205938 -2.15867e-23)
(0.0224828 -0.000216348 6.95723e-24)
(0.02249 -0.000225496 -2.88348e-25)
(0.0242536 0.000112425 -2.66281e-26)
(0.0242686 5.47738e-05 1.08763e-24)
(0.0242854 6.50473e-06 -1.21721e-24)
(0.0243032 -3.39347e-05 -1.29408e-25)
(0.0243212 -6.82066e-05 1.65187e-24)
(0.0243383 -9.75925e-05 -3.02215e-24)
(0.0243542 -0.00012302 3.01871e-24)
(0.0243685 -0.000145165 -9.92191e-24)
(0.0243812 -0.000164537 2.27783e-23)
(0.0243924 -0.000181541 -2.92799e-23)
(0.0244022 -0.000196497 2.3976e-23)
(0.0244107 -0.000209671 -8.08989e-24)
(0.0244183 -0.000221284 4.01125e-25)
(0.0244247 -0.000231526 1.78051e-24)
(0.0244307 -0.000240564 -3.45631e-24)
(0.0261364 0.000105358 -2.21407e-24)
(0.026151 4.68868e-05 5.52659e-24)
(0.0261656 -2.43624e-06 -3.67722e-24)
(0.0261801 -4.38723e-05 4.39783e-25)
(0.0261943 -7.89864e-05 7.71171e-25)
(0.0262075 -0.00010903 -1.29954e-24)
(0.0262196 -0.000134925 -2.09184e-24)
(0.0262303 -0.000157353 -5.58938e-24)
(0.0262399 -0.000176857 2.42459e-24)
(0.0262483 -0.000193889 1.38404e-23)
(0.0262557 -0.000208817 -7.4191e-24)
(0.026262 -0.000221946 4.50876e-24)
(0.0262677 -0.00023352 -1.85947e-24)
(0.0262725 -0.00024375 -5.49708e-24)
(0.026277 -0.000252807 2.81008e-24)
(0.0277884 9.55748e-05 7.42923e-25)
(0.0278037 3.77801e-05 -1.4647e-24)
(0.0278175 -1.12794e-05 -3.08961e-24)
(0.0278303 -5.2728e-05 7.30811e-24)
(0.0278422 -8.79202e-05 -1.65298e-24)
(0.0278528 -0.00011809 -2.58678e-24)
(0.0278623 -0.000144107 6.07419e-25)
(0.0278707 -0.000166625 -9.61903e-25)
(0.0278781 -0.000186187 6.07937e-25)
(0.0278846 -0.000203258 -1.50794e-24)
(0.0278902 -0.000218218 3.38638e-24)
(0.027895 -0.00023138 2.01089e-24)
(0.0278993 -0.000242994 -7.38592e-24)
(0.027903 -0.000253276 5.22193e-24)
(0.0279064 -0.000262391 -1.08668e-24)
(0.0290548 8.28797e-05 2.26276e-24)
(0.0290705 2.73462e-05 5.18228e-24)
(0.0290841 -2.03067e-05 -1.09487e-23)
(0.0290964 -6.07881e-05 -4.69263e-24)
(0.0291072 -9.54242e-05 8.78983e-24)
(0.0291165 -0.000125283 4.38013e-24)
(0.0291247 -0.000151115 4.70949e-25)
(0.0291317 -0.000173537 -7.37861e-24)
(0.0291378 -0.000193076 -1.87218e-24)
(0.029143 -0.000210181 3.60305e-24)
(0.0291474 -0.000225214 -9.77201e-25)
(0.0291511 -0.000238474 -1.62936e-27)
(0.0291542 -0.000250197 -9.62116e-26)
(0.0291567 -0.000260586 1.63423e-25)
(0.0291589 -0.000269801 -8.57347e-26)
(0.0297329 6.50195e-05 -6.1286e-24)
(0.0297496 1.37395e-05 -1.5778e-23)
(0.0297627 -3.03955e-05 4.88014e-24)
(0.0297731 -6.84533e-05 3.45532e-23)
(0.0297809 -0.000101423 -1.05392e-23)
(0.0297868 -0.000130028 -7.52566e-24)
(0.0297912 -0.000154877 5.00711e-24)
(0.0297945 -0.000176529 1.48499e-23)
(0.0297969 -0.000195474 -2.81676e-23)
(0.0297984 -0.000212121 1.07032e-23)
(0.0297993 -0.000226791 -1.31388e-24)
(0.0297996 -0.000239749 3.7322e-24)
(0.0297994 -0.000251208 1.99965e-24)
(0.0297988 -0.000261351 -2.353e-24)
(0.0297978 -0.000270321 7.86024e-25)
(0.0295846 4.44825e-05 1.00414e-23)
(0.0296019 -2.09173e-06 -2.40454e-23)
(0.0296151 -4.21163e-05 3.09949e-24)
(0.0296249 -7.69843e-05 4.30552e-23)
(0.0296322 -0.000107433 -4.48023e-23)
(0.0296375 -0.000133968 1.881e-23)
(0.0296413 -0.000157095 2.15119e-23)
(0.0296439 -0.000177319 -5.07997e-23)
(0.0296454 -0.000195074 -1.84335e-24)
(0.0296461 -0.000210711 1.96343e-23)
(0.0296459 -0.000224501 6.63283e-24)
(0.0296452 -0.000236672 -5.39935e-24)
(0.0296438 -0.000247404 4.94868e-24)
(0.029642 -0.000256857 -2.16004e-24)
(0.0296397 -0.000265154 8.06669e-25)
(0.0286643 2.6361e-05 6.37675e-24)
(0.0286764 -1.43592e-05 -1.38105e-23)
(0.028685 -5.0113e-05 -1.08721e-23)
(0.0286901 -8.15159e-05 5.10833e-23)
(0.028693 -0.000109064 -4.95612e-23)
(0.0286941 -0.000133192 4.37614e-24)
(0.028694 -0.000154354 9.25174e-24)
(0.0286928 -0.000172978 6.2703e-24)
(0.0286906 -0.000189415 7.53749e-24)
(0.0286877 -0.000203941 -4.16951e-23)
(0.028684 -0.000216774 2.61395e-23)
(0.0286798 -0.000228095 -6.34405e-26)
(0.028675 -0.000238051 1.67193e-23)
(0.0286699 -0.000246772 -7.84004e-24)
(0.0286642 -0.000254355 -1.89726e-24)
(0.0271571 1.18468e-05 1.6063e-23)
(0.02717 -2.2973e-05 -2.89847e-23)
(0.0271784 -5.42802e-05 5.7838e-24)
(0.0271832 -8.20865e-05 -1.62534e-23)
(0.0271853 -0.0001066 -2.32539e-23)
(0.0271854 -0.000128209 7.54421e-23)
(0.0271839 -0.000147309 -3.09066e-23)
(0.0271809 -0.00016423 9.61818e-24)
(0.0271767 -0.000179227 -5.72199e-24)
(0.0271716 -0.000192505 -1.75305e-23)
(0.0271656 -0.000204234 3.46233e-23)
(0.0271589 -0.000214556 -2.14722e-23)
(0.0271515 -0.000223586 2.47985e-24)
(0.0271436 -0.000231424 4.19665e-24)
(0.0271351 -0.000238147 -5.44046e-25)
(0.0253194 -1.25258e-06 6.23644e-24)
(0.0253303 -3.13362e-05 -3.3099e-23)
(0.0253368 -5.8392e-05 5.88926e-23)
(0.0253398 -8.24824e-05 -4.62515e-23)
(0.0253399 -0.000103842 4.89386e-23)
(0.0253377 -0.000122797 -1.54604e-23)
(0.0253337 -0.000139646 -1.13419e-23)
(0.0253282 -0.000154619 -1.3893e-23)
(0.0253213 -0.0001679 2.73706e-23)
(0.0253133 -0.000179645 1.121e-24)
(0.0253042 -0.000189983 -2.87901e-23)
(0.0252944 -0.000199026 -4.7115e-24)
(0.0252837 -0.000206863 8.19234e-24)
(0.0252724 -0.000213571 -2.02742e-24)
(0.0252604 -0.000219211 4.87692e-25)
(0.0232961 -1.16771e-05 8.33972e-25)
(0.0233037 -3.70399e-05 -1.25117e-23)
(0.023307 -5.98348e-05 -7.59253e-24)
(0.0233068 -8.02303e-05 6.02228e-23)
(0.0233037 -9.84481e-05 -6.05518e-23)
(0.0232982 -0.000114708 1.80347e-23)
(0.0232907 -0.000129206 3.21171e-24)
(0.0232816 -0.000142104 -1.78537e-24)
(0.023271 -0.000153537 -9.1496e-24)
(0.0232592 -0.000163623 4.14462e-23)
(0.0232463 -0.000172459 -3.37381e-23)
(0.0232325 -0.000180128 -1.98915e-24)
(0.0232178 -0.000186696 3.32651e-24)
(0.0232025 -0.000192222 3.57872e-24)
(0.0231864 -0.00019675 -2.87067e-24)
(0.0211862 -1.7935e-05 1.24377e-24)
(0.0211896 -3.88173e-05 1.16663e-23)
(0.0211888 -5.76701e-05 -1.33403e-23)
(0.0211846 -7.46477e-05 -9.73393e-24)
(0.0211775 -8.99043e-05 6.36189e-23)
(0.021168 -0.000103575 -4.8644e-23)
(0.0211565 -0.000115787 -9.04001e-25)
(0.0211433 -0.000126657 -1.09985e-23)
(0.0211287 -0.000136282 -1.14339e-24)
(0.0211128 -0.000144748 1.49629e-24)
(0.0210958 -0.000152123 -7.45039e-24)
(0.0210779 -0.000158467 5.38577e-24)
(0.0210591 -0.000163829 1.77401e-24)
(0.0210396 -0.000168251 1.83313e-24)
(0.0210194 -0.000171767 2.78922e-24)
(0.01906 -2.01686e-05 8.86695e-24)
(0.019059 -3.70665e-05 -1.36914e-23)
(0.0190541 -5.24168e-05 -1.15276e-23)
(0.019046 -6.63149e-05 3.52992e-23)
(0.0190351 -7.8862e-05 -1.26162e-23)
(0.0190219 -9.01441e-05 -1.8836e-23)
(0.0190068 -0.000100246 6.46866e-24)
(0.01899 -0.000109245 1.57534e-23)
(0.0189718 -0.000117209 -2.61216e-23)
(0.0189524 -0.000124197 2.68346e-23)
(0.0189319 -0.000130258 -1.50388e-23)
(0.0189105 -0.000135431 6.88541e-24)
(0.0188883 -0.000139751 -1.01284e-23)
(0.0188655 -0.00014325 1.05911e-23)
(0.018842 -0.000145952 -2.79347e-24)
(0.0169708 -1.93371e-05 -1.71986e-24)
(0.0169663 -3.28193e-05 -6.13031e-24)
(0.0169582 -4.51307e-05 -2.00196e-23)
(0.0169471 -5.63372e-05 5.6001e-23)
(0.0169334 -6.65073e-05 -9.72373e-24)
(0.0169176 -7.56921e-05 -1.6327e-23)
(0.0168999 -8.39423e-05 6.0776e-24)
(0.0168805 -9.13076e-05 -8.73964e-24)
(0.0168599 -9.78326e-05 -2.03627e-23)
(0.016838 -0.000103555 1.95104e-23)
(0.0168151 -0.000108507 9.38422e-25)
(0.0167914 -0.000112714 -7.56856e-24)
(0.016767 -0.0001162 8.57731e-24)
(0.016742 -0.000118987 6.70496e-25)
(0.0167165 -0.00012109 -8.22555e-25)
(0.0149586 -1.67132e-05 6.61187e-24)
(0.0149519 -2.73286e-05 1.00513e-23)
(0.0149419 -3.70691e-05 -9.07496e-24)
(0.0149291 -4.59958e-05 -2.08702e-23)
(0.0149139 -5.41458e-05 2.87373e-23)
(0.0148966 -6.15419e-05 -3.2182e-23)
(0.0148775 -6.82119e-05 -1.78255e-24)
(0.0148569 -7.41862e-05 1.28593e-23)
(0.0148349 -7.94922e-05 4.67812e-24)
(0.0148118 -8.41527e-05 -1.06232e-23)
(0.0147877 -8.81865e-05 -6.74203e-25)
(0.0147629 -9.16104e-05 2.3844e-23)
(0.0147373 -9.44376e-05 -9.20368e-24)
(0.0147112 -9.6683e-05 -2.61402e-24)
(0.0146847 -9.83573e-05 -1.87521e-25)
(0.0130505 -1.34014e-05 -6.86167e-24)
(0.0130428 -2.16421e-05 8.86525e-24)
(0.013032 -2.92464e-05 1.06754e-24)
(0.0130187 -3.6268e-05 1.90309e-23)
(0.0130031 -4.27149e-05 -1.52998e-23)
(0.0129854 -4.85933e-05 1.48703e-24)
(0.012966 -5.3919e-05 -1.52656e-24)
(0.0129451 -5.87094e-05 -5.17531e-24)
(0.0129228 -6.29795e-05 5.04053e-24)
(0.0128995 -6.67414e-05 -1.63632e-23)
(0.0128751 -7.00051e-05 6.99083e-25)
(0.01285 -7.27798e-05 3.91333e-24)
(0.0128241 -7.50729e-05 2.68057e-24)
(0.0127978 -7.68936e-05 1.15795e-24)
(0.0127711 -7.8248e-05 5.06337e-25)
(0.0112616 -1.01126e-05 5.07895e-24)
(0.0112538 -1.64077e-05 -3.99624e-24)
(0.0112432 -2.22503e-05 -1.83072e-23)
(0.0112302 -2.76813e-05 1.72094e-23)
(0.0112149 -3.26908e-05 2.51022e-23)
(0.0111977 -3.72803e-05 -5.88275e-24)
(0.0111787 -4.14591e-05 -1.31249e-23)
(0.0111583 -4.52356e-05 -1.96406e-23)
(0.0111365 -4.86163e-05 1.50609e-23)
(0.0111136 -5.16062e-05 1.05402e-24)
(0.0110897 -5.42098e-05 -3.70455e-24)
(0.0110649 -5.64312e-05 -1.1835e-24)
(0.0110395 -5.82738e-05 2.39131e-24)
(0.0110137 -5.97428e-05 -1.33647e-26)
(0.0109874 -6.08407e-05 -5.74909e-25)
(0.00959804 -7.21427e-06 -3.19529e-24)
(0.00959072 -1.19304e-05 -2.37488e-24)
(0.0095809 -1.63253e-05 2.76598e-24)
(0.00956869 -2.04298e-05 -9.37112e-24)
(0.00955435 -2.42298e-05 3.09515e-23)
(0.00953812 -2.77281e-05 -4.20042e-23)
(0.0095202 -3.09296e-05 4.21891e-23)
(0.00950079 -3.38366e-05 -1.81469e-23)
(0.00948005 -3.64506e-05 4.45946e-24)
(0.00945816 -3.87726e-05 3.07389e-25)
(0.00943528 -4.08037e-05 -3.53006e-24)
(0.00941156 -4.25448e-05 1.54302e-24)
(0.00938716 -4.39968e-05 -3.14335e-24)
(0.00936223 -4.51622e-05 -4.96706e-25)
(0.0093369 -4.60413e-05 2.67499e-25)
(0.00805997 -4.85092e-06 -1.55258e-24)
(0.0080535 -8.29897e-06 3.77347e-25)
(0.00804475 -1.15118e-05 8.73401e-25)
(0.00803375 -1.45199e-05 -4.25086e-24)
(0.00802073 -1.73135e-05 -2.0612e-24)
(0.00800591 -1.98977e-05 1.71958e-23)
(0.00798946 -2.22742e-05 -1.02036e-23)
(0.00797156 -2.44421e-05 1.56315e-24)
(0.00795235 -2.64005e-05 -1.49105e-24)
(0.00793201 -2.81481e-05 -1.74962e-24)
(0.00791067 -2.96843e-05 -6.26574e-25)
(0.0078885 -3.10082e-05 3.66885e-24)
(0.00786563 -3.21195e-05 1.23897e-24)
(0.00784221 -3.30185e-05 -2.44965e-24)
(0.00781838 -3.37045e-05 -4.43605e-25)
(0.00664412 -3.03053e-06 -5.61969e-25)
(0.00663867 -5.48242e-06 -1.99785e-25)
(0.00663117 -7.74577e-06 -9.44103e-24)
(0.00662161 -9.86416e-06 2.33984e-24)
(0.0066102 -1.18364e-05 -7.24739e-24)
(0.00659711 -1.36692e-05 4.687e-24)
(0.00658249 -1.53626e-05 9.56245e-24)
(0.00656648 -1.69144e-05 7.59521e-24)
(0.00654924 -1.83227e-05 -1.08869e-23)
(0.0065309 -1.95853e-05 3.29184e-24)
(0.0065116 -2.07009e-05 3.08235e-24)
(0.00649148 -2.16678e-05 -4.74582e-24)
(0.00647066 -2.24852e-05 2.54975e-24)
(0.0064493 -2.31522e-05 -3.20252e-25)
(0.00642752 -2.36673e-05 8.2934e-25)
(0.00534531 -1.74163e-06 -2.19183e-24)
(0.00534096 -3.39738e-06 -3.12044e-24)
(0.00533482 -4.91397e-06 -6.66967e-25)
(0.00532685 -6.32925e-06 7.83802e-24)
(0.00531724 -7.64908e-06 -5.71843e-24)
(0.00530611 -8.88119e-06 -1.24337e-24)
(0.00529359 -1.00248e-05 9.60509e-24)
(0.00527981 -1.10775e-05 1.64358e-25)
(0.00526489 -1.20373e-05 -1.94627e-24)
(0.00524895 -1.2902e-05 -7.9851e-24)
(0.00523211 -1.367e-05 6.36307e-25)
(0.0052145 -1.43396e-05 5.96168e-24)
(0.00519622 -1.49098e-05 -7.8386e-25)
(0.00517742 -1.53793e-05 -1.05189e-24)
(0.0051582 -1.57462e-05 7.2733e-25)
(0.00415752 -8.98455e-07 -4.77794e-25)
(0.00415429 -1.93616e-06 2.12103e-26)
(0.00414953 -2.88352e-06 3.73813e-24)
(0.00414321 -3.76234e-06 2.61827e-24)
(0.00413549 -4.5829e-06 -1.67239e-24)
(0.00412646 -5.35243e-06 -4.45164e-24)
(0.00411623 -6.06994e-06 1.88974e-24)
(0.00410491 -6.73347e-06 -8.15046e-24)
(0.00409258 -7.34122e-06 6.31606e-24)
(0.00407935 -7.89137e-06 3.51084e-24)
(0.00406532 -8.38252e-06 1.7455e-25)
(0.00405059 -8.81321e-06 -4.08681e-24)
(0.00403526 -9.18258e-06 8.18013e-25)
(0.00401945 -9.48916e-06 -7.03311e-25)
(0.00400324 -9.73123e-06 3.7397e-25)
(0.00307437 -3.9703e-07 -8.79037e-25)
(0.00307218 -9.85728e-07 4.28209e-27)
(0.00306874 -1.52021e-06 2.99088e-24)
(0.00306405 -2.01083e-06 -1.87527e-24)
(0.00305823 -2.4691e-06 8.04757e-24)
(0.00305136 -2.9004e-06 -1.48012e-23)
(0.00304352 -3.30392e-06 1.23667e-23)
(0.00303477 -3.67828e-06 -1.06032e-23)
(0.0030252 -4.02224e-06 7.85492e-24)
(0.00301488 -4.33451e-06 -5.23846e-24)
(0.00300389 -4.61415e-06 1.83299e-24)
(0.00299232 -4.8601e-06 2.82023e-25)
(0.00298023 -5.07179e-06 5.29233e-25)
(0.00296772 -5.24815e-06 -6.73935e-25)
(0.00295487 -5.38779e-06 1.54564e-25)
(0.00208934 -1.40691e-07 1.34363e-24)
(0.00208803 -4.29891e-07 1.51037e-24)
(0.00208578 -6.86902e-07 -6.4245e-24)
(0.00208262 -9.17835e-07 4.75622e-24)
(0.00207864 -1.13198e-06 -2.34051e-26)
(0.00207389 -1.33269e-06 1.32335e-24)
(0.00206842 -1.51976e-06 -1.5601e-24)
(0.00206228 -1.69273e-06 -3.47502e-24)
(0.00205553 -1.85119e-06 3.5116e-24)
(0.00204821 -1.99472e-06 4.3723e-25)
(0.00204038 -2.12304e-06 -3.08823e-24)
(0.0020321 -2.2358e-06 1.09795e-24)
(0.00202343 -2.33294e-06 7.41424e-25)
(0.00201443 -2.41371e-06 -8.04669e-26)
(0.00200515 -2.47606e-06 -1.04e-25)
(0.00119587 -2.41167e-08 -1.36444e-24)
(0.00119522 -1.16484e-07 4.23643e-24)
(0.00119399 -1.93517e-07 2.62882e-24)
(0.00119221 -2.60455e-07 -4.63123e-24)
(0.00118993 -3.21706e-07 -5.47785e-25)
(0.00118718 -3.79457e-07 -5.07483e-25)
(0.001184 -4.34158e-07 1.60723e-24)
(0.00118039 -4.86129e-07 -2.75797e-24)
(0.00117641 -5.35663e-07 3.89973e-24)
(0.00117207 -5.82983e-07 -1.903e-24)
(0.00116741 -6.28364e-07 -1.34346e-24)
(0.00116247 -6.71973e-07 8.45605e-25)
(0.00115727 -7.14144e-07 -1.14761e-24)
(0.00115186 -7.53628e-07 1.19634e-24)
(0.00114627 -7.84372e-07 -2.25593e-25)
(0.000387469 5.17216e-08 -9.84804e-27)
(0.000387241 1.27213e-07 8.32114e-25)
(0.00038682 1.85382e-07 9.81926e-25)
(0.000386216 2.25786e-07 -1.51339e-24)
(0.00038545 2.49823e-07 3.27853e-24)
(0.000384529 2.58546e-07 -3.54889e-24)
(0.000383459 2.536e-07 2.4484e-25)
(0.000382249 2.36576e-07 2.12092e-24)
(0.000380907 2.08982e-07 -2.93976e-24)
(0.000379442 1.72245e-07 -5.94559e-25)
(0.000377865 1.27673e-07 2.23229e-24)
(0.000376186 7.64924e-08 -1.00638e-24)
(0.000374417 1.97732e-08 -4.32887e-25)
(0.00037257 -4.05243e-08 3.70962e-25)
(0.000370656 -9.93011e-08 -1.87657e-26)
(0.000904202 -0.000215451 5.63578e-26)
(0.00104075 -0.000118848 1.29451e-24)
(0.00127204 -2.26352e-05 -3.50574e-24)
(0.00151034 5.50386e-05 4.66538e-24)
(0.00174211 0.000116255 -1.74285e-24)
(0.00197187 0.000161578 -1.38619e-24)
(0.00219923 0.00019327 1.45439e-24)
(0.00242442 0.000213191 -2.61323e-24)
(0.00264778 0.000222918 2.51711e-25)
(0.00286953 0.000223855 1.52403e-24)
(0.00308989 0.000217235 -2.76219e-25)
(0.00330915 0.000204126 2.91558e-25)
(0.0035277 0.000185455 -3.04185e-26)
(0.00374597 0.00016205 1.6795e-25)
(0.00396457 0.000134748 -6.06967e-25)
(0.00418415 0.000104568 3.25405e-25)
(0.00440588 7.28017e-05 -7.65856e-26)
(0.00463136 4.13238e-05 2.23434e-26)
(0.00486352 1.23893e-05 9.72552e-26)
(0.00510599 -1.15034e-05 -4.87995e-26)
(0.00536436 -2.92289e-05 -3.13019e-28)
(0.00564322 -4.14014e-05 1.15524e-27)
(0.00592058 -5.24801e-05 -4.67292e-27)
(0.00616293 -6.86749e-05 -2.27988e-26)
(0.00635911 -9.17113e-05 4.33613e-26)
(0.00650993 -0.000121519 7.17889e-26)
(0.00661812 -0.00015681 5.71369e-26)
(0.00668628 -0.000196572 -3.08277e-25)
(0.00671766 -0.000240279 -9.9875e-25)
(0.00671213 -0.000285653 2.09164e-24)
(0.00667168 -0.00033176 -3.51656e-24)
(0.00659646 -0.000375145 4.59374e-24)
(0.00648645 -0.000409898 -1.86021e-24)
(0.0063416 -0.00043009 -3.50169e-24)
(0.00616287 -0.000428441 3.49565e-24)
(0.00595152 -0.000396586 1.31851e-23)
(0.00570925 -0.000324937 -4.88805e-24)
(0.00543815 -0.000201915 1.80873e-24)
(0.00514086 -1.25239e-05 4.81357e-25)
(0.00482132 0.000263121 -1.44762e-23)
(0.00448338 0.000647613 -1.65326e-25)
(0.00413158 0.00115262 5.28633e-24)
(0.00374843 0.00173508 1.35167e-24)
(0.0033548 0.0022342 -7.10296e-24)
(0.00312976 0.00222343 -3.26343e-25)
(0.00171879 -0.000297391 -1.58106e-24)
(0.00177834 -0.000238015 -1.94386e-24)
(0.00192554 -0.000145795 4.22352e-24)
(0.00211019 -6.1611e-05 1.60086e-24)
(0.00230815 9.50291e-06 -5.54199e-24)
(0.00251434 6.50927e-05 5.45303e-24)
(0.00272446 0.00010634 -1.89214e-24)
(0.0029364 0.000134941 1.24605e-24)
(0.00314917 0.000152493 -1.66428e-24)
(0.0033622 0.00016047 2.52201e-26)
(0.0035752 0.000160177 -7.84465e-25)
(0.0037881 0.000152742 1.55021e-24)
(0.004001 0.000139154 -8.44269e-25)
(0.00421411 0.000120299 -7.20006e-25)
(0.0044278 9.70695e-05 -4.12515e-25)
(0.00464246 7.05174e-05 8.94605e-25)
(0.00485897 4.1947e-05 -4.87751e-26)
(0.00507852 1.32071e-05 3.15169e-25)
(0.00530351 -1.34835e-05 -9.44715e-27)
(0.00553692 -3.56758e-05 -6.01676e-26)
(0.00578363 -5.22097e-05 -6.57581e-27)
(0.00604769 -6.3417e-05 4.76396e-27)
(0.00630865 -7.33136e-05 -2.67732e-26)
(0.00653607 -8.76839e-05 -4.65079e-26)
(0.00672008 -0.00010813 1.88358e-26)
(0.00686164 -0.000134699 3.68781e-25)
(0.00696323 -0.000166147 -6.75151e-25)
(0.00702719 -0.000201453 7.47481e-25)
(0.00705644 -0.000239885 -2.7499e-25)
(0.00705051 -0.000279015 5.8329e-25)
(0.00701213 -0.000317931 -5.58065e-24)
(0.006941 -0.00035296 1.04264e-23)
(0.00683758 -0.000378155 -9.67609e-24)
(0.00670222 -0.000387671 2.0424e-23)
(0.00653659 -0.000374358 -2.72963e-23)
(0.00634289 -0.000329988 6.88646e-24)
(0.00612423 -0.000245182 2.10488e-23)
(0.00588482 -0.000108767 -6.80473e-24)
(0.00563068 9.33564e-05 -1.48795e-23)
(0.00537151 0.000379766 -7.85604e-24)
(0.005122 0.000771854 1.78711e-23)
(0.00490685 0.00128233 -1.62844e-23)
(0.00474501 0.00187042 -2.8228e-24)
(0.00468895 0.00236331 9.59897e-24)
(0.00473618 0.00231076 2.6857e-24)
(0.0026904 -0.0003075 -1.74281e-26)
(0.00270223 -0.000291275 -2.32143e-24)
(0.00276994 -0.000232308 4.34298e-24)
(0.00289047 -0.000159113 3.03668e-24)
(0.00303985 -8.89372e-05 -5.1727e-24)
(0.00320884 -2.90674e-05 1.31378e-25)
(0.00339022 1.85114e-05 4.12088e-25)
(0.00357941 5.40754e-05 3.89517e-24)
(0.00377371 7.85768e-05 -4.56573e-24)
(0.0039714 9.32025e-05 2.61821e-24)
(0.0041714 9.91268e-05 7.20431e-25)
(0.00437307 9.74248e-05 -4.15555e-24)
(0.00457607 8.9079e-05 1.49381e-24)
(0.00478024 7.49946e-05 5.74261e-25)
(0.00498565 5.60948e-05 -1.12327e-24)
(0.00519235 3.34519e-05 1.70686e-24)
(0.00540085 8.36736e-06 -1.09403e-24)
(0.0056119 -1.73428e-05 5.15584e-26)
(0.0058273 -4.15011e-05 1.07977e-25)
(0.00604927 -6.17195e-05 5.87556e-26)
(0.00628193 -7.68099e-05 1.50199e-26)
(0.00652864 -8.68295e-05 -2.31508e-27)
(0.00677055 -9.5368e-05 3.06659e-26)
(0.00698053 -0.000107788 -1.03343e-25)
(0.00715007 -0.000125542 2.19473e-25)
(0.00728033 -0.000148773 -1.3607e-25)
(0.00737357 -0.000176272 8.26274e-25)
(0.00743191 -0.000206998 -1.17497e-24)
(0.00745776 -0.00023995 2.27117e-24)
(0.00745053 -0.000272717 1.07267e-24)
(0.00741386 -0.000304305 2.2084e-24)
(0.00734656 -0.000330795 -1.20693e-23)
(0.0072498 -0.000346295 4.67012e-24)
(0.0071244 -0.000345117 1.04002e-23)
(0.00697273 -0.000320365 -2.27554e-23)
(0.00679801 -0.000264178 3.17553e-23)
(0.00660475 -0.000167784 -2.00228e-23)
(0.00639925 -2.11062e-05 2.42121e-23)
(0.00619063 0.000187747 -4.47362e-23)
(0.00599321 0.000473271 1.6693e-23)
(0.00582897 0.000850259 5.38564e-24)
(0.00573252 0.00132283 7.65837e-24)
(0.00573273 0.00184448 -9.49643e-24)
(0.00587458 0.00225591 2.25894e-24)
(0.00603794 0.00220688 -1.32448e-24)
(0.00380055 -0.000293567 -6.35472e-25)
(0.00378691 -0.000303537 -8.85742e-25)
(0.00380315 -0.000277089 -3.57867e-24)
(0.00386209 -0.000227267 1.30639e-24)
(0.00395776 -0.00016849 8.36112e-25)
(0.00408051 -0.000112274 2.42434e-24)
(0.00422322 -6.37182e-05 -4.31772e-24)
(0.00438025 -2.46597e-05 1.79323e-24)
(0.00454757 4.59139e-06 4.9379e-24)
(0.00472237 2.44977e-05 -1.34205e-24)
(0.00490267 3.58171e-05 -1.16351e-24)
(0.00508713 3.93866e-05 -1.789e-25)
(0.0052749 3.60676e-05 5.69584e-25)
(0.00546535 2.67085e-05 -1.09247e-24)
(0.00565813 1.22134e-05 2.65697e-25)
(0.00585291 -6.35915e-06 -5.1128e-26)
(0.00604978 -2.77351e-05 -3.32467e-25)
(0.00624895 -5.01509e-05 2.47143e-25)
(0.00645162 -7.14848e-05 4.08936e-25)
(0.00665917 -8.94243e-05 -8.68095e-26)
(0.00687484 -0.000102777 -2.67982e-26)
(0.0071012 -0.000111341 6.67213e-27)
(0.00732105 -0.000118308 5.98884e-26)
(0.00751075 -0.000128626 2.29775e-26)
(0.00766324 -0.000143571 2.88066e-25)
(0.00777989 -0.000163362 -4.13546e-25)
(0.00786271 -0.000186819 8.68721e-25)
(0.00791374 -0.000212833 -1.9975e-24)
(0.00793451 -0.00024011 2.74086e-24)
(0.00792494 -0.000266557 -1.71265e-25)
(0.00788953 -0.000290708 -2.39654e-24)
(0.00782553 -0.000308616 -3.17342e-25)
(0.00773531 -0.000314549 -3.27083e-25)
(0.00762011 -0.000303074 -2.51654e-24)
(0.007483 -0.000267714 4.25722e-24)
(0.00732815 -0.000201263 -9.13442e-24)
(0.00716134 -9.5996e-05 3.91695e-23)
(0.00699057 5.63705e-05 -2.11461e-23)
(0.00682709 0.000264498 -1.35816e-24)
(0.00668745 0.000537132 -3.70181e-23)