/*--------------------------------*- C++ -*----------------------------------*\
| =========                 |                                                 |
| \\      /  F ield         | OpenFOAM: The Open Source CFD Toolbox           |
|  \\    /   O peration     | Version:  2312                                  |
|   \\  /    A nd           | Website:  www.openfoam.com                      |
|    \\/     M anipulation  |                                                 |
\*---------------------------------------------------------------------------*/
FoamFile
{
    version     2.0;
    format      ascii;
    arch        "LSB;label=32;scalar=64";
    class       volVectorField;
    location    "103.75";
    object      U;
}
// * * * * * * * * * * * * * * * * * * * * * * * * * * * * * * * * * * * * * //

dimensions      [0 1 -1 0 0 0 0];

internalField   nonuniform List<vector> 
4800
(
(0.000477653 4.31244e-07 -3.33527e-26)
(0.000466321 4.85256e-07 -2.3249e-25)
(0.000458615 5.09039e-07 2.98969e-25)
(0.000453446 5.06396e-07 1.34132e-25)
(0.000450143 4.78683e-07 1.95822e-24)
(0.000448294 4.26051e-07 -4.65048e-24)
(0.000447637 3.64802e-07 4.30604e-24)
(0.000448157 2.75726e-07 -6.17184e-24)
(0.000449703 1.44958e-07 1.99742e-24)
(0.000452444 -1.10255e-07 6.67834e-24)
(0.000456768 -6.23363e-07 -2.06219e-24)
(0.000463987 -2.01559e-06 -1.82475e-25)
(0.000481164 -7.12045e-06 -2.47351e-24)
(0.000525917 -2.76947e-05 1.13319e-24)
(0.000600464 -9.04475e-05 -8.97285e-25)
(0.0014737 2.29432e-06 -1.05874e-25)
(0.00143934 1.83579e-06 1.31916e-25)
(0.00141589 1.47109e-06 -1.19801e-24)
(0.00140005 1.14347e-06 9.00314e-25)
(0.00138977 8.15785e-07 2.82358e-24)
(0.00138379 4.55974e-07 -4.48253e-24)
(0.00138128 4.2445e-08 -1.23478e-24)
(0.00138213 -5.00474e-07 -2.61579e-25)
(0.0013858 -1.2497e-06 1.01585e-23)
(0.00139292 -2.51906e-06 -7.50016e-24)
(0.00140453 -4.94932e-06 8.17354e-25)
(0.00142341 -1.07247e-05 1.22828e-24)
(0.00145816 -2.73718e-05 -1.79901e-24)
(0.00151936 -7.79596e-05 -5.25953e-25)
(0.00158572 -0.000191986 2.33186e-24)
(0.0025719 7.3618e-06 -7.56242e-26)
(0.00251308 5.84399e-06 7.73274e-26)
(0.00247281 4.66402e-06 7.83738e-25)
(0.00244544 3.63441e-06 -1.85895e-24)
(0.00242747 2.63975e-06 1.80899e-24)
(0.0024167 1.58129e-06 1.6723e-24)
(0.00241166 2.91771e-07 -4.28973e-24)
(0.00241207 -1.33222e-06 -2.57639e-24)
(0.00241683 -3.55856e-06 6.26822e-24)
(0.00242686 -7.14045e-06 2.34664e-24)
(0.00244325 -1.35246e-05 -8.18658e-24)
(0.00246803 -2.65844e-05 -1.20395e-24)
(0.00250526 -5.57708e-05 3.47721e-24)
(0.00255357 -0.000119858 5.43407e-24)
(0.00258837 -0.000226447 -2.80144e-24)
(0.00377893 1.6447e-05 2.79018e-26)
(0.0036946 1.31201e-05 -1.93764e-25)
(0.00363662 1.05383e-05 8.57627e-25)
(0.00359695 8.29975e-06 8.9938e-25)
(0.00357055 6.16094e-06 -9.11375e-25)
(0.00355426 3.92146e-06 -5.1274e-24)
(0.00354586 1.27586e-06 -3.42275e-24)
(0.00354472 -2.12249e-06 1.2787e-23)
(0.00354922 -6.44489e-06 5.16334e-24)
(0.00356001 -1.32469e-05 -7.58468e-24)
(0.00357759 -2.44455e-05 -3.04333e-24)
(0.00360204 -4.43923e-05 -2.29574e-24)
(0.00363265 -8.10261e-05 7.60685e-26)
(0.00366223 -0.000144083 1.68627e-24)
(0.00367279 -0.000228588 8.21659e-27)
(0.00509977 3.04453e-05 -5.11302e-26)
(0.00498967 2.43758e-05 -3.11906e-25)
(0.00491353 1.96668e-05 -1.91896e-25)
(0.004861 1.56105e-05 5.30922e-25)
(0.00482555 1.1781e-05 -1.47291e-24)
(0.00480296 7.84413e-06 3.66641e-24)
(0.00479032 3.31275e-06 -6.53258e-25)
(0.00478624 -2.25961e-06 2.19809e-24)
(0.00478902 -9.32014e-06 -1.21785e-23)
(0.00479826 -1.96122e-05 2.30817e-23)
(0.00481348 -3.52175e-05 -2.23068e-23)
(0.00483305 -5.96118e-05 1.17012e-23)
(0.0048536 -9.76326e-05 -1.08037e-23)
(0.00486745 -0.000152248 1.0168e-23)
(0.00486432 -0.000215928 -4.05039e-24)
(0.00653602 5.04199e-05 6.75253e-26)
(0.00640138 4.05479e-05 2.41206e-25)
(0.00630751 3.28768e-05 -1.2658e-24)
(0.00624208 2.63083e-05 -7.8188e-25)
(0.00619721 2.01833e-05 2.12407e-24)
(0.00616774 1.40086e-05 7.48296e-25)
(0.00615001 7.12297e-06 -5.81477e-24)
(0.00614179 -9.98673e-07 1.38006e-23)
(0.00614114 -1.10815e-05 -1.78313e-23)
(0.00614677 -2.47236e-05 4.29249e-24)
(0.00615701 -4.3593e-05 1.28447e-23)
(0.00616933 -6.98359e-05 -1.7755e-23)
(0.00617983 -0.000105349 8.88162e-24)
(0.00618273 -0.000149597 9.06602e-24)
(0.00617328 -0.000196416 -6.89994e-24)
(0.00808366 7.72835e-05 5.59324e-26)
(0.00792821 6.25399e-05 -3.30202e-25)
(0.00781854 5.10253e-05 1.17452e-24)
(0.00774114 4.12039e-05 -1.61997e-24)
(0.00768715 3.215e-05 -5.41455e-24)
(0.00765058 2.31971e-05 9.22345e-24)
(0.00762718 1.35529e-05 -5.53746e-24)
(0.00761398 2.56811e-06 1.86655e-23)
(0.00760856 -1.04744e-05 -1.27072e-23)
(0.00760893 -2.68866e-05 -5.88112e-24)
(0.00761276 -4.77509e-05 -1.14552e-23)
(0.00761727 -7.38816e-05 1.05458e-23)
(0.00761919 -0.000105285 2.95406e-24)
(0.00761496 -0.000140213 2.52082e-24)
(0.00760294 -0.000174561 -2.21816e-24)
(0.00973034 0.000111333 -8.10599e-26)
(0.00956149 9.08767e-05 1.09516e-24)
(0.00944037 7.4734e-05 -2.53588e-24)
(0.00935352 6.09679e-05 -2.03356e-24)
(0.00929178 4.8394e-05 7.99012e-25)
(0.00924872 3.61806e-05 1.5163e-24)
(0.00921969 2.34636e-05 5.29953e-24)
(0.00920117 9.52917e-06 -1.42931e-23)
(0.00919033 -6.24975e-06 -7.48657e-24)
(0.00918472 -2.47434e-05 2.08384e-23)
(0.00918185 -4.64431e-05 -6.38665e-24)
(0.00917915 -7.12782e-05 2.18419e-23)
(0.00917433 -9.8419e-05 -1.14862e-23)
(0.00916536 -0.000126119 -3.65531e-24)
(0.00915214 -0.000151915 2.16444e-24)
(0.0114536 0.000151603 -1.08542e-26)
(0.0112833 0.000125211 6.07868e-25)
(0.0111582 0.000104005 -8.63598e-25)
(0.0110667 8.58231e-05 2.03514e-24)
(0.0110002 6.93035e-05 -1.2033e-23)
(0.0109525 5.34992e-05 1.26737e-23)
(0.0109189 3.75387e-05 -1.96782e-23)
(0.0108956 2.07366e-05 1.21505e-23)
(0.0108796 2.59553e-06 8.93707e-24)
(0.0108684 -1.7316e-05 1.91936e-23)
(0.0108595 -3.90424e-05 -2.50456e-23)
(0.0108509 -6.21043e-05 -4.59974e-24)
(0.0108412 -8.55386e-05 2.13464e-24)
(0.010829 -0.000108051 1.51871e-23)
(0.0108151 -0.000128263 -6.17824e-24)
(0.0132232 0.00019518 6.10446e-26)
(0.0130668 0.000163697 -2.59249e-25)
(0.0129482 0.000137675 1.13763e-24)
(0.0128592 0.000115071 -3.95062e-24)
(0.0127929 9.45239e-05 5.94783e-24)
(0.012744 7.50781e-05 -7.60107e-24)
(0.0127081 5.59312e-05 1.26282e-23)
(0.0126818 3.6502e-05 2.14022e-24)
(0.0126621 1.64562e-05 -1.72151e-23)
(0.0126465 -4.33866e-06 2.4355e-23)
(0.0126332 -2.56612e-05 -2.68161e-23)
(0.0126206 -4.6976e-05 -7.85567e-24)
(0.0126077 -6.75131e-05 1.38733e-23)
(0.0125937 -8.64725e-05 4.11395e-24)
(0.0125794 -0.000103145 -1.79765e-24)
(0.0150111 0.000237189 2.57959e-25)
(0.0148831 0.00020266 -2.04493e-24)
(0.014782 0.000172973 -3.16706e-24)
(0.0147038 0.000146619 7.56698e-24)
(0.0146439 0.000122485 3.30373e-24)
(0.0145984 9.97592e-05 -2.07338e-23)
(0.0145638 7.78001e-05 6.44737e-24)
(0.0145372 5.61803e-05 4.60015e-24)
(0.0145161 3.47287e-05 -1.94625e-23)
(0.0144986 1.34762e-05 2.03477e-23)
(0.0144831 -7.29432e-06 -1.61419e-23)
(0.0144685 -2.71589e-05 4.15164e-23)
(0.0144543 -4.56172e-05 -1.99428e-23)
(0.0144398 -6.22561e-05 1.17404e-23)
(0.0144259 -7.67608e-05 -3.20559e-24)
(0.0168089 0.000272628 -1.14076e-25)
(0.0167155 0.000237538 1.41816e-24)
(0.0166386 0.000205948 -2.70047e-24)
(0.0165772 0.000177106 -1.3197e-24)
(0.0165289 0.000150345 1.48309e-23)
(0.016491 0.000125137 -2.24137e-24)
(0.0164613 0.000101072 -2.60143e-23)
(0.0164375 7.79066e-05 3.01648e-23)
(0.0164179 5.55903e-05 -6.79961e-24)
(0.0164009 3.42277e-05 -2.32666e-23)
(0.0163857 1.40311e-05 2.4769e-23)
(0.0163714 -4.72861e-06 1.33329e-23)
(0.0163577 -2.1792e-05 -1.12071e-23)
(0.0163441 -3.70017e-05 -1.94361e-23)
(0.0163313 -5.0264e-05 1.63277e-24)
(0.0186367 0.000299906 1.54865e-26)
(0.018572 0.000265698 -1.61714e-24)
(0.0185175 0.000233602 7.41996e-24)
(0.0184731 0.000203507 3.5384e-25)
(0.0184374 0.0001752 4.0011e-24)
(0.0184088 0.000148466 -1.46146e-23)
(0.0183857 0.000123138 1.23213e-23)
(0.0183665 9.91355e-05 2.73219e-24)
(0.0183503 7.64808e-05 2.50598e-23)
(0.0183358 5.52681e-05 -3.88164e-23)
(0.0183226 3.56283e-05 -1.75182e-23)
(0.0183101 1.76801e-05 -1.15757e-23)
(0.0182983 1.51231e-06 2.1792e-23)
(0.0182866 -1.28739e-05 -6.31208e-25)
(0.0182759 -2.5509e-05 2.11734e-24)
(0.020522 0.00032203 -1.13415e-26)
(0.0204745 0.000288659 1.70643e-24)
(0.0204346 0.000256417 -2.47229e-24)
(0.020402 0.000225623 1.39753e-26)
(0.0203757 0.0001964 3.01001e-24)
(0.0203543 0.000168782 7.55405e-24)
(0.0203367 0.000142781 -2.92751e-23)
(0.0203218 0.000118414 2.54025e-24)
(0.0203088 9.57251e-05 1.47968e-23)
(0.0202971 7.47595e-05 -6.77091e-24)
(0.0202864 5.55606e-05 1.8507e-23)
(0.0202761 3.81293e-05 1.29634e-23)
(0.0202665 2.24478e-05 -2.35196e-23)
(0.020257 8.43387e-06 1.6133e-23)
(0.0202484 -4.00334e-06 -1.34133e-23)
(0.0224572 0.000342295 -4.53917e-25)
(0.0224202 0.00030957 -2.36403e-26)
(0.0223891 0.000277182 2.99438e-24)
(0.0223636 0.000245836 -1.45282e-23)
(0.0223429 0.00021593 1.27276e-23)
(0.0223258 0.000187684 -9.01427e-24)
(0.0223115 0.000161224 6.50296e-24)
(0.0222993 0.00013661 -4.54036e-23)
(0.0222886 0.000113872 6.55436e-23)
(0.0222788 9.2999e-05 -3.85038e-23)
(0.0222698 7.39562e-05 3.43843e-23)
(0.0222613 5.6671e-05 2.87893e-23)
(0.0222534 4.10546e-05 -5.03153e-23)
(0.0222456 2.69824e-05 1.63919e-23)
(0.0222386 1.43362e-05 -6.90042e-25)
(0.0243816 0.000360366 -1.74867e-26)
(0.0243549 0.000328804 -7.16901e-25)
(0.0243318 0.000296741 7.14836e-25)
(0.0243125 0.000265273 -4.01887e-25)
(0.0242964 0.000235057 5.2409e-24)
(0.0242828 0.000206472 -8.9189e-24)
(0.0242713 0.000179725 8.1841e-24)
(0.0242612 0.000154902 -2.56794e-23)
(0.0242523 0.000132014 5.82943e-23)
(0.0242441 0.00011101 -7.45135e-23)
(0.0242366 9.18094e-05 6.10264e-23)
(0.0242294 7.42989e-05 -2.06126e-23)
(0.0242229 5.83582e-05 1.08025e-24)
(0.0242164 4.38472e-05 4.76611e-24)
(0.0242106 3.06308e-05 -9.11952e-24)
(0.0262002 0.000374122 -1.50312e-24)
(0.0261842 0.000344375 2.1634e-24)
(0.0261698 0.000313355 -8.85317e-26)
(0.0261572 0.000282437 -2.36236e-24)
(0.0261464 0.000252488 8.72552e-24)
(0.026137 0.00022401 -8.70198e-24)
(0.0261288 0.000197274 -7.5143e-24)
(0.0261215 0.000172389 -1.79744e-23)
(0.0261149 0.000149363 9.31396e-24)
(0.0261087 0.00012813 4.37089e-23)
(0.026103 0.000108591 -2.30591e-23)
(0.0260975 9.06203e-05 1.37616e-23)
(0.0260924 7.40931e-05 -5.65038e-24)
(0.0260874 5.88734e-05 -1.68442e-23)
(0.026083 4.48356e-05 8.63116e-24)
(0.0277956 0.000382212 5.03864e-25)
(0.0277893 0.000354713 -8.27596e-25)
(0.0277828 0.000325335 4.72123e-25)
(0.0277768 0.000295596 -2.98187e-24)
(0.0277713 0.000266478 -2.09071e-24)
(0.0277663 0.000238562 1.38762e-23)
(0.0277618 0.000212165 -1.07762e-23)
(0.0277575 0.00018742 -6.60408e-24)
(0.0277536 0.000164346 6.11777e-24)
(0.0277499 0.000142886 -7.04964e-24)
(0.0277463 0.000122946 1.64597e-23)
(0.0277427 0.000104408 8.33178e-24)
(0.0277395 8.71531e-05 -3.11247e-23)
(0.0277362 7.10575e-05 2.15244e-23)
(0.0277332 5.60075e-05 -4.39585e-24)
(0.0290098 0.000383738 1.50664e-24)
(0.0290122 0.00035895 2.30557e-24)
(0.029013 0.000331739 -5.23726e-24)
(0.0290131 0.000303723 4.53391e-25)
(0.0290128 0.000275945 8.78514e-26)
(0.0290122 0.000249028 -4.50415e-24)
(0.0290115 0.000223319 -6.05847e-24)
(0.0290107 0.000198974 1.4234e-23)
(0.0290097 0.000176034 1.48861e-23)
(0.0290085 0.000154463 -3.60434e-23)
(0.0290073 0.000134189 2.06457e-23)
(0.0290059 0.000115121 -1.43582e-24)
(0.0290046 9.71585e-05 -1.19112e-24)
(0.029003 8.01982e-05 1.60642e-24)
(0.0290017 6.41417e-05 -7.41325e-25)
(0.0296235 0.000375149 -3.97765e-24)
(0.0296342 0.000353031 -8.46233e-24)
(0.0296426 0.000328256 4.72249e-24)
(0.0296493 0.00030238 1.5112e-23)
(0.0296548 0.000276402 -4.17402e-24)
(0.0296593 0.000250925 -8.74467e-25)
(0.0296632 0.000226296 3.05286e-25)
(0.0296665 0.000202682 -6.22042e-24)
(0.0296693 0.000180146 1.6125e-23)
(0.0296715 0.000158681 -7.00857e-24)
(0.0296734 0.00013825 3.96595e-24)
(0.0296749 0.000118793 -6.33337e-24)
(0.0296761 0.000100244 -7.21653e-24)
(0.029677 8.25321e-05 1.0816e-23)
(0.0296778 6.55963e-05 -4.73192e-24)
(0.0294299 0.000360576 6.3478e-24)
(0.0294459 0.000340907 -1.47254e-23)
(0.0294594 0.000318529 2.30773e-24)
(0.0294708 0.00029484 2.22679e-23)
(0.0294807 0.000270754 -2.19087e-23)
(0.0294894 0.000246822 7.90974e-24)
(0.029497 0.000223371 5.79619e-24)
(0.0295038 0.000200569 -1.31689e-23)
(0.0295098 0.000178499 2.24583e-24)
(0.0295151 0.000157184 2.36046e-24)
(0.0295197 0.000136619 -6.26793e-25)
(0.0295239 0.000116779 1.88954e-24)
(0.0295275 9.76348e-05 -2.44421e-24)
(0.0295308 7.91412e-05 1.75954e-24)
(0.0295338 6.12574e-05 -8.34567e-25)
(0.0284857 0.00033726 3.96744e-24)
(0.0285102 0.000319725 -8.49603e-24)
(0.028531 0.00029969 -6.30615e-24)
(0.0285486 0.000278327 2.95707e-23)
(0.0285637 0.000256413 -2.79232e-23)
(0.0285768 0.000234412 2.75116e-24)
(0.0285881 0.000212605 4.93533e-24)
(0.0285978 0.000191149 2.95969e-24)
(0.0286062 0.000170133 2.88482e-24)
(0.0286134 0.000149599 -1.46555e-23)
(0.0286196 0.000129571 9.29907e-24)
(0.0286249 0.000110051 5.94914e-25)
(0.0286293 9.10336e-05 1.97889e-24)
(0.0286331 7.25032e-05 -8.17875e-25)
(0.0286361 5.44464e-05 1.28269e-25)
(0.0269206 0.000306488 9.9467e-24)
(0.0269494 0.00029079 -1.79203e-23)
(0.0269749 0.000272943 3.59027e-24)
(0.0269974 0.000253886 -9.82522e-24)
(0.0270173 0.000234242 -1.3734e-23)
(0.027035 0.000214378 4.49196e-23)
(0.0270507 0.000194522 -1.81111e-23)
(0.0270648 0.00017481 5.45394e-24)
(0.0270772 0.000155328 -3.16023e-24)
(0.0270883 0.000136132 -8.87289e-24)
(0.0270981 0.00011726 1.70752e-23)
(0.0271067 9.87303e-05 -9.91616e-24)
(0.0271143 8.05623e-05 1.267e-24)
(0.0271211 6.27683e-05 1.53246e-24)
(0.027127 4.53551e-05 -1.63992e-25)
(0.0250404 0.000276174 3.84954e-24)
(0.0250738 0.000262002 -2.05318e-23)
(0.0251039 0.000246005 3.66652e-23)
(0.0251307 0.000228911 -2.88862e-23)
(0.0251548 0.000211206 3.06559e-23)
(0.0251764 0.000193179 -9.70411e-24)
(0.0251958 0.000175014 -7.12364e-24)
(0.0252132 0.000156838 -8.63359e-24)
(0.0252288 0.000138737 1.67004e-23)
(0.0252428 0.000120777 3.82573e-25)
(0.0252552 0.000103009 -1.7177e-23)
(0.0252664 8.54664e-05 -2.59724e-24)
(0.0252762 6.81768e-05 4.53938e-24)
(0.0252849 5.11528e-05 -1.05423e-24)
(0.0252924 3.4402e-05 2.38326e-25)
(0.0229867 0.000243818 5.14111e-25)
(0.023025 0.000231061 -7.80045e-24)
(0.0230598 0.000216756 -4.87911e-24)
(0.023091 0.00020146 3.82471e-23)
(0.0231192 0.000185547 -3.86958e-23)
(0.0231447 0.000169251 1.15811e-23)
(0.0231676 0.000152734 2.08123e-24)
(0.0231882 0.000136114 -1.16279e-24)
(0.0232067 0.000119481 -5.96469e-24)
(0.0232234 0.000102903 2.69376e-23)
(0.0232381 8.64335e-05 -2.18922e-23)
(0.0232513 7.01091e-05 -1.24157e-24)
(0.0232628 5.39633e-05 2.11938e-24)
(0.0232729 3.80133e-05 2.14821e-24)
(0.0232815 2.22923e-05 -1.70922e-24)
(0.020868 0.000210009 7.66768e-25)
(0.0209105 0.000198651 7.31716e-24)
(0.0209491 0.000185994 -8.34711e-24)
(0.020984 0.000172464 -6.26721e-24)
(0.0210156 0.000158352 4.14324e-23)
(0.0210442 0.00014385 -3.16793e-23)
(0.0210699 0.000129099 -5.50323e-25)
(0.021093 0.000114207 -7.35587e-24)
(0.0211138 9.92568e-05 -7.91978e-25)
(0.0211322 8.43146e-05 1.00212e-24)
(0.0211486 6.94308e-05 -5.06524e-24)
(0.0211629 5.46531e-05 3.67659e-24)
(0.0211753 4.00165e-05 1.23195e-24)
(0.021186 2.5569e-05 1.2636e-24)
(0.0211947 1.13431e-05 1.83217e-24)
(0.0187579 0.0001763 5.46948e-24)
(0.0188029 0.000166382 -8.49091e-24)
(0.018844 0.000155392 -7.40169e-24)
(0.0188812 0.000143666 2.27073e-23)
(0.0189148 0.000131422 -8.1099e-24)
(0.0189451 0.000118812 -1.25035e-23)
(0.0189724 0.000105957 4.26453e-24)
(0.0189969 9.29513e-05 1.07249e-23)
(0.0190186 7.98693e-05 -1.79721e-23)
(0.0190378 6.67727e-05 1.85898e-23)
(0.0190545 5.37127e-05 -1.04852e-23)
(0.0190689 4.07368e-05 4.82123e-24)
(0.0190811 2.78826e-05 -7.08233e-24)
(0.0190911 1.51951e-05 7.37956e-24)
(0.0190989 2.69872e-06 -1.93121e-24)
(0.0167023 0.000144242 -1.06144e-24)
(0.0167481 0.000135807 -3.87161e-24)
(0.0167899 0.00012651 -1.28894e-23)
(0.0168276 0.000116616 3.60831e-23)
(0.0168617 0.000106275 -6.13133e-24)
(0.0168924 9.56084e-05 -1.0764e-23)
(0.0169198 8.47146e-05 4.15549e-24)
(0.0169442 7.36759e-05 -5.95089e-24)
(0.0169657 6.25587e-05 -1.42128e-23)
(0.0169844 5.14174e-05 1.36008e-23)
(0.0170003 4.03015e-05 6.57139e-25)
(0.0170137 2.92534e-05 -5.40409e-24)
(0.0170246 1.83107e-05 6.121e-24)
(0.017033 7.5015e-06 4.75136e-25)
(0.0170389 -3.1281e-06 -5.83601e-25)
(0.0147292 0.000115068 4.08169e-24)
(0.014774 0.000108113 6.39467e-24)
(0.0148148 0.000100489 -5.60691e-24)
(0.0148517 9.23918e-05 -1.34808e-23)
(0.0148849 8.39171e-05 1.88742e-23)
(0.0149146 7.516e-05 -2.14496e-23)
(0.0149411 6.62032e-05 -1.37768e-24)
(0.0149643 5.71163e-05 8.72396e-24)
(0.0149845 4.79548e-05 3.2329e-24)
(0.0150018 3.87685e-05 -7.53125e-24)
(0.0150162 2.96014e-05 -5.54025e-25)
(0.0150279 2.04953e-05 1.71003e-23)
(0.0150368 1.14963e-05 -6.61624e-24)
(0.0150431 2.62573e-06 -1.8849e-24)
(0.0150467 -6.12508e-06 -1.34623e-25)
(0.0128557 8.9521e-05 -4.23557e-24)
(0.0128981 8.39779e-05 5.4912e-24)
(0.0129366 7.79379e-05 7.02397e-25)
(0.0129714 7.15266e-05 1.24103e-23)
(0.0130027 6.48004e-05 -9.87095e-24)
(0.0130306 5.78375e-05 1.07862e-24)
(0.0130552 5.07062e-05 -9.47564e-25)
(0.0130767 4.34633e-05 -3.50687e-24)
(0.0130951 3.61547e-05 3.55838e-24)
(0.0131105 2.88241e-05 -1.15485e-23)
(0.013123 2.151e-05 4.40778e-25)
(0.0131326 1.42534e-05 2.78274e-24)
(0.0131395 7.08873e-06 1.92992e-24)
(0.0131436 2.69906e-08 8.38072e-25)
(0.0131451 -6.91993e-06 3.64627e-25)
(0.0110921 6.78723e-05 3.13389e-24)
(0.0111311 6.3613e-05 -2.45204e-24)
(0.0111666 5.90033e-05 -1.168e-23)
(0.0111986 5.41003e-05 1.09895e-23)
(0.0112273 4.89408e-05 1.6578e-23)
(0.0112528 4.35901e-05 -3.67674e-24)
(0.0112752 3.81025e-05 -8.73956e-24)
(0.0112945 3.25217e-05 -1.35145e-23)
(0.0113109 2.68862e-05 1.04327e-23)
(0.0113243 2.12303e-05 7.64033e-25)
(0.0113349 1.5589e-05 -2.63067e-24)
(0.0113426 9.99255e-06 -8.55865e-25)
(0.0113477 4.46422e-06 1.72433e-24)
(0.01135 -9.85074e-07 -1.11134e-26)
(0.0113498 -6.29959e-06 -4.13848e-25)
(0.00944465 5.0039e-05 -1.97028e-24)
(0.00947965 4.68934e-05 -1.52454e-24)
(0.00951153 4.35137e-05 1.70213e-24)
(0.00954035 3.99003e-05 -6.1124e-24)
(0.00956617 3.60852e-05 2.02733e-23)
(0.00958903 3.21215e-05 -2.79464e-23)
(0.00960901 2.80492e-05 2.8457e-23)
(0.00962614 2.39016e-05 -1.2341e-23)
(0.00964048 1.97088e-05 3.12381e-24)
(0.00965208 1.54972e-05 2.58825e-25)
(0.00966098 1.12955e-05 -2.48597e-24)
(0.00966724 7.12582e-06 1.1186e-24)
(0.00967089 3.01595e-06 -2.26067e-24)
(0.00967203 -1.02727e-06 -3.57386e-25)
(0.00967066 -4.97676e-06 1.92114e-25)
(0.00791626 3.57217e-05 -9.56458e-25)
(0.00794696 3.34986e-05 2.19839e-25)
(0.00797502 3.11266e-05 5.4324e-25)
(0.00800043 2.85692e-05 -2.75659e-24)
(0.0080232 2.58608e-05 -1.40655e-24)
(0.00804337 2.30408e-05 1.14264e-23)
(0.00806095 2.01373e-05 -6.81985e-24)
(0.00807597 1.71746e-05 1.07937e-24)
(0.00808847 1.41754e-05 -1.02369e-24)
(0.00809848 1.11596e-05 -1.23263e-24)
(0.00810602 8.14759e-06 -4.56239e-25)
(0.00811116 5.15865e-06 2.62349e-24)
(0.00811392 2.21519e-06 8.93679e-25)
(0.00811438 -6.71188e-07 -1.76321e-24)
(0.00811255 -3.49967e-06 -3.17661e-25)
(0.00650745 2.45162e-05 -3.47518e-25)
(0.00653374 2.30221e-05 -1.30834e-25)
(0.00655789 2.14373e-05 -6.01125e-24)
(0.00657982 1.97098e-05 1.40331e-24)
(0.00659952 1.7876e-05 -4.84601e-24)
(0.006617 1.59614e-05 2.96511e-24)
(0.00663225 1.3985e-05 6.36634e-24)
(0.00664527 1.19639e-05 5.20631e-24)
(0.0066561 9.914e-06 -7.52485e-24)
(0.00666474 7.84989e-06 2.28122e-24)
(0.00667121 5.78543e-06 2.18334e-24)
(0.00667556 3.73469e-06 -3.3901e-24)
(0.00667782 1.71386e-06 1.82485e-24)
(0.00667805 -2.52464e-07 -2.26954e-25)
(0.00667627 -2.19343e-06 5.92167e-25)
(0.00521661 1.59878e-05 -1.36005e-24)
(0.0052385 1.50425e-05 -1.97108e-24)
(0.00525874 1.40444e-05 -4.79009e-25)
(0.00527718 1.2943e-05 4.99164e-24)
(0.00529382 1.17718e-05 -3.73065e-24)
(0.00530862 1.05449e-05 -8.70132e-25)
(0.00532158 9.2744e-06 6.4384e-24)
(0.00533269 7.97168e-06 1.54595e-25)
(0.00534195 6.64738e-06 -1.31159e-24)
(0.00534937 5.3114e-06 -5.5936e-24)
(0.00535496 3.97288e-06 4.1477e-25)
(0.00535875 2.64076e-06 4.23683e-24)
(0.00536075 1.32478e-06 -5.59559e-25)
(0.00536103 5.06741e-08 -7.45205e-25)
(0.00535966 -1.19399e-06 5.14463e-25)
(0.00404032 9.71238e-06 -2.97045e-25)
(0.00405788 9.15817e-06 8.37701e-27)
(0.00407425 8.57635e-06 2.36293e-24)
(0.00408923 7.92644e-06 1.71921e-24)
(0.0041028 7.23453e-06 -1.03206e-24)
(0.00411495 6.50663e-06 -2.91293e-24)
(0.00412563 5.75006e-06 1.27316e-24)
(0.00413484 4.97175e-06 -5.5599e-24)
(0.00414257 4.1783e-06 4.32086e-24)
(0.00414882 3.37596e-06 2.46242e-24)
(0.0041536 2.57045e-06 1.46715e-25)
(0.00415691 1.76716e-06 -2.89722e-24)
(0.00415877 9.71099e-07 5.83638e-25)
(0.00415923 1.99933e-07 -4.94503e-25)
(0.00415838 -5.40378e-07 2.6201e-25)
(0.0029737 5.29566e-06 -5.46607e-25)
(0.00298706 5.00139e-06 -6.13246e-27)
(0.00299961 4.69704e-06 1.88135e-24)
(0.00301115 4.35425e-06 -1.18295e-24)
(0.00302167 3.98914e-06 5.25391e-24)
(0.00303114 3.6033e-06 -9.72548e-24)
(0.00303953 3.20073e-06 8.25657e-24)
(0.00304681 2.78522e-06 -7.18208e-24)
(0.00305298 2.3604e-06 5.39166e-24)
(0.00305803 1.92981e-06 -3.64224e-24)
(0.00306196 1.49669e-06 1.28146e-24)
(0.00306478 1.06416e-06 1.99338e-25)
(0.00306648 6.3506e-07 3.77287e-25)
(0.00306711 2.13634e-07 -4.71933e-25)
(0.00306674 -1.79278e-07 1.07329e-25)
(0.00201075 2.39464e-06 8.29e-25)
(0.00202006 2.25861e-06 9.50729e-25)
(0.00202887 2.12419e-06 -4.02297e-24)
(0.00203702 1.97314e-06 3.0118e-24)
(0.00204449 1.81253e-06 -2.80251e-27)
(0.00205127 1.6424e-06 8.87439e-25)
(0.00205731 1.46465e-06 -1.02204e-24)
(0.0020626 1.28102e-06 -2.35805e-24)
(0.00206714 1.09322e-06 2.40159e-24)
(0.0020709 9.02926e-07 3.13798e-25)
(0.00207389 7.11669e-07 -2.1694e-24)
(0.0020761 5.21115e-07 7.72171e-25)
(0.00207754 3.32476e-07 5.2693e-25)
(0.00207823 1.45673e-07 -5.70633e-26)
(0.0020782 -2.48936e-08 -7.24398e-26)
(0.00114473 7.52208e-07 -8.36225e-25)
(0.00115015 7.12175e-07 2.61089e-24)
(0.00115533 6.76742e-07 1.68259e-24)
(0.00116015 6.35015e-07 -2.90544e-24)
(0.00116459 5.88732e-07 -3.46831e-25)
(0.00116866 5.38095e-07 -3.31457e-25)
(0.00117231 4.84001e-07 1.07514e-24)
(0.00117554 4.27235e-07 -1.86095e-24)
(0.00117834 3.68532e-07 2.67522e-24)
(0.0011807 3.08616e-07 -1.30581e-24)
(0.00118261 2.48085e-07 -9.41716e-25)
(0.00118407 1.87796e-07 5.96545e-25)
(0.00118508 1.28058e-07 -8.15385e-25)
(0.00118565 6.91019e-08 8.49482e-25)
(0.0011858 1.75614e-08 -1.58718e-25)
(0.00036845 1.39774e-07 -5.968e-27)
(0.000370176 1.74745e-07 5.12053e-25)
(0.000371847 2.04352e-07 6.21991e-25)
(0.000373414 2.25349e-07 -9.43306e-25)
(0.00037488 2.38313e-07 2.11916e-24)
(0.000376233 2.43668e-07 -2.29045e-24)
(0.000377465 2.41939e-07 1.63258e-25)
(0.000378568 2.33586e-07 1.43575e-24)
(0.000379537 2.19036e-07 -1.99154e-24)
(0.000380367 1.98723e-07 -4.16932e-25)
(0.000381055 1.73017e-07 1.55561e-24)
(0.0003816 1.42446e-07 -7.04549e-25)
(0.000382001 1.07269e-07 -3.05904e-25)
(0.000382254 6.81074e-08 2.62189e-25)
(0.00038237 2.71987e-08 -1.31869e-26)
(0.000889525 -0.000237339 8.8451e-26)
(0.00101649 -0.000160484 2.30814e-24)
(0.00123075 -7.97535e-05 -6.69829e-24)
(0.0014497 -1.2458e-05 9.85887e-24)
(0.00166023 4.32468e-05 -3.69981e-24)
(0.00186748 8.82274e-05 -3.6445e-24)
(0.00207191 0.000124577 4.18388e-24)
(0.00227451 0.000154053 -8.38038e-24)
(0.00247629 0.00017801 4.71675e-25)
(0.00267796 0.0001975 5.36747e-24)
(0.00288007 0.000213381 -1.04824e-24)
(0.00308307 0.00022642 1.15728e-24)
(0.00328749 0.000237282 -1.00099e-25)
(0.0034941 0.000246575 7.92996e-25)
(0.00370397 0.000254877 -2.92928e-24)
(0.00391861 0.000262601 1.62928e-24)
(0.00414021 0.000269835 -5.6088e-25)
(0.00437187 0.000276304 1.62953e-26)
(0.00461795 0.000281034 1.42212e-24)
(0.00488394 0.000281811 -9.03541e-25)
(0.00517644 0.000273928 1.14408e-25)
(0.00550017 0.000249391 -9.94864e-26)
(0.00582878 0.000198045 1.77864e-25)
(0.00611928 0.000121587 6.42046e-25)
(0.00635694 2.76066e-05 -1.15582e-24)
(0.00654138 -7.87727e-05 -7.06285e-25)
(0.00667515 -0.000193326 7.93801e-26)
(0.00676155 -0.000311698 1.66022e-24)
(0.00680303 -0.000430065 1.96868e-24)
(0.00680138 -0.000545217 -3.82024e-24)
(0.00675807 -0.000653671 2.49329e-24)
(0.00667443 -0.000751207 -1.71958e-24)
(0.0065518 -0.000832766 1.82496e-25)
(0.00639177 -0.000892461 -1.49763e-24)
(0.00619619 -0.000923612 1.44694e-24)
(0.00596713 -0.000918699 9.21267e-24)
(0.0057068 -0.000869078 -2.62556e-24)
(0.00541754 -0.000764252 2.23629e-24)
(0.00510189 -0.000590503 1.14981e-24)
(0.00476313 -0.000329278 -1.31958e-23)
(0.00440421 4.17637e-05 -1.60143e-25)
(0.00402906 0.000537468 5.52714e-24)
(0.0036245 0.00112955 1.80921e-24)
(0.00320541 0.00169489 -7.78781e-24)
(0.00296641 0.00184977 -3.92606e-25)
(0.00167416 -0.000314176 -2.62167e-24)
(0.00172569 -0.000270265 -3.77046e-24)
(0.0018564 -0.00019223 7.86238e-24)
(0.00202157 -0.000117986 3.76052e-24)
(0.00219773 -5.25173e-05 -1.31674e-23)
(0.00238061 2.313e-06 1.41836e-23)
(0.00256669 4.75325e-05 -5.10081e-24)
(0.00275476 8.48238e-05 4.1702e-24)
(0.00294454 0.000115654 -5.50763e-24)
(0.00313601 0.000141216 5.31742e-26)
(0.00332934 0.00016249 -3.07175e-24)
(0.00352474 0.000180329 6.1331e-24)
(0.00372256 0.00019544 -3.46306e-24)
(0.00392348 0.000208449 -3.32843e-24)
(0.00412847 0.000219953 -2.45142e-24)
(0.00433892 0.000230366 4.3074e-24)
(0.00455684 0.000239755 -6.41e-25)
(0.00478513 0.000247829 2.56906e-24)
(0.00502783 0.000253612 4.76033e-25)
(0.00529001 0.000254935 -8.12912e-25)
(0.00557778 0.000247291 -3.51785e-25)
(0.00589552 0.000223121 -2.06526e-25)
(0.0062176 0.0001729 9.70621e-25)
(0.00650253 9.87305e-05 1.07891e-24)
(0.00673618 8.1584e-06 -1.05777e-24)
(0.00691812 -9.39035e-05 -4.45001e-24)
(0.0070507 -0.000203409 5.78203e-24)
(0.00713707 -0.000316008 -3.79102e-24)
(0.00717954 -0.000427766 1.24844e-24)
(0.00717993 -0.000535376 -5.3975e-25)
(0.00713984 -0.000635295 3.49231e-24)
(0.00706084 -0.000723281 -3.27072e-24)
(0.00694467 -0.000794301 -3.28672e-25)
(0.00679341 -0.000842529 7.83775e-24)
(0.0066096 -0.000861368 -1.32705e-23)
(0.00639625 -0.00084339 3.61285e-24)
(0.00615698 -0.000780082 1.63513e-23)
(0.00589622 -0.000661228 -4.58192e-24)
(0.00561985 -0.000473752 -1.29675e-23)
(0.0053368 -0.000200218 -7.73049e-24)
(0.00506042 0.00018052 1.76468e-23)
(0.00481352 0.000684024 -1.70351e-23)
(0.00462028 0.00128248 -4.00121e-24)
(0.00451995 0.00184163 1.1152e-23)
(0.00455891 0.00193804 3.79561e-24)
(0.00260225 -0.000320069 -3.00101e-26)
(0.00260735 -0.000314841 -4.2828e-24)
(0.00266092 -0.000267531 8.37392e-24)
(0.00276323 -0.000203349 7.22151e-24)
(0.00289147 -0.000138534 -1.174e-23)
(0.00303728 -7.97757e-05 2.33545e-25)
(0.00319426 -2.89537e-05 1.1567e-24)
(0.00335887 1.43297e-05 1.27876e-23)
(0.00352919 5.10079e-05 -1.51873e-23)
(0.00370415 8.20656e-05 9.53824e-24)
(0.00388325 0.000108415 3.0691e-24)
(0.00406629 0.000130895 -1.64693e-23)
(0.00425333 0.000150187 5.97451e-24)
(0.00444485 0.0001669 2.51262e-24)
(0.00464167 0.000181633 -5.52123e-24)
(0.00484498 0.000194786 9.25668e-24)
(0.00505661 0.000206396 -6.7626e-24)
(0.00527919 0.000216146 -2.38391e-25)
(0.00551643 0.000223061 5.11914e-25)
(0.0057729 0.000225014 6.2093e-25)
(0.00605422 0.0002177 8.43787e-26)
(0.00636429 0.000194001 3.76859e-25)
(0.00667825 0.000145018 -9.70754e-25)
(0.00695622 7.32572e-05 2.81652e-24)
(0.00718466 -1.37583e-05 -4.24318e-24)
(0.00736309 -0.000111309 2.40244e-24)
(0.00749364 -0.000215546 -4.93152e-24)
(0.00757931 -0.000322119 6.59828e-24)
(0.0076223 -0.000426971 -5.22764e-24)
(0.00762443 -0.000526698 9.07005e-25)
(0.00758748 -0.000617705 1.16824e-24)
(0.0075133 -0.000695747 3.89655e-24)
(0.00740404 -0.000755848 -8.8295e-25)
(0.00726232 -0.000792306 4.10655e-24)
(0.00709141 -0.000798725 -1.18611e-23)
(0.00689534 -0.000767989 2.07211e-23)
(0.00667917 -0.000692104 -1.42367e-23)
(0.00644943 -0.000561811 2.09362e-23)
(0.00621509 -0.000365953 -3.99937e-23)
(0.00598974 -9.07642e-05 1.52226e-23)
(0.00579405 0.000278559 5.28994e-24)
(0.00566035 0.000749029 8.40635e-24)
(0.00562484 0.00128566 -1.04695e-23)
(0.00571042 0.00175642 3.18813e-24)
(0.00588767 0.00182788 -1.97702e-24)
(0.00365923 -0.000301205 -1.12368e-24)
(0.00363766 -0.00032004 -1.74221e-24)
(0.00364325 -0.000300662 -7.51367e-24)
(0.00368521 -0.000259013 1.96471e-24)
(0.00376114 -0.000204833 1.30667e-24)
(0.0038616 -0.000149712 6.05735e-24)
(0.00398032 -9.84764e-05 -1.29632e-23)
(0.00411273 -5.26238e-05 4.86661e-24)
(0.00425562 -1.23436e-05 1.68318e-23)
(0.00440693 2.27181e-05 -4.41245e-24)
(0.00456543 5.31379e-05 -4.27916e-24)
(0.00473039 7.9573e-05 -7.02149e-25)
(0.00490152 0.000102575 2.40729e-24)
(0.00507901 0.000122666 -4.82e-24)
(0.00526348 0.000140407 1.06678e-24)
(0.00545587 0.000156157 -5.08948e-25)
(0.00565779 0.000169898 -2.81828e-24)
(0.0058716 0.000181276 8.81671e-25)
(0.00610061 0.00018931 5.085e-24)
(0.00634889 0.000191914 -5.70684e-25)
(0.00662146 0.000184989 -1.20134e-24)
(0.00692168 0.000161863 -3.24583e-25)
(0.00722548 0.000114264 -1.71172e-24)
(0.00749468 4.50897e-05 8.13991e-27)
(0.00771634 -3.81475e-05 -3.60014e-24)
(0.00788985 -0.000130919 6.41755e-24)
(0.0080172 -0.000229592 -4.9554e-24)
(0.00810121 -0.000329815 9.30147e-24)
(0.00814398 -0.000427402 -7.30165e-24)
(0.00814735 -0.000518866 1.87723e-24)
(0.0081133 -0.000600597 2.36017e-24)
(0.00804398 -0.000668385 -2.58737e-25)
(0.00794198 -0.000717383 -3.96184e-25)
(0.0078105 -0.000742128 -1.41185e-24)
(0.00765354 -0.000736599 1.78776e-24)
(0.00747613 -0.000694267 -6.4732e-24)
(0.00728463 -0.00060809 3.03072e-23)
(0.00708733 -0.000470446 -1.61018e-23)
(0.00689544 -0.000273145 -5.78112e-25)
(0.00672498 -7.73171e-06 -3.59488e-23)
(0.0065987 0.000331966 2.72465e-23)
(0.00654796 0.000742443 -1.01644e-23)
(0.00660436 0.00118685 2.11578e-24)
(0.00677366 0.00156306 1.3521e-23)
(0.00701056 0.00167208 -3.51661e-24)
(0.00484238 -0.000271992 -4.6644e-24)
(0.00481037 -0.000301563 9.55667e-24)
(0.00478852 -0.000300332 2.72561e-24)
(0.00478991 -0.000281449 1.19187e-23)
(0.00481692 -0.000245027 -2.94003e-23)
(0.00487105 -0.00020008 -8.63565e-25)