/*--------------------------------*- C++ -*----------------------------------*\
| =========                 |                                                 |
| \\      /  F ield         | OpenFOAM: The Open Source CFD Toolbox           |
|  \\    /   O peration     | Version:  2312                                  |
|   \\  /    A nd           | Website:  www.openfoam.com                      |
|    \\/     M anipulation  |                                                 |
\*---------------------------------------------------------------------------*/
FoamFile
{
    version     2.0;
    format      ascii;
    arch        "LSB;label=32;scalar=64";
    class       volVectorField;
    location    "33";
    object      U;
}
// * * * * * * * * * * * * * * * * * * * * * * * * * * * * * * * * * * * * * //

dimensions      [0 1 -1 0 0 0 0];

internalField   nonuniform List<vector> 
4800
(
(0.000487258 1.87282e-07 -2.01605e-26)
(0.000483562 1.91655e-07 -1.44758e-25)
(0.000482296 1.94086e-07 1.84757e-25)
(0.000482473 2.04468e-07 8.83906e-26)
(0.000483672 2.14037e-07 1.34652e-24)
(0.000485586 2.09884e-07 -3.24037e-24)
(0.000488121 1.66909e-07 3.08765e-24)
(0.000491327 7.42577e-08 -4.5738e-24)
(0.000495324 -8.83282e-08 1.44451e-24)
(0.000500328 -3.62843e-07 5.13208e-24)
(0.000506807 -9.08299e-07 -1.57615e-24)
(0.000516111 -2.40056e-06 -1.22133e-25)
(0.000535933 -7.91141e-06 -1.98489e-24)
(0.000585163 -3.02886e-05 9.44865e-25)
(0.00066556 -9.7965e-05 -7.55573e-25)
(0.00151096 9.31119e-07 -6.3939e-26)
(0.00149919 4.73309e-07 7.97658e-26)
(0.00149449 1.19405e-07 -7.64296e-25)
(0.00149405 -1.70524e-07 5.61022e-25)
(0.00149656 -4.62091e-07 1.90381e-24)
(0.00150116 -7.67476e-07 -3.09881e-24)
(0.00150763 -1.18326e-06 -9.413e-25)
(0.00151598 -1.78047e-06 -2.65704e-25)
(0.00152654 -2.66845e-06 7.64558e-24)
(0.0015399 -4.08329e-06 -5.70249e-24)
(0.00155738 -6.71775e-06 6.20434e-25)
(0.00158185 -1.28965e-05 9.71348e-25)
(0.00162271 -3.07433e-05 -1.46068e-24)
(0.00169093 -8.54897e-05 -4.62994e-25)
(0.00176322 -0.000209159 1.93874e-24)
(0.00264603 3.02691e-06 -4.58255e-26)
(0.00262519 1.61199e-06 4.67343e-26)
(0.00261603 5.49353e-07 4.99146e-25)
(0.00261394 -3.58903e-07 -1.19458e-24)
(0.00261675 -1.27886e-06 1.19263e-24)
(0.00262292 -2.26978e-06 1.18856e-24)
(0.00263229 -3.54053e-06 -3.08152e-24)
(0.00264464 -5.2796e-06 -1.98097e-24)
(0.00266034 -7.80143e-06 4.711e-24)
(0.00268013 -1.17398e-05 1.83433e-24)
(0.00270551 -1.86447e-05 -6.36475e-24)
(0.00273876 -3.26327e-05 -1.0161e-24)
(0.00278415 -6.36622e-05 2.75031e-24)
(0.00284026 -0.000132468 4.43979e-24)
(0.00288042 -0.000247578 -2.30393e-24)
(0.00389768 6.82321e-06 1.69443e-26)
(0.00386717 3.83346e-06 -1.19084e-25)
(0.00385265 1.60119e-06 5.417e-25)
(0.00384781 -3.24596e-07 5.9892e-25)
(0.00384989 -2.18066e-06 -5.63494e-25)
(0.00385634 -4.2317e-06 -3.54056e-24)
(0.00386728 -6.85353e-06 -2.54933e-24)
(0.00388209 -1.0326e-05 9.38208e-24)
(0.00390097 -1.52471e-05 4.02794e-24)
(0.00392445 -2.26635e-05 -5.69343e-24)
(0.0039534 -3.47289e-05 -2.33083e-24)
(0.00398836 -5.60866e-05 -1.8154e-24)
(0.00402854 -9.4991e-05 4.58286e-26)
(0.00406645 -0.000162167 1.36047e-24)
(0.00408281 -0.000252953 6.68141e-27)
(0.00526802 1.26613e-05 -3.10623e-26)
(0.00522804 7.41243e-06 -1.92164e-25)
(0.00520772 3.50972e-06 -1.3022e-25)
(0.00519931 1.92745e-07 3.32555e-25)
(0.00519967 -3.10135e-06 -9.90637e-25)
(0.00520524 -6.47061e-06 2.48132e-24)
(0.00521624 -1.08829e-05 -4.30712e-25)
(0.00523177 -1.65642e-05 1.64816e-24)
(0.00525157 -2.43404e-05 -9.15067e-24)
(0.0052757 -3.55248e-05 1.75881e-23)
(0.00530404 -5.23182e-05 -1.71643e-23)
(0.00533541 -7.84813e-05 9.163e-24)
(0.00536641 -0.000118916 -8.58391e-24)
(0.00538916 -0.000176948 8.13685e-24)
(0.00539277 -0.000245108 -3.25214e-24)
(0.00675415 2.083e-05 4.08967e-26)
(0.00670641 1.26353e-05 1.48267e-25)
(0.00668083 6.56893e-06 -7.92495e-25)
(0.00666882 1.4123e-06 -5.31924e-25)
(0.00666652 -3.56732e-06 1.37242e-24)
(0.00667062 -8.69394e-06 5.12471e-25)
(0.00668039 -1.51824e-05 -4.12413e-24)
(0.00669492 -2.3345e-05 9.98524e-24)
(0.00671349 -3.40842e-05 -1.31665e-23)
(0.00673554 -4.87265e-05 3.13429e-24)
(0.00676006 -6.90333e-05 9.84968e-24)
(0.00678491 -9.72446e-05 -1.38151e-23)
(0.0068063 -0.000135184 6.94088e-24)
(0.00681848 -0.00018233 7.1659e-24)
(0.00681655 -0.000232475 -5.46183e-24)
(0.00834604 3.12942e-05 3.35476e-26)
(0.00829459 1.95752e-05 -2.00417e-25)
(0.00826591 1.09243e-05 7.31784e-25)
(0.00825139 3.61831e-06 -1.03043e-24)
(0.00824663 -3.26705e-06 -3.6405e-24)
(0.00824898 -1.05698e-05 6.22075e-24)
(0.00825686 -1.9233e-05 -3.87772e-24)
(0.00826916 -2.98706e-05 1.34798e-23)
(0.00828488 -4.3329e-05 -9.15797e-24)
(0.00830297 -6.0672e-05 -4.36678e-24)
(0.00832187 -8.29732e-05 -8.75736e-24)
(0.0083393 -0.000111049 8.04506e-24)
(0.00835227 -0.000144766 2.282e-24)
(0.00835741 -0.00018225 1.96137e-24)
(0.00835325 -0.000219287 -1.72765e-24)
(0.0100247 4.3309e-05 -4.75641e-26)
(0.00997659 2.77779e-05 6.58457e-25)
(0.00994918 1.63164e-05 -1.55595e-24)
(0.00993487 6.71431e-06 -1.3422e-24)
(0.00992946 -2.32307e-06 4.45259e-25)
(0.00993064 -1.17269e-05 9.60482e-25)
(0.00993677 -2.25485e-05 3.66983e-24)
(0.00994655 -3.54361e-05 -1.02187e-23)
(0.00995881 -5.10656e-05 -5.65603e-24)
(0.00997222 -7.01019e-05 1.52457e-23)
(0.00998519 -9.29346e-05 -4.83025e-24)
(0.00999577 -0.000119416 1.65328e-23)
(0.0100021 -0.000148559 -8.73327e-24)
(0.0100026 -0.000178464 -2.79248e-24)
(0.00999726 -0.000206537 1.65448e-24)
(0.0117627 5.49746e-05 -6.09161e-27)
(0.0117276 3.58741e-05 3.60075e-25)
(0.0117081 2.17378e-05 -5.15971e-25)
(0.0116985 9.93808e-06 1.29113e-24)
(0.0116958 -1.11188e-06 -7.8602e-24)
(0.0116979 -1.24858e-05 8.35062e-24)
(0.0117036 -2.51684e-05 -1.36157e-23)
(0.0117118 -3.97913e-05 8.29945e-24)
(0.0117211 -5.68048e-05 6.32419e-24)
(0.0117305 -7.64602e-05 1.40302e-23)
(0.0117385 -9.8634e-05 -1.83774e-23)
(0.0117438 -0.00012271 -3.44508e-24)
(0.0117456 -0.00014756 1.58057e-24)
(0.0117431 -0.00017174 1.13557e-23)
(0.0117372 -0.000193753 -4.61923e-24)
(0.0135293 6.2991e-05 3.12938e-26)
(0.0135175 4.12816e-05 -1.45259e-25)
(0.0135135 2.51053e-05 6.81876e-25)
(0.0135144 1.15865e-05 -2.45162e-24)
(0.0135186 -1.0653e-06 3.78004e-24)
(0.013525 -1.39126e-05 -5.00177e-24)
(0.0135328 -2.78835e-05 8.52312e-24)
(0.0135413 -4.34952e-05 1.60252e-24)
(0.0135495 -6.09662e-05 -1.20438e-23)
(0.0135566 -8.02284e-05 1.73916e-23)
(0.0135617 -0.000100877 -1.92615e-23)
(0.013564 -0.000122189 -5.72551e-24)
(0.0135634 -0.000143221 1.00919e-23)
(0.0135597 -0.000163025 2.99702e-24)
(0.0135538 -0.000180777 -1.30902e-24)
(0.0153032 6.32524e-05 1.06989e-25)
(0.0153207 4.04802e-05 -1.09588e-24)
(0.0153376 2.33493e-05 -1.93224e-24)
(0.0153536 8.96329e-06 4.49791e-24)
(0.0153686 -4.51464e-06 2.12976e-24)
(0.0153826 -1.80633e-05 -1.34066e-23)
(0.0153953 -3.24945e-05 4.04527e-24)
(0.0154066 -4.81715e-05 2.97933e-24)
(0.0154161 -6.51251e-05 -1.35044e-23)
(0.0154233 -8.31053e-05 1.39775e-23)
(0.0154279 -0.000101624 -1.13871e-23)
(0.0154297 -0.000120049 2.922e-23)
(0.015429 -0.000137699 -1.40817e-23)
(0.0154256 -0.000154008 8.29506e-24)
(0.0154209 -0.000168542 -2.26192e-24)
(0.0170871 5.2903e-05 -1.90411e-26)
(0.0171307 3.04969e-05 6.96785e-25)
(0.0171676 1.3545e-05 -1.47137e-24)
(0.017199 -8.06005e-07 -8.24122e-25)
(0.0172257 -1.41116e-05 9.08811e-24)
(0.0172484 -2.74372e-05 -1.19279e-24)
(0.0172675 -4.13797e-05 -1.67038e-23)
(0.0172833 -5.61597e-05 1.97546e-23)
(0.0172958 -7.16913e-05 -4.41104e-24)
(0.017305 -8.76698e-05 -1.56496e-23)
(0.0173112 -0.000103649 1.67812e-23)
(0.0173144 -0.000119151 9.08871e-24)
(0.0173153 -0.000133731 -7.65939e-24)
(0.0173137 -0.000147068 -1.32495e-23)
(0.0173111 -0.000158953 1.11021e-24)
(0.0189087 3.28771e-05 -2.15695e-26)
(0.0189659 1.12134e-05 -7.36129e-25)
(0.0190144 -4.95217e-06 3.89844e-24)
(0.0190553 -1.85769e-05 4.11168e-25)
(0.0190899 -3.1058e-05 2.56294e-24)
(0.0191188 -4.34029e-05 -8.74802e-24)
(0.0191428 -5.60674e-05 7.71749e-24)
(0.0191622 -6.91789e-05 1.86523e-24)
(0.0191775 -8.26198e-05 1.62934e-23)
(0.0191891 -9.61216e-05 -2.50477e-23)
(0.0191975 -0.000109342 -1.14256e-23)
(0.0192028 -0.000121959 -7.57024e-24)
(0.0192058 -0.000133693 1.4273e-23)
(0.0192066 -0.000144375 -4.06556e-25)
(0.0192063 -0.000153911 1.37978e-24)
(0.0207942 7.68982e-06 -2.38952e-26)
(0.0208509 -1.34606e-05 6.89082e-25)
(0.0208996 -2.90093e-05 -1.02442e-24)
(0.0209412 -4.17691e-05 -1.78235e-26)
(0.0209766 -5.32845e-05 1.70628e-24)
(0.0210063 -6.43732e-05 4.50989e-24)
(0.021031 -7.54087e-05 -1.75304e-23)
(0.021051 -8.65074e-05 1.37788e-24)
(0.021067 -9.75944e-05 9.05597e-24)
(0.0210793 -0.000108485 -4.23898e-24)
(0.0210885 -0.000118965 1.15598e-23)
(0.0210949 -0.00012885 8.10198e-24)
(0.0210994 -0.000137978 -1.47189e-23)
(0.0211017 -0.000146263 1.00313e-23)
(0.021103 -0.000153667 -8.33939e-24)
(0.0227322 -1.78787e-05 -5.77583e-25)
(0.0227804 -3.87343e-05 5.51887e-25)
(0.0228222 -5.39534e-05 1.19316e-24)
(0.0228579 -6.60692e-05 -7.24768e-24)
(0.0228885 -7.66209e-05 6.47739e-24)
(0.0229141 -8.64005e-05 -5.10147e-24)
(0.0229355 -9.5761e-05 3.60771e-24)
(0.0229528 -0.000104853 -2.67104e-23)
(0.0229667 -0.00011368 3.85735e-23)
(0.0229774 -0.00012213 -2.29326e-23)
(0.0229855 -0.000130104 2.05255e-23)
(0.0229913 -0.000137529 1.71695e-23)
(0.0229955 -0.000144326 -3.0009e-23)
(0.0229979 -0.000150469 9.75276e-24)
(0.0229995 -0.000155951 -4.08366e-25)
(0.024662 -4.16688e-05 -1.88056e-26)
(0.0247006 -6.21591e-05 3.41171e-25)
(0.0247337 -7.69215e-05 -4.10577e-25)
(0.0247618 -8.83389e-05 -2.01559e-25)
(0.0247856 -9.78454e-05 2.63241e-24)
(0.0248055 -0.00010623 -4.63082e-24)
(0.0248218 -0.000113869 4.44384e-24)
(0.0248349 -0.000120999 -1.43784e-23)
(0.0248453 -0.000127721 3.29672e-23)
(0.0248532 -0.000133941 -4.24433e-23)
(0.0248591 -0.000139695 3.48807e-23)
(0.0248631 -0.000144968 -1.18001e-23)
(0.0248659 -0.00014968 6.04973e-25)
(0.0248673 -0.000153866 2.67203e-24)
(0.024868 -0.000157564 -5.15149e-24)
(0.0264868 -6.37665e-05 -1.48498e-24)
(0.0265177 -8.33498e-05 3.11255e-24)
(0.0265434 -9.72205e-05 -1.55842e-24)
(0.0265648 -0.000107551 -7.5573e-25)
(0.0265825 -0.000115782 3.84111e-24)
(0.0265971 -0.000122641 -4.07314e-24)
(0.0266088 -0.000128479 -3.9889e-24)
(0.0266179 -0.000133657 -9.8393e-24)
(0.0266248 -0.000138422 4.87216e-24)
(0.0266298 -0.000142457 2.40388e-23)
(0.0266333 -0.000146183 -1.27358e-23)
(0.0266353 -0.000149537 7.60189e-24)
(0.0266366 -0.000152368 -3.14582e-24)
(0.0266365 -0.000154736 -9.23448e-24)
(0.0266359 -0.000156714 4.7169e-24)
(0.0280852 -8.50617e-05 4.72683e-25)
(0.0281102 -0.000102863 -8.52809e-25)
(0.0281303 -0.000115327 -7.29611e-25)
(0.0281463 -0.00012411 8.11279e-25)
(0.0281592 -0.000130638 -1.54484e-24)
(0.0281694 -0.000135722 6.01755e-24)
(0.0281772 -0.000139549 -5.11597e-24)
(0.028183 -0.000142708 -3.53917e-24)
(0.0281871 -0.000145612 3.20118e-24)
(0.0281897 -0.000147478 -3.88611e-24)
(0.028191 -0.000149242 8.78928e-24)
(0.0281906 -0.000150946 3.26022e-24)
(0.0281899 -0.000151607 -9.57285e-24)
(0.0281885 -0.000152042 6.49137e-24)
(0.0281875 -0.000152232 -1.68883e-24)
(0.0293012 -0.000106671 1.36379e-24)
(0.0293203 -0.000121817 2.37999e-24)
(0.0293348 -0.000131983 -5.27004e-24)
(0.0293457 -0.000138794 -5.4697e-25)
(0.0293537 -0.000143097 1.61957e-24)
(0.0293598 -0.000146146 -2.01514e-24)
(0.0293636 -0.000147548 -3.6002e-24)
(0.0293662 -0.000148945 7.41558e-24)
(0.0293672 -0.000148903 6.49682e-24)
(0.029367 -0.000148524 -1.2429e-23)
(0.0293662 -0.000147863 7.04002e-24)
(0.0293649 -0.000147134 -5.16508e-25)
(0.0293629 -0.000146337 -5.10505e-25)
(0.0293601 -0.000145391 8.24353e-25)
(0.0293567 -0.000144123 -4.13912e-25)
(0.0299131 -0.000123382 -3.51689e-24)
(0.029924 -0.000135351 -7.30289e-24)
(0.0299316 -0.000142987 4.26158e-24)
(0.0299369 -0.000147526 1.28303e-23)
(0.0299402 -0.000149829 -3.50261e-24)
(0.0299421 -0.000150702 -6.58763e-25)
(0.0299429 -0.000150295 1.86186e-25)
(0.0299427 -0.00014934 -4.62732e-24)
(0.0299417 -0.000147831 1.26836e-23)
(0.0299399 -0.000145737 -5.7735e-24)
(0.0299374 -0.000143435 3.00849e-24)
(0.0299343 -0.00014104 -4.92639e-24)
(0.0299307 -0.00013843 -5.34849e-24)
(0.0299266 -0.000135532 7.90528e-24)
(0.0299224 -0.000132346 -3.41361e-24)
(0.0297426 -0.000134885 5.4726e-24)
(0.029749 -0.000143492 -1.22691e-23)
(0.0297527 -0.000148827 2.26101e-24)
(0.0297542 -0.00015082 1.5234e-23)
(0.0297542 -0.000151215 -1.39492e-23)
(0.0297531 -0.000150509 4.02304e-24)
(0.029751 -0.000148625 3.62624e-25)
(0.0297481 -0.000146004 -3.35052e-25)
(0.0297445 -0.000142886 3.10269e-24)
(0.0297403 -0.000139379 -3.09496e-24)
(0.0297357 -0.000135557 -2.57467e-24)
(0.0297307 -0.000131461 3.49847e-24)
(0.0297254 -0.000127103 -3.90579e-24)
(0.0297199 -0.0001225 2.36358e-24)
(0.0297141 -0.000117681 -1.04824e-24)
(0.028769 -0.000140967 3.33682e-24)
(0.0287695 -0.000146345 -6.83885e-24)
(0.028768 -0.000148967 -3.96094e-24)
(0.0287652 -0.00014941 1.86938e-23)
(0.0287614 -0.000148208 -1.58335e-23)
(0.0287568 -0.000145761 2.10416e-24)
(0.0287515 -0.000142378 2.17872e-24)
(0.0287458 -0.000138318 6.09122e-25)
(0.0287397 -0.000133748 -5.97782e-25)
(0.0287333 -0.000128771 5.55209e-24)
(0.0287266 -0.000123458 -3.33334e-24)
(0.0287198 -0.000117878 9.79321e-25)
(0.0287127 -0.000112079 -8.42667e-24)
(0.0287055 -0.000106099 4.13428e-24)
(0.0286981 -9.99561e-05 1.46025e-24)
(0.0272479 -0.000139274 8.1958e-24)
(0.0272431 -0.000142476 -1.41892e-23)
(0.0272369 -0.000143388 2.99876e-24)
(0.0272299 -0.000142365 -5.21128e-24)
(0.0272222 -0.000139848 -5.15983e-24)
(0.027214 -0.000136206 2.00069e-23)
(0.0272054 -0.000131728 -6.54505e-24)
(0.0271967 -0.000126628 1.19913e-24)
(0.0271879 -0.000121059 -3.8069e-25)
(0.027179 -0.000115118 1.52898e-24)
(0.0271701 -0.000108886 -4.26182e-24)
(0.0271611 -0.000102421 4.4837e-24)
(0.0271522 -9.57653e-05 -2.49437e-25)
(0.0271432 -8.89405e-05 -1.84865e-24)
(0.0271342 -8.19618e-05 3.14171e-25)
(0.0253757 -0.000133002 3.12972e-24)
(0.0253649 -0.000134267 -1.53033e-23)
(0.0253532 -0.000133431 2.50653e-23)
(0.0253413 -0.000131016 -1.78394e-23)
(0.0253291 -0.00012746 1.5174e-23)
(0.0253169 -0.000123026 -5.74049e-24)
(0.0253048 -0.000117901 -3.32805e-24)
(0.0252928 -0.000112234 -2.26752e-24)
(0.0252811 -0.000106139 1.33666e-24)
(0.0252697 -9.97047e-05 -2.00163e-24)
(0.0252584 -9.29939e-05 1.21368e-24)
(0.0252474 -8.60543e-05 1.23898e-24)
(0.0252366 -7.89233e-05 -2.01402e-24)
(0.0252261 -7.16298e-05 7.59088e-25)
(0.0252158 -6.41994e-05 -2.34778e-25)
(0.023292 -0.000121405 4.14654e-25)
(0.023275 -0.000120891 -5.67495e-24)
(0.0232579 -0.000118812 -2.46038e-24)
(0.0232413 -0.000115629 2.23026e-23)
(0.023225 -0.000111587 -2.03881e-23)
(0.0232092 -0.000106829 5.57129e-24)
(0.023194 -0.000101484 7.52891e-25)
(0.0231794 -9.56611e-05 -2.86508e-25)
(0.0231653 -8.94557e-05 -5.38429e-25)
(0.0231519 -8.29439e-05 4.68147e-25)
(0.023139 -7.61783e-05 3.94214e-25)
(0.0231266 -6.92082e-05 5.49126e-25)
(0.0231148 -6.20681e-05 -5.26195e-25)
(0.0231035 -5.47957e-05 -1.41757e-24)
(0.0230927 -4.74123e-05 1.21521e-24)
(0.0211047 -0.000104938 6.16018e-25)
(0.0210829 -0.000103708 5.19928e-24)
(0.0210618 -0.000101323 -6.03236e-24)
(0.0210419 -9.80289e-05 -3.51315e-24)
(0.0210229 -9.40021e-05 2.02223e-23)
(0.021005 -8.93769e-05 -1.54796e-23)
(0.020988 -8.42596e-05 -5.99135e-25)
(0.020972 -7.87377e-05 -2.03606e-24)
(0.020957 -7.28842e-05 1.60387e-25)
(0.0209429 -6.6757e-05 3.97684e-25)
(0.0209296 -6.04058e-05 7.68373e-25)
(0.0209173 -5.38729e-05 2.24115e-25)
(0.0209057 -4.71968e-05 2.08061e-25)
(0.0208951 -4.04074e-05 -1.19833e-25)
(0.0208852 -3.35352e-05 -1.06674e-24)
(0.0189011 -8.71433e-05 4.3938e-24)
(0.018877 -8.58215e-05 -6.60353e-24)
(0.0188544 -8.35482e-05 -4.5308e-24)
(0.0188334 -8.05443e-05 1.3642e-23)
(0.0188137 -7.69542e-05 -4.91845e-24)
(0.0187954 -7.28766e-05 -5.43064e-24)
(0.0187784 -6.83824e-05 2.04988e-24)
(0.0187627 -6.35373e-05 2.90482e-24)
(0.0187482 -5.83953e-05 -3.29216e-24)
(0.0187349 -5.30071e-05 2.06325e-24)
(0.0187228 -4.74165e-05 -2.03376e-25)
(0.0187117 -4.16589e-05 -4.76511e-25)
(0.0187018 -3.57697e-05 2.06482e-24)
(0.018693 -2.97816e-05 -2.7546e-24)
(0.0186851 -2.37296e-05 9.80428e-25)
(0.0167502 -7.03021e-05 -8.54894e-25)
(0.0167264 -6.92148e-05 -2.72492e-24)
(0.0167043 -6.73739e-05 -7.96284e-24)
(0.016684 -6.49645e-05 2.21008e-23)
(0.0166652 -6.20767e-05 -4.41094e-24)
(0.016648 -5.87753e-05 -5.43933e-24)
(0.0166322 -5.51135e-05 1.30058e-24)
(0.0166179 -5.1139e-05 -1.98972e-24)
(0.0166049 -4.68955e-05 -2.37209e-24)
(0.0165933 -4.24217e-05 2.40924e-24)
(0.0165829 -3.77577e-05 1.05717e-25)
(0.0165739 -3.29375e-05 8.63189e-25)
(0.0165661 -2.79907e-05 -9.18402e-25)
(0.0165595 -2.29521e-05 -2.36075e-25)
(0.0165541 -1.78479e-05 2.67957e-25)
(0.0146993 -5.56606e-05 3.30081e-24)
(0.0146771 -5.4985e-05 4.35534e-24)
(0.0146568 -5.37136e-05 -4.51942e-24)
(0.0146381 -5.19907e-05 -8.27017e-24)
(0.014621 -4.98659e-05 1.0174e-23)
(0.0146053 -4.73859e-05 -1.00906e-23)
(0.0145912 -4.45934e-05 3.3739e-25)
(0.0145785 -4.15215e-05 3.36216e-24)
(0.0145672 -3.82014e-05 9.04696e-25)
(0.0145572 -3.4661e-05 -6.85911e-25)
(0.0145486 -3.09388e-05 8.08902e-25)
(0.0145414 -2.7066e-05 -1.10798e-24)
(0.0145354 -2.30735e-05 5.39012e-25)
(0.0145307 -1.89883e-05 4.64675e-25)
(0.0145273 -1.48309e-05 5.72794e-26)
(0.0127748 -4.35467e-05 -3.44125e-24)
(0.0127548 -4.32812e-05 4.38097e-24)
(0.0127364 -4.25527e-05 3.84466e-25)
(0.0127195 -4.14626e-05 7.20231e-24)
(0.012704 -4.00307e-05 -6.19004e-24)
(0.0126898 -3.82959e-05 1.13622e-25)
(0.012677 -3.62921e-05 -8.12708e-25)
(0.0126656 -3.40403e-05 -1.42077e-24)
(0.0126555 -3.15586e-05 5.7511e-25)
(0.0126467 -2.88706e-05 -1.773e-24)
(0.0126392 -2.60076e-05 6.33985e-25)
(0.012633 -2.30015e-05 3.84083e-25)
(0.012628 -1.98795e-05 -3.8294e-26)
(0.0126244 -1.66631e-05 -1.3857e-25)
(0.012622 -1.33715e-05 -1.46476e-25)
(0.0109878 -3.3694e-05 2.55806e-24)
(0.0109698 -3.3746e-05 -2.05878e-24)
(0.0109532 -3.34532e-05 -7.90719e-24)
(0.0109377 -3.28676e-05 7.39592e-24)
(0.0109233 -3.19928e-05 8.75907e-24)
(0.0109102 -3.08648e-05 -2.90287e-24)
(0.0108982 -2.95094e-05 -4.31125e-24)
(0.0108874 -2.79375e-05 -4.40694e-24)
(0.0108778 -2.61587e-05 3.00583e-24)
(0.0108694 -2.41916e-05 -3.12786e-26)
(0.0108623 -2.20621e-05 -2.87045e-25)
(0.0108563 -1.97995e-05 1.24067e-25)
(0.0108515 -1.74235e-05 -2.05951e-25)
(0.010848 -1.4956e-05 -6.52165e-26)
(0.0108456 -1.24132e-05 1.59059e-25)
(0.00933959 -2.56658e-05 -1.61522e-24)
(0.00932331 -2.59192e-05 -9.98492e-25)
(0.00930799 -2.59277e-05 1.41167e-24)
(0.00929354 -2.56971e-05 -3.57551e-24)
(0.00927998 -2.52279e-05 1.14625e-23)
(0.00926736 -2.45535e-05 -1.38435e-23)
(0.00925572 -2.36918e-05 1.22478e-23)
(0.00924508 -2.26472e-05 -4.81858e-24)
(0.00923547 -2.14238e-05 6.81036e-25)
(0.00922691 -2.00352e-05 -2.77145e-25)
(0.00921943 -1.85028e-05 -4.68617e-25)
(0.00921306 -1.68497e-05 -2.29267e-25)
(0.00920779 -1.50928e-05 1.46547e-25)
(0.00920367 -1.32505e-05 1.05617e-25)
(0.00920065 -1.13346e-05 -7.14407e-26)
(0.00782611 -1.90833e-05 -7.87138e-25)
(0.00781129 -1.94328e-05 2.33612e-25)
(0.00779708 -1.96153e-05 4.25525e-25)
(0.00778344 -1.9603e-05 -1.67748e-24)
(0.00777044 -1.94018e-05 -5.49846e-25)
(0.00775815 -1.90406e-05 5.71238e-24)
(0.00774661 -1.8531e-05 -3.22897e-24)
(0.00773587 -1.78732e-05 3.29706e-25)
(0.00772598 -1.70682e-05 -3.47075e-25)
(0.00771698 -1.61257e-05 -2.03267e-25)
(0.00770892 -1.50621e-05 7.58067e-26)
(0.00770184 -1.38947e-05 -7.03556e-27)
(0.00769575 -1.26376e-05 -3.339e-25)
(0.0076907 -1.13039e-05 2.96985e-25)
(0.00768667 -9.90252e-06 1.15331e-25)
(0.00644078 -1.36908e-05 -2.86979e-25)
(0.00642735 -1.40562e-05 -7.49752e-26)
(0.00641422 -1.43088e-05 -4.10961e-24)
(0.0064014 -1.44065e-05 1.32614e-24)
(0.006389 -1.43626e-05 -2.29639e-24)
(0.00637708 -1.42e-05 2.15145e-24)
(0.0063657 -1.39254e-05 3.11386e-24)
(0.00635492 -1.35371e-05 1.77105e-24)
(0.00634482 -1.30346e-05 -2.18616e-24)
(0.00633545 -1.2424e-05 6.42342e-25)
(0.00632686 -1.17173e-05 2.17205e-25)
(0.00631912 -1.09266e-05 5.88748e-26)
(0.00631224 -1.00625e-05 -5.67573e-26)
(0.00630628 -9.13405e-06 1.41384e-25)
(0.00630124 -8.14783e-06 -2.11446e-25)
(0.00517584 -9.3358e-06 -1.12656e-24)
(0.0051639 -9.66264e-06 -1.40753e-24)
(0.00515201 -9.91139e-06 -1.02393e-25)
(0.00514023 -1.00431e-05 3.3885e-24)
(0.00512867 -1.00757e-05 -2.14715e-24)
(0.0051174 -1.00256e-05 -2.29815e-25)
(0.00510648 -9.89649e-06 2.90138e-24)
(0.00509599 -9.68593e-06 -1.73256e-25)
(0.00508601 -9.3926e-06 -5.79893e-25)
(0.00507659 -9.01999e-06 -1.05201e-24)
(0.00506781 -8.57605e-06 4.06724e-25)
(0.00505973 -8.06896e-06 1.68656e-25)
(0.00505237 -7.5058e-06 -2.00244e-27)
(0.00504581 -6.89245e-06 2.26074e-25)
(0.00504005 -6.2334e-06 -1.82973e-25)
(0.00402314 -5.92173e-06 -2.46737e-25)
(0.00401291 -6.18039e-06 2.63593e-26)
(0.00400254 -6.38172e-06 1.66734e-24)
(0.00399214 -6.50146e-06 9.39742e-25)
(0.00398179 -6.55769e-06 -8.43926e-25)
(0.00397159 -6.5608e-06 -1.62378e-24)
(0.00396159 -6.51276e-06 5.34556e-25)
(0.00395187 -6.41134e-06 -1.96396e-24)
(0.00394249 -6.25493e-06 1.46089e-24)
(0.00393354 -6.04513e-06 4.1173e-25)
(0.00392508 -5.78674e-06 -2.28424e-25)
(0.00391716 -5.48474e-06 -1.49539e-25)
(0.00390984 -5.14358e-06 -5.98454e-26)
(0.00390316 -4.76673e-06 1.36261e-25)
(0.00389716 -4.35674e-06 -9.32901e-26)
(0.00297455 -3.36951e-06 -4.5521e-25)
(0.00296627 -3.55376e-06 3.15489e-26)
(0.00295773 -3.69277e-06 1.35529e-24)
(0.00294908 -3.78039e-06 -8.38498e-25)
(0.00294039 -3.83104e-06 2.95068e-24)
(0.00293173 -3.85069e-06 -5.1742e-24)
(0.00292316 -3.84047e-06 3.77301e-24)
(0.00291475 -3.79883e-06 -2.75308e-24)
(0.00290655 -3.72448e-06 1.65813e-24)
(0.00289865 -3.61799e-06 -8.05797e-25)
(0.00289109 -3.48197e-06 2.35931e-25)
(0.00288394 -3.31914e-06 1.44862e-26)
(0.00287724 -3.13211e-06 -6.72436e-26)
(0.00287104 -2.92274e-06 1.05336e-25)
(0.00286537 -2.69208e-06 -3.83819e-26)
(0.00202213 -1.59775e-06 6.92069e-25)
(0.002016 -1.71281e-06 6.77301e-25)
(0.00200961 -1.79367e-06 -2.94857e-24)
(0.00200306 -1.8467e-06 2.06639e-24)
(0.00199644 -1.88029e-06 -5.52082e-26)
(0.00198978 -1.89737e-06 3.84564e-25)
(0.00198314 -1.89885e-06 -5.54283e-25)
(0.00197656 -1.88422e-06 -8.60844e-25)
(0.00197011 -1.85301e-06 7.68518e-25)
(0.00196383 -1.80554e-06 -8.33369e-27)
(0.00195777 -1.74323e-06 -2.5393e-25)
(0.00195199 -1.66751e-06 9.99204e-26)
(0.00194651 -1.57981e-06 -4.08242e-26)
(0.00194139 -1.48078e-06 -2.17768e-27)
(0.00193665 -1.37001e-06 2.57849e-26)
(0.00115828 -5.18484e-07 -6.99668e-25)
(0.00115447 -5.44271e-07 2.06978e-24)
(0.00115045 -5.62445e-07 1.07089e-24)
(0.00114631 -5.77197e-07 -2.0892e-24)
(0.00114209 -5.88637e-07 -2.36475e-25)
(0.00113782 -5.96433e-07 -1.80666e-25)
(0.00113354 -6.00472e-07 4.64738e-25)
(0.00112927 -6.00446e-07 -7.19559e-25)
(0.00112505 -5.96118e-07 7.7904e-25)
(0.00112091 -5.8751e-07 -3.86223e-25)
(0.00111689 -5.7502e-07 -1.15618e-25)
(0.00111303 -5.5903e-07 2.88404e-26)
(0.00110934 -5.39938e-07 1.28971e-25)
(0.00110586 -5.16527e-07 -1.79659e-25)
(0.0011026 -4.86149e-07 5.59772e-26)
(0.000375826 -2.76365e-08 -5.0249e-27)
(0.000374416 7.0928e-08 3.98409e-25)
(0.000372928 1.37673e-07 4.09102e-25)
(0.000371395 1.76775e-07 -6.83575e-25)
(0.00036983 1.94272e-07 1.20498e-24)
(0.000368243 1.94911e-07 -1.31735e-24)
(0.000366644 1.82488e-07 6.88442e-26)
(0.000365045 1.6025e-07 4.886e-25)
(0.000363456 1.30999e-07 -6.65568e-25)
(0.000361891 9.71761e-08 -3.87702e-26)
(0.000360362 6.08108e-08 1.95671e-25)
(0.00035888 2.36338e-08 -5.88248e-26)
(0.000357458 -1.29282e-08 4.72038e-26)
(0.000356104 -4.66959e-08 -4.94938e-26)
(0.00035483 -7.50182e-08 4.66694e-27)
(0.000985192 -0.000250593 7.49413e-26)
(0.00113067 -0.000161753 1.84173e-24)
(0.00137575 -7.39392e-05 -5.18603e-24)
(0.00162666 -6.15394e-06 7.32813e-24)
(0.00186776 4.33827e-05 -2.74397e-24)
(0.0021038 7.56376e-05 -2.50478e-24)
(0.00233418 9.34679e-05 2.78792e-24)
(0.00255899 9.9338e-05 -5.36098e-24)
(0.00277862 9.54023e-05 4.18359e-25)
(0.00299348 8.36176e-05 3.27312e-24)
(0.00320402 6.57104e-05 -5.97231e-25)
(0.00341071 4.32106e-05 6.18281e-25)
(0.00361408 1.75716e-05 -7.43939e-26)
(0.00381457 -9.64755e-06 3.02878e-25)
(0.00401283 -3.67234e-05 -1.08806e-24)
(0.0042096 -6.13603e-05 5.6554e-25)
(0.00440652 -8.07863e-05 -1.08164e-25)
(0.00460573 -9.13221e-05 4.01792e-26)
(0.00481164 -8.92327e-05 1.1185e-25)
(0.00502972 -7.04425e-05 -5.26351e-26)
(0.0052683 -3.3175e-05 2.38664e-27)
(0.00553458 2.10861e-05 -2.74432e-27)
(0.005811 7.93298e-05 1.933e-26)
(0.00606254 0.000124108 1.28663e-25)
(0.00627421 0.000148661 -2.27285e-25)
(0.00644467 0.000151647 -2.3785e-25)
(0.00657527 0.000133931 -3.71853e-26)
(0.00666772 9.67151e-05 6.51787e-25)
(0.00672288 4.08366e-05 1.01685e-24)
(0.0067406 -3.20615e-05 -1.97153e-24)
(0.00671964 -0.000118848 1.58159e-24)
(0.00665834 -0.000214556 -1.27325e-24)
(0.00655532 -0.000312347 2.31737e-25)
(0.00640994 -0.00040383 -7.93458e-25)
(0.00622249 -0.000479501 7.53249e-25)
(0.00599421 -0.000529055 5.98898e-24)
(0.00572701 -0.000541393 -1.4536e-24)
(0.00542336 -0.000504022 1.82218e-24)
(0.0050863 -0.000401548 1.09874e-24)
(0.00472027 -0.000213518 -9.74403e-24)
(0.00433072 8.53399e-05 -1.21753e-25)
(0.00392599 0.000514721 4.30764e-24)
(0.00349965 0.00105297 1.43395e-24)
(0.00307421 0.0015864 -6.10507e-24)
(0.0028382 0.00174942 -3.04921e-25)
(0.00186223 -0.000338261 -2.15964e-24)
(0.00192356 -0.000288035 -2.89666e-24)
(0.00207606 -0.000203715 6.1571e-24)
(0.00226731 -0.000128181 2.69126e-24)
(0.00247034 -6.73226e-05 -9.38258e-24)
(0.0026796 -2.33406e-05 9.79271e-24)
(0.00289009 5.41007e-06 -3.48101e-24)
(0.00309925 2.11594e-05 2.62484e-24)
(0.00330598 2.60396e-05 -3.47648e-24)
(0.00350972 2.20876e-05 4.97696e-26)
(0.0037103 1.11279e-05 -1.68311e-24)
(0.00390774 -5.21298e-06 3.28839e-24)
(0.00410222 -2.53793e-05 -1.73944e-24)
(0.00429394 -4.77313e-05 -1.31595e-24)
(0.00448329 -7.04741e-05 -5.9014e-25)
(0.00467075 -9.13142e-05 1.57161e-24)
(0.00485771 -0.0001075 -3.38194e-26)
(0.00504595 -0.000115431 4.19908e-25)
(0.0052395 -0.000111476 -2.53809e-26)
(0.00544338 -9.16501e-05 -6.05084e-26)
(0.00566559 -5.41508e-05 -7.18293e-27)
(0.00591331 -1.76577e-07 -1.08122e-26)
(0.00617147 5.78759e-05 9.5187e-26)
(0.0064083 0.000103315 2.45557e-25)
(0.00660956 0.000129586 -1.16938e-25)
(0.00677347 0.000135192 -1.2817e-24)
(0.0069008 0.00012093 1.89274e-24)
(0.00699261 8.812e-05 -1.4688e-24)
(0.00704925 3.78072e-05 5.12578e-25)
(0.00707029 -2.81207e-05 -3.26807e-25)
(0.00705444 -0.000106334 2.24348e-24)
(0.0070002 -0.000191749 -2.49583e-24)
(0.0069065 -0.00027755 3.92552e-25)
(0.00677314 -0.000355463 3.90203e-24)
(0.00660103 -0.00041616 -7.31374e-24)
(0.00639226 -0.000449532 2.01923e-24)
(0.00615003 -0.000444697 1.0909e-23)
(0.00587874 -0.000389517 -2.81331e-24)
(0.00558449 -0.0002694 -9.12905e-24)
(0.00527677 -6.54369e-05 -5.73948e-24)
(0.00497033 0.000245468 1.31057e-23)
(0.00469056 0.000682148 -1.27874e-23)
(0.00446579 0.00122208 -2.85061e-24)
(0.00434142 0.00174059 8.45382e-24)
(0.0043651 0.00183784 2.64317e-24)
(0.00289891 -0.00034791 -2.42553e-26)
(0.00290934 -0.000341919 -3.3494e-24)
(0.00297529 -0.00029247 6.44639e-24)
(0.0030964 -0.000228089 5.15051e-24)
(0.00324588 -0.000167535 -8.50817e-24)
(0.00341388 -0.000118279 1.86769e-25)
(0.00359221 -8.20668e-05 7.78423e-25)
(0.0037756 -5.8252e-05 8.10685e-24)
(0.00396101 -4.54572e-05 -9.55541e-24)
(0.00414657 -4.19587e-05 5.65463e-24)
(0.00433115 -4.60559e-05 1.50385e-24)
(0.00451408 -5.61546e-05 -8.76364e-24)
(0.00469505 -7.06703e-05 3.13647e-24)
(0.00487382 -8.79376e-05 1.10081e-24)
(0.00505045 -0.000106113 -1.93788e-24)
(0.00522506 -0.000122923 2.74947e-24)
(0.00539873 -0.000135653 -1.62642e-24)
(0.00557279 -0.000140796 1.1048e-25)
(0.00575087 -0.000134835 1.41746e-25)
(0.00593741 -0.000113888 5.62793e-26)
(0.00614004 -7.61328e-05 3.00091e-27)
(0.00636581 -2.24888e-05 3.67236e-27)
(0.00660234 3.52618e-05 -1.06343e-25)
(0.00682148 8.12291e-05 4.06713e-25)
(0.00700981 0.0001091 -8.77534e-25)
(0.00716515 0.000117236 5.49515e-25)
(0.0072876 0.000106365 -1.77668e-24)
(0.00737755 7.79453e-05 2.4056e-24)
(0.00743481 3.32236e-05 -2.4449e-24)
(0.00745865 -2.56768e-05 1.58199e-25)
(0.00744774 -9.52016e-05 3.03778e-25)
(0.00740072 -0.000170191 2.89193e-24)
(0.00731684 -0.00024387 -8.21915e-25)
(0.0071964 -0.000308134 2.02049e-24)
(0.00704096 -0.000353935 -6.5725e-24)
(0.00685353 -0.00037156 1.25434e-23)
(0.00663865 -0.0003507 -8.9126e-24)
(0.00640267 -0.000280199 1.42712e-23)
(0.0061546 -0.000147409 -2.76725e-23)
(0.00590815 6.27205e-05 1.06383e-23)
(0.00568456 0.000366484 3.7905e-24)
(0.00551741 0.000773194 6.02685e-24)
(0.0054452 0.00125205 -7.48725e-24)
(0.00549608 0.00167941 2.04994e-24)
(0.00564521 0.00174161 -1.22255e-24)
(0.004073 -0.000331435 -8.98723e-25)
(0.00405573 -0.00035282 -1.32794e-24)
(0.00406849 -0.000334815 -5.56783e-24)
(0.00412217 -0.000295069 1.67375e-24)
(0.00421335 -0.000246016 1.10107e-24)
(0.00433083 -0.000199932 4.24221e-24)
(0.00446667 -0.000161946 -8.5134e-24)
(0.00461439 -0.000133713 3.34074e-24)
(0.00476951 -0.000115289 1.04191e-23)
(0.00492891 -0.000105722 -2.83584e-24)
(0.0050904 -0.000103757 -2.51105e-24)
(0.0052525 -0.00010804 -3.76799e-25)
(0.00541426 -0.000117091 1.11784e-24)
(0.00557491 -0.000129286 -2.05183e-24)
(0.00573406 -0.000142821 5.28854e-25)
(0.00589143 -0.000155467 -3.22698e-26)
(0.00604768 -0.000164583 -3.86742e-25)
(0.00620367 -0.000166786 3.90248e-25)
(0.0063625 -0.000158694 4.27627e-25)
(0.00652802 -0.000136557 -8.07432e-26)
(0.00670738 -9.85498e-05 -1.8719e-26)
(0.00690734 -4.53291e-05 -1.16486e-26)
(0.00711846 1.19329e-05 -1.86646e-25)
(0.0073165 5.822e-05 -1.36173e-25)
(0.00748899 8.7513e-05 -9.72671e-25)
(0.00763328 9.80364e-05 1.44809e-24)
(0.00774885 9.04531e-05 -1.74077e-24)
(0.00783536 6.63817e-05 3.44883e-24)
(0.00789205 2.72664e-05 -3.18077e-24)
(0.00791787 -2.45474e-05 7.48193e-25)
(0.00791144 -8.5313e-05 1.30794e-24)
(0.00787155 -0.000149827 -1.13433e-25)
(0.0077978 -0.000211422 -2.16144e-25)
(0.00769097 -0.000262266 -7.57203e-25)
(0.0075533 -0.000293762 8.7526e-25)
(0.0073887 -0.000296855 -3.93271e-24)
(0.00720293 -0.000262238 1.91214e-23)
(0.00700399 -0.000180392 -1.00758e-23)
(0.00680301 -4.15759e-05 -2.33906e-25)