/*--------------------------------*- C++ -*----------------------------------*\
| =========                 |                                                 |
| \\      /  F ield         | OpenFOAM: The Open Source CFD Toolbox           |
|  \\    /   O peration     | Version:  2312                                  |
|   \\  /    A nd           | Website:  www.openfoam.com                      |
|    \\/     M anipulation  |                                                 |
\*---------------------------------------------------------------------------*/
FoamFile
{
    version     2.0;
    format      ascii;
    arch        "LSB;label=32;scalar=64";
    class       volScalarField;
    location    "400";
    object      p;
}
// * * * * * * * * * * * * * * * * * * * * * * * * * * * * * * * * * * * * * //

dimensions      [0 2 -2 0 0 0 0];

internalField   nonuniform List<scalar> 
4800
(
-1.04126e-12
-1.34156e-06
-2.46575e-06
-3.41822e-06
-4.23691e-06
-4.94785e-06
-5.57061e-06
-6.12064e-06
-6.61052e-06
-7.05062e-06
-7.44997e-06
-7.82192e-06
-8.19642e-06
-8.64274e-06
-9.94456e-06
1.24271e-08
-1.3265e-06
-2.44888e-06
-3.40037e-06
-4.21887e-06
-4.93046e-06
-5.55483e-06
-6.10774e-06
-6.60239e-06
-7.05055e-06
-7.46399e-06
-7.85823e-06
-8.25922e-06
-8.73061e-06
-9.58669e-06
2.7653e-08
-1.3085e-06
-2.429e-06
-3.37945e-06
-4.19776e-06
-4.91003e-06
-5.53608e-06
-6.09191e-06
-6.59121e-06
-7.04661e-06
-7.47116e-06
-7.87964e-06
-8.28729e-06
-8.6995e-06
-9.13879e-06
4.4056e-08
-1.28886e-06
-2.40709e-06
-3.35611e-06
-4.17377e-06
-4.88616e-06
-5.51305e-06
-6.07041e-06
-6.57174e-06
-7.02909e-06
-7.45327e-06
-7.85192e-06
-8.2226e-06
-8.53603e-06
-8.74101e-06
6.24094e-08
-1.26648e-06
-2.38179e-06
-3.32869e-06
-4.14491e-06
-4.85642e-06
-5.48271e-06
-6.03924e-06
-6.53855e-06
-6.99054e-06
-7.40138e-06
-7.76993e-06
-8.08116e-06
-8.29915e-06
-8.37663e-06
8.40191e-08
-1.23988e-06
-2.3514e-06
-3.29522e-06
-4.10885e-06
-4.81797e-06
-5.44145e-06
-5.99374e-06
-6.4856e-06
-6.92378e-06
-7.30942e-06
-7.63513e-06
-7.8823e-06
-8.02308e-06
-8.03123e-06
1.10852e-07
-1.20694e-06
-2.31354e-06
-3.25304e-06
-4.06245e-06
-4.76698e-06
-5.38453e-06
-5.92805e-06
-6.40602e-06
-6.82194e-06
-7.17332e-06
-7.45077e-06
-7.63924e-06
-7.72372e-06
-7.69659e-06
1.46093e-07
-1.16436e-06
-2.26459e-06
-3.19812e-06
-4.00114e-06
-4.69812e-06
-5.30571e-06
-5.8351e-06
-6.29253e-06
-6.67919e-06
-6.99136e-06
-7.22158e-06
-7.36178e-06
-7.40867e-06
-7.36597e-06
1.94653e-07
-1.10712e-06
-2.19911e-06
-3.12463e-06
-3.9185e-06
-4.60427e-06
-5.19723e-06
-5.70694e-06
-6.13809e-06
-6.49114e-06
-6.76361e-06
-6.95228e-06
-7.05626e-06
-7.08039e-06
-7.03348e-06
2.63345e-07
-1.02829e-06
-2.10972e-06
-3.02465e-06
-3.80615e-06
-4.47661e-06
-5.05017e-06
-5.53533e-06
-5.9364e-06
-6.25476e-06
-6.49081e-06
-6.64611e-06
-6.72533e-06
-6.73778e-06
-6.69349e-06
3.60525e-07
-9.19273e-07
-1.9873e-06
-2.88851e-06
-3.65404e-06
-4.30507e-06
-4.85508e-06
-5.31242e-06
-5.68219e-06
-5.96793e-06
-6.17345e-06
-6.30431e-06
-6.36865e-06
-6.37752e-06
-6.34026e-06
4.95128e-07
-7.70546e-07
-1.82184e-06
-2.70563e-06
-3.45142e-06
-4.0794e-06
-4.60304e-06
-5.03145e-06
-5.37144e-06
-5.62914e-06
-5.81136e-06
-5.92639e-06
-5.98393e-06
-5.99517e-06
-5.96803e-06
6.75849e-07
-5.7234e-07
-1.60316e-06
-2.46553e-06
-3.1881e-06
-3.79044e-06
-4.28669e-06
-4.68741e-06
-5.00144e-06
-5.23725e-06
-5.40375e-06
-5.51061e-06
-5.56787e-06
-5.58597e-06
-5.57132e-06
9.10967e-07
-3.14727e-07
-1.32078e-06
-2.1579e-06
-2.85459e-06
-3.43032e-06
-3.90022e-06
-4.27659e-06
-4.57011e-06
-4.79088e-06
-4.94893e-06
-5.05429e-06
-5.11653e-06
-5.14508e-06
-5.14501e-06
1.20843e-06
1.22886e-08
-9.63888e-07
-1.77224e-06
-2.44154e-06
-2.99141e-06
-3.43793e-06
-3.79487e-06
-4.07423e-06
-4.28696e-06
-4.44332e-06
-4.55304e-06
-4.62485e-06
-4.66711e-06
-4.68383e-06
1.57573e-06
4.1826e-07
-5.22307e-07
-1.29883e-06
-1.94037e-06
-2.46655e-06
-2.89402e-06
-3.23738e-06
-3.50925e-06
-3.72072e-06
-3.8817e-06
-4.00121e-06
-4.08701e-06
-4.14647e-06
-4.18278e-06
2.01825e-06
9.1054e-07
1.15865e-08
-7.30676e-07
-1.34505e-06
-1.85073e-06
-2.26424e-06
-2.60026e-06
-2.87132e-06
-3.08807e-06
-3.25972e-06
-3.39435e-06
-3.4988e-06
-3.57947e-06
-3.63908e-06
2.53643e-06
1.4911e-06
6.3974e-07
-6.64104e-08
-6.54793e-07
-1.14355e-06
-1.5484e-06
-1.8833e-06
-2.16004e-06
-2.38842e-06
-2.57669e-06
-2.73195e-06
-2.86011e-06
-2.96668e-06
-3.05412e-06
3.12317e-06
2.15319e-06
1.35483e-06
6.86126e-07
1.22512e-07
-3.52605e-07
-7.53517e-07
-1.09282e-06
-1.38103e-06
-1.62679e-06
-1.8373e-06
-2.01862e-06
-2.17576e-06
-2.3133e-06
-2.4337e-06
3.76237e-06
2.87917e-06
2.13763e-06
1.50677e-06
9.66671e-07
5.02501e-07
1.01649e-07
-2.46578e-07
-5.50962e-07
-8.18758e-07
-1.05607e-06
-1.26797e-06
-1.45867e-06
-1.63175e-06
-1.78993e-06
4.38463e-06
3.59052e-06
2.90436e-06
2.30904e-06
1.79038e-06
1.3352e-06
9.32443e-07
5.73447e-07
2.51272e-07
-3.98643e-08
-3.04912e-07
-5.48056e-07
-7.72822e-07
-9.81977e-07
-1.17861e-06
4.88983e-06
4.17148e-06
3.53246e-06
2.96735e-06
2.46695e-06
2.01955e-06
1.61553e-06
1.248e-06
9.11648e-07
6.01869e-07
3.14688e-07
4.67643e-08
-2.04819e-07
-4.42253e-07
-6.68507e-07
5.26e-06
4.60168e-06
4.00171e-06
3.46238e-06
2.97798e-06
2.53817e-06
2.13461e-06
1.76185e-06
1.41579e-06
1.09274e-06
7.8943e-07
5.03117e-07
2.31384e-07
-2.75407e-08
-2.76283e-07
5.52531e-06
4.91447e-06
4.34715e-06
3.82999e-06
3.35958e-06
2.92688e-06
2.52475e-06
2.14886e-06
1.796e-06
1.46318e-06
1.14768e-06
8.47233e-07
5.59846e-07
2.84062e-07
1.76492e-08
5.71179e-06
5.1385e-06
4.59854e-06
4.10049e-06
3.64225e-06
3.21599e-06
2.81569e-06
2.4379e-06
2.08007e-06
1.73975e-06
1.41467e-06
1.10296e-06
8.02989e-07
5.13541e-07
2.32757e-07
5.84096e-06
5.29762e-06
4.78068e-06
4.29902e-06
3.85118e-06
3.43048e-06
3.03193e-06
2.6528e-06
2.29103e-06
1.94459e-06
1.61163e-06
1.29059e-06
9.80155e-07
6.79312e-07
3.86536e-07
5.92941e-06
5.41023e-06
4.91265e-06
4.4449e-06
4.00579e-06
3.58968e-06
3.19255e-06
2.81226e-06
2.44712e-06
2.09547e-06
1.75578e-06
1.42682e-06
1.10749e-06
7.96972e-07
4.94026e-07
5.9895e-06
5.49005e-06
5.00874e-06
4.5527e-06
4.12079e-06
3.70836e-06
3.31226e-06
2.93082e-06
2.56266e-06
2.20641e-06
1.86087e-06
1.52504e-06
1.19804e-06
8.79211e-07
5.67548e-07
6.03019e-06
5.54707e-06
5.07943e-06
4.63316e-06
4.20712e-06
3.79758e-06
3.40215e-06
3.01952e-06
2.64857e-06
2.28822e-06
1.93751e-06
1.59566e-06
1.26198e-06
9.35953e-07
6.16765e-07
6.05786e-06
5.58842e-06
5.13226e-06
4.69411e-06
4.27283e-06
3.86553e-06
3.47045e-06
3.08659e-06
2.71306e-06
2.34901e-06
1.99371e-06
1.64656e-06
1.30704e-06
9.74739e-07
6.4902e-07
6.07694e-06
5.61908e-06
5.17258e-06
4.74113e-06
4.32371e-06
3.91814e-06
3.52319e-06
3.1381e-06
2.76218e-06
2.3948e-06
2.03541e-06
1.68358e-06
1.33892e-06
1.00113e-06
6.69708e-07
6.09044e-06
5.64248e-06
5.2041e-06
4.77821e-06
4.36393e-06
3.95971e-06
3.56472e-06
3.17842e-06
2.8003e-06
2.42991e-06
2.06689e-06
1.71091e-06
1.36171e-06
1.01909e-06
6.82677e-07
6.10038e-06
5.66094e-06
5.2294e-06
4.80812e-06
4.39642e-06
3.99326e-06
3.59813e-06
3.21066e-06
2.83053e-06
2.45744e-06
2.09116e-06
1.7315e-06
1.37827e-06
1.0314e-06
6.90587e-07
6.10805e-06
5.67596e-06
5.25022e-06
4.8328e-06
4.42323e-06
4.02091e-06
3.62557e-06
3.237e-06
2.85503e-06
2.47951e-06
2.11032e-06
1.74737e-06
1.39058e-06
1.03993e-06
6.95232e-07
6.11424e-06
5.68855e-06
5.26773e-06
4.85356e-06
4.44578e-06
4.04413e-06
3.64853e-06
3.25893e-06
2.87529e-06
2.49758e-06
2.12579e-06
1.75991e-06
1.39995e-06
1.04595e-06
6.97792e-07
6.11944e-06
5.69933e-06
5.28272e-06
4.8713e-06
4.46503e-06
4.06392e-06
3.66804e-06
3.27748e-06
2.89233e-06
2.51264e-06
2.13852e-06
1.77004e-06
1.40725e-06
1.05026e-06
6.99032e-07
6.12395e-06
5.70872e-06
5.29571e-06
4.88663e-06
4.48165e-06
4.08096e-06
3.6848e-06
3.29336e-06
2.90682e-06
2.52537e-06
2.14916e-06
1.77834e-06
1.41304e-06
1.0534e-06
6.99435e-07
6.12799e-06
5.71708e-06
5.30722e-06
4.90017e-06
4.49629e-06
4.09594e-06
3.69948e-06
3.30721e-06
2.91942e-06
2.53636e-06
2.15825e-06
1.78533e-06
1.41775e-06
1.05572e-06
6.99291e-07
6.13174e-06
5.72485e-06
5.31784e-06
4.91263e-06
4.50975e-06
4.10969e-06
3.71293e-06
3.31987e-06
2.93089e-06
2.54631e-06
2.16643e-06
1.79153e-06
1.42182e-06
1.05755e-06
6.9882e-07
6.13495e-06
5.73161e-06
5.32712e-06
4.92354e-06
4.52155e-06
4.12177e-06
3.72476e-06
3.33102e-06
2.94098e-06
2.55507e-06
2.17363e-06
1.79699e-06
1.42541e-06
1.05917e-06
6.98402e-07
-1.15213e-05
-9.47606e-06
-8.09872e-06
-7.1944e-06
-6.48603e-06
-5.93523e-06
-5.50349e-06
-5.16062e-06
-4.88699e-06
-4.66777e-06
-4.49116e-06
-4.34749e-06
-4.2288e-06
-4.12889e-06
-4.04385e-06
-3.97317e-06
-3.92168e-06
-3.90225e-06
-3.93913e-06
-4.0701e-06
-4.34426e-06
-4.80682e-06
-5.41223e-06
-5.97959e-06
-6.37387e-06
-6.52591e-06
-6.39954e-06
-5.98155e-06
-5.27162e-06
-4.27751e-06
-3.01452e-06
-1.50557e-06
2.18094e-07
2.11728e-06
4.14587e-06
6.25221e-06
8.38018e-06
1.0469e-05
1.24508e-05
1.42439e-05
1.57414e-05
1.67825e-05
1.70806e-05
1.61253e-05
1.27877e-05
-1.01117e-05
-8.95835e-06
-7.91269e-06
-7.10735e-06
-6.43923e-06
-5.90235e-06
-5.47529e-06
-5.13415e-06
-4.86144e-06
-4.64319e-06
-4.46779e-06
-4.32563e-06
-4.20876e-06
-4.11098e-06
-4.02843e-06
-3.96064e-06
-3.91244e-06
-3.89657e-06
-3.93686e-06
-4.07021e-06
-4.34432e-06
-4.80277e-06
-5.39973e-06
-5.95701e-06
-6.34213e-06
-6.4871e-06
-6.35621e-06
-5.93635e-06
-5.22743e-06
-4.23786e-06
-2.9839e-06
-1.48981e-06
2.11521e-07
2.07886e-06
4.06341e-06
6.10978e-06
8.15633e-06
1.01336e-05
1.19594e-05
1.35266e-05
1.46801e-05
1.51617e-05
1.45134e-05
1.1909e-05
6.62412e-06
-9.24112e-06
-8.52649e-06
-7.70949e-06
-6.99613e-06
-6.37648e-06
-5.86089e-06
-5.44257e-06
-5.10528e-06
-4.83456e-06
-4.61774e-06
-4.44376e-06
-4.30319e-06
-4.18817e-06
-4.09258e-06
-4.0126e-06
-3.94785e-06
-3.90318e-06
-3.89119e-06
-3.93522e-06
-4.07121e-06
-4.34522e-06
-4.79888e-06
-5.38591e-06
-5.93125e-06
-6.30537e-06
-6.44171e-06
-6.30523e-06
-5.88304e-06
-5.17554e-06
-4.19205e-06
-2.9502e-06
-1.47612e-06
1.95029e-07
2.01917e-06
3.94386e-06
5.90883e-06
7.84551e-06
9.67441e-06
1.12983e-05
1.25891e-05
1.33626e-05
1.33368e-05
1.20986e-05
9.12627e-06
4.3238e-06
-8.67998e-06
-8.17877e-06
-7.52173e-06
-6.8887e-06
-6.31595e-06
-5.82324e-06
-5.41443e-06
-5.08086e-06
-4.81145e-06
-4.5952e-06
-4.4218e-06
-4.28213e-06
-4.16844e-06
-4.07468e-06
-3.9971e-06
-3.93539e-06
-3.89438e-06
-3.88649e-06
-3.93453e-06
-4.0733e-06
-4.34706e-06
-4.79522e-06
-5.37091e-06
-5.90254e-06
-6.26378e-06
-6.38975e-06
-6.24623e-06
-5.82083e-06
-5.11465e-06
-4.13832e-06
-2.91129e-06
-1.46207e-06
1.71288e-07
1.94119e-06
3.79084e-06
5.65442e-06
7.45606e-06
9.10685e-06
1.0498e-05
1.14913e-05
1.19008e-05
1.14816e-05
9.95183e-06
7.08535e-06
3.03253e-06
-8.2551e-06
-7.87559e-06
-7.34561e-06
-6.78955e-06
-6.26288e-06
-5.79403e-06
-5.39507e-06
-5.0645e-06
-4.79513e-06
-4.578e-06
-4.40381e-06
-4.26387e-06
-4.15063e-06
-4.0581e-06
-3.98261e-06
-3.92387e-06
-3.88667e-06
-3.88316e-06
-3.93549e-06
-4.07717e-06
-4.35039e-06
-4.79203e-06
-5.35462e-06
-5.87054e-06
-6.21706e-06
-6.33121e-06
-6.1799e-06
-5.75143e-06
-5.04794e-06
-4.08167e-06
-2.87428e-06
-1.45708e-06
1.28543e-07
1.83109e-06
3.5892e-06
5.33158e-06
6.97611e-06
8.42729e-06
9.57197e-06
1.02752e-05
1.03744e-05
9.69171e-06
8.07528e-06
5.48742e-06
2.16937e-06
-7.89528e-06
-7.59674e-06
-7.17102e-06
-6.69166e-06
-6.21409e-06
-5.77263e-06
-5.3857e-06
-5.05848e-06
-4.7883e-06
-4.56883e-06
-4.39224e-06
-4.25057e-06
-4.13656e-06
-4.04439e-06
-3.97045e-06
-3.91446e-06
-3.88109e-06
-3.88216e-06
-3.93901e-06
-4.08363e-06
-4.35586e-06
-4.7897e-06
-5.33702e-06
-5.83492e-06
-6.16471e-06
-6.26563e-06
-6.10606e-06
-5.67528e-06
-4.97677e-06
-4.02473e-06
-2.8434e-06
-1.46722e-06
5.88213e-08
1.67927e-06
3.32844e-06
4.93062e-06
6.39975e-06
7.63845e-06
8.5379e-06
8.97862e-06
8.83676e-06
8.00572e-06
6.4352e-06
4.18897e-06
1.50915e-06
-7.56628e-06
-7.32777e-06
-6.98761e-06
-6.58357e-06
-6.16027e-06
-5.75263e-06
-5.38297e-06
-5.06196e-06
-4.79179e-06
-4.56948e-06
-4.3893e-06
-4.24448e-06
-4.12838e-06
-4.03551e-06
-3.96238e-06
-3.90872e-06
-3.87906e-06
-3.88479e-06
-3.94624e-06
-4.09367e-06
-4.36422e-06
-4.78864e-06
-5.31818e-06
-5.79543e-06
-6.10625e-06
-6.1925e-06
-6.02439e-06
-5.59256e-06
-4.90216e-06
-3.96968e-06
-2.82227e-06
-1.49771e-06
-4.45718e-08
1.47804e-06
3.0011e-06
4.4464e-06
5.72744e-06
6.75069e-06
7.41943e-06
7.63814e-06
7.32562e-06
6.43515e-06
4.9813e-06
3.06655e-06
8.92357e-07
-7.24901e-06
-7.05789e-06
-6.78794e-06
-6.45489e-06
-6.08978e-06
-5.72334e-06
-5.37854e-06
-5.06955e-06
-4.80285e-06
-4.57917e-06
-4.39552e-06
-4.24689e-06
-4.12777e-06
-4.03325e-06
-3.96019e-06
-3.90839e-06
-3.88224e-06
-3.89256e-06
-3.95857e-06
-4.10847e-06
-4.37637e-06
-4.7894e-06
-5.29823e-06
-5.75188e-06
-6.04137e-06
-6.11159e-06
-5.93504e-06
-5.50412e-06
-4.82602e-06
-3.91985e-06
-2.81581e-06
-1.55503e-06
-1.89288e-07
1.21956e-06
2.60078e-06
3.87647e-06
4.96382e-06
5.77861e-06
6.24149e-06
6.28423e-06
5.86351e-06
4.97473e-06
3.66531e-06
2.0407e-06
2.55161e-07
-6.93249e-06
-6.7804e-06
-6.56829e-06
-6.29934e-06
-5.99294e-06
-5.67334e-06
-5.3613e-06
-5.07197e-06
-4.81472e-06
-4.59362e-06
-4.40864e-06
-4.25708e-06
-4.13501e-06
-4.03857e-06
-3.96521e-06
-3.91501e-06
-3.89222e-06
-3.90707e-06
-3.97746e-06
-4.12929e-06
-4.39329e-06
-4.79259e-06
-5.2774e-06
-5.70427e-06
-5.97002e-06
-6.02312e-06
-5.83886e-06
-5.41184e-06
-4.75162e-06
-3.88012e-06
-2.83059e-06
-1.6471e-06
-3.83854e-07
8.96053e-07
2.12251e-06
3.2211e-06
4.11667e-06
4.7384e-06
5.02638e-06
4.93819e-06
4.45923e-06
3.60969e-06
2.44807e-06
1.06704e-06
-4.19434e-07
-6.60935e-06
-6.49064e-06
-6.32693e-06
-6.11434e-06
-5.864e-06
-5.59371e-06
-5.32051e-06
-5.05846e-06
-4.81796e-06
-4.60541e-06
-4.42343e-06
-4.27173e-06
-4.14836e-06
-4.05089e-06
-3.9777e-06
-3.92936e-06
-3.91012e-06
-3.92959e-06
-4.00419e-06
-4.15729e-06
-4.41588e-06
-4.79881e-06
-5.25607e-06
-5.65285e-06
-5.89267e-06
-5.92812e-06
-5.73782e-06
-5.31904e-06
-4.68392e-06
-3.85719e-06
-2.87483e-06
-1.78306e-06
-6.37118e-07
5.00625e-07
1.56334e-06
2.48324e-06
3.19589e-06
3.64576e-06
3.79163e-06
3.61216e-06
3.11151e-06
2.32132e-06
1.29866e-06
1.18942e-07
-1.13475e-06
-6.27337e-06
-6.18434e-06
-6.06216e-06
-5.8989e-06
-5.70028e-06
-5.47898e-06
-5.24807e-06
-5.01929e-06
-4.80262e-06
-4.60548e-06
-4.43238e-06
-4.28516e-06
-4.16386e-06
-4.06772e-06
-3.99635e-06
-3.95102e-06
-3.93611e-06
-3.96063e-06
-4.03944e-06
-4.19312e-06
-4.44472e-06
-4.80858e-06
-5.2348e-06
-5.59837e-06
-5.8106e-06
-5.82884e-06
-5.63554e-06
-5.23097e-06
-4.62997e-06
-3.85977e-06
-2.95833e-06
-1.97279e-06
-9.57619e-07
2.78515e-08
9.22673e-07
1.66816e-06
2.21223e-06
2.51436e-06
2.54929e-06
2.31066e-06
1.81296e-06
1.09039e-06
1.92856e-07
-8.20909e-07
-1.89035e-06
-5.9188e-06
-5.85705e-06
-5.77158e-06
-5.65189e-06
-5.50038e-06
-5.32608e-06
-5.1386e-06
-4.94704e-06
-4.76e-06
-4.58487e-06
-4.42714e-06
-4.2902e-06
-4.1758e-06
-4.08483e-06
-4.01821e-06
-3.97809e-06
-3.96909e-06
-3.99965e-06
-4.08296e-06
-4.23674e-06
-4.47986e-06
-4.82226e-06
-5.21448e-06
-5.54242e-06
-5.72644e-06
-5.72937e-06
-5.53785e-06
-5.15536e-06
-4.59923e-06
-3.89855e-06
-3.09209e-06
-2.22625e-06
-1.35269e-06
-5.25427e-07
2.02555e-07
7.83066e-07
1.17647e-06
1.35538e-06
1.30665e-06
1.03317e-06
5.53504e-07
-1.00554e-07
-8.88097e-07
-1.76454e-06
-2.68553e-06
-5.54028e-06
-5.50432e-06
-5.45217e-06
-5.37163e-06
-5.26304e-06
-5.13307e-06
-4.98869e-06
-4.83651e-06
-4.68337e-06
-4.53593e-06
-4.39987e-06
-4.27943e-06
-4.17766e-06
-4.09681e-06
-4.03905e-06
-4.00738e-06
-4.00671e-06
-4.04491e-06
-4.1335e-06
-4.28725e-06
-4.52087e-06
-4.84012e-06
-5.19657e-06
-5.48787e-06
-5.64474e-06
-5.63625e-06
-5.45337e-06
-5.10268e-06
-4.6035e-06
-3.98569e-06
-3.28735e-06
-2.55224e-06
-1.82721e-06
-1.15915e-06
-5.91868e-07
-1.62875e-07
9.94755e-08
1.78125e-07
6.80891e-08
-2.23058e-07
-6.7667e-07
-1.26568e-06
-1.95795e-06
-2.72023e-06
-3.51982e-06
-5.13289e-06
-5.12192e-06
-5.10079e-06
-5.05609e-06
-4.98696e-06
-4.89861e-06
-4.79616e-06
-4.68419e-06
-4.56781e-06
-4.4526e-06
-4.34384e-06
-4.24605e-06
-4.16299e-06
-4.09788e-06
-4.0539e-06
-4.03478e-06
-4.04562e-06
-4.09371e-06
-4.18891e-06
-4.34308e-06
-4.56696e-06
-4.86268e-06
-5.1835e-06
-5.43942e-06
-5.57262e-06
-5.55898e-06
-5.39369e-06
-5.08595e-06
-4.65615e-06
-4.1336e-06
-3.55399e-06
-2.9567e-06
-2.38215e-06
-1.86906e-06
-1.45183e-06
-1.15818e-06
-1.00726e-06
-1.00876e-06
-1.16279e-06
-1.46035e-06
-1.88491e-06
-2.41479e-06
-3.02553e-06
-3.69267e-06
-4.39204e-06
-4.6918e-06
-4.70564e-06
-4.71406e-06
-4.7029e-06
-4.67057e-06
-4.62148e-06
-4.55953e-06
-4.48781e-06
-4.40995e-06
-4.33036e-06
-4.25365e-06
-4.18414e-06
-4.12579e-06
-4.08236e-06
-4.05761e-06
-4.05575e-06
-4.08194e-06
-4.1428e-06
-4.24657e-06
-4.4024e-06
-4.61748e-06
-4.89105e-06
-5.17897e-06
-5.40386e-06
-5.51981e-06
-5.50977e-06
-5.37272e-06
-5.11955e-06
-4.77055e-06
-4.35303e-06
-3.8987e-06
-3.44117e-06
-3.01355e-06
-2.64623e-06
-2.36493e-06
-2.18916e-06
-2.13122e-06
-2.19603e-06
-2.38139e-06
-2.67876e-06
-3.07473e-06
-3.5527e-06
-4.09458e-06
-4.68265e-06
-5.29903e-06
-4.21274e-06
-4.25174e-06
-4.28878e-06
-4.30956e-06
-4.31218e-06
-4.30055e-06
-4.27779e-06
-4.24597e-06
-4.2076e-06
-4.16608e-06
-4.12521e-06
-4.08885e-06
-4.06078e-06
-4.04483e-06
-4.04497e-06
-4.06552e-06
-4.11145e-06
-4.18863e-06
-4.30373e-06
-4.46354e-06
-4.67234e-06
-4.92742e-06
-5.18824e-06
-5.38984e-06
-5.498e-06
-5.50238e-06
-5.40493e-06
-5.21712e-06
-4.95782e-06
-4.65101e-06
-4.32333e-06
-4.00191e-06
-3.71248e-06
-3.47774e-06
-3.3161e-06
-3.24074e-06
-3.25926e-06
-3.3739e-06
-3.58181e-06
-3.8759e-06
-4.24598e-06
-4.67989e-06
-5.16459e-06
-5.68747e-06
-6.2354e-06
-3.69373e-06
-3.75857e-06
-3.82348e-06
-3.875e-06
-3.91127e-06
-3.93578e-06
-3.95115e-06
-3.95876e-06
-3.96037e-06
-3.95856e-06
-3.95639e-06
-3.95712e-06
-3.96412e-06
-3.98096e-06
-4.01142e-06
-4.0596e-06
-4.13004e-06
-4.22771e-06
-4.35789e-06
-4.52534e-06
-4.73226e-06
-4.97512e-06
-5.21783e-06
-5.40717e-06
-5.51949e-06
-5.55021e-06
-5.50315e-06
-5.38918e-06
-5.22465e-06
-5.02932e-06
-4.82426e-06
-4.63017e-06
-4.46604e-06
-4.34812e-06
-4.28911e-06
-4.29768e-06
-4.37852e-06
-4.53254e-06
-4.75723e-06
-5.0473e-06
-5.39546e-06
-5.7932e-06
-6.23137e-06
-6.70118e-06
-7.19314e-06
-3.1368e-06
-3.22824e-06
-3.32014e-06
-3.40129e-06
-3.47022e-06
-3.52989e-06
-3.58245e-06
-3.62893e-06
-3.67061e-06
-3.70946e-06
-3.74792e-06
-3.78865e-06
-3.83449e-06
-3.88853e-06
-3.9541e-06
-4.03482e-06
-4.13455e-06
-4.25736e-06
-4.40721e-06
-4.58738e-06
-4.7988e-06
-5.03814e-06
-5.27445e-06
-5.46508e-06
-5.59496e-06
-5.66365e-06
-5.67575e-06
-5.64061e-06
-5.57142e-06
-5.48341e-06
-5.39225e-06
-5.3129e-06
-5.25875e-06
-5.24097e-06
-5.26814e-06
-5.34596e-06
-5.47742e-06
-5.66301e-06
-5.90097e-06
-6.18776e-06
-6.51852e-06
-6.88754e-06
-7.28868e-06
-7.71594e-06
-8.16265e-06
-2.54819e-06
-2.66705e-06
-2.78503e-06
-2.89488e-06
-2.99583e-06
-3.09004e-06
-3.17912e-06
-3.26393e-06
-3.34553e-06
-3.42547e-06
-3.50565e-06
-3.58821e-06
-3.67544e-06
-3.76987e-06
-3.87426e-06
-3.99157e-06
-4.12491e-06
-4.27741e-06
-4.452e-06
-4.65088e-06
-4.8745e-06
-5.12044e-06
-5.36338e-06
-5.56989e-06
-5.73059e-06
-5.84704e-06
-5.92366e-06
-5.96799e-06
-5.99001e-06
-6.00071e-06
-6.01107e-06
-6.03137e-06
-6.0707e-06
-6.13657e-06
-6.23474e-06
-6.3691e-06
-6.54178e-06
-6.75326e-06
-7.00262e-06
-7.28774e-06
-7.60568e-06
-7.95287e-06
-8.32537e-06
-8.71926e-06
-9.13008e-06
-1.93977e-06
-2.08659e-06
-2.2296e-06
-2.36731e-06
-2.49993e-06
-2.6284e-06
-2.75359e-06
-2.87633e-06
-2.99759e-06
-3.11863e-06
-3.24093e-06
-3.36613e-06
-3.49604e-06
-3.63266e-06
-3.77814e-06
-3.93478e-06
-4.10494e-06
-4.29095e-06
-4.49492e-06
-4.71841e-06
-4.96186e-06
-5.22387e-06
-5.48523e-06
-5.72097e-06
-5.92386e-06
-6.09474e-06
-6.23725e-06
-6.35752e-06
-6.46282e-06
-6.56062e-06
-6.65819e-06
-6.76231e-06
-6.87897e-06
-7.01318e-06
-7.16881e-06
-7.34872e-06
-7.55473e-06
-7.78754e-06
-8.0469e-06
-8.33186e-06
-8.64085e-06
-8.97189e-06
-9.32267e-06
-9.69077e-06
-1.00735e-05
-1.36432e-06
-1.53916e-06
-1.70692e-06
-1.87187e-06
-2.03519e-06
-2.19655e-06
-2.35611e-06
-2.51465e-06
-2.67314e-06
-2.83263e-06
-2.99423e-06
-3.15923e-06
-3.32906e-06
-3.50527e-06
-3.68954e-06
-3.8836e-06
-4.08926e-06
-4.30825e-06
-4.54218e-06
-4.7922e-06
-5.059e-06
-5.3415e-06
-5.62659e-06
-5.89713e-06
-6.14493e-06
-6.36779e-06
-6.56841e-06
-6.75226e-06
-6.92489e-06
-7.0913e-06
-7.25624e-06
-7.42423e-06
-7.59933e-06
-7.78499e-06
-7.98399e-06
-8.19852e-06
-8.43013e-06
-8.67969e-06
-8.94749e-06
-9.23332e-06
-9.53659e-06
-9.85638e-06
-1.01916e-05
-1.05408e-05
-1.09029e-05
-8.82988e-07
-1.08388e-06
-1.27692e-06
-1.46864e-06
-1.66046e-06
-1.85149e-06
-2.04156e-06
-2.23139e-06
-2.42191e-06
-2.61398e-06
-2.80849e-06
-3.00648e-06
-3.2091e-06
-3.41761e-06
-3.63333e-06
-3.85767e-06
-4.09205e-06
-4.33786e-06
-4.59642e-06
-4.8687e-06
-5.15567e-06
-5.45639e-06
-5.76242e-06
-6.06212e-06
-6.34555e-06
-6.60763e-06
-6.85043e-06
-7.07921e-06
-7.29851e-06
-7.51182e-06
-7.72238e-06
-7.93335e-06
-8.1477e-06
-8.36797e-06
-8.59628e-06
-8.83433e-06
-9.08342e-06
-9.34447e-06
-9.61804e-06
-9.90434e-06
-1.02033e-05
-1.05147e-05
-1.08379e-05
-1.11722e-05
-1.15172e-05
-5.13736e-07
-7.37901e-07
-9.5469e-07
-1.17066e-06
-1.38719e-06
-1.60331e-06
-1.81879e-06
-2.03429e-06
-2.25063e-06
-2.46856e-06
-2.68881e-06
-2.91223e-06
-3.1398e-06
-3.37257e-06
-3.61165e-06
-3.8582e-06
-4.11343e-06
-4.37853e-06
-4.65467e-06
-4.94274e-06
-5.24392e-06
-5.55738e-06
-5.87767e-06
-6.19661e-06
-6.5032e-06
-6.79069e-06
-7.06078e-06
-7.3185e-06
-7.56771e-06
-7.81099e-06
-8.05064e-06
-8.28908e-06
-8.52857e-06
-8.77108e-06
-9.01829e-06
-9.2716e-06
-9.53218e-06
-9.80091e-06
-1.00785e-05
-1.03652e-05
-1.06614e-05
-1.0967e-05
-1.12818e-05
-1.16055e-05
-1.1938e-05
-2.38465e-07
-4.82751e-07
-7.20532e-07
-9.57537e-07
-1.19493e-06
-1.43188e-06
-1.66819e-06
-1.90444e-06
-2.14137e-06
-2.37959e-06
-2.61973e-06
-2.86253e-06
-3.10881e-06
-3.35948e-06
-3.61549e-06
-3.87785e-06
-4.14762e-06
-4.42585e-06
-4.71365e-06
-5.01187e-06
-5.32182e-06
-5.64272e-06
-5.97097e-06
-6.30046e-06
-6.62006e-06
-6.92242e-06
-7.20901e-06
-7.48455e-06
-7.75236e-06
-8.01443e-06
-8.27254e-06
-8.52858e-06
-8.78437e-06
-9.04149e-06
-9.30133e-06
-9.56507e-06
-9.8337e-06
-1.01081e-05
-1.03888e-05
-1.06765e-05
-1.09713e-05
-1.12734e-05
-1.15828e-05
-1.18995e-05
-1.22234e-05
-3.8817e-08
-3.00269e-07
-5.56084e-07
-8.10909e-07
-1.06566e-06
-1.31968e-06
-1.57285e-06
-1.82568e-06
-2.0788e-06
-2.33274e-06
-2.58803e-06
-2.84534e-06
-3.10537e-06
-3.36892e-06
-3.63682e-06
-3.90997e-06
-4.18933e-06
-4.47587e-06
-4.77062e-06
-5.07444e-06
-5.38866e-06
-5.71262e-06
-6.04371e-06
-6.37709e-06
-6.7021e-06
-7.01166e-06
-7.30715e-06
-7.59288e-06
-7.87169e-06
-8.14515e-06
-8.41472e-06
-8.68194e-06
-8.94831e-06
-9.21513e-06
-9.48356e-06
-9.7546e-06
-1.00291e-05
-1.03079e-05
-1.05915e-05
-1.08805e-05
-1.11751e-05
-1.14757e-05
-1.17822e-05
-1.20948e-05
-1.24134e-05
1.01989e-07
-1.73961e-07
-4.44959e-07
-7.14609e-07
-9.83589e-07
-1.25141e-06
-1.51805e-06
-1.78394e-06
-2.04962e-06
-2.31554e-06
-2.5822e-06
-2.85017e-06
-3.12007e-06
-3.39262e-06
-3.66856e-06
-3.94871e-06
-4.23393e-06
-4.52514e-06
-4.82332e-06
-5.12932e-06
-5.44446e-06
-5.76817e-06
-6.09835e-06
-6.43093e-06
-6.75617e-06
-7.06774e-06
-7.36704e-06
-7.65788e-06
-7.94265e-06
-8.22265e-06
-8.49909e-06
-8.77329e-06
-9.0465e-06
-9.31982e-06
-9.59422e-06
-9.87056e-06
-1.01496e-05
-1.04321e-05
-1.07184e-05
-1.10092e-05
-1.13047e-05
-1.16052e-05
-1.19109e-05
-1.22217e-05
-1.25379e-05
1.98515e-07
-8.9606e-08
-3.73235e-07
-6.55081e-07
-9.35627e-07
-1.21453e-06
-1.49183e-06
-1.76793e-06
-2.04326e-06
-2.31824e-06
-2.5933e-06
-2.86897e-06
-3.1458e-06
-3.42444e-06
-3.70556e-06
-3.9899e-06
-4.27828e-06
-4.57154e-06
-4.87061e-06
-5.17635e-06
-5.49004e-06
-5.81117e-06
-6.13794e-06
-6.46669e-06
-6.78887e-06
-7.09916e-06
-7.399e-06
-7.69167e-06
-7.97914e-06
-8.26251e-06
-8.54284e-06
-8.82127e-06
-9.09885e-06
-9.37653e-06
-9.65514e-06
-9.93543e-06
-1.02181e-05
-1.05037e-05
-1.07928e-05
-1.10857e-05
-1.13829e-05
-1.16845e-05
-1.19907e-05
-1.23017e-05
-1.26175e-05
2.62716e-07
-3.56031e-08
-3.29682e-07
-6.21513e-07
-9.11423e-07
-1.1992e-06
-1.48492e-06
-1.76895e-06
-2.05167e-06
-2.33343e-06
-2.61465e-06
-2.89579e-06
-3.17737e-06
-3.45997e-06
-3.7442e-06
-4.03075e-06
-4.32038e-06
-4.61387e-06
-4.91212e-06
-5.21595e-06
-5.52661e-06
-5.84368e-06
-6.16547e-06
-6.48866e-06
-6.80591e-06
-7.11301e-06
-7.41143e-06
-7.70389e-06
-7.99201e-06
-8.27675e-06
-8.55906e-06
-8.83992e-06
-9.12025e-06
-9.40086e-06
-9.68249e-06
-9.9658e-06
-1.02514e-05
-1.05398e-05
-1.08315e-05
-1.11268e-05
-1.14261e-05
-1.17297e-05
-1.20376e-05
-1.23499e-05
-1.26668e-05
3.03972e-07
-2.89845e-09
-3.05615e-07
-6.05612e-07
-9.03109e-07
-1.19798e-06
-1.49037e-06
-1.78057e-06
-2.06893e-06
-2.35577e-06
-2.64147e-06
-2.92646e-06
-3.21122e-06
-3.49626e-06
-3.78217e-06
-4.06957e-06
-4.35917e-06
-4.6517e-06
-4.94803e-06
-5.24894e-06
-5.55563e-06
-5.86776e-06
-6.18372e-06
-6.50051e-06
-6.81197e-06
-7.11494e-06
-7.41083e-06
-7.7019e-06
-7.98945e-06
-8.27434e-06
-8.55742e-06
-8.83957e-06
-9.12158e-06
-9.40417e-06
-9.688e-06
-9.97366e-06
-1.02617e-05
-1.05526e-05
-1.08468e-05
-1.11446e-05
-1.14464e-05
-1.17523e-05
-1.20625e-05
-1.23771e-05
-1.26962e-05
3.29394e-07
1.5328e-08
-2.94546e-07
-6.01246e-07
-9.04917e-07
-1.20551e-06
-1.50319e-06
-1.79823e-06
-2.09092e-06
-2.38158e-06
-2.67055e-06
-2.95822e-06
-3.24505e-06
-3.5315e-06
-3.81812e-06
-4.10549e-06
-4.39425e-06
-4.68512e-06
-4.97888e-06
-5.2763e-06
-5.57853e-06
-5.8853e-06
-6.19512e-06
-6.50529e-06
-6.81075e-06
-7.10924e-06
-7.40211e-06
-7.69116e-06
-7.97746e-06
-8.26178e-06
-8.54491e-06
-8.82761e-06
-9.1106e-06
-9.39453e-06
-9.68e-06
-9.96754e-06
-1.02577e-05
-1.05508e-05
-1.08474e-05
-1.11477e-05
-1.1452e-05
-1.17605e-05
-1.20734e-05
-1.23908e-05
-1.27127e-05
3.44188e-07
2.40329e-08
-2.91806e-07
-6.04045e-07
-9.12782e-07
-1.21803e-06
-1.51997e-06
-1.81883e-06
-2.11489e-06
-2.40844e-06
-2.69981e-06
-2.98936e-06
-3.2775e-06
-3.56468e-06
-3.85139e-06
-4.13819e-06
-4.42566e-06
-4.71447e-06
-5.00536e-06
-5.29906e-06
-5.59667e-06
-5.89799e-06
-6.20168e-06
-6.50537e-06
-6.80502e-06
-7.09908e-06
-7.38877e-06
-7.67554e-06
-7.96025e-06
-8.24362e-06
-8.52637e-06
-8.80919e-06
-9.09272e-06
-9.37755e-06
-9.66425e-06
-9.9533e-06
-1.02452e-05
-1.05403e-05
-1.08391e-05
-1.11418e-05
-1.14486e-05
-1.17599e-05
-1.20756e-05
-1.2396e-05
-1.2721e-05
3.5204e-07
2.6698e-08
-2.94153e-07
-6.11011e-07
-9.23954e-07
-1.23304e-06
-1.53844e-06
-1.84038e-06
-2.1391e-06
-2.43489e-06
-2.72804e-06
-3.0189e-06
-3.30786e-06
-3.59533e-06
-3.88178e-06
-4.1677e-06
-4.45365e-06
-4.74025e-06
-5.02819e-06
-5.31815e-06
-5.6112e-06
-5.90719e-06
-6.20496e-06
-6.50258e-06
-6.79681e-06
-7.08668e-06
-7.37326e-06
-7.65768e-06
-7.94068e-06
-8.22293e-06
-8.50507e-06
-8.78773e-06
-9.07151e-06
-9.35696e-06
-9.64459e-06
-9.93488e-06
-1.02283e-05
-1.05252e-05
-1.08259e-05
-1.11308e-05
-1.14401e-05
-1.1754e-05
-1.20726e-05
-1.2396e-05
-1.27242e-05
3.55484e-07
2.56872e-08
-2.99413e-07
-6.20168e-07
-9.36648e-07
-1.24894e-06
-1.5572e-06
-1.86165e-06
-2.16252e-06
-2.46007e-06
-2.75458e-06
-3.04639e-06
-3.33584e-06
-3.62334e-06
-3.90931e-06
-4.19421e-06
-4.47858e-06
-4.76297e-06
-5.04802e-06
-5.33438e-06
-5.62305e-06
-5.91394e-06
-6.20615e-06
-6.49819e-06
-6.78751e-06
-7.07352e-06
-7.35715e-06
-7.63929e-06
-7.92058e-06
-8.20164e-06
-8.48306e-06
-8.76542e-06
-9.04927e-06
-9.33513e-06
-9.62349e-06
-9.9148e-06
-1.02095e-05
-1.05079e-05
-1.08105e-05
-1.11175e-05
-1.1429e-05
-1.17454e-05
-1.20667e-05
-1.2393e-05
-1.27244e-05
3.56206e-07
2.2555e-08
-3.06185e-07
-6.30265e-07
-9.49756e-07
-1.26476e-06
-1.57543e-06
-1.88198e-06
-2.18461e-06
-2.48357e-06
-2.77915e-06
-3.07164e-06
-3.36139e-06
-3.64876e-06
-3.93415e-06
-4.21801e-06
-4.50081e-06
-4.78307e-06
-5.06539e-06
-5.34835e-06
-5.63292e-06
-5.91904e-06
-6.20609e-06
-6.49308e-06
-6.77799e-06
-7.06051e-06
-7.34141e-06
-7.6214e-06
-7.90106e-06
-8.18094e-06
-8.4616e-06
-8.74358e-06
-9.02739e-06
-9.31352e-06
-9.60244e-06
-9.8946e-06
-1.01904e-05
-1.04902e-05
-1.07944e-05
-1.11032e-05
-1.14168e-05
-1.17355e-05
-1.20594e-05
-1.23884e-05
-1.27227e-05
3.55305e-07
1.8296e-08
-3.13589e-07
-6.40536e-07
-9.6262e-07
-1.27995e-06
-1.59268e-06
-1.90099e-06
-2.20509e-06
-2.50522e-06
-2.80165e-06
-3.09466e-06
-3.38457e-06
-3.67174e-06
-3.95653e-06
-4.23936e-06
-4.52066e-06
-4.80093e-06
-5.08072e-06
-5.36055e-06
-5.64132e-06
-5.92303e-06
-6.20535e-06
-6.4878e-06
-6.76881e-06
-7.04819e-06
-7.32659e-06
-7.60459e-06
-7.88272e-06
-8.16148e-06
-8.44139e-06
-8.72295e-06
-9.00665e-06
-9.29296e-06
-9.58232e-06
-9.87518e-06
-1.01719e-05
-1.04729e-05
-1.07785e-05
-1.10889e-05
-1.14045e-05
-1.17253e-05
-1.20514e-05
-1.2383e-05
-1.27201e-05
3.53484e-07
1.35336e-08
-3.21087e-07
-6.50526e-07
-9.74861e-07
-1.2942e-06
-1.60869e-06
-1.91852e-06
-2.22387e-06
-2.52498e-06
-2.8221e-06
-3.11551e-06
-3.40551e-06
-3.69244e-06
-3.97663e-06
-4.25848e-06
-4.53841e-06
-4.81685e-06
-5.09432e-06
-5.37128e-06
-5.6486e-06
-5.92626e-06
-6.20429e-06
-6.48269e-06
-6.76024e-06
-7.03681e-06
-7.31295e-06
-7.58915e-06
-7.86586e-06
-8.14358e-06
-8.42277e-06
-8.70391e-06
-8.98746e-06
-9.27387e-06
-9.56359e-06
-9.85703e-06
-1.01546e-05
-1.04566e-05
-1.07634e-05
-1.10753e-05
-1.13925e-05
-1.17152e-05
-1.20435e-05
-1.23774e-05
-1.27169e-05
3.51171e-07
8.63627e-09
-3.28376e-07
-6.59993e-07
-9.86293e-07
-1.30738e-06
-1.62341e-06
-1.93453e-06
-2.24096e-06
-2.5429e-06
-2.8406e-06
-3.13432e-06
-3.42436e-06
-3.71103e-06
-3.99466e-06
-4.27561e-06
-4.55427e-06
-4.83105e-06
-5.10642e-06
-5.3808e-06
-5.655e-06
-5.92899e-06
-6.20313e-06
-6.47793e-06
-6.75242e-06
-7.02649e-06
-7.3006e-06
-7.57516e-06
-7.85059e-06
-8.12735e-06
-8.40587e-06
-8.68659e-06
-8.96998e-06
-9.25645e-06
-9.54644e-06
-9.84036e-06
-1.01386e-05
-1.04415e-05
-1.07494e-05
-1.10625e-05
-1.13812e-05
-1.17056e-05
-1.20357e-05
-1.23717e-05
-1.27135e-05
3.48585e-07
3.74191e-09
-3.35397e-07
-6.68949e-07
-9.96991e-07
-1.31963e-06
-1.637e-06
-1.94928e-06
-2.25664e-06
-2.55929e-06
-2.85749e-06
-3.15147e-06
-3.44152e-06
-3.72794e-06
-4.01103e-06
-4.29115e-06
-4.56865e-06
-4.84391e-06
-5.11737e-06
-5.3894e-06
-5.66075e-06
-5.93137e-06
-6.20196e-06
-6.47352e-06
-6.74528e-06
-7.0171e-06
-7.28937e-06
-7.56244e-06
-7.8367e-06