/*--------------------------------*- C++ -*----------------------------------*\
| =========                 |                                                 |
| \\      /  F ield         | OpenFOAM: The Open Source CFD Toolbox           |
|  \\    /   O peration     | Version:  2312                                  |
|   \\  /    A nd           | Website:  www.openfoam.com                      |
|    \\/     M anipulation  |                                                 |
\*---------------------------------------------------------------------------*/
FoamFile
{
    version     2.0;
    format      ascii;
    arch        "LSB;label=32;scalar=64";
    class       surfaceScalarField;
    location    "400";
    object      phi;
}
// * * * * * * * * * * * * * * * * * * * * * * * * * * * * * * * * * * * * * //

dimensions      [0 3 -1 0 0 0 0];

oriented        oriented;

internalField   nonuniform List<scalar> 
9445
(
5.4454e-10
1.15611e-11
5.37628e-10
6.911e-12
5.33623e-10
4.00469e-12
5.31679e-10
1.94431e-12
5.31281e-10
3.98282e-13
5.32126e-10
-8.45142e-13
5.34077e-10
-1.95121e-12
5.37138e-10
-3.0615e-12
5.4149e-10
-4.35193e-12
5.47669e-10
-6.17847e-12
5.57232e-10
-9.56365e-12
5.74813e-10
-1.75807e-11
6.12107e-10
-3.72937e-11
7.00486e-10
-8.83788e-11
-2.40591e-10
9.41076e-10
1.90095e-09
5.13515e-11
1.87676e-09
3.1095e-11
1.86243e-09
1.83412e-11
1.85498e-09
9.38918e-12
1.85268e-09
2.69937e-12
1.85448e-09
-2.64078e-12
1.85986e-09
-7.32908e-12
1.86875e-09
-1.1957e-11
1.88162e-09
-1.7217e-11
1.89977e-09
-2.43295e-11
1.92633e-09
-3.6125e-11
1.96797e-09
-5.92178e-11
2.03696e-09
-1.0629e-10
2.14693e-09
-1.98352e-10
-3.53547e-10
2.25989e-09
3.75135e-09
1.28539e-10
3.70387e-09
7.85767e-11
3.67522e-09
4.69886e-11
3.65963e-09
2.49755e-11
3.65373e-09
8.60683e-12
3.65545e-09
-4.36293e-12
3.66371e-09
-1.55942e-11
3.67821e-09
-2.6457e-11
3.69943e-09
-3.84353e-11
3.72888e-09
-5.37809e-11
3.76951e-09
-7.67495e-11
3.82549e-09
-1.15205e-10
3.8995e-09
-1.80292e-10
3.98101e-09
-2.79867e-10
-4.01545e-10
4.02901e-09
6.23114e-09
2.53596e-10
6.15315e-09
1.56573e-10
6.1052e-09
9.49301e-11
6.07796e-09
5.22186e-11
6.06592e-09
2.06473e-11
6.06571e-09
-4.15487e-12
6.0754e-09
-2.52835e-11
6.09413e-09
-4.51834e-11
6.12193e-09
-6.62376e-11
6.1596e-09
-9.14543e-11
6.20817e-09
-1.25313e-10
6.26702e-09
-1.74056e-10
6.32992e-09
-2.43191e-10
6.38005e-09
-3.29996e-10
-4.15129e-10
6.39363e-09
9.50423e-09
4.37433e-10
9.38774e-09
2.73056e-10
9.31469e-09
1.67982e-10
9.27143e-09
9.54785e-11
9.24985e-09
4.22296e-11
9.24489e-09
8.01182e-13
9.25344e-09
-3.38319e-11
9.27368e-09
-6.542e-11
9.30462e-09
-9.7185e-11
9.34555e-09
-1.32379e-10
9.3948e-09
-1.74561e-10
9.44769e-09
-2.26954e-10
9.4944e-09
-2.89893e-10
9.52091e-09
-3.56505e-10
-4.11262e-10
9.51704e-09
1.37645e-08
6.89045e-10
1.36021e-08
4.35506e-10
1.3498e-08
2.72114e-10
1.34338e-08
1.59591e-10
1.33986e-08
7.74541e-11
1.33852e-08
1.42086e-11
1.3389e-08
-3.75947e-11
1.34067e-08
-8.31825e-11
1.3436e-08
-1.26491e-10
1.34743e-08
-1.70612e-10
1.35175e-08
-2.17751e-10
1.3559e-08
-2.6852e-10
1.35897e-08
-3.20576e-10
1.36006e-08
-3.67437e-10
-3.99828e-10
1.35892e-08
1.92342e-08
1.01118e-09
1.90215e-08
6.48258e-10
1.88818e-08
4.11838e-10
1.87925e-08
2.48843e-10
1.87395e-08
1.3043e-10
1.87136e-08
4.01706e-11
1.87082e-08
-3.22513e-11
1.87187e-08
-9.36824e-11
1.8741e-08
-1.48726e-10
1.87706e-08
-2.00273e-10
1.88024e-08
-2.49557e-10
1.88299e-08
-2.95953e-10
1.88461e-08
-3.36852e-10
1.88468e-08
-3.68092e-10
-3.85507e-10
1.88325e-08
2.61568e-08
1.39337e-09
2.58971e-08
9.07951e-10
2.57217e-08
5.87175e-10
2.56057e-08
3.64906e-10
2.55323e-08
2.03789e-10
2.54904e-08
8.20445e-11
2.5472e-08
-1.3786e-11
2.54706e-08
-9.22978e-11
2.54807e-08
-1.58885e-10
2.54971e-08
-2.16577e-10
2.5514e-08
-2.66478e-10
2.55262e-08
-3.08143e-10
2.55294e-08
-3.40136e-10
2.55222e-08
-3.60829e-10
-3.69339e-10
2.5506e-08
3.47847e-08
1.80387e-09
3.44952e-08
1.19744e-09
3.42932e-08
7.89184e-10
3.41545e-08
5.03549e-10
3.40621e-08
2.96191e-10
3.40037e-08
1.40444e-10
3.39701e-08
1.9805e-11
3.3954e-08
-7.61257e-11
3.39489e-08
-1.53777e-10
3.39491e-08
-2.16848e-10
3.39498e-08
-2.67147e-10
3.3947e-08
-3.05326e-10
3.39385e-08
-3.31598e-10
3.3924e-08
-3.46373e-10
-3.5062e-10
3.39053e-08
4.53688e-08
2.18614e-09
4.50851e-08
1.48123e-09
4.48786e-08
9.9564e-10
4.47312e-08
6.50943e-10
4.46281e-08
3.99252e-10
4.45579e-08
2.10639e-10
4.45115e-08
6.62401e-11
4.44814e-08
-4.598e-11
4.44613e-08
-1.33667e-10
4.4446e-08
-2.01609e-10
4.44317e-08
-2.52822e-10
4.44157e-08
-2.89369e-10
4.43971e-08
-3.12987e-10
4.43762e-08
-3.25476e-10
-3.28763e-10
4.43544e-08
5.81684e-08
2.47163e-09
5.79396e-08
1.70997e-09
5.77635e-08
1.17173e-09
5.76317e-08
7.82754e-10
5.7535e-08
4.96003e-10
5.74648e-08
2.80806e-10
5.74139e-08
1.17179e-10
5.73759e-08
-8.03399e-12
5.73459e-08
-1.03601e-10
5.73197e-08
-1.75495e-10
5.72949e-08
-2.27993e-10
5.727e-08
-2.64424e-10
5.72446e-08
-2.87642e-10
5.72194e-08
-3.00276e-10
-3.04679e-10
5.71953e-08
7.35081e-08
2.61527e-09
7.3376e-08
1.84207e-09
7.32648e-08
1.28287e-09
7.3176e-08
8.71607e-10
7.31068e-08
5.65198e-10
7.30531e-08
3.34437e-10
7.30108e-08
1.59527e-10
7.29759e-08
2.6909e-11
7.29452e-08
-7.29282e-11
7.29166e-08
-1.46883e-10
7.28888e-08
-2.00189e-10
7.28614e-08
-2.37035e-10
7.28347e-08
-2.60925e-10
7.28093e-08
-2.74867e-10
-2.81332e-10
7.27859e-08
9.18726e-08
2.63014e-09
9.18408e-08
1.87387e-09
9.18054e-08
1.31823e-09
9.17724e-08
9.04609e-10
9.17435e-08
5.94147e-10
9.17181e-08
3.5978e-10
9.16951e-08
1.82521e-10
9.16732e-08
4.88824e-11
9.16512e-08
-5.0977e-11
9.16288e-08
-1.24467e-10
9.16059e-08
-1.77342e-10
9.15831e-08
-2.14204e-10
9.1561e-08
-2.38796e-10
9.15403e-08
-2.54188e-10
-2.62776e-10
9.15218e-08
1.13929e-07
2.57328e-09
1.1396e-07
1.84288e-09
1.13977e-07
1.30134e-09
1.13986e-07
8.9593e-10
1.13989e-07
5.90879e-10
1.13988e-07
3.60751e-10
1.13983e-07
1.87237e-10
1.13975e-07
5.69874e-11
1.13964e-07
-3.99583e-11
1.13951e-07
-1.11212e-10
1.13936e-07
-1.62707e-10
1.13921e-07
-1.99124e-10
1.13907e-07
-2.24181e-10
1.13893e-07
-2.40831e-10
-2.51302e-10
1.13882e-07
1.40363e-07
2.48981e-09
1.40417e-07
1.78937e-09
1.40452e-07
1.26605e-09
1.40475e-07
8.7291e-10
1.40489e-07
5.76883e-10
1.40496e-07
3.53871e-10
1.40497e-07
1.86131e-10
1.40494e-07
6.04793e-11
1.40487e-07
-3.30285e-11
1.40478e-07
-1.02009e-10
1.40467e-07
-1.52356e-10
1.40457e-07
-1.88655e-10
1.40447e-07
-2.14467e-10
1.40439e-07
-2.32563e-10
-2.44981e-10
1.40432e-07
1.71626e-07
2.38594e-09
1.7169e-07
1.72481e-09
1.7173e-07
1.22628e-09
1.71753e-07
8.49834e-10
1.71764e-07
5.65602e-10
1.71767e-07
3.51156e-10
1.71764e-07
1.89633e-10
1.71756e-07
6.83171e-11
1.71745e-07
-2.24573e-11
1.71733e-07
-9.00857e-11
1.71721e-07
-1.40248e-10
1.7171e-07
-1.77312e-10
1.717e-07
-2.04618e-10
1.71692e-07
-2.24734e-10
-2.39513e-10
1.71687e-07
2.07782e-07
2.24901e-09
2.07866e-07
1.64047e-09
2.07916e-07
1.17661e-09
2.07942e-07
8.23736e-10
2.07952e-07
5.55696e-10
2.07951e-07
3.5232e-10
2.07942e-07
1.98161e-10
2.07929e-07
8.14242e-11
2.07913e-07
-6.91681e-12
2.07897e-07
-7.37702e-11
2.07881e-07
-1.24419e-10
2.07867e-07
-1.62897e-10
2.07855e-07
-1.9227e-10
2.07845e-07
-2.14882e-10
-2.32399e-10
2.07838e-07
2.48417e-07
2.07102e-09
2.48529e-07
1.52806e-09
2.48596e-07
1.10923e-09
2.48633e-07
7.8758e-10
2.48647e-07
5.41011e-10
2.48647e-07
3.52106e-10
2.48638e-07
2.07343e-10
2.48623e-07
9.62769e-11
2.48606e-07
1.08631e-11
2.48587e-07
-5.50742e-11
2.48569e-07
-1.06256e-10
2.48552e-07
-1.46282e-10
2.48538e-07
-1.77881e-10
2.48526e-07
-2.03146e-10
-2.23544e-10
2.48517e-07
2.92365e-07
1.85243e-09
2.92507e-07
1.38568e-09
2.92595e-07
1.02101e-09
2.92645e-07
7.37637e-10
2.92669e-07
5.17697e-10
2.92674e-07
3.46875e-10
2.92667e-07
2.13951e-10
2.92653e-07
1.10162e-10
2.92635e-07
2.87018e-11
2.92616e-07
-3.56795e-11
2.92597e-07
-8.70051e-11
2.92579e-07
-1.28351e-10
2.92563e-07
-1.62053e-10
2.9255e-07
-1.89919e-10
-2.13195e-10
2.92539e-07
3.37156e-07
1.59663e-09
3.37327e-07
1.21443e-09
3.37437e-07
9.11475e-10
3.37502e-07
6.72546e-10
3.37536e-07
4.84015e-10
3.37548e-07
3.34896e-10
3.37545e-07
2.16507e-10
3.37533e-07
1.21982e-10
3.37516e-07
4.59337e-11
3.37496e-07
-1.58331e-11
3.37476e-07
-6.65527e-11
3.37456e-07
-1.08712e-10
3.37438e-07
-1.44207e-10
3.37423e-07
-1.7452e-10
-2.00663e-10
3.3741e-07
3.3515e-07
1.34091e-09
3.35325e-07
1.03977e-09
3.35439e-07
7.96994e-10
3.3551e-07
6.02053e-10
3.35548e-07
4.45172e-10
3.35565e-07
3.18399e-10
3.35566e-07
2.15379e-10
3.35557e-07
1.3102e-10
3.35542e-07
6.1272e-11
3.35523e-07
2.9619e-12
3.35503e-07
-4.63845e-11
3.35483e-07
-8.86906e-11
3.35464e-07
-1.25438e-10
3.35447e-07
-1.57787e-10
-1.8656e-10
3.35433e-07
2.87188e-07
1.1192e-09
2.87343e-07
8.84333e-10
2.87449e-07
6.91692e-10
2.87517e-07
5.34025e-10
2.87557e-07
4.04514e-10
2.87578e-07
2.97562e-10
2.87585e-07
2.08623e-10
2.87582e-07
1.33993e-10
2.87572e-07
7.06914e-11
2.87559e-07
1.63599e-11
2.87544e-07
-3.08503e-11
2.87527e-07
-7.23861e-11
2.87511e-07
-1.0938e-10
2.87496e-07
-1.4272e-10
-1.73064e-10
2.87483e-07
2.41119e-07
9.28976e-10
2.41256e-07
7.47047e-10
2.41353e-07
5.95171e-10
2.41418e-07
4.68358e-10
2.41461e-07
3.6199e-10
2.41486e-07
2.72243e-10
2.41499e-07
1.95937e-10
2.41502e-07
1.30421e-10
2.415e-07
7.35413e-11
2.41492e-07
2.35823e-11
2.41482e-07
-2.08116e-11
2.41471e-07
-6.0709e-11
2.41458e-07
-9.69553e-11
2.41446e-07
-1.30213e-10
-1.60993e-10
2.41434e-07
1.99179e-07
7.66321e-10
1.993e-07
6.26196e-10
1.99388e-07
5.07065e-10
1.99451e-07
4.05497e-10
1.99495e-07
3.18484e-10
1.99523e-07
2.4352e-10
1.99541e-07
1.78427e-10
1.9955e-07
1.21342e-10
1.99553e-07
7.07383e-11
1.99551e-07
2.53941e-11
1.99546e-07
-1.56621e-11
1.99538e-07
-5.32022e-11
1.99529e-07
-8.78432e-11
1.99519e-07
-1.20067e-10
-1.50259e-10
1.99508e-07
1.62316e-07
6.26933e-10
1.62423e-07
5.19624e-10
1.62503e-07
4.26636e-10
1.62563e-07
3.45614e-10
1.62607e-07
2.74722e-10
1.62638e-07
2.12408e-10
1.62659e-07
1.57225e-10
1.62672e-07
1.07887e-10
1.6268e-07
6.33363e-11
1.62683e-07
2.27266e-11
1.62681e-07
-1.46206e-11
1.62678e-07
-4.92483e-11
1.62671e-07
-8.15957e-11
1.62663e-07
-1.12002e-10
-1.4075e-10
1.62654e-07
1.30719e-07
5.06842e-10
1.30814e-07
4.2523e-10
1.30887e-07
3.53064e-10
1.30944e-07
2.88742e-10
1.30988e-07
2.31273e-10
1.3102e-07
1.79788e-10
1.31044e-07
1.33361e-10
1.31061e-07
9.11265e-11
1.31072e-07
5.23728e-11
1.31078e-07
1.65339e-11
1.3108e-07
-1.68482e-11
1.31079e-07
-4.81444e-11
1.31075e-07
-7.7657e-11
1.31069e-07
-1.05616e-10
-1.32225e-10
1.3106e-07
1.04154e-07
4.02995e-10
1.04237e-07
3.41508e-10
1.04304e-07
2.85938e-10
1.04358e-07
2.35218e-10
1.044e-07
1.88966e-10
1.04433e-07
1.46791e-10
1.04458e-07
1.08129e-10
1.04477e-07
7.24179e-11
1.0449e-07
3.91993e-11
1.04499e-07
8.11292e-12
1.04503e-07
-2.11378e-11
1.04504e-07
-4.87959e-11
1.04501e-07
-7.50617e-11
1.04496e-07
-1.00084e-10
-1.24006e-10
1.04487e-07
8.21565e-08
3.13634e-10
8.22301e-08
2.67918e-10
8.22905e-08
2.25589e-10
8.23397e-08
1.8598e-10
8.23795e-08
1.49141e-10
8.24113e-08
1.15002e-10
8.24362e-08
8.3247e-11
8.24551e-08
5.35272e-11
8.24687e-08
2.55686e-11
8.24777e-08
-8.42657e-13
8.24824e-08
-2.58879e-11
8.24834e-08
-4.97182e-11
8.24808e-08
-7.24598e-11
8.24749e-08
-9.42042e-11
-1.15049e-10
8.24659e-08
6.4167e-08
2.38026e-10
6.42303e-08
2.04627e-10
6.4283e-08
1.72839e-10
6.43267e-08
1.423e-10
6.43625e-08
1.13362e-10
6.43913e-08
8.6156e-11
6.44141e-08
6.0527e-11
6.44313e-08
3.62776e-11
6.44436e-08
1.32615e-11
6.44514e-08
-8.63613e-12
6.4455e-08
-2.95181e-11
6.44548e-08
-4.94707e-11
6.44509e-08
-6.85693e-11
6.44436e-08
-8.68673e-11
-1.04433e-10
6.44329e-08
4.96046e-08
1.75736e-10
4.96574e-08
1.5186e-10
4.97018e-08
1.28386e-10
4.97389e-08
1.05206e-10
4.97694e-08
8.28626e-11
4.9794e-08
6.15961e-11
4.98131e-08
4.13509e-11
4.98274e-08
2.20303e-11
4.98371e-08
3.57133e-12
4.98425e-08
-1.40789e-11
4.9844e-08
-3.09727e-11
4.98417e-08
-4.71549e-11
4.98358e-08
-6.26678e-11
4.98264e-08
-7.75418e-11
-9.18279e-11
4.98138e-08
3.79196e-08
1.26008e-10
3.79621e-08
1.09361e-10
3.79981e-08
9.23519e-11
3.80283e-08
7.50782e-11
3.80529e-08
5.81847e-11
3.80726e-08
4.19484e-11
3.80876e-08
2.63663e-11
3.80982e-08
1.14032e-11
3.81047e-08
-2.95774e-12
3.81074e-08
-1.67344e-11
3.81064e-08
-2.99491e-11
3.81018e-08
-4.26219e-11
3.80939e-08
-5.47756e-11
3.80828e-08
-6.64276e-11
-7.762e-11
3.80686e-08
2.86182e-08
8.75634e-11
2.86513e-08
7.62723e-11
2.86795e-08
6.42025e-11
2.87029e-08
5.16141e-11
2.8722e-08
3.91724e-11
2.87368e-08
2.71339e-11
2.87476e-08
1.55148e-11
2.87547e-08
4.31042e-12
2.87582e-08
-6.47486e-12
2.87583e-08
-1.68421e-11
2.87552e-08
-2.6797e-11
2.87489e-08
-3.63466e-11
2.87396e-08
-4.55024e-11
2.87275e-08
-5.42753e-11
-6.27021e-11
2.87126e-08
2.12714e-08
5.87403e-11
2.12964e-08
5.13061e-11
2.13176e-08
4.2952e-11
2.13352e-08
3.4041e-11
2.13492e-08
2.51851e-11
2.13597e-08
1.65831e-11
2.1367e-08
8.2496e-12
2.13711e-08
1.91549e-13
2.13722e-08
-7.57998e-12
2.13704e-08
-1.50592e-11
2.13659e-08
-2.22439e-11
2.13587e-08
-2.91346e-11
2.13489e-08
-3.57369e-11
2.13367e-08
-4.20578e-11
-4.81307e-11
2.13221e-08
1.55138e-08
3.77556e-11
1.55321e-08
3.30224e-11
1.55476e-08
2.74294e-11
1.55603e-08
2.13705e-11
1.55701e-08
1.53467e-11
1.55772e-08
9.48514e-12
1.55817e-08
3.79223e-12
1.55836e-08
-1.72328e-12
1.55831e-08
-7.04988e-12
1.55802e-08
-1.21797e-11
1.55751e-08
-1.71079e-11
1.55678e-08
-2.18324e-11
1.55584e-08
-2.63553e-11
1.5547e-08
-3.06815e-11
-3.48395e-11
1.55337e-08
1.1039e-08
2.29363e-11
1.1052e-08
2.00456e-11
1.10629e-08
1.64804e-11
1.10717e-08
1.25917e-11
1.10783e-08
8.74004e-12
1.10828e-08
4.98897e-12
1.10853e-08
1.33855e-12
1.10857e-08
-2.20378e-12
1.10843e-08
-5.62854e-12
1.10811e-08
-8.92846e-12
1.1076e-08
-1.20983e-11
1.10694e-08
-1.51357e-11
1.1061e-08
-1.80409e-11
1.10512e-08
-2.08169e-11
-2.34858e-11
1.10398e-08
7.59223e-09
1.28451e-11
7.60109e-09
1.118e-11
7.6085e-09
9.07539e-12
7.6143e-09
6.78422e-12
7.61852e-09
4.52924e-12
7.62117e-09
2.33099e-12
7.62232e-09
1.87557e-13
7.62202e-09
-1.89567e-12
7.6203e-09
-3.91186e-12
7.61723e-09
-5.85541e-12
7.61285e-09
-7.72218e-12
7.60722e-09
-9.50996e-12
7.6004e-09
-1.12187e-11
7.59243e-09
-1.28493e-11
-1.44163e-11
7.58337e-09
4.96383e-09
6.31679e-12
4.96957e-09
5.44268e-12
4.97429e-09
4.34971e-12
4.97791e-09
3.17163e-12
4.98042e-09
2.01986e-12
4.98185e-09
8.94984e-13
4.98224e-09
-2.04421e-13
4.98162e-09
-1.27483e-12
4.98002e-09
-2.31193e-12
4.97748e-09
-3.31215e-12
4.97403e-09
-4.27278e-12
4.96971e-09
-5.19227e-12
4.96456e-09
-6.07054e-12
4.95862e-09
-6.90714e-12
-7.70849e-12
4.95191e-09
2.98248e-09
2.43901e-12
2.98587e-09
2.05128e-12
2.98861e-09
1.60564e-12
2.99065e-09
1.13335e-12
2.992e-09
6.7335e-13
2.99267e-09
2.22214e-13
2.99269e-09
-2.20217e-13
2.99206e-09
-6.51954e-13
2.99082e-09
-1.07078e-12
2.98898e-09
-1.47485e-12
2.98657e-09
-1.86284e-12
2.98362e-09
-2.23386e-12
2.98013e-09
-2.58807e-12
2.97615e-09
-2.92432e-12
-3.24258e-12
2.97168e-09
1.50922e-09
5.10003e-13
1.51088e-09
3.9366e-13
1.51219e-09
2.95818e-13
1.51313e-09
1.93714e-13
1.51371e-09
9.32768e-14
1.51394e-09
-6.49548e-15
1.51382e-09
-1.05125e-13
1.51337e-09
-2.01766e-13
1.5126e-09
-2.95646e-13
1.51151e-09
-3.86157e-13
1.51012e-09
-4.72915e-13
1.50844e-09
-5.55611e-13
1.50649e-09
-6.34425e-13
1.50427e-09
-7.08606e-13
-7.75063e-13
1.5018e-09
4.32156e-10
4.3255e-10
4.32845e-10
4.33039e-10
4.33132e-10
4.33126e-10
4.33021e-10
4.32819e-10
4.32523e-10
4.32137e-10
4.31664e-10
4.31109e-10
4.30474e-10
4.29766e-10
4.28991e-10
1.11995e-09
-4.98427e-10
3.19553e-10
1.37855e-09
-4.45835e-10
1.87237e-10
1.64567e-09
-3.21291e-10
5.41678e-11
1.90982e-09
-1.90211e-10
-7.39377e-11
2.16813e-09
-6.27864e-11
-1.95522e-10
2.42119e-09
5.59414e-11
-3.09002e-10
2.67052e-09
1.64965e-10
-4.14294e-10
2.91742e-09
2.63897e-10
-5.10794e-10
3.16292e-09
3.5221e-10
-5.97716e-10
3.40784e-09
4.29382e-10
-6.743e-10
3.65278e-09
4.94976e-10
-7.39922e-10
3.89826e-09
5.48896e-10
-7.94369e-10
4.14471e-09
5.91811e-10
-8.38268e-10
4.39268e-09
6.25789e-10
-8.73761e-10
4.64295e-09
6.55244e-10
-9.05506e-10
4.89676e-09
6.88234e-10
-9.42048e-10
5.15624e-09
7.37925e-10
-9.97403e-10
5.4248e-09
8.23602e-10
-1.09216e-09
5.70758e-09
9.69325e-10
-1.25211e-09
6.01142e-09
1.19659e-09
-1.50043e-09
6.34344e-09
1.50413e-09
-1.83616e-09
6.70737e-09
1.82686e-09
-2.19078e-09
7.04197e-09
1.70511e-09
-2.03972e-09
7.31936e-09
1.24946e-09
-1.52686e-09
7.53687e-09
6.45475e-10
-8.62975e-10
7.6948e-09
-2.75034e-11
-1.30432e-10
7.79548e-09
-7.04113e-10
6.03438e-10
7.84195e-09
-1.33808e-09
1.2916e-09
7.83733e-09
-1.89755e-09
1.90217e-09
7.78458e-09
-2.35959e-09
2.41233e-09
7.68671e-09
-2.7072e-09
2.80507e-09
7.54689e-09
-2.92817e-09
3.068e-09
7.36853e-09
-3.01523e-09
3.19359e-09
7.15518e-09
-2.96609e-09
3.17944e-09
6.91033e-09
-2.78316e-09
3.02801e-09
6.63716e-09
-2.47234e-09
2.7455e-09
6.33835e-09
-2.04122e-09
2.34004e-09
6.01598e-09
-1.4968e-09
1.81917e-09
5.67136e-09
-8.43264e-10
1.18788e-09
5.30436e-09
-8.23161e-11
4.49324e-10
4.91126e-09
7.80039e-10
-3.86939e-10
4.4829e-09
1.71274e-09
-1.28439e-09
4.00866e-09
2.61727e-09
-2.14304e-09
3.51313e-09
3.2592e-09
-2.76366e-09
3.0942e-09
3.12911e-09
-2.71018e-09
2.32397e-09
-5.62502e-10
2.47734e-09
-5.99211e-10
2.68869e-09
-5.32641e-10
2.92821e-09
-4.29732e-10
3.1802e-09
-3.14776e-10
3.43727e-09
-2.01129e-10
3.69659e-09
-9.43471e-11
3.95714e-09
3.3386e-12
4.21872e-09
9.06359e-11
4.4814e-09
1.66706e-10
4.74536e-09
2.31007e-10
5.01086e-09
2.83402e-10
5.27817e-09
3.245e-10
5.54772e-09
3.56238e-10
5.82022e-09
3.8275e-10
6.09688e-09
4.11564e-10
6.37986e-09
4.54945e-10
6.67267e-09
5.30798e-10
6.98064e-09
6.61355e-10
7.31095e-09
8.6628e-10
7.67121e-09
1.14387e-09
8.06565e-09
1.43242e-09
8.42868e-09
1.34208e-09
8.73056e-09
9.47578e-10
8.96845e-09
4.07586e-10
9.1425e-09
-2.01555e-10
9.25497e-09
-8.16576e-10
9.30895e-09
-1.39207e-09
9.30776e-09
-1.89636e-09
9.25472e-09
-2.30655e-09
9.1533e-09
-2.60578e-09
9.00733e-09
-2.78221e-09
8.82105e-09
-2.82895e-09
8.59906e-09
-2.7441e-09
8.34618e-09
-2.53028e-09
8.06735e-09
-2.19351e-09
7.76771e-09
-1.74159e-09
7.45302e-09
-1.1821e-09
7.13051e-09
-5.20757e-10
6.81034e-09
2.37858e-10
6.50703e-09
1.08334e-09
6.24217e-09
1.9776e-09
6.04898e-09
2.81046e-09
5.9695e-09
3.33868e-09
3.17408e-09
5.88961e-09
4.03708e-09
-5.70567e-10
4.10336e-09
-6.65499e-10
4.23848e-09
-6.67763e-10
4.42456e-09
-6.15805e-10
4.644e-09
-5.34221e-10
4.88394e-09
-4.41064e-10
5.13667e-09
-3.47079e-10
5.39788e-09
-2.57872e-10
5.66517e-09
-1.76658e-10
5.93724e-09
-1.05362e-10
6.21337e-09
-4.51228e-11
6.49319e-09
3.57667e-12
6.7766e-09
4.10986e-11
7.06371e-09
6.91241e-11
7.35503e-09
9.14247e-11
7.65166e-09
1.14934e-10
7.95565e-09
1.50956e-10
8.27052e-09
2.15934e-10
8.60171e-09
3.30168e-10
8.95663e-09
5.11351e-10
9.3433e-09
7.57198e-10
9.76641e-09
1.00932e-09
1.01564e-08
9.52137e-10
1.04817e-08
6.2227e-10
1.07393e-08
1.49997e-10
1.0929e-08
-3.9135e-10
1.10532e-08
-9.40688e-10
1.11147e-08
-1.45363e-09
1.11172e-08
-1.89886e-09
1.10644e-08
-2.2537e-09
1.09602e-08
-2.50165e-09
1.08095e-08
-2.63143e-09
1.06173e-08
-2.63678e-09
1.03896e-08
-2.51644e-09
1.0133e-08
-2.2736e-09
9.85441e-09
-1.91495e-09
9.56209e-09
-1.44927e-09
9.26605e-09
-8.86056e-10
8.98e-09
-2.34707e-10
8.724e-09
4.93859e-10
8.52695e-09
1.28039e-09
8.42664e-09
2.07791e-09
8.45794e-09
2.77917e-09
8.60908e-09
3.18754e-09
3.06573e-09
8.71743e-09
6.37387e-09
-5.50808e-10
6.37969e-09
-6.71314e-10
6.44054e-09
-7.28617e-10
6.55751e-09
-7.32772e-10
6.72157e-09
-6.98279e-10
6.92103e-09
-6.40527e-10
7.14606e-09
-5.72111e-10
7.38965e-09
-5.01459e-10
7.64706e-09
-4.34072e-10
7.91521e-09
-3.73508e-10
8.19207e-09
-3.21984e-10
8.47634e-09
-2.80697e-10
8.76723e-09
-2.49787e-10
9.06436e-09
-2.28007e-10
9.36786e-09
-2.12075e-10
9.67854e-09
-1.95744e-10
9.99825e-09
-1.68755e-10
1.03304e-08
-1.16201e-10
1.06804e-08
-1.98163e-11
1.10557e-08
1.35996e-10
1.14647e-08
3.4822e-10
1.19124e-08
5.6165e-10
1.23258e-08
5.38746e-10
1.26718e-08
2.76242e-10
1.2947e-08
-1.25262e-10
1.31511e-08
-5.95432e-10
1.32859e-08
-1.07547e-09
1.33545e-08
-1.52221e-09
1.33605e-08
-1.90491e-09
1.33082e-08
-2.20138e-09
1.32023e-08
-2.39572e-09
1.30483e-08
-2.47744e-09
1.28527e-08
-2.44121e-09
1.2623e-08
-2.28671e-09
1.23675e-08
-2.01812e-09
1.20958e-08
-1.64329e-09
1.18193e-08
-1.17276e-09
1.15522e-08
-6.18909e-10
1.13135e-08
3.93321e-12
1.11297e-08
6.7767e-10
1.10353e-08
1.37479e-09
1.10679e-08
2.04534e-09
1.12468e-08
2.60022e-09
1.15288e-08
2.90561e-09
2.83538e-09
1.17591e-08
9.4857e-09
-5.19469e-10
9.45664e-09
-6.42258e-10
9.45944e-09
-7.31409e-10
9.50785e-09
-7.81186e-10
9.60438e-09
-7.94809e-10
9.74432e-09
-7.80467e-10
9.92026e-09
-7.48053e-10
1.0125e-08
-7.06239e-10
1.03527e-08
-6.61779e-10
1.05989e-08
-6.19632e-10
1.08601e-08
-5.83221e-10
1.11341e-08
-5.54672e-10
1.14191e-08
-5.34848e-10
1.17142e-08
-5.23115e-10
1.2019e-08
-5.16822e-10
1.23338e-08
-5.1052e-10
1.26601e-08
-4.95077e-10
1.30011e-08
-4.57205e-10
1.3362e-08
-3.80754e-10
1.37504e-08
-2.5233e-10
1.41744e-08
-7.58166e-11
1.46394e-08
9.66501e-11
1.507e-08
1.08129e-10
1.54318e-08
-8.55125e-11
1.57207e-08
-4.14236e-10
1.59361e-08
-8.10738e-10
1.60792e-08
-1.21866e-09
1.61533e-08
-1.59625e-09
1.6162e-08
-1.91367e-09
1.61102e-08
-2.14949e-09
1.60032e-08
-2.28871e-09
1.58477e-08
-2.32194e-09
1.56515e-08
-2.24505e-09
1.54238e-08
-2.05899e-09
1.5175e-08
-1.76929e-09
1.49171e-08
-1.38542e-09
1.46644e-08
-9.20073e-10
1.44343e-08
-3.88835e-10
1.42489e-08
1.89314e-10
1.41358e-08
7.9084e-10
1.41266e-08
1.38397e-09
1.4249e-08
1.92289e-09
1.45063e-08
2.34297e-09
1.48456e-08
2.56634e-09
2.53747e-09
1.51435e-08
1.35557e-08
-4.85933e-10
1.3512e-08
-5.98592e-10
1.34791e-08
-6.98494e-10
1.34737e-08
-7.75744e-10
1.35057e-08
-8.26893e-10
1.35787e-08
-8.5341e-10
1.36909e-08
-8.60228e-10
1.38382e-08
-8.53575e-10
1.40159e-08
-8.39512e-10
1.42195e-08
-8.2326e-10
1.44452e-08
-8.08915e-10
1.46899e-08
-7.99359e-10
1.49513e-08
-7.96171e-10
1.52275e-08
-7.99396e-10
1.55178e-08
-8.07096e-10
1.5822e-08
-8.14695e-10
1.61412e-08
-8.14256e-10
1.64781e-08
-7.94165e-10
1.68378e-08
-7.40437e-10
1.72274e-08
-6.41944e-10
1.76551e-08
-5.03541e-10
1.81262e-08
-3.74373e-10
1.85642e-08
-3.2993e-10
1.89337e-08
-4.5499e-10
1.92299e-08
-7.1041e-10
1.94512e-08
-1.03203e-09
1.95986e-08
-1.36614e-09
1.96751e-08
-1.67274e-09
1.96846e-08
-1.92318e-09
1.96323e-08
-2.09715e-09
1.95245e-08
-2.18091e-09
1.9369e-08
-2.16645e-09
1.91751e-08
-2.05114e-09
1.89536e-08
-1.83748e-09
1.87169e-08
-1.53259e-09
1.84792e-08
-1.14772e-09
1.82568e-08
-6.97698e-10
1.80687e-08
-2.00764e-10
1.79369e-08
3.21145e-10
1.78855e-08
8.42217e-10
1.79381e-08
1.33138e-09
1.81094e-08
1.75163e-09
1.83908e-08
2.06153e-09
1.87346e-08
2.22258e-09
2.21738e-09
1.90547e-08
1.88012e-08
-4.54611e-10
1.87556e-08
-5.53045e-10
1.87073e-08
-6.50233e-10
1.86695e-08
-7.37889e-10
1.86534e-08
-8.10821e-10
1.8667e-08
-8.66998e-10
1.87141e-08
-9.07319e-10
1.87953e-08
-9.34754e-10
1.8909e-08
-9.53273e-10
1.90528e-08
-9.67035e-10
1.92237e-08
-9.79816e-10
1.9419e-08
-9.94623e-10
1.96362e-08
-1.0134e-09
1.98735e-08
-1.03669e-09
2.01296e-08
-1.06319e-09
2.04041e-08
-1.08917e-09
2.06977e-08
-1.10789e-09
2.10129e-08
-1.10938e-09
2.13543e-08
-1.08182e-09
2.17287e-08
-1.01633e-09
2.21439e-08
-9.18758e-10
2.26048e-08
-8.35236e-10
2.30362e-08
-7.61326e-10
2.34017e-08
-8.20504e-10
2.36953e-08
-1.00407e-09
2.39146e-08
-1.25129e-09
2.40599e-08
-1.51146e-09
2.41339e-08
-1.74668e-09
2.41406e-08
-1.92988e-09
2.40857e-08
-2.04229e-09
2.39765e-08
-2.07173e-09
2.3822e-08
-2.01191e-09
2.36328e-08
-1.86191e-09
2.34212e-08
-1.62593e-09
2.32014e-08
-1.31273e-09
2.29888e-08
-9.3515e-10
2.28007e-08
-5.09603e-10
2.26557e-08
-5.5708e-11
2.25728e-08
4.04018e-10
2.25702e-08
8.44787e-10
2.26616e-08
1.24e-09
2.28502e-08
1.56298e-09
2.31217e-08
1.79011e-09
2.34381e-08
1.90614e-09
1.91118e-09
2.37443e-08
2.54775e-08
-4.2605e-10
2.54353e-08
-5.1088e-10
2.53846e-08
-5.99552e-10
2.53333e-08
-6.86592e-10
2.52901e-08
-7.67597e-10
2.52629e-08
-8.39793e-10
2.52578e-08
-9.02235e-10
2.52787e-08
-9.55669e-10
2.53275e-08
-1.00205e-09
2.54045e-08
-1.044e-09
2.55089e-08
-1.08426e-09
2.56396e-08
-1.1253e-09
2.57951e-08
-1.1689e-09
2.59741e-08
-1.21569e-09
2.61756e-08
-1.26476e-09
2.63995e-08
-1.31303e-09
2.66464e-08
-1.35481e-09
2.69187e-08
-1.3817e-09
2.72208e-08
-1.38389e-09
2.75591e-08
-1.35463e-09
2.7941e-08
-1.30064e-09
2.83706e-08
-1.26486e-09
2.87767e-08
-1.16744e-09
2.91226e-08
-1.16639e-09
2.94005e-08
-1.28199e-09
2.96067e-08
-1.45744e-09
2.97407e-08
-1.64549e-09
2.98048e-08
-1.81079e-09
2.98033e-08
-1.92836e-09
2.97423e-08
-1.98132e-09
2.963e-08
-1.95942e-09
2.94764e-08
-1.85828e-09
2.92933e-08
-1.67886e-09
2.90944e-08
-1.42699e-09
2.88945e-08
-1.11287e-09
2.87098e-08
-7.50392e-10
2.85567e-08
-3.56543e-10
2.84518e-08
4.92644e-11
2.84096e-08
4.46155e-10
2.84416e-08
8.12799e-10
2.85528e-08
1.12884e-09
2.87388e-08
1.37698e-09
2.89833e-08
1.54556e-09
2.92583e-08
1.63114e-09
1.64029e-09
2.95292e-08
3.38779e-08
-3.98644e-10
3.38392e-08
-4.72192e-10
3.3791e-08
-5.51365e-10
3.37373e-08
-6.32898e-10
3.36834e-08
-7.1371e-10
3.36351e-08
-7.91462e-10
3.35977e-08
-8.64843e-10
3.35757e-08
-9.33689e-10
3.35725e-08
-9.98831e-10
3.35903e-08
-1.06178e-09
3.36304e-08
-1.12437e-09
3.36934e-08
-1.18835e-09
3.37796e-08
-1.25505e-09
3.38888e-08
-1.32495e-09
3.40213e-08
-1.3972e-09
3.41774e-08
-1.46917e-09
3.43586e-08
-1.536e-09
3.45675e-08
-1.59062e-09
3.48087e-08
-1.62503e-09
3.50884e-08
-1.63431e-09
3.54135e-08
-1.62583e-09
3.57876e-08
-1.63891e-09
3.61464e-08
-1.52624e-09
3.64537e-08
-1.47372e-09
3.66996e-08
-1.52788e-09
3.68787e-08
-1.63655e-09
3.69898e-08
-1.75653e-09
3.70346e-08
-1.8556e-09
3.70175e-08
-1.9113e-09
3.69452e-08
-1.90905e-09
3.68266e-08
-1.84081e-09
3.66726e-08
-1.70424e-09
3.64958e-08
-1.5021e-09
3.63105e-08
-1.24163e-09
3.61315e-08
-9.33955e-10
3.59744e-08
-5.93236e-10
3.58537e-08
-2.35873e-10
3.57826e-08
1.20422e-10
3.57708e-08
4.579e-10
3.58237e-08
7.59874e-10
3.59403e-08
1.01223e-09
3.61124e-08
1.20496e-09
3.63244e-08
1.33356e-09
3.65557e-08
1.39986e-09
1.41164e-09
3.67843e-08
4.43265e-08
-3.7078e-10
4.42897e-08
-4.35379e-10
4.42443e-08
-5.06003e-10
4.41922e-08
-5.80812e-10
4.41364e-08
-6.57841e-10
4.40803e-08
-7.35387e-10
4.40277e-08
-8.12296e-10
4.39822e-08
-8.88151e-10
4.39467e-08
-9.63299e-10
4.39236e-08
-1.0387e-09
4.39149e-08
-1.11565e-09
4.3922e-08
-1.19551e-09
4.39463e-08
-1.27931e-09
4.39888e-08
-1.36741e-09
4.40506e-08
-1.45907e-09
4.41335e-08
-1.552e-09
4.42396e-08
-1.64209e-09
4.43724e-08
-1.72344e-09
4.45369e-08
-1.78959e-09
4.47398e-08
-1.83713e-09
4.49876e-08
-1.87366e-09
4.5283e-08
-1.93433e-09
4.55725e-08
-1.8157e-09
4.58216e-08
-1.72281e-09
4.6018e-08
-1.7243e-09
4.61548e-08
-1.7734e-09
4.62299e-08
-1.8316e-09
4.62447e-08
-1.87036e-09
4.62036e-08
-1.87023e-09
4.61138e-08
-1.81924e-09
4.59847e-08
-1.7117e-09
4.58277e-08
-1.54727e-09
4.56559e-08
-1.33025e-09
4.54831e-08
-1.06887e-09
4.53236e-08
-7.74466e-10
4.5191e-08
-4.60584e-10
4.50971e-08
-1.42014e-10
4.50513e-08
1.66258e-10
4.50589e-08
4.50258e-10
4.51208e-08
6.97994e-10
4.52325e-08
9.00552e-10
4.53845e-08
1.05295e-09
4.55634e-08
1.15458e-09
4.57542e-08
1.2091e-09
1.22358e-09
4.59423e-08
5.71671e-08
-3.42515e-10
5.71317e-08
-4.00024e-10
5.70891e-08
-4.63432e-10
5.70401e-08
-5.31781e-10
5.69862e-08
-6.03923e-10
5.69296e-08
-6.78743e-10
5.68726e-08
-7.55361e-10
5.68178e-08
-8.33333e-10
5.67673e-08
-9.12758e-10
5.67228e-08
-9.9425e-10
5.66859e-08
-1.07878e-09
5.66579e-08
-1.16746e-09
5.66398e-08
-1.26121e-09
5.66329e-08
-1.36047e-09
5.66386e-08
-1.46477e-09
5.66589e-08
-1.57236e-09
5.66968e-08
-1.67993e-09
5.67561e-08
-1.78281e-09
5.68425e-08
-1.87597e-09
5.69627e-08
-1.95727e-09
5.71231e-08
-2.03414e-09
5.73258e-08
-2.13702e-09
5.75304e-08
-2.02023e-09
5.77058e-08
-1.89829e-09
5.78383e-08
-1.85677e-09
5.79197e-08
-1.85484e-09
5.79473e-08
-1.8592e-09
5.79224e-08
-1.84546e-09
5.78497e-08
-1.79751e-09
5.77366e-08
-1.70618e-09
5.7593e-08
-1.56805e-09
5.74303e-08
-1.38455e-09
5.72611e-08
-1.16111e-09
5.70986e-08
-9.06308e-10
5.69551e-08
-6.30982e-10
5.68418e-08
-3.47273e-10
5.67674e-08
-6.76581e-11
5.67376e-08
1.96029e-10
5.67544e-08
4.33542e-10
5.68154e-08
6.36913e-10
5.69149e-08
8.01071e-10
5.70437e-08
9.24136e-10
5.7191e-08
1.00736e-09
5.73454e-08
1.05467e-09
1.07186e-09
5.74971e-08
7.27596e-08
-3.16222e-10
7.27277e-08
-3.68117e-10
7.26899e-08
-4.25584e-10
7.26463e-08
-4.88202e-10
7.25978e-08
-5.55399e-10
7.25456e-08
-6.26553e-10
7.24913e-08
-7.01095e-10
7.24366e-08
-7.78672e-10
7.23831e-08
-8.59265e-10
7.23321e-08
-9.43233e-10
7.22846e-08
-1.03125e-09
7.22413e-08
-1.12414e-09
7.22028e-08
-1.22271e-09
7.21697e-08
-1.32741e-09
7.2143e-08
-1.43806e-09
7.21241e-08
-1.5535e-09
7.21155e-08
-1.67134e-09
7.21209e-08
-1.78816e-09
7.21453e-08
-1.9004e-09
7.21951e-08
-2.00703e-09
7.2276e-08
-2.11507e-09
7.23889e-08
-2.24992e-09
7.25069e-08
-2.13821e-09
7.26043e-08
-1.99575e-09
7.26671e-08
-1.91953e-09
7.26871e-08
-1.87484e-09
7.26616e-08
-1.83374e-09
7.25924e-08
-1.77622e-09
7.24845e-08
-1.6896e-09
7.23457e-08
-1.5674e-09
7.21859e-08
-1.40824e-09
7.20162e-08
-1.21486e-09
7.18484e-08
-9.93234e-10
7.16937e-08
-7.51633e-10
7.15625e-08
-4.99752e-10
7.1463e-08
-2.47793e-10
7.1401e-08
-5.63572e-12
7.1379e-08
2.17971e-10
7.13965e-08
4.16007e-10
7.14499e-08
5.83588e-10
7.15327e-08
7.18204e-10
7.16372e-08
8.19705e-10
7.17545e-08
8.90026e-10
7.18765e-08
9.32714e-10
9.52325e-10
7.1996e-08
9.15011e-08
-2.95587e-10
9.14761e-08
-3.43141e-10
9.14464e-08
-3.95862e-10
9.14119e-08
-4.53656e-10
9.13728e-08
-5.16337e-10
9.13299e-08
-5.8366e-10
9.12842e-08
-6.55361e-10
9.12368e-08
-7.31246e-10
9.11888e-08
-8.11302e-10
9.11413e-08
-8.95747e-10
9.10951e-08
-9.85019e-10
9.10506e-08
-1.07969e-09
9.10083e-08
-1.18034e-09
9.09682e-08
-1.28734e-09
9.09308e-08
-1.40062e-09
9.08967e-08
-1.51943e-09
9.08675e-08
-1.64214e-09
9.08457e-08
-1.76639e-09
9.08352e-08
-1.8899e-09
9.08407e-08
-2.01252e-09
9.08662e-08
-2.14055e-09
9.09105e-08
-2.2943e-09
9.09576e-08
-2.18531e-09
9.09879e-08
-2.02597e-09
9.09885e-08
-1.92013e-09
9.09526e-08
-1.83901e-09
9.08788e-08
-1.75986e-09
9.07694e-08
-1.66689e-09
9.06304e-08
-1.55062e-09
9.04699e-08
-1.4069e-09
9.02976e-08
-1.23589e-09
9.01238e-08
-1.04103e-09
8.99587e-08
-8.28211e-10
8.98119e-08
-6.04812e-10
8.96911e-08
-3.78923e-10
8.96019e-08