/*--------------------------------*- C++ -*----------------------------------*\
| =========                 |                                                 |
| \\      /  F ield         | OpenFOAM: The Open Source CFD Toolbox           |
|  \\    /   O peration     | Version:  2312                                  |
|   \\  /    A nd           | Website:  www.openfoam.com                      |
|    \\/     M anipulation  |                                                 |
\*---------------------------------------------------------------------------*/
FoamFile
{
    version     2.0;
    format      ascii;
    arch        "LSB;label=32;scalar=64";
    class       volVectorField;
    location    "400";
    object      U;
}
// * * * * * * * * * * * * * * * * * * * * * * * * * * * * * * * * * * * * * //

dimensions      [0 1 -1 0 0 0 0];

internalField   nonuniform List<vector> 
4800
(
(0.000438682 1.55711e-07 -3.39593e-26)
(0.000431603 2.14835e-07 -2.3901e-25)
(0.000427373 2.56109e-07 3.06362e-25)
(0.000425045 2.78664e-07 1.40213e-25)
(0.000424134 2.85917e-07 2.07164e-24)
(0.000424316 2.77233e-07 -4.92946e-24)
(0.000425417 2.49992e-07 4.60079e-24)
(0.00042738 1.98713e-07 -6.64943e-24)
(0.000430261 1.11254e-07 2.11913e-24)
(0.000434283 -4.521e-08 7.19527e-24)
(0.0004401 -3.89408e-07 -2.19459e-24)
(0.000449595 -1.37273e-06 -1.72631e-25)
(0.000468294 -4.41152e-06 -2.63658e-24)
(0.000516867 -1.97815e-05 1.18883e-24)
(0.000593555 -0.000100068 -9.20208e-25)
(0.0013565 1.5521e-06 -1.3811e-25)
(0.00133472 1.11682e-06 1.71643e-25)
(0.00132152 7.84685e-07 -1.57761e-24)
(0.00131402 4.76915e-07 1.17317e-24)
(0.0013107 1.61321e-07 3.75059e-24)
(0.00131059 -1.9283e-07 -5.94666e-24)
(0.00131315 -6.3026e-07 -1.68641e-24)
(0.00131816 -1.21916e-06 -3.97002e-25)
(0.00132573 -2.08625e-06 1.34005e-23)
(0.00133641 -3.52897e-06 -9.70964e-24)
(0.00135156 -6.40915e-06 1.03119e-24)
(0.00137438 -1.3358e-05 1.52875e-24)
(0.00141159 -3.1377e-05 -2.18753e-24)
(0.0014771 -7.73163e-05 -6.37071e-25)
(0.00154939 -0.000185664 2.61265e-24)
(0.0023711 4.96245e-06 -1.10307e-25)
(0.00233338 3.5437e-06 1.12139e-25)
(0.00231026 2.46405e-06 1.14539e-24)
(0.00229679 1.49298e-06 -2.70999e-24)
(0.00229033 5.20349e-07 2.63447e-24)
(0.00228922 -5.46798e-07 2.45644e-24)
(0.00229249 -1.83565e-06 -6.27593e-24)
(0.0022997 -3.53594e-06 -3.81264e-24)
(0.0023109 -5.98344e-06 8.90547e-24)
(0.00232668 -9.88564e-06 3.26493e-24)
(0.00234842 -1.69494e-05 -1.09544e-23)
(0.00237856 -3.1327e-05 -1.598e-24)
(0.0024199 -6.16998e-05 4.27365e-24)
(0.00247322 -0.000122042 6.42018e-24)
(0.00251453 -0.000224055 -3.15901e-24)
(0.00348834 1.10841e-05 4.57882e-26)
(0.00343368 7.99727e-06 -3.15885e-25)
(0.00339978 5.64669e-06 1.39482e-24)
(0.00337952 3.56484e-06 1.47516e-24)
(0.0033691 1.50612e-06 -1.44029e-24)
(0.00336611 -7.23273e-07 -8.1893e-24)
(0.0033691 -3.37128e-06 -5.46802e-24)
(0.00337732 -6.79457e-06 1.98866e-23)
(0.00339056 -1.15858e-05 7.9591e-24)
(0.0034091 -1.88622e-05 -1.0962e-23)
(0.0034336 -3.08969e-05 -4.21386e-24)
(0.00346455 -5.21406e-05 -3.04939e-24)
(0.00350051 -8.96976e-05 8.35033e-26)
(0.00353548 -0.000150474 1.99282e-24)
(0.00355269 -0.000232335 9.23606e-27)
(0.00471215 2.05995e-05 -9.47226e-26)
(0.00464017 1.5014e-05 -5.71084e-25)
(0.00459489 1.07525e-05 -3.56477e-25)
(0.00456717 7.03021e-06 9.42956e-25)
(0.00455197 3.40225e-06 -2.62211e-24)
(0.00454614 -4.65701e-07 6.36129e-24)
(0.00454771 -4.96637e-06 -1.08002e-24)
(0.00455549 -1.06323e-05 3.66079e-24)
(0.00456886 -1.82758e-05 -1.93993e-23)
(0.00458747 -2.92424e-05 3.49004e-23)
(0.00461091 -4.58131e-05 -3.17962e-23)
(0.00463786 -7.15308e-05 1.57159e-23)
(0.00466463 -0.000110511 -1.36051e-23)
(0.00468433 -0.000164232 1.19475e-23)
(0.00468785 -0.000226695 -4.49316e-24)
(0.00604303 3.4233e-05 1.40991e-25)
(0.00595459 2.52236e-05 4.94197e-25)
(0.00589802 1.83244e-05 -2.54911e-24)
(0.00586252 1.23707e-05 -1.5709e-24)
(0.00584193 6.66016e-06 4.07187e-24)
(0.00583239 6.81949e-07 1.40672e-24)
(0.00583137 -6.10638e-06 -1.05127e-23)
(0.00583723 -1.43808e-05 2.37947e-23)
(0.00584877 -2.50651e-05 -2.91458e-23)
(0.00586495 -3.94714e-05 6.52731e-24)
(0.0058844 -5.94009e-05 1.85071e-23)
(0.00590477 -8.69568e-05 -2.38175e-23)
(0.00592211 -0.000123588 1.10138e-23)
(0.00593128 -0.000168097 1.04537e-23)
(0.00592824 -0.000215047 -7.47628e-24)
(0.00747609 5.25508e-05 1.30582e-25)
(0.0073741 3.92029e-05 -7.4991e-25)
(0.00730758 2.89156e-05 2.59918e-24)
(0.00726476 2.01194e-05 -3.4689e-24)
(0.0072387 1.18183e-05 -1.12744e-23)
(0.00722492 3.30188e-06 1.82432e-23)
(0.00722042 -6.10699e-06 -1.04425e-23)
(0.00722307 -1.71631e-05 3.325e-23)
(0.00723115 -3.07641e-05 -2.09903e-23)
(0.00724304 -4.7964e-05 -9.06862e-24)
(0.00725678 -6.98622e-05 -1.64295e-23)
(0.00726983 -9.72437e-05 1.3849e-23)
(0.00727904 -0.000129905 3.57665e-24)
(0.00728131 -0.000165868 2.81816e-24)
(0.00727539 -0.000201307 -2.32555e-24)
(0.00899865 7.55899e-05 -2.08476e-25)
(0.0088891 5.71993e-05 2.71684e-24)
(0.00881596 4.28802e-05 -6.05044e-24)
(0.00876764 3.06939e-05 -4.71065e-24)
(0.00873694 1.93612e-05 1.65776e-24)
(0.00871911 7.97562e-06 3.05929e-24)
(0.0087108 -4.24114e-06 1.02287e-23)
(0.00870953 -1.80454e-05 -2.5716e-23)
(0.0087132 -3.41899e-05 -1.26122e-23)
(0.00871985 -5.33574e-05 3.16438e-23)
(0.00872738 -7.59838e-05 -8.95571e-24)
(0.00873357 -0.000101977 2.79004e-23)
(0.0087363 -0.000130429 -1.34142e-23)
(0.00873399 -0.000159519 -3.9239e-24)
(0.00872666 -0.000186847 2.17852e-24)
(0.0105888 0.000102318 -3.00763e-26)
(0.0104813 7.87038e-05 1.61405e-24)
(0.0104075 6.00325e-05 -2.16985e-24)
(0.0103574 4.41199e-05 4.87541e-24)
(0.0103243 2.94833e-05 -2.70521e-23)
(0.0103037 1.50668e-05 2.63818e-23)
(0.0102922 4.35293e-08 -3.82022e-23)
(0.0102872 -1.62751e-05 2.13817e-23)
(0.0102865 -3.44327e-05 1.44477e-23)
(0.010288 -5.47491e-05 2.84396e-23)
(0.0102899 -7.71902e-05 -3.36345e-23)
(0.0102904 -0.000101246 -5.65114e-24)
(0.0102883 -0.000125913 2.37359e-24)
(0.0102829 -0.000149838 1.5546e-23)
(0.0102747 -0.000171623 -5.93442e-24)
(0.0122169 0.000130069 1.76661e-25)
(0.0121242 0.000101925 -7.1456e-25)
(0.0120581 7.91783e-05 2.96772e-24)
(0.0120118 5.96201e-05 -9.61965e-24)
(0.0119803 4.17213e-05 1.33856e-23)
(0.0119595 2.43775e-05 -1.57734e-23)
(0.0119467 6.78569e-06 2.39769e-23)
(0.0119393 -1.16249e-05 3.80769e-24)
(0.0119352 -3.1186e-05 -2.68853e-23)
(0.0119327 -5.1947e-05 3.44927e-23)
(0.0119304 -7.36313e-05 -3.43173e-23)
(0.0119269 -9.56433e-05 -9.14905e-24)
(0.0119217 -0.000117163 1.46952e-23)
(0.0119145 -0.000137315 3.9957e-24)
(0.0119058 -0.000155334 -1.6415e-24)
(0.0138544 0.000154506 7.42521e-25)
(0.0137881 0.000123525 -5.72088e-24)
(0.0137387 9.77516e-05 -8.42174e-24)
(0.0137029 7.52227e-05 1.82139e-23)
(0.0136778 5.45622e-05 7.39042e-24)
(0.0136606 3.47597e-05 -4.18942e-23)
(0.0136492 1.51205e-05 1.15987e-23)
(0.0136417 -4.77719e-06 7.49812e-24)
(0.0136364 -2.50916e-05 -2.90862e-23)
(0.013632 -4.57206e-05 2.71838e-23)
(0.0136274 -6.63273e-05 -1.95931e-23)
(0.013622 -8.64078e-05 4.55801e-23)
(0.0136154 -0.000105399 -1.99682e-23)
(0.0136076 -0.0001228 1.07967e-23)
(0.0135992 -0.000138227 -2.77801e-24)
(0.0154887 0.000171113 -2.8919e-25)
(0.0154535 0.000139419 3.89418e-24)
(0.0154258 0.000112196 -6.90527e-24)
(0.0154052 8.7893e-05 -3.16857e-24)
(0.0153905 6.543e-05 3.17779e-23)
(0.0153803 4.40132e-05 -4.1209e-24)
(0.0153733 2.31249e-05 -4.52365e-23)
(0.0153683 2.5023e-06 4.71614e-23)
(0.0153642 -1.78916e-05 -9.46971e-24)
(0.0153601 -3.79019e-05 -2.93833e-23)
(0.0153556 -5.72382e-05 2.82423e-23)
(0.0153502 -7.55486e-05 1.37906e-23)
(0.015344 -9.25008e-05 -1.06272e-23)
(0.0153369 -0.000107848 -1.69281e-23)
(0.0153295 -0.000121426 1.34347e-24)
(0.0171341 0.000178326 -2.80962e-27)
(0.0171234 0.000147233 -4.27215e-24)
(0.0171148 0.000119837 1.82981e-23)
(0.0171087 9.49352e-05 1.05497e-24)
(0.0171048 7.17391e-05 8.35361e-24)
(0.0171024 4.96917e-05 -2.6569e-23)
(0.017101 2.84573e-05 2.02257e-23)
(0.0170998 7.90351e-06 4.10909e-24)
(0.0170984 -1.19399e-05 3.31437e-23)
(0.0170964 -3.09296e-05 -4.59859e-23)
(0.0170935 -4.88633e-05 -1.87857e-23)
(0.0170897 -6.55353e-05 -1.12734e-23)
(0.017085 -8.07833e-05 1.95008e-23)
(0.0170796 -9.45188e-05 -5.16143e-25)
(0.0170741 -0.000106699 1.65785e-24)
(0.0188163 0.000179123 -6.63464e-26)
(0.0188174 0.000148601 4.20737e-24)
(0.0188191 0.000121332 -5.45953e-24)
(0.0188215 9.6345e-05 -2.16976e-27)
(0.0188244 7.30438e-05 5.74278e-24)
(0.0188273 5.10354e-05 1.30015e-23)
(0.0188298 3.01017e-05 -4.48334e-23)
(0.0188317 1.01741e-05 3.3782e-24)
(0.0188327 -8.71163e-06 1.82199e-23)
(0.0188326 -2.64629e-05 -7.53975e-24)
(0.0188315 -4.29723e-05 1.86792e-23)
(0.0188295 -5.81508e-05 1.19199e-23)
(0.0188266 -7.19502e-05 -1.99499e-23)
(0.018823 -8.43741e-05 1.26542e-23)
(0.0188193 -9.54439e-05 -1.00311e-23)
(0.0205355 0.000177777 -1.95259e-24)
(0.0205396 0.000147469 8.91135e-25)
(0.0205439 0.000120153 6.1429e-24)
(0.0205485 9.50879e-05 -2.82697e-23)
(0.0205531 7.18249e-05 2.20752e-23)
(0.0205573 5.00706e-05 -1.43637e-23)
(0.0205608 2.96581e-05 9.16789e-24)
(0.0205635 1.05218e-05 -5.82331e-23)
(0.0205651 -7.34121e-06 7.55628e-23)
(0.0205657 -2.39077e-05 -4.02277e-23)
(0.0205654 -3.91561e-05 3.27448e-23)
(0.0205643 -5.3084e-05 2.50938e-23)
(0.0205624 -6.57162e-05 -4.0623e-23)
(0.02056 -7.71086e-05 1.23377e-23)
(0.0205574 -8.73142e-05 -4.9544e-25)
(0.0222438 0.000175852 -6.65935e-26)
(0.0222488 0.000145983 -4.55265e-25)
(0.0222535 0.000118804 2.92855e-25)
(0.0222579 9.38383e-05 -7.324e-25)
(0.022262 7.07816e-05 8.4577e-24)
(0.0222655 4.9417e-05 -1.29437e-23)
(0.0222682 2.96015e-05 1.0769e-23)
(0.0222702 1.12505e-05 -3.06314e-23)
(0.0222712 -5.68717e-06 6.29855e-23)
(0.0222715 -2.12512e-05 -7.33309e-23)
(0.022271 -3.54853e-05 5.50586e-23)
(0.0222698 -4.84446e-05 -1.7186e-23)
(0.0222681 -6.01969e-05 8.26531e-25)
(0.0222659 -7.0826e-05 3.43059e-24)
(0.0222637 -8.03978e-05 -6.33662e-24)
(0.0238561 0.000172436 -5.24027e-24)
(0.0238631 0.000143653 8.37312e-24)
(0.0238686 0.000117189 -2.59589e-24)
(0.0238732 9.2822e-05 -3.39464e-24)
(0.023877 7.03758e-05 1.24488e-23)
(0.02388 4.96964e-05 -1.13442e-23)
(0.0238821 3.06583e-05 -9.22319e-24)
(0.0238834 1.31615e-05 -2.01389e-23)
(0.0238839 -2.88045e-06 9.35099e-24)
(0.0238837 -1.75494e-05 4.08158e-23)
(0.0238829 -3.09284e-05 -1.98993e-23)
(0.0238816 -4.31041e-05 1.10286e-23)
(0.0238798 -5.41651e-05 -4.26582e-24)
(0.0238776 -6.42063e-05 -1.19118e-23)
(0.0238754 -7.32947e-05 5.88092e-24)
(0.025266 0.000166409 1.62857e-24)
(0.0252752 0.000139392 -2.4935e-24)
(0.0252822 0.000114299 -8.5669e-25)
(0.0252876 9.11168e-05 -1.08073e-24)
(0.0252918 6.97646e-05 -3.58876e-24)
(0.0252948 5.01356e-05 1.61255e-23)
(0.0252969 3.21219e-05 -1.17911e-23)
(0.0252981 1.56194e-05 -6.95831e-24)
(0.0252984 5.25219e-07 5.83943e-24)
(0.0252982 -1.32621e-05 -6.36725e-24)
(0.0252973 -2.58419e-05 1.38039e-23)
(0.025296 -3.7312e-05 6.56714e-24)
(0.0252942 -4.77652e-05 -2.31503e-23)
(0.0252921 -5.72968e-05 1.52117e-23)
(0.02529 -6.59677e-05 -3.00512e-24)
(0.0263419 0.000157307 4.56115e-24)
(0.0263529 0.000132634 6.90618e-24)
(0.0263612 0.000109508 -1.36029e-23)
(0.0263675 8.80577e-05 -9.23204e-25)
(0.0263722 6.82586e-05 2.89237e-24)
(0.0263756 5.00376e-05 -4.53025e-24)
(0.0263778 3.33066e-05 -6.88292e-24)
(0.0263791 1.79689e-05 1.34018e-23)
(0.0263796 3.92182e-06 1.40784e-23)
(0.0263795 -8.93769e-06 -3.18684e-23)
(0.0263787 -2.07087e-05 1.72781e-23)
(0.0263775 -3.14854e-05 -1.14403e-24)
(0.0263759 -4.13537e-05 -9.11964e-25)
(0.026374 -5.04009e-05 1.1792e-24)
(0.0263719 -5.86768e-05 -5.29772e-25)
(0.0269107 0.000145064 -1.14176e-23)
(0.0269228 0.000123236 -2.19838e-23)
(0.026932 0.000102605 1.02871e-23)
(0.0269389 8.33726e-05 3.26025e-23)
(0.0269441 6.55408e-05 -8.29376e-24)
(0.0269478 4.906e-05 -2.34867e-24)
(0.0269502 3.38642e-05 1.07058e-24)
(0.0269517 1.98735e-05 -5.53587e-24)
(0.0269523 6.99855e-06 1.45143e-23)
(0.0269523 -4.85217e-06 -6.09087e-24)
(0.0269516 -1.57659e-05 3.68661e-24)
(0.0269505 -2.58243e-05 -5.46904e-24)
(0.0269491 -3.50997e-05 -6.131e-24)
(0.0269472 -4.36655e-05 8.88804e-24)
(0.0269452 -5.15569e-05 -3.8091e-24)
(0.0267509 0.000130238 1.74278e-23)
(0.0267635 0.00011164 -3.57527e-23)
(0.0267731 9.39168e-05 5.24341e-24)
(0.0267804 7.7277e-05 4.27544e-23)
(0.0267857 6.17342e-05 -3.80505e-23)
(0.0267895 4.72586e-05 1.2306e-23)
(0.0267921 3.38077e-05 7.66862e-24)
(0.0267936 2.13225e-05 -1.62085e-23)
(0.0267942 9.73292e-06 3.21794e-24)
(0.0267942 -1.03322e-06 1.96992e-24)
(0.0267936 -1.10452e-05 -1.11664e-24)
(0.0267925 -2.03678e-05 2.47709e-24)
(0.0267911 -2.90586e-05 -2.98167e-24)
(0.0267893 -3.71746e-05 2.00233e-24)
(0.0267872 -4.47431e-05 -9.17439e-25)
(0.0258762 0.000114806 1.05391e-23)
(0.0258889 9.94123e-05 -2.00267e-23)
(0.0258989 8.46032e-05 -1.25983e-23)
(0.0259066 7.05572e-05 5.43404e-23)
(0.0259122 5.7297e-05 -4.61113e-23)
(0.0259163 4.48162e-05 4.58735e-24)
(0.0259192 3.30943e-05 6.72522e-24)
(0.0259209 2.20927e-05 3.40273e-24)
(0.0259219 1.17618e-05 2.49459e-24)
(0.0259221 2.05016e-06 -1.07762e-23)
(0.0259217 -7.09146e-06 6.66922e-24)
(0.0259208 -1.57092e-05 1.00634e-24)
(0.0259195 -2.38447e-05 -2.39738e-24)
(0.0259178 -3.15378e-05 1.26917e-24)
(0.0259157 -3.88117e-05 7.83675e-25)
(0.0245243 0.000100392 2.59772e-23)
(0.0245371 8.77649e-05 -4.19608e-23)
(0.0245474 7.54803e-05 7.90821e-24)
(0.0245554 6.36809e-05 -1.73175e-23)
(0.0245616 5.24031e-05 -2.08247e-23)
(0.0245661 4.1663e-05 6.64858e-23)
(0.0245694 3.14596e-05 -2.42272e-23)
(0.0245717 2.17721e-05 6.39642e-24)
(0.0245731 1.25698e-05 -3.33372e-24)
(0.0245737 3.82029e-06 -7.2878e-24)
(0.0245737 -4.50727e-06 1.2704e-23)
(0.0245731 -1.24415e-05 -5.8956e-24)
(0.0245721 -2.0009e-05 9.37582e-25)
(0.0245706 -2.72344e-05 1.64735e-25)
(0.0245687 -3.41345e-05 5.29798e-26)
(0.0228685 8.69843e-05 1.00483e-23)
(0.0228814 7.66746e-05 -4.77116e-23)
(0.0228919 6.65242e-05 7.68501e-23)
(0.0229004 5.66392e-05 -5.47695e-23)
(0.022907 4.70676e-05 5.12783e-23)
(0.0229121 3.78448e-05 -1.61952e-23)
(0.0229159 2.89846e-05 -1.06044e-23)
(0.0229187 2.04804e-05 -1.0912e-23)
(0.0229206 1.2317e-05 1.79748e-23)
(0.0229217 4.47799e-06 -1.1414e-24)
(0.0229221 -3.05232e-06 -1.549e-23)
(0.0229219 -1.02889e-05 -1.51586e-24)
(0.0229211 -1.72467e-05 2.70056e-24)
(0.0229199 -2.39387e-05 -4.09143e-25)
(0.0229181 -3.03757e-05 4.68404e-26)
(0.0210368 7.45998e-05 1.35607e-24)
(0.0210498 6.62188e-05 -1.8386e-23)
(0.0210606 5.78598e-05 -9.56825e-24)
(0.0210695 4.95955e-05 7.40193e-23)
(0.0210766 4.14854e-05 -6.89458e-23)
(0.0210823 3.35814e-05 1.92036e-23)
(0.0210867 2.59089e-05 3.08812e-24)
(0.0210901 1.84718e-05 -1.54647e-24)
(0.0210925 1.12674e-05 -6.88832e-24)
(0.0210941 4.29211e-06 2.86163e-23)
(0.0210949 -2.4583e-06 -2.20712e-23)
(0.021095 -8.98857e-06 -7.965e-25)
(0.0210945 -1.53047e-05 1.66593e-24)
(0.0210935 -2.14113e-05 9.55875e-25)
(0.0210918 -2.73139e-05 -6.82909e-25)
(0.0191241 6.31524e-05 2.05851e-24)
(0.0191371 5.63614e-05 1.75938e-23)
(0.0191484 4.94928e-05 -1.91114e-23)
(0.0191577 4.2593e-05 -1.2517e-23)
(0.0191654 3.57334e-05 7.59931e-23)
(0.0191716 2.89792e-05 -5.58825e-23)
(0.0191767 2.23635e-05 -1.26317e-24)
(0.0191806 1.58975e-05 -1.06747e-23)
(0.0191836 9.58741e-06 -7.63162e-25)
(0.0191856 3.43886e-06 1.49645e-24)
(0.0191869 -2.54434e-06 -4.89595e-24)
(0.0191874 -8.35999e-06 4.1959e-24)
(0.0191872 -1.4008e-05 1.50614e-24)
(0.0191863 -1.94874e-05 1.23328e-24)
(0.0191847 -2.47999e-05 9.84814e-25)
(0.0172001 5.25406e-05 1.49939e-23)
(0.0172134 4.70627e-05 -2.17577e-23)
(0.017225 4.14385e-05 -1.65961e-23)
(0.0172348 3.56959e-05 4.85196e-23)
(0.017243 2.99177e-05 -1.67406e-23)
(0.0172498 2.41787e-05 -2.26406e-23)
(0.0172553 1.85157e-05 7.71148e-24)
(0.0172598 1.29443e-05 1.65876e-23)
(0.0172633 7.47688e-06 -2.55957e-23)
(0.0172657 2.12497e-06 2.4638e-23)
(0.0172673 -3.1025e-06 -1.27195e-23)
(0.0172681 -8.19908e-06 5.20605e-24)
(0.017268 -1.3161e-05 -6.22074e-24)
(0.0172672 -1.79836e-05 5.82675e-24)
(0.0172657 -2.26668e-05 -1.26163e-24)
(0.0153149 4.27432e-05 -2.96816e-24)
(0.0153283 3.83604e-05 -9.82774e-24)
(0.0153401 3.37865e-05 -3.00336e-23)
(0.0153502 2.90387e-05 8.09579e-23)
(0.0153587 2.42106e-05 -1.41076e-23)
(0.0153659 1.93822e-05 -2.14562e-23)
(0.0153718 1.45908e-05 7.18961e-24)
(0.0153766 9.85432e-06 -1.02263e-23)
(0.0153803 5.18857e-06 -2.1398e-23)
(0.015383 6.08617e-07 2.03167e-23)
(0.0153847 -3.87399e-06 9.57443e-25)
(0.0153855 -8.25077e-06 -5.93999e-24)
(0.0153854 -1.25159e-05 6.72388e-24)
(0.0153845 -1.66633e-05 3.43036e-25)
(0.0153827 -2.06918e-05 -4.4187e-25)
(0.013502 3.38541e-05 1.15779e-23)
(0.0135152 3.03968e-05 1.63845e-23)
(0.0135269 2.67217e-05 -1.48278e-23)
(0.013537 2.28425e-05 -3.1341e-23)
(0.0135455 1.88619e-05 4.10589e-23)
(0.0135528 1.48609e-05 -4.38741e-23)
(0.0135587 1.08749e-05 -1.59439e-24)
(0.0135635 6.92225e-06 1.63578e-23)
(0.0135672 3.02067e-06 5.58251e-24)
(0.0135698 -8.13669e-07 -1.12137e-23)
(0.0135713 -4.56863e-06 1.6894e-25)
(0.0135719 -8.23514e-06 2.19245e-23)
(0.0135715 -1.18068e-05 -8.29352e-24)
(0.0135702 -1.52774e-05 -1.99396e-24)
(0.0135679 -1.86458e-05 -1.14361e-25)
(0.0117822 2.60309e-05 -1.20651e-23)
(0.0117948 2.33605e-05 1.508e-23)
(0.0118059 2.04582e-05 1.64712e-24)
(0.0118156 1.73416e-05 2.89942e-23)
(0.0118238 1.41198e-05 -2.31962e-23)
(0.0118307 1.08711e-05 1.78934e-24)
(0.0118364 7.62691e-06 -2.42724e-24)
(0.0118408 4.40508e-06 -6.93639e-24)
(0.0118441 1.2235e-06 5.91227e-24)
(0.0118463 -1.90243e-06 -1.8891e-23)
(0.0118473 -4.96147e-06 1.39759e-24)
(0.0118474 -7.94506e-06 4.43445e-24)
(0.0118464 -1.08473e-05 2.69354e-24)
(0.0118444 -1.36627e-05 1.01853e-24)
(0.0118415 -1.63911e-05 3.38002e-25)
(0.010167 1.93998e-05 8.83987e-24)
(0.0101785 1.73916e-05 -6.8405e-24)
(0.0101888 1.51481e-05 -2.94506e-23)
(0.0101977 1.26959e-05 2.71828e-23)
(0.0102052 1.01479e-05 3.73231e-23)
(0.0102114 7.57513e-06 -9.38958e-24)
(0.0102164 5.00423e-06 -1.88257e-23)
(0.0102202 2.45149e-06 -2.60168e-23)
(0.0102229 -6.68762e-08 1.94305e-23)
(0.0102244 -2.53765e-06 1.10072e-24)
(0.0102248 -4.9514e-06 -4.25438e-24)
(0.0102241 -7.30089e-06 -1.1073e-24)
(0.0102224 -9.58132e-06 2.27526e-24)
(0.0102197 -1.17887e-05 -9.76241e-26)
(0.0102161 -1.3924e-05 -4.06499e-25)
(0.00866165 1.39935e-05 -5.41105e-24)
(0.00867185 1.25287e-05 -3.79024e-24)
(0.00868096 1.08355e-05 4.55692e-24)
(0.0086888 8.95329e-06 -1.42429e-23)
(0.00869537 6.99365e-06 4.6227e-23)
(0.00870072 5.01705e-06 -6.06639e-23)
(0.00870488 3.04392e-06 5.89645e-23)
(0.00870788 1.0879e-06 -2.47851e-23)
(0.00870973 -8.37872e-07 5.56551e-24)
(0.00871048 -2.72317e-06 4.18991e-26)
(0.00871015 -4.56065e-06 -4.29759e-24)
(0.00870878 -6.34477e-06 1.37626e-24)
(0.00870639 -8.07204e-06 -3.16918e-24)
(0.00870302 -9.73991e-06 -3.96145e-25)
(0.00869867 -1.13507e-05 1.94081e-25)
(0.0072675 9.74424e-06 -2.51131e-24)
(0.00727626 8.7101e-06 6.36769e-25)
(0.00728407 7.46628e-06 1.36989e-24)
(0.00729074 6.06483e-06 -6.29454e-24)
(0.00729625 4.6091e-06 -2.81068e-24)
(0.00730062 3.14566e-06 2.42109e-23)
(0.00730387 1.68836e-06 -1.41521e-23)
(0.00730602 2.47344e-07 2.00815e-24)
(0.00730709 -1.16779e-06 -1.93908e-24)
(0.00730711 -2.54978e-06 -2.06461e-24)
(0.00730611 -3.89328e-06 -5.76439e-25)
(0.00730413 -5.19434e-06 3.83212e-24)
(0.00730118 -6.45064e-06 8.92921e-25)
(0.00729732 -7.66083e-06 -2.20632e-24)
(0.00729255 -8.82821e-06 -3.20273e-25)
(0.00598333 6.51516e-06 -8.57157e-25)
(0.00599062 5.81011e-06 -2.81372e-25)
(0.00599711 4.92635e-06 -1.36183e-23)
(0.00600259 3.92328e-06 3.59114e-24)
(0.00600702 2.88862e-06 -9.67454e-24)
(0.00601041 1.85365e-06 6.76622e-24)
(0.00601278 8.26224e-07 1.27249e-23)
(0.00601415 -1.86878e-07 9.47183e-24)
(0.00601454 -1.17925e-06 -1.32186e-23)
(0.00601397 -2.14603e-06 3.97569e-24)
(0.00601247 -3.08352e-06 3.33183e-24)
(0.00601008 -3.9891e-06 -4.69829e-24)
(0.00600682 -4.86134e-06 2.49683e-24)
(0.00600274 -5.6997e-06 -1.50055e-25)
(0.00599783 -6.50782e-06 5.79148e-25)
(0.00480606 4.13959e-06 -3.10419e-24)
(0.00481194 3.67795e-06 -4.23283e-24)
(0.00481715 3.07811e-06 -7.6279e-25)
(0.00482148 2.39783e-06 1.04448e-23)
(0.0048249 1.70371e-06 -7.36328e-24)
(0.0048274 1.01312e-06 -1.41763e-24)
(0.00482901 3.29669e-07 1.17737e-23)
(0.00482974 -3.42542e-07 1.65025e-26)
(0.00482961 -9.99513e-07 -2.37951e-24)
(0.00482864 -1.63813e-06 -8.57699e-24)
(0.00482687 -2.25599e-06 9.99125e-25)
(0.00482432 -2.85146e-06 5.79139e-24)
(0.00482102 -3.42371e-06 -7.42073e-25)
(0.004817 -3.9726e-06 -7.38577e-25)
(0.00481227 -4.50149e-06 4.79535e-25)
(0.00373134 2.45159e-06 -6.20443e-25)
(0.00373591 2.16445e-06 3.67633e-26)
(0.00373993 1.78366e-06 4.6162e-24)
(0.00374321 1.35593e-06 3.07835e-24)
(0.00374571 9.253e-07 -2.12454e-24)
(0.00374745 4.9897e-07 -5.22979e-24)
(0.00374844 7.81559e-08 2.10738e-24)
(0.0037487 -3.34843e-07 -8.82073e-24)
(0.00374825 -7.37698e-07 6.78382e-24)
(0.0037471 -1.12853e-06 3.4372e-24)
(0.00374528 -1.5059e-06 -5.36368e-26)
(0.00374282 -1.86885e-06 -3.69877e-24)
(0.00373973 -2.21693e-06 6.52374e-25)
(0.00373606 -2.55012e-06 -4.72007e-25)
(0.0037318 -2.87099e-06 2.28539e-25)
(0.0027539 1.3032e-06 -1.03809e-24)
(0.00275727 1.13593e-06 2.14864e-26)
(0.00276021 9.17069e-07 3.37172e-24)
(0.00276254 6.762e-07 -2.10524e-24)
(0.00276426 4.37447e-07 8.63733e-24)
(0.00276538 2.02276e-07 -1.57131e-23)
(0.00276592 -2.91202e-08 1.27648e-23)
(0.00276588 -2.55608e-07 -1.06128e-23)
(0.00276529 -4.75986e-07 7.58789e-24)
(0.00276415 -6.89261e-07 -4.83375e-24)
(0.00276249 -8.94667e-07 1.65634e-24)
(0.00276033 -1.09173e-06 2.36907e-25)
(0.00275769 -1.28027e-06 3.59303e-25)
(0.00275458 -1.46022e-06 -4.38208e-25)
(0.00275103 -1.63307e-06 8.65131e-26)
(0.00186787 5.74651e-07 1.42889e-24)
(0.00187013 4.87591e-07 1.54231e-24)
(0.00187209 3.81664e-07 -6.58855e-24)
(0.00187359 2.68767e-07 4.81352e-24)
(0.00187466 1.58776e-07 -4.85484e-26)
(0.00187531 5.10689e-08 1.23143e-24)
(0.00187553 -5.44179e-08 -1.51031e-24)
(0.00187536 -1.57226e-07 -3.13564e-24)
(0.00187478 -2.56849e-07 3.10249e-24)
(0.00187382 -3.52865e-07 3.13724e-25)
(0.00187249 -4.44965e-07 -2.43093e-24)
(0.0018708 -5.32961e-07 8.73563e-25)
(0.00186877 -6.16851e-07 5.03046e-25)
(0.00186642 -6.96515e-07 -6.08004e-26)
(0.00186375 -7.72335e-07 -5.30175e-26)
(0.001067 1.79806e-07 -1.31102e-24)
(0.00106826 1.5765e-07 4.0068e-24)
(0.00106932 1.31615e-07 2.38521e-24)
(0.00107012 1.01749e-07 -4.29672e-24)
(0.00107066 7.07322e-08 -5.03159e-25)
(0.00107095 3.83576e-08 -4.46705e-25)
(0.00107099 4.98024e-09 1.3572e-24)
(0.0010708 -2.89264e-08 -2.28463e-24)
(0.00107036 -6.29234e-08 3.08978e-24)
(0.00106971 -9.66413e-08 -1.51288e-24)
(0.00106883 -1.29791e-07 -9.65955e-25)
(0.00106774 -1.62143e-07 5.77612e-25)
(0.00106645 -1.93594e-07 -6.585e-25)
(0.00106497 -2.23889e-07 6.5059e-25)
(0.00106331 -2.52561e-07 -1.04734e-25)
(0.000344927 4.37332e-08 -7.47908e-27)
(0.000345261 1.00671e-07 6.22173e-25)
(0.000345536 1.45196e-07 7.11047e-25)
(0.000345724 1.75251e-07 -1.11572e-24)
(0.000345834 1.92521e-07 2.30837e-24)
(0.000345867 1.98918e-07 -2.50357e-24)
(0.000345822 1.96177e-07 1.63354e-25)
(0.000345702 1.85847e-07 1.36575e-24)
(0.000345506 1.69288e-07 -1.88688e-24)
(0.000345238 1.4769e-07 -3.3362e-25)
(0.0003449 1.22079e-07 1.27563e-24)
(0.000344493 9.33591e-08 -5.59433e-25)
(0.000344021 6.22485e-08 -1.97739e-25)
(0.000343487 2.9505e-08 1.63844e-25)
(0.000342892 -3.88772e-09 -6.88688e-27)
(0.000858846 -0.000257608 9.91149e-26)
(0.00099151 -0.000178836 2.57717e-24)
(0.00120303 -9.53578e-05 -7.51584e-24)
(0.00142313 -2.86667e-05 1.10453e-23)
(0.00163656 2.23188e-05 -4.19375e-24)
(0.00184554 5.97691e-05 -4.05988e-24)
(0.00205077 8.63232e-05 4.64605e-24)
(0.00225289 0.00010409 -9.23215e-24)
(0.00245263 0.000114752 6.05214e-25)
(0.00265059 0.000119723 5.88457e-24)
(0.00284729 0.000120212 -1.12681e-24)
(0.00304322 0.000117299 1.22286e-24)
(0.00323889 0.000111993 -1.20319e-25)
(0.00343484 0.000105291 7.66414e-25)
(0.0036318 9.82365e-05 -2.82553e-24)
(0.00383081 9.19646e-05 1.55243e-24)
(0.00403338 8.7715e-05 -4.81213e-25)
(0.00424178 8.67608e-05 3.77943e-26)
(0.00445931 9.01434e-05 1.12124e-24)
(0.00469043 9.80872e-05 -7.01379e-25)
(0.00494038 0.000108911 8.51983e-26)
(0.00521361 0.000117464 -7.42066e-26)
(0.00548863 0.000114397 1.38566e-25)
(0.00573157 9.41365e-05 5.28163e-25)
(0.0059317 5.66609e-05 -9.45628e-25)
(0.00608888 3.95481e-06 -6.28286e-25)
(0.0062042 -6.13282e-05 3.6286e-26)
(0.0062792 -0.000136499 1.49199e-24)
(0.00631523 -0.000218753 1.86506e-24)
(0.00631315 -0.000304825 -3.56713e-24)
(0.00627353 -0.000390726 2.41354e-24)
(0.00619684 -0.0004716 -1.70396e-24)
(0.00608377 -0.000541756 2.08661e-25)
(0.00593536 -0.000594774 -1.36856e-24)
(0.00575304 -0.000623601 1.30276e-24)
(0.00553862 -0.000620512 8.58482e-24)
(0.00529417 -0.000576818 -2.35493e-24)
(0.00502197 -0.000482215 2.14814e-24)
(0.00472458 -0.000323801 1.12449e-24)
(0.00440488 -8.55289e-05 -1.23785e-23)
(0.00406591 0.000249638 -1.47628e-25)
(0.00370993 0.000690292 4.90435e-24)
(0.00333782 0.00121183 1.44509e-24)
(0.00295801 0.00171016 -6.41347e-24)
(0.00277043 0.00186922 -3.13902e-25)
(0.00162764 -0.000316338 -3.04347e-24)
(0.00167958 -0.000282406 -4.35024e-24)
(0.00180945 -0.000207431 9.21579e-24)
(0.00197627 -0.000135366 4.35118e-24)
(0.00215566 -7.48026e-05 -1.55501e-23)
(0.002341 -2.73382e-05 1.68606e-23)
(0.0025287 8.41798e-06 -6.13083e-24)
(0.00271702 3.4389e-05 4.92322e-24)
(0.00290534 5.23148e-05 -6.58088e-24)
(0.00309352 6.37188e-05 7.66936e-26)
(0.0032816 6.9921e-05 -3.5445e-24)
(0.00346977 7.20913e-05 7.08418e-24)
(0.00365829 7.13094e-05 -3.9436e-24)
(0.00384759 6.86234e-05 -3.55863e-24)
(0.00403825 6.51065e-05 -2.36957e-24)
(0.00423114 6.19034e-05 4.56903e-24)
(0.00442763 6.02418e-05 -5.42554e-25)
(0.00462976 6.13642e-05 2.38479e-24)
(0.00484056 6.62786e-05 3.68124e-25)
(0.00506414 7.52118e-05 -7.0828e-25)
(0.00530541 8.65962e-05 -2.91629e-25)
(0.00556866 9.55915e-05 -1.72475e-25)
(0.00583356 9.33489e-05 8.30504e-25)
(0.00606799 7.46898e-05 9.9684e-25)
(0.00626179 3.96886e-05 -9.01266e-25)
(0.00641477 -9.70783e-06 -4.22602e-24)
(0.00652778 -7.08764e-05 5.54947e-24)
(0.00660211 -0.0001411 -3.71534e-24)
(0.00663891 -0.000217499 1.2211e-24)
(0.00663901 -0.000296726 -5.72187e-25)
(0.00660305 -0.000374737 3.69045e-24)
(0.00653168 -0.000446669 -3.55634e-24)
(0.00642592 -0.000506874 -1.12848e-25)
(0.00628722 -0.000549012 7.53509e-24)
(0.00611765 -0.000566131 -1.28332e-23)
(0.0059199 -0.000550625 3.46039e-24)
(0.00569729 -0.000493969 1.60645e-23)
(0.0054541 -0.000386147 -4.40057e-24)
(0.00519599 -0.000214782 -1.26498e-23)
(0.00493117 3.53533e-05 -7.49018e-24)
(0.00467213 0.00038047 1.64716e-23)
(0.00443818 0.000827661 -1.50848e-23)
(0.00425857 0.00134729 -2.91767e-24)
(0.00416431 0.00181825 8.98298e-24)
(0.00423033 0.00193784 2.74289e-24)
(0.00252727 -0.000323672 -3.54171e-26)
(0.00253098 -0.000328672 -5.26751e-24)
(0.00258848 -0.000282913 1.02376e-23)
(0.00269221 -0.00022244 8.64687e-24)
(0.00282377 -0.00016284 -1.45575e-23)
(0.00297274 -0.000111199 3.09466e-25)
(0.00313224 -6.93416e-05 1.46727e-24)
(0.00329801 -3.67979e-05 1.61895e-23)
(0.00346772 -1.24419e-05 -1.95103e-23)
(0.00364006 4.99721e-06 1.21608e-23)
(0.00381433 1.67563e-05 3.70562e-24)
(0.00399021 2.39904e-05 -2.07363e-23)
(0.00416763 2.77894e-05 7.56953e-24)
(0.00434671 2.92168e-05 3.03884e-24)
(0.00452784 2.93546e-05 -6.35837e-24)
(0.0047117 2.9343e-05 1.03578e-23)
(0.00489941 3.03888e-05 -7.3232e-24)
(0.00509279 3.36992e-05 -1.27085e-25)
(0.00529451 4.02476e-05 5.77954e-25)
(0.00550833 5.02634e-05 6.10956e-25)
(0.00573875 6.22956e-05 8.26521e-26)
(0.00598984 7.18114e-05 3.4309e-25)
(0.00624255 7.04589e-05 -9.31203e-25)
(0.00646666 5.34491e-05 2.74313e-24)
(0.00665261 2.09542e-05 -4.2722e-24)
(0.0068001 -2.51032e-05 2.42565e-24)
(0.00690976 -8.21177e-05 -5.31321e-24)
(0.00698261 -0.000147334 7.00277e-24)
(0.00701962 -0.000217791 -5.76942e-24)
(0.00702157 -0.000290053 8.36474e-25)
(0.00698917 -0.000360015 1.12196e-24)
(0.00692331 -0.000422807 4.58131e-24)
(0.00682532 -0.000472841 -1.09459e-24)
(0.00669715 -0.000503905 4.19225e-24)
(0.00654154 -0.000509249 -1.21953e-23)
(0.00636209 -0.000481578 2.13515e-23)
(0.00616348 -0.000412886 -1.45457e-23)
(0.00595192 -0.000294097 2.14035e-23)
(0.00573602 -0.000114606 -4.04176e-23)
(0.00552844 0.000137548 1.50287e-23)
(0.00534832 0.000473063 4.96807e-24)
(0.00522328 0.000890802 7.24923e-24)
(0.00518804 0.0013522 -8.54595e-24)
(0.00526279 0.00173925 2.13553e-24)
(0.00543544 0.00183644 -1.30823e-24)
(0.0035431 -0.000308002 -1.28009e-24)
(0.00352353 -0.000334992 -2.1282e-24)
(0.00353194 -0.000319308 -9.56426e-24)
(0.00357884 -0.000280044 2.61453e-24)
(0.00365825 -0.000231562 1.77424e-24)
(0.00376255 -0.000183478 7.93498e-24)
(0.00388473 -0.000140689 -1.71052e-23)
(0.00401932 -0.000104884 6.72747e-24)
(0.00416264 -7.61916e-05 2.2921e-23)
(0.00431225 -5.40311e-05 -6.24595e-24)
(0.00446661 -3.75324e-05 -5.9677e-24)
(0.00462477 -2.57317e-05 -9.65693e-25)
(0.00478619 -1.76396e-05 3.2095e-24)
(0.00495065 -1.22487e-05 -6.35849e-24)
(0.00511823 -8.51476e-06 1.49098e-24)
(0.00528935 -5.33372e-06 -5.27629e-25)
(0.00546488 -1.54259e-06 -3.13877e-24)
(0.00564633 4.01311e-06 1.23011e-24)
(0.00583603 1.22587e-05 5.52324e-24)
(0.00603729 2.34166e-05 -6.5949e-25)
(0.00625419 3.61465e-05 -1.24132e-24)
(0.0064905 4.62236e-05 -3.3663e-25)
(0.00672855 4.58104e-05 -1.84404e-24)
(0.00694016 3.05197e-05 -8.95855e-26)
(0.00711639 6.32384e-07 -4.21283e-24)
(0.00725681 -4.1941e-05 7.18111e-24)
(0.0073618 -9.46068e-05 -5.8788e-24)
(0.00743211 -0.000154572 1.09289e-23)
(0.00746853 -0.0002188 -8.70656e-24)
(0.00747179 -0.000283789 2.14477e-24)
(0.00744269 -0.000345404 2.85529e-24)
(0.00738237 -0.000398826 -2.88499e-25)
(0.00729251 -0.000438602 -4.53591e-25)
(0.00717556 -0.000458768 -1.56461e-24)
(0.00703492 -0.000452957 1.89336e-24)
(0.0068751 -0.000414462 -7.03953e-24)
(0.00670199 -0.000336227 3.24877e-23)
(0.00652343 -0.000210781 -1.69182e-23)
(0.00635012 -3.0347e-05 -6.13919e-25)
(0.00619712 0.000212307 -3.54783e-23)
(0.00608548 0.000520725 2.5525e-23)
(0.00604213 0.000885634 -8.50422e-24)
(0.0060942 0.00126733 2.25001e-24)
(0.00624669 0.00157472 8.93092e-24)
(0.00645635 0.00167887 -2.03699e-24)
(0.00467188 -0.000284218 -5.25993e-24)