/*--------------------------------*- C++ -*----------------------------------*\
| =========                 |                                                 |
| \\      /  F ield         | OpenFOAM: The Open Source CFD Toolbox           |
|  \\    /   O peration     | Version:  2312                                  |
|   \\  /    A nd           | Website:  www.openfoam.com                      |
|    \\/     M anipulation  |                                                 |
\*---------------------------------------------------------------------------*/
FoamFile
{
    version     2.0;
    format      ascii;
    arch        "LSB;label=32;scalar=64";
    class       volVectorField;
    location    "24";
    object      U;
}
// * * * * * * * * * * * * * * * * * * * * * * * * * * * * * * * * * * * * * //

dimensions      [0 1 -1 0 0 0 0];

internalField   nonuniform List<vector> 
4800
(
(0.000467349 3.16162e-07 -2.69647e-26)
(0.000459602 3.46556e-07 -1.89486e-25)
(0.000454929 3.58059e-07 2.43217e-25)
(0.000452302 3.48636e-07 1.11204e-25)
(0.000451118 3.30303e-07 1.64385e-24)
(0.000451115 2.9759e-07 -3.9154e-24)
(0.00045205 2.57436e-07 3.6623e-24)
(0.00045382 1.80868e-07 -5.31658e-24)
(0.000456511 2.4624e-08 1.7047e-24)
(0.000460302 -2.41537e-07 5.81663e-24)
(0.000465602 -7.56018e-07 -1.79242e-24)
(0.000473697 -2.16709e-06 -1.51751e-25)
(0.000491829 -7.36318e-06 -2.18721e-24)
(0.000537925 -2.83491e-05 1.01772e-24)
(0.000614064 -9.21085e-05 -8.09157e-25)
(0.00144511 1.65077e-06 -8.57855e-26)
(0.00142145 1.19568e-06 1.0692e-25)
(0.00140692 8.33161e-07 -9.85425e-25)
(0.0013985 5.05118e-07 7.36426e-25)
(0.00139436 1.86757e-07 2.36504e-24)
(0.0013937 -1.59006e-07 -3.75452e-24)
(0.00139569 -5.56865e-07 -1.07216e-24)
(0.00140009 -1.08475e-06 -2.56517e-25)
(0.00140714 -1.91302e-06 8.83216e-24)
(0.00141723 -3.24507e-06 -6.52582e-24)
(0.00143158 -5.72237e-06 7.10351e-25)
(0.00145293 -1.15924e-05 1.08346e-24)
(0.00149016 -2.8535e-05 -1.60271e-24)
(0.00155397 -8.01328e-05 -4.85364e-25)
(0.00162261 -0.000196337 2.09647e-24)
(0.00252593 5.30585e-06 -6.14135e-26)
(0.0024852 3.83654e-06 6.27552e-26)
(0.00245987 2.69633e-06 6.45018e-25)
(0.0024448 1.70661e-06 -1.53809e-24)
(0.00243696 7.26941e-07 1.50973e-24)
(0.00243485 -3.43586e-07 1.407e-24)
(0.00243714 -1.58203e-06 -3.63513e-24)
(0.00244322 -3.21625e-06 -2.28086e-24)
(0.00245356 -5.61202e-06 5.47888e-24)
(0.00246839 -9.31945e-06 2.06645e-24)
(0.00248908 -1.58386e-05 -7.18485e-24)
(0.00251781 -2.9156e-05 -1.09022e-24)
(0.00255868 -5.8822e-05 3.06961e-24)
(0.00261049 -0.00012419 4.85797e-24)
(0.00264802 -0.000232806 -2.50966e-24)
(0.00371584 1.18686e-05 2.27032e-26)
(0.00365725 8.68924e-06 -1.5807e-25)
(0.00362028 6.23061e-06 7.04877e-25)
(0.00359774 4.11103e-06 7.5439e-25)
(0.00358536 2.03233e-06 -7.49293e-25)
(0.00358082 -2.43318e-07 -4.25441e-24)
(0.00358249 -2.74181e-06 -2.87846e-24)
(0.00358901 -6.05889e-06 1.10134e-23)
(0.00360107 -1.08148e-05 4.59549e-24)
(0.00361829 -1.78255e-05 -6.59981e-24)
(0.0036415 -2.92506e-05 -2.65914e-24)
(0.0036711 -4.96266e-05 -2.02922e-24)
(0.00370636 -8.69523e-05 6.08828e-26)
(0.00374009 -0.000151212 1.50072e-24)
(0.00375399 -0.000237405 7.33356e-27)
(0.00501871 2.1969e-05 -4.16653e-26)
(0.0049422 1.62472e-05 -2.54792e-25)
(0.00489317 1.18305e-05 -1.61136e-25)
(0.00486251 8.04257e-06 4.35655e-25)
(0.00484483 4.3858e-06 -1.23902e-24)
(0.00483682 5.22397e-07 3.09222e-24)
(0.00483678 -3.92584e-06 -5.39437e-25)
(0.00484242 -9.27779e-06 1.89643e-24)
(0.00485424 -1.68786e-05 -1.06376e-23)
(0.00487124 -2.7524e-05 2.01999e-23)
(0.00489321 -4.34698e-05 -1.95444e-23)
(0.00491886 -6.84479e-05 1.03149e-23)
(0.00494481 -0.000107287 -9.57215e-24)
(0.00496338 -0.000163043 9.02899e-24)
(0.0049642 -0.000228139 -3.59977e-24)
(0.00643459 3.63124e-05 5.505e-26)
(0.00634151 2.71368e-05 1.97048e-25)
(0.00628081 2.00593e-05 -1.03972e-24)
(0.00624189 1.40192e-05 -6.58278e-25)
(0.00621841 8.28695e-06 1.76592e-24)
(0.00620623 2.29899e-06 6.3391e-25)
(0.0062031 -4.3194e-06 -4.95631e-24)
(0.00620672 -1.22957e-05 1.18335e-23)
(0.00621641 -2.28418e-05 -1.54182e-23)
(0.00623076 -3.68885e-05 3.69635e-24)
(0.0062486 -5.62469e-05 1.12501e-23)
(0.00626766 -8.31937e-05 -1.5628e-23)
(0.00628407 -0.000119606 7.82597e-24)
(0.00629212 -0.00016495 8.01823e-24)
(0.00628706 -0.000213013 -6.10271e-24)
(0.0079576 5.53981e-05 4.55234e-26)
(0.00785154 4.18879e-05 -2.69244e-25)
(0.00778102 3.14493e-05 9.64162e-25)
(0.00773467 2.25728e-05 -1.3376e-24)
(0.00770552 1.42769e-05 -4.54604e-24)
(0.00768889 5.76759e-06 7.75057e-24)
(0.00768194 -3.42659e-06 -4.70782e-24)
(0.00768228 -1.41493e-05 1.60307e-23)
(0.00768836 -2.75161e-05 -1.09028e-23)
(0.00769834 -4.43497e-05 -5.09771e-24)
(0.00771041 -6.57577e-05 -1.00293e-23)
(0.00772209 -9.26373e-05 9.22154e-24)
(0.00773024 -0.000124965 2.59356e-24)
(0.00773138 -0.000160951 2.21747e-24)
(0.00772399 -0.000196439 -1.95094e-24)
(0.00957357 7.9108e-05 -6.56053e-26)
(0.00946137 6.06209e-05 8.90919e-25)
(0.00938507 4.62531e-05 -2.07396e-24)
(0.00933363 3.40482e-05 -1.69842e-24)
(0.00930006 2.27757e-05 6.35625e-25)
(0.00927951 1.14612e-05 1.25088e-24)
(0.00926874 -5.2766e-07 4.49214e-24)
(0.0092652 -1.39568e-05 -1.22413e-23)
(0.00926688 -2.97895e-05 -6.53515e-24)
(0.00927169 -4.85809e-05 1.79795e-23)
(0.0092776 -7.07612e-05 -5.57276e-24)
(0.0092824 -9.62844e-05 1.90548e-23)
(0.00928401 -0.000124284 -1.00308e-23)
(0.00928056 -0.000152962 -3.19499e-24)
(0.00927207 -0.000179801 1.89118e-24)
(0.0112591 0.000106162 -8.67178e-27)
(0.0111512 8.2614e-05 4.92433e-25)
(0.0110758 6.40904e-05 -7.01197e-25)
(0.0110237 4.83059e-05 1.68046e-24)
(0.0109885 3.38345e-05 -1.00223e-23)
(0.0109657 1.95948e-05 1.05826e-23)
(0.0109522 4.84757e-06 -1.66814e-23)
(0.0109452 -1.10681e-05 1.02547e-23)
(0.0109427 -2.88482e-05 7.62861e-24)
(0.0109426 -4.8755e-05 1.656e-23)
(0.0109431 -7.0734e-05 -2.16282e-23)
(0.0109423 -9.42799e-05 -3.99768e-24)
(0.0109392 -0.000118383 1.84822e-24)
(0.0109327 -0.000141695 1.31739e-23)
(0.0109236 -0.000162789 -5.35578e-24)
(0.0129844 0.000133614 4.74547e-26)
(0.0128937 0.000105818 -2.06572e-25)
(0.0128282 8.3504e-05 9.24018e-25)
(0.0127815 6.43136e-05 -3.24065e-24)
(0.0127491 4.67574e-05 4.91279e-24)
(0.0127272 2.97429e-05 -6.34386e-24)
(0.0127131 1.25256e-05 1.06209e-23)
(0.0127043 -5.44339e-06 1.86197e-24)
(0.012699 -2.45486e-05 -1.46392e-23)
(0.0126954 -4.48296e-05 2.08441e-23)
(0.012692 -6.59854e-05 -2.29855e-23)
(0.0126876 -8.74105e-05 -6.76077e-24)
(0.0126816 -0.000108275 1.19279e-23)
(0.0126734 -0.000127722 3.53513e-24)
(0.012664 -0.000144996 -1.54353e-24)
(0.0147241 0.00015701 1.88652e-25)
(0.0146614 0.000126732 -1.6054e-24)
(0.0146142 0.00010171 -2.58425e-24)
(0.0145796 7.98409e-05 6.12524e-24)
(0.014555 5.976e-05 2.73883e-24)
(0.0145379 4.0483e-05 -1.72021e-23)
(0.0145262 2.1365e-05 5.30023e-24)
(0.0145183 1.99544e-06 3.81695e-24)
(0.0145124 -1.77595e-05 -1.64951e-23)
(0.0145075 -3.78064e-05 1.71857e-23)
(0.0145024 -5.77893e-05 -1.37392e-23)
(0.0144964 -7.7199e-05 3.52969e-23)
(0.0144894 -9.54682e-05 -1.69587e-23)
(0.014481 -0.000112123 9.97676e-24)
(0.0144722 -0.000126801 -2.72095e-24)
(0.0164722 0.00017217 -6.95672e-26)
(0.0164404 0.000141455 1.08194e-24)
(0.0164153 0.000115222 -2.12639e-24)
(0.0163965 9.18147e-05 -1.08277e-24)
(0.0163831 7.01479e-05 1.20938e-23)
(0.0163738 4.94512e-05 -1.75666e-24)
(0.0163673 2.92454e-05 -2.1506e-23)
(0.0163625 9.2906e-06 2.50815e-23)
(0.0163585 -1.04254e-05 -5.6368e-24)
(0.0163545 -2.97421e-05 -1.9491e-23)
(0.01635 -4.83566e-05 2.07844e-23)
(0.0163445 -6.59228e-05 1.11945e-23)
(0.0163383 -8.21081e-05 -9.42378e-24)
(0.016331 -9.66923e-05 -1.6301e-23)
(0.0163236 -0.000109536 1.36713e-24)
(0.0182495 0.000178257 -2.66678e-27)
(0.0182405 0.000148238 -1.20202e-24)
(0.0182333 0.000121895 5.76221e-24)
(0.0182285 9.7969e-05 3.7154e-25)
(0.0182256 7.56602e-05 3.30177e-24)
(0.0182241 5.44357e-05 -1.18064e-23)
(0.0182233 3.39889e-05 1.00882e-23)
(0.0182226 1.42114e-05 2.29571e-24)
(0.0182215 -4.85797e-06 2.07338e-23)
(0.0182197 -2.30689e-05 -3.20382e-23)
(0.0182171 -4.02138e-05 -1.44931e-23)
(0.0182135 -5.60997e-05 -9.57005e-24)
(0.0182091 -7.05666e-05 1.8026e-23)
(0.0182037 -8.35469e-05 -5.17699e-25)
(0.0181983 -9.50213e-05 1.74516e-24)
(0.0200827 0.000178706 -1.79049e-26)
(0.0200837 0.000149262 1.22178e-24)
(0.0200854 0.000123019 -1.78183e-24)
(0.0200879 9.89717e-05 -6.93784e-28)
(0.0200908 7.65277e-05 2.38428e-24)
(0.0200938 5.53284e-05 6.07889e-24)
(0.0200965 3.51886e-05 -2.35731e-23)
(0.0200985 1.60552e-05 1.98943e-24)
(0.0200996 -2.03261e-06 1.19877e-23)
(0.0200996 -1.89905e-05 -5.51639e-24)
(0.0200987 -3.47124e-05 1.50646e-23)
(0.0200968 -4.91245e-05 1.05376e-23)
(0.0200942 -6.21816e-05 -1.91229e-23)
(0.0200907 -7.39018e-05 1.30705e-23)
(0.0200871 -8.43267e-05 -1.08633e-23)
(0.0219655 0.000177597 -5.3147e-25)
(0.0219687 0.000148422 2.79847e-25)
(0.0219722 0.000122148 2.11569e-24)
(0.0219761 9.80093e-05 -1.09993e-23)
(0.0219801 7.5569e-05 9.69856e-24)
(0.0219838 5.45837e-05 -7.10534e-24)
(0.021987 3.49266e-05 5.09344e-24)
(0.0219893 1.65487e-05 -3.62025e-23)
(0.0219907 -5.59276e-07 5.22537e-23)
(0.0219911 -1.63826e-05 -3.07867e-23)
(0.0219908 -3.09081e-05 2.74998e-23)
(0.0219895 -4.41498e-05 2.29871e-23)
(0.0219877 -5.61346e-05 -4.01582e-23)
(0.0219852 -6.6927e-05 1.30624e-23)
(0.0219827 -7.65976e-05 -5.4853e-25)
(0.0238413 0.00017605 -1.88356e-26)
(0.0238454 0.000147456 -1.58261e-25)
(0.0238492 0.000121411 1.19428e-25)
(0.0238527 9.74259e-05 -3.02922e-25)
(0.023856 7.52157e-05 3.94793e-24)
(0.0238588 5.4619e-05 -6.79336e-24)
(0.023861 3.55372e-05 6.32789e-24)
(0.0238624 1.79044e-05 -2.00551e-23)
(0.0238632 1.66457e-06 4.56614e-23)
(0.0238631 -1.32306e-05 -5.84771e-23)
(0.0238625 -2.68369e-05 4.79211e-23)
(0.0238611 -3.92225e-05 -1.6187e-23)
(0.0238594 -5.04548e-05 8.40593e-25)
(0.0238571 -6.06209e-05 3.70976e-24)
(0.0238548 -6.98027e-05 -7.11743e-24)
(0.0256171 0.000172962 -1.55897e-24)
(0.0256232 0.000145645 2.81108e-24)
(0.0256278 0.000120442 -9.49358e-25)
(0.0256315 9.7143e-05 -1.51809e-24)
(0.0256345 7.56003e-05 6.20527e-24)
(0.0256367 5.57117e-05 -6.32398e-24)
(0.0256384 3.73957e-05 -5.71942e-24)
(0.0256392 2.05698e-05 -1.38387e-23)
(0.0256394 5.15267e-06 7.04768e-24)
(0.025639 -8.94588e-06 3.36927e-23)
(0.025638 -2.18188e-05 -1.77983e-23)
(0.0256365 -3.35588e-05 1.0619e-23)
(0.0256347 -4.42507e-05 -4.37169e-24)
(0.0256325 -5.39881e-05 -1.29556e-23)
(0.0256303 -6.28542e-05 6.63134e-24)
(0.0271758 0.000167273 5.11778e-25)
(0.027184 0.000141937 -8.89181e-25)
(0.02719 0.000118245 -2.70459e-25)
(0.0271943 9.62193e-05 -7.13671e-25)
(0.0271976 7.5829e-05 -1.84647e-24)
(0.0271999 5.70138e-05 9.55973e-24)
(0.0272015 3.97031e-05 -7.70296e-24)
(0.0272022 2.38054e-05 -4.97835e-24)
(0.0272024 9.22853e-06 4.56054e-24)
(0.0272019 -4.13126e-06 -5.38563e-24)
(0.027201 -1.63663e-05 1.25503e-23)
(0.0271995 -2.75752e-05 6.37029e-24)
(0.0271979 -3.78475e-05 -2.37773e-23)
(0.0271958 -4.7274e-05 1.643e-23)
(0.0271938 -5.59302e-05 -3.35084e-24)
(0.0283654 0.000158814 1.51184e-24)
(0.0283753 0.00013601 2.55311e-24)
(0.0283824 0.000114398 -5.68595e-24)
(0.0283876 9.41617e-05 -3.1336e-25)
(0.0283915 7.5354e-05 1.3243e-24)
(0.0283941 5.79477e-05 -2.88897e-24)
(0.0283959 4.18868e-05 -4.63151e-24)
(0.0283969 2.70814e-05 1.00124e-23)
(0.0283973 1.3444e-05 1.12101e-23)
(0.028397 8.71055e-07 -2.72315e-23)
(0.0283963 -1.07216e-05 1.57112e-23)
(0.0283952 -2.1428e-05 -1.09906e-24)
(0.0283938 -3.13285e-05 -9.16701e-25)
(0.0283921 -4.05002e-05 1.23651e-24)
(0.0283904 -4.90044e-05 -5.70603e-25)
(0.0289798 0.000146192 -3.9632e-24)
(0.0289914 0.00012635 -8.53269e-24)
(0.029 0.000107295 4.58691e-24)
(0.0290065 8.92941e-05 1.55606e-23)
(0.0290114 7.24479e-05 -4.34527e-24)
(0.029015 5.67606e-05 -1.23072e-24)
(0.0290176 4.21914e-05 5.74884e-25)
(0.0290194 2.86704e-05 -4.4223e-24)
(0.0290205 1.61235e-05 1.20348e-23)
(0.0290209 4.46905e-06 -5.32715e-24)
(0.0290207 -6.36767e-06 3.21812e-24)
(0.0290201 -1.64642e-05 -5.08128e-24)
(0.029019 -2.58803e-05 -5.83118e-24)
(0.0290175 -3.4676e-05 8.73752e-24)
(0.0290158 -4.28982e-05 -3.82106e-24)
(0.028799 0.000132088 6.27938e-24)
(0.0288111 0.000115185 -1.44309e-23)
(0.0288204 9.87419e-05 2.36155e-24)
(0.0288277 8.30506e-05 2.084e-23)
(0.0288333 6.82307e-05 -2.02198e-23)
(0.0288376 5.43078e-05 7.04315e-24)
(0.0288409 4.12543e-05 4.57927e-24)
(0.0288433 2.90229e-05 -1.03229e-23)
(0.0288449 1.75563e-05 2.35698e-24)
(0.0288459 6.80366e-06 1.211e-24)
(0.0288463 -3.28489e-06 -9.77517e-25)
(0.0288461 -1.27446e-05 2.10143e-24)
(0.0288455 -2.16165e-05 -2.58827e-24)
(0.0288446 -2.99518e-05 1.76438e-24)
(0.0288433 -3.77915e-05 -8.20071e-25)
(0.0278543 0.000116736 3.89422e-24)
(0.0278673 0.000102526 -8.216e-24)
(0.0278774 8.85731e-05 -5.65941e-24)
(0.0278852 7.51397e-05 2.65933e-23)
(0.0278911 6.23439e-05 -2.44156e-23)
(0.0278956 5.02143e-05 2.60402e-24)
(0.0278989 3.87391e-05 4.08119e-24)
(0.0279013 2.78841e-05 2.19753e-24)
(0.0279027 1.76163e-05 1.72608e-24)
(0.0279035 7.90138e-06 -7.90679e-24)
(0.0279036 -1.28387e-06 5.08043e-24)
(0.0279032 -9.97058e-06 7.29415e-25)
(0.0279023 -1.81886e-05 -1.53582e-24)
(0.0279011 -2.59697e-05 8.56006e-25)
(0.0278994 -3.33375e-05 5.76215e-25)
(0.0263511 0.000101427 9.68546e-24)
(0.0263643 8.95696e-05 -1.72003e-23)
(0.026375 7.78415e-05 3.51114e-24)
(0.0263836 6.64658e-05 -8.345e-24)
(0.0263905 5.55436e-05 -1.07882e-23)
(0.0263959 4.51043e-05 3.65843e-23)
(0.0264002 3.51465e-05 -1.41295e-23)
(0.0264035 2.56522e-05 3.94388e-24)
(0.0264059 1.66046e-05 -2.15969e-24)
(0.0264075 7.98041e-06 -5.03364e-24)
(0.0264084 -2.41469e-07 9.16923e-24)
(0.0264087 -8.09538e-06 -4.53779e-24)
(0.0264084 -1.55932e-05 7.04453e-25)
(0.0264077 -2.27441e-05 2.53092e-25)
(0.0264064 -2.95528e-05 1.76365e-26)
(0.0245274 8.81219e-05 3.72878e-24)
(0.0245407 7.81868e-05 -1.92716e-23)
(0.0245516 6.82872e-05 3.34204e-23)
(0.0245606 5.8605e-05 -2.54972e-23)
(0.0245679 4.92242e-05 2.54368e-23)
(0.0245738 4.01773e-05 -8.45084e-24)
(0.0245785 3.14696e-05 -5.82363e-24)
(0.0245822 2.30988e-05 -6.30977e-24)
(0.024585 1.50545e-05 1.09236e-23)
(0.0245869 7.32812e-06 -5.98048e-25)
(0.0245881 -9.5251e-08 -1.01554e-23)
(0.0245886 -7.21693e-06 -1.09896e-24)
(0.0245885 -1.40404e-05 1.98392e-24)
(0.0245879 -2.05698e-05 -3.41363e-25)
(0.0245867 -2.68041e-05 5.13914e-26)
(0.0225212 7.58224e-05 4.96219e-25)
(0.0225345 6.74933e-05 -7.25259e-24)
(0.0225458 5.91336e-05 -4.05244e-24)
(0.0225551 5.08872e-05 3.31091e-23)
(0.0225629 4.28269e-05 -3.25376e-23)
(0.0225693 3.49868e-05 9.50441e-24)
(0.0225745 2.73833e-05 1.59962e-24)
(0.0225785 2.00227e-05 -8.35507e-25)
(0.0225816 1.29084e-05 -3.88397e-24)
(0.0225839 6.03938e-06 1.6698e-23)
(0.0225853 -5.80676e-07 -1.32384e-23)
(0.0225861 -6.95126e-06 -5.25829e-25)
(0.0225861 -1.307e-05 1.07299e-24)
(0.0225856 -1.89358e-05 7.12126e-25)
(0.0225844 -2.45442e-05 -5.2973e-25)
(0.0204363 6.43938e-05 7.38556e-25)
(0.0204499 5.74036e-05 6.7408e-24)
(0.0204614 5.03476e-05 -7.73477e-24)
(0.0204712 4.33386e-05 -5.35193e-24)
(0.0204795 3.64385e-05 3.4044e-23)
(0.0204863 2.96819e-05 -2.60362e-23)
(0.0204919 2.30921e-05 -5.97824e-25)
(0.0204964 1.66815e-05 -5.3573e-24)
(0.0204999 1.04613e-05 -4.10397e-25)
(0.0205025 4.43441e-06 7.8222e-25)
(0.0205042 -1.38575e-06 -2.73997e-24)
(0.0205051 -7.00054e-06 2.32936e-24)
(0.0205053 -1.24046e-05 8.37885e-25)
(0.0205049 -1.75923e-05 7.14367e-25)
(0.0205037 -2.25559e-05 6.49299e-25)
(0.0183486 5.37749e-05 5.264e-24)
(0.0183623 4.79118e-05 -8.07246e-24)
(0.0183742 4.19743e-05 -6.48166e-24)
(0.0183844 3.60482e-05 1.97691e-23)
(0.018393 3.01825e-05 -7.08043e-24)
(0.0184003 2.4411e-05 -9.95236e-24)
(0.0184063 1.87588e-05 3.48212e-24)
(0.0184112 1.32417e-05 7.75664e-24)
(0.018415 7.87347e-06 -1.23003e-23)
(0.0184179 2.65625e-06 1.21298e-23)
(0.0184199 -2.39165e-06 -6.41764e-24)
(0.018421 -7.27e-06 2.69978e-24)
(0.0184212 -1.19697e-05 -3.3662e-24)
(0.0184208 -1.64822e-05 3.24302e-24)
(0.0184196 -2.07986e-05 -7.34993e-25)
(0.0163111 4.39256e-05 -1.0217e-24)
(0.016325 3.90339e-05 -3.54712e-24)
(0.016337 3.40764e-05 -1.13058e-23)
(0.0163475 2.91133e-05 3.15643e-23)
(0.0163564 2.41807e-05 -5.65809e-24)
(0.0163639 1.93118e-05 -8.89508e-24)
(0.0163702 1.45283e-05 3.07589e-24)
(0.0163753 9.85228e-06 -4.46173e-24)
(0.0163793 5.28685e-06 -9.59621e-24)
(0.0163823 8.61646e-07 9.24497e-24)
(0.0163843 -3.44395e-06 4.4191e-25)
(0.0163854 -7.60918e-06 -2.8658e-24)
(0.0163856 -1.16175e-05 3.27235e-24)
(0.0163849 -1.54609e-05 1.81171e-25)
(0.0163835 -1.91311e-05 -2.32277e-25)
(0.0143591 3.49187e-05 3.93166e-24)
(0.0143727 3.08864e-05 5.7866e-24)
(0.0143847 2.68046e-05 -5.39274e-24)
(0.0143951 2.27087e-05 -1.17856e-23)
(0.014404 1.86269e-05 1.58649e-23)
(0.0144115 1.45897e-05 -1.73659e-23)
(0.0144178 1.06176e-05 -6.73197e-25)
(0.0144228 6.72877e-06 6.72931e-24)
(0.0144267 2.93057e-06 2.34102e-24)
(0.0144295 -7.55507e-07 -4.81941e-24)
(0.0144312 -4.34343e-06 2.76449e-26)
(0.014432 -7.8087e-06 9.75791e-24)
(0.0144318 -1.11375e-05 -3.72653e-24)
(0.0144308 -1.43231e-05 -9.23198e-25)
(0.0144289 -1.7357e-05 -5.52481e-26)
(0.0125136 2.69114e-05 -4.08389e-24)
(0.0125267 2.36519e-05 5.25751e-24)
(0.0125382 2.03587e-05 5.92301e-25)
(0.0125481 1.70474e-05 1.06529e-23)
(0.0125566 1.3743e-05 -8.68172e-24)
(0.0125637 1.04719e-05 6.94858e-25)
(0.0125695 7.25335e-06 -9.31144e-25)
(0.0125741 4.09807e-06 -2.73294e-24)
(0.0125775 1.02297e-06 2.38527e-24)
(0.0125798 -1.98139e-06 -7.70002e-24)
(0.012581 -4.88085e-06 5.46138e-25)
(0.0125812 -7.6742e-06 1.83599e-24)
(0.0125805 -1.03545e-05 1.13759e-24)
(0.0125788 -1.29139e-05 4.39908e-25)
(0.0125762 -1.53429e-05 1.53086e-25)
(0.0107858 2.00551e-05 3.02472e-24)
(0.0107978 1.74885e-05 -2.3927e-24)
(0.0108084 1.49e-05 -1.053e-23)
(0.0108175 1.22926e-05 9.88727e-24)
(0.0108251 9.69044e-06 1.38286e-23)
(0.0108315 7.1153e-06 -3.49983e-24)
(0.0108365 4.58197e-06 -7.15136e-24)
(0.0108404 2.09976e-06 -1.00437e-23)
(0.0108431 -3.18753e-07 7.57591e-24)
(0.0108446 -2.67748e-06 4.42582e-25)
(0.0108451 -4.94899e-06 -1.70006e-24)
(0.0108446 -7.13153e-06 -4.56256e-25)
(0.0108431 -9.22054e-06 9.38866e-25)
(0.0108406 -1.12086e-05 -3.56485e-26)
(0.0108372 -1.30868e-05 -1.76588e-25)
(0.00917984 1.44203e-05 -1.90332e-24)
(0.00919054 1.24626e-05 -1.35787e-24)
(0.00919986 1.04908e-05 1.65138e-24)
(0.00920779 8.50172e-06 -5.25106e-24)
(0.00921438 6.51914e-06 1.72375e-23)
(0.00921971 4.55881e-06 -2.2878e-23)
(0.00922382 2.63126e-06 2.2464e-23)
(0.00922676 7.46429e-07 -9.5205e-24)
(0.00922858 -1.09386e-06 2.16884e-24)
(0.00922931 -2.87812e-06 3.08914e-26)
(0.00922901 -4.59495e-06 -1.69322e-24)
(0.00922771 -6.24066e-06 5.65924e-25)
(0.00922545 -7.81067e-06 -1.28472e-24)
(0.0092223 -9.29869e-06 -1.66446e-25)
(0.00921825 -1.06975e-05 8.29569e-26)
(0.00769598 9.97426e-06 -9.24577e-25)
(0.00770511 8.5349e-06 2.36548e-25)
(0.00771301 7.08696e-06 5.15249e-25)
(0.00771963 5.62559e-06 -2.3958e-24)
(0.00772504 4.17243e-06 -1.0842e-24)
(0.00772928 2.73688e-06 9.37093e-24)
(0.00773238 1.32675e-06 -5.51174e-24)
(0.0077344 -4.90425e-08 7.91061e-25)
(0.00773536 -1.39309e-06 -7.65621e-25)
(0.00773532 -2.69149e-06 -8.26109e-25)
(0.0077343 -3.93875e-06 -2.38532e-25)
(0.00773235 -5.13102e-06 1.5626e-24)
(0.00772952 -6.2644e-06 3.84999e-25)
(0.00772584 -7.33385e-06 -9.20319e-25)
(0.00772135 -8.33388e-06 -1.38357e-25)
(0.00633172 6.60085e-06 -3.36086e-25)
(0.00633924 5.58667e-06 -1.11464e-25)
(0.00634567 4.56916e-06 -5.42476e-24)
(0.00635098 3.54311e-06 1.43233e-24)
(0.00635521 2.52613e-06 -3.91419e-24)
(0.00635839 1.52201e-06 2.73084e-24)
(0.00636056 5.3723e-07 5.18634e-24)
(0.00636175 -4.22106e-07 3.89415e-24)
(0.00636199 -1.35821e-06 -5.46163e-24)
(0.00636132 -2.261e-06 1.64657e-24)
(0.00635978 -3.12631e-06 1.39902e-24)
(0.0063574 -3.95102e-06 -1.9963e-24)
(0.00635423 -4.73231e-06 1.06343e-24)
(0.0063503 -5.46623e-06 -7.27038e-26)
(0.00634566 -6.14877e-06 2.59492e-25)
(0.00508294 4.13803e-06 -1.31562e-24)
(0.00508889 3.45952e-06 -1.80428e-24)
(0.00509393 2.78332e-06 -3.29929e-25)
(0.00509801 2.10318e-06 4.48989e-24)
(0.00510116 1.43148e-06 -3.18186e-24)
(0.00510341 7.67935e-07 -6.20488e-25)
(0.00510478 1.1911e-07 5.13042e-24)
(0.00510531 -5.12701e-07 1.47906e-26)
(0.00510502 -1.12896e-06 -1.03994e-24)
(0.00510395 -1.72219e-06 -3.80276e-24)
(0.00510212 -2.28955e-06 4.27848e-25)
(0.00509957 -2.82879e-06 2.60158e-24)
(0.00509633 -3.33807e-06 -3.34588e-25)
(0.00509245 -3.81436e-06 -3.47378e-25)
(0.00508796 -4.25471e-06 2.27923e-25)
(0.00394433 2.41171e-06 -2.87357e-25)
(0.00394885 1.98729e-06 1.69042e-26)
(0.00395262 1.57072e-06 2.15204e-24)
(0.00395561 1.15362e-06 1.44255e-24)
(0.00395783 7.43138e-07 -9.91777e-25)
(0.00395932 3.3709e-07 -2.45867e-24)
(0.00396008 -5.86492e-08 9.96284e-25)
(0.00396015 -4.45237e-07 -4.18025e-24)
(0.00395954 -8.20557e-07 3.21956e-24)
(0.00395828 -1.18255e-06 1.65048e-24)
(0.0039564 -1.52794e-06 -1.36875e-26)
(0.00395393 -1.85538e-06 -1.79361e-24)
(0.0039509 -2.1637e-06 3.21536e-25)
(0.00394734 -2.45063e-06 -2.38504e-25)
(0.00394329 -2.71387e-06 1.17236e-25)
(0.00290983 1.25742e-06 -5.28734e-25)
(0.00291307 1.01351e-06 1.06539e-26)
(0.00291573 7.8251e-07 1.72425e-24)
(0.00291778 5.53519e-07 -1.07798e-24)
(0.00291925 3.29514e-07 4.44058e-24)
(0.00292014 1.09413e-07 -8.09135e-24)
(0.00292047 -1.09366e-07 6.54549e-24)
(0.00292027 -3.16998e-07 -5.45992e-24)
(0.00291955 -5.24356e-07 3.94719e-24)
(0.00291831 -7.20644e-07 -2.52725e-24)
(0.0029166 -9.08048e-07 8.6811e-25)
(0.00291443 -1.08523e-06 1.25224e-25)
(0.00291183 -1.25127e-06 1.95267e-25)
(0.00290882 -1.4045e-06 -2.39644e-25)
(0.00290543 -1.54304e-06 4.84331e-26)
(0.00197286 5.36821e-07 8.01733e-25)
(0.00197497 4.09049e-07 8.66923e-25)
(0.00197668 2.98768e-07 -3.70585e-24)
(0.00197795 1.92406e-07 2.711e-24)
(0.00197882 9.03006e-08 -2.6338e-26)
(0.00197928 -5.90541e-09 6.9864e-25)
(0.00197935 -1.07102e-07 -8.52518e-25)
(0.00197905 -2.01637e-07 -1.78174e-24)
(0.00197837 -2.92716e-07 1.7703e-24)
(0.00197734 -3.78659e-07 1.83309e-25)
(0.00197596 -4.59682e-07 -1.40483e-24)
(0.00197427 -5.34999e-07 5.04213e-25)
(0.00197227 -6.05323e-07 2.96103e-25)
(0.00196999 -6.6982e-07 -3.53156e-26)
(0.00196744 -7.26921e-07 -3.25564e-26)
(0.00112656 1.58217e-07 -8.08475e-25)
(0.00112769 1.11404e-07 2.47258e-24)
(0.00112859 8.10076e-08 1.47542e-24)
(0.00112923 5.13652e-08 -2.65532e-24)
(0.00112964 2.2133e-08 -3.11176e-25)
(0.00112981 -5.39929e-09 -2.75836e-25)
(0.00112975 -3.71009e-08 8.41172e-25)
(0.00112948 -6.62432e-08 -1.42561e-24)
(0.00112898 -9.43312e-08 1.93671e-24)
(0.00112828 -1.21329e-07 -9.47931e-25)
(0.00112737 -1.4544e-07 -6.1196e-25)
(0.00112628 -1.65217e-07 3.68153e-25)
(0.00112501 -1.86731e-07 -4.29352e-25)
(0.00112357 -2.10215e-07 4.27449e-25)
(0.00112198 -2.34357e-07 -7.05284e-26)
(0.000364035 5.92401e-08 -5.76813e-27)
(0.000364308 1.13639e-07 4.79976e-25)
(0.000364514 1.58208e-07 5.49223e-25)
(0.000364644 1.87411e-07 -8.60617e-25)
(0.000364705 2.03236e-07 1.78865e-24)
(0.000364695 2.07744e-07 -1.94195e-24)
(0.000364613 2.02557e-07 1.27377e-25)
(0.000364462 1.89896e-07 1.06895e-24)
(0.000364243 1.70722e-07 -1.47742e-24)
(0.000363958 1.46394e-07 -2.65314e-25)
(0.000363609 1.19174e-07 1.01225e-24)
(0.000363199 9.08698e-08 -4.45442e-25)
(0.000362732 5.78269e-08 -1.61693e-25)
(0.000362212 2.03571e-08 1.34651e-25)
(0.000361643 -2.0437e-08 -5.83318e-27)
(0.000910491 -0.000239405 8.03251e-26)
(0.00104327 -0.000159359 2.0448e-24)
(0.00126693 -7.73279e-05 -5.86206e-24)
(0.00149582 -1.1352e-05 8.48677e-24)
(0.00171604 4.0222e-05 -3.18308e-24)
(0.00193239 7.81663e-05 -3.03914e-24)
(0.0021448 0.000104957 3.4449e-24)
(0.00235384 0.000122644 -6.78391e-24)
(0.00256023 0.000132953 4.44055e-25)
(0.00276457 0.000137371 4.26038e-24)
(0.00296741 0.000137179 -8.10187e-25)
(0.00316926 0.000133515 8.73741e-25)
(0.00337067 0.000127437 -8.57234e-26)
(0.00357224 0.00011999 5.40732e-25)
(0.00377481 0.000112259 -1.98417e-24)
(0.00397947 0.000105442 1.08526e-24)
(0.00418797 0.000100842 -3.34453e-25)
(0.00440272 9.98899e-05 2.621e-26)
(0.00462762 0.000103723 7.75903e-25)
(0.00486744 0.000112893 -4.84809e-25)
(0.00512872 0.000125615 5.94952e-26)
(0.00541646 0.00013698 -5.20199e-26)
(0.00570865 0.0001358 9.93183e-26)
(0.00596818 0.000114752 3.84226e-25)
(0.00618217 7.46463e-05 -6.89544e-25)
(0.00635044 1.8326e-05 -4.62999e-25)
(0.00647463 -5.11251e-05 2.5886e-26)
(0.00655701 -0.000131079 1.12517e-24)
(0.00659934 -0.000219057 1.42511e-24)
(0.00660261 -0.000312221 -2.761e-24)
(0.00656714 -0.000406892 1.88026e-24)
(0.00649304 -0.000498315 -1.32748e-24)
(0.00638051 -0.000580648 1.52502e-25)
(0.00623019 -0.00064709 -1.17731e-24)
(0.0060432 -0.000690049 1.1344e-24)
(0.00582117 -0.000701179 7.50792e-24)
(0.00556607 -0.000671163 -2.067e-24)
(0.00528017 -0.000589 1.92917e-24)
(0.00496617 -0.0004406 1.03607e-24)
(0.00462779 -0.000207158 -1.10856e-23)
(0.00426882 0.000133521 -1.35351e-25)
(0.0038944 0.000595458 4.67844e-24)
(0.0034934 0.00114926 1.49881e-24)
(0.00308376 0.00167354 -6.56485e-24)
(0.002852 0.00180078 -3.26283e-25)
(0.00171468 -0.000319726 -2.35356e-24)
(0.00177025 -0.000274351 -3.29285e-24)
(0.00190858 -0.000195395 6.91839e-24)
(0.00208251 -0.000122302 3.19151e-24)
(0.00226764 -6.05045e-05 -1.11555e-23)
(0.00245923 -1.21219e-05 1.1864e-23)
(0.00265316 2.42557e-05 -4.2473e-24)
(0.00284761 5.05119e-05 3.35703e-24)
(0.00304193 6.84128e-05 -4.43939e-24)
(0.00323594 7.95534e-05 5.14247e-26)
(0.00342968 8.53218e-05 -2.34231e-24)
(0.00362335 8.69499e-05 4.64136e-24)
(0.00381725 8.55702e-05 -2.56262e-24)
(0.00401184 8.22791e-05 -2.29244e-24)
(0.00420779 7.81957e-05 -1.51249e-24)
(0.00440603 7.45266e-05 2.90572e-24)
(0.00460813 7.25651e-05 -3.41777e-25)
(0.00481625 7.37015e-05 1.49845e-24)
(0.00503396 7.90364e-05 2.3182e-25)
(0.00526563 8.91092e-05 -4.41892e-25)
(0.0055174 0.000102245 -1.82847e-25)
(0.00579405 0.000113879 -1.10225e-25)
(0.00607495 0.000113393 5.3761e-25)
(0.00632512 9.39643e-05 6.58993e-25)
(0.00653233 5.64543e-05 -5.92338e-25)
(0.00669626 3.5815e-06 -2.82845e-24)
(0.00681819 -6.16439e-05 3.76901e-24)
(0.00690006 -0.000136562 -2.56324e-24)
(0.00694335 -0.000218578 8.56013e-25)
(0.00694898 -0.000304712 -4.05402e-25)
(0.00691733 -0.000391175 2.64006e-24)
(0.00684871 -0.000473165 -2.53359e-24)
(0.00674367 -0.000544855 -1.98303e-25)
(0.0066033 -0.000599521 6.08933e-24)
(0.00642938 -0.000629674 -1.04518e-23)
(0.00622443 -0.00062709 2.84713e-24)
(0.00599175 -0.000582618 1.33669e-23)
(0.00573561 -0.000485576 -3.67653e-24)
(0.00546188 -0.000322587 -1.07336e-23)
(0.00517957 -7.60695e-05 -6.46601e-24)
(0.00490229 0.000274791 1.47464e-23)
(0.00465296 0.00074448 -1.41895e-23)
(0.00445562 0.00130372 -3.11788e-24)
(0.00435053 0.00182016 9.26164e-24)
(0.0043808 0.00188927 2.94661e-24)
(0.00266472 -0.000327965 -2.67433e-26)
(0.0026731 -0.000322872 -3.77132e-24)
(0.00273227 -0.000275683 7.32696e-24)
(0.00284186 -0.000212889 6.12613e-24)
(0.00297791 -0.000151573 -1.00245e-23)
(0.00313167 -9.87334e-05 2.08332e-25)
(0.00329604 -5.60114e-05 9.58523e-25)
(0.00346672 -2.294e-05 1.03368e-23)
(0.00364136 1.62515e-06 -1.22395e-23)
(0.0038186 1.90238e-05 7.50337e-24)
(0.00399773 3.05542e-05 2.25095e-24)
(0.00417839 3.7429e-05 -1.24437e-23)
(0.00436055 4.07898e-05 4.49195e-24)
(0.00454436 4.17475e-05 1.78313e-24)
(0.00473025 4.14308e-05 -3.69202e-24)
(0.00491894 4.10397e-05 5.95995e-24)
(0.00511178 4.18459e-05 -4.17982e-24)
(0.0053106 4.51932e-05 -7.21006e-26)
(0.00551863 5.2141e-05 3.24347e-25)
(0.00573977 6.32114e-05 3.41911e-25)
(0.00597973 7.68402e-05 4.43994e-26)
(0.00624296 8.88048e-05 1.94056e-25)
(0.00651034 8.90549e-05 -5.42838e-25)
(0.00674916 7.12796e-05 1.61814e-24)
(0.0069479 3.64103e-05 -2.55285e-24)
(0.00710608 -1.29453e-05 1.46809e-24)
(0.00722463 -7.38398e-05 -3.28371e-24)
(0.00730509 -0.00014358 4.40423e-24)
(0.00734871 -0.000219453 -3.69605e-24)
(0.0073563 -0.000298341 5.56386e-25)
(0.00732832 -0.00037635 7.76035e-25)
(0.00726531 -0.000448642 3.00837e-24)
(0.00716819 -0.000509438 -7.14433e-25)
(0.00703854 -0.000552145 3.16604e-24)
(0.00687886 -0.000569497 -9.305e-24)
(0.0066926 -0.0005536 1.65224e-23)
(0.00648445 -0.000495833 -1.14306e-23)
(0.00626069 -0.000386483 1.71289e-23)
(0.00603012 -0.000214098 -3.28145e-23)
(0.00580617 3.5233e-05 1.25202e-23)
(0.00560933 0.000376122 4.35961e-24)
(0.0054714 0.000814755 6.82017e-24)
(0.0054274 0.00131509 -8.47336e-24)
(0.00550051 0.00174702 2.38678e-24)
(0.00565986 0.00179177 -1.44092e-24)
(0.00374338 -0.000311596 -9.97142e-25)
(0.00372536 -0.000331509 -1.51841e-24)
(0.00373529 -0.000313273 -6.48165e-24)
(0.00378306 -0.000273295 1.79555e-24)
(0.00386561 -0.000222714 1.19096e-24)
(0.00397306 -0.000173203 5.10665e-24)
(0.00409847 -0.000129386 -1.06446e-23)
(0.00423641 -9.29132e-05 4.07368e-24)
(0.00438322 -6.38658e-05 1.34892e-23)
(0.00453643 -4.15939e-05 -3.59191e-24)
(0.00469447 -2.51739e-05 -3.35692e-24)
(0.00485636 -1.35923e-05 -5.32736e-25)
(0.00502156 -5.81276e-06 1.74018e-24)
(0.00518986 -7.82932e-07 -3.39499e-24)
(0.00536139 2.5867e-06 7.86196e-25)
(0.00553659 5.45625e-06 -2.73047e-25)
(0.00571651 9.05217e-06 -1.61021e-24)
(0.00590266 1.46542e-05 6.24966e-25)
(0.00609787 2.3268e-05 2.78561e-24)
(0.00630552 3.53889e-05 -3.26974e-25)
(0.00653082 4.95568e-05 -6.21589e-25)
(0.00677783 6.18895e-05 -1.70897e-25)
(0.00702901 6.29051e-05 -9.57234e-25)
(0.00725412 4.68206e-05 -5.64237e-26)
(0.00744235 1.46497e-05 -2.26611e-24)
(0.00759305 -3.10979e-05 3.91566e-24)
(0.00770675 -8.75318e-05 -3.28379e-24)
(0.00778462 -0.000151923 6.23561e-24)
(0.00782767 -0.000221447 -5.07873e-24)
(0.00783659 -0.000292862 1.28583e-24)
(0.00781195 -0.000362196 1.73388e-24)
(0.00775453 -0.000424616 -1.87696e-25)
(0.00766561 -0.000474459 -3.01957e-25)
(0.00754735 -0.000505372 -1.09209e-24)
(0.00740289 -0.000510478 1.36703e-24)
(0.00723666 -0.000482483 -5.14074e-24)
(0.00705458 -0.000413721 2.42598e-23)
(0.00686462 -0.000296102 -1.28698e-23)
(0.00667773 -0.000121106 -4.41014e-25)
(0.00650961 0.000119927 -2.91442e-23)
(0.00638266 0.000433295 2.20887e-23)
(0.0063276 0.00081515 -8.01491e-24)
(0.00637476 0.00122819 1.97973e-24)
(0.00652976 0.00157153 9.96387e-24)
(0.00674627 0.00165223 -2.38258e-24)
(0.00494575 -0.000285706 -4.12015e-24)