/*--------------------------------*- C++ -*----------------------------------*\
| =========                 |                                                 |
| \\      /  F ield         | OpenFOAM: The Open Source CFD Toolbox           |
|  \\    /   O peration     | Version:  2312                                  |
|   \\  /    A nd           | Website:  www.openfoam.com                      |
|    \\/     M anipulation  |                                                 |
\*---------------------------------------------------------------------------*/
FoamFile
{
    version     2.0;
    format      ascii;
    arch        "LSB;label=32;scalar=64";
    class       volScalarField;
    location    "144";
    object      p;
}
// * * * * * * * * * * * * * * * * * * * * * * * * * * * * * * * * * * * * * //

dimensions      [0 2 -2 0 0 0 0];

internalField   nonuniform List<scalar> 
4800
(
1.81043e-13
-1.80274e-06
-3.29284e-06
-4.53969e-06
-5.59323e-06
-6.49149e-06
-7.26387e-06
-7.93278e-06
-8.52265e-06
-9.04557e-06
-9.51046e-06
-9.92337e-06
-1.02804e-05
-1.08111e-05
-1.2467e-05
2.06541e-08
-1.77787e-06
-3.26519e-06
-4.51054e-06
-5.56372e-06
-6.46286e-06
-7.23791e-06
-7.91126e-06
-8.50787e-06
-9.04118e-06
-9.5253e-06
-9.98013e-06
-1.04232e-05
-1.09629e-05
-1.1851e-05
4.27472e-08
-1.75124e-06
-3.23569e-06
-4.47957e-06
-5.53254e-06
-6.43259e-06
-7.21009e-06
-7.8859e-06
-8.48695e-06
-9.02812e-06
-9.52364e-06
-9.99448e-06
-1.04527e-05
-1.091e-05
-1.13487e-05
6.55823e-08
-1.72325e-06
-3.20433e-06
-4.44627e-06
-5.49849e-06
-6.39874e-06
-7.17754e-06
-7.85523e-06
-8.45681e-06
-8.99956e-06
-9.49382e-06
-9.95124e-06
-1.03681e-05
-1.0716e-05
-1.0929e-05
9.09262e-08
-1.69179e-06
-3.16869e-06
-4.40794e-06
-5.4586e-06
-6.35802e-06
-7.13622e-06
-7.81435e-06
-8.41244e-06
-8.94823e-06
-9.4279e-06
-9.85181e-06
-1.0205e-05
-1.04515e-05
-1.05382e-05
1.20244e-07
-1.65524e-06
-3.12699e-06
-4.36257e-06
-5.41051e-06
-6.30759e-06
-7.08285e-06
-7.75724e-06
-8.34745e-06
-8.86736e-06
-9.3196e-06
-9.69738e-06
-9.98291e-06
-1.01487e-05
-1.01681e-05
1.55515e-07
-1.61157e-06
-3.07699e-06
-4.30756e-06
-5.35115e-06
-6.24364e-06
-7.01278e-06
-7.67825e-06
-8.25428e-06
-8.74997e-06
-9.1652e-06
-9.49165e-06
-9.71576e-06
-9.82411e-06
-9.81089e-06
2.0007e-07
-1.55738e-06
-3.01503e-06
-4.23884e-06
-5.27582e-06
-6.16067e-06
-6.91956e-06
-7.57052e-06
-8.12563e-06
-8.59002e-06
-8.96364e-06
-9.24071e-06
-9.41521e-06
-9.48616e-06
-9.45974e-06
2.58936e-07
-1.4875e-06
-2.93559e-06
-4.15036e-06
-5.17779e-06
-6.05124e-06
-6.79513e-06
-7.42583e-06
-7.95324e-06
-8.3834e-06
-8.71589e-06
-8.95053e-06
-9.08886e-06
-9.13816e-06
-9.10977e-06
3.38611e-07
-1.39494e-06
-2.83109e-06
-4.0339e-06
-5.0482e-06
-5.90597e-06
-6.63006e-06
-7.23583e-06
-7.7329e-06
-8.12753e-06
-8.42337e-06
-8.62513e-06
-8.73999e-06
-8.77952e-06
-8.7564e-06
4.46209e-07
-1.27143e-06
-2.69224e-06
-3.87935e-06
-4.87636e-06
-5.71403e-06
-6.41415e-06
-6.99191e-06
-7.45782e-06
-7.82016e-06
-8.08652e-06
-8.26565e-06
-8.36802e-06
-8.40676e-06
-8.39401e-06
5.88407e-07
-1.10837e-06
-2.50893e-06
-3.67554e-06
-4.65063e-06
-5.46407e-06
-6.1373e-06
-6.68621e-06
-7.12311e-06
-7.4589e-06
-7.70416e-06
-7.87028e-06
-7.96919e-06
-8.01392e-06
-8.01538e-06
7.7074e-07
-8.97431e-07
-2.27094e-06
-3.41113e-06
-4.35944e-06
-5.14523e-06
-5.7903e-06
-6.31181e-06
-6.7241e-06
-7.0403e-06
-7.27291e-06
-7.43456e-06
-7.53727e-06
-7.59306e-06
-7.61162e-06
9.96844e-07
-6.31138e-07
-1.96831e-06
-3.07496e-06
-3.99157e-06
-4.74727e-06
-5.36453e-06
-5.86186e-06
-6.25519e-06
-6.559e-06
-6.78665e-06
-6.95086e-06
-7.06305e-06
-7.13405e-06
-7.1722e-06
1.26817e-06
-3.03941e-07
-1.59241e-06
-2.65681e-06
-3.53656e-06
-4.26034e-06
-4.85111e-06
-5.32822e-06
-5.70835e-06
-6.00634e-06
-6.23547e-06
-6.40784e-06
-6.53392e-06
-6.62321e-06
-6.68296e-06
1.58479e-06
8.68081e-08
-1.13788e-06
-2.14928e-06
-2.98598e-06
-3.67571e-06
-4.24115e-06
-4.70153e-06
-5.07325e-06
-5.3706e-06
-5.60606e-06
-5.79069e-06
-5.93385e-06
-6.04379e-06
-6.12686e-06
1.94388e-06
5.42265e-07
-6.02706e-07
-1.54927e-06
-2.33521e-06
-2.98733e-06
-3.52717e-06
-3.97268e-06
-4.33893e-06
-4.6389e-06
-4.88376e-06
-5.08326e-06
-5.2456e-06
-5.37789e-06
-5.48566e-06
2.33355e-06
1.05897e-06
1.10516e-08
-8.59061e-07
-1.58541e-06
-2.19429e-06
-2.70589e-06
-3.13586e-06
-3.49701e-06
-3.80037e-06
-4.05551e-06
-4.27072e-06
-4.45299e-06
-4.60837e-06
-4.74165e-06
2.7309e-06
1.61898e-06
6.86295e-07
-9.40461e-08
-7.50391e-07
-1.30826e-06
-1.78601e-06
-2.19647e-06
-2.54962e-06
-2.85415e-06
-3.11768e-06
-3.34696e-06
-3.54774e-06
-3.72505e-06
-3.88303e-06
3.12188e-06
2.18747e-06
1.39354e-06
7.19788e-07
1.43792e-07
-3.5537e-07
-7.92607e-07
-1.17779e-06
-1.51819e-06
-1.82001e-06
-2.0888e-06
-2.32962e-06
-2.54694e-06
-2.74468e-06
-2.92633e-06
3.47678e-06
2.71861e-06
2.06818e-06
1.50501e-06
1.01196e-06
5.74604e-07
1.82301e-07
-1.7212e-07
-4.93769e-07
-7.86851e-07
-1.05521e-06
-1.30243e-06
-1.53176e-06
-1.74612e-06
-1.94816e-06
3.75844e-06
3.1499e-06
2.61837e-06
2.14802e-06
1.7265e-06
1.34408e-06
9.93536e-07
6.69874e-07
3.69494e-07
8.94627e-08
-1.7294e-07
-4.2025e-07
-6.54836e-07
-8.78797e-07
-1.09413e-06
3.98262e-06
3.48402e-06
3.03927e-06
2.63698e-06
2.26834e-06
1.92676e-06
1.60743e-06
1.30688e-06
1.02255e-06
7.52251e-07
4.93987e-07
2.45914e-07
6.31036e-09
-2.26328e-07
-4.53444e-07
4.15415e-06
3.73417e-06
3.35123e-06
2.9976e-06
2.66718e-06
2.35554e-06
2.0594e-06
1.77626e-06
1.50412e-06
1.24126e-06
9.86142e-07
7.37378e-07
4.93698e-07
2.53999e-07
1.71799e-08
4.28524e-06
3.92029e-06
3.58095e-06
3.26199e-06
2.95915e-06
2.66934e-06
2.39014e-06
2.11956e-06
1.85597e-06
1.59797e-06
1.34432e-06
1.09398e-06
8.4599e-07
5.99514e-07
3.53703e-07
4.38518e-06
4.05824e-06
3.74932e-06
3.45472e-06
3.17126e-06
2.89663e-06
2.62891e-06
2.36645e-06
2.10788e-06
1.85206e-06
1.598e-06
1.34491e-06
1.09203e-06
8.38726e-07
5.84338e-07
4.46033e-06
4.1595e-06
3.87157e-06
3.59369e-06
3.32334e-06
3.05871e-06
2.79819e-06
2.5404e-06
2.28417e-06
2.02856e-06
1.77278e-06
1.51618e-06
1.25812e-06
9.9812e-07
7.35626e-07
4.51597e-06
4.23313e-06
3.95959e-06
3.69296e-06
3.43124e-06
3.17294e-06
2.91666e-06
2.66119e-06
2.40555e-06
2.14893e-06
1.89065e-06
1.63015e-06
1.3669e-06
1.10048e-06
8.30438e-07
4.55669e-06
4.28645e-06
4.02279e-06
3.76373e-06
3.50766e-06
3.25326e-06
2.99928e-06
2.74466e-06
2.48853e-06
2.23018e-06
1.96901e-06
1.70451e-06
1.43624e-06
1.16384e-06
8.86919e-07
4.58645e-06
4.32527e-06
4.06854e-06
3.81466e-06
3.56231e-06
3.31028e-06
3.0574e-06
2.80273e-06
2.5455e-06
2.28508e-06
2.0209e-06
1.75254e-06
1.47957e-06
1.20171e-06
9.18608e-07
4.60846e-06
4.35406e-06
4.10237e-06
3.85219e-06
3.60237e-06
3.35175e-06
3.09926e-06
2.84406e-06
2.58545e-06
2.32286e-06
2.05576e-06
1.78377e-06
1.50652e-06
1.22375e-06
9.35154e-07
4.62522e-06
4.37612e-06
4.12827e-06
3.88087e-06
3.63285e-06
3.38307e-06
3.13059e-06
2.87464e-06
2.61459e-06
2.34988e-06
2.08006e-06
1.80477e-06
1.52366e-06
1.23651e-06
9.43053e-07
4.63851e-06
4.39373e-06
4.14897e-06
3.90379e-06
3.6571e-06
3.40786e-06
3.15522e-06
2.89847e-06
2.63701e-06
2.37034e-06
2.09804e-06
1.81977e-06
1.53521e-06
1.24419e-06
9.46447e-07
4.64951e-06
4.40839e-06
4.16626e-06
3.92293e-06
3.67731e-06
3.42845e-06
3.17558e-06
2.91805e-06
2.65529e-06
2.38685e-06
2.11231e-06
1.83139e-06
1.54378e-06
1.24931e-06
9.47786e-07
4.65897e-06
4.42105e-06
4.18122e-06
3.93949e-06
3.69478e-06
3.44623e-06
3.19313e-06
2.93489e-06
2.67096e-06
2.40093e-06
2.12442e-06
1.84113e-06
1.55081e-06
1.2533e-06
9.48423e-07
4.66733e-06
4.43226e-06
4.19448e-06
3.95418e-06
3.71026e-06
3.46199e-06
3.2087e-06
2.94982e-06
2.68487e-06
2.41344e-06
2.13517e-06
1.8498e-06
1.55709e-06
1.25688e-06
9.49031e-07
4.67482e-06
4.44231e-06
4.20638e-06
3.96734e-06
3.72414e-06
3.47613e-06
3.22269e-06
2.96327e-06
2.69742e-06
2.42476e-06
2.14496e-06
1.85776e-06
1.56294e-06
1.26035e-06
9.49878e-07
4.68168e-06
4.45148e-06
4.21723e-06
3.97933e-06
3.73681e-06
3.48905e-06
3.23548e-06
2.97559e-06
2.70896e-06
2.43522e-06
2.15406e-06
1.86524e-06
1.56855e-06
1.26386e-06
9.51055e-07
4.68833e-06
4.46037e-06
4.22774e-06
3.99093e-06
3.74906e-06
3.50156e-06
3.2479e-06
2.9876e-06
2.72024e-06
2.4455e-06
2.16307e-06
1.87274e-06
1.5743e-06
1.26765e-06
9.52647e-07
4.69455e-06
4.46876e-06
4.23771e-06
4.002e-06
3.76082e-06
3.51363e-06
3.25993e-06
2.99927e-06
2.73127e-06
2.4556e-06
2.17199e-06
1.88022e-06
1.58011e-06
1.27157e-06
9.54485e-07
-1.3916e-05
-1.1717e-05
-1.03528e-05
-9.4311e-06
-8.68264e-06
-8.09667e-06
-7.6306e-06
-7.25762e-06
-6.96189e-06
-6.73265e-06
-6.56291e-06
-6.44859e-06
-6.38784e-06
-6.38211e-06
-6.43687e-06
-6.56096e-06
-6.7691e-06
-7.08728e-06
-7.54808e-06
-8.19224e-06
-9.0596e-06
-1.01626e-05
-1.13401e-05
-1.22885e-05
-1.28426e-05
-1.29511e-05
-1.261e-05
-1.18342e-05
-1.06474e-05
-9.07985e-06
-7.1661e-06
-4.94605e-06
-2.46535e-06
2.24349e-07
3.06603e-06
5.99843e-06
8.95692e-06
1.18734e-05
1.46734e-05
1.72697e-05
1.95432e-05
2.13338e-05
2.22827e-05
2.20697e-05
1.95259e-05
-1.22815e-05
-1.11585e-05
-1.01312e-05
-9.31182e-06
-8.60969e-06
-8.04001e-06
-7.58014e-06
-7.21001e-06
-6.91629e-06
-6.68916e-06
-6.52201e-06
-6.41091e-06
-6.35406e-06
-6.353e-06
-6.41332e-06
-6.54366e-06
-6.75859e-06
-7.08401e-06
-7.55178e-06
-8.20136e-06
-9.07088e-06
-1.01707e-05
-1.13397e-05
-1.22778e-05
-1.2822e-05
-1.29223e-05
-1.25745e-05
-1.1794e-05
-1.06044e-05
-9.03622e-06
-7.12511e-06
-4.91251e-06
-2.44608e-06
2.19993e-07
3.02543e-06
5.90452e-06
8.78619e-06
1.15925e-05
1.42333e-05
1.65937e-05
1.85041e-05
1.96962e-05
1.96442e-05
1.75659e-05
1.2449e-05
-1.14179e-05
-1.07158e-05
-9.90165e-06
-9.17264e-06
-8.52179e-06
-7.97492e-06
-7.52476e-06
-7.15934e-06
-6.86858e-06
-6.6441e-06
-6.4799e-06
-6.37235e-06
-6.31978e-06
-6.32386e-06
-6.39031e-06
-6.52753e-06
-6.74992e-06
-7.08326e-06
-7.55857e-06
-8.21374e-06
-9.08495e-06
-1.01801e-05
-1.13381e-05
-1.22631e-05
-1.27951e-05
-1.28854e-05
-1.25303e-05
-1.17452e-05
-1.05539e-05
-8.98745e-06
-7.08309e-06
-4.88419e-06
-2.44104e-06
1.88885e-07
2.94105e-06
5.74402e-06
8.51872e-06
1.11756e-05
1.36073e-05
1.5674e-05
1.71722e-05
1.77967e-05
1.70627e-05
1.44084e-05
9.70116e-06
-1.0854e-05
-1.03487e-05
-9.6944e-06
-9.03786e-06
-8.4361e-06
-7.91383e-06
-7.47409e-06
-7.11334e-06
-6.82502e-06
-6.60247e-06
-6.44054e-06
-6.33601e-06
-6.28735e-06
-6.29639e-06
-6.36902e-06
-6.51331e-06
-6.74343e-06
-7.08506e-06
-7.56822e-06
-8.22904e-06
-9.10147e-06
-1.01906e-05
-1.13353e-05
-1.22443e-05
-1.27611e-05
-1.28382e-05
-1.24731e-05
-1.16815e-05
-1.04874e-05
-8.92321e-06
-7.0279e-06
-4.84756e-06
-2.43591e-06
1.45423e-07
2.8267e-06
5.52981e-06
8.16696e-06
1.06372e-05
1.28189e-05
1.45579e-05
1.56469e-05
1.58132e-05
1.47193e-05
1.20923e-05
8.16256e-06
-1.04093e-05
-1.00196e-05
-9.48754e-06
-8.91508e-06
-8.36032e-06
-7.86263e-06
-7.43339e-06
-7.07693e-06
-6.79018e-06
-6.56847e-06
-6.40775e-06
-6.30535e-06
-6.25995e-06
-6.27358e-06
-6.35227e-06
-6.50365e-06
-6.74162e-06
-7.09173e-06
-7.58277e-06
-8.24882e-06
-9.12139e-06
-1.02023e-05
-1.13304e-05
-1.22202e-05
-1.27188e-05
-1.27804e-05
-1.24038e-05
-1.16052e-05
-1.04095e-05
-8.85049e-06
-6.96949e-06
-4.81585e-06
-2.44724e-06
6.99639e-08
2.66039e-06
5.23918e-06
7.71061e-06
9.96512e-06
1.18741e-05
1.32842e-05
1.4012e-05
1.38552e-05
1.26305e-05
1.02762e-05
7.051e-06
-1.00308e-05
-9.72106e-06
-9.2822e-06
-8.79158e-06
-8.29139e-06
-7.82028e-06
-7.40482e-06
-7.05381e-06
-6.76841e-06
-6.54664e-06
-6.38597e-06
-6.28461e-06
-6.24154e-06
-6.25908e-06
-6.34345e-06
-6.50167e-06
-6.74729e-06
-7.10574e-06
-7.60431e-06
-8.27464e-06
-9.14553e-06
-1.02151e-05
-1.13226e-05
-1.21891e-05
-1.26662e-05
-1.27099e-05
-1.23207e-05
-1.15157e-05
-1.03208e-05
-8.77167e-06
-6.91257e-06
-4.79642e-06
-2.48525e-06
-5.03994e-08
2.4273e-06
4.85718e-06
7.13799e-06
9.15665e-06
1.0787e-05
1.18911e-05
1.23268e-05
1.19693e-05
1.07526e-05
8.73163e-06
6.15284e-06
-9.68365e-06
-9.43532e-06
-9.07986e-06
-8.66022e-06
-8.2151e-06
-7.78198e-06
-7.38676e-06
-7.04491e-06
-6.76247e-06
-6.54081e-06
-6.37958e-06
-6.27831e-06
-6.23657e-06
-6.25712e-06
-6.3465e-06
-6.5109e-06
-6.76357e-06
-7.1298e-06
-7.635e-06
-8.30799e-06
-9.17457e-06
-1.02288e-05
-1.13104e-05
-1.21488e-05
-1.26005e-05
-1.26237e-05
-1.22208e-05
-1.14104e-05
-1.02199e-05
-8.68713e-06
-6.85957e-06
-4.7941e-06
-2.55722e-06
-2.24927e-07
2.11741e-06
4.37537e-06
6.44603e-06
8.21918e-06
9.58024e-06
1.04173e-05
1.06342e-05
1.01724e-05
9.03913e-06
7.33504e-06
5.26669e-06
-9.34865e-06
-9.14913e-06
-8.86365e-06
-8.5135e-06
-8.12833e-06
-7.73962e-06
-7.37303e-06
-7.04688e-06
-6.77163e-06
-6.55237e-06
-6.39139e-06
-6.29015e-06
-6.24918e-06
-6.27197e-06
-6.3656e-06
-6.53522e-06
-6.7939e-06
-7.16687e-06
-7.67716e-06
-8.35029e-06
-9.20891e-06
-1.02425e-05
-1.12918e-05
-1.20964e-05
-1.25183e-05
-1.25182e-05
-1.21011e-05
-1.12873e-05
-1.01062e-05
-8.59824e-06
-6.81429e-06
-4.81524e-06
-2.67172e-06
-4.63443e-07
1.72151e-06
3.78808e-06
5.6364e-06
7.1655e-06
8.27929e-06
8.89598e-06
8.96143e-06
8.46352e-06
7.44734e-06
6.02009e-06
4.34298e-06
-9.01679e-06
-8.85757e-06
-8.63067e-06
-8.34572e-06
-8.02205e-06
-7.68382e-06
-7.35423e-06
-7.05217e-06
-6.79094e-06
-6.5789e-06
-6.42117e-06
-6.32153e-06
-6.28184e-06
-6.3068e-06
-6.40424e-06
-6.57793e-06
-6.8413e-06
-7.21969e-06
-7.73277e-06
-8.40253e-06
-9.24838e-06
-1.02547e-05
-1.12641e-05
-1.20281e-05
-1.24157e-05
-1.23898e-05
-1.19587e-05
-1.1145e-05
-9.98029e-06
-8.50809e-06
-6.78255e-06
-4.86815e-06
-2.83875e-06
-7.7614e-07
1.23159e-06
3.0925e-06
4.71459e-06
6.01112e-06
6.90782e-06
7.3517e-06
7.32049e-06
6.83052e-06
5.94056e-06
4.74725e-06
3.37277e-06
-8.68255e-06
-8.5581e-06
-8.38091e-06
-8.15462e-06
-7.89062e-06
-7.60619e-06
-7.32044e-06
-7.05092e-06
-6.81196e-06
-6.61406e-06
-6.4648e-06
-6.37033e-06
-6.33402e-06
-6.36228e-06
-6.46391e-06
-6.64053e-06
-6.9073e-06
-7.28962e-06
-7.80263e-06
-8.46475e-06
-9.29178e-06
-1.02629e-05
-1.12235e-05
-1.19397e-05
-1.22882e-05
-1.22349e-05
-1.17914e-05
-1.09832e-05
-9.84454e-06
-8.42186e-06
-6.77221e-06
-4.96273e-06
-3.06902e-06
-1.17253e-06
6.41879e-07
2.28924e-06
3.68923e-06
4.77205e-06
5.48492e-06
5.79847e-06
5.71193e-06
5.2554e-06
4.48775e-06
3.48953e-06
2.35233e-06
-8.34029e-06
-8.24722e-06
-8.11319e-06
-7.9391e-06
-7.73115e-06
-7.50099e-06
-7.26333e-06
-7.03323e-06
-6.8245e-06
-6.64849e-06
-6.51447e-06
-6.43051e-06
-6.40137e-06
-6.43549e-06
-6.54244e-06
-6.72099e-06
-6.99062e-06
-7.37587e-06
-7.88514e-06
-8.53405e-06
-9.33539e-06
-1.02627e-05
-1.11649e-05
-1.18261e-05
-1.21316e-05
-1.20505e-05
-1.15985e-05
-1.08039e-05
-9.7038e-06
-8.34737e-06
-6.7934e-06
-5.11026e-06
-3.37325e-06
-1.6606e-06
-5.05868e-08
1.38199e-06
2.5707e-06
3.46282e-06
4.02408e-06
4.24226e-06
4.12884e-06
3.71804e-06
3.06245e-06
2.22636e-06
1.27825e-06
-7.98292e-06
-7.91939e-06
-7.82408e-06
-7.69681e-06
-7.54078e-06
-7.36352e-06
-7.17581e-06
-6.98982e-06
-6.81788e-06
-6.67109e-06
-6.55952e-06
-6.49233e-06
-6.47553e-06
-6.52013e-06
-6.6327e-06
-6.81241e-06
-7.08685e-06
-7.47422e-06
-7.97559e-06
-8.60523e-06
-9.37345e-06
-1.02478e-05
-1.10825e-05
-1.16821e-05
-1.19423e-05
-1.18359e-05
-1.13822e-05
-1.06122e-05
-9.56621e-06
-8.29549e-06
-6.85848e-06
-5.32281e-06
-3.76127e-06
-2.24599e-06
-8.45698e-07
3.76975e-07
1.36983e-06
2.09529e-06
2.5334e-06
2.68283e-06
2.56042e-06
2.19895e-06
1.64247e-06
9.41076e-07
1.45971e-07
-7.60158e-06
-7.56677e-06
-7.50728e-06
-7.42275e-06
-7.31478e-06
-7.18816e-06
-7.05054e-06
-6.91135e-06
-6.78101e-06
-6.66955e-06
-6.58716e-06
-6.54304e-06
-6.54439e-06
-6.60501e-06
-6.72368e-06
-6.90756e-06
-7.18841e-06
-7.5746e-06
-8.06481e-06
-8.66944e-06
-9.39732e-06
-1.02105e-05
-1.09702e-05
-1.15036e-05
-1.17187e-05
-1.15931e-05
-1.11484e-05
-1.04172e-05
-9.44367e-06
-8.28015e-06
-6.98139e-06
-5.61224e-06
-4.24107e-06
-2.93129e-06
-1.74014e-06
-7.17561e-07
9.72355e-08
6.78817e-07
1.01699e-06
1.11636e-06
9.94745e-07
6.80942e-07
2.09935e-07
-3.79842e-07
-1.04995e-06
-7.1856e-06
-7.17909e-06
-7.15357e-06
-7.10881e-06
-7.0456e-06
-6.96705e-06
-6.87855e-06
-6.78724e-06
-6.70152e-06
-6.63012e-06
-6.58236e-06
-6.56727e-06
-6.59278e-06
-6.67092e-06
-6.80292e-06
-6.99681e-06
-7.28169e-06
-7.66348e-06
-8.13752e-06
-8.71417e-06
-9.39592e-06
-1.01418e-05
-1.08228e-05
-1.12886e-05
-1.14625e-05
-1.13286e-05
-1.09076e-05
-1.02323e-05
-9.35164e-06
-8.31752e-06
-7.17622e-06
-5.98879e-06
-4.81768e-06
-3.71552e-06
-2.72751e-06
-1.89181e-06
-1.2369e-06
-7.79285e-07
-5.23165e-07
-4.61571e-07
-5.78161e-07
-8.49903e-07
-1.24913e-06
-1.74697e-06
-2.31462e-06
-6.72105e-06
-6.74305e-06
-6.7504e-06
-6.74318e-06
-6.72205e-06
-6.68911e-06
-6.64818e-06
-6.60463e-06
-6.56504e-06
-6.53674e-06
-6.52782e-06
-6.54646e-06
-6.60051e-06
-6.69943e-06
-6.85126e-06
-7.06068e-06
-7.3471e-06
-7.72106e-06
-8.179e-06
-8.72515e-06
-9.3567e-06
-1.00327e-05
-1.06366e-05
-1.10388e-05
-1.11801e-05
-1.10535e-05
-1.06743e-05
-1.00736e-05
-9.30878e-06
-8.42391e-06
-7.45453e-06
-6.45945e-06
-5.49254e-06
-4.59417e-06
-3.79872e-06
-3.13484e-06
-2.62279e-06
-2.27295e-06
-2.08622e-06
-2.05549e-06
-2.16751e-06
-2.40446e-06
-2.74509e-06
-3.16786e-06
-3.65158e-06
-6.19082e-06
-6.24175e-06
-6.28148e-06
-6.31044e-06
-6.3293e-06
-6.3397e-06
-6.34444e-06
-6.34767e-06
-6.35453e-06
-6.37089e-06
-6.40352e-06
-6.45953e-06
-6.54624e-06
-6.67226e-06
-6.84515e-06
-7.07123e-06
-7.36281e-06
-7.73005e-06
-8.17106e-06
-8.68554e-06
-9.26637e-06
-9.87496e-06
-1.04096e-05
-1.07588e-05
-1.08832e-05
-1.07843e-05
-1.0464e-05
-9.95979e-06
-9.33597e-06
-8.61277e-06
-7.82336e-06
-7.02625e-06
-6.26243e-06
-5.55921e-06
-4.94281e-06
-4.43523e-06
-4.05094e-06
-3.79639e-06
-3.6711e-06
-3.66901e-06
-3.77979e-06
-3.99011e-06
-4.28447e-06
-4.64733e-06
-5.06316e-06
-5.57659e-06
-5.657e-06
-5.72897e-06
-5.79317e-06
-5.85045e-06
-5.90221e-06
-5.95065e-06
-5.99889e-06
-6.05131e-06
-6.11275e-06
-6.18846e-06
-6.28431e-06
-6.40681e-06
-6.56312e-06
-6.76007e-06
-7.00441e-06
-7.30418e-06
-7.66708e-06
-8.09246e-06
-8.57751e-06
-9.1121e-06
-9.66365e-06
-1.01428e-05
-1.04562e-05
-1.05884e-05
-1.05357e-05
-1.02906e-05
-9.91956e-06
-9.44902e-06
-8.88583e-06
-8.28549e-06
-7.68906e-06
-7.12089e-06
-6.60049e-06
-6.1487e-06
-5.78281e-06
-5.51325e-06
-5.34417e-06
-5.27498e-06
-5.30145e-06
-5.41629e-06
-5.6098e-06
-5.87083e-06
-6.18809e-06
-6.55044e-06
-4.86029e-06
-4.97053e-06
-5.07449e-06
-5.17319e-06
-5.26779e-06
-5.35967e-06
-5.45032e-06
-5.54215e-06
-5.63836e-06
-5.74419e-06
-5.86343e-06
-6.00024e-06
-6.16007e-06
-6.34895e-06
-6.57287e-06
-6.83754e-06
-7.14868e-06
-7.51112e-06
-7.92528e-06
-8.38741e-06
-8.88566e-06
-9.39639e-06
-9.84145e-06
-1.01483e-05
-1.03119e-05
-1.03174e-05
-1.01872e-05
-9.96279e-06
-9.63691e-06
-9.24867e-06
-8.8426e-06
-8.44144e-06
-8.05777e-06
-7.70711e-06
-7.40686e-06
-7.17038e-06
-7.00518e-06
-6.91416e-06
-6.89724e-06
-6.95225e-06
-7.07491e-06
-7.25945e-06
-7.49901e-06
-7.78454e-06
-8.10684e-06
-4.02893e-06
-4.16853e-06
-4.30359e-06
-4.43513e-06
-4.56462e-06
-4.69393e-06
-4.82494e-06
-4.95987e-06
-5.09919e-06
-5.24833e-06
-5.41035e-06
-5.5884e-06
-5.78682e-06
-6.01053e-06
-6.26415e-06
-6.55232e-06
-6.87899e-06
-7.24739e-06
-7.65836e-06
-8.10758e-06
-8.58664e-06
-9.07586e-06
-9.51358e-06
-9.84737e-06
-1.00627e-05
-1.01599e-05
-1.01593e-05
-1.00654e-05
-9.90119e-06
-9.70169e-06
-9.48663e-06
-9.26657e-06
-9.05329e-06
-8.86099e-06
-8.70263e-06
-8.58741e-06
-8.52076e-06
-8.50533e-06
-8.54174e-06
-8.62917e-06
-8.76521e-06
-8.94676e-06
-9.17073e-06
-9.43211e-06
-9.72318e-06
-3.09849e-06
-3.26634e-06
-3.43125e-06
-3.59411e-06
-3.75608e-06
-3.91828e-06
-4.0828e-06
-4.25253e-06
-4.43271e-06
-4.62278e-06
-4.82451e-06
-5.04148e-06
-5.27767e-06
-5.53672e-06
-5.82199e-06
-6.13698e-06
-6.48478e-06
-6.86767e-06
-7.28651e-06
-7.73871e-06
-8.21825e-06
-8.71355e-06
-9.17517e-06
-9.55515e-06
-9.84855e-06
-1.00572e-05
-1.01805e-05
-1.02352e-05
-1.02468e-05
-1.02286e-05
-1.01875e-05
-1.01337e-05
-1.00793e-05
-1.00351e-05
-1.00094e-05
-1.00082e-05
-1.00359e-05
-1.00955e-05
-1.01887e-05
-1.03156e-05
-1.04754e-05
-1.06659e-05
-1.08828e-05
-1.11229e-05
-1.13869e-05
-2.14349e-06
-2.33661e-06
-2.52893e-06
-2.7215e-06
-2.9164e-06
-3.11508e-06
-3.31647e-06
-3.51872e-06
-3.73258e-06
-3.96002e-06
-4.20033e-06
-4.4554e-06
-4.72851e-06
-5.02266e-06
-5.34047e-06
-5.68473e-06
-6.05796e-06
-6.46214e-06
-6.89841e-06
-7.36575e-06
-7.86164e-06
-8.3797e-06
-8.88074e-06
-9.32465e-06
-9.70175e-06
-1.00104e-05
-1.02581e-05
-1.04589e-05
-1.06214e-05
-1.07503e-05
-1.08529e-05
-1.09392e-05
-1.10185e-05
-1.10976e-05
-1.11818e-05
-1.12758e-05
-1.13838e-05
-1.15083e-05
-1.16511e-05
-1.18131e-05
-1.19939e-05
-1.2194e-05
-1.24132e-05
-1.26514e-05
-1.29047e-05
-1.30571e-06
-1.51752e-06
-1.73045e-06
-1.94517e-06
-2.16237e-06
-2.38393e-06
-2.61467e-06
-2.8604e-06
-3.11316e-06
-3.37343e-06
-3.64629e-06
-3.93486e-06
-4.24088e-06
-4.56646e-06
-4.91408e-06
-5.28618e-06
-5.68501e-06
-6.11253e-06
-6.57016e-06
-7.05849e-06
-7.57684e-06
-8.1229e-06
-8.66442e-06
-9.16166e-06
-9.60507e-06
-9.99811e-06
-1.03456e-05
-1.06511e-05
-1.09184e-05
-1.11531e-05
-1.13628e-05
-1.15546e-05
-1.17342e-05
-1.19063e-05
-1.20751e-05
-1.22444e-05
-1.24173e-05
-1.25965e-05
-1.27839e-05
-1.29809e-05
-1.31887e-05
-1.34075e-05
-1.36375e-05
-1.38772e-05
-1.4127e-05
-6.78922e-07
-9.06393e-07
-1.13707e-06
-1.37209e-06
-1.61286e-06
-1.86061e-06
-2.11695e-06
-2.38288e-06
-2.65757e-06
-2.94259e-06
-3.24117e-06
-3.55538e-06
-3.88662e-06
-4.23677e-06
-4.60802e-06
-5.0025e-06
-5.42225e-06
-5.86917e-06
-6.345e-06
-6.85096e-06
-7.38765e-06
-7.95483e-06
-8.52391e-06
-9.05827e-06
-9.54989e-06
-1.00003e-05
-1.04104e-05
-1.0782e-05
-1.11196e-05
-1.14286e-05
-1.17141e-05
-1.19803e-05
-1.22312e-05
-1.24704e-05
-1.27012e-05
-1.29266e-05
-1.31491e-05
-1.3371e-05
-1.35941e-05
-1.38197e-05
-1.40489e-05
-1.42819e-05
-1.4519e-05
-1.47607e-05
-1.50069e-05
-2.20013e-07
-4.60908e-07
-7.0677e-07
-9.58307e-07
-1.21644e-06
-1.48246e-06
-1.75734e-06
-2.04135e-06
-2.3356e-06
-2.64202e-06
-2.96222e-06
-3.29753e-06
-3.64944e-06
-4.01962e-06
-4.40992e-06
-4.82214e-06
-5.25815e-06
-5.71977e-06
-6.20874e-06
-6.72657e-06
-7.27442e-06
-7.85288e-06
-8.43689e-06
-8.99292e-06
-9.51228e-06
-9.99529e-06
-1.04429e-05
-1.08578e-05
-1.12434e-05
-1.16032e-05
-1.19403e-05
-1.22577e-05
-1.25585e-05
-1.28453e-05
-1.31206e-05
-1.33868e-05
-1.36459e-05
-1.38997e-05
-1.41497e-05
-1.43971e-05
-1.46426e-05
-1.48872e-05
-1.51316e-05
-1.53764e-05
-1.56214e-05
1.05839e-07
-1.46984e-07
-4.05803e-07
-6.71382e-07
-9.44692e-07
-1.22654e-06
-1.51744e-06
-1.81824e-06
-2.13018e-06
-2.45443e-06
-2.79208e-06
-3.14434e-06
-3.51258e-06
-3.89822e-06
-4.30278e-06
-4.72782e-06
-5.17498e-06
-5.64588e-06
-6.14217e-06
-6.66534e-06
-7.21672e-06
-7.79728e-06
-8.38477e-06
-8.94842e-06
-9.47997e-06
-9.98016e-06
-1.04503e-05
-1.08923e-05
-1.13084e-05
-1.17008e-05
-1.20718e-05
-1.24237e-05
-1.27585e-05
-1.30784e-05
-1.33852e-05
-1.36806e-05
-1.39664e-05
-1.42438e-05
-1.45141e-05
-1.47783e-05
-1.50373e-05
-1.52921e-05
-1.55435e-05
-1.5792e-05
-1.60376e-05
3.26566e-07
6.28676e-08
-2.0779e-07
-4.861e-07
-7.72689e-07
-1.06802e-06
-1.3729e-06
-1.68815e-06
-2.01458e-06
-2.35304e-06
-2.7045e-06
-3.07001e-06
-3.45069e-06
-3.8477e-06
-4.2623e-06
-4.69581e-06
-5.14961e-06
-5.62509e-06
-6.12368e-06
-6.64674e-06
-7.19555e-06
-7.77108e-06
-8.3535e-06
-8.91544e-06
-9.44977e-06
-9.95725e-06
-1.04389e-05
-1.08958e-05
-1.13297e-05
-1.17422e-05
-1.21348e-05
-1.25091e-05
-1.28668e-05
-1.32092e-05
-1.35379e-05
-1.38541e-05
-1.4159e-05
-1.44539e-05
-1.47397e-05
-1.50172e-05
-1.52872e-05
-1.55506e-05
-1.58083e-05
-1.60606e-05
-1.63077e-05
4.68689e-07
1.95089e-07
-8.60659e-08
-3.75555e-07
-6.73369e-07
-9.80337e-07
-1.29714e-06
-1.62428e-06
-1.9624e-06
-2.31223e-06
-2.67457e-06
-3.05025e-06
-3.44017e-06
-3.84525e-06
-4.26654e-06
-4.70508e-06
-5.16201e-06
-5.63846e-06
-6.13565e-06
-6.65469e-06
-7.19673e-06
-7.76255e-06
-8.33475e-06
-8.8895e-06
-9.42058e-06
-9.92851e-06
-1.04139e-05
-1.08777e-05
-1.1321e-05
-1.17449e-05
-1.21507e-05
-1.25393e-05
-1.29119e-05
-1.32695e-05
-1.36133e-05
-1.39441e-05
-1.42629e-05
-1.45706e-05
-1.4868e-05
-1.51559e-05
-1.54351e-05
-1.57055e-05
-1.59687e-05
-1.62247e-05
-1.6474e-05
5.55125e-07
2.7272e-07
-1.70055e-08
-3.1664e-07
-6.24288e-07
-9.41218e-07
-1.26793e-06
-1.60482e-06
-1.95243e-06
-2.31133e-06
-2.68214e-06
-3.06551e-06
-3.46212e-06
-3.87273e-06
-4.29814e-06
-4.73916e-06
-5.1967e-06
-5.67166e-06
-6.165e-06
-6.6776e-06
-7.21042e-06
-7.76406e-06
-8.32335e-06
-8.86783e-06
-9.39201e-06
-9.89612e-06
-1.03806e-05
-1.08461e-05
-1.12935e-05
-1.17233e-05
-1.21366e-05
-1.25339e-05
-1.29161e-05
-1.32838e-05
-1.36379e-05
-1.39791e-05
-1.43079e-05
-1.46251e-05
-1.49313e-05
-1.5227e-05
-1.5513e-05
-1.57901e-05
-1.60583e-05
-1.63181e-05
-1.65702e-05
6.04013e-07
3.1339e-07
1.39866e-08
-2.92108e-07
-6.07936e-07
-9.33229e-07
-1.26815e-06
-1.61305e-06
-1.96834e-06
-2.33443e-06
-2.7118e-06
-3.10092e-06
-3.50234e-06
-3.9166e-06
-4.34432e-06
-4.7861e-06
-5.24265e-06
-5.71461e-06
-6.20275e-06
-6.7077e-06
-7.23025e-06
-7.77076e-06
-8.31616e-06
-8.84901e-06
-9.36445e-06
-9.8625e-06
-1.03434e-05
-1.08077e-05
-1.12558e-05
-1.16882e-05
-1.21054e-05
-1.25078e-05
-1.2896e-05
-1.32705e-05
-1.36317e-05
-1.39801e-05
-1.43162e-05
-1.46406e-05
-1.49536e-05
-1.52557e-05
-1.55474e-05
-1.58297e-05
-1.61024e-05
-1.6366e-05
-1.66212e-05
6.29046e-07
3.31641e-07
2.57189e-08
-2.88105e-07
-6.11144e-07
-9.43486e-07
-1.28528e-06
-1.63679e-06
-1.99831e-06
-2.37014e-06
-2.75263e-06
-3.14611e-06
-3.55098e-06
-3.96762e-06
-4.39647e-06
-4.83797e-06
-5.29262e-06
-5.76085e-06
-6.24325e-06
-6.74021e-06
-7.25237e-06
-7.77986e-06
-8.31147e-06
-8.83249e-06
-9.3386e-06
-9.82964e-06
-1.03057e-05
-1.07672e-05
-1.12142e-05
-1.1647e-05
-1.2066e-05
-1.24713e-05
-1.28633e-05
-1.32422e-05
-1.36084e-05
-1.3962e-05
-1.43036e-05
-1.46334e-05
-1.49517e-05
-1.5259e-05
-1.55556e-05
-1.58422e-05
-1.61189e-05
-1.63862e-05
-1.66445e-05
6.39722e-07
3.36493e-07
2.45012e-08
-2.95707e-07
-6.24898e-07
-9.63222e-07
-1.3108e-06
-1.66781e-06
-2.03446e-06
-2.41095e-06
-2.79751e-06
-3.19437e-06
-3.60178e-06
-4.01999e-06
-4.44928e-06
-4.88994e-06
-5.34228e-06
-5.80659e-06
-6.28323e-06
-6.77243e-06
-7.27465e-06
-7.7898e-06
-8.3084e-06
-8.8181e-06
-9.31503e-06
-9.79891e-06
-1.02698e-05
-1.07276e-05
-1.11727e-05
-1.16049e-05
-1.20244e-05
-1.24312e-05
-1.28256e-05
-1.32075e-05
-1.35771e-05
-1.39347e-05
-1.42804e-05
-1.46144e-05
-1.4937e-05
-1.52484e-05
-1.55491e-05
-1.58395e-05
-1.61199e-05
-1.63905e-05
-1.66518e-05
6.42439e-07
3.33679e-07
1.66228e-08
-3.08908e-07
-6.43361e-07
-9.86811e-07
-1.33931e-06
-1.70097e-06
-2.07192e-06
-2.45228e-06
-2.84217e-06
-3.24172e-06
-3.65107e-06
-4.07035e-06
-4.49972e-06
-4.9393e-06
-5.38927e-06
-5.84976e-06
-6.32096e-06
-6.80292e-06
-7.29596e-06
-7.7998e-06
-8.30645e-06
-8.80568e-06
-9.29401e-06
-9.77105e-06
-1.02367e-05
-1.06909e-05
-1.11336e-05
-1.15646e-05
-1.1984e-05
-1.23916e-05
-1.27874e-05
-1.31714e-05
-1.35437e-05
-1.39042e-05
-1.42531e-05
-1.45905e-05
-1.49166e-05
-1.52315e-05
-1.55356e-05
-1.58292e-05
-1.61129e-05
-1.63865e-05
-1.66507e-05
6.41304e-07
3.27944e-07
6.06351e-09
-3.24019e-07
-6.63015e-07
-1.0109e-06
-1.36764e-06
-1.7333e-06
-2.10792e-06
-2.49155e-06
-2.88425e-06
-3.28603e-06
-3.69694e-06
-4.11702e-06
-4.54628e-06
-4.98475e-06
-5.43246e-06
-5.8894e-06
-6.35562e-06
-6.83102e-06
-7.31576e-06
-7.80941e-06
-8.30532e-06
-8.79508e-06
-9.27557e-06
-9.74633e-06
-1.02071e-05
-1.06578e-05
-1.10981e-05
-1.15278e-05
-1.19467e-05
-1.23546e-05
-1.27515e-05
-1.3137e-05
-1.35113e-05
-1.38741e-05
-1.42256e-05
-1.45658e-05
-1.48947e-05
-1.52126e-05
-1.55197e-05
-1.5816e-05
-1.61025e-05
-1.63789e-05
-1.66456e-05
6.38651e-07
3.21172e-07
-4.8832e-09
-3.38952e-07
-6.81913e-07
-1.03369e-06
-1.39413e-06
-1.76326e-06
-2.14107e-06
-2.52754e-06
-2.92264e-06
-3.32633e-06
-3.73856e-06
-4.15927e-06
-4.58838e-06
-5.02579e-06
-5.47144e-06
-5.92518e-06
-6.38695e-06
-6.85649e-06
-7.33384e-06
-7.81842e-06
-8.30476e-06
-8.78606e-06
-9.25954e-06
-9.72466e-06
-1.01811e-05
-1.06285e-05
-1.10666e-05
-1.14949e-05
-1.19133e-05
-1.23214e-05
-1.27189e-05
-1.31057e-05
-1.34815e-05
-1.38463e-05
-1.41999e-05
-1.45424e-05
-1.48737e-05
-1.51942e-05
-1.55037e-05
-1.58024e-05
-1.60914e-05
-1.63702e-05
-1.66393e-05
6.35748e-07
3.14451e-07
-1.50039e-08
-3.52652e-07
-6.99114e-07
-1.05433e-06
-1.41803e-06
-1.79022e-06
-2.17083e-06
-2.55979e-06
-2.95701e-06
-3.36237e-06
-3.77575e-06
-4.197e-06
-4.62595e-06
-5.06243e-06
-5.50625e-06
-5.95716e-06
-6.41497e-06
-6.87933e-06
-7.35015e-06
-7.82671e-06
-8.3046e-06
-8.77841e-06
-9.24568e-06
-9.7058e-06
-1.01583e-05
-1.06028e-05
-1.10389e-05
-1.1466e-05
-1.18838e-05
-1.2292e-05
-1.26901e-05
-1.30778e-05
-1.3455e-05
-1.38214e-05
-1.41769e-05
-1.45213e-05
-1.48548e-05
-1.51773e-05
-1.54886e-05
-1.57899e-05
-1.6081e-05
-1.6362e-05
-1.6633e-05
6.332e-07
3.08556e-07
-2.38258e-08
-3.64706e-07
-7.14291e-07
-1.07255e-06
-1.43913e-06
-1.81402e-06
-2.19711e-06
-2.58828e-06
-2.98738e-06
-3.39422e-06
-3.80863e-06
-4.23037e-06
-4.6592e-06
-5.09487e-06
-5.53708e-06
-5.9855e-06
-6.43985e-06
-6.89966e-06
-7.36473e-06
-7.83424e-06
-8.30468e-06
-8.77191e-06
-9.23373e-06
-9.68946e-06
-1.01386e-05
-1.05805e-05
-1.10148e-05
-1.14408e-05
-1.18582e-05
-1.22663e-05
-1.26649e-05
-1.30536e-05
-1.34319e-05
-1.37997e-05
-1.41567e-05
-1.45029e-05
-1.48382e-05
-1.51626e-05
-1.54757e-05
-1.5779e-05
-1.6072e-05
-1.63547e-05
-1.66275e-05
6.31242e-07
3.03726e-07
-3.1309e-08
-3.75044e-07
-7.274e-07
-1.08833e-06
-1.45746e-06
-1.83475e-06
-2.22004e-06
-2.61317e-06
-3.01393e-06
-3.4221e-06
-3.83742e-06
-4.25962e-06
-4.68837e-06
-5.12334e-06
-5.56417e-06
-6.01044e-06
-6.46176e-06
-6.9176e-06
-7.37765e-06
-7.84098e-06
-8.3049e-06
-8.76637e-06
-9.22343e-06
-9.67534e-06
-1.01215e-05
-1.05612e-05
-1.09939e-05
-1.14191e-05
-1.1836e-05
-1.22442e-05
-1.26433e-05
-1.30327e-05
-1.34121e-05
-1.37811e-05
-1.41395e-05
-1.44872e-05
-1.4824e-05
-1.51501e-05
-1.54647e-05
-1.57699e-05
-1.60644e-05
-1.63486e-05
-1.6623e-05
6.29918e-07
2.99907e-07
-3.75861e-08
-3.83821e-07
-7.38647e-07
-1.10194e-06
-1.47334e-06
-1.85276e-06
-2.24001e-06
-2.63489e-06
-3.03715e-06
-3.44652e-06
-3.86268e-06
-4.2853e-06
-4.714e-06
-5.14839e-06
-5.58803e-06
-6.03244e-06
-6.48115e-06
-6.93352e-06
-7.38917e-06
-7.84706e-06
-8.3052e-06
-8.76156e-06
-9.21445e-06
-9.66301e-06
-1.01066e-05
-1.05444e-05
-1.09758e-05