/*--------------------------------*- C++ -*----------------------------------*\
| =========                 |                                                 |
| \\      /  F ield         | OpenFOAM: The Open Source CFD Toolbox           |
|  \\    /   O peration     | Version:  2312                                  |
|   \\  /    A nd           | Website:  www.openfoam.com                      |
|    \\/     M anipulation  |                                                 |
\*---------------------------------------------------------------------------*/
FoamFile
{
    version     2.0;
    format      ascii;
    arch        "LSB;label=32;scalar=64";
    class       volVectorField;
    location    "144";
    object      U;
}
// * * * * * * * * * * * * * * * * * * * * * * * * * * * * * * * * * * * * * //

dimensions      [0 1 -1 0 0 0 0];

internalField   nonuniform List<vector> 
4800
(
(0.000484125 4.1962e-07 -3.43786e-26)
(0.000473174 4.81834e-07 -2.40935e-25)
(0.000465714 5.14069e-07 3.0946e-25)
(0.000460712 5.18804e-07 1.40346e-25)
(0.000457533 4.9595e-07 2.06172e-24)
(0.000455798 4.50535e-07 -4.90467e-24)
(0.000455257 3.90984e-07 4.55839e-24)
(0.00045591 3.01809e-07 -6.5628e-24)
(0.000457626 1.65282e-07 2.11797e-24)
(0.000460578 -1.00731e-07 7.13641e-24)
(0.000465165 -6.34451e-07 -2.20226e-24)
(0.000472713 -2.06339e-06 -1.92033e-25)
(0.000490378 -7.27784e-06 -2.65643e-24)
(0.000536224 -2.83635e-05 1.21485e-24)
(0.000613054 -9.33106e-05 -9.61001e-25)
(0.00149336 2.21784e-06 -1.09217e-25)
(0.00145993 1.77943e-06 1.36111e-25)
(0.001437 1.42749e-06 -1.24789e-24)
(0.00142144 1.10649e-06 9.35024e-25)
(0.00141134 7.7781e-07 2.96869e-24)
(0.00140552 4.17104e-07 -4.726e-24)
(0.00140319 -6.63492e-09 -1.31834e-24)
(0.00140428 -5.70085e-07 -2.91841e-25)
(0.00140829 -1.3575e-06 1.08324e-23)
(0.00141588 -2.67988e-06 -8.00919e-24)
(0.00142812 -5.19758e-06 8.72692e-25)
(0.00144783 -1.11235e-05 1.31703e-24)
(0.00148376 -2.81332e-05 -1.93228e-24)
(0.00154682 -7.99232e-05 -5.63052e-25)
(0.00161562 -0.000197531 2.50239e-24)
(0.00260553 7.14292e-06 -7.80636e-26)
(0.00254801 5.69696e-06 7.97812e-26)
(0.00250833 4.56453e-06 8.16306e-25)
(0.00248117 3.56377e-06 -1.94174e-24)
(0.00246323 2.57688e-06 1.89798e-24)
(0.00245248 1.50753e-06 1.77093e-24)
(0.0024475 1.87743e-07 -4.53822e-24)
(0.00244808 -1.49845e-06 -2.74692e-24)
(0.00245318 -3.83203e-06 6.67566e-24)
(0.00246375 -7.56451e-06 2.5138e-24)
(0.00248094 -1.41838e-05 -8.76321e-24)
(0.00250679 -2.76281e-05 -1.29874e-24)
(0.00254545 -5.75453e-05 3.72869e-24)
(0.00259563 -0.000123324 5.84012e-24)
(0.00263222 -0.000233513 -3.0116e-24)
(0.00382705 1.60041e-05 2.88128e-26)
(0.00374424 1.28546e-05 -2.00593e-25)
(0.00368674 1.03926e-05 8.92161e-25)
(0.00364699 8.2308e-06 9.46085e-25)
(0.00362028 6.12217e-06 -9.48973e-25)
(0.00360365 3.87002e-06 -5.41212e-24)
(0.00359499 1.17022e-06 -3.64773e-24)
(0.00359376 -2.35135e-06 1.35658e-23)
(0.00359841 -6.86656e-06 5.51626e-24)
(0.00360959 -1.39525e-05 -8.0822e-24)
(0.00362788 -2.5589e-05 -3.25281e-24)
(0.00365334 -4.61958e-05 -2.46222e-24)
(0.00368524 -8.39053e-05 7.92138e-26)
(0.0037163 -0.000148856 1.8123e-24)
(0.00372798 -0.000236486 8.84374e-27)
(0.00516247 2.96897e-05 -5.28024e-26)
(0.00505406 2.39795e-05 -3.23173e-25)
(0.00497814 1.95158e-05 -2.02307e-25)
(0.00492509 1.5621e-05 5.51719e-25)
(0.00488878 1.18673e-05 -1.55044e-24)
(0.00486533 7.92979e-06 3.86391e-24)
(0.00485193 3.32427e-06 -6.84979e-25)
(0.00484728 -2.4165e-06 2.34465e-24)
(0.00484984 -9.80356e-06 -1.29844e-23)
(0.00485909 -2.05095e-05 2.46474e-23)
(0.00487469 -3.67585e-05 -2.38625e-23)
(0.00489489 -6.20601e-05 1.25442e-23)
(0.00491629 -0.000101385 -1.16067e-23)
(0.00493101 -0.0001579 1.0941e-23)
(0.0049284 -0.000224188 -4.36353e-24)
(0.00661286 4.92349e-05 6.97095e-26)
(0.00648014 4.00172e-05 2.49916e-25)
(0.00638619 3.2796e-05 -1.31541e-24)
(0.0063197 2.65303e-05 -8.23873e-25)
(0.00627333 2.05666e-05 2.22261e-24)
(0.00624231 1.44286e-05 7.90077e-25)
(0.00622317 7.46763e-06 -6.15896e-24)
(0.00621378 -8.8262e-07 1.46534e-23)
(0.00621231 -1.13609e-05 -1.89842e-23)
(0.0062174 -2.55714e-05 4.56264e-24)
(0.00622744 -4.52501e-05 1.37441e-23)
(0.0062398 -7.25784e-05 -1.90405e-23)
(0.00625048 -0.000109511 9.52761e-24)
(0.00625356 -0.000155566 9.7669e-24)
(0.00624405 -0.000204563 -7.43764e-24)
(0.00817346 7.54903e-05 5.76965e-26)
(0.0080204 6.1857e-05 -3.41422e-25)
(0.00791049 5.1112e-05 1.22009e-24)
(0.00783151 4.1818e-05 -1.68862e-24)
(0.00777535 3.3073e-05 -5.69316e-24)
(0.00773651 2.42384e-05 9.70149e-24)
(0.00771097 1.45507e-05 -5.85559e-24)
(0.00769589 3.31566e-06 1.98228e-23)
(0.00768892 -1.01794e-05 -1.34899e-23)
(0.00768806 -2.72586e-05 -6.26947e-24)
(0.00769098 -4.90368e-05 -1.22688e-23)
(0.00769479 -7.6341e-05 1.12859e-23)
(0.00769614 -0.000109179 3.16944e-24)
(0.00769133 -0.000145781 2.71686e-24)
(0.00767861 -0.000181978 -2.39144e-24)
(0.00983099 0.000108637 -8.35266e-26)
(0.00966542 8.99652e-05 1.13184e-24)
(0.00954419 7.50711e-05 -2.62946e-24)
(0.00945547 6.21744e-05 -2.13393e-24)
(0.00939104 5.01478e-05 8.18004e-25)
(0.00934507 3.82049e-05 1.58138e-24)
(0.00931318 2.55296e-05 5.59809e-24)
(0.00929206 1.13832e-05 -1.51684e-23)
(0.00927893 -4.87595e-06 -8.01342e-24)
(0.00927134 -2.40554e-05 2.21873e-23)
(0.00926678 -4.66864e-05 -6.84272e-24)
(0.0092626 -7.26852e-05 2.34085e-23)
(0.00925643 -0.000101187 -1.23194e-23)
(0.00924615 -0.000130393 -3.93599e-24)
(0.00923159 -0.000157772 2.33287e-24)
(0.011562 0.00014753 -1.11754e-26)
(0.0113963 0.000123868 6.27862e-25)
(0.0112717 0.000104596 -8.93046e-25)
(0.0111784 8.77832e-05 2.12399e-24)
(0.0111091 7.21742e-05 -1.26138e-23)
(0.011058 5.68952e-05 1.33021e-23)
(0.011021 4.1146e-05 -2.08037e-23)
(0.0109945 2.42473e-05 1.28188e-23)
(0.0109756 5.70419e-06 9.47883e-24)
(0.0109617 -1.4839e-05 2.04754e-23)
(0.0109504 -3.74286e-05 -2.67352e-23)
(0.0109396 -6.15533e-05 -4.94498e-24)
(0.0109278 -8.61993e-05 2.26704e-24)
(0.0109137 -0.000110015 1.63346e-23)
(0.0108978 -0.000131561 -6.6538e-24)
(0.0133354 0.000189051 6.29134e-26)
(0.0131853 0.000161527 -2.67533e-25)
(0.0130683 0.000138364 1.17963e-24)
(0.012978 0.00011782 -4.11607e-24)
(0.0129091 9.87055e-05 6.21822e-24)
(0.0128568 8.01753e-05 -7.98734e-24)
(0.0128173 6.15277e-05 1.33201e-23)
(0.0127874 4.22251e-05 2.29723e-24)
(0.0127643 2.19853e-05 -1.82622e-23)
(0.0127456 7.13277e-07 2.59413e-23)
(0.0127293 -2.13146e-05 -2.85984e-23)
(0.0127139 -4.35082e-05 -8.43059e-24)
(0.0126983 -6.50435e-05 1.48524e-23)
(0.0126818 -8.50665e-05 4.41972e-24)
(0.0126651 -0.000102817 -1.9335e-24)
(0.0151229 0.000228192 2.67765e-25)
(0.0150028 0.000199069 -2.11392e-24)
(0.0149045 0.000173385 -3.29619e-24)
(0.0148259 0.000149981 7.86034e-24)
(0.014764 0.000127979 3.46853e-24)
(0.0147155 0.000106719 -2.17785e-23)
(0.0146774 8.56909e-05 6.74039e-24)
(0.0146472 6.45553e-05 4.82987e-24)
(0.0146226 4.32136e-05 -2.06891e-23)
(0.0146016 2.17708e-05 2.15744e-23)
(0.0145829 5.70154e-07 -1.72542e-23)
(0.0145652 -1.98949e-05 4.43259e-23)
(0.0145479 -3.90693e-05 -2.13456e-23)
(0.0145306 -5.64878e-05 1.25882e-23)
(0.0145138 -7.17909e-05 -3.44175e-24)
(0.0169163 0.000260044 -1.21993e-25)
(0.0168316 0.000231862 1.47372e-24)
(0.0167585 0.000205542 -2.80107e-24)
(0.0166978 0.000180691 -1.38214e-24)
(0.0166482 0.000156915 1.55162e-23)
(0.016608 0.000133875 -2.30374e-24)
(0.0165752 0.000111323 -2.73869e-23)
(0.0165482 8.91383e-05 3.1856e-23)
(0.0165252 6.73733e-05 -7.16254e-24)
(0.0165048 4.62196e-05 -2.47056e-23)
(0.0164863 2.59799e-05 2.63599e-23)
(0.0164687 6.98945e-06 1.42629e-23)
(0.0164519 -1.04283e-05 -1.19318e-23)
(0.0164353 -2.60744e-05 -2.07935e-23)
(0.0164196 -3.98149e-05 1.74945e-24)
(0.0187355 0.000283267 2.05761e-26)
(0.0186795 0.000257398 -1.6946e-24)
(0.0186294 0.000231835 7.73879e-24)
(0.0185863 0.000206824 3.85104e-25)
(0.0185502 0.000182443 4.21836e-24)
(0.0185199 0.000158688 -1.53204e-23)
(0.0184944 0.000135574 1.2987e-23)
(0.0184724 0.000113169 2.92308e-24)
(0.0184531 9.16243e-05 2.65998e-23)
(0.0184356 7.11377e-05 -4.11172e-23)
(0.0184193 5.19354e-05 -1.86247e-23)
(0.0184037 3.42074e-05 -1.23601e-23)
(0.0183888 1.81087e-05 2.32302e-23)
(0.0183742 3.68387e-06 -6.7722e-25)
(0.0183605 -9.05319e-06 2.26411e-24)
(0.0206074 0.000300933 -7.95155e-27)
(0.020568 0.000277305 1.81617e-24)
(0.0205325 0.000252814 -2.63027e-24)
(0.0205017 0.000228187 1.55299e-26)
(0.0204754 0.000203859 3.16436e-24)
(0.0204529 0.000180086 7.965e-24)
(0.0204335 0.000157073 -3.0886e-23)
(0.0204163 0.000135004 2.64444e-24)
(0.0204008 0.000114066 1.56473e-23)
(0.0203864 9.44201e-05 -7.20039e-24)
(0.0203728 7.62083e-05 1.96652e-23)
(0.0203598 5.95126e-05 1.38202e-23)
(0.0203474 4.43763e-05 -2.50605e-23)
(0.0203351 3.07669e-05 1.7226e-23)
(0.0203237 1.86367e-05 -1.43244e-23)
(0.0225242 0.000316448 -3.74389e-25)
(0.0224943 0.000294768 -1.88361e-25)
(0.0224672 0.000271293 3.25126e-24)
(0.0224435 0.000247159 -1.54737e-23)
(0.0224232 0.000223104 1.3533e-23)
(0.0224054 0.000199584 -9.55748e-24)
(0.0223898 0.000176924 6.89182e-24)
(0.0223758 0.000155359 -4.82254e-23)
(0.0223629 0.000135067 6.96208e-23)
(0.0223508 0.000116159 -4.09707e-23)
(0.0223395 9.87052e-05 3.66032e-23)
(0.0223285 8.27135e-05 3.07109e-23)
(0.0223181 6.81638e-05 -5.36793e-23)
(0.0223078 5.4982e-05 1.74992e-23)
(0.0222983 4.30911e-05 -7.37174e-25)
(0.0244282 0.000329834 -1.46527e-26)
(0.024407 0.000310295 -1.03143e-24)
(0.0243869 0.000288205 1.05447e-24)
(0.024369 0.000264949 -4.33938e-25)
(0.0243532 0.0002415 5.67263e-24)
(0.0243392 0.000218488 -9.62134e-24)
(0.0243266 0.000196339 8.79397e-24)
(0.024315 0.000175319 -2.75373e-23)
(0.0243043 0.000155588 6.24846e-23)
(0.0242941 0.000137221 -7.98529e-23)
(0.0242845 0.00012024 6.53988e-23)
(0.0242752 0.000104613 -2.20902e-23)
(0.0242665 9.02881e-05 1.15886e-24)
(0.0242578 7.7177e-05 5.112e-24)
(0.0242498 6.51941e-05 -9.77924e-24)
(0.0262285 0.000340246 -1.22692e-24)
(0.026216 0.000322866 1.28552e-24)
(0.0262032 0.000302457 7.0599e-25)
(0.0261911 0.00028055 -2.82965e-24)
(0.0261801 0.000258152 9.93818e-24)
(0.02617 0.000235996 -9.79936e-24)
(0.0261607 0.00021458 -8.25876e-24)
(0.0261519 0.000194195 -1.96255e-23)
(0.0261437 0.000174997 1.0281e-23)
(0.0261357 0.000157042 4.76434e-23)
(0.0261281 0.000140334 -2.51014e-23)
(0.0261207 0.00012483 1.49362e-23)
(0.0261137 0.00011047 -6.14148e-24)
(0.0261068 9.71683e-05 -1.82527e-23)
(0.0261004 8.48445e-05 9.3486e-24)
(0.0278079 0.000344723 3.82048e-25)
(0.0278035 0.000331637 -6.05962e-25)
(0.0277974 0.000313143 1.31529e-24)
(0.0277911 0.000292868 -5.31268e-24)
(0.0277848 0.000271838 -2.06076e-24)
(0.0277787 0.000250816 1.70052e-23)
(0.0277729 0.000230328 -1.28587e-23)
(0.0277673 0.000210677 -7.54117e-24)
(0.0277618 0.000192018 7.06095e-24)
(0.0277563 0.00017441 -7.9106e-24)
(0.027751 0.000157857 1.85062e-23)
(0.0277458 0.000142322 9.26012e-24)
(0.0277407 0.000127753 -3.46294e-23)
(0.0277356 0.000114078 2.38907e-23)
(0.0277309 0.000101229 -4.86661e-24)
(0.0290071 0.000345455 1.17922e-24)
(0.029009 0.00033409 1.34888e-24)
(0.0290096 0.000318154 -3.32747e-24)
(0.029009 0.00030006 1.87622e-24)
(0.0290076 0.000280882 -2.36628e-24)
(0.0290057 0.000261406 -6.68754e-24)
(0.0290036 0.000242162 -7.44829e-24)
(0.0290013 0.000223462 1.92839e-23)
(0.0289989 0.000205478 1.84612e-23)
(0.0289962 0.000188286 -4.44063e-23)
(0.0289934 0.00017191 2.51015e-23)
(0.0289905 0.000156333 -1.7237e-24)
(0.0289876 0.000141522 -1.39728e-24)
(0.0289846 0.000127428 1.87179e-24)
(0.0289817 0.000114 -8.59788e-25)
(0.0296047 0.000337674 -3.09999e-24)
(0.0296138 0.000328471 -5.65145e-24)
(0.0296209 0.000315083 4.50013e-24)
(0.0296262 0.000299175 7.91951e-24)
(0.0296301 0.00028195 -1.84459e-24)
(0.0296331 0.000264176 1.36072e-24)
(0.0296355 0.000246336 -1.25478e-24)
(0.0296373 0.000228726 -1.26487e-23)
(0.0296386 0.000211526 2.93719e-23)
(0.0296395 0.000194831 -1.22626e-23)
(0.02964 0.000178688 5.33824e-24)
(0.0296402 0.000163106 -9.0831e-24)
(0.0296401 0.000148078 -9.55716e-24)
(0.0296398 0.000133579 1.40896e-23)
(0.0296394 0.000119581 -6.07475e-24)
(0.0294011 0.000325045 4.81415e-24)
(0.0294141 0.000317706 -1.08032e-23)
(0.0294251 0.000306351 2.00893e-24)
(0.0294343 0.000292464 1.32223e-23)
(0.0294421 0.000277124 -1.19391e-23)
(0.0294489 0.000261007 3.19596e-24)
(0.0294547 0.000244543 -8.1665e-25)
(0.0294599 0.000228005 2.60363e-24)
(0.0294644 0.000211572 3.74231e-24)
(0.0294683 0.000195351 -4.68199e-24)
(0.0294716 0.000179411 -3.46508e-24)
(0.0294745 0.000163786 4.62447e-24)
(0.0294771 0.000148494 -5.16281e-24)
(0.0294793 0.000133536 3.14645e-24)
(0.0294812 0.000118909 -1.40273e-24)
(0.0284332 0.000305629 2.94524e-24)
(0.0284544 0.000299345 -6.16928e-24)
(0.0284727 0.000289554 -4.06241e-24)
(0.0284884 0.000277443 1.90675e-23)
(0.0285021 0.000263872 -1.70882e-23)
(0.028514 0.000249406 1.99079e-24)
(0.0285244 0.000234413 2.69818e-24)
(0.0285335 0.000219134 1.20035e-24)
(0.0285415 0.000203731 3.91147e-25)
(0.0285485 0.000188314 -2.13352e-25)
(0.0285545 0.000172963 2.91679e-25)
(0.0285599 0.000157727 9.02078e-25)
(0.0285644 0.000142643 -5.62736e-24)
(0.0285684 0.000127728 2.80069e-24)
(0.0285718 0.000112998 1.14247e-24)
(0.0268587 0.00027997 7.28749e-24)
(0.0268829 0.000274346 -1.29547e-23)
(0.0269048 0.000265738 2.64469e-24)
(0.0269244 0.000255087 -6.29574e-24)
(0.0269421 0.000243074 -8.07436e-24)
(0.0269581 0.000230152 2.74333e-23)
(0.0269726 0.000216623 -1.05077e-23)
(0.0269857 0.000202688 2.86247e-24)
(0.0269976 0.000188492 -1.52852e-24)
(0.0270084 0.000174138 -3.133e-24)
(0.0270181 0.000159707 5.39358e-24)
(0.027027 0.000145257 -2.15666e-24)
(0.027035 0.000130832 4.48342e-25)
(0.0270422 0.000116461 -2.60377e-25)
(0.0270487 0.000102171 8.97796e-26)
(0.0249645 0.000254703 2.79909e-24)
(0.0249927 0.000249477 -1.46081e-23)
(0.0250188 0.000241724 2.55584e-23)
(0.0250425 0.000232184 -1.9684e-23)
(0.0250643 0.000221391 1.99626e-23)
(0.0250843 0.000209696 -6.57243e-24)
(0.0251025 0.000197345 -4.59877e-24)
(0.0251193 0.00018451 -5.06964e-24)
(0.0251347 0.000171321 8.85379e-24)
(0.0251488 0.000157878 -4.90507e-25)
(0.0251617 0.000144262 -8.2244e-24)
(0.0251735 0.000130534 -8.48209e-25)
(0.0251843 0.000116745 1.53669e-24)
(0.0251942 0.000102931 -2.38803e-25)
(0.0252031 8.91276e-05 2.76001e-26)
(0.022893 0.00022746 3.72387e-25)
(0.0229261 0.000222498 -5.53304e-24)
(0.0229569 0.000215417 -3.25212e-24)
(0.0229852 0.000206784 2.60591e-23)
(0.0230114 0.00019701 -2.59268e-23)
(0.0230356 0.000186371 7.65179e-24)
(0.023058 0.000175072 1.32079e-24)
(0.0230786 0.000163263 -7.06333e-25)
(0.0230976 0.000151064 -3.38501e-24)
(0.0231151 0.00013857 1.47355e-23)
(0.0231312 0.000125858 -1.1757e-23)
(0.023146 0.00011299 -5.02913e-25)
(0.0231596 0.000100017 9.90254e-25)
(0.023172 8.69829e-05 6.99521e-25)
(0.0231832 7.39236e-05 -5.2576e-25)
(0.0207557 0.00019824 5.54698e-25)
(0.0207934 0.000193526 5.18054e-24)
(0.0208287 0.000187058 -5.92643e-24)
(0.0208614 0.000179268 -4.2778e-24)
(0.0208917 0.000170471 2.77473e-23)
(0.0209198 0.000160885 -2.1222e-23)
(0.0209458 0.00015068 -4.34446e-25)
(0.0209699 0.000139987 -4.62441e-24)
(0.0209921 0.000128911 -4.129e-25)
(0.0210127 0.000117538 6.62523e-25)
(0.0210315 0.000105936 -2.65918e-24)
(0.0210488 9.41654e-05 2.14435e-24)
(0.0210645 8.22751e-05 7.64861e-25)
(0.0210789 7.0309e-05 6.91786e-25)
(0.0210917 5.83072e-05 7.20286e-25)
(0.0186301 0.000168211 3.95826e-24)
(0.0186713 0.000163817 -6.11168e-24)
(0.0187099 0.000157999 -5.14071e-24)
(0.0187458 0.000151089 1.57283e-23)
(0.0187791 0.000143318 -5.62641e-24)
(0.0188101 0.00013486 -8.32222e-24)
(0.0188388 0.00012585 2.87504e-24)
(0.0188654 0.000116397 6.82049e-24)
(0.0188899 0.000106592 -1.11137e-23)
(0.0189124 9.65074e-05 1.12086e-23)
(0.0189329 8.62046e-05 -6.10325e-24)
(0.0189517 7.5738e-05 2.66622e-24)
(0.0189686 6.51569e-05 -3.54972e-24)
(0.0189838 5.45047e-05 3.52518e-24)
(0.0189972 4.38227e-05 -8.45794e-25)
(0.0165646 0.000138795 -7.69148e-25)
(0.0166077 0.000134838 -2.74882e-24)
(0.0166481 0.000129751 -8.9912e-24)
(0.0166856 0.00012379 2.51388e-23)
(0.0167206 0.000117115 -4.37247e-24)
(0.016753 0.000109857 -7.3266e-24)
(0.016783 0.000102123 2.69715e-24)
(0.0168107 9.40049e-05 -3.88357e-24)
(0.0168361 8.55754e-05 -8.82912e-24)
(0.0168593 7.68973e-05 8.47772e-24)
(0.0168804 6.80259e-05 4.08363e-25)
(0.0168993 5.90109e-05 -2.95127e-24)
(0.0169162 4.98991e-05 3.35714e-24)
(0.0169311 4.07311e-05 2.14901e-25)
(0.0169439 3.15484e-05 -2.70241e-25)
(0.0145883 0.000111324 2.96268e-24)
(0.0146314 0.000107909 4.52772e-24)
(0.0146718 0.000103625 -4.06768e-24)
(0.0147094 9.86582e-05 -9.41585e-24)
(0.0147444 9.31107e-05 1.29793e-23)
(0.0147768 8.70804e-05 -1.45288e-23)
(0.0148067 8.06544e-05 -7.73403e-25)
(0.0148341 7.3905e-05 5.79473e-24)
(0.0148592 6.6893e-05 2.08837e-24)
(0.0148819 5.96713e-05 -4.58708e-24)
(0.0149023 5.22879e-05 -1.47607e-25)
(0.0149205 4.47872e-05 9.80674e-24)
(0.0149363 3.7211e-05 -3.77347e-24)
(0.01495 2.95961e-05 -9.94353e-25)
(0.0149614 2.19811e-05 -6.42726e-26)
(0.0127175 8.67812e-05 -3.07982e-24)
(0.012759 8.39657e-05 3.98174e-24)
(0.0127978 8.05088e-05 4.85157e-25)
(0.0128341 7.65279e-05 8.62567e-24)
(0.0128677 7.20822e-05 -6.9267e-24)
(0.0128988 6.72485e-05 6.72867e-25)
(0.0129274 6.20956e-05 -7.01994e-25)
(0.0129536 5.66805e-05 -2.34639e-24)
(0.0129773 5.10517e-05 2.22693e-24)
(0.0129987 4.5253e-05 -7.20124e-24)
(0.0130176 3.93249e-05 3.9845e-25)
(0.0130342 3.33051e-05 1.73469e-24)
(0.0130484 2.72293e-05 1.13406e-24)
(0.0130603 2.11307e-05 4.62471e-25)
(0.0130699 1.50413e-05 1.77229e-25)
(0.0109612 6.56991e-05 2.28259e-24)
(0.0109998 6.34875e-05 -1.79373e-24)
(0.011036 6.08249e-05 -8.28547e-24)
(0.0110697 5.77624e-05 7.78966e-24)
(0.0111011 5.43363e-05 1.14136e-23)
(0.01113 5.06083e-05 -2.67466e-24)
(0.0111565 4.66308e-05 -5.97423e-24)
(0.0111806 4.24469e-05 -8.87345e-24)
(0.0112024 3.80945e-05 6.78136e-24)
(0.0112218 3.3609e-05 4.47621e-25)
(0.0112388 2.90229e-05 -1.61877e-24)
(0.0112535 2.43669e-05 -4.76734e-25)
(0.0112659 1.96707e-05 9.69718e-25)
(0.011276 1.49623e-05 -2.47952e-26)
(0.0112837 1.02665e-05 -2.03133e-25)
(0.00932436 4.82112e-05 -1.43723e-24)
(0.00935916 4.65603e-05 -1.078e-24)
(0.00939184 4.46081e-05 1.24386e-24)
(0.00942235 4.23514e-05 -4.26242e-24)
(0.00945069 3.98193e-05 1.4079e-23)
(0.00947683 3.70603e-05 -1.91219e-23)
(0.00950076 3.41118e-05 1.91885e-23)
(0.00952247 3.10057e-05 -8.24426e-24)
(0.00954196 2.77705e-05 1.99227e-24)
(0.00955922 2.44338e-05 9.90644e-26)
(0.00957424 2.10208e-05 -1.57293e-24)
(0.00958703 1.75553e-05 6.07305e-25)
(0.00959759 1.40613e-05 -1.30255e-24)
(0.00960595 1.056e-05 -1.84035e-25)
(0.0096121 7.0714e-06 9.48378e-26)
(0.00780882 3.41603e-05 -6.98606e-25)
(0.00783929 3.29935e-05 1.67706e-25)
(0.00786801 3.16352e-05 3.9387e-25)
(0.00789488 3.0047e-05 -1.93279e-24)
(0.00791986 2.82593e-05 -9.42736e-25)
(0.00794291 2.6307e-05 7.83205e-24)
(0.007964 2.42154e-05 -4.64794e-24)
(0.00798311 2.20072e-05 7.06097e-25)
(0.00800021 1.97033e-05 -6.75726e-25)
(0.00801529 1.73241e-05 -7.73299e-25)
(0.00802834 1.48882e-05 -2.53792e-25)
(0.00803935 1.24135e-05 1.54922e-24)
(0.00804832 9.9182e-06 4.43556e-25)
(0.00805527 7.4182e-06 -9.69468e-25)
(0.0080602 4.92656e-06 -1.57367e-25)
(0.00641427 2.32149e-05 -2.54111e-25)
(0.00644019 2.24385e-05 -9.11954e-26)
(0.00646473 2.15459e-05 -4.27974e-24)
(0.00648776 2.04846e-05 1.04953e-24)
(0.00650921 1.92866e-05 -3.30735e-24)
(0.00652904 1.79736e-05 2.13259e-24)
(0.0065472 1.65623e-05 4.35686e-24)
(0.00656365 1.50681e-05 3.43805e-24)
(0.00657837 1.35055e-05 -4.90295e-24)
(0.00659133 1.18888e-05 1.48407e-24)
(0.00660251 1.02311e-05 1.33985e-24)
(0.00661191 8.54532e-06 -1.98999e-24)
(0.00661952 6.84451e-06 1.06633e-24)
(0.00662535 5.1403e-06 -9.57956e-26)
(0.0066294 3.43978e-06 2.94063e-25)
(0.00513848 1.49622e-05 -9.95398e-25)
(0.00515982 1.44801e-05 -1.4122e-24)
(0.00518015 1.39312e-05 -3.10743e-25)
(0.00519928 1.32651e-05 3.55225e-24)
(0.00521717 1.25113e-05 -2.60124e-24)
(0.00523374 1.16812e-05 -5.66866e-25)
(0.00524896 1.07849e-05 4.36967e-24)
(0.00526277 9.83256e-06 6.44486e-26)
(0.00527515 8.83357e-06 -8.90848e-25)
(0.00528606 7.79739e-06 -3.53729e-24)
(0.00529548 6.73279e-06 3.33221e-25)
(0.0053034 5.6484e-06 2.54454e-24)
(0.00530982 4.55322e-06 -3.31963e-25)
(0.00531473 3.45544e-06 -3.84214e-25)
(0.00531815 2.35877e-06 2.57713e-25)
(0.00397752 8.96916e-06 -2.17566e-25)
(0.0039944 8.6934e-06 8.74675e-27)
(0.00401059 8.38305e-06 1.69087e-24)
(0.00402588 7.99817e-06 1.19286e-24)
(0.00404023 7.56158e-06 -7.55133e-25)
(0.00405358 7.07757e-06 -2.02455e-24)
(0.00406588 6.55208e-06 8.58409e-25)
(0.00407708 5.99109e-06 -3.68743e-24)
(0.00408715 5.40029e-06 2.85488e-24)
(0.00409606 4.7855e-06 1.5479e-24)
(0.00410379 4.15214e-06 3.79851e-26)
(0.00411031 3.50562e-06 -1.74872e-24)
(0.00411563 2.85166e-06 3.30417e-25)
(0.00411974 2.19579e-06 -2.60762e-25)
(0.00412265 1.54033e-06 1.32433e-25)
(0.00292608 4.81882e-06 -4.00596e-25)
(0.00293871 4.67497e-06 4.20369e-28)
(0.0029509 4.51821e-06 1.3504e-24)
(0.00296247 4.32054e-06 -8.47279e-25)
(0.00297337 4.09586e-06 3.65622e-24)
(0.00298356 3.84481e-06 -6.72581e-24)
(0.00299299 3.57054e-06 5.6169e-24)
(0.00300162 3.27619e-06 -4.80145e-24)
(0.00300941 2.96482e-06 3.53452e-24)
(0.00301634 2.63966e-06 -2.32931e-24)
(0.00302239 2.30367e-06 8.10636e-25)
(0.00302753 1.95992e-06 1.21372e-25)
(0.00303177 1.6116e-06 2.06431e-25)
(0.00303509 1.2622e-06 -2.57063e-25)
(0.00303751 9.13664e-07 5.47169e-26)
(0.00197782 2.14264e-06 6.07852e-25)
(0.00198645 2.07443e-06 6.81574e-25)
(0.00199485 2.00716e-06 -2.89502e-24)
(0.00200284 1.92268e-06 2.14838e-24)
(0.00201042 1.82684e-06 -9.43236e-27)
(0.00201754 1.7192e-06 6.01205e-25)
(0.00202416 1.60117e-06 -7.08986e-25)
(0.00203026 1.47414e-06 -1.57009e-24)
(0.00203579 1.33945e-06 1.58052e-24)
(0.00204074 1.19861e-06 1.85724e-25)
(0.00204509 1.05293e-06 -1.34222e-24)
(0.00204884 9.0387e-07 4.80715e-25)
(0.00205195 7.52847e-07 3.02213e-25)
(0.00205445 6.01704e-07 -3.50535e-26)
(0.00205631 4.52134e-07 -3.68144e-26)
(0.00112568 6.57734e-07 -6.13403e-25)
(0.0011306 6.38515e-07 1.89995e-24)
(0.00113543 6.23885e-07 1.18942e-24)
(0.00114005 6.0312e-07 -2.08588e-24)
(0.00114446 5.77624e-07 -2.47311e-25)
(0.00114862 5.47434e-07 -2.30014e-25)
(0.00115252 5.13222e-07 7.27973e-25)
(0.00115612 4.75589e-07 -1.24633e-24)
(0.00115942 4.35074e-07 1.74797e-24)
(0.0011624 3.9226e-07 -8.54942e-25)
(0.00116503 3.47613e-07 -5.84288e-25)
(0.00116732 3.01658e-07 3.60445e-25)
(0.00116925 2.54786e-07 -4.51508e-25)
(0.00117083 2.0758e-07 4.58234e-25)
(0.00117205 1.60931e-07 -7.98862e-26)
(0.000362254 1.19999e-07 -4.37927e-27)
(0.000363772 1.55263e-07 3.71439e-25)
(0.000365283 1.8419e-07 4.41319e-25)
(0.000366742 2.04322e-07 -6.77645e-25)
(0.000368151 2.16751e-07 1.47759e-24)
(0.000369496 2.22267e-07 -1.59908e-24)
(0.000370767 2.21607e-07 1.10288e-25)
(0.000371955 2.15351e-07 9.50919e-25)
(0.000373052 2.03955e-07 -1.31664e-24)
(0.000374052 1.87818e-07 -2.56912e-25)
(0.000374949 1.67247e-07 9.66868e-25)
(0.000375737 1.4253e-07 -4.31808e-25)
(0.000376415 1.13858e-07 -1.70007e-25)
(0.00037698 8.14255e-08 1.43383e-25)
(0.000377431 4.55536e-08 -6.62128e-27)
(0.00090898 -0.000248619 9.48271e-26)
(0.00103784 -0.000175997 2.50072e-24)
(0.00125456 -9.96142e-05 -7.29497e-24)
(0.00147538 -3.69674e-05 1.08117e-23)
(0.00168668 1.38313e-05 -4.05885e-24)
(0.00189366 5.37414e-05 -4.04587e-24)
(0.00209675 8.52036e-05 4.66085e-24)
(0.00229702 0.000110201 -9.35567e-24)
(0.0024956 0.000130308 5.35277e-25)
(0.00269332 0.000146774 5.98263e-24)
(0.00289089 0.000160617 -1.1604e-24)
(0.00308887 0.000172728 1.2716e-24)
(0.00328786 0.000183941 -1.14807e-25)
(0.00348857 0.000195114 8.44939e-25)
(0.003692 0.000206976 -3.11828e-24)
(0.00389971 0.000220091 1.72726e-24)
(0.0041141 0.000234988 -5.83448e-25)
(0.00433822 0.00025189 1.9262e-26)
(0.00457665 0.000269938 1.47359e-24)
(0.00483511 0.000286966 -9.3659e-25)
(0.0051208 0.000297712 1.20569e-25)
(0.00543921 0.000293109 -1.05557e-25)
(0.00576544 0.00026013 1.95272e-25)
(0.00605622 0.000196792 7.27611e-25)
(0.00629698 0.000109513 -1.3088e-24)
(0.00648729 5.0254e-06 -8.47617e-25)
(0.00662831 -0.000111258 5.14027e-26)
(0.00672231 -0.000235517 2.07282e-24)
(0.00677144 -0.000364152 2.76618e-24)
(0.00677721 -0.000493329 -5.42306e-24)
(0.00674059 -0.00061874 4.41404e-24)
(0.00666234 -0.000735415 -3.89047e-24)
(0.00654335 -0.000837651 9.42817e-25)
(0.00638483 -0.000919057 -5.5387e-25)
(0.00618843 -0.000972594 4.90259e-25)
(0.00595614 -0.000990511 6.77739e-24)
(0.00569018 -0.000964068 -1.44813e-24)
(0.00539292 -0.000882805 2.2555e-24)
(0.00506696 -0.000733151 1.36688e-24)
(0.00471562 -0.000496653 -1.16435e-23)
(0.00434228 -0.000150609 -1.46018e-25)
(0.00395182 0.000322462 5.21686e-24)
(0.00353343 0.000900236 1.84935e-24)
(0.00310536 0.00147405 -7.4851e-24)
(0.00286198 0.00168739 -3.87827e-25)
(0.00170666 -0.000326797 -2.82274e-24)
(0.00175851 -0.000287081 -4.10849e-24)
(0.00188955 -0.000213216 8.54429e-24)
(0.00205518 -0.00014317 4.15332e-24)
(0.00223099 -8.21631e-05 -1.45495e-23)
(0.00241272 -3.20042e-05 1.57441e-23)
(0.00259671 8.68052e-06 -5.67215e-24)
(0.00278171 4.17743e-05 4.6582e-24)
(0.00296751 6.89586e-05 -6.14967e-24)
(0.00315422 9.16331e-05 6.22866e-26)
(0.0033421 0.000110954 -3.3851e-24)
(0.00353147 0.000127914 6.74073e-24)
(0.00372278 0.000143411 -3.77811e-24)
(0.00391664 0.000158338 -3.55384e-24)
(0.00411394 0.000173427 -2.55035e-24)
(0.00431618 0.000189216 4.57434e-24)
(0.00452563 0.000206231 -6.56143e-25)
(0.00474513 0.000224675 2.66485e-24)
(0.004979 0.000243661 4.93483e-25)
(0.00523258 0.000261051 -8.38688e-25)
(0.00551273 0.000271771 -3.66656e-25)
(0.00582471 0.000267189 -2.22293e-25)
(0.00614456 0.000234978 1.06282e-24)
(0.00643037 0.000173618 1.23682e-24)
(0.00666805 8.94405e-05 -1.1611e-24)
(0.00685699 -1.09694e-05 -5.24552e-24)
(0.00699807 -0.000122321 6.95903e-24)
(0.00709322 -0.000240779 -4.74666e-24)
(0.00714446 -0.000362697 1.58303e-24)
(0.00715329 -0.000484136 -8.87408e-25)
(0.00712081 -0.000600704 6.44118e-24)
(0.00704806 -0.00070739 -8.05595e-24)
(0.00693629 -0.000798509 3.31244e-24)
(0.00678722 -0.000867732 2.03852e-24)
(0.00660317 -0.000908103 -6.32885e-24)
(0.00638707 -0.000911968 1.93181e-24)
(0.00614247 -0.00087071 1.29538e-23)
(0.00587381 -0.000774121 -3.23131e-24)
(0.0055869 -0.000609238 -1.10715e-23)
(0.00529049 -0.000358732 -7.05073e-24)
(0.00499792 -1.21043e-06 1.61184e-23)
(0.00473202 0.000480471 -1.59374e-23)
(0.00451803 0.00106387 -4.05655e-24)
(0.00439815 0.00162797 1.06314e-23)
(0.00442507 0.00177856 3.77549e-24)
(0.00264697 -0.000332666 -3.24038e-26)
(0.00265171 -0.000331538 -4.63892e-24)
(0.00270417 -0.000288446 9.10622e-24)
(0.00280556 -0.000228369 7.9837e-24)
(0.0029323 -0.000167806 -1.29409e-23)
(0.00307597 -0.000113365 2.53888e-25)
(0.00323 -6.67574e-05 1.28818e-24)
(0.00339072 -2.74072e-05 1.42813e-23)
(0.00355621 5.82094e-06 -1.69547e-23)
(0.0037255 3.41212e-05 1.06025e-23)
(0.00389817 5.8595e-05 3.34028e-24)
(0.00407408 8.02285e-05 -1.80796e-23)
(0.00425343 9.99217e-05 6.54755e-24)
(0.00443661 0.000118575 2.70377e-24)
(0.00462436 0.000136893 -5.8491e-24)
(0.00481803 0.000155369 9.72819e-24)
(0.00501976 0.000174524 -7.05606e-24)
(0.00523214 0.000194542 -2.37969e-25)
(0.00545919 0.000214496 5.27455e-25)
(0.00570586 0.000232277 6.37354e-25)
(0.00597858 0.000243002 8.10993e-26)
(0.00628236 0.00023847 3.96517e-25)
(0.00659416 0.000207066 -1.06915e-24)
(0.0068736 0.000147743 3.14175e-24)
(0.007107 6.67475e-05 -4.84629e-24)
(0.00729361 -2.94792e-05 2.76577e-24)
(0.00743398 -0.000135711 -6.08264e-24)
(0.00752972 -0.000248146 8.17351e-24)
(0.00758268 -0.000363081 -7.14157e-24)
(0.00759438 -0.000476475 6.17096e-25)
(0.00756606 -0.000583853 5.25364e-25)
(0.00749906 -0.000680176 9.46495e-24)
(0.00739505 -0.000759805 -2.90618e-24)
(0.00725631 -0.000816527 1.16092e-24)
(0.00708586 -0.000843586 -6.24901e-24)
(0.00688764 -0.000833631 1.41663e-23)
(0.00666662 -0.000778538 -1.04787e-23)
(0.00642928 -0.00066901 1.76599e-23)
(0.00618448 -0.000493919 -3.44069e-23)
(0.00594553 -0.000239525 1.32503e-23)
(0.00573277 0.000109306 4.78097e-24)
(0.00557823 0.000560779 7.91315e-24)
(0.00551881 0.00108434 -9.86681e-24)
(0.00558068 0.00155856 3.11658e-24)
(0.00574352 0.00167341 -1.95606e-24)
(0.00371459 -0.000313282 -1.21637e-24)
(0.00369206 -0.000336328 -1.90042e-24)
(0.00369647 -0.000320415 -8.20606e-24)
(0.00373619 -0.000283019 2.08846e-24)
(0.00380965 -0.000232936 1.40211e-24)
(0.00390705 -0.000181897 6.71269e-24)
(0.00402194 -0.000134603 -1.44627e-23)
(0.00414958 -9.24396e-05 5.42612e-24)
(0.00428676 -5.54187e-05 1.87672e-23)
(0.00443147 -2.29813e-05 -4.94257e-24)
(0.00458249 5.64273e-06 -4.7507e-24)
(0.00473917 3.12616e-05 -7.71226e-25)
(0.00490133 5.46695e-05 2.60226e-24)
(0.0050691 7.67095e-05 -5.17056e-24)
(0.00524298 9.80139e-05 1.15707e-24)
(0.00542416 0.000118993 -5.16575e-25)
(0.00561461 0.000140149 -2.90495e-24)
(0.00581665 0.000161638 9.26602e-25)
(0.00603397 0.000182485 5.24783e-24)
(0.00627109 0.000200602 -5.78338e-25)
(0.00653397 0.000211301 -1.24822e-24)
(0.00682725 0.000206816 -3.47133e-25)
(0.00712891 0.000176262 -1.88822e-24)
(0.00740016 0.00011907 -4.85929e-26)
(0.00762772 4.13901e-05 -4.22709e-24)
(0.00781067 -5.047e-05 7.40447e-24)
(0.00794921 -0.000151337 -6.11664e-24)
(0.00804465 -0.000257447 1.16757e-23)
(0.00809867 -0.000365059 -9.75172e-24)
(0.0081128 -0.000470044 2.28932e-24)
(0.00808848 -0.000567869 3.79965e-24)
(0.00802735 -0.000653514 -1.93254e-25)
(0.00793155 -0.000721447 -3.67167e-25)
(0.00780391 -0.000765683 -8.05264e-25)
(0.00764822 -0.000779834 5.999e-25)
(0.00746939 -0.000757123 -4.71239e-24)
(0.00727369 -0.000690349 2.35936e-23)
(0.00706936 -0.000571792 -1.23911e-23)
(0.00686746 -0.000393185 -1.90479e-25)
(0.00668379 -0.000145973 -3.2012e-23)
(0.00654076 0.000176486 2.44311e-23)
(0.00646947 0.000571748 -9.50922e-24)
(0.00650214 0.0010061 1.80999e-24)
(0.00664744 0.00138429 1.29533e-23)
(0.0068687 0.00152106 -3.42566e-24)
(0.00490629 -0.00028347 -5.05515e-24)
(0.00487321 -0.000316581 1.03837e-23)
(0.00484944 -0.000319175 3.01019e-24)
(0.00484892 -0.000303322 1.30941e-23)
(0.00487243 -0.000271235 -3.22802e-23)
(0.00492277 -0.000230141 -1.00726e-24)