/*--------------------------------*- C++ -*----------------------------------*\
| =========                 |                                                 |
| \\      /  F ield         | OpenFOAM: The Open Source CFD Toolbox           |
|  \\    /   O peration     | Version:  2312                                  |
|   \\  /    A nd           | Website:  www.openfoam.com                      |
|    \\/     M anipulation  |                                                 |
\*---------------------------------------------------------------------------*/
FoamFile
{
    version     2.0;
    format      ascii;
    arch        "LSB;label=32;scalar=64";
    class       surfaceScalarField;
    location    "96.75";
    object      phi;
}
// * * * * * * * * * * * * * * * * * * * * * * * * * * * * * * * * * * * * * //

dimensions      [0 3 -1 0 0 0 0];

oriented        oriented;

internalField   nonuniform List<scalar> 
9445
(
6.01657e-10
1.72008e-11
5.89968e-10
1.16888e-11
5.81985e-10
7.98296e-12
5.76681e-10
5.3043e-12
5.73437e-10
3.24403e-12
5.71864e-10
1.57295e-12
5.71772e-10
9.21904e-14
5.7319e-10
-1.41852e-12
5.76061e-10
-2.87099e-12
5.80746e-10
-4.68487e-12
5.88419e-10
-7.67353e-12
6.02625e-10
-1.42059e-11
6.3588e-10
-3.32545e-11
7.3241e-10
-9.65306e-11
-2.53647e-10
9.86057e-10
2.09469e-09
7.63091e-11
2.05421e-09
5.21707e-11
2.02629e-09
3.59048e-11
2.00743e-09
2.41585e-11
1.99551e-09
1.5166e-11
1.98917e-09
7.91928e-12
1.98771e-09
1.5507e-12
1.99095e-09
-4.6561e-12
1.99879e-09
-1.07148e-11
2.01242e-09
-1.83123e-11
2.03474e-09
-2.99968e-11
2.07255e-09
-5.2014e-11
2.13934e-09
-1.0005e-10
2.24829e-09
-2.05479e-10
-3.70048e-10
2.36469e-09
4.12551e-09
1.9064e-10
4.04672e-09
1.30965e-10
3.99194e-09
9.06845e-11
3.95447e-09
6.16274e-11
3.93016e-09
3.94773e-11
3.91631e-09
2.17676e-11
3.91152e-09
6.34316e-12
3.915e-09
-8.14216e-12
3.92652e-09
-2.22332e-11
3.94754e-09
-3.9335e-11
3.98089e-09
-6.33471e-11
4.03107e-09
-1.02189e-10
4.10091e-09
-1.69891e-10
4.17691e-09
-2.81475e-10
-4.14804e-10
4.22166e-09
6.8409e-09
3.75409e-10
6.71259e-09
2.5928e-10
6.62259e-09
1.80688e-10
6.56018e-09
1.24034e-10
6.51863e-09
8.10237e-11
6.4935e-09
4.68986e-11
6.48224e-09
1.76092e-11
6.48311e-09
-9.01957e-12
6.49545e-09
-3.45686e-11
6.5198e-09
-6.36884e-11
6.55721e-09
-1.00757e-10
6.60707e-09
-1.52043e-10
6.66282e-09
-2.25642e-10
6.70438e-09
-3.23038e-10
-4.18717e-10
6.70829e-09
1.04192e-08
6.46478e-10
1.02291e-08
4.49402e-10
1.00943e-08
3.15452e-10
9.99949e-09
2.18866e-10
9.93471e-09
1.45802e-10
9.89335e-09
8.82565e-11
9.87112e-09
3.98433e-11
9.86518e-09
-3.0831e-12
9.87382e-09
-4.32123e-11
9.89559e-09
-8.54516e-11
9.92877e-09
-1.3394e-10
9.96848e-09
-1.91753e-10
1.00039e-08
-2.61106e-10
1.0018e-08
-3.37052e-10
-4.00566e-10
9.99981e-09
1.50723e-08
1.01735e-09
1.48086e-08
7.13013e-10
1.46194e-08
5.04715e-10
1.4484e-08
3.54219e-10
1.43892e-08
2.40661e-10
1.43256e-08
1.51805e-10
1.42869e-08
7.85363e-11
1.42686e-08
1.52285e-11
1.42673e-08
-4.19409e-11
1.42796e-08
-9.76855e-11
1.43007e-08
-1.55038e-10
1.43236e-08
-2.14681e-10
1.43378e-08
-2.75278e-10
1.43318e-08
-3.3112e-10
-3.71453e-10
1.43027e-08
2.10436e-08
1.49348e-09
2.06989e-08
1.05773e-09
2.04473e-08
7.56244e-10
2.02642e-08
5.37399e-10
2.01325e-08
3.72367e-10
2.00403e-08
2.43908e-10
1.99791e-08
1.39831e-10
1.9942e-08
5.22323e-11
1.9924e-08
-2.39204e-11
1.99194e-08
-9.30909e-11
1.99218e-08
-1.57452e-10
1.99239e-08
-2.16691e-10
1.99174e-08
-2.68781e-10
1.98963e-08
-3.10028e-10
-3.3595e-10
1.98608e-08
2.86007e-08
2.06343e-09
2.81772e-08
1.48122e-09
2.78616e-08
1.07185e-09
2.76269e-08
7.72153e-10
2.74536e-08
5.45636e-10
2.73277e-08
3.69864e-10
2.72381e-08
2.29404e-10
2.71763e-08
1.14006e-10
2.71351e-08
1.72724e-11
2.71074e-08
-6.54217e-11
2.70863e-08
-1.36285e-10
2.7065e-08
-1.95447e-10
2.70384e-08
-2.42105e-10
2.70035e-08
-2.752e-10
-2.94086e-10
2.69617e-08
3.80218e-08
2.68894e-09
3.75395e-08
1.96351e-09
3.71697e-08
1.44161e-09
3.68875e-08
1.05436e-09
3.66733e-08
7.59852e-10
3.65119e-08
5.31333e-10
3.63908e-08
3.50418e-10
3.63002e-08
2.04665e-10
3.62314e-08
8.6075e-11
3.61766e-08
-1.06443e-11
3.61292e-08
-8.89179e-11
3.6084e-08
-1.50162e-10
3.60374e-08
-1.95556e-10
3.59885e-08
-2.26291e-10
-2.43855e-10
3.59383e-08
4.95852e-08
3.30204e-09
4.90871e-08
2.46168e-09
4.86901e-08
1.83856e-09
4.83772e-08
1.3673e-09
4.81319e-08
1.0051e-09
4.79402e-08
7.22999e-10
4.779e-08
5.00668e-10
4.76708e-08
3.23907e-10
4.75737e-08
1.83092e-10
4.74916e-08
7.14981e-11
4.74184e-08
-1.56937e-11
4.73502e-08
-8.19546e-11
4.72848e-08
-1.30147e-10
4.72216e-08
-1.63119e-10
-1.83506e-10
4.71612e-08
6.35862e-08
3.82276e-09
6.31315e-08
2.91643e-09
6.275e-08
2.22007e-09
6.24365e-08
1.68082e-09
6.21813e-08
1.2603e-09
6.19739e-08
9.30374e-10
6.18043e-08
6.70296e-10
6.16633e-08
4.64863e-10
6.15433e-08
3.03041e-10
6.14383e-08
1.76567e-10
6.13435e-08
7.90539e-11
6.12562e-08
5.35391e-12
6.11748e-08
-4.87661e-11
6.10989e-08
-8.71717e-11
-1.13104e-10
6.10285e-08
8.04077e-08
4.20121e-09
8.00457e-08
3.27843e-09
7.97219e-08
2.54386e-09
7.94419e-08
1.96084e-09
7.92033e-08
1.49881e-09
7.90009e-08
1.13287e-09
7.88278e-08
8.43314e-10
7.8678e-08
6.14748e-10
7.85458e-08
4.3522e-10
7.84271e-08
2.95258e-10
7.83189e-08
1.87264e-10
7.82193e-08
1.04974e-10
7.81272e-08
4.32585e-11
7.80423e-08
-2.29443e-12
-3.5149e-11
7.79644e-08
1.00619e-07
4.45014e-09
1.00357e-07
3.53973e-09
1.00107e-07
2.79374e-09
9.98791e-08
2.18913e-09
9.96747e-08
1.70317e-09
9.94928e-08
1.31475e-09
9.93304e-08
1.00574e-09
9.91841e-08
7.61037e-10
9.9051e-08
5.68291e-10
9.89289e-08
4.17344e-10
9.88163e-08
2.99918e-10
9.87121e-08
2.09176e-10
9.86158e-08
1.39595e-10
9.85269e-08
8.6555e-11
4.64001e-11
9.84454e-08
1.24971e-07
4.61866e-09
1.24781e-07
3.72994e-09
1.24589e-07
2.9861e-09
1.24404e-07
2.37378e-09
1.24231e-07
1.87631e-09
1.2407e-07
1.47566e-09
1.23921e-07
1.15507e-09
1.23782e-07
8.99851e-10
1.23653e-07
6.97604e-10
1.23532e-07
5.37933e-10
1.2342e-07
4.12321e-10
1.23315e-07
3.13761e-10
1.23218e-07
2.36615e-10
1.23128e-07
1.76238e-10
1.28974e-10
1.23046e-07
1.54199e-07
4.73083e-09
1.54057e-07
3.87197e-09
1.53903e-07
3.14039e-09
1.53746e-07
2.53039e-09
1.53592e-07
2.03022e-09
1.53444e-07
1.62434e-09
1.53301e-07
1.29733e-09
1.53166e-07
1.03514e-09
1.53038e-07
8.25666e-10
1.52917e-07
6.58627e-10
1.52804e-07
5.25585e-10
1.52698e-07
4.19594e-10
1.526e-07
3.35079e-10
1.52508e-07
2.67482e-10
2.13214e-10
1.52424e-07
1.88771e-07
4.77448e-09
1.88684e-07
3.95945e-09
1.8857e-07
3.25392e-09
1.88442e-07
2.65865e-09
1.88307e-07
2.16553e-09
1.88169e-07
1.76163e-09
1.88033e-07
1.43328e-09
1.87901e-07
1.1676e-09
1.87773e-07
9.53168e-10
1.87652e-07
7.80205e-10
1.87537e-07
6.4061e-10
1.87429e-07
5.27702e-10
1.87328e-07
4.36105e-10
1.87234e-07
3.61427e-10
3.00201e-10
1.87147e-07
2.28791e-07
4.73336e-09
2.28769e-07
3.98138e-09
2.28708e-07
3.31478e-09
2.28619e-07
2.74831e-09
2.28511e-07
2.27317e-09
2.28393e-07
1.87944e-09
2.28271e-07
1.55588e-09
2.28147e-07
1.29122e-09
2.28025e-07
1.07509e-09
2.27907e-07
8.98523e-10
2.27793e-07
7.54011e-10
2.27686e-07
6.35324e-10
2.27584e-07
5.37411e-10
2.2749e-07
4.5614e-10
3.88241e-10
2.27402e-07
2.73823e-07
4.60343e-09
2.73875e-07
3.92967e-09
2.73872e-07
3.31746e-09
2.73829e-07
2.79119e-09
2.73758e-07
2.34406e-09
2.73669e-07
1.96896e-09
2.73568e-07
1.65703e-09
2.7346e-07
1.3987e-09
2.7335e-07
1.18499e-09
2.73241e-07
1.00793e-09
2.73134e-07
8.60811e-10
2.73031e-07
7.3802e-10
2.72934e-07
6.34963e-10
2.72842e-07
5.47858e-10
4.73795e-10
2.72757e-07
3.22401e-07
4.38767e-09
3.22539e-07
3.7918e-09
3.2261e-07
3.24691e-09
3.22629e-07
2.77145e-09
3.2261e-07
2.36342e-09
3.22562e-07
2.01697e-09
3.22494e-07
1.72492e-09
3.22413e-07
1.4796e-09
3.22325e-07
1.27358e-09
3.22232e-07
1.10016e-09
3.2214e-07
9.53628e-10
3.22049e-07
8.29144e-10
3.21961e-07
7.22692e-10
3.21878e-07
6.30936e-10
5.51282e-10
3.218e-07
3.71385e-07
4.04694e-09
3.71635e-07
3.54181e-09
3.71801e-07
3.08081e-09
3.71903e-07
2.66996e-09
3.71954e-07
2.31219e-09
3.71967e-07
2.00426e-09
3.71951e-07
1.74073e-09
3.71915e-07
1.5156e-09
3.71865e-07
1.3232e-09
3.71807e-07
1.15825e-09
3.71745e-07
1.01616e-09
3.71681e-07
8.93018e-10
3.71618e-07
7.85469e-10
3.71558e-07
6.90734e-10
6.06645e-10
3.71503e-07
3.68809e-07
3.66279e-09
3.69105e-07
3.24528e-09
3.69325e-07
2.86157e-09
3.6948e-07
2.5149e-09
3.69584e-07
2.2084e-09
3.69647e-07
1.94061e-09
3.6968e-07
1.70779e-09
3.6969e-07
1.50551e-09
3.69684e-07
1.32941e-09
3.69667e-07
1.17547e-09
3.69643e-07
1.04014e-09
3.69616e-07
9.20301e-10
3.69588e-07
8.13328e-10
3.69561e-07
7.16979e-10
6.29687e-10
3.69538e-07
3.15974e-07
3.22966e-09
3.16323e-07
2.89671e-09
3.16599e-07
2.58578e-09
3.16812e-07
2.30172e-09
3.16973e-07
2.04717e-09
3.17092e-07
1.82139e-09
3.17178e-07
1.62192e-09
3.17238e-07
1.44561e-09
3.17278e-07
1.28931e-09
3.17304e-07
1.15005e-09
3.17319e-07
1.02518e-09
3.17327e-07
9.1238e-10
3.1733e-07
8.09654e-10
3.17332e-07
7.1529e-10
6.27866e-10
3.17334e-07
2.64369e-07
2.83022e-09
2.64705e-07
2.56145e-09
2.64983e-07
2.30746e-09
2.65211e-07
2.07367e-09
2.65396e-07
1.86181e-09
2.65546e-07
1.67141e-09
2.65668e-07
1.50066e-09
2.65766e-07
1.34734e-09
2.65846e-07
1.20912e-09
2.65912e-07
1.0838e-09
2.65968e-07
9.6942e-10
2.66016e-07
8.64241e-10
2.66059e-07
7.66711e-10
2.66099e-07
6.75586e-10
5.89803e-10
2.66137e-07
2.17646e-07
2.44846e-09
2.17975e-07
2.23224e-09
2.18256e-07
2.02631e-09
2.18495e-07
1.8351e-09
2.18696e-07
1.65997e-09
2.18867e-07
1.50048e-09
2.19013e-07
1.35538e-09
2.19137e-07
1.22305e-09
2.19244e-07
1.1018e-09
2.19338e-07
9.90045e-10
2.19421e-07
8.8633e-10
2.19496e-07
7.89368e-10
2.19565e-07
6.98069e-10
2.19629e-07
6.11497e-10
5.28919e-10
2.1969e-07
1.76782e-07
2.07924e-09
1.77107e-07
1.90718e-09
1.77391e-07
1.74231e-09
1.77638e-07
1.58784e-09
1.77853e-07
1.44477e-09
1.78041e-07
1.31273e-09
1.78205e-07
1.19085e-09
1.78351e-07
1.07796e-09
1.78479e-07
9.72894e-10
1.78595e-07
8.74521e-10
1.787e-07
7.8181e-10
1.78795e-07
6.93881e-10
1.78883e-07
6.09966e-10
1.78965e-07
5.29411e-10
4.51711e-10
1.79042e-07
1.41971e-07
1.72659e-09
1.42286e-07
1.59196e-09
1.42566e-07
1.46213e-09
1.42815e-07
1.33935e-09
1.43035e-07
1.22426e-09
1.43231e-07
1.11658e-09
1.43406e-07
1.01569e-09
1.43564e-07
9.20848e-10
1.43705e-07
8.31245e-10
1.43834e-07
7.46131e-10
1.43951e-07
6.64825e-10
1.44058e-07
5.86735e-10
1.44156e-07
5.11386e-10
1.44247e-07
4.38357e-10
3.67301e-10
1.44332e-07
1.12882e-07
1.39897e-09
1.13179e-07
1.29589e-09
1.13445e-07
1.19571e-09
1.13684e-07
1.10003e-09
1.13899e-07
1.00917e-09
1.14093e-07
9.22933e-10
1.14268e-07
8.40953e-10
1.14426e-07
7.62764e-10
1.14569e-07
6.87876e-10
1.147e-07
6.15815e-10
1.14818e-07
5.46164e-10
1.14926e-07
4.78575e-10
1.15025e-07
4.12762e-10
1.15115e-07
3.48505e-10
2.85628e-10
1.15197e-07
8.89137e-08
1.10499e-09
8.91815e-08
1.02803e-09
8.94247e-08
9.52577e-10
8.9645e-08
8.79724e-10
8.98446e-08
8.09552e-10
9.00256e-08
7.41973e-10
9.01897e-08
6.76811e-10
9.03386e-08
6.1382e-10
9.04738e-08
5.52722e-10
9.05964e-08
4.93257e-10
9.07073e-08
4.35204e-10
9.08075e-08
3.78385e-10
9.08976e-08
3.22668e-10
9.09781e-08
2.67956e-10
2.14195e-10
9.10496e-08
6.93705e-08
8.50477e-10
6.96038e-08
7.94641e-10
6.9817e-08
7.3938e-10
7.00114e-08
6.85355e-10
7.01885e-08
6.32513e-10
7.03496e-08
5.80871e-10
7.0496e-08
5.30392e-10
7.06288e-08
4.8097e-10
7.07491e-08
4.3248e-10
7.08575e-08
3.8481e-10
7.09548e-08
3.37872e-10
7.10416e-08
2.91609e-10
7.11183e-08
2.45989e-10
7.11853e-08
2.01001e-10
1.56667e-10
7.12428e-08
5.35729e-08
6.37499e-10
5.37693e-08
5.98254e-10
5.39496e-08
5.59063e-10
5.41148e-08
5.20173e-10
5.42658e-08
4.81502e-10
5.44035e-08
4.43155e-10
5.45287e-08
4.05169e-10
5.46422e-08
3.67529e-10
5.47444e-08
3.30208e-10
5.4836e-08
2.93188e-10
5.49175e-08
2.56467e-10
5.4989e-08
2.20055e-10
5.5051e-08
1.83986e-10
5.51037e-08
1.48301e-10
1.13052e-10
5.51473e-08
4.09031e-08
4.64727e-10
4.10632e-08
4.3812e-10
4.1211e-08
4.1133e-10
4.13469e-08
3.84247e-10
4.14715e-08
3.56847e-10
4.15854e-08
3.29277e-10
4.1689e-08
3.01607e-10
4.17826e-08
2.73873e-10
4.18668e-08
2.46102e-10
4.19416e-08
2.18329e-10
4.20075e-08
1.90597e-10
4.20646e-08
1.62953e-10
4.21131e-08
1.35458e-10
4.21532e-08
1.08182e-10
8.11851e-11
4.21851e-08
3.08205e-08
3.28523e-10
3.09474e-08
3.11221e-10
3.1065e-08
2.93664e-10
3.11738e-08
2.75496e-10
3.12738e-08
2.56785e-10
3.13654e-08
2.37679e-10
3.14488e-08
2.18252e-10
3.15241e-08
1.98561e-10
3.15915e-08
1.78658e-10
3.16513e-08
1.586e-10
3.17034e-08
1.38445e-10
3.17481e-08
1.18255e-10
3.17855e-08
9.80999e-11
3.18156e-08
7.80537e-11
5.81742e-11
3.18386e-08
2.2861e-08
2.24053e-10
2.29588e-08
2.13345e-10
2.30501e-08
2.02389e-10
2.31349e-08
1.90719e-10
2.32132e-08
1.78483e-10
2.32851e-08
1.65798e-10
2.33506e-08
1.52728e-10
2.34098e-08
1.39333e-10
2.34628e-08
1.25669e-10
2.35096e-08
1.11794e-10
2.35503e-08
9.7767e-11
2.35849e-08
8.36482e-11
2.36135e-08
6.95014e-11
2.36362e-08
5.53963e-11
4.13778e-11
2.3653e-08
1.66308e-08
1.46157e-10
1.67043e-08
1.39918e-10
1.67732e-08
1.33471e-10
1.68375e-08
1.26359e-10
1.68973e-08
1.1877e-10
1.69523e-08
1.10775e-10
1.70026e-08
1.02425e-10
1.70481e-08
9.37708e-11
1.7089e-08
8.48597e-11
1.7125e-08
7.57425e-11
1.71563e-08
6.64683e-11
1.71829e-08
5.7088e-11
1.72047e-08
4.76536e-11
1.72219e-08
3.82232e-11
2.88303e-11
1.72344e-08
1.17986e-08
8.99018e-11
1.1852e-08
8.65307e-11
1.19025e-08
8.30071e-11
1.19499e-08
7.89601e-11
1.19941e-08
7.45642e-11
1.2035e-08
6.98512e-11
1.20726e-08
6.48581e-11
1.21067e-08
5.96217e-11
1.21374e-08
5.41779e-11
1.21646e-08
4.85646e-11
1.21882e-08
4.28182e-11
1.22083e-08
3.69766e-11
1.22249e-08
3.10779e-11
1.2238e-08
2.51664e-11
1.92673e-11
1.22475e-08
8.08756e-09
5.08653e-11
8.12488e-09
4.92123e-11
8.16041e-09
4.74718e-11
8.19399e-09
4.53797e-11
8.22549e-09
4.3064e-11
8.25481e-09
4.05317e-11
8.28186e-09
3.78067e-11
8.30657e-09
3.49126e-11
8.32888e-09
3.18729e-11
8.34873e-09
2.87125e-11
8.36609e-09
2.54553e-11
8.38094e-09
2.21265e-11
8.39327e-09
1.87505e-11
8.40308e-09
1.53583e-11
1.19695e-11
8.41038e-09
5.26846e-09
2.52467e-11
5.29314e-09
2.45345e-11
5.31681e-09
2.37983e-11
5.33932e-09
2.2868e-11
5.36057e-09
2.18142e-11
5.38047e-09
2.06343e-11
5.39894e-09
1.93416e-11
5.4159e-09
1.7949e-11
5.4313e-09
1.64696e-11
5.4451e-09
1.49175e-11
5.45725e-09
1.33061e-11
5.46772e-09
1.16498e-11
5.47651e-09
9.96184e-12
5.48361e-09
8.2612e-12
6.56345e-12
5.48902e-09
3.15328e-09
9.87299e-12
3.1682e-09
9.61626e-12
3.18262e-09
9.3825e-12
3.19641e-09
9.06979e-12
3.20953e-09
8.70233e-12
3.22188e-09
8.27742e-12
3.23342e-09
7.80086e-12
3.24409e-09
7.2784e-12
3.25385e-09
6.71574e-12
3.26265e-09
6.11925e-12
3.27046e-09
5.49461e-12
3.27726e-09
4.84844e-12
3.28303e-09
4.18622e-12
3.28778e-09
3.51732e-12
2.85329e-12
3.29149e-09
1.58911e-09
2.15057e-12
1.59665e-09
2.08029e-12
1.60398e-09
2.04758e-12
1.61105e-09
1.99803e-12
1.61782e-09
1.93332e-12
1.62425e-09
1.85316e-12
1.63029e-09
1.75917e-12
1.63591e-09
1.65298e-12
1.64109e-09
1.53609e-12
1.6458e-09
1.41024e-12
1.65002e-09
1.27684e-12
1.65373e-09
1.13769e-12
1.65692e-09
9.93983e-13
1.65959e-09
8.48573e-13
7.08162e-13
1.66174e-09
4.52727e-10
4.54807e-10
4.56854e-10
4.58852e-10
4.60786e-10
4.62639e-10
4.64398e-10
4.66051e-10
4.67587e-10
4.68997e-10
4.70274e-10
4.71412e-10
4.72406e-10
4.73255e-10
4.73963e-10
1.17556e-09
-5.04777e-10
3.15273e-10
1.44444e-09
-4.57909e-10
1.89028e-10
1.71296e-09
-3.45487e-10
7.69668e-11
1.97528e-09
-2.26676e-10
-3.56467e-11
2.2301e-09
-1.0494e-10
-1.49872e-10
2.47856e-09
1.54369e-11
-2.63905e-10
2.72265e-09
1.36003e-10
-3.80092e-10
2.96409e-09
2.59471e-10
-5.00907e-10
3.20432e-09
3.88967e-10
-6.29198e-10
3.44449e-09
5.28011e-10
-7.68177e-10
3.68549e-09
6.80678e-10
-9.21678e-10
3.92811e-09
8.5206e-10
-1.09468e-09
4.17322e-09
1.04881e-09
-1.29392e-09
4.42198e-09
1.28004e-09
-1.5288e-09
4.67614e-09
1.55703e-09
-1.81119e-09
4.93852e-09
1.89241e-09
-2.15479e-09
5.21316e-09
2.30165e-09
-2.57629e-09
5.50566e-09
2.80066e-09
-3.09316e-09
5.82371e-09
3.39416e-09
-3.71221e-09
6.17676e-09
4.0637e-09
-4.41676e-09
6.57364e-09
4.73085e-09
-5.12773e-09
7.0175e-09
5.21073e-09
-5.65459e-09
7.42792e-09
4.43225e-09
-4.84267e-09
7.76598e-09
3.02737e-09
-3.36544e-09
8.02827e-09
1.53045e-09
-1.79274e-09
8.21667e-09
9.04151e-11
-2.78809e-10
8.33547e-09
-1.20531e-09
1.08651e-09
8.39001e-09
-2.31963e-09
2.26509e-09
8.38553e-09
-3.23639e-09
3.24086e-09
8.32675e-09
-3.94885e-09
4.00763e-09
8.21789e-09
-4.45682e-09
4.56568e-09
8.06303e-09
-4.7647e-09
4.91956e-09
7.86621e-09
-4.88034e-09
5.07715e-09
7.63148e-09
-4.81462e-09
5.04935e-09
7.36269e-09
-4.5809e-09
4.84969e-09
7.06326e-09
-4.194e-09
4.49344e-09
6.73593e-09
-3.66871e-09
3.99604e-09
6.38276e-09
-3.01752e-09
3.3707e-09
6.00525e-09
-2.24776e-09
2.62528e-09
5.60399e-09
-1.35932e-09
1.76058e-09
5.17628e-09
-3.49487e-10
7.77202e-10
4.71004e-09
7.664e-10
-3.00158e-10
4.18386e-09
1.89087e-09
-1.36469e-09
3.60259e-09
2.78289e-09
-2.20163e-09
2.75108e-09
3.25782e-09
-2.4063e-09
2.43757e-09
-5.77653e-10
2.59257e-09
-6.12912e-10
2.80327e-09
-5.56185e-10
3.03815e-09
-4.6155e-10
3.28365e-09
-3.50441e-10
3.53299e-09
-2.33904e-10
3.78395e-09
-1.14956e-10
4.03606e-09
7.35597e-12
4.28958e-09
1.35444e-10
4.54503e-09
2.72568e-10
4.80297e-09
4.22732e-10
5.06408e-09
5.90955e-10
5.3292e-09
7.83682e-10
5.59955e-09
1.0097e-09
5.87701e-09
1.27957e-09
6.16467e-09
1.60475e-09
6.46689e-09
1.99943e-09
6.78966e-09
2.47789e-09
7.14117e-09
3.04265e-09
7.53152e-09
3.67335e-09
7.97017e-09
4.2922e-09
8.4607e-09
4.72019e-09
8.91513e-09
3.97782e-09
9.29095e-09
2.65156e-09
9.58438e-09
1.23701e-09
9.79722e-09
-1.22418e-10
9.93384e-09
-1.34194e-09
9.99986e-09
-2.38564e-09
1.0001e-08
-3.23757e-09
9.94273e-09
-3.89054e-09
9.82993e-09
-4.34401e-09
9.66755e-09
-4.60232e-09
9.46065e-09
-4.67344e-09
9.21445e-09
-4.56842e-09
8.93426e-09
-4.3007e-09
8.62534e-09
-3.88509e-09
8.29302e-09
-3.33639e-09
7.94306e-09
-2.66756e-09
7.58293e-09
-1.88763e-09
7.22361e-09
-1.00001e-09
6.88205e-09
-7.9209e-12
6.58061e-09
1.06783e-09
6.35064e-09
2.12085e-09
6.24275e-09
2.89078e-09
2.81882e-09
6.17501e-09
4.2306e-09
-5.86594e-10
4.29422e-09
-6.76531e-10
4.42255e-09
-6.84515e-10
4.60118e-09
-6.40176e-10
4.8106e-09
-5.59862e-10
5.03876e-09
-4.62059e-10
5.27897e-09
-3.55173e-10
5.52766e-09
-2.41328e-10
5.78302e-09
-1.19914e-10
6.04431e-09
1.1277e-11
6.31137e-09
1.55671e-10
6.58443e-09
3.17888e-10
6.86417e-09
5.0395e-10
7.1517e-09
7.22168e-10
7.44897e-09
9.82295e-10
7.7593e-09
1.29441e-09
8.08735e-09
1.67138e-09
8.43944e-09
2.1258e-09
8.82421e-09
2.65788e-09
9.25236e-09
3.2452e-09
9.73389e-09
3.81067e-09
1.02728e-08
4.18131e-09
1.07731e-08
3.47745e-09
1.11887e-08
2.23601e-09
1.15152e-08
9.10502e-10
1.17543e-08
-3.61513e-10
1.19104e-08
-1.498e-09
1.19892e-08
-2.46453e-09
1.19973e-08
-3.24561e-09
1.19406e-08
-3.83382e-09
1.1825e-08
-4.22844e-09
1.16565e-08
-4.43387e-09
1.14415e-08
-4.45841e-09
1.11866e-08
-4.3135e-09
1.08989e-08
-4.013e-09
1.0586e-08
-3.5722e-09
1.02563e-08
-3.00673e-09
9.92007e-09
-2.3313e-09
9.59119e-09
-1.55875e-09
9.29105e-09
-6.99875e-10
9.052e-09
2.31134e-10
8.91913e-09
1.2007e-09
8.93368e-09
2.1063e-09
9.0909e-09
2.73357e-09
2.71533e-09
9.19438e-09
6.68016e-09
-5.58463e-10
6.6804e-09
-6.76774e-10
6.72921e-09
-7.33316e-10
6.8326e-09
-7.43573e-10
6.98245e-09
-7.09707e-10
7.16519e-09
-6.44802e-10
7.3725e-09
-5.62486e-10
7.59828e-09
-4.67104e-10
7.83859e-09
-3.6023e-10
8.09113e-09
-2.4126e-10
8.35465e-09
-1.07848e-10
8.6287e-09
4.38383e-11
8.91355e-09
2.191e-10
9.21012e-09
4.25597e-10
9.52031e-09
6.72103e-10
9.84763e-09
9.67096e-10
1.0197e-08
1.322e-09
1.0575e-08
1.74782e-09
1.09906e-08
2.24222e-09
1.14552e-08
2.78068e-09
1.1979e-08
3.28687e-09
1.25662e-08
3.59404e-09
1.31131e-08
2.93055e-09
1.35693e-08
1.77987e-09
1.39299e-08
5.49908e-10
1.41963e-08
-6.27934e-10
1.43728e-08
-1.67453e-09
1.44655e-08
-2.55723e-09
1.44813e-08
-3.26142e-09
1.44272e-08
-3.77972e-09
1.43102e-08
-4.11139e-09
1.41375e-08
-4.26114e-09
1.39168e-08
-4.23778e-09
1.36567e-08
-4.05341e-09
1.33664e-08
-3.72268e-09
1.30561e-08
-3.26189e-09
1.27376e-08
-2.68824e-09
1.24255e-08
-2.01918e-09
1.21393e-08
-1.27253e-09
1.19069e-08
-4.67522e-10
1.17676e-08
3.70458e-10
1.17688e-08
1.19947e-09
1.19411e-08
1.934e-09
1.22482e-08
2.42649e-09
2.4856e-09
1.24779e-08
9.95363e-09
-5.12285e-10
9.91163e-09
-6.34771e-10
9.89954e-09
-7.21228e-10
9.92896e-09
-7.72994e-10
1.0004e-08
-7.84708e-10
1.01214e-08
-7.6228e-10
1.02735e-08
-7.14588e-10
1.04541e-08
-6.47639e-10
1.06582e-08
-5.64344e-10
1.08824e-08
-4.65507e-10
1.11246e-08
-3.50011e-10
1.13835e-08
-2.15065e-10
1.1659e-08
-5.63638e-11
1.19516e-08
1.32939e-10
1.22633e-08
3.60459e-10
1.25976e-08
6.32751e-10
1.29598e-08
9.59792e-10
1.33566e-08
1.35102e-09
1.37975e-08
1.80139e-09
1.42939e-08
2.28425e-09
1.48566e-08
2.72419e-09
1.54897e-08
2.96092e-09
1.60815e-08
2.33872e-09
1.65774e-08
1.28403e-09
1.69716e-08
1.55653e-10
1.72653e-08
-9.21591e-10
1.74624e-08
-1.87166e-09
1.75692e-08
-2.66407e-09
1.75934e-08
-3.28557e-09
1.75428e-08
-3.72912e-09
1.74257e-08
-3.99426e-09
1.72508e-08
-4.08624e-09
1.70276e-08
-4.01461e-09
1.67666e-08
-3.7924e-09
1.64793e-08
-3.43537e-09
1.61786e-08
-2.96125e-09
1.58797e-08
-2.38929e-09
1.56006e-08
-1.74004e-09
1.53641e-08
-1.03607e-09
1.51998e-08
-3.03244e-10
1.5144e-08
4.26277e-10
1.52336e-08
1.10986e-09
1.54827e-08
1.68492e-09
1.5844e-08
2.06519e-09
2.16422e-09
1.61654e-08
1.42499e-08
-4.59459e-10
1.41862e-08
-5.71051e-10
1.41329e-08
-6.67983e-10
1.4103e-08
-7.43017e-10
1.41073e-08
-7.89042e-10
1.41508e-08
-8.05834e-10
1.42321e-08
-7.95869e-10
1.43478e-08
-7.63353e-10
1.44944e-08
-7.10859e-10
1.46685e-08
-6.39665e-10
1.48679e-08
-5.49445e-10
1.50912e-08
-4.38336e-10
1.5338e-08
-3.0313e-10
1.56087e-08
-1.37811e-10
1.59052e-08
6.39484e-11
1.62316e-08
3.06402e-10
1.65932e-08
5.98137e-10
1.69971e-08
9.47216e-10
1.74528e-08
1.34563e-09
1.79725e-08
1.76461e-09
1.85666e-08
2.13002e-09
1.92392e-08
2.28832e-09
1.98712e-08
1.70678e-09
2.04031e-08
7.52066e-10
2.08283e-08
-2.69569e-10
2.11473e-08
-1.2405e-09
2.13636e-08
-2.08798e-09
2.14837e-08
-2.78417e-09
2.15158e-08
-3.31774e-09
2.14691e-08
-3.68239e-09
2.13531e-08
-3.87823e-09
2.11782e-08
-3.91135e-09
2.09558e-08
-3.79227e-09
2.06986e-08
-3.53512e-09
2.04202e-08
-3.15702e-09
2.01363e-08
-2.67732e-09
1.98643e-08
-2.11728e-09
1.96244e-08
-1.50013e-09
1.94399e-08
-8.51612e-10
1.93373e-08
-2.00661e-10
1.93439e-08
4.19726e-10
1.94812e-08
9.72508e-10
1.97497e-08
1.41646e-09
2.01064e-08
1.70847e-09
1.81737e-09
2.04533e-08
1.98064e-08
-4.05112e-10
1.97355e-08
-5.00176e-10
1.96603e-08
-5.92764e-10
1.9592e-08
-6.74733e-10
1.95424e-08
-7.39397e-10
1.95197e-08
-7.83157e-10
1.95286e-08
-8.04763e-10
1.95704e-08
-8.05128e-10
1.96447e-08
-7.85203e-10
1.97506e-08
-7.45572e-10
1.9887e-08
-6.85852e-10
2.00533e-08
-6.04603e-10
2.02497e-08
-4.99539e-10
2.04771e-08
-3.65228e-10
2.07377e-08
-1.96626e-10
2.10363e-08
7.79013e-12
2.1379e-08
2.55484e-10
2.17727e-08
5.535e-10
2.22278e-08
8.90501e-10
2.27566e-08
1.23579e-09
2.33697e-08
1.517e-09
2.40702e-08
1.58778e-09
2.47329e-08
1.04409e-09
2.52936e-08
1.91363e-10
2.57439e-08
-7.19845e-10
2.60833e-08
-1.57995e-09
2.63152e-08
-2.31981e-09
2.64458e-08
-2.91483e-09
2.64843e-08
-3.35627e-09
2.64409e-08
-3.63893e-09
2.63266e-08
-3.76391e-09
2.61536e-08
-3.7384e-09
2.59354e-08
-3.57405e-09
2.56865e-08
-3.28624e-09
2.54229e-08
-2.89338e-09
2.51619e-08
-2.41629e-09
2.49223e-08
-1.87775e-09
2.47246e-08
-1.30242e-09
2.45898e-08
-7.16842e-10
2.45384e-08
-1.49234e-10
2.45869e-08
3.71266e-10
2.47429e-08
8.16474e-10
2.49976e-08
1.16176e-09
2.53169e-08
1.38915e-09
1.49269e-09
2.56416e-08
2.69059e-08
-3.49336e-10
2.68337e-08
-4.27943e-10
2.67502e-08
-5.09295e-10
2.66629e-08
-5.87406e-10
2.65803e-08
-6.56862e-10
2.65107e-08
-7.13519e-10
2.64607e-08
-7.54747e-10
2.64349e-08
-7.7937e-10
2.64365e-08
-7.86773e-10
2.64674e-08
-7.76492e-10
2.65291e-08
-7.47528e-10
2.66228e-08
-6.98352e-10
2.67506e-08
-6.2736e-10
2.69146e-08
-5.29203e-10
2.7118e-08
-3.99981e-10
2.73672e-08
-2.41432e-10
2.76693e-08
-4.66187e-11
2.80317e-08
1.91092e-10
2.84658e-08
4.56448e-10
2.89843e-08
7.17228e-10
2.95977e-08
9.0361e-10
3.03085e-08
8.7703e-10
3.09869e-08
3.65609e-10
3.15641e-08
-3.85842e-10
3.20294e-08
-1.1851e-09
3.23811e-08
-1.93164e-09
3.26217e-08
-2.56045e-09
3.27578e-08
-3.05094e-09
3.27992e-08
-3.39763e-09
3.27571e-08
-3.59685e-09
3.26442e-08
-3.65101e-09
3.24745e-08
-3.56871e-09
3.22633e-08
-3.36283e-09
3.20269e-08
-3.04984e-09
3.17828e-08
-2.64926e-09
3.15493e-08
-2.18278e-09
3.13452e-08
-1.67367e-09
3.11891e-08
-1.14636e-09
3.10981e-08
-6.25819e-10
3.10855e-08
-1.36679e-10
3.11587e-08
2.98159e-10
3.13155e-08
6.59598e-10
3.15428e-08
9.34509e-10
3.18143e-08
1.11768e-09
1.21293e-09
3.2094e-08
3.58783e-08
-2.89348e-10
3.58042e-08
-3.53877e-10
3.57177e-08
-4.22796e-10
3.56226e-08
-4.92258e-10
3.5524e-08
-5.58283e-10
3.54278e-08
-6.17365e-10
3.53399e-08
-6.66813e-10
3.52654e-08
-7.04824e-10
3.52087e-08
-7.30082e-10
3.51738e-08
-7.4164e-10
3.51644e-08
-7.38075e-10
3.51838e-08
-7.17761e-10
3.52363e-08
-6.79913e-10
3.53259e-08
-6.18771e-10
3.54574e-08
-5.31542e-10
3.56401e-08
-4.2406e-10
3.58822e-08
-2.8879e-10
3.61922e-08
-1.18885e-10
3.65831e-08
6.56056e-11
3.70687e-08
2.31627e-10
3.76593e-08
3.12999e-10
3.83567e-08
1.79598e-10
3.90301e-08
-3.07812e-10
3.96063e-08
-9.62006e-10
4.00717e-08
-1.65054e-09
4.04233e-08
-2.28318e-09
4.06625e-08
-2.79971e-09
4.07961e-08
-3.18455e-09
4.08347e-08
-3.43615e-09
4.07904e-08
-3.55261e-09
4.06774e-08
-3.53801e-09
4.05114e-08
-3.40266e-09
4.03091e-08
-3.16056e-09
4.00883e-08
-2.82898e-09
3.98669e-08
-2.42795e-09
3.96633e-08
-1.97916e-09
3.94948e-08
-1.50511e-09
3.93767e-08
-1.0283e-09
3.93212e-08
-5.70371e-10
3.93354e-08
-1.50847e-10
3.94198e-08
2.13739e-10
3.95675e-08
5.11899e-10
3.97643e-08
7.37777e-10
3.999e-08
8.91981e-10
9.81077e-10
4.02218e-08
4.70942e-08
-2.22326e-10
4.70157e-08
-2.75379e-10
4.69259e-08
-3.3302e-10
4.68266e-08
-3.9291e-10
4.67206e-08
-4.52283e-10
4.66117e-08
-5.08431e-10
4.65039e-08
-5.59031e-10
4.64014e-08
-6.02321e-10
4.63082e-08
-6.36872e-10
4.62284e-08
-6.61841e-10
4.61661e-08
-6.7585e-10
4.61259e-08
-6.77531e-10
4.61135e-08
-6.67506e-10
4.61341e-08
-6.39399e-10
4.61944e-08
-5.91828e-10
4.63063e-08
-5.35974e-10
4.64797e-08
-4.62213e-10
4.6724e-08
-3.63148e-10
4.70546e-08
-2.65021e-10
4.74871e-08
-2.00873e-10
4.80317e-08
-2.31577e-10
4.86897e-08
-4.78436e-10
4.93334e-08
-9.5146e-10
4.98867e-08
-1.51534e-09
5.03336e-08
-2.09737e-09
5.06689e-08
-2.61852e-09
5.08933e-08
-3.02414e-09
5.10139e-08
-3.30509e-09
5.10419e-08
-3.46421e-09
5.09905e-08
-3.50122e-09
5.08748e-08
-3.42229e-09
5.07118e-08
-3.23965e-09
5.05194e-08
-2.96815e-09
5.03157e-08
-2.62529e-09
5.01186e-08
-2.2308e-09
4.99448e-08
-1.80536e-09
4.98091e-08
-1.36942e-09
4.97231e-08
-9.4234e-10
4.96942e-08
-5.41463e-10
4.97245e-08
-1.81157e-10
4.98107e-08
1.27617e-10
4.99439e-08
3.78646e-10
5.01113e-08
5.7041e-10
5.02974e-08
7.05813e-10
7.91402e-10
5.04871e-08
6.09536e-08
-1.4745e-10
6.08695e-08
-1.91232e-10
6.07758e-08
-2.393e-10
6.06732e-08
-2.9032e-10
6.05634e-08
-3.42484e-10
6.04488e-08
-3.93833e-10
6.03322e-08
-4.42513e-10
6.02169e-08
-4.8702e-10
6.01061e-08
-5.26002e-10
6.00031e-08
-5.58882e-10
5.99118e-08
-5.84535e-10
5.98363e-08
-6.02019e-10
5.97824e-08
-6.13591e-10
5.97556e-08
-6.1262e-10
5.97635e-08
-5.99742e-10
5.9819e-08
-5.91511e-10
5.9932e-08
-5.75211e-10
6.01134e-08
-5.44491e-10
6.03811e-08
-5.32781e-10
6.07517e-08
-5.71411e-10
6.1235e-08
-7.14873e-10
6.18322e-08
-1.07565e-09
6.24227e-08
-1.54191e-09
6.29309e-08
-2.0236e-09
6.33392e-08
-2.50566e-09
6.36407e-08
-2.92007e-09
6.38354e-08
-3.21876e-09
6.39311e-08
-3.40087e-09
6.39403e-08
-3.4734e-09
6.38762e-08
-3.43713e-09
6.37547e-08
-3.30075e-09
6.35936e-08
-3.07855e-09
6.34111e-08
-2.78568e-09
6.32249e-08
-2.4391e-09
6.30515e-08
-2.05739e-09
6.29054e-08
-1.65923e-09
6.2798e-08
-1.26209e-09
6.27373e-08
-8.81561e-10
6.27265e-08
-5.30651e-10
6.27645e-08
-2.19183e-10
6.2846e-08
4.61356e-11
6.29625e-08
2.62117e-10
6.3103e-08
4.29922e-10
6.32558e-08
5.52952e-10
6.36867e-10
6.34104e-08
7.78836e-08
-6.66547e-11
7.77955e-08
-1.03095e-10
7.76995e-08
-1.43383e-10
7.75961e-08
-1.86848e-10
7.7486e-08
-2.3242e-10
7.7371e-08
-2.78823e-10
7.72532e-08
-3.24731e-10
7.71352e-08
-3.69019e-10
7.70198e-08
-4.10598e-10
7.691e-08
-4.491e-10
7.68093e-08
-4.8376e-10
7.67215e-08
-5.14297e-10
7.66512e-08
-5.43245e-10
7.6604e-08
-5.65481e-10
7.65904e-08
-5.8609e-10
7.6616e-08
-6.17163e-10
7.66899e-08
-6.49098e-10
7.68297e-08
-6.84286e-10
7.70508e-08
-7.53867e-10
7.73684e-08
-8.89019e-10
7.77912e-08
-1.13763e-09
7.83194e-08
-1.60383e-09
7.88422e-08
-2.06471e-09
7.9289e-08
-2.47046e-09
7.96429e-08
-2.85952e-09
7.98958e-08
-3.17296e-09
8.00476e-08
-3.37053e-09
8.01088e-08
-3.46212e-09
8.00925e-08
-3.45709e-09
8.00114e-08
-3.35602e-09
7.98819e-08
-3.17123e-09
7.97222e-08
-2.91884e-09
7.95497e-08
-2.61326e-09
7.93808e-08
-2.27016e-09
7.92297e-08
-1.90626e-09
7.91079e-08
-1.53751e-09
7.90238e-08
-1.17795e-09
7.89816e-08
-8.39399e-10
7.89821e-08
-5.31068e-10
7.90222e-08
-2.59335e-10
7.90953e-08
-2.69654e-11
7.9195e-08
1.62411e-10
7.93117e-08
3.13262e-10
7.94366e-08
4.28002e-10
5.11341e-10
7.95622e-08
9.83623e-08
1.63937e-11
9.82738e-08
-1.4583e-11
9.81794e-08
-4.90088e-11
9.80792e-08
-8.6625e-11
9.79737e-08
-1.26904e-10
9.7864e-08
-1.69172e-10
9.7752e-08
-2.12653e-10
9.76396e-08
-2.56651e-10
9.75295e-08
-3.00555e-10
9.74247e-08
-3.44243e-10
9.73282e-08
-3.87291e-10
9.72448e-08
-4.30868e-10
9.7177e-08
-4.75467e-10
9.71323e-08
-5.20815e-10
9.71222e-08
-5.75915e-10
9.71423e-08
-6.37298e-10
9.7203e-08
-7.0979e-10
9.7328e-08
-8.09319e-10
9.75302e-08
-9.56008e-10
9.78169e-08
-1.17574e-09
9.81947e-08
-1.51544e-09
9.86611e-08
-2.07025e-09
9.91151e-08
-2.51866e-09
9.94955e-08
-2.85086e-09
9.97882e-08
-3.15228e-09
9.99847e-08
-3.36946e-09
1.00087e-07
-3.47269e-09
1.0011e-07
-3.48509e-09
1.00066e-07
-3.41341e-09
9.99671e-08
-3.25698e-09
9.98303e-08
-3.03444e-09
9.96736e-08
-2.76211e-09
9.95126e-08
-2.45222e-09
9.93612e-08
-2.11878e-09
9.92311e-08
-1.7762e-09
9.91309e-08
-1.4373e-09
9.90657e-08
-1.11275e-09
9.90373e-08
-8.10941e-10
9.90443e-08
-5.3807e-10
9.90829e-08
-2.97987e-10
9.91481e-08
-9.22e-11
9.92322e-08
7.83874e-11
9.93285e-08
2.16894e-10
9.94305e-08
3.26038e-10
4.09514e-10
9.95323e-08
1.22963e-07