/*--------------------------------*- C++ -*----------------------------------*\
| =========                 |                                                 |
| \\      /  F ield         | OpenFOAM: The Open Source CFD Toolbox           |
|  \\    /   O peration     | Version:  2312                                  |
|   \\  /    A nd           | Website:  www.openfoam.com                      |
|    \\/     M anipulation  |                                                 |
\*---------------------------------------------------------------------------*/
FoamFile
{
    version     2.0;
    format      ascii;
    arch        "LSB;label=32;scalar=64";
    class       volVectorField;
    location    "94.25";
    object      U;
}
// * * * * * * * * * * * * * * * * * * * * * * * * * * * * * * * * * * * * * //

dimensions      [0 1 -1 0 0 0 0];

internalField   nonuniform List<vector> 
4800
(
(0.000493678 2.49933e-07 -2.69472e-26)
(0.000487997 2.93392e-07 -1.93122e-25)
(0.000484807 3.21398e-07 2.46831e-25)
(0.000483258 3.36887e-07 1.17175e-25)
(0.000482902 3.44206e-07 1.76564e-24)
(0.000483575 3.23791e-07 -4.23118e-24)
(0.000485107 2.97891e-07 4.01072e-24)
(0.000487486 2.18576e-07 -5.89433e-24)
(0.000490797 4.86834e-08 1.87418e-24)
(0.000495289 -2.47913e-07 6.54426e-24)
(0.000501409 -8.15571e-07 -2.01351e-24)
(0.000510486 -2.33071e-06 -1.62865e-25)
(0.000530131 -7.86662e-06 -2.49891e-24)
(0.000579466 -3.03849e-05 1.16246e-24)
(0.000661302 -9.96684e-05 -9.2343e-25)
(0.00152718 1.25687e-06 -8.53563e-26)
(0.00150912 8.61276e-07 1.06477e-25)
(0.00149844 5.42826e-07 -1.01525e-24)
(0.00149268 2.52725e-07 7.50984e-25)
(0.0014905 -3.70341e-08 2.50071e-24)
(0.00149138 -3.83522e-07 -4.01467e-24)
(0.0014947 -8.00044e-07 -1.20038e-24)
(0.00150051 -1.37831e-06 -3.18724e-25)
(0.001509 -2.2907e-06 9.79597e-24)
(0.00152076 -3.76552e-06 -7.27752e-24)
(0.00153711 -6.47107e-06 7.92578e-25)
(0.00156088 -1.27455e-05 1.22473e-24)
(0.0016014 -3.07274e-05 -1.82309e-24)
(0.00167005 -8.58342e-05 -5.50966e-25)
(0.00174402 -0.000211535 2.38799e-24)
(0.00266936 4.11456e-06 -6.10826e-26)
(0.00263746 2.8715e-06 6.23023e-26)
(0.00261789 1.90988e-06 6.62494e-25)
(0.0026066 1.041e-06 -1.59544e-24)
(0.00260137 1.32938e-07 1.58957e-24)
(0.00260128 -9.31598e-07 1.52798e-24)
(0.00260512 -2.23457e-06 -3.94657e-24)
(0.00261303 -4.01926e-06 -2.53087e-24)
(0.00262521 -6.6412e-06 6.04367e-24)
(0.00264222 -1.07271e-05 2.31964e-24)
(0.00266555 -1.78322e-05 -8.05683e-24)
(0.00269745 -3.21097e-05 -1.25028e-24)
(0.00274217 -6.36271e-05 3.46553e-24)
(0.00279849 -0.000133383 5.52559e-24)
(0.00283951 -0.000250976 -2.8603e-24)
(0.00392538 9.32551e-06 2.255e-26)
(0.00387863 6.70242e-06 -1.58455e-25)
(0.00384897 4.68046e-06 7.18876e-25)
(0.0038309 2.86056e-06 7.98835e-25)
(0.00382135 9.53587e-07 -7.67031e-25)
(0.00381883 -1.26423e-06 -4.55173e-24)
(0.00382189 -3.85656e-06 -3.1769e-24)
(0.00383011 -7.46007e-06 1.20314e-23)
(0.00384395 -1.26333e-05 5.11703e-24)
(0.00386335 -2.03369e-05 -7.28598e-24)
(0.00388921 -3.27985e-05 -2.962e-24)
(0.00392196 -5.47312e-05 -2.28423e-24)
(0.00396076 -9.45472e-05 6.31735e-26)
(0.00399805 -0.000163227 1.70266e-24)
(0.00401418 -0.00025663 8.35593e-27)
(0.00529754 1.74069e-05 -4.12824e-26)
(0.00523593 1.28049e-05 -2.5553e-25)
(0.00519561 9.25783e-06 -1.71436e-25)
(0.00516984 6.07815e-06 4.41577e-25)
(0.00515486 2.78661e-06 -1.31139e-24)
(0.00514841 -8.96221e-07 3.28541e-24)
(0.00514938 -5.47222e-06 -5.64662e-25)
(0.00515608 -1.12093e-05 2.09031e-24)
(0.00516916 -1.94454e-05 -1.17071e-23)
(0.00518779 -3.11029e-05 2.23843e-23)
(0.00521183 -4.85223e-05 -2.17692e-23)
(0.00523992 -7.55559e-05 1.15674e-23)
(0.00526852 -0.000117252 -1.08042e-23)
(0.00528951 -0.000177099 1.02415e-23)
(0.00529165 -0.00024777 -4.0986e-24)
(0.00678354 2.88544e-05 5.43325e-26)
(0.00670887 2.16941e-05 1.9713e-25)
(0.00665846 1.61721e-05 -1.05117e-24)
(0.00662486 1.12372e-05 -6.97325e-25)
(0.00660384 6.20703e-06 1.82872e-24)
(0.0065926 5.96748e-07 6.75933e-25)
(0.00658974 -6.07718e-06 -5.33585e-24)
(0.00659356 -1.4515e-05 1.2838e-23)
(0.00660356 -2.5859e-05 -1.68772e-23)
(0.00661859 -4.11844e-05 4.03103e-24)
(0.00663745 -6.23535e-05 1.25085e-23)
(0.00665779 -9.16899e-05 -1.74942e-23)
(0.00667555 -0.000131118 8.78091e-24)
(0.00668472 -0.000180185 9.09274e-24)
(0.00668008 -0.000232662 -6.93874e-24)
(0.0083742 4.38266e-05 4.46738e-26)
(0.00829101 3.36792e-05 -2.66666e-25)
(0.008233 2.58319e-05 9.7122e-25)
(0.00819282 1.88265e-05 -1.36387e-24)
(0.00816612 1.1774e-05 -4.77208e-24)
(0.00814995 3.98696e-06 8.14751e-24)
(0.00814249 -5.06845e-06 -5.0343e-24)
(0.00814203 -1.61923e-05 1.73715e-23)
(0.00814733 -3.04314e-05 -1.18097e-23)
(0.00815679 -4.8689e-05 -5.59215e-24)
(0.00816859 -7.20811e-05 -1.11494e-23)
(0.00818014 -0.000101482 1.02454e-23)
(0.00818819 -0.000136806 2.90345e-24)
(0.00818906 -0.000176185 2.51024e-24)
(0.00818102 -0.00021534 -2.21335e-24)
(0.0100514 6.16968e-05 -6.38825e-26)
(0.00996777 4.84934e-05 8.78758e-25)
(0.00990729 3.8211e-05 -2.07094e-24)
(0.00986376 2.90075e-05 -1.76754e-24)
(0.00983331 1.98066e-05 6.06043e-25)
(0.00981321 9.79339e-06 1.27601e-24)
(0.00980149 -1.66683e-06 4.77829e-24)
(0.00979638 -1.52587e-05 -1.32085e-23)
(0.0097963 -3.18653e-05 -7.22573e-24)
(0.00979942 -5.20417e-05 1.96124e-23)
(0.00980376 -7.61721e-05 -6.18472e-24)
(0.00980706 -0.000104128 2.11868e-23)
(0.00980716 -0.000134929 -1.1191e-23)
(0.00980209 -0.000166649 -3.60074e-24)
(0.00979183 -0.000196629 2.1388e-24)
(0.0117877 8.05272e-05 -8.3651e-27)
(0.0117152 6.48305e-05 4.8338e-25)
(0.0116602 5.24326e-05 -6.91514e-25)
(0.0116189 4.12353e-05 1.71352e-24)
(0.0115886 3.00441e-05 -1.03747e-23)
(0.0115672 1.80013e-05 1.10037e-23)
(0.0115529 4.45572e-06 -1.77532e-23)
(0.0115442 -1.11396e-05 1.08528e-23)
(0.0115394 -2.93433e-05 8.208e-24)
(0.0115368 -5.03493e-05 1.81148e-23)
(0.0115347 -7.40009e-05 -2.37241e-23)
(0.0115313 -9.96647e-05 -4.46476e-24)
(0.0115256 -0.000126195 2.0126e-24)
(0.0115164 -0.00015211 1.47715e-23)
(0.0115044 -0.000175858 -6.03089e-24)
(0.0135515 9.67383e-05 4.53726e-26)
(0.0135028 7.99446e-05 -2.00614e-25)
(0.0134629 6.63467e-05 9.18165e-25)
(0.0134311 5.38258e-05 -3.27764e-24)
(0.0134064 4.12024e-05 5.02977e-24)
(0.0133877 2.76757e-05 -6.6083e-24)
(0.0133741 1.26854e-05 1.12022e-23)
(0.0133642 -4.17086e-06 2.06527e-24)
(0.0133568 -2.30057e-05 -1.5724e-23)
(0.0133505 -4.37969e-05 2.26539e-23)
(0.0133441 -6.60707e-05 -2.50895e-23)
(0.0133365 -8.90598e-05 -7.50026e-24)
(0.0133272 -0.000111787 1.31796e-23)
(0.0133156 -0.000133271 3.94274e-24)
(0.0133028 -0.000152642 -1.72835e-24)
(0.015319 0.000105684 1.80262e-25)
(0.0153027 8.98326e-05 -1.55849e-24)
(0.0152857 7.65039e-05 -2.59993e-24)
(0.0152699 6.38058e-05 6.10983e-24)
(0.0152564 5.0728e-05 2.83805e-24)
(0.0152452 3.66444e-05 -1.78559e-23)
(0.015236 2.11611e-05 5.42237e-24)
(0.0152284 4.11835e-06 3.96347e-24)
(0.0152214 -1.43359e-05 -1.7775e-23)
(0.0152143 -3.3983e-05 1.84084e-23)
(0.0152065 -5.42222e-05 -1.50413e-23)
(0.0151974 -7.43789e-05 3.85811e-23)
(0.015187 -9.37355e-05 -1.86721e-23)
(0.015175 -0.000111692 1.10457e-23)
(0.0151625 -0.000127782 -3.02577e-24)
(0.0170901 0.000103899 -6.96559e-26)
(0.0171047 9.07775e-05 1.0571e-24)
(0.0171117 7.92276e-05 -2.09011e-24)
(0.0171144 6.76761e-05 -1.1109e-24)
(0.0171148 5.53509e-05 1.23467e-23)
(0.0171138 4.1859e-05 -1.68167e-24)
(0.0171119 2.70341e-05 -2.24403e-23)
(0.0171092 1.09671e-05 2.64426e-23)
(0.0171054 -6.15876e-06 -5.90531e-24)
(0.0171003 -2.38087e-05 -2.09041e-23)
(0.0170939 -4.15023e-05 2.24454e-23)
(0.0170859 -5.87298e-05 1.22568e-23)
(0.0170767 -7.49968e-05 -1.02192e-23)
(0.0170662 -8.99541e-05 -1.79007e-23)
(0.0170553 -0.000103356 1.50839e-24)
(0.0188909 9.1955e-05 2.63134e-27)
(0.0189246 8.20736e-05 -1.19635e-24)
(0.0189482 7.30205e-05 5.73684e-24)
(0.0189649 6.3489e-05 4.39603e-25)
(0.0189767 5.28869e-05 3.45596e-24)
(0.0189847 4.10036e-05 -1.20955e-23)
(0.0189899 2.78691e-05 1.05352e-23)
(0.0189925 1.36952e-05 2.50907e-24)
(0.0189928 -1.17857e-06 2.21423e-23)
(0.018991 -1.62289e-05 -3.4047e-23)
(0.0189874 -3.10794e-05 -1.55688e-23)
(0.0189819 -4.53452e-05 -1.04005e-23)
(0.0189753 -5.86995e-05 1.95393e-23)
(0.0189672 -7.09469e-05 -5.7008e-25)
(0.0189588 -8.19605e-05 1.9102e-24)
(0.0207489 7.42379e-05 -1.20613e-26)
(0.0207869 6.69947e-05 1.26394e-24)
(0.0208159 6.0246e-05 -1.84518e-24)
(0.020838 5.28223e-05 -2.463e-27)
(0.0208548 4.42817e-05 2.44933e-24)
(0.0208673 3.45517e-05 6.32631e-24)
(0.0208761 2.37263e-05 -2.45888e-23)
(0.0208817 1.20371e-05 1.98286e-24)
(0.0208847 -1.13581e-07 1.26207e-23)
(0.0208853 -1.23659e-05 -5.90861e-24)
(0.0208839 -2.43338e-05 1.61142e-23)
(0.0208806 -3.5741e-05 1.13766e-23)
(0.0208762 -4.63834e-05 -2.06432e-23)
(0.0208704 -5.61535e-05 1.41921e-23)
(0.0208642 -6.49822e-05 -1.18141e-23)
(0.0226566 5.52132e-05 -3.69377e-25)
(0.0226904 5.00596e-05 1.54046e-26)
(0.0227168 4.52784e-05 2.32468e-24)
(0.0227373 3.97043e-05 -1.15998e-23)
(0.0227533 3.30652e-05 1.01984e-23)
(0.0227653 2.55136e-05 -7.477e-24)
(0.022774 1.71595e-05 5.34786e-24)
(0.0227796 8.13718e-06 -3.84287e-23)
(0.0227828 -1.2491e-06 5.55136e-23)
(0.0227838 -1.06733e-05 -3.29213e-23)
(0.0227832 -1.98541e-05 2.94718e-23)
(0.0227808 -2.86106e-05 2.47923e-23)
(0.0227774 -3.68023e-05 -4.33663e-23)
(0.0227728 -4.4353e-05 1.41412e-23)
(0.0227678 -5.12128e-05 -5.9526e-25)
(0.0245591 3.6868e-05 -1.27248e-26)
(0.0245869 3.36711e-05 -6.38387e-25)
(0.0246084 3.08121e-05 6.41421e-25)
(0.0246247 2.71807e-05 -3.32232e-25)
(0.0246373 2.24821e-05 4.35993e-24)
(0.0246467 1.70506e-05 -7.45237e-24)
(0.0246532 1.10649e-05 6.891e-24)
(0.0246571 4.56849e-06 -2.17707e-23)
(0.0246591 -2.16762e-06 4.95753e-23)
(0.0246593 -8.89878e-06 -6.35444e-23)
(0.0246582 -1.54576e-05 5.21394e-23)
(0.0246556 -2.1763e-05 -1.76329e-23)
(0.0246523 -2.77207e-05 9.17194e-25)
(0.0246479 -3.32622e-05 4.04996e-24)
(0.0246433 -3.83298e-05 -7.77792e-24)
(0.0263655 1.90738e-05 -1.00372e-24)
(0.026388 1.80687e-05 1.10474e-24)
(0.026405 1.74101e-05 4.62237e-25)
(0.0264176 1.59587e-05 -2.19973e-24)
(0.0264268 1.35398e-05 7.83072e-24)
(0.0264333 1.04493e-05 -7.75521e-24)
(0.0264375 6.79479e-06 -6.61204e-24)
(0.0264394 2.62431e-06 -1.57456e-23)
(0.0264399 -1.69449e-06 8.23934e-24)
(0.0264391 -5.92732e-06 3.82443e-23)
(0.0264371 -1.0076e-05 -2.01568e-23)
(0.0264339 -1.41275e-05 1.1942e-23)
(0.0264301 -1.80094e-05 -4.94341e-24)
(0.0264256 -2.16724e-05 -1.4518e-23)
(0.0264209 -2.50581e-05 7.42597e-24)
(0.0279552 2.13254e-06 3.10483e-25)
(0.0279728 3.16682e-06 -4.47329e-25)
(0.0279855 4.86667e-06 1.26431e-24)
(0.0279948 5.8556e-06 -4.86427e-24)
(0.028001 5.69995e-06 -1.68217e-24)
(0.0280049 5.56026e-06 1.46107e-23)
(0.0280072 4.44559e-06 -1.099e-23)
(0.0280074 2.06963e-06 -5.75141e-24)
(0.0280063 7.33829e-09 4.62434e-24)
(0.0280043 -1.82827e-06 -4.85512e-24)
(0.0280016 -3.65417e-06 1.18953e-23)
(0.0279983 -5.47856e-06 6.44728e-24)
(0.0279944 -7.35094e-06 -2.64149e-23)
(0.0279898 -9.15716e-06 1.91314e-23)
(0.0279849 -1.08845e-05 -3.97089e-24)
(0.0291596 -1.29464e-05 8.5624e-25)
(0.0291723 -8.66e-06 6.04601e-25)
(0.0291809 -5.16449e-06 -1.71913e-24)
(0.0291875 -2.08153e-06 2.40206e-24)
(0.0291908 8.80735e-07 -3.40886e-24)
(0.029193 2.07381e-06 -6.91475e-24)
(0.0291931 4.2033e-06 -5.83247e-24)
(0.0291922 5.01539e-06 1.25939e-23)
(0.0291906 5.32089e-06 1.09624e-23)
(0.0291884 5.31791e-06 -2.84091e-23)
(0.0291854 5.13921e-06 1.88126e-23)
(0.0291817 4.87385e-06 -1.48822e-24)
(0.0291772 4.56741e-06 -1.24931e-24)
(0.0291724 4.33025e-06 1.66154e-24)
(0.0291676 4.18544e-06 -7.58426e-25)
(0.0297524 -2.61102e-05 -2.07483e-24)
(0.0297624 -1.97966e-05 -2.53547e-24)
(0.0297694 -1.38324e-05 4.03956e-24)
(0.0297741 -8.58327e-06 3.79617e-25)
(0.0297768 -3.92427e-06 5.51365e-25)
(0.0297782 1.36742e-07 3.4012e-24)
(0.0297783 3.71407e-06 -2.65494e-24)
(0.0297774 6.74862e-06 -1.75243e-23)
(0.0297756 9.14254e-06 3.88997e-23)
(0.029773 1.10716e-05 -1.59699e-23)
(0.0297699 1.27699e-05 5.86601e-24)
(0.0297662 1.43711e-05 -1.04998e-23)
(0.0297623 1.59223e-05 -1.03199e-23)
(0.0297581 1.74097e-05 1.49696e-23)
(0.0297537 1.88285e-05 -6.35934e-24)
(0.0295563 -3.70841e-05 3.03713e-24)
(0.0295617 -2.891e-05 -6.09321e-24)
(0.0295649 -2.10104e-05 1.76348e-24)
(0.0295666 -1.37394e-05 1.25565e-24)
(0.0295672 -7.0449e-06 1.43085e-24)
(0.0295666 -1.1396e-06 -3.2395e-24)
(0.0295652 4.10468e-06 -9.88751e-24)
(0.029563 8.78972e-06 2.41545e-23)
(0.0295603 1.30084e-05 5.57351e-24)
(0.0295571 1.68506e-05 -1.41475e-23)
(0.0295536 2.03968e-05 -7.13343e-24)
(0.0295498 2.37082e-05 7.9978e-24)
(0.0295457 2.68209e-05 -8.43189e-24)
(0.0295414 2.97446e-05 4.7263e-24)
(0.0295369 3.25007e-05 -2.02938e-24)
(0.0285418 -4.15323e-05 1.75504e-24)
(0.0285431 -3.21345e-05 -3.30221e-24)
(0.0285433 -2.31825e-05 -7.56768e-25)
(0.0285429 -1.48112e-05 3.64571e-24)
(0.0285418 -7.14814e-06 -5.218e-25)
(0.0285405 -1.0466e-07 9.75882e-25)
(0.0285389 6.32953e-06 -9.18142e-25)
(0.0285371 1.2236e-05 -1.78116e-24)
(0.0285349 1.7686e-05 -3.95719e-24)
(0.0285326 2.27269e-05 2.50348e-23)
(0.0285301 2.74053e-05 -1.54757e-23)
(0.0285274 3.17664e-05 1.42179e-24)
(0.0285244 3.58524e-05 -1.88562e-23)
(0.0285214 3.96965e-05 9.09915e-24)
(0.0285182 4.33297e-05 2.87361e-24)
(0.0269752 -4.12908e-05 4.14385e-24)
(0.026973 -3.15761e-05 -6.76161e-24)
(0.0269703 -2.24069e-05 1.54956e-24)
(0.0269676 -1.38198e-05 -5.14113e-25)
(0.0269648 -5.77612e-06 2.05143e-24)
(0.026962 1.6926e-06 -2.73097e-24)
(0.026959 8.63681e-06 3.15009e-24)
(0.0269561 1.50927e-05 -2.0216e-24)
(0.0269532 2.10947e-05 1.62102e-24)
(0.0269502 2.66884e-05 8.41472e-24)
(0.0269473 3.19069e-05 -1.82441e-23)
(0.0269444 3.67923e-05 1.37278e-23)
(0.0269414 4.13717e-05 -1.22172e-24)
(0.0269385 4.56891e-05 -3.98263e-24)
(0.0269355 4.97675e-05 6.17672e-25)
(0.0250592 -3.78822e-05 1.54406e-24)
(0.0250538 -2.83206e-05 -6.71447e-24)
(0.0250487 -1.91988e-05 9.4958e-24)
(0.0250441 -1.05573e-05 -5.35791e-24)
(0.0250398 -2.47374e-06 1.4298e-24)
(0.0250358 5.04573e-06 -1.54049e-24)
(0.0250323 1.20943e-05 -1.27019e-25)
(0.025029 1.86849e-05 1.96006e-24)
(0.025026 2.4846e-05 -7.59176e-24)
(0.0250232 3.06121e-05 -2.81116e-24)
(0.0250206 3.60101e-05 1.11702e-23)
(0.0250182 4.10718e-05 3.12425e-24)
(0.0250159 4.58253e-05 -5.26005e-24)
(0.0250139 5.02989e-05 1.63454e-24)
(0.025012 5.45086e-05 -4.60546e-25)
(0.0229439 -3.14734e-05 2.01929e-25)
(0.022936 -2.25525e-05 -2.43508e-24)
(0.0229292 -1.40367e-05 -4.05614e-25)
(0.0229234 -5.96769e-06 6.24032e-24)
(0.0229185 1.63477e-06 -4.031e-24)
(0.0229144 8.84549e-06 6.47558e-25)
(0.022911 1.55878e-05 -1.51265e-25)
(0.0229082 2.1893e-05 2.3322e-25)
(0.0229059 2.78007e-05 2.26289e-24)
(0.0229041 3.3337e-05 -1.25604e-23)
(0.0229027 3.85261e-05 1.11341e-23)
(0.0229017 4.33913e-05 1.28794e-24)
(0.0229011 4.79518e-05 -1.67934e-24)
(0.0229009 5.22239e-05 -2.8574e-24)
(0.0229009 5.62207e-05 2.38934e-24)
(0.0207434 -2.38599e-05 2.98906e-25)
(0.0207348 -1.60193e-05 2.18774e-24)
(0.0207277 -8.52175e-06 -2.59427e-24)
(0.0207223 -1.39191e-06 -9.42984e-25)
(0.0207181 5.37782e-06 3.21447e-24)
(0.020715 1.17725e-05 -2.47917e-24)
(0.0207129 1.77783e-05 -3.87687e-25)
(0.0207116 2.34194e-05 1.03896e-24)
(0.0207111 2.87175e-05 5.2515e-25)
(0.0207113 3.36899e-05 -5.31954e-28)
(0.0207121 3.83514e-05 3.15099e-24)
(0.0207135 4.27151e-05 -1.36467e-24)
(0.0207155 4.67923e-05 -2.82193e-25)
(0.020718 5.05927e-05 -6.85289e-25)
(0.0207209 5.41239e-05 -2.11847e-24)
(0.0185463 -1.69706e-05 2.13649e-24)
(0.0185388 -1.04825e-05 -3.10895e-24)
(0.0185331 -4.26699e-06 -1.5368e-24)
(0.0185294 1.66379e-06 4.45901e-24)
(0.018527 7.33822e-06 -1.64051e-24)
(0.0185259 1.2707e-05 -4.16724e-25)
(0.018526 1.77699e-05 3.43455e-25)
(0.0185271 2.25429e-05 -1.41989e-24)
(0.0185291 2.70363e-05 4.03082e-24)
(0.018532 3.12578e-05 -5.6096e-24)
(0.0185356 3.52142e-05 4.21868e-24)
(0.0185399 3.89114e-05 -2.58477e-24)
(0.0185449 4.23552e-05 5.39932e-24)
(0.0185505 4.555e-05 -6.35535e-24)
(0.0185567 4.85e-05 1.98096e-24)
(0.0164167 -1.18909e-05 -4.17903e-25)
(0.0164112 -6.82259e-06 -1.15428e-24)
(0.0164078 -1.97944e-06 -2.79554e-24)
(0.0164063 2.70535e-06 7.63446e-24)
(0.0164063 7.2407e-06 -1.93002e-24)
(0.0164076 1.15405e-05 -1.17307e-24)
(0.01641 1.5608e-05 -3.33521e-25)
(0.0164136 1.94582e-05 3.52422e-25)
(0.0164181 2.30935e-05 3.28377e-24)
(0.0164236 2.6515e-05 -2.99529e-24)
(0.0164298 2.97241e-05 -1.54326e-25)
(0.0164369 3.2722e-05 3.19712e-24)
(0.0164445 3.55102e-05 -3.55479e-24)
(0.0164529 3.80894e-05 -4.72286e-25)
(0.0164618 4.04603e-05 5.53587e-25)
(0.0143946 -8.74224e-06 1.62434e-24)
(0.0143913 -4.99798e-06 1.78433e-24)
(0.01439 -1.45664e-06 -2.21827e-24)
(0.0143906 2.08969e-06 -2.90151e-24)
(0.0143925 5.58724e-06 2.72745e-24)
(0.0143957 8.88605e-06 -1.68523e-24)
(0.0144 1.20167e-05 8.58368e-25)
(0.0144054 1.49996e-05 -3.23789e-26)
(0.0144118 1.78309e-05 -3.53588e-25)
(0.0144191 2.05071e-05 2.30517e-24)
(0.0144272 2.30254e-05 1.10503e-24)
(0.014436 2.53833e-05 -8.17302e-24)
(0.0144455 2.75789e-05 3.27641e-24)
(0.0144556 2.96095e-05 1.29357e-24)
(0.0144663 3.14736e-05 1.21258e-25)
(0.0125008 -7.07763e-06 -1.70482e-24)
(0.0124992 -4.41314e-06 2.13552e-24)
(0.0124994 -1.90288e-06 1.07778e-25)
(0.012501 5.12246e-07 2.24993e-24)
(0.012504 3.14784e-06 -2.25592e-24)
(0.0125082 5.61358e-06 -2.91634e-25)
(0.0125135 7.94811e-06 -4.352e-25)
(0.0125197 1.01884e-05 -6.31591e-26)
(0.0125269 1.23311e-05 -8.11468e-25)
(0.0125348 1.43708e-05 2.74584e-24)
(0.0125436 1.63023e-05 5.09797e-25)
(0.012553 1.81206e-05 -6.91997e-25)
(0.0125631 1.9822e-05 -8.15129e-25)
(0.0125738 2.14019e-05 -4.93004e-25)
(0.0125849 2.2858e-05 -3.17623e-25)
(0.0107432 -6.23069e-06 1.27523e-24)
(0.0107425 -4.39519e-06 -1.02649e-24)
(0.010743 -2.81231e-06 -3.05251e-24)
(0.0107448 -1.14059e-06 2.87726e-24)
(0.010748 7.51011e-07 2.26099e-24)
(0.0107522 2.52367e-06 -1.4261e-24)
(0.0107573 4.21908e-06 -9.11646e-25)
(0.0107634 5.85938e-06 8.07857e-25)
(0.0107702 7.44429e-06 -1.02114e-24)
(0.0107778 8.96803e-06 -3.37078e-25)
(0.0107861 1.04245e-05 7.4776e-25)
(0.0107951 1.18083e-05 4.84157e-25)
(0.0108046 1.31146e-05 -9.28377e-25)
(0.0108146 1.43384e-05 -7.37624e-26)
(0.0108251 1.54772e-05 3.52504e-25)
(0.00912215 -5.6841e-06 -8.0974e-25)
(0.00912139 -4.4811e-06 -3.77433e-25)
(0.00912166 -3.47309e-06 6.53665e-25)
(0.00912292 -2.39605e-06 -1.10162e-24)
(0.00912541 -1.1388e-06 3.45793e-24)
(0.00912877 1.14702e-07 -2.97131e-24)
(0.00913294 1.32144e-06 1.23827e-24)
(0.0091379 2.49447e-06 -5.71495e-26)
(0.0091436 3.64205e-06 -5.28643e-25)
(0.00914998 4.75879e-06 -3.93923e-25)
(0.00915699 5.83945e-06 4.94113e-25)
(0.0091646 6.87921e-06 -7.09204e-25)
(0.00917273 7.87253e-06 1.0775e-24)
(0.00918137 8.81523e-06 2.67255e-25)
(0.00919042 9.70441e-06 -1.61271e-25)
(0.0076339 -5.10031e-06 -3.96426e-25)
(0.00763259 -4.34316e-06 1.39867e-25)
(0.00763218 -3.68034e-06 1.95441e-25)
(0.00763251 -3.05881e-06 -5.43868e-25)
(0.00763368 -2.29125e-06 -1.11948e-26)
(0.00763573 -1.42363e-06 1.2635e-24)
(0.00763847 -5.8084e-07 -5.84367e-25)
(0.00764189 2.36652e-07 -8.62045e-26)
(0.00764595 1.04801e-06 4.70582e-26)
(0.00765062 1.84759e-06 2.78198e-25)
(0.00765587 2.63265e-06 2.66386e-25)
(0.00766166 3.39953e-06 -1.07201e-24)
(0.00766795 4.14221e-06 -7.48102e-25)
(0.0076747 4.85793e-06 1.0535e-24)
(0.00768186 5.5437e-06 2.64182e-25)
(0.00627275 -4.33064e-06 -1.45055e-25)
(0.00627072 -3.88178e-06 -2.40023e-26)
(0.00626939 -3.51135e-06 -1.71546e-24)
(0.00626864 -3.11991e-06 7.16178e-25)
(0.00626853 -2.67309e-06 -3.90395e-25)
(0.00626902 -2.14212e-06 9.23042e-25)
(0.00627018 -1.57177e-06 6.35419e-25)
(0.00627194 -1.01157e-06 -2.36591e-25)
(0.00627424 -4.53798e-07 7.20378e-25)
(0.00627708 1.00413e-07 -2.36625e-25)
(0.00628044 6.53514e-07 -6.47987e-25)
(0.00628429 1.20271e-06 1.44509e-24)
(0.0062886 1.74173e-06 -8.04046e-25)
(0.00629336 2.26981e-06 2.60391e-25)
(0.0062985 2.78408e-06 -4.8962e-25)
(0.00503182 -3.4097e-06 -5.71054e-25)
(0.00502917 -3.16789e-06 -6.19073e-25)
(0.00502702 -2.98085e-06 7.28458e-26)
(0.00502529 -2.78407e-06 1.402e-24)
(0.005024 -2.5104e-06 -6.84384e-25)
(0.00502322 -2.17399e-06 9.98862e-26)
(0.00502295 -1.82323e-06 3.95783e-25)
(0.00502315 -1.4775e-06 -2.22444e-25)
(0.00502385 -1.10802e-06 -7.60566e-26)
(0.00502502 -7.37322e-07 1.1319e-24)
(0.00502664 -3.63883e-07 2.7297e-25)
(0.00502871 1.18276e-08 -1.53798e-24)
(0.00503119 3.85089e-07 2.24602e-25)
(0.00503409 7.56828e-07 5.71233e-25)
(0.00503737 1.12469e-06 -4.26835e-25)
(0.00390362 -2.44448e-06 -1.25347e-25)
(0.00390062 -2.33228e-06 2.15044e-26)
(0.00389794 -2.25053e-06 7.22796e-25)
(0.00389553 -2.15747e-06 2.69459e-25)
(0.00389343 -2.01367e-06 -4.25995e-25)
(0.00389169 -1.82236e-06 -4.84203e-25)
(0.00389036 -1.61378e-06 4.24405e-26)
(0.00388942 -1.39802e-06 1.82388e-25)
(0.00388887 -1.17243e-06 -2.02075e-25)
(0.00388872 -9.5111e-07 -5.31457e-25)
(0.00388894 -7.16997e-07 -3.01065e-25)
(0.00388955 -4.75252e-07 1.01297e-24)
(0.00389054 -2.33447e-07 -3.06914e-25)
(0.0038919 1.06555e-08 3.64268e-25)
(0.00389362 2.55773e-07 -2.18606e-25)
(0.00288031 -1.54735e-06 -2.31647e-25)
(0.00287732 -1.51171e-06 3.13495e-26)
(0.00287452 -1.4851e-06 6.01006e-25)
(0.00287185 -1.4494e-06 -3.65227e-25)
(0.00286938 -1.38275e-06 8.93521e-25)
(0.00286717 -1.28403e-06 -1.37813e-24)
(0.00286525 -1.17149e-06 5.71932e-25)
(0.00286363 -1.05494e-06 2.23876e-26)
(0.00286231 -9.31808e-07 -4.27309e-25)
(0.00286129 -8.0312e-07 6.12904e-25)
(0.00286059 -6.68063e-07 -2.64828e-25)
(0.00286021 -5.29944e-07 -6.42608e-26)
(0.00286013 -3.91071e-07 -2.26332e-25)
(0.00286038 -2.46246e-07 3.15892e-25)
(0.00286093 -9.78601e-08 -9.0136e-26)
(0.00195399 -8.09884e-07 3.52627e-25)
(0.0019514 -8.14944e-07 2.96639e-25)
(0.00194888 -8.14892e-07 -1.33099e-24)
(0.00194643 -8.08689e-07 8.64834e-25)
(0.00194408 -7.8515e-07 -5.12096e-26)
(0.00194189 -7.42776e-07 4.17068e-26)
(0.0019399 -6.91397e-07 -1.55382e-25)
(0.00193811 -6.36706e-07 5.07209e-26)
(0.00193653 -5.76879e-07 -1.60526e-25)
(0.00193518 -5.14139e-07 -1.34394e-25)
(0.00193405 -4.47514e-07 6.06666e-25)
(0.00193316 -3.78583e-07 -2.0383e-25)
(0.00193251 -3.06905e-07 -2.62196e-25)
(0.0019321 -2.33254e-07 2.04035e-26)
(0.00193194 -1.57469e-07 6.00886e-26)
(0.00111688 -2.89857e-07 -3.56848e-25)
(0.00111504 -2.85746e-07 1.00796e-24)
(0.00111322 -2.8314e-07 4.0515e-25)
(0.00111141 -2.82631e-07 -9.23086e-25)
(0.00110965 -2.77792e-07 -9.82161e-26)
(0.00110796 -2.66462e-07 -5.09274e-26)
(0.00110639 -2.51703e-07 4.81143e-26)
(0.00110494 -2.3566e-07 5.77063e-28)
(0.00110361 -2.17621e-07 -2.57779e-25)
(0.00110242 -1.98892e-07 1.1848e-25)
(0.00110136 -1.78683e-07 2.57661e-25)
(0.00110046 -1.57675e-07 -2.11824e-25)
(0.0010997 -1.36164e-07 4.82366e-25)
(0.00109911 -1.14304e-07 -5.56446e-25)
(0.00109867 -9.16726e-08 1.31352e-25)
(0.000361492 -9.09137e-09 -2.56475e-27)
(0.000360691 6.94501e-08 1.89795e-25)
(0.000359901 1.20542e-07 1.60993e-25)
(0.000359114 1.49039e-07 -3.0291e-25)
(0.000358339 1.61169e-07 3.69651e-25)
(0.000357591 1.61639e-07 -4.13675e-25)
(0.000356883 1.53429e-07 5.35065e-27)
(0.000356218 1.38617e-07 -6.88754e-26)
(0.000355597 1.19543e-07 1.08384e-25)
(0.000355025 9.76503e-08 1.27e-25)
(0.000354504 7.45365e-08 -4.23201e-25)
(0.000354037 5.11655e-08 2.23613e-25)
(0.000353627 2.8276e-08 1.80051e-25)
(0.000353276 6.53897e-09 -1.64929e-25)
(0.000352987 -1.34975e-08 1.09288e-26)
(0.000980475 -0.000263253 9.12353e-26)
(0.00112241 -0.000184957 2.35863e-24)
(0.00136046 -0.000106444 -6.81614e-24)
(0.00160321 -4.64774e-05 9.98469e-24)
(0.00183485 -3.1276e-06 -3.74453e-24)
(0.00206019 2.4494e-05 -3.66117e-24)
(0.00227888 3.93859e-05 4.18248e-24)
(0.00249134 4.4147e-05 -8.28605e-24)
(0.00269832 4.10889e-05 5.52235e-25)
(0.00290052 3.22933e-05 5.19255e-24)
(0.00309866 1.96076e-05 -9.71946e-25)
(0.00329346 4.69429e-06 1.02717e-24)
(0.00348561 -1.08095e-05 -1.12796e-25)
(0.00367582 -2.51494e-05 5.67667e-25)
(0.00386501 -3.63138e-05 -2.06849e-24)
(0.00405446 -4.19239e-05 1.10813e-24)
(0.00424621 -3.91493e-05 -2.97848e-25)
(0.00444333 -2.50119e-05 3.97466e-26)
(0.00465088 3.46838e-06 6.27506e-25)
(0.00487462 4.80996e-05 -3.86156e-25)
(0.00512407 0.000107151 4.94052e-26)
(0.00540478 0.000176183 -4.47258e-26)
(0.00569596 0.000234301 1.01875e-25)
(0.00596002 0.000263003 4.4744e-25)
(0.00618219 0.000261791 -8.00663e-25)
(0.00636091 0.000233488 -6.40908e-25)
(0.00649765 0.00018066 -4.93425e-26)
(0.00659453 0.00010556 1.7125e-24)
(0.00665259 1.04134e-05 2.75125e-24)
(0.00667157 -0.000101827 -5.43955e-24)
(0.00665026 -0.000226808 5.34553e-24)
(0.00658709 -0.000358533 -5.35794e-24)
(0.00648088 -0.000489467 1.60387e-24)
(0.00633119 -0.000610896 7.37555e-25)
(0.00613854 -0.000713325 -8.04138e-25)
(0.00590433 -0.000786746 2.37097e-24)
(0.00563058 -0.000820577 3.77413e-25)
(0.0053197 -0.00080303 1.93449e-24)
(0.00497459 -0.000719625 1.47658e-24)
(0.00459925 -0.000550983 -7.70075e-24)
(0.0041989 -0.00027254 -1.04223e-25)
(0.00378128 0.000137652 3.97685e-24)
(0.00334199 0.000664335 1.55797e-24)
(0.00290672 0.00121836 -5.85789e-24)
(0.00266526 0.00148017 -3.11128e-25)
(0.00184323 -0.000349152 -2.68911e-24)
(0.00190197 -0.000307429 -3.82918e-24)
(0.00204734 -0.000231985 8.00569e-24)
(0.00223033 -0.000163888 3.79684e-24)
(0.00242359 -0.000109005 -1.32819e-23)
(0.00262171 -6.96142e-05 1.4256e-23)
(0.00281997 -4.388e-05 -5.12122e-24)
(0.00301614 -2.94376e-05 4.09956e-24)
(0.00320944 -2.39529e-05 -5.41396e-24)
(0.00339962 -2.52425e-05 6.79763e-26)
(0.00358681 -3.13291e-05 -2.77182e-24)
(0.00377131 -4.04377e-05 5.44927e-24)
(0.00395352 -5.08254e-05 -2.94222e-24)
(0.00413396 -6.06596e-05 -2.42602e-24)
(0.00431337 -6.78892e-05 -1.3833e-24)
(0.00449286 -7.01401e-05 2.99609e-24)
(0.0046743 -6.4619e-05 -2.54949e-25)
(0.00486053 -4.84392e-05 1.29299e-24)
(0.00505637 -1.86832e-05 1.64801e-25)
(0.00526727 2.63736e-05 -3.48614e-25)
(0.00550268 8.51312e-05 -1.44029e-25)
(0.00576826 0.000153615 -1.01924e-25)
(0.00604545 0.000211574 5.42135e-25)
(0.00629923 0.000241148 7.94338e-25)
(0.00651521 0.000241971 -6.04793e-25)
(0.00669116 0.000216702 -3.71373e-24)
(0.0068278 0.0001678 5.2338e-24)
(0.00692656 9.75976e-05 -3.91343e-24)
(0.00698803 8.55941e-06 1.34337e-24)
(0.00701174 -9.62053e-05 -1.01973e-24)
(0.00699649 -0.000212089 7.96293e-24)
(0.00694091 -0.000333035 -1.14187e-23)
(0.00684417 -0.000451542 6.81638e-24)
(0.0067063 -0.000559008 -5.58888e-24)
(0.00652845 -0.000646099 3.73519e-24)
(0.00631288 -0.000702967 -6.16893e-25)
(0.00606286 -0.000719191 6.07825e-24)
(0.0057827 -0.00068325 -8.15704e-25)
(0.00547824 -0.000581324 -6.59004e-24)
(0.00515832 -0.000395421 -4.93704e-24)
(0.00483692 -0.000103072 1.131e-23)
(0.00453779 0.000315377 -1.16624e-23)
(0.00428935 0.000845025 -3.14457e-24)
(0.00413938 0.00138142 8.03258e-24)
(0.00414648 0.00157212 2.81598e-24)
(0.00285752 -0.000357486 -3.1741e-26)
(0.00286651 -0.000358237 -4.48488e-24)
(0.0029263 -0.000316066 8.48555e-24)
(0.00303971 -0.000258621 7.29045e-24)
(0.00317971 -0.000203673 -1.18571e-23)
(0.00333662 -0.000158903 2.39067e-25)
(0.00350261 -0.000125728 1.15777e-24)
(0.00367269 -0.000103443 1.25879e-23)
(0.00384418 -9.03426e-05 -1.48914e-23)
(0.00401549 -8.454e-05 9.05283e-24)
(0.00418583 -8.41889e-05 2.57017e-24)
(0.00435486 -8.74995e-05 -1.45334e-23)
(0.00452254 -9.26943e-05 5.22306e-24)
(0.00468904 -9.79111e-05 1.9469e-24)
(0.00485483 -0.000101086 -3.7539e-24)
(0.00502079 -9.98697e-05 5.78297e-24)
(0.00518853 -9.15175e-05 -3.85187e-24)
(0.00536066 -7.32471e-05 6.03427e-27)
(0.00554168 -4.22063e-05 2.92252e-25)
(0.00573668 3.24301e-06 2.66898e-25)
(0.00595503 6.16214e-05 2.32559e-26)
(0.00620243 0.000129442 1.57426e-25)
(0.00646274 0.000187099 -5.59406e-25)
(0.00670383 0.000217382 1.75815e-24)
(0.00691168 0.000220111 -3.02532e-24)
(0.00708339 0.000197806 1.78646e-24)
(0.00721881 0.000152808 -4.82602e-24)
(0.00731867 8.75334e-05 6.53869e-24)
(0.00738305 4.6296e-06 -6.73864e-24)
(0.00741126 -9.2488e-05 -1.37654e-25)
(0.00740212 -0.000199102 -6.07124e-25)
(0.00735448 -0.000309064 1.32808e-23)
(0.00726787 -0.000414921 -4.50957e-24)
(0.00714284 -0.000508237 -2.76856e-24)
(0.00698125 -0.000579932 2.22606e-24)
(0.00678626 -0.000620505 2.742e-24)
(0.00656246 -0.000620035 -3.43792e-24)
(0.00631612 -0.000567868 9.92298e-24)
(0.00605591 -0.000451941 -2.04411e-23)
(0.00579488 -0.000257827 8.13151e-24)
(0.0055532 3.05282e-05 3.20256e-24)
(0.00536284 0.000423245 5.62935e-24)
(0.0052621 0.00089595 -7.01675e-24)
(0.00528253 0.001341 2.14818e-24)
(0.00541406 0.00148158 -1.33402e-24)
(0.00400345 -0.000339514 -1.1459e-24)
(0.00398358 -0.000366809 -1.76264e-24)
(0.00399222 -0.00035376 -7.53623e-24)
(0.00403878 -0.000320334 1.9913e-24)
(0.00412122 -0.00027621 1.33551e-24)
(0.00422811 -0.00023436 6.09287e-24)
(0.00435192 -0.000199302 -1.28958e-23)
(0.00448641 -0.000172744 4.91625e-24)
(0.00462746 -0.000154264 1.6344e-23)
(0.00477221 -0.000142751 -4.39344e-24)
(0.00491886 -0.000136786 -4.03038e-24)
(0.00506629 -0.000134774 -6.22083e-25)
(0.00521388 -0.000135038 1.93188e-24)
(0.00536136 -0.000135767 -3.65806e-24)
(0.00550884 -0.00013494 8.88344e-25)
(0.00565689 -0.000130271 -1.96777e-25)
(0.00580682 -0.000119094 -1.32584e-24)
(0.00596092 -9.87586e-05 6.43743e-25)
(0.00612337 -6.64922e-05 2.20775e-24)
(0.00629884 -2.07577e-05 -2.52214e-25)
(0.00649656 3.70661e-05 -4.77511e-25)
(0.00672223 0.000104011 -1.5133e-25)
(0.00696232 0.000161129 -9.88315e-25)
(0.00718784 0.000191881 -1.88121e-25)
(0.00738523 0.000196336 -2.91627e-24)
(0.0075508 0.000176896 4.77568e-24)
(0.0076835 0.000135778 -4.81788e-24)
(0.00778332 7.54783e-05 9.51214e-24)
(0.00784982 -1.16502e-06 -8.83573e-24)
(0.00788205 -9.04827e-05 1.82966e-24)
(0.00787884 -0.000187635 4.21588e-24)
(0.00783929 -0.000286434 -3.56909e-26)
(0.00776332 -0.000379539 -2.12298e-25)
(0.00765203 -0.000458778 1.6899e-25)
(0.00750797 -0.000515489 -1.03481e-24)
(0.00733523 -0.000540777 -1.3863e-24)
(0.00713965 -0.000525638 9.74002e-24)
(0.00692917 -0.000460926 -4.85932e-24)
(0.00671459 -0.000337293 3.67818e-25)
(0.00651133 -0.000145312 -2.01245e-23)
(0.00634139 0.000122715 1.56097e-23)
(0.0062356 0.000466126 -6.39321e-24)
(0.00622697 0.000855611 1.33572e-24)
(0.00632851 0.00120522 8.35332e-24)
(0.00651414 0.00134696 -2.04815e-24)