/*--------------------------------*- C++ -*----------------------------------*\
| =========                 |                                                 |
| \\      /  F ield         | OpenFOAM: The Open Source CFD Toolbox           |
|  \\    /   O peration     | Version:  2312                                  |
|   \\  /    A nd           | Website:  www.openfoam.com                      |
|    \\/     M anipulation  |                                                 |
\*---------------------------------------------------------------------------*/
FoamFile
{
    version     2.0;
    format      ascii;
    arch        "LSB;label=32;scalar=64";
    class       surfaceScalarField;
    location    "83";
    object      phi;
}
// * * * * * * * * * * * * * * * * * * * * * * * * * * * * * * * * * * * * * //

dimensions      [0 3 -1 0 0 0 0];

oriented        oriented;

internalField   nonuniform List<scalar> 
9445
(
6.21175e-10
1.24779e-11
6.13127e-10
8.04833e-12
6.08009e-10
5.11823e-12
6.05006e-10
3.00328e-12
6.03661e-10
1.34426e-12
6.0374e-10
-7.8195e-14
6.05208e-10
-1.46831e-12
6.07962e-10
-2.75419e-12
6.12137e-10
-4.17453e-12
6.18254e-10
-6.11795e-12
6.27456e-10
-9.20177e-12
6.43415e-10
-1.59588e-11
6.79292e-10
-3.58773e-11
7.82244e-10
-1.02952e-10
-2.70944e-10
1.05319e-09
2.16491e-09
5.6158e-11
2.13602e-09
3.69337e-11
2.11703e-09
2.41089e-11
2.10523e-09
1.48005e-11
2.09907e-09
7.51002e-12
2.09771e-09
1.27881e-12
2.1008e-09
-4.56269e-12
2.10803e-09
-9.97879e-12
2.11988e-09
-1.60288e-11
2.13775e-09
-2.39815e-11
2.16453e-09
-3.59901e-11
2.20738e-09
-5.88082e-11
2.28041e-09
-1.08904e-10
2.39779e-09
-2.20329e-10
-3.96306e-10
2.52315e-09
4.26576e-09
1.41611e-10
4.20819e-09
9.45059e-11
4.16942e-09
6.28768e-11
4.14438e-09
3.98441e-11
4.13005e-09
2.18404e-11
4.12481e-09
6.51431e-12
4.12761e-09
-7.36361e-12
4.13785e-09
-2.02194e-11
4.1562e-09
-3.43734e-11
4.18428e-09
-5.2061e-11
4.22489e-09
-7.6603e-11
4.28287e-09
-1.16785e-10
4.36118e-09
-1.87215e-10
4.44553e-09
-3.04679e-10
-4.47027e-10
4.49625e-09
7.07367e-09
2.80568e-10
6.97826e-09
1.89915e-10
6.91251e-09
1.28624e-10
6.86852e-09
8.38391e-11
6.84148e-09
4.88768e-11
6.82861e-09
1.93874e-11
6.82792e-09
-6.67378e-12
6.83835e-09
-3.06577e-11
6.85995e-09
-5.59722e-11
6.89384e-09
-8.59423e-11
6.94079e-09
-1.23557e-10
7.00046e-09
-1.76454e-10
7.06599e-09
-2.52748e-10
7.11598e-09
-3.5467e-10
-4.56341e-10
7.1253e-09
1.07689e-08
4.84271e-10
1.06261e-08
3.32693e-10
1.05254e-08
2.29341e-10
1.04557e-08
1.53493e-10
1.04103e-08
9.43013e-11
1.03847e-08
4.50313e-11
1.03759e-08
2.06673e-12
1.03822e-08
-3.68706e-11
1.04019e-08
-7.5752e-11
1.04348e-08
-1.18856e-10
1.04791e-08
-1.67789e-10
1.05297e-08
-2.27069e-10
1.05755e-08
-2.98563e-10
1.05982e-08
-3.77393e-10
-4.44189e-10
1.05861e-08
1.55627e-08
7.59994e-10
1.53648e-08
5.30602e-10
1.52217e-08
3.72442e-10
1.51196e-08
2.55649e-10
1.50495e-08
1.644e-10
1.50052e-08
8.93029e-11
1.49825e-08
2.47408e-11
1.49783e-08
-3.26845e-11
1.49898e-08
-8.72202e-11
1.50138e-08
-1.42877e-10
1.50465e-08
-2.00402e-10
1.50803e-08
-2.60963e-10
1.51046e-08
-3.22841e-10
1.51073e-08
-3.80077e-10
-4.21647e-10
1.50848e-08
2.1694e-08
1.10507e-09
2.1439e-08
7.85651e-10
2.12494e-08
5.62033e-10
2.11096e-08
3.95366e-10
2.10093e-08
2.64713e-10
2.09407e-08
1.57963e-10
2.08979e-08
6.74793e-11
2.08766e-08
-1.13335e-11
2.08721e-08
-8.27553e-11
2.08794e-08
-1.50201e-10
2.08929e-08
-2.13838e-10
2.0905e-08
-2.73053e-10
2.09075e-08
-3.25373e-10
2.08942e-08
-3.66757e-10
-3.92496e-10
2.0865e-08
2.94196e-08
1.4986e-09
2.91172e-08
1.08804e-09
2.88848e-08
7.94445e-10
2.87075e-08
5.7258e-10
2.85748e-08
3.97463e-10
2.8478e-08
2.54732e-10
2.84104e-08
1.3514e-10
2.8366e-08
3.30582e-11
2.83388e-08
-5.56162e-11
2.83229e-08
-1.34243e-10
2.83117e-08
-2.02686e-10
2.82991e-08
-2.6042e-10
2.82798e-08
-3.06057e-10
2.82512e-08
-3.38149e-10
-3.5583e-10
2.82145e-08
3.90008e-08
1.89416e-09
3.86793e-08
1.40953e-09
3.84211e-08
1.05266e-09
3.82161e-08
7.77546e-10
3.80558e-08
5.57818e-10
3.79323e-08
3.78229e-10
3.78387e-08
2.28765e-10
3.77685e-08
1.03174e-10
3.77149e-08
-1.96244e-12
3.7672e-08
-9.13887e-11
3.76339e-08
-1.64517e-10
3.75958e-08
-2.22326e-10
3.75548e-08
-2.65124e-10
3.75103e-08
-2.9364e-10
-3.09091e-10
3.74636e-08
5.0697e-08
2.22202e-09
5.04052e-08
1.70136e-09
5.0155e-08
1.30284e-09
4.99455e-08
9.87066e-10
4.97731e-08
7.30265e-10
4.96327e-08
5.18602e-10
4.95188e-08
3.42603e-10
4.94257e-08
1.9632e-10
4.9348e-08
7.57417e-11
4.9279e-08
-2.23948e-11
4.92154e-08
-1.00908e-10
4.91539e-08
-1.60796e-10
4.9093e-08
-2.04258e-10
4.90328e-08
-2.33462e-10
-2.50656e-10
4.89744e-08
6.47906e-08
2.41192e-09
6.45862e-08
1.90575e-09
6.43892e-08
1.49985e-09
6.42098e-08
1.16648e-09
6.40514e-08
8.8872e-10
6.39133e-08
6.56636e-10
6.37934e-08
4.62487e-10
6.36882e-08
3.01569e-10
6.35938e-08
1.70164e-10
6.35068e-08
6.4592e-11
6.3424e-08
-1.81494e-11
6.33448e-08
-8.15994e-11
6.32685e-08
-1.27878e-10
6.31953e-08
-1.60288e-10
-1.8146e-10
6.31261e-08
8.1666e-08
2.43271e-09
8.15871e-08
1.98472e-09
8.14783e-08
1.60867e-09
8.13616e-08
1.28309e-09
8.1245e-08
1.00536e-09
8.11322e-08
7.69476e-10
8.1025e-08
5.69666e-10
8.09233e-08
4.03248e-10
8.08262e-08
2.67296e-10
8.07325e-08
1.58244e-10
8.06419e-08
7.24705e-11
8.0554e-08
6.33553e-12
8.04694e-08
-4.33024e-11
8.03887e-08
-7.96282e-11
-1.05378e-10
8.03126e-08
1.01896e-07
2.33587e-09
1.01923e-07
1.95718e-09
1.01912e-07
1.6204e-09
1.01871e-07
1.32365e-09
1.0181e-07
1.06684e-09
1.01736e-07
8.43311e-10
1.01655e-07
6.50722e-10
1.01569e-07
4.88476e-10
1.01482e-07
3.54854e-10
1.01393e-07
2.46819e-10
1.01305e-07
1.60917e-10
1.01218e-07
9.36212e-11
1.01133e-07
4.17071e-11
1.01051e-07
2.17124e-12
-2.75071e-11
1.00973e-07
1.26251e-07
2.17221e-09
1.26334e-07
1.87446e-09
1.26371e-07
1.58354e-09
1.26379e-07
1.31594e-09
1.26361e-07
1.08404e-09
1.26323e-07
8.82035e-10
1.26268e-07
7.05811e-10
1.26201e-07
5.55019e-10
1.26127e-07
4.29144e-10
1.26048e-07
3.25975e-10
1.25966e-07
2.42636e-10
1.25883e-07
1.76044e-10
1.25802e-07
1.23343e-10
1.25722e-07
8.18806e-11
4.94515e-11
1.25645e-07
1.55448e-07
1.98321e-09
1.55556e-07
1.76642e-09
1.55612e-07
1.52775e-09
1.55633e-07
1.2946e-09
1.55629e-07
1.08852e-09
1.55603e-07
9.08487e-10
1.55558e-07
7.49899e-10
1.55501e-07
6.12407e-10
1.55434e-07
4.96319e-10
1.5536e-07
3.99853e-10
1.55282e-07
3.20614e-10
1.55202e-07
2.5602e-10
1.55122e-07
2.03684e-10
1.55042e-07
1.61381e-10
1.27255e-10
1.54964e-07
1.89982e-07
1.78893e-09
1.90106e-07
1.64283e-09
1.90169e-07
1.46432e-09
1.90194e-07
1.26934e-09
1.9019e-07
1.09266e-09
1.90163e-07
9.3533e-10
1.90118e-07
7.94994e-10
1.90059e-07
6.71166e-10
1.89991e-07
5.64724e-10
1.89916e-07
4.75229e-10
1.89836e-07
4.00605e-10
1.89753e-07
3.38664e-10
1.89669e-07
2.87414e-10
1.89586e-07
2.45026e-10
2.0999e-10
1.89503e-07
2.29991e-07
1.604e-09
2.30122e-07
1.51187e-09
2.30196e-07
1.39059e-09
2.30223e-07
1.24295e-09
2.30221e-07
1.09445e-09
2.30196e-07
9.59982e-10
2.30151e-07
8.39814e-10
2.3009e-07
7.32428e-10
2.30018e-07
6.3715e-10
2.29938e-07
5.54898e-10
2.29853e-07
4.85395e-10
2.29765e-07
4.2678e-10
2.29675e-07
3.77378e-10
2.29584e-07
3.35696e-10
3.00531e-10
2.29494e-07
2.75051e-07
1.42842e-09
2.75173e-07
1.38952e-09
2.75251e-07
1.31259e-09
2.75284e-07
1.20965e-09
2.75284e-07
1.09499e-09
2.75261e-07
9.82493e-10
2.7522e-07
8.81221e-10
2.75161e-07
7.9106e-10
2.75088e-07
7.10064e-10
2.75006e-07
6.3733e-10
2.74917e-07
5.74195e-10
2.74824e-07
5.19989e-10
2.74728e-07
4.73521e-10
2.7463e-07
4.33631e-10
3.99368e-10
2.74531e-07
3.23607e-07
1.25331e-09
3.23727e-07
1.26948e-09
3.23808e-07
1.2311e-09
3.23855e-07
1.16355e-09
3.23863e-07
1.08695e-09
3.23845e-07
1.00014e-09
3.2381e-07
9.16661e-10
3.23759e-07
8.41791e-10
3.23693e-07
7.75772e-10
3.23615e-07
7.15818e-10
3.23527e-07
6.61592e-10
3.23434e-07
6.13525e-10
3.23336e-07
5.71379e-10
3.23235e-07
5.34589e-10
5.02469e-10
3.23132e-07
3.72446e-07
1.06622e-09
3.72593e-07
1.12243e-09
3.727e-07
1.1244e-09
3.72767e-07
1.09573e-09
3.72806e-07
1.0484e-09
3.72813e-07
9.92704e-10
3.72794e-07
9.35865e-10
3.72755e-07
8.80536e-10
3.72703e-07
8.28218e-10
3.72639e-07
7.79919e-10
3.72564e-07
7.36139e-10
3.72481e-07
6.96711e-10
3.72391e-07
6.61197e-10
3.72297e-07
6.29384e-10
6.01156e-10
3.72198e-07
3.69763e-07
9.29578e-10
3.69877e-07
1.00907e-09
3.69965e-07
1.0359e-09
3.70028e-07
1.03259e-09
3.70065e-07
1.01165e-09
3.70078e-07
9.79744e-10
3.70073e-07
9.41165e-10
3.7005e-07
9.03002e-10
3.70012e-07
8.66017e-10
3.69962e-07
8.29968e-10
3.69902e-07
7.965e-10
3.69834e-07
7.64441e-10
3.69761e-07
7.34723e-10
3.69682e-07
7.08287e-10
6.85085e-10
3.69598e-07
3.16185e-07
8.04898e-10
3.16304e-07
8.90722e-10
3.16407e-07
9.32409e-10
3.16493e-07
9.46525e-10
3.16562e-07
9.43233e-10
3.16613e-07
9.29013e-10
3.16645e-07
9.08394e-10
3.16663e-07
8.85176e-10
3.16668e-07
8.6077e-10
3.16662e-07
8.35988e-10
3.16647e-07
8.12331e-10
3.16621e-07
7.89473e-10
3.16589e-07
7.67524e-10
3.1655e-07
7.46783e-10
7.27735e-10
3.16508e-07
2.6448e-07
7.24824e-10
2.64563e-07
8.07452e-10
2.64642e-07
8.53851e-10
2.64712e-07
8.76435e-10
2.64772e-07
8.83295e-10
2.64821e-07
8.80102e-10
2.64858e-07
8.70682e-10
2.64886e-07
8.57512e-10
2.64905e-07
8.42229e-10
2.64915e-07
8.2594e-10
2.64918e-07
8.09099e-10
2.64915e-07
7.91996e-10
2.64908e-07
7.75202e-10
2.64896e-07
7.58795e-10
7.42534e-10
2.64881e-07
2.17461e-07
6.62617e-10
2.17532e-07
7.36478e-10
2.17604e-07
7.81699e-10
2.17673e-07
8.07349e-10
2.17737e-07
8.19718e-10
2.17794e-07
8.23239e-10
2.17844e-07
8.20891e-10
2.17887e-07
8.14626e-10
2.17923e-07
8.05744e-10
2.17954e-07
7.9511e-10
2.1798e-07
7.83291e-10
2.18001e-07
7.70666e-10
2.18019e-07
7.57463e-10
2.18034e-07
7.4374e-10
7.29481e-10
2.18047e-07
1.76237e-07
6.03753e-10
1.76307e-07
6.65854e-10
1.76383e-07
7.0628e-10
1.76459e-07
7.31369e-10
1.76533e-07
7.45765e-10
1.76603e-07
7.52717e-10
1.7667e-07
7.54439e-10
1.76732e-07
7.52419e-10
1.7679e-07
7.47658e-10
1.76844e-07
7.40851e-10
1.76895e-07
7.32465e-10
1.76943e-07
7.22778e-10
1.76988e-07
7.11953e-10
1.77032e-07
7.00082e-10
6.872e-10
1.77074e-07
1.41074e-07
5.37407e-10
1.41153e-07
5.87308e-10
1.41238e-07
6.2143e-10
1.41325e-07
6.43994e-10
1.41413e-07
6.58251e-10
1.41499e-07
6.66471e-10
1.41583e-07
6.70241e-10
1.41665e-07
6.70643e-10
1.41744e-07
6.68409e-10
1.41821e-07
6.6404e-10
1.41896e-07
6.57873e-10
1.41968e-07
6.50127e-10
1.42039e-07
6.40942e-10
1.42109e-07
6.30402e-10
6.18549e-10
1.42178e-07
1.11722e-07
4.60085e-10
1.1181e-07
4.99016e-10
1.11905e-07
5.26809e-10
1.12003e-07
5.46157e-10
1.12102e-07
5.59225e-10
1.12201e-07
5.6754e-10
1.12299e-07
5.72184e-10
1.12396e-07
5.73899e-10
1.12491e-07
5.73185e-10
1.12584e-07
5.7039e-10
1.12677e-07
5.65756e-10
1.12767e-07
5.59452e-10
1.12857e-07
5.51592e-10
1.12945e-07
5.4225e-10
5.31472e-10
1.13032e-07
8.76221e-08
3.75531e-10
8.77158e-08
4.05376e-10
8.7815e-08
4.27561e-10
8.79174e-08
4.43725e-10
8.80214e-08
4.55239e-10
8.81259e-08
4.63088e-10
8.82301e-08
4.67971e-10
8.83336e-08
4.70373e-10
8.84362e-08
4.70624e-10
8.85376e-08
4.68961e-10
8.86378e-08
4.65556e-10
8.87367e-08
4.60533e-10
8.88343e-08
4.53984e-10
8.89306e-08
4.45973e-10
4.3655e-10
8.90255e-08
6.80798e-08
2.91074e-10
6.81715e-08
3.13703e-10
6.82679e-08
3.31196e-10
6.83671e-08
3.4448e-10
6.8468e-08
3.5438e-10
6.85695e-08
3.61507e-10
6.86712e-08
3.66294e-10
6.87726e-08
3.69042e-10
6.88732e-08
3.69961e-10
6.8973e-08
3.6921e-10
6.90716e-08
3.66906e-10
6.9169e-08
3.63141e-10
6.9265e-08
3.57989e-10
6.93595e-08
3.51503e-10
3.43737e-10
6.94523e-08
5.23837e-08
2.13842e-10
5.24666e-08
2.30824e-10
5.25533e-08
2.44457e-10
5.26426e-08
2.552e-10
5.27335e-08
2.63532e-10
5.28252e-08
2.69818e-10
5.29171e-08
2.74309e-10
5.3009e-08
2.77183e-10
5.31004e-08
2.78569e-10
5.3191e-08
2.7857e-10
5.32807e-08
2.77262e-10
5.33691e-08
2.74714e-10
5.34561e-08
2.70984e-10
5.35415e-08
2.66117e-10
2.60164e-10
5.36251e-08
3.98754e-08
1.48613e-10
3.9945e-08
1.61171e-10
4.00179e-08
1.71619e-10
4.0093e-08
1.80124e-10
4.01695e-08
1.86963e-10
4.0247e-08
1.9234e-10
4.03249e-08
1.96389e-10
4.04029e-08
1.99208e-10
4.04806e-08
2.00872e-10
4.05577e-08
2.01443e-10
4.0634e-08
2.00973e-10
4.07092e-08
1.9951e-10
4.07831e-08
1.97096e-10
4.08554e-08
1.9377e-10
1.89575e-10
4.0926e-08
2.99785e-08
9.73354e-11
3.00332e-08
1.06412e-10
3.00906e-08
1.14216e-10
3.015e-08
1.20753e-10
3.02108e-08
1.26189e-10
3.02725e-08
1.30621e-10
3.03348e-08
1.34112e-10
3.03973e-08
1.36713e-10
3.04597e-08
1.38461e-10
3.05217e-08
1.39395e-10
3.05831e-08
1.39543e-10
3.06437e-08
1.38939e-10
3.07032e-08
1.37613e-10
3.07614e-08
1.35596e-10
1.32921e-10
3.0818e-08
2.22033e-08
5.96511e-11
2.22437e-08
6.59895e-11
2.22863e-08
7.16086e-11
2.23306e-08
7.64399e-11
2.23762e-08
8.05852e-11
2.24228e-08
8.40761e-11
2.24699e-08
8.69345e-11
2.25175e-08
8.91823e-11
2.25651e-08
9.08369e-11
2.26126e-08
9.1917e-11
2.26597e-08
9.24385e-11
2.27062e-08
9.24232e-11
2.27519e-08
9.18897e-11
2.27966e-08
9.08624e-11
8.93644e-11
2.28402e-08
1.61403e-08
3.37643e-11
1.61683e-08
3.79758e-11
1.61981e-08
4.18254e-11
1.62293e-08
4.52207e-11
1.62617e-08
4.82204e-11
1.62949e-08
5.08194e-11
1.63288e-08
5.302e-11
1.63632e-08
5.48284e-11
1.63978e-08
5.62496e-11
1.64324e-08
5.72913e-11
1.64669e-08
5.79606e-11
1.6501e-08
5.82703e-11
1.65347e-08
5.82309e-11
1.65677e-08
5.78605e-11
5.71743e-11
1.65999e-08
1.14501e-08
1.72428e-11
1.14682e-08
1.98471e-11
1.14877e-08
2.23163e-11
1.15084e-08
2.45519e-11
1.153e-08
2.65813e-11
1.15525e-08
2.83843e-11
1.15755e-08
2.99557e-11
1.15991e-08
3.12943e-11
1.16229e-08
3.23994e-11
1.16469e-08
3.32725e-11
1.1671e-08
3.39155e-11
1.16949e-08
3.43352e-11
1.17186e-08
3.45365e-11
1.17419e-08
3.45324e-11
3.43332e-11
1.17648e-08
7.85341e-09
7.59602e-12
7.86421e-09
9.04226e-12
7.87604e-09
1.04903e-11
7.88875e-09
1.1838e-11
7.90224e-09
1.30918e-11
7.9164e-09
1.42307e-11
7.93111e-09
1.52486e-11
7.94626e-09
1.61418e-11
7.96175e-09
1.69081e-11
7.97748e-09
1.75459e-11
7.99334e-09
1.80549e-11
8.00923e-09
1.84382e-11
8.02507e-09
1.86974e-11
8.04076e-09
1.88414e-11
1.88786e-11
8.05622e-09
5.1221e-09
2.61255e-12
5.12786e-09
3.28536e-12
5.13432e-09
4.02989e-12
5.14141e-09
4.74292e-12
5.14908e-09
5.42019e-12
5.15727e-09
6.04788e-12
5.16589e-09
6.6211e-12
5.1749e-09
7.1369e-12
5.18421e-09
7.59339e-12
5.19377e-09
7.9883e-12
5.20351e-09
8.32046e-12
5.21335e-09
8.59152e-12
5.22325e-09
8.80125e-12
5.23314e-09
8.95534e-12
9.06195e-12
5.24295e-09
3.07105e-09
5.08113e-13
3.07361e-09
7.27017e-13
3.0766e-09
1.03311e-12
3.08001e-09
1.33458e-12
3.08381e-09
1.62486e-12
3.08796e-09
1.89876e-12
3.09242e-09
2.1537e-12
3.09717e-09
2.38817e-12
3.10216e-09
2.60161e-12
3.10736e-09
2.79155e-12
3.11272e-09
2.9577e-12
3.11821e-09
3.10079e-12
3.1238e-09
3.22005e-12
3.12943e-09
3.31873e-12
3.40457e-12
3.13509e-09
1.5512e-09
-5.28171e-14
1.55197e-09
-3.51903e-14
1.55296e-09
4.04502e-14
1.55418e-09
1.16557e-13
1.55561e-09
1.89959e-13
1.55725e-09
2.59966e-13
1.55908e-09
3.26298e-13
1.56108e-09
3.88624e-13
1.56323e-09
4.47451e-13
1.56552e-09
5.00363e-13
1.56793e-09
5.4888e-13
1.57044e-09
5.92605e-13
1.57303e-09
6.3107e-13
1.57568e-09
6.65469e-13
7.01456e-13
1.57839e-09
4.43388e-10
4.43353e-10
4.43394e-10
4.4351e-10
4.437e-10
4.4396e-10
4.44286e-10
4.44675e-10
4.45123e-10
4.45623e-10
4.46172e-10
4.46764e-10
4.47395e-10
4.48061e-10
4.48762e-10
1.25709e-09
-5.42776e-10
3.38877e-10
1.54644e-09
-5.0245e-10
2.13092e-10
1.83563e-09
-4.00594e-10
1.11408e-10
2.11769e-09
-3.01882e-10
1.98188e-11
2.39052e-09
-2.13178e-10
-5.96473e-11
2.65473e-09
-1.42518e-10
-1.21691e-10
2.91175e-09
-9.09698e-11
-1.66054e-10
3.16287e-09
-5.81102e-11
-1.93004e-10
3.40924e-09
-4.27716e-11
-2.03601e-10
3.65186e-09
-4.27234e-11
-1.99897e-10
3.89152e-09
-5.45076e-11
-1.85154e-10
4.12885e-09
-7.27839e-11
-1.64549e-10
4.36442e-09
-8.91718e-11
-1.46397e-10
4.59893e-09
-9.04933e-11
-1.44015e-10
4.83353e-09
-5.62987e-11
-1.78303e-10
5.07036e-09
4.34571e-11
-2.80285e-10
5.31302e-09
2.51656e-10
-4.94316e-10
5.56755e-09
6.24942e-10
-8.79474e-10
5.84291e-09
1.22659e-09
-1.50194e-09
6.1507e-09
2.12737e-09
-2.43516e-09
6.50381e-09
3.34316e-09
-3.69627e-09
6.91197e-09
4.78741e-09
-5.19558e-09
7.30379e-09
5.25739e-09
-5.64921e-09
7.6378e-09
4.83367e-09
-5.16768e-09
7.90636e-09
3.98445e-09
-4.25302e-09
8.1086e-09
2.89654e-09
-3.09878e-09
8.24662e-09
1.71113e-09
-1.84915e-09
8.32311e-09
5.23045e-10
-5.9953e-10
8.34029e-09
-6.0294e-10
5.85761e-10
8.29998e-09
-1.61952e-09
1.65984e-09
8.20407e-09
-2.49005e-09
2.58596e-09
8.05503e-09
-3.1866e-09
3.33564e-09
7.85612e-09
-3.69027e-09
3.88918e-09
7.6113e-09
-3.99186e-09
4.23668e-09
7.32488e-09
-4.09152e-09
4.37794e-09
7.00105e-09
-3.99714e-09
4.32097e-09
6.64341e-09
-3.72165e-09
4.07929e-09
6.25486e-09
-3.27939e-09
3.66794e-09
5.83788e-09
-2.68163e-09
3.09861e-09
5.39473e-09
-1.93238e-09
2.37552e-09
4.92612e-09
-1.03043e-09
1.49904e-09
4.42746e-09
1.19751e-11
4.86684e-10
3.88631e-09
1.11543e-09
-5.74275e-10
3.31478e-09
2.07333e-09
-1.5018e-09
2.27461e-09
2.98364e-09
-1.94346e-09
2.60279e-09
-6.22414e-10
2.77092e-09
-6.70578e-10
2.99811e-09
-6.27784e-10
3.25051e-09
-5.54286e-10
3.51297e-09
-4.75638e-10
3.77753e-09
-4.0708e-10
4.04096e-09
-3.54402e-10
4.302e-09
-3.19143e-10
4.56035e-09
-3.01127e-10
4.81618e-09
-2.98551e-10
5.06978e-09
-3.08106e-10
5.32149e-09
-3.245e-10
5.57174e-09
-3.39421e-10
5.82118e-09
-3.3993e-10
6.071e-09
-3.0612e-10
6.3235e-09
-2.09039e-10
6.5826e-09
-7.44437e-12
6.85488e-09
3.52663e-10
7.15015e-09
9.31312e-10
7.48119e-09
1.79634e-09
7.86235e-09
2.96199e-09
8.3054e-09
4.34436e-09
8.7341e-09
4.8287e-09
9.103e-09
4.46477e-09
9.40305e-09
3.68441e-09
9.63236e-09
2.66724e-09
9.79238e-09
1.55111e-09
9.88545e-09
4.29973e-10
9.91371e-09
-6.31208e-10
9.87915e-09
-1.58496e-09
9.78403e-09
-2.39494e-09
9.63144e-09
-3.034e-09
9.42548e-09
-3.48431e-09
9.17123e-09
-3.73761e-09
8.8744e-09
-3.79468e-09
8.54098e-09
-3.66372e-09
8.17706e-09
-3.35773e-09
7.78903e-09
-2.89137e-09
7.38481e-09
-2.27741e-09
6.97604e-09
-1.5236e-09
6.58084e-09
-6.35235e-10
6.22506e-09
3.67756e-10
5.94595e-09
1.39454e-09
5.80258e-09
2.2167e-09
2.33784e-09
5.73935e-09
4.50865e-09
-6.34819e-10
4.57977e-09
-7.41697e-10
4.71907e-09
-7.67081e-10
4.91113e-09
-7.46348e-10
5.13457e-09
-6.99075e-10
5.37585e-09
-6.48361e-10
5.62674e-09
-6.05294e-10
5.88241e-09
-5.74812e-10
6.1402e-09
-5.58915e-10
6.39868e-09
-5.57036e-10
6.65714e-09
-5.66566e-10
6.91526e-09
-5.82623e-10
7.17306e-09
-5.97212e-10
7.43094e-09
-5.97818e-10
7.69005e-09
-5.65226e-10
7.95275e-09
-4.71744e-10
8.22327e-09
-2.77956e-10
8.50868e-09
6.72446e-11
8.81975e-09
6.2025e-10
9.17039e-09
1.44569e-09
9.57656e-09
2.55582e-09
1.00524e-08
3.86852e-09
1.05173e-08
4.36375e-09
1.09217e-08
4.06039e-09
1.12547e-08
3.35146e-09
1.1513e-08
2.40891e-09
1.16972e-08
1.36688e-09
1.18092e-08
3.1803e-10
1.18508e-08
-6.72836e-10
1.18242e-08
-1.5584e-09
1.17323e-08
-2.30295e-09
1.15787e-08
-2.88043e-09
1.13687e-08
-3.27434e-09
1.11088e-08
-3.47767e-09
1.08064e-08
-3.49226e-09
1.04697e-08
-3.32709e-09
1.0108e-08
-2.99601e-09
9.73183e-09
-2.5152e-09
9.35525e-09
-1.90083e-09
8.99927e-09
-1.16762e-09
8.69641e-09
-3.32375e-10
8.49227e-09
5.7189e-10
8.43425e-09
1.45256e-09
8.53346e-09
2.11748e-09
2.24257e-09
8.62874e-09
7.10019e-09
-6.09711e-10
7.10486e-09
-7.46363e-10
7.1606e-09
-8.22824e-10
7.2721e-09
-8.57847e-10
7.43175e-09
-8.58731e-10
7.62412e-09
-8.40724e-10
7.8388e-09
-8.19981e-10
8.06817e-09
-8.04184e-10
8.3071e-09
-7.97845e-10
8.5522e-09
-8.0213e-10
8.80128e-09
-8.15648e-10
9.05302e-09
-8.3436e-10
9.30672e-09
-8.50916e-10
9.56238e-09
-8.53478e-10
9.8209e-09
-8.23738e-10
1.00846e-08
-7.35484e-10
1.0358e-08
-5.51361e-10
1.06487e-08
-2.23414e-10
1.09683e-08
3.00631e-10
1.1332e-08
1.08197e-09
1.17574e-08
2.13041e-09
1.22614e-08
3.36453e-09
1.27599e-08
3.86526e-09
1.31988e-08
3.62154e-09
1.35649e-08
2.98534e-09
1.38534e-08
2.12043e-09
1.40635e-08
1.15677e-09
1.41963e-08
1.85245e-10
1.42534e-08
-7.29992e-10
1.42373e-08
-1.54223e-09
1.41511e-08
-2.21675e-09
1.39996e-08
-2.72901e-09
1.37895e-08
-3.06417e-09
1.35286e-08
-3.21685e-09
1.32267e-08
-3.19034e-09
1.28946e-08
-2.99496e-09
1.25447e-08
-2.64616e-09
1.21921e-08
-2.1626e-09
1.18563e-08
-1.56497e-09
1.15646e-08
-8.75886e-10
1.13556e-08
-1.23411e-10
1.12772e-08
6.50299e-10
1.13656e-08
1.36412e-09
1.16005e-08
1.88261e-09
2.03409e-09
1.1809e-08
1.05438e-08
-5.67437e-10
1.05052e-08
-7.07744e-10
1.04981e-08
-8.1577e-10
1.05325e-08
-8.92182e-10
1.06119e-08
-9.38192e-10
1.0735e-08
-9.63758e-10
1.08899e-08
-9.74925e-10
1.10693e-08
-9.83559e-10
1.12668e-08
-9.95322e-10
1.14774e-08
-1.01275e-09
1.16975e-08
-1.03582e-09
1.19248e-08
-1.0616e-09
1.21575e-08
-1.08366e-09
1.23952e-08
-1.09113e-09
1.26383e-08
-1.06684e-09
1.28891e-08
-9.86325e-10
1.31523e-08
-8.14555e-10
1.34359e-08
-5.07003e-10
1.37527e-08
-1.61145e-11
1.41189e-08
7.15727e-10
1.45539e-08
1.69543e-09
1.50777e-08
2.84076e-09
1.56039e-08
3.33898e-09
1.60738e-08
3.15166e-09
1.64714e-08
2.58771e-09
1.67897e-08
1.80215e-09
1.70263e-08
9.20198e-10
1.71812e-08
3.03723e-11
1.72556e-08
-8.04448e-10
1.72521e-08
-1.53871e-09
1.71746e-08
-2.13924e-09
1.7029e-08
-2.58338e-09
1.68232e-08
-2.85837e-09
1.65672e-08
-2.96088e-09
1.62729e-08
-2.89601e-09
1.59538e-08
-2.67592e-09
1.56258e-08
-2.31815e-09
1.53075e-08
-1.84427e-09
1.50218e-08
-1.27932e-09
1.47981e-08
-6.52136e-10
1.46725e-08
2.18789e-12
1.46827e-08
6.40071e-10
1.48481e-08
1.19871e-09
1.51348e-08
1.59589e-09
1.75002e-09
1.54189e-08
1.5037e-08
-5.19655e-10
1.49772e-08
-6.47947e-10
1.49273e-08
-7.65843e-10
1.49015e-08
-8.66378e-10
1.49078e-08
-9.44561e-10
1.49517e-08
-1.00764e-09
1.50308e-08
-1.05396e-09
1.51398e-08
-1.09261e-09
1.52733e-08
-1.12882e-09
1.54262e-08
-1.16569e-09
1.55945e-08
-1.20405e-09
1.57748e-08
-1.24189e-09
1.59649e-08
-1.27377e-09
1.61637e-08
-1.28991e-09
1.63713e-08
-1.27448e-09
1.659e-08
-1.20504e-09
1.68246e-08
-1.04916e-09
1.70836e-08
-7.65974e-10
1.73809e-08
-3.13421e-10
1.77341e-08
3.62536e-10
1.8164e-08
1.26551e-09
1.86944e-08
2.3104e-09
1.92385e-08
2.79483e-09
1.97325e-08
2.65767e-09
2.01571e-08
2.1631e-09
2.05025e-08
1.45675e-09
2.07643e-08
6.5845e-10
2.0941e-08
-1.46389e-10
2.10335e-08
-8.96958e-10
2.10444e-08
-1.54953e-09
2.09782e-08
-2.07304e-09
2.0842e-08
-2.44725e-09
2.06456e-08
-2.66192e-09
2.04007e-08
-2.71605e-09
2.01217e-08
-2.61694e-09
1.98245e-08
-2.37879e-09
1.95277e-08
-2.02135e-09
1.92522e-08
-1.56874e-09
1.90219e-08
-1.04898e-09
1.88636e-08
-4.93906e-10
1.88053e-08
6.0484e-11
1.88707e-08
5.74728e-10
1.90642e-08
1.00518e-09
1.93525e-08
1.30756e-09
1.44955e-09
1.9653e-08
2.0816e-08
-4.70669e-10
2.07494e-08
-5.81343e-10
2.06773e-08
-6.93687e-10
2.06112e-08
-8.00334e-10
2.05628e-08
-8.96099e-10
2.0537e-08
-9.81844e-10
2.05389e-08
-1.05591e-09
2.05682e-08
-1.12188e-09
2.06225e-08
-1.18311e-09
2.06986e-08
-1.24186e-09
2.07934e-08
-1.2988e-09
2.09038e-08
-1.35228e-09
2.10275e-08
-1.39754e-09
2.11635e-08
-1.42586e-09
2.13118e-08
-1.42274e-09
2.14747e-08
-1.36798e-09
2.16575e-08
-1.23194e-09
2.18691e-08
-9.77606e-10
2.2125e-08
-5.6936e-10
2.24441e-08
4.35076e-11
2.28486e-08
8.61028e-10
2.33665e-08
1.7925e-09
2.39133e-08
2.24797e-09
2.442e-08
2.15103e-09
2.48631e-08
1.71999e-09
2.52295e-08
1.09031e-09
2.55123e-08
3.75678e-10
2.57084e-08
-3.42509e-10
2.58179e-08
-1.00644e-09
2.58433e-08
-1.57499e-09
2.57902e-08
-2.01991e-09
2.56669e-08
-2.32389e-09
2.54845e-08
-2.47957e-09
2.52571e-08
-2.48859e-09
2.50007e-08
-2.36057e-09
2.47336e-08
-2.1117e-09
2.44757e-08
-1.76348e-09
2.42485e-08
-1.34153e-09
2.40743e-08
-8.74717e-10
2.39746e-08
-3.94246e-10
2.39676e-08
6.74814e-11
2.40636e-08
4.78769e-10
2.42571e-08
8.11616e-10
2.45201e-08
1.04461e-09
1.16853e-09
2.48011e-08
2.81632e-08
-4.19337e-10
2.80944e-08
-5.12548e-10
2.8013e-08
-6.12309e-10
2.79262e-08
-7.13518e-10
2.78421e-08
-8.1205e-10
2.77665e-08
-9.06204e-10
2.77052e-08
-9.94661e-10
2.76613e-08
-1.07796e-09
2.76356e-08
-1.15744e-09
2.76278e-08
-1.23403e-09
2.76366e-08
-1.3076e-09
2.76606e-08
-1.37623e-09
2.76984e-08
-1.43539e-09
2.77497e-08
-1.47714e-09
2.78151e-08
-1.48814e-09
2.78977e-08
-1.45057e-09
2.80034e-08
-1.33764e-09
2.81419e-08
-1.11615e-09
2.83308e-08
-7.58183e-10
2.859e-08
-2.15715e-10
2.89434e-08
5.07671e-10
2.94238e-08
1.31202e-09
2.99524e-08
1.71938e-09
3.04548e-08
1.64867e-09
3.09029e-08
1.27185e-09
3.12799e-08
7.13364e-10
3.15756e-08
7.99508e-11
3.17852e-08
-5.52096e-10
3.19078e-08
-1.12903e-09
3.1946e-08
-1.61323e-09
3.1906e-08
-1.97994e-09
3.17974e-08
-2.2153e-09
3.1633e-08
-2.31513e-09
3.14282e-08
-2.28383e-09
3.12009e-08
-2.1332e-09
3.09702e-08
-1.881e-09
3.07563e-08
-1.54961e-09
3.05794e-08
-1.16462e-09
3.04582e-08
-7.53494e-10
3.0408e-08
-3.44088e-10
3.0438e-08
3.74831e-11
3.05494e-08
3.67402e-10
3.07315e-08
6.29486e-10
3.09619e-08
8.14262e-10
9.21903e-10
3.12085e-08
3.74062e-08
-3.61975e-10
3.73335e-08
-4.39872e-10
3.72468e-08
-5.25517e-10
3.71491e-08
-6.15874e-10
3.7045e-08
-7.07988e-10
3.69388e-08
-7.99913e-10
3.68345e-08
-8.90389e-10
3.67355e-08
-9.78942e-10
3.66438e-08
-1.06577e-09
3.65607e-08
-1.15088e-09
3.64866e-08
-1.2335e-09
3.64217e-08
-1.31136e-09
3.63663e-08
-1.37999e-09
3.63213e-08
-1.43212e-09
3.62885e-08
-1.45534e-09
3.62723e-08
-1.43438e-09
3.62799e-08
-1.34526e-09
3.63221e-08
-1.15839e-09
3.6419e-08
-8.55013e-10
3.65921e-08
-3.88822e-10
3.68663e-08
2.33459e-10
3.72805e-08
8.97824e-10
3.77649e-08
1.23495e-09
3.82407e-08
1.17292e-09
3.8675e-08
8.3746e-10
3.90469e-08
3.41523e-10
3.93428e-08
-2.1596e-10
3.95558e-08
-7.65073e-10
3.9684e-08
-1.25723e-09
3.97301e-08
-1.65932e-09
3.97008e-08
-1.95069e-09
3.96069e-08
-2.12135e-09
3.94622e-08
-2.17047e-09
3.92835e-08
-2.10511e-09
3.90891e-08
-1.93884e-09
3.88984e-08
-1.69024e-09
3.87302e-08
-1.38141e-09
3.86019e-08
-1.03632e-09
3.85277e-08
-6.79319e-10
3.8517e-08
-3.33375e-10
3.85728e-08
-1.83712e-11
3.86907e-08
2.49584e-10
3.88589e-08
4.61299e-10
3.90596e-08
6.13505e-10
7.09339e-10
3.92722e-08
4.8908e-08
-2.95614e-10
4.88284e-08
-3.60261e-10
4.87352e-08
-4.32304e-10
4.86294e-08
-5.10071e-10
4.8513e-08
-5.9159e-10
4.83883e-08
-6.75199e-10
4.82576e-08
-7.59684e-10
4.81229e-08
-8.44264e-10
4.79857e-08
-9.2858e-10
4.7847e-08
-1.01217e-09
4.77075e-08
-1.09403e-09
4.7568e-08
-1.17184e-09
4.74294e-08
-1.24144e-09
4.72938e-08
-1.29647e-09
4.7164e-08
-1.3255e-09
4.70457e-08
-1.31614e-09
4.69478e-08
-1.24734e-09
4.68821e-08
-1.09272e-09
4.68715e-08
-8.44363e-10
4.69393e-08
-4.56677e-10
4.71112e-08
6.15969e-11
4.74321e-08
5.76858e-10
4.78453e-08
8.21749e-10
4.8269e-08
7.49265e-10
4.86668e-08
4.3962e-10
4.90135e-08
-5.18121e-12
4.92925e-08
-4.94877e-10
4.94945e-08
-9.67107e-10
4.96169e-08
-1.37969e-09
4.96625e-08
-1.70484e-09
4.96384e-08
-1.92662e-09
4.95561e-08
-2.0391e-09
4.94304e-08
-2.04475e-09
4.92782e-08
-1.95291e-09
4.91177e-08
-1.77828e-09
4.89667e-08
-1.53932e-09
4.8842e-08
-1.25669e-09
4.87573e-08
-9.51574e-10
4.87222e-08
-6.44238e-10
4.87414e-08
-3.52568e-10
4.88139e-08
-9.0881e-11
4.89329e-08
1.30597e-10
4.90878e-08
3.06373e-10
4.92648e-08
4.36517e-10
5.24465e-10
4.94497e-08
6.30506e-08
-2.20127e-10
6.29634e-08
-2.73037e-10
6.28634e-08
-3.32375e-10
6.27507e-08
-3.97294e-10
6.26256e-08
-4.66556e-10
6.24893e-08
-5.38867e-10
6.23427e-08
-6.13103e-10
6.21868e-08
-6.88328e-10
6.20221e-08
-7.63851e-10
6.18487e-08
-8.38844e-10
6.16669e-08
-9.12193e-10
6.14767e-08
-9.81689e-10
6.12789e-08
-1.04361e-09
6.10753e-08
-1.09282e-09
6.08688e-08
-1.11902e-09
6.06658e-08
-1.11314e-09
6.04758e-08
-1.05736e-09
6.03115e-08
-9.28451e-10
6.01974e-08
-7.30176e-10
6.01584e-08
-4.17691e-10
6.02209e-08
-9.54288e-13
6.04339e-08
3.63845e-10
6.07546e-08
5.01043e-10
6.1103e-08
4.00883e-10
6.14419e-08
1.00781e-10
6.17422e-08
-3.05562e-10
6.19849e-08
-7.37534e-10
6.21591e-08
-1.14134e-09
6.22617e-08
-1.4823e-09
6.22956e-08
-1.73867e-09
6.22684e-08
-1.89948e-09
6.21922e-08
-1.96283e-09
6.20815e-08
-1.93414e-09
6.1953e-08
-1.82441e-09
6.18234e-08
-1.64866e-09
6.17084e-08
-1.42432e-09
6.16214e-08
-1.1697e-09
6.15725e-08
-9.02602e-10
6.15673e-08
-6.39093e-10
6.16073e-08
-3.92567e-10
6.16895e-08
-1.73023e-10
6.18058e-08
1.42403e-11
6.19487e-08
1.63535e-10
6.21068e-08
2.78405e-10
3.61019e-10
6.22702e-08
8.02312e-08
-1.38687e-10
8.01392e-08
-1.81046e-10
8.00355e-08
-2.28623e-10
7.99192e-08
-2.81035e-10
7.97902e-08
-3.37544e-10
7.96485e-08
-3.97207e-10
7.94945e-08
-4.59053e-10
7.93283e-08
-5.221e-10
7.91499e-08
-5.85475e-10
7.89591e-08
-6.48044e-10
7.87555e-08
-7.08594e-10
7.85387e-08
-7.64932e-10
7.83089e-08
-8.13767e-10
7.80672e-08
-8.51123e-10
7.7816e-08
-8.67868e-10
7.75612e-08
-8.5831e-10
7.73116e-08
-8.07787e-10
7.70805e-08
-6.97331e-10
7.68905e-08
-5.40161e-10
7.67672e-08
-2.94376e-10
7.67419e-08
2.43418e-11
7.68548e-08
2.50917e-10
7.7074e-08
2.81827e-10
7.73358e-08
1.39094e-10
7.76015e-08
-1.64903e-10
7.784e-08
-5.44064e-10
7.80304e-08
-9.27912e-10
7.81618e-08
-1.27277e-09
7.82314e-08
-1.55184e-09
7.82424e-08
-1.74974e-09
7.82034e-08
-1.86041e-09
7.81261e-08
-1.88558e-09
7.80249e-08
-1.83292e-09
7.79148e-08
-1.7143e-09
7.78103e-08
-1.54422e-09
7.77243e-08
-1.33834e-09
7.76668e-08
-1.11219e-09
7.76444e-08
-8.80119e-10
7.76597e-08
-6.54424e-10
7.7712e-08
-4.44841e-10
7.77972e-08
-2.58251e-10
7.79101e-08
-9.8638e-11
7.80409e-08
3.27522e-11
7.81832e-08
1.36046e-10
2.14759e-10
7.83295e-08
1.0089e-07
-5.60006e-11
1.00798e-07
-8.89188e-11
1.00695e-07
-1.25801e-10
1.00581e-07
-1.66484e-10
1.00454e-07
-2.10533e-10
1.00314e-07
-2.5728e-10
1.00161e-07
-3.05941e-10
9.99941e-08
-3.55572e-10
9.98139e-08
-4.05276e-10
9.96196e-08
-4.53738e-10
9.94108e-08
-4.99762e-10
9.91869e-08
-5.41086e-10
9.89481e-08
-5.75007e-10
9.86953e-08
-5.98232e-10
9.84305e-08
-6.03151e-10
9.81592e-08
-5.86963e-10
9.78884e-08
-5.36972e-10
9.76329e-08
-4.41874e-10
9.741e-08
-3.17218e-10
9.72419e-08
-1.26251e-10
9.71743e-08
9.19319e-11
9.72233e-08
2.01928e-10
9.73509e-08
1.54158e-10
9.75293e-08
-3.92949e-11
9.7727e-08
-3.62572e-10
9.79013e-08
-7.18345e-10
9.80336e-08
-1.06029e-09
9.81153e-08
-1.35443e-09
9.81448e-08
-1.58137e-09
9.81268e-08
-1.73174e-09
9.80703e-08
-1.8039e-09
9.79871e-08
-1.80235e-09
9.78903e-08
-1.73611e-09
9.7793e-08
-1.61703e-09
9.77072e-08
-1.45838e-09
9.76425e-08
-1.27362e-09
9.76057e-08
-1.07547e-09
9.76008e-08
-8.75136e-10
9.76282e-08
-6.81903e-10
9.76862e-08
-5.02813e-10
9.77706e-08
-3.42649e-10
9.7876e-08
-2.03984e-10
9.79963e-08
-8.75611e-11
9.81246e-08
7.75351e-12