/*--------------------------------*- C++ -*----------------------------------*\
| =========                 |                                                 |
| \\      /  F ield         | OpenFOAM: The Open Source CFD Toolbox           |
|  \\    /   O peration     | Version:  2312                                  |
|   \\  /    A nd           | Website:  www.openfoam.com                      |
|    \\/     M anipulation  |                                                 |
\*---------------------------------------------------------------------------*/
FoamFile
{
    version     2.0;
    format      ascii;
    arch        "LSB;label=32;scalar=64";
    class       volVectorField;
    location    "101.5";
    object      U;
}
// * * * * * * * * * * * * * * * * * * * * * * * * * * * * * * * * * * * * * //

dimensions      [0 1 -1 0 0 0 0];

internalField   nonuniform List<vector> 
4800
(
(0.000493749 2.54496e-07 -2.72463e-26)
(0.000487924 2.993e-07 -1.95159e-25)
(0.000484612 3.28231e-07 2.49465e-25)
(0.000482961 3.4279e-07 1.18288e-25)
(0.000482523 3.49926e-07 1.78116e-24)
(0.000483124 3.29336e-07 -4.2672e-24)
(0.000484601 3.02183e-07 4.04298e-24)
(0.000486935 2.23184e-07 -5.93905e-24)
(0.000490207 5.40091e-08 1.88909e-24)
(0.000494664 -2.42896e-07 6.58988e-24)
(0.000500753 -8.10783e-07 -2.02773e-24)
(0.000509804 -2.32531e-06 -1.64378e-25)
(0.000529418 -7.85741e-06 -2.51462e-24)
(0.00057871 -3.03602e-05 1.16888e-24)
(0.00066052 -9.96306e-05 -9.28342e-25)
(0.00152723 1.28187e-06 -8.62941e-26)
(0.00150874 8.87122e-07 1.07644e-25)
(0.0014977 5.68931e-07 -1.02537e-24)
(0.00149164 2.76728e-07 7.58733e-25)
(0.00148922 -1.44569e-08 2.52303e-24)
(0.00148989 -3.60395e-07 -4.04707e-24)
(0.00149305 -7.79186e-07 -1.20812e-24)
(0.00149873 -1.35784e-06 -3.19638e-25)
(0.00150711 -2.26771e-06 9.86712e-24)
(0.00151877 -3.74219e-06 -7.32875e-24)
(0.00153503 -6.44763e-06 7.98184e-25)
(0.00155873 -1.27201e-05 1.23258e-24)
(0.00159919 -3.06926e-05 -1.83397e-24)
(0.00166777 -8.57651e-05 -5.53366e-25)
(0.00174172 -0.000211415 2.4012e-24)
(0.00266924 4.19481e-06 -6.17468e-26)
(0.00263661 2.95256e-06 6.29829e-26)
(0.00261643 1.98922e-06 6.69088e-25)
(0.00260464 1.11726e-06 -1.61081e-24)
(0.00259901 2.06244e-07 1.60409e-24)
(0.00259857 -8.60514e-07 1.53782e-24)
(0.00260217 -2.16539e-06 -3.97005e-24)
(0.00260985 -3.95293e-06 -2.54813e-24)
(0.00262184 -6.57256e-06 6.08812e-24)
(0.0026387 -1.06575e-05 2.33487e-24)
(0.00266189 -1.77625e-05 -8.11026e-24)
(0.00269368 -3.20375e-05 -1.25688e-24)
(0.0027383 -6.35473e-05 3.48767e-24)
(0.00279455 -0.000133279 5.55794e-24)
(0.00283555 -0.000250844 -2.87676e-24)
(0.00392495 9.50496e-06 2.27932e-26)
(0.00387715 6.88198e-06 -1.60127e-25)
(0.00384664 4.85487e-06 7.26102e-25)
(0.00382787 3.02758e-06 8.05902e-25)
(0.00381777 1.11691e-06 -7.74696e-25)
(0.00381475 -1.10911e-06 -4.59013e-24)
(0.0038175 -3.71255e-06 -3.19815e-24)
(0.00382539 -7.31253e-06 1.21161e-23)
(0.00383897 -1.24859e-05 5.15189e-24)
(0.00385815 -2.01902e-05 -7.33859e-24)
(0.00388383 -3.26527e-05 -2.98226e-24)
(0.00391642 -5.45851e-05 -2.29869e-24)
(0.0039551 -9.43999e-05 6.38631e-26)
(0.0039923 -0.000163075 1.71296e-24)
(0.00400837 -0.000256477 8.40578e-27)
(0.00529671 1.774e-05 -4.17251e-26)
(0.00523374 1.31354e-05 -2.582e-25)
(0.00519231 9.57678e-06 -1.72937e-25)
(0.00516563 6.38174e-06 4.46063e-25)
(0.00514994 3.08259e-06 -1.32284e-24)
(0.00514288 -6.20556e-07 3.31394e-24)
(0.0051434 -5.21694e-06 -5.69553e-25)
(0.00514972 -1.09456e-05 2.10318e-24)
(0.00516246 -1.91786e-05 -1.17898e-23)
(0.00518083 -3.08447e-05 2.25392e-23)
(0.00520464 -4.82677e-05 -2.19156e-23)
(0.00523254 -7.53046e-05 1.16422e-23)
(0.00526098 -0.000117007 -1.08719e-23)
(0.00528186 -0.000176864 1.0305e-23)
(0.00528389 -0.000247551 -4.12399e-24)
(0.00678229 2.94098e-05 5.49156e-26)
(0.00670594 2.2241e-05 1.99188e-25)
(0.00665415 1.66968e-05 -1.0618e-24)
(0.00661945 1.17346e-05 -7.03353e-25)
(0.00659755 6.68669e-06 1.84585e-24)
(0.0065856 1.0453e-06 6.81569e-25)
(0.00658215 -5.64162e-06 -5.38471e-24)
(0.00658552 -1.41068e-05 1.29541e-23)
(0.00659513 -2.54414e-05 -1.70009e-23)
(0.00660984 -4.07763e-05 4.06134e-24)
(0.00662843 -6.19526e-05 1.2593e-23)
(0.00664854 -9.12964e-05 -1.76089e-23)
(0.00666612 -0.000130736 8.83804e-24)
(0.00667513 -0.00017982 9.15113e-24)
(0.00667035 -0.000232321 -6.98343e-24)
(0.0083726 4.46882e-05 4.51594e-26)
(0.00828741 3.45235e-05 -2.69503e-25)
(0.00822777 2.66384e-05 9.81087e-25)
(0.00818628 1.95888e-05 -1.37722e-24)
(0.00815854 1.25017e-05 -4.81416e-24)
(0.00814152 4.67522e-06 8.21897e-24)
(0.00813338 -4.42112e-06 -5.07531e-24)
(0.00813238 -1.55616e-05 1.75043e-23)
(0.00813722 -2.98092e-05 -1.19005e-23)
(0.00814632 -4.80828e-05 -5.63257e-24)
(0.0081578 -7.14884e-05 -1.12252e-23)
(0.00816909 -0.000100902 1.03156e-23)
(0.00817692 -0.000136241 2.92288e-24)
(0.0081776 -0.000175641 2.52703e-24)
(0.00816939 -0.00021482 -2.22821e-24)
(0.0100496 6.29633e-05 -6.46013e-26)
(0.00996368 4.97323e-05 8.88226e-25)
(0.00990133 3.9392e-05 -2.09248e-24)
(0.00985629 3.01224e-05 -1.78362e-24)
(0.00982463 2.08635e-05 6.13435e-25)
(0.00980355 1.07937e-05 1.28854e-24)
(0.00979105 -7.22699e-07 4.81795e-24)
(0.0097853 -1.43556e-05 -1.33113e-23)
(0.0097847 -3.09804e-05 -7.27588e-24)
(0.00978739 -5.11806e-05 1.97585e-23)
(0.00979138 -7.5333e-05 -6.22782e-24)
(0.00979438 -0.000103308 2.13348e-23)
(0.00979422 -0.00013413 -1.12688e-23)
(0.00978894 -0.00016587 -3.62584e-24)
(0.00977847 -0.000195874 2.15381e-24)
(0.0117859 8.23069e-05 -8.46626e-27)
(0.0117109 6.65745e-05 4.88709e-25)
(0.0116539 5.40968e-05 -6.99028e-25)
(0.0116109 4.28079e-05 1.73026e-24)
(0.0115792 3.15308e-05 -1.04708e-23)
(0.0115566 1.94067e-05 1.1104e-23)
(0.0115415 5.78523e-06 -1.79001e-23)
(0.011532 -9.88445e-06 1.09449e-23)
(0.0115266 -2.81202e-05 8.27318e-24)
(0.0115235 -4.91619e-05 1.82501e-23)
(0.011521 -7.28471e-05 -2.39004e-23)
(0.0115173 -9.85399e-05 -4.49692e-24)
(0.0115113 -0.000125096 2.02712e-24)
(0.0115018 -0.000151037 1.48794e-23)
(0.0114897 -0.000174808 -6.07534e-24)
(0.0135499 9.91374e-05 4.60014e-26)
(0.0134986 8.23087e-05 -2.0304e-25)
(0.0134565 6.86124e-05 9.28066e-25)
(0.0134228 5.59746e-05 -3.31088e-24)
(0.0133966 4.32361e-05 5.07866e-24)
(0.0133768 2.96003e-05 -6.66854e-24)
(0.0133621 1.45087e-05 1.12992e-23)
(0.0133515 -2.42818e-06 2.07999e-24)
(0.0133434 -2.13406e-05 -1.58517e-23)
(0.0133365 -4.21915e-05 2.28318e-23)
(0.0133296 -6.45148e-05 -2.52848e-23)
(0.0133216 -8.75468e-05 -7.55751e-24)
(0.013312 -0.000110312 1.32806e-23)
(0.0133001 -0.000131827 3.97318e-24)
(0.013287 -0.000151226 -1.7418e-24)
(0.0153175 0.000108786 1.83487e-25)
(0.0152986 9.29193e-05 -1.57869e-24)
(0.0152794 7.94851e-05 -2.62703e-24)
(0.0152618 6.665e-05 6.17662e-24)
(0.0152467 5.34314e-05 2.86493e-24)
(0.0152342 3.92125e-05 -1.80244e-23)
(0.015224 2.35993e-05 5.47579e-24)
(0.0152155 6.45731e-06 4.00098e-24)
(0.0152077 -1.2139e-05 -1.79232e-23)
(0.0152 -3.18643e-05 1.85655e-23)
(0.0151917 -5.21656e-05 -1.51633e-23)
(0.0151822 -7.23803e-05 3.88963e-23)
(0.0151714 -9.17883e-05 -1.88245e-23)
(0.0151591 -0.000109789 1.11363e-23)
(0.0151463 -0.000125916 -3.05083e-24)
(0.0170884 0.000107746 -7.17806e-26)
(0.0171008 9.46504e-05 1.07263e-24)
(0.0171057 8.30119e-05 -2.11649e-24)
(0.0171066 7.13167e-05 -1.12201e-24)
(0.0171055 5.8832e-05 1.24749e-23)
(0.0171032 4.51811e-05 -1.70343e-24)
(0.0171003 3.02034e-05 -2.26554e-23)
(0.0170966 1.39863e-05 2.66884e-23)
(0.0170921 -3.26163e-06 -5.96127e-24)
(0.0170864 -2.10201e-05 -2.10903e-23)
(0.0170794 -3.88122e-05 2.26427e-23)
(0.0170709 -5.61248e-05 1.23634e-23)
(0.0170614 -7.24644e-05 -1.03077e-23)
(0.0170504 -8.74842e-05 -1.80576e-23)
(0.0170392 -0.000100939 1.52176e-24)
(0.0188887 9.65503e-05 3.5561e-27)
(0.0189204 8.67444e-05 -1.21574e-24)
(0.0189422 7.76419e-05 5.81355e-24)
(0.0189573 6.79843e-05 4.38948e-25)
(0.0189677 5.72187e-05 3.48909e-24)
(0.0189746 4.5159e-05 -1.22266e-23)
(0.0189787 3.18496e-05 1.06405e-23)
(0.0189804 1.75042e-05 2.52889e-24)
(0.01898 2.50844e-06 2.23475e-23)
(0.0189776 -1.26905e-05 -3.43665e-23)
(0.0189734 -2.76757e-05 -1.57145e-23)
(0.0189675 -4.20531e-05 -1.0498e-23)
(0.0189604 -5.55016e-05 1.97221e-23)
(0.018952 -6.78306e-05 -5.75625e-25)
(0.0189432 -7.89144e-05 1.92841e-24)
(0.0207457 7.95525e-05 -1.16826e-26)
(0.020782 7.24435e-05 1.28719e-24)
(0.0208095 6.56839e-05 -1.87829e-24)
(0.0208303 5.81657e-05 -1.72206e-27)
(0.0208459 4.94888e-05 2.47853e-24)
(0.0208573 3.95879e-05 6.3955e-24)
(0.0208652 2.85647e-05 -2.48564e-23)
(0.02087 1.66783e-05 2.00897e-24)
(0.0208724 4.33602e-06 1.27525e-23)
(0.0208723 -8.08492e-06 -5.9682e-24)
(0.0208704 -2.02011e-05 1.62774e-23)
(0.0208668 -3.17391e-05 1.14918e-23)
(0.0208619 -4.24962e-05 -2.08523e-23)
(0.0208558 -5.23662e-05 1.43377e-23)
(0.0208493 -6.12826e-05 -1.19357e-23)
(0.022652 6.11977e-05 -3.63744e-25)
(0.0226844 5.62717e-05 -2.12468e-27)
(0.0227096 5.14987e-05 2.36843e-24)
(0.022729 4.58191e-05 -1.17704e-23)
(0.022744 3.90709e-05 1.03444e-23)
(0.0227552 3.13923e-05 -7.56736e-24)
(0.0227631 2.28603e-05 5.41474e-24)
(0.0227681 1.36319e-05 -3.88634e-23)
(0.0227707 4.03877e-06 5.6142e-23)
(0.0227712 -5.58541e-06 -3.32867e-23)
(0.0227701 -1.49532e-05 2.97977e-23)
(0.0227673 -2.38814e-05 2.50643e-23)
(0.0227636 -3.22238e-05 -4.38428e-23)
(0.0227587 -3.9905e-05 1.42972e-23)
(0.0227534 -4.68789e-05 -6.01889e-25)
(0.0245528 4.34443e-05 -1.25819e-26)
(0.0245796 4.05543e-05 -6.71158e-25)
(0.0246 3.77682e-05 6.76492e-25)
(0.0246156 3.40302e-05 -3.37216e-25)
(0.0246274 2.91986e-05 4.42508e-24)
(0.0246362 2.36465e-05 -7.55842e-24)
(0.0246421 1.75068e-05 6.98211e-24)
(0.0246455 1.08341e-05 -2.20443e-23)
(0.024647 3.90192e-06 5.0185e-23)
(0.0246468 -3.03689e-06 -6.43085e-23)
(0.0246452 -9.81816e-06 5.27564e-23)
(0.0246424 -1.6336e-05 -1.78402e-23)
(0.0246387 -2.24815e-05 9.28238e-25)
(0.0246341 -2.81871e-05 4.09882e-24)
(0.0246293 -3.33994e-05 -7.87099e-24)
(0.0263574 2.61807e-05 -9.93625e-25)
(0.0263793 2.55873e-05 1.05016e-24)
(0.0263956 2.50217e-05 5.23496e-25)
(0.0264074 2.34753e-05 -2.24985e-24)
(0.026416 2.09072e-05 7.97209e-24)
(0.0264221 1.765e-05 -7.88614e-24)
(0.0264258 1.38106e-05 -6.70505e-24)
(0.0264274 9.4778e-06 -1.59569e-23)
(0.0264276 4.98457e-06 8.35899e-24)
(0.0264264 5.24355e-07 3.87457e-23)
(0.0264241 -3.85476e-06 -2.04151e-23)
(0.0264207 -8.12232e-06 1.20884e-23)
(0.0264168 -1.22153e-05 -5.00275e-24)
(0.0264121 -1.60605e-05 -1.46999e-23)
(0.0264072 -1.96058e-05 7.51993e-24)
(0.0279456 9.52232e-06 3.07282e-25)
(0.0279626 1.10921e-05 -4.37932e-25)
(0.0279749 1.30845e-05 1.32757e-24)
(0.0279837 1.39835e-05 -5.0447e-24)
(0.0279894 1.37151e-05 -1.68464e-24)
(0.027993 1.33773e-05 1.48833e-23)
(0.027995 1.18839e-05 -1.10266e-23)
(0.027995 9.44325e-06 -5.8579e-24)
(0.0279937 7.18329e-06 4.89661e-24)
(0.0279916 5.14347e-06 -5.26475e-24)
(0.0279887 3.02306e-06 1.28214e-23)
(0.0279853 1.03872e-06 6.92511e-24)
(0.027981 -1.15492e-06 -2.82319e-23)
(0.0279763 -3.1936e-06 1.95103e-23)
(0.0279714 -5.11222e-06 -4.02295e-24)
(0.0291486 -4.97329e-06 8.48196e-25)
(0.0291608 -3.14588e-07 5.66851e-25)
(0.0291696 2.90656e-06 -1.63902e-24)
(0.0291756 6.37393e-06 2.50001e-24)
(0.0291786 8.88784e-06 -3.56965e-24)
(0.0291807 1.03627e-05 -6.97785e-24)
(0.0291804 1.2114e-05 -5.57676e-24)
(0.0291796 1.25874e-05 1.2264e-23)
(0.0291779 1.26724e-05 1.12042e-23)
(0.0291756 1.24944e-05 -2.93808e-23)
(0.0291726 1.21263e-05 1.94196e-23)
(0.0291688 1.16593e-05 -1.52045e-24)
(0.0291643 1.11286e-05 -1.26796e-24)
(0.0291595 1.06542e-05 1.68267e-24)
(0.0291546 1.02651e-05 -7.68144e-25)
(0.0297407 -1.79673e-05 -2.04379e-24)
(0.0297504 -1.13443e-05 -2.44551e-24)
(0.0297575 -5.47722e-06 3.98505e-24)
(0.0297622 -2.80074e-07 2.14897e-25)
(0.0297648 4.40834e-06 6.04314e-25)
(0.029766 8.39276e-06 3.48135e-24)
(0.029766 1.18508e-05 -2.7108e-24)
(0.0297651 1.46728e-05 -1.77745e-23)
(0.0297633 1.68233e-05 3.94255e-23)
(0.0297607 1.85042e-05 -1.61808e-23)
(0.0297576 1.99399e-05 5.92735e-24)
(0.0297539 2.12702e-05 -1.06174e-23)
(0.02975 2.25498e-05 -1.04309e-23)
(0.0297459 2.37652e-05 1.51306e-23)
(0.0297415 2.49098e-05 -6.42784e-24)
(0.0295437 -2.89791e-05 2.98886e-24)
(0.0295492 -2.03558e-05 -5.98224e-24)
(0.0295524 -1.22689e-05 1.73367e-24)
(0.0295544 -5.02397e-06 1.14257e-24)
(0.029555 1.40642e-06 1.56049e-24)
(0.0295545 7.12474e-06 -3.32717e-24)
(0.029553 1.21823e-05 -1.00284e-23)
(0.0295509 1.66413e-05 2.44894e-23)
(0.0295482 2.06078e-05 5.6075e-24)
(0.0295452 2.41809e-05 -1.42984e-23)
(0.0295418 2.74506e-05 -7.19651e-24)
(0.0295381 3.04824e-05 8.06193e-24)
(0.0295341 3.33082e-05 -8.49769e-24)
(0.0295299 3.59336e-05 4.7621e-24)
(0.0295255 3.83824e-05 -2.0446e-24)
(0.0285288 -3.34794e-05 1.72169e-24)
(0.0285304 -2.38062e-05 -3.23023e-24)
(0.028531 -1.47481e-05 -6.89998e-25)
(0.0285309 -6.42931e-06 3.36976e-24)
(0.0285303 1.09e-06 -2.87001e-25)
(0.0285294 7.92355e-06 9.56827e-25)
(0.0285282 1.41297e-05 -9.51647e-25)
(0.0285266 1.97911e-05 -1.80342e-24)
(0.0285248 2.49816e-05 -3.98379e-24)
(0.0285227 2.97494e-05 2.51863e-23)
(0.0285204 3.41422e-05 -1.55701e-23)
(0.0285179 3.82031e-05 1.42427e-24)
(0.0285152 4.19756e-05 -1.89312e-23)
(0.0285124 4.54967e-05 9.13453e-24)
(0.0285094 4.87996e-05 2.88385e-24)
(0.0269621 -3.37089e-05 4.05962e-24)
(0.0269604 -2.38198e-05 -6.61406e-24)
(0.0269581 -1.46335e-05 1.5179e-24)
(0.0269559 -6.07226e-06 -4.4779e-25)
(0.0269536 1.88285e-06 2.13298e-24)
(0.0269512 9.2087e-06 -3.00037e-24)
(0.0269487 1.59517e-05 3.24079e-24)
(0.0269462 2.217e-05 -2.04398e-24)
(0.0269436 2.79138e-05 1.63244e-24)
(0.0269411 3.32225e-05 8.43754e-24)
(0.0269385 3.81461e-05 -1.82848e-23)
(0.0269359 4.27083e-05 1.37468e-23)
(0.0269332 4.69683e-05 -1.22432e-24)
(0.0269307 5.09496e-05 -3.98403e-24)
(0.026928 5.4688e-05 6.1776e-25)
(0.0250465 -3.08473e-05 1.51096e-24)
(0.0250417 -2.11406e-05 -6.54884e-24)
(0.0250372 -1.19793e-05 9.21006e-24)
(0.0250332 -3.39801e-06 -5.15036e-24)
(0.0250295 4.54399e-06 1.28361e-24)
(0.0250263 1.19301e-05 -1.49317e-24)
(0.0250233 1.87811e-05 -9.44145e-26)
(0.0250205 2.51347e-05 1.98358e-24)
(0.025018 3.10352e-05 -7.61044e-24)
(0.0250157 3.65175e-05 -2.79594e-24)
(0.0250135 4.1616e-05 1.11694e-23)
(0.0250116 4.63638e-05 3.1173e-24)
(0.0250097 5.0797e-05 -5.24898e-24)
(0.0250081 5.49363e-05 1.63041e-24)
(0.0250066 5.88038e-05 -4.59307e-25)
(0.0229318 -2.50992e-05 1.97511e-25)
(0.0229248 -1.6093e-05 -2.3746e-24)
(0.0229188 -7.56341e-06 -3.77961e-25)
(0.0229139 4.43341e-07 6.00556e-24)
(0.0229098 8.00146e-06 -3.82645e-24)
(0.0229065 1.50235e-05 5.95462e-25)
(0.0229037 2.15444e-05 -1.57623e-25)
(0.0229016 2.76134e-05 2.352e-25)
(0.0228999 3.32645e-05 2.26282e-24)
(0.0228987 3.85263e-05 -1.25405e-23)
(0.0228979 4.3427e-05 1.11103e-23)
(0.0228975 4.79897e-05 1.28192e-24)
(0.0228974 5.22361e-05 -1.67256e-24)
(0.0228977 5.61837e-05 -2.84373e-24)
(0.0228982 5.98472e-05 2.37782e-24)
(0.0207325 -1.82769e-05 2.92353e-25)
(0.0207249 -1.03772e-05 2.13372e-24)
(0.0207189 -2.88433e-06 -2.53137e-24)
(0.0207145 4.20318e-06 -9.09208e-25)
(0.0207113 1.08741e-05 3.03292e-24)
(0.020709 1.71002e-05 -2.34021e-24)
(0.0207078 2.291e-05 -3.80974e-25)
(0.0207073 2.83345e-05 1.05049e-24)
(0.0207075 3.33964e-05 5.21789e-25)
(0.0207084 3.81155e-05 -3.35295e-27)
(0.0207099 4.25087e-05 3.13404e-24)
(0.020712 4.65906e-05 -1.36043e-24)
(0.0207145 5.0375e-05 -2.81793e-25)
(0.0207176 5.38726e-05 -6.81485e-25)
(0.020721 5.70926e-05 -2.10511e-24)
(0.0185371 -1.2236e-05 2.08989e-24)
(0.0185307 -5.72766e-06 -3.03958e-24)
(0.0185263 4.84143e-07 -1.4929e-24)
(0.0185236 6.38705e-06 4.32783e-24)
(0.0185222 1.19592e-05 -1.59277e-24)
(0.0185221 1.71809e-05 -3.73778e-25)
(0.0185231 2.20733e-05 3.2615e-25)
(0.0185251 2.66557e-05 -1.43271e-24)
(0.0185279 3.09403e-05 4.03182e-24)
(0.0185316 3.49369e-05 -5.59382e-24)
(0.0185359 3.86542e-05 4.19823e-24)
(0.0185409 4.21e-05 -2.56887e-24)
(0.0185465 4.52817e-05 5.36153e-24)
(0.0185527 4.82055e-05 -6.31001e-24)
(0.0185594 5.08771e-05 1.96661e-24)
(0.0164092 -7.99622e-06 -4.08855e-25)
(0.016405 -2.92225e-06 -1.12697e-24)
(0.0164028 1.92682e-06 -2.71974e-24)
(0.0164024 6.59581e-06 7.42403e-24)
(0.0164035 1.10391e-05 -1.88447e-24)
(0.0164057 1.52093e-05 -1.1264e-24)
(0.0164092 1.91336e-05 -3.40074e-25)
(0.0164136 2.28236e-05 3.63609e-25)
(0.016419 2.62822e-05 3.27845e-24)
(0.0164252 2.95124e-05 -2.99197e-24)
(0.0164322 3.25174e-05 -1.53995e-25)
(0.0164399 3.53e-05 3.17392e-24)
(0.0164482 3.78633e-05 -3.5292e-24)
(0.0164571 4.02094e-05 -4.68603e-25)
(0.0164666 4.23402e-05 5.49283e-25)
(0.0143887 -5.61771e-06 1.5894e-24)
(0.0143867 -1.89524e-06 1.7411e-24)
(0.0143866 1.67686e-06 -2.17049e-24)
(0.0143882 5.24155e-06 -2.82293e-24)
(0.0143912 8.64355e-06 2.63739e-24)
(0.0143953 1.18276e-05 -1.60485e-24)
(0.0144006 1.48452e-05 8.49406e-25)
(0.0144069 1.77005e-05 -5.40618e-26)
(0.0144141 2.03893e-05 -3.56867e-25)
(0.0144222 2.291e-05 2.29404e-24)
(0.014431 2.52611e-05 1.09362e-24)
(0.0144404 2.74417e-05 -8.11558e-24)
(0.0144505 2.94512e-05 3.2527e-24)
(0.0144612 3.12881e-05 1.2834e-24)
(0.0144723 3.29522e-05 1.20285e-25)
(0.0124961 -4.62706e-06 -1.6686e-24)
(0.0124957 -1.96476e-06 2.06566e-24)
(0.0124969 4.62327e-07 1.02911e-25)
(0.0124997 3.00445e-06 2.19429e-24)
(0.0125037 5.57135e-06 -2.21191e-24)
(0.0125089 7.92744e-06 -2.89416e-25)
(0.012515 1.01751e-05 -4.26521e-25)
(0.0125221 1.2318e-05 -5.37138e-26)
(0.0125301 1.43505e-05 -8.0912e-25)
(0.0125388 1.62688e-05 2.73725e-24)
(0.0125482 1.80685e-05 5.03094e-25)
(0.0125583 1.9746e-05 -6.89082e-25)
(0.0125689 2.12987e-05 -8.09407e-25)
(0.0125801 2.27235e-05 -4.89128e-25)
(0.0125917 2.40189e-05 -3.15049e-25)
(0.0107394 -4.33933e-06 1.24708e-24)
(0.0107397 -2.60154e-06 -9.87209e-25)
(0.0107412 -1.00862e-06 -2.97407e-24)
(0.0107442 8.12202e-07 2.8727e-24)
(0.0107483 2.61772e-06 2.2028e-24)
(0.0107533 4.30869e-06 -1.39449e-24)
(0.0107593 5.9387e-06 -8.77537e-25)
(0.0107662 7.50739e-06 8.28656e-25)
(0.0107738 9.0102e-06 -1.0317e-24)
(0.0107821 1.04427e-05 -3.34534e-25)
(0.010791 1.17993e-05 7.44187e-25)
(0.0108005 1.30753e-05 4.80381e-25)
(0.0108106 1.42673e-05 -9.2133e-25)
(0.0108211 1.53713e-05 -7.31236e-26)
(0.010832 1.63854e-05 3.49652e-25)
(0.00911884 -4.26903e-06 -7.74037e-25)
(0.009119 -3.17232e-06 -3.56284e-25)
(0.00912011 -2.13349e-06 6.47539e-25)
(0.00912245 -9.63519e-07 -1.11046e-24)
(0.00912584 2.76001e-07 3.40907e-24)
(0.00913 1.46642e-06 -2.86139e-24)
(0.00913497 2.61956e-06 1.15379e-24)
(0.00914068 3.74157e-06 -2.75321e-26)
(0.00914708 4.82987e-06 -5.28716e-25)
(0.00915412 5.88091e-06 -3.89568e-25)
(0.00916174 6.8891e-06 4.93146e-25)
(0.0091699 7.8494e-06 -7.03461e-25)
(0.00917853 8.75826e-06 1.06962e-24)
(0.00918761 9.61181e-06 2.65123e-25)
(0.00919704 1.04078e-05 -1.59974e-25)
(0.00763087 -4.09009e-06 -3.88296e-25)
(0.00763041 -3.36199e-06 1.30822e-25)
(0.00763075 -2.74724e-06 1.83701e-25)
(0.00763191 -2.06811e-06 -5.45978e-25)
(0.00763399 -1.24775e-06 -8.28406e-27)
(0.00763678 -4.24363e-07 1.22337e-24)
(0.00764025 3.71491e-07 -5.60023e-25)
(0.00764436 1.15426e-06 -8.74824e-26)
(0.00764907 1.9234e-06 4.8743e-26)
(0.00765436 2.67802e-06 2.77349e-25)
(0.00766017 3.41318e-06 2.64186e-25)
(0.00766648 4.12365e-06 -1.06479e-24)
(0.00767323 4.8066e-06 -7.41947e-25)
(0.0076804 5.45868e-06 1.0453e-24)
(0.00768792 6.07742e-06 2.62073e-25)
(0.00626987 -3.63957e-06 -1.42103e-25)
(0.00626859 -3.20493e-06 -2.33212e-26)
(0.00626796 -2.83654e-06 -1.6114e-24)
(0.00626794 -2.45612e-06 6.75901e-25)
(0.0062685 -1.97427e-06 -3.83896e-25)
(0.00626974 -1.43081e-06 9.36377e-25)
(0.00627157 -8.9049e-07 6.18802e-25)
(0.00627394 -3.59053e-07 -2.45128e-25)
(0.00627683 1.67166e-07 7.27581e-25)
(0.00628023 6.92624e-07 -2.38471e-25)
(0.00628411 1.21329e-06 -6.44645e-25)
(0.00628844 1.72382e-06 1.43514e-24)
(0.00629318 2.22287e-06 -7.98348e-25)
(0.00629833 2.70771e-06 2.58286e-25)
(0.00630382 3.17587e-06 -4.85731e-25)
(0.00502911 -2.95876e-06 -5.59477e-25)
(0.00502708 -2.72805e-06 -6.05295e-25)
(0.00502553 -2.54807e-06 7.31406e-26)
(0.0050244 -2.33327e-06 1.36933e-24)
(0.00502372 -2.03143e-06 -6.45788e-25)
(0.00502356 -1.71581e-06 9.43866e-26)
(0.00502384 -1.38126e-06 3.72522e-25)
(0.00502462 -1.0334e-06 -2.26464e-25)
(0.00502585 -6.85708e-07 -7.28592e-26)
(0.00502751 -3.34641e-07 1.12946e-24)
(0.0050296 1.79783e-08 2.69091e-25)
(0.00503209 3.68304e-07 -1.52833e-24)
(0.00503498 7.16573e-07 2.23059e-25)
(0.00503823 1.06067e-06 5.66731e-25)
(0.00504183 1.39846e-06 -4.23453e-25)
(0.00390113 -2.17076e-06 -1.22816e-25)
(0.00389863 -2.06505e-06 2.1173e-26)
(0.00389644 -1.98789e-06 7.06565e-25)
(0.00389452 -1.88443e-06 2.61512e-25)
(0.00389292 -1.72392e-06 -4.17102e-25)
(0.00389169 -1.53279e-06 -4.70453e-25)
(0.00389084 -1.32793e-06 3.89824e-26)
(0.00389038 -1.12221e-06 1.87986e-25)
(0.00389028 -9.15305e-07 -2.04999e-25)
(0.00389054 -6.9729e-07 -5.4041e-25)
(0.00389117 -4.72506e-07 -3.03353e-25)
(0.00389216 -2.47369e-07 1.00902e-24)
(0.0038935 -2.04112e-08 -3.04615e-25)
(0.00389518 2.06972e-07 3.61403e-25)
(0.00389718 4.33868e-07 -2.16873e-25)
(0.00287815 -1.3979e-06 -2.26984e-25)
(0.00287554 -1.36577e-06 3.09093e-26)
(0.00287311 -1.3424e-06 5.87778e-25)
(0.00287082 -1.30114e-06 -3.5708e-25)
(0.00286874 -1.22188e-06 8.68562e-25)
(0.00286693 -1.12223e-06 -1.33614e-24)
(0.00286539 -1.0132e-06 5.4534e-25)
(0.00286415 -9.00823e-07 3.79296e-26)
(0.00286319 -7.8209e-07 -4.33279e-25)
(0.00286252 -6.57608e-07 6.12712e-25)
(0.00286215 -5.30481e-07 -2.6016e-25)
(0.00286207 -4.01742e-07 -6.32336e-26)
(0.00286228 -2.68203e-07 -2.27722e-25)
(0.0028628 -1.31863e-07 3.1633e-25)
(0.0028636 6.2065e-09 -8.94197e-26)
(0.00195229 -7.41782e-07 3.45549e-25)
(0.00194996 -7.48584e-07 2.90088e-25)
(0.0019477 -7.50842e-07 -1.30214e-24)
(0.00194551 -7.42093e-07 8.45155e-25)
(0.00194344 -7.11238e-07 -5.04016e-26)
(0.00194154 -6.68104e-07 3.91888e-26)
(0.00193982 -6.18057e-07 -1.50854e-25)
(0.00193831 -5.6445e-07 5.51484e-26)
(0.001937 -5.06998e-07 -1.6353e-25)
(0.0019359 -4.46059e-07 -1.33344e-25)
(0.00193501 -3.82724e-07 6.03593e-25)
(0.00193435 -3.1629e-07 -2.02825e-25)
(0.00193392 -2.48177e-07 -2.60239e-25)
(0.00193372 -1.78891e-07 2.00652e-26)
(0.00193374 -1.07658e-07 5.94879e-26)
(0.00111576 -2.68242e-07 -3.49706e-25)
(0.00111408 -2.65679e-07 9.87204e-25)
(0.0011124 -2.64857e-07 3.95286e-25)
(0.00111075 -2.64106e-07 -9.02819e-25)
(0.00110914 -2.56682e-07 -9.59709e-26)
(0.00110764 -2.44998e-07 -4.94522e-26)
(0.00110623 -2.30474e-07 4.50998e-26)
(0.00110495 -2.14543e-07 4.58707e-27)
(0.00110378 -1.97231e-07 -2.5999e-25)
(0.00110275 -1.78522e-07 1.19619e-25)
(0.00110185 -1.58866e-07 2.56365e-25)
(0.00110108 -1.38339e-07 -2.10459e-25)
(0.00110047 -1.17487e-07 4.78582e-25)
(0.0011 -9.6482e-08 -5.52028e-25)
(0.00109969 -7.43543e-08 1.30296e-25)
(0.000361069 -6.31021e-09 -2.51356e-27)
(0.000360322 7.03172e-08 1.85843e-25)
(0.00035958 1.19856e-07 1.57193e-25)
(0.000358842 1.47468e-07 -2.96293e-25)
(0.000358121 1.59678e-07 3.59591e-25)
(0.000357432 1.60244e-07 -4.0258e-25)
(0.000356782 1.52224e-07 4.92641e-27)
(0.000356175 1.3787e-07 -7.09513e-26)
(0.000355611 1.1922e-07 1.11105e-25)
(0.000355095 9.80098e-08 1.26225e-25)
(0.000354628 7.54732e-08 -4.21038e-25)
(0.000354213 5.26722e-08 2.22256e-25)
(0.000353852 3.03929e-08 1.78627e-25)
(0.000353549 9.15608e-09 -1.63611e-25)
(0.000353303 -1.0491e-08 1.08403e-26)
(0.000979366 -0.000263416 9.17069e-26)
(0.00112103 -0.000185508 2.37405e-24)
(0.00135859 -0.000107311 -6.86522e-24)
(0.00160081 -4.75525e-05 1.00654e-23)
(0.0018319 -4.30718e-06 -3.77496e-24)
(0.00205667 2.33216e-05 -3.6965e-24)
(0.0022748 3.83371e-05 4.22514e-24)
(0.00248674 4.33287e-05 -8.37601e-24)
(0.00269324 4.06178e-05 5.55756e-25)
(0.00289502 3.22762e-05 5.25237e-24)
(0.00309282 2.01406e-05 -9.84012e-25)
(0.00328736 5.87003e-06 1.04082e-24)
(0.00347933 -8.90983e-06 -1.13781e-25)
(0.00366946 -2.24524e-05 5.78229e-25)
(0.00385867 -3.27694e-05 -2.10803e-24)
(0.00404824 -3.75012e-05 1.1306e-24)
(0.00424023 -3.38741e-05 -3.06874e-25)
(0.00443774 -1.89703e-05 3.93496e-26)
(0.00464574 1.01154e-05 6.53468e-25)
(0.0048701 5.49999e-05 -4.0304e-25)
(0.00512024 0.000113952 5.16996e-26)
(0.00540154 0.000182284 -4.67365e-26)
(0.00569338 0.000238858 1.05424e-25)
(0.00595813 0.00026581 4.5989e-25)
(0.00618081 0.000262823 -8.23168e-25)
(0.0063599 0.00023264 -6.54774e-25)
(0.00649694 0.000177925 -4.84063e-26)
(0.006594 0.000101015 1.74664e-24)
(0.00665216 4.24817e-06 2.79952e-24)
(0.00667116 -0.00010942 -5.53546e-24)
(0.00664976 -0.000235529 5.43728e-24)
(0.00658648 -0.000368082 -5.45123e-24)
(0.00648012 -0.000499555 1.63288e-24)
(0.00633029 -0.000621258 7.62168e-25)
(0.00613753 -0.000723739 -8.29447e-25)
(0.00590326 -0.000797034 2.33209e-24)
(0.00562947 -0.000830604 4.02913e-25)
(0.0053186 -0.000812704 1.94238e-24)
(0.00497353 -0.000728895 1.48585e-24)
(0.00459823 -0.000559846 -7.7002e-24)
(0.00419783 -0.000281068 -1.04349e-25)
(0.00378024 0.000129202 3.98687e-24)
(0.00334089 0.000656622 1.56489e-24)
(0.00290528 0.00121164 -5.8753e-24)
(0.00266355 0.00147567 -3.12477e-25)
(0.00184083 -0.000349167 -2.70494e-24)
(0.00189942 -0.000307722 -3.85765e-24)
(0.0020444 -0.000232568 8.06102e-24)
(0.00222692 -0.000164676 3.8305e-24)
(0.00241965 -0.00010991 -1.34006e-23)
(0.00261722 -7.05313e-05 1.43921e-23)
(0.00281493 -4.46972e-05 -5.17127e-24)
(0.00301057 -3.00527e-05 4.1449e-24)
(0.00320338 -2.42496e-05 -5.47356e-24)
(0.00339313 -2.51134e-05 6.83999e-26)
(0.00357996 -3.06779e-05 -2.80752e-24)
(0.00376417 -3.91689e-05 5.52112e-24)
(0.00394621 -4.8856e-05 -2.98379e-24)
(0.00412657 -5.79158e-05 -2.46958e-24)
(0.00430602 -6.43198e-05 -1.4201e-24)
(0.00448568 -6.57137e-05 3.05399e-24)
(0.00466742 -5.93616e-05 -2.66604e-25)
(0.00485413 -4.2434e-05 1.33539e-24)
(0.00505056 -1.20899e-05 1.74761e-25)
(0.00526225 3.32067e-05 -3.63361e-25)
(0.00549856 9.18655e-05 -1.50903e-25)
(0.00576496 0.000159656 -1.06116e-25)
(0.00604304 0.000216073 5.61552e-25)
(0.00629772 0.000243908 8.15088e-25)
(0.00651437 0.00024298 -6.25569e-25)
(0.00669081 0.000215853 -3.80085e-24)
(0.00682782 0.000165085 5.3487e-24)
(0.00692682 9.3094e-05 -3.99205e-24)
(0.00698841 2.50999e-06 1.36955e-24)
(0.00701213 -0.000103722 -1.03713e-24)
(0.0069968 -0.000220727 8.1006e-24)
(0.00694108 -0.0003425 -1.16199e-23)
(0.00684417 -0.000461551 6.94627e-24)
(0.00670612 -0.000569305 -5.74665e-24)
(0.00652812 -0.000656466 3.90224e-24)
(0.00631243 -0.000713228 -6.54685e-25)
(0.00606231 -0.000729212 6.04038e-24)
(0.0057821 -0.000692936 -7.93873e-25)
(0.0054776 -0.000590616 -6.5828e-24)
(0.00515765 -0.000404296 -4.94517e-24)
(0.00483614 -0.000111527 1.13299e-23)
(0.00453695 0.000307426 -1.16946e-23)
(0.00428834 0.000837532 -3.16626e-24)
(0.00413799 0.00137489 8.05937e-24)
(0.00414485 0.00156774 2.83567e-24)
(0.00285351 -0.000357427 -3.19357e-26)
(0.00286239 -0.000358367 -4.51518e-24)
(0.00292192 -0.0003164 8.54636e-24)
(0.00303495 -0.000259129 7.35543e-24)
(0.00317449 -0.000204295 -1.19586e-23)
(0.0033309 -0.000159549 2.40638e-25)
(0.00349636 -0.000126303 1.16932e-24)
(0.00366593 -0.000103835 1.27252e-23)
(0.00383692 -9.04471e-05 -1.50552e-23)
(0.0040078 -8.42528e-05 9.15953e-24)
(0.00417778 -8.34094e-05 2.60705e-24)
(0.00434652 -8.61336e-05 -1.47257e-23)
(0.00451402 -9.06571e-05 5.29308e-24)
(0.00468045 -9.51278e-05 1.97843e-24)
(0.00484631 -9.75051e-05 -3.82877e-24)
(0.00501248 -9.54578e-05 5.91532e-24)
(0.00518061 -8.63011e-05 -3.95419e-24)
(0.00535332 -6.73059e-05 -5.53707e-28)
(0.00553507 -3.56961e-05 2.99326e-25)
(0.00573104 9.97721e-06 2.77817e-25)
(0.00595051 6.82569e-05 2.46018e-26)
(0.006199 0.000135393 1.64991e-25)
(0.00646048 0.000191511 -5.78746e-25)
(0.0067027 0.000220067 1.8137e-24)
(0.00691142 0.000221073 -3.10817e-24)
(0.00708375 0.000196936 1.83322e-24)
(0.00721962 0.000150096 -4.9267e-24)
(0.00731978 8.30552e-05 6.67426e-24)
(0.00738432 -1.44044e-06 -6.86254e-24)
(0.00741256 -9.99403e-05 -1.35743e-25)
(0.00740334 -0.000207661 -6.16897e-25)
(0.00735555 -0.000318445 1.3516e-23)
(0.00726873 -0.000424849 -4.58966e-24)
(0.0071435 -0.000518461 -2.84697e-24)
(0.0069817 -0.000590239 2.35258e-24)
(0.00678653 -0.000630722 2.62894e-24)
(0.00656258 -0.000630028 -3.38411e-24)
(0.00631612 -0.00057754 9.911e-24)
(0.0060558 -0.000461224 -2.04374e-23)
(0.00579466 -0.00026668 8.13434e-24)
(0.00555285 2.21335e-05 3.20886e-24)
(0.00536234 0.000415403 5.65187e-24)
(0.00526138 0.000888645 -7.04572e-24)
(0.00528153 0.00133466 2.16567e-24)
(0.00541297 0.00147715 -1.34679e-24)
(0.00399759 -0.000339408 -1.15324e-24)
(0.00397761 -0.000366821 -1.77579e-24)
(0.00398609 -0.000353886 -7.5958e-24)
(0.00403235 -0.000320594 2.00062e-24)
(0.00411442 -0.00027656 1.34252e-24)
(0.00422087 -0.000234731 6.14891e-24)
(0.00434421 -0.000199616 -1.3029e-23)
(0.00447821 -0.000172898 4.96372e-24)
(0.0046188 -0.00015416 1.65266e-23)
(0.00476312 -0.000142289 -4.44043e-24)
(0.00490941 -0.000135866 -4.07819e-24)
(0.00505656 -0.000133304 -6.30205e-25)
(0.00520398 -0.000132932 1.96123e-24)
(0.0053514 -0.00013295 -3.71876e-24)
(0.00549898 -0.00013136 9.00816e-25)
(0.00564729 -0.000125894 -2.0568e-25)
(0.00579768 -0.000113946 -1.37275e-24)
(0.00595249 -9.29152e-05 6.53652e-25)
(0.00611582 -6.01033e-05 2.29821e-24)
(0.00629246 -1.41655e-05 -2.61403e-25)
(0.00649156 4.35587e-05 -5.00798e-25)
(0.00671861 0.000109832 -1.57898e-25)
(0.00696016 0.000165412 -1.02243e-24)
(0.0071871 0.000194452 -1.87212e-25)
(0.00738558 0.00019722 -2.98655e-24)
(0.00755192 0.00017598 4.90118e-24)
(0.00768519 0.000133048 -4.9197e-24)
(0.00778538 7.10118e-05 9.70765e-24)
(0.00785207 -7.21578e-06 -9.00368e-24)
(0.00788435 -9.7876e-05 1.86558e-24)
(0.00788107 -0.000196117 4.29045e-24)
(0.00784136 -0.000295727 -3.57026e-26)
(0.00776517 -0.000389377 -2.14327e-25)
(0.00765364 -0.000468916 1.81166e-25)
(0.00750932 -0.000525719 -1.0651e-24)
(0.00733636 -0.000550929 -1.36195e-24)
(0.00714057 -0.000535577 9.67307e-24)
(0.00692989 -0.000470553 -4.81968e-24)
(0.00671514 -0.000346535 3.76929e-25)
(0.00651171 -0.000154114 -2.0168e-23)
(0.0063416 0.000114398 1.56481e-23)
(0.00623562 0.000458357 -6.42608e-24)
(0.00622677 0.000848471 1.32871e-24)
(0.0063281 0.00119899 8.42593e-24)
(0.0065137 0.00134237 -2.07556e-24)
(0.00526493 -0.000311754 -4.76797e-24)