/*--------------------------------*- C++ -*----------------------------------*\
| =========                 |                                                 |
| \\      /  F ield         | OpenFOAM: The Open Source CFD Toolbox           |
|  \\    /   O peration     | Version:  2312                                  |
|   \\  /    A nd           | Website:  www.openfoam.com                      |
|    \\/     M anipulation  |                                                 |
\*---------------------------------------------------------------------------*/
FoamFile
{
    version     2.0;
    format      ascii;
    arch        "LSB;label=32;scalar=64";
    class       volVectorField;
    location    "42.25";
    object      U;
}
// * * * * * * * * * * * * * * * * * * * * * * * * * * * * * * * * * * * * * //

dimensions      [0 1 -1 0 0 0 0];

internalField   nonuniform List<vector> 
4800
(
(0.000486818 4.45808e-07 -3.51592e-26)
(0.000475042 5.11756e-07 -2.45949e-25)
(0.000466903 5.45301e-07 3.1604e-25)
(0.000461341 5.50151e-07 1.42747e-25)
(0.000457693 5.27233e-07 2.09162e-24)
(0.000455566 4.74335e-07 -4.97234e-24)
(0.00045467 4.13002e-07 4.61391e-24)
(0.000455036 3.17223e-07 -6.62692e-24)
(0.000456503 1.87368e-07 2.14196e-24)
(0.000459217 -7.26676e-08 7.1922e-24)
(0.000463586 -6.04492e-07 -2.22095e-24)
(0.00047093 -2.02668e-06 -1.95359e-25)
(0.000488379 -7.21761e-06 -2.67249e-24)
(0.000533917 -2.82097e-05 1.21982e-24)
(0.000610368 -9.29135e-05 -9.64934e-25)
(0.00150101 2.36743e-06 -1.10835e-25)
(0.00146513 1.92305e-06 1.38122e-25)
(0.00144021 1.56695e-06 -1.26217e-24)
(0.00142303 1.24388e-06 9.46901e-25)
(0.00141158 9.15275e-07 2.99174e-24)
(0.00140463 5.47371e-07 -4.75754e-24)
(0.0014013 1.2231e-07 -1.31968e-24)
(0.00140158 -4.42975e-07 -2.8508e-25)
(0.00140487 -1.21433e-06 1.0822e-23)
(0.00141177 -2.51483e-06 -8.01511e-24)
(0.00142341 -5.02006e-06 8.74645e-25)
(0.00144254 -1.09184e-05 1.31722e-24)
(0.00147789 -2.78543e-05 -1.93088e-24)
(0.00154033 -7.94094e-05 -5.59888e-25)
(0.00160855 -0.000196501 2.50222e-24)
(0.00261809 7.62101e-06 -7.89536e-26)
(0.00255645 6.14989e-06 8.07055e-26)
(0.00251345 4.99937e-06 8.23178e-25)
(0.00248361 3.98659e-06 -1.95604e-24)
(0.00246345 2.99243e-06 1.90871e-24)
(0.00245085 1.92378e-06 1.77398e-24)
(0.00244428 6.25812e-07 -4.61141e-24)
(0.00244352 -1.1048e-06 -2.77571e-24)
(0.00244748 -3.3813e-06 6.63346e-24)
(0.00245692 -7.06455e-06 2.50202e-24)
(0.00247317 -1.3657e-05 -8.74496e-24)
(0.00249811 -2.70311e-05 -1.2895e-24)
(0.00253593 -5.68275e-05 3.72355e-24)
(0.00258526 -0.000122283 5.82596e-24)
(0.00262116 -0.000231969 -3.00733e-24)
(0.00384465 1.70661e-05 2.90469e-26)
(0.00375598 1.38522e-05 -2.02098e-25)
(0.00369383 1.13427e-05 8.97402e-25)
(0.00365035 9.14739e-06 9.47619e-25)
(0.00362058 7.01651e-06 -9.54616e-25)
(0.00360143 4.76127e-06 -5.41355e-24)
(0.00359066 2.06154e-06 -3.6337e-24)
(0.00358753 -1.44704e-06 1.35139e-23)
(0.00359073 -5.93197e-06 5.46433e-24)
(0.00360041 -1.29046e-05 -8.04183e-24)
(0.00361746 -2.44961e-05 -3.24083e-24)
(0.00364174 -4.49845e-05 -2.45017e-24)
(0.00367256 -8.25054e-05 8.04057e-26)
(0.00370262 -0.000147135 1.8058e-24)
(0.00371349 -0.000234315 8.81983e-27)
(0.00518549 3.16522e-05 -5.30721e-26)
(0.00506944 2.58065e-05 -3.24608e-25)
(0.00498753 2.12407e-05 -2.01969e-25)
(0.00492971 1.72715e-05 5.537e-25)
(0.00488957 1.34668e-05 -1.54819e-24)
(0.00486296 9.50796e-06 3.85701e-24)
(0.00484697 4.90358e-06 -6.85563e-25)
(0.00483999 -7.69303e-07 2.33918e-24)
(0.00484074 -8.23208e-06 -1.29614e-23)
(0.00484825 -1.87377e-05 2.44682e-23)
(0.00486235 -3.4888e-05 -2.37071e-23)
(0.00488118 -6.00241e-05 1.24613e-23)
(0.00490133 -9.91159e-05 -1.15335e-23)
(0.00491495 -0.000155306 1.08836e-23)
(0.00491142 -0.000221189 -4.3468e-24)
(0.00664203 5.24985e-05 6.98842e-26)
(0.00649986 4.3029e-05 2.50386e-25)
(0.00639858 3.5614e-05 -1.31643e-24)
(0.00632631 2.9203e-05 -8.2025e-25)
(0.00627535 2.31366e-05 2.21919e-24)
(0.0062406 1.69388e-05 7.86007e-25)
(0.00621841 9.96815e-06 -6.12025e-24)
(0.0062064 1.62857e-06 1.45507e-23)
(0.00620275 -8.81751e-06 -1.88368e-23)
(0.00620591 -2.28681e-05 4.53444e-24)
(0.00621428 -4.23993e-05 1.36255e-23)
(0.00622515 -6.95238e-05 -1.88796e-23)
(0.00623451 -0.000106192 9.45869e-24)
(0.00623642 -0.000151922 9.70312e-24)
(0.00622592 -0.000200545 -7.40198e-24)
(0.00820994 8.05544e-05 5.77277e-26)
(0.00804561 6.64956e-05 -3.41437e-25)
(0.00792701 5.54145e-05 1.21837e-24)
(0.00784128 4.58615e-05 -1.68433e-24)
(0.0077798 3.69275e-05 -5.65999e-24)
(0.00773668 2.79662e-05 9.64588e-24)
(0.00770768 1.82282e-05 -5.81031e-24)
(0.0076897 6.98522e-06 1.964e-23)
(0.00768033 -6.49032e-06 -1.33765e-23)
(0.00767737 -2.34133e-05 -6.20936e-24)
(0.0076785 -4.50195e-05 -1.21386e-23)
(0.00768076 -7.20988e-05 1.11832e-23)
(0.00768074 -0.000104658 3.14255e-24)
(0.00767475 -0.000140937 2.69665e-24)
(0.00766102 -0.000176781 -2.37818e-24)
(0.00987627 0.000116103 -8.34862e-26)
(0.00969773 9.67691e-05 1.13005e-24)
(0.00956651 8.13348e-05 -2.62246e-24)
(0.00947006 6.80102e-05 -2.1189e-24)
(0.0093996 5.56603e-05 8.20664e-25)
(0.00934882 4.34848e-05 1.57508e-24)
(0.00931309 3.06776e-05 5.54707e-24)
(0.00928882 1.64783e-05 -1.50068e-23)
(0.00927309 2.26678e-07 -7.90352e-24)
(0.00926329 -1.88457e-05 2.19525e-23)
(0.00925686 -4.13215e-05 -6.76142e-24)
(0.00925109 -6.71034e-05 2.31609e-23)
(0.00924355 -9.53363e-05 -1.22051e-23)
(0.0092321 -0.000124237 -3.90457e-24)
(0.00921654 -0.000151285 2.31879e-24)
(0.0116177 0.000158083 -1.11744e-26)
(0.0114377 0.000133469 6.26214e-25)
(0.0113019 0.00011339 -8.90367e-25)
(0.0112 9.59178e-05 2.11026e-24)
(0.0111239 7.97928e-05 -1.25125e-23)
(0.0110676 6.41246e-05 1.31924e-23)
(0.0110263 4.81134e-05 -2.05773e-23)
(0.0109964 3.10638e-05 1.26971e-23)
(0.0109747 1.24649e-05 9.37459e-24)
(0.0109585 -8.06784e-06 2.02231e-23)
(0.0109453 -3.05396e-05 -2.64294e-23)
(0.0109329 -5.44837e-05 -4.8867e-24)
(0.0109197 -7.89012e-05 2.24753e-24)
(0.0109044 -0.000102452 1.62005e-23)
(0.0108875 -0.00012371 -6.6125e-24)
(0.013403 0.000203391 6.30761e-26)
(0.0132378 0.000174616 -2.67151e-25)
(0.0131087 0.000150334 1.1739e-24)
(0.0130091 0.000128843 -4.0883e-24)
(0.0129329 0.000108961 6.16882e-24)
(0.0128748 8.98276e-05 -7.9095e-24)
(0.0128307 7.07338e-05 1.31752e-23)
(0.0127971 5.11256e-05 2.25775e-24)
(0.012771 3.06882e-05 -1.80455e-23)
(0.0127499 9.32962e-06 2.56209e-23)
(0.0127317 -1.26717e-05 -2.82666e-23)
(0.0127145 -3.47708e-05 -8.33416e-24)
(0.0126976 -5.61584e-05 1.47104e-23)
(0.01268 -7.59936e-05 4.38417e-24)
(0.0126623 -9.35267e-05 -1.9219e-24)
(0.0152032 0.000246934 2.70348e-25)
(0.0150679 0.000216311 -2.11277e-24)
(0.0149573 0.000189197 -3.27221e-24)
(0.014869 0.000164531 7.81629e-24)
(0.0147994 0.000141464 3.43327e-24)
(0.0147448 0.000119337 -2.15607e-23)
(0.0147019 9.76266e-05 6.68851e-24)
(0.0146677 7.59785e-05 4.78643e-24)
(0.01464 5.42664e-05 -2.04263e-23)
(0.0146165 3.25963e-05 2.13361e-23)
(0.0145956 1.12598e-05 -1.70499e-23)
(0.0145762 -9.2537e-06 4.38697e-23)
(0.0145576 -2.84071e-05 -2.11523e-23)
(0.014539 -4.57577e-05 1.24946e-23)
(0.0145213 -6.09518e-05 -3.42325e-24)
(0.0170096 0.000283614 -1.25473e-25)
(0.0169103 0.000253785 1.47701e-24)
(0.0168254 0.000225775 -2.79462e-24)
(0.016755 0.00019936 -1.36884e-24)
(0.0166977 0.000174214 1.53879e-23)
(0.0166513 0.000150015 -2.30347e-24)
(0.0166136 0.000126509 -2.71071e-23)
(0.0165825 0.000103561 3.15111e-23)
(0.0165563 8.12e-05 -7.095e-24)
(0.0165333 5.95979e-05 -2.44375e-23)
(0.0165126 3.90289e-05 2.60899e-23)
(0.0164933 1.98086e-05 1.41273e-23)
(0.016475 2.24064e-06 -1.18367e-23)
(0.0164572 -1.34899e-05 -2.06603e-23)
(0.0164405 -2.72687e-05 1.74188e-24)
(0.0188419 0.000311908 2.30889e-26)
(0.0187726 0.000284333 -1.70196e-24)
(0.0187114 0.000256893 7.72613e-24)
(0.0186593 0.000230063 3.62999e-25)
(0.0186158 0.000204026 4.16901e-24)
(0.0185795 0.000178821 -1.52054e-23)
(0.0185492 0.000154467 1.2862e-23)
(0.0185233 0.000131023 2.88132e-24)
(0.0185008 0.000108621 2.63193e-23)
(0.0184806 8.74354e-05 -4.07408e-23)
(0.0184622 6.76689e-05 -1.84612e-23)
(0.0184448 4.94895e-05 -1.2264e-23)
(0.0184285 3.30305e-05 2.30802e-23)
(0.0184127 1.83239e-05 -6.74452e-25)
(0.018398 5.36108e-06 2.25775e-24)
(0.0207269 0.000334885 -6.48949e-27)
(0.0206759 0.000309467 1.82918e-24)
(0.0206306 0.000282937 -2.64705e-24)
(0.0205917 0.000256268 1.77601e-26)
(0.0205587 0.000230027 3.14598e-24)
(0.0205308 0.000204526 7.9004e-24)
(0.0205069 0.000179987 -3.06447e-23)
(0.020486 0.000156595 2.63904e-24)
(0.0204675 0.000134519 1.55271e-23)
(0.0204506 0.000113903 -7.14218e-24)
(0.0204351 9.48659e-05 1.95287e-23)
(0.0204203 7.74671e-05 1.37399e-23)
(0.0204065 6.17307e-05 -2.49447e-23)
(0.0203931 4.76034e-05 1.71766e-23)
(0.0203808 3.50267e-05 -1.43088e-23)
(0.022656 0.000355577 -3.47326e-25)
(0.0226166 0.000332152 -2.31337e-25)
(0.0225814 0.000306533 3.27055e-24)
(0.0225509 0.000280174 -1.54521e-23)
(0.0225249 0.000253977 1.35073e-23)
(0.0225024 0.000228469 -9.49914e-24)
(0.022483 0.000204005 6.85915e-24)
(0.0224657 0.000180828 -4.78938e-23)
(0.0224502 0.000159109 6.91892e-23)
(0.022436 0.000138944 -4.07286e-23)
(0.0224228 0.000120382 3.64178e-23)
(0.0224103 0.000103412 3.0593e-23)
(0.0223987 8.79941e-05 -5.35348e-23)
(0.0223874 7.40369e-05 1.74764e-23)
(0.0223771 6.14501e-05 -7.37676e-25)
(0.0245699 0.000373503 -1.38929e-26)
(0.0245416 0.000352426 -1.07943e-24)
(0.0245155 0.000328199 1.10758e-24)
(0.0244924 0.000302621 -4.3267e-25)
(0.0244722 0.000276864 5.65731e-24)
(0.0244545 0.000251651 -9.58766e-24)
(0.0244389 0.00022745 8.75281e-24)
(0.0244247 0.000204549 -2.73924e-23)
(0.024412 0.000183109 6.21761e-23)
(0.0244001 0.000163196 -7.95038e-23)
(0.0243891 0.000144815 6.51672e-23)
(0.0243786 0.00012792 -2.20328e-23)
(0.0243689 0.00011244 1.1591e-24)
(0.0243595 9.8273e-05 5.11767e-24)
(0.0243509 8.53183e-05 -9.79927e-24)
(0.0263775 0.000387334 -1.19379e-24)
(0.0263601 0.000368639 1.14495e-24)
(0.026343 0.000346242 8.01434e-25)
(0.0263273 0.000322059 -2.84261e-24)
(0.0263133 0.000297295 9.92626e-24)
(0.0263007 0.000272797 -9.77674e-24)
(0.0262893 0.000249135 -8.21604e-24)
(0.0262788 0.000226639 -1.95197e-23)
(0.0262691 0.000205478 1.02406e-23)
(0.02626 0.000185706 4.74526e-23)
(0.0262515 0.000167318 -2.50201e-23)
(0.0262433 0.000150258 1.49089e-23)
(0.0262358 0.000134454 -6.1308e-24)
(0.0262283 0.000119805 -1.82661e-23)
(0.0262215 0.000106219 9.36992e-24)
(0.0279625 0.00039542 3.70187e-25)
(0.0279548 0.000380763 -5.77941e-25)
(0.0279456 0.000360195 1.34746e-24)
(0.0279368 0.000337618 -5.37138e-24)
(0.0279286 0.000314134 -2.02104e-24)
(0.027921 0.000290614 1.69092e-23)
(0.0279139 0.000267678 -1.27743e-23)
(0.0279073 0.000245682 -7.48277e-24)
(0.027901 0.000224803 7.01143e-24)
(0.027895 0.000205104 -7.86181e-24)
(0.0278893 0.000186584 1.84046e-23)
(0.0278837 0.000169197 9.22731e-24)
(0.0278784 0.000152881 -3.45304e-23)
(0.0278732 0.000137552 2.3851e-23)
(0.0278684 0.000123132 -4.86673e-24)
(0.0291624 0.000398011 1.05584e-24)
(0.0291625 0.000386061 1.28637e-24)
(0.0291618 0.000367839 -3.22243e-24)
(0.0291601 0.000347221 1.84332e-24)
(0.0291579 0.000325387 -2.33202e-24)
(0.0291554 0.000303224 -6.55848e-24)
(0.029153 0.00028134 -7.31179e-24)
(0.0291504 0.00026009 1.89356e-23)
(0.0291479 0.000239664 1.81632e-23)
(0.0291452 0.000220142 -4.37272e-23)
(0.0291425 0.000201544 2.47449e-23)
(0.0291397 0.000183845 -1.70134e-24)
(0.0291369 0.000167005 -1.38289e-24)
(0.0291341 0.000150965 1.85518e-24)
(0.0291315 0.000135665 -8.53453e-25)
(0.0297575 0.00039154 -3.0256e-24)
(0.0297663 0.000380782 -5.59858e-24)
(0.0297735 0.000365274 4.34391e-24)
(0.029779 0.000346889 8.01083e-24)
(0.0297832 0.00032699 -1.90068e-24)
(0.0297865 0.000306469 1.20368e-24)
(0.0297893 0.000285889 -1.13606e-24)
(0.0297916 0.00026559 -1.19787e-23)
(0.0297934 0.000245772 2.79407e-23)
(0.0297948 0.000226541 -1.16866e-23)
(0.0297959 0.000207946 5.16367e-24)
(0.0297966 0.000189994 -8.75388e-24)
(0.0297972 0.000172671 -9.27296e-24)
(0.0297975 0.000155947 1.36993e-23)
(0.0297977 0.000139787 -5.9196e-24)
(0.0295528 0.000378805 4.71971e-24)
(0.0295667 0.000369957 -1.06574e-23)
(0.0295788 0.00035646 1.92701e-24)
(0.0295891 0.000340017 1.36017e-23)
(0.0295979 0.000321913 -1.2507e-23)
(0.0296057 0.000302951 3.59372e-24)
(0.0296126 0.000283626 -1.71926e-26)
(0.0296189 0.000264249 6.81547e-25)
(0.0296244 0.000245018 3.44225e-24)
(0.0296293 0.000226054 -3.69844e-24)
(0.0296337 0.000207432 -3.02594e-24)
(0.0296377 0.000189185 4.1747e-24)
(0.0296412 0.00017133 -4.70757e-24)
(0.0296444 0.000153864 2.90827e-24)
(0.0296473 0.000136778 -1.30462e-24)
(0.0285907 0.000357592 2.89981e-24)
(0.0286144 0.000349692 -6.11513e-24)
(0.0286352 0.000337742 -4.18423e-24)
(0.0286532 0.00032312 1.96264e-23)
(0.0286689 0.00030685 -1.7884e-23)
(0.0286828 0.000289588 1.98945e-24)
(0.028695 0.000271758 2.9307e-24)
(0.0287058 0.000253631 1.44461e-24)
(0.0287153 0.000235393 8.12045e-25)
(0.0287238 0.000217168 -2.74699e-24)
(0.0287312 0.000199041 1.86844e-24)
(0.0287378 0.000181068 8.13576e-25)
(0.0287436 0.000163284 -4.06924e-24)
(0.0287487 0.000145708 2.05456e-24)
(0.0287532 0.000128353 9.24319e-25)
(0.0270082 0.000328254 7.20407e-24)
(0.0270362 0.000320943 -1.28791e-23)
(0.0270616 0.000310228 2.60981e-24)
(0.0270845 0.000297187 -6.59649e-24)
(0.0271052 0.00028261 -8.77666e-24)
(0.027124 0.000267022 2.93298e-23)
(0.0271411 0.000250772 -1.14779e-23)
(0.0271567 0.00023409 3.25944e-24)
(0.0271708 0.000217141 -1.80176e-24)
(0.0271838 0.00020004 -4.26018e-24)
(0.0271955 0.000182879 7.75043e-24)
(0.0272062 0.000165719 -3.80959e-24)
(0.0272159 0.000148609 6.12691e-25)
(0.0272248 0.000131579 1.60815e-25)
(0.0272328 0.000114658 2.78542e-26)
(0.0251063 0.000298858 2.77526e-24)
(0.0251394 0.000291942 -1.4656e-23)
(0.02517 0.000282156 2.59361e-23)
(0.0251979 0.000270346 -2.02263e-23)
(0.0252235 0.000257123 2.10139e-23)
(0.0252471 0.0002429 -6.78891e-24)
(0.0252687 0.000227959 -4.86985e-24)
(0.0252885 0.000212498 -5.62358e-24)
(0.0253068 0.000196663 1.03197e-23)
(0.0253235 0.000180567 -1.91297e-25)
(0.0253389 0.000164301 -1.00747e-23)
(0.025353 0.000147932 -1.2692e-24)
(0.0253659 0.000131516 2.25284e-24)
(0.0253778 0.000115094 -4.44911e-25)
(0.0253886 9.87034e-05 8.28922e-26)
(0.0230278 0.000266786 3.70005e-25)
(0.0230668 0.000260187 -5.57259e-24)
(0.0231031 0.000251182 -3.41109e-24)
(0.0231365 0.000240425 2.69414e-23)
(0.0231674 0.000228388 -2.70913e-23)
(0.0231959 0.000215391 8.06686e-24)
(0.0232222 0.000201669 1.42607e-24)
(0.0232465 0.000187394 -7.8185e-25)
(0.0232689 0.000172702 -3.88917e-24)
(0.0232895 0.000157702 1.7264e-23)
(0.0233085 0.000142479 -1.39122e-23)
(0.0233259 0.000127103 -6.93345e-25)
(0.0233418 0.000111632 1.26197e-24)
(0.0233564 9.61127e-05 1.09206e-24)
(0.0233696 8.05849e-05 -8.49823e-25)
(0.0208852 0.000232258 5.51963e-25)
(0.0209297 0.000226016 5.23687e-24)
(0.0209712 0.000217783 -5.9797e-24)
(0.0210096 0.000208061 -4.44124e-24)
(0.0210452 0.000197208 2.91947e-23)
(0.0210781 0.000185478 -2.2331e-23)
(0.0211086 0.000173066 -4.13909e-25)
(0.0211368 0.000160122 -5.07174e-24)
(0.0211627 0.000146768 -5.07634e-25)
(0.0211866 0.000133098 7.08484e-25)
(0.0212085 0.000119195 -3.23782e-24)
(0.0212286 0.000105121 2.4654e-24)
(0.0212468 9.09351e-05 8.54653e-25)
(0.0212633 7.66849e-05 8.26335e-25)
(0.0212781 6.24156e-05 1.03266e-24)
(0.0187554 0.000196821 3.94263e-24)
(0.0188038 0.000191061 -6.11365e-24)
(0.0188491 0.000183682 -5.2907e-24)
(0.0188911 0.000175069 1.62221e-23)
(0.0189301 0.00016549 -5.7984e-24)
(0.0189661 0.000155144 -8.84529e-24)
(0.0189995 0.000144188 3.03025e-24)
(0.0190302 0.000132748 7.48142e-24)
(0.0190585 0.000120928 -1.24135e-23)
(0.0190844 0.000108811 1.27183e-23)
(0.0191081 9.64682e-05 -7.07387e-24)
(0.0191295 8.39621e-05 3.18406e-24)
(0.0191487 7.13485e-05 -4.4846e-24)
(0.0191659 5.86775e-05 4.5776e-24)
(0.0191809 4.59979e-05 -1.15509e-24)
(0.0166855 0.000162246 -7.66644e-25)
(0.016736 0.00015712 -2.78701e-24)
(0.0167831 0.000150705 -9.25205e-24)
(0.0168268 0.000143299 2.58957e-23)
(0.0168673 0.000135088 -4.42409e-24)
(0.0169048 0.000126225 -7.6917e-24)
(0.0169394 0.000116834 2.93349e-24)
(0.0169712 0.000107021 -4.2074e-24)
(0.0170002 9.68715e-05 -9.88977e-24)
(0.0170267 8.64578e-05 9.47658e-24)
(0.0170505 7.5844e-05 4.5787e-25)
(0.0170719 6.50886e-05 -3.57434e-24)
(0.0170907 5.42428e-05 4.05566e-24)
(0.0171072 4.33566e-05 2.90388e-25)
(0.0171213 3.24755e-05 -3.60122e-25)
(0.0147032 0.000130108 2.95476e-24)
(0.0147534 0.000125737 4.61331e-24)
(0.0148003 0.000120368 -4.0597e-24)
(0.0148439 0.000114222 -9.70701e-24)
(0.0148842 0.000107418 1.35553e-23)
(0.0149215 0.000100072 -1.53596e-23)
(0.0149557 9.22848e-05 -9.43868e-25)
(0.014987 8.41412e-05 6.22171e-24)
(0.0150154 7.57124e-05 2.2875e-24)
(0.015041 6.70605e-05 -5.2235e-24)
(0.0150639 5.82412e-05 -3.00517e-25)
(0.015084 4.93068e-05 1.1584e-23)
(0.0151014 4.03041e-05 -4.47459e-24)
(0.0151162 3.1278e-05 -1.23371e-24)
(0.0151284 2.22706e-05 -8.44956e-26)
(0.012824 0.00010151 -3.07354e-24)
(0.0128722 9.79458e-05 3.98341e-24)
(0.0129172 9.36403e-05 5.06406e-25)
(0.012959 8.87344e-05 8.95305e-24)
(0.0129977 8.32997e-05 -7.1333e-24)
(0.0130333 7.74262e-05 7.62099e-25)
(0.0130659 7.11947e-05 -6.95991e-25)
(0.0130956 6.46727e-05 -2.51251e-24)
(0.0131223 5.79175e-05 2.49942e-24)
(0.0131462 5.09809e-05 -8.09802e-24)
(0.0131672 4.39101e-05 3.62838e-25)
(0.0131854 3.67496e-05 1.95536e-24)
(0.0132008 2.95409e-05 1.32494e-24)
(0.0132135 2.23227e-05 5.60808e-25)
(0.0132234 1.51318e-05 2.31198e-25)
(0.0110571 7.70021e-05 2.27977e-24)
(0.0111019 7.42308e-05 -1.78475e-24)
(0.0111437 7.09326e-05 -8.47044e-24)
(0.0111826 6.71735e-05 7.96975e-24)
(0.0112186 6.29978e-05 1.19702e-23)
(0.0112516 5.84782e-05 -2.6848e-24)
(0.0112818 5.36768e-05 -6.30474e-24)
(0.0113091 4.86451e-05 -9.65337e-24)
(0.0113336 4.34282e-05 7.4311e-24)
(0.0113552 3.8068e-05 5.25692e-25)
(0.0113741 3.26031e-05 -1.83976e-24)
(0.0113901 2.70696e-05 -5.75728e-25)
(0.0114034 2.15029e-05 1.16381e-24)
(0.011414 1.59348e-05 -1.74144e-26)
(0.0114218 1.03949e-05 -2.63848e-25)
(0.00940794 5.66794e-05 -1.43699e-24)
(0.00944835 5.46291e-05 -1.1079e-24)
(0.00948618 5.22224e-05 1.24197e-24)
(0.00952138 4.94624e-05 -4.43331e-24)
(0.00955395 4.63844e-05 1.46936e-23)
(0.00958387 4.30456e-05 -2.02017e-23)
(0.00961114 3.94909e-05 2.05077e-23)
(0.00963575 3.57586e-05 -8.87514e-24)
(0.0096577 3.18834e-05 2.21643e-24)
(0.009677 2.78976e-05 1.58117e-25)
(0.00969364 2.38316e-05 -1.76012e-24)
(0.00970764 1.97136e-05 7.46244e-25)
(0.009719 1.55718e-05 -1.5437e-24)
(0.00972775 1.14312e-05 -2.3273e-25)
(0.0097339 7.31346e-06 1.22917e-25)
(0.00787919 4.03221e-05 -6.99451e-25)
(0.00791469 3.88846e-05 1.61618e-25)
(0.00794803 3.7217e-05 3.9698e-25)
(0.00797914 3.52811e-05 -2.00581e-24)
(0.00800797 3.31125e-05 -1.01616e-24)
(0.00803447 3.07527e-05 8.28199e-24)
(0.00805862 2.82328e-05 -4.93797e-24)
(0.00808039 2.55801e-05 7.73525e-25)
(0.00809977 2.28202e-05 -7.35591e-25)
(0.00811674 1.99773e-05 -8.71229e-25)
(0.00813129 1.70738e-05 -3.08579e-25)
(0.00814343 1.41311e-05 1.81188e-24)
(0.00815316 1.11704e-05 5.75031e-25)
(0.00816051 8.21048e-06 -1.18278e-24)
(0.00816548 5.2661e-06 -2.03802e-25)
(0.00647136 2.75332e-05 -2.54854e-25)
(0.00650169 2.65841e-05 -9.54192e-26)
(0.00653033 2.54925e-05 -4.39456e-24)
(0.00655714 2.42027e-05 1.03309e-24)
(0.00658204 2.27515e-05 -3.52005e-24)
(0.00660499 2.11656e-05 2.17492e-24)
(0.00662594 1.94654e-05 4.62514e-24)
(0.00664484 1.76697e-05 3.74923e-24)
(0.00666167 1.57964e-05 -5.39736e-24)
(0.00667641 1.38626e-05 1.63631e-24)
(0.00668903 1.18841e-05 1.53381e-24)
(0.00669953 9.87653e-06 -2.34017e-24)
(0.00670792 7.85501e-06 1.25785e-24)
(0.00671421 5.8331e-06 -1.36872e-25)
(0.0067184 3.8197e-06 3.80912e-25)
(0.00518287 1.78401e-05 -1.00035e-24)
(0.00520799 1.72556e-05 -1.44619e-24)
(0.00523187 1.65869e-05 -3.4735e-25)
(0.0052543 1.57795e-05 3.65926e-24)
(0.00527523 1.48673e-05 -2.72664e-24)
(0.00529458 1.38647e-05 -6.27965e-25)
(0.00531229 1.27844e-05 4.68084e-24)
(0.00532832 1.16388e-05 1.00647e-25)
(0.00534264 1.04395e-05 -9.55424e-25)
(0.0053552 9.198e-06 -3.98251e-24)
(0.00536599 7.92488e-06 3.26087e-25)
(0.005375 6.63069e-06 2.95847e-24)
(0.00538223 5.32587e-06 -3.89077e-25)
(0.00538768 4.01976e-06 -4.89891e-25)
(0.00539136 2.71731e-06 3.34131e-25)
(0.00401031 1.0756e-05 -2.19161e-25)
(0.00403033 1.04251e-05 6.49178e-27)
(0.00404948 1.00486e-05 1.73859e-24)
(0.00406756 9.5831e-06 1.25973e-24)
(0.0040845 9.05491e-06 -7.62485e-25)
(0.00410024 8.47002e-06 -2.13418e-24)
(0.00411471 7.83592e-06 9.26875e-25)
(0.00412786 7.16e-06 -4.03011e-24)
(0.00413965 6.44938e-06 3.12893e-24)
(0.00415006 5.71111e-06 1.75432e-24)
(0.00415905 4.95176e-06 8.10407e-26)
(0.00416662 4.17803e-06 -2.03238e-24)
(0.00417274 3.39655e-06 3.98744e-25)
(0.00417744 2.61353e-06 -3.30191e-25)
(0.00418072 1.83206e-06 1.71952e-25)
(0.00294873 5.81498e-06 -4.0458e-25)
(0.00296381 5.64563e-06 -3.95688e-27)
(0.00297836 5.45667e-06 1.38911e-24)
(0.00299215 5.21808e-06 -8.73249e-25)
(0.00300515 4.94618e-06 3.86208e-24)
(0.00301728 4.64241e-06 -7.14055e-24)
(0.0030285 4.31076e-06 6.04146e-24)
(0.00303875 3.95518e-06 -5.23277e-24)
(0.003048 3.57954e-06 3.90646e-24)
(0.00305621 3.18777e-06 -2.61791e-24)
(0.00306336 2.78348e-06 9.17829e-25)
(0.00306944 2.3705e-06 1.40734e-25)
(0.00307444 1.95257e-06 2.54822e-25)
(0.00307835 1.53356e-06 -3.21134e-25)
(0.00308118 1.1159e-06 7.11766e-26)
(0.00199193 2.6045e-06 6.15602e-25)
(0.00200233 2.52757e-06 7.04181e-25)
(0.00201243 2.44792e-06 -2.9809e-24)
(0.00202206 2.34665e-06 2.22921e-24)
(0.00203118 2.23086e-06 -3.30411e-27)
(0.00203975 2.10042e-06 6.5115e-25)
(0.00204772 1.95718e-06 -7.53543e-25)
(0.00205504 1.80292e-06 -1.72166e-24)
(0.0020617 1.63942e-06 1.74759e-24)
(0.00206765 1.46853e-06 2.20464e-25)
(0.00207289 1.2919e-06 -1.54552e-24)
(0.00207739 1.11138e-06 5.51845e-25)
(0.00208114 9.2868e-07 3.64117e-25)
(0.00208415 7.45842e-07 -4.09719e-26)
(0.00208641 5.64855e-07 -4.79912e-26)
(0.00113293 8.06141e-07 -6.2301e-25)
(0.00113891 7.84457e-07 1.94343e-24)
(0.00114478 7.66646e-07 1.2482e-24)
(0.0011504 7.41581e-07 -2.15936e-24)
(0.00115576 7.10834e-07 -2.57592e-25)
(0.00116083 6.74407e-07 -2.45098e-25)
(0.00116557 6.3305e-07 7.90969e-25)
(0.00116997 5.87459e-07 -1.36525e-24)
(0.00117399 5.3831e-07 1.94877e-24)
(0.00117761 4.86302e-07 -9.52208e-25)
(0.00118083 4.32017e-07 -6.73776e-25)
(0.00118363 3.76129e-07 4.22476e-25)
(0.00118601 3.19133e-07 -5.56958e-25)
(0.00118795 2.6171e-07 5.73752e-25)
(0.00118946 2.04918e-07 -1.04378e-25)
(0.000364247 1.40335e-07 -4.47944e-27)
(0.000366129 1.69442e-07 3.83847e-25)
(0.000368 1.94894e-07 4.65066e-25)
(0.000369808 2.13535e-07 -7.06358e-25)
(0.000371554 2.25858e-07 1.58018e-24)
(0.00037322 2.32138e-07 -1.70825e-24)
(0.000374796 2.32704e-07 1.20947e-25)
(0.00037627 2.27796e-07 1.05814e-24)
(0.000377633 2.17612e-07 -1.46678e-24)
(0.000378876 2.0234e-07 -3.00074e-25)
(0.000379994 1.82128e-07 1.12205e-24)
(0.00038098 1.57158e-07 -5.05604e-25)
(0.00038183 1.27538e-07 -2.10836e-25)
(0.000382544 9.3418e-08 1.79483e-25)
(0.00038312 5.51417e-08 -8.70832e-27)
(0.000904694 -0.00024798 9.4833e-26)
(0.00103228 -0.000175664 2.50783e-24)
(0.0012471 -9.9216e-05 -7.32315e-24)
(0.00146589 -3.58501e-05 1.0871e-23)
(0.00167526 1.63411e-05 -4.07938e-24)
(0.00188054 5.83267e-05 -4.08098e-24)
(0.00208226 9.24706e-05 4.70779e-24)
(0.00228161 0.000120659 -9.47132e-24)
(0.00247974 0.000144349 5.26347e-25)
(0.00267753 0.000164661 6.07463e-24)
(0.00287563 0.000182484 -1.18415e-24)
(0.0030746 0.00019859 1.30353e-24)
(0.00327499 0.000213733 -1.14642e-25)
(0.00347748 0.000228592 8.83081e-25)
(0.00368319 0.000243693 -3.26199e-24)
(0.00389379 0.000259527 1.81202e-24)
(0.00411161 0.000276378 -6.22623e-25)
(0.00433984 0.000293926 1.64883e-26)
(0.00458329 0.00031087 1.58931e-24)
(0.00484786 0.000324527 -1.01183e-24)
(0.00514099 0.00032907 1.3029e-25)
(0.00546829 0.000314867 -1.13874e-25)
(0.00580395 0.00026937 2.08164e-25)
(0.00610313 0.000192579 7.6649e-25)
(0.00635075 9.25947e-05 -1.37936e-24)
(0.00654599 -2.30663e-05 -8.77208e-25)
(0.00668994 -0.000149049 6.42645e-26)
(0.00678525 -0.000281505 2.12754e-24)
(0.00683452 -0.000416431 2.78335e-24)
(0.00683949 -0.000549686 -5.45245e-24)
(0.0068013 -0.000676998 4.33567e-24)
(0.00672094 -0.000793625 -3.75212e-24)
(0.00659956 -0.000894169 8.76984e-25)
(0.0064386 -0.000972541 -6.88823e-25)
(0.00623989 -0.00102197 6.25533e-25)
(0.00600558 -0.00103491 7.24279e-24)
(0.00573796 -0.00100275 -1.64094e-24)
(0.00543946 -0.000915108 2.2912e-24)
(0.00511266 -0.000758446 1.35805e-24)
(0.00476084 -0.000514281 -1.20774e-23)
(0.00438721 -0.000159803 -1.50775e-25)
(0.00399637 0.000322729 5.36867e-24)
(0.00357697 0.000911026 1.89781e-24)
(0.00314633 0.00149515 -7.70558e-24)
(0.00290123 0.00171252 -3.99749e-25)
(0.00169873 -0.000325348 -2.82311e-24)
(0.00174967 -0.000285651 -4.12108e-24)
(0.00187915 -0.00021165 8.55213e-24)
(0.00204298 -0.000140929 4.17357e-24)
(0.00221701 -7.86522e-05 -1.46154e-23)
(0.00239711 -2.65719e-05 1.58332e-23)
(0.00257977 1.66166e-05 -5.70489e-24)
(0.00276386 5.27203e-05 4.70706e-24)
(0.00294925 8.33183e-05 -6.21133e-24)
(0.00313608 0.000109691 6.05482e-26)
(0.00332461 0.000132868 -3.45395e-24)
(0.00351516 0.00015372 6.88722e-24)
(0.00370815 0.00017306 -3.87698e-24)
(0.00390416 0.000191589 -3.69689e-24)
(0.00410424 0.000209819 -2.70263e-24)
(0.00430999 0.00022824 4.77506e-24)
(0.00452359 0.00024713 -7.0908e-25)
(0.00474805 0.00026613 2.8439e-24)
(0.0049879 0.000283922 5.36682e-25)
(0.00524867 0.000297862 -9.02873e-25)
(0.00553739 0.000302331 -3.95818e-25)
(0.0058594 0.000288152 -2.38049e-25)
(0.00618965 0.000243501 1.13096e-24)
(0.0064846 0.000168822 1.29403e-24)
(0.00672964 7.2111e-05 -1.23397e-24)
(0.00692383 -3.92674e-05 -5.44339e-24)
(0.00706798 -0.000160084 7.18287e-24)
(0.00716446 -0.000286553 -4.85698e-24)
(0.00721576 -0.000414626 1.61512e-24)
(0.00722365 -0.000540041 -8.74354e-25)
(0.00718943 -0.000658437 6.28693e-24)
(0.00711436 -0.00076504 -7.70676e-24)
(0.00699997 -0.000854469 2.94492e-24)
(0.00684821 -0.0009207 2.83361e-24)
(0.00666159 -0.000957044 -7.37323e-24)
(0.00644319 -0.000956049 2.1965e-24)
(0.00619669 -0.000909231 1.36547e-23)
(0.00592658 -0.000806453 -3.48068e-24)
(0.00563872 -0.000634768 -1.1533e-23)
(0.0053419 -0.000376805 -7.27495e-24)
(0.00504945 -1.10321e-05 1.66411e-23)
(0.00478431 0.000480018 -1.6434e-23)
(0.00457183 0.00107409 -4.20611e-24)
(0.00445393 0.0016489 1.09651e-23)
(0.00448378 0.00180331 3.93461e-24)
(0.0026352 -0.000330632 -3.23921e-26)
(0.00263917 -0.000329243 -4.64231e-24)
(0.00269044 -0.000285839 9.10632e-24)
(0.00279031 -0.000225043 8.00469e-24)
(0.00291549 -0.000163296 -1.29557e-23)
(0.00305768 -0.000107074 2.52451e-25)
(0.00321046 -5.81488e-05 1.2932e-24)
(0.00337032 -1.59903e-05 1.43846e-23)
(0.00353545 2.04561e-05 -1.70804e-23)
(0.00370494 5.22792e-05 1.07256e-23)
(0.00387838 8.04561e-05 3.42516e-24)
(0.00405568 0.000105849 -1.84284e-23)
(0.004237 0.000129279 6.67924e-24)
(0.00442274 0.000151428 2.78921e-24)
(0.00461379 0.000172768 -6.09822e-24)
(0.00481165 0.000193775 1.02053e-23)
(0.00501834 0.000214722 -7.44888e-24)
(0.00523661 0.000235198 -2.69711e-25)
(0.00547072 0.000253864 5.5632e-25)
(0.00572577 0.000268118 6.83817e-25)
(0.00600834 0.000272547 8.84732e-26)
(0.00632343 0.000258434 4.26484e-25)
(0.00664675 0.000214685 -1.13233e-24)
(0.00693616 0.000142195 3.31185e-24)
(0.00717752 4.88607e-05 -5.06631e-24)
(0.00736977 -5.80896e-05 2.88322e-24)
(0.00751339 -0.00017353 -6.22695e-24)
(0.00761049 -0.000293761 8.36146e-24)
(0.00766344 -0.00041469 -7.18229e-24)
(0.00767407 -0.000531932 7.03827e-25)
(0.00764384 -0.000641038 6.50687e-25)
(0.00757432 -0.000737211 9.03661e-24)
(0.00746746 -0.000815121 -2.72788e-24)
(0.00732576 -0.000868864 1.571e-24)
(0.00715248 -0.000891952 -7.11791e-24)
(0.00695169 -0.000877236 1.53146e-23)
(0.0067285 -0.000816732 -1.11822e-23)
(0.0064895 -0.000701215 1.84175e-23)
(0.0062436 -0.000519583 -3.57886e-23)
(0.00600423 -0.000258072 1.37626e-23)
(0.00579184 9.85354e-05 4.94496e-24)
(0.00563873 0.000558664 8.18072e-24)
(0.00558219 0.00109186 -1.02127e-23)
(0.0056483 0.00157559 3.26412e-24)
(0.00581638 0.00169452 -2.0598e-24)
(0.00369937 -0.000310634 -1.21364e-24)
(0.003676 -0.000333234 -1.90066e-24)
(0.00367944 -0.000316852 -8.21386e-24)
(0.00371793 -0.000278692 2.07077e-24)
(0.00379004 -0.000227458 1.38855e-24)
(0.00388614 -0.000174745 6.71114e-24)
(0.0039999 -0.000125319 -1.45029e-23)
(0.00412677 -8.05603e-05 5.42132e-24)
(0.00426367 -4.05398e-05 1.8878e-23)
(0.00440865 -4.78684e-06 -4.95421e-24)
(0.00456057 2.73514e-05 -4.79467e-24)
(0.00471884 5.65603e-05 -7.83394e-25)
(0.00488328 8.35639e-05 2.66839e-24)
(0.00505401 0.000108963 -5.32741e-24)
(0.00523176 0.000133135 1.18241e-24)
(0.00541786 0.000156519 -5.55557e-25)
(0.00561414 0.000179368 -3.09364e-24)
(0.00582308 0.000201204 9.56564e-25)
(0.00604863 0.000220658 5.61255e-24)
(0.00629544 0.000235171 -6.17382e-25)
(0.00656957 0.000239539 -1.34118e-24)
(0.00687561 0.00022551 -3.70496e-25)
(0.00719005 0.000182739 -1.99363e-24)
(0.00747221 0.000112565 -2.90973e-26)
(0.0077084 2.27837e-05 -4.36733e-24)
(0.00789742 -7.95223e-05 7.6957e-24)
(0.00803944 -0.000189294 -6.24655e-24)
(0.00813629 -0.000302947 1.18861e-23)
(0.00819024 -0.00041636 -9.82032e-24)
(0.00820318 -0.000525037 2.33368e-24)
(0.00817677 -0.000624464 3.73738e-24)
(0.00811293 -0.000709865 -2.09451e-25)
(0.00801404 -0.000776025 -3.81608e-25)
(0.0078832 -0.000817274 -9.03801e-25)
(0.00772442 -0.000827493 7.70436e-25)
(0.00754276 -0.000800114 -5.03603e-24)
(0.00734464 -0.000728079 2.49261e-23)
(0.00713841 -0.000603754 -1.3123e-23)
(0.00693524 -0.000418919 -2.45238e-25)
(0.00675105 -0.000165032 -3.31842e-23)
(0.00660841 0.000164536 2.53231e-23)
(0.00653868 0.000567407 -9.87206e-24)
(0.00657444 0.00100985 1.82403e-24)
(0.00672439 0.00139589 1.36095e-23)
(0.0069512 0.00153803 -3.65902e-24)
(0.00488848 -0.000280018 -5.03851e-24)
(0.00485454 -0.000312642 1.03448e-23)
(0.0048297 -0.000314673 3.02148e-24)
(0.00482813 -0.000298049 1.31482e-23)
(0.00485055 -0.000264816 -3.22421e-23)
(0.00489972 -0.00022213 -1.02649e-24)
(0.00496989 -0.000178032 1.56423e-24)