/*--------------------------------*- C++ -*----------------------------------*\
| =========                 |                                                 |
| \\      /  F ield         | OpenFOAM: The Open Source CFD Toolbox           |
|  \\    /   O peration     | Version:  2312                                  |
|   \\  /    A nd           | Website:  www.openfoam.com                      |
|    \\/     M anipulation  |                                                 |
\*---------------------------------------------------------------------------*/
FoamFile
{
    version     2.0;
    format      ascii;
    arch        "LSB;label=32;scalar=64";
    class       volVectorField;
    location    "19.5";
    object      U;
}
// * * * * * * * * * * * * * * * * * * * * * * * * * * * * * * * * * * * * * //

dimensions      [0 1 -1 0 0 0 0];

internalField   nonuniform List<vector> 
4800
(
(0.000466409 3.15333e-07 -2.69272e-26)
(0.000458685 3.45762e-07 -1.89242e-25)
(0.000454027 3.57313e-07 2.42898e-25)
(0.000451411 3.47919e-07 1.11078e-25)
(0.000450235 3.29619e-07 1.64028e-24)
(0.000450239 2.97059e-07 -3.90626e-24)
(0.000451178 2.57091e-07 3.65883e-24)
(0.000452951 1.80553e-07 -5.31176e-24)
(0.000455644 2.43497e-08 1.7031e-24)
(0.000459435 -2.41585e-07 5.81166e-24)
(0.000464734 -7.5561e-07 -1.79089e-24)
(0.000472827 -2.16547e-06 -1.51616e-25)
(0.000490946 -7.35658e-06 -2.18542e-24)
(0.000537007 -2.8321e-05 1.01684e-24)
(0.000613107 -9.20333e-05 -8.08454e-25)
(0.0014422 1.64624e-06 -8.56676e-26)
(0.0014186 1.19208e-06 1.06773e-25)
(0.00140412 8.3016e-07 -9.84241e-25)
(0.00139573 5.02506e-07 7.35505e-25)
(0.00139161 1.84452e-07 2.36254e-24)
(0.00139096 -1.61043e-07 -3.75073e-24)
(0.00139297 -5.58414e-07 -1.07128e-24)
(0.00139738 -1.086e-06 -2.56425e-25)
(0.00140443 -1.91396e-06 8.82439e-24)
(0.00141453 -3.24517e-06 -6.5202e-24)
(0.00142888 -5.72083e-06 7.09741e-25)
(0.00145023 -1.15873e-05 1.08258e-24)
(0.00148745 -2.85175e-05 -1.60143e-24)
(0.00155124 -8.00688e-05 -4.85003e-25)
(0.00161988 -0.000196176 2.09481e-24)
(0.00252083 5.29208e-06 -6.13298e-26)
(0.0024802 3.82557e-06 6.2669e-26)
(0.00245494 2.68726e-06 6.44242e-25)
(0.00243993 1.69891e-06 -1.53631e-24)
(0.00243212 7.20082e-07 1.50808e-24)
(0.00243004 -3.49533e-07 1.40568e-24)
(0.00243235 -1.58728e-06 -3.63183e-24)
(0.00243845 -3.22077e-06 -2.27896e-24)
(0.00244881 -5.61554e-06 5.474e-24)
(0.00246364 -9.32129e-06 2.06475e-24)
(0.00248434 -1.58375e-05 -7.17888e-24)
(0.00251307 -2.91497e-05 -1.0894e-24)
(0.00255395 -5.88027e-05 3.06709e-24)
(0.00260576 -0.00012413 4.85427e-24)
(0.00264333 -0.000232674 -2.50783e-24)
(0.00370832 1.18391e-05 2.26724e-26)
(0.00364987 8.66567e-06 -1.57863e-25)
(0.003613 6.21108e-06 7.04015e-25)
(0.00359053 4.09443e-06 7.53602e-25)
(0.00357821 2.01746e-06 -7.48394e-25)
(0.00357371 -2.55539e-07 -4.2503e-24)
(0.0035754 -2.75324e-06 -2.87627e-24)
(0.00358194 -6.06968e-06 1.1004e-23)
(0.00359402 -1.08237e-05 4.59163e-24)
(0.00361126 -1.78321e-05 -6.59401e-24)
(0.00363448 -2.92538e-05 -2.65689e-24)
(0.0036641 -4.96254e-05 -2.0276e-24)
(0.00369937 -8.69432e-05 6.07854e-26)
(0.00373312 -0.000151182 1.49959e-24)
(0.00374708 -0.00023734 7.32853e-27)
(0.00500855 2.19169e-05 -4.16089e-26)
(0.00493221 1.62055e-05 -2.54464e-25)
(0.00488329 1.17959e-05 -1.60976e-25)
(0.00485272 8.01303e-06 4.35115e-25)
(0.00483511 4.35933e-06 -1.23773e-24)
(0.00482715 5.00192e-07 3.08906e-24)
(0.00482714 -3.94626e-06 -5.38881e-25)
(0.00483281 -9.29753e-06 1.89502e-24)
(0.00484466 -1.68972e-05 -1.06288e-23)
(0.00486168 -2.75395e-05 2.01828e-23)
(0.00488367 -4.34826e-05 -1.95282e-23)
(0.00490934 -6.84588e-05 1.03067e-23)
(0.00493532 -0.000107297 -9.565e-24)
(0.00495392 -0.000163051 9.02265e-24)
(0.00495478 -0.00022814 -3.59744e-24)
(0.00642157 3.6231e-05 5.49755e-26)
(0.00632867 2.70713e-05 1.96795e-25)
(0.0062681 2.00047e-05 -1.03844e-24)
(0.00622927 1.39726e-05 -6.57611e-25)
(0.00620587 8.24518e-06 1.76394e-24)
(0.00619374 2.26241e-06 6.33279e-25)
(0.00619066 -4.35425e-06 -4.95125e-24)
(0.00619431 -1.23271e-05 1.18217e-23)
(0.00620403 -2.28727e-05 -1.54045e-23)
(0.00621841 -3.69176e-05 3.69297e-24)
(0.00623628 -5.6275e-05 1.1241e-23)
(0.00625536 -8.32231e-05 -1.56159e-23)
(0.0062718 -0.000119641 7.81997e-24)
(0.00627987 -0.000164993 8.01304e-24)
(0.00627485 -0.000213067 -6.09898e-24)
(0.00794152 5.52824e-05 4.54617e-26)
(0.00783564 4.17941e-05 -2.68889e-25)
(0.00776525 3.13708e-05 9.6297e-25)
(0.00771899 2.25053e-05 -1.33602e-24)
(0.00768992 1.42166e-05 -4.54127e-24)
(0.00767334 5.71346e-06 7.74247e-24)
(0.00766644 -3.47687e-06 -4.70325e-24)
(0.00766681 -1.41976e-05 1.60161e-23)
(0.00767292 -2.75637e-05 -1.08928e-23)
(0.00768293 -4.43968e-05 -5.09334e-24)
(0.00769503 -6.58059e-05 -1.00215e-23)
(0.00770674 -9.26897e-05 9.2142e-24)
(0.00771492 -0.000125026 2.59164e-24)
(0.00771609 -0.000161026 2.21612e-24)
(0.00770872 -0.000196531 -1.94981e-24)
(0.00955428 7.89571e-05 -6.55166e-26)
(0.00944223 6.04972e-05 8.89749e-25)
(0.00936604 4.6149e-05 -2.07135e-24)
(0.00931468 3.39583e-05 -1.69661e-24)
(0.00928117 2.26952e-05 6.34696e-25)
(0.00926067 1.13879e-05 1.24941e-24)
(0.00924994 -5.96312e-07 4.48775e-24)
(0.00924643 -1.40232e-05 -1.22302e-23)
(0.00924815 -2.98558e-05 -6.53008e-24)
(0.00925298 -4.86483e-05 1.7964e-23)
(0.00925892 -7.08319e-05 -5.56862e-24)
(0.00926374 -9.63617e-05 1.90408e-23)
(0.00926538 -0.000124372 -1.00236e-23)
(0.00926195 -0.000153064 -3.19304e-24)
(0.00925348 -0.000179921 1.89014e-24)
(0.0112365 0.000105984 -8.66024e-27)
(0.0111287 8.24653e-05 4.91789e-25)
(0.0110534 6.3964e-05 -7.00291e-25)
(0.0110013 4.81959e-05 1.67854e-24)
(0.0109661 3.37358e-05 -1.00115e-23)
(0.0109434 1.95042e-05 1.05713e-23)
(0.0109299 4.76189e-06 -1.66655e-23)
(0.0109229 -1.11516e-05 1.02446e-23)
(0.0109205 -2.89322e-05 7.62169e-24)
(0.0109204 -4.88416e-05 1.65466e-23)
(0.0109209 -7.08257e-05 -2.16111e-23)
(0.0109201 -9.43797e-05 -3.9952e-24)
(0.010917 -0.000118495 1.84644e-24)
(0.0109106 -0.00014182 1.31659e-23)
(0.0109014 -0.00016293 -5.35294e-24)
(0.0129584 0.000133425 4.73945e-26)
(0.0128677 0.000105658 -2.06305e-25)
(0.0128022 8.33662e-05 9.22881e-25)
(0.0127555 6.4193e-05 -3.2369e-24)
(0.0127231 4.66486e-05 4.90736e-24)
(0.0127012 2.96423e-05 -6.33735e-24)
(0.0126871 1.24296e-05 1.06106e-23)
(0.0126784 -5.53728e-06 1.86071e-24)
(0.0126731 -2.46439e-05 -1.46264e-23)
(0.0126695 -4.49288e-05 2.08274e-23)
(0.0126661 -6.60911e-05 -2.29677e-23)
(0.0126616 -8.75251e-05 -6.7566e-24)
(0.0126556 -0.000108401 1.19197e-23)
(0.0126475 -0.000127861 3.53308e-24)
(0.0126381 -0.000145149 -1.54274e-24)
(0.0146946 0.000156837 1.88443e-25)
(0.0146318 0.000126582 -1.60339e-24)
(0.0145846 0.00010158 -2.58127e-24)
(0.0145499 7.97263e-05 6.11796e-24)
(0.0145253 5.96564e-05 2.73605e-24)
(0.0145081 4.03867e-05 -1.71847e-23)
(0.0144965 2.12723e-05 5.29439e-24)
(0.0144885 1.90368e-06 3.813e-24)
(0.0144826 -1.78536e-05 -1.64819e-23)
(0.0144777 -3.79054e-05 1.71709e-23)
(0.0144726 -5.78955e-05 -1.373e-23)
(0.0144666 -7.73143e-05 3.52721e-23)
(0.0144596 -9.55944e-05 -1.6948e-23)
(0.0144512 -0.000112261 9.97101e-24)
(0.0144423 -0.000126951 -2.71961e-24)
(0.0164388 0.000172032 -6.95298e-26)
(0.0164069 0.000141336 1.08067e-24)
(0.0163817 0.000115119 -2.12382e-24)
(0.0163629 9.17257e-05 -1.08165e-24)
(0.0163494 7.00685e-05 1.2081e-23)
(0.01634 4.93777e-05 -1.75421e-24)
(0.0163335 2.91744e-05 -2.14855e-23)
(0.0163287 9.21872e-06 2.50591e-23)
(0.0163246 -1.05003e-05 -5.6314e-24)
(0.0163206 -2.98225e-05 -1.94757e-23)
(0.0163161 -4.84444e-05 2.07692e-23)
(0.0163106 -6.60195e-05 1.11881e-23)
(0.0163044 -8.22148e-05 -9.41688e-24)
(0.016297 -9.68097e-05 -1.62917e-23)
(0.0162896 -0.000109665 1.36648e-24)
(0.0182117 0.000178148 -2.6219e-27)
(0.0182025 0.000148151 -1.20071e-24)
(0.0181954 0.000121827 5.75571e-24)
(0.0181904 9.7915e-05 3.71436e-25)
(0.0181875 7.56162e-05 3.29883e-24)
(0.0181859 5.43977e-05 -1.17945e-23)
(0.0181851 3.39534e-05 1.00791e-23)
(0.0181843 1.41751e-05 2.29439e-24)
(0.0181833 -4.89742e-06 2.07184e-23)
(0.0181815 -2.31137e-05 -3.20126e-23)
(0.0181788 -4.02655e-05 -1.4483e-23)
(0.0181751 -5.61595e-05 -9.5647e-24)
(0.0181707 -7.06351e-05 1.80149e-23)
(0.0181654 -8.36246e-05 -5.17516e-25)
(0.0181599 -9.51082e-05 1.74437e-24)
(0.0200397 0.000178601 -1.78543e-26)
(0.0200408 0.000149188 1.22064e-24)
(0.0200425 0.000122969 -1.78017e-24)
(0.0200449 9.89415e-05 -7.05435e-28)
(0.0200478 7.65113e-05 2.38198e-24)
(0.0200508 5.53212e-05 6.07352e-24)
(0.0200535 3.51864e-05 -2.35526e-23)
(0.0200554 1.60546e-05 1.98692e-24)
(0.0200565 -2.0346e-06 1.19779e-23)
(0.0200565 -1.89959e-05 -5.51283e-24)
(0.0200556 -3.47228e-05 1.50545e-23)
(0.0200536 -4.91409e-05 1.05319e-23)
(0.020051 -6.22045e-05 -1.91121e-23)
(0.0200474 -7.39318e-05 1.30644e-23)
(0.0200439 -8.43638e-05 -1.08587e-23)
(0.0219171 0.000177476 -5.30184e-25)
(0.0219203 0.000148339 2.78398e-25)
(0.0219239 0.000122096 2.11425e-24)
(0.0219278 9.7982e-05 -1.09901e-23)
(0.0219318 7.55607e-05 9.69022e-24)
(0.0219355 5.45893e-05 -7.09962e-24)
(0.0219386 3.49415e-05 5.08914e-24)
(0.0219409 1.65691e-05 -3.61766e-23)
(0.0219423 -5.36394e-07 5.22163e-23)
(0.0219427 -1.63594e-05 -3.07672e-23)
(0.0219423 -3.08865e-05 2.74829e-23)
(0.021941 -4.41309e-05 2.29756e-23)
(0.0219393 -5.61193e-05 -4.01384e-23)
(0.0219367 -6.69159e-05 1.30565e-23)
(0.0219342 -7.65907e-05 -5.48333e-25)
(0.0237873 0.000175911 -1.87916e-26)
(0.0237915 0.000147358 -1.59902e-25)
(0.0237953 0.000121348 1.21263e-25)
(0.0237988 9.73917e-05 -3.02729e-25)
(0.0238021 7.52046e-05 3.94557e-24)
(0.0238049 5.46256e-05 -6.7892e-24)
(0.0238071 3.55572e-05 6.32403e-24)
(0.0238085 1.79338e-05 -2.00435e-23)
(0.0238093 1.70054e-06 4.56363e-23)
(0.0238092 -1.31905e-05 -5.84471e-23)
(0.0238085 -2.67947e-05 4.78983e-23)
(0.0238071 -3.91795e-05 -1.61797e-23)
(0.0238054 -5.04122e-05 8.40415e-25)
(0.0238031 -6.05792e-05 3.70885e-24)
(0.0238009 -6.97624e-05 -7.11564e-24)
(0.0255578 0.000172812 -1.5553e-24)
(0.0255639 0.000145537 2.80191e-24)
(0.0255685 0.000120373 -9.43262e-25)
(0.0255722 9.71048e-05 -1.5191e-24)
(0.0255752 7.55881e-05 6.20542e-24)
(0.0255775 5.57205e-05 -6.32338e-24)
(0.0255791 3.74209e-05 -5.71785e-24)
(0.0255799 2.06079e-05 -1.38348e-23)
(0.0255802 5.20049e-06 7.04554e-24)
(0.0255797 -8.89074e-06 3.36838e-23)
(0.0255787 -2.17583e-05 -1.77939e-23)
(0.0255772 -3.34943e-05 1.0617e-23)
(0.0255754 -4.41834e-05 -4.37065e-24)
(0.0255731 -5.39189e-05 -1.29541e-23)
(0.0255709 -6.27837e-05 6.63093e-24)
(0.0271118 0.000167119 5.10549e-25)
(0.0271199 0.000141827 -8.86712e-25)
(0.0271259 0.000118175 -2.64731e-25)
(0.0271303 9.61828e-05 -7.27964e-25)
(0.0271335 7.58211e-05 -1.84442e-24)
(0.0271358 5.70294e-05 9.57009e-24)
(0.0271374 3.97382e-05 -7.70864e-24)
(0.0271381 2.38562e-05 -4.9798e-24)
(0.0271383 9.29201e-06 4.56226e-24)
(0.0271377 -4.05756e-06 -5.38671e-24)
(0.0271368 -1.62843e-05 1.2553e-23)
(0.0271353 -2.74863e-05 6.37165e-24)
(0.0271337 -3.77529e-05 -2.37826e-23)
(0.0271316 -4.71747e-05 1.64339e-23)
(0.0271296 -5.58271e-05 -3.35179e-24)
(0.0282976 0.000158662 1.50811e-24)
(0.0283074 0.000135903 2.54396e-24)
(0.0283145 0.000114332 -5.66671e-24)
(0.0283197 9.41305e-05 -3.03331e-25)
(0.0283235 7.53533e-05 1.30614e-24)
(0.0283262 5.79728e-05 -2.90153e-24)
(0.028328 4.19338e-05 -4.63735e-24)
(0.028329 2.71468e-05 1.00389e-23)
(0.0283293 1.3525e-05 1.12262e-23)
(0.028329 9.65289e-07 -2.7269e-23)
(0.0283283 -1.0616e-05 1.57307e-23)
(0.0283272 -2.13125e-05 -1.1003e-24)
(0.0283258 -3.12045e-05 -9.17586e-25)
(0.0283241 -4.0369e-05 1.23766e-24)
(0.0283223 -4.88669e-05 -5.71136e-25)
(0.0289098 0.000146049 -3.95313e-24)
(0.0289213 0.000126252 -8.50464e-24)
(0.02893 0.000107237 4.58061e-24)
(0.0289364 8.92723e-05 1.54949e-23)
(0.0289413 7.24577e-05 -4.32468e-24)
(0.0289449 5.67979e-05 -1.21327e-24)
(0.0289476 4.22524e-05 5.62914e-25)
(0.0289493 2.87519e-05 -4.46739e-24)
(0.0289504 1.62229e-05 1.21263e-23)
(0.0289508 4.58412e-06 -5.36313e-24)
(0.0289506 -6.23883e-06 3.22694e-24)
(0.0289499 -1.63233e-05 -5.09934e-24)
(0.0289488 -2.57289e-05 -5.84634e-24)
(0.0289474 -3.45154e-05 8.75875e-24)
(0.0289457 -4.27294e-05 -3.82986e-24)
(0.0287294 0.000131961 6.26299e-24)
(0.0287415 0.000115101 -1.43902e-23)
(0.0287508 9.8698e-05 2.35736e-24)
(0.028758 8.30426e-05 2.07564e-23)
(0.0287636 6.82545e-05 -2.01296e-23)
(0.0287679 5.43599e-05 7.00217e-24)
(0.0287712 4.13312e-05 4.52468e-24)
(0.0287735 2.91218e-05 -1.01929e-23)
(0.0287752 1.76743e-05 2.368e-24)
(0.0287762 6.93872e-06 1.15444e-24)
(0.0287765 -3.13529e-06 -9.99912e-25)
(0.0287764 -1.25823e-05 2.12281e-24)
(0.0287758 -2.14429e-05 -2.60949e-24)
(0.0287748 -2.9768e-05 1.77521e-24)
(0.0287735 -3.75985e-05 -8.2453e-25)
(0.0277875 0.000116632 3.88388e-24)
(0.0278004 0.000102463 -8.19275e-24)
(0.0278105 8.85469e-05 -5.63861e-24)
(0.0278183 7.51474e-05 2.64956e-23)
(0.0278242 6.23821e-05 -2.43166e-23)
(0.0278287 5.02797e-05 2.59669e-24)
(0.027832 3.88289e-05 4.06127e-24)
(0.0278344 2.79954e-05 2.18225e-24)
(0.0278358 1.77473e-05 1.70487e-24)
(0.0278365 8.04932e-06 -7.78468e-24)
(0.0278366 -1.11954e-06 5.0043e-24)
(0.0278363 -9.79232e-06 7.31931e-25)
(0.0278354 -1.79984e-05 -1.59939e-24)
(0.0278341 -2.57688e-05 8.86243e-25)
(0.0278324 -3.31272e-05 5.84737e-25)
(0.0262886 0.000101348 9.65949e-24)
(0.0263018 8.9528e-05 -1.7152e-23)
(0.0263125 7.78339e-05 3.50183e-24)
(0.026321 6.64889e-05 -8.31282e-24)
(0.0263279 5.55947e-05 -1.07377e-23)
(0.0263334 4.51805e-05 3.64267e-23)
(0.0263377 3.52451e-05 -1.40616e-23)
(0.0263409 2.57711e-05 3.92096e-24)
(0.0263433 1.67414e-05 -2.14531e-24)
(0.0263449 8.13382e-06 -4.98313e-24)
(0.0263458 -7.40041e-08 9.06662e-24)
(0.0263461 -7.91431e-06 -4.46986e-24)
(0.0263458 -1.53993e-05 6.97324e-25)
(0.0263451 -2.25388e-05 2.37432e-25)
(0.0263438 -2.93376e-05 1.98647e-26)
(0.0244701 8.80675e-05 3.71875e-24)
(0.0244833 7.81651e-05 -1.92157e-23)
(0.0244942 6.82956e-05 3.33168e-23)
(0.0245032 5.86411e-05 -2.54123e-23)
(0.0245105 4.92854e-05 2.53398e-23)
(0.0245165 4.02613e-05 -8.42218e-24)
(0.0245212 3.15742e-05 -5.80083e-24)
(0.0245249 2.32222e-05 -6.27797e-24)
(0.0245276 1.51944e-05 1.0854e-23)
(0.0245295 7.48304e-06 -6.05606e-25)
(0.0245307 7.17714e-08 -1.00762e-23)
(0.0245313 -7.03733e-06 -1.08331e-24)
(0.0245311 -1.38489e-05 1.95708e-24)
(0.0245305 -2.03677e-05 -3.3403e-25)
(0.0245293 -2.65929e-05 4.9488e-26)
(0.0224694 7.57904e-05 4.94888e-25)
(0.0224827 6.74895e-05 -7.23149e-24)
(0.022494 5.91559e-05 -4.03773e-24)
(0.0225033 5.09335e-05 3.29978e-23)
(0.0225111 4.28953e-05 -3.24217e-23)
(0.0225175 3.50752e-05 9.46887e-24)
(0.0225226 2.74903e-05 1.59279e-24)
(0.0225267 2.01464e-05 -8.31419e-25)
(0.0225298 1.30476e-05 -3.8609e-24)
(0.0225321 6.19222e-06 1.65888e-23)
(0.0225335 -4.14214e-07 -1.31476e-23)
(0.0225343 -6.77407e-06 -5.19106e-25)
(0.0225343 -1.28838e-05 1.0628e-24)
(0.0225338 -1.87415e-05 6.98849e-25)
(0.0225326 -2.43428e-05 -5.1887e-25)
(0.0203901 6.43793e-05 7.36584e-25)
(0.0204036 5.74125e-05 6.72111e-24)
(0.0204152 5.03784e-05 -7.71245e-24)
(0.020425 4.33896e-05 -5.33387e-24)
(0.0204332 3.65081e-05 3.39203e-23)
(0.02044 2.97687e-05 -2.59418e-23)
(0.0204456 2.31947e-05 -5.96766e-25)
(0.0204502 1.67985e-05 -5.33273e-24)
(0.0204537 1.05916e-05 -4.06971e-25)
(0.0204562 4.57731e-06 7.79189e-25)
(0.020458 -1.23207e-06 -2.71813e-24)
(0.0204589 -6.8382e-06 2.3156e-24)
(0.0204591 -1.22349e-05 8.3375e-25)
(0.0204587 -1.74161e-05 7.09209e-25)
(0.0204575 -2.2374e-05 6.38985e-25)
(0.0183078 5.37707e-05 5.25004e-24)
(0.0183215 4.79264e-05 -8.05049e-24)
(0.0183334 4.20066e-05 -6.46111e-24)
(0.0183435 3.6097e-05 1.97057e-23)
(0.0183522 3.02466e-05 -7.05788e-24)
(0.0183595 2.44892e-05 -9.91464e-24)
(0.0183655 1.88498e-05 3.46959e-24)
(0.0183704 1.33446e-05 7.72139e-24)
(0.0183743 7.98669e-06 -1.22382e-23)
(0.0183771 2.78089e-06 1.20629e-23)
(0.0183791 -2.25868e-06 -6.37781e-24)
(0.0183802 -7.12993e-06 2.6801e-24)
(0.0183805 -1.18235e-05 -3.33357e-24)
(0.0183801 -1.63309e-05 3.20724e-24)
(0.0183789 -2.06431e-05 -7.24839e-25)
(0.0162754 4.39248e-05 -1.01901e-24)
(0.0162892 3.90478e-05 -3.53687e-24)
(0.0163013 3.41044e-05 -1.12704e-23)
(0.0163118 2.91543e-05 3.14649e-23)
(0.0163207 2.4234e-05 -5.64208e-24)
(0.0163283 1.93763e-05 -8.86401e-24)
(0.0163346 1.46034e-05 3.06271e-24)
(0.0163397 9.93597e-06 -4.44305e-24)
(0.0163437 5.37975e-06 -9.54717e-24)
(0.0163467 9.58041e-07 9.19833e-24)
(0.0163487 -3.34004e-06 4.39643e-25)
(0.0163498 -7.49745e-06 -2.84315e-24)
(0.01635 -1.14997e-05 3.24684e-24)
(0.0163495 -1.53386e-05 1.78715e-25)
(0.016348 -1.90052e-05 -2.29326e-25)
(0.0143282 3.49168e-05 3.92137e-24)
(0.0143418 3.08959e-05 5.76959e-24)
(0.0143538 2.6825e-05 -5.37859e-24)
(0.0143642 2.27394e-05 -1.17487e-23)
(0.0143732 1.86673e-05 1.58116e-23)
(0.0143807 1.46389e-05 -1.73033e-23)
(0.0143869 1.06752e-05 -6.67697e-25)
(0.014392 6.79342e-06 6.70281e-24)
(0.0143959 3.00184e-06 2.33064e-24)
(0.0143987 -6.81196e-07 -4.79252e-24)
(0.0144005 -4.26235e-06 3.16454e-26)
(0.0144013 -7.72125e-06 9.69045e-24)
(0.0144012 -1.10452e-05 -3.70022e-24)
(0.0144001 -1.42271e-05 -9.14866e-25)
(0.0143982 -1.72583e-05 -5.4582e-26)
(0.0124871 2.69067e-05 -4.07327e-24)
(0.0125002 2.3656e-05 5.24364e-24)
(0.0125117 2.03711e-05 5.90337e-25)
(0.0125217 1.70678e-05 1.06185e-23)
(0.0125301 1.3771e-05 -8.65498e-24)
(0.0125373 1.05071e-05 6.91182e-25)
(0.0125431 7.29493e-06 -9.28938e-25)
(0.0125477 4.14587e-06 -2.72243e-24)
(0.0125511 1.07556e-06 2.37311e-24)
(0.0125535 -1.9207e-06 -7.66023e-24)
(0.0125547 -4.81675e-06 5.45918e-25)
(0.012555 -7.60714e-06 1.82639e-24)
(0.0125542 -1.02843e-05 1.13023e-24)
(0.0125526 -1.2841e-05 4.36392e-25)
(0.01255 -1.52678e-05 1.51302e-25)
(0.0107633 2.00478e-05 3.01689e-24)
(0.0107754 1.74879e-05 -2.38663e-24)
(0.0107859 1.49058e-05 -1.04991e-23)
(0.010795 1.23045e-05 9.85812e-24)
(0.0108027 9.70829e-06 1.37817e-23)
(0.0108091 7.13877e-06 -3.49074e-24)
(0.0108141 4.61054e-06 -7.12629e-24)
(0.010818 2.13338e-06 -1.00015e-23)
(0.0108207 -2.80731e-07 7.54262e-24)
(0.0108223 -2.63385e-06 4.39642e-25)
(0.0108228 -4.90253e-06 -1.69073e-24)
(0.0108223 -7.08276e-06 -4.52699e-25)
(0.0108208 -9.16916e-06 9.31794e-25)
(0.0108184 -1.11548e-05 -3.58014e-26)
(0.010815 -1.30311e-05 -1.74575e-25)
(0.00916099 1.44116e-05 -1.89841e-24)
(0.00917169 1.24589e-05 -1.35381e-24)
(0.00918102 1.04919e-05 1.64717e-24)
(0.00918895 8.50753e-06 -5.23424e-24)
(0.00919556 6.52945e-06 1.71812e-23)
(0.0092009 4.57346e-06 -2.27979e-23)
(0.00920503 2.64993e-06 2.23797e-23)
(0.00920799 7.68952e-07 -9.48321e-24)
(0.00920982 -1.06744e-06 2.15847e-24)
(0.00921057 -2.8481e-06 2.93523e-26)
(0.00921029 -4.56244e-06 -1.68484e-24)
(0.00920902 -6.20609e-06 5.61092e-25)
(0.00920678 -7.77395e-06 -1.27576e-24)
(0.00920365 -9.25997e-06 -1.64794e-25)
(0.00919963 -1.06571e-05 8.20249e-26)
(0.00768038 9.96546e-06 -9.22205e-25)
(0.00768952 8.52968e-06 2.36058e-25)
(0.00769741 7.08529e-06 5.13879e-25)
(0.00770405 5.62741e-06 -2.3883e-24)
(0.00770946 4.17761e-06 -1.07999e-24)
(0.00771371 2.74534e-06 9.33823e-24)
(0.00771682 1.33825e-06 -5.49198e-24)
(0.00771885 -3.45724e-08 7.87647e-25)
(0.00771983 -1.37574e-06 -7.62444e-25)
(0.00771981 -2.67149e-06 -8.21873e-25)
(0.00771881 -3.91666e-06 -2.36623e-25)
(0.00771688 -5.10723e-06 1.55257e-24)
(0.00771407 -6.23893e-06 3.8068e-25)
(0.00771041 -7.30679e-06 -9.12811e-25)
(0.00770594 -8.30548e-06 -1.36818e-25)
(0.00631904 6.59291e-06 -3.35226e-25)
(0.00632656 5.58126e-06 -1.11105e-25)
(0.00633299 4.56627e-06 -5.40895e-24)
(0.0063383 3.54272e-06 1.42907e-24)
(0.00634254 2.52814e-06 -3.90019e-24)
(0.00634572 1.52641e-06 2.72327e-24)
(0.0063479 5.4381e-07 5.16804e-24)
(0.0063491 -4.13301e-07 3.87797e-24)
(0.00634935 -1.34734e-06 -5.43759e-24)
(0.0063487 -2.2482e-06 1.63926e-24)
(0.00634717 -3.1119e-06 1.39119e-24)
(0.00634482 -3.93531e-06 -1.98318e-24)
(0.00634166 -4.71533e-06 1.05632e-24)
(0.00633775 -5.44803e-06 -7.14217e-26)
(0.00633312 -6.12953e-06 2.56624e-25)
(0.00507286 4.13159e-06 -1.31226e-24)
(0.00507882 3.45478e-06 -1.79917e-24)
(0.00508386 2.78028e-06 -3.2842e-25)
(0.00508793 2.10183e-06 4.47674e-24)
(0.00509108 1.43177e-06 -3.17157e-24)
(0.00509334 7.69871e-07 -6.1772e-25)
(0.00509472 1.22503e-07 5.11155e-24)
(0.00509526 -5.07793e-07 1.39383e-26)
(0.00509498 -1.12255e-06 -1.03611e-24)
(0.00509391 -1.71444e-06 -3.78376e-24)
(0.00509209 -2.28066e-06 4.27187e-25)
(0.00508956 -2.81897e-06 2.58577e-24)
(0.00508634 -3.32733e-06 -3.32458e-25)
(0.00508247 -3.80274e-06 -3.43864e-25)
(0.005078 -4.24232e-06 2.25415e-25)
(0.00393659 2.40701e-06 -2.86625e-25)
(0.0039411 1.98367e-06 1.69042e-26)
(0.00394487 1.56816e-06 2.14589e-24)
(0.00394786 1.15214e-06 1.43776e-24)
(0.00395008 7.42684e-07 -9.89245e-25)
(0.00395157 3.37684e-07 -2.45057e-24)
(0.00395233 -5.71183e-08 9.92495e-25)
(0.0039524 -4.42811e-07 -4.16285e-24)
(0.00395181 -8.17061e-07 3.20593e-24)
(0.00395056 -1.17821e-06 1.64201e-24)
(0.00394869 -1.52286e-06 -1.47638e-26)
(0.00394623 -1.84968e-06 -1.78288e-24)
(0.00394321 -2.1574e-06 3.19141e-25)
(0.00393966 -2.44374e-06 -2.362e-25)
(0.00393562 -2.70646e-06 1.1595e-25)
(0.00290417 1.25442e-06 -5.27388e-25)
(0.0029074 1.01113e-06 1.07079e-26)
(0.00291006 7.80732e-07 1.71939e-24)
(0.0029121 5.52344e-07 -1.07491e-24)
(0.00291357 3.28925e-07 4.42601e-24)
(0.00291447 1.0941e-07 -8.06399e-24)
(0.0029148 -1.08786e-07 6.5216e-24)
(0.0029146 -3.15935e-07 -5.43832e-24)
(0.00291388 -5.22713e-07 3.93013e-24)
(0.00291265 -7.18482e-07 -2.51513e-24)
(0.00291095 -9.05454e-07 8.63754e-25)
(0.00290878 -1.08228e-06 1.24497e-25)
(0.00290619 -1.24796e-06 1.93639e-25)
(0.00290319 -1.40084e-06 -2.37514e-25)
(0.00289981 -1.53906e-06 4.7903e-26)
(0.00196905 5.35262e-07 7.99694e-25)
(0.00197115 4.07794e-07 8.64462e-25)
(0.00197286 2.978e-07 -3.69552e-24)
(0.00197413 1.91722e-07 2.70311e-24)
(0.00197499 8.98936e-08 -2.6397e-26)
(0.00197546 -6.0437e-09 6.96027e-25)
(0.00197553 -1.06954e-07 -8.49641e-25)
(0.00197523 -2.01256e-07 -1.77448e-24)
(0.00197455 -2.92069e-07 1.76276e-24)
(0.00197352 -3.77756e-07 1.82108e-25)
(0.00197215 -4.5858e-07 -1.39713e-24)
(0.00197046 -5.33726e-07 5.01506e-25)
(0.00196847 -6.03878e-07 2.93979e-25)
(0.00196619 -6.68204e-07 -3.51049e-26)
(0.00196365 -7.25155e-07 -3.22006e-26)
(0.0011244 1.57645e-07 -8.06421e-25)
(0.00112553 1.10956e-07 2.46604e-24)
(0.00112642 8.06464e-08 1.47093e-24)
(0.00112706 5.10904e-08 -2.64782e-24)
(0.00112747 2.19434e-08 -3.10267e-25)
(0.00112764 -5.50694e-09 -2.74917e-25)
(0.00112758 -3.71181e-08 8.38021e-25)
(0.00112731 -6.61899e-08 -1.41998e-24)
(0.00112681 -9.41896e-08 1.92818e-24)
(0.00112611 -1.21101e-07 -9.43786e-25)
(0.00112521 -1.45164e-07 -6.08633e-25)
(0.00112412 -1.64884e-07 3.65943e-25)
(0.00112285 -1.86333e-07 -4.25887e-25)
(0.00112141 -2.09743e-07 4.23706e-25)
(0.00111983 -2.33822e-07 -6.97583e-26)
(0.000363342 5.91132e-08 -5.75349e-27)
(0.000363614 1.13513e-07 4.78685e-25)
(0.000363819 1.58058e-07 5.47572e-25)
(0.000363948 1.87238e-07 -8.58187e-25)
(0.000364008 2.03047e-07 1.78281e-24)
(0.000363998 2.07544e-07 -1.93564e-24)
(0.000363915 2.02356e-07 1.26893e-25)
(0.000363765 1.89697e-07 1.0645e-24)
(0.000363546 1.7054e-07 -1.47123e-24)
(0.000363262 1.46237e-07 -2.63823e-25)
(0.000362913 1.19033e-07 1.00677e-24)
(0.000362504 9.07637e-08 -4.42896e-25)
(0.000362038 5.77671e-08 -1.60399e-25)
(0.000361519 2.03542e-08 1.33517e-25)
(0.000360951 -2.03804e-08 -5.76952e-27)
(0.000909159 -0.000239358 8.02796e-26)
(0.00104175 -0.000159569 2.04431e-24)
(0.00126506 -7.77384e-05 -5.86156e-24)
(0.00149361 -1.19083e-05 8.48779e-24)
(0.00171351 3.95645e-05 -3.1835e-24)
(0.00192954 7.74425e-05 -3.04061e-24)
(0.00214164 0.000104194 3.44698e-24)
(0.00235039 0.000121864 -6.78883e-24)
(0.00255651 0.000132173 4.44156e-25)
(0.00276058 0.000136605 4.2638e-24)
(0.00296317 0.000136437 -8.10865e-25)
(0.00316477 0.000132806 8.74482e-25)
(0.00336594 0.000126768 -8.57923e-26)
(0.00356729 0.000119365 5.41219e-25)
(0.00376964 0.00011168 -1.98599e-24)
(0.00397408 0.000104908 1.08627e-24)
(0.00418235 0.000100352 -3.34806e-25)
(0.00439686 9.94369e-05 2.62257e-26)
(0.00462147 0.000103297 7.76736e-25)
(0.00486096 0.000112486 -4.85322e-25)
(0.00512181 0.000125225 5.95346e-26)
(0.00540904 0.000136623 -5.20463e-26)
(0.00570068 0.000135518 9.9312e-26)
(0.00595975 0.000114577 3.8413e-25)
(0.00617337 7.45857e-05 -6.89397e-25)
(0.00634139 1.83675e-05 -4.63011e-25)
(0.00646539 -5.09997e-05 2.56912e-26)
(0.00654763 -0.00013088 1.12562e-24)
(0.00658986 -0.000218783 1.42752e-24)
(0.00659304 -0.000311849 -2.76611e-24)
(0.00655751 -0.000406389 1.88989e-24)
(0.00648337 -0.000497636 -1.34052e-24)
(0.00637086 -0.000579745 1.57947e-25)
(0.0062206 -0.000645921 -1.16616e-24)
(0.00603376 -0.000688582 1.12331e-24)
(0.00581194 -0.000699398 7.46253e-24)
(0.00555714 -0.000669071 -2.05142e-24)
(0.00527163 -0.000586619 1.92095e-24)
(0.00495812 -0.000437973 1.03211e-24)
(0.00462031 -0.00020437 -1.10293e-23)
(0.00426201 0.000136288 -1.34668e-25)
(0.00388829 0.000597871 4.65396e-24)
(0.00348798 0.00115075 1.4892e-24)
(0.00307903 0.00167349 -6.52892e-24)
(0.00284759 0.00179927 -3.24334e-25)
(0.00171189 -0.000319571 -2.35245e-24)
(0.0017674 -0.000274383 -3.29274e-24)
(0.00190552 -0.00019563 6.91712e-24)
(0.00207918 -0.000122692 3.19252e-24)
(0.00226403 -6.10132e-05 -1.11591e-23)
(0.00245534 -1.27149e-05 1.18696e-23)
(0.00264899 2.36076e-05 -4.24954e-24)
(0.00284316 4.98322e-05 3.35964e-24)
(0.00303722 6.77204e-05 -4.44278e-24)
(0.00323097 7.88634e-05 5.14512e-26)
(0.00342446 8.46465e-05 -2.34431e-24)
(0.00361789 8.6299e-05 4.64533e-24)
(0.00381156 8.4951e-05 -2.56483e-24)
(0.00400593 8.16974e-05 -2.29448e-24)
(0.00420166 7.7655e-05 -1.51399e-24)
(0.00439968 7.40284e-05 2.90836e-24)
(0.00460156 7.21079e-05 -3.42177e-25)
(0.00480945 7.32802e-05 1.50003e-24)
(0.00502689 7.86436e-05 2.32046e-25)
(0.00525824 8.87369e-05 -4.42385e-25)
(0.00550963 0.000101893 -1.83009e-25)
(0.00578581 0.000113563 -1.10247e-25)
(0.00606621 0.000113152 5.37597e-25)
(0.00631594 9.38247e-05 6.58806e-25)
(0.00652281 5.6422e-05 -5.92196e-25)
(0.0066865 3.64512e-06 -2.82832e-24)
(0.00680825 -6.15011e-05 3.76941e-24)
(0.00688998 -0.00013635 -2.56442e-24)
(0.00693316 -0.000218293 8.56493e-25)
(0.0069387 -0.000304334 -4.06987e-25)
(0.00690698 -0.000390674 2.65571e-24)
(0.00683832 -0.000472499 -2.56388e-24)
(0.00673329 -0.000543981 -1.68932e-25)
(0.00659298 -0.000598402 6.02357e-24)
(0.00641919 -0.000628285 -1.03618e-23)
(0.00621444 -0.000625421 2.82435e-24)
(0.00598204 -0.000580676 1.32902e-23)
(0.00572627 -0.000483389 -3.65345e-24)
(0.00545297 -0.000320203 -1.06761e-23)
(0.00517117 -7.35714e-05 -6.43214e-24)
(0.00489447 0.000277246 1.46684e-23)
(0.00464569 0.000746578 -1.4111e-23)
(0.00444878 0.00130495 -3.09262e-24)
(0.0043439 0.00181995 9.20825e-24)
(0.00437395 0.00188779 2.92309e-24)
(0.00266008 -0.000327828 -2.67327e-26)
(0.00266847 -0.000322844 -3.77071e-24)
(0.00272757 -0.000275798 7.32621e-24)
(0.002837 -0.000213144 6.12819e-24)
(0.00297285 -0.000151947 -1.00269e-23)
(0.00312638 -9.92007e-05 2.0829e-25)
(0.00329052 -5.6545e-05 9.59084e-25)
(0.00346097 -2.3517e-05 1.03447e-23)
(0.00363537 1.02396e-06 -1.2249e-23)
(0.00381238 1.84143e-05 7.50966e-24)
(0.00399127 2.99496e-05 2.25293e-24)
(0.00417172 3.68399e-05 -1.24544e-23)
(0.00435366 4.02248e-05 4.49582e-24)
(0.00453725 4.12135e-05 1.78469e-24)
(0.00472293 4.09324e-05 -3.69539e-24)
(0.00491142 4.05796e-05 5.96559e-24)
(0.00510405 4.1424e-05 -4.18394e-24)
(0.00530264 4.48061e-05 -7.22156e-26)
(0.00551043 5.17829e-05 3.24717e-25)
(0.00573128 6.28762e-05 3.42312e-25)
(0.00597089 7.65288e-05 4.45111e-26)
(0.0062337 8.85319e-05 1.94179e-25)
(0.00650062 8.88547e-05 -5.42792e-25)
(0.00673905 7.11767e-05 1.61792e-24)
(0.00693748 3.64083e-05 -2.55244e-24)
(0.00709544 -1.28575e-05 1.46786e-24)
(0.00721381 -7.36775e-05 -3.28482e-24)
(0.00729414 -0.000143352 4.40593e-24)
(0.00733765 -0.000219155 -3.70146e-24)
(0.00734515 -0.000297954 5.52903e-25)
(0.0073171 -0.000375846 7.68984e-25)
(0.00725406 -0.000447984 3.04403e-24)
(0.00715693 -0.000508588 -7.28402e-25)
(0.00702734 -0.000551072 3.13173e-24)
(0.00686777 -0.00056818 -9.22753e-24)
(0.00668171 -0.000552035 1.64097e-23)
(0.00647381 -0.000494034 -1.13581e-23)
(0.00625037 -0.000384481 1.70332e-23)
(0.0060202 -0.000211948 -3.2633e-23)
(0.00579669 3.74548e-05 1.24518e-23)
(0.00560033 0.000378282 4.33549e-24)
(0.00546284 0.000816606 6.77778e-24)
(0.0054191 0.00131624 -8.42003e-24)
(0.00549219 0.00174703 2.3656e-24)
(0.00565109 0.00179073 -1.42684e-24)
(0.00373653 -0.000311524 -9.96721e-25)
(0.00371857 -0.000331499 -1.51838e-24)
(0.00372851 -0.000313346 -6.48261e-24)
(0.00377622 -0.000273468 1.79411e-24)
(0.00385867 -0.00022299 1.19023e-24)
(0.00396597 -0.000173567 5.10869e-24)
(0.00409122 -0.000129819 -1.06517e-23)
(0.00422898 -9.33948e-05 4.07594e-24)
(0.00437559 -6.43792e-05 1.35e-23)
(0.00452861 -4.2124e-05 -3.59474e-24)
(0.00468646 -2.57074e-05 -3.35977e-24)
(0.00484815 -1.41181e-05 -5.33196e-25)
(0.00501316 -6.32151e-06 1.74169e-24)
(0.00518126 -1.26712e-06 -3.39798e-24)
(0.00535261 2.13278e-06 7.86861e-25)
(0.00552762 5.03626e-06 -2.73351e-25)
(0.00570734 8.66728e-06 -1.61189e-24)
(0.00589329 1.43028e-05 6.25545e-25)
(0.00608827 2.29457e-05 2.78847e-24)
(0.00629567 3.50915e-05 -3.27417e-25)
(0.00652066 4.92862e-05 -6.22133e-25)
(0.00676731 6.16596e-05 -1.70949e-25)
(0.00701809 6.27469e-05 -9.57151e-25)
(0.00724285 4.67551e-05 -5.62915e-26)
(0.00743081 1.4679e-05 -2.26592e-24)
(0.0075813 -3.09844e-05 3.9152e-24)
(0.00769484 -8.73478e-05 -3.28505e-24)
(0.00777259 -0.000151676 6.2391e-24)
(0.00781553 -0.000221133 -5.08508e-24)
(0.00782437 -0.000292463 1.28582e-24)
(0.00779967 -0.000361686 1.74059e-24)
(0.0077422 -0.000423963 -1.866e-25)
(0.00765329 -0.00047363 -3.00726e-25)
(0.00753507 -0.000504341 -1.08328e-24)
(0.00739072 -0.00050923 1.35256e-24)
(0.00722466 -0.00048102 -5.10665e-24)
(0.00704282 -0.000412059 2.41085e-23)
(0.00685315 -0.000294277 -1.27893e-23)
(0.00666659 -0.000119174 -4.37912e-25)
(0.00649886 0.000121891 -2.89738e-23)
(0.00637231 0.000435189 2.19591e-23)
(0.00631759 0.000816802 -7.95986e-24)
(0.00636494 0.00122934 1.97601e-24)
(0.00651988 0.00157186 9.87374e-24)
(0.00673592 0.00165169 -2.35473e-24)