/*--------------------------------*- C++ -*----------------------------------*\
| =========                 |                                                 |
| \\      /  F ield         | OpenFOAM: The Open Source CFD Toolbox           |
|  \\    /   O peration     | Version:  2312                                  |
|   \\  /    A nd           | Website:  www.openfoam.com                      |
|    \\/     M anipulation  |                                                 |
\*---------------------------------------------------------------------------*/
FoamFile
{
    version     2.0;
    format      ascii;
    arch        "LSB;label=32;scalar=64";
    class       volVectorField;
    location    "177.25";
    object      U;
}
// * * * * * * * * * * * * * * * * * * * * * * * * * * * * * * * * * * * * * //

dimensions      [0 1 -1 0 0 0 0];

internalField   nonuniform List<vector> 
4800
(
(0.000493259 3.71851e-07 -3.39468e-26)
(0.000483816 4.38591e-07 -2.39937e-25)
(0.000477524 4.77981e-07 3.07601e-25)
(0.000473454 4.89369e-07 1.4193e-25)
(0.000471049 4.70861e-07 2.10627e-24)
(0.00046997 4.44393e-07 -5.01785e-24)
(0.00047007 3.86599e-07 4.69478e-24)
(0.000471267 3.0786e-07 -6.82356e-24)
(0.00047354 1.5886e-07 2.18956e-24)
(0.000477077 -1.30478e-07 7.47686e-24)
(0.000482309 -6.93458e-07 -2.30454e-24)
(0.000490567 -2.17899e-06 -1.95489e-25)
(0.000509202 -7.57852e-06 -2.80853e-24)
(0.000556968 -2.95057e-05 1.28685e-24)
(0.000637173 -9.75632e-05 -1.01784e-24)
(0.00152215 1.93499e-06 -1.08016e-25)
(0.00149296 1.52582e-06 1.34662e-25)
(0.00147323 1.19137e-06 -1.25303e-24)
(0.00146017 8.76086e-07 9.34374e-25)
(0.00145209 5.42427e-07 3.02641e-24)
(0.00144795 1.88092e-07 -4.83994e-24)
(0.00144727 -2.58048e-07 -1.37879e-24)
(0.00144969 -8.36027e-07 -3.2855e-25)
(0.00145516 -1.68731e-06 1.1328e-23)
(0.00146427 -3.11105e-06 -8.38257e-24)
(0.00147816 -5.76272e-06 9.1302e-25)
(0.00149971 -1.19199e-05 1.38925e-24)
(0.00153792 -2.95171e-05 -2.04679e-24)
(0.00160417 -8.32745e-05 -5.99051e-25)
(0.00167653 -0.000206235 2.65343e-24)
(0.0026561 6.26764e-06 -7.73189e-26)
(0.00260548 4.93595e-06 7.89611e-26)
(0.00257083 3.87794e-06 8.19718e-25)
(0.00254748 2.91841e-06 -1.95886e-24)
(0.00253255 1.94442e-06 1.92856e-24)
(0.00252428 8.4842e-07 1.82703e-24)
(0.00252166 -5.13695e-07 -4.6744e-24)
(0.00252414 -2.27606e-06 -2.87841e-24)
(0.00253132 -4.79529e-06 6.9966e-24)
(0.00254414 -8.78901e-06 2.65092e-24)
(0.00256362 -1.57498e-05 -9.21508e-24)
(0.00259207 -2.97704e-05 -1.3872e-24)
(0.00263364 -6.07718e-05 3.9344e-24)
(0.00268719 -0.000129161 6.19463e-24)
(0.00272654 -0.000244539 -3.19621e-24)
(0.00390096 1.41021e-05 2.85681e-26)
(0.00382765 1.12405e-05 -1.99578e-25)
(0.00377685 8.97275e-06 8.94315e-25)
(0.00374199 6.92953e-06 9.65319e-25)
(0.00371901 4.87549e-06 -9.52351e-25)
(0.00370538 2.58679e-06 -5.55496e-24)
(0.00369942 -2.2288e-07 -3.76026e-24)
(0.00370055 -3.79796e-06 1.39292e-23)
(0.0037075 -8.70529e-06 5.83214e-24)
(0.00372131 -1.62957e-05 -8.45925e-24)
(0.00374217 -2.85353e-05 -3.41154e-24)
(0.00377049 -5.01069e-05 -2.59892e-24)
(0.00380541 -8.93658e-05 7.91544e-26)
(0.00383949 -0.000157042 1.92008e-24)
(0.00385338 -0.000249046 9.38856e-27)
(0.00526036 2.62267e-05 -5.23836e-26)
(0.00516413 2.11119e-05 -3.21946e-25)
(0.00509649 1.70583e-05 -2.06992e-25)
(0.00504922 1.3427e-05 5.52168e-25)
(0.00501713 9.8139e-06 -1.58433e-24)
(0.00499694 5.86641e-06 3.95619e-24)
(0.00498627 1.16586e-06 -6.9536e-25)
(0.00498417 -4.85194e-06 2.43937e-24)
(0.00498896 -1.26202e-05 -1.35166e-23)
(0.00500077 -2.41189e-05 2.58662e-23)
(0.00501886 -4.12675e-05 -2.5066e-23)
(0.00504174 -6.78773e-05 1.32259e-23)
(0.00506583 -0.000109043 -1.2279e-23)
(0.00508305 -0.000168191 1.15991e-23)
(0.00508221 -0.000238025 -4.63203e-24)
(0.00673401 4.35137e-05 6.91475e-26)
(0.00661641 3.53951e-05 2.48953e-25)
(0.00653239 2.89458e-05 -1.31686e-24)
(0.00647251 2.31964e-05 -8.42976e-25)
(0.00643072 1.75374e-05 2.24946e-24)
(0.00640302 1.14773e-05 8.11517e-25)
(0.00638646 4.41463e-06 -6.35965e-24)
(0.00637937 -4.21333e-06 1.51939e-23)
(0.00637997 -1.52936e-05 -1.97752e-23)
(0.00638718 -3.042e-05 4.73971e-24)
(0.0063993 -5.12665e-05 1.44398e-23)
(0.00641379 -8.0154e-05 -2.00745e-23)
(0.00642654 -0.000119079 1.00509e-23)
(0.00643141 -0.000167618 1.03571e-23)
(0.00642317 -0.000219556 -7.89092e-24)
(0.00831535 6.65739e-05 5.71689e-26)
(0.00818083 5.48166e-05 -3.39234e-25)
(0.00808275 4.54156e-05 1.22073e-24)
(0.00801138 3.70507e-05 -1.69867e-24)
(0.00796017 2.8897e-05 -5.80748e-24)
(0.00792467 2.0326e-05 9.90248e-24)
(0.00790149 1.06128e-05 -6.02984e-24)
(0.0078883 -9.01044e-07 2.05587e-23)
(0.00788297 -1.50484e-05 -1.39814e-23)
(0.00788364 -3.31487e-05 -6.54378e-24)
(0.00788799 -5.62551e-05 -1.29009e-23)
(0.00789317 -8.52441e-05 1.18542e-23)
(0.00789575 -0.000120106 3.34109e-24)
(0.00789193 -0.000159026 2.87861e-24)
(0.00787983 -0.000197748 -2.53424e-24)
(0.00998895 9.52597e-05 -8.2577e-26)
(0.00984593 7.95919e-05 1.12338e-24)
(0.00973895 6.68963e-05 -2.62299e-24)
(0.00965917 5.55639e-05 -2.16898e-24)
(0.00960033 4.45929e-05 7.98163e-25)
(0.00955786 3.32435e-05 1.59132e-24)
(0.0095282 2.07523e-05 5.75362e-24)
(0.0095086 6.42177e-06 -1.57079e-23)
(0.00949659 -1.04149e-05 -8.41402e-24)
(0.00948989 -3.06088e-05 2.31001e-23)
(0.00948602 -5.45901e-05 -7.19173e-24)
(0.0094824 -8.22548e-05 2.46089e-23)
(0.0094766 -0.000112686 -1.29648e-23)
(0.00946648 -0.000144007 -4.16002e-24)
(0.00945182 -0.000173591 2.46751e-24)
(0.0117293 0.000128031 -1.10115e-26)
(0.0115906 0.000108896 6.22155e-25)
(0.0114832 9.30202e-05 -8.86589e-25)
(0.0114007 7.86909e-05 2.13963e-24)
(0.0113381 6.48396e-05 -1.27974e-23)
(0.0112911 5.06851e-05 1.35233e-23)
(0.0112564 3.55077e-05 -2.14005e-23)
(0.0112313 1.8689e-05 1.31422e-23)
(0.0112131 -2.32679e-07 9.8026e-24)
(0.0111995 -2.16126e-05 2.13614e-23)
(0.0111883 -4.53972e-05 -2.79174e-23)
(0.0111774 -7.10093e-05 -5.2102e-24)
(0.0111652 -9.73601e-05 2.35615e-24)
(0.0111505 -0.000123015 1.72115e-23)
(0.0111338 -0.000146451 -7.01837e-24)
(0.0135044 0.000161417 6.17638e-26)
(0.0133854 0.000140294 -2.64046e-25)
(0.0132886 0.000122072 1.17499e-24)
(0.0132115 0.000105248 -4.13182e-24)
(0.0131509 8.88775e-05 6.27679e-24)
(0.0131037 7.22561e-05 -8.12961e-24)
(0.0130671 5.47975e-05 1.36404e-23)
(0.0130388 3.6059e-05 2.41699e-24)
(0.0130164 1.5822e-05 -1.88701e-23)
(0.0129978 -5.9117e-06 2.69639e-23)
(0.0129812 -2.87804e-05 -2.97764e-23)
(0.0129651 -5.21103e-05 -8.84472e-24)
(0.0129486 -7.4988e-05 1.5539e-23)
(0.012931 -9.64782e-05 4.64033e-24)
(0.012913 -0.000115746 -2.03176e-24)
(0.0152865 0.000190321 2.62547e-25)
(0.0151999 0.000169653 -2.08486e-24)
(0.0151246 0.000150701 -3.29998e-24)
(0.0150614 0.000132522 7.84011e-24)
(0.0150096 0.000114524 3.52061e-24)
(0.0149675 9.62279e-05 -2.21229e-23)
(0.0149334 7.72688e-05 6.79567e-24)
(0.0149054 5.74379e-05 4.90423e-24)
(0.0148819 3.67523e-05 -2.14042e-23)
(0.0148611 1.54307e-05 2.224e-23)
(0.014842 -6.06351e-06 -1.7975e-23)
(0.0148235 -2.71379e-05 4.61091e-23)
(0.0148051 -4.7143e-05 -2.22638e-23)
(0.0147864 -6.55372e-05 1.31516e-23)
(0.014768 -8.18921e-05 -3.59929e-24)
(0.0170697 0.000210182 -1.21031e-25)
(0.0170187 0.000192442 1.45581e-24)
(0.0169696 0.000174709 -2.77474e-24)
(0.0169255 0.000156705 -1.39515e-24)
(0.0168875 0.000138367 1.56273e-23)
(0.016855 0.000119559 -2.25246e-24)
(0.0168273 0.000100192 -2.78643e-23)
(0.0168033 8.02994e-05 3.2568e-23)
(0.016782 6.00806e-05 -7.2972e-24)
(0.0167623 3.98679e-05 -2.54535e-23)
(0.0167437 2.00878e-05 2.7234e-23)
(0.0167254 1.1954e-06 1.48187e-23)
(0.0167076 -1.63882e-05 -1.23394e-23)
(0.0166896 -3.23831e-05 -2.16e-23)
(0.0166723 -4.65891e-05 1.81911e-24)
(0.0188756 0.000220465 2.25776e-26)
(0.0188512 0.000206626 -1.68464e-24)
(0.0188242 0.000191409 7.69878e-24)
(0.0187978 0.000174846 4.22517e-25)
(0.0187736 0.000157363 4.29419e-24)
(0.0187517 0.000139193 -1.54332e-23)
(0.0187319 0.000120518 1.32003e-23)
(0.0187137 0.000101564 3.03645e-24)
(0.0186966 8.26376e-05 2.73073e-23)
(0.0186802 6.40882e-05 -4.20964e-23)
(0.0186642 4.62794e-05 -1.91527e-23)
(0.0186482 2.95221e-05 -1.27652e-23)
(0.0186326 1.40735e-05 2.39539e-23)
(0.0186168 6.18462e-08 -7.01552e-25)
(0.0186017 -1.24331e-05 2.33975e-24)
(0.0207294 0.000224203 -5.13858e-27)
(0.0207195 0.000214423 1.81922e-24)
(0.020705 0.000201802 -2.65257e-24)
(0.0206897 0.000187155 1.45682e-26)
(0.0206747 0.000171154 3.18568e-24)
(0.0206605 0.000154319 8.06866e-24)
(0.0206468 0.000137042 -3.13135e-23)
(0.0206335 0.000119664 2.62726e-24)
(0.0206204 0.00010252 1.59237e-23)
(0.0206074 8.59226e-05 -7.37855e-24)
(0.0205944 7.0154e-05 2.01318e-23)
(0.0205812 5.54185e-05 1.41896e-23)
(0.0205682 4.18649e-05 -2.57182e-23)
(0.020555 2.95415e-05 1.76988e-23)
(0.0205423 1.8469e-05 -1.47163e-23)
(0.0226251 0.000225734 -2.73433e-25)
(0.022621 0.00021917 -3.08877e-25)
(0.0226128 0.000209342 3.31623e-24)
(0.0226025 0.000196577 -1.57074e-23)
(0.022592 0.000182206 1.37202e-23)
(0.0225815 0.000166923 -9.70425e-24)
(0.0225711 0.000151276 6.98698e-24)
(0.0225606 0.000135654 -4.9155e-23)
(0.02255 0.000120369 7.09649e-23)
(0.0225391 0.000105676 -4.18489e-23)
(0.0225283 9.17805e-05 3.74033e-23)
(0.0225172 7.88109e-05 3.14236e-23)
(0.0225063 6.68513e-05 -5.49241e-23)
(0.0224951 5.59097e-05 1.79077e-23)
(0.0224844 4.59802e-05 -7.5425e-25)
(0.0245101 0.000226111 -9.74451e-27)
(0.0245081 0.000221881 -1.15506e-24)
(0.0245038 0.000215026 1.29209e-24)
(0.0244967 0.00020458 -4.46851e-25)
(0.0244887 0.000192218 5.85554e-24)
(0.0244804 0.000178771 -9.90829e-24)
(0.0244719 0.000164916 9.03549e-24)
(0.024463 0.000151083 -2.82699e-23)
(0.0244539 0.000137573 6.4132e-23)
(0.0244446 0.000124596 -8.19366e-23)
(0.0244352 0.000112308 6.70853e-23)
(0.0244256 0.000100797 -2.26555e-23)
(0.0244161 9.01136e-05 1.18502e-24)
(0.0244065 8.02495e-05 5.22825e-24)
(0.0243973 7.11911e-05 -1.00076e-23)
(0.0262976 0.000225339 -8.44806e-25)
(0.0262969 0.000223095 3.0255e-25)
(0.0262947 0.000218482 1.34446e-24)
(0.0262905 0.000211232 -3.12634e-24)
(0.0262846 0.000201125 1.07659e-23)
(0.0262782 0.000189815 -1.05137e-23)
(0.0262714 0.000177956 -8.68344e-24)
(0.0262643 0.000165985 -2.05147e-23)
(0.0262568 0.000154201 1.08597e-23)
(0.0262489 0.000142798 4.969e-23)
(0.026241 0.000131914 -2.61383e-23)
(0.0262328 0.000121623 1.5484e-23)
(0.0262248 0.000111965 -6.38496e-24)
(0.0262166 0.000102938 -1.88601e-23)
(0.0262086 9.45295e-05 9.64883e-24)
(0.0278688 0.000223823 2.89543e-25)
(0.0278697 0.00022311 -3.08138e-25)
(0.0278689 0.000220597 1.77872e-24)
(0.0278668 0.000215792 -7.14155e-24)
(0.0278631 0.000208271 -1.91902e-24)
(0.0278585 0.000199195 1.97497e-23)
(0.0278535 0.000189436 -1.46226e-23)
(0.027848 0.000179372 -8.25913e-24)
(0.0278422 0.000169288 7.80986e-24)
(0.027836 0.000159375 -8.50861e-24)
(0.0278296 0.000149772 1.99441e-23)
(0.027823 0.000140555 9.84365e-24)
(0.0278165 0.000131771 -3.68536e-23)
(0.0278098 0.000123426 2.53442e-23)
(0.0278032 0.000115521 -5.14396e-24)
(0.0290534 0.000218592 8.27687e-25)
(0.0290589 0.000223049 2.10753e-25)
(0.0290607 0.0002216 -9.50271e-25)
(0.0290605 0.000218536 3.26522e-24)
(0.0290593 0.000213585 -5.07326e-24)
(0.029057 0.000206776 -9.01378e-24)
(0.0290542 0.000199003 -8.81392e-24)
(0.0290509 0.0001907 2.45219e-23)
(0.0290472 0.000182161 2.19495e-23)
(0.029043 0.00017359 -5.24903e-23)
(0.0290386 0.000165126 2.93263e-23)
(0.0290339 0.00015685 -1.99038e-24)
(0.0290291 0.000148812 -1.57622e-24)
(0.0290241 0.000141031 2.09591e-24)
(0.0290192 0.000133521 -9.57655e-25)
(0.0296342 0.000209223 -1.99848e-24)
(0.0296423 0.000215736 -2.08338e-24)
(0.0296479 0.000217884 4.1872e-24)
(0.0296513 0.000216923 -1.09852e-24)
(0.0296532 0.00021371 1.06734e-24)
(0.0296541 0.000208959 4.11953e-24)
(0.0296544 0.000203154 -3.17647e-24)
(0.0296541 0.000196623 -2.0397e-23)
(0.0296532 0.000189631 4.52204e-23)
(0.0296518 0.000182376 -1.85309e-23)
(0.0296501 0.000175 6.87798e-24)
(0.029648 0.00016759 -1.2246e-23)
(0.0296457 0.000160211 -1.21452e-23)
(0.0296431 0.000152898 1.76592e-23)
(0.0296405 0.000145685 -7.51744e-24)
(0.0294224 0.000198328 2.90155e-24)
(0.0294308 0.000206444 -5.83817e-24)
(0.0294372 0.000210371 1.67621e-24)
(0.0294422 0.00021127 1.31765e-24)
(0.0294459 0.000210008 1.25503e-24)
(0.0294488 0.000207129 -3.09969e-24)
(0.0294511 0.00020302 -9.71764e-24)
(0.0294528 0.000197996 2.38113e-23)
(0.0294539 0.000192318 5.72459e-24)
(0.0294547 0.000186175 -1.41363e-23)
(0.029455 0.0001797 -7.24494e-24)
(0.0294551 0.000172989 8.22944e-24)
(0.0294548 0.000166116 -8.72577e-24)
(0.0294543 0.000159131 4.94298e-24)
(0.0294536 0.000152078 -2.13358e-24)
(0.028419 0.000186524 1.66943e-24)
(0.0284321 0.000194951 -3.21239e-24)
(0.0284435 0.000199679 -1.03179e-24)
(0.0284534 0.000201635 4.91041e-24)
(0.0284619 0.000201508 -2.28256e-24)
(0.0284692 0.000199783 9.98724e-25)
(0.0284757 0.00019682 -4.18508e-25)
(0.0284813 0.000192897 -1.29483e-24)
(0.0284862 0.000188227 -3.18636e-24)
(0.0284905 0.000182969 2.05287e-23)
(0.0284942 0.000177245 -1.26489e-23)
(0.0284974 0.000171151 1.34088e-24)
(0.0285001 0.000164761 -1.65446e-23)
(0.0285025 0.000158131 7.9959e-24)
(0.0285044 0.00015131 2.58872e-24)
(0.0268376 0.00017254 3.95059e-24)
(0.0268507 0.000180557 -6.6242e-24)
(0.0268628 0.000185369 1.46442e-24)
(0.0268739 0.0001877 -1.37695e-24)
(0.0268841 0.000188123 5.46442e-26)
(0.0268935 0.000187071 2.64162e-24)
(0.0269022 0.000184851 4.23998e-25)
(0.0269103 0.000181682 -9.28593e-25)
(0.0269177 0.000177733 8.79693e-25)
(0.0269246 0.000173138 5.471e-24)
(0.026931 0.000168009 -1.21537e-23)
(0.0269369 0.000162435 9.54936e-24)
(0.0269424 0.000156487 -7.847e-25)
(0.0269475 0.000150221 -2.97969e-24)
(0.0269522 0.000143682 4.75084e-25)
(0.0249231 0.000159468 1.47514e-24)
(0.024938 0.000166709 -6.90269e-24)
(0.0249523 0.000171211 1.07435e-23)
(0.0249659 0.000173558 -7.11816e-24)
(0.0249787 0.000174217 4.83214e-24)
(0.0249909 0.00017353 -2.25367e-24)
(0.0250025 0.000171737 -9.97999e-25)
(0.0250135 0.000169013 2.1224e-25)
(0.0250238 0.000165499 -3.04085e-24)
(0.0250337 0.000161314 -1.94695e-24)
(0.025043 0.00015656 5.5169e-24)
(0.0250519 0.000151316 1.88583e-24)
(0.0250602 0.000145651 -3.15067e-24)
(0.0250682 0.000139615 1.04168e-24)
(0.0250757 0.000133253 -3.04408e-25)
(0.022822 0.000145676 1.93265e-25)
(0.0228399 0.000151849 -2.56133e-24)
(0.0228574 0.00015574 -9.42978e-25)
(0.0228744 0.000157801 9.19144e-24)
(0.0228909 0.000158385 -7.9402e-24)
(0.0229067 0.000157749 2.04315e-24)
(0.0229219 0.000156086 2.03342e-25)
(0.0229365 0.000153544 -2.04009e-26)
(0.0229505 0.000150248 5.82411e-25)
(0.022964 0.0001463 -4.18488e-24)
(0.0229769 0.000141787 4.01641e-24)
(0.0229893 0.00013678 6.78865e-25)
(0.0230011 0.000131337 -7.98397e-25)
(0.0230125 0.000125508 -1.62926e-24)
(0.0230233 0.000119336 1.37897e-24)
(0.0206498 0.000130121 2.86297e-25)
(0.0206714 0.000135089 2.35913e-24)
(0.0206928 0.0001382 -2.74623e-24)
(0.0207138 0.000139782 -1.49818e-24)
(0.0207342 0.000140098 8.18862e-24)
(0.020754 0.000139346 -6.2766e-24)
(0.0207732 0.000137683 -3.122e-25)
(0.0207918 0.000135233 -5.1297e-25)
(0.0208097 0.000132097 1.98091e-25)
(0.020827 0.000128359 1.61998e-25)
(0.0208436 0.00012409 1.17891e-24)
(0.0208597 0.000119351 -2.50384e-25)
(0.020875 0.000114193 4.05136e-26)
(0.0208898 0.000108661 -2.19338e-25)
(0.020904 0.000102794 -1.09252e-24)
(0.0184903 0.000112865 2.04513e-24)
(0.0185156 0.00011665 -3.06209e-24)
(0.0185408 0.000118956 -2.03335e-24)
(0.0185655 0.000120021 6.09756e-24)
(0.0185896 0.000120037 -2.20536e-24)
(0.0186131 0.000119154 -2.23739e-24)
(0.0186359 0.000117492 8.78425e-25)
(0.0186581 0.00011515 9.08461e-25)
(0.0186794 0.000112206 -5.51673e-25)
(0.0187001 0.000108726 -2.94848e-25)
(0.01872 0.00010477 8.13795e-25)
(0.0187392 0.000100386 -7.80664e-25)
(0.0187576 9.56202e-05 2.18817e-24)
(0.0187752 9.05123e-05 -2.765e-24)
(0.018792 8.50987e-05 9.36838e-25)
(0.0163984 9.46405e-05 -3.99327e-25)
(0.0164266 9.73878e-05 -1.25978e-24)
(0.0164546 9.89894e-05 -3.63877e-24)
(0.0164821 9.96158e-05 1.00827e-23)
(0.016509 9.93989e-05 -2.05298e-24)
(0.0165352 9.84467e-05 -2.41863e-24)
(0.0165607 9.68493e-05 5.02181e-25)
(0.0165853 9.46804e-05 -7.88136e-25)
(0.0166092 9.20007e-05 -4.82513e-25)
(0.0166322 8.88626e-05 5.49115e-25)
(0.0166543 8.53126e-05 2.18587e-26)
(0.0166755 8.13927e-05 1.01398e-24)
(0.0166958 7.71416e-05 -1.10678e-24)
(0.0167152 7.25939e-05 -2.14622e-25)
(0.0167335 6.77824e-05 2.46035e-25)
(0.0144064 7.65346e-05 1.54828e-24)
(0.0144362 7.84522e-05 2.02556e-24)
(0.0144656 7.95109e-05 -2.11914e-24)
(0.0144945 7.98257e-05 -3.81975e-24)
(0.0145228 7.94792e-05 4.64505e-24)
(0.0145503 7.85476e-05 -4.52629e-24)
(0.014577 7.70968e-05 2.36229e-25)
(0.0146028 7.51817e-05 1.45606e-24)
(0.0146277 7.28479e-05 3.49406e-25)
(0.0146517 7.01361e-05 4.57047e-26)
(0.0146747 6.70835e-05 5.69476e-25)
(0.0146966 6.37245e-05 -1.90226e-24)
(0.0147175 6.00917e-05 8.01421e-25)
(0.0147373 5.62148e-05 4.58447e-25)
(0.0147559 5.21224e-05 5.16947e-26)
(0.0125315 5.96271e-05 -1.62068e-24)
(0.0125611 6.09285e-05 2.062e-24)
(0.0125904 6.16103e-05 1.78416e-25)
(0.0126191 6.17386e-05 3.34595e-24)
(0.0126472 6.13608e-05 -2.88978e-24)
(0.0126745 6.05314e-05 2.97626e-26)
(0.012701 5.92976e-05 -3.97449e-25)
(0.0127266 5.76991e-05 -6.34518e-25)
(0.0127512 5.57693e-05 1.52663e-25)
(0.0127748 5.35394e-05 -4.22232e-25)
(0.0127974 5.10384e-05 3.8605e-25)
(0.0128188 4.82941e-05 9.27838e-26)
(0.0128391 4.5333e-05 -1.39929e-25)
(0.0128582 4.21796e-05 -1.48067e-25)
(0.0128759 3.88583e-05 -1.31897e-25)
(0.0107811 4.47188e-05 1.209e-24)
(0.0108091 4.55878e-05 -9.73549e-25)
(0.0108368 4.603e-05 -3.72034e-24)
(0.010864 4.60684e-05 3.47898e-24)
(0.0108906 4.57304e-05 4.07113e-24)
(0.0109165 4.50554e-05 -1.39043e-24)
(0.0109415 4.40759e-05 -1.99655e-24)
(0.0109657 4.28193e-05 -1.88314e-24)
(0.0109889 4.13098e-05 1.23293e-24)
(0.0110111 3.95707e-05 -6.13873e-26)
(0.0110322 3.76239e-05 -2.80242e-26)
(0.0110521 3.54909e-05 1.38259e-25)
(0.0110709 3.31928e-05 -2.50647e-25)
(0.0110884 3.0749e-05 -5.0535e-26)
(0.0111046 2.81796e-05 1.44059e-25)
(0.00915774 3.22357e-05 -7.65609e-25)
(0.00918308 3.28135e-05 -4.71399e-25)
(0.00920816 3.31118e-05 6.69181e-25)
(0.00923281 3.31206e-05 -1.68149e-24)
(0.00925689 3.28593e-05 5.37724e-24)
(0.00928032 3.23556e-05 -6.43168e-24)
(0.00930302 3.16305e-05 5.59642e-24)
(0.00932489 3.07021e-05 -2.16925e-24)
(0.00934587 2.95876e-05 2.46313e-25)
(0.00936588 2.83036e-05 -1.82874e-25)
(0.00938486 2.68661e-05 -1.55519e-25)
(0.00940276 2.52914e-05 -2.26971e-25)
(0.00941949 2.35953e-05 2.38733e-25)
(0.00943503 2.17929e-05 1.00005e-25)
(0.00944931 1.98998e-05 -6.52602e-26)
(0.00766098 2.22644e-05 -3.73934e-25)
(0.00768292 2.26493e-05 1.1127e-25)
(0.00770469 2.28608e-05 2.02009e-25)
(0.00772612 2.28691e-05 -7.92607e-25)
(0.00774709 2.26924e-05 -2.53614e-25)
(0.00776752 2.23481e-05 2.66715e-24)
(0.00778731 2.18486e-05 -1.50091e-24)
(0.00780639 2.12059e-05 1.40482e-25)
(0.00782468 2.04313e-05 -1.52579e-25)
(0.0078421 1.95364e-05 -5.74854e-26)
(0.00785859 1.85324e-05 7.6191e-26)
(0.0078741 1.74309e-05 -1.66213e-25)
(0.00788856 1.62433e-05 -2.98633e-25)
(0.00790193 1.49811e-05 3.19716e-25)
(0.00791414 1.36556e-05 1.0619e-25)
(0.00628833 1.46459e-05 -1.36544e-25)
(0.00630654 1.49015e-05 -3.55352e-26)
(0.00632469 1.50557e-05 -1.95156e-24)
(0.0063426 1.50724e-05 6.32902e-25)
(0.00636017 1.49692e-05 -1.0758e-24)
(0.00637731 1.47552e-05 1.03162e-24)
(0.00639395 1.44373e-05 1.45725e-24)
(0.00641 1.40228e-05 7.79634e-25)
(0.00642539 1.35191e-05 -9.15755e-25)
(0.00644005 1.29335e-05 2.6889e-25)
(0.00645392 1.22736e-05 1.12353e-26)
(0.00646695 1.15473e-05 2.49581e-25)
(0.00647908 1.07625e-05 -1.49368e-25)
(0.00649027 9.92731e-06 1.22508e-25)
(0.00650047 9.04979e-06 -1.95744e-25)
(0.00503573 9.079e-06 -5.36513e-25)
(0.00505021 9.24447e-06 -6.6969e-25)
(0.00506471 9.35584e-06 -4.79075e-26)
(0.00507907 9.37931e-06 1.61122e-24)
(0.00509319 9.33038e-06 -1.01677e-24)
(0.00510701 9.21188e-06 -1.01111e-25)
(0.00512046 9.02752e-06 1.34824e-24)
(0.00513345 8.78157e-06 -9.93956e-26)
(0.00514593 8.47823e-06 -2.73931e-25)
(0.00515783 8.12223e-06 -3.44341e-25)
(0.00516911 7.71811e-06 2.38165e-25)
(0.0051797 7.27112e-06 -1.4389e-25)
(0.00518956 6.78617e-06 3.1496e-26)
(0.00519866 6.26909e-06 2.15239e-25)
(0.00520695 5.7252e-06 -1.69762e-25)
(0.00389783 5.20267e-06 -1.17544e-25)
(0.00390878 5.30274e-06 1.2581e-26)
(0.00391982 5.37912e-06 7.93876e-25)
(0.00393077 5.40422e-06 4.46107e-25)
(0.0039416 5.38914e-06 -4.03925e-25)
(0.00395223 5.33336e-06 -7.69298e-25)
(0.0039626 5.23872e-06 2.46939e-25)
(0.00397266 5.10748e-06 -8.78591e-25)
(0.00398234 4.94192e-06 6.47569e-25)
(0.0039916 4.74475e-06 1.22028e-25)
(0.00400038 4.51857e-06 -1.55521e-25)
(0.00400865 4.26657e-06 7.34254e-26)
(0.00401637 3.99161e-06 -7.82392e-26)
(0.0040235 3.69755e-06 1.31888e-25)
(0.00403001 3.38801e-06 -8.6475e-26)
(0.00286824 2.65337e-06 -2.16814e-25)
(0.00287599 2.70372e-06 1.50161e-26)
(0.00288386 2.75003e-06 6.45536e-25)
(0.00289171 2.77088e-06 -3.99409e-25)
(0.0028995 2.77219e-06 1.4002e-24)
(0.00290718 2.75229e-06 -2.44796e-24)
(0.0029147 2.71196e-06 1.7638e-24)
(0.00292203 2.65222e-06 -1.25545e-24)
(0.0029291 2.57415e-06 7.17199e-25)
(0.00293589 2.47914e-06 -3.01631e-25)
(0.00294236 2.36848e-06 7.83281e-26)
(0.00294846 2.24392e-06 -2.02346e-27)
(0.00295418 2.10692e-06 -7.11924e-26)
(0.00295948 1.95985e-06 1.06024e-25)
(0.00296434 1.80532e-06 -3.54501e-26)
(0.0019398 1.10644e-06 3.2942e-25)
(0.00194477 1.11979e-06 3.22596e-25)
(0.00194986 1.14061e-06 -1.40417e-24)
(0.00195495 1.15271e-06 9.84131e-25)
(0.00196004 1.15775e-06 -2.67681e-26)
(0.00196508 1.1543e-06 1.80066e-25)
(0.00197004 1.1425e-06 -2.63564e-25)
(0.00197489 1.12258e-06 -3.90222e-25)
(0.0019796 1.09489e-06 3.37765e-25)
(0.00198414 1.05991e-06 -2.03431e-26)
(0.00198848 1.01811e-06 -4.1247e-26)
(0.0019926 9.70254e-07 2.27965e-26)
(0.00199647 9.16866e-07 -5.9792e-26)
(0.00200008 8.59189e-07 1.05166e-27)
(0.00200341 7.99122e-07 2.36779e-26)
(0.00110497 3.10218e-07 -3.32753e-25)
(0.00110759 3.13646e-07 9.84738e-25)
(0.0011103 3.23996e-07 5.10375e-25)
(0.00111303 3.31374e-07 -9.9481e-25)
(0.00111577 3.36157e-07 -1.12719e-25)
(0.00111851 3.38074e-07 -8.57361e-26)
(0.00112123 3.37264e-07 2.16899e-25)
(0.0011239 3.33821e-07 -3.30469e-25)
(0.00112651 3.27814e-07 3.34649e-25)
(0.00112904 3.19376e-07 -1.68139e-25)
(0.00113147 3.08582e-07 -2.23475e-26)
(0.00113379 2.9563e-07 -1.46971e-26)
(0.00113599 2.80534e-07 1.39183e-25)
(0.00113805 2.63672e-07 -1.79378e-25)
(0.00113996 2.46136e-07 5.10048e-26)
(0.000356062 6.49074e-08 -2.37738e-27)
(0.000356752 1.09114e-07 1.88667e-25)
(0.000357489 1.42106e-07 1.94128e-25)
(0.000358245 1.63305e-07 -3.2401e-25)
(0.000359023 1.75167e-07 5.70885e-25)
(0.000359813 1.7959e-07 -6.24202e-25)
(0.000360608 1.7811e-07 3.19925e-26)
(0.0003614 1.71909e-07 2.19381e-25)
(0.000362184 1.61883e-07 -2.96995e-25)
(0.000362952 1.48725e-07 -3.80212e-27)
(0.000363699 1.32921e-07 4.12428e-26)
(0.000364418 1.14838e-07 -2.20352e-28)
(0.000365106 9.4644e-08 5.05916e-26)
(0.000365758 7.25027e-08 -5.00024e-26)
(0.00036637 4.88071e-08 4.19728e-27)
(0.000945465 -0.000262565 1.00557e-25)
(0.00107963 -0.000192264 2.66398e-24)
(0.00130427 -0.000119453 -7.7896e-24)
(0.00153267 -6.20939e-05 1.15832e-23)
(0.00175002 -1.80923e-05 -4.34924e-24)
(0.00196147 1.34738e-05 -4.35974e-24)
(0.00216724 3.54753e-05 5.0272e-24)
(0.0023683 5.04107e-05 -1.00773e-23)
(0.0025658 6.0253e-05 6.07554e-25)
(0.0027607 6.67275e-05 6.40487e-24)
(0.00295387 7.12694e-05 -1.22495e-24)
(0.00314606 7.51509e-05 1.32297e-24)
(0.00333799 7.95968e-05 -1.29399e-25)
(0.00353043 8.58565e-05 8.23271e-25)
(0.00372442 9.52836e-05 -3.0289e-24)
(0.00392136 0.000109273 1.66086e-24)
(0.00412363 0.000129157 -5.30696e-25)
(0.0043343 0.000156214 2.72176e-26)
(0.00455807 0.000190566 1.30396e-24)
(0.00480119 0.000230691 -8.26019e-25)
(0.00507199 0.000272372 1.08164e-25)
(0.00537577 0.000307053 -9.57628e-26)
(0.00568984 0.000316021 1.88393e-25)
(0.00597292 0.000289991 7.40555e-25)
(0.00621016 0.000232777 -1.33024e-24)
(0.00640077 0.000150105 -9.37621e-25)
(0.00654593 4.71698e-05 -3.36309e-27)
(0.00664739 -7.17678e-05 2.39794e-24)
(0.00670627 -0.000202848 3.56802e-24)
(0.00672283 -0.000341992 -7.04642e-24)
(0.00669678 -0.000484384 6.59047e-24)
(0.00662772 -0.000624236 -6.45508e-24)
(0.00651558 -0.000754797 1.87806e-24)
(0.00636087 -0.000868533 7.22521e-25)
(0.00616479 -0.000957313 -8.00256e-25)
(0.00592911 -0.00101248 3.23253e-24)
(0.005656 -0.00102465 1.97454e-25)
(0.00534787 -0.000983032 2.20476e-24)
(0.00500736 -0.00087397 1.62092e-24)
(0.00463798 -0.000678931 -9.13013e-24)
(0.00424383 -0.000374371 -1.21814e-25)
(0.00383146 6.04787e-05 4.61073e-24)
(0.00339403 0.000611766 1.81823e-24)
(0.00295467 0.0011899 -6.79104e-24)
(0.00270798 0.00147523 -3.64754e-25)
(0.00177205 -0.0003441 -3.00229e-24)
(0.00182632 -0.000307583 -4.39275e-24)
(0.00196148 -0.00023725 9.11939e-24)
(0.00213218 -0.000171809 4.46819e-24)
(0.00231232 -0.000116898 -1.56558e-23)
(0.00249722 -7.42953e-05 1.69759e-23)
(0.00268287 -4.2307e-05 -6.12169e-24)
(0.00286774 -1.85747e-05 5.01536e-24)
(0.00305152 -1.0693e-06 -6.62e-24)
(0.00323435 1.20848e-05 7.35179e-26)
(0.00341662 2.247e-05 -3.54351e-24)
(0.00359878 3.1489e-05 7.0204e-24)
(0.00378135 4.04511e-05 -3.8779e-24)
(0.00396501 5.06601e-05 -3.48207e-24)
(0.0041507 6.34918e-05 -2.33891e-24)
(0.00433973 8.03229e-05 4.42397e-24)
(0.00453439 0.000102454 -5.66249e-25)
(0.00473759 0.000131121 2.40053e-24)
(0.0049538 0.000166386 4.25937e-25)
(0.00518902 0.000206695 -7.36808e-25)
(0.00545141 0.000248056 -3.23545e-25)
(0.00574621 0.000282357 -2.06806e-25)
(0.00605215 0.000291563 1.01998e-24)
(0.0063296 0.000266964 1.28079e-24)
(0.00656391 0.000212356 -1.11912e-24)
(0.00675389 0.00013329 -5.65685e-24)
(0.00690019 3.48836e-05 7.71022e-24)
(0.0070041 -7.85643e-05 -5.50337e-24)
(0.00706645 -0.000203056 1.86134e-24)
(0.00708744 -0.000334351 -1.27291e-24)
(0.00706688 -0.00046752 9.81156e-24)
(0.00700461 -0.000596728 -1.37493e-23)
(0.00690093 -0.000715257 7.8797e-24)
(0.00675685 -0.000815656 -5.73455e-24)
(0.00657422 -0.000889908 3.19804e-24)
(0.00635572 -0.000929462 -4.02664e-25)
(0.00610481 -0.000925052 7.8439e-24)
(0.00582585 -0.000866098 -1.26936e-24)
(0.00552455 -0.000739526 -8.07652e-24)
(0.00520948 -0.00052799 -5.86456e-24)
(0.00489393 -0.000209643 1.34368e-23)
(0.00460102 0.000234926 -1.3821e-23)
(0.00435781 0.000790421 -3.89177e-24)
(0.00421054 0.00135335 9.49083e-24)
(0.00422044 0.00156867 3.52181e-24)
(0.00274289 -0.000350538 -3.5686e-26)
(0.0027489 -0.00035393 -5.09574e-24)
(0.00280222 -0.000314847 9.71567e-24)
(0.00290605 -0.000259409 8.59909e-24)
(0.00303498 -0.000204544 -1.39173e-23)
(0.00318015 -0.000157043 2.7171e-25)
(0.00333448 -0.000118385 1.39132e-24)
(0.00349386 -8.77383e-05 1.53891e-23)
(0.00365616 -6.35803e-05 -1.825e-23)
(0.00382036 -4.42896e-05 1.12957e-23)
(0.00398604 -2.83453e-05 3.4129e-24)
(0.00415316 -1.4333e-05 -1.87985e-23)
(0.00432191 -9.17663e-07 6.78629e-24)
(0.00449275 1.32191e-05 2.69838e-24)
(0.00466646 2.94547e-05 -5.62599e-24)
(0.00484421 4.91309e-05 9.16127e-24)
(0.00502815 7.35044e-05 -6.50711e-24)
(0.00522102 0.000103771 -1.74945e-25)
(0.00542701 0.000139927 4.80569e-25)
(0.00565187 0.000180374 5.57467e-25)
(0.00590354 0.000221353 6.27971e-26)
(0.00618717 0.000255211 3.53929e-25)
(0.00648298 0.000264584 -1.03578e-24)
(0.00675312 0.000241358 3.11001e-24)
(0.00698319 0.000189333 -4.98414e-24)
(0.00717152 0.000113898 2.88014e-24)
(0.00731819 2.00916e-05 -6.93391e-24)
(0.00742399 -8.77397e-05 9.35958e-24)
(0.00748948 -0.000205462 -8.98323e-24)
(0.00751479 -0.000328681 1.33118e-25)
(0.00749983 -0.000452352 -4.1138e-25)
(0.00744471 -0.000570603 1.60744e-23)
(0.00735015 -0.00067677 -5.36225e-24)
(0.00721769 -0.000763539 -2.80296e-24)
(0.00704992 -0.000823102 1.53633e-24)
(0.00685047 -0.000847213 4.72049e-24)
(0.00662418 -0.00082707 -4.95098e-24)
(0.00637739 -0.000752932 1.24862e-23)
(0.00611878 -0.00061344 -2.54131e-23)
(0.00586124 -0.000394718 1.00331e-23)
(0.00562472 -8.11745e-05 3.89329e-24)
(0.00544084 0.000337199 6.87786e-24)
(0.00534749 0.000835665 -8.58592e-24)
(0.00537556 0.00130697 2.81122e-24)
(0.00551591 0.00147219 -1.78368e-24)
(0.00384094 -0.000331215 -1.2964e-24)
(0.00381844 -0.000359409 -2.0309e-24)
(0.00382297 -0.000347426 -8.74916e-24)
(0.00386253 -0.000315066 2.19648e-24)
(0.00393621 -0.000270595 1.48821e-24)
(0.00403333 -0.0002261 7.24095e-24)
(0.00414695 -0.000186157 -1.56232e-23)
(0.00427184 -0.000152048 5.88245e-24)
(0.00440449 -0.000123473 2.01513e-23)
(0.00454271 -9.94919e-05 -5.35415e-24)
(0.00468523 -7.89332e-05 -5.05188e-24)
(0.00483139 -6.05626e-05 -8.03389e-25)
(0.00498094 -4.3126e-05 2.62569e-24)
(0.00513403 -2.53657e-05 -5.13002e-24)
(0.00529123 -5.95077e-06 1.17888e-24)
(0.00545351 1.63945e-05 -4.40178e-25)
(0.00562288 4.28561e-05 -2.57868e-24)
(0.00580183 7.45827e-05 8.95623e-25)
(0.00599429 0.000111492 4.61951e-24)
(0.00620572 0.00015192 -5.0145e-25)
(0.00644382 0.000192361 -1.09487e-24)
(0.00671358 0.000225632 -3.1896e-25)
(0.00699681 0.000235052 -1.83275e-24)
(0.00725758 0.000213127 -1.42628e-25)
(0.00748171 0.000163671 -4.5281e-24)
(0.007667 9.19211e-05 7.72707e-24)
(0.00781291 2.84183e-06 -6.97141e-24)
(0.00791975 -9.91786e-05 1.35474e-23)
(0.00798776 -0.00020988 -1.20152e-23)
(0.00801701 -0.000324725 2.5936e-24)
(0.00800754 -0.000438579 5.36829e-24)
(0.00795978 -0.000545577 -8.74935e-26)
(0.00787487 -0.000639172 -2.99689e-25)
(0.00775494 -0.00071229 5.09808e-26)
(0.0076033 -0.000757502 -1.01167e-24)
(0.00742457 -0.000767129 -2.1153e-24)
(0.00722487 -0.000733251 1.34293e-23)
(0.00701226 -0.000647619 -6.79926e-24)
(0.00679762 -0.00050158 3.43645e-25)
(0.00659634 -0.000286228 -2.52158e-23)
(0.00643038 5.71072e-06 1.94974e-23)
(0.00633048 0.00037332 -8.11448e-24)
(0.00632959 0.000787131 1.39192e-24)
(0.00644073 0.00116114 1.12838e-23)
(0.00663659 0.00132877 -3.0264e-24)
(0.00506088 -0.000301532 -5.38933e-24)
(0.00502759 -0.000339235 1.10856e-23)
(0.00500308 -0.00034661 3.23646e-24)
(0.00500208 -0.000334707 1.39561e-23)
(0.00502377 -0.00030866 -3.44414e-23)
(0.00507234 -0.000273864 -1.10519e-24)