/*--------------------------------*- C++ -*----------------------------------*\
| =========                 |                                                 |
| \\      /  F ield         | OpenFOAM: The Open Source CFD Toolbox           |
|  \\    /   O peration     | Version:  2312                                  |
|   \\  /    A nd           | Website:  www.openfoam.com                      |
|    \\/     M anipulation  |                                                 |
\*---------------------------------------------------------------------------*/
FoamFile
{
    version     2.0;
    format      ascii;
    arch        "LSB;label=32;scalar=64";
    class       surfaceScalarField;
    location    "45.25";
    object      phi;
}
// * * * * * * * * * * * * * * * * * * * * * * * * * * * * * * * * * * * * * //

dimensions      [0 3 -1 0 0 0 0];

oriented        oriented;

internalField   nonuniform List<scalar> 
9445
(
5.75789e-10
1.6684e-11
5.64984e-10
1.08049e-11
5.58046e-10
6.9386e-12
5.53787e-10
4.25847e-12
5.51484e-10
2.30338e-12
5.50725e-10
7.58599e-13
5.51339e-10
-6.13705e-13
5.53034e-10
-1.69481e-12
5.55977e-10
-2.94323e-12
5.60546e-10
-4.56906e-12
5.67771e-10
-7.22457e-12
5.81087e-10
-1.33167e-11
6.12543e-10
-3.14558e-11
7.0395e-10
-9.14064e-11
-2.35553e-10
9.39502e-10
2.00944e-09
7.29626e-11
1.97301e-09
4.72402e-11
1.94959e-09
3.03576e-11
1.93514e-09
1.87022e-11
1.92719e-09
1.02509e-11
1.92436e-09
3.59035e-12
1.92579e-09
-2.03777e-12
1.93067e-09
-6.57963e-12
1.93953e-09
-1.17973e-11
1.95336e-09
-1.84018e-11
1.97478e-09
-2.86474e-11
2.01032e-09
-4.8858e-11
2.07272e-09
-9.38506e-11
2.17374e-09
-1.92424e-10
-3.41162e-10
2.27934e-09
3.96586e-09
1.80316e-10
3.89637e-09
1.16733e-10
3.85165e-09
7.50778e-11
3.82393e-09
4.64181e-11
3.80843e-09
2.57497e-11
3.80244e-09
9.57782e-12
3.80404e-09
-3.63258e-12
3.81185e-09
-1.43929e-11
3.82649e-09
-2.64358e-11
3.84905e-09
-4.09633e-11
3.882e-09
-6.16001e-11
3.9297e-09
-9.65533e-11
3.99468e-09
-1.58828e-10
4.06379e-09
-2.61538e-10
-3.80175e-10
4.1028e-09
6.59002e-09
3.51779e-10
6.47886e-09
2.27897e-10
6.40711e-09
1.46826e-10
6.36231e-09
9.12168e-11
6.33673e-09
5.13282e-11
6.32585e-09
2.04628e-11
6.32634e-09
-4.12995e-12
6.33607e-09
-2.41238e-11
6.35511e-09
-4.54664e-11
6.38385e-09
-6.97109e-11
6.42297e-09
-1.00719e-10
6.47205e-09
-1.45635e-10
6.52488e-09
-2.11655e-10
6.56266e-09
-2.99322e-10
-3.82716e-10
6.5652e-09
1.00584e-08
6.01006e-10
9.89623e-09
3.90114e-10
9.79097e-09
2.52082e-10
9.72458e-09
1.57614e-10
9.6857e-09
9.02026e-11
9.66738e-09
3.87809e-11
9.6647e-09
-1.44564e-12
9.67449e-09
-3.39092e-11
9.69531e-09
-6.62885e-11
9.72619e-09
-1.00597e-10
9.76536e-09
-1.39886e-10
9.80831e-09
-1.88582e-10
9.84507e-09
-2.48412e-10
9.85995e-09
-3.14211e-10
-3.67312e-10
9.84455e-09
1.45813e-08
9.39933e-10
1.43591e-08
6.12325e-10
1.42137e-08
3.97448e-10
1.41208e-08
2.50522e-10
1.40649e-08
1.46144e-10
1.40359e-08
6.7737e-11
1.40271e-08
7.36968e-12
1.40341e-08
-4.08649e-11
1.40532e-08
-8.53969e-11
1.40815e-08
-1.28921e-10
1.41152e-08
-1.73624e-10
1.41478e-08
-2.21174e-10
1.41697e-08
-2.7027e-10
1.41708e-08
-3.15338e-10
-3.46047e-10
1.41495e-08
2.0401e-08
1.37415e-09
2.0113e-08
9.00406e-10
1.99223e-08
5.88122e-10
1.97985e-08
3.74345e-10
1.97217e-08
2.22935e-10
1.96786e-08
1.10779e-10
1.96603e-08
2.56607e-11
1.96606e-08
-4.11656e-11
1.96739e-08
-9.86398e-11
1.96953e-08
-1.50289e-10
1.97195e-08
-1.9786e-10
1.974e-08
-2.41665e-10
1.97496e-08
-2.79927e-10
1.97434e-08
-3.09131e-10
-3.25019e-10
1.97224e-08
2.77859e-08
1.89524e-09
2.74338e-08
1.25248e-09
2.7197e-08
8.24933e-10
2.70403e-08
5.31048e-10
2.69402e-08
3.23071e-10
2.68802e-08
1.70703e-10
2.68493e-08
5.65869e-11
2.68393e-08
-3.11243e-11
2.68428e-08
-1.02161e-10
2.68537e-08
-1.61151e-10
2.6866e-08
-2.10239e-10
2.68744e-08
-2.50008e-10
2.68743e-08
-2.79848e-10
2.68639e-08
-2.98752e-10
-3.06054e-10
2.6845e-08
3.70184e-08
2.47145e-09
3.66185e-08
1.65239e-09
3.63437e-08
1.09979e-09
3.61578e-08
7.16957e-10
3.60354e-08
4.45447e-10
3.59582e-08
2.47927e-10
3.59131e-08
1.01684e-10
3.58904e-08
-8.44348e-12
3.58817e-08
-9.3507e-11
3.58802e-08
-1.5965e-10
3.58803e-08
-2.10304e-10
3.58777e-08
-2.4742e-10
3.587e-08
-2.72161e-10
3.58569e-08
-2.85593e-10
-2.88977e-10
3.58398e-08
4.83878e-08
3.04315e-09
4.79757e-08
2.06445e-09
4.76844e-08
1.39113e-09
4.74822e-08
9.19071e-10
4.73453e-08
5.82425e-10
4.7255e-08
3.38183e-10
4.71978e-08
1.58869e-10
4.71633e-08
2.61224e-11
4.71428e-08
-7.30306e-11
4.71297e-08
-1.46561e-10
4.71192e-08
-1.99784e-10
4.71082e-08
-2.36417e-10
4.70953e-08
-2.59311e-10
4.70807e-08
-2.70984e-10
-2.73712e-10
4.70655e-08
6.22072e-08
3.5362e-09
6.18339e-08
2.43781e-09
6.15605e-08
1.66452e-09
6.13654e-08
1.11418e-09
6.12294e-08
7.1842e-10
6.11366e-08
4.30979e-10
6.10744e-08
2.21015e-10
6.10332e-08
6.73432e-11
6.10052e-08
-4.50103e-11
6.09846e-08
-1.26032e-10
6.09678e-08
-1.82965e-10
6.09526e-08
-2.21177e-10
6.09381e-08
-2.44812e-10
6.09244e-08
-2.57321e-10
-2.61517e-10
6.09122e-08
7.88851e-08
3.90032e-09
7.85941e-08
2.72881e-09
7.83729e-08
1.88573e-09
7.82106e-08
1.27649e-09
7.80947e-08
8.34352e-10
7.80135e-08
5.12199e-10
7.79572e-08
2.77304e-10
7.7918e-08
1.06527e-10
7.789e-08
-1.70422e-11
7.7869e-08
-1.04994e-10
7.78523e-08
-1.66254e-10
7.78385e-08
-2.07387e-10
7.78271e-08
-2.33412e-10
7.78181e-08
-2.48322e-10
-2.5521e-10
7.78118e-08
9.90268e-08
4.1452e-09
9.8824e-08
2.93163e-09
9.86657e-08
2.04396e-09
9.85475e-08
1.39478e-09
9.84617e-08
9.20093e-10
9.84008e-08
5.73155e-10
9.83579e-08
3.20122e-10
9.8328e-08
1.36497e-10
9.83067e-08
4.26873e-12
9.82914e-08
-8.97769e-11
9.82807e-08
-1.55494e-10
9.82735e-08
-2.00244e-10
9.82697e-08
-2.29568e-10
9.82691e-08
-2.47742e-10
-2.57989e-10
9.82719e-08
1.23437e-07
4.32099e-09
1.2329e-07
3.07866e-09
1.23174e-07
2.16012e-09
1.23086e-07
1.48267e-09
1.23022e-07
9.84727e-10
1.22975e-07
6.1955e-10
1.22943e-07
3.52912e-10
1.2292e-07
1.59005e-10
1.22905e-07
1.91718e-11
1.22896e-07
-8.08528e-11
1.22892e-07
-1.51576e-10
1.22893e-07
-2.00783e-10
1.22898e-07
-2.34309e-10
1.22906e-07
-2.56569e-10
-2.70849e-10
1.22919e-07
1.52903e-07
4.45307e-09
1.52786e-07
3.1964e-09
1.52687e-07
2.25852e-09
1.52608e-07
1.56135e-09
1.52547e-07
1.04579e-09
1.52501e-07
6.66024e-10
1.52467e-07
3.87216e-10
1.52442e-07
1.83379e-10
1.52426e-07
3.50519e-11
1.52418e-07
-7.2334e-11
1.52416e-07
-1.49593e-10
1.5242e-07
-2.04838e-10
1.5243e-07
-2.44056e-10
1.52445e-07
-2.71736e-10
-2.91193e-10
1.52465e-07
1.87892e-07
4.5186e-09
1.87814e-07
3.2742e-09
1.87736e-07
2.3363e-09
1.87665e-07
1.63219e-09
1.87604e-07
1.10692e-09
1.87553e-07
7.17251e-10
1.87512e-07
4.28286e-10
1.8748e-07
2.14669e-10
1.87458e-07
5.70112e-11
1.87446e-07
-5.95452e-11
1.87441e-07
-1.45097e-10
1.87444e-07
-2.08183e-10
1.87455e-07
-2.54858e-10
1.87473e-07
-2.8963e-10
-3.15779e-10
1.87498e-07
2.28423e-07
4.48436e-09
2.28412e-07
3.28547e-09
2.28376e-07
2.37237e-09
2.28329e-07
1.67934e-09
2.28279e-07
1.15636e-09
2.28233e-07
7.6329e-10
2.28193e-07
4.68664e-10
2.28159e-07
2.48503e-10
2.28134e-07
8.17057e-11
2.28119e-07
-4.46646e-11
2.28114e-07
-1.39497e-10
2.28117e-07
-2.11584e-10
2.28129e-07
-2.67011e-10
2.2815e-07
-3.10254e-10
-3.44549e-10
2.28179e-07
2.74004e-07
4.33626e-09
2.74074e-07
3.21555e-09
2.74094e-07
2.35236e-09
2.74085e-07
1.68877e-09
2.74059e-07
1.1817e-09
2.74028e-07
7.9479e-10
2.73997e-07
4.99951e-10
2.7397e-07
2.75329e-10
2.73948e-07
1.03885e-10
2.73936e-07
-3.31345e-11
2.73934e-07
-1.37526e-10
2.73942e-07
-2.19216e-10
2.73959e-07
-2.8436e-10
2.73986e-07
-3.37182e-10
-3.80765e-10
2.74022e-07
3.23258e-07
4.0687e-09
3.23417e-07
3.05694e-09
3.23501e-07
2.26758e-09
3.23538e-07
1.652e-09
3.23545e-07
1.17465e-09
3.23535e-07
8.05122e-10
3.23518e-07
5.16934e-10
3.23501e-07
2.92128e-10
3.23487e-07
1.17421e-10
3.23483e-07
-2.87849e-11
3.2349e-07
-1.43923e-10
3.23507e-07
-2.36327e-10
3.23535e-07
-3.12434e-10
3.23574e-07
-3.76237e-10
-4.30219e-10
3.23623e-07
3.73166e-07
3.66658e-09
3.73431e-07
2.79209e-09
3.73599e-07
2.09955e-09
3.737e-07
1.55113e-09
3.73757e-07
1.11777e-09
3.73786e-07
7.75345e-10
3.73799e-07
5.0471e-10
3.73802e-07
2.88406e-10
3.73809e-07
1.11016e-10
3.73816e-07
-3.62243e-11
3.73828e-07
-1.56177e-10
3.73848e-07
-2.5555e-10
3.73875e-07
-3.39828e-10
3.73912e-07
-4.1271e-10
-4.76743e-10
3.73958e-07
3.7111e-07
3.20414e-09
3.71433e-07
2.4693e-09
3.71654e-07
1.87785e-09
3.71805e-07
1.40096e-09
3.71905e-07
1.01717e-09
3.71973e-07
7.07353e-10
3.72022e-07
4.55681e-10
3.7206e-07
2.50858e-10
3.72086e-07
8.43084e-11
3.72115e-07
-6.5084e-11
3.72146e-07
-1.8657e-10
3.72181e-07
-2.91051e-10
3.72224e-07
-3.82337e-10
3.72274e-07
-4.62995e-10
-5.35021e-10
3.72332e-07
3.18729e-07
2.74964e-09
3.1905e-07
2.14848e-09
3.19272e-07
1.65588e-09
3.19421e-07
1.25193e-09
3.19518e-07
9.2059e-10
3.19578e-07
6.4757e-10
3.19612e-07
4.21028e-10
3.19633e-07
2.30349e-10
3.1965e-07
6.71579e-11
3.1966e-07
-7.50384e-11
3.19671e-07
-1.97681e-10
3.19685e-07
-3.04756e-10
3.19702e-07
-3.99923e-10
3.19725e-07
-4.85757e-10
-5.63925e-10
3.19754e-07
2.67243e-07
2.31501e-09
2.67567e-07
1.82482e-09
2.67807e-07
1.41622e-09
2.67982e-07
1.07633e-09
2.68111e-07
7.9247e-10
2.68205e-07
5.5343e-10
2.68275e-07
3.50833e-10
2.68328e-07
1.76706e-10
2.68367e-07
2.82667e-11
2.68399e-07
-1.06467e-10
2.68425e-07
-2.2348e-10
2.68448e-07
-3.28428e-10
2.68472e-07
-4.23283e-10
2.68496e-07
-5.09929e-10
-5.89698e-10
2.68522e-07
2.20611e-07
1.91281e-09
2.20919e-07
1.51651e-09
2.21154e-07
1.18143e-09
2.21332e-07
8.98022e-10
2.21467e-07
6.57264e-10
2.21569e-07
4.51538e-10
2.21646e-07
2.73784e-10
2.21704e-07
1.18962e-10
2.2175e-07
-1.75405e-11
2.21783e-07
-1.39984e-10
2.2181e-07
-2.50114e-10
2.21831e-07
-3.50057e-10
2.2185e-07
-4.41447e-10
2.21865e-07
-5.25651e-10
-6.03709e-10
2.21879e-07
1.79801e-07
1.54723e-09
1.80086e-07
1.23096e-09
1.80308e-07
9.59812e-10
1.80479e-07
7.27031e-10
1.8061e-07
5.2629e-10
1.8071e-07
3.51679e-10
1.80785e-07
1.98531e-10
1.80841e-07
6.26025e-11
1.80883e-07
-5.89376e-11
1.80912e-07
-1.69193e-10
1.80931e-07
-2.697e-10
1.80943e-07
-3.61855e-10
1.80949e-07
-4.46849e-10
1.80949e-07
-5.25656e-10
-5.99007e-10
1.80944e-07
1.44941e-07
1.2253e-09
1.45195e-07
9.76823e-10
1.45394e-07
7.60817e-10
1.45548e-07
5.72756e-10
1.45667e-07
4.08037e-10
1.45756e-07
2.62431e-10
1.45822e-07
1.32694e-10
1.45868e-07
1.5945e-11
1.45899e-07
-8.94794e-11
1.45916e-07
-1.86313e-10
1.45922e-07
-2.75373e-10
1.45918e-07
-3.57696e-10
1.45905e-07
-4.34086e-10
1.45884e-07
-5.05188e-10
-5.71481e-10
1.45857e-07
1.15673e-07
9.52365e-10
1.15889e-07
7.60331e-10
1.16059e-07
5.91157e-10
1.1619e-07
4.41723e-10
1.16289e-07
3.08911e-10
1.16362e-07
1.89803e-10
1.16412e-07
8.2115e-11
1.16444e-07
-1.5467e-11
1.16459e-07
-1.05031e-10
1.16461e-07
-1.87783e-10
1.1645e-07
-2.64493e-10
1.16428e-07
-3.35818e-10
1.16396e-07
-4.02265e-10
1.16355e-07
-4.64241e-10
-5.22042e-10
1.16306e-07
9.14158e-08
7.2864e-10
9.15934e-08
5.82778e-10
9.17319e-08
4.52583e-10
9.18376e-08
3.3601e-10
9.19156e-08
2.30928e-10
9.197e-08
1.35447e-10
9.2004e-08
4.80743e-11
9.20203e-08
-3.17829e-11
9.20212e-08
-1.05904e-10
9.20083e-08
-1.74838e-10
9.19829e-08
-2.39111e-10
9.19462e-08
-2.99125e-10
9.18991e-08
-3.55185e-10
9.18424e-08
-4.07534e-10
-4.56343e-10
9.17767e-08
7.15289e-08
5.49799e-10
7.16707e-08
4.41036e-10
7.17805e-08
3.42741e-10
7.18629e-08
2.53572e-10
7.19218e-08
1.72081e-10
7.19601e-08
9.71649e-11
7.19803e-08
2.78219e-11
7.19845e-08
-3.59881e-11
7.19744e-08
-9.57972e-11
7.19513e-08
-1.51751e-10
7.19164e-08
-2.04161e-10
7.18705e-08
-2.53261e-10
7.18146e-08
-2.99221e-10
7.17492e-08
-3.42176e-10
-3.82208e-10
7.16751e-08
5.53816e-08
4.0917e-10
5.54929e-08
3.29725e-10
5.55786e-08
2.57077e-10
5.56418e-08
1.90286e-10
5.56854e-08
1.28503e-10
5.57115e-08
7.10675e-11
5.57221e-08
1.72739e-11
5.57184e-08
-3.23551e-11
5.5702e-08
-7.93995e-11
5.56739e-08
-1.23618e-10
5.56349e-08
-1.65197e-10
5.55859e-08
-2.04261e-10
5.55276e-08
-2.40894e-10
5.54606e-08
-2.75158e-10
-3.07086e-10
5.53855e-08
4.23872e-08
2.99731e-10
4.24739e-08
2.43055e-10
4.25403e-08
1.90646e-10
4.25888e-08
1.4181e-10
4.26212e-08
9.61099e-11
4.2639e-08
5.32195e-11
4.26436e-08
1.26872e-11
4.26362e-08
-2.496e-11
4.26177e-08
-6.09052e-11
4.25889e-08
-9.48642e-11
4.25507e-08
-1.26897e-10
4.25035e-08
-1.57073e-10
4.2448e-08
-1.85423e-10
4.23848e-08
-2.11967e-10
-2.36708e-10
4.23144e-08
3.20181e-08
2.1519e-10
3.20852e-08
1.75871e-10
3.21368e-08
1.39125e-10
3.21741e-08
1.04419e-10
3.21987e-08
7.15929e-11
3.22114e-08
4.05077e-11
3.22131e-08
1.0964e-11
3.22049e-08
-1.67547e-11
3.21873e-08
-4.33448e-11
3.21611e-08
-6.86018e-11
3.21267e-08
-9.24844e-11
3.20846e-08
-1.15042e-10
3.20355e-08
-1.36278e-10
3.19797e-08
-1.56189e-10
-1.7476e-10
3.19178e-08
2.38117e-08
1.50372e-10
2.38636e-08
1.24008e-10
2.39036e-08
9.91212e-11
2.39327e-08
7.53005e-11
2.39517e-08
5.25558e-11
2.39614e-08
3.08301e-11
2.39623e-08
1.00571e-11
2.39551e-08
-9.54233e-12
2.39402e-08
-2.84998e-11
2.39182e-08
-4.66e-11
2.38895e-08
-6.37326e-11
2.38544e-08
-7.99604e-11
2.38134e-08
-9.52744e-11
2.37669e-08
-1.09657e-10
-1.23088e-10
2.37152e-08
1.73709e-08
1.01208e-10
1.74106e-08
8.42737e-11
1.74416e-08
6.81436e-11
1.74644e-08
5.25042e-11
1.74795e-08
3.74452e-11
1.74874e-08
2.29338e-11
1.74885e-08
8.97957e-12
1.74831e-08
-4.21463e-12
1.74718e-08
-1.71048e-11
1.74547e-08
-2.95096e-11
1.74322e-08
-4.12279e-11
1.74046e-08
-5.23635e-11
1.73722e-08
-6.29014e-11
1.73353e-08
-7.28184e-11
-8.20919e-11
1.72944e-08
1.23597e-08
6.45637e-11
1.23897e-08
5.42872e-11
1.24134e-08
4.44276e-11
1.24312e-08
3.47524e-11
1.24433e-08
2.53674e-11
1.24499e-08
1.62475e-11
1.24515e-08
7.40735e-12
1.24482e-08
-9.35688e-13
1.24403e-08
-9.14995e-12
1.24279e-08
-1.71721e-11
1.24114e-08
-2.47064e-11
1.2391e-08
-3.18915e-11
1.23668e-08
-3.87123e-11
1.23391e-08
-4.51458e-11
-5.11701e-11
1.23082e-08
8.49755e-09
3.80259e-11
8.51957e-09
3.22673e-11
8.53728e-09
2.67244e-11
8.5508e-09
2.12266e-11
8.56031e-09
1.58591e-11
8.56596e-09
1.06028e-11
8.5679e-09
5.46161e-12
8.56637e-09
5.93805e-13
8.5614e-09
-4.18297e-12
8.55317e-09
-8.93366e-12
8.54185e-09
-1.33893e-11
8.5276e-09
-1.76432e-11
8.51058e-09
-2.16951e-11
8.49096e-09
-2.55261e-11
-2.91167e-11
8.46891e-09
5.55209e-09
1.97029e-11
5.56751e-09
1.6847e-11
5.58012e-09
1.4115e-11
5.58997e-09
1.13809e-11
5.59713e-09
8.69516e-12
5.60169e-09
6.04555e-12
5.60372e-09
3.43161e-12
5.60339e-09
9.26115e-13
5.6007e-09
-1.49469e-12
5.59571e-09
-3.94633e-12
5.58859e-09
-6.26229e-12
5.57941e-09
-8.46691e-12
5.56829e-09
-1.05754e-11
5.55534e-09
-1.25734e-11
-1.44446e-11
5.54067e-09
3.33276e-09
8.07032e-12
3.34268e-09
6.92831e-12
3.35092e-09
5.86998e-12
3.3575e-09
4.80381e-12
3.36244e-09
3.74887e-12
3.36579e-09
2.69945e-12
3.36757e-09
1.65285e-12
3.36786e-09
6.36898e-13
3.36669e-09
-3.3018e-13
3.36407e-09
-1.32367e-12
3.36008e-09
-2.27157e-12
3.35479e-09
-3.17261e-12
3.34825e-09
-4.03743e-12
3.34053e-09
-4.85767e-12
-5.62105e-12
3.33171e-09
1.68434e-09
1.86097e-12
1.68969e-09
1.58307e-12
1.6942e-09
1.35863e-12
1.69787e-09
1.13065e-12
1.70072e-09
9.02297e-13
1.70275e-09
6.70028e-13
1.70397e-09
4.35441e-13
1.7044e-09
2.03996e-13
1.70408e-09
-1.17747e-14
1.70299e-09
-2.38235e-13
1.70118e-09
-4.54692e-13
1.69867e-09
-6.62603e-13
1.69549e-09
-8.61554e-13
1.69168e-09
-1.04954e-12
-1.21885e-12
1.68728e-09
4.81399e-10
4.82982e-10
4.84341e-10
4.85472e-10
4.86374e-10
4.87044e-10
4.87479e-10
4.87683e-10
4.87672e-10
4.87433e-10
4.86979e-10
4.86316e-10
4.85455e-10
4.84405e-10
4.83186e-10
1.12343e-09
-4.40348e-10
2.5642e-10
1.38782e-09
-3.50209e-10
8.58238e-11
1.65511e-09
-1.90016e-10
-7.72743e-11
1.91969e-09
-1.76882e-11
-2.46893e-10
2.18019e-09
1.63772e-10
-4.24276e-10
2.43783e-09
3.48965e-10
-6.06601e-10
2.6944e-09
5.3763e-10
-7.94207e-10
2.95136e-09
7.29742e-10
-9.86696e-10
3.2098e-09
9.24737e-10
-1.18318e-09
3.4706e-09
1.12153e-09
-1.38232e-09
3.73445e-09
1.31865e-09
-1.5825e-09
4.00205e-09
1.51425e-09
-1.78185e-09
4.27425e-09
1.70583e-09
-1.97802e-09
4.55211e-09
1.88992e-09
-2.16779e-09
4.83707e-09
2.06144e-09
-2.34639e-09
5.13097e-09
2.21307e-09
-2.50698e-09
5.43633e-09
2.33471e-09
-2.64007e-09
5.75654e-09
2.41278e-09
-2.73299e-09
6.09603e-09
2.42821e-09
-2.76769e-09
6.46001e-09
2.34871e-09
-2.7127e-09
6.85261e-09
2.1112e-09
-2.5038e-09
7.27222e-09
1.59132e-09
-2.01093e-09
7.64456e-09
5.41465e-10
-9.13799e-10
7.9405e-09
-5.74742e-10
2.788e-10
8.16159e-09
-1.57658e-09
1.35548e-09
8.3123e-09
-2.41685e-09
2.26614e-09
8.3989e-09
-3.08215e-09
2.99556e-09
8.42858e-09
-3.58421e-09
3.55453e-09
8.4078e-09
-3.93326e-09
3.95404e-09
8.34158e-09
-4.13622e-09
4.20245e-09
8.23397e-09
-4.2019e-09
4.3095e-09
8.08857e-09
-4.13795e-09
4.28336e-09
7.90866e-09
-3.95063e-09
4.13053e-09
7.69739e-09
-3.64588e-09
3.85715e-09
7.45766e-09
-3.23014e-09
3.46988e-09
7.19196e-09
-2.7103e-09
2.976e-09
6.90228e-09
-2.09291e-09
2.38258e-09
6.59016e-09
-1.38233e-09
1.69445e-09
6.25702e-09
-5.78359e-10
9.11494e-10
5.90133e-09
3.24453e-10
3.12413e-11
5.51929e-09
1.33241e-09
-9.50379e-10
5.09079e-09
2.41808e-09
-1.98958e-09
4.58213e-09
3.45321e-09
-2.94456e-09
3.99359e-09
4.11589e-09
-3.52735e-09
3.59718e-09
3.63301e-09
-3.2366e-09
2.35082e-09
-5.11828e-10
2.50866e-09
-5.08048e-10
2.72431e-09
-4.05663e-10
2.96659e-09
-2.59965e-10
3.22257e-09
-9.22115e-11
3.48597e-09
8.55622e-11
3.7546e-09
2.69002e-10
4.0278e-09
4.5654e-10
4.30556e-09
6.46979e-10
4.58812e-09
8.3897e-10
4.87585e-09
1.03092e-09
5.16924e-09
1.22085e-09
5.46904e-09
1.40603e-09
5.77627e-09
1.58269e-09
6.09232e-09
1.74539e-09
6.41903e-09
1.88636e-09
6.75884e-09
1.99489e-09
7.11507e-09
2.05655e-09
7.49196e-09
2.05132e-09
7.89447e-09
1.9462e-09
8.3263e-09
1.67938e-09
8.78511e-09
1.13251e-09
9.19043e-09
1.36142e-10
9.51179e-09
-8.96101e-10
9.75163e-09
-1.81641e-09
9.91496e-09
-2.58018e-09
1.00086e-08
-3.17575e-09
1.00403e-08
-3.61598e-09
1.00175e-08
-3.91047e-09
9.94592e-09
-4.06461e-09
9.83024e-09
-4.08622e-09
9.67484e-09
-3.98256e-09
9.48394e-09
-3.75973e-09
9.26179e-09
-3.42372e-09
9.01268e-09
-2.98103e-09
8.74101e-09
-2.43864e-09
8.45145e-09
-1.80334e-09
8.14952e-09
-1.0804e-09
7.84295e-09
-2.71784e-10
7.54276e-09
6.24635e-10
7.26642e-09
1.60876e-09
7.03412e-09
2.65038e-09
6.87272e-09
3.61461e-09
6.80718e-09
4.18143e-09
3.69603e-09
6.70833e-09
4.11421e-09
-5.23236e-10
4.18359e-09
-5.77429e-10
4.32282e-09
-5.44891e-10
4.51432e-09
-4.51468e-10
4.73984e-09
-3.17732e-10
4.98798e-09
-1.62576e-10
5.25217e-09
4.81617e-12
5.52873e-09
1.79977e-10
5.8157e-09
3.60015e-10
6.11209e-09
5.42575e-10
6.4175e-09
7.25507e-10
6.73194e-09
9.06419e-10
7.0558e-09
1.08217e-09
7.3899e-09
1.24859e-09
7.73547e-09
1.39982e-09
8.0942e-09
1.52763e-09
8.46837e-09
1.62073e-09
8.86102e-09
1.6639e-09
9.27605e-09
1.63629e-09
9.71787e-09
1.50438e-09
1.01895e-08
1.20778e-09
1.06874e-08
6.34533e-10
1.11251e-08
-3.01519e-10
1.14709e-08
-1.24186e-09
1.17283e-08
-2.07381e-09
1.1903e-08
-2.75487e-09
1.20022e-08
-3.27498e-09
1.20347e-08
-3.64848e-09
1.20087e-08
-3.88445e-09
1.19307e-08
-3.98666e-09
1.18064e-08
-3.96191e-09
1.1641e-08
-3.81718e-09
1.14399e-08
-3.55861e-09
1.12086e-08
-3.19246e-09
1.09533e-08
-2.72568e-09
1.06806e-08
-2.16592e-09
1.03983e-08
-1.5211e-09
1.01167e-08
-7.98729e-10
9.85021e-09
-5.33129e-12
9.62152e-09
8.53322e-10
9.46523e-09
1.76505e-09
9.42552e-09
2.69008e-09
9.53563e-09
3.50451e-09
9.75625e-09
3.96081e-09
3.61149e-09
9.8408e-09
6.54199e-09
-5.00022e-10
6.55079e-09
-5.8623e-10
6.61338e-09
-6.07477e-10
6.73599e-09
-5.74083e-10
6.90779e-09
-4.89531e-10
7.1172e-09
-3.71983e-10
7.35575e-09
-2.33741e-10
7.61739e-09
-8.16545e-11
7.89807e-09
7.93348e-11
8.19529e-09
2.45348e-10
8.50754e-09
4.1326e-10
8.83401e-09
5.7995e-10
9.17455e-09
7.4163e-10
9.52958e-09
8.93558e-10
9.89999e-09
1.02941e-09
1.02872e-08
1.14045e-09
1.0693e-08
1.21485e-09
1.11202e-08
1.23669e-09
1.1572e-08
1.1845e-09
1.2052e-08
1.02441e-09
1.2562e-08
6.97795e-10
1.30971e-08
9.94334e-11
1.35646e-08
-7.69005e-10
1.39321e-08
-1.60934e-09
1.42044e-08
-2.34613e-09
1.43879e-08
-2.93835e-09
1.44902e-08
-3.37735e-09
1.45211e-08
-3.6794e-09
1.44899e-08
-3.85325e-09
1.44042e-08
-3.90092e-09
1.42704e-08
-3.82814e-09
1.4095e-08
-3.64175e-09
1.38846e-08
-3.34817e-09
1.36463e-08
-2.95423e-09
1.33884e-08
-2.46774e-09
1.312e-08
-1.89756e-09
1.28525e-08
-1.25357e-09
1.26003e-08
-5.46558e-10
1.23837e-08
2.11299e-10
1.22321e-08
1.0049e-09
1.21867e-08
1.81048e-09
1.22936e-08
2.58318e-09
1.25732e-08
3.22496e-09
1.29642e-08
3.56973e-09
3.3834e-09
1.31923e-08
9.80578e-09
-4.61248e-10
9.77695e-09
-5.57403e-10
9.78106e-09
-6.11589e-10
9.8326e-09
-6.25623e-10
9.93701e-09
-5.93942e-10
1.00881e-08
-5.23051e-10
1.02793e-08
-4.25005e-10
1.05047e-08
-3.06983e-10
1.07592e-08
-1.75151e-10
1.10392e-08
-3.47149e-11
1.13423e-08
1.10182e-10
1.16667e-08
2.55519e-10
1.20117e-08
3.96658e-10
1.23771e-08
5.28171e-10
1.27633e-08
6.43186e-10
1.31713e-08
7.32428e-10
1.36026e-08
7.83608e-10
1.4059e-08
7.80226e-10
1.45431e-08
7.00455e-10
1.50571e-08
5.104e-10
1.56013e-08
1.53568e-10
1.61688e-08
-4.68017e-10
1.66612e-08
-1.26139e-09
1.70456e-08
-1.99376e-09
1.73283e-08
-2.62889e-09
1.75164e-08
-3.12645e-09
1.7618e-08
-3.47894e-09
1.76439e-08
-3.70525e-09
1.76047e-08
-3.81405e-09
1.75091e-08
-3.8053e-09
1.73646e-08
-3.68367e-09
1.71789e-08
-3.45603e-09
1.696e-08
-3.12933e-09
1.67171e-08
-2.71129e-09
1.64603e-08
-2.21093e-09
1.62015e-08
-1.63877e-09
1.59551e-08
-1.00713e-09
1.57389e-08
-3.30402e-10
1.55762e-08
3.74041e-10
1.54972e-08
1.08385e-09
1.5539e-08
1.76866e-09
1.57366e-08
2.3856e-09
1.60949e-08
2.86669e-09
1.65458e-08
3.11885e-09
3.04147e-09
1.68877e-08
1.4108e-08
-4.19688e-10
1.40607e-08
-5.10112e-10
1.40294e-08
-5.80299e-10
1.40262e-08
-6.22395e-10
1.40652e-08
-6.32945e-10
1.41497e-08
-6.07605e-10
1.42787e-08
-5.53984e-10
1.4449e-08
-4.77248e-10
1.4657e-08
-3.83147e-10
1.48995e-08
-2.77229e-10
1.51737e-08
-1.64059e-10
1.54776e-08
-4.83731e-11
1.58099e-08
6.4344e-11
1.61701e-08
1.67989e-10
1.65581e-08
2.55157e-10
1.69745e-08
3.1608e-10
1.742e-08
3.38124e-10
1.78958e-08
3.04397e-10
1.84032e-08
1.93048e-10
1.8943e-08
-2.93934e-11
1.95134e-08
-4.16798e-10
2.01046e-08
-1.05923e-09
2.06136e-08
-1.77045e-09
2.10075e-08
-2.38762e-09
2.12939e-08
-2.91527e-09
2.14804e-08
-3.31294e-09
2.15755e-08
-3.57403e-09
2.15913e-08
-3.72104e-09
2.15401e-08
-3.76285e-09
2.14317e-08
-3.6969e-09
2.12747e-08
-3.52669e-09
2.10781e-08
-3.25941e-09
2.08515e-08
-2.90281e-09
2.0606e-08
-2.46572e-09
2.03537e-08
-1.95862e-09
2.01088e-08
-1.39389e-09
1.98878e-08
-7.86196e-10
1.97105e-08
-1.53053e-10
1.95995e-08
4.85031e-10
1.95811e-08
1.10225e-09
1.96816e-08
1.66811e-09
1.992e-08
2.14729e-09
2.02884e-08
2.4982e-09
2.07295e-08
2.67779e-09
2.65227e-09
2.11187e-08
1.96852e-08
-3.82496e-10
1.96363e-08
-4.61167e-10
1.95886e-08
-5.3267e-10
1.95548e-08
-5.88584e-10
1.95459e-08
-6.24027e-10
1.95723e-08
-6.34009e-10
1.96382e-08
-6.19921e-10
1.97453e-08
-5.84257e-10
1.98933e-08
-5.31201e-10
2.00815e-08
-4.65402e-10
2.03082e-08
-3.90745e-10
2.0572e-08
-3.12163e-10
2.0872e-08
-2.357e-10
2.12078e-08
-1.67853e-10
2.15794e-08
-1.16352e-10
2.19867e-08
-9.12895e-11
2.24303e-08
-1.05411e-10
2.29104e-08
-1.75719e-10
2.3427e-08
-3.23627e-10
2.39793e-08
-5.81608e-10
2.45627e-08
-1.00026e-09
2.51643e-08
-1.66083e-09
2.56778e-08
-2.28397e-09
2.60704e-08
-2.78014e-09
2.63508e-08
-3.19574e-09
2.65271e-08
-3.48922e-09
2.66079e-08
-3.65481e-09
2.6607e-08
-3.72015e-09
2.65386e-08
-3.69449e-09
2.64136e-08
-3.57189e-09
2.62417e-08
-3.35471e-09
2.6033e-08
-3.05078e-09
2.57991e-08
-2.66887e-09
2.55524e-08
-2.21905e-09
2.53071e-08
-1.71329e-09
2.50788e-08
-1.1656e-09
2.4885e-08
-5.92416e-10
2.47448e-08
-1.284e-11
2.4678e-08
5.51833e-10
2.47036e-08
1.07669e-09
2.48358e-08
1.53592e-09
2.50788e-08
1.90426e-09
2.54176e-08
2.15937e-09
2.58092e-08
2.28617e-09
2.28061e-09
2.61809e-08
2.68144e-08
-3.51961e-10
2.67722e-08
-4.18901e-10
2.67245e-08
-4.85001e-10
2.66801e-08
-5.44148e-10
2.66475e-08
-5.91498e-10
2.66367e-08
-6.23183e-10
2.66546e-08
-6.37863e-10
2.67062e-08
-6.35828e-10
2.67952e-08
-6.20189e-10
2.69239e-08
-5.94063e-10
2.70928e-08
-5.59711e-10
2.73026e-08
-5.21969e-10
2.7554e-08
-4.87013e-10
2.78473e-08
-4.61215e-10
2.81832e-08
-4.52236e-10
2.85621e-08
-4.70161e-10
2.89841e-08
-5.27467e-10
2.94493e-08
-6.40856e-10
2.99563e-08
-8.30698e-10
3.05025e-08
-1.12776e-09
3.10808e-08
-1.57854e-09
3.16742e-08
-2.25428e-09
3.21757e-08
-2.78541e-09
3.25527e-08
-3.15714e-09
3.2815e-08
-3.45804e-09
3.297e-08
-3.64426e-09
3.30267e-08
-3.71148e-09
3.30011e-08
-3.69461e-09
3.29095e-08
-3.60289e-09
3.27635e-08
-3.42581e-09
3.25735e-08
-3.16473e-09
3.23513e-08
-2.82857e-09
3.21097e-08
-2.42726e-09
3.18627e-08
-1.97205e-09
3.16255e-08
-1.47608e-09
3.14143e-08
-9.54444e-10
3.12461e-08
-4.24176e-10
3.11372e-08
9.60013e-11
3.1103e-08
5.86025e-10
3.11544e-08
1.02536e-09
3.12954e-08
1.39487e-09
3.15207e-08
1.679e-09
3.18121e-08
1.86791e-09
3.21383e-08
1.95995e-09
1.96211e-09
3.24568e-08
3.58152e-08
-3.27398e-10
3.57816e-08
-3.85216e-10
3.57415e-08
-4.44942e-10
3.57e-08
-5.02665e-10
3.56631e-08
-5.54595e-10
3.56379e-08
-5.98017e-10
3.5631e-08
-6.30939e-10
3.56477e-08
-6.52553e-10
3.56942e-08
-6.66627e-10
3.57744e-08
-6.74251e-10
3.58906e-08
-6.75988e-10
3.6046e-08
-6.77366e-10
3.62433e-08
-6.84306e-10
3.64847e-08
-7.02601e-10
3.6772e-08
-7.39525e-10
3.71066e-08
-8.04791e-10
3.74893e-08
-9.10161e-10
3.792e-08
-1.07156e-09
3.83969e-08
-1.30757e-09
3.89157e-08
-1.64651e-09
3.94669e-08
-2.12974e-09
4.00296e-08
-2.81702e-09
4.0499e-08
-3.25482e-09
4.08438e-08
-3.50193e-09
4.10736e-08
-3.68781e-09
4.11945e-08
-3.76515e-09
4.12159e-08
-3.73294e-09
4.11574e-08
-3.63612e-09
4.10367e-08
-3.48212e-09
4.08651e-08
-3.25425e-09
4.06541e-08
-2.95372e-09
4.04167e-08
-2.59112e-09
4.01668e-08
-2.17742e-09
3.99195e-08
-1.72472e-09
3.96901e-08
-1.24673e-09
3.94944e-08
-7.58674e-10
3.9347e-08
-2.76848e-10
3.9261e-08
1.82064e-10
3.92458e-08
6.01228e-10
3.93056e-08
9.65557e-10
3.94377e-08
1.26271e-09
3.9632e-08
1.48473e-09
3.98707e-08
1.62922e-09
4.01306e-08
1.70009e-09
1.70684e-09
4.03858e-08
4.70459e-08
-3.078e-10
4.70201e-08
-3.5948e-10
4.69895e-08
-4.14334e-10
4.69569e-08
-4.70062e-10
4.69262e-08
-5.23909e-10
4.69025e-08
-5.74327e-10
4.68907e-08
-6.19144e-10
4.68951e-08
-6.56964e-10
4.69228e-08
-6.94297e-10
4.69765e-08
-7.27906e-10
4.7059e-08
-7.58518e-10
4.71755e-08
-7.93827e-10
4.73297e-08
-8.38526e-10
4.75251e-08
-8.97972e-10
4.77647e-08
-9.79142e-10
4.80511e-08
-1.09126e-09
4.83861e-08
-1.24509e-09
4.877e-08
-1.45546e-09
4.92008e-08
-1.73842e-09
4.96735e-08
-2.11923e-09
5.01768e-08
-2.63305e-09
5.06861e-08
-3.32633e-09
5.11032e-08
-3.67192e-09
5.1399e-08
-3.79771e-09
5.15817e-08
-3.87047e-09
5.16548e-08
-3.8383e-09
5.16305e-08
-3.7086e-09
5.15331e-08
-3.53878e-09
5.13794e-08
-3.32836e-09
5.11791e-08
-3.05397e-09
5.0945e-08
-2.71966e-09
5.06915e-08
-2.33755e-09
5.04332e-08
-1.91917e-09
5.01854e-08
-1.47687e-09
4.99627e-08
-1.0241e-09
4.97791e-08
-5.7504e-10
4.96464e-08
-1.44133e-10
4.95731e-08
2.55387e-10
4.95637e-08
6.1058e-10
4.96175e-08
9.11736e-10
4.97282e-08
1.15207e-09
4.98841e-08
1.3288e-09
5.00699e-08
1.44346e-09
5.02682e-08
1.50174e-09
1.51253e-09
5.04625e-08
6.08981e-08
-2.93635e-10
6.08804e-08
-3.41796e-10
6.08599e-08
-3.93894e-10
6.08385e-08
-4.48662e-10
6.08192e-08
-5.04583e-10
6.0805e-08
-5.60142e-10
6.08011e-08
-6.15177e-10
6.08106e-08
-6.66531e-10
6.08366e-08
-7.2023e-10
6.08834e-08
-7.74691e-10
6.09559e-08
-8.31024e-10
6.10574e-08
-8.95331e-10
6.11911e-08
-9.72256e-10
6.13605e-08
-1.06737e-09
6.15689e-08
-1.18756e-09
6.18193e-08
-1.34162e-09
6.21135e-08
-1.53933e-09
6.24525e-08
-1.79446e-09
6.2834e-08
-2.1199e-09
6.32525e-08
-2.53778e-09
6.36957e-08
-3.07617e-09
6.41354e-08
-3.76609e-09
6.44853e-08
-4.02183e-09
6.47197e-08
-4.03211e-09
6.4843e-08
-3.99372e-09
6.48559e-08
-3.85123e-09
6.47804e-08
-3.63313e-09
6.46464e-08
-3.40471e-09
6.44592e-08
-3.14118e-09
6.42293e-08
-2.82412e-09
6.39727e-08
-2.463e-09
6.37043e-08
-2.06919e-09
6.34392e-08
-1.65405e-09
6.31917e-08
-1.22939e-09
6.29751e-08
-8.07475e-10
6.28005e-08
-4.00499e-10
6.26761e-08
-1.96617e-11
6.26067e-08
3.24753e-10
6.25928e-08
6.24485e-10
6.26306e-08
8.73959e-10
6.27122e-08
1.0704e-09
6.28269e-08
1.21413e-09
6.2962e-08
1.30841e-09
6.31047e-08
1.35904e-09
1.3735e-09
6.32437e-08
7.78053e-08
-2.87204e-10
7.77977e-08
-3.34119e-10
7.77893e-08
-3.85552e-10
7.77816e-08
-4.4096e-10
7.77769e-08
-4.99862e-10
7.77777e-08
-5.60942e-10
7.77877e-08
-6.25221e-10
7.78101e-08
-6.88926e-10
7.78458e-08
-7.55935e-10
7.79012e-08
-8.30016e-10
7.7981e-08
-9.10862e-10
7.80868e-08
-1.00117e-09
7.82212e-08
-1.10658e-09
7.83868e-08
-1.233e-09
7.85863e-08
-1.3871e-09
7.88219e-08
-1.57718e-09
7.90945e-08
-1.81189e-09
7.94042e-08
-2.10422e-09
7.97477e-08
-2.46337e-09
8.01187e-08
-2.90878e-09
8.05036e-08
-3.46107e-09
8.08706e-08
-4.13307e-09
8.11501e-08
-4.30136e-09
8.13196e-08
-4.20165e-09
8.13727e-08
-4.04677e-09
8.1323e-08
-3.80158e-09
8.12107e-08
-3.52079e-09
8.10445e-08
-3.23851e-09
8.08255e-08
-2.9222e-09
8.05706e-08
-2.56925e-09
8.02968e-08
-2.18912e-09
8.00192e-08
-1.79161e-09
7.97522e-08
-1.38707e-09
7.95087e-08
-9.85925e-10
7.92996e-08
-5.98318e-10
7.91329e-08
-2.33833e-10
7.90133e-08
9.99167e-11
7.89426e-08
3.95478e-10
7.89185e-08
6.48611e-10
7.89356e-08
8.56787e-10
7.89863e-08
1.01975e-09
7.9061e-08
1.13942e-09
7.91498e-08
1.21959e-09
7.92433e-08
1.26552e-09
1.28321e-09
7.93336e-08
9.82761e-08
-2.91416e-10
9.82811e-08
-3.39122e-10
9.82874e-08
-3.91837e-10
9.8296e-08
-4.49555e-10
9.83084e-08
-5.12224e-10
9.83269e-08
-5.79455e-10
9.83534e-08
-6.51791e-10
9.83936e-08
-7.29051e-10
9.84496e-08
-8.11996e-10
9.85228e-08
-9.03155e-10
9.86169e-08
-1.00505e-09
9.87358e-08
-1.12006e-09
9.88817e-08
-1.25245e-09
9.90565e-08
-1.40785e-09
9.9262e-08
-1.59252e-09
9.94989e-08
-1.81415e-09
9.97669e-08
-2.07981e-09
1.00064e-07
-2.40173e-09
1.00386e-07
-2.785e-09
1.00724e-07
-3.24635e-09
1.01062e-07
-3.79962e-09
1.01365e-07
-4.4362e-09
1.01583e-07
-4.51928e-09
1.01688e-07
-4.30693e-09
1.01677e-07
-4.03506e-09
1.01587e-07
-3.71179e-09
1.01449e-07
-3.38272e-09
1.01255e-07
-3.04504e-09
1.01015e-07
-2.68136e-09
1.00746e-07
-2.30063e-09
1.00466e-07
-1.90944e-09
1.0019e-07
-1.51572e-09
9.99311e-08
-1.12784e-09
9.96993e-08
-7.54056e-10
9.95027e-08
-4.01786e-10
9.93463e-08
-7.74369e-11
9.92325e-08
2.13727e-10
9.91602e-08