/*--------------------------------*- C++ -*----------------------------------*\
| =========                 |                                                 |
| \\      /  F ield         | OpenFOAM: The Open Source CFD Toolbox           |
|  \\    /   O peration     | Version:  2312                                  |
|   \\  /    A nd           | Website:  www.openfoam.com                      |
|    \\/     M anipulation  |                                                 |
\*---------------------------------------------------------------------------*/
FoamFile
{
    version     2.0;
    format      ascii;
    arch        "LSB;label=32;scalar=64";
    class       surfaceScalarField;
    location    "140.5";
    object      phi;
}
// * * * * * * * * * * * * * * * * * * * * * * * * * * * * * * * * * * * * * //

dimensions      [0 3 -1 0 0 0 0];

oriented        oriented;

internalField   nonuniform List<scalar> 
9445
(
6.03771e-10
1.64622e-11
5.92675e-10
1.10963e-11
5.8517e-10
7.50493e-12
5.80258e-10
4.91214e-12
5.77341e-10
2.91687e-12
5.76054e-10
1.28699e-12
5.76234e-10
-1.80241e-13
5.7788e-10
-1.64553e-12
5.8097e-10
-3.09054e-12
5.85894e-10
-4.92349e-12
5.93816e-10
-7.92217e-12
6.08302e-10
-1.44862e-11
6.41966e-10
-3.3664e-11
7.39479e-10
-9.75129e-11
-2.56309e-10
9.95788e-10
2.10243e-09
7.31375e-11
2.06385e-09
4.9678e-11
2.03743e-09
3.3925e-11
2.01978e-09
2.25555e-11
2.00886e-09
1.3837e-11
2.00338e-09
6.76813e-12
2.00272e-09
4.78744e-13
2.00664e-09
-5.56495e-12
2.01517e-09
-1.16162e-11
2.02951e-09
-1.92611e-11
2.05256e-09
-3.09772e-11
2.09119e-09
-5.31148e-11
2.15899e-09
-1.01468e-10
2.26931e-09
-2.0783e-10
-3.74199e-10
2.3872e-09
4.14111e-09
1.82888e-10
4.0658e-09
1.24982e-10
4.01373e-09
8.60006e-11
3.9784e-09
5.78815e-11
3.95584e-09
3.64004e-11
3.94349e-09
1.91141e-11
3.94002e-09
3.95166e-12
3.9447e-09
-1.02504e-11
3.95737e-09
-2.42839e-11
3.97958e-09
-4.14716e-11
4.01414e-09
-6.55324e-11
4.0656e-09
-1.0458e-10
4.13685e-09
-1.72713e-10
4.21426e-09
-2.85244e-10
-4.20043e-10
4.26011e-09
6.86691e-09
3.60364e-10
6.74401e-09
2.47877e-10
6.65811e-09
1.71901e-10
6.59889e-09
1.17105e-10
6.55989e-09
7.53963e-11
6.5369e-09
4.21079e-11
6.52748e-09
1.33685e-11
6.53011e-09
-1.28769e-11
6.54398e-09
-3.81556e-11
6.56994e-09
-6.74342e-11
6.60896e-09
-1.04553e-10
6.66047e-09
-1.56083e-10
6.71787e-09
-2.30117e-10
6.76089e-09
-3.2826e-10
-4.24935e-10
6.76578e-09
1.04583e-08
6.20698e-10
1.02759e-08
4.30215e-10
1.01469e-08
3.0092e-10
1.00564e-08
2.0759e-10
9.99506e-09
1.36772e-10
9.95647e-09
8.06973e-11
9.93661e-09
3.32305e-11
9.93285e-09
-9.11109e-12
9.9434e-09
-4.87122e-11
9.96706e-09
-9.10903e-11
1.00021e-08
-1.39626e-10
1.00437e-08
-1.97653e-10
1.00809e-08
-2.67352e-10
1.00965e-08
-3.43788e-10
-4.0787e-10
1.00794e-08
1.51268e-08
9.76437e-10
1.48739e-08
6.83089e-10
1.46924e-08
4.82453e-10
1.45627e-08
3.37256e-10
1.44722e-08
2.27306e-10
1.44121e-08
1.40839e-10
1.43762e-08
6.90892e-11
1.43603e-08
6.74831e-12
1.43613e-08
-4.97039e-11
1.43756e-08
-1.05369e-10
1.43987e-08
-1.62709e-10
1.44235e-08
-2.22472e-10
1.44394e-08
-2.83271e-10
1.4435e-08
-3.39357e-10
-3.79919e-10
1.44071e-08
2.11152e-08
1.43182e-09
2.0785e-08
1.0133e-09
2.05437e-08
7.2375e-10
2.03678e-08
5.13101e-10
2.02415e-08
3.53611e-10
2.01535e-08
2.28836e-10
2.00955e-08
1.27122e-10
2.00612e-08
4.10444e-11
2.00456e-08
-3.4091e-11
2.00431e-08
-1.02873e-10
2.00474e-08
-1.67047e-10
2.00512e-08
-2.26239e-10
2.00463e-08
-2.78349e-10
2.00265e-08
-3.19621e-10
-3.45525e-10
1.99921e-08
2.86891e-08
1.97403e-09
2.8285e-08
1.41744e-09
2.79829e-08
1.02586e-09
2.77576e-08
7.38362e-10
2.75912e-08
5.20079e-10
2.74702e-08
3.49802e-10
2.73844e-08
2.12921e-10
2.73256e-08
9.98327e-11
2.72869e-08
4.65605e-12
2.72613e-08
-7.72709e-11
2.72418e-08
-1.47631e-10
2.72221e-08
-2.06503e-10
2.71967e-08
-2.52963e-10
2.7163e-08
-2.85879e-10
-3.04563e-10
2.7122e-08
3.81243e-08
2.56366e-09
3.76674e-08
1.8744e-09
3.73153e-08
1.37791e-09
3.70455e-08
1.00816e-09
3.68401e-08
7.25538e-10
3.66849e-08
5.05008e-10
3.65684e-08
3.29387e-10
3.64811e-08
1.87119e-10
3.64149e-08
7.08377e-11
3.63622e-08
-2.45069e-11
3.63164e-08
-1.01823e-10
3.62723e-08
-1.62443e-10
3.62267e-08
-2.07372e-10
3.61786e-08
-2.37718e-10
-2.5492e-10
3.61289e-08
4.96963e-08
3.13253e-09
4.92302e-08
2.34047e-09
4.88561e-08
1.75201e-09
4.85593e-08
1.30492e-09
4.83255e-08
9.59324e-10
4.8142e-08
6.88537e-10
4.79976e-08
4.73844e-10
4.78825e-08
3.02208e-10
4.77885e-08
1.64833e-10
4.77084e-08
5.55306e-11
4.76367e-08
-3.01143e-11
4.75696e-08
-9.52708e-11
4.75048e-08
-1.42652e-10
4.74421e-08
-1.74982e-10
-1.94829e-10
4.7382e-08
6.3698e-08
3.60221e-09
6.32817e-08
2.75672e-09
6.29285e-08
2.10523e-09
6.26355e-08
1.5979e-09
6.23951e-08
1.1997e-09
6.21984e-08
8.85254e-10
6.20364e-08
6.35849e-10
6.19009e-08
4.37744e-10
6.17848e-08
2.80968e-10
6.16823e-08
1.57978e-10
6.15893e-08
6.28986e-11
6.15031e-08
-9.04459e-12
6.14223e-08
-6.18792e-11
6.13466e-08
-9.92954e-11
-1.24447e-10
6.12762e-08
8.05114e-08
3.92586e-09
8.01925e-08
3.07564e-09
7.99016e-08
2.39619e-09
7.96462e-08
1.85326e-09
7.9426e-08
1.41988e-09
7.9237e-08
1.07425e-09
7.90739e-08
7.9901e-10
7.89311e-08
5.80516e-10
7.8804e-08
4.08092e-10
7.86888e-08
2.73168e-10
7.85829e-08
1.68783e-10
7.84847e-08
8.91201e-11
7.83935e-08
2.93463e-11
7.83089e-08
-1.47063e-11
-4.64503e-11
7.82309e-08
1.00705e-07
4.11931e-09
1.00488e-07
3.29195e-09
1.00274e-07
2.61057e-09
1.00073e-07
2.05399e-09
9.98901e-08
1.60311e-09
9.97242e-08
1.24011e-09
9.95738e-08
9.49434e-10
9.94364e-08
7.17926e-10
9.93098e-08
5.34696e-10
9.91923e-08
3.90651e-10
9.90828e-08
2.78279e-10
9.89807e-08
1.91275e-10
9.88855e-08
1.24494e-10
9.87972e-08
7.35834e-11
3.5067e-11
9.87157e-08
1.25027e-07
4.23443e-09
1.24881e-07
3.43797e-09
1.24725e-07
2.76699e-09
1.24569e-07
2.20986e-09
1.24418e-07
1.75357e-09
1.24275e-07
1.3834e-09
1.24139e-07
1.08523e-09
1.24011e-07
8.46473e-10
1.23889e-07
6.56342e-10
1.23774e-07
5.05639e-10
1.23666e-07
3.86718e-10
1.23564e-07
2.93189e-10
1.23468e-07
2.19867e-10
1.23379e-07
1.62428e-10
1.17454e-10
1.23297e-07
1.54211e-07
4.3001e-09
1.54108e-07
3.5404e-09
1.53987e-07
2.88776e-09
1.53858e-07
2.33868e-09
1.53727e-07
1.88493e-09
1.53596e-07
1.51412e-09
1.53468e-07
1.21338e-09
1.53344e-07
9.70838e-10
1.53224e-07
7.76078e-10
1.5311e-07
6.2013e-10
1.53001e-07
4.95508e-10
1.52898e-07
3.95961e-10
1.52802e-07
3.16428e-10
1.52711e-07
2.52725e-10
2.01543e-10
1.52627e-07
1.88729e-07
4.30385e-09
1.88671e-07
3.59787e-09
1.88585e-07
2.97375e-09
1.88481e-07
2.44299e-09
1.88366e-07
2.00014e-09
1.88245e-07
1.63494e-09
1.88122e-07
1.33609e-09
1.88e-07
1.09283e-09
1.87881e-07
8.95497e-10
1.87765e-07
7.35639e-10
1.87655e-07
6.06167e-10
1.8755e-07
5.01148e-10
1.8745e-07
4.1576e-10
1.87357e-07
3.46028e-10
2.88796e-10
1.8727e-07
2.28685e-07
4.23565e-09
2.28688e-07
3.59499e-09
2.28645e-07
3.01604e-09
2.28573e-07
2.5148e-09
2.28481e-07
2.09222e-09
2.28377e-07
1.73964e-09
2.28265e-07
1.44789e-09
2.2815e-07
1.20779e-09
2.28035e-07
1.01072e-09
2.27921e-07
8.49016e-10
2.27811e-07
7.16189e-10
2.27706e-07
6.06774e-10
2.27605e-07
5.16305e-10
2.2751e-07
4.41087e-10
3.78181e-10
2.27421e-07
2.73645e-07
4.10428e-09
2.73711e-07
3.52929e-09
2.73721e-07
3.00579e-09
2.7369e-07
2.54546e-09
2.7363e-07
2.15242e-09
2.7355e-07
1.8199e-09
2.73457e-07
1.54126e-09
2.73355e-07
1.30902e-09
2.7325e-07
1.11587e-09
2.73144e-07
9.55147e-10
2.73039e-07
8.21117e-10
2.72937e-07
7.08921e-10
2.72839e-07
6.14547e-10
2.72745e-07
5.34663e-10
4.66679e-10
2.72657e-07
3.22159e-07
3.89461e-09
3.22294e-07
3.39472e-09
3.22365e-07
2.93428e-09
3.22388e-07
2.52329e-09
3.22372e-07
2.16782e-09
3.22329e-07
1.86349e-09
3.22265e-07
1.605e-09
3.22187e-07
1.38645e-09
3.22101e-07
1.20194e-09
3.22011e-07
1.04597e-09
3.21918e-07
9.13747e-10
3.21826e-07
8.01108e-10
3.21736e-07
7.04608e-10
3.21649e-07
6.21331e-10
5.48972e-10
3.21567e-07
3.71069e-07
3.58263e-09
3.71299e-07
3.16438e-09
3.71455e-07
2.77822e-09
3.7155e-07
2.42846e-09
3.71598e-07
2.12012e-09
3.71609e-07
1.8523e-09
3.71592e-07
1.6214e-09
3.71556e-07
1.42296e-09
3.71505e-07
1.25249e-09
3.71446e-07
1.10573e-09
3.7138e-07
9.78925e-10
3.71313e-07
8.68738e-10
3.71245e-07
7.72365e-10
3.71179e-07
6.87389e-10
6.11959e-10
3.71116e-07
3.68468e-07
3.23891e-09
3.68734e-07
2.89844e-09
3.68932e-07
2.57997e-09
3.69073e-07
2.28815e-09
3.69166e-07
2.02691e-09
3.69222e-07
1.7964e-09
3.69249e-07
1.5945e-09
3.69254e-07
1.41805e-09
3.69242e-07
1.2637e-09
3.6922e-07
1.12824e-09
3.6919e-07
1.00879e-09
3.69156e-07
9.02785e-10
3.6912e-07
8.08014e-10
3.69085e-07
7.22565e-10
6.45105e-10
3.69052e-07
3.15573e-07
2.85354e-09
3.15885e-07
2.5864e-09
3.16133e-07
2.33126e-09
3.16327e-07
2.09465e-09
3.16474e-07
1.87999e-09
3.16583e-07
1.68771e-09
3.16661e-07
1.51654e-09
3.16714e-07
1.36437e-09
3.16749e-07
1.22882e-09
3.1677e-07
1.10759e-09
3.1678e-07
9.98568e-10
3.16783e-07
8.99848e-10
3.16781e-07
8.09784e-10
3.16777e-07
7.26933e-10
6.50101e-10
3.16772e-07
2.64025e-07
2.50454e-09
2.6432e-07
2.29133e-09
2.64567e-07
2.08477e-09
2.6477e-07
1.89152e-09
2.64935e-07
1.71432e-09
2.6507e-07
1.55349e-09
2.65178e-07
1.40819e-09
2.65265e-07
1.27695e-09
2.65336e-07
1.15806e-09
2.65394e-07
1.04986e-09
2.65442e-07
9.50785e-10
2.65482e-07
8.59418e-10
2.65517e-07
7.74539e-10
2.65549e-07
6.95051e-10
6.20093e-10
2.65579e-07
2.17326e-07
2.17309e-09
2.17615e-07
2.00286e-09
2.17863e-07
1.83658e-09
2.18075e-07
1.67961e-09
2.18255e-07
1.53412e-09
2.18408e-07
1.40036e-09
2.18539e-07
1.27774e-09
2.1865e-07
1.16524e-09
2.18747e-07
1.06165e-09
2.18831e-07
9.65769e-10
2.18905e-07
8.76462e-10
2.18972e-07
7.92708e-10
2.19033e-07
7.13619e-10
2.1909e-07
6.3841e-10
5.66464e-10
2.19143e-07
1.76467e-07
1.85234e-09
1.76753e-07
1.71751e-09
1.77004e-07
1.58512e-09
1.77225e-07
1.45904e-09
1.77418e-07
1.34085e-09
1.77587e-07
1.23076e-09
1.77737e-07
1.12835e-09
1.77869e-07
1.03291e-09
1.77987e-07
9.43613e-10
1.78093e-07
8.59613e-10
1.7819e-07
7.80122e-10
1.78278e-07
7.0443e-10
1.7836e-07
6.31929e-10
1.78436e-07
5.62084e-10
4.94478e-10
1.78508e-07
1.41652e-07
1.54419e-09
1.4193e-07
1.43901e-09
1.4218e-07
1.33522e-09
1.42404e-07
1.23549e-09
1.42604e-07
1.14088e-09
1.42783e-07
1.05153e-09
1.42944e-07
9.67166e-10
1.4309e-07
8.87323e-10
1.43222e-07
8.11458e-10
1.43342e-07
7.39016e-10
1.43453e-07
6.69477e-10
1.43555e-07
6.02381e-10
1.4365e-07
5.37339e-10
1.43738e-07
4.74022e-10
4.12166e-10
1.4382e-07
1.12562e-07
1.25536e-09
1.12826e-07
1.17506e-09
1.13066e-07
1.09531e-09
1.13283e-07
1.01795e-09
1.1348e-07
9.43599e-10
1.1366e-07
8.72353e-10
1.13823e-07
8.04069e-10
1.13972e-07
7.38478e-10
1.14108e-07
6.75252e-10
1.14233e-07
6.1405e-10
1.14348e-07
5.54565e-10
1.14453e-07
4.96525e-10
1.14551e-07
4.39714e-10
1.14641e-07
3.83951e-10
3.29108e-10
1.14724e-07
8.86032e-08
9.93752e-10
8.88443e-08
9.34035e-10
8.90653e-08
8.7426e-10
8.92676e-08
8.15646e-10
8.94527e-08
7.58496e-10
8.96222e-08
7.02903e-10
8.97774e-08
6.48832e-10
8.99197e-08
5.96155e-10
9.00503e-08
5.44696e-10
9.01701e-08
4.94278e-10
9.02799e-08
4.44744e-10
9.03805e-08
3.95964e-10
9.04723e-08
3.47846e-10
9.0556e-08
3.00321e-10
2.5335e-10
9.06317e-08
6.90842e-08
7.65426e-10
6.92959e-08
7.22342e-10
6.94913e-08
6.78835e-10
6.96713e-08
6.35629e-10
6.9837e-08
5.92826e-10
6.99893e-08
5.50545e-10
7.01293e-08
5.08826e-10
7.02579e-08
4.67634e-10
7.03757e-08
4.26899e-10
7.04834e-08
3.86555e-10
7.05816e-08
3.46551e-10
7.06707e-08
3.06853e-10
7.07511e-08
2.6745e-10
7.08231e-08
2.28347e-10
1.89567e-10
7.08868e-08
5.33214e-08
5.73237e-10
5.35005e-08
5.432e-10
5.36668e-08
5.12599e-10
5.38207e-08
4.8173e-10
5.39629e-08
4.50608e-10
5.4094e-08
4.19388e-10
5.42147e-08
3.88144e-10
5.43254e-08
3.56896e-10
5.44267e-08
3.25642e-10
5.45189e-08
2.9439e-10
5.46023e-08
2.63149e-10
5.46772e-08
2.31945e-10
5.47438e-08
2.00816e-10
5.48024e-08
1.69805e-10
1.38974e-10
5.48529e-08
4.06919e-08
4.16842e-10
4.08384e-08
3.96702e-10
4.0975e-08
3.76012e-10
4.1102e-08
3.54714e-10
4.12197e-08
3.32837e-10
4.13286e-08
3.10545e-10
4.14288e-08
2.87918e-10
4.15207e-08
2.65006e-10
4.16045e-08
2.41846e-10
4.16804e-08
2.18481e-10
4.17486e-08
1.94954e-10
4.18092e-08
1.7132e-10
4.18624e-08
1.47637e-10
4.19082e-08
1.23971e-10
1.00392e-10
4.19468e-08
3.06502e-08
2.93508e-10
3.07663e-08
2.80604e-10
3.08751e-08
2.67236e-10
3.09767e-08
2.5311e-10
3.10712e-08
2.38315e-10
3.11588e-08
2.22993e-10
3.12395e-08
2.07219e-10
3.13134e-08
1.91051e-10
3.13807e-08
1.7454e-10
3.14415e-08
1.57742e-10
3.14957e-08
1.40713e-10
3.15435e-08
1.23515e-10
3.1585e-08
1.0621e-10
3.16201e-08
8.88679e-11
7.15553e-11
3.16489e-08
2.27291e-08
1.9913e-10
2.28184e-08
1.91295e-10
2.29025e-08
1.83103e-10
2.29815e-08
1.74153e-10
2.30552e-08
1.6459e-10
2.31237e-08
1.54518e-10
2.31869e-08
1.43996e-10
2.32449e-08
1.33078e-10
2.32976e-08
1.21816e-10
2.33451e-08
1.10265e-10
2.33873e-08
9.84754e-11
2.34243e-08
8.65069e-11
2.34561e-08
7.44148e-11
2.34827e-08
6.2264e-11
5.01091e-11
2.35042e-08
1.65326e-08
1.29086e-10
1.65993e-08
1.24632e-10
1.66625e-08
1.1992e-10
1.67221e-08
1.14556e-10
1.67779e-08
1.08707e-10
1.683e-08
1.02433e-10
1.68783e-08
9.57779e-11
1.69225e-08
8.87857e-11
1.69629e-08
8.14983e-11
1.69992e-08
7.3961e-11
1.70314e-08
6.62167e-11
1.70596e-08
5.8313e-11
1.70837e-08
5.02944e-11
1.71038e-08
4.22146e-11
3.4116e-11
1.71198e-08
1.17286e-08
7.88375e-11
1.17767e-08
7.65023e-11
1.18226e-08
7.4002e-11
1.18662e-08
7.10102e-11
1.19072e-08
6.76786e-11
1.19456e-08
6.40312e-11
1.19813e-08
6.00981e-11
1.20141e-08
5.59107e-11
1.20441e-08
5.14993e-11
1.20712e-08
4.68969e-11
1.20953e-08
4.21349e-11
1.21164e-08
3.7248e-11
1.21344e-08
3.22682e-11
1.21494e-08
2.7236e-11
2.21834e-11
1.21613e-08
8.04005e-09
4.42562e-11
8.0734e-09
4.31506e-11
8.10544e-09
4.19623e-11
8.136e-09
4.04544e-11
8.16494e-09
3.87355e-11
8.19217e-09
3.68081e-11
8.21757e-09
3.46913e-11
8.24108e-09
3.24045e-11
8.26261e-09
2.99671e-11
8.28211e-09
2.74006e-11
8.29952e-09
2.47249e-11
8.3148e-09
2.1963e-11
8.32793e-09
1.91351e-11
8.3389e-09
1.6269e-11
1.33884e-11
8.3477e-09
5.23832e-09
2.17779e-11
5.26016e-09
2.13161e-11
5.28128e-09
2.08404e-11
5.30154e-09
2.01926e-11
5.32084e-09
1.94314e-11
5.3391e-09
1.8552e-11
5.35623e-09
1.75646e-11
5.37215e-09
1.64798e-11
5.38681e-09
1.53082e-11
5.40015e-09
1.40618e-11
5.41212e-09
1.27514e-11
5.4227e-09
1.13902e-11
5.43184e-09
9.9888e-12
5.43955e-09
8.56427e-12
7.13401e-12
5.4458e-09
3.13598e-09
8.43242e-12
3.14904e-09
8.26461e-12
3.16175e-09
8.12742e-12
3.17402e-09
7.92189e-12
3.18578e-09
7.66703e-12
3.19698e-09
7.35943e-12
3.20754e-09
7.0036e-12
3.21741e-09
6.60408e-12
3.22656e-09
6.16544e-12
3.23493e-09
5.69298e-12
3.24249e-09
5.19137e-12
3.24921e-09
4.66647e-12
3.25508e-09
4.12255e-12
3.26007e-09
3.56807e-12
3.01533e-12
3.26419e-09
1.5809e-09
1.80996e-12
1.58741e-09
1.75698e-12
1.59379e-09
1.74422e-12
1.59999e-09
1.71711e-12
1.60598e-09
1.67645e-12
1.61172e-09
1.62185e-12
1.61717e-09
1.55461e-12
1.6223e-09
1.47606e-12
1.62708e-09
1.38737e-12
1.63148e-09
1.28999e-12
1.63549e-09
1.18504e-12
1.63908e-09
1.07414e-12
1.64224e-09
9.58106e-13
1.64497e-09
8.3954e-13
7.25435e-13
1.64726e-09
4.50598e-10
4.52355e-10
4.541e-10
4.55817e-10
4.57493e-10
4.59115e-10
4.6067e-10
4.62146e-10
4.63533e-10
4.64823e-10
4.66008e-10
4.67082e-10
4.6804e-10
4.6888e-10
4.69605e-10
1.1874e-09
-5.10948e-10
3.19337e-10
1.45927e-09
-4.65817e-10
1.93946e-10
1.73075e-09
-3.55812e-10
8.4328e-11
1.99587e-09
-2.41079e-10
-2.40418e-11
2.25319e-09
-1.25549e-10
-1.31766e-10
2.50377e-09
-1.40357e-11
-2.36542e-10
2.74952e-09
9.45805e-11
-3.4033e-10
2.99209e-09
2.02784e-10
-4.45359e-10
3.23291e-09
3.13472e-10
-5.54291e-10
3.4731e-09
4.30089e-10
-6.70279e-10
3.71356e-09
5.56713e-10
-7.97169e-10
3.95504e-09
6.98608e-10
-9.40095e-10
4.19838e-09
8.62844e-10
-1.10618e-09
4.44467e-09
1.05898e-09
-1.30527e-09
4.69552e-09
1.30026e-09
-1.55112e-09
4.95351e-09
1.60304e-09
-1.86103e-09
5.22268e-09
1.98479e-09
-2.25396e-09
5.50884e-09
2.46675e-09
-2.75291e-09
5.81962e-09
3.06587e-09
-3.37666e-09
6.16472e-09
3.77663e-09
-4.12172e-09
6.55351e-09
4.53528e-09
-4.92407e-09
6.99014e-09
5.17378e-09
-5.61042e-09
7.3962e-09
4.58889e-09
-4.99495e-09
7.73259e-09
3.33252e-09
-3.6689e-09
7.99507e-09
1.93149e-09
-2.19397e-09
8.18518e-09
5.37318e-10
-7.27434e-10
8.30702e-09
-7.50352e-10
6.28516e-10
8.36528e-09
-1.88095e-09
1.82269e-09
8.3645e-09
-2.83151e-09
2.83228e-09
8.30885e-09
-3.59119e-09
3.64683e-09
8.20226e-09
-4.15523e-09
4.26183e-09
8.04859e-09
-4.52325e-09
4.67691e-09
7.85185e-09
-4.69888e-09
4.89562e-09
7.61608e-09
-4.68984e-09
4.92562e-09
7.34517e-09
-4.50746e-09
4.77836e-09
7.04264e-09
-4.16558e-09
4.46811e-09
6.71132e-09
-3.6788e-09
4.01012e-09
6.35336e-09
-3.05999e-09
3.41796e-09
5.97039e-09
-2.31715e-09
2.70012e-09
5.56326e-09
-1.45083e-09
1.85795e-09
5.12976e-09
-4.58526e-10
8.92026e-10
4.65891e-09
6.44625e-10
-1.73773e-10
4.13096e-09
1.76412e-09
-1.23617e-09
3.55186e-09
2.66499e-09
-2.08588e-09
2.67066e-09
3.20947e-09
-2.32827e-09
2.46119e-09
-5.84934e-10
2.61808e-09
-6.22714e-10
2.83114e-09
-5.68867e-10
3.06847e-09
-4.78413e-10
3.31628e-09
-3.7336e-10
3.56763e-09
-2.65384e-10
3.82012e-09
-1.57905e-10
4.07319e-09
-5.02845e-11
4.32702e-09
5.96406e-11
4.58208e-09
1.75026e-10
4.83893e-09
2.99862e-10
5.09819e-09
4.39356e-10
5.36062e-09
6.0041e-10
5.6274e-09
7.92203e-10
5.90025e-09
1.02741e-09
6.18194e-09
1.32136e-09
6.47689e-09
1.68984e-09
6.79135e-09
2.1523e-09
7.13347e-09
2.72376e-09
7.51362e-09
3.39648e-09
7.94197e-09
4.10693e-09
8.42332e-09
4.69243e-09
8.87217e-09
4.14004e-09
9.2458e-09
2.95888e-09
9.5394e-09
1.6379e-09
9.7543e-09
3.22415e-10
9.89461e-09
-8.90658e-10
9.96521e-09
-1.95154e-09
9.97101e-09
-2.83731e-09
9.91673e-09
-3.53691e-09
9.80698e-09
-4.04548e-09
9.64646e-09
-4.36273e-09
9.44015e-09
-4.49257e-09
9.19328e-09
-4.44296e-09
8.91118e-09
-4.22536e-09
8.59922e-09
-3.85362e-09
8.26278e-09
-3.34235e-09
7.90767e-09
-2.70489e-09
7.54139e-09
-1.95088e-09
7.17506e-09
-1.08449e-09
6.82555e-09
-1.0902e-10
6.516e-09
9.5418e-10
6.27839e-09
2.00172e-09
6.16475e-09
2.77863e-09
2.73771e-09
6.0977e-09
4.26962e-09
-5.94452e-10
4.33446e-09
-6.87549e-10
4.46438e-09
-6.98789e-10
4.64486e-09
-6.58892e-10
4.85615e-09
-5.84648e-10
5.08597e-09
-4.95207e-10
5.3274e-09
-3.99336e-10
5.57668e-09
-2.99567e-10
5.83191e-09
-1.95582e-10
6.09224e-09
-8.53069e-11
6.35745e-09
3.46469e-11
6.62771e-09
1.69098e-10
6.90356e-09
3.24562e-10
7.18609e-09
5.09669e-10
7.47707e-09
7.36428e-10
7.7794e-09
1.01903e-09
8.09784e-09
1.37139e-09
8.43909e-09
1.81105e-09
8.81175e-09
2.3511e-09
9.22683e-09
2.9814e-09
9.69524e-09
3.63851e-09
1.02224e-08
4.16527e-09
1.07156e-08
3.64686e-09
1.11283e-08
2.54622e-09
1.14548e-08
1.31133e-09
1.16963e-08
8.0907e-11
1.18568e-08
-1.05114e-09
1.19413e-08
-2.03602e-09
1.19551e-08
-2.85108e-09
1.19035e-08
-3.48532e-09
1.17919e-08
-3.93393e-09
1.16262e-08
-4.19698e-09
1.14124e-08
-4.27882e-09
1.11573e-08
-4.18789e-09
1.08681e-08
-3.93612e-09
1.05523e-08
-3.53786e-09
1.02186e-08
-3.00857e-09
9.87693e-09
-2.36326e-09
9.54139e-09
-1.61534e-09
9.23316e-09
-7.76262e-10
8.98471e-09
1.39426e-10
8.84086e-09
1.09803e-09
8.84382e-09
1.99876e-09
8.99142e-09
2.63103e-09
2.63553e-09
9.0936e-09
6.73831e-09
-5.66979e-10
6.73929e-09
-6.88535e-10
6.78914e-09
-7.48643e-10
6.89363e-09
-7.63374e-10
7.04475e-09
-7.35767e-10
7.22863e-09
-6.79094e-10
7.43664e-09
-6.07343e-10
7.66245e-09
-5.25382e-10
7.90199e-09
-4.35113e-10
8.15276e-09
-3.36086e-10
8.41344e-09
-2.26028e-10
8.68344e-09
-1.00898e-10
8.96286e-09
4.51398e-11
9.2526e-09
2.19931e-10
9.55434e-09
4.34687e-10
9.87104e-09
7.02327e-10
1.02078e-08
1.0346e-09
1.05718e-08
1.4471e-09
1.09719e-08
1.95102e-09
1.14197e-08
2.53359e-09
1.19268e-08
3.13142e-09
1.24991e-08
3.59292e-09
1.30368e-08
3.10922e-09
1.34891e-08
2.09391e-09
1.38495e-08
9.50865e-10
1.41187e-08
-1.88272e-10
1.43005e-08
-1.23291e-09
1.44e-08
-2.13549e-09
1.44228e-08
-2.87397e-09
1.43752e-08
-3.43765e-09
1.42634e-08
-3.82213e-09
1.40944e-08
-4.02801e-09
1.38759e-08
-4.06035e-09
1.36164e-08
-3.92835e-09
1.33251e-08
-3.64479e-09
1.30123e-08
-3.22505e-09
1.26898e-08
-2.68613e-09
1.23723e-08
-2.04574e-09
1.20792e-08
-1.32221e-09
1.18382e-08
-5.3533e-10
1.16885e-08
2.89123e-10
1.16775e-08
1.1091e-09
1.18364e-08
1.83984e-09
1.21316e-08
2.33584e-09
2.40964e-09
1.23575e-08
1.0034e-08
-5.21558e-10
9.99258e-09
-6.47139e-10
9.98131e-09
-7.37373e-10
1.00114e-08
-7.9348e-10
1.00869e-08
-8.11279e-10
1.0205e-08
-7.97136e-10
1.03571e-08
-7.59455e-10
1.05369e-08
-7.05216e-10
1.07394e-08
-6.37592e-10
1.09609e-08
-5.5755e-10
1.11989e-08
-4.64089e-10
1.14522e-08
-3.54198e-10
1.17203e-08
-2.22971e-10
1.20039e-08
-6.36102e-11
1.23044e-08
1.34166e-10
1.26249e-08
3.81857e-10
1.29708e-08
6.88693e-10
1.33496e-08
1.06829e-09
1.37705e-08
1.53008e-09
1.42457e-08
2.05842e-09
1.47872e-08
2.58993e-09
1.54013e-08
2.9788e-09
1.59812e-08
2.52931e-09
1.64719e-08
1.60316e-09
1.68657e-08
5.57091e-10
1.71624e-08
-4.8499e-10
1.73657e-08
-1.43617e-09
1.74806e-08
-2.25042e-09
1.75134e-08
-2.90671e-09
1.74708e-08
-3.39505e-09
1.73604e-08
-3.71172e-09
1.71905e-08
-3.85817e-09
1.69706e-08
-3.84045e-09
1.67111e-08
-3.66882e-09
1.64235e-08
-3.35722e-09
1.6121e-08
-2.92249e-09
1.58185e-08
-2.38364e-09
1.55342e-08
-1.76146e-09
1.52909e-08
-1.07896e-09
1.51181e-08
-3.62508e-10
1.50519e-08
3.55323e-10
1.51294e-08
1.03166e-09
1.53652e-08
1.604e-09
1.57143e-08
1.98674e-09
2.0946e-09
1.60294e-08
1.43551e-08
-4.69643e-10
1.42921e-08
-5.84118e-10
1.42394e-08
-6.84681e-10
1.42101e-08
-7.64127e-10
1.42146e-08
-8.15782e-10
1.4258e-08
-8.40515e-10
1.43385e-08
-8.40018e-10
1.44527e-08
-8.19383e-10
1.45966e-08
-7.81469e-10
1.47667e-08
-7.27705e-10
1.49605e-08
-6.57924e-10
1.51764e-08
-5.70022e-10
1.54135e-08
-4.60075e-10
1.56724e-08
-3.22511e-10
1.59546e-08
-1.48024e-10
1.62631e-08
7.3357e-11
1.66039e-08
3.47884e-10
1.69849e-08
6.87287e-10
1.74155e-08
1.09945e-09
1.79083e-08
1.56565e-09
1.84757e-08
2.02248e-09
1.91243e-08
2.33024e-09
1.97409e-08
1.91268e-09
2.02661e-08
1.07796e-09
2.06903e-08
1.32911e-10
2.10125e-08
-8.07164e-10
2.12358e-08
-1.65953e-09
2.13655e-08
-2.38005e-09
2.14079e-08
-2.94918e-09
2.1371e-08
-3.35809e-09
2.12634e-08
-3.60411e-09
2.10951e-08
-3.68989e-09
2.08774e-08
-3.62274e-09
2.06227e-08
-3.4142e-09
2.03451e-08
-3.07962e-09
2.00601e-08
-2.63746e-09
1.97852e-08
-2.10879e-09
1.95408e-08
-1.51701e-09
1.93501e-08
-8.88279e-10
1.92396e-08
-2.52019e-10
1.92367e-08
3.58283e-10
1.93631e-08
9.05215e-10
1.96199e-08
1.34721e-09
1.99656e-08
1.64098e-09
1.75535e-09
2.03049e-08
1.99387e-08
-4.16235e-10
1.98686e-08
-5.13981e-10
1.97939e-08
-6.09969e-10
1.97259e-08
-6.9618e-10
1.96763e-08
-7.66197e-10
1.96529e-08
-8.17104e-10
1.96604e-08
-8.47496e-10
1.96998e-08
-8.58734e-10
1.97704e-08
-8.52091e-10
1.98709e-08
-8.28256e-10
2.00001e-08
-7.87056e-10
2.01568e-08
-7.26769e-10
2.03409e-08
-6.44183e-10
2.05534e-08
-5.34964e-10
2.0796e-08
-3.90631e-10
2.10721e-08
-2.02738e-10
2.13885e-08
3.14162e-11
2.17539e-08
3.21951e-10
2.21777e-08
6.75662e-10
2.2673e-08
1.07033e-09
2.32527e-08
1.44277e-09
2.39231e-08
1.65983e-09
2.45663e-08
1.26945e-09
2.51181e-08
5.26167e-10
2.55665e-08
-3.15464e-10
2.59092e-08
-1.1499e-09
2.61489e-08
-1.89923e-09
2.62906e-08
-2.52167e-09
2.63412e-08
-2.99978e-09
2.63094e-08
-3.32632e-09
2.62054e-08
-3.50011e-09
2.60408e-08
-3.52532e-09
2.58288e-08
-3.41074e-09
2.5584e-08
-3.16936e-09
2.53223e-08
-2.81794e-09
2.50613e-08
-2.37644e-09
2.48199e-08
-1.86741e-09
2.46186e-08
-1.31571e-09
2.44787e-08
-7.48303e-10
2.44206e-08
-1.93906e-10
2.4461e-08
3.17794e-10
2.46082e-08
7.58092e-10
2.48536e-08
1.10181e-09
2.51641e-08
1.33044e-09
1.43758e-09
2.54819e-08
2.7067e-08
-3.61223e-10
2.69953e-08
-4.42325e-10
2.69122e-08
-5.26825e-10
2.68249e-08
-6.0888e-10
2.6742e-08
-6.83286e-10
2.66712e-08
-7.46276e-10
2.6619e-08
-7.95379e-10
2.659e-08
-8.29665e-10
2.65867e-08
-8.48814e-10
2.66108e-08
-8.52384e-10
2.66634e-08
-8.39669e-10
2.67455e-08
-8.08786e-10
2.68581e-08
-7.56825e-10
2.70037e-08
-6.80608e-10
2.71852e-08
-5.7209e-10
2.74067e-08
-4.24194e-10
2.76766e-08
-2.38514e-10
2.80045e-08
-5.94767e-12
2.84002e-08
2.79939e-10
2.88777e-08
5.92864e-10
2.94502e-08
8.70246e-10
3.01237e-08
9.86282e-10
3.07778e-08
6.15354e-10
3.13435e-08
-3.94862e-11
3.18056e-08
-7.77583e-10
3.21603e-08
-1.50463e-09
3.24095e-08
-2.14837e-09
3.25578e-08
-2.67002e-09
3.26129e-08
-3.05489e-09
3.25845e-08
-3.29783e-09
3.24838e-08
-3.39949e-09
3.23244e-08
-3.36589e-09
3.21211e-08
-3.20747e-09
3.18904e-08
-2.9386e-09
3.16497e-08
-2.57723e-09
3.14175e-08
-2.14426e-09
3.12128e-08
-1.66277e-09
3.10545e-08
-1.15738e-09
3.09597e-08
-6.5351e-10
3.09421e-08
-1.76343e-10
3.10093e-08
2.50658e-10
3.11596e-08
6.0774e-10
3.13803e-08
8.8117e-10
3.16456e-08
1.06511e-09
1.16282e-09
3.19204e-08
3.60694e-08
-3.01667e-10
3.59955e-08
-3.68465e-10
3.59089e-08
-4.40223e-10
3.58132e-08
-5.13225e-10
3.57136e-08
-5.83652e-10
3.56156e-08
-6.4824e-10
3.55247e-08
-7.0449e-10
3.54458e-08
-7.5077e-10
3.5383e-08
-7.86027e-10
3.53398e-08
-8.09186e-10
3.53194e-08
-8.19253e-10
3.53248e-08
-8.1416e-10
3.53591e-08
-7.91172e-10
3.54269e-08
-7.48399e-10
3.55326e-08
-6.77773e-10
3.56818e-08
-5.73411e-10
3.58856e-08
-4.42289e-10
3.61547e-08
-2.75112e-10
3.64998e-08
-6.5169e-11
3.69362e-08
1.56531e-10
3.74777e-08
3.28676e-10
3.81302e-08
3.33799e-10
3.87738e-08
-2.81648e-11
3.93352e-08
-6.00953e-10
3.97959e-08
-1.23823e-09
4.01498e-08
-1.85859e-09
4.03979e-08
-2.39642e-09
4.05446e-08
-2.81677e-09
4.05982e-08
-3.10845e-09
4.05692e-08
-3.26881e-09
4.04703e-08
-3.3006e-09
4.03163e-08
-3.21192e-09
4.01237e-08
-3.01489e-09
3.99101e-08
-2.725e-09
3.96938e-08
-2.36086e-09
3.9493e-08
-1.94345e-09
3.93253e-08
-1.49511e-09
3.92065e-08
-1.0386e-09
3.9149e-08
-5.96003e-10
3.91602e-08
-1.87485e-10
3.92408e-08
1.6998e-10
3.93845e-08
4.64052e-10
3.95774e-08
6.88348e-10
3.97996e-08
8.42862e-10
9.33614e-10
4.00288e-08
4.7315e-08
-2.34684e-10
4.72363e-08
-2.89692e-10
4.71458e-08
-3.49759e-10
4.70452e-08
-4.12654e-10
4.69373e-08
-4.75731e-10
4.68255e-08
-5.36444e-10
4.67136e-08
-5.92624e-10
4.66055e-08
-6.42606e-10
4.65047e-08
-6.85222e-10
4.64148e-08
-7.19268e-10
4.63395e-08
-7.43987e-10
4.62828e-08
-7.57485e-10
4.62491e-08
-7.57461e-10
4.62445e-08
-7.43826e-10
4.62751e-08
-7.08303e-10
4.63479e-08
-6.4622e-10
4.6477e-08
-5.71378e-10
4.66747e-08
-4.72829e-10
4.69523e-08
-3.42765e-10
4.73273e-08
-2.18528e-10
4.78148e-08
-1.58777e-10
4.84201e-08
-2.71517e-10
4.90281e-08
-6.36198e-10
4.95633e-08
-1.13612e-09
5.00032e-08
-1.67817e-09
5.034e-08
-2.19532e-09
5.0573e-08
-2.62951e-09
5.0707e-08
-2.95071e-09
5.07506e-08
-3.15209e-09
5.07154e-08
-3.23364e-09
5.06152e-08
-3.20033e-09
5.04657e-08
-3.06246e-09
5.02845e-08
-2.83365e-09
5.00895e-08
-2.53004e-09
4.98988e-08
-2.17011e-09
4.97292e-08
-1.77392e-09
4.9596e-08
-1.36186e-09
4.95109e-08
-9.53558e-10
4.94818e-08
-5.66871e-10
4.95111e-08
-2.16766e-10
4.95957e-08
8.53729e-11
4.97274e-08
3.32375e-10
4.98934e-08
5.22359e-10
5.00786e-08
6.57627e-10
7.44239e-10
5.0268e-08
6.12011e-08
-1.59519e-10
6.11162e-08
-2.04826e-10
6.10212e-08
-2.54773e-10
6.09167e-08
-3.08106e-10
6.0804e-08
-3.63101e-10
6.06855e-08
-4.179e-10
6.05636e-08
-4.70751e-10
6.04412e-08
-5.20163e-10
6.0321e-08
-5.65054e-10
6.0206e-08
-6.04247e-10
6.00994e-08
-6.37396e-10
6.00049e-08
-6.62963e-10
5.99268e-08
-6.79357e-10
5.98714e-08
-6.88473e-10
5.98454e-08
-6.82259e-10
5.98568e-08
-6.57662e-10
5.99212e-08
-6.35772e-10
6.00512e-08
-6.02793e-10
6.02591e-08
-5.50678e-10
6.0565e-08
-5.24454e-10
6.09842e-08
-5.77996e-10
6.1522e-08
-8.09272e-10
6.20718e-08
-1.18597e-09
6.25584e-08
-1.62278e-09
6.29573e-08
-2.07707e-09
6.32589e-08
-2.49695e-09
6.34617e-08
-2.83224e-09
6.35702e-08
-3.05922e-09
6.35944e-08
-3.17626e-09
6.35465e-08
-3.18578e-09
6.34409e-08
-3.09475e-09
6.32941e-08
-2.91567e-09
6.31237e-08
-2.66327e-09
6.29473e-08
-2.35361e-09
6.27814e-08
-2.00422e-09
6.26408e-08
-1.63325e-09
6.25372e-08
-1.25825e-09
6.24787e-08
-8.95149e-10
6.24693e-08
-5.57464e-10
6.25082e-08
-2.55658e-10
6.25901e-08
3.49536e-12
6.27072e-08
2.15274e-10
6.28485e-08
3.81064e-10
6.30026e-08
5.03519e-10
5.8791e-10
6.31589e-08
7.81497e-08
-7.82584e-11
7.80605e-08
-1.1566e-10
7.79629e-08
-1.57139e-10
7.78568e-08
-2.02067e-10
7.77432e-08
-2.49419e-10
7.76232e-08
-2.97964e-10
7.74989e-08
-3.46428e-10
7.73724e-08
-3.9363e-10
7.7246e-08
-4.3868e-10
7.71223e-08
-4.80558e-10
7.70041e-08
-5.19235e-10
7.68946e-08
-5.53472e-10
7.67981e-08
-5.82837e-10
7.67193e-08
-6.09624e-10
7.6665e-08
-6.27944e-10
7.66456e-08
-6.38253e-10
7.66715e-08
-6.61709e-10
7.67531e-08
-6.84359e-10
7.69086e-08
-7.06192e-10
7.71567e-08
-7.72589e-10
7.7511e-08
-9.32266e-10
7.79755e-08
-1.27376e-09
7.84544e-08
-1.66486e-09
7.88768e-08
-2.04517e-09
7.92187e-08
-2.41904e-09
7.94706e-08
-2.74878e-09
7.96298e-08
-2.99145e-09
7.9702e-08
-3.13144e-09
7.96987e-08
-3.17301e-09
7.96328e-08
-3.11988e-09
7.95188e-08
-2.98069e-09
7.93731e-08
-2.77e-09
7.92128e-08
-2.50298e-09
7.9054e-08
-2.19477e-09
7.89109e-08
-1.86112e-09
7.87953e-08
-1.51766e-09
7.87157e-08
-1.17867e-09
7.86769e-08
-8.56357e-10
7.86799e-08
-5.60431e-10
7.8722e-08
-2.97823e-10
7.87977e-08
-7.21477e-11
7.88994e-08
1.13536e-10
7.90185e-08
2.61969e-10
7.91464e-08
3.75664e-10
4.5894e-10
7.92753e-08
9.86322e-08
5.26077e-12
9.85425e-08
-2.59421e-11
9.84461e-08
-6.0737e-11
9.83428e-08
-9.8811e-11
9.8233e-08
-1.39655e-10
9.81177e-08
-1.82591e-10
9.79981e-08
-2.26815e-10
9.7876e-08
-2.71587e-10
9.77536e-08
-3.16265e-10
9.76333e-08
-3.60244e-10
9.75178e-08
-4.03759e-10
9.74099e-08
-4.45612e-10
9.7315e-08
-4.87931e-10
9.7235e-08
-5.29596e-10
9.71783e-08
-5.71246e-10
9.71587e-08
-6.18659e-10
9.7174e-08
-6.7694e-10
9.72332e-08
-7.43611e-10
9.73628e-08
-8.35766e-10
9.75805e-08
-9.90343e-10
9.78897e-08
-1.24139e-09
9.82923e-08
-1.67638e-09
9.87024e-08
-2.07495e-09
9.90567e-08
-2.39949e-09
9.93357e-08
-2.69803e-09
9.95311e-08
-2.94422e-09
9.96403e-08
-3.1006e-09
9.96712e-08
-3.16239e-09
9.96377e-08
-3.13949e-09
9.95524e-08
-3.0346e-09
9.94297e-08
-2.85797e-09
9.92857e-08
-2.62594e-09
9.91358e-08
-2.35314e-09
9.89939e-08
-2.0529e-09
9.88716e-08
-1.73875e-09
9.87774e-08
-1.42349e-09
9.87169e-08
-1.11818e-09
9.86922e-08
-8.31684e-10
9.87025e-08
-5.70655e-10
9.87441e-08
-3.39448e-10
9.88121e-08
-1.40208e-10
9.88993e-08
2.63555e-11
9.89993e-08
1.61954e-10
9.91055e-08
2.69552e-10
3.52435e-10
9.9212e-08