/*--------------------------------*- C++ -*----------------------------------*\
| =========                 |                                                 |
| \\      /  F ield         | OpenFOAM: The Open Source CFD Toolbox           |
|  \\    /   O peration     | Version:  2312                                  |
|   \\  /    A nd           | Website:  www.openfoam.com                      |
|    \\/     M anipulation  |                                                 |
\*---------------------------------------------------------------------------*/
FoamFile
{
    version     2.0;
    format      ascii;
    arch        "LSB;label=32;scalar=64";
    class       volVectorField;
    location    "180.75";
    object      U;
}
// * * * * * * * * * * * * * * * * * * * * * * * * * * * * * * * * * * * * * //

dimensions      [0 1 -1 0 0 0 0];

internalField   nonuniform List<vector> 
4800
(
(0.000491067 3.8792e-07 -3.42486e-26)
(0.000481137 4.53345e-07 -2.41494e-25)
(0.000474476 4.91028e-07 3.09757e-25)
(0.000470112 5.01338e-07 1.4228e-25)
(0.000467459 4.81502e-07 2.10606e-24)
(0.000466173 4.50492e-07 -5.02087e-24)
(0.000466058 3.93276e-07 4.68929e-24)
(0.000467085 3.08894e-07 -6.79074e-24)
(0.000469197 1.64708e-07 2.18286e-24)
(0.000472561 -1.17803e-07 7.42869e-24)
(0.000477606 -6.74011e-07 -2.29043e-24)
(0.000485665 -2.14586e-06 -1.95707e-25)
(0.000504039 -7.4985e-06 -2.78392e-24)
(0.000551309 -2.92133e-05 1.27447e-24)
(0.000630701 -9.65378e-05 -1.00796e-24)
(0.00151512 2.02666e-06 -1.08925e-25)
(0.00148455 1.60698e-06 1.35782e-25)
(0.00146378 1.26618e-06 -1.25838e-24)
(0.00144991 9.49845e-07 9.39525e-25)
(0.00144115 6.1715e-07 3.02766e-24)
(0.00143646 2.61647e-07 -4.83648e-24)
(0.0014352 -1.73348e-07 -1.3705e-24)
(0.0014372 -7.56902e-07 -3.20557e-25)
(0.00144222 -1.58817e-06 1.12597e-23)
(0.00145087 -2.98349e-06 -8.33096e-24)
(0.00146427 -5.60235e-06 9.07466e-25)
(0.0014853 -1.17037e-05 1.37782e-24)
(0.0015229 -2.91549e-05 -2.0276e-24)
(0.00158833 -8.24174e-05 -5.92332e-25)
(0.00165983 -0.000204077 2.62738e-24)
(0.00264362 6.55326e-06 -7.79353e-26)
(0.00259072 5.18263e-06 7.96071e-26)
(0.00255441 4.10035e-06 8.23193e-25)
(0.00252977 3.13076e-06 -1.96484e-24)
(0.00251379 2.15445e-06 1.93091e-24)
(0.00250465 1.06775e-06 1.8224e-24)
(0.00250118 -2.68892e-07 -4.66435e-24)
(0.00250303 -2.03483e-06 -2.85915e-24)
(0.00250953 -4.49759e-06 6.95002e-24)
(0.00252164 -8.42276e-06 2.62969e-24)
(0.00254043 -1.53009e-05 -9.14664e-24)
(0.00256813 -2.91837e-05 -1.37121e-24)
(0.00260892 -5.99265e-05 3.90165e-24)
(0.00266159 -0.000127679 6.13432e-24)
(0.00270023 -0.000241827 -3.16467e-24)
(0.00388256 1.47249e-05 2.87869e-26)
(0.00380609 1.17707e-05 -2.00916e-25)
(0.00375301 9.4435e-06 8.9851e-25)
(0.00371643 7.37107e-06 9.65459e-25)
(0.00369209 5.30532e-06 -9.56503e-25)
(0.00367735 3.03099e-06 -5.54771e-24)
(0.00367034 2.99636e-07 -3.7841e-24)
(0.00367067 -3.36464e-06 1.40467e-23)
(0.00367681 -8.12324e-06 5.77794e-24)
(0.00368973 -1.55749e-05 -8.4033e-24)
(0.0037098 -2.76752e-05 -3.38847e-24)
(0.00373727 -4.90183e-05 -2.57708e-24)
(0.00377133 -8.79121e-05 7.96231e-26)
(0.00380458 -0.000154947 1.90211e-24)
(0.00381787 -0.000245938 9.29639e-27)
(0.00523585 2.73648e-05 -5.27764e-26)
(0.00513552 2.20662e-05 -3.23987e-25)
(0.00506501 1.78918e-05 -2.06829e-25)
(0.00501562 1.41948e-05 5.54962e-25)
(0.0049819 1.05494e-05 -1.58395e-24)
(0.00496041 6.61206e-06 3.95329e-24)
(0.00494862 1.94052e-06 -6.9632e-25)
(0.00494553 -4.02806e-06 2.42734e-24)
(0.00494948 -1.16896e-05 -1.34427e-23)
(0.00496036 -2.29737e-05 2.56768e-23)
(0.00497763 -3.99168e-05 -2.48864e-23)
(0.00499966 -6.62186e-05 1.31188e-23)
(0.00502294 -0.000106954 -1.21694e-23)
(0.00503941 -0.000165493 1.149e-23)
(0.00503804 -0.000234514 -4.58724e-24)
(0.0067036 4.53986e-05 6.96709e-26)
(0.00658089 3.69517e-05 2.50526e-25)
(0.00649335 3.0281e-05 -1.32344e-24)
(0.00643096 2.4401e-05 -8.42466e-25)
(0.00638729 1.8669e-05 2.25433e-24)
(0.00635815 1.25973e-05 8.10269e-25)
(0.00634043 5.56721e-06 -6.34158e-24)
(0.00633231 -3.01618e-06 1.51349e-23)
(0.00633201 -1.39353e-05 -1.96755e-23)
(0.00633837 -2.8826e-05 4.71901e-24)
(0.00634971 -4.93971e-05 1.43361e-23)
(0.00636345 -7.79178e-05 -1.99132e-23)
(0.00637549 -0.000116379 9.96861e-24)
(0.00637976 -0.000164347 1.02605e-23)
(0.00637105 -0.000215615 -7.81667e-24)
(0.00827977 6.95129e-05 5.76247e-26)
(0.00813899 5.72102e-05 -3.41632e-25)
(0.00803668 4.74308e-05 1.22699e-24)
(0.00796235 3.88282e-05 -1.70495e-24)
(0.00790902 3.05289e-05 -5.80849e-24)
(0.00787193 2.18963e-05 9.90266e-24)
(0.00784753 1.21967e-05 -6.01676e-24)
(0.00783333 7.27431e-07 2.04777e-23)
(0.00782714 -1.32563e-05 -1.39287e-23)
(0.00782705 -3.10992e-05 -6.50756e-24)
(0.00783072 -5.38905e-05 -1.28062e-23)
(0.00783528 -8.24837e-05 1.17702e-23)
(0.00783733 -0.000116874 3.31461e-24)
(0.00783305 -0.000155261 2.85272e-24)
(0.00782061 -0.000193407 -2.51143e-24)
(0.00994955 9.96584e-05 -8.33061e-26)
(0.00979899 8.31368e-05 1.13166e-24)
(0.00968693 6.98313e-05 -2.63855e-24)
(0.00960367 5.8096e-05 -2.17124e-24)
(0.00954237 4.68599e-05 8.07317e-25)
(0.00949813 3.53605e-05 1.59701e-24)
(0.00946717 2.28231e-05 5.74394e-24)
(0.00944656 8.51817e-06 -1.56521e-23)
(0.00943374 -8.18194e-06 -8.3556e-24)
(0.00942637 -2.81324e-05 2.29874e-23)
(0.00942195 -5.17958e-05 -7.14054e-24)
(0.00941787 -7.90708e-05 2.44325e-23)
(0.0094117 -0.000109053 -1.28687e-23)
(0.00940129 -0.000139885 -4.12552e-24)
(0.00938643 -0.000168961 2.44676e-24)
(0.011688 0.000134406 -1.11246e-26)
(0.0115404 0.00011401 6.27034e-25)
(0.011427 9.72045e-05 -8.93049e-25)
(0.0113404 8.22347e-05 2.14675e-24)
(0.0112748 6.79373e-05 -1.28172e-23)
(0.0112258 5.34919e-05 1.35374e-23)
(0.0111897 3.81609e-05 -2.13607e-23)
(0.0111635 2.13003e-05 1.31286e-23)
(0.0111445 2.45594e-06 9.77172e-24)
(0.0111303 -1.87383e-05 2.1249e-23)
(0.0111186 -4.22492e-05 -2.77645e-23)
(0.0111073 -6.75185e-05 -5.1713e-24)
(0.0110949 -9.34755e-05 2.34529e-24)
(0.0110801 -0.000118705 1.70837e-23)
(0.0110633 -0.000141704 -6.9651e-24)
(0.0134632 0.000170375 6.25276e-26)
(0.0133342 0.000147498 -2.66566e-25)
(0.0132305 0.000127944 1.18244e-24)
(0.0131486 0.000110167 -4.14941e-24)
(0.0130845 9.30983e-05 6.29467e-24)
(0.0130348 7.5981e-05 -8.13615e-24)
(0.0129966 5.82022e-05 1.36311e-23)
(0.012967 3.92923e-05 2.39976e-24)
(0.0129437 1.90224e-05 -1.88164e-23)
(0.0129245 -2.62633e-06 2.68495e-23)
(0.0129075 -2.53194e-05 -2.96385e-23)
(0.0128911 -4.84006e-05 -8.78929e-24)
(0.0128745 -7.09777e-05 1.54506e-23)
(0.0128568 -9.21351e-05 4.61075e-24)
(0.0128388 -0.000111056 -2.01855e-24)
(0.0152474 0.000202501 2.66496e-25)
(0.0151502 0.000179526 -2.10579e-24)
(0.0150672 0.00015878 -3.31552e-24)
(0.0149985 0.000139282 7.88703e-24)
(0.0149427 0.000120275 3.5261e-24)
(0.0148978 0.000101214 -2.21535e-23)
(0.0148616 8.17039e-05 6.81735e-24)
(0.0148322 6.1505e-05 4.91137e-24)
(0.0148076 4.06094e-05 -2.13411e-23)
(0.0147861 1.92137e-05 2.21928e-23)
(0.0147665 -2.25342e-06 -1.78947e-23)
(0.0147477 -2.32206e-05 4.59182e-23)
(0.0147292 -4.30596e-05 -2.21596e-23)
(0.0147104 -6.12483e-05 1.3086e-23)
(0.0146922 -7.73745e-05 -3.58087e-24)
(0.0170337 0.000226126 -1.23225e-25)
(0.016972 0.000205541 1.47086e-24)
(0.0169152 0.000185515 -2.79782e-24)
(0.0168654 0.000165806 -1.39925e-24)
(0.016823 0.000146122 1.56837e-23)
(0.0167874 0.000126241 -2.27698e-24)
(0.0167573 0.000106041 -2.78967e-23)
(0.0167316 8.55254e-05 3.25691e-23)
(0.016709 6.48613e-05 -7.30312e-24)
(0.0166884 4.43517e-05 -2.54099e-23)
(0.0166692 2.43974e-05 2.7171e-23)
(0.0166506 5.42345e-06 1.4768e-23)
(0.0166325 -1.21721e-05 -1.23077e-23)
(0.0166144 -2.81278e-05 -2.15275e-23)
(0.0165972 -4.22593e-05 1.81281e-24)
(0.0188432 0.000240274 2.32491e-26)
(0.0188088 0.000223343 -1.69979e-24)
(0.0187744 0.000205371 7.75465e-24)
(0.0187425 0.000186715 4.14963e-25)
(0.0187139 0.000167549 4.29925e-24)
(0.0186888 0.000147991 -1.54911e-23)
(0.0186665 0.000128183 1.32219e-23)
(0.0186464 0.000108318 3.02666e-24)
(0.018628 8.86721e-05 2.72917e-23)
(0.0186105 6.95661e-05 -4.20969e-23)
(0.0185938 5.13358e-05 -1.91357e-23)
(0.0185774 3.42654e-05 -1.2744e-23)
(0.0185614 1.85874e-05 2.39206e-23)
(0.0185455 4.41079e-06 -7.00191e-25)
(0.0185303 -8.20031e-06 2.33592e-24)
(0.0207023 0.000248551 -5.28523e-27)
(0.0206822 0.000234821 1.8417e-24)
(0.0206609 0.000219165 -2.66734e-24)
(0.0206405 0.000202088 1.49166e-26)
(0.0206216 0.000184077 3.19894e-24)
(0.0206043 0.000165547 8.0903e-24)
(0.0205882 0.000146836 -3.1392e-23)
(0.0205731 0.000128246 2.6455e-24)
(0.0205587 0.00011009 1.59502e-23)
(0.0205446 9.26525e-05 -7.38086e-24)
(0.0205309 7.61908e-05 2.0142e-23)
(0.0205172 6.08829e-05 1.41908e-23)
(0.0205038 4.68537e-05 -2.57222e-23)
(0.0204904 3.41321e-05 1.77008e-23)
(0.0204777 2.27227e-05 -1.47188e-23)
(0.0226029 0.000254484 -2.91865e-25)
(0.0225905 0.00024391 -2.99704e-25)
(0.0225754 0.00023014 3.3476e-24)
(0.0225606 0.000214617 -1.57474e-23)
(0.0225466 0.000197931 1.3759e-23)
(0.0225334 0.000180684 -9.72847e-24)
(0.0225209 0.000163328 7.00686e-24)
(0.0225087 0.000146205 -4.92364e-23)
(0.0224969 0.000129616 7.10824e-23)
(0.0224852 0.000113793 -4.19045e-23)
(0.0224737 9.89217e-05 3.74513e-23)
(0.0224622 8.51048e-05 3.14636e-23)
(0.0224509 7.2404e-05 -5.49955e-23)
(0.0224396 6.08087e-05 1.79325e-23)
(0.0224289 5.02977e-05 -7.55447e-25)
(0.0244899 0.000257873 -1.0693e-26)
(0.0244836 0.000251061 -1.19152e-24)
(0.0244734 0.000239758 1.27313e-24)
(0.0244624 0.000225993 -4.46543e-25)
(0.0244515 0.000210842 5.85039e-24)
(0.024441 0.000195071 -9.90519e-24)
(0.0244307 0.000179192 9.03734e-24)
(0.0244205 0.000163557 -2.82801e-23)
(0.0244105 0.000148446 6.4161e-23)
(0.0244004 0.000134051 -8.1986e-23)
(0.0243906 0.000120506 6.71387e-23)
(0.0243806 0.000107871 -2.26764e-23)
(0.024371 9.61748e-05 1.18787e-24)
(0.0243613 8.53916e-05 5.24002e-24)
(0.0243521 7.5493e-05 -1.00274e-23)
(0.0262777 0.000259338 -8.52523e-25)
(0.0262748 0.000254977 5.02354e-25)
(0.0262697 0.000247402 1.28144e-24)
(0.0262624 0.000235858 -3.12772e-24)
(0.0262547 0.000222636 1.06443e-23)
(0.0262468 0.000208635 -1.04183e-23)
(0.0262388 0.000194393 -8.64297e-24)
(0.0262307 0.000180272 -2.04421e-23)
(0.0262225 0.00016655 1.07961e-23)
(0.0262143 0.000153408 4.9548e-23)
(0.0262061 0.000140958 -2.60752e-23)
(0.0261978 0.000129245 1.54676e-23)
(0.0261898 0.000118284 -6.37253e-24)
(0.0261816 0.000108054 -1.88595e-23)
(0.0261738 9.8529e-05 9.65198e-24)
(0.0278503 0.00025904 2.84722e-25)
(0.0278495 0.000256675 -3.46065e-25)
(0.0278474 0.000251681 1.8405e-24)
(0.0278436 0.000243247 -7.03144e-24)
(0.0278387 0.000232158 -1.98483e-24)
(0.0278335 0.000220156 1.92459e-23)
(0.027828 0.000207723 -1.43132e-23)
(0.0278221 0.000195208 -8.1439e-24)
(0.027816 0.000182886 7.68533e-24)
(0.0278097 0.000170933 -8.4263e-24)
(0.0278034 0.00015946 1.97422e-23)
(0.027797 0.000148515 9.77846e-24)
(0.0277907 0.000138122 -3.65989e-23)
(0.0277842 0.000128269 2.519e-23)
(0.0277779 0.000118946 -5.11763e-24)
(0.0290389 0.000258129 9.10135e-25)
(0.0290426 0.0002575 4.52774e-25)
(0.0290432 0.000254007 -1.4247e-24)
(0.0290425 0.000247518 3.05454e-24)
(0.029041 0.000238698 -4.5182e-24)
(0.0290388 0.000228739 -8.53019e-24)
(0.029036 0.0002181 -8.54241e-24)
(0.0290327 0.000207152 2.34452e-23)
(0.0290291 0.000196168 2.12544e-23)
(0.0290252 0.000185327 -5.08953e-23)
(0.0290212 0.000174742 2.85078e-23)
(0.0290169 0.000164473 -1.93995e-24)
(0.0290125 0.000154555 -1.54445e-24)
(0.029008 0.000144995 2.0572e-24)
(0.0290036 0.000135796 -9.41135e-25)
(0.0296224 0.000249029 -2.2411e-24)
(0.0296306 0.000251835 -2.89259e-24)
(0.029636 0.00025039 4.22241e-24)
(0.0296395 0.000245966 9.95449e-25)
(0.029642 0.000239433 3.86936e-25)
(0.0296436 0.00023146 3.49484e-24)
(0.0296443 0.000222575 -2.74314e-24)
(0.0296444 0.000213161 -1.86536e-23)
(0.0296441 0.000203482 4.1664e-23)
(0.0296433 0.000193708 -1.7124e-23)
(0.0296421 0.000183954 6.54649e-24)
(0.0296407 0.000174293 -1.1553e-23)
(0.029639 0.000164777 -1.15917e-23)
(0.0296371 0.000155433 1.6902e-23)
(0.029635 0.000146279 -7.21407e-24)
(0.0294114 0.000237831 3.32616e-24)
(0.0294209 0.000242355 -6.95269e-24)
(0.0294284 0.000242753 1.73903e-24)
(0.0294344 0.000240234 4.08932e-24)
(0.0294392 0.000235558 -1.82931e-24)
(0.0294432 0.000229325 -1.62173e-24)
(0.0294465 0.000222013 -7.61426e-24)
(0.0294491 0.000213972 1.87988e-23)
(0.0294512 0.000205446 5.25212e-24)
(0.0294529 0.000196596 -1.18946e-23)
(0.0294541 0.00018754 -6.3507e-24)
(0.029455 0.000178363 7.37996e-24)
(0.0294556 0.000169131 -7.88807e-24)
(0.029456 0.000159889 4.52261e-24)
(0.029456 0.000150669 -1.96309e-24)
(0.0284163 0.000223986 1.95276e-24)
(0.0284318 0.000229053 -3.87618e-24)
(0.0284452 0.000230359 -1.7396e-24)
(0.0284568 0.000228927 8.21721e-24)
(0.0284668 0.000225469 -5.77572e-24)
(0.0284756 0.000220506 1.22633e-24)
(0.0284833 0.000214432 3.26099e-25)
(0.0284902 0.000207533 -6.92263e-25)
(0.0284961 0.000200011 -2.31458e-24)
(0.0285014 0.000192017 1.54671e-23)
(0.0285059 0.000183663 -9.49071e-24)
(0.0285099 0.000175038 1.23241e-24)
(0.0285133 0.000166212 -1.38702e-23)
(0.0285164 0.000157234 6.72293e-24)
(0.0285189 0.000148146 2.23458e-24)
(0.0268357 0.000206738 4.69227e-24)
(0.026852 0.00021161 -8.04534e-24)
(0.0268669 0.000213184 1.72512e-24)
(0.0268806 0.000212317 -2.54606e-24)
(0.026893 0.000209636 -1.91266e-24)
(0.0269045 0.00020557 8.59361e-24)
(0.026915 0.000200422 -2.22083e-24)
(0.0269248 0.000194414 -2.38259e-27)
(0.0269338 0.000187721 2.88165e-25)
(0.026942 0.000180477 3.33557e-24)
(0.0269496 0.00017279 -7.79192e-24)
(0.0269567 0.000164742 6.63022e-24)
(0.0269631 0.000156402 -4.7796e-25)
(0.0269691 0.000147821 -2.29811e-24)
(0.0269746 0.000139042 3.78357e-25)
(0.024926 0.000190159 1.76993e-24)
(0.0249448 0.000194481 -8.65305e-24)
(0.0249626 0.000196008 1.41616e-23)
(0.0249792 0.000195414 -1.00589e-23)
(0.0249949 0.000193197 8.44834e-24)
(0.0250096 0.00018969 -3.27042e-24)
(0.0250234 0.000185134 -1.86228e-24)
(0.0250363 0.000179717 -1.08344e-24)
(0.0250485 0.00017359 -8.47365e-26)
(0.0250599 0.000166873 -1.56512e-24)
(0.0250706 0.000159664 2.07647e-24)
(0.0250807 0.00015204 1.19362e-24)
(0.0250901 0.000144065 -1.96485e-24)
(0.025099 0.00013579 7.16454e-25)
(0.0251073 0.00012726 -2.19878e-25)
(0.0228323 0.00017241 2.33186e-25)
(0.0228548 0.000175954 -3.23894e-24)
(0.0228764 0.000177171 -1.49446e-24)
(0.022897 0.000176564 1.31648e-23)
(0.0229166 0.000174513 -1.22207e-23)
(0.0229352 0.000171286 3.38801e-24)
(0.0229529 0.000167081 4.75702e-25)
(0.0229697 0.000162056 -1.89665e-25)
(0.0229856 0.000156341 -4.09179e-25)
(0.0230007 0.000150039 5.65732e-25)
(0.023015 0.000143238 4.78453e-26)
(0.0230286 0.000136007 3.7678e-25)
(0.0230414 0.000128405 -3.43818e-25)
(0.0230535 0.000120483 -1.03187e-24)
(0.0230649 0.000112284 8.89972e-25)
(0.0206694 0.000152724 3.46125e-25)
(0.020696 0.000155388 3.00495e-24)
(0.0207218 0.000156147 -3.47191e-24)
(0.0207466 0.000155372 -2.15605e-24)
(0.0207704 0.000153352 1.28779e-23)
(0.0207931 0.000150297 -9.85969e-24)
(0.0208148 0.000146369 -3.35498e-25)
(0.0208355 0.000141699 -1.52729e-24)
(0.0208553 0.000136391 4.18157e-26)
(0.0208741 0.000130534 2.83899e-25)
(0.020892 0.000124202 2.0158e-25)
(0.020909 0.000117456 3.52381e-25)
(0.0209251 0.000110351 2.21842e-25)
(0.0209404 0.000102932 1.24085e-26)
(0.0209548 9.52423e-05 -6.24913e-25)
(0.0185192 0.000131492 2.47143e-24)
(0.0185496 0.000133319 -3.74708e-24)
(0.0185792 0.00013362 -2.76142e-24)
(0.0186077 0.00013267 8.35969e-24)
(0.0186352 0.000130682 -3.00797e-24)
(0.0186615 0.000127814 -3.71024e-24)
(0.0186867 0.000124194 1.35822e-24)
(0.0187108 0.000119925 2.37077e-24)
(0.0187338 0.000115092 -3.18803e-24)
(0.0187557 0.000109767 2.59495e-24)
(0.0187766 0.000104011 -9.3589e-25)
(0.0187964 9.78774e-05 9.75154e-26)
(0.0188151 9.14144e-05 7.138e-25)
(0.0188328 8.46641e-05 -1.14437e-24)
(0.0188493 7.7666e-05 4.75872e-25)
(0.016435 0.000109679 -4.8168e-25)
(0.0164681 0.000110816 -1.60126e-24)
(0.0165003 0.000110764 -4.89184e-24)
(0.0165315 0.000109722 1.36119e-23)
(0.0165614 0.000107838 -2.58271e-24)
(0.0165902 0.000105227 -3.59368e-24)
(0.0166178 0.000101987 1.04312e-24)
(0.0166441 9.81981e-05 -1.54889e-24)
(0.0166692 9.3927e-05 -2.5725e-24)
(0.0166931 8.92314e-05 2.53254e-24)
(0.0167158 8.4162e-05 1.18731e-25)
(0.0167372 7.87645e-05 -1.5887e-27)
(0.0167573 7.30811e-05 3.59289e-26)
(0.0167762 6.71499e-05 -1.03316e-25)
(0.0167938 6.10071e-05 1.12384e-25)
(0.0144479 8.84813e-05 1.86299e-24)
(0.0144822 8.91177e-05 2.60291e-24)
(0.0145156 8.88549e-05 -2.55301e-24)
(0.0145478 8.78322e-05 -5.13183e-24)
(0.0145788 8.61408e-05 6.62919e-24)
(0.0146085 8.38651e-05 -6.93716e-24)
(0.014637 8.10787e-05 -2.56235e-26)
(0.0146642 7.78426e-05 2.51589e-24)
(0.01469 7.42084e-05 7.80089e-25)
(0.0147145 7.0222e-05 -1.12337e-24)
(0.0147377 6.5925e-05 3.77915e-25)
(0.0147594 6.13561e-05 1.08463e-24)
(0.0147797 5.65516e-05 -3.66982e-25)
(0.0147986 5.15448e-05 8.44908e-26)
(0.014816 4.63677e-05 2.16655e-26)
(0.0125747 6.89841e-05 -1.94507e-24)
(0.0126085 6.92988e-05 2.49083e-24)
(0.0126413 6.89592e-05 2.51354e-25)
(0.0126731 6.80488e-05 4.59326e-24)
(0.0127036 6.66198e-05 -3.83391e-24)
(0.0127329 6.47344e-05 1.9233e-25)
(0.0127609 6.24472e-05 -4.64005e-25)
(0.0127875 5.98036e-05 -1.05174e-24)
(0.0128128 5.68426e-05 6.73261e-25)
(0.0128367 5.36004e-05 -2.12465e-24)
(0.0128591 5.01102e-05 3.81812e-25)
(0.01288 4.64038e-05 5.06025e-25)
(0.0128994 4.25115e-05 1.845e-25)
(0.0129173 3.84612e-05 8.65788e-27)
(0.0129336 3.42803e-05 -5.18664e-26)
(0.0108233 5.19378e-05 1.44751e-24)
(0.0108551 5.2072e-05 -1.1543e-24)
(0.0108861 5.17519e-05 -4.77597e-24)
(0.010916 5.10097e-05 4.47677e-24)
(0.0109447 4.98758e-05 5.82458e-24)
(0.0109723 4.8397e-05 -1.67807e-24)
(0.0109987 4.66122e-05 -2.95261e-24)
(0.0110237 4.4554e-05 -3.60637e-24)
(0.0110474 4.22512e-05 2.60723e-24)
(0.0110697 3.97315e-05 6.85272e-26)
(0.0110905 3.7021e-05 -4.29249e-25)
(0.0111098 3.41447e-05 -1.94793e-26)
(0.0111276 3.11269e-05 6.18772e-26)
(0.0111439 2.79901e-05 -4.34005e-26)
(0.0111584 2.47571e-05 5.42105e-26)
(0.00919686 3.77005e-05 -9.14731e-25)
(0.0092256 3.77507e-05 -6.12466e-25)
(0.00925359 3.75011e-05 7.96345e-25)
(0.00928068 3.69432e-05 -2.29126e-24)
(0.00930678 3.60995e-05 7.4414e-24)
(0.00933181 3.50041e-05 -9.48197e-24)
(0.00935568 3.36833e-05 8.89899e-24)
(0.00937835 3.21596e-05 -3.65431e-24)
(0.00939975 3.04539e-05 6.82348e-25)
(0.00941981 2.85868e-05 -1.07691e-25)
(0.00943849 2.65774e-05 -5.10627e-25)
(0.00945575 2.44453e-05 -1.23011e-26)
(0.00947152 2.22088e-05 -1.54877e-25)
(0.00948579 1.98858e-05 2.67187e-26)
(0.00949849 1.7494e-05 -2.38474e-26)
(0.00769548 2.62961e-05 -4.45994e-25)
(0.00772048 2.63178e-05 1.22458e-25)
(0.00774489 2.61515e-05 2.45137e-25)
(0.00776857 2.57639e-05 -1.06077e-24)
(0.00779142 2.51767e-05 -4.22162e-25)
(0.00781334 2.44129e-05 3.90815e-24)
(0.00783426 2.34888e-05 -2.26055e-24)
(0.00785412 2.24197e-05 2.80383e-25)
(0.00787284 2.12201e-05 -2.81428e-25)
(0.00789036 1.99045e-05 -2.37223e-25)
(0.00790663 1.84867e-05 -8.64353e-27)
(0.0079216 1.6981e-05 2.70197e-25)
(0.00793522 1.54008e-05 -1.06497e-25)
(0.00794747 1.37595e-05 -1.12892e-26)
(0.00795829 1.20706e-05 3.80419e-26)
(0.00631735 1.75169e-05 -1.62632e-25)
(0.0063383 1.75343e-05 -4.87244e-26)
(0.00635885 1.74403e-05 -2.48992e-24)
(0.00637882 1.71924e-05 7.21022e-25)
(0.00639813 1.68128e-05 -1.61466e-24)
(0.0064167 1.63142e-05 1.28341e-24)
(0.00643444 1.57065e-05 2.15559e-24)
(0.00645129 1.49996e-05 1.43445e-24)
(0.00646717 1.42029e-05 -1.90396e-24)
(0.00648203 1.33263e-05 5.70432e-25)
(0.00649581 1.23792e-05 3.46787e-25)
(0.00650847 1.13714e-05 -3.20751e-25)
(0.00651996 1.03123e-05 1.60535e-25)
(0.00653026 9.21176e-06 6.56668e-26)
(0.00653931 8.07924e-06 -6.91289e-26)
(0.00505898 1.10251e-05 -6.3833e-25)
(0.00507585 1.10439e-05 -8.40136e-25)
(0.00509249 1.10014e-05 -1.13718e-25)
(0.00510872 1.08577e-05 2.06087e-24)
(0.00512445 1.06327e-05 -1.3924e-24)
(0.00513961 1.03316e-05 -2.1704e-25)
(0.00515413 9.96009e-06 2.08087e-24)
(0.00516794 9.52413e-06 -5.5293e-26)
(0.00518097 9.02957e-06 -4.23784e-25)
(0.00519318 8.48265e-06 -1.14463e-24)
(0.00520451 7.88935e-06 2.5766e-25)
(0.00521491 7.25626e-06 5.38248e-25)
(0.00522436 6.58941e-06 -6.0977e-26)
(0.00523281 5.89576e-06 6.05684e-26)
(0.00524024 5.1817e-06 -5.92768e-26)
(0.00391543 6.43203e-06 -1.39738e-25)
(0.00392841 6.44902e-06 1.12406e-26)
(0.00394129 6.43705e-06 1.00039e-24)
(0.00395388 6.36415e-06 6.24224e-25)
(0.00396614 6.24503e-06 -4.8215e-25)
(0.003978 6.08054e-06 -1.06809e-24)
(0.00398938 5.87371e-06 3.95974e-25)
(0.00400024 5.62784e-06 -1.56969e-24)
(0.00401051 5.34627e-06 1.19175e-24)
(0.00402015 5.0327e-06 4.80199e-25)
(0.00402911 4.69064e-06 -1.0364e-25)
(0.00403736 4.32416e-06 -3.88597e-25)
(0.00404486 3.93685e-06 2.63479e-26)
(0.00405159 3.53334e-06 3.06751e-26)
(0.00405751 3.11796e-06 -2.98981e-26)
(0.00288062 3.35067e-06 -2.57598e-25)
(0.00289001 3.35939e-06 1.08545e-26)
(0.00289939 3.36035e-06 8.07295e-25)
(0.0029086 3.32978e-06 -5.02501e-25)
(0.0029176 3.27609e-06 1.93702e-24)
(0.00292633 3.19821e-06 -3.4716e-24)
(0.00293475 3.09762e-06 2.69784e-24)
(0.00294281 2.9759e-06 -2.12461e-24)
(0.00295046 2.83474e-06 1.41461e-24)
(0.00295767 2.67608e-06 -8.08412e-25)
(0.00296439 2.50176e-06 2.62041e-25)
(0.00297059 2.31403e-06 2.92234e-26)
(0.00297625 2.11479e-06 1.25794e-28)
(0.00298135 1.90686e-06 1.26006e-26)
(0.00298586 1.69328e-06 -1.21451e-26)
(0.00194763 1.43554e-06 3.9122e-25)
(0.00195381 1.43237e-06 4.05194e-25)
(0.00196002 1.43419e-06 -1.74538e-24)
(0.00196614 1.42406e-06 1.25383e-24)
(0.00197216 1.40497e-06 -2.15737e-26)
(0.00197803 1.37574e-06 2.82583e-25)
(0.00198371 1.33687e-06 -3.69998e-25)
(0.00198917 1.28892e-06 -6.80242e-25)
(0.00199437 1.23252e-06 6.45023e-25)
(0.00199929 1.16847e-06 3.22681e-26)
(0.0020039 1.09751e-06 -3.6959e-25)
(0.00200818 1.02065e-06 1.38286e-25)
(0.0020121 9.38644e-07 3.27635e-26)
(0.00201565 8.52945e-07 -8.13141e-27)
(0.00201881 7.65672e-07 8.04071e-27)
(0.00110903 4.18743e-07 -3.9506e-25)
(0.00111239 4.18297e-07 1.1908e-24)
(0.00111581 4.23809e-07 6.69598e-25)
(0.00111919 4.25071e-07 -1.24561e-24)
(0.00112253 4.22813e-07 -1.43949e-25)
(0.00112581 4.16888e-07 -1.20208e-25)
(0.00112901 4.07618e-07 3.41365e-25)
(0.00113209 3.95263e-07 -5.55004e-25)
(0.00113505 3.80037e-07 6.85395e-25)
(0.00113786 3.62214e-07 -3.38515e-25)
(0.00114051 3.41978e-07 -1.64138e-25)
(0.00114298 3.1963e-07 8.04999e-26)
(0.00114526 2.95264e-07 -1.24712e-26)
(0.00114734 2.69303e-07 -1.53144e-26)
(0.0011492 2.42849e-07 1.71629e-26)
(0.000357183 8.12254e-08 -2.82193e-27)
(0.000358135 1.22477e-07 2.30066e-25)
(0.000359123 1.54017e-07 2.51875e-25)
(0.000360115 1.7471e-07 -4.05291e-25)
(0.000361112 1.86638e-07 7.86726e-25)
(0.000362103 1.91405e-07 -8.55976e-25)
(0.00036308 1.90322e-07 5.11017e-26)
(0.000364034 1.84389e-07 3.9993e-25)
(0.000364958 1.7436e-07 -5.48835e-25)
(0.000365844 1.60817e-07 -6.78615e-26)
(0.000366687 1.44159e-07 2.74801e-25)
(0.00036748 1.247e-07 -1.09494e-25)
(0.000368218 1.02573e-07 -6.044e-27)
(0.000368899 7.79112e-08 -2.77993e-28)
(0.000369516 5.10705e-08 1.39949e-27)
(0.000935755 -0.000259539 9.95597e-26)
(0.00106833 -0.000189171 2.63734e-24)
(0.00129056 -0.000115859 -7.71121e-24)
(0.00151655 -5.74249e-05 1.14647e-23)
(0.00173183 -1.1918e-05 -4.3048e-24)
(0.00194159 2.17126e-05 -4.31336e-24)
(0.00214613 4.62258e-05 4.97416e-24)
(0.00234647 6.39396e-05 -9.97782e-24)
(0.00254375 7.67699e-05 5.92703e-25)
(0.00273894 8.62992e-05 6.35308e-24)
(0.00293288 9.38419e-05 -1.21972e-24)
(0.00312627 0.000100561 1.3226e-24)
(0.00331979 0.000107559 -1.26572e-25)
(0.0035142 0.000115978 8.38817e-25)
(0.00371051 0.000126978 -3.08922e-24)
(0.00391025 0.000141739 1.69918e-24)
(0.00411562 0.000161445 -5.53004e-25)
(0.00432964 0.000186762 2.47025e-26)
(0.00455739 0.000217356 1.37271e-24)
(0.00480497 0.00025205 -8.70732e-25)
(0.00507991 0.000286226 1.13642e-25)
(0.00538765 0.000310455 -1.00315e-25)
(0.00570536 0.000307348 1.93938e-25)
(0.00599125 0.000270074 7.50981e-25)
(0.00623019 0.000203378 -1.34956e-24)
(0.00642139 0.000113087 -9.3064e-25)
(0.00656618 4.54626e-06 1.13713e-26)
(0.00666644 -0.000117725 2.35475e-24)
(0.00672339 -0.00024986 3.42086e-24)
(0.00673758 -0.000387839 -6.74645e-24)
(0.006709 -0.000527018 6.14686e-24)
(0.00663761 -0.000661849 -5.91579e-24)
(0.00652362 -0.000785874 1.6758e-24)
(0.00636779 -0.000891872 4.29669e-25)
(0.00617146 -0.000972012 -5.04622e-25)
(0.00593646 -0.0010179 4.08031e-24)
(0.005665 -0.00102034 -1.87023e-25)
(0.00535944 -0.00096867 2.22764e-24)
(0.00502242 -0.000849286 1.56895e-24)
(0.0046574 -0.000643705 -9.76585e-24)
(0.00426836 -0.0003286 -1.28096e-25)
(0.00386108 0.000116576 4.77631e-24)
(0.00342777 0.000674427 1.83909e-24)
(0.00299094 0.00125283 -6.99231e-24)
(0.00274495 0.00152305 -3.72608e-25)
(0.00175425 -0.000340074 -2.96868e-24)
(0.00180765 -0.000303195 -4.34329e-24)
(0.00194141 -0.000232346 9.02583e-24)
(0.00211035 -0.000166035 4.42018e-24)
(0.00228885 -0.000109754 -1.54873e-23)
(0.00247238 -6.52887e-05 1.67915e-23)
(0.00265704 -3.09951e-05 -6.0547e-24)
(0.00284137 -4.69156e-06 4.96676e-24)
(0.00302513 1.56244e-05 -6.55595e-24)
(0.00320849 3.16858e-05 7.10737e-26)
(0.0033918 4.49542e-05 -3.53632e-24)
(0.00357548 5.67116e-05 7.016e-24)
(0.00376005 6.81449e-05 -3.89127e-24)
(0.00394616 8.04458e-05 -3.54164e-24)
(0.00413474 9.47852e-05 -2.42821e-24)
(0.00432722 0.000112331 4.51732e-24)
(0.00452572 0.00013425 -6.01043e-25)
(0.00473306 0.000161137 2.50984e-24)
(0.00495413 0.000192603 4.52695e-25)
(0.00519475 0.000227518 -7.77181e-25)
(0.00546219 0.000261465 -3.41327e-25)
(0.0057618 0.000285409 -2.15151e-25)
(0.00607203 0.000282654 1.05166e-24)
(0.00635265 0.000246943 1.29279e-24)
(0.00658879 0.000182993 -1.15214e-24)
(0.0067793 9.64433e-05 -5.65147e-24)
(0.00692502 -7.42852e-06 7.65128e-24)
(0.00702745 -0.000124156 -5.40217e-24)
(0.00708759 -0.000249651 1.82099e-24)
(0.00710591 -0.000379783 -1.19563e-24)
(0.00708251 -0.000509807 9.1199e-24)
(0.0070176 -0.000634139 -1.25458e-23)
(0.00691176 -0.00074635 6.87905e-24)
(0.00676624 -0.000839298 -3.96034e-24)
(0.00658306 -0.000905255 9.93349e-25)
(0.00636495 -0.000935925 1.41109e-25)
(0.00611543 -0.000922236 9.08768e-24)
(0.00583885 -0.00085373 -1.73766e-24)
(0.00554094 -0.000717393 -8.82448e-24)
(0.00523027 -0.000495918 -6.17602e-24)
(0.00492032 -0.00016768 1.41422e-23)
(0.00463374 0.000286378 -1.43999e-23)
(0.00439718 0.000849418 -3.96655e-24)
(0.00425633 0.00141391 9.81793e-24)
(0.00427036 0.00161589 3.61453e-24)
(0.00271613 -0.000346323 -3.53197e-26)
(0.00272178 -0.000348858 -5.04548e-24)
(0.00277451 -0.00030908 9.61847e-24)
(0.00287728 -0.000252737 8.5042e-24)
(0.00300516 -0.000196598 -1.37655e-23)
(0.0031494 -0.000147397 2.68717e-25)
(0.00330306 -0.000106668 1.37595e-24)
(0.00346218 -7.36201e-05 1.52352e-23)
(0.00362475 -4.68345e-05 -1.80731e-23)
(0.00378974 -2.47995e-05 1.12183e-23)
(0.00395677 -6.10796e-06 3.42863e-24)
(0.00412579 1.05304e-05 -1.87942e-23)
(0.00429699 2.63244e-05 6.79057e-24)
(0.00447082 4.24772e-05 2.72941e-24)
(0.00464804 6.01496e-05 -5.75412e-24)
(0.00482998 8.048e-05 9.43253e-24)
(0.00501859 0.000104616 -6.74625e-24)
(0.00521647 0.000133071 -1.97963e-25)
(0.00542832 0.000165389 5.00031e-25)
(0.00565966 0.000200496 5.88462e-25)
(0.00591743 0.000234182 6.84723e-26)
(0.00620682 0.0002578 3.72493e-25)
(0.00650769 0.00025535 -1.06518e-24)
(0.00678147 0.000221171 3.17881e-24)
(0.00701356 0.000159973 -5.04153e-24)
(0.00720237 7.72169e-05 2.90363e-24)
(0.00734827 -2.19245e-05 -6.83438e-24)
(0.00745233 -0.000132921 9.21552e-24)
(0.00751532 -0.000251575 -8.6606e-24)
(0.00753763 -0.000373611 2.57109e-25)
(0.00751951 -0.000494184 -1.87187e-25)
(0.00746142 -0.000607682 1.46795e-23)
(0.00736436 -0.000707732 -4.83568e-24)
(0.00723013 -0.000787323 -1.89602e-24)
(0.00706146 -0.000838935 -2.7653e-25)
(0.00686207 -0.000854569 6.96718e-24)
(0.00663686 -0.00082562 -6.28042e-24)
(0.0063922 -0.000742485 1.37777e-23)
(0.00613678 -0.000593885 -2.76808e-23)
(0.00588353 -0.000365988 1.08488e-23)
(0.0056527 -4.32474e-05 4.12694e-24)
(0.00547579 0.000383475 7.17081e-24)
(0.00539033 0.000888779 -8.94999e-24)
(0.00542639 0.00136195 2.91308e-24)
(0.00557237 0.00151708 -1.84531e-24)
(0.00380513 -0.000326898 -1.28301e-24)
(0.0037825 -0.000354044 -2.01031e-24)
(0.00378676 -0.000341251 -8.66681e-24)
(0.00382597 -0.000307845 2.1779e-24)
(0.00389913 -0.000262103 1.47326e-24)
(0.0039958 -0.000216006 7.15955e-24)
(0.00410917 -0.000174158 -1.54526e-23)
(0.00423416 -0.000137836 5.81114e-24)
(0.0043674 -0.000106824 1.99687e-23)
(0.00450675 -8.02768e-05 -5.29313e-24)
(0.00465098 -5.71295e-05 -5.01948e-24)
(0.00479944 -3.62633e-05 -8.02733e-25)
(0.00495193 -1.65611e-05 2.64717e-24)
(0.0051086 3.1225e-06 -5.19751e-24)
(0.00527 2.38909e-05 1.18496e-24)
(0.00543727 4.68192e-05 -4.68372e-25)
(0.00561221 7.30199e-05 -2.70901e-24)
(0.00579716 0.000102909 9.12634e-25)
(0.00599659 0.00013594 4.86963e-24)
(0.00621571 0.000171104 -5.29868e-25)
(0.00646108 0.000204412 -1.15698e-24)
(0.0067377 0.000227597 -3.33029e-25)
(0.00702688 0.000225368 -1.88393e-24)
(0.00729185 0.000192688 -1.18672e-25)
(0.00751824 0.000134272 -4.53207e-24)
(0.007704 5.54041e-05 7.78674e-24)
(0.00784897 -3.88462e-05 -6.87266e-24)
(0.00795379 -0.000143894 1.32997e-23)
(0.008019 -0.000255433 -1.16371e-23)
(0.00804493 -0.000369054 2.558e-24)
(0.00803198 -0.00047984 5.0584e-24)
(0.0079809 -0.000582196 -1.14036e-25)
(0.00789314 -0.000669869 -3.18888e-25)
(0.00777107 -0.000736086 -1.50291e-25)
(0.00761817 -0.0007737 -6.41149e-25)
(0.00743913 -0.000775278 -2.74082e-24)
(0.00724015 -0.000733103 1.59118e-23)
(0.00702932 -0.000639079 -8.16139e-24)
(0.00681758 -0.000484669 2.20172e-25)
(0.00662043 -0.000261049 -2.69826e-23)
(0.00645977 3.9005e-05 2.07875e-23)
(0.00636651 0.000413727 -8.51085e-24)
(0.00637356 0.000833208 1.48716e-24)
(0.00649283 0.00120921 1.18044e-23)
(0.00669508 0.001371 -3.16351e-24)
(0.0050164 -0.000297065 -5.33399e-24)
(0.00498302 -0.00033378 1.09705e-23)
(0.00495843 -0.00034012 3.20223e-24)
(0.00495726 -0.000327338 1.38376e-23)
(0.00497899 -0.000299917 -3.41337e-23)
(0.00502752 -0.000263558 -1.09318e-24)