/*--------------------------------*- C++ -*----------------------------------*\
| =========                 |                                                 |
| \\      /  F ield         | OpenFOAM: The Open Source CFD Toolbox           |
|  \\    /   O peration     | Version:  2312                                  |
|   \\  /    A nd           | Website:  www.openfoam.com                      |
|    \\/     M anipulation  |                                                 |
\*---------------------------------------------------------------------------*/
FoamFile
{
    version     2.0;
    format      ascii;
    arch        "LSB;label=32;scalar=64";
    class       volScalarField;
    location    "100";
    object      p;
}
// * * * * * * * * * * * * * * * * * * * * * * * * * * * * * * * * * * * * * //

dimensions      [0 2 -2 0 0 0 0];

internalField   nonuniform List<scalar> 
4800
(
-3.56969e-13
-2.6427e-07
-5.01032e-07
-7.12746e-07
-9.03065e-07
-1.07456e-06
-1.2294e-06
-1.3692e-06
-1.49495e-06
-1.60684e-06
-1.70475e-06
-1.7916e-06
-1.87852e-06
-1.97882e-06
-2.40775e-06
1.72649e-09
-2.62271e-07
-4.98814e-07
-7.10477e-07
-9.00966e-07
-1.07292e-06
-1.2286e-06
-1.36987e-06
-1.49813e-06
-1.61459e-06
-1.72103e-06
-1.82261e-06
-1.93143e-06
-2.07578e-06
-2.41257e-06
3.89158e-09
-2.59892e-07
-4.96262e-07
-7.0792e-07
-8.98647e-07
-1.07116e-06
-1.22785e-06
-1.3708e-06
-1.50191e-06
-1.62332e-06
-1.73829e-06
-1.85321e-06
-1.9789e-06
-2.13073e-06
-2.35061e-06
6.46942e-09
-2.57047e-07
-4.93185e-07
-7.04763e-07
-8.95635e-07
-1.06859e-06
-1.22613e-06
-1.37051e-06
-1.50397e-06
-1.62904e-06
-1.74914e-06
-1.86915e-06
-1.99455e-06
-2.12766e-06
-2.26967e-06
9.60179e-09
-2.53536e-07
-4.89328e-07
-7.00684e-07
-8.91533e-07
-1.06472e-06
-1.22281e-06
-1.36815e-06
-1.50304e-06
-1.62988e-06
-1.75123e-06
-1.86937e-06
-1.98477e-06
-2.09354e-06
-2.18745e-06
1.3512e-08
-2.49105e-07
-4.84393e-07
-6.95328e-07
-8.85906e-07
-1.05901e-06
-1.21718e-06
-1.36273e-06
-1.49776e-06
-1.62413e-06
-1.74312e-06
-1.85467e-06
-1.95643e-06
-2.04314e-06
-2.10751e-06
1.85296e-08
-2.43389e-07
-4.77962e-07
-6.88198e-07
-8.78145e-07
-1.05068e-06
-1.20824e-06
-1.35295e-06
-1.48651e-06
-1.61002e-06
-1.72358e-06
-1.82575e-06
-1.91342e-06
-1.98252e-06
-2.02913e-06
2.51616e-08
-2.35836e-07
-4.69413e-07
-6.78569e-07
-8.67379e-07
-1.03867e-06
-1.19469e-06
-1.33725e-06
-1.46754e-06
-1.58599e-06
-1.69194e-06
-1.78359e-06
-1.85849e-06
-1.91459e-06
-1.95081e-06
3.41929e-08
-2.25615e-07
-4.57826e-07
-6.65401e-07
-8.52403e-07
-1.02157e-06
-1.17491e-06
-1.31386e-06
-1.43917e-06
-1.55083e-06
-1.64801e-06
-1.72935e-06
-1.79364e-06
-1.84068e-06
-1.87107e-06
4.68155e-08
-2.1149e-07
-4.4187e-07
-6.47235e-07
-8.316e-07
-9.97606e-07
-1.147e-06
-1.28091e-06
-1.39982e-06
-1.50365e-06
-1.59188e-06
-1.66401e-06
-1.72007e-06
-1.76112e-06
-1.78851e-06
6.47743e-08
-1.91685e-07
-4.19668e-07
-6.22089e-07
-8.02869e-07
-9.64584e-07
-1.10879e-06
-1.23646e-06
-1.34807e-06
-1.44378e-06
-1.52369e-06
-1.58819e-06
-1.63825e-06
-1.67565e-06
-1.7019e-06
9.04929e-08
-1.63758e-07
-3.88702e-07
-5.87377e-07
-7.636e-07
-9.19952e-07
-1.05795e-06
-1.17861e-06
-1.28263e-06
-1.37064e-06
-1.44341e-06
-1.50205e-06
-1.54812e-06
-1.58365e-06
-1.61007e-06
1.27092e-07
-1.24577e-07
-3.45786e-07
-5.39928e-07
-7.10725e-07
-8.60878e-07
-9.92054e-07
-1.10549e-06
-1.20229e-06
-1.28361e-06
-1.35076e-06
-1.40533e-06
-1.44916e-06
-1.48425e-06
-1.51182e-06
1.7819e-07
-7.04728e-08
-2.87247e-07
-4.76171e-07
-6.40937e-07
-7.84465e-07
-9.08748e-07
-1.01539e-06
-1.10593e-06
-1.18197e-06
-1.2452e-06
-1.29744e-06
-1.34056e-06
-1.37641e-06
-1.40597e-06
2.47436e-07
2.33186e-09
-2.09358e-07
-3.92575e-07
-5.51092e-07
-6.88105e-07
-8.06034e-07
-9.06893e-07
-9.92595e-07
-1.06504e-06
-1.12611e-06
-1.17766e-06
-1.22145e-06
-1.25912e-06
-1.29145e-06
3.37901e-07
9.71225e-08
-1.08959e-07
-2.86265e-07
-4.38766e-07
-5.69933e-07
-6.82606e-07
-7.79154e-07
-8.61736e-07
-9.32393e-07
-9.93036e-07
-1.04543e-06
-1.09115e-06
-1.13162e-06
-1.16749e-06
4.51576e-07
2.1615e-07
1.60227e-08
-1.55526e-07
-3.02707e-07
-4.29198e-07
-5.38141e-07
-6.32138e-07
-7.13455e-07
-7.84135e-07
-8.46001e-07
-9.00661e-07
-9.49505e-07
-9.93741e-07
-1.0339e-06
5.89005e-07
3.60214e-07
1.66226e-07
-6.66002e-11
-1.43012e-07
-2.66356e-07
-3.73357e-07
-4.66695e-07
-5.48618e-07
-6.21066e-07
-6.85713e-07
-7.43986e-07
-7.97084e-07
-8.46028e-07
-8.913e-07
7.48785e-07
5.28088e-07
3.40327e-07
1.78568e-07
3.8573e-08
-8.3288e-08
-1.90203e-07
-2.84769e-07
-3.69101e-07
-4.4497e-07
-5.13868e-07
-5.77038e-07
-6.35504e-07
-6.90125e-07
-7.41374e-07
9.2667e-07
7.15543e-07
5.34042e-07
3.76062e-07
2.37802e-07
1.15924e-07
7.45544e-09
-8.99875e-08
-1.78299e-07
-2.59036e-07
-3.33491e-07
-4.02728e-07
-4.67615e-07
-5.28874e-07
-5.8701e-07
1.10321e-06
9.022e-07
7.26543e-07
5.7148e-07
4.33869e-07
3.1078e-07
1.99592e-07
9.82183e-08
5.01828e-09
-8.13485e-08
-1.61989e-07
-2.37809e-07
-3.09553e-07
-3.77831e-07
-4.43207e-07
1.25018e-06
1.05819e-06
8.87507e-07
7.34699e-07
5.97243e-07
4.72614e-07
3.58569e-07
2.53332e-07
1.555e-07
6.39226e-08
-2.23496e-08
-1.04096e-07
-1.8196e-07
-2.56469e-07
-3.28174e-07
1.36075e-06
1.17643e-06
1.01009e-06
8.59343e-07
7.22165e-07
5.96361e-07
4.80009e-07
3.71605e-07
2.69951e-07
1.7406e-07
8.31091e-08
-3.57675e-09
-8.65603e-08
-1.66303e-07
-2.43314e-07
1.44198e-06
1.26427e-06
1.10186e-06
9.53133e-07
8.16413e-07
6.89799e-07
5.71654e-07
4.60705e-07
3.55931e-07
2.56479e-07
1.61638e-07
7.08174e-08
-1.64758e-08
-1.00647e-07
-1.82155e-07
1.50048e-06
1.32852e-06
1.16973e-06
1.023e-06
8.86902e-07
7.59803e-07
6.40307e-07
5.2734e-07
4.20027e-07
3.17631e-07
2.19536e-07
1.25228e-07
3.42755e-08
-5.36763e-08
-1.39036e-07
1.54193e-06
1.37506e-06
1.21961e-06
1.07483e-06
9.39474e-07
8.12131e-07
6.91625e-07
5.77045e-07
4.67643e-07
3.62784e-07
2.61936e-07
1.64653e-07
7.05631e-08
-2.06448e-08
-1.09329e-07
1.57092e-06
1.40859e-06
1.25624e-06
1.11332e-06
9.78769e-07
8.5135e-07
7.30081e-07
6.14194e-07
5.0305e-07
3.96105e-07
2.92902e-07
1.9306e-07
9.62565e-08
2.22489e-09
-8.9346e-08
1.59101e-06
1.43276e-06
1.28326e-06
1.14211e-06
1.00836e-06
8.80971e-07
7.59116e-07
6.42152e-07
5.29533e-07
4.20799e-07
3.15562e-07
2.13496e-07
1.14329e-07
1.78335e-08
-7.62583e-08
1.60487e-06
1.45029e-06
1.30341e-06
1.16389e-06
1.03092e-06
9.03618e-07
7.813e-07
6.6343e-07
5.49546e-07
4.39261e-07
3.3225e-07
2.2824e-07
1.27e-07
2.83429e-08
-6.79608e-08
1.61445e-06
1.46318e-06
1.31866e-06
1.18064e-06
1.0484e-06
9.21207e-07
7.98513e-07
6.79865e-07
5.64882e-07
4.53241e-07
3.44672e-07
2.3895e-07
1.35885e-07
3.53213e-08
-6.29316e-08
1.62113e-06
1.47282e-06
1.33042e-06
1.19375e-06
1.06218e-06
9.3511e-07
8.12099e-07
6.92776e-07
5.76827e-07
4.63991e-07
3.54046e-07
2.46811e-07
1.4213e-07
3.98803e-08
-6.00965e-08
1.62584e-06
1.48019e-06
1.33969e-06
1.20423e-06
1.07325e-06
9.46299e-07
8.23013e-07
7.03094e-07
5.86292e-07
4.72397e-07
3.61232e-07
2.52655e-07
1.4654e-07
4.27937e-08
-5.87118e-08
1.62923e-06
1.48594e-06
1.34715e-06
1.21275e-06
1.0823e-06
9.55457e-07
8.31927e-07
7.11479e-07
5.93918e-07
4.7908e-07
3.66831e-07
2.57059e-07
1.49669e-07
4.45935e-08
-5.82705e-08
1.63172e-06
1.49055e-06
1.35325e-06
1.21979e-06
1.08982e-06
9.63063e-07
8.39314e-07
7.18394e-07
6.00155e-07
4.84478e-07
3.71262e-07
2.60427e-07
1.51902e-07
4.56419e-08
-5.84312e-08
1.63359e-06
1.4943e-06
1.35832e-06
1.2257e-06
1.09614e-06
9.6946e-07
8.45511e-07
7.24166e-07
6.05323e-07
4.88896e-07
3.74818e-07
2.63035e-07
1.53499e-07
4.61851e-08
-5.89649e-08
1.63504e-06
1.4974e-06
1.3626e-06
1.2307e-06
1.1015e-06
9.74886e-07
8.50756e-07
7.29031e-07
6.09646e-07
4.9255e-07
3.77705e-07
2.65078e-07
1.54642e-07
4.63898e-08
-5.97185e-08
1.63617e-06
1.5e-06
1.36623e-06
1.23497e-06
1.10608e-06
9.79519e-07
8.55224e-07
7.33156e-07
6.13288e-07
4.95596e-07
3.80066e-07
2.66688e-07
1.55452e-07
4.63663e-08
-6.05943e-08
1.63707e-06
1.50222e-06
1.36936e-06
1.23867e-06
1.11006e-06
9.83538e-07
8.5909e-07
7.36712e-07
6.16406e-07
4.98176e-07
3.82029e-07
2.67975e-07
1.5602e-07
4.61837e-08
-6.15443e-08
1.63783e-06
1.50421e-06
1.37219e-06
1.24202e-06
1.11367e-06
9.87185e-07
8.62594e-07
7.39927e-07
6.19213e-07
5.00482e-07
3.83761e-07
2.69077e-07
1.56452e-07
4.59174e-08
-6.25262e-08
1.63847e-06
1.50595e-06
1.37469e-06
1.24499e-06
1.11688e-06
9.90437e-07
8.65728e-07
7.42811e-07
6.21743e-07
5.02574e-07
3.8535e-07
2.70114e-07
1.569e-07
4.57515e-08
-6.33216e-08
-3.34281e-06
-2.91295e-06
-2.58405e-06
-2.34855e-06
-2.15442e-06
-1.99374e-06
-1.85864e-06
-1.7433e-06
-1.644e-06
-1.55822e-06
-1.48415e-06
-1.42047e-06
-1.36615e-06
-1.32035e-06
-1.28232e-06
-1.25133e-06
-1.22655e-06
-1.20704e-06
-1.19138e-06
-1.17765e-06
-1.16215e-06
-1.13954e-06
-1.10135e-06
-1.04288e-06
-9.66132e-07
-8.72642e-07
-7.65418e-07
-6.4861e-07
-5.26758e-07
-4.04552e-07
-2.86677e-07
-1.7773e-07
-8.24694e-08
-5.61831e-09
4.83164e-08
7.49948e-08
7.03051e-08
3.05051e-08
-4.75615e-08
-1.66279e-07
-3.2721e-07
-5.34494e-07
-8.08421e-07
-1.18369e-06
-1.86831e-06
-2.83839e-06
-2.68517e-06
-2.48273e-06
-2.2965e-06
-2.12647e-06
-1.9777e-06
-1.84874e-06
-1.73676e-06
-1.6394e-06
-1.55478e-06
-1.48142e-06
-1.41819e-06
-1.36416e-06
-1.31855e-06
-1.28064e-06
-1.24974e-06
-1.22504e-06
-1.20563e-06
-1.1901e-06
-1.17656e-06
-1.1613e-06
-1.13903e-06
-1.10125e-06
-1.04329e-06
-9.67221e-07
-8.74607e-07
-7.68476e-07
-6.52991e-07
-5.32712e-07
-4.12366e-07
-2.96715e-07
-1.90513e-07
-9.87938e-08
-2.67953e-08
2.01852e-08
3.65497e-08
1.62687e-08
-4.73199e-08
-1.61887e-07
-3.37025e-07
-5.86325e-07
-9.33239e-07
-1.42519e-06
-2.15709e-06
-3.29287e-06
-2.55635e-06
-2.50389e-06
-2.37683e-06
-2.23303e-06
-2.08863e-06
-1.95442e-06
-1.83372e-06
-1.72657e-06
-1.63214e-06
-1.54938e-06
-1.47725e-06
-1.41487e-06
-1.36143e-06
-1.31625e-06
-1.27866e-06
-1.248e-06
-1.22349e-06
-1.20423e-06
-1.18885e-06
-1.17545e-06
-1.16035e-06
-1.13829e-06
-1.10085e-06
-1.04344e-06
-9.68261e-07
-8.76959e-07
-7.72604e-07
-6.59411e-07
-5.42003e-07
-4.25198e-07
-3.13889e-07
-2.13045e-07
-1.27993e-07
-6.44153e-08
-2.82767e-08
-2.61995e-08
-6.57598e-08
-1.55944e-07
-3.0786e-07
-5.35934e-07
-8.59697e-07
-1.30638e-06
-1.91231e-06
-2.71898e-06
-3.74797e-06
-2.37729e-06
-2.3604e-06
-2.27745e-06
-2.16671e-06
-2.04588e-06
-1.92686e-06
-1.81554e-06
-1.71419e-06
-1.6234e-06
-1.54297e-06
-1.47239e-06
-1.41106e-06
-1.35838e-06
-1.31374e-06
-1.27655e-06
-1.24618e-06
-1.2219e-06
-1.20282e-06
-1.18759e-06
-1.17431e-06
-1.15933e-06
-1.13742e-06
-1.10028e-06
-1.04348e-06
-9.69374e-07
-8.7973e-07
-7.77681e-07
-6.6752e-07
-5.53967e-07
-4.41972e-07
-3.36597e-07
-2.43074e-07
-1.67067e-07
-1.14659e-07
-9.24017e-08
-1.07734e-07
-1.69359e-07
-2.87763e-07
-4.75863e-07
-7.49654e-07
-1.12827e-06
-1.6323e-06
-2.27715e-06
-3.06033e-06
-3.94387e-06
-2.24727e-06
-2.24214e-06
-2.18643e-06
-2.10103e-06
-2.00068e-06
-1.89634e-06
-1.7949e-06
-1.70002e-06
-1.61342e-06
-1.53573e-06
-1.46697e-06
-1.40687e-06
-1.35505e-06
-1.31102e-06
-1.27428e-06
-1.24425e-06
-1.22023e-06
-1.20135e-06
-1.18627e-06
-1.1731e-06
-1.15823e-06
-1.13647e-06
-1.09967e-06
-1.04363e-06
-9.70841e-07
-8.83229e-07
-7.84002e-07
-6.77537e-07
-5.68669e-07
-4.62493e-07
-3.64259e-07
-2.7948e-07
-2.14146e-07
-1.74701e-07
-1.68182e-07
-2.02612e-07
-2.87344e-07
-4.33434e-07
-6.53861e-07
-9.6319e-07
-1.3758e-06
-1.90152e-06
-2.53741e-06
-3.25749e-06
-4.00537e-06
-2.14357e-06
-2.14193e-06
-2.10332e-06
-2.03727e-06
-1.95432e-06
-1.86371e-06
-1.77224e-06
-1.68427e-06
-1.60234e-06
-1.52777e-06
-1.4611e-06
-1.40243e-06
-1.35158e-06
-1.30824e-06
-1.27199e-06
-1.24232e-06
-1.21858e-06
-1.1999e-06
-1.18497e-06
-1.1719e-06
-1.15714e-06
-1.13556e-06
-1.09918e-06
-1.0441e-06
-9.72975e-07
-8.87885e-07
-7.92124e-07
-6.90164e-07
-5.86962e-07
-4.87763e-07
-3.98013e-07
-3.23485e-07
-2.70458e-07
-2.45638e-07
-2.56367e-07
-3.10902e-07
-4.18615e-07
-5.90056e-07
-8.366e-07
-1.16919e-06
-1.59549e-06
-2.11504e-06
-2.71286e-06
-3.35438e-06
-3.9864e-06
-2.05356e-06
-2.05353e-06
-2.02629e-06
-1.97526e-06
-1.90722e-06
-1.82936e-06
-1.7478e-06
-1.66708e-06
-1.59027e-06
-1.51921e-06
-1.45493e-06
-1.39787e-06
-1.34813e-06
-1.30556e-06
-1.26986e-06
-1.24058e-06
-1.21711e-06
-1.19863e-06
-1.18385e-06
-1.17088e-06
-1.15622e-06
-1.13484e-06
-1.09902e-06
-1.04519e-06
-9.7616e-07
-8.94201e-07
-8.02703e-07
-7.06233e-07
-6.09872e-07
-5.19015e-07
-4.39288e-07
-3.76684e-07
-3.3767e-07
-3.29066e-07
-3.58239e-07
-4.33221e-07
-5.62686e-07
-7.55658e-07
-1.02067e-06
-1.364e-06
-1.7868e-06
-2.28127e-06
-2.82712e-06
-3.39097e-06
-3.93109e-06
-1.96987e-06
-1.97164e-06
-1.95284e-06
-1.91393e-06
-1.85891e-06
-1.79301e-06
-1.72136e-06
-1.6483e-06
-1.5771e-06
-1.51002e-06
-1.4485e-06
-1.39333e-06
-1.34487e-06
-1.30318e-06
-1.26808e-06
-1.23922e-06
-1.21604e-06
-1.19777e-06
-1.18312e-06
-1.17024e-06
-1.15571e-06
-1.1346e-06
-1.09952e-06
-1.04731e-06
-9.80921e-07
-9.02838e-07
-8.1655e-07
-7.26718e-07
-6.38541e-07
-5.57537e-07
-4.89479e-07
-4.40495e-07
-4.17087e-07
-4.25978e-07
-4.74212e-07
-5.69101e-07
-7.17964e-07
-9.27553e-07
-1.20298e-06
-1.54601e-06
-1.95277e-06
-2.41161e-06
-2.90193e-06
-3.39598e-06
-3.86381e-06
-1.8881e-06
-1.89228e-06
-1.88044e-06
-1.85176e-06
-1.80837e-06
-1.75384e-06
-1.6922e-06
-1.62728e-06
-1.56235e-06
-1.49989e-06
-1.44165e-06
-1.38876e-06
-1.34186e-06
-1.30123e-06
-1.26684e-06
-1.23846e-06
-1.21561e-06
-1.19755e-06
-1.18306e-06
-1.17029e-06
-1.15594e-06
-1.13522e-06
-1.10116e-06
-1.05105e-06
-9.87995e-07
-9.14687e-07
-8.34723e-07
-7.5284e-07
-6.74329e-07
-6.04788e-07
-5.50055e-07
-5.16266e-07
-5.09761e-07
-5.369e-07
-6.04044e-07
-7.17334e-07
-8.82268e-07
-1.10301e-06
-1.38135e-06
-1.71543e-06
-2.09836e-06
-2.51741e-06
-2.95444e-06
-3.38819e-06
-3.79803e-06
-1.80543e-06
-1.81254e-06
-1.80689e-06
-1.78714e-06
-1.75429e-06
-1.71063e-06
-1.65913e-06
-1.60295e-06
-1.54508e-06
-1.48807e-06
-1.43386e-06
-1.38385e-06
-1.33897e-06
-1.29972e-06
-1.26626e-06
-1.23851e-06
-1.21609e-06
-1.19831e-06
-1.18403e-06
-1.17144e-06
-1.15739e-06
-1.13726e-06
-1.10461e-06
-1.05725e-06
-9.9839e-07
-9.30936e-07
-8.58582e-07
-7.86113e-07
-7.18857e-07
-6.62412e-07
-6.22562e-07
-6.0528e-07
-6.1651e-07
-6.61973e-07
-7.47017e-07
-8.76305e-07
-1.05332e-06
-1.27975e-06
-1.55467e-06
-1.87383e-06
-2.22908e-06
-2.60848e-06
-2.99726e-06
-3.37989e-06
-3.74236e-06
-1.71989e-06
-1.7303e-06
-1.7304e-06
-1.71864e-06
-1.69542e-06
-1.66214e-06
-1.62081e-06
-1.57391e-06
-1.52397e-06
-1.47339e-06
-1.42418e-06
-1.37793e-06
-1.33577e-06
-1.29845e-06
-1.26634e-06
-1.23952e-06
-1.21774e-06
-1.20042e-06
-1.18649e-06
-1.17425e-06
-1.16071e-06
-1.14151e-06
-1.11083e-06
-1.06706e-06
-1.01345e-06
-9.53125e-07
-8.89838e-07
-8.28364e-07
-7.73988e-07
-7.32192e-07
-7.08544e-07
-7.08654e-07
-7.37837e-07
-8.00914e-07
-9.02006e-07
-1.04418e-06
-1.229e-06
-1.45611e-06
-1.72273e-06
-2.02342e-06
-2.35005e-06
-2.69235e-06
-3.03889e-06
-3.37858e-06
-3.70187e-06
-1.62991e-06
-1.6439e-06
-1.64947e-06
-1.64504e-06
-1.63068e-06
-1.60722e-06
-1.57598e-06
-1.53872e-06
-1.4975e-06
-1.45439e-06
-1.41131e-06
-1.3699e-06
-1.33146e-06
-1.2969e-06
-1.26682e-06
-1.24147e-06
-1.22076e-06
-1.20425e-06
-1.191e-06
-1.17942e-06
-1.16679e-06
-1.14905e-06
-1.12112e-06
-1.082e-06
-1.03495e-06
-9.83205e-07
-9.30574e-07
-8.81727e-07
-8.41785e-07
-8.15969e-07
-8.09447e-07
-8.27256e-07
-8.73875e-07
-9.53061e-07
-1.06762e-06
-1.21912e-06
-1.40755e-06
-1.6311e-06
-1.88599e-06
-2.16654e-06
-2.46543e-06
-2.77427e-06
-3.0845e-06
-3.38825e-06
-3.6789e-06
-1.53414e-06
-1.55196e-06
-1.56285e-06
-1.56527e-06
-1.55914e-06
-1.54497e-06
-1.52357e-06
-1.49615e-06
-1.46424e-06
-1.42955e-06
-1.39376e-06
-1.35844e-06
-1.32492e-06
-1.29426e-06
-1.26719e-06
-1.24416e-06
-1.22524e-06
-1.21017e-06
-1.19816e-06
-1.18783e-06
-1.17676e-06
-1.16129e-06
-1.13719e-06
-1.10405e-06
-1.06507e-06
-1.02355e-06
-9.83234e-07
-9.48592e-07
-9.24434e-07
-9.15546e-07
-9.26526e-07
-9.61645e-07
-1.02442e-06
-1.11749e-06
-1.24244e-06
-1.39957e-06
-1.58776e-06
-1.80439e-06
-2.0454e-06
-2.30547e-06
-2.57843e-06
-2.85769e-06
-3.13691e-06
-3.41051e-06
-3.67379e-06
-1.43133e-06
-1.45323e-06
-1.46941e-06
-1.47838e-06
-1.48003e-06
-1.47469e-06
-1.46283e-06
-1.44525e-06
-1.42305e-06
-1.39754e-06
-1.37011e-06
-1.34215e-06
-1.31492e-06
-1.2895e-06
-1.26674e-06
-1.2472e-06
-1.23116e-06
-1.2185e-06
-1.20867e-06
-1.20051e-06
-1.192e-06
-1.18e-06
-1.16117e-06
-1.13564e-06
-1.10646e-06
-1.0769e-06
-1.05053e-06
-1.03147e-06
-1.02408e-06
-1.03254e-06
-1.06073e-06
-1.11203e-06
-1.18898e-06
-1.29318e-06
-1.42518e-06
-1.5844e-06
-1.76908e-06
-1.97632e-06
-2.20227e-06
-2.44234e-06
-2.69152e-06
-2.9448e-06
-3.1975e-06
-3.44563e-06
-3.68575e-06
-1.32036e-06
-1.34665e-06
-1.36818e-06
-1.38357e-06
-1.39272e-06
-1.39586e-06
-1.39328e-06
-1.38547e-06
-1.37321e-06
-1.35744e-06
-1.33928e-06
-1.31986e-06
-1.3003e-06
-1.28162e-06
-1.26469e-06
-1.25016e-06
-1.23844e-06
-1.22959e-06
-1.22328e-06
-1.21865e-06
-1.21414e-06
-1.20726e-06
-1.19555e-06
-1.17952e-06
-1.16205e-06
-1.14618e-06
-1.13519e-06
-1.13275e-06
-1.14258e-06
-1.16815e-06
-1.21254e-06
-1.27822e-06
-1.36681e-06
-1.47907e-06
-1.61482e-06
-1.77297e-06
-1.95151e-06
-2.14769e-06
-2.35813e-06
-2.57907e-06
-2.80663e-06
-3.03703e-06
-3.26684e-06
-3.49318e-06
-3.71345e-06
-1.20051e-06
-1.23151e-06
-1.25854e-06
-1.28035e-06
-1.29688e-06
-1.30831e-06
-1.31481e-06
-1.31671e-06
-1.31451e-06
-1.30892e-06
-1.30076e-06
-1.29092e-06
-1.28034e-06
-1.26993e-06
-1.26049e-06
-1.25272e-06
-1.24708e-06
-1.24382e-06
-1.24283e-06
-1.24358e-06
-1.245e-06
-1.24537e-06
-1.24298e-06
-1.23858e-06
-1.23472e-06
-1.23411e-06
-1.2396e-06
-1.25427e-06
-1.28112e-06
-1.32286e-06
-1.38174e-06
-1.45943e-06
-1.55682e-06
-1.67404e-06
-1.81051e-06
-1.96492e-06
-2.13537e-06
-2.31946e-06
-2.51442e-06
-2.71733e-06
-2.92522e-06
-3.13531e-06
-3.34509e-06
-3.55243e-06
-3.75537e-06
-1.07163e-06
-1.1077e-06
-1.14045e-06
-1.16878e-06
-1.1927e-06
-1.21236e-06
-1.22787e-06
-1.23945e-06
-1.24745e-06
-1.25236e-06
-1.25479e-06
-1.25543e-06
-1.25503e-06
-1.25434e-06
-1.25409e-06
-1.25493e-06
-1.25738e-06
-1.2618e-06
-1.2683e-06
-1.27669e-06
-1.28641e-06
-1.29652e-06
-1.30594e-06
-1.31531e-06
-1.32681e-06
-1.34267e-06
-1.36516e-06
-1.39674e-06
-1.4397e-06
-1.49598e-06
-1.56712e-06
-1.65413e-06
-1.75739e-06
-1.87667e-06
-2.01124e-06
-2.15986e-06
-2.32089e-06
-2.49239e-06
-2.67224e-06
-2.85821e-06
-3.04815e-06
-3.24e-06
-3.43193e-06
-3.62238e-06
-3.80983e-06
-9.34368e-07
-9.75946e-07
-1.01468e-06
-1.04974e-06
-1.08117e-06
-1.10913e-06
-1.13369e-06
-1.15501e-06
-1.17334e-06
-1.18905e-06
-1.20258e-06
-1.21447e-06
-1.22529e-06
-1.23565e-06
-1.24619e-06
-1.2575e-06
-1.2701e-06
-1.28444e-06
-1.30082e-06
-1.31934e-06
-1.33996e-06
-1.36246e-06
-1.38612e-06
-1.4112e-06
-1.43936e-06
-1.47225e-06
-1.51157e-06
-1.55914e-06
-1.61659e-06
-1.68525e-06
-1.76609e-06
-1.85966e-06
-1.96603e-06
-2.08487e-06
-2.21548e-06
-2.35683e-06
-2.50766e-06
-2.66649e-06
-2.83178e-06
-3.00192e-06
-3.17536e-06
-3.35062e-06
-3.52637e-06
-3.70146e-06
-3.87471e-06
-7.90497e-07
-8.38072e-07
-8.83147e-07
-9.25232e-07
-9.64432e-07
-1.00087e-06
-1.03464e-06
-1.06585e-06
-1.09471e-06
-1.1215e-06
-1.14658e-06
-1.17034e-06
-1.19325e-06
-1.2158e-06
-1.23853e-06
-1.26197e-06
-1.28664e-06
-1.31303e-06
-1.34157e-06
-1.37265e-06
-1.40663e-06
-1.44389e-06
-1.48377e-06
-1.52588e-06
-1.57125e-06
-1.62094e-06
-1.67607e-06
-1.73796e-06
-1.80775e-06
-1.88628e-06
-1.97418e-06
-2.07171e-06
-2.17885e-06
-2.29529e-06
-2.42049e-06
-2.5537e-06
-2.69403e-06
-2.84046e-06
-2.99192e-06
-3.14729e-06
-3.3055e-06
-3.46552e-06
-3.62638e-06
-3.78723e-06
-3.94722e-06
-6.42974e-07
-6.97109e-07
-7.48963e-07
-7.98474e-07
-8.45815e-07
-8.91075e-07
-9.3432e-07
-9.75674e-07
-1.01532e-06
-1.0535e-06
-1.0905e-06
-1.12664e-06
-1.1623e-06
-1.19789e-06
-1.23388e-06
-1.27073e-06
-1.30896e-06
-1.34907e-06
-1.39159e-06
-1.4371e-06
-1.48624e-06
-1.53976e-06
-1.59684e-06
-1.65631e-06
-1.71846e-06
-1.78381e-06
-1.85302e-06
-1.92704e-06
-2.00665e-06
-2.09245e-06
-2.18487e-06
-2.28411e-06
-2.39014e-06
-2.50276e-06
-2.62166e-06
-2.74636e-06
-2.87631e-06
-3.01087e-06
-3.14934e-06
-3.29101e-06
-3.43515e-06
-3.58108e-06
-3.72812e-06
-3.87566e-06
-4.02311e-06
-5.06298e-07
-5.67214e-07
-6.25993e-07
-6.82992e-07
-7.38433e-07
-7.92361e-07
-8.44827e-07
-8.95964e-07
-9.45952e-07
-9.95002e-07
-1.04336e-06
-1.09132e-06
-1.13919e-06
-1.18734e-06
-1.23618e-06
-1.28614e-06
-1.33768e-06
-1.39134e-06
-1.44768e-06
-1.50734e-06
-1.57111e-06
-1.63981e-06
-1.71237e-06
-1.78696e-06
-1.86322e-06
-1.94118e-06
-2.02127e-06
-2.10425e-06
-2.19075e-06
-2.28122e-06
-2.37602e-06
-2.47532e-06
-2.57918e-06
-2.68755e-06
-2.80029e-06
-2.91717e-06
-3.03788e-06
-3.16207e-06
-3.28931e-06
-3.41919e-06
-3.55123e-06
-3.685e-06
-3.82002e-06
-3.95589e-06
-4.09223e-06
-3.97548e-07
-4.64697e-07
-5.29939e-07
-5.93795e-07
-6.56489e-07
-7.18043e-07
-7.78514e-07
-8.38036e-07
-8.96785e-07
-9.5496e-07
-1.01278e-06
-1.07051e-06
-1.12844e-06
-1.18689e-06
-1.24623e-06
-1.30686e-06
-1.36922e-06
-1.43382e-06
-1.50121e-06
-1.57204e-06
-1.6471e-06
-1.72716e-06
-1.81089e-06
-1.8961e-06
-1.98196e-06
-2.06822e-06
-2.15525e-06
-2.24373e-06
-2.33425e-06
-2.42717e-06
-2.52279e-06
-2.62132e-06
-2.7229e-06
-2.82757e-06
-2.93532e-06
-3.04608e-06
-3.1597e-06
-3.276e-06
-3.39475e-06
-3.5157e-06
-3.63856e-06
-3.76303e-06
-3.88882e-06
-4.0156e-06
-4.14317e-06
-3.18027e-07
-3.90622e-07
-4.61531e-07
-5.31283e-07
-6.00081e-07
-6.67945e-07
-7.34939e-07
-8.01199e-07
-8.66894e-07
-9.32206e-07
-9.97342e-07
-1.06254e-06
-1.12806e-06
-1.19421e-06
-1.26132e-06
-1.32975e-06
-1.39992e-06
-1.4723e-06
-1.54743e-06
-1.62591e-06
-1.7085e-06
-1.79585e-06
-1.88651e-06
-1.97812e-06
-2.06962e-06
-2.16063e-06
-2.25149e-06
-2.34289e-06
-2.43534e-06
-2.52919e-06
-2.62475e-06
-2.72222e-06
-2.8218e-06
-2.9236e-06
-3.02767e-06
-3.13403e-06
-3.24264e-06
-3.35341e-06
-3.46624e-06
-3.58097e-06
-3.69743e-06
-3.81542e-06
-3.93474e-06
-4.05515e-06
-4.17651e-06
-2.61428e-07
-3.38728e-07
-4.14513e-07
-4.8926e-07
-5.63139e-07
-6.36174e-07
-7.08436e-07
-7.80058e-07
-8.51195e-07
-9.22017e-07
-9.92715e-07
-1.0635e-06
-1.13463e-06
-1.20636e-06
-1.27901e-06
-1.35291e-06
-1.42844e-06
-1.50605e-06
-1.58622e-06
-1.66953e-06
-1.75668e-06
-1.84819e-06
-1.9426e-06
-2.03756e-06
-2.13187e-06
-2.22518e-06
-2.31783e-06
-2.41048e-06
-2.50361e-06
-2.59756e-06
-2.69262e-06
-2.78903e-06
-2.88698e-06
-2.98663e-06
-3.08806e-06
-3.19136e-06
-3.29653e-06
-3.40355e-06
-3.51238e-06
-3.62294e-06
-3.73512e-06
-3.84879e-06
-3.9638e-06
-4.07998e-06
-4.19723e-06
-2.22228e-07
-3.03577e-07
-3.83525e-07
-4.62471e-07
-5.40553e-07
-6.178e-07
-6.94288e-07
-7.70139e-07
-8.45498e-07
-9.20519e-07
-9.95378e-07
-1.07027e-06
-1.14543e-06
-1.22109e-06
-1.29754e-06
-1.37509e-06
-1.45409e-06
-1.53495e-06
-1.61813e-06
-1.70414e-06
-1.79363e-06
-1.88704e-06
-1.98294e-06
-2.07911e-06
-2.17433e-06
-2.26829e-06
-2.36138e-06
-2.45422e-06
-2.54725e-06
-2.64081e-06
-2.73517e-06
-2.83057e-06
-2.92722e-06
-3.02529e-06
-3.12489e-06
-3.22611e-06
-3.32901e-06
-3.4336e-06
-3.53989e-06
-3.64782e-06
-3.75733e-06
-3.86833e-06
-3.98072e-06
-4.09436e-06
-4.20917e-06
-1.95904e-07
-2.80731e-07
-3.64211e-07
-4.4667e-07
-5.28213e-07
-6.08875e-07
-6.88731e-07
-7.67896e-07
-8.46499e-07
-9.24684e-07
-1.00261e-06
-1.08046e-06
-1.15844e-06
-1.23677e-06
-1.31571e-06
-1.39556e-06
-1.47663e-06
-1.5593e-06
-1.644e-06
-1.7312e-06
-1.82149e-06
-1.91524e-06
-2.01113e-06
-2.10708e-06
-2.20195e-06
-2.29552e-06
-2.3882e-06
-2.48057e-06
-2.57304e-06
-2.66593e-06
-2.7595e-06
-2.854e-06
-2.94962e-06
-3.04654e-06
-3.1449e-06
-3.24478e-06
-3.34627e-06
-3.4494e-06
-3.55419e-06
-3.66062e-06
-3.76866e-06
-3.87823e-06
-3.98926e-06
-4.10164e-06
-4.2153e-06
-1.78853e-07
-2.66666e-07
-3.53141e-07
-4.38534e-07
-5.22926e-07
-6.06353e-07
-6.8889e-07
-7.70642e-07
-8.51727e-07
-9.32274e-07
-1.01243e-06
-1.09237e-06
-1.17227e-06
-1.25235e-06
-1.33284e-06
-1.41401e-06
-1.49616e-06
-1.57964e-06
-1.66484e-06
-1.7522e-06
-1.84227e-06
-1.93535e-06
-2.03025e-06
-2.1251e-06
-2.21887e-06
-2.31142e-06
-2.40319e-06
-2.49472e-06
-2.58636e-06
-2.67844e-06
-2.7712e-06
-2.86489e-06
-2.9597e-06
-3.0558e-06
-3.15333e-06
-3.25239e-06
-3.35307e-06
-3.45542e-06
-3.55947e-06
-3.66521e-06
-3.77262e-06
-3.88165e-06
-3.99224e-06
-4.10428e-06
-4.21773e-06
-1.68316e-07
-2.58699e-07
-3.47717e-07
-4.35566e-07
-5.22307e-07
-6.0798e-07
-6.92656e-07
-7.76431e-07
-8.59411e-07
-9.41718e-07
-1.02349e-06
-1.10487e-06
-1.18605e-06
-1.26722e-06
-1.34859e-06
-1.43042e-06
-1.51298e-06
-1.59659e-06
-1.68163e-06
-1.76849e-06
-1.8577e-06
-1.94951e-06
-2.04286e-06
-2.1361e-06
-2.22835e-06
-2.31954e-06
-2.41014e-06
-2.50061e-06
-2.59131e-06
-2.68251e-06
-2.77449e-06
-2.86745e-06
-2.96161e-06
-3.05711e-06
-3.15411e-06
-3.25271e-06
-3.353e-06
-3.45503e-06
-3.55884e-06
-3.66443e-06
-3.7718e-06
-3.8809e-06
-3.99166e-06
-4.104e-06
-4.21787e-06
-1.62247e-07
-2.5485e-07
-3.46035e-07
-4.35949e-07
-5.2464e-07
-6.12148e-07
-6.98542e-07
-7.83907e-07
-8.68344e-07
-9.51963e-07
-1.03489e-06
-1.11728e-06
-1.19928e-06
-1.28108e-06
-1.36288e-06
-1.44492e-06
-1.52746e-06
-1.61079e-06
-1.69526e-06
-1.78124e-06
-1.86921e-06
-1.95941e-06
-2.05092e-06
-2.14232e-06
-2.23284e-06
-2.32254e-06
-2.41184e-06
-2.50118e-06
-2.59088e-06
-2.68122e-06
-2.77244e-06
-2.86476e-06
-2.95837e-06
-3.05344e-06
-3.1501e-06
-3.24846e-06
-3.34862e-06
-3.45063e-06
-3.55452e-06
-3.66032e-06
-3.76802e-06
-3.87756e-06
-3.9889e-06
-4.10195e-06
-4.21665e-06
-1.59172e-07
-2.53702e-07
-3.46743e-07
-4.38406e-07
-5.28729e-07
-6.1775e-07
-7.05536e-07
-7.92166e-07
-8.77731e-07
-9.62336e-07
-1.0461e-06
-1.12917e-06
-1.21168e-06
-1.29381e-06
-1.37575e-06
-1.45773e-06
-1.53998e-06
-1.62278e-06
-1.70645e-06
-1.79134e-06
-1.87791e-06
-1.96635e-06
-2.05591e-06
-2.14538e-06
-2.23415e-06
-2.32232e-06
-2.41031e-06
-2.49851e-06
-2.58722e-06
-2.67671e-06
-2.76722e-06
-2.85896e-06
-2.95211e-06
-3.04684e-06
-3.14329e-06
-3.24155e-06
-3.34173e-06
-3.44389e-06
-3.54807e-06
-3.65428e-06
-3.76251e-06
-3.87273e-06
-3.98488e-06
-4.09888e-06
-4.21464e-06
-1.58058e-07
-2.54268e-07
-3.48909e-07
-4.42064e-07
-5.33763e-07
-6.24046e-07
-7.12975e-07
-8.00623e-07
-8.87075e-07
-9.72432e-07
-1.05681e-06
-1.14033e-06
-1.22314e-06
-1.30541e-06
-1.38732e-06
-1.46906e-06
-1.55088e-06
-1.63302e-06
-1.71579e-06
-1.79951e-06
-1.88461e-06
-1.97128e-06
-2.05888e-06
-2.14646e-06
-2.23351e-06
-2.3202e-06
-2.40691e-06
-2.49401e-06
-2.58177e-06
-2.67046e-06
-2.7603e-06
-2.85151e-06
-2.94426e-06
-3.03871e-06
-3.13501e-06
-3.23326e-06
-3.33355e-06
-3.43596e-06
-3.54051e-06
-3.64723e-06
-3.75612e-06
-3.86712e-06
-3.98019e-06
-4.09524e-06
-4.21218e-06
-1.58194e-07
-2.55874e-07
-3.51903e-07
-4.46341e-07
-5.39213e-07
-6.3056e-07
-7.20438e-07
-8.08918e-07
-8.9608e-07
-9.82019e-07
-1.06684e-06
-1.15068e-06
-1.23366e-06
-1.31594e-06
-1.3977e-06
-1.47913e-06
-1.56044e-06
-1.64187e-06
-1.72371e-06
-1.80625e-06
-1.8899e-06
-1.97484e-06
-2.06057e-06
-2.14635e-06
-2.23178e-06
-2.31706e-06
-2.40256e-06
-2.48861e-06
-2.57548e-06
-2.66341e-06
-2.75264e-06
-2.84335e-06
-2.93574e-06
-3.02996e-06
-3.12615e-06
-3.22442e-06
-3.32486e-06
-3.42755e-06
-3.53252e-06
-3.63979e-06
-3.74936e-06
-3.86118e-06
-3.97521e-06
-4.09134e-06
-4.20949e-06
-1.59099e-07
-2.58072e-07
-3.5531e-07
-4.50859e-07
-5.4474e-07
-6.36993e-07
-7.27671e-07
-8.1684e-07
-9.04579e-07
-9.90977e-07
-1.07614e-06
-1.16019e-06
-1.24325e-06
-1.32547e-06
-1.40703e-06
-1.48809e-06
-1.56887e-06
-1.6496e-06
-1.73052e-06
-1.81192e-06
-1.89419e-06
-1.97749e-06
-2.06146e-06
-2.14556e-06
-2.22948e-06
-2.31346e-06
-2.39784e-06
-2.48292e-06
-2.56895e-06
-2.65618e-06
-2.74483e-06
-2.83509e-06
-2.92715e-06
-3.02116e-06
-3.11726e-06
-3.21556e-06
-3.31616e-06
-3.41913e-06
-3.52452e-06
-3.63233e-06
-3.74257e-06
-3.85521e-06
-3.97017e-06
-4.08736e-06
-4.20669e-06
-1.60455e-07
-2.60567e-07
-3.58866e-07
-4.55382e-07
-5.50138e-07
-6.43169e-07
-7.34528e-07
-8.24277e-07
-9.1249e-07
-9.99258e-07
-1.08468e-06
-1.16887e-06
-1.25196e-06
-1.33409e-06
-1.41541e-06
-1.4961e-06
-1.57636e-06
-1.6564e-06
-1.73646e-06
-1.81679e-06
-1.89776e-06
-1.97953e-06
-2.06187e-06
-2.14442e-06
-2.22697e-06
-2.30976e-06
-2.3931e-06
-2.47728e-06
-2.56254e-06
-2.64912e-06
-2.73723e-06
-2.82708e-06
-2.91883e-06
-3.01264e-06
-3.10866e-06
-3.207e-06
-3.30775e-06
-3.41099e-06
-3.51676e-06
-3.62509e-06
-3.73597e-06
-3.84937e-06
-3.96521e-06
-4.08341e-06
-4.20386e-06
-1.62051e-07
-2.63171e-07
-3.62401e-07
-4.59764e-07
-5.55282e-07
-6.48987e-07
-7.40931e-07
-8.31172e-07
-9.19784e-07
-1.00685e-06
-1.09248e-06
-1.17677e-06
-1.25985e-06
-1.34185e-06
-1.42294e-06
-1.50327e-06
-1.58303e-06
-1.66242e-06
-1.74167e-06
-1.82101e-06
-1.9008e-06
-1.98116e-06
-2.06201e-06
-2.14315e-06
-2.22445e-06
-2.30615e-06
-2.38854e-06
-2.4719e-06
-2.55645e-06
-2.64244e-06
-2.73006e-06
-2.81951e-06
-2.91098e-06
-3.00461e-06
-3.10054e-06
-3.1989e-06
-3.29979e-06
-3.40327e-06
-3.50941e-06
-3.61821e-06
-3.72968e-06
-3.84378e-06
-3.96045e-06
-4.07958e-06
-4.20106e-06
-1.63748e-07
-2.65759e-07
-3.65809e-07
-4.63917e-07
-5.601e-07
-6.54392e-07
-7.4684e-07
-8.37503e-07
-9.26452e-07
-1.01377e-06
-1.09955e-06
-1.18391e-06
-1.26696e-06
-1.34884e-06
-1.4297e-06
-1.50968e-06
-1.58898e-06
-1.66777e-06
-1.74628e-06
-1.82472e-06
-1.90341e-06
-1.9825e-06
-2.06199e-06
-2.14185e-06
-2.22203e-06
-2.30274e-06
-2.38428e-06
-2.46688e-06
-2.5508e-06
-2.63624e-06
-2.72341e-06
-2.8125e-06
-2.9037e-06
-2.99715e-06
-3.09301e-06
-3.19139e-06
-3.29239e-06
-3.39609e-06
-3.50254e-06
-3.61177e-06
-3.72377e-06
-3.83851e-06
-3.95593e-06
-4.07592e-06
-4.19835e-06
-1.65462e-07
-2.68261e-07
-3.69035e-07
-4.67797e-07
-5.64564e-07
-6.59368e-07
-7.52254e-07
-8.4328e-07
-9.32516e-07
-1.02004e-06
-1.10595e-06
-1.19036e-06
-1.27337e-06
-1.35512e-06
-1.43576e-06
-1.51542e-06
-1.59429e-06
-1.67254e-06
-1.75037e-06
-1.82799e-06
-1.9057e-06
-1.98363e-06
-2.06188e-06
-2.1406e-06
-2.21976e-06
-2.29959e-06
-2.38036e-06
-2.46229e-06
-2.54562e-06
-2.63056e-06
-2.71732e-06
-2.80608e-06
-2.89703e-06
-2.99032e-06
-3.08609e-06
-3.18447e-06
-3.28557e-06
-3.38946e-06
-3.49619e-06
-3.6058e-06
-3.71828e-06
-3.8336e-06
-3.95169e-06
-4.07245e-06
-4.19575e-06
-1.67167e-07
-2.70673e-07
-3.72093e-07
-4.71438e-07
-5.68724e-07
-6.63982e-07
-7.57255e-07
-8.486e-07
-9.38084e-07
-1.02579e-06
-1.11181e-06
-1.19624e-06
-1.27921e-06
-1.36083e-06
-1.44126e-06
-1.52062e-06
-1.59909e-06