/*--------------------------------*- C++ -*----------------------------------*\
| =========                 |                                                 |
| \\      /  F ield         | OpenFOAM: The Open Source CFD Toolbox           |
|  \\    /   O peration     | Version:  2312                                  |
|   \\  /    A nd           | Website:  www.openfoam.com                      |
|    \\/     M anipulation  |                                                 |
\*---------------------------------------------------------------------------*/
FoamFile
{
    version     2.0;
    format      ascii;
    arch        "LSB;label=32;scalar=64";
    class       surfaceScalarField;
    location    "100";
    object      phi;
}
// * * * * * * * * * * * * * * * * * * * * * * * * * * * * * * * * * * * * * //

dimensions      [0 3 -1 0 0 0 0];

oriented        oriented;

internalField   nonuniform List<scalar> 
9445
(
1.30658e-10
1.22136e-12
1.3051e-10
1.48002e-13
1.31021e-10
-5.10966e-13
1.32008e-10
-9.87197e-13
1.33366e-10
-1.35813e-12
1.35041e-10
-1.67422e-12
1.37017e-10
-1.97667e-12
1.3933e-10
-2.31241e-12
1.42099e-10
-2.76891e-12
1.45649e-10
-3.55077e-12
1.50829e-10
-5.17976e-12
1.59865e-10
-9.03611e-12
1.77847e-10
-1.7982e-11
2.1738e-10
-3.95327e-11
-1.06332e-10
3.23712e-10
4.57353e-10
5.76339e-12
4.56507e-10
9.93816e-13
4.57945e-10
-1.9491e-12
4.61008e-10
-4.04999e-12
4.65328e-10
-5.67799e-12
4.70711e-10
-7.05744e-12
4.77111e-10
-8.37598e-12
4.84644e-10
-9.84585e-12
4.93709e-10
-1.1834e-11
5.05256e-10
-1.50972e-11
5.21302e-10
-2.12264e-11
5.45662e-10
-3.33959e-11
5.84598e-10
-5.69183e-11
6.45432e-10
-1.00366e-10
-1.74712e-10
7.13812e-10
9.04977e-10
1.5202e-11
9.02764e-10
3.20616e-12
9.05025e-10
-4.20987e-12
9.10428e-10
-9.453e-12
9.1824e-10
-1.34899e-11
9.28069e-10
-1.68865e-11
9.39805e-10
-2.01119e-11
9.53639e-10
-2.36796e-11
9.70209e-10
-2.84046e-11
9.90883e-10
-3.57709e-11
1.01804e-09
-4.83875e-11
1.05492e-09
-7.02716e-11
1.10402e-09
-1.06019e-10
1.16172e-09
-1.58067e-10
-2.21006e-10
1.20801e-09
1.50835e-09
3.17012e-11
1.50371e-09
7.84654e-12
1.50643e-09
-6.92369e-12
1.51424e-09
-1.72702e-11
1.52592e-09
-2.51687e-11
1.54078e-09
-3.17473e-11
1.55858e-09
-3.79121e-11
1.5795e-09
-4.45968e-11
1.60422e-09
-5.31256e-11
1.63404e-09
-6.55849e-11
1.67063e-09
-8.498e-11
1.71502e-09
-1.14665e-10
1.76529e-09
-1.56283e-10
1.81362e-09
-2.06401e-10
-2.53995e-10
1.84661e-09
2.31081e-09
5.81658e-11
2.30215e-09
1.65092e-11
2.30455e-09
-9.32405e-12
2.31453e-09
-2.7253e-11
2.33016e-09
-4.07941e-11
2.35033e-09
-5.19166e-11
2.37454e-09
-6.21257e-11
2.40279e-09
-7.28455e-11
2.43549e-09
-8.58274e-11
2.47329e-09
-1.03384e-10
2.51643e-09
-1.28117e-10
2.56348e-09
-1.61718e-10
2.61002e-09
-2.02824e-10
2.64881e-09
-2.45187e-10
-2.78503e-10
2.67332e-09
3.36583e-09
9.83532e-11
3.35086e-09
3.14739e-11
3.35162e-09
-1.00825e-11
3.36302e-09
-3.86572e-11
3.3822e-09
-5.99651e-11
3.40743e-09
-7.71556e-11
3.4378e-09
-9.2494e-11
3.47287e-09
-1.07909e-10
3.51243e-09
-1.25394e-10
3.5561e-09
-1.47054e-10
3.60253e-09
-1.74549e-10
3.64865e-09
-2.07833e-10
3.68963e-09
-2.438e-10
3.7206e-09
-2.76157e-10
-2.97632e-10
3.73973e-09
4.73856e-09
1.56872e-10
4.71422e-09
5.58161e-11
4.71128e-09
-7.14463e-12
4.72268e-09
-5.00528e-11
4.7443e-09
-8.15902e-11
4.77363e-09
-1.06487e-10
4.80907e-09
-1.27932e-10
4.84951e-09
-1.48348e-10
4.8939e-09
-1.69784e-10
4.94072e-09
-1.93876e-10
4.98745e-09
-2.21279e-10
5.03046e-09
-2.50839e-10
5.06583e-09
-2.79168e-10
5.09113e-09
-3.01459e-10
-3.13524e-10
5.10702e-09
6.50712e-09
2.38894e-10
6.46956e-09
9.33763e-11
6.46005e-09
2.36736e-12
6.46916e-09
-5.91641e-11
6.49127e-09
-1.03699e-10
6.52278e-09
-1.38002e-10
6.56123e-09
-1.66376e-10
6.60464e-09
-1.91759e-10
6.65105e-09
-2.162e-10
6.69806e-09
-2.40884e-10
6.74262e-09
-2.65838e-10
6.78143e-09
-2.89645e-10
6.81192e-09
-3.09659e-10
6.83343e-09
-3.22969e-10
-3.27704e-10
6.84761e-09
8.76289e-09
3.49322e-10
8.70786e-09
1.48406e-10
8.68817e-09
2.20584e-11
8.69185e-09
-6.28369e-11
8.7115e-09
-1.23354e-10
8.74228e-09
-1.68779e-10
8.78067e-09
-2.04765e-10
8.8238e-09
-2.34889e-10
8.86893e-09
-2.61331e-10
8.91318e-09
-2.85131e-10
8.95358e-09
-3.06246e-10
8.98764e-09
-3.23698e-10
9.014e-09
-3.3602e-10
9.033e-09
-3.4197e-10
-3.41163e-10
9.04646e-09
1.16092e-08
4.91065e-10
1.1533e-08
2.24629e-10
1.14993e-08
5.57656e-11
1.14937e-08
-5.72949e-11
1.15072e-08
-1.36801e-10
1.15334e-08
-1.95012e-10
1.15679e-08
-2.39224e-10
1.16069e-08
-2.73897e-10
1.16472e-08
-3.01651e-10
1.16859e-08
-3.23822e-10
1.17204e-08
-3.40821e-10
1.17492e-08
-3.52497e-10
1.17718e-08
-3.58565e-10
1.17888e-08
-3.5901e-10
-3.54304e-10
1.1802e-08
1.51569e-08
6.62135e-10
1.50581e-08
3.23413e-10
1.50075e-08
1.06402e-10
1.49891e-08
-3.88998e-11
1.49923e-08
-1.4002e-10
1.50098e-08
-2.12484e-10
1.50361e-08
-2.65526e-10
1.5067e-08
-3.048e-10
1.50991e-08
-3.33746e-10
1.51297e-08
-3.54413e-10
1.51569e-08
-3.68008e-10
1.51797e-08
-3.75311e-10
1.51981e-08
-3.77009e-10
1.5213e-08
-3.73888e-10
-3.6687e-10
1.52256e-08
1.95165e-08
8.51884e-10
1.93989e-08
4.41025e-10
1.93313e-08
1.73971e-10
1.92981e-08
-5.61624e-12
1.92879e-08
-1.29873e-10
1.92929e-08
-2.17526e-10
1.93073e-08
-2.79909e-10
1.93267e-08
-3.24131e-10
1.93477e-08
-3.54756e-10
1.93681e-08
-3.7481e-10
1.93865e-08
-3.86416e-10
1.94024e-08
-3.9121e-10
1.9416e-08
-3.90588e-10
1.94279e-08
-3.85821e-10
-3.78038e-10
1.94391e-08
2.47865e-08
1.03817e-09
2.46617e-08
5.65766e-10
2.45826e-08
2.53071e-10
2.45361e-08
4.09134e-11
2.45121e-08
-1.0583e-10
2.4503e-08
-2.08465e-10
2.45034e-08
-2.80274e-10
2.45091e-08
-3.29863e-10
2.45173e-08
-3.63016e-10
2.45263e-08
-3.83783e-10
2.4535e-08
-3.95142e-10
2.45432e-08
-3.99409e-10
2.45511e-08
-3.98456e-10
2.45591e-08
-3.93827e-10
-3.86731e-10
2.45678e-08
3.10435e-08
1.18943e-09
3.09318e-08
6.77442e-10
3.08534e-08
3.31403e-10
3.08008e-08
9.35866e-11
3.07667e-08
-7.17363e-11
3.07454e-08
-1.87221e-10
3.07327e-08
-2.67526e-10
3.07253e-08
-3.2247e-10
3.07211e-08
-3.58869e-10
3.0719e-08
-3.8162e-10
3.07182e-08
-3.94358e-10
3.07187e-08
-3.99861e-10
3.07205e-08
-4.00285e-10
3.0724e-08
-3.97304e-10
-3.92145e-10
3.07294e-08
3.83427e-08
1.27543e-09
3.82674e-08
7.52767e-10
3.82068e-08
3.92047e-10
3.81599e-08
1.40449e-10
3.81242e-08
-3.60284e-11
3.80969e-08
-1.59884e-10
3.80756e-08
-2.46249e-10
3.80587e-08
-3.05565e-10
3.80451e-08
-3.45248e-10
3.80341e-08
-3.7069e-10
3.80257e-08
-3.85893e-10
3.80197e-08
-3.93863e-10
3.80163e-08
-3.96873e-10
3.80156e-08
-3.96625e-10
-3.94319e-10
3.80178e-08
4.67327e-08
1.28341e-09
4.67084e-08
7.7706e-10
4.66791e-08
4.21353e-10
4.66497e-08
1.69819e-10
4.66221e-08
-8.44473e-12
4.65968e-08
-1.34587e-10
4.65739e-08
-2.23305e-10
4.65533e-08
-2.84978e-10
4.65351e-08
-3.27089e-10
4.65195e-08
-3.55116e-10
4.65068e-08
-3.7311e-10
4.6497e-08
-3.84082e-10
4.64904e-08
-3.90269e-10
4.64871e-08
-3.93319e-10
-3.94365e-10
4.64871e-08
5.62606e-08
1.22499e-09
5.62842e-08
7.53521e-10
5.62876e-08
4.1789e-10
5.62795e-08
1.77932e-10
5.62649e-08
6.2034e-12
5.62468e-08
-1.16506e-10
5.62273e-08
-2.03837e-10
5.62079e-08
-2.65573e-10
5.61896e-08
-3.08823e-10
5.61733e-08
-3.38802e-10
5.61596e-08
-3.59354e-10
5.61488e-08
-3.73316e-10
5.61413e-08
-3.82774e-10
5.61372e-08
-3.89253e-10
-3.93787e-10
5.61367e-08
6.69196e-08
1.12344e-09
6.69749e-08
6.9818e-10
6.70007e-08
3.92041e-10
6.70077e-08
1.71024e-10
6.70026e-08
1.12571e-11
6.69903e-08
-1.04237e-10
6.69742e-08
-1.87669e-10
6.69565e-08
-2.47878e-10
6.6939e-08
-2.91314e-10
6.69229e-08
-3.22706e-10
6.6909e-08
-3.45532e-10
6.68981e-08
-3.62342e-10
6.68903e-08
-3.75007e-10
6.68859e-08
-3.84887e-10
-3.92898e-10
6.6885e-08
7.85095e-08
9.94753e-10
7.85832e-08
6.24555e-10
7.86204e-08
3.54754e-10
7.86338e-08
1.57658e-10
7.86318e-08
1.32931e-11
7.86203e-08
-9.2728e-11
7.86035e-08
-1.70849e-10
7.85843e-08
-2.28693e-10
7.85648e-08
-2.71848e-10
7.85465e-08
-3.04412e-10
7.85304e-08
-3.29397e-10
7.8517e-08
-3.49011e-10
7.85069e-08
-3.6487e-10
7.85002e-08
-3.78154e-10
-3.89644e-10
7.84969e-08
9.04517e-08
8.42598e-10
9.05404e-08
5.35918e-10
9.05861e-08
3.08992e-10
9.06032e-08
1.40555e-10
9.06016e-08
1.49174e-11
9.05882e-08
-7.93578e-11
9.0568e-08
-1.50657e-10
9.05445e-08
-2.05148e-10
9.052e-08
-2.47375e-10
9.04963e-08
-2.80683e-10
9.04744e-08
-3.07536e-10
9.04552e-08
-3.2975e-10
9.0439e-08
-3.48657e-10
9.0426e-08
-3.65234e-10
-3.80125e-10
9.04165e-08
9.00112e-08
6.87291e-10
9.0104e-08
4.43082e-10
9.01537e-08
2.59269e-10
9.01741e-08
1.20241e-10
9.01747e-08
1.42868e-11
9.01625e-08
-6.72124e-11
9.01425e-08
-1.30642e-10
9.01181e-08
-1.80738e-10
9.00917e-08
-2.21014e-10
9.00651e-08
-2.54069e-10
9.00394e-08
-2.81829e-10
9.00154e-08
-3.05723e-10
8.99936e-08
-3.26806e-10
8.99742e-08
-3.45859e-10
-3.63402e-10
8.99575e-08
7.73305e-08
5.49394e-10
7.74162e-08
3.57415e-10
7.7465e-08
2.10497e-10
7.7488e-08
9.72548e-11
7.74932e-08
9.07612e-12
7.74864e-08
-6.04054e-11
7.74717e-08
-1.15943e-10
7.7452e-08
-1.61097e-10
7.74295e-08
-1.98529e-10
7.74057e-08
-2.30221e-10
7.73815e-08
-2.57651e-10
7.73577e-08
-2.81922e-10
7.73348e-08
-3.03855e-10
7.7313e-08
-3.24062e-10
-3.42957e-10
7.72925e-08
6.51622e-08
4.28302e-10
6.52406e-08
2.79046e-10
6.52881e-08
1.63002e-10
6.53135e-08
7.19005e-11
6.5323e-08
-5.07791e-13
6.53215e-08
-5.88579e-11
6.53122e-08
-1.06637e-10
6.52976e-08
-1.46477e-10
6.52794e-08
-1.80357e-10
6.52589e-08
-2.0976e-10
6.52371e-08
-2.35799e-10
6.52145e-08
-2.59308e-10
6.51915e-08
-2.80913e-10
6.51686e-08
-3.01082e-10
-3.20133e-10
6.51457e-08
5.4072e-08
3.23981e-10
5.41418e-08
2.09252e-10
5.41861e-08
1.18692e-10
5.42117e-08
4.6332e-11
5.42235e-08
-1.2305e-11
5.42251e-08
-6.05411e-11
5.42194e-08
-1.00896e-10
5.42082e-08
-1.35287e-10
5.4193e-08
-1.6516e-10
5.41749e-08
-1.91605e-10
5.41545e-08
-2.15442e-10
5.41325e-08
-2.37291e-10
5.41092e-08
-2.57618e-10
5.40849e-08
-2.76772e-10
-2.9499e-10
5.40597e-08
4.42979e-08
2.36595e-10
4.43577e-08
1.49528e-10
4.43966e-08
7.97943e-11
4.44198e-08
2.3115e-11
4.44311e-08
-2.36592e-11
4.44335e-08
-6.28686e-11
4.44289e-08
-9.63054e-11
4.44189e-08
-1.25341e-10
4.44048e-08
-1.51013e-10
4.43873e-08
-1.74105e-10
4.4367e-08
-1.9521e-10
4.43445e-08
-2.14777e-10
4.43201e-08
-2.33147e-10
4.42939e-08
-2.50575e-10
-2.6723e-10
4.42661e-08
3.58829e-08
1.66095e-10
3.59315e-08
1.00971e-10
3.59632e-08
4.8054e-11
3.5982e-08
4.31946e-12
3.59907e-08
-3.23991e-11
3.59916e-08
-6.37162e-11
3.59862e-08
-9.08824e-11
3.59757e-08
-1.14859e-10
3.5961e-08
-1.36374e-10
3.59429e-08
-1.5598e-10
3.59218e-08
-1.74094e-10
3.58981e-08
-1.91037e-10
3.5872e-08
-2.07051e-10
3.58437e-08
-2.22318e-10
-2.36956e-10
3.58134e-08
2.8762e-08
1.11702e-10
2.87993e-08
6.37468e-11
2.88231e-08
2.42066e-11
2.88364e-08
-9.01975e-12
2.88414e-08
-3.73774e-11
2.88397e-08
-6.19502e-11
2.88324e-08
-8.35931e-11
2.88205e-08
-1.02965e-10
2.88047e-08
-1.20565e-10
2.87855e-08
-1.36773e-10
2.87632e-08
-1.51877e-10
2.87383e-08
-1.66099e-10
2.87109e-08
-1.79611e-10
2.86811e-08
-1.92537e-10
-2.04961e-10
2.86491e-08
2.2818e-08
7.1711e-11
2.28448e-08
3.69685e-11
2.28612e-08
7.88324e-12
2.28691e-08
-1.69685e-11
2.28702e-08
-3.85115e-11
2.28657e-08
-5.74523e-11
2.28565e-08
-7.43622e-11
2.28432e-08
-8.96819e-11
2.28264e-08
-1.03745e-10
2.28064e-08
-1.16806e-10
2.27836e-08
-1.2906e-10
2.27582e-08
-1.40659e-10
2.27303e-08
-1.5172e-10
2.27001e-08
-1.62331e-10
-1.72545e-10
2.26677e-08
1.79136e-08
4.37311e-11
1.79316e-08
1.89764e-11
1.79416e-08
-2.08382e-12
1.7945e-08
-2.03811e-11
1.79429e-08
-3.64741e-11
1.79363e-08
-5.08104e-11
1.79257e-08
-6.37633e-11
1.79116e-08
-7.56196e-11
1.78945e-08
-8.65967e-11
1.78746e-08
-9.6862e-11
1.7852e-08
-1.06545e-10
1.78271e-08
-1.15747e-10
1.78e-08
-1.24546e-10
1.77706e-08
-1.33005e-10
-1.41158e-10
1.77392e-08
1.39089e-08
2.51182e-11
1.39201e-08
7.78232e-12
1.39252e-08
-7.22083e-12
1.39253e-08
-2.04701e-11
1.39211e-08
-3.22772e-11
1.39132e-08
-4.29193e-11
1.39021e-08
-5.26348e-11
1.38881e-08
-6.16057e-11
1.38714e-08
-6.99702e-11
1.38524e-08
-7.78355e-11
1.38311e-08
-8.52857e-11
1.38078e-08
-9.23871e-11
1.37824e-08
-9.91927e-11
1.37552e-08
-1.05745e-10
-1.12067e-10
1.37261e-08
1.06705e-08
1.3375e-11
1.06768e-08
1.45882e-12
1.06786e-08
-9.03915e-12
1.06766e-08
-1.8454e-11
1.06712e-08
-2.69407e-11
1.0663e-08
-3.46692e-11
1.06521e-08
-4.17882e-11
1.0639e-08
-4.84097e-11
1.06236e-08
-5.46195e-11
1.06063e-08
-6.04848e-11
1.0587e-08
-6.60586e-11
1.0566e-08
-7.13838e-11
1.05433e-08
-7.64955e-11
1.0519e-08
-8.14229e-11
-8.61827e-11
1.04931e-08
8.07604e-09
6.39242e-12
8.07912e-09
-1.62499e-12
8.0789e-09
-8.81567e-12
8.0758e-09
-1.53544e-11
8.07016e-09
-2.13058e-11
8.06227e-09
-2.67743e-11
8.05233e-09
-3.18501e-11
8.04052e-09
-3.66003e-11
8.02698e-09
-4.10764e-11
8.01181e-09
-4.53193e-11
7.99511e-09
-4.93616e-11
7.97696e-09
-5.32304e-11
7.95741e-09
-5.69488e-11
7.93653e-09
-6.05367e-11
-6.40061e-11
7.91435e-09
6.01634e-09
2.5335e-12
6.01744e-09
-2.72072e-12
6.01614e-09
-7.51365e-12
6.01271e-09
-1.19236e-11
6.00737e-09
-1.59693e-11
6.00031e-09
-1.97159e-11
5.99168e-09
-2.32162e-11
5.98159e-09
-2.65089e-11
5.97013e-09
-2.96237e-11
5.9574e-09
-3.25849e-11
5.94345e-09
-3.54117e-11
5.92834e-09
-3.81209e-11
5.91212e-09
-4.07271e-11
5.89483e-09
-4.32439e-11
-4.568e-11
5.8765e-09
4.39587e-09
6.11024e-13
4.39587e-09
-2.7158e-12
4.39415e-09
-5.79505e-12
4.39088e-09
-8.65482e-12
4.38621e-09
-1.1295e-11
4.38025e-09
-1.37569e-11
4.3731e-09
-1.60697e-11
4.36485e-09
-1.82549e-11
4.35555e-09
-2.03289e-11
4.34527e-09
-2.23052e-11
4.33405e-09
-2.41948e-11
4.32194e-09
-2.60078e-11
4.30897e-09
-2.77529e-11
4.29516e-09
-2.94393e-11
-3.1073e-11
4.28056e-09
3.13263e-09
-1.88288e-13
3.13211e-09
-2.19666e-12
3.13039e-09
-4.0742e-12
3.12756e-09
-5.82967e-12
3.12372e-09
-7.45853e-12
3.11895e-09
-8.9868e-12
3.11331e-09
-1.04295e-11
3.10686e-09
-1.17977e-11
3.09963e-09
-1.31e-11
3.09167e-09
-1.43433e-11
3.083e-09
-1.55335e-11
3.07367e-09
-1.66764e-11
3.0637e-09
-1.77772e-11
3.0531e-09
-1.88412e-11
-1.98726e-11
3.0419e-09
2.1573e-09
-3.93183e-13
2.15663e-09
-1.52343e-12
2.15514e-09
-2.58187e-12
2.15288e-09
-3.57548e-12
2.14992e-09
-4.50135e-12
2.14631e-09
-5.37503e-12
2.14209e-09
-6.20337e-12
2.13728e-09
-6.99154e-12
2.13192e-09
-7.74353e-12
2.12604e-09
-8.46269e-12
2.11966e-09
-9.15185e-12
2.1128e-09
-9.81406e-12
2.10547e-09
-1.04521e-11
2.0977e-09
-1.10689e-11
-1.16664e-11
2.0895e-09
1.41211e-09
-3.29407e-13
1.41148e-09
-8.98128e-13
1.41032e-09
-1.42321e-12
1.40866e-09
-1.9168e-12
1.40654e-09
-2.37874e-12
1.40398e-09
-2.81709e-12
1.40102e-09
-3.23438e-12
1.39766e-09
-3.63266e-12
1.39393e-09
-4.01349e-12
1.38984e-09
-4.37822e-12
1.38542e-09
-4.72803e-12
1.38067e-09
-5.06431e-12
1.3756e-09
-5.38845e-12
1.37024e-09
-5.70163e-12
-6.00419e-12
1.36458e-09
8.49402e-10
-1.85428e-13
8.48923e-10
-4.19028e-13
8.48123e-10
-6.23948e-13
8.47023e-10
-8.16386e-13
8.45642e-10
-9.97691e-13
8.43996e-10
-1.17084e-12
8.42098e-10
-1.33641e-12
8.3996e-10
-1.49492e-12
8.37593e-10
-1.64678e-12
8.35007e-10
-1.79239e-12
8.32211e-10
-1.93212e-12
8.29214e-10
-2.06645e-12
8.26021e-10
-2.19599e-12
8.2264e-10
-2.32093e-12
-2.44048e-12
8.19077e-10
4.3031e-10
-6.11624e-14
4.30012e-10
-1.20702e-13
4.29552e-10
-1.64007e-13
4.2894e-10
-2.04839e-13
4.28187e-10
-2.44014e-13
4.27298e-10
-2.81886e-13
4.2628e-10
-3.1837e-13
4.25138e-10
-3.53447e-13
4.23878e-10
-3.87116e-13
4.22505e-10
-4.19404e-13
4.21024e-10
-4.5037e-13
4.19437e-10
-4.8009e-13
4.1775e-10
-5.08749e-13
4.15965e-10
-5.36258e-13
-5.61513e-13
4.14087e-10
1.23377e-10
1.23256e-10
1.23092e-10
1.22887e-10
1.22643e-10
1.22361e-10
1.22043e-10
1.2169e-10
1.21303e-10
1.20883e-10
1.20433e-10
1.19953e-10
1.19444e-10
1.18908e-10
1.18346e-10
3.89923e-10
-2.62197e-10
1.95985e-10
4.82024e-10
-3.05691e-10
2.1359e-10
5.79011e-10
-3.14288e-10
2.17301e-10
6.76705e-10
-3.13047e-10
2.15353e-10
7.74115e-10
-3.07775e-10
2.10365e-10
8.71328e-10
-3.01581e-10
2.04367e-10
9.68762e-10
-2.96059e-10
1.98626e-10
1.06684e-09
-2.92372e-10
1.94298e-10
1.16592e-09
-2.91638e-10
1.92558e-10
1.2663e-09
-2.95038e-10
1.94655e-10
1.36821e-09
-3.03883e-10
2.01976e-10
1.47178e-09
-3.19654e-10
2.16079e-10
1.57708e-09
-3.44037e-10
2.38737e-10
1.68406e-09
-3.78964e-10
2.71982e-10
1.79256e-09
-4.26656e-10
3.18156e-10
1.90226e-09
-4.89708e-10
3.80012e-10
2.01262e-09
-5.71247e-10
4.60888e-10
2.12281e-09
-6.75313e-10
5.65123e-10
2.23151e-09
-8.07439e-10
6.98739e-10
2.33664e-09
-9.75888e-10
8.70758e-10
2.4348e-09
-1.19301e-09
1.09485e-09
2.52059e-09
-1.47644e-09
1.39065e-09
2.57837e-09
-1.57402e-09
1.51624e-09
2.60802e-09
-1.5588e-09
1.52915e-09
2.61459e-09
-1.50799e-09
1.50142e-09
2.60254e-09
-1.41487e-09
1.42692e-09
2.57584e-09
-1.27797e-09
1.30467e-09
2.53797e-09
-1.0993e-09
1.13716e-09
2.49203e-09
-8.82773e-10
9.28722e-10
2.44069e-09
-6.33023e-10
6.84357e-10
2.3863e-09
-3.5479e-10
4.09181e-10
2.33072e-09
-5.27213e-11
1.08303e-10
2.27523e-09
2.68263e-10
-2.12772e-10
2.2203e-09
6.02001e-10
-5.47077e-10
2.1653e-09
9.40388e-10
-8.85385e-10
2.10821e-09
1.27294e-09
-1.21585e-09
2.04559e-09
1.58657e-09
-1.52394e-09
1.97276e-09
1.86578e-09
-1.79296e-09
1.88431e-09
2.09343e-09
-2.00498e-09
1.77485e-09
2.25156e-09
-2.14209e-09
1.64011e-09
2.32219e-09
-2.18745e-09
1.47859e-09
2.28708e-09
-2.12556e-09
1.29378e-09
2.12545e-09
-1.94064e-09
1.09993e-09
1.80902e-09
-1.61517e-09
1.27248e-09
9.24694e-10
-1.09724e-09
7.49632e-10
-2.98016e-10
8.09376e-10
-3.65434e-10
8.88524e-10
-3.93437e-10
9.78427e-10
-4.02949e-10
1.07425e-09
-4.03603e-10
1.17364e-09
-4.00963e-10
1.27557e-09
-3.97988e-10
1.37967e-09
-3.96478e-10
1.48587e-09
-3.97833e-10
1.59418e-09
-4.0335e-10
1.70467e-09
-4.1437e-10
1.81736e-09
-4.32352e-10
1.93226e-09
-4.5893e-10
2.04924e-09
-4.95952e-10
2.16811e-09
-5.45521e-10
2.28847e-09
-6.10074e-10
2.40974e-09
-6.92509e-10
2.53096e-09
-7.96535e-10
2.65067e-09
-9.27154e-10
2.76658e-09
-1.0918e-09
2.87494e-09
-1.30137e-09
2.96981e-09
-1.57131e-09
3.03401e-09
-1.63822e-09
3.06736e-09
-1.59215e-09
3.07537e-09
-1.51599e-09
3.06292e-09
-1.40242e-09
3.03438e-09
-1.24942e-09
2.99359e-09
-1.05851e-09
2.94399e-09
-8.33168e-10
2.8886e-09
-5.77638e-10
2.83013e-09
-2.96311e-10
2.77082e-09
6.5864e-12
2.71244e-09
3.26639e-10
2.65604e-09
6.58399e-10
2.60163e-09
9.94799e-10
2.54794e-09
1.32664e-09
2.49235e-09
1.64216e-09
2.43114e-09
1.92699e-09
2.36013e-09
2.16444e-09
2.27582e-09
2.33587e-09
2.17707e-09
2.42093e-09
2.06724e-09
2.39691e-09
1.95553e-09
2.23717e-09
1.85295e-09
1.9116e-09
1.39801e-09
1.72742e-09
1.23079e-09
-3.20797e-10
1.26793e-09
-4.02572e-10
1.32627e-09
-4.51777e-10
1.40187e-09
-4.78546e-10
1.48975e-09
-4.9148e-10
1.58609e-09
-4.97306e-10
1.6885e-09
-5.00403e-10
1.79561e-09
-5.03584e-10
1.90664e-09
-5.08865e-10
2.02118e-09
-5.17885e-10
2.13897e-09
-5.32165e-10
2.25986e-09
-5.5324e-10
2.38368e-09
-5.82752e-10
2.51023e-09
-6.22498e-10
2.63919e-09
-6.74485e-10
2.77011e-09
-7.40992e-10
2.90229e-09
-8.24684e-10
3.03466e-09
-9.2891e-10
3.16561e-09
-1.0581e-09
3.29259e-09
-1.21878e-09
3.41151e-09
-1.42028e-09
3.51587e-09
-1.67567e-09
3.58689e-09
-1.70925e-09
3.6243e-09
-1.62956e-09
3.63405e-09
-1.52574e-09
3.62147e-09
-1.38984e-09
3.59131e-09
-1.21927e-09
3.54784e-09
-1.01504e-09
3.49484e-09
-7.80168e-10
3.43573e-09
-5.18527e-10
3.37359e-09
-2.34175e-10
3.31116e-09
6.902e-11
3.25076e-09
3.87043e-10
3.19412e-09
7.15036e-10
3.1421e-09
1.04682e-09
3.09445e-09
1.37429e-09
3.04974e-09
1.68686e-09
3.00566e-09
1.97108e-09
2.95963e-09
2.21046e-09
2.91004e-09
2.38547e-09
2.85745e-09
2.47352e-09
2.80522e-09
2.44914e-09
2.75639e-09
2.286e-09
2.70241e-09
1.96557e-09
1.49995e-09
2.60047e-09
1.86288e-09
-3.37061e-10
1.88512e-09
-4.24812e-10
1.92442e-09
-4.91082e-10
1.98254e-09
-5.36662e-10
2.05717e-09
-5.66113e-10
2.14493e-09
-5.85063e-10
2.24284e-09
-5.98319e-10
2.34875e-09
-6.09489e-10
2.46116e-09
-6.21281e-10
2.57912e-09
-6.35838e-10
2.70195e-09
-6.54999e-10
2.8292e-09
-6.80487e-10
2.96047e-09
-7.14026e-10
3.0954e-09
-7.57421e-10
3.23352e-09
-8.12609e-10
3.37426e-09
-8.81731e-10
3.51679e-09
-9.67216e-10
3.65992e-09
-1.07204e-09
3.80183e-09
-1.20002e-09
3.93974e-09
-1.35669e-09
4.06917e-09
-1.54971e-09
4.18307e-09
-1.78957e-09
4.26108e-09
-1.78725e-09
4.30276e-09
-1.67124e-09
4.3145e-09
-1.53748e-09
4.30205e-09
-1.3774e-09
4.2706e-09
-1.18782e-09
4.22479e-09
-9.69234e-10
4.16883e-09
-7.24203e-10
4.10653e-09
-4.56229e-10
4.04142e-09
-1.69066e-10
3.97675e-09
1.33693e-10
3.91547e-09
4.48313e-10
3.86014e-09
7.70369e-10
3.8126e-09
1.09436e-09
3.77383e-09
1.41306e-09
3.74386e-09
1.71684e-09
3.72193e-09
1.99301e-09
3.70704e-09
2.22535e-09
3.69852e-09
2.39399e-09
3.69633e-09
2.47571e-09
3.69952e-09
2.44594e-09
3.70136e-09
2.28416e-09
3.68111e-09
1.98583e-09
1.58049e-09
3.60056e-09
2.68587e-09
-3.49612e-10
2.69871e-09
-4.37658e-10
2.72259e-09
-5.14959e-10
2.76297e-09
-5.77043e-10
2.821e-09
-6.24147e-10
2.89524e-09
-6.59298e-10
2.98331e-09
-6.86387e-10
3.08289e-09
-7.09075e-10
3.19209e-09
-7.30476e-10
3.30943e-09
-7.53179e-10
3.43382e-09
-7.79395e-10
3.56445e-09
-8.11107e-10
3.70062e-09
-8.50196e-10
3.84172e-09
-8.98527e-10
3.98713e-09
-9.58014e-10
4.13607e-09
-1.03068e-09
4.28758e-09
-1.11873e-09
4.44029e-09
-1.22474e-09
4.59217e-09
-1.3519e-09
4.74017e-09
-1.50469e-09
4.87944e-09
-1.68897e-09
5.00236e-09
-1.91249e-09
5.08707e-09
-1.87196e-09
5.13297e-09
-1.71714e-09
5.14681e-09
-1.55132e-09
5.13474e-09
-1.36533e-09
5.10235e-09
-1.15543e-09
5.05471e-09
-9.21595e-10
4.99643e-09
-6.65929e-10
4.93178e-09
-3.91578e-10
4.86474e-09
-1.02026e-10
4.79912e-09
1.99321e-10
4.73855e-09
5.08884e-10
4.68641e-09
8.225e-10
4.64565e-09
1.13512e-09
4.61854e-09
1.44017e-09
4.60657e-09
1.7288e-09
4.61046e-09
1.98912e-09
4.63016e-09
2.20566e-09
4.66475e-09
2.3594e-09
4.71157e-09
2.42889e-09
4.76383e-09
2.39369e-09
4.80672e-09
2.24127e-09
4.81512e-09
1.97743e-09
1.63595e-09
4.75966e-09
3.74986e-09
-3.59742e-10
3.75704e-09
-4.44847e-10
3.76955e-09
-5.27469e-10
3.79411e-09
-6.01598e-10
3.83452e-09
-6.64557e-10
3.89181e-09
-7.16587e-10
3.96519e-09
-7.59765e-10
4.05304e-09
-7.96926e-10
4.15357e-09
-8.31009e-10
4.26514e-09
-8.64747e-10
4.38635e-09
-9.00603e-10
4.51604e-09
-9.40799e-10
4.65323e-09
-9.87393e-10
4.79706e-09
-1.04235e-09
4.94663e-09
-1.10759e-09
5.101e-09
-1.18504e-09
5.25897e-09
-1.2767e-09
5.41899e-09
-1.38476e-09
5.57881e-09
-1.51172e-09
5.73508e-09
-1.66096e-09
5.88257e-09
-1.83646e-09
6.01311e-09
-2.04303e-09
6.10359e-09
-1.96244e-09
6.15321e-09
-1.76676e-09
6.16898e-09
-1.56709e-09
6.1574e-09
-1.35374e-09
6.12445e-09
-1.12248e-09
6.07561e-09
-8.72755e-10
6.01592e-09
-6.06241e-10
5.95009e-09
-3.25745e-10
5.88257e-09
-3.45107e-11
5.81773e-09
2.64167e-10
5.75986e-09
5.66754e-10
5.71314e-09
8.69211e-10
5.68152e-09
1.16675e-09
5.66842e-09
1.45326e-09
5.6766e-09
1.72063e-09
5.7077e-09
1.95802e-09
5.76188e-09
2.15148e-09
5.83694e-09
2.28434e-09
5.92683e-09
2.339e-09
6.01965e-09
2.30087e-09
6.09625e-09
2.16467e-09
6.13234e-09
1.94134e-09
1.66107e-09
6.10722e-09
5.11569e-09
-3.68414e-10
5.11978e-09
-4.48928e-10
5.12473e-09
-5.3242e-10
5.13669e-09
-6.13556e-10
5.16067e-09
-6.88546e-10
5.19976e-09
-7.55668e-10
5.25507e-09
-8.1508e-10
5.32638e-09
-8.68241e-10
5.41268e-09
-9.17307e-10
5.51263e-09
-9.64693e-10
5.62484e-09
-1.01281e-09
5.74802e-09
-1.06398e-09
5.88097e-09
-1.12034e-09
6.02257e-09
-1.18395e-09
6.17173e-09
-1.25675e-09
6.32725e-09
-1.34056e-09
6.48773e-09
-1.43719e-09
6.65139e-09
-1.54841e-09
6.81572e-09
-1.67606e-09
6.97709e-09
-1.82233e-09
7.12988e-09
-1.98925e-09
7.26541e-09
-2.17856e-09
7.35974e-09
-2.05678e-09
7.41187e-09
-1.81889e-09
7.42894e-09
-1.58415e-09
7.4177e-09
-1.34251e-09
7.38448e-09
-1.08926e-09
7.33515e-09
-8.2342e-10
7.27515e-09
-5.46246e-10
7.20963e-09
-2.60222e-10
7.14349e-09
3.16256e-11
7.08159e-09
3.26066e-10
7.0288e-09
6.19553e-10
6.98992e-09
9.08087e-10
6.96963e-09
1.18704e-09
6.97218e-09
1.45072e-09
7.00099e-09
1.69182e-09
7.05802e-09
1.90098e-09
7.14291e-09
2.06659e-09
7.25171e-09
2.17554e-09
7.37551e-09
2.21519e-09
7.49947e-09
2.1769e-09
7.60362e-09
2.06053e-09
7.66695e-09
1.878e-09
1.65303e-09
7.67499e-09
6.85575e-09
-3.76554e-10
6.85859e-09
-4.51768e-10
6.85926e-09
-5.33094e-10
6.86241e-09
-6.16706e-10
6.87292e-09
-6.99059e-10
6.89488e-09
-7.77623e-10
6.931e-09
-8.51203e-10
6.98264e-09
-9.19877e-10
7.05003e-09
-9.84696e-10
7.13267e-09
-1.04733e-09
7.22964e-09
-1.10979e-09
7.33983e-09
-1.17416e-09
7.46205e-09
-1.24256e-09
7.59508e-09
-1.31699e-09
7.73766e-09
-1.39933e-09
7.88843e-09
-1.49133e-09
8.04576e-09
-1.59452e-09
8.20764e-09
-1.71029e-09
8.37133e-09
-1.83975e-09
8.53289e-09
-1.98389e-09
8.68635e-09
-2.14271e-09
8.82258e-09
-2.31479e-09
8.9175e-09
-2.1517e-09
8.96995e-09
-1.87134e-09
8.98699e-09
-1.60119e-09
8.97551e-09
-1.33103e-09
8.9421e-09
-1.05584e-09
8.89294e-09
-7.74259e-10
8.83385e-09
-4.87162e-10
8.77035e-09
-1.96725e-10
8.70775e-09
9.42337e-11
8.65126e-09
3.82557e-10
8.60611e-09
6.64703e-10
8.57746e-09
9.36728e-10
8.57031e-09
1.19419e-09
8.58911e-09
1.43191e-09
8.63731e-09
1.64363e-09
8.71649e-09
1.8218e-09
8.82531e-09
1.95777e-09
8.95833e-09
2.04252e-09
9.10509e-09
2.06843e-09
9.25021e-09
2.03179e-09
9.37533e-09
1.9354e-09
9.46334e-09
1.78999e-09
1.61278e-09
9.50359e-09
9.05483e-09
-3.8492e-10
9.05778e-09
-4.54722e-10
9.05679e-09
-5.32101e-10
9.05482e-09
-6.14742e-10
9.05578e-09
-7.00012e-10
9.06367e-09
-7.85515e-10
9.08198e-09
-8.69519e-10
9.11329e-09
-9.51178e-10
9.15912e-09
-1.03053e-09
9.22012e-09
-1.10834e-09
9.29625e-09
-1.18592e-09
9.38697e-09
-1.26488e-09
9.49142e-09
-1.34701e-09
9.60854e-09
-1.43411e-09
9.73709e-09
-1.52788e-09
9.87562e-09
-1.62986e-09
1.00224e-08
-1.7413e-09
1.01752e-08
-1.86312e-09
1.03312e-08
-1.99568e-09
1.0486e-08
-2.13871e-09
1.06334e-08
-2.29017e-09
1.0764e-08
-2.44539e-09
1.08546e-08
-2.24225e-09
1.09039e-08
-1.9206e-09
1.09186e-08
-1.61592e-09
1.09056e-08
-1.31806e-09
1.08717e-08
-1.02188e-09
1.08231e-08
-7.25731e-10
1.07661e-08
-4.30153e-10
1.07064e-08
-1.3702e-10
1.06496e-08
1.51079e-10
1.0601e-08
4.31132e-10
1.0566e-08
6.9971e-10
1.05497e-08
9.53053e-10
1.05568e-08
1.18708e-09
1.05914e-08
1.39731e-09
1.06562e-08
1.57876e-09
1.0752e-08
1.72601e-09
1.08764e-08
1.83342e-09
1.1023e-08
1.89592e-09
1.11813e-08
1.91012e-09
1.13373e-08
1.87582e-09
1.14755e-08
1.7972e-09
1.15825e-08
1.683e-09
1.54524e-09
1.165e-08
1.18109e-08
-3.93855e-10
1.18147e-08
-4.58541e-10
1.18138e-08
-5.31198e-10
1.18098e-08
-6.10674e-10
1.18051e-08
-6.95362e-10
1.18031e-08
-7.83496e-10
1.1807e-08
-8.73481e-10
1.182e-08
-9.64159e-10
1.18445e-08
-1.05495e-09
1.1882e-08
-1.1459e-09
1.19337e-08
-1.23757e-09
1.19997e-08
-1.33094e-09
1.208e-08
-1.42729e-09
1.21739e-08
-1.52799e-09
1.22804e-08
-1.6344e-09
1.23983e-08
-1.74771e-09
1.25257e-08
-1.86878e-09
1.26606e-08
-1.99797e-09
1.27997e-08
-2.13484e-09
1.29388e-08
-2.2778e-09
1.30714e-08
-2.42277e-09
1.31878e-08
-2.56177e-09
1.32671e-08
-2.32152e-09
1.33081e-08
-1.96165e-09
1.33171e-08
-1.62486e-09
1.33005e-08
-1.30149e-09
1.32651e-08
-9.86431e-10
1.32172e-08
-6.77876e-10
1.31632e-08
-3.76098e-10
1.31088e-08
-8.26504e-11
1.30597e-08
2.00168e-10
1.30212e-08
4.69615e-10
1.29984e-08
7.22564e-10
1.29958e-08
9.55661e-10
1.30174e-08
1.16543e-09
1.30664e-08
1.34835e-09
1.31442e-08
1.5009e-09
1.32505e-08
1.61973e-09
1.33819e-08
1.70198e-09
1.35321e-08
1.74575e-09
1.36915e-08
1.75074e-09
1.38484e-08
1.71891e-09
1.39908e-08
1.65481e-09
1.41085e-08
1.56532e-09
1.45868e-09
1.4195e-08
1.52348e-08
-4.03098e-10
1.52395e-08
-4.63218e-10
1.52394e-08
-5.31097e-10
1.52351e-08
-6.06348e-10
1.52279e-08
-6.88198e-10
1.522e-08
-7.7561e-10
1.5214e-08
-8.67469e-10
1.52126e-08
-9.62779e-10
1.52185e-08
-1.06082e-09
1.52339e-08
-1.16125e-09
1.52604e-08
-1.26412e-09
1.52993e-08
-1.36985e-09
1.53512e-08
-1.47913e-09
1.5416e-08
-1.59281e-09
1.54933e-08
-1.71175e-09
1.55823e-08
-1.83667e-09
1.56814e-08
-1.96789e-09
1.57885e-08
-2.10512e-09
1.59007e-08
-2.24701e-09
1.60135e-08
-2.3906e-09
1.61205e-08
-2.52978e-09
1.62121e-08
-2.65334e-09
1.62713e-08
-2.38076e-09
1.62976e-08
-1.98789e-09
1.6296e-08
-1.62333e-09
1.62727e-08
-1.27822e-09
1.62341e-08
-9.47761e-10
1.61863e-08
-6.30117e-10
1.61355e-08
-3.25326e-10
1.60875e-08
-3.46044e-11
1.60475e-08
2.40141e-10
1.60205e-08
4.96605e-10
1.60109e-08
7.32188e-10
1.60224e-08
9.44204e-10
1.60578e-08
1.13005e-09
1.61188e-08
1.28733e-09
1.62056e-08
1.41403e-09
1.63167e-08
1.50867e-09
1.64481e-08
1.57055e-09
1.65939e-08
1.59999e-09
1.6746e-08
1.59861e-09
1.68955e-08
1.56941e-09
1.70335e-08
1.51679e-09
1.71527e-08
1.44611e-09
1.36314e-09
1.72483e-08
1.94478e-08
-4.11794e-10
1.94525e-08
-4.67992e-10
1.94529e-08
-5.3146e-10
1.94488e-08
-6.02249e-10
1.94407e-08
-6.80151e-10
1.94299e-08
-7.64726e-10
1.94178e-08
-8.55386e-10
1.94065e-08
-9.51509e-10
1.93982e-08
-1.05255e-09
1.93951e-08
-1.15813e-09
1.93991e-08
-1.26809e-09
1.94117e-08
-1.3825e-09
1.94342e-08
-1.50161e-09
1.94672e-08
-1.62579e-09
1.95108e-08
-1.75538e-09
1.95647e-08
-1.89053e-09
1.96277e-08
-2.03095e-09
1.96982e-08
-2.17559e-09
1.97733e-08
-2.32212e-09
1.98489e-08
-2.4662e-09
1.99189e-08
-2.59972e-09
1.99739e-08
-2.70836e-09
2.00032e-08
-2.41002e-09
2.00069e-08
-1.99166e-09
1.99893e-08
-1.60567e-09
1.99554e-08
-1.24434e-09
1.99111e-08
-9.0343e-10
1.98621e-08
-5.81185e-10
1.98142e-08
-2.77445e-10
1.97727e-08
6.95764e-12
1.97422e-08
2.70626e-10
1.97269e-08
5.11865e-10
1.97303e-08
7.28812e-10
1.97548e-08
9.19669e-10
1.9802e-08
1.08287e-09
1.98721e-08
1.21724e-09
1.9964e-08
1.32212e-09
2.00752e-08
1.39752e-09
2.02015e-08
1.44423e-09
2.03376e-08
1.4639e-09
2.04772e-08
1.45905e-09
2.06136e-08
1.43301e-09
2.07406e-08
1.38971e-09
2.08534e-08
1.33337e-09
1.26812e-09
2.09484e-08
2.45748e-08
-4.18776e-10
2.45785e-08
-4.71659e-10
2.45782e-08
-5.31234e-10
2.45738e-08
-5.97778e-10
2.4565e-08
-6.71413e-10
2.45524e-08
-7.52104e-10
2.45367e-08
-8.3968e-10
2.45191e-08
-9.33892e-10
2.4501e-08
-1.03448e-09
2.44841e-08
-1.14121e-09
2.44699e-08
-1.25395e-09
2.44601e-08
-1.37264e-09
2.44558e-08
-1.49731e-09
2.4458e-08
-1.62799e-09
2.44672e-08
-1.76459e-09
2.44834e-08
-1.90675e-09
2.4506e-08
-2.05358e-09
2.45337e-08
-2.20325e-09
2.4564e-08
-2.35245e-09
2.45933e-08
-2.49547e-09
2.46159e-08
-2.62234e-09
2.46235e-08
-2.71597e-09
2.46133e-08
-2.39976e-09
2.4587e-08
-1.9654e-09
2.45475e-08
-1.56615e-09
2.44989e-08
-1.19575e-09
2.44462e-08
-8.50685e-10
2.43943e-08
-5.29355e-10
2.43483e-08
-2.3141e-10
2.43125e-08
4.27577e-11