/*--------------------------------*- C++ -*----------------------------------*\
| =========                 |                                                 |
| \\      /  F ield         | OpenFOAM: The Open Source CFD Toolbox           |
|  \\    /   O peration     | Version:  2312                                  |
|   \\  /    A nd           | Website:  www.openfoam.com                      |
|    \\/     M anipulation  |                                                 |
\*---------------------------------------------------------------------------*/
FoamFile
{
    version     2.0;
    format      ascii;
    arch        "LSB;label=32;scalar=64";
    class       volVectorField;
    location    "100";
    object      U;
}
// * * * * * * * * * * * * * * * * * * * * * * * * * * * * * * * * * * * * * //

dimensions      [0 1 -1 0 0 0 0];

internalField   nonuniform List<vector> 
4800
(
(0.000104592 2.24713e-08 -6.70495e-27)
(0.000104124 3.20214e-08 -4.83848e-26)
(0.000104299 3.97688e-08 6.17015e-26)
(0.000104905 4.37819e-08 2.95844e-26)
(0.000105845 4.38964e-08 4.48351e-25)
(0.000107053 3.92243e-08 -1.07459e-24)
(0.000108501 2.85745e-08 1.01832e-24)
(0.000110192 9.67651e-09 -1.49729e-24)
(0.000112172 -2.28903e-08 4.72991e-25)
(0.000114584 -8.47171e-08 1.64811e-24)
(0.000117819 -2.30223e-07 -5.03441e-25)
(0.00012285 -6.57109e-07 -3.94573e-26)
(0.000132096 -1.90433e-06 -6.09251e-25)
(0.000154689 -8.01061e-06 2.8151e-25)
(0.000193713 -4.31765e-05 -2.20794e-25)
(0.000324438 1.66647e-07 -2.8204e-26)
(0.000322771 3.22487e-08 3.51225e-26)
(0.000323091 -8.20722e-08 -3.36572e-25)
(0.000324733 -2.00011e-07 2.47627e-25)
(0.000327379 -3.31837e-07 8.32622e-25)
(0.000330827 -4.88503e-07 -1.33685e-24)
(0.000334991 -6.86171e-07 -3.98169e-25)
(0.000339884 -9.53478e-07 -1.07242e-25)
(0.000345657 -1.35542e-06 3.15997e-24)
(0.000352728 -2.06036e-06 -2.31026e-24)
(0.000362062 -3.52868e-06 2.46201e-25)
(0.000375612 -7.02197e-06 3.71087e-25)
(0.00039697 -1.56157e-05 -5.40926e-25)
(0.000433234 -3.65139e-05 -1.83516e-25)
(0.000477965 -8.69853e-05 6.80462e-25)
(0.000568866 5.68426e-07 -2.28732e-26)
(0.000565625 1.25695e-07 2.32536e-26)
(0.000565853 -2.48205e-07 2.47705e-25)
(0.00056837 -6.24713e-07 -5.94634e-25)
(0.000572603 -1.03858e-06 5.90332e-25)
(0.000578197 -1.52409e-06 5.72747e-25)
(0.000584994 -2.13197e-06 -1.46601e-24)
(0.000593007 -2.95128e-06 -9.2233e-25)
(0.000602468 -4.17273e-06 2.15435e-24)
(0.000613975 -6.23885e-06 8.13971e-25)
(0.000628714 -1.0171e-05 -2.74258e-24)
(0.000648576 -1.81828e-05 -4.27088e-25)
(0.000675733 -3.4396e-05 1.08434e-24)
(0.00071134 -6.50523e-05 1.7272e-24)
(0.000744965 -0.000116408 -8.71178e-25)
(0.000840183 1.33899e-06 9.68145e-27)
(0.0008349 3.55789e-07 -6.76979e-26)
(0.000834709 -4.70481e-07 3.06325e-25)
(0.000837846 -1.29107e-06 3.40309e-25)
(0.000843444 -2.18469e-06 -3.21003e-25)
(0.000850969 -3.22501e-06 -1.94035e-24)
(0.00086017 -4.51888e-06 -1.35592e-24)
(0.000871023 -6.24833e-06 4.8992e-24)
(0.000883763 -8.77803e-06 2.04108e-24)
(0.000898969 -1.28696e-05 -2.7939e-24)
(0.000917582 -2.00322e-05 -1.09817e-24)
(0.000940587 -3.29007e-05 -8.21825e-25)
(0.000967968 -5.5087e-05 1.06904e-26)
(0.000997108 -8.95639e-05 5.58115e-25)
(0.00101937 -0.000134984 2.68602e-27)
(0.00114061 2.63659e-06 -2.05506e-26)
(0.00113274 8.13876e-07 -1.26084e-25)
(0.0011317 -7.10142e-07 -8.49035e-26)
(0.0011351 -2.20256e-06 2.14126e-25)
(0.00114172 -3.80943e-06 -6.32696e-25)
(0.00115082 -5.66071e-06 1.55841e-24)
(0.00116202 -7.93683e-06 -2.61717e-25)
(0.00117521 -1.093e-05 9.63622e-25)
(0.0011905 -1.51787e-05 -5.16685e-24)
(0.00120825 -2.16842e-05 9.52563e-24)
(0.0012288 -3.21402e-05 -8.85369e-24)
(0.00125201 -4.89041e-05 4.49008e-24)
(0.00127628 -7.41752e-05 -4.00242e-24)
(0.00129801 -0.000108069 3.60022e-24)
(0.00131198 -0.000146528 -1.38297e-24)
(0.0014722 4.67832e-06 3.16688e-26)
(0.00146111 1.64304e-06 1.13211e-25)
(0.00145871 -8.81122e-07 -5.9835e-25)
(0.00146189 -3.316e-06 -3.94039e-25)
(0.00146906 -5.90131e-06 1.00794e-24)
(0.00147923 -8.83889e-06 3.66253e-25)
(0.00149185 -1.23909e-05 -2.81867e-24)
(0.00150663 -1.69523e-05 6.55495e-24)
(0.00152349 -2.31802e-05 -8.25996e-24)
(0.00154238 -3.21463e-05 1.85202e-24)
(0.001563 -4.53747e-05 5.54703e-24)
(0.00158432 -6.44947e-05 -7.33229e-24)
(0.00160419 -9.02666e-05 3.41067e-24)
(0.00161962 -0.000121277 3.39586e-24)
(0.00162813 -0.000153446 -2.44942e-24)
(0.00183659 7.74799e-06 3.07311e-26)
(0.00182166 3.04812e-06 -1.79802e-25)
(0.0018173 -8.38636e-07 6.44097e-25)
(0.00181969 -4.52803e-06 -8.86015e-25)
(0.0018268 -8.38057e-06 -3.03432e-24)
(0.00183738 -1.26818e-05 5.00887e-24)
(0.00185065 -1.77705e-05 -2.98962e-24)
(0.00186612 -2.41101e-05 9.89632e-24)
(0.00188339 -3.2382e-05 -6.33581e-24)
(0.00190202 -4.35414e-05 -2.84226e-24)
(0.0019212 -5.86965e-05 -5.37945e-24)
(0.0019395 -7.86577e-05 4.5297e-24)
(0.00195497 -0.000103195 1.19825e-24)
(0.00196565 -0.000130468 9.84731e-25)
(0.00197075 -0.000157313 -8.15001e-25)
(0.00223472 1.21945e-05 -5.21852e-26)
(0.00221541 5.30352e-06 6.95164e-25)
(0.00220848 -3.6466e-07 -1.59984e-24)
(0.00220943 -5.65494e-06 -1.33231e-24)
(0.00221578 -1.10732e-05 4.30352e-25)
(0.002226 -1.69945e-05 8.79815e-25)
(0.00223904 -2.38154e-05 3.17734e-24)
(0.00225415 -3.20154e-05 -8.33503e-24)
(0.00227066 -4.21995e-05 -4.36228e-24)
(0.00228781 -5.50712e-05 1.07579e-23)
(0.00230452 -7.12463e-05 -3.21197e-24)
(0.00231942 -9.08813e-05 1.00715e-23)
(0.00233104 -0.000113271 -4.86357e-24)
(0.00233834 -0.000136755 -1.46661e-24)
(0.00234134 -0.000159179 8.19337e-25)
(0.00266626 1.84079e-05 -8.15331e-27)
(0.00264232 8.74846e-06 4.47476e-25)
(0.00263233 8.39924e-07 -6.20004e-25)
(0.0026312 -6.41637e-06 1.47926e-24)
(0.00263607 -1.36888e-05 -8.56375e-24)
(0.00264508 -2.1441e-05 8.59263e-24)
(0.00265695 -3.01002e-05 -1.31275e-23)
(0.00267069 -4.01072e-05 7.4065e-24)
(0.0026854 -5.19186e-05 5.22549e-24)
(0.00270013 -6.59397e-05 1.07762e-23)
(0.00271382 -8.23625e-05 -1.28636e-23)
(0.00272535 -0.000100948 -2.28788e-24)
(0.00273378 -0.000120895 8.55026e-25)
(0.00273867 -0.000140944 6.2392e-24)
(0.00274034 -0.00015974 -2.39843e-24)
(0.00312903 2.67516e-05 5.29519e-26)
(0.00310074 1.37511e-05 -2.18503e-25)
(0.00308747 3.14033e-06 9.4645e-25)
(0.00308378 -6.43768e-06 -3.21275e-24)
(0.00308651 -1.58174e-05 4.64987e-24)
(0.00309354 -2.55434e-05 -5.73014e-24)
(0.00310339 -3.60467e-05 9.03793e-24)
(0.00311486 -4.7692e-05 1.5955e-24)
(0.00312695 -6.07639e-05 -1.07466e-23)
(0.00313869 -7.54074e-05 1.42427e-23)
(0.00314914 -9.15344e-05 -1.43067e-23)
(0.00315751 -0.000108747 -3.99637e-24)
(0.00316329 -0.00012635 6.23374e-24)
(0.00316635 -0.000143489 1.72781e-24)
(0.00316707 -0.000159366 -7.12508e-25)
(0.00361804 3.74205e-05 2.52555e-25)
(0.00358655 2.06151e-05 -1.94528e-24)
(0.00357033 6.90678e-06 -3.02465e-24)
(0.00356397 -5.29156e-06 6.69257e-24)
(0.00356415 -1.69628e-05 2.90664e-24)
(0.00356864 -2.87191e-05 -1.68756e-23)
(0.00357581 -4.0977e-05 4.62637e-24)
(0.0035844 -5.40152e-05 3.08213e-24)
(0.00359338 -6.79718e-05 -1.29696e-23)
(0.00360186 -8.28191e-05 1.19302e-23)
(0.0036091 -9.83409e-05 -9.10832e-24)
(0.0036146 -0.000114141 2.08417e-23)
(0.00361811 -0.000129705 -9.22518e-24)
(0.00361964 -0.000144506 4.99746e-24)
(0.00361954 -0.0001581 -1.29218e-24)
(0.00412472 5.02048e-05 -1.17886e-25)
(0.00409237 2.94022e-05 1.48123e-24)
(0.00407434 1.23787e-05 -2.70805e-24)
(0.00406574 -2.60658e-06 -1.33586e-24)
(0.00406343 -1.66389e-05 1.36363e-23)
(0.0040652 -3.03765e-05 -1.6312e-24)
(0.00406944 -4.42154e-05 -2.05942e-23)
(0.00407491 -5.83651e-05 2.19927e-23)
(0.00408064 -7.2873e-05 -4.34284e-24)
(0.00408591 -8.76376e-05 -1.42152e-23)
(0.00409017 -0.000102432 1.38102e-23)
(0.00409311 -0.000116945 6.98745e-24)
(0.00409464 -0.000130848 -5.06852e-24)
(0.00409479 -0.000143847 -8.34954e-24)
(0.00409387 -0.00015572 6.67394e-25)
(0.00463668 6.41933e-05 7.19682e-27)
(0.00460691 3.96713e-05 -1.79713e-24)
(0.00458914 1.94395e-05 7.97769e-24)
(0.00457953 1.7364e-06 5.90026e-25)
(0.00457541 -1.45486e-05 4.07849e-24)
(0.00457484 -3.00866e-05 -1.27231e-23)
(0.00457638 -4.52536e-05 1.00694e-23)
(0.00457895 -6.02213e-05 2.25393e-24)
(0.00458172 -7.50078e-05 1.73339e-23)
(0.00458413 -8.95168e-05 -2.35378e-23)
(0.00458582 -0.00010358 -9.82798e-24)
(0.00458659 -0.000117003 -6.08037e-24)
(0.00458641 -0.000129609 1.01874e-23)
(0.00458534 -0.000141266 -2.87418e-25)
(0.00458361 -0.000151881 8.76193e-25)
(0.0051388 7.75929e-05 -2.61131e-26)
(0.00511552 5.02352e-05 1.93048e-24)
(0.00510072 2.73589e-05 -2.58792e-24)
(0.00509197 7.34837e-06 -1.15695e-26)
(0.00508736 -1.08323e-05 2.93579e-24)
(0.00508543 -2.78212e-05 6.87751e-24)
(0.00508506 -4.39721e-05 -2.38675e-23)
(0.00508543 -5.94479e-05 1.57558e-24)
(0.00508592 -7.42829e-05 9.80567e-24)
(0.00508613 -8.84318e-05 -4.24914e-24)
(0.00508584 -0.000101812 1.033e-23)
(0.00508495 -0.00011434 6.76799e-24)
(0.00508345 -0.000125954 -1.10843e-23)
(0.00508139 -0.000136627 7.14035e-24)
(0.00507894 -0.000146346 -5.62144e-24)
(0.00561633 8.80289e-05 -9.37481e-25)
(0.00560233 5.92133e-05 4.49736e-25)
(0.00559292 3.47072e-05 3.14895e-24)
(0.00558701 1.3172e-05 -1.50848e-23)
(0.00558352 -6.26576e-06 1.19094e-23)
(0.00558158 -2.41635e-05 -8.08198e-24)
(0.00558048 -4.0845e-05 5.06821e-24)
(0.0055797 -5.64775e-05 -3.37017e-23)
(0.00557887 -7.11322e-05 4.33874e-23)
(0.00557777 -8.48278e-05 -2.35248e-23)
(0.00557628 -9.75636e-05 1.90474e-23)
(0.00557436 -0.000109342 1.49543e-23)
(0.00557204 -0.000120184 -2.39143e-23)
(0.00556935 -0.000130125 7.25422e-24)
(0.00556643 -0.000139198 -2.93832e-25)
(0.00605837 9.35887e-05 -3.66783e-26)
(0.00605376 6.47285e-05 -8.43547e-26)
(0.00605057 3.9787e-05 -1.27605e-27)
(0.00604857 1.77274e-05 -4.20488e-25)
(0.00604735 -2.13573e-06 4.91968e-24)
(0.00604653 -2.02585e-05 -7.59496e-24)
(0.00604581 -3.6928e-05 6.42121e-24)
(0.00604495 -5.23178e-05 -1.85845e-23)
(0.00604379 -6.65348e-05 3.83798e-23)
(0.00604227 -7.9652e-05 -4.49208e-23)
(0.00604036 -9.17299e-05 3.38518e-23)
(0.00603809 -0.00010283 -1.05251e-23)
(0.00603549 -0.000113019 5.47395e-25)
(0.00603259 -0.000122373 2.21065e-24)
(0.00602954 -0.000130945 -3.9764e-24)
(0.00645755 9.40254e-05 -3.22263e-24)
(0.00645971 6.60716e-05 5.53677e-24)
(0.00646141 4.16482e-05 -2.01627e-24)
(0.00646282 1.99545e-05 -1.92354e-24)
(0.00646387 4.50372e-07 7.48715e-24)
(0.00646448 -1.72395e-05 -6.88159e-24)
(0.00646461 -3.33747e-05 -5.84869e-24)
(0.00646424 -4.81355e-05 -1.30101e-23)
(0.00646336 -6.16566e-05 5.61241e-24)
(0.00646201 -7.40477e-05 2.62448e-23)
(0.00646022 -8.54072e-05 -1.27774e-23)
(0.00645806 -9.5829e-05 7.27116e-24)
(0.00645558 -0.000105405 -2.69569e-24)
(0.00645282 -0.000114225 -7.90355e-24)
(0.0064499 -0.000122354 3.91013e-24)
(0.00680291 9.07031e-05 1.09388e-24)
(0.00680845 6.41437e-05 -1.73012e-24)
(0.00681269 4.08008e-05 -9.72147e-25)
(0.00681591 2.00468e-05 1.95409e-25)
(0.00681822 1.43295e-06 -2.51628e-24)
(0.00681968 -1.53695e-05 1.01303e-23)
(0.00682037 -3.06075e-05 -7.53929e-24)
(0.00682039 -4.44711e-05 -4.68843e-24)
(0.00681979 -5.71147e-05 3.80606e-24)
(0.00681867 -6.86706e-05 -4.40441e-24)
(0.00681709 -7.9257e-05 9.39807e-24)
(0.00681513 -8.89825e-05 4.64989e-24)
(0.00681286 -9.79476e-05 -1.61544e-23)
(0.0068103 -0.000106245 1.06465e-23)
(0.00680756 -0.000113939 -2.12383e-24)
(0.00707002 8.50669e-05 3.28054e-24)
(0.00707684 6.03397e-05 5.25049e-24)
(0.00708191 3.8509e-05 -1.02031e-23)
(0.00708562 1.90936e-05 -1.01661e-24)
(0.00708818 1.71332e-06 2.59083e-24)
(0.00708973 -1.39283e-05 -2.96197e-24)
(0.00709043 -2.80676e-05 -4.96049e-24)
(0.00709041 -4.08978e-05 9.15067e-24)
(0.00708977 -5.25824e-05 1.01589e-23)
(0.00708861 -6.32631e-05 -2.29369e-23)
(0.00708701 -7.30644e-05 1.24777e-23)
(0.00708504 -8.20976e-05 -8.30657e-25)
(0.00708277 -9.04619e-05 -6.83497e-25)
(0.00708023 -9.82456e-05 8.88619e-25)
(0.00707749 -0.000105508 -4.01148e-25)
(0.00721589 7.7463e-05 -8.61201e-24)
(0.00722338 5.51814e-05 -1.69218e-23)
(0.00722877 3.54087e-05 7.64041e-24)
(0.00723255 1.77884e-05 2.50211e-23)
(0.007235 2.00548e-06 -6.351e-24)
(0.00723634 -1.21995e-05 -1.78204e-24)
(0.00723679 -2.50423e-05 7.99519e-25)
(0.00723649 -3.6706e-05 -4.55897e-24)
(0.00723558 -4.73485e-05 1.184e-23)
(0.00723416 -5.71063e-05 -4.89826e-24)
(0.00723231 -6.60981e-05 3.04942e-24)
(0.0072301 -7.44276e-05 -4.42848e-24)
(0.0072276 -8.21851e-05 -5.05843e-24)
(0.00722483 -8.94493e-05 7.33416e-24)
(0.00722183 -9.62699e-05 -3.15109e-24)
(0.00718083 6.79821e-05 1.33292e-23)
(0.00718883 4.86625e-05 -2.73727e-23)
(0.00719451 3.14281e-05 4.01207e-24)
(0.0071984 1.60113e-05 3.21862e-23)
(0.00720082 2.15634e-06 -2.82755e-23)
(0.00720206 -1.03537e-05 8.86376e-24)
(0.00720234 -2.17051e-05 4.78458e-24)
(0.00720185 -3.20596e-05 -9.79338e-24)
(0.00720073 -4.15572e-05 2.9671e-24)
(0.00719907 -5.0318e-05 2.24019e-25)
(0.00719698 -5.84455e-05 -1.47542e-24)
(0.00719451 -6.60286e-05 2.58356e-24)
(0.00719172 -7.31438e-05 -2.98379e-24)
(0.00718866 -7.98566e-05 1.92622e-24)
(0.00718532 -8.62078e-05 -8.69871e-25)
(0.00696402 5.78446e-05 7.93372e-24)
(0.00697244 4.15168e-05 -1.50587e-23)
(0.00697848 2.6874e-05 -9.29412e-24)
(0.00698265 1.37055e-05 3.98232e-23)
(0.00698527 1.80539e-06 -3.32446e-23)
(0.00698666 -9.00121e-06 3.42179e-24)
(0.00698705 -1.88665e-05 4.65668e-24)
(0.00698662 -2.79244e-05 2.15254e-24)
(0.00698551 -3.62908e-05 1.16937e-24)
(0.00698384 -4.40649e-05 -3.88712e-24)
(0.00698168 -5.13313e-05 2.50461e-24)
(0.00697911 -5.81624e-05 9.56914e-25)
(0.00697617 -6.46196e-05 -4.49553e-24)
(0.00697291 -7.07552e-05 2.20564e-24)
(0.00696932 -7.66026e-05 9.78412e-25)
(0.00662417 4.79987e-05 1.89758e-23)
(0.00663292 3.43441e-05 -3.0625e-23)
(0.00663933 2.20359e-05 5.78809e-24)
(0.00664384 1.09022e-05 -1.21118e-23)
(0.00664677 7.78152e-07 -1.39691e-23)
(0.00664843 -8.47407e-06 4.50546e-23)
(0.00664904 -1.69754e-05 -1.59271e-23)
(0.00664879 -2.48329e-05 3.95781e-24)
(0.0066478 -3.21394e-05 -1.94926e-24)
(0.0066462 -3.8974e-05 -3.27966e-24)
(0.00664405 -4.54041e-05 5.05971e-24)
(0.00664143 -5.14865e-05 -1.33579e-24)
(0.00663838 -5.72694e-05 4.18576e-25)
(0.00663495 -6.27934e-05 -6.60078e-25)
(0.00663111 -6.80846e-05 1.56257e-25)
(0.0062049 3.85974e-05 7.04303e-24)
(0.00621377 2.7287e-05 -3.32705e-23)
(0.00622037 1.70474e-05 5.30912e-23)
(0.00622509 7.73411e-06 -3.73665e-23)
(0.00622822 -7.83632e-07 3.4002e-23)
(0.00623005 -8.61332e-06 -1.09591e-23)
(0.00623081 -1.58503e-05 -6.94033e-24)
(0.00623065 -2.25792e-05 -6.62005e-24)
(0.00622972 -2.88731e-05 9.82986e-24)
(0.0062281 -3.47939e-05 -1.45123e-24)
(0.00622588 -4.03937e-05 -7.39751e-24)
(0.00622311 -4.57164e-05 -2.2514e-25)
(0.00621986 -5.07992e-05 5.02491e-25)
(0.00621615 -5.56725e-05 1.24201e-25)
(0.00621198 -6.03563e-05 -7.9538e-26)
(0.00573825 2.992e-05 9.01909e-25)
(0.00574692 2.06629e-05 -1.21444e-23)
(0.00575341 1.22515e-05 -6.07641e-24)
(0.00575805 4.56279e-06 4.76858e-23)
(0.00576113 -2.50579e-06 -4.37919e-23)
(0.00576291 -9.03687e-06 1.20287e-23)
(0.00576359 -1.51046e-05 1.8585e-24)
(0.00576332 -2.07749e-05 -8.85383e-25)
(0.00576223 -2.61043e-05 -3.59573e-24)
(0.00576041 -3.114e-05 1.40651e-23)
(0.00575793 -3.59217e-05 -1.04868e-23)
(0.00575486 -4.04827e-05 -1.2377e-25)
(0.00575122 -4.48511e-05 5.63106e-25)
(0.00574707 -4.90497e-05 -2.16667e-25)
(0.0057424 -5.3093e-05 2.47189e-25)
(0.00524721 2.22509e-05 1.28492e-24)
(0.00525528 1.479e-05 1.08795e-23)
(0.0052613 7.98942e-06 -1.18739e-23)
(0.00526554 1.74457e-06 -7.53867e-24)
(0.00526826 -4.02284e-06 4.48968e-23)
(0.0052697 -9.37511e-06 -3.29996e-23)
(0.00527004 -1.43692e-05 -8.50237e-25)
(0.00526943 -1.90556e-05 -5.82354e-24)
(0.00526796 -2.3477e-05 -2.72321e-25)
(0.00526573 -2.76688e-05 8.67424e-25)
(0.0052628 -3.16608e-05 -1.82727e-24)
(0.00525923 -3.54779e-05 2.01446e-24)
(0.00525506 -3.9141e-05 7.97096e-25)
(0.00525032 -4.26668e-05 5.10151e-25)
(0.00524502 -4.60658e-05 -9.83419e-26)
(0.00474809 1.5816e-05 8.6942e-24)
(0.00475522 9.91449e-06 -1.26511e-23)
(0.00476043 4.51912e-06 -9.37906e-24)
(0.00476397 -4.57447e-07 2.74077e-23)
(0.00476606 -5.07259e-06 -9.48532e-24)
(0.00476693 -9.37193e-06 -1.22205e-23)
(0.00476673 -1.33984e-05 4.23246e-24)
(0.00476558 -1.71898e-05 8.3802e-24)
(0.00476357 -2.07777e-05 -1.23228e-23)
(0.00476079 -2.41879e-05 1.12947e-23)
(0.0047573 -2.74425e-05 -5.39242e-24)
(0.00475314 -3.05596e-05 1.9171e-24)
(0.00474835 -3.35547e-05 -1.48868e-24)
(0.00474296 -3.64402e-05 9.54269e-25)
(0.00473698 -3.92232e-05 3.09444e-27)
(0.00425255 1.07106e-05 -1.58488e-24)
(0.00425849 6.14054e-06 -5.18522e-24)
(0.00426268 1.94821e-06 -1.56299e-23)
(0.00426534 -1.93685e-06 4.22022e-23)
(0.00426666 -5.55404e-06 -7.5665e-24)
(0.00426683 -8.93527e-06 -1.09077e-23)
(0.00426598 -1.21122e-05 3.4047e-24)
(0.00426421 -1.51123e-05 -4.89439e-24)
(0.00426161 -1.79582e-05 -9.35172e-24)
(0.00425825 -2.06686e-05 8.95099e-24)
(0.00425418 -2.32591e-05 4.19005e-25)
(0.00424944 -2.57431e-05 -1.78162e-24)
(0.00424407 -2.81318e-05 2.05621e-24)
(0.00423809 -3.04343e-05 -3.46789e-27)
(0.00423152 -3.26555e-05 -1.75233e-26)
(0.00376908 6.88359e-06 5.65707e-24)
(0.00377374 3.42366e-06 7.85809e-24)
(0.00377685 2.36114e-07 -7.33699e-24)
(0.00377859 -2.73302e-06 -1.49252e-23)
(0.00377911 -5.50788e-06 1.92125e-23)
(0.00377857 -8.10985e-06 -2.01353e-23)
(0.00377708 -1.05617e-05 -4.07666e-25)
(0.00377474 -1.28828e-05 7.30596e-24)
(0.0037716 -1.50889e-05 2.37664e-24)
(0.00376774 -1.71931e-05 -4.20223e-24)
(0.00376318 -1.92066e-05 4.90678e-25)
(0.00375798 -2.11388e-05 6.90536e-24)
(0.00375216 -2.29979e-05 -2.55849e-24)
(0.00374576 -2.47905e-05 -4.25792e-25)
(0.00373877 -2.65202e-05 -6.5639e-27)
(0.00330392 4.1715e-06 -5.37847e-24)
(0.00330736 1.61291e-06 6.75193e-24)
(0.00330946 -7.57377e-07 6.98499e-25)
(0.00331034 -2.97757e-06 1.24456e-23)
(0.00331014 -5.05963e-06 -1.012e-23)
(0.00330899 -7.01747e-06 6.23488e-25)
(0.00330698 -8.86711e-06 -1.13287e-24)
(0.00330418 -1.06218e-05 -2.83661e-24)
(0.00330064 -1.22923e-05 2.11666e-24)
(0.00329642 -1.38876e-05 -6.72581e-24)
(0.00329155 -1.54153e-05 7.6282e-25)
(0.00328608 -1.68822e-05 1.57589e-24)
(0.00328001 -1.82941e-05 8.14144e-25)
(0.00327339 -1.96561e-05 2.39762e-25)
(0.00326622 -2.09705e-05 2.13429e-26)
(0.00286159 2.3552e-06 3.59923e-24)
(0.00286396 5.08886e-07 -2.81611e-24)
(0.00286519 -1.21338e-06 -1.1752e-23)
(0.00286537 -2.83576e-06 1.08768e-23)
(0.0028646 -4.36157e-06 1.4379e-23)
(0.00286299 -5.79997e-06 -3.90066e-24)
(0.00286061 -7.16199e-06 -7.20837e-24)
(0.00285752 -8.45645e-06 -9.29908e-24)
(0.00285376 -9.69045e-06 6.82028e-24)
(0.00284937 -1.087e-05 2.90669e-25)
(0.0028444 -1.20004e-05 -1.32006e-24)
(0.00283886 -1.30863e-05 -2.41095e-25)
(0.00283278 -1.41317e-05 5.21011e-25)
(0.00282619 -1.51405e-05 -6.41918e-26)
(0.00281909 -1.61145e-05 -2.55857e-26)
(0.00244517 1.20958e-06 -2.02296e-24)
(0.00244667 -8.82726e-08 -1.37092e-24)
(0.00244721 -1.30853e-06 1.72212e-24)
(0.00244686 -2.46409e-06 -5.08618e-24)
(0.0024457 -3.55322e-06 1.64505e-23)
(0.0024438 -4.58226e-06 -2.11415e-23)
(0.00244123 -5.55867e-06 2.00879e-23)
(0.00243803 -6.4881e-06 -8.31782e-24)
(0.00243423 -7.37516e-06 1.70086e-24)
(0.00242988 -8.22381e-06 -1.1359e-25)
(0.002425 -9.03749e-06 -1.29225e-24)
(0.00241961 -9.81935e-06 2.30563e-25)
(0.00241374 -1.05723e-05 -7.19752e-25)
(0.0024074 -1.12992e-05 -4.48587e-26)
(0.0024006 -1.20014e-05 1.16567e-26)
(0.00205648 5.35308e-07 -8.69864e-25)
(0.00205732 -3.50403e-07 2.31458e-25)
(0.00205737 -1.19005e-06 4.73498e-25)
(0.00205667 -1.98865e-06 -2.08676e-24)
(0.00205528 -2.74237e-06 -8.65698e-25)
(0.00205327 -3.456e-06 7.7787e-24)
(0.00205068 -4.13438e-06 -4.51055e-24)
(0.00204754 -4.78104e-06 5.93328e-25)
(0.00204388 -5.39887e-06 -5.84241e-25)
(0.00203974 -5.99037e-06 -5.56213e-25)
(0.00203513 -6.55775e-06 -9.85229e-26)
(0.00203008 -7.1031e-06 8.66948e-25)
(0.00202461 -7.62839e-06 4.69616e-26)
(0.00201872 -8.13568e-06 -3.65596e-25)
(0.00201243 -8.62614e-06 -1.80343e-26)
(0.00169634 1.7276e-07 -2.78258e-25)
(0.00169671 -4.10535e-07 -8.59104e-26)
(0.00169644 -9.67646e-07 -4.29455e-24)
(0.00169555 -1.49913e-06 1.20275e-24)
(0.00169409 -2.00109e-06 -2.86727e-24)
(0.00169211 -2.47732e-06 2.17148e-24)
(0.00168964 -2.93082e-06 3.79875e-24)
(0.00168671 -3.36369e-06 2.64997e-24)
(0.00168334 -3.77768e-06 -3.60102e-24)
(0.00167956 -4.1743e-06 1.0796e-24)
(0.00167537 -4.55488e-06 7.84709e-25)
(0.00167081 -4.92078e-06 -9.61059e-25)
(0.00166589 -5.2733e-06 5.01629e-25)
(0.00166061 -5.61386e-06 3.02533e-26)
(0.00165499 -5.9434e-06 3.04742e-26)
(0.00136473 3.39048e-09 -9.56305e-25)
(0.00136479 -3.63504e-07 -1.27179e-24)
(0.00136435 -7.15696e-07 -1.90923e-25)
(0.00136341 -1.05218e-06 3.1167e-24)
(0.001362 -1.37005e-06 -2.13431e-24)
(0.00136017 -1.67227e-06 -3.60847e-25)
(0.00135794 -1.96057e-06 3.26714e-24)
(0.00135533 -2.23614e-06 -4.82468e-26)
(0.00135236 -2.49996e-06 -6.6094e-25)
(0.00134904 -2.75288e-06 -2.0535e-24)
(0.0013454 -2.99567e-06 3.38071e-25)
(0.00134144 -3.22917e-06 1.1999e-24)
(0.00133718 -3.45416e-06 -1.47201e-25)
(0.00133262 -3.67158e-06 -5.8412e-26)
(0.00132778 -3.88212e-06 2.36858e-26)
(0.001061 -5.55605e-08 -1.83594e-25)
(0.00106088 -2.72274e-07 1.34937e-26)
(0.00106038 -4.80215e-07 1.32836e-24)
(0.00105949 -6.78798e-07 8.46596e-25)
(0.00105823 -8.664e-07 -6.29649e-25)
(0.00105665 -1.04519e-06 -1.44372e-24)
(0.00105474 -1.21605e-06 5.52147e-25)
(0.00105253 -1.37961e-06 -2.23936e-24)
(0.00105004 -1.53636e-06 1.70951e-24)
(0.00104727 -1.68674e-06 7.72449e-25)
(0.00104424 -1.83115e-06 -8.04656e-26)
(0.00104095 -1.97006e-06 -7.40617e-25)
(0.00103743 -2.10394e-06 1.02257e-25)
(0.00103367 -2.23333e-06 -4.18633e-26)
(0.00102969 -2.35862e-06 1.0681e-26)
(0.000784029 -5.87699e-08 -2.98222e-25)
(0.000783838 -1.75757e-07 1.05422e-26)
(0.000783361 -2.8659e-07 9.4415e-25)
(0.000782592 -3.92061e-07 -5.87978e-25)
(0.000781557 -4.91643e-07 2.31193e-24)
(0.000780271 -5.86737e-07 -4.16413e-24)
(0.000778747 -6.77729e-07 3.28849e-24)
(0.000776997 -7.64916e-07 -2.6463e-24)
(0.000775031 -8.48523e-07 1.81771e-24)
(0.000772858 -9.2875e-07 -1.09479e-24)
(0.000770487 -1.00578e-06 3.64982e-25)
(0.000767926 -1.07986e-06 4.69435e-26)
(0.000765182 -1.15124e-06 4.48281e-26)
(0.000762263 -1.22016e-06 -4.73997e-26)
(0.00075917 -1.28678e-06 3.85855e-27)
(0.000532397 -3.97897e-08 4.02037e-25)
(0.0005322 -9.40326e-08 4.2166e-25)
(0.000531809 -1.43462e-07 -1.81079e-24)
(0.000531218 -1.90157e-07 1.30722e-24)
(0.000530447 -2.34229e-07 -1.95536e-26)
(0.000529504 -2.7639e-07 3.07325e-25)
(0.000528397 -3.16762e-07 -3.9304e-25)
(0.000527135 -3.55459e-07 -7.57183e-25)
(0.000525723 -3.92557e-07 7.31311e-25)
(0.000524169 -4.2813e-07 5.41353e-26)
(0.000522478 -4.62248e-07 -4.92098e-25)
(0.000520656 -4.95012e-07 1.79501e-25)
(0.000518706 -5.2654e-07 7.78644e-26)
(0.000516636 -5.5691e-07 -1.14789e-26)
(0.000514445 -5.86049e-07 -2.27333e-27)
(0.000304484 -1.6376e-08 -3.63735e-25)
(0.000304329 -3.04411e-08 1.10076e-24)
(0.000304064 -4.23473e-08 6.29606e-25)
(0.000303685 -5.43329e-08 -1.15967e-24)
(0.000303203 -6.64669e-08 -1.34516e-25)
(0.000302624 -7.88054e-08 -1.14521e-25)
(0.00030195 -9.12235e-08 3.33088e-25)
(0.000301186 -1.03625e-07 -5.49003e-25)
(0.000300337 -1.15926e-07 7.04902e-25)
(0.000299405 -1.28059e-07 -3.46471e-25)
(0.000298394 -1.39972e-07 -1.93464e-25)
(0.000297306 -1.51634e-07 1.06681e-25)
(0.000296145 -1.63042e-07 -8.31701e-26)
(0.000294914 -1.7415e-07 6.92309e-26)
(0.000293612 -1.84744e-07 -4.3447e-27)
(9.85631e-05 9.33879e-09 -1.98942e-27)
(9.84806e-05 2.77436e-08 1.62742e-25)
(9.83653e-05 4.18e-08 1.79445e-25)
(9.82153e-05 5.09288e-08 -2.87458e-25)
(9.80345e-05 5.58174e-08 5.64012e-25)
(9.78237e-05 5.72085e-08 -6.13241e-25)
(9.7584e-05 5.57267e-08 3.72955e-26)
(9.73163e-05 5.19102e-08 2.96927e-25)
(9.70216e-05 4.62184e-08 -4.08369e-25)
(9.67007e-05 3.90436e-08 -5.73824e-26)
(9.63547e-05 3.07177e-08 2.27695e-25)
(9.59843e-05 2.1527e-08 -9.44883e-26)
(9.55902e-05 1.16982e-08 -1.85719e-26)
(9.51736e-05 1.45959e-09 1.30481e-26)
(9.47344e-05 -8.88415e-09 5.22243e-29)
(0.000298482 -0.000140723 3.0445e-26)
(0.000343404 -0.000139961 8.2831e-25)
(0.000416802 -0.00012675 -2.45527e-24)
(0.000494008 -0.000112142 3.68245e-24)
(0.000571084 -9.82196e-05 -1.40423e-24)
(0.000648386 -8.5807e-05 -1.39025e-24)
(0.000726053 -7.51191e-05 1.5994e-24)
(0.000804284 -6.61937e-05 -3.17509e-24)
(0.000883292 -5.89967e-05 2.23373e-25)
(0.000963251 -5.3454e-05 2.00656e-24)
(0.00104431 -4.94703e-05 -3.77968e-25)
(0.00112656 -4.69387e-05 4.04665e-25)
(0.0012101 -4.57477e-05 -4.15139e-26)
(0.00129493 -4.57854e-05 2.43936e-25)
(0.00138102 -4.69434e-05 -8.98136e-25)
(0.00146824 -4.91234e-05 4.90722e-25)
(0.00155638 -5.22464e-05 -1.48386e-25)
(0.001645 -5.62765e-05 1.42381e-26)
(0.00173345 -6.12459e-05 3.29334e-25)
(0.0018206 -6.73041e-05 -2.02881e-25)
(0.00190467 -7.47397e-05 2.13607e-26)
(0.00198258 -8.39525e-05 -1.76262e-26)
(0.00204466 -9.45207e-05 2.55294e-26)
(0.00208421 -0.000104866 7.88903e-26)
(0.00210315 -0.000113463 -1.43113e-25)
(0.00210477 -0.000118943 -7.09818e-26)
(0.00209187 -0.000119985 1.73936e-26)
(0.00206693 -0.000115306 1.52729e-25)
(0.00203212 -0.000103605 1.46218e-25)
(0.00198941 -8.35094e-05 -2.83164e-25)
(0.00194059 -5.35233e-05 1.43003e-25)
(0.00188726 -1.20192e-05 -7.32192e-26)
(0.00183079 4.26875e-05 -5.37608e-27)
(0.00177226 0.000112093 -9.80664e-26)
(0.00171234 0.000197162 9.58707e-26)
(0.00165106 0.000297915 3.89791e-25)
(0.00158768 0.000412907 -1.72234e-25)
(0.00152072 0.000538698 -1.60047e-26)
(0.00144801 0.000669372 -8.19266e-26)
(0.001367 0.000796119 -1.85608e-25)
(0.00127516 0.000906834 -3.1758e-28)
(0.00117063 0.000985456 -9.86686e-26)
(0.0010528 0.00101033 -1.65505e-25)
(0.000927083 0.000951287 2.57428e-25)
(0.000854303 0.000750856 2.81942e-26)
(0.000520848 -0.00016443 -9.3105e-25)
(0.000542716 -0.000176156 -1.44835e-24)
(0.000589292 -0.000166129 2.98579e-24)
(0.000648196 -0.000150287 1.49469e-24)
(0.000713108 -0.000133653 -5.32599e-24)
(0.00078179 -0.000118259 5.83139e-24)
(0.000852986 -0.000104738 -2.12962e-24)
(0.000926102 -9.32268e-05 1.71006e-24)
(0.00100088 -8.36954e-05 -2.2868e-24)
(0.00107723 -7.60443e-05 2.91374e-26)
(0.00115511 -7.01482e-05 -1.19443e-24)
(0.0012345 -6.58716e-05 2.37635e-24)
(0.00131542 -6.30776e-05 -1.30719e-24)
(0.00139782 -6.1632e-05 -1.14935e-24)
(0.00148165 -6.14068e-05 -7.43977e-25)
(0.00156675 -6.22851e-05 1.46256e-24)
(0.00165288 -6.41697e-05 -1.63783e-25)
(0.00173962 -6.70049e-05 7.34081e-25)
(0.00182632 -7.07957e-05 9.83655e-26)
(0.00191185 -7.56567e-05 -2.12306e-25)
(0.00199446 -8.18205e-05 -7.94228e-26)
(0.00207114 -8.96179e-05 -3.66435e-26)
(0.00213238 -9.86317e-05 1.5661e-25)
(0.00217159 -0.000107365 1.38779e-25)
(0.0021906 -0.000114343 -1.61853e-25)
(0.00219263 -0.000118212 -5.299e-25)
(0.00218042 -0.000117676 6.48231e-25)
(0.0021564 -0.000111478 -3.87667e-25)
(0.00212275 -9.83571e-05 1.22691e-25)
(0.00208143 -7.69841e-05 -3.81187e-26)
(0.00203426 -4.5918e-05 2.32248e-25)
(0.00198296 -3.57714e-06 -1.75996e-25)
(0.00192903 5.17025e-05 -7.07397e-26)
(0.00187385 0.000121454 5.07299e-25)
(0.00181847 0.0002068 -7.4623e-25)
(0.00176347 0.000308071 2.02703e-25)
(0.00170883 0.000424306 4.79891e-25)
(0.00165398 0.00055269 -2.34119e-25)
(0.00159796 0.000687978 -1.7985e-25)
(0.00153981 0.000821888 1.15308e-25)
(0.00147929 0.000942346 -3.18142e-25)
(0.00141787 0.0010322 7.34685e-25)
(0.00135975 0.0010667 8.73237e-25)
(0.00131114 0.00101012 -6.80091e-25)
(0.00128427 0.000811394 -8.3358e-25)
(0.000764422 -0.000174847 -1.09915e-26)
(0.000773761 -0.000195979 -1.71718e-24)
(0.000799004 -0.000194502 3.39346e-24)
(0.000838719 -0.000182451 3.04246e-24)
(0.000888617 -0.000166432 -5.0405e-24)
(0.000945718 -0.000150001 1.03618e-25)
(0.00100788 -0.000134732 5.20469e-25)
(0.00107376 -0.000121227 5.74296e-24)
(0.00114257 -0.000109672 -6.90161e-24)
(0.00121386 -0.000100061 4.24805e-24)
(0.00128733 -9.23067e-05 1.24287e-24)
(0.00136282 -8.62829e-05 -7.06132e-24)
(0.00144021 -8.185e-05 2.56334e-24)
(0.00151938 -7.88653e-05 1.00519e-24)
(0.00160022 -7.71885e-05 -2.06461e-24)
(0.00168254 -7.66893e-05 3.32573e-24)
(0.00176607 -7.72541e-05 -2.3228e-24)
(0.00185039 -7.88075e-05 -2.49214e-26)
(0.00193484 -8.13272e-05 1.92127e-25)
(0.0020183 -8.48906e-05 1.89957e-25)
(0.00209907 -8.9672e-05 3.4366e-26)
(0.00217419 -9.59289e-05 8.6323e-26)
(0.00223438 -0.000103252 -1.69317e-25)
(0.00227313 -0.000110232 4.63792e-25)
(0.00229219 -0.000115441 -6.32748e-25)
(0.00229467 -0.000117541 3.44793e-25)
(0.00228325 -0.000115255 -5.86769e-25)
(0.00226032 -0.000107355 7.76772e-25)
(0.00222802 -9.26144e-05 -5.31228e-25)
(0.00218832 -6.97553e-05 1.22961e-25)
(0.0021431 -3.73984e-05 1.30868e-25)
(0.00209415 5.97251e-06 3.15497e-25)
(0.00204315 6.1957e-05 -6.1713e-26)
(0.00199176 0.000132061 2.15043e-25)
(0.00194143 0.000217465 -5.27162e-25)
(0.00189332 0.000318671 7.06308e-25)
(0.00184819 0.000435009 -4.0407e-25)
(0.00180649 0.000564038 8.49342e-26)
(0.0017685 0.000700842 1.61994e-25)
(0.00173475 0.000837174 -9.67199e-26)
(0.00170654 0.000960352 -1.79347e-25)
(0.00168628 0.00105169 -8.50934e-25)
(0.00167663 0.00108478 1.09035e-24)
(0.00167558 0.00102629 -8.58049e-25)
(0.00166908 0.000847489 6.92128e-25)
(0.00102894 -0.000180206 -4.07811e-25)
(0.00103171 -0.000205504 -7.28556e-25)
(0.00104265 -0.000212278 -3.3554e-24)
(0.00106577 -0.000206599 7.92702e-25)
(0.00110021 -0.000194114 5.64049e-25)
(0.001144 -0.000178944 2.86681e-24)
(0.00119503 -0.000163504 -6.28794e-24)
(0.00125165 -0.00014903 2.45734e-24)
(0.00131266 -0.000136098 8.33789e-24)
(0.00137727 -0.000124927 -2.27828e-24)
(0.00144493 -0.000115552 -2.13231e-24)
(0.00151528 -0.000107914 -3.3802e-25)
(0.00158803 -0.000101905 1.09694e-24)
(0.00166298 -9.73971e-05 -2.14644e-24)
(0.00173994 -9.42521e-05 5.0569e-25)
(0.00181866 -9.23355e-05 -1.64861e-25)
(0.00189885 -9.15237e-05 -9.90777e-25)
(0.00198006 -9.17248e-05 4.16689e-25)
(0.00206161 -9.28904e-05 1.6766e-24)
(0.00214243 -9.50603e-05 -2.23484e-25)
(0.00222083 -9.83471e-05 -3.4522e-25)
(0.00229393 -0.000102931 -7.56022e-26)
(0.00235272 -0.000108412 -3.34954e-25)
(0.00239081 -0.000113478 4.29933e-26)
(0.00240983 -0.000116757 -5.48148e-25)
(0.00241275 -0.000116926 1.03902e-24)
(0.00240219 -0.000112734 -6.74778e-25)