/*--------------------------------*- C++ -*----------------------------------*\
| =========                 |                                                 |
| \\      /  F ield         | OpenFOAM: The Open Source CFD Toolbox           |
|  \\    /   O peration     | Version:  2312                                  |
|   \\  /    A nd           | Website:  www.openfoam.com                      |
|    \\/     M anipulation  |                                                 |
\*---------------------------------------------------------------------------*/
FoamFile
{
    version     2.0;
    format      ascii;
    arch        "LSB;label=32;scalar=64";
    class       volScalarField;
    location    "100.75";
    object      p;
}
// * * * * * * * * * * * * * * * * * * * * * * * * * * * * * * * * * * * * * //

dimensions      [0 2 -2 0 0 0 0];

internalField   nonuniform List<scalar> 
4800
(
6.80205e-12
-1.86929e-06
-3.44486e-06
-4.78925e-06
-5.94561e-06
-6.94661e-06
-7.81817e-06
-8.58108e-06
-9.25888e-06
-9.86261e-06
-1.04018e-05
-1.0883e-05
-1.13012e-05
-1.18889e-05
-1.36297e-05
1.9989e-08
-1.84444e-06
-3.41647e-06
-4.75856e-06
-5.9138e-06
-6.91542e-06
-7.78933e-06
-8.55684e-06
-9.24174e-06
-9.85652e-06
-1.0416e-05
-1.09411e-05
-1.14497e-05
-1.20515e-05
-1.30064e-05
4.15957e-08
-1.81756e-06
-3.38589e-06
-4.72569e-06
-5.88003e-06
-6.88197e-06
-7.75808e-06
-8.52774e-06
-9.21733e-06
-9.84044e-06
-1.0412e-05
-1.0954e-05
-1.14789e-05
-1.19975e-05
-1.2491e-05
6.42937e-08
-1.78884e-06
-3.35282e-06
-4.68973e-06
-5.8425e-06
-6.84393e-06
-7.72096e-06
-8.49208e-06
-9.18201e-06
-9.80678e-06
-1.0377e-05
-1.09048e-05
-1.13862e-05
-1.17911e-05
-1.20495e-05
8.98946e-08
-1.75604e-06
-3.31463e-06
-4.64768e-06
-5.79783e-06
-6.79754e-06
-7.67327e-06
-8.44437e-06
-9.13002e-06
-9.74722e-06
-1.03018e-05
-1.0794e-05
-1.12081e-05
-1.1506e-05
-1.16321e-05
1.19927e-07
-1.71742e-06
-3.26933e-06
-4.59723e-06
-5.74335e-06
-6.73951e-06
-7.61126e-06
-8.37768e-06
-9.05413e-06
-9.65397e-06
-1.0179e-05
-1.06218e-05
-1.09637e-05
-1.11757e-05
-1.12296e-05
1.56369e-07
-1.67084e-06
-3.21448e-06
-4.53554e-06
-5.67558e-06
-6.66554e-06
-7.52961e-06
-8.28544e-06
-8.94577e-06
-9.51901e-06
-1.00039e-05
-1.03913e-05
-1.06669e-05
-1.08165e-05
-1.0834e-05
2.02346e-07
-1.61296e-06
-3.14635e-06
-4.45831e-06
-5.58949e-06
-6.5696e-06
-7.4212e-06
-8.16005e-06
-8.79646e-06
-9.33521e-06
-9.77441e-06
-1.01079e-05
-1.03291e-05
-1.04369e-05
-1.04379e-05
2.62269e-07
-1.53902e-06
-3.05963e-06
-4.35951e-06
-5.47819e-06
-6.44389e-06
-7.27739e-06
-7.99269e-06
-8.59814e-06
-9.09783e-06
-9.49115e-06
-9.77729e-06
-9.95768e-06
-1.00399e-05
-1.00361e-05
3.41316e-07
-1.44301e-06
-2.94743e-06
-4.23144e-06
-5.33312e-06
-6.27912e-06
-7.08864e-06
-7.77452e-06
-8.34462e-06
-8.80385e-06
-9.15552e-06
-9.40382e-06
-9.55628e-06
-9.62508e-06
-9.62384e-06
4.44286e-07
-1.3185e-06
-2.80203e-06
-4.06532e-06
-5.14466e-06
-6.0653e-06
-6.84544e-06
-7.49769e-06
-8.03088e-06
-8.45221e-06
-8.76886e-06
-8.98963e-06
-9.12532e-06
-9.18986e-06
-9.19644e-06
5.74866e-07
-1.15978e-06
-2.61583e-06
-3.85242e-06
-4.9035e-06
-5.79325e-06
-6.53975e-06
-7.15647e-06
-7.6541e-06
-8.04267e-06
-8.33251e-06
-8.53527e-06
-8.66338e-06
-8.7306e-06
-8.74889e-06
7.35155e-07
-9.62516e-07
-2.38217e-06
-3.58512e-06
-4.60187e-06
-5.4559e-06
-6.16622e-06
-6.74785e-06
-7.21363e-06
-7.57594e-06
-7.84724e-06
-8.04048e-06
-8.16829e-06
-8.24345e-06
-8.2764e-06
9.21299e-07
-7.25427e-07
-2.097e-06
-3.25787e-06
-4.23425e-06
-5.04891e-06
-5.72226e-06
-6.27115e-06
-6.71011e-06
-7.05298e-06
-7.3132e-06
-7.50389e-06
-7.63706e-06
-7.72411e-06
-7.77409e-06
1.1254e-06
-4.5014e-07
-1.76349e-06
-2.87007e-06
-3.79886e-06
-4.57122e-06
-5.20806e-06
-5.72743e-06
-6.14473e-06
-6.47427e-06
-6.72946e-06
-6.92289e-06
-7.06553e-06
-7.16735e-06
-7.23613e-06
1.34331e-06
-1.51709e-07
-1.38816e-06
-2.42608e-06
-3.29809e-06
-4.02488e-06
-4.62608e-06
-5.11913e-06
-5.51915e-06
-5.84005e-06
-6.0946e-06
-6.29439e-06
-6.44921e-06
-6.56764e-06
-6.65636e-06
1.5661e-06
1.65091e-07
-9.83187e-07
-1.94135e-06
-2.74426e-06
-3.41824e-06
-3.98244e-06
-4.45072e-06
-4.83593e-06
-5.15077e-06
-5.40705e-06
-5.61515e-06
-5.78357e-06
-5.91956e-06
-6.02881e-06
1.76797e-06
4.93228e-07
-5.62837e-07
-1.43311e-06
-2.15768e-06
-2.76971e-06
-3.29179e-06
-3.73309e-06
-4.10258e-06
-4.41085e-06
-4.6684e-06
-4.88432e-06
-5.06577e-06
-5.21867e-06
-5.34783e-06
1.91264e-06
7.98795e-07
-1.34698e-07
-9.08678e-07
-1.55333e-06
-2.10235e-06
-2.57628e-06
-2.98457e-06
-3.33372e-06
-3.63175e-06
-3.88735e-06
-4.10804e-06
-4.29952e-06
-4.46643e-06
-4.61281e-06
1.98484e-06
1.052e-06
2.59043e-07
-4.02332e-07
-9.58235e-07
-1.43867e-06
-1.85982e-06
-2.22937e-06
-2.55237e-06
-2.83504e-06
-3.08412e-06
-3.30522e-06
-3.50259e-06
-3.67973e-06
-3.83985e-06
1.9932e-06
1.23208e-06
5.85448e-07
3.6387e-08
-4.33642e-07
-8.45145e-07
-1.21028e-06
-1.53582e-06
-1.82666e-06
-2.08756e-06
-2.32312e-06
-2.53725e-06
-2.73312e-06
-2.91347e-06
-3.08086e-06
1.96064e-06
1.34476e-06
8.16257e-07
3.59418e-07
-3.86491e-08
-3.9024e-07
-7.05297e-07
-9.90601e-07
-1.25054e-06
-1.4884e-06
-1.70723e-06
-1.90991e-06
-2.099e-06
-2.27669e-06
-2.44504e-06
1.93736e-06
1.42829e-06
9.86814e-07
6.00228e-07
2.58623e-07
-4.71636e-08
-3.24965e-07
-5.80223e-07
-8.16348e-07
-1.03583e-06
-1.24105e-06
-1.43428e-06
-1.61761e-06
-1.79277e-06
-1.96136e-06
1.92764e-06
1.49607e-06
1.11761e-06
7.82025e-07
4.81077e-07
2.07749e-07
-4.35802e-08
-2.76968e-07
-4.95297e-07
-7.00848e-07
-8.95712e-07
-1.08177e-06
-1.26071e-06
-1.43392e-06
-1.60272e-06
1.93366e-06
1.55721e-06
1.2231e-06
9.23069e-07
6.50541e-07
4.00239e-07
1.67913e-07
-4.97982e-08
-2.55553e-07
-4.5149e-07
-6.39447e-07
-8.20997e-07
-9.97547e-07
-1.17028e-06
-1.34036e-06
1.95325e-06
1.61508e-06
1.31148e-06
1.03586e-06
7.82953e-07
5.48512e-07
3.28968e-07
1.21375e-07
-7.66642e-08
-2.67071e-07
-4.51468e-07
-6.31227e-07
-8.07595e-07
-9.81629e-07
-1.15438e-06
1.98097e-06
1.66916e-06
1.38637e-06
1.12723e-06
8.87327e-07
6.63032e-07
4.51248e-07
2.49391e-07
5.53346e-08
-1.32652e-07
-3.16047e-07
-4.96106e-07
-6.73979e-07
-8.50643e-07
-1.02709e-06
2.01169e-06
1.71814e-06
1.44948e-06
1.20118e-06
9.69477e-07
7.5122e-07
5.43686e-07
3.44582e-07
1.51995e-07
-3.56669e-08
-2.19781e-07
-4.01528e-07
-5.81994e-07
-7.62106e-07
-9.42809e-07
2.04184e-06
1.76115e-06
1.50208e-06
1.26081e-06
1.03412e-06
8.19222e-07
6.13682e-07
4.15432e-07
2.22724e-07
3.40802e-08
-1.51802e-07
-3.36048e-07
-5.19702e-07
-7.03654e-07
-8.88825e-07
2.06934e-06
1.79798e-06
1.54556e-06
1.30891e-06
1.08523e-06
8.72044e-07
6.67123e-07
4.68595e-07
2.74853e-07
8.45073e-08
-1.03681e-07
-2.90795e-07
-4.77845e-07
-6.65696e-07
-8.55252e-07
2.09335e-06
1.82903e-06
1.58141e-06
1.34791e-06
1.12607e-06
9.13617e-07
7.08547e-07
5.09149e-07
3.13931e-07
1.2158e-07
-6.90897e-08
-2.59124e-07
-4.49508e-07
-6.41089e-07
-8.34756e-07
2.11376e-06
1.85502e-06
1.61106e-06
1.37984e-06
1.15916e-06
9.46929e-07
7.41345e-07
5.40837e-07
3.44009e-07
1.49617e-07
-4.34774e-08
-2.3629e-07
-4.29784e-07
-6.24792e-07
-8.22194e-07
2.13087e-06
1.87673e-06
1.63572e-06
1.4063e-06
1.18641e-06
9.7417e-07
7.67952e-07
5.66304e-07
3.67915e-07
1.71601e-07
-2.37343e-08
-2.19079e-07
-4.15379e-07
-6.13457e-07
-8.14184e-07
2.14509e-06
1.89489e-06
1.65641e-06
1.42848e-06
1.2092e-06
9.96887e-07
7.90051e-07
5.87347e-07
3.87539e-07
1.89496e-07
-7.83827e-09
-2.0543e-07
-4.04208e-07
-6.0499e-07
-8.08638e-07
2.15685e-06
1.91012e-06
1.67388e-06
1.44727e-06
1.22853e-06
1.01615e-06
8.08772e-07
6.05144e-07
4.04097e-07
2.04545e-07
5.46648e-09
-1.94084e-07
-3.95021e-07
-5.98157e-07
-8.0435e-07
2.16655e-06
1.92292e-06
1.68871e-06
1.4633e-06
1.24506e-06
1.03266e-06
8.24843e-07
6.2044e-07
4.18337e-07
2.17494e-07
1.69166e-08
-1.8432e-07
-3.87121e-07
-5.92293e-07
-8.0069e-07
2.17452e-06
1.93369e-06
1.70131e-06
1.47699e-06
1.25924e-06
1.04688e-06
8.38727e-07
6.33688e-07
4.30704e-07
2.28771e-07
2.69217e-08
-1.75753e-07
-3.80148e-07
-5.87067e-07
-7.97363e-07
2.18114e-06
1.94284e-06
1.71214e-06
1.48884e-06
1.27158e-06
1.05929e-06
8.5089e-07
6.45338e-07
4.41621e-07
2.38771e-07
3.58411e-08
-1.68063e-07
-3.73827e-07
-5.82254e-07
-7.94196e-07
2.1869e-06
1.95105e-06
1.72198e-06
1.49967e-06
1.28292e-06
1.07076e-06
8.62181e-07
6.562e-07
4.5185e-07
2.4819e-07
4.42959e-08
-1.60714e-07
-3.67717e-07
-5.77514e-07
-7.90963e-07
2.19185e-06
1.95837e-06
1.73089e-06
1.50958e-06
1.29337e-06
1.08138e-06
8.72677e-07
6.6633e-07
4.61415e-07
2.57021e-07
5.22457e-08
-1.5378e-07
-3.61924e-07
-5.72983e-07
-7.87817e-07
-1.51854e-05
-1.2936e-05
-1.15369e-05
-1.05945e-05
-9.8247e-06
-9.2145e-06
-8.71761e-06
-8.30379e-06
-7.95487e-06
-7.65851e-06
-7.40698e-06
-7.19622e-06
-7.02562e-06
-6.89858e-06
-6.82435e-06
-6.81892e-06
-6.90749e-06
-7.13251e-06
-7.54422e-06
-8.2065e-06
-9.19743e-06
-1.05771e-05
-1.2184e-05
-1.36379e-05
-1.47236e-05
-1.53604e-05
-1.5516e-05
-1.51882e-05
-1.43889e-05
-1.31389e-05
-1.14656e-05
-9.40432e-06
-7.00005e-06
-4.30736e-06
-1.38925e-06
1.68511e-06
4.84258e-06
8.0074e-06
1.10996e-05
1.40305e-05
1.66866e-05
1.89232e-05
2.04201e-05
2.09278e-05
1.94575e-05
-1.34921e-05
-1.23561e-05
-1.13073e-05
-1.04721e-05
-9.7503e-06
-9.15646e-06
-8.6651e-06
-8.25321e-06
-7.90512e-06
-7.60949e-06
-7.359e-06
-7.14979e-06
-6.98143e-06
-6.85745e-06
-6.78728e-06
-6.78696e-06
-6.88165e-06
-7.11379e-06
-7.53271e-06
-8.20056e-06
-9.19419e-06
-1.0572e-05
-1.2172e-05
-1.36171e-05
-1.46949e-05
-1.53253e-05
-1.54764e-05
-1.5145e-05
-1.43433e-05
-1.30924e-05
-1.1421e-05
-9.36593e-06
-6.97411e-06
-4.30244e-06
-1.41686e-06
1.60946e-06
4.69761e-06
7.76284e-06
1.07106e-05
1.34266e-05
1.57497e-05
1.74332e-05
1.79955e-05
1.67162e-05
1.26009e-05
-1.25961e-05
-1.18955e-05
-1.10675e-05
-1.03269e-05
-9.65806e-06
-9.08732e-06
-8.60525e-06
-8.19715e-06
-7.8508e-06
-7.55639e-06
-7.30727e-06
-7.09994e-06
-6.9342e-06
-6.81378e-06
-6.74834e-06
-6.75394e-06
-6.85568e-06
-7.09599e-06
-7.52305e-06
-8.19698e-06
-9.19316e-06
-1.05678e-05
-1.21586e-05
-1.35921e-05
-1.46593e-05
-1.52814e-05
-1.54265e-05
-1.50911e-05
-1.42874e-05
-1.30375e-05
-1.13714e-05
-9.32817e-06
-6.95724e-06
-4.31867e-06
-1.48236e-06
1.47324e-06
4.46172e-06
7.38729e-06
1.01389e-05
1.25775e-05
1.4508e-05
1.5642e-05
1.55236e-05
1.36054e-05
9.68109e-06
-1.20037e-05
-1.15067e-05
-1.08451e-05
-1.01815e-05
-9.56374e-06
-9.01832e-06
-8.54653e-06
-8.14244e-06
-7.79757e-06
-7.50391e-06
-7.25569e-06
-7.04988e-06
-6.88657e-06
-6.76971e-06
-6.70921e-06
-6.72111e-06
-6.83042e-06
-7.07956e-06
-7.5154e-06
-8.19572e-06
-9.19434e-06
-1.05649e-05
-1.21445e-05
-1.35637e-05
-1.46171e-05
-1.52277e-05
-1.53637e-05
-1.50217e-05
-1.42142e-05
-1.29646e-05
-1.13051e-05
-9.27754e-06
-6.93478e-06
-4.34098e-06
-1.57102e-06
1.29026e-06
4.14805e-06
6.89533e-06
9.40677e-06
1.15277e-05
1.30555e-05
1.37249e-05
1.32071e-05
1.12196e-05
7.90772e-06
-1.15295e-05
-1.11519e-05
-1.06191e-05
-1.00409e-05
-9.47257e-06
-8.95327e-06
-8.49216e-06
-8.09206e-06
-7.7482e-06
-7.45461e-06
-7.20665e-06
-7.00191e-06
-6.84083e-06
-6.7276e-06
-6.67237e-06
-6.6911e-06
-6.80862e-06
-7.06732e-06
-7.5125e-06
-8.19916e-06
-9.1995e-06
-1.05642e-05
-1.21295e-05
-1.35309e-05
-1.45672e-05
-1.51634e-05
-1.52883e-05
-1.49386e-05
-1.41275e-05
-1.28803e-05
-1.12317e-05
-9.22719e-06
-6.92358e-06
-4.38979e-06
-1.70622e-06
1.0357e-06
3.73329e-06
6.27071e-06
8.51469e-06
1.0309e-05
1.14695e-05
1.17922e-05
1.10872e-05
9.27213e-06
6.55038e-06
-1.11164e-05
-1.08211e-05
-1.03867e-05
-9.89043e-06
-9.3806e-06
-8.88956e-06
-8.44264e-06
-8.04805e-06
-7.70547e-06
-7.4116e-06
-7.16336e-06
-6.95924e-06
-6.80017e-06
-6.6906e-06
-6.64097e-06
-6.66707e-06
-6.79345e-06
-7.06236e-06
-7.51726e-06
-8.20979e-06
-9.21053e-06
-1.05665e-05
-1.21134e-05
-1.34926e-05
-1.45078e-05
-1.50863e-05
-1.51981e-05
-1.48401e-05
-1.40269e-05
-1.27857e-05
-1.11547e-05
-9.18321e-06
-6.93266e-06
-4.47697e-06
-1.90204e-06
6.94877e-07
3.20536e-06
5.50939e-06
7.47458e-06
8.95737e-06
9.80949e-06
9.89834e-06
9.14308e-06
7.57579e-06
5.40744e-06
-1.0729e-05
-1.04956e-05
-1.0147e-05
-9.72543e-06
-9.27137e-06
-8.82039e-06
-8.39464e-06
-8.00983e-06
-7.67075e-06
-7.3775e-06
-7.12917e-06
-6.92559e-06
-6.76847e-06
-6.66266e-06
-6.61895e-06
-6.65292e-06
-6.78861e-06
-7.06823e-06
-7.5329e-06
-8.2303e-06
-9.22939e-06
-1.0573e-05
-1.2096e-05
-1.34473e-05
-1.44365e-05
-1.49935e-05
-1.50899e-05
-1.47233e-05
-1.391e-05
-1.26799e-05
-1.10749e-05
-9.14873e-06
-6.96752e-06
-4.6101e-06
-2.16704e-06
2.60401e-07
2.56169e-06
4.61871e-06
6.30896e-06
7.51217e-06
8.12272e-06
8.07015e-06
7.34556e-06
6.02993e-06
4.30764e-06
-1.03472e-05
-1.01624e-05
-9.88489e-06
-9.53507e-06
-9.14215e-06
-8.73632e-06
-8.34072e-06
-7.97294e-06
-7.64228e-06
-7.35273e-06
-7.10609e-06
-6.90407e-06
-6.74954e-06
-6.64802e-06
-6.61077e-06
-6.6532e-06
-6.79864e-06
-7.08915e-06
-7.5632e-06
-8.26372e-06
-9.25825e-06
-1.05845e-05
-1.20766e-05
-1.33933e-05
-1.43505e-05
-1.48814e-05
-1.49599e-05
-1.4585e-05
-1.37747e-05
-1.25625e-05
-1.09942e-05
-9.12796e-06
-7.03464e-06
-4.79706e-06
-2.50884e-06
-2.72249e-07
1.80461e-06
3.61188e-06
5.04397e-06
6.00884e-06
6.44057e-06
6.31515e-06
5.6622e-06
4.57365e-06
3.19684e-06
-9.9616e-06
-9.81611e-06
-9.59731e-06
-9.31356e-06
-8.98302e-06
-8.62852e-06
-8.27146e-06
-7.92949e-06
-7.6147e-06
-7.33453e-06
-7.09365e-06
-6.896e-06
-6.74607e-06
-6.65026e-06
-6.62065e-06
-6.67246e-06
-6.82811e-06
-7.12959e-06
-7.61206e-06
-8.31295e-06
-9.29904e-06
-1.06015e-05
-1.2054e-05
-1.33278e-05
-1.4246e-05
-1.4746e-05
-1.48044e-05
-1.4422e-05
-1.36197e-05
-1.24342e-05
-1.09157e-05
-9.12661e-06
-7.14153e-06
-5.04581e-06
-2.93354e-06
-9.04365e-07
9.4084e-07
2.50559e-06
3.70511e-06
4.47522e-06
4.78168e-06
4.6286e-06
4.06279e-06
3.16929e-06
2.06108e-06
-9.56659e-06
-9.45453e-06
-9.28477e-06
-9.05969e-06
-8.78929e-06
-8.48943e-06
-8.17768e-06
-7.87023e-06
-7.58013e-06
-7.31712e-06
-7.08834e-06
-6.89999e-06
-6.75843e-06
-6.6712e-06
-6.65137e-06
-6.71408e-06
-6.88072e-06
-7.19321e-06
-7.68275e-06
-8.37991e-06
-9.35269e-06
-1.06234e-05
-1.20258e-05
-1.32469e-05
-1.41186e-05
-1.45825e-05
-1.46191e-05
-1.42318e-05
-1.34442e-05
-1.22969e-05
-1.0844e-05
-9.15143e-06
-7.29595e-06
-5.36318e-06
-3.4446e-06
-1.63334e-06
-1.90791e-08
1.31815e-06
2.31466e-06
2.92983e-06
3.15156e-06
2.99918e-06
2.52213e-06
1.79206e-06
8.94463e-07
-9.15739e-06
-9.07516e-06
-8.94749e-06
-8.7741e-06
-8.55986e-06
-8.315e-06
-8.05277e-06
-7.78693e-06
-7.53002e-06
-7.29275e-06
-7.08393e-06
-6.91164e-06
-6.784e-06
-6.70973e-06
-6.70305e-06
-6.77896e-06
-6.95779e-06
-7.28142e-06
-7.77589e-06
-8.46458e-06
-9.41822e-06
-1.06478e-05
-1.19877e-05
-1.31453e-05
-1.39626e-05
-1.4386e-05
-1.44005e-05
-1.40127e-05
-1.32493e-05
-1.21544e-05
-1.07853e-05
-9.2099e-06
-7.50515e-06
-5.75406e-06
-4.04217e-06
-2.45286e-06
-1.06206e-06
6.72829e-08
8.90261e-07
1.38399e-06
1.54981e-06
1.41268e-06
1.01808e-06
4.23424e-07
-3.0703e-07
-8.72914e-06
-8.67479e-06
-8.58452e-06
-8.45718e-06
-8.29473e-06
-8.10338e-06
-7.89256e-06
-7.67324e-06
-7.45655e-06
-7.25309e-06
-7.07241e-06
-6.92383e-06
-6.81686e-06
-6.76123e-06
-6.77213e-06
-6.8643e-06
-7.05711e-06
-7.39196e-06
-7.8874e-06
-8.56237e-06
-9.49332e-06
-1.06705e-05
-1.19331e-05
-1.30161e-05
-1.37718e-05
-1.41517e-05
-1.41459e-05
-1.37647e-05
-1.30378e-05
-1.20121e-05
-1.07467e-05
-9.30959e-06
-7.77505e-06
-6.22055e-06
-4.72284e-06
-3.35342e-06
-2.17374e-06
-1.23098e-06
-5.5502e-07
-1.5672e-07
-2.79333e-08
-1.43983e-07
-4.67203e-07
-9.5105e-07
-1.54749e-06
-8.27703e-06
-8.24961e-06
-8.19372e-06
-8.10814e-06
-7.99344e-06
-7.85322e-06
-7.69396e-06
-7.52402e-06
-7.35273e-06
-7.18979e-06
-7.04475e-06
-6.92748e-06
-6.84819e-06
-6.81748e-06
-6.85093e-06
-6.96248e-06
-7.1724e-06
-7.51833e-06
-8.00703e-06
-8.66521e-06
-9.56622e-06
-1.06813e-05
-1.18536e-05
-1.28513e-05
-1.35399e-05
-1.3876e-05
-1.38551e-05
-1.34909e-05
-1.28155e-05
-1.18777e-05
-1.07364e-05
-9.45724e-06
-8.10916e-06
-6.76124e-06
-5.47949e-06
-4.32286e-06
-3.33919e-06
-2.56249e-06
-2.01165e-06
-1.69046e-06
-1.58862e-06
-1.68415e-06
-1.94644e-06
-2.34032e-06
-2.82948e-06
-7.79616e-06
-7.79528e-06
-7.77177e-06
-7.72477e-06
-7.65433e-06
-7.56256e-06
-7.45382e-06
-7.33435e-06
-7.21169e-06
-7.09427e-06
-6.99098e-06
-6.91163e-06
-6.86656e-06
-6.86665e-06
-6.92758e-06
-7.06166e-06
-7.2912e-06
-7.64586e-06
-8.12547e-06
-8.7657e-06
-9.62524e-06
-1.06656e-05
-1.1738e-05
-1.2643e-05
-1.32619e-05
-1.35577e-05
-1.35306e-05
-1.31971e-05
-1.25908e-05
-1.17603e-05
-1.07622e-05
-9.65758e-06
-8.50754e-06
-7.37068e-06
-6.30137e-06
-5.34676e-06
-4.54317e-06
-3.9144e-06
-3.47192e-06
-3.2159e-06
-3.13638e-06
-3.21533e-06
-3.42907e-06
-3.75136e-06
-4.15525e-06
-7.28051e-06
-7.30606e-06
-7.3137e-06
-7.30296e-06
-7.27387e-06
-7.22778e-06
-7.16777e-06
-7.09845e-06
-7.02582e-06
-6.95695e-06
-6.89977e-06
-6.86336e-06
-6.85767e-06
-6.89346e-06
-6.98531e-06
-7.14555e-06
-7.3935e-06
-7.75418e-06
-8.23169e-06
-8.848e-06
-9.6485e-06
-1.06062e-05
-1.15746e-05
-1.2384e-05
-1.29354e-05
-1.31988e-05
-1.31785e-05
-1.28924e-05
-1.23738e-05
-1.1669e-05
-1.08303e-05
-9.91214e-06
-8.96617e-06
-8.03937e-06
-7.17474e-06
-6.40926e-06
-5.7703e-06
-5.27432e-06
-4.92814e-06
-4.73051e-06
-4.67319e-06
-4.74241e-06
-4.92054e-06
-5.1882e-06
-5.52554e-06
-6.72365e-06
-6.77548e-06
-6.81322e-06
-6.83684e-06
-6.84652e-06
-6.84337e-06
-6.82967e-06
-6.80899e-06
-6.78604e-06
-6.76671e-06
-6.75788e-06
-6.76745e-06
-6.80447e-06
-6.87889e-06
-7.00369e-06
-7.19103e-06
-7.45644e-06
-7.82252e-06
-8.29226e-06
-8.88315e-06
-9.62079e-06
-1.04875e-05
-1.13528e-05
-1.20698e-05
-1.25614e-05
-1.2805e-05
-1.28073e-05
-1.25869e-05
-1.21744e-05
-1.16112e-05
-1.09433e-05
-1.02179e-05
-9.47634e-06
-8.75401e-06
-8.08363e-06
-7.49395e-06
-7.0057e-06
-6.6305e-06
-6.37256e-06
-6.23058e-06
-6.19856e-06
-6.26661e-06
-6.42206e-06
-6.65095e-06
-6.93883e-06
-6.11921e-06
-6.19691e-06
-6.26359e-06
-6.31959e-06
-6.36543e-06
-6.40218e-06
-6.43174e-06
-6.45698e-06
-6.48174e-06
-6.51088e-06
-6.55016e-06
-6.60621e-06
-6.68715e-06
-6.80134e-06
-6.95996e-06
-7.17223e-06
-7.45501e-06
-7.82335e-06
-8.28216e-06
-8.84326e-06
-9.52087e-06
-1.02962e-05
-1.10625e-05
-1.16973e-05
-1.2143e-05
-1.23841e-05
-1.24274e-05
-1.22906e-05
-1.20005e-05
-1.15907e-05
-1.10998e-05
-1.05674e-05
-1.00249e-05
-9.49781e-06
-9.01031e-06
-8.5843e-06
-8.23537e-06
-7.97209e-06
-7.79767e-06
-7.71153e-06
-7.70986e-06
-7.78603e-06
-7.93141e-06
-8.13631e-06
-8.39055e-06
-5.4607e-06
-5.56326e-06
-5.65728e-06
-5.74341e-06
-5.82248e-06
-5.89568e-06
-5.96474e-06
-6.03208e-06
-6.10083e-06
-6.17498e-06
-6.2594e-06
-6.3597e-06
-6.48266e-06
-6.63501e-06
-6.82361e-06
-7.06265e-06
-7.36052e-06
-7.72997e-06
-8.17601e-06
-8.70529e-06
-9.32371e-06
-1.00158e-05
-1.06964e-05
-1.12666e-05
-1.16854e-05
-1.19436e-05
-1.20475e-05
-1.20105e-05
-1.18541e-05
-1.16054e-05
-1.12938e-05
-1.09495e-05
-1.05964e-05
-1.02528e-05
-9.93706e-06
-9.66459e-06
-9.44649e-06
-9.28953e-06
-9.19702e-06
-9.16942e-06
-9.20467e-06
-9.29867e-06
-9.44592e-06
-9.64011e-06
-9.87444e-06
-4.74565e-06
-4.87057e-06
-4.98915e-06
-5.10215e-06
-5.21065e-06
-5.31601e-06
-5.41992e-06
-5.52446e-06
-5.63222e-06
-5.74638e-06
-5.87079e-06
-6.00992e-06
-6.16963e-06
-6.35611e-06
-6.57549e-06
-6.83718e-06
-7.14758e-06
-7.51656e-06
-7.9484e-06
-8.44683e-06
-9.01359e-06
-9.63744e-06
-1.02525e-05
-1.07807e-05
-1.11943e-05
-1.14892e-05
-1.16695e-05
-1.17439e-05
-1.17271e-05
-1.16409e-05
-1.15063e-05
-1.13424e-05
-1.11671e-05
-1.09962e-05
-1.08424e-05
-1.07154e-05
-1.06227e-05
-1.05703e-05
-1.05619e-05
-1.05988e-05
-1.06801e-05
-1.08036e-05
-1.09661e-05
-1.11638e-05
-1.13925e-05
-3.98909e-06
-4.13224e-06
-4.27076e-06
-4.40566e-06
-4.53825e-06
-4.67004e-06
-4.80267e-06
-4.93803e-06
-5.07838e-06
-5.22638e-06
-5.38499e-06
-5.55768e-06
-5.74792e-06
-5.95999e-06
-6.20192e-06
-6.47945e-06
-6.80003e-06
-7.16596e-06
-7.58282e-06
-8.05494e-06
-8.58254e-06
-9.15935e-06
-9.73501e-06
-1.02465e-05
-1.06761e-05
-1.10239e-05
-1.12907e-05
-1.14811e-05
-1.16059e-05
-1.16783e-05
-1.17109e-05
-1.1717e-05
-1.17107e-05
-1.17031e-05
-1.17017e-05
-1.17125e-05
-1.17416e-05
-1.17943e-05
-1.18743e-05
-1.19829e-05
-1.21202e-05
-1.22853e-05
-1.2477e-05
-1.26934e-05
-1.29321e-05
-3.24045e-06
-3.39616e-06
-3.54912e-06
-3.70028e-06
-3.85099e-06
-4.00276e-06
-4.15719e-06
-4.31596e-06
-4.48096e-06
-4.65449e-06
-4.83904e-06
-5.03808e-06
-5.25574e-06
-5.49366e-06
-5.75623e-06
-6.04634e-06
-6.37437e-06
-6.74075e-06
-7.15032e-06
-7.60701e-06
-8.11168e-06
-8.66204e-06
-9.22007e-06
-9.73741e-06
-1.02006e-05
-1.06081e-05
-1.09591e-05
-1.12566e-05
-1.15056e-05
-1.17132e-05
-1.18883e-05
-1.20408e-05
-1.21789e-05
-1.23087e-05
-1.24352e-05
-1.25639e-05
-1.26998e-05
-1.28471e-05
-1.30083e-05
-1.3185e-05
-1.33779e-05
-1.35874e-05
-1.38133e-05
-1.40548e-05
-1.43105e-05
-2.60822e-06
-2.76959e-06
-2.93012e-06
-3.09061e-06
-3.25228e-06
-3.41656e-06
-3.58493e-06
-3.75896e-06
-3.9404e-06
-4.13102e-06
-4.33309e-06
-4.54875e-06
-4.78012e-06
-5.03344e-06
-5.31406e-06
-5.62683e-06
-5.96517e-06
-6.33569e-06
-6.74537e-06
-7.19731e-06
-7.69346e-06
-8.23492e-06
-8.79216e-06
-9.32404e-06
-9.81838e-06
-1.02736e-05
-1.06889e-05
-1.10647e-05
-1.14035e-05
-1.17103e-05
-1.1991e-05
-1.2251e-05
-1.24947e-05
-1.27265e-05
-1.29512e-05
-1.31732e-05
-1.33956e-05
-1.36212e-05
-1.38519e-05
-1.40893e-05
-1.43345e-05
-1.45882e-05
-1.48507e-05
-1.51217e-05
-1.54007e-05
-2.12673e-06
-2.29178e-06
-2.4575e-06
-2.62474e-06
-2.79465e-06
-2.96855e-06
-3.1478e-06
-3.33385e-06
-3.52825e-06
-3.73268e-06
-3.94934e-06
-4.18073e-06
-4.42953e-06
-4.69961e-06
-4.99229e-06
-5.30978e-06
-5.65323e-06
-6.02821e-06
-6.43949e-06
-6.88998e-06
-7.3827e-06
-7.92059e-06
-8.4793e-06
-9.02219e-06
-9.53788e-06
-1.00249e-05
-1.0482e-05
-1.09093e-05
-1.13086e-05
-1.16829e-05
-1.20351e-05
-1.23684e-05
-1.26861e-05
-1.29921e-05
-1.32896e-05
-1.35811e-05
-1.38688e-05
-1.41544e-05
-1.44398e-05
-1.47263e-05
-1.50149e-05
-1.53064e-05
-1.5601e-05
-1.58989e-05
-1.62001e-05
-1.76989e-06
-1.938e-06
-2.10808e-06
-2.28102e-06
-2.45792e-06
-2.64e-06
-2.8285e-06
-3.02475e-06
-3.23021e-06
-3.44658e-06
-3.67569e-06
-3.91941e-06
-4.1801e-06
-4.45908e-06
-4.76014e-06
-5.08392e-06
-5.43406e-06
-5.81439e-06
-6.22827e-06
-6.6789e-06
-7.1698e-06
-7.70443e-06
-8.26183e-06
-8.80922e-06
-9.33613e-06
-9.84124e-06
-1.03237e-05
-1.07836e-05
-1.12218e-05
-1.16397e-05
-1.20392e-05
-1.24228e-05
-1.27929e-05
-1.31517e-05
-1.35011e-05
-1.38427e-05
-1.4178e-05
-1.45085e-05
-1.48355e-05
-1.516e-05
-1.54829e-05
-1.58045e-05
-1.61254e-05
-1.64457e-05
-1.67653e-05
-1.51018e-06
-1.68202e-06
-1.85692e-06
-2.03577e-06
-2.21962e-06
-2.40958e-06
-2.6068e-06
-2.81248e-06
-3.02792e-06
-3.25455e-06
-3.49384e-06
-3.74756e-06
-4.01748e-06
-4.30593e-06
-4.61427e-06
-4.94513e-06
-5.30142e-06
-5.68585e-06
-6.10141e-06
-6.55131e-06
-7.03894e-06
-7.56768e-06
-8.11925e-06
-8.66455e-06
-9.19424e-06
-9.70735e-06
-1.02032e-05
-1.06817e-05
-1.11431e-05
-1.15884e-05
-1.20191e-05
-1.24365e-05
-1.28421e-05
-1.32369e-05
-1.36222e-05
-1.3999e-05
-1.43687e-05
-1.4732e-05
-1.50899e-05
-1.54431e-05
-1.5792e-05
-1.61371e-05
-1.64787e-05
-1.68168e-05
-1.71516e-05
-1.32796e-06
-1.5044e-06
-1.68474e-06
-1.86985e-06
-2.06073e-06
-2.2584e-06
-2.46387e-06
-2.67824e-06
-2.90266e-06
-3.1384e-06
-3.38686e-06
-3.64953e-06
-3.92795e-06
-4.22385e-06
-4.53912e-06
-4.87595e-06
-5.23655e-06
-5.62333e-06
-6.03901e-06
-6.48644e-06
-6.9687e-06
-7.48882e-06
-8.03082e-06
-8.56921e-06
-9.09586e-06
-9.60993e-06
-1.01108e-05
-1.05982e-05
-1.10726e-05
-1.15344e-05
-1.19844e-05
-1.24233e-05
-1.28516e-05
-1.32703e-05
-1.36799e-05
-1.40814e-05
-1.44752e-05
-1.48621e-05
-1.52425e-05
-1.56169e-05
-1.59854e-05
-1.63485e-05
-1.67061e-05
-1.70584e-05
-1.74053e-05
-1.20518e-06
-1.38676e-06
-1.57286e-06
-1.76433e-06
-1.96212e-06
-2.16714e-06
-2.38032e-06
-2.60266e-06
-2.83525e-06
-3.07919e-06
-3.33564e-06
-3.60602e-06
-3.89155e-06
-4.19395e-06
-4.51486e-06
-4.856e-06
-5.21934e-06
-5.60699e-06
-6.02132e-06
-6.46474e-06
-6.93996e-06
-7.4496e-06
-7.97971e-06
-8.50822e-06
-9.02808e-06
-9.53853e-06
-1.0039e-05
-1.05294e-05
-1.10097e-05
-1.14802e-05
-1.1941e-05
-1.23926e-05
-1.28352e-05
-1.32693e-05
-1.36952e-05
-1.41134e-05
-1.45241e-05
-1.49277e-05
-1.53243e-05
-1.57141e-05
-1.60973e-05
-1.64739e-05
-1.68439e-05
-1.72073e-05
-1.7564e-05
-1.12579e-06
-1.31273e-06
-1.50462e-06
-1.70231e-06
-1.90668e-06
-2.11858e-06
-2.33886e-06
-2.56844e-06
-2.80828e-06
-3.05928e-06
-3.32285e-06
-3.59956e-06
-3.89112e-06
-4.19879e-06
-4.52396e-06
-4.86811e-06
-5.23297e-06
-5.62031e-06
-6.03213e-06
-6.47046e-06
-6.93764e-06
-7.43584e-06
-7.95293e-06
-8.47002e-06
-8.98102e-06
-9.4852e-06
-9.98204e-06
-1.04713e-05
-1.0953e-05
-1.14269e-05
-1.18932e-05
-1.23519e-05
-1.28031e-05
-1.3247e-05
-1.36836e-05
-1.4113e-05
-1.45353e-05
-1.49506e-05
-1.53589e-05
-1.57601e-05
-1.61542e-05
-1.65411e-05
-1.69207e-05
-1.72929e-05
-1.76574e-05
-1.07675e-06
-1.26896e-06
-1.46643e-06
-1.66999e-06
-1.88046e-06
-2.09861e-06
-2.32525e-06
-2.56124e-06
-2.80741e-06
-3.06475e-06
-3.33384e-06
-3.6161e-06
-3.91261e-06
-4.22443e-06
-4.55277e-06
-4.89893e-06
-5.26435e-06
-5.65049e-06
-6.05907e-06
-6.49173e-06
-6.95047e-06
-7.43704e-06
-7.94093e-06
-8.44615e-06
-8.94743e-06
-9.444e-06
-9.93537e-06
-1.04213e-05
-1.09015e-05
-1.13759e-05
-1.18444e-05
-1.23067e-05
-1.27629e-05
-1.32127e-05
-1.36562e-05
-1.40932e-05
-1.45235e-05
-1.49471e-05
-1.53639e-05
-1.57735e-05
-1.61759e-05
-1.65708e-05
-1.6958e-05
-1.73373e-05
-1.77084e-05
-1.04793e-06
-1.24511e-06
-1.44775e-06
-1.65666e-06
-1.87262e-06
-2.09634e-06
-2.32857e-06
-2.57009e-06
-2.82161e-06
-3.0842e-06
-3.3583e-06
-3.64514e-06
-3.94563e-06
-4.26069e-06
-4.59137e-06
-4.93876e-06
-5.30407e-06
-5.6885e-06
-6.09347e-06
-6.52032e-06
-6.97073e-06
-7.44603e-06
-7.93721e-06
-8.43085e-06
-8.92235e-06
-9.41091e-06
-9.89608e-06
-1.03776e-05
-1.08551e-05
-1.13283e-05
-1.17969e-05
-1.22608e-05
-1.27196e-05
-1.31731e-05
-1.3621e-05
-1.40632e-05
-1.44992e-05
-1.49289e-05
-1.53519e-05
-1.5768e-05
-1.61768e-05
-1.6578e-05
-1.69714e-05
-1.73566e-05
-1.77333e-05
-1.03181e-06
-1.23353e-06
-1.44085e-06
-1.65454e-06
-1.87534e-06
-2.10393e-06
-2.34102e-06
-2.58733e-06
-2.84355e-06
-3.11055e-06
-3.38881e-06
-3.6794e-06
-3.98312e-06
-4.30073e-06
-4.63314e-06
-4.98124e-06
-5.34604e-06
-5.72852e-06
-6.12984e-06
-6.55105e-06
-6.99355e-06
-7.4583e-06
-7.93766e-06
-8.42045e-06
-8.90261e-06
-9.38338e-06
-9.86231e-06
-1.03391e-05
-1.08132e-05
-1.12844e-05
-1.17523e-05
-1.22165e-05
-1.26767e-05
-1.31324e-05
-1.35833e-05
-1.40291e-05
-1.44693e-05
-1.49035e-05
-1.53314e-05
-1.57525e-05
-1.61665e-05
-1.65729e-05
-1.69714e-05
-1.73616e-05
-1.77432e-05
-1.0232e-06
-1.22898e-06
-1.44044e-06
-1.65833e-06
-1.88336e-06
-2.11618e-06
-2.35747e-06
-2.60789e-06
-2.86817e-06
-3.13898e-06
-3.42065e-06
-3.71437e-06
-4.02074e-06
-4.3404e-06
-4.6741e-06
-5.02259e-06
-5.38668e-06
-5.76717e-06
-6.16498e-06
-6.58091e-06
-7.01613e-06
-7.47123e-06
-7.93984e-06
-8.41271e-06
-8.88628e-06
-9.3598e-06
-9.83283e-06
-1.03049e-05
-1.07757e-05
-1.12447e-05
-1.17113e-05
-1.21753e-05
-1.26361e-05
-1.30932e-05
-1.35463e-05
-1.39947e-05
-1.4438e-05
-1.48758e-05
-1.53076e-05
-1.57328e-05
-1.61511e-05
-1.65619e-05
-1.69648e-05
-1.73593e-05
-1.77451e-05
-1.01868e-06
-1.22804e-06
-1.44313e-06
-1.6647e-06
-1.8934e-06
-2.12989e-06
-2.37479e-06
-2.62874e-06
-2.89243e-06
-3.16664e-06
-3.45115e-06
-3.7475e-06
-4.05609e-06
-4.37742e-06
-4.71213e-06
-5.06081e-06
-5.42414e-06
-5.80271e-06
-6.19727e-06
-6.60839e-06
-7.037e-06
-7.48343e-06
-7.94239e-06
-8.40635e-06
-8.87218e-06
-9.33914e-06
-9.80678e-06
-1.02746e-05
-1.07421e-05
-1.12089e-05
-1.16742e-05
-1.21377e-05
-1.25988e-05
-1.30569e-05
-1.35115e-05
-1.3962e-05
-1.44079e-05
-1.48487e-05
-1.52837e-05
-1.57124e-05
-1.61342e-05
-1.65488e-05
-1.69554e-05
-1.73537e-05
-1.77433e-05
-1.0162e-06
-1.22868e-06
-1.44694e-06
-1.6717e-06
-1.90359e-06
-2.14326e-06
-2.39129e-06
-2.64828e-06
-2.91506e-06
-3.19196e-06
-3.47896e-06
-3.77757e-06
-4.08806e-06
-4.41079e-06
-4.7463e-06
-5.09508e-06
-5.45764e-06
-5.83446e-06
-6.22606e-06
-6.63286e-06
-7.05555e-06
-7.49425e-06
-7.94464e-06
-8.40068e-06
-8.85961e-06
-9.32073e-06
-9.78355e-06
-1.02475e-05
-1.07121e-05
-1.11768e-05
-1.16409e-05
-1.21038e-05
-1.25651e-05
-1.30239e-05
-1.34798e-05
-1.39321e-05
-1.43802e-05
-1.48234e-05
-1.52612e-05
-1.56929e-05
-1.61179e-05
-1.65357e-05
-1.69457e-05
-1.73474e-05
-1.77403e-05
-1.01458e-06
-1.22979e-06
-1.4508e-06
-1.67832e-06
-1.91299e-06
-2.15541e-06
-2.40616e-06
-2.66584e-06
-2.93544e-06
-3.21434e-06
-3.50363e-06
-3.80418e-06
-4.1163e-06
-4.44023e-06
-4.77641e-06
-5.12523e-06
-5.48709e-06
-5.8623e-06
-6.25126e-06
-6.65421e-06
-7.07165e-06
-7.50349e-06
-7.9463e-06
-8.39533e-06
-8.84818e-06
-9.30415e-06
-9.76272e-06
-1.02233e-05
-1.06853e-05
-1.11481e-05
-1.16111e-05
-1.20736e-05
-1.25349e-05
-1.29944e-05
-1.34514e-05
-1.39052e-05
-1.43552e-05
-1.48006e-05
-1.52408e-05
-1.56752e-05
-1.6103e-05
-1.65237e-05
-1.69366e-05
-1.73413e-05
-1.77372e-05
-1.01324e-06
-1.23081e-06
-1.45421e-06
-1.68412e-06
-1.92119e-06
-2.16602e-06
-2.41914e-06
-2.68118e-06
-2.95305e-06
-3.23382e-06
-3.52511e-06
-3.82736e-06
-4.1409e-06
-4.46585e-06
-4.8026e-06
-5.15144e-06
-5.51265e-06
-5.88644e-06
-6.27306e-06
-6.67259e-06
-7.0854e-06
-7.51119e-06
-7.9473e-06
-8.39016e-06
-8.83767e-06
-9.28913e-06
-9.74398e-06
-1.02016e-05
-1.06614e-05
-1.11226e-05
-1.15846e-05
-1.20466e-05
-1.25081e-05
-1.29682e-05
-1.34262e-05
-1.38814e-05
-1.43331e-05
-1.47804e-05
-1.52228e-05
-1.56595e-05
-1.60899e-05
-1.65131e-05
-1.69288e-05
-1.73361e-05
-1.77347e-05
-1.01191e-06
-1.23152e-06
-1.45698e-06
-1.68897e-06
-1.92813e-06
-2.17503e-06
-2.43021e-06
-2.69431e-06
-2.96808e-06
-3.25059e-06
-3.54359e-06
-3.84733e-06
-4.16207e-06
-4.48791e-06
-4.82515e-06
-5.174e-06
-5.53464e-06
-5.90717e-06
-6.29173e-06
-6.68827e-06
-7.097e-06
-7.51747e-06
-7.94771e-06
-8.38515e-06
-8.828e-06
-9.27553e-06
-9.72715e-06
-1.01822e-05
-1.064e-05
-1.10999e-05
-1.15611e-05
-1.20228e-05
-1.24844e-05
-1.29451e-05
-1.3404e-05
-1.38605e-05
-1.43137e-05
-1.47628e-05
-1.52072e-05
-1.5646e-05
-1.60786e-05
-1.65042e-05
-1.69222e-05
-1.73319e-05
-1.77329e-05
-1.01049e-06
-1.23188e-06
-1.45914e-06
-1.69295e-06
-1.93392e-06
-2.18263e-06
-2.43958e-06
-2.70546e-06
-2.98084e-06
-3.26487e-06
-3.55943e-06
-3.86449e-06
-4.18028e-06
-4.50691e-06
-4.84458e-06