/*--------------------------------*- C++ -*----------------------------------*\
| =========                 |                                                 |
| \\      /  F ield         | OpenFOAM: The Open Source CFD Toolbox           |
|  \\    /   O peration     | Version:  2312                                  |
|   \\  /    A nd           | Website:  www.openfoam.com                      |
|    \\/     M anipulation  |                                                 |
\*---------------------------------------------------------------------------*/
FoamFile
{
    version     2.0;
    format      ascii;
    arch        "LSB;label=32;scalar=64";
    class       surfaceScalarField;
    location    "29";
    object      phi;
}
// * * * * * * * * * * * * * * * * * * * * * * * * * * * * * * * * * * * * * //

dimensions      [0 3 -1 0 0 0 0];

oriented        oriented;

internalField   nonuniform List<scalar> 
9445
(
6.38332e-10
9.51935e-12
6.32707e-10
5.6256e-12
6.29558e-10
3.14893e-12
6.2815e-10
1.40827e-12
6.28138e-10
1.19849e-14
6.29391e-10
-1.25341e-12
6.31853e-10
-2.46191e-12
6.35469e-10
-3.61624e-12
6.40506e-10
-5.03619e-12
6.47451e-10
-6.94572e-12
6.57499e-10
-1.00482e-11
6.74422e-10
-1.69224e-11
7.11781e-10
-3.73595e-11
8.1849e-10
-1.06708e-10
-2.80469e-10
1.09896e-09
2.22786e-09
4.34834e-11
2.20677e-09
2.6711e-11
2.19404e-09
1.5888e-11
2.18725e-09
8.19445e-12
2.18525e-09
2.00823e-12
2.18745e-09
-3.45547e-12
2.19356e-09
-8.57181e-12
2.20351e-09
-1.3557e-11
2.21794e-09
-1.94727e-11
2.23826e-09
-2.72656e-11
2.26751e-09
-3.92948e-11
2.31301e-09
-6.24232e-11
2.38918e-09
-1.13531e-10
2.5105e-09
-2.28023e-10
-4.09361e-10
2.63939e-09
4.39357e-09
1.10676e-10
4.3504e-09
6.98813e-11
4.32301e-09
4.32718e-11
4.307e-09
2.42054e-11
4.30012e-09
8.88665e-12
4.3011e-09
-4.43309e-12
4.3092e-09
-1.66753e-11
4.32421e-09
-2.85665e-11
4.34701e-09
-4.22696e-11
4.37921e-09
-5.94638e-11
4.42386e-09
-8.39497e-11
4.48589e-09
-1.24451e-10
4.5682e-09
-1.95836e-10
4.65585e-09
-3.15676e-10
-4.61638e-10
4.70813e-09
7.28914e-09
2.20564e-10
7.21625e-09
1.42767e-10
7.16804e-09
9.14792e-11
7.1378e-09
5.44504e-11
7.1219e-09
2.47821e-11
7.11828e-09
-8.12269e-13
7.12548e-09
-2.38714e-11
7.14268e-09
-4.5769e-11
7.17067e-09
-7.02611e-11
7.21031e-09
-9.9097e-11
7.26273e-09
-1.36376e-10
7.32759e-09
-1.89311e-10
7.39779e-09
-2.66029e-10
7.45119e-09
-3.69081e-10
-4.7245e-10
7.462e-09
1.10976e-08
3.81415e-10
1.09875e-08
2.52877e-10
1.09119e-08
1.67136e-10
1.08616e-08
1.04724e-10
1.08316e-08
5.48225e-11
1.08187e-08
1.20879e-11
1.08206e-08
-2.58381e-11
1.08357e-08
-6.08487e-11
1.08636e-08
-9.8207e-11
1.09039e-08
-1.39391e-10
1.09549e-08
-1.87347e-10
1.10117e-08
-2.46063e-10
1.10628e-08
-3.17191e-10
1.10896e-08
-3.95885e-10
-4.62739e-10
1.10799e-08
1.60308e-08
5.96561e-10
1.58785e-08
4.05146e-10
1.577e-08
2.75669e-10
1.56942e-08
1.80504e-10
1.56447e-08
1.04328e-10
1.56171e-08
3.96705e-11
1.56083e-08
-1.69735e-11
1.56157e-08
-6.83252e-11
1.56371e-08
-1.19553e-10
1.567e-08
-1.72293e-10
1.57105e-08
-2.27838e-10
1.57513e-08
-2.86926e-10
1.57817e-08
-3.47506e-10
1.57893e-08
-4.03514e-10
-4.43917e-10
1.57705e-08
2.23237e-08
8.58345e-10
2.21311e-08
5.97686e-10
2.19886e-08
4.18238e-10
2.18844e-08
2.84691e-10
2.18115e-08
1.7722e-10
2.17646e-08
8.65556e-11
2.17396e-08
8.0735e-12
2.17329e-08
-6.17154e-11
2.17407e-08
-1.27278e-10
2.17585e-08
-1.90147e-10
2.17811e-08
-2.50374e-10
2.1801e-08
-3.06877e-10
2.18103e-08
-3.56824e-10
2.18028e-08
-3.96002e-10
-4.19656e-10
2.17786e-08
3.02232e-08
1.1405e-09
3.0005e-08
8.15847e-10
2.98362e-08
5.87096e-10
2.97069e-08
4.13962e-10
2.9611e-08
2.73155e-10
2.95431e-08
1.54434e-10
2.94985e-08
5.26184e-11
2.94729e-08
-3.61027e-11
2.94612e-08
-1.15564e-10
2.94581e-08
-1.87009e-10
2.94577e-08
-2.50035e-10
2.94543e-08
-3.03415e-10
2.94428e-08
-3.45365e-10
2.9421e-08
-3.7421e-10
-3.88964e-10
2.93903e-08
3.99742e-08
1.39304e-09
3.97633e-08
1.0268e-09
3.95897e-08
7.60608e-10
3.94493e-08
5.54372e-10
3.93388e-08
3.83702e-10
3.92544e-08
2.38837e-10
3.91918e-08
1.15197e-10
3.91465e-08
9.23584e-12
3.91131e-08
-8.21682e-11
3.90866e-08
-1.60587e-10
3.90621e-08
-2.25494e-10
3.90354e-08
-2.76734e-10
3.90042e-08
-3.14136e-10
3.89681e-08
-3.38097e-10
-3.49626e-10
3.89287e-08
5.18166e-08
1.54871e-09
5.16628e-08
1.18063e-09
5.15214e-08
9.02044e-10
5.13968e-08
6.78926e-10
5.1291e-08
4.89484e-10
5.12036e-08
3.26274e-10
5.1132e-08
1.86771e-10
5.1073e-08
6.82279e-11
5.10218e-08
-3.09758e-11
5.09754e-08
-1.14161e-10
5.09301e-08
-1.8019e-10
5.08839e-08
-2.3048e-10
5.08359e-08
-2.66203e-10
5.07869e-08
-2.89056e-10
-3.00962e-10
5.07382e-08
6.60207e-08
1.55069e-09
6.59746e-08
1.22683e-09
6.5907e-08
9.69573e-10
6.58334e-08
7.52531e-10
6.57604e-08
5.62454e-10
6.56918e-08
3.94962e-10
6.5628e-08
2.50541e-10
6.55682e-08
1.27978e-10
6.55113e-08
2.59905e-11
6.54542e-08
-5.71135e-11
6.5397e-08
-1.22968e-10
6.5339e-08
-1.72439e-10
6.52806e-08
-2.0784e-10
6.5223e-08
-2.31432e-10
-2.45392e-10
6.51674e-08
8.29763e-08
1.39383e-09
8.30536e-08
1.14958e-09
8.30845e-08
9.38676e-10
8.30883e-08
7.48728e-10
8.30729e-08
5.77859e-10
8.30441e-08
4.23713e-10
8.30067e-08
2.87963e-10
8.2963e-08
1.71617e-10
8.29143e-08
7.46962e-11
8.2861e-08
-3.79011e-12
8.28042e-08
-6.61175e-11
8.27453e-08
-1.13544e-10
8.26856e-08
-1.48191e-10
8.26266e-08
-1.72455e-10
-1.88413e-10
8.25697e-08
1.03274e-07
1.13062e-09
1.0345e-07
9.7353e-10
1.03565e-07
8.23936e-10
1.03636e-07
6.77419e-10
1.03676e-07
5.38367e-10
1.03691e-07
4.08522e-10
1.03688e-07
2.91435e-10
1.03669e-07
1.89939e-10
1.03639e-07
1.04867e-10
1.036e-07
3.53781e-11
1.03554e-07
-1.99951e-11
1.03503e-07
-6.30844e-11
1.03451e-07
-9.54659e-11
1.03397e-07
-1.19172e-10
-1.3596e-10
1.03345e-07
1.27667e-07
8.41553e-10
1.2788e-07
7.60157e-10
1.28036e-07
6.68339e-10
1.28145e-07
5.68323e-10
1.28216e-07
4.67406e-10
1.28257e-07
3.67741e-10
1.28274e-07
2.74202e-10
1.28272e-07
1.91401e-10
1.28256e-07
1.21063e-10
1.28229e-07
6.28529e-11
1.28193e-07
1.57243e-11
1.28152e-07
-2.16772e-11
1.28107e-07
-5.06757e-11
1.2806e-07
-7.27438e-11
-8.92331e-11
1.28014e-07
1.56874e-07
5.77248e-10
1.57074e-07
5.59934e-10
1.57225e-07
5.17755e-10
1.57334e-07
4.5887e-10
1.57408e-07
3.94192e-10
1.57452e-07
3.23895e-10
1.57472e-07
2.54105e-10
1.57472e-07
1.90833e-10
1.57457e-07
1.35885e-10
1.57431e-07
8.91521e-11
1.57397e-07
5.02247e-11
1.57356e-07
1.84027e-11
1.57313e-07
-7.06763e-12
1.57267e-07
-2.71641e-11
-4.2861e-11
1.57221e-07
1.91375e-07
3.5086e-10
1.91544e-07
3.90881e-10
1.91668e-07
3.93913e-10
1.91756e-07
3.70602e-10
1.91813e-07
3.37818e-10
1.91845e-07
2.91247e-10
1.91856e-07
2.43332e-10
1.91847e-07
1.99643e-10
1.91824e-07
1.59587e-10
1.91789e-07
1.23429e-10
1.91748e-07
9.15366e-11
1.91702e-07
6.43508e-11
1.91653e-07
4.2082e-11
1.91602e-07
2.40624e-11
9.42559e-12
1.91549e-07
2.3129e-07
1.65635e-10
2.31427e-07
2.54391e-10
2.31522e-07
2.98832e-10
2.31581e-07
3.1101e-10
2.31617e-07
3.0195e-10
2.31628e-07
2.80276e-10
2.31622e-07
2.49902e-10
2.31602e-07
2.19587e-10
2.3157e-07
1.90824e-10
2.31529e-07
1.64595e-10
2.3148e-07
1.40999e-10
2.31424e-07
1.19604e-10
2.31366e-07
1.00997e-10
2.31304e-07
8.51388e-11
7.17447e-11
2.31242e-07
2.76203e-07
2.69828e-11
2.76303e-07
1.54149e-10
2.7637e-07
2.3139e-10
2.76405e-07
2.75969e-10
2.7642e-07
2.87705e-10
2.76413e-07
2.87239e-10
2.7639e-07
2.72471e-10
2.76356e-07
2.53624e-10
2.76312e-07
2.3494e-10
2.76259e-07
2.17658e-10
2.76198e-07
2.01471e-10
2.76132e-07
1.85566e-10
2.76063e-07
1.70797e-10
2.7599e-07
1.57644e-10
1.46145e-10
2.75916e-07
3.24652e-07
-6.71034e-11
3.2471e-07
9.66299e-11
3.24745e-07
1.96124e-10
3.24764e-07
2.57087e-10
3.24762e-07
2.892e-10
3.24745e-07
3.04291e-10
3.2471e-07
3.07387e-10
3.24661e-07
3.02688e-10
3.24602e-07
2.93721e-10
3.24537e-07
2.82993e-10
3.24467e-07
2.71847e-10
3.24391e-07
2.60902e-10
3.24312e-07
2.50554e-10
3.24228e-07
2.40996e-10
2.32306e-10
3.24142e-07
3.73513e-07
-1.27652e-10
3.73558e-07
5.1932e-11
3.73585e-07
1.69346e-10
3.73594e-07
2.47365e-10
3.73587e-07
2.96794e-10
3.73565e-07
3.25902e-10
3.7353e-07
3.42416e-10
3.73483e-07
3.49699e-10
3.73426e-07
3.50849e-10
3.7336e-07
3.48426e-10
3.73288e-07
3.44365e-10
3.73209e-07
3.39591e-10
3.73125e-07
3.34552e-10
3.73037e-07
3.29524e-10
3.2475e-10
3.72944e-07
3.70976e-07
-1.21946e-10
3.70968e-07
5.97211e-11
3.70956e-07
1.81717e-10
3.70937e-07
2.66273e-10
3.7091e-07
3.23856e-10
3.70874e-07
3.62113e-10
3.7083e-07
3.86331e-10
3.70778e-07
4.01633e-10
3.70718e-07
4.10806e-10
3.70651e-07
4.15683e-10
3.70577e-07
4.17877e-10
3.70498e-07
4.18509e-10
3.70415e-07
4.1827e-10
3.70327e-07
4.17423e-10
4.16086e-10
3.70235e-07
3.17506e-07
-7.49503e-11
3.17482e-07
8.39584e-11
3.17466e-07
1.97178e-10
3.17454e-07
2.78614e-10
3.17441e-07
3.3685e-10
3.17425e-07
3.78305e-10
3.17403e-07
4.07604e-10
3.17377e-07
4.28359e-10
3.17344e-07
4.43171e-10
3.17307e-07
4.53533e-10
3.17264e-07
4.60789e-10
3.17216e-07
4.65952e-10
3.17165e-07
4.69616e-10
3.1711e-07
4.72263e-10
4.74106e-10
3.17052e-07
2.66102e-07
-1.13532e-11
2.6606e-07
1.25603e-10
2.66031e-07
2.26646e-10
2.66008e-07
3.01449e-10
2.65988e-07
3.56752e-10
2.65968e-07
3.97766e-10
2.65948e-07
4.28295e-10
2.65925e-07
4.51106e-10
2.659e-07
4.68318e-10
2.65872e-07
4.81342e-10
2.65842e-07
4.91216e-10
2.65809e-07
4.98788e-10
2.65774e-07
5.046e-10
2.65737e-07
5.09004e-10
5.12248e-10
2.65699e-07
2.19313e-07
5.22082e-11
2.19273e-07
1.66439e-10
2.19246e-07
2.53009e-10
2.19229e-07
3.18655e-10
2.19217e-07
3.68586e-10
2.19208e-07
4.06767e-10
2.192e-07
4.36149e-10
2.19193e-07
4.58917e-10
2.19184e-07
4.7669e-10
2.19175e-07
4.90626e-10
2.19165e-07
5.01548e-10
2.19153e-07
5.10055e-10
2.19141e-07
5.16609e-10
2.19129e-07
5.21505e-10
5.24929e-10
2.19116e-07
1.78232e-07
1.03757e-10
1.78202e-07
1.95801e-10
1.78188e-07
2.67125e-10
1.78184e-07
3.22391e-10
1.78187e-07
3.65464e-10
1.78195e-07
3.99248e-10
1.78205e-07
4.25925e-10
1.78217e-07
4.47111e-10
1.7823e-07
4.63994e-10
1.78243e-07
4.77436e-10
1.78256e-07
4.88049e-10
1.7827e-07
4.96293e-10
1.78284e-07
5.02522e-10
1.78299e-07
5.06974e-10
5.09812e-10
1.78314e-07
1.43087e-07
1.34917e-10
1.43076e-07
2.06665e-10
1.4308e-07
2.63468e-10
1.43094e-07
3.08401e-10
1.43115e-07
3.44195e-10
1.43142e-07
3.72882e-10
1.43172e-07
3.95989e-10
1.43204e-07
4.14648e-10
1.43238e-07
4.29691e-10
1.43274e-07
4.41732e-10
1.43311e-07
4.51214e-10
1.43349e-07
4.58471e-10
1.43387e-07
4.63751e-10
1.43427e-07
4.67231e-10
4.69035e-10
1.43468e-07
1.13624e-07
1.43109e-10
1.13633e-07
1.97497e-10
1.13655e-07
2.41491e-10
1.13686e-07
2.77014e-10
1.13725e-07
3.05889e-10
1.13768e-07
3.29473e-10
1.13815e-07
3.48784e-10
1.13865e-07
3.64571e-10
1.13918e-07
3.77391e-10
1.13972e-07
3.87656e-10
1.14027e-07
3.95669e-10
1.14084e-07
4.01657e-10
1.14142e-07
4.05793e-10
1.14201e-07
4.08208e-10
4.08997e-10
1.14261e-07
8.93181e-08
1.3179e-10
8.93435e-08
1.72095e-10
8.93796e-08
2.05426e-10
8.94237e-08
2.32898e-10
8.9474e-08
2.55669e-10
8.95288e-08
2.746e-10
8.95873e-08
2.90329e-10
8.96485e-08
3.03326e-10
8.9712e-08
3.13941e-10
8.97772e-08
3.22436e-10
8.98439e-08
3.29011e-10
8.99117e-08
3.33815e-10
8.99805e-08
3.36969e-10
9.00502e-08
3.38567e-10
3.38683e-10
9.01205e-08
6.95239e-08
1.08046e-10
6.95587e-08
1.37359e-10
6.96019e-08
1.62161e-10
6.96518e-08
1.8303e-10
6.97068e-08
2.00667e-10
6.97658e-08
2.15588e-10
6.9828e-08
2.28167e-10
6.98926e-08
2.38676e-10
6.99593e-08
2.47324e-10
7.00274e-08
2.5427e-10
7.00968e-08
2.59638e-10
7.01671e-08
2.63525e-10
7.0238e-08
2.66012e-10
7.03094e-08
2.67165e-10
2.67042e-10
7.03811e-08
5.35704e-08
7.95436e-11
5.36073e-08
1.0049e-10
5.36508e-08
1.18636e-10
5.36996e-08
1.34223e-10
5.37526e-08
1.47658e-10
5.3809e-08
1.59232e-10
5.3868e-08
1.6914e-10
5.39292e-08
1.77529e-10
5.3992e-08
1.84512e-10
5.40561e-08
1.90182e-10
5.41211e-08
1.94608e-10
5.41868e-08
1.97851e-10
5.42528e-08
1.99965e-10
5.4319e-08
2.00995e-10
2.00986e-10
5.43851e-08
4.08243e-08
5.2351e-11
4.08577e-08
6.70229e-11
4.08963e-08
8.00451e-11
4.09391e-08
9.14613e-11
4.09852e-08
1.01507e-10
4.10342e-08
1.10324e-10
4.10853e-08
1.18002e-10
4.11382e-08
1.24608e-10
4.11925e-08
1.30197e-10
4.12479e-08
1.34817e-10
4.1304e-08
1.38502e-10
4.13606e-08
1.4129e-10
4.14173e-08
1.43212e-10
4.1474e-08
1.44299e-10
1.44586e-10
4.15304e-08
3.07204e-08
3.00864e-11
3.07474e-08
4.00957e-11
3.07782e-08
4.92091e-11
3.08123e-08
5.73633e-11
3.08491e-08
6.46947e-11
3.08882e-08
7.12577e-11
3.09291e-08
7.70779e-11
3.09715e-08
8.21803e-11
3.10151e-08
8.65838e-11
3.10596e-08
9.03078e-11
3.11048e-08
9.33672e-11
3.11503e-08
9.57807e-11
3.11959e-08
9.75661e-11
3.12415e-08
9.87431e-11
9.93361e-11
3.12867e-08
2.27717e-08
1.40932e-11
2.27911e-08
2.06706e-11
2.28135e-08
2.68383e-11
2.28384e-08
3.24719e-11
2.28654e-08
3.76511e-11
2.28943e-08
4.23821e-11
2.29247e-08
4.666e-11
2.29564e-08
5.04866e-11
2.29891e-08
5.38621e-11
2.30227e-08
5.679e-11
2.30568e-08
5.92725e-11
2.30912e-08
6.13179e-11
2.31259e-08
6.29332e-11
2.31605e-08
6.41314e-11
6.49274e-11
2.31949e-08
1.65665e-08
4.10139e-12
1.6579e-08
8.19326e-12
1.65936e-08
1.2186e-11
1.66102e-08
1.59102e-11
1.66284e-08
1.94112e-11
1.66481e-08
2.26754e-11
1.66691e-08
2.56865e-11
1.66912e-08
2.84362e-11
1.67141e-08
3.09163e-11
1.67378e-08
3.31225e-11
1.6762e-08
3.50509e-11
1.67866e-08
3.67033e-11
1.68115e-08
3.80804e-11
1.68364e-08
3.91907e-11
4.00424e-11
1.68613e-08
1.17615e-08
-1.04219e-12
1.17684e-08
1.30439e-12
1.17769e-08
3.73177e-12
1.17867e-08
6.05486e-12
1.17979e-08
8.28415e-12
1.18101e-08
1.04052e-11
1.18234e-08
1.24006e-11
1.18376e-08
1.42602e-11
1.18525e-08
1.59743e-11
1.18681e-08
1.75356e-11
1.18842e-08
1.89382e-11
1.19008e-08
2.01811e-11
1.19176e-08
2.12616e-11
1.19346e-08
2.21852e-11
2.29571e-11
1.19517e-08
8.0733e-09
-2.79728e-12
8.07621e-09
-1.60036e-12
8.08022e-09
-2.79199e-13
8.08521e-09
1.05869e-12
8.09113e-09
2.3689e-12
8.0979e-09
3.63596e-12
8.10545e-09
4.84934e-12
8.11371e-09
6.00253e-12
8.12259e-09
7.0876e-12
8.13203e-09
8.09727e-12
8.14195e-09
9.02629e-12
8.15225e-09
9.87298e-12
8.16288e-09
1.06337e-11
8.17375e-09
1.13118e-11
1.19127e-11
8.1848e-09
5.26966e-09
-2.59557e-12
5.27015e-09
-2.0889e-12
5.27133e-09
-1.4565e-12
5.27318e-09
-7.90044e-13
5.27566e-09
-1.13778e-13
5.27874e-09
5.54683e-13
5.28239e-09
1.20183e-12
5.28656e-09
1.82851e-12
5.29122e-09
2.42956e-12
5.29632e-09
2.99941e-12
5.30181e-09
3.53471e-12
5.30765e-09
4.03435e-12
5.31379e-09
4.49513e-12
5.32018e-09
4.9189e-12
5.31259e-12
5.32678e-09
3.16204e-09
-1.55776e-12
3.16138e-09
-1.4234e-12
3.1611e-09
-1.1836e-12
3.16123e-09
-9.15172e-13
3.16175e-09
-6.35051e-13
3.16266e-09
-3.57382e-13
3.16395e-09
-8.44712e-14
3.16559e-09
1.86996e-13
3.16757e-09
4.50849e-13
3.16986e-09
7.05333e-13
3.17245e-09
9.48712e-13
3.1753e-09
1.18087e-12
3.1784e-09
1.3995e-12
3.18171e-09
1.60539e-12
1.80673e-12
3.18522e-09
1.59848e-09
-5.17445e-13
1.59758e-09
-5.2486e-13
1.59686e-09
-4.66977e-13
1.59635e-09
-4.02854e-13
1.59605e-09
-3.34743e-13
1.59596e-09
-2.67307e-13
1.59608e-09
-2.001e-13
1.59639e-09
-1.31233e-13
1.59691e-09
-6.36064e-14
1.59761e-09
2.99156e-15
1.59849e-09
6.78443e-14
1.59954e-09
1.31246e-13
1.60075e-09
1.92006e-13
1.6021e-09
2.50039e-13
3.12439e-13
1.6036e-09
4.57357e-10
4.56833e-10
4.56366e-10
4.55963e-10
4.55628e-10
4.55361e-10
4.55161e-10
4.55029e-10
4.54966e-10
4.54969e-10
4.55037e-10
4.55168e-10
4.5536e-10
4.5561e-10
4.55922e-10
1.31251e-09
-5.57379e-10
3.43827e-10
1.61616e-09
-5.10505e-10
2.06859e-10
1.92018e-09
-4.01713e-10
9.7686e-11
2.21721e-09
-2.98796e-10
1.7681e-12
2.50471e-09
-2.09477e-10
-7.80156e-11
2.78316e-09
-1.43252e-10
-1.35203e-10
3.05383e-09
-1.02303e-10
-1.68371e-10
3.3178e-09
-8.72406e-11
-1.76723e-10
3.57606e-09
-9.82825e-11
-1.59985e-10
3.82952e-09
-1.34841e-10
-1.18619e-10
4.07888e-09
-1.95479e-10
-5.38736e-11
4.32463e-09
-2.77616e-10
3.18638e-11
4.56714e-09
-3.76694e-10
1.34184e-10
4.80677e-09
-4.84498e-10
2.44865e-10
5.0442e-09
-5.8675e-10
3.49322e-10
5.28095e-09
-6.59454e-10
4.22701e-10
5.52002e-09
-6.64372e-10
4.25301e-10
5.76701e-09
-5.43718e-10
2.96732e-10
6.03066e-09
-2.17861e-10
-4.57897e-11
6.32372e-09
4.22808e-10
-7.15866e-10
6.66153e-09
1.4718e-09
-1.80961e-09
7.05629e-09
3.02931e-09
-3.42407e-09
7.44386e-09
4.21239e-09
-4.59996e-09
7.7855e-09
4.62683e-09
-4.96847e-09
8.07072e-09
4.51347e-09
-4.79869e-09
8.2946e-09
3.99724e-09
-4.22112e-09
8.4559e-09
3.18929e-09
-3.3506e-09
8.5544e-09
2.19184e-09
-2.29033e-09
8.58966e-09
1.09769e-09
-1.13296e-09
8.56153e-09
-8.84759e-12
3.6981e-11
8.47052e-09
-1.05183e-09
1.14285e-09
8.31872e-09
-1.96771e-09
2.11951e-09
8.10968e-09
-2.70796e-09
2.91699e-09
7.84824e-09
-3.24159e-09
3.50303e-09
7.53987e-09
-3.55453e-09
3.8629e-09
7.18997e-09
-3.64692e-09
3.99681e-09
6.80327e-09
-3.52882e-09
3.91552e-09
6.38356e-09
-3.21505e-09
3.63477e-09
5.93406e-09
-2.71925e-09
3.16875e-09
5.45806e-09
-2.04808e-09
2.52408e-09
4.95822e-09
-1.20137e-09
1.70121e-09
4.43274e-09
-1.88365e-10
7.13839e-10
3.87332e-09
9.15358e-10
-3.5593e-10
3.29409e-09
1.91053e-09
-1.33131e-09
2.18599e-09
2.96497e-09
-1.85686e-09
2.72284e-09
-6.40829e-10
2.89996e-09
-6.87631e-10
3.13958e-09
-6.41334e-10
3.40596e-09
-5.6517e-10
3.68299e-09
-4.86513e-10
3.96224e-09
-4.22498e-10
4.24005e-09
-3.80116e-10
4.51479e-09
-3.61974e-10
4.78589e-09
-3.69388e-10
5.05332e-09
-4.02274e-10
5.31721e-09
-4.5936e-10
5.57767e-09
-5.38076e-10
5.83481e-09
-6.33839e-10
6.08883e-09
-7.38522e-10
6.3403e-09
-8.38214e-10
6.5907e-09
-9.09859e-10
6.84314e-09
-9.16809e-10
7.10354e-09
-8.04121e-10
7.38137e-09
-4.95686e-10
7.69063e-09
1.13552e-10
8.04871e-09
1.11371e-09
8.47045e-09
2.60757e-09
8.88915e-09
3.79369e-09
9.26309e-09
4.25288e-09
9.57978e-09
4.19678e-09
9.83238e-09
3.74464e-09
1.00184e-08
3.00332e-09
1.01365e-08
2.07364e-09
1.01861e-08
1.04819e-09
1.01664e-08
1.08186e-11
1.00784e-08
-9.63833e-10
9.92455e-09
-1.81387e-09
9.70925e-09
-2.49266e-09
9.43845e-09
-2.97078e-09
9.11907e-09
-3.23515e-09
8.75841e-09
-3.28626e-09
8.36374e-09
-3.13415e-09
7.9424e-09
-2.79371e-09
7.50301e-09
-2.27987e-09
7.05799e-09
-1.60306e-09
6.62684e-09
-7.70219e-10
6.23874e-09
1.99733e-10
5.93414e-09
1.21995e-09
5.77715e-09
2.06752e-09
2.24699e-09
5.71616e-09
4.72173e-09
-6.54436e-10
4.79755e-09
-7.63448e-10
4.94533e-09
-7.89116e-10
5.14872e-09
-7.68555e-10
5.3851e-09
-7.22893e-10
5.64027e-09
-6.77664e-10
5.90528e-09
-6.45135e-10
6.17473e-09
-6.31417e-10
6.4455e-09
-6.40165e-10
6.71586e-09
-6.72634e-10
6.98477e-09
-7.28262e-10
7.25155e-09
-8.04857e-10
7.51576e-09
-8.98052e-10
7.77721e-09
-9.99967e-10
8.03616e-09
-1.09717e-09
8.29397e-09
-1.16766e-09
8.55368e-09
-1.17653e-09
8.82148e-09
-1.07192e-09
9.10746e-09
-7.81661e-10
9.42687e-09
-2.05858e-10
9.79936e-09
7.41217e-10
1.02428e-08
2.16409e-09
1.06893e-08
3.3472e-09
1.10944e-08
3.84784e-09
1.1443e-08
3.84816e-09
1.17259e-08
3.46175e-09
1.19388e-08
2.79046e-09
1.20792e-08
1.93317e-09
1.21456e-08
9.81767e-10
1.21373e-08
1.91693e-11
1.20552e-08
-8.81742e-10
1.19025e-08
-1.66113e-09
1.16845e-08
-2.27468e-09
1.14086e-08
-2.69489e-09
1.10835e-08
-2.91008e-09
1.07189e-08
-2.92166e-09
1.03252e-08
-2.74042e-09
9.91399e-09
-2.38251e-09
9.50009e-09
-1.86597e-09
9.10513e-09
-1.2081e-09
8.76273e-09
-4.27817e-10
8.52096e-09
4.415e-10
8.43132e-09
1.30959e-09
8.51107e-09
1.98778e-09
2.15359e-09
8.60446e-09
7.43755e-09
-6.29984e-10
7.44466e-09
-7.70559e-10
7.50547e-09
-8.49925e-10
7.62486e-09
-8.87948e-10
7.79466e-09
-8.92694e-10
7.99891e-09
-8.8191e-10
8.22629e-09
-8.72521e-10
8.46846e-09
-8.73586e-10
8.71972e-09
-8.91423e-10
8.97618e-09
-9.29089e-10
9.23517e-09
-9.87252e-10
9.49482e-09
-1.06452e-09
9.75382e-09
-1.15705e-09
1.00113e-08
-1.25745e-09
1.02671e-08
-1.35293e-09
1.05221e-08
-1.42268e-09
1.07793e-08
-1.43371e-09
1.10449e-08
-1.33752e-09
1.13295e-08
-1.06631e-09
1.16496e-08
-5.25972e-10
1.20272e-08
3.63596e-10
1.24838e-08
1.70757e-09
1.29518e-08
2.8792e-09
1.33844e-08
3.41522e-09
1.37637e-08
3.46886e-09
1.40772e-08
3.14821e-09
1.43184e-08
2.54928e-09
1.44833e-08
1.7683e-09
1.45692e-08
8.95863e-10
1.45751e-08
1.32686e-11
1.45022e-08
-8.08848e-10
1.43543e-08
-1.5133e-09
1.41382e-08
-2.05852e-09
1.38627e-08
-2.41936e-09
1.35386e-08
-2.58605e-09
1.31785e-08
-2.56149e-09
1.2796e-08
-2.35794e-09
1.24073e-08
-1.99384e-09
1.20328e-08
-1.49143e-09
1.17004e-08
-8.7571e-10
1.14496e-08
-1.77057e-10
1.13302e-08
5.60893e-10
1.13823e-08
1.25753e-09
1.15912e-08
1.77887e-09
1.95258e-09
1.17922e-08
1.10392e-08
-5.8922e-10
1.10027e-08
-7.34084e-10
1.09992e-08
-8.46469e-10
1.10388e-08
-9.27525e-10
1.11253e-08
-9.79173e-10
1.12576e-08
-1.01428e-09
1.14229e-08
-1.03774e-09
1.16131e-08
-1.0638e-09
1.18213e-08
-1.0996e-09
1.20418e-08
-1.14963e-09
1.22705e-08
-1.21592e-09
1.2504e-08
-1.2981e-09
1.27401e-08
-1.39314e-09
1.2977e-08
-1.49431e-09
1.32137e-08
-1.58969e-09
1.34509e-08
-1.65982e-09
1.3691e-08
-1.67379e-09
1.39402e-08
-1.58672e-09
1.42095e-08
-1.33563e-09
1.45164e-08
-8.32844e-10
1.48853e-08
-5.31727e-12
1.53415e-08
1.25139e-09
1.58204e-08
2.40023e-09
1.62737e-08
2.96199e-09
1.66797e-08
3.06284e-09
1.70222e-08
2.80574e-09
1.72916e-08
2.27986e-09
1.7482e-08
1.57792e-09
1.75894e-08
7.88434e-10
1.76123e-08
-9.66529e-12
1.75522e-08
-7.48706e-10
1.74137e-08
-1.37478e-09
1.72047e-08
-1.84957e-09
1.69362e-08
-2.15079e-09
1.66211e-08
-2.27103e-09
1.62748e-08
-2.21517e-09
1.59144e-08
-1.99755e-09
1.55599e-08
-1.63929e-09
1.52352e-08
-1.16674e-09
1.49704e-08
-6.1092e-10
1.48025e-08
-9.13129e-12
1.47708e-08
5.92557e-10
1.48977e-08
1.13063e-09
1.51542e-08
1.52234e-09
1.68432e-09
1.54225e-08
1.57257e-08
-5.44492e-10
1.5669e-08
-6.77297e-10
1.56227e-08
-8.00205e-10
1.56018e-08
-9.06674e-10
1.56139e-08
-9.91228e-10
1.56642e-08
-1.0646e-09
1.57508e-08
-1.12435e-09
1.58686e-08
-1.18153e-09
1.60105e-08
-1.24151e-09
1.61711e-08
-1.31026e-09
1.63456e-08
-1.39037e-09
1.65297e-08
-1.48227e-09
1.67203e-08
-1.5837e-09
1.69147e-08
-1.68871e-09
1.71114e-08
-1.78634e-09
1.73102e-08
-1.85863e-09
1.75133e-08
-1.87688e-09
1.77266e-08
-1.80007e-09
1.79614e-08
-1.57044e-09
1.82359e-08
-1.1073e-09
1.85769e-08
-3.46339e-10
1.90137e-08
8.14607e-10
1.94878e-08
1.9261e-09
1.99501e-08
2.49965e-09
2.03751e-08
2.63783e-09
2.07417e-08
2.43918e-09
2.10368e-08
1.98476e-09
2.12519e-08
1.36278e-09
2.13816e-08
6.58774e-10
2.14235e-08
-5.16202e-11
2.13794e-08
-7.04541e-10
2.12547e-08
-1.25006e-09
2.10588e-08
-1.65366e-09
2.08044e-08
-1.89642e-09
2.0507e-08
-1.97365e-09
2.01844e-08
-1.89255e-09
1.98565e-08
-1.66966e-09
1.95457e-08
-1.32851e-09
1.92772e-08
-8.98206e-10
1.90788e-08
-4.12555e-10
1.89796e-08
9.0072e-11
1.90043e-08
5.6786e-10
1.91598e-08
9.75129e-10
1.94161e-08
1.26602e-09
1.40613e-09
1.96943e-08
2.17341e-08
-5.00077e-10
2.16721e-08
-6.1524e-10
2.16047e-08
-7.32814e-10
2.15437e-08
-8.45728e-10
2.15014e-08
-9.48912e-10
2.14819e-08
-1.04504e-09
2.149e-08
-1.13251e-09
2.15257e-08
-1.21723e-09
2.15862e-08
-1.30202e-09
2.16677e-08
-1.39167e-09
2.17659e-08
-1.48863e-09
2.18771e-08
-1.59347e-09
2.19978e-08
-1.70434e-09
2.21249e-08
-1.81588e-09
2.22566e-08
-1.91805e-09
2.23924e-08
-1.99437e-09
2.25339e-08
-2.01843e-09
2.26871e-08
-1.95321e-09
2.28631e-08
-1.7465e-09
2.30808e-08
-1.32493e-09
2.33692e-08
-6.34787e-10
2.37615e-08
4.22352e-10
2.42089e-08
1.4787e-09
2.46632e-08
2.0453e-09
2.50945e-08
2.20657e-09
2.54759e-08
2.05778e-09
2.57904e-08
1.67028e-09
2.60264e-08
1.12669e-09
2.61767e-08
5.08556e-10
2.62379e-08
-1.12847e-10
2.62118e-08
-6.7842e-10
2.61047e-08
-1.14297e-09
2.59274e-08
-1.47636e-09
2.56944e-08
-1.66341e-09
2.54231e-08
-1.7024e-09
2.51334e-08
-1.60287e-09
2.4847e-08
-1.38317e-09
2.45867e-08
-1.06826e-09
2.43764e-08
-6.87897e-10
2.4239e-08
-2.75127e-10
2.41937e-08
1.35361e-10
2.4252e-08
5.09556e-10
2.44101e-08
8.17016e-10
2.46418e-08
1.03427e-09
1.14999e-09
2.4898e-08
2.93449e-08
-4.54604e-10
2.92821e-08
-5.52445e-10
2.92069e-08
-6.57645e-10
2.91265e-08
-7.65371e-10
2.90495e-08
-8.7183e-10
2.89806e-08
-9.76228e-10
2.89261e-08
-1.07801e-09
2.8888e-08
-1.17912e-09
2.88674e-08
-1.28136e-09
2.88631e-08
-1.38734e-09
2.8873e-08
-1.49863e-09
2.88949e-08
-1.61528e-09
2.89259e-08
-1.73534e-09
2.89636e-08
-1.85366e-09
2.90065e-08
-1.96087e-09
2.9054e-08
-2.04188e-09
2.9108e-08
-2.07242e-09
2.91743e-08
-2.01956e-09
2.92645e-08
-1.8367e-09
2.93975e-08
-1.45795e-09
2.96047e-08
-8.42002e-10
2.99224e-08
1.04674e-10
3.03155e-08
1.08559e-09
3.0739e-08
1.62185e-09
3.1158e-08
1.7875e-09
3.15396e-08
1.67622e-09
3.18622e-08
1.34768e-09
3.21111e-08
8.77773e-10
3.22766e-08
3.43062e-10
3.23545e-08
-1.90692e-10
3.23462e-08
-6.70164e-10
3.22589e-08
-1.05566e-09
3.21044e-08
-1.32193e-09
3.18988e-08
-1.45776e-09
3.16608e-08
-1.46445e-09
3.14115e-08
-1.35351e-09
3.11726e-08
-1.14431e-09
3.09661e-08
-8.61722e-10
3.08122e-08
-5.34005e-10
3.07277e-08
-1.9067e-10
3.07232e-08
1.39859e-10
3.08009e-08
4.31874e-10
3.09514e-08
6.66508e-10
3.11534e-08
8.32315e-10
9.27477e-10
3.13759e-08
3.88787e-08
-4.04528e-10
3.88135e-08
-4.87241e-10
3.87344e-08
-5.78549e-10
3.86446e-08
-6.75651e-10
3.85487e-08
-7.75923e-10
3.84505e-08
-8.78014e-10
3.8354e-08
-9.81445e-10
3.82616e-08
-1.08673e-09
3.81751e-08
-1.1949e-09
3.8095e-08
-1.30726e-09
3.8021e-08
-1.42458e-09
3.7952e-08
-1.54626e-09
3.78867e-08
-1.6701e-09
3.78239e-08
-1.79089e-09
3.77629e-08
-1.89982e-09
3.7704e-08
-1.98297e-09
3.76496e-08
-2.01806e-09
3.76064e-08
-1.97628e-09
3.75861e-08
-1.81648e-09
3.76082e-08
-1.48e-09
3.7706e-08
-9.39813e-10
3.79182e-08
-1.07483e-10
3.82266e-08
7.77146e-10
3.8592e-08
1.25648e-09
3.89753e-08
1.40414e-09
3.93367e-08
1.31487e-09
3.96505e-08
1.03384e-09
3.98989e-08
6.29419e-10
4.00697e-08
1.72291e-10
4.01574e-08
-2.78425e-10
4.01634e-08
-6.76138e-10
4.0095e-08
-9.87328e-10
3.99651e-08
-1.19199e-09
3.97903e-08
-1.28296e-09
3.95901e-08
-1.26423e-09
3.93852e-08
-1.14865e-09
3.91964e-08
-9.55516e-10
3.90428e-08
-7.08125e-10
3.89403e-08
-4.31495e-10
3.88998e-08
-1.50114e-10
3.89254e-08
1.14262e-10
3.90141e-08
3.43165e-10
3.9155e-08
5.25581e-10
3.93311e-08
6.56179e-10
7.36337e-10
3.95223e-08
5.06814e-08
-3.4768e-10
5.06114e-08
-4.17245e-10
5.05279e-08
-4.95053e-10
5.04319e-08
-5.79647e-10
5.03253e-08
-6.69347e-10
5.02102e-08
-7.62946e-10
5.00886e-08
-8.59844e-10
4.99619e-08
-9.60039e-10
4.9831e-08
-1.06399e-09
4.96961e-08
-1.1723e-09
4.95567e-08
-1.28525e-09
4.94124e-08
-1.40191e-09
4.92624e-08
-1.52006e-09
4.9106e-08
-1.63457e-09
4.89435e-08
-1.73732e-09
4.87763e-08
-1.81571e-09
4.86075e-08
-1.84927e-09
4.84449e-08
-1.81373e-09
4.83013e-08
-1.67284e-09
4.81963e-08
-1.37499e-09
4.81653e-08
-9.08867e-10
4.82483e-08
-1.90412e-10
4.84457e-08
5.79747e-10
4.87265e-08
9.75647e-10
4.90488e-08
1.08187e-09
4.93658e-08
9.97774e-10
4.96494e-08
7.50239e-10
4.98789e-08
3.99956e-10
5.00401e-08
1.11396e-11
5.01263e-08
-3.64686e-10
5.01386e-08
-6.8844e-10
5.00845e-08
-9.33227e-10
4.99769e-08
-1.0844e-09
4.98326e-08
-1.13863e-09
4.96704e-08
-1.10206e-09
4.95098e-08
-9.88046e-10
4.9369e-08
-8.14718e-10
4.92635e-08
-6.02649e-10
4.92048e-08
-3.72705e-10
4.91988e-08
-1.44109e-10
4.92456e-08
6.73996e-11
4.93402e-08
2.48617e-10
4.94722e-08
3.93564e-10
4.96285e-08
4.99883e-10
5.69576e-10
4.97952e-08
6.51051e-08
-2.85338e-10
6.50309e-08
-3.4313e-10
6.4944e-08
-4.08154e-10
6.48442e-08
-4.79755e-10
6.47318e-08
-5.56952e-10
6.46076e-08
-6.38805e-10
6.44724e-08
-7.2466e-10
6.43266e-08
-8.14194e-10
6.417e-08
-9.0739e-10
6.40019e-08
-1.00426e-09
6.38214e-08
-1.1047e-09
6.36269e-08
-1.20745e-09
6.34174e-08
-1.3105e-09
6.31917e-08
-1.40889e-09
6.29499e-08
-1.49555e-09
6.26937e-08
-1.5595e-09
6.24266e-08
-1.5821e-09
6.21573e-08
-1.54444e-09
6.18989e-08
-1.41444e-09
6.16717e-08
-1.1478e-09
6.15125e-08
-7.49664e-10
6.14611e-08
-1.39051e-10
6.15363e-08
5.04571e-10
6.17158e-08
7.96109e-10
6.19564e-08
8.41262e-10
6.22066e-08
7.47592e-10
6.24381e-08
5.18719e-10
6.26285e-08
2.09586e-10
6.27623e-08
-1.22654e-10
6.28324e-08
-4.34765e-10
6.28395e-08
-6.95524e-10
6.2791e-08
-8.84735e-10
6.26995e-08
-9.92878e-10
6.25808e-08
-1.01994e-09
6.24522e-08
-9.73501e-10
6.23307e-08
-8.66552e-10
6.22312e-08
-7.15238e-10
6.21654e-08
-5.36817e-10
6.21406e-08
-3.47871e-10
6.21594e-08
-1.62938e-10
6.22201e-08
6.73847e-12
6.23164e-08
1.52315e-10
6.244e-08
2.69922e-10
6.25809e-08
3.58965e-10
4.21141e-10
6.27294e-08
8.25066e-08
-2.2226e-10
8.24328e-08
-2.69319e-10
8.23469e-08
-3.22325e-10
8.22482e-08
-3.81052e-10
8.21363e-08
-4.44971e-10
8.20109e-08
-5.1342e-10
8.1872e-08
-5.85772e-10
8.17193e-08
-6.61507e-10
8.15522e-08
-7.40246e-10
8.13694e-08
-8.21462e-10
8.11693e-08
-9.04673e-10
8.095e-08
-9.88138e-10
8.07096e-08
-1.07006e-09
8.04461e-08
-1.14545e-09
8.0159e-08
-1.20843e-09
7.98493e-08
-1.24975e-09
7.95195e-08
-1.25236e-09
7.9179e-08
-1.20397e-09
7.88397e-08
-1.07513e-09
7.85226e-08
-8.30701e-10
7.82638e-08
-4.90794e-10
7.81005e-08
2.42002e-11
7.80712e-08
5.33921e-10
7.8153e-08
7.14302e-10
7.83032e-08
6.91077e-10
7.8474e-08
5.76767e-10
7.86393e-08
3.53413e-10
7.87754e-08
7.34702e-11
7.88668e-08
-2.14101e-10
7.89071e-08
-4.75008e-10
7.88971e-08
-6.8557e-10
7.88442e-08
-8.31835e-10
7.87601e-08
-9.08764e-10
7.86591e-08
-9.18869e-10
7.85559e-08
-8.70358e-10
7.84645e-08
-7.75142e-10
7.83962e-08
-6.46948e-10
7.83591e-08
-4.99666e-10
7.83573e-08
-3.46081e-10
7.83913e-08
-1.96978e-10
7.84586e-08
-6.0501e-11
7.85527e-08
5.81483e-11
7.86675e-08
1.55174e-10
7.87952e-08
2.31255e-10
2.87542e-10
7.89288e-08
1.03287e-07
-1.64017e-10
1.03219e-07
-2.01309e-10
1.0314e-07
-2.43194e-10
1.03048e-07
-2.8963e-10
1.02944e-07
-3.40332e-10
1.02825e-07
-3.94844e-10
1.02692e-07
-4.52607e-10
1.02543e-07
-5.13003e-10
1.02378e-07
-5.7543e-10
1.02196e-07
-6.38939e-10
1.01994e-07
-7.02783e-10
1.01771e-07
-7.64665e-10
1.01524e-07
-8.23073e-10
1.01251e-07
-8.72715e-10
1.00951e-07
-9.08955e-10
1.00626e-07
-9.24109e-10
1.00276e-07
-9.02293e-10
9.99104e-08
-8.38735e-10
9.95393e-08
-7.04026e-10
9.91849e-08
-4.76296e-10
9.88785e-08
-1.84411e-10
9.8651e-08
2.51703e-10
9.85629e-08
6.22069e-10
9.85802e-08
6.9701e-10
9.86468e-08
6.24486e-10
9.87432e-08
4.80382e-10
9.88463e-08
2.50277e-10
9.8927e-08
-7.19542e-12
9.89718e-08
-2.58979e-10
9.89768e-08
-4.79922e-10
9.89438e-08
-6.52619e-10
9.88803e-08
-7.68303e-10
9.87969e-08
-8.25391e-10
9.8706e-08
-8.2796e-10
9.86197e-08
-7.84052e-10
9.85486e-08
-7.04053e-10
9.85008e-08
-5.99169e-10
9.84814e-08
-4.80286e-10
9.84925e-08
-3.57117e-10
9.85331e-08
-2.37591e-10
9.86002e-08
-1.27591e-10
9.86892e-08
-3.09111e-11
9.87938e-08