/*--------------------------------*- C++ -*----------------------------------*\
| =========                 |                                                 |
| \\      /  F ield         | OpenFOAM: The Open Source CFD Toolbox           |
|  \\    /   O peration     | Version:  2312                                  |
|   \\  /    A nd           | Website:  www.openfoam.com                      |
|    \\/     M anipulation  |                                                 |
\*---------------------------------------------------------------------------*/
FoamFile
{
    version     2.0;
    format      ascii;
    arch        "LSB;label=32;scalar=64";
    class       volVectorField;
    location    "29";
    object      U;
}
// * * * * * * * * * * * * * * * * * * * * * * * * * * * * * * * * * * * * * //

dimensions      [0 1 -1 0 0 0 0];

internalField   nonuniform List<vector> 
4800
(
(0.00051293 2.53322e-07 -2.87716e-26)
(0.00050709 3.09609e-07 -2.07463e-25)
(0.000503684 3.49792e-07 2.64811e-25)
(0.000501888 3.75279e-07 1.27109e-25)
(0.000501312 3.89843e-07 1.92518e-24)
(0.000501795 3.74323e-07 -4.61754e-24)
(0.000503256 3.4331e-07 4.3877e-24)
(0.00050564 2.64128e-07 -6.46713e-24)
(0.000509019 9.09827e-08 2.05302e-24)
(0.000513658 -2.25244e-07 7.19941e-24)
(0.000520037 -8.25611e-07 -2.21441e-24)
(0.000529499 -2.39826e-06 -1.77543e-25)
(0.000549811 -8.10851e-06 -2.75556e-24)
(0.000600705 -3.14091e-05 1.27726e-24)
(0.000685428 -0.000103626 -1.0131e-24)
(0.00158624 1.27276e-06 -9.11433e-26)
(0.00156738 9.03333e-07 1.13729e-25)
(0.00155574 5.99515e-07 -1.09637e-24)
(0.00154895 3.18248e-07 8.08604e-25)
(0.00154588 2.66409e-08 2.73798e-24)
(0.001546 -3.32519e-07 -4.39672e-24)
(0.00154892 -7.82932e-07 -1.31541e-24)
(0.00155453 -1.39278e-06 -3.57269e-25)
(0.00156302 -2.34127e-06 1.07607e-23)
(0.00157503 -3.89948e-06 -8.00154e-24)
(0.00159192 -6.73848e-06 8.71527e-25)
(0.00161657 -1.32331e-05 1.34903e-24)
(0.00165846 -3.17443e-05 -2.00826e-24)
(0.00172933 -8.86227e-05 -6.01702e-25)
(0.00180585 -0.000219269 2.6244e-24)
(0.00277145 4.20648e-06 -6.52111e-26)
(0.00273779 3.05353e-06 6.64642e-26)
(0.00271619 2.14399e-06 7.15199e-25)
(0.00270282 1.30869e-06 -1.72721e-24)
(0.00269577 3.97154e-07 1.72783e-24)
(0.00269406 -7.05905e-07 1.66847e-24)
(0.00269706 -2.10788e-06 -4.29842e-24)
(0.00270427 -3.98043e-06 -2.77549e-24)
(0.00271617 -6.73276e-06 6.63452e-24)
(0.00273332 -1.10406e-05 2.55371e-24)
(0.0027572 -1.84803e-05 -8.86698e-24)
(0.00279009 -3.32734e-05 -1.37885e-24)
(0.00283626 -6.57421e-05 3.817e-24)
(0.00289445 -0.00013772 6.08507e-24)
(0.00293696 -0.000259958 -3.14892e-24)
(0.00407311 9.59359e-06 2.40582e-26)
(0.00402346 7.18925e-06 -1.69787e-25)
(0.00399048 5.29696e-06 7.74809e-25)
(0.00396903 3.55788e-06 8.70404e-25)
(0.0039565 1.66131e-06 -8.28018e-25)
(0.00395131 -6.39052e-07 -4.96741e-24)
(0.00395283 -3.45252e-06 -3.4744e-24)
(0.0039597 -7.17934e-06 1.3123e-23)
(0.00397267 -1.26154e-05 5.62649e-24)
(0.00399187 -2.07457e-05 -8.0022e-24)
(0.00401797 -3.37959e-05 -3.25762e-24)
(0.00405143 -5.6568e-05 -2.51537e-24)
(0.00409129 -9.76793e-05 6.88747e-26)
(0.00412979 -0.000168616 1.87616e-24)
(0.00414653 -0.000265738 9.21103e-27)
(0.00549251 1.79801e-05 -4.39887e-26)
(0.00542691 1.3816e-05 -2.74162e-25)
(0.00538188 1.0531e-05 -1.87417e-25)
(0.00535133 7.51212e-06 4.75338e-25)
(0.00533205 4.25305e-06 -1.42901e-24)
(0.0053219 4.09917e-07 3.58332e-24)
(0.00532008 -4.47417e-06 -6.11567e-25)
(0.00532479 -1.04359e-05 2.27829e-24)
(0.00533619 -1.90263e-05 -1.28113e-23)
(0.00535404 -3.13653e-05 2.46074e-23)
(0.00537774 -4.96282e-05 -2.39484e-23)
(0.00540593 -7.7776e-05 1.27369e-23)
(0.00543491 -0.000120972 -1.19074e-23)
(0.00545632 -0.000182921 1.12965e-23)
(0.00545841 -0.000256451 -4.52314e-24)
(0.00702572 2.98562e-05 5.77823e-26)
(0.00694634 2.34873e-05 2.11546e-25)
(0.00689004 1.84439e-05 -1.13097e-24)
(0.00685034 1.38067e-05 -7.60947e-25)
(0.00682367 8.84478e-06 1.98217e-24)
(0.00680763 3.03066e-06 7.38067e-25)
(0.00680077 -3.99003e-06 -5.84808e-24)
(0.00680158 -1.28335e-05 1.40944e-23)
(0.00680918 -2.47096e-05 -1.85206e-23)
(0.00682258 -4.08728e-05 4.42005e-24)
(0.00684031 -6.30933e-05 1.37627e-23)
(0.00685992 -9.37383e-05 -1.92691e-23)
(0.00687722 -0.000134762 9.67304e-24)
(0.00688597 -0.000185751 1.0042e-23)
(0.00688067 -0.000240473 -7.66459e-24)
(0.00866115 4.52999e-05 4.73844e-26)
(0.00857333 3.64928e-05 -2.84752e-25)
(0.0085088 2.94686e-05 1.0442e-24)
(0.00846156 2.29918e-05 -1.47219e-24)
(0.00842812 1.60878e-05 -5.19394e-24)
(0.00840607 8.10781e-06 8.86987e-24)
(0.00839358 -1.38763e-06 -5.50186e-24)
(0.00838907 -1.30152e-05 1.90351e-23)
(0.0083911 -2.79308e-05 -1.29382e-23)
(0.00839803 -4.71661e-05 -6.14122e-24)
(0.00840781 -7.17576e-05 -1.2275e-23)
(0.00841774 -0.000102573 1.12752e-23)
(0.00842442 -0.000139506 3.19979e-24)
(0.00842404 -0.000180649 2.77477e-24)
(0.0084147 -0.000221662 -2.44662e-24)
(0.0103773 6.3484e-05 -6.75452e-26)
(0.0102904 5.24338e-05 9.37804e-25)
(0.0102237 4.35042e-05 -2.22092e-24)
(0.0101729 3.52047e-05 -1.92119e-24)
(0.0101351 2.63308e-05 6.41753e-25)
(0.0101084 1.61824e-05 1.37931e-24)
(0.0100909 4.27696e-06 5.21794e-24)
(0.0100809 -9.92525e-06 -1.4467e-23)
(0.0100767 -2.72997e-05 -7.95379e-24)
(0.0100764 -4.85297e-05 2.15243e-23)
(0.0100779 -7.39262e-05 -6.81257e-24)
(0.0100788 -0.000103315 2.33436e-23)
(0.0100767 -0.00013567 -1.2336e-23)
(0.0100696 -0.000169003 -3.98027e-24)
(0.0100574 -0.00020059 2.36534e-24)
(0.012143 8.21448e-05 -8.81928e-27)
(0.0120698 6.97164e-05 5.15485e-25)
(0.0120101 5.94523e-05 -7.38764e-25)
(0.0119623 4.97299e-05 1.85175e-24)
(0.0119249 3.92009e-05 -1.126e-23)
(0.0118968 2.71808e-05 1.19563e-23)
(0.0118765 1.32754e-05 -1.93965e-23)
(0.0118624 -2.94441e-06 1.18412e-23)
(0.011853 -2.19418e-05 8.98773e-24)
(0.0118464 -4.40006e-05 1.99077e-23)
(0.0118407 -6.88981e-05 -2.60836e-23)
(0.0118342 -9.59378e-05 -4.93199e-24)
(0.0118256 -0.000123912 2.2035e-24)
(0.0118138 -0.000151282 1.63274e-23)
(0.0117994 -0.000176438 -6.67129e-24)
(0.0139231 9.73212e-05 4.7824e-26)
(0.0138772 8.51962e-05 -2.13188e-25)
(0.013835 7.48084e-05 9.84549e-25)
(0.0137985 6.4558e-05 -3.53526e-24)
(0.013768 5.31136e-05 5.44493e-24)
(0.0137434 3.99219e-05 -7.18704e-24)
(0.0137241 2.47799e-05 1.22189e-23)
(0.013709 7.47812e-06 2.27931e-24)
(0.0136969 -1.21486e-05 -1.72216e-23)
(0.0136863 -3.38859e-05 2.48808e-23)
(0.013676 -5.72733e-05 -2.75798e-23)
(0.0136649 -8.14967e-05 -8.28212e-24)
(0.0136524 -0.000105508 1.45279e-23)
(0.0136378 -0.000128268 4.35836e-24)
(0.0136222 -0.000148862 -1.91189e-24)
(0.0156931 0.000104084 1.91684e-25)
(0.0156824 9.45804e-05 -1.66018e-24)
(0.0156651 8.56791e-05 -2.80202e-24)
(0.0156471 7.62867e-05 6.56726e-24)
(0.0156298 6.5121e-05 3.08497e-24)
(0.015614 5.18455e-05 -1.94138e-23)
(0.0156003 3.65736e-05 5.87267e-24)
(0.0155881 1.93666e-05 4.30896e-24)
(0.0155768 3.35019e-07 -1.9504e-23)
(0.0155658 -2.00352e-05 2.01619e-23)
(0.0155542 -4.11755e-05 -1.65731e-23)
(0.0155416 -6.23473e-05 4.24766e-23)
(0.015528 -8.27675e-05 -2.05994e-23)
(0.0155129 -0.000101788 1.22046e-23)
(0.0154975 -0.000118901 -3.34651e-24)
(0.0174564 0.000100055 -7.78007e-26)
(0.0174752 9.39784e-05 1.13597e-24)
(0.0174827 8.79112e-05 -2.24268e-24)
(0.0174849 8.06957e-05 -1.20542e-24)
(0.0174835 7.1434e-05 1.33776e-23)
(0.0174796 5.95124e-05 -1.79084e-24)
(0.0174744 4.54343e-05 -2.44462e-23)
(0.0174682 2.95625e-05 2.88792e-23)
(0.017461 1.23514e-05 -6.43541e-24)
(0.0174526 -5.73659e-06 -2.29323e-23)
(0.0174429 -2.40596e-05 2.46687e-23)
(0.0174318 -4.20272e-05 1.3531e-23)
(0.0174197 -5.90914e-05 -1.12322e-23)
(0.0174063 -7.4864e-05 -1.9767e-23)
(0.0173927 -8.90641e-05 1.66784e-24)
(0.0192399 8.59946e-05 7.25062e-27)
(0.0192756 8.46415e-05 -1.30091e-24)
(0.0192994 8.18149e-05 6.20156e-24)
(0.019315 7.66955e-05 4.87807e-25)
(0.0193249 6.94506e-05 3.76914e-24)
(0.0193305 5.99488e-05 -1.31335e-23)
(0.0193331 4.82658e-05 1.1491e-23)
(0.0193331 3.48752e-05 2.76832e-24)
(0.0193308 2.03823e-05 2.42912e-23)
(0.0193265 5.32824e-06 -3.72883e-23)
(0.0193203 -9.73972e-06 -1.71089e-23)
(0.0193123 -2.43703e-05 -1.14782e-23)
(0.0193031 -3.81808e-05 2.15285e-23)
(0.0192927 -5.09351e-05 -6.32875e-25)
(0.0192819 -6.24733e-05 2.11172e-24)
(0.0210719 6.74629e-05 -9.15706e-27)
(0.021109 6.93656e-05 1.40004e-24)
(0.0211365 6.92151e-05 -2.04274e-24)
(0.0211568 6.67621e-05 -1.70869e-27)
(0.0211712 6.22846e-05 2.66818e-24)
(0.0211807 5.54094e-05 6.9045e-24)
(0.0211866 4.63023e-05 -2.68505e-23)
(0.0211896 3.56398e-05 2.1387e-24)
(0.0211901 2.40923e-05 1.38068e-23)
(0.0211883 1.21737e-05 -6.49833e-24)
(0.0211846 3.04889e-07 1.77099e-23)
(0.0211792 -1.11553e-05 1.25498e-23)
(0.0211726 -2.19383e-05 -2.27585e-23)
(0.0211648 -3.19036e-05 1.56908e-23)
(0.0211566 -4.09652e-05 -1.30629e-23)
(0.022944 4.91392e-05 -3.04744e-25)
(0.0229744 5.31584e-05 -1.36045e-25)
(0.0229972 5.53811e-05 2.62165e-24)
(0.0230147 5.52351e-05 -1.2798e-23)
(0.0230277 5.29929e-05 1.12316e-23)
(0.0230364 4.85696e-05 -8.19956e-24)
(0.0230419 4.22527e-05 5.86453e-24)
(0.0230447 3.46368e-05 -4.21991e-23)
(0.0230452 2.62182e-05 6.09647e-23)
(0.0230436 1.7385e-05 -3.62173e-23)
(0.0230405 8.4926e-06 3.24373e-23)
(0.0230358 -1.61165e-07 2.73623e-23)
(0.0230303 -8.33319e-06 -4.7873e-23)
(0.0230237 -1.59032e-05 1.56289e-23)
(0.0230169 -2.28169e-05 -6.58765e-25)
(0.0248015 3.27811e-05 -1.05245e-26)
(0.0248245 3.91205e-05 -9.24756e-25)
(0.0248411 4.31606e-05 9.49248e-25)
(0.0248531 4.50946e-05 -3.6941e-25)
(0.0248619 4.5052e-05 4.8599e-24)
(0.0248677 4.28613e-05 -8.27941e-24)
(0.024871 3.90376e-05 7.62709e-24)
(0.024872 3.43003e-05 -2.40717e-23)
(0.0248711 2.88918e-05 5.48055e-23)
(0.0248684 2.30238e-05 -7.02272e-23)
(0.0248645 1.69369e-05 5.76125e-23)
(0.0248596 1.08524e-05 -1.94829e-23)
(0.0248541 5.01584e-06 1.01939e-24)
(0.0248478 -4.29753e-07 4.49753e-24)
(0.0248414 -5.43448e-06 -8.62547e-24)
(0.0265582 1.78028e-05 -8.13649e-25)
(0.0265746 2.69117e-05 4.11484e-25)
(0.0265863 3.34255e-05 1.11251e-24)
(0.0265934 3.72085e-05 -2.62785e-24)
(0.0265983 4.01575e-05 9.00176e-24)
(0.0266011 3.93596e-05 -7.91585e-24)
(0.0266011 3.76765e-05 -5.44976e-24)
(0.0266 3.57906e-05 -1.21912e-23)
(0.0265977 3.3403e-05 6.97595e-24)
(0.0265944 3.05573e-05 3.61705e-23)
(0.02659 2.72533e-05 -2.10157e-23)
(0.0265845 2.35358e-05 1.30252e-23)
(0.0265786 1.97784e-05 -5.47829e-24)
(0.0265723 1.62117e-05 -1.61383e-23)
(0.0265659 1.2878e-05 8.25972e-24)
(0.0280998 5.68477e-06 2.44058e-25)
(0.0281101 1.62119e-05 -2.92765e-25)
(0.0281175 2.50302e-05 1.91396e-24)
(0.0281204 3.22863e-05 -6.6849e-24)
(0.0281226 3.61081e-05 -1.69193e-24)
(0.0281222 4.00984e-05 1.5213e-23)
(0.0281201 4.12915e-05 -9.17025e-24)
(0.0281176 4.12571e-05 -4.89158e-24)
(0.0281141 4.06101e-05 5.08255e-24)
(0.0281098 3.95429e-05 -6.27992e-24)
(0.0281048 3.81798e-05 1.65074e-23)
(0.0280988 3.65568e-05 8.45128e-24)
(0.0280929 3.48845e-05 -3.18353e-23)
(0.0280865 3.31844e-05 2.18739e-23)
(0.0280801 3.15129e-05 -4.4352e-24)
(0.0292617 -2.73422e-06 6.4846e-25)
(0.0292677 9.83685e-06 -4.98271e-26)
(0.0292702 2.05551e-05 -3.92166e-25)
(0.0292708 2.93994e-05 3.39756e-24)
(0.0292702 3.62551e-05 -5.1245e-24)
(0.0292683 4.15033e-05 -8.48044e-24)
(0.0292655 4.53207e-05 -8.079e-24)
(0.0292618 4.78278e-05 2.28218e-23)
(0.0292574 4.94325e-05 2.00548e-23)
(0.0292523 5.04527e-05 -4.78601e-23)
(0.0292468 5.11098e-05 2.6627e-23)
(0.029241 5.15018e-05 -1.7988e-24)
(0.0292351 5.16554e-05 -1.41012e-24)
(0.029229 5.15997e-05 1.86909e-24)
(0.0292227 5.14131e-05 -8.52327e-25)
(0.0298248 -9.29012e-06 -1.45948e-24)
(0.0298284 4.9497e-06 -7.62999e-25)
(0.0298298 1.73523e-05 3.73088e-24)
(0.0298295 2.79834e-05 -3.95001e-24)
(0.0298281 3.67462e-05 1.93414e-24)
(0.0298258 4.38862e-05 4.6919e-24)
(0.0298227 4.96735e-05 -3.5498e-24)
(0.029819 5.43194e-05 -2.11084e-23)
(0.0298149 5.80554e-05 4.62861e-23)
(0.0298104 6.10941e-05 -1.88918e-23)
(0.0298057 6.35999e-05 6.66705e-24)
(0.0298006 6.56597e-05 -1.20703e-23)
(0.0297954 6.73393e-05 -1.16994e-23)
(0.02979 6.87003e-05 1.69122e-23)
(0.0297845 6.98191e-05 -7.16119e-24)
(0.0296247 -1.27501e-05 2.02732e-24)
(0.0296239 2.92423e-06 -3.62062e-24)
(0.0296215 1.66063e-05 1.49381e-24)
(0.0296185 2.85472e-05 -3.65668e-24)
(0.0296149 3.88373e-05 6.70002e-24)
(0.029611 4.76069e-05 -5.62149e-24)
(0.0296067 5.5061e-05 -1.30283e-23)
(0.0296022 6.14104e-05 3.16424e-23)
(0.0295976 6.68172e-05 6.19987e-24)
(0.0295929 7.14218e-05 -1.73981e-23)
(0.0295881 7.5361e-05 -8.41193e-24)
(0.0295831 7.8732e-05 9.20851e-24)
(0.0295781 8.16272e-05 -9.62844e-24)
(0.029573 8.41225e-05 5.3327e-24)
(0.0295679 8.6281e-05 -2.27739e-24)
(0.0286232 -1.03187e-05 1.10737e-24)
(0.0286194 5.65554e-06 -1.88641e-24)
(0.028616 1.97661e-05 4.02414e-25)
(0.028613 3.22325e-05 -1.78995e-24)
(0.02861 4.31069e-05 4.81791e-24)
(0.0286071 5.25608e-05 5.37005e-25)
(0.0286043 6.07548e-05 -1.94224e-24)
(0.0286014 6.78766e-05 -2.51585e-24)
(0.0285986 7.40651e-05 -4.90826e-24)
(0.0285958 7.94226e-05 3.04236e-23)
(0.028593 8.40866e-05 -1.88433e-23)
(0.0285901 8.8156e-05 1.49129e-24)
(0.0285873 9.17024e-05 -2.14059e-23)
(0.0285845 9.47911e-05 1.03053e-23)
(0.0285817 9.74826e-05 3.19996e-24)
(0.0270809 -5.18343e-06 2.50578e-24)
(0.0270748 1.01608e-05 -3.80366e-24)
(0.0270695 2.38835e-05 9.59598e-25)
(0.027065 3.60127e-05 1.15521e-24)
(0.0270609 4.66661e-05 4.42942e-24)
(0.0270574 5.60201e-05 -1.04498e-23)
(0.0270541 6.42232e-05 6.30471e-24)
(0.0270513 7.1404e-05 -3.00528e-24)
(0.0270487 7.77172e-05 2.20811e-24)
(0.0270464 8.32477e-05 1.02421e-23)
(0.0270442 8.80802e-05 -2.18752e-23)
(0.0270423 9.23183e-05 1.60142e-23)
(0.0270406 9.60042e-05 -1.4775e-24)
(0.027039 9.9192e-05 -4.45444e-24)
(0.0270375 0.000101937 6.8123e-25)
(0.0251952 1.48716e-06 9.06749e-25)
(0.0251883 1.57439e-05 -3.36031e-24)
(0.0251827 2.85e-05 3.58131e-24)
(0.0251783 3.98231e-05 -7.68024e-25)
(0.0251748 4.98497e-05 -3.30661e-24)
(0.0251721 5.87166e-05 -2.6855e-26)
(0.02517 6.65482e-05 9.68164e-25)
(0.0251685 7.34591e-05 3.25651e-24)
(0.0251675 7.95475e-05 -1.00766e-23)
(0.0251669 8.48929e-05 -2.87761e-24)
(0.0251666 8.95627e-05 1.37387e-23)
(0.0251668 9.36166e-05 3.53402e-24)
(0.0251671 9.71218e-05 -5.97461e-24)
(0.0251679 0.000100125 1.81082e-24)
(0.0251688 0.000102654 -5.0304e-25)
(0.0231133 8.36168e-06 1.16925e-25)
(0.023107 2.10298e-05 -1.17972e-24)
(0.0231024 3.23955e-05 3.16001e-25)
(0.0230994 4.25317e-05 4.12905e-25)
(0.0230977 5.15525e-05 1.7327e-24)
(0.023097 5.95627e-05 -1.0451e-24)
(0.0230971 6.66584e-05 -4.41933e-25)
(0.023098 7.29231e-05 3.88933e-25)
(0.0230996 7.84317e-05 3.02189e-24)
(0.0231017 8.32502e-05 -1.59245e-23)
(0.0231044 8.7433e-05 1.38438e-23)
(0.0231075 9.10329e-05 1.43154e-24)
(0.023111 9.40987e-05 -1.93058e-24)
(0.0231149 9.66631e-05 -3.10908e-24)
(0.0231192 9.87541e-05 2.58971e-24)
(0.0209454 1.38199e-05 1.72577e-25)
(0.0209411 2.45769e-05 1.02978e-24)
(0.0209389 3.42649e-05 -1.26595e-24)
(0.0209385 4.29321e-05 -2.22935e-26)
(0.0209395 5.06671e-05 -2.64433e-24)
(0.0209418 5.75467e-05 2.00191e-24)
(0.0209451 6.36412e-05 -2.86266e-25)
(0.0209492 6.90138e-05 1.96685e-24)
(0.0209542 7.37209e-05 6.01036e-25)
(0.0209598 7.78114e-05 -1.3247e-25)
(0.020966 8.13264e-05 3.66849e-24)
(0.0209728 8.43022e-05 -1.77367e-24)
(0.02098 8.67717e-05 -4.20272e-25)
(0.0209876 8.87637e-05 -8.13168e-25)
(0.0209957 9.0304e-05 -2.28416e-24)
(0.0187738 1.67836e-05 1.23922e-24)
(0.0187726 2.55347e-05 -1.73325e-24)
(0.0187737 3.34493e-05 -4.37084e-25)
(0.0187766 4.05498e-05 1.10872e-24)
(0.018781 4.68998e-05 -4.39447e-25)
(0.0187868 5.25522e-05 1.24942e-24)
(0.0187936 5.75565e-05 -2.41104e-25)
(0.0188013 6.19558e-05 -2.70431e-24)
(0.0188099 6.5788e-05 6.06186e-24)
(0.0188192 6.90861e-05 -7.61364e-24)
(0.0188291 7.18789e-05 5.28487e-24)
(0.0188395 7.41935e-05 -3.04128e-24)
(0.0188504 7.60563e-05 6.00349e-24)
(0.0188618 7.74912e-05 -6.9611e-24)
(0.0188735 7.85189e-05 2.13026e-24)
(0.0166574 1.70773e-05 -2.44492e-25)
(0.0166597 2.39196e-05 -5.54612e-25)
(0.0166641 3.01396e-05 -8.96633e-25)
(0.0166704 3.57375e-05 2.33888e-24)
(0.0166781 4.07541e-05 -9.68654e-25)
(0.0166871 4.52236e-05 3.0091e-25)
(0.0166971 4.91769e-05 -8.29885e-25)
(0.0167081 5.26407e-05 1.07485e-24)
(0.0167198 5.56385e-05 4.8075e-24)
(0.0167323 5.81924e-05 -4.46441e-24)
(0.0167453 6.03226e-05 -2.24088e-25)
(0.0167589 6.20484e-05 3.65568e-24)
(0.0167728 6.33887e-05 -4.07798e-24)
(0.0167872 6.43599e-05 -5.05229e-25)
(0.0168018 6.49777e-05 5.94985e-25)
(0.0146348 1.5224e-05 9.5986e-25)
(0.0146399 2.03836e-05 8.12535e-25)
(0.0146471 2.51027e-05 -1.30501e-24)
(0.014656 2.93668e-05 -9.39297e-25)
(0.0146662 3.31995e-05 1.14271e-25)
(0.0146775 3.6621e-05 1.14313e-24)
(0.0146899 3.96482e-05 9.47615e-25)
(0.0147031 4.22951e-05 -1.11193e-24)
(0.0147171 4.45753e-05 -7.22538e-25)
(0.0147316 4.65018e-05 3.04562e-24)
(0.0147467 4.80873e-05 1.09606e-24)
(0.0147623 4.93441e-05 -9.66629e-24)
(0.0147781 5.02851e-05 3.84444e-24)
(0.0147943 5.0922e-05 1.43767e-24)
(0.0148105 5.12674e-05 1.30436e-25)
(0.0127282 1.21014e-05 -1.01743e-24)
(0.0127352 1.58643e-05 1.25127e-24)
(0.012744 1.93328e-05 1.20293e-26)
(0.0127543 2.24843e-05 5.52759e-25)
(0.0127657 2.53312e-05 -8.31298e-25)
(0.0127783 2.78838e-05 -3.94015e-25)
(0.0127917 3.01481e-05 -2.76673e-25)
(0.0128059 3.21298e-05 3.7218e-25)
(0.0128207 3.38348e-05 -1.17475e-24)
(0.0128361 3.52698e-05 3.91986e-24)
(0.0128519 3.64419e-05 4.22264e-25)
(0.0128681 3.73587e-05 -9.67802e-25)
(0.0128845 3.80289e-05 -9.84406e-25)
(0.0129011 3.84607e-05 -5.58898e-25)
(0.0129178 3.86639e-05 -3.42203e-25)
(0.0109488 8.59887e-06 7.6778e-25)
(0.0109563 1.1258e-05 -6.48845e-25)
(0.0109655 1.37343e-05 -1.49495e-24)
(0.0109759 1.60012e-05 1.36933e-24)
(0.0109874 1.80653e-05 3.69997e-26)
(0.0109998 1.99296e-05 -8.35373e-25)
(0.011013 2.15933e-05 2.39047e-25)
(0.0110269 2.30565e-05 2.37274e-24)
(0.0110414 2.43205e-05 -2.19272e-24)
(0.0110563 2.5388e-05 -4.01562e-25)
(0.0110716 2.62619e-05 1.00309e-24)
(0.0110872 2.69469e-05 5.51903e-25)
(0.011103 2.74482e-05 -1.0684e-24)
(0.0111188 2.77711e-05 -6.97175e-26)
(0.0111347 2.79228e-05 3.80477e-25)
(0.00930026 5.38998e-06 -4.91098e-25)
(0.00930735 7.2101e-06 -1.68942e-25)
(0.00931577 8.9278e-06 4.37724e-25)
(0.00932527 1.05156e-05 -3.17001e-25)
(0.00933571 1.19779e-05 7.1076e-25)
(0.00934697 1.33127e-05 6.96242e-25)
(0.00935895 1.45153e-05 -2.31753e-24)
(0.00937152 1.55834e-05 1.43766e-24)
(0.00938461 1.65153e-05 -8.5785e-25)
(0.0093981 1.73111e-05 -3.93315e-25)
(0.00941191 1.79715e-05 7.49173e-25)
(0.00942596 1.84986e-05 -7.92774e-25)
(0.00944014 1.88952e-05 1.26757e-24)
(0.0094544 1.91645e-05 2.92898e-25)
(0.00946862 1.93115e-05 -1.74368e-25)
(0.00778221 2.85367e-06 -2.41895e-25)
(0.00778806 4.0552e-06 9.98482e-26)
(0.00779501 5.20964e-06 1.19258e-25)
(0.00780289 6.28989e-06 -2.00276e-25)
(0.00781157 7.29946e-06 1.57705e-25)
(0.00782098 8.23357e-06 -2.30216e-25)
(0.00783102 9.08643e-06 2.92675e-25)
(0.00784161 9.85437e-06 -2.07862e-25)
(0.00785265 1.05346e-05 1.65569e-25)
(0.00786406 1.11259e-05 4.02238e-25)
(0.00787577 1.16273e-05 3.00741e-25)
(0.0078877 1.20394e-05 -1.30338e-24)
(0.00789975 1.23634e-05 -8.07449e-25)
(0.00791189 1.26012e-05 1.19065e-24)
(0.007924 1.27558e-05 2.86042e-25)
(0.00639137 1.10678e-06 -8.89534e-26)
(0.0063956 1.86434e-06 -5.70814e-27)
(0.00640075 2.61142e-06 -8.20938e-25)
(0.00640665 3.3209e-06 5.00357e-25)
(0.00641326 3.99559e-06 1.99315e-25)
(0.00642049 4.62994e-06 5.1786e-25)
(0.00642827 5.21832e-06 -1.83129e-25)
(0.00643655 5.75708e-06 -8.38476e-25)
(0.00644524 6.24319e-06 1.55656e-24)
(0.00645429 6.67473e-06 -4.87786e-25)
(0.00646361 7.05024e-06 -8.56137e-25)
(0.00647316 7.36953e-06 1.74044e-24)
(0.00648286 7.63256e-06 -9.60849e-25)
(0.00649266 7.84057e-06 2.73389e-25)
(0.00650247 7.99515e-06 -5.30682e-25)
(0.00512269 8.58301e-08 -3.51388e-25)
(0.00512526 5.34078e-07 -3.20144e-25)
(0.00512857 9.94292e-07 1.23386e-25)
(0.0051325 1.4396e-06 6.6322e-25)
(0.00513701 1.87099e-06 -1.69897e-25)
(0.00514205 2.28372e-06 1.93453e-25)
(0.00514758 2.67316e-06 -4.01354e-25)
(0.00515354 3.03626e-06 -2.28408e-25)
(0.00515988 3.37038e-06 8.63416e-26)
(0.00516655 3.67362e-06 1.70306e-24)
(0.0051735 3.94445e-06 2.05802e-25)
(0.00518068 4.18236e-06 -1.92294e-24)
(0.00518803 4.38679e-06 2.73762e-25)
(0.00519551 4.5585e-06 6.25269e-25)
(0.00520305 4.69831e-06 -4.6293e-25)
(0.0039698 -3.66111e-07 -7.62051e-26)
(0.0039709 -1.28497e-07 1.81928e-26)
(0.00397262 1.35492e-07 3.66438e-25)
(0.0039748 3.98802e-07 3.7366e-26)
(0.00397746 6.57775e-07 -2.59287e-25)
(0.00398054 9.09762e-07 -8.82694e-26)
(0.00398404 1.1517e-06 -1.13647e-25)
(0.00398791 1.38148e-06 8.2929e-25)
(0.00399212 1.59703e-06 -7.03225e-25)
(0.00399664 1.79682e-06 -7.99909e-25)
(0.00400142 1.97959e-06 -3.02774e-25)
(0.00400642 2.14483e-06 1.28051e-24)
(0.00401162 2.2918e-06 -3.54684e-25)
(0.00401696 2.42107e-06 4.01023e-25)
(0.00402242 2.53337e-06 -2.37163e-25)
(0.00292542 -4.46756e-07 -1.41276e-25)
(0.0029255 -3.3734e-07 2.83221e-26)
(0.00292596 -2.0572e-07 3.09428e-25)
(0.0029268 -6.52703e-08 -1.86079e-25)
(0.00292799 7.54317e-08 1.78012e-25)
(0.00292952 2.14405e-07 -8.17601e-26)
(0.00293137 3.50294e-07 -4.68497e-25)
(0.00293353 4.81992e-07 8.77164e-25)
(0.00293598 6.08162e-07 -1.0315e-24)
(0.00293869 7.27503e-07 9.93738e-25)
(0.00294163 8.39144e-07 -3.94688e-25)
(0.00294479 9.4267e-07 -8.37469e-26)
(0.00294814 1.0373e-06 -2.61144e-25)
(0.00295165 1.12349e-06 3.55142e-25)
(0.00295528 1.20238e-06 -9.77893e-26)
(0.00198184 -3.30798e-07 2.18639e-25)
(0.00198131 -3.00312e-07 1.53054e-25)
(0.00198102 -2.48261e-07 -7.10405e-25)
(0.00198098 -1.88227e-07 4.10684e-25)
(0.00198117 -1.24889e-07 -4.49076e-26)
(0.00198161 -5.93938e-08 -6.75804e-26)
(0.0019823 5.41293e-09 -1.82839e-26)
(0.00198321 6.89126e-08 3.27059e-25)
(0.00198434 1.32265e-07 -4.32053e-25)
(0.00198568 1.93747e-07 -1.60653e-25)
(0.00198721 2.52648e-07 8.15195e-25)
(0.00198892 3.08687e-07 -2.78363e-25)
(0.00199079 3.61432e-07 -3.0595e-25)
(0.00199281 4.10851e-07 2.54197e-26)
(0.00199496 4.5795e-07 6.57048e-26)
(0.00113114 -1.49881e-07 -2.21549e-25)
(0.00113044 -1.43138e-07 5.95484e-25)
(0.00112987 -1.30555e-07 1.63316e-25)
(0.00112943 -1.10467e-07 -4.8326e-25)
(0.00112915 -8.90024e-08 -4.69318e-26)
(0.00112901 -6.72226e-08 -6.34584e-27)
(0.00112901 -4.6528e-08 -8.37935e-26)
(0.00112916 -2.67377e-08 2.20908e-25)
(0.00112946 -6.26038e-09 -5.52307e-25)
(0.00112989 1.39485e-08 2.62886e-25)
(0.00113045 3.36814e-08 3.4846e-25)
(0.00113113 5.29232e-08 -2.66079e-25)
(0.00113193 7.26861e-08 5.46199e-25)
(0.00113284 9.24492e-08 -6.20702e-25)
(0.00113385 1.10534e-07 1.42418e-25)
(0.000365445 2.96528e-09 -1.59399e-27)
(0.000364996 6.51442e-08 1.09361e-25)
(0.000364595 1.04461e-07 7.01959e-26)
(0.000364241 1.30192e-07 -1.59324e-25)
(0.000363944 1.42415e-07 7.93958e-26)
(0.000363703 1.44194e-07 -9.84808e-26)
(0.000363517 1.38444e-07 -1.46696e-26)
(0.000363387 1.27309e-07 -2.33923e-25)
(0.000363313 1.12742e-07 3.35943e-25)
(0.000363293 9.62784e-08 1.65692e-25)
(0.000363325 7.90245e-08 -5.72707e-25)
(0.000363408 6.18413e-08 2.89184e-25)
(0.00036354 4.61113e-08 2.04057e-25)
(0.000363719 3.2048e-08 -1.85042e-25)
(0.000363942 1.80425e-08 1.18432e-26)
(0.00101601 -0.000276457 9.98389e-26)
(0.00116191 -0.000200198 2.61008e-24)
(0.00140584 -0.000124255 -7.58439e-24)
(0.00165397 -6.73363e-05 1.11932e-23)
(0.00188966 -2.72539e-05 -4.19925e-24)
(0.00211798 -2.89657e-06 -4.16007e-24)
(0.00233875 9.05099e-06 4.77324e-24)
(0.00255256 1.15762e-05 -9.49758e-24)
(0.00276028 7.19825e-06 6.21734e-25)
(0.00296283 -1.90089e-06 5.96861e-24)
(0.00316112 -1.38575e-05 -1.11929e-24)
(0.00335597 -2.70622e-05 1.18468e-24)
(0.00354813 -4.0039e-05 -1.28828e-25)
(0.00373826 -5.12635e-05 6.6268e-25)
(0.00392724 -5.90204e-05 -2.41857e-24)
(0.00411623 -6.12292e-05 1.29964e-24)
(0.00430743 -5.53676e-05 -3.57978e-25)
(0.00450388 -3.84446e-05 4.42632e-26)
(0.00471136 -7.40645e-06 7.65772e-25)
(0.00493618 4.10404e-05 -4.71895e-25)
(0.00518873 0.000106766 5.88963e-26)
(0.00547651 0.000188676 -5.27912e-26)
(0.00577857 0.000269469 1.17326e-25)
(0.00605611 0.000325983 5.19936e-25)
(0.0062936 0.000351345 -9.32686e-25)
(0.00648897 0.000344233 -7.81427e-25)
(0.00664292 0.000303951 -9.40371e-26)
(0.00675666 0.000230913 2.15472e-24)
(0.00683003 0.000126907 3.69057e-24)
(0.00686148 -4.39044e-06 -7.32944e-24)
(0.00684861 -0.000157098 7.68857e-24)
(0.00678908 -0.000323094 -8.0245e-24)
(0.0066813 -0.000492588 2.54059e-24)
(0.00652488 -0.00065474 1.86295e-24)
(0.00632066 -0.000798289 -1.94861e-24)
(0.00607052 -0.000911915 -2.93556e-25)
(0.00577699 -0.000984198 1.76689e-24)
(0.00544293 -0.00100298 2.09017e-24)
(0.00507146 -0.000953771 1.83636e-24)
(0.00466665 -0.000817202 -6.42335e-24)
(0.00423394 -0.000567545 -9.51062e-26)
(0.00378303 -0.000178538 3.90682e-24)
(0.00331268 0.000347399 1.72714e-24)
(0.00285242 0.000938091 -5.94066e-24)
(0.0025995 0.00129897 -3.30155e-25)
(0.0019082 -0.000364915 -2.96661e-24)
(0.00196809 -0.000325699 -4.27484e-24)
(0.00211551 -0.000252627 8.89039e-24)
(0.00230142 -0.00018699 4.28685e-24)
(0.00249697 -0.000134796 -1.5005e-23)
(0.0026967 -9.8135e-05 1.61884e-23)
(0.0028959 -7.4925e-05 -5.82673e-24)
(0.00309239 -6.23754e-05 4.70503e-24)
(0.00328544 -5.7963e-05 -6.21082e-24)
(0.00347499 -5.93938e-05 7.71766e-26)
(0.00366134 -6.46572e-05 -3.19382e-24)
(0.00384491 -7.20007e-05 6.28226e-24)
(0.00402615 -7.98255e-05 -3.39788e-24)
(0.00420554 -8.65246e-05 -2.82668e-24)
(0.00438381 -9.03369e-05 -1.64843e-24)
(0.00456193 -8.91927e-05 3.50392e-24)
(0.00474191 -8.06112e-05 -3.17157e-25)
(0.00492652 -6.17076e-05 1.56035e-24)
(0.00512129 -2.94993e-05 2.03824e-25)
(0.00533218 1.92233e-05 -4.27827e-25)
(0.00556963 8.44121e-05 -1.74558e-25)
(0.00584141 0.000165415 -1.18126e-25)
(0.00612922 0.000245605 6.24477e-25)
(0.00639691 0.000302501 9.25499e-25)
(0.00662915 0.000329438 -6.84021e-25)
(0.00682297 0.000325039 -4.46548e-24)
(0.00697813 0.000288575 6.4031e-24)
(0.00709505 0.00022061 -4.93082e-24)
(0.00717308 0.000123206 1.70635e-24)
(0.0072104 3.37552e-07 -1.43968e-24)
(0.00720465 -0.000142111 1.15383e-23)
(0.00715372 -0.000295854 -1.72519e-23)
(0.00705636 -0.000451252 1.12527e-23)
(0.00691262 -0.000597661 -1.25003e-23)
(0.00672397 -0.000724034 1.18752e-23)
(0.00649311 -0.000819235 -2.57995e-24)
(0.0062238 -0.000871989 2.57013e-24)
(0.00592076 -0.000870326 6.93847e-25)
(0.00559001 -0.000800321 -4.8541e-24)
(0.00524034 -0.000643956 -4.5096e-24)
(0.00488559 -0.000377895 1.03705e-23)
(0.00455063 2.13419e-05 -1.12911e-23)
(0.00426637 0.00054762 -3.52859e-24)
(0.00408529 0.00111445 8.06722e-24)
(0.00407786 0.00139455 3.0808e-24)
(0.00295527 -0.000372581 -3.50526e-26)
(0.00296346 -0.000376995 -4.96402e-24)
(0.00302236 -0.000337621 9.42545e-24)
(0.00313606 -0.000282686 8.23781e-24)
(0.0032762 -0.000230221 -1.33577e-23)
(0.00343298 -0.000187866 2.65036e-25)
(0.00359841 -0.000156955 1.31948e-24)
(0.00376749 -0.000136273 1.44335e-23)
(0.00393746 -0.000124048 -1.70809e-23)
(0.00410692 -0.000118286 1.04084e-23)
(0.00427524 -0.00011705 2.96737e-24)
(0.00444215 -0.000118572 -1.67509e-23)
(0.0046077 -0.000121206 6.02092e-24)
(0.00477202 -0.000123301 2.25796e-24)
(0.00493558 -0.000123077 -4.39529e-24)
(0.0050991 -0.000118492 6.82241e-24)
(0.00526434 -0.000107121 -4.58529e-24)
(0.00543373 -8.61966e-05 -7.24863e-27)
(0.00561249 -5.28294e-05 3.52287e-25)
(0.00580618 -3.89476e-06 3.29001e-25)
(0.00602516 6.06191e-05 3.35354e-26)
(0.00627753 0.000140511 1.87394e-25)
(0.00654785 0.000219854 -6.42841e-25)
(0.00680304 0.000276877 2.03144e-24)
(0.007028 0.000305179 -3.54415e-24)
(0.0072188 0.000303357 2.10209e-24)
(0.00737412 0.000270641 -6.01044e-24)
(0.00749355 0.000207744 8.17028e-24)
(0.00757586 0.000116993 -8.9141e-24)
(0.00761898 2.55205e-06 -5.49571e-25)
(0.00762058 -0.000129357 -1.43322e-24)
(0.00757875 -0.000270616 2.00069e-23)
(0.00749262 -0.000411659 -6.96676e-24)
(0.00736278 -0.000542072 -6.25097e-24)
(0.00719134 -0.000651113 8.71806e-24)
(0.00698192 -0.000728006 -4.54233e-24)
(0.00673959 -0.000761951 6.26126e-25)
(0.00647098 -0.000741761 6.86338e-24)
(0.00618499 -0.00065512 -1.54894e-23)
(0.00589458 -0.000487441 6.44806e-24)
(0.00561978 -0.000221986 2.85979e-24)
(0.00539301 0.000154304 5.54783e-24)
(0.00525505 0.00062372 -6.93548e-24)
(0.00524353 0.00109287 2.31859e-24)
(0.00535976 0.0013055 -1.47804e-24)
(0.00413517 -0.000353254 -1.26836e-24)
(0.00411335 -0.000384552 -1.9633e-24)
(0.0041203 -0.000374184 -8.39723e-24)
(0.00416455 -0.000343827 2.16232e-24)
(0.00424512 -0.000302286 1.46295e-24)
(0.00435003 -0.000262774 6.9025e-24)
(0.00447156 -0.000229874 -1.47347e-23)
(0.00460349 -0.000204749 5.59589e-24)
(0.00474154 -0.000187036 1.87527e-23)
(0.00488302 -0.000175521 -5.03726e-24)
(0.00502625 -0.000168671 -4.63296e-24)
(0.00517019 -0.000164907 -7.16467e-25)
(0.0053143 -0.000162665 2.23418e-24)
(0.00545829 -0.000160333 -4.24453e-24)
(0.00560227 -0.000156169 1.0237e-24)
(0.00574666 -0.000148193 -2.45204e-25)
(0.0058929 -0.000134065 -1.60931e-24)
(0.00604303 -0.000111163 7.52461e-25)
(0.00620187 -7.67145e-05 2.69177e-24)
(0.00637452 -2.77033e-05 -3.14668e-25)
(0.0065712 3.59081e-05 -5.79549e-25)
(0.00680021 0.000114372 -1.76231e-25)
(0.00704927 0.000192494 -1.13461e-24)
(0.00728876 0.000249271 -2.29573e-25)
(0.00750391 0.00027864 -3.47395e-24)
(0.0076897 0.000279217 5.62846e-24)
(0.00784368 0.000250173 -5.9988e-24)
(0.00796453 0.000192365 1.19869e-23)
(0.00805041 0.000108381 -1.15476e-23)
(0.00809895 2.60796e-06 2.25701e-24)
(0.00810785 -0.000118566 5.90704e-24)
(0.00807541 -0.000247089 4.52559e-26)
(0.0080012 -0.000373574 -1.81503e-25)
(0.00788633 -0.00048794 8.66033e-25)
(0.00773362 -0.000579908 -2.42635e-24)
(0.00754759 -0.000639328 5.13687e-25)
(0.00733454 -0.00065629 2.79798e-24)
(0.00710282 -0.000621038 -9.73411e-25)
(0.00686351 -0.000523829 8.49619e-25)
(0.00663207 -0.000354907 -1.72126e-23)
(0.00643049 -0.000105949 1.36332e-23)
(0.00628995 0.000224381 -6.25655e-24)
(0.00624549 0.000611503 9.99822e-25)
(0.00631631 0.000978565 8.74745e-24)
(0.00648245 0.00117313 -2.3392e-24)
(0.0054386 -0.000324044 -5.25076e-24)
(0.00540598 -0.000365296 1.07651e-23)
(0.00538282 -0.000375742 3.08395e-24)
(0.00538421 -0.000366373 1.32155e-23)