/*--------------------------------*- C++ -*----------------------------------*\
| =========                 |                                                 |
| \\      /  F ield         | OpenFOAM: The Open Source CFD Toolbox           |
|  \\    /   O peration     | Version:  2312                                  |
|   \\  /    A nd           | Website:  www.openfoam.com                      |
|    \\/     M anipulation  |                                                 |
\*---------------------------------------------------------------------------*/
FoamFile
{
    version     2.0;
    format      ascii;
    arch        "LSB;label=32;scalar=64";
    class       volScalarField;
    location    "69.5";
    object      p;
}
// * * * * * * * * * * * * * * * * * * * * * * * * * * * * * * * * * * * * * //

dimensions      [0 2 -2 0 0 0 0];

internalField   nonuniform List<scalar> 
4800
(
-6.58573e-13
-9.63746e-07
-1.77805e-06
-2.48009e-06
-3.1149e-06
-3.68504e-06
-4.1984e-06
-4.66473e-06
-5.09123e-06
-5.4828e-06
-5.84327e-06
-6.17267e-06
-6.46188e-06
-6.95377e-06
-8.62329e-06
9.89155e-09
-9.53306e-07
-1.76706e-06
-2.46887e-06
-3.10399e-06
-3.67516e-06
-4.19036e-06
-4.65982e-06
-5.09161e-06
-5.49255e-06
-5.87127e-06
-6.24136e-06
-6.61465e-06
-7.09841e-06
-7.93655e-06
2.02853e-08
-9.421e-07
-1.75535e-06
-2.45645e-06
-3.09096e-06
-3.6627e-06
-4.17914e-06
-4.65094e-06
-5.08674e-06
-5.49413e-06
-5.88285e-06
-6.26675e-06
-6.6517e-06
-7.04138e-06
-7.40452e-06
3.09456e-08
-9.29928e-07
-1.74194e-06
-2.4422e-06
-3.07484e-06
-3.64659e-06
-4.16335e-06
-4.6357e-06
-5.07239e-06
-5.48012e-06
-5.86569e-06
-6.23379e-06
-6.57345e-06
-6.84856e-06
-6.98273e-06
4.31186e-08
-9.15406e-07
-1.72521e-06
-2.42484e-06
-3.05343e-06
-3.62408e-06
-4.13989e-06
-4.61028e-06
-5.04346e-06
-5.4437e-06
-5.8126e-06
-6.14473e-06
-6.41786e-06
-6.58959e-06
-6.6011e-06
5.83601e-08
-8.96926e-07
-1.70336e-06
-2.40208e-06
-3.02492e-06
-3.59213e-06
-4.10471e-06
-4.56958e-06
-4.99335e-06
-5.3771e-06
-5.71695e-06
-6.00086e-06
-6.20475e-06
-6.29632e-06
-6.24561e-06
7.92109e-08
-8.71991e-07
-1.67387e-06
-2.3695e-06
-2.9867e-06
-3.54729e-06
-4.05267e-06
-4.50715e-06
-4.91459e-06
-5.2729e-06
-5.5745e-06
-5.80575e-06
-5.94787e-06
-5.9838e-06
-5.90565e-06
1.09919e-07
-8.36571e-07
-1.63273e-06
-2.32267e-06
-2.93342e-06
-3.48407e-06
-3.97734e-06
-4.41554e-06
-4.79956e-06
-5.12523e-06
-5.38409e-06
-5.56522e-06
-5.65818e-06
-5.65893e-06
-5.57177e-06
1.56839e-07
-7.84718e-07
-1.57404e-06
-2.2563e-06
-2.85769e-06
-3.39469e-06
-3.87076e-06
-4.28671e-06
-4.64139e-06
-4.93026e-06
-5.14674e-06
-5.28494e-06
-5.34231e-06
-5.32317e-06
-5.23687e-06
2.28338e-07
-7.08529e-07
-1.48994e-06
-2.16243e-06
-2.7511e-06
-3.27048e-06
-3.7244e-06
-4.11301e-06
-4.43463e-06
-4.68613e-06
-4.86444e-06
-4.96895e-06
-5.00281e-06
-4.97458e-06
-4.89468e-06
3.34169e-07
-5.98536e-07
-1.37114e-06
-2.03148e-06
-2.60424e-06
-3.10231e-06
-3.53004e-06
-3.88809e-06
-4.17582e-06
-4.39268e-06
-4.53941e-06
-4.61962e-06
-4.63975e-06
-4.60977e-06
-4.53941e-06
4.84892e-07
-4.44157e-07
-1.20723e-06
-1.85336e-06
-2.40741e-06
-2.88146e-06
-3.28083e-06
-3.60772e-06
-3.86367e-06
-4.05104e-06
-4.17381e-06
-4.23822e-06
-4.25215e-06
-4.22538e-06
-4.16633e-06
6.92226e-07
-2.33665e-07
-9.8633e-07
-1.6175e-06
-2.15117e-06
-2.60025e-06
-2.97162e-06
-3.26969e-06
-3.49852e-06
-3.6631e-06
-3.76958e-06
-3.82553e-06
-3.83904e-06
-3.81896e-06
-3.77233e-06
9.69981e-07
4.63732e-08
-6.96878e-07
-1.3124e-06
-1.82587e-06
-2.25158e-06
-2.59828e-06
-2.87266e-06
-3.08107e-06
-3.23039e-06
-3.32798e-06
-3.38179e-06
-3.39952e-06
-3.38889e-06
-3.3557e-06
1.33449e-06
4.11335e-07
-3.24073e-07
-9.25569e-07
-1.42161e-06
-1.82836e-06
-2.15649e-06
-2.41464e-06
-2.61081e-06
-2.75299e-06
-2.84899e-06
-2.90656e-06
-2.93271e-06
-2.93416e-06
-2.91578e-06
1.80388e-06
8.78349e-07
1.4738e-07
-4.44458e-07
-9.28665e-07
-1.3236e-06
-1.64169e-06
-1.89287e-06
-2.08604e-06
-2.22964e-06
-2.33153e-06
-2.39901e-06
-2.43836e-06
-2.45533e-06
-2.45409e-06
2.39215e-06
1.46301e-06
7.31359e-07
1.41904e-07
-3.39012e-07
-7.31842e-07
-1.05041e-06
-1.30532e-06
-1.50568e-06
-1.65991e-06
-1.7756e-06
-1.85963e-06
-1.91778e-06
-1.95506e-06
-1.97508e-06
3.10544e-06
2.17322e-06
1.43559e-06
8.39482e-07
3.50856e-07
-5.18036e-08
-3.82902e-07
-6.53287e-07
-8.72029e-07
-1.04717e-06
-1.18584e-06
-1.29434e-06
-1.37801e-06
-1.4414e-06
-1.48787e-06
3.9405e-06
3.00807e-06
2.25922e-06
1.6467e-06
1.13854e-06
7.13315e-07
3.56772e-07
5.84059e-08
-1.90436e-07
-3.97411e-07
-5.69208e-07
-7.11534e-07
-8.29485e-07
-9.27174e-07
-1.00737e-06
4.87815e-06
3.95173e-06
3.189e-06
2.552e-06
2.01361e-06
1.55424e-06
1.16022e-06
8.21822e-07
5.3102e-07
2.80727e-07
6.48528e-08
-1.21946e-07
-2.84261e-07
-4.26037e-07
-5.50478e-07
5.79859e-06
4.88106e-06
4.10391e-06
3.43864e-06
2.86392e-06
2.36342e-06
1.92497e-06
1.53963e-06
1.20014e-06
9.0003e-07
6.33453e-07
3.95571e-07
1.82484e-07
-8.97802e-09
-1.81535e-07
6.56083e-06
5.65661e-06
4.87192e-06
4.18519e-06
3.58004e-06
3.04336e-06
2.5648e-06
2.13645e-06
1.75176e-06
1.40489e-06
1.09073e-06
8.05106e-07
5.44534e-07
3.05996e-07
8.6696e-08
7.12651e-06
6.24183e-06
5.45795e-06
4.75936e-06
4.13357e-06
3.57007e-06
3.06032e-06
2.59746e-06
2.17565e-06
1.78971e-06
1.43513e-06
1.10821e-06
8.05875e-07
5.25623e-07
2.65248e-07
7.53533e-06
6.67332e-06
5.89705e-06
5.19492e-06
4.55722e-06
3.97555e-06
3.44296e-06
2.95355e-06
2.5022e-06
2.08447e-06
1.69664e-06
1.33572e-06
9.99287e-07
6.85295e-07
3.91846e-07
7.82202e-06
6.98536e-06
6.22176e-06
5.52227e-06
4.87947e-06
4.28676e-06
3.7384e-06
3.22943e-06
2.75554e-06
2.31321e-06
1.8995e-06
1.51203e-06
1.14873e-06
8.07809e-07
4.87594e-07
8.01999e-06
7.20962e-06
6.46132e-06
5.76829e-06
5.1251e-06
4.52654e-06
3.96785e-06
3.44497e-06
2.95451e-06
2.4937e-06
2.06019e-06
1.65203e-06
1.26748e-06
9.05093e-07
5.63496e-07
8.15515e-06
7.37026e-06
6.63809e-06
5.95377e-06
5.31332e-06
4.71249e-06
4.14744e-06
3.61499e-06
3.11252e-06
2.63787e-06
2.18919e-06
1.76492e-06
1.36372e-06
9.84469e-07
6.26101e-07
8.24644e-06
7.4854e-06
6.76929e-06
6.09474e-06
5.45871e-06
4.85779e-06
4.28902e-06
3.75e-06
3.23877e-06
2.75367e-06
2.29331e-06
1.85652e-06
1.44229e-06
1.04979e-06
6.78222e-07
8.30762e-06
7.56837e-06
6.86744e-06
6.20267e-06
5.5717e-06
4.97189e-06
4.40108e-06
3.85753e-06
3.33981e-06
2.84672e-06
2.37726e-06
1.93061e-06
1.50604e-06
1.10301e-06
7.20911e-07
8.34826e-06
7.62845e-06
6.9414e-06
6.28586e-06
5.66e-06
5.06189e-06
4.49004e-06
3.94327e-06
3.4206e-06
2.92123e-06
2.44452e-06
1.98994e-06
1.55702e-06
1.14546e-06
7.54842e-07
8.37489e-06
7.67221e-06
6.99764e-06
6.3505e-06
5.72945e-06
5.1332e-06
4.56084e-06
4.01164e-06
3.48504e-06
2.98059e-06
2.49794e-06
2.03683e-06
1.59704e-06
1.17844e-06
7.80824e-07
8.3921e-06
7.70443e-06
7.04089e-06
6.4012e-06
5.78446e-06
5.19e-06
4.61736e-06
4.06622e-06
3.53636e-06
3.02765e-06
2.54e-06
2.0734e-06
1.62782e-06
1.20333e-06
7.99856e-07
8.40307e-06
7.72851e-06
7.07461e-06
6.44139e-06
5.82843e-06
5.23555e-06
4.6627e-06
4.10989e-06
3.57723e-06
3.06484e-06
2.57289e-06
2.10156e-06
1.65103e-06
1.22149e-06
8.13037e-07
8.41001e-06
7.74685e-06
7.10132e-06
6.47367e-06
5.86396e-06
5.27241e-06
4.69932e-06
4.14501e-06
3.60984e-06
3.09421e-06
2.59847e-06
2.12301e-06
1.66814e-06
1.23423e-06
8.21468e-07
8.41439e-06
7.76115e-06
7.12284e-06
6.49997e-06
5.89301e-06
5.30253e-06
4.72913e-06
4.17341e-06
3.63598e-06
3.11742e-06
2.6183e-06
2.13915e-06
1.68047e-06
1.2427e-06
8.26169e-07
8.41719e-06
7.77256e-06
7.14046e-06
6.52167e-06
5.91702e-06
5.32738e-06
4.7536e-06
4.19654e-06
3.65701e-06
3.13579e-06
2.63362e-06
2.15119e-06
1.68909e-06
1.24791e-06
8.28043e-07
8.41903e-06
7.78186e-06
7.15508e-06
6.53975e-06
5.93702e-06
5.348e-06
4.7738e-06
4.21545e-06
3.67399e-06
3.15035e-06
2.64543e-06
2.16004e-06
1.6949e-06
1.25067e-06
8.27853e-07
8.4203e-06
7.78966e-06
7.16747e-06
6.55511e-06
5.95396e-06
5.3654e-06
4.79072e-06
4.23115e-06
3.68789e-06
3.16203e-06
2.65459e-06
2.1665e-06
1.69859e-06
1.25161e-06
8.26133e-07
8.42126e-06
7.79665e-06
7.17865e-06
6.56896e-06
5.96921e-06
5.38098e-06
4.80575e-06
4.24496e-06
3.69993e-06
3.1719e-06
2.66202e-06
2.17133e-06
1.70075e-06
1.25112e-06
8.23105e-07
8.42198e-06
7.80287e-06
7.18877e-06
6.58156e-06
5.98306e-06
5.39504e-06
4.8192e-06
4.25713e-06
3.71033e-06
3.1802e-06
2.66798e-06
2.17486e-06
1.70183e-06
1.24979e-06
8.19421e-07
-9.89517e-06
-7.45446e-06
-5.97513e-06
-4.9916e-06
-4.21654e-06
-3.63199e-06
-3.1863e-06
-2.84231e-06
-2.5729e-06
-2.35502e-06
-2.16832e-06
-1.99394e-06
-1.81371e-06
-1.61039e-06
-1.36751e-06
-1.07189e-06
-7.16138e-07
-3.06855e-07
1.31665e-07
5.41568e-07
8.35206e-07
9.02042e-07
6.7194e-07
2.78271e-07
-1.05268e-07
-3.73276e-07
-4.61933e-07
-3.3372e-07
3.61617e-08
6.62218e-07
1.55613e-06
2.7215e-06
4.13837e-06
5.78314e-06
7.61541e-06
9.58317e-06
1.16244e-05
1.36681e-05
1.56312e-05
1.7411e-05
1.88711e-05
1.98161e-05
1.98378e-05
1.85486e-05
1.45739e-05
-8.2264e-06
-6.92739e-06
-5.79418e-06
-4.91254e-06
-4.18294e-06
-3.61302e-06
-3.1721e-06
-2.82966e-06
-2.56088e-06
-2.3435e-06
-2.15736e-06
-1.9835e-06
-1.80369e-06
-1.60065e-06
-1.35805e-06
-1.06267e-06
-7.07522e-07
-2.99125e-07
1.38627e-07
5.48779e-07
8.45547e-07
9.20621e-07
7.03793e-07
3.24797e-07
-4.60593e-08
-3.0497e-07
-3.88532e-07
-2.59046e-07
1.08383e-07
7.27077e-07
1.60777e-06
2.75294e-06
4.13902e-06
5.74022e-06
7.51296e-06
9.40077e-06
1.13353e-05
1.32357e-05
1.50037e-05
1.65083e-05
1.75604e-05
1.78587e-05
1.68301e-05
1.36818e-05
7.37523e-06
-7.35645e-06
-6.52414e-06
-5.60782e-06
-4.8195e-06
-4.14037e-06
-3.59074e-06
-3.15735e-06
-2.81748e-06
-2.54935e-06
-2.33207e-06
-2.14593e-06
-1.97201e-06
-1.79207e-06
-1.58887e-06
-1.34625e-06
-1.05085e-06
-6.963e-07
-2.89047e-07
1.47464e-07
5.57305e-07
8.5685e-07
9.40436e-07
7.37982e-07
3.75275e-07
1.86787e-08
-2.29931e-07
-3.07792e-07
-1.77157e-07
1.86761e-07
7.95791e-07
1.65934e-06
2.77867e-06
4.1255e-06
5.67127e-06
7.36844e-06
9.15502e-06
1.09551e-05
1.26767e-05
1.42048e-05
1.53885e-05
1.60052e-05
1.57264e-05
1.40418e-05
1.0456e-05
4.83089e-06
-6.81101e-06
-6.19849e-06
-5.45116e-06
-4.73695e-06
-4.10583e-06
-3.57722e-06
-3.15107e-06
-2.81251e-06
-2.54328e-06
-2.3243e-06
-2.13656e-06
-1.96127e-06
-1.78018e-06
-1.57607e-06
-1.33287e-06
-1.03732e-06
-6.83395e-07
-2.77524e-07
1.57376e-07
5.6652e-07
8.68645e-07
9.61045e-07
7.73955e-07
4.28954e-07
8.81742e-08
-1.48659e-07
-2.19617e-07
-8.7075e-08
2.73449e-07
8.71922e-07
1.71562e-06
2.80503e-06
4.10524e-06
5.58448e-06
7.19047e-06
8.85492e-06
1.0494e-05
1.20057e-05
1.32631e-05
1.4104e-05
1.43104e-05
1.36005e-05
1.16363e-05
8.19496e-06
3.52223e-06
-6.39051e-06
-5.91378e-06
-5.29992e-06
-4.67139e-06
-4.08421e-06
-3.57645e-06
-3.15676e-06
-2.8175e-06
-2.54449e-06
-2.32106e-06
-2.12926e-06
-1.95054e-06
-1.76673e-06
-1.56059e-06
-1.31609e-06
-1.02029e-06
-6.67258e-07
-2.63413e-07
1.68981e-07
5.76505e-07
8.8059e-07
9.81949e-07
8.11345e-07
4.85661e-07
1.62293e-07
-6.14759e-08
-1.24825e-07
9.46277e-09
3.65495e-07
9.50075e-07
1.76967e-06
2.82239e-06
4.06598e-06
5.46531e-06
6.96314e-06
8.48508e-06
9.9406e-06
1.1221e-05
1.21958e-05
1.27078e-05
1.25709e-05
1.15846e-05
9.576e-06
6.51706e-06
2.70248e-06
-6.03781e-06
-5.6549e-06
-5.14739e-06
-4.60437e-06
-4.07107e-06
-3.58675e-06
-3.17446e-06
-2.83351e-06
-2.55432e-06
-2.32356e-06
-2.12484e-06
-1.94013e-06
-1.7515e-06
-1.54182e-06
-1.29512e-06
-9.98804e-07
-6.46997e-07
-2.46053e-07
1.82583e-07
5.87154e-07
8.92188e-07
1.00239e-06
8.49351e-07
5.44636e-07
2.40294e-07
3.0808e-08
-2.44734e-08
1.10894e-07
4.60803e-07
1.02462e-06
1.8177e-06
2.82419e-06
3.99915e-06
5.30364e-06
6.67587e-06
8.03642e-06
9.29078e-06
1.03292e-05
1.10267e-05
1.12464e-05
1.0849e-05
9.71698e-06
7.79741e-06
5.1694e-06
2.10315e-06
-5.71634e-06
-5.40507e-06
-4.98958e-06
-4.51958e-06
-4.04836e-06
-3.59811e-06
-3.19841e-06
-2.85757e-06
-2.57141e-06
-2.33141e-06
-2.1234e-06
-1.93019e-06
-1.7345e-06
-1.51952e-06
-1.26959e-06
-9.72402e-07
-6.22245e-07
-2.25258e-07
1.98096e-07
5.97998e-07
9.02592e-07
1.02122e-06
8.8667e-07
6.04504e-07
3.20744e-07
1.26686e-07
7.9759e-08
2.15317e-07
5.55468e-07
1.09217e-06
1.85563e-06
2.80472e-06
3.89775e-06
5.09203e-06
6.32203e-06
7.50555e-06
8.54788e-06
9.34473e-06
9.78543e-06
9.76234e-06
9.18518e-06
8.00386e-06
6.23634e-06
3.99678e-06
1.50183e-06
-5.40468e-06
-5.1498e-06
-4.8117e-06
-4.41638e-06
-3.99937e-06
-3.59364e-06
-3.21528e-06
-2.88027e-06
-2.58961e-06
-2.34099e-06
-2.12274e-06
-1.91936e-06
-1.71481e-06
-1.49298e-06
-1.23888e-06
-9.40623e-07
-5.92793e-07
-2.01199e-07
2.15067e-07
6.0813e-07
9.10429e-07
1.03669e-06
9.21346e-07
6.63163e-07
4.01377e-07
2.23688e-07
1.85208e-07
3.19483e-07
6.3972e-07
1.15467e-06
1.87768e-06
2.75597e-06
3.75301e-06
4.82257e-06
5.89604e-06
6.89154e-06
7.71941e-06
8.28599e-06
8.50125e-06
8.28928e-06
7.602e-06
6.43466e-06
4.83871e-06
2.92675e-06
8.61847e-07
-5.09171e-06
-4.88187e-06
-4.60689e-06
-4.27939e-06
-3.92162e-06
-3.55887e-06
-3.20922e-06
-2.88778e-06
-2.59943e-06
-2.34623e-06
-2.11785e-06
-1.90421e-06
-1.69014e-06
-1.46063e-06
-1.20202e-06
-9.02982e-07
-5.58488e-07
-1.74291e-07
2.32247e-07
6.15949e-07
9.13585e-07
1.04621e-06
9.50537e-07
7.17554e-07
4.78853e-07
3.17996e-07
2.87872e-07
4.15501e-07
7.13187e-07
1.20732e-06
1.87115e-06
2.666e-06
3.55549e-06
4.48729e-06
5.39344e-06
6.19645e-06
6.81547e-06
7.1722e-06
7.19928e-06
6.84969e-06
6.10642e-06
4.99024e-06
3.56257e-06
1.92039e-06
1.83019e-07
-4.77022e-06
-4.597e-06
-4.37307e-06
-4.10377e-06
-3.80192e-06
-3.48485e-06
-3.16896e-06
-2.86703e-06
-2.59138e-06
-2.33679e-06
-2.10051e-06
-1.87959e-06
-1.65693e-06
-1.42011e-06
-1.15775e-06
-8.59275e-07
-5.19949e-07
-1.45157e-07
2.47756e-07
6.18805e-07
9.08948e-07
1.04612e-06
9.70221e-07
7.63366e-07
5.48432e-07
4.04334e-07
3.79301e-07
4.989e-07
7.78655e-07
1.22905e-06
1.82317e-06
2.52565e-06
3.29538e-06
4.07886e-06
4.81164e-06
5.42428e-06
5.84774e-06
6.02105e-06
5.89826e-06
5.45516e-06
4.69451e-06
3.64823e-06
2.3751e-06
9.53111e-07
-5.31238e-07
-4.43434e-06
-4.29169e-06
-4.10939e-06
-3.88908e-06
-3.63751e-06
-3.36593e-06
-3.08701e-06
-2.812e-06
-2.5497e-06
-2.30051e-06
-2.06521e-06
-1.83864e-06
-1.61012e-06
-1.36894e-06
-1.1051e-06
-8.09628e-07
-4.78514e-07
-1.16638e-07
2.58896e-07
6.13234e-07
8.92226e-07
1.03144e-06
9.74892e-07
7.94703e-07
6.03647e-07
4.75551e-07
4.5349e-07
5.6254e-07
8.15201e-07
1.21114e-06
1.726e-06
2.32422e-06
2.96332e-06
3.59146e-06
4.15089e-06
4.58152e-06
4.82841e-06
4.84748e-06
4.61052e-06
4.10912e-06
3.35661e-06
2.38701e-06
1.25105e-06
9.09799e-09
-1.27617e-06
-4.07948e-06
-3.96305e-06
-3.81535e-06
-3.63629e-06
-3.42897e-06
-3.20018e-06
-2.95867e-06
-2.71307e-06
-2.47023e-06
-2.23356e-06
-2.00362e-06
-1.77706e-06
-1.54718e-06
-1.30572e-06
-1.04425e-06
-7.5554e-07
-4.36677e-07
-9.2739e-08
2.61269e-07
5.94242e-07
8.57715e-07
9.95707e-07
9.57311e-07
8.03761e-07
6.36037e-07
5.22348e-07
5.00134e-07
5.93011e-07
8.08761e-07
1.14145e-06
1.56752e-06
2.05089e-06
2.55188e-06
3.02323e-06
3.41436e-06
3.67694e-06
3.77005e-06
3.66407e-06
3.3439e-06
2.81073e-06
2.08196e-06
1.18886e-06
1.72676e-07
-9.20923e-07
-2.04639e-06
-3.70278e-06
-3.60947e-06
-3.49123e-06
-3.34726e-06
-3.17857e-06
-2.98885e-06
-2.78369e-06
-2.56918e-06
-2.35065e-06
-2.13158e-06
-1.91262e-06
-1.69274e-06
-1.46767e-06
-1.23137e-06
-9.7751e-07
-7.00801e-07
-3.99453e-07
-7.84452e-08
2.48859e-07
5.54932e-07
7.98162e-07
9.30975e-07
9.08433e-07
7.80566e-07
6.34932e-07
5.33319e-07
5.0562e-07
5.7583e-07
7.45972e-07
1.00614e-06
1.33352e-06
1.69733e-06
2.05831e-06
2.37601e-06
2.60971e-06
2.7229e-06
2.68677e-06
2.48292e-06
2.10505e-06
1.55923e-06
8.62929e-07
4.25459e-08
-8.69711e-07
-1.8398e-06
-2.83457e-06
-3.30308e-06
-3.23095e-06
-3.13867e-06
-3.02527e-06
-2.89064e-06
-2.73655e-06
-2.56625e-06
-2.38378e-06
-2.19277e-06
-1.99657e-06
-1.79416e-06
-1.58796e-06
-1.37472e-06
-1.15028e-06
-9.10512e-07
-6.52052e-07
-3.74121e-07
-8.18513e-08
2.12909e-07
4.86722e-07
7.04748e-07
8.27823e-07
8.17548e-07
7.12944e-07
5.86762e-07
4.95555e-07
4.54897e-07
4.94843e-07
6.1228e-07
7.94404e-07
1.01972e-06
1.26044e-06
1.4841e-06
1.65784e-06
1.75067e-06
1.73629e-06
1.59557e-06
1.31819e-06
9.03094e-07
3.58045e-07
-3.01538e-07
-1.05461e-06
-1.87676e-06
-2.74293e-06
-3.62898e-06
-2.88051e-06
-2.82897e-06
-2.76091e-06
-2.67541e-06
-2.57186e-06
-2.4509e-06
-2.31423e-06
-2.16439e-06
-2.00263e-06
-1.8314e-06
-1.65459e-06
-1.47032e-06
-1.27613e-06
-1.07108e-06
-8.52837e-07
-6.19684e-07
-3.71787e-07
-1.14399e-07
1.42244e-07
3.78783e-07
5.66725e-07
6.75199e-07
6.72419e-07
5.87051e-07
4.75554e-07
3.7763e-07
3.32501e-07
3.37159e-07
3.95602e-07
4.96512e-07
6.20172e-07
7.42709e-07
8.38974e-07
8.84487e-07
8.57032e-07
7.38602e-07
5.1722e-07
1.87748e-07
-2.48234e-07
-7.83128e-07
-1.40437e-06
-2.09589e-06
-2.83969e-06
-3.61753e-06
-4.41188e-06
-2.43772e-06
-2.40753e-06
-2.36367e-06
-2.30538e-06
-2.23183e-06
-2.14296e-06
-2.03952e-06
-1.92269e-06
-1.79386e-06
-1.65424e-06
-1.50784e-06
-1.35122e-06
-1.18436e-06
-1.00713e-06
-8.18435e-07
-6.18122e-07
-4.07158e-07
-1.90637e-07
2.26181e-08
2.17493e-07
3.71146e-07
4.60182e-07
4.59266e-07
3.88794e-07
2.88733e-07
1.94461e-07
1.26884e-07
9.08616e-08
8.78598e-08
1.09066e-07
1.37748e-07
1.54405e-07
1.40208e-07
7.81376e-08
-4.64745e-08
-2.45024e-07
-5.24591e-07
-8.87436e-07
-1.3311e-06
-1.84907e-06
-2.43164e-06
-3.06699e-06
-3.74214e-06
-4.444e-06
-5.15992e-06
-1.9811e-06
-1.97495e-06
-1.9571e-06
-1.92716e-06
-1.88451e-06
-1.82883e-06
-1.76027e-06
-1.67941e-06
-1.58717e-06
-1.48447e-06
-1.37218e-06
-1.25013e-06
-1.11836e-06
-9.76995e-07
-8.25821e-07
-6.65664e-07
-4.98125e-07
-3.2765e-07
-1.62123e-07
-1.2601e-08
1.0338e-07
1.68006e-07
1.63883e-07
1.01858e-07
1.15327e-08
-8.62174e-08
-1.75586e-07
-2.50749e-07
-3.11149e-07
-3.62414e-07
-4.16418e-07
-4.87828e-07
-5.90493e-07
-7.35837e-07
-9.32789e-07
-1.1879e-06
-1.50505e-06
-1.88503e-06
-2.32549e-06
-2.82132e-06
-3.36537e-06
-3.94916e-06
-4.5635e-06
-5.19913e-06
-5.84699e-06
-1.52129e-06
-1.54416e-06
-1.55676e-06
-1.55862e-06
-1.54956e-06
-1.52971e-06
-1.49902e-06
-1.45745e-06
-1.40534e-06
-1.34331e-06
-1.27186e-06
-1.19129e-06
-1.10174e-06
-1.0036e-06
-8.97186e-07
-7.83641e-07
-6.64907e-07
-5.44383e-07
-4.28548e-07
-3.25419e-07
-2.49256e-07
-2.13354e-07
-2.25312e-07
-2.80987e-07
-3.68553e-07
-4.72506e-07
-5.80502e-07
-6.88515e-07
-7.96065e-07
-9.05736e-07
-1.02444e-06
-1.16213e-06
-1.32861e-06
-1.53139e-06
-1.7756e-06
-2.06468e-06
-2.40055e-06
-2.78331e-06
-3.21108e-06
-3.68014e-06
-4.18543e-06
-4.72102e-06
-5.2805e-06
-5.85739e-06
-6.44526e-06
-1.07448e-06
-1.1322e-06
-1.18121e-06
-1.22081e-06
-1.25073e-06
-1.27139e-06
-1.28296e-06
-1.2851e-06
-1.27776e-06
-1.26138e-06
-1.23641e-06
-1.20315e-06
-1.16182e-06
-1.11278e-06
-1.05661e-06
-9.94392e-07
-9.27871e-07
-8.5979e-07
-7.94474e-07
-7.3656e-07
-6.97175e-07
-6.86251e-07
-7.10037e-07
-7.66697e-07
-8.53339e-07
-9.60492e-07
-1.08066e-06
-1.21124e-06
-1.35126e-06
-1.50071e-06
-1.66238e-06
-1.8422e-06
-2.04695e-06
-2.28197e-06
-2.55026e-06
-2.85307e-06
-3.19088e-06
-3.56356e-06
-3.96996e-06
-4.40764e-06
-4.87313e-06
-5.36232e-06
-5.87078e-06
-6.39405e-06
-6.92763e-06
-6.6225e-07
-7.64456e-07
-8.57519e-07
-9.41715e-07
-1.01757e-06
-1.0853e-06
-1.14467e-06
-1.19544e-06
-1.23763e-06
-1.27154e-06
-1.29747e-06
-1.31563e-06
-1.3262e-06
-1.32943e-06
-1.32588e-06
-1.31628e-06
-1.3021e-06
-1.285e-06
-1.26813e-06
-1.25601e-06
-1.25051e-06
-1.2575e-06
-1.28806e-06
-1.34776e-06
-1.43164e-06
-1.53592e-06
-1.65767e-06
-1.79523e-06
-1.94794e-06
-2.11522e-06
-2.29732e-06
-2.4963e-06
-2.71575e-06
-2.95973e-06
-3.23105e-06
-3.53032e-06
-3.85669e-06
-4.20923e-06
-4.58734e-06
-4.98994e-06
-5.41489e-06
-5.85927e-06
-6.31998e-06
-6.79398e-06
-7.27823e-06
-3.40234e-07
-4.89265e-07
-6.29816e-07
-7.62126e-07
-8.86133e-07
-1.0017e-06
-1.10884e-06
-1.20766e-06
-1.2982e-06
-1.3805e-06
-1.45466e-06
-1.52077e-06
-1.57892e-06
-1.62919e-06
-1.67185e-06
-1.70745e-06
-1.73652e-06
-1.76023e-06
-1.78094e-06
-1.79839e-06
-1.81665e-06
-1.84225e-06
-1.88569e-06
-1.94721e-06
-2.02563e-06
-2.12238e-06
-2.23711e-06
-2.36814e-06
-2.51452e-06
-2.67651e-06
-2.85504e-06
-3.05125e-06
-3.26668e-06
-3.50265e-06
-3.76048e-06
-4.04155e-06
-4.34572e-06
-4.67166e-06
-5.01851e-06
-5.38578e-06
-5.7723e-06
-6.17606e-06
-6.59485e-06
-7.02659e-06
-7.46926e-06
-1.18507e-07
-3.13729e-07
-4.99653e-07
-6.76172e-07
-8.4337e-07
-1.00143e-06
-1.15052e-06
-1.29065e-06
-1.42175e-06
-1.54372e-06
-1.65654e-06
-1.76021e-06
-1.85475e-06
-1.94017e-06
-2.0166e-06
-2.08406e-06
-2.14324e-06
-2.19464e-06
-2.23792e-06
-2.27705e-06
-2.3139e-06
-2.35565e-06
-2.40528e-06
-2.4644e-06
-2.53549e-06
-2.62127e-06
-2.72276e-06
-2.83974e-06
-2.97223e-06
-3.12048e-06
-3.28488e-06
-3.46636e-06
-3.66627e-06
-3.88569e-06
-4.12506e-06
-4.38438e-06
-4.66336e-06
-4.96171e-06
-5.27926e-06
-5.61549e-06
-5.96938e-06
-6.33955e-06
-6.72455e-06
-7.12292e-06
-7.53318e-06
2.02175e-08
-2.13367e-07
-4.36318e-07
-6.48773e-07
-8.5097e-07
-1.04304e-06
-1.22499e-06
-1.39671e-06
-1.55808e-06
-1.70897e-06
-1.84933e-06
-1.97911e-06
-2.09827e-06
-2.20679e-06
-2.3047e-06
-2.39208e-06
-2.46915e-06
-2.536e-06
-2.5936e-06
-2.64465e-06
-2.69204e-06
-2.73903e-06
-2.78831e-06
-2.84282e-06
-2.90635e-06
-2.98195e-06
-3.07102e-06
-3.17416e-06
-3.29206e-06
-3.42577e-06
-3.57629e-06
-3.74424e-06
-3.92983e-06
-4.13319e-06
-4.35462e-06
-4.59459e-06
-4.85348e-06
-5.13122e-06
-5.42736e-06
-5.74129e-06
-6.07229e-06
-6.41952e-06
-6.78194e-06
-7.15844e-06
-7.54787e-06
1.1469e-07
-1.49969e-07
-4.02975e-07
-6.44405e-07
-8.74347e-07
-1.09278e-06
-1.29962e-06
-1.49471e-06
-1.67795e-06
-1.84921e-06
-2.00844e-06
-2.15559e-06
-2.29064e-06
-2.4136e-06
-2.52448e-06
-2.62332e-06
-2.7104e-06
-2.78633e-06
-2.85246e-06
-2.9105e-06
-2.96231e-06
-3.01122e-06
-3.06017e-06
-3.112e-06
-3.17031e-06
-3.23821e-06
-3.31786e-06
-3.41077e-06
-3.51822e-06
-3.64115e-06
-3.78012e-06
-3.93539e-06
-4.10738e-06
-4.29673e-06
-4.50409e-06
-4.72986e-06
-4.97409e-06
-5.23657e-06
-5.517e-06
-5.81504e-06
-6.13025e-06
-6.462e-06
-6.80952e-06
-7.17191e-06
-7.54828e-06
1.84277e-07
-1.05517e-07
-3.82443e-07
-6.46455e-07
-8.9754e-07
-1.13563e-06
-1.3606e-06
-1.57236e-06
-1.7708e-06
-1.95585e-06
-2.12751e-06
-2.28575e-06
-2.43058e-06
-2.56207e-06
-2.68041e-06
-2.78583e-06
-2.87886e-06
-2.96024e-06
-3.03102e-06
-3.09257e-06
-3.1471e-06
-3.19783e-06
-3.24709e-06
-3.29742e-06
-3.35249e-06
-3.41574e-06
-3.48961e-06
-3.57576e-06
-3.67541e-06
-3.78952e-06
-3.91891e-06
-4.06434e-06
-4.22654e-06
-4.40609e-06
-4.60342e-06
-4.81875e-06
-5.05218e-06
-5.30373e-06
-5.57333e-06
-5.86079e-06
-6.16578e-06
-6.48782e-06
-6.82632e-06
-7.18057e-06
-7.54984e-06
2.39438e-07
-6.99733e-08
-3.65249e-07
-6.46303e-07
-9.13091e-07
-1.16552e-06
-1.4035e-06
-1.62693e-06
-1.83577e-06
-2.02998e-06
-2.20961e-06
-2.37475e-06
-2.52546e-06
-2.66193e-06
-2.78467e-06
-2.89373e-06
-2.99011e-06
-3.07438e-06
-3.14771e-06
-3.21163e-06
-3.2684e-06
-3.32083e-06
-3.37077e-06
-3.42083e-06
-3.47475e-06
-3.53577e-06
-3.60623e-06
-3.68789e-06
-3.78217e-06
-3.89034e-06
-4.01344e-06
-4.15235e-06
-4.30778e-06
-4.4803e-06
-4.67036e-06
-4.87833e-06
-5.10448e-06
-5.34894e-06
-5.61174e-06
-5.89276e-06
-6.19178e-06
-6.50844e-06
-6.84229e-06
-7.19276e-06
-7.55921e-06
2.85863e-07
-3.87036e-08
-3.47997e-07
-6.41916e-07
-9.20386e-07
-1.1833e-06
-1.43057e-06
-1.66214e-06
-1.878e-06
-2.07821e-06
-2.26285e-06
-2.43212e-06
-2.58624e-06
-2.7255e-06
-2.85028e-06
-2.96161e-06
-3.05975e-06
-3.14566e-06
-3.22068e-06
-3.2864e-06
-3.34499e-06
-3.399e-06
-3.45007e-06
-3.50089e-06
-3.55495e-06
-3.61522e-06
-3.68397e-06
-3.76309e-06
-3.8542e-06
-3.95867e-06
-4.07766e-06
-4.21213e-06
-4.36287e-06
-4.53057e-06
-4.71582e-06
-4.91907e-06
-5.14067e-06
-5.38082e-06
-5.63965e-06
-5.91712e-06
-6.21312e-06
-6.5274e-06
-6.85959e-06
-7.20923e-06
-7.57575e-06
3.25278e-07
-1.10846e-08
-3.31167e-07
-6.34848e-07
-9.2203e-07
-1.1926e-06
-1.44649e-06
-1.68369e-06
-1.90425e-06
-2.1083e-06
-2.29603e-06
-2.4677e-06
-2.62368e-06
-2.76438e-06
-2.89037e-06
-3.0025e-06
-3.10147e-06
-3.18833e-06
-3.26448e-06
-3.3315e-06
-3.39155e-06
-3.44703e-06
-3.49945e-06
-3.55147e-06
-3.60631e-06
-3.66664e-06
-3.73472e-06
-3.81253e-06
-3.90179e-06
-4.00395e-06
-4.12026e-06
-4.25179e-06
-4.39946e-06
-4.56404e-06
-4.74622e-06
-4.94653e-06
-5.16539e-06
-5.40312e-06
-5.6599e-06
-5.93581e-06
-6.2308e-06
-6.5447e-06
-6.87722e-06
-7.22795e-06
-7.59642e-06
3.57876e-07
1.22392e-08
-3.16216e-07
-6.27357e-07
-9.21068e-07
-1.19725e-06
-1.45585e-06
-1.69693e-06
-1.9206e-06
-2.12704e-06
-2.31656e-06
-2.48948e-06
-2.64629e-06
-2.78749e-06
-2.91388e-06
-3.02621e-06
-3.12545e-06
-3.21274e-06
-3.28953e-06
-3.35743e-06
-3.41861e-06
-3.4753e-06
-3.52896e-06
-3.58221e-06
-3.63796e-06
-3.69867e-06
-3.76659e-06
-3.84375e-06
-3.93192e-06
-4.03263e-06
-4.1472e-06
-4.2768e-06
-4.42244e-06
-4.58499e-06
-4.76522e-06
-4.96374e-06
-5.18108e-06
-5.41762e-06
-5.67363e-06
-5.94925e-06
-6.2445e-06
-6.55929e-06
-6.89337e-06
-7.24641e-06
-7.61795e-06
3.83689e-07
3.06722e-08
-3.0436e-07
-6.21264e-07
-9.19913e-07
-1.20022e-06
-1.4622e-06
-1.70592e-06
-1.93157e-06
-2.13942e-06
-2.32982e-06
-2.50321e-06
-2.66015e-06
-2.80129e-06
-2.92749e-06
-3.03956e-06
-3.13864e-06
-3.22594e-06
-3.30298e-06
-3.37136e-06
-3.43328e-06
-3.49081e-06
-3.5454e-06
-3.59966e-06
-3.65618e-06
-3.71729e-06
-3.78523e-06
-3.86203e-06
-3.94951e-06
-4.04924e-06
-4.1626e-06
-4.29085e-06
-4.43508e-06
-4.59626e-06
-4.77523e-06
-4.9727e-06
-5.18926e-06
-5.42537e-06
-5.68137e-06
-5.95747e-06
-6.25375e-06
-6.57017e-06
-6.90654e-06
-7.26255e-06
-7.63779e-06
4.03039e-07
4.40556e-08
-2.96222e-07
-6.17637e-07
-9.20061e-07
-1.20344e-06
-1.4678e-06
-1.71329e-06
-1.94015e-06
-2.1487e-06
-2.33936e-06
-2.51268e-06
-2.66929e-06
-2.80993e-06
-2.93554e-06
-3.04701e-06
-3.1456e-06
-3.23258e-06
-3.30951e-06
-3.37801e-06
-3.44027e-06
-3.49823e-06
-3.55339e-06
-3.60831e-06
-3.66535e-06
-3.72672e-06
-3.79465e-06
-3.87117e-06
-3.9581e-06
-4.05705e-06
-4.16947e-06
-4.29668e-06
-4.43986e-06
-4.60004e-06
-4.77815e-06
-4.97498e-06
-5.19118e-06
-5.42728e-06
-5.6837e-06
-5.96071e-06
-6.25843e-06
-6.57687e-06
-6.91589e-06
-7.2752e-06
-7.65442e-06
4.16559e-07
5.26674e-08
-2.91862e-07
-6.16862e-07
-9.2221e-07
-1.20788e-06
-1.47394e-06
-1.72058e-06
-1.94808e-06
-2.15684e-06
-2.34735e-06
-2.52022e-06
-2.67616e-06
-2.816e-06
-2.94076e-06
-3.05138e-06
-3.14923e-06
-3.23562e-06
-3.31215e-06
-3.38045e-06
-3.44268e-06
-3.50069e-06
-3.55605e-06
-3.61129e-06
-3.66855e-06
-3.72997e-06
-3.79777e-06
-3.87395e-06
-3.96033e-06
-4.05856e-06
-4.17015e-06
-4.29647e-06
-4.43876e-06
-4.59814e-06
-4.7756e-06
-4.97199e-06
-5.18805e-06
-5.42437e-06
-5.68142e-06
-5.95952e-06
-6.25886e-06
-6.57948e-06
-6.92127e-06
-7.28398e-06
-7.66722e-06
4.25082e-07
5.70815e-08
-2.90954e-07
-6.18852e-07
-9.26501e-07
-1.2139e-06
-1.48116e-06
-1.72851e-06
-1.95628e-06
-2.16492e-06
-2.35499e-06
-2.52716e-06
-2.68221e-06
-2.82104e-06
-2.94465e-06
-3.05437e-06
-3.1513e-06
-3.23691e-06
-3.3128e-06
-3.38063e-06
-3.44254e-06
-3.50029e-06
-3.55552e-06
-3.61075e-06
-3.66795e-06
-3.72922e-06
-3.79673e-06
-3.87246e-06
-3.95823e-06
-4.05573e-06
-4.1665e-06
-4.29197e-06
-4.43344e-06
-4.5921e-06
-4.76899e-06
-4.96504e-06
-5.18105e-06
-5.41767e-06
-5.67542e-06
-5.95467e-06
-6.25566e-06
-6.57846e-06
-6.923e-06
-7.28903e-06
-7.6762e-06
4.29509e-07
5.80133e-08
-2.92964e-07
-6.23247e-07
-9.32739e-07
-1.22147e-06
-1.48957e-06
-1.73733e-06
-1.96511e-06
-2.17341e-06
-2.36285e-06
-2.53417e-06
-2.68821e-06
-2.82593e-06
-2.94843e-06
-3.05699e-06
-3.15285e-06
-3.23753e-06
-3.31262e-06
-3.37978e-06
-3.44113e-06
-3.49837e-06
-3.55322e-06
-3.60817e-06
-3.66508e-06
-3.726e-06
-3.79307e-06
-3.86823e-06
-3.95332e-06
-4.05003e-06
-4.15996e-06
-4.28459e-06
-4.42526e-06
-4.58322e-06
-4.75957e-06
-4.95531e-06
-5.17128e-06
-5.40819e-06
-5.66662e-06
-5.94699e-06
-6.24957e-06
-6.57446e-06
-6.92162e-06
-7.29083e-06
-7.68172e-06
4.30722e-07
5.62067e-08
-2.9728e-07
-6.29562e-07
-9.40559e-07
-1.23032e-06
-1.49903e-06
-1.74698e-06
-1.9746e-06
-2.18243e-06
-2.37115e-06
-2.54153e-06
-2.69448e-06
-2.83104e-06
-2.95235e-06
-3.05972e-06
-3.15443e-06
-3.2381e-06
-3.31227e-06
-3.37863e-06
-3.43926e-06
-3.49582e-06
-3.55008e-06
-3.60455e-06
-3.66099e-06
-3.72141e-06
-3.78789e-06
-3.86239e-06
-3.94671e-06
-4.0426e-06
-4.15166e-06
-4.27543e-06
-4.41529e-06
-4.57254e-06
-4.74835e-06
-4.94376e-06
-5.15966e-06
-5.39683e-06
-5.65588e-06
-5.93728e-06
-6.24133e-06
-6.56816e-06
-6.91777e-06
-7.28993e-06
-7.68431e-06
4.29529e-07
5.23774e-08
-3.03275e-07
-6.37258e-07
-9.49508e-07
-1.2401e-06
-1.50923e-06
-1.75725e-06
-1.9846e-06
-2.19189e-06
-2.37982e-06
-2.54924e-06
-2.7011e-06
-2.83648e-06
-2.95659e-06
-3.06273e-06
-3.15629e-06
-3.2389e-06
-3.31209e-06
-3.37756e-06
-3.43738e-06
-3.49314e-06
-3.54668e-06
-3.60052e-06
-3.65636e-06
-3.71616e-06
-3.78198e-06
-3.85573e-06
-3.93924e-06
-4.03426e-06
-4.14244e-06
-4.26533e-06
-4.40437e-06
-4.56091e-06
-4.73616e-06
-4.93121e-06
-5.147e-06
-5.38437e-06
-5.64395e-06
-5.92627e-06
-6.23164e-06
-6.56026e-06
-6.9121e-06
-7.28697e-06
-7.68454e-06
4.26632e-07
4.71678e-08
-3.10368e-07
-6.45811e-07
-9.59114e-07
-1.25037e-06
-1.51981e-06
-1.7678e-06
-1.99484e-06
-2.20155e-06
-2.3887e-06
-2.55716e-06
-2.70794e-06
-2.84217e-06
-2.96109e-06
-3.06602e-06
-3.15852e-06
-3.24001e-06
-3.31221e-06
-3.37676e-06
-3.43572e-06
-3.49061e-06
-3.54335e-06
-3.59648e-06
-3.65164e-06
-3.71076e-06
-3.77585e-06
-3.84882e-06
-3.93149e-06
-4.02563e-06
-4.13291e-06
-4.25493e-06
-4.39316e-06
-4.54898e-06
-4.72366e-06
-4.91832e-06
-5.13397e-06
-5.37146e-06
-5.63149e-06
-5.9146e-06
-6.22116e-06
-6.55136e-06
-6.90521e-06
-7.28254e-06
-7.683e-06
4.22486e-07
4.09661e-08
-3.18229e-07
-6.54943e-07
-9.69144e-07
-1.26095e-06
-1.5306e-06
-1.77851e-06
-2.00519e-06
-2.21132e-06
-2.39768e-06
-2.56521e-06
-2.71494e-06
-2.84805e-06
-2.96582e-06
-3.06958e-06
-3.16103e-06
-3.24144e-06
-3.31266e-06
-3.37628e-06
-3.43435e-06
-3.48834e-06
-3.54022e-06
-3.59258e-06
-3.64702e-06
-3.70541e-06
-3.76974e-06
-3.84189e-06
-3.92371e-06
-4.01696e-06
-4.12336e-06
-4.2445e-06
-4.38192e-06
-4.53703e-06
-4.71112e-06
-4.90538e-06
-5.12085e-06
-5.3584e-06
-5.6188e-06
-5.90259e-06
-6.21019e-06
-6.5418e-06
-6.89746e-06
-7.277e-06
-7.68008e-06
4.17152e-07
3.369e-08
-3.27059e-07
-6.64949e-07
-9.79966e-07
-1.27224e-06
-1.54205e-06
-1.78982e-06
-2.01611e-06