/*--------------------------------*- C++ -*----------------------------------*\
| =========                 |                                                 |
| \\      /  F ield         | OpenFOAM: The Open Source CFD Toolbox           |
|  \\    /   O peration     | Version:  2312                                  |
|   \\  /    A nd           | Website:  www.openfoam.com                      |
|    \\/     M anipulation  |                                                 |
\*---------------------------------------------------------------------------*/
FoamFile
{
    version     2.0;
    format      ascii;
    arch        "LSB;label=32;scalar=64";
    class       surfaceScalarField;
    location    "53.25";
    object      phi;
}
// * * * * * * * * * * * * * * * * * * * * * * * * * * * * * * * * * * * * * //

dimensions      [0 3 -1 0 0 0 0];

oriented        oriented;

internalField   nonuniform List<scalar> 
9445
(
6.06476e-10
1.7475e-11
5.94529e-10
1.19472e-11
5.8631e-10
8.21876e-12
5.808e-10
5.51029e-12
5.77383e-10
3.4171e-12
5.75669e-10
1.71354e-12
5.75474e-10
1.95839e-13
5.76823e-10
-1.34956e-12
5.79661e-10
-2.83809e-12
5.84339e-10
-4.6774e-12
5.92049e-10
-7.71067e-12
6.06347e-10
-1.42978e-11
6.3981e-10
-3.34627e-11
7.36971e-10
-9.71614e-11
-2.55793e-10
9.92764e-10
2.11088e-09
7.76043e-11
2.06944e-09
5.33948e-11
2.04063e-09
3.70205e-11
2.02101e-09
2.51349e-11
2.00843e-09
1.59925e-11
2.00155e-09
8.59528e-12
1.99968e-09
2.06576e-12
2.00263e-09
-4.29718e-12
2.01029e-09
-1.04945e-11
2.02383e-09
-1.82176e-11
2.04621e-09
-3.00899e-11
2.08423e-09
-5.23195e-11
2.15148e-09
-1.00712e-10
2.26126e-09
-2.06949e-10
-3.73302e-10
2.37877e-09
4.15643e-09
1.94017e-10
4.07565e-09
1.34169e-10
4.01907e-09
9.36054e-11
3.98001e-09
6.41889e-11
3.95435e-09
4.16559e-11
3.93938e-09
2.35605e-11
3.9337e-09
7.74737e-12
3.93652e-09
-7.11713e-12
3.94758e-09
-2.15494e-11
3.96832e-09
-3.89566e-11
4.00162e-09
-6.33985e-11
4.05199e-09
-1.02686e-10
4.12227e-09
-1.70994e-10
4.1989e-09
-2.83574e-10
-4.18529e-10
4.24413e-09
6.89058e-09
3.82292e-10
6.75891e-09
2.65846e-10
6.66583e-09
1.86683e-10
6.60071e-09
1.29305e-10
6.55684e-09
8.55281e-11
6.52977e-09
5.06321e-11
6.51691e-09
2.06068e-11
6.51656e-09
-6.7631e-12
6.52799e-09
-3.29858e-11
6.55169e-09
-6.26594e-11
6.58878e-09
-1.00483e-10
6.63859e-09
-1.52495e-10
6.69452e-09
-2.26921e-10
6.73631e-09
-3.25367e-10
-4.22365e-10
6.74014e-09
1.04925e-08
6.58646e-10
1.02972e-08
4.61112e-10
1.01577e-08
3.26181e-10
1.00587e-08
2.28331e-10
9.99031e-09
1.53932e-10
9.9459e-09
9.50464e-11
9.92113e-09
4.53809e-11
9.91313e-09
1.23721e-12
9.92018e-09
-4.00421e-11
9.94075e-09
-8.32287e-11
9.97309e-09
-1.32825e-10
1.00123e-08
-1.91678e-10
1.00474e-08
-2.62069e-10
1.00612e-08
-3.39095e-10
-4.03713e-10
1.00425e-08
1.5175e-08
1.03685e-09
1.49041e-08
7.3202e-10
1.4708e-08
5.22236e-10
1.45666e-08
3.69749e-10
1.44664e-08
2.54074e-10
1.43984e-08
1.631e-10
1.43559e-08
8.78638e-11
1.43344e-08
2.27024e-11
1.43306e-08
-3.62099e-11
1.43408e-08
-9.34525e-11
1.43603e-08
-1.52313e-10
1.4382e-08
-2.13345e-10
1.43951e-08
-2.75213e-10
1.43882e-08
-3.32215e-10
-3.73573e-10
1.43581e-08
2.11825e-08
1.52235e-09
2.08281e-08
1.08642e-09
2.05674e-08
7.82937e-10
2.03759e-08
5.61217e-10
2.02369e-08
3.9307e-10
2.01385e-08
2.61497e-10
2.00718e-08
1.54521e-10
2.00303e-08
6.42445e-11
2.00085e-08
-1.43792e-11
2.00007e-08
-8.5713e-11
2.00005e-08
-1.52081e-10
2.00003e-08
-2.1311e-10
1.99918e-08
-2.66757e-10
1.99689e-08
-3.0933e-10
-3.36345e-10
1.99317e-08
2.87834e-08
2.10328e-09
2.83479e-08
1.52188e-09
2.80206e-08
1.11021e-09
2.77752e-08
8.06702e-10
2.75923e-08
5.75903e-10
2.7458e-08
3.95823e-10
2.73612e-08
2.51326e-10
2.72932e-08
1.32235e-10
2.72467e-08
3.21421e-11
2.72144e-08
-5.34605e-11
2.71893e-08
-1.26961e-10
2.71646e-08
-1.88397e-10
2.71348e-08
-2.36982e-10
2.70972e-08
-2.71676e-10
-2.91856e-10
2.70527e-08
3.82563e-08
2.74037e-09
3.77603e-08
2.01786e-09
3.73766e-08
1.49388e-09
3.70813e-08
1.10202e-09
3.68552e-08
8.02019e-10
3.66831e-08
5.67878e-10
3.65528e-08
3.81641e-10
3.6454e-08
2.3101e-10
3.63782e-08
1.08022e-10
3.63171e-08
7.59092e-12
3.62642e-08
-7.40973e-11
3.62141e-08
-1.38204e-10
3.61631e-08
-1.85999e-10
3.61101e-08
-2.18718e-10
-2.37896e-10
3.60562e-08
4.98793e-08
3.36422e-09
4.93668e-08
2.53034e-09
4.89545e-08
1.90619e-09
4.86266e-08
1.42997e-09
4.83674e-08
1.06122e-09
4.8163e-08
7.7222e-10
4.80014e-08
5.43238e-10
4.78721e-08
3.60358e-10
4.7766e-08
2.14063e-10
4.7676e-08
9.76607e-11
4.75955e-08
6.41238e-12
4.75208e-08
-6.35046e-11
4.74494e-08
-1.14656e-10
4.73808e-08
-1.50103e-10
-1.72528e-10
4.73154e-08
6.39471e-08
3.89375e-09
6.34788e-08
2.99872e-09
6.30816e-08
2.30339e-09
6.2752e-08
1.75948e-09
6.24815e-08
1.33177e-09
6.22598e-08
9.93879e-10
6.20771e-08
7.25951e-10
6.19243e-08
5.13212e-10
6.17935e-08
3.44798e-10
6.16787e-08
2.12529e-10
6.15751e-08
1.10015e-10
6.14796e-08
3.19971e-11
6.13907e-08
-2.57639e-11
6.13078e-08
-6.72094e-11
-9.56796e-11
6.12309e-08
8.08422e-08
4.27906e-09
8.04681e-08
3.37285e-09
8.01294e-08
2.64212e-09
7.98334e-08
2.0554e-09
7.95792e-08
1.58604e-09
7.93616e-08
1.21149e-09
7.91743e-08
9.13176e-10
7.90112e-08
6.76307e-10
7.88668e-08
4.89203e-10
7.87369e-08
3.42516e-10
7.86182e-08
2.28661e-10
7.85089e-08
1.41326e-10
7.84078e-08
7.53137e-11
7.83145e-08
2.61327e-11
-9.81193e-12
7.82286e-08
1.01134e-07
4.53386e-09
1.00862e-07
3.64476e-09
1.00599e-07
2.90564e-09
1.00355e-07
2.2987e-09
1.00136e-07
1.80575e-09
9.99386e-08
1.40849e-09
9.97615e-08
1.0902e-09
9.96013e-08
8.36499e-10
9.94551e-08
6.35421e-10
9.93207e-08
4.7699e-10
9.91963e-08
3.52982e-10
9.90811e-08
2.56526e-10
9.89744e-08
1.82028e-10
9.88758e-08
1.24786e-10
8.10644e-11
9.87849e-08
1.25574e-07
4.70702e-09
1.25375e-07
3.84394e-09
1.2517e-07
3.11003e-09
1.24972e-07
2.49691e-09
1.24785e-07
1.99313e-09
1.24609e-07
1.58386e-09
1.24446e-07
1.25386e-09
1.24293e-07
9.89307e-10
1.2415e-07
7.78262e-10
1.24017e-07
6.10586e-10
1.23892e-07
4.77856e-10
1.23775e-07
3.73057e-10
1.23667e-07
2.905e-10
1.23566e-07
2.25462e-10
1.74208e-10
1.23473e-07
1.54891e-07
4.82067e-09
1.54743e-07
3.9922e-09
1.54579e-07
3.27379e-09
1.54412e-07
2.66469e-09
1.54246e-07
2.15927e-09
1.54084e-07
1.7455e-09
1.53928e-07
1.40947e-09
1.5378e-07
1.13803e-09
1.53638e-07
9.19648e-10
1.53504e-07
7.44391e-10
1.53378e-07
6.03954e-10
1.5326e-07
4.91415e-10
1.53149e-07
4.01172e-10
1.53046e-07
3.28601e-10
2.70043e-10
1.5295e-07
1.89559e-07
4.86604e-09
1.89466e-07
4.08464e-09
1.89345e-07
3.39461e-09
1.89209e-07
2.80115e-09
1.89064e-07
2.3041e-09
1.88916e-07
1.89354e-09
1.88769e-07
1.55704e-09
1.88624e-07
1.28265e-09
1.88484e-07
1.05964e-09
1.8835e-07
8.78627e-10
1.88222e-07
7.31688e-10
1.88101e-07
6.12203e-10
1.87988e-07
5.14794e-10
1.87881e-07
4.35026e-10
3.69373e-10
1.87782e-07
2.29686e-07
4.83001e-09
2.2966e-07
4.11039e-09
2.29593e-07
3.46188e-09
2.29498e-07
2.89633e-09
2.29383e-07
2.41893e-09
2.29256e-07
2.02006e-09
2.29124e-07
1.68951e-09
2.28989e-07
1.41703e-09
2.28856e-07
1.19301e-09
2.28726e-07
1.00891e-09
2.286e-07
8.57415e-10
2.2848e-07
7.32393e-10
2.28366e-07
6.28825e-10
2.28258e-07
5.42555e-10
4.70274e-10
2.28157e-07
2.74839e-07
4.6991e-09
2.74893e-07
4.05557e-09
2.74888e-07
3.46768e-09
2.74839e-07
2.94455e-09
2.74761e-07
2.4972e-09
2.74663e-07
2.11809e-09
2.74553e-07
1.80004e-09
2.74435e-07
1.53472e-09
2.74314e-07
1.31385e-09
2.74193e-07
1.12988e-09
2.74074e-07
9.76287e-10
2.73959e-07
8.47556e-10
2.73849e-07
7.39147e-10
2.73744e-07
6.47273e-10
5.68997e-10
2.73645e-07
3.23536e-07
4.4879e-09
3.2367e-07
3.92132e-09
3.2374e-07
3.39805e-09
3.23756e-07
2.92813e-09
3.23732e-07
2.52123e-09
3.23678e-07
2.17196e-09
3.23604e-07
1.87491e-09
3.23515e-07
1.62365e-09
3.23417e-07
1.41146e-09
3.23315e-07
1.23201e-09
3.23211e-07
1.07976e-09
3.23109e-07
9.49992e-10
3.23009e-07
8.38729e-10
3.22914e-07
7.42643e-10
6.59101e-10
3.22824e-07
3.72594e-07
4.15218e-09
3.72841e-07
3.67408e-09
3.7301e-07
3.22963e-09
3.73112e-07
2.82598e-09
3.73163e-07
2.46994e-09
3.73175e-07
2.16052e-09
3.73156e-07
1.89367e-09
3.73115e-07
1.66427e-09
3.7306e-07
1.46714e-09
3.72994e-07
1.29742e-09
3.72923e-07
1.15072e-09
3.7285e-07
1.0232e-09
3.72777e-07
9.1161e-10
3.72707e-07
8.1317e-10
7.25727e-10
3.7264e-07
3.69958e-07
3.77149e-09
3.70255e-07
3.37699e-09
3.70478e-07
3.00711e-09
3.70636e-07
2.66796e-09
3.70741e-07
2.36425e-09
3.70806e-07
2.09625e-09
3.70838e-07
1.8615e-09
3.70846e-07
1.65634e-09
3.70836e-07
1.47688e-09
3.70814e-07
1.31937e-09
3.70784e-07
1.18046e-09
3.7075e-07
1.05715e-09
3.70715e-07
9.4688e-10
3.70681e-07
8.4741e-10
7.57191e-10
3.70649e-07
3.16899e-07
3.33397e-09
3.17255e-07
3.02101e-09
3.1754e-07
2.72245e-09
3.17762e-07
2.44567e-09
3.17932e-07
2.19459e-09
3.18059e-07
1.96969e-09
3.18151e-07
1.76954e-09
3.18215e-07
1.59167e-09
3.18259e-07
1.43328e-09
3.18287e-07
1.29163e-09
3.18303e-07
1.16424e-09
3.18311e-07
1.04888e-09
3.18314e-07
9.43614e-10
3.18315e-07
8.46746e-10
7.56873e-10
3.18315e-07
2.65081e-07
2.93127e-09
2.65423e-07
2.67945e-09
2.65709e-07
2.4361e-09
2.65946e-07
2.20877e-09
2.6614e-07
2.00044e-09
2.66299e-07
1.81148e-09
2.66427e-07
1.64086e-09
2.66532e-07
1.48683e-09
2.66618e-07
1.34738e-09
2.66689e-07
1.22049e-09
2.66749e-07
1.10431e-09
2.66801e-07
9.97168e-10
2.66847e-07
8.97639e-10
2.66889e-07
8.04398e-10
7.16439e-10
2.6693e-07
2.18164e-07
2.54471e-09
2.18501e-07
2.34238e-09
2.18791e-07
2.14543e-09
2.1904e-07
1.95991e-09
2.19252e-07
1.78819e-09
2.19433e-07
1.63048e-09
2.19588e-07
1.48602e-09
2.19722e-07
1.35357e-09
2.19837e-07
1.23168e-09
2.19939e-07
1.11891e-09
2.20029e-07
1.0139e-09
2.20111e-07
9.15431e-10
2.20186e-07
8.22456e-10
2.20257e-07
7.34044e-10
6.49472e-10
2.20323e-07
1.77134e-07
2.16821e-09
1.77469e-07
2.00734e-09
1.77765e-07
1.84998e-09
1.78024e-07
1.70051e-09
1.78252e-07
1.56063e-09
1.78452e-07
1.43049e-09
1.78628e-07
1.30955e-09
1.78785e-07
1.19692e-09
1.78925e-07
1.09161e-09
1.79051e-07
9.9261e-10
1.79166e-07
8.98962e-10
1.79272e-07
8.09826e-10
1.7937e-07
7.2447e-10
1.79462e-07
6.42263e-10
5.62698e-10
1.79548e-07
1.42196e-07
1.80587e-09
1.42523e-07
1.68017e-09
1.42816e-07
1.55659e-09
1.43079e-07
1.43815e-09
1.43313e-07
1.32599e-09
1.43524e-07
1.2202e-09
1.43713e-07
1.12041e-09
1.43884e-07
1.02606e-09
1.44039e-07
9.36474e-10
1.4418e-07
8.50989e-10
1.4431e-07
7.68978e-10
1.4443e-07
6.89894e-10
1.44541e-07
6.13271e-10
1.44645e-07
5.38718e-10
4.65903e-10
1.44742e-07
1.13017e-07
1.46681e-09
1.13326e-07
1.37085e-09
1.13607e-07
1.27586e-09
1.13861e-07
1.18392e-09
1.14092e-07
1.0957e-09
1.14301e-07
1.01128e-09
1.14491e-07
9.30446e-10
1.14664e-07
8.52875e-10
1.14822e-07
7.78165e-10
1.14967e-07
7.05906e-10
1.151e-07
6.35726e-10
1.15223e-07
5.67301e-10
1.15336e-07
5.0037e-10
1.1544e-07
4.34723e-10
3.702e-10
1.15536e-07
8.8989e-08
1.1607e-09
8.92704e-08
1.08942e-09
8.9528e-08
1.01825e-09
8.97633e-08
9.48592e-10
8.99782e-08
8.80774e-10
9.01746e-08
8.14881e-10
9.03542e-08
7.50857e-10
9.05186e-08
6.88542e-10
9.0669e-08
6.27723e-10
9.08067e-08
5.6819e-10
9.09327e-08
5.09751e-10
9.10477e-08
4.52253e-10
9.11525e-08
3.95582e-10
9.12476e-08
3.39656e-10
2.8443e-10
9.13334e-08
6.94082e-08
8.94408e-10
6.96545e-08
8.43083e-10
6.98814e-08
7.91339e-10
7.009e-08
7.40018e-10
7.02816e-08
6.89237e-10
7.04573e-08
6.39128e-10
7.06184e-08
5.8973e-10
7.0766e-08
5.40999e-10
7.09008e-08
4.92854e-10
7.10238e-08
4.45219e-10
7.11355e-08
3.98029e-10
7.12366e-08
3.51245e-10
7.13273e-08
3.04853e-10
7.14081e-08
2.58859e-10
2.13285e-10
7.14792e-08
5.35871e-08
6.70782e-10
5.37951e-08
6.35098e-10
5.39877e-08
5.98757e-10
5.41655e-08
5.62121e-10
5.43296e-08
5.25219e-10
5.44805e-08
4.88229e-10
5.4619e-08
4.51238e-10
5.47457e-08
4.14272e-10
5.48612e-08
3.77333e-10
5.4966e-08
3.4043e-10
5.50604e-08
3.03576e-10
5.51449e-08
2.66802e-10
5.52196e-08
2.30151e-10
5.52848e-08
1.93679e-10
1.5745e-10
5.53406e-08
4.09025e-08
4.8895e-10
4.10725e-08
4.65109e-10
4.12306e-08
4.40584e-10
4.13774e-08
4.15341e-10
4.15132e-08
3.89421e-10
4.16384e-08
3.63019e-10
4.17534e-08
3.36234e-10
4.18586e-08
3.09128e-10
4.19542e-08
2.81749e-10
4.20404e-08
2.5415e-10
4.21176e-08
2.26386e-10
4.21859e-08
1.98521e-10
4.22454e-08
1.70623e-10
4.22964e-08
1.42773e-10
1.15048e-10
4.23388e-08
3.08107e-08
3.45423e-10
3.09456e-08
3.30219e-10
3.10718e-08
3.14415e-10
3.11894e-08
2.97704e-10
3.12986e-08
2.80193e-10
3.13996e-08
2.62055e-10
3.14925e-08
2.43384e-10
3.15773e-08
2.24251e-10
3.16544e-08
2.04724e-10
3.17236e-08
1.8487e-10
3.17853e-08
1.64756e-10
3.18393e-08
1.44459e-10
3.18859e-08
1.24051e-10
3.19251e-08
1.03618e-10
8.32324e-11
3.19569e-08
2.28461e-08
2.35305e-10
2.29502e-08
2.26137e-10
2.30482e-08
2.16489e-10
2.31399e-08
2.05929e-10
2.32255e-08
1.94626e-10
2.33048e-08
1.8271e-10
2.3378e-08
1.70256e-10
2.34449e-08
1.57331e-10
2.35056e-08
1.44002e-10
2.35602e-08
1.30333e-10
2.36085e-08
1.16391e-10
2.36507e-08
1.02244e-10
2.36868e-08
8.79591e-11
2.37168e-08
7.36142e-11
5.92709e-11
2.37408e-08
1.6614e-08
1.53248e-10
1.66921e-08
1.48088e-10
1.6766e-08
1.42571e-10
1.68356e-08
1.36266e-10
1.69009e-08
1.29366e-10
1.69617e-08
1.21949e-10
1.70178e-08
1.14072e-10
1.70694e-08
1.0579e-10
1.71162e-08
9.71555e-11
1.71583e-08
8.82244e-11
1.71957e-08
7.90496e-11
1.72282e-08
6.9688e-11
1.7256e-08
6.01938e-11
1.7279e-08
5.06302e-11
4.10453e-11
1.72972e-08
1.17821e-08
9.40723e-11
1.18387e-08
9.1411e-11
1.18928e-08
8.85097e-11
1.19441e-08
8.50106e-11
1.19923e-08
8.10902e-11
1.20375e-08
7.6783e-11
1.20795e-08
7.2128e-11
1.21181e-08
6.71645e-11
1.21533e-08
6.19311e-11
1.21851e-08
5.6468e-11
1.22133e-08
5.08143e-11
1.2238e-08
4.50114e-11
1.22591e-08
3.90987e-11
1.22766e-08
3.31234e-11
2.71216e-11
1.22905e-08
8.0729e-09
5.30975e-11
8.11244e-09
5.18727e-11
8.15044e-09
5.0513e-11
8.18669e-09
4.87613e-11
8.22103e-09
4.6745e-11
8.25334e-09
4.4472e-11
8.28351e-09
4.19667e-11
8.31142e-09
3.92537e-11
8.33699e-09
3.63576e-11
8.36015e-09
3.33047e-11
8.38085e-09
3.01199e-11
8.39903e-09
2.68307e-11
8.41467e-09
2.34619e-11
8.42774e-09
2.0046e-11
1.66093e-11
8.43825e-09
5.25672e-09
2.62827e-11
5.2828e-09
2.57965e-11
5.30805e-09
2.52639e-11
5.33229e-09
2.4518e-11
5.35541e-09
2.36286e-11
5.37728e-09
2.25929e-11
5.39783e-09
2.14242e-11
5.41695e-09
2.01357e-11
5.43456e-09
1.87409e-11
5.45061e-09
1.72544e-11
5.46504e-09
1.56899e-11
5.47781e-09
1.40631e-11
5.48888e-09
1.23873e-11
5.49825e-09
1.06821e-11
8.96649e-12
5.50589e-09
3.14494e-09
1.02462e-11
3.16066e-09
1.00834e-11
3.17598e-09
9.93534e-12
3.1908e-09
9.7013e-12
3.20503e-09
9.40481e-12
3.21857e-09
9.04295e-12
3.23138e-09
8.62141e-12
3.24337e-09
8.14589e-12
3.25449e-09
7.62212e-12
3.26468e-09
7.05664e-12
3.27392e-09
6.45529e-12
3.28216e-09
5.82507e-12
3.28937e-09
5.17146e-12
3.29555e-09
4.50407e-12
3.8359e-12
3.30068e-09
1.58425e-09
2.22307e-12
1.59216e-09
2.17481e-12
1.59993e-09
2.1625e-12
1.6075e-09
2.13199e-12
1.61482e-09
2.08476e-12
1.62184e-09
2.02035e-12
1.62853e-09
1.94032e-12
1.63483e-09
1.84625e-12
1.64071e-09
1.73959e-12
1.64614e-09
1.62211e-12
1.6511e-09
1.49522e-12
1.65557e-09
1.36082e-12
1.65952e-09
1.22009e-12
1.66295e-09
1.07593e-12
9.35569e-13
1.66585e-09
4.51125e-10
4.533e-10
4.55463e-10
4.57595e-10
4.59679e-10
4.617e-10
4.6364e-10
4.65486e-10
4.67226e-10
4.68848e-10
4.70343e-10
4.71704e-10
4.72924e-10
4.74e-10
4.74936e-10
1.1832e-09
-5.11668e-10
3.21237e-10
1.45306e-09
-4.68784e-10
1.9892e-10
1.72218e-09
-3.60747e-10
9.16287e-11
1.9847e-09
-2.4688e-10
-1.56401e-11
2.23932e-09
-1.30707e-10
-1.23913e-10
2.48721e-09
-1.62984e-11
-2.3159e-10
2.73038e-09
9.80815e-11
-3.41257e-10
2.9706e-09
2.15582e-10
-4.55798e-10
3.20935e-09
3.39776e-10
-5.78526e-10
3.44781e-09
4.74753e-10
-7.13215e-10
3.68691e-09
6.25254e-10
-8.64353e-10
3.92745e-09
7.97222e-10
-1.03776e-09
4.17031e-09
9.98352e-10
-1.24122e-09
4.41669e-09
1.23903e-09
-1.48541e-09
4.66837e-09
1.53265e-09
-1.78433e-09
4.92826e-09
1.89402e-09
-2.15391e-09
5.20068e-09
2.34013e-09
-2.61255e-09
5.49155e-09
2.88973e-09
-3.1806e-09
5.80885e-09
3.55071e-09
-3.86801e-09
6.16255e-09
4.30438e-09
-4.65808e-09
6.56197e-09
5.06926e-09
-5.46867e-09
7.01068e-09
5.6507e-09
-6.09941e-09
7.42719e-09
4.87975e-09
-5.29625e-09
7.77121e-09
3.42291e-09
-3.76693e-09
8.03882e-09
1.85519e-09
-2.1228e-09
8.23189e-09
3.34798e-10
-5.27864e-10
8.35468e-09
-1.04016e-09
9.17373e-10
8.41225e-09
-2.22646e-09
2.16889e-09
8.40972e-09
-3.20746e-09
3.20999e-09
8.3518e-09
-3.9763e-09
4.03422e-09
8.2428e-09
-4.53217e-09
4.64117e-09
8.08686e-09
-4.87917e-09
5.03511e-09
7.88813e-09
-5.0254e-09
5.22413e-09
7.65074e-09
-4.98239e-09
5.21978e-09
7.37861e-09
-4.76443e-09
5.03656e-09
7.07523e-09
-4.38744e-09
4.69082e-09
6.74341e-09
-3.86732e-09
4.19914e-09
6.38522e-09
-3.21763e-09
3.57582e-09
6.00216e-09
-2.44666e-09
2.82971e-09
5.5949e-09
-1.55497e-09
1.96223e-09
5.16097e-09
-5.39718e-10
9.73651e-10
4.68898e-09
5.84823e-10
-1.12837e-10
4.15887e-09
1.72563e-09
-1.19552e-09
3.57644e-09
2.64829e-09
-2.06586e-09
2.67219e-09
3.23233e-09
-2.32807e-09
2.45182e-09
-5.84715e-10
2.60683e-09
-6.23795e-10
2.81738e-09
-5.71292e-10
3.05185e-09
-4.81353e-10
3.29662e-09
-3.75483e-10
3.54488e-09
-2.64559e-10
3.79439e-09
-1.51422e-10
4.04472e-09
-3.47448e-11
4.29615e-09
8.83381e-11
4.54925e-09
2.21655e-10
4.80463e-09
3.69875e-10
5.06297e-09
5.38885e-10
5.32515e-09
7.36172e-10
5.59244e-09
9.71744e-10
5.86677e-09
1.25832e-09
6.15133e-09
1.60945e-09
6.45083e-09
2.04063e-09
6.77164e-09
2.56892e-09
7.12229e-09
3.20006e-09
7.51348e-09
3.91319e-09
7.95525e-09
4.62748e-09
8.45175e-09
5.15421e-09
8.9137e-09
4.4178e-09
9.29698e-09
3.03963e-09
9.59716e-09
1.55501e-09
9.81598e-09
1.15976e-10
9.95777e-09
-1.18195e-09
1.00278e-08
-2.29652e-09
1.00317e-08
-3.21138e-09
9.97488e-09
-3.91944e-09
9.86231e-09
-4.41959e-09
9.69905e-09
-4.71592e-09
9.49028e-09
-4.81663e-09
9.24131e-09
-4.73342e-09
8.95753e-09
-4.48065e-09
8.6443e-09
-4.07421e-09
8.30697e-09
-3.52999e-09
7.95131e-09
-2.86197e-09
7.58474e-09
-2.08009e-09
7.21827e-09
-1.1885e-09
6.86866e-09
-1.90105e-10
6.55908e-09
8.94402e-10
6.32174e-09
1.96298e-09
6.20925e-09
2.76078e-09
2.73718e-09
6.14426e-09
4.25263e-09
-5.93221e-10
4.3157e-09
-6.86869e-10
4.44312e-09
-6.98705e-10
4.6206e-09
-6.58839e-10
4.82862e-09
-5.83499e-10
5.05501e-09
-4.90948e-10
5.29307e-09
-3.89485e-10
5.53924e-09
-2.80907e-10
5.79173e-09
-1.64158e-10
6.04986e-09
-3.64718e-11
6.3135e-09
1.06238e-10
6.58291e-09
2.69468e-10
6.85881e-09
4.60274e-10
7.14242e-09
6.88136e-10
7.43573e-09
9.65009e-10
7.74219e-09
1.303e-09
8.06689e-09
1.71593e-09
8.4166e-09
2.21921e-09
8.80037e-09
2.81629e-09
9.22959e-09
3.48397e-09
9.71497e-09
4.1421e-09
1.02611e-08
4.60803e-09
1.07708e-08
3.90815e-09
1.11957e-08
2.61476e-09
1.15307e-08
1.22e-09
1.17774e-08
-1.30726e-10
1.19401e-08
-1.34466e-09
1.20243e-08
-2.38072e-09
1.20361e-08
-3.22317e-09
1.19816e-08
-3.86493e-09
1.18667e-08
-4.30477e-09
1.16977e-08
-4.5469e-09
1.1481e-08
-4.59985e-09
1.12232e-08
-4.47569e-09
1.09318e-08
-4.18918e-09
1.06142e-08
-3.75668e-09
1.02791e-08
-3.19486e-09
9.93652e-09
-2.5194e-09
9.60041e-09
-1.74398e-09
9.29193e-09
-8.80025e-10
9.04372e-09
5.81117e-11
8.90071e-09
1.03741e-09
8.90584e-09
1.95784e-09
9.05756e-09
2.60906e-09
2.63066e-09
9.16407e-09
6.71134e-09
-5.64421e-10
6.7105e-09
-6.86026e-10
6.75791e-09
-7.46109e-10
6.85926e-09
-7.60197e-10
7.00697e-09
-7.31209e-10
7.18712e-09
-6.71092e-10
7.39141e-09
-5.93783e-10
7.61376e-09
-5.03251e-10
7.85024e-09
-4.00642e-10
8.09859e-09
-2.84818e-10
8.35761e-09
-1.52783e-10
8.6269e-09
1.78873e-13
8.90679e-09
1.80384e-10
9.19834e-09
3.9658e-10
9.50353e-09
6.59825e-10
9.82599e-09
9.80532e-10
1.01712e-08
1.37071e-09
1.05463e-08
1.84411e-09
1.09608e-08
2.40183e-09
1.14267e-08
3.0181e-09
1.19552e-08
3.61356e-09
1.25514e-08
4.01184e-09
1.31097e-08
3.34984e-09
1.35774e-08
2.14703e-09
1.39487e-08
8.4875e-10
1.42247e-08
-4.06739e-10
1.44097e-08
-1.52966e-09
1.45093e-08
-2.48033e-09
1.45302e-08
-3.24404e-09
1.44793e-08
-3.81402e-09
1.43637e-08
-4.18919e-09
1.41908e-08
-4.37407e-09
1.39687e-08
-4.37773e-09
1.37059e-08
-4.21287e-09
1.34117e-08
-3.89502e-09
1.30966e-08
-3.44151e-09
1.27722e-08
-2.87054e-09
1.24533e-08
-2.20049e-09
1.21593e-08
-1.44995e-09
1.1918e-08
-6.38713e-10
1.17686e-08
2.07546e-10
1.17588e-08
1.0472e-09
1.19206e-08
1.79604e-09
1.22207e-08
2.30892e-09
2.39794e-09
1.24534e-08
9.99532e-09
-5.17238e-10
9.95167e-09
-6.42374e-10
9.93768e-09
-7.32129e-10
9.96462e-09
-7.87134e-10
1.00366e-08
-8.03228e-10
1.01506e-08
-7.85031e-10
1.02987e-08
-7.41886e-10
1.04747e-08
-6.79283e-10
1.06738e-08
-5.9977e-10
1.08927e-08
-5.03636e-10
1.1129e-08
-3.8914e-10
1.13818e-08
-2.526e-10
1.16509e-08
-8.87257e-11
1.19372e-08
1.10295e-10
1.22425e-08
3.54493e-10
1.25708e-08
6.52277e-10
1.29279e-08
1.01363e-09
1.33211e-08
1.45082e-09
1.37605e-08
1.96244e-09
1.42586e-08
2.52001e-09
1.48271e-08
3.0451e-09
1.54711e-08
3.36785e-09
1.60769e-08
2.74403e-09
1.6587e-08
1.63687e-09
1.69945e-08
4.41247e-10
1.73002e-08
-7.12384e-10
1.7508e-08
-1.73747e-09
1.76237e-08
-2.59603e-09
1.76545e-08
-3.27484e-09
1.76084e-08
-3.76788e-09
1.74937e-08
-4.07447e-09
1.73193e-08
-4.19974e-09
1.70951e-08
-4.1535e-09
1.68316e-08
-3.94937e-09
1.65405e-08
-3.60394e-09
1.62349e-08
-3.13595e-09
1.593e-08
-2.56559e-09
1.56438e-08
-1.91431e-09
1.53993e-08
-1.20541e-09
1.52258e-08
-4.65265e-10
1.51598e-08
2.73591e-10
1.52385e-08
9.6852e-10
1.54771e-08
1.55739e-09
1.58311e-08
1.95494e-09
2.07562e-09
1.61534e-08
1.43039e-08
-4.63005e-10
1.42382e-08
-5.76677e-10
1.41823e-08
-6.76241e-10
1.41493e-08
-7.54132e-10
1.41499e-08
-8.03791e-10
1.4189e-08
-8.24194e-10
1.42652e-08
-8.18115e-10
1.43753e-08
-7.89311e-10
1.45155e-08
-7.39993e-10
1.46828e-08
-6.70937e-10
1.48749e-08
-5.81237e-10
1.50904e-08
-4.68131e-10
1.53292e-08
-3.2746e-10
1.55919e-08
-1.52446e-10
1.58805e-08
6.5885e-11
1.61992e-08
3.33553e-10
1.65545e-08
6.58331e-10
1.6954e-08
1.05131e-09
1.7408e-08
1.50847e-09
1.79296e-08
1.99838e-09
1.85308e-08
2.44393e-09
1.92165e-08
2.68213e-09
1.98654e-08
2.09513e-09
2.0415e-08
1.08735e-09
2.08565e-08
-2.83013e-13
2.11902e-08
-1.04611e-09
2.14198e-08
-1.96711e-09
2.15511e-08
-2.72732e-09
2.15919e-08
-3.31561e-09
2.15512e-08
-3.72718e-09
2.14388e-08
-3.96208e-09
2.12654e-08
-4.02632e-09
2.10426e-08
-3.93074e-09
2.07833e-08
-3.69005e-09
2.05015e-08
-3.32212e-09
2.02128e-08
-2.84726e-09
1.99349e-08
-2.28768e-09
1.9688e-08
-1.66745e-09
1.94956e-08
-1.01301e-09
1.93842e-08
-3.53836e-10
1.93812e-08
2.76627e-10
1.95086e-08
8.41114e-10
1.97677e-08
1.2983e-09
2.01174e-08
1.6052e-09
1.73061e-09
2.04624e-08
1.98753e-08
-4.06642e-10
1.98019e-08
-5.03251e-10
1.97235e-08
-5.97814e-10
1.96515e-08
-6.82099e-10
1.95972e-08
-7.49531e-10
1.95692e-08
-7.96218e-10
1.9572e-08
-8.20886e-10
1.96068e-08
-8.24161e-10
1.96735e-08
-8.06641e-10
1.9771e-08
-7.68419e-10
1.98983e-08
-7.086e-10
2.0055e-08
-6.24822e-10
2.02415e-08
-5.13898e-10
2.0459e-08
-3.69957e-10
2.07098e-08
-1.84913e-10
2.09989e-08
4.44333e-11
2.13337e-08
3.23512e-10
2.17222e-08
6.62838e-10
2.2175e-08
1.0556e-09
2.27062e-08
1.46725e-09
2.33275e-08
1.82257e-09
2.40437e-08
1.96595e-09
2.47268e-08
1.41206e-09
2.53087e-08
5.05416e-10
2.57788e-08
-4.70352e-10
2.61363e-08
-1.40359e-09
2.63844e-08
-2.21528e-09
2.6529e-08
-2.87186e-09
2.65784e-08
-3.36502e-09
2.65429e-08
-3.69166e-09
2.64337e-08
-3.85293e-09
2.62634e-08
-3.85603e-09
2.60457e-08
-3.71302e-09
2.57955e-08
-3.43981e-09
2.55289e-08
-3.05555e-09
2.52636e-08
-2.58195e-09
2.50186e-08
-2.04269e-09
2.48144e-08
-1.46326e-09
2.46723e-08
-8.70917e-10
2.46129e-08
-2.94441e-10
2.4653e-08
2.36538e-10
2.48007e-08
6.93442e-10
2.50477e-08
1.0513e-09
2.5361e-08
1.29186e-09
1.40888e-09
2.56827e-08
2.6994e-08
-3.47999e-10
2.69184e-08
-4.27645e-10
2.6831e-08
-5.10352e-10
2.6739e-08
-5.90106e-10
2.66509e-08
-6.61489e-10
2.6575e-08
-7.2024e-10
2.65177e-08
-7.636e-10
2.64837e-08
-7.9018e-10
2.64761e-08
-7.99044e-10
2.64969e-08
-7.89258e-10
2.65477e-08
-7.59414e-10
2.66299e-08
-7.07012e-10
2.67456e-08
-6.29611e-10
2.68976e-08
-5.21939e-10
2.70891e-08
-3.76377e-10
2.73266e-08
-1.93105e-10
2.76192e-08
3.09606e-11
2.79753e-08
3.06771e-10
2.84064e-08
6.24494e-10
2.89275e-08
9.4614e-10
2.95506e-08
1.19947e-09
3.02796e-08
1.2369e-09
3.09822e-08
7.09525e-10
3.15846e-08
-9.70463e-11
3.20734e-08
-9.59179e-10
3.24467e-08
-1.77681e-09
3.27069e-08
-2.47556e-09
3.28599e-08
-3.02479e-09
3.29147e-08
-3.41982e-09
3.28827e-08
-3.65969e-09
3.27768e-08
-3.74699e-09
3.26112e-08
-3.69046e-09
3.24016e-08
-3.50348e-09
3.21649e-08
-3.20306e-09
3.19187e-08
-2.80938e-09
3.16817e-08
-2.34496e-09
3.1473e-08
-1.83397e-09
3.13114e-08
-1.30164e-09
3.12141e-08
-7.73662e-10
3.1195e-08
-2.7527e-10
3.12613e-08
1.70168e-10
3.14118e-08
5.43009e-10
3.16333e-08
8.29758e-10
3.19004e-08
1.02482e-09
1.13168e-09
3.21776e-08
3.59922e-08
-2.84063e-10
3.59137e-08
-3.4912e-10
3.58221e-08
-4.18773e-10
3.57212e-08
-4.8916e-10
3.5616e-08
-5.56274e-10
3.55122e-08
-6.16532e-10
3.54157e-08
-6.67105e-10
3.53316e-08
-7.0601e-10
3.52642e-08
-7.31651e-10
3.52175e-08
-7.42618e-10
3.51954e-08
-7.37246e-10
3.52012e-08
-7.12833e-10
3.52394e-08
-6.6783e-10
3.53149e-08
-5.97378e-10
3.54323e-08
-4.93815e-10
3.56008e-08
-3.61599e-10
3.58315e-08
-1.99798e-10
3.6134e-08
4.30575e-12
3.6521e-08
2.37528e-10
3.70092e-08
4.57892e-10
3.76108e-08
5.97897e-10
3.83291e-08
5.18584e-10
3.90303e-08
8.34219e-12
3.96358e-08
-7.02534e-10
4.01286e-08
-1.45202e-09
4.05053e-08
-2.15345e-09
4.07675e-08
-2.73782e-09
4.0921e-08
-3.17822e-09
4.09755e-08
-3.47439e-09
4.09437e-08
-3.6279e-09
4.08398e-08
-3.643e-09
4.06795e-08
-3.53023e-09
4.04804e-08
-3.30433e-09
4.02604e-08
-2.98313e-09
4.00383e-08
-2.5872e-09
3.98323e-08
-2.13903e-09
3.96603e-08
-1.66199e-09
3.95381e-08
-1.17936e-09
3.94779e-08
-7.13483e-10
3.94872e-08
-2.84571e-10
3.95668e-08
9.05938e-11
3.97101e-08
3.99664e-10
3.99032e-08
6.36637e-10
4.01263e-08
8.0172e-10
9.01175e-10
4.03568e-08
4.72432e-08
-2.11803e-10
4.71589e-08
-2.64847e-10
4.70627e-08
-3.22581e-10
4.69562e-08
-3.82652e-10
4.68422e-08
-4.42256e-10
4.67243e-08
-4.9862e-10
4.66065e-08
-5.49291e-10
4.64928e-08
-5.92347e-10
4.63873e-08
-6.26123e-10
4.62939e-08
-6.49298e-10
4.62172e-08
-6.60477e-10
4.61614e-08
-6.5705e-10
4.61325e-08
-6.38939e-10
4.6137e-08
-6.01853e-10
4.6181e-08
-5.37809e-10
4.62763e-08
-4.56908e-10
4.64367e-08
-3.60211e-10
4.6672e-08
-2.31019e-10
4.69978e-08
-8.82213e-11
4.74328e-08
2.28716e-11
4.79893e-08
4.13529e-11
4.86705e-08
-1.6256e-10
4.93452e-08
-6.66357e-10
4.99315e-08
-1.28887e-09
5.04092e-08
-1.92968e-09
5.07729e-08
-2.51716e-09
5.10234e-08
-2.98837e-09
5.11664e-08
-3.32124e-09
5.12129e-08
-3.52086e-09
5.11763e-08
-3.59124e-09
5.10716e-08
-3.53837e-09
5.09162e-08
-3.37486e-09
5.07286e-08
-3.11667e-09
5.05273e-08
-2.78186e-09
5.03307e-08
-2.39063e-09
5.01561e-08
-1.96439e-09
5.00185e-08
-1.52442e-09
4.993e-08
-1.09085e-09
4.98982e-08
-6.81708e-10
4.99257e-08
-3.11984e-10
5.00089e-08
7.3292e-12
5.014e-08
2.68596e-10
5.03058e-08
4.70784e-10
5.04913e-08
6.16247e-10
7.11299e-10
5.06812e-08
6.11494e-08
-1.30253e-10
6.1058e-08
-1.73457e-10
6.09564e-08
-2.20951e-10
6.08451e-08
-2.71381e-10
6.07257e-08
-3.22897e-10
6.06006e-08
-3.7348e-10
6.04725e-08
-4.21154e-10
6.03444e-08
-4.64268e-10
6.02195e-08
-5.01287e-10
6.01014e-08
-5.31129e-10
5.99938e-08
-5.52876e-10
5.99009e-08
-5.64204e-10
5.98287e-08
-5.6675e-10
5.97839e-08
-5.57055e-10
5.97735e-08
-5.27415e-10
5.98107e-08
-4.94013e-10
5.99096e-08
-4.59136e-10
6.00809e-08
-4.02326e-10
6.03427e-08
-3.50012e-10
6.07152e-08
-3.49642e-10
6.12112e-08
-4.54657e-10
6.18331e-08
-7.84484e-10
6.24571e-08
-1.29036e-09
6.30011e-08
-1.83282e-09
6.34426e-08
-2.37124e-09
6.37751e-08
-2.84966e-09
6.39983e-08
-3.21149e-09
6.41183e-08
-3.44125e-09
6.41475e-08
-3.55013e-09
6.41001e-08
-3.54376e-09
6.39914e-08
-3.42974e-09
6.38397e-08
-3.22308e-09
6.36635e-08
-2.94054e-09
6.34813e-08
-2.59966e-09
6.33101e-08
-2.21938e-09
6.31647e-08
-1.81903e-09
6.30572e-08
-1.41691e-09
6.29957e-08
-1.02932e-09
6.29839e-08
-6.69952e-10
6.30212e-08
-3.49218e-10
6.3102e-08
-7.34854e-11
6.32184e-08
1.52187e-10
6.33593e-08
3.29849e-10
6.35133e-08
4.62256e-10
5.54949e-10
6.36697e-08
7.81396e-08
-4.12968e-11
7.80427e-08
-7.65716e-11
7.79374e-08
-1.15601e-10
7.78237e-08
-1.57689e-10
7.77025e-08
-2.01728e-10
7.75754e-08
-2.4638e-10
7.74445e-08
-2.90208e-10
7.73122e-08
-3.31957e-10
7.71813e-08
-3.70371e-10
7.70548e-08
-4.04673e-10
7.69362e-08
-4.34284e-10
7.68296e-08
-4.57616e-10
7.674e-08
-4.77168e-10
7.66731e-08
-4.90069e-10
7.66386e-08
-4.92918e-10
7.66474e-08
-5.02808e-10
7.67071e-08
-5.18866e-10
7.68341e-08
-5.29382e-10
7.70487e-08
-5.64543e-10
7.73685e-08
-6.69472e-10
7.78045e-08
-8.90613e-10
7.83582e-08
-1.33825e-09
7.89159e-08
-1.84806e-09
7.93996e-08
-2.31646e-09
7.97877e-08
-2.75933e-09
8.00731e-08
-3.13507e-09
8.02546e-08
-3.39298e-09
8.03403e-08
-3.52694e-09
8.03446e-08
-3.55447e-09
8.02813e-08
-3.48043e-09
8.01659e-08
-3.31434e-09
8.00167e-08
-3.07388e-09
7.98519e-08
-2.77577e-09
7.96884e-08
-2.43612e-09
7.95409e-08
-2.07189e-09
7.94215e-08
-1.69965e-09
7.93389e-08
-1.33428e-09
7.92977e-08
-9.88204e-10
7.9299e-08
-6.71192e-10
7.93399e-08
-3.90095e-10
7.94151e-08
-1.4876e-10
7.95164e-08
5.09609e-11
7.96353e-08
2.10917e-10
7.97631e-08
3.34485e-10
4.26097e-10
7.98919e-08
9.86922e-08
5.13487e-11
9.85936e-08
2.21012e-11
9.84883e-08
-1.03709e-11
9.83765e-08
-4.58389e-11
9.82585e-08
-8.37389e-11
9.81354e-08
-1.23305e-10
9.80089e-08
-1.63673e-10
9.7881e-08
-2.04063e-10
9.77543e-08
-2.43626e-10
9.76317e-08
-2.82124e-10
9.75164e-08
-3.18955e-10
9.74131e-08
-3.54293e-10
9.73259e-08
-3.90043e-10
9.72591e-08
-4.232e-10
9.72285e-08
-4.62371e-10
9.72355e-08
-5.09759e-10
9.72809e-08
-5.64306e-10
9.73908e-08
-6.39271e-10
9.75868e-08
-7.60544e-10
9.78771e-08
-9.59744e-10
9.82688e-08
-1.28233e-09
9.87614e-08
-1.83088e-09
9.92505e-08
-2.33718e-09
9.96667e-08
-2.73267e-09
9.9993e-08
-3.08563e-09
1.00223e-07
-3.36469e-09
1.00354e-07
-3.52439e-09
1.004e-07
-3.57239e-09
1.00376e-07
-3.53095e-09
1.00295e-07
-3.39951e-09
1.00172e-07
-3.19175e-09
1.00027e-07
-2.92797e-09
9.98739e-08
-2.62308e-09
9.97288e-08
-2.29106e-09
9.96034e-08
-1.94653e-09
9.95068e-08
-1.60303e-09
9.94445e-08
-1.27195e-09
9.94186e-08
-9.62308e-10
9.94281e-08
-6.8075e-10
9.94696e-08
-4.31595e-10
9.95377e-08
-2.16829e-10
9.96249e-08
-3.62259e-11
9.97252e-08
1.10664e-10
9.98314e-08
2.28224e-10
3.19573e-10
9.99379e-08
1.23379e-07