/*--------------------------------*- C++ -*----------------------------------*\
| =========                 |                                                 |
| \\      /  F ield         | OpenFOAM: The Open Source CFD Toolbox           |
|  \\    /   O peration     | Version:  2312                                  |
|   \\  /    A nd           | Website:  www.openfoam.com                      |
|    \\/     M anipulation  |                                                 |
\*---------------------------------------------------------------------------*/
FoamFile
{
    version     2.0;
    format      ascii;
    arch        "LSB;label=32;scalar=64";
    class       volScalarField;
    location    "107";
    object      p;
}
// * * * * * * * * * * * * * * * * * * * * * * * * * * * * * * * * * * * * * //

dimensions      [0 2 -2 0 0 0 0];

internalField   nonuniform List<scalar> 
4800
(
-5.79694e-13
-1.51553e-06
-2.71943e-06
-3.69151e-06
-4.48841e-06
-5.15167e-06
-5.70756e-06
-6.18801e-06
-6.60652e-06
-6.97378e-06
-7.30063e-06
-7.59063e-06
-7.83972e-06
-8.27782e-06
-9.81861e-06
1.92444e-08
-1.49395e-06
-2.69687e-06
-3.66897e-06
-4.46664e-06
-5.13174e-06
-5.69047e-06
-6.17516e-06
-6.59965e-06
-6.9761e-06
-7.32035e-06
-7.64901e-06
-7.97706e-06
-8.41083e-06
-9.18787e-06
3.93766e-08
-1.47132e-06
-2.67324e-06
-3.64544e-06
-4.44409e-06
-5.11103e-06
-5.67227e-06
-6.15932e-06
-6.58862e-06
-6.97195e-06
-7.32608e-06
-7.66884e-06
-8.0092e-06
-8.35761e-06
-8.69464e-06
5.95255e-08
-1.44824e-06
-2.64881e-06
-3.62078e-06
-4.42003e-06
-5.08818e-06
-5.65182e-06
-6.13914e-06
-6.57042e-06
-6.95551e-06
-7.30771e-06
-7.63725e-06
-7.93774e-06
-8.18126e-06
-8.30345e-06
8.12432e-08
-1.42295e-06
-2.62169e-06
-3.59294e-06
-4.39225e-06
-5.06074e-06
-5.62579e-06
-6.11196e-06
-6.54069e-06
-6.92081e-06
-7.25924e-06
-7.55733e-06
-7.79847e-06
-7.9475e-06
-7.95363e-06
1.0588e-07
-1.39407e-06
-2.59039e-06
-3.56031e-06
-4.3589e-06
-5.02655e-06
-5.59101e-06
-6.07389e-06
-6.49498e-06
-6.86182e-06
-7.17569e-06
-7.4315e-06
-7.61089e-06
-7.68698e-06
-7.63414e-06
1.35486e-07
-1.3596e-06
-2.55281e-06
-3.52056e-06
-4.31725e-06
-4.98236e-06
-5.54282e-06
-6.01918e-06
-6.42753e-06
-6.77319e-06
-7.05453e-06
-7.26437e-06
-7.38905e-06
-7.41515e-06
-7.33676e-06
1.73831e-07
-1.31589e-06
-2.50524e-06
-3.46973e-06
-4.26292e-06
-4.92321e-06
-5.47646e-06
-5.9416e-06
-6.33168e-06
-6.65045e-06
-6.89578e-06
-7.06253e-06
-7.14448e-06
-7.14003e-06
-7.05427e-06
2.27035e-07
-1.257e-06
-2.44166e-06
-3.40156e-06
-4.18927e-06
-4.84199e-06
-5.38447e-06
-5.83388e-06
-6.20126e-06
-6.49039e-06
-6.70092e-06
-6.83196e-06
-6.88439e-06
-6.86429e-06
-6.7814e-06
3.03732e-07
-1.17428e-06
-2.35325e-06
-3.307e-06
-4.08697e-06
-4.72919e-06
-5.25744e-06
-5.68768e-06
-6.03027e-06
-6.29043e-06
-6.47109e-06
-6.57597e-06
-6.61107e-06
-6.58637e-06
-6.51267e-06
4.14571e-07
-1.05654e-06
-2.22836e-06
-3.17408e-06
-3.94394e-06
-4.57295e-06
-5.08435e-06
-5.49383e-06
-5.81231e-06
-6.04736e-06
-6.2055e-06
-6.29415e-06
-6.32224e-06
-6.30106e-06
-6.2408e-06
5.71488e-07
-8.90613e-07
-2.053e-06
-2.98833e-06
-3.74575e-06
-4.35952e-06
-4.85294e-06
-5.24231e-06
-5.54e-06
-5.75622e-06
-5.90024e-06
-5.98189e-06
-6.01133e-06
-5.99967e-06
-5.95591e-06
7.87795e-07
-6.61382e-07
-1.81097e-06
-2.73308e-06
-3.47599e-06
-4.07358e-06
-4.5497e-06
-4.92193e-06
-5.20434e-06
-5.40918e-06
-5.54752e-06
-5.63026e-06
-5.6677e-06
-5.67007e-06
-5.64516e-06
1.07882e-06
-3.51027e-07
-1.48319e-06
-2.38889e-06
-3.11576e-06
-3.69757e-06
-4.15898e-06
-4.51886e-06
-4.79269e-06
-4.99394e-06
-5.13452e-06
-5.2254e-06
-5.27629e-06
-5.29638e-06
-5.29237e-06
1.46166e-06
6.09629e-08
-1.0474e-06
-1.93296e-06
-2.64273e-06
-3.21044e-06
-3.66121e-06
-4.01464e-06
-4.28689e-06
-4.49195e-06
-4.64179e-06
-4.7469e-06
-4.81609e-06
-4.85733e-06
-4.8765e-06
1.95342e-06
5.96025e-07
-4.79767e-07
-1.3404e-06
-2.03189e-06
-2.58765e-06
-3.03255e-06
-3.38595e-06
-3.6636e-06
-3.87906e-06
-4.04384e-06
-4.16824e-06
-4.26006e-06
-4.32597e-06
-4.37104e-06
2.56827e-06
1.27318e-06
2.41617e-07
-5.87791e-07
-1.25894e-06
-1.80407e-06
-2.24707e-06
-2.60629e-06
-2.89617e-06
-3.12841e-06
-3.31373e-06
-3.46187e-06
-3.58037e-06
-3.67463e-06
-3.74882e-06
3.31349e-06
2.10423e-06
1.13166e-06
3.41552e-07
-3.05939e-07
-8.40274e-07
-1.28325e-06
-1.65156e-06
-1.95828e-06
-2.21334e-06
-2.42539e-06
-2.60249e-06
-2.75256e-06
-2.88006e-06
-2.9881e-06
4.18522e-06
3.08753e-06
2.19094e-06
1.4502e-06
8.31362e-07
3.09418e-07
-1.33764e-07
-5.11609e-07
-8.3488e-07
-1.11323e-06
-1.3554e-06
-1.56609e-06
-1.75202e-06
-1.91711e-06
-2.06417e-06
5.16216e-06
4.19923e-06
3.39445e-06
2.7132e-06
2.12895e-06
1.62205e-06
1.17853e-06
7.89191e-07
4.47568e-07
1.4679e-07
-1.20542e-07
-3.63052e-07
-5.83485e-07
-7.84879e-07
-9.70694e-07
6.15436e-06
5.33219e-06
4.62484e-06
4.00774e-06
3.46187e-06
2.97345e-06
2.53334e-06
2.13396e-06
1.76875e-06
1.43687e-06
1.13668e-06
8.6233e-07
6.04522e-07
3.60332e-07
1.28318e-07
7.00635e-06
6.30551e-06
5.68379e-06
5.12487e-06
4.61621e-06
4.14887e-06
3.71632e-06
3.31533e-06
2.94319e-06
2.59205e-06
2.25757e-06
1.94016e-06
1.64374e-06
1.36203e-06
1.08933e-06
7.66167e-06
7.04985e-06
6.49071e-06
5.97414e-06
5.49216e-06
5.03943e-06
4.61192e-06
4.20563e-06
3.81717e-06
3.44364e-06
3.0939e-06
2.75737e-06
2.43353e-06
2.11923e-06
1.81179e-06
8.14163e-06
7.59494e-06
7.08199e-06
6.59729e-06
6.13625e-06
5.69566e-06
5.27317e-06
4.86725e-06
4.4766e-06
4.10087e-06
3.72909e-06
3.37097e-06
3.02204e-06
2.67969e-06
2.34283e-06
8.48343e-06
7.98424e-06
7.50608e-06
7.04633e-06
6.60242e-06
6.17261e-06
5.75557e-06
5.34999e-06
4.95409e-06
4.56621e-06
4.18445e-06
3.80938e-06
3.43988e-06
3.07499e-06
2.71387e-06
8.71909e-06
8.25483e-06
7.80315e-06
7.36284e-06
6.93251e-06
6.51119e-06
6.09774e-06
5.6909e-06
5.29003e-06
4.89335e-06
4.50098e-06
4.11216e-06
3.72646e-06
3.3434e-06
2.96233e-06
8.87581e-06
8.43758e-06
8.00597e-06
7.5805e-06
7.16035e-06
6.74502e-06
6.33359e-06
5.92519e-06
5.5194e-06
5.11703e-06
4.71594e-06
4.31607e-06
3.9173e-06
3.51937e-06
3.12194e-06
8.97624e-06
8.55764e-06
8.14129e-06
7.72705e-06
7.31459e-06
6.90373e-06
6.49401e-06
6.08479e-06
5.67595e-06
5.26771e-06
4.85915e-06
4.45011e-06
4.04054e-06
3.63041e-06
3.2196e-06
9.03825e-06
8.63474e-06
8.23016e-06
7.82465e-06
7.41825e-06
7.01096e-06
6.60254e-06
6.19264e-06
5.78103e-06
5.36794e-06
4.95306e-06
4.53637e-06
4.11789e-06
3.69774e-06
3.27594e-06
9.07527e-06
8.68367e-06
8.2884e-06
7.88988e-06
7.48835e-06
7.08387e-06
6.67633e-06
6.26582e-06
5.85168e-06
5.43457e-06
5.0144e-06
4.59131e-06
4.16541e-06
3.73692e-06
3.30598e-06
9.09692e-06
8.71494e-06
8.32722e-06
7.93441e-06
7.53683e-06
7.13455e-06
6.72761e-06
6.31624e-06
5.90002e-06
5.47957e-06
5.05496e-06
4.62644e-06
4.19425e-06
3.75871e-06
3.32006e-06
9.10972e-06
8.7357e-06
8.35421e-06
7.96614e-06
7.5718e-06
7.17128e-06
6.76473e-06
6.35209e-06
5.93441e-06
5.51111e-06
5.08268e-06
4.64947e-06
4.21186e-06
3.77025e-06
3.32499e-06
9.11782e-06
8.75051e-06
8.37428e-06
7.99021e-06
7.59855e-06
7.19947e-06
6.79321e-06
6.37984e-06
5.96036e-06
5.53449e-06
5.10269e-06
4.66537e-06
4.22301e-06
3.7761e-06
3.32507e-06
9.12375e-06
8.76217e-06
8.39045e-06
8.00977e-06
7.62035e-06
7.22245e-06
6.81639e-06
6.40237e-06
5.98119e-06
5.55295e-06
5.11817e-06
4.67718e-06
4.23061e-06
3.77902e-06
3.32289e-06
9.12888e-06
8.77228e-06
8.40445e-06
8.02668e-06
7.63916e-06
7.24221e-06
6.83626e-06
6.42157e-06
5.99887e-06
5.56845e-06
5.131e-06
4.68671e-06
4.23638e-06
3.7806e-06
3.31993e-06
9.13389e-06
8.78164e-06
8.4172e-06
8.04193e-06
7.65601e-06
7.25985e-06
6.85393e-06
6.43858e-06
6.01444e-06
5.58211e-06
5.14223e-06
4.69495e-06
4.24123e-06
3.7817e-06
3.31696e-06
9.13902e-06
8.79057e-06
8.42907e-06
8.05595e-06
7.6714e-06
7.27587e-06
6.86993e-06
6.4539e-06
6.0285e-06
5.59449e-06
5.15233e-06
4.70238e-06
4.24563e-06
3.78273e-06
3.31436e-06
9.14438e-06
8.79929e-06
8.44036e-06
8.06908e-06
7.68568e-06
7.29067e-06
6.88465e-06
6.46796e-06
6.04125e-06
5.60587e-06
5.16163e-06
4.70929e-06
4.24981e-06
3.78389e-06
3.31221e-06
9.15027e-06
8.80831e-06
8.45177e-06
8.08216e-06
7.69978e-06
7.30521e-06
6.89908e-06
6.48174e-06
6.05395e-06
5.61701e-06
5.1708e-06
4.71619e-06
4.25413e-06
3.7853e-06
3.31045e-06
9.15629e-06
8.81737e-06
8.46319e-06
8.09532e-06
7.71408e-06
7.31998e-06
6.91372e-06
6.49573e-06
6.06687e-06
5.62834e-06
5.18018e-06
4.72326e-06
4.25849e-06
3.78685e-06
3.30908e-06
-1.10518e-05
-8.8443e-06
-7.49015e-06
-6.57685e-06
-5.84836e-06
-5.29366e-06
-4.87177e-06
-4.55659e-06
-4.33167e-06
-4.18438e-06
-4.10457e-06
-4.08376e-06
-4.11467e-06
-4.19095e-06
-4.30722e-06
-4.45909e-06
-4.64382e-06
-4.861e-06
-5.11429e-06
-5.41224e-06
-5.76311e-06
-6.15795e-06
-6.4988e-06
-6.62971e-06
-6.45604e-06
-5.94906e-06
-5.1173e-06
-3.98002e-06
-2.55896e-06
-8.80371e-07
1.02702e-06
3.13148e-06
5.39689e-06
7.78236e-06
1.02421e-05
1.27258e-05
1.51781e-05
1.75376e-05
1.97314e-05
2.16665e-05
2.3208e-05
2.41592e-05
2.40808e-05
2.25622e-05
1.81218e-05
-9.49206e-06
-8.32915e-06
-7.29424e-06
-6.47647e-06
-5.79184e-06
-5.25253e-06
-4.83686e-06
-4.52516e-06
-4.30319e-06
-4.15912e-06
-4.08301e-06
-4.06641e-06
-4.102e-06
-4.18333e-06
-4.30492e-06
-4.46229e-06
-4.65255e-06
-4.87505e-06
-5.13286e-06
-5.43358e-06
-5.7838e-06
-6.17273e-06
-6.50229e-06
-6.62001e-06
-6.43381e-06
-5.91625e-06
-5.0768e-06
-3.93483e-06
-2.51204e-06
-8.35262e-07
1.06562e-06
3.15721e-06
5.40121e-06
7.7539e-06
1.01658e-05
1.25816e-05
1.49387e-05
1.71647e-05
1.91696e-05
2.08307e-05
2.19566e-05
2.22357e-05
2.10433e-05
1.75703e-05
1.07407e-05
-8.67123e-06
-7.92955e-06
-7.09405e-06
-6.36213e-06
-5.72605e-06
-5.20802e-06
-4.80173e-06
-4.49504e-06
-4.27668e-06
-4.1361e-06
-4.0638e-06
-4.05146e-06
-4.09179e-06
-4.17824e-06
-4.30526e-06
-4.46825e-06
-4.66415e-06
-4.89203e-06
-5.15432e-06
-5.45751e-06
-5.80637e-06
-6.18799e-06
-6.50424e-06
-6.60672e-06
-6.40638e-06
-5.87727e-06
-5.03003e-06
-3.88421e-06
-2.4616e-06
-7.89835e-07
1.0997e-06
3.17155e-06
5.38462e-06
7.69164e-06
1.00386e-05
1.23639e-05
1.45966e-05
1.66521e-05
1.8423e-05
1.97617e-05
2.04454e-05
2.0135e-05
1.82914e-05
1.43835e-05
8.32887e-06
-8.15359e-06
-7.60427e-06
-6.92498e-06
-6.26026e-06
-5.66988e-06
-5.1741e-06
-4.7771e-06
-4.47465e-06
-4.25873e-06
-4.12034e-06
-4.05062e-06
-4.04152e-06
-4.08578e-06
-4.17677e-06
-4.30881e-06
-4.47715e-06
-4.67854e-06
-4.91167e-06
-5.17824e-06
-5.48352e-06
-5.8302e-06
-6.20298e-06
-6.5037e-06
-6.58843e-06
-6.37152e-06
-5.82874e-06
-4.97219e-06
-3.82182e-06
-2.39973e-06
-7.34694e-07
1.13991e-06
3.18599e-06
5.35899e-06
7.60732e-06
9.87154e-06
1.20832e-05
1.41625e-05
1.60136e-05
1.7516e-05
1.85106e-05
1.87789e-05
1.80324e-05
1.59186e-05
1.21997e-05
7.17686e-06
-7.76028e-06
-7.32498e-06
-6.76513e-06
-6.18133e-06
-5.63272e-06
-5.15867e-06
-4.77029e-06
-4.47069e-06
-4.2553e-06
-4.11699e-06
-4.04781e-06
-4.04017e-06
-4.08688e-06
-4.18121e-06
-4.31735e-06
-4.49034e-06
-4.69667e-06
-4.93458e-06
-5.20489e-06
-5.51153e-06
-5.85487e-06
-6.21695e-06
-6.49966e-06
-6.56427e-06
-6.32879e-06
-5.771e-06
-4.90483e-06
-3.75077e-06
-2.33142e-06
-6.77077e-07
1.17649e-06
3.18812e-06
5.30932e-06
7.4837e-06
9.64619e-06
1.17217e-05
1.36227e-05
1.52459e-05
1.64659e-05
1.71299e-05
1.70523e-05
1.60317e-05
1.38938e-05
1.06176e-05
6.5348e-06
-7.43916e-06
-7.0846e-06
-6.61536e-06
-6.11294e-06
-5.61373e-06
-5.16294e-06
-4.78497e-06
-4.48814e-06
-4.27179e-06
-4.13131e-06
-4.06019e-06
-4.05164e-06
-4.09868e-06
-4.19453e-06
-4.33323e-06
-4.5096e-06
-4.71978e-06
-4.96149e-06
-5.23456e-06
-5.54136e-06
-5.87972e-06
-6.22874e-06
-6.49061e-06
-6.53254e-06
-6.27667e-06
-5.70301e-06
-4.82768e-06
-3.67193e-06
-2.25904e-06
-6.21233e-07
1.20298e-06
3.16903e-06
5.22424e-06
7.30735e-06
9.34799e-06
1.12657e-05
1.29683e-05
1.43505e-05
1.52925e-05
1.56624e-05
1.53247e-05
1.41665e-05
1.21423e-05
9.34611e-06
6.07571e-06
-7.15706e-06
-6.86601e-06
-6.47954e-06
-6.04368e-06
-5.60045e-06
-5.18226e-06
-4.82024e-06
-4.52858e-06
-4.31142e-06
-4.16739e-06
-4.09207e-06
-4.08009e-06
-4.12495e-06
-4.21988e-06
-4.35899e-06
-4.53684e-06
-4.74918e-06
-4.99313e-06
-5.26736e-06
-5.57255e-06
-5.90372e-06
-6.23679e-06
-6.47454e-06
-6.49106e-06
-6.21301e-06
-5.62297e-06
-4.73968e-06
-3.58527e-06
-2.18396e-06
-5.70269e-07
1.21416e-06
3.12129e-06
5.09425e-06
7.06734e-06
8.96607e-06
1.07069e-05
1.21973e-05
1.33369e-05
1.40204e-05
1.41469e-05
1.36329e-05
1.24371e-05
1.05896e-05
8.22135e-06
5.57094e-06
-6.89511e-06
-6.65549e-06
-6.33966e-06
-5.97186e-06
-5.58442e-06
-5.20753e-06
-4.86955e-06
-4.58843e-06
-4.37329e-06
-4.22616e-06
-4.14557e-06
-4.12827e-06
-4.1685e-06
-4.2599e-06
-4.39683e-06
-4.57373e-06
-4.78593e-06
-5.02992e-06
-5.30308e-06
-5.60426e-06
-5.92541e-06
-6.23905e-06
-6.44903e-06
-6.43735e-06
-6.13557e-06
-5.52929e-06
-4.64034e-06
-3.49176e-06
-2.10884e-06
-5.2895e-07
1.2029e-06
3.0355e-06
4.90824e-06
6.75203e-06
8.49022e-06
1.00396e-05
1.13121e-05
1.2219e-05
1.26752e-05
1.26139e-05
1.19961e-05
1.08285e-05
9.1764e-06
7.16873e-06
4.98626e-06
-6.64401e-06
-6.44723e-06
-6.19093e-06
-5.88737e-06
-5.55804e-06
-5.22818e-06
-4.92216e-06
-4.65897e-06
-4.45142e-06
-4.30391e-06
-4.21891e-06
-4.19601e-06
-4.23002e-06
-4.31553e-06
-4.44768e-06
-4.62094e-06
-4.8303e-06
-5.07161e-06
-5.34087e-06
-5.63501e-06
-5.94273e-06
-6.23297e-06
-6.41136e-06
-6.36885e-06
-6.04235e-06
-5.42108e-06
-4.53049e-06
-3.3941e-06
-2.03854e-06
-5.04521e-07
1.15943e-06
2.89976e-06
4.65324e-06
6.34904e-06
7.91115e-06
9.26039e-06
1.03178e-05
1.101e-05
1.12782e-05
1.10828e-05
1.04181e-05
9.31762e-06
7.85686e-06
6.14746e-06
4.32313e-06
-6.39737e-06
-6.23746e-06
-6.03176e-06
-5.78606e-06
-5.51379e-06
-5.23382e-06
-4.96599e-06
-4.72815e-06
-4.53522e-06
-4.39178e-06
-4.30582e-06
-4.27936e-06
-4.30683e-06
-4.38492e-06
-4.51021e-06
-4.67733e-06
-4.88103e-06
-5.11669e-06
-5.37886e-06
-5.66252e-06
-5.95299e-06
-6.21563e-06
-6.35879e-06
-6.28343e-06
-5.93224e-06
-5.29896e-06
-4.41315e-06
-3.29774e-06
-1.98061e-06
-5.07084e-07
1.07114e-06
2.69993e-06
4.31506e-06
5.84625e-06
7.22124e-06
8.36872e-06
9.22253e-06
9.72732e-06
9.8453e-06
9.56174e-06
8.89104e-06
7.87778e-06
6.59385e-06
5.1301e-06
3.58478e-06
-6.14783e-06
-6.02086e-06
-5.85893e-06
-5.66459e-06
-5.44592e-06
-5.2161e-06
-4.99035e-06
-4.78422e-06
-4.61037e-06
-4.4766e-06
-4.39669e-06
-4.37083e-06
-4.39258e-06
-4.46282e-06
-4.58013e-06
-4.73924e-06
-4.93484e-06
-5.162e-06
-5.41382e-06
-5.68349e-06
-5.95291e-06
-6.18402e-06
-6.28909e-06
-6.18013e-06
-5.80588e-06
-5.16652e-06
-4.29514e-06
-3.21211e-06
-1.94567e-06
-5.49942e-07
9.22611e-07
2.41999e-06
3.87903e-06
5.23254e-06
6.41504e-06
7.36595e-06
8.03355e-06
8.37971e-06
8.3846e-06
8.04992e-06
7.4003e-06
6.48165e-06
5.35646e-06
4.09611e-06
2.77299e-06
-5.88564e-06
-5.78912e-06
-5.66601e-06
-5.51736e-06
-5.34798e-06
-5.16675e-06
-4.98529e-06
-4.81705e-06
-4.66483e-06
-4.546e-06
-4.48009e-06
-4.45847e-06
-4.47662e-06
-4.54044e-06
-4.65002e-06
-4.80037e-06
-4.98622e-06
-5.20263e-06
-5.4413e-06
-5.69392e-06
-5.93905e-06
-6.13579e-06
-6.20163e-06
-6.0601e-06
-5.6668e-06
-5.03127e-06
-4.19103e-06
-3.14887e-06
-1.94774e-06
-6.50364e-07
6.95802e-07
2.04289e-06
3.33105e-06
4.49874e-06
5.48957e-06
6.25516e-06
6.75799e-06
6.97464e-06
6.89834e-06
6.5401e-06
5.92786e-06
5.10361e-06
4.11885e-06
3.0286e-06
1.88644e-06
-5.59815e-06
-5.53059e-06
-5.44287e-06
-5.33542e-06
-5.21092e-06
-5.07512e-06
-4.9359e-06
-4.80293e-06
-4.6843e-06
-4.59384e-06
-4.54147e-06
-4.52465e-06
-4.5446e-06
-4.60612e-06
-4.7099e-06
-4.85209e-06
-5.0278e-06
-5.23232e-06
-5.4561e-06
-5.68966e-06
-5.90875e-06
-6.07009e-06
-6.09881e-06
-5.9279e-06
-5.52126e-06
-4.91355e-06
-4.11407e-06
-3.12087e-06
-2.00752e-06
-8.30346e-07
3.70604e-07
1.55184e-06
2.65902e-06
3.63866e-06
4.44475e-06
5.04095e-06
5.40221e-06
5.51624e-06
5.38449e-06
5.02196e-06
4.45563e-06
3.72128e-06
2.85988e-06
1.91334e-06
9.21535e-07
-5.26938e-06
-5.23011e-06
-5.17556e-06
-5.10601e-06
-5.02297e-06
-4.93019e-06
-4.83343e-06
-4.74024e-06
-4.65867e-06
-4.59637e-06
-4.56078e-06
-4.55538e-06
-4.5832e-06
-4.64714e-06
-4.74822e-06
-4.88426e-06
-5.05101e-06
-5.24399e-06
-5.45291e-06
-5.6671e-06
-5.86108e-06
-5.98921e-06
-5.98681e-06
-5.79184e-06
-5.39397e-06
-4.82605e-06
-4.06911e-06
-3.15468e-06
-2.15442e-06
-1.11575e-06
-7.35637e-08
9.31737e-07
1.85413e-06
2.65004e-06
3.28376e-06
3.72955e-06
3.97219e-06
4.00692e-06
3.83939e-06
3.48514e-06
2.96785e-06
2.31661e-06
1.56317e-06
7.39163e-07
-1.25661e-07
-4.87889e-06
-4.86819e-06
-4.84593e-06
-4.81249e-06
-4.76887e-06
-4.71762e-06
-4.66291e-06
-4.61013e-06
-4.56516e-06
-4.53379e-06
-4.5222e-06
-4.5354e-06
-4.5767e-06
-4.6483e-06
-4.75146e-06
-4.88537e-06
-5.04654e-06
-5.23052e-06
-5.42709e-06
-5.62411e-06
-5.79734e-06
-5.89976e-06
-5.87505e-06
-5.67431e-06
-5.30217e-06
-4.76674e-06
-4.08747e-06
-3.28799e-06
-2.41843e-06
-1.529e-06
-6.54391e-07
1.71019e-07
9.11585e-07
1.53418e-06
2.01229e-06
2.32839e-06
2.47404e-06
2.4488e-06
2.25985e-06
1.92133e-06
1.45276e-06
8.76879e-07
2.17725e-07
-5.01077e-07
-1.25729e-06
-4.40097e-06
-4.42031e-06
-4.43091e-06
-4.43335e-06
-4.4284e-06
-4.41786e-06
-4.40464e-06
-4.39255e-06
-4.38597e-06
-4.38961e-06
-4.40836e-06
-4.44656e-06
-4.50745e-06
-4.59322e-06
-4.70521e-06
-4.84339e-06
-5.00488e-06
-5.18544e-06
-5.37564e-06
-5.56159e-06
-5.72203e-06
-5.81161e-06
-5.78099e-06
-5.5991e-06
-5.25502e-06
-4.78736e-06
-4.2106e-06
-3.54079e-06
-2.81899e-06
-2.08859e-06
-1.38471e-06
-7.36187e-07
-1.68566e-07
2.95127e-07
6.36392e-07
8.43675e-07
9.12139e-07
8.42867e-07
6.42832e-07
3.24118e-07
-9.78393e-08
-6.05951e-07
-1.18253e-06
-1.81015e-06
-2.47223e-06
-3.80907e-06
-3.8607e-06
-3.90581e-06
-3.9451e-06
-3.97934e-06
-4.00988e-06
-4.03887e-06
-4.06908e-06
-4.1038e-06
-4.14661e-06
-4.20116e-06
-4.27088e-06
-4.35869e-06
-4.46675e-06
-4.59628e-06
-4.74752e-06
-4.91811e-06
-5.10392e-06
-5.29729e-06
-5.48428e-06
-5.64594e-06
-5.73963e-06
-5.72602e-06
-5.57841e-06
-5.29777e-06
-4.92431e-06
-4.46241e-06
-3.93325e-06
-3.36974e-06
-2.80567e-06
-2.27092e-06
-1.78932e-06
-1.38009e-06
-1.05877e-06
-8.36345e-07
-7.19492e-07
-7.11645e-07
-8.12356e-07
-1.016e-06
-1.31276e-06
-1.69085e-06
-2.13792e-06
-2.6414e-06
-3.18872e-06
-3.76758e-06
-3.08298e-06
-3.17045e-06
-3.2528e-06
-3.33105e-06
-3.40619e-06
-3.47947e-06
-3.55257e-06
-3.6276e-06
-3.70695e-06
-3.79322e-06
-3.88918e-06
-3.99747e-06
-4.12052e-06
-4.26021e-06
-4.41757e-06
-4.59286e-06
-4.78388e-06
-4.98749e-06
-5.19628e-06
-5.39758e-06
-5.58278e-06
-5.70678e-06
-5.73306e-06
-5.64548e-06
-5.46404e-06
-5.19867e-06
-4.86388e-06
-4.48605e-06
-4.0869e-06
-3.68927e-06
-3.31583e-06
-2.98544e-06
-2.71391e-06
-2.5141e-06
-2.39261e-06
-2.35094e-06
-2.39102e-06
-2.51388e-06
-2.71584e-06
-2.98954e-06
-3.32658e-06
-3.7185e-06
-4.15662e-06
-4.63202e-06
-5.13571e-06
-2.19963e-06
-2.32898e-06
-2.45418e-06
-2.57641e-06
-2.69694e-06
-2.81717e-06
-2.9386e-06
-3.06285e-06
-3.1917e-06
-3.32712e-06
-3.47121e-06
-3.62602e-06
-3.79349e-06
-3.97517e-06
-4.17181e-06
-4.38376e-06
-4.6094e-06
-4.84493e-06
-5.08727e-06
-5.32324e-06
-5.53976e-06
-5.72542e-06
-5.8307e-06
-5.8382e-06
-5.76587e-06
-5.62672e-06
-5.43701e-06
-5.21474e-06
-4.97588e-06
-4.73638e-06
-4.51299e-06
-4.31971e-06
-4.16657e-06
-4.06558e-06
-4.02346e-06
-4.03981e-06
-4.11536e-06
-4.25194e-06
-4.447e-06
-4.69566e-06
-4.99289e-06
-5.33342e-06
-5.7114e-06
-6.12045e-06
-6.55412e-06
-1.14808e-06
-1.32237e-06
-1.49473e-06
-1.6659e-06
-1.83719e-06
-2.01005e-06
-2.18587e-06
-2.36597e-06
-2.55169e-06
-2.74453e-06
-2.94607e-06
-3.15791e-06
-3.38153e-06
-3.61808e-06
-3.86827e-06
-4.13224e-06
-4.40901e-06
-4.69601e-06
-4.99097e-06
-5.28476e-06
-5.56299e-06
-5.82683e-06
-6.0319e-06
-6.15839e-06
-6.21357e-06
-6.21567e-06
-6.1747e-06
-6.10303e-06
-6.0139e-06
-5.91988e-06
-5.83166e-06
-5.76059e-06
-5.71685e-06
-5.70024e-06
-5.71265e-06
-5.76547e-06
-5.86534e-06
-6.00907e-06
-6.19257e-06
-6.41368e-06
-6.67074e-06
-6.96117e-06
-7.28118e-06
-7.6264e-06
-7.9924e-06
-9.70204e-08
-3.20299e-07
-5.42727e-07
-7.65398e-07
-9.8986e-07
-1.21754e-06
-1.44962e-06
-1.68717e-06
-1.93129e-06
-2.18319e-06
-2.44413e-06
-2.71537e-06
-2.99807e-06
-3.29319e-06
-3.60139e-06
-3.92288e-06
-4.25718e-06
-4.60275e-06
-4.957e-06
-5.31478e-06
-5.66943e-06
-6.0151e-06
-6.32029e-06
-6.56164e-06
-6.74284e-06
-6.87349e-06
-6.96191e-06
-7.0181e-06
-7.05259e-06
-7.07506e-06
-7.09334e-06
-7.11467e-06
-7.14597e-06
-7.19163e-06
-7.2582e-06
-7.34946e-06
-7.46729e-06
-7.61114e-06
-7.78054e-06
-7.97566e-06
-8.19625e-06
-8.44091e-06
-8.70735e-06
-8.99305e-06
-9.2955e-06
8.20359e-07
5.5149e-07
2.81894e-07
1.0513e-08
-2.64135e-07
-5.43257e-07
-8.27796e-07
-1.11864e-06
-1.41675e-06
-1.72314e-06
-2.03883e-06
-2.36483e-06
-2.70208e-06
-3.05139e-06
-3.41334e-06
-3.78817e-06
-4.17569e-06
-4.57485e-06
-4.98407e-06
-5.40048e-06
-5.8192e-06
-6.23534e-06
-6.62246e-06
-6.95436e-06
-7.22984e-06
-7.45585e-06
-7.63967e-06
-7.78945e-06
-7.91341e-06
-8.01901e-06
-8.11353e-06
-8.20277e-06
-8.29206e-06
-8.38806e-06
-8.49373e-06
-8.61182e-06
-8.74274e-06
-8.88737e-06
-9.04734e-06
-9.22379e-06
-9.41678e-06
-9.62566e-06
-9.84951e-06
-1.00874e-05
-1.0338e-05
1.50699e-06
1.20087e-06
8.92243e-07
5.80193e-07
2.63644e-07
-5.82847e-08
-3.86334e-07
-7.21242e-07
-1.06379e-06
-1.41479e-06
-1.77503e-06
-2.14531e-06
-2.52637e-06
-2.91885e-06
-3.32325e-06
-3.73977e-06
-4.16832e-06
-4.60828e-06
-5.05849e-06
-5.51687e-06
-5.98025e-06
-6.44507e-06
-6.88613e-06
-7.27644e-06
-7.6133e-06
-7.90246e-06
-8.1501e-06
-8.36292e-06
-8.54764e-06
-8.71063e-06
-8.85775e-06
-8.99391e-06
-9.12302e-06
-9.24968e-06
-9.37782e-06
-9.50931e-06
-9.64524e-06
-9.78763e-06
-9.93849e-06
-1.00989e-05
-1.02694e-05
-1.04501e-05
-1.06409e-05
-1.08417e-05
-1.1052e-05
2.00754e-06
1.66956e-06
1.32763e-06
9.81201e-07
6.2956e-07
2.72066e-07
-9.18619e-08
-4.62786e-07
-8.41288e-07
-1.22795e-06
-1.62338e-06
-2.02814e-06
-2.4428e-06
-2.86781e-06
-3.30352e-06
-3.75005e-06
-4.20731e-06
-4.67482e-06
-5.15165e-06
-5.6363e-06
-6.12653e-06
-6.61931e-06
-7.09086e-06
-7.51526e-06
-7.88948e-06
-8.21843e-06
-8.50738e-06
-8.7619e-06
-8.98757e-06
-9.18939e-06
-9.37185e-06
-9.53897e-06
-9.69473e-06
-9.8429e-06
-9.98635e-06
-1.01272e-05
-1.02676e-05
-1.04096e-05
-1.05548e-05
-1.07044e-05
-1.08593e-05
-1.10203e-05
-1.11878e-05
-1.13621e-05
-1.15433e-05
2.35294e-06
1.98831e-06
1.61889e-06
1.24437e-06
8.64283e-07
4.78172e-07
8.56502e-08
-3.13647e-07
-7.20095e-07
-1.13408e-06
-1.556e-06
-1.98624e-06
-2.42514e-06
-2.87298e-06
-3.32994e-06
-3.79603e-06
-4.2711e-06
-4.7547e-06
-5.24605e-06
-5.74392e-06
-6.2465e-06
-6.75126e-06
-7.23639e-06
-7.67784e-06
-8.07264e-06
-8.42509e-06
-8.73963e-06
-9.02083e-06
-9.27314e-06
-9.50072e-06
-9.70717e-06
-9.8958e-06
-1.00702e-05
-1.02339e-05
-1.0389e-05
-1.05379e-05
-1.06827e-05
-1.08253e-05
-1.09673e-05
-1.111e-05
-1.12547e-05
-1.14024e-05
-1.15537e-05
-1.17095e-05
-1.187e-05
2.58027e-06
2.19386e-06
1.80224e-06
1.4052e-06
1.00247e-06
5.93805e-07
1.79021e-07
-2.42056e-07
-6.69619e-07
-1.10387e-06
-1.54502e-06
-1.99325e-06
-2.44873e-06
-2.91155e-06
-3.38172e-06
-3.85915e-06
-4.34359e-06
-4.83456e-06
-5.33137e-06
-5.83289e-06
-6.33765e-06
-6.84354e-06
-7.33088e-06
-7.77798e-06
-8.18216e-06
-8.54708e-06
-8.87642e-06
-9.17392e-06
-9.44319e-06
-9.68779e-06
-9.91068e-06
-1.01146e-05
-1.03024e-05
-1.04774e-05
-1.06416e-05
-1.07971e-05
-1.0946e-05
-1.109e-05
-1.12307e-05
-1.13696e-05
-1.15081e-05
-1.16474e-05
-1.17883e-05
-1.19318e-05
-1.20787e-05
2.7226e-06
2.31854e-06
1.90905e-06
1.49406e-06
1.07349e-06
6.47284e-07
2.15436e-07
-2.22063e-07
-6.65245e-07
-1.11415e-06
-1.5688e-06
-2.02922e-06
-2.4954e-06
-2.96727e-06
-3.44472e-06
-3.9275e-06
-4.4153e-06
-4.9076e-06
-5.40371e-06
-5.90262e-06
-6.40309e-06
-6.90326e-06
-7.3857e-06
-7.83136e-06
-8.2378e-06
-8.60804e-06
-8.94507e-06
-9.25196e-06
-9.53175e-06
-9.78736e-06
-1.00215e-05
-1.02368e-05
-1.04339e-05
-1.06173e-05
-1.07886e-05
-1.09497e-05
-1.11024e-05
-1.12485e-05
-1.13895e-05
-1.15271e-05
-1.16625e-05
-1.17971e-05
-1.19321e-05
-1.20683e-05
-1.22069e-05
2.80616e-06
2.38779e-06
1.96397e-06
1.53475e-06
1.1002e-06
6.60455e-07
2.15639e-07
-2.34115e-07
-6.88697e-07
-1.14799e-06
-1.61189e-06
-2.08025e-06
-2.55292e-06
-3.02969e-06
-3.51032e-06
-3.99446e-06
-4.48173e-06
-4.97154e-06
-5.46324e-06
-5.95585e-06
-6.44832e-06
-6.93896e-06
-7.41259e-06
-7.85275e-06
-8.25719e-06
-8.62829e-06
-8.96848e-06
-9.2803e-06
-9.56626e-06
-9.82881e-06
-1.00704e-05
-1.0294e-05
-1.0498e-05
-1.06879e-05
-1.08649e-05
-1.10307e-05
-1.11871e-05
-1.13358e-05
-1.14783e-05
-1.16161e-05
-1.17507e-05
-1.18833e-05
-1.20154e-05
-1.21479e-05
-1.22821e-05
2.85096e-06
2.42096e-06
1.98559e-06
1.54504e-06
1.09951e-06
6.49263e-07
1.94552e-07
-2.64378e-07
-7.27287e-07
-1.19394e-06
-1.66408e-06
-2.13746e-06
-2.61379e-06
-3.09276e-06
-3.574e-06
-4.05709e-06
-4.54156e-06
-5.02678e-06
-5.5121e-06
-5.99658e-06
-6.47929e-06
-6.95869e-06
-7.42171e-06
-7.8543e-06
-8.25433e-06
-8.62364e-06
-8.96421e-06
-9.27814e-06
-9.5675e-06
-9.8343e-06
-1.00804e-05
-1.03073e-05
-1.05188e-05
-1.07142e-05
-1.0896e-05
-1.1066e-05
-1.12259e-05
-1.13773e-05
-1.15218e-05
-1.16608e-05
-1.17959e-05
-1.19284e-05
-1.20596e-05
-1.21909e-05
-1.23233e-05
2.87144e-06
2.43187e-06
1.98709e-06
1.5374e-06
1.0831e-06
6.24583e-07
1.62188e-07
-3.03731e-07
-7.7283e-07
-1.24476e-06
-1.71916e-06
-2.19567e-06
-2.6739e-06
-3.15343e-06
-3.63382e-06
-4.11455e-06
-4.59509e-06
-5.07478e-06
-5.55294e-06
-6.02866e-06
-6.50111e-06
-6.96886e-06
-7.42077e-06
-7.84496e-06
-8.23938e-06
-8.60545e-06
-8.94479e-06
-9.25913e-06
-9.55015e-06
-9.81952e-06
-1.00688e-05
-1.03e-05
-1.05148e-05
-1.07143e-05
-1.09e-05
-1.10735e-05
-1.12366e-05
-1.13907e-05
-1.15374e-05
-1.16781e-05
-1.18145e-05
-1.19478e-05
-1.20795e-05
-1.22109e-05
-1.23433e-05
2.87747e-06
2.4299e-06
1.97731e-06
1.52008e-06
1.05864e-06
5.93434e-07
1.24913e-07
-3.46489e-07
-8.20333e-07
-1.29618e-06
-1.77357e-06
-2.25206e-06
-2.73116e-06
-3.21036e-06
-3.68916e-06
-4.16696e-06
-4.64317e-06
-5.11709e-06
-5.58805e-06
-6.05512e-06
-6.51757e-06
-6.97402e-06
-7.41507e-06
-7.83077e-06
-8.21917e-06
-8.58132e-06
-8.91858e-06
-9.23233e-06
-9.52393e-06
-9.79475e-06
-1.0046e-05
-1.02785e-05
-1.04975e-05
-1.07002e-05
-1.0889e-05
-1.10655e-05
-1.12313e-05
-1.13878e-05
-1.15367e-05
-1.16793e-05
-1.18172e-05
-1.19519e-05
-1.20847e-05
-1.22171e-05
-1.23503e-05
2.87552e-06
2.42113e-06
1.96191e-06
1.49833e-06
1.0309e-06
5.60145e-07
8.65831e-08
-3.89271e-07
-8.66901e-07
-1.34578e-06
-1.82539e-06
-2.30517e-06
-2.78459e-06
-3.26306e-06
-3.73998e-06
-4.21473e-06
-4.68665e-06
-5.15502e-06
-5.61912e-06
-6.07806e-06
-6.53114e-06
-6.97705e-06
-7.40792e-06
-7.81548e-06
-8.19791e-06
-8.55597e-06
-8.89075e-06
-9.20336e-06
-9.49489e-06
-9.76648e-06
-1.00193e-05
-1.02542e-05
-1.04745e-05
-1.06795e-05
-1.08709e-05
-1.10498e-05
-1.12178e-05
-1.13765e-05
-1.15273e-05
-1.16717e-05
-1.18113e-05
-1.19474e-05
-1.20816e-05
-1.22153e-05
-1.23499e-05
2.86961e-06
2.4093e-06
1.94435e-06
1.4753e-06
1.00274e-06
5.27253e-07
4.94173e-08
-4.30181e-07
-9.10956e-07
-1.39231e-06
-1.87366e-06
-2.35438e-06
-2.83385e-06
-3.31144e-06
-3.78649e-06
-4.25831e-06
-4.72622e-06
-5.18944e-06
-5.64726e-06
-6.09878e-06
-6.54332e-06
-6.97962e-06
-7.40117e-06
-7.80119e-06
-8.17796e-06
-8.53203e-06
-8.86424e-06
-9.17544e-06
-9.46653e-06
-9.73846e-06
-9.99223e-06
-1.02288e-05
-1.04503e-05
-1.06568e-05
-1.08503e-05
-1.10311e-05
-1.12009e-05
-1.13614e-05
-1.15139e-05
-1.166e-05
-1.1801e-05
-1.19386e-05
-1.20742e-05
-1.22093e-05
-1.23453e-05
2.86215e-06
2.39662e-06
1.92664e-06
1.45281e-06
9.7576e-07
4.9614e-07
1.45893e-08
-4.6825e-07
-9.51732e-07
-1.4352e-06
-1.918e-06
-2.39946e-06
-2.8789e-06
-3.35563e-06
-3.82893e-06
-4.29809e-06
-4.76235e-06
-5.22095e-06
-5.67312e-06
-6.11798e-06
-6.55486e-06
-6.98255e-06
-7.39571e-06
-7.78888e-06
-8.16044e-06
-8.51076e-06
-8.84047e-06
-9.1502e-06
-9.44066e-06
-9.71263e-06
-9.96701e-06
-1.02047e-05
-1.04271e-05
-1.06349e-05
-1.083e-05
-1.10123e-05
-1.11836e-05
-1.13455e-05
-1.14995e-05
-1.16468e-05
-1.17892e-05
-1.1928e-05
-1.20649e-05
-1.22013e-05
-1.23387e-05
2.85448e-06
2.38432e-06
1.90987e-06
1.43178e-06
9.50753e-07
4.67473e-07
-1.73677e-08
-5.03074e-07
-9.88947e-07
-1.47428e-06
-1.95836e-06
-2.44046e-06
-2.91987e-06
-3.39582e-06
-3.86757e-06
-4.33435e-06
-4.79539e-06
-5.24987e-06
-5.69705e-06
-6.136e-06
-6.5661e-06
-6.98614e-06
-7.39182e-06
-7.77882e-06
-8.14568e-06
-8.49259e-06
-8.81996e-06
-9.12825e-06
-9.418e-06
-9.68986e-06
-9.9446e-06
-1.01831e-05
-1.04061e-05
-1.06151e-05
-1.08113e-05
-1.09948e-05
-1.11673e-05
-1.13304e-05
-1.14854e-05
-1.16339e-05
-1.17773e-05
-1.19172e-05
-1.20551e-05
-1.21926e-05
-1.23312e-05
2.84731e-06
2.373e-06
1.89455e-06
1.41266e-06
9.28075e-07
4.41522e-07
-4.62623e-08
-5.34536e-07
-1.02255e-06
-1.50956e-06
-1.9948e-06
-2.4775e-06
-2.95689e-06
-3.43219e-06
-3.90259e-06
-4.3673e-06
-4.82552e-06
-5.2764e-06
-5.71918e-06
-6.15295e-06
-6.57707e-06
-6.99036e-06
-7.38941e-06
-7.77095e-06
-8.13363e-06
-8.47746e-06
-8.8027e-06
-9.10964e-06
-9.39869e-06
-9.67035e-06
-9.9253e-06
-1.01643e-05
-1.03877e-05
-1.05979e-05
-1.07948e-05
-1.09793e-05
-1.11527e-05
-1.13167e-05
-1.14726e-05
-1.16219e-05
-1.17661e-05
-1.19068e-05
-1.20456e-05
-1.21841e-05
-1.23237e-05
2.84093e-06
2.36291e-06
1.88089e-06
1.39561e-06
9.07842e-07
4.18359e-07
-7.20632e-08
-5.62642e-07
-1.05259e-06
-1.54112e-06
-2.02742e-06
-2.51069e-06
-2.99011e-06
-3.46487e-06
-3.93413e-06
-4.39706e-06
-4.85283e-06
-5.30059e-06
-5.73954e-06
-6.16879e-06
-6.58768e-06
-6.99506e-06
-7.38828e-06
-7.765e-06
-8.12399e-06
-8.4651e-06
-8.78844e-06
-9.09415e-06
-9.38254e-06
-9.65396e-06
-9.90902e-06
-1.01483e-05
-1.03722e-05
-1.05832e-05
-1.07807e-05
-1.0966e-05
-1.114e-05
-1.13047e-05
-1.14613e-05
-1.16112e-05
-1.17561e-05
-1.18974e-05
-1.20369e-05
-1.2176e-05
-1.23165e-05
2.83537e-06
2.35401e-06
1.86877e-06
1.38043e-06
8.89792e-07
3.97667e-07
-9.5137e-08
-5.87802e-07
-1.07951e-06
-1.56942e-06
-2.05671e-06
-2.54052e-06
-3.02002e-06
-3.49435e-06
-3.96265e-06
-4.42405e-06
-4.87771e-06
-5.32275e-06
-5.75837e-06
-6.18366e-06
-6.59797e-06
-7.00014e-06
-7.38818e-06
-7.76062e-06
-8.11633e-06
-8.45503e-06
-8.77667e-06
-9.0813e-06
-9.36907e-06
-9.64027e-06
-9.8954e-06
-1.0135e-05
-1.03593e-05
-1.05708e-05
-1.07689e-05
-1.09546e-05
-1.11293e-05
-1.12944e-05
-1.14514e-05
-1.16019e-05
-1.17472e-05
-1.1889e-05
-1.20289e-05
-1.21686e-05
-1.23097e-05
2.83035e-06