/*--------------------------------*- C++ -*----------------------------------*\
| =========                 |                                                 |
| \\      /  F ield         | OpenFOAM: The Open Source CFD Toolbox           |
|  \\    /   O peration     | Version:  2312                                  |
|   \\  /    A nd           | Website:  www.openfoam.com                      |
|    \\/     M anipulation  |                                                 |
\*---------------------------------------------------------------------------*/
FoamFile
{
    version     2.0;
    format      ascii;
    arch        "LSB;label=32;scalar=64";
    class       volVectorField;
    location    "27.25";
    object      U;
}
// * * * * * * * * * * * * * * * * * * * * * * * * * * * * * * * * * * * * * //

dimensions      [0 1 -1 0 0 0 0];

internalField   nonuniform List<vector> 
4800
(
(0.000473894 3.95327e-07 -2.42371e-26)
(0.000463498 3.99579e-07 -1.66333e-25)
(0.000456943 3.83437e-07 2.14624e-25)
(0.000452952 3.52087e-07 9.36149e-26)
(0.000450746 3.05067e-07 1.34796e-24)
(0.00044987 2.50959e-07 -3.18677e-24)
(0.00045013 1.90168e-07 2.93387e-24)
(0.00045123 1.18695e-07 -4.18876e-24)
(0.000453251 -2.26658e-08 1.35763e-24)
(0.000456325 -2.61008e-07 4.50497e-24)
(0.000460848 -7.34253e-07 -1.39109e-24)
(0.000468091 -2.07569e-06 -1.23236e-25)
(0.00048516 -7.09924e-06 -1.66915e-24)
(0.000529277 -2.73301e-05 7.88613e-25)
(0.000601304 -8.75197e-05 -6.31127e-25)
(0.001467 2.16156e-06 -7.61312e-26)
(0.00143594 1.61975e-06 9.48045e-26)
(0.00141635 1.19321e-06 -8.39485e-25)
(0.00140438 8.27238e-07 6.35421e-25)
(0.00139766 4.76221e-07 1.9365e-24)
(0.00139482 1.14741e-07 -3.0396e-24)
(0.00139522 -2.86869e-07 -8.22402e-25)
(0.00139792 -7.64815e-07 -1.67417e-25)
(0.00140326 -1.51623e-06 6.8548e-24)
(0.00141153 -2.73246e-06 -5.03716e-24)
(0.00142384 -5.04209e-06 5.48245e-25)
(0.00144288 -1.06321e-05 8.26087e-25)
(0.00147721 -2.69659e-05 -1.21925e-24)
(0.00153692 -7.67155e-05 -3.80597e-25)
(0.00160023 -0.000187218 1.61145e-24)
(0.00256752 6.88121e-06 -5.40544e-26)
(0.00251491 5.1068e-06 5.5337e-26)
(0.0024817 3.73709e-06 5.47826e-25)
(0.00246131 2.59105e-06 -1.29053e-24)
(0.00244971 1.52973e-06 1.24318e-24)
(0.00244454 4.17148e-07 1.11661e-24)
(0.00244466 -7.9411e-07 -2.88257e-24)
(0.00244835 -2.26585e-06 -1.74945e-24)
(0.00245623 -4.44604e-06 4.25025e-24)
(0.00246847 -7.83711e-06 1.57412e-24)
(0.0024862 -1.38792e-05 -5.48957e-24)
(0.00251153 -2.64234e-05 -8.17395e-25)
(0.00254839 -5.47196e-05 2.33683e-24)
(0.00259529 -0.000117148 3.68775e-24)
(0.0026279 -0.000219726 -1.9071e-24)
(0.00378315 1.527e-05 1.98376e-26)
(0.00370836 1.13594e-05 -1.37168e-25)
(0.00366102 8.35272e-06 5.99803e-25)
(0.00363175 5.85593e-06 6.12108e-25)
(0.00361481 3.57378e-06 -6.34797e-25)
(0.00360676 1.23626e-06 -3.47283e-24)
(0.00360591 -1.33456e-06 -2.25565e-24)
(0.0036098 -4.27206e-06 8.5515e-24)
(0.00361898 -8.5867e-06 3.49636e-24)
(0.00363326 -1.49936e-05 -5.09863e-24)
(0.00365305 -2.54913e-05 -2.03581e-24)
(0.00367878 -4.44638e-05 -1.53855e-24)
(0.00370965 -7.95782e-05 5.08631e-26)
(0.00373863 -0.000140202 1.1337e-24)
(0.00374831 -0.000220699 5.51447e-27)
(0.00511952 2.81157e-05 -3.61744e-26)
(0.00502251 2.09566e-05 -2.1993e-25)
(0.00496078 1.54707e-05 -1.29167e-25)
(0.00492225 1.09469e-05 3.71171e-25)
(0.00489948 6.86686e-06 -1.00011e-24)
(0.00488795 2.76413e-06 2.48496e-24)
(0.00488515 -1.62176e-06 -4.41959e-25)
(0.00488833 -6.53609e-06 1.45191e-24)
(0.00489733 -1.34078e-05 -8.16994e-24)
(0.00491142 -2.31039e-05 1.54437e-23)
(0.00493001 -3.76199e-05 -1.48762e-23)
(0.0049519 -6.05689e-05 7.80171e-24)
(0.00497379 -9.65378e-05 -7.19303e-24)
(0.0049883 -0.000148287 6.74992e-24)
(0.0049857 -0.000208139 -2.6794e-24)
(0.0065783 4.6367e-05 4.75321e-26)
(0.00646025 3.46692e-05 1.69782e-25)
(0.00638452 2.57258e-05 -8.82517e-25)
(0.00633664 1.83966e-05 -5.27155e-25)
(0.00630768 1.18778e-05 1.45692e-24)
(0.00629206 5.46851e-06 5.04037e-25)
(0.00628634 -1.12573e-06 -3.89689e-24)
(0.00628774 -8.57166e-06 9.22058e-24)
(0.0062951 -1.81593e-05 -1.18812e-23)
(0.00630693 -3.08639e-05 2.86775e-24)
(0.00632188 -4.83205e-05 8.52271e-24)
(0.00633779 -7.27163e-05 -1.17513e-23)
(0.00635095 -0.000105814 5.88768e-24)
(0.00635592 -0.000147014 5.92123e-24)
(0.00634839 -0.000190228 -4.49899e-24)
(0.00815454 7.08445e-05 3.9105e-26)
(0.00801882 5.32423e-05 -2.31666e-25)
(0.00793072 3.97839e-05 8.1686e-25)
(0.00787416 2.88034e-05 -1.11768e-24)
(0.00783907 1.91636e-05 -3.66464e-24)
(0.00781902 9.91911e-06 6.24094e-24)
(0.00780977 6.05119e-07 -3.71028e-24)
(0.00780829 -9.54137e-06 1.24249e-23)
(0.00781264 -2.1775e-05 -8.46888e-24)
(0.00782077 -3.69555e-05 -3.89858e-24)
(0.00783077 -5.60959e-05 -7.53373e-24)
(0.00784023 -8.00665e-05 6.96035e-24)
(0.0078462 -0.000108842 1.93864e-24)
(0.0078454 -0.000140699 1.62157e-24)
(0.00783655 -0.000171661 -1.42588e-24)
(0.00983361 0.000101798 -5.59845e-26)
(0.00968702 7.7083e-05 7.65474e-25)
(0.00959033 5.81135e-05 -1.7632e-24)
(0.00952711 4.26613e-05 -1.37594e-24)
(0.00948686 2.92406e-05 5.70049e-25)
(0.00946266 1.66778e-05 1.04005e-24)
(0.00944974 4.30752e-06 3.54399e-24)
(0.00944478 -8.66574e-06 -9.48184e-24)
(0.00944534 -2.33176e-05 -4.89e-24)
(0.00944906 -4.02821e-05 1.37636e-23)
(0.00945381 -5.99913e-05 -4.15462e-24)
(0.00945746 -8.24406e-05 1.41999e-23)
(0.00945802 -0.000106841 -7.46017e-24)
(0.00945376 -0.000131518 -2.32865e-24)
(0.00944484 -0.000154127 1.37222e-24)
(0.0115891 0.000138253 -7.30478e-27)
(0.0114429 0.000105781 4.22431e-25)
(0.0113443 8.06209e-05 -5.99501e-25)
(0.0112786 6.00741e-05 1.38756e-24)
(0.0112356 4.23545e-05 -8.12826e-24)
(0.0112086 2.61093e-05 8.54108e-24)
(0.0111928 1.04926e-05 -1.30667e-23)
(0.0111846 -5.26687e-06 8.1087e-24)
(0.0111814 -2.20129e-05 5.9021e-24)
(0.0111809 -4.01305e-05 1.25032e-23)
(0.011181 -5.965e-05 -1.62995e-23)
(0.0111801 -8.01703e-05 -2.90822e-24)
(0.011177 -0.000100807 1.44013e-24)
(0.0111707 -0.000120355 9.57539e-24)
(0.0111621 -0.000137536 -3.86518e-24)
(0.0133855 0.000177267 3.87113e-26)
(0.0132544 0.000137467 -1.74347e-25)
(0.0131637 0.000106108 7.78837e-25)
(0.0131017 8.02928e-05 -2.68333e-24)
(0.0130603 5.80796e-05 4.01294e-24)
(0.0130334 3.80278e-05 -5.07453e-24)
(0.0130165 1.91926e-05 8.36405e-24)
(0.0130065 8.3362e-07 1.35831e-24)
(0.0130007 -1.76304e-05 -1.12599e-23)
(0.012997 -3.64181e-05 1.57491e-23)
(0.0129939 -5.53792e-05 -1.72808e-23)
(0.0129901 -7.40582e-05 -4.91777e-24)
(0.0129849 -9.17762e-05 8.81128e-24)
(0.0129778 -0.000107823 2.56018e-24)
(0.0129697 -0.000121573 -1.11048e-24)
(0.0151892 0.000213808 1.40087e-25)
(0.0150874 0.000168432 -1.33443e-24)
(0.0150148 0.000131809 -2.14642e-24)
(0.0149642 0.000101239 5.10466e-24)
(0.0149297 7.48513e-05 2.18871e-24)
(0.0149068 5.12536e-05 -1.37198e-23)
(0.0148919 2.95083e-05 4.31766e-24)
(0.0148823 8.94129e-06 3.05577e-24)
(0.014876 -1.08422e-05 -1.24871e-23)
(0.0148712 -2.99719e-05 1.31876e-23)
(0.0148668 -4.82924e-05 -1.01177e-23)
(0.0148619 -6.54758e-05 2.61873e-23)
(0.0148563 -8.11189e-05 -1.24139e-23)
(0.0148496 -9.48905e-05 7.23288e-24)
(0.0148426 -0.00010655 -1.95625e-24)
(0.0169889 0.000242585 -3.2125e-26)
(0.0169221 0.000194048 8.63297e-25)
(0.0168736 0.000153809 -1.7569e-24)
(0.0168395 0.000119636 -8.71417e-25)
(0.0168163 8.99276e-05 9.75184e-24)
(0.0168009 6.34709e-05 -1.52706e-24)
(0.0167909 3.94282e-05 -1.69014e-23)
(0.0167844 1.72389e-05 1.94448e-23)
(0.0167799 -3.42504e-06 -4.42936e-24)
(0.0167761 -2.26584e-05 -1.4736e-23)
(0.0167725 -4.03913e-05 1.55422e-23)
(0.0167684 -5.64776e-05 8.12599e-24)
(0.016764 -7.07558e-05 -7.05896e-24)
(0.0167587 -8.3144e-05 -1.18517e-23)
(0.0167536 -9.36203e-05 9.84376e-25)
(0.018807 0.000261864 -2.3297e-26)
(0.0187683 0.000211732 -9.14342e-25)
(0.018741 0.000169274 4.61966e-24)
(0.0187225 0.000132688 2.80995e-25)
(0.0187107 0.000100664 2.57041e-24)
(0.0187036 7.22075e-05 -9.38955e-24)
(0.0186995 4.66119e-05 7.83924e-24)
(0.0186972 2.34043e-05 1.66044e-24)
(0.0186957 2.29291e-06 1.55837e-23)
(0.0186944 -1.6862e-05 -2.43589e-23)
(0.0186929 -3.41017e-05 -1.08109e-23)
(0.0186908 -4.94389e-05 -6.96103e-24)
(0.0186884 -6.28884e-05 1.32659e-23)
(0.0186854 -7.45149e-05 -3.6439e-25)
(0.0186825 -8.44183e-05 1.25992e-24)
(0.0206775 0.00027505 -2.91992e-26)
(0.0206539 0.000223444 8.47132e-25)
(0.0206385 0.00017917 -1.24287e-24)
(0.0206294 0.000140709 -6.19033e-27)
(0.0206246 0.000106949 1.85938e-24)
(0.0206228 7.70527e-05 4.68965e-24)
(0.0206227 5.04031e-05 -1.81387e-23)
(0.0206233 2.65597e-05 1.63484e-24)
(0.0206243 5.21195e-06 9.13644e-24)
(0.0206249 -1.38602e-05 -4.0821e-24)
(0.0206253 -3.08e-05 1.1207e-23)
(0.0206252 -4.57366e-05 7.68999e-24)
(0.0206248 -5.87982e-05 -1.40186e-23)
(0.0206238 -7.01356e-05 9.45732e-24)
(0.020623 -7.9906e-05 -7.85732e-24)
(0.0225993 0.000286295 -7.53683e-25)
(0.0225827 0.000233197 7.56597e-25)
(0.0225724 0.000187151 1.31455e-24)
(0.0225668 0.000146935 -7.95531e-24)
(0.0225644 0.00011161 7.09739e-24)
(0.022564 8.0446e-05 -5.31987e-24)
(0.022565 5.28677e-05 3.82162e-24)
(0.0225663 2.84235e-05 -2.68988e-23)
(0.0225678 6.75214e-06 3.88388e-23)
(0.0225691 -1.24623e-05 -2.26731e-23)
(0.0225702 -2.94488e-05 2.02185e-23)
(0.0225709 -4.44084e-05 1.66995e-23)
(0.0225714 -5.75354e-05 -2.91827e-23)
(0.0225715 -6.90281e-05 9.46131e-24)
(0.0225718 -7.90721e-05 -3.95678e-25)
(0.0245136 0.000295783 -2.5786e-26)
(0.0245039 0.000242099 6.72532e-25)
(0.0244977 0.000194928 -7.75374e-25)
(0.0244942 0.000153441 -2.05946e-25)
(0.0244929 0.000116899 2.64446e-24)
(0.0244929 8.46862e-05 -4.65164e-24)
(0.0244937 5.6267e-05 4.43984e-24)
(0.0244948 3.11733e-05 -1.42349e-23)
(0.024496 9.02037e-06 3.24875e-23)
(0.024497 -1.05902e-05 -4.16488e-23)
(0.024498 -2.79591e-05 3.41341e-23)
(0.0244987 -4.33274e-05 -1.15331e-23)
(0.0244994 -5.69195e-05 5.94923e-25)
(0.0244998 -6.89541e-05 2.63195e-24)
(0.0245005 -7.96281e-05 -5.06128e-24)
(0.0263235 0.000300945 -2.12616e-24)
(0.0263221 0.000248084 4.85123e-24)
(0.0263213 0.000200956 -2.84482e-24)
(0.0263214 0.000159135 -3.04506e-25)
(0.0263221 0.000122099 2.92817e-24)
(0.0263233 8.93398e-05 -3.31699e-24)
(0.0263247 6.03791e-05 -3.58645e-24)
(0.0263261 3.47541e-05 -9.02688e-24)
(0.0263275 1.2075e-05 4.31452e-24)
(0.0263285 -8.04454e-06 2.21862e-23)
(0.0263295 -2.59502e-05 -1.18093e-23)
(0.0263303 -4.19171e-05 7.16168e-24)
(0.0263312 -5.61855e-05 -2.92719e-24)
(0.0263317 -6.89749e-05 -8.8292e-24)
(0.0263325 -8.04783e-05 4.53474e-24)
(0.0279109 0.000299721 7.04609e-25)
(0.0279175 0.000249034 -1.34048e-24)
(0.0279225 0.000203169 -2.1979e-24)
(0.0279266 0.000162049 4.7013e-24)
(0.0279302 0.000125378 -1.80167e-24)
(0.0279333 9.27291e-05 1.77887e-24)
(0.0279361 6.36859e-05 -2.43848e-24)
(0.0279386 3.78231e-05 -2.51503e-24)
(0.0279407 1.47288e-05 2.11004e-24)
(0.0279424 -5.91376e-06 -3.07788e-24)
(0.0279439 -2.44113e-05 7.08592e-24)
(0.0279452 -4.10528e-05 3.87125e-24)
(0.0279464 -5.6092e-05 -1.43667e-23)
(0.0279474 -6.97405e-05 1.00802e-23)
(0.0279484 -8.21743e-05 -2.08916e-24)
(0.029124 0.000291636 2.11447e-24)
(0.0291374 0.000244245 4.50995e-24)
(0.0291477 0.000200775 -9.64317e-24)
(0.0291557 0.000161352 -3.41623e-24)
(0.0291622 0.000125885 6.64679e-24)
(0.0291676 9.40758e-05 2.11431e-24)
(0.0291721 6.55283e-05 -1.26254e-24)
(0.0291759 3.98943e-05 -1.78011e-24)
(0.029179 1.67684e-05 2.61321e-24)
(0.0291817 -4.1788e-06 -7.07937e-24)
(0.029184 -2.31769e-05 4.91778e-24)
(0.0291861 -4.04793e-05 -3.98356e-25)
(0.029188 -5.63202e-05 -4.12545e-25)
(0.0291896 -7.08883e-05 5.87772e-25)
(0.0291913 -8.43343e-05 -2.81219e-25)
(0.029755 0.000272158 -5.6404e-24)
(0.0297745 0.000229161 -1.40312e-23)
(0.02979 0.00018923 4.90127e-24)
(0.0298023 0.000152616 2.988e-23)
(0.0298124 0.000119325 -9.01157e-24)
(0.0298207 8.91862e-05 -5.90518e-24)
(0.0298276 6.18762e-05 3.85894e-24)
(0.0298333 3.70965e-05 9.59685e-24)
(0.0298381 1.45981e-05 -1.70767e-23)
(0.029842 -6.00624e-06 6.2655e-24)
(0.0298451 -2.49379e-05 8.00021e-26)
(0.0298477 -4.2397e-05 1.1317e-24)
(0.0298496 -5.85585e-05 -4.78204e-25)
(0.0298511 -7.35743e-05 1.23589e-24)
(0.0298523 -8.75658e-05 -7.3883e-25)
(0.0295922 0.00024804 9.09629e-24)
(0.0296154 0.000209582 -2.16888e-23)
(0.0296342 0.000173407 2.8606e-24)
(0.0296495 0.000139903 3.81508e-23)
(0.0296621 0.000109125 -3.94778e-23)
(0.0296727 8.08828e-05 1.63268e-23)
(0.0296815 5.5022e-05 1.79932e-23)
(0.0296891 3.12948e-05 -4.23769e-23)
(0.0296954 9.37001e-06 -9.44453e-25)
(0.0297004 -1.07478e-05 1.57867e-23)
(0.0297044 -2.92657e-05 5.01942e-24)
(0.0297077 -4.64479e-05 -3.76624e-24)
(0.0297103 -6.24747e-05 3.28008e-24)
(0.0297124 -7.74659e-05 -1.25914e-24)
(0.029714 -9.15174e-05 4.24982e-25)
(0.0286989 0.000218653 5.72913e-24)
(0.028724 0.000184998 -1.24175e-23)
(0.0287439 0.000153112 -9.81994e-24)
(0.0287597 0.000123332 4.61063e-23)
(0.0287721 9.57042e-05 -4.4754e-23)
(0.028782 7.01358e-05 3.96095e-24)
(0.0287899 4.64801e-05 8.35446e-24)
(0.0287958 2.45393e-05 5.64548e-24)
(0.0288005 4.16615e-06 6.71794e-24)
(0.0288044 -1.46976e-05 -3.6948e-23)
(0.0288072 -3.22827e-05 2.31776e-23)
(0.0288088 -4.87618e-05 2.99822e-26)
(0.0288096 -6.42342e-05 1.42502e-23)
(0.0288099 -7.87842e-05 -6.67033e-24)
(0.0288096 -9.24915e-05 -1.55887e-24)
(0.0272075 0.000187459 1.43942e-23)
(0.0272347 0.00015858 -2.6031e-23)
(0.0272569 0.000131112 5.1781e-24)
(0.0272749 0.000105283 -1.48498e-23)
(0.0272895 8.1161e-05 -2.14264e-23)
(0.0273015 5.87041e-05 6.92384e-23)
(0.0273112 3.7756e-05 -2.84813e-23)
(0.027319 1.82124e-05 8.91014e-24)
(0.0273251 1.45134e-08 -5.31508e-24)
(0.0273297 -1.7223e-05 -1.63753e-23)
(0.027333 -3.35714e-05 3.23746e-23)
(0.027335 -4.90044e-05 -2.01241e-23)
(0.0273359 -6.35361e-05 2.32377e-24)
(0.027336 -7.72388e-05 3.94543e-24)
(0.0273353 -9.0186e-05 -5.11133e-25)
(0.0254021 0.000159915 5.57371e-24)
(0.0254295 0.000135161 -2.97613e-23)
(0.0254522 0.000111479 5.32532e-23)
(0.0254707 8.90769e-05 -4.20785e-23)
(0.0254859 6.79893e-05 4.5029e-23)
(0.0254982 4.81688e-05 -1.41031e-23)
(0.025508 2.95255e-05 -1.04649e-23)
(0.0255158 1.19205e-05 -1.30429e-23)
(0.0255216 -4.71993e-06 2.60627e-23)
(0.0255258 -2.0481e-05 1.29698e-24)
(0.0255285 -3.54159e-05 -2.77062e-23)
(0.02553 -4.95268e-05 -4.63943e-24)
(0.0255302 -6.28387e-05 8.05147e-24)
(0.0255294 -7.54122e-05 -2.01509e-24)
(0.0255275 -8.73027e-05 4.88826e-25)
(0.0234147 0.000134253 7.44116e-25)
(0.023442 0.000113196 -1.12556e-23)
(0.0234646 9.29339e-05 -6.9999e-24)
(0.023483 7.36266e-05 5.50464e-23)
(0.0234981 5.53046e-05 -5.57034e-23)
(0.0235102 3.79421e-05 1.66784e-23)
(0.0235197 2.14708e-05 3.01159e-24)
(0.023527 5.8623e-06 -1.69659e-24)
(0.0235323 -8.92787e-06 -8.84947e-24)
(0.0235358 -2.29461e-05 4.0405e-23)
(0.0235377 -3.62203e-05 -3.30151e-23)
(0.0235382 -4.87817e-05 -2.02671e-24)
(0.0235372 -6.06637e-05 3.33075e-24)
(0.0235351 -7.19043e-05 3.7027e-24)
(0.0235318 -8.2533e-05 -2.98061e-24)
(0.0213445 0.000110939 1.10908e-24)
(0.0213712 9.31941e-05 1.05144e-23)
(0.0213933 7.60204e-05 -1.20064e-23)
(0.0214114 5.95564e-05 -8.93714e-24)
(0.0214261 4.38346e-05 5.89633e-23)
(0.0214377 2.88515e-05 -4.50805e-23)
(0.0214467 1.46015e-05 -7.75302e-25)
(0.0214533 1.07824e-06 -1.04868e-23)
(0.0214579 -1.17848e-05 -1.16366e-24)
(0.0214605 -2.40003e-05 1.40369e-24)
(0.0214614 -3.55873e-05 -7.5203e-24)
(0.0214607 -4.65762e-05 5.29038e-24)
(0.0214585 -5.6987e-05 1.72033e-24)
(0.0214549 -6.68361e-05 1.84022e-24)
(0.0214499 -7.61365e-05 2.95335e-24)
(0.0192625 9.01593e-05 7.90681e-24)
(0.0192883 7.53682e-05 -1.22471e-23)
(0.0193097 6.099e-05 -1.05292e-23)
(0.0193271 4.71459e-05 3.2294e-23)
(0.0193411 3.38655e-05 -1.15323e-23)
(0.0193521 2.1167e-05 -1.76357e-23)
(0.0193603 9.06943e-06 6.01595e-24)
(0.0193662 -2.47386e-06 1.51075e-23)
(0.0193698 -1.34827e-05 -2.53828e-23)
(0.0193714 -2.39547e-05 2.63608e-23)
(0.0193711 -3.39028e-05 -1.49774e-23)
(0.0193691 -4.33428e-05 6.97731e-24)
(0.0193655 -5.22813e-05 -1.05435e-23)
(0.0193604 -6.07254e-05 1.1144e-23)
(0.0193538 -6.86818e-05 -2.98925e-24)
(0.0172174 7.18862e-05 -1.53405e-24)
(0.0172419 5.97283e-05 -5.53864e-24)
(0.0172622 4.78759e-05 -1.82974e-23)
(0.0172786 3.64226e-05 5.1226e-23)
(0.0172917 2.53968e-05 -8.76293e-24)
(0.0173018 1.48205e-05 -1.51634e-23)
(0.0173091 4.70897e-06 5.81136e-24)
(0.0173139 -4.98098e-06 -8.32914e-24)
(0.0173164 -1.42243e-05 -1.99276e-23)
(0.0173169 -2.3021e-05 1.90622e-23)
(0.0173153 -3.13806e-05 9.19325e-25)
(0.0173119 -3.93081e-05 -7.79869e-24)
(0.0173067 -4.6804e-05 8.82468e-24)
(0.0173 -5.38721e-05 7.24903e-25)
(0.0172917 -6.05153e-05 -8.84694e-25)
(0.0152405 5.60994e-05 5.89959e-24)
(0.0152634 4.62811e-05 9.11784e-24)
(0.0152822 3.66901e-05 -8.09863e-24)
(0.0152974 2.73932e-05 -1.91136e-23)
(0.0153092 1.84105e-05 2.66024e-23)
(0.0153181 9.77354e-06 -3.00988e-23)
(0.0153242 1.48341e-06 -1.88039e-24)
(0.0153278 -6.46574e-06 1.2186e-23)
(0.015329 -1.4044e-05 4.5088e-24)
(0.0153281 -2.12609e-05 -1.05619e-23)
(0.0153251 -2.81182e-05 -8.68853e-25)
(0.0153202 -3.46136e-05 2.43189e-23)
(0.0153135 -4.07449e-05 -9.41368e-24)
(0.0153051 -4.65134e-05 -2.74374e-24)
(0.0152951 -5.19188e-05 -2.02062e-25)
(0.0133515 4.278e-05 -6.12453e-24)
(0.0133723 3.50198e-05 7.92809e-24)
(0.0133893 2.74305e-05 9.87901e-25)
(0.0134029 2.00502e-05 1.75327e-23)
(0.0134132 1.2899e-05 -1.40002e-23)
(0.0134206 6.00845e-06 1.47783e-24)
(0.0134253 -6.24689e-07 -1.3493e-24)
(0.0134275 -6.97236e-06 -4.89694e-24)
(0.0134273 -1.30288e-05 4.96471e-24)
(0.013425 -1.87992e-05 -1.61387e-23)
(0.0134206 -2.42779e-05 5.57312e-25)
(0.0134142 -2.94598e-05 3.87061e-24)
(0.013406 -3.43416e-05 2.72233e-24)
(0.0133961 -3.89226e-05 1.2042e-24)
(0.0133846 -4.32006e-05 5.45663e-25)
(0.0115623 3.18448e-05 4.53466e-24)
(0.0115808 2.58675e-05 -3.55747e-24)
(0.0115958 2.0019e-05 -1.66521e-23)
(0.0116075 1.43125e-05 1.56622e-23)
(0.0116162 8.77164e-06 2.33315e-23)
(0.011622 3.4228e-06 -5.26153e-24)
(0.0116252 -1.73432e-06 -1.22636e-23)
(0.011626 -6.66372e-06 -1.88503e-23)
(0.0116245 -1.13708e-05 1.45458e-23)
(0.0116209 -1.58541e-05 1.07639e-24)
(0.0116152 -2.01064e-05 -3.68718e-24)
(0.0116076 -2.41223e-05 -1.22891e-24)
(0.0115982 -2.78977e-05 2.47226e-24)
(0.0115872 -3.14308e-05 1.04879e-27)
(0.0115745 -3.47187e-05 -6.19151e-25)
(0.00988064 2.31098e-05 -2.85361e-24)
(0.00989666 1.86429e-05 -2.16793e-24)
(0.00990949 1.42726e-05 2.46666e-24)
(0.00991931 9.99226e-06 -8.64412e-24)
(0.00992632 5.82991e-06 2.86351e-23)
(0.00993069 1.80842e-06 -3.92768e-23)
(0.00993259 -2.07208e-06 3.98542e-23)
(0.00993218 -5.78754e-06 -1.72526e-23)
(0.00992959 -9.33292e-06 4.36268e-24)
(0.00992495 -1.27072e-05 3.79271e-25)
(0.00991838 -1.59046e-05 -3.47081e-24)
(0.00990999 -1.892e-05 1.62008e-24)
(0.00989988 -2.17491e-05 -3.22487e-24)
(0.00988818 -2.43899e-05 -5.28411e-25)
(0.00987497 -2.68391e-05 2.87837e-25)
(0.0083109 1.63039e-05 -1.38689e-24)
(0.00832449 1.30818e-05 3.27227e-25)
(0.00833526 9.93075e-06 7.84174e-25)
(0.00834333 6.83132e-06 -3.91056e-24)
(0.00834885 3.81435e-06 -1.96021e-24)
(0.00835197 8.98908e-07 1.60806e-23)
(0.00835281 -1.91556e-06 -9.58108e-24)
(0.00835153 -4.61893e-06 1.50828e-24)
(0.00834825 -7.19452e-06 -1.43073e-24)
(0.00834306 -9.64432e-06 -1.72859e-24)
(0.00833608 -1.19641e-05 -6.54734e-25)
(0.00832741 -1.41492e-05 3.72833e-24)
(0.00831716 -1.6196e-05 1.33585e-24)
(0.00830545 -1.8102e-05 -2.5577e-24)
(0.00829234 -1.98644e-05 -4.7698e-25)
(0.00685531 1.11164e-05 -5.0462e-25)
(0.00686661 8.88823e-06 -1.84703e-25)
(0.0068755 6.71138e-06 -8.59772e-24)
(0.00688203 4.56047e-06 2.0567e-24)
(0.00688632 2.4654e-06 -6.80839e-24)
(0.00688848 4.41999e-07 4.24021e-24)
(0.00688862 -1.51123e-06 8.96321e-24)
(0.00688685 -3.39787e-06 7.29194e-24)
(0.0068833 -5.19011e-06 -1.05386e-23)
(0.00687803 -6.89438e-06 3.19126e-24)
(0.00687116 -8.50768e-06 3.08129e-24)
(0.00686278 -1.00262e-05 -4.83768e-24)
(0.00685297 -1.14469e-05 2.60529e-24)
(0.00684186 -1.27673e-05 -3.57579e-25)
(0.0068295 -1.39849e-05 8.91302e-25)
(0.00551382 7.24515e-06 -1.97812e-24)
(0.00552304 5.78372e-06 -2.83096e-24)
(0.00553027 4.35898e-06 -6.52524e-25)
(0.00553549 2.94528e-06 7.14701e-24)
(0.0055388 1.56753e-06 -5.29314e-24)
(0.00554029 2.38071e-07 -1.20901e-24)
(0.00554006 -1.04438e-06 9.06367e-24)
(0.00553817 -2.2938e-06 2.10026e-25)
(0.00553474 -3.47507e-06 -1.83866e-24)
(0.00552983 -4.59883e-06 -7.86872e-24)
(0.00552352 -5.66279e-06 5.49377e-25)
(0.00551591 -6.664e-06 6.02314e-24)
(0.00550706 -7.60014e-06 -7.96879e-25)
(0.00549709 -8.46887e-06 -1.12161e-24)
(0.00548604 -9.26798e-06 7.81516e-25)
(0.00428441 4.42546e-06 -4.32846e-25)
(0.00429175 3.53196e-06 1.53081e-26)
(0.00429749 2.66559e-06 3.39761e-24)
(0.0043016 1.80309e-06 2.43492e-24)
(0.00430416 9.62688e-07 -1.49595e-24)
(0.00430521 1.45249e-07 -4.11833e-24)
(0.00430488 -6.26137e-07 1.78547e-24)
(0.00430315 -1.40034e-06 -7.81444e-24)
(0.00430015 -2.12488e-06 6.0731e-24)
(0.00429591 -2.81432e-06 3.47381e-24)
(0.00429053 -3.46754e-06 2.32683e-25)
(0.00428405 -4.08231e-06 -4.123e-24)
(0.00427656 -4.65687e-06 8.46331e-25)
(0.00426812 -5.18926e-06 -7.46962e-25)
(0.0042588 -5.67754e-06 4.01855e-25)
(0.00316337 2.43847e-06 -7.98149e-25)
(0.00316896 1.94234e-06 -3.08541e-27)
(0.00317336 1.46854e-06 2.71427e-24)
(0.0031765 9.96537e-07 -1.70451e-24)
(0.00317844 5.38054e-07 7.47238e-24)
(0.00317921 9.04828e-08 -1.36309e-23)
(0.00317894 -3.29419e-07 1.15069e-23)
(0.00317755 -7.58833e-07 -1.01116e-23)
(0.00317517 -1.15748e-06 7.59504e-24)
(0.00317183 -1.53641e-06 -5.13877e-24)
(0.00316759 -1.89576e-06 1.80942e-24)
(0.00316249 -2.2336e-06 2.83665e-25)
(0.00315659 -2.54874e-06 5.54422e-25)
(0.00314996 -2.83971e-06 -7.10446e-25)
(0.00314263 -3.10488e-06 1.66133e-25)
(0.00214566 1.11695e-06 1.21318e-24)
(0.0021496 8.76117e-07 1.37264e-24)
(0.00215272 6.54853e-07 -5.82314e-24)
(0.00215496 4.37695e-07 4.33908e-24)
(0.00215636 2.29072e-07 -1.034e-26)
(0.00215692 2.76085e-08 1.24125e-24)
(0.00215676 -1.6704e-07 -1.43708e-24)
(0.00215581 -3.61607e-07 -3.3263e-24)
(0.00215414 -5.41944e-07 3.38998e-24)
(0.00215179 -7.11667e-07 4.47589e-25)
(0.00214879 -8.71265e-07 -3.08446e-24)
(0.00214518 -1.02116e-06 1.09448e-24)
(0.002141 -1.16086e-06 7.64706e-25)
(0.00213628 -1.28963e-06 -8.15468e-26)
(0.00213107 -1.4055e-06 -1.11833e-25)
(0.00122532 3.61628e-07 -1.22652e-24)
(0.00122765 2.80842e-07 3.811e-24)
(0.00122951 2.09746e-07 2.41596e-24)
(0.00123085 1.46117e-07 -4.20751e-24)
(0.00123171 8.45641e-08 -5.00228e-25)
(0.00123208 2.25311e-08 -4.70386e-25)
(0.00123201 -3.62985e-08 1.51589e-24)
(0.00123149 -9.60664e-08 -2.63412e-24)
(0.00123053 -1.52498e-07 3.78436e-24)
(0.00122917 -2.03622e-07 -1.84527e-24)
(0.00122741 -2.47422e-07 -1.34111e-24)
(0.0012253 -2.92669e-07 8.54723e-25)
(0.00122283 -3.39494e-07 -1.1995e-24)
(0.00122005 -3.87852e-07 1.26076e-24)
(0.00121697 -4.33818e-07 -2.42726e-25)
(0.000395825 9.84289e-08 -8.81048e-27)
(0.000396548 1.524e-07 7.5065e-25)
(0.000397132 1.92722e-07 9.00479e-25)
(0.000397552 2.23423e-07 -1.37506e-24)
(0.000397822 2.41037e-07 3.04631e-24)
(0.000397933 2.45265e-07 -3.29433e-24)
(0.000397903 2.40778e-07 2.32748e-25)
(0.000397727 2.26198e-07 2.04296e-24)
(0.000397409 2.03513e-07 -2.83458e-24)
(0.000396956 1.75732e-07 -5.96899e-25)
(0.000396373 1.45821e-07 2.22852e-24)
(0.000395668 1.07995e-07 -1.01185e-24)
(0.000394847 6.3003e-08 -4.52343e-25)
(0.000393918 1.15075e-08 3.89726e-25)
(0.00039289 -4.33432e-08 -2.02041e-26)
(0.00088856 -0.000219377 6.23743e-26)
(0.00101853 -0.000130505 1.49054e-24)
(0.00123853 -3.94269e-05 -4.12133e-24)
(0.00146446 3.75672e-05 5.65443e-24)
(0.0016841 0.00010333 -2.11744e-24)
(0.00190315 0.000159058 -1.79205e-24)
(0.00212257 0.000207159 1.93207e-24)
(0.00234361 0.000249297 -3.60947e-24)
(0.00256721 0.000286514 2.62102e-25)
(0.00279368 0.000319421 2.22182e-24)
(0.00302293 0.0003483 -4.42483e-25)
(0.00325461 0.000373091 5.14471e-25)
(0.00348835 0.000393161 -2.4836e-26)
(0.00372386 0.000407029 4.67536e-25)
(0.00396116 0.000412119 -1.75879e-24)
(0.00420067 0.00040484 1.0185e-24)
(0.00444401 0.00038105 -4.26805e-25)
(0.00469392 0.000337276 -8.72696e-27)
(0.00495566 0.000271957 1.14806e-24)
(0.00523511 0.000187602 -7.30723e-25)
(0.00553862 8.93819e-05 8.16973e-26)
(0.00586949 -1.44354e-05 -6.70288e-26)
(0.00619482 -0.000110692 8.69735e-26)
(0.00647356 -0.000193667 2.24288e-25)
(0.00669386 -0.000266622 -4.10729e-25)
(0.00685945 -0.000334328 -9.46366e-26)
(0.00697285 -0.000398306 1.43139e-25)
(0.00704092 -0.000459942 -1.55124e-26)
(0.00706354 -0.00051661 -9.50899e-25)
(0.00704476 -0.000567971 2.02548e-24)
(0.00698927 -0.000614347 -4.09053e-24)
(0.00689839 -0.000650237 5.53906e-24)
(0.00677267 -0.000670232 -2.29709e-24)
(0.00661361 -0.000668792 -4.40114e-24)
(0.00642312 -0.000639225 4.39488e-24)
(0.00620324 -0.000573795 1.63977e-23)
(0.00595612 -0.000463425 -6.17018e-24)
(0.00568409 -0.000296905 2.10811e-24)
(0.00538972 -5.9453e-05 4.58858e-25)
(0.00507647 0.000268766 -1.75578e-23)
(0.00474692 0.000710596 -1.98779e-25)
(0.00440374 0.00127827 6.29633e-24)
(0.00402439 0.00192636 1.56941e-24)
(0.00362343 0.00247813 -8.4188e-24)
(0.00339031 0.00245408 -3.83737e-25)
(0.0016873 -0.000297751 -1.77704e-24)
(0.00174165 -0.000243562 -2.29355e-24)
(0.00187885 -0.000155616 4.91197e-24)
(0.00205162 -7.21147e-05 1.99428e-24)
(0.00223725 2.92399e-06 -6.9141e-24)
(0.00243202 6.78883e-05 6.97729e-24)
(0.00263303 0.000124274 -2.44519e-24)
(0.0028394 0.000173761 1.73388e-24)
(0.00305094 0.000217567 -2.3093e-24)
(0.00326746 0.000256477 2.11098e-26)
(0.00348866 0.000290887 -1.3154e-24)
(0.00371408 0.000320775 2.692e-24)
(0.00394327 0.000345498 -1.61737e-24)
(0.00417583 0.000363546 -1.90817e-24)
(0.00441158 0.00037231 -1.79457e-24)
(0.00465065 0.000368169 2.61038e-24)
(0.00489413 0.000346968 -5.61624e-25)
(0.00514409 0.000305239 1.99965e-24)
(0.00540491 0.000241496 3.93088e-25)
(0.00568153 0.00015841 -6.74604e-25)
(0.00597948 6.13818e-05 -2.73248e-25)
(0.00630153 -4.08665e-05 -1.21158e-25)
(0.00661583 -0.000134883 4.8527e-25)
(0.00688379 -0.000214914 3.19955e-25)
(0.00709478 -0.000284262 -5.00523e-25)
(0.00725281 -0.00034774 -8.88298e-25)
(0.00736059 -0.000406999 7.12846e-25)
(0.0074248 -0.00046325 8.48583e-26)
(0.00744462 -0.0005137 -8.57407e-26)
(0.0074252 -0.000558301 6.64643e-25)
(0.00737115 -0.000597271 -6.54848e-24)
(0.0072835 -0.000624815 1.26314e-23)
(0.00716319 -0.000635551 -1.20348e-23)
(0.00701225 -0.000624088 2.57129e-23)
(0.00683336 -0.000583852 -3.43546e-23)
(0.00662958 -0.000507229 8.67882e-24)
(0.00640456 -0.000385339 2.61239e-23)
(0.00616294 -0.000207357 -8.54164e-24)
(0.00591101 4.06804e-05 -1.82816e-23)
(0.00565859 0.000377433 -9.5228e-24)
(0.00542032 0.000824833 2.16643e-23)
(0.00522144 0.00139681 -1.96803e-23)
(0.0050801 0.00205158 -3.46416e-24)
(0.00504781 0.00260131 1.15104e-23)
(0.00511384 0.00253963 3.30127e-24)
(0.00264121 -0.000304834 -1.97794e-26)
(0.00264839 -0.000291399 -2.68654e-24)
(0.00270766 -0.00023525 5.08469e-24)
(0.00281726 -0.000162289 3.77244e-24)
(0.00295464 -8.84676e-05 -6.33577e-24)
(0.00311186 -2.0173e-05 1.52759e-25)
(0.00328317 4.11874e-05 5.3443e-25)
(0.0034654 9.61083e-05 5.32774e-24)
(0.00365687 0.000145352 -6.29438e-24)
(0.00385657 0.000189549 3.87868e-24)
(0.00406374 0.00022904 1.39078e-24)
(0.0042777 0.00026376 -7.2179e-24)
(0.00449783 0.000293016 2.63809e-24)
(0.00472356 0.000315244 1.32261e-24)
(0.0049545 0.000327793 -3.40471e-24)
(0.00519037 0.000327003 6.20137e-24)
(0.0054317 0.00030869 -4.8794e-24)
(0.0056797 0.000269362 -2.72194e-25)
(0.00593778 0.000207572 4.04124e-25)
(0.00620971 0.00012612 5.29357e-25)
(0.00650011 3.06148e-05 1.0415e-25)
(0.00681116 -6.97668e-05 2.69797e-25)
(0.00711224 -0.000161263 -4.54386e-25)
(0.00736743 -0.00023808 1.16707e-24)
(0.00756735 -0.000303556 -1.34769e-24)
(0.00771628 -0.00036254 6.85178e-25)
(0.00781719 -0.000416819 -1.49992e-25)
(0.00787638 -0.000467341 9.71934e-26)
(0.00789237 -0.000511209 1.92682e-24)
(0.00787189 -0.000548821 1.60211e-24)
(0.00781908 -0.000580097 2.98567e-24)
(0.00773457 -0.000598935 -1.46005e-23)
(0.00761986 -0.000600104 5.73971e-24)
(0.00747758 -0.000578448 1.31287e-23)
(0.00731121 -0.000527652 -2.87159e-23)
(0.00712486 -0.000440469 3.9931e-23)
(0.00692372 -0.000308645 -2.51102e-23)
(0.00671466 -0.000122499 2.99983e-23)
(0.00650729 0.000129696 -5.527e-23)
(0.00631651 0.000462346 2.05804e-23)
(0.00616498 0.000890518 6.60591e-24)
(0.00608896 0.0014191 9.42619e-24)
(0.00611858 0.00200052 -1.17012e-23)
(0.00629606 0.00246513 2.95508e-24)
(0.00649834 0.00241272 -1.75806e-24)
(0.00373496 -0.000287137 -7.2498e-25)
(0.00371571 -0.000298615 -1.04119e-24)
(0.00372504 -0.000272948 -4.27908e-24)
(0.00377383 -0.000222837 1.44557e-24)
(0.00385803 -0.000160329 9.40262e-25)
(0.00396893 -9.64146e-05 3.02605e-24)
(0.00410088 -3.53693e-05 -5.66309e-24)
(0.00424968 2.14289e-05 2.26793e-24)
(0.00441253 7.36842e-05 6.85652e-24)
(0.00458762 0.000121463 -1.76905e-24)
(0.00477371 0.000164804 -1.724e-24)
(0.00496982 0.000203461 -3.03007e-25)
(0.00517517 0.00023661 1.1947e-24)
(0.00538901 0.000262594 -2.58446e-24)
(0.00561069 0.000278699 4.93374e-25)
(0.00583953 0.000281215 -4.57054e-25)
(0.00607541 0.00026592 -2.27628e-24)
(0.0063186 0.000229274 5.45627e-25)
(0.00657133 0.000169827 4.14203e-24)
(0.00683605 9.0456e-05 -5.20903e-25)
(0.00711628 -3.07829e-06 -9.46261e-25)
(0.00741355 -0.00010117 -2.00713e-25)
(0.00769863 -0.000189761 -7.8374e-25)
(0.00793856 -0.000263021 2.26664e-25)
(0.00812525 -0.0003243 -7.37247e-25)
(0.00826315 -0.00037849 1.76512e-24)
(0.00835568 -0.000427493 -1.23293e-25)
(0.00840829 -0.000471882 -3.46891e-25)
(0.00841918 -0.000508853 2.03313e-24)
(0.00839722 -0.00053934 1.6189e-25)
(0.00834537 -0.000562698 -2.6669e-24)
(0.00826373 -0.000572603 -4.26338e-25)
(0.00815471 -0.000564178 -4.37026e-25)
(0.00802151 -0.00053261 -3.20007e-24)
(0.00786842 -0.000472018 5.39345e-24)
(0.00770056 -0.000375819 -1.15206e-23)
(0.00752445 -0.000236843 4.9221e-23)
(0.00734877 -4.72654e-05 -2.65996e-23)
(0.0071854 0.000201216 -1.74178e-24)
(0.00705164 0.00051705 -4.6e-23)
(0.0069719 0.00090575 3.43611e-23)
(0.0069807 0.00136116 -1.14498e-23)
(0.00710529 0.00183642 3.10146e-24)
(0.00735521 0.0022128 1.38953e-23)
(0.00764227 0.00224225 -3.35416e-24)
(0.00496489 -0.000259324 -2.95612e-24)