/*--------------------------------*- C++ -*----------------------------------*\
| =========                 |                                                 |
| \\      /  F ield         | OpenFOAM: The Open Source CFD Toolbox           |
|  \\    /   O peration     | Version:  2312                                  |
|   \\  /    A nd           | Website:  www.openfoam.com                      |
|    \\/     M anipulation  |                                                 |
\*---------------------------------------------------------------------------*/
FoamFile
{
    version     2.0;
    format      ascii;
    arch        "LSB;label=32;scalar=64";
    class       volScalarField;
    location    "300";
    object      p;
}
// * * * * * * * * * * * * * * * * * * * * * * * * * * * * * * * * * * * * * //

dimensions      [0 2 -2 0 0 0 0];

internalField   nonuniform List<scalar> 
4800
(
5.22725e-13
-1.93124e-07
-3.64013e-07
-5.15027e-07
-6.49194e-07
-7.68634e-07
-8.75081e-07
-9.69763e-07
-1.05333e-06
-1.12583e-06
-1.18722e-06
-1.24032e-06
-1.29501e-06
-1.36345e-06
-1.71071e-06
1.64523e-09
-1.91336e-07
-3.62113e-07
-5.13135e-07
-6.47474e-07
-7.67303e-07
-8.7445e-07
-9.70331e-07
-1.056e-06
-1.13237e-06
-1.20104e-06
-1.26666e-06
-1.33982e-06
-1.44492e-06
-1.71602e-06
3.73475e-09
-1.89163e-07
-3.59872e-07
-5.10952e-07
-6.45529e-07
-7.65843e-07
-8.73833e-07
-9.71131e-07
-1.05923e-06
-1.13987e-06
-1.21591e-06
-1.29302e-06
-1.38075e-06
-1.49262e-06
-1.66563e-06
6.12054e-09
-1.8667e-07
-3.57286e-07
-5.08383e-07
-6.43152e-07
-7.63896e-07
-8.72651e-07
-9.71228e-07
-1.06141e-06
-1.14533e-06
-1.22597e-06
-1.30777e-06
-1.39582e-06
-1.4928e-06
-1.60093e-06
8.92049e-09
-1.83698e-07
-3.54155e-07
-5.05189e-07
-6.40056e-07
-7.61111e-07
-8.70456e-07
-9.70002e-07
-1.06163e-06
-1.14738e-06
-1.22953e-06
-1.31033e-06
-1.39068e-06
-1.46798e-06
-1.53598e-06
1.23014e-08
-1.80064e-07
-3.50269e-07
-5.01123e-07
-6.35941e-07
-7.57113e-07
-8.66753e-07
-9.66756e-07
-1.05888e-06
-1.14474e-06
-1.22554e-06
-1.30155e-06
-1.37123e-06
-1.43057e-06
-1.47369e-06
1.64796e-08
-1.75528e-07
-3.45357e-07
-4.95861e-07
-6.30407e-07
-7.5139e-07
-8.60859e-07
-9.60578e-07
-1.052e-06
-1.13612e-06
-1.21315e-06
-1.28211e-06
-1.34069e-06
-1.38561e-06
-1.41357e-06
2.17875e-08
-1.69731e-07
-3.3901e-07
-4.88927e-07
-6.22879e-07
-7.43225e-07
-8.51878e-07
-9.50361e-07
-1.03973e-06
-1.12039e-06
-1.1919e-06
-1.25287e-06
-1.30135e-06
-1.33554e-06
-1.35436e-06
2.87429e-08
-1.62122e-07
-3.30622e-07
-4.7963e-07
-6.12545e-07
-7.31659e-07
-8.38686e-07
-9.34861e-07
-1.02086e-06
-1.0967e-06
-1.16172e-06
-1.21478e-06
-1.25481e-06
-1.2814e-06
-1.2948e-06
3.81401e-08
-1.51879e-07
-3.193e-07
-4.66986e-07
-5.98306e-07
-7.15462e-07
-8.19952e-07
-9.12747e-07
-9.94274e-07
-1.06443e-06
-1.12274e-06
-1.16866e-06
-1.20203e-06
-1.22343e-06
-1.23369e-06
5.11539e-08
-1.378e-07
-3.03771e-07
-4.49642e-07
-5.78715e-07
-6.9311e-07
-7.9415e-07
-8.82643e-07
-9.58955e-07
-1.02313e-06
-1.0751e-06
-1.11499e-06
-1.14338e-06
-1.16137e-06
-1.16996e-06
6.94377e-08
-1.18215e-07
-2.82296e-07
-4.25803e-07
-5.5194e-07
-6.62791e-07
-7.59601e-07
-8.4316e-07
-9.13963e-07
-9.72369e-07
-1.0188e-06
-1.05392e-06
-1.07878e-06
-1.0947e-06
-1.10263e-06
9.51557e-08
-9.09406e-08
-2.52637e-07
-3.93219e-07
-5.15785e-07
-6.22448e-07
-7.14513e-07
-7.92901e-07
-8.58367e-07
-9.11644e-07
-9.53576e-07
-9.85208e-07
-1.0078e-06
-1.02271e-06
-1.03074e-06
1.30868e-07
-5.33648e-08
-2.12151e-07
-3.49281e-07
-4.67794e-07
-5.69888e-07
-6.57063e-07
-7.30484e-07
-7.91209e-07
-8.40306e-07
-8.78919e-07
-9.08288e-07
-9.29725e-07
-9.4451e-07
-9.5331e-07
1.79207e-07
-2.72767e-09
-1.58068e-07
-2.91305e-07
-4.05506e-07
-5.03001e-07
-5.85558e-07
-6.54625e-07
-7.11539e-07
-7.57608e-07
-7.94136e-07
-8.22422e-07
-8.43729e-07
-8.59216e-07
-8.69432e-07
2.42406e-07
6.34379e-08
-8.79457e-08
-2.16973e-07
-3.26861e-07
-4.20088e-07
-4.98675e-07
-5.64332e-07
-6.18591e-07
-6.62887e-07
-6.98573e-07
-7.26912e-07
-7.49069e-07
-7.66071e-07
-7.78384e-07
3.2188e-07
1.46859e-07
-9.59643e-11
-1.24774e-07
-2.30607e-07
-3.20199e-07
-3.95757e-07
-4.59155e-07
-5.1203e-07
-5.55841e-07
-5.91907e-07
-6.21406e-07
-6.4538e-07
-6.64733e-07
-6.79884e-07
4.1793e-07
2.48184e-07
1.06113e-07
-1.42604e-08
-1.16518e-07
-2.03331e-07
-2.76971e-07
-3.39366e-07
-3.92155e-07
-4.36753e-07
-4.74388e-07
-5.0613e-07
-5.32899e-07
-5.55479e-07
-5.74281e-07
5.29429e-07
3.66584e-07
2.29895e-07
1.13678e-07
1.43953e-08
-7.05778e-08
-1.4346e-07
-2.06116e-07
-2.60104e-07
-3.06729e-07
-3.47103e-07
-3.82173e-07
-4.12742e-07
-4.3949e-07
-4.62841e-07
6.53258e-07
4.99084e-07
3.68337e-07
2.56146e-07
1.59285e-07
7.53135e-08
2.17271e-09
-6.18628e-08
-1.18195e-07
-1.67979e-07
-2.12186e-07
-2.51634e-07
-2.87016e-07
-3.18912e-07
-3.47787e-07
7.75652e-07
6.31142e-07
5.06493e-07
3.98029e-07
3.0304e-07
2.19352e-07
1.45152e-07
7.89485e-08
1.95314e-08
-3.4095e-08
-8.27637e-08
-1.27174e-07
-1.67917e-07
-2.05489e-07
-2.40396e-07
8.76944e-07
7.41352e-07
6.22203e-07
5.16943e-07
4.23387e-07
3.39635e-07
2.64147e-07
1.95686e-07
1.33233e-07
7.59354e-08
2.3082e-08
-2.59238e-08
-7.15854e-08
-1.14327e-07
-1.54632e-07
9.52626e-07
8.24639e-07
7.10266e-07
6.07805e-07
5.15507e-07
4.31739e-07
3.55195e-07
2.84848e-07
2.1984e-07
1.59445e-07
1.03056e-07
5.01631e-08
3.35142e-10
-4.67912e-08
-9.16504e-08
1.00785e-06
8.86282e-07
7.76052e-07
6.76056e-07
5.8489e-07
5.01164e-07
4.23781e-07
3.51883e-07
2.8475e-07
2.21767e-07
1.62416e-07
1.06261e-07
5.29324e-08
2.11831e-09
-4.65616e-08
1.04739e-06
9.31205e-07
8.24553e-07
7.26727e-07
6.36588e-07
5.52957e-07
4.74919e-07
4.0176e-07
3.32874e-07
2.67738e-07
2.05912e-07
1.47025e-07
9.07614e-08
3.68527e-08
-1.50293e-08
1.07529e-06
9.63634e-07
8.60072e-07
7.64151e-07
6.74931e-07
5.91424e-07
5.12871e-07
4.38676e-07
3.68329e-07
3.0139e-07
2.37487e-07
1.76304e-07
1.17572e-07
6.10633e-08
6.49616e-09
1.09477e-06
9.86951e-07
8.86057e-07
7.918e-07
7.03394e-07
6.20017e-07
5.41047e-07
4.65988e-07
3.94412e-07
3.2595e-07
2.6029e-07
1.97166e-07
1.36351e-07
7.76508e-08
2.08259e-08
1.10829e-06
1.00375e-06
9.05158e-07
8.12348e-07
7.24654e-07
6.41401e-07
5.62083e-07
4.8629e-07
4.13666e-07
3.43905e-07
2.76748e-07
2.11971e-07
1.49385e-07
8.8828e-08
3.00955e-08
1.11768e-06
1.01594e-06
9.19348e-07
8.27791e-07
7.40713e-07
6.57568e-07
5.77951e-07
5.01524e-07
4.27996e-07
3.57116e-07
2.8867e-07
2.22475e-07
1.58373e-07
9.62309e-08
3.58757e-08
1.12423e-06
1.02492e-06
9.30057e-07
8.39581e-07
7.53032e-07
6.69977e-07
5.90095e-07
5.13113e-07
4.38795e-07
3.6694e-07
2.97376e-07
2.29953e-07
1.64542e-07
1.01036e-07
3.92899e-08
1.12888e-06
1.03167e-06
9.38299e-07
8.48754e-07
7.62657e-07
6.79672e-07
5.99548e-07
5.22073e-07
4.47059e-07
3.74348e-07
3.03804e-07
2.3531e-07
1.68761e-07
1.04072e-07
4.11236e-08
1.13224e-06
1.03685e-06
9.4478e-07
8.56038e-07
7.70323e-07
6.87388e-07
6.07043e-07
5.29125e-07
4.53492e-07
3.80023e-07
3.08616e-07
2.3918e-07
1.71634e-07
1.05912e-07
4.19167e-08
1.13473e-06
1.04094e-06
9.49988e-07
8.61936e-07
7.76546e-07
6.93644e-07
6.13092e-07
5.34774e-07
4.58587e-07
3.84444e-07
3.12272e-07
2.42003e-07
1.73578e-07
1.06948e-07
4.20355e-08
1.13664e-06
1.04423e-06
9.54259e-07
8.66801e-07
7.81685e-07
6.98799e-07
6.18054e-07
5.39373e-07
4.62688e-07
3.87944e-07
3.1509e-07
2.44082e-07
1.74879e-07
1.07448e-07
4.17268e-08
1.13813e-06
1.04694e-06
9.57821e-07
8.70874e-07
7.85988e-07
7.03107e-07
6.22182e-07
5.43171e-07
4.66038e-07
3.90754e-07
3.17292e-07
2.45627e-07
1.75732e-07
1.07591e-07
4.1156e-08
1.13934e-06
1.04922e-06
9.60829e-07
8.74323e-07
7.89631e-07
7.06746e-07
6.25652e-07
5.4634e-07
4.68804e-07
3.93037e-07
3.19031e-07
2.46781e-07
1.76273e-07
1.07503e-07
4.04345e-08
1.14033e-06
1.05114e-06
9.63396e-07
8.77268e-07
7.9274e-07
7.09841e-07
6.28591e-07
5.49007e-07
4.71107e-07
3.94907e-07
3.20416e-07
2.47644e-07
1.7659e-07
1.07261e-07
3.96322e-08
1.14117e-06
1.05281e-06
9.65627e-07
8.79828e-07
7.95439e-07
7.12521e-07
6.31122e-07
5.51289e-07
4.73058e-07
3.96464e-07
3.21534e-07
2.48291e-07
1.76746e-07
1.06914e-07
3.87817e-08
1.14191e-06
1.05432e-06
9.67652e-07
8.82154e-07
7.97889e-07
7.1495e-07
6.33412e-07
5.53342e-07
4.748e-07
3.97839e-07
3.22499e-07
2.48816e-07
1.76812e-07
1.06513e-07
3.79115e-08
1.14252e-06
1.05563e-06
9.69421e-07
8.84201e-07
8.00056e-07
7.17108e-07
6.35454e-07
5.55183e-07
4.76374e-07
3.99093e-07
3.23396e-07
2.4933e-07
1.76926e-07
1.06218e-07
3.72057e-08
-2.486e-06
-2.12654e-06
-1.85429e-06
-1.65811e-06
-1.49532e-06
-1.36011e-06
-1.24599e-06
-1.14832e-06
-1.06414e-06
-9.91428e-07
-9.28748e-07
-8.74999e-07
-8.29285e-07
-7.90824e-07
-7.58878e-07
-7.32738e-07
-7.11685e-07
-6.95034e-07
-6.82008e-07
-6.71796e-07
-6.62729e-07
-6.52156e-07
-6.33871e-07
-6.00671e-07
-5.49656e-07
-4.78828e-07
-3.88216e-07
-2.79929e-07
-1.57408e-07
-2.49702e-08
1.12644e-07
2.50576e-07
3.84045e-07
5.0843e-07
6.19359e-07
7.12806e-07
7.85163e-07
8.33425e-07
8.55464e-07
8.50313e-07
8.18357e-07
7.58838e-07
6.58128e-07
5.06742e-07
1.42313e-07
-2.06475e-06
-1.93577e-06
-1.76888e-06
-1.61363e-06
-1.47088e-06
-1.34555e-06
-1.2365e-06
-1.14156e-06
-1.05893e-06
-9.87152e-07
-9.25064e-07
-8.71722e-07
-8.26316e-07
-7.88112e-07
-7.564e-07
-7.30487e-07
-7.09663e-07
-6.93237e-07
-6.80421e-07
-6.70378e-07
-6.61408e-07
-6.50844e-07
-6.325e-07
-5.99314e-07
-5.48558e-07
-4.78357e-07
-3.88808e-07
-2.82052e-07
-1.61545e-07
-3.16145e-08
1.02971e-07
2.3729e-07
3.66428e-07
4.85537e-07
5.89793e-07
6.74361e-07
7.34274e-07
7.64306e-07
7.58734e-07
7.10728e-07
6.1074e-07
4.41787e-07
1.66241e-07
-2.88739e-07
-1.06808e-06
-1.83093e-06
-1.78511e-06
-1.67967e-06
-1.55939e-06
-1.43796e-06
-1.32475e-06
-1.22259e-06
-1.13169e-06
-1.05153e-06
-9.81321e-07
-9.20291e-07
-8.67698e-07
-8.22853e-07
-7.85088e-07
-7.53739e-07
-7.28137e-07
-7.0759e-07
-6.91413e-07
-6.78813e-07
-6.6893e-07
-6.60037e-07
-6.49444e-07
-6.30993e-07
-5.97783e-07
-5.47307e-07
-4.77868e-07
-3.89676e-07
-2.84956e-07
-1.67224e-07
-4.08618e-08
8.92912e-08
2.18202e-07
3.4078e-07
4.51903e-07
5.46301e-07
6.18406e-07
6.62086e-07
6.70285e-07
6.34481e-07
5.43758e-07
3.83236e-07
1.31563e-07
-2.42542e-07
-7.77841e-07
-1.50895e-06
-1.68403e-06
-1.66645e-06
-1.59614e-06
-1.50283e-06
-1.40089e-06
-1.30029e-06
-1.20598e-06
-1.11997e-06
-1.04289e-06
-9.74686e-07
-9.14998e-07
-8.63341e-07
-8.19176e-07
-7.81927e-07
-7.50986e-07
-7.25721e-07
-7.05463e-07
-6.89536e-07
-6.77148e-07
-6.67417e-07
-6.58586e-07
-6.47941e-07
-6.2935e-07
-5.96106e-07
-5.45946e-07
-4.77389e-07
-3.90802e-07
-2.88525e-07
-1.74171e-07
-5.22106e-08
7.24124e-08
1.94522e-07
3.08819e-07
4.09875e-07
4.91979e-07
5.48924e-07
5.7366e-07
5.57861e-07
4.91395e-07
3.61746e-07
1.5367e-07
-1.50076e-07
-5.65257e-07
-1.09703e-06
-1.72857e-06
-1.57842e-06
-1.56926e-06
-1.52012e-06
-1.44713e-06
-1.36188e-06
-1.27338e-06
-1.18729e-06
-1.10672e-06
-1.0332e-06
-9.67345e-07
-9.09234e-07
-8.58664e-07
-8.15272e-07
-7.78593e-07
-7.48092e-07
-7.23182e-07
-7.03225e-07
-6.87558e-07
-6.7539e-07
-6.65814e-07
-6.57049e-07
-6.46349e-07
-6.27632e-07
-5.9441e-07
-5.44691e-07
-4.77242e-07
-3.92605e-07
-2.93255e-07
-1.82917e-07
-6.61619e-08
5.1948e-08
1.66084e-07
2.70744e-07
3.60209e-07
4.28393e-07
4.68598e-07
4.73192e-07
4.33261e-07
3.38381e-07
1.76764e-07
-6.3659e-08
-3.92362e-07
-8.10733e-07
-1.30432e-06
-1.83698e-06
-1.49542e-06
-1.48783e-06
-1.45148e-06
-1.39356e-06
-1.32222e-06
-1.24485e-06
-1.16695e-06
-1.09213e-06
-1.02255e-06
-9.59349e-07
-9.0304e-07
-8.53706e-07
-8.11179e-07
-7.75125e-07
-7.45095e-07
-7.20558e-07
-7.00913e-07
-6.85514e-07
-6.73574e-07
-6.64161e-07
-6.55467e-07
-6.44722e-07
-6.25914e-07
-5.92817e-07
-5.43728e-07
-4.77692e-07
-3.95449e-07
-2.99621e-07
-1.94052e-07
-8.34213e-08
2.70937e-08
1.3202e-07
2.25679e-07
3.02124e-07
3.5502e-07
3.77434e-07
3.61615e-07
2.98882e-07
1.79826e-07
-4.8295e-09
-2.62249e-07
-5.9404e-07
-9.91654e-07
-1.43229e-06
-1.87869e-06
-1.42467e-06
-1.41712e-06
-1.38882e-06
-1.34222e-06
-1.28246e-06
-1.21519e-06
-1.14527e-06
-1.07638e-06
-1.01103e-06
-9.50785e-07
-8.96503e-07
-8.4856e-07
-8.06997e-07
-7.71624e-07
-7.42094e-07
-7.17944e-07
-6.98618e-07
-6.83491e-07
-6.71782e-07
-6.62534e-07
-6.53922e-07
-6.4315e-07
-6.24311e-07
-5.91482e-07
-5.43272e-07
-4.79034e-07
-3.99727e-07
-3.08129e-07
-2.08212e-07
-1.04756e-07
-3.0408e-09
9.1349e-08
1.72617e-07
2.34703e-07
2.71225e-07
2.75355e-07
2.39776e-07
1.56847e-07
1.91896e-08
-1.79042e-07
-4.40035e-07
-7.59495e-07
-1.12399e-06
-1.51014e-06
-1.88753e-06
-1.36004e-06
-1.35276e-06
-1.33013e-06
-1.29238e-06
-1.24245e-06
-1.1844e-06
-1.12226e-06
-1.05946e-06
-9.98648e-07
-9.41661e-07
-8.89664e-07
-8.43299e-07
-8.0282e-07
-7.682e-07
-7.39207e-07
-7.15459e-07
-6.96457e-07
-6.81603e-07
-6.70129e-07
-6.61052e-07
-6.52537e-07
-6.41773e-07
-6.22997e-07
-5.90641e-07
-5.43635e-07
-4.81676e-07
-4.0596e-07
-3.19424e-07
-2.26163e-07
-1.31041e-07
-3.94066e-08
4.31106e-08
1.10694e-07
1.57342e-07
1.76883e-07
1.62983e-07
1.09282e-07
9.79034e-09
-1.40324e-07
-3.43444e-07
-5.978e-07
-8.95758e-07
-1.22294e-06
-1.55925e-06
-1.8823e-06
-1.29783e-06
-1.2914e-06
-1.27332e-06
-1.24283e-06
-1.20146e-06
-1.15196e-06
-1.09747e-06
-1.041e-06
-9.85106e-07
-9.3178e-07
-8.82413e-07
-8.37891e-07
-7.98681e-07
-7.64931e-07
-7.36542e-07
-7.13234e-07
-6.94574e-07
-6.80003e-07
-6.68772e-07
-6.59881e-07
-6.51498e-07
-6.40807e-07
-6.22243e-07
-5.90645e-07
-5.45271e-07
-4.86189e-07
-4.14845e-07
-3.34331e-07
-2.48842e-07
-1.6329e-07
-8.30299e-08
-1.36355e-08
3.91994e-08
6.97412e-08
7.23172e-08
4.14445e-08
-2.78895e-08
-1.39724e-07
-2.96352e-07
-4.973e-07
-7.38281e-07
-1.01051e-06
-1.30092e-06
-1.59379e-06
-1.87339e-06
-1.23567e-06
-1.23056e-06
-1.21648e-06
-1.19223e-06
-1.15848e-06
-1.11702e-06
-1.07012e-06
-1.02026e-06
-9.6977e-07
-9.20636e-07
-8.74389e-07
-8.3211e-07
-7.94471e-07
-7.61804e-07
-7.34163e-07
-7.11385e-07
-6.93124e-07
-6.78876e-07
-6.67923e-07
-6.59259e-07
-6.51073e-07
-6.40569e-07
-6.22445e-07
-5.91998e-07
-5.48813e-07
-4.93344e-07
-4.27293e-07
-3.53882e-07
-2.77369e-07
-2.02651e-07
-1.34991e-07
-7.97773e-08
-4.24048e-08
-2.81109e-08
-4.18071e-08
-8.78618e-08
-1.69759e-07
-2.89618e-07
-4.47596e-07
-6.41267e-07
-8.65174e-07
-1.11083e-06
-1.36742e-06
-1.62324e-06
-1.86745e-06
-1.17185e-06
-1.16843e-06
-1.15802e-06
-1.13931e-06
-1.11245e-06
-1.07855e-06
-1.03917e-06
-9.96218e-07
-9.51673e-07
-9.07382e-07
-8.64905e-07
-8.25449e-07
-7.89857e-07
-7.58641e-07
-7.3202e-07
-7.09967e-07
-6.92246e-07
-6.78427e-07
-6.67842e-07
-6.595e-07
-6.51639e-07
-6.41518e-07
-6.24174e-07
-5.95412e-07
-5.55127e-07
-5.04162e-07
-4.44462e-07
-3.7934e-07
-3.13049e-07
-2.50381e-07
-1.96383e-07
-1.561e-07
-1.34443e-07
-1.35946e-07
-1.64569e-07
-2.23447e-07
-3.14576e-07
-4.38449e-07
-5.937e-07
-7.76851e-07
-9.8228e-07
-1.20256e-06
-1.42921e-06
-1.65377e-06
-1.86873e-06
-1.10509e-06
-1.10359e-06
-1.09666e-06
-1.08296e-06
-1.06238e-06
-1.03558e-06
-1.00358e-06
-9.6774e-07
-9.29648e-07
-8.909e-07
-8.52967e-07
-8.17089e-07
-7.84222e-07
-7.55028e-07
-7.29887e-07
-7.0892e-07
-6.92021e-07
-6.78857e-07
-6.68835e-07
-6.6101e-07
-6.53704e-07
-6.44291e-07
-6.28225e-07
-6.01855e-07
-5.65362e-07
-5.19954e-07
-4.67788e-07
-4.12203e-07
-3.57353e-07
-3.07807e-07
-2.68254e-07
-2.43239e-07
-2.37013e-07
-2.53264e-07
-2.94918e-07
-3.63918e-07
-4.60991e-07
-5.85443e-07
-7.35026e-07
-9.05933e-07
-1.093e-06
-1.29011e-06
-1.49084e-06
-1.68912e-06
-1.87968e-06
-1.03426e-06
-1.03489e-06
-1.03134e-06
-1.02226e-06
-1.00745e-06
-9.87299e-07
-9.62436e-07
-9.33792e-07
-9.0254e-07
-8.6998e-07
-8.374e-07
-8.05974e-07
-7.76688e-07
-7.50302e-07
-7.27326e-07
-7.08027e-07
-6.92434e-07
-6.80336e-07
-6.7124e-07
-6.64287e-07
-6.57934e-07
-6.49744e-07
-6.35665e-07
-6.12605e-07
-5.80992e-07
-5.4235e-07
-4.98988e-07
-4.54179e-07
-4.11865e-07
-3.76259e-07
-3.51547e-07
-3.41635e-07
-3.49997e-07
-3.79414e-07
-4.31817e-07
-5.0813e-07
-6.0814e-07
-7.30433e-07
-8.72418e-07
-1.03046e-06
-1.20013e-06
-1.37661e-06
-1.55511e-06
-1.73128e-06
-1.90136e-06
-9.58352e-07
-9.61349e-07
-9.61141e-07
-9.5644e-07
-9.4702e-07
-9.3311e-07
-9.15102e-07
-8.93594e-07
-8.69415e-07
-8.43555e-07
-8.1707e-07
-7.9099e-07
-7.66249e-07
-7.4363e-07
-7.23726e-07
-7.06919e-07
-6.93367e-07
-6.82989e-07
-6.7542e-07
-6.69929e-07
-6.65163e-07
-6.58975e-07
-6.47857e-07
-6.29259e-07
-6.03811e-07
-5.73265e-07
-5.39992e-07
-5.07095e-07
-4.78174e-07
-4.56957e-07
-4.47002e-07
-4.5149e-07
-4.73071e-07
-5.13664e-07
-5.74344e-07
-6.55268e-07
-7.55636e-07
-8.73726e-07
-1.00699e-06
-1.15224e-06
-1.30588e-06
-1.46419e-06
-1.62366e-06
-1.78116e-06
-1.9339e-06
-8.76485e-07
-8.82124e-07
-8.85331e-07
-8.84901e-07
-8.80616e-07
-8.72642e-07
-8.61221e-07
-8.46724e-07
-8.29714e-07
-8.10912e-07
-7.91132e-07
-7.71222e-07
-7.51999e-07
-7.34203e-07
-7.18444e-07
-7.05175e-07
-6.94656e-07
-6.86931e-07
-6.81779e-07
-6.78635e-07
-6.76399e-07
-6.73313e-07
-6.66441e-07
-6.53696e-07
-6.35855e-07
-6.14783e-07
-5.928e-07
-5.72722e-07
-5.57687e-07
-5.50833e-07
-5.55022e-07
-5.72685e-07
-6.05694e-07
-6.55225e-07
-7.21706e-07
-8.04804e-07
-9.03446e-07
-1.0159e-06
-1.13992e-06
-1.27285e-06
-1.41189e-06
-1.55426e-06
-1.69735e-06
-1.83891e-06
-1.97685e-06
-7.87993e-07
-7.96627e-07
-8.03418e-07
-8.07284e-07
-8.08037e-07
-8.0582e-07
-8.00793e-07
-7.93185e-07
-7.8337e-07
-7.71858e-07
-7.59252e-07
-7.46212e-07
-7.33411e-07
-7.21493e-07
-7.11035e-07
-7.02505e-07
-6.9623e-07
-6.92357e-07
-6.9081e-07
-6.91222e-07
-6.92798e-07
-6.94263e-07
-6.9322e-07
-6.87914e-07
-6.79187e-07
-6.68897e-07
-6.59177e-07
-6.52457e-07
-6.51327e-07
-6.58279e-07
-6.75475e-07
-7.04648e-07
-7.4701e-07
-8.03171e-07
-8.73139e-07
-9.56337e-07
-1.05166e-06
-1.15758e-06
-1.27222e-06
-1.39351e-06
-1.51934e-06
-1.64762e-06
-1.77649e-06
-1.90428e-06
-2.02942e-06
-6.92668e-07
-7.04726e-07
-7.15368e-07
-7.2368e-07
-7.29522e-07
-7.33026e-07
-7.34311e-07
-7.33528e-07
-7.3093e-07
-7.26873e-07
-7.21797e-07
-7.16197e-07
-7.10601e-07
-7.05542e-07
-7.01524e-07
-6.98994e-07
-6.98302e-07
-6.99675e-07
-7.03171e-07
-7.08633e-07
-7.15604e-07
-7.23349e-07
-7.29923e-07
-7.33713e-07
-7.35525e-07
-7.37077e-07
-7.40208e-07
-7.46889e-07
-7.59132e-07
-7.78795e-07
-8.07407e-07
-8.46121e-07
-8.95647e-07
-9.56227e-07
-1.02765e-06
-1.10929e-06
-1.20018e-06
-1.29906e-06
-1.40448e-06
-1.5149e-06
-1.62875e-06
-1.74455e-06
-1.86091e-06
-1.97663e-06
-2.09053e-06
-5.9094e-07
-6.06934e-07
-6.21793e-07
-6.34827e-07
-6.45949e-07
-6.55284e-07
-6.62934e-07
-6.6901e-07
-6.73696e-07
-6.7725e-07
-6.79992e-07
-6.82292e-07
-6.84555e-07
-6.87206e-07
-6.90668e-07
-6.95341e-07
-7.01577e-07
-7.09653e-07
-7.19744e-07
-7.31899e-07
-7.45999e-07
-7.61841e-07
-7.77804e-07
-7.92204e-07
-8.05671e-07
-8.19677e-07
-8.35697e-07
-8.55235e-07
-8.79762e-07
-9.10577e-07
-9.48702e-07
-9.94858e-07
-1.04943e-06
-1.11245e-06
-1.18367e-06
-1.26253e-06
-1.34827e-06
-1.43995e-06
-1.53652e-06
-1.63687e-06
-1.73989e-06
-1.84453e-06
-1.94979e-06
-2.05481e-06
-2.1587e-06
-4.84169e-07
-5.04707e-07
-5.24252e-07
-5.42406e-07
-5.59141e-07
-5.74563e-07
-5.88765e-07
-6.01847e-07
-6.13958e-07
-6.25298e-07
-6.3611e-07
-6.46676e-07
-6.5731e-07
-6.6835e-07
-6.80146e-07
-6.9305e-07
-7.074e-07
-7.23506e-07
-7.41639e-07
-7.62027e-07
-7.84855e-07
-8.10365e-07
-8.37117e-07
-8.63172e-07
-8.88839e-07
-9.15257e-07
-9.43535e-07
-9.7477e-07
-1.00999e-06
-1.05005e-06
-1.09563e-06
-1.14718e-06
-1.2049e-06
-1.26875e-06
-1.33853e-06
-1.41383e-06
-1.49412e-06
-1.57876e-06
-1.66702e-06
-1.75816e-06
-1.85142e-06
-1.94608e-06
-2.04145e-06
-2.13691e-06
-2.23182e-06
-3.74678e-07
-4.00467e-07
-4.25282e-07
-4.49086e-07
-4.71914e-07
-4.93829e-07
-5.14912e-07
-5.35269e-07
-5.55033e-07
-5.74372e-07
-5.93483e-07
-6.12592e-07
-6.31952e-07
-6.5184e-07
-6.72551e-07
-6.94397e-07
-7.17701e-07
-7.42793e-07
-7.70015e-07
-7.99725e-07
-8.3234e-07
-8.68389e-07
-9.06502e-07
-9.44434e-07
-9.8204e-07
-1.02006e-06
-1.0593e-06
-1.10056e-06
-1.14453e-06
-1.19179e-06
-1.24279e-06
-1.29785e-06
-1.35711e-06
-1.42057e-06
-1.48809e-06
-1.55944e-06
-1.6343e-06
-1.71227e-06
-1.79292e-06
-1.87576e-06
-1.96032e-06
-2.04612e-06
-2.13271e-06
-2.21965e-06
-2.30653e-06
-2.73323e-07
-3.04804e-07
-3.35267e-07
-3.65009e-07
-3.9411e-07
-4.22589e-07
-4.50513e-07
-4.77993e-07
-5.05159e-07
-5.3216e-07
-5.59168e-07
-5.86375e-07
-6.13999e-07
-6.4228e-07
-6.71478e-07
-7.01878e-07
-7.33787e-07
-7.67544e-07
-8.03524e-07
-8.42155e-07
-8.83969e-07
-9.29574e-07
-9.77621e-07
-1.0257e-06
-1.0732e-06
-1.12048e-06
-1.16814e-06
-1.21683e-06
-1.26706e-06
-1.31924e-06
-1.3737e-06
-1.43071e-06
-1.49039e-06
-1.55279e-06
-1.61788e-06
-1.68556e-06
-1.75568e-06
-1.82801e-06
-1.90233e-06
-1.97834e-06
-2.05577e-06
-2.13432e-06
-2.2137e-06
-2.29361e-06
-2.37385e-06
-1.93005e-07
-2.29851e-07
-2.65717e-07
-3.01015e-07
-3.35838e-07
-3.70189e-07
-4.04132e-07
-4.37777e-07
-4.71251e-07
-5.04693e-07
-5.38255e-07
-5.72113e-07
-6.06463e-07
-6.41519e-07
-6.77521e-07
-7.14733e-07
-7.53447e-07
-7.93996e-07
-8.36759e-07
-8.82177e-07
-9.30807e-07
-9.83218e-07
-1.03808e-06
-1.09297e-06
-1.14699e-06
-1.20023e-06
-1.25318e-06
-1.30642e-06
-1.36038e-06
-1.41539e-06
-1.4717e-06
-1.52954e-06
-1.58904e-06
-1.65031e-06
-1.71338e-06
-1.77823e-06
-1.84482e-06
-1.91305e-06
-1.98279e-06
-2.0539e-06
-2.1262e-06
-2.19952e-06
-2.27366e-06
-2.34844e-06
-2.42374e-06
-1.34667e-07
-1.76204e-07
-2.1681e-07
-2.56892e-07
-2.96542e-07
-3.35765e-07
-3.74625e-07
-4.1323e-07
-4.517e-07
-4.90163e-07
-5.28761e-07
-5.67654e-07
-6.07023e-07
-6.47066e-07
-6.88002e-07
-7.3008e-07
-7.73577e-07
-8.18808e-07
-8.6614e-07
-9.15997e-07
-9.68919e-07
-1.02539e-06
-1.08414e-06
-1.14287e-06
-1.20053e-06
-1.25706e-06
-1.3129e-06
-1.36858e-06
-1.42447e-06
-1.48084e-06
-1.53795e-06
-1.59598e-06
-1.65509e-06
-1.71539e-06
-1.77697e-06
-1.83986e-06
-1.90406e-06
-1.96955e-06
-2.03627e-06
-2.10414e-06
-2.17307e-06
-2.24295e-06
-2.31366e-06
-2.38506e-06
-2.4571e-06
-9.34907e-08
-1.39021e-07
-1.83652e-07
-2.27743e-07
-2.71374e-07
-3.14559e-07
-3.57364e-07
-3.9989e-07
-4.42249e-07
-4.84559e-07
-5.26953e-07
-5.69579e-07
-6.12603e-07
-6.56208e-07
-7.00599e-07
-7.46007e-07
-7.92691e-07
-8.40948e-07
-8.91123e-07
-9.43613e-07
-9.98919e-07
-1.05744e-06
-1.11799e-06
-1.17848e-06
-1.23781e-06
-1.29586e-06
-1.35303e-06
-1.40982e-06
-1.46655e-06
-1.52347e-06
-1.5808e-06
-1.63873e-06
-1.69741e-06
-1.75698e-06
-1.81751e-06
-1.87909e-06
-1.94173e-06
-2.00547e-06
-2.07027e-06
-2.13611e-06
-2.20294e-06
-2.27068e-06
-2.33926e-06
-2.40859e-06
-2.47863e-06
-6.52397e-08
-1.14123e-07
-1.62113e-07
-2.09507e-07
-2.56376e-07
-3.0274e-07
-3.48665e-07
-3.94246e-07
-4.39586e-07
-4.84796e-07
-5.29998e-07
-5.75331e-07
-6.20948e-07
-6.6702e-07
-7.13736e-07
-7.61311e-07
-8.09988e-07
-8.60043e-07
-9.11796e-07
-9.65615e-07
-1.02196e-06
-1.08115e-06
-1.14212e-06
-1.20298e-06
-1.26269e-06
-1.32112e-06
-1.37865e-06
-1.43572e-06
-1.49263e-06
-1.5496e-06
-1.60684e-06
-1.66452e-06
-1.72281e-06
-1.78181e-06
-1.84164e-06
-1.90238e-06
-1.96406e-06
-2.02674e-06
-2.09041e-06
-2.15507e-06
-2.2207e-06
-2.28725e-06
-2.35467e-06
-2.4229e-06
-2.49191e-06
-4.64591e-08
-9.81326e-08
-1.48895e-07
-1.98984e-07
-2.48458e-07
-2.97345e-07
-3.45711e-07
-3.93646e-07
-4.41243e-07
-4.88607e-07
-5.35851e-07
-5.83106e-07
-6.30514e-07
-6.78234e-07
-7.26444e-07
-7.75344e-07
-8.25158e-07
-8.76145e-07
-9.286e-07
-9.8286e-07
-1.03935e-06
-1.09832e-06
-1.15882e-06
-1.2192e-06
-1.27851e-06
-1.33663e-06
-1.39392e-06
-1.45078e-06
-1.50748e-06
-1.56422e-06
-1.62119e-06
-1.67856e-06
-1.73648e-06
-1.79508e-06
-1.85445e-06
-1.91467e-06
-1.97582e-06
-2.03792e-06
-2.10101e-06
-2.16509e-06
-2.23016e-06
-2.29618e-06
-2.36313e-06
-2.43094e-06
-2.49962e-06
-3.44266e-08
-8.84165e-08
-1.41456e-07
-1.93732e-07
-2.45293e-07
-2.96175e-07
-3.46443e-07
-3.96179e-07
-4.45471e-07
-4.94418e-07
-5.43128e-07
-5.91722e-07
-6.40334e-07
-6.89114e-07
-7.38227e-07
-7.87861e-07
-8.38226e-07
-8.89561e-07
-9.42139e-07
-9.9627e-07
-1.05234e-06
-1.11056e-06
-1.17009e-06
-1.2295e-06
-1.28794e-06
-1.34536e-06
-1.40208e-06
-1.45845e-06
-1.51471e-06
-1.57106e-06
-1.62767e-06
-1.68471e-06
-1.74232e-06
-1.8006e-06
-1.85968e-06
-1.91962e-06
-1.9805e-06
-2.04236e-06
-2.10523e-06
-2.16914e-06
-2.23407e-06
-2.30002e-06
-2.36696e-06
-2.43484e-06
-2.50366e-06
-2.70866e-08
-8.30027e-08
-1.37914e-07
-1.91966e-07
-2.45203e-07
-2.97664e-07
-3.49412e-07
-4.00526e-07
-4.5109e-07
-5.01195e-07
-5.50946e-07
-6.00458e-07
-6.49857e-07
-6.99284e-07
-7.48896e-07
-7.98869e-07
-8.49398e-07
-9.00706e-07
-9.53046e-07
-1.0067e-06
-1.06203e-06
-1.1192e-06
-1.1775e-06
-1.23569e-06
-1.29305e-06
-1.34956e-06
-1.40553e-06
-1.46126e-06
-1.51698e-06
-1.57286e-06
-1.62907e-06
-1.68578e-06
-1.7431e-06
-1.80115e-06
-1.86004e-06
-1.91984e-06
-1.98063e-06
-2.04245e-06
-2.10534e-06
-2.16933e-06
-2.23441e-06
-2.30057e-06
-2.36781e-06
-2.43607e-06
-2.50535e-06
-2.29372e-08
-8.04634e-08
-1.36921e-07
-1.92425e-07
-2.47014e-07
-3.00732e-07
-3.53641e-07
-4.05814e-07
-4.57334e-07
-5.08288e-07
-5.58776e-07
-6.08908e-07
-6.58805e-07
-7.08601e-07
-7.58443e-07
-8.08498e-07
-8.58949e-07
-9.10004e-07
-9.61896e-07
-1.01489e-06
-1.06931e-06
-1.1253e-06
-1.18225e-06
-1.23913e-06
-1.29533e-06
-1.35085e-06
-1.406e-06
-1.46104e-06
-1.51616e-06
-1.57154e-06
-1.62735e-06
-1.68372e-06
-1.74078e-06
-1.79865e-06
-1.85741e-06
-1.91717e-06
-1.97797e-06
-2.03988e-06
-2.10293e-06
-2.16714e-06
-2.23253e-06
-2.29909e-06
-2.3668e-06
-2.43562e-06
-2.50554e-06
-2.09118e-08
-7.97944e-08
-1.3754e-07
-1.9424e-07
-2.49932e-07
-3.0466e-07
-3.58488e-07
-4.11485e-07
-4.6373e-07
-5.1531e-07
-5.66321e-07
-6.16867e-07
-6.67067e-07
-7.17047e-07
-7.66948e-07
-8.16927e-07
-8.67157e-07
-9.17831e-07
-9.69167e-07
-1.0214e-06
-1.07485e-06
-1.12963e-06
-1.18523e-06
-1.2408e-06
-1.29583e-06
-1.35037e-06
-1.40468e-06
-1.45901e-06
-1.51354e-06
-1.56842e-06
-1.62382e-06
-1.67987e-06
-1.73669e-06
-1.7944e-06
-1.85309e-06
-1.91283e-06
-1.97371e-06
-2.03576e-06
-2.09904e-06
-2.16357e-06
-2.22936e-06
-2.29639e-06
-2.36467e-06
-2.43415e-06
-2.50481e-06
-2.02707e-08
-8.03061e-08
-1.39135e-07
-1.96832e-07
-2.53432e-07
-3.08984e-07
-3.63548e-07
-4.17194e-07
-4.69998e-07
-5.22045e-07
-5.73427e-07
-6.24248e-07
-6.7462e-07
-7.24667e-07
-7.74521e-07
-8.24332e-07
-8.74264e-07
-9.24496e-07
-9.75232e-07
-1.02669e-06
-1.07916e-06
-1.13276e-06
-1.18705e-06
-1.24137e-06
-1.29528e-06
-1.34887e-06
-1.40238e-06
-1.45602e-06
-1.50996e-06
-1.56436e-06
-1.61937e-06
-1.67511e-06
-1.73171e-06
-1.78927e-06
-1.84789e-06
-1.90766e-06
-1.96863e-06
-2.03086e-06
-2.0944e-06
-2.15927e-06
-2.22548e-06
-2.29304e-06
-2.36192e-06
-2.43208e-06
-2.50351e-06
-2.051e-08
-8.15337e-08
-1.41283e-07
-1.99819e-07
-2.57178e-07
-3.1341e-07
-3.68574e-07
-4.22739e-07
-4.75979e-07
-5.28379e-07
-5.80029e-07
-6.31029e-07
-6.8149e-07
-7.31529e-07
-7.81275e-07
-8.3087e-07
-8.80468e-07
-9.30238e-07
-9.80371e-07
-1.03107e-06
-1.0826e-06
-1.13506e-06
-1.18813e-06
-1.24128e-06
-1.29415e-06
-1.34685e-06
-1.3996e-06
-1.45259e-06
-1.50598e-06
-1.55992e-06
-1.61455e-06
-1.67e-06
-1.72638e-06
-1.78381e-06
-1.84238e-06
-1.90216e-06
-1.96323e-06
-2.02565e-06
-2.08945e-06
-2.15466e-06
-2.22131e-06
-2.28937e-06
-2.35885e-06
-2.42969e-06
-2.50188e-06
-2.12911e-08
-8.31692e-08
-1.43708e-07
-2.02958e-07
-2.60958e-07
-3.17758e-07
-3.73418e-07
-4.28004e-07
-4.81591e-07
-5.34262e-07
-5.86106e-07
-6.37223e-07
-6.87717e-07
-7.37705e-07
-7.8731e-07
-8.36667e-07
-8.85923e-07
-9.35237e-07
-9.84787e-07
-1.03476e-06
-1.0854e-06
-1.13682e-06
-1.18876e-06
-1.24082e-06
-1.29273e-06
-1.34461e-06
-1.39666e-06
-1.44904e-06
-1.50191e-06
-1.55542e-06
-1.6097e-06
-1.66488e-06
-1.72106e-06
-1.77836e-06
-1.83687e-06
-1.89667e-06
-1.95784e-06
-2.02043e-06
-2.08447e-06
-2.15002e-06
-2.21707e-06
-2.28562e-06
-2.35566e-06
-2.42716e-06
-2.50007e-06
-2.2389e-08
-8.50106e-08
-1.46231e-07
-2.06095e-07
-2.64642e-07
-3.21922e-07
-3.77996e-07
-4.3293e-07
-4.86797e-07
-5.3968e-07
-5.91668e-07
-6.42857e-07
-6.93351e-07
-7.43262e-07
-7.92711e-07
-8.41826e-07
-8.90748e-07
-9.39626e-07
-9.88628e-07
-1.03792e-06
-1.08775e-06
-1.13819e-06
-1.18909e-06
-1.24017e-06
-1.29122e-06
-1.34235e-06
-1.39375e-06
-1.44557e-06
-1.49797e-06
-1.55108e-06
-1.60503e-06
-1.65994e-06
-1.71594e-06
-1.77311e-06
-1.83157e-06
-1.89138e-06
-1.95263e-06
-2.01537e-06
-2.07965e-06
-2.14549e-06
-2.21292e-06
-2.28193e-06
-2.3525e-06
-2.4246e-06
-2.49818e-06
-2.36548e-08
-8.69268e-08
-1.4874e-07
-2.09135e-07
-2.68152e-07
-3.25843e-07
-3.82267e-07
-4.3749e-07
-4.91586e-07
-5.44638e-07
-5.96732e-07
-6.47964e-07
-6.98438e-07
-7.4826e-07
-7.97549e-07
-8.46429e-07
-8.95033e-07
-9.43502e-07
-9.91995e-07
-1.04067e-06
-1.08974e-06
-1.1393e-06
-1.18926e-06
-1.23945e-06
-1.28971e-06
-1.34016e-06
-1.39098e-06
-1.44229e-06
-1.49425e-06
-1.54699e-06
-1.60064e-06
-1.65531e-06
-1.71112e-06
-1.76818e-06
-1.82658e-06
-1.8864e-06
-1.94771e-06
-2.01059e-06
-2.07507e-06
-2.14118e-06
-2.20895e-06
-2.27837e-06
-2.34943e-06
-2.42208e-06
-2.49629e-06
-2.49899e-08
-8.88326e-08
-1.51163e-07
-2.12019e-07
-2.71444e-07
-3.29487e-07
-3.86209e-07
-4.41676e-07
-4.95962e-07
-5.49148e-07
-6.01322e-07
-6.52579e-07
-7.03019e-07
-7.52748e-07
-8.01881e-07
-8.50537e-07
-8.98844e-07
-9.46937e-07
-9.94964e-07
-1.04307e-06
-1.09146e-06
-1.14022e-06
-1.18933e-06
-1.23872e-06
-1.28828e-06
-1.33812e-06
-1.3884e-06
-1.43925e-06
-1.49081e-06
-1.54322e-06
-1.59658e-06
-1.65103e-06
-1.70667e-06
-1.76362e-06
-1.82196e-06
-1.88177e-06
-1.94315e-06
-2.00614e-06
-2.07079e-06
-2.13715e-06
-2.20522e-06
-2.27501e-06
-2.3465e-06
-2.41966e-06
-2.49443e-06
-2.63345e-08
-9.06791e-08
-1.53462e-07
-2.14722e-07
-2.74499e-07
-3.32847e-07
-3.89824e-07
-4.45497e-07
-4.99941e-07
-5.53237e-07
-6.05471e-07
-6.56739e-07
-7.07138e-07
-7.56774e-07
-8.05758e-07
-8.54205e-07
-9.02239e-07
-9.49988e-07
-9.97592e-07
-1.04518e-06
-1.09296e-06
-1.141e-06
-1.18934e-06
-1.23801e-06
-1.28694e-06
-1.33623e-06
-1.38603e-06
-1.43647e-06
-1.48767e-06
-1.53977e-06
-1.59288e-06
-1.64712e-06
-1.70261e-06
-1.75944e-06
-1.81772e-06
-1.87753e-06
-1.93894e-06
-2.00203e-06
-2.06684e-06
-2.13341e-06
-2.20175e-06
-2.27187e-06
-2.34376e-06
-2.41736e-06
-2.49264e-06
-2.76712e-08
-9.24633e-08
-1.55648e-07
-2.17264e-07
-2.77353e-07
-3.35967e-07
-3.93166e-07
-4.49018e-07
-5.03596e-07
-5.56982e-07
-6.09262e-07
-6.60531e-07
-7.10885e-07
-7.60429e-07
-8.09271e-07
-8.57523e-07
-9.05304e-07
-9.52736e-07
-9.99952e-07
-1.04707e-06
-1.0943e-06
-1.14167e-06
-1.18931e-06
-1.23734e-06