/*--------------------------------*- C++ -*----------------------------------*\
| =========                 |                                                 |
| \\      /  F ield         | OpenFOAM: The Open Source CFD Toolbox           |
|  \\    /   O peration     | Version:  2312                                  |
|   \\  /    A nd           | Website:  www.openfoam.com                      |
|    \\/     M anipulation  |                                                 |
\*---------------------------------------------------------------------------*/
FoamFile
{
    version     2.0;
    format      ascii;
    arch        "LSB;label=32;scalar=64";
    class       surfaceScalarField;
    location    "300";
    object      phi;
}
// * * * * * * * * * * * * * * * * * * * * * * * * * * * * * * * * * * * * * //

dimensions      [0 3 -1 0 0 0 0];

oriented        oriented;

internalField   nonuniform List<scalar> 
9445
(
1.09992e-10
1.36603e-12
1.09517e-10
4.74261e-13
1.09593e-10
-7.6045e-14
1.10063e-10
-4.69851e-13
1.10837e-10
-7.73248e-13
1.11867e-10
-1.03025e-12
1.13144e-10
-1.27726e-12
1.14702e-10
-1.5583e-12
1.16657e-10
-1.95514e-12
1.19307e-10
-2.64962e-12
1.23393e-10
-4.08556e-12
1.30803e-10
-7.41051e-12
1.45785e-10
-1.49817e-11
1.78754e-10
-3.29691e-11
-8.81244e-11
2.66878e-10
3.85293e-10
6.32215e-12
3.83437e-10
2.33051e-12
3.83492e-10
-1.31119e-13
3.84898e-10
-1.87636e-12
3.87343e-10
-3.21785e-12
3.90664e-10
-4.3517e-12
3.94831e-10
-5.44421e-12
3.99966e-10
-6.69309e-12
4.0645e-10
-8.43909e-12
4.15154e-10
-1.13532e-11
4.27853e-10
-1.67849e-11
4.47797e-10
-2.73544e-11
4.80191e-10
-4.73758e-11
5.31006e-10
-8.37846e-11
-1.45367e-10
5.88249e-10
7.62868e-10
1.63806e-11
7.58878e-10
6.3201e-12
7.5864e-10
1.07127e-13
7.61029e-10
-4.26505e-12
7.65424e-10
-7.61278e-12
7.71503e-10
-1.04305e-11
7.79193e-10
-1.31348e-11
7.88702e-10
-1.62022e-11
8.00651e-10
-2.03876e-11
8.16305e-10
-2.70079e-11
8.37791e-10
-3.827e-11
8.67884e-10
-5.74476e-11
9.08653e-10
-8.81454e-11
9.56944e-10
-1.32075e-10
-1.84392e-10
9.9597e-10
1.27205e-09
3.35578e-11
1.26485e-09
1.35175e-11
1.26383e-09
1.12408e-12
1.26711e-09
-7.53571e-12
1.27362e-09
-1.41277e-11
1.28283e-09
-1.96357e-11
1.29455e-09
-2.48645e-11
1.30903e-09
-3.06775e-11
1.32694e-09
-3.83021e-11
1.34953e-09
-4.9595e-11
1.37835e-09
-6.70849e-11
1.41431e-09
-9.34152e-11
1.45577e-09
-1.29605e-10
1.49607e-09
-1.7237e-10
-2.12199e-10
1.52388e-09
1.94935e-09
6.04666e-11
1.93745e-09
2.54227e-11
1.93486e-09
3.71156e-12
1.93867e-09
-1.13499e-11
1.94727e-09
-2.2725e-11
1.95976e-09
-3.21252e-11
1.97578e-09
-4.08854e-11
1.99542e-09
-5.03174e-11
2.01917e-09
-6.20469e-11
2.04771e-09
-7.81398e-11
2.08138e-09
-1.00754e-10
2.11902e-09
-1.31056e-10
2.15686e-09
-1.67447e-10
2.18872e-09
-2.04231e-10
-2.32535e-10
2.20906e-09
2.83982e-09
1.00403e-10
2.82118e-09
4.40642e-11
2.81581e-09
9.07987e-12
2.81947e-09
-1.5013e-11
2.82978e-09
-3.303e-11
2.84535e-09
-4.76966e-11
2.86548e-09
-6.10139e-11
2.88991e-09
-7.47469e-11
2.91861e-09
-9.07447e-11
2.95136e-09
-1.10893e-10
2.98712e-09
-1.3651e-10
3.02329e-09
-1.67227e-10
3.05577e-09
-1.99926e-10
3.0804e-09
-2.28867e-10
-2.47758e-10
3.09562e-09
3.99837e-09
1.5731e-10
3.97036e-09
7.20669e-11
3.96048e-09
1.89675e-11
3.96281e-09
-1.73421e-11
3.97396e-09
-4.41809e-11
3.99188e-09
-6.56207e-11
4.01533e-09
-8.44611e-11
4.04347e-09
-1.02892e-10
4.07553e-09
-1.22803e-10
4.11029e-09
-1.45646e-10
4.14562e-09
-1.71841e-10
4.17843e-09
-2.0004e-10
4.20539e-09
-2.26886e-10
4.22445e-09
-2.47923e-10
-2.59479e-10
4.23617e-09
5.49087e-09
2.35545e-10
5.45033e-09
1.12612e-10
5.43359e-09
3.57013e-11
5.43281e-09
-1.65552e-11
5.44331e-09
-5.46893e-11
5.46219e-09
-8.44938e-11
5.48744e-09
-1.09711e-10
5.5175e-09
-1.3295e-10
5.55075e-09
-1.56058e-10
5.58515e-09
-1.8005e-10
5.61808e-09
-2.04765e-10
5.64667e-09
-2.28629e-10
5.66874e-09
-2.48957e-10
5.68376e-09
-2.62946e-10
-2.68897e-10
5.69318e-09
7.39464e-09
3.39198e-10
7.3381e-09
1.6915e-10
7.31169e-09
6.21154e-11
7.30538e-09
-1.02489e-11
7.31306e-09
-6.23709e-11
7.33074e-09
-1.02164e-10
7.35552e-09
-1.34496e-10
7.38504e-09
-1.62471e-10
7.41696e-09
-1.8798e-10
7.44876e-09
-2.11846e-10
7.47781e-09
-2.33819e-10
7.50191e-09
-2.52722e-10
7.51989e-09
-2.66938e-10
7.53209e-09
-2.75145e-10
-2.76917e-10
7.54011e-09
9.79754e-09
4.70743e-10
9.72202e-09
2.44672e-10
9.68296e-09
1.01175e-10
9.66829e-09
4.41796e-12
9.67036e-09
-6.44412e-11
9.68402e-09
-1.15816e-10
9.70545e-09
-1.55927e-10
9.73154e-09
-1.88562e-10
9.75947e-09
-2.15908e-10
9.78659e-09
-2.38973e-10
9.81065e-09
-2.57879e-10
9.83013e-09
-2.72199e-10
9.84459e-09
-2.81399e-10
9.85471e-09
-2.85262e-10
-2.84113e-10
9.8619e-09
1.27949e-08
6.28741e-10
1.26992e-08
3.40291e-10
1.26453e-08
1.55104e-10
1.26196e-08
3.01653e-11
1.2613e-08
-5.79136e-11
1.26195e-08
-1.22307e-10
1.26344e-08
-1.7083e-10
1.26541e-08
-2.08221e-10
1.26755e-08
-2.3729e-10
1.26961e-08
-2.59607e-10
1.27142e-08
-2.75972e-10
1.27288e-08
-2.86807e-10
1.27399e-08
-2.92478e-10
1.27481e-08
-2.93508e-10
-2.90631e-10
1.27546e-08
1.64829e-08
8.04772e-10
1.63701e-08
4.53061e-10
1.63014e-08
2.23845e-10
1.62631e-08
6.84869e-11
1.62456e-08
-4.04494e-11
1.62422e-08
-1.18874e-10
1.62477e-08
-1.76358e-10
1.62583e-08
-2.18826e-10
1.6271e-08
-2.50001e-10
1.62837e-08
-2.72269e-10
1.62949e-08
-2.87233e-10
1.63042e-08
-2.96094e-10
1.63116e-08
-2.9989e-10
1.63177e-08
-2.99605e-10
-2.96175e-10
1.63233e-08
2.09495e-08
9.80757e-10
2.08291e-08
5.73497e-10
2.07499e-08
3.03017e-10
2.07004e-08
1.18001e-10
2.06717e-08
-1.17025e-11
2.06571e-08
-1.04255e-10
2.06516e-08
-1.70898e-10
2.06516e-08
-2.1883e-10
2.06544e-08
-2.52809e-10
2.06583e-08
-2.76109e-10
2.06621e-08
-2.91104e-10
2.06657e-08
-2.99626e-10
2.06689e-08
-3.03177e-10
2.06723e-08
-3.03012e-10
-3.0016e-10
2.06763e-08
2.62639e-08
1.12955e-09
2.61529e-08
6.84515e-10
2.60736e-08
3.82324e-10
2.60188e-08
1.72807e-10
2.5982e-08
2.51629e-11
2.59577e-08
-8.00078e-11
2.5942e-08
-1.55177e-10
2.59318e-08
-2.08617e-10
2.5925e-08
-2.46012e-10
2.59203e-08
-2.71405e-10
2.5917e-08
-2.87788e-10
2.59148e-08
-2.97445e-10
2.59138e-08
-3.02167e-10
2.59141e-08
-3.0336e-10
-3.02085e-10
2.5916e-08
3.24722e-08
1.22235e-09
3.2392e-08
7.64695e-10
3.23277e-08
4.46579e-10
3.22782e-08
2.22392e-10
3.22405e-08
6.28666e-11
3.22117e-08
-5.12933e-11
3.21896e-08
-1.33014e-10
3.21721e-08
-1.91165e-10
3.21581e-08
-2.32012e-10
3.21468e-08
-2.60095e-10
3.21378e-08
-2.78781e-10
3.2131e-08
-2.90613e-10
3.21263e-08
-2.97525e-10
3.2124e-08
-3.0098e-10
-3.02036e-10
3.21239e-08
3.96034e-08
1.24233e-09
3.95707e-08
7.97406e-10
3.95359e-08
4.81436e-10
3.95032e-08
2.5507e-10
3.9474e-08
9.20345e-11
3.94484e-08
-2.5691e-11
3.9426e-08
-1.10637e-10
3.94065e-08
-1.7166e-10
3.93897e-08
-2.15143e-10
3.93753e-08
-2.45764e-10
3.93635e-08
-2.66995e-10
3.93544e-08
-2.81433e-10
3.93479e-08
-2.91022e-10
3.93441e-08
-2.97208e-10
-3.01006e-10
3.93431e-08
4.76752e-08
1.19451e-09
4.76918e-08
7.80809e-10
4.76913e-08
4.81883e-10
4.76817e-08
2.64673e-10
4.76674e-08
1.0633e-10
4.7651e-08
-9.27813e-12
4.76341e-08
-9.36784e-11
4.76176e-08
-1.55197e-10
4.76024e-08
-1.99916e-10
4.75889e-08
-2.32326e-10
4.75777e-08
-2.55757e-10
4.75689e-08
-2.72688e-10
4.75629e-08
-2.84964e-10
4.75596e-08
-2.9394e-10
-3.00556e-10
4.75592e-08
5.66574e-08
1.09983e-09
5.67103e-08
7.27881e-10
5.67369e-08
4.55286e-10
5.67468e-08
2.54788e-10
5.67462e-08
1.06906e-10
5.67393e-08
-2.40552e-12
5.6729e-08
-8.3359e-11
5.67172e-08
-1.4343e-10
5.67055e-08
-1.88129e-10
5.66947e-08
-2.21534e-10
5.66856e-08
-2.46673e-10
5.66787e-08
-2.65795e-10
5.66743e-08
-2.80563e-10
5.66725e-08
-2.92199e-10
-3.01539e-10
5.66735e-08
6.63581e-08
9.77343e-10
6.6432e-08
6.53954e-10
6.64738e-08
4.13501e-10
6.64943e-08
2.34297e-10
6.65009e-08
1.00296e-10
6.64988e-08
-2.92207e-13
6.64916e-08
-7.61427e-11
6.64818e-08
-1.33671e-10
6.64713e-08
-1.77641e-10
6.64614e-08
-2.11594e-10
6.64529e-08
-2.3816e-10
6.64463e-08
-2.59291e-10
6.64422e-08
-2.76429e-10
6.64407e-08
-2.90635e-10
-3.02623e-10
6.64417e-08
7.62464e-08
8.33926e-10
7.63348e-08
5.65541e-10
7.63858e-08
3.62483e-10
7.64116e-08
2.08523e-10
7.64207e-08
9.12552e-11
7.6419e-08
1.40263e-12
7.64108e-08
-6.7962e-11
7.63991e-08
-1.22024e-10
7.63861e-08
-1.64661e-10
7.63733e-08
-1.98766e-10
7.63617e-08
-2.26498e-10
7.63518e-08
-2.49463e-10
7.63443e-08
-2.68852e-10
7.63392e-08
-2.85543e-10
-3.00117e-10
7.63367e-08
7.55673e-08
6.88102e-10
7.5659e-08
4.73777e-10
7.57131e-08
3.08401e-10
7.57412e-08
1.80434e-10
7.57517e-08
8.08027e-11
7.57505e-08
2.6121e-12
7.57419e-08
-5.93689e-11
7.5729e-08
-1.09108e-10
7.57139e-08
-1.49597e-10
7.56982e-08
-1.8308e-10
7.56829e-08
-2.11243e-10
7.56688e-08
-2.35345e-10
7.56563e-08
-2.56326e-10
7.56456e-08
-2.74883e-10
-2.91479e-10
7.5637e-08
6.45865e-08
5.57876e-10
6.46713e-08
3.89005e-10
6.47235e-08
2.56182e-10
6.47526e-08
1.51279e-10
6.47656e-08
6.77927e-11
6.47675e-08
7.0591e-13
6.4762e-08
-5.38325e-11
6.47517e-08
-9.87737e-11
6.47384e-08
-1.36363e-10
6.47237e-08
-1.68301e-10
6.47083e-08
-1.95869e-10
6.4693e-08
-2.20032e-10
6.46782e-08
-2.41512e-10
6.46641e-08
-2.60845e-10
-2.78393e-10
6.4651e-08
5.41163e-08
4.42841e-10
5.4194e-08
3.1132e-10
5.42443e-08
2.05952e-10
5.42745e-08
1.21057e-10
5.42902e-08
5.20518e-11
5.42956e-08
-4.64201e-12
5.42935e-08
-5.18072e-11
5.42864e-08
-9.15931e-11
5.42756e-08
-1.25646e-10
5.42626e-08
-1.55219e-10
5.42479e-08
-1.81263e-10
5.42324e-08
-2.04494e-10
5.42164e-08
-2.25453e-10
5.42e-08
-2.44537e-10
-2.62016e-10
5.41837e-08
4.46456e-08
3.43321e-10
4.47149e-08
2.42029e-10
4.47614e-08
1.59421e-10
4.47909e-08
9.15682e-11
4.48077e-08
3.52997e-11
4.48149e-08
-1.18869e-11
4.48151e-08
-5.19641e-11
4.481e-08
-8.64654e-11
4.48009e-08
-1.1657e-10
4.47888e-08
-1.43178e-10
4.47745e-08
-1.66976e-10
4.47585e-08
-1.88482e-10
4.47412e-08
-2.08085e-10
4.47227e-08
-2.2607e-10
-2.42629e-10
4.47033e-08
3.63663e-08
2.59538e-10
3.64259e-08
1.82434e-10
3.64669e-08
1.18446e-10
3.64936e-08
6.48965e-11
3.65092e-08
1.9643e-11
3.65164e-08
-1.90258e-11
3.65169e-08
-5.24789e-11
3.65122e-08
-8.17859e-11
3.65034e-08
-1.0777e-10
3.64913e-08
-1.31062e-10
3.64765e-08
-1.52142e-10
3.64593e-08
-1.71372e-10
3.64403e-08
-1.89023e-10
3.64195e-08
-2.05293e-10
-2.20309e-10
3.63972e-08
2.92966e-08
1.91218e-10
2.93458e-08
1.3325e-10
2.938e-08
8.43027e-11
2.94023e-08
4.25883e-11
2.94152e-08
6.70664e-12
2.94207e-08
-2.44819e-11
2.94201e-08
-5.19056e-11
2.94146e-08
-7.62912e-11
2.9405e-08
-9.81978e-11
2.9392e-08
-1.18053e-10
2.93761e-08
-1.36184e-10
2.93575e-08
-1.52834e-10
2.93367e-08
-1.68187e-10
2.93138e-08
-1.82371e-10
-1.95466e-10
2.92889e-08
2.33624e-08
1.37364e-10
2.34013e-08
9.43479e-11
2.34283e-08
5.73865e-11
2.34455e-08
2.53256e-11
2.34549e-08
-2.71043e-12
2.34579e-08
-2.74572e-11
2.34555e-08
-4.95273e-11
2.34486e-08
-6.94003e-11
2.34379e-08
-8.74443e-11
2.34238e-08
-1.03941e-10
2.34067e-08
-1.19104e-10
2.33869e-08
-1.33092e-10
2.33648e-08
-1.46023e-10
2.33404e-08
-1.57978e-10
-1.69003e-10
2.33139e-08
1.84474e-08
9.6304e-11
1.84769e-08
6.4814e-11
1.8497e-08
3.72748e-11
1.85093e-08
1.29771e-11
1.85152e-08
-8.59347e-12
1.85157e-08
-2.78956e-11
1.85115e-08
-4.53216e-11
1.85032e-08
-6.11778e-11
1.84915e-08
-7.56986e-11
1.84766e-08
-8.90626e-11
1.84589e-08
-1.01405e-10
1.84386e-08
-1.12824e-10
1.8416e-08
-1.23393e-10
1.83912e-08
-1.3316e-10
-1.42147e-10
1.83643e-08
1.44213e-08
6.59536e-11
1.44429e-08
4.32296e-11
1.44572e-08
2.30005e-11
1.44653e-08
4.86268e-12
1.44682e-08
-1.14588e-11
1.44665e-08
-2.624e-11
1.44609e-08
-3.97246e-11
1.44518e-08
-5.2101e-11
1.44397e-08
-6.35129e-11
1.44247e-08
-7.40693e-11
1.44071e-08
-8.38514e-11
1.43872e-08
-9.29183e-11
1.43651e-08
-1.01312e-10
1.4341e-08
-1.09058e-10
-1.16166e-10
1.4315e-08
1.11556e-08
4.41377e-11
1.11709e-08
2.79945e-11
1.11805e-08
1.33678e-11
1.11853e-08
5.67976e-14
1.11859e-08
-1.2064e-11
1.11828e-08
-2.31557e-11
1.11765e-08
-3.33642e-11
1.11672e-08
-4.2801e-11
1.11552e-08
-5.155e-11
1.11408e-08
-5.96747e-11
1.11242e-08
-6.72212e-11
1.11055e-08
-7.42225e-11
1.10849e-08
-8.07008e-11
1.10625e-08
-8.66695e-11
-9.2129e-11
1.10385e-08
8.53047e-09
2.8844e-11
8.54088e-09
1.75797e-11
8.54705e-09
7.19739e-12
8.54949e-09
-2.37756e-12
8.54861e-09
-1.11852e-11
8.54477e-09
-1.93174e-11
8.53826e-09
-2.68584e-11
8.52933e-09
-3.38705e-11
8.51818e-09
-4.04002e-11
8.50499e-09
-4.6482e-11
8.48991e-09
-5.21403e-11
8.47308e-09
-5.73917e-11
8.45462e-09
-6.22468e-11
8.43466e-09
-6.67108e-11
-7.07809e-11
8.41332e-09
6.43815e-09
1.8364e-11
6.44506e-09
1.06723e-11
6.44879e-09
3.46808e-12
6.44966e-09
-3.25252e-12
6.44797e-09
-9.48723e-12
6.44394e-09
-1.52885e-11
6.43778e-09
-2.07023e-11
6.42967e-09
-2.5761e-11
6.41976e-09
-3.04887e-11
6.40818e-09
-3.49023e-11
6.39505e-09
-3.90131e-11
6.38049e-09
-4.28284e-11
6.36459e-09
-4.63519e-11
6.34747e-09
-4.95846e-11
-5.25226e-11
6.32921e-09
4.78443e-09
1.13371e-11
4.78888e-09
6.22651e-12
4.79097e-09
1.37092e-12
4.79092e-09
-3.20165e-12
4.78891e-09
-7.47353e-12
4.78509e-09
-1.14753e-11
4.77962e-09
-1.52299e-11
4.77261e-09
-1.87529e-11
4.76418e-09
-2.20551e-11
4.75442e-09
-2.51436e-11
4.74343e-09
-2.80223e-11
4.7313e-09
-3.06935e-11
4.7181e-09
-3.31576e-11
4.70393e-09
-3.54133e-11
-3.7457e-11
4.68886e-09
3.48828e-09
6.72975e-12
3.49105e-09
3.45462e-12
3.49211e-09
3.06768e-13
3.49159e-09
-2.67951e-12
3.4896e-09
-5.4856e-12
3.48626e-09
-8.1299e-12
3.48165e-09
-1.06225e-11
3.47587e-09
-1.29697e-11
3.46899e-09
-1.51752e-11
3.46108e-09
-1.7241e-11
3.45223e-09
-1.91675e-11
3.44249e-09
-2.09546e-11
3.43193e-09
-2.26011e-11
3.42062e-09
-2.41051e-11
-2.54634e-11
3.40863e-09
2.48113e-09
3.7854e-12
2.48279e-09
1.78884e-12
2.48324e-09
-1.44193e-13
2.48255e-09
-1.98774e-12
2.48079e-09
-3.72846e-12
2.47804e-09
-5.37761e-12
2.47436e-09
-6.93853e-12
2.4698e-09
-8.41295e-12
2.46443e-09
-9.80134e-12
2.45829e-09
-1.11034e-11
2.45144e-09
-1.23181e-11
2.44393e-09
-1.34445e-11
2.43581e-09
-1.44811e-11
2.42713e-09
-1.54259e-11
-1.62762e-11
2.41794e-09
1.70572e-09
1.96545e-12
1.70667e-09
8.34137e-13
1.70679e-09
-2.61538e-13
1.70611e-09
-1.30993e-12
1.70469e-09
-2.3041e-12
1.70256e-09
-3.25063e-12
1.69977e-09
-4.14984e-12
1.69636e-09
-5.0016e-12
1.69236e-09
-5.80519e-12
1.68782e-09
-6.55959e-12
1.68277e-09
-7.26359e-12
1.67724e-09
-7.9162e-12
1.67127e-09
-8.51614e-12
1.66491e-09
-9.06162e-12
-9.55056e-12
1.65818e-09
1.11475e-09
8.94814e-13
1.11526e-09
3.23908e-13
1.11522e-09
-2.22103e-13
1.11465e-09
-7.45257e-13
1.11359e-09
-1.24352e-12
1.11206e-09
-1.72019e-12
1.11009e-09
-2.17463e-12
1.10769e-09
-2.60622e-12
1.1049e-09
-3.0141e-12
1.10174e-09
-3.39739e-12
1.09823e-09
-3.75515e-12
1.0944e-09
-4.08664e-12
1.09028e-09
-4.39111e-12
1.08588e-09
-4.66721e-12
-4.91305e-12
1.08124e-09
6.69527e-10
3.16558e-13
6.69768e-10
8.28688e-14
6.69677e-10
-1.31382e-13
6.69268e-10
-3.3661e-13
6.68558e-10
-5.33247e-13
6.6756e-10
-7.22361e-13
6.66289e-10
-9.03338e-13
6.64758e-10
-1.07567e-12
6.62983e-10
-1.2388e-12
6.60978e-10
-1.3922e-12
6.58758e-10
-1.5354e-12
6.56339e-10
-1.66798e-12
6.53738e-10
-1.78965e-12
6.5097e-10
-1.89958e-12
-1.99613e-12
6.48053e-10
3.38677e-10
5.68652e-14
3.38761e-10
-1.62503e-15
3.38678e-10
-4.77533e-14
3.38433e-10
-9.20554e-14
3.38035e-10
-1.35106e-13
3.3749e-10
-1.76887e-13
3.36803e-10
-2.1711e-13
3.35983e-10
-2.5554e-13
3.35036e-10
-2.91972e-13
3.3397e-10
-3.26235e-13
3.32793e-10
-3.58184e-13
3.31513e-10
-3.87699e-13
3.30138e-10
-4.14731e-13
3.28677e-10
-4.38979e-13
-4.59286e-13
3.27141e-10
9.69398e-11
9.69381e-11
9.68904e-11
9.67983e-11
9.66632e-11
9.64863e-11
9.62692e-11
9.60137e-11
9.57217e-11
9.53955e-11
9.50373e-11
9.46496e-11
9.42349e-11
9.37959e-11
9.33366e-11
3.22135e-10
-2.16092e-10
1.60835e-10
3.99088e-10
-2.48998e-10
1.72046e-10
4.80615e-10
-2.50907e-10
1.6938e-10
5.63192e-10
-2.42662e-10
1.60085e-10
6.46008e-10
-2.29041e-10
1.46226e-10
7.29173e-10
-2.12587e-10
1.29422e-10
8.13075e-10
-1.94611e-10
1.1071e-10
8.98105e-10
-1.76142e-10
9.11117e-11
9.84605e-10
-1.58248e-10
7.17471e-11
1.07285e-09
-1.42149e-10
5.39027e-11
1.16305e-09
-1.29275e-10
3.90788e-11
1.25532e-09
-1.21283e-10
2.90085e-11
1.34972e-09
-1.20053e-10
2.56507e-11
1.44623e-09
-1.27651e-10
3.11485e-11
1.54473e-09
-1.46244e-10
4.77455e-11
1.64504e-09
-1.77988e-10
7.76714e-11
1.74693e-09
-2.24921e-10
1.23032e-10
1.85007e-09
-2.88983e-10
1.85842e-10
1.95402e-09
-3.72361e-10
2.68418e-10
2.05803e-09
-4.7871e-10
3.74692e-10
2.16069e-09
-6.15855e-10
5.13197e-10
2.25904e-09
-8.00555e-10
7.02209e-10
2.33596e-09
-9.04377e-10
8.27456e-10
2.38791e-09
-9.60528e-10
9.08573e-10
2.41727e-09
-1.00591e-09
9.7655e-10
2.42631e-09
-1.02784e-09
1.0188e-09
2.41743e-09
-1.01557e-09
1.02445e-09
2.39314e-09
-9.62357e-10
9.86643e-10
2.35599e-09
-8.65823e-10
9.02972e-10
2.30842e-09
-7.27284e-10
7.7486e-10
2.25266e-09
-5.50658e-10
6.0642e-10
2.19066e-09
-3.41374e-10
4.03367e-10
2.12402e-09
-1.05613e-10
1.72254e-10
2.05381e-09
1.49975e-10
-7.9764e-11
1.98042e-09
4.18013e-10
-3.44619e-10
1.90334e-09
6.89789e-10
-6.1271e-10
1.82104e-09
9.5462e-10
-8.7232e-10
1.73098e-09
1.19955e-09
-1.10949e-09
1.62989e-09
1.40967e-09
-1.30858e-09
1.51435e-09
1.56897e-09
-1.45343e-09
1.38166e-09
1.66139e-09
-1.5287e-09
1.23113e-09
1.67117e-09
-1.52064e-09
1.06598e-09
1.58126e-09
-1.4161e-09
8.97851e-10
1.36968e-09
-1.20156e-09
9.82256e-10
7.53207e-10
-8.37611e-10
6.18745e-10
-2.46589e-10
6.69307e-10
-2.9956e-10
7.36419e-10
-3.18019e-10
8.12934e-10
-3.19178e-10
8.94881e-10
-3.10988e-10
9.80343e-10
-2.9805e-10
1.06854e-09
-2.82804e-10
1.1592e-09
-2.66805e-10
1.2523e-09
-2.51352e-10
1.34791e-09
-2.37751e-10
1.44607e-09
-2.2744e-10
1.54684e-09
-2.2205e-10
1.6502e-09
-2.23411e-10
1.75606e-09
-2.3352e-10
1.86429e-09
-2.54474e-10
1.97466e-09
-2.88357e-10
2.08687e-09
-3.3713e-10
2.20054e-09
-4.02651e-10
2.31514e-09
-4.86956e-10
2.42982e-09
-5.9339e-10
2.54295e-09
-7.28993e-10
2.65127e-09
-9.08875e-10
2.73602e-09
-9.89128e-10
2.79338e-09
-1.01789e-09
2.82601e-09
-1.03854e-09
2.83647e-09
-1.0383e-09
2.82746e-09
-1.00656e-09
2.80181e-09
-9.3671e-10
2.76238e-09
-8.26393e-10
2.71193e-09
-6.7683e-10
2.65301e-09
-4.91738e-10
2.58791e-09
-2.76274e-10
2.51856e-09
-3.62673e-11
2.44645e-09
2.2209e-10
2.37243e-09
4.92037e-10
2.29655e-09
7.65663e-10
2.21796e-09
1.03321e-09
2.13495e-09
1.28256e-09
2.04536e-09
1.49927e-09
1.94742e-09
1.66691e-09
1.84112e-09
1.76769e-09
1.72993e-09
1.78236e-09
1.62202e-09
1.68917e-09
1.52772e-09
1.46399e-09
1.08586e-09
1.42412e-09
1.01576e-09
-2.66381e-10
1.04789e-09
-3.31686e-10
1.0981e-09
-3.68233e-10
1.16317e-09
-3.84248e-10
1.23901e-09
-3.86825e-10
1.3225e-09
-3.81538e-10
1.41171e-09
-3.72015e-10
1.50555e-09
-3.60648e-10
1.60344e-09
-3.49237e-10
1.70505e-09
-3.39362e-10
1.81021e-09
-3.32599e-10
1.91878e-09
-3.30625e-10
2.03064e-09
-3.35266e-10
2.1456e-09
-3.48486e-10
2.26345e-09
-3.7232e-10
2.38388e-09
-4.08787e-10
2.50652e-09
-4.59774e-10
2.63091e-09
-5.27041e-10
2.75641e-09
-6.12457e-10
2.88204e-09
-7.19019e-10
3.00595e-09
-8.52905e-10
3.12451e-09
-1.02743e-09
3.2173e-09
-1.08192e-09
3.28021e-09
-1.0808e-09
3.31622e-09
-1.07455e-09
3.32821e-09
-1.05029e-09
3.31921e-09
-9.97555e-10
3.29239e-09
-9.0989e-10
3.25096e-09
-7.84969e-10
3.19806e-09
-6.23922e-10
3.13659e-09
-4.30275e-10
3.06925e-09
-2.08927e-10
2.99837e-09
3.46044e-11
2.92595e-09
2.94513e-10
2.85344e-09
5.64548e-10
2.78165e-09
8.37449e-10
2.71067e-09
1.1042e-09
2.63992e-09
1.35331e-09
2.56865e-09
1.57053e-09
2.49676e-09
1.7388e-09
2.42582e-09
1.83863e-09
2.35957e-09
1.84861e-09
2.30165e-09
1.74709e-09
2.24684e-09
1.51879e-09
1.17086e-09
2.16184e-09
1.53813e-09
-2.8064e-10
1.55795e-09
-3.51502e-10
1.59256e-09
-4.02847e-10
1.64346e-09
-4.35142e-10
1.70875e-09
-4.52114e-10
1.78565e-09
-4.58443e-10
1.87176e-09
-4.58124e-10
1.96533e-09
-4.54212e-10
2.06517e-09
-4.4908e-10
2.17052e-09
-4.44711e-10
2.28085e-09
-4.42932e-10
2.39579e-09
-4.4556e-10
2.515e-09
-4.54481e-10
2.63818e-09
-4.7166e-10
2.76496e-09
-4.99105e-10
2.89495e-09
-5.38777e-10
3.02767e-09
-5.92493e-10
3.16254e-09
-6.61909e-10
3.29879e-09
-7.48708e-10
3.43527e-09
-8.55497e-10
3.56987e-09
-9.87512e-10
3.69858e-09
-1.15613e-09
3.79933e-09
-1.18267e-09
3.86775e-09
-1.14922e-09
3.90714e-09
-1.11393e-09
3.9207e-09
-1.06385e-09
3.91182e-09
-9.88681e-10
3.88407e-09
-8.82137e-10
3.84105e-09
-7.41944e-10
3.78627e-09
-5.69147e-10
3.72309e-09
-3.67095e-10
3.65462e-09
-1.40455e-10
3.58371e-09
1.05513e-10
3.51293e-09
3.65299e-10
3.44445e-09
6.33021e-10
3.38001e-09
9.01894e-10
3.32077e-09
1.16344e-09
3.26744e-09
1.40664e-09
3.22054e-09
1.61742e-09
3.18088e-09
1.77847e-09
3.14964e-09
1.86987e-09
3.12731e-09
1.87093e-09
3.1097e-09
1.7647e-09
3.08137e-09
1.54712e-09
1.24052e-09
3.01172e-09
2.21987e-09
-2.91445e-10
2.2316e-09
-3.63238e-10
2.25329e-09
-4.24535e-10
2.28953e-09
-4.71384e-10
2.3413e-09
-5.03881e-10
2.40739e-09
-5.24539e-10
2.48588e-09
-5.36614e-10
2.57488e-09
-5.43212e-10
2.67285e-09
-5.47045e-10
2.7786e-09
-5.50461e-10
2.89125e-09
-5.55582e-10
3.01012e-09
-5.64425e-10
3.13463e-09
-5.78992e-10
3.26427e-09
-6.013e-10
3.39852e-09
-6.33354e-10
3.53682e-09
-6.77083e-10
3.67856e-09
-7.34234e-10
3.82301e-09
-8.0636e-10
3.96924e-09
-8.94936e-10
4.11588e-09
-1.00214e-09
4.26054e-09
-1.13218e-09
4.39877e-09
-1.29436e-09
4.50699e-09
-1.29089e-09
4.58056e-09
-1.2228e-09
4.6231e-09
-1.15647e-09
4.63816e-09
-1.07891e-09
4.62951e-09
-9.80029e-10
4.60111e-09
-8.53739e-10
4.55699e-09
-6.97831e-10
4.50113e-09
-5.13283e-10
4.43731e-09
-3.0328e-10
4.36915e-09
-7.22919e-11
4.30004e-09
1.74621e-10
4.23319e-09
4.32151e-10
4.17157e-09
6.94643e-10
4.11784e-09
9.55618e-10
4.07429e-09
1.20699e-09
4.0427e-09
1.43823e-09
4.02437e-09
1.63576e-09
4.01988e-09
1.78296e-09
4.02836e-09
1.86139e-09
4.04552e-09
1.85378e-09
4.06053e-09
1.74969e-09
4.05396e-09
1.55369e-09
1.29253e-09
4.00195e-09
3.10379e-09
-2.99613e-10
3.1102e-09
-3.69645e-10
3.12192e-09
-4.36257e-10
3.14468e-09
-4.9414e-10
3.18169e-09
-5.40896e-10
3.23383e-09
-5.76676e-10
3.30044e-09
-6.03225e-10
3.3802e-09
-6.22973e-10
3.47165e-09
-6.3849e-10
3.57343e-09
-6.52245e-10
3.6844e-09
-6.66556e-10
3.8036e-09
-6.83627e-10
3.93021e-09
-7.05594e-10
4.06346e-09
-7.34551e-10
4.20264e-09
-7.72533e-10
4.347e-09
-8.21446e-10
4.49575e-09
-8.82983e-10
4.64797e-09
-9.58581e-10
4.80252e-09
-1.04949e-09
4.95779e-09
-1.15741e-09
5.11106e-09
-1.28545e-09
5.25741e-09
-1.4407e-09
5.37196e-09
-1.40545e-09
5.44988e-09
-1.30071e-09
5.49502e-09
-1.20161e-09
5.51131e-09
-1.0952e-09
5.50289e-09
-9.71609e-10
5.47415e-09
-8.25002e-10
5.42957e-09
-6.53255e-10
5.37359e-09
-4.57295e-10
5.31047e-09
-2.40164e-10
5.24434e-09
-6.16335e-12
5.17916e-09
2.39799e-10
5.11878e-09
4.92538e-10
5.0669e-09
7.46524e-10
5.02703e-09
9.95484e-10
5.00231e-09
1.23172e-09
4.99517e-09
1.44536e-09
5.00695e-09
1.62397e-09
5.03707e-09
1.75284e-09
5.08177e-09
1.81669e-09
5.13247e-09
1.80307e-09
5.17456e-09
1.7076e-09
5.18897e-09
1.53928e-09
1.32271e-09
5.15879e-09
4.24227e-09
-3.05717e-10
4.24515e-09
-3.72527e-10
4.24965e-09
-4.40751e-10
4.26109e-09
-5.05584e-10
4.28381e-09
-5.63616e-10
4.32042e-09
-6.13284e-10
4.37189e-09
-6.54696e-10
4.43803e-09
-6.89118e-10
4.51801e-09
-7.18469e-10
4.61072e-09
-7.44949e-10
4.71499e-09
-7.70832e-10
4.82974e-09
-7.98377e-10
4.95395e-09
-8.29799e-10
5.08665e-09
-8.67253e-10
5.22692e-09
-9.12796e-10
5.37379e-09
-9.68321e-10
5.52627e-09
-1.03546e-09
5.68322e-09
-1.11553e-09
5.84325e-09
-1.20953e-09
6.00446e-09
-1.31862e-09
6.16378e-09
-1.44476e-09
6.31576e-09
-1.59268e-09
6.43465e-09
-1.52434e-09
6.51543e-09
-1.3815e-09
6.56219e-09
-1.24836e-09
6.57912e-09
-1.11213e-09
6.57079e-09
-9.63272e-10
6.54198e-09
-7.96197e-10
6.49764e-09
-6.0891e-10
6.44265e-09
-4.02303e-10
6.38177e-09
-1.79288e-10
6.31962e-09
5.59853e-11
6.26068e-09
2.98744e-10
6.20932e-09
5.43894e-10
6.16983e-09
7.86011e-10
6.14627e-09
1.01904e-09
6.14218e-09
1.23581e-09
6.16007e-09
1.42748e-09
6.2006e-09
1.58345e-09
6.26154e-09
1.6919e-09
6.33655e-09
1.74167e-09
6.41439e-09
1.72524e-09
6.47949e-09
1.64251e-09
6.51522e-09
1.50355e-09
1.32811e-09
6.50981e-09
5.69786e-09
-3.104e-10
5.69857e-09
-3.7323e-10
5.69823e-09
-4.40411e-10
5.70103e-09
-5.08385e-10
5.7113e-09
-5.73886e-10
5.73261e-09
-6.34593e-10
5.76732e-09
-6.89407e-10
5.81659e-09
-7.38394e-10
5.88064e-09
-7.82518e-10
5.95904e-09
-8.23346e-10
6.051e-09
-8.6279e-10
6.15555e-09
-9.02935e-10
6.27168e-09
-9.45925e-10
6.39831e-09
-9.93885e-10
6.53436e-09
-1.04884e-09
6.67869e-09
-1.11265e-09
6.83009e-09
-1.18686e-09
6.98719e-09
-1.27263e-09
7.14834e-09
-1.37068e-09
7.31131e-09
-1.48158e-09
7.47261e-09
-1.60607e-09
7.62632e-09
-1.74638e-09
7.74638e-09
-1.6444e-09
7.82768e-09
-1.4628e-09
7.87439e-09
-1.29508e-09
7.89098e-09
-1.12872e-09
7.88231e-09
-9.54605e-10
7.85359e-09
-7.67476e-10
7.81016e-09
-5.65483e-10
7.75736e-09
-3.49495e-10
7.70036e-09
-1.22294e-10
7.64421e-09
1.12138e-10
7.59376e-09
3.49189e-10
7.55375e-09
5.83906e-10
7.52871e-09
8.1105e-10
7.52282e-09
1.02494e-09
7.53948e-09
1.21915e-09
7.58065e-09
1.38631e-09
7.64595e-09
1.51815e-09
7.73158e-09
1.60627e-09
7.82961e-09
1.64365e-09
7.92797e-09
1.62687e-09
8.01214e-09
1.55833e-09
8.06848e-09
1.44721e-09
1.30817e-09
8.08842e-09
7.54404e-09
-3.1433e-10
7.54367e-09
-3.72866e-10
7.54054e-09
-4.37282e-10
7.53748e-09
-5.05326e-10
7.53808e-09
-5.74486e-10
7.54599e-09
-6.42498e-10
7.56432e-09
-7.07738e-10
7.59534e-09
-7.6942e-10
7.64042e-09
-8.27597e-10
7.70011e-09
-8.83034e-10
7.77435e-09
-9.37031e-10
7.86266e-09
-9.91243e-10
7.96427e-09
-1.04753e-09
8.07821e-09
-1.10783e-09
8.2034e-09
-1.17403e-09
8.33861e-09
-1.24786e-09
8.48246e-09
-1.33072e-09
8.6334e-09
-1.42356e-09
8.7895e-09
-1.52678e-09
8.94821e-09
-1.64029e-09
9.10565e-09
-1.76351e-09
9.25538e-09
-1.89611e-09
9.37195e-09
-1.76097e-09
9.45029e-09
-1.54115e-09
9.49448e-09
-1.33927e-09
9.50911e-09
-1.14335e-09
9.4993e-09
-9.44799e-10
9.47058e-09
-7.38754e-10
9.42863e-09
-5.23537e-10
9.37913e-09
-2.99993e-10
9.32759e-09
-7.07517e-11
9.2793e-09
1.60427e-10
9.23931e-09
3.89183e-10
9.21238e-09
6.10837e-10
9.20291e-09
8.20518e-10
9.2147e-09
1.01315e-09
9.25048e-09
1.18337e-09
9.31126e-09
1.32552e-09
9.3955e-09
1.43391e-09
9.49837e-09
1.50339e-09
9.61148e-09
1.53054e-09
9.7235e-09
1.51486e-09
9.82198e-09
1.45985e-09
9.89609e-09
1.3731e-09
1.26502e-09
9.93924e-09
9.8656e-09
-3.18024e-10
9.86502e-09
-3.72284e-10
9.86073e-09
-4.32993e-10
9.85436e-09
-4.98955e-10
9.84843e-09
-5.68561e-10
9.84601e-09
-6.40077e-10
9.85023e-09
-7.11951e-10
9.86387e-09
-7.83069e-10
9.88917e-09
-8.52893e-10
9.92763e-09
-9.21496e-10
9.9801e-09
-9.89503e-10
1.00468e-08
-1.05799e-09
1.01276e-08
-1.12833e-09
1.02219e-08
-1.20211e-09
1.03288e-08
-1.2809e-09
1.04471e-08
-1.36619e-09
1.05755e-08
-1.45911e-09
1.07123e-08
-1.56034e-09
1.08553e-08
-1.66983e-09
1.10018e-08
-1.78676e-09
1.11475e-08
-1.90918e-09
1.12855e-08
-2.03412e-09
1.13922e-08
-1.86765e-09
1.14627e-08
-1.6117e-09
1.15009e-08
-1.37742e-09
1.15112e-08
-1.15366e-09
1.14989e-08
-9.32509e-10
1.14697e-08
-7.09567e-10
1.14295e-08
-4.8335e-10
1.13842e-08
-2.54665e-10
1.13394e-08
-2.59317e-11
1.13004e-08
1.99412e-10
1.12722e-08
4.17402e-10
1.12592e-08
6.23834e-10
1.12653e-08
8.14452e-10
1.12934e-08
9.85051e-10
1.13452e-08
1.13154e-09
1.14206e-08
1.2501e-09
1.15171e-08
1.33737e-09
1.16295e-08
1.391e-09
1.17499e-08
1.41016e-09
1.18686e-08
1.39619e-09
1.19756e-08
1.35288e-09
1.20625e-08
1.2862e-09
1.20338e-09
1.21241e-08
1.27583e-08
-3.21658e-10
1.27579e-08
-3.71919e-10
1.27535e-08
-4.28603e-10
1.27458e-08
-4.91242e-10
1.27363e-08
-5.59006e-10
1.2727e-08
-6.30824e-10
1.27206e-08
-7.05563e-10
1.27198e-08
-7.82219e-10
1.2727e-08
-8.60084e-10
1.27443e-08
-9.38841e-10
1.27734e-08
-1.0186e-09
1.28153e-08
-1.09988e-09
1.28705e-08
-1.18353e-09
1.2939e-08
-1.27062e-09
1.30204e-08
-1.3623e-09
1.31138e-08
-1.45963e-09
1.32181e-08
-1.5634e-09
1.33316e-08
-1.67383e-09
1.34521e-08
-1.79035e-09
1.35767e-08
-1.9113e-09
1.37008e-08
-2.03328e-09
1.38173e-08
-2.15065e-09
1.39059e-08
-1.9563e-09
1.39624e-08
-1.66819e-09
1.39899e-08
-1.40492e-09
1.39927e-08
-1.15644e-09
1.3976e-08
-9.15741e-10
1.39453e-08
-6.78933e-10
1.39067e-08
-4.44747e-10
1.3866e-08
-2.13906e-10
1.38286e-08
1.146e-11
1.37996e-08
2.28373e-10
1.37836e-08
4.33444e-10
1.37842e-08
6.23167e-10
1.38045e-08
7.9414e-10
1.38464e-08
9.43231e-10
1.39102e-08
1.06772e-09
1.39948e-08
1.16545e-09
1.40972e-08
1.23503e-09
1.42121e-08
1.27609e-09
1.43327e-08
1.2895e-09
1.44514e-08
1.27751e-09
1.45606e-08
1.24375e-09
1.46539e-08
1.19286e-09
1.1299e-09
1.47274e-08
1.63266e-08
-3.24967e-10
1.63264e-08
-3.71681e-10
1.63222e-08
-4.24468e-10
1.63143e-08
-4.83304e-10
1.63032e-08
-5.47912e-10
1.62902e-08
-6.17799e-10
1.62769e-08
-6.92332e-10
1.62656e-08
-7.70854e-10
1.62583e-08
-8.52798e-10
1.62572e-08
-9.37787e-10
1.62643e-08
-1.0257e-09
1.62811e-08
-1.11668e-09
1.63087e-08
-1.21114e-09
1.63478e-08
-1.30966e-09
1.63984e-08
-1.41291e-09
1.64602e-08
-1.52147e-09
1.65324e-08
-1.6356e-09
1.66136e-08
-1.75501e-09
1.67017e-08
-1.87846e-09
1.67938e-08
-2.00334e-09
1.68853e-08
-2.12479e-09
1.69691e-08
-2.23449e-09
1.70302e-08
-2.01736e-09
1.70652e-08
-1.70321e-09
1.70765e-08
-1.41619e-09
1.70677e-08
-1.14773e-09
1.70439e-08
-8.91862e-10
1.70102e-08
-6.45301e-10
1.69725e-08
-4.06971e-10
1.6936e-08
-1.77458e-10
1.6906e-08
4.15072e-11
1.68868e-08
2.47547e-10
1.68822e-08
4.38023e-10
1.68951e-08
6.10308e-10
1.69272e-08
7.62017e-10
1.69792e-08
8.91172e-10
1.70506e-08
9.96345e-10
1.71393e-08
1.07678e-09
1.72418e-08
1.13249e-09
1.73536e-08
1.16435e-09
1.7469e-08
1.17411e-09
1.75821e-08
1.16435e-09
1.76876e-08
1.13831e-09
1.77808e-08
1.09961e-09
1.05187e-09
1.78588e-08
2.06787e-08
-3.27363e-10
2.06781e-08
-3.71051e-10
2.0674e-08
-4.20324e-10
2.0666e-08
-4.75395e-10
2.06545e-08
-5.36328e-10
2.06397e-08
-6.03037e-10
2.06227e-08
-6.75309e-10
2.06047e-08
-7.52859e-10
2.05873e-08
-8.35399e-10
2.05722e-08
-9.22699e-10
2.05611e-08
-1.01464e-09
2.05557e-08
-1.11123e-09
2.05572e-08
-1.21263e-09
2.05666e-08
-1.31909e-09
2.05845e-08
-1.43084e-09
2.06111e-08
-1.54799e-09
2.06457e-08
-1.67029e-09
2.06876e-08
-1.79684e-09
2.07348e-08
-1.92568e-09
2.07847e-08
-2.0532e-09
2.08329e-08
-2.17306e-09
2.08729e-08
-2.27444e-09
2.08966e-08
-2.04105e-09
2.09023e-08
-1.70896e-09
2.08914e-08
-1.40529e-09
2.08669e-08
-1.12318e-09
2.08329e-08
-8.57861e-10
2.07942e-08
-6.06677e-10
2.0756e-08
-3.68717e-10
2.07229e-08
-1.4436e-10
2.06992e-08
6.51639e-11