/*--------------------------------*- C++ -*----------------------------------*\
| =========                 |                                                 |
| \\      /  F ield         | OpenFOAM: The Open Source CFD Toolbox           |
|  \\    /   O peration     | Version:  2312                                  |
|   \\  /    A nd           | Website:  www.openfoam.com                      |
|    \\/     M anipulation  |                                                 |
\*---------------------------------------------------------------------------*/
FoamFile
{
    version     2.0;
    format      ascii;
    arch        "LSB;label=32;scalar=64";
    class       volVectorField;
    location    "300";
    object      U;
}
// * * * * * * * * * * * * * * * * * * * * * * * * * * * * * * * * * * * * * //

dimensions      [0 1 -1 0 0 0 0];

internalField   nonuniform List<vector> 
4800
(
(8.81968e-05 1.85384e-08 -4.89451e-27)
(8.75266e-05 2.50752e-08 -3.5157e-26)
(8.73928e-05 3.01206e-08 4.48794e-26)
(8.76191e-05 3.24757e-08 2.13114e-26)
(8.81188e-05 3.20422e-08 3.20997e-25)
(8.88362e-05 2.81667e-08 -7.67819e-25)
(8.97486e-05 1.99306e-08 7.24342e-25)
(9.08602e-05 5.40804e-09 -1.05837e-24)
(9.22175e-05 -2.01853e-08 3.36453e-25)
(9.39559e-05 -7.04369e-08 1.15346e-24)
(9.64274e-05 -1.91709e-07 -3.53214e-25)
(0.000100474 -5.4952e-07 -2.90138e-26)
(0.000108134 -1.5917e-06 -4.2044e-25)
(0.000127014 -6.66894e-06 1.96395e-25)
(0.000159546 -3.575e-05 -1.54862e-25)
(0.000273751 1.85852e-07 -2.00535e-26)
(0.000271543 8.01358e-08 2.49726e-26)
(0.000270995 -6.78322e-09 -2.38216e-25)
(0.000271553 -9.36997e-08 1.75661e-25)
(0.000272942 -1.88872e-07 5.85392e-25)
(0.000274991 -3.01349e-07 -9.37802e-25)
(0.000277631 -4.44788e-07 -2.75909e-25)
(0.000280882 -6.44833e-07 -7.11333e-26)
(0.000284896 -9.60793e-07 2.19095e-24)
(0.000290066 -1.54281e-06 -1.59768e-24)
(0.000297265 -2.78794e-06 1.70374e-25)
(0.000308184 -5.75795e-06 2.54733e-25)
(0.000325852 -1.30043e-05 -3.71263e-25)
(0.000356156 -3.04574e-05 -1.32418e-25)
(0.000393596 -7.22059e-05 4.74523e-25)
(0.000480245 6.18071e-07 -1.62079e-26)
(0.000476185 2.70924e-07 1.64757e-26)
(0.00047503 -1.28993e-08 1.75318e-25)
(0.000475794 -2.91302e-07 -4.2015e-25)
(0.000477988 -5.92313e-07 4.15916e-25)
(0.000481314 -9.44635e-07 4.00595e-25)
(0.000485647 -1.39186e-06 -1.02618e-24)
(0.000491018 -2.01425e-06 -6.40486e-25)
(0.000497664 -2.98603e-06 1.49893e-24)
(0.000506154 -4.70272e-06 5.61922e-25)
(0.000517571 -8.04809e-06 -1.89617e-24)
(0.000533568 -1.48874e-05 -2.94524e-25)
(0.000555984 -2.86264e-05 7.47519e-25)
(0.000585734 -5.43535e-05 1.20317e-24)
(0.000613951 -9.70205e-05 -6.10229e-25)
(0.000709524 1.43178e-06 6.83796e-27)
(0.000703244 6.58926e-07 -4.7998e-26)
(0.000701231 2.94325e-08 2.16993e-25)
(0.000702019 -5.80924e-07 2.39585e-25)
(0.000704871 -1.23607e-06 -2.27677e-25)
(0.000709343 -1.99845e-06 -1.36272e-24)
(0.00071524 -2.96107e-06 -9.44723e-25)
(0.000722573 -4.28919e-06 3.42706e-24)
(0.000731597 -6.31748e-06 1.4175e-24)
(0.000742878 -9.73042e-06 -1.94881e-24)
(0.000757301 -1.58407e-05 -7.64001e-25)
(0.000775752 -2.68696e-05 -5.71127e-25)
(0.000798216 -4.57697e-05 6.48407e-27)
(0.000822434 -7.48527e-05 3.89403e-25)
(0.000841058 -0.000112741 1.88552e-27)
(0.000963393 2.77021e-06 -1.44693e-26)
(0.000954473 1.33261e-06 -8.95908e-26)
(0.000951294 1.66113e-07 -5.99247e-26)
(0.000951857 -9.51216e-07 1.52021e-25)
(0.000955143 -2.13903e-06 -4.45933e-25)
(0.00096054 -3.50872e-06 1.09818e-24)
(0.000967751 -5.21938e-06 -1.85511e-25)
(0.000976721 -7.53859e-06 6.73637e-25)
(0.00098762 -1.09643e-05 -3.61634e-24)
(0.00100082 -1.64047e-05 6.65931e-24)
(0.00101669 -2.53436e-05 -6.18839e-24)
(0.00103514 -3.97666e-05 3.13859e-24)
(0.00105482 -6.14169e-05 -2.80207e-24)
(0.00107263 -9.01857e-05 2.52587e-24)
(0.00108411 -0.000122441 -9.7233e-25)
(0.00124351 4.8268e-06 2.22318e-26)
(0.0012315 2.4236e-06 8.06691e-26)
(0.00122679 4.81201e-07 -4.24854e-25)
(0.00122681 -1.35474e-06 -2.78283e-25)
(0.00123022 -3.28253e-06 7.15013e-25)
(0.00123621 -5.47697e-06 2.58548e-25)
(0.00124436 -8.17231e-06 -1.98735e-24)
(0.00125446 -1.17339e-05 4.61854e-24)
(0.00126652 -1.67765e-05 -5.81469e-24)
(0.00128056 -2.42849e-05 1.30703e-24)
(0.00129637 -3.56091e-05 3.90006e-24)
(0.0013131 -5.2114e-05 -5.15587e-24)
(0.00132888 -7.43176e-05 2.39932e-24)
(0.00134116 -0.000100823 2.39078e-24)
(0.00134784 -0.000128 -1.72521e-24)
(0.00155122 7.84984e-06 2.15208e-26)
(0.00153568 4.1129e-06 -1.27513e-25)
(0.00152904 1.10416e-06 4.58428e-25)
(0.00152813 -1.6992e-06 -6.30992e-25)
(0.00153127 -4.59843e-06 -2.15426e-24)
(0.00153743 -7.84322e-06 3.56084e-24)
(0.00154599 -1.17403e-05 -2.12114e-24)
(0.00155659 -1.6724e-05 7.01121e-24)
(0.00156895 -2.34422e-05 -4.49739e-24)
(0.00158275 -3.27901e-05 -2.01413e-24)
(0.0015973 -4.57664e-05 -3.80511e-24)
(0.00161138 -6.3037e-05 3.20803e-24)
(0.0016233 -8.42833e-05 8.47919e-25)
(0.00163138 -0.000107763 6.95264e-25)
(0.00163497 -0.000130644 -5.75353e-25)
(0.0018873 1.21387e-05 -3.64921e-26)
(0.00186787 6.63464e-06 4.95117e-25)
(0.00185891 2.2184e-06 -1.14296e-24)
(0.00185665 -1.83462e-06 -9.5075e-25)
(0.00185906 -5.95152e-06 3.12172e-25)
(0.00186486 -1.04631e-05 6.32649e-25)
(0.00187322 -1.57335e-05 2.2706e-24)
(0.00188357 -2.22191e-05 -5.94951e-24)
(0.00189537 -3.0509e-05 -3.1012e-24)
(0.00190798 -4.12839e-05 7.68602e-24)
(0.00192049 -5.51178e-05 -2.28697e-24)
(0.00193167 -7.21188e-05 7.17301e-24)
(0.00194026 -9.15772e-05 -3.46239e-24)
(0.00194536 -0.000111931 -1.03969e-24)
(0.00194701 -0.000131224 5.8006e-25)
(0.00225155 1.80243e-05 -5.70278e-27)
(0.00222813 1.02713e-05 3.20646e-25)
(0.00221653 4.06622e-06 -4.45352e-25)
(0.00221252 -1.54185e-06 1.06482e-24)
(0.00221371 -7.12303e-06 -6.167e-24)
(0.00221858 -1.30893e-05 6.19925e-24)
(0.0022261 -1.98382e-05 -9.45199e-24)
(0.00223544 -2.77984e-05 5.3519e-24)
(0.00224589 -3.74303e-05 3.76875e-24)
(0.00225663 -4.91513e-05 7.7487e-24)
(0.0022667 -6.31634e-05 -9.25136e-24)
(0.0022751 -7.92381e-05 -1.63417e-24)
(0.00228101 -9.66023e-05 6.20732e-25)
(0.00228404 -0.000114065 4.44399e-24)
(0.0022845 -0.000130374 -1.70362e-24)
(0.00264231 2.58153e-05 3.71448e-26)
(0.00261519 1.53257e-05 -1.56671e-25)
(0.00260088 6.9374e-06 6.85565e-25)
(0.00259482 -5.3371e-07 -2.33436e-24)
(0.00259437 -7.80665e-06 3.38384e-24)
(0.00259779 -1.53686e-05 -4.1704e-24)
(0.00260383 -2.36256e-05 6.57903e-24)
(0.00261153 -3.29411e-05 1.15092e-24)
(0.00262002 -4.36207e-05 -7.81961e-24)
(0.00262845 -5.58436e-05 1.03375e-23)
(0.00263598 -6.95596e-05 -1.0374e-23)
(0.00264188 -8.44051e-05 -2.87354e-24)
(0.00264567 -9.97178e-05 4.49442e-24)
(0.00264724 -0.00011468 1.23605e-24)
(0.00264693 -0.000128533 -5.0793e-25)
(0.00305572 3.56879e-05 1.78468e-25)
(0.00302591 2.20496e-05 -1.41435e-24)
(0.00300922 1.11237e-05 -2.21553e-24)
(0.00300109 1.51537e-06 4.9214e-24)
(0.00299874 -7.63148e-06 2.13499e-24)
(0.0030003 -1.68675e-05 -1.24234e-23)
(0.00300441 -2.65887e-05 3.42566e-24)
(0.00301 -3.70808e-05 2.28063e-24)
(0.00301617 -4.8511e-05 -9.50833e-24)
(0.00302213 -6.08935e-05 8.77307e-24)
(0.0030272 -7.40547e-05 -6.62764e-24)
(0.0030309 -8.76329e-05 1.51741e-23)
(0.00303297 -0.000101136 -6.67521e-24)
(0.00303342 -0.000114047 3.59472e-24)
(0.00303256 -0.000125929 -9.24602e-25)
(0.00348508 4.74995e-05 -8.47908e-26)
(0.00345448 3.05064e-05 1.09567e-24)
(0.00343636 1.68168e-05 -2.01286e-24)
(0.00342657 4.88956e-06 -9.9125e-25)
(0.0034224 -6.23142e-06 1.017e-23)
(0.003422 -1.71416e-05 -1.23762e-24)
(0.00342398 -2.8219e-05 -1.53582e-23)
(0.00342727 -3.96827e-05 1.63759e-23)
(0.00343104 -5.16079e-05 -3.24663e-24)
(0.00343459 -6.39288e-05 -1.05208e-23)
(0.00343742 -7.64507e-05 1.01756e-23)
(0.00343922 -8.88853e-05 5.08231e-24)
(0.00343986 -0.000100907 -3.73145e-24)
(0.00343937 -0.000112214 -6.04121e-24)
(0.00343804 -0.000122572 4.79277e-25)
(0.00392042 6.05443e-05 6.30984e-27)
(0.00389188 4.03621e-05 -1.36251e-24)
(0.00387405 2.39328e-05 6.03844e-24)
(0.00386358 9.6823e-06 4.2758e-25)
(0.00385815 -3.37964e-06 3.06876e-24)
(0.00385609 -1.58641e-05 -9.64607e-24)
(0.00385613 -2.81295e-05 7.60031e-24)
(0.00385729 -4.03542e-05 1.67243e-24)
(0.00385886 -5.2575e-05 1.29573e-23)
(0.00386029 -6.47168e-05 -1.76411e-23)
(0.00386122 -7.66266e-05 -7.29825e-24)
(0.00386144 -8.81135e-05 -4.4479e-24)
(0.00386089 -9.89896e-05 7.47902e-24)
(0.00385961 -0.0001091 -2.03781e-25)
(0.00385781 -0.00011833 6.3127e-25)
(0.00434905 7.33641e-05 -1.80277e-26)
(0.00432596 5.06656e-05 1.50988e-24)
(0.0043107 3.18934e-05 -2.026e-24)
(0.00430111 1.55878e-05 -5.71873e-27)
(0.0042955 8.1463e-07 2.26063e-24)
(0.00429255 -1.30115e-05 5.26997e-24)
(0.00429125 -2.62263e-05 -1.82792e-23)
(0.00429083 -3.89922e-05 1.24768e-24)
(0.00429073 -5.13496e-05 7.46991e-24)
(0.00429055 -6.32573e-05 -3.18269e-24)
(0.00429004 -7.463e-05 7.73971e-24)
(0.00428907 -8.53703e-05 4.98637e-24)
(0.00428763 -9.53937e-05 -8.16859e-24)
(0.00428572 -0.00010464 5.17406e-24)
(0.00428353 -0.000113068 -4.06032e-24)
(0.0047576 8.38822e-05 -6.67015e-25)
(0.00474268 5.98117e-05 2.51513e-25)
(0.00473223 3.94988e-05 2.53575e-24)
(0.00472528 2.17316e-05 -1.19012e-23)
(0.00472085 5.7183e-06 9.40267e-24)
(0.00471813 -9.05327e-06 -6.29685e-24)
(0.00471645 -2.28865e-05 3.96681e-24)
(0.0047153 -3.59399e-05 -2.59343e-23)
(0.00471429 -4.8277e-05 3.33365e-23)
(0.00471318 -5.99057e-05 -1.78613e-23)
(0.00471184 -7.08075e-05 1.43939e-23)
(0.00471019 -8.096e-05 1.10894e-23)
(0.00470822 -9.03506e-05 -1.7668e-23)
(0.00470594 -9.8979e-05 5.30906e-24)
(0.00470352 -0.000106845 -2.12512e-25)
(0.00513473 9.01409e-05 -2.65695e-26)
(0.00512871 6.59851e-05 -2.5326e-25)
(0.00512417 4.5166e-05 1.82167e-25)
(0.00512103 2.6771e-05 -3.37092e-25)
(0.00511892 1.01917e-05 3.94095e-24)
(0.00511748 -4.98138e-06 -6.05905e-24)
(0.00511639 -1.90074e-05 5.06804e-24)
(0.0051154 -3.20401e-05 -1.44917e-23)
(0.00511432 -4.41667e-05 2.96906e-23)
(0.00511303 -5.5437e-05 -3.44233e-23)
(0.00511149 -6.58834e-05 2.56843e-23)
(0.00510968 -7.55349e-05 -7.93069e-24)
(0.00510762 -8.44233e-05 3.90692e-25)
(0.00510531 -9.25833e-05 1.58314e-24)
(0.0051029 -0.000100038 -2.87415e-24)
(0.00547196 9.1417e-05 -2.36917e-24)
(0.00547298 6.8129e-05 3.85352e-24)
(0.00547361 4.77104e-05 -1.18661e-24)
(0.00547414 2.95035e-05 -1.69111e-24)
(0.00547457 1.30586e-05 6.22883e-24)
(0.00547484 -1.93878e-06 -5.66656e-24)
(0.00547488 -1.57046e-05 -4.65601e-24)
(0.00547462 -2.83852e-05 -1.01809e-23)
(0.00547403 -4.00827e-05 4.53519e-24)
(0.00547311 -5.08738e-05 2.0243e-23)
(0.00547186 -6.08218e-05 -9.77248e-24)
(0.00547031 -6.99844e-05 5.41893e-24)
(0.0054685 -7.84165e-05 -2.04413e-24)
(0.00546645 -8.61697e-05 -5.74115e-24)
(0.00546428 -9.32774e-05 2.81616e-24)
(0.00575894 8.8638e-05 8.14384e-25)
(0.00576388 6.66713e-05 -1.26489e-24)
(0.0057676 4.71896e-05 -4.09669e-25)
(0.00577047 2.97201e-05 -6.88662e-25)
(0.00577264 1.39202e-05 -1.92e-24)
(0.00577418 -4.627e-07 8.66602e-24)
(0.00577515 -1.36153e-05 -6.28041e-24)
(0.0057756 -2.56786e-05 -3.71602e-24)
(0.00577557 -3.67629e-05 3.05596e-24)
(0.00577511 -4.6959e-05 -3.35935e-24)
(0.00577427 -5.63455e-05 7.17142e-24)
(0.0057731 -6.49924e-05 3.41397e-24)
(0.00577164 -7.29632e-05 -1.18578e-23)
(0.00576993 -8.03148e-05 7.71634e-24)
(0.00576806 -8.70825e-05 -1.5171e-24)
(0.00597479 8.33419e-05 2.46815e-24)
(0.00598124 6.29584e-05 3.77174e-24)
(0.00598614 4.47235e-05 -7.39881e-24)
(0.00598988 2.83109e-05 -4.02248e-25)
(0.00599268 1.34529e-05 1.42078e-24)
(0.00599468 -6.26232e-08 -2.7021e-24)
(0.00599598 -1.24032e-05 -3.95433e-24)
(0.00599668 -2.3704e-05 7.68891e-24)
(0.00599686 -3.4077e-05 7.94986e-24)
(0.00599658 -4.3618e-05 -1.77745e-23)
(0.00599592 -5.24096e-05 9.52458e-24)
(0.00599491 -6.05243e-05 -6.2386e-25)
(0.00599361 -6.80259e-05 -4.93505e-25)
(0.00599206 -7.49694e-05 6.31726e-25)
(0.00599031 -8.13873e-05 -2.81971e-25)
(0.00608169 7.62605e-05 -6.5324e-24)
(0.00608873 5.78612e-05 -1.25381e-23)
(0.00609399 4.12493e-05 5.95823e-24)
(0.00609789 2.62212e-05 1.81247e-23)
(0.00610072 1.25759e-05 -4.53802e-24)
(0.00610265 1.41039e-07 -1.09248e-24)
(0.00610383 -1.12278e-05 4.41901e-25)
(0.00610439 -2.1653e-05 -3.85272e-24)
(0.00610441 -3.12397e-05 9.52822e-24)
(0.00610398 -4.00785e-05 -3.89195e-24)
(0.00610317 -4.82471e-05 2.1763e-24)
(0.00610201 -5.58128e-05 -3.23817e-24)
(0.00610057 -6.28331e-05 -3.53231e-24)
(0.00609887 -6.93568e-05 5.05433e-24)
(0.00609696 -7.54094e-05 -2.14591e-24)
(0.00602759 6.75893e-05 1.01437e-23)
(0.00603507 5.15817e-05 -2.07416e-23)
(0.0060406 3.69868e-05 3.08293e-24)
(0.0060446 2.36871e-05 2.39164e-23)
(0.0060474 1.15398e-05 -2.08932e-23)
(0.00604923 4.14682e-07 6.49272e-24)
(0.00605025 -9.80306e-06 3.46315e-24)
(0.0060506 -1.92159e-05 -7.11552e-24)
(0.0060504 -2.79138e-05 2.05427e-24)
(0.00604973 -3.59737e-05 2.21927e-25)
(0.00604865 -4.34615e-05 -9.71058e-25)
(0.00604722 -5.04328e-05 1.69338e-24)
(0.00604548 -5.69349e-05 -1.9437e-24)
(0.00604349 -6.30068e-05 1.23997e-24)
(0.00604124 -6.86683e-05 -5.56388e-25)
(0.00581537 5.82712e-05 6.02834e-24)
(0.0058233 4.47048e-05 -1.14223e-23)
(0.0058292 3.22142e-05 -6.99941e-24)
(0.00583349 2.07328e-05 2.99978e-23)
(0.00583648 1.01632e-05 -2.50104e-23)
(0.00583842 4.12675e-07 2.55252e-24)
(0.0058395 -8.60432e-06 3.50292e-24)
(0.00583986 -1.69667e-05 1.65511e-24)
(0.00583961 -2.4744e-05 1.01229e-24)
(0.00583885 -3.19958e-05 -3.84243e-24)
(0.00583764 -3.87728e-05 2.40386e-24)
(0.00583604 -4.51173e-05 6.01665e-25)
(0.00583409 -5.10649e-05 -2.35669e-24)
(0.00583183 -5.66444e-05 1.17393e-24)
(0.00582927 -6.18706e-05 5.56143e-25)
(0.00550026 4.91222e-05 1.43641e-23)
(0.00550857 3.77536e-05 -2.31794e-23)
(0.00551485 2.71909e-05 4.37421e-24)
(0.00551949 1.73963e-05 -9.17928e-24)
(0.00552276 8.30617e-06 -1.06683e-23)
(0.00552493 -1.43045e-07 3.43095e-23)
(0.00552618 -8.01259e-06 -1.22034e-23)
(0.00552665 -1.53595e-05 3.09151e-24)
(0.00552646 -2.22343e-05 -1.55461e-24)
(0.00552569 -2.86802e-05 -2.97696e-24)
(0.00552441 -3.47337e-05 4.91584e-24)
(0.00552268 -4.04252e-05 -1.88174e-24)
(0.00552054 -4.57797e-05 3.7349e-25)
(0.00551804 -5.08171e-05 -2.08275e-25)
(0.00551517 -5.55469e-05 7.00483e-26)
(0.00512218 4.0336e-05 5.30176e-24)
(0.00513063 3.09022e-05 -2.50716e-23)
(0.00513713 2.20667e-05 4.00441e-23)
(0.00514197 1.38079e-05 -2.82264e-23)
(0.00514543 6.08607e-06 2.58387e-23)
(0.00514775 -1.14038e-06 -8.26485e-24)
(0.0051491 -7.91379e-06 -5.27149e-24)
(0.00514962 -1.42742e-05 -5.1612e-24)
(0.00514942 -2.02567e-05 8.0089e-24)
(0.00514858 -2.58911e-05 -8.46711e-25)
(0.00514717 -3.12024e-05 -6.43229e-24)
(0.00514524 -3.62108e-05 -4.36664e-25)
(0.00514285 -4.09329e-05 8.1601e-25)
(0.00514002 -4.53812e-05 -4.92829e-26)
(0.00513677 -4.95605e-05 -1.83107e-26)
(0.0047098 3.21978e-05 6.73964e-25)
(0.00471811 2.44578e-05 -9.09723e-24)
(0.00472454 1.71572e-05 -4.59124e-24)
(0.00472934 1.02834e-05 3.59296e-23)
(0.00473278 3.81424e-06 -3.31185e-23)
(0.00473506 -2.27566e-06 9.12939e-24)
(0.00473634 -8.01437e-06 1.42797e-24)
(0.00473675 -1.34287e-05 -6.92791e-25)
(0.00473638 -1.85418e-05 -2.9279e-24)
(0.00473533 -2.3373e-05 1.17839e-23)
(0.00473365 -2.79381e-05 -8.92831e-24)
(0.0047314 -3.22497e-05 -2.21539e-25)
(0.00472862 -3.63178e-05 5.81511e-25)
(0.00472535 -4.01494e-05 1.28923e-25)
(0.00472159 -4.37457e-05 -5.72887e-26)
(0.00428311 2.49607e-05 9.51598e-25)
(0.00429094 1.86967e-05 8.08794e-24)
(0.00429701 1.27503e-05 -8.82639e-24)
(0.00430151 7.11462e-06 -5.65136e-24)
(0.00430468 1.78054e-06 3.38762e-23)
(0.00430669 -3.26533e-06 -2.49002e-23)
(0.0043077 -8.04067e-06 -6.12437e-25)
(0.00430782 -1.25624e-05 -4.51712e-24)
(0.00430713 -1.68448e-05 -2.58613e-25)
(0.00430571 -2.08993e-05 6.52991e-25)
(0.00430363 -2.47351e-05 -1.70886e-24)
(0.00430092 -2.83595e-05 1.6466e-24)
(0.00429765 -3.17775e-05 6.18047e-25)
(0.00429384 -3.49923e-05 4.47979e-25)
(0.0042895 -3.80029e-05 1.61611e-25)
(0.00385574 1.87965e-05 6.37267e-24)
(0.00386284 1.3808e-05 -9.29109e-24)
(0.00386829 9.04337e-06 -6.94481e-24)
(0.00387226 4.50039e-06 2.03246e-23)
(0.00387496 1.79763e-07 -7.03645e-24)
(0.00387653 -3.92361e-06 -9.20618e-24)
(0.00387711 -7.82002e-06 3.16932e-24)
(0.00387679 -1.15192e-05 6.47139e-24)
(0.00387566 -1.5029e-05 -9.70985e-24)
(0.00387379 -1.83555e-05 9.09708e-24)
(0.00387122 -2.15035e-05 -4.50874e-24)
(0.003868 -2.44762e-05 1.72461e-24)
(0.00386419 -2.72757e-05 -1.73513e-24)
(0.00385982 -2.99029e-05 1.44977e-24)
(0.0038549 -3.2355e-05 -2.30781e-25)
(0.00343703 1.37637e-05 -1.14871e-24)
(0.00344321 9.86169e-06 -3.77852e-24)
(0.00344788 6.11187e-06 -1.1453e-23)
(0.00345118 2.51642e-06 3.09711e-23)
(0.00345329 -9.16886e-07 -5.51484e-24)
(0.00345432 -4.18786e-06 -8.08211e-24)
(0.00345439 -7.30169e-06 2.5869e-24)
(0.00345358 -1.02632e-05 -3.70694e-24)
(0.00345197 -1.3076e-05 -7.35196e-24)
(0.00344962 -1.57426e-05 7.01622e-24)
(0.00344657 -1.82649e-05 3.29295e-25)
(0.00344287 -2.06438e-05 -1.69809e-24)
(0.00343856 -2.28796e-05 1.94015e-24)
(0.00343369 -2.49715e-05 5.51045e-26)
(0.00342827 -2.69166e-05 -7.99453e-26)
(0.00303335 9.81248e-06 4.05299e-24)
(0.00303853 6.81893e-06 5.66941e-24)
(0.00304236 3.92379e-06 -5.26384e-24)
(0.00304495 1.13346e-06 -1.08378e-23)
(0.00304643 -1.53972e-06 1.40434e-23)
(0.00304691 -4.09273e-06 -1.48224e-23)
(0.00304647 -6.52754e-06 -3.82161e-25)
(0.0030452 -8.84587e-06 5.4359e-24)
(0.00304315 -1.10487e-05 1.80175e-24)
(0.00304037 -1.31365e-05 -3.36595e-24)
(0.00303692 -1.51094e-05 2.35001e-25)
(0.00303284 -1.69669e-05 6.03402e-24)
(0.00302816 -1.87085e-05 -2.26051e-24)
(0.00302293 -2.03327e-05 -4.65542e-25)
(0.00301716 -2.18364e-05 -1.94552e-26)
(0.00264901 6.81732e-06 -3.81013e-24)
(0.00265322 4.56778e-06 4.79012e-24)
(0.00265624 2.3778e-06 5.03413e-25)
(0.00265814 2.57352e-07 8.96262e-24)
(0.00265904 -1.77905e-06 -7.26413e-24)
(0.00265901 -3.72743e-06 4.82488e-25)
(0.00265814 -5.58801e-06 -7.96198e-25)
(0.00265648 -7.36071e-06 -2.08308e-24)
(0.00265409 -9.04509e-06 1.63821e-24)
(0.00265101 -1.06406e-05 -5.22559e-24)
(0.0026473 -1.21463e-05 5.01452e-25)
(0.00264298 -1.35614e-05 1.22536e-24)
(0.00263809 -1.48845e-05 6.83648e-25)
(0.00263268 -1.61142e-05 2.302e-25)
(0.00262677 -1.72477e-05 5.2665e-26)
(0.00228684 4.61603e-06 2.52324e-24)
(0.00229016 2.96312e-06 -1.9733e-24)
(0.00229244 1.3432e-06 -8.31245e-24)
(0.00229374 -2.31369e-07 7.70108e-24)
(0.00229414 -1.74598e-06 1.03011e-23)
(0.00229371 -3.19705e-06 -2.73461e-24)
(0.00229251 -4.58396e-06 -5.18305e-24)
(0.00229059 -5.90578e-06 -6.85316e-24)
(0.00228799 -7.16146e-06 5.06483e-24)
(0.00228476 -8.34992e-06 2.44578e-25)
(0.00228094 -9.46999e-06 -1.03363e-24)
(0.00227655 -1.05205e-05 -2.25651e-25)
(0.00227165 -1.15001e-05 4.75172e-25)
(0.00226626 -1.24074e-05 -3.74839e-26)
(0.00226042 -1.324e-05 -5.72857e-26)
(0.00194848 3.04209e-06 -1.40528e-24)
(0.00195103 1.8577e-06 -9.61329e-25)
(0.0019527 6.89498e-07 1.19678e-24)
(0.00195351 -4.49314e-07 -3.59066e-24)
(0.00195352 -1.54571e-06 1.16376e-23)
(0.0019528 -2.59712e-06 -1.50628e-23)
(0.00195139 -3.60267e-06 1.44281e-23)
(0.00194934 -4.56116e-06 -6.00856e-24)
(0.00194667 -5.47137e-06 1.27342e-24)
(0.00194344 -6.33212e-06 -4.63916e-26)
(0.00193967 -7.14218e-06 -9.74988e-25)
(0.00193539 -7.9004e-06 2.34435e-25)
(0.00193065 -8.6056e-06 -6.20018e-25)
(0.00192547 -9.25658e-06 -5.89485e-26)
(0.00191988 -9.8515e-06 2.468e-26)
(0.00163469 1.94473e-06 -5.99672e-25)
(0.0016366 1.12063e-06 1.58026e-25)
(0.00163776 3.03217e-07 3.27307e-25)
(0.00163819 -4.95048e-07 -1.45906e-24)
(0.00163794 -1.26374e-06 -6.18658e-25)
(0.00163705 -2.00147e-06 5.49623e-24)
(0.00163555 -2.70735e-06 -3.19664e-24)
(0.00163349 -3.38023e-06 4.3178e-25)
(0.00163089 -4.01897e-06 -4.22379e-25)
(0.00162779 -4.62249e-06 -4.20389e-25)
(0.00162422 -5.18969e-06 -9.28774e-26)
(0.00162021 -5.71959e-06 7.09967e-25)
(0.00161578 -6.2112e-06 1.01021e-25)
(0.00161097 -6.66354e-06 -3.53159e-25)
(0.00160581 -7.0753e-06 -3.69612e-26)
(0.00134549 1.19819e-06 -1.90665e-25)
(0.00134689 6.45143e-07 -5.97655e-26)
(0.00134767 9.43311e-08 -2.9676e-24)
(0.00134783 -4.43863e-07 8.19109e-25)
(0.00134741 -9.61971e-07 -2.01746e-24)
(0.00134645 -1.45957e-06 1.49398e-24)
(0.00134498 -1.93588e-06 2.67023e-24)
(0.00134302 -2.38993e-06 1.90413e-24)
(0.0013406 -2.82081e-06 -2.61391e-24)
(0.00133775 -3.22761e-06 7.84578e-25)
(0.0013345 -3.60943e-06 6.04976e-25)
(0.00133086 -3.96554e-06 -7.91346e-25)
(0.00132688 -4.29513e-06 4.16653e-25)
(0.00132257 -4.59746e-06 -2.83316e-28)
(0.00131795 -4.87163e-06 6.13473e-26)
(0.0010804 7.03405e-07 -6.52239e-25)
(0.00108138 3.49289e-07 -8.72822e-25)
(0.00108187 -3.87971e-09 -1.37426e-25)
(0.00108186 -3.48697e-07 2.14448e-24)
(0.00108137 -6.80455e-07 -1.48024e-24)
(0.00108043 -9.99335e-07 -2.60386e-25)
(0.00107906 -1.30469e-06 2.29664e-24)
(0.0010773 -1.59582e-06 -2.14891e-26)
(0.00107515 -1.87202e-06 -4.64097e-25)
(0.00107264 -2.1326e-06 -1.52449e-24)
(0.0010698 -2.37691e-06 2.20392e-25)
(0.00106664 -2.6044e-06 9.48871e-25)
(0.00106318 -2.81451e-06 -1.1873e-25)
(0.00105946 -3.00667e-06 -8.18028e-26)
(0.00105549 -3.18026e-06 4.72881e-26)
(0.000838494 3.85413e-07 -1.24795e-25)
(0.000839169 1.72849e-07 8.77659e-27)
(0.000839451 -3.83913e-08 9.09231e-25)
(0.000839334 -2.44183e-07 5.86263e-25)
(0.000838843 -4.42041e-07 -4.27686e-25)
(0.000837995 -6.32386e-07 -9.99392e-25)
(0.000836808 -8.14739e-07 3.88349e-25)
(0.000835299 -9.88626e-07 -1.59201e-24)
(0.000833485 -1.15356e-06 1.21855e-24)
(0.000831384 -1.30908e-06 5.75291e-25)
(0.000829012 -1.45473e-06 -3.86859e-26)
(0.00082639 -1.59017e-06 -5.79943e-25)
(0.000823533 -1.71501e-06 9.03341e-26)
(0.000820462 -1.82884e-06 -5.20905e-26)
(0.000817194 -1.93124e-06 2.12867e-26)
(0.000618623 1.89256e-07 -2.02228e-25)
(0.000619058 7.30635e-08 6.49311e-27)
(0.0006192 -4.08253e-08 6.44133e-25)
(0.000619042 -1.51271e-07 -4.01406e-25)
(0.000618605 -2.57332e-07 1.59581e-24)
(0.000617899 -3.59412e-07 -2.88269e-24)
(0.000616936 -4.57204e-07 2.29588e-24)
(0.000615731 -5.50433e-07 -1.86713e-24)
(0.000614294 -6.38812e-07 1.3005e-24)
(0.00061264 -7.22066e-07 -7.99917e-25)
(0.000610781 -7.99934e-07 2.69526e-25)
(0.000608731 -8.72212e-07 3.62585e-26)
(0.000606505 -9.38691e-07 4.38839e-26)
(0.000604118 -9.99097e-07 -5.05257e-26)
(0.000601583 -1.0531e-06 7.71106e-27)
(0.000419442 7.63062e-08 2.72188e-25)
(0.000419697 2.19933e-08 2.87313e-25)
(0.00041975 -2.94033e-08 -1.23253e-24)
(0.000419597 -7.88608e-08 8.9232e-25)
(0.000419252 -1.26283e-07 -1.22231e-26)
(0.000418722 -1.7191e-07 2.14696e-25)
(0.000418015 -2.15583e-07 -2.7123e-25)
(0.00041714 -2.57172e-07 -5.34914e-25)
(0.000416105 -2.96538e-07 5.2096e-25)
(0.000414918 -3.33553e-07 4.37745e-26)
(0.00041359 -3.68095e-07 -3.71998e-25)
(0.00041213 -4.00072e-07 1.3474e-25)
(0.000410548 -4.29396e-07 6.67277e-26)
(0.000408854 -4.55906e-07 -8.90615e-27)
(0.000407059 -4.7932e-07 -4.57028e-27)
(0.000239523 2.14845e-08 -2.46006e-25)
(0.000239641 5.73391e-09 7.46093e-25)
(0.000239644 -8.28253e-09 4.30675e-25)
(0.000239528 -2.22193e-08 -7.89159e-25)
(0.000239302 -3.61176e-08 -9.17347e-26)
(0.000238969 -4.99435e-08 -7.89628e-26)
(0.000238534 -6.35435e-08 2.3263e-25)
(0.000238002 -7.67927e-08 -3.86035e-25)
(0.000237377 -8.95777e-08 5.04565e-25)
(0.000236664 -1.018e-07 -2.47581e-25)
(0.000235868 -1.13376e-07 -1.45696e-25)
(0.000234996 -1.24234e-07 8.32003e-26)
(0.000234054 -1.34322e-07 -7.85404e-26)
(0.000233047 -1.43538e-07 7.22004e-26)
(0.000231981 -1.51634e-07 -8.80338e-27)
(7.74029e-05 7.71272e-09 -1.38865e-27)
(7.74179e-05 1.91177e-08 1.14213e-25)
(7.73972e-05 2.79576e-08 1.2747e-25)
(7.73396e-05 3.35904e-08 -2.02757e-25)
(7.72479e-05 3.64309e-08 4.05551e-25)
(7.71227e-05 3.69731e-08 -4.40534e-25)
(7.69653e-05 3.56344e-08 2.7573e-26)
(7.67768e-05 3.27822e-08 2.24388e-25)
(7.65586e-05 2.87338e-08 -3.09293e-25)
(7.63123e-05 2.37631e-08 -4.88672e-26)
(7.60396e-05 1.81032e-08 1.90223e-25)
(7.57421e-05 1.19561e-08 -8.13746e-26)
(7.54218e-05 5.48106e-09 -2.33394e-26)
(7.50809e-05 -1.15907e-09 1.84949e-26)
(7.47211e-05 -7.73332e-09 -5.63544e-28)
(0.000246208 -0.000115704 2.22795e-26)
(0.000283974 -0.000113577 5.98251e-25)
(0.000345807 -0.000100348 -1.75948e-24)
(0.000411212 -8.56244e-05 2.60806e-24)
(0.000477001 -7.12901e-05 -9.95075e-25)
(0.000543488 -5.81564e-05 -9.57269e-25)
(0.000610777 -4.65115e-05 1.08653e-24)
(0.000679036 -3.64883e-05 -2.11622e-24)
(0.000748431 -2.81481e-05 1.68814e-25)
(0.000819092 -2.15077e-05 1.30998e-24)
(0.000891115 -1.6551e-05 -2.41414e-25)
(0.000964559 -1.32338e-05 2.54749e-25)
(0.00103945 -1.14838e-05 -2.71996e-26)
(0.0011158 -1.11988e-05 1.48102e-25)
(0.00119358 -1.22435e-05 -5.45767e-25)
(0.00127273 -1.44493e-05 2.97145e-25)
(0.0013532 -1.76189e-05 -8.88157e-26)
(0.00143489 -2.15474e-05 8.68941e-27)
(0.00151764 -2.6063e-05 1.96662e-25)
(0.00160118 -3.11127e-05 -1.21156e-25)
(0.00168495 -3.68948e-05 1.28405e-26)
(0.00176754 -4.40166e-05 -1.06246e-26)
(0.00184039 -5.2989e-05 1.55569e-26)
(0.00189514 -6.34992e-05 4.79494e-26)
(0.00193137 -7.47791e-05 -8.6735e-26)
(0.00195059 -8.57078e-05 -3.98086e-26)
(0.00195419 -9.48326e-05 1.48206e-26)
(0.0019436 -0.000100554 7.50722e-26)
(0.00192029 -0.000101253 2.42796e-26)
(0.00188578 -9.53657e-05 -3.72732e-26)
(0.00184159 -8.1395e-05 -1.40638e-25)
(0.0017892 -5.79005e-05 2.49779e-25)
(0.00173 -2.34894e-05 -1.20898e-25)
(0.00166525 2.31331e-05 -2.69533e-25)
(0.00159603 8.29971e-05 2.66238e-25)
(0.00152303 0.000156545 9.70733e-25)
(0.00144655 0.000243162 -3.84483e-25)
(0.00136633 0.000340633 7.51663e-26)
(0.00128163 0.00044463 -3.07311e-26)
(0.00119132 0.000548335 -8.35644e-25)
(0.00109418 0.000642193 -8.42453e-27)
(0.000989398 0.000713573 2.22094e-25)
(0.000876878 0.000745673 1.90784e-26)
(0.000762147 0.000715396 -2.56782e-25)
(0.000694951 0.000576617 -7.96894e-27)
(0.000429485 -0.000135826 -6.71137e-25)
(0.000448287 -0.000144042 -1.03413e-24)
(0.00048808 -0.000133631 2.13575e-24)
(0.000538433 -0.000118033 1.04421e-24)
(0.000594239 -0.00010157 -3.71195e-24)
(0.000653671 -8.60644e-05 4.01702e-24)
(0.000715682 -7.21511e-05 -1.46096e-24)
(0.000779783 -6.00469e-05 1.13013e-24)
(0.000845757 -4.98158e-05 -1.51386e-24)
(0.000913502 -4.14538e-05 2.16988e-26)
(0.000982965 -3.49204e-05 -7.54372e-25)
(0.00105411 -3.01489e-05 1.49593e-24)
(0.00112691 -2.70482e-05 -8.1383e-25)
(0.0012013 -2.55014e-05 -6.99152e-25)
(0.00127725 -2.53623e-05 -4.42808e-25)
(0.00135467 -2.64548e-05 8.85719e-25)
(0.00143348 -2.85765e-05 -9.69942e-26)
(0.00151357 -3.1518e-05 4.38491e-25)
(0.00159475 -3.50996e-05 5.87595e-26)
(0.00167674 -3.92526e-05 -1.2652e-25)
(0.00175893 -4.41362e-05 -4.75248e-26)
(0.00183995 -5.02872e-05 -2.22164e-26)
(0.00191136 -5.81622e-05 9.53394e-26)
(0.00196503 -6.74334e-05 8.4165e-26)
(0.00200058 -7.73223e-05 -9.97846e-26)
(0.00201953 -8.67047e-05 -3.06965e-25)
(0.0020233 -9.41497e-05 3.5927e-25)
(0.00201332 -9.80938e-05 -1.896e-25)
(0.00199109 -9.69602e-05 5.71673e-26)
(0.00195817 -8.92256e-05 1.79902e-26)
(0.00191611 -7.34339e-05 -2.4889e-25)
(0.00186644 -4.81809e-05 6.13927e-25)
(0.00181066 -1.20983e-05 -6.99428e-25)
(0.00175018 3.61155e-05 1.64166e-24)
(0.00168627 9.75574e-05 -2.18855e-24)
(0.00162 0.000172835 5.52864e-25)
(0.00155213 0.000261627 1.51813e-24)
(0.00148306 0.000362132 -5.39339e-25)
(0.00141298 0.000470493 -9.26713e-25)
(0.00134201 0.000580257 -3.54895e-25)
(0.00127081 0.000681842 7.61434e-25)
(0.00120134 0.000761668 -4.57755e-25)
(0.00113756 0.000800317 2.58216e-25)
(0.00108579 0.000769923 1.67038e-25)
(0.00105765 0.000628494 -2.36967e-25)
(0.000630464 -0.000144973 -7.843e-27)
(0.000638916 -0.000161121 -1.2219e-24)
(0.000661071 -0.000157986 2.40691e-24)
(0.000695596 -0.000145686 2.11844e-24)
(0.000739028 -0.000129861 -3.52436e-24)
(0.000788922 -0.000113601 7.5666e-26)
(0.000843499 -9.83214e-05 3.54202e-25)
(0.000901656 -8.46253e-05 3.80518e-24)
(0.000962734 -7.27559e-05 -4.55891e-24)
(0.00102633 -6.27877e-05 2.74293e-24)
(0.00109219 -5.47119e-05 7.61395e-25)
(0.00116014 -4.84721e-05 -4.4377e-24)
(0.00123005 -4.3978e-05 1.60414e-24)
(0.00130181 -4.11101e-05 6.16331e-25)
(0.0013753 -3.9719e-05 -1.24911e-24)
(0.00145042 -3.96253e-05 2.00122e-24)
(0.00152705 -4.0624e-05 -1.39159e-24)
(0.00160505 -4.25024e-05 -1.42327e-26)
(0.00168421 -4.50728e-05 1.14355e-25)
(0.00176421 -4.8249e-05 1.12979e-25)
(0.00184442 -5.21488e-05 2.01823e-26)
(0.00192346 -5.72349e-05 5.18756e-26)
(0.0019931 -6.39098e-05 -1.03195e-25)
(0.00204542 -7.18343e-05 2.82105e-25)
(0.00208009 -8.02185e-05 -3.80742e-25)
(0.00209867 -8.79312e-05 2.06501e-25)
(0.00210254 -9.35607e-05 -3.04942e-25)
(0.00209319 -9.55783e-05 3.97212e-25)
(0.00207214 -9.24487e-05 -1.54292e-25)
(0.00204096 -8.26938e-05 1.60778e-25)
(0.00200126 -6.49048e-05 2.48423e-25)
(0.00195463 -3.77269e-05 -7.16277e-25)
(0.00190268 1.60147e-07 3.11017e-25)
(0.00184698 5.00206e-05 8.67714e-25)
(0.00178905 0.000112947 -1.88104e-24)
(0.00173032 0.000189606 2.52263e-24)
(0.00167207 0.000279812 -1.52368e-24)
(0.00161547 0.000381961 1.51939e-24)
(0.0015616 0.000492362 -2.53773e-24)
(0.00151181 0.000604507 8.92848e-25)
(0.001468 0.000708228 1.94585e-25)
(0.00143295 0.000788593 -4.36353e-26)
(0.0014096 0.00082462 8.39726e-26)
(0.00139756 0.000789889 -3.11477e-25)
(0.00138676 0.000660087 2.71668e-25)
(0.000849245 -0.000149887 -2.8902e-25)
(0.000852124 -0.000169744 -5.1472e-25)
(0.000862302 -0.000173674 -2.3562e-24)
(0.000883034 -0.000166841 5.79041e-25)
(0.000913639 -0.000154091 4.1499e-25)
(0.00095249 -0.000138992 1.97748e-24)
(0.000997849 -0.000123661 -4.2279e-24)
(0.00104833 -0.000109227 1.68446e-24)
(0.00110295 -9.62582e-05 5.46887e-24)
(0.00116102 -8.50152e-05 -1.51096e-24)
(0.00122207 -7.55928e-05 -1.37137e-24)
(0.00128576 -6.79909e-05 -2.12848e-25)
(0.00135183 -6.215e-05 6.76327e-25)
(0.00142009 -5.79671e-05 -1.31343e-24)
(0.00149036 -5.53018e-05 3.11121e-25)
(0.00156247 -5.39804e-05 -9.67665e-26)
(0.00163627 -5.38009e-05 -5.90177e-25)
(0.00171157 -5.45506e-05 2.49702e-25)
(0.00178815 -5.60361e-05 9.99468e-25)
(0.00186562 -5.81543e-05 -1.32418e-25)
(0.00194335 -6.09797e-05 -2.06398e-25)
(0.00201992 -6.48966e-05 -4.57156e-26)
(0.00208735 -7.02528e-05 -2.04144e-25)
(0.00213798 -7.67023e-05 2.69442e-26)
(0.00217155 -8.34469e-05 -3.22273e-25)
(0.00218958 -8.93517e-05 6.19962e-25)
(0.0021935 -9.3029e-05 -3.51029e-25)