/*--------------------------------*- C++ -*----------------------------------*\
| =========                 |                                                 |
| \\      /  F ield         | OpenFOAM: The Open Source CFD Toolbox           |
|  \\    /   O peration     | Version:  2312                                  |
|   \\  /    A nd           | Website:  www.openfoam.com                      |
|    \\/     M anipulation  |                                                 |
\*---------------------------------------------------------------------------*/
FoamFile
{
    version     2.0;
    format      ascii;
    arch        "LSB;label=32;scalar=64";
    class       volVectorField;
    location    "73";
    object      U;
}
// * * * * * * * * * * * * * * * * * * * * * * * * * * * * * * * * * * * * * //

dimensions      [0 1 -1 0 0 0 0];

internalField   nonuniform List<vector> 
4800
(
(0.00047486 1.98404e-07 -1.90652e-26)
(0.000470862 1.92428e-07 -1.35638e-25)
(0.000469461 1.82225e-07 1.73472e-25)
(0.000469678 1.80046e-07 8.16081e-26)
(0.000470901 1.87646e-07 1.23411e-24)
(0.000472855 1.72695e-07 -2.96388e-24)
(0.000475435 1.23589e-07 2.81308e-24)
(0.000478664 3.06044e-08 -4.15069e-24)
(0.000482637 -1.25119e-07 1.31363e-24)
(0.000487554 -3.86007e-07 4.64069e-24)
(0.000493877 -9.09738e-07 -1.42568e-24)
(0.000502939 -2.36133e-06 -1.11567e-25)
(0.000522319 -7.74762e-06 -1.79002e-24)
(0.000570458 -2.95628e-05 8.57516e-25)
(0.00064875 -9.50831e-05 -6.87318e-25)
(0.00147282 9.99986e-07 -6.04181e-26)
(0.00146043 5.09958e-07 7.53427e-26)
(0.00145561 1.28632e-07 -7.10116e-25)
(0.00145551 -1.8827e-07 5.23573e-25)
(0.00145827 -4.69865e-07 1.74848e-24)
(0.00146322 -7.8842e-07 -2.83634e-24)
(0.00147 -1.20687e-06 -8.51042e-25)
(0.00147858 -1.79139e-06 -2.34098e-25)
(0.00148922 -2.64554e-06 6.92782e-24)
(0.00150248 -4.00552e-06 -5.16105e-24)
(0.00151967 -6.55374e-06 5.61379e-25)
(0.00154362 -1.25799e-05 8.77348e-25)
(0.0015836 -3.00487e-05 -1.31997e-24)
(0.00165028 -8.35197e-05 -4.2413e-25)
(0.00172073 -0.000203594 1.75859e-24)
(0.00257997 3.21086e-06 -4.32824e-26)
(0.00255843 1.68381e-06 4.41834e-26)
(0.00254942 5.30229e-07 4.63943e-25)
(0.00254819 -4.49285e-07 -1.10614e-24)
(0.00255168 -1.37472e-06 1.09895e-24)
(0.00255875 -2.39347e-06 1.08381e-24)
(0.0025689 -3.65567e-06 -2.81018e-24)
(0.00258183 -5.35371e-06 -1.79458e-24)
(0.00259789 -7.78637e-06 4.27292e-24)
(0.00261777 -1.15843e-05 1.65776e-24)
(0.00264293 -1.82709e-05 -5.75474e-24)
(0.00267565 -3.19015e-05 -9.17465e-25)
(0.00272017 -6.22455e-05 2.48456e-24)
(0.00277505 -0.00012943 4.01415e-24)
(0.00281421 -0.000241129 -2.08398e-24)
(0.00380187 7.17237e-06 1.60067e-26)
(0.00377076 3.91849e-06 -1.11917e-25)
(0.00375686 1.47238e-06 5.04695e-25)
(0.00375361 -5.9525e-07 5.4959e-25)
(0.00375698 -2.49597e-06 -5.25073e-25)
(0.00376506 -4.63286e-06 -3.24693e-24)
(0.00377745 -7.22861e-06 -2.30979e-24)
(0.00379336 -1.06205e-05 8.53245e-24)
(0.00381305 -1.53812e-05 3.64376e-24)
(0.003837 -2.25426e-05 -5.16119e-24)
(0.00386605 -3.42237e-05 -2.10927e-24)
(0.00390078 -5.5e-05 -1.64055e-24)
(0.00394044 -9.297e-05 4.19238e-26)
(0.00397768 -0.000158487 1.2286e-24)
(0.00399375 -0.000246527 6.0289e-27)
(0.00514122 1.32221e-05 -2.93696e-26)
(0.00510077 7.46044e-06 -1.80315e-25)
(0.00508169 3.15042e-06 -1.18753e-25)
(0.00507563 -5.06856e-07 3.03887e-25)
(0.00507813 -3.72071e-06 -8.91292e-25)
(0.00508611 -7.3741e-06 2.28912e-24)
(0.00509945 -1.17765e-05 -3.9721e-25)
(0.00511673 -1.73192e-05 1.49405e-24)
(0.00513797 -2.48625e-05 -8.29871e-24)
(0.00516312 -3.5676e-05 1.59253e-23)
(0.00519209 -5.19258e-05 -1.55274e-23)
(0.00522376 -7.73219e-05 8.27955e-24)
(0.00525483 -0.00011668 -7.74639e-24)
(0.00527757 -0.000173164 7.33342e-24)
(0.00528146 -0.000239198 -2.92775e-24)
(0.00659601 2.16699e-05 3.8733e-26)
(0.00654781 1.25805e-05 1.39102e-25)
(0.00652402 5.82046e-06 -7.40248e-25)
(0.00651491 2.34687e-07 -4.86609e-25)
(0.00651605 -5.02424e-06 1.27417e-24)
(0.0065232 -1.03879e-05 4.71876e-25)
(0.00653619 -1.69332e-05 -3.76529e-24)
(0.00655326 -2.49175e-05 9.08183e-24)
(0.006574 -3.53648e-05 -1.19488e-23)
(0.00659779 -4.95429e-05 2.84752e-24)
(0.00662363 -6.91852e-05 8.90674e-24)
(0.00664947 -9.65092e-05 -1.2473e-23)
(0.00667164 -0.000133318 6.2658e-24)
(0.0066845 -0.00017906 6.44109e-24)
(0.00668341 -0.000227536 -4.90637e-24)
(0.00815753 3.25463e-05 3.18497e-26)
(0.00810522 1.93717e-05 -1.88998e-25)
(0.0080786 9.62639e-06 6.84041e-25)
(0.00806748 1.54371e-06 -9.57796e-25)
(0.00806699 -5.80872e-06 -3.34245e-24)
(0.00807329 -1.34355e-05 5.70908e-24)
(0.00808507 -2.22438e-05 -3.54074e-24)
(0.00810074 -3.27374e-05 1.22576e-23)
(0.00811942 -4.58786e-05 -8.32997e-24)
(0.00813999 -6.27056e-05 -3.95813e-24)
(0.00816098 -8.42805e-05 -7.90826e-24)
(0.00818015 -0.000111425 7.27004e-24)
(0.00819464 -0.000144028 2.0575e-24)
(0.00820119 -0.000180246 1.75898e-24)
(0.00819842 -0.000215916 -1.54883e-24)
(0.00980854 4.52398e-05 -4.52803e-26)
(0.00975851 2.74658e-05 6.21251e-25)
(0.0097329 1.43425e-05 -1.45888e-24)
(0.00972218 3.50543e-06 -1.23504e-24)
(0.00972137 -6.2943e-06 4.25168e-25)
(0.00972719 -1.62338e-05 8.90994e-25)
(0.00973783 -2.73332e-05 3.35394e-24)
(0.00975168 -4.01641e-05 -9.29573e-24)
(0.00976757 -5.55053e-05 -5.10602e-24)
(0.00978418 -7.40332e-05 1.38266e-23)
(0.00979994 -9.61487e-05 -4.35531e-24)
(0.00981299 -0.000121732 1.49005e-23)
(0.00982158 -0.00014984 -7.86506e-24)
(0.00982406 -0.000178621 -2.50201e-24)
(0.00982072 -0.000205541 1.48047e-24)
(0.0115234 5.80579e-05 -5.8092e-27)
(0.0114847 3.56663e-05 3.3987e-25)
(0.0114661 1.90833e-05 -4.85928e-25)
(0.0114598 5.46364e-06 1.19727e-24)
(0.0114614 -6.8367e-06 -7.24495e-24)
(0.0114684 -1.90353e-05 7.68456e-24)
(0.011479 -3.22128e-05 -1.24264e-23)
(0.0114916 -4.6954e-05 7.59129e-24)
(0.0115051 -6.37933e-05 5.752e-24)
(0.0115182 -8.30287e-05 1.2687e-23)
(0.0115295 -0.000104574 -1.66065e-23)
(0.011538 -0.000127859 -3.08741e-24)
(0.0115425 -0.000151809 1.4395e-24)
(0.0115426 -0.00017503 1.01638e-23)
(0.0115391 -0.000196074 -4.12633e-24)
(0.0132729 6.79303e-05 2.97453e-26)
(0.0132556 4.16322e-05 -1.37317e-25)
(0.013251 2.19935e-05 6.38392e-25)
(0.0132542 5.88168e-06 -2.2775e-24)
(0.0132621 -8.61365e-06 3.49401e-24)
(0.013273 -2.27554e-05 -4.59255e-24)
(0.0132856 -3.75599e-05 7.79072e-24)
(0.0132986 -5.35705e-05 1.43806e-24)
(0.0133111 -7.10888e-05 -1.09384e-23)
(0.0133221 -9.01195e-05 1.57242e-23)
(0.0133309 -0.000110319 -1.73891e-23)
(0.0133367 -0.000131023 -5.12651e-24)
(0.0133393 -0.000151344 9.06617e-24)
(0.0133385 -0.000170383 2.67781e-24)
(0.0133354 -0.000187361 -1.1674e-24)
(0.0150363 7.08494e-05 9.91663e-26)
(0.0150467 4.20438e-05 -1.02918e-24)
(0.0150615 2.02689e-05 -1.79541e-24)
(0.0150785 2.29423e-06 4.19181e-24)
(0.0150963 -1.37476e-05 1.95452e-24)
(0.015114 -2.91935e-05 -1.22975e-23)
(0.0151309 -4.49339e-05 3.73298e-24)
(0.0151464 -6.14139e-05 2.73442e-24)
(0.0151599 -7.87578e-05 -1.22093e-23)
(0.015171 -9.68071e-05 1.26772e-23)
(0.0151794 -0.000115153 -1.02178e-23)
(0.0151847 -0.000133233 2.62582e-23)
(0.0151873 -0.000150424 -1.26049e-23)
(0.015187 -0.000166207 7.40261e-24)
(0.0151852 -0.000180191 -2.01358e-24)
(0.0168154 6.37484e-05 -1.25514e-26)
(0.0168516 3.39103e-05 6.42876e-25)
(0.0168855 1.10786e-05 -1.36887e-24)
(0.0169168 -7.84404e-06 -7.57118e-25)
(0.0169453 -2.46411e-05 8.35939e-24)
(0.0169708 -4.05872e-05 -1.12703e-24)
(0.0169933 -5.64416e-05 -1.52397e-23)
(0.0170127 -7.25461e-05 1.79516e-23)
(0.0170288 -8.89253e-05 -4.02274e-24)
(0.0170416 -0.00010538 -1.41183e-23)
(0.0170513 -0.000121556 1.50893e-23)
(0.0170579 -0.000137054 8.10212e-24)
(0.017062 -0.000151491 -6.887e-24)
(0.0170635 -0.000164594 -1.18047e-23)
(0.0170638 -0.000176194 9.86041e-25)
(0.0186374 4.71181e-05 -2.60216e-26)
(0.0186881 1.68967e-05 -6.58986e-25)
(0.0187336 -6.33057e-06 3.56942e-24)
(0.0187741 -2.55001e-05 3.72219e-25)
(0.0188098 -4.24145e-05 2.32721e-24)
(0.0188409 -5.81755e-05 -7.99123e-24)
(0.0188675 -7.3438e-05 7.00202e-24)
(0.01889 -8.84812e-05 1.6608e-24)
(0.0189085 -0.000103314 1.46403e-23)
(0.0189233 -0.000117784 -2.25727e-23)
(0.0189348 -0.000131649 -1.02359e-23)
(0.0189432 -0.000144666 -6.72676e-24)
(0.0189493 -0.000156627 1.27238e-23)
(0.0189529 -0.000167413 -3.56791e-25)
(0.0189554 -0.00017697 1.22123e-24)
(0.0205301 2.52545e-05 -2.66914e-26)
(0.0205814 -5.57799e-06 5.82956e-25)
(0.0206277 -2.92134e-05 -8.70353e-25)
(0.020669 -4.85324e-05 -1.86539e-26)
(0.0207054 -6.52856e-05 1.54029e-24)
(0.020737 -8.05273e-05 4.06422e-24)
(0.020764 -9.48406e-05 -1.57831e-23)
(0.0207866 -0.000108493 1.26506e-24)
(0.0208054 -0.000121544 8.13111e-24)
(0.0208205 -0.000133939 -3.77175e-24)
(0.0208326 -0.000145561 1.02982e-23)
(0.0208418 -0.0001563 7.16672e-24)
(0.020849 -0.000166066 -1.30348e-23)
(0.020854 -0.000174828 8.83236e-24)
(0.020858 -0.000182591 -7.33904e-24)
(0.0224842 2.83325e-06 -6.47331e-25)
(0.0225281 -2.88378e-05 7.02996e-25)
(0.022568 -5.30582e-05 9.32894e-25)
(0.0226036 -7.26072e-05 -6.24806e-24)
(0.0226351 -8.92046e-05 5.6212e-24)
(0.0226625 -0.000103868 -4.51077e-24)
(0.0226859 -0.000117174 3.18627e-24)
(0.0227056 -0.000129431 -2.36169e-23)
(0.022722 -0.000140777 3.41003e-23)
(0.0227353 -0.000151264 -2.02167e-23)
(0.022746 -0.000160884 1.80789e-23)
(0.0227544 -0.000169633 1.50433e-23)
(0.0227612 -0.000177509 -2.62813e-23)
(0.0227661 -0.000184536 8.52266e-24)
(0.0227701 -0.000190743 -3.55851e-25)
(0.024439 -1.81132e-05 -2.13746e-26)
(0.0244743 -5.02334e-05 6.43915e-25)
(0.024506 -7.48291e-05 -7.36832e-25)
(0.0245341 -9.4482e-05 -1.67299e-25)
(0.0245588 -0.000110813 2.17241e-24)
(0.0245802 -0.00012481 -3.87714e-24)
(0.0245984 -0.000137092 3.78242e-24)
(0.0246137 -0.000148026 -1.23451e-23)
(0.0246263 -0.000157837 2.83617e-23)
(0.0246366 -0.000166664 -3.65479e-23)
(0.0246448 -0.000174574 3.00326e-23)
(0.0246512 -0.000181622 -1.01571e-23)
(0.0246563 -0.000187866 5.16447e-25)
(0.02466 -0.000193373 2.28309e-24)
(0.0246631 -0.000198196 -4.41043e-24)
(0.0262945 -3.77109e-05 -1.71849e-24)
(0.0263232 -6.94865e-05 3.94306e-24)
(0.0263481 -9.39105e-05 -2.32334e-24)
(0.0263697 -0.000113237 -2.80613e-25)
(0.0263885 -0.000128971 2.58004e-24)
(0.0264044 -0.000142093 -2.92289e-24)
(0.0264178 -0.000153266 -3.1888e-24)
(0.0264289 -0.000162876 -8.04521e-24)
(0.0264379 -0.000171231 3.83951e-24)
(0.0264451 -0.000178549 1.97386e-23)
(0.0264508 -0.000184946 -1.04949e-23)
(0.0264551 -0.000190512 6.29898e-24)
(0.0264583 -0.000195335 -2.60581e-24)
(0.0264605 -0.000199481 -7.65537e-24)
(0.0264621 -0.000203 3.91088e-24)
(0.0279249 -5.68909e-05 5.58513e-25)
(0.0279489 -8.74132e-05 -1.05262e-24)
(0.027969 -0.000110952 -1.5625e-24)
(0.0279858 -0.000129406 3.13095e-24)
(0.028 -0.000144129 -1.55356e-24)
(0.0280118 -0.000156074 2.80469e-24)
(0.0280215 -0.000165999 -2.96143e-24)
(0.0280293 -0.000174202 -2.55142e-24)
(0.0280355 -0.000181085 2.21394e-24)
(0.0280401 -0.000186917 -2.95984e-24)
(0.0280437 -0.000191835 6.84356e-24)
(0.0280461 -0.000195931 3.57408e-24)
(0.0280478 -0.000199392 -1.32943e-23)
(0.0280486 -0.00020228 9.21118e-24)
(0.028049 -0.000204562 -1.88028e-24)
(0.0291727 -7.69473e-05 1.64948e-24)
(0.0291928 -0.000105332 3.30039e-24)
(0.0292088 -0.000127191 -7.12845e-24)
(0.0292215 -0.000144156 -1.9606e-24)
(0.0292317 -0.000157378 4.05236e-24)
(0.0292397 -0.000167823 1.9337e-25)
(0.0292459 -0.000176194 -2.18405e-24)
(0.0292506 -0.000182859 2.29633e-24)
(0.0292539 -0.000188132 4.93482e-24)
(0.029256 -0.000192426 -1.23095e-23)
(0.0292571 -0.000195853 7.48609e-24)
(0.0292575 -0.000198293 -5.47382e-25)
(0.029257 -0.000200406 -4.69684e-25)
(0.0292557 -0.000201762 6.406e-25)
(0.0292546 -0.000202532 -3.06491e-25)
(0.0298246 -9.4441e-05 -4.3581e-24)
(0.0298365 -0.000119447 -1.00485e-23)
(0.0298451 -0.00013866 4.44864e-24)
(0.0298509 -0.000153409 1.98923e-23)
(0.029855 -0.00016469 -5.79661e-24)
(0.0298577 -0.000173377 -2.89838e-24)
(0.0298592 -0.000180034 1.76782e-24)
(0.0298596 -0.000185076 1.33531e-24)
(0.0298592 -0.000188826 -2.74374e-25)
(0.0298581 -0.000191563 -3.73745e-25)
(0.0298564 -0.000193431 1.59108e-24)
(0.0298542 -0.000194576 -2.08347e-24)
(0.0298517 -0.000195027 -2.95861e-24)
(0.0298488 -0.000194887 4.57657e-24)
(0.0298454 -0.000194304 -2.05332e-24)
(0.0296587 -0.000108114 6.94319e-24)
(0.0296673 -0.000128972 -1.60476e-23)
(0.0296727 -0.000144969 2.53337e-24)
(0.0296758 -0.000157079 2.4101e-23)
(0.0296771 -0.000166183 -2.37567e-23)
(0.0296772 -0.000172959 8.69184e-24)
(0.0296762 -0.000177895 6.9665e-24)
(0.0296744 -0.000181381 -1.60847e-23)
(0.0296718 -0.000183694 1.6129e-24)
(0.0296687 -0.000185034 3.94874e-24)
(0.029665 -0.000185549 2.51929e-25)
(0.0296608 -0.000185374 7.82704e-25)
(0.0296562 -0.00018463 -1.20701e-24)
(0.0296513 -0.000183378 9.86147e-25)
(0.0296461 -0.000181622 -4.83539e-25)
(0.0286809 -0.000116401 4.3145e-24)
(0.0286841 -0.00013345 -9.07069e-24)
(0.0286848 -0.000146462 -6.13954e-24)
(0.0286836 -0.000156184 2.88872e-23)
(0.0286812 -0.000163283 -2.6376e-23)
(0.0286777 -0.000168322 2.8398e-24)
(0.0286734 -0.000171736 4.36279e-24)
(0.0286684 -0.000173846 2.33032e-24)
(0.0286629 -0.000174891 1.84117e-24)
(0.028657 -0.000175052 -8.56567e-24)
(0.0286506 -0.000174439 5.47578e-24)
(0.0286441 -0.000173129 6.87229e-25)
(0.0286372 -0.000171181 -1.03984e-24)
(0.0286303 -0.000168647 6.18868e-25)
(0.0286231 -0.000165581 4.83787e-25)
(0.0271524 -0.000118284 1.0738e-23)
(0.0271508 -0.000132035 -1.89458e-23)
(0.027147 -0.000142393 3.90165e-24)
(0.0271417 -0.00014995 -8.64242e-24)
(0.0271354 -0.000155259 -1.06851e-23)
(0.0271284 -0.000158799 3.70468e-23)
(0.0271207 -0.000160937 -1.39662e-23)
(0.0271126 -0.000161923 3.73152e-24)
(0.0271041 -0.000161931 -1.97558e-24)
(0.0270954 -0.000161083 -4.06607e-24)
(0.0270865 -0.000159472 7.11002e-24)
(0.0270775 -0.000157179 -3.04434e-24)
(0.0270682 -0.000154281 5.51865e-25)
(0.027059 -0.000150848 -1.28742e-25)
(0.0270495 -0.00014693 7.2256e-26)
(0.0252779 -0.00011529 4.13657e-24)
(0.025271 -0.000126017 -2.10038e-23)
(0.0252622 -0.000134047 3.57967e-23)
(0.0252525 -0.000139779 -2.6766e-23)
(0.025242 -0.00014363 2.56007e-23)
(0.0252312 -0.000145966 -8.79015e-24)
(0.0252199 -0.000147064 -5.79526e-24)
(0.0252084 -0.000147111 -5.75458e-24)
(0.0251967 -0.000146247 9.00083e-24)
(0.0251849 -0.000144593 -1.17468e-24)
(0.025173 -0.000142248 -7.50203e-24)
(0.0251612 -0.000139294 -4.43404e-25)
(0.0251493 -0.000135789 8.76687e-25)
(0.0251375 -0.00013178 -1.99786e-26)
(0.0251256 -0.000127301 -3.46557e-26)
(0.0232044 -0.000107324 5.50617e-25)
(0.0231918 -0.000115514 -7.86304e-24)
(0.0231778 -0.000121609 -4.05185e-24)
(0.0231634 -0.000125851 3.41681e-23)
(0.0231485 -0.000128536 -3.28477e-23)
(0.0231335 -0.000129923 9.41161e-24)
(0.0231184 -0.000130215 1.49737e-24)
(0.0231033 -0.000129568 -7.3335e-25)
(0.0230884 -0.000128114 -3.05737e-24)
(0.0230735 -0.000125965 1.23563e-23)
(0.0230589 -0.000123205 -9.47099e-24)
(0.0230445 -0.000119895 -1.58296e-25)
(0.0230302 -0.000116078 5.63413e-25)
(0.0230163 -0.000111791 -4.40302e-26)
(0.0230026 -0.000107068 9.50042e-26)
(0.0210366 -9.54067e-05 8.19808e-25)
(0.021019 -0.000101555 7.26651e-24)
(0.0210007 -0.000106018 -8.37293e-24)
(0.0209823 -0.000109035 -5.45304e-24)
(0.0209638 -0.000110835 3.35979e-23)
(0.0209455 -0.000111586 -2.57039e-23)
(0.0209274 -0.000111426 -7.12284e-25)
(0.0209097 -0.00011047 -4.71129e-24)
(0.0208923 -0.000108822 -2.07646e-25)
(0.0208754 -0.000106563 7.33449e-25)
(0.0208588 -0.000103757 -1.55666e-24)
(0.0208428 -0.000100453 1.72236e-24)
(0.0208272 -9.66895e-05 6.71169e-25)
(0.0208122 -9.25029e-05 4.36768e-25)
(0.0207976 -8.7925e-05 -1.64934e-26)
(0.0188563 -8.10244e-05 5.84644e-24)
(0.0188355 -8.56639e-05 -8.8946e-24)
(0.0188145 -8.90406e-05 -6.73095e-24)
(0.0187937 -9.13294e-05 2.04361e-23)
(0.0187733 -9.2658e-05 -7.33718e-24)
(0.0187532 -9.31311e-05 -9.52291e-24)
(0.0187337 -9.28454e-05 3.41034e-24)
(0.0187147 -9.18894e-05 6.72812e-24)
(0.0186963 -9.034e-05 -9.99762e-24)
(0.0186785 -8.82606e-05 9.26451e-24)
(0.0186614 -8.5701e-05 -4.46276e-24)
(0.018645 -8.27016e-05 1.60562e-24)
(0.0186293 -7.92964e-05 -1.30997e-24)
(0.0186143 -7.5517e-05 9.09479e-25)
(0.0186 -7.13911e-05 -4.34247e-26)
(0.016727 -6.63149e-05 -1.13576e-24)
(0.0167051 -6.99994e-05 -3.81167e-24)
(0.0166833 -7.27173e-05 -1.17552e-23)
(0.016662 -7.45957e-05 3.27493e-23)
(0.0166412 -7.57131e-05 -6.11659e-24)
(0.0166209 -7.61404e-05 -8.79885e-24)
(0.0166013 -7.59447e-05 2.72903e-24)
(0.0165823 -7.51901e-05 -4.01463e-24)
(0.016564 -7.39343e-05 -7.63048e-24)
(0.0165466 -7.22258e-05 7.41562e-24)
(0.0165298 -7.01023e-05 3.49074e-25)
(0.0165139 -6.75946e-05 -1.49351e-24)
(0.0164989 -6.47283e-05 1.73876e-24)
(0.0164847 -6.15291e-05 8.50901e-27)
(0.0164713 -5.80203e-05 -2.7255e-26)
(0.0146933 -5.28377e-05 4.3759e-24)
(0.0146719 -5.58678e-05 6.16533e-24)
(0.0146508 -5.81558e-05 -5.99945e-24)
(0.0146302 -5.98129e-05 -1.2225e-23)
(0.0146101 -6.08761e-05 1.5927e-23)
(0.0145905 -6.13833e-05 -1.68577e-23)
(0.0145716 -6.13793e-05 -2.55782e-25)
(0.0145534 -6.09118e-05 6.23141e-24)
(0.0145358 -6.00252e-05 2.02499e-24)
(0.0145191 -5.87552e-05 -3.55099e-24)
(0.0145032 -5.71282e-05 4.31306e-25)
(0.0144881 -5.51655e-05 5.9278e-24)
(0.0144739 -5.28855e-05 -2.20272e-24)
(0.0144606 -5.03097e-05 -3.83922e-25)
(0.0144482 -4.74583e-05 -8.9176e-27)
(0.0127815 -4.1229e-05 -4.55172e-24)
(0.0127615 -4.37611e-05 5.83286e-24)
(0.0127419 -4.57479e-05 5.96697e-25)
(0.0127225 -4.72686e-05 1.08909e-23)
(0.0127035 -4.83212e-05 -9.05472e-24)
(0.012685 -4.89245e-05 5.12929e-25)
(0.012667 -4.9112e-05 -1.0521e-24)
(0.0126497 -4.89203e-05 -2.55734e-24)
(0.012633 -4.83822e-05 1.87431e-24)
(0.012617 -4.75224e-05 -6.01089e-24)
(0.0126017 -4.63583e-05 6.8727e-25)
(0.0125873 -4.49037e-05 1.40824e-24)
(0.0125738 -4.31719e-05 7.3175e-25)
(0.0125611 -4.11807e-05 2.21451e-25)
(0.0125493 -3.89472e-05 2.99611e-26)
(0.0110032 -3.15637e-05 3.37637e-24)
(0.010985 -3.3676e-05 -2.69045e-24)
(0.0109669 -3.54071e-05 -1.12013e-23)
(0.0109489 -3.67919e-05 1.05022e-23)
(0.0109311 -3.78063e-05 1.38039e-23)
(0.0109137 -3.84632e-05 -3.87527e-24)
(0.0108966 -3.87883e-05 -7.01649e-24)
(0.01088 -3.88087e-05 -8.94987e-24)
(0.0108639 -3.85477e-05 6.57853e-24)
(0.0108484 -3.80217e-05 2.75039e-25)
(0.0108337 -3.72412e-05 -1.27135e-24)
(0.0108196 -3.62143e-05 -2.39273e-25)
(0.0108063 -3.49507e-05 5.17963e-25)
(0.0107938 -3.34646e-05 -5.46071e-26)
(0.0107822 -3.17701e-05 -3.92629e-26)
(0.00936039 -2.36485e-05 -2.12805e-24)
(0.00934393 -2.53771e-05 -1.433e-24)
(0.00932738 -2.6854e-05 1.85249e-24)
(0.00931074 -2.80702e-05 -5.38077e-24)
(0.00929411 -2.89977e-05 1.75103e-23)
(0.00927761 -2.9648e-05 -2.24767e-23)
(0.00926133 -3.00405e-05 2.13248e-23)
(0.00924536 -3.01941e-05 -8.83232e-24)
(0.00922979 -3.0125e-05 1.78682e-24)
(0.00921469 -2.98433e-05 -1.25746e-25)
(0.00920012 -2.93547e-05 -1.36068e-24)
(0.00918618 -2.86635e-05 2.58977e-25)
(0.0091729 -2.77765e-05 -7.7593e-25)
(0.00916038 -2.67047e-05 -5.84468e-26)
(0.00914865 -2.54588e-05 2.01272e-26)
(0.00784963 -1.72289e-05 -1.03553e-24)
(0.00783489 -1.86002e-05 2.82819e-25)
(0.00781986 -1.98137e-05 5.69866e-25)
(0.00780454 -2.08294e-05 -2.48152e-24)
(0.00778906 -2.16268e-05 -1.00584e-24)
(0.00777353 -2.22168e-05 9.23235e-24)
(0.00775807 -2.26128e-05 -5.35735e-24)
(0.00774276 -2.28279e-05 6.9553e-25)
(0.00772769 -2.28727e-05 -6.88305e-25)
(0.00771296 -2.27531e-05 -6.51421e-25)
(0.00769864 -2.24715e-05 -1.18644e-25)
(0.00768481 -2.20298e-05 1.0314e-24)
(0.00767155 -2.14328e-05 9.06854e-26)
(0.00765894 -2.06881e-05 -4.61802e-25)
(0.00764703 -1.98038e-05 -3.56432e-26)
(0.00646473 -1.20865e-05 -3.77113e-25)
(0.00645173 -1.3131e-05 -1.13856e-25)
(0.00643825 -1.40787e-05 -5.79623e-24)
(0.00642435 -1.48775e-05 1.66554e-24)
(0.00641014 -1.55189e-05 -3.8076e-24)
(0.00639575 -1.60117e-05 2.96338e-24)
(0.00638128 -1.63647e-05 5.08561e-24)
(0.00636683 -1.65866e-05 3.50672e-24)
(0.00635249 -1.66842e-05 -4.75746e-24)
(0.00633836 -1.66603e-05 1.42454e-24)
(0.00632451 -1.65157e-05 1.03828e-24)
(0.00631104 -1.62508e-05 -1.29429e-24)
(0.00629802 -1.58687e-05 6.76034e-25)
(0.00628555 -1.53741e-05 1.96947e-26)
(0.00627368 -1.47725e-05 6.96136e-26)
(0.00519835 -8.05282e-06 -1.47915e-24)
(0.00518715 -8.80772e-06 -1.95219e-24)
(0.00517537 -9.5006e-06 -2.70321e-25)
(0.00516306 -1.00857e-05 4.79383e-24)
(0.00515036 -1.05643e-05 -3.25477e-24)
(0.00513738 -1.09425e-05 -5.29251e-25)
(0.00512421 -1.12256e-05 4.93568e-24)
(0.00511097 -1.14192e-05 -8.50881e-26)
(0.00509772 -1.15271e-05 -9.9473e-25)
(0.00508458 -1.15505e-05 -3.06528e-24)
(0.00507161 -1.14894e-05 4.93538e-25)
(0.0050589 -1.13433e-05 1.8126e-24)
(0.00504655 -1.11141e-05 -2.22775e-25)
(0.00503463 -1.08042e-05 -1.2085e-25)
(0.00502321 -1.0417e-05 6.27767e-26)
(0.00404276 -4.99083e-06 -3.2377e-25)
(0.00403347 -5.5e-06 2.56362e-26)
(0.00402355 -5.96489e-06 2.32412e-24)
(0.00401308 -6.35718e-06 1.45806e-24)
(0.00400217 -6.68326e-06 -1.11349e-24)
(0.00399094 -6.94676e-06 -2.49761e-24)
(0.00397946 -7.15053e-06 9.43417e-25)
(0.00396783 -7.29758e-06 -3.80921e-24)
(0.00395614 -7.39006e-06 2.90547e-24)
(0.00394445 -7.42833e-06 1.30817e-24)
(0.00393285 -7.4119e-06 -1.27097e-25)
(0.00392142 -7.34017e-06 -1.26814e-24)
(0.00391024 -7.21394e-06 1.84153e-25)
(0.00389939 -7.03427e-06 -9.22679e-26)
(0.00388893 -6.80274e-06 3.281e-26)
(0.00299027 -2.77619e-06 -5.97097e-25)
(0.00298299 -3.09152e-06 2.44942e-26)
(0.00297509 -3.37062e-06 1.87511e-24)
(0.00296669 -3.60521e-06 -1.16738e-24)
(0.00295787 -3.80256e-06 4.52607e-24)
(0.00294871 -3.96447e-06 -8.13404e-24)
(0.00293931 -4.09231e-06 6.38086e-24)
(0.00292971 -4.18761e-06 -5.10531e-24)
(0.00292001 -4.25148e-06 3.49126e-24)
(0.00291026 -4.28401e-06 -2.09843e-24)
(0.00290054 -4.28479e-06 6.98968e-25)
(0.00289091 -4.25325e-06 9.07039e-26)
(0.00288144 -4.18978e-06 9.68669e-26)
(0.0028722 -4.09472e-06 -1.07981e-25)
(0.00286325 -3.96847e-06 1.3669e-26)
(0.00203339 -1.28755e-06 9.07566e-25)
(0.00202816 -1.45991e-06 9.4176e-25)
(0.00202242 -1.60302e-06 -4.05521e-24)
(0.00201628 -1.72216e-06 2.91573e-24)
(0.00200978 -1.82229e-06 -4.80821e-26)
(0.00200299 -1.90417e-06 6.68408e-25)
(0.00199598 -1.96863e-06 -8.6415e-25)
(0.0019888 -2.0166e-06 -1.64143e-24)
(0.00198149 -2.04891e-06 1.58136e-24)
(0.00197411 -2.06583e-06 1.17016e-25)
(0.00196672 -2.06742e-06 -1.06648e-24)
(0.00195937 -2.05351e-06 3.86755e-25)
(0.0019521 -2.02442e-06 1.77144e-25)
(0.00194499 -1.97996e-06 -2.43941e-26)
(0.00193807 -1.91929e-06 -9.21344e-27)
(0.0011649 -4.03522e-07 -9.17419e-25)
(0.00116174 -4.48516e-07 2.76669e-24)
(0.00115824 -4.86505e-07 1.55885e-24)
(0.00115447 -5.21289e-07 -2.8964e-24)
(0.00115046 -5.52444e-07 -3.3472e-25)
(0.00114625 -5.7926e-07 -2.81298e-25)
(0.00114188 -6.01729e-07 8.09732e-25)
(0.00113738 -6.20162e-07 -1.33025e-24)
(0.00113279 -6.3496e-07 1.69902e-24)
(0.00112814 -6.46361e-07 -8.33887e-25)
(0.00112346 -6.54504e-07 -4.6782e-25)
(0.00111878 -6.59357e-07 2.60483e-25)
(0.00111414 -6.6103e-07 -2.22879e-25)
(0.00110958 -6.5757e-07 1.97097e-25)
(0.00110512 -6.45702e-07 -1.99204e-26)
(0.000377981 -4.59592e-09 -6.58848e-27)
(0.000376835 9.1507e-08 5.37414e-25)
(0.00037557 1.5802e-07 5.88977e-25)
(0.000374211 1.98469e-07 -9.47081e-25)
(0.000372771 2.17958e-07 1.84568e-24)
(0.000371258 2.20537e-07 -2.00762e-24)
(0.000369686 2.09473e-07 1.21864e-25)
(0.000368066 1.87548e-07 9.73622e-25)
(0.000366407 1.5716e-07 -1.34052e-24)
(0.000364722 1.20439e-07 -1.97549e-25)
(0.000363022 7.92676e-08 7.79941e-25)
(0.000361319 3.53459e-08 -3.28943e-25)
(0.000359624 -9.86009e-09 -8.5158e-26)
(0.000357951 -5.36967e-08 6.59323e-26)
(0.000356312 -9.29696e-08 -1.64675e-27)
(0.000960375 -0.000240654 6.83346e-26)
(0.00110334 -0.000150007 1.64669e-24)
(0.00134445 -6.01853e-05 -4.58644e-24)
(0.00159176 9.88609e-06 6.37687e-24)
(0.00183027 6.20899e-05 -2.38628e-24)
(0.00206459 9.72688e-05 -2.10433e-24)
(0.00229414 0.000118113 2.30929e-24)
(0.00251898 0.000126901 -4.36797e-24)
(0.00273945 0.000125619 3.65263e-25)
(0.00295585 0.000116082 2.63167e-24)
(0.00316855 9.98853e-05 -4.75749e-25)
(0.00337792 7.84695e-05 4.90117e-25)
(0.0035844 5.31832e-05 -5.98041e-26)
(0.00378835 2.5407e-05 2.34776e-25)
(0.00399037 -3.22443e-06 -8.39996e-25)
(0.00419111 -3.07045e-05 4.33539e-25)
(0.00439209 -5.44384e-05 -7.34513e-26)
(0.00459532 -7.10167e-05 3.57311e-26)
(0.00480497 -7.68274e-05 3.72514e-26)
(0.00502617 -6.80164e-05 -6.39459e-27)
(0.00526697 -4.2944e-05 -3.77084e-27)
(0.00553385 -2.98189e-06 2.87662e-27)
(0.0058082 3.98391e-05 5.99627e-27)
(0.00605497 7.0446e-05 6.54773e-26)
(0.00625992 8.40603e-05 -1.13538e-25)
(0.00642197 8.03656e-05 -1.29872e-25)
(0.00654293 6.01811e-05 -1.33054e-26)
(0.0066254 2.45567e-05 3.32119e-25)
(0.00667096 -2.5518e-05 3.86086e-25)
(0.00668004 -8.85606e-05 -7.03127e-25)
(0.00665204 -0.000161687 4.52748e-26)
(0.00658584 -0.000240315 4.68232e-25)
(0.00648044 -0.000318195 -3.79415e-25)
(0.00633544 -0.000387674 -1.54471e-24)
(0.00615124 -0.000439986 1.51573e-24)
(0.00592902 -0.000465482 7.86113e-24)
(0.00567059 -0.000453573 -2.39046e-24)
(0.00537826 -0.000392083 1.76274e-24)
(0.00505499 -0.00026577 8.88675e-25)
(0.00470506 -5.43495e-05 -1.07981e-23)
(0.00433359 0.000266276 -1.30458e-25)
(0.00394773 0.000712831 4.45059e-24)
(0.0035385 0.00125652 1.35484e-24)
(0.0031256 0.00177139 -6.18719e-24)
(0.00289552 0.00187498 -3.00163e-25)
(0.00181743 -0.000326746 -1.95305e-24)
(0.00187847 -0.000274319 -2.55746e-24)
(0.00202969 -0.00018817 5.46807e-24)
(0.00221913 -0.000110684 2.3023e-24)
(0.00242085 -4.75774e-05 -8.01181e-24)
(0.00262938 -1.09262e-06 8.24184e-24)
(0.00283985 3.03074e-05 -2.91315e-24)
(0.00304979 4.86675e-05 2.12542e-24)
(0.00325805 5.59614e-05 -2.82007e-24)
(0.00346406 5.40756e-05 4.2246e-26)
(0.00366756 4.46937e-05 -1.33613e-24)
(0.00386853 2.93479e-05 2.60832e-24)
(0.00406704 9.47997e-06 -1.37458e-24)
(0.00426322 -1.34629e-05 -1.024e-24)
(0.0044574 -3.77747e-05 -4.3203e-25)
(0.00464996 -6.14489e-05 1.21449e-24)
(0.00484213 -8.19067e-05 -4.97406e-27)
(0.00503555 -9.58145e-05 2.69844e-25)
(0.00523394 -9.96531e-05 -4.58143e-26)
(0.0054419 -8.96601e-05 -1.96205e-26)
(0.00566706 -6.41589e-05 1.03388e-26)
(0.00591573 -2.42102e-05 2.13353e-27)
(0.00617167 1.87541e-05 2.44168e-26)
(0.00640324 5.0347e-05 1.30571e-25)
(0.00659711 6.59571e-05 -4.17291e-26)
(0.00675188 6.51151e-05 -6.82513e-25)
(0.00686876 4.85304e-05 9.97528e-25)
(0.00694973 1.73209e-05 -7.321e-25)
(0.00699591 -2.73183e-05 2.53782e-25)
(0.00700748 -8.36928e-05 -5.07087e-26)
(0.00698381 -0.000148721 -1.03843e-25)
(0.00692395 -0.000217716 1.3231e-24)
(0.00682721 -0.000284426 -2.51682e-24)
(0.0066936 -0.000341301 8.50635e-24)
(0.00652418 -0.000379724 -1.27931e-23)
(0.00632099 -0.000390225 3.34526e-24)
(0.00608713 -0.00036243 1.34547e-23)
(0.0058269 -0.000284547 -3.86306e-24)
(0.00554636 -0.000142172 -1.04786e-23)
(0.005255 8.34672e-05 -6.15649e-24)
(0.00496752 0.000414724 1.40357e-23)
(0.00470876 0.000867899 -1.33486e-23)
(0.00450513 0.00141451 -2.69604e-24)
(0.00439898 0.00191842 8.64294e-24)
(0.00443109 0.00196124 2.56467e-24)
(0.00283258 -0.000336833 -2.18127e-26)
(0.00284381 -0.000328257 -2.98326e-24)
(0.00291066 -0.000276488 5.69735e-24)
(0.00303189 -0.000210077 4.39734e-24)
(0.00318158 -0.000147428 -7.31925e-24)
(0.00335012 -9.59463e-05 1.67224e-25)
(0.00352951 -5.73638e-05 6.47392e-25)
(0.00371461 -3.12044e-05 6.58431e-24)
(0.00390244 -1.62149e-05 -7.74701e-24)
(0.00409115 -1.08223e-05 4.52847e-24)
(0.00427956 -1.34714e-05 1.18137e-24)
(0.004467 -2.26586e-05 -6.95217e-24)
(0.00465305 -3.69249e-05 2.48565e-24)
(0.0048374 -5.47733e-05 8.63758e-25)
(0.00502007 -7.45328e-05 -1.49229e-24)
(0.00520107 -9.41438e-05 2.07191e-24)
(0.00538127 -0.000111079 -1.18006e-24)
(0.00556186 -0.000122095 1.10236e-25)
(0.00574606 -0.000123776 1.09205e-25)
(0.00593785 -0.000112462 2.56754e-26)
(0.00614435 -8.64488e-05 8.73919e-28)
(0.0063716 -4.649e-05 -1.57725e-26)
(0.00660591 -3.4246e-06 -3.26265e-26)
(0.00681932 2.90758e-05 1.66006e-25)
(0.00699963 4.66086e-05 -4.32889e-25)
(0.00714505 4.85744e-05 2.81397e-25)
(0.00725618 3.5576e-05 -8.98164e-25)
(0.00733436 8.80231e-06 1.20214e-24)
(0.00738023 -3.03477e-05 -9.5464e-25)
(0.00739367 -7.99561e-05 3.99027e-25)
(0.00737405 -0.000136768 8.25791e-25)
(0.00732059 -0.000195997 -1.52554e-24)
(0.0072329 -0.000251415 7.87051e-25)
(0.00711148 -0.000295631 4.34723e-24)
(0.00695805 -0.000320292 -1.09713e-23)
(0.00677558 -0.00031631 1.76025e-23)
(0.00656852 -0.000273894 -1.17822e-23)
(0.00634312 -0.000182271 1.66252e-23)
(0.0061084 -2.90045e-05 -3.16015e-23)
(0.00587813 0.000200599 1.20053e-23)
(0.00567363 0.000522405 4.11285e-24)
(0.00552822 0.000943704 6.25588e-24)
(0.00547881 0.00142893 -7.76167e-24)
(0.00555015 0.00184528 2.02584e-24)
(0.00570795 0.00186405 -1.18703e-24)
(0.00398459 -0.000321554 -8.04259e-25)
(0.00396895 -0.00033997 -1.1702e-24)
(0.00398317 -0.000319859 -4.86231e-24)
(0.00403883 -0.000277657 1.54209e-24)
(0.00413168 -0.000226452 1.00708e-24)
(0.00425106 -0.000178261 3.59383e-24)
(0.00438918 -0.00013806 -7.0081e-24)
(0.00453973 -0.000107685 2.79173e-24)
(0.00469833 -8.7242e-05 8.42069e-24)
(0.00486189 -7.59335e-05 -2.30117e-24)
(0.00502827 -7.26421e-05 -2.0089e-24)
(0.00519599 -7.60866e-05 -2.99339e-25)
(0.005364 -8.49244e-05 8.81304e-25)
(0.0055315 -9.77025e-05 -1.60902e-24)
(0.00569804 -0.000112801 4.19778e-25)
(0.00586322 -0.000128187 -1.14819e-26)
(0.0060275 -0.000141407 -2.36725e-25)
(0.00619152 -0.000149331 3.17206e-25)
(0.00635796 -0.000148674 1.73051e-25)
(0.00653008 -0.000135901 -5.32069e-26)
(0.00671442 -0.0001093 3.82822e-26)
(0.00691663 -6.93322e-05 7.40434e-27)
(0.00712565 -2.62542e-05 -5.58295e-26)
(0.0073176 7.02123e-06 -9.89098e-26)
(0.00748143 2.63523e-05 -5.09742e-25)
(0.00761505 3.10379e-05 7.23032e-25)
(0.00771838 2.15775e-05 -8.59641e-25)
(0.00779213 -7.64316e-07 1.63924e-24)
(0.00783642 -3.43841e-05 -1.29102e-24)
(0.00785084 -7.7159e-05 4.35904e-25)
(0.00783473 -0.000125688 1.80992e-25)
(0.00778748 -0.000175127 -1.6617e-25)
(0.00770903 -0.000219329 -2.38783e-25)
(0.00760039 -0.000251173 -1.23109e-24)
(0.00746391 -0.000262738 1.80873e-24)
(0.00730349 -0.000245588 -5.27477e-24)
(0.00712478 -0.000190941 2.41519e-23)
(0.00693573 -8.96974e-05 -1.28727e-23)
(0.00674736 6.75775e-05 -5.50196e-25)