/*--------------------------------*- C++ -*----------------------------------*\
| =========                 |                                                 |
| \\      /  F ield         | OpenFOAM: The Open Source CFD Toolbox           |
|  \\    /   O peration     | Version:  2312                                  |
|   \\  /    A nd           | Website:  www.openfoam.com                      |
|    \\/     M anipulation  |                                                 |
\*---------------------------------------------------------------------------*/
FoamFile
{
    version     2.0;
    format      ascii;
    arch        "LSB;label=32;scalar=64";
    class       volScalarField;
    location    "184";
    object      p;
}
// * * * * * * * * * * * * * * * * * * * * * * * * * * * * * * * * * * * * * //

dimensions      [0 2 -2 0 0 0 0];

internalField   nonuniform List<scalar> 
4800
(
-2.30662e-13
-1.75947e-06
-3.21131e-06
-4.4248e-06
-5.44955e-06
-6.32303e-06
-7.07403e-06
-7.72463e-06
-8.29905e-06
-8.80788e-06
-9.26072e-06
-9.66322e-06
-1.00112e-05
-1.05346e-05
-1.2183e-05
2.02201e-08
-1.73525e-06
-3.18449e-06
-4.3966e-06
-5.42106e-06
-6.2955e-06
-7.04908e-06
-7.70418e-06
-8.28525e-06
-8.80435e-06
-9.27625e-06
-9.72041e-06
-1.01539e-05
-1.0685e-05
-1.15642e-05
4.18183e-08
-1.70935e-06
-3.15589e-06
-4.36666e-06
-5.39099e-06
-6.26637e-06
-7.02253e-06
-7.67984e-06
-8.26546e-06
-8.79233e-06
-9.27546e-06
-9.73545e-06
-1.01838e-05
-1.06321e-05
-1.10619e-05
6.41023e-08
-1.68216e-06
-3.1255e-06
-4.33447e-06
-5.35813e-06
-6.23375e-06
-6.99123e-06
-7.65023e-06
-8.23653e-06
-8.76507e-06
-9.24679e-06
-9.69331e-06
-1.01003e-05
-1.04394e-05
-1.06443e-05
8.88092e-08
-1.65161e-06
-3.09098e-06
-4.2974e-06
-5.31959e-06
-6.19443e-06
-6.95137e-06
-7.61085e-06
-8.19338e-06
-8.71532e-06
-9.18248e-06
-9.59554e-06
-9.93916e-06
-1.01772e-05
-1.02567e-05
1.174e-07
-1.6161e-06
-3.05054e-06
-4.25346e-06
-5.27305e-06
-6.14562e-06
-6.8997e-06
-7.55564e-06
-8.12993e-06
-8.63627e-06
-9.07625e-06
-9.4434e-06
-9.71974e-06
-9.8777e-06
-9.89048e-06
1.51875e-07
-1.57358e-06
-3.00194e-06
-4.20006e-06
-5.21544e-06
-6.08354e-06
-6.83159e-06
-7.47874e-06
-8.03884e-06
-8.52114e-06
-8.92446e-06
-9.24064e-06
-9.45603e-06
-9.5571e-06
-9.53796e-06
1.95622e-07
-1.52062e-06
-2.94152e-06
-4.13312e-06
-5.14207e-06
-6.00269e-06
-6.74065e-06
-7.37346e-06
-7.91259e-06
-8.36397e-06
-8.72609e-06
-8.99334e-06
-9.15962e-06
-9.22383e-06
-9.19201e-06
2.53777e-07
-1.45198e-06
-2.8637e-06
-4.04657e-06
-5.04623e-06
-5.89566e-06
-6.61885e-06
-7.23177e-06
-7.74414e-06
-8.16083e-06
-8.48215e-06
-8.70743e-06
-8.83804e-06
-8.88105e-06
-8.84766e-06
3.33029e-07
-1.36052e-06
-2.76079e-06
-3.93212e-06
-4.91901e-06
-5.75306e-06
-6.45677e-06
-7.04506e-06
-7.52721e-06
-7.90903e-06
-8.19409e-06
-8.38691e-06
-8.49444e-06
-8.52804e-06
-8.5002e-06
4.40786e-07
-1.23774e-06
-2.62336e-06
-3.77957e-06
-4.74966e-06
-5.56404e-06
-6.24417e-06
-6.80483e-06
-7.25616e-06
-7.60616e-06
-7.86226e-06
-8.03284e-06
-8.12819e-06
-8.16122e-06
-8.14389e-06
5.84137e-07
-1.0747e-06
-2.44103e-06
-3.57756e-06
-4.52643e-06
-5.31716e-06
-5.97092e-06
-6.50322e-06
-6.92602e-06
-7.24993e-06
-7.48528e-06
-7.6432e-06
-7.73533e-06
-7.77449e-06
-7.77142e-06
7.69299e-07
-8.62549e-07
-2.20316e-06
-3.31444e-06
-4.23746e-06
-5.00137e-06
-5.62767e-06
-6.13319e-06
-6.53192e-06
-6.83668e-06
-7.0597e-06
-7.21333e-06
-7.30936e-06
-7.35968e-06
-7.37374e-06
1.00099e-06
-5.9293e-07
-1.89919e-06
-2.97856e-06
-3.87116e-06
-4.60605e-06
-5.20548e-06
-5.6876e-06
-6.06799e-06
-6.36083e-06
-6.57921e-06
-6.7356e-06
-6.84124e-06
-6.90668e-06
-6.94007e-06
1.28175e-06
-2.58931e-07
-1.51951e-06
-2.559e-06
-3.41643e-06
-4.12081e-06
-4.69498e-06
-5.15789e-06
-5.52585e-06
-5.81344e-06
-6.03369e-06
-6.19846e-06
-6.31803e-06
-6.4017e-06
-6.45658e-06
1.6127e-06
1.44045e-07
-1.05687e-06
-2.04691e-06
-2.86377e-06
-3.53606e-06
-4.08654e-06
-4.53405e-06
-4.89463e-06
-5.18236e-06
-5.40948e-06
-5.58687e-06
-5.7237e-06
-5.8281e-06
-5.90626e-06
1.99417e-06
6.18385e-07
-5.07877e-07
-1.43742e-06
-2.20708e-06
-2.84463e-06
-3.37178e-06
-3.80622e-06
-4.16277e-06
-4.45424e-06
-4.6916e-06
-4.88448e-06
-5.04093e-06
-5.16798e-06
-5.27102e-06
2.41991e-06
1.15929e-06
1.2395e-07
-7.32696e-07
-1.44689e-06
-2.04511e-06
-2.54704e-06
-2.96827e-06
-3.32164e-06
-3.61811e-06
-3.86705e-06
-4.07666e-06
-4.25383e-06
-4.40455e-06
-4.53356e-06
2.86248e-06
1.74806e-06
8.24522e-07
5.43336e-08
-5.94914e-07
-1.14711e-06
-1.61927e-06
-2.02425e-06
-2.37236e-06
-2.67233e-06
-2.9317e-06
-3.15708e-06
-3.35421e-06
-3.52804e-06
-3.6827e-06
3.30365e-06
2.36124e-06
1.56909e-06
8.98135e-07
3.22825e-07
-1.76277e-07
-6.12896e-07
-9.96919e-07
-1.33598e-06
-1.63643e-06
-1.90386e-06
-2.14327e-06
-2.35913e-06
-2.5554e-06
-2.73553e-06
3.71347e-06
2.94438e-06
2.28618e-06
1.71684e-06
1.21792e-06
7.75098e-07
3.78183e-07
2.00382e-08
-3.04655e-07
-6.00288e-07
-8.70806e-07
-1.11981e-06
-1.3506e-06
-1.56612e-06
-1.76902e-06
4.04458e-06
3.41988e-06
2.87393e-06
2.39113e-06
1.95844e-06
1.56582e-06
1.20612e-06
8.7437e-07
5.66876e-07
2.80531e-07
1.24951e-08
-2.39841e-07
-4.78891e-07
-7.06773e-07
-9.25527e-07
4.30486e-06
3.78618e-06
3.32294e-06
2.90394e-06
2.52008e-06
2.16455e-06
1.83248e-06
1.52042e-06
1.22567e-06
9.4593e-07
6.7908e-07
4.23208e-07
1.76544e-07
-6.24361e-08
-2.9523e-07
4.50175e-06
4.05926e-06
3.65526e-06
3.28214e-06
2.93375e-06
2.60554e-06
2.29413e-06
1.99696e-06
1.71193e-06
1.43723e-06
1.17122e-06
9.12458e-07
6.59618e-07
4.11546e-07
1.67083e-07
4.64984e-06
4.26102e-06
3.89913e-06
3.55904e-06
3.23651e-06
2.92837e-06
2.63212e-06
2.3457e-06
2.0674e-06
1.79574e-06
1.52944e-06
1.26741e-06
1.00861e-06
7.52216e-07
4.97336e-07
4.76047e-06
4.4091e-06
4.07693e-06
3.76033e-06
3.45616e-06
3.16209e-06
2.87612e-06
2.59657e-06
2.322e-06
2.05124e-06
1.78327e-06
1.51724e-06
1.25238e-06
9.88049e-07
7.23547e-07
4.84192e-06
4.51665e-06
4.20527e-06
3.90501e-06
3.61343e-06
3.3287e-06
3.04919e-06
2.77349e-06
2.50041e-06
2.229e-06
1.95843e-06
1.68803e-06
1.41716e-06
1.14531e-06
8.71915e-07
4.90098e-06
4.594e-06
4.29711e-06
4.00806e-06
3.72491e-06
3.44619e-06
3.17049e-06
2.89662e-06
2.62358e-06
2.35057e-06
2.0769e-06
1.80201e-06
1.52535e-06
1.24653e-06
9.65041e-07
4.94333e-06
4.6494e-06
4.36269e-06
4.08135e-06
3.80384e-06
3.5289e-06
3.25529e-06
2.98197e-06
2.7081e-06
2.43298e-06
2.15601e-06
1.87671e-06
1.59463e-06
1.30945e-06
1.02073e-06
4.97366e-06
4.68931e-06
4.4099e-06
4.13398e-06
3.86031e-06
3.58773e-06
3.31513e-06
3.04161e-06
2.76642e-06
2.48897e-06
2.20872e-06
1.92527e-06
1.63822e-06
1.34731e-06
1.0522e-06
4.99566e-06
4.71861e-06
4.44463e-06
4.17268e-06
3.9017e-06
3.63059e-06
3.35836e-06
3.08422e-06
2.80752e-06
2.52772e-06
2.24437e-06
1.95709e-06
1.66554e-06
1.36953e-06
1.06877e-06
5.01212e-06
4.74084e-06
4.47109e-06
4.2022e-06
3.93318e-06
3.66299e-06
3.39078e-06
3.11585e-06
2.83761e-06
2.55558e-06
2.26936e-06
1.97861e-06
1.68305e-06
1.38251e-06
1.07673e-06
5.02497e-06
4.75845e-06
4.49214e-06
4.22572e-06
3.95819e-06
3.68863e-06
3.41628e-06
3.14051e-06
2.8608e-06
2.57671e-06
2.28789e-06
1.99404e-06
1.69491e-06
1.39036e-06
1.08018e-06
5.0355e-06
4.77303e-06
4.50965e-06
4.24529e-06
3.97898e-06
3.70988e-06
3.43732e-06
3.16075e-06
2.87968e-06
2.59373e-06
2.30257e-06
2.00596e-06
1.70366e-06
1.39557e-06
1.08153e-06
5.04452e-06
4.78558e-06
4.52476e-06
4.26219e-06
3.9969e-06
3.72818e-06
3.45541e-06
3.17809e-06
2.8958e-06
2.60819e-06
2.31496e-06
2.01589e-06
1.71078e-06
1.39955e-06
1.08209e-06
5.05249e-06
4.79668e-06
4.53814e-06
4.27714e-06
4.01275e-06
3.74435e-06
3.47139e-06
3.19342e-06
2.91004e-06
2.62095e-06
2.32588e-06
2.02464e-06
1.71704e-06
1.40302e-06
1.08252e-06
5.05964e-06
4.80663e-06
4.55012e-06
4.29051e-06
4.02692e-06
3.75881e-06
3.4857e-06
3.20715e-06
2.92283e-06
2.63244e-06
2.33575e-06
2.03259e-06
1.72279e-06
1.40632e-06
1.08311e-06
5.06622e-06
4.81573e-06
4.56105e-06
4.30268e-06
4.03982e-06
3.77198e-06
3.49873e-06
3.21968e-06
2.93451e-06
2.64297e-06
2.34485e-06
2.03999e-06
1.72825e-06
1.40959e-06
1.08398e-06
5.07263e-06
4.82455e-06
4.57162e-06
4.31443e-06
4.05227e-06
3.7847e-06
3.51134e-06
3.23183e-06
2.94588e-06
2.65327e-06
2.3538e-06
2.04734e-06
1.73378e-06
1.41308e-06
1.08521e-06
5.07865e-06
4.83291e-06
4.58169e-06
4.32569e-06
4.06426e-06
3.79701e-06
3.52359e-06
3.24369e-06
2.95703e-06
2.66342e-06
2.36269e-06
2.05471e-06
1.73939e-06
1.41673e-06
1.08669e-06
-1.36124e-05
-1.1407e-05
-1.00408e-05
-9.11829e-06
-8.37083e-06
-7.78728e-06
-7.32493e-06
-6.95663e-06
-6.66614e-06
-6.44215e-06
-6.27709e-06
-6.1661e-06
-6.10642e-06
-6.09864e-06
-6.14663e-06
-6.2577e-06
-6.44515e-06
-6.73294e-06
-7.15081e-06
-7.73841e-06
-8.53495e-06
-9.55364e-06
-1.06472e-05
-1.1525e-05
-1.20264e-05
-1.21012e-05
-1.17468e-05
-1.09713e-05
-9.79865e-06
-8.25753e-06
-6.38101e-06
-4.20717e-06
-1.77986e-06
8.50937e-07
3.62966e-06
6.49621e-06
9.38684e-06
1.2234e-05
1.49631e-05
1.74866e-05
1.96838e-05
2.13923e-05
2.22478e-05
2.19211e-05
1.92217e-05
-1.19824e-05
-1.08525e-05
-9.82225e-06
-9.00156e-06
-8.30027e-06
-7.73293e-06
-7.27672e-06
-6.91129e-06
-6.62282e-06
-6.40098e-06
-6.23851e-06
-6.1307e-06
-6.07485e-06
-6.07161e-06
-6.12495e-06
-6.24197e-06
-6.43591e-06
-6.73061e-06
-7.15506e-06
-7.74769e-06
-8.54602e-06
-9.56119e-06
-1.0646e-05
-1.15131e-05
-1.20044e-05
-1.20715e-05
-1.171e-05
-1.09301e-05
-9.75483e-06
-8.21348e-06
-6.34017e-06
-4.17452e-06
-1.76243e-06
8.43599e-07
3.5847e-06
6.39632e-06
9.20822e-06
1.1943e-05
1.45101e-05
1.67945e-05
1.86245e-05
1.9729e-05
1.95773e-05
1.73812e-05
1.21293e-05
-1.11218e-05
-1.0414e-05
-9.59603e-06
-8.86548e-06
-8.21531e-06
-7.67062e-06
-7.22405e-06
-6.86329e-06
-6.57776e-06
-6.35853e-06
-6.19897e-06
-6.09465e-06
-6.04294e-06
-6.04467e-06
-6.10386e-06
-6.22741e-06
-6.42846e-06
-6.73069e-06
-7.16222e-06
-7.76005e-06
-8.55971e-06
-9.5699e-06
-1.06436e-05
-1.14975e-05
-1.19764e-05
-1.20337e-05
-1.16647e-05
-1.08804e-05
-9.70379e-06
-8.1647e-06
-6.29873e-06
-4.14754e-06
-1.75965e-06
8.09097e-07
3.4956e-06
6.22959e-06
8.93279e-06
1.15162e-05
1.38722e-05
1.58606e-05
1.72766e-05
1.78124e-05
1.69812e-05
1.42214e-05
9.41007e-06
-1.05618e-05
-1.0051e-05
-9.39292e-06
-8.73444e-06
-8.13325e-06
-7.61289e-06
-7.17657e-06
-6.82035e-06
-6.53716e-06
-6.31978e-06
-6.1624e-06
-6.06096e-06
-6.01299e-06
-6.01947e-06
-6.08452e-06
-6.21471e-06
-6.42312e-06
-6.73322e-06
-7.17212e-06
-7.77516e-06
-8.57568e-06
-9.57956e-06
-1.06398e-05
-1.14776e-05
-1.19412e-05
-1.19856e-05
-1.16069e-05
-1.08164e-05
-9.6375e-06
-8.10115e-06
-6.24489e-06
-4.11307e-06
-1.75762e-06
7.61453e-07
3.37584e-06
6.00862e-06
8.57282e-06
1.0968e-05
1.30727e-05
1.47325e-05
1.57393e-05
1.58198e-05
1.46361e-05
1.19182e-05
7.90533e-06
-1.01214e-05
-9.72662e-06
-9.19084e-06
-8.61616e-06
-8.06185e-06
-7.56567e-06
-7.13962e-06
-6.78744e-06
-6.5056e-06
-6.28886e-06
-6.13249e-06
-6.03297e-06
-5.988e-06
-5.9988e-06
-6.06952e-06
-6.20633e-06
-6.42217e-06
-6.74031e-06
-7.18659e-06
-7.79446e-06
-8.59479e-06
-9.59024e-06
-1.0634e-05
-1.14526e-05
-1.1898e-05
-1.19272e-05
-1.15373e-05
-1.07404e-05
-9.56038e-06
-8.02977e-06
-6.18849e-06
-4.08414e-06
-1.77262e-06
6.81364e-07
3.20387e-06
5.71127e-06
8.10873e-06
1.02874e-05
1.2119e-05
1.34504e-05
1.4098e-05
1.38602e-05
1.25549e-05
1.01236e-05
6.83148e-06
-9.74763e-06
-9.43324e-06
-8.99078e-06
-8.4984e-06
-7.99776e-06
-7.52794e-06
-7.11536e-06
-6.76823e-06
-6.48739e-06
-6.27024e-06
-6.1136e-06
-6.01479e-06
-5.97179e-06
-5.98614e-06
-6.06206e-06
-6.20513e-06
-6.4282e-06
-6.75425e-06
-7.20754e-06
-7.81933e-06
-8.61776e-06
-9.60185e-06
-1.06252e-05
-1.14208e-05
-1.18448e-05
-1.18565e-05
-1.14545e-05
-1.06518e-05
-9.47315e-06
-7.95309e-06
-6.13436e-06
-4.06821e-06
-1.81487e-06
5.56001e-07
2.96505e-06
5.32288e-06
7.52927e-06
9.47198e-06
1.10255e-05
1.20526e-05
1.24118e-05
1.19793e-05
1.06909e-05
8.60478e-06
5.97128e-06
-9.40576e-06
-9.15317e-06
-8.79438e-06
-8.3728e-06
-7.92699e-06
-7.49489e-06
-7.10202e-06
-6.76355e-06
-6.48516e-06
-6.26764e-06
-6.10996e-06
-6.01075e-06
-5.96858e-06
-5.98549e-06
-6.06583e-06
-6.21443e-06
-6.44413e-06
-6.77752e-06
-7.23693e-06
-7.85111e-06
-8.64517e-06
-9.61403e-06
-1.06121e-05
-1.138e-05
-1.1779e-05
-1.17707e-05
-1.13558e-05
-1.05485e-05
-9.37485e-06
-7.87177e-06
-6.08518e-06
-4.07029e-06
-1.89177e-06
3.7608e-07
2.64944e-06
4.83522e-06
6.83167e-06
8.5296e-06
9.81539e-06
1.05781e-05
1.07229e-05
1.01921e-05
8.99505e-06
7.2346e-06
5.11939e-06
-9.07642e-06
-8.873e-06
-8.58439e-06
-8.23219e-06
-7.84619e-06
-7.45805e-06
-7.09323e-06
-6.76986e-06
-6.49802e-06
-6.28222e-06
-6.12416e-06
-6.02434e-06
-5.98226e-06
-6.00085e-06
-6.08471e-06
-6.23777e-06
-6.47311e-06
-6.81286e-06
-7.27687e-06
-7.89107e-06
-8.67735e-06
-9.62602e-06
-1.05927e-05
-1.13277e-05
-1.16974e-05
-1.16667e-05
-1.12385e-05
-1.04286e-05
-9.26518e-06
-7.7875e-06
-6.04502e-06
-4.09693e-06
-2.01201e-06
1.31757e-07
2.24791e-06
4.24279e-06
6.01784e-06
7.4733e-06
8.51425e-06
9.06014e-06
9.05771e-06
8.49663e-06
7.42328e-06
5.94614e-06
4.2275e-06
-8.75052e-06
-8.58767e-06
-8.35777e-06
-8.07071e-06
-7.74597e-06
-7.40782e-06
-7.07939e-06
-6.77939e-06
-6.52077e-06
-6.31135e-06
-6.15571e-06
-6.05665e-06
-6.01502e-06
-6.03511e-06
-6.12185e-06
-6.27812e-06
-6.51791e-06
-6.8627e-06
-7.3291e-06
-7.94007e-06
-8.71408e-06
-9.6364e-06
-1.05645e-05
-1.12603e-05
-1.15965e-05
-1.15412e-05
-1.11001e-05
-1.02913e-05
-9.14513e-06
-7.70374e-06
-6.01998e-06
-4.15665e-06
-2.18573e-06
-1.87188e-07
1.75252e-06
3.54295e-06
5.09345e-06
6.31862e-06
7.14547e-06
7.52222e-06
7.42799e-06
6.88009e-06
5.93827e-06
4.69993e-06
3.28769e-06
-8.42242e-06
-8.2945e-06
-8.11436e-06
-7.88584e-06
-7.62047e-06
-7.3356e-06
-7.05031e-06
-6.78201e-06
-6.54472e-06
-6.34842e-06
-6.20023e-06
-6.10529e-06
-6.06603e-06
-6.08868e-06
-6.17837e-06
-6.33665e-06
-6.57988e-06
-6.92828e-06
-7.3942e-06
-7.99781e-06
-8.75404e-06
-9.64269e-06
-1.0524e-05
-1.11739e-05
-1.14725e-05
-1.1391e-05
-1.09389e-05
-1.01369e-05
-9.01752e-06
-7.62606e-06
-6.01825e-06
-4.25961e-06
-2.42378e-06
-5.90322e-07
1.15755e-06
2.73637e-06
4.06721e-06
5.08155e-06
5.72788e-06
5.9782e-06
5.83375e-06
5.32391e-06
4.50863e-06
3.46905e-06
2.29686e-06
-8.08633e-06
-7.98984e-06
-7.85282e-06
-7.67629e-06
-7.46658e-06
-7.23541e-06
-6.99743e-06
-6.7676e-06
-6.55945e-06
-6.38387e-06
-6.24974e-06
-6.16405e-06
-6.13079e-06
-6.15847e-06
-6.25181e-06
-6.41116e-06
-6.65784e-06
-7.00873e-06
-7.47058e-06
-8.06196e-06
-8.79408e-06
-9.64097e-06
-1.04668e-05
-1.10641e-05
-1.13215e-05
-1.12141e-05
-1.07551e-05
-9.96781e-06
-8.88776e-06
-7.5627e-06
-6.05028e-06
-4.41734e-06
-2.73706e-06
-1.08573e-06
4.59998e-07
1.82676e-06
2.94952e-06
3.77672e-06
4.275e-06
4.43243e-06
4.26721e-06
3.80748e-06
3.10776e-06
2.2332e-06
1.25222e-06
-7.73509e-06
-7.66804e-06
-7.56956e-06
-7.43956e-06
-7.28131e-06
-7.10238e-06
-6.91351e-06
-6.72675e-06
-6.55421e-06
-6.40653e-06
-6.29354e-06
-6.22314e-06
-6.20115e-06
-6.23838e-06
-6.33456e-06
-6.4951e-06
-6.74772e-06
-7.10012e-06
-7.55364e-06
-8.12752e-06
-8.82876e-06
-9.62569e-06
-1.03876e-05
-1.09266e-05
-1.11411e-05
-1.10105e-05
-1.05513e-05
-9.78981e-06
-8.7646e-06
-7.52496e-06
-6.12866e-06
-4.64206e-06
-3.13556e-06
-1.67916e-06
-3.40128e-07
8.20211e-07
1.75106e-06
2.41628e-06
2.79722e-06
2.89402e-06
2.71911e-06
2.31134e-06
1.71372e-06
9.76146e-07
1.49802e-07
-7.35973e-06
-7.32119e-06
-7.25825e-06
-7.1706e-06
-7.05986e-06
-6.93085e-06
-6.79116e-06
-6.65012e-06
-6.51791e-06
-6.4042e-06
-6.31895e-06
-6.27e-06
-6.26532e-06
-6.31735e-06
-6.41795e-06
-6.58203e-06
-6.84199e-06
-7.19305e-06
-7.63481e-06
-8.18639e-06
-8.8503e-06
-9.58994e-06
-1.02814e-05
-1.0758e-05
-1.09306e-05
-1.07831e-05
-1.03342e-05
-9.61271e-06
-8.6606e-06
-7.52706e-06
-6.26748e-06
-4.94578e-06
-3.62732e-06
-2.37325e-06
-1.2396e-06
-2.75235e-07
4.81863e-07
1.00752e-06
1.29248e-06
1.3418e-06
1.17327e-06
8.16723e-07
3.07559e-07
-3.15983e-07
-1.01565e-06
-6.94927e-06
-6.93888e-06
-6.90967e-06
-6.86134e-06
-6.79477e-06
-6.71308e-06
-6.62159e-06
-6.52733e-06
-6.43849e-06
-6.36348e-06
-6.31132e-06
-6.29001e-06
-6.30758e-06
-6.37406e-06
-6.49046e-06
-6.66491e-06
-6.9259e-06
-7.27293e-06
-7.70169e-06
-8.2276e-06
-8.84891e-06
-9.52623e-06
-1.0144e-05
-1.05574e-05
-1.06932e-05
-1.05397e-05
-1.01151e-05
-9.45065e-06
-8.59203e-06
-7.5852e-06
-6.48082e-06
-5.33883e-06
-4.21733e-06
-3.16693e-06
-2.23198e-06
-1.44984e-06
-8.47934e-07
-4.41688e-07
-2.34475e-07
-2.18897e-07
-3.78417e-07
-6.89248e-07
-1.12377e-06
-1.65308e-06
-2.24859e-06
-6.49026e-06
-6.50801e-06
-6.51127e-06
-6.50012e-06
-6.47511e-06
-6.43833e-06
-6.39354e-06
-6.346e-06
-6.30212e-06
-6.26897e-06
-6.2542e-06
-6.26536e-06
-6.30988e-06
-6.39669e-06
-6.53231e-06
-6.72199e-06
-6.98371e-06
-7.32413e-06
-7.73991e-06
-8.23825e-06
-8.8136e-06
-9.42714e-06
-9.97332e-06
-1.03278e-05
-1.04362e-05
-1.02921e-05
-9.90845e-06
-9.32102e-06
-8.57819e-06
-7.71543e-06
-6.78045e-06
-5.82825e-06
-4.90669e-06
-4.05527e-06
-3.3079e-06
-2.6925e-06
-2.22835e-06
-1.92493e-06
-1.78246e-06
-1.79346e-06
-1.94427e-06
-2.21642e-06
-2.58938e-06
-3.04155e-06
-3.55161e-06
-5.96565e-06
-6.01212e-06
-6.04744e-06
-6.072e-06
-6.08645e-06
-6.09239e-06
-6.09264e-06
-6.0911e-06
-6.09272e-06
-6.10318e-06
-6.12886e-06
-6.17638e-06
-6.25274e-06
-6.36594e-06
-6.52233e-06
-6.72832e-06
-6.99546e-06
-7.33112e-06
-7.73318e-06
-8.20355e-06
-8.7331e-06
-9.28632e-06
-9.76883e-06
-1.00753e-05
-1.01732e-05
-1.00564e-05
-9.72925e-06
-9.24705e-06
-8.63919e-06
-7.92939e-06
-7.17285e-06
-6.41607e-06
-5.69203e-06
-5.02993e-06
-4.45611e-06
-3.99157e-06
-3.64973e-06
-3.43628e-06
-3.3502e-06
-3.38508e-06
-3.53025e-06
-3.77222e-06
-4.09595e-06
-4.48587e-06
-4.92622e-06
-5.3575e-06
-5.43348e-06
-5.50095e-06
-5.56054e-06
-5.61298e-06
-5.65962e-06
-5.70288e-06
-5.74612e-06
-5.79306e-06
-5.84792e-06
-5.91586e-06
-6.00259e-06
-6.11427e-06
-6.2574e-06
-6.43813e-06
-6.66279e-06
-6.93896e-06
-7.27274e-06
-7.66298e-06
-8.10808e-06
-8.59731e-06
-9.10064e-06
-9.53226e-06
-9.81037e-06
-9.92188e-06
-9.84482e-06
-9.60227e-06
-9.25317e-06
-8.78294e-06
-8.23449e-06
-7.66356e-06
-7.10102e-06
-6.56616e-06
-6.08049e-06
-5.66524e-06
-5.33644e-06
-5.10343e-06
-4.96981e-06
-4.93469e-06
-4.99344e-06
-5.1385e-06
-5.36025e-06
-5.64733e-06
-5.98857e-06
-6.37288e-06
-4.64815e-06
-4.75438e-06
-4.85427e-06
-4.94875e-06
-5.03884e-06
-5.12529e-06
-5.20995e-06
-5.29627e-06
-5.38784e-06
-5.48723e-06
-5.59819e-06
-5.72557e-06
-5.87463e-06
-6.05064e-06
-6.25908e-06
-6.50523e-06
-6.79445e-06
-7.13063e-06
-7.51403e-06
-7.94067e-06
-8.40003e-06
-8.86945e-06
-9.27239e-06
-9.55111e-06
-9.69288e-06
-9.679e-06
-9.55567e-06
-9.33284e-06
-9.00841e-06
-8.6364e-06
-8.25528e-06
-7.87885e-06
-7.51993e-06
-7.19655e-06
-6.92582e-06
-6.71951e-06
-6.58408e-06
-6.52208e-06
-6.53354e-06
-6.61613e-06
-6.76546e-06
-6.97545e-06
-7.23768e-06
-7.54314e-06
-7.8839e-06
-3.82528e-06
-3.9615e-06
-4.09309e-06
-4.22115e-06
-4.34705e-06
-4.47236e-06
-4.59895e-06
-4.72808e-06
-4.86296e-06
-5.00607e-06
-5.16028e-06
-5.32937e-06
-5.51766e-06
-5.72935e-06
-5.96877e-06
-6.24023e-06
-6.54724e-06
-6.89285e-06
-7.27712e-06
-7.69621e-06
-8.14233e-06
-8.59561e-06
-9.00023e-06
-9.30763e-06
-9.49924e-06
-9.58546e-06
-9.57773e-06
-9.47867e-06
-9.32093e-06
-9.13417e-06
-8.93383e-06
-8.72934e-06
-8.53346e-06
-8.361e-06
-8.22423e-06
-8.13133e-06
-8.08704e-06
-8.09361e-06
-8.1517e-06
-8.26015e-06
-8.41677e-06
-8.61928e-06
-8.86353e-06
-9.14174e-06
-9.44822e-06
-2.90607e-06
-3.07203e-06
-3.2347e-06
-3.39477e-06
-3.55346e-06
-3.71294e-06
-3.87516e-06
-4.04338e-06
-4.21843e-06
-4.40209e-06
-4.59725e-06
-4.80719e-06
-5.03505e-06
-5.28399e-06
-5.55725e-06
-5.85816e-06
-6.18943e-06
-6.55313e-06
-6.94975e-06
-7.37668e-06
-7.82853e-06
-8.29395e-06
-8.72577e-06
-9.08165e-06
-9.35645e-06
-9.54706e-06
-9.65615e-06
-9.7076e-06
-9.72128e-06
-9.70587e-06
-9.66944e-06
-9.62319e-06
-9.57886e-06
-9.54644e-06
-9.53371e-06
-9.54644e-06
-9.5887e-06
-9.66337e-06
-9.77159e-06
-9.91343e-06
-1.00876e-05
-1.02902e-05
-1.0518e-05
-1.07723e-05
-1.1051e-05
-1.96506e-06
-2.15887e-06
-2.35179e-06
-2.54548e-06
-2.74093e-06
-2.93784e-06
-3.12999e-06
-3.3327e-06
-3.5463e-06
-3.76994e-06
-4.00519e-06
-4.25475e-06
-4.52128e-06
-4.80728e-06
-5.11525e-06
-5.44785e-06
-5.80726e-06
-6.19536e-06
-6.61292e-06
-7.05898e-06
-7.53126e-06
-8.023e-06
-8.49806e-06
-8.91859e-06
-9.27287e-06
-9.56176e-06
-9.79662e-06
-9.98926e-06
-1.01446e-05
-1.02677e-05
-1.03675e-05
-1.0454e-05
-1.05355e-05
-1.06182e-05
-1.07073e-05
-1.08075e-05
-1.09225e-05
-1.10546e-05
-1.12054e-05
-1.13753e-05
-1.15647e-05
-1.17738e-05
-1.20035e-05
-1.225e-05
-1.25119e-05
-1.13995e-06
-1.354e-06
-1.56854e-06
-1.78355e-06
-2.00104e-06
-2.22457e-06
-2.46486e-06
-2.70784e-06
-2.95604e-06
-3.21422e-06
-3.48486e-06
-3.76953e-06
-4.0702e-06
-4.38914e-06
-4.72863e-06
-5.09085e-06
-5.47784e-06
-5.89137e-06
-6.33269e-06
-6.80223e-06
-7.29923e-06
-7.82144e-06
-8.3379e-06
-8.81067e-06
-9.23177e-06
-9.60568e-06
-9.93647e-06
-1.02268e-05
-1.04807e-05
-1.07047e-05
-1.09062e-05
-1.10919e-05
-1.1267e-05
-1.14361e-05
-1.16032e-05
-1.17721e-05
-1.19458e-05
-1.21266e-05
-1.23164e-05
-1.2517e-05
-1.27288e-05
-1.29526e-05
-1.31871e-05
-1.34325e-05
-1.36874e-05
-5.25801e-07
-7.57918e-07
-9.93112e-07
-1.23233e-06
-1.4769e-06
-1.7273e-06
-1.98598e-06
-2.25142e-06
-2.52515e-06
-2.80992e-06
-3.1074e-06
-3.41885e-06
-3.74597e-06
-4.09075e-06
-4.45512e-06
-4.84096e-06
-5.25016e-06
-5.68447e-06
-6.14542e-06
-6.63401e-06
-7.15075e-06
-7.69517e-06
-8.23982e-06
-8.7504e-06
-9.21961e-06
-9.64864e-06
-1.00383e-05
-1.03915e-05
-1.07129e-05
-1.10076e-05
-1.12805e-05
-1.15357e-05
-1.17771e-05
-1.20083e-05
-1.22324e-05
-1.24523e-05
-1.26706e-05
-1.28895e-05
-1.31106e-05
-1.33353e-05
-1.35641e-05
-1.37976e-05
-1.40361e-05
-1.42798e-05
-1.45281e-05
-7.71267e-08
-3.245e-07
-5.7607e-07
-8.3251e-07
-1.09477e-06
-1.36506e-06
-1.64243e-06
-1.92819e-06
-2.22393e-06
-2.53099e-06
-2.85052e-06
-3.18381e-06
-3.53239e-06
-3.89788e-06
-4.28191e-06
-4.68614e-06
-5.11228e-06
-5.56199e-06
-6.03682e-06
-6.53807e-06
-7.06676e-06
-7.62329e-06
-8.18368e-06
-8.716e-06
-9.21204e-06
-9.67237e-06
-1.00985e-05
-1.04934e-05
-1.08605e-05
-1.12031e-05
-1.15244e-05
-1.18274e-05
-1.21151e-05
-1.23902e-05
-1.26552e-05
-1.29123e-05
-1.31635e-05
-1.34107e-05
-1.36551e-05
-1.38979e-05
-1.414e-05
-1.43822e-05
-1.46254e-05
-1.48695e-05
-1.51146e-05
2.41167e-07
-1.92485e-08
-2.85043e-07
-5.56906e-07
-8.35596e-07
-1.12184e-06
-1.41628e-06
-1.72e-06
-2.03396e-06
-2.35905e-06
-2.69633e-06
-3.04696e-06
-3.41223e-06
-3.79344e-06
-4.19199e-06
-4.60931e-06
-5.04691e-06
-5.50625e-06
-5.98881e-06
-6.49589e-06
-7.02869e-06
-7.58803e-06
-8.15242e-06
-8.69248e-06
-9.20064e-06
-9.67798e-06
-1.01261e-05
-1.0547e-05
-1.0943e-05
-1.13163e-05
-1.16695e-05
-1.20047e-05
-1.23241e-05
-1.26297e-05
-1.29235e-05
-1.32072e-05
-1.34824e-05
-1.37505e-05
-1.40127e-05
-1.42699e-05
-1.45234e-05
-1.47737e-05
-1.50218e-05
-1.52678e-05
-1.5512e-05
4.56504e-07
1.84208e-07
-9.44277e-08
-3.79743e-07
-6.72129e-07
-9.72468e-07
-1.28156e-06
-1.60004e-06
-1.92862e-06
-2.26807e-06
-2.61932e-06
-2.98332e-06
-3.3611e-06
-3.75372e-06
-4.16237e-06
-4.58823e-06
-5.03258e-06
-5.49665e-06
-5.98176e-06
-6.48909e-06
-7.0198e-06
-7.57471e-06
-8.13463e-06
-8.67348e-06
-9.18476e-06
-9.66946e-06
-1.01287e-05
-1.0564e-05
-1.0977e-05
-1.13694e-05
-1.17428e-05
-1.20991e-05
-1.24397e-05
-1.27663e-05
-1.30802e-05
-1.33829e-05
-1.36755e-05
-1.39592e-05
-1.4235e-05
-1.45037e-05
-1.47663e-05
-1.5024e-05
-1.5277e-05
-1.55255e-05
-1.57702e-05
5.94935e-07
3.12026e-07
2.24279e-08
-2.74078e-07
-5.78254e-07
-8.90759e-07
-1.21199e-06
-1.54247e-06
-1.88281e-06
-2.23368e-06
-2.59579e-06
-2.9699e-06
-3.35684e-06
-3.75746e-06
-4.17271e-06
-4.60355e-06
-5.05102e-06
-5.51614e-06
-6.00001e-06
-6.50362e-06
-7.02799e-06
-7.5738e-06
-8.1242e-06
-8.65649e-06
-9.16498e-06
-9.65038e-06
-1.01135e-05
-1.05555e-05
-1.09775e-05
-1.13809e-05
-1.17668e-05
-1.21365e-05
-1.24911e-05
-1.28318e-05
-1.31596e-05
-1.34757e-05
-1.3781e-05
-1.40764e-05
-1.43627e-05
-1.46407e-05
-1.49109e-05
-1.51746e-05
-1.5432e-05
-1.56835e-05
-1.59297e-05
6.79197e-07
3.8738e-07
8.8181e-08
-2.18185e-07
-5.3253e-07
-8.55153e-07
-1.18637e-06
-1.52663e-06
-1.87643e-06
-2.23629e-06
-2.60674e-06
-2.98839e-06
-3.38187e-06
-3.78786e-06
-4.20709e-06
-4.64031e-06
-5.08835e-06
-5.552e-06
-6.03216e-06
-6.52959e-06
-7.04517e-06
-7.57938e-06
-8.1176e-06
-8.64028e-06
-9.1424e-06
-9.62441e-06
-1.00869e-05
-1.05307e-05
-1.09567e-05
-1.13659e-05
-1.1759e-05
-1.21369e-05
-1.25005e-05
-1.28507e-05
-1.31882e-05
-1.35137e-05
-1.38282e-05
-1.41323e-05
-1.44267e-05
-1.47127e-05
-1.49887e-05
-1.52576e-05
-1.55192e-05
-1.5774e-05
-1.60225e-05
7.27021e-07
4.26649e-07
1.19672e-07
-1.95168e-07
-5.18009e-07
-8.49007e-07
-1.18845e-06
-1.53667e-06
-1.89404e-06
-2.26093e-06
-2.63777e-06
-3.025e-06
-3.42309e-06
-3.83255e-06
-4.25394e-06
-4.6878e-06
-5.13478e-06
-5.59546e-06
-6.07054e-06
-6.56056e-06
-7.06626e-06
-7.58793e-06
-8.11292e-06
-8.62463e-06
-9.11859e-06
-9.59501e-06
-1.00543e-05
-1.04971e-05
-1.0924e-05
-1.13356e-05
-1.17326e-05
-1.21154e-05
-1.24848e-05
-1.28413e-05
-1.31854e-05
-1.35178e-05
-1.3839e-05
-1.41496e-05
-1.445e-05
-1.47405e-05
-1.50234e-05
-1.52971e-05
-1.55628e-05
-1.5821e-05
-1.60722e-05
7.51717e-07
4.44329e-07
1.29967e-07
-1.92122e-07
-5.22105e-07
-8.60117e-07
-1.20636e-06
-1.56109e-06
-1.92455e-06
-2.29702e-06
-2.6788e-06
-3.07018e-06
-3.47153e-06
-3.88319e-06
-4.30556e-06
-4.73902e-06
-5.18403e-06
-5.641e-06
-6.11044e-06
-6.5927e-06
-7.08837e-06
-7.59752e-06
-8.10936e-06
-8.60986e-06
-9.09504e-06
-9.56491e-06
-1.00198e-05
-1.046e-05
-1.0886e-05
-1.12982e-05
-1.1697e-05
-1.20826e-05
-1.24556e-05
-1.28163e-05
-1.31651e-05
-1.35025e-05
-1.38287e-05
-1.41444e-05
-1.44498e-05
-1.47453e-05
-1.50323e-05
-1.53102e-05
-1.55797e-05
-1.58412e-05
-1.60954e-05
7.62372e-07
4.48764e-07
1.28115e-07
-2.0016e-07
-5.36224e-07
-8.80157e-07
-1.2321e-06
-1.5922e-06
-1.96065e-06
-2.33761e-06
-2.72327e-06
-3.11784e-06
-3.52154e-06
-3.93459e-06
-4.35724e-06
-4.78975e-06
-5.2324e-06
-5.68544e-06
-6.14922e-06
-6.62391e-06
-7.10995e-06
-7.60724e-06
-8.10661e-06
-8.59634e-06
-9.07285e-06
-9.536e-06
-9.98596e-06
-1.0423e-05
-1.08472e-05
-1.12589e-05
-1.16582e-05
-1.20454e-05
-1.24207e-05
-1.27843e-05
-1.31364e-05
-1.34775e-05
-1.38076e-05
-1.41272e-05
-1.44367e-05
-1.47362e-05
-1.50268e-05
-1.53084e-05
-1.55813e-05
-1.58461e-05
-1.61032e-05
7.64816e-07
4.46045e-07
1.20051e-07
-2.13542e-07
-5.54828e-07
-9.03811e-07
-1.26057e-06
-1.62521e-06
-1.9978e-06
-2.37846e-06
-2.76728e-06
-3.16437e-06
-3.56983e-06
-3.98379e-06
-4.40637e-06
-4.83769e-06
-5.27791e-06
-5.72712e-06
-6.18553e-06
-6.65315e-06
-7.13029e-06
-7.61666e-06
-8.10458e-06
-8.58431e-06
-9.05265e-06
-9.50935e-06
-9.95447e-06
-1.03881e-05
-1.08101e-05
-1.12208e-05
-1.16201e-05
-1.2008e-05
-1.23848e-05
-1.27504e-05
-1.31051e-05
-1.34489e-05
-1.37821e-05
-1.41049e-05
-1.44177e-05
-1.47206e-05
-1.50143e-05
-1.52991e-05
-1.55751e-05
-1.58427e-05
-1.61027e-05
7.63591e-07
4.40058e-07
1.09437e-07
-2.28757e-07
-5.7457e-07
-9.2791e-07
-1.28882e-06
-1.65732e-06
-2.03345e-06
-2.41723e-06
-2.80869e-06
-3.20784e-06
-3.6147e-06
-4.02929e-06
-4.45164e-06
-4.88174e-06
-5.31964e-06
-5.76529e-06
-6.21877e-06
-6.67997e-06
-7.14904e-06
-7.62557e-06
-8.10316e-06
-8.57384e-06
-9.03472e-06
-9.48547e-06
-9.92603e-06
-1.03563e-05
-1.07762e-05
-1.11856e-05
-1.15845e-05
-1.19729e-05
-1.23506e-05
-1.27177e-05
-1.30742e-05
-1.34203e-05
-1.3756e-05
-1.40815e-05
-1.43969e-05
-1.47027e-05
-1.4999e-05
-1.52866e-05
-1.55654e-05
-1.58356e-05
-1.60981e-05
7.60881e-07
4.33043e-07
9.8381e-08
-2.43817e-07
-5.93596e-07
-9.50741e-07
-1.31525e-06
-1.68712e-06
-2.06631e-06
-2.45279e-06
-2.8465e-06
-3.2474e-06
-3.65543e-06
-4.07051e-06
-4.49258e-06
-4.92154e-06
-5.3573e-06
-5.79975e-06
-6.24881e-06
-6.70426e-06
-7.16614e-06
-7.63389e-06
-8.10228e-06
-8.56484e-06
-9.01903e-06
-9.46442e-06
-9.90083e-06
-1.0328e-05
-1.07459e-05
-1.11541e-05
-1.15525e-05
-1.1941e-05
-1.23194e-05
-1.26877e-05
-1.30457e-05
-1.33936e-05
-1.37313e-05
-1.4059e-05
-1.43768e-05
-1.46849e-05
-1.49836e-05
-1.52736e-05
-1.55548e-05
-1.58274e-05
-1.60922e-05
7.57635e-07
4.26265e-07
8.80317e-08
-2.57715e-07
-6.11009e-07
-9.71504e-07
-1.33919e-06
-1.71401e-06
-2.09589e-06
-2.48472e-06
-2.88042e-06
-3.28285e-06
-3.69188e-06
-4.10738e-06
-4.52918e-06
-4.9571e-06
-5.39098e-06
-5.83057e-06
-6.27572e-06
-6.72608e-06
-7.18158e-06
-7.64157e-06
-8.1018e-06
-8.55718e-06
-9.00543e-06
-9.44606e-06
-9.87878e-06
-1.03032e-05
-1.07192e-05
-1.11262e-05
-1.15241e-05
-1.19127e-05
-1.22917e-05
-1.26609e-05
-1.30202e-05
-1.33696e-05
-1.37091e-05
-1.40386e-05
-1.43585e-05
-1.46685e-05
-1.49693e-05
-1.52614e-05
-1.55448e-05
-1.58194e-05
-1.60862e-05
7.54702e-07
4.2034e-07
7.88694e-08
-2.70067e-07
-6.26462e-07
-9.89919e-07
-1.36041e-06
-1.73785e-06
-2.1221e-06
-2.51302e-06
-2.91047e-06
-3.31425e-06
-3.72419e-06
-4.14006e-06
-4.56163e-06
-4.98865e-06
-5.42087e-06
-5.85795e-06
-6.29965e-06
-6.74554e-06
-7.19544e-06
-7.64858e-06
-8.10162e-06
-8.55068e-06
-8.99371e-06
-9.43014e-06
-9.8596e-06
-1.02816e-05
-1.06959e-05
-1.11019e-05
-1.14994e-05
-1.1888e-05
-1.22674e-05
-1.26375e-05
-1.29979e-05
-1.33486e-05
-1.36896e-05
-1.40207e-05
-1.43423e-05
-1.46539e-05
-1.49567e-05
-1.52506e-05
-1.55358e-05
-1.58121e-05
-1.60807e-05
7.52386e-07
4.15352e-07
7.099e-08
-2.80771e-07
-6.39888e-07
-1.00596e-06
-1.37894e-06
-1.75868e-06
-2.14504e-06
-2.53782e-06
-2.93682e-06
-3.34182e-06
-3.75256e-06
-4.16877e-06
-4.59017e-06
-5.01642e-06
-5.44719e-06
-5.8821e-06
-6.3208e-06
-6.76277e-06
-7.20777e-06
-7.65492e-06
-8.10165e-06
-8.54516e-06
-8.98362e-06
-9.41641e-06
-9.84302e-06
-1.0263e-05
-1.06757e-05
-1.10809e-05
-1.1478e-05
-1.18666e-05
-1.22465e-05
-1.26172e-05
-1.29786e-05
-1.33305e-05
-1.36728e-05
-1.40054e-05
-1.43284e-05
-1.46415e-05
-1.49459e-05
-1.52415e-05
-1.55281e-05
-1.5806e-05
-1.60761e-05
7.50725e-07
4.11216e-07
6.43102e-08
-2.8996e-07
-6.51486e-07
-1.01989e-06
-1.39507e-06
-1.77688e-06
-2.16511e-06
-2.55955e-06
-2.95995e-06
-3.36604e-06
-3.77751e-06
-4.19405e-06
-4.61532e-06
-5.04091e-06
-5.47045e-06
-5.90347e-06
-6.33955e-06
-6.77811e-06
-7.21881e-06
-7.66067e-06
-8.10182e-06
-8.54041e-06
-8.97486e-06
-9.40444e-06
-9.82858e-06
-1.02467e-05
-1.06582e-05
-1.10626e-05
-1.14594e-05
-1.18481e-05