/*--------------------------------*- C++ -*----------------------------------*\
| =========                 |                                                 |
| \\      /  F ield         | OpenFOAM: The Open Source CFD Toolbox           |
|  \\    /   O peration     | Version:  2312                                  |
|   \\  /    A nd           | Website:  www.openfoam.com                      |
|    \\/     M anipulation  |                                                 |
\*---------------------------------------------------------------------------*/
FoamFile
{
    version     2.0;
    format      ascii;
    arch        "LSB;label=32;scalar=64";
    class       surfaceScalarField;
    location    "184";
    object      phi;
}
// * * * * * * * * * * * * * * * * * * * * * * * * * * * * * * * * * * * * * //

dimensions      [0 3 -1 0 0 0 0];

oriented        oriented;

internalField   nonuniform List<scalar> 
9445
(
5.96725e-10
1.64808e-11
5.85698e-10
1.10266e-11
5.78307e-10
7.39131e-12
5.73518e-10
4.78863e-12
5.7071e-10
2.80801e-12
5.69506e-10
1.20395e-12
5.69727e-10
-2.21027e-13
5.71371e-10
-1.64391e-12
5.74394e-10
-3.02309e-12
5.79209e-10
-4.81467e-12
5.86947e-10
-7.73868e-12
6.01145e-10
-1.4198e-11
6.34281e-10
-3.31358e-11
7.30356e-10
-9.60744e-11
-2.51618e-10
9.81974e-10
2.07875e-09
7.29985e-11
2.04064e-09
4.91426e-11
2.01482e-09
3.32094e-11
1.99779e-09
2.18145e-11
1.98743e-09
1.31776e-11
1.98239e-09
6.23743e-12
1.98203e-09
1.41706e-13
1.98608e-09
-5.69983e-12
1.99456e-09
-1.15006e-11
2.00868e-09
-1.89356e-11
2.03128e-09
-3.03343e-11
2.06914e-09
-5.20568e-11
2.13567e-09
-9.96716e-11
2.24389e-09
-2.04295e-10
-3.66861e-10
2.35914e-09
4.09604e-09
1.82146e-10
4.02196e-09
1.23223e-10
3.97136e-09
8.38118e-11
3.93751e-09
5.5659e-11
3.91628e-09
3.44074e-11
3.90506e-09
1.74611e-11
3.9024e-09
2.80354e-12
3.9076e-09
-1.09086e-11
3.92046e-09
-2.43604e-11
3.94255e-09
-4.10186e-11
3.97656e-09
-6.43465e-11
4.02704e-09
-1.02533e-10
4.09678e-09
-1.69421e-10
4.1723e-09
-2.79814e-10
-4.11094e-10
4.21654e-09
6.79493e-09
3.58282e-10
6.67446e-09
2.43699e-10
6.59138e-09
1.66886e-10
6.53498e-09
1.12061e-10
6.49855e-09
7.08372e-11
6.47774e-09
3.82679e-11
6.47006e-09
1.04885e-11
6.47396e-09
-1.4806e-11
6.48855e-09
-3.89541e-11
6.51479e-09
-6.72599e-11
6.55353e-09
-1.0309e-10
6.60425e-09
-1.53251e-10
6.66045e-09
-2.25623e-10
6.70221e-09
-3.21569e-10
-4.1546e-10
6.70657e-09
1.03532e-08
6.16321e-10
1.01749e-08
4.21967e-10
1.00506e-08
2.91178e-10
9.96483e-09
1.97822e-10
9.9078e-09
1.27869e-10
9.87298e-09
7.30928e-11
9.85627e-09
2.71967e-11
9.85494e-09
-1.34785e-11
9.86719e-09
-5.12034e-11
9.89194e-09
-9.20114e-11
9.92748e-09
-1.38632e-10
9.96898e-09
-1.94747e-10
1.00058e-08
-2.62436e-10
1.00209e-08
-3.36701e-10
-3.98535e-10
1.0004e-08
1.49817e-08
9.68842e-10
1.47349e-08
6.68775e-10
1.45605e-08
4.65569e-10
1.4438e-08
3.20281e-10
1.43542e-08
2.11683e-10
1.43e-08
1.27305e-10
1.42692e-08
5.79702e-11
1.42575e-08
-1.77415e-12
1.42618e-08
-5.54817e-11
1.42785e-08
-1.08696e-10
1.43033e-08
-1.63458e-10
1.43293e-08
-2.20743e-10
1.43461e-08
-2.79188e-10
1.43424e-08
-3.33068e-10
-3.71663e-10
1.43155e-08
2.09229e-08
1.42063e-09
2.06008e-08
9.90903e-10
2.03693e-08
6.96984e-10
2.02037e-08
4.8596e-10
2.0087e-08
3.28347e-10
2.00077e-08
2.06619e-10
1.99572e-08
1.08414e-10
1.99294e-08
2.60666e-11
1.99192e-08
-4.52919e-11
1.99211e-08
-1.10566e-10
1.9929e-08
-1.71382e-10
1.99357e-08
-2.27479e-10
1.99334e-08
-2.76827e-10
1.9916e-08
-3.15713e-10
-3.39654e-10
1.9884e-08
2.8443e-08
1.96018e-09
2.80484e-08
1.38554e-09
2.77588e-08
9.86597e-10
2.75468e-08
6.97936e-10
2.73932e-08
4.81925e-10
2.72841e-08
3.15707e-10
2.72089e-08
1.83612e-10
2.71594e-08
7.55736e-11
2.71288e-08
-1.46447e-11
2.71101e-08
-9.18663e-11
2.70966e-08
-1.57955e-10
2.70822e-08
-2.13011e-10
2.70615e-08
-2.56176e-10
2.70322e-08
-2.8634e-10
-3.02811e-10
2.69953e-08
3.78193e-08
2.55015e-09
3.73719e-08
1.83298e-09
3.70341e-08
1.32436e-09
3.67803e-08
9.51742e-10
3.65909e-08
6.71366e-10
3.64508e-08
4.55753e-10
3.63482e-08
2.86202e-10
3.62735e-08
1.50356e-10
3.62184e-08
4.04396e-11
3.61755e-08
-4.90134e-11
3.61386e-08
-1.20996e-10
3.61025e-08
-1.76948e-10
3.60642e-08
-2.17889e-10
3.60228e-08
-2.44919e-10
-2.59436e-10
3.59794e-08
4.93305e-08
3.12464e-09
4.88718e-08
2.2916e-09
4.85122e-08
1.68402e-09
4.82329e-08
1.23099e-09
4.80175e-08
8.86792e-10
4.78519e-08
6.21309e-10
4.77244e-08
4.13723e-10
4.7625e-08
2.49799e-10
4.75453e-08
1.20076e-10
4.74783e-08
1.80379e-11
4.74186e-08
-6.12719e-11
4.73624e-08
-1.20761e-10
4.73078e-08
-1.63321e-10
4.72545e-08
-1.91606e-10
-2.0812e-10
4.72032e-08
6.32739e-08
3.60632e-09
6.28611e-08
2.70444e-09
6.25204e-08
2.02474e-09
6.22446e-08
1.50676e-09
6.20234e-08
1.10795e-09
6.18464e-08
7.98369e-10
6.17035e-08
5.56547e-10
6.15863e-08
3.6709e-10
6.14873e-08
2.19079e-10
6.14009e-08
1.04387e-10
6.13228e-08
1.68271e-11
6.12506e-08
-4.85255e-11
6.11829e-08
-9.56201e-11
6.11194e-08
-1.28162e-10
-1.49233e-10
6.10605e-08
8.00365e-08
3.9475e-09
7.97162e-08
3.02478e-09
7.94342e-08
2.30669e-09
7.9194e-08
1.74704e-09
7.89921e-08
1.3098e-09
7.88229e-08
9.67582e-10
7.86798e-08
6.9959e-10
7.85569e-08
4.90063e-10
7.84489e-08
3.27042e-10
7.83521e-08
2.01217e-10
7.82637e-08
1.05225e-10
7.81821e-08
3.30302e-11
7.81067e-08
-2.01703e-11
7.80371e-08
-5.8549e-11
-8.54476e-11
7.79733e-08
1.00192e-07
4.16213e-09
9.99703e-08
3.24674e-09
9.97609e-08
2.51604e-09
9.9572e-08
1.93594e-09
9.94048e-08
1.47699e-09
9.92574e-08
1.11497e-09
9.91267e-08
8.30312e-10
9.90094e-08
6.0734e-10
9.89029e-08
4.33565e-10
9.88052e-08
2.98968e-10
9.87149e-08
1.955e-10
9.86313e-08
1.16607e-10
9.85541e-08
5.70309e-11
9.84833e-08
1.23002e-11
-2.06416e-11
9.84185e-08
1.24498e-07
4.30018e-09
1.24344e-07
3.40148e-09
1.24189e-07
2.67116e-09
1.24041e-07
2.08358e-09
1.23904e-07
1.6144e-09
1.23777e-07
1.24198e-09
1.23659e-07
9.47817e-10
1.2355e-07
7.16445e-10
1.23448e-07
5.35198e-10
1.23353e-07
3.9375e-10
1.23265e-07
2.83788e-10
1.23183e-07
1.98581e-10
1.23107e-07
1.32775e-10
1.23038e-07
8.20207e-11
4.29153e-11
1.22974e-07
1.53694e-07
4.38839e-09
1.53581e-07
3.51398e-09
1.53459e-07
2.79355e-09
1.53335e-07
2.20755e-09
1.53214e-07
1.73584e-09
1.53096e-07
1.35903e-09
1.52985e-07
1.05967e-09
1.52878e-07
8.22723e-10
1.52778e-07
6.35669e-10
1.52683e-07
4.88227e-10
1.52595e-07
3.72131e-10
1.52513e-07
2.80694e-10
1.52437e-07
2.08622e-10
1.52368e-07
1.51632e-10
1.06387e-10
1.52304e-07
1.8825e-07
4.41731e-09
1.88184e-07
3.57996e-09
1.88095e-07
2.88292e-09
1.87993e-07
2.3095e-09
1.87885e-07
1.84368e-09
1.87776e-07
1.46856e-09
1.87667e-07
1.16812e-09
1.87562e-07
9.28206e-10
1.87461e-07
7.36876e-10
1.87364e-07
5.84262e-10
1.87274e-07
4.62396e-10
1.8719e-07
3.64815e-10
1.87112e-07
2.86404e-10
1.87041e-07
2.23038e-10
1.71503e-10
1.86976e-07
2.28257e-07
4.36833e-09
2.28252e-07
3.58532e-09
2.28207e-07
2.92734e-09
2.28138e-07
2.3792e-09
2.28052e-07
1.9292e-09
2.27958e-07
1.56312e-09
2.27859e-07
1.26691e-09
2.27759e-07
1.02771e-09
2.27662e-07
8.3464e-10
2.27567e-07
6.78541e-10
2.27478e-07
5.51985e-10
2.27394e-07
4.48926e-10
2.27316e-07
3.64551e-10
2.27244e-07
2.94972e-10
2.37163e-10
2.27178e-07
2.73275e-07
4.2354e-09
2.73338e-07
3.52252e-09
2.73348e-07
2.91746e-09
2.7332e-07
2.40734e-09
2.73265e-07
1.98348e-09
2.73194e-07
1.6345e-09
2.73112e-07
1.34856e-09
2.73025e-07
1.11467e-09
2.72937e-07
9.23219e-10
2.72849e-07
7.6609e-10
2.72765e-07
6.366e-10
2.72684e-07
5.29273e-10
2.72609e-07
4.39707e-10
2.7254e-07
3.64353e-10
3.00499e-10
2.72476e-07
3.21881e-07
4.006e-09
3.22021e-07
3.38189e-09
3.22096e-07
2.84301e-09
3.2212e-07
2.38298e-09
3.22108e-07
1.99578e-09
3.2207e-07
1.67255e-09
3.22014e-07
1.40391e-09
3.21948e-07
1.18079e-09
3.21876e-07
9.95242e-10
3.21802e-07
8.40361e-10
3.21728e-07
7.10392e-10
3.21657e-07
6.00616e-10
3.21589e-07
5.07154e-10
3.21527e-07
4.26874e-10
3.5733e-10
3.2147e-07
3.70954e-07
3.66756e-09
3.71191e-07
3.14471e-09
3.71348e-07
2.68542e-09
3.71444e-07
2.2871e-09
3.71493e-07
1.94684e-09
3.71507e-07
1.65843e-09
3.71496e-07
1.41476e-09
3.71468e-07
1.20888e-09
3.71429e-07
1.03445e-09
3.71384e-07
8.86003e-10
3.71335e-07
7.58887e-10
3.71286e-07
6.49212e-10
3.7124e-07
5.53771e-10
3.71197e-07
4.69941e-10
3.95655e-10
3.71158e-07
3.6846e-07
3.29384e-09
3.68741e-07
2.86403e-09
3.68946e-07
2.48084e-09
3.69089e-07
2.14367e-09
3.69185e-07
1.85139e-09
3.69243e-07
1.59975e-09
3.69274e-07
1.38352e-09
3.69286e-07
1.19747e-09
3.69284e-07
1.03678e-09
3.69272e-07
8.97211e-10
3.69256e-07
7.7514e-10
3.69238e-07
6.67488e-10
3.6922e-07
5.71703e-10
3.69204e-07
4.85649e-10
4.07803e-10
3.69192e-07
3.15736e-07
2.88707e-09
3.16056e-07
2.54408e-09
3.16304e-07
2.23306e-09
3.16492e-07
1.95582e-09
3.16631e-07
1.712e-09
3.16732e-07
1.49875e-09
3.16803e-07
1.31237e-09
3.16852e-07
1.1491e-09
3.16883e-07
1.00539e-09
3.16902e-07
8.78114e-10
3.16913e-07
7.64544e-10
3.16918e-07
6.62356e-10
3.1692e-07
5.69606e-10
3.16921e-07
4.84677e-10
4.06226e-10
3.16922e-07
2.64277e-07
2.51349e-09
2.64584e-07
2.23705e-09
2.64834e-07
1.98316e-09
2.65035e-07
1.75454e-09
2.65196e-07
1.55094e-09
2.65324e-07
1.37034e-09
2.65427e-07
1.21004e-09
2.65509e-07
1.0673e-09
2.65574e-07
9.39498e-10
2.65628e-07
8.24288e-10
2.65673e-07
7.19664e-10
2.65712e-07
6.23851e-10
2.65746e-07
5.35358e-10
2.65778e-07
4.52982e-10
3.75783e-10
2.65808e-07
2.17673e-07
2.16094e-09
2.17971e-07
1.93888e-09
2.18221e-07
1.73304e-09
2.1843e-07
1.54576e-09
2.18604e-07
1.37692e-09
2.18749e-07
1.22507e-09
2.18871e-07
1.08828e-09
2.18974e-07
9.64525e-10
2.19062e-07
8.51909e-10
2.19137e-07
7.48706e-10
2.19203e-07
6.53431e-10
2.19262e-07
5.64785e-10
2.19316e-07
4.81693e-10
2.19366e-07
4.03244e-10
3.28734e-10
2.19413e-07
1.76898e-07
1.82475e-09
1.77188e-07
1.64818e-09
1.77438e-07
1.48324e-09
1.77652e-07
1.33161e-09
1.77836e-07
1.19324e-09
1.77994e-07
1.06705e-09
1.78131e-07
9.51675e-10
1.78249e-07
8.45682e-10
1.78354e-07
7.47723e-10
1.78446e-07
6.56568e-10
1.78528e-07
5.7116e-10
1.78602e-07
4.90585e-10
1.7867e-07
4.14101e-10
1.78732e-07
3.41071e-10
2.71001e-10
1.7879e-07
1.42135e-07
1.50797e-09
1.42413e-07
1.3697e-09
1.42657e-07
1.23953e-09
1.4287e-07
1.11863e-09
1.43056e-07
1.00689e-09
1.4322e-07
9.03548e-10
1.43364e-07
8.0767e-10
1.43491e-07
7.18281e-10
1.43605e-07
6.34468e-10
1.43706e-07
5.55393e-10
1.43797e-07
4.80344e-10
1.43878e-07
4.08709e-10
1.43952e-07
3.40017e-10
1.4402e-07
2.73845e-10
2.09866e-10
1.44081e-07
1.13058e-07
1.21711e-09
1.13317e-07
1.1109e-09
1.13546e-07
1.01006e-09
1.1375e-07
9.15401e-10
1.1393e-07
8.26754e-10
1.1409e-07
7.43605e-10
1.14232e-07
6.65357e-10
1.14359e-07
5.91396e-10
1.14472e-07
5.21129e-10
1.14574e-07
4.54028e-10
1.14664e-07
3.89639e-10
1.14745e-07
3.27597e-10
1.14818e-07
2.67598e-10
1.14882e-07
2.09415e-10
1.52873e-10
1.14939e-07
8.90772e-08
9.58533e-10
8.93094e-08
8.78765e-10
8.95171e-08
8.02326e-10
8.97027e-08
7.29777e-10
8.98686e-08
6.60889e-10
9.00168e-08
5.95361e-10
9.01493e-08
5.32859e-10
9.02677e-08
4.73027e-10
9.03733e-08
4.15509e-10
9.04674e-08
3.60001e-10
9.05508e-08
3.06243e-10
9.06243e-08
2.54041e-10
9.06887e-08
2.03239e-10
9.07444e-08
1.53692e-10
1.05403e-10
9.07919e-08
6.95122e-08
7.36227e-10
6.97131e-08
6.77814e-10
6.98942e-08
6.21317e-10
7.00569e-08
5.67042e-10
7.0203e-08
5.14756e-10
7.0334e-08
4.64338e-10
7.04513e-08
4.15634e-10
7.05558e-08
3.68461e-10
7.06487e-08
3.22632e-10
7.07307e-08
2.77998e-10
7.08025e-08
2.34438e-10
7.08647e-08
1.91866e-10
7.09177e-08
1.5024e-10
7.09619e-08
1.09491e-10
6.96803e-11
7.09976e-08
5.36923e-08
5.51125e-10
5.38606e-08
5.09542e-10
5.40129e-08
4.6897e-10
5.41505e-08
4.29452e-10
5.42744e-08
3.90813e-10
5.43857e-08
3.5306e-10
5.44852e-08
3.1615e-10
5.45737e-08
2.8001e-10
5.46517e-08
2.44567e-10
5.47199e-08
2.09771e-10
5.47788e-08
1.75589e-10
5.48287e-08
1.42005e-10
5.48699e-08
1.09039e-10
5.49026e-08
7.67065e-11
4.50047e-11
5.49273e-08
4.10036e-08
4.01492e-10
4.11403e-08
3.72818e-10
4.12647e-08
3.44621e-10
4.13774e-08
3.16707e-10
4.14792e-08
2.89002e-10
4.15707e-08
2.61585e-10
4.16524e-08
2.34471e-10
4.17247e-08
2.07653e-10
4.17882e-08
1.81126e-10
4.1843e-08
1.54896e-10
4.18897e-08
1.28981e-10
4.19283e-08
1.03402e-10
4.19591e-08
7.82136e-11
4.19823e-08
5.34501e-11
2.91612e-11
4.19982e-08
3.09058e-08
2.83805e-10
3.10139e-08
2.64744e-10
3.11127e-08
2.45865e-10
3.12025e-08
2.26811e-10
3.12839e-08
2.07621e-10
3.13571e-08
1.88394e-10
3.14224e-08
1.69167e-10
3.14801e-08
1.49968e-10
3.15304e-08
1.30825e-10
3.15735e-08
1.11772e-10
3.16097e-08
9.28475e-11
3.1639e-08
7.40925e-11
3.16616e-08
5.55667e-11
3.16778e-08
3.73137e-11
1.93964e-11
3.16875e-08
2.29338e-08
1.93657e-10
2.30171e-08
1.81522e-10
2.30935e-08
1.69415e-10
2.31634e-08
1.56919e-10
2.32269e-08
1.44158e-10
2.3284e-08
1.31214e-10
2.33351e-08
1.18129e-10
2.33801e-08
1.04943e-10
2.34192e-08
9.16953e-11
2.34526e-08
7.84272e-11
2.34802e-08
6.51818e-11
2.35023e-08
5.20037e-11
2.3519e-08
3.89487e-11
2.35302e-08
2.60567e-11
1.3377e-11
2.35362e-08
1.66926e-08
1.26466e-10
1.6755e-08
1.19131e-10
1.68126e-08
1.11759e-10
1.68656e-08
1.03957e-10
1.69138e-08
9.58849e-11
1.69575e-08
8.75946e-11
1.69965e-08
7.91239e-11
1.70309e-08
7.05108e-11
1.70608e-08
6.1792e-11
1.70862e-08
5.30067e-11
1.71072e-08
4.41927e-11
1.71238e-08
3.53895e-11
1.71361e-08
2.6644e-11
1.71442e-08
1.79864e-11
9.45193e-12
1.71481e-08
1.18497e-08
7.79154e-11
1.18951e-08
7.37602e-11
1.19373e-08
6.95568e-11
1.19763e-08
6.49876e-11
1.2012e-08
6.02024e-11
1.20443e-08
5.52242e-11
1.20734e-08
5.00821e-11
1.20991e-08
4.48059e-11
1.21214e-08
3.94247e-11
1.21405e-08
3.39691e-11
1.21562e-08
2.84683e-11
1.21686e-08
2.29525e-11
1.21778e-08
1.74576e-11
1.21838e-08
1.20059e-11
6.62417e-12
1.21866e-08
8.12821e-09
4.41751e-11
8.15996e-09
4.20119e-11
8.18969e-09
3.98231e-11
8.2173e-09
3.73788e-11
8.24271e-09
3.47883e-11
8.26588e-09
3.20556e-11
8.28676e-09
2.92008e-11
8.30532e-09
2.62437e-11
8.32154e-09
2.32042e-11
8.33541e-09
2.01032e-11
8.34692e-09
1.69602e-11
8.35608e-09
1.37958e-11
8.3629e-09
1.06341e-11
8.36741e-09
7.49175e-12
4.39053e-12
8.36965e-09
5.29889e-09
2.198e-11
5.31993e-09
2.09793e-11
5.33976e-09
1.99889e-11
5.35828e-09
1.88545e-11
5.37544e-09
1.76359e-11
5.39116e-09
1.633e-11
5.40541e-09
1.49484e-11
5.41816e-09
1.35027e-11
5.42936e-09
1.20041e-11
5.43899e-09
1.04649e-11
5.44706e-09
8.89616e-12
5.45354e-09
7.30996e-12
5.45846e-09
5.71977e-12
5.46181e-09
4.13734e-12
2.57991e-12
5.46362e-09
3.17398e-09
8.61881e-12
3.18672e-09
8.23412e-12
3.19882e-09
7.88834e-12
3.2102e-09
7.48341e-12
3.22079e-09
7.0393e-12
3.23057e-09
6.55357e-12
3.23949e-09
6.03166e-12
3.24751e-09
5.47878e-12
3.25461e-09
4.90013e-12
3.26078e-09
4.30126e-12
3.26599e-09
3.68703e-12
3.27023e-09
3.06316e-12
3.27352e-09
2.43506e-12
3.27585e-09
1.80977e-12
1.19997e-12
3.27723e-09
1.60085e-09
1.88212e-12
1.6073e-09
1.77975e-12
1.61347e-09
1.71941e-12
1.61931e-09
1.64616e-12
1.62479e-09
1.56113e-12
1.62988e-09
1.46425e-12
1.63455e-09
1.35719e-12
1.63879e-09
1.24149e-12
1.64257e-09
1.11861e-12
1.64588e-09
9.90095e-13
1.64871e-09
8.5717e-13
1.65105e-09
7.21474e-13
1.6529e-09
5.84072e-13
1.65427e-09
4.47421e-13
3.19372e-13
1.65515e-09
4.56522e-10
4.58302e-10
4.60021e-10
4.61667e-10
4.63228e-10
4.64692e-10
4.6605e-10
4.67291e-10
4.6841e-10
4.694e-10
4.70257e-10
4.70979e-10
4.71563e-10
4.7201e-10
4.72329e-10
1.17144e-09
-4.95964e-10
3.06497e-10
1.44095e-09
-4.42171e-10
1.72659e-10
1.71073e-09
-3.22167e-10
5.23853e-11
1.97491e-09
-1.95624e-10
-6.85501e-11
2.23208e-09
-6.60949e-11
-1.91075e-10
2.48336e-09
6.15711e-11
-3.12854e-10
2.73063e-09
1.88327e-10
-4.35597e-10
2.97552e-09
3.16097e-10
-5.60989e-10
3.21939e-09
4.47102e-10
-6.90972e-10
3.46331e-09
5.83838e-10
-8.27753e-10
3.70811e-09
7.29222e-10
-9.74024e-10
3.95455e-09
8.86925e-10
-1.13337e-09
4.20345e-09
1.06192e-09
-1.31082e-09
4.45586e-09
1.26127e-09
-1.51368e-09
4.71343e-09
1.49339e-09
-1.75096e-09
4.97872e-09
1.76867e-09
-2.03396e-09
5.25532e-09
2.10046e-09
-2.37707e-09
5.54842e-09
2.50266e-09
-2.79576e-09
5.86513e-09
2.97986e-09
-3.29657e-09
6.21429e-09
3.52046e-09
-3.86962e-09
6.60423e-09
4.05694e-09
-4.44688e-09
7.03772e-09
4.43e-09
-4.86349e-09
7.43696e-09
3.7232e-09
-4.12244e-09
7.76511e-09
2.47313e-09
-2.80128e-09
8.01909e-09
1.14209e-09
-1.39608e-09
8.2008e-09
-1.38177e-10
-4.35338e-11
8.31472e-09
-1.29419e-09
1.18028e-09
8.36631e-09
-2.29054e-09
2.23895e-09
8.36068e-09
-3.10999e-09
3.11562e-09
8.30224e-09
-3.74549e-09
3.80393e-09
8.19497e-09
-4.19599e-09
4.30326e-09
8.04269e-09
-4.46391e-09
4.61619e-09
7.84924e-09
-4.55456e-09
4.748e-09
7.6185e-09
-4.47601e-09
4.70676e-09
7.35417e-09
-4.23893e-09
4.50326e-09
7.05957e-09
-3.85568e-09
4.15028e-09
6.73739e-09
-3.33897e-09
3.66115e-09
6.38968e-09
-2.69961e-09
3.04732e-09
6.01801e-09
-1.94354e-09
2.31521e-09
5.623e-09
-1.06969e-09
1.46469e-09
5.20161e-09
-7.51306e-11
4.96526e-10
4.7414e-09
1.02253e-09
-5.62321e-10
4.21936e-09
2.12102e-09
-1.59898e-09
3.63908e-09
2.9694e-09
-2.38912e-09
2.8609e-09
3.29339e-09
-2.51522e-09
2.43223e-09
-5.69053e-10
2.58876e-09
-5.98702e-10
2.80159e-09
-5.34997e-10
3.03912e-09
-4.33154e-10
3.28779e-09
-3.14773e-10
3.54081e-09
-1.91446e-10
3.79587e-09
-6.67292e-11
4.0524e-09
5.95686e-11
4.31055e-09
1.88951e-10
4.57074e-09
3.23644e-10
4.83348e-09
4.66481e-10
5.09936e-09
6.21044e-10
5.36915e-09
7.92131e-10
5.64393e-09
9.86487e-10
5.92545e-09
1.21188e-09
6.21645e-09
1.47767e-09
6.52077e-09
1.79614e-09
6.84388e-09
2.17955e-09
7.19334e-09
2.6304e-09
7.57847e-09
3.13533e-09
8.00815e-09
3.62726e-09
8.4855e-09
3.95266e-09
8.92569e-09
3.283e-09
9.28878e-09
2.11005e-09
9.57146e-09
8.59414e-10
9.77551e-09
-3.4223e-10
9.90552e-09
-1.4242e-09
9.96729e-09
-2.35232e-09
9.96641e-09
-3.10911e-09
9.9079e-09
-3.68697e-09
9.79641e-09
-4.0845e-09
9.6366e-09
-4.3041e-09
9.43327e-09
-4.35122e-09
9.19143e-09
-4.23417e-09
8.91623e-09
-3.96373e-09
8.61285e-09
-3.5523e-09
8.28655e-09
-3.01267e-09
7.94311e-09
-2.35617e-09
7.5901e-09
-1.59053e-09
7.23875e-09
-7.18338e-10
6.90572e-09
2.57902e-10
6.61355e-09
1.3147e-09
6.39218e-09
2.34239e-09
6.28975e-09
3.07182e-09
2.93264e-09
6.21802e-09
4.22675e-09
-5.79267e-10
4.2918e-09
-6.63755e-10
4.42293e-09
-6.66123e-10
4.60502e-09
-6.15239e-10
4.81847e-09
-5.28223e-10
5.05125e-09
-4.24233e-10
5.29661e-09
-3.12082e-10
5.55081e-09
-1.94639e-10
5.81197e-09
-7.2205e-11
6.07921e-09
5.63996e-11
6.35227e-09
1.93422e-10
6.63128e-09
3.42033e-10
6.91678e-09
5.0664e-10
7.20969e-09
6.93569e-10
7.5118e-09
9.09772e-10
7.826e-09
1.16347e-09
8.15628e-09
1.46586e-09
8.50836e-09
1.82748e-09
8.89014e-09
2.24861e-09
9.31139e-09
2.71408e-09
9.7814e-09
3.15725e-09
1.03036e-08
3.4305e-09
1.07859e-08
2.80069e-09
1.11851e-08
1.71077e-09
1.14978e-08
5.4676e-10
1.17254e-08
-5.69857e-10
1.18726e-08
-1.57142e-09
1.19456e-08
-2.42524e-09
1.19503e-08
-3.11385e-09
1.18926e-08
-3.62923e-09
1.17779e-08
-3.9698e-09
1.16118e-08
-4.13806e-09
1.14005e-08
-4.13985e-09
1.11502e-08
-3.98392e-09
1.0868e-08
-3.68152e-09
1.05613e-08
-3.24562e-09
1.02385e-08
-2.68989e-09
9.90983e-09
-2.02747e-09
9.58933e-09
-1.27003e-09
9.29857e-09
-4.27579e-10
9.07035e-09
4.86123e-10
8.94908e-09
1.43598e-09
8.97474e-09
2.31673e-09
9.13829e-09
2.90826e-09
2.83406e-09
9.23687e-09
6.67959e-09
-5.52287e-10
6.68204e-09
-6.66206e-10
6.73398e-09
-7.18058e-10
6.84172e-09
-7.22978e-10
6.99638e-09
-6.82887e-10
7.18478e-09
-6.12628e-10
7.39836e-09
-5.25667e-10
7.63091e-09
-4.27187e-10
7.87836e-09
-3.19659e-10
8.13826e-09
-2.03495e-10
8.4092e-09
-7.7521e-11
8.6906e-09
6.06375e-11
8.98252e-09
2.14717e-10
9.28563e-09
3.90461e-10
9.60158e-09
5.93813e-10
9.93338e-09
8.31679e-10
1.02851e-08
1.11413e-09
1.06626e-08
1.44998e-09
1.10741e-08
1.83714e-09
1.15296e-08
2.25858e-09
1.20387e-08
2.64817e-09
1.26048e-08
2.86435e-09
1.31289e-08
2.27662e-09
1.35643e-08
1.27533e-09
1.39072e-08
2.03906e-10
1.41587e-08
-8.21425e-10
1.43236e-08
-1.73626e-09
1.44081e-08
-2.50976e-09
1.4419e-08
-3.12473e-09
1.43627e-08
-3.57298e-09
1.42459e-08
-3.85292e-09
1.40752e-08
-3.9674e-09
1.38582e-08
-3.92281e-09
1.36029e-08
-3.72868e-09
1.33185e-08
-3.3971e-09
1.3015e-08
-2.94211e-09
1.27041e-08
-2.37903e-09
1.24005e-08
-1.72382e-09
1.21237e-08
-9.93251e-10
1.1902e-08
-2.05894e-10
1.17747e-08
6.13412e-10
1.17889e-08
1.42179e-09
1.19736e-08
2.13207e-09
1.22884e-08
2.59341e-09
2.60932e-09
1.25132e-08
9.95971e-09
-5.07996e-10
9.9207e-09
-6.27199e-10
9.9122e-09
-7.09556e-10
9.94632e-09
-7.57097e-10
1.00271e-08
-7.63651e-10
1.01513e-08
-7.36857e-10
1.03109e-08
-6.85237e-10
1.04995e-08
-6.15848e-10
1.07123e-08
-5.32401e-10
1.09455e-08
-4.36692e-10
1.11967e-08
-3.28753e-10
1.14646e-08
-2.07254e-10
1.17487e-08
-6.93777e-11
1.20493e-08
8.99024e-11
1.23678e-08
2.75281e-10
1.27073e-08
4.92125e-10
1.3072e-08
7.49439e-10
1.34677e-08
1.05429e-09
1.39029e-08
1.40201e-09
1.43876e-08
1.77381e-09
1.49317e-08
2.10413e-09
1.55383e-08
2.25773e-09
1.61014e-08
1.71347e-09
1.65711e-08
8.05621e-10
1.69429e-08
-1.67819e-10
1.72175e-08
-1.09603e-09
1.73994e-08
-1.91814e-09
1.74952e-08
-2.60558e-09
1.75123e-08
-3.1418e-09
1.7458e-08
-3.51868e-09
1.734e-08
-3.73492e-09
1.71665e-08
-3.79394e-09
1.69466e-08
-3.70295e-09
1.66905e-08
-3.4725e-09
1.64092e-08
-3.11589e-09
1.61158e-08
-2.64867e-09
1.5825e-08
-2.08826e-09
1.5555e-08
-1.45382e-09
1.53287e-08
-7.66882e-10
1.51758e-08
-5.30246e-11
1.51323e-08
6.56878e-10
1.52351e-08
1.31905e-09
1.54965e-08
1.87059e-09
1.58662e-08
2.22375e-09
2.29064e-09
1.61849e-08
1.42655e-08
-4.57913e-10
1.42054e-08
-5.67104e-10
1.41568e-08
-6.60969e-10
1.41323e-08
-7.32657e-10
1.41434e-08
-7.74715e-10
1.41947e-08
-7.88149e-10
1.42847e-08
-7.75273e-10
1.441e-08
-7.41154e-10
1.45668e-08
-6.89173e-10
1.47517e-08
-6.21568e-10
1.4962e-08
-5.39109e-10
1.51962e-08
-4.41398e-10
1.54534e-08
-3.26583e-10
1.57336e-08
-1.90339e-10
1.60384e-08
-2.94522e-11
1.63708e-08
1.59687e-10
1.67351e-08
3.85176e-10
1.7137e-08
6.52339e-10
1.75853e-08
9.53735e-10
1.80901e-08
1.26899e-09
1.86609e-08
1.53332e-09
1.93006e-08
1.61808e-09
1.98968e-08
1.11724e-09
2.03961e-08
3.06345e-10
2.0793e-08
-5.6474e-10
2.10878e-08
-1.39081e-09
2.12845e-08
-2.11486e-09
2.139e-08
-2.71112e-09
2.14124e-08
-3.16414e-09
2.13599e-08
-3.46619e-09
2.12415e-08
-3.61656e-09
2.10671e-08
-3.61951e-09
2.08475e-08
-3.4833e-09
2.05947e-08
-3.21973e-09
2.03224e-08
-2.84355e-09
2.00457e-08
-2.37201e-09
1.97821e-08
-1.82464e-09
1.95516e-08
-1.22331e-09
1.93775e-08
-5.92824e-10
1.9286e-08
3.8506e-11
1.93045e-08
6.3834e-10
1.9454e-08
1.16952e-09
1.97338e-08
1.59088e-09
2.00985e-08
1.85905e-09
1.94266e-09
2.04464e-08
1.98336e-08
-4.0747e-10
1.97674e-08
-5.00952e-10
1.96979e-08
-5.91478e-10
1.96363e-08
-6.71064e-10
1.95947e-08
-7.33077e-10
1.9581e-08
-7.74508e-10
1.96001e-08
-7.94347e-10
1.96531e-08
-7.94126e-10
1.97395e-08
-7.75561e-10
1.98581e-08
-7.40143e-10
2.00074e-08
-6.88495e-10
2.01867e-08
-6.20656e-10
2.03956e-08
-5.35492e-10
2.06343e-08
-4.29069e-10
2.09047e-08
-2.99832e-10
2.12105e-08
-1.46092e-10
2.15559e-08
3.97426e-11
2.1947e-08
2.61317e-10
2.23926e-08
5.08133e-10
2.29029e-08
7.58636e-10
2.34871e-08
9.49099e-10
2.41473e-08
9.57923e-10
2.47661e-08
4.98425e-10
2.52865e-08
-2.14038e-10
2.57017e-08
-9.79981e-10
2.60111e-08
-1.70014e-09
2.62181e-08
-2.32191e-09
2.633e-08
-2.823e-09
2.63553e-08
-3.18946e-09
2.63035e-08
-3.41436e-09
2.61849e-08
-3.49796e-09
2.60109e-08
-3.4456e-09
2.57944e-08
-3.26677e-09
2.55493e-08
-2.97464e-09
2.52912e-08
-2.58542e-09
2.50371e-08
-2.1179e-09
2.48056e-08
-1.59319e-09
2.4617e-08
-1.03466e-09
2.44921e-08
-4.67899e-10
2.4451e-08
7.95945e-11
2.45101e-08
5.79173e-10
2.46766e-08
1.00302e-09
2.49407e-08
1.32679e-09
2.5267e-08
1.53274e-09
1.61512e-09
2.55946e-08
2.69449e-08
-3.57074e-10
2.68789e-08
-4.34899e-10
2.68025e-08
-5.1516e-10
2.67234e-08
-5.91965e-10
2.66504e-08
-6.60029e-10
2.65914e-08
-7.1554e-10
2.65533e-08
-7.5623e-10
2.65406e-08
-7.81419e-10
2.65562e-08
-7.91182e-10
2.6602e-08
-7.8589e-10
2.66789e-08
-7.65414e-10
2.6788e-08
-7.29749e-10
2.69306e-08
-6.78114e-10
2.71079e-08
-6.0639e-10
2.73229e-08
-5.14853e-10
2.75807e-08
-4.03811e-10
2.78858e-08
-2.65405e-10
2.82447e-08
-9.75831e-11
2.86671e-08
8.57287e-11
2.91633e-08
2.62472e-10
2.97419e-08
3.70461e-10
3.04041e-08
2.95734e-10
3.10297e-08
-1.27116e-10
3.15581e-08
-7.42452e-10
3.19808e-08
-1.40268e-09
3.22956e-08
-2.01499e-09
3.25056e-08
-2.53193e-09
3.26181e-08
-2.93545e-09
3.26422e-08
-3.21361e-09
3.25886e-08
-3.36067e-09
3.24688e-08
-3.37824e-09
3.22962e-08
-3.273e-09
3.20852e-08
-3.0557e-09
3.18514e-08
-2.74082e-09
3.16117e-08
-2.34578e-09
3.13842e-08
-1.89038e-09
3.11873e-08
-1.39629e-09
3.10393e-08
-8.86651e-10
3.09569e-08
-3.85502e-10
3.09532e-08
8.32503e-11
3.10352e-08
4.97256e-10
3.12003e-08
8.37901e-10
3.14346e-08
1.09243e-09
3.17114e-08
1.25597e-09
1.33268e-09
3.19938e-08
3.59266e-08
-3.0427e-10
3.58605e-08
-3.68826e-10
3.5783e-08
-4.37624e-10
3.56979e-08
-5.06889e-10
3.56107e-08
-5.72768e-10
3.55271e-08
-6.31992e-10
3.54531e-08
-6.82211e-10
3.53937e-08
-7.22043e-10
3.53533e-08
-7.50784e-10
3.53357e-08
-7.68238e-10
3.53439e-08
-7.7365e-10
3.53812e-08
-7.67049e-10
3.54511e-08
-7.47956e-10
3.55561e-08
-7.11486e-10
3.57015e-08
-6.60224e-10
3.58942e-08
-5.96515e-10
3.61398e-08
-5.11031e-10
3.64457e-08
-4.0341e-10
3.68229e-08
-2.91507e-10
3.72822e-08
-1.96843e-10
3.78321e-08
-1.794e-10
3.84726e-08
-3.44811e-10
3.90838e-08
-7.38257e-10
3.96024e-08
-1.26104e-09
4.00174e-08
-1.81776e-09
4.03251e-08
-2.32261e-09
4.05275e-08
-2.73439e-09
4.06323e-08
-3.0402e-09
4.06491e-08
-3.23049e-09
4.05896e-08
-3.30109e-09
4.04667e-08
-3.25541e-09
4.02953e-08
-3.10158e-09
4.00912e-08
-2.85154e-09
3.98711e-08
-2.52075e-09
3.96527e-08
-2.12735e-09
3.94535e-08
-1.69121e-09
3.92905e-08
-1.23331e-09
3.91788e-08
-7.7493e-10
3.91301e-08
-3.36769e-10
3.9151e-08
6.23285e-11
3.92418e-08
4.06411e-10
3.93952e-08
6.84488e-10
3.95966e-08
8.91085e-10
3.98254e-08
1.02711e-09
1.0994e-09
4.00587e-08
4.71455e-08
-2.4658e-10
4.70772e-08
-3.00484e-10
4.69985e-08
-3.58978e-10
4.69114e-08
-4.19783e-10
4.68189e-08
-4.8025e-10
4.67247e-08
-5.3786e-10
4.66331e-08
-5.90587e-10
4.65481e-08
-6.37014e-10
4.64736e-08
-6.76249e-10
4.64134e-08
-7.08111e-10
4.63714e-08
-7.31619e-10
4.63517e-08
-7.47307e-10
4.63591e-08
-7.55358e-10
4.63974e-08
-7.49828e-10
4.64738e-08
-7.36646e-10
4.65975e-08
-7.20201e-10
4.67748e-08
-6.88356e-10
4.70146e-08
-6.432e-10
4.73302e-08
-6.07116e-10
4.7733e-08
-5.99627e-10
4.82315e-08
-6.77843e-10
4.88251e-08
-9.38424e-10
4.93978e-08
-1.31094e-09
4.98854e-08
-1.74868e-09
5.02745e-08
-2.20689e-09
5.05591e-08
-2.60723e-09
5.07409e-08
-2.91615e-09
5.08276e-08
-3.12692e-09
5.08296e-08
-3.23241e-09
5.07589e-08
-3.23039e-09
5.06299e-08
-3.1265e-09
5.04587e-08
-2.93035e-09
5.02619e-08
-2.65473e-09
5.00567e-08
-2.31557e-09
4.98603e-08
-1.93091e-09
4.96888e-08
-1.51972e-09
4.95565e-08
-1.10101e-09
4.94745e-08
-6.92987e-10
4.94499e-08
-3.12098e-10
4.94841e-08
2.80929e-11
4.9574e-08
3.1656e-10
4.97102e-08
5.48284e-10
4.98795e-08
7.21761e-10
5.00665e-08
8.40129e-10
9.10121e-10
5.02557e-08
6.09974e-08
-1.83491e-10
6.09259e-08
-2.2896e-10
6.08458e-08
-2.78848e-10
6.07579e-08
-3.31878e-10
6.0664e-08
-3.86349e-10
6.05666e-08
-4.40458e-10
6.04686e-08
-4.92604e-10
6.03731e-08
-5.41558e-10
6.02833e-08
-5.86422e-10
6.02024e-08
-6.27191e-10
6.01336e-08
-6.62866e-10
6.00809e-08
-6.94592e-10
6.0049e-08
-7.23458e-10
6.00421e-08
-7.4293e-10
6.00683e-08
-7.62769e-10
6.01367e-08
-7.88611e-10
6.0254e-08
-8.05674e-10
6.0431e-08
-8.20242e-10
6.06829e-08
-8.58991e-10
6.10212e-08
-9.3792e-10
6.14543e-08
-1.11098e-09
6.19814e-08
-1.46548e-09
6.24942e-08
-1.82375e-09
6.29306e-08
-2.18511e-09
6.32754e-08
-2.55167e-09
6.35206e-08
-2.85248e-09
6.3668e-08
-3.06355e-09
6.37261e-08
-3.18498e-09
6.37052e-08
-3.21154e-09
6.36181e-08
-3.14329e-09
6.34802e-08
-2.98852e-09
6.33079e-08
-2.7581e-09
6.31183e-08
-2.46511e-09
6.2928e-08
-2.12526e-09
6.27527e-08
-1.75564e-09
6.26063e-08
-1.37329e-09
6.24996e-08
-9.9438e-10
6.24401e-08
-6.33479e-10
6.24308e-08
-3.02803e-10
6.24693e-08
-1.03158e-11
6.25518e-08
2.3406e-10
6.26683e-08
4.31697e-10
6.28081e-08
5.82049e-10
6.29593e-08
6.88913e-10
7.58084e-10
6.31113e-08
7.79069e-08
-1.17099e-10
7.7834e-08
-1.56056e-10
7.77542e-08
-1.99107e-10
7.7668e-08
-2.45635e-10
7.75763e-08
-2.94664e-10
7.74809e-08
-3.45056e-10
7.7384e-08
-3.95678e-10
7.72881e-08
-4.45644e-10
7.71959e-08
-4.94211e-10
7.71101e-08
-5.41433e-10
7.70339e-08
-5.86717e-10
7.69707e-08
-6.31317e-10
7.69236e-08
-6.76353e-10
7.68992e-08
-7.18587e-10
7.69041e-08
-7.67674e-10
7.69412e-08
-8.25684e-10
7.70209e-08
-8.85416e-10
7.71569e-08
-9.5624e-10
7.73615e-08
-1.06354e-09
7.76451e-08
-1.22155e-09
7.80154e-08
-1.48126e-09
7.84702e-08
-1.9203e-09
7.8912e-08
-2.26548e-09
7.92842e-08
-2.55739e-09
7.95714e-08
-2.83881e-09
7.97646e-08
-3.04568e-09
7.98672e-08
-3.16617e-09
7.98889e-08
-3.20668e-09
7.98398e-08
-3.16242e-09
7.9733e-08
-3.03652e-09
7.95847e-08
-2.84015e-09
7.94113e-08
-2.58475e-09
7.92292e-08
-2.283e-09
7.90536e-08
-1.94968e-09
7.8898e-08
-1.60007e-09
7.87733e-08
-1.24859e-09
7.86871e-08
-9.08124e-10
7.86432e-08
-5.89553e-10
7.86417e-08
-3.0131e-10
7.86801e-08
-4.87018e-11
7.87513e-08
1.62816e-10
7.8848e-08
3.35022e-10
7.89611e-08
4.68933e-10
7.90819e-08
5.68104e-10
6.37266e-10
7.92027e-08
9.83524e-08
-5.10011e-11
9.82816e-08
-8.52835e-11
9.82058e-08
-1.23331e-10
9.81252e-08
-1.64966e-10
9.80402e-08
-2.09746e-10
9.79523e-08
-2.57098e-10
9.7863e-08
-3.06383e-10
9.77744e-08
-3.5711e-10
9.76892e-08
-4.08936e-10
9.76096e-08
-4.61877e-10
9.75391e-08
-5.16157e-10
9.74808e-08
-5.73018e-10
9.7437e-08
-6.32644e-10
9.74167e-08
-6.98202e-10
9.74218e-08
-7.72771e-10
9.74509e-08
-8.54832e-10
9.75199e-08
-9.5437e-10
9.76429e-08
-1.07927e-09
9.7826e-08
-1.24663e-09
9.80771e-08
-1.47264e-09
9.84015e-08
-1.80574e-09
9.87939e-08
-2.31262e-09
9.91674e-08
-2.63902e-09
9.94747e-08
-2.86466e-09
9.97004e-08
-3.06457e-09
9.9837e-08
-3.18222e-09
9.9892e-08
-3.22118e-09
9.98762e-08
-3.19093e-09
9.97985e-08
-3.08468e-09
9.96731e-08
-2.91115e-09
9.95167e-08
-2.68374e-09
9.93449e-08
-2.41297e-09
9.91725e-08
-2.11056e-09
9.90125e-08
-1.78976e-09
9.88759e-08
-1.46348e-09
9.87705e-08
-1.14312e-09
9.87007e-08
-8.38338e-10
9.86679e-08
-5.56779e-10
9.86706e-08
-3.0399e-10
9.8705e-08
-8.30853e-11
9.87648e-08
1.03009e-10
9.88435e-08
2.56317e-10
9.8934e-08
3.7845e-10
9.90296e-08
4.72472e-10
5.42143e-10
9.91247e-08