/*--------------------------------*- C++ -*----------------------------------*\
| =========                 |                                                 |
| \\      /  F ield         | OpenFOAM: The Open Source CFD Toolbox           |
|  \\    /   O peration     | Version:  2312                                  |
|   \\  /    A nd           | Website:  www.openfoam.com                      |
|    \\/     M anipulation  |                                                 |
\*---------------------------------------------------------------------------*/
FoamFile
{
    version     2.0;
    format      ascii;
    arch        "LSB;label=32;scalar=64";
    class       surfaceScalarField;
    location    "149.25";
    object      phi;
}
// * * * * * * * * * * * * * * * * * * * * * * * * * * * * * * * * * * * * * //

dimensions      [0 3 -1 0 0 0 0];

oriented        oriented;

internalField   nonuniform List<scalar> 
9445
(
5.94725e-10
8.37481e-12
5.90708e-10
4.01609e-12
5.89265e-10
1.44306e-12
5.89494e-10
-2.2852e-13
5.90989e-10
-1.49531e-12
5.93352e-10
-2.36292e-12
5.96564e-10
-3.2116e-12
6.00732e-10
-4.16798e-12
6.06042e-10
-5.31037e-12
6.12913e-10
-6.87058e-12
6.22509e-10
-9.59653e-12
6.38504e-10
-1.59943e-11
6.73909e-10
-3.54054e-11
7.74814e-10
-1.00905e-10
-2.61529e-10
1.03634e-09
2.08065e-09
3.72323e-11
2.06609e-09
1.85742e-11
2.06007e-09
7.46712e-12
2.05963e-09
2.13015e-13
2.06324e-09
-5.10823e-12
2.06979e-09
-8.90592e-12
2.07915e-09
-1.25731e-11
2.0915e-09
-1.65169e-11
2.10738e-09
-2.11989e-11
2.12806e-09
-2.75447e-11
2.15649e-09
-3.803e-11
2.19981e-09
-5.931e-11
2.27178e-09
-1.07375e-10
2.38568e-09
-2.14809e-10
-3.81097e-10
2.50525e-09
4.11202e-09
9.30342e-11
4.08281e-09
4.77843e-11
4.06956e-09
2.07113e-11
4.06683e-09
2.94691e-12
4.07152e-09
-9.7976e-12
4.08168e-09
-1.90633e-11
4.09706e-09
-2.79519e-11
4.11764e-09
-3.71004e-11
4.14412e-09
-4.76752e-11
4.17809e-09
-6.15165e-11
4.22259e-09
-8.25369e-11
4.28247e-09
-1.19184e-10
4.36054e-09
-1.85442e-10
4.44261e-09
-2.96882e-10
-4.29492e-10
4.491e-09
6.83722e-09
1.82788e-10
6.78857e-09
9.643e-11
6.76475e-09
4.45391e-11
6.75737e-09
1.03243e-11
6.76138e-09
-1.38144e-11
6.77379e-09
-3.14672e-11
6.79407e-09
-4.82335e-11
6.82177e-09
-6.4805e-11
6.8572e-09
-8.30975e-11
6.90147e-09
-1.0579e-10
6.95596e-09
-1.37025e-10
7.0205e-09
-1.83729e-10
7.08853e-09
-2.53472e-10
7.13948e-09
-3.4783e-10
-4.40479e-10
7.15047e-09
1.04341e-08
3.12775e-10
1.03613e-08
1.69261e-10
1.03232e-08
8.2594e-11
1.03082e-08
2.53576e-11
1.03091e-08
-1.46924e-11
1.03218e-08
-4.41575e-11
1.03448e-08
-7.12261e-11
1.03771e-08
-9.71759e-11
1.04182e-08
-1.24201e-10
1.0468e-08
-1.55491e-10
1.05252e-08
-1.94231e-10
1.05855e-08
-2.44069e-10
1.06385e-08
-3.06457e-10
1.06669e-08
-3.76268e-10
-4.34244e-10
1.06607e-08
1.51104e-08
4.85881e-10
1.50103e-08
2.69344e-10
1.49551e-08
1.37779e-10
1.49294e-08
5.10627e-11
1.49245e-08
-9.7977e-12
1.49352e-08
-5.48058e-11
1.49579e-08
-9.40171e-11
1.49914e-08
-1.30595e-10
1.50337e-08
-1.66525e-10
1.50831e-08
-2.04866e-10
1.51362e-08
-2.47354e-10
1.51867e-08
-2.94572e-10
1.52247e-08
-3.44436e-10
1.52393e-08
-3.90874e-10
-4.23004e-10
1.5228e-08
2.10997e-08
6.97002e-10
2.0974e-08
3.95049e-10
2.09016e-08
2.10203e-10
2.08642e-08
8.84517e-11
2.08516e-08
2.79165e-12
2.08576e-08
-6.08486e-11
2.08775e-08
-1.1385e-10
2.09081e-08
-1.61248e-10
2.09469e-08
-2.05345e-10
2.09905e-08
-2.48459e-10
2.10343e-08
-2.91138e-10
2.1072e-08
-3.32293e-10
2.10966e-08
-3.69057e-10
2.1103e-08
-3.97186e-10
-4.11901e-10
2.10919e-08
2.86537e-08
9.26737e-10
2.85131e-08
5.35586e-10
2.84294e-08
2.9392e-10
2.83835e-08
1.34349e-10
2.83643e-08
2.198e-11
2.8365e-08
-6.15638e-11
2.83801e-08
-1.28892e-10
2.84053e-08
-1.86428e-10
2.84369e-08
-2.37032e-10
2.84709e-08
-2.82435e-10
2.85025e-08
-3.22698e-10
2.85268e-08
-3.56597e-10
2.85399e-08
-3.82197e-10
2.85404e-08
-3.97622e-10
-4.01656e-10
2.85301e-08
3.80312e-08
1.13594e-09
3.79004e-08
6.6644e-10
3.78212e-08
3.73134e-10
3.77771e-08
1.78417e-10
3.77578e-08
4.12405e-11
3.77568e-08
-6.05181e-11
3.77684e-08
-1.40539e-10
3.77881e-08
-2.06101e-10
3.78117e-08
-2.60672e-10
3.78352e-08
-3.0592e-10
3.78547e-08
-3.4219e-10
3.78672e-08
-3.69113e-10
3.78713e-08
-3.86221e-10
3.78672e-08
-3.93522e-10
-3.91619e-10
3.78571e-08
4.94973e-08
1.2681e-09
4.94148e-08
7.48902e-10
4.93672e-08
4.20676e-10
4.93443e-08
2.01314e-10
4.93388e-08
4.67443e-11
4.93457e-08
-6.73601e-11
4.93605e-08
-1.55372e-10
4.93792e-08
-2.24772e-10
4.93982e-08
-2.79686e-10
4.94145e-08
-3.22191e-10
4.94257e-08
-3.53386e-10
4.94306e-08
-3.74026e-10
4.94293e-08
-3.849e-10
4.94229e-08
-3.87167e-10
-3.82219e-10
4.94135e-08
6.33526e-08
1.26874e-09
6.33608e-08
7.40723e-10
6.33775e-08
4.03975e-10
6.34008e-08
1.77991e-10
6.34284e-08
1.9202e-11
6.34581e-08
-9.71096e-11
6.34878e-08
-1.8502e-10
6.35148e-08
-2.51844e-10
6.35374e-08
-3.02249e-10
6.35541e-08
-3.38907e-10
6.35644e-08
-3.6369e-10
6.35686e-08
-3.78227e-10
6.35678e-08
-3.8405e-10
6.35634e-08
-3.8283e-10
-3.76165e-10
6.35574e-08
8.00119e-08
1.12023e-09
8.01322e-08
6.2042e-10
8.0234e-08
3.02193e-10
8.03221e-08
8.98897e-11
8.03988e-08
-5.74248e-11
8.04655e-08
-1.63832e-10
8.0522e-08
-2.41511e-10
8.05683e-08
-2.98183e-10
8.06046e-08
-3.38573e-10
8.06316e-08
-3.65836e-10
8.06502e-08
-3.82326e-10
8.0662e-08
-3.9007e-10
8.06688e-08
-3.90838e-10
8.06723e-08
-3.8634e-10
-3.78052e-10
8.06742e-08
1.00088e-07
8.62344e-10
1.003e-07
4.0905e-10
1.00476e-07
1.25687e-10
1.00624e-07
-5.81903e-11
1.0075e-07
-1.83293e-10
1.00855e-07
-2.68933e-10
1.00942e-07
-3.28203e-10
1.01012e-07
-3.68422e-10
1.01068e-07
-3.94323e-10
1.01111e-07
-4.09269e-10
1.01145e-07
-4.15707e-10
1.0117e-07
-4.15652e-10
1.0119e-07
-4.1075e-10
1.01206e-07
-4.02469e-10
-3.91995e-10
1.0122e-07
1.24367e-07
5.65495e-10
1.24616e-07
1.60058e-10
1.24826e-07
-8.43755e-11
1.25006e-07
-2.38072e-10
1.25157e-07
-3.34941e-10
1.25284e-07
-3.96029e-10
1.2539e-07
-4.33516e-10
1.25476e-07
-4.54822e-10
1.25546e-07
-4.64701e-10
1.25604e-07
-4.66466e-10
1.2565e-07
-4.62429e-10
1.25689e-07
-4.54351e-10
1.25722e-07
-4.43577e-10
1.25751e-07
-4.31222e-10
-4.1813e-10
1.25777e-07
1.53606e-07
2.80823e-10
1.53844e-07
-7.81039e-11
1.54049e-07
-2.89264e-10
1.54224e-07
-4.12505e-10
1.54371e-07
-4.82721e-10
1.54496e-07
-5.20579e-10
1.546e-07
-5.3774e-10
1.54687e-07
-5.41623e-10
1.54759e-07
-5.37044e-10
1.5482e-07
-5.27153e-10
1.54871e-07
-5.13948e-10
1.54916e-07
-4.98902e-10
1.54955e-07
-4.83022e-10
1.54991e-07
-4.67072e-10
-4.51563e-10
1.55025e-07
1.88298e-07
2.49568e-11
1.88511e-07
-2.90816e-10
1.88689e-07
-4.67423e-10
1.88839e-07
-5.62147e-10
1.88965e-07
-6.08929e-10
1.89071e-07
-6.26615e-10
1.8916e-07
-6.26811e-10
1.89235e-07
-6.16657e-10
1.89299e-07
-6.00732e-10
1.89354e-07
-5.8185e-10
1.89401e-07
-5.61698e-10
1.89444e-07
-5.41431e-10
1.89483e-07
-5.21756e-10
1.89519e-07
-5.03152e-10
-4.85858e-10
1.89553e-07
2.28532e-07
-2.11566e-10
2.28718e-07
-4.76438e-10
2.28867e-07
-6.17076e-10
2.2899e-07
-6.85157e-10
2.29091e-07
-7.10056e-10
2.29175e-07
-7.10658e-10
2.29246e-07
-6.97331e-10
2.29306e-07
-6.76439e-10
2.29357e-07
-6.52113e-10
2.29402e-07
-6.26765e-10
2.29442e-07
-6.01781e-10
2.29479e-07
-5.77972e-10
2.29513e-07
-5.55742e-10
2.29545e-07
-5.35328e-10
-5.16792e-10
2.29576e-07
2.73826e-07
-4.30068e-10
2.73988e-07
-6.3851e-10
2.74114e-07
-7.42501e-10
2.74212e-07
-7.83726e-10
2.74292e-07
-7.89945e-10
2.74357e-07
-7.7535e-10
2.74411e-07
-7.51185e-10
2.74457e-07
-7.22208e-10
2.74496e-07
-6.91955e-10
2.74532e-07
-6.6212e-10
2.74564e-07
-6.3383e-10
2.74593e-07
-6.076e-10
2.74621e-07
-5.8364e-10
2.74648e-07
-5.61978e-10
-5.42447e-10
2.74674e-07
3.22776e-07
-6.25246e-10
3.22911e-07
-7.73831e-10
3.23009e-07
-8.39856e-10
3.23081e-07
-8.56157e-10
3.23136e-07
-8.45238e-10
3.23181e-07
-8.19821e-10
3.23216e-07
-7.86815e-10
3.23246e-07
-7.51973e-10
3.23272e-07
-7.17661e-10
3.23295e-07
-6.85054e-10
3.23316e-07
-6.5476e-10
3.23335e-07
-6.26868e-10
3.23353e-07
-6.0144e-10
3.23369e-07
-5.78434e-10
-5.57731e-10
3.23385e-07
3.72351e-07
-7.5665e-10
3.72427e-07
-8.49575e-10
3.7247e-07
-8.83173e-10
3.72495e-07
-8.81024e-10
3.72508e-07
-8.58722e-10
3.72516e-07
-8.26924e-10
3.72521e-07
-7.92264e-10
3.72525e-07
-7.56256e-10
3.72529e-07
-7.20976e-10
3.72531e-07
-6.87663e-10
3.72533e-07
-6.56784e-10
3.72535e-07
-6.2867e-10
3.72537e-07
-6.02999e-10
3.72538e-07
-5.79512e-10
-5.57932e-10
3.72538e-07
3.70149e-07
-8.33963e-10
3.70182e-07
-8.82365e-10
3.7019e-07
-8.90727e-10
3.70184e-07
-8.75007e-10
3.70172e-07
-8.47184e-10
3.70158e-07
-8.12698e-10
3.70142e-07
-7.75876e-10
3.70125e-07
-7.39594e-10
3.70109e-07
-7.04798e-10
3.70093e-07
-6.72196e-10
3.70078e-07
-6.4159e-10
3.70063e-07
-6.13248e-10
3.70046e-07
-5.8675e-10
3.70029e-07
-5.62125e-10
-5.39076e-10
3.7001e-07
3.16951e-07
-8.44373e-10
3.16934e-07
-8.6556e-10
3.16903e-07
-8.59877e-10
3.16866e-07
-8.37457e-10
3.16826e-07
-8.07201e-10
3.16786e-07
-7.72671e-10
3.16747e-07
-7.37313e-10
3.1671e-07
-7.02569e-10
3.16675e-07
-6.69209e-10
3.1664e-07
-6.37581e-10
3.16606e-07
-6.07672e-10
3.16572e-07
-5.7951e-10
3.16538e-07
-5.52895e-10
3.16504e-07
-5.27628e-10
-5.03474e-10
3.16468e-07
2.65703e-07
-8.1098e-10
2.65652e-07
-8.14729e-10
2.65593e-07
-8.00655e-10
2.65531e-07
-7.76e-10
2.6547e-07
-7.45813e-10
2.65411e-07
-7.13572e-10
2.65354e-07
-6.80906e-10
2.653e-07
-6.48612e-10
2.65249e-07
-6.17434e-10
2.65198e-07
-5.8753e-10
2.6515e-07
-5.58915e-10
2.65102e-07
-5.31479e-10
2.65054e-07
-5.05027e-10
2.65006e-07
-4.79367e-10
-4.54312e-10
2.64956e-07
2.19023e-07
-7.41149e-10
2.18944e-07
-7.36089e-10
2.18863e-07
-7.19267e-10
2.18782e-07
-6.9528e-10
2.18704e-07
-6.67737e-10
2.18629e-07
-6.38679e-10
2.18557e-07
-6.09336e-10
2.18489e-07
-5.80252e-10
2.18423e-07
-5.51869e-10
2.1836e-07
-5.24287e-10
2.18299e-07
-4.97472e-10
2.18239e-07
-4.7131e-10
2.18179e-07
-4.45674e-10
2.1812e-07
-4.20379e-10
-3.95342e-10
2.18061e-07
1.78014e-07
-6.46465e-10
1.77915e-07
-6.37818e-10
1.77817e-07
-6.21242e-10
1.77722e-07
-6.00059e-10
1.77631e-07
-5.76547e-10
1.77544e-07
-5.51922e-10
1.77462e-07
-5.26914e-10
1.77383e-07
-5.01939e-10
1.77309e-07
-4.7722e-10
1.77237e-07
-4.52825e-10
1.77168e-07
-4.28716e-10
1.77102e-07
-4.04818e-10
1.77037e-07
-3.81031e-10
1.76974e-07
-3.57263e-10
-3.33432e-10
1.76912e-07
1.42893e-07
-5.37271e-10
1.42785e-07
-5.29951e-10
1.42681e-07
-5.16793e-10
1.42581e-07
-5.00258e-10
1.42486e-07
-4.81902e-10
1.42397e-07
-4.6253e-10
1.42312e-07
-4.42588e-10
1.42233e-07
-4.22353e-10
1.42158e-07
-4.01976e-10
1.42086e-07
-3.8151e-10
1.42019e-07
-3.60924e-10
1.41954e-07
-3.40171e-10
1.41892e-07
-3.1918e-10
1.41833e-07
-2.97911e-10
-2.76331e-10
1.41776e-07
1.13423e-07
-4.29821e-10
1.13319e-07
-4.25747e-10
1.13219e-07
-4.1723e-10
1.13125e-07
-4.06114e-10
1.13036e-07
-3.93347e-10
1.12953e-07
-3.79441e-10
1.12875e-07
-3.647e-10
1.12803e-07
-3.4937e-10
1.12734e-07
-3.33582e-10
1.1267e-07
-3.17378e-10
1.1261e-07
-3.00723e-10
1.12553e-07
-2.83602e-10
1.125e-07
-2.65968e-10
1.1245e-07
-2.47826e-10
-2.29194e-10
1.12403e-07
8.91112e-08
-3.3485e-10
8.90199e-08
-3.34411e-10
8.89332e-08
-3.30493e-10
8.88515e-08
-3.24434e-10
8.87749e-08
-3.16743e-10
8.87032e-08
-3.07761e-10
8.86363e-08
-2.97765e-10
8.85739e-08
-2.86982e-10
8.85158e-08
-2.75528e-10
8.84619e-08
-2.63428e-10
8.84118e-08
-2.50652e-10
8.83654e-08
-2.37183e-10
8.83224e-08
-2.23016e-10
8.82828e-08
-2.08188e-10
-1.9274e-10
8.82463e-08
6.93333e-08
-2.56656e-10
6.92581e-08
-2.59175e-10
6.91865e-08
-2.5895e-10
6.9119e-08
-2.569e-10
6.90555e-08
-2.53248e-10
6.8996e-08
-2.48249e-10
6.89404e-08
-2.42169e-10
6.88886e-08
-2.35205e-10
6.88405e-08
-2.27454e-10
6.8796e-08
-2.18931e-10
6.8755e-08
-2.09602e-10
6.87173e-08
-1.99455e-10
6.86827e-08
-1.88499e-10
6.86513e-08
-1.768e-10
-1.6442e-10
6.8623e-08
5.34211e-08
-1.94575e-10
5.33608e-08
-1.98949e-10
5.33031e-08
-2.01223e-10
5.32481e-08
-2.01939e-10
5.3196e-08
-2.01144e-10
5.31468e-08
-1.99057e-10
5.31006e-08
-1.9592e-10
5.30573e-08
-1.91893e-10
5.30169e-08
-1.87051e-10
5.29793e-08
-1.81396e-10
5.29446e-08
-1.74899e-10
5.29127e-08
-1.67545e-10
5.28836e-08
-1.59356e-10
5.28572e-08
-1.50404e-10
-1.40759e-10
5.28335e-08
4.07312e-08
-1.45785e-10
4.06832e-08
-1.50955e-10
4.06366e-08
-1.54602e-10
4.05915e-08
-1.56925e-10
4.05483e-08
-1.57897e-10
4.0507e-08
-1.5772e-10
4.04676e-08
-1.56595e-10
4.04304e-08
-1.54644e-10
4.03953e-08
-1.51919e-10
4.03623e-08
-1.48413e-10
4.03315e-08
-1.44101e-10
4.03029e-08
-1.38969e-10
4.02766e-08
-1.33042e-10
4.02526e-08
-1.26388e-10
-1.19071e-10
4.02309e-08
3.06853e-08
-1.07306e-10
3.06468e-08
-1.12462e-10
3.06088e-08
-1.16571e-10
3.05714e-08
-1.19569e-10
3.05349e-08
-1.21429e-10
3.04995e-08
-1.22333e-10
3.04654e-08
-1.22434e-10
3.04326e-08
-1.21819e-10
3.04012e-08
-1.2052e-10
3.03713e-08
-1.18528e-10
3.0343e-08
-1.15817e-10
3.03164e-08
-1.12378e-10
3.02916e-08
-1.08233e-10
3.02686e-08
-1.03437e-10
-9.80446e-11
3.02476e-08
2.27855e-08
-7.68347e-11
2.27544e-08
-8.1451e-11
2.27232e-08
-8.53694e-11
2.26921e-08
-8.83797e-11
2.26611e-08
-9.04913e-11
2.26306e-08
-9.18527e-11
2.26008e-08
-9.25746e-11
2.25717e-08
-9.2716e-11
2.25434e-08
-9.22948e-11
2.25162e-08
-9.12989e-11
2.24901e-08
-8.97071e-11
2.24652e-08
-8.751e-11
2.24417e-08
-8.47252e-11
2.24197e-08
-8.13925e-11
-7.75559e-11
2.23992e-08
1.66142e-08
-5.28302e-11
1.65894e-08
-5.66214e-11
1.6564e-08
-5.99423e-11
1.65382e-08
-6.25539e-11
1.65122e-08
-6.45022e-11
1.64862e-08
-6.58989e-11
1.64605e-08
-6.68181e-11
1.6435e-08
-6.72982e-11
1.64101e-08
-6.73479e-11
1.63858e-08
-6.69554e-11
1.63622e-08
-6.6103e-11
1.63394e-08
-6.47817e-11
1.63177e-08
-6.30034e-11
1.62971e-08
-6.07939e-11
-5.81846e-11
1.62777e-08
1.18271e-08
-3.42806e-11
1.18076e-08
-3.71438e-11
1.17873e-08
-3.9671e-11
1.17664e-08
-4.16814e-11
1.17452e-08
-4.32401e-11
1.17237e-08
-4.44223e-11
1.17022e-08
-4.52743e-11
1.16807e-08
-4.58193e-11
1.16594e-08
-4.60614e-11
1.16384e-08
-4.59905e-11
1.16179e-08
-4.55926e-11
1.1598e-08
-4.48594e-11
1.15788e-08
-4.37979e-11
1.15604e-08
-4.2422e-11
-4.07511e-11
1.1543e-08
8.14223e-09
-2.04494e-11
8.1275e-09
-2.24119e-11
8.11195e-09
-2.41179e-11
8.09575e-09
-2.5484e-11
8.07908e-09
-2.65727e-11
8.06209e-09
-2.74281e-11
8.04489e-09
-2.80768e-11
8.0276e-09
-2.85315e-11
8.01033e-09
-2.8794e-11
7.9932e-09
-2.88568e-11
7.97632e-09
-2.871e-11
7.9598e-09
-2.83465e-11
7.94378e-09
-2.77696e-11
7.92834e-09
-2.69852e-11
-2.60016e-11
7.91359e-09
5.33107e-09
-1.07047e-11
5.32054e-09
-1.18839e-11
5.30929e-09
-1.2865e-11
5.29746e-09
-1.36549e-11
5.28519e-09
-1.42982e-11
5.27258e-09
-1.48167e-11
5.25972e-09
-1.52231e-11
5.24671e-09
-1.55235e-11
5.23364e-09
-1.57184e-11
5.22059e-09
-1.58034e-11
5.20765e-09
-1.57724e-11
5.19492e-09
-1.56201e-11
5.1825e-09
-1.53477e-11
5.17047e-09
-1.49564e-11
-1.4446e-11
5.15892e-09
3.2089e-09
-4.44115e-12
3.20203e-09
-5.01341e-12
3.19461e-09
-5.44535e-12
3.18675e-09
-5.79625e-12
3.17854e-09
-6.08841e-12
3.17005e-09
-6.32883e-12
3.16135e-09
-6.52185e-12
3.1525e-09
-6.66958e-12
3.14355e-09
-6.77205e-12
3.13457e-09
-6.82704e-12
3.12563e-09
-6.83179e-12
3.1168e-09
-6.78326e-12
3.10813e-09
-6.68175e-12
3.0997e-09
-6.52646e-12
-6.31281e-12
3.09157e-09
1.62724e-09
-1.06502e-12
1.62347e-09
-1.23993e-12
1.61936e-09
-1.34003e-12
1.61499e-09
-1.42439e-12
1.6104e-09
-1.49741e-12
1.60563e-09
-1.5591e-12
1.60072e-09
-1.60968e-12
1.5957e-09
-1.64921e-12
1.5906e-09
-1.67755e-12
1.58547e-09
-1.69407e-12
1.58034e-09
-1.69812e-12
1.57524e-09
-1.68874e-12
1.57023e-09
-1.66602e-12
1.56533e-09
-1.62905e-12
-1.57358e-12
1.56059e-09
4.67271e-10
4.66031e-10
4.64691e-10
4.63267e-10
4.61769e-10
4.6021e-10
4.586e-10
4.56951e-10
4.55274e-10
4.5358e-10
4.51881e-10
4.50193e-10
4.48527e-10
4.46898e-10
4.45324e-10
1.24055e-09
-5.00111e-10
2.95908e-10
1.53352e-09
-4.24517e-10
1.31541e-10
1.82948e-09
-2.82819e-10
-1.31343e-11
2.12136e-09
-1.41597e-10
-1.5029e-10
2.40699e-09
-7.81375e-12
-2.77817e-10
2.6868e-09
1.08934e-10
-3.88736e-10
2.96181e-09
2.05305e-10
-4.80324e-10
3.23288e-09
2.78211e-10
-5.49276e-10
3.5007e-09
3.24315e-10
-5.92137e-10
3.76581e-09
3.40474e-10
-6.0558e-10
4.02857e-09
3.23512e-10
-5.86278e-10
4.28924e-09
2.70365e-10
-5.31035e-10
4.54793e-09
1.78809e-10
-4.37493e-10
4.80468e-09
4.85825e-11
-3.05333e-10
5.05967e-09
-1.16676e-10
-1.38313e-10
5.31354e-09
-3.05352e-10
5.14834e-11
5.5679e-09
-4.94584e-10
2.40215e-10
5.82627e-09
-6.42362e-10
3.83998e-10
6.0948e-09
-6.88969e-10
4.20432e-10
6.38299e-09
-5.50516e-10
2.62334e-10
6.70241e-09
-1.50226e-10
-1.69201e-10
7.06251e-09
5.53265e-10
-9.13365e-10
7.40552e-09
1.20745e-09
-1.55046e-09
7.69855e-09
1.4767e-09
-1.76973e-09
7.9348e-09
1.42376e-09
-1.66001e-09
8.11321e-09
1.13976e-09
-1.31817e-09
8.23553e-09
7.14092e-10
-8.36409e-10
8.30404e-09
2.09818e-10
-2.7833e-10
8.32052e-09
-3.26464e-10
3.09988e-10
8.28601e-09
-8.54786e-10
8.89292e-10
8.20143e-09
-1.33899e-09
1.42357e-09
8.06815e-09
-1.7458e-09
1.87908e-09
7.88834e-09
-2.04668e-09
2.22649e-09
7.66498e-09
-2.22019e-09
2.44355e-09
7.40161e-09
-2.25318e-09
2.51655e-09
7.10188e-09
-2.14036e-09
2.44008e-09
6.76923e-09
-1.88247e-09
2.21513e-09
6.40672e-09
-1.48293e-09
1.84543e-09
6.01745e-09
-9.43552e-10
1.33282e-09
5.60427e-09
-2.61021e-10
6.74202e-10
5.16684e-09
5.68037e-10
-1.30612e-10
4.69633e-09
1.52342e-09
-1.0529e-09
4.17251e-09
2.49445e-09
-1.97063e-09
3.5991e-09
3.21654e-09
-2.64314e-09
2.97416e-09
3.25835e-09
-2.6334e-09
2.58653e-09
-5.81398e-10
2.76159e-09
-5.99573e-10
2.9996e-09
-5.20823e-10
3.26563e-09
-4.07629e-10
3.54491e-09
-2.87092e-10
3.82937e-09
-1.75529e-10
4.11546e-09
-8.07893e-11
4.40149e-09
-7.81392e-12
4.6867e-09
3.91068e-11
4.9707e-09
5.64666e-11
5.25328e-09
4.09324e-11
5.53425e-09
-1.05986e-11
5.81336e-09
-1.00301e-10
6.09038e-09
-2.28445e-10
6.36522e-09
-3.91512e-10
6.63828e-09
-5.78413e-10
6.91101e-09
-7.67312e-10
7.18685e-09
-9.18204e-10
7.47217e-09
-9.74283e-10
7.77698e-09
-8.55331e-10
8.11394e-09
-4.87181e-10
8.49404e-09
1.73164e-10
8.85799e-09
8.435e-10
9.17141e-09
1.16328e-09
9.42658e-09
1.16859e-09
9.62166e-09
9.44677e-10
9.75775e-09
5.77998e-10
9.83671e-09
1.30861e-10
9.86008e-09
-3.49831e-10
9.82887e-09
-8.23579e-10
9.74417e-09
-1.25429e-09
9.60776e-09
-1.60938e-09
9.42246e-09
-1.86138e-09
9.1922e-09
-1.98994e-09
8.92183e-09
-1.98281e-09
8.61679e-09
-1.83532e-09
8.28298e-09
-1.54866e-09
7.92716e-09
-1.1271e-09
7.55821e-09
-5.74596e-10
7.18921e-09
1.07973e-10
6.83907e-09
9.18177e-10
6.53316e-09
1.82933e-09
6.3027e-09
2.72491e-09
6.19337e-09
3.32587e-09
3.05812e-09
6.10941e-09
4.50767e-09
-5.98059e-10
4.58646e-09
-6.78371e-10
4.73953e-09
-6.73893e-10
4.94862e-09
-6.1672e-10
5.19291e-09
-5.31382e-10
5.45867e-09
-4.41289e-10
5.73733e-09
-3.59449e-10
6.02365e-09
-2.94135e-10
6.31449e-09
-2.51732e-10
6.60781e-09
-2.36851e-10
6.90223e-09
-2.53482e-10
7.1967e-09
-3.05071e-10
7.49033e-09
-3.93936e-10
7.78235e-09
-5.20464e-10
8.07219e-09
-6.81347e-10
8.35983e-09
-8.66054e-10
8.64638e-09
-1.05386e-09
8.93507e-09
-1.2069e-09
9.23229e-09
-1.2715e-09
9.54849e-09
-1.17153e-09
9.89728e-09
-8.35973e-10
1.02913e-08
-2.209e-10
1.06712e-08
4.63693e-10
1.10013e-08
8.33185e-10
1.12729e-08
8.96963e-10
1.14832e-08
7.34366e-10
1.16324e-08
4.28758e-10
1.17218e-08
4.14905e-11
1.17525e-08
-3.80545e-10
1.17255e-08
-7.9656e-10
1.1642e-08
-1.17082e-09
1.15044e-08
-1.47175e-09
1.13162e-08
-1.67324e-09
1.10827e-08
-1.75639e-09
1.08102e-08
-1.7103e-09
1.05063e-08
-1.53148e-09
1.01801e-08
-1.22243e-09
9.84255e-09
-7.89541e-10
9.50896e-09
-2.41e-10
9.20206e-09
4.14869e-10
8.95664e-09
1.1636e-09
8.81833e-09
1.96765e-09
8.82669e-09
2.71654e-09
8.96913e-09
3.18344e-09
2.98568e-09
9.04157e-09
7.13133e-09
-5.78924e-10
7.14601e-09
-6.93051e-10
7.21653e-09
-7.4441e-10
7.34875e-09
-7.48939e-10
7.5331e-09
-7.15733e-10
7.75454e-09
-6.62727e-10
8.00233e-09
-6.07245e-10
8.26848e-09
-5.60284e-10
8.54735e-09
-5.30595e-10
8.8348e-09
-5.24309e-10
9.12788e-09
-5.46559e-10
9.42428e-09
-6.01468e-10
9.72209e-09
-6.91745e-10
1.00197e-08
-8.18067e-10
1.03158e-08
-9.77468e-10
1.06098e-08
-1.16003e-09
1.09022e-08
-1.34625e-09
1.11958e-08
-1.50052e-09
1.14969e-08
-1.57256e-09
1.1816e-08
-1.49071e-09
1.21678e-08
-1.18771e-09
1.25664e-08
-6.19576e-10
1.2954e-08
7.6115e-11
1.32946e-08
4.92647e-10
1.35781e-08
6.1345e-10
1.38005e-08
5.11946e-10
1.39609e-08
2.68323e-10
1.40597e-08
-5.72797e-11
1.40975e-08
-4.1839e-10
1.40752e-08
-7.74243e-10
1.39942e-08
-1.08984e-09
1.38575e-08
-1.335e-09
1.36696e-08
-1.48534e-09
1.34371e-08
-1.52385e-09
1.31682e-08
-1.44141e-09
1.28731e-08
-1.23636e-09
1.25639e-08
-9.1328e-10
1.2256e-08
-4.81618e-10
1.19701e-08
4.48689e-11
1.1735e-08
6.49933e-10
1.15917e-08
1.30696e-09
1.15873e-08
1.97201e-09
1.17498e-08
2.55403e-09
1.20357e-08
2.89757e-09
2.8004e-09
1.2221e-08
1.06275e-08
-5.45735e-10
1.06032e-08
-6.68783e-10
1.06132e-08
-7.54423e-10
1.06689e-08
-8.04556e-10
1.07786e-08
-8.25446e-10
1.0935e-08
-8.19179e-10
1.11286e-08
-8.00842e-10
1.13512e-08
-7.82908e-10
1.15961e-08
-7.75419e-10
1.18573e-08
-7.85557e-10
1.21305e-08
-8.19718e-10
1.24118e-08
-8.82819e-10
1.26982e-08
-9.78138e-10
1.2987e-08
-1.10681e-09
1.32758e-08
-1.26633e-09
1.35633e-08
-1.44747e-09
1.38491e-08
-1.63207e-09
1.41354e-08
-1.78688e-09
1.44281e-08
-1.86522e-09
1.47378e-08
-1.80036e-09
1.50794e-08
-1.5294e-09
1.54691e-08
-1.00925e-09
1.58525e-08
-3.07248e-10
1.61939e-08
1.51282e-10
1.64818e-08
3.25501e-10
1.67108e-08
2.82963e-10
1.68785e-08
1.00622e-10
1.69841e-08
-1.62882e-10
1.70277e-08
-4.6201e-10
1.70099e-08
-7.56397e-10
1.69323e-08
-1.01224e-09
1.67985e-08
-1.20119e-09
1.66142e-08
-1.30105e-09
1.63874e-08
-1.2971e-09
1.61285e-08
-1.18247e-09
1.58499e-08
-9.57814e-10
1.5567e-08
-6.30379e-10
1.52986e-08
-2.13157e-10
1.50678e-08
2.75623e-10
1.49056e-08
8.12131e-10
1.48487e-08
1.36387e-09
1.49337e-08
1.88699e-09
1.51722e-08
2.31553e-09
1.55111e-08
2.5587e-09
2.5269e-09
1.57846e-08
1.51938e-08
-5.1154e-10
1.51519e-08
-6.26801e-10
1.51251e-08
-7.2769e-10
1.51258e-08
-8.05219e-10
1.51651e-08
-8.64788e-10
1.5247e-08
-9.01026e-10
1.53713e-08
-9.25211e-10
1.55305e-08
-9.42085e-10
1.57194e-08
-9.64258e-10
1.59319e-08
-9.98055e-10
1.61629e-08
-1.05079e-09
1.64078e-08
-1.12771e-09
1.66623e-08
-1.2326e-09
1.69226e-08
-1.36709e-09
1.71854e-08
-1.52917e-09
1.74482e-08
-1.71031e-09
1.77099e-08
-1.89377e-09
1.79718e-08
-2.04874e-09
1.82389e-08
-2.13236e-09
1.85218e-08
-2.08317e-09
1.88355e-08
-1.84319e-09
1.91976e-08
-1.37131e-09
1.95601e-08
-6.6977e-10
1.98886e-08
-1.77188e-10
2.01699e-08
4.42041e-11
2.03967e-08
5.61288e-11
2.0565e-08
-6.77073e-11
2.06727e-08
-2.70496e-10
2.07189e-08
-5.08266e-10
2.0704e-08
-7.4145e-10
2.06297e-08
-9.37979e-10
2.05004e-08
-1.07185e-09
2.03228e-08
-1.12349e-09
2.01065e-08
-1.08083e-09
1.98637e-08
-9.39673e-10
1.96091e-08
-7.0323e-10
1.93602e-08
-3.81476e-10
1.91377e-08
9.43887e-12
1.89649e-08
4.48388e-10
1.88692e-08
9.078e-10
1.8878e-08
1.35505e-09
1.90126e-08
1.7524e-09
1.92714e-08
2.05679e-09
1.96073e-08
2.2228e-09
2.2178e-09
1.99164e-08
2.10627e-08
-4.82396e-10
2.10198e-08
-5.8385e-10
2.09759e-08
-6.83825e-10
2.0945e-08
-7.74368e-10
2.09353e-08
-8.5501e-10
2.09547e-08
-9.2043e-10
2.10082e-08
-9.78698e-10
2.10956e-08
-1.02952e-09
2.12143e-08
-1.08294e-09
2.13597e-08
-1.14349e-09
2.15281e-08
-1.21917e-09
2.17145e-08
-1.31414e-09
2.19144e-08
-1.43253e-09
2.21235e-08
-1.57616e-09
2.23377e-08
-1.74333e-09
2.25535e-08
-1.9261e-09
2.27688e-08
-2.10915e-09
2.29842e-08
-2.26408e-09
2.32038e-08
-2.35195e-09
2.34375e-08
-2.31686e-09
2.37005e-08
-2.10624e-09
2.40111e-08
-1.68188e-09
2.43312e-08
-9.89843e-10
2.46285e-08
-4.74475e-10
2.48878e-08
-2.15162e-10
2.51e-08
-1.56029e-10
2.52589e-08
-2.26602e-10
2.53607e-08
-3.72298e-10
2.54039e-08
-5.51494e-10
2.53882e-08
-7.25786e-10
2.53157e-08
-8.65422e-10
2.51911e-08
-9.4728e-10
2.50224e-08
-9.54807e-10
2.48205e-08
-8.78923e-10
2.45991e-08
-7.18211e-10
2.43743e-08
-4.78438e-10
2.41647e-08
-1.71878e-10
2.39905e-08
1.8366e-10
2.38732e-08
5.65688e-10
2.38334e-08
9.47599e-10
2.38876e-08
1.30076e-09
2.40435e-08
1.59659e-09
2.42909e-08
1.80938e-09
2.45939e-08
1.9198e-09
1.92074e-09
2.48909e-08
2.85068e-08
-4.59065e-10
2.84698e-08
-5.46881e-10
2.8425e-08
-6.39045e-10
2.8381e-08
-7.30377e-10
2.83443e-08
-8.18281e-10
2.83239e-08
-9.00063e-10
2.83238e-08
-9.78517e-10
2.83478e-08
-1.0535e-09
2.83966e-08
-1.13183e-09
2.84693e-08
-1.2161e-09
2.85638e-08
-1.31375e-09
2.86764e-08
-1.42666e-09
2.88033e-08
-1.55944e-09
2.89405e-08
-1.71334e-09
2.90837e-08
-1.88658e-09
2.92291e-08
-2.07152e-09
2.93741e-08
-2.25417e-09
2.95184e-08
-2.40833e-09
2.96654e-08
-2.49894e-09
2.98243e-08
-2.47583e-09
3.00102e-08
-2.29206e-09
3.02413e-08
-1.91306e-09
3.04932e-08
-1.24166e-09
3.07368e-08
-7.18121e-10
3.09549e-08
-4.33238e-10
3.11359e-08
-3.37044e-10
3.12715e-08
-3.62227e-10
3.13562e-08
-4.56962e-10
3.13876e-08
-5.82943e-10
3.1365e-08
-7.03105e-10
3.12902e-08
-7.9065e-10
3.11687e-08
-8.25838e-10
3.10094e-08
-7.95434e-10
3.08239e-08
-6.93464e-10
3.06269e-08
-5.21208e-10
3.0435e-08
-2.8656e-10
3.02664e-08
-3.20629e-12
3.0139e-08
3.11027e-10
3.00702e-08
6.34516e-10
3.00733e-08
9.44447e-10
3.01557e-08
1.21841e-09
3.03153e-08
1.43696e-09
3.05386e-08
1.5861e-09
3.07988e-08
1.65954e-09
1.65999e-09
3.10596e-08
3.78379e-08
-4.39868e-10
3.78074e-08
-5.16373e-10
3.77677e-08
-5.9928e-10
3.77228e-08
-6.85553e-10
3.76775e-08
-7.72966e-10
3.76374e-08
-8.59925e-10
3.76059e-08
-9.4699e-10
3.75873e-08
-1.03499e-09
3.75832e-08
-1.12765e-09
3.75937e-08
-1.22665e-09
3.76184e-08
-1.33849e-09
3.76561e-08
-1.46437e-09
3.77042e-08
-1.60746e-09
3.7759e-08
-1.76819e-09
3.78172e-08
-1.94473e-09
3.7875e-08
-2.12935e-09
3.793e-08
-2.3092e-09
3.79816e-08
-2.45993e-09
3.80329e-08
-2.55019e-09
3.80925e-08
-2.53546e-09
3.81749e-08
-2.37449e-09
3.82984e-08
-2.03656e-09
3.84549e-08
-1.39809e-09
3.86203e-08
-8.83592e-10
3.87752e-08
-5.8809e-10
3.89057e-08
-4.67558e-10
3.9001e-08
-4.57584e-10
3.9054e-08
-5.09873e-10
3.90618e-08
-5.90783e-10
3.90229e-08
-6.64209e-10
3.89393e-08
-7.07052e-10
3.88168e-08
-7.03346e-10
3.86647e-08
-6.43277e-10
3.84951e-08
-5.23873e-10
3.83226e-08
-3.48717e-10
3.81631e-08
-1.27095e-10
3.80328e-08
1.27126e-10
3.79464e-08
3.9742e-10
3.7916e-08
6.6494e-10
3.79486e-08
9.11842e-10
3.80448e-08
1.12213e-09
3.81981e-08
1.28374e-09
3.83942e-08
1.38997e-09
3.86134e-08
1.44032e-09
1.44012e-09
3.88333e-08
4.93976e-08
-4.23911e-10
4.93726e-08
-4.91376e-10
4.93389e-08
-5.65664e-10
4.92986e-08
-6.45181e-10
4.9254e-08
-7.28426e-10
4.92084e-08
-8.14297e-10
4.91642e-08
-9.02792e-10
4.91239e-08
-9.94705e-10
4.90883e-08
-1.09203e-09
4.90586e-08
-1.197e-09
4.90334e-08
-1.31327e-09
4.90118e-08
-1.44272e-09
4.89918e-08
-1.58744e-09
4.89707e-08
-1.74713e-09
4.89457e-08
-1.91968e-09
4.89135e-08
-2.09719e-09
4.88722e-08
-2.26791e-09
4.88214e-08
-2.4091e-09
4.87641e-08
-2.49289e-09
4.87088e-08
-2.48017e-09
4.86696e-08
-2.33526e-09
4.86641e-08
-2.03108e-09
4.87028e-08
-1.43677e-09
4.87682e-08
-9.49052e-10
4.88392e-08
-6.59055e-10
4.88999e-08
-5.28222e-10
4.89372e-08
-4.94937e-10
4.89425e-08
-5.15138e-10
4.8913e-08
-5.61355e-10
4.88466e-08
-5.97762e-10
4.87453e-08
-6.05743e-10
4.86151e-08
-5.73185e-10
4.84654e-08
-4.93538e-10
4.8308e-08
-3.6645e-10
4.81564e-08
-1.97171e-10
4.80249e-08
4.45994e-12
4.79261e-08
2.25918e-10
4.78712e-08
4.52276e-10
4.78672e-08
6.68979e-10
4.79162e-08
8.62838e-10
4.8015e-08
1.02328e-09
4.81553e-08
1.14346e-09
4.83245e-08
1.22076e-09
4.85079e-08
1.25691e-09
1.25714e-09
4.86909e-08
6.35463e-08
-4.1286e-10
6.3528e-08
-4.72985e-10
6.3502e-08
-5.39687e-10
6.3469e-08
-6.12251e-10
6.34304e-08
-6.89806e-10
6.33878e-08
-7.71626e-10
6.33425e-08
-8.57549e-10
6.32958e-08
-9.48018e-10
6.3248e-08
-1.04421e-09
6.31989e-08
-1.14787e-09
6.31468e-08
-1.26123e-09
6.309e-08
-1.38587e-09
6.30258e-08
-1.52327e-09
6.29512e-08
-1.67248e-09
6.28629e-08
-1.83142e-09
6.27578e-08
-1.99205e-09
6.26338e-08
-2.14396e-09
6.24907e-08
-2.26602e-09
6.23316e-08
-2.33379e-09
6.21647e-08
-2.31324e-09
6.20036e-08
-2.17415e-09
6.18653e-08
-1.8928e-09
6.1778e-08
-1.34948e-09
6.17321e-08
-9.03191e-10
6.17043e-08
-6.31221e-10
6.16797e-08
-5.03624e-10
6.16479e-08
-4.63133e-10
6.15953e-08
-4.62521e-10
6.15159e-08
-4.81923e-10
6.14106e-08
-4.92478e-10
6.12823e-08
-4.7749e-10
6.11369e-08
-4.27745e-10
6.09831e-08
-3.3971e-10
6.08317e-08
-2.15094e-10
6.06946e-08
-6.00697e-11
6.05827e-08
1.1637e-10
6.05058e-08
3.02807e-10
6.04707e-08
4.87328e-10
6.04805e-08
6.59252e-10
6.05339e-08
8.09389e-10
6.06261e-08
9.31128e-10
6.07487e-08
1.02088e-09
6.08913e-08
1.07813e-09
6.10431e-08
1.10514e-09
1.1062e-09
6.1194e-08
8.0672e-08
-4.10643e-10
8.06637e-08
-4.64703e-10
8.06488e-08
-5.24797e-10
8.06273e-08
-5.90705e-10
8.05995e-08
-6.62013e-10
8.05662e-08
-7.38303e-10
8.0528e-08
-8.19382e-10
8.04854e-08
-9.05413e-10
8.04382e-08
-9.9701e-10
8.03855e-08
-1.09513e-09
8.03253e-08
-1.2011e-09
8.02551e-08
-1.31567e-09
8.01715e-08
-1.43968e-09
8.00705e-08
-1.57147e-09
7.99481e-08
-1.70898e-09
7.98001e-08
-1.84407e-09
7.96239e-08
-1.96779e-09
7.94186e-08
-2.06067e-09
7.91866e-08
-2.10182e-09
7.89353e-08
-2.06193e-09
7.86772e-08
-1.91606e-09
7.84287e-08
-1.64423e-09
7.82305e-08
-1.1513e-09
7.80811e-08
-7.53792e-10
7.79635e-08
-5.13651e-10
7.7856e-08
-3.96162e-10
7.77451e-08
-3.52137e-10
7.76265e-08
-3.43944e-10
7.74935e-08
-3.48902e-10
7.73454e-08
-3.4447e-10
7.71856e-08
-3.17651e-10
7.702e-08
-2.62124e-10
7.68569e-08
-1.7658e-10
7.67054e-08
-6.36697e-11
7.65755e-08
6.98996e-11
7.64741e-08
2.17724e-10
7.64084e-08
3.68466e-10
7.63815e-08
5.14271e-10
7.63934e-08
6.47318e-10
7.64413e-08
7.61497e-10
7.65196e-08
8.52835e-10
7.66209e-08
9.19597e-10
7.67369e-08
9.62127e-10
7.68595e-08
9.82526e-10
9.8405e-10
7.69817e-08
1.0123e-07
-4.20994e-10
1.01236e-07
-4.69982e-10
1.01235e-07
-5.24333e-10
1.01229e-07
-5.84072e-10
1.01216e-07
-6.49061e-10
1.01197e-07
-7.1909e-10
1.01171e-07
-7.93992e-10
1.01139e-07
-8.73737e-10
1.01101e-07
-9.5852e-10
1.01054e-07
-1.04863e-09
1.00998e-07
-1.1446e-09
1.00929e-07
-1.24634e-09
1.00843e-07
-1.35392e-09
1.00736e-07
-1.46487e-09
1.00604e-07
-1.57702e-09
1.00442e-07
-1.68202e-09
1.00247e-07
-1.77222e-09
1.00016e-07
-1.82979e-09
9.97511e-08
-1.83712e-09
9.94586e-08
-1.76942e-09
9.91485e-08
-1.60599e-09
9.88359e-08
-1.33162e-09
9.85674e-08
-8.8283e-10
9.83472e-08
-5.33561e-10
9.81599e-08
-3.26343e-10
9.79864e-08
-2.22647e-10
9.78151e-08
-1.80823e-10
9.76415e-08
-1.7037e-10