/*--------------------------------*- C++ -*----------------------------------*\
| =========                 |                                                 |
| \\      /  F ield         | OpenFOAM: The Open Source CFD Toolbox           |
|  \\    /   O peration     | Version:  2312                                  |
|   \\  /    A nd           | Website:  www.openfoam.com                      |
|    \\/     M anipulation  |                                                 |
\*---------------------------------------------------------------------------*/
FoamFile
{
    version     2.0;
    format      ascii;
    arch        "LSB;label=32;scalar=64";
    class       volScalarField;
    location    "300";
    object      p;
}
// * * * * * * * * * * * * * * * * * * * * * * * * * * * * * * * * * * * * * //

dimensions      [0 2 -2 0 0 0 0];

internalField   nonuniform List<scalar> 
4800
(
-6.11605e-13
-3.39095e-07
-6.33881e-07
-8.90987e-07
-1.11724e-06
-1.31737e-06
-1.49516e-06
-1.65355e-06
-1.79455e-06
-1.91923e-06
-2.0281e-06
-2.12512e-06
-2.224e-06
-2.34806e-06
-2.86547e-06
3.15172e-09
-3.35547e-07
-6.30038e-07
-8.87057e-07
-1.11347e-06
-1.31407e-06
-1.49275e-06
-1.65265e-06
-1.79628e-06
-1.92572e-06
-2.04355e-06
-2.15597e-06
-2.27689e-06
-2.44076e-06
-2.82473e-06
7.11429e-09
-3.31249e-07
-6.25491e-07
-8.82468e-07
-1.10911e-06
-1.31028e-06
-1.49e-06
-1.65164e-06
-1.79819e-06
-1.9327e-06
-2.05929e-06
-2.18516e-06
-2.32191e-06
-2.48538e-06
-2.71818e-06
1.1539e-08
-3.26419e-07
-6.20347e-07
-8.77198e-07
-1.10397e-06
-1.30559e-06
-1.48617e-06
-1.64925e-06
-1.79808e-06
-1.9361e-06
-2.06735e-06
-2.19702e-06
-2.33011e-06
-2.46677e-06
-2.60455e-06
1.66252e-08
-3.20784e-07
-6.14262e-07
-8.7083e-07
-1.09755e-06
-1.29939e-06
-1.48048e-06
-1.64441e-06
-1.79444e-06
-1.93369e-06
-2.06505e-06
-2.1905e-06
-2.30923e-06
-2.41477e-06
-2.49577e-06
2.26636e-08
-3.14011e-07
-6.06856e-07
-8.62917e-07
-1.08931e-06
-1.291e-06
-1.47206e-06
-1.63596e-06
-1.78563e-06
-1.92344e-06
-2.05067e-06
-2.1666e-06
-2.26739e-06
-2.34572e-06
-2.3927e-06
3.00505e-08
-3.05666e-07
-5.9763e-07
-8.5287e-07
-1.07852e-06
-1.27951e-06
-1.45974e-06
-1.62234e-06
-1.76973e-06
-1.90328e-06
-2.02286e-06
-2.12628e-06
-2.2092e-06
-2.26635e-06
-2.2934e-06
3.94085e-08
-2.95076e-07
-5.85831e-07
-8.39819e-07
-1.06415e-06
-1.26366e-06
-1.44195e-06
-1.60172e-06
-1.7447e-06
-1.87143e-06
-1.98096e-06
-2.07087e-06
-2.13796e-06
-2.17977e-06
-2.19548e-06
5.17326e-08
-2.81196e-07
-5.70309e-07
-8.22481e-07
-1.04474e-06
-1.24174e-06
-1.41675e-06
-1.57197e-06
-1.70856e-06
-1.82654e-06
-1.92487e-06
-2.00185e-06
-2.05603e-06
-2.08731e-06
-2.0968e-06
6.85437e-08
-2.6246e-07
-5.49383e-07
-7.99034e-07
-1.01826e-06
-1.21156e-06
-1.38181e-06
-1.53083e-06
-1.65944e-06
-1.76762e-06
-1.8548e-06
-1.92044e-06
-1.96474e-06
-1.98914e-06
-1.99551e-06
9.20483e-08
-2.36626e-07
-5.20683e-07
-7.66986e-07
-9.82118e-07
-1.17041e-06
-1.3345e-06
-1.47597e-06
-1.59565e-06
-1.69388e-06
-1.7709e-06
-1.82732e-06
-1.86452e-06
-1.88474e-06
-1.88999e-06
1.25216e-07
-2.00689e-07
-4.81081e-07
-7.23118e-07
-9.33061e-07
-1.11513e-06
-1.27191e-06
-1.40502e-06
-1.5156e-06
-1.60458e-06
-1.67305e-06
-1.72251e-06
-1.75503e-06
-1.77314e-06
-1.77865e-06
1.71669e-07
-1.50951e-07
-4.26772e-07
-6.63581e-07
-8.6735e-07
-1.04227e-06
-1.19107e-06
-1.3157e-06
-1.41776e-06
-1.49883e-06
-1.5607e-06
-1.60543e-06
-1.63536e-06
-1.653e-06
-1.65988e-06
2.35289e-07
-8.33433e-08
-3.53612e-07
-5.84249e-07
-7.81088e-07
-9.48371e-07
-1.08917e-06
-1.20589e-06
-1.30067e-06
-1.37563e-06
-1.43298e-06
-1.47506e-06
-1.50424e-06
-1.52282e-06
-1.53205e-06
3.19667e-07
6.06178e-09
-2.57656e-07
-4.81287e-07
-6.7076e-07
-8.30466e-07
-9.63884e-07
-1.0739e-06
-1.16309e-06
-1.23394e-06
-1.28887e-06
-1.33025e-06
-1.36031e-06
-1.38111e-06
-1.39368e-06
4.27664e-07
1.20601e-07
-1.35596e-07
-3.51632e-07
-5.33715e-07
-6.86443e-07
-8.13654e-07
-9.18611e-07
-1.00418e-06
-1.07301e-06
-1.12753e-06
-1.17001e-06
-1.20247e-06
-1.22674e-06
-1.24367e-06
5.61137e-07
2.62709e-07
1.50098e-08
-1.93151e-07
-3.68268e-07
-5.15097e-07
-6.37691e-07
-7.39519e-07
-8.23556e-07
-8.9243e-07
-9.4848e-07
-9.93781e-07
-1.03014e-06
-1.05913e-06
-1.08152e-06
7.20586e-07
4.33437e-07
1.95287e-07
-4.94909e-09
-1.73843e-07
-3.16149e-07
-4.3593e-07
-5.36658e-07
-6.2125e-07
-6.92196e-07
-7.51649e-07
-8.01467e-07
-8.4323e-07
-8.78311e-07
-9.07414e-07
9.04415e-07
6.31565e-07
4.04058e-07
2.11686e-07
4.81752e-08
-9.10219e-08
-2.0977e-07
-3.11356e-07
-3.98496e-07
-4.73453e-07
-5.38138e-07
-5.94177e-07
-6.42936e-07
-6.85589e-07
-7.22845e-07
1.10766e-06
8.52205e-07
6.36386e-07
4.51806e-07
2.9294e-07
1.55638e-07
3.64195e-08
-6.76642e-08
-1.59042e-07
-2.3969e-07
-3.11247e-07
-3.75094e-07
-4.32396e-07
-4.84136e-07
-5.31085e-07
1.30785e-06
1.0712e-06
8.67221e-07
6.89965e-07
5.34984e-07
3.98615e-07
2.77832e-07
1.70153e-07
7.35355e-08
-1.36941e-08
-9.29213e-08
-1.65308e-07
-2.31839e-07
-2.93334e-07
-3.50638e-07
1.47285e-06
1.25309e-06
1.0596e-06
8.88666e-07
7.36855e-07
6.00984e-07
4.78465e-07
3.67272e-07
2.65755e-07
1.72522e-07
8.64001e-08
6.41088e-09
-6.82778e-08
-1.38351e-07
-2.04613e-07
1.59573e-06
1.38998e-06
1.20542e-06
1.03994e-06
8.90904e-07
7.55569e-07
6.31751e-07
5.17793e-07
4.12338e-07
3.14224e-07
2.22462e-07
1.36225e-07
5.48067e-08
-2.23698e-08
-9.60224e-08
1.68518e-06
1.49097e-06
1.31404e-06
1.1533e-06
1.00671e-06
8.71951e-07
7.47178e-07
6.31037e-07
5.22405e-07
4.2031e-07
3.23918e-07
2.3253e-07
1.45549e-07
6.24838e-08
-1.72877e-08
1.74907e-06
1.56436e-06
1.3939e-06
1.23727e-06
1.09286e-06
9.58683e-07
8.33218e-07
7.15349e-07
6.04146e-07
4.9879e-07
3.98581e-07
3.02928e-07
2.11325e-07
1.23357e-07
3.84916e-08
1.79404e-06
1.61717e-06
1.45223e-06
1.29917e-06
1.15666e-06
1.02304e-06
8.97052e-07
7.77785e-07
6.64462e-07
5.56397e-07
4.53002e-07
3.53782e-07
2.58311e-07
1.66237e-07
7.71106e-08
1.82534e-06
1.655e-06
1.49479e-06
1.3448e-06
1.20393e-06
1.0708e-06
9.44402e-07
8.23974e-07
7.08872e-07
5.98525e-07
4.92443e-07
3.90215e-07
2.91484e-07
1.95954e-07
1.03247e-07
1.84697e-06
1.68214e-06
1.52596e-06
1.3786e-06
1.23914e-06
1.10644e-06
9.79694e-07
8.58279e-07
7.4166e-07
6.29366e-07
5.20996e-07
4.16209e-07
3.1471e-07
2.16253e-07
1.20521e-07
1.8619e-06
1.70175e-06
1.54902e-06
1.40392e-06
1.26566e-06
1.13332e-06
1.00626e-06
8.83988e-07
7.66057e-07
6.52085e-07
5.41747e-07
4.34765e-07
3.30897e-07
2.29943e-07
1.31638e-07
1.87226e-06
1.71611e-06
1.56635e-06
1.42318e-06
1.28593e-06
1.15389e-06
1.02655e-06
9.03517e-07
7.84438e-07
6.69006e-07
5.56961e-07
4.4808e-07
3.42169e-07
2.39069e-07
1.38559e-07
1.87955e-06
1.72685e-06
1.57964e-06
1.43812e-06
1.30172e-06
1.16992e-06
1.04232e-06
9.18609e-07
7.98516e-07
6.81802e-07
5.68263e-07
4.57727e-07
3.50041e-07
2.45081e-07
1.42666e-07
1.88479e-06
1.73508e-06
1.59007e-06
1.44995e-06
1.31428e-06
1.18267e-06
1.05482e-06
9.30497e-07
8.09501e-07
6.91652e-07
5.76798e-07
4.64809e-07
3.55569e-07
2.48985e-07
1.44914e-07
1.88867e-06
1.74156e-06
1.59845e-06
1.45953e-06
1.32448e-06
1.193e-06
1.06492e-06
9.40042e-07
8.18239e-07
6.99381e-07
5.83362e-07
4.70089e-07
3.5948e-07
2.51471e-07
1.45947e-07
1.89164e-06
1.7468e-06
1.60532e-06
1.46744e-06
1.33291e-06
1.20154e-06
1.07322e-06
9.47847e-07
8.25317e-07
7.05558e-07
5.88501e-07
4.74091e-07
3.6227e-07
2.53002e-07
1.46199e-07
1.89399e-06
1.75113e-06
1.61108e-06
1.47409e-06
1.33999e-06
1.2087e-06
1.08017e-06
9.54329e-07
8.31144e-07
7.10577e-07
5.92595e-07
4.77172e-07
3.64276e-07
2.53893e-07
1.45959e-07
1.8959e-06
1.75479e-06
1.61596e-06
1.47973e-06
1.34601e-06
1.21478e-06
1.08603e-06
9.59776e-07
8.36001e-07
7.1471e-07
5.95902e-07
4.79576e-07
3.65725e-07
2.54353e-07
1.45416e-07
1.8975e-06
1.75791e-06
1.62016e-06
1.48458e-06
1.35117e-06
1.21997e-06
1.09103e-06
9.64394e-07
8.40087e-07
7.18146e-07
5.986e-07
4.8147e-07
3.6677e-07
2.54519e-07
1.44692e-07
1.89888e-06
1.76064e-06
1.62382e-06
1.48882e-06
1.35567e-06
1.2245e-06
1.09537e-06
9.6838e-07
8.43587e-07
7.21057e-07
6.00841e-07
4.82986e-07
3.6752e-07
2.54479e-07
1.43852e-07
1.90011e-06
1.76313e-06
1.62717e-06
1.49268e-06
1.35978e-06
1.22862e-06
1.09931e-06
9.71987e-07
8.46737e-07
7.23654e-07
6.02814e-07
4.8428e-07
3.68099e-07
2.54322e-07
1.42949e-07
1.90114e-06
1.76527e-06
1.63008e-06
1.49607e-06
1.3634e-06
1.23225e-06
1.1028e-06
9.75191e-07
8.49546e-07
7.25982e-07
6.04596e-07
4.85469e-07
3.68662e-07
2.54239e-07
1.42211e-07
-3.85407e-06
-3.25282e-06
-2.81279e-06
-2.50218e-06
-2.24789e-06
-2.03962e-06
-1.86651e-06
-1.72077e-06
-1.59745e-06
-1.49305e-06
-1.40498e-06
-1.33122e-06
-1.27011e-06
-1.22021e-06
-1.1803e-06
-1.14943e-06
-1.12696e-06
-1.11282e-06
-1.10757e-06
-1.11261e-06
-1.12918e-06
-1.15742e-06
-1.18692e-06
-1.19593e-06
-1.16905e-06
-1.09593e-06
-9.71099e-07
-7.94441e-07
-5.70008e-07
-3.05001e-07
-8.65002e-09
3.08695e-07
6.36255e-07
9.63258e-07
1.27914e-06
1.57353e-06
1.83609e-06
2.05669e-06
2.22535e-06
2.33237e-06
2.36857e-06
2.32208e-06
2.16207e-06
1.86238e-06
1.18491e-06
-3.25227e-06
-2.99369e-06
-2.70307e-06
-2.44723e-06
-2.21861e-06
-2.02221e-06
-1.85477e-06
-1.71189e-06
-1.59009e-06
-1.48659e-06
-1.39913e-06
-1.32585e-06
-1.26516e-06
-1.21569e-06
-1.17623e-06
-1.14584e-06
-1.12388e-06
-1.11027e-06
-1.1055e-06
-1.11087e-06
-1.12751e-06
-1.15537e-06
-1.18399e-06
-1.19193e-06
-1.16426e-06
-1.09097e-06
-9.66829e-07
-7.91906e-07
-5.70346e-07
-3.09413e-07
-1.84035e-08
2.9223e-07
6.11525e-07
9.28394e-07
1.23172e-06
1.51021e-06
1.75197e-06
1.94382e-06
2.07045e-06
2.11271e-06
2.04457e-06
1.82573e-06
1.38222e-06
5.85869e-07
-7.56028e-07
-2.90688e-06
-2.7846e-06
-2.58542e-06
-2.3779e-06
-2.17765e-06
-1.99664e-06
-1.83749e-06
-1.69925e-06
-1.58017e-06
-1.47837e-06
-1.39207e-06
-1.31966e-06
-1.25968e-06
-1.21083e-06
-1.17195e-06
-1.14213e-06
-1.12073e-06
-1.10767e-06
-1.1034e-06
-1.10912e-06
-1.12579e-06
-1.15317e-06
-1.18072e-06
-1.18734e-06
-1.15862e-06
-1.08503e-06
-9.61677e-07
-7.88889e-07
-5.71006e-07
-3.15443e-07
-3.1648e-08
2.69729e-07
5.77436e-07
8.79945e-07
1.16546e-06
1.42165e-06
1.635e-06
1.7897e-06
1.86622e-06
1.83891e-06
1.67281e-06
1.31984e-06
7.15941e-07
-2.07693e-07
-1.4735e-06
-2.68808e-06
-2.61827e-06
-2.47424e-06
-2.30524e-06
-2.13156e-06
-1.9669e-06
-1.81741e-06
-1.68488e-06
-1.56924e-06
-1.46959e-06
-1.38471e-06
-1.31331e-06
-1.25412e-06
-1.20592e-06
-1.16764e-06
-1.13838e-06
-1.11755e-06
-1.10504e-06
-1.10127e-06
-1.10732e-06
-1.12399e-06
-1.15079e-06
-1.17709e-06
-1.18217e-06
-1.15222e-06
-1.07821e-06
-9.55723e-07
-7.85395e-07
-5.71845e-07
-3.22715e-07
-4.76821e-08
2.42331e-07
5.35703e-07
8.20384e-07
1.08383e-06
1.31269e-06
1.49195e-06
1.60387e-06
1.62643e-06
1.53165e-06
1.28444e-06
8.444e-07
1.74952e-07
-7.34488e-07
-1.83328e-06
-2.52895e-06
-2.48015e-06
-2.37201e-06
-2.23358e-06
-2.08341e-06
-1.9348e-06
-1.79558e-06
-1.66943e-06
-1.55774e-06
-1.46055e-06
-1.37726e-06
-1.30694e-06
-1.24855e-06
-1.201e-06
-1.1633e-06
-1.13461e-06
-1.11435e-06
-1.1024e-06
-1.09913e-06
-1.10551e-06
-1.12213e-06
-1.14826e-06
-1.17315e-06
-1.17655e-06
-1.14531e-06
-1.071e-06
-9.49703e-07
-7.82444e-07
-5.74162e-07
-3.32766e-07
-6.81971e-08
2.08315e-07
4.84757e-07
7.48553e-07
9.86483e-07
1.18433e-06
1.32609e-06
1.39312e-06
1.36311e-06
1.20975e-06
9.04133e-07
4.20444e-07
-2.51735e-07
-1.0889e-06
-2.0162e-06
-2.40175e-06
-2.36232e-06
-2.27823e-06
-2.16419e-06
-2.03458e-06
-1.90131e-06
-1.7726e-06
-1.65334e-06
-1.546e-06
-1.45155e-06
-1.36999e-06
-1.30081e-06
-1.24321e-06
-1.19629e-06
-1.15913e-06
-1.13097e-06
-1.11126e-06
-1.09987e-06
-1.0971e-06
-1.10378e-06
-1.12031e-06
-1.14564e-06
-1.16897e-06
-1.17058e-06
-1.13806e-06
-1.06369e-06
-9.4408e-07
-7.80717e-07
-5.78894e-07
-3.46811e-07
-9.46896e-08
1.65933e-07
4.22675e-07
6.62512e-07
8.71737e-07
1.03563e-06
1.13794e-06
1.16046e-06
1.08285e-06
8.83599e-07
5.43286e-07
5.12426e-08
-5.84115e-07
-1.32457e-06
-2.09847e-06
-2.29141e-06
-2.25775e-06
-2.19068e-06
-2.09649e-06
-1.9852e-06
-1.86665e-06
-1.74871e-06
-1.63682e-06
-1.53431e-06
-1.4429e-06
-1.36324e-06
-1.29525e-06
-1.23843e-06
-1.19208e-06
-1.15541e-06
-1.12773e-06
-1.10853e-06
-1.09766e-06
-1.09536e-06
-1.10231e-06
-1.11866e-06
-1.14306e-06
-1.16466e-06
-1.1644e-06
-1.13069e-06
-1.05657e-06
-9.39309e-07
-7.80866e-07
-5.86924e-07
-3.65993e-07
-1.28565e-07
1.13555e-07
3.47703e-07
5.60578e-07
7.3831e-07
8.6622e-07
9.28738e-07
9.09457e-07
7.91775e-07
5.60763e-07
2.0681e-07
-2.68768e-07
-8.47387e-07
-1.48944e-06
-2.13789e-06
-2.18899e-06
-2.16031e-06
-2.1063e-06
-2.02883e-06
-1.93421e-06
-1.83008e-06
-1.72336e-06
-1.61956e-06
-1.52253e-06
-1.43467e-06
-1.3572e-06
-1.29054e-06
-1.23453e-06
-1.18871e-06
-1.15247e-06
-1.12519e-06
-1.10644e-06
-1.09603e-06
-1.09416e-06
-1.10131e-06
-1.11739e-06
-1.1407e-06
-1.16042e-06
-1.15827e-06
-1.12354e-06
-1.05015e-06
-9.36072e-07
-7.83795e-07
-5.99407e-07
-3.91714e-07
-1.71434e-07
4.94542e-08
2.58176e-07
4.41447e-07
5.85657e-07
6.76848e-07
7.01048e-07
6.44755e-07
4.9609e-07
2.46862e-07
-1.0439e-07
-5.48843e-07
-1.0647e-06
-1.61762e-06
-2.16601e-06
-2.08915e-06
-2.06536e-06
-2.02214e-06
-1.95909e-06
-1.87988e-06
-1.79e-06
-1.69515e-06
-1.60042e-06
-1.50988e-06
-1.42637e-06
-1.35168e-06
-1.28669e-06
-1.23167e-06
-1.18644e-06
-1.15061e-06
-1.12369e-06
-1.10532e-06
-1.09533e-06
-1.09382e-06
-1.10108e-06
-1.11678e-06
-1.13887e-06
-1.1566e-06
-1.15262e-06
-1.11718e-06
-1.04518e-06
-9.35357e-07
-7.90752e-07
-6.1785e-07
-4.25705e-07
-2.2516e-07
-2.81986e-08
1.52546e-07
3.04197e-07
4.13902e-07
4.69117e-07
4.58197e-07
3.71153e-07
2.00911e-07
-5.49803e-08
-3.92391e-07
-7.99013e-07
-1.25407e-06
-1.73035e-06
-2.19872e-06
-1.98849e-06
-1.96958e-06
-1.93569e-06
-1.88529e-06
-1.8203e-06
-1.74444e-06
-1.66208e-06
-1.57757e-06
-1.4948e-06
-1.41683e-06
-1.34587e-06
-1.28326e-06
-1.22968e-06
-1.18531e-06
-1.15001e-06
-1.12351e-06
-1.10552e-06
-1.09591e-06
-1.0947e-06
-1.10201e-06
-1.11724e-06
-1.13799e-06
-1.15369e-06
-1.14808e-06
-1.11246e-06
-1.04275e-06
-9.38532e-07
-8.03389e-07
-6.44151e-07
-4.70021e-07
-2.91807e-07
-1.21257e-07
2.94735e-08
1.48351e-07
2.2379e-07
2.45213e-07
2.03711e-07
9.28612e-08
-9.02447e-08
-3.43905e-07
-6.60922e-07
-1.02835e-06
-1.42836e-06
-1.84044e-06
-2.24439e-06
-1.88463e-06
-1.87059e-06
-1.84498e-06
-1.80579e-06
-1.75383e-06
-1.69153e-06
-1.62202e-06
-1.54876e-06
-1.47514e-06
-1.40419e-06
-1.3383e-06
-1.27917e-06
-1.22787e-06
-1.18495e-06
-1.1506e-06
-1.12475e-06
-1.10729e-06
-1.09812e-06
-1.09724e-06
-1.10458e-06
-1.1193e-06
-1.13867e-06
-1.15244e-06
-1.14562e-06
-1.11059e-06
-1.04439e-06
-9.47437e-07
-8.23821e-07
-6.80619e-07
-5.27026e-07
-3.73583e-07
-2.31503e-07
-1.1208e-07
-2.60939e-08
1.65685e-08
7.6006e-09
-5.91235e-08
-1.86886e-07
-3.75472e-07
-6.20686e-07
-9.14237e-07
-1.2442e-06
-1.59617e-06
-1.95507e-06
-2.30682e-06
-1.77568e-06
-1.76649e-06
-1.74844e-06
-1.71927e-06
-1.67919e-06
-1.62976e-06
-1.57311e-06
-1.51178e-06
-1.44856e-06
-1.38615e-06
-1.32692e-06
-1.27273e-06
-1.22496e-06
-1.1845e-06
-1.15184e-06
-1.12721e-06
-1.11067e-06
-1.10222e-06
-1.10184e-06
-1.10931e-06
-1.1236e-06
-1.14174e-06
-1.15394e-06
-1.1466e-06
-1.11331e-06
-1.05217e-06
-9.64459e-07
-8.54674e-07
-7.29977e-07
-5.99335e-07
-4.72742e-07
-3.60542e-07
-2.72796e-07
-2.1871e-07
-2.06208e-07
-2.41297e-07
-3.27613e-07
-4.66011e-07
-6.54283e-07
-8.87133e-07
-1.15648e-06
-1.45216e-06
-1.76297e-06
-2.07791e-06
-2.38699e-06
-1.65991e-06
-1.65565e-06
-1.64468e-06
-1.62463e-06
-1.59541e-06
-1.55804e-06
-1.51393e-06
-1.46485e-06
-1.41293e-06
-1.36041e-06
-1.30943e-06
-1.26185e-06
-1.21919e-06
-1.18258e-06
-1.1528e-06
-1.13032e-06
-1.11543e-06
-1.10826e-06
-1.10881e-06
-1.11678e-06
-1.13098e-06
-1.14832e-06
-1.15964e-06
-1.15289e-06
-1.12286e-06
-1.06875e-06
-9.92557e-07
-8.99056e-07
-7.95276e-07
-6.8969e-07
-5.91438e-07
-5.09679e-07
-4.52955e-07
-4.28712e-07
-4.42872e-07
-4.99365e-07
-5.9985e-07
-7.43556e-07
-9.27283e-07
-1.14562e-06
-1.39143e-06
-1.65645e-06
-1.93218e-06
-2.2106e-06
-2.48449e-06
-1.5357e-06
-1.53656e-06
-1.53241e-06
-1.52086e-06
-1.5017e-06
-1.47564e-06
-1.44359e-06
-1.40674e-06
-1.36664e-06
-1.32503e-06
-1.28372e-06
-1.24441e-06
-1.20859e-06
-1.17751e-06
-1.15214e-06
-1.13317e-06
-1.12108e-06
-1.11614e-06
-1.11842e-06
-1.12758e-06
-1.14238e-06
-1.15981e-06
-1.17145e-06
-1.16688e-06
-1.14213e-06
-1.09737e-06
-1.03518e-06
-9.60407e-07
-8.79686e-07
-8.0071e-07
-7.31487e-07
-6.79745e-07
-6.52361e-07
-6.55001e-07
-6.91766e-07
-7.64897e-07
-8.74679e-07
-1.01945e-06
-1.19576e-06
-1.3987e-06
-1.62234e-06
-1.86023e-06
-2.10599e-06
-2.3538e-06
-2.59829e-06
-1.40165e-06
-1.40793e-06
-1.41052e-06
-1.40712e-06
-1.39746e-06
-1.38208e-06
-1.3616e-06
-1.3368e-06
-1.30874e-06
-1.27875e-06
-1.24824e-06
-1.21867e-06
-1.1914e-06
-1.16765e-06
-1.14847e-06
-1.13469e-06
-1.12693e-06
-1.1256e-06
-1.13084e-06
-1.14235e-06
-1.15895e-06
-1.17792e-06
-1.1917e-06
-1.19146e-06
-1.17444e-06
-1.14165e-06
-1.096e-06
-1.04216e-06
-9.86105e-07
-9.34505e-07
-8.94029e-07
-8.70851e-07
-8.70198e-07
-8.96118e-07
-9.51207e-07
-1.03649e-06
-1.15144e-06
-1.29408e-06
-1.46122e-06
-1.64871e-06
-1.85187e-06
-2.06582e-06
-2.28582e-06
-2.50763e-06
-2.72722e-06
-1.25672e-06
-1.26884e-06
-1.27827e-06
-1.28288e-06
-1.2824e-06
-1.27729e-06
-1.26798e-06
-1.25499e-06
-1.23905e-06
-1.2211e-06
-1.20224e-06
-1.18364e-06
-1.16645e-06
-1.1518e-06
-1.14069e-06
-1.13399e-06
-1.13241e-06
-1.13645e-06
-1.14633e-06
-1.16186e-06
-1.18204e-06
-1.20462e-06
-1.22301e-06
-1.22979e-06
-1.22332e-06
-1.20518e-06
-1.17838e-06
-1.14714e-06
-1.11657e-06
-1.09212e-06
-1.07907e-06
-1.08204e-06
-1.1048e-06
-1.15004e-06
-1.21926e-06
-1.31272e-06
-1.42954e-06
-1.56781e-06
-1.72485e-06
-1.89739e-06
-2.08187e-06
-2.27467e-06
-2.47235e-06
-2.67181e-06
-2.87001e-06
-1.10053e-06
-1.11903e-06
-1.13555e-06
-1.14823e-06
-1.15683e-06
-1.16178e-06
-1.16341e-06
-1.16205e-06
-1.15822e-06
-1.1526e-06
-1.14602e-06
-1.13936e-06
-1.13358e-06
-1.12963e-06
-1.1284e-06
-1.13074e-06
-1.13736e-06
-1.14881e-06
-1.16541e-06
-1.18708e-06
-1.21315e-06
-1.24199e-06
-1.26799e-06
-1.28487e-06
-1.29184e-06
-1.29082e-06
-1.28462e-06
-1.27681e-06
-1.27151e-06
-1.27292e-06
-1.28495e-06
-1.3109e-06
-1.35331e-06
-1.41388e-06
-1.49337e-06
-1.59167e-06
-1.70785e-06
-1.84032e-06
-1.98699e-06
-2.14542e-06
-2.31301e-06
-2.48715e-06
-2.66536e-06
-2.84539e-06
-3.02499e-06
-9.33435e-07
-9.58989e-07
-9.82995e-07
-1.00398e-06
-1.02181e-06
-1.03684e-06
-1.04935e-06
-1.05959e-06
-1.06793e-06
-1.07488e-06
-1.08104e-06
-1.08711e-06
-1.09382e-06
-1.10195e-06
-1.11226e-06
-1.12551e-06
-1.14237e-06
-1.1634e-06
-1.18899e-06
-1.21925e-06
-1.25385e-06
-1.29193e-06
-1.32873e-06
-1.35879e-06
-1.38182e-06
-1.39975e-06
-1.41499e-06
-1.43038e-06
-1.44901e-06
-1.47396e-06
-1.50795e-06
-1.55322e-06
-1.6114e-06
-1.68353e-06
-1.76995e-06
-1.87045e-06
-1.98424e-06
-2.11015e-06
-2.24666e-06
-2.39205e-06
-2.54449e-06
-2.70217e-06
-2.86333e-06
-3.02638e-06
-3.18967e-06
-7.57115e-07
-7.90546e-07
-8.2258e-07
-8.52325e-07
-8.79744e-07
-9.05118e-07
-9.28682e-07
-9.5065e-07
-9.71316e-07
-9.9107e-07
-1.01038e-06
-1.02977e-06
-1.04981e-06
-1.07113e-06
-1.09436e-06
-1.12014e-06
-1.14907e-06
-1.18171e-06
-1.21852e-06
-1.25978e-06
-1.30555e-06
-1.35567e-06
-1.40612e-06
-1.45192e-06
-1.49282e-06
-1.53049e-06
-1.56684e-06
-1.60399e-06
-1.64418e-06
-1.6895e-06
-1.7418e-06
-1.80254e-06
-1.87278e-06
-1.95313e-06
-2.04378e-06
-2.14455e-06
-2.25491e-06
-2.37405e-06
-2.50098e-06
-2.63456e-06
-2.77359e-06
-2.91683e-06
-3.06309e-06
-3.21127e-06
-3.3602e-06
-5.74965e-07
-6.17212e-07
-6.57948e-07
-6.9707e-07
-7.34658e-07
-7.70869e-07
-8.05875e-07
-8.39882e-07
-8.73151e-07
-9.05997e-07
-9.38789e-07
-9.71939e-07
-1.0059e-06
-1.04118e-06
-1.07828e-06
-1.11776e-06
-1.16014e-06
-1.20598e-06
-1.25575e-06
-1.30993e-06
-1.3689e-06
-1.43301e-06
-1.49888e-06
-1.56181e-06
-1.62119e-06
-1.67813e-06
-1.73404e-06
-1.79052e-06
-1.84911e-06
-1.9112e-06
-1.97799e-06
-2.05045e-06
-2.12935e-06
-2.2151e-06
-2.30787e-06
-2.40758e-06
-2.51393e-06
-2.62649e-06
-2.74465e-06
-2.86774e-06
-2.99501e-06
-3.12568e-06
-3.25898e-06
-3.39417e-06
-3.53052e-06
-4.04737e-07
-4.56325e-07
-5.06186e-07
-5.54969e-07
-6.02858e-07
-6.49873e-07
-6.96124e-07
-7.41816e-07
-7.87194e-07
-8.32525e-07
-8.78113e-07
-9.243e-07
-9.71463e-07
-1.02001e-06
-1.07039e-06
-1.12305e-06
-1.17851e-06
-1.23725e-06
-1.29982e-06
-1.36675e-06
-1.43866e-06
-1.51608e-06
-1.59617e-06
-1.67459e-06
-1.75009e-06
-1.8231e-06
-1.89467e-06
-1.96609e-06
-2.03849e-06
-2.11283e-06
-2.18992e-06
-2.27045e-06
-2.355e-06
-2.44393e-06
-2.5374e-06
-2.63548e-06
-2.73806e-06
-2.84494e-06
-2.95583e-06
-3.07037e-06
-3.18812e-06
-3.30864e-06
-3.43145e-06
-3.55607e-06
-3.68214e-06
-2.67695e-07
-3.28026e-07
-3.86655e-07
-4.44504e-07
-5.01779e-07
-5.58442e-07
-6.14577e-07
-6.70383e-07
-7.26089e-07
-7.81931e-07
-8.38171e-07
-8.95105e-07
-9.5306e-07
-1.01239e-06
-1.07349e-06
-1.13677e-06
-1.20268e-06
-1.27171e-06
-1.34439e-06
-1.42129e-06
-1.50311e-06
-1.59041e-06
-1.68073e-06
-1.77008e-06
-1.85675e-06
-1.94062e-06
-2.02255e-06
-2.10366e-06
-2.18488e-06
-2.26691e-06
-2.35037e-06
-2.4358e-06
-2.52362e-06
-2.61417e-06
-2.70766e-06
-2.80421e-06
-2.90386e-06
-3.00655e-06
-3.11217e-06
-3.22054e-06
-3.33144e-06
-3.44459e-06
-3.55973e-06
-3.67654e-06
-3.79483e-06
-1.6665e-07
-2.34624e-07
-3.01003e-07
-3.66696e-07
-4.31902e-07
-4.96577e-07
-5.60802e-07
-6.24763e-07
-6.88671e-07
-7.52736e-07
-8.17194e-07
-8.82307e-07
-9.48368e-07
-1.01569e-06
-1.08464e-06
-1.15557e-06
-1.22893e-06
-1.30516e-06
-1.38478e-06
-1.46835e-06
-1.55659e-06
-1.65e-06
-1.74641e-06
-1.84223e-06
-1.93547e-06
-2.02574e-06
-2.11375e-06
-2.20054e-06
-2.28687e-06
-2.37331e-06
-2.46037e-06
-2.54849e-06
-2.63805e-06
-2.72935e-06
-2.82262e-06
-2.91802e-06
-3.01565e-06
-3.11555e-06
-3.21769e-06
-3.32199e-06
-3.42837e-06
-3.53665e-06
-3.64669e-06
-3.75826e-06
-3.8713e-06
-9.4222e-08
-1.68705e-07
-2.41696e-07
-3.13989e-07
-3.85753e-07
-4.5696e-07
-5.27695e-07
-5.98128e-07
-6.6845e-07
-7.38851e-07
-8.09543e-07
-8.80765e-07
-9.52778e-07
-1.02587e-06
-1.10037e-06
-1.17662e-06
-1.25501e-06
-1.33597e-06
-1.42e-06
-1.50762e-06
-1.59953e-06
-1.69615e-06
-1.79557e-06
-1.89458e-06
-1.99113e-06
-2.0847e-06
-2.17593e-06
-2.26577e-06
-2.35487e-06
-2.44372e-06
-2.53273e-06
-2.62231e-06
-2.71279e-06
-2.80445e-06
-2.89752e-06
-2.99217e-06
-3.08853e-06
-3.18667e-06
-3.28663e-06
-3.38841e-06
-3.49195e-06
-3.59718e-06
-3.70401e-06
-3.81229e-06
-3.92199e-06
-4.37119e-08
-1.23665e-07
-2.02192e-07
-2.79943e-07
-3.57055e-07
-4.3352e-07
-5.09425e-07
-5.84926e-07
-6.60194e-07
-7.35401e-07
-8.10742e-07
-8.86433e-07
-9.62715e-07
-1.03985e-06
-1.11814e-06
-1.19789e-06
-1.27949e-06
-1.36332e-06
-1.44985e-06
-1.53958e-06
-1.63315e-06
-1.73092e-06
-1.8312e-06
-1.93114e-06
-2.02879e-06
-2.1236e-06
-2.21618e-06
-2.30738e-06
-2.39776e-06
-2.48774e-06
-2.5777e-06
-2.66799e-06
-2.75892e-06
-2.85073e-06
-2.94366e-06
-3.03787e-06
-3.1335e-06
-3.23066e-06
-3.32939e-06
-3.42974e-06
-3.53169e-06
-3.63521e-06
-3.74023e-06
-3.84669e-06
-3.95454e-06
-9.49622e-09
-9.40063e-08
-1.77112e-07
-2.59324e-07
-3.40752e-07
-4.21405e-07
-5.01372e-07
-5.80796e-07
-6.5983e-07
-7.38634e-07
-8.17384e-07
-8.96282e-07
-9.75547e-07
-1.05542e-06
-1.13618e-06
-1.21813e-06
-1.30159e-06
-1.38694e-06
-1.47463e-06
-1.5651e-06
-1.65897e-06
-1.75651e-06
-1.85624e-06
-1.95567e-06
-2.053e-06
-2.14774e-06
-2.24049e-06
-2.33198e-06
-2.42271e-06
-2.51305e-06
-2.60334e-06
-2.69389e-06
-2.78499e-06
-2.87686e-06
-2.96972e-06
-3.06373e-06
-3.15904e-06
-3.25575e-06
-3.35393e-06
-3.45363e-06
-3.55487e-06
-3.65764e-06
-3.7619e-06
-3.8676e-06
-3.97472e-06
1.29551e-08
-7.53392e-08
-1.62209e-07
-2.48047e-07
-3.3294e-07
-4.16911e-07
-5.00053e-07
-5.82494e-07
-6.64374e-07
-7.4584e-07
-8.27059e-07
-9.08215e-07
-9.89513e-07
-1.07118e-06
-1.15347e-06
-1.23665e-06
-1.32105e-06
-1.40701e-06
-1.49494e-06
-1.58526e-06
-1.67853e-06
-1.77498e-06
-1.87331e-06
-1.97137e-06
-2.06753e-06
-2.16144e-06
-2.25365e-06
-2.34479e-06
-2.43531e-06
-2.52554e-06
-2.61578e-06
-2.70632e-06
-2.79742e-06
-2.8893e-06
-2.98215e-06
-3.07613e-06
-3.17139e-06
-3.26802e-06
-3.36611e-06
-3.46571e-06
-3.56685e-06
-3.66953e-06
-3.77375e-06
-3.87944e-06
-3.98662e-06
2.71336e-08
-6.43059e-08
-1.54268e-07
-2.43052e-07
-3.30727e-07
-4.17328e-07
-5.02949e-07
-5.87707e-07
-6.7173e-07
-7.55159e-07
-8.38147e-07
-9.20869e-07
-1.00352e-06
-1.0863e-06
-1.16946e-06
-1.25324e-06
-1.33796e-06
-1.42392e-06
-1.51151e-06
-1.60112e-06
-1.69327e-06
-1.78814e-06
-1.88461e-06
-1.98083e-06
-2.07539e-06
-2.16804e-06
-2.25931e-06
-2.34975e-06
-2.43974e-06
-2.52957e-06
-2.61955e-06
-2.70993e-06
-2.80094e-06
-2.8928e-06
-2.98567e-06
-3.07973e-06
-3.1751e-06
-3.27189e-06
-3.37018e-06
-3.47003e-06
-3.57147e-06
-3.67451e-06
-3.77915e-06
-3.88535e-06
-3.9931e-06
3.56359e-08
-5.84291e-08
-1.50942e-07
-2.4213e-07
-3.32048e-07
-4.20745e-07
-5.0831e-07
-5.94855e-07
-6.80498e-07
-7.65373e-07
-8.49627e-07
-9.33422e-07
-1.01694e-06
-1.10038e-06
-1.18396e-06
-1.26793e-06
-1.35256e-06
-1.43816e-06
-1.52506e-06
-1.61364e-06
-1.70439e-06
-1.79745e-06
-1.89185e-06
-1.98603e-06
-2.0788e-06
-2.17002e-06
-2.26016e-06
-2.34971e-06
-2.439e-06
-2.5283e-06
-2.6179e-06
-2.70802e-06
-2.79889e-06
-2.8907e-06
-2.98363e-06
-3.07782e-06
-3.1734e-06
-3.27048e-06
-3.36914e-06
-3.46945e-06
-3.57142e-06
-3.67509e-06
-3.78045e-06
-3.88746e-06
-3.99611e-06
4.03319e-08
-5.59402e-08
-1.50573e-07
-2.43736e-07
-3.35481e-07
-4.25863e-07
-5.14969e-07
-6.02905e-07
-6.89784e-07
-7.75733e-07
-8.60892e-07
-9.45418e-07
-1.02948e-06
-1.11327e-06
-1.197e-06
-1.28089e-06
-1.3652e-06
-1.45021e-06
-1.53624e-06
-1.62364e-06
-1.71287e-06
-1.80404e-06
-1.89634e-06
-1.98845e-06
-2.0794e-06
-2.16914e-06
-2.2581e-06
-2.34669e-06
-2.4352e-06
-2.52391e-06
-2.61306e-06
-2.70288e-06
-2.79357e-06
-2.88532e-06
-2.9783e-06
-3.07265e-06
-3.16849e-06
-3.26594e-06
-3.36506e-06
-3.46592e-06
-3.56856e-06
-3.67299e-06
-3.77922e-06
-3.88721e-06
-3.99694e-06
4.25305e-08
-5.56129e-08
-1.52022e-07
-2.46827e-07
-3.40076e-07
-4.3183e-07
-5.22174e-07
-6.11208e-07
-6.99042e-07
-7.85799e-07
-8.71613e-07
-9.56634e-07
-1.04103e-06
-1.12497e-06
-1.20866e-06
-1.29231e-06
-1.37617e-06
-1.4605e-06
-1.54559e-06
-1.63176e-06
-1.71945e-06
-1.80875e-06
-1.899e-06
-1.98913e-06
-2.07833e-06
-2.16662e-06
-2.25441e-06
-2.34203e-06
-2.42976e-06
-2.51785e-06
-2.60654e-06
-2.69603e-06
-2.78653e-06
-2.87821e-06
-2.97124e-06
-3.06574e-06
-3.16185e-06
-3.25967e-06
-3.35928e-06
-3.46074e-06
-3.56409e-06
-3.66935e-06
-3.7765e-06
-3.88553e-06
-3.99642e-06
4.31271e-08
-5.66173e-08
-1.54531e-07
-2.50716e-07
-3.4522e-07
-4.38106e-07
-5.29459e-07
-6.19375e-07
-7.0796e-07
-7.95334e-07
-8.81628e-07
-9.66985e-07
-1.05156e-06
-1.13554e-06
-1.21909e-06
-1.30243e-06
-1.38577e-06
-1.46938e-06
-1.55352e-06
-1.63848e-06
-1.72468e-06
-1.8122e-06
-1.90051e-06
-1.98877e-06
-2.07633e-06
-2.16327e-06
-2.24993e-06
-2.33662e-06
-2.42359e-06
-2.51108e-06
-2.5993e-06
-2.68846e-06
-2.77876e-06
-2.87036e-06
-2.96341e-06
-3.05806e-06
-3.15443e-06
-3.25262e-06
-3.35271e-06
-3.45476e-06
-3.55881e-06
-3.66488e-06
-3.77297e-06
-3.88304e-06
-3.99507e-06
4.27223e-08
-5.84034e-08
-1.57604e-07
-2.54962e-07
-3.50525e-07
-4.4436e-07
-5.36548e-07
-6.27183e-07
-7.16369e-07
-8.04224e-07
-8.90875e-07
-9.76462e-07
-1.06114e-06
-1.14506e-06
-1.22842e-06
-1.31141e-06
-1.39423e-06
-1.47712e-06
-1.56034e-06
-1.64415e-06
-1.72893e-06
-1.81479e-06
-1.9013e-06
-1.98785e-06
-2.0739e-06
-2.15958e-06
-2.24519e-06
-2.331e-06
-2.41725e-06
-2.50416e-06
-2.59194e-06
-2.68078e-06
-2.77087e-06
-2.86237e-06
-2.95544e-06
-3.05022e-06
-3.14682e-06
-3.24534e-06
-3.34588e-06
-3.44849e-06
-3.55321e-06
-3.66007e-06
-3.76905e-06
-3.88012e-06
-3.99325e-06
4.17138e-08
-6.06128e-08
-1.60924e-07
-2.59289e-07
-3.55757e-07
-4.50395e-07
-5.43283e-07
-6.34514e-07
-7.24191e-07
-8.12428e-07
-8.9935e-07
-9.85094e-07
-1.06981e-06
-1.15365e-06
-1.23678e-06
-1.31941e-06
-1.40172e-06
-1.48392e-06
-1.56627e-06
-1.64901e-06
-1.73249e-06
-1.8168e-06
-1.90166e-06
-1.98665e-06
-2.07134e-06
-2.15586e-06
-2.24051e-06
-2.32551e-06
-2.41109e-06
-2.49745e-06
-2.5848e-06
-2.67333e-06
-2.76322e-06
-2.85462e-06
-2.94769e-06
-3.04257e-06
-3.13937e-06
-3.23821e-06
-3.33915e-06
-3.44227e-06
-3.54761e-06
-3.65519e-06
-3.765e-06
-3.877e-06
-3.99116e-06
4.03621e-08
-6.30145e-08
-1.64291e-07
-2.63528e-07
-3.60775e-07
-4.561e-07
-5.49583e-07
-6.41315e-07
-7.31397e-07
-8.19943e-07
-9.07075e-07
-9.92926e-07
-1.07764e-06
-1.16137e-06
-1.24428e-06
-1.32655e-06
-1.40837e-06
-1.48994e-06
-1.57149e-06
-1.65323e-06
-1.73551e-06
-1.81841e-06
-1.90178e-06
-1.98535e-06
-2.06881e-06
-2.15229e-06
-2.23606e-06
-2.32031e-06
-2.40527e-06
-2.49113e-06
-2.57809e-06
-2.66632e-06
-2.75601e-06
-2.8473e-06
-2.94036e-06
-3.03532e-06
-3.1323e-06
-3.2314e-06
-3.33271e-06
-3.43629e-06
-3.54219e-06
-3.65043e-06
-3.76099e-06
-3.87385e-06
-3.98896e-06
3.8838e-08
-6.546e-08
-1.67579e-07
-2.67575e-07
-3.65497e-07
-4.61415e-07
-5.55406e-07
-6.47563e-07
-7.37984e-07
-8.26783e-07
-9.14079e-07
-1e-06
-1.0847e-06
-1.16831e-06
-1.251e-06
-1.33294e-06
-1.4143e-06
-1.49528e-06
-1.57609e-06
-1.65693e-06
-1.73812e-06
-1.81974e-06
-1.90175e-06
-1.98406e-06
-2.06641e-06
-2.14896e-06
-2.23193e-06
-2.31551e-06
-2.3999e-06
-2.4853e-06
-2.57189e-06
-2.65985e-06
-2.74934e-06
-2.84053e-06
-2.93356e-06
-3.02858e-06
-3.12571e-06
-3.22504e-06
-3.32667e-06
-3.43066e-06
-3.53706e-06
-3.64589e-06
-3.75714e-06
-3.87077e-06
-3.98675e-06
3.7246e-08
-6.78626e-08
-1.7072e-07
-2.71378e-07
-3.69889e-07
-4.66319e-07
-5.60749e-07
-6.53268e-07
-7.43976e-07
-8.32984e-07
-9.20411e-07
-1.00639e-06
-1.09105e-06
-1.17454e-06
-1.25702e-06
-1.33864e-06
-1.41958e-06
-1.50003e-06
-1.58017e-06
-1.6602e-06
-1.74041e-06
-1.82087e-06
-1.90166e-06
-1.98283e-06
-2.0642e-06
-2.14591e-06
-2.22816e-06
-2.31113e-06
-2.39501e-06
-2.47999e-06
-2.56624e-06
-2.65393e-06
-2.74325e-06
-2.83433e-06
-2.92733e-06
-3.0224e-06
-3.11964e-06
-3.21917e-06
-3.32108e-06
-3.42543e-06
-3.53227e-06
-3.64163e-06
-3.75349e-06
-3.86782e-06
-3.98456e-06
3.5627e-08
-7.02051e-08
-1.73719e-07
-2.74964e-07
-3.73994e-07
-4.70876e-07
-5.65689e-07
-6.58523e-07
-7.49478e-07
-8.38662e-07
-9.26196e-07
-1.01221e-06
-1.09682e-06
-1.1802e-06
-1.26247e-06
-1.3438e-06
-1.42436e-06
-1.50431e-06
-1.58385e-06
-1.66313e-06
-1.74245e-06
-1.82186e-06
-1.90152e-06
-1.98167e-06
-2.06216e-06
-2.14311e-06
-2.2247e-06
-2.30712e-06
-2.39053e-06