/*--------------------------------*- C++ -*----------------------------------*\
| =========                 |                                                 |
| \\      /  F ield         | OpenFOAM: The Open Source CFD Toolbox           |
|  \\    /   O peration     | Version:  2312                                  |
|   \\  /    A nd           | Website:  www.openfoam.com                      |
|    \\/     M anipulation  |                                                 |
\*---------------------------------------------------------------------------*/
FoamFile
{
    version     2.0;
    format      ascii;
    arch        "LSB;label=32;scalar=64";
    class       surfaceScalarField;
    location    "300";
    object      phi;
}
// * * * * * * * * * * * * * * * * * * * * * * * * * * * * * * * * * * * * * //

dimensions      [0 3 -1 0 0 0 0];

oriented        oriented;

internalField   nonuniform List<scalar> 
9445
(
1.7631e-10
2.80174e-12
1.74984e-10
1.32565e-12
1.74569e-10
4.15251e-13
1.74804e-10
-2.35657e-13
1.75538e-10
-7.3333e-13
1.76686e-10
-1.14799e-12
1.7822e-10
-1.53466e-12
1.80169e-10
-1.94895e-12
1.82656e-10
-2.48636e-12
1.86029e-10
-3.37343e-12
1.91236e-10
-5.20714e-12
2.00808e-10
-9.57165e-12
2.20559e-10
-1.97512e-11
2.64901e-10
-4.43424e-11
-1.18474e-10
3.83376e-10
6.17113e-10
1.2726e-11
6.1224e-10
6.19832e-12
6.10509e-10
2.14646e-12
6.10995e-10
-7.21573e-13
6.13169e-10
-2.90725e-12
6.16739e-10
-4.7186e-12
6.21606e-10
-6.40119e-12
6.2786e-10
-8.20327e-12
6.35896e-10
-1.05226e-11
6.46709e-10
-1.4186e-11
6.62486e-10
-2.09838e-11
6.8744e-10
-3.45256e-11
7.28497e-10
-6.08087e-11
7.9339e-10
-1.09235e-10
-1.9017e-10
8.65085e-10
1.22094e-09
3.25394e-11
1.21096e-09
1.61851e-11
1.20709e-09
6.0092e-12
1.20751e-09
-1.13861e-12
1.21116e-09
-6.56042e-12
1.21747e-09
-1.10255e-11
1.22621e-09
-1.51406e-11
1.23751e-09
-1.95035e-11
1.25198e-09
-2.49931e-11
1.27101e-09
-3.32129e-11
1.29709e-09
-4.70631e-11
1.33364e-09
-7.10823e-11
1.38325e-09
-1.10413e-10
1.44148e-09
-1.67466e-10
-2.35022e-10
1.48633e-09
2.03413e-09
6.57546e-11
2.01692e-09
3.33924e-11
2.00973e-09
1.32049e-11
2.00947e-09
-8.74839e-13
2.01439e-09
-1.14873e-11
2.02352e-09
-2.01519e-11
2.03641e-09
-2.80317e-11
2.05312e-09
-3.62142e-11
2.07425e-09
-4.61247e-11
2.10103e-09
-5.99946e-11
2.1351e-09
-8.11334e-11
2.17737e-09
-1.13347e-10
2.22551e-09
-1.58552e-10
2.27087e-09
-2.12824e-10
-2.63464e-10
2.29931e-09
3.11406e-09
1.16743e-10
3.08688e-09
6.05731e-11
3.07465e-09
2.54357e-11
3.07268e-09
1.09562e-12
3.0783e-09
-1.71057e-11
3.08994e-09
-3.17968e-11
3.10681e-09
-4.4903e-11
3.12869e-09
-5.80944e-11
3.15583e-09
-7.32623e-11
3.1887e-09
-9.28631e-11
3.22732e-09
-1.19752e-10
3.26992e-09
-1.55952e-10
3.31157e-09
-2.00204e-10
3.34451e-09
-2.45762e-10
-2.81209e-10
3.36226e-09
4.531e-09
1.90647e-10
4.49039e-09
1.0118e-10
4.47082e-09
4.50054e-11
4.46558e-09
6.34009e-12
4.47078e-09
-2.2306e-11
4.48408e-09
-4.50993e-11
4.50411e-09
-6.49343e-11
4.53012e-09
-8.41048e-11
4.56165e-09
-1.04792e-10
4.59803e-09
-1.29241e-10
4.63758e-09
-1.59304e-10
4.67681e-09
-1.95178e-10
4.71045e-09
-2.33844e-10
4.73341e-09
-2.68726e-10
-2.91976e-10
4.74418e-09
6.3697e-09
2.93058e-10
6.31162e-09
1.59264e-10
6.28178e-09
7.48457e-11
6.27106e-09
1.70577e-11
6.27407e-09
-2.53208e-11
6.28746e-09
-5.8482e-11
6.30902e-09
-8.65016e-11
6.33723e-09
-1.12317e-10
6.37068e-09
-1.38242e-10
6.40751e-09
-1.66069e-10
6.44483e-09
-1.96626e-10
6.47863e-09
-2.28972e-10
6.50466e-09
-2.59871e-10
6.5204e-09
-2.84471e-10
-2.98367e-10
6.52679e-09
8.73023e-09
4.29077e-10
8.65045e-09
2.39043e-10
8.60695e-09
1.18345e-10
8.58797e-09
3.60455e-11
8.58633e-09
-2.36857e-11
8.59743e-09
-6.95838e-11
8.61806e-09
-1.07134e-10
8.64572e-09
-1.39973e-10
8.67801e-09
-1.7053e-10
8.71215e-09
-2.00212e-10
8.74477e-09
-2.29245e-10
8.77224e-09
-2.56444e-10
8.79175e-09
-2.79384e-10
8.80255e-09
-2.95267e-10
-3.02207e-10
8.80639e-09
1.17273e-08
6.01527e-10
1.16224e-08
3.4389e-10
1.1562e-08
1.78792e-10
1.15316e-08
6.63972e-11
1.15223e-08
-1.44094e-11
1.15281e-08
-7.53813e-11
1.15447e-08
-1.23663e-10
1.15684e-08
-1.63736e-10
1.15962e-08
-1.98312e-10
1.16248e-08
-2.2876e-10
1.16508e-08
-2.55304e-10
1.16716e-08
-2.77232e-10
1.16856e-08
-2.93337e-10
1.16929e-08
-3.02562e-10
-3.04609e-10
1.16953e-08
1.54867e-08
8.07913e-10
1.53561e-08
4.7443e-10
1.52768e-08
2.58182e-10
1.52324e-08
1.10727e-10
1.52125e-08
5.48176e-12
1.52098e-08
-7.26303e-11
1.52188e-08
-1.32655e-10
1.52352e-08
-1.80145e-10
1.52553e-08
-2.18413e-10
1.52758e-08
-2.49249e-10
1.52939e-08
-2.73411e-10
1.53077e-08
-2.91053e-10
1.53165e-08
-3.02159e-10
1.53209e-08
-3.0692e-10
-3.0594e-10
1.53222e-08
2.01386e-08
1.03646e-09
1.99873e-08
6.25706e-10
1.98903e-08
3.55207e-10
1.98313e-08
1.69731e-10
1.97989e-08
3.78528e-11
1.9785e-08
-5.87639e-11
1.97836e-08
-1.31198e-10
1.97897e-08
-1.86309e-10
1.97997e-08
-2.28343e-10
1.98103e-08
-2.59906e-10
1.98195e-08
-2.82619e-10
1.98261e-08
-2.97596e-10
1.98297e-08
-3.05793e-10
1.9831e-08
-3.08209e-10
-3.05916e-10
1.9831e-08
2.58073e-08
1.26288e-09
2.56488e-08
7.84138e-10
2.55413e-08
4.62735e-10
2.54709e-08
2.4016e-10
2.54269e-08
8.18058e-11
2.54014e-08
-3.32853e-11
2.53883e-08
-1.18089e-10
2.53829e-08
-1.80858e-10
2.53815e-08
-2.26975e-10
2.53817e-08
-2.60058e-10
2.53817e-08
-2.82671e-10
2.53809e-08
-2.96794e-10
2.53792e-08
-3.04093e-10
2.53771e-08
-3.0605e-10
-3.03959e-10
2.53751e-08
3.26033e-08
1.45191e-09
3.24606e-08
9.26754e-10
3.23572e-08
5.66209e-10
3.22843e-08
3.13044e-10
3.22341e-08
1.3198e-10
3.22001e-08
6.92716e-13
3.21772e-08
-9.51527e-11
3.21614e-08
-1.65014e-10
3.21497e-08
-2.15346e-10
3.21404e-08
-2.50719e-10
3.21322e-08
-2.74521e-10
3.21248e-08
-2.89387e-10
3.21182e-08
-2.97448e-10
3.21126e-08
-3.00456e-10
-2.9979e-10
3.21084e-08
4.06264e-08
1.56861e-09
4.05265e-08
1.02667e-09
4.04468e-08
6.45953e-10
4.03855e-08
3.74334e-10
4.03391e-08
1.78353e-10
4.03039e-08
3.58794e-11
4.02767e-08
-6.79178e-11
4.02549e-08
-1.4321e-10
4.02367e-08
-1.97184e-10
4.02211e-08
-2.35081e-10
4.02074e-08
-2.60838e-10
4.01955e-08
-2.77487e-10
4.01854e-08
-2.87408e-10
4.01774e-08
-2.92463e-10
-2.94044e-10
4.01717e-08
4.99874e-08
1.59705e-09
4.99478e-08
1.06621e-09
4.99079e-08
6.85843e-10
4.98718e-08
4.10438e-10
4.98404e-08
2.09768e-10
4.98132e-08
6.30654e-11
4.97894e-08
-4.41341e-11
4.97683e-08
-1.2209e-10
4.97494e-08
-1.78242e-10
4.97324e-08
-2.18101e-10
4.97174e-08
-2.45822e-10
4.97045e-08
-2.64572e-10
4.96938e-08
-2.76783e-10
4.96857e-08
-2.84314e-10
-2.88503e-10
4.96802e-08
6.08259e-08
1.55071e-09
6.08431e-08
1.04899e-09
6.08447e-08
6.84234e-10
6.08379e-08
4.17212e-10
6.08267e-08
2.21032e-10
6.0813e-08
7.67106e-11
6.07982e-08
-2.93434e-11
6.07831e-08
-1.06995e-10
6.07684e-08
-1.63513e-10
6.07546e-08
-2.0432e-10
6.07423e-08
-2.33499e-10
6.07319e-08
-2.54138e-10
6.07237e-08
-2.68576e-10
6.07179e-08
-2.78573e-10
-2.85373e-10
6.07148e-08
7.32676e-08
1.45895e-09
7.33211e-08
9.95521e-10
7.33505e-08
6.54836e-10
7.33643e-08
4.03351e-10
7.33681e-08
2.17292e-10
7.33653e-08
7.95055e-11
7.33585e-08
-2.25112e-11
7.33494e-08
-9.79553e-11
7.33396e-08
-1.53655e-10
7.33299e-08
-1.94713e-10
7.33214e-08
-2.2496e-10
7.33145e-08
-2.47274e-10
7.33098e-08
-2.63813e-10
7.33074e-08
-2.76188e-10
-2.85525e-10
7.33076e-08
8.72815e-08
1.34208e-09
8.7353e-08
9.24027e-10
8.73948e-08
6.13079e-10
8.74167e-08
3.81402e-10
8.74255e-08
2.0849e-10
8.74258e-08
7.92285e-11
8.74209e-08
-1.75558e-11
8.74131e-08
-9.01649e-11
8.74042e-08
-1.44792e-10
8.73956e-08
-1.86072e-10
8.73881e-08
-2.17472e-10
8.73824e-08
-2.41591e-10
8.73789e-08
-2.60366e-10
8.7378e-08
-2.75242e-10
-2.87212e-10
8.73797e-08
1.02487e-07
1.20285e-09
1.02572e-07
8.38576e-10
1.02621e-07
5.63742e-10
1.02646e-07
3.56327e-10
1.02655e-07
1.99467e-10
1.02654e-07
8.04854e-11
1.02647e-07
-1.01223e-11
1.02636e-07
-7.94857e-11
1.02624e-07
-1.32957e-10
1.02613e-07
-1.74559e-10
1.02603e-07
-2.07308e-10
1.02594e-07
-2.33463e-10
1.02589e-07
-2.54709e-10
1.02586e-07
-2.72305e-10
-2.87105e-10
1.02586e-07
1.17966e-07
1.03646e-09
1.1807e-07
7.34596e-10
1.18131e-07
5.02888e-10
1.18162e-07
3.24997e-10
1.18174e-07
1.87967e-10
1.18173e-07
8.1897e-11
1.18163e-07
-7.36057e-13
1.18149e-07
-6.56531e-11
1.18134e-07
-1.17193e-10
1.18118e-07
-1.58631e-10
1.18103e-07
-1.92437e-10
1.1809e-07
-2.20467e-10
1.18079e-07
-2.44111e-10
1.18071e-07
-2.64414e-10
-2.82075e-10
1.18066e-07
1.1703e-07
8.64432e-10
1.17141e-07
6.23971e-10
1.17208e-07
4.35832e-10
1.17244e-07
2.88482e-10
1.1726e-07
1.72511e-10
1.17261e-07
8.06148e-11
1.17253e-07
7.16914e-12
1.17239e-07
-5.2163e-11
1.17223e-07
-1.0071e-10
1.17205e-07
-1.41005e-10
1.17188e-07
-1.74967e-10
1.17171e-07
-2.04048e-10
1.17157e-07
-2.29342e-10
1.17144e-07
-2.51678e-10
-2.71619e-10
1.17134e-07
1.00073e-07
7.11169e-10
1.00175e-07
5.21834e-10
1.0024e-07
3.70912e-10
1.00278e-07
2.50321e-10
1.00297e-07
1.53352e-10
1.00303e-07
7.47284e-11
1.003e-07
1.03307e-11
1.00291e-07
-4.3053e-11
1.00278e-07
-8.79071e-11
1.00263e-07
-1.26139e-10
1.00247e-07
-1.59207e-10
1.00231e-07
-1.8822e-10
1.00216e-07
-2.1402e-10
1.00202e-07
-2.37246e-10
-2.58342e-10
1.00188e-07
8.38576e-08
5.76398e-10
8.39508e-08
4.28605e-10
8.40131e-08
3.08654e-10
8.40525e-08
2.109e-10
8.40752e-08
1.30643e-10
8.40858e-08
6.41397e-11
8.40877e-08
8.42482e-12
8.40835e-08
-3.88401e-11
8.40751e-08
-7.94755e-11
8.40638e-08
-1.14886e-10
8.40508e-08
-1.46152e-10
8.40366e-08
-1.741e-10
8.4022e-08
-1.99361e-10
8.40072e-08
-2.22414e-10
-2.43593e-10
8.39924e-08
6.91638e-08
4.59065e-10
6.92477e-08
3.44645e-10
6.93062e-08
2.50131e-10
6.93455e-08
1.71607e-10
6.93703e-08
1.05838e-10
6.93843e-08
5.02257e-11
6.939e-08
2.66868e-12
6.93897e-08
-3.85053e-11
6.93848e-08
-7.46039e-11
6.93766e-08
-1.06639e-10
6.93658e-08
-1.35392e-10
6.93532e-08
-1.61462e-10
6.93391e-08
-1.8531e-10
6.9324e-08
-2.07281e-10
-2.2762e-10
6.9308e-08
5.63078e-08
3.58123e-10
5.6382e-08
2.70376e-10
5.64355e-08
1.96625e-10
5.6473e-08
1.34182e-10
5.64979e-08
8.08814e-11
5.65132e-08
3.49591e-11
5.65209e-08
-5.04273e-12
5.65227e-08
-4.02969e-11
5.65198e-08
-7.17199e-11
5.65132e-08
-1.00022e-10
5.65035e-08
-1.25754e-10
5.64914e-08
-1.49337e-10
5.64772e-08
-1.71096e-10
5.64612e-08
-1.91272e-10
-2.10035e-10
5.64436e-08
4.5332e-08
2.7294e-10
4.53959e-08
2.0641e-10
4.5443e-08
1.49509e-10
4.54768e-08
1.00428e-10
4.54999e-08
5.77755e-11
4.55145e-08
2.03909e-11
4.55221e-08
-1.27139e-11
4.55242e-08
-4.23406e-11
4.55216e-08
-6.9113e-11
4.55151e-08
-9.35151e-11
4.55052e-08
-1.15922e-10
4.54925e-08
-1.3662e-10
4.54772e-08
-1.55831e-10
4.54597e-08
-1.73715e-10
-1.90384e-10
4.544e-08
3.61274e-08
2.02951e-10
3.61807e-08
1.53172e-10
3.62204e-08
1.09832e-10
3.6249e-08
7.1756e-11
3.62687e-08
3.81039e-11
3.62809e-08
8.14614e-12
3.6287e-08
-1.87689e-11
3.62878e-08
-4.31722e-11
3.62842e-08
-6.54739e-11
3.62767e-08
-8.59921e-11
3.62657e-08
-1.04973e-10
3.62517e-08
-1.22605e-10
3.62349e-08
-1.39031e-10
3.62155e-08
-1.54355e-10
-1.68645e-10
3.61938e-08
2.8513e-08
1.47205e-10
2.85557e-08
1.10504e-10
2.85876e-08
7.79544e-11
2.86105e-08
4.88356e-11
2.86259e-08
2.26955e-11
2.8635e-08
-9.00486e-13
2.86386e-08
-2.23679e-11
2.86374e-08
-4.20451e-11
2.86321e-08
-6.01909e-11
2.86232e-08
-7.70061e-11
2.86108e-08
-9.2646e-11
2.85955e-08
-1.07228e-10
2.85773e-08
-1.20842e-10
2.85565e-08
-1.33551e-10
-1.45393e-10
2.85332e-08
2.22832e-08
1.04194e-10
2.23161e-08
7.75632e-11
2.23406e-08
5.34847e-11
2.23579e-08
3.15619e-11
2.2369e-08
1.16026e-11
2.23747e-08
-6.63532e-12
2.23757e-08
-2.34068e-11
2.23726e-08
-3.89173e-11
2.23657e-08
-5.33231e-11
2.23555e-08
-6.67453e-11
2.23421e-08
-7.92772e-11
2.23259e-08
-9.09888e-11
2.2307e-08
-1.01932e-10
2.22856e-08
-1.12145e-10
-1.21646e-10
2.22618e-08
1.72344e-08
7.19914e-11
1.7259e-08
5.29997e-11
1.7277e-08
3.54801e-11
1.72893e-08
1.92613e-11
1.72966e-08
4.31262e-12
1.72994e-08
-9.49032e-12
1.72983e-08
-2.2298e-11
1.72936e-08
-3.42287e-11
1.72857e-08
-4.53716e-11
1.72747e-08
-5.57961e-11
1.7261e-08
-6.55546e-11
1.72447e-08
-7.46861e-11
1.7226e-08
-8.32194e-11
1.7205e-08
-9.11744e-11
-9.85605e-11
1.71819e-08
1.31782e-08
4.85307e-11
1.31959e-08
3.52451e-11
1.32087e-08
2.27362e-11
1.3217e-08
1.09799e-11
1.32212e-08
3.23876e-14
1.32219e-08
-1.01657e-11
1.32193e-08
-1.96992e-11
1.32137e-08
-2.86319e-11
1.32054e-08
-3.70115e-11
1.31944e-08
-4.48745e-11
1.31811e-08
-5.22482e-11
1.31656e-08
-5.91522e-11
1.3148e-08
-6.56007e-11
1.31284e-08
-7.16037e-11
-7.71651e-11
1.3107e-08
9.94627e-09
3.18536e-11
9.95875e-09
2.27657e-11
9.96745e-09
1.40357e-11
9.97271e-09
5.72357e-12
9.97482e-09
-2.08057e-12
9.97406e-09
-9.40463e-12
9.97065e-09
-1.62938e-11
9.9648e-09
-2.27795e-11
9.95667e-09
-2.88849e-11
9.94643e-09
-3.46271e-11
9.9342e-09
-4.00181e-11
9.92011e-09
-4.50663e-11
9.90429e-09
-4.97776e-11
9.88684e-09
-5.41563e-11
-5.82037e-11
9.86788e-09
7.39206e-09
2.02661e-11
7.40061e-09
1.42185e-11
7.40635e-09
8.29995e-12
7.40947e-09
2.60555e-12
7.41016e-09
-2.77477e-12
7.40861e-09
-7.85605e-12
7.40498e-09
-1.26604e-11
7.3994e-09
-1.72012e-11
7.392e-09
-2.14879e-11
7.3829e-09
-2.55265e-11
7.3722e-09
-2.9321e-11
7.36001e-09
-3.28737e-11
7.34642e-09
-3.6186e-11
7.33152e-09
-3.92591e-11
-4.20934e-11
7.31541e-09
5.39005e-09
1.23962e-11
5.39576e-09
8.51335e-12
5.3994e-09
4.65325e-12
5.4011e-09
9.1072e-13
5.40096e-09
-2.64215e-12
5.39912e-09
-6.01602e-12
5.39568e-09
-9.22009e-12
5.39074e-09
-1.22586e-11
5.38439e-09
-1.51337e-11
5.37671e-09
-1.78463e-11
5.36778e-09
-2.0396e-11
5.35769e-09
-2.27826e-11
5.34651e-09
-2.50053e-11
5.33432e-09
-2.70638e-11
-2.89581e-11
5.32118e-09
3.83425e-09
7.18603e-12
3.83795e-09
4.81243e-12
3.84018e-09
2.42755e-12
3.84098e-09
1.04064e-13
3.84045e-09
-2.10955e-12
3.83866e-09
-4.22205e-12
3.83567e-09
-6.23599e-12
3.83157e-09
-8.15145e-12
3.8264e-09
-9.96756e-12
3.82024e-09
-1.1683e-11
3.81314e-09
-1.32959e-11
3.80516e-09
-1.48051e-11
3.79636e-09
-1.62091e-11
3.78681e-09
-1.7507e-11
-1.86983e-11
3.77655e-09
2.63625e-09
3.84788e-12
2.63857e-09
2.49705e-12
2.63986e-09
1.13714e-12
2.64016e-09
-1.90578e-13
2.6395e-09
-1.45918e-12
2.63796e-09
-2.67548e-12
2.63556e-09
-3.83912e-12
2.63236e-09
-4.94879e-12
2.62839e-09
-6.0028e-12
2.62371e-09
-6.99935e-12
2.61835e-09
-7.93659e-12
2.61236e-09
-8.81319e-12
2.60578e-09
-9.62796e-12
2.59865e-09
-1.03795e-11
-1.10671e-11
2.59102e-09
1.72307e-09
1.81046e-12
1.72444e-09
1.12382e-12
1.72514e-09
4.42314e-13
1.72517e-09
-2.22717e-13
1.72457e-09
-8.6009e-13
1.72337e-09
-1.47405e-12
1.72159e-09
-2.06344e-12
1.71927e-09
-2.62693e-12
1.71643e-09
-3.16304e-12
1.7131e-09
-3.67038e-12
1.70931e-09
-4.14761e-12
1.70509e-09
-4.59377e-12
1.70047e-09
-5.00809e-12
1.69548e-09
-5.38933e-12
-5.73607e-12
1.69015e-09
1.03499e-09
6.66643e-13
1.03573e-09
3.8179e-13
1.03606e-09
1.13135e-13
1.03599e-09
-1.48277e-13
1.03553e-09
-4.00112e-13
1.0347e-09
-6.44022e-13
1.03351e-09
-8.79067e-13
1.03199e-09
-1.10438e-12
1.03015e-09
-1.31909e-12
1.028e-09
-1.52242e-12
1.02556e-09
-1.71368e-12
1.02286e-09
-1.89234e-12
1.01991e-09
-2.05811e-12
1.01673e-09
-2.21011e-12
-2.34647e-12
1.01334e-09
5.23593e-10
1.29579e-13
5.23919e-10
5.59693e-14
5.24034e-10
-1.8467e-15
5.23944e-10
-5.81039e-14
5.23657e-10
-1.13118e-13
5.2318e-10
-1.66952e-13
5.2252e-10
-2.19169e-13
5.21685e-10
-2.69405e-13
5.20683e-10
-3.1735e-13
5.19523e-10
-3.6275e-13
5.18215e-10
-4.05403e-13
5.16768e-10
-4.45147e-13
5.15192e-10
-4.81951e-13
5.13497e-10
-5.1544e-13
-5.44013e-13
5.11695e-10
1.49883e-10
1.49939e-10
1.49938e-10
1.4988e-10
1.49766e-10
1.49599e-10
1.4938e-10
1.49111e-10
1.48794e-10
1.48431e-10
1.48025e-10
1.4758e-10
1.47098e-10
1.46583e-10
1.46039e-10
4.60893e-10
-2.77231e-10
1.99714e-10
5.7035e-10
-2.98751e-10
1.89294e-10
6.85619e-10
-2.78572e-10
1.63303e-10
8.01647e-10
-2.46265e-10
1.30237e-10
9.17266e-10
-2.08129e-10
9.25092e-11
1.03266e-09
-1.67468e-10
5.20701e-11
1.14841e-09
-1.2585e-10
1.01066e-11
1.26504e-09
-8.44341e-11
-3.22021e-11
1.38304e-09
-4.43826e-11
-7.36091e-11
1.50275e-09
-6.95378e-12
-1.12758e-10
1.62445e-09
2.64691e-11
-1.48171e-10
1.74832e-09
5.44059e-11
-1.7828e-10
1.87448e-09
7.53574e-11
-2.01512e-10
2.00297e-09
8.79474e-11
-2.16434e-10
2.1338e-09
9.11425e-11
-2.21982e-10
2.26703e-09
8.45319e-11
-2.17761e-10
2.40276e-09
6.86132e-11
-2.04339e-10
2.54122e-09
4.4846e-11
-1.83308e-10
2.68281e-09
1.50503e-11
-1.56643e-10
2.82799e-09
-2.09773e-11
-1.242e-10
2.97677e-09
-7.14143e-11
-7.73661e-11
3.12761e-09
-1.64781e-10
1.39469e-11
3.25509e-09
-3.06823e-10
1.79339e-10
3.35105e-09
-4.89033e-10
3.93076e-10
3.41635e-09
-6.99789e-10
6.34487e-10
3.4521e-09
-9.11125e-10
8.75374e-10
3.46004e-09
-1.09524e-09
1.0873e-09
3.44259e-09
-1.23001e-09
1.24747e-09
3.40263e-09
-1.30096e-09
1.34091e-09
3.34332e-09
-1.30128e-09
1.36059e-09
3.26779e-09
-1.23049e-09
1.30603e-09
3.179e-09
-1.09275e-09
1.18154e-09
3.07963e-09
-8.94967e-10
9.94339e-10
2.97197e-09
-6.45299e-10
7.52956e-10
2.85785e-09
-3.5215e-10
4.66267e-10
2.73843e-09
-2.39588e-11
1.43386e-10
2.61379e-09
3.30051e-10
-2.05418e-10
2.48256e-09
6.98196e-10
-5.66957e-10
2.34145e-09
1.0643e-09
-9.23192e-10
2.18542e-09
1.40603e-09
-1.25e-09
2.00851e-09
1.6942e-09
-1.51729e-09
1.80616e-09
1.89251e-09
-1.69016e-09
1.57917e-09
1.95602e-09
-1.72903e-09
1.34323e-09
1.82683e-09
-1.59089e-09
1.39325e-09
1.14278e-09
-1.1928e-09
9.03733e-10
-3.15878e-10
9.73823e-10
-3.68841e-10
1.06791e-09
-3.72655e-10
1.17501e-09
-3.5337e-10
1.28919e-09
-3.22304e-10
1.4076e-09
-2.85883e-10
1.5291e-09
-2.47352e-10
1.6533e-09
-2.08628e-10
1.78011e-09
-1.71197e-10
1.9096e-09
-1.36441e-10
2.04184e-09
-1.0577e-10
2.17689e-09
-8.06474e-11
2.31479e-09
-6.25375e-11
2.45552e-09
-5.27832e-11
2.59906e-09
-5.24034e-11
2.74543e-09
-6.18328e-11
2.89469e-09
-8.06523e-11
3.04708e-09
-1.07543e-10
3.20297e-09
-1.40844e-10
3.36281e-09
-1.80812e-10
3.52653e-09
-2.35139e-10
3.6924e-09
-3.30645e-10
3.83259e-09
-4.47023e-10
3.93825e-09
-5.94688e-10
4.01041e-09
-7.71946e-10
4.05035e-09
-9.5107e-10
4.06007e-09
-1.10496e-09
4.04229e-09
-1.21223e-09
4.00027e-09
-1.25895e-09
3.93757e-09
-1.23857e-09
3.85776e-09
-1.15068e-09
3.76426e-09
-9.99256e-10
3.66025e-09
-7.90957e-10
3.54858e-09
-5.33631e-10
3.43175e-09
-2.35317e-10
3.31176e-09
9.60317e-11
3.18989e-09
4.51916e-10
3.06639e-09
8.217e-10
2.94026e-09
1.19043e-09
2.80973e-09
1.53657e-09
2.67374e-09
1.83019e-09
2.53489e-09
2.03135e-09
2.40271e-09
2.08821e-09
2.29173e-09
1.93781e-09
1.51808e-09
2.1669e-09
1.50709e-09
-3.36635e-10
1.54798e-09
-4.09729e-10
1.61591e-09
-4.40592e-10
1.70527e-09
-4.42727e-10
1.80967e-09
-4.26699e-10
1.92435e-09
-4.00572e-10
2.04643e-09
-3.6943e-10
2.17425e-09
-3.36446e-10
2.3069e-09
-3.03852e-10
2.4439e-09
-2.73439e-10
2.58496e-09
-2.46832e-10
2.72991e-09
-2.25592e-10
2.8786e-09
-2.11224e-10
3.0309e-09
-2.05086e-10
3.18671e-09
-2.08211e-10
3.34595e-09
-2.21078e-10
3.50866e-09
-2.43361e-10
3.67501e-09
-2.73893e-10
3.84534e-09
-3.11177e-10
4.02005e-09
-3.55516e-10
4.19897e-09
-4.14063e-10
4.38012e-09
-5.11794e-10
4.53327e-09
-6.00167e-10
4.64881e-09
-7.10229e-10
4.72797e-09
-8.51104e-10
4.77224e-09
-9.95343e-10
4.78389e-09
-1.11661e-09
4.76599e-09
-1.19433e-09
4.72223e-09
-1.21518e-09
4.65661e-09
-1.17295e-09
4.57322e-09
-1.06729e-09
4.47603e-09
-9.02066e-10
4.3688e-09
-6.83728e-10
4.25506e-09
-4.19894e-10
4.13813e-09
-1.18392e-10
4.02112e-09
2.13048e-10
3.90679e-09
5.66247e-10
3.79744e-09
9.31043e-10
3.69488e-09
1.29299e-09
3.60079e-09
1.63065e-09
3.51779e-09
1.91319e-09
3.45025e-09
2.09889e-09
3.40178e-09
2.13667e-09
3.36269e-09
1.97691e-09
1.60135e-09
3.27942e-09
2.31037e-09
-3.47692e-10
2.33096e-09
-4.30323e-10
2.37394e-09
-4.83573e-10
2.44071e-09
-5.095e-10
2.52805e-09
-5.14037e-10
2.63159e-09
-5.0411e-10
2.74762e-09
-4.85462e-10
2.87348e-09
-4.62304e-10
3.00737e-09
-4.37739e-10
3.1481e-09
-4.14174e-10
3.2949e-09
-3.93627e-10
3.44721e-09
-3.77901e-10
3.60462e-09
-3.68636e-10
3.76681e-09
-3.67274e-10
3.93351e-09
-3.74911e-10
4.10453e-09
-3.92103e-10
4.27981e-09
-4.18638e-10
4.45943e-09
-4.53515e-10
4.64366e-09
-4.95411e-10
4.83281e-09
-5.4466e-10
5.02657e-09
-6.07822e-10
5.22265e-09
-7.07882e-10
5.38847e-09
-7.65983e-10
5.5137e-09
-8.35458e-10
5.59973e-09
-9.37132e-10
5.64828e-09
-1.04389e-09
5.66191e-09
-1.13025e-09
5.6441e-09
-1.17652e-09
5.59897e-09
-1.17006e-09
5.53107e-09
-1.10505e-09
5.44505e-09
-9.81265e-10
5.34549e-09
-8.02508e-10
5.23684e-09
-5.75082e-10
5.12343e-09
-3.06478e-10
5.00952e-09
-4.48498e-12
4.89945e-09
3.23112e-10
4.79766e-09
6.68046e-10
4.70858e-09
1.02012e-09
4.6366e-09
1.36496e-09
4.58592e-09
1.68134e-09
4.56011e-09
1.939e-09
4.56021e-09
2.09879e-09
4.5789e-09
2.11798e-09
4.59016e-09
1.96564e-09
1.64943e-09
4.54208e-09
3.36732e-09
-3.52757e-10
3.37437e-09
-4.37372e-10
3.39634e-09
-5.05538e-10
3.43947e-09
-5.52634e-10
3.50482e-09
-5.79388e-10
3.59037e-09
-5.89658e-10
3.69308e-09
-5.88176e-10
3.81006e-09
-5.79285e-10
3.93895e-09
-5.66624e-10
4.07794e-09
-5.53168e-10
4.22572e-09
-5.414e-10
4.38127e-09
-5.33457e-10
4.54385e-09
-5.31216e-10
4.71285e-09
-5.36271e-10
4.88778e-09
-5.49841e-10
5.06827e-09
-5.72598e-10
5.25411e-09
-6.04476e-10
5.44525e-09
-6.44656e-10
5.64184e-09
-6.91996e-10
5.84402e-09
-7.46848e-10
6.05133e-09
-8.15123e-10
6.2611e-09
-9.17656e-10
6.43856e-09
-9.43442e-10
6.57269e-09
-9.69587e-10
6.66501e-09
-1.02946e-09
6.71747e-09
-1.09635e-09
6.73297e-09
-1.14574e-09
6.71537e-09
-1.15892e-09
6.66933e-09
-1.12402e-09
6.59994e-09
-1.03566e-09
6.51249e-09
-8.93807e-10
6.41223e-09
-7.02257e-10
6.30439e-09
-4.67238e-10
6.19413e-09
-1.96213e-10
6.08673e-09
1.02911e-10
5.98777e-09
4.22076e-10
5.90318e-09
7.52636e-10
5.83919e-09
1.08411e-09
5.80191e-09
1.40224e-09
5.7964e-09
1.68685e-09
5.82471e-09
1.91069e-09
5.88237e-09
2.04113e-09
5.9529e-09
2.04745e-09
6.0037e-09
1.91485e-09
1.66162e-09
5.99151e-09
4.74515e-09
-3.53731e-10
4.74353e-09
-4.35747e-10
4.74946e-09
-5.11468e-10
4.77098e-09
-5.74152e-10
4.81253e-09
-6.20942e-10
4.8752e-09
-6.52332e-10
4.95791e-09
-6.70886e-10
5.05862e-09
-6.7999e-10
5.17509e-09
-6.83096e-10
5.3053e-09
-6.83378e-10
5.44754e-09
-6.83639e-10
5.60042e-09
-6.86337e-10
5.76281e-09
-6.93606e-10
5.93379e-09
-7.07249e-10
6.1126e-09
-7.28651e-10
6.29864e-09
-7.58641e-10
6.49149e-09
-7.97326e-10
6.69093e-09
-8.44091e-10
6.89691e-09
-8.97977e-10
7.10939e-09
-9.59331e-10
7.32762e-09
-1.03336e-09
7.54854e-09
-1.13857e-09
7.73553e-09
-1.13043e-09
7.87692e-09
-1.11098e-09
7.97432e-09
-1.12685e-09
8.02986e-09
-1.1519e-09
8.04678e-09
-1.16266e-09
8.02939e-09
-1.14153e-09
7.98286e-09
-1.07749e-09
7.91289e-09
-9.65695e-10
7.82543e-09
-8.06342e-10
7.72646e-09
-6.03289e-10
7.62197e-09
-3.62746e-10
7.51798e-09
-9.22191e-11
7.4207e-09
2.00188e-10
7.33671e-09
5.06061e-10
7.27303e-09
8.16317e-10
7.23685e-09
1.12029e-09
7.23472e-09
1.40437e-09
7.27091e-09
1.65066e-09
7.34465e-09
1.83694e-09
7.44651e-09
1.93927e-09
7.55524e-09
1.93872e-09
7.6388e-09
1.83129e-09
1.63625e-09
7.66417e-09
6.52514e-09
-3.52074e-10
6.51839e-09
-4.28996e-10
6.51332e-09
-5.06399e-10
6.51735e-09
-5.78187e-10
6.53652e-09
-6.4011e-10
6.57447e-09
-6.90285e-10
6.63256e-09
-7.28975e-10
6.71048e-09
-7.57912e-10
6.807e-09
-7.79614e-10
6.9205e-09
-7.96873e-10
7.0493e-09
-8.12447e-10
7.19188e-09
-8.2891e-10
7.34685e-09
-8.48575e-10
7.51302e-09
-8.73422e-10
7.68938e-09
-9.05008e-10
7.87507e-09
-9.44334e-10
8.06944e-09
-9.91697e-10
8.27204e-09
-1.04669e-09
8.4826e-09
-1.10853e-09
8.7008e-09
-1.17754e-09
8.92557e-09
-1.25812e-09
9.15333e-09
-1.36634e-09
9.34625e-09
-1.32336e-09
9.49211e-09
-1.25684e-09
9.59245e-09
-1.22718e-09
9.64956e-09
-1.20902e-09
9.667e-09
-1.1801e-09
9.64953e-09
-1.12405e-09
9.60283e-09
-1.03079e-09
9.53322e-09
-8.96086e-10
9.4473e-09
-7.20425e-10
9.35178e-09
-5.07761e-10
9.25334e-09
-2.64313e-10
9.15876e-09
2.3621e-12
9.07494e-09
2.84012e-10
9.00903e-09
5.71965e-10
8.96841e-09
8.56943e-10
8.96016e-09
1.12854e-09
8.99002e-09
1.37451e-09
9.06036e-09
1.58032e-09
9.16757e-09
1.72974e-09
9.29934e-09
1.8075e-09
9.43397e-09
1.80409e-09
9.5439e-09
1.72136e-09
1.57552e-09
9.60464e-09
8.80342e-09
-3.49103e-10
8.79423e-09
-4.19807e-10
8.78271e-09
-4.94876e-10
8.77444e-09
-5.69924e-10
8.77529e-09
-6.40955e-10
8.79014e-09
-7.05137e-10
8.82231e-09
-7.61141e-10
8.87346e-09
-8.09069e-10
8.94397e-09
-8.50121e-10
9.0333e-09
-8.86198e-10
9.1404e-09
-9.19555e-10
9.26404e-09
-9.52542e-10
9.40288e-09
-9.8742e-10
9.55568e-09
-1.02621e-09
9.72125e-09
-1.07058e-09
9.89857e-09
-1.12165e-09
1.00868e-08
-1.17989e-09
1.02851e-08
-1.24508e-09
1.04932e-08
-1.31658e-09
1.07103e-08
-1.39462e-09
1.09349e-08
-1.48277e-09
1.1163e-08
-1.5944e-09
1.13563e-08
-1.51671e-09
1.15023e-08
-1.40284e-09
1.16023e-08
-1.32712e-09
1.16585e-08
-1.26528e-09
1.16749e-08
-1.19651e-09
1.16566e-08
-1.10575e-09
1.16098e-08
-9.83993e-10
1.15414e-08
-8.2766e-10
1.14586e-08
-6.37578e-10
1.13686e-08
-4.178e-10
1.12788e-08
-1.74524e-10
1.11964e-08
8.47354e-11
1.11287e-08
3.51767e-10
1.10827e-08
6.17947e-10
1.10654e-08
8.74269e-10
1.10827e-08
1.11121e-09
1.11387e-08
1.31857e-09
1.12334e-08
1.48561e-09
1.13611e-08
1.60196e-09
1.15092e-08
1.65947e-09
1.16582e-08
1.65507e-09
1.17863e-08
1.59321e-09
1.48626e-09
1.18756e-08
1.1692e-08
-3.45797e-10
1.16822e-08
-4.1009e-10
1.16679e-08
-4.80559e-10
1.16525e-08
-5.54528e-10
1.16406e-08
-6.29045e-10
1.16369e-08
-7.01454e-10
1.16456e-08
-7.69843e-10
1.16698e-08
-8.33276e-10
1.17115e-08
-8.91791e-10
1.17716e-08
-9.46243e-10
1.18501e-08
-9.98072e-10
1.19466e-08
-1.04906e-09
1.20603e-08
-1.10113e-09
1.21902e-08
-1.15612e-09
1.23353e-08
-1.21562e-09
1.24944e-08
-1.28078e-09
1.26666e-08
-1.35214e-09
1.28512e-08
-1.4296e-09
1.30472e-08
-1.51262e-09
1.32538e-08
-1.60123e-09
1.34691e-08
-1.69803e-09
1.36882e-08
-1.81356e-09
1.38742e-08
-1.70267e-09
1.40141e-08
-1.54276e-09
1.41088e-08
-1.42185e-09
1.41607e-08
-1.31712e-09
1.41736e-08
-1.20944e-09
1.41531e-08
-1.08527e-09
1.41059e-08
-9.36721e-10
1.40391e-08
-7.60929e-10
1.39606e-08
-5.5906e-10
1.3878e-08
-3.35221e-10
1.3799e-08
-9.54836e-11
1.37309e-08
1.52875e-10
1.36806e-08
4.01997e-10
1.36548e-08
6.43754e-10
1.36591e-08
8.69973e-10
1.36977e-08
1.07259e-09
1.37725e-08
1.24384e-09
1.38814e-08
1.37667e-09
1.40179e-08
1.46545e-09
1.41703e-08
1.50713e-09
1.43229e-08
1.50242e-09
1.44596e-08
1.45654e-09
1.37866e-09
1.45672e-08
1.53189e-08
-3.42523e-10
1.53097e-08
-4.00845e-10
1.5295e-08
-4.65853e-10
1.52766e-08
-5.36164e-10
1.52575e-08
-6.09963e-10
1.52414e-08
-6.85319e-10
1.52321e-08
-7.60512e-10
1.52331e-08
-8.34307e-10
1.52474e-08
-9.06106e-10
1.52771e-08
-9.75968e-10
1.53236e-08
-1.04453e-09
1.53874e-08
-1.11289e-09
1.54687e-08
-1.18238e-09
1.5567e-08
-1.25445e-09
1.56818e-08
-1.33042e-09
1.58123e-08
-1.41127e-09
1.59576e-08
-1.49748e-09
1.6117e-08
-1.58896e-09
1.62895e-08
-1.68511e-09
1.64739e-08
-1.78566e-09
1.6668e-08
-1.89211e-09
1.68664e-08
-2.01191e-09
1.70347e-08
-1.87099e-09
1.71603e-08
-1.6684e-09
1.72434e-08
-1.50493e-09
1.7286e-08
-1.35968e-09
1.7292e-08
-1.21549e-09
1.72672e-08
-1.06049e-09
1.72185e-08
-8.88003e-10
1.71535e-08
-6.95885e-10
1.708e-08
-4.85595e-10
1.7006e-08
-2.61186e-10
1.69389e-08
-2.84303e-11
1.68859e-08
2.0592e-10
1.68531e-08
4.34725e-10
1.68461e-08
6.50826e-10
1.68687e-08
8.47375e-10
1.69231e-08
1.01814e-09
1.70091e-08
1.15782e-09
1.71234e-08
1.26242e-09
1.72591e-08
1.32973e-09
1.74065e-08
1.35978e-09
1.75537e-08
1.35518e-09
1.76892e-08
1.32099e-09
1.26403e-09
1.78039e-08
1.98274e-08
-3.38984e-10
1.98187e-08
-3.92116e-10
1.98046e-08
-4.51763e-10
1.97858e-08
-5.17358e-10
1.97638e-08
-5.8798e-10
1.9741e-08
-6.62482e-10
1.97201e-08
-7.39679e-10
1.97044e-08
-8.18552e-10
1.96967e-08
-8.984e-10
1.96996e-08
-9.78934e-10
1.97154e-08
-1.06029e-09
1.97455e-08
-1.14299e-09
1.97909e-08
-1.22782e-09
1.98522e-08
-1.31574e-09
1.99294e-08
-1.40764e-09
2.00224e-08
-1.5042e-09
2.01306e-08
-1.6057e-09
2.02535e-08
-1.71186e-09
2.03903e-08
-1.82189e-09
2.05396e-08
-1.93501e-09
2.0699e-08
-2.05149e-09
2.08626e-08
-2.17548e-09
2.1001e-08
-2.00941e-09
2.11024e-08
-1.76978e-09
2.11659e-08
-1.56843e-09
2.11931e-08
-1.38687e-09
2.11878e-08
-1.21025e-09
2.11558e-08
-1.02849e-09
2.1104e-08
-8.3617e-10
2.10399e-08
-6.31833e-10
2.09715e-08
-4.17135e-10
2.09062e-08
-1.95917e-10
2.08512e-08
2.65814e-11
2.08127e-08
2.44434e-10
2.07958e-08
4.51569e-10
2.08045e-08
6.42161e-10
2.08409e-08
8.10983e-10
2.09053e-08
9.53719e-10
2.09959e-08
1.06724e-09
2.11085e-08
1.14984e-09
2.12367e-08
1.20146e-09
2.13728e-08
1.22372e-09
2.15081e-08
1.21985e-09
2.16348e-08
1.19434e-09
1.15233e-09
2.17465e-08
2.53706e-08
-3.34508e-10
2.53618e-08
-3.83323e-10
2.53483e-08
-4.38198e-10
2.53299e-08
-4.99029e-10
2.53074e-08
-5.65477e-10
2.5282e-08
-6.37006e-10
2.52553e-08
-7.12974e-10
2.52295e-08
-7.92753e-10
2.52069e-08
-8.75847e-10
2.51899e-08
-9.61974e-10
2.51808e-08
-1.05111e-09
2.51813e-08
-1.14349e-09
2.5193e-08
-1.23954e-09
2.52171e-08
-1.33981e-09
2.52543e-08
-1.44483e-09
2.5305e-08
-1.55493e-09
2.53693e-08
-1.67006e-09
2.54471e-08
-1.78965e-09
2.55378e-08
-1.91259e-09
2.56403e-08
-2.03744e-09
2.57518e-08
-2.16302e-09
2.58664e-08
-2.29007e-09
2.5962e-08
-2.10504e-09
2.60284e-08
-1.8362e-09
2.60637e-08
-1.60372e-09
2.60689e-08
-1.39202e-09
2.60474e-08
-1.18879e-09
2.60048e-08
-9.85838e-10
2.59476e-08
-7.78994e-10
2.58832e-08
-5.67411e-10
2.58188e-08
-3.52788e-10
2.57615e-08
-1.38567e-10
2.57173e-08
7.07843e-11
2.56913e-08
2.70419e-10
2.56873e-08
4.55571e-10
2.57075e-08
6.21929e-10
2.57525e-08
7.65932e-10
2.58213e-08
8.8501e-10
2.59107e-08
9.77747e-10
2.60166e-08
1.04398e-09
2.61333e-08
1.08479e-09
2.62546e-08
1.10243e-09
2.63744e-08
1.10007e-09
2.64872e-08
1.08146e-09
1.05051e-09
2.65891e-08
3.21026e-08
-3.2865e-10
3.20932e-08
-3.73946e-10
3.20798e-08
-4.24771e-10
3.2062e-08
-4.81266e-10
3.204e-08
-5.43435e-10
3.20141e-08
-6.11146e-10
3.19853e-08
-6.84165e-10
3.19548e-08
-7.62226e-10
3.1924e-08
-8.45101e-10
3.18947e-08
-9.32665e-10
3.18685e-08
-1.02494e-09
3.18471e-08
-1.12207e-09
3.18319e-08
-1.22436e-09
3.18243e-08
-1.33213e-09
3.18251e-08
-1.44566e-09
3.18352e-08
-1.56501e-09
3.1855e-08
-1.68986e-09
3.18847e-08
-1.81934e-09
3.1924e-08
-1.95192e-09
3.1972e-08
-2.08541e-09
3.20261e-08
-2.21714e-09
3.20804e-08
-2.34442e-09
3.21225e-08
-2.14707e-09
3.21446e-08
-1.8583e-09
3.2144e-08
-1.60314e-09
3.21211e-08
-1.36913e-09
3.20789e-08
-1.14662e-09
3.20224e-08
-9.29337e-10
3.19577e-08
-7.14251e-10
3.18913e-08
-5.00978e-10
3.18296e-08
-2.91096e-10
3.17785e-08