/*--------------------------------*- C++ -*----------------------------------*\
| =========                 |                                                 |
| \\      /  F ield         | OpenFOAM: The Open Source CFD Toolbox           |
|  \\    /   O peration     | Version:  2312                                  |
|   \\  /    A nd           | Website:  www.openfoam.com                      |
|    \\/     M anipulation  |                                                 |
\*---------------------------------------------------------------------------*/
FoamFile
{
    version     2.0;
    format      ascii;
    arch        "LSB;label=32;scalar=64";
    class       volVectorField;
    location    "300";
    object      U;
}
// * * * * * * * * * * * * * * * * * * * * * * * * * * * * * * * * * * * * * //

dimensions      [0 1 -1 0 0 0 0];

internalField   nonuniform List<vector> 
4800
(
(0.000141628 3.70244e-08 -8.59269e-27)
(0.000140085 4.94247e-08 -6.13104e-26)
(0.000139431 5.89069e-08 7.83736e-26)
(0.000139374 6.36986e-08 3.67806e-26)
(0.000139767 6.40112e-08 5.50771e-25)
(0.000140516 5.90182e-08 -1.31553e-24)
(0.000141577 4.7488e-08 1.23744e-24)
(0.000142944 2.70164e-08 -1.8036e-24)
(0.000144663 -8.22057e-09 5.7308e-25)
(0.000146882 -7.55501e-08 1.96574e-24)
(0.000150026 -2.37377e-07 -6.00912e-25)
(0.0001552 -7.19801e-07 -4.8117e-26)
(0.000165221 -2.1565e-06 -7.2062e-25)
(0.000190363 -9.19245e-06 3.33614e-25)
(0.000232745 -4.82472e-05 -2.61721e-25)
(0.000439207 3.7839e-07 -3.51344e-26)
(0.000434283 2.17718e-07 4.37335e-26)
(0.00043209 8.93265e-08 -4.1253e-25)
(0.000431715 -3.63517e-08 3.0509e-25)
(0.000432698 -1.71597e-07 1.0039e-24)
(0.000434748 -3.294e-07 -1.60381e-24)
(0.000437728 -5.28497e-07 -4.67326e-25)
(0.000441625 -8.0042e-07 -1.18285e-25)
(0.000446576 -1.21494e-06 3.71634e-24)
(0.000453009 -1.95574e-06 -2.70773e-24)
(0.000461948 -3.5392e-06 2.88499e-25)
(0.000475539 -7.39662e-06 4.31341e-25)
(0.000497804 -1.70103e-05 -6.25817e-25)
(0.000536462 -4.04164e-05 -2.0963e-25)
(0.000583127 -9.57168e-05 7.8347e-25)
(0.000769861 1.23877e-06 -2.82919e-26)
(0.000761041 7.13293e-07 2.87652e-26)
(0.000756964 2.9451e-07 3.02772e-25)
(0.000756022 -1.06317e-07 -7.23086e-25)
(0.000757401 -5.3091e-07 7.12196e-25)
(0.000760591 -1.01952e-06 6.7982e-25)
(0.000765346 -1.62994e-06 -1.74133e-24)
(0.000771626 -2.45873e-06 -1.07996e-24)
(0.000779636 -3.70781e-06 2.52756e-24)
(0.000789965 -5.85153e-06 9.43577e-25)
(0.000803842 -1.00122e-05 -3.18046e-24)
(0.000823269 -1.8658e-05 -4.85213e-25)
(0.000850566 -3.63768e-05 1.25274e-24)
(0.000886799 -6.99693e-05 1.97142e-24)
(0.000919967 -0.000125436 -9.90533e-25)
(0.00113633 2.83018e-06 1.18834e-26)
(0.00112304 1.66711e-06 -8.31717e-26)
(0.00111667 7.42288e-07 3.7374e-25)
(0.00111484 -1.31347e-07 4.07646e-25)
(0.00111633 -1.04839e-06 -3.90921e-25)
(0.00112039 -2.09481e-06 -2.30609e-24)
(0.00112664 -3.39089e-06 -1.58351e-24)
(0.00113497 -5.13196e-06 5.75433e-24)
(0.00114556 -7.69968e-06 2.36223e-24)
(0.00115895 -1.1898e-05 -3.2515e-24)
(0.00117606 -1.93568e-05 -1.26935e-24)
(0.00119785 -3.29693e-05 -9.40544e-25)
(0.0012242 -5.67015e-05 1.59111e-26)
(0.00125214 -9.36794e-05 6.33165e-25)
(0.0012722 -0.000141859 3.02229e-27)
(0.00154117 5.39821e-06 -2.50075e-26)
(0.00152283 3.24833e-06 -1.54333e-25)
(0.0015137 1.54281e-06 -1.01244e-25)
(0.00151058 -4.69953e-08 2.60287e-25)
(0.00151181 -1.69685e-06 -7.52217e-25)
(0.00151636 -3.55795e-06 1.84665e-24)
(0.00152366 -5.83174e-06 -3.12865e-25)
(0.00153349 -8.82916e-06 1.11559e-24)
(0.00154588 -1.31073e-05 -5.97538e-24)
(0.00156108 -1.97061e-05 1.09457e-23)
(0.00157939 -3.04228e-05 -1.01253e-23)
(0.00160051 -4.7813e-05 5.09978e-24)
(0.00162264 -7.42815e-05 -4.51017e-24)
(0.00164186 -0.00010989 4.03084e-24)
(0.00165267 -0.000149966 -1.53995e-24)
(0.00198655 9.25965e-06 3.81489e-26)
(0.00196261 5.69286e-06 1.37989e-25)
(0.00195023 2.86932e-06 -7.22512e-25)
(0.00194537 2.73771e-07 -4.6571e-25)
(0.00194586 -2.38233e-06 1.20163e-24)
(0.00195039 -5.33377e-06 4.29339e-25)
(0.00195816 -8.87181e-06 -3.2792e-24)
(0.00196874 -1.34141e-05 7.57647e-24)
(0.00198192 -1.96328e-05 -9.47916e-24)
(0.00199753 -2.86222e-05 2.13186e-24)
(0.00201515 -4.19699e-05 6.2729e-24)
(0.0020336 -6.14249e-05 -8.23059e-24)
(0.00205052 -8.7851e-05 3.82472e-24)
(0.00206271 -0.000119754 3.74846e-24)
(0.00206769 -0.000152672 -2.69701e-24)
(0.00247388 1.47948e-05 3.65743e-26)
(0.00244396 9.3019e-06 -2.16093e-25)
(0.00242789 4.96019e-06 7.7123e-25)
(0.0024208 1.02557e-06 -1.05466e-24)
(0.00242003 -2.93504e-06 -3.5559e-24)
(0.00242394 -7.2546e-06 5.85135e-24)
(0.00243146 -1.23091e-05 -3.45153e-24)
(0.00244192 -1.85872e-05 1.13061e-23)
(0.00245477 -2.67799e-05 -7.23118e-24)
(0.00246943 -3.78455e-05 -3.20854e-24)
(0.00248496 -5.29151e-05 -5.99098e-24)
(0.0024998 -7.28575e-05 5.05424e-24)
(0.00251184 -9.74985e-05 1.32621e-24)
(0.00251902 -0.000124961 1.07243e-24)
(0.00252058 -0.000151903 -8.86465e-25)
(0.00300326 2.24149e-05 -6.11989e-26)
(0.00296735 1.44264e-05 8.27831e-25)
(0.00294731 8.11459e-06 -1.89739e-24)
(0.00293758 2.474e-06 -1.55289e-24)
(0.00293503 -3.09929e-06 5.22321e-25)
(0.00293767 -9.04449e-06 1.0305e-24)
(0.00294418 -1.58038e-05 3.62677e-24)
(0.00295358 -2.38845e-05 -9.40416e-24)
(0.00296504 -3.38977e-05 -4.82037e-24)
(0.00297766 -4.65378e-05 1.20053e-23)
(0.00299025 -6.24181e-05 -3.51985e-24)
(0.00300132 -8.17191e-05 1.10186e-23)
(0.0030093 -0.000103775 -5.31087e-24)
(0.00301311 -0.000126935 -1.57954e-24)
(0.00301277 -0.000148992 8.7938e-25)
(0.00357276 3.24872e-05 -9.38695e-27)
(0.0035315 2.14244e-05 5.26589e-25)
(0.00350758 1.26703e-05 -7.26659e-25)
(0.003495 4.94656e-06 1.71212e-24)
(0.00349024 -2.53458e-06 -9.81994e-24)
(0.00349105 -1.0318e-05 9.79668e-24)
(0.00349582 -1.8885e-05 -1.47246e-23)
(0.00350335 -2.8709e-05 8.32225e-24)
(0.00351257 -4.02545e-05 5.79373e-24)
(0.00352241 -5.39171e-05 1.17617e-23)
(0.00353169 -6.98797e-05 -1.40063e-23)
(0.00353923 -8.7915e-05 -2.43462e-24)
(0.00354401 -0.000107253 9.56051e-25)
(0.00354553 -0.000126668 6.63314e-24)
(0.00354414 -0.000144809 -2.53743e-24)
(0.00417747 4.51889e-05 5.95229e-26)
(0.00413254 3.05622e-05 -2.50842e-25)
(0.00410545 1.89379e-05 1.08814e-24)
(0.0040902 8.78743e-06 -3.66224e-24)
(0.00408311 -8.50239e-07 5.26258e-24)
(0.00408171 -1.06139e-05 -6.40481e-24)
(0.00408423 -2.09967e-05 9.99693e-24)
(0.0040893 -3.24015e-05 1.69922e-24)
(0.00409574 -4.51286e-05 -1.16895e-23)
(0.00410246 -5.93223e-05 1.53145e-23)
(0.00410846 -7.48919e-05 -1.53271e-23)
(0.00411287 -9.14494e-05 -4.19168e-24)
(0.00411512 -0.000108327 6.60809e-24)
(0.00411501 -0.000124702 1.80818e-24)
(0.00411295 -0.000139797 -7.42352e-25)
(0.00480859 6.02653e-05 2.74478e-25)
(0.00476299 4.1833e-05 -2.19694e-24)
(0.00473439 2.70631e-05 -3.40385e-24)
(0.00471731 1.42492e-05 7.51067e-24)
(0.00470821 2.30189e-06 3.20466e-24)
(0.00470463 -9.48571e-06 -1.85148e-23)
(0.00470475 -2.15959e-05 5.11344e-24)
(0.00470715 -3.43506e-05 3.37413e-24)
(0.00471068 -4.79123e-05 -1.37539e-23)
(0.00471434 -6.22651e-05 1.27449e-23)
(0.00471735 -7.72004e-05 -9.48025e-24)
(0.00471911 -9.23343e-05 2.18065e-23)
(0.00471934 -0.000107173 -9.57109e-24)
(0.00471797 -0.000121211 5.15479e-24)
(0.00471538 -0.000134022 -1.32487e-24)
(0.00545313 7.67219e-05 -1.20309e-25)
(0.00541122 5.46915e-05 1.63812e-24)
(0.0053838 3.68025e-05 -2.99764e-24)
(0.00536654 2.13018e-05 -1.4513e-24)
(0.00535643 7.05629e-06 1.48157e-23)
(0.00535125 -6.66443e-06 -1.84264e-24)
(0.00534934 -2.0315e-05 -2.19938e-23)
(0.00534936 -3.4147e-05 2.32778e-23)
(0.00535029 -4.8237e-05 -4.63524e-24)
(0.00535132 -6.2503e-05 -1.48087e-23)
(0.00535186 -7.67324e-05 1.42891e-23)
(0.00535153 -9.06284e-05 7.07896e-24)
(0.00535019 -0.000103873 -5.27922e-24)
(0.00534784 -0.000116183 -8.48917e-24)
(0.00534479 -0.000127342 6.73004e-25)
(0.0060952 9.26171e-05 1.98142e-27)
(0.0060619 6.7799e-05 -1.95691e-24)
(0.00603907 4.72629e-05 8.64924e-24)
(0.00602401 2.9383e-05 5.89004e-25)
(0.00601455 1.30964e-05 4.28234e-24)
(0.00600898 -2.28766e-06 -1.35244e-23)
(0.00600595 -1.71792e-05 1.05385e-23)
(0.00600439 -3.17798e-05 2.26108e-24)
(0.00600349 -4.61314e-05 1.77293e-23)
(0.00600265 -6.01562e-05 -2.4285e-23)
(0.00600146 -7.36994e-05 -1.00022e-23)
(0.00599971 -8.65752e-05 -6.06104e-24)
(0.00599732 -9.86109e-05 1.02826e-23)
(0.0059943 -0.000109674 -2.77078e-25)
(0.00599093 -0.00011967 8.68605e-25)
(0.00671964 0.000105332 -3.04329e-26)
(0.0066986 7.90562e-05 2.07662e-24)
(0.00668342 5.68058e-05 -2.76244e-24)
(0.00667299 3.72363e-05 -7.85905e-27)
(0.00666611 1.94609e-05 3.07164e-24)
(0.00666171 2.89423e-06 7.11943e-24)
(0.00665889 -1.28101e-05 -2.46413e-23)
(0.00665692 -2.7819e-05 1.7353e-24)
(0.00665527 -4.21748e-05 1.00484e-23)
(0.00665356 -5.58391e-05 -4.24134e-24)
(0.00665156 -6.87331e-05 1.03754e-23)
(0.00664915 -8.07717e-05 6.66099e-24)
(0.00664631 -9.1889e-05 -1.09858e-23)
(0.00664307 -0.000102048 6.95686e-24)
(0.00663966 -0.000111226 -5.47572e-24)
(0.00731659 0.000112676 -1.01095e-24)
(0.00730808 8.63185e-05 4.80142e-25)
(0.00730163 6.34852e-05 3.32217e-24)
(0.00729713 4.31579e-05 -1.56948e-23)
(0.00729414 2.46675e-05 1.23686e-23)
(0.00729216 7.56727e-06 -8.25804e-24)
(0.00729074 -8.41469e-06 5.22279e-24)
(0.00728952 -2.34199e-05 -3.38822e-23)
(0.0072882 -3.75045e-05 4.36783e-23)
(0.00728663 -5.06763e-05 -2.33636e-23)
(0.0072847 -6.29233e-05 1.8891e-23)
(0.0072824 -7.42352e-05 1.45293e-23)
(0.00727974 -8.46157e-05 -2.32665e-23)
(0.00727675 -9.40853e-05 7.01423e-24)
(0.00727366 -0.000102659 -2.80997e-25)
(0.00788194 0.000114341 -3.79183e-26)
(0.0078825 8.87358e-05 -1.69679e-25)
(0.00788296 6.61787e-05 7.96296e-26)
(0.00788358 4.59151e-05 -4.3091e-25)
(0.00788428 2.74527e-05 5.01544e-24)
(0.0078849 1.04597e-05 -7.72071e-24)
(0.0078853 -5.27603e-06 6.4693e-24)
(0.00788535 -1.98814e-05 -1.84935e-23)
(0.00788497 -3.34304e-05 3.79537e-23)
(0.00788413 -4.59688e-05 -4.40912e-23)
(0.00788285 -5.75327e-05 3.29802e-23)
(0.00788115 -6.81591e-05 -1.02221e-23)
(0.0078791 -7.78921e-05 5.00073e-25)
(0.00787672 -8.67819e-05 2.04171e-24)
(0.00787422 -9.48632e-05 -3.72708e-24)
(0.00840867 0.000112057 -3.22533e-24)
(0.00841358 8.74427e-05 5.3691e-24)
(0.00841758 6.55404e-05 -1.81872e-24)
(0.00842097 4.579e-05 -2.02103e-24)
(0.00842377 2.78124e-05 7.62457e-24)
(0.00842597 1.13424e-05 -6.9773e-24)
(0.00842755 -3.80385e-06 -5.778e-24)
(0.00842852 -1.77544e-05 -1.26615e-23)
(0.00842891 -3.06032e-05 5.69058e-24)
(0.00842875 -4.24256e-05 2.53577e-23)
(0.0084281 -5.32887e-05 -1.22905e-23)
(0.00842702 -6.32569e-05 6.82386e-24)
(0.00842557 -7.23943e-05 -2.59408e-24)
(0.00842379 -8.07649e-05 -7.2814e-24)
(0.00842187 -8.8411e-05 3.57992e-24)
(0.00887356 0.000107786 1.06659e-24)
(0.00887987 8.43322e-05 -1.66355e-24)
(0.0088849 6.32979e-05 -7.54571e-25)
(0.00888899 4.4295e-05 -2.58621e-25)
(0.00889225 2.70287e-05 -2.3945e-24)
(0.00889475 1.12739e-05 1.01787e-23)
(0.00889653 -3.1418e-06 -7.48488e-24)
(0.00889766 -1.63534e-05 -4.49189e-24)
(0.0088982 -2.84716e-05 3.70661e-24)
(0.00889821 -3.95915e-05 -4.10014e-24)
(0.00889776 -4.97983e-05 8.79473e-24)
(0.00889691 -5.91703e-05 4.2003e-24)
(0.00889572 -6.77801e-05 -1.46585e-23)
(0.00889422 -7.56956e-05 9.57649e-24)
(0.00889257 -8.29599e-05 -1.88706e-24)
(0.00923037 0.000102093 3.13554e-24)
(0.00923739 8.02389e-05 4.88374e-24)
(0.00924273 6.04646e-05 -9.55466e-24)
(0.00924685 4.25381e-05 -8.18419e-25)
(0.00924996 2.624e-05 2.25006e-24)
(0.00925221 1.13833e-05 -2.88969e-24)
(0.00925371 -2.18926e-06 -4.60048e-24)
(0.00925456 -1.46108e-05 8.68211e-24)
(0.00925485 -2.59962e-05 9.28293e-24)
(0.00925465 -3.64466e-05 -2.08838e-23)
(0.00925403 -4.60519e-05 1.12768e-23)
(0.00925305 -5.4893e-05 -7.43835e-25)
(0.00925177 -6.30419e-05 -5.93145e-25)
(0.00925021 -7.05641e-05 7.63018e-25)
(0.00924848 -7.74978e-05 -3.41659e-25)
(0.00941195 9.436e-05 -8.12572e-24)
(0.00941982 7.47128e-05 -1.5802e-23)
(0.00942567 5.67583e-05 7.23698e-24)
(0.00943001 4.03852e-05 2.34039e-23)
(0.00943313 2.54397e-05 -5.94232e-24)
(0.00943526 1.17752e-05 -1.74024e-24)
(0.00943656 -7.39379e-07 8.05216e-25)
(0.00943717 -1.22221e-05 -3.63483e-24)
(0.0094372 -2.27784e-05 9.61494e-24)
(0.00943674 -3.25023e-05 -4.02375e-24)
(0.00943587 -4.14771e-05 2.48018e-24)
(0.00943465 -4.97761e-05 -3.6366e-24)
(0.00943312 -5.74629e-05 -4.07192e-24)
(0.00943133 -6.45947e-05 5.87116e-24)
(0.00942933 -7.12008e-05 -2.5074e-24)
(0.0093372 8.44053e-05 1.25463e-23)
(0.00934581 6.74174e-05 -2.57525e-23)
(0.0093522 5.1739e-05 3.75468e-24)
(0.00935687 3.73303e-05 3.05922e-23)
(0.00936016 2.40875e-05 -2.70776e-23)
(0.00936235 1.19039e-05 8.70173e-24)
(0.00936363 6.79891e-07 5.37416e-24)
(0.00936416 -9.67895e-06 -1.12745e-23)
(0.00936408 -1.92608e-05 2.23894e-24)
(0.00936347 -2.81445e-05 1.33544e-24)
(0.00936243 -3.63994e-05 -7.71904e-25)
(0.009361 -4.40853e-05 1.68848e-24)
(0.00935926 -5.12535e-05 -2.01767e-24)
(0.00935724 -5.79492e-05 1.34356e-24)
(0.00935495 -6.41946e-05 -6.1265e-25)
(0.00901286 7.3639e-05 7.51529e-24)
(0.00902198 5.93188e-05 -1.42794e-23)
(0.00902886 4.59722e-05 -8.92752e-24)
(0.00903393 3.35926e-05 3.8354e-23)
(0.00903755 2.21143e-05 -3.23441e-23)
(0.00903999 1.14657e-05 3.22008e-24)
(0.00904147 1.57595e-06 4.65128e-24)
(0.00904215 -7.62525e-06 2.31979e-24)
(0.00904216 -1.62046e-05 1.65777e-24)
(0.00904161 -2.4222e-05 -7.04762e-24)
(0.00904057 -3.17293e-05 4.34689e-24)
(0.00903912 -3.87711e-05 6.86597e-25)
(0.00903729 -4.53855e-05 -1.76092e-24)
(0.00903515 -5.16054e-05 9.20301e-25)
(0.00903267 -5.74477e-05 5.40226e-25)
(0.00852535 6.31881e-05 1.81575e-23)
(0.00853485 5.12179e-05 -2.93435e-23)
(0.00854219 3.99551e-05 5.52422e-24)
(0.00854772 2.94075e-05 -1.1942e-23)
(0.00855176 1.95382e-05 -1.41994e-23)
(0.00855458 1.0303e-05 4.53317e-23)
(0.0085564 1.65402e-06 -1.63831e-23)
(0.00855737 -6.45839e-06 4.27139e-24)
(0.00855762 -1.4081e-05 -2.20262e-24)
(0.00855725 -2.12557e-05 -4.68214e-24)
(0.00855633 -2.80185e-05 8.0697e-24)
(0.00855492 -3.44004e-05 -3.63242e-24)
(0.00855309 -4.04277e-05 5.93992e-25)
(0.00855089 -4.61224e-05 3.66177e-26)
(0.00854828 -5.14962e-05 4.53387e-26)
(0.00793722 5.31695e-05 6.82403e-24)
(0.00794698 4.32221e-05 -3.23805e-23)
(0.00795468 3.37809e-05 5.1985e-23)
(0.00796061 2.48579e-05 -3.68841e-23)
(0.00796504 1.64366e-05 3.42332e-23)
(0.00796824 8.49337e-06 -1.08469e-23)
(0.00797039 9.98044e-07 -7.03156e-24)
(0.00797165 -6.08261e-06 -7.11058e-24)
(0.00797213 -1.27799e-05 1.14934e-23)
(0.00797192 -1.91212e-05 -8.58211e-25)
(0.00797111 -2.51303e-05 -9.69392e-24)
(0.00796975 -3.08269e-05 -8.77877e-25)
(0.00796788 -3.62279e-05 1.57609e-24)
(0.00796557 -4.13469e-05 -2.12745e-25)
(0.0079628 -4.61901e-05 1.6135e-26)
(0.00729418 4.37382e-05 8.86466e-25)
(0.00730404 3.55305e-05 -1.20093e-23)
(0.00731195 2.76784e-05 -6.17633e-24)
(0.00731812 2.01931e-05 4.79908e-23)
(0.00732281 1.3073e-05 -4.45022e-23)
(0.00732625 6.30991e-06 1.23407e-23)
(0.00732862 -1.13379e-07 1.96315e-24)
(0.00733004 -6.21761e-06 -9.70903e-25)
(0.00733064 -1.2022e-05 -4.24401e-24)
(0.00733049 -1.7543e-05 1.74374e-23)
(0.00732966 -2.27944e-05 -1.33641e-23)
(0.00732822 -2.77879e-05 -4.37265e-25)
(0.0073262 -3.25328e-05 9.66044e-25)
(0.00732367 -3.70363e-05 4.66195e-25)
(0.00732061 -4.13009e-05 -3.18144e-25)
(0.00662878 3.50635e-05 1.28277e-24)
(0.00663849 2.83589e-05 1.09499e-23)
(0.00664634 2.1897e-05 -1.19271e-23)
(0.00665252 1.56876e-05 -7.73836e-24)
(0.00665723 9.74053e-06 4.67298e-23)
(0.0066607 4.05856e-06 -3.43659e-23)
(0.00666306 -1.36637e-06 -8.04876e-25)
(0.00666446 -6.54587e-06 -6.42463e-24)
(0.00666497 -1.14902e-05 -4.24184e-25)
(0.00666468 -1.62076e-05 9.09695e-25)
(0.00666366 -2.07051e-05 -2.75103e-24)
(0.00666196 -2.49882e-05 2.4503e-24)
(0.00665963 -2.90614e-05 8.92046e-25)
(0.00665671 -3.29274e-05 7.00583e-25)
(0.00665319 -3.65857e-05 4.63055e-25)
(0.0059634 2.73411e-05 8.82219e-24)
(0.00597264 2.19392e-05 -1.28524e-23)
(0.00598013 1.66954e-05 -9.71942e-24)
(0.00598602 1.16189e-05 2.84488e-23)
(0.00599048 6.72819e-06 -9.83605e-24)
(0.00599371 2.03345e-06 -1.31143e-23)
(0.00599583 -2.46727e-06 4.48828e-24)
(0.00599696 -6.7791e-06 9.44067e-24)
(0.00599718 -1.09059e-05 -1.4401e-23)
(0.00599656 -1.48504e-05 1.37144e-23)
(0.00599515 -1.8615e-05 -6.97244e-24)
(0.00599302 -2.22013e-05 2.78602e-24)
(0.00599021 -2.56102e-05 -3.14933e-24)
(0.00598676 -2.8842e-05 2.85445e-24)
(0.00598267 -3.18944e-05 -5.73078e-25)
(0.00531296 2.07268e-05 -1.63478e-24)
(0.00532143 1.6449e-05 -5.40431e-24)
(0.00532827 1.22656e-05 -1.6473e-23)
(0.00533359 8.18677e-06 4.45158e-23)
(0.00533756 4.23781e-06 -7.84451e-24)
(0.00534033 4.33111e-07 -1.17337e-23)
(0.00534201 -3.22543e-06 3.85233e-24)
(0.00534268 -6.73855e-06 -5.4984e-24)
(0.00534244 -1.0106e-05 -1.12486e-23)
(0.00534134 -1.3327e-05 1.07042e-23)
(0.00533943 -1.64012e-05 5.03665e-25)
(0.00533677 -1.93278e-05 -2.91706e-24)
(0.00533339 -2.21059e-05 3.31417e-24)
(0.00532935 -2.47343e-05 1.43363e-25)
(0.00532464 -2.72099e-05 -1.90018e-25)
(0.00468723 1.52834e-05 5.92845e-24)
(0.0046947 1.19627e-05 8.35487e-24)
(0.00470069 8.68906e-06 -7.67015e-24)
(0.00470527 5.47534e-06 -1.60208e-23)
(0.00470858 2.35158e-06 2.0901e-23)
(0.00471074 -6.66285e-07 -2.22263e-23)
(0.00471185 -3.57437e-06 -6.99394e-25)
(0.00471198 -6.37067e-06 8.2295e-24)
(0.0047112 -9.05258e-06 2.77316e-24)
(0.00470956 -1.16177e-05 -5.40511e-24)
(0.00470712 -1.40641e-05 2.00517e-25)
(0.00470392 -1.63899e-05 1.02296e-23)
(0.0047 -1.85932e-05 -3.85715e-24)
(0.00469541 -2.06724e-05 -8.78852e-25)
(0.00469015 -2.26243e-05 -4.59368e-26)
(0.00409249 1.09699e-05 -5.72035e-24)
(0.00409886 8.44819e-06 7.18489e-24)
(0.0041039 5.9398e-06 7.70625e-25)
(0.00410766 3.46159e-06 1.36603e-23)
(0.00411025 1.04574e-06 -1.10135e-23)
(0.00411176 -1.29248e-06 7.92673e-25)
(0.00411228 -3.54865e-06 -1.17975e-24)
(0.00411186 -5.71939e-06 -3.23351e-24)
(0.00411056 -7.80118e-06 2.66074e-24)
(0.00410843 -9.79105e-06 -8.50209e-24)
(0.00410552 -1.16865e-05 7.07034e-25)
(0.00410187 -1.34852e-05 1.99654e-24)
(0.00409752 -1.51852e-05 1.17269e-24)
(0.00409251 -1.67847e-05 4.24936e-25)
(0.00408686 -1.8281e-05 1.25651e-25)
(0.00353268 7.66608e-06 3.87887e-24)
(0.00353794 5.79622e-06 -3.02355e-24)
(0.00354204 3.91797e-06 -1.2886e-23)
(0.003545 2.05191e-06 1.19307e-23)
(0.00354688 2.29736e-07 1.61881e-23)
(0.00354778 -1.53573e-06 -4.18527e-24)
(0.00354775 -3.24042e-06 -8.16628e-24)
(0.00354685 -4.88066e-06 -1.10609e-23)
(0.00354513 -6.45292e-06 8.22621e-24)
(0.00354262 -7.95429e-06 4.36038e-25)
(0.00353937 -9.38226e-06 -1.74964e-24)
(0.00353543 -1.07346e-05 -4.25525e-25)
(0.00353083 -1.20096e-05 8.82997e-25)
(0.0035256 -1.32055e-05 -4.94724e-26)
(0.00351978 -1.43204e-05 -1.39176e-25)
(0.00301001 5.21062e-06 -2.20492e-24)
(0.00301425 3.86002e-06 -1.52722e-24)
(0.00301748 2.48957e-06 1.87242e-24)
(0.00301969 1.12214e-06 -5.7359e-24)
(0.00302096 -2.13723e-07 1.86232e-23)
(0.00302134 -1.50859e-06 -2.42892e-23)
(0.00302088 -2.75918e-06 2.34567e-23)
(0.00301962 -3.96215e-06 -9.82152e-24)
(0.0030176 -5.11448e-06 2.14958e-24)
(0.00301487 -6.21361e-06 -2.49879e-26)
(0.00301146 -7.25734e-06 -1.6556e-24)
(0.00300741 -8.24378e-06 4.74657e-25)
(0.00300276 -9.17138e-06 -1.15087e-24)
(0.00299754 -1.00389e-05 -1.30881e-25)
(0.00299177 -1.08449e-05 6.12159e-26)
(0.00252541 3.43413e-06 -9.56965e-25)
(0.00252874 2.48749e-06 2.48052e-25)
(0.00253121 1.51765e-06 5.23155e-25)
(0.0025328 5.47421e-07 -2.36829e-24)
(0.00253356 -3.99754e-07 -1.03137e-24)
(0.00253354 -1.31794e-06 9.02658e-24)
(0.00253277 -2.2047e-06 -5.26583e-24)
(0.0025313 -3.05735e-06 7.30414e-25)
(0.00252915 -3.87348e-06 -7.09854e-25)
(0.00252636 -4.65106e-06 -7.33871e-25)
(0.00252296 -5.38827e-06 -1.86786e-25)
(0.002519 -6.08362e-06 1.31129e-24)
(0.00251449 -6.73589e-06 2.58943e-25)
(0.00250949 -7.34415e-06 -7.15016e-25)
(0.002504 -7.90754e-06 -9.35634e-26)
(0.00207882 2.18107e-06 -3.08378e-25)
(0.00208137 1.54126e-06 -9.88299e-26)
(0.00208321 8.80535e-07 -4.85274e-24)
(0.00208429 2.19125e-07 1.31142e-24)
(0.00208467 -4.2554e-07 -3.37526e-24)
(0.00208437 -1.05046e-06 2.42998e-24)
(0.00208343 -1.65392e-06 4.45693e-24)
(0.00208188 -2.23392e-06 3.25174e-24)
(0.00207974 -2.78869e-06 -4.50569e-24)
(0.00207705 -3.31668e-06 1.35424e-24)
(0.00207384 -3.81652e-06 1.09509e-24)
(0.00207013 -4.2871e-06 -1.4983e-24)
(0.00206595 -4.7275e-06 7.93478e-25)
(0.00206134 -5.13706e-06 -2.95443e-26)
(0.00205632 -5.5153e-06 1.5819e-25)
(0.0016694 1.32008e-06 -1.06577e-24)
(0.00167131 9.07395e-07 -1.43924e-24)
(0.00167262 4.7926e-07 -2.42187e-25)
(0.00167332 5.12904e-08 3.54658e-24)
(0.00167343 -3.64945e-07 -2.47406e-24)
(0.00167297 -7.68471e-07 -4.5596e-25)
(0.00167198 -1.1581e-06 3.89946e-24)
(0.00167048 -1.53247e-06 -1.44254e-26)
(0.00166848 -1.89035e-06 -7.88129e-25)
(0.00166603 -2.23063e-06 -2.72439e-24)
(0.00166313 -2.55234e-06 3.50319e-25)
(0.00165981 -2.8547e-06 1.77836e-24)
(0.00165611 -3.13707e-06 -2.25696e-25)
(0.00165204 -3.39897e-06 -1.97483e-25)
(0.00164764 -3.64014e-06 1.23906e-25)
(0.00129575 7.46209e-07 -2.05455e-25)
(0.00129712 4.96408e-07 1.34157e-26)
(0.00129803 2.3772e-07 1.51227e-24)
(0.00129844 -1.9927e-08 9.91287e-25)
(0.00129838 -2.69899e-07 -7.04048e-25)
(0.00129787 -5.12302e-07 -1.68773e-24)
(0.00129693 -7.46352e-07 6.68197e-25)
(0.00129558 -9.71195e-07 -2.76993e-24)
(0.00129383 -1.18603e-06 2.12583e-24)
(0.00129171 -1.39013e-06 1.04378e-24)
(0.00128923 -1.58285e-06 -3.93959e-26)
(0.00128642 -1.76371e-06 -1.09306e-24)
(0.00128329 -1.93227e-06 1.83667e-25)
(0.00127988 -2.0882e-06 -1.22876e-25)
(0.0012762 -2.23129e-06 5.65383e-26)
(0.000956069 3.78836e-07 -3.34717e-25)
(0.000957007 2.40703e-07 9.01051e-27)
(0.000957595 9.97826e-08 1.07606e-24)
(0.000957807 -3.95871e-08 -6.71242e-25)
(0.000957666 -1.74387e-07 2.70992e-24)
(0.000957182 -3.05081e-07 -4.91296e-24)
(0.000956371 -4.31204e-07 3.95279e-24)
(0.000955244 -5.52287e-07 -3.25216e-24)
(0.000953817 -6.67872e-07 2.29731e-24)
(0.000952105 -7.77549e-07 -1.44065e-24)
(0.000950123 -8.80944e-07 4.90018e-25)
(0.000947888 -9.77786e-07 6.8292e-26)
(0.000945415 -1.06785e-06 9.50337e-26)
(0.000942723 -1.15088e-06 -1.13633e-25)
(0.000939825 -1.22666e-06 2.07163e-26)
(0.000648297 1.58998e-07 4.52161e-25)
(0.000648884 9.3271e-08 4.82204e-25)
(0.000649228 2.89654e-08 -2.06483e-24)
(0.000649312 -3.39075e-08 1.50138e-24)
(0.000649151 -9.45014e-08 -1.79282e-26)
(0.000648754 -1.53188e-07 3.72447e-25)
(0.000648129 -2.09735e-07 -4.63497e-25)
(0.000647285 -2.6393e-07 -9.38814e-25)
(0.000646231 -3.15561e-07 9.22123e-25)
(0.000644979 -3.6444e-07 8.61049e-26)
(0.00064354 -4.10397e-07 -6.93591e-25)
(0.000641924 -4.53311e-07 2.5004e-25)
(0.000640143 -4.93096e-07 1.35541e-25)
(0.00063821 -5.29587e-07 -1.70189e-26)
(0.000636135 -5.62508e-07 -1.23991e-26)
(0.000370242 4.69084e-08 -4.09655e-25)
(0.000370542 2.81738e-08 1.24679e-24)
(0.000370702 1.10593e-08 7.30147e-25)
(0.000370711 -6.35803e-09 -1.3272e-24)
(0.000370579 -2.39464e-08 -1.54813e-25)
(0.00037031 -4.16866e-08 -1.35299e-25)
(0.000369909 -5.93505e-08 4.04914e-25)
(0.000369381 -7.67461e-08 -6.76993e-25)
(0.000368732 -9.37022e-08 9.01202e-25)
(0.000367967 -1.10072e-07 -4.41658e-25)
(0.000367092 -1.25732e-07 -2.72082e-25)
(0.000366114 -1.40582e-07 1.59601e-25)
(0.000365041 -1.54556e-07 -1.69265e-25)
(0.00036388 -1.67526e-07 1.63075e-25)
(0.000362636 -1.79165e-07 -2.40876e-26)
(0.000119656 1.31862e-08 -2.31541e-27)
(0.00011972 3.14597e-08 1.91421e-25)
(0.00011974 4.56944e-08 2.16013e-25)
(0.000119714 5.49538e-08 -3.4141e-25)
(0.000119644 5.98561e-08 6.94094e-25)
(0.000119531 6.11397e-08 -7.53389e-25)
(0.000119377 5.9438e-08 4.81576e-26)
(0.000119182 5.53097e-08 3.97504e-25)
(0.000118949 4.92392e-08 -5.48603e-25)
(0.000118678 4.16463e-08 -9.22584e-26)
(0.000118373 3.28894e-08 3.55554e-25)
(0.000118034 2.32808e-08 -1.54284e-25)
(0.000117664 1.30671e-08 -5.02661e-26)
(0.000117266 2.50158e-09 4.09906e-26)
(0.000116842 -8.06225e-09 -1.55694e-27)
(0.000352531 -0.000147206 3.41957e-26)
(0.000407071 -0.000132771 9.0742e-25)
(0.00049587 -0.000106384 -2.65726e-24)
(0.000589402 -8.07095e-05 3.91913e-24)
(0.000682668 -5.76416e-05 -1.49455e-24)
(0.000776194 -3.77786e-05 -1.42969e-24)
(0.000870116 -2.11094e-05 1.6214e-24)
(0.000964657 -7.49852e-06 -3.15844e-24)
(0.00106004 3.23111e-06 2.47294e-25)
(0.00115645 1.12808e-05 1.9597e-24)
(0.00125403 1.68685e-05 -3.63201e-25)
(0.00135288 2.023e-05 3.85343e-25)
(0.0014531 2.16229e-05 -4.0215e-26)
(0.00155475 2.13338e-05 2.29061e-25)
(0.00165793 1.9685e-05 -8.44849e-25)
(0.00176274 1.70384e-05 4.61684e-25)
(0.00186936 1.37872e-05 -1.408e-25)
(0.00197803 1.03218e-05 1.23174e-26)
(0.00208913 6.95001e-06 3.19658e-25)
(0.00220307 3.72836e-06 -1.98304e-25)
(0.00232025 1.60241e-07 2.20885e-26)
(0.00244034 -5.26826e-06 -1.86152e-26)
(0.00255262 -1.49119e-05 2.98319e-26)
(0.00264424 -3.00173e-05 1.00513e-25)
(0.0027127 -5.04012e-05 -1.80697e-25)
(0.00275867 -7.49174e-05 -9.8261e-26)
(0.00278278 -0.000101603 2.20963e-26)
(0.00278597 -0.000128019 2.07254e-25)
(0.00276945 -0.000151509 1.58094e-25)
(0.00273472 -0.000169393 -2.88461e-25)
(0.00268344 -0.000179071 -6.28415e-26)
(0.00261739 -0.00017805 2.81374e-25)
(0.00253838 -0.00016391 -1.77508e-25)
(0.00244819 -0.00013422 -5.26839e-25)
(0.00234859 -8.64665e-05 5.20099e-25)
(0.0022412 -1.80962e-05 2.19845e-24)
(0.00212741 7.31737e-05 -7.92307e-25)
(0.00200811 0.00018862 2.78183e-25)
(0.0018834 0.000327278 2.83437e-26)
(0.00175243 0.00048433 -2.20896e-24)
(0.00161341 0.000649312 -2.36807e-26)
(0.00146434 0.000804168 6.88413e-25)
(0.00130371 0.00092039 1.28849e-25)
(0.00113836 0.000954755 -8.54988e-25)
(0.00104497 0.000822198 -3.64669e-26)
(0.000628932 -0.000174754 -1.03911e-24)
(0.000654506 -0.000176329 -1.56138e-24)
(0.000711191 -0.000153899 3.24923e-24)
(0.000783124 -0.00012672 1.56146e-24)
(0.000862245 -0.000100351 -5.5542e-24)
(0.000945855 -7.68786e-05 5.99333e-24)
(0.0010324 -5.67906e-05 -2.17774e-24)
(0.00112114 -4.00622e-05 1.68357e-24)
(0.00121176 -2.65145e-05 -2.25648e-24)
(0.0013041 -1.5914e-05 3.15123e-26)
(0.0013981 -8.00702e-06 -1.13747e-24)
(0.00149374 -2.52628e-06 2.25956e-24)
(0.00159101 8.11123e-07 -1.23585e-24)
(0.00168993 2.31037e-06 -1.07811e-24)
(0.00179053 2.30656e-06 -6.97786e-25)
(0.00189289 1.16807e-06 1.37227e-24)
(0.00199715 -7.09828e-07 -1.57223e-25)
(0.00210352 -2.93784e-06 6.98431e-25)
(0.00221233 -5.20662e-06 9.98981e-26)
(0.00232395 -7.44805e-06 -2.04797e-25)
(0.0024387 -1.01144e-05 -7.96261e-26)
(0.00255623 -1.4622e-05 -4.04515e-26)
(0.00266604 -2.31958e-05 1.81345e-25)
(0.00275563 -3.6969e-05 1.82516e-25)
(0.00282262 -5.56838e-05 -1.92566e-25)
(0.0028677 -7.81609e-05 -7.09993e-25)
(0.00289156 -0.000102452 8.77836e-25)
(0.00289517 -0.000126164 -5.20198e-25)
(0.00287976 -0.0001467 1.64763e-25)
(0.00284688 -0.000161446 -9.19784e-27)
(0.00279825 -0.000167864 -1.50758e-25)
(0.00273573 -0.000163519 7.37412e-25)
(0.00266125 -0.000146049 -1.12345e-24)
(0.00257677 -0.000113077 3.17107e-24)
(0.0024843 -6.21368e-05 -4.46795e-24)
(0.00238588 9.32529e-06 1.15226e-24)
(0.00228349 0.000103719 3.67463e-24)
(0.002179 0.000222649 -1.19275e-24)
(0.00207401 0.000365757 -2.43918e-24)
(0.00196988 0.000529015 -1.13493e-24)
(0.00186817 0.000702529 2.47519e-24)
(0.0017718 0.000867625 -1.932e-24)
(0.00168644 0.000992413 7.45388e-26)
(0.00162125 0.00102601 1.00899e-24)
(0.00159671 0.000887986 -2.87519e-26)
(0.000937939 -0.000184916 -1.21703e-26)
(0.000947086 -0.00019951 -1.86687e-24)
(0.000977172 -0.000188103 3.65768e-24)
(0.00102558 -0.0001657 3.16115e-24)
(0.00108652 -0.000140092 -5.2826e-24)
(0.00115623 -0.000115338 1.1461e-25)
(0.00123198 -9.31019e-05 5.26365e-25)
(0.00131211 -7.39311e-05 5.64807e-24)
(0.00139565 -5.79059e-05 -6.77333e-24)
(0.001482 -4.49053e-05 4.09164e-24)
(0.00157079 -3.47203e-05 1.15491e-24)
(0.0016618 -2.70987e-05 -6.68535e-24)
(0.00175489 -2.17597e-05 2.42129e-24)
(0.00184998 -1.83956e-05 9.42055e-25)
(0.00194702 -1.66689e-05 -1.93191e-24)
(0.00204604 -1.62105e-05 3.11756e-24)
(0.00214711 -1.66268e-05 -2.18501e-24)
(0.00225042 -1.75308e-05 -3.03886e-26)
(0.00235622 -1.8612e-05 1.77082e-25)
(0.00246482 -1.9789e-05 1.8074e-25)
(0.00257648 -2.14668e-05 2.99908e-26)
(0.00269081 -2.4961e-05 8.93009e-26)
(0.00279757 -3.23666e-05 -1.99213e-25)
(0.00288464 -4.47055e-05 5.6132e-25)
(0.00294977 -6.16429e-05 -8.04688e-25)
(0.00299369 -8.19606e-05 4.4577e-25)
(0.00301713 -0.000103719 -7.90178e-25)
(0.00302106 -0.000124566 1.03694e-24)
(0.00300679 -0.000141964 -6.05228e-25)
(0.00297589 -0.000153363 3.03749e-25)
(0.00293014 -0.000156294 4.69408e-25)
(0.0028715 -0.000148395 -8.45375e-25)
(0.00280204 -0.000127381 4.24493e-25)
(0.0027239 -9.09765e-05 1.71382e-24)
(0.0026394 -3.68312e-05 -3.98667e-24)
(0.00255098 3.74761e-05 5.77147e-24)
(0.00246129 0.000134237 -3.60958e-24)
(0.00237322 0.000255009 4.17562e-24)
(0.00228986 0.000399457 -7.32381e-24)
(0.00221464 0.000563501 2.63284e-24)
(0.00215163 0.000736711 7.31137e-25)
(0.00210589 0.000898854 6.38318e-25)
(0.00208253 0.00101587 -7.28628e-25)
(0.00208147 0.00103865 -1.60578e-25)
(0.00208897 0.000914233 1.91187e-25)
(0.00127861 -0.000187733 -4.47949e-25)
(0.00127891 -0.000209198 -7.79846e-25)
(0.00129065 -0.000208859 -3.54255e-24)
(0.00131816 -0.00019467 9.09799e-25)
(0.00135987 -0.000173538 6.42348e-25)
(0.00141311 -0.000150367 2.94137e-24)
(0.00147517 -0.000127927 -6.24666e-24)
(0.00154393 -0.000107563 2.49379e-24)
(0.0016179 -8.98423e-05 8.09219e-24)
(0.00169606 -7.49207e-05 -2.23189e-24)
(0.00177773 -6.27413e-05 -2.0384e-24)
(0.00186242 -5.31351e-05 -3.18792e-25)
(0.00194983 -4.5867e-05 1.02424e-24)
(0.00203973 -4.06552e-05 -2.00094e-24)
(0.00213199 -3.71783e-05 4.71107e-25)
(0.00222654 -3.5079e-05 -1.5573e-25)
(0.00232341 -3.39739e-05 -9.37159e-25)
(0.00242268 -3.34845e-05 3.80708e-25)
(0.00252457 -3.33028e-05 1.61105e-24)
(0.0026293 -3.3336e-05 -2.06054e-25)
(0.00273705 -3.39402e-05 -3.43904e-25)
(0.00284736 -3.63248e-05 -8.17636e-26)
(0.00295033 -4.24485e-05 -3.9472e-25)
(0.00303429 -5.32202e-05 2.3643e-26)
(0.00309709 -6.82279e-05 -7.31918e-25)
(0.0031395 -8.62156e-05 1.33403e-24)
(0.00316227 -0.000105258 -8.93855e-25)
(0.00316641 -0.000123052 1.59515e-24)
(0.00315325 -0.000137131 -1.04321e-24)
(0.00312443 -0.000145029 3.38577e-25)
(0.00308178 -0.000144366 1.15127e-25)