/*--------------------------------*- C++ -*----------------------------------*\
| =========                 |                                                 |
| \\      /  F ield         | OpenFOAM: The Open Source CFD Toolbox           |
|  \\    /   O peration     | Version:  2312                                  |
|   \\  /    A nd           | Website:  www.openfoam.com                      |
|    \\/     M anipulation  |                                                 |
\*---------------------------------------------------------------------------*/
FoamFile
{
    version     2.0;
    format      ascii;
    arch        "LSB;label=32;scalar=64";
    class       volVectorField;
    location    "4";
    object      U;
}
// * * * * * * * * * * * * * * * * * * * * * * * * * * * * * * * * * * * * * //

dimensions      [0 1 -1 0 0 0 0];

internalField   nonuniform List<vector> 
4800
(
(0.000462426 3.11899e-07 -2.67296e-26)
(0.000454796 3.42087e-07 -1.87911e-25)
(0.000450207 3.53593e-07 2.41174e-25)
(0.000447643 3.44155e-07 1.10352e-25)
(0.000446503 3.2649e-07 1.63004e-24)
(0.000446539 2.94156e-07 -3.88244e-24)
(0.000447497 2.5482e-07 3.63713e-24)
(0.000449286 1.7835e-07 -5.28078e-24)
(0.000451987 2.23439e-08 1.69301e-24)
(0.000455782 -2.42326e-07 5.77877e-24)
(0.000461075 -7.54e-07 -1.78074e-24)
(0.000469149 -2.1582e-06 -1.50755e-25)
(0.000487211 -7.32694e-06 -2.17328e-24)
(0.000533108 -2.81937e-05 1.01116e-24)
(0.000608998 -9.16629e-05 -8.03947e-25)
(0.00142987 1.62778e-06 -8.50434e-26)
(0.00140654 1.17642e-06 1.05996e-25)
(0.00139227 8.16442e-07 -9.77594e-25)
(0.00138403 4.90201e-07 7.30427e-25)
(0.00138002 1.73814e-07 2.34764e-24)
(0.00137947 -1.7064e-07 -3.72772e-24)
(0.00138154 -5.65825e-07 -1.06539e-24)
(0.001386 -1.09184e-06 -2.55386e-25)
(0.00139308 -1.91804e-06 8.77376e-24)
(0.0014032 -3.24447e-06 -6.48318e-24)
(0.00141755 -5.71134e-06 7.05716e-25)
(0.00143887 -1.15598e-05 1.07659e-24)
(0.00147603 -2.84324e-05 -1.59272e-24)
(0.0015397 -7.97706e-05 -4.82608e-25)
(0.00160831 -0.000195402 2.08364e-24)
(0.00249927 5.23466e-06 -6.08856e-26)
(0.00245909 3.77724e-06 6.2213e-26)
(0.00243417 2.64512e-06 6.39894e-25)
(0.0024194 1.66169e-06 -1.52617e-24)
(0.00241179 6.85556e-07 1.49844e-24)
(0.00240987 -3.80088e-07 1.3974e-24)
(0.00241228 -1.61368e-06 -3.61101e-24)
(0.00241848 -3.2429e-06 -2.26644e-24)
(0.0024289 -5.6316e-06 5.44244e-24)
(0.00244377 -9.32703e-06 2.0533e-24)
(0.0024645 -1.58257e-05 -7.13888e-24)
(0.00249322 -2.91084e-05 -1.08369e-24)
(0.00253409 -5.86923e-05 3.05008e-24)
(0.0025859 -0.000123817 4.8286e-24)
(0.00262359 -0.000231985 -2.49488e-24)
(0.00367659 1.17152e-05 2.25088e-26)
(0.00361876 8.56075e-06 -1.56747e-25)
(0.00358234 6.11906e-06 6.99223e-25)
(0.00356021 4.01262e-06 7.48895e-25)
(0.00354816 1.94065e-06 -7.43358e-25)
(0.00354389 -3.17203e-07 -4.22492e-24)
(0.00354573 -2.81273e-06 -2.86144e-24)
(0.00355242 -6.12537e-06 1.09438e-23)
(0.0035646 -1.08676e-05 4.56593e-24)
(0.00358192 -1.78596e-05 -6.55623e-24)
(0.0036052 -2.92575e-05 -2.64197e-24)
(0.00363486 -4.9596e-05 -2.01655e-24)
(0.00367018 -8.68571e-05 6.02747e-26)
(0.00370402 -0.000150966 1.49165e-24)
(0.00371815 -0.00023691 7.2916e-27)
(0.0049657 2.16971e-05 -4.13091e-26)
(0.00489011 1.6018e-05 -2.52681e-25)
(0.00484175 1.16303e-05 -1.59997e-25)
(0.00481161 7.86468e-06 4.32134e-25)
(0.00479433 4.21969e-06 -1.23003e-24)
(0.00478665 3.83635e-07 3.06996e-24)
(0.00478686 -4.05659e-06 -5.35634e-25)
(0.0047927 -9.40357e-06 1.88565e-24)
(0.00480471 -1.69936e-05 -1.05714e-23)
(0.00482185 -2.76123e-05 2.00695e-23)
(0.00484394 -4.35296e-05 -1.94199e-23)
(0.0048697 -6.84775e-05 1.02507e-23)
(0.00489577 -0.000107284 -9.5146e-24)
(0.0049145 -0.000162981 8.97648e-24)
(0.00491554 -0.000227981 -3.57972e-24)
(0.00636668 3.58862e-05 5.45789e-26)
(0.0062746 2.67742e-05 1.9542e-25)
(0.00621466 1.97404e-05 -1.03134e-24)
(0.00617633 1.37336e-05 -6.53574e-25)
(0.00615332 8.02006e-06 1.75248e-24)
(0.00614151 2.05853e-06 6.29422e-25)
(0.0061387 -4.55022e-06 -4.91999e-24)
(0.00614256 -1.25028e-05 1.17477e-23)
(0.00615247 -2.30402e-05 -1.53163e-23)
(0.00616701 -3.70645e-05 3.67145e-24)
(0.00618502 -5.63998e-05 1.11793e-23)
(0.00620424 -8.33284e-05 -1.55324e-23)
(0.00622081 -0.000119735 7.77819e-24)
(0.00622902 -0.000165081 7.97339e-24)
(0.00622415 -0.000213145 -6.0696e-24)
(0.00787376 5.47905e-05 4.51327e-26)
(0.0077687 4.13645e-05 -2.66981e-25)
(0.00769895 3.09844e-05 9.56384e-25)
(0.0076532 2.21522e-05 -1.32712e-24)
(0.00762455 1.38834e-05 -4.51289e-24)
(0.00760832 5.40205e-06 7.69414e-24)
(0.00760171 -3.77043e-06 -4.67501e-24)
(0.00760233 -1.4479e-05 1.59231e-23)
(0.00760865 -2.78344e-05 -1.08291e-23)
(0.00761885 -4.46504e-05 -5.0646e-24)
(0.00763112 -6.6044e-05 -9.96773e-24)
(0.00764299 -9.29187e-05 9.16408e-24)
(0.00765132 -0.000125259 2.57803e-24)
(0.00765264 -0.000161276 2.2054e-24)
(0.00764541 -0.000196808 -1.94061e-24)
(0.009473 7.83154e-05 -6.50404e-26)
(0.00936163 5.99255e-05 8.83438e-25)
(0.009286 4.56271e-05 -2.05702e-24)
(0.00923512 3.3475e-05 -1.68592e-24)
(0.00920201 2.22366e-05 6.29901e-25)
(0.00918184 1.09518e-05 1.24114e-24)
(0.0091714 -1.01422e-06 4.46071e-24)
(0.00916815 -1.44287e-05 -1.21591e-23)
(0.00917009 -3.02528e-05 -6.49506e-24)
(0.00917513 -4.90354e-05 1.78623e-23)
(0.00918124 -7.12127e-05 -5.53934e-24)
(0.00918624 -9.6744e-05 1.89411e-23)
(0.00918803 -0.000124768 -9.97161e-24)
(0.00918475 -0.000153487 -3.17764e-24)
(0.00917641 -0.000180381 1.88139e-24)
(0.0111412 0.000105224 -8.59693e-27)
(0.0110338 8.17683e-05 4.88299e-25)
(0.0109589 6.33143e-05 -6.95362e-25)
(0.0109071 4.75838e-05 1.66755e-24)
(0.0108723 3.31487e-05 -9.94809e-24)
(0.0108499 1.89376e-05 1.05049e-23)
(0.0108366 4.21041e-06 -1.65665e-23)
(0.0108299 -1.16933e-05 1.01824e-23)
(0.0108276 -2.94696e-05 7.57751e-24)
(0.0108277 -4.93774e-05 1.64564e-23)
(0.0108284 -7.13649e-05 -2.14939e-23)
(0.0108278 -9.49302e-05 -3.9758e-24)
(0.0108248 -0.000119066 1.83541e-24)
(0.0108185 -0.000142421 1.31028e-23)
(0.0108095 -0.000163569 -5.32861e-24)
(0.0128487 0.000132627 4.70447e-26)
(0.0127581 0.000104892 -2.04821e-25)
(0.0126926 8.26301e-05 9.16552e-25)
(0.0126462 6.34829e-05 -3.21553e-24)
(0.0126139 4.5956e-05 4.87579e-24)
(0.0125922 2.8963e-05 -6.29816e-24)
(0.0125783 1.17579e-05 1.05469e-23)
(0.0125697 -6.2027e-06 1.85134e-24)
(0.0125646 -2.53133e-05 -1.45429e-23)
(0.0125611 -4.56067e-05 2.07139e-23)
(0.0125578 -6.67822e-05 -2.28443e-23)
(0.0125535 -8.82359e-05 -6.72388e-24)
(0.0125476 -0.000109138 1.18593e-23)
(0.0125396 -0.000128631 3.51637e-24)
(0.0125303 -0.000145956 -1.53585e-24)
(0.0145697 0.000156113 1.87012e-25)
(0.0145067 0.00012584 -1.59183e-24)
(0.0144593 0.000100835 -2.56425e-24)
(0.0144246 7.89844e-05 6.07658e-24)
(0.0143999 5.89151e-05 2.71917e-24)
(0.0143828 3.96446e-05 -1.70789e-23)
(0.0143712 2.05253e-05 5.2602e-24)
(0.0143633 1.14988e-06 3.78924e-24)
(0.0143576 -1.86212e-05 -1.63919e-23)
(0.0143526 -3.86908e-05 1.70737e-23)
(0.0143476 -5.87032e-05 -1.3661e-23)
(0.0143417 -7.81491e-05 3.50914e-23)
(0.0143348 -9.64606e-05 -1.68651e-23)
(0.0143265 -0.000113162 9.92408e-24)
(0.0143177 -0.000127889 -2.70763e-24)
(0.0162972 0.000171468 -6.89357e-26)
(0.0162648 0.000140709 1.07276e-24)
(0.0162394 0.000114453 -2.10886e-24)
(0.0162204 9.10341e-05 -1.07492e-24)
(0.0162068 6.93562e-05 1.20043e-23)
(0.0161974 4.86454e-05 -1.74099e-24)
(0.0161908 2.8422e-05 -2.13569e-23)
(0.016186 8.44142e-06 2.49138e-23)
(0.016182 -1.13027e-05 -5.59748e-24)
(0.0161779 -3.06525e-05 -1.93703e-23)
(0.0161734 -4.93056e-05 2.06607e-23)
(0.0161679 -6.69147e-05 1.11354e-23)
(0.0161617 -8.31463e-05 -9.36756e-24)
(0.0161544 -9.77786e-05 -1.62153e-23)
(0.016147 -0.000110671 1.36055e-24)
(0.0180507 0.000177731 -2.67729e-27)
(0.0180414 0.000147654 -1.19178e-24)
(0.018034 0.000121273 5.71543e-24)
(0.0180289 9.73186e-05 3.707e-25)
(0.0180259 7.49838e-05 3.27978e-24)
(0.0180242 5.37317e-05 -1.17203e-23)
(0.0180233 3.32541e-05 1.00198e-23)
(0.0180225 1.34419e-05 2.28361e-24)
(0.0180214 -5.66609e-06 2.06082e-23)
(0.0180196 -2.39194e-05 -3.1836e-23)
(0.0180169 -4.11102e-05 -1.44082e-23)
(0.0180132 -5.70443e-05 -9.51999e-24)
(0.0180088 -7.15604e-05 1.79271e-23)
(0.0180034 -8.459e-05 -5.15466e-25)
(0.017998 -9.6113e-05 1.7369e-24)
(0.0198567 0.000178229 -1.77752e-26)
(0.0198578 0.000148745 1.21134e-24)
(0.0198594 0.000122474 -1.76677e-24)
(0.0198618 9.8404e-05 -8.8173e-28)
(0.0198647 7.59369e-05 2.36687e-24)
(0.0198677 5.47107e-05 6.03741e-24)
(0.0198703 3.45403e-05 -2.34134e-23)
(0.0198722 1.53715e-05 1.97217e-24)
(0.0198733 -2.75488e-06 1.19097e-23)
(0.0198733 -1.97559e-05 -5.48503e-24)
(0.0198723 -3.55239e-05 1.49771e-23)
(0.0198703 -4.99834e-05 1.04825e-23)
(0.0198677 -6.30879e-05 -1.90211e-23)
(0.0198641 -7.48551e-05 1.30069e-23)
(0.0198606 -8.5326e-05 -1.08131e-23)
(0.02171 0.000177064 -5.27396e-25)
(0.0217134 0.000147865 2.77987e-25)
(0.021717 0.000121578 2.09878e-24)
(0.021721 9.74294e-05 -1.0917e-23)
(0.021725 7.49771e-05 9.62633e-24)
(0.0217287 5.39754e-05 -7.05748e-24)
(0.0217319 3.42963e-05 5.0578e-24)
(0.0217342 1.58906e-05 -3.59784e-23)
(0.0217356 -1.24942e-06 5.19299e-23)
(0.021736 -1.71093e-05 -3.06086e-23)
(0.0217356 -3.16737e-05 2.73434e-23)
(0.0217343 -4.4955e-05 2.28689e-23)
(0.0217326 -5.69797e-05 -3.99534e-23)
(0.02173 -6.7812e-05 1.29985e-23)
(0.0217275 -7.75219e-05 -5.46095e-25)
(0.0235556 0.000175439 -1.86874e-26)
(0.0235599 0.000146824 -1.5685e-25)
(0.0235638 0.000120774 1.18248e-25)
(0.0235673 9.67885e-05 -3.00844e-25)
(0.0235707 7.45758e-05 3.92139e-24)
(0.0235735 5.3973e-05 -6.74867e-24)
(0.0235758 3.48789e-05 6.28811e-24)
(0.0235773 1.72285e-05 -1.9936e-23)
(0.023578 9.65076e-07 4.5399e-23)
(0.0235779 -1.39567e-05 -5.81542e-23)
(0.0235773 -2.75913e-05 4.76673e-23)
(0.0235759 -4.00061e-05 -1.61035e-23)
(0.0235742 -5.12687e-05 8.37315e-25)
(0.0235719 -6.14656e-05 3.69458e-24)
(0.0235696 -7.06784e-05 -7.08813e-24)
(0.0253021 0.00017228 -1.54645e-24)
(0.0253083 0.000144942 2.78728e-24)
(0.025313 0.00011974 -9.39953e-25)
(0.0253168 9.64471e-05 -1.50946e-24)
(0.0253198 7.49116e-05 6.16944e-24)
(0.0253221 5.5027e-05 -6.28762e-24)
(0.0253237 3.67103e-05 -5.68863e-24)
(0.0253246 1.98788e-05 -1.3768e-23)
(0.0253248 4.4512e-06 7.0071e-24)
(0.0253243 -9.66151e-06 3.35278e-23)
(0.0253234 -2.25508e-05 -1.77137e-23)
(0.0253218 -3.43091e-05 1.05737e-23)
(0.0253201 -4.50211e-05 -4.35161e-24)
(0.0253178 -5.47797e-05 -1.29056e-23)
(0.0253156 -6.36678e-05 6.60782e-24)
(0.0268344 0.000166534 5.07604e-25)
(0.0268427 0.000141172 -8.81552e-25)
(0.0268487 0.000117482 -2.62816e-25)
(0.0268531 9.54679e-05 -7.26309e-25)
(0.0268564 7.50925e-05 -1.83601e-24)
(0.0268587 5.62916e-05 9.52815e-24)
(0.0268603 3.89919e-05 -7.67528e-24)
(0.0268611 2.31021e-05 -4.95972e-24)
(0.0268612 8.52914e-06 4.54327e-24)
(0.0268607 -4.82886e-06 -5.36703e-24)
(0.0268598 -1.70664e-05 1.25069e-23)
(0.0268583 -2.82812e-05 6.3512e-24)
(0.0268567 -3.85621e-05 -2.37058e-23)
(0.0268546 -4.79987e-05 1.63831e-23)
(0.0268525 -5.66661e-05 -3.34239e-24)
(0.0280035 0.000158044 1.49938e-24)
(0.0280134 0.000135209 2.52801e-24)
(0.0280206 0.000113595 -5.6312e-24)
(0.0280258 9.33712e-05 -2.95621e-25)
(0.0280296 7.45822e-05 1.28908e-24)
(0.0280323 5.71962e-05 -2.90033e-24)
(0.0280341 4.11547e-05 -4.62689e-24)
(0.0280351 2.63666e-05 1.00249e-23)
(0.0280355 1.27438e-05 1.12049e-23)
(0.0280352 1.82451e-07 -2.72169e-23)
(0.0280345 -1.14022e-05 1.57003e-23)
(0.0280333 -2.2103e-05 -1.09816e-24)
(0.0280319 -3.19997e-05 -9.15948e-25)
(0.0280302 -4.11694e-05 1.23557e-24)
(0.0280284 -4.96728e-05 -5.7028e-25)
(0.0286074 0.000145426 -3.9304e-24)
(0.0286189 0.000125554 -8.44959e-24)
(0.0286275 0.000106497 4.55945e-24)
(0.028634 8.85092e-05 1.53788e-23)
(0.0286388 7.1684e-05 -4.28992e-24)
(0.0286425 5.60207e-05 -1.19013e-24)
(0.0286451 4.14761e-05 5.47703e-25)
(0.0286468 2.79783e-05 -4.50952e-24)
(0.0286478 1.54529e-05 1.22053e-23)
(0.0286482 3.81689e-06 -5.39271e-24)
(0.0286481 -7.00296e-06 3.23117e-24)
(0.0286473 -1.70838e-05 -5.11012e-24)
(0.0286462 -2.6486e-05 -5.85412e-24)
(0.0286447 -3.52696e-05 8.76945e-24)
(0.028643 -4.34815e-05 -3.83454e-24)
(0.0284297 0.000131355 6.22746e-24)
(0.0284418 0.000114429 -1.43034e-23)
(0.0284511 9.79895e-05 2.34664e-24)
(0.0284583 8.23151e-05 2.05964e-23)
(0.0284638 6.752e-05 -1.99611e-23)
(0.0284681 5.36253e-05 6.92906e-24)
(0.0284713 4.06013e-05 4.43458e-24)
(0.0284737 2.8399e-05 -9.97911e-24)
(0.0284753 1.69611e-05 2.38161e-24)
(0.0284762 6.23603e-06 1.06612e-24)
(0.0284765 -3.82528e-06 -1.03299e-24)
(0.0284764 -1.32606e-05 2.1534e-24)
(0.0284757 -2.21113e-05 -2.63955e-24)
(0.0284747 -3.04283e-05 1.79035e-24)
(0.0284734 -3.82519e-05 -8.30764e-25)
(0.0275013 0.000116062 3.86225e-24)
(0.0275142 0.000101845 -8.14435e-24)
(0.0275242 8.79045e-05 -5.59723e-24)
(0.0275319 7.44947e-05 2.6301e-23)
(0.0275378 6.17283e-05 -2.41217e-23)
(0.0275422 4.96308e-05 2.58163e-24)
(0.0275455 3.81881e-05 4.0228e-24)
(0.0275478 2.73653e-05 2.15342e-24)
(0.0275492 1.71285e-05 1.66544e-24)
(0.0275499 7.44316e-06 -7.55716e-24)
(0.0275499 -1.71507e-06 4.86228e-24)
(0.0275495 -1.03773e-05 7.35998e-25)
(0.0275486 -1.85733e-05 -1.71504e-24)
(0.0275473 -2.6335e-05 9.41109e-25)
(0.0275456 -3.36858e-05 6.00041e-25)
(0.0260231 0.000100863 9.60662e-24)
(0.0260362 8.90097e-05 -1.70534e-23)
(0.0260468 7.72995e-05 3.48274e-24)
(0.0260553 6.59483e-05 -8.24822e-24)
(0.0260621 5.50542e-05 -1.06367e-23)
(0.0260675 4.46441e-05 3.61112e-23)
(0.0260717 3.47148e-05 -1.39259e-23)
(0.0260749 2.52481e-05 3.87534e-24)
(0.0260772 1.62259e-05 -2.11679e-24)
(0.0260788 7.62487e-06 -4.88417e-24)
(0.0260797 -5.77444e-07 8.86528e-24)
(0.0260799 -8.41318e-06 -4.33604e-24)
(0.0260796 -1.58944e-05 6.83266e-25)
(0.0260788 -2.30306e-05 2.06271e-25)
(0.0260775 -2.98268e-05 2.4297e-26)
(0.0242288 8.76728e-05 3.69879e-24)
(0.0242419 7.77424e-05 -1.91034e-23)
(0.0242527 6.7857e-05 3.31087e-23)
(0.0242616 5.81934e-05 -2.52416e-23)
(0.0242689 4.88335e-05 2.51437e-23)
(0.0242747 3.98078e-05 -8.3646e-24)
(0.0242794 3.11211e-05 -5.75479e-24)
(0.0242831 2.27699e-05 -6.2132e-24)
(0.0242858 1.4744e-05 1.07111e-23)
(0.0242877 7.03387e-06 -6.22248e-25)
(0.0242888 -3.73821e-07 -9.91241e-24)
(0.0242893 -7.48259e-06 -1.05093e-24)
(0.0242892 -1.42955e-05 1.90152e-24)
(0.0242885 -2.0816e-05 -3.18786e-25)
(0.0242873 -2.70433e-05 4.55144e-26)
(0.0222535 7.54651e-05 4.92283e-25)
(0.0222668 6.71357e-05 -7.18969e-24)
(0.022278 5.87831e-05 -4.00808e-24)
(0.0222873 5.05474e-05 3.27747e-23)
(0.022295 4.25001e-05 -3.21882e-23)
(0.0223013 3.46738e-05 9.39706e-24)
(0.0223064 2.70843e-05 1.57884e-24)
(0.0223105 1.97372e-05 -8.22994e-25)
(0.0223136 1.26355e-05 -3.81276e-24)
(0.0223158 5.77818e-06 1.63598e-23)
(0.0223172 -8.31864e-07 -1.29569e-23)
(0.0223179 -7.19368e-06 -5.04809e-25)
(0.022318 -1.33048e-05 1.04121e-24)
(0.0223174 -1.91642e-05 6.70347e-25)
(0.0223162 -2.47677e-05 -4.95526e-25)
(0.0201995 6.4095e-05 7.32776e-25)
(0.020213 5.70999e-05 6.68245e-24)
(0.0202245 5.00455e-05 -7.66868e-24)
(0.0202342 4.30418e-05 -5.29772e-24)
(0.0202424 3.61494e-05 3.36706e-23)
(0.0202492 2.9402e-05 -2.57512e-23)
(0.0202548 2.28221e-05 -5.94898e-25)
(0.0202593 1.64217e-05 -5.28198e-24)
(0.0202627 1.02113e-05 -3.99589e-25)
(0.0202653 4.19445e-06 7.73038e-25)
(0.020267 -1.61806e-06 -2.67122e-24)
(0.0202679 -7.22582e-06 2.28653e-24)
(0.0202681 -1.2623e-05 8.25111e-25)
(0.0202676 -1.78045e-05 6.98198e-25)
(0.0202664 -2.2763e-05 6.16369e-25)
(0.0181412 5.35098e-05 5.22331e-24)
(0.0181549 4.76401e-05 -8.00808e-24)
(0.0181667 4.17017e-05 -6.4204e-24)
(0.0181769 3.57785e-05 1.95799e-23)
(0.0181855 2.99182e-05 -7.01322e-24)
(0.0181928 2.41539e-05 -9.83796e-24)
(0.0181988 1.85097e-05 3.44432e-24)
(0.0182036 1.30015e-05 7.64823e-24)
(0.0182074 7.6415e-06 -1.21081e-23)
(0.0182103 2.43539e-06 1.19214e-23)
(0.0182122 -2.60497e-06 -6.29268e-24)
(0.0182133 -7.47633e-06 2.63752e-24)
(0.0182135 -1.21692e-05 -3.26192e-24)
(0.0182131 -1.66754e-05 3.12828e-24)
(0.0182118 -2.09861e-05 -7.02276e-25)
(0.0161312 4.36824e-05 -1.01388e-24)
(0.016145 3.87846e-05 -3.51691e-24)
(0.0161571 3.38261e-05 -1.12005e-23)
(0.0161675 2.88653e-05 3.12685e-23)
(0.0161764 2.39376e-05 -5.6111e-24)
(0.0161839 1.90753e-05 -8.8015e-24)
(0.0161901 1.42996e-05 3.03539e-24)
(0.0161952 9.63115e-06 -4.40446e-24)
(0.0161992 5.07458e-06 -9.44375e-24)
(0.0162021 6.53438e-07 9.10012e-24)
(0.0162041 -3.6422e-06 4.34867e-25)
(0.0162052 -7.79721e-06 -2.79347e-24)
(0.0162053 -1.17972e-05 3.19094e-24)
(0.0162047 -1.56335e-05 1.73197e-25)
(0.0162032 -1.92973e-05 -2.22712e-25)
(0.0142044 3.46952e-05 3.90186e-24)
(0.014218 3.06587e-05 5.73644e-24)
(0.01423 2.65767e-05 -5.35171e-24)
(0.0142403 2.24835e-05 -1.16757e-23)
(0.0142492 1.84068e-05 1.57046e-23)
(0.0142567 1.43762e-05 -1.71764e-23)
(0.0142629 1.04118e-05 -6.55497e-25)
(0.0142678 6.53073e-06 6.64837e-24)
(0.0142717 2.7403e-06 2.30895e-24)
(0.0142744 -9.41112e-07 -4.73473e-24)
(0.0142762 -4.51834e-06 4.09178e-26)
(0.0142769 -7.97348e-06 9.54317e-24)
(0.0142767 -1.1294e-05 -3.64268e-24)
(0.0142757 -1.44725e-05 -8.96351e-25)
(0.0142737 -1.74999e-05 -5.30813e-26)
(0.0123818 2.67108e-05 -4.05316e-24)
(0.0123948 2.3449e-05 5.21724e-24)
(0.0124063 2.01566e-05 5.86407e-25)
(0.0124162 1.68486e-05 1.05502e-23)
(0.0124246 1.35496e-05 -8.60231e-24)
(0.0124316 1.02852e-05 6.83296e-25)
(0.0124374 7.07424e-06 -9.24868e-25)
(0.0124419 3.92682e-06 -2.70085e-24)
(0.0124453 8.61291e-07 2.34715e-24)
(0.0124475 -2.13269e-06 -7.57525e-24)
(0.0124487 -5.02602e-06 5.46007e-25)
(0.0124489 -7.81252e-06 1.80591e-24)
(0.0124481 -1.04856e-05 1.11416e-24)
(0.0124464 -1.30381e-05 4.28602e-25)
(0.0124437 -1.54607e-05 1.47268e-25)
(0.0106744 1.98816e-05 3.00209e-24)
(0.0106865 1.73143e-05 -2.3752e-24)
(0.010697 1.47275e-05 -1.04387e-23)
(0.010706 1.21237e-05 9.80118e-24)
(0.0107136 9.52695e-06 1.36875e-23)
(0.0107199 6.95821e-06 -3.47355e-24)
(0.0107249 4.43215e-06 -7.07553e-24)
(0.0107287 1.95776e-06 -9.91334e-24)
(0.0107313 -4.52189e-07 7.47273e-24)
(0.0107328 -2.80223e-06 4.33202e-25)
(0.0107332 -5.06759e-06 -1.67065e-24)
(0.0107327 -7.24363e-06 -4.44802e-25)
(0.0107311 -9.32572e-06 9.16138e-25)
(0.0107286 -1.13072e-05 -3.62047e-26)
(0.0107252 -1.31794e-05 -1.70011e-25)
(0.00908685 1.42766e-05 -1.88914e-24)
(0.00909749 1.23193e-05 -1.34584e-24)
(0.00910674 1.03496e-05 1.63921e-24)
(0.0091146 8.3643e-06 -5.20076e-24)
(0.00912113 6.38676e-06 1.70686e-23)
(0.00912639 4.43224e-06 -2.26353e-23)
(0.00913044 2.51116e-06 2.22068e-23)
(0.00913333 6.33691e-07 -9.40616e-24)
(0.00913508 -1.20107e-06 2.1364e-24)
(0.00913577 -2.97723e-06 2.57186e-26)
(0.00913541 -4.68763e-06 -1.66694e-24)
(0.00913407 -6.32729e-06 5.50277e-25)
(0.00913176 -7.89118e-06 -1.25597e-24)
(0.00912856 -9.37338e-06 -1.61065e-25)
(0.00912447 -1.07668e-05 7.99084e-26)
(0.00761932 9.86098e-06 -9.17717e-25)
(0.00762838 8.42251e-06 2.3519e-25)
(0.0076362 6.9768e-06 5.11263e-25)
(0.00764276 5.51886e-06 -2.37342e-24)
(0.0076481 4.0701e-06 -1.07128e-24)
(0.00765227 2.63944e-06 9.27191e-24)
(0.00765531 1.23479e-06 -5.4517e-24)
(0.00765727 -1.35199e-07 7.80477e-25)
(0.00765817 -1.47427e-06 -7.55808e-25)
(0.00765808 -2.76606e-06 -8.12778e-25)
(0.00765701 -4.00777e-06 -2.32361e-25)
(0.00765502 -5.19493e-06 1.53054e-24)
(0.00765213 -6.32322e-06 3.70852e-25)
(0.00764842 -7.3878e-06 -8.96024e-25)
(0.00764388 -8.38329e-06 -1.33317e-25)
(0.00626959 6.5162e-06 -3.33599e-25)
(0.00627704 5.5031e-06 -1.10388e-25)
(0.0062834 4.48759e-06 -5.37806e-24)
(0.00628864 3.4644e-06 1.42312e-24)
(0.0062928 2.45098e-06 -3.87164e-24)
(0.00629591 1.45066e-06 2.70865e-24)
(0.00629802 4.70398e-07 5.13081e-24)
(0.00629915 -4.84874e-07 3.84416e-24)
(0.00629933 -1.41676e-06 -5.3869e-24)
(0.00629862 -2.31436e-06 1.62383e-24)
(0.00629703 -3.1753e-06 1.3742e-24)
(0.00629461 -3.99596e-06 -1.95429e-24)
(0.00629139 -4.77325e-06 1.04063e-24)
(0.00628743 -5.50331e-06 -6.84512e-26)
(0.00628275 -6.18225e-06 2.50095e-25)
(0.00503372 4.07865e-06 -1.3059e-24)
(0.00503961 3.40116e-06 -1.78925e-24)
(0.00504458 2.72655e-06 -3.25221e-25)
(0.00504859 2.04858e-06 4.451e-24)
(0.00505168 1.3795e-06 -3.15096e-24)
(0.00505387 7.18669e-07 -6.11862e-25)
(0.00505518 7.37513e-08 5.07283e-24)
(0.00505566 -5.55405e-07 1.19046e-26)
(0.00505532 -1.16884e-06 -1.02825e-24)
(0.0050542 -1.75828e-06 -3.74301e-24)
(0.00505233 -2.32244e-06 4.26138e-25)
(0.00504974 -2.85869e-06 2.55116e-24)
(0.00504647 -3.36503e-06 -3.27772e-25)
(0.00504256 -3.83847e-06 -3.35888e-25)
(0.00503803 -4.27616e-06 2.197e-25)
(0.00390659 2.37327e-06 -2.85239e-25)
(0.00391105 1.94968e-06 1.69261e-26)
(0.00391476 1.53423e-06 2.13392e-24)
(0.00391769 1.11861e-06 1.42811e-24)
(0.00391985 7.09885e-07 -9.84453e-25)
(0.00392129 3.05674e-07 -2.43428e-24)
(0.003922 -8.76099e-08 9.84668e-25)
(0.00392202 -4.71947e-07 -4.12964e-24)
(0.00392137 -8.46041e-07 3.17982e-24)
(0.00392007 -1.2053e-06 1.62377e-24)
(0.00391816 -1.5485e-06 -1.73632e-26)
(0.00391566 -1.87391e-06 -1.7594e-24)
(0.00391259 -2.18025e-06 3.13799e-25)
(0.00390901 -2.46525e-06 -2.30978e-25)
(0.00390493 -2.72669e-06 1.13016e-25)
(0.00288229 1.23525e-06 -5.2484e-25)
(0.00288547 9.91923e-07 1.08516e-26)
(0.00288808 7.61615e-07 1.70995e-24)
(0.00289008 5.33508e-07 -1.06893e-24)
(0.0028915 3.10575e-07 4.39671e-24)
(0.00289235 9.18543e-08 -8.00863e-24)
(0.00289264 -1.26339e-07 6.47359e-24)
(0.00289241 -3.32442e-07 -5.39424e-24)
(0.00289164 -5.38595e-07 3.89415e-24)
(0.00289038 -7.33522e-07 -2.4892e-24)
(0.00288864 -9.19609e-07 8.54382e-25)
(0.00288644 -1.09557e-06 1.22907e-25)
(0.00288381 -1.26042e-06 1.89978e-25)
(0.00288079 -1.41249e-06 -2.32704e-25)
(0.00287738 -1.54995e-06 4.66925e-26)
(0.00195436 5.26249e-07 7.95834e-25)
(0.00195643 3.98869e-07 8.5967e-25)
(0.0019581 2.88933e-07 -3.67547e-24)
(0.00195934 1.83011e-07 2.68764e-24)
(0.00196017 8.14778e-08 -2.65762e-26)
(0.00196061 -1.41019e-08 6.90634e-25)
(0.00196064 -1.15211e-07 -8.4463e-25)
(0.00196031 -2.08958e-07 -1.76097e-24)
(0.00195961 -2.99349e-07 1.74688e-24)
(0.00195855 -3.8467e-07 1.79452e-25)
(0.00195715 -4.65002e-07 -1.3804e-24)
(0.00195544 -5.39743e-07 4.95632e-25)
(0.00195342 -6.09505e-07 2.89246e-25)
(0.00195113 -6.73448e-07 -3.46425e-26)
(0.00194857 -7.30034e-07 -3.13874e-26)
(0.00111609 1.54687e-07 -8.0253e-25)
(0.0011172 1.08186e-07 2.45354e-24)
(0.00111807 7.78869e-08 1.46201e-24)
(0.00111869 4.83745e-08 -2.63322e-24)
(0.00111908 1.9318e-08 -3.08482e-25)
(0.00111923 -8.11853e-09 -2.73447e-25)
(0.00111915 -3.97505e-08 8.32691e-25)
(0.00111886 -6.85616e-08 -1.40825e-24)
(0.00111835 -9.64874e-08 1.9101e-24)
(0.00111763 -1.23276e-07 -9.35012e-25)
(0.00111671 -1.46932e-07 -6.01401e-25)
(0.0011156 -1.66635e-07 3.61089e-25)
(0.00111432 -1.88048e-07 -4.18096e-25)
(0.00111288 -2.11394e-07 4.15248e-25)
(0.00111128 -2.35358e-07 -6.7997e-26)
(0.000360685 5.8624e-08 -5.72573e-27)
(0.00036095 1.1314e-07 4.7619e-25)
(0.000361149 1.57658e-07 5.44269e-25)
(0.000361271 1.86801e-07 -8.53415e-25)
(0.000361324 2.0257e-07 1.77105e-24)
(0.000361307 2.07017e-07 -1.92296e-24)
(0.000361219 2.01833e-07 1.25889e-25)
(0.000361062 1.89159e-07 1.05514e-24)
(0.000360838 1.69983e-07 -1.45818e-24)
(0.000360547 1.45696e-07 -2.60566e-25)
(0.000360194 1.1871e-07 9.94852e-25)
(0.00035978 9.03956e-08 -4.37326e-25)
(0.000359309 5.73876e-08 -1.57489e-25)
(0.000358786 1.9999e-08 1.30957e-25)
(0.000358214 -2.06602e-08 -5.62383e-27)
(0.000903399 -0.000238874 7.99299e-26)
(0.00103519 -0.000159958 2.03724e-24)
(0.00125713 -7.87821e-05 -5.84379e-24)
(0.00148433 -1.33807e-05 8.46687e-24)
(0.00170299 3.78233e-05 -3.17574e-24)
(0.00191786 7.55454e-05 -3.03633e-24)
(0.00212888 0.000102214 3.44348e-24)
(0.00233659 0.000119842 -6.78511e-24)
(0.00254171 0.000130127 4.42644e-25)
(0.00274482 0.000134535 4.26324e-24)
(0.00294644 0.00013433 -8.11037e-25)
(0.00314709 0.000130643 8.74818e-25)
(0.00334729 0.000124528 -8.58107e-26)
(0.00354764 0.000117028 5.41451e-25)
(0.00374896 0.000109237 -1.98667e-24)
(0.00395234 0.000102363 1.08657e-24)
(0.00415954 9.7728e-05 -3.34596e-25)
(0.00437296 9.67773e-05 2.64161e-26)
(0.00459649 0.000100665 7.75213e-25)
(0.0048349 0.000109948 -4.84211e-25)
(0.00509466 0.000122833 5.92891e-26)
(0.00538066 0.000134431 -5.18073e-26)
(0.00567094 0.000133562 9.8709e-26)
(0.00592861 0.000112913 3.81566e-25)
(0.00614097 7.32535e-05 -6.8485e-25)
(0.00630787 1.73969e-05 -4.59998e-25)
(0.00643092 -5.15931e-05 2.52879e-26)
(0.00651233 -0.000131054 1.11885e-24)
(0.00655384 -0.000218445 1.42146e-24)
(0.0065564 -0.00031085 -2.75505e-24)
(0.00652039 -0.000404525 1.89157e-24)
(0.00644594 -0.000494679 -1.35139e-24)
(0.00633334 -0.000575464 1.65397e-25)
(0.00618328 -0.000640115 -1.13896e-24)
(0.00599696 -0.000681105 1.09659e-24)
(0.00577603 -0.000690172 7.32491e-24)
(0.0055225 -0.0006581 -2.01064e-24)
(0.00523866 -0.000573987 1.88731e-24)
(0.00492722 -0.000423857 1.01199e-24)
(0.00459191 -0.000189116 -1.08308e-23)
(0.00423645 0.000151961 -1.32169e-25)
(0.00386573 0.000612561 4.56051e-24)
(0.00346837 0.001162 1.44915e-24)
(0.00306226 0.00167833 -6.38859e-24)
(0.00283222 0.00179695 -3.16454e-25)
(0.00170002 -0.000318633 -2.3427e-24)
(0.0017553 -0.00027406 -3.28334e-24)
(0.00189259 -0.000195975 6.89398e-24)
(0.00206524 -0.000123525 3.18638e-24)
(0.00224906 -6.21966e-05 -1.11381e-23)
(0.00243936 -1.41337e-05 1.18525e-23)
(0.00263203 2.20382e-05 -4.2441e-24)
(0.00282525 4.8165e-05 3.35858e-24)
(0.0030184 6.59828e-05 -4.44117e-24)
(0.00321125 7.70636e-05 5.13117e-26)
(0.00340385 8.27794e-05 -2.34527e-24)
(0.00359637 8.43513e-05 4.64732e-24)
(0.00378914 8.29065e-05 -2.56615e-24)
(0.00398257 7.95405e-05 -2.2956e-24)
(0.00417732 7.53785e-05 -1.51396e-24)
(0.00437435 7.16364e-05 2.90955e-24)
(0.0045752 6.9625e-05 -3.41579e-25)
(0.00478203 7.07492e-05 1.49874e-24)
(0.00499843 7.61277e-05 2.31073e-25)
(0.00522874 8.63046e-05 -4.41599e-25)
(0.00547906 9.96036e-05 -1.82405e-25)
(0.00575405 0.000111476 -1.0965e-25)
(0.00603316 0.000111308 5.3437e-25)
(0.00628158 9.22764e-05 6.54295e-25)
(0.00648724 5.52032e-05 -5.88376e-25)
(0.00664985 2.78101e-06 -2.80975e-24)
(0.00677066 -6.19968e-05 3.7453e-24)
(0.00685156 -0.000136436 -2.5492e-24)
(0.00689403 -0.000217882 8.51508e-25)
(0.00689893 -0.000303283 -4.0662e-25)
(0.00686672 -0.000388796 2.66178e-24)
(0.00679773 -0.000469584 -2.59409e-24)
(0.00669258 -0.000539822 -1.19787e-25)
(0.00655244 -0.000592821 5.86758e-24)
(0.00637913 -0.000621158 -1.01292e-23)
(0.00617522 -0.000616696 2.76397e-24)
(0.00594401 -0.00057038 1.30436e-23)
(0.00568979 -0.000471629 -3.58547e-24)
(0.00541842 -0.000307178 -1.04791e-23)
(0.0051389 -5.95894e-05 -6.30752e-24)
(0.00486475 0.000291507 1.43807e-23)
(0.00461851 0.000759828 -1.38125e-23)
(0.00442364 0.00131498 -2.98784e-24)
(0.00431994 0.00182405 9.00068e-24)
(0.00434933 0.00188553 2.82677e-24)
(0.00264051 -0.000326976 -2.66266e-26)
(0.00264901 -0.000322309 -3.75875e-24)
(0.00270787 -0.0002757 7.30375e-24)
(0.00281674 -0.000213481 6.11673e-24)
(0.00295191 -0.00015265 -1.00053e-23)
(0.00310469 -0.00010018 2.07539e-25)
(0.00326805 -5.77221e-05 9.58058e-25)
(0.00343772 -2.4837e-05 1.03411e-23)
(0.00361134 -4.0637e-07 -1.22455e-23)
(0.00378757 1.68876e-05 7.51075e-24)
(0.00396569 2.83274e-05 2.25485e-24)
(0.00414534 3.51143e-05 -1.24606e-23)
(0.00432647 3.83838e-05 4.4983e-24)
(0.00450922 3.9245e-05 1.78574e-24)
(0.00469402 3.88316e-05 -3.69683e-24)
(0.00488159 3.83513e-05 5.96649e-24)
(0.00507326 3.90929e-05 -4.18319e-24)
(0.00527088 4.24139e-05 -7.12764e-26)
(0.00547768 4.93928e-05 3.24981e-25)
(0.00569754 6.05581e-05 3.41882e-25)
(0.00593613 7.43478e-05 4.46362e-26)
(0.00619782 8.65546e-05 1.93353e-25)
(0.00646353 8.71287e-05 -5.39425e-25)
(0.00670072 6.97512e-05 1.60756e-24)
(0.00689802 3.53113e-05 -2.53558e-24)
(0.00705494 -1.36043e-05 1.45808e-24)
(0.00717241 -7.40616e-05 -3.26477e-24)
(0.00725192 -0.000143333 4.37932e-24)
(0.00729471 -0.00021865 -3.68483e-24)
(0.00730157 -0.00029683 5.43807e-25)
(0.00727302 -0.00037393 7.52275e-25)
(0.00720963 -0.000445085 3.08082e-24)
(0.00711238 -0.000504521 -7.46028e-25)
(0.00698293 -0.000545686 3.04865e-24)
(0.0068238 -0.000561376 -9.01975e-24)
(0.0066385 -0.000543785 1.60766e-23)
(0.00643171 -0.000484386 -1.11344e-23)
(0.00620971 -0.000373569 1.67061e-23)
(0.0059813 -0.000199989 -3.20005e-23)
(0.00575983 5.01653e-05 1.22106e-23)
(0.00556568 0.000391146 4.24685e-24)
(0.00543033 0.000828601 6.61399e-24)
(0.00538807 0.00132563 -8.21357e-24)
(0.00546153 0.00175169 2.2798e-24)
(0.00561883 0.00179019 -1.36913e-24)
(0.00370788 -0.000310957 -9.92576e-25)
(0.00369021 -0.000331066 -1.51408e-24)
(0.00370025 -0.000313142 -6.46815e-24)
(0.00374785 -0.000273542 1.78482e-24)
(0.00382999 -0.000223375 1.18456e-24)
(0.00393688 -0.000174215 5.10018e-24)
(0.00406164 -0.000130676 -1.0644e-23)
(0.00419886 -9.44167e-05 4.07085e-24)
(0.00434491 -6.55359e-05 1.34985e-23)
(0.00449734 -4.34008e-05 -3.59365e-24)
(0.00465457 -2.71005e-05 -3.36062e-24)
(0.00481563 -1.56322e-05 -5.33477e-25)
(0.00497997 -7.9652e-06 1.74283e-24)
(0.00514737 -3.04987e-06 -3.40009e-24)
(0.00531797 2.07845e-07 7.87529e-25)
(0.00549218 2.97455e-06 -2.73023e-25)
(0.00567106 6.49312e-06 -1.61041e-24)
(0.00585613 1.20564e-05 6.26553e-25)
(0.00605022 2.06896e-05 2.78366e-24)
(0.0062567 3.28962e-05 -3.27469e-25)
(0.00648075 4.72225e-05 -6.2012e-25)
(0.00672635 5.98003e-05 -1.70065e-25)
(0.00697603 6.11458e-05 -9.51162e-25)
(0.00719965 4.54598e-05 -5.54726e-26)
(0.00738656 1.37125e-05 -2.25081e-24)
(0.00753608 -3.16032e-05 3.88924e-24)
(0.00764876 -8.76076e-05 -3.2652e-24)
(0.00772571 -0.000151538 6.20298e-24)
(0.00776794 -0.000220518 -5.06081e-24)
(0.00777615 -0.000291247 1.27708e-24)
(0.00775094 -0.000359712 1.73952e-24)
(0.00769313 -0.00042106 -1.83347e-25)
(0.00760408 -0.000469638 -2.96215e-25)
(0.00748598 -0.000499134 -1.05897e-24)
(0.00734203 -0.000502734 1.31636e-24)
(0.00717668 -0.000473229 -5.00128e-24)
(0.00699584 -0.000403046 2.36197e-23)
(0.00680747 -0.000284191 -1.25319e-23)
(0.0066225 -0.000108251 -4.32783e-25)
(0.00645655 0.000133336 -2.83525e-23)
(0.0063319 0.00044672 2.14833e-23)
(0.00627899 0.000827668 -7.74672e-24)
(0.00632757 0.00123834 1.96734e-24)
(0.00648272 0.0015775 9.51344e-24)
(0.0066971 0.00165318 -2.24172e-24)
(0.00489741 -0.000285479 -4.1016e-24)