/*--------------------------------*- C++ -*----------------------------------*\
| =========                 |                                                 |
| \\      /  F ield         | OpenFOAM: The Open Source CFD Toolbox           |
|  \\    /   O peration     | Version:  2312                                  |
|   \\  /    A nd           | Website:  www.openfoam.com                      |
|    \\/     M anipulation  |                                                 |
\*---------------------------------------------------------------------------*/
FoamFile
{
    version     2.0;
    format      ascii;
    arch        "LSB;label=32;scalar=64";
    class       surfaceScalarField;
    location    "65";
    object      phi;
}
// * * * * * * * * * * * * * * * * * * * * * * * * * * * * * * * * * * * * * //

dimensions      [0 3 -1 0 0 0 0];

oriented        oriented;

internalField   nonuniform List<scalar> 
9445
(
6.21748e-10
1.10391e-11
6.14859e-10
6.88842e-12
6.10685e-10
4.17409e-12
6.08467e-10
2.21804e-12
6.07775e-10
6.91511e-13
6.08399e-10
-6.2367e-13
6.10316e-10
-1.91748e-12
6.13418e-10
-3.10145e-12
6.17919e-10
-4.50102e-12
6.24315e-10
-6.3957e-12
6.33765e-10
-9.44993e-12
6.49967e-10
-1.62026e-11
6.86167e-10
-3.62001e-11
7.89838e-10
-1.0367e-10
-2.72388e-10
1.06223e-09
2.16832e-09
4.99019e-11
2.1433e-09
3.19132e-11
2.12744e-09
2.00355e-11
2.11822e-09
1.1435e-11
2.11417e-09
4.73951e-12
2.11455e-09
-1.00761e-12
2.11906e-09
-6.4257e-12
2.12745e-09
-1.1491e-11
2.14034e-09
-1.73861e-11
2.15907e-09
-2.51329e-11
2.18663e-09
-3.70089e-11
2.2302e-09
-5.97686e-11
2.30393e-09
-1.09936e-10
2.42202e-09
-2.21752e-10
-3.98178e-10
2.54781e-09
4.27442e-09
1.26178e-10
4.22416e-09
8.21742e-11
4.19128e-09
5.29104e-11
4.17105e-09
3.16685e-11
4.16064e-09
1.51462e-11
4.15858e-09
1.06007e-12
4.16399e-09
-1.18349e-11
4.17638e-09
-2.38814e-11
4.19661e-09
-3.7618e-11
4.22625e-09
-5.47777e-11
4.26824e-09
-7.90012e-11
4.32744e-09
-1.18961e-10
4.40678e-09
-1.89277e-10
4.49184e-09
-3.06814e-10
-4.49218e-10
4.54288e-09
7.09044e-09
2.5041e-10
7.00669e-09
1.65926e-10
6.95027e-09
1.09326e-10
6.91383e-09
6.81149e-11
6.89287e-09
3.61092e-11
6.88494e-09
8.98088e-12
6.88833e-09
-1.52235e-11
6.90197e-09
-3.75165e-11
6.92646e-09
-6.2114e-11
6.96274e-09
-9.10542e-11
7.01177e-09
-1.2803e-10
7.07323e-09
-1.80418e-10
7.14023e-09
-2.56282e-10
7.19129e-09
-3.57869e-10
-4.59217e-10
7.20129e-09
1.07968e-08
4.32426e-10
1.06711e-08
2.91626e-10
1.0584e-08
1.96462e-10
1.05252e-08
1.26872e-10
1.04885e-08
7.28412e-11
1.04699e-08
2.75448e-11
1.0467e-08
-1.22596e-11
1.04777e-08
-4.82949e-11
1.05015e-08
-8.58481e-11
1.05378e-08
-1.27344e-10
1.05849e-08
-1.75138e-10
1.0638e-08
-2.33493e-10
1.06858e-08
-3.04164e-10
1.07102e-08
-3.82249e-10
-4.48366e-10
1.06994e-08
1.56044e-08
6.77896e-10
1.54303e-08
4.65758e-10
1.5306e-08
3.20745e-10
1.52188e-08
2.14022e-10
1.51607e-08
1.3102e-10
1.5126e-08
6.22201e-11
1.51111e-08
2.6686e-12
1.51133e-08
-5.05178e-11
1.51299e-08
-1.02505e-10
1.51584e-08
-1.55827e-10
1.51948e-08
-2.11545e-10
1.5232e-08
-2.70634e-10
1.5259e-08
-3.31232e-10
1.52641e-08
-3.87324e-10
-4.2788e-10
1.52436e-08
2.17506e-08
9.82489e-10
2.15275e-08
6.88888e-10
2.13631e-08
4.85081e-10
2.12435e-08
3.33653e-10
2.11591e-08
2.1539e-10
2.11032e-08
1.18155e-10
2.10707e-08
3.51596e-11
2.10578e-08
-3.76013e-11
2.10602e-08
-1.04895e-10
2.10733e-08
-1.68915e-10
2.10916e-08
-2.2987e-10
2.11079e-08
-2.86912e-10
2.11141e-08
-3.374e-10
2.11039e-08
-3.77208e-10
-4.0159e-10
2.10776e-08
2.94899e-08
1.324e-09
2.9229e-08
9.49807e-10
2.90296e-08
6.84468e-10
2.88787e-08
4.84507e-10
2.87669e-08
3.27162e-10
2.86869e-08
1.98199e-10
2.86327e-08
8.93685e-11
2.85992e-08
-4.09341e-12
2.85811e-08
-8.6772e-11
2.85725e-08
-1.6037e-10
2.85676e-08
-2.24982e-10
2.85604e-08
-2.79641e-10
2.85457e-08
-3.22752e-10
2.85212e-08
-3.52738e-10
-3.68651e-10
2.84883e-08
3.90805e-08
1.65581e-09
3.88109e-08
1.2194e-09
3.85946e-08
9.00727e-10
3.84235e-08
6.55595e-10
3.82904e-08
4.60333e-10
3.81887e-08
2.99873e-10
3.81126e-08
1.65477e-10
3.80567e-08
5.1841e-11
3.80148e-08
-4.49015e-11
3.79815e-08
-1.27063e-10
3.79514e-08
-1.94869e-10
3.79202e-08
-2.48436e-10
3.78852e-08
-2.8781e-10
3.7846e-08
-3.13528e-10
-3.26673e-10
3.7804e-08
5.07795e-08
1.9102e-09
5.05494e-08
1.4495e-09
5.03504e-08
1.09972e-09
5.0183e-08
8.22948e-10
5.0045e-08
5.98398e-10
4.99326e-08
4.12209e-10
4.98416e-08
2.56555e-10
4.9767e-08
1.26368e-10
4.9704e-08
1.81564e-11
4.96477e-08
-7.077e-11
4.95946e-08
-1.41743e-10
4.9542e-08
-1.95853e-10
4.94889e-08
-2.34697e-10
4.94355e-08
-2.6018e-10
-2.74347e-10
4.93832e-08
6.48703e-08
2.02245e-09
6.47346e-08
1.58524e-09
6.45966e-08
1.23772e-09
6.44669e-08
9.5261e-10
6.43501e-08
7.15227e-10
6.42469e-08
5.15361e-10
6.41558e-08
3.47672e-10
6.40742e-08
2.08004e-10
6.39992e-08
9.30689e-11
6.3928e-08
5.15049e-13
6.3859e-08
-7.27897e-11
6.37914e-08
-1.28217e-10
6.3725e-08
-1.68371e-10
6.36607e-08
-1.95854e-10
-2.13045e-10
6.35994e-08
8.17433e-08
1.97142e-09
8.1734e-08
1.59449e-09
8.16898e-08
1.2819e-09
8.16269e-08
1.01552e-09
8.15572e-08
7.84961e-10
8.14854e-08
5.8713e-10
8.14131e-08
4.19973e-10
8.13406e-08
2.80568e-10
8.12676e-08
1.66029e-10
8.11945e-08
7.36616e-11
8.11208e-08
8.61709e-13
8.10477e-08
-5.51177e-11
8.0976e-08
-9.66587e-11
8.09067e-08
-1.26535e-10
-1.47092e-10
8.08407e-08
1.01992e-07
1.79304e-09
1.02087e-07
1.4995e-09
1.0213e-07
1.23961e-09
1.02139e-07
1.00675e-09
1.02125e-07
7.98384e-10
1.02096e-07
6.16452e-10
1.02054e-07
4.61507e-10
1.02003e-07
3.31807e-10
1.01944e-07
2.2475e-10
1.0188e-07
1.37722e-10
1.01813e-07
6.82836e-11
1.01744e-07
1.3946e-11
1.01675e-07
-2.75922e-11
1.01607e-07
-5.8899e-11
-8.19043e-11
1.01542e-07
1.26368e-07
1.55554e-09
1.26524e-07
1.34371e-09
1.26619e-07
1.14437e-09
1.26672e-07
9.54596e-10
1.26694e-07
7.76399e-10
1.26694e-07
6.16384e-10
1.26676e-07
4.78996e-10
1.26644e-07
3.63863e-10
1.266e-07
2.68401e-10
1.26548e-07
1.89932e-10
1.2649e-07
1.26265e-10
1.26429e-07
7.53637e-11
1.26366e-07
3.52729e-11
1.26303e-07
3.98952e-12
-2.01716e-11
1.26241e-07
1.55606e-07
1.3124e-09
1.55778e-07
1.17181e-09
1.55893e-07
1.02918e-09
1.55963e-07
8.85382e-10
1.55997e-07
7.42435e-10
1.56005e-07
6.07807e-10
1.55994e-07
4.9019e-10
1.55967e-07
3.91047e-10
1.55927e-07
3.0797e-10
1.55879e-07
2.385e-10
1.55824e-07
1.80941e-10
1.55765e-07
1.33932e-10
1.55705e-07
9.59629e-11
1.55643e-07
6.54224e-11
4.09559e-11
1.55582e-07
1.90214e-07
1.08269e-09
1.90379e-07
1.00686e-09
1.90494e-07
9.14308e-10
1.90565e-07
8.14255e-10
1.906e-07
7.07729e-10
1.90607e-07
6.00198e-10
1.90594e-07
5.04004e-10
1.90562e-07
4.22344e-10
1.90518e-07
3.5215e-10
1.90465e-07
2.91466e-10
1.90407e-07
2.39315e-10
1.90345e-07
1.96162e-10
1.9028e-07
1.60547e-10
1.90214e-07
1.31132e-10
1.06881e-10
1.90148e-07
2.3033e-07
8.65838e-10
2.30481e-07
8.55944e-10
2.30584e-07
8.11302e-10
2.30651e-07
7.47704e-10
2.30681e-07
6.77144e-10
2.30685e-07
5.97036e-10
2.30666e-07
5.22531e-10
2.30632e-07
4.56828e-10
2.30585e-07
3.98983e-10
2.30528e-07
3.48478e-10
2.30464e-07
3.03329e-10
2.30395e-07
2.64492e-10
2.30324e-07
2.31704e-10
2.30251e-07
2.04082e-10
1.80818e-10
2.30177e-07
2.75507e-07
6.69298e-10
2.75642e-07
7.2068e-10
2.75731e-07
7.22452e-10
2.75785e-07
6.9353e-10
2.7581e-07
6.52641e-10
2.75808e-07
5.99008e-10
2.75786e-07
5.44707e-10
2.75748e-07
4.93895e-10
2.75699e-07
4.48525e-10
2.75639e-07
4.08249e-10
2.75571e-07
3.71633e-10
2.75497e-07
3.38711e-10
2.75418e-07
3.10022e-10
2.75337e-07
2.85237e-10
2.63923e-10
2.75254e-07
3.24187e-07
5.07339e-10
3.24308e-07
5.99897e-10
3.24394e-07
6.36829e-10
3.24444e-07
6.43531e-10
3.24467e-07
6.28937e-10
3.24464e-07
6.02476e-10
3.24438e-07
5.70125e-10
3.24398e-07
5.34077e-10
3.24347e-07
5.00209e-10
3.24285e-07
4.69757e-10
3.24215e-07
4.41876e-10
3.24137e-07
4.1618e-10
3.24054e-07
3.93064e-10
3.23967e-07
3.72555e-10
3.54486e-10
3.23876e-07
3.73161e-07
3.48126e-10
3.73286e-07
4.74841e-10
3.73376e-07
5.46241e-10
3.73437e-07
5.82673e-10
3.73471e-07
5.94755e-10
3.73482e-07
5.91509e-10
3.73473e-07
5.79935e-10
3.73443e-07
5.6336e-10
3.73399e-07
5.445e-10
3.73344e-07
5.2531e-10
3.73279e-07
5.06806e-10
3.73205e-07
4.89379e-10
3.73125e-07
4.7327e-10
3.73039e-07
4.58586e-10
4.45469e-10
3.72948e-07
3.70533e-07
2.5549e-10
3.7061e-07
3.97842e-10
3.70669e-07
4.86967e-10
3.7071e-07
5.41599e-10
3.70732e-07
5.72628e-10
3.70736e-07
5.87161e-10
3.70726e-07
5.90862e-10
3.707e-07
5.88589e-10
3.70662e-07
5.82617e-10
3.70613e-07
5.74155e-10
3.70555e-07
5.6485e-10
3.70489e-07
5.55417e-10
3.70416e-07
5.46237e-10
3.70337e-07
5.37669e-10
5.29431e-10
3.70253e-07
3.16826e-07
1.99177e-10
3.16887e-07
3.36867e-10
3.16944e-07
4.30194e-10
3.16993e-07
4.92745e-10
3.17032e-07
5.33745e-10
3.17059e-07
5.59631e-10
3.17075e-07
5.75299e-10
3.1708e-07
5.8398e-10
3.17074e-07
5.88126e-10
3.17059e-07
5.89065e-10
3.17036e-07
5.88151e-10
3.17005e-07
5.86065e-10
3.16968e-07
5.8325e-10
3.16926e-07
5.80189e-10
5.76868e-10
3.16878e-07
2.65078e-07
1.84578e-10
2.65104e-07
3.11089e-10
2.65134e-07
4.00815e-10
2.65162e-07
4.64441e-10
2.65186e-07
5.09271e-10
2.65205e-07
5.40696e-10
2.65218e-07
5.62615e-10
2.65224e-07
5.77723e-10
2.65224e-07
5.88077e-10
2.65218e-07
5.9503e-10
2.65207e-07
5.99551e-10
2.65191e-07
6.02364e-10
2.6517e-07
6.03926e-10
2.65146e-07
6.04538e-10
6.04238e-10
2.65118e-07
2.17978e-07
1.90479e-10
2.17989e-07
3.00756e-10
2.18008e-07
3.81877e-10
2.1803e-07
4.4177e-10
2.18054e-07
4.86032e-10
2.18075e-07
5.18869e-10
2.18095e-07
5.43375e-10
2.18111e-07
5.61763e-10
2.18123e-07
5.75627e-10
2.18132e-07
5.86079e-10
2.18138e-07
5.93903e-10
2.1814e-07
5.99674e-10
2.18141e-07
6.03759e-10
2.18139e-07
6.06426e-10
6.0786e-10
2.18135e-07
1.76657e-07
2.01789e-10
1.76665e-07
2.93262e-10
1.76684e-07
3.62672e-10
1.7671e-07
4.1553e-10
1.7674e-07
4.56016e-10
1.76772e-07
4.87273e-10
1.76804e-07
5.11621e-10
1.76835e-07
5.30718e-10
1.76865e-07
5.45744e-10
1.76893e-07
5.57547e-10
1.7692e-07
5.66728e-10
1.76946e-07
5.73733e-10
1.76971e-07
5.78884e-10
1.76995e-07
5.824e-10
5.84413e-10
1.77019e-07
1.41389e-07
2.04511e-10
1.41405e-07
2.77223e-10
1.41434e-07
3.33953e-10
1.41471e-07
3.78349e-10
1.41513e-07
4.13385e-10
1.41559e-07
4.41275e-10
1.41607e-07
4.63648e-10
1.41656e-07
4.81677e-10
1.41706e-07
4.96204e-10
1.41756e-07
5.0784e-10
1.41805e-07
5.17027e-10
1.41855e-07
5.2409e-10
1.41905e-07
5.29259e-10
1.41954e-07
5.32687e-10
5.34475e-10
1.42004e-07
1.11934e-07
1.91496e-10
1.11964e-07
2.47396e-10
1.12005e-07
2.92192e-10
1.12056e-07
3.2816e-10
1.12112e-07
3.57295e-10
1.12172e-07
3.81078e-10
1.12235e-07
4.00597e-10
1.123e-07
4.1664e-10
1.12366e-07
4.29772e-10
1.12434e-07
4.40409e-10
1.12502e-07
4.4885e-10
1.12571e-07
4.55312e-10
1.1264e-07
4.59956e-10
1.1271e-07
4.62894e-10
4.64204e-10
1.1278e-07
8.77497e-08
1.63889e-10
8.77913e-08
2.05811e-10
8.78432e-08
2.40304e-10
8.79027e-08
2.68686e-10
8.79678e-08
2.92232e-10
8.80369e-08
3.11888e-10
8.81092e-08
3.28341e-10
8.81838e-08
3.42085e-10
8.82601e-08
3.53477e-10
8.83377e-08
3.62782e-10
8.84163e-08
3.70191e-10
8.84958e-08
3.75848e-10
8.85759e-08
3.79862e-10
8.86565e-08
3.8231e-10
3.8325e-10
8.87374e-08
6.81485e-08
1.2792e-10
6.81955e-08
1.58752e-10
6.82511e-08
1.84788e-10
6.8313e-08
2.0672e-10
6.83799e-08
2.25333e-10
6.84506e-08
2.41201e-10
6.85242e-08
2.54725e-10
6.86001e-08
2.66195e-10
6.86778e-08
2.75822e-10
6.87568e-08
2.83765e-10
6.88368e-08
2.90142e-10
6.89176e-08
2.95042e-10
6.8999e-08
2.98535e-10
6.90806e-08
3.00672e-10
3.01497e-10
6.91624e-08
5.24173e-08
9.07734e-11
5.2463e-08
1.1304e-10
5.25155e-08
1.32324e-10
5.25733e-08
1.48938e-10
5.26353e-08
1.63353e-10
5.27006e-08
1.75893e-10
5.27685e-08
1.8677e-10
5.28386e-08
1.96141e-10
5.29103e-08
2.04121e-10
5.29833e-08
2.108e-10
5.30572e-08
2.16242e-10
5.31317e-08
2.20501e-10
5.32066e-08
2.23618e-10
5.32817e-08
2.25626e-10
2.2656e-10
5.33566e-08
3.98921e-08
5.79391e-11
3.99315e-08
7.36849e-11
3.99762e-08
8.76581e-11
4.00251e-08
9.99607e-11
4.00776e-08
1.10872e-10
4.0133e-08
1.20553e-10
4.01906e-08
1.29101e-10
4.02502e-08
1.36592e-10
4.03112e-08
1.43079e-10
4.03734e-08
1.48608e-10
4.04364e-08
1.53208e-10
4.05e-08
1.56909e-10
4.05639e-08
1.59733e-10
4.06279e-08
1.61702e-10
1.62837e-10
4.06916e-08
2.99899e-08
3.23341e-11
3.00204e-08
4.31617e-11
3.00551e-08
5.30087e-11
3.00932e-08
6.18646e-11
3.01341e-08
6.98927e-11
3.01775e-08
7.71562e-11
3.02229e-08
8.36874e-11
3.027e-08
8.95147e-11
3.03184e-08
9.46566e-11
3.03679e-08
9.91296e-11
3.04182e-08
1.02944e-10
3.0469e-08
1.06112e-10
3.05201e-08
1.08645e-10
3.05712e-08
1.10555e-10
1.11855e-10
3.06222e-08
2.22152e-08
1.4599e-11
2.22366e-08
2.17594e-11
2.22612e-08
2.84529e-11
2.22884e-08
3.46015e-11
2.2318e-08
4.02975e-11
2.23496e-08
4.55519e-11
2.23829e-08
5.03644e-11
2.24177e-08
5.47387e-11
2.24537e-08
5.86742e-11
2.24907e-08
6.21721e-11
2.25284e-08
6.52311e-11
2.25666e-08
6.78549e-11
2.26052e-08
7.00449e-11
2.2644e-08
7.18086e-11
7.31535e-11
2.26827e-08
1.61545e-08
3.86512e-12
1.61679e-08
8.3439e-12
1.61837e-08
1.2687e-11
1.62015e-08
1.67623e-11
1.62212e-08
2.06174e-11
1.62425e-08
2.42427e-11
1.62653e-08
2.76246e-11
1.62892e-08
3.07562e-11
1.63143e-08
3.36287e-11
1.63402e-08
3.62361e-11
1.63669e-08
3.8572e-11
1.63941e-08
4.0635e-11
1.64217e-08
4.24219e-11
1.64496e-08
4.39373e-11
4.51844e-11
1.64776e-08
1.14661e-08
-1.46842e-12
1.14733e-08
1.11646e-12
1.14822e-08
3.75808e-12
1.14927e-08
6.30226e-12
1.15046e-08
8.75426e-12
1.15177e-08
1.11036e-11
1.1532e-08
1.33347e-11
1.15473e-08
1.54384e-11
1.15635e-08
1.74046e-11
1.15805e-08
1.92248e-11
1.15982e-08
2.08919e-11
1.16165e-08
2.24026e-11
1.16351e-08
2.37516e-11
1.16541e-08
2.4942e-11
2.59758e-11
1.16733e-08
7.86961e-09
-3.1545e-12
7.87255e-09
-1.82847e-12
7.8767e-09
-3.91146e-13
7.88193e-09
1.07297e-12
7.88818e-09
2.5102e-12
7.89537e-09
3.90708e-12
7.90345e-09
5.25518e-12
7.91234e-09
6.5484e-12
7.92197e-09
7.77902e-12
7.93225e-09
8.93894e-12
7.94312e-09
1.00224e-11
7.9545e-09
1.10263e-11
7.96631e-09
1.19454e-11
7.97847e-09
1.27818e-11
1.35389e-11
7.9909e-09
5.1367e-09
-2.81414e-12
5.13711e-09
-2.24581e-12
5.13828e-09
-1.55641e-12
5.14018e-09
-8.29243e-13
5.14278e-09
-9.11316e-14
5.14605e-09
6.41051e-13
5.14995e-09
1.35463e-12
5.15445e-09
2.05032e-12
5.1595e-09
2.72366e-12
5.16507e-09
3.36842e-12
5.17111e-09
3.98133e-12
5.17758e-09
4.56055e-12
5.18442e-09
5.10171e-12
5.1916e-09
5.60632e-12
6.08027e-12
5.19906e-09
3.0825e-09
-1.65318e-12
3.08175e-09
-1.49439e-12
3.08143e-09
-1.23349e-12
3.08154e-09
-9.42292e-13
3.08209e-09
-6.38624e-13
3.08307e-09
-3.37218e-13
3.08446e-09
-3.88367e-14
3.08625e-09
2.58765e-13
3.08843e-09
5.50499e-13
3.09096e-09
8.33799e-13
3.09384e-09
1.10741e-12
3.09702e-09
1.37091e-12
3.10051e-09
1.62098e-12
3.10425e-09
1.85898e-12
2.09225e-12
3.10824e-09
1.5585e-09
-5.38809e-13
1.55754e-09
-5.4034e-13
1.55679e-09
-4.7829e-13
1.55626e-09
-4.09358e-13
1.55595e-09
-3.36699e-13
1.55588e-09
-2.64465e-13
1.55603e-09
-1.92014e-13
1.55641e-09
-1.17829e-13
1.55701e-09
-4.44317e-14
1.55781e-09
2.81863e-14
1.55882e-09
9.94589e-14
1.56002e-09
1.69807e-13
1.5614e-09
2.36925e-13
1.56296e-09
3.02203e-13
3.71506e-13
1.56468e-09
4.46023e-10
4.45482e-10
4.45004e-10
4.44595e-10
4.44258e-10
4.43993e-10
4.43801e-10
4.43684e-10
4.43639e-10
4.43667e-10
4.43767e-10
4.43937e-10
4.44174e-10
4.44476e-10
4.44847e-10
1.26844e-09
-5.42647e-10
3.36435e-10
1.5616e-09
-4.9784e-10
2.04683e-10
1.85505e-09
-3.91138e-10
9.76807e-11
2.14176e-09
-2.88418e-10
1.71273e-12
2.41934e-09
-1.97087e-10
-8.04925e-11
2.68836e-09
-1.26055e-10
-1.42971e-10
2.95012e-09
-7.72275e-11
-1.84529e-10
3.20573e-09
-5.11031e-11
-2.04511e-10
3.45625e-09
-4.76025e-11
-2.02918e-10
3.70257e-09
-6.56344e-11
-1.8068e-10
3.94538e-09
-1.02941e-10
-1.39871e-10
4.18523e-09
-1.55505e-10
-8.43471e-11
4.42258e-09
-2.16315e-10
-2.10304e-11
4.65798e-09
-2.73506e-10
3.81093e-11
4.89238e-09
-3.0771e-10
7.33091e-11
5.12765e-09
-2.88494e-10
5.32167e-11
5.36722e-09
-1.72117e-10
-6.74523e-11
5.61684e-09
1.03772e-10
-3.53387e-10
5.8854e-09
6.12989e-10
-8.81552e-10
6.18516e-09
1.43384e-09
-1.73359e-09
6.52888e-09
2.62168e-09
-2.9654e-09
6.92643e-09
4.12828e-09
-4.52583e-09
7.31048e-09
4.80599e-09
-5.19004e-09
7.64012e-09
4.62114e-09
-4.95079e-09
7.90638e-09
3.98852e-09
-4.25478e-09
8.10788e-09
3.07781e-09
-3.2793e-09
8.24652e-09
2.02614e-09
-2.16478e-09
8.32472e-09
9.3013e-10
-1.00833e-09
8.34435e-09
-1.41447e-10
1.21819e-10
8.30675e-09
-1.13586e-09
1.17345e-09
8.21339e-09
-2.01008e-09
2.10344e-09
8.06633e-09
-2.72955e-09
2.87661e-09
7.86859e-09
-3.26909e-09
3.46683e-09
7.62401e-09
-3.61397e-09
3.85855e-09
7.3369e-09
-3.75993e-09
4.04704e-09
7.01154e-09
-3.71164e-09
4.037e-09
6.65167e-09
-3.47987e-09
3.83974e-09
6.26038e-09
-3.07768e-09
3.46898e-09
5.84038e-09
-2.5157e-09
2.93569e-09
5.3943e-09
-1.79764e-09
2.24371e-09
4.92339e-09
-9.22331e-10
1.39325e-09
4.42311e-09
9.81328e-11
4.02139e-10
3.88203e-09
1.18138e-09
-6.403e-10
3.31168e-09
2.11944e-09
-1.5491e-09
2.29747e-09
2.98162e-09
-1.96741e-09
2.62861e-09
-6.23453e-10
2.79957e-09
-6.68802e-10
3.03087e-09
-6.22432e-10
3.28805e-09
-5.45601e-10
3.55564e-09
-4.64674e-10
3.82553e-09
-3.95953e-10
4.0943e-09
-3.45994e-10
4.36046e-09
-3.17263e-10
4.62357e-09
-3.1071e-10
4.88362e-09
-3.25691e-10
5.14079e-09
-3.60107e-10
5.39527e-09
-4.0999e-10
5.64733e-09
-4.68368e-10
5.8974e-09
-5.23576e-10
6.14642e-09
-5.56736e-10
6.39637e-09
-5.38441e-10
6.65092e-09
-4.26663e-10
6.91631e-09
-1.61619e-10
7.20226e-09
3.27041e-10
7.5223e-09
1.1138e-09
7.89072e-09
2.25326e-09
8.31934e-09
3.69966e-09
8.73713e-09
4.3882e-09
9.09956e-09
4.25871e-09
9.39587e-09
3.69222e-09
9.62355e-09
2.85013e-09
9.78377e-09
1.86592e-09
9.87851e-09
8.35393e-10
9.90944e-09
-1.72373e-10
9.87799e-09
-1.10441e-09
9.78591e-09
-1.918e-09
9.63585e-09
-2.57949e-09
9.43161e-09
-3.06484e-09
9.1781e-09
-3.36046e-09
8.88103e-09
-3.46286e-09
8.54647e-09
-3.37708e-09
8.18065e-09
-3.11405e-09
7.79014e-09
-2.68717e-09
7.38307e-09
-2.10863e-09
6.97138e-09
-1.38595e-09
6.57353e-09
-5.24481e-10
6.21615e-09
4.55518e-10
5.93611e-09
1.46143e-09
5.79234e-09
2.2632e-09
2.36219e-09
5.72762e-09
4.55606e-09
-6.36634e-10
4.62923e-09
-7.41975e-10
4.77204e-09
-7.65234e-10
4.9686e-09
-7.4216e-10
5.19717e-09
-6.9325e-10
5.44406e-09
-6.42841e-10
5.70071e-09
-6.02646e-10
5.96202e-09
-5.78569e-10
6.22509e-09
-5.73786e-10
6.48831e-09
-5.88903e-10
6.75072e-09
-6.22522e-10
7.01181e-09
-6.71083e-10
7.27136e-09
-7.27909e-10
7.52948e-09
-7.81705e-10
7.78699e-09
-8.14239e-10
8.04582e-09
-7.97277e-10
8.30988e-09
-6.9072e-10
8.58586e-09
-4.37603e-10
8.8843e-09
2.86024e-11
9.22011e-09
7.7799e-10
9.60921e-09
1.86416e-09
1.00656e-08
3.24327e-09
1.05155e-08
3.93832e-09
1.09105e-08
3.86368e-09
1.12377e-08
3.36499e-09
1.14932e-08
2.5947e-09
1.16769e-08
1.68216e-09
1.17903e-08
7.21983e-10
1.18348e-08
-2.16816e-10
1.18117e-08
-1.08137e-09
1.17234e-08
-1.82961e-09
1.15729e-08
-2.42908e-09
1.13653e-08
-2.85724e-09
1.11068e-08
-3.10191e-09
1.08047e-08
-3.16079e-09
1.04675e-08
-3.03984e-09
1.01043e-08
-2.75089e-09
9.72604e-09
-2.30891e-09
9.34691e-09
-1.7295e-09
8.98816e-09
-1.0272e-09
8.68264e-09
-2.18964e-10
8.4763e-09
6.61859e-10
8.41621e-09
1.52152e-09
8.51282e-09
2.16659e-09
2.27008e-09
8.60493e-09
7.17709e-09
-6.12442e-10
7.18348e-09
-7.48362e-10
7.24207e-09
-8.23827e-10
7.35769e-09
-8.57776e-10
7.52218e-09
-8.57745e-10
7.72017e-09
-8.40831e-10
7.94081e-09
-8.23278e-10
8.17613e-09
-8.13897e-10
8.42075e-09
-8.184e-10
8.67096e-09
-8.39114e-10
8.92429e-09
-8.75854e-10
9.1791e-09
-9.25897e-10
9.43437e-09
-9.83177e-10
9.68969e-09
-1.03702e-09
9.94551e-09
-1.07006e-09
1.02037e-08
-1.05543e-09
1.04682e-08
-9.55233e-10
1.07462e-08
-7.15585e-10
1.10489e-08
-2.74176e-10
1.13929e-08
4.34024e-10
1.17957e-08
1.46139e-09
1.22737e-08
2.76526e-09
1.27516e-08
3.46036e-09
1.31773e-08
3.438e-09
1.3535e-08
3.0073e-09
1.38188e-08
2.31092e-09
1.40274e-08
1.47354e-09
1.41613e-08
5.88137e-10
1.42213e-08
-2.76845e-10
1.4209e-08
-1.06909e-09
1.4127e-08
-1.74762e-09
1.39795e-08
-2.28154e-09
1.37724e-08
-2.6502e-09
1.35138e-08
-2.84323e-09
1.32129e-08
-2.85994e-09
1.28809e-08
-2.70777e-09
1.25302e-08
-2.40021e-09
1.2176e-08
-1.95475e-09
1.1838e-08
-1.39153e-09
1.15438e-08
-7.32973e-10
1.13323e-08
-7.40147e-12
1.12512e-08
7.42916e-10
1.13369e-08
1.43587e-09
1.15683e-08
1.93514e-09
2.06803e-09
1.17704e-08
1.06585e-08
-5.71562e-10
1.06219e-08
-7.11812e-10
1.06176e-08
-8.19499e-10
1.06556e-08
-8.95753e-10
1.07396e-08
-9.41733e-10
1.08681e-08
-9.694e-10
1.1029e-08
-9.84121e-10
1.12144e-08
-9.9935e-10
1.14178e-08
-1.02178e-09
1.16338e-08
-1.05509e-09
1.18584e-08
-1.10043e-09
1.20886e-08
-1.15617e-09
1.23226e-08
-1.21714e-09
1.25591e-08
-1.27352e-09
1.27981e-08
-1.30909e-09
1.30412e-08
-1.29853e-09
1.32925e-08
-1.2065e-09
1.35594e-08
-9.82475e-10
1.3854e-08
-5.68791e-10
1.41943e-08
9.37081e-11
1.45997e-08
1.05604e-09
1.50891e-08
2.27584e-09
1.55877e-08
2.9617e-09
1.60394e-08
2.98631e-09
1.6425e-08
2.62176e-09
1.6736e-08
1.99985e-09
1.69696e-08
1.23999e-09
1.71248e-08
4.32932e-10
1.7202e-08
-3.54046e-10
1.72027e-08
-1.06978e-09
1.713e-08
-1.67489e-09
1.6989e-08
-2.14056e-09
1.67872e-08
-2.44841e-09
1.65343e-08
-2.5903e-09
1.62419e-08
-2.56758e-09
1.59238e-08
-2.38963e-09
1.55957e-08
-2.07212e-09
1.52764e-08
-1.63552e-09
1.49892e-08
-1.10431e-09
1.47634e-08
-5.07204e-10
1.46352e-08
1.20815e-10
1.46427e-08
7.35437e-10
1.48048e-08
1.2738e-09
1.5087e-08
1.65288e-09
1.79087e-09
1.53642e-08
1.5198e-08
-5.25913e-10
1.51407e-08
-6.54557e-10
1.5094e-08
-7.72773e-10
1.50722e-08
-8.73945e-10
1.50832e-08
-9.52714e-10
1.51322e-08
-1.01839e-09
1.5217e-08
-1.069e-09
1.53323e-08
-1.11457e-09
1.54718e-08
-1.16128e-09
1.56301e-08
-1.21347e-09
1.58028e-08
-1.27307e-09
1.59859e-08
-1.33931e-09
1.61767e-08
-1.40792e-09
1.63733e-08
-1.4701e-09
1.65751e-08
-1.51094e-09
1.67835e-08
-1.50689e-09
1.70025e-08
-1.42552e-09
1.724e-08
-1.21992e-09
1.75087e-08
-8.37511e-10
1.78284e-08
-2.26019e-10
1.82201e-08
6.6431e-10
1.87056e-08
1.79034e-09
1.92132e-08
2.45418e-09
1.96825e-08
2.51697e-09
2.00902e-08
2.21408e-09
2.0425e-08
1.66508e-09
2.06815e-08
9.83436e-10
2.08574e-08
2.57011e-10
2.09523e-08
-4.48878e-10
2.09674e-08
-1.08493e-09
2.09065e-08
-1.61401e-09
2.07759e-08
-2.00988e-09
2.05843e-08
-2.25688e-09
2.03435e-08
-2.3495e-09
2.00674e-08
-2.29145e-09
1.97721e-08
-2.09433e-09
1.94761e-08
-1.77612e-09
1.92004e-08
-1.35986e-09
1.89692e-08
-8.7305e-10
1.88093e-08
-3.47352e-10
1.87489e-08
1.81231e-10
1.88115e-08
6.72869e-10
1.90015e-08
1.08374e-09
1.92853e-08
1.36911e-09
1.49651e-09
1.95797e-08
2.10316e-08
-4.79897e-10
2.09684e-08
-5.91293e-10
2.09001e-08
-7.04467e-10
2.08384e-08
-8.12261e-10
2.07952e-08
-9.0954e-10
2.0775e-08
-9.98205e-10
2.07829e-08
-1.07691e-09
2.08184e-08
-1.15004e-09
2.08788e-08
-1.22164e-09
2.09604e-08
-1.2951e-09
2.10594e-08
-1.37213e-09
2.11723e-08
-1.45222e-09
2.12961e-08
-1.53168e-09
2.14286e-08
-1.6026e-09
2.15691e-08
-1.65143e-09
2.17187e-08
-1.65647e-09
2.18817e-08
-1.58855e-09
2.20663e-08
-1.4045e-09
2.2286e-08
-1.05728e-09
2.25627e-08
-5.02735e-10
2.2919e-08
3.08093e-10
2.33792e-08
1.33011e-09
2.38783e-08
1.95504e-09
2.43523e-08
2.04304e-09
2.47722e-08
1.79412e-09
2.51235e-08
1.31381e-09
2.5398e-08
7.08889e-10
2.55915e-08
6.35254e-11
2.57025e-08
-5.59822e-10
2.57321e-08
-1.11458e-09
2.56846e-08
-1.56654e-09
2.55674e-08
-1.89264e-09
2.53909e-08
-2.08037e-09
2.51685e-08
-2.12709e-09
2.49161e-08
-2.03908e-09
2.46519e-08
-1.83009e-09
2.43957e-08
-1.51999e-09
2.41692e-08
-1.13336e-09
2.39948e-08
-6.98579e-10
2.38941e-08
-2.46662e-10
2.38854e-08
1.89913e-10
2.39789e-08
5.79391e-10
2.41692e-08
8.93396e-10
2.44281e-08
1.11026e-09
1.22054e-09
2.4704e-08
2.84408e-08
-4.32415e-10
2.83763e-08
-5.26726e-10
2.82996e-08
-6.27782e-10
2.8218e-08
-7.30653e-10
2.81398e-08
-8.31398e-10
2.80705e-08
-9.28848e-10
2.80158e-08
-1.02223e-09
2.79784e-08
-1.1127e-09
2.79591e-08
-1.20229e-09
2.79568e-08
-1.29285e-09
2.79699e-08
-1.38517e-09
2.7996e-08
-1.47835e-09
2.80331e-08
-1.56877e-09
2.80796e-08
-1.64908e-09
2.81352e-08
-1.70699e-09
2.82011e-08
-1.72245e-09
2.82826e-08
-1.66997e-09
2.83881e-08
-1.51005e-09
2.85323e-08
-1.20147e-09
2.87394e-08
-7.09784e-10
2.90332e-08
1.42482e-11
2.9441e-08
9.22295e-10
2.99088e-08
1.48727e-09
3.03688e-08
1.58302e-09
3.07861e-08
1.37684e-09
3.1142e-08
9.5785e-10
3.14255e-08
4.25422e-10
3.16299e-08
-1.40851e-10
3.17525e-08
-6.82424e-10
3.17943e-08
-1.15638e-09
3.176e-08
-1.53224e-09
3.1658e-08
-1.79061e-09
3.15001e-08
-1.92248e-09
3.13012e-08
-1.92827e-09
3.10788e-08
-1.81668e-09
3.0852e-08
-1.60324e-09
3.06408e-08
-1.3088e-09
3.04655e-08
-9.58032e-10
3.03448e-08
-5.77898e-10
3.02942e-08
-1.9607e-10
3.03231e-08
1.60988e-10
3.04325e-08
4.70036e-10
3.06119e-08
7.13951e-10
3.08389e-08
8.83297e-10
9.77947e-10
3.10815e-08
3.77515e-08
-3.79905e-10
3.76841e-08
-4.59265e-10
3.76029e-08
-5.46642e-10
3.75114e-08
-6.39139e-10
3.7414e-08
-7.33998e-10
3.73148e-08
-8.29625e-10
3.72178e-08
-9.25241e-10
3.7126e-08
-1.02091e-09
3.70411e-08
-1.11743e-09
3.69639e-08
-1.2156e-09
3.68941e-08
-1.31539e-09
3.68312e-08
-1.41543e-09
3.67744e-08
-1.51194e-09
3.67232e-08
-1.59795e-09
3.66786e-08
-1.66232e-09
3.66425e-08
-1.68643e-09
3.66214e-08
-1.64882e-09
3.66247e-08
-1.51339e-09
3.66682e-08
-1.24488e-09
3.67788e-08
-8.20464e-10
3.69819e-08
-1.88854e-10
3.7307e-08
5.97202e-10
3.77161e-08
1.0782e-09
3.81387e-08
1.16037e-09
3.85332e-08
9.82424e-10
3.88769e-08
6.14082e-10
3.91555e-08
1.46875e-10
3.93598e-08
-3.45144e-10
3.94858e-08
-8.08449e-10
3.95342e-08
-1.20478e-09
3.95101e-08
-1.50809e-09
3.94226e-08
-1.70319e-09
3.92849e-08
-1.78473e-09
3.91127e-08
-1.75608e-09
3.8924e-08
-1.62802e-09
3.87379e-08
-1.41711e-09
3.85732e-08
-1.14408e-09
3.84472e-08
-8.32078e-10
3.83743e-08
-5.05014e-10
3.8364e-08
-1.85707e-10
3.8419e-08
1.05945e-10
3.85356e-08
3.53503e-10
3.87017e-08
5.47762e-10
3.88999e-08
6.8511e-10
7.68404e-10
3.91095e-08
4.93229e-08
-3.1967e-10
4.92498e-08
-3.86093e-10
4.91634e-08
-4.6023e-10
4.90648e-08
-5.40528e-10
4.89559e-08
-6.25191e-10
4.88391e-08
-7.12827e-10
4.87165e-08
-8.02586e-10
4.85897e-08
-8.94142e-10
4.84599e-08
-9.87608e-10
4.83275e-08
-1.08319e-09
4.81925e-08
-1.1804e-09
4.80548e-08
-1.27772e-09
4.79143e-08
-1.37141e-09
4.77713e-08
-1.45503e-09
4.76278e-08
-1.51881e-09
4.74868e-08
-1.5454e-09
4.7356e-08
-1.51799e-09
4.72461e-08
-1.40353e-09
4.71739e-08
-1.17265e-09
4.71695e-08
-8.16127e-10
4.72595e-08
-2.78822e-10
4.74752e-08
3.8149e-10
4.77986e-08
7.54856e-10
4.8158e-08
8.0096e-10
4.85058e-08
6.34631e-10
4.88164e-08
3.03432e-10
4.90719e-08
-1.08617e-10
4.9261e-08
-5.34188e-10
4.93782e-08
-9.25725e-10
4.9424e-08
-1.2506e-09
4.94038e-08
-1.48786e-09
4.93274e-08
-1.62676e-09
4.92083e-08
-1.66561e-09
4.90626e-08
-1.61043e-09
4.8908e-08
-1.47339e-09
4.8762e-08
-1.27119e-09
4.86413e-08
-1.02328e-09
4.85593e-08
-7.50159e-10
4.85261e-08
-4.7175e-10
4.85462e-08
-2.05832e-10
4.86182e-08
3.39148e-11
4.87367e-08
2.35005e-10
4.88904e-08
3.94127e-10
4.90656e-08
5.09881e-10
5.85608e-10
4.92484e-08
6.35317e-08
-2.51987e-10
6.34525e-08
-3.06904e-10
6.33609e-08
-3.68591e-10
6.32567e-08
-4.36306e-10
6.31405e-08
-5.08958e-10
6.30131e-08
-5.85459e-10
6.28755e-08
-6.64951e-10
6.27282e-08
-7.4686e-10
6.25714e-08
-8.30817e-10
6.24047e-08
-9.16555e-10
6.22275e-08
-1.0032e-09
6.2039e-08
-1.08922e-09
6.18387e-08
-1.17108e-09
6.16267e-08
-1.24305e-09
6.1405e-08
-1.29708e-09
6.11767e-08
-1.31714e-09
6.09504e-08
-1.29168e-09
6.07375e-08
-1.19064e-09
6.05555e-08
-9.90653e-10
6.04361e-08
-6.96661e-10
6.04074e-08
-2.50191e-10
6.05027e-08
2.86206e-10
6.07221e-08
5.35495e-10
6.09954e-08
5.27597e-10
6.12739e-08
3.56206e-10
6.15302e-08
4.71132e-11
6.17431e-08
-3.21485e-10
6.18995e-08
-6.9064e-10
6.19934e-08
-1.0196e-09
6.20248e-08
-1.28205e-09
6.19995e-08
-1.46252e-09
6.19275e-08
-1.55478e-09
6.18224e-08
-1.56048e-09
6.16996e-08
-1.48769e-09
6.15754e-08
-1.34919e-09
6.14651e-08
-1.16089e-09
6.1382e-08
-9.4009e-10
6.13358e-08
-7.04018e-10
6.13325e-08
-4.68447e-10
6.13733e-08
-2.46667e-10
6.1456e-08
-4.86934e-11
6.15724e-08
1.18533e-10
6.17144e-08
2.52119e-10
6.18714e-08
3.5287e-10
4.2347e-10
6.20336e-08
8.07692e-08
-1.80448e-10
8.06872e-08
-2.2493e-10
8.05936e-08
-2.74982e-10
8.04876e-08
-3.30301e-10
8.03689e-08
-3.90263e-10
8.02375e-08
-4.54077e-10
8.00935e-08
-5.2095e-10
7.99368e-08
-5.90172e-10
7.9767e-08
-6.61022e-10
7.95833e-08
-7.3284e-10
7.93845e-08
-8.04335e-10
7.91692e-08
-8.73933e-10
7.89363e-08
-9.38172e-10
7.86853e-08
-9.92065e-10
7.84174e-08
-1.02922e-09
7.81354e-08
-1.03509e-09
7.78471e-08
-1.0034e-09
7.75634e-08
-9.06994e-10
7.73027e-08
-7.29964e-10
7.70934e-08
-4.87343e-10
7.69659e-08
-1.2269e-10
7.69606e-08
2.91567e-10
7.70747e-08
4.21401e-10
7.72487e-08
3.53551e-10
7.7445e-08
1.59924e-10
7.76329e-08
-1.4077e-10
7.77882e-08
-4.76866e-10
7.78975e-08
-7.99895e-10
7.79548e-08
-1.07688e-09
7.79606e-08
-1.28784e-09
7.79208e-08
-1.42277e-09
7.78457e-08
-1.47964e-09
7.77481e-08
-1.46286e-09
7.76421e-08
-1.38171e-09
7.75417e-08
-1.2488e-09
7.74593e-08
-1.0785e-09
7.74047e-08
-8.8551e-10
7.73844e-08
-6.83726e-10
7.74013e-08
-4.85265e-10
7.74545e-08
-2.99904e-10
7.75404e-08
-1.34627e-10
7.76521e-08
6.89261e-12
7.77828e-08
1.21381e-10
7.79246e-08
2.11105e-10
2.77866e-10
7.80702e-08
1.01471e-07
-1.10047e-10
1.01392e-07
-1.45053e-10
1.01301e-07
-1.84362e-10
1.01199e-07
-2.27869e-10
1.01083e-07
-2.75218e-10
1.00955e-07
-3.2584e-10
1.00813e-07
-3.79041e-10
1.00657e-07
-4.34065e-10
1.00486e-07
-4.89992e-10
1.00299e-07
-5.45912e-10
1.00095e-07
-6.00194e-10
9.98724e-08
-6.51252e-10
9.96299e-08
-6.95583e-10
9.93668e-08
-7.29047e-10
9.9084e-08
-7.4635e-10
9.87838e-08
-7.34952e-10
9.84733e-08
-6.92868e-10
9.81615e-08
-5.95187e-10
9.78686e-08
-4.37095e-10
9.7615e-08
-2.33702e-10
9.74287e-08
6.35517e-11
9.7367e-08
3.53306e-10
9.74034e-08
3.84991e-10
9.74873e-08
2.697e-10
9.76029e-08
4.42774e-11
9.77247e-08
-2.62571e-10
9.78194e-08
-5.71602e-10
9.78762e-08
-8.56604e-10
9.78909e-08
-1.09159e-09
9.78652e-08
-1.26219e-09
9.78057e-08
-1.36328e-09
9.77224e-08
-1.39626e-09
9.76269e-08
-1.36744e-09
9.75317e-08
-1.28647e-09
9.7448e-08
-1.16506e-09
9.73851e-08
-1.01562e-09
9.73498e-08
-8.50187e-10
9.73457e-08
-6.79654e-10
9.73736e-08
-5.13187e-10
9.74316e-08
-3.57891e-10
9.75156e-08
-2.18681e-10
9.76209e-08
-9.83694e-11
9.77401e-08
2.14626e-12
9.78682e-08
8.30453e-11
1.46405e-10
9.79997e-08