/*--------------------------------*- C++ -*----------------------------------*\
| =========                 |                                                 |
| \\      /  F ield         | OpenFOAM: The Open Source CFD Toolbox           |
|  \\    /   O peration     | Version:  2312                                  |
|   \\  /    A nd           | Website:  www.openfoam.com                      |
|    \\/     M anipulation  |                                                 |
\*---------------------------------------------------------------------------*/
FoamFile
{
    version     2.0;
    format      ascii;
    arch        "LSB;label=32;scalar=64";
    class       volVectorField;
    location    "2";
    object      U;
}
// * * * * * * * * * * * * * * * * * * * * * * * * * * * * * * * * * * * * * //

dimensions      [0 1 -1 0 0 0 0];

internalField   nonuniform List<vector> 
4800
(
(0.000145231 7.39978e-08 -8.28709e-27)
(0.00014358 7.56662e-08 -5.90895e-26)
(0.000142864 7.38995e-08 7.55762e-26)
(0.000142776 7.03514e-08 3.54634e-26)
(0.000143153 6.36238e-08 5.31809e-25)
(0.000143862 5.01575e-08 -1.27233e-24)
(0.00014488 2.2644e-08 1.19875e-24)
(0.000146207 -2.00468e-08 -1.75028e-24)
(0.000147869 -8.55275e-08 5.57512e-25)
(0.000149967 -2.00939e-07 1.91648e-24)
(0.000152814 -4.57732e-07 -5.89643e-25)
(0.000157274 -1.19213e-06 -5.31717e-26)
(0.00016687 -3.7249e-06 -7.02094e-25)
(0.000190677 -1.35068e-05 3.33278e-25)
(0.000232685 -4.55934e-05 -2.66139e-25)
(0.000450385 3.91834e-07 -3.00565e-26)
(0.000445152 2.30996e-07 3.746e-26)
(0.000442766 9.54848e-08 -3.54369e-25)
(0.000442291 -3.04219e-08 2.62014e-25)
(0.000443207 -1.60185e-07 8.6518e-25)
(0.000445125 -3.03974e-07 -1.39086e-24)
(0.000447986 -4.9848e-07 -4.07745e-25)
(0.000451759 -7.61411e-07 -1.04061e-25)
(0.000456557 -1.1456e-06 3.28428e-24)
(0.000462735 -1.80465e-06 -2.41526e-24)
(0.00047124 -3.17802e-06 2.60431e-25)
(0.000484142 -6.53868e-06 3.94241e-25)
(0.00050648 -1.55782e-05 -5.81034e-25)
(0.000544665 -4.09086e-05 -2.00466e-25)
(0.000589731 -9.81043e-05 7.614e-25)
(0.000789454 1.28632e-06 -2.28022e-26)
(0.000780136 7.57662e-07 2.32278e-26)
(0.000775723 3.22751e-07 2.45764e-25)
(0.000774593 -8.42134e-08 -5.86699e-25)
(0.000775837 -5.04158e-07 5.79824e-25)
(0.000778776 -9.67417e-07 5.6032e-25)
(0.000783337 -1.57096e-06 -1.44716e-24)
(0.000789403 -2.37844e-06 -9.06297e-25)
(0.00079716 -3.56342e-06 2.14532e-24)
(0.000807131 -5.56142e-06 8.12333e-25)
(0.000820528 -9.44096e-06 -2.78524e-24)
(0.000839409 -1.76524e-05 -4.32495e-25)
(0.000866807 -3.51099e-05 1.14599e-24)
(0.000902732 -7.03326e-05 1.85269e-24)
(0.000934561 -0.000127014 -9.53674e-25)
(0.00116521 2.94459e-06 8.94649e-27)
(0.00115126 1.77617e-06 -6.29529e-26)
(0.00114441 8.20235e-07 2.84349e-25)
(0.00114227 -6.96728e-08 3.09912e-25)
(0.00114355 -9.71271e-07 -2.97869e-25)
(0.00114722 -1.97836e-06 -1.79244e-24)
(0.0011532 -3.26801e-06 -1.24964e-24)
(0.00116122 -4.97061e-06 4.60374e-24)
(0.00117146 -7.43674e-06 1.9228e-24)
(0.00118441 -1.14345e-05 -2.70127e-24)
(0.00120103 -1.85929e-05 -1.08012e-24)
(0.00122239 -3.19343e-05 -8.21956e-25)
(0.00124878 -5.57617e-05 1.46562e-26)
(0.00127651 -9.39818e-05 5.89326e-25)
(0.00129567 -0.00014286 2.8912e-27)
(0.00158024 5.60064e-06 -1.74255e-26)
(0.00156111 3.44762e-06 -1.08458e-25)
(0.00155135 1.69565e-06 -7.17623e-26)
(0.00154778 6.8396e-08 1.83763e-25)
(0.00154873 -1.53367e-06 -5.34249e-25)
(0.00155271 -3.33391e-06 1.34705e-24)
(0.00155968 -5.60632e-06 -2.33403e-25)
(0.0015691 -8.53765e-06 8.50276e-25)
(0.00158106 -1.26706e-05 -4.66548e-24)
(0.00159579 -1.902e-05 8.78935e-24)
(0.00161363 -2.94287e-05 -8.3938e-24)
(0.0016344 -4.66427e-05 4.37775e-24)
(0.00165647 -7.33378e-05 -4.0175e-24)
(0.00167547 -0.000109854 3.72963e-24)
(0.00168559 -0.000150467 -1.46896e-24)
(0.00203669 9.57154e-06 2.43982e-26)
(0.0020119 6.0115e-06 8.93392e-26)
(0.00199876 3.13256e-06 -4.72686e-25)
(0.00199327 4.97649e-07 -3.09028e-25)
(0.00199343 -2.12936e-06 8.04967e-25)
(0.00199723 -4.95139e-06 2.93634e-25)
(0.0020046 -8.49855e-06 -2.31657e-24)
(0.00201468 -1.29437e-05 5.50699e-24)
(0.00202737 -1.89794e-05 -7.11967e-24)
(0.0020425 -2.76921e-05 1.66203e-24)
(0.0020597 -4.07465e-05 5.09059e-24)
(0.00207785 -6.00806e-05 -6.97198e-24)
(0.0020946 -8.67356e-05 3.38702e-24)
(0.00210649 -0.000119243 3.46302e-24)
(0.00211089 -0.000152536 -2.57595e-24)
(0.00253591 1.52342e-05 2.13277e-26)
(0.00250516 9.76966e-06 -1.27985e-25)
(0.00248824 5.37764e-06 4.64531e-25)
(0.00248039 1.38804e-06 -6.47797e-25)
(0.00247913 -2.52178e-06 -2.22684e-24)
(0.00248228 -6.67423e-06 3.76731e-24)
(0.0024893 -1.17321e-05 -2.31272e-24)
(0.00249918 -1.78881e-05 7.87021e-24)
(0.0025115 -2.5876e-05 -5.25265e-24)
(0.00252568 -3.66655e-05 -2.44165e-24)
(0.00254083 -5.14738e-05 -4.78837e-24)
(0.0025554 -7.13195e-05 4.2518e-24)
(0.0025672 -9.61161e-05 1.1728e-24)
(0.00257401 -0.000123915 9.94005e-25)
(0.00257505 -0.00015106 -8.51302e-25)
(0.00307788 2.2986e-05 -3.24077e-26)
(0.00304127 1.50641e-05 4.48257e-25)
(0.00302036 8.72888e-06 -1.05126e-24)
(0.00300978 3.03299e-06 -8.85265e-25)
(0.00300657 -2.45145e-06 3.06691e-25)
(0.00300848 -8.25087e-06 6.29644e-25)
(0.00301439 -1.49638e-05 2.31892e-24)
(0.00302316 -2.29059e-05 -6.31374e-24)
(0.00303407 -3.27109e-05 -3.41184e-24)
(0.00304622 -4.50963e-05 8.99003e-24)
(0.00305844 -6.07482e-05 -2.79161e-24)
(0.00306923 -7.99424e-05 9.25806e-24)
(0.00307693 -0.000102041 -4.71656e-24)
(0.00308035 -0.00012532 -1.47599e-24)
(0.00307955 -0.000147432 8.52578e-25)
(0.00366044 3.31684e-05 -4.5102e-27)
(0.00361873 2.2231e-05 2.61135e-25)
(0.00359403 1.35092e-05 -3.71558e-25)
(0.00358061 5.75941e-06 9.09137e-25)
(0.0035751 -1.62694e-06 -5.44315e-24)
(0.00357517 -9.24311e-06 5.70653e-24)
(0.0035793 -1.77261e-05 -9.0691e-24)
(0.0035862 -2.74031e-05 5.44036e-24)
(0.00359486 -3.87498e-05 4.0354e-24)
(0.00360423 -5.21863e-05 8.74328e-24)
(0.00361314 -6.79434e-05 -1.11143e-23)
(0.00362037 -8.58413e-05 -2.05724e-24)
(0.00362485 -0.000105112 8.57823e-25)
(0.003626 -0.000124482 6.27638e-24)
(0.00362422 -0.000142563 -2.49294e-24)
(0.00427838 4.59188e-05 2.60059e-26)
(0.00423338 3.14986e-05 -1.14328e-25)
(0.00420574 1.9996e-05 5.18274e-25)
(0.00418978 9.88459e-06 -1.82988e-24)
(0.00418195 3.59354e-07 2.77544e-24)
(0.00417985 -9.22348e-06 -3.59462e-24)
(0.00418173 -1.94821e-05 5.9993e-24)
(0.00418619 -3.0731e-05 1.09503e-24)
(0.00419209 -4.327e-05 -8.0956e-24)
(0.00419836 -5.72599e-05 1.14084e-23)
(0.00420398 -7.26337e-05 -1.22596e-23)
(0.00420807 -8.90203e-05 -3.5864e-24)
(0.00421 -0.000105746 6.01439e-24)
(0.00420955 -0.000121972 1.73912e-24)
(0.00420716 -0.000136924 -7.41388e-25)
(0.00492261 6.09337e-05 1.09337e-25)
(0.0048774 4.2808e-05 -9.32318e-25)
(0.0048486 2.82813e-05 -1.53059e-24)
(0.00483106 1.5609e-05 3.57711e-24)
(0.00482139 3.8201e-06 1.633e-24)
(0.00481721 -7.76759e-06 -1.01478e-23)
(0.00481677 -1.97143e-05 3.0267e-24)
(0.00481864 -3.22976e-05 2.16488e-24)
(0.00482168 -4.56727e-05 -9.57129e-24)
(0.00482492 -5.98295e-05 9.59494e-24)
(0.00482756 -7.45667e-05 -7.69772e-24)
(0.004829 -8.95028e-05 1.89851e-23)
(0.00482892 -0.00010414 -8.8766e-24)
(0.00482724 -0.000117972 5.05387e-24)
(0.00482438 -0.000130593 -1.34803e-24)
(0.00557999 7.7179e-05 -4.31271e-26)
(0.00553889 5.55619e-05 6.55418e-25)
(0.00551168 3.80559e-05 -1.28598e-24)
(0.00549433 2.28306e-05 -6.72041e-25)
(0.00548392 8.82375e-06 7.4e-24)
(0.00547835 -4.65592e-06 -9.9597e-25)
(0.00547603 -1.80976e-05 -1.30333e-23)
(0.00547564 -3.17308e-05 1.5062e-23)
(0.00547619 -4.56201e-05 -3.26787e-24)
(0.00547686 -5.96813e-05 -1.13496e-23)
(0.00547708 -7.37008e-05 1.18358e-23)
(0.00547647 -8.73798e-05 6.29829e-24)
(0.00547487 -0.000100399 -4.99726e-24)
(0.00547225 -0.000112481 -8.4968e-24)
(0.00546899 -0.000123435 6.98393e-25)
(0.00623493 9.27208e-05 -1.05411e-27)
(0.00620262 6.84055e-05 -7.52102e-25)
(0.00618034 4.83809e-05 3.61346e-24)
(0.00616552 3.09184e-05 2.75909e-25)
(0.00615608 1.49767e-05 2.13607e-24)
(0.00615038 -1.00335e-07 -7.36946e-24)
(0.00614715 -1.47224e-05 6.31868e-24)
(0.00614536 -2.90796e-05 1.49172e-24)
(0.00614421 -4.31993e-05 1.27741e-23)
(0.00614313 -5.6996e-05 -1.90307e-23)
(0.00614172 -7.03107e-05 -8.47946e-24)
(0.00613976 -8.29552e-05 -5.51842e-24)
(0.00613718 -9.4757e-05 9.95417e-24)
(0.00613396 -0.000105592 -2.83683e-25)
(0.00613045 -0.000115386 9.18919e-25)
(0.00687299 0.000105032 -1.16168e-26)
(0.00685276 7.93026e-05 7.79462e-25)
(0.0068382 5.7642e-05 -1.13295e-24)
(0.00682818 3.86012e-05 -4.55753e-27)
(0.00682152 2.1275e-05 1.54173e-24)
(0.0068172 5.09566e-06 3.94514e-24)
(0.00681437 -1.02685e-05 -1.50716e-23)
(0.00681234 -2.49773e-05 1.16218e-24)
(0.0068106 -3.90578e-05 7.41234e-24)
(0.00680878 -5.24618e-05 -3.4108e-24)
(0.00680666 -6.51055e-05 9.00657e-24)
(0.00680414 -7.69015e-05 6.2012e-24)
(0.00680122 -8.77838e-05 -1.08559e-23)
(0.00679786 -9.7723e-05 7.2465e-24)
(0.00679439 -0.000106713 -5.89278e-24)
(0.00748508 0.00011208 -3.64292e-25)
(0.00747692 8.62622e-05 2.08535e-25)
(0.00747083 6.4026e-05 1.37137e-24)
(0.00746663 4.42723e-05 -7.2308e-24)
(0.00746385 2.62954e-05 6.31549e-24)
(0.007462 9.64779e-06 -4.68501e-24)
(0.00746064 -5.93425e-06 3.27248e-24)
(0.00745943 -2.05871e-05 -2.34419e-23)
(0.00745811 -3.43548e-05 3.30666e-23)
(0.00745651 -4.72363e-05 -1.92352e-23)
(0.00745456 -5.92151e-05 1.6759e-23)
(0.00745222 -7.02787e-05 1.37899e-23)
(0.00744956 -8.04294e-05 -2.33864e-23)
(0.00744653 -8.96932e-05 7.40951e-24)
(0.00744345 -9.8099e-05 -3.06337e-25)
(0.00806706 0.000113669 -1.34439e-26)
(0.00806751 8.85897e-05 -3.85055e-26)
(0.00806796 6.65982e-05 5.11472e-27)
(0.00806858 4.68933e-05 -2.03592e-25)
(0.00806928 2.89518e-05 2.63371e-24)
(0.00806989 1.24335e-05 -4.49994e-24)
(0.00807026 -2.87378e-06 4.17281e-24)
(0.00807026 -1.7099e-05 -1.31348e-23)
(0.00806985 -3.03081e-05 2.94432e-23)
(0.00806898 -4.25422e-05 -3.70628e-23)
(0.00806767 -5.38345e-05 2.9785e-23)
(0.00806596 -6.42205e-05 -9.8308e-24)
(0.00806392 -7.37413e-05 5.0977e-25)
(0.00806152 -8.24508e-05 2.17876e-24)
(0.00805906 -9.03948e-05 -4.09045e-24)
(0.00861064 0.000111511 -1.14983e-24)
(0.00861519 8.74485e-05 2.16359e-24)
(0.0086189 6.61023e-05 -8.38797e-25)
(0.00862203 4.68885e-05 -9.73898e-25)
(0.0086246 2.94127e-05 4.12141e-24)
(0.00862661 1.34052e-05 -4.18482e-24)
(0.008628 -1.31569e-06 -3.83436e-24)
(0.00862881 -1.48894e-05 -9.21961e-24)
(0.00862906 -2.74022e-05 4.48974e-24)
(0.00862879 -3.89285e-05 2.16523e-23)
(0.00862806 -4.95353e-05 -1.12227e-23)
(0.00862691 -5.92867e-05 6.61594e-24)
(0.00862545 -6.82437e-05 -2.64245e-24)
(0.00862363 -7.64721e-05 -7.76165e-24)
(0.00862174 -8.40241e-05 3.92181e-24)
(0.0090903 0.000107473 3.88089e-25)
(0.00909618 8.46472e-05 -6.82008e-25)
(0.00910081 6.42056e-05 -3.58436e-25)
(0.00910453 4.57486e-05 -8.99899e-26)
(0.00910746 2.89755e-05 -1.3509e-24)
(0.00910969 1.36645e-05 6.28578e-24)
(0.00911121 -3.63329e-07 -5.08138e-24)
(0.00911212 -1.32267e-05 -3.33385e-24)
(0.0091125 -2.50404e-05 2.97123e-24)
(0.0091124 -3.59044e-05 -3.53312e-24)
(0.00911188 -4.59023e-05 8.0565e-24)
(0.00911098 -5.51104e-05 4.06467e-24)
(0.0091098 -6.35971e-05 -1.48554e-23)
(0.00910831 -7.14311e-05 1.01006e-23)
(0.00910671 -7.86648e-05 -2.04116e-24)
(0.00945685 0.000102062 1.17428e-24)
(0.00946342 8.09206e-05 2.05886e-24)
(0.00946837 6.1791e-05 -4.49862e-24)
(0.00947214 4.44369e-05 -4.30181e-25)
(0.00947496 2.86415e-05 1.30445e-24)
(0.00947698 1.42224e-05 -1.8295e-24)
(0.00947829 1.01336e-06 -3.18491e-24)
(0.00947904 -1.11039e-05 6.50007e-24)
(0.00947929 -2.22526e-05 7.47118e-24)
(0.00947909 -3.25308e-05 -1.79025e-23)
(0.00947853 -4.20206e-05 1.02182e-23)
(0.00947763 -5.07971e-05 -7.07331e-25)
(0.00947646 -5.89259e-05 -5.87725e-25)
(0.00947502 -6.64702e-05 7.83342e-25)
(0.00947344 -7.34764e-05 -3.58759e-25)
(0.00963932 9.41172e-05 -3.1382e-24)
(0.00964696 7.5264e-05 -6.84219e-24)
(0.00965266 5.80029e-05 3.49918e-24)
(0.00965691 4.22254e-05 1.24395e-23)
(0.00966006 2.77959e-05 -3.46592e-24)
(0.00966225 1.45743e-05 -1.09798e-24)
(0.00966369 2.43314e-06 5.47346e-25)
(0.00966441 -8.75668e-06 -2.71214e-24)
(0.00966453 -1.90927e-05 7.61485e-24)
(0.00966414 -2.86606e-05 -3.36741e-24)
(0.00966334 -3.75367e-05 2.16261e-24)
(0.00966218 -4.57906e-05 -3.31518e-24)
(0.00966072 -5.34797e-05 -3.83772e-24)
(0.00965898 -6.06587e-05 5.70554e-24)
(0.00965705 -6.73652e-05 -2.48497e-24)
(0.00956021 8.45331e-05 5.02793e-24)
(0.00956872 6.81335e-05 -1.15e-23)
(0.00957513 5.29505e-05 1.85097e-24)
(0.00957992 3.89555e-05 1.64713e-23)
(0.00958347 2.60677e-05 -1.58531e-23)
(0.00958597 1.41881e-05 5.49549e-24)
(0.00958763 3.22137e-06 3.63069e-24)
(0.00958856 -6.9183e-06 -8.11318e-24)
(0.00958887 -1.63147e-05 1.69139e-24)
(0.00958865 -2.50485e-05 1.0726e-24)
(0.00958798 -3.31902e-05 -6.30552e-25)
(0.00958693 -4.08002e-05 1.43506e-24)
(0.00958554 -4.7927e-05 -1.76919e-24)
(0.00958385 -5.46145e-05 1.20865e-24)
(0.00958187 -6.08928e-05 -5.60671e-25)
(0.00923146 7.37306e-05 3.12586e-24)
(0.00924021 5.98514e-05 -6.54694e-24)
(0.00924677 4.68761e-05 -4.46629e-24)
(0.00925162 3.48117e-05 2.07916e-23)
(0.00925513 2.36088e-05 -1.8879e-23)
(0.00925753 1.31978e-05 2.00455e-24)
(0.00925903 3.51082e-06 3.08262e-24)
(0.0092598 -5.51801e-06 1.62821e-24)
(0.00925995 -1.39541e-05 1.23687e-24)
(0.00925957 -2.18561e-05 -5.54011e-24)
(0.00925872 -2.92736e-05 3.534e-24)
(0.00925746 -3.6249e-05 5.39761e-25)
(0.00925582 -4.28163e-05 -1.28835e-24)
(0.00925388 -4.9006e-05 6.98894e-25)
(0.0092516 -5.48391e-05 4.36691e-25)
(0.00872507 6.32542e-05 7.73887e-24)
(0.00873459 5.16189e-05 -1.36299e-23)
(0.008742 4.06514e-05 2.76633e-24)
(0.0087477 3.03677e-05 -6.42747e-24)
(0.00875201 2.07364e-05 -8.15491e-24)
(0.00875516 1.171e-05 2.75444e-23)
(0.00875732 3.23965e-06 -1.04853e-23)
(0.00875864 -4.72918e-06 2.86982e-24)
(0.00875924 -1.22379e-05 -1.54501e-24)
(0.0087592 -1.93194e-05 -3.45298e-24)
(0.0087586 -2.60031e-05 6.17329e-24)
(0.00875751 -3.23159e-05 -2.91734e-24)
(0.00875596 -3.82806e-05 4.73139e-25)
(0.00875403 -4.39171e-05 8.06349e-26)
(0.00875167 -4.92392e-05 2.78757e-26)
(0.00811786 5.33203e-05 2.95339e-24)
(0.00812773 4.35457e-05 -1.51043e-23)
(0.00813559 3.42609e-05 2.59088e-23)
(0.00814177 2.54857e-05 -1.95338e-23)
(0.00814654 1.72032e-05 1.91657e-23)
(0.0081501 9.38527e-06 -6.36621e-24)
(0.00815264 2.00068e-06 -4.31389e-24)
(0.00815429 -4.98079e-06 -4.55349e-24)
(0.00815516 -1.1587e-05 7.66196e-24)
(0.00815533 -1.78409e-05 -5.44517e-25)
(0.00815487 -2.37629e-05 -6.88195e-24)
(0.00815385 -2.93706e-05 -6.67427e-25)
(0.0081523 -3.46793e-05 1.21433e-24)
(0.0081503 -3.97013e-05 -1.80565e-25)
(0.0081478 -4.44451e-05 1.90546e-26)
(0.00745614 4.38916e-05 3.88233e-25)
(0.00746615 3.57145e-05 -5.60826e-24)
(0.00747423 2.79004e-05 -3.05803e-24)
(0.00748066 2.04688e-05 2.49837e-23)
(0.00748566 1.34134e-05 -2.42705e-23)
(0.00748944 6.71945e-06 7.01431e-24)
(0.00749216 3.70749e-07 1.15911e-24)
(0.00749393 -5.6541e-06 -5.93737e-25)
(0.00749487 -1.13731e-05 -2.68422e-24)
(0.00749506 -1.68014e-05 1.13418e-23)
(0.00749455 -2.19526e-05 -8.89459e-24)
(0.00749342 -2.68373e-05 -3.10203e-25)
(0.00749169 -3.14646e-05 6.77386e-25)
(0.00748944 -3.58412e-05 3.64066e-25)
(0.00748663 -3.99711e-05 -2.57632e-25)
(0.00677278 3.51815e-05 5.68721e-25)
(0.00678267 2.84055e-05 5.12348e-24)
(0.00679069 2.19038e-05 -5.84937e-24)
(0.0067971 1.56907e-05 -3.96663e-24)
(0.00680208 9.76561e-06 2.49041e-23)
(0.00680582 4.12263e-06 -1.89425e-23)
(0.00680847 -1.24707e-06 -4.53594e-25)
(0.00681014 -6.35764e-06 -3.76192e-24)
(0.00681093 -1.12195e-05 -2.59823e-25)
(0.00681091 -1.58417e-05 5.53675e-25)
(0.00681014 -2.02319e-05 -1.74695e-24)
(0.00680869 -2.43958e-05 1.55689e-24)
(0.00680659 -2.83377e-05 5.70016e-25)
(0.0068039 -3.20605e-05 4.59276e-25)
(0.00680061 -3.55656e-05 3.32822e-25)
(0.00609046 2.74025e-05 3.9746e-24)
(0.00609987 2.18673e-05 -6.0501e-24)
(0.00610752 1.65407e-05 -4.76061e-24)
(0.00611359 1.14308e-05 1.4428e-23)
(0.00611826 6.54054e-06 -5.14469e-24)
(0.0061217 1.87001e-06 -7.06327e-24)
(0.00612403 -2.58673e-06 2.47454e-24)
(0.00612535 -6.8348e-06 5.33986e-24)
(0.00612576 -1.08806e-05 -8.31899e-24)
(0.00612533 -1.47292e-05 8.07083e-24)
(0.00612411 -1.83842e-05 -4.17732e-24)
(0.00612216 -2.18477e-05 1.70125e-24)
(0.00611952 -2.51213e-05 -1.9793e-24)
(0.00611626 -2.82053e-05 1.83142e-24)
(0.00611235 -3.10995e-05 -3.80971e-25)
(0.00542425 2.07218e-05 -7.53402e-25)
(0.00543288 1.62819e-05 -2.57962e-24)
(0.00543984 1.19992e-05 -8.11438e-24)
(0.0054453 7.87732e-06 2.25407e-23)
(0.0054494 3.92211e-06 -4.06621e-24)
(0.0054523 1.37766e-07 -6.22652e-24)
(0.00545409 -3.48033e-06 2.09059e-24)
(0.00545489 -6.9323e-06 -3.03299e-24)
(0.00545476 -1.02209e-05 -6.32366e-24)
(0.00545377 -1.33483e-05 6.09002e-24)
(0.00545198 -1.63158e-05 2.8966e-25)
(0.00544944 -1.91233e-05 -1.72461e-24)
(0.00544619 -2.17707e-05 1.97286e-24)
(0.0054423 -2.42567e-05 9.07161e-26)
(0.00543775 -2.65806e-05 -1.19655e-25)
(0.00478399 1.5216e-05 2.81934e-24)
(0.00479159 1.17294e-05 4.08246e-24)
(0.00479766 8.35882e-06 -3.83489e-24)
(0.0048023 5.10548e-06 -8.19219e-24)
(0.00480567 1.97789e-06 1.08963e-23)
(0.00480788 -1.01953e-06 -1.17882e-23)
(0.00480903 -3.88725e-06 -3.84878e-25)
(0.00480921 -6.62452e-06 4.49127e-24)
(0.00480847 -9.23195e-06 1.53341e-24)
(0.00480689 -1.17097e-05 -3.03543e-24)
(0.00480451 -1.40575e-05 9.78532e-26)
(0.00480139 -1.6274e-05 5.87832e-24)
(0.00479756 -1.83583e-05 -2.23105e-24)
(0.00479308 -2.03083e-05 -5.1855e-25)
(0.00478797 -2.21229e-05 -2.79888e-26)
(0.00417596 1.08549e-05 -2.83479e-24)
(0.00418241 8.18062e-06 3.63192e-24)
(0.00418747 5.58924e-06 3.97008e-25)
(0.00419123 3.08164e-06 7.14686e-24)
(0.00419381 6.68242e-07 -5.8393e-24)
(0.00419529 -1.64877e-06 4.28852e-25)
(0.00419578 -3.86515e-06 -6.38005e-25)
(0.00419534 -5.98099e-06 -1.77476e-24)
(0.00419403 -7.99565e-06 1.48088e-24)
(0.00419191 -9.90807e-06 -4.76528e-24)
(0.00418902 -1.17171e-05 3.89038e-25)
(0.00418542 -1.34209e-05 1.13048e-24)
(0.00418113 -1.50181e-05 6.71883e-25)
(0.00417622 -1.65061e-05 2.46948e-25)
(0.00417071 -1.78843e-05 7.56512e-26)
(0.00360401 7.52378e-06 2.0226e-24)
(0.0036093 5.52463e-06 -1.59893e-24)
(0.00361337 3.58233e-06 -6.90414e-24)
(0.00361626 1.69878e-06 6.46374e-24)
(0.00361807 -1.15368e-07 8.86611e-24)
(0.00361889 -1.85898e-06 -2.30618e-24)
(0.00361879 -3.52704e-06 -4.54724e-24)
(0.00361782 -5.11916e-06 -6.21649e-24)
(0.00361604 -6.63409e-06 4.65223e-24)
(0.00361351 -8.07034e-06 2.50899e-25)
(0.00361026 -9.4264e-06 -1.00355e-24)
(0.00360634 -1.07004e-05 -2.48677e-25)
(0.00360178 -1.18906e-05 5.1638e-25)
(0.00359665 -1.29945e-05 -2.72434e-26)
(0.00359095 -1.4012e-05 -8.4513e-26)
(0.00307028 5.0614e-06 -1.22005e-24)
(0.0030745 3.60875e-06 -8.53527e-25)
(0.00307764 2.19338e-06 1.05484e-24)
(0.00307975 8.186e-07 -3.2602e-24)
(0.0030809 -5.06208e-07 1.06574e-23)
(0.00308116 -1.78031e-06 -1.39929e-23)
(0.00308059 -2.99935e-06 1.35937e-23)
(0.00307924 -4.16261e-06 -5.71946e-24)
(0.00307715 -5.26856e-06 1.26142e-24)
(0.00307437 -6.3157e-06 -1.02886e-26)
(0.00307094 -7.30248e-06 -9.77458e-25)
(0.0030669 -8.22716e-06 2.87749e-25)
(0.00306228 -9.08802e-06 -6.9073e-25)
(0.00305714 -9.8827e-06 -8.05534e-26)
(0.00305149 -1.06116e-05 3.81924e-26)
(0.00257564 3.29484e-06 -5.65442e-25)
(0.0025789 2.27282e-06 1.47443e-25)
(0.00258125 1.27438e-06 3.1281e-25)
(0.0025827 3.03837e-07 -1.42434e-24)
(0.00258332 -6.31422e-07 -6.24317e-25)
(0.00258316 -1.53212e-06 5.47902e-24)
(0.00258227 -2.39353e-06 -3.20751e-24)
(0.00258068 -3.21529e-06 4.4747e-25)
(0.00257844 -3.99591e-06 -4.35466e-25)
(0.0025756 -4.73406e-06 -4.53301e-25)
(0.00257217 -5.42836e-06 -1.17749e-25)
(0.0025682 -6.07728e-06 8.18597e-25)
(0.00256373 -6.67931e-06 1.68444e-25)
(0.00255879 -7.23238e-06 -4.52803e-25)
(0.00255341 -7.73723e-06 -6.08946e-26)
(0.00211993 2.06307e-06 -1.95259e-25)
(0.00212239 1.37122e-06 -6.28482e-26)
(0.00212407 6.94161e-07 -3.09677e-24)
(0.002125 3.63511e-08 8.38354e-25)
(0.00212523 -5.97437e-07 -2.17009e-24)
(0.00212479 -1.20921e-06 1.56206e-24)
(0.00212372 -1.79365e-06 2.87759e-24)
(0.00212206 -2.35106e-06 2.10822e-24)
(0.00211983 -2.88016e-06 -2.92835e-24)
(0.00211708 -3.37988e-06 8.81112e-25)
(0.00211383 -3.84905e-06 7.17772e-25)
(0.00211011 -4.28648e-06 -9.88904e-25)
(0.00210596 -4.6909e-06 5.24349e-25)
(0.00210141 -5.06059e-06 -2.2339e-26)
(0.00209648 -5.39638e-06 1.0858e-25)
(0.00170225 1.22906e-06 -7.23609e-25)
(0.00170404 7.83084e-07 -9.79597e-25)
(0.00170521 3.46882e-07 -1.65658e-25)
(0.00170575 -7.62992e-08 2.42401e-24)
(0.00170572 -4.83731e-07 -1.69492e-24)
(0.00170512 -8.78348e-07 -3.14105e-25)
(0.00170401 -1.25473e-06 2.68199e-24)
(0.0017024 -1.6137e-06 -8.12039e-27)
(0.00170032 -1.95423e-06 -5.4275e-25)
(0.0016978 -2.27552e-06 -1.88971e-24)
(0.00169486 -2.57667e-06 2.38749e-25)
(0.00169154 -2.85679e-06 1.24253e-24)
(0.00168785 -3.11492e-06 -1.5802e-25)
(0.00168384 -3.3497e-06 -1.42585e-25)
(0.00167951 -3.56182e-06 9.02638e-26)
(0.00132113 6.82857e-07 -1.49282e-25)
(0.00132239 4.13744e-07 9.75012e-27)
(0.00132316 1.52041e-07 1.10184e-24)
(0.00132343 -1.02037e-07 7.21796e-25)
(0.00132324 -3.44552e-07 -5.12141e-25)
(0.00132261 -5.81979e-07 -1.23423e-24)
(0.00132156 -8.07676e-07 4.89833e-25)
(0.00132012 -1.02295e-06 -2.03408e-24)
(0.00131829 -1.22707e-06 1.56209e-24)
(0.00131611 -1.41948e-06 7.71101e-25)
(0.0013136 -1.59954e-06 -2.59045e-26)
(0.00131077 -1.76664e-06 -8.11998e-25)
(0.00130766 -1.92013e-06 1.37879e-25)
(0.00130429 -2.059e-06 -9.39803e-26)
(0.00130067 -2.18368e-06 4.38051e-26)
(0.00097472 3.39712e-07 -2.59203e-25)
(0.000975555 1.91487e-07 6.9663e-27)
(0.000976025 5.00997e-08 8.34575e-25)
(0.000976118 -8.71598e-08 -5.191e-25)
(0.000975874 -2.17307e-07 2.09878e-24)
(0.000975289 -3.45213e-07 -3.821e-24)
(0.000974389 -4.66693e-07 3.07814e-24)
(0.000973185 -5.82456e-07 -2.53628e-24)
(0.000971696 -6.92081e-07 1.7949e-24)
(0.000969937 -7.95224e-07 -1.1285e-24)
(0.000967924 -8.91499e-07 3.84328e-25)
(0.000965676 -9.80542e-07 5.38244e-26)
(0.000963209 -1.06199e-06 7.63147e-26)
(0.000960545 -1.13516e-06 -9.16829e-26)
(0.000957699 -1.20022e-06 1.70485e-26)
(0.000660895 1.3785e-07 3.71119e-25)
(0.000661399 6.67809e-08 3.95949e-25)
(0.000661654 2.3101e-09 -1.69613e-24)
(0.000661649 -5.98046e-08 1.23311e-24)
(0.000661411 -1.18437e-07 -1.45657e-26)
(0.00066094 -1.75461e-07 3.06947e-25)
(0.000660249 -2.2961e-07 -3.81496e-25)
(0.000659347 -2.80759e-07 -7.7499e-25)
(0.000658247 -3.28983e-07 7.62026e-25)
(0.000656959 -3.74167e-07 7.21158e-26)
(0.000655495 -4.16146e-07 -5.77134e-25)
(0.000653867 -4.5476e-07 2.07889e-25)
(0.000652089 -4.8987e-07 1.14106e-25)
(0.000650175 -5.21069e-07 -1.41998e-26)
(0.000648136 -5.48201e-07 -1.07973e-26)
(0.000377407 3.90603e-08 -3.54103e-25)
(0.000377653 1.84284e-08 1.07791e-24)
(0.000377757 1.5595e-09 6.30155e-25)
(0.000377712 -1.54288e-08 -1.14526e-24)
(0.000377532 -3.21283e-08 -1.33929e-25)
(0.000377218 -4.90437e-08 -1.17191e-25)
(0.000376776 -6.56682e-08 3.51264e-25)
(0.000376213 -8.09524e-08 -5.87803e-25)
(0.000375534 -9.58178e-08 7.84197e-25)
(0.000374745 -1.10374e-07 -3.84225e-25)
(0.000373855 -1.24492e-07 -2.38148e-25)
(0.000372869 -1.38036e-07 1.40204e-25)
(0.000371796 -1.50908e-07 -1.51002e-25)
(0.000370645 -1.62769e-07 1.46326e-25)
(0.000369422 -1.72948e-07 -2.20728e-26)
(0.00012196 1.78946e-08 -2.22989e-27)
(0.000122004 3.74331e-08 1.84405e-25)
(0.000122004 5.21e-08 2.08249e-25)
(0.000121959 6.10111e-08 -3.29041e-25)
(0.000121872 6.51972e-08 6.69932e-25)
(0.000121744 6.52764e-08 -7.27153e-25)
(0.000121575 6.20552e-08 4.65962e-26)
(0.000121368 5.68009e-08 3.85364e-25)
(0.000121124 4.93246e-08 -5.31971e-25)
(0.000120845 3.99356e-08 -9.02963e-26)
(0.000120533 2.90569e-08 3.47536e-25)
(0.000120191 1.70625e-08 -1.51137e-25)
(0.000119821 4.26301e-09 -5.0214e-26)
(0.000119426 -8.96433e-09 4.11167e-26)
(0.000119008 -2.20024e-08 -1.60594e-27)
(0.000359537 -0.00013842 3.35015e-26)
(0.000415066 -0.000125293 8.79746e-25)
(0.000505654 -0.000100664 -2.56135e-24)
(0.000600737 -7.59302e-05 3.75593e-24)
(0.000694812 -5.2838e-05 -1.42389e-24)
(0.000789494 -3.27624e-05 -1.35133e-24)
(0.000884668 -1.58523e-05 1.52297e-24)
(0.000980508 -2.05615e-06 -2.95054e-24)
(0.00107722 8.77615e-06 2.31642e-25)
(0.00117495 1.6851e-05 1.81598e-24)
(0.00127384 2.23966e-05 -3.35354e-25)
(0.00137399 2.56564e-05 3.54764e-25)
(0.00147549 2.69014e-05 -3.70043e-26)
(0.00157844 2.64251e-05 2.09687e-25)
(0.00168293 2.45651e-05 -7.71912e-25)
(0.0017891 2.16975e-05 4.20994e-25)
(0.00189716 1.82429e-05 -1.28036e-25)
(0.00200741 1.4635e-05 1.12387e-26)
(0.00212028 1.12394e-05 2.89601e-25)
(0.00223631 8.18285e-06 -1.79422e-25)
(0.002356 5.027e-06 1.99871e-26)
(0.0024793 3.05334e-07 -1.68498e-26)
(0.00259522 -8.82746e-06 2.72245e-26)
(0.00269065 -2.41696e-05 9.26134e-26)
(0.00276278 -4.54463e-05 -1.67067e-25)
(0.00281192 -7.15409e-05 -9.17886e-26)
(0.002839 -0.000100618 2.06768e-26)
(0.00284456 -0.00012947 1.95292e-25)
(0.00282892 -0.000154676 1.47248e-25)
(0.00279447 -0.000175944 -2.68185e-25)
(0.00274341 -0.000189226 -7.80111e-26)
(0.00267678 -0.000191566 2.96316e-25)
(0.00259639 -0.000180666 -1.82564e-25)
(0.00250413 -0.000153953 -5.35057e-25)
(0.00240184 -0.000108732 5.28927e-25)
(0.0022913 -4.21449e-05 2.23571e-24)
(0.00217405 4.85294e-05 -8.1032e-25)
(0.00205114 0.000165026 2.91723e-25)
(0.00192275 0.000306687 3.32422e-26)
(0.0017879 0.000468475 -2.36013e-24)
(0.00164459 0.000638857 -2.56856e-26)
(0.00149091 0.00079753 7.59944e-25)
(0.00132238 0.000911452 1.69881e-25)
(0.00115551 0.000937087 -9.78278e-25)
(0.0010414 0.000798881 -4.2866e-26)
(0.000639003 -0.000173369 -9.99004e-25)
(0.000667643 -0.000172226 -1.49225e-24)
(0.000725422 -0.000149478 3.06594e-24)
(0.000798664 -0.000122657 1.46332e-24)
(0.000878536 -9.61499e-05 -5.14969e-24)
(0.000963127 -7.24286e-05 5.50433e-24)
(0.00105076 -5.20671e-05 -1.98349e-24)
(0.00114066 -3.51121e-05 1.5193e-24)
(0.00123249 -2.14141e-05 -2.02336e-24)
(0.00132606 -1.07391e-05 2.82319e-26)
(0.00142129 -2.82736e-06 -1.0074e-24)
(0.00151815 2.59243e-06 1.99292e-24)
(0.00161665 5.8162e-06 -1.08567e-24)
(0.00171681 7.15575e-06 -9.43221e-25)
(0.00181868 6.96226e-06 -6.08048e-25)
(0.00192236 5.61856e-06 1.19383e-24)
(0.00202802 3.54721e-06 -1.36147e-25)
(0.00213592 1.18047e-06 6.04135e-25)
(0.00224646 -1.1155e-06 8.613e-26)
(0.00236011 -3.20402e-06 -1.76402e-25)
(0.0024773 -5.48254e-06 -6.85203e-26)
(0.00259795 -9.31654e-06 -3.49208e-26)
(0.00271131 -1.74158e-05 1.57505e-25)
(0.00280463 -3.14554e-05 1.60613e-25)
(0.0028752 -5.10613e-05 -1.6914e-25)
(0.00292337 -7.5103e-05 -6.32012e-25)
(0.0029502 -0.000101754 7.86386e-25)
(0.00295603 -0.000127798 -4.6871e-25)
(0.00294146 -0.000149872 1.49567e-25)
(0.00290892 -0.00016791 -5.38734e-27)
(0.00286056 -0.000177812 -1.69552e-25)
(0.00279754 -0.000176623 7.44785e-25)
(0.00272176 -0.000162155 -1.10806e-24)
(0.00263531 -0.000131909 3.10847e-24)
(0.00254029 -8.32502e-05 -4.38654e-24)
(0.00243886 -1.33508e-05 1.13416e-24)
(0.00233322 8.05943e-05 3.66966e-24)
(0.0022254 0.000200665 -1.20571e-24)
(0.00211715 0.000346856 -2.51885e-24)
(0.00200979 0.000515046 -1.2003e-24)
(0.00190467 0.000694459 2.66644e-24)
(0.00180461 0.000864463 -2.14143e-24)
(0.00171342 0.000989359 -4.34756e-27)
(0.00164815 0.00101694 1.15578e-24)
(0.00161058 0.000880285 2.63482e-26)
(0.000954005 -0.00018387 -1.16226e-26)
(0.000965835 -0.000196604 -1.74318e-24)
(0.000996449 -0.000184648 3.36812e-24)
(0.00104614 -0.000162202 2.90087e-24)
(0.00110783 -0.000136362 -4.78017e-24)
(0.00117835 -0.000111334 1.02618e-25)
(0.00125502 -8.88186e-05 4.64536e-25)
(0.00133614 -6.94106e-05 4.9263e-24)
(0.00142074 -5.32142e-05 -5.85194e-24)
(0.00150818 -4.01103e-05 3.50206e-24)
(0.00159808 -2.98894e-05 9.79157e-25)
(0.00169022 -2.23e-05 -5.63715e-24)
(0.00178444 -1.70488e-05 2.02976e-24)
(0.00188069 -1.38226e-05 7.85207e-25)
(0.00197892 -1.22669e-05 -1.60233e-24)
(0.00207919 -1.1999e-05 2.57504e-24)
(0.0021816 -1.25986e-05 -1.79812e-24)
(0.00228638 -1.36369e-05 -2.46752e-26)
(0.00239384 -1.47486e-05 1.44893e-25)
(0.0025044 -1.57857e-05 1.47366e-25)
(0.00261842 -1.71025e-05 2.43167e-26)
(0.00273576 -1.99578e-05 7.26743e-26)
(0.00284595 -2.69229e-05 -1.63856e-25)
(0.00293664 -3.95511e-05 4.65228e-25)
(0.00300526 -5.73621e-05 -6.73313e-25)
(0.00305215 -7.9218e-05 3.75934e-25)
(0.00307855 -0.00010328 -6.72555e-25)
(0.0030845 -0.000126328 8.88947e-25)
(0.003071 -0.000145078 -5.17909e-25)
(0.00304055 -0.0001597 2.75109e-25)
(0.00299512 -0.000166008 4.29775e-25)
(0.00293606 -0.000161086 -8.2624e-25)
(0.00286536 -0.000142888 4.08949e-25)
(0.00278535 -0.00010903 1.61861e-24)
(0.0026984 -5.70149e-05 -3.7782e-24)
(0.00260712 1.58235e-05 5.52094e-24)
(0.00251434 0.000112145 -3.51287e-24)
(0.00242318 0.000233987 4.15827e-24)
(0.00233691 0.000381426 -7.45637e-24)
(0.00225905 0.000550429 2.73955e-24)
(0.0021936 0.000729886 7.84629e-25)
(0.00214548 0.000897743 7.39023e-25)
(0.00211853 0.00101612 -8.67829e-25)
(0.00211733 0.00103121 -1.09832e-25)
(0.00211581 0.00090992 1.52998e-25)
(0.0013024 -0.000187265 -4.25348e-25)
(0.00130425 -0.000207314 -7.09841e-25)
(0.00131645 -0.000206024 -3.1547e-24)
(0.00134469 -0.000191752 8.1281e-25)
(0.00138718 -0.00017029 5.68355e-25)
(0.00144111 -0.000146795 2.55673e-24)
(0.0015039 -0.000124059 -5.33944e-24)
(0.00157346 -0.000103452 2.10337e-24)
(0.00164831 -8.5547e-05 6.72198e-24)
(0.0017274 -7.04982e-05 -1.83306e-24)
(0.00181002 -5.8255e-05 -1.65438e-24)
(0.00189569 -4.86553e-05 -2.561e-25)
(0.00198411 -4.14516e-05 8.15356e-25)
(0.00207505 -3.63584e-05 -1.58073e-24)
(0.0021684 -3.30359e-05 3.69891e-25)
(0.00226411 -3.11148e-05 -1.21214e-25)
(0.00236221 -3.01855e-05 -7.26312e-25)
(0.00246286 -2.98289e-05 2.94228e-25)
(0.00256632 -2.9684e-05 1.23775e-24)
(0.00267291 -2.95934e-05 -1.57656e-25)
(0.00278291 -2.98667e-05 -2.62445e-25)
(0.0028961 -3.16515e-05 -6.24629e-26)
(0.00300237 -3.73748e-05 -3.04429e-25)
(0.00308981 -4.84679e-05 1.68223e-26)
(0.00315599 -6.43378e-05 -5.77742e-25)
(0.00320122 -8.38552e-05 1.05905e-24)
(0.00322695 -0.000105141 -7.16959e-25)
(0.00323275 -0.000124996 1.29103e-24)
(0.00322035 -0.000140266 -8.4805e-25)
(0.00319217 -0.000151332 2.83403e-25)
(0.00314986 -0.000153912 8.18961e-26)