/*--------------------------------*- C++ -*----------------------------------*\
| =========                 |                                                 |
| \\      /  F ield         | OpenFOAM: The Open Source CFD Toolbox           |
|  \\    /   O peration     | Version:  2312                                  |
|   \\  /    A nd           | Website:  www.openfoam.com                      |
|    \\/     M anipulation  |                                                 |
\*---------------------------------------------------------------------------*/
FoamFile
{
    version     2.0;
    format      ascii;
    arch        "LSB;label=32;scalar=64";
    class       volScalarField;
    location    "59";
    object      p;
}
// * * * * * * * * * * * * * * * * * * * * * * * * * * * * * * * * * * * * * //

dimensions      [0 2 -2 0 0 0 0];

internalField   nonuniform List<scalar> 
4800
(
-6.71907e-12
-9.75921e-07
-1.74616e-06
-2.37183e-06
-2.90423e-06
-3.37019e-06
-3.77802e-06
-4.14055e-06
-4.46902e-06
-4.76924e-06
-5.04534e-06
-5.29707e-06
-5.51647e-06
-5.94299e-06
-7.51649e-06
1.21734e-08
-9.63864e-07
-1.73467e-06
-2.3611e-06
-2.89473e-06
-3.36238e-06
-3.7726e-06
-4.13842e-06
-4.47203e-06
-4.78104e-06
-5.07425e-06
-5.36452e-06
-5.66333e-06
-6.07659e-06
-6.83975e-06
2.45938e-08
-9.51386e-07
-1.72278e-06
-2.35005e-06
-2.88395e-06
-3.35288e-06
-3.76506e-06
-4.13353e-06
-4.47109e-06
-4.78617e-06
-5.0887e-06
-5.39193e-06
-5.70129e-06
-6.02166e-06
-6.32423e-06
3.66871e-08
-9.38691e-07
-1.71015e-06
-2.33819e-06
-2.87112e-06
-3.34089e-06
-3.75431e-06
-4.12384e-06
-4.46255e-06
-4.77809e-06
-5.07768e-06
-5.36595e-06
-5.63233e-06
-5.84303e-06
-5.92574e-06
4.96756e-08
-9.24488e-07
-1.69534e-06
-2.3244e-06
-2.85464e-06
-3.3242e-06
-3.73785e-06
-4.1063e-06
-4.44218e-06
-4.75106e-06
-5.03524e-06
-5.28987e-06
-5.49382e-06
-5.60697e-06
-5.57348e-06
6.49907e-08
-9.07339e-07
-1.67682e-06
-2.30579e-06
-2.83385e-06
-3.30048e-06
-3.71226e-06
-4.07657e-06
-4.40439e-06
-4.69845e-06
-4.95596e-06
-5.16592e-06
-5.30555e-06
-5.34424e-06
-5.25357e-06
8.50845e-08
-8.84879e-07
-1.65221e-06
-2.27914e-06
-2.80574e-06
-3.26671e-06
-3.67308e-06
-4.02908e-06
-4.34271e-06
-4.614e-06
-4.83668e-06
-4.99835e-06
-5.08135e-06
-5.06954e-06
-4.95533e-06
1.14357e-07
-8.52998e-07
-1.61739e-06
-2.24104e-06
-2.76419e-06
-3.21783e-06
-3.61446e-06
-3.95712e-06
-4.25049e-06
-4.49278e-06
-4.67704e-06
-4.79343e-06
-4.83226e-06
-4.78972e-06
-4.66965e-06
1.59788e-07
-8.05223e-07
-1.56601e-06
-2.18526e-06
-2.70242e-06
-3.1463e-06
-3.52892e-06
-3.85323e-06
-4.12144e-06
-4.33152e-06
-4.47834e-06
-4.55685e-06
-4.5648e-06
-4.50623e-06
-4.38968e-06
2.31106e-07
-7.32384e-07
-1.48912e-06
-2.10274e-06
-2.61175e-06
-3.04278e-06
-3.40765e-06
-3.70959e-06
-3.95001e-06
-4.12812e-06
-4.24217e-06
-4.2921e-06
-4.28097e-06
-4.21679e-06
-4.109e-06
3.40352e-07
-6.22776e-07
-1.37526e-06
-1.98204e-06
-2.48099e-06
-2.89669e-06
-3.24112e-06
-3.51865e-06
-3.73144e-06
-3.881e-06
-3.96921e-06
-3.99994e-06
-3.97934e-06
-3.91668e-06
-3.8207e-06
5.01369e-07
-4.62545e-07
-1.21075e-06
-1.80971e-06
-2.29729e-06
-2.69642e-06
-3.01967e-06
-3.27331e-06
-3.46147e-06
-3.58826e-06
-3.6585e-06
-3.67858e-06
-3.65598e-06
-3.59975e-06
-3.51737e-06
7.30279e-07
-2.35384e-07
-9.79583e-07
-1.57024e-06
-2.04633e-06
-2.42957e-06
-2.73342e-06
-2.96656e-06
-3.13554e-06
-3.24675e-06
-3.307e-06
-3.32389e-06
-3.30509e-06
-3.25884e-06
-3.19133e-06
1.04686e-06
7.8734e-08
-6.6247e-07
-1.24556e-06
-1.71173e-06
-2.08206e-06
-2.37113e-06
-2.58987e-06
-2.74704e-06
-2.85073e-06
-2.90876e-06
-2.92906e-06
-2.91894e-06
-2.88562e-06
-2.83424e-06
1.47523e-06
5.04361e-07
-2.33986e-07
-8.13835e-07
-1.27405e-06
-1.63695e-06
-1.91845e-06
-2.1312e-06
-2.28545e-06
-2.39022e-06
-2.45373e-06
-2.48373e-06
-2.487e-06
-2.46979e-06
-2.43644e-06
2.04224e-06
1.0687e-06
3.29072e-07
-2.51287e-07
-7.11627e-07
-1.07474e-06
-1.35791e-06
-1.57476e-06
-1.73608e-06
-1.85113e-06
-1.92807e-06
-1.97434e-06
-1.99619e-06
-1.99911e-06
-1.98693e-06
2.77342e-06
1.79768e-06
1.05282e-06
4.64947e-07
-3.27616e-09
-3.75878e-07
-6.7139e-07
-9.03596e-07
-1.08296e-06
-1.21832e-06
-1.31749e-06
-1.38751e-06
-1.43421e-06
-1.46256e-06
-1.47611e-06
3.68679e-06
2.70827e-06
1.95518e-06
1.35266e-06
8.68075e-07
4.75525e-07
1.55973e-07
-1.03682e-07
-3.12967e-07
-4.79912e-07
-6.11747e-07
-7.14998e-07
-7.95095e-07
-8.56585e-07
-9.02819e-07
4.78461e-06
3.82351e-06
3.04911e-06
2.42341e-06
1.91255e-06
1.48923e-06
1.13428e-06
8.35603e-07
5.84867e-07
3.7498e-07
1.99378e-07
5.2122e-08
-7.1784e-08
-1.76505e-07
-2.65277e-07
6.02713e-06
5.09453e-06
4.31515e-06
3.6668e-06
3.12388e-06
2.66143e-06
2.26205e-06
1.9153e-06
1.61389e-06
1.35145e-06
1.12203e-06
9.20316e-07
7.41844e-07
5.82869e-07
4.40227e-07
7.27272e-06
6.37144e-06
5.59546e-06
4.92851e-06
4.35033e-06
3.84212e-06
3.39106e-06
2.9888e-06
2.62892e-06
2.30573e-06
2.01406e-06
1.7494e-06
1.50791e-06
1.28632e-06
1.0818e-06
8.3797e-06
7.4792e-06
6.70073e-06
6.01819e-06
5.40955e-06
4.86127e-06
4.3647e-06
3.91318e-06
3.50084e-06
3.12254e-06
2.7738e-06
2.45085e-06
2.15042e-06
1.86979e-06
1.60646e-06
9.16856e-06
8.3097e-06
7.54329e-06
6.85303e-06
6.22454e-06
5.64866e-06
5.11891e-06
4.62961e-06
4.17561e-06
3.75248e-06
3.35648e-06
2.98454e-06
2.63398e-06
2.30254e-06
1.98817e-06
9.74571e-06
8.92333e-06
8.17106e-06
7.47939e-06
6.83998e-06
6.24631e-06
5.69296e-06
5.17513e-06
4.68857e-06
4.22971e-06
3.79558e-06
3.38369e-06
2.99192e-06
2.61847e-06
2.26169e-06
1.0154e-05
9.36159e-06
8.62439e-06
7.9367e-06
7.2932e-06
6.68893e-06
6.11945e-06
5.58087e-06
5.06987e-06
4.58365e-06
4.11987e-06
3.67661e-06
3.25219e-06
2.84523e-06
2.45447e-06
1.04305e-05
9.66519e-06
8.94457e-06
8.26469e-06
7.62183e-06
7.01225e-06
6.43247e-06
5.87949e-06
5.35073e-06
4.8441e-06
4.3578e-06
3.89038e-06
3.4406e-06
3.00745e-06
2.58999e-06
1.06117e-05
9.87186e-06
9.16815e-06
8.4978e-06
7.85832e-06
7.24694e-06
6.66101e-06
6.09827e-06
5.55682e-06
5.03513e-06
4.53189e-06
4.04607e-06
3.57679e-06
3.12336e-06
2.68514e-06
1.07273e-05
1.00107e-05
9.32301e-06
8.66268e-06
8.02807e-06
7.41711e-06
6.82784e-06
6.25865e-06
5.7082e-06
5.17544e-06
4.65947e-06
4.15961e-06
3.67532e-06
3.2062e-06
2.75187e-06
1.07989e-05
1.0103e-05
9.43009e-06
8.77964e-06
8.15053e-06
7.54122e-06
6.95039e-06
6.37695e-06
5.82005e-06
5.27903e-06
4.75334e-06
4.24265e-06
3.74666e-06
3.26527e-06
2.79831e-06
1.08419e-05
1.01642e-05
9.50474e-06
8.86356e-06
8.23994e-06
7.63283e-06
7.04143e-06
6.46512e-06
5.90345e-06
5.35608e-06
4.8228e-06
4.30353e-06
3.79825e-06
3.30707e-06
2.83003e-06
1.0867e-05
1.02052e-05
9.5577e-06
8.92492e-06
8.30641e-06
7.7016e-06
7.11013e-06
6.53177e-06
5.96638e-06
5.41395e-06
4.87454e-06
4.34829e-06
3.83542e-06
3.33623e-06
2.85096e-06
1.08812e-05
1.02333e-05
9.59631e-06
8.97094e-06
8.357e-06
7.75434e-06
7.16299e-06
6.58302e-06
6.0146e-06
5.45796e-06
4.9134e-06
4.3813e-06
3.86206e-06
3.35615e-06
2.86396e-06
1.08892e-05
1.02534e-05
9.62549e-06
9.00654e-06
8.39657e-06
7.79582e-06
7.20459e-06
6.62324e-06
6.05219e-06
5.49192e-06
4.94292e-06
4.40578e-06
3.88104e-06
3.36935e-06
2.87123e-06
1.08938e-05
1.02684e-05
9.64844e-06
9.03502e-06
8.42845e-06
7.82929e-06
7.2381e-06
6.65549e-06
6.08209e-06
5.51858e-06
4.96565e-06
4.42405e-06
3.89449e-06
3.37772e-06
2.87442e-06
1.08966e-05
1.02803e-05
9.66724e-06
9.05854e-06
8.45486e-06
7.85699e-06
7.26574e-06
6.68191e-06
6.10634e-06
5.53989e-06
4.98343e-06
4.43784e-06
3.90396e-06
3.38269e-06
2.87479e-06
1.08986e-05
1.02903e-05
9.68315e-06
9.07849e-06
8.47724e-06
7.8804e-06
7.28896e-06
6.70395e-06
6.12636e-06
5.55723e-06
4.99755e-06
4.44835e-06
3.91059e-06
3.38527e-06
2.87326e-06
1.09004e-05
1.02991e-05
9.69694e-06
9.09572e-06
8.49648e-06
7.90043e-06
7.30873e-06
6.72257e-06
6.14311e-06
5.57151e-06
5.00891e-06
4.45644e-06
3.91519e-06
3.38623e-06
2.87053e-06
1.09022e-05
1.03069e-05
9.70918e-06
9.1109e-06
8.51336e-06
7.91791e-06
7.32589e-06
6.73863e-06
6.15741e-06
5.58354e-06
5.01825e-06
4.4628e-06
3.91835e-06
3.38606e-06
2.867e-06
1.09043e-05
1.03145e-05
9.72079e-06
9.12517e-06
8.52913e-06
7.93416e-06
7.34176e-06
6.75337e-06
6.17043e-06
5.59433e-06
5.02644e-06
4.46809e-06
3.92053e-06
3.38504e-06
2.86274e-06
1.09066e-05
1.03221e-05
9.73211e-06
9.13897e-06
8.54423e-06
7.94958e-06
7.35664e-06
6.76702e-06
6.18229e-06
5.60397e-06
5.03354e-06
4.47243e-06
3.92201e-06
3.38358e-06
2.85828e-06
-8.6701e-06
-6.28622e-06
-4.84396e-06
-3.88173e-06
-3.12307e-06
-2.55653e-06
-2.13266e-06
-1.81796e-06
-1.58847e-06
-1.42365e-06
-1.30517e-06
-1.21575e-06
-1.13835e-06
-1.0559e-06
-9.50475e-07
-8.05389e-07
-6.05159e-07
-3.41537e-07
-1.98085e-08
3.32825e-07
6.70201e-07
9.27457e-07
1.0486e-06
1.10354e-06
1.21312e-06
1.44902e-06
1.8593e-06
2.4593e-06
3.25889e-06
4.25521e-06
5.4638e-06
6.8698e-06
8.44851e-06
1.01834e-05
1.20344e-05
1.39554e-05
1.58905e-05
1.77742e-05
1.95265e-05
2.10465e-05
2.21838e-05
2.27285e-05
2.22153e-05
2.02482e-05
1.51139e-05
-7.06905e-06
-5.78484e-06
-4.6721e-06
-3.80406e-06
-3.09121e-06
-2.53893e-06
-2.11999e-06
-1.80744e-06
-1.57945e-06
-1.41623e-06
-1.29954e-06
-1.212e-06
-1.13646e-06
-1.05574e-06
-9.51889e-07
-8.08287e-07
-6.09507e-07
-3.47149e-07
-2.66054e-08
3.26046e-07
6.66538e-07
9.32119e-07
1.06681e-06
1.13699e-06
1.26023e-06
1.50637e-06
1.92328e-06
2.52638e-06
3.32475e-06
4.31346e-06
5.51065e-06
6.89684e-06
8.44392e-06
1.0134e-05
1.19234e-05
1.37607e-05
1.55832e-05
1.73148e-05
1.88584e-05
2.00827e-05
2.07834e-05
2.06339e-05
1.89829e-05
1.51065e-05
7.73354e-06
-6.2346e-06
-5.40498e-06
-4.49725e-06
-3.7182e-06
-3.05304e-06
-2.52045e-06
-2.10911e-06
-1.79966e-06
-1.57323e-06
-1.41127e-06
-1.29586e-06
-1.20965e-06
-1.13542e-06
-1.05591e-06
-9.5318e-07
-8.10707e-07
-6.13154e-07
-3.5212e-07
-3.27209e-08
3.19765e-07
6.63366e-07
9.37747e-07
1.08707e-06
1.17389e-06
1.31205e-06
1.56917e-06
1.99281e-06
2.59846e-06
3.39422e-06
4.37085e-06
5.55424e-06
6.91393e-06
8.42024e-06
1.00532e-05
1.17644e-05
1.34966e-05
1.51788e-05
1.67233e-05
1.80167e-05
1.89035e-05
1.91503e-05
1.84051e-05
1.60952e-05
1.18855e-05
5.496e-06
-5.72025e-06
-5.10182e-06
-4.35626e-06
-3.64621e-06
-3.02673e-06
-2.51455e-06
-2.11013e-06
-1.80223e-06
-1.57548e-06
-1.41284e-06
-1.29695e-06
-1.21057e-06
-1.13644e-06
-1.0572e-06
-9.54901e-07
-8.1309e-07
-6.16491e-07
-3.56647e-07
-3.84346e-08
3.13825e-07
6.60687e-07
9.44489e-07
1.10964e-06
1.21463e-06
1.3692e-06
1.63854e-06
2.06974e-06
2.67852e-06
3.47034e-06
4.43266e-06
5.60101e-06
6.92807e-06
8.38515e-06
9.9489e-06
1.15657e-05
1.31714e-05
1.46868e-05
1.60138e-05
1.70273e-05
1.75624e-05
1.7394e-05
1.62311e-05
1.37113e-05
9.68383e-06
4.41373e-06
-5.33216e-06
-4.84326e-06
-4.22772e-06
-3.59704e-06
-3.01947e-06
-2.52732e-06
-2.12849e-06
-1.81977e-06
-1.5898e-06
-1.42352e-06
-1.30437e-06
-1.21539e-06
-1.13938e-06
-1.05886e-06
-9.5587e-07
-8.13994e-07
-6.18003e-07
-3.59307e-07
-4.257e-08
3.09061e-07
6.59005e-07
9.52614e-07
1.13468e-06
1.25923e-06
1.43147e-06
1.71378e-06
2.15259e-06
2.76439e-06
3.54541e-06
4.49678e-06
5.64352e-06
6.92914e-06
8.32642e-06
9.80711e-06
1.13123e-05
1.27714e-05
1.40983e-05
1.51886e-05
1.59141e-05
1.61186e-05
1.56142e-05
1.42018e-05
1.17077e-05
8.13954e-06
3.83713e-06
-5.01717e-06
-4.61668e-06
-4.10329e-06
-3.55838e-06
-3.02885e-06
-2.55792e-06
-2.16558e-06
-1.85481e-06
-1.61912e-06
-1.44602e-06
-1.32027e-06
-1.22558e-06
-1.145e-06
-1.06104e-06
-9.55709e-07
-8.12673e-07
-6.16724e-07
-3.59088e-07
-4.41732e-08
3.06232e-07
6.58839e-07
9.62411e-07
1.1623e-06
1.30765e-06
1.49852e-06
1.79406e-06
2.24022e-06
2.85262e-06
3.6165e-06
4.56073e-06
5.67456e-06
6.90837e-06
8.23402e-06
9.61654e-06
1.09928e-05
1.22869e-05
1.34092e-05
1.42547e-05
1.47026e-05
1.46198e-05
1.38709e-05
1.23461e-05
1.0003e-05
6.94785e-06
3.48302e-06
-4.7392e-06
-4.40875e-06
-3.98259e-06
-3.51037e-06
-3.03848e-06
-2.5988e-06
-2.21706e-06
-1.90554e-06
-1.66356e-06
-1.48145e-06
-1.346e-06
-1.24228e-06
-1.15404e-06
-1.064e-06
-9.54275e-07
-8.08642e-07
-6.11949e-07
-3.55189e-07
-4.24635e-08
3.05974e-07
6.60624e-07
9.74075e-07
1.19244e-06
1.35955e-06
1.56978e-06
1.87817e-06
2.33107e-06
2.93694e-06
3.68947e-06
4.61725e-06
5.68604e-06
6.85733e-06
8.09887e-06
9.36789e-06
1.05987e-05
1.17132e-05
1.26219e-05
1.32262e-05
1.34215e-05
1.3107e-05
1.22e-05
1.06617e-05
8.52433e-06
5.92287e-06
3.09549e-06
-4.47727e-06
-4.2029e-06
-3.85176e-06
-3.45063e-06
-3.03353e-06
-2.6352e-06
-2.27173e-06
-1.96435e-06
-1.71865e-06
-1.52742e-06
-1.38037e-06
-1.26491e-06
-1.16612e-06
-1.06731e-06
-9.5096e-07
-8.01136e-07
-6.02816e-07
-3.46741e-07
-3.66786e-08
3.08825e-07
6.64632e-07
9.87547e-07
1.22464e-06
1.41409e-06
1.64396e-06
1.9647e-06
2.41998e-06
3.01737e-06
3.7616e-06
4.65538e-06
5.66888e-06
6.76686e-06
7.91059e-06
9.05122e-06
1.01227e-05
1.10478e-05
1.17426e-05
1.21205e-05
1.20991e-05
1.16113e-05
1.0619e-05
9.12998e-06
7.20953e-06
4.98609e-06
2.63745e-06
-4.22069e-06
-3.99162e-06
-3.70258e-06
-3.36721e-06
-3.00799e-06
-2.65055e-06
-2.31564e-06
-2.01995e-06
-1.77577e-06
-1.57756e-06
-1.41884e-06
-1.29028e-06
-1.17896e-06
-1.06923e-06
-9.44354e-07
-7.88932e-07
-5.88262e-07
-3.32893e-07
-2.62313e-08
3.15009e-07
6.70733e-07
1.00222e-06
1.25773e-06
1.46947e-06
1.71815e-06
2.0514e-06
2.50229e-06
3.09322e-06
3.8175e-06
4.6648e-06
5.61358e-06
6.62575e-06
7.65728e-06
8.6561e-06
9.55796e-06
1.02906e-05
1.07798e-05
1.09551e-05
1.07581e-05
1.01516e-05
9.12959e-06
7.72487e-06
6.01108e-06
4.09718e-06
2.1126e-06
-3.96218e-06
-3.77048e-06
-3.5324e-06
-3.25446e-06
-2.95049e-06
-2.63688e-06
-2.33477e-06
-2.05944e-06
-1.82269e-06
-1.62189e-06
-1.4536e-06
-1.31256e-06
-1.1883e-06
-1.06667e-06
-9.322e-07
-7.70407e-07
-5.67164e-07
-3.13018e-07
-1.10058e-08
3.23994e-07
6.78033e-07
1.0165e-06
1.28925e-06
1.5224e-06
1.78699e-06
2.13029e-06
2.57788e-06
3.15206e-06
3.84349e-06
4.63632e-06
5.50834e-06
6.42042e-06
7.32591e-06
8.17224e-06
8.89922e-06
9.44333e-06
9.74281e-06
9.74518e-06
9.41396e-06
8.73518e-06
7.72234e-06
6.4182e-06
4.8918e-06
3.23021e-06
1.52696e-06
-3.69481e-06
-3.53473e-06
-3.33874e-06
-3.10955e-06
-2.85474e-06
-2.58596e-06
-2.3196e-06
-2.07087e-06
-1.84648e-06
-1.64728e-06
-1.47433e-06
-1.32407e-06
-1.18846e-06
-1.05559e-06
-9.11825e-07
-7.43974e-07
-5.38795e-07
-2.87134e-07
8.41857e-09
3.34318e-07
6.83935e-07
1.0271e-06
1.31479e-06
1.56699e-06
1.84516e-06
2.19264e-06
2.633e-06
3.18175e-06
3.8288e-06
4.55582e-06
5.33753e-06
6.13545e-06
6.90315e-06
7.59026e-06
8.14347e-06
8.50942e-06
8.64077e-06
8.50219e-06
8.07492e-06
7.36046e-06
6.38199e-06
5.18293e-06
3.82239e-06
2.36768e-06
8.86539e-07
-3.4114e-06
-3.27886e-06
-3.11846e-06
-2.931e-06
-2.72064e-06
-2.49557e-06
-2.26633e-06
-2.04404e-06
-1.83548e-06
-1.64445e-06
-1.4725e-06
-1.31755e-06
-1.17388e-06
-1.03219e-06
-8.81066e-07
-7.08877e-07
-5.03672e-07
-2.56979e-07
2.94692e-08
3.45254e-07
6.8563e-07
1.02577e-06
1.32698e-06
1.59471e-06
1.88193e-06
2.22766e-06
2.65252e-06
3.16571e-06
3.75671e-06
4.4053e-06
5.08369e-06
5.75525e-06
6.37711e-06
6.90381e-06
7.29003e-06
7.49395e-06
7.48241e-06
7.2344e-06
6.74385e-06
6.02101e-06
5.09197e-06
3.9959e-06
2.78085e-06
1.49787e-06
1.96309e-07
-3.1046e-06
-2.99688e-06
-2.86742e-06
-2.71622e-06
-2.54532e-06
-2.35964e-06
-2.16617e-06
-1.9724e-06
-1.7845e-06
-1.60689e-06
-1.44148e-06
-1.2873e-06
-1.14049e-06
-9.94197e-07
-8.39379e-07
-6.66236e-07
-4.64409e-07
-2.26388e-07
4.72448e-08
3.50341e-07
6.74156e-07
1.00642e-06
1.31485e-06
1.59299e-06
1.88304e-06
2.21905e-06
2.61803e-06
3.08448e-06
3.6071e-06
4.1647e-06
4.72912e-06
5.26652e-06
5.74006e-06
6.11087e-06
6.34236e-06
6.40474e-06
6.27696e-06
5.94865e-06
5.42162e-06
4.70992e-06
3.83841e-06
2.8401e-06
1.75266e-06
6.14411e-07
-5.38518e-07
-2.76665e-06
-2.68215e-06
-2.58053e-06
-2.46148e-06
-2.32575e-06
-2.17611e-06
-2.01694e-06
-1.85332e-06
-1.69e-06
-1.53081e-06
-1.37775e-06
-1.23061e-06
-1.08692e-06
-9.41974e-07
-7.89004e-07
-6.1999e-07
-4.26379e-07
-2.02171e-07
5.27944e-08
3.36632e-07
6.38778e-07
9.59509e-07
1.26487e-06
1.54528e-06
1.82991e-06
2.14618e-06
2.50781e-06
2.91577e-06
3.3583e-06
3.81449e-06
4.25825e-06
4.66126e-06
4.9902e-06
5.21469e-06
5.30906e-06
5.25351e-06
5.03592e-06
4.65303e-06
4.1108e-06
3.42374e-06
2.61348e-06
1.70648e-06
7.31573e-07
-2.82738e-07
-1.30989e-06
-2.38892e-06
-2.32746e-06
-2.25231e-06
-2.16315e-06
-2.06009e-06
-1.94453e-06
-1.81908e-06
-1.68703e-06
-1.55167e-06
-1.4158e-06
-1.28124e-06
-1.14832e-06
-1.01546e-06
-8.79513e-07
-7.35743e-07
-5.77849e-07
-3.99324e-07
-1.95521e-07
3.46313e-08
2.90689e-07
5.68542e-07
8.66313e-07
1.1582e-06
1.43069e-06
1.69993e-06
1.98534e-06
2.29768e-06
2.63606e-06
2.99004e-06
3.33989e-06
3.66412e-06
3.9355e-06
4.12953e-06
4.22504e-06
4.20468e-06
4.05624e-06
3.77391e-06
3.35866e-06
2.8179e-06
2.16479e-06
1.41693e-06
5.94784e-07
-2.80022e-07
-1.18644e-06
-2.10493e-06
-1.96197e-06
-1.92527e-06
-1.87738e-06
-1.81815e-06
-1.74743e-06
-1.66587e-06
-1.57499e-06
-1.47677e-06
-1.37333e-06
-1.26649e-06
-1.15704e-06
-1.04563e-06
-9.3227e-07
-8.15082e-07
-6.8997e-07
-5.52149e-07
-3.97248e-07
-2.21655e-07
-2.33404e-08
1.98226e-07
4.41745e-07
7.06119e-07
9.72373e-07
1.22427e-06
1.46701e-06
1.71021e-06
1.96266e-06
2.22584e-06
2.4894e-06
2.73462e-06
2.94127e-06
3.09151e-06
3.16872e-06
3.15797e-06
3.04793e-06
2.83189e-06
2.50813e-06
2.0796e-06
1.5536e-06
9.41028e-07
2.55564e-07
-4.87453e-07
-1.27209e-06
-2.08292e-06
-2.90554e-06
-1.47789e-06
-1.46967e-06
-1.45218e-06
-1.42539e-06
-1.38918e-06
-1.34385e-06
-1.29011e-06
-1.22936e-06
-1.16252e-06
-1.09105e-06
-1.01612e-06
-9.36278e-07
-8.50943e-07
-7.62486e-07
-6.66817e-07
-5.59643e-07
-4.38226e-07
-2.99918e-07
-1.42335e-07
3.55827e-08
2.34719e-07
4.55545e-07
6.83238e-07
9.00459e-07
1.10325e-06
1.29337e-06
1.48342e-06
1.67207e-06
1.84603e-06
1.98969e-06
2.09189e-06
2.14079e-06
2.12436e-06
2.03262e-06
1.85891e-06
1.60005e-06
1.25633e-06
8.31205e-07
3.30981e-07
-2.35786e-07
-8.58873e-07
-1.52709e-06
-2.22891e-06
-2.95312e-06
-3.68913e-06
-9.37582e-07
-9.63526e-07
-9.81541e-07
-9.91915e-07
-9.94615e-07
-9.89862e-07
-9.78189e-07
-9.59372e-07
-9.36242e-07
-9.06563e-07
-8.686e-07
-8.32011e-07
-7.92763e-07
-7.45208e-07
-6.887e-07
-6.22833e-07
-5.45651e-07
-4.54815e-07
-3.47875e-07
-2.2291e-07
-7.85004e-08
8.71104e-08
2.65057e-07
4.36606e-07
5.89262e-07
7.20067e-07
8.4741e-07
9.63972e-07
1.05333e-06
1.11043e-06
1.12921e-06
1.10048e-06
1.01578e-06
8.69203e-07
6.57317e-07
3.78851e-07
3.46748e-08
-3.72186e-07
-8.36783e-07
-1.3527e-06
-1.91253e-06
-2.50829e-06
-3.13182e-06
-3.77506e-06
-4.43031e-06
-3.426e-07
-4.11753e-07
-4.73807e-07
-5.29232e-07
-5.78345e-07
-6.21356e-07
-6.58584e-07
-6.90109e-07
-7.16765e-07
-7.38224e-07
-7.55136e-07
-7.70716e-07
-7.82759e-07
-7.85317e-07
-7.79965e-07
-7.67557e-07
-7.46182e-07
-7.13274e-07
-6.66568e-07
-6.0375e-07
-5.23637e-07
-4.24881e-07
-3.11135e-07
-1.95858e-07
-7.68407e-08
-1.47149e-08
5.50648e-08
1.04035e-07
1.25078e-07
1.17706e-07
7.69266e-08
-4.1464e-09
-1.30816e-07
-3.06307e-07
-5.3237e-07
-8.09561e-07
-1.13708e-06
-1.51266e-06
-1.93272e-06
-2.39271e-06
-2.88743e-06
-3.41134e-06
-3.95874e-06
-4.52396e-06
-5.10143e-06
3.08355e-07
1.83258e-07
6.42602e-08
-4.87924e-08
-1.56293e-07
-2.58626e-07
-3.56132e-07
-4.4904e-07
-5.37666e-07
-6.22176e-07
-7.02462e-07
-7.78459e-07
-8.49367e-07
-9.141e-07
-9.72722e-07
-1.0247e-06
-1.06811e-06
-1.10099e-06
-1.12114e-06
-1.12688e-06
-1.11719e-06
-1.09e-06
-1.05445e-06
-1.02184e-06
-9.94317e-07
-9.23262e-07
-8.90398e-07
-8.89916e-07
-9.13197e-07
-9.60112e-07
-1.035e-06
-1.1422e-06
-1.28464e-06
-1.46426e-06
-1.68238e-06
-1.93952e-06
-2.23521e-06
-2.56794e-06
-2.93534e-06
-3.33439e-06
-3.76162e-06
-4.21333e-06
-4.68564e-06
-5.17464e-06
-5.67638e-06
8.88719e-07
7.02593e-07
5.22414e-07
3.4782e-07
1.78291e-07
1.34106e-08
-1.47079e-07
-3.03275e-07
-4.5518e-07
-6.02709e-07
-7.45637e-07
-8.83861e-07
-1.01722e-06
-1.14511e-06
-1.26665e-06
-1.38065e-06
-1.48577e-06
-1.58031e-06
-1.66244e-06
-1.73093e-06
-1.78337e-06
-1.81991e-06
-1.8445e-06
-1.85151e-06
-1.85208e-06
-1.8459e-06
-1.85732e-06
-1.88721e-06
-1.93347e-06
-1.99803e-06
-2.08404e-06
-2.19409e-06
-2.3303e-06
-2.49461e-06
-2.68839e-06
-2.91229e-06
-3.16617e-06
-3.44924e-06
-3.76013e-06
-4.09703e-06
-4.45777e-06
-4.83996e-06
-5.24104e-06
-5.65836e-06
-6.08923e-06
1.35484e-06
1.11005e-06
8.71051e-07
6.37626e-07
4.09391e-07
1.86054e-07
-3.25082e-08
-2.46269e-07
-4.5512e-07
-6.58907e-07
-8.57437e-07
-1.05046e-06
-1.23754e-06
-1.41796e-06
-1.59075e-06
-1.75485e-06
-1.90904e-06
-2.05179e-06
-2.18161e-06
-2.29657e-06
-2.39538e-06
-2.47832e-06
-2.54239e-06
-2.58978e-06
-2.61946e-06
-2.64948e-06
-2.68477e-06
-2.72786e-06
-2.78181e-06
-2.84944e-06
-2.93298e-06
-3.03446e-06
-3.15594e-06
-3.29925e-06
-3.46568e-06
-3.65591e-06
-3.8701e-06
-4.10798e-06
-4.36892e-06
-4.65196e-06
-4.95584e-06
-5.2791e-06
-5.6201e-06
-5.97712e-06
-6.34836e-06
1.68571e-06
1.39039e-06
1.10117e-06
8.17958e-07
5.40522e-07
2.68737e-07
2.6271e-09
-2.5766e-07
-5.11911e-07
-7.59863e-07
-1.0012e-06
-1.23549e-06
-1.46218e-06
-1.68054e-06
-1.88967e-06
-2.08858e-06
-2.27605e-06
-2.45072e-06
-2.61112e-06
-2.75563e-06
-2.88352e-06
-2.994e-06
-3.08132e-06
-3.1481e-06
-3.20134e-06
-3.24829e-06
-3.29274e-06
-3.3398e-06
-3.39384e-06
-3.45769e-06
-3.53353e-06
-3.62348e-06
-3.72954e-06
-3.85333e-06
-3.99603e-06
-4.15842e-06
-4.34095e-06
-4.54377e-06
-4.76676e-06
-5.00949e-06
-5.2713e-06
-5.5513e-06
-5.84847e-06
-6.16164e-06
-6.48959e-06
1.917e-06
1.57993e-06
1.24957e-06
9.25926e-07
6.08961e-07
2.98732e-07
-4.58083e-09
-3.00702e-07
-5.89311e-07
-8.70042e-07
-1.14247e-06
-1.4061e-06
-1.66031e-06
-1.9044e-06
-2.13753e-06
-2.35872e-06
-2.5669e-06
-2.76085e-06
-2.93936e-06
-3.10113e-06
-3.24526e-06
-3.37063e-06
-3.47296e-06
-3.55379e-06
-3.61882e-06
-3.67329e-06
-3.72268e-06
-3.77219e-06
-3.82564e-06
-3.88586e-06
-3.95524e-06
-4.03594e-06
-4.12981e-06
-4.23841e-06
-4.36298e-06
-4.50445e-06
-4.66354e-06
-4.84066e-06
-5.03604e-06
-5.2496e-06
-5.48111e-06
-5.7301e-06
-5.99598e-06
-6.27802e-06
-6.57541e-06
2.0759e-06
1.70556e-06
1.34269e-06
9.8745e-07
6.3997e-07
3.00468e-07
-3.07439e-08
-3.53284e-07
-6.66744e-07
-9.70673e-07
-1.26459e-06
-1.54795e-06
-1.82015e-06
-2.08049e-06
-2.32822e-06
-2.56248e-06
-2.78233e-06
-2.98678e-06
-3.17488e-06
-3.34554e-06
-3.49801e-06
-3.63164e-06
-3.7431e-06
-3.83214e-06
-3.90353e-06
-3.96339e-06
-4.01703e-06
-4.06874e-06
-4.12201e-06
-4.17977e-06
-4.24454e-06
-4.31844e-06
-4.40335e-06
-4.50083e-06
-4.61223e-06
-4.73867e-06
-4.88101e-06
-5.03991e-06
-5.21582e-06
-5.40897e-06
-5.61939e-06
-5.84694e-06
-6.09136e-06
-6.35222e-06
-6.62902e-06
2.18481e-06
1.78852e-06
1.40056e-06
1.02123e-06
6.50777e-07
2.89573e-07
-6.19597e-08
-4.03355e-07
-7.34137e-07
-1.05381e-06
-1.36187e-06
-1.65776e-06
-1.94091e-06
-2.21068e-06
-2.4664e-06
-2.70736e-06
-2.93281e-06
-3.142e-06
-3.33425e-06
-3.50883e-06
-3.66549e-06
-3.80285e-06
-3.91889e-06
-4.01263e-06
-4.08891e-06
-4.15333e-06
-4.21044e-06
-4.26413e-06
-4.3178e-06
-4.37438e-06
-4.43637e-06
-4.50592e-06
-4.58491e-06
-4.675e-06
-4.77764e-06
-4.89404e-06
-5.02522e-06
-5.172e-06
-5.33499e-06
-5.51464e-06
-5.71122e-06
-5.92483e-06
-6.15545e-06
-6.40291e-06
-6.66693e-06
2.25932e-06
1.84307e-06
1.43603e-06
1.0386e-06
6.5118e-07
2.74228e-07
-9.17433e-08
-4.46214e-07
-7.88672e-07
-1.11861e-06
-1.43551e-06
-1.73884e-06
-2.02809e-06
-2.30267e-06
-2.56205e-06
-2.80564e-06
-3.0329e-06
-3.24327e-06
-3.43635e-06
-3.61184e-06
-3.77083e-06
-3.90844e-06
-4.02656e-06
-4.12349e-06
-4.20355e-06
-4.27155e-06
-4.33159e-06
-4.38735e-06
-4.44209e-06
-4.49863e-06
-4.55944e-06
-4.62668e-06
-4.70229e-06
-4.78798e-06
-4.88526e-06
-4.99543e-06
-5.11962e-06
-5.25877e-06
-5.41367e-06
-5.58493e-06
-5.773e-06
-5.97819e-06
-6.20065e-06
-6.44038e-06
-6.69731e-06
2.31007e-06
1.8785e-06
1.45702e-06
1.04609e-06
6.46213e-07
2.57938e-07
-1.18174e-07
-4.81571e-07
-8.31726e-07
-1.16812e-06
-1.49027e-06
-1.79765e-06
-2.08982e-06
-2.36629e-06
-2.62661e-06
-2.87036e-06
-3.09716e-06
-3.30663e-06
-3.49853e-06
-3.67246e-06
-3.82743e-06
-3.96864e-06
-4.08799e-06
-4.18703e-06
-4.26988e-06
-4.34073e-06
-4.40336e-06
-4.46121e-06
-4.51739e-06
-4.57463e-06
-4.63534e-06
-4.7017e-06
-4.77567e-06
-4.85899e-06
-4.95323e-06
-5.05977e-06
-5.17985e-06
-5.31453e-06
-5.46472e-06
-5.63118e-06
-5.8145e-06
-6.01512e-06
-6.23335e-06
-6.46933e-06
-6.72313e-06
2.34403e-06
1.90063e-06
1.46811e-06
1.04703e-06
6.37954e-07
2.41497e-07
-1.41743e-07
-5.11199e-07
-8.66337e-07
-1.20665e-06
-1.53165e-06
-1.8409e-06
-2.13399e-06
-2.41052e-06
-2.67018e-06
-2.91264e-06
-3.13769e-06
-3.34511e-06
-3.53489e-06
-3.70687e-06
-3.86132e-06
-4.00033e-06
-4.11956e-06
-4.21982e-06
-4.30463e-06
-4.37768e-06
-4.44247e-06
-4.50225e-06
-4.55996e-06
-4.61822e-06
-4.67942e-06
-4.74572e-06
-4.81908e-06
-4.90128e-06
-4.99396e-06
-5.09859e-06
-5.21647e-06
-5.34877e-06
-5.4965e-06
-5.66054e-06
-5.84159e-06
-6.04021e-06
-6.25682e-06
-6.49169e-06
-6.74498e-06
2.36582e-06
1.9131e-06
1.472e-06
1.04314e-06
6.27161e-07
2.24712e-07
-1.63586e-07
-5.37156e-07
-8.95465e-07
-1.23802e-06
-1.56437e-06
-1.87411e-06
-2.1669e-06
-2.44243e-06
-2.70047e-06
-2.94083e-06
-3.16344e-06
-3.36823e-06
-3.55535e-06
-3.72492e-06
-3.87755e-06
-4.01434e-06
-4.13278e-06
-4.23353e-06
-4.31958e-06
-4.39421e-06
-4.46069e-06
-4.52208e-06
-4.58118e-06
-4.64051e-06
-4.7024e-06
-4.769e-06
-4.8423e-06
-4.9241e-06
-5.0161e-06
-5.11983e-06
-5.23667e-06
-5.36787e-06
-5.51454e-06
-5.67764e-06
-5.85798e-06
-6.05622e-06
-6.27286e-06
-6.50828e-06
-6.7627e-06
2.37866e-06
1.91842e-06
1.47048e-06
1.03552e-06
6.14232e-07
2.07295e-07
-1.84659e-07
-5.6105e-07
-9.2135e-07
-1.26508e-06
-1.59183e-06
-1.90124e-06
-2.19302e-06
-2.46695e-06
-2.72289e-06
-2.96075e-06
-3.18057e-06
-3.38244e-06
-3.56665e-06
-3.73348e-06
-3.88375e-06
-4.01823e-06
-4.13538e-06
-4.23606e-06
-4.32273e-06
-4.39837e-06
-4.46607e-06
-4.52871e-06
-4.58892e-06
-4.64916e-06
-4.71172e-06
-4.77873e-06
-4.85217e-06
-4.93391e-06
-5.02567e-06
-5.12904e-06
-5.24547e-06
-5.3763e-06
-5.52271e-06
-5.68573e-06
-5.86627e-06
-6.06506e-06
-6.2827e-06
-6.51961e-06
-6.7761e-06
2.38493e-06
1.91846e-06
1.46492e-06
1.02504e-06
5.99549e-07
1.89147e-07
-2.05527e-07
-5.83894e-07
-9.45433e-07
-1.28969e-06
-1.61628e-06
-1.92489e-06
-2.2153e-06
-2.48733e-06
-2.74095e-06
-2.97615e-06
-3.19308e-06
-3.39194e-06
-3.57315e-06
-3.73712e-06
-3.88477e-06
-4.01688e-06
-4.13241e-06
-4.23257e-06
-4.31937e-06
-4.39555e-06
-4.46404e-06
-4.52753e-06
-4.58854e-06
-4.64946e-06
-4.71252e-06
-4.77985e-06
-4.85346e-06
-4.93522e-06
-5.0269e-06
-5.13014e-06
-5.24648e-06
-5.37729e-06
-5.52383e-06
-5.68722e-06
-5.86842e-06
-6.06825e-06
-6.28737e-06
-6.52626e-06
-6.78528e-06
2.38644e-06
1.91468e-06
1.45644e-06
1.01247e-06
5.83552e-07
1.70382e-07
-2.26392e-07
-6.06189e-07
-9.68503e-07
-1.3129e-06
-1.63902e-06
-1.94661e-06
-2.23547e-06
-2.50552e-06
-2.75676e-06
-2.98931e-06
-3.20338e-06
-3.39928e-06
-3.57754e-06
-3.73866e-06
-3.88366e-06
-4.01331e-06
-4.127e-06
-4.22635e-06
-4.31291e-06
-4.38924e-06
-4.45813e-06
-4.52211e-06
-4.5836e-06
-4.64493e-06
-4.70828e-06
-4.77579e-06
-4.84946e-06
-4.93119e-06
-5.0228e-06
-5.12597e-06
-5.24229e-06
-5.37321e-06
-5.52004e-06
-5.68397e-06
-5.86603e-06
-6.06709e-06
-6.28787e-06
-6.5289e-06
-6.79059e-06
2.38461e-06
1.90827e-06
1.44598e-06
9.98531e-07
5.66717e-07
1.51256e-07
-2.47204e-07
-6.28087e-07
-9.90895e-07
-1.33522e-06
-1.66073e-06
-1.9672e-06
-2.25449e-06
-2.52257e-06
-2.77152e-06
-3.0015e-06
-3.21284e-06
-3.40591e-06
-3.58133e-06
-3.73969e-06
-3.88214e-06
-4.0093e-06
-4.12099e-06
-4.21936e-06
-4.30541e-06
-4.38158e-06
-4.45055e-06
-4.51472e-06
-4.57642e-06
-4.63789e-06
-4.70133e-06
-4.76883e-06
-4.84241e-06
-4.92401e-06
-5.01547e-06
-5.11853e-06
-5.23481e-06
-5.36583e-06
-5.51296e-06
-5.67745e-06
-5.86038e-06
-6.06268e-06
-6.28512e-06
-6.52828e-06
-6.79259e-06
2.38053e-06
1.90015e-06
1.4343e-06
9.83821e-07
5.49508e-07
1.32092e-07
-2.67777e-07
-6.49525e-07
-1.01267e-06
-1.35681e-06
-1.68166e-06
-1.98702e-06
-2.27279e-06
-2.539e-06
-2.78577e-06
-3.01335e-06
-3.22211e-06
-3.41252e-06
-3.58526e-06
-3.74101e-06
-3.88101e-06
-4.00568e-06
-4.11549e-06
-4.21269e-06
-4.29805e-06
-4.37383e-06
-4.44264e-06
-4.50675e-06
-4.56842e-06
-4.62983e-06
-4.69315e-06
-4.76047e-06
-4.83383e-06
-4.91517e-06
-5.00637e-06
-5.10922e-06
-5.22539e-06
-5.35644e-06
-5.50381e-06
-5.66878e-06
-5.85251e-06
-6.05596e-06
-6.27995e-06
-6.5251e-06
-6.79188e-06
2.37503e-06
1.89105e-06
1.42205e-06
9.68887e-07
5.32375e-07
1.13251e-07
-2.8783e-07
-6.70301e-07
-1.03369e-06
-1.37762e-06
-1.70181e-06
-2.00611e-06
-2.29046e-06
-2.55493e-06
-2.79969e-06
-3.02505e-06
-3.23143e-06
-3.41938e-06
-3.58964e-06
-3.74294e-06
-3.88059e-06
-4.00286e-06
-4.11096e-06
-4.20686e-06
-4.29144e-06
-4.36666e-06
-4.43514e-06
-4.49901e-06
-4.56046e-06
-4.62164e-06
-4.68469e-06
-4.75169e-06
-4.82469e-06
-4.90565e-06
-4.9965e-06
-5.09905e-06
-5.21501e-06
-5.346e-06
-5.49351e-06
-5.65887e-06
-5.84327e-06
-6.04773e-06
-6.27312e-06
-6.52008e-06
-6.7891e-06
2.36875e-06
1.88155e-06
1.40974e-06
9.54193e-07
5.1573e-07
9.50973e-08
-3.07049e-07
-6.90144e-07
-1.05373e-06
-1.39743e-06
-1.72102e-06
-2.02434e-06
-2.30739e-06
-2.57027e-06
-2.8132e-06
-3.03653e-06
-3.24075e-06
-3.42646e-06
-3.59444e-06
-3.74549e-06
-3.88093e-06
-4.00101e-06
-4.1075e-06
-4.20208e-06
-4.28577e-06
-4.36037e-06
-4.4284e-06
-4.4919e-06
-4.55301e-06
-4.61384e-06
-4.6765e-06
-4.74307e-06
-4.81562e-06
-4.89612e-06
-4.98653e-06
-5.08869e-06
-5.20436e-06
-5.33521e-06
-5.48275e-06
-5.64838e-06
-5.83333e-06
-6.03866e-06
-6.26525e-06
-6.51381e-06
-6.78484e-06
2.362e-06
1.8719e-06
1.39756e-06
9.39855e-07
4.99639e-07
7.76539e-08
-3.25442e-07
-7.09089e-07
-1.07283e-06
-1.41633e-06
-1.73935e-06
-2.04178e-06
-2.32365e-06
-2.58508e-06
-2.82634e-06
-3.04783e-06
-3.25008e-06
-3.43374e-06
-3.59963e-06
-3.74861e-06
-3.88201e-06
-4.00012e-06
-4.10499e-06
-4.19829e-06
-4.28104e-06
-4.35499e-06
-4.42248e-06
-4.48553e-06
-4.5462e-06
-4.60658e-06
-4.66876e-06
-4.73483e-06
-4.80685e-06
-4.88682e-06
-4.97671e-06
-5.07842e-06
-5.19373e-06
-5.32435e-06
-5.47184e-06
-5.63763e-06
-5.823e-06
-6.02904e-06
-6.25669e-06
-6.50665e-06
-6.77947e-06
2.35465e-06
1.86176e-06
1.38498e-06
9.25227e-07
4.83335e-07
6.00609e-08
-3.43939e-07
-7.28108e-07
-1.092e-06
-1.43529e-06
-1.75777e-06
-2.05935e-06
-2.34008e-06
-2.60012e-06
-2.83979e-06
-3.05951e-06
-3.25987e-06
-3.44155e-06
-3.60544e-06
-3.75242e-06
-3.88384e-06