/*--------------------------------*- C++ -*----------------------------------*\
| =========                 |                                                 |
| \\      /  F ield         | OpenFOAM: The Open Source CFD Toolbox           |
|  \\    /   O peration     | Version:  2312                                  |
|   \\  /    A nd           | Website:  www.openfoam.com                      |
|    \\/     M anipulation  |                                                 |
\*---------------------------------------------------------------------------*/
FoamFile
{
    version     2.0;
    format      ascii;
    arch        "LSB;label=32;scalar=64";
    class       surfaceScalarField;
    location    "36";
    object      phi;
}
// * * * * * * * * * * * * * * * * * * * * * * * * * * * * * * * * * * * * * //

dimensions      [0 3 -1 0 0 0 0];

oriented        oriented;

internalField   nonuniform List<scalar> 
9445
(
6.28097e-10
1.14385e-11
6.20806e-10
7.29089e-12
6.16285e-10
4.52098e-12
6.13782e-10
2.5026e-12
6.12852e-10
9.29777e-13
6.13288e-10
-4.35511e-13
6.15046e-10
-1.7583e-12
6.18057e-10
-3.01098e-12
6.22479e-10
-4.42171e-12
6.28835e-10
-6.35579e-12
6.38285e-10
-9.45057e-12
6.54535e-10
-1.62494e-11
6.90881e-10
-3.63465e-11
7.95072e-10
-1.04191e-10
-2.74017e-10
1.06909e-09
2.18997e-09
5.17637e-11
2.16353e-09
3.3731e-11
2.14645e-09
2.16008e-11
2.13622e-09
1.27279e-11
2.13134e-09
5.81647e-12
2.13106e-09
-1.59241e-13
2.13503e-09
-5.72878e-12
2.14305e-09
-1.1031e-11
2.15565e-09
-1.70187e-11
2.17422e-09
-2.4926e-11
2.20173e-09
-3.69572e-11
2.24536e-09
-5.98824e-11
2.31932e-09
-1.10312e-10
2.43788e-09
-2.22741e-10
-4.00352e-10
2.56421e-09
4.31632e-09
1.30967e-10
4.26328e-09
8.67743e-11
4.22801e-09
5.68705e-11
4.20578e-09
3.49492e-11
4.19373e-09
1.78724e-11
4.19036e-09
3.21072e-12
4.19471e-09
-1.00816e-11
4.20632e-09
-2.26437e-11
4.22595e-09
-3.66431e-11
4.25521e-09
-5.4191e-11
4.297e-09
-7.87445e-11
4.35616e-09
-1.19037e-10
4.43561e-09
-1.89765e-10
4.52084e-09
-3.07968e-10
-4.51366e-10
4.57185e-09
7.15873e-09
2.60018e-10
7.07042e-09
1.7508e-10
7.01009e-09
1.17209e-10
6.97037e-09
7.46639e-11
6.94671e-09
4.15287e-11
6.93661e-09
1.33106e-11
6.93821e-09
-1.16813e-11
6.95057e-09
-3.49963e-11
6.97399e-09
-6.00705e-11
7.00953e-09
-8.97315e-11
7.05807e-09
-1.27279e-10
7.11923e-09
-1.80201e-10
7.18608e-09
-2.56612e-10
7.23696e-09
-3.58849e-10
-4.6097e-10
7.24657e-09
1.0899e-08
4.49138e-10
1.07666e-08
3.07516e-10
1.06736e-08
2.10178e-10
1.061e-08
1.38304e-10
1.05692e-08
8.22892e-11
1.05473e-08
3.52129e-11
1.05417e-08
-6.04084e-12
1.05504e-08
-4.37606e-11
1.05725e-08
-8.21362e-11
1.06075e-08
-1.24742e-10
1.06537e-08
-1.73435e-10
1.0706e-08
-2.32569e-10
1.07534e-08
-3.0394e-10
1.07772e-08
-3.82689e-10
-4.49446e-10
1.07657e-08
1.57495e-08
7.04223e-10
1.55661e-08
4.90907e-10
1.54338e-08
3.42553e-10
1.53398e-08
2.32283e-10
1.52759e-08
1.4615e-10
1.52365e-08
7.4604e-11
1.52178e-08
1.26889e-11
1.52169e-08
-4.28555e-11
1.52311e-08
-9.63627e-11
1.52576e-08
-1.51238e-10
1.52924e-08
-2.08256e-10
1.53283e-08
-2.68426e-10
1.53543e-08
-3.29927e-10
1.53584e-08
-3.86778e-10
-4.27969e-10
1.53369e-08
2.19492e-08
1.02081e-09
2.17141e-08
7.25939e-10
2.15392e-08
5.17473e-10
2.14105e-08
3.60957e-10
2.13185e-08
2.38151e-10
2.12562e-08
1.36908e-10
2.12185e-08
5.04231e-11
2.12012e-08
-2.55644e-11
2.12001e-08
-9.52409e-11
2.12103e-08
-1.61419e-10
2.12262e-08
-2.24166e-10
2.12404e-08
-2.82669e-10
2.12448e-08
-3.34343e-10
2.12331e-08
-3.75102e-10
-4.00241e-10
2.12054e-08
2.97533e-08
1.376e-09
2.94782e-08
1.00111e-09
2.92658e-08
7.2988e-10
2.91036e-08
5.23157e-10
2.8982e-08
3.59688e-10
2.88937e-08
2.25215e-10
2.88326e-08
1.11585e-10
2.87933e-08
1.37394e-11
2.87703e-08
-7.22391e-11
2.87577e-08
-1.48822e-10
2.87493e-08
-2.15836e-10
2.87391e-08
-2.7244e-10
2.87219e-08
-3.17114e-10
2.86951e-08
-3.48348e-10
-3.65247e-10
2.86601e-08
3.94205e-08
1.72173e-09
3.91352e-08
1.28639e-09
3.8904e-08
9.61049e-10
3.87195e-08
7.07625e-10
3.85745e-08
5.04701e-10
3.84626e-08
3.37133e-10
3.83777e-08
1.96445e-10
3.83143e-08
7.72039e-11
3.8266e-08
-2.39734e-11
3.82273e-08
-1.10123e-10
3.81925e-08
-1.81068e-10
3.81573e-08
-2.37185e-10
3.81188e-08
-2.78612e-10
3.80764e-08
-3.05975e-10
-3.20432e-10
3.80316e-08
5.12062e-08
1.98855e-09
5.09605e-08
1.53204e-09
5.07459e-08
1.17566e-09
5.05639e-08
8.89606e-10
5.04124e-08
6.56249e-10
5.0288e-08
4.61482e-10
5.01863e-08
2.98113e-10
5.01025e-08
1.61068e-10
5.00316e-08
4.68926e-11
4.99684e-08
-4.68675e-11
4.99092e-08
-1.21931e-10
4.98514e-08
-1.79317e-10
4.97936e-08
-2.20819e-10
4.9736e-08
-2.48447e-10
-2.64341e-10
4.96799e-08
6.5391e-08
2.11073e-09
6.52419e-08
1.68112e-09
6.50894e-08
1.32817e-09
6.49451e-08
1.0339e-09
6.4814e-08
7.87345e-10
6.46976e-08
5.7782e-10
6.45945e-08
4.01287e-10
6.4502e-08
2.53546e-10
6.44174e-08
1.31465e-10
6.4338e-08
3.25857e-11
6.42615e-08
-4.54566e-11
6.41873e-08
-1.05095e-10
6.41151e-08
-1.48612e-10
6.40454e-08
-1.78826e-10
-1.98235e-10
6.39793e-08
8.2361e-08
2.06894e-09
8.23439e-08
1.69816e-09
8.22883e-08
1.38375e-09
8.22113e-08
1.11097e-09
8.21276e-08
8.7099e-10
8.20425e-08
6.62919e-10
8.19574e-08
4.86446e-10
8.18728e-08
3.3813e-10
8.17889e-08
2.1531e-10
8.17058e-08
1.15681e-10
8.16236e-08
3.67802e-11
8.15426e-08
-2.40655e-11
8.14638e-08
-6.9824e-11
8.1388e-08
-1.03062e-10
-1.26377e-10
8.13162e-08
1.02715e-07
1.89975e-09
1.02798e-07
1.61512e-09
1.02829e-07
1.35273e-09
1.02827e-07
1.11222e-09
1.02804e-07
8.94308e-10
1.02764e-07
7.03534e-10
1.0271e-07
5.40219e-10
1.02646e-07
4.01652e-10
1.02576e-07
2.85716e-10
1.02501e-07
1.90553e-10
1.02424e-07
1.14119e-10
1.02346e-07
5.39402e-11
1.02268e-07
7.46084e-12
1.02193e-07
-2.78394e-11
-5.41754e-11
1.02121e-07
1.27193e-07
1.66745e-09
1.27338e-07
1.46953e-09
1.27421e-07
1.27036e-09
1.27461e-07
1.07241e-09
1.27473e-07
8.81906e-10
1.27464e-07
7.12548e-10
1.27437e-07
5.67586e-10
1.27394e-07
4.4444e-10
1.27339e-07
3.40264e-10
1.27277e-07
2.53346e-10
1.27208e-07
1.8218e-10
1.27138e-07
1.24862e-10
1.27066e-07
7.93429e-11
1.26994e-07
4.35058e-11
1.55394e-11
1.26925e-07
1.56515e-07
1.42729e-09
1.56681e-07
1.30331e-09
1.56786e-07
1.16555e-09
1.56844e-07
1.01469e-09
1.56868e-07
8.58027e-10
1.56867e-07
7.13957e-10
1.56845e-07
5.88946e-10
1.56808e-07
4.81931e-10
1.56758e-07
3.89768e-10
1.567e-07
3.11482e-10
1.56636e-07
2.4626e-10
1.56568e-07
1.92678e-10
1.56498e-07
1.49065e-10
1.56428e-07
1.13713e-10
8.51866e-11
1.56359e-07
1.91179e-07
1.20102e-09
1.91341e-07
1.14134e-09
1.91451e-07
1.05592e-09
1.91513e-07
9.52522e-10
1.91539e-07
8.31589e-10
1.91537e-07
7.16589e-10
1.91511e-07
6.14042e-10
1.9147e-07
5.23456e-10
1.91417e-07
4.43103e-10
1.91355e-07
3.72921e-10
1.91288e-07
3.13425e-10
1.91217e-07
2.63814e-10
1.91143e-07
2.22597e-10
1.91069e-07
1.88378e-10
1.60031e-10
1.90994e-07
2.31318e-07
9.86738e-10
2.31466e-07
9.93538e-10
2.31566e-07
9.56122e-10
2.31627e-07
8.90815e-10
2.31649e-07
8.1012e-10
2.31644e-07
7.21924e-10
2.31618e-07
6.39177e-10
2.31577e-07
5.65174e-10
2.31521e-07
4.99053e-10
2.31454e-07
4.39504e-10
2.31381e-07
3.86622e-10
2.31303e-07
3.41402e-10
2.31223e-07
3.03223e-10
2.3114e-07
2.70936e-10
2.4363e-10
2.31057e-07
2.76482e-07
7.8963e-10
2.76617e-07
8.58624e-10
2.76703e-07
8.69563e-10
2.76755e-07
8.3848e-10
2.76772e-07
7.93803e-10
2.76761e-07
7.32329e-10
2.76732e-07
6.6812e-10
2.76689e-07
6.08577e-10
2.76633e-07
5.5524e-10
2.76565e-07
5.0773e-10
2.76487e-07
4.64591e-10
2.76402e-07
4.25871e-10
2.76313e-07
3.9197e-10
2.76222e-07
3.62614e-10
3.37335e-10
2.76128e-07
3.25113e-07
6.2608e-10
3.25234e-07
7.37395e-10
3.25321e-07
7.82395e-10
3.25371e-07
7.88349e-10
3.25394e-07
7.71098e-10
3.25388e-07
7.38683e-10
3.25357e-07
6.98958e-10
3.25309e-07
6.56468e-10
3.25248e-07
6.16159e-10
3.25177e-07
5.78779e-10
3.25097e-07
5.44254e-10
3.2501e-07
5.12959e-10
3.24917e-07
4.84995e-10
3.24819e-07
4.60246e-10
4.38449e-10
3.24718e-07
3.74051e-07
4.62976e-10
3.74181e-07
6.07813e-10
3.74276e-07
6.87823e-10
3.74338e-07
7.25879e-10
3.74373e-07
7.3609e-10
3.74383e-07
7.29246e-10
3.74369e-07
7.12593e-10
3.74335e-07
6.90129e-10
3.74286e-07
6.65339e-10
3.74224e-07
6.40651e-10
3.74151e-07
6.17061e-10
3.74069e-07
5.94986e-10
3.7398e-07
5.7463e-10
3.73884e-07
5.56119e-10
5.39566e-10
3.73783e-07
3.71421e-07
3.67403e-10
3.71503e-07
5.26468e-10
3.71566e-07
6.24036e-10
3.71611e-07
6.81711e-10
3.71634e-07
7.12306e-10
3.71639e-07
7.24317e-10
3.71628e-07
7.24241e-10
3.716e-07
7.17732e-10
3.71558e-07
7.07441e-10
3.71504e-07
6.94733e-10
3.71439e-07
6.81455e-10
3.71366e-07
6.68137e-10
3.71286e-07
6.55251e-10
3.71199e-07
6.43237e-10
6.31793e-10
3.71106e-07
3.17702e-07
3.03879e-10
3.17772e-07
4.56778e-10
3.17837e-07
5.58556e-10
3.17894e-07
6.24987e-10
3.1794e-07
6.66852e-10
3.17972e-07
6.91783e-10
3.17991e-07
7.0538e-10
3.17997e-07
7.11468e-10
3.17992e-07
7.12681e-10
3.17976e-07
7.10563e-10
3.17951e-07
7.06575e-10
3.17918e-07
7.0139e-10
3.17878e-07
6.95583e-10
3.17831e-07
6.8959e-10
6.8346e-10
3.1778e-07
2.65934e-07
2.83687e-10
2.65967e-07
4.2368e-10
2.66004e-07
5.21385e-10
2.6604e-07
5.89268e-10
2.66071e-07
6.35858e-10
2.66095e-07
6.67442e-10
2.66112e-07
6.88476e-10
2.66121e-07
7.02032e-10
2.66124e-07
7.10398e-10
2.66119e-07
7.15115e-10
2.66108e-07
7.17256e-10
2.66092e-07
7.1761e-10
2.66071e-07
7.16682e-10
2.66046e-07
7.14719e-10
7.11813e-10
2.66018e-07
2.18777e-07
2.83789e-10
2.18795e-07
4.05691e-10
2.18822e-07
4.94136e-10
2.18853e-07
5.58363e-10
2.18884e-07
6.0489e-10
2.18913e-07
6.38575e-10
2.18939e-07
6.62952e-10
2.1896e-07
6.80536e-10
2.18977e-07
6.93137e-10
2.18991e-07
7.02012e-10
2.19e-07
7.08037e-10
2.19006e-07
7.11827e-10
2.19008e-07
7.13784e-10
2.19009e-07
7.14188e-10
7.13241e-10
2.19008e-07
1.7736e-07
2.87972e-10
1.77376e-07
3.89213e-10
1.77405e-07
4.65118e-10
1.77441e-07
5.22105e-10
1.77481e-07
5.65037e-10
1.77522e-07
5.97543e-10
1.77563e-07
6.22278e-10
1.77602e-07
6.41133e-10
1.7764e-07
6.55449e-10
1.77676e-07
6.66181e-10
1.7771e-07
6.74002e-10
1.77742e-07
6.79398e-10
1.77773e-07
6.82719e-10
1.77803e-07
6.84197e-10
6.83973e-10
1.77833e-07
1.41976e-07
2.81478e-10
1.42003e-07
3.62249e-10
1.42043e-07
4.24598e-10
1.42092e-07
4.72797e-10
1.42147e-07
5.10307e-10
1.42205e-07
5.39685e-10
1.42264e-07
5.62798e-10
1.42325e-07
5.80985e-10
1.42385e-07
5.95205e-10
1.42445e-07
6.06152e-10
1.42505e-07
6.14323e-10
1.42564e-07
6.20076e-10
1.42623e-07
6.23665e-10
1.42682e-07
6.25259e-10
6.24969e-10
1.42741e-07
1.12408e-07
2.57378e-10
1.1245e-07
3.19879e-10
1.12505e-07
3.69488e-10
1.12569e-07
4.0891e-10
1.12639e-07
4.40464e-10
1.12713e-07
4.65856e-10
1.12789e-07
4.8634e-10
1.12867e-07
5.0282e-10
1.12947e-07
5.15947e-10
1.13027e-07
5.26197e-10
1.13107e-07
5.33908e-10
1.13188e-07
5.39328e-10
1.13269e-07
5.42636e-10
1.1335e-07
5.43959e-10
5.43387e-10
1.13432e-07
8.81239e-08
2.17792e-10
8.81787e-08
2.65106e-10
8.82445e-08
3.03702e-10
8.83182e-08
3.35184e-10
8.83977e-08
3.61027e-10
8.84812e-08
3.82324e-10
8.85677e-08
3.99871e-10
8.86562e-08
4.14243e-10
8.87463e-08
4.25856e-10
8.88375e-08
4.35016e-10
8.89295e-08
4.41945e-10
8.9022e-08
4.4681e-10
8.91149e-08
4.49735e-10
8.9208e-08
4.50813e-10
4.50112e-10
8.93013e-08
6.84383e-08
1.70086e-10
6.84981e-08
2.05297e-10
6.8567e-08
2.34798e-10
6.86427e-08
2.59466e-10
6.87235e-08
2.80201e-10
6.88082e-08
2.97665e-10
6.88957e-08
3.12331e-10
6.89854e-08
3.24542e-10
6.90767e-08
3.34548e-10
6.91692e-08
3.42537e-10
6.92625e-08
3.48649e-10
6.93563e-08
3.52989e-10
6.94504e-08
3.55644e-10
6.95446e-08
3.56676e-10
3.56141e-10
6.96385e-08
5.26371e-08
1.22333e-10
5.26943e-08
1.48109e-10
5.27588e-08
1.70272e-10
5.2829e-08
1.89245e-10
5.29037e-08
2.05555e-10
5.29817e-08
2.1958e-10
5.30625e-08
2.31575e-10
5.31453e-08
2.4173e-10
5.32297e-08
2.50185e-10
5.33152e-08
2.5705e-10
5.34014e-08
2.62403e-10
5.34881e-08
2.66311e-10
5.35749e-08
2.6883e-10
5.36616e-08
2.70001e-10
2.69869e-10
5.37479e-08
4.00546e-08
8.05307e-11
4.01037e-08
9.9031e-11
4.01586e-08
1.1534e-10
4.02183e-08
1.29613e-10
4.02817e-08
1.42155e-10
4.03481e-08
1.53155e-10
4.04169e-08
1.62736e-10
4.04877e-08
1.70993e-10
4.05599e-08
1.77994e-10
4.06331e-08
1.83796e-10
4.07071e-08
1.8844e-10
4.07814e-08
1.91964e-10
4.08559e-08
1.94401e-10
4.09301e-08
1.9578e-10
1.96133e-10
4.10038e-08
3.01065e-08
4.77646e-11
3.01448e-08
6.06967e-11
3.01878e-08
7.23757e-11
3.02346e-08
8.28155e-11
3.02846e-08
9.21869e-11
3.03371e-08
1.00567e-10
3.03919e-08
1.08001e-10
3.04483e-08
1.14526e-10
3.05062e-08
1.20169e-10
3.0565e-08
1.24954e-10
3.06245e-08
1.28898e-10
3.06845e-08
1.32019e-10
3.07446e-08
1.34336e-10
3.08045e-08
1.35865e-10
1.36631e-10
3.0864e-08
2.2296e-08
2.46051e-11
2.23234e-08
3.33195e-11
2.23544e-08
4.13883e-11
2.23884e-08
4.87515e-11
2.24251e-08
5.55014e-11
2.2464e-08
6.16518e-11
2.25048e-08
6.72079e-11
2.25472e-08
7.21767e-11
2.25908e-08
7.65616e-11
2.26354e-08
8.03678e-11
2.26807e-08
8.35972e-11
2.27264e-08
8.62571e-11
2.27724e-08
8.83538e-11
2.28184e-08
8.98996e-11
9.09071e-11
2.28641e-08
1.62083e-08
9.9703e-12
1.62261e-08
1.55478e-11
1.62466e-08
2.08677e-11
1.62696e-08
2.58227e-11
1.62946e-08
3.04581e-11
1.63215e-08
3.47597e-11
1.635e-08
3.8716e-11
1.63798e-08
4.23194e-11
1.64108e-08
4.55627e-11
1.64428e-08
4.84419e-11
1.64754e-08
5.09517e-11
1.65086e-08
5.30923e-11
1.65421e-08
5.48635e-11
1.65757e-08
5.62735e-11
5.73286e-11
1.66093e-08
1.15003e-08
1.97963e-12
1.15106e-08
5.29509e-12
1.15228e-08
8.5922e-12
1.15369e-08
1.17275e-11
1.15527e-08
1.47163e-11
1.15699e-08
1.75393e-11
1.15884e-08
2.01813e-11
1.16081e-08
2.26303e-11
1.16288e-08
2.48762e-11
1.16503e-08
2.69119e-11
1.16725e-08
2.87297e-11
1.16953e-08
3.03265e-11
1.17185e-08
3.1699e-11
1.17419e-08
3.28529e-11
3.37917e-11
1.17654e-08
7.89015e-09
-1.40979e-12
7.89509e-09
3.56567e-13
7.90147e-09
2.21593e-12
7.90915e-09
4.04398e-12
7.91806e-09
5.81107e-12
7.92809e-09
7.50766e-12
7.93915e-09
9.12208e-12
7.95113e-09
1.06434e-11
7.96395e-09
1.2063e-11
7.97748e-09
1.33746e-11
7.99164e-09
1.4571e-11
8.00632e-09
1.5648e-11
8.02142e-09
1.66018e-11
8.03683e-09
1.74365e-11
1.81559e-11
8.05247e-09
5.14813e-09
-2.04815e-12
5.14974e-09
-1.25196e-12
5.15231e-09
-3.5018e-13
5.15577e-09
5.84292e-13
5.16007e-09
1.50527e-12
5.16518e-09
2.39879e-12
5.17104e-09
3.26201e-12
5.1776e-09
4.08769e-12
5.18479e-09
4.87064e-12
5.19256e-09
5.60685e-12
5.20084e-09
6.29125e-12
5.20957e-09
6.91993e-12
5.21868e-09
7.49005e-12
5.22811e-09
8.0047e-12
8.46939e-12
5.2378e-09
3.0882e-09
-1.39864e-12
3.0881e-09
-1.14834e-12
3.08854e-09
-7.9574e-13
3.08954e-09
-4.15835e-13
3.09109e-09
-3.87437e-14
3.09315e-09
3.34725e-13
3.09571e-09
7.01017e-13
3.09874e-09
1.05543e-12
3.10222e-09
1.39646e-12
3.1061e-09
1.72277e-12
3.11036e-09
2.03153e-12
3.11496e-09
2.31966e-12
3.11986e-09
2.58624e-12
3.12504e-09
2.83329e-12
3.06733e-12
3.13044e-09
1.5608e-09
-4.96181e-13
1.56012e-09
-4.76558e-13
1.55972e-09
-3.93032e-13
1.55961e-09
-3.02598e-13
1.55978e-09
-2.12685e-13
1.56024e-09
-1.21885e-13
1.56097e-09
-3.22463e-14
1.56197e-09
5.58487e-14
1.56323e-09
1.42141e-13
1.56472e-09
2.2637e-13
1.56645e-09
3.0779e-13
1.56838e-09
3.84118e-13
1.57051e-09
4.56709e-13
1.57282e-09
5.25671e-13
5.96359e-13
1.57529e-09
4.46492e-10
4.46016e-10
4.45623e-10
4.4532e-10
4.45107e-10
4.44985e-10
4.44953e-10
4.45009e-10
4.45151e-10
4.45378e-10
4.45685e-10
4.46069e-10
4.46526e-10
4.47052e-10
4.47648e-10
1.27638e-09
-5.46615e-10
3.39325e-10
1.5709e-09
-5.02811e-10
2.08288e-10
1.86552e-09
-3.97261e-10
1.02641e-10
2.15311e-09
-2.96058e-10
8.46547e-12
2.43137e-09
-2.06574e-10
-7.16797e-11
2.70083e-09
-1.37663e-10
-1.31795e-10
2.96283e-09
-9.11008e-11
-1.70897e-10
3.21852e-09
-6.71126e-11
-1.88586e-10
3.46901e-09
-6.53454e-11
-1.85146e-10
3.71524e-09
-8.43902e-11
-1.61832e-10
3.95795e-09
-1.2161e-10
-1.211e-10
4.19773e-09
-1.72549e-10
-6.72388e-11
4.4351e-09
-2.29683e-10
-7.68403e-12
4.67065e-09
-2.80573e-10
4.50235e-11
4.90538e-09
-3.05117e-10
7.03908e-11
5.14119e-09
-2.72253e-10
3.64346e-11
5.38153e-09
-1.37348e-10
-1.02987e-10
5.63211e-09
1.62701e-10
-4.13283e-10
5.90183e-09
7.01833e-10
-9.71553e-10
6.20279e-09
1.56037e-09
-1.86133e-09
6.54791e-09
2.79565e-09
-3.14077e-09
6.94793e-09
4.35364e-09
-4.75366e-09
7.33571e-09
5.05195e-09
-5.43973e-09
7.66988e-09
4.86054e-09
-5.19472e-09
7.94103e-09
4.20338e-09
-4.47453e-09
8.14735e-09
3.25531e-09
-3.46164e-09
8.29041e-09
2.15981e-09
-2.30287e-09
8.37241e-09
1.01793e-09
-1.09993e-09
8.39507e-09
-9.85894e-11
7.59319e-11
8.35961e-09
-1.13504e-09
1.1705e-09
8.2674e-09
-2.04715e-09
2.13936e-09
8.12047e-09
-2.79942e-09
2.94635e-09
7.92184e-09
-3.3661e-09
3.56474e-09
7.67539e-09
-3.73225e-09
3.9787e-09
7.38553e-09
-3.89374e-09
4.18359e-09
7.05663e-09
-3.85563e-09
4.18453e-09
6.69253e-09
-3.62936e-09
3.99347e-09
6.29634e-09
-3.22875e-09
3.62494e-09
5.87079e-09
-2.66523e-09
3.09079e-09
5.41851e-09
-1.94316e-09
2.39544e-09
4.94096e-09
-1.0613e-09
1.53885e-09
4.43425e-09
-3.0323e-11
5.37041e-10
3.88758e-09
1.07048e-09
-5.23818e-10
3.31341e-09
2.03698e-09
-1.46281e-09
2.2561e-09
2.98252e-09
-1.92521e-09
2.64515e-09
-6.2756e-10
2.81657e-09
-6.74227e-10
3.04843e-09
-6.29121e-10
3.30611e-09
-5.53739e-10
3.57407e-09
-4.74533e-10
3.84414e-09
-4.07735e-10
4.11291e-09
-3.59863e-10
4.37889e-09
-3.331e-10
4.6417e-09
-3.2815e-10
4.90137e-09
-3.44064e-10
5.15813e-09
-3.78369e-10
5.41224e-09
-4.26658e-10
5.66401e-09
-4.81449e-10
5.91394e-09
-5.30508e-10
6.16305e-09
-5.5422e-10
6.41335e-09
-5.22554e-10
6.66856e-09
-3.92564e-10
6.93495e-09
-1.03682e-10
7.22225e-09
4.14532e-10
7.54387e-09
1.23875e-09
7.91429e-09
2.42523e-09
8.34626e-09
3.92166e-09
8.76883e-09
4.62938e-09
9.1368e-09
4.49258e-09
9.43896e-09
3.90122e-09
9.67239e-09
3.02189e-09
9.83787e-09
1.99432e-09
9.93716e-09
9.18651e-10
9.97173e-09
-1.33162e-10
9.9429e-09
-1.10621e-09
9.85232e-09
-1.95657e-09
9.70259e-09
-2.64969e-09
9.49752e-09
-3.16103e-09
9.24209e-09
-3.47682e-09
8.94209e-09
-3.59374e-09
8.60373e-09
-3.51727e-09
8.23331e-09
-3.25894e-09
7.83746e-09
-2.83291e-09
7.42433e-09
-2.25209e-09
7.00582e-09
-1.52466e-09
6.60059e-09
-6.56061e-10
6.23583e-09
3.34435e-10
5.94953e-09
1.35678e-09
5.80248e-09
2.18404e-09
2.31875e-09
5.73982e-09
4.58462e-09
-6.40328e-10
4.6575e-09
-7.47113e-10
4.8001e-09
-7.71721e-10
4.99656e-09
-7.502e-10
5.22501e-09
-7.02977e-10
5.47162e-09
-6.54345e-10
5.72785e-09
-6.16099e-10
5.98858e-09
-5.93825e-10
6.25093e-09
-5.90505e-10
6.51333e-09
-6.06462e-10
6.77489e-09
-6.39929e-10
7.03515e-09
-6.86921e-10
7.29396e-09
-7.40252e-10
7.55152e-09
-7.88071e-10
7.80871e-09
-8.11411e-10
8.06759e-09
-7.81428e-10
8.33211e-09
-6.57089e-10
8.60903e-09
-3.80604e-10
8.90899e-09
1.14572e-10
9.24681e-09
9.00932e-10
9.63861e-09
2.03344e-09
1.00995e-08
3.46079e-09
1.05554e-08
4.17342e-09
1.09572e-08
4.09076e-09
1.12915e-08
3.56694e-09
1.15538e-08
2.7596e-09
1.17439e-08
1.80428e-09
1.18627e-08
7.99799e-10
1.19116e-08
-1.82001e-10
1.18917e-08
-1.08639e-09
1.18053e-08
-1.87011e-09
1.16555e-08
-2.49988e-09
1.14471e-08
-2.95272e-09
1.11867e-08
-3.21633e-09
1.08815e-08
-3.28862e-09
1.05403e-08
-3.17599e-09
1.01722e-08
-2.89087e-09
9.78821e-09
-2.44894e-09
9.4026e-09
-1.86648e-09
9.03659e-09
-1.15866e-09
8.72317e-09
-3.42642e-10
8.50892e-09
5.48689e-10
8.4424e-09
1.42329e-09
8.53661e-09
2.08983e-09
2.22382e-09
8.63154e-09
7.22161e-09
-6.15371e-10
7.22721e-09
-7.52714e-10
7.285e-09
-8.29509e-10
7.39972e-09
-8.64924e-10
7.56343e-09
-8.66685e-10
7.76049e-09
-8.51408e-10
7.98011e-09
-8.35718e-10
8.21426e-09
-8.2797e-10
8.45755e-09
-8.33795e-10
8.70633e-09
-8.55243e-10
8.95818e-09
-8.91779e-10
9.21152e-09
-9.40266e-10
9.46541e-09
-9.94144e-10
9.71955e-09
-1.04221e-09
9.97449e-09
-1.06636e-09
1.02322e-08
-1.03914e-09
1.04968e-08
-9.2172e-10
1.07756e-08
-6.59357e-10
1.108e-08
-1.89845e-10
1.14264e-08
5.545e-10
1.18327e-08
1.62717e-09
1.23165e-08
2.97697e-09
1.28022e-08
3.68776e-09
1.32362e-08
3.65674e-09
1.36024e-08
3.20074e-09
1.38944e-08
2.46759e-09
1.41106e-08
1.58813e-09
1.42509e-08
6.59428e-10
1.43163e-08
-2.47334e-10
1.43079e-08
-1.07804e-09
1.42284e-08
-1.79057e-09
1.40818e-08
-2.3533e-09
1.38743e-08
-2.74517e-09
1.36137e-08
-2.95578e-09
1.33098e-08
-2.98467e-09
1.29735e-08
-2.83973e-09
1.26177e-08
-2.53506e-09
1.22576e-08
-2.08882e-09
1.19129e-08
-1.52177e-09
1.16112e-08
-8.56976e-10
1.13916e-08
-1.23054e-10
1.13025e-08
6.37773e-10
1.13815e-08
1.3443e-09
1.16099e-08
1.86148e-09
2.01714e-09
1.18165e-08
1.07238e-08
-5.73511e-10
1.0686e-08
-7.14907e-10
1.06804e-08
-8.23905e-10
1.0717e-08
-9.01472e-10
1.07994e-08
-9.49083e-10
1.09262e-08
-9.78268e-10
1.10853e-08
-9.94791e-10
1.12688e-08
-1.01144e-09
1.147e-08
-1.03506e-09
1.16837e-08
-1.06897e-09
1.1906e-08
-1.11403e-09
1.21339e-08
-1.16822e-09
1.23657e-08
-1.22587e-09
1.26001e-08
-1.27668e-09
1.28375e-08
-1.3037e-09
1.30794e-08
-1.28109e-09
1.33303e-08
-1.17256e-09
1.35976e-08
-9.26679e-10
1.38939e-08
-4.86111e-10
1.42371e-08
2.11278e-10
1.46468e-08
1.21744e-09
1.51436e-08
2.48014e-09
1.5652e-08
3.17942e-09
1.61139e-08
3.19484e-09
1.65097e-08
2.80492e-09
1.68307e-08
2.14663e-09
1.70732e-08
1.34555e-09
1.72363e-08
4.96392e-10
1.73199e-08
-3.30934e-10
1.73254e-08
-1.08354e-09
1.72558e-08
-1.72097e-09
1.71162e-08
-2.21375e-09
1.69142e-08
-2.54317e-09
1.66596e-08
-2.70113e-09
1.63641e-08
-2.68924e-09
1.60418e-08
-2.51736e-09
1.57085e-08
-2.20177e-09
1.53832e-08
-1.76354e-09
1.50892e-08
-1.22779e-09
1.4856e-08
-6.23754e-10
1.47203e-08
1.2639e-11
1.472e-08
6.3803e-10
1.48758e-08
1.18859e-09
1.5155e-08
1.58226e-09
1.73686e-09
1.54353e-08
1.529e-08
-5.26649e-10
1.52313e-08
-6.5614e-10
1.51827e-08
-7.75387e-10
1.5159e-08
-8.77676e-10
1.51677e-08
-9.57853e-10
1.52143e-08
-1.02485e-09
1.52965e-08
-1.07697e-09
1.54088e-08
-1.12376e-09
1.55452e-08
-1.17147e-09
1.57003e-08
-1.2241e-09
1.58696e-08
-1.2833e-09
1.60493e-08
-1.34794e-09
1.62368e-08
-1.4133e-09
1.64302e-08
-1.47014e-09
1.66293e-08
-1.50282e-09
1.68356e-08
-1.48734e-09
1.70534e-08
-1.39037e-09
1.72907e-08
-1.16399e-09
1.75609e-08
-7.56338e-10
1.78839e-08
-1.11722e-10
1.82809e-08
8.20456e-10
1.87756e-08
1.98545e-09
1.92951e-08
2.65989e-09
1.97769e-08
2.71305e-09
2.0197e-08
2.38484e-09
2.05436e-08
1.80001e-09
2.0811e-08
1.07819e-09
2.09963e-08
3.11086e-10
2.10988e-08
-4.33469e-10
2.11199e-08
-1.10456e-09
2.10629e-08
-1.66404e-09
2.09343e-08
-2.08511e-09
2.0743e-08
-2.35188e-09
2.05008e-08
-2.4589e-09
2.02218e-08
-2.41024e-09
1.99224e-08
-2.21796e-09
1.96212e-08
-1.90065e-09
1.93397e-08
-1.48198e-09
1.91019e-08
-9.90047e-10
1.89353e-08
-4.57095e-10
1.88676e-08
8.02794e-11
1.89235e-08
5.82143e-10
1.9108e-08
1.00414e-09
1.93886e-08
1.3016e-09
1.44162e-09
1.96839e-08
2.11578e-08
-4.79047e-10
2.10927e-08
-5.91005e-10
2.10222e-08
-7.04894e-10
2.0958e-08
-8.13523e-10
2.0912e-08
-9.11814e-10
2.08887e-08
-1.00151e-09
2.0893e-08
-1.08135e-09
2.09247e-08
-1.15538e-09
2.09809e-08
-1.22768e-09
2.10581e-08
-1.30132e-09
2.11526e-08
-1.37775e-09
2.12608e-08
-1.45615e-09
2.13798e-08
-1.53239e-09
2.15079e-08
-1.59817e-09
2.16443e-08
-1.63926e-09
2.17905e-08
-1.63356e-09
2.19513e-08
-1.55111e-09
2.21349e-08
-1.34759e-09
2.23558e-08
-9.77245e-10
2.2636e-08
-3.91955e-10
2.29983e-08
4.58206e-10
2.34696e-08
1.51413e-09
2.39834e-08
2.1461e-09
2.44723e-08
2.22412e-09
2.49071e-08
1.95002e-09
2.52726e-08
1.43458e-09
2.556e-08
7.90749e-10
2.57647e-08
1.06405e-10
2.58849e-08
-5.53642e-10
2.59216e-08
-1.14132e-09
2.58791e-08
-1.62152e-09
2.57647e-08
-1.97068e-09
2.5589e-08
-2.17617e-09
2.53656e-08
-2.23552e-09
2.51107e-08
-2.15535e-09
2.48427e-08
-1.94994e-09
2.45818e-08
-1.63974e-09
2.43498e-08
-1.24999e-09
2.41694e-08
-8.0964e-10
2.40625e-08
-3.50279e-10
2.40477e-08
9.51025e-11
2.41357e-08
4.94216e-10
2.43214e-08
8.18378e-10
2.45774e-08
1.0456e-09
1.16607e-09
2.4853e-08
2.86105e-08
-4.2941e-10
2.85435e-08
-5.24022e-10
2.84641e-08
-6.25487e-10
2.83794e-08
-7.28857e-10
2.82978e-08
-8.30201e-10
2.82246e-08
-9.28294e-10
2.81656e-08
-1.02232e-09
2.81235e-08
-1.11329e-09
2.80989e-08
-1.20313e-09
2.80911e-08
-1.29349e-09
2.80982e-08
-1.3849e-09
2.81183e-08
-1.4762e-09
2.81492e-08
-1.56333e-09
2.81897e-08
-1.63867e-09
2.82397e-08
-1.68922e-09
2.83009e-08
-1.69473e-09
2.83787e-08
-1.62895e-09
2.84821e-08
-1.45102e-09
2.86269e-08
-1.12197e-09
2.88375e-08
-6.0257e-10
2.91379e-08
1.57751e-10
2.95587e-08
1.09332e-09
3.0044e-08
1.66083e-09
3.05218e-08
1.74634e-09
3.09566e-08
1.51517e-09
3.13293e-08
1.0619e-09
3.1628e-08
4.92055e-10
3.18456e-08
-1.11209e-10
3.19792e-08
-6.87198e-10
3.20295e-08
-1.19166e-09
3.20013e-08
-1.5933e-09
3.1903e-08
-1.8724e-09
3.17467e-08
-2.01987e-09
3.15476e-08
-2.03637e-09
3.13232e-08
-1.93101e-09
3.10932e-08
-1.71986e-09
3.08778e-08
-1.42438e-09
3.06977e-08
-1.06985e-09
3.05719e-08
-6.83852e-10
3.05162e-08
-2.94595e-10
3.05401e-08
7.11875e-11
3.06452e-08
3.89107e-10
3.08213e-08
6.42322e-10
3.10461e-08
8.20789e-10
9.24101e-10
3.1288e-08
3.79762e-08
-3.73988e-10
3.79055e-08
-4.53392e-10
3.78209e-08
-5.40872e-10
3.77256e-08
-6.33522e-10
3.7624e-08
-7.2857e-10
3.75201e-08
-8.24387e-10
3.74179e-08
-9.20137e-10
3.73204e-08
-1.01579e-09
3.72293e-08
-1.11204e-09
3.71453e-08
-1.20951e-09
3.70684e-08
-1.30796e-09
3.6998e-08
-1.40579e-09
3.69335e-08
-1.49884e-09
3.68748e-08
-1.57999e-09
3.68229e-08
-1.63733e-09
3.67805e-08
-1.65228e-09
3.67543e-08
-1.60277e-09
3.67542e-08
-1.45091e-09
3.67973e-08
-1.16509e-09
3.69114e-08
-7.1667e-10
3.71214e-08
-5.22515e-11
3.74612e-08
7.53515e-10
3.78906e-08
1.23138e-09
3.83338e-08
1.30315e-09
3.87486e-08
1.10037e-09
3.91118e-08
6.98705e-10
3.94081e-08
1.95798e-10
3.96278e-08
-3.30919e-10
3.97666e-08
-8.2603e-10
3.98251e-08
-1.25013e-09
3.98083e-08
-1.57654e-09
3.97257e-08
-1.7898e-09
3.95905e-08
-1.88462e-09
3.94188e-08
-1.86469e-09
3.9229e-08
-1.74121e-09
3.90405e-08
-1.53132e-09
3.88724e-08
-1.25634e-09
3.87426e-08
-9.40042e-10
3.86657e-08
-6.06912e-10
3.86514e-08
-2.80339e-10
3.87028e-08
1.98203e-11
3.88164e-08
2.755e-10
3.89805e-08
4.78287e-10
3.91774e-08
6.23813e-10
7.14749e-10
3.93868e-08
4.96159e-08
-3.09925e-10
4.95386e-08
-3.76122e-10
4.94478e-08
-4.50047e-10
4.93444e-08
-5.30136e-10
4.92304e-08
-6.14572e-10
4.91079e-08
-7.01925e-10
4.89791e-08
-7.91298e-10
4.88456e-08
-8.82281e-10
4.87084e-08
-9.74898e-10
4.85681e-08
-1.06921e-09
4.84247e-08
-1.16456e-09
4.82782e-08
-1.25927e-09
4.81286e-08
-1.34922e-09
4.79766e-08
-1.42802e-09
4.78243e-08
-1.48504e-09
4.76754e-08
-1.50329e-09
4.75381e-08
-1.46548e-09
4.74234e-08
-1.33621e-09
4.735e-08
-1.09168e-09
4.73487e-08
-7.15465e-10
4.74457e-08
-1.49195e-10
4.76775e-08
5.21713e-10
4.80237e-08
8.85129e-10
4.84062e-08
9.20688e-10
4.87771e-08
7.29491e-10
4.91098e-08
3.66028e-10
4.93854e-08
-7.98276e-11
4.9592e-08
-5.37525e-10
4.97239e-08
-9.5795e-10
4.97814e-08
-1.30759e-09
4.97698e-08
-1.56501e-09
4.96994e-08
-1.71935e-09
4.95838e-08
-1.76907e-09
4.94397e-08
-1.72055e-09
4.92849e-08
-1.58645e-09
4.91376e-08
-1.38404e-09
4.90147e-08
-1.13335e-09
4.89301e-08
-8.55453e-10
4.88939e-08
-5.70788e-10
4.89112e-08
-2.97616e-10
4.89817e-08
-5.06899e-11
4.90983e-08
1.58923e-10
4.92509e-08
3.25649e-10
4.94259e-08
4.48811e-10
5.3143e-10
4.96093e-08
6.39068e-08
-2.37387e-10
6.38225e-08
-2.91799e-10
6.37254e-08
-3.52947e-10
6.36153e-08
-4.20075e-10
6.34928e-08
-4.92067e-10
6.33587e-08
-5.67799e-10
6.32137e-08
-6.46365e-10
6.30586e-08
-7.2712e-10
6.28933e-08
-8.09623e-10
6.27176e-08
-8.93491e-10
6.25307e-08
-9.77716e-10
6.23322e-08
-1.06069e-09
6.21214e-08
-1.13848e-09
6.18991e-08
-1.20568e-09
6.16672e-08
-1.25319e-09
6.14297e-08
-1.26574e-09
6.11957e-08
-1.23152e-09
6.09768e-08
-1.11733e-09
6.07928e-08
-9.07667e-10
6.06762e-08
-5.98839e-10
6.06547e-08
-1.27667e-10
6.07671e-08
4.09255e-10
6.10109e-08
6.41345e-10
6.13092e-08
6.22402e-10
6.16132e-08
4.25536e-10
6.18937e-08
8.55053e-11
6.21288e-08
-3.14897e-10
6.23046e-08
-7.13388e-10
6.24147e-08
-1.06806e-09
6.24592e-08
-1.35205e-09
6.24438e-08
-1.54959e-09
6.23789e-08
-1.65448e-09
6.22784e-08
-1.6686e-09
6.21583e-08
-1.60043e-09
6.20351e-08
-1.46327e-09
6.19247e-08
-1.27359e-09
6.18406e-08
-1.04925e-09
6.17931e-08
-8.08016e-10
6.17885e-08
-5.66151e-10
6.18283e-08
-3.3743e-10
6.19099e-08
-1.3229e-10
6.20259e-08
4.29203e-11
6.21682e-08
1.83405e-10
6.2326e-08
2.90979e-10
3.67904e-10
6.24895e-08
8.12387e-08
-1.59912e-10
8.11505e-08
-2.03614e-10
8.10504e-08
-2.52801e-10
8.09374e-08
-3.07154e-10
8.08114e-08
-3.6602e-10
8.06722e-08
-4.2857e-10
8.05198e-08
-4.93969e-10
8.03541e-08
-5.61439e-10
8.01747e-08
-6.30218e-10
7.99807e-08
-6.99553e-10
7.97711e-08
-7.68061e-10
7.95446e-08
-8.34169e-10
7.93001e-08
-8.94032e-10
7.90377e-08
-9.4322e-10
7.87586e-08
-9.74139e-10
7.84663e-08
-9.73449e-10
7.81694e-08
-9.34643e-10
7.78792e-08
-8.27057e-10
7.7616e-08
-6.44478e-10
7.74089e-08
-3.91744e-10
7.729e-08
-8.74059e-12
7.73028e-08
3.96435e-10
7.74397e-08
5.04412e-10
7.76399e-08
4.22253e-10
7.78642e-08
2.01243e-10
7.80778e-08
-1.28138e-10
7.82567e-08
-4.93822e-10
7.83866e-08
-8.43289e-10
7.84612e-08
-1.14265e-09
7.8481e-08
-1.37179e-09
7.8452e-08
-1.52066e-09
7.83849e-08
-1.58735e-09
7.82929e-08
-1.57659e-09
7.81906e-08
-1.49812e-09
7.80924e-08
-1.36507e-09
7.80111e-08
-1.19233e-09
7.7957e-08
-9.95133e-10
7.79368e-08
-7.87849e-10
7.79537e-08
-5.83027e-10
7.80071e-08
-3.90784e-10
7.80932e-08
-2.18437e-10
7.82066e-08
-7.04329e-11
7.83384e-08
5.15979e-11
7.8482e-08
1.47398e-10
2.20095e-10
7.86298e-08
1.02043e-07
-8.24831e-11
1.01956e-07
-1.16453e-10
1.01858e-07
-1.54594e-10
1.01748e-07
-1.96776e-10
1.01624e-07
-2.42613e-10
1.01487e-07
-2.91492e-10
1.01336e-07
-3.42691e-10
1.0117e-07
-3.95385e-10
1.00988e-07
-4.4865e-10
1.0079e-07
-5.01494e-10
1.00574e-07
-5.52261e-10
1.0034e-07
-5.99422e-10
1.00085e-07
-6.39132e-10
9.98097e-08
-6.68035e-10
9.95149e-08
-6.7941e-10
9.92041e-08
-6.62655e-10
9.88844e-08
-6.14871e-10
9.8566e-08
-5.08662e-10
9.82707e-08
-3.49251e-10
9.8018e-08
-1.39016e-10
9.78428e-08
1.66473e-10
9.78016e-08
4.37607e-10
9.78563e-08
4.49774e-10
9.79663e-08
3.12176e-10
9.81113e-08
5.62868e-11
9.82595e-08
-2.76317e-10
9.83781e-08
-6.12486e-10
9.84559e-08
-9.21012e-10
9.84882e-08
-1.17501e-09
9.84769e-08
-1.36044e-09
9.84286e-08
-1.47237e-09
9.83537e-08
-1.51248e-09
9.82646e-08
-1.48744e-09
9.81738e-08
-1.40739e-09
9.80933e-08
-1.28452e-09
9.80327e-08
-1.13172e-09
9.79991e-08
-9.61528e-10
9.79965e-08
-7.8523e-10
9.80258e-08
-6.12369e-10
9.80854e-08
-4.50352e-10
9.81713e-08
-3.04364e-10
9.82783e-08
-1.77394e-10
9.84004e-08