/*--------------------------------*- C++ -*----------------------------------*\
| =========                 |                                                 |
| \\      /  F ield         | OpenFOAM: The Open Source CFD Toolbox           |
|  \\    /   O peration     | Version:  2312                                  |
|   \\  /    A nd           | Website:  www.openfoam.com                      |
|    \\/     M anipulation  |                                                 |
\*---------------------------------------------------------------------------*/
FoamFile
{
    version     2.0;
    format      ascii;
    arch        "LSB;label=32;scalar=64";
    class       surfaceScalarField;
    location    "2";
    object      phi;
}
// * * * * * * * * * * * * * * * * * * * * * * * * * * * * * * * * * * * * * //

dimensions      [0 3 -1 0 0 0 0];

oriented        oriented;

internalField   nonuniform List<scalar> 
9445
(
1.11399e-10
1.44223e-12
1.10866e-10
5.33509e-13
1.10917e-10
-5.16169e-14
1.11377e-10
-4.59351e-13
1.12118e-10
-7.41351e-13
1.1312e-10
-1.00256e-12
1.14371e-10
-1.25014e-12
1.15885e-10
-1.51456e-12
1.17756e-10
-1.87113e-12
1.20224e-10
-2.46741e-12
1.23885e-10
-3.66107e-12
1.30274e-10
-6.38941e-12
1.4373e-10
-1.34556e-11
1.78254e-10
-3.45243e-11
-8.88515e-11
2.67106e-10
3.90227e-10
6.63779e-12
3.88173e-10
2.58833e-12
3.88141e-10
-1.95878e-14
3.89493e-10
-1.81179e-12
3.91837e-10
-3.08558e-12
3.95075e-10
-4.24053e-12
3.99158e-10
-5.33306e-12
4.04171e-10
-6.52759e-12
4.10454e-10
-8.15419e-12
4.1882e-10
-1.08328e-11
4.30997e-10
-1.58383e-11
4.5038e-10
-2.57725e-11
4.82558e-10
-4.56341e-11
5.32767e-10
-8.4733e-11
-1.46031e-10
5.89947e-10
7.72648e-10
1.71313e-11
7.68283e-10
6.9535e-12
7.67863e-10
4.00078e-13
7.70116e-10
-4.06524e-12
7.74314e-10
-7.28282e-12
7.80234e-10
-1.0161e-11
7.8776e-10
-1.28586e-11
7.97049e-10
-1.58166e-11
8.08676e-10
-1.97814e-11
8.23884e-10
-2.60413e-11
8.44862e-10
-3.68159e-11
8.74646e-10
-5.55563e-11
9.1538e-10
-8.63678e-11
9.62858e-10
-1.32211e-10
-1.84858e-10
1.00168e-09
1.28835e-09
3.49591e-11
1.28056e-09
1.47428e-11
1.27923e-09
1.73211e-12
1.28224e-09
-7.0768e-12
1.28842e-09
-1.34629e-11
1.29738e-09
-1.91117e-11
1.30884e-09
-2.43188e-11
1.32298e-09
-2.99587e-11
1.34046e-09
-3.72615e-11
1.36253e-09
-4.81111e-11
1.39086e-09
-6.51511e-11
1.4266e-09
-9.12897e-11
1.46809e-09
-1.27861e-10
1.50794e-09
-1.7206e-10
-2.12302e-10
1.53538e-09
1.97431e-09
6.27452e-11
1.96156e-09
2.74929e-11
1.95847e-09
4.81756e-12
1.96185e-09
-1.04609e-11
1.96993e-09
-2.1541e-11
1.98204e-09
-3.12232e-11
1.99767e-09
-3.99448e-11
2.01686e-09
-4.91465e-11
2.04008e-09
-6.04808e-11
2.06808e-09
-7.61108e-11
2.10131e-09
-9.83894e-11
2.13877e-09
-1.28746e-10
2.17663e-09
-1.65721e-10
2.20816e-09
-2.03586e-10
-2.32245e-10
2.2281e-09
2.87607e-09
1.03764e-10
2.85631e-09
4.72571e-11
2.8502e-09
1.09253e-11
2.85321e-09
-1.34691e-11
2.86278e-09
-3.11085e-11
2.8778e-09
-4.62495e-11
2.89739e-09
-5.95338e-11
2.92125e-09
-7.30073e-11
2.94937e-09
-8.85934e-11
2.98159e-09
-1.08333e-10
3.01697e-09
-1.33773e-10
3.05297e-09
-1.6474e-10
3.08534e-09
-1.98091e-10
3.10959e-09
-2.27837e-10
-2.47052e-10
3.12439e-09
4.04917e-09
1.61899e-10
4.01978e-09
7.66473e-11
4.00883e-09
2.18702e-11
4.01022e-09
-1.48526e-11
4.02044e-09
-4.13269e-11
4.03759e-09
-6.34025e-11
4.06033e-09
-8.22698e-11
4.08779e-09
-1.00471e-10
4.11923e-09
-1.2003e-10
4.15348e-09
-1.42585e-10
4.18847e-09
-1.68764e-10
4.22105e-09
-1.9732e-10
4.24773e-09
-2.24776e-10
4.26631e-09
-2.46417e-10
-2.58286e-10
4.27755e-09
5.56012e-09
2.41376e-10
5.518e-09
1.18774e-10
5.49981e-09
4.00539e-11
5.49776e-09
-1.2805e-11
5.50718e-09
-5.07424e-11
5.52501e-09
-8.12321e-11
5.54934e-09
-1.06601e-10
5.5786e-09
-1.29728e-10
5.61119e-09
-1.52626e-10
5.6451e-09
-1.76493e-10
5.67766e-09
-2.01326e-10
5.70592e-09
-2.25574e-10
5.72756e-09
-2.46415e-10
5.74201e-09
-2.60865e-10
-2.67124e-10
5.75084e-09
7.48688e-09
3.46074e-10
7.42872e-09
1.76935e-10
7.40052e-09
6.8255e-11
7.39262e-09
-4.91162e-12
7.39898e-09
-5.70973e-11
7.41535e-09
-9.76064e-11
7.43901e-09
-1.30263e-10
7.4676e-09
-1.58319e-10
7.4988e-09
-1.83822e-10
7.53005e-09
-2.07743e-10
7.55866e-09
-2.29931e-10
7.58228e-09
-2.49198e-10
7.59969e-09
-2.63826e-10
7.61122e-09
-2.72396e-10
-2.74469e-10
7.61857e-09
9.91783e-09
4.78149e-10
9.84091e-09
2.53857e-10
9.79991e-09
1.09255e-10
9.78339e-09
1.16104e-11
9.78388e-09
-5.75872e-11
9.79601e-09
-1.09741e-10
9.81613e-09
-1.50379e-10
9.84114e-09
-1.83333e-10
9.86822e-09
-2.10902e-10
9.89468e-09
-2.34198e-10
9.91814e-09
-2.53396e-10
9.937e-09
-2.68058e-10
9.95077e-09
-2.77597e-10
9.96014e-09
-2.81765e-10
-2.80912e-10
9.96658e-09
1.29486e-08
6.35787e-10
1.28522e-08
3.50292e-10
1.27965e-08
1.64945e-10
1.27688e-08
3.92927e-11
1.27605e-08
-4.93131e-11
1.27653e-08
-1.14565e-10
1.27788e-08
-1.63812e-10
1.27972e-08
-2.01756e-10
1.28176e-08
-2.31268e-10
1.28373e-08
-2.53974e-10
1.28546e-08
-2.70707e-10
1.28685e-08
-2.81888e-10
1.28788e-08
-2.87871e-10
1.28862e-08
-2.8919e-10
-2.86617e-10
1.28919e-08
1.66757e-08
8.10267e-10
1.6563e-08
4.62903e-10
1.64932e-08
2.34825e-10
1.64532e-08
7.92751e-11
1.6434e-08
-3.01548e-11
1.64289e-08
-1.09469e-10
1.64329e-08
-1.67802e-10
1.64422e-08
-2.11001e-10
1.64537e-08
-2.42791e-10
1.64653e-08
-2.6558e-10
1.64756e-08
-2.80994e-10
1.64839e-08
-2.90243e-10
1.64904e-08
-2.94374e-10
1.64956e-08
-2.944e-10
-2.91303e-10
1.65003e-08
2.11871e-08
9.83567e-10
2.1068e-08
5.82012e-10
2.09887e-08
3.14115e-10
2.09383e-08
1.29732e-10
2.09082e-08
-8.68183e-14
2.08922e-08
-9.34456e-11
2.08853e-08
-1.6091e-10
2.08839e-08
-2.09639e-10
2.08854e-08
-2.44326e-10
2.08881e-08
-2.68239e-10
2.08909e-08
-2.83761e-10
2.08934e-08
-2.92736e-10
2.08957e-08
-2.9668e-10
2.08981e-08
-2.96878e-10
-2.94407e-10
2.09012e-08
2.65532e-08
1.12925e-09
2.64444e-08
6.90847e-10
2.63661e-08
3.9247e-10
2.63112e-08
1.84571e-10
2.62738e-08
3.73014e-11
2.62486e-08
-6.82606e-11
2.62318e-08
-1.44087e-10
2.62204e-08
-1.98252e-10
2.62125e-08
-2.36346e-10
2.62066e-08
-2.62384e-10
2.62022e-08
-2.79347e-10
2.6199e-08
-2.89519e-10
2.6197e-08
-2.94702e-10
2.61964e-08
-2.96324e-10
-2.95489e-10
2.61975e-08
3.28229e-08
1.21977e-09
3.27448e-08
7.68963e-10
3.2682e-08
4.55305e-10
3.26331e-08
2.3347e-10
3.25955e-08
7.48926e-11
3.25664e-08
-3.91622e-11
3.25436e-08
-1.21278e-10
3.25253e-08
-1.79977e-10
3.25104e-08
-2.21434e-10
3.24981e-08
-2.50134e-10
3.24882e-08
-2.69416e-10
3.24805e-08
-2.81804e-10
3.2475e-08
-2.89231e-10
3.24719e-08
-2.93177e-10
-2.94733e-10
3.24711e-08
4.00293e-08
1.23936e-09
3.99974e-08
8.00936e-10
3.99633e-08
4.89408e-10
3.99311e-08
2.65633e-10
3.99021e-08
1.03882e-10
3.98763e-08
-1.33049e-11
3.98535e-08
-9.85154e-11
3.98334e-08
-1.59918e-10
3.98159e-08
-2.03918e-10
3.98009e-08
-2.35123e-10
3.97885e-08
-2.56956e-10
3.97786e-08
-2.71984e-10
3.97715e-08
-2.82139e-10
3.97672e-08
-2.88875e-10
-2.93236e-10
3.97657e-08
4.81925e-08
1.19316e-09
4.82079e-08
7.85478e-10
4.82067e-08
4.90658e-10
4.81965e-08
2.75848e-10
4.81816e-08
1.18717e-10
4.81644e-08
3.90931e-12
4.81468e-08
-8.09336e-11
4.81297e-08
-1.42801e-10
4.81139e-08
-1.88062e-10
4.80998e-08
-2.21109e-10
4.80881e-08
-2.45213e-10
4.80789e-08
-2.6282e-10
4.80725e-08
-2.75755e-10
4.80691e-08
-2.8538e-10
-2.92661e-10
4.80685e-08
5.72788e-08
1.10129e-09
5.73293e-08
7.35026e-10
5.73537e-08
4.66244e-10
5.73617e-08
2.67833e-10
5.73595e-08
1.20898e-10
5.73514e-08
1.20176e-11
5.73401e-08
-6.9607e-11
5.73276e-08
-1.30324e-10
5.73154e-08
-1.75806e-10
5.73043e-08
-2.10066e-10
5.72952e-08
-2.36079e-10
5.72884e-08
-2.56061e-10
5.72844e-08
-2.71661e-10
5.72831e-08
-2.84106e-10
-2.9426e-10
5.72847e-08
6.70834e-08
9.81482e-10
6.7155e-08
6.63428e-10
6.71947e-08
4.26539e-10
6.72134e-08
2.49171e-10
6.72184e-08
1.15828e-10
6.72152e-08
1.5267e-11
6.72072e-08
-6.16417e-11
6.71971e-08
-1.20201e-10
6.71865e-08
-1.6523e-10
6.71767e-08
-2.00243e-10
6.71685e-08
-2.27847e-10
6.71624e-08
-2.49982e-10
6.71588e-08
-2.68083e-10
6.71579e-08
-2.83221e-10
-2.96143e-10
6.71598e-08
7.70504e-08
8.37582e-10
7.714e-08
5.73842e-10
7.71925e-08
3.73951e-10
7.722e-08
2.21737e-10
7.72305e-08
1.05279e-10
7.723e-08
1.5751e-11
7.72225e-08
-5.40612e-11
7.7211e-08
-1.08699e-10
7.71978e-08
-1.52085e-10
7.71846e-08
-1.87049e-10
7.71725e-08
-2.15695e-10
7.71621e-08
-2.39592e-10
7.71539e-08
-2.5991e-10
7.71482e-08
-2.77525e-10
-2.9305e-10
7.71451e-08
7.6353e-08
6.90452e-10
7.64472e-08
4.79621e-10
7.65045e-08
3.16655e-10
7.65362e-08
1.90083e-10
7.65503e-08
9.11765e-11
7.65526e-08
1.34702e-11
7.65472e-08
-4.87324e-11
7.65373e-08
-9.87465e-11
7.65249e-08
-1.39675e-10
7.65115e-08
-1.73712e-10
7.64983e-08
-2.02489e-10
7.6486e-08
-2.27235e-10
7.64749e-08
-2.48868e-10
7.64655e-08
-2.68076e-10
-2.85349e-10
7.64578e-08
6.52791e-08
5.61862e-10
6.53632e-08
3.95559e-10
6.54154e-08
2.64447e-10
6.54449e-08
1.60539e-10
6.54586e-08
7.75219e-11
6.54616e-08
1.04837e-11
6.54572e-08
-4.43254e-11
6.54481e-08
-8.96771e-11
6.54361e-08
-1.27735e-10
6.54226e-08
-1.60174e-10
6.54084e-08
-1.88258e-10
6.53941e-08
-2.12937e-10
6.53801e-08
-2.3492e-10
6.53668e-08
-2.54736e-10
-2.72771e-10
6.53542e-08
5.46708e-08
4.45767e-10
5.47505e-08
3.15886e-10
5.48032e-08
2.11679e-10
5.48362e-08
1.27548e-10
5.48548e-08
5.89838e-11
5.48628e-08
2.47552e-12
5.48632e-08
-4.46995e-11
5.48581e-08
-8.4634e-11
5.48493e-08
-1.18914e-10
5.48379e-08
-1.48756e-10
5.48247e-08
-1.7509e-10
5.48104e-08
-1.98616e-10
5.47953e-08
-2.1986e-10
5.47798e-08
-2.39211e-10
-2.56955e-10
5.4764e-08
4.50877e-08
3.44837e-10
4.51591e-08
2.44458e-10
4.52082e-08
1.62604e-10
4.52404e-08
9.53505e-11
4.52599e-08
3.95242e-11
4.52697e-08
-7.36903e-12
4.52723e-08
-4.72683e-11
4.52693e-08
-8.16936e-11
4.52622e-08
-1.11789e-10
4.52519e-08
-1.38433e-10
4.52391e-08
-1.62292e-10
4.52243e-08
-1.8387e-10
4.5208e-08
-2.03544e-10
4.51904e-08
-2.21588e-10
-2.38206e-10
4.51716e-08
3.67178e-08
2.59875e-10
3.6779e-08
1.8318e-10
3.6822e-08
1.19663e-10
3.68507e-08
6.65927e-11
3.68685e-08
2.17677e-11
3.68777e-08
-1.6539e-11
3.68801e-08
-4.9697e-11
3.68772e-08
-7.87744e-11
3.687e-08
-1.04581e-10
3.68593e-08
-1.27734e-10
3.68457e-08
-1.48703e-10
3.68297e-08
-1.67838e-10
3.68115e-08
-1.854e-10
3.67915e-08
-2.01573e-10
-2.16496e-10
3.67698e-08
2.95746e-08
1.90697e-10
2.9625e-08
1.32823e-10
2.96605e-08
8.41686e-11
2.96842e-08
4.28544e-11
2.96986e-08
7.38272e-12
2.97055e-08
-2.34012e-11
2.97062e-08
-5.04641e-11
2.9702e-08
-7.45296e-11
2.96936e-08
-9.61564e-11
2.96816e-08
-1.15768e-10
2.96666e-08
-1.33683e-10
2.96489e-08
-1.50137e-10
2.96288e-08
-1.653e-10
2.96065e-08
-1.79292e-10
-1.92203e-10
2.95822e-08
2.35809e-08
1.36285e-10
2.36205e-08
9.31904e-11
2.36483e-08
5.64236e-11
2.36664e-08
2.47146e-11
2.36767e-08
-2.92967e-12
2.36806e-08
-2.72584e-11
2.3679e-08
-4.89422e-11
2.3673e-08
-6.84565e-11
2.3663e-08
-8.61757e-11
2.36496e-08
-1.02381e-10
2.36332e-08
-1.1728e-10
2.36141e-08
-1.31024e-10
2.35925e-08
-1.4372e-10
2.35687e-08
-1.55439e-10
-1.66238e-10
2.35427e-08
1.86178e-08
9.49211e-11
1.86477e-08
6.32809e-11
1.86682e-08
3.58892e-11
1.8681e-08
1.19085e-11
1.86874e-08
-9.28392e-12
1.86883e-08
-2.81901e-11
1.86846e-08
-4.52347e-11
1.86769e-08
-6.07334e-11
1.86656e-08
-7.49268e-11
1.86513e-08
-8.79942e-11
1.8634e-08
-1.00066e-10
1.86143e-08
-1.11234e-10
1.85921e-08
-1.21561e-10
1.85677e-08
-1.31083e-10
-1.39837e-10
1.85413e-08
1.45532e-08
6.44713e-11
1.45749e-08
4.15868e-11
1.45893e-08
2.14873e-11
1.45976e-08
3.63754e-12
1.46007e-08
-1.23359e-11
1.45992e-08
-2.67582e-11
1.45939e-08
-3.98929e-11
1.45851e-08
-5.19406e-11
1.45732e-08
-6.3051e-11
1.45586e-08
-7.33336e-11
1.45414e-08
-8.28658e-11
1.45218e-08
-9.1699e-11
1.45001e-08
-9.98662e-11
1.44764e-08
-1.07384e-10
-1.14273e-10
1.44509e-08
1.12568e-08
4.27075e-11
1.1272e-08
2.6426e-11
1.12816e-08
1.19227e-11
1.12863e-08
-1.13087e-12
1.12869e-08
-1.29475e-11
1.12839e-08
-2.3729e-11
1.12777e-08
-3.36355e-11
1.12685e-08
-4.27888e-11
1.12567e-08
-5.12781e-11
1.12426e-08
-5.9167e-11
1.12262e-08
-6.6498e-11
1.12078e-08
-7.32972e-11
1.11875e-08
-7.95784e-11
1.11655e-08
-8.53458e-11
-9.06136e-11
1.11418e-08
8.6073e-09
2.75667e-11
8.61753e-09
1.61988e-11
8.62352e-09
5.93374e-12
8.6258e-09
-3.4171e-12
8.62483e-09
-1.19747e-11
8.62095e-09
-1.98515e-11
8.61446e-09
-2.71452e-11
8.6056e-09
-3.39258e-11
8.59457e-09
-4.02439e-11
8.58153e-09
-4.61336e-11
8.56665e-09
-5.16161e-11
8.55005e-09
-5.6702e-11
8.53187e-09
-6.13944e-11
8.51222e-09
-6.56905e-11
-6.96007e-11
8.4912e-09
6.49579e-09
1.72958e-11
6.50245e-09
9.53465e-12
6.50595e-09
2.43802e-12
6.50663e-09
-4.09686e-12
6.50479e-09
-1.01372e-11
6.50068e-09
-1.57386e-11
6.49449e-09
-2.09598e-11
6.4864e-09
-2.58388e-11
6.47656e-09
-3.04023e-11
6.4651e-09
-3.4667e-11
6.45212e-09
-3.86412e-11
6.43775e-09
-4.23274e-11
6.42207e-09
-4.57228e-11
6.40521e-09
-4.88218e-11
-5.16325e-11
6.38724e-09
4.82703e-09
1.04971e-11
4.83122e-09
5.34509e-12
4.83307e-09
5.8241e-13
4.83282e-09
-3.84392e-12
4.83066e-09
-7.97416e-12
4.82675e-09
-1.18273e-11
4.82123e-09
-1.54395e-11
4.81422e-09
-1.88296e-11
4.80583e-09
-2.20106e-11
4.79615e-09
-2.4989e-11
4.78527e-09
-2.77666e-11
4.77329e-09
-3.03419e-11
4.76028e-09
-3.27098e-11
4.74632e-09
-3.48638e-11
-3.68107e-11
4.7315e-09
3.51918e-09
6.11049e-12
3.52171e-09
2.81369e-12
3.52256e-09
-2.59931e-13
3.52185e-09
-3.13688e-12
3.51972e-09
-5.84754e-12
3.51628e-09
-8.38734e-12
3.51162e-09
-1.07803e-11
3.50583e-09
-1.30344e-11
3.49897e-09
-1.51551e-11
3.49113e-09
-1.71437e-11
3.48236e-09
-1.89992e-11
3.47274e-09
-2.07186e-11
3.46232e-09
-2.22967e-11
3.45119e-09
-2.37273e-11
-2.50158e-11
3.43939e-09
2.50301e-09
3.36151e-12
2.50447e-09
1.35581e-12
2.50473e-09
-5.23599e-13
2.50389e-09
-2.29012e-12
2.50201e-09
-3.97228e-12
2.49918e-09
-5.55269e-12
2.49544e-09
-7.04837e-12
2.49087e-09
-8.4618e-12
2.48551e-09
-9.79455e-12
2.47941e-09
-1.10459e-11
2.47263e-09
-1.22139e-11
2.4652e-09
-1.32955e-11
2.45719e-09
-1.42864e-11
2.44865e-09
-1.51815e-11
-1.59845e-11
2.43962e-09
1.7207e-09
1.70166e-12
1.72148e-09
5.68657e-13
1.72146e-09
-4.93719e-13
1.72066e-09
-1.49286e-12
1.71914e-09
-2.45332e-12
1.71695e-09
-3.35918e-12
1.71412e-09
-4.21939e-12
1.71069e-09
-5.03458e-12
1.7067e-09
-5.80474e-12
1.70218e-09
-6.52864e-12
1.69717e-09
-7.20442e-12
1.69171e-09
-7.82985e-12
1.68582e-09
-8.40187e-12
1.67956e-09
-8.91664e-12
-9.37608e-12
1.67295e-09
1.1245e-09
7.51943e-13
1.12488e-09
1.82618e-13
1.12474e-09
-3.46122e-13
1.12408e-09
-8.42377e-13
1.12295e-09
-1.32289e-12
1.12137e-09
-1.77893e-12
1.11937e-09
-2.21303e-12
1.11696e-09
-2.62547e-12
1.11417e-09
-3.01581e-12
1.11102e-09
-3.38301e-12
1.10755e-09
-3.72584e-12
1.10376e-09
-4.04289e-12
1.09969e-09
-4.33241e-12
1.09536e-09
-4.59181e-12
-4.82154e-12
1.09081e-09
6.75358e-10
2.55777e-13
6.75516e-10
2.40533e-14
6.75353e-10
-1.83339e-13
6.74888e-10
-3.77172e-13
6.74132e-10
-5.66449e-13
6.731e-10
-7.47443e-13
6.71807e-10
-9.2012e-13
6.70266e-10
-1.0846e-12
6.68491e-10
-1.24048e-12
6.66495e-10
-1.38719e-12
6.64294e-10
-1.52413e-12
6.61901e-10
-1.6506e-12
6.59335e-10
-1.76591e-12
6.56612e-10
-1.86859e-12
-1.9581e-12
6.53748e-10
3.41613e-10
4.22896e-14
3.41652e-10
-1.53231e-14
3.41529e-10
-6.0053e-14
3.41254e-10
-1.01618e-13
3.4083e-10
-1.4303e-13
3.40266e-10
-1.83088e-13
3.39567e-10
-2.21448e-13
3.38741e-10
-2.58063e-13
3.37793e-10
-2.92786e-13
3.36731e-10
-3.25435e-13
3.35563e-10
-3.55845e-13
3.34296e-10
-3.83834e-13
3.32939e-10
-4.09252e-13
3.31502e-10
-4.31633e-13
-4.50105e-13
3.29994e-10
9.77753e-11
9.776e-11
9.77e-11
9.75983e-11
9.74553e-11
9.72722e-11
9.70508e-11
9.67927e-11
9.64999e-11
9.61745e-11
9.58187e-11
9.54348e-11
9.50256e-11
9.45939e-11
9.41438e-11
3.23399e-10
-2.08768e-10
1.52475e-10
4.03087e-10
-2.41667e-10
1.61978e-10
4.8515e-10
-2.44242e-10
1.6218e-10
5.67979e-10
-2.37211e-10
1.54382e-10
6.51097e-10
-2.23622e-10
1.40504e-10
7.34666e-10
-2.06774e-10
1.23205e-10
8.19057e-10
-1.88106e-10
1.03716e-10
9.04628e-10
-1.68751e-10
8.31795e-11
9.91705e-10
-1.49848e-10
6.27701e-11
1.08056e-09
-1.32649e-10
4.37958e-11
1.17139e-09
-1.18592e-10
2.77612e-11
1.26433e-09
-1.09347e-10
1.64075e-11
1.35943e-09
-1.06825e-10
1.17194e-11
1.45668e-09
-1.13102e-10
1.58523e-11
1.55598e-09
-1.3035e-10
3.10515e-11
1.65716e-09
-1.60608e-10
5.94303e-11
1.75998e-09
-2.05735e-10
1.02911e-10
1.86416e-09
-2.67392e-10
1.63216e-10
1.96928e-09
-3.47408e-10
2.42285e-10
2.07469e-09
-4.4899e-10
3.43584e-10
2.17906e-09
-5.79858e-10
4.75488e-10
2.27949e-09
-7.57278e-10
6.56849e-10
2.35859e-09
-8.64169e-10
7.85071e-10
2.41239e-09
-9.29249e-10
8.75446e-10
2.44352e-09
-9.85311e-10
9.54175e-10
2.45338e-09
-1.0227e-09
1.01284e-09
2.44501e-09
-1.01543e-09
1.0238e-09
2.42176e-09
-9.66622e-10
9.89876e-10
2.3848e-09
-8.87089e-10
9.24044e-10
2.33659e-09
-7.59422e-10
8.07631e-10
2.27982e-09
-5.88634e-10
6.45407e-10
2.2165e-09
-3.83141e-10
4.46462e-10
2.14835e-09
-1.4913e-10
2.17284e-10
2.07654e-09
1.06793e-10
-3.49886e-11
2.00158e-09
3.77407e-10
-3.02449e-10
1.92302e-09
6.54071e-10
-5.7551e-10
1.83929e-09
9.25844e-10
-8.42112e-10
1.74772e-09
1.17904e-09
-1.08747e-09
1.64488e-09
1.39753e-09
-1.29469e-09
1.52723e-09
1.56373e-09
-1.44608e-09
1.39203e-09
1.65992e-09
-1.52473e-09
1.23866e-09
1.6688e-09
-1.51544e-09
1.06923e-09
1.57198e-09
-1.40254e-09
8.89087e-10
1.35559e-09
-1.17545e-09
9.59995e-10
7.4442e-10
-8.15328e-10
6.23215e-10
-2.42036e-10
6.75565e-10
-2.94017e-10
7.43501e-10
-3.12179e-10
8.20329e-10
-3.14039e-10
9.02575e-10
-3.05868e-10
9.88405e-10
-2.92604e-10
1.07705e-09
-2.7675e-10
1.16823e-09
-2.59934e-10
1.26191e-09
-2.43524e-10
1.35813e-09
-2.28869e-10
1.45696e-09
-2.1742e-10
1.55843e-09
-2.10822e-10
1.66255e-09
-2.10939e-10
1.76923e-09
-2.19783e-10
1.87834e-09
-2.39459e-10
1.98966e-09
-2.71927e-10
2.1029e-09
-3.18981e-10
2.21772e-09
-3.82208e-10
2.33362e-09
-4.63314e-10
2.44984e-09
-5.65209e-10
2.56488e-09
-6.94892e-10
2.67549e-09
-8.67892e-10
2.76264e-09
-9.51321e-10
2.82202e-09
-9.88624e-10
2.85663e-09
-1.01992e-09
2.86785e-09
-1.03392e-09
2.85933e-09
-1.00691e-09
2.83509e-09
-9.42389e-10
2.796e-09
-8.48e-10
2.74482e-09
-7.08244e-10
2.6848e-09
-5.28613e-10
2.61827e-09
-3.16611e-10
2.54731e-09
-7.81625e-11
2.47349e-09
1.80606e-10
2.39782e-09
4.53079e-10
2.32043e-09
7.31465e-10
2.24044e-09
1.00583e-09
2.15605e-09
1.26343e-09
2.06489e-09
1.48869e-09
1.96498e-09
1.66364e-09
1.85618e-09
1.76872e-09
1.74204e-09
1.78295e-09
1.63105e-09
1.68297e-09
1.53213e-09
1.45451e-09
1.07296e-09
1.41917e-09
1.0235e-09
-2.63854e-10
1.05724e-09
-3.27758e-10
1.10847e-09
-3.63409e-10
1.17402e-09
-3.79586e-10
1.2502e-09
-3.82043e-10
1.33403e-09
-3.76438e-10
1.42365e-09
-3.6637e-10
1.51797e-09
-3.54257e-10
1.61641e-09
-3.41957e-10
1.71863e-09
-3.31092e-10
1.82446e-09
-3.23252e-10
1.93377e-09
-3.20132e-10
2.04643e-09
-3.23595e-10
2.16226e-09
-3.3562e-10
2.28106e-09
-3.58257e-10
2.40253e-09
-3.93396e-10
2.52631e-09
-4.42761e-10
2.65196e-09
-5.07862e-10
2.77891e-09
-5.9026e-10
2.90623e-09
-6.92533e-10
3.03223e-09
-8.20889e-10
3.1533e-09
-9.88965e-10
3.24872e-09
-1.04674e-09
3.31382e-09
-1.05372e-09
3.35202e-09
-1.05812e-09
3.36473e-09
-1.04663e-09
3.35611e-09
-9.98289e-10
3.33112e-09
-9.17394e-10
3.29021e-09
-8.07094e-10
3.23648e-09
-6.54509e-10
3.1738e-09
-4.65936e-10
3.1049e-09
-2.47707e-10
3.03226e-09
-5.52609e-12
2.95799e-09
2.54874e-10
2.8837e-09
5.27368e-10
2.81033e-09
8.04842e-10
2.73797e-09
1.07818e-09
2.66599e-09
1.33541e-09
2.59345e-09
1.56123e-09
2.51996e-09
1.73712e-09
2.44687e-09
1.84182e-09
2.37789e-09
1.85193e-09
2.31805e-09
1.74282e-09
2.25928e-09
1.51327e-09
1.16629e-09
2.16595e-09
1.55068e-09
-2.79156e-10
1.57175e-09
-3.48821e-10
1.60742e-09
-3.99084e-10
1.65888e-09
-4.31041e-10
1.72458e-09
-4.4775e-10
1.80184e-09
-4.53699e-10
1.88832e-09
-4.52851e-10
1.98232e-09
-4.4825e-10
2.08266e-09
-4.423e-10
2.18859e-09
-4.37021e-10
2.29958e-09
-4.34245e-10
2.41526e-09
-4.35807e-10
2.5353e-09
-4.43634e-10
2.65938e-09
-4.59707e-10
2.78718e-09
-4.86054e-10
2.91829e-09
-5.24501e-10
3.05223e-09
-5.76709e-10
3.18848e-09
-6.44104e-10
3.3263e-09
-7.28086e-10
3.46463e-09
-8.30861e-10
3.60151e-09
-9.57772e-10
3.73296e-09
-1.12041e-09
3.83657e-09
-1.15036e-09
3.90734e-09
-1.12449e-09
3.94911e-09
-1.09989e-09
3.96337e-09
-1.06089e-09
3.95474e-09
-9.89652e-10
3.92919e-09
-8.91847e-10
3.88688e-09
-7.6478e-10
3.83119e-09
-5.98828e-10
3.7667e-09
-4.01439e-10
3.69655e-09
-1.77564e-10
3.62375e-09
6.72799e-11
3.55098e-09
3.27646e-10
3.48059e-09
5.97752e-10
3.41447e-09
8.70967e-10
3.35387e-09
1.13878e-09
3.29947e-09
1.3898e-09
3.25167e-09
1.60904e-09
3.211e-09
1.77779e-09
3.17843e-09
1.87439e-09
3.15423e-09
1.87612e-09
3.13407e-09
1.76298e-09
3.10222e-09
1.54512e-09
1.24051e-09
3.028e-09
2.23935e-09
-2.90407e-10
2.25189e-09
-3.61358e-10
2.27439e-09
-4.21583e-10
2.31108e-09
-4.6773e-10
2.36332e-09
-4.99992e-10
2.42979e-09
-5.20167e-10
2.50862e-09
-5.31683e-10
2.59799e-09
-5.37621e-10
2.69639e-09
-5.407e-10
2.80266e-09
-5.43294e-10
2.91593e-09
-5.47511e-10
3.03551e-09
-5.55385e-10
3.16084e-09
-5.68963e-10
3.29141e-09
-5.90275e-10
3.42671e-09
-6.21356e-10
3.56619e-09
-6.6398e-10
3.70924e-09
-7.19759e-10
3.85516e-09
-7.9003e-10
4.00309e-09
-8.76012e-10
4.15173e-09
-9.795e-10
4.29885e-09
-1.1049e-09
4.44003e-09
-1.26159e-09
4.55133e-09
-1.26165e-09
4.6274e-09
-1.20057e-09
4.67249e-09
-1.14498e-09
4.68828e-09
-1.07669e-09
4.67974e-09
-9.81104e-10
4.65381e-09
-8.65923e-10
4.61054e-09
-7.21506e-10
4.55373e-09
-5.42018e-10
4.48851e-09
-3.36216e-10
4.41857e-09
-1.07622e-10
4.34743e-09
1.38417e-10
4.27844e-09
3.9663e-10
4.21476e-09
6.61432e-10
4.15925e-09
9.26484e-10
4.11431e-09
1.18372e-09
4.08181e-09
1.42231e-09
4.06296e-09
1.62789e-09
4.05819e-09
1.78256e-09
4.06645e-09
1.86613e-09
4.08307e-09
1.85949e-09
4.0944e-09
1.75165e-09
4.08482e-09
1.55471e-09
1.29429e-09
4.03103e-09
3.13259e-09
-2.98599e-10
3.13933e-09
-3.68107e-10
3.15169e-09
-4.33937e-10
3.17481e-09
-4.90855e-10
3.21193e-09
-5.37105e-10
3.26444e-09
-5.72682e-10
3.33136e-09
-5.98606e-10
3.41143e-09
-6.17691e-10
3.50323e-09
-6.32499e-10
3.60546e-09
-6.45518e-10
3.71697e-09
-6.59025e-10
3.83682e-09
-6.75238e-10
3.9642e-09
-6.96341e-10
4.09836e-09
-7.24437e-10
4.2386e-09
-7.61595e-10
4.38417e-09
-8.09549e-10
4.53428e-09
-8.6987e-10
4.68806e-09
-9.43804e-10
4.84441e-09
-1.03237e-09
5.00181e-09
-1.1369e-09
5.15772e-09
-1.2608e-09
5.30722e-09
-1.41108e-09
5.42505e-09
-1.37949e-09
5.5056e-09
-1.28112e-09
5.55338e-09
-1.19275e-09
5.57051e-09
-1.09382e-09
5.5622e-09
-9.72792e-10
5.53598e-09
-8.39699e-10
5.49219e-09
-6.7772e-10
5.43528e-09
-4.85104e-10
5.37069e-09
-2.71632e-10
5.3027e-09
-3.96278e-11
5.23537e-09
2.05742e-10
5.17271e-09
4.59294e-10
5.11861e-09
7.1553e-10
5.07681e-09
9.68284e-10
5.05064e-09
1.20989e-09
5.0427e-09
1.43025e-09
5.05431e-09
1.61627e-09
5.08476e-09
1.75211e-09
5.12995e-09
1.82095e-09
5.18046e-09
1.80898e-09
5.22019e-09
1.71192e-09
5.23291e-09
1.54199e-09
1.32516e-09
5.20203e-09
4.28337e-09
-3.04416e-10
4.28618e-09
-3.70921e-10
4.29087e-09
-4.38626e-10
4.30274e-09
-5.02724e-10
4.3255e-09
-5.59871e-10
4.36191e-09
-6.09089e-10
4.41363e-09
-6.50321e-10
4.48001e-09
-6.84071e-10
4.56024e-09
-7.12735e-10
4.65328e-09
-7.38559e-10
4.75799e-09
-7.63735e-10
4.87329e-09
-7.90539e-10
4.99819e-09
-8.21239e-10
5.13174e-09
-8.57986e-10
5.27303e-09
-9.02887e-10
5.4211e-09
-9.5762e-10
5.57496e-09
-1.02373e-09
5.7335e-09
-1.10235e-09
5.89542e-09
-1.19428e-09
6.05887e-09
-1.30035e-09
6.22095e-09
-1.42288e-09
6.37626e-09
-1.5664e-09
6.49859e-09
-1.50182e-09
6.58214e-09
-1.36467e-09
6.63151e-09
-1.24212e-09
6.64949e-09
-1.1118e-09
6.64155e-09
-9.64856e-10
6.61487e-09
-8.13023e-10
6.57101e-09
-6.33856e-10
6.51518e-09
-4.29272e-10
6.45282e-09
-2.09272e-10
6.38874e-09
2.44445e-11
6.32756e-09
2.6693e-10
6.2738e-09
5.13052e-10
6.23195e-09
7.5738e-10
6.20631e-09
9.93921e-10
6.20069e-09
1.21551e-09
6.21779e-09
1.41315e-09
6.25838e-09
1.57569e-09
6.32011e-09
1.69038e-09
6.39621e-09
1.74484e-09
6.47464e-09
1.73054e-09
6.53903e-09
1.64753e-09
6.57369e-09
1.50733e-09
1.33066e-09
6.56819e-09
5.75501e-09
-3.08584e-10
5.75531e-09
-3.71225e-10
5.75478e-09
-4.38091e-10
5.75763e-09
-5.05575e-10
5.7681e-09
-5.70344e-10
5.78902e-09
-6.30006e-10
5.82325e-09
-6.8455e-10
5.87269e-09
-7.33508e-10
5.93686e-09
-7.76908e-10
6.01547e-09
-8.17167e-10
6.10772e-09
-8.55985e-10
6.21269e-09
-8.95509e-10
6.32938e-09
-9.37927e-10
6.45674e-09
-9.85352e-10
6.59374e-09
-1.03988e-09
6.73921e-09
-1.10309e-09
6.89195e-09
-1.17647e-09
7.05064e-09
-1.26104e-09
7.2137e-09
-1.35733e-09
7.37896e-09
-1.46562e-09
7.54313e-09
-1.58705e-09
7.7003e-09
-1.72357e-09
7.8239e-09
-1.62542e-09
7.90808e-09
-1.44884e-09
7.95727e-09
-1.29132e-09
7.97527e-09
-1.12979e-09
7.96753e-09
-9.57112e-10
7.93994e-09
-7.85438e-10
7.89649e-09
-5.90405e-10
7.84297e-09
-3.75757e-10
7.78452e-09
-1.50818e-10
7.72642e-09
8.25434e-11
7.67368e-09
3.19673e-10
7.63118e-09
5.55547e-10
7.60368e-09
7.84884e-10
7.5956e-09
1.002e-09
7.61063e-09
1.20048e-09
7.65101e-09
1.37277e-09
7.71647e-09
1.51023e-09
7.80314e-09
1.60371e-09
7.90268e-09
1.6453e-09
8.00236e-09
1.63086e-09
8.08712e-09
1.56278e-09
8.14349e-09
1.45096e-09
1.31076e-09
8.16339e-09
7.62182e-09
-3.11834e-10
7.62079e-09
-3.70199e-10
7.61709e-09
-4.34393e-10
7.61362e-09
-5.02103e-10
7.61403e-09
-5.70752e-10
7.62204e-09
-6.38021e-10
7.63975e-09
-7.02254e-10
7.66994e-09
-7.63695e-10
7.71495e-09
-8.21927e-10
7.77468e-09
-8.76896e-10
7.84904e-09
-9.30337e-10
7.93758e-09
-9.84048e-10
8.03957e-09
-1.03992e-09
8.15408e-09
-1.09987e-09
8.28008e-09
-1.16589e-09
8.4163e-09
-1.2393e-09
8.5614e-09
-1.32157e-09
8.71386e-09
-1.41351e-09
8.87184e-09
-1.51531e-09
9.03285e-09
-1.62663e-09
9.19317e-09
-1.74737e-09
9.34645e-09
-1.87684e-09
9.46659e-09
-1.74555e-09
9.54788e-09
-1.53013e-09
9.59431e-09
-1.33776e-09
9.61072e-09
-1.1462e-09
9.60249e-09
-9.48877e-10
9.57368e-09
-7.56632e-10
9.53106e-09
-5.47781e-10
9.48086e-09
-3.25559e-10
9.42787e-09
-9.78288e-11
9.37763e-09
1.32784e-10
9.33533e-09
3.61975e-10
9.3059e-09
5.84974e-10
9.29395e-09
7.96835e-10
9.30352e-09
9.92434e-10
9.33763e-09
1.16636e-09
9.39757e-09
1.31283e-09
9.48196e-09
1.42584e-09
9.58593e-09
1.49975e-09
9.70073e-09
1.5305e-09
9.81451e-09
1.51708e-09
9.91434e-09
1.46295e-09
9.98928e-09
1.37602e-09
1.26723e-09
1.00328e-08
9.96949e-09
-3.14736e-10
9.96807e-09
-3.68779e-10
9.96294e-09
-4.29268e-10
9.9558e-09
-4.94963e-10
9.94925e-09
-5.64199e-10
9.94643e-09
-6.35202e-10
9.95062e-09
-7.06446e-10
9.96357e-09
-7.7664e-10
9.98776e-09
-8.4612e-10
1.00257e-08
-9.14874e-10
1.00782e-08
-9.82751e-10
1.01449e-08
-1.05081e-09
1.02259e-08
-1.12088e-09
1.03205e-08
-1.19449e-09
1.0428e-08
-1.27338e-09
1.05471e-08
-1.35844e-09
1.06766e-08
-1.45103e-09
1.08148e-08
-1.55167e-09
1.09596e-08
-1.66012e-09
1.11083e-08
-1.77532e-09
1.12568e-08
-1.89588e-09
1.13983e-08
-2.0184e-09
1.15085e-08
-1.85574e-09
1.1582e-08
-1.60365e-09
1.16221e-08
-1.37785e-09
1.16344e-08
-1.15844e-09
1.1624e-08
-9.38512e-10
1.1594e-08
-7.26616e-10
1.15526e-08
-5.06363e-10
1.15062e-08
-2.7921e-10
1.14598e-08
-5.14579e-11
1.14189e-08
1.73752e-10
1.13884e-08
3.9248e-10
1.13729e-08
6.00406e-10
1.13766e-08
7.9317e-10
1.14026e-08
9.66476e-10
1.14528e-08
1.11616e-09
1.15273e-08
1.23826e-09
1.16239e-08
1.32924e-09
1.17373e-08
1.38639e-09
1.18593e-08
1.4085e-09
1.19798e-08
1.39658e-09
1.20884e-08
1.35431e-09
1.21766e-08
1.28785e-09
1.20479e-09
1.2239e-08
1.28947e-08
-3.17512e-10
1.28934e-08
-3.67487e-10
1.2888e-08
-4.23902e-10
1.28793e-08
-4.86266e-10
1.28688e-08
-5.53716e-10
1.28588e-08
-6.25153e-10
1.28518e-08
-6.99428e-10
1.28506e-08
-7.75514e-10
1.28572e-08
-8.52718e-10
1.28735e-08
-9.31196e-10
1.29015e-08
-1.01072e-09
1.29433e-08
-1.09263e-09
1.29983e-08
-1.17588e-09
1.30669e-08
-1.26307e-09
1.31487e-08
-1.35519e-09
1.32427e-08
-1.45241e-09
1.33478e-08
-1.55615e-09
1.34625e-08
-1.66633e-09
1.35845e-08
-1.7822e-09
1.37111e-08
-1.90191e-09
1.38379e-08
-2.02264e-09
1.39578e-08
-2.13836e-09
1.40498e-08
-1.94769e-09
1.41092e-08
-1.66302e-09
1.41383e-08
-1.40696e-09
1.41428e-08
-1.16295e-09
1.41279e-08
-9.2364e-10
1.40963e-08
-6.94991e-10
1.4056e-08
-4.66083e-10
1.40138e-08
-2.3696e-10
1.39746e-08
-1.22814e-11
1.39436e-08
2.04783e-10
1.39253e-08
4.10776e-10
1.39236e-08
6.02053e-10
1.39417e-08
7.75077e-10
1.39816e-08
9.26603e-10
1.40439e-08
1.05381e-09
1.41278e-08
1.15444e-09
1.423e-08
1.22695e-09
1.43457e-08
1.27076e-09
1.44677e-08
1.2865e-09
1.4588e-08
1.27625e-09
1.46988e-08
1.24355e-09
1.47935e-08
1.19314e-09
1.13027e-09
1.4868e-08
1.65028e-08
-3.19934e-10
1.65016e-08
-3.66304e-10
1.64964e-08
-4.18766e-10
1.64875e-08
-4.77286e-10
1.64753e-08
-5.41574e-10
1.64613e-08
-6.11121e-10
1.64471e-08
-6.85286e-10
1.6435e-08
-7.634e-10
1.64272e-08
-8.44916e-10
1.64258e-08
-9.29806e-10
1.6432e-08
-1.01691e-09
1.64477e-08
-1.10834e-09
1.64743e-08
-1.2024e-09
1.65134e-08
-1.3022e-09
1.65641e-08
-1.40591e-09
1.66261e-08
-1.51441e-09
1.66989e-08
-1.62891e-09
1.67809e-08
-1.74839e-09
1.68703e-08
-1.87157e-09
1.69641e-08
-1.99571e-09
1.7058e-08
-2.1165e-09
1.7145e-08
-2.22538e-09
1.7209e-08
-2.01173e-09
1.72467e-08
-1.70065e-09
1.72592e-08
-1.4195e-09
1.72517e-08
-1.15544e-09
1.72293e-08
-9.01269e-10
1.71947e-08
-6.60418e-10
1.71551e-08
-4.26396e-10
1.71167e-08
-1.98603e-10
1.70846e-08
1.98227e-11
1.70632e-08
2.26143e-10
1.70564e-08
4.17578e-10
1.70671e-08
5.91352e-10
1.70973e-08
7.44936e-10
1.71477e-08
8.76229e-10
1.72178e-08
9.83698e-10
1.73057e-08
1.06649e-09
1.74082e-08
1.1245e-09
1.75204e-08
1.1585e-09
1.76368e-08
1.1701e-09
1.77513e-08
1.16178e-09
1.78581e-08
1.13673e-09
1.79526e-08
1.09861e-09
1.05116e-09
1.80317e-08
2.09028e-08
-3.21449e-10
2.09012e-08
-3.64769e-10
2.08961e-08
-4.13684e-10
2.08873e-08
-4.68409e-10
2.08747e-08
-5.29003e-10
2.0859e-08
-5.95378e-10
2.0841e-08
-6.67321e-10
2.08221e-08
-7.44552e-10
2.0804e-08
-8.26809e-10
2.07882e-08
-9.13923e-10
2.07768e-08
-1.00553e-09
2.0771e-08
-1.10256e-09
2.07717e-08
-1.20307e-09
2.07801e-08
-1.3106e-09
2.07974e-08
-1.42324e-09
2.0824e-08
-1.54101e-09
2.08591e-08
-1.66396e-09
2.09014e-08
-1.79078e-09
2.09496e-08
-1.91971e-09
2.10008e-08
-2.04694e-09
2.1051e-08
-2.16668e-09
2.10937e-08
-2.26807e-09
2.11198e-08
-2.03787e-09
2.11277e-08
-1.70853e-09
2.11176e-08
-1.40946e-09
2.10936e-08
-1.13141e-09
2.10604e-08
-8.68079e-10
2.10208e-08
-6.2082e-10
2.09806e-08
-3.86149e-10
2.09453e-08
-1.6334e-10
2.09194e-08
4.57319e-11
2.09065e-08