/*--------------------------------*- C++ -*----------------------------------*\
| =========                 |                                                 |
| \\      /  F ield         | OpenFOAM: The Open Source CFD Toolbox           |
|  \\    /   O peration     | Version:  2312                                  |
|   \\  /    A nd           | Website:  www.openfoam.com                      |
|    \\/     M anipulation  |                                                 |
\*---------------------------------------------------------------------------*/
FoamFile
{
    version     2.0;
    format      ascii;
    arch        "LSB;label=32;scalar=64";
    class       volVectorField;
    location    "69.25";
    object      U;
}
// * * * * * * * * * * * * * * * * * * * * * * * * * * * * * * * * * * * * * //

dimensions      [0 1 -1 0 0 0 0];

internalField   nonuniform List<vector> 
4800
(
(0.000479905 1.96936e-07 -2.03348e-26)
(0.000475924 2.00757e-07 -1.45393e-25)
(0.000474451 1.99491e-07 1.859e-25)
(0.000474472 2.06697e-07 8.82064e-26)
(0.000475568 2.12151e-07 1.33623e-24)
(0.000477391 2.06243e-07 -3.2125e-24)
(0.000479849 1.61726e-07 3.05332e-24)
(0.000482982 6.8542e-08 -4.51002e-24)
(0.000486904 -9.22711e-08 1.42706e-24)
(0.000491817 -3.61831e-07 5.04487e-24)
(0.000498181 -8.98044e-07 -1.55001e-24)
(0.000507338 -2.37049e-06 -1.21434e-25)
(0.000526902 -7.81356e-06 -1.94521e-24)
(0.000575544 -2.98893e-05 9.25441e-25)
(0.00065499 -9.65884e-05 -7.40107e-25)
(0.00148788 9.84453e-07 -6.44676e-26)
(0.00147535 5.19814e-07 8.04097e-26)
(0.00147014 1.57971e-07 -7.64682e-25)
(0.00146934 -1.37657e-07 5.62664e-25)
(0.00147163 -4.35285e-07 1.89139e-24)
(0.00147605 -7.39198e-07 -3.07221e-24)
(0.00148237 -1.15371e-06 -9.25807e-25)
(0.00149059 -1.74594e-06 -2.55998e-25)
(0.001501 -2.6218e-06 7.52771e-24)
(0.00151416 -4.01381e-06 -5.60847e-24)
(0.00153139 -6.60973e-06 6.10229e-25)
(0.00155553 -1.27166e-05 9.52829e-25)
(0.00159591 -3.03695e-05 -1.43106e-24)
(0.00166339 -8.44423e-05 -4.53365e-25)
(0.00173498 -0.000206379 1.89902e-24)
(0.00260538 3.18559e-06 -4.61922e-26)
(0.00258339 1.74147e-06 4.71301e-26)
(0.00257349 6.5517e-07 4.99443e-25)
(0.00257091 -2.74574e-07 -1.19284e-24)
(0.0025735 -1.21189e-06 1.18666e-24)
(0.00257947 -2.2021e-06 1.17475e-24)
(0.00258872 -3.47163e-06 -3.04825e-24)
(0.00260095 -5.19689e-06 -1.94988e-24)
(0.0026165 -7.68699e-06 4.64126e-24)
(0.00263608 -1.15682e-05 1.8006e-24)
(0.00266117 -1.83803e-05 -6.24983e-24)
(0.00269404 -3.22135e-05 -9.93127e-25)
(0.00273895 -6.29357e-05 2.69779e-24)
(0.00279451 -0.000130974 4.34917e-24)
(0.00283436 -0.00024454 -2.25666e-24)
(0.00383779 7.1579e-06 1.70799e-26)
(0.00380576 4.09379e-06 -1.19737e-25)
(0.00379034 1.80254e-06 5.42558e-25)
(0.00378499 -1.81563e-07 5.95055e-25)
(0.0037869 -2.07495e-06 -5.6408e-25)
(0.00379322 -4.13343e-06 -3.50732e-24)
(0.00380414 -6.75913e-06 -2.51038e-24)
(0.00381892 -1.02088e-05 9.26145e-24)
(0.00383773 -1.50745e-05 3.95822e-24)
(0.00386108 -2.23917e-05 -5.60588e-24)
(0.00388982 -3.43023e-05 -2.29095e-24)
(0.00392448 -5.54264e-05 -1.78074e-24)
(0.00396431 -9.39565e-05 4.57629e-26)
(0.0040019 -0.000160445 1.33313e-24)
(0.00401821 -0.000250101 6.54486e-27)
(0.00518753 1.32562e-05 -3.13222e-26)
(0.00514566 7.85342e-06 -1.93054e-25)
(0.00512431 3.8286e-06 -1.29165e-25)
(0.00511541 3.95375e-07 3.33377e-25)
(0.0051157 -2.97511e-06 -9.83729e-25)
(0.00512129 -6.37171e-06 2.46184e-24)
(0.00513244 -1.08021e-05 -4.28772e-25)
(0.0051481 -1.64571e-05 1.62278e-24)
(0.005168 -2.41574e-05 -9.01155e-24)
(0.00519216 -3.52047e-05 1.72957e-23)
(0.00522044 -5.17905e-05 -1.68639e-23)
(0.0052517 -7.76645e-05 8.99228e-24)
(0.00528256 -0.000117705 -8.41611e-24)
(0.0053052 -0.000175172 7.97377e-24)
(0.0053089 -0.000242552 -3.18628e-24)
(0.0066523 2.17984e-05 4.12751e-26)
(0.00660222 1.33206e-05 1.48938e-25)
(0.00657544 7.02888e-06 -7.94499e-25)
(0.00656295 1.67142e-06 -5.27772e-25)
(0.0065607 -3.46217e-06 1.36888e-24)
(0.00656497 -8.64004e-06 5.0781e-25)
(0.00657509 -1.51814e-05 -4.0767e-24)
(0.00658996 -2.33292e-05 9.85605e-24)
(0.00660884 -3.39835e-05 -1.29743e-23)
(0.00663113 -4.84658e-05 3.09141e-24)
(0.00665583 -6.85337e-05 9.67794e-24)
(0.0066808 -9.64293e-05 -1.356e-23)
(0.00670229 -0.000133982 6.81134e-24)
(0.00671459 -0.000180664 7.02322e-24)
(0.00671288 -0.000230265 -5.35291e-24)
(0.00822298 3.28021e-05 3.39136e-26)
(0.00816854 2.06021e-05 -2.01876e-25)
(0.00813837 1.15666e-05 7.33974e-25)
(0.0081233 3.92826e-06 -1.03066e-24)
(0.0081186 -3.20583e-06 -3.61764e-24)
(0.00812128 -1.06442e-05 6.18007e-24)
(0.00812968 -1.94088e-05 -3.83818e-24)
(0.00814252 -3.00601e-05 1.33053e-23)
(0.00815877 -4.34449e-05 -9.04144e-24)
(0.00817733 -6.06287e-05 -4.30038e-24)
(0.00819665 -8.26889e-05 -8.60351e-24)
(0.00821445 -0.000110454 7.90621e-24)
(0.00822777 -0.000143812 2.24026e-24)
(0.00823326 -0.000180904 1.92304e-24)
(0.00822947 -0.000217533 -1.69398e-24)
(0.00988178 4.56051e-05 -4.82155e-26)
(0.00982976 2.93078e-05 6.63715e-25)
(0.00980035 1.7228e-05 -1.56342e-24)
(0.00978523 7.10688e-06 -1.3359e-24)
(0.00977977 -2.32636e-06 4.52635e-25)
(0.00978132 -1.19909e-05 9.60451e-25)
(0.00978806 -2.29947e-05 3.63552e-24)
(0.00979852 -3.59564e-05 -1.0093e-23)
(0.00981147 -5.15545e-05 -5.55897e-24)
(0.00982554 -7.04638e-05 1.50283e-23)
(0.00983913 -9.3087e-05 -4.7467e-24)
(0.00985031 -0.000119295 1.62459e-23)
(0.00985724 -0.000148127 -8.57899e-24)
(0.00985822 -0.000177703 -2.74003e-24)
(0.00985346 -0.000205451 1.62326e-24)
(0.0116024 5.84165e-05 -6.2026e-27)
(0.0115624 3.81667e-05 3.63347e-25)
(0.0115401 2.30902e-05 -5.20013e-25)
(0.0115293 1.0516e-05 1.29077e-24)
(0.0115262 -1.14017e-06 -7.83118e-24)
(0.0115285 -1.29498e-05 8.3119e-24)
(0.0115348 -2.59445e-05 -1.34844e-23)
(0.0115436 -4.07436e-05 8.23034e-24)
(0.0115538 -5.7808e-05 6.25004e-24)
(0.0115639 -7.74074e-05 1.38218e-23)
(0.0115726 -9.94394e-05 -1.80987e-23)
(0.0115787 -0.000123311 -3.3834e-24)
(0.0115812 -0.000147921 1.55838e-24)
(0.0115794 -0.000171844 1.11528e-23)
(0.0115742 -0.000193601 -4.53592e-24)
(0.0133552 6.80343e-05 3.21026e-26)
(0.0133375 4.47082e-05 -1.47368e-25)
(0.0133299 2.71862e-05 6.85982e-25)
(0.0133289 1.25556e-05 -2.45559e-24)
(0.0133323 -9.57259e-07 3.77539e-24)
(0.0133386 -1.44859e-05 -4.9761e-24)
(0.0133468 -2.8959e-05 8.45681e-24)
(0.0133558 -4.49021e-05 1.57355e-24)
(0.0133647 -6.25556e-05 -1.19067e-23)
(0.0133725 -8.18781e-05 1.7156e-23)
(0.0133783 -0.000102492 -1.89889e-23)
(0.0133815 -0.000123703 -5.63036e-24)
(0.0133817 -0.00014459 9.93296e-24)
(0.0133787 -0.000164226 2.94659e-24)
(0.0133736 -0.000181802 -1.2868e-24)
(0.015119 7.03508e-05 1.11465e-25)
(0.0151301 4.5466e-05 -1.1135e-24)
(0.0151428 2.65401e-05 -1.93741e-24)
(0.0151564 1.0646e-05 4.5221e-24)
(0.0151701 -4.04462e-06 2.12121e-24)
(0.0151835 -1.85555e-05 -1.33491e-23)
(0.0151963 -3.37224e-05 4.04165e-24)
(0.0152079 -4.99375e-05 2.96666e-24)
(0.0152179 -6.72556e-05 -1.33431e-23)
(0.0152257 -8.54595e-05 1.38296e-23)
(0.015231 -0.000104093 -1.12225e-23)
(0.0152335 -0.000122553 2.8813e-23)
(0.0152335 -0.000140183 -1.38724e-23)
(0.0152309 -0.000156435 8.16698e-24)
(0.0152269 -0.000170893 -2.22647e-24)
(0.0168958 6.23219e-05 -2.17001e-26)
(0.0169334 3.73673e-05 7.09793e-25)
(0.0169661 1.81929e-05 -1.48817e-24)
(0.0169949 1.92556e-06 -8.22596e-25)
(0.01702 -1.29879e-05 9.08674e-24)
(0.017042 -2.75881e-05 -1.21266e-24)
(0.0170609 -4.25422e-05 -1.66175e-23)
(0.0170767 -5.81058e-05 1.96099e-23)
(0.0170895 -7.42223e-05 -4.38514e-24)
(0.0170992 -9.06234e-05 -1.54841e-23)
(0.0171059 -0.000106899 1.65849e-23)
(0.0171098 -0.000122604 8.96223e-24)
(0.0171113 -0.000137315 -7.56681e-24)
(0.0171105 -0.000150734 -1.30659e-23)
(0.0171085 -0.000162664 1.09445e-24)
(0.0187132 4.45822e-05 -2.09305e-26)
(0.0187653 2.01423e-05 -7.48649e-25)
(0.0188103 1.26542e-06 3.93748e-24)
(0.0188489 -1.46404e-05 3.95478e-25)
(0.0188821 -2.904e-05 2.54655e-24)
(0.0189103 -4.29903e-05 -8.74466e-24)
(0.0189339 -5.69713e-05 7.67886e-24)
(0.0189534 -7.11404e-05 1.83782e-24)
(0.018969 -8.54148e-05 1.61375e-23)
(0.018981 -9.95649e-05 -2.48381e-23)
(0.0189898 -0.000113286 -1.13073e-23)
(0.0189957 -0.000126286 -7.47667e-24)
(0.0189994 -0.000138318 1.41072e-23)
(0.0190008 -0.000149234 -4.00817e-25)
(0.0190011 -0.000158956 1.36228e-24)
(0.0205985 2.15605e-05 -2.37744e-26)
(0.0206513 -2.76196e-06 7.01471e-25)
(0.0206973 -2.13815e-05 -1.04074e-24)
(0.0207374 -3.67416e-05 -1.65739e-26)
(0.0207718 -5.04746e-05 1.70682e-24)
(0.020801 -6.34411e-05 4.49318e-24)
(0.0208256 -7.60534e-05 -1.74585e-23)
(0.0208457 -8.84639e-05 1.38829e-24)
(0.0208621 -0.00010063 9.00049e-24)
(0.0208748 -0.000112409 -4.19818e-24)
(0.0208846 -0.000123615 1.14541e-23)
(0.0208916 -0.000134083 8.01444e-24)
(0.0208966 -0.000143685 -1.45638e-23)
(0.0208996 -0.000152363 9.9162e-24)
(0.0209016 -0.000160099 -8.24425e-24)
(0.0225428 -2.09894e-06 -5.86496e-25)
(0.022588 -2.66202e-05 5.63556e-25)
(0.0226279 -4.51038e-05 1.19104e-24)
(0.0226626 -6.0149e-05 -7.23809e-24)
(0.0226926 -7.32384e-05 6.46836e-24)
(0.0227182 -8.51626e-05 -5.07688e-24)
(0.0227397 -9.6349e-05 3.59448e-24)
(0.0227573 -0.000106988 -2.65106e-23)
(0.0227716 -0.000117102 3.82839e-23)
(0.0227829 -0.000126654 -2.27271e-23)
(0.0227917 -0.000135577 2.03355e-23)
(0.0227982 -0.000143805 1.69931e-23)
(0.0228031 -0.000151282 -2.96994e-23)
(0.0228062 -0.000158002 9.64937e-24)
(0.0228085 -0.000163976 -4.03948e-25)
(0.0244866 -2.42707e-05 -1.93525e-26)
(0.024523 -4.86694e-05 3.7992e-25)
(0.0245548 -6.70084e-05 -4.52708e-25)
(0.0245822 -8.16601e-05 -1.9922e-25)
(0.0246058 -9.39901e-05 2.59875e-24)
(0.0246258 -0.000104793 -4.57561e-24)
(0.0246425 -0.000114556 4.394e-24)
(0.0246561 -0.000123519 -1.42168e-23)
(0.0246671 -0.000131753 3.25899e-23)
(0.0246756 -0.000139294 -4.19438e-23)
(0.0246822 -0.000146185 3.44586e-23)
(0.0246869 -0.000152423 -1.1655e-23)
(0.0246905 -0.000158021 5.97512e-25)
(0.0246926 -0.000163012 2.63941e-24)
(0.0246942 -0.000167408 -5.08876e-24)
(0.0263322 -4.49251e-05 -1.54518e-24)
(0.0263615 -6.86037e-05 3.29639e-24)
(0.0263864 -8.6383e-05 -1.71002e-24)
(0.0264074 -0.000100291 -6.82381e-25)
(0.0264253 -0.000111618 3.66538e-24)
(0.0264401 -0.000121116 -3.91833e-24)
(0.0264522 -0.000129364 -3.89077e-24)
(0.0264619 -0.000136673 -9.62983e-24)
(0.0264696 -0.00014314 4.73898e-24)
(0.0264754 -0.000148868 2.3553e-23)
(0.0264796 -0.000153977 -1.2487e-23)
(0.0264825 -0.000158406 7.45933e-24)
(0.0264843 -0.000162248 -3.08771e-24)
(0.0264851 -0.000165612 -9.06245e-24)
(0.0264854 -0.000168502 4.63086e-24)
(0.0279549 -6.48786e-05 4.97143e-25)
(0.027979 -8.70585e-05 -9.06895e-25)
(0.0279987 -0.00010367 -9.21714e-25)
(0.0280148 -0.000116343 1.3304e-24)
(0.028028 -0.000126322 -1.56797e-24)
(0.0280387 -0.000134285 5.39447e-24)
(0.0280472 -0.000140831 -4.71286e-24)
(0.0280537 -0.000146437 -3.37018e-24)
(0.0280585 -0.000151057 3.02758e-24)
(0.028062 -0.000154915 -3.74209e-24)
(0.0280642 -0.000158541 8.69779e-24)
(0.0280656 -0.00016118 4.45198e-24)
(0.028066 -0.000163578 -1.60923e-23)
(0.0280651 -0.000165376 1.10901e-23)
(0.0280642 -0.000166671 -2.32621e-24)
(0.0291954 -8.54609e-05 1.45077e-24)
(0.0292145 -0.000105154 2.64603e-24)
(0.0292293 -0.000119877 -5.80941e-24)
(0.0292409 -0.000130694 -9.2339e-25)
(0.0292497 -0.000138882 2.27396e-24)
(0.0292564 -0.000145032 -1.47247e-24)
(0.0292615 -0.000149685 -3.30083e-24)
(0.0292648 -0.000153529 6.2187e-24)
(0.0292669 -0.000156057 7.79518e-24)
(0.0292679 -0.000158027 -1.84405e-23)
(0.0292673 -0.000159822 9.12957e-24)
(0.0292664 -0.00016059 -4.99042e-25)
(0.0292652 -0.000160844 -3.72709e-25)
(0.0292636 -0.000160839 5.60235e-25)
(0.0292617 -0.000160692 -3.42638e-25)
(0.0298315 -0.000102094 -3.78533e-24)
(0.0298426 -0.000118809 -8.17364e-24)
(0.0298504 -0.000130958 4.33423e-24)
(0.0298558 -0.000139665 1.50375e-23)
(0.0298596 -0.000145849 -4.21666e-24)
(0.0298617 -0.000150072 -1.33194e-24)
(0.0298631 -0.000152948 6.68961e-25)
(0.0298632 -0.000155004 -3.32415e-24)
(0.0298624 -0.000155735 7.90961e-24)
(0.0298614 -0.000155789 -3.28469e-24)
(0.0298598 -0.000155578 2.39592e-24)
(0.0298573 -0.000155023 -4.12954e-24)
(0.0298542 -0.000154131 -4.76459e-24)
(0.0298508 -0.000152934 7.10742e-24)
(0.0298471 -0.000151335 -3.09431e-24)
(0.0296596 -0.000114002 5.95779e-24)
(0.0296669 -0.000127234 -1.35247e-23)
(0.029671 -0.000136641 2.34733e-24)
(0.0296732 -0.000143166 1.82133e-23)
(0.0296739 -0.000147396 -1.72375e-23)
(0.0296734 -0.000149896 5.57563e-24)
(0.029672 -0.000151139 2.50467e-24)
(0.0296699 -0.000151418 -5.42943e-24)
(0.0296669 -0.000151002 2.66861e-24)
(0.0296634 -0.000150066 -8.66171e-25)
(0.0296593 -0.000148631 -1.70031e-24)
(0.0296549 -0.000146702 2.67644e-24)
(0.0296502 -0.000144313 -3.09918e-24)
(0.0296453 -0.000141534 1.96401e-24)
(0.0296401 -0.000138407 -8.87587e-25)
(0.0286724 -0.000120639 3.66823e-24)
(0.0286742 -0.000130757 -7.60189e-24)
(0.0286736 -0.000137598 -4.7269e-24)
(0.0286716 -0.000141945 2.22634e-23)
(0.0286685 -0.000144422 -1.9532e-23)
(0.0286646 -0.000145451 2.36352e-24)
(0.02866 -0.000145379 2.94488e-24)
(0.028655 -0.000144468 1.20986e-24)
(0.0286494 -0.000142829 2.43511e-25)
(0.0286436 -0.000140546 7.14509e-25)
(0.0286375 -0.000137713 -3.09501e-25)
(0.0286312 -0.000134403 8.98664e-25)
(0.0286247 -0.000130675 -6.01457e-24)
(0.0286181 -0.000126597 2.98858e-24)
(0.0286112 -0.000122216 1.15266e-24)
(0.0271335 -0.000120706 9.07034e-24)
(0.0271302 -0.00012795 -1.58397e-23)
(0.027125 -0.000132629 3.30912e-24)
(0.0271191 -0.000135304 -6.45404e-24)
(0.0271125 -0.000136444 -7.17694e-24)
(0.0271053 -0.000136357 2.62006e-23)
(0.0270977 -0.000135269 -9.24974e-24)
(0.0270898 -0.000133347 2.12205e-24)
(0.0270817 -0.000130716 -9.6048e-25)
(0.0270735 -0.000127484 -4.7786e-25)
(0.0270651 -0.000123749 -2.01611e-25)
(0.0270567 -0.000119587 1.82371e-24)
(0.0270482 -0.000115055 3.96273e-26)
(0.0270397 -0.0001102 -1.25919e-24)
(0.027031 -0.000105055 2.32762e-25)
(0.0252466 -0.000115793 3.47993e-24)
(0.0252381 -0.000120952 -1.73219e-23)
(0.0252285 -0.000123966 2.89192e-23)
(0.0252184 -0.000125263 -2.10852e-23)
(0.0252079 -0.000125256 1.90253e-23)
(0.0251971 -0.000124203 -6.85884e-24)
(0.0251861 -0.000122277 -4.24435e-24)
(0.0251752 -0.000119615 -3.57068e-24)
(0.0251642 -0.000116335 4.19258e-24)
(0.0251534 -0.000112532 -1.71063e-24)
(0.0251426 -0.000108282 -2.0125e-24)
(0.025132 -0.000103642 6.30563e-25)
(0.0251215 -9.86537e-05 -9.67436e-25)
(0.0251112 -9.33516e-05 4.81618e-25)
(0.0251009 -8.77628e-05 -1.64485e-25)
(0.0231598 -0.000106277 4.62322e-25)
(0.0231456 -0.00010985 -6.45937e-24)
(0.023131 -0.000111507 -3.05668e-24)
(0.0231165 -0.000111719 2.66808e-23)
(0.023102 -0.000110867 -2.50224e-23)
(0.0230877 -0.000109158 7.00796e-24)
(0.0230736 -0.00010673 1.03408e-24)
(0.0230599 -0.00010369 -4.55982e-25)
(0.0230465 -0.000100128 -1.4933e-24)
(0.0230334 -9.61118e-05 4.962e-24)
(0.0230207 -9.1696e-05 -3.32995e-24)
(0.0230084 -8.69209e-05 2.88594e-25)
(0.0229964 -8.18223e-05 -1.20136e-25)
(0.0229849 -7.64321e-05 -9.21004e-25)
(0.0229737 -7.0782e-05 8.11598e-25)
(0.0209794 -9.29388e-05 6.87859e-25)
(0.0209609 -9.51035e-05 5.94644e-24)
(0.0209424 -9.58872e-05 -6.8758e-24)
(0.0209245 -9.56005e-05 -4.23504e-24)
(0.0209071 -9.44556e-05 2.52507e-23)
(0.0208904 -9.25908e-05 -1.93243e-23)
(0.0208742 -9.01137e-05 -6.38662e-25)
(0.0208587 -8.71113e-05 -3.05869e-24)
(0.0208438 -8.36515e-05 1.94319e-26)
(0.0208296 -7.97882e-05 5.27442e-25)
(0.0208159 -7.55642e-05 -1.11927e-25)
(0.020803 -7.10164e-05 7.99816e-25)
(0.0207906 -6.61797e-05 3.89718e-25)
(0.0207789 -6.10868e-05 9.33734e-26)
(0.0207678 -5.57663e-05 -6.8293e-25)
(0.0187896 -7.7747e-05 4.90642e-24)
(0.0187686 -7.92498e-05 -7.41793e-24)
(0.0187483 -7.97073e-05 -5.34481e-24)
(0.0187289 -7.93094e-05 1.61595e-23)
(0.0187104 -7.82045e-05 -5.81468e-24)
(0.0186927 -7.65039e-05 -6.98395e-24)
(0.0186759 -7.42891e-05 2.56467e-24)
(0.01866 -7.16244e-05 4.37284e-24)
(0.018645 -6.85618e-05 -5.87118e-24)
(0.0186308 -6.51439e-05 4.83123e-24)
(0.0186175 -6.14054e-05 -1.8358e-24)
(0.018605 -5.73791e-05 3.16187e-25)
(0.0185933 -5.30948e-05 7.99069e-25)
(0.0185826 -4.85828e-05 -1.39033e-24)
(0.0185726 -4.38686e-05 6.03744e-25)
(0.0166551 -6.30494e-05 -9.53974e-25)
(0.0166338 -6.42662e-05 -3.11937e-24)
(0.0166135 -6.46584e-05 -9.36584e-24)
(0.0165943 -6.4389e-05 2.60417e-23)
(0.0165761 -6.35556e-05 -5.0307e-24)
(0.0165589 -6.22289e-05 -6.70541e-24)
(0.0165427 -6.04666e-05 1.84917e-24)
(0.0165274 -5.83197e-05 -2.76599e-24)
(0.0165132 -5.58296e-05 -4.39752e-24)
(0.0164999 -5.30271e-05 4.33788e-24)
(0.0164876 -4.99359e-05 1.99699e-25)
(0.0164763 -4.65841e-05 -3.03112e-26)
(0.016466 -4.29961e-05 8.9596e-26)
(0.0164566 -3.92012e-05 -1.46215e-25)
(0.0164482 -3.52244e-05 1.59133e-25)
(0.0146203 -5.00242e-05 3.67956e-24)
(0.0146002 -5.11436e-05 5.01616e-24)
(0.0145811 -5.16322e-05 -5.04215e-24)
(0.0145631 -5.16174e-05 -9.7334e-24)
(0.0145459 -5.11435e-05 1.23304e-23)
(0.0145298 -5.02541e-05 -1.26514e-23)
(0.0145147 -4.89974e-05 1.01524e-25)
(0.0145005 -4.74153e-05 4.45861e-24)
(0.0144874 -4.55368e-05 1.33527e-24)
(0.0144753 -4.33807e-05 -1.78683e-24)
(0.0144641 -4.09633e-05 6.69983e-25)
(0.014454 -3.83064e-05 1.57148e-24)
(0.0144448 -3.54333e-05 -5.05137e-25)
(0.0144367 -3.23711e-05 1.46309e-25)
(0.0144296 -2.91427e-05 3.28959e-26)
(0.0127105 -3.90763e-05 -3.83174e-24)
(0.0126921 -4.01694e-05 4.89379e-24)
(0.0126746 -4.07919e-05 4.64123e-25)
(0.012658 -4.10275e-05 8.57499e-24)
(0.0126421 -4.08835e-05 -7.24734e-24)
(0.0126272 -4.03922e-05 2.70439e-25)
(0.0126131 -3.95956e-05 -8.9907e-25)
(0.0125999 -3.85258e-05 -1.85402e-24)
(0.0125877 -3.72008e-05 1.07466e-24)
(0.0125764 -3.56306e-05 -3.40006e-24)
(0.012566 -3.3826e-05 6.58588e-25)
(0.0125566 -3.18035e-05 7.79252e-25)
(0.0125482 -2.95857e-05 2.55813e-25)
(0.0125407 -2.71958e-05 -2.78454e-27)
(0.0125343 -2.4654e-05 -8.16256e-26)
(0.0109363 -3.00976e-05 2.84528e-24)
(0.0109196 -3.11491e-05 -2.27883e-24)
(0.0109037 -3.18628e-05 -9.10833e-24)
(0.0108883 -3.22758e-05 8.52971e-24)
(0.0108736 -3.2376e-05 1.06503e-23)
(0.0108595 -3.2192e-05 -3.25272e-24)
(0.0108462 -3.17589e-05 -5.33127e-24)
(0.0108336 -3.10998e-05 -6.14374e-24)
(0.0108218 -3.02246e-05 4.374e-24)
(0.0108109 -2.9137e-05 8.57368e-26)
(0.0108008 -2.7844e-05 -6.63645e-25)
(0.0107915 -2.63585e-05 -1.27002e-26)
(0.0107832 -2.47e-05 6.67475e-26)
(0.0107759 -2.28887e-05 -6.25577e-26)
(0.0107694 -2.0941e-05 8.6358e-26)
(0.00929884 -2.27728e-05 -1.79492e-24)
(0.00928378 -2.3738e-05 -1.15797e-24)
(0.00926913 -2.44729e-05 1.56597e-24)
(0.00925482 -2.49708e-05 -4.24583e-24)
(0.00924093 -2.52163e-05 1.37144e-23)
(0.00922752 -2.52362e-05 -1.7091e-23)
(0.00921465 -2.50581e-05 1.56871e-23)
(0.00920238 -2.46976e-05 -6.34517e-24)
(0.00919075 -2.41589e-05 1.10431e-24)
(0.0091798 -2.34425e-05 -2.19949e-25)
(0.00916958 -2.25523e-05 -8.10447e-25)
(0.00916014 -2.14984e-05 -4.67402e-26)
(0.00915151 -2.02964e-05 -2.01715e-25)
(0.00914375 -1.89628e-05 4.51439e-26)
(0.00913686 -1.75104e-05 -3.79623e-26)
(0.0077943 -1.67964e-05 -8.74066e-25)
(0.00778069 -1.76346e-05 2.49317e-25)
(0.00776722 -1.83224e-05 4.76694e-25)
(0.00775385 -1.88226e-05 -1.97451e-24)
(0.0077407 -1.91263e-05 -7.24058e-25)
(0.00772784 -1.92579e-05 7.03462e-24)
(0.00771533 -1.92373e-05 -4.03126e-24)
(0.00770325 -1.90745e-05 4.69346e-25)
(0.00769165 -1.87706e-05 -4.77175e-25)
(0.0076806 -1.83242e-05 -3.74305e-25)
(0.00767014 -1.77372e-05 2.62568e-27)
(0.00766035 -1.70173e-05 3.8573e-25)
(0.00765126 -1.6176e-05 -1.78485e-25)
(0.00764296 -1.52257e-05 1.40009e-26)
(0.00763543 -1.41761e-05 6.02625e-26)
(0.00641626 -1.19456e-05 -3.18493e-25)
(0.00640406 -1.26318e-05 -8.95199e-26)
(0.00639177 -1.32209e-05 -4.72293e-24)
(0.0063794 -1.36639e-05 1.44139e-24)
(0.00636706 -1.39615e-05 -2.86668e-24)
(0.00635484 -1.41337e-05 2.44613e-24)
(0.00634282 -1.41941e-05 3.85538e-24)
(0.00633107 -1.41487e-05 2.43167e-24)
(0.00631965 -1.39973e-05 -3.16636e-24)
(0.00630864 -1.37375e-05 9.40995e-25)
(0.0062981 -1.33701e-05 5.29231e-25)
(0.0062881 -1.29e-05 -4.51376e-25)
(0.0062787 -1.23357e-05 2.19521e-25)
(0.00626998 -1.16855e-05 9.81837e-26)
(0.00626195 -1.09563e-05 -1.09125e-25)
(0.00515719 -8.07357e-06 -1.24977e-24)
(0.00514649 -8.59946e-06 -1.60432e-24)
(0.00513552 -9.06011e-06 -1.68977e-25)
(0.00512433 -9.41211e-06 3.89998e-24)
(0.00511303 -9.66351e-06 -2.55836e-24)
(0.00510173 -9.82863e-06 -3.45309e-25)
(0.00509049 -9.91642e-06 3.66899e-24)
(0.00507939 -9.93048e-06 -1.38082e-25)
(0.0050685 -9.86976e-06 -7.37352e-25)
(0.00505788 -9.73193e-06 -1.81879e-24)
(0.00504762 -9.51683e-06 4.42182e-25)
(0.00503779 -9.22746e-06 7.90447e-25)
(0.00502845 -8.86941e-06 -8.54272e-26)
(0.00501966 -8.44783e-06 9.92437e-26)
(0.00501147 -7.96721e-06 -9.36376e-26)
(0.00400922 -5.07642e-06 -2.73646e-25)
(0.00400016 -5.44927e-06 2.55494e-26)
(0.00399072 -5.77432e-06 1.90496e-24)
(0.00398099 -6.0246e-06 1.13346e-24)
(0.00397107 -6.21098e-06 -9.39354e-25)
(0.00396105 -6.34255e-06 -1.94917e-24)
(0.003951 -6.42477e-06 6.89256e-25)
(0.00394099 -6.45965e-06 -2.66507e-24)
(0.00393107 -6.4461e-06 2.01027e-24)
(0.00392134 -6.38208e-06 7.52829e-25)
(0.00391185 -6.26703e-06 -1.91653e-25)
(0.00390267 -6.10243e-06 -5.72639e-25)
(0.00389388 -5.89169e-06 3.12171e-26)
(0.00388553 -5.63765e-06 5.25405e-26)
(0.00387767 -5.34279e-06 -4.74974e-26)
(0.00296447 -2.86455e-06 -5.04769e-25)
(0.00295722 -3.10696e-06 2.80323e-26)
(0.00294956 -3.31053e-06 1.54275e-24)
(0.00294159 -3.46748e-06 -9.57464e-25)
(0.00293339 -3.58762e-06 3.53705e-24)
(0.00292504 -3.67603e-06 -6.28033e-24)
(0.00291661 -3.73584e-06 4.75622e-24)
(0.00290814 -3.76818e-06 -3.64512e-24)
(0.00289971 -3.77234e-06 2.35559e-24)
(0.00289136 -3.74689e-06 -1.29787e-24)
(0.00288317 -3.69127e-06 4.12207e-25)
(0.0028752 -3.60607e-06 4.33487e-26)
(0.0028675 -3.49321e-06 -6.4894e-27)
(0.00286013 -3.35411e-06 2.67601e-26)
(0.00285315 -3.18977e-06 -1.94923e-26)
(0.00201527 -1.34787e-06 7.67345e-25)
(0.00200997 -1.48746e-06 7.7302e-25)
(0.0020043 -1.59646e-06 -3.3466e-24)
(0.00199835 -1.6802e-06 2.3753e-24)
(0.00199219 -1.74472e-06 -5.15612e-26)
(0.00198588 -1.79244e-06 4.92022e-25)
(0.00197946 -1.82515e-06 -6.70106e-25)
(0.00197298 -1.84374e-06 -1.15721e-24)
(0.00196648 -1.84818e-06 1.07769e-24)
(0.00196002 -1.83797e-06 3.92283e-26)
(0.00195363 -1.81296e-06 -5.62182e-25)
(0.00194739 -1.7735e-06 2.09038e-25)
(0.00194132 -1.72065e-06 4.06607e-26)
(0.00193547 -1.65482e-06 -1.06531e-26)
(0.00192989 -1.5755e-06 1.30884e-26)
(0.00115426 -4.31377e-07 -7.75749e-25)
(0.001151 -4.65936e-07 2.31656e-24)
(0.00114747 -4.93541e-07 1.25058e-24)
(0.00114375 -5.17775e-07 -2.3808e-24)
(0.00113988 -5.38305e-07 -2.72296e-25)
(0.00113589 -5.548e-07 -2.18229e-25)
(0.00113181 -5.67537e-07 5.95178e-25)
(0.00112768 -5.76825e-07 -9.51171e-25)
(0.00112351 -5.82771e-07 1.12925e-24)
(0.00111935 -5.85298e-07 -5.56823e-25)
(0.00111522 -5.84382e-07 -2.49277e-25)
(0.00111115 -5.80084e-07 1.1637e-25)
(0.00110718 -5.7275e-07 -1.50338e-27)
(0.00110334 -5.61129e-07 -4.07886e-26)
(0.00109965 -5.42015e-07 2.84461e-26)
(0.000374454 -1.26843e-08 -5.57138e-27)
(0.000373251 8.25414e-08 4.47931e-25)
(0.000371953 1.47661e-07 4.75107e-25)
(0.000370588 1.86618e-07 -7.78774e-25)
(0.000369168 2.04891e-07 1.44358e-24)
(0.000367704 2.06765e-07 -1.57413e-24)
(0.000366205 1.95639e-07 8.89228e-26)
(0.000364683 1.74366e-07 6.73145e-25)
(0.000363145 1.45418e-07 -9.22331e-25)
(0.000361602 1.10989e-07 -9.91312e-26)
(0.000360067 7.30071e-08 4.17478e-25)
(0.000358549 3.31549e-08 -1.61203e-25)
(0.000357061 -7.19239e-09 -1.91089e-27)
(0.000355615 -4.58661e-08 -6.81543e-27)
(0.00035422 -7.97595e-08 2.37656e-27)
(0.000969925 -0.000246972 7.34857e-26)
(0.00111341 -0.000158859 1.80441e-24)
(0.00135517 -7.14358e-05 -5.07797e-24)
(0.0016028 -3.63298e-06 7.16845e-24)
(0.00184101 4.63036e-05 -2.68418e-24)
(0.00207447 7.92764e-05 -2.44419e-24)
(0.00230259 9.8044e-05 2.7177e-24)
(0.00252548 0.000104999 -5.22043e-24)
(0.00274351 0.000102208 4.08136e-25)
(0.00295708 9.15754e-05 3.186e-24)
(0.00316659 7.47831e-05 -5.81803e-25)
(0.0033725 5.33288e-05 6.03177e-25)
(0.00357527 2.86553e-05 -7.20125e-26)
(0.00377535 2.3274e-06 2.98683e-25)
(0.0039734 -2.3937e-05 -1.07405e-24)
(0.00417017 -4.78771e-05 5.59751e-25)
(0.00436738 -6.6734e-05 -1.10581e-25)
(0.00456725 -7.691e-05 3.81867e-26)
(0.00477428 -7.4815e-05 1.27678e-25)
(0.00499399 -5.6658e-05 -6.39535e-26)
(0.00523471 -2.12724e-05 4.46168e-27)
(0.00550322 2.9063e-05 -4.62533e-27)
(0.00578093 8.06247e-05 2.25141e-26)
(0.00603136 0.000116992 1.36479e-25)
(0.00623964 0.000132799 -2.41087e-25)
(0.00640508 0.000127959 -2.3449e-25)
(0.00652968 0.000104109 -2.68581e-26)
(0.00661574 6.26742e-05 6.25074e-25)
(0.0066647 4.70828e-06 9.19684e-25)
(0.00667675 -6.80067e-05 -1.77417e-24)
(0.00665097 -0.000152335 1.29282e-24)
(0.00658604 -0.000243436 -9.27203e-25)
(0.00648082 -0.000334735 1.0444e-25)
(0.00633484 -0.000418214 -9.58478e-25)
(0.00614847 -0.000484796 9.20913e-25)
(0.00592295 -0.000524601 6.37894e-24)
(0.00566011 -0.0005269 -1.66492e-24)
(0.00536232 -0.00047949 1.78433e-24)
(0.00503255 -0.000367201 1.02817e-24)
(0.00467516 -0.000169879 -9.88284e-24)
(0.00429524 0.000137102 -1.22263e-25)
(0.00390044 0.000571058 4.27848e-24)
(0.00348332 0.00110787 1.38728e-24)
(0.00306517 0.00163036 -6.02865e-24)
(0.00283247 0.00177232 -2.98696e-25)
(0.00183277 -0.000333472 -2.11684e-24)
(0.00189354 -0.000283442 -2.83707e-24)
(0.0020443 -0.000199533 6.02944e-24)
(0.00223329 -0.000124139 2.62949e-24)
(0.00243412 -6.31035e-05 -9.16556e-24)
(0.00264131 -1.86329e-05 9.5564e-24)
(0.00284994 1.08434e-05 -3.3956e-24)
(0.00305752 2.74925e-05 2.55498e-24)
(0.00326295 3.33573e-05 -3.38442e-24)
(0.00346569 3.04261e-05 4.83214e-26)
(0.00366555 2.04763e-05 -1.6407e-24)
(0.00386252 5.09793e-06 3.20749e-24)
(0.00405678 -1.4171e-05 -1.69965e-24)
(0.00424849 -3.56766e-05 -1.29592e-24)
(0.00443805 -5.76624e-05 -5.94597e-25)
(0.00462599 -7.78541e-05 1.55234e-24)
(0.00481375 -9.35192e-05 -4.12542e-26)
(0.00500317 -0.000101142 4.35236e-25)
(0.0051984 -9.72305e-05 -1.58808e-26)
(0.00540443 -7.80793e-05 -6.93154e-26)
(0.00562929 -4.24719e-05 -1.28913e-26)
(0.00587968 7.63693e-06 -1.48709e-26)
(0.00613951 5.91863e-05 1.12886e-25)
(0.00637555 9.64841e-05 2.56631e-25)
(0.00657367 0.000114278 -1.38129e-25)
(0.00673278 0.000112282 -1.2867e-24)
(0.00685422 9.20451e-05 1.86447e-24)
(0.00693963 5.50932e-05 -1.40769e-24)
(0.00698997 2.68561e-06 4.87573e-25)
(0.00700516 -6.31808e-05 -2.7678e-25)
(0.00698428 -0.000139147 1.80115e-24)
(0.00692615 -0.00022028 -1.73793e-24)
(0.00682993 -0.000300019 -2.17753e-25)
(0.00669562 -0.000370452 4.90555e-24)
(0.00652421 -0.00042266 -8.50904e-24)
(0.00631777 -0.000446943 2.31075e-24)
(0.00607946 -0.000432782 1.14118e-23)
(0.00581358 -0.000368335 -3.04188e-24)
(0.00552613 -0.000239239 -9.35512e-24)
(0.00522659 -2.68208e-05 -5.76665e-24)
(0.00492938 0.000291334 1.31599e-23)
(0.0046593 0.00073267 -1.2739e-23)
(0.00444355 0.001272 -2.75129e-24)
(0.00432591 0.00178147 8.3671e-24)
(0.00435139 0.00186023 2.57109e-24)
(0.00285287 -0.000343248 -2.37696e-26)
(0.00286351 -0.000336899 -3.28332e-24)
(0.00292918 -0.000287367 6.31362e-24)
(0.00304926 -0.000222998 5.03121e-24)
(0.00319748 -0.00016231 -8.3148e-24)
(0.00336417 -0.000112695 1.83074e-25)
(0.00354126 -7.59148e-05 7.58947e-25)
(0.00372359 -5.13562e-05 7.89227e-24)
(0.00390815 -3.77246e-05 -9.30209e-24)
(0.00409314 -3.33327e-05 5.50489e-24)
(0.00427741 -3.65269e-05 1.46919e-24)
(0.00446031 -4.57504e-05 -8.54925e-24)
(0.0046415 -5.94271e-05 3.06067e-24)
(0.00482074 -7.59068e-05 1.08014e-24)
(0.0049981 -9.33801e-05 -1.91698e-24)
(0.00517375 -0.000109591 2.73983e-24)
(0.00534882 -0.000121848 -1.63904e-24)
(0.0055247 -0.000126732 1.00628e-25)
(0.00570509 -0.000120861 1.40639e-25)
(0.00589443 -0.000100622 6.19562e-26)
(0.00610033 -6.47563e-05 3.12992e-27)
(0.00632934 -1.4899e-05 1.07933e-26)
(0.00656802 3.65498e-05 -1.237e-25)
(0.00678678 7.46706e-05 4.5037e-25)
(0.00697233 9.43623e-05 -9.21075e-25)
(0.00712313 9.51452e-05 5.6952e-25)
(0.00723984 7.84898e-05 -1.72106e-24)
(0.00732343 4.60325e-05 2.32386e-24)
(0.0073743 -7.86285e-07 -2.24185e-24)
(0.00739214 -5.96978e-05 2.37911e-25)
(0.00737597 -0.000127176 4.40817e-25)
(0.00732476 -0.000198196 2.02717e-24)
(0.00723804 -0.000266235 -4.96664e-25)
(0.00711626 -0.00032354 2.52529e-24)
(0.00696108 -0.000361457 -7.52707e-24)
(0.00677552 -0.000370668 1.36209e-23)
(0.00656404 -0.000341221 -9.51207e-24)
(0.00633292 -0.000262261 1.46884e-23)
(0.00609106 -0.000121384 -2.83175e-23)
(0.00585211 9.627e-05 1.08503e-23)
(0.00563709 0.00040641 3.82131e-24)
(0.00547911 0.000817455 5.9908e-24)
(0.00541553 0.00129649 -7.43878e-24)
(0.00547285 0.00171735 2.00116e-24)
(0.00562316 0.00176522 -1.18628e-24)
(0.00400877 -0.000327345 -8.80035e-25)
(0.00399214 -0.000348004 -1.30048e-24)
(0.00400525 -0.000329665 -5.45359e-24)
(0.00405907 -0.000289577 1.64373e-24)
(0.00414999 -0.000240276 1.08049e-24)
(0.00426705 -0.00019383 4.1412e-24)
(0.00440243 -0.000155344 -8.29453e-24)
(0.00454978 -0.000126465 3.25753e-24)
(0.00470466 -0.000107318 1.01428e-23)
(0.00486405 -9.69661e-05 -2.7594e-24)
(0.00502577 -9.41978e-05 -2.44476e-24)
(0.00518838 -9.76897e-05 -3.67507e-25)
(0.00535093 -0.000105962 1.0948e-24)
(0.00551263 -0.000117431 -2.01523e-24)
(0.00567314 -0.000130314 5.16938e-25)
(0.0058322 -0.00014241 -3.78269e-26)
(0.00599055 -0.000151102 -4.07366e-25)
(0.00614908 -0.000153092 3.81597e-25)
(0.00631098 -0.000145132 4.82537e-25)
(0.00648006 -0.000123728 -8.30256e-26)
(0.00666341 -8.75915e-05 -3.83964e-26)
(0.00686731 -3.80555e-05 -1.80381e-26)
(0.00708119 1.31365e-05 -2.17255e-25)
(0.00727937 5.19074e-05 -1.27164e-25)
(0.00744951 7.33508e-05 -9.85992e-25)
(0.00758961 7.68039e-05 1.50014e-24)
(0.00769965 6.36634e-05 -1.68787e-24)
(0.00777986 3.56922e-05 3.30841e-24)
(0.00783011 -5.48971e-06 -2.95074e-24)
(0.00784978 -5.73767e-05 7.27213e-25)
(0.00783786 -0.000116281 1.1158e-24)
(0.0077935 -0.00017713 -1.28121e-25)
(0.00771655 -0.000233507 -2.24353e-25)
(0.00760797 -0.000277921 -8.61621e-25)
(0.0074701 -0.000302151 1.07725e-24)
(0.00730684 -0.000297526 -4.21463e-24)
(0.00712388 -0.000255084 2.0139e-23)
(0.00692914 -0.000165608 -1.06504e-23)