/*--------------------------------*- C++ -*----------------------------------*\
| =========                 |                                                 |
| \\      /  F ield         | OpenFOAM: The Open Source CFD Toolbox           |
|  \\    /   O peration     | Version:  2312                                  |
|   \\  /    A nd           | Website:  www.openfoam.com                      |
|    \\/     M anipulation  |                                                 |
\*---------------------------------------------------------------------------*/
FoamFile
{
    version     2.0;
    format      ascii;
    arch        "LSB;label=32;scalar=64";
    class       volScalarField;
    location    "116";
    object      p;
}
// * * * * * * * * * * * * * * * * * * * * * * * * * * * * * * * * * * * * * //

dimensions      [0 2 -2 0 0 0 0];

internalField   nonuniform List<scalar> 
4800
(
6.0569e-14
-1.4863e-06
-2.78583e-06
-3.93234e-06
-4.94885e-06
-5.85048e-06
-6.65527e-06
-7.37725e-06
-8.02372e-06
-8.6062e-06
-9.13368e-06
-9.60942e-06
-1.0026e-05
-1.06244e-05
-1.24123e-05
1.37248e-08
-1.46873e-06
-2.7649e-06
-3.90889e-06
-4.92439e-06
-5.82618e-06
-6.63333e-06
-7.35937e-06
-8.01227e-06
-8.60545e-06
-9.15328e-06
-9.67325e-06
-1.0181e-05
-1.07861e-05
-1.17479e-05
2.88735e-08
-1.44936e-06
-2.74214e-06
-3.8837e-06
-4.89783e-06
-5.79951e-06
-6.6069e-06
-7.33578e-06
-7.99361e-06
-8.59442e-06
-9.15392e-06
-9.69003e-06
-1.02126e-05
-1.07282e-05
-1.121e-05
4.53685e-08
-1.42784e-06
-2.71654e-06
-3.85499e-06
-4.86695e-06
-5.7685e-06
-6.57415e-06
-7.30365e-06
-7.96335e-06
-8.56517e-06
-9.12209e-06
-9.64265e-06
-1.01189e-05
-1.05164e-05
-1.07585e-05
6.4815e-08
-1.4022e-06
-2.68572e-06
-3.82002e-06
-4.82862e-06
-5.72855e-06
-6.53201e-06
-7.25787e-06
-7.91455e-06
-8.50908e-06
-9.04868e-06
-9.53151e-06
-9.93753e-06
-1.0225e-05
-1.03342e-05
8.88688e-08
-1.37061e-06
-2.64764e-06
-3.7764e-06
-4.78006e-06
-5.67554e-06
-6.47528e-06
-7.19336e-06
-7.83968e-06
-8.41685e-06
-8.92543e-06
-9.35658e-06
-9.68789e-06
-9.88763e-06
-9.92568e-06
1.19826e-07
-1.33066e-06
-2.5996e-06
-3.72101e-06
-4.71752e-06
-5.60551e-06
-6.39691e-06
-7.10278e-06
-7.73045e-06
-8.27984e-06
-8.74679e-06
-9.12039e-06
-9.38353e-06
-9.52013e-06
-9.52319e-06
1.6116e-07
-1.27882e-06
-2.53772e-06
-3.64935e-06
-4.63569e-06
-5.51228e-06
-6.28989e-06
-6.97694e-06
-7.5778e-06
-8.09081e-06
-8.51038e-06
-8.82808e-06
-9.03539e-06
-9.1299e-06
-9.11766e-06
2.1757e-07
-1.21026e-06
-2.45671e-06
-3.55548e-06
-4.52772e-06
-5.38794e-06
-6.14555e-06
-6.80676e-06
-7.37368e-06
-7.84483e-06
-8.21638e-06
-8.48495e-06
-8.65022e-06
-8.71875e-06
-8.70224e-06
2.94436e-07
-1.11921e-06
-2.35022e-06
-3.43223e-06
-4.38559e-06
-5.22366e-06
-5.95471e-06
-6.58365e-06
-7.11198e-06
-7.53951e-06
-7.86657e-06
-8.0952e-06
-8.23107e-06
-8.28538e-06
-8.27123e-06
3.96718e-07
-9.99874e-07
-2.21151e-06
-3.27201e-06
-4.201e-06
-5.01087e-06
-5.70931e-06
-6.30111e-06
-6.78924e-06
-7.17513e-06
-7.4639e-06
-7.66216e-06
-7.77911e-06
-7.82753e-06
-7.81995e-06
5.27967e-07
-8.47564e-07
-2.03477e-06
-3.06805e-06
-3.96676e-06
-4.74284e-06
-5.404e-06
-5.95597e-06
-6.40423e-06
-6.75445e-06
-7.01248e-06
-7.18904e-06
-7.29526e-06
-7.34369e-06
-7.34544e-06
6.89842e-07
-6.59241e-07
-1.81604e-06
-2.81581e-06
-3.67831e-06
-4.41592e-06
-5.03729e-06
-5.5501e-06
-5.96242e-06
-6.28324e-06
-6.51736e-06
-6.68011e-06
-6.78197e-06
-6.8345e-06
-6.84738e-06
8.8189e-07
-4.33555e-07
-1.55363e-06
-2.51394e-06
-3.33507e-06
-4.03091e-06
-4.61192e-06
-5.08765e-06
-5.46774e-06
-5.76191e-06
-5.98379e-06
-6.14023e-06
-6.24292e-06
-6.3028e-06
-6.32826e-06
1.10099e-06
-1.7218e-07
-1.24821e-06
-2.16386e-06
-2.94071e-06
-3.59387e-06
-4.1357e-06
-4.57809e-06
-4.93269e-06
-5.21046e-06
-5.42193e-06
-5.57652e-06
-5.68406e-06
-5.75384e-06
-5.79307e-06
1.34138e-06
1.19317e-07
-9.05058e-07
-1.7708e-06
-2.50227e-06
-3.11508e-06
-3.62132e-06
-4.03453e-06
-4.36839e-06
-4.63377e-06
-4.8401e-06
-4.99669e-06
-5.1121e-06
-5.19418e-06
-5.24883e-06
1.59378e-06
4.31819e-07
-5.35751e-07
-1.34769e-06
-2.03177e-06
-2.60712e-06
-3.08374e-06
-3.47361e-06
-3.79264e-06
-4.05049e-06
-4.25527e-06
-4.41503e-06
-4.53908e-06
-4.63468e-06
-4.70627e-06
1.84423e-06
7.50391e-07
-1.56445e-07
-9.14317e-07
-1.55068e-06
-2.08767e-06
-2.53818e-06
-2.9131e-06
-3.22463e-06
-3.48123e-06
-3.68697e-06
-3.85054e-06
-3.98378e-06
-4.09348e-06
-4.18276e-06
2.07639e-06
1.05806e-06
2.11807e-07
-4.93572e-07
-1.08636e-06
-1.58378e-06
-2.00677e-06
-2.37718e-06
-2.68956e-06
-2.94321e-06
-3.14786e-06
-3.31714e-06
-3.46144e-06
-3.58718e-06
-3.69499e-06
2.26715e-06
1.33045e-06
5.44424e-07
-1.1216e-07
-6.68903e-07
-1.14403e-06
-1.54948e-06
-1.89653e-06
-2.19186e-06
-2.44165e-06
-2.6537e-06
-2.837e-06
-2.99856e-06
-3.14122e-06
-3.26571e-06
2.37963e-06
1.54134e-06
8.0917e-07
1.93279e-07
-3.30855e-07
-7.79865e-07
-1.16499e-06
-1.4972e-06
-1.78646e-06
-2.04002e-06
-2.26302e-06
-2.4597e-06
-2.63368e-06
-2.78786e-06
-2.9248e-06
2.42939e-06
1.63159e-06
9.73449e-07
4.01218e-07
-9.39661e-08
-5.22774e-07
-8.96171e-07
-1.22376e-06
-1.51322e-06
-1.77028e-06
-1.99906e-06
-2.2028e-06
-2.38482e-06
-2.54838e-06
-2.69612e-06
2.45863e-06
1.72806e-06
1.10198e-06
5.58426e-07
8.40445e-08
-3.31515e-07
-6.97578e-07
-1.02204e-06
-1.31124e-06
-1.57012e-06
-1.80251e-06
-2.01171e-06
-2.20078e-06
-2.37221e-06
-2.52833e-06
2.48076e-06
1.80109e-06
1.204e-06
6.83113e-07
2.24436e-07
-1.81311e-07
-5.42092e-07
-8.64636e-07
-1.15441e-06
-1.41576e-06
-1.65228e-06
-1.86693e-06
-2.06231e-06
-2.24064e-06
-2.40398e-06
2.50192e-06
1.85367e-06
1.2919e-06
7.9077e-07
3.44583e-07
-5.37318e-08
-4.11043e-07
-7.33046e-07
-1.02441e-06
-1.28897e-06
-1.52989e-06
-1.7498e-06
-1.95105e-06
-2.13561e-06
-2.3053e-06
2.53233e-06
1.91944e-06
1.37621e-06
8.8974e-07
4.53161e-07
6.00591e-08
-2.95375e-07
-6.17975e-07
-9.11752e-07
-1.18002e-06
-1.42557e-06
-1.65078e-06
-1.85771e-06
-2.04816e-06
-2.22383e-06
2.56797e-06
1.98231e-06
1.45626e-06
9.81516e-07
5.52184e-07
1.62609e-07
-1.92161e-07
-5.16217e-07
-8.12976e-07
-1.08531e-06
-1.33567e-06
-1.56618e-06
-1.77872e-06
-1.97493e-06
-2.15641e-06
2.60541e-06
2.04208e-06
1.53066e-06
1.06515e-06
6.41296e-07
2.54014e-07
-1.00932e-07
-4.26974e-07
-7.27022e-07
-1.00356e-06
-1.25877e-06
-1.49452e-06
-1.71254e-06
-1.91432e-06
-2.10135e-06
2.64121e-06
2.09678e-06
1.59763e-06
1.13938e-06
7.19799e-07
3.33986e-07
-2.1637e-08
-3.49919e-07
-6.53337e-07
-9.34044e-07
-1.19395e-06
-1.43474e-06
-1.65796e-06
-1.86499e-06
-2.05722e-06
2.67371e-06
2.14537e-06
1.65563e-06
1.20344e-06
7.87463e-07
4.02626e-07
4.60841e-08
-2.84485e-07
-5.91178e-07
-8.75849e-07
-1.14017e-06
-1.38564e-06
-1.61366e-06
-1.82551e-06
-2.0225e-06
2.70198e-06
2.1863e-06
1.70446e-06
1.25801e-06
8.44845e-07
4.60602e-07
1.03054e-07
-2.29716e-07
-5.39466e-07
-8.27784e-07
-1.09614e-06
-1.34585e-06
-1.57821e-06
-1.79439e-06
-1.99564e-06
2.72479e-06
2.2197e-06
1.74552e-06
1.30382e-06
8.92826e-07
5.08961e-07
1.5042e-07
-1.84383e-07
-4.96909e-07
-7.88506e-07
-1.06046e-06
-1.31395e-06
-1.55015e-06
-1.77015e-06
-1.97513e-06
2.74241e-06
2.24667e-06
1.77939e-06
1.34178e-06
9.32534e-07
5.48929e-07
1.89467e-07
-1.4717e-07
-4.62168e-07
-7.56666e-07
-1.03179e-06
-1.2886e-06
-1.52815e-06
-1.75147e-06
-1.95967e-06
2.75584e-06
2.26817e-06
1.80699e-06
1.37298e-06
9.65172e-07
5.81754e-07
2.2147e-07
-1.16795e-07
-4.33975e-07
-7.3101e-07
-1.00891e-06
-1.2686e-06
-1.51104e-06
-1.73722e-06
-1.94819e-06
2.76584e-06
2.28534e-06
1.82927e-06
1.39847e-06
9.91928e-07
6.08601e-07
2.47605e-07
-9.21e-08
-4.11192e-07
-7.10434e-07
-9.90744e-07
-1.25293e-06
-1.49787e-06
-1.72649e-06
-1.93981e-06
2.77295e-06
2.29893e-06
1.84734e-06
1.41914e-06
1.01375e-06
6.30564e-07
2.68906e-07
-7.20925e-08
-3.92848e-07
-6.94002e-07
-9.76404e-07
-1.24074e-06
-1.48782e-06
-1.71853e-06
-1.93385e-06
2.77794e-06
2.30954e-06
1.86183e-06
1.43589e-06
1.03156e-06
6.48432e-07
2.86138e-07
-5.59291e-08
-3.78126e-07
-6.8096e-07
-9.65172e-07
-1.23136e-06
-1.48026e-06
-1.71276e-06
-1.92977e-06
2.78132e-06
2.31787e-06
1.8735e-06
1.44952e-06
1.04608e-06
6.63022e-07
3.00182e-07
-4.28331e-08
-3.6632e-07
-6.70637e-07
-9.56401e-07
-1.22418e-06
-1.47469e-06
-1.70867e-06
-1.92712e-06
2.78354e-06
2.32469e-06
1.88337e-06
1.46116e-06
1.05853e-06
6.75535e-07
3.12189e-07
-3.17264e-08
-3.56392e-07
-6.62064e-07
-9.49263e-07
-1.21849e-06
-1.47044e-06
-1.7058e-06
-1.92554e-06
2.78488e-06
2.33032e-06
1.89192e-06
1.47149e-06
1.06969e-06
6.86796e-07
3.22993e-07
-2.17951e-08
-3.47616e-07
-6.54616e-07
-9.43212e-07
-1.21385e-06
-1.46716e-06
-1.70381e-06
-1.92472e-06
-1.39248e-05
-1.15355e-05
-1.00683e-05
-9.09128e-06
-8.30636e-06
-7.69481e-06
-7.20433e-06
-6.79659e-06
-6.44606e-06
-6.1323e-06
-5.83905e-06
-5.55337e-06
-5.26568e-06
-4.96996e-06
-4.66519e-06
-4.35858e-06
-4.07042e-06
-3.83742e-06
-3.72151e-06
-3.81798e-06
-4.2298e-06
-5.0955e-06
-6.37832e-06
-7.73997e-06
-8.95286e-06
-9.89788e-06
-1.05056e-05
-1.0739e-05
-1.05756e-05
-1.0004e-05
-9.02056e-06
-7.63544e-06
-5.87393e-06
-3.77737e-06
-1.40167e-06
1.18587e-06
3.91e-06
6.69009e-06
9.43976e-06
1.2063e-05
1.44392e-05
1.64148e-05
1.76759e-05
1.79693e-05
1.62878e-05
-1.21882e-05
-1.09624e-05
-9.85634e-06
-8.98832e-06
-8.25213e-06
-7.65639e-06
-7.17073e-06
-6.76419e-06
-6.41354e-06
-6.09923e-06
-5.80539e-06
-5.51945e-06
-5.23147e-06
-4.9357e-06
-4.63142e-06
-4.32598e-06
-4.03992e-06
-3.80978e-06
-3.69711e-06
-3.79612e-06
-4.20736e-06
-5.06816e-06
-6.34229e-06
-7.69327e-06
-8.8974e-06
-9.83678e-06
-1.04416e-05
-1.06743e-05
-1.05127e-05
-9.94465e-06
-8.96887e-06
-7.59693e-06
-5.8561e-06
-3.79006e-06
-1.45746e-06
1.07068e-06
3.71375e-06
6.38264e-06
8.97705e-06
1.13764e-05
1.34141e-05
1.4839e-05
1.51756e-05
1.37222e-05
9.49914e-06
-1.12758e-05
-1.05139e-05
-9.6339e-06
-8.86406e-06
-8.18214e-06
-7.60856e-06
-7.13132e-06
-6.72733e-06
-6.37699e-06
-6.06226e-06
-5.76777e-06
-5.48115e-06
-5.19273e-06
-4.89694e-06
-4.59333e-06
-4.28949e-06
-4.0062e-06
-3.77977e-06
-3.67133e-06
-3.77378e-06
-4.18474e-06
-5.04005e-06
-6.30386e-06
-7.64176e-06
-8.8348e-06
-9.76664e-06
-1.03672e-05
-1.05986e-05
-1.04386e-05
-9.87599e-06
-8.91099e-06
-7.55743e-06
-5.84524e-06
-3.8212e-06
-1.5477e-06
8.99337e-07
3.43231e-06
5.95181e-06
8.34194e-06
1.04588e-05
1.21036e-05
1.29881e-05
1.26633e-05
1.06047e-05
6.62283e-06
-1.06811e-05
-1.01369e-05
-9.43106e-06
-8.7406e-06
-8.11174e-06
-7.5617e-06
-7.09351e-06
-6.69165e-06
-6.34082e-06
-6.02475e-06
-5.72877e-06
-5.44087e-06
-5.15162e-06
-4.85564e-06
-4.55277e-06
-4.25078e-06
-3.97076e-06
-3.74866e-06
-3.64515e-06
-3.75167e-06
-4.16258e-06
-5.01203e-06
-6.2644e-06
-7.58728e-06
-8.76696e-06
-9.68891e-06
-1.02829e-05
-1.05109e-05
-1.03508e-05
-9.79294e-06
-8.83955e-06
-7.5075e-06
-5.83029e-06
-3.85872e-06
-1.65998e-06
6.84072e-07
3.07808e-06
5.41226e-06
7.55758e-06
9.35598e-06
1.06029e-05
1.10357e-05
1.03307e-05
8.21765e-06
4.87081e-06
-1.02061e-05
-9.79445e-06
-9.22602e-06
-8.62147e-06
-8.04351e-06
-7.51752e-06
-7.059e-06
-6.65811e-06
-6.3055e-06
-5.9867e-06
-5.68804e-06
-5.39802e-06
-5.10749e-06
-4.81128e-06
-4.50947e-06
-4.21003e-06
-3.93425e-06
-3.71763e-06
-3.62022e-06
-3.73171e-06
-4.14277e-06
-4.98546e-06
-6.22445e-06
-7.52962e-06
-8.69327e-06
-9.603e-06
-1.01887e-05
-1.04121e-05
-1.02521e-05
-9.70052e-06
-8.76248e-06
-7.45841e-06
-5.82602e-06
-3.92078e-06
-1.81516e-06
4.02918e-07
2.63097e-06
4.75135e-06
6.62831e-06
8.10357e-06
8.99232e-06
9.09282e-06
8.21906e-06
6.29293e-06
3.52461e-06
-9.79195e-06
-9.471e-06
-9.00977e-06
-8.49317e-06
-7.96877e-06
-7.47206e-06
-7.02648e-06
-6.62652e-06
-6.27157e-06
-5.94885e-06
-5.64626e-06
-5.35318e-06
-5.06085e-06
-4.76439e-06
-4.46411e-06
-4.16814e-06
-3.89792e-06
-3.6883e-06
-3.59849e-06
-3.71607e-06
-4.12747e-06
-4.96211e-06
-6.18516e-06
-7.46915e-06
-8.61346e-06
-9.50823e-06
-1.00836e-05
-1.03017e-05
-1.01426e-05
-9.60021e-06
-8.68298e-06
-7.41552e-06
-5.84016e-06
-4.01737e-06
-2.02478e-06
4.43884e-08
2.08269e-06
3.96925e-06
5.5702e-06
6.74083e-06
7.3326e-06
7.2135e-06
6.3047e-06
4.63836e-06
2.4232e-06
-9.40152e-06
-9.14859e-06
-8.77956e-06
-8.34049e-06
-7.87254e-06
-7.41748e-06
-6.98714e-06
-6.59345e-06
-6.23778e-06
-5.91105e-06
-5.604e-06
-5.30727e-06
-5.01284e-06
-4.71625e-06
-4.41819e-06
-4.12685e-06
-3.86379e-06
-3.663e-06
-3.5825e-06
-3.70746e-06
-4.11902e-06
-4.94434e-06
-6.14825e-06
-7.40683e-06
-8.5278e-06
-9.40427e-06
-9.96691e-06
-1.01789e-05
-1.00218e-05
-9.49221e-06
-8.60246e-06
-7.38173e-06
-5.87725e-06
-4.15429e-06
-2.29488e-06
-3.95701e-07
1.43435e-06
3.07708e-06
4.40911e-06
5.30915e-06
5.67101e-06
5.42318e-06
4.55586e-06
3.14693e-06
1.37487e-06
-9.01295e-06
-8.81254e-06
-8.51892e-06
-8.15436e-06
-7.74943e-06
-7.33596e-06
-6.93151e-06
-6.55154e-06
-6.19887e-06
-5.87053e-06
-5.56016e-06
-5.26033e-06
-4.96425e-06
-4.66826e-06
-4.37357e-06
-4.08847e-06
-3.8346e-06
-3.64482e-06
-3.57565e-06
-3.70942e-06
-4.12153e-06
-4.9351e-06
-6.11597e-06
-7.34395e-06
-8.43678e-06
-9.291e-06
-9.83816e-06
-1.00432e-05
-9.88961e-06
-9.37741e-06
-8.52318e-06
-7.36089e-06
-5.94249e-06
-4.33732e-06
-2.63021e-06
-9.18504e-07
6.91865e-07
2.09137e-06
3.17379e-06
3.84581e-06
4.03988e-06
3.72891e-06
2.93983e-06
1.75951e-06
3.28337e-07
-8.6152e-06
-8.45634e-06
-8.22373e-06
-7.92668e-06
-7.584e-06
-7.21841e-06
-6.8487e-06
-6.48929e-06
-6.14662e-06
-5.82171e-06
-5.51143e-06
-5.21086e-06
-4.91502e-06
-4.62145e-06
-4.33219e-06
-4.05565e-06
-3.81363e-06
-3.63758e-06
-3.58203e-06
-3.72621e-06
-4.13876e-06
-4.93787e-06
-6.09087e-06
-7.28194e-06
-8.341e-06
-9.16839e-06
-9.69702e-06
-9.89437e-06
-9.74672e-06
-9.25775e-06
-8.4486e-06
-7.35792e-06
-6.0417e-06
-4.57191e-06
-3.03384e-06
-1.52195e-06
-1.34784e-07
1.03162e-06
1.8916e-06
2.37906e-06
2.45713e-06
2.12608e-06
1.42763e-06
4.41281e-07
-7.26559e-07
-8.20165e-06
-8.07677e-06
-7.89365e-06
-7.65498e-06
-7.37075e-06
-7.05625e-06
-6.72706e-06
-6.39606e-06
-6.07149e-06
-5.75704e-06
-5.45252e-06
-5.15576e-06
-4.86392e-06
-4.57615e-06
-4.29564e-06
-4.03104e-06
-3.80435e-06
-3.64537e-06
-3.60613e-06
-3.76237e-06
-4.17509e-06
-4.95628e-06
-6.07539e-06
-7.22182e-06
-8.24117e-06
-9.03662e-06
-9.54337e-06
-9.73287e-06
-9.59459e-06
-9.13611e-06
-8.38311e-06
-7.37832e-06
-6.18046e-06
-4.86209e-06
-3.50597e-06
-2.20018e-06
-1.03208e-06
-8.1563e-08
5.86408e-07
9.28788e-07
9.30015e-07
6.04319e-07
-4.49846e-09
-8.29977e-07
-1.79277e-06
-7.76758e-06
-7.67157e-06
-7.52931e-06
-7.34039e-06
-7.1093e-06
-6.84534e-06
-6.5599e-06
-6.26369e-06
-5.96496e-06
-5.66883e-06
-5.37737e-06
-5.09087e-06
-4.80872e-06
-4.53187e-06
-4.26493e-06
-4.01686e-06
-3.80989e-06
-3.67198e-06
-3.65209e-06
-3.82199e-06
-4.23439e-06
-4.99362e-06
-6.07135e-06
-7.16332e-06
-8.13722e-06
-8.89644e-06
-9.37767e-06
-9.5597e-06
-9.43548e-06
-9.01624e-06
-8.33169e-06
-7.42748e-06
-6.3632e-06
-5.2094e-06
-4.04332e-06
-2.94355e-06
-1.98403e-06
-1.22798e-06
-7.22128e-07
-4.92317e-07
-5.40787e-07
-8.48196e-07
-1.37506e-06
-2.06862e-06
-2.87012e-06
-7.31011e-06
-7.23962e-06
-7.13201e-06
-6.98571e-06
-6.80204e-06
-6.5861e-06
-6.34544e-06
-6.08824e-06
-5.82173e-06
-5.55147e-06
-5.28088e-06
-5.01222e-06
-4.74688e-06
-4.48753e-06
-4.24031e-06
-4.01448e-06
-3.83245e-06
-3.72014e-06
-3.7229e-06
-3.90777e-06
-4.31891e-06
-5.05156e-06
-6.0795e-06
-7.10791e-06
-8.0258e-06
-8.74821e-06
-9.20113e-06
-9.37707e-06
-9.27265e-06
-8.9026e-06
-8.29939e-06
-7.50982e-06
-6.59204e-06
-5.61191e-06
-4.63849e-06
-3.73889e-06
-2.97297e-06
-2.38861e-06
-2.01785e-06
-1.87525e-06
-1.95659e-06
-2.2413e-06
-2.69677e-06
-3.28295e-06
-3.95645e-06
-6.82896e-06
-6.78173e-06
-6.7044e-06
-6.59513e-06
-6.45367e-06
-6.2824e-06
-6.08593e-06
-5.87006e-06
-5.64056e-06
-5.40268e-06
-5.16044e-06
-4.91741e-06
-4.67658e-06
-4.44212e-06
-4.22156e-06
-4.02439e-06
-3.87289e-06
-3.79082e-06
-3.81946e-06
-4.01991e-06
-4.42883e-06
-5.12835e-06
-6.09723e-06
-7.06646e-06
-7.90677e-06
-8.57774e-06
-9.01105e-06
-9.18704e-06
-9.10988e-06
-8.79962e-06
-8.29027e-06
-7.62746e-06
-6.86543e-06
-6.06303e-06
-5.27938e-06
-4.56934e-06
-3.97953e-06
-3.54499e-06
-3.28718e-06
-3.21334e-06
-3.31701e-06
-3.57965e-06
-3.97597e-06
-4.47591e-06
-5.0475e-06
-6.32677e-06
-6.30131e-06
-6.25122e-06
-6.1748e-06
-6.07115e-06
-5.94112e-06
-5.78731e-06
-5.61358e-06
-5.42425e-06
-5.22388e-06
-5.01649e-06
-4.80637e-06
-4.59759e-06
-4.39545e-06
-4.20846e-06
-4.04634e-06
-3.93062e-06
-3.88303e-06
-3.94006e-06
-4.1557e-06
-4.56116e-06
-5.22304e-06
-6.12078e-06
-7.02699e-06
-7.78597e-06
-8.39197e-06
-8.80752e-06
-8.99162e-06
-8.95058e-06
-8.71049e-06
-8.30577e-06
-7.77848e-06
-7.17666e-06
-6.55059e-06
-5.94874e-06
-5.41428e-06
-4.98232e-06
-4.67791e-06
-4.51516e-06
-4.49735e-06
-4.61832e-06
-4.8635e-06
-5.21285e-06
-5.64435e-06
-6.13515e-06
-5.80868e-06
-5.80414e-06
-5.7793e-06
-5.73278e-06
-5.66355e-06
-5.57171e-06
-5.45864e-06
-5.32683e-06
-5.17941e-06
-5.02012e-06
-4.8527e-06
-4.6816e-06
-4.51151e-06
-4.34832e-06
-4.20109e-06
-4.07958e-06
-4.00374e-06
-3.99374e-06
-4.08013e-06
-4.31001e-06
-4.70847e-06
-5.32516e-06
-6.14454e-06
-6.96793e-06
-7.65507e-06
-8.20539e-06
-8.6003e-06
-8.79688e-06
-8.79959e-06
-8.63757e-06
-8.34426e-06
-7.95614e-06
-7.51327e-06
-7.05659e-06
-6.62432e-06
-6.2493e-06
-5.95725e-06
-5.7659e-06
-5.68467e-06
-5.7152e-06
-5.85229e-06
-6.08545e-06
-6.39978e-06
-6.77918e-06
-7.20732e-06
-5.28234e-06
-5.29855e-06
-5.29782e-06
-5.27927e-06
-5.24203e-06
-5.18593e-06
-5.11167e-06
-5.0209e-06
-4.91591e-06
-4.79971e-06
-4.67566e-06
-4.54798e-06
-4.42156e-06
-4.30241e-06
-4.19957e-06
-4.1226e-06
-4.08916e-06
-4.11761e-06
-4.23256e-06
-4.47395e-06
-4.86022e-06
-5.42749e-06
-6.16132e-06
-6.89282e-06
-7.5095e-06
-8.01461e-06
-8.3915e-06
-8.60533e-06
-8.65914e-06
-8.5806e-06
-8.40055e-06
-8.14926e-06
-7.85816e-06
-7.55892e-06
-7.28067e-06
-7.04773e-06
-6.87869e-06
-6.78608e-06
-6.77645e-06
-6.85085e-06
-7.00551e-06
-7.23303e-06
-7.52364e-06
-7.86593e-06
-8.24771e-06
-4.75894e-06
-4.79628e-06
-4.81912e-06
-4.82727e-06
-4.8203e-06
-4.79797e-06
-4.76066e-06
-4.70953e-06
-4.64638e-06
-4.57368e-06
-4.49439e-06
-4.41232e-06
-4.33223e-06
-4.25984e-06
-4.20352e-06
-4.17228e-06
-4.18166e-06
-4.247e-06
-4.38751e-06
-4.6342e-06
-5.00405e-06
-5.51881e-06
-6.16243e-06
-6.80104e-06
-7.35338e-06
-7.81744e-06
-8.17935e-06
-8.41525e-06
-8.52586e-06
-8.53312e-06
-8.46356e-06
-8.34158e-06
-8.19052e-06
-8.03335e-06
-7.89135e-06
-7.7828e-06
-7.72116e-06
-7.71528e-06
-7.77e-06
-7.88628e-06
-8.06171e-06
-8.2914e-06
-8.56885e-06
-8.88661e-06
-9.23668e-06
-4.25507e-06
-4.3135e-06
-4.35922e-06
-4.3928e-06
-4.41434e-06
-4.42373e-06
-4.42116e-06
-4.40755e-06
-4.38443e-06
-4.35389e-06
-4.31855e-06
-4.28175e-06
-4.24782e-06
-4.222e-06
-4.21157e-06
-4.22502e-06
-4.27271e-06
-4.36984e-06
-4.5303e-06
-4.77688e-06
-5.12485e-06
-5.58474e-06
-6.1385e-06
-6.69055e-06
-7.18598e-06
-7.61221e-06
-7.96203e-06
-8.22212e-06
-8.39077e-06
-8.48188e-06
-8.51579e-06
-8.51189e-06
-8.48674e-06
-8.45602e-06
-8.43244e-06
-8.43129e-06
-8.46283e-06
-8.53386e-06
-8.64782e-06
-8.80568e-06
-9.00597e-06
-9.24561e-06
-9.52062e-06
-9.82636e-06
-1.01575e-05
-3.78701e-06
-3.86628e-06
-3.93437e-06
-3.9923e-06
-4.04051e-06
-4.07916e-06
-4.10852e-06
-4.12937e-06
-4.14302e-06
-4.15135e-06
-4.15669e-06
-4.16189e-06
-4.17063e-06
-4.18738e-06
-4.21801e-06
-4.26957e-06
-4.35049e-06
-4.47219e-06
-4.64561e-06
-4.88574e-06
-5.20534e-06
-5.60999e-06
-6.08191e-06
-6.5598e-06
-7.00126e-06
-7.39399e-06
-7.73478e-06
-8.01766e-06
-8.23958e-06
-8.4068e-06
-8.53285e-06
-8.63176e-06
-8.71638e-06
-8.7972e-06
-8.88027e-06
-8.97286e-06
-9.08332e-06
-9.22485e-06
-9.39637e-06
-9.59742e-06
-9.82712e-06
-1.00844e-05
-1.03676e-05
-1.06738e-05
-1.09995e-05
-3.37562e-06
-3.47458e-06
-3.56392e-06
-3.6443e-06
-3.71627e-06
-3.78046e-06
-3.83756e-06
-3.88833e-06
-3.93383e-06
-3.97557e-06
-4.01559e-06
-4.05633e-06
-4.10079e-06
-4.15262e-06
-4.21637e-06
-4.29756e-06
-4.40257e-06
-4.53959e-06
-4.71679e-06
-4.94401e-06
-5.23185e-06
-5.58579e-06
-5.98946e-06
-6.40293e-06
-6.79915e-06
-7.16499e-06
-7.49756e-06
-7.79641e-06
-8.05969e-06
-8.28885e-06
-8.49024e-06
-8.67224e-06
-8.84286e-06
-9.00857e-06
-9.17622e-06
-9.35524e-06
-9.54758e-06
-9.75755e-06
-9.98839e-06
-1.02361e-05
-1.05004e-05
-1.07833e-05
-1.10848e-05
-1.14035e-05
-1.1737e-05
-3.04907e-06
-3.16413e-06
-3.27087e-06
-3.36968e-06
-3.46107e-06
-3.54549e-06
-3.62364e-06
-3.69664e-06
-3.76578e-06
-3.83241e-06
-3.89812e-06
-3.96473e-06
-4.03445e-06
-4.11015e-06
-4.19549e-06
-4.29458e-06
-4.41246e-06
-4.55488e-06
-4.72826e-06
-4.9396e-06
-5.1971e-06
-5.50788e-06
-5.86041e-06
-6.22594e-06
-6.58564e-06
-6.93105e-06
-7.25664e-06
-7.56793e-06
-7.86225e-06
-8.13809e-06
-8.39743e-06
-8.64475e-06
-8.88517e-06
-9.12369e-06
-9.36469e-06
-9.6122e-06
-9.86791e-06
-1.01366e-05
-1.04175e-05
-1.07008e-05
-1.09979e-05
-1.13152e-05
-1.16442e-05
-1.19834e-05
-1.2334e-05
-2.83182e-06
-2.95836e-06
-3.07654e-06
-3.18701e-06
-3.29074e-06
-3.38861e-06
-3.48104e-06
-3.56851e-06
-3.65215e-06
-3.7335e-06
-3.81457e-06
-3.89531e-06
-3.97826e-06
-4.06635e-06
-4.1633e-06
-4.26956e-06
-4.39154e-06
-4.53319e-06
-4.69946e-06
-4.89638e-06
-5.13111e-06
-5.41052e-06
-5.72543e-06
-6.05416e-06
-6.38647e-06
-6.71638e-06
-7.04329e-06
-7.36239e-06
-7.67448e-06
-7.97852e-06
-8.27464e-06
-8.565e-06
-8.85281e-06
-9.14082e-06
-9.43143e-06
-9.72635e-06
-1.00272e-05
-1.03359e-05
-1.06548e-05
-1.09808e-05
-1.13134e-05
-1.16583e-05
-1.20144e-05
-1.23821e-05
-1.27571e-05
-2.67274e-06
-2.80799e-06
-2.93501e-06
-3.05444e-06
-3.16672e-06
-3.27243e-06
-3.37259e-06
-3.46815e-06
-3.56002e-06
-3.64912e-06
-3.74289e-06
-3.83767e-06
-3.92629e-06
-4.01829e-06
-4.11773e-06
-4.22917e-06
-4.35396e-06
-4.49476e-06
-4.65643e-06
-4.8443e-06
-5.06437e-06
-5.32364e-06
-5.61641e-06
-5.92502e-06
-6.24038e-06
-6.55874e-06
-6.87867e-06
-7.19934e-06
-7.51986e-06
-7.83892e-06
-8.15627e-06
-8.47295e-06
-8.79055e-06
-9.11053e-06
-9.43414e-06
-9.76252e-06
-1.00968e-05
-1.04381e-05
-1.0787e-05
-1.11431e-05
-1.15069e-05
-1.18804e-05
-1.2263e-05
-1.26535e-05
-1.30492e-05
-2.5555e-06
-2.69759e-06
-2.83119e-06
-2.9569e-06
-3.07535e-06
-3.18735e-06
-3.29386e-06
-3.39577e-06
-3.49404e-06
-3.59e-06
-3.68538e-06
-3.78169e-06
-3.87794e-06
-3.97692e-06
-4.08058e-06
-4.19517e-06
-4.32096e-06
-4.46113e-06
-4.61996e-06
-4.80215e-06
-5.01332e-06
-5.25989e-06
-5.53683e-06
-5.82913e-06
-6.1303e-06
-6.43859e-06
-6.75383e-06
-7.07389e-06
-7.39787e-06
-7.72494e-06
-8.05485e-06
-8.38795e-06
-8.72492e-06
-9.06647e-06
-9.41328e-06
-9.76601e-06
-1.01252e-05
-1.04913e-05
-1.08645e-05
-1.1245e-05
-1.16331e-05
-1.20288e-05
-1.24318e-05
-1.28414e-05
-1.3257e-05
-2.46301e-06
-2.61099e-06
-2.75013e-06
-2.88111e-06
-3.00469e-06
-3.12166e-06
-3.23288e-06
-3.33936e-06
-3.4422e-06
-3.54263e-06
-3.642e-06
-3.74147e-06
-3.84186e-06
-3.94502e-06
-4.05338e-06
-4.17005e-06
-4.29724e-06
-4.43789e-06
-4.59566e-06
-4.7748e-06
-4.98022e-06
-5.21741e-06
-5.4823e-06
-5.76285e-06
-6.0543e-06
-6.35566e-06
-6.66582e-06
-6.9836e-06
-7.30823e-06
-7.63918e-06
-7.97617e-06
-8.31918e-06
-8.6684e-06
-9.02408e-06
-9.38653e-06
-9.75599e-06
-1.01327e-05
-1.05167e-05
-1.09082e-05
-1.13071e-05
-1.17135e-05
-1.2127e-05
-1.25474e-05
-1.29742e-05
-1.34067e-05
-2.38735e-06
-2.54078e-06
-2.68501e-06
-2.8208e-06
-2.94897e-06
-3.07035e-06
-3.18587e-06
-3.29656e-06
-3.40351e-06
-3.50791e-06
-3.61095e-06
-3.71387e-06
-3.81794e-06
-3.92489e-06
-4.03687e-06
-4.1563e-06
-4.28561e-06
-4.42755e-06
-4.58539e-06
-4.7629e-06
-4.96445e-06
-5.19501e-06
-5.45128e-06
-5.72318e-06
-6.00697e-06
-6.30181e-06
-6.60692e-06
-6.92152e-06
-7.24509e-06
-7.57723e-06
-7.91762e-06
-8.26609e-06
-8.62258e-06
-8.98713e-06
-9.35977e-06
-9.74054e-06
-1.01294e-05
-1.05264e-05
-1.09315e-05
-1.13443e-05
-1.17648e-05
-1.21925e-05
-1.26271e-05
-1.3068e-05
-1.35146e-05
-2.32552e-06
-2.48416e-06
-2.63327e-06
-2.77366e-06
-2.9062e-06
-3.03178e-06
-3.15137e-06
-3.26598e-06
-3.37674e-06
-3.48481e-06
-3.5914e-06
-3.69781e-06
-3.80543e-06
-3.91595e-06
-4.03131e-06
-4.15368e-06
-4.28539e-06
-4.429e-06
-4.58752e-06
-4.76429e-06
-4.96333e-06
-5.18902e-06
-5.43832e-06
-5.70285e-06
-5.98001e-06
-6.26894e-06
-6.56913e-06
-6.88009e-06
-7.20149e-06
-7.53302e-06
-7.87438e-06
-8.22538e-06
-8.58585e-06
-8.95571e-06
-9.33486e-06
-9.72319e-06
-1.01206e-05
-1.05269e-05
-1.09418e-05
-1.1365e-05
-1.17963e-05
-1.22352e-05
-1.26811e-05
-1.31334e-05
-1.35916e-05
-2.27579e-06
-2.4394e-06
-2.59314e-06
-2.7379e-06
-2.87458e-06
-3.00412e-06
-3.1275e-06
-3.24577e-06
-3.36008e-06
-3.4716e-06
-3.58158e-06
-3.69134e-06
-3.80232e-06
-3.91615e-06
-4.03466e-06
-4.15986e-06
-4.29395e-06
-4.4393e-06
-4.59871e-06
-4.77517e-06
-4.9723e-06
-5.19384e-06
-5.43706e-06
-5.69521e-06
-5.96646e-06
-6.24995e-06
-6.54535e-06
-6.85241e-06
-7.17096e-06
-7.50076e-06
-7.8416e-06
-8.19327e-06
-8.55559e-06
-8.92841e-06
-9.31157e-06
-9.70485e-06
-1.0108e-05
-1.05209e-05
-1.0943e-05
-1.13741e-05
-1.18137e-05
-1.22613e-05
-1.27162e-05
-1.31779e-05
-1.36455e-05
-2.23663e-06
-2.40487e-06
-2.56292e-06
-2.71173e-06
-2.85224e-06
-2.9854e-06
-3.11224e-06
-3.23385e-06
-3.35139e-06
-3.46606e-06
-3.57914e-06
-3.69195e-06
-3.80596e-06
-3.92275e-06
-4.04407e-06
-4.17181e-06
-4.30804e-06
-4.45497e-06
-4.61518e-06
-4.79132e-06
-4.98672e-06
-5.20451e-06
-5.44236e-06
-5.69513e-06
-5.96071e-06
-6.23906e-06
-6.52981e-06
-6.8329e-06
-7.14825e-06
-7.47573e-06
-7.81517e-06
-8.1664e-06
-8.52924e-06
-8.90352e-06
-9.28902e-06
-9.68549e-06
-1.00927e-05
-1.05102e-05
-1.09377e-05
-1.13748e-05
-1.18208e-05
-1.22753e-05
-1.27376e-05
-1.3207e-05
-1.36826e-05
-2.20645e-06
-2.37888e-06
-2.54085e-06
-2.69331e-06
-2.83723e-06
-2.9736e-06
-3.1035e-06
-3.22804e-06
-3.34841e-06
-3.46584e-06
-3.58162e-06
-3.6971e-06
-3.81372e-06
-3.93305e-06
-4.05676e-06
-4.18665e-06
-4.32467e-06
-4.47287e-06
-4.63363e-06
-4.80932e-06
-5.00302e-06
-5.21735e-06
-5.45026e-06
-5.69784e-06
-5.95848e-06
-6.23203e-06
-6.51837e-06
-6.81758e-06
-7.12967e-06
-7.45457e-06
-7.79216e-06
-8.14234e-06
-8.50492e-06
-8.87974e-06
-9.26655e-06
-9.66509e-06
-1.00751e-05
-1.04961e-05
-1.09277e-05
-1.13694e-05
-1.18207e-05
-1.22809e-05
-1.27493e-05
-1.32252e-05
-1.37076e-05
-2.18362e-06
-2.35977e-06
-2.52518e-06
-2.68082e-06
-2.82769e-06
-2.96683e-06
-3.09934e-06
-3.22637e-06
-3.34914e-06
-3.46889e-06
-3.58694e-06
-3.70465e-06
-3.82345e-06
-3.94487e-06
-4.07053e-06
-4.20216e-06
-4.34158e-06
-4.49072e-06
-4.65178e-06
-4.82684e-06
-5.01883e-06
-5.22986e-06
-5.45823e-06
-5.70111e-06
-5.95711e-06
-6.22621e-06
-6.50845e-06
-6.80399e-06
-7.11291e-06
-7.43519e-06
-7.7708e-06
-8.11963e-06
-8.48156e-06
-8.8564e-06
-9.24392e-06
-9.64384e-06
-1.00558e-05
-1.04795e-05
-1.09144e-05
-1.136e-05
-1.18156e-05
-1.22807e-05
-1.27544e-05
-1.32359e-05
-1.37244e-05
-2.16663e-06
-2.34601e-06
-2.51437e-06
-2.67272e-06
-2.82208e-06
-2.96353e-06
-3.0982e-06
-3.22729e-06
-3.35202e-06
-3.47367e-06
-3.59357e-06
-3.71307e-06
-3.83363e-06
-3.95672e-06
-4.08393e-06
-4.21691e-06
-4.35738e-06
-4.50716e-06
-4.66826e-06
-4.84256e-06
-5.03283e-06
-5.2407e-06
-5.46487e-06
-5.70339e-06
-5.95516e-06
-6.22019e-06
-6.49867e-06
-6.79081e-06
-7.09674e-06
-7.41652e-06
-7.75015e-06
-8.09757e-06
-8.45866e-06
-8.83327e-06
-9.22118e-06
-9.62209e-06
-1.00357e-05
-1.04615e-05
-1.08991e-05
-1.13479e-05
-1.18073e-05
-1.22766e-05
-1.2755e-05
-1.32417e-05
-1.37356e-05
-2.15419e-06
-2.33633e-06
-2.50718e-06
-2.66779e-06
-2.8192e-06
-2.96254e-06
-3.09896e-06
-3.22969e-06
-3.35599e-06
-3.47915e-06
-3.60051e-06
-3.72144e-06
-3.84337e-06
-3.96777e-06
-4.09617e-06
-4.23015e-06
-4.37137e-06
-4.52152e-06
-4.68247e-06
-4.85591e-06
-5.04445e-06
-5.24932e-06
-5.46963e-06
-5.70417e-06
-5.95208e-06
-6.21339e-06
-6.48844e-06
-6.77748e-06
-7.08067e-06
-7.39812e-06
-7.72988e-06
-8.07592e-06
-8.43615e-06
-8.81044e-06
-9.19855e-06
-9.60023e-06
-1.00151e-05
-1.04428e-05
-1.08827e-05
-1.13344e-05
-1.17972e-05
-1.22703e-05
-1.27529e-05
-1.32441e-05
-1.37429e-05
-2.14528e-06
-2.32973e-06
-2.50266e-06
-2.66512e-06
-2.8182e-06
-2.96305e-06
-3.10086e-06
-3.23289e-06
-3.36041e-06
-3.48474e-06
-3.60723e-06
-3.72926e-06
-3.85224e-06
-3.97762e-06
-4.10691e-06
-4.24163e-06
-4.38334e-06
-4.53366e-06
-4.69432e-06
-4.86683e-06
-5.05365e-06
-5.2557e-06
-5.47248e-06
-5.70338e-06
-5.94775e-06
-6.20572e-06
-6.47767e-06
-6.76388e-06
-7.06459e-06
-7.37992e-06
-7.70997e-06
-8.05473e-06
-8.41413e-06
-8.78808e-06
-9.17633e-06
-9.57863e-06
-9.99464e-06
-1.04239e-05
-1.0866e-05
-1.13202e-05
-1.1786e-05
-1.22625e-05
-1.27489e-05
-1.32443e-05
-1.37477e-05
-2.13907e-06
-2.32546e-06
-2.5001e-06
-2.66407e-06
-2.81848e-06
-2.96453e-06
-3.10343e-06
-3.23645e-06
-3.36491e-06
-3.49013e-06
-3.61347e-06
-3.73632e-06
-3.86008e-06
-3.9862e-06
-4.11613e-06
-4.25135e-06
-4.39337e-06
-4.5437e-06
-4.70395e-06
-4.87552e-06
-5.06066e-06
-5.26007e-06
-5.47363e-06
-5.70122e-06
-5.94237e-06
-6.19733e-06
-6.46648e-06
-6.75015e-06
-7.04861e-06
-7.36204e-06
-7.69054e-06
-8.03414e-06
-8.39278e-06
-8.76641e-06
-9.15477e-06
-9.55763e-06
-9.97464e-06
-1.04054e-05
-1.08493e-05
-1.13059e-05
-1.17744e-05
-1.2254e-05
-1.27439e-05
-1.32432e-05
-1.37507e-05
-2.13495e-06
-2.32295e-06
-2.49899e-06
-2.66417e-06
-2.81964e-06
-2.96662e-06
-3.10635e-06
-3.24013e-06
-3.36928e-06
-3.49516e-06
-3.61913e-06
-3.74258e-06
-3.86692e-06
-3.99356e-06
-4.12394e-06
-4.25949e-06
-4.40166e-06
-4.55187e-06
-4.71166e-06
-4.88229e-06
-5.06582e-06
-5.2628e-06
-5.4734e-06
-5.69799e-06
-5.93624e-06
-6.18848e-06
-6.45512e-06
-6.73652e-06
-7.03296e-06
-7.34468e-06
-7.67179e-06
-8.01436e-06
-8.37231e-06
-8.74566e-06
-9.13413e-06
-9.53749e-06
-9.95542e-06
-1.03875e-05
-1.08331e-05
-1.12918e-05
-1.17628e-05
-1.22453e-05
-1.27384e-05
-1.32411e-05
-1.37525e-05
-2.1324e-06
-2.32173e-06
-2.49891e-06
-2.66507e-06
-2.82137e-06
-2.96906e-06
-3.10942e-06
-3.24375e-06
-3.37342e-06
-3.49977e-06
-3.62419e-06
-3.74807e-06
-3.87281e-06
-3.99982e-06
-4.1305e-06
-4.26624e-06
-4.40844e-06
-4.55847e-06
-4.71775e-06
-4.88747e-06
-5.0695e-06
-5.26424e-06
-5.47215e-06
-5.69403e-06
-5.92969e-06
-6.17949e-06
-6.44389e-06
-6.72326e-06
-7.01792e-06
-7.32811e-06
-7.65398e-06
-7.99563e-06
-8.35295e-06
-8.72608e-06
-9.11466e-06
-9.51849e-06
-9.93725e-06
-1.03705e-05
-1.08177e-05
-1.12783e-05
-1.17515e-05
-1.22366e-05
-1.27326e-05
-1.32386e-05
-1.37533e-05
-2.13104e-06
-2.32149e-06
-2.49959e-06
-2.66653e-06
-2.82348e-06
-2.97172e-06
-3.11254e-06
-3.24729e-06
-3.37732e-06
-3.504e-06
-3.62874e-06