/*--------------------------------*- C++ -*----------------------------------*\
| =========                 |                                                 |
| \\      /  F ield         | OpenFOAM: The Open Source CFD Toolbox           |
|  \\    /   O peration     | Version:  2312                                  |
|   \\  /    A nd           | Website:  www.openfoam.com                      |
|    \\/     M anipulation  |                                                 |
\*---------------------------------------------------------------------------*/
FoamFile
{
    version     2.0;
    format      ascii;
    arch        "LSB;label=32;scalar=64";
    class       volVectorField;
    location    "103";
    object      U;
}
// * * * * * * * * * * * * * * * * * * * * * * * * * * * * * * * * * * * * * //

dimensions      [0 1 -1 0 0 0 0];

internalField   nonuniform List<vector> 
4800
(
(0.000459177 3.51591e-07 -2.38711e-26)
(0.00045034 3.53377e-07 -1.63853e-25)
(0.000445104 3.35608e-07 2.11406e-25)
(0.000442201 3.01367e-07 9.23293e-26)
(0.000440931 2.54603e-07 1.32873e-24)
(0.000440981 2.0307e-07 -3.14436e-24)
(0.000441851 1.64656e-07 2.90345e-24)
(0.000443541 7.67818e-08 -4.14738e-24)
(0.00044606 -7.13701e-08 1.34283e-24)
(0.000449576 -3.04432e-07 4.4609e-24)
(0.000454443 -7.71273e-07 -1.37707e-24)
(0.000461945 -2.1042e-06 -1.21856e-25)
(0.000479184 -7.08671e-06 -1.65226e-24)
(0.000523137 -2.70555e-05 7.81773e-25)
(0.000594126 -8.58007e-05 -6.25622e-25)
(0.00142122 1.87804e-06 -7.57239e-26)
(0.001395 1.34111e-06 9.42869e-26)
(0.00137948 9.184e-07 -8.33909e-25)
(0.00137085 5.47988e-07 6.30881e-25)
(0.00136702 1.87209e-07 1.91581e-24)
(0.00136698 -1.76129e-07 -3.01048e-24)
(0.0013692 -5.26896e-07 -8.25831e-25)
(0.00137382 -1.0434e-06 -1.692e-25)
(0.00138073 -1.80922e-06 6.83666e-24)
(0.00139038 -3.01212e-06 -5.02194e-24)
(0.00140381 -5.29439e-06 5.46326e-25)
(0.00142371 -1.08394e-05 8.2345e-25)
(0.00145868 -2.70406e-05 -1.21505e-24)
(0.00151855 -7.62292e-05 -3.79966e-25)
(0.00158145 -0.000184619 1.60318e-24)
(0.00248671 5.94387e-06 -5.40856e-26)
(0.0024426 4.19418e-06 5.53942e-26)
(0.00241648 2.84562e-06 5.46184e-25)
(0.00240189 1.69864e-06 -1.28702e-24)
(0.00239531 5.95818e-07 1.24019e-24)
(0.00239496 -5.13691e-07 1.11721e-24)
(0.00239816 -1.6513e-06 -2.9019e-24)
(0.00240529 -3.21612e-06 -1.76603e-24)
(0.00241596 -5.40546e-06 4.25742e-24)
(0.00243059 -8.7737e-06 1.5753e-24)
(0.00245037 -1.4761e-05 -5.48928e-24)
(0.00247736 -2.72095e-05 -8.17652e-25)
(0.00251553 -5.52395e-05 2.33358e-24)
(0.00256337 -0.000116951 3.67923e-24)
(0.00259667 -0.000217457 -1.89983e-24)
(0.00366257 1.31279e-05 1.9974e-26)
(0.00360032 9.28579e-06 -1.37469e-25)
(0.00356338 6.3353e-06 6.00253e-25)
(0.00354262 3.84495e-06 6.13089e-25)
(0.003533 1.47147e-06 -6.35289e-25)
(0.00353189 -8.67135e-07 -3.43259e-24)
(0.00353558 -3.22899e-06 -2.25279e-24)
(0.00354446 -6.44429e-06 8.69084e-24)
(0.00355779 -1.07726e-05 3.52195e-24)
(0.00357557 -1.71413e-05 -5.11297e-24)
(0.00359844 -2.75746e-05 -2.04121e-24)
(0.00362678 -4.6414e-05 -1.54215e-24)
(0.00365986 -8.12194e-05 5.07595e-26)
(0.00369071 -0.000141098 1.13365e-24)
(0.00370221 -0.000219985 5.50654e-27)
(0.00495369 2.4045e-05 -3.66716e-26)
(0.00487366 1.70364e-05 -2.2074e-25)
(0.00482594 1.16696e-05 -1.294e-25)
(0.00479885 7.17395e-06 3.72636e-25)
(0.00478587 2.94432e-06 -1.00468e-24)
(0.00478336 -1.1505e-06 2.46385e-24)
(0.00478699 -5.20324e-06 -4.38461e-25)
(0.00479666 -1.05656e-05 1.47681e-24)
(0.00481121 -1.75165e-05 -8.25512e-24)
(0.00483001 -2.71748e-05 1.5542e-23)
(0.0048528 -4.1651e-05 -1.49629e-23)
(0.00487834 -6.44822e-05 7.8424e-24)
(0.00490344 -0.000100181 -7.22374e-24)
(0.00492083 -0.000151357 6.76957e-24)
(0.00492103 -0.000210154 -2.68335e-24)
(0.00636138 3.94191e-05 4.85482e-26)
(0.00626498 2.80052e-05 1.70703e-25)
(0.00620707 1.92799e-05 -8.89716e-25)
(0.0061738 1.20277e-05 -5.31312e-25)
(0.00615726 5.31488e-06 1.46786e-24)
(0.00615265 -1.02752e-06 5.06785e-25)
(0.00615564 -7.39799e-06 -3.91185e-24)
(0.00616511 -1.52401e-05 9.28429e-24)
(0.00617934 -2.49916e-05 -1.19928e-23)
(0.00619718 -3.77526e-05 2.8913e-24)
(0.0062175 -5.52425e-05 8.59847e-24)
(0.00623814 -7.96033e-05 -1.18488e-23)
(0.00625554 -0.000112559 5.92851e-24)
(0.00626436 -0.000153449 5.95873e-24)
(0.00626049 -0.00019613 -4.52055e-24)
(0.00788115 5.98276e-05 4.02827e-26)
(0.00777168 4.26951e-05 -2.35535e-25)
(0.00770524 2.95899e-05 8.26352e-25)
(0.00766655 1.87699e-05 -1.12976e-24)
(0.00764661 8.93257e-06 -3.70392e-24)
(0.0076396 -2.10656e-07 6.30662e-24)
(0.00764129 -9.37618e-06 -3.75175e-24)
(0.00764961 -1.99327e-05 1.25756e-23)
(0.00766228 -3.24149e-05 -8.56558e-24)
(0.00767771 -4.77591e-05 -3.94433e-24)
(0.00769422 -6.70492e-05 -7.62533e-24)
(0.00770949 -9.11297e-05 7.0341e-24)
(0.00772068 -0.000119959 1.95796e-24)
(0.00772465 -0.000151803 1.63769e-24)
(0.00772023 -0.000182682 -1.43774e-24)
(0.00950052 8.53269e-05 -5.82668e-26)
(0.00938405 6.1289e-05 7.80376e-25)
(0.00931247 4.28233e-05 -1.7908e-24)
(0.00927021 2.76396e-05 -1.394e-24)
(0.00924776 1.40768e-05 5.77407e-25)
(0.00923868 1.58968e-06 1.05293e-24)
(0.00923876 -1.06976e-05 3.59223e-24)
(0.00924528 -2.40459e-05 -9.61976e-24)
(0.00925567 -3.90339e-05 -4.97113e-24)
(0.00926798 -5.62938e-05 1.39564e-23)
(0.00928037 -7.6305e-05 -4.21791e-24)
(0.00929085 -9.90533e-05 1.43996e-23)
(0.00929756 -0.000123745 -7.55577e-24)
(0.00929889 -0.00014871 -2.35894e-24)
(0.0092951 -0.000171618 1.38833e-24)
(0.0111978 0.000114927 -7.70816e-27)
(0.0110839 8.32675e-05 4.31888e-25)
(0.0110128 5.8716e-05 -6.11927e-25)
(0.0109704 3.85287e-05 1.41e-24)
(0.0109475 2.0756e-05 -8.25645e-24)
(0.0109375 4.54219e-06 8.67314e-24)
(0.0109364 -1.10676e-05 -1.32787e-23)
(0.0109412 -2.7179e-05 8.22972e-24)
(0.0109493 -4.43282e-05 5.99661e-24)
(0.0109585 -6.28648e-05 1.27179e-23)
(0.0109674 -8.28447e-05 -1.65653e-23)
(0.0109742 -0.000103863 -2.962e-24)
(0.0109781 -0.000125032 1.45502e-24)
(0.0109781 -0.00014515 9.72447e-24)
(0.0109752 -0.000162951 -3.92178e-24)
(0.0129451 0.000146023 4.17467e-26)
(0.0128458 0.000106926 -1.81294e-25)
(0.012783 7.61153e-05 7.95417e-25)
(0.0127455 5.06467e-05 -2.73383e-24)
(0.0127253 2.84281e-05 4.08519e-24)
(0.0127167 8.3397e-06 -5.16382e-24)
(0.0127158 -1.05891e-05 8.51181e-24)
(0.0127198 -2.92938e-05 1.38921e-24)
(0.0127263 -4.82297e-05 -1.14629e-23)
(0.0127334 -6.7553e-05 1.60423e-23)
(0.0127399 -8.712e-05 -1.7592e-23)
(0.0127445 -0.000106475 -5.01576e-24)
(0.012747 -0.000124937 8.96105e-24)
(0.0127468 -0.000141789 2.60481e-24)
(0.0127449 -0.000156414 -1.12877e-24)
(0.0147182 0.00017435 1.58045e-25)
(0.0146445 0.000129132 -1.39225e-24)
(0.0145979 9.26813e-05 -2.1843e-24)
(0.0145708 6.22181e-05 5.21838e-24)
(0.0145572 3.5716e-05 2.23056e-24)
(0.0145527 1.19378e-05 -1.39821e-23)
(0.0145541 -1.00631e-05 4.39458e-24)
(0.0145589 -3.10425e-05 3.10835e-24)
(0.0145653 -5.13824e-05 -1.27369e-23)
(0.0145718 -7.11624e-05 1.3427e-23)
(0.0145774 -9.02211e-05 -1.03228e-23)
(0.0145814 -0.000108229 2.66709e-23)
(0.0145838 -0.00012478 -1.264e-23)
(0.0145843 -0.000139533 7.3595e-24)
(0.0145838 -0.000152249 -1.98872e-24)
(0.0165123 0.000195529 -4.46748e-26)
(0.0164683 0.00014614 9.08635e-25)
(0.0164419 0.000105308 -1.81263e-24)
(0.0164284 7.06879e-05 -8.87455e-25)
(0.0164242 4.05044e-05 9.95423e-24)
(0.0164259 1.35474e-05 -1.56039e-24)
(0.0164313 -1.10366e-05 -1.72295e-23)
(0.0164386 -3.38322e-05 1.98173e-23)
(0.0164464 -5.51867e-05 -4.50786e-24)
(0.0164537 -7.52023e-05 -1.5012e-23)
(0.0164599 -9.38058e-05 1.58258e-23)
(0.0164646 -0.000110846 8.2766e-24)
(0.0164681 -0.000126157 -7.16955e-24)
(0.01647 -0.000139646 -1.20361e-23)
(0.0164713 -0.00015129 9.98488e-25)
(0.0183509 0.000208257 -1.83802e-26)
(0.0183298 0.000156036 -9.60346e-25)
(0.01832 0.000111962 4.75999e-24)
(0.0183186 7.41177e-05 2.69658e-25)
(0.0183228 4.1019e-05 2.61489e-24)
(0.0183304 1.15565e-05 -9.57596e-24)
(0.0183399 -1.50232e-05 7.98378e-24)
(0.0183499 -3.91549e-05 1.69113e-24)
(0.0183596 -6.11885e-05 1.58557e-23)
(0.0183683 -8.13089e-05 -2.47595e-23)
(0.0183758 -9.95723e-05 -1.09781e-23)
(0.0183819 -0.000115991 -7.05829e-24)
(0.0183869 -0.000130576 1.34357e-23)
(0.0183905 -0.000143386 -3.67851e-25)
(0.0183937 -0.000154515 1.27123e-24)
(0.0202638 0.00021581 -2.80131e-26)
(0.0202534 0.000160868 8.82506e-25)
(0.0202518 0.000113919 -1.2924e-24)
(0.0202563 7.32983e-05 -4.67191e-27)
(0.0202645 3.77454e-05 1.89215e-24)
(0.0202747 6.1893e-06 4.76262e-24)
(0.0202859 -2.19219e-05 -1.841e-23)
(0.0202971 -4.70758e-05 1.66085e-24)
(0.0203075 -6.96436e-05 9.25689e-24)
(0.0203168 -8.98983e-05 -4.12498e-24)
(0.020325 -0.000108025 1.13165e-23)
(0.0203319 -0.000124165 7.73774e-24)
(0.0203379 -0.000138448 -1.40944e-23)
(0.0203428 -0.00015102 9.47144e-24)
(0.0203473 -0.000162038 -7.85438e-24)
(0.0222443 0.000222424 -7.60757e-25)
(0.0222372 0.000164666 7.64056e-25)
(0.0222372 0.000114867 1.32456e-24)
(0.022242 7.16171e-05 -8.00968e-24)
(0.0222497 3.37406e-05 7.1435e-24)
(0.022259 2.95333e-07 -5.3472e-24)
(0.022269 -2.92386e-05 3.83817e-24)
(0.0222789 -5.53942e-05 -2.70207e-23)
(0.0222883 -7.85948e-05 3.89848e-23)
(0.0222966 -9.92075e-05 -2.27011e-23)
(0.0223042 -0.000117522 2.02121e-23)
(0.0223107 -0.000133775 1.66003e-23)
(0.0223166 -0.000148172 -2.89657e-23)
(0.0223215 -0.00016091 9.36071e-24)
(0.0223263 -0.000172176 -3.89727e-25)
(0.0242265 0.000228717 -2.68525e-26)
(0.0242226 0.000168906 7.59165e-25)
(0.0242235 0.000116804 -8.69645e-25)
(0.0242275 7.13598e-05 -2.0148e-25)
(0.0242335 3.15499e-05 2.58154e-24)
(0.0242407 -3.46704e-06 -4.55431e-24)
(0.0242485 -3.43334e-05 4.36334e-24)
(0.0242562 -6.15102e-05 -1.40193e-23)
(0.0242636 -8.54889e-05 3.19812e-23)
(0.0242702 -0.000106713 -4.09348e-23)
(0.0242762 -0.000125539 3.3459e-23)
(0.0242814 -0.000142262 -1.12792e-23)
(0.0242864 -0.000157135 5.70278e-25)
(0.0242906 -0.000170385 2.52632e-24)
(0.0242948 -0.000182215 -4.87097e-24)
(0.0261036 0.000232203 -2.27071e-24)
(0.0261051 0.00017181 5.31032e-24)
(0.0261087 0.000118567 -3.2311e-24)
(0.0261135 7.17617e-05 -1.18008e-25)
(0.0261191 3.07074e-05 2.48763e-24)
(0.0261251 -5.38475e-06 -2.93094e-24)
(0.0261314 -3.71535e-05 -3.35455e-24)
(0.0261376 -6.51296e-05 -8.53553e-24)
(0.0261435 -8.98423e-05 4.0115e-24)
(0.0261486 -0.000111755 2.09508e-23)
(0.0261534 -0.000131241 -1.11477e-23)
(0.0261575 -0.000148615 6.71992e-24)
(0.0261614 -0.000164152 -2.76213e-24)
(0.0261647 -0.000178092 -8.20902e-24)
(0.0261681 -0.000190646 4.19989e-24)
(0.0277498 0.000230668 7.69654e-25)
(0.027757 0.00017126 -1.48517e-24)
(0.027764 0.000118279 -2.70685e-24)
(0.0277707 7.13188e-05 6.07159e-24)
(0.027777 2.97724e-05 -1.86365e-24)
(0.027783 -6.88447e-06 1.45979e-25)
(0.0277889 -3.91525e-05 -1.38309e-24)
(0.0277944 -6.76396e-05 -2.07191e-24)
(0.0277996 -9.29302e-05 1.65745e-24)
(0.027804 -0.000115484 -2.65545e-24)
(0.0278081 -0.000135655 6.07528e-24)
(0.0278116 -0.000153746 3.35886e-24)
(0.027815 -0.000170028 -1.24281e-23)
(0.0278179 -0.000184738 8.71072e-24)
(0.0278207 -0.000198083 -1.80036e-24)
(0.0290121 0.000223655 2.35825e-24)
(0.029024 0.000166669 5.23e-24)
(0.029034 0.000115238 -1.11084e-23)
(0.0290424 6.93956e-05 -4.39897e-24)
(0.0290494 2.85077e-05 8.36033e-24)
(0.0290559 -7.93045e-06 3.51643e-24)
(0.0290621 -4.02338e-05 -4.69463e-25)
(0.0290679 -6.89903e-05 -4.90221e-24)
(0.029073 -9.47533e-05 4.68927e-25)
(0.0290774 -0.00011793 -2.0306e-24)
(0.0290815 -0.000138831 2.20586e-24)
(0.029085 -0.000157734 -2.20637e-25)
(0.0290883 -0.000174891 -2.77572e-25)
(0.0290911 -0.000190522 4.08722e-25)
(0.0290938 -0.00020481 -1.99193e-25)
(0.0296839 0.000207988 -6.41577e-24)
(0.0297002 0.000154941 -1.63924e-23)
(0.0297135 0.000106509 5.24143e-24)
(0.029724 6.28992e-05 3.56517e-23)
(0.0297326 2.39373e-05 -1.08512e-23)
(0.0297398 -1.09518e-05 -7.58944e-24)
(0.0297458 -4.22333e-05 5.02376e-24)
(0.0297506 -7.04371e-05 1.41842e-23)
(0.0297542 -9.59708e-05 -2.6475e-23)
(0.0297569 -0.000119131 9.9735e-24)
(0.0297589 -0.000140171 -9.00515e-25)
(0.0297604 -0.00015934 3.07855e-24)
(0.0297614 -0.000176863 1.21743e-24)
(0.029762 -0.000192935 -1.16148e-24)
(0.0297623 -0.000207708 2.56675e-25)
(0.0295292 0.00018806 1.05206e-23)
(0.0295488 0.000139354 -2.52688e-23)
(0.0295647 9.46653e-05 3.20265e-24)
(0.0295778 5.38965e-05 4.5728e-23)
(0.0295887 1.68182e-05 -4.76605e-23)
(0.0295973 -1.6339e-05 2.00555e-23)
(0.0296042 -4.6142e-05 2.30173e-23)
(0.0296096 -7.32175e-05 -5.43433e-23)
(0.0296137 -9.79107e-05 -2.01314e-24)
(0.029617 -0.000120437 2.10486e-23)
(0.0296194 -0.000141013 7.1013e-24)
(0.0296211 -0.000159865 -5.74577e-24)
(0.0296222 -0.00017719 5.24028e-24)
(0.0296227 -0.000193151 -2.25828e-24)
(0.0296228 -0.000207872 8.34884e-25)
(0.0286256 0.000164129 6.70522e-24)
(0.0286451 0.00012078 -1.46042e-23)
(0.0286598 8.06848e-05 -1.17852e-23)
(0.0286704 4.38143e-05 5.52761e-23)
(0.0286785 1.01743e-05 -5.39563e-23)
(0.0286851 -2.02731e-05 4.6943e-24)
(0.0286898 -4.80783e-05 1.015e-23)
(0.0286925 -7.36099e-05 6.97933e-24)
(0.0286939 -9.70388e-05 8.55214e-24)
(0.0286945 -0.000118539 -4.7509e-23)
(0.0286942 -0.000138313 2.97712e-23)
(0.0286933 -0.000156553 -1.49244e-25)
(0.0286915 -0.000173407 1.95418e-23)
(0.0286893 -0.000188993 -9.1773e-24)
(0.0286864 -0.000203403 -2.24814e-24)
(0.0271076 0.000138512 1.69623e-23)
(0.0271302 0.000100904 -3.07637e-23)
(0.0271481 6.5858e-05 6.10044e-24)
(0.027162 3.3628e-05 -1.78618e-23)
(0.0271729 4.2372e-06 -2.59738e-23)
(0.027181 -2.31311e-05 8.36246e-23)
(0.0271866 -4.86705e-05 -3.4567e-23)
(0.0271901 -7.22935e-05 1.09212e-23)
(0.027192 -9.405e-05 -6.56081e-24)
(0.0271925 -0.000114125 -2.05858e-23)
(0.0271919 -0.000132705 4.08514e-23)
(0.0271902 -0.000149926 -2.56291e-23)
(0.0271875 -0.000165882 2.92079e-24)
(0.027184 -0.000180654 5.15439e-24)
(0.0271796 -0.000194307 -6.78461e-25)
(0.0252705 0.000114905 6.59417e-24)
(0.0252941 8.22658e-05 -3.53593e-23)
(0.0253129 5.17549e-05 6.34757e-23)
(0.0253273 2.33464e-05 -5.03192e-23)
(0.0253381 -3.12272e-06 5.41683e-23)
(0.025346 -2.78799e-05 -1.68715e-23)
(0.0253512 -5.09479e-05 -1.2596e-23)
(0.0253542 -7.23153e-05 -1.58741e-23)
(0.0253552 -9.20866e-05 3.20153e-23)
(0.0253547 -0.000110421 1.77992e-24)
(0.0253527 -0.000127446 -3.42589e-23)
(0.0253493 -0.000143249 -5.82911e-24)
(0.0253447 -0.000157892 1.01026e-23)
(0.0253391 -0.000171433 -2.55228e-24)
(0.0253324 -0.000183919 6.23972e-25)
(0.0232561 9.21849e-05 8.82098e-25)
(0.0232796 6.41728e-05 -1.33953e-23)
(0.0232978 3.7746e-05 -8.41461e-24)
(0.0233114 1.29332e-05 6.59107e-23)
(0.0233213 -1.02894e-05 -6.6844e-23)
(0.023328 -3.19966e-05 2.00486e-23)
(0.0233318 -5.22263e-05 3.63696e-24)
(0.0233332 -7.1059e-05 -2.05772e-24)
(0.0233323 -8.85889e-05 -1.07939e-23)
(0.0233296 -0.000104902 4.94002e-23)
(0.0233251 -0.000120066 -4.0408e-23)
(0.023319 -0.000134138 -2.51318e-24)
(0.0233115 -0.00014716 4.10601e-24)
(0.0233027 -0.000159175 4.61724e-24)
(0.0232926 -0.000170211 -3.72101e-24)
(0.0211638 7.18432e-05 1.31554e-24)
(0.0211855 4.81832e-05 1.25206e-23)
(0.021202 2.57686e-05 -1.42873e-23)
(0.0212138 4.6863e-06 -1.06993e-23)
(0.0212216 -1.51381e-05 7.07484e-23)
(0.0212261 -3.37075e-05 -5.40805e-23)
(0.0212275 -5.10923e-05 -9.12426e-25)
(0.0212262 -6.73615e-05 -1.26599e-23)
(0.0212225 -8.25539e-05 -1.42368e-24)
(0.0212166 -9.6705e-05 1.68869e-24)
(0.0212088 -0.000109855 -9.18e-24)
(0.0211993 -0.000122043 6.42374e-24)
(0.021188 -0.000133298 2.08323e-24)
(0.0211753 -0.000143645 2.2428e-24)
(0.0211612 -0.000153099 3.63603e-24)
(0.0190611 5.48993e-05 9.37476e-24)
(0.0190801 3.53587e-05 -1.45342e-23)
(0.0190938 1.68133e-05 -1.25647e-23)
(0.0191029 -7.19911e-07 3.85421e-23)
(0.0191079 -1.72824e-05 -1.37595e-23)
(0.0191095 -3.28657e-05 -2.11463e-23)
(0.0191079 -4.75141e-05 7.20387e-24)
(0.0191035 -6.12513e-05 1.81872e-23)
(0.0190965 -7.40894e-05 -3.06161e-23)
(0.0190873 -8.60496e-05 3.18419e-23)
(0.019076 -9.71582e-05 -1.81231e-23)
(0.0190627 -0.000107439 8.46027e-24)
(0.0190477 -0.000116907 -1.28231e-23)
(0.0190311 -0.000125576 1.35687e-23)
(0.0190129 -0.000133451 -3.64609e-24)
(0.0169956 4.15758e-05 -1.81685e-24)
(0.0170114 2.57881e-05 -6.58155e-24)
(0.0170221 1.07342e-05 -2.17954e-23)
(0.0170283 -3.57587e-06 6.10151e-23)
(0.0170305 -1.71122e-05 -1.04066e-23)
(0.0170293 -2.99049e-05 -1.81106e-23)
(0.0170248 -4.19625e-05 6.97204e-24)
(0.0170175 -5.3286e-05 -9.98654e-24)
(0.0170077 -6.3881e-05 -2.39698e-23)
(0.0169954 -7.37588e-05 2.29228e-23)
(0.016981 -8.2931e-05 1.1059e-24)
(0.0169646 -9.14079e-05 -9.42307e-24)
(0.0169464 -9.91944e-05 1.06608e-23)
(0.0169265 -0.000106297 8.78808e-25)
(0.0169051 -0.000112716 -1.07209e-24)
(0.015002 3.14308e-05 6.97664e-24)
(0.0150149 1.89292e-05 1.08249e-23)
(0.0150229 6.97702e-06 -9.57784e-24)
(0.0150266 -4.44003e-06 -2.27255e-23)
(0.0150265 -1.52853e-05 3.16871e-23)
(0.015023 -2.55659e-05 -3.59068e-23)
(0.0150163 -3.52785e-05 -2.27725e-24)
(0.0150069 -4.44179e-05 1.45624e-23)
(0.0149948 -5.29832e-05 5.39847e-24)
(0.0149804 -6.09753e-05 -1.2682e-23)
(0.0149637 -6.83957e-05 -1.06097e-24)
(0.0149451 -7.52466e-05 2.92493e-23)
(0.0149247 -8.15279e-05 -1.13243e-23)
(0.0149026 -8.72416e-05 -3.30523e-24)
(0.0148789 -9.23863e-05 -2.43714e-25)
(0.0131046 2.37718e-05 -7.23005e-24)
(0.013115 1.40869e-05 9.36264e-24)
(0.0131209 4.80395e-06 1.1749e-24)
(0.0131228 -4.1028e-06 2.08256e-23)
(0.0131211 -1.26042e-05 -1.66088e-23)
(0.0131161 -2.06912e-05 1.774e-24)
(0.0131081 -2.83514e-05 -1.59456e-24)
(0.0130973 -3.55752e-05 -5.83772e-24)
(0.013084 -4.23559e-05 5.94138e-24)
(0.0130683 -4.86886e-05 -1.93128e-23)
(0.0130505 -5.457e-05 6.56666e-25)
(0.0130307 -5.99983e-05 4.63373e-24)
(0.0130091 -6.49706e-05 3.26396e-24)
(0.0129859 -6.94863e-05 1.44537e-24)
(0.0129611 -7.35417e-05 6.55803e-25)
(0.0113184 1.7949e-05 5.34307e-24)
(0.0113269 1.06248e-05 -4.18857e-24)
(0.0113314 3.57318e-06 -1.96946e-23)
(0.0113322 -3.20568e-06 1.85242e-23)
(0.0113296 -9.71229e-06 2.76901e-23)
(0.0113238 -1.59271e-05 -6.21003e-24)
(0.0113152 -2.18291e-05 -1.45649e-23)
(0.0113039 -2.74064e-05 -2.24541e-23)
(0.0112902 -3.26504e-05 1.73364e-23)
(0.0112742 -3.75537e-05 1.28814e-24)
(0.0112561 -4.21114e-05 -4.40434e-24)
(0.0112361 -4.63194e-05 -1.47108e-24)
(0.0112143 -5.01737e-05 2.95864e-24)
(0.011191 -5.36718e-05 1.83161e-27)
(0.0111662 -5.68094e-05 -7.4197e-25)
(0.00965096 1.34544e-05 -3.35552e-24)
(0.00965821 8.06588e-06 -2.56125e-24)
(0.0096618 2.86005e-06 2.89981e-24)
(0.00966199 -2.16827e-06 -1.0226e-23)
(0.00965904 -7.01872e-06 3.38867e-23)
(0.00965319 -1.16683e-05 -4.65479e-23)
(0.00964464 -1.60932e-05 4.72903e-23)
(0.00963358 -2.02834e-05 -2.0486e-23)
(0.00962018 -2.42301e-05 5.19353e-24)
(0.00960462 -2.79262e-05 4.57969e-25)
(0.00958707 -3.13661e-05 -4.13338e-24)
(0.00956769 -3.45451e-05 1.93553e-24)
(0.00954664 -3.74588e-05 -3.84886e-24)
(0.00952409 -4.0104e-05 -6.31405e-25)
(0.00950015 -4.24761e-05 3.44048e-25)
(0.00810475 9.92971e-06 -1.62728e-24)
(0.00811104 6.09039e-06 3.81402e-25)
(0.00811411 2.36727e-06 9.21077e-25)
(0.00811413 -1.24464e-06 -4.61368e-24)
(0.0081113 -4.7446e-06 -2.32407e-24)
(0.00810583 -8.1127e-06 1.90149e-23)
(0.00809788 -1.13225e-05 -1.13352e-23)
(0.00808759 -1.43687e-05 1.78946e-24)
(0.00807514 -1.72435e-05 -1.69658e-24)
(0.00806068 -1.99407e-05 -2.05432e-24)
(0.00804436 -2.24552e-05 -7.8047e-25)
(0.00802633 -2.47824e-05 4.43733e-24)
(0.00800672 -2.69181e-05 1.59319e-24)
(0.00798571 -2.8859e-05 -3.04723e-24)
(0.00796341 -3.06006e-05 -5.68718e-25)
(0.00667861 7.13408e-06 -5.90703e-25)
(0.00668416 4.50189e-06 -2.17774e-25)
(0.00668694 1.94082e-06 -1.01025e-23)
(0.00668706 -5.49492e-07 2.40157e-24)
(0.00668466 -2.97348e-06 -8.03823e-24)
(0.0066799 -5.31785e-06 4.97962e-24)
(0.00667292 -7.55224e-06 1.05768e-23)
(0.00666384 -9.67789e-06 8.62643e-24)
(0.0066528 -1.16885e-05 -1.24759e-23)
(0.00663993 -1.35788e-05 3.77861e-24)
(0.00662537 -1.53448e-05 3.65543e-24)
(0.00660925 -1.69821e-05 -5.74428e-24)
(0.0065917 -1.84876e-05 3.09393e-24)
(0.00657285 -1.98578e-05 -4.25691e-25)
(0.00655282 -2.1089e-05 1.06005e-24)
(0.00536922 4.91244e-06 -2.30977e-24)
(0.00537414 3.19478e-06 -3.31612e-24)
(0.00537674 1.51998e-06 -7.74862e-25)
(0.00537709 -1.05224e-07 8.37792e-24)
(0.00537528 -1.69803e-06 -6.21956e-24)
(0.00537143 -3.2471e-06 -1.42981e-24)
(0.00536565 -4.72132e-06 1.06763e-23)
(0.00535805 -6.1281e-06 2.53692e-25)
(0.00534873 -7.46208e-06 -2.16676e-24)
(0.0053378 -8.71939e-06 -9.30321e-24)
(0.00532539 -9.89671e-06 6.44628e-25)
(0.00531159 -1.09907e-05 7.13067e-24)
(0.00529652 -1.19989e-05 -9.43725e-25)
(0.00528031 -1.29184e-05 -1.33019e-24)
(0.00526304 -1.37459e-05 9.27024e-25)
(0.00417193 3.16779e-06 -5.04063e-25)
(0.00417622 2.12049e-06 1.69147e-26)
(0.00417865 1.10086e-06 3.96981e-24)
(0.00417922 1.10517e-07 2.8391e-24)
(0.00417807 -8.5161e-07 -1.73347e-24)
(0.00417517 -1.80868e-06 -4.84664e-24)
(0.0041707 -2.71338e-06 2.10758e-24)
(0.0041647 -3.57928e-06 -9.19861e-24)
(0.00415726 -4.40282e-06 7.14769e-24)
(0.00414847 -5.18119e-06 4.09696e-24)
(0.00413842 -5.91186e-06 2.78161e-25)
(0.0041272 -6.59236e-06 -4.86744e-24)
(0.0041149 -7.22094e-06 1.00009e-24)
(0.00410161 -7.79529e-06 -8.83312e-25)
(0.00408743 -8.31286e-06 4.75344e-25)
(0.00308122 1.83728e-06 -9.26852e-25)
(0.0030848 1.25714e-06 -5.29501e-27)
(0.00308697 6.99348e-07 3.1614e-24)
(0.00308769 1.57452e-07 -1.96411e-24)
(0.0030871 -3.65831e-07 8.63926e-24)
(0.00308514 -8.95532e-07 -1.61488e-23)
(0.00308195 -1.39434e-06 1.36706e-23)
(0.00307755 -1.87211e-06 -1.18752e-23)
(0.00307202 -2.32784e-06 8.91732e-24)
(0.00306541 -2.75965e-06 -6.0398e-24)
(0.0030578 -3.16551e-06 2.12761e-24)
(0.00304926 -3.54377e-06 3.33875e-25)
(0.00303984 -3.8934e-06 6.53494e-25)
(0.00302964 -4.21276e-06 -8.37526e-25)
(0.00301871 -4.50006e-06 1.95938e-25)
(0.00209101 8.82665e-07 1.4047e-24)
(0.00209376 6.0203e-07 1.59472e-24)
(0.00209551 3.43744e-07 -6.76077e-24)
(0.00209625 9.42365e-08 4.99295e-24)
(0.00209607 -1.45995e-07 -9.928e-27)
(0.00209493 -3.88673e-07 1.46415e-24)
(0.00209289 -6.17594e-07 -1.69503e-24)
(0.00208999 -8.35328e-07 -3.89505e-24)
(0.00208627 -1.04138e-06 3.96789e-24)
(0.00208178 -1.2362e-06 5.25919e-25)
(0.00207656 -1.41924e-06 -3.61829e-24)
(0.00207066 -1.58975e-06 1.2839e-24)
(0.00206413 -1.74745e-06 8.98222e-25)
(0.00205701 -1.89152e-06 -9.57555e-26)
(0.00204935 -2.01965e-06 -1.31497e-25)
(0.00119491 3.02687e-07 -1.41596e-24)
(0.00119666 2.06087e-07 4.40488e-24)
(0.00119783 1.30507e-07 2.8038e-24)
(0.0011984 5.62667e-08 -4.84755e-24)
(0.00119843 -1.46668e-08 -5.76329e-25)
(0.0011979 -8.78769e-08 -5.49232e-25)
(0.00119684 -1.58653e-07 1.77567e-24)
(0.00119526 -2.26385e-07 -3.0717e-24)
(0.00119319 -2.8542e-07 4.41804e-24)
(0.00119065 -3.41167e-07 -2.15429e-24)
(0.00118767 -3.97239e-07 -1.56843e-24)
(0.00118427 -4.53579e-07 1.00017e-24)
(0.00118049 -5.10447e-07 -1.40517e-24)
(0.00117634 -5.67796e-07 1.47723e-24)
(0.00117187 -6.19584e-07 -2.8453e-25)
(0.000386352 9.60033e-08 -1.00991e-26)
(0.000386924 1.51679e-07 8.61926e-25)
(0.000387321 2.01102e-07 1.03712e-24)
(0.000387525 2.34806e-07 -1.58105e-24)
(0.000387558 2.55212e-07 3.51518e-24)
(0.000387413 2.61739e-07 -3.8008e-24)
(0.000387091 2.56266e-07 2.69284e-25)
(0.0003866 2.40534e-07 2.36653e-24)
(0.000385945 2.19947e-07 -3.28371e-24)
(0.000385133 1.91882e-07 -6.93334e-25)
(0.000384171 1.5444e-07 2.58741e-24)
(0.000383067 1.08593e-07 -1.17523e-24)
(0.00038183 5.50928e-08 -5.26066e-25)
(0.00038047 -5.28015e-09 4.53307e-25)
(0.000378995 -6.77026e-08 -2.35121e-26)
(0.000878313 -0.000210889 6.18218e-26)
(0.0010098 -0.000116825 1.47165e-24)
(0.00123277 -2.17682e-05 -4.06874e-24)
(0.00146252 5.6592e-05 5.58816e-24)
(0.00168611 0.000120144 -2.09101e-24)
(0.00190819 0.000169438 -1.79232e-24)
(0.00212867 0.000206565 1.94918e-24)
(0.002348 0.000233186 -3.67731e-24)
(0.00256663 0.000250634 2.74608e-25)
(0.00278484 0.000260058 2.2569e-24)
(0.00300292 0.00026247 -4.31929e-25)
(0.00322119 0.000258745 4.75162e-25)
(0.00344007 0.000249632 -4.06568e-26)
(0.00366018 0.000235752 3.26196e-25)
(0.00388231 0.000217624 -1.19923e-24)
(0.00410745 0.000195753 6.65204e-25)
(0.0043371 0.000170701 -2.15633e-25)
(0.00457317 0.00014331 1.71809e-26)
(0.00481868 0.000114384 4.89413e-25)
(0.00507753 8.48096e-05 -3.02261e-25)
(0.00535429 5.42802e-05 3.23569e-26)
(0.00565273 2.00861e-05 -2.69302e-26)
(0.00594739 -2.06553e-05 4.06741e-26)
(0.00620197 -6.88861e-05 1.23119e-25)
(0.00640557 -0.000123163 -2.20713e-25)
(0.00655974 -0.000181768 -6.10556e-26)
(0.00666753 -0.000242814 9.02625e-26)
(0.0067328 -0.000304813 -2.25639e-26)
(0.00675863 -0.000366152 -7.30834e-25)
(0.00674697 -0.000424894 1.57188e-24)
(0.00669957 -0.000478858 -3.26858e-24)
(0.00661737 -0.000524463 4.48421e-24)
(0.006501 -0.000557098 -1.88271e-24)
(0.00635138 -0.00057101 -3.7298e-24)
(0.00616969 -0.000559441 3.71962e-24)
(0.00595742 -0.000514624 1.42443e-23)
(0.00571632 -0.000427512 -5.2606e-24)
(0.00544847 -0.000287019 1.96198e-24)
(0.00515634 -7.85797e-05 5.15556e-25)
(0.00484351 0.000217138 -1.56512e-23)
(0.00451307 0.00062193 -1.78564e-25)
(0.0041684 0.0011465 5.71079e-24)
(0.00379024 0.00174654 1.47924e-24)
(0.00339695 0.00225923 -7.68046e-24)
(0.00317036 0.00225044 -3.55566e-25)
(0.00166842 -0.000289833 -1.76344e-24)
(0.00172519 -0.000231523 -2.26878e-24)
(0.00186655 -0.000140239 4.87152e-24)
(0.00204421 -5.55796e-05 1.98818e-24)
(0.00223496 1.74269e-05 -6.91274e-24)
(0.00243415 7.64499e-05 7.02888e-24)
(0.00263788 0.000122572 -2.47188e-24)
(0.0028443 0.000157324 1.79174e-24)
(0.00305263 0.00018208 -2.38189e-24)
(0.00326243 0.000198074 2.72333e-26)
(0.00347353 0.000206392 -1.2619e-24)
(0.00368593 0.000207965 2.52335e-24)
(0.00389983 0.000203585 -1.42623e-24)
(0.00411563 0.000193915 -1.3743e-24)
(0.00433395 0.000179516 -9.92871e-25)
(0.00455556 0.000160922 1.77585e-24)
(0.00478169 0.000138715 -2.30568e-25)
(0.00501389 0.000113738 9.71869e-25)
(0.0052547 8.67785e-05 1.36521e-25)
(0.00550738 5.8738e-05 -2.85945e-25)
(0.00577578 2.9412e-05 -1.0791e-25)
(0.0060631 -3.59077e-06 -5.15244e-26)
(0.00634487 -4.27035e-05 2.23491e-25)
(0.00658734 -8.85625e-05 1.89232e-25)
(0.00678077 -0.000139696 -2.48963e-25)
(0.00692694 -0.000194507 -5.27197e-25)
(0.00702879 -0.000251205 4.23031e-25)
(0.00709006 -0.000308295 9.37922e-26)
(0.00711352 -0.000364047 -6.80053e-26)
(0.00710125 -0.000416424 5.26662e-25)
(0.00705509 -0.000463149 -5.26333e-24)
(0.00697616 -0.000500543 1.02815e-23)
(0.00686541 -0.000523988 -9.96167e-24)
(0.00672425 -0.000527787 2.17539e-23)
(0.00655453 -0.000505269 -2.92906e-23)
(0.00635872 -0.000448786 7.41536e-24)
(0.00614002 -0.000349479 2.28917e-23)
(0.0059027 -0.000196655 -7.38947e-24)
(0.0056527 2.34625e-05 -1.61928e-23)
(0.00539952 0.000328966 -8.55125e-24)
(0.00515743 0.000740748 1.94484e-23)
(0.00495052 0.00127087 -1.77566e-23)
(0.0047969 0.00187764 -3.19555e-24)
(0.00474684 0.00238675 1.04517e-23)
(0.00479833 0.00233726 3.02646e-24)
(0.00261157 -0.00029874 -1.96721e-26)
(0.00262178 -0.000282193 -2.67857e-24)
(0.00268612 -0.000223126 5.07826e-24)
(0.00280158 -0.000149199 3.79049e-24)
(0.00294523 -7.72207e-05 -6.35891e-24)
(0.00310837 -1.43019e-05 1.49472e-25)
(0.0032842 3.76438e-05 5.47806e-25)
(0.00346853 7.88144e-05 5.55682e-24)
(0.00365893 0.000109974 -6.56279e-24)
(0.0038539 0.000132096 3.98008e-24)
(0.00405254 0.000146152 1.25084e-24)
(0.00425434 0.000153017 -6.79688e-24)
(0.00445914 0.000153465 2.46476e-24)
(0.00466701 0.000148164 1.04131e-24)
(0.0048783 0.000137692 -2.27541e-24)
(0.00509349 0.000122599 3.7666e-24)
(0.00531351 0.00010348 -2.69571e-24)
(0.00553949 8.1169e-05 -4.60931e-26)
(0.00577342 5.64345e-05 2.2614e-25)
(0.00601786 3.01905e-05 2.2961e-25)
(0.0062759 2.33195e-06 4.05926e-26)
(0.00654998 -2.92194e-05 1.06267e-25)
(0.00681671 -6.64636e-05 -2.15509e-25)
(0.00704504 -0.000109743 5.81259e-25)
(0.00722642 -0.000157544 -7.32742e-25)
(0.0073629 -0.000208366 3.87381e-25)
(0.00745733 -0.000260516 -5.8143e-26)
(0.00751334 -0.000312474 -5.68349e-28)
(0.00753338 -0.000362394 1.50699e-24)
(0.00751976 -0.000408164 1.29516e-24)
(0.00747436 -0.000447404 2.47484e-24)
(0.00739848 -0.00047634 -1.19094e-23)
(0.00729343 -0.000490393 4.70059e-24)
(0.00716113 -0.000483998 1.1129e-23)
(0.00700419 -0.000450703 -2.45744e-23)
(0.00682607 -0.000383213 3.4554e-23)
(0.00663144 -0.000273266 -2.18425e-23)
(0.00642672 -0.000111277 2.65213e-23)
(0.00622102 0.00011438 -4.90064e-23)
(0.00602856 0.000417751 1.82794e-23)
(0.00587119 0.000813258 5.90627e-24)
(0.00578318 0.00130456 8.4756e-24)
(0.00579341 0.00184445 -1.05122e-23)
(0.00594278 0.00227289 2.63007e-24)
(0.00611841 0.00222748 -1.56293e-24)
(0.0036914 -0.000283872 -7.23766e-25)
(0.00367637 -0.000292731 -1.04044e-24)
(0.00369056 -0.000265405 -4.30301e-24)
(0.00374626 -0.000214237 1.43127e-24)
(0.0038378 -0.000153499 9.22495e-25)
(0.00395604 -9.44161e-05 3.08647e-24)
(0.00409437 -4.18731e-05 -5.91394e-24)
(0.00424748 2.30681e-06 2.34643e-24)
(0.0044117 3.76746e-05 7.2144e-24)
(0.0045845 6.45231e-05 -1.9078e-24)
(0.00476418 8.34388e-05 -1.78503e-24)
(0.0049496 9.5067e-05 -2.91039e-25)
(0.00514012 0.000100051 1.00177e-24)
(0.00533542 9.8993e-05 -2.00733e-24)
(0.00553551 9.24408e-05 4.4901e-25)
(0.00574051 8.09315e-05 -1.94854e-25)
(0.00595098 6.50481e-05 -1.07397e-24)
(0.00616758 4.56054e-05 4.1347e-25)
(0.00639173 2.33409e-05 1.8092e-24)
(0.00662524 -8.29348e-07 -2.3891e-25)
(0.00687029 -2.69179e-05 -3.74669e-25)
(0.00712855 -5.67013e-05 -8.34178e-26)
(0.00737766 -9.17724e-05 -3.73413e-25)
(0.00758945 -0.000132203 6.68267e-26)
(0.00775659 -0.000176427 -4.49874e-25)
(0.00788141 -0.000223025 9.86383e-25)
(0.00796668 -0.000270399 -2.74291e-26)
(0.00801592 -0.000316982 -3.71773e-25)
(0.00803127 -0.000360829 1.61532e-24)
(0.0080154 -0.000399796 1.44129e-25)
(0.0079701 -0.000431384 -2.13619e-24)
(0.00789691 -0.00045177 -3.63432e-25)
(0.00779751 -0.000456496 -3.84442e-25)
(0.00767435 -0.000440244 -2.74443e-24)
(0.00753076 -0.000396965 4.58254e-24)
(0.00737121 -0.000320001 -1.00189e-23)
(0.00720163 -0.000202132 4.30644e-23)
(0.00703023 -3.54912e-05 -2.32326e-23)
(0.00686827 0.000188077 -1.47338e-24)
(0.00673228 0.000477093 -4.09495e-23)
(0.00664578 0.000836983 3.06038e-23)
(0.00664155 0.00126126 -1.02161e-23)
(0.00674545 0.00170385 2.806e-24)
(0.00696651 0.00205114 1.22652e-23)