/*--------------------------------*- C++ -*----------------------------------*\
| =========                 |                                                 |
| \\      /  F ield         | OpenFOAM: The Open Source CFD Toolbox           |
|  \\    /   O peration     | Version:  2312                                  |
|   \\  /    A nd           | Website:  www.openfoam.com                      |
|    \\/     M anipulation  |                                                 |
\*---------------------------------------------------------------------------*/
FoamFile
{
    version     2.0;
    format      ascii;
    arch        "LSB;label=32;scalar=64";
    class       surfaceScalarField;
    location    "193.25";
    object      phi;
}
// * * * * * * * * * * * * * * * * * * * * * * * * * * * * * * * * * * * * * //

dimensions      [0 3 -1 0 0 0 0];

oriented        oriented;

internalField   nonuniform List<scalar> 
9445
(
5.82936e-10
9.58949e-12
5.78176e-10
4.76012e-12
5.76293e-10
1.88293e-12
5.76287e-10
5.19647e-15
5.77644e-10
-1.35646e-12
5.79886e-10
-2.24218e-12
5.82983e-10
-3.09716e-12
5.87004e-10
-4.02056e-12
5.92105e-10
-5.10092e-12
5.98687e-10
-6.58251e-12
6.07889e-10
-9.20223e-12
6.23326e-10
-1.54364e-11
6.57752e-10
-3.44258e-11
7.56019e-10
-9.82674e-11
-2.53346e-10
1.00936e-09
2.0402e-09
4.2054e-11
2.02364e-09
2.13261e-11
2.01659e-09
8.93082e-12
2.01577e-09
8.2605e-13
2.01928e-09
-4.86494e-12
2.02576e-09
-8.72477e-12
2.03503e-09
-1.23724e-11
2.04716e-09
-1.61501e-11
2.06263e-09
-2.05667e-11
2.08262e-09
-2.65733e-11
2.11004e-09
-3.6622e-11
2.15187e-09
-5.72682e-11
2.22157e-09
-1.04127e-10
2.3319e-09
-2.0859e-10
-3.6858e-10
2.44713e-09
4.03391e-09
1.04065e-10
4.00157e-09
5.3661e-11
3.98704e-09
2.34647e-11
3.98416e-09
3.70328e-12
3.9892e-09
-9.89894e-12
3.99976e-09
-1.92904e-11
4.01545e-09
-2.80624e-11
4.03607e-09
-3.67649e-11
4.06221e-09
-4.67103e-11
4.0954e-09
-5.97598e-11
4.13858e-09
-7.98067e-11
4.19649e-09
-1.15179e-10
4.27187e-09
-1.79507e-10
4.35083e-09
-2.87548e-10
-4.14724e-10
4.39697e-09
6.71117e-09
2.02917e-10
6.65847e-09
1.0637e-10
6.63349e-09
4.84404e-11
6.62669e-09
1.05077e-11
6.63206e-09
-1.52751e-11
6.64586e-09
-3.30882e-11
6.66738e-09
-4.95847e-11
6.69584e-09
-6.52243e-11
6.73149e-09
-8.23603e-11
6.77536e-09
-1.03631e-10
6.82876e-09
-1.33203e-10
6.89152e-09
-1.7794e-10
6.95724e-09
-2.45226e-10
7.00596e-09
-3.36266e-10
-4.24702e-10
7.01594e-09
1.02489e-08
3.45427e-10
1.01712e-08
1.84132e-10
1.01325e-08
8.71449e-11
1.01193e-08
2.36753e-11
1.01232e-08
-1.91974e-11
1.01388e-08
-4.86739e-11
1.01646e-08
-7.54012e-11
1.01991e-08
-9.97276e-11
1.02417e-08
-1.24882e-10
1.0292e-08
-1.53965e-10
1.0349e-08
-1.90256e-10
1.04086e-08
-2.37448e-10
1.04603e-08
-2.96987e-10
1.04877e-08
-3.63695e-10
-4.18458e-10
1.04815e-08
1.48546e-08
5.35539e-10
1.47484e-08
2.90304e-10
1.46933e-08
1.42297e-10
1.46712e-08
4.57002e-11
1.46715e-08
-1.9437e-11
1.46872e-08
-6.43855e-11
1.4715e-08
-1.03234e-10
1.47527e-08
-1.37411e-10
1.47984e-08
-1.70551e-10
1.48502e-08
-2.05765e-10
1.49049e-08
-2.44958e-10
1.49563e-08
-2.88862e-10
1.49948e-08
-3.35517e-10
1.50101e-08
-3.78948e-10
-4.08419e-10
1.5e-08
2.07629e-08
7.70042e-10
2.0629e-08
4.2424e-10
2.0557e-08
2.14302e-10
2.05249e-08
7.77847e-11
2.05198e-08
-1.4381e-11
2.0534e-08
-7.85092e-11
2.05615e-08
-1.30743e-10
2.05991e-08
-1.75062e-10
2.06439e-08
-2.15353e-10
2.06925e-08
-2.54332e-10
2.07403e-08
-2.92824e-10
2.07815e-08
-3.29977e-10
2.0809e-08
-3.63106e-10
2.08182e-08
-3.88094e-10
-4.00257e-10
2.081e-08
2.82284e-08
1.03238e-09
2.80756e-08
5.77128e-10
2.79915e-08
2.98396e-10
2.79518e-08
1.1747e-10
2.79422e-08
-4.82037e-12
2.79539e-08
-9.02049e-11
2.79797e-08
-1.5649e-10
2.8015e-08
-2.10362e-10
2.80558e-08
-2.56182e-10
2.80979e-08
-2.9643e-10
2.81367e-08
-3.31593e-10
2.81674e-08
-3.6075e-10
2.81865e-08
-3.82167e-10
2.81925e-08
-3.94074e-10
-3.95299e-10
2.81875e-08
3.75155e-08
1.28666e-09
3.73653e-08
7.27352e-10
3.72826e-08
3.81093e-10
3.72441e-08
1.56023e-10
3.72353e-08
3.96218e-12
3.72473e-08
-1.02194e-10
3.72723e-08
-1.81529e-10
3.73051e-08
-2.43176e-10
3.73412e-08
-2.92236e-10
3.73762e-08
-3.31438e-10
3.74063e-08
-3.61742e-10
3.74287e-08
-3.8315e-10
3.7442e-08
-3.9541e-10
3.74465e-08
-3.98617e-10
-3.93384e-10
3.74446e-08
4.88963e-08
1.47834e-09
4.87845e-08
8.39117e-10
4.87274e-08
4.38231e-10
4.87067e-08
1.76666e-10
4.87104e-08
2.36091e-13
4.87307e-08
-1.22418e-10
4.87603e-08
-2.11181e-10
4.87943e-08
-2.7715e-10
4.88284e-08
-3.26373e-10
4.88593e-08
-3.62303e-10
4.88844e-08
-3.86868e-10
4.89026e-08
-4.013e-10
4.89138e-08
-4.06637e-10
4.89193e-08
-4.04137e-10
-3.95203e-10
4.89211e-08
6.26784e-08
1.55125e-09
6.26463e-08
8.71229e-10
6.2645e-08
4.39599e-10
6.26647e-08
1.56964e-10
6.26977e-08
-3.28528e-11
6.27389e-08
-1.63544e-10
6.27828e-08
-2.55124e-10
6.28258e-08
-3.20101e-10
6.28649e-08
-3.65495e-10
6.28983e-08
-3.95683e-10
6.2925e-08
-4.13608e-10
6.29452e-08
-4.21512e-10
6.29598e-08
-4.21264e-10
6.29704e-08
-4.14674e-10
-4.03386e-10
6.29786e-08
7.92808e-08
1.4817e-09
7.93523e-08
7.99788e-10
7.94276e-08
3.64292e-10
7.9505e-08
7.9572e-11
7.9582e-08
-1.09891e-10
7.96559e-08
-2.37454e-10
7.97243e-08
-3.23495e-10
7.97853e-08
-3.8112e-10
7.9838e-08
-4.1821e-10
7.98823e-08
-4.39945e-10
7.99186e-08
-4.49989e-10
7.99483e-08
-4.51156e-10
7.99727e-08
-4.4567e-10
7.99935e-08
-4.35463e-10
-4.22117e-10
8.00122e-08
9.932e-08
1.30232e-09
9.94788e-08
6.41016e-10
9.9623e-08
2.20111e-10
9.97551e-08
-5.25179e-11
9.98756e-08
-2.30367e-10
9.99834e-08
-3.45276e-10
1.00079e-07
-4.18664e-10
1.00161e-07
-4.63753e-10
1.00232e-07
-4.89033e-10
1.00292e-07
-5.00227e-10
1.00344e-07
-5.01341e-10
1.00388e-07
-4.95357e-10
1.00427e-07
-4.84512e-10
1.00462e-07
-4.70595e-10
-4.54977e-10
1.00495e-07
1.2359e-07
1.07932e-09
1.23787e-07
4.44223e-10
1.23963e-07
4.45888e-11
1.24122e-07
-2.12309e-10
1.24265e-07
-3.72719e-10
1.24391e-07
-4.71365e-10
1.24501e-07
-5.29342e-10
1.24598e-07
-5.60204e-10
1.24682e-07
-5.72879e-10
1.24755e-07
-5.73373e-10
1.24819e-07
-5.6578e-10
1.24877e-07
-5.53006e-10
1.2493e-07
-5.37125e-10
1.24979e-07
-5.19686e-10
-5.01793e-10
1.25026e-07
1.52861e-07
8.60632e-10
1.53049e-07
2.55858e-10
1.5322e-07
-1.25984e-10
1.53372e-07
-3.64667e-10
1.53508e-07
-5.08732e-10
1.53629e-07
-5.9223e-10
1.53736e-07
-6.3637e-10
1.53831e-07
-6.55003e-10
1.53915e-07
-6.57233e-10
1.53991e-07
-6.49142e-10
1.5406e-07
-6.34755e-10
1.54124e-07
-6.16822e-10
1.54184e-07
-5.97209e-10
1.54241e-07
-5.77221e-10
-5.57718e-10
1.54297e-07
1.8762e-07
6.55342e-10
1.87786e-07
8.94049e-11
1.87934e-07
-2.73971e-10
1.88062e-07
-4.92656e-10
1.88175e-07
-6.2179e-10
1.88276e-07
-6.9284e-10
1.88366e-07
-7.26529e-10
1.88448e-07
-7.36482e-10
1.88522e-07
-7.31758e-10
1.88591e-07
-7.1826e-10
1.88656e-07
-6.9985e-10
1.88719e-07
-6.79087e-10
1.88779e-07
-6.57635e-10
1.88838e-07
-6.36594e-10
-6.16615e-10
1.88897e-07
2.27925e-07
4.56194e-10
2.28082e-07
-6.73576e-11
2.28207e-07
-3.98731e-10
2.28311e-07
-5.96663e-10
2.284e-07
-7.10909e-10
2.28478e-07
-7.71439e-10
2.28549e-07
-7.97542e-10
2.28615e-07
-8.02077e-10
2.28677e-07
-7.93583e-10
2.28736e-07
-7.77614e-10
2.28794e-07
-7.57755e-10
2.28851e-07
-7.36336e-10
2.28909e-07
-7.14826e-10
2.28966e-07
-6.94153e-10
-6.74825e-10
2.29024e-07
2.73289e-07
2.52848e-10
2.73439e-07
-2.16917e-10
2.73548e-07
-5.07586e-10
2.73633e-07
-6.82225e-10
2.73704e-07
-7.81683e-10
2.73766e-07
-8.32976e-10
2.73822e-07
-8.5361e-10
2.73875e-07
-8.55189e-10
2.73927e-07
-8.45399e-10
2.73978e-07
-8.29244e-10
2.74031e-07
-8.09933e-10
2.74084e-07
-7.89529e-10
2.74138e-07
-7.69296e-10
2.74194e-07
-7.50009e-10
-7.32059e-10
2.74251e-07
3.22332e-07
4.6185e-11
3.22474e-07
-3.59121e-10
3.22572e-07
-6.05992e-10
3.22645e-07
-7.54618e-10
3.22702e-07
-8.3873e-10
3.2275e-07
-8.80969e-10
3.22793e-07
-8.97112e-10
3.22835e-07
-8.97056e-10
3.22877e-07
-8.87413e-10
3.2292e-07
-8.72378e-10
3.22965e-07
-8.54721e-10
3.23012e-07
-8.36212e-10
3.2306e-07
-8.17915e-10
3.23111e-07
-8.00467e-10
-7.84088e-10
3.23163e-07
3.72165e-07
-1.59529e-10
3.72276e-07
-4.70654e-10
3.72337e-07
-6.66468e-10
3.72368e-07
-7.85451e-10
3.72383e-07
-8.53707e-10
3.72391e-07
-8.88966e-10
3.72397e-07
-9.03108e-10
3.72404e-07
-9.04055e-10
3.72413e-07
-8.97028e-10
3.72426e-07
-8.85504e-10
3.72443e-07
-8.71657e-10
3.72464e-07
-8.56891e-10
3.72488e-07
-8.42036e-10
3.72515e-07
-8.27597e-10
-8.13878e-10
3.72545e-07
3.70111e-07
-3.23505e-10
3.70196e-07
-5.56176e-10
3.70236e-07
-7.06351e-10
3.7025e-07
-7.99197e-10
3.70249e-07
-8.53343e-10
3.70243e-07
-8.82272e-10
3.70234e-07
-8.94566e-10
3.70227e-07
-8.96517e-10
3.70222e-07
-8.9191e-10
3.70219e-07
-8.83446e-10
3.70221e-07
-8.72797e-10
3.70225e-07
-8.61023e-10
3.70232e-07
-8.48782e-10
3.7024e-07
-8.36465e-10
-8.24264e-10
3.70251e-07
3.17164e-07
-3.99408e-10
3.17188e-07
-5.79857e-10
3.1718e-07
-6.99037e-10
3.17156e-07
-7.74768e-10
3.17123e-07
-8.20705e-10
3.17088e-07
-8.46787e-10
3.17053e-07
-8.59521e-10
3.1702e-07
-8.63515e-10
3.1699e-07
-8.61837e-10
3.16963e-07
-8.56507e-10
3.16939e-07
-8.48849e-10
3.16918e-07
-8.39717e-10
3.16898e-07
-8.29626e-10
3.16881e-07
-8.18887e-10
-8.07675e-10
3.16864e-07
2.66043e-07
-4.44038e-10
2.66045e-07
-5.8149e-10
2.6602e-07
-6.74145e-10
2.6598e-07
-7.34727e-10
2.65932e-07
-7.73084e-10
2.65882e-07
-7.96059e-10
2.65831e-07
-8.08468e-10
2.65781e-07
-8.13652e-10
2.65733e-07
-8.13881e-10
2.65687e-07
-8.10683e-10
2.65643e-07
-8.05041e-10
2.65601e-07
-7.97636e-10
2.6556e-07
-7.88867e-10
2.6552e-07
-7.78983e-10
-7.68121e-10
2.65481e-07
2.19512e-07
-4.5323e-10
2.19488e-07
-5.57286e-10
2.19443e-07
-6.29148e-10
2.19386e-07
-6.77578e-10
2.19322e-07
-7.09419e-10
2.19256e-07
-7.2955e-10
2.19188e-07
-7.41346e-10
2.19122e-07
-7.47174e-10
2.19057e-07
-7.48655e-10
2.18993e-07
-7.46903e-10
2.18931e-07
-7.42663e-10
2.18869e-07
-7.36441e-10
2.18809e-07
-7.28553e-10
2.18749e-07
-7.19195e-10
-7.08482e-10
2.1869e-07
1.78648e-07
-4.29393e-10
1.78599e-07
-5.08465e-10
1.78535e-07
-5.64511e-10
1.78461e-07
-6.0352e-10
1.78381e-07
-6.3029e-10
1.783e-07
-6.4817e-10
1.78218e-07
-6.5949e-10
1.78137e-07
-6.65865e-10
1.78057e-07
-6.68416e-10
1.77978e-07
-6.67928e-10
1.779e-07
-6.64941e-10
1.77823e-07
-6.59832e-10
1.77748e-07
-6.52843e-10
1.77673e-07
-6.44144e-10
-6.33831e-10
1.77598e-07
1.4364e-07
-3.80419e-10
1.43573e-07
-4.41434e-10
1.43495e-07
-4.85988e-10
1.43409e-07
-5.18215e-10
1.4332e-07
-5.41382e-10
1.4323e-07
-5.57743e-10
1.43139e-07
-5.68867e-10
1.43049e-07
-5.75852e-10
1.4296e-07
-5.79465e-10
1.42873e-07
-5.80255e-10
1.42786e-07
-5.78603e-10
1.42701e-07
-5.7479e-10
1.42617e-07
-5.69004e-10
1.42535e-07
-5.6139e-10
-5.52037e-10
1.42453e-07
1.14221e-07
-3.18482e-10
1.14146e-07
-3.66598e-10
1.14063e-07
-4.02928e-10
1.13975e-07
-4.30377e-10
1.13885e-07
-4.51071e-10
1.13794e-07
-4.66469e-10
1.13702e-07
-4.77616e-10
1.13612e-07
-4.85262e-10
1.13522e-07
-4.89939e-10
1.13434e-07
-4.92028e-10
1.13347e-07
-4.91801e-10
1.13262e-07
-4.89467e-10
1.13178e-07
-4.85174e-10
1.13096e-07
-4.79048e-10
-4.71168e-10
1.13015e-07
8.98953e-08
-2.55175e-10
8.98225e-08
-2.93847e-10
8.97436e-08
-3.24069e-10
8.96612e-08
-3.4791e-10
8.95768e-08
-3.66669e-10
8.94916e-08
-3.81267e-10
8.94064e-08
-3.92397e-10
8.93217e-08
-4.00571e-10
8.92379e-08
-4.0615e-10
8.91552e-08
-4.09398e-10
8.90739e-08
-4.10509e-10
8.89941e-08
-4.09642e-10
8.89159e-08
-4.06913e-10
8.88392e-08
-4.0243e-10
-3.96261e-10
8.87643e-08
7.00535e-08
-1.9795e-10
6.99889e-08
-2.29245e-10
6.99194e-08
-2.54544e-10
6.98467e-08
-2.75286e-10
6.97723e-08
-2.92192e-10
6.96968e-08
-3.05825e-10
6.96211e-08
-3.16645e-10
6.95455e-08
-3.24994e-10
6.94705e-08
-3.31111e-10
6.93962e-08
-3.35177e-10
6.93231e-08
-3.37332e-10
6.92511e-08
-3.37695e-10
6.91806e-08
-3.36357e-10
6.91115e-08
-3.33405e-10
-3.28894e-10
6.90442e-08
5.40496e-08
-1.49789e-10
5.39953e-08
-1.74935e-10
5.39367e-08
-1.9594e-10
5.38751e-08
-2.13718e-10
5.38115e-08
-2.28603e-10
5.37466e-08
-2.40942e-10
5.3681e-08
-2.51035e-10
5.36151e-08
-2.591e-10
5.35493e-08
-2.65293e-10
5.34839e-08
-2.69736e-10
5.34191e-08
-2.72527e-10
5.33551e-08
-2.73753e-10
5.32922e-08
-2.73482e-10
5.32306e-08
-2.7178e-10
-2.68687e-10
5.31704e-08
4.12585e-08
-1.10802e-10
4.12141e-08
-1.30631e-10
4.11659e-08
-1.4772e-10
4.11147e-08
-1.62537e-10
4.10613e-08
-1.75198e-10
4.10063e-08
-1.85921e-10
4.09502e-08
-1.94894e-10
4.08933e-08
-2.02247e-10
4.08361e-08
-2.0808e-10
4.07788e-08
-2.12469e-10
4.07218e-08
-2.15484e-10
4.06652e-08
-2.17183e-10
4.06094e-08
-2.17613e-10
4.05544e-08
-2.16824e-10
-2.14839e-10
4.05006e-08
3.11135e-08
-7.98864e-11
3.10779e-08
-9.50983e-11
3.10388e-08
-1.08586e-10
3.09967e-08
-1.20485e-10
3.09523e-08
-1.30813e-10
3.09061e-08
-1.3971e-10
3.08585e-08
-1.47285e-10
3.08099e-08
-1.53611e-10
3.07606e-08
-1.58749e-10
3.07108e-08
-1.62744e-10
3.0661e-08
-1.6564e-10
3.06113e-08
-1.67475e-10
3.0562e-08
-1.68281e-10
3.05132e-08
-1.68087e-10
-1.66909e-10
3.04653e-08
2.31229e-08
-5.57224e-11
2.30948e-08
-6.70011e-11
2.30635e-08
-7.72363e-11
2.30294e-08
-8.63669e-11
2.2993e-08
-9.4393e-11
2.29546e-08
-1.01403e-10
2.29148e-08
-1.07454e-10
2.28738e-08
-1.12584e-10
2.28319e-08
-1.16825e-10
2.27893e-08
-1.20203e-10
2.27464e-08
-1.22742e-10
2.27034e-08
-1.24464e-10
2.26605e-08
-1.2539e-10
2.2618e-08
-1.25535e-10
-1.24907e-10
2.2576e-08
1.68722e-08
-3.71874e-11
1.68504e-08
-4.51997e-11
1.68258e-08
-5.25851e-11
1.67986e-08
-5.92164e-11
1.67693e-08
-6.51074e-11
1.67382e-08
-7.03122e-11
1.67056e-08
-7.4857e-11
1.66718e-08
-7.87582e-11
1.6637e-08
-8.20299e-11
1.66015e-08
-8.46834e-11
1.65655e-08
-8.67317e-11
1.65292e-08
-8.81845e-11
1.64929e-08
-8.90542e-11
1.64567e-08
-8.93472e-11
-8.90657e-11
1.64208e-08
1.20175e-08
-2.33597e-11
1.2001e-08
-2.87477e-11
1.19822e-08
-3.37362e-11
1.19612e-08
-3.82291e-11
1.19383e-08
-4.22577e-11
1.19139e-08
-4.5853e-11
1.1888e-08
-4.9024e-11
1.18611e-08
-5.17751e-11
1.18331e-08
-5.411e-11
1.18045e-08
-5.60318e-11
1.17753e-08
-5.75456e-11
1.17458e-08
-5.86545e-11
1.17161e-08
-5.93653e-11
1.16864e-08
-5.96785e-11
-5.95919e-11
1.16569e-08
8.2768e-09
-1.34646e-11
8.26487e-09
-1.68204e-11
8.25103e-09
-1.98943e-11
8.23546e-09
-2.26654e-11
8.21838e-09
-2.51719e-11
8.19995e-09
-2.74293e-11
8.18037e-09
-2.94384e-11
8.15979e-09
-3.1198e-11
8.13839e-09
-3.27071e-11
8.11632e-09
-3.39645e-11
8.09375e-09
-3.49711e-11
8.07082e-09
-3.5727e-11
8.04769e-09
-3.62353e-11
8.0245e-09
-3.64937e-11
-3.64962e-11
8.00141e-09
5.42067e-09
-6.80305e-12
5.41251e-09
-8.65991e-12
5.40292e-09
-1.03062e-11
5.39205e-09
-1.17908e-11
5.38002e-09
-1.31455e-11
5.36697e-09
-1.43763e-11
5.35301e-09
-1.54814e-11
5.33827e-09
-1.64576e-11
5.32287e-09
-1.73027e-11
5.30692e-09
-1.80142e-11
5.29054e-09
-1.85916e-11
5.27384e-09
-1.90335e-11
5.25695e-09
-1.93415e-11
5.23997e-09
-1.95123e-11
-1.95378e-11
5.22301e-09
3.26326e-09
-2.72437e-12
3.25816e-09
-3.55811e-12
3.2521e-09
-4.24413e-12
3.24517e-09
-4.86456e-12
3.23746e-09
-5.4371e-12
3.22905e-09
-5.96244e-12
3.22001e-09
-6.43828e-12
3.21041e-09
-6.86216e-12
3.20034e-09
-7.23212e-12
3.18987e-09
-7.54631e-12
3.17908e-09
-7.80398e-12
3.16805e-09
-8.00384e-12
3.15686e-09
-8.14658e-12
3.14558e-09
-8.22962e-12
-8.24499e-12
3.13428e-09
1.6548e-09
-6.33181e-13
1.6521e-09
-8.65186e-13
1.64888e-09
-1.01934e-12
1.64518e-09
-1.16189e-12
1.64104e-09
-1.29675e-12
1.6365e-09
-1.42253e-12
1.63159e-09
-1.53776e-12
1.62637e-09
-1.64119e-12
1.62087e-09
-1.73195e-12
1.61514e-09
-1.80927e-12
1.60921e-09
-1.87288e-12
1.60312e-09
-1.92229e-12
1.59693e-09
-1.95771e-12
1.59068e-09
-1.97778e-12
-1.97761e-12
1.58442e-09
4.75097e-10
4.74232e-10
4.73212e-10
4.7205e-10
4.70754e-10
4.69331e-10
4.67793e-10
4.66152e-10
4.6442e-10
4.62611e-10
4.60738e-10
4.58816e-10
4.56858e-10
4.5488e-10
4.52903e-10
1.2091e-09
-4.76545e-10
2.7681e-10
1.49642e-09
-3.89948e-10
1.02629e-10
1.78736e-09
-2.36094e-10
-5.48456e-11
2.0753e-09
-7.97223e-11
-2.08222e-10
2.3581e-09
7.30342e-11
-3.55832e-10
2.63633e-09
2.13222e-10
-4.91452e-10
2.91116e-09
3.37726e-10
-6.12557e-10
3.1835e-09
4.43532e-10
-7.15868e-10
3.45404e-09
5.273e-10
-7.97847e-10
3.72333e-09
5.85409e-10
-8.54694e-10
3.99175e-09
6.1384e-10
-8.82259e-10
4.25959e-09
6.08318e-10
-8.76156e-10
4.52702e-09
5.64538e-10
-8.31967e-10
4.79415e-09
4.78835e-10
-7.45971e-10
5.06115e-09
3.49477e-10
-6.16475e-10
5.32849e-09
1.79468e-10
-4.46809e-10
5.59737e-09
-2.01945e-11
-2.48688e-10
5.87048e-09
-2.24559e-10
-4.85486e-11
6.15264e-09
-3.93339e-10
1.11185e-10
6.45143e-09
-4.66549e-10
1.67756e-10
6.77624e-09
-3.89091e-10
6.42805e-11
7.134e-09
-1.30031e-10
-2.27735e-10
7.46772e-09
1.69463e-10
-5.03177e-10
7.74861e-09
2.62707e-10
-5.43604e-10
7.97222e-09
1.60653e-10
-3.84261e-10
8.13839e-09
-7.62453e-11
-8.99214e-11
8.24959e-09
-3.93097e-10
2.81898e-10
8.30872e-09
-7.47038e-10
6.87909e-10
8.31809e-09
-1.10852e-09
1.09915e-09
8.27939e-09
-1.45152e-09
1.49022e-09
8.19407e-09
-1.75057e-09
1.83589e-09
8.06378e-09
-1.98045e-09
2.11074e-09
7.89056e-09
-2.1181e-09
2.29132e-09
7.67711e-09
-2.14684e-09
2.36029e-09
7.42657e-09
-2.05591e-09
2.30645e-09
7.14211e-09
-1.84043e-09
2.12489e-09
6.82668e-09
-1.50006e-09
1.81548e-09
6.48301e-09
-1.03609e-09
1.37977e-09
6.11382e-09
-4.47702e-10
8.16895e-10
5.72121e-09
2.70808e-10
1.21799e-10
5.30375e-09
1.12372e-09
-7.06266e-10
4.84893e-09
2.08732e-09
-1.63251e-09
4.33201e-09
3.0402e-09
-2.52327e-09
3.75375e-09
3.69215e-09
-3.11389e-09
3.28118e-09
3.40512e-09
-2.93255e-09
2.52688e-09
-5.56299e-10
2.69994e-09
-5.6301e-10
2.93545e-09
-4.71603e-10
3.19935e-09
-3.43616e-10
3.47719e-09
-2.04807e-10
3.76135e-09
-7.09428e-11
4.04855e-09
5.05302e-11
4.33727e-09
1.54812e-10
4.62683e-09
2.37744e-10
4.9169e-09
2.95339e-10
5.20732e-09
3.23414e-10
5.49799e-09
3.17651e-10
5.78875e-09
2.73777e-10
6.07943e-09
1.88151e-10
6.36992e-09
5.89942e-11
6.6604e-09
-1.11018e-10
6.95181e-09
-3.11607e-10
7.24662e-09
-5.19366e-10
7.54955e-09
-6.96269e-10
7.86835e-09
-7.85347e-10
8.21293e-09
-7.33672e-10
8.59116e-09
-5.08261e-10
8.94426e-09
-1.8364e-10
9.24274e-09
-3.57679e-11
9.48187e-09
-7.84845e-11
9.66109e-09
-2.55457e-10
9.7825e-09
-5.14512e-10
9.84877e-09
-8.13306e-10
9.86209e-09
-1.12183e-09
9.82422e-09
-1.41365e-09
9.73689e-09
-1.66324e-09
9.60221e-09
-1.84578e-09
9.42288e-09
-1.93877e-09
9.20254e-09
-1.92649e-09
8.94559e-09
-1.79896e-09
8.65701e-09
-1.55185e-09
8.34229e-09
-1.18534e-09
8.00788e-09
-7.01691e-10
7.66257e-09
-1.02392e-10
7.31932e-09
6.1406e-10
6.99685e-09
1.4462e-09
6.71877e-09
2.3654e-09
6.51337e-09
3.2456e-09
6.42137e-09
3.78414e-09
3.37243e-09
6.33012e-09
4.41373e-09
-5.73062e-10
4.49278e-09
-6.42051e-10
4.64623e-09
-6.25061e-10
4.85556e-09
-5.52937e-10
5.10047e-09
-4.49721e-10
5.36783e-09
-3.38307e-10
5.64948e-09
-2.31119e-10
5.94049e-09
-1.36201e-10
6.23787e-09
-5.96307e-11
6.53972e-09
-6.51171e-12
6.84481e-09
1.83263e-11
7.15222e-09
1.02341e-11
7.4612e-09
-3.51942e-11
7.77102e-09
-1.21673e-10
8.0811e-09
-2.51082e-10
8.39116e-09
-4.2108e-10
8.70168e-09
-6.2213e-10
9.01472e-09
-8.32409e-10
9.33471e-09
-1.01626e-09
9.66933e-09
-1.11997e-09
1.00289e-08
-1.0932e-09
1.0422e-08
-9.01435e-10
1.07894e-08
-5.51009e-10
1.11013e-08
-3.47643e-10
1.13528e-08
-3.29966e-10
1.15427e-08
-4.45421e-10
1.16728e-08
-6.44602e-10
1.17453e-08
-8.85783e-10
1.17621e-08
-1.13868e-09
1.17252e-08
-1.3767e-09
1.16365e-08
-1.57453e-09
1.14987e-08
-1.70802e-09
1.13154e-08
-1.75544e-09
1.10913e-08
-1.70239e-09
1.08324e-08
-1.54009e-09
1.05459e-08
-1.26539e-09
1.02404e-08
-8.79824e-10
9.92669e-09
-3.87955e-10
9.62e-09
2.04295e-10
9.34368e-09
8.90382e-10
9.13267e-09
1.65721e-09
9.03238e-09
2.4657e-09
9.07982e-09
3.19816e-09
9.24837e-09
3.61558e-09
3.30693e-09
9.31387e-09
6.99797e-09
-5.55099e-10
7.0142e-09
-6.58282e-10
7.08685e-09
-6.97708e-10
7.22226e-09
-6.88345e-10
7.40963e-09
-6.37097e-10
7.63514e-09
-5.63817e-10
7.88844e-09
-4.84416e-10
8.16193e-09
-4.09687e-10
8.45017e-09
-3.47876e-10
8.74933e-09
-3.05672e-10
9.05666e-09
-2.89005e-10
9.37008e-09
-3.03178e-10
9.68783e-09
-3.52951e-10
1.00084e-08
-4.42257e-10
1.03305e-08
-5.73166e-10
1.06531e-08
-7.43704e-10
1.09761e-08
-9.45094e-10
1.13008e-08
-1.15713e-09
1.16312e-08
-1.34661e-09
1.19745e-08
-1.4633e-09
1.23412e-08
-1.45989e-09
1.27407e-08
-1.30093e-09
1.31143e-08
-9.24649e-10
1.34329e-08
-6.6624e-10
1.36914e-08
-5.88459e-10
1.3888e-08
-6.42041e-10
1.40238e-08
-7.80359e-10
1.41004e-08
-9.62391e-10
1.41195e-08
-1.15777e-09
1.40829e-08
-1.34017e-09
1.39932e-08
-1.48478e-09
1.38536e-08
-1.56847e-09
1.36687e-08
-1.57047e-09
1.34445e-08
-1.47818e-09
1.31889e-08
-1.28451e-09
1.29115e-08
-9.88041e-10
1.26242e-08
-5.92509e-10
1.23421e-08
-1.05782e-10
1.20857e-08
4.60689e-10
1.18847e-08
1.09132e-09
1.17803e-08
1.76166e-09
1.18192e-08
2.42674e-09
1.20256e-08
2.99177e-09
1.23467e-08
3.29445e-09
3.11818e-09
1.25355e-08
1.04499e-08
-5.23526e-10
1.04287e-08
-6.37079e-10
1.04421e-08
-7.11044e-10
1.05025e-08
-7.48806e-10
1.06181e-08
-7.52685e-10
1.07815e-08
-7.27213e-10
1.09836e-08
-6.865e-10
1.12168e-08
-6.42885e-10
1.14745e-08
-6.05577e-10
1.17513e-08
-5.82519e-10
1.20431e-08
-5.808e-10
1.23465e-08
-6.06513e-10
1.26584e-08
-6.64908e-10
1.29764e-08
-7.60276e-10
1.32982e-08
-8.94964e-10
1.36219e-08
-1.06739e-09
1.39464e-08
-1.26957e-09
1.42722e-08
-1.48291e-09
1.46023e-08
-1.67672e-09
1.49434e-08
-1.8044e-09
1.53056e-08
-1.82213e-09
1.56989e-08
-1.69418e-09
1.60672e-08
-1.29293e-09
1.63826e-08
-9.81646e-10
1.66399e-08
-8.45791e-10
1.68366e-08
-8.38766e-10
1.6973e-08
-9.16709e-10
1.705e-08
-1.03938e-09
1.70687e-08
-1.17653e-09
1.70312e-08
-1.30265e-09
1.69402e-08
-1.39379e-09
1.67999e-08
-1.42817e-09
1.66157e-08
-1.38626e-09
1.63953e-08
-1.25775e-09
1.61484e-08
-1.03767e-09
1.58873e-08
-7.26857e-10
1.56265e-08
-3.31748e-10
1.53846e-08
1.36143e-10
1.51851e-08
6.60201e-10
1.50585e-08
1.21785e-09
1.50421e-08
1.77809e-09
1.51716e-08
2.29722e-09
1.54553e-08
2.70811e-09
1.58322e-08
2.91751e-09
2.83118e-09
1.61192e-08
1.49682e-08
-4.91697e-10
1.49301e-08
-5.98952e-10
1.49088e-08
-6.89763e-10
1.49156e-08
-7.55581e-10
1.49623e-08
-7.99359e-10
1.50549e-08
-8.19893e-10
1.51908e-08
-8.2235e-10
1.53642e-08
-8.16339e-10
1.557e-08
-8.11333e-10
1.58027e-08
-8.1522e-10
1.60576e-08
-8.35673e-10
1.63303e-08
-8.79258e-10
1.6617e-08
-9.51575e-10
1.6914e-08
-1.05727e-09
1.7218e-08
-1.19899e-09
1.75261e-08
-1.37549e-09
1.78361e-08
-1.57957e-09
1.81474e-08
-1.7942e-09
1.84619e-08
-1.99122e-09
1.87852e-08
-2.12773e-09
1.91268e-08
-2.16376e-09
1.94967e-08
-2.064e-09
1.98437e-08
-1.63995e-09
2.01422e-08
-1.28012e-09
2.03867e-08
-1.09034e-09
2.05739e-08
-1.02597e-09
2.07031e-08
-1.04589e-09
2.07744e-08
-1.11073e-09
2.07884e-08
-1.19044e-09
2.0747e-08
-1.26129e-09
2.06535e-08
-1.30033e-09
2.05128e-08
-1.28742e-09
2.03312e-08
-1.2047e-09
2.01181e-08
-1.04464e-09
1.98851e-08
-8.04638e-10
1.96463e-08
-4.88058e-10
1.94186e-08
-1.04103e-10
1.92221e-08
3.32647e-10
1.90803e-08
8.01993e-10
1.90199e-08
1.27829e-09
1.90679e-08
1.73005e-09
1.92446e-08
2.12058e-09
1.95454e-08
2.40732e-09
1.99177e-08
2.54514e-09
2.50079e-09
2.02481e-08
2.07847e-08
-4.66358e-10
2.0747e-08
-5.61214e-10
2.071e-08
-6.52798e-10
2.06876e-08
-7.33218e-10
2.06877e-08
-7.99435e-10
2.07201e-08
-8.52298e-10
2.07886e-08
-8.90835e-10
2.08944e-08
-9.22147e-10
2.10345e-08
-9.51399e-10
2.12054e-08
-9.86139e-10
2.14034e-08
-1.03369e-09
2.16244e-08
-1.10026e-09
2.18641e-08
-1.19128e-09
2.21184e-08
-1.31153e-09
2.23831e-08
-1.46376e-09
2.26545e-08
-1.64689e-09
2.29293e-08
-1.85438e-09
2.32058e-08
-2.07063e-09
2.34844e-08
-2.26988e-09
2.37696e-08
-2.41289e-09
2.40697e-08
-2.46383e-09
2.4394e-08
-2.38838e-09
2.46995e-08
-1.94536e-09
2.49632e-08
-1.54383e-09
2.51795e-08
-1.30669e-09
2.5344e-08
-1.19048e-09
2.54551e-08
-1.15694e-09
2.55119e-08
-1.16759e-09
2.55139e-08
-1.19236e-09
2.54639e-08
-1.21134e-09
2.53656e-08
-1.20203e-09
2.52232e-08
-1.14497e-09
2.5045e-08
-1.02651e-09
2.48416e-08
-8.41292e-10
2.46262e-08
-5.89178e-10
2.44141e-08
-2.7598e-10
2.42232e-08
8.68234e-11
2.4073e-08
4.82847e-10
2.39843e-08
8.90711e-10
2.39769e-08
1.28565e-09
2.40665e-08
1.64043e-09
2.42592e-08
1.92792e-09
2.45427e-08
2.12382e-09
2.48775e-08
2.21026e-09
2.18124e-09
2.51971e-08
2.81702e-08
-4.49034e-10
2.81406e-08
-5.31613e-10
2.81048e-08
-6.17024e-10
2.80715e-08
-6.99944e-10
2.80489e-08
-7.76813e-10
2.80439e-08
-8.47315e-10
2.80626e-08
-9.09498e-10
2.81087e-08
-9.68213e-10
2.81844e-08
-1.02713e-09
2.82882e-08
-1.08991e-09
2.84188e-08
-1.16431e-09
2.85734e-08
-1.25486e-09
2.87484e-08
-1.36629e-09
2.89401e-08
-1.5032e-09
2.91443e-08
-1.66797e-09
2.93567e-08
-1.85933e-09
2.95735e-08
-2.07114e-09
2.97918e-08
-2.28898e-09
3.00111e-08
-2.48919e-09
3.02343e-08
-2.636e-09
3.04682e-08
-2.69776e-09
3.07214e-08
-2.64156e-09
3.09612e-08
-2.18523e-09
3.11689e-08
-1.75147e-09
3.13382e-08
-1.47604e-09
3.14635e-08
-1.31577e-09
3.15421e-08
-1.23557e-09
3.15722e-08
-1.19764e-09
3.15528e-08
-1.17297e-09
3.14881e-08
-1.14662e-09
3.13798e-08
-1.09373e-09
3.12326e-08
-9.97753e-10
3.10567e-08
-8.50656e-10
3.08637e-08
-6.48269e-10
3.06673e-08
-3.928e-10
3.04834e-08
-9.20662e-11
3.03289e-08
2.4133e-10
3.02213e-08
5.90469e-10
3.01765e-08
9.35491e-10
3.02069e-08
1.25519e-09
3.03186e-08
1.5288e-09
3.05079e-08
1.73854e-09
3.07596e-08
1.87214e-09
3.10448e-08
1.92506e-09
1.90159e-09
3.13245e-08
3.74342e-08
-4.38685e-10
3.74141e-08
-5.11415e-10
3.73864e-08
-5.89354e-10
3.73558e-08
-6.69342e-10
3.73277e-08
-7.48743e-10
3.73069e-08
-8.26508e-10
3.72994e-08
-9.01982e-10
3.73078e-08
-9.76594e-10
3.73354e-08
-1.05473e-09
3.73828e-08
-1.13736e-09
3.74516e-08
-1.23305e-09
3.75393e-08
-1.34256e-09
3.7644e-08
-1.47104e-09
3.77632e-08
-1.62233e-09
3.78932e-08
-1.79802e-09
3.80301e-08
-1.99619e-09
3.81698e-08
-2.21087e-09
3.83093e-08
-2.42849e-09
3.84471e-08
-2.62695e-09
3.85848e-08
-2.77369e-09
3.87279e-08
-2.84094e-09
3.88838e-08
-2.7974e-09
3.90334e-08
-2.33488e-09
3.91625e-08
-1.88054e-09
3.92644e-08
-1.57796e-09
3.93318e-08
-1.38313e-09
3.93603e-08
-1.26411e-09
3.93495e-08
-1.18679e-09
3.93006e-08
-1.12416e-09
3.92112e-08
-1.05713e-09
3.90838e-08
-9.66426e-10
3.89273e-08
-8.41205e-10
3.87508e-08
-6.74151e-10
3.85663e-08
-4.63745e-10
3.83875e-08
-2.14042e-10
3.82295e-08
6.59683e-11
3.8107e-08
3.6381e-10
3.80339e-08
6.6354e-10
3.80208e-08
9.48574e-10
3.80735e-08
1.20252e-09
3.81912e-08
1.41112e-09
3.83657e-08
1.56404e-09
3.85815e-08
1.65629e-09
3.88176e-08
1.68901e-09
1.66906e-09
3.90501e-08
4.89172e-08
-4.34778e-10
4.8906e-08
-5.00138e-10
4.88881e-08
-5.71487e-10
4.88659e-08
-6.47124e-10
4.88425e-08
-7.25325e-10
4.88211e-08
-8.05121e-10
4.88053e-08
-8.86199e-10
4.8798e-08
-9.69333e-10
4.88013e-08
-1.05797e-09
4.88152e-08
-1.15125e-09
4.88396e-08
-1.25751e-09
4.88758e-08
-1.37874e-09
4.89222e-08
-1.51746e-09
4.89757e-08
-1.67578e-09
4.90337e-08
-1.85602e-09
4.90926e-08
-2.05508e-09
4.91487e-08
-2.26706e-09
4.91995e-08
-2.47924e-09
4.92428e-08
-2.67022e-09
4.92797e-08
-2.8106e-09
4.93144e-08
-2.87571e-09
4.93531e-08
-2.83604e-09
4.93928e-08
-2.37461e-09
4.94244e-08
-1.91212e-09
4.94393e-08
-1.59283e-09
4.94296e-08
-1.37351e-09
4.93965e-08
-1.23098e-09
4.93349e-08
-1.12518e-09
4.92397e-08
-1.02894e-09
4.91127e-08
-9.30144e-10
4.896e-08
-8.1373e-10
4.8788e-08
-6.69163e-10
4.8606e-08
-4.92226e-10
4.84259e-08
-2.83588e-10
4.82604e-08
-4.85616e-11
4.81223e-08
2.04099e-10
4.80237e-08
4.6239e-10
4.7974e-08
7.13226e-10
4.79789e-08
9.43717e-10
4.80391e-08
1.14231e-09
4.81501e-08
1.30011e-09
4.83022e-08
1.41191e-09
4.84818e-08
1.47668e-09
4.86733e-08
1.49755e-09
1.481e-09
4.88614e-08
6.29827e-08
-4.38963e-10
6.29815e-08
-4.98889e-10
6.29749e-08
-5.64934e-10
6.29641e-08
-6.36311e-10
6.29509e-08
-7.12048e-10
6.29372e-08
-7.91464e-10
6.29254e-08
-8.74354e-10
6.29172e-08
-9.61203e-10
6.29131e-08
-1.0538e-09
6.29151e-08
-1.15326e-09
6.29213e-08
-1.26375e-09
6.29302e-08
-1.38765e-09
6.29401e-08
-1.52734e-09
6.29493e-08
-1.68499e-09
6.29544e-08
-1.86118e-09
6.29513e-08
-2.05193e-09
6.29365e-08
-2.2523e-09
6.2907e-08
-2.44966e-09
6.28607e-08
-2.62397e-09
6.27986e-08
-2.74856e-09
6.27238e-08
-2.80087e-09
6.26411e-08
-2.75333e-09
6.25646e-08
-2.29808e-09
6.24907e-08
-1.83821e-09
6.24117e-08
-1.51382e-09
6.23213e-08
-1.28314e-09
6.22115e-08
-1.12118e-09
6.20808e-08
-9.94462e-10
6.19307e-08
-8.78822e-10
6.17614e-08
-7.60878e-10
6.15767e-08
-6.29031e-10
6.13836e-08
-4.7611e-10
6.11913e-08
-2.99909e-10
6.10104e-08
-1.02677e-10
6.08518e-08
1.1009e-10
6.07256e-08
3.30238e-10
6.06406e-08
5.47445e-10
6.06019e-08
7.51915e-10
6.06112e-08
9.3437e-10
6.06662e-08
1.08728e-09
6.07607e-08
1.20563e-09
6.08853e-08
1.28733e-09
6.10288e-08
1.3332e-09
6.11796e-08
1.3467e-09
1.33315e-09
6.13275e-08
8.0028e-08
-4.54791e-10
8.00399e-08
-5.10776e-10
8.00477e-08
-5.72724e-10
8.00518e-08
-6.40393e-10
8.00531e-08
-7.13359e-10
8.00529e-08
-7.91252e-10
8.00525e-08
-8.73964e-10
8.00531e-08
-9.61775e-10
8.0055e-08
-1.05572e-09
8.00587e-08
-1.15697e-09
8.00627e-08
-1.2677e-09
8.00649e-08
-1.38993e-09
8.00632e-08
-1.52558e-09
8.00537e-08
-1.67548e-09
8.00321e-08
-1.83963e-09
7.99944e-08
-2.01423e-09
7.9936e-08
-2.19389e-09
7.98524e-08
-2.36604e-09
7.9742e-08
-2.51358e-09
7.96045e-08
-2.61105e-09
7.94416e-08
-2.63799e-09
7.9257e-08
-2.56871e-09
7.90791e-08
-2.12019e-09
7.89102e-08
-1.66933e-09
7.87428e-08
-1.34642e-09
7.85717e-08
-1.11204e-09
7.83894e-08
-9.38819e-10
7.81947e-08
-7.99792e-10
7.79894e-08
-6.73529e-10
7.77754e-08
-5.46854e-10
7.7557e-08
-4.10659e-10
7.73413e-08
-2.60361e-10
7.71362e-08
-9.47976e-11
7.69509e-08
8.26001e-11
7.67935e-08
2.67507e-10
7.66718e-08
4.51881e-10
7.65907e-08
6.28586e-10
7.65521e-08
7.9051e-10
7.6555e-08
9.31465e-10
7.65954e-08
1.04692e-09
7.66666e-08
1.13435e-09
7.67606e-08
1.19336e-09
7.68684e-08
1.22544e-09
7.69814e-08
1.23368e-09
1.22217e-09
7.70924e-08
1.00525e-07
-4.85477e-10
1.00553e-07
-5.38684e-10
1.00578e-07
-5.97562e-10
1.006e-07
-6.62172e-10
1.00619e-07
-7.32439e-10
1.00636e-07
-8.08253e-10
1.00652e-07
-8.8961e-10
1.00667e-07
-9.76693e-10
1.00681e-07
-1.07008e-09
1.00694e-07
-1.17046e-09
1.00706e-07
-1.27912e-09
1.00713e-07
-1.39699e-09
1.00713e-07
-1.52569e-09
1.00702e-07
-1.6644e-09
1.00675e-07
-1.81254e-09
1.00627e-07
-1.96617e-09
1.00552e-07
-2.11936e-09
1.00446e-07
-2.26001e-09
1.00305e-07
-2.37286e-09
1.00129e-07
-2.4345e-09
9.99167e-08
-2.42574e-09
9.96704e-08
-2.32244e-09
9.94271e-08
-1.87686e-09
9.91939e-08
-1.43621e-09
9.89639e-08
-1.11633e-09
9.87325e-08