/*--------------------------------*- C++ -*----------------------------------*\
| =========                 |                                                 |
| \\      /  F ield         | OpenFOAM: The Open Source CFD Toolbox           |
|  \\    /   O peration     | Version:  2312                                  |
|   \\  /    A nd           | Website:  www.openfoam.com                      |
|    \\/     M anipulation  |                                                 |
\*---------------------------------------------------------------------------*/
FoamFile
{
    version     2.0;
    format      ascii;
    arch        "LSB;label=32;scalar=64";
    class       surfaceScalarField;
    location    "1.75";
    object      phi;
}
// * * * * * * * * * * * * * * * * * * * * * * * * * * * * * * * * * * * * * //

dimensions      [0 3 -1 0 0 0 0];

oriented        oriented;

internalField   nonuniform List<scalar> 
9445
(
1.80756e-10
2.93806e-12
1.79322e-10
1.43371e-12
1.78847e-10
4.75224e-13
1.79045e-10
-1.98058e-13
1.79745e-10
-7.00041e-13
1.80828e-10
-1.08358e-12
1.82305e-10
-1.47663e-12
1.84189e-10
-1.88425e-12
1.86561e-10
-2.37206e-12
1.89686e-10
-3.12504e-12
1.94312e-10
-4.62571e-12
2.0251e-10
-8.19755e-12
2.20332e-10
-1.7822e-11
2.67334e-10
-4.70026e-11
-1.20421e-10
3.87755e-10
6.32696e-10
1.33249e-11
6.27459e-10
6.67048e-12
6.25513e-10
2.42186e-12
6.2586e-10
-5.45342e-13
6.27894e-10
-2.7345e-12
6.31264e-10
-4.45325e-12
6.3595e-10
-6.16276e-12
6.42008e-10
-7.94177e-12
6.49753e-10
-1.01174e-11
6.60082e-10
-1.34544e-11
6.75118e-10
-1.96617e-11
6.99305e-10
-3.23843e-11
7.40157e-10
-5.86745e-11
8.04528e-10
-1.11373e-10
-1.92441e-10
8.76548e-10
1.25182e-09
3.39683e-11
1.24114e-09
1.73448e-11
1.23684e-09
6.7239e-12
1.23696e-09
-6.64471e-13
1.2403e-09
-6.07428e-12
1.24622e-09
-1.03712e-11
1.25461e-09
-1.45583e-11
1.26554e-09
-1.88666e-11
1.27952e-09
-2.40962e-11
1.29787e-09
-3.18095e-11
1.32317e-09
-4.49626e-11
1.35923e-09
-6.84423e-11
1.40878e-09
-1.08221e-10
1.46595e-09
-1.68548e-10
-2.37117e-10
1.51063e-09
2.08557e-09
6.8428e-11
2.06729e-09
3.56266e-11
2.05935e-09
1.46662e-11
2.05856e-09
1.28583e-13
2.06293e-09
-1.04447e-11
2.07141e-09
-1.8852e-11
2.08375e-09
-2.68994e-11
2.09986e-09
-3.4982e-11
2.12029e-09
-4.45232e-11
2.14625e-09
-5.77654e-11
2.17951e-09
-7.82297e-11
2.2213e-09
-1.10232e-10
2.26936e-09
-1.56274e-10
2.31393e-09
-2.13121e-10
-2.64832e-10
2.34165e-09
3.19272e-09
1.21074e-10
3.16403e-09
6.43167e-11
3.15065e-09
2.80465e-11
3.14783e-09
2.95137e-12
3.15259e-09
-1.52035e-11
3.16325e-09
-2.95198e-11
3.17932e-09
-4.29663e-11
3.20035e-09
-5.6016e-11
3.22658e-09
-7.07506e-11
3.25852e-09
-8.97004e-11
3.29633e-09
-1.16048e-10
3.33845e-09
-1.52346e-10
3.37984e-09
-1.97669e-10
3.41191e-09
-2.45189e-10
-2.81506e-10
3.42858e-09
4.64514e-09
1.96997e-10
4.60259e-09
1.06874e-10
4.58137e-09
4.92674e-11
4.57485e-09
9.46509e-12
4.57883e-09
-1.91774e-11
4.59079e-09
-4.14804e-11
4.60969e-09
-6.18723e-11
4.63458e-09
-8.09067e-11
4.66502e-09
-1.01184e-10
4.7004e-09
-1.2508e-10
4.73916e-09
-1.5481e-10
4.77782e-09
-1.91006e-10
4.81089e-09
-2.30736e-10
4.83274e-09
-2.67043e-10
-2.91003e-10
4.84224e-09
6.52942e-09
3.01614e-10
6.46902e-09
1.67274e-10
6.43701e-09
8.12822e-11
6.42448e-09
2.1989e-11
6.42581e-09
-2.05091e-11
6.43756e-09
-5.3222e-11
6.4576e-09
-8.19191e-11
6.4844e-09
-1.07708e-10
6.51658e-09
-1.33362e-10
6.55235e-09
-1.60846e-10
6.58884e-09
-1.91305e-10
6.62192e-09
-2.2408e-10
6.64706e-09
-2.5588e-10
6.6615e-09
-2.81479e-10
-2.95969e-10
6.66646e-09
8.94758e-09
4.39707e-10
8.86532e-09
2.49528e-10
8.81922e-09
1.27389e-10
8.79783e-09
4.33783e-11
8.79403e-09
-1.67136e-11
8.80321e-09
-6.2397e-11
8.82192e-09
-1.00633e-10
8.84787e-09
-1.33662e-10
8.87871e-09
-1.64192e-10
8.91167e-09
-1.93812e-10
8.94334e-09
-2.2297e-10
8.96988e-09
-2.50624e-10
8.98826e-09
-2.74259e-10
8.99762e-09
-2.90839e-10
-2.98284e-10
8.99994e-09
1.20162e-08
6.1356e-10
1.19091e-08
3.56604e-10
1.18459e-08
1.90607e-10
1.18127e-08
7.65847e-11
1.18008e-08
-4.85487e-12
1.18044e-08
-6.59326e-11
1.18187e-08
-1.14941e-10
1.18405e-08
-1.55464e-10
1.18666e-08
-1.90315e-10
1.18938e-08
-2.20995e-10
1.19187e-08
-2.47855e-10
1.19383e-08
-2.70243e-10
1.19509e-08
-2.86888e-10
1.19567e-08
-2.96626e-10
-2.99121e-10
1.19576e-08
1.58629e-08
8.19952e-10
1.5731e-08
4.88509e-10
1.56492e-08
2.72426e-10
1.56019e-08
1.23837e-10
1.55792e-08
1.78337e-11
1.5574e-08
-6.06892e-11
1.55806e-08
-1.21532e-10
1.55949e-08
-1.69723e-10
1.56131e-08
-2.08553e-10
1.5632e-08
-2.39878e-10
1.56486e-08
-2.64516e-10
1.5661e-08
-2.82645e-10
1.56684e-08
-2.94225e-10
1.56712e-08
-2.99426e-10
-2.98878e-10
1.56709e-08
2.06193e-08
1.04636e-09
2.04683e-08
6.39532e-10
2.03699e-08
3.70816e-10
2.03086e-08
1.85192e-10
2.02736e-08
5.27635e-11
2.02573e-08
-4.44013e-11
2.02535e-08
-1.17711e-10
2.02575e-08
-1.7369e-10
2.02654e-08
-2.1649e-10
2.02743e-08
-2.48725e-10
2.02818e-08
-2.7204e-10
2.02867e-08
-2.87562e-10
2.02887e-08
-2.96251e-10
2.02884e-08
-2.99118e-10
-2.97286e-10
2.02868e-08
2.64117e-08
1.26818e-09
2.62557e-08
7.95543e-10
2.61486e-08
4.77908e-10
2.60772e-08
2.56628e-10
2.60316e-08
9.83797e-11
2.60042e-08
-1.70563e-11
2.59891e-08
-1.02624e-10
2.59817e-08
-1.66257e-10
2.59784e-08
-2.132e-10
2.59767e-08
-2.47036e-10
2.5975e-08
-2.70329e-10
2.59725e-08
-2.85062e-10
2.59692e-08
-2.92909e-10
2.59654e-08
-2.95375e-10
-2.938e-10
2.5962e-08
3.33545e-08
1.451e-09
3.32162e-08
9.33803e-10
3.31152e-08
5.78909e-10
3.30432e-08
3.28674e-10
3.29928e-08
1.48757e-10
3.2958e-08
1.77326e-11
3.29339e-08
-7.8503e-11
3.29166e-08
-1.48993e-10
3.29035e-08
-2.00034e-10
3.28925e-08
-2.36117e-10
3.28828e-08
-2.60603e-10
3.28739e-08
-2.76112e-10
3.28657e-08
-2.84769e-10
3.28587e-08
-2.8834e-10
-2.88245e-10
3.28531e-08
4.15553e-08
1.56187e-09
4.14602e-08
1.02887e-09
4.13841e-08
6.55002e-10
4.13251e-08
3.87656e-10
4.12799e-08
1.93952e-10
4.12451e-08
5.25425e-11
4.12176e-08
-5.10255e-11
4.11952e-08
-1.26557e-10
4.11762e-08
-1.80975e-10
4.11595e-08
-2.19427e-10
4.11446e-08
-2.4579e-10
4.11316e-08
-2.63057e-10
4.11204e-08
-2.73579e-10
4.11113e-08
-2.79222e-10
-2.81403e-10
4.11044e-08
5.11365e-08
1.58694e-09
5.11002e-08
1.06513e-09
5.10633e-08
6.91934e-10
5.10295e-08
4.21468e-10
5.09996e-08
2.23852e-10
5.09732e-08
7.88906e-11
5.09496e-08
-2.74611e-11
5.09284e-08
-1.0532e-10
5.09091e-08
-1.61638e-10
5.08915e-08
-2.01873e-10
5.08758e-08
-2.30093e-10
5.08622e-08
-2.49407e-10
5.08508e-08
-2.622e-10
5.08419e-08
-2.70319e-10
-2.75123e-10
5.08356e-08
6.22485e-08
1.54026e-09
6.22663e-08
1.04733e-09
6.22685e-08
6.89643e-10
6.22624e-08
4.27655e-10
6.22514e-08
2.34795e-10
6.22378e-08
9.25268e-11
6.22226e-08
-1.22761e-11
6.22071e-08
-8.97819e-11
6.21918e-08
-1.4634e-10
6.21773e-08
-1.87449e-10
6.21643e-08
-2.17099e-10
6.21532e-08
-2.38305e-10
6.21444e-08
-2.53347e-10
6.2138e-08
-2.63967e-10
-2.71425e-10
6.21343e-08
7.50185e-08
1.45013e-09
7.50704e-08
9.95439e-10
7.50982e-08
6.61856e-10
7.51105e-08
4.15374e-10
7.51127e-08
2.32602e-10
7.51084e-08
9.68415e-11
7.50997e-08
-3.61185e-12
7.50892e-08
-7.92644e-11
7.50779e-08
-1.35039e-10
7.50669e-08
-1.76484e-10
7.50571e-08
-2.07312e-10
7.50492e-08
-2.30317e-10
7.50434e-08
-2.4759e-10
7.50402e-08
-2.60724e-10
-2.70858e-10
7.50396e-08
8.94029e-08
1.33557e-09
8.94719e-08
9.2642e-10
8.9511e-08
6.228e-10
8.95302e-08
3.96176e-10
8.95363e-08
2.26481e-10
8.9534e-08
9.91114e-11
8.95265e-08
3.8848e-12
8.95166e-08
-6.93607e-11
8.95059e-08
-1.2431e-10
8.94956e-08
-1.6621e-10
8.94867e-08
-1.98423e-10
8.94799e-08
-2.23461e-10
8.94755e-08
-2.432e-10
8.94738e-08
-2.59061e-10
-2.72058e-10
8.9475e-08
1.0499e-07
1.19906e-09
1.05072e-07
8.43535e-10
1.05119e-07
5.75891e-10
1.05142e-07
3.73416e-10
1.05149e-07
2.19674e-10
1.05146e-07
1.02418e-10
1.05137e-07
1.27741e-11
1.05125e-07
-5.7353e-11
1.05112e-07
-1.1163e-10
1.051e-07
-1.54178e-10
1.0509e-07
-1.87981e-10
1.05081e-07
-2.15257e-10
1.05076e-07
-2.37645e-10
1.05073e-07
-2.56392e-10
-2.72373e-10
1.05073e-07
1.20804e-07
1.03422e-09
1.20908e-07
7.39794e-10
1.2097e-07
5.14122e-10
1.21003e-07
3.40417e-10
1.21016e-07
2.06168e-10
1.21017e-07
1.01815e-10
1.21009e-07
2.02191e-11
1.20997e-07
-4.46949e-11
1.20982e-07
-9.65165e-11
1.20966e-07
-1.38486e-10
1.20951e-07
-1.73026e-10
1.20938e-07
-2.01934e-10
1.20927e-07
-2.26545e-10
1.20918e-07
-2.47878e-10
-2.6666e-10
1.20912e-07
1.19813e-07
8.63086e-10
1.19925e-07
6.27937e-10
1.19995e-07
4.43994e-10
1.20036e-07
2.99578e-10
1.20056e-07
1.85618e-10
1.20063e-07
9.50508e-11
1.20061e-07
2.26799e-11
1.20052e-07
-3.64821e-11
1.20041e-07
-8.5051e-11
1.20028e-07
-1.25497e-10
1.20015e-07
-1.59788e-10
1.20002e-07
-1.89322e-10
1.19991e-07
-2.15147e-10
1.19981e-07
-2.38064e-10
-2.58652e-10
1.19973e-07
1.02486e-07
7.13814e-10
1.02585e-07
5.28401e-10
1.02649e-07
3.8031e-10
1.02687e-07
2.61696e-10
1.02707e-07
1.66074e-10
1.02713e-07
8.82882e-11
1.02712e-07
2.42787e-11
1.02704e-07
-2.90821e-11
1.02693e-07
-7.41121e-11
1.02681e-07
-1.12596e-10
1.02667e-07
-1.45958e-10
1.02653e-07
-1.75296e-10
1.02639e-07
-2.01437e-10
1.02626e-07
-2.25007e-10
-2.46466e-10
1.02614e-07
8.58124e-08
5.79346e-10
8.5907e-08
4.33776e-10
8.59719e-08
3.15411e-10
8.60147e-08
2.18849e-10
8.60413e-08
1.39475e-10
8.6056e-08
7.35818e-11
8.6062e-08
1.82605e-11
8.60617e-08
-2.8767e-11
8.60569e-08
-6.92844e-11
8.6049e-08
-1.04648e-10
8.60389e-08
-1.35902e-10
8.60275e-08
-1.63852e-10
8.60151e-08
-1.89114e-10
8.60023e-08
-2.12158e-10
-2.33327e-10
8.59891e-08
7.07311e-08
4.61577e-10
7.08169e-08
3.4795e-10
7.08783e-08
2.54064e-10
7.0921e-08
1.76139e-10
7.09495e-08
1.10924e-10
7.09673e-08
5.57802e-11
7.0977e-08
8.61906e-12
7.09804e-08
-3.21799e-11
7.09791e-08
-6.79578e-11
7.09741e-08
-9.97002e-11
7.09664e-08
-1.28168e-10
7.09565e-08
-1.53949e-10
7.09449e-08
-1.77491e-10
7.09318e-08
-1.99135e-10
-2.19131e-10
7.09176e-08
5.75534e-08
3.59948e-10
5.76294e-08
2.71994e-10
5.76852e-08
1.98229e-10
5.77254e-08
1.35997e-10
5.77533e-08
8.30325e-11
5.77715e-08
3.74956e-11
5.77823e-08
-2.15314e-12
5.7787e-08
-3.69124e-11
5.7787e-08
-6.78894e-11
5.7783e-08
-9.57256e-11
5.77758e-08
-1.20974e-10
5.77659e-08
-1.44054e-10
5.77537e-08
-1.65285e-10
5.77395e-08
-1.84903e-10
-2.03085e-10
5.77234e-08
4.63135e-08
2.7397e-10
4.63789e-08
2.06629e-10
4.64278e-08
1.49347e-10
4.64635e-08
1.00262e-10
4.64887e-08
5.78213e-11
4.65055e-08
2.07618e-11
4.65152e-08
-1.19319e-11
4.65194e-08
-4.10478e-11
4.65188e-08
-6.72781e-11
4.65141e-08
-9.11044e-11
4.65061e-08
-1.12906e-10
4.6495e-08
-1.32972e-10
4.64812e-08
-1.51521e-10
4.6465e-08
-1.68712e-10
-1.84663e-10
4.64466e-08
3.68947e-08
2.03205e-10
3.69491e-08
1.5232e-10
3.699e-08
1.08438e-10
3.702e-08
7.02714e-11
3.7041e-08
3.67854e-11
3.70546e-08
7.1324e-12
3.7062e-08
-1.93368e-11
3.70642e-08
-4.32144e-11
3.70618e-08
-6.49312e-11
3.70556e-08
-8.48229e-11
3.70458e-08
-1.03146e-10
3.70329e-08
-1.20092e-10
3.70172e-08
-1.35806e-10
3.69989e-08
-1.50387e-10
-1.63912e-10
3.69781e-08
2.91083e-08
1.46802e-10
2.91517e-08
1.08923e-10
2.91843e-08
7.58119e-11
2.9208e-08
4.65978e-11
2.92242e-08
2.06235e-11
2.9234e-08
-2.67161e-12
2.92383e-08
-2.36828e-11
2.92379e-08
-4.28382e-11
2.92334e-08
-6.04002e-11
2.92252e-08
-7.65921e-11
2.92136e-08
-9.1581e-11
2.9199e-08
-1.05488e-10
2.91816e-08
-1.18405e-10
2.91616e-08
-1.3039e-10
-1.41489e-10
2.91392e-08
2.27415e-08
1.03315e-10
2.27748e-08
7.55793e-11
2.27996e-08
5.10063e-11
2.28172e-08
2.9026e-11
2.28286e-08
9.24215e-12
2.28346e-08
-8.68375e-12
2.2836e-08
-2.50291e-11
2.28332e-08
-4.00443e-11
2.28267e-08
-5.39051e-11
2.28168e-08
-6.67499e-11
2.28039e-08
-7.86828e-11
2.27882e-08
-8.9777e-11
2.27699e-08
-1.00085e-10
2.27491e-08
-1.09638e-10
-1.18464e-10
2.27261e-08
1.75844e-08
7.08397e-11
1.76091e-08
5.0898e-11
1.76271e-08
3.29907e-11
1.76393e-08
1.6766e-11
1.76466e-08
2.00111e-12
1.76494e-08
-1.15028e-11
1.76483e-08
-2.3928e-11
1.76437e-08
-3.54175e-11
1.76358e-08
-4.60817e-11
1.76251e-08
-5.60033e-11
1.76117e-08
-6.52434e-11
1.75957e-08
-7.38429e-11
1.75775e-08
-8.18298e-11
1.7557e-08
-8.92155e-11
-9.60182e-11
1.75346e-08
1.34429e-08
4.72944e-11
1.34606e-08
3.32473e-11
1.34731e-08
2.04648e-11
1.34811e-08
8.74583e-12
1.34851e-08
-2.01899e-12
1.34856e-08
-1.19548e-11
1.34828e-08
-2.11617e-11
1.34771e-08
-2.97243e-11
1.34688e-08
-3.77065e-11
1.34579e-08
-4.51553e-11
1.34448e-08
-5.21038e-11
1.34295e-08
-5.85725e-11
1.34122e-08
-6.45736e-11
1.33931e-08
-7.01077e-11
-7.51875e-11
1.33723e-08
1.01443e-08
3.06815e-11
1.01565e-08
2.10209e-11
1.01648e-08
1.21172e-11
1.01697e-08
3.86867e-12
1.01715e-08
-3.76884e-12
1.01704e-08
-1.08796e-11
1.01667e-08
-1.75058e-11
1.01607e-08
-2.36983e-11
1.01525e-08
-2.94914e-11
1.01423e-08
-3.49095e-11
1.01301e-08
-3.99689e-11
1.01162e-08
-4.46779e-11
1.01007e-08
-4.90394e-11
1.00836e-08
-5.30484e-11
-5.67148e-11
1.00652e-08
7.53808e-09
1.9257e-11
7.5463e-09
1.28049e-11
7.55163e-09
6.78867e-12
7.55433e-09
1.16606e-12
7.55464e-09
-4.07459e-12
7.55275e-09
-8.9951e-12
7.54885e-09
-1.36003e-11
7.54307e-09
-1.79218e-11
7.53555e-09
-2.19759e-11
7.52642e-09
-2.57742e-11
7.51577e-09
-2.93229e-11
7.50372e-09
-3.26237e-11
7.49035e-09
-3.56752e-11
7.47578e-09
-3.84699e-11
-4.1016e-11
7.46008e-09
5.49582e-09
1.16003e-11
5.50117e-09
7.44992e-12
5.50442e-09
3.54318e-12
5.50572e-09
-1.33833e-13
5.50522e-09
-3.57796e-12
5.50307e-09
-6.84089e-12
5.49937e-09
-9.90352e-12
5.49424e-09
-1.27878e-11
5.48776e-09
-1.54997e-11
5.48003e-09
-1.80438e-11
5.47113e-09
-2.04213e-11
5.46114e-09
-2.26309e-11
5.45013e-09
-2.46692e-11
5.43819e-09
-2.65288e-11
-2.82159e-11
5.42539e-09
3.90905e-09
6.6124e-12
3.91243e-09
4.07496e-12
3.9143e-09
1.67343e-12
3.91476e-09
-5.99151e-13
3.91392e-09
-2.73442e-12
3.91186e-09
-4.77772e-12
3.90865e-09
-6.69836e-12
3.90438e-09
-8.51283e-12
3.8991e-09
-1.02222e-11
3.89288e-09
-1.18274e-11
3.88579e-09
-1.33275e-11
3.87788e-09
-1.47202e-11
3.86921e-09
-1.60023e-11
3.85985e-09
-1.7167e-11
-1.82186e-11
3.84985e-09
2.68742e-09
3.47637e-12
2.68946e-09
2.03457e-12
2.69046e-09
6.73326e-13
2.69048e-09
-6.2164e-13
2.68959e-09
-1.83941e-12
2.68782e-09
-3.01596e-12
2.68525e-09
-4.12425e-12
2.68191e-09
-5.17372e-12
2.67785e-09
-6.16406e-12
2.67312e-09
-7.09485e-12
2.66776e-09
-7.96453e-12
2.66181e-09
-8.77111e-12
2.65532e-09
-9.51204e-12
2.64833e-09
-1.01821e-11
-1.07832e-11
2.6409e-09
1.75635e-09
1.60279e-12
1.75751e-09
8.72417e-13
1.75799e-09
1.95174e-13
1.75782e-09
-4.53093e-13
1.75704e-09
-1.06257e-12
1.75568e-09
-1.65537e-12
1.75378e-09
-2.21686e-12
1.75135e-09
-2.74909e-12
1.74844e-09
-3.25213e-12
1.74507e-09
-3.72527e-12
1.74127e-09
-4.16721e-12
1.73708e-09
-4.57655e-12
1.73252e-09
-4.95181e-12
1.72763e-09
-5.2894e-12
-5.58925e-12
1.72243e-09
1.05489e-09
5.75908e-13
1.05549e-09
2.74815e-13
1.05567e-09
1.00991e-14
1.05547e-09
-2.44878e-13
1.05489e-09
-4.85003e-13
1.05395e-09
-7.20121e-13
1.05268e-09
-9.44174e-13
1.05109e-09
-1.15679e-12
1.04919e-09
-1.35807e-12
1.04702e-09
-1.54743e-12
1.04457e-09
-1.72418e-12
1.04188e-09
-1.88755e-12
1.03897e-09
-2.03698e-12
1.03585e-09
-2.17041e-12
-2.28657e-12
1.03255e-09
5.33614e-10
1.07118e-13
5.33859e-10
3.04475e-14
5.33895e-10
-2.60361e-14
5.33731e-10
-8.11043e-14
5.33379e-10
-1.33333e-13
5.32845e-10
-1.85271e-13
5.32135e-10
-2.35017e-13
5.31261e-10
-2.82484e-13
5.3023e-10
-3.27371e-13
5.29052e-10
-3.69512e-13
5.27737e-10
-4.08732e-13
5.26294e-10
-4.44799e-13
5.24735e-10
-4.77632e-13
5.23071e-10
-5.06493e-13
-5.29978e-13
5.21314e-10
1.52736e-10
1.52767e-10
1.52741e-10
1.5266e-10
1.52526e-10
1.52341e-10
1.52106e-10
1.51824e-10
1.51496e-10
1.51127e-10
1.50718e-10
1.50273e-10
1.49795e-10
1.49289e-10
1.48759e-10
4.67609e-10
-2.68426e-10
1.88572e-10
5.81579e-10
-2.88259e-10
1.74289e-10
6.98419e-10
-2.67863e-10
1.51023e-10
8.1559e-10
-2.35768e-10
1.18596e-10
9.32402e-10
-1.9616e-10
7.93478e-11
1.04912e-09
-1.53475e-10
3.67541e-11
1.1663e-09
-1.09473e-10
-7.70209e-12
1.28443e-09
-6.55156e-11
-5.26197e-11
1.40397e-09
-2.28737e-11
-9.6661e-11
1.52525e-09
1.71658e-11
-1.38446e-10
1.64854e-09
5.32021e-11
-1.76491e-10
1.77402e-09
8.37139e-11
-2.09202e-10
1.90183e-09
1.07187e-10
-2.34993e-10
2.03202e-09
1.22194e-10
-2.52388e-10
2.16465e-09
1.27734e-10
-2.60357e-10
2.29976e-09
1.23477e-10
-2.58593e-10
2.43752e-09
1.10208e-10
-2.47965e-10
2.57822e-09
8.9977e-11
-2.30678e-10
2.72236e-09
6.55914e-11
-2.09734e-10
2.87056e-09
3.83095e-11
-1.86509e-10
3.02309e-09
1.6864e-12
-1.54218e-10
3.17867e-09
-7.08287e-11
-8.47501e-11
3.3112e-09
-2.0894e-10
7.64089e-11
3.412e-09
-4.04816e-10
3.04024e-10
3.48152e-09
-6.35838e-10
5.66314e-10
3.5208e-09
-8.72207e-10
8.32932e-10
3.53151e-09
-1.08541e-09
1.0747e-09
3.51556e-09
-1.2438e-09
1.25976e-09
3.47554e-09
-1.32717e-09
1.36719e-09
3.41558e-09
-1.35091e-09
1.41087e-09
3.33881e-09
-1.30035e-09
1.37713e-09
3.24789e-09
-1.1766e-09
1.26751e-09
3.14561e-09
-9.88561e-10
1.09084e-09
3.03443e-09
-7.44493e-10
8.5567e-10
2.9164e-09
-4.52866e-10
5.70898e-10
2.79292e-09
-1.21888e-10
2.45364e-10
2.66436e-09
2.39655e-10
-1.11095e-10
2.52944e-09
6.20311e-10
-4.85392e-10
2.38476e-09
1.00333e-09
-8.58647e-10
2.22481e-09
1.36442e-09
-1.20448e-09
2.04303e-09
1.67087e-09
-1.48909e-09
1.83418e-09
1.88158e-09
-1.67273e-09
1.5976e-09
1.94467e-09
-1.7081e-09
1.34472e-09
1.80608e-09
-1.55319e-09
1.3634e-09
1.14549e-09
-1.16417e-09
9.194e-10
-3.11278e-10
9.92504e-10
-3.61363e-10
1.08844e-09
-3.63803e-10
1.19671e-09
-3.44035e-10
1.31206e-09
-3.11509e-10
1.43176e-09
-2.73173e-10
1.55467e-09
-2.32385e-10
1.68038e-09
-1.91223e-10
1.80878e-09
-1.51277e-10
1.93991e-09
-1.1396e-10
2.07382e-09
-8.07131e-11
2.2106e-09
-5.306e-11
2.35027e-09
-3.24843e-11
2.49285e-09
-2.03864e-11
2.63834e-09
-1.77545e-11
2.78676e-09
-2.49519e-11
2.93826e-09
-4.12871e-11
3.09311e-09
-6.48736e-11
3.25181e-09
-9.31074e-11
3.41497e-09
-1.24848e-10
3.58281e-09
-1.66161e-10
3.75389e-09
-2.41902e-10
3.89963e-09
-3.54683e-10
4.01061e-09
-5.15792e-10
4.08739e-09
-7.12621e-10
4.13124e-09
-9.16057e-10
4.14399e-09
-1.09817e-09
4.12783e-09
-1.22764e-09
4.08576e-09
-1.2851e-09
4.02247e-09
-1.28762e-09
3.9414e-09
-1.21928e-09
3.84567e-09
-1.08087e-09
3.73857e-09
-8.8146e-10
3.62315e-09
-6.29076e-10
3.50214e-09
-3.31856e-10
3.37786e-09
2.3982e-12
3.25189e-09
3.65619e-10
3.1247e-09
7.475e-10
2.99525e-09
1.13279e-09
2.86132e-09
1.49835e-09
2.72113e-09
1.81105e-09
2.57656e-09
2.02616e-09
2.43651e-09
2.08471e-09
2.322e-09
1.9206e-09
1.50135e-09
2.18404e-09
1.5342e-09
-3.34851e-10
1.57754e-09
-4.04701e-10
1.64714e-09
-4.33402e-10
1.73781e-09
-4.34713e-10
1.84339e-09
-4.17082e-10
1.95929e-09
-3.89076e-10
2.0827e-09
-3.55791e-10
2.21198e-09
-3.20502e-10
2.3462e-09
-2.85501e-10
2.48485e-09
-2.52605e-10
2.62762e-09
-2.23485e-10
2.77434e-09
-1.99785e-10
2.92489e-09
-1.83032e-10
3.07915e-09
-1.74649e-10
3.23704e-09
-1.75637e-10
3.3985e-09
-1.86417e-10
3.56362e-09
-2.06406e-10
3.73264e-09
-2.33896e-10
3.90603e-09
-2.66493e-10
4.08435e-09
-3.03172e-10
4.26777e-09
-3.49577e-10
4.4546e-09
-4.28733e-10
4.61379e-09
-5.13876e-10
4.73515e-09
-6.37149e-10
4.81934e-09
-7.9681e-10
4.86792e-09
-9.64641e-10
4.88282e-09
-1.11307e-09
4.86662e-09
-1.21144e-09
4.82284e-09
-1.24133e-09
4.75674e-09
-1.22151e-09
4.67207e-09
-1.13462e-09
4.57252e-09
-9.81315e-10
4.46199e-09
-7.70924e-10
4.34422e-09
-5.11313e-10
4.22281e-09
-2.10441e-10
4.10117e-09
1.24037e-10
3.98248e-09
4.84309e-10
3.86937e-09
8.60609e-10
3.76374e-09
1.23842e-09
3.66703e-09
1.59507e-09
3.58123e-09
1.89685e-09
3.51005e-09
2.09734e-09
3.45644e-09
2.13832e-09
3.41392e-09
1.96312e-09
1.59612e-09
3.31915e-09
2.35386e-09
-3.47069e-10
2.37621e-09
-4.27051e-10
2.4204e-09
-4.77587e-10
2.48829e-09
-5.02606e-10
2.57682e-09
-5.05611e-10
2.68149e-09
-4.93742e-10
2.79871e-09
-4.7301e-10
2.92589e-09
-4.47687e-10
3.06124e-09
-4.2085e-10
3.20354e-09
-3.94908e-10
3.352e-09
-3.7194e-10
3.50607e-09
-3.53858e-10
3.66536e-09
-3.4232e-10
3.82955e-09
-3.38845e-10
3.99841e-09
-3.44491e-10
4.17176e-09
-3.5977e-10
4.34959e-09
-3.84235e-10
4.53206e-09
-4.16367e-10
4.71957e-09
-4.53997e-10
4.9126e-09
-4.96208e-10
5.1112e-09
-5.4818e-10
5.31343e-09
-6.30962e-10
5.48579e-09
-6.86237e-10
5.61733e-09
-7.68681e-10
5.70876e-09
-8.88249e-10
5.76204e-09
-1.01792e-09
5.77903e-09
-1.13006e-09
5.76291e-09
-1.19531e-09
5.7179e-09
-1.19633e-09
5.64971e-09
-1.15332e-09
5.56239e-09
-1.0473e-09
5.46033e-09
-8.79262e-10
5.34817e-09
-6.5876e-10
5.23047e-09
-3.93611e-10
5.11177e-09
-9.17421e-11
4.99675e-09
2.3905e-10
4.8903e-09
5.90768e-10
4.7973e-09
9.53604e-10
4.72246e-09
1.31325e-09
4.66998e-09
1.64755e-09
4.64308e-09
1.92375e-09
4.64219e-09
2.09823e-09
4.65869e-09
2.12183e-09
4.66422e-09
1.95759e-09
1.65029e-09
4.61004e-09
3.43368e-09
-3.52164e-10
3.4417e-09
-4.3507e-10
3.46465e-09
-5.00541e-10
3.50798e-09
-5.45931e-10
3.57431e-09
-5.71942e-10
3.66082e-09
-5.80255e-10
3.76451e-09
-5.76701e-10
3.8826e-09
-5.65779e-10
4.01274e-09
-5.50988e-10
4.15311e-09
-5.35277e-10
4.30238e-09
-5.21206e-10
4.45957e-09
-5.11053e-10
4.62394e-09
-5.06691e-10
4.79491e-09
-5.09807e-10
4.97198e-09
-5.21568e-10
5.15484e-09
-5.42627e-10
5.3433e-09
-5.72697e-10
5.53741e-09
-6.10474e-10
5.73743e-09
-6.54023e-10
5.94374e-09
-7.02518e-10
6.1562e-09
-7.60635e-10
6.37254e-09
-8.47301e-10
6.557e-09
-8.70703e-10
6.69789e-09
-9.0957e-10
6.79596e-09
-9.86313e-10
6.85358e-09
-1.07554e-09
6.87229e-09
-1.14877e-09
6.85624e-09
-1.17926e-09
6.81071e-09
-1.15079e-09
6.74139e-09
-1.08399e-09
6.65252e-09
-9.58433e-10
6.5496e-09
-7.76343e-10
6.43801e-09
-5.47172e-10
6.32319e-09
-2.78793e-10
6.2107e-09
2.07489e-11
6.10645e-09
3.43299e-10
6.01687e-09
6.80356e-10
5.94873e-09
1.02174e-09
5.90867e-09
1.35331e-09
5.90205e-09
1.65417e-09
5.93088e-09
1.89492e-09
5.9901e-09
2.03901e-09
6.06129e-09
2.05063e-09
6.10529e-09
1.91359e-09
1.66477e-09
6.09082e-09
4.84248e-09
-3.52403e-10
4.84079e-09
-4.33388e-10
4.84754e-09
-5.07288e-10
4.86907e-09
-5.67461e-10
4.91027e-09
-6.13145e-10
4.97363e-09
-6.43609e-10
5.05701e-09
-6.6008e-10
5.15852e-09
-6.67295e-10
5.27593e-09
-6.68398e-10
5.4072e-09
-6.66543e-10
5.55063e-09
-6.6464e-10
5.70489e-09
-6.65312e-10
5.86886e-09
-6.70655e-10
6.04163e-09
-6.82581e-10
6.22246e-09
-7.02399e-10
6.41079e-09
-7.30952e-10
6.60623e-09
-7.68143e-10
6.80866e-09
-8.12898e-10
7.01816e-09
-8.63524e-10
7.23491e-09
-9.1927e-10
7.45853e-09
-9.84254e-10
7.68637e-09
-1.07514e-09
7.88076e-09
-1.0651e-09
8.02932e-09
-1.05812e-09
8.13271e-09
-1.0897e-09
8.19384e-09
-1.13668e-09
8.2135e-09
-1.16842e-09
8.19728e-09
-1.16304e-09
8.15211e-09
-1.10563e-09
8.0827e-09
-1.01458e-09
7.99359e-09
-8.69326e-10
7.89171e-09
-6.7446e-10
7.78322e-09
-4.38682e-10
7.6744e-09
-1.69975e-10
7.57174e-09
1.23412e-10
7.48216e-09
4.32883e-10
7.41315e-09
7.49366e-10
7.37253e-09
1.06236e-09
7.36755e-09
1.35829e-09
7.403e-09
1.61871e-09
7.47822e-09
1.8197e-09
7.58297e-09
1.93427e-09
7.69356e-09
1.94004e-09
7.77412e-09
1.83304e-09
1.6393e-09
7.79959e-09
6.66355e-09
-3.49493e-10
6.65591e-09
-4.25749e-10
6.65056e-09
-5.0193e-10
6.65501e-09
-5.71916e-10
6.67361e-09
-6.3174e-10
6.71059e-09
-6.80596e-10
6.7689e-09
-7.18387e-10
6.84724e-09
-7.45637e-10
6.94427e-09
-7.65428e-10
7.05838e-09
-7.80645e-10
7.18794e-09
-7.942e-10
7.33148e-09
-8.0886e-10
7.48765e-09
-8.26824e-10
7.65529e-09
-8.50224e-10
7.83339e-09
-8.80492e-10
8.02113e-09
-9.18694e-10
8.21792e-09
-9.64933e-10
8.42339e-09
-1.01837e-09
8.63742e-09
-1.07755e-09
8.85993e-09
-1.14177e-09
9.0902e-09
-1.21453e-09
9.32512e-09
-1.31006e-09
9.52576e-09
-1.26574e-09
9.67907e-09
-1.21142e-09
9.78555e-09
-1.19619e-09
9.84862e-09
-1.19976e-09
9.86801e-09
-1.18781e-09
9.851e-09
-1.14604e-09
9.80701e-09
-1.06164e-09
9.73849e-09
-9.46054e-10
9.6506e-09
-7.81443e-10
9.55184e-09
-5.75693e-10
9.44913e-09
-3.35972e-10
9.34946e-09
-7.03064e-11
9.26001e-09
2.12863e-10
9.18827e-09
5.04622e-10
9.14207e-09
7.95566e-10
9.12915e-09
1.07528e-09
9.15597e-09
1.33146e-09
9.22557e-09
1.54912e-09
9.33448e-09
1.71079e-09
9.46965e-09
1.79909e-09
9.6074e-09
1.8023e-09
9.71824e-09
1.7222e-09
1.57745e-09
9.78009e-09
8.99541e-09
-3.4497e-10
8.98476e-09
-4.15097e-10
8.97211e-09
-4.89281e-10
8.96324e-09
-5.63041e-10
8.96397e-09
-6.3247e-10
8.97773e-09
-6.94356e-10
9.00836e-09
-7.49023e-10
9.05933e-09
-7.96603e-10
9.1298e-09
-8.35894e-10
9.21916e-09
-8.70008e-10
9.32645e-09
-9.01492e-10
9.45051e-09
-9.32924e-10
9.59002e-09
-9.66333e-10
9.74379e-09
-1.00399e-09
9.91063e-09
-1.04733e-09
1.00896e-08
-1.09764e-09
1.02798e-08
-1.15518e-09
1.04808e-08
-1.21933e-09
1.06921e-08
-1.28886e-09
1.09133e-08
-1.36302e-09
1.11434e-08
-1.44463e-09
1.13788e-08
-1.54537e-09
1.158e-08
-1.46697e-09
1.17335e-08
-1.36498e-09
1.18397e-08
-1.30232e-09
1.1902e-08
-1.26214e-09
1.19194e-08
-1.2052e-09
1.19009e-08
-1.12746e-09
1.18582e-08
-1.01896e-09
1.17911e-08
-8.7895e-10
1.1706e-08
-6.96327e-10
1.16124e-08
-4.82149e-10
1.15181e-08
-2.41635e-10
1.14304e-08
1.73673e-11
1.13569e-08
2.86394e-10
1.1305e-08
5.56531e-10
1.1282e-08
8.18535e-10
1.12946e-08
1.06272e-09
1.13473e-08
1.27872e-09
1.1441e-08
1.45543e-09
1.15702e-08
1.58163e-09
1.17214e-08
1.64783e-09
1.18741e-08
1.64961e-09
1.20052e-08
1.59115e-09
1.48586e-09
1.20967e-08
1.19526e-08
-3.39986e-10
1.19411e-08
-4.03616e-10
1.19251e-08
-4.73276e-10
1.19082e-08
-5.46204e-10
1.18952e-08
-6.19398e-10
1.18909e-08
-6.90094e-10
1.18981e-08
-7.56246e-10
1.19209e-08
-8.19338e-10
1.19612e-08
-8.76213e-10
1.20207e-08
-9.29552e-10
1.20988e-08
-9.79525e-10
1.21951e-08
-1.02924e-09
1.23088e-08
-1.08002e-09
1.2439e-08
-1.13422e-09
1.25846e-08
-1.19298e-09
1.27448e-08
-1.25778e-09
1.29185e-08
-1.32892e-09
1.31051e-08
-1.40592e-09
1.3304e-08
-1.48771e-09
1.35144e-08
-1.57343e-09
1.37348e-08
-1.66509e-09
1.39611e-08
-1.77165e-09
1.41549e-08
-1.66078e-09
1.43023e-08
-1.51236e-09
1.44031e-08
-1.40316e-09
1.44607e-08
-1.31971e-09
1.44739e-08
-1.21836e-09
1.44534e-08
-1.10698e-09
1.44104e-08
-9.75938e-10
1.43445e-08
-8.13058e-10
1.42636e-08
-6.15411e-10
1.41772e-08
-3.95741e-10
1.40934e-08
-1.57859e-10
1.40199e-08
9.09126e-11
1.39638e-08
3.42398e-10
1.39322e-08
5.88157e-10
1.3931e-08
8.19713e-10
1.3965e-08
1.02874e-09
1.40365e-08
1.20724e-09
1.41441e-08
1.34783e-09
1.42814e-08
1.44435e-09
1.44362e-08
1.49295e-09
1.45923e-08
1.49358e-09
1.47322e-08
1.45119e-09
1.3754e-09
1.48427e-08
1.5666e-08
-3.35018e-10
1.56549e-08
-3.92519e-10
1.56382e-08
-4.56638e-10
1.5618e-08
-5.25931e-10
1.55971e-08
-5.98525e-10
1.55794e-08
-6.72413e-10
1.5569e-08
-7.45852e-10
1.55684e-08
-8.1873e-10
1.55809e-08
-8.88666e-10
1.56087e-08
-9.57424e-10
1.5654e-08
-1.02485e-09
1.57169e-08
-1.09212e-09
1.57974e-08
-1.16046e-09
1.58953e-08
-1.23213e-09
1.60099e-08
-1.30758e-09
1.61406e-08
-1.38852e-09
1.62867e-08
-1.475e-09
1.64474e-08
-1.56663e-09
1.66221e-08
-1.66236e-09
1.68097e-08
-1.76108e-09
1.70085e-08
-1.86384e-09
1.72135e-08
-1.97674e-09
1.73894e-08
-1.83667e-09
1.75221e-08
-1.64507e-09
1.76111e-08
-1.4921e-09
1.76584e-08
-1.36701e-09
1.76644e-08
-1.2244e-09
1.76411e-08
-1.0837e-09
1.7595e-08
-9.29812e-10
1.75292e-08
-7.47254e-10
1.74533e-08
-5.39506e-10
1.73754e-08
-3.1781e-10
1.73035e-08
-8.60286e-11
1.72452e-08
1.49298e-10
1.72068e-08
3.80708e-10
1.71943e-08
6.00725e-10
1.72118e-08
8.02191e-10
1.7262e-08
9.78578e-10
1.73449e-08
1.12432e-09
1.74576e-08
1.23516e-09
1.75934e-08
1.30852e-09
1.77423e-08
1.34402e-09
1.78921e-08
1.34384e-09
1.80304e-08
1.31287e-09
1.25811e-09
1.81477e-08
2.02816e-08
-3.29824e-10
2.02711e-08
-3.81994e-10
2.02551e-08
-4.40627e-10
2.02343e-08
-5.05132e-10
2.02103e-08
-5.74546e-10
2.01856e-08
-6.47694e-10
2.01632e-08
-7.23422e-10
2.01454e-08
-8.00994e-10
2.01361e-08
-8.79366e-10
2.01371e-08
-9.5835e-10
2.0151e-08
-1.03877e-09
2.01791e-08
-1.12022e-09
2.02232e-08
-1.20452e-09
2.02833e-08
-1.29231e-09
2.03595e-08
-1.38376e-09
2.04519e-08
-1.4809e-09
2.056e-08
-1.58309e-09
2.06833e-08
-1.69e-09
2.08214e-08
-1.80043e-09
2.09732e-08
-1.91284e-09
2.11365e-08
-2.02712e-09
2.13061e-08
-2.14637e-09
2.14515e-08
-1.98207e-09
2.15592e-08
-1.7528e-09
2.16282e-08
-1.56104e-09
2.16579e-08
-1.39676e-09
2.16543e-08
-1.22081e-09
2.16252e-08
-1.05458e-09
2.15728e-08
-8.77425e-10
2.15059e-08
-6.8033e-10
2.14347e-08
-4.68288e-10
2.13655e-08
-2.48624e-10
2.13058e-08
-2.6314e-11
2.12621e-08
1.92938e-10
2.12401e-08
4.02768e-10
2.12437e-08
5.97063e-10
2.12756e-08
7.70312e-10
2.13363e-08
9.17927e-10
2.14241e-08
1.03653e-09
2.1535e-08
1.12421e-09
2.16629e-08
1.18064e-09
2.17997e-08
1.20722e-09
2.19366e-08
1.20697e-09
2.20651e-08
1.18429e-09
1.1444e-09
2.21788e-08
2.59559e-08
-3.2378e-10
2.59455e-08
-3.71547e-10
2.59302e-08
-4.25317e-10
2.591e-08
-4.84982e-10
2.58856e-08
-5.50184e-10
2.58583e-08
-6.20376e-10
2.58298e-08
-6.94931e-10
2.58022e-08
-7.73316e-10
2.57778e-08
-8.54991e-10
2.57591e-08
-9.39654e-10
2.57481e-08
-1.02781e-09
2.57467e-08
-1.11876e-09
2.57565e-08
-1.21432e-09
2.57787e-08
-1.31454e-09
2.58143e-08
-1.4194e-09
2.58639e-08
-1.53049e-09
2.59274e-08
-1.64654e-09
2.60048e-08
-1.76743e-09
2.60959e-08
-1.89155e-09
2.61998e-08
-2.01675e-09
2.63143e-08
-2.14159e-09
2.6434e-08
-2.2661e-09
2.65357e-08
-2.0838e-09
2.66075e-08
-1.82457e-09
2.66475e-08
-1.60098e-09
2.66537e-08
-1.40297e-09
2.66359e-08
-1.20302e-09
2.65939e-08
-1.01259e-09
2.65338e-08
-8.1731e-10
2.64658e-08
-6.12333e-10
2.63978e-08
-4.00343e-10
2.63363e-08
-1.87078e-10
2.62874e-08
2.25779e-11
2.62565e-08
2.23803e-10
2.62477e-08
4.11561e-10
2.62635e-08
5.8129e-10
2.63046e-08
7.29184e-10
2.63701e-08
8.52445e-10
2.64572e-08
9.49452e-10
2.65616e-08
1.01986e-09
2.66776e-08
1.06459e-09
2.67991e-08
1.08574e-09
2.69197e-08
1.08638e-09
2.70337e-08
1.07023e-09
1.04123e-09
2.71369e-08
3.28459e-08
-3.16537e-10
3.28351e-08
-3.6076e-10
3.28202e-08
-4.10448e-10
3.2801e-08
-4.65748e-10
3.27775e-08
-5.26653e-10
3.27501e-08
-5.9303e-10
3.27198e-08
-6.64657e-10
3.26878e-08
-7.41312e-10
3.26556e-08
-8.22781e-10
3.26249e-08
-9.08969e-10
3.25972e-08
-1.00006e-09
3.25744e-08
-1.09601e-09
3.25578e-08
-1.19766e-09
3.25485e-08
-1.30527e-09
3.25478e-08
-1.41864e-09
3.25563e-08
-1.53903e-09
3.25749e-08
-1.66514e-09
3.26038e-08
-1.79629e-09
3.26429e-08
-1.93065e-09
3.26915e-08
-2.06543e-09
3.27477e-08
-2.19772e-09
3.28061e-08
-2.32453e-09
3.2853e-08
-2.13075e-09
3.28793e-08
-1.85078e-09
3.28818e-08
-1.60357e-09
3.28593e-08
-1.38047e-09
3.28201e-08
-1.1638e-09
3.27626e-08
-9.55109e-10
3.26943e-08
-7.4892e-10
3.26234e-08
-5.41452e-10
3.25572e-08
-3.3416e-10
3.25014e-08
-1.31301e-10