/*--------------------------------*- C++ -*----------------------------------*\
| =========                 |                                                 |
| \\      /  F ield         | OpenFOAM: The Open Source CFD Toolbox           |
|  \\    /   O peration     | Version:  2312                                  |
|   \\  /    A nd           | Website:  www.openfoam.com                      |
|    \\/     M anipulation  |                                                 |
\*---------------------------------------------------------------------------*/
FoamFile
{
    version     2.0;
    format      ascii;
    arch        "LSB;label=32;scalar=64";
    class       volVectorField;
    location    "1.75";
    object      U;
}
// * * * * * * * * * * * * * * * * * * * * * * * * * * * * * * * * * * * * * //

dimensions      [0 1 -1 0 0 0 0];

internalField   nonuniform List<vector> 
4800
(
(0.00014524 7.40717e-08 -8.29511e-27)
(0.000143585 7.58262e-08 -5.91516e-26)
(0.000142865 7.41094e-08 7.56543e-26)
(0.000142773 7.06008e-08 3.55027e-26)
(0.000143147 6.38538e-08 5.3239e-25)
(0.000143852 5.04225e-08 -1.27371e-24)
(0.000144868 2.28984e-08 1.2e-24)
(0.000146193 -1.98085e-08 -1.75202e-24)
(0.000147852 -8.52997e-08 5.58095e-25)
(0.000149949 -2.00716e-07 1.91825e-24)
(0.000152795 -4.57497e-07 -5.90193e-25)
(0.000157253 -1.19181e-06 -5.32321e-26)
(0.000166847 -3.72424e-06 -7.02683e-25)
(0.000190651 -1.35047e-05 3.33514e-25)
(0.000232651 -4.55853e-05 -2.66317e-25)
(0.00045041 3.92304e-07 -3.00848e-26)
(0.000445163 2.31795e-07 3.74954e-26)
(0.000442764 9.6451e-08 -3.54754e-25)
(0.000442277 -2.93561e-08 2.62297e-25)
(0.000443184 -1.59173e-07 8.66115e-25)
(0.000445091 -3.02837e-07 -1.39234e-24)
(0.000447944 -4.97373e-07 -4.08135e-25)
(0.000451711 -7.60325e-07 -1.04108e-25)
(0.000456504 -1.14451e-06 3.28742e-24)
(0.000462677 -1.80353e-06 -2.41749e-24)
(0.000471178 -3.1768e-06 2.60674e-25)
(0.000484077 -6.53708e-06 3.94572e-25)
(0.00050641 -1.55754e-05 -5.81479e-25)
(0.000544588 -4.09021e-05 -2.00551e-25)
(0.000589647 -9.80881e-05 7.61905e-25)
(0.000789494 1.28834e-06 -2.28228e-26)
(0.000780152 7.60354e-07 2.32485e-26)
(0.000775716 3.25921e-07 2.46029e-25)
(0.000774562 -8.10123e-08 -5.87337e-25)
(0.00077579 -5.00947e-07 5.80442e-25)
(0.000778712 -9.63965e-07 5.60888e-25)
(0.000783261 -1.56769e-06 -1.44866e-24)
(0.000789316 -2.37526e-06 -9.07154e-25)
(0.000797065 -3.56028e-06 2.14739e-24)
(0.000807029 -5.55821e-06 8.13028e-25)
(0.000820419 -9.43747e-06 -2.78765e-24)
(0.000839295 -1.76481e-05 -4.3277e-25)
(0.000866687 -3.51034e-05 1.14694e-24)
(0.000902606 -7.03211e-05 1.854e-24)
(0.000934429 -0.000126994 -9.54317e-25)
(0.00116526 2.94952e-06 8.9542e-27)
(0.00115128 1.78247e-06 -6.30141e-26)
(0.00114439 8.27498e-07 2.84649e-25)
(0.00114222 -6.30934e-08 3.10254e-25)
(0.00114348 -9.64133e-07 -2.98185e-25)
(0.00114712 -1.97078e-06 -1.79423e-24)
(0.00115309 -3.26096e-06 -1.25084e-24)
(0.00116109 -4.96383e-06 4.60834e-24)
(0.00117132 -7.43017e-06 1.9245e-24)
(0.00118426 -1.14279e-05 -2.70382e-24)
(0.00120087 -1.8586e-05 -1.08108e-24)
(0.00122222 -3.19263e-05 -8.22617e-25)
(0.00124861 -5.57511e-05 1.46928e-26)
(0.00127634 -9.39663e-05 5.89764e-25)
(0.00129549 -0.000142838 2.89323e-27)
(0.0015803 5.6104e-06 -1.74395e-26)
(0.00156113 3.45974e-06 -1.08567e-25)
(0.00155132 1.70937e-06 -7.18493e-26)
(0.0015477 8.10517e-08 1.83955e-25)
(0.00154862 -1.52051e-06 -5.34778e-25)
(0.00155257 -3.32009e-06 1.34835e-24)
(0.00155952 -5.59364e-06 -2.33664e-25)
(0.00156892 -8.52565e-06 8.51075e-25)
(0.00158087 -1.26592e-05 -4.66986e-24)
(0.00159559 -1.90088e-05 8.79723e-24)
(0.00161342 -2.94174e-05 -8.40108e-24)
(0.00163418 -4.66305e-05 4.38135e-24)
(0.00165625 -7.33234e-05 -4.02062e-24)
(0.00167524 -0.000109836 3.73243e-24)
(0.00168537 -0.000150444 -1.47004e-24)
(0.00203677 9.58851e-06 2.44159e-26)
(0.00201192 6.03229e-06 8.94309e-26)
(0.00199872 3.15572e-06 -4.73166e-25)
(0.00199317 5.20289e-07 -3.09372e-25)
(0.00199329 -2.10744e-06 8.05753e-25)
(0.00199706 -4.92885e-06 2.93908e-25)
(0.0020044 -8.47795e-06 -2.31892e-24)
(0.00201446 -1.29245e-05 5.51242e-24)
(0.00202713 -1.89614e-05 -7.12643e-24)
(0.00204224 -2.76751e-05 1.66366e-24)
(0.00205943 -4.073e-05 5.095e-24)
(0.00207758 -6.00639e-05 -6.97776e-24)
(0.00209433 -8.67178e-05 3.3898e-24)
(0.00210621 -0.000119224 3.46572e-24)
(0.00211061 -0.000152514 -2.57794e-24)
(0.002536 1.52612e-05 2.13409e-26)
(0.00250518 9.80263e-06 -1.28096e-25)
(0.00248819 5.41387e-06 4.64997e-25)
(0.00248027 1.4239e-06 -6.48473e-25)
(0.00247896 -2.4872e-06 -2.22925e-24)
(0.00248206 -6.64047e-06 3.77137e-24)
(0.00248905 -1.17007e-05 -2.3151e-24)
(0.0024989 -1.78593e-05 7.87797e-24)
(0.0025112 -2.58495e-05 -5.25786e-24)
(0.00252537 -3.66411e-05 -2.44394e-24)
(0.00254051 -5.1451e-05 -4.79253e-24)
(0.00255507 -7.12978e-05 4.25554e-24)
(0.00256687 -9.60951e-05 1.1738e-24)
(0.00257367 -0.000123894 9.94821e-25)
(0.00257471 -0.00015104 -8.52001e-25)
(0.00307799 2.30258e-05 -3.24234e-26)
(0.00304129 1.51133e-05 4.48643e-25)
(0.0030203 8.7826e-06 -1.05227e-24)
(0.00300965 3.08645e-06 -8.86236e-25)
(0.00300637 -2.40022e-06 3.07009e-25)
(0.00300823 -8.20163e-06 6.30332e-25)
(0.0030141 -1.49182e-05 2.32133e-24)
(0.00302285 -2.28643e-05 -6.32005e-24)
(0.00303373 -3.26733e-05 -3.41493e-24)
(0.00304586 -4.50624e-05 8.99869e-24)
(0.00305807 -6.07177e-05 -2.7941e-24)
(0.00306885 -7.99149e-05 9.26631e-24)
(0.00307655 -0.000102017 -4.72073e-24)
(0.00307997 -0.000125297 -1.47728e-24)
(0.00307917 -0.000147412 8.53322e-25)
(0.00366056 3.32232e-05 -4.51157e-27)
(0.00361876 2.23006e-05 2.61356e-25)
(0.00359397 1.35854e-05 -3.71888e-25)
(0.00358047 5.83581e-06 9.10095e-25)
(0.00357489 -1.55357e-06 -5.44898e-24)
(0.0035749 -9.1736e-06 5.71265e-24)
(0.00357898 -1.76619e-05 -9.07856e-24)
(0.00358584 -2.7345e-05 5.44613e-24)
(0.00359448 -3.86978e-05 4.03951e-24)
(0.00360383 -5.21402e-05 8.75171e-24)
(0.00361273 -6.79028e-05 -1.11249e-23)
(0.00361995 -8.5806e-05 -2.05913e-24)
(0.00362442 -0.000105082 8.58637e-25)
(0.00362557 -0.000124457 6.2822e-24)
(0.00362378 -0.000142543 -2.49526e-24)
(0.0042785 4.59893e-05 2.60072e-26)
(0.00423341 3.15923e-05 -1.14399e-25)
(0.00420568 2.00999e-05 5.18772e-25)
(0.00418963 9.98972e-06 -1.83179e-24)
(0.00418172 4.60782e-07 2.77841e-24)
(0.00417955 -9.12793e-06 -3.59852e-24)
(0.00418139 -1.93941e-05 6.00574e-24)
(0.00418582 -3.06515e-05 1.0961e-24)
(0.00419168 -4.31992e-05 -8.10403e-24)
(0.00419793 -5.71976e-05 1.142e-23)
(0.00420354 -7.25797e-05 -1.2272e-23)
(0.00420761 -8.89743e-05 -3.58993e-24)
(0.00420953 -0.000105708 6.02033e-24)
(0.00420908 -0.000121941 1.74084e-24)
(0.00420669 -0.000136901 -7.42127e-25)
(0.00492269 6.10173e-05 1.09297e-25)
(0.00487742 4.29272e-05 -9.32904e-25)
(0.00484853 2.84169e-05 -1.53228e-24)
(0.0048309 1.57483e-05 3.5807e-24)
(0.00482115 3.95557e-06 1.63484e-24)
(0.0048169 -7.63976e-06 -1.01591e-23)
(0.00481641 -1.95965e-05 3.0301e-24)
(0.00481824 -3.21911e-05 2.16732e-24)
(0.00482125 -4.55778e-05 -9.58154e-24)
(0.00482446 -5.97463e-05 9.60534e-24)
(0.00482708 -7.44948e-05 -7.70582e-24)
(0.00482851 -8.94419e-05 1.90052e-23)
(0.00482842 -0.00010409 -8.88599e-24)
(0.00482673 -0.000117932 5.05924e-24)
(0.00482387 -0.000130563 -1.34948e-24)
(0.00558001 7.7269e-05 -4.3068e-26)
(0.00553887 5.57048e-05 6.55811e-25)
(0.00551159 3.8225e-05 -1.2871e-24)
(0.00549415 2.3008e-05 -6.72842e-25)
(0.00548367 8.99851e-06 7.40834e-24)
(0.00547804 -4.49007e-06 -9.9701e-25)
(0.00547566 -1.7944e-05 -1.30483e-23)
(0.00547523 -3.15914e-05 1.50793e-23)
(0.00547574 -4.54957e-05 -3.27165e-24)
(0.00547639 -5.95719e-05 -1.13625e-23)
(0.00547659 -7.36061e-05 1.18492e-23)
(0.00547596 -8.72992e-05 6.30546e-24)
(0.00547435 -0.000100332 -5.00288e-24)
(0.00547172 -0.000112428 -8.50651e-24)
(0.00546845 -0.000123394 6.99199e-25)
(0.00623484 9.28074e-05 -1.09107e-27)
(0.00620252 6.85658e-05 -7.52642e-25)
(0.00618018 4.8581e-05 3.61694e-24)
(0.0061653 3.11344e-05 2.76562e-25)
(0.00615579 1.51932e-05 2.1388e-24)
(0.00615003 1.07517e-07 -7.3782e-24)
(0.00614675 -1.45287e-05 6.32637e-24)
(0.00614492 -2.89029e-05 1.49355e-24)
(0.00614374 -4.3041e-05 1.27896e-23)
(0.00614264 -5.68561e-05 -1.90538e-23)
(0.0061412 -7.0189e-05 -8.4898e-24)
(0.00613923 -8.28513e-05 -5.52521e-24)
(0.00613664 -9.46701e-05 9.96636e-24)
(0.00613341 -0.000105521 -2.84043e-25)
(0.00612989 -0.000115331 9.20064e-25)
(0.00687276 0.000105108 -1.16332e-26)
(0.00685253 7.94719e-05 7.80169e-25)
(0.00683793 5.78671e-05 -1.13402e-24)
(0.00682786 3.88524e-05 -4.59204e-27)
(0.00682115 2.15321e-05 1.54366e-24)
(0.00681678 5.34571e-06 3.95026e-24)
(0.00681391 -1.00335e-05 -1.50912e-23)
(0.00681184 -2.47619e-05 1.16363e-24)
(0.00681007 -3.8864e-05 7.42204e-24)
(0.00680823 -5.22901e-05 -3.4153e-24)
(0.0068061 -6.49558e-05 9.01845e-24)
(0.00680356 -7.67732e-05 6.20945e-24)
(0.00680063 -8.76762e-05 -1.08703e-23)
(0.00679726 -9.76352e-05 7.25624e-24)
(0.00679379 -0.000106644 -5.90072e-24)
(0.00748472 0.000112147 -3.64475e-25)
(0.00747655 8.6437e-05 2.08433e-25)
(0.00747043 6.42712e-05 1.37323e-24)
(0.00746618 4.45545e-05 -7.24064e-24)
(0.00746335 2.65896e-05 6.32411e-24)
(0.00746146 9.93739e-06 -4.69165e-24)
(0.00746006 -5.65956e-06 3.27709e-24)
(0.00745882 -2.03342e-05 -2.34754e-23)
(0.00745747 -3.4127e-05 3.31138e-23)
(0.00745586 -4.70348e-05 -1.92629e-23)
(0.00745389 -5.904e-05 1.67831e-23)
(0.00745155 -7.01294e-05 1.38098e-23)
(0.00744888 -8.03051e-05 -2.34203e-23)
(0.00744584 -8.95928e-05 7.42027e-24)
(0.00744276 -9.80217e-05 -3.06784e-25)
(0.00806661 0.000113744 -1.34452e-26)
(0.00806702 8.87791e-05 -3.95272e-26)
(0.00806742 6.68682e-05 6.16607e-27)
(0.008068 4.72091e-05 -2.03922e-25)
(0.00806864 2.9285e-05 2.63806e-24)
(0.00806921 1.27634e-05 -4.50731e-24)
(0.00806953 -2.55971e-06 4.17956e-24)
(0.00806951 -1.68089e-05 -1.31558e-23)
(0.00806907 -3.00468e-05 2.94901e-23)
(0.00806818 -4.23121e-05 -3.71218e-23)
(0.00806686 -5.36365e-05 2.98323e-23)
(0.00806514 -6.40543e-05 -9.84642e-24)
(0.00806309 -7.36061e-05 5.10577e-25)
(0.00806069 -8.23453e-05 2.18221e-24)
(0.00805823 -9.03177e-05 -4.09694e-24)
(0.00861015 0.000111616 -1.14964e-24)
(0.00861464 8.76713e-05 2.16173e-24)
(0.00861829 6.6413e-05 -8.3632e-25)
(0.00862136 4.72526e-05 -9.76789e-25)
(0.00862387 2.97985e-05 4.13066e-24)
(0.00862582 1.37888e-05 -4.19368e-24)
(0.00862717 -9.55389e-07 -3.8417e-24)
(0.00862794 -1.45568e-05 -9.23669e-24)
(0.00862816 -2.71025e-05 4.49859e-24)
(0.00862787 -3.86659e-05 2.16918e-23)
(0.00862712 -4.93119e-05 -1.1243e-23)
(0.00862597 -5.91028e-05 6.62762e-24)
(0.00862449 -6.80988e-05 -2.64717e-24)
(0.00862268 -7.63651e-05 -7.77517e-24)
(0.00862078 -8.39535e-05 3.92862e-24)
(0.00908979 0.000107618 3.87946e-25)
(0.00909561 8.49141e-05 -6.81568e-25)
(0.00910019 6.45692e-05 -3.54993e-25)
(0.00910386 4.61748e-05 -1.0044e-25)
(0.00910673 2.94315e-05 -1.3519e-24)
(0.0091089 1.41229e-05 6.30451e-24)
(0.00911038 7.82055e-08 -5.09443e-24)
(0.00911126 -1.28173e-05 -3.34159e-24)
(0.00911161 -2.46734e-05 2.97833e-24)
(0.00911148 -3.55848e-05 -3.54048e-24)
(0.00911093 -4.56325e-05 8.07347e-24)
(0.00911002 -5.4891e-05 4.07262e-24)
(0.00910883 -6.34279e-05 -1.48846e-23)
(0.00910733 -7.1311e-05 1.01202e-23)
(0.00910573 -7.85922e-05 -2.04506e-24)
(0.00945632 0.000102235 1.17366e-24)
(0.00946286 8.12183e-05 2.05623e-24)
(0.00946779 6.21935e-05 -4.49338e-24)
(0.00947153 4.49123e-05 -4.24179e-25)
(0.00947433 2.91582e-05 1.29465e-24)
(0.00947632 1.47513e-05 -1.84131e-24)
(0.0094776 1.53466e-06 -3.1938e-24)
(0.00947832 -1.06148e-05 6.52816e-24)
(0.00947855 -2.18095e-05 7.49266e-24)
(0.00947834 -3.21415e-05 -1.79527e-23)
(0.00947776 -4.16897e-05 1.02453e-23)
(0.00947685 -5.05273e-05 -7.09105e-25)
(0.00947568 -5.87181e-05 -5.89047e-25)
(0.00947423 -6.63242e-05 7.85044e-25)
(0.00947264 -7.33911e-05 -3.5952e-25)
(0.00963872 9.43077e-05 -3.13614e-24)
(0.00964636 7.55661e-05 -6.83478e-24)
(0.00965207 5.84033e-05 3.49981e-24)
(0.00965634 4.26996e-05 1.24184e-23)
(0.0096595 2.83161e-05 -3.45891e-24)
(0.00966171 1.51135e-05 -1.09002e-24)
(0.00966317 2.96588e-06 5.41738e-25)
(0.0096639 -8.24727e-06 -2.7369e-24)
(0.00966403 -1.86212e-05 7.66604e-24)
(0.00966365 -2.82384e-05 -3.38756e-24)
(0.00966286 -3.7172e-05 2.16844e-24)
(0.0096617 -4.54885e-05 -3.32624e-24)
(0.00966025 -5.32435e-05 -3.84747e-24)
(0.00965852 -6.04899e-05 5.71918e-24)
(0.00965658 -6.7264e-05 -2.49058e-24)
(0.00955946 8.47251e-05 5.02422e-24)
(0.00956798 6.84073e-05 -1.14905e-23)
(0.00957442 5.32987e-05 1.8504e-24)
(0.00957926 3.93622e-05 1.64482e-23)
(0.00958285 2.65133e-05 -1.58277e-23)
(0.00958541 1.46522e-05 5.48335e-24)
(0.00958711 3.68479e-06 3.61353e-24)
(0.00958808 -6.47196e-06 -8.07281e-24)
(0.00958843 -1.58987e-05 1.69531e-24)
(0.00958824 -2.46734e-05 1.05486e-24)
(0.00958761 -3.28644e-05 -6.377e-25)
(0.00958658 -4.05297e-05 1.44194e-24)
(0.0095852 -4.7716e-05 -1.776e-24)
(0.00958353 -5.44656e-05 1.21213e-24)
(0.00958156 -6.08074e-05 -5.62098e-25)
(0.00923055 7.39074e-05 3.12343e-24)
(0.00923934 6.00821e-05 -6.54147e-24)
(0.00924594 4.71563e-05 -4.4611e-24)
(0.00925086 3.51322e-05 2.07676e-23)
(0.00925442 2.39575e-05 -1.88548e-23)
(0.00925689 1.35617e-05 2.00266e-24)
(0.00925844 3.87645e-06 3.07783e-24)
(0.00925926 -5.16297e-06 1.6248e-24)
(0.00925946 -1.36202e-05 1.23248e-24)
(0.00925912 -2.15524e-05 -5.51538e-24)
(0.0092583 -2.90078e-05 3.51867e-24)
(0.00925707 -3.60271e-05 5.40064e-25)
(0.00925545 -4.2643e-05 -1.29973e-24)
(0.00925352 -4.88844e-05 7.04235e-25)
(0.00925124 -5.47715e-05 4.38126e-25)
(0.00872421 6.3401e-05 7.73281e-24)
(0.00873377 5.17982e-05 -1.36187e-23)
(0.00874124 4.08612e-05 2.76419e-24)
(0.00874701 3.06037e-05 -6.42011e-24)
(0.00875138 2.09924e-05 -8.14395e-24)
(0.00875459 1.19786e-05 2.75102e-23)
(0.0087568 3.51263e-06 -1.04712e-23)
(0.00875818 -4.45933e-06 2.86544e-24)
(0.00875882 -1.19792e-05 -1.54243e-24)
(0.00875882 -1.90794e-05 -3.44525e-24)
(0.00875826 -2.57886e-05 6.15822e-24)
(0.00875719 -3.21327e-05 -2.90816e-24)
(0.00875565 -3.81333e-05 4.72087e-25)
(0.00875374 -4.38096e-05 7.88863e-26)
(0.00875138 -4.91743e-05 2.81035e-26)
(0.00811715 5.34197e-05 2.95109e-24)
(0.00812708 4.36647e-05 -1.50916e-23)
(0.008135 3.43999e-05 2.58854e-23)
(0.00814124 2.56439e-05 -1.95149e-23)
(0.00814606 1.73785e-05 1.91449e-23)
(0.00814968 9.57412e-06 -6.35973e-24)
(0.00815227 2.19817e-06 -4.30905e-24)
(0.00815397 -4.77988e-06 -4.54767e-24)
(0.00815487 -1.13885e-05 7.65107e-24)
(0.00815507 -1.76508e-05 -5.44479e-25)
(0.00815464 -2.35869e-05 -6.87123e-24)
(0.00815363 -2.92141e-05 -6.65933e-25)
(0.00815209 -3.4547e-05 1.21171e-24)
(0.0081501 -3.95974e-05 -1.79968e-25)
(0.0081476 -4.43731e-05 1.89194e-26)
(0.00745559 4.39421e-05 3.87933e-25)
(0.00746565 3.57784e-05 -5.60353e-24)
(0.00747378 2.79802e-05 -3.05478e-24)
(0.00748026 2.05659e-05 2.49594e-23)
(0.00748531 1.35281e-05 -2.42458e-23)
(0.00748913 6.8504e-06 7.0069e-24)
(0.00749188 5.15513e-07 1.15779e-24)
(0.00749369 -5.49957e-06 -5.93025e-25)
(0.00749466 -1.12134e-05 -2.68081e-24)
(0.00749487 -1.66416e-05 1.13271e-23)
(0.00749438 -2.17978e-05 -8.88289e-24)
(0.00749325 -2.66927e-05 -3.09694e-25)
(0.00749153 -3.1335e-05 6.76407e-25)
(0.00748927 -3.57312e-05 3.6326e-25)
(0.00748646 -3.98848e-05 -2.57007e-25)
(0.00677235 3.51938e-05 5.68285e-25)
(0.00678227 2.84292e-05 5.11914e-24)
(0.00679033 2.19425e-05 -5.84447e-24)
(0.00679677 1.5747e-05 -3.96276e-24)
(0.00680179 9.84078e-06 2.48785e-23)
(0.00680556 4.21653e-06 -1.8923e-23)
(0.00680823 -1.1358e-06 -4.53199e-25)
(0.00680993 -6.23207e-06 -3.7576e-24)
(0.00681073 -1.10834e-05 -2.5948e-25)
(0.00681072 -1.56995e-05 5.53036e-25)
(0.00680997 -2.00885e-05 -1.74478e-24)
(0.00680852 -2.42562e-05 1.55502e-24)
(0.00680642 -2.82072e-05 5.69361e-25)
(0.00680373 -3.19439e-05 4.58741e-25)
(0.00680044 -3.54673e-05 3.32284e-25)
(0.00609009 2.73908e-05 3.97156e-24)
(0.00609953 2.18668e-05 -6.04535e-24)
(0.0061072 1.6555e-05 -4.75618e-24)
(0.00611329 1.14629e-05 1.44145e-23)
(0.00611798 6.59207e-06 -5.13987e-24)
(0.00612143 1.94132e-06 -7.05582e-24)
(0.00612378 -2.49667e-06 2.47196e-24)
(0.00612512 -6.72788e-06 5.33384e-24)
(0.00612554 -1.07601e-05 -8.30944e-24)
(0.00612512 -1.45992e-05 8.06149e-24)
(0.00612391 -1.82496e-05 -4.17246e-24)
(0.00612197 -2.17136e-05 1.69927e-24)
(0.00611934 -2.4993e-05 -1.97693e-24)
(0.00611608 -2.80878e-05 1.82915e-24)
(0.00611218 -3.09974e-05 -3.80461e-25)
(0.00542391 2.06986e-05 -7.52829e-25)
(0.00543255 1.62695e-05 -2.57744e-24)
(0.00543953 1.2001e-05 -8.10691e-24)
(0.00544499 7.89626e-06 2.25199e-23)
(0.00544911 3.95995e-06 -4.06271e-24)
(0.00545201 1.95313e-07 -6.22027e-24)
(0.00545383 -3.40394e-06 2.08828e-24)
(0.00545463 -6.83875e-06 -3.02967e-24)
(0.00545452 -1.01131e-05 -6.31651e-24)
(0.00545354 -1.32302e-05 6.08314e-24)
(0.00545177 -1.6192e-05 2.89331e-25)
(0.00544924 -1.89989e-05 -1.72267e-24)
(0.00544601 -2.16507e-05 1.97064e-24)
(0.00544212 -2.4146e-05 9.0602e-26)
(0.00543759 -2.64835e-05 -1.19508e-25)
(0.00478367 1.51896e-05 2.81721e-24)
(0.00479127 1.17129e-05 4.07892e-24)
(0.00479734 8.35534e-06 -3.83196e-24)
(0.00480199 5.11758e-06 -8.18467e-24)
(0.00480537 2.0073e-06 1.08857e-23)
(0.00480759 -9.71908e-07 -1.17762e-23)
(0.00480875 -3.8221e-06 -3.84271e-25)
(0.00480894 -6.54339e-06 4.48647e-24)
(0.00480822 -9.13752e-06 1.53172e-24)
(0.00480665 -1.16057e-05 -3.03206e-24)
(0.00480429 -1.39481e-05 9.77244e-26)
(0.00480119 -1.6164e-05 5.87185e-24)
(0.00479738 -1.82523e-05 -2.2286e-24)
(0.00479293 -2.02105e-05 -5.17977e-25)
(0.00478783 -2.20372e-05 -2.79556e-26)
(0.00417564 1.083e-05 -2.83266e-24)
(0.00418209 8.16434e-06 3.62915e-24)
(0.00418715 5.58415e-06 3.96618e-25)
(0.00419091 3.08996e-06 7.14014e-24)
(0.00419349 6.91479e-07 -5.834e-24)
(0.00419499 -1.60983e-06 4.28298e-25)
(0.00419549 -3.81081e-06 -6.37434e-25)
(0.00419507 -5.91271e-06 -1.7729e-24)
(0.00419378 -7.91589e-06 1.47926e-24)
(0.00419168 -9.82011e-06 -4.76009e-24)
(0.00418881 -1.16247e-05 3.88601e-25)
(0.00418524 -1.33283e-05 1.12925e-24)
(0.00418098 -1.49291e-05 6.71163e-25)
(0.0041761 -1.64243e-05 2.46684e-25)
(0.0041706 -1.78129e-05 7.5562e-26)
(0.0036037 7.50254e-06 2.02109e-24)
(0.003609 5.51043e-06 -1.59776e-24)
(0.00361305 3.57725e-06 -6.8982e-24)
(0.00361594 1.70466e-06 6.45816e-24)
(0.00361776 -9.72135e-08 8.85754e-24)
(0.00361859 -1.82789e-06 -2.30422e-24)
(0.0036185 -3.48326e-06 -4.54272e-24)
(0.00361756 -5.06393e-06 -6.20994e-24)
(0.0036158 -6.56952e-06 4.64729e-24)
(0.00361329 -7.9992e-06 2.5063e-25)
(0.00361007 -9.35188e-06 -1.00248e-24)
(0.00360618 -1.06258e-05 -2.48412e-25)
(0.00360166 -1.18192e-05 5.15827e-25)
(0.00359655 -1.29292e-05 -2.7222e-26)
(0.00359087 -1.39552e-05 -8.4413e-26)
(0.00307 5.04445e-06 -1.21914e-24)
(0.00307421 3.59721e-06 -8.52774e-25)
(0.00307735 2.1889e-06 1.05406e-24)
(0.00307946 8.22633e-07 -3.25718e-24)
(0.00308061 -4.92563e-07 1.06475e-23)
(0.00308088 -1.75654e-06 -1.39793e-23)
(0.00308033 -2.96564e-06 1.358e-23)
(0.00307899 -4.11994e-06 -5.71361e-24)
(0.00307693 -5.21863e-06 1.26009e-24)
(0.00307418 -6.26072e-06 -1.02797e-26)
(0.00307078 -7.24497e-06 -9.76426e-25)
(0.00306677 -8.16971e-06 2.87445e-25)
(0.00306218 -9.03312e-06 -6.90003e-25)
(0.00305706 -9.83258e-06 -8.04622e-26)
(0.00305144 -1.05682e-05 3.8147e-26)
(0.00257538 3.28199e-06 -5.65022e-25)
(0.00257864 2.26389e-06 1.47357e-25)
(0.00258098 1.27064e-06 3.12567e-25)
(0.00258243 3.0637e-07 -1.42305e-24)
(0.00258305 -6.21791e-07 -6.23658e-25)
(0.0025829 -1.51489e-06 5.47374e-24)
(0.00258202 -2.36887e-06 -3.20437e-24)
(0.00258046 -3.18393e-06 4.47009e-25)
(0.00257825 -3.95914e-06 -4.3502e-25)
(0.00257543 -4.69353e-06 -4.5283e-25)
(0.00257203 -5.38594e-06 -1.17627e-25)
(0.0025681 -6.03492e-06 8.17746e-25)
(0.00256365 -6.63883e-06 1.68252e-25)
(0.00255874 -7.19543e-06 -4.52323e-25)
(0.00255338 -7.70519e-06 -6.08218e-26)
(0.0021197 2.05381e-06 -1.95114e-25)
(0.00212215 1.36463e-06 -6.27882e-26)
(0.00212383 6.9116e-07 -3.09415e-24)
(0.00212477 3.77301e-08 8.3777e-25)
(0.002125 -5.91116e-07 -2.16796e-24)
(0.00212457 -1.19749e-06 1.56072e-24)
(0.00212351 -1.77665e-06 2.87482e-24)
(0.00212187 -2.32929e-06 2.10609e-24)
(0.00211966 -2.85451e-06 -2.92538e-24)
(0.00211694 -3.35151e-06 8.80211e-25)
(0.00211371 -3.8193e-06 7.17037e-25)
(0.00211002 -4.25669e-06 -9.87887e-25)
(0.0021059 -4.66238e-06 5.23812e-25)
(0.00210137 -5.0345e-06 -2.23009e-26)
(0.00209647 -5.3737e-06 1.0845e-25)
(0.00170206 1.22274e-06 -7.23074e-25)
(0.00170384 7.78464e-07 -9.78788e-25)
(0.001705 3.44582e-07 -1.65435e-25)
(0.00170555 -7.57424e-08 2.42196e-24)
(0.00170552 -4.79946e-07 -1.69338e-24)
(0.00170493 -8.70956e-07 -3.13763e-25)
(0.00170383 -1.2438e-06 2.67939e-24)
(0.00170224 -1.59955e-06 -8.13219e-27)
(0.00170018 -1.93744e-06 -5.42212e-25)
(0.00169768 -2.25685e-06 -1.8878e-24)
(0.00169477 -2.557e-06 2.38507e-25)
(0.00169147 -2.83702e-06 1.24127e-24)
(0.00168781 -3.0959e-06 -1.57862e-25)
(0.00168381 -3.33223e-06 -1.42422e-25)
(0.00167951 -3.54655e-06 9.0156e-26)
(0.00132098 6.78853e-07 -1.49172e-25)
(0.00132223 4.10725e-07 9.74975e-27)
(0.00132299 1.50395e-07 1.10093e-24)
(0.00132326 -1.01948e-07 7.21187e-25)
(0.00132308 -3.42566e-07 -5.11787e-25)
(0.00132246 -5.77749e-07 -1.2331e-24)
(0.00132142 -8.01252e-07 4.89356e-25)
(0.00131998 -1.01451e-06 -2.03207e-24)
(0.00131817 -1.21695e-06 1.56054e-24)
(0.00131601 -1.40813e-06 7.70331e-25)
(0.00131352 -1.5875e-06 -2.58779e-26)
(0.00131072 -1.75446e-06 -8.11187e-25)
(0.00130763 -1.90835e-06 1.37739e-25)
(0.00130427 -2.0481e-06 -9.3876e-26)
(0.00130067 -2.17408e-06 4.37532e-26)
(0.000974602 3.37437e-07 -2.59012e-25)
(0.000975432 1.89714e-07 6.97318e-27)
(0.000975898 4.90458e-08 8.33894e-25)
(0.000975991 -8.72938e-08 -5.1869e-25)
(0.000975748 -2.16415e-07 2.09693e-24)
(0.000975168 -3.43103e-07 -3.81746e-24)
(0.000974275 -4.63364e-07 3.0752e-24)
(0.000973082 -5.77988e-07 -2.53381e-24)
(0.000971606 -6.86653e-07 1.79313e-24)
(0.000969861 -7.89077e-07 -1.12739e-24)
(0.000967864 -8.84918e-07 3.83948e-25)
(0.000965633 -9.73831e-07 5.37714e-26)
(0.000963182 -1.05544e-06 7.62361e-26)
(0.000960533 -1.12905e-06 -9.1586e-26)
(0.000957702 -1.19479e-06 1.70285e-26)
(0.000660813 1.36775e-07 3.70845e-25)
(0.000661314 6.59151e-08 3.95621e-25)
(0.000661566 1.7506e-09 -1.69475e-24)
(0.00066156 -5.99577e-08 1.23212e-24)
(0.000661323 -1.18139e-07 -1.45647e-26)
(0.000660854 -1.74615e-07 3.0665e-25)
(0.000660168 -2.28201e-07 -3.81143e-25)
(0.000659273 -2.78822e-07 -7.74238e-25)
(0.000658182 -3.26586e-07 7.61282e-25)
(0.000656904 -3.71415e-07 7.20456e-26)
(0.000655451 -4.13166e-07 -5.7657e-25)
(0.000653836 -4.51689e-07 2.07687e-25)
(0.000652069 -4.86845e-07 1.13993e-25)
(0.000650166 -5.18221e-07 -1.41869e-26)
(0.000648138 -5.45642e-07 -1.07848e-26)
(0.00037736 3.8698e-08 -3.53842e-25)
(0.000377604 1.81307e-08 1.07708e-24)
(0.000377706 1.34474e-09 6.29602e-25)
(0.00037766 -1.55228e-08 -1.14432e-24)
(0.00037748 -3.20931e-08 -1.33815e-25)
(0.000377167 -4.88446e-08 -1.17083e-25)
(0.000376728 -6.52938e-08 3.50929e-25)
(0.000376168 -8.04315e-08 -5.87237e-25)
(0.000375494 -9.51399e-08 7.83436e-25)
(0.000374712 -1.09566e-07 -3.83851e-25)
(0.000373828 -1.2359e-07 -2.37918e-25)
(0.000372849 -1.37082e-07 1.40069e-25)
(0.000371783 -1.49946e-07 -1.50852e-25)
(0.000370639 -1.61846e-07 1.46177e-25)
(0.000369422 -1.72104e-07 -2.20478e-26)
(0.000121945 1.78282e-08 -2.22825e-27)
(0.000121987 3.7374e-08 1.84261e-25)
(0.000121988 5.20419e-08 2.08069e-25)
(0.000121942 6.09604e-08 -3.28772e-25)
(0.000121855 6.51527e-08 6.69325e-25)
(0.000121727 6.52454e-08 -7.26497e-25)
(0.000121559 6.20435e-08 4.65517e-26)
(0.000121353 5.67958e-08 3.84992e-25)
(0.00012111 4.93493e-08 -5.31458e-25)
(0.000120833 3.99927e-08 -9.02101e-26)
(0.000120524 2.9145e-08 3.47203e-25)
(0.000120184 1.71774e-08 -1.50993e-25)
(0.000119816 4.39788e-09 -5.0165e-26)
(0.000119423 -8.82072e-09 4.10761e-26)
(0.000119008 -2.18607e-08 -1.60416e-27)
(0.000359484 -0.000138391 3.35166e-26)
(0.000415008 -0.00012526 8.80236e-25)
(0.000505589 -0.000100636 -2.56293e-24)
(0.000600663 -7.59135e-05 3.75858e-24)
(0.000694729 -5.28404e-05 -1.4249e-24)
(0.000789401 -3.27899e-05 -1.35255e-24)
(0.000884563 -1.59089e-05 1.52446e-24)
(0.000980389 -2.14236e-06 -2.95369e-24)
(0.00107708 8.66354e-06 2.31817e-25)
(0.00117481 1.67183e-05 1.81802e-24)
(0.00127368 2.22514e-05 -3.35732e-25)
(0.00137383 2.55051e-05 3.55151e-25)
(0.00147533 2.67473e-05 -3.70557e-26)
(0.00157829 2.62687e-05 2.09851e-25)
(0.00168279 2.44069e-05 -7.72495e-25)
(0.00178898 2.15409e-05 4.21285e-25)
(0.00189706 1.80969e-05 -1.28067e-25)
(0.00200732 1.45133e-05 1.12657e-26)
(0.00212021 1.11579e-05 2.89574e-25)
(0.00223625 8.15312e-06 -1.79395e-25)
(0.00235593 5.05149e-06 1.99848e-26)
(0.00247919 3.66183e-07 -1.68491e-26)
(0.00259505 -8.77494e-06 2.72339e-26)
(0.00269043 -2.41376e-05 9.26653e-26)
(0.00276251 -4.54253e-05 -1.67157e-25)
(0.00281162 -7.15202e-05 -9.18612e-26)
(0.00283866 -0.000100574 2.06672e-26)
(0.0028442 -0.000129381 1.95502e-25)
(0.00282856 -0.000154543 1.47702e-25)
(0.00279411 -0.000175793 -2.69112e-25)
(0.00274304 -0.000189079 -7.67431e-26)
(0.00267642 -0.000191429 2.948e-25)
(0.00259603 -0.000180533 -1.82001e-25)
(0.00250379 -0.000153817 -5.34217e-25)
(0.00240152 -0.000108589 5.28085e-25)
(0.002291 -4.20004e-05 2.23304e-24)
(0.00217377 4.86651e-05 -8.09225e-25)
(0.00205087 0.00016514 2.91495e-25)
(0.0019225 0.000306767 3.32555e-26)
(0.00178766 0.000468511 -2.35768e-24)
(0.00164436 0.000638843 -2.56589e-26)
(0.00149069 0.000797467 7.5911e-25)
(0.00132219 0.000911347 1.69627e-25)
(0.00115533 0.000936958 -9.77147e-25)
(0.00104124 0.00079876 -4.28056e-26)
(0.000638911 -0.000173336 -9.99547e-25)
(0.000667551 -0.00017219 -1.49322e-24)
(0.000725327 -0.000149446 3.06787e-24)
(0.000798566 -0.000122637 1.46452e-24)
(0.000878432 -9.61495e-05 -5.15398e-24)
(0.000963014 -7.24532e-05 5.50935e-24)
(0.00105064 -5.21208e-05 -1.98536e-24)
(0.00114053 -3.51954e-05 1.521e-24)
(0.00123234 -2.15242e-05 -2.02561e-24)
(0.0013259 -1.087e-05 2.82614e-26)
(0.00142112 -2.9717e-06 -1.00854e-24)
(0.00151798 2.44085e-06 1.99514e-24)
(0.00161647 5.66074e-06 -1.08682e-24)
(0.00171664 6.99729e-06 -9.44003e-25)
(0.00181852 6.80157e-06 -6.0828e-25)
(0.00192222 5.45943e-06 1.19472e-24)
(0.0020279 3.39914e-06 -1.36108e-25)
(0.00213583 1.05769e-06 6.04225e-25)
(0.00224638 -1.19701e-06 8.60823e-26)
(0.00236004 -3.2326e-06 -1.76376e-25)
(0.00247723 -5.45558e-06 -6.85052e-26)
(0.00259784 -9.2519e-06 -3.49257e-26)
(0.00271115 -1.73587e-05 1.57555e-25)
(0.00280441 -3.14183e-05 1.60717e-25)
(0.00287493 -5.10358e-05 -1.69211e-25)
(0.00292306 -7.50789e-05 -6.32468e-25)
(0.00294986 -0.000101708 7.87035e-25)
(0.00295567 -0.000127709 -4.69228e-25)
(0.00294109 -0.00014974 1.49746e-25)
(0.00290855 -0.000167759 -5.6229e-27)
(0.0028602 -0.000177665 -1.67463e-25)
(0.00279718 -0.000176487 7.41205e-25)
(0.0027214 -0.000162025 -1.10511e-24)
(0.00263496 -0.000131778 3.10314e-24)
(0.00253996 -8.31137e-05 -4.37982e-24)
(0.00243855 -1.3213e-05 1.1325e-24)
(0.00233293 8.07251e-05 3.66536e-24)
(0.00222513 0.000200776 -1.20424e-24)
(0.00211689 0.000346935 -2.51604e-24)
(0.00200954 0.000515081 -1.19891e-24)
(0.00190443 0.000694444 2.66329e-24)
(0.00180437 0.000864397 -2.13855e-24)
(0.00171318 0.000989247 -3.60724e-27)
(0.00164792 0.0010168 1.15406e-24)
(0.00161034 0.000880154 2.55964e-26)
(0.000953872 -0.000183838 -1.16297e-26)
(0.000965703 -0.000196568 -1.74435e-24)
(0.000996319 -0.000184616 3.37049e-24)
(0.00104601 -0.000162182 2.90335e-24)
(0.0011077 -0.00013636 -4.78409e-24)
(0.00117821 -0.000111356 1.02676e-25)
(0.00125487 -8.88686e-05 4.65002e-25)
(0.00133598 -6.94901e-05 4.93186e-24)
(0.00142056 -5.33206e-05 -5.85859e-24)
(0.00150799 -4.02383e-05 3.50618e-24)
(0.00159789 -3.00323e-05 9.80244e-25)
(0.00169002 -2.24517e-05 -5.64352e-24)
(0.00178424 -1.72059e-05 2.03204e-24)
(0.0018805 -1.39838e-05 7.8595e-25)
(0.00197875 -1.24309e-05 -1.60349e-24)
(0.00207904 -1.21617e-05 2.57651e-24)
(0.00218148 -1.27499e-05 -1.79883e-24)
(0.00228627 -1.37623e-05 -2.45603e-26)
(0.00239376 -1.48315e-05 1.44943e-25)
(0.00250433 -1.58144e-05 1.47344e-25)
(0.00261835 -1.70738e-05 2.43001e-26)
(0.00273566 -1.98893e-05 7.26624e-26)
(0.0028458 -2.68605e-05 -1.63918e-25)
(0.00293643 -3.95079e-05 4.65442e-25)
(0.00300499 -5.73312e-05 -6.73712e-25)
(0.00305184 -7.91897e-05 3.76172e-25)
(0.00307821 -0.000103231 -6.73217e-25)
(0.00308413 -0.000126238 8.89856e-25)
(0.00307064 -0.000144947 -5.19107e-25)
(0.00304018 -0.000159549 2.7479e-25)
(0.00299476 -0.00016586 4.2912e-25)
(0.00293569 -0.00016095 -8.21834e-25)
(0.002865 -0.000142759 4.07308e-25)
(0.002785 -0.000108903 1.61574e-24)
(0.00269807 -5.68848e-05 -3.77235e-24)
(0.0026068 1.59544e-05 5.5134e-24)
(0.00251405 0.00011227 -3.5083e-24)
(0.0024229 0.000234094 4.15325e-24)
(0.00233664 0.000381503 -7.4473e-24)
(0.00225878 0.000550466 2.73624e-24)
(0.00219334 0.000729873 7.83587e-25)
(0.00214521 0.00089768 7.37442e-25)
(0.00211826 0.00101602 -8.65874e-25)
(0.00211704 0.00103108 -1.10521e-25)
(0.00211551 0.000909791 1.53482e-25)
(0.00130222 -0.000187235 -4.25635e-25)
(0.00130407 -0.000207281 -7.10366e-25)
(0.00131628 -0.000205995 -3.15724e-24)
(0.00134452 -0.000191732 8.13196e-25)
(0.00138701 -0.000170287 5.68622e-25)
(0.00144094 -0.000146814 2.55913e-24)
(0.00150372 -0.000124106 -5.34527e-24)
(0.00157327 -0.000103528 2.1055e-24)
(0.00164811 -8.56498e-05 6.7299e-24)
(0.00172719 -7.06235e-05 -1.83523e-24)
(0.0018098 -5.83967e-05 -1.65637e-24)
(0.00189547 -4.88075e-05 -2.56397e-25)
(0.00198389 -4.16109e-05 8.16193e-25)
(0.00207484 -3.65228e-05 -1.58221e-24)
(0.00216821 -3.3204e-05 3.70299e-25)
(0.00226393 -3.12817e-05 -1.21176e-25)
(0.00236207 -3.03409e-05 -7.26339e-25)
(0.00246275 -2.99575e-05 2.94483e-25)
(0.00256623 -2.97687e-05 1.23761e-24)
(0.00267284 -2.96221e-05 -1.57638e-25)
(0.00278284 -2.98359e-05 -2.62373e-25)
(0.00289601 -3.15785e-05 -6.24654e-26)
(0.00300222 -3.73062e-05 -3.0455e-25)
(0.0030896 -4.84175e-05 1.67661e-26)
(0.00315572 -6.43003e-05 -5.78173e-25)
(0.0032009 -8.38218e-05 1.05974e-24)
(0.00322661 -0.000105088 -7.17679e-25)
(0.00323238 -0.000124905 1.29251e-24)
(0.00321998 -0.000140137 -8.49654e-25)
(0.00319181 -0.000151183 2.83613e-25)
(0.0031495 -0.000153764 8.29828e-26)