/*--------------------------------*- C++ -*----------------------------------*\
| =========                 |                                                 |
| \\      /  F ield         | OpenFOAM: The Open Source CFD Toolbox           |
|  \\    /   O peration     | Version:  2312                                  |
|   \\  /    A nd           | Website:  www.openfoam.com                      |
|    \\/     M anipulation  |                                                 |
\*---------------------------------------------------------------------------*/
FoamFile
{
    version     2.0;
    format      ascii;
    arch        "LSB;label=32;scalar=64";
    class       volVectorField;
    location    "130";
    object      U;
}
// * * * * * * * * * * * * * * * * * * * * * * * * * * * * * * * * * * * * * //

dimensions      [0 1 -1 0 0 0 0];

internalField   nonuniform List<vector> 
4800
(
(0.000496391 3.69889e-07 -3.45487e-26)
(0.000486999 4.41504e-07 -2.44515e-25)
(0.000480702 4.84333e-07 3.1338e-25)
(0.000476621 4.97655e-07 1.4494e-25)
(0.000474213 4.81057e-07 2.15368e-24)
(0.000473142 4.55578e-07 -5.13258e-24)
(0.000473254 3.98333e-07 4.80579e-24)
(0.000474483 3.17932e-07 -6.99102e-24)
(0.000476809 1.67308e-07 2.24198e-24)
(0.000480412 -1.25781e-07 7.66788e-24)
(0.000485731 -6.96647e-07 -2.36313e-24)
(0.000494103 -2.19613e-06 -1.99841e-25)
(0.000512913 -7.63607e-06 -2.88306e-24)
(0.000561072 -2.97481e-05 1.31987e-24)
(0.000642064 -9.8566e-05 -1.04356e-24)
(0.00153161 1.91829e-06 -1.09956e-25)
(0.0015025 1.52374e-06 1.37089e-25)
(0.00148269 1.1943e-06 -1.27839e-24)
(0.00146953 8.78272e-07 9.52682e-25)
(0.00146139 5.42602e-07 3.09364e-24)
(0.00145722 1.84596e-07 -4.9503e-24)
(0.00145652 -2.6586e-07 -1.41371e-24)
(0.00145899 -8.55948e-07 -3.3939e-25)
(0.00146455 -1.72004e-06 1.1611e-23)
(0.00147381 -3.16235e-06 -8.59516e-24)
(0.0014879 -5.84684e-06 9.36195e-25)
(0.00150973 -1.20598e-05 1.42563e-24)
(0.00154835 -2.97876e-05 -2.10083e-24)
(0.00161525 -8.39747e-05 -6.13698e-25)
(0.00168842 -0.000208194 2.72207e-24)
(0.00267225 6.22529e-06 -7.87227e-26)
(0.00262164 4.93868e-06 8.03856e-26)
(0.00258679 3.89746e-06 8.36293e-25)
(0.00256321 2.9389e-06 -1.99967e-24)
(0.00254809 1.95926e-06 1.97056e-24)
(0.00253967 8.53667e-07 1.87036e-24)
(0.00253696 -5.22453e-07 -4.78408e-24)
(0.00253944 -2.31912e-06 -2.94996e-24)
(0.00254669 -4.87485e-06 7.16909e-24)
(0.00255966 -8.92264e-06 2.71976e-24)
(0.0025794 -1.59704e-05 -9.45323e-24)
(0.0026082 -3.01303e-05 -1.42481e-24)
(0.00265026 -6.13884e-05 4.03745e-24)
(0.00270444 -0.000130366 6.3585e-24)
(0.00274438 -0.000246983 -3.2807e-24)
(0.00392402 1.4025e-05 2.90895e-26)
(0.00385065 1.12644e-05 -2.03335e-25)
(0.00379946 9.03696e-06 9.12147e-25)
(0.00376417 7.00109e-06 9.86862e-25)
(0.00374081 4.93986e-06 -9.71555e-25)
(0.00372686 2.63489e-06 -5.68288e-24)
(0.00372065 -1.94253e-07 -3.86094e-24)
(0.00372168 -3.8518e-06 1.4291e-23)
(0.00372862 -8.81893e-06 5.97879e-24)
(0.0037425 -1.65094e-05 -8.6689e-24)
(0.00376358 -2.89112e-05 -3.49873e-24)
(0.00379222 -5.07198e-05 -2.667e-24)
(0.00382757 -9.03534e-05 8.07742e-26)
(0.00386213 -0.000158678 1.9711e-24)
(0.00387639 -0.000251748 9.64075e-27)
(0.0052904 2.61059e-05 -5.33393e-26)
(0.00519404 2.11806e-05 -3.2807e-25)
(0.00512581 1.72076e-05 -2.11734e-25)
(0.00507787 1.35985e-05 5.6306e-25)
(0.00504515 9.98148e-06 -1.61989e-24)
(0.00502441 6.01282e-06 4.04596e-24)
(0.0050133 1.26713e-06 -7.10383e-25)
(0.00501089 -4.84162e-06 2.5005e-24)
(0.00501552 -1.2725e-05 -1.38513e-23)
(0.00502726 -2.4372e-05 2.65166e-23)
(0.00504544 -4.17604e-05 -2.57108e-23)
(0.0050685 -6.86953e-05 1.35717e-23)
(0.00509286 -0.000110314 -1.26055e-23)
(0.00511035 -0.00017011 1.19117e-23)
(0.00510968 -0.000240826 -4.75812e-24)
(0.00677089 4.33306e-05 7.04017e-26)
(0.00665315 3.55369e-05 2.53693e-25)
(0.00656835 2.92347e-05 -1.34282e-24)
(0.00650755 2.35376e-05 -8.62069e-25)
(0.00646485 1.7888e-05 2.29717e-24)
(0.00643634 1.18074e-05 8.30239e-25)
(0.0064191 4.68713e-06 -6.51058e-24)
(0.00641146 -4.05762e-06 1.55621e-23)
(0.00641166 -1.52894e-05 -2.02653e-23)
(0.00641861 -3.06246e-05 4.85555e-24)
(0.00643061 -5.17698e-05 1.48124e-23)
(0.00644507 -8.10467e-05 -2.0602e-23)
(0.00645784 -0.000120468 1.03156e-23)
(0.00646275 -0.000169626 1.06406e-23)
(0.00645446 -0.000222302 -8.1079e-24)
(0.0083586 6.6284e-05 5.81957e-26)
(0.00822407 5.50536e-05 -3.45531e-25)
(0.00812512 4.59058e-05 1.24471e-24)
(0.00805261 3.76484e-05 -1.73332e-24)
(0.00800025 2.95354e-05 -5.93643e-24)
(0.00796365 2.09567e-05 1.01231e-23)
(0.00793952 1.11845e-05 -6.17087e-24)
(0.00792552 -4.62123e-07 2.10578e-23)
(0.00791953 -1.47935e-05 -1.43197e-23)
(0.00791969 -3.31436e-05 -6.70775e-24)
(0.00792365 -5.65888e-05 -1.3237e-23)
(0.00792854 -8.6002e-05 1.2161e-23)
(0.00793088 -0.00012137 3.42951e-24)
(0.00792684 -0.000160871 2.95809e-24)
(0.00791448 -0.000200227 -2.60439e-24)
(0.0100377 9.47683e-05 -8.40499e-26)
(0.00989502 7.99194e-05 1.14421e-24)
(0.00978722 6.76402e-05 -2.67359e-24)
(0.00970622 5.65084e-05 -2.21625e-24)
(0.00964604 4.56377e-05 8.11349e-25)
(0.00960226 3.43163e-05 1.62394e-24)
(0.0095714 2.17815e-05 5.88696e-24)
(0.00955073 7.3232e-06 -1.6087e-23)
(0.0095378 -9.71369e-06 -8.63209e-24)
(0.00953032 -3.01779e-05 2.36735e-23)
(0.0095258 -5.45108e-05 -7.3803e-24)
(0.0095216 -8.26019e-05 2.52563e-23)
(0.00951529 -0.000113521 -1.33081e-23)
(0.00950468 -0.000145373 -4.27447e-24)
(0.00948954 -0.00017551 2.53598e-24)
(0.0117822 0.000127162 -1.12111e-26)
(0.0116445 0.000109255 6.3372e-25)
(0.0115365 9.40325e-05 -9.03287e-25)
(0.0114529 8.00497e-05 2.18397e-24)
(0.0113888 6.63994e-05 -1.3074e-23)
(0.0113405 5.23438e-05 1.3819e-23)
(0.0113044 3.71682e-05 -2.19003e-23)
(0.011278 2.02538e-05 1.34434e-23)
(0.0112587 1.14847e-06 1.00383e-23)
(0.0112441 -2.04947e-05 2.19021e-23)
(0.011232 -4.46141e-05 -2.86283e-23)
(0.0112202 -7.06239e-05 -5.35182e-24)
(0.0112073 -9.74182e-05 2.41272e-24)
(0.0111919 -0.000123543 1.76824e-23)
(0.0111745 -0.000147456 -7.21274e-24)
(0.0135595 0.000159881 6.29872e-26)
(0.0134424 0.000140538 -2.69096e-25)
(0.0133456 0.000123296 1.19804e-24)
(0.0132677 0.000107029 -4.21647e-24)
(0.0132058 9.10135e-05 6.40949e-24)
(0.0131572 7.46096e-05 -8.30968e-24)
(0.0131193 5.72419e-05 1.39531e-23)
(0.0130896 3.84773e-05 2.48114e-24)
(0.0130659 1.81144e-05 -1.93256e-23)
(0.0130462 -3.83143e-06 2.76392e-23)
(0.0130285 -2.69861e-05 -3.05309e-23)
(0.0130114 -5.06562e-05 -9.0826e-24)
(0.012994 -7.391e-05 1.59474e-23)
(0.0129754 -9.57953e-05 4.76662e-24)
(0.0129565 -0.000115461 -2.08765e-24)
(0.0153421 0.000187727 2.69239e-25)
(0.0152582 0.000169506 -2.12789e-24)
(0.0151835 0.000151972 -3.36685e-24)
(0.0151199 0.000134635 7.99879e-24)
(0.0150672 0.000117209 3.59813e-24)
(0.015024 9.93058e-05 -2.26132e-23)
(0.0149886 8.058e-05 6.93953e-24)
(0.0149594 6.08415e-05 5.01215e-24)
(0.0149345 4.01316e-05 -2.19326e-23)
(0.0149126 1.86936e-05 2.27762e-23)
(0.0148923 -2.99491e-06 -1.84426e-23)
(0.0148726 -2.43182e-05 4.72965e-23)
(0.0148532 -4.46065e-05 -2.28514e-23)
(0.0148335 -6.33027e-05 1.35049e-23)
(0.0148142 -7.99637e-05 -3.69722e-24)
(0.0171239 0.000206285 -1.26217e-25)
(0.0170764 0.000191539 1.49087e-24)
(0.0170284 0.000175738 -2.83462e-24)
(0.0169845 0.00015894 -1.42511e-24)
(0.0169459 0.000141452 1.59661e-23)
(0.0169127 0.000123276 -2.29392e-24)
(0.0168839 0.000104343 -2.8499e-23)
(0.0168588 8.47148e-05 3.33302e-23)
(0.0168363 6.46239e-05 -7.46372e-24)
(0.0168155 4.44319e-05 -2.60796e-23)
(0.0167957 2.45925e-05 2.79183e-23)
(0.0167764 5.57964e-06 1.52101e-23)
(0.0167574 -1.21654e-05 -1.26501e-23)
(0.0167384 -2.83465e-05 -2.21715e-23)
(0.0167201 -4.27494e-05 1.86794e-24)
(0.0189258 0.000214731 2.46864e-26)
(0.0189071 0.000204976 -1.71148e-24)
(0.0188813 0.000192035 7.88117e-24)
(0.0188553 0.000177013 4.28024e-25)
(0.0188309 0.000160647 4.39202e-24)
(0.0188084 0.000143373 -1.57804e-23)
(0.0187879 0.00012538 1.3508e-23)
(0.0187687 0.000106909 3.1155e-24)
(0.0187507 8.83077e-05 2.79818e-23)
(0.0187332 6.99609e-05 -4.31183e-23)
(0.0187162 5.22617e-05 -1.96335e-23)
(0.0186992 3.55439e-05 -1.30989e-23)
(0.0186825 2.00834e-05 2.45704e-23)
(0.0186657 6.02477e-06 -7.20803e-25)
(0.0186496 -6.53836e-06 2.40181e-24)
(0.0207744 0.000216242 -3.33596e-27)
(0.0207693 0.000210716 1.78626e-24)
(0.0207586 0.000202063 -2.68869e-24)
(0.0207437 0.000189301 1.62214e-26)
(0.0207288 0.000174626 3.26212e-24)
(0.0207142 0.000158881 8.26235e-24)
(0.0207 0.000142504 -3.20687e-23)
(0.0206859 0.000125835 2.68546e-24)
(0.020672 0.000109234 1.63123e-23)
(0.0206581 9.30432e-05 -7.56636e-24)
(0.0206441 7.75758e-05 2.06413e-23)
(0.02063 6.30591e-05 1.45589e-23)
(0.0206161 4.96621e-05 -2.63846e-23)
(0.020602 3.74481e-05 1.81662e-23)
(0.0205884 2.64519e-05 -1.51052e-23)
(0.0226663 0.000216243 -2.16402e-25)
(0.0226643 0.000213029 -3.47261e-25)
(0.0226593 0.000207387 3.29698e-24)
(0.0226507 0.000198072 -1.59496e-23)
(0.0226405 0.000185566 1.41172e-23)
(0.02263 0.000171692 -9.95839e-24)
(0.0226192 0.000157177 7.17099e-24)
(0.0226082 0.000142491 -5.04377e-23)
(0.0225969 0.00012798 7.28177e-23)
(0.0225853 0.000113916 -4.29481e-23)
(0.0225737 0.00010053 3.83878e-23)
(0.0225618 8.79725e-05 3.22608e-23)
(0.0225501 7.63504e-05 -5.63885e-23)
(0.0225381 6.56877e-05 1.83872e-23)
(0.0225266 5.59929e-05 -7.74525e-25)
(0.0245481 0.000216129 -9.20798e-27)
(0.0245469 0.000214464 -1.18329e-24)
(0.0245437 0.000210792 1.33395e-24)
(0.0245383 0.000204763 -4.48018e-25)
(0.0245305 0.000195043 6.05352e-24)
(0.0245222 0.000183522 -1.02272e-23)
(0.0245135 0.000171116 9.30964e-24)
(0.0245043 0.000158467 -2.9102e-23)
(0.0244948 0.000145965 6.60022e-23)
(0.0244848 0.000133846 -8.43067e-23)
(0.0244748 0.000122282 6.90143e-23)
(0.0244645 0.000111381 -2.33049e-23)
(0.0244543 0.000101218 1.21854e-24)
(0.024444 9.1804e-05 5.37658e-24)
(0.024434 8.31416e-05 -1.02917e-23)
(0.0263321 0.000215391 -7.53519e-25)
(0.0263318 0.000215531 -1.64796e-26)
(0.0263298 0.000213508 1.47687e-24)
(0.0263262 0.000209524 -3.07806e-24)
(0.0263207 0.000203072 1.10306e-23)
(0.0263139 0.000194137 -1.09981e-23)
(0.0263068 0.000184111 -9.00221e-24)
(0.0262993 0.000173635 -2.12304e-23)
(0.0262914 0.000163139 1.12726e-23)
(0.0262831 0.000152859 5.13975e-23)
(0.0262746 0.000142947 -2.70244e-23)
(0.0262658 0.000133493 1.59891e-23)
(0.0262571 0.000124563 -6.59734e-24)
(0.0262482 0.000116176 -1.9462e-23)
(0.0262396 0.000108341 9.9547e-24)
(0.0278985 0.000210872 2.6409e-25)
(0.0279008 0.000216417 -2.44209e-25)
(0.0278997 0.000215616 1.93008e-24)
(0.0278975 0.000213233 -7.08487e-24)
(0.027894 0.000209187 -1.77096e-24)
(0.027889 0.000203113 2.07761e-23)
(0.0278833 0.000195481 -1.54991e-23)
(0.0278774 0.000187186 -8.64906e-24)
(0.0278711 0.000178635 8.19958e-24)
(0.0278645 0.000170076 -8.87371e-24)
(0.0278576 0.000161665 2.08089e-23)
(0.0278504 0.000153499 1.02329e-23)
(0.0278433 0.000145646 -3.83251e-23)
(0.0278359 0.000138135 2.63361e-23)
(0.0278287 0.000130985 -5.34103e-24)
(0.0290778 0.000203944 7.13695e-25)
(0.0290835 0.00021457 -1.5992e-25)
(0.0290855 0.000217176 -1.99603e-25)
(0.029085 0.000216218 2.98252e-24)
(0.0290836 0.000214033 -5.07196e-24)
(0.0290812 0.000210554 -9.34348e-24)
(0.0290777 0.00020518 -9.30561e-24)
(0.0290738 0.00019892 2.65647e-23)
(0.0290696 0.000192173 2.34107e-23)
(0.029065 0.000185173 -5.59139e-23)
(0.0290601 0.000178095 3.11573e-23)
(0.0290548 0.000171051 -2.10875e-24)
(0.0290495 0.000164122 -1.6604e-24)
(0.029044 0.000157348 2.20406e-24)
(0.0290385 0.000150758 -1.00587e-24)
(0.0296515 0.000195384 -1.66478e-24)
(0.029659 0.000206685 -9.99756e-25)
(0.0296643 0.000212903 4.13789e-24)
(0.0296678 0.000215643 -3.95402e-24)
(0.0296694 0.000215035 1.9351e-24)
(0.0296696 0.000213189 4.81913e-24)
(0.0296692 0.000209719 -3.79749e-24)
(0.0296683 0.000205322 -2.29314e-23)
(0.029667 0.000200246 5.04608e-23)
(0.0296652 0.00019469 -2.06134e-23)
(0.029663 0.000188829 7.42627e-24)
(0.0296604 0.00018279 -1.3344e-23)
(0.0296577 0.000176662 -1.30768e-23)
(0.0296547 0.000170497 1.89611e-23)
(0.0296516 0.000164338 -8.05103e-24)
(0.0294366 0.000185046 2.32633e-24)
(0.029444 0.00019754 -4.35916e-24)
(0.0294496 0.000205536 1.57301e-24)
(0.029454 0.000209885 -2.17847e-24)
(0.029457 0.000211588 5.12096e-24)
(0.0294592 0.000211215 -4.81351e-24)
(0.0294607 0.000209711 -1.197e-23)
(0.0294618 0.000206951 2.9916e-23)
(0.0294625 0.000203311 6.32006e-24)
(0.0294628 0.000198993 -1.68777e-23)
(0.0294627 0.000194171 -8.35436e-24)
(0.0294623 0.00018897 9.29956e-24)
(0.0294616 0.000183485 -9.78971e-24)
(0.0294608 0.000177779 5.48628e-24)
(0.0294597 0.000171902 -2.35632e-24)
(0.0284256 0.000174692 1.28929e-24)
(0.0284375 0.000187143 -2.3442e-24)
(0.028448 0.000195543 -1.84313e-25)
(0.0284572 0.00020076 9.41799e-25)
(0.0284651 0.000203531 1.82802e-24)
(0.0284721 0.00020447 7.13531e-25)
(0.0284781 0.000203961 -1.27289e-24)
(0.0284835 0.000202259 -1.96841e-24)
(0.0284882 0.000199597 -4.14394e-24)
(0.0284923 0.000196161 2.60794e-23)
(0.0284959 0.000192103 -1.61106e-23)
(0.0284991 0.000187538 1.45994e-24)
(0.0285018 0.000182557 -1.94748e-23)
(0.0285042 0.000177226 9.39012e-24)
(0.0285062 0.000171601 2.97913e-24)
(0.0268389 0.000162497 2.96762e-24)
(0.0268504 0.000174124 -4.78469e-24)
(0.0268612 0.000182262 1.11535e-24)
(0.0268713 0.000187638 -4.84726e-26)
(0.0268808 0.000190817 2.20251e-24)
(0.0268896 0.000192243 -3.96966e-24)
(0.0268977 0.000192274 3.3061e-24)
(0.0269054 0.000191163 -1.91246e-24)
(0.0269126 0.0001891 1.49969e-24)
(0.0269194 0.00018624 7.65808e-24)
(0.0269257 0.000182705 -1.66073e-23)
(0.0269316 0.000178599 1.25109e-23)
(0.0269371 0.000174004 -1.09695e-24)
(0.0269424 0.000168986 -3.66508e-24)
(0.0269473 0.000163597 5.72192e-25)
(0.0249164 0.000151208 1.08782e-24)
(0.0249295 0.000161689 -4.7096e-24)
(0.0249423 0.00016919 6.61675e-24)
(0.0249549 0.000174287 -3.68684e-24)
(0.0249669 0.000177432 8.22152e-25)
(0.0249785 0.000178994 -1.08287e-24)
(0.0249897 0.000179265 -4.94844e-26)
(0.0250004 0.000178455 1.55643e-24)
(0.0250106 0.000176714 -6.00828e-24)
(0.0250205 0.000174167 -2.28228e-24)
(0.02503 0.000170917 8.90924e-24)
(0.0250391 0.000167059 2.55065e-24)
(0.0250477 0.000162668 -4.2918e-24)
(0.0250561 0.000157806 1.35196e-24)
(0.0250641 0.000152522 -3.84667e-25)
(0.0228058 0.000139252 1.41095e-25)
(0.0228218 0.000148255 -1.72313e-24)
(0.022838 0.000154764 -3.35497e-25)
(0.022854 0.00015923 4.6555e-24)
(0.0228697 0.000162019 -3.17758e-24)
(0.0228852 0.000163412 5.75126e-25)
(0.0229002 0.000163628 -8.17756e-26)
(0.0229148 0.000162829 1.51191e-25)
(0.0229289 0.000161143 1.55479e-24)
(0.0229427 0.000158679 -8.78893e-24)
(0.022956 0.00015553 7.84237e-24)
(0.022969 0.000151778 9.58629e-25)
(0.0229815 0.000147488 -1.22555e-24)
(0.0229937 0.000142716 -2.17825e-24)
(0.0230054 0.000137508 1.82754e-24)
(0.0206242 0.000125346 2.08364e-25)
(0.0206441 0.000132713 1.57037e-24)
(0.0206643 0.000138054 -1.8531e-24)
(0.0206845 0.000141708 -7.59059e-25)
(0.0207045 0.000143946 3.09063e-24)
(0.0207242 0.000144973 -2.38086e-24)
(0.0207435 0.000144956 -2.70254e-25)
(0.0207624 0.000144028 5.10695e-25)
(0.0207808 0.000142301 3.4117e-25)
(0.0207988 0.000139863 3.49573e-26)
(0.0208164 0.000136792 2.08598e-24)
(0.0208334 0.000133153 -8.26929e-25)
(0.02085 0.000129002 -1.35132e-25)
(0.0208661 0.000124388 -4.34861e-25)
(0.0208816 0.000119352 -1.51261e-24)
(0.0184568 0.000109399 1.49065e-24)
(0.0184807 0.000115173 -2.18808e-24)
(0.018505 0.000119343 -1.19649e-24)
(0.0185293 0.000122151 3.51318e-24)
(0.0185534 0.00012379 -1.28582e-24)
(0.0185771 0.000124413 -6.7973e-25)
(0.0186004 0.000124149 3.61429e-25)
(0.0186233 0.000123102 -5.52274e-25)
(0.0186457 0.00012136 2.0186e-24)
(0.0186675 0.000118992 -3.0643e-24)
(0.0186887 0.000116057 2.45991e-24)
(0.0187094 0.000112609 -1.59119e-24)
(0.0187295 0.000108696 3.51869e-24)
(0.0187489 0.000104359 -4.21737e-24)
(0.0187676 9.96371e-05 1.34609e-24)
(0.0163595 9.21243e-05 -2.92218e-25)
(0.0163868 9.64805e-05 -8.46344e-25)
(0.0164143 9.96012e-05 -2.19793e-24)
(0.0164417 0.000101653 6.03664e-24)
(0.0164689 0.00010277 -1.40554e-24)
(0.0164957 0.000103063 -1.14255e-24)
(0.016522 0.000102626 -4.22573e-26)
(0.0165478 0.000101535 -1.67564e-26)
(0.016573 9.9856e-05 1.53333e-24)
(0.0165976 9.76415e-05 -1.36889e-24)
(0.0166215 9.49396e-05 -7.13229e-26)
(0.0166446 9.17937e-05 1.9358e-24)
(0.016667 8.82438e-05 -2.14545e-24)
(0.0166886 8.43259e-05 -3.12585e-25)
(0.0167093 8.00738e-05 3.63982e-25)
(0.0143649 7.46543e-05 1.13862e-24)
(0.014394 7.78425e-05 1.33793e-24)
(0.0144233 8.01078e-05 -1.55556e-24)
(0.0144524 8.15615e-05 -2.31817e-24)
(0.0144812 8.22874e-05 2.46115e-24)
(0.0145096 8.23615e-05 -1.95619e-24)
(0.0145374 8.18506e-05 4.64249e-25)
(0.0145647 8.08107e-05 3.65323e-25)
(0.0145913 7.92889e-05 -7.78904e-26)
(0.0146171 7.73265e-05 1.14856e-24)
(0.0146422 7.49608e-05 7.23288e-25)
(0.0146664 7.2227e-05 -4.63898e-24)
(0.0146896 6.9158e-05 1.86846e-24)
(0.014712 6.57841e-05 7.92889e-25)
(0.0147333 6.21343e-05 7.81335e-26)
(0.0124896 5.81554e-05 -1.19786e-24)
(0.0125188 6.0436e-05 1.5094e-24)
(0.0125481 6.20536e-05 9.79899e-26)
(0.0125773 6.30709e-05 1.94671e-24)
(0.0126061 6.3535e-05 -1.80321e-24)
(0.0126345 6.34986e-05 -1.22389e-25)
(0.0126623 6.30081e-05 -3.07633e-25)
(0.0126895 6.21031e-05 -2.02836e-25)
(0.0127159 6.08175e-05 -3.45333e-25)
(0.0127416 5.91822e-05 1.20384e-24)
(0.0127663 5.7226e-05 3.71337e-25)
(0.0127902 5.49763e-05 -2.99437e-25)
(0.012813 5.24598e-05 -4.38285e-25)
(0.0128348 4.97012e-05 -2.89138e-25)
(0.0128554 4.67248e-05 -2.02343e-25)
(0.0107407 4.35172e-05 8.97702e-25)
(0.0107684 4.51219e-05 -7.33129e-25)
(0.0107963 4.62715e-05 -2.47073e-24)
(0.010824 4.69866e-05 2.30079e-24)
(0.0108513 4.7293e-05 2.15844e-24)
(0.0108783 4.72277e-05 -1.02317e-24)
(0.0109047 4.68219e-05 -9.71027e-25)
(0.0109305 4.6102e-05 -1.53728e-25)
(0.0109555 4.50919e-05 -1.28894e-25)
(0.0109798 4.38143e-05 -1.80047e-25)
(0.0110031 4.22903e-05 3.5062e-25)
(0.0110255 4.05411e-05 2.80516e-25)
(0.0110468 3.85874e-05 -5.33721e-25)
(0.011067 3.64488e-05 -5.57165e-26)
(0.0110861 3.41449e-05 2.23211e-25)
(0.00912012 3.12343e-05 -5.70746e-25)
(0.00914522 3.23491e-05 -3.06869e-25)
(0.00917042 3.31672e-05 5.01736e-25)
(0.00919552 3.36767e-05 -9.9788e-25)
(0.00922036 3.38952e-05 3.0866e-24)
(0.00924483 3.38476e-05 -3.16013e-24)
(0.00926881 3.35533e-05 2.15303e-24)
(0.00929221 3.30295e-05 -6.45433e-25)
(0.00931493 3.22923e-05 -1.7626e-25)
(0.00933688 3.13577e-05 -2.43337e-25)
(0.00935798 3.0241e-05 1.85672e-25)
(0.00937816 2.89578e-05 -4.1886e-25)
(0.00939731 2.75234e-05 5.97888e-25)
(0.00941541 2.59528e-05 1.65076e-25)
(0.00943235 2.42615e-05 -1.01785e-25)
(0.00762706 2.14353e-05 -2.79689e-25)
(0.00764873 2.21994e-05 9.24859e-26)
(0.00767056 2.27803e-05 1.47303e-25)
(0.00769234 2.31473e-05 -4.88489e-25)
(0.00771395 2.33162e-05 -8.10467e-26)
(0.00773526 2.33022e-05 1.33487e-24)
(0.00775619 2.31162e-05 -6.9513e-25)
(0.00777661 2.2769e-05 1.35185e-27)
(0.00779645 2.2271e-05 -2.29811e-26)
(0.0078156 2.1633e-05 1.14186e-25)
(0.007834 2.08655e-05 1.52162e-25)
(0.00785157 1.99795e-05 -5.68583e-25)
(0.00786821 1.8986e-05 -4.67656e-25)
(0.0078839 1.7896e-05 6.17428e-25)
(0.00789853 1.67209e-05 1.66361e-25)
(0.0062587 1.39812e-05 -1.02407e-25)
(0.0062766 1.44938e-05 -2.0879e-26)
(0.00629471 1.49002e-05 -1.31438e-24)
(0.00631284 1.51635e-05 5.04426e-25)
(0.00633088 1.52996e-05 -5.04912e-25)
(0.00634873 1.53154e-05 7.25697e-25)
(0.00636628 1.52167e-05 7.12112e-25)
(0.00638344 1.50098e-05 1.21127e-25)
(0.00640013 1.47011e-05 6.17766e-26)
(0.00641627 1.42975e-05 -2.83987e-26)
(0.00643177 1.38057e-05 -3.04294e-25)
(0.00644657 1.32332e-05 7.74013e-25)
(0.00646059 1.25873e-05 -4.33535e-25)
(0.00647379 1.18762e-05 1.7178e-25)
(0.00648609 1.11075e-05 -3.07629e-25)
(0.00501078 8.57468e-06 -4.03248e-25)
(0.00502489 8.90545e-06 -4.64293e-25)
(0.00503926 9.17997e-06 1.50854e-26)
(0.0050537 9.36452e-06 1.08137e-24)
(0.00506813 9.47268e-06 -5.99263e-25)
(0.00508245 9.50595e-06 1.21185e-26)
(0.00509658 9.46709e-06 5.80186e-25)
(0.00511044 9.35958e-06 -1.3369e-25)
(0.00512394 9.18702e-06 -1.17627e-25)
(0.00513703 8.95353e-06 4.23829e-25)
(0.00514962 8.66317e-06 2.08363e-25)
(0.00516166 8.32072e-06 -7.77367e-25)
(0.00517308 7.93076e-06 1.1673e-25)
(0.00518384 7.4989e-06 3.52597e-25)
(0.00519388 7.03024e-06 -2.67441e-25)
(0.00387773 4.84941e-06 -8.84971e-26)
(0.00388829 5.04832e-06 1.28149e-26)
(0.00389911 5.22294e-06 5.4676e-25)
(0.00391004 5.34587e-06 2.51282e-25)
(0.00392102 5.42675e-06 -3.02617e-25)
(0.00393196 5.46421e-06 -4.40634e-25)
(0.0039428 5.45946e-06 9.28044e-26)
(0.00395347 5.41419e-06 -1.8148e-25)
(0.00396391 5.33026e-06 1.0158e-25)
(0.00397405 5.20997e-06 -2.19733e-25)
(0.00398385 5.05554e-06 -1.96658e-25)
(0.00399324 4.86983e-06 5.03282e-25)
(0.00400217 4.65545e-06 -1.73145e-25)
(0.00401061 4.4161e-06 2.22006e-25)
(0.0040185 4.1552e-06 -1.36502e-25)
(0.002853 2.43335e-06 -1.63451e-25)
(0.00286037 2.53673e-06 1.7597e-26)
(0.00286799 2.63619e-06 4.50418e-25)
(0.00287573 2.7104e-06 -2.75987e-25)
(0.00288355 2.76432e-06 8.0917e-25)
(0.00289138 2.79583e-06 -1.33712e-24)
(0.00289919 2.80534e-06 7.83859e-25)
(0.00290691 2.79354e-06 -3.69808e-25)
(0.0029145 2.76121e-06 2.50165e-26)
(0.0029219 2.70949e-06 1.88566e-25)
(0.00292908 2.63946e-06 -9.75811e-26)
(0.00293599 2.55263e-06 -3.11982e-26)
(0.00294259 2.45031e-06 -1.35265e-25)
(0.00294886 2.33475e-06 1.89602e-25)
(0.00295474 2.2084e-06 -5.60543e-26)
(0.00192928 9.93171e-07 2.48593e-25)
(0.00193392 1.03017e-06 2.23633e-25)
(0.00193877 1.07503e-06 -9.89837e-25)
(0.00194372 1.11148e-06 6.66302e-25)
(0.00194876 1.1407e-06 -2.94479e-26)
(0.00195384 1.161e-06 7.3708e-26)
(0.00195894 1.17232e-06 -1.47657e-25)
(0.00196401 1.17471e-06 -9.69223e-26)
(0.00196903 1.16836e-06 3.18089e-26)
(0.00197395 1.15364e-06 -6.83499e-26)
(0.00197874 1.13088e-06 2.68107e-25)
(0.00198338 1.10073e-06 -8.62012e-26)
(0.00198783 1.06366e-06 -1.44003e-25)
(0.00199209 1.02083e-06 9.51683e-27)
(0.0019961 9.74109e-07 3.74978e-26)
(0.00109891 2.68915e-07 -2.5131e-25)
(0.00110129 2.79338e-07 7.24306e-25)
(0.00110382 2.97076e-07 3.28422e-25)
(0.00110642 3.12196e-07 -6.9353e-25)
(0.0011091 3.24812e-07 -7.60723e-26)
(0.00111183 3.34504e-07 -4.81799e-26)
(0.00111458 3.41283e-07 8.79003e-26)
(0.00111735 3.45156e-07 -1.01804e-25)
(0.0011201 3.46127e-07 -1.11145e-26)
(0.00112282 3.44284e-07 -1.6549e-29)
(0.00112549 3.39664e-07 1.11324e-25)
(0.00112809 3.32452e-07 -1.03075e-25)
(0.0011306 3.22663e-07 2.75633e-25)
(0.00113301 3.10702e-07 -3.26132e-25)
(0.00113531 2.97742e-07 8.08964e-26)
(0.0003541 5.67625e-08 -1.79667e-27)
(0.000354698 1.01143e-07 1.37105e-25)
(0.000355358 1.34018e-07 1.27515e-25)
(0.000356057 1.55049e-07 -2.2635e-25)
(0.000356795 1.66808e-07 3.33517e-25)
(0.000357564 1.71294e-07 -3.68473e-25)
(0.000358356 1.7011e-07 1.23011e-26)
(0.000359163 1.64492e-07 3.87661e-26)
(0.000359979 1.55377e-07 -4.55474e-26)
(0.000360796 1.43478e-07 5.60792e-26)
(0.000361608 1.29282e-07 -1.78931e-25)
(0.000362407 1.13148e-07 1.01836e-25)
(0.000363189 9.52307e-08 1.01548e-25)
(0.000363948 7.56873e-08 -9.45598e-26)
(0.000364679 5.49306e-08 6.66678e-27)
(0.000952906 -0.000266338 1.03081e-25)
(0.00108793 -0.000197187 2.73987e-24)
(0.00131368 -0.000125692 -8.02457e-24)
(0.00154302 -6.97567e-05 1.19584e-23)
(0.00176091 -2.74683e-05 -4.49071e-24)
(0.00197253 2.3124e-06 -4.51772e-24)
(0.00217809 2.25195e-05 5.21523e-24)
(0.00237855 3.56701e-05 -1.04633e-23)
(0.00257509 4.39015e-05 6.32036e-25)
(0.00276874 4.89996e-05 6.64937e-24)
(0.0029604 5.24768e-05 -1.26969e-24)
(0.00315089 5.56766e-05 1.36864e-24)
(0.00334095 5.98988e-05 -1.35297e-25)
(0.00353138 6.64829e-05 8.43785e-25)
(0.00372323 7.68792e-05 -3.10328e-24)
(0.00391796 9.26426e-05 1.69921e-24)
(0.0041179 0.00011522 -5.39141e-25)
(0.00432636 0.000145971 2.86254e-26)
(0.00454805 0.000185345 1.32211e-24)
(0.00478908 0.000231683 -8.37602e-25)
(0.00505834 0.000280195 1.1032e-25)
(0.00536138 0.000322505 -9.78908e-26)
(0.0056755 0.000338726 1.94603e-25)
(0.00595924 0.000318054 7.71468e-25)
(0.00619768 0.00026403 -1.38555e-24)
(0.00639007 0.000182545 -9.89783e-25)
(0.00653754 7.89834e-05 -1.40675e-26)
(0.00664165 -4.22773e-05 2.55066e-24)
(0.00670331 -0.000177265 3.86429e-24)
(0.00672257 -0.00032174 -7.642e-24)
(0.00669888 -0.000470668 7.30533e-24)
(0.00663162 -0.000618007 -7.26326e-24)
(0.00652055 -0.000756744 2.16109e-24)
(0.00636606 -0.000879089 1.07192e-24)
(0.00616931 -0.000976698 -1.15467e-24)
(0.00593204 -0.00104076 2.34189e-24)
(0.00565646 -0.00106178 6.32726e-25)
(0.00534498 -0.00102896 2.21763e-24)
(0.00500029 -0.000928694 1.70515e-24)
(0.00462588 -0.000742478 -8.58006e-24)
(0.00422597 -0.000446591 -1.16895e-25)
(0.00380744 -1.94172e-05 4.50617e-24)
(0.00336455 0.000527886 1.83368e-24)
(0.00292139 0.00111033 -6.69089e-24)
(0.00267282 0.00141776 -3.63458e-25)
(0.00178475 -0.000348467 -3.08733e-24)
(0.00183942 -0.000313092 -4.53331e-24)
(0.00197484 -0.000244031 9.38918e-24)
(0.00214593 -0.000179939 4.62251e-24)
(0.00232621 -0.000126511 -1.61992e-23)
(0.00251098 -8.55199e-05 1.75905e-23)
(0.00269615 -5.51774e-05 -6.3469e-24)
(0.00288015 -3.31223e-05 5.20892e-24)
(0.00306272 -1.71396e-05 -6.87463e-24)
(0.00324402 -5.29797e-06 7.70594e-26)
(0.00342447 4.06727e-06 -3.66883e-24)
(0.00360457 1.24285e-05 7.26343e-24)
(0.00378488 2.11851e-05 -4.00396e-24)
(0.0039661 3.17287e-05 -3.57143e-24)
(0.0041492 4.55325e-05 -2.37615e-24)
(0.00433553 6.41358e-05 4.52893e-24)
(0.00452737 8.89418e-05 -5.71346e-25)
(0.00472788 0.000121264 2.43579e-24)
(0.00494155 0.000161511 4.31802e-25)
(0.00517425 0.000207966 -7.45782e-25)
(0.00543476 0.000256042 -3.2875e-25)
(0.00572865 0.000297851 -2.12358e-25)
(0.00603467 0.000314204 1.05278e-24)
(0.00631297 0.000294878 1.33795e-24)
(0.00654883 0.000243387 -1.1556e-24)
(0.006741 0.000165447 -5.94883e-24)
(0.00689003 6.63702e-05 8.14409e-24)
(0.006997 -4.94054e-05 -5.85702e-24)
(0.00706252 -0.000177772 1.98527e-24)
(0.00708655 -0.000314314 -1.40221e-24)
(0.00706866 -0.000453881 1.09086e-23)
(0.00700846 -0.000590384 -1.55297e-23)
(0.00690609 -0.000716842 9.23352e-24)
(0.00676245 -0.000825558 -7.88294e-24)
(0.00657933 -0.000908304 5.76363e-24)
(0.00635939 -0.000956375 -1.02363e-24)
(0.00610611 -0.000960404 6.60972e-24)
(0.00582385 -0.000909778 -7.73762e-25)
(0.0055183 -0.000791449 -7.39717e-24)
(0.00519797 -0.000588113 -5.62826e-24)
(0.0048761 -0.000277811 1.29057e-23)
(0.00457587 0.00015952 -1.34475e-23)
(0.00432483 0.000710663 -3.91586e-24)
(0.00417019 0.00127668 9.31793e-24)
(0.0041756 0.00151238 3.51819e-24)
(0.00276098 -0.000354804 -3.66762e-26)
(0.00276693 -0.000359601 -5.24097e-24)
(0.00281998 -0.000321748 1.00033e-23)
(0.00292368 -0.000267621 8.89889e-24)
(0.00305232 -0.000214152 -1.43899e-23)
(0.003197 -0.000168141 2.79629e-25)
(0.00335052 -0.000131039 1.44325e-24)
(0.00350874 -0.000101922 1.59819e-23)
(0.00366955 -7.91975e-05 -1.8952e-23)
(0.0038319 -6.11553e-05 1.17204e-23)
(0.00399542 -4.61882e-05 3.52209e-24)
(0.00416009 -3.28096e-05 -1.94437e-23)
(0.00432616 -1.95869e-05 7.01609e-24)
(0.00449408 -5.11207e-06 2.77473e-24)
(0.00466469 1.2087e-05 -5.75489e-24)
(0.0048392 3.35213e-05 9.34434e-24)
(0.00501976 6.05376e-05 -6.61916e-24)
(0.00520938 9.44005e-05 -1.73442e-25)
(0.00541231 0.000135479 4.86437e-25)
(0.00563415 0.000181988 5.63119e-25)
(0.00588353 0.000229539 6.1691e-26)
(0.00616602 0.000270755 3.60739e-25)
(0.00646191 0.000287147 -1.0708e-24)
(0.00673311 0.000269088 3.22647e-24)
(0.00696506 0.000220086 -5.20253e-24)
(0.00715601 0.000145694 3.01217e-24)
(0.00730586 5.1161e-05 -7.35934e-24)
(0.00741519 -5.90213e-05 9.94185e-24)
(0.00748427 -0.000180595 -9.69304e-24)
(0.00751299 -0.000308988 2.45618e-26)
(0.00750103 -0.000438925 -6.51044e-25)
(0.00744829 -0.000564283 1.81449e-23)
(0.00735531 -0.000678135 -6.1149e-24)
(0.00722354 -0.000772923 -3.89371e-24)
(0.00705549 -0.000840633 3.60799e-24)
(0.0068548 -0.000872861 2.31434e-24)
(0.00662629 -0.000860698 -3.57647e-24)
(0.00637631 -0.000794349 1.13089e-23)
(0.00611349 -0.000662443 -2.34163e-23)
(0.00585066 -0.000451109 9.33096e-24)
(0.0056076 -0.000144654 3.71542e-24)
(0.00541588 0.000267484 6.71223e-24)
(0.0053137 0.000762175 -8.38376e-24)
(0.00533328 0.00123596 2.78979e-24)
(0.00546827 0.00141764 -1.77845e-24)
(0.00386398 -0.000335323 -1.33326e-24)
(0.00384116 -0.000364917 -2.09319e-24)
(0.00384534 -0.000354027 -9.01662e-24)
(0.00388424 -0.000323021 2.24482e-24)
(0.00395725 -0.000279927 1.52562e-24)
(0.00405352 -0.000236835 7.49953e-24)
(0.004166 -0.000198346 -1.62172e-23)
(0.00428941 -0.000165663 6.10313e-24)
(0.00442025 -0.000138433 2.09222e-23)
(0.00455629 -0.000115633 -5.56485e-24)
(0.00469628 -9.60069e-05 -5.24051e-24)
(0.00483958 -7.82389e-05 -8.31109e-25)
(0.00498598 -6.09844e-05 2.70394e-24)
(0.00513564 -4.28871e-05 -5.27015e-24)
(0.00528919 -2.25252e-05 1.21539e-24)
(0.00544764 1.55186e-06 -4.42565e-25)
(0.00561299 3.06081e-05 -2.61017e-24)
(0.00578808 6.58468e-05 9.14483e-25)
(0.00597688 0.000107596 4.6763e-24)
(0.00618471 0.000153979 -5.03938e-25)
(0.00642005 0.000200806 -1.11115e-24)
(0.00668839 0.000241247 -3.2683e-25)
(0.00697167 0.000257524 -1.89547e-24)
(0.0072337 0.000240631 -1.63826e-25)
(0.00746006 0.000194078 -4.75737e-24)
(0.00764841 0.000123267 8.08551e-24)
(0.007798 3.33844e-05 -7.40034e-24)
(0.00790884 -7.10218e-05 1.44251e-23)
(0.00798089 -0.000185557 -1.29228e-23)
(0.00801397 -0.000305504 2.74591e-24)
(0.00800787 -0.000425493 5.90276e-24)
(0.00796282 -0.000539403 -6.31846e-26)
(0.00787979 -0.000640425 -2.89169e-25)
(0.00776083 -0.000721246 2.74816e-25)
(0.00760918 -0.000774232 -1.45133e-24)
(0.00742945 -0.000791542 -1.47095e-24)
(0.00722774 -0.000765139 1.09857e-23)
(0.00701214 -0.000686696 -5.44661e-24)
(0.00679347 -0.000547509 4.87949e-25)
(0.00658706 -0.000338618 -2.38299e-23)
(0.00641476 -5.26155e-05 1.85103e-23)
(0.00630722 0.000310038 -7.8943e-24)
(0.00629766 0.000721024 1.2826e-24)
(0.00640049 0.00109684 1.11031e-23)
(0.00658999 0.001276 -3.02103e-24)
(0.00508827 -0.000305417 -5.54506e-24)
(0.00505461 -0.000344308 1.14144e-23)
(0.00502947 -0.000352939 3.34803e-24)
(0.00502788 -0.000342023 1.43949e-23)
(0.00504846 -0.000317449 -3.55222e-23)
(0.00509591 -0.000283977 -1.16281e-24)