/*--------------------------------*- C++ -*----------------------------------*\
| =========                 |                                                 |
| \\      /  F ield         | OpenFOAM: The Open Source CFD Toolbox           |
|  \\    /   O peration     | Version:  2312                                  |
|   \\  /    A nd           | Website:  www.openfoam.com                      |
|    \\/     M anipulation  |                                                 |
\*---------------------------------------------------------------------------*/
FoamFile
{
    version     2.0;
    format      ascii;
    arch        "LSB;label=32;scalar=64";
    class       volVectorField;
    location    "196.5";
    object      U;
}
// * * * * * * * * * * * * * * * * * * * * * * * * * * * * * * * * * * * * * //

dimensions      [0 1 -1 0 0 0 0];

internalField   nonuniform List<vector> 
4800
(
(0.000479364 2.32776e-07 -2.25747e-26)
(0.000474252 2.4727e-07 -1.60569e-25)
(0.0004718 2.49664e-07 2.05543e-25)
(0.000470985 2.53508e-07 9.63947e-26)
(0.000471376 2.46283e-07 1.44811e-24)
(0.000472631 2.40675e-07 -3.4741e-24)
(0.000474627 2.03117e-07 3.28712e-24)
(0.000477347 1.11064e-07 -4.82747e-24)
(0.000480911 -5.16178e-08 1.53411e-24)
(0.000485518 -3.22284e-07 5.36259e-24)
(0.000491603 -8.5639e-07 -1.64934e-24)
(0.0005005 -2.31886e-06 -1.32546e-25)
(0.000519742 -7.71619e-06 -2.05209e-24)
(0.000567878 -2.95958e-05 9.68367e-25)
(0.000646805 -9.58843e-05 -7.72817e-25)
(0.00148491 1.182e-06 -7.14815e-26)
(0.001469 7.25804e-07 8.91386e-26)
(0.0014609 3.64255e-07 -8.3982e-25)
(0.00145765 5.76136e-08 6.20153e-25)
(0.00145796 -2.4586e-07 2.04674e-24)
(0.00146073 -5.65883e-07 -3.31027e-24)
(0.0014657 -9.64721e-07 -9.85954e-25)
(0.00147277 -1.54733e-06 -2.60344e-25)
(0.00148216 -2.4209e-06 8.02814e-24)
(0.00149446 -3.80552e-06 -5.96626e-24)
(0.00151091 -6.38437e-06 6.49398e-25)
(0.00153436 -1.24536e-05 1.00658e-24)
(0.00157401 -2.99808e-05 -1.50454e-24)
(0.00164074 -8.36108e-05 -4.68731e-25)
(0.00171186 -0.000204635 1.98718e-24)
(0.00259858 3.81892e-06 -5.11534e-26)
(0.00257085 2.3849e-06 5.22167e-26)
(0.00255611 1.29526e-06 5.48347e-25)
(0.0025495 3.47218e-07 -1.31704e-24)
(0.0025488 -5.95586e-07 1.29438e-24)
(0.00255215 -1.62183e-06 1.2497e-24)
(0.0025591 -2.88494e-06 -3.2769e-24)
(0.00256949 -4.60499e-06 -2.0778e-24)
(0.00258342 -7.08764e-06 4.95499e-24)
(0.00260163 -1.09475e-05 1.9054e-24)
(0.00262549 -1.77202e-05 -6.61834e-24)
(0.00265728 -3.14781e-05 -1.03628e-24)
(0.00270121 -6.20394e-05 2.84925e-24)
(0.00275594 -0.000129652 4.56638e-24)
(0.00279532 -0.000242495 -2.36673e-24)
(0.00382591 8.57159e-06 1.88943e-26)
(0.00378571 5.515e-06 -1.32187e-25)
(0.00376347 3.20396e-06 5.96134e-25)
(0.00375256 1.19847e-06 6.55669e-25)
(0.00374975 -7.85826e-07 -6.2389e-25)
(0.00375273 -2.87358e-06 -3.72427e-24)
(0.00376034 -5.48082e-06 -2.66611e-24)
(0.00377267 -8.95992e-06 9.92603e-24)
(0.00378931 -1.38132e-05 4.19968e-24)
(0.00381082 -2.1097e-05 -5.97557e-24)
(0.00383795 -3.29489e-05 -2.43161e-24)
(0.00387121 -5.3978e-05 -1.87945e-24)
(0.00390985 -9.23552e-05 5.09494e-26)
(0.00394647 -0.00015855 1.40268e-24)
(0.00396215 -0.000247778 6.87966e-27)
(0.0051697 1.58772e-05 -3.46242e-26)
(0.00511717 1.04621e-05 -2.12926e-25)
(0.00508701 6.37412e-06 -1.40092e-25)
(0.00507111 2.8594e-06 3.6659e-25)
(0.00506512 -5.84277e-07 -1.06197e-24)
(0.00506677 -4.18564e-06 2.63673e-24)
(0.00507369 -8.50621e-06 -4.63865e-25)
(0.00508629 -1.42561e-05 1.72945e-24)
(0.00510352 -2.19522e-05 -9.60608e-24)
(0.00512543 -3.29639e-05 1.83748e-23)
(0.00515179 -4.94834e-05 -1.78773e-23)
(0.0051814 -7.52604e-05 9.50491e-24)
(0.00521086 -0.000115179 -8.87625e-24)
(0.00523236 -0.000172476 8.40329e-24)
(0.00523519 -0.000239643 -3.35766e-24)
(0.00662824 2.61641e-05 4.56246e-26)
(0.00656498 1.76257e-05 1.6426e-25)
(0.0065274 1.11878e-05 -8.73326e-25)
(0.00650638 5.70728e-06 -5.72107e-25)
(0.00649669 4.42141e-07 1.5092e-24)
(0.00649592 -5.19659e-06 5.52074e-25)
(0.0065012 -1.15409e-05 -4.35993e-24)
(0.00651241 -1.98341e-05 1.05558e-23)
(0.00652817 -3.05178e-05 -1.38471e-23)
(0.00654785 -4.49821e-05 3.30659e-24)
(0.00657035 -6.49951e-05 1.02631e-23)
(0.00659345 -9.28083e-05 -1.43475e-23)
(0.00661337 -0.00013027 7.20311e-24)
(0.00662434 -0.000176862 7.42013e-24)
(0.00662153 -0.000226371 -5.65647e-24)
(0.00819318 3.95765e-05 3.75393e-26)
(0.00812309 2.72322e-05 -2.23025e-25)
(0.00808016 1.79242e-05 8.07171e-25)
(0.00805496 1.00636e-05 -1.12937e-24)
(0.00804194 2.5452e-06 -3.92526e-24)
(0.0080382 -5.22776e-06 6.7015e-24)
(0.0080412 -1.40591e-05 -4.13281e-24)
(0.0080498 -2.48827e-05 1.42498e-23)
(0.00806251 -3.83566e-05 -9.68807e-24)
(0.00807812 -5.55682e-05 -4.58443e-24)
(0.00809498 -7.76109e-05 -9.12799e-24)
(0.00811071 -0.000105329 8.39252e-24)
(0.00812229 -0.00013863 2.37408e-24)
(0.00812629 -0.000175673 2.03794e-24)
(0.00812123 -0.000212265 -1.79561e-24)
(0.00984758 5.55794e-05 -5.35926e-26)
(0.00977762 3.90212e-05 7.34374e-25)
(0.0097336 2.65019e-05 -1.72359e-24)
(0.00970678 1.59696e-05 -1.45404e-24)
(0.00969196 6.01428e-06 5.08562e-25)
(0.009686 -4.16649e-06 1.05382e-24)
(0.00968661 -1.54057e-05 3.9215e-24)
(0.00969223 -2.86304e-05 -1.0826e-23)
(0.00970119 -4.44142e-05 -5.90724e-24)
(0.00971198 -6.34332e-05 1.60597e-23)
(0.00972283 -8.61083e-05 -5.04603e-24)
(0.00973172 -0.00011233 1.72736e-23)
(0.00973672 -0.000141155 -9.11781e-24)
(0.00973606 -0.000170719 -2.91328e-24)
(0.00972988 -0.000198457 1.72678e-24)
(0.0115657 7.2477e-05 -6.96126e-27)
(0.0115059 5.18407e-05 4.03165e-25)
(0.0114675 3.61265e-05 -5.76079e-25)
(0.0114435 2.28924e-05 1.41446e-24)
(0.0114299 1.05184e-05 -8.53675e-24)
(0.0114238 -1.99731e-06 9.04698e-24)
(0.0114232 -1.54716e-05 -1.45443e-23)
(0.0114266 -3.06903e-05 8.89838e-24)
(0.0114322 -4.80819e-05 6.71617e-24)
(0.0114386 -6.7916e-05 1.47747e-23)
(0.0114444 -9.01086e-05 -1.93386e-23)
(0.0114479 -0.000114087 -3.60704e-24)
(0.0114483 -0.000138766 1.66073e-24)
(0.0114446 -0.000162736 1.19045e-23)
(0.0114378 -0.000184523 -4.84527e-24)
(0.0133177 8.70717e-05 3.68307e-26)
(0.0132792 6.32801e-05 -1.65548e-25)
(0.0132544 4.49226e-05 7.59699e-25)
(0.0132393 2.93624e-05 -2.70188e-24)
(0.0132313 1.48924e-05 4.13606e-24)
(0.0132283 4.33176e-07 -5.41676e-24)
(0.0132289 -1.48127e-05 9.16285e-24)
(0.0132318 -3.13984e-05 1.67477e-24)
(0.0132357 -4.95702e-05 -1.28219e-23)
(0.0132394 -6.92993e-05 1.84165e-23)
(0.0132418 -9.0227e-05 -2.03702e-23)
(0.0132421 -0.000111677 -6.03265e-24)
(0.0132399 -0.000132746 1.06439e-23)
(0.0132348 -0.000152521 3.16061e-24)
(0.013228 -0.0001702 -1.38138e-24)
(0.015081 9.51035e-05 1.35721e-25)
(0.0150717 6.97968e-05 -1.26492e-24)
(0.0150671 4.99001e-05 -2.13831e-24)
(0.0150662 3.28368e-05 5.01878e-24)
(0.015068 1.69639e-05 2.31836e-24)
(0.0150716 1.2152e-06 -1.45805e-23)
(0.0150763 -1.50147e-05 4.4406e-24)
(0.0150814 -3.21345e-05 3.23884e-24)
(0.0150859 -5.02061e-05 -1.43969e-23)
(0.0150892 -6.90301e-05 1.49472e-23)
(0.0150907 -8.81716e-05 -1.20885e-23)
(0.0150901 -0.000107045 3.10513e-23)
(0.0150874 -0.00012501 -1.49543e-23)
(0.0150825 -0.000141534 8.81013e-24)
(0.0150766 -0.00015621 -2.40434e-24)
(0.0168559 9.32188e-05 -3.75684e-26)
(0.0168746 6.80584e-05 8.25979e-25)
(0.016891 4.78997e-05 -1.68534e-24)
(0.0169058 3.03701e-05 -9.04211e-25)
(0.0169193 1.40352e-05 1.00283e-23)
(0.0169314 -2.13777e-06 -1.37731e-24)
(0.0169422 -1.84238e-05 -1.81785e-23)
(0.0169512 -3.51474e-05 2.13796e-23)
(0.0169584 -5.22687e-05 -4.78837e-24)
(0.0169634 -6.95295e-05 -1.68133e-23)
(0.0169662 -8.6536e-05 1.7995e-23)
(0.0169667 -0.00010286 9.72733e-24)
(0.0169653 -0.000118094 -8.20013e-24)
(0.016962 -0.000131955 -1.4191e-23)
(0.0169578 -0.000144259 1.19033e-24)
(0.0186682 8.17261e-05 -1.41374e-26)
(0.0187039 5.74184e-05 -8.93112e-25)
(0.0187343 3.7737e-05 4.50821e-24)
(0.0187604 2.05037e-05 3.8759e-25)
(0.0187828 4.33874e-06 2.78479e-24)
(0.0188018 -1.12903e-05 -9.70464e-24)
(0.0188179 -2.68072e-05 8.44771e-24)
(0.0188309 -4.23637e-05 1.99191e-24)
(0.018841 -5.78807e-05 1.7644e-23)
(0.0188484 -7.31297e-05 -2.71934e-23)
(0.0188533 -8.78134e-05 -1.23648e-23)
(0.0188558 -0.000101655 -8.18262e-24)
(0.0188565 -0.00011442 1.54317e-23)
(0.0188554 -0.000125978 -4.41052e-25)
(0.0188535 -0.000136259 1.49422e-24)
(0.0205452 6.48397e-05 -2.10243e-26)
(0.0205841 4.10536e-05 8.72943e-25)
(0.0206179 2.18076e-05 -1.28448e-24)
(0.020647 4.8975e-06 -1.10425e-26)
(0.0206721 -1.06213e-05 1.91981e-24)
(0.0206935 -2.52737e-05 4.99743e-24)
(0.0207113 -3.95753e-05 -1.94093e-23)
(0.0207257 -5.35774e-05 1.57454e-24)
(0.0207371 -6.72011e-05 9.96525e-24)
(0.0207456 -8.02988e-05 -4.6314e-24)
(0.0207517 -9.26887e-05 1.26431e-23)
(0.0207556 -0.000104219 8.85461e-24)
(0.0207579 -0.000114772 -1.6088e-23)
(0.0207584 -0.000124305 1.09797e-23)
(0.0207583 -0.000132807 -9.1325e-24)
(0.0224784 4.70385e-05 -5.46556e-25)
(0.0225124 2.34446e-05 4.38082e-25)
(0.0225421 4.19008e-06 1.50256e-24)
(0.0225679 -1.22819e-05 -8.45267e-24)
(0.0225903 -2.69667e-05 7.50785e-24)
(0.0226093 -4.06956e-05 -5.73015e-24)
(0.0226251 -5.37081e-05 4.07717e-24)
(0.0226379 -6.61029e-05 -2.96601e-23)
(0.0226481 -7.7871e-05 4.28356e-23)
(0.0226557 -8.89552e-05 -2.53709e-23)
(0.0226614 -9.92771e-05 2.26956e-23)
(0.0226651 -0.00010878 1.89798e-23)
(0.0226676 -0.000117427 -3.31804e-23)
(0.0226686 -0.00012522 1.07907e-23)
(0.022669 -0.00013218 -4.5253e-25)
(0.024409 3.01453e-05 -1.83969e-26)
(0.0244367 6.65696e-06 1.53599e-25)
(0.0244605 -1.21342e-05 -2.10278e-25)
(0.0244811 -2.788e-05 -2.3385e-25)
(0.0244988 -4.18161e-05 3.05263e-24)
(0.0245136 -5.4478e-05 -5.31829e-24)
(0.0245258 -6.61539e-05 5.03781e-24)
(0.0245355 -7.69946e-05 -1.61552e-23)
(0.0245431 -8.70521e-05 3.69332e-23)
(0.0245487 -9.63438e-05 -4.74453e-23)
(0.0245528 -0.000104868 3.89478e-23)
(0.0245554 -0.000112634 -1.31705e-23)
(0.024557 -0.000119652 6.78542e-25)
(0.0245574 -0.000125954 2.99769e-24)
(0.0245574 -0.000131573 -5.77144e-24)
(0.0262406 1.38255e-05 -1.49071e-24)
(0.0262636 -8.73135e-06 2.9702e-24)
(0.0262829 -2.65234e-05 -1.33103e-24)
(0.0262988 -4.14064e-05 -1.00984e-24)
(0.0263122 -5.4259e-05 4.60827e-24)
(0.0263231 -6.56356e-05 -4.79814e-24)
(0.0263319 -7.58626e-05 -4.53284e-24)
(0.0263387 -8.5132e-05 -1.10864e-23)
(0.0263438 -9.35523e-05 5.56337e-24)
(0.0263474 -0.000101196 2.70515e-23)
(0.0263497 -0.000108106 -1.43157e-23)
(0.0263509 -0.000114327 8.53919e-24)
(0.0263514 -0.000119896 -3.52976e-24)
(0.0263509 -0.000124858 -1.03933e-23)
(0.0263501 -0.000129251 5.31576e-24)
(0.0278507 -2.47136e-06 4.8018e-25)
(0.0278701 -2.30963e-05 -8.54548e-25)
(0.0278857 -3.96487e-05 -5.59682e-25)
(0.0278982 -5.32001e-05 2.68301e-25)
(0.0279083 -6.46209e-05 -1.62883e-24)
(0.0279162 -7.44767e-05 7.17162e-24)
(0.0279223 -8.31109e-05 -5.94802e-24)
(0.0279268 -9.07527e-05 -3.98883e-24)
(0.0279299 -9.75486e-05 3.63121e-24)
(0.0279318 -0.000103601 -4.34766e-24)
(0.0279328 -0.000108978 1.01264e-23)
(0.0279328 -0.000113743 5.13386e-24)
(0.0279323 -0.000117943 -1.91656e-23)
(0.027931 -0.000121628 1.32271e-23)
(0.0279295 -0.000124832 -2.69193e-24)
(0.02908 -1.90584e-05 1.3992e-24)
(0.0290961 -3.72835e-05 2.41367e-24)
(0.0291085 -5.18039e-05 -5.35436e-24)
(0.029118 -6.35614e-05 -4.58226e-25)
(0.0291252 -7.32632e-05 1.49693e-24)
(0.0291305 -8.13994e-05 -2.29412e-24)
(0.0291343 -8.83174e-05 -3.91799e-24)
(0.0291368 -9.4266e-05 8.23466e-24)
(0.0291382 -9.94086e-05 9.39339e-24)
(0.0291386 -0.000103862 -2.28246e-23)
(0.0291383 -0.000107708 1.31811e-23)
(0.0291372 -0.000111016 -9.22074e-25)
(0.0291356 -0.000113837 -7.64696e-25)
(0.0291335 -0.000116218 1.02864e-24)
(0.0291311 -0.000118188 -4.73717e-25)
(0.0297163 -3.43453e-05 -3.63613e-24)
(0.0297278 -4.95838e-05 -7.66626e-24)
(0.029736 -6.16535e-05 4.32659e-24)
(0.0297418 -7.12866e-05 1.3679e-23)
(0.0297457 -7.90412e-05 -3.77064e-24)
(0.0297483 -8.53485e-05 -8.65044e-25)
(0.0297497 -9.05276e-05 3.39151e-25)
(0.02975 -9.48053e-05 -4.80085e-24)
(0.0297496 -9.83387e-05 1.25105e-23)
(0.0297484 -0.000101248 -5.46682e-24)
(0.0297467 -0.000103619 3.0285e-24)
(0.0297444 -0.00010552 -4.88209e-24)
(0.0297417 -0.000106995 -5.43878e-24)
(0.0297387 -0.000108087 8.09176e-24)
(0.0297353 -0.000108824 -3.51562e-24)
(0.0295382 -4.70611e-05 5.70787e-24)
(0.0295464 -5.90949e-05 -1.29254e-23)
(0.0295517 -6.85707e-05 2.27317e-24)
(0.0295551 -7.59587e-05 1.71156e-23)
(0.0295569 -8.17029e-05 -1.60845e-23)
(0.0295575 -8.61901e-05 5.07804e-24)
(0.0295572 -8.96953e-05 1.89159e-24)
(0.029556 -9.24034e-05 -3.96207e-24)
(0.0295542 -9.44488e-05 2.80958e-24)
(0.0295518 -9.59387e-05 -1.50164e-24)
(0.0295489 -9.69486e-05 -1.97992e-24)
(0.0295457 -9.75374e-05 2.97668e-24)
(0.029542 -9.7746e-05 -3.41272e-24)
(0.0295381 -9.76126e-05 2.1377e-24)
(0.0295338 -9.71605e-05 -9.61823e-25)
(0.0285487 -5.55817e-05 3.507e-24)
(0.028553 -6.4686e-05 -7.27175e-24)
(0.0285549 -7.17065e-05 -4.53499e-24)
(0.0285555 -7.7024e-05 2.13554e-23)
(0.0285548 -8.10014e-05 -1.87554e-23)
(0.0285532 -8.39204e-05 2.2673e-24)
(0.0285508 -8.59873e-05 2.83516e-24)
(0.0285479 -8.73594e-05 1.16364e-24)
(0.0285445 -8.81557e-05 2.17561e-25)
(0.0285406 -8.84655e-05 8.2744e-25)
(0.0285364 -8.83509e-05 -3.79774e-25)
(0.0285319 -8.7862e-05 8.9036e-25)
(0.0285271 -8.70344e-05 -6.00165e-24)
(0.0285221 -8.58988e-05 2.98004e-24)
(0.0285169 -8.44741e-05 1.1502e-24)
(0.0270129 -5.89173e-05 8.66092e-24)
(0.0270136 -6.56783e-05 -1.51486e-23)
(0.0270125 -7.07427e-05 3.1579e-24)
(0.0270103 -7.44374e-05 -6.28591e-24)
(0.0270072 -7.70504e-05 -7.11605e-24)
(0.0270034 -7.87733e-05 2.57403e-23)
(0.0269991 -7.97615e-05 -9.18258e-24)
(0.0269943 -8.01464e-05 2.15819e-24)
(0.0269892 -8.00268e-05 -1.00341e-24)
(0.0269839 -7.94757e-05 -7.70915e-25)
(0.0269782 -7.85469e-05 4.43673e-25)
(0.0269724 -7.72831e-05 1.32676e-24)
(0.0269664 -7.57127e-05 8.62512e-26)
(0.0269603 -7.38611e-05 -1.11783e-24)
(0.026954 -7.17469e-05 2.11565e-25)
(0.0251329 -5.85171e-05 3.32024e-24)
(0.0251297 -6.3287e-05 -1.66082e-23)
(0.0251253 -6.68124e-05 2.78706e-23)
(0.0251203 -6.92545e-05 -2.04499e-23)
(0.0251147 -7.08078e-05 1.87274e-23)
(0.0251086 -7.1618e-05 -6.67253e-24)
(0.0251022 -7.18019e-05 -4.19621e-24)
(0.0250955 -7.14579e-05 -3.683e-24)
(0.0250887 -7.06661e-05 4.6966e-24)
(0.0250817 -6.94881e-05 -1.5151e-24)
(0.0250746 -6.79708e-05 -2.76555e-24)
(0.0250675 -6.61503e-05 4.27085e-25)
(0.0250604 -6.40543e-05 -6.25107e-25)
(0.0250532 -6.17077e-05 3.78994e-25)
(0.025046 -5.9129e-05 -1.36411e-25)
(0.0230557 -5.45655e-05 4.4083e-25)
(0.0230491 -5.79352e-05 -6.20063e-24)
(0.0230416 -6.02673e-05 -3.01509e-24)
(0.0230338 -6.17083e-05 2.60225e-23)
(0.0230257 -6.24374e-05 -2.45974e-23)
(0.0230173 -6.25697e-05 6.93965e-24)
(0.0230089 -6.21913e-05 1.04913e-24)
(0.0230005 -6.13771e-05 -4.78943e-25)
(0.0229921 -6.01888e-05 -1.71011e-24)
(0.0229838 -5.86724e-05 6.14364e-24)
(0.0229756 -5.68612e-05 -4.37009e-24)
(0.0229675 -5.47831e-05 1.77795e-25)
(0.0229596 -5.24628e-05 2.91819e-26)
(0.0229518 -4.99221e-05 -6.87283e-25)
(0.0229441 -4.71771e-05 6.17624e-25)
(0.0208894 -4.82548e-05 6.55856e-25)
(0.0208796 -5.05429e-05 5.71864e-24)
(0.0208697 -5.18967e-05 -6.60446e-24)
(0.0208599 -5.26106e-05 -4.14841e-24)
(0.02085 -5.28281e-05 2.50279e-23)
(0.0208403 -5.26056e-05 -1.91522e-23)
(0.0208308 -5.19887e-05 -5.9752e-25)
(0.0208215 -5.1023e-05 -3.19938e-24)
(0.0208124 -4.97469e-05 -3.86544e-26)
(0.0208036 -4.81894e-05 5.33681e-25)
(0.0207951 -4.63735e-05 -4.49372e-25)
(0.0207869 -4.43215e-05 9.61551e-25)
(0.0207789 -4.20524e-05 4.31294e-25)
(0.0207713 -3.9586e-05 1.71365e-25)
(0.0207639 -3.69386e-05 -4.80842e-25)
(0.0187165 -4.01707e-05 4.67759e-24)
(0.0187052 -4.17976e-05 -7.08779e-24)
(0.0186942 -4.2799e-05 -5.20041e-24)
(0.0186836 -4.3323e-05 1.57485e-23)
(0.0186732 -4.34321e-05 -5.66215e-24)
(0.0186632 -4.31674e-05 -7.00729e-24)
(0.0186536 -4.25726e-05 2.54911e-24)
(0.0186444 -4.16884e-05 4.60229e-24)
(0.0186355 -4.05439e-05 -6.44129e-24)
(0.0186271 -3.91582e-05 5.57701e-24)
(0.0186191 -3.75459e-05 -2.36641e-24)
(0.0186115 -3.57213e-05 6.23967e-25)
(0.0186044 -3.36995e-05 1.9898e-25)
(0.0185976 -3.15e-05 -7.01491e-25)
(0.0185913 -2.91417e-05 3.96467e-25)
(0.0165989 -3.2279e-05 -9.09288e-25)
(0.0165877 -3.36903e-05 -3.00248e-24)
(0.0165769 -3.45902e-05 -9.10981e-24)
(0.0165666 -3.5089e-05 2.53501e-23)
(0.0165567 -3.52415e-05 -4.83322e-24)
(0.0165473 -3.50881e-05 -6.63934e-24)
(0.0165383 -3.46656e-05 1.92104e-24)
(0.0165298 -3.4005e-05 -2.85346e-24)
(0.0165218 -3.31228e-05 -4.89257e-24)
(0.0165143 -3.20296e-05 4.79525e-24)
(0.0165072 -3.07332e-05 2.23195e-25)
(0.0165007 -2.92426e-05 -4.21236e-25)
(0.0164946 -2.75705e-05 5.25697e-25)
(0.016489 -2.57361e-05 -9.46483e-26)
(0.0164839 -2.37596e-05 9.81285e-26)
(0.0145785 -2.55512e-05 3.50673e-24)
(0.0145682 -2.68367e-05 4.84169e-24)
(0.0145584 -2.77096e-05 -4.80571e-24)
(0.014549 -2.82705e-05 -9.47752e-24)
(0.01454 -2.85514e-05 1.21438e-23)
(0.0145315 -2.85788e-05 -1.26202e-23)
(0.0145234 -2.83814e-05 -1.74224e-26)
(0.0145159 -2.79825e-05 4.53735e-24)
(0.0145087 -2.73901e-05 1.40612e-24)
(0.0145021 -2.66113e-05 -2.12222e-24)
(0.0144959 -2.56505e-05 5.45255e-25)
(0.0144902 -2.45129e-05 2.64051e-24)
(0.0144851 -2.32068e-05 -9.32173e-25)
(0.0144804 -2.17505e-05 -9.77543e-27)
(0.0144763 -2.01634e-05 1.91648e-26)
(0.0126794 -2.00873e-05 -3.65143e-24)
(0.0126702 -2.12799e-05 4.66953e-24)
(0.0126614 -2.21587e-05 4.56513e-25)
(0.012653 -2.27955e-05 8.39308e-24)
(0.0126449 -2.31991e-05 -7.04613e-24)
(0.0126372 -2.33889e-05 3.17797e-25)
(0.0126298 -2.33897e-05 -8.52851e-25)
(0.0126228 -2.32178e-05 -1.87847e-24)
(0.0126163 -2.28779e-05 1.20505e-24)
(0.0126102 -2.23736e-05 -3.83358e-24)
(0.0126045 -2.1708e-05 6.08937e-25)
(0.0125992 -2.08846e-05 8.90081e-25)
(0.0125945 -1.99072e-05 3.67942e-25)
(0.0125902 -1.8791e-05 5.96461e-26)
(0.0125864 -1.75538e-05 -4.51999e-26)
(0.0109121 -1.57176e-05 2.71125e-24)
(0.0109039 -1.68091e-05 -2.16719e-24)
(0.010896 -1.76702e-05 -8.80289e-24)
(0.0108882 -1.83377e-05 8.24765e-24)
(0.0108806 -1.88091e-05 1.05185e-23)
(0.0108733 -1.91041e-05 -3.10503e-24)
(0.0108663 -1.9243e-05 -5.29965e-24)
(0.0108596 -1.92356e-05 -6.3729e-24)
(0.0108531 -1.9084e-05 4.59935e-24)
(0.0108471 -1.87908e-05 1.32406e-25)
(0.0108413 -1.83566e-05 -7.77029e-25)
(0.010836 -1.77841e-05 -7.46287e-26)
(0.0108311 -1.70748e-05 1.86311e-25)
(0.0108267 -1.62407e-05 -5.61882e-26)
(0.0108227 -1.52963e-05 4.57427e-26)
(0.00927854 -1.21745e-05 -1.71037e-24)
(0.00927108 -1.31346e-05 -1.12228e-24)
(0.0092637 -1.39313e-05 1.49075e-24)
(0.00925633 -1.4571e-05 -4.15623e-24)
(0.00924902 -1.50501e-05 1.34665e-23)
(0.00924182 -1.53886e-05 -1.69904e-23)
(0.00923479 -1.56016e-05 1.58126e-23)
(0.00922795 -1.56936e-05 -6.46035e-24)
(0.00922133 -1.56651e-05 1.19915e-24)
(0.00921496 -1.55176e-05 -1.72208e-25)
(0.00920889 -1.52506e-05 -8.94978e-25)
(0.00920314 -1.48651e-05 4.20223e-26)
(0.00919774 -1.43627e-05 -3.45033e-25)
(0.00919275 -1.37523e-05 1.34703e-26)
(0.00918817 -1.3045e-05 -1.93646e-26)
(0.00777589 -9.23183e-06 -8.32922e-25)
(0.00776896 -1.00357e-05 2.33626e-25)
(0.00776194 -1.07275e-05 4.55848e-25)
(0.00775478 -1.12923e-05 -1.92695e-24)
(0.00774757 -1.17309e-05 -7.37379e-25)
(0.00774036 -1.20616e-05 6.9902e-24)
(0.0077332 -1.22943e-05 -4.02699e-24)
(0.00772612 -1.24307e-05 4.90935e-25)
(0.00771918 -1.24702e-05 -4.93466e-25)
(0.00771241 -1.24137e-05 -4.19805e-25)
(0.00770585 -1.22598e-05 -3.19132e-26)
(0.00769956 -1.20089e-05 5.33748e-25)
(0.00769355 -1.16623e-05 -9.12241e-26)
(0.0076879 -1.12263e-05 -1.18361e-25)
(0.00768261 -1.07089e-05 2.98087e-26)
(0.00639869 -6.75759e-06 -3.03524e-25)
(0.00639223 -7.39583e-06 -8.77962e-26)
(0.00638554 -7.95777e-06 -4.5659e-24)
(0.00637862 -8.41879e-06 1.36014e-24)
(0.00637153 -8.78531e-06 -2.86455e-24)
(0.00636436 -9.07267e-06 2.35304e-24)
(0.00635714 -9.28686e-06 3.84089e-24)
(0.00634993 -9.42811e-06 2.51503e-24)
(0.00634277 -9.49561e-06 -3.33227e-24)
(0.00633571 -9.48948e-06 9.93927e-25)
(0.00632879 -9.40841e-06 6.27089e-25)
(0.00632208 -9.25202e-06 -6.48898e-25)
(0.0063156 -9.0212e-06 3.28869e-25)
(0.00630942 -8.72008e-06 7.01211e-26)
(0.00630357 -8.35436e-06 -5.26971e-26)
(0.00514025 -4.69624e-06 -1.19114e-24)
(0.00513434 -5.17345e-06 -1.546e-24)
(0.00512809 -5.59642e-06 -1.83624e-25)
(0.00512155 -5.94268e-06 3.77397e-24)
(0.00511479 -6.22266e-06 -2.51123e-24)
(0.00510787 -6.44787e-06 -3.6766e-25)
(0.00510084 -6.62176e-06 3.68658e-24)
(0.00509375 -6.74399e-06 -1.07919e-25)
(0.00508664 -6.81371e-06 -7.42502e-25)
(0.00507958 -6.83069e-06 -2.01244e-24)
(0.00507261 -6.79371e-06 4.18133e-25)
(0.00506579 -6.70205e-06 1.01061e-24)
(0.00505915 -6.55613e-06 -1.16922e-25)
(0.00505277 -6.35828e-06 3.21031e-26)
(0.00504667 -6.11214e-06 -4.44197e-26)
(0.00399328 -3.03095e-06 -2.60839e-25)
(0.00398808 -3.36278e-06 2.28918e-26)
(0.00398249 -3.65286e-06 1.83829e-24)
(0.00397657 -3.88889e-06 1.11817e-24)
(0.00397041 -4.08227e-06 -8.95968e-25)
(0.00396405 -4.24073e-06 -1.91966e-24)
(0.00395754 -4.36613e-06 6.97908e-25)
(0.00395093 -4.45799e-06 -2.74823e-24)
(0.00394427 -4.51556e-06 2.08291e-24)
(0.00393761 -4.53848e-06 8.44876e-25)
(0.00393099 -4.52569e-06 -1.56583e-25)
(0.00392447 -4.47638e-06 -7.20004e-25)
(0.0039181 -4.39065e-06 7.10352e-26)
(0.00391193 -4.26947e-06 9.16814e-27)
(0.00390599 -4.1148e-06 -2.22538e-26)
(0.00295032 -1.75352e-06 -4.81203e-25)
(0.002946 -1.96625e-06 2.39556e-26)
(0.0029413 -2.14393e-06 1.48683e-24)
(0.00293629 -2.2869e-06 -9.23937e-25)
(0.00293103 -2.40485e-06 3.48257e-24)
(0.00292557 -2.50246e-06 -6.21492e-24)
(0.00291996 -2.58073e-06 4.77696e-24)
(0.00291423 -2.63935e-06 -3.72811e-24)
(0.00290843 -2.67782e-06 2.46773e-24)
(0.00290259 -2.69583e-06 -1.41153e-24)
(0.00289677 -2.69269e-06 4.57934e-25)
(0.00289101 -2.66773e-06 5.30641e-26)
(0.00288535 -2.62089e-06 2.25051e-26)
(0.00287984 -2.5524e-06 -1.22334e-26)
(0.00287452 -2.46301e-06 -9.06033e-27)
(0.00200388 -8.46835e-07 7.31607e-25)
(0.00200062 -9.69549e-07 7.45825e-25)
(0.00199703 -1.06385e-06 -3.22199e-24)
(0.00199318 -1.13825e-06 2.29904e-24)
(0.00198912 -1.19881e-06 -4.4955e-26)
(0.00198489 -1.24801e-06 4.97077e-25)
(0.00198052 -1.28663e-06 -6.62212e-25)
(0.00197604 -1.31484e-06 -1.19039e-24)
(0.00197148 -1.33266e-06 1.12469e-24)
(0.00196689 -1.34019e-06 5.84138e-26)
(0.00196228 -1.3373e-06 -6.57254e-25)
(0.00195771 -1.32377e-06 2.41901e-25)
(0.0019532 -1.29969e-06 7.54538e-26)
(0.0019488 -1.26503e-06 -1.3775e-26)
(0.00194453 -1.21901e-06 6.05698e-27)
(0.00114664 -2.75914e-07 -7.39712e-25)
(0.00114456 -3.09859e-07 2.21765e-24)
(0.00114226 -3.35496e-07 1.21839e-24)
(0.00113979 -3.57531e-07 -2.29631e-24)
(0.00113717 -3.76297e-07 -2.63767e-25)
(0.00113444 -3.91906e-07 -2.15644e-25)
(0.0011316 -4.04579e-07 6.01741e-25)
(0.00112869 -4.14543e-07 -9.72952e-25)
(0.00112573 -4.22031e-07 1.19173e-24)
(0.00112272 -4.27301e-07 -5.86673e-25)
(0.00111971 -4.30511e-07 -2.90205e-25)
(0.0011167 -4.31703e-07 1.4746e-25)
(0.00111373 -4.31044e-07 -6.28903e-26)
(0.00111081 -4.28254e-07 2.80674e-26)
(0.00110798 -4.19382e-07 1.3143e-26)
(0.000371535 5.78833e-09 -5.31324e-27)
(0.000370721 8.91057e-08 4.2967e-25)
(0.00036983 1.46659e-07 4.61937e-25)
(0.000368883 1.81691e-07 -7.51182e-25)
(0.000367888 1.98841e-07 1.42204e-24)
(0.000366853 2.01687e-07 -1.54901e-24)
(0.000365784 1.93083e-07 9.02216e-26)
(0.000364687 1.75418e-07 6.98911e-25)
(0.000363569 1.50735e-07 -9.59531e-25)
(0.000362438 1.20789e-07 -1.19028e-25)
(0.0003613 8.70972e-08 4.85406e-25)
(0.000360165 5.09938e-08 -1.95487e-25)
(0.00035904 1.35692e-08 -2.49895e-26)
(0.000357936 -2.40101e-08 1.39569e-26)
(0.000356859 -5.82655e-08 1.09828e-27)
(0.000958111 -0.000246741 7.6599e-26)
(0.00109909 -0.000161214 1.90815e-24)
(0.0013366 -7.58167e-05 -5.41066e-24)
(0.00157967 -9.01368e-06 7.7205e-24)
(0.00181325 4.06944e-05 -2.89253e-24)
(0.00204212 7.42596e-05 -2.68941e-24)
(0.00226585 9.44521e-05 3.01538e-24)
(0.00248466 0.000103623 -5.85258e-24)
(0.00269905 0.000103799 4.29573e-25)
(0.0029095 9.68076e-05 3.61063e-24)
(0.00311649 8.42656e-05 -6.68669e-25)
(0.00332052 6.76118e-05 7.02592e-25)
(0.00352212 4.82366e-05 -7.87446e-26)
(0.0037218 2.75733e-05 3.78012e-25)
(0.0039203 7.25351e-06 -1.37116e-24)
(0.00411851 -1.07004e-05 7.29186e-25)
(0.00431821 -2.39009e-05 -1.79315e-25)
(0.00452167 -2.92859e-05 3.51559e-26)
(0.00473335 -2.40061e-05 3.24779e-25)
(0.00495859 -5.15832e-06 -1.91939e-25)
(0.0052052 2.73757e-05 2.16004e-26)
(0.00547961 7.02324e-05 -1.95351e-26)
(0.0057621 0.000110043 4.8099e-26)
(0.00601557 0.000132169 2.24501e-25)
(0.00622603 0.00013258 -4.00003e-25)
(0.00639323 0.000112704 -3.26932e-25)
(0.00651875 7.48373e-05 -1.64462e-26)
(0.00660489 2.05779e-05 8.45967e-25)
(0.00665314 -4.8495e-05 1.21186e-24)
(0.00666381 -0.000130229 -2.3531e-24)
(0.00663625 -0.000221258 1.8142e-24)
(0.00656946 -0.00031665 -1.44048e-24)
(0.00646259 -0.000409927 2.57702e-25)
(0.00631541 -0.000493314 -8.4845e-25)
(0.00612848 -0.000558063 8.06969e-25)
(0.00590307 -0.000594656 6.26025e-24)
(0.00564107 -0.000592714 -1.56453e-24)
(0.00534479 -0.00054035 1.83264e-24)
(0.0050171 -0.000422699 1.07371e-24)
(0.00466215 -0.000219966 -9.95886e-24)
(0.00428476 9.19161e-05 -1.23678e-25)
(0.00389209 0.000530244 4.3494e-24)
(0.0034761 0.00107078 1.43575e-24)
(0.00305774 0.00159813 -6.15194e-24)
(0.00282401 0.00174999 -3.07469e-25)
(0.0018085 -0.00033182 -2.22057e-24)
(0.0018679 -0.000283489 -3.02826e-24)
(0.00201547 -0.00020134 6.40428e-24)
(0.0022006 -0.000127085 2.8614e-24)
(0.00239721 -6.64492e-05 -9.98345e-24)
(0.00260007 -2.15965e-05 1.04989e-23)
(0.00280445 9.07246e-06 -3.74253e-24)
(0.00300803 2.76897e-05 2.87466e-24)
(0.00320982 3.62738e-05 -3.80438e-24)
(0.00340944 3.67455e-05 5.08064e-26)
(0.00360676 3.08198e-05 -1.89987e-24)
(0.00380189 2.00364e-05 3.73082e-24)
(0.00399506 5.8758e-06 -2.00515e-24)
(0.00418653 -1.01573e-05 -1.62278e-24)
(0.00437686 -2.63813e-05 -8.75608e-25)
(0.00456668 -4.07692e-05 1.98881e-24)
(0.00475755 -5.09503e-05 -1.30575e-25)
(0.00495142 -5.39395e-05 7.5848e-25)
(0.0051524 -4.69689e-05 5.90759e-26)
(0.00536536 -2.71941e-05 -1.81439e-25)
(0.0055978 5.56883e-06 -6.47938e-26)
(0.00585605 4.82921e-05 -4.5431e-26)
(0.00612262 8.82646e-05 2.53063e-25)
(0.00636328 0.000111511 4.02472e-25)
(0.00656476 0.000114056 -2.89086e-25)
(0.00672643 9.7169e-05 -1.879e-24)
(0.0068493 6.30897e-05 2.63086e-24)
(0.00693506 1.348e-05 -1.91587e-24)
(0.00698479 -4.99016e-05 6.5491e-25)
(0.00699858 -0.000124685 -3.77025e-25)
(0.00697578 -0.000207327 2.57964e-24)
(0.00691554 -0.000292809 -2.8396e-24)
(0.00681736 -0.000374668 4.53458e-25)
(0.00668146 -0.000445222 4.18256e-24)
(0.006509 -0.000495868 -7.79407e-24)
(0.00630217 -0.00051725 2.15639e-24)
(0.00606413 -0.000499181 1.1354e-23)
(0.00579914 -0.000430115 -2.97625e-24)
(0.00551316 -0.000295957 -9.41097e-24)
(0.00521543 -7.83507e-05 -5.85214e-24)
(0.00492021 0.000244862 1.33602e-23)
(0.00465183 0.000690798 -1.2991e-23)
(0.00443691 0.00123448 -2.89263e-24)
(0.0043189 0.0017495 8.56262e-24)
(0.00434389 0.00183854 2.70019e-24)
(0.00281336 -0.000341092 -2.50415e-26)
(0.00282324 -0.000335584 -3.48673e-24)
(0.00288696 -0.000287163 6.73313e-24)
(0.00300408 -0.00022371 5.47887e-24)
(0.0031488 -0.000163421 -9.0122e-24)
(0.00331169 -0.000113554 1.93556e-25)
(0.00348491 -7.57775e-05 8.39247e-25)
(0.00366348 -4.94935e-05 8.85944e-24)
(0.00384458 -3.34004e-05 -1.04585e-23)
(0.00402654 -2.58697e-05 6.26833e-24)
(0.00420836 -2.52974e-05 1.74223e-24)
(0.00438951 -3.01701e-05 -9.95342e-24)
(0.00456976 -3.89849e-05 3.57319e-24)
(0.00474899 -5.02067e-05 1.31532e-24)
(0.00492746 -6.21419e-05 -2.48263e-24)
(0.0051055 -7.27685e-05 3.74431e-24)
(0.00528437 -7.97503e-05 -2.4183e-24)
(0.00546563 -8.01871e-05 5.05087e-26)
(0.00565299 -7.14032e-05 1.95679e-25)
(0.00585081 -5.06193e-05 1.45262e-25)
(0.00606616 -1.75893e-05 1.42831e-26)
(0.00630523 2.49855e-05 6.73588e-26)
(0.00655292 6.50603e-05 -2.62879e-25)
(0.00677816 8.93554e-05 8.47473e-25)
(0.00696844 9.39736e-05 -1.50273e-24)
(0.0071228 8.00383e-05 8.95388e-25)
(0.0072416 4.97485e-05 -2.37986e-24)
(0.00732591 4.82836e-06 3.20853e-24)
(0.00737636 -5.27794e-05 -3.00543e-24)
(0.0073928 -0.000120488 2.77023e-25)
(0.00737459 -0.000194586 4.19665e-25)
(0.00732107 -0.000269982 3.31943e-24)
(0.00723206 -0.000340249 -9.26845e-25)
(0.00710828 -0.000397857 2.16938e-24)
(0.00695158 -0.000434453 -7.00683e-24)
(0.00676507 -0.000441044 1.32487e-23)
(0.00655326 -0.000407995 -9.37251e-24)
(0.00632238 -0.000324731 1.47932e-23)
(0.0060813 -0.000179083 -2.8602e-23)
(0.00584354 4.3528e-05 1.0977e-23)
(0.00562993 0.000358725 3.88883e-24)
(0.00547322 0.000774618 6.16129e-24)
(0.00541042 0.00125854 -7.65683e-24)
(0.00546784 0.0016854 2.12012e-24)
(0.00561894 0.00174292 -1.2718e-24)
(0.00395226 -0.000324838 -9.29457e-25)
(0.00393495 -0.000345869 -1.39003e-24)
(0.00394692 -0.000327986 -5.86976e-24)
(0.00399867 -0.000288433 1.7062e-24)
(0.00408687 -0.000239349 1.12633e-24)
(0.00420083 -0.000192666 4.52854e-24)
(0.0043329 -0.000153299 -9.22679e-24)
(0.00447692 -0.000122898 3.5858e-24)
(0.00462867 -0.000101528 1.14377e-23)
(0.00478528 -8.83109e-05 -3.08928e-24)
(0.00494476 -8.20532e-05 -2.78802e-24)
(0.00510582 -8.14739e-05 -4.26821e-25)
(0.00526764 -8.51654e-05 1.31304e-24)
(0.00542964 -9.16482e-05 -2.46977e-24)
(0.00559167 -9.92695e-05 6.09444e-25)
(0.00575369 -0.000106051 -1.06359e-25)
(0.00591661 -0.000109726 -7.66509e-25)
(0.00608154 -0.0001075 4.57804e-25)
(0.00625172 -9.68114e-05 1.1716e-24)
(0.00643095 -7.49646e-05 -1.53821e-25)
(0.00662581 -4.16629e-05 -2.14602e-25)
(0.00684222 6.9975e-07 -6.61989e-26)
(0.00706763 4.07622e-05 -4.62569e-25)
(0.00727442 6.59871e-05 -1.17085e-25)
(0.00745092 7.25778e-05 -1.46768e-24)
(0.00759578 6.15274e-05 2.37434e-24)
(0.00770873 3.50118e-05 -2.35512e-24)
(0.00779017 -5.17997e-06 4.57545e-24)
(0.00784026 -5.69289e-05 -4.00039e-24)
(0.00785863 -0.000117444 9.61053e-25)
(0.00784461 -0.000182871 1.55157e-24)
(0.00779774 -0.000248085 -1.33022e-25)
(0.0077182 -0.000306762 -2.40846e-25)
(0.00760722 -0.000351629 -8.1602e-25)
(0.00746734 -0.000374749 9.42744e-25)
(0.00730258 -0.000367761 -4.1556e-24)
(0.00711867 -0.000322002 2.00855e-23)
(0.00692353 -0.000228519 -1.06045e-23)
(0.00672813 -7.80503e-05 -2.75761e-25)