/*--------------------------------*- C++ -*----------------------------------*\
| =========                 |                                                 |
| \\      /  F ield         | OpenFOAM: The Open Source CFD Toolbox           |
|  \\    /   O peration     | Version:  2312                                  |
|   \\  /    A nd           | Website:  www.openfoam.com                      |
|    \\/     M anipulation  |                                                 |
\*---------------------------------------------------------------------------*/
FoamFile
{
    version     2.0;
    format      ascii;
    arch        "LSB;label=32;scalar=64";
    class       volVectorField;
    location    "136.5";
    object      U;
}
// * * * * * * * * * * * * * * * * * * * * * * * * * * * * * * * * * * * * * //

dimensions      [0 1 -1 0 0 0 0];

internalField   nonuniform List<vector> 
4800
(
(0.000477692 4.23493e-07 -3.30268e-26)
(0.000466603 4.76539e-07 -2.30385e-25)
(0.0004591 5.00065e-07 2.96213e-25)
(0.000454101 4.97502e-07 1.33109e-25)
(0.000450942 4.69874e-07 1.9453e-24)
(0.000449214 4.19436e-07 -4.62123e-24)
(0.000448669 3.58701e-07 4.28186e-24)
(0.00044928 2.71487e-07 -6.14303e-24)
(0.000450911 1.39299e-07 1.98693e-24)
(0.000453735 -1.18427e-07 6.65355e-24)
(0.00045814 -6.33205e-07 -2.05421e-24)
(0.00046544 -2.02916e-06 -1.81158e-25)
(0.000482714 -7.14835e-06 -2.46721e-24)
(0.000527636 -2.77889e-05 1.13118e-24)
(0.000602445 -9.0761e-05 -8.95846e-25)
(0.001474 2.25009e-06 -1.04857e-25)
(0.00144036 1.7928e-06 1.30653e-25)
(0.0014175 1.42877e-06 -1.18808e-24)
(0.00140214 1.10115e-06 8.9244e-25)
(0.00139226 7.72828e-07 2.80439e-24)
(0.00138662 4.13847e-07 -4.45423e-24)
(0.00138443 1.18195e-09 -1.22988e-24)
(0.00138553 -5.43515e-07 -2.63134e-25)
(0.00138943 -1.2981e-06 1.01242e-23)
(0.00139678 -2.57789e-06 -7.4733e-24)
(0.00140862 -5.01721e-06 8.14179e-25)
(0.00142772 -1.08092e-05 1.22487e-24)
(0.00146271 -2.75023e-05 -1.79521e-24)
(0.0015242 -7.82482e-05 -5.25783e-25)
(0.00159087 -0.000192675 2.32798e-24)
(0.00257264 7.22172e-06 -7.49098e-26)
(0.00251502 5.71063e-06 7.65922e-26)
(0.00247571 4.53511e-06 7.77262e-25)
(0.00244913 3.50796e-06 -1.8444e-24)
(0.00243181 2.51451e-06 1.79612e-24)
(0.00242158 1.45225e-06 1.66311e-24)
(0.00241704 1.64659e-07 -4.26547e-24)
(0.00241784 -1.46634e-06 -2.56852e-24)
(0.00242296 -3.70846e-06 6.25129e-24)
(0.00243336 -7.31462e-06 2.34064e-24)
(0.00245008 -1.37211e-05 -8.16056e-24)
(0.00247519 -2.68241e-05 -1.20286e-24)
(0.00251276 -5.60919e-05 3.46775e-24)
(0.00256142 -0.000120387 5.4239e-24)
(0.00259651 -0.000227362 -2.7965e-24)
(0.00378022 1.6137e-05 2.76418e-26)
(0.00369758 1.28288e-05 -1.9201e-25)
(0.00364095 1.026e-05 8.50422e-25)
(0.00360235 8.02991e-06 8.93351e-25)
(0.00357683 5.89659e-06 -9.03771e-25)
(0.00356126 3.65159e-06 -5.09643e-24)
(0.00355349 1.00582e-06 -3.40813e-24)
(0.0035529 -2.39917e-06 1.27377e-23)
(0.00355785 -6.75191e-06 5.15544e-24)
(0.00356912 -1.36019e-05 -7.55858e-24)
(0.00358711 -2.48386e-05 -3.03265e-24)
(0.00361196 -4.48577e-05 -2.28964e-24)
(0.00364297 -8.16092e-05 7.53287e-26)
(0.00367291 -0.000144875 1.68265e-24)
(0.00368376 -0.000229704 8.20095e-27)
(0.00510163 2.98738e-05 -5.06583e-26)
(0.00499373 2.38457e-05 -3.09116e-25)
(0.00491931 1.91667e-05 -1.90644e-25)
(0.00486813 1.51312e-05 5.26386e-25)
(0.00483376 1.1316e-05 -1.46333e-24)
(0.00481206 7.37715e-06 3.64335e-24)
(0.00480016 2.84222e-06 -6.4854e-25)
(0.00479674 -2.75214e-06 2.18677e-24)
(0.00480004 -9.82116e-06 -1.21178e-23)
(0.00480982 -2.01984e-05 2.30073e-23)
(0.00482551 -3.58652e-05 -2.2233e-23)
(0.00484552 -6.03576e-05 1.1668e-23)
(0.00486648 -9.8518e-05 -1.07776e-23)
(0.00488069 -0.000153334 1.01456e-23)
(0.00487785 -0.00021728 -4.04192e-24)
(0.00653835 4.94697e-05 6.69027e-26)
(0.00640644 3.96785e-05 2.39048e-25)
(0.00631465 3.20675e-05 -1.25505e-24)
(0.00625083 2.55423e-05 -7.7687e-25)
(0.00620724 1.94485e-05 2.10821e-24)
(0.00617879 1.32828e-05 7.43851e-25)
(0.0061619 6.39335e-06 -5.78363e-24)
(0.00615441 -1.73981e-06 1.37332e-23)
(0.00615436 -1.18617e-05 -1.77539e-23)
(0.00616054 -2.55838e-05 4.27243e-24)
(0.00617126 -4.45397e-05 1.28021e-23)
(0.00618403 -7.09004e-05 -1.77034e-23)
(0.00619493 -0.000106565 8.85654e-24)
(0.00619818 -0.000151002 9.04458e-24)
(0.00618903 -0.000198044 -6.88382e-24)
(0.00808619 7.58057e-05 5.54095e-26)
(0.00793401 6.12048e-05 -3.27182e-25)
(0.0078268 4.97992e-05 1.16448e-24)
(0.00775127 4.00592e-05 -1.60693e-24)
(0.00769874 3.10653e-05 -5.37843e-24)
(0.00766331 2.21434e-05 9.16255e-24)
(0.00764084 1.25049e-05 -5.50612e-24)
(0.00762841 1.51184e-06 1.85748e-23)
(0.00762363 -1.1567e-05 -1.26444e-23)
(0.00762456 -2.80617e-05 -5.85685e-24)
(0.00762887 -4.90264e-05 -1.14176e-23)
(0.00763381 -7.52848e-05 1.05099e-23)
(0.00763611 -0.000106843 2.94513e-24)
(0.00763219 -0.000141949 2.51413e-24)
(0.00762043 -0.000176491 -2.21228e-24)
(0.00973261 0.000109142 -8.02731e-26)
(0.00956758 8.89182e-05 1.08497e-24)
(0.0094493 7.2958e-05 -2.51345e-24)
(0.0093646 5.93322e-05 -2.01918e-24)
(0.00930449 4.68642e-05 7.90237e-25)
(0.0092627 3.47186e-05 1.50405e-24)
(0.00923467 2.2032e-05 5.26832e-24)
(0.00921696 8.1041e-06 -1.42207e-23)
(0.00920678 -7.70035e-06 -7.46032e-24)
(0.00920174 -2.62653e-05 2.07454e-23)
(0.00919933 -4.80656e-05 -6.36452e-24)
(0.00919703 -7.30257e-05 2.17664e-23)
(0.00919254 -0.000100313 -1.14477e-23)
(0.00918385 -0.000128176 -3.64406e-24)
(0.00917086 -0.000154143 2.15783e-24)
(0.011455 0.000148477 -1.07409e-26)
(0.011289 0.000122436 6.02054e-25)
(0.0111671 0.000101514 -8.55497e-25)
(0.011078 8.35569e-05 2.01888e-24)
(0.0110134 6.72114e-05 -1.19453e-23)
(0.0109671 5.15308e-05 1.2584e-23)
(0.0109346 3.56446e-05 -1.95632e-23)
(0.0109121 1.88792e-05 1.20751e-23)
(0.0108968 7.34448e-07 8.88987e-24)
(0.0108861 -1.92194e-05 1.911e-23)
(0.0108777 -4.10287e-05 -2.49386e-23)
(0.0108695 -6.41971e-05 -4.5836e-24)
(0.0108601 -8.77571e-05 2.12522e-24)
(0.0108482 -0.000110408 1.51326e-23)
(0.0108344 -0.000130766 -6.15622e-24)
(0.0132232 0.000190877 6.03246e-26)
(0.0130715 0.000159884 -2.56531e-25)
(0.0129564 0.000134272 1.12713e-24)
(0.01287 0.000112003 -3.91724e-24)
(0.0128058 9.17229e-05 5.90087e-24)
(0.0127584 7.24792e-05 -7.54745e-24)
(0.0127237 5.34723e-05 1.2547e-23)
(0.0126983 3.41311e-05 2.1326e-24)
(0.0126793 1.41225e-05 -1.71205e-23)
(0.0126643 -6.68326e-06 2.42355e-23)
(0.0126515 -2.80426e-05 -2.66886e-23)
(0.0126392 -4.94234e-05 -7.82278e-24)
(0.0126265 -7.00497e-05 1.38126e-23)
(0.0126128 -8.91129e-05 4.09662e-24)
(0.0125986 -0.000105897 -1.79009e-24)
(0.0150092 0.000231482 2.54248e-25)
(0.014886 0.000197579 -2.02209e-24)
(0.0147886 0.000168443 -3.13916e-24)
(0.0147132 0.000142553 7.49636e-24)
(0.0146555 0.000118799 3.27898e-24)
(0.0146116 9.63765e-05 -2.058e-23)
(0.0145783 7.46455e-05 6.39472e-24)
(0.0145527 5.31889e-05 4.56599e-24)
(0.0145323 3.18422e-05 -1.93532e-23)
(0.0145154 1.06396e-05 2.02267e-23)
(0.0145004 -1.01088e-05 -1.60604e-23)
(0.0144862 -2.99864e-05 4.13012e-23)
(0.0144723 -4.84824e-05 -1.98424e-23)
(0.014458 -6.51764e-05 1.16819e-23)
(0.0144442 -7.97477e-05 -3.18959e-24)
(0.0168049 0.000265348 -1.11739e-25)
(0.0167161 0.000230998 1.40068e-24)
(0.0166429 0.000200091 -2.67116e-24)
(0.0165843 0.000171847 -1.30887e-24)
(0.0165382 0.000145593 1.47036e-23)
(0.0165021 0.000120802 -2.21541e-24)
(0.0164737 9.70711e-05 -2.58188e-23)
(0.0164509 7.41647e-05 2.99524e-23)
(0.0164321 5.20433e-05 -6.74973e-24)
(0.0164158 3.08232e-05 -2.31191e-23)
(0.016401 1.07163e-05 2.46173e-23)
(0.016387 -7.98847e-06 1.32552e-23)
(0.0163736 -2.50248e-05 -1.114e-23)
(0.0163602 -4.02264e-05 -1.93218e-23)
(0.0163476 -5.34955e-05 1.62312e-24)
(0.0186304 0.000290953 1.46177e-26)
(0.01857 0.000257573 -1.59593e-24)
(0.0185189 0.000226276 7.33637e-24)
(0.0184772 0.000196904 3.56841e-25)
(0.0184437 0.000169228 3.97077e-24)
(0.0184167 0.000143031 -1.44831e-23)
(0.0183949 0.000118151 1.22227e-23)
(0.0183768 9.45157e-05 2.71624e-24)
(0.0183613 7.21574e-05 2.48824e-23)
(0.0183475 5.11802e-05 -3.85324e-23)
(0.0183348 3.17238e-05 -1.73955e-23)
(0.0183226 1.39184e-05 -1.14966e-23)
(0.0183111 -2.13888e-06 2.16421e-23)
(0.0182996 -1.64404e-05 -6.26754e-25)
(0.018289 -2.90084e-05 2.10263e-24)
(0.0205132 0.000311346 -1.15752e-26)
(0.0204694 0.000278877 1.68263e-24)
(0.0204326 0.000247536 -2.4385e-24)
(0.0204025 0.00021758 1.31482e-26)
(0.0203781 0.000189108 2.9803e-24)
(0.0203582 0.000162148 7.48665e-24)
(0.0203418 0.000136712 -2.90157e-23)
(0.0203279 0.000112826 2.51253e-24)
(0.0203157 9.05425e-05 1.46721e-23)
(0.0203045 6.99175e-05 -6.71762e-24)
(0.0202942 5.10041e-05 1.83598e-23)
(0.0202843 3.38124e-05 1.28612e-23)
(0.020275 1.83344e-05 -2.33338e-23)
(0.0202657 4.49195e-06 1.60037e-23)
(0.0202572 -7.80032e-06 -1.33054e-23)
(0.0224455 0.000329859 -4.54466e-25)
(0.0224117 0.000298101 -1.38349e-26)
(0.0223831 0.000266706 2.95457e-24)
(0.0223597 0.000236305 -1.43639e-23)
(0.0223407 0.000207265 1.25862e-23)
(0.0223249 0.000179796 -8.92699e-24)
(0.0223117 0.000154021 6.43792e-24)
(0.0223003 0.000130007 -4.49927e-23)
(0.0222903 0.000107791 6.49502e-23)
(0.022281 8.73703e-05 -3.81633e-23)
(0.0222724 6.87218e-05 3.40812e-23)
(0.0222642 5.17816e-05 2.85346e-23)
(0.0222565 3.64679e-05 -4.98691e-23)
(0.0222489 2.26655e-05 1.62454e-23)
(0.0222421 1.02595e-05 -6.83783e-25)
(0.024367 0.00034631 -1.7412e-26)
(0.0243428 0.000315734 -7.00148e-25)
(0.0243217 0.000284726 6.97221e-25)
(0.024304 0.000254292 -3.97592e-25)
(0.0242893 0.000225044 5.18542e-24)
(0.0242768 0.000197346 -8.82711e-24)
(0.0242661 0.000171399 8.10345e-24)
(0.0242567 0.000147293 -2.54344e-23)
(0.0242483 0.000125044 5.77434e-23)
(0.0242405 0.000104609 -7.38128e-23)
(0.0242333 8.59177e-05 6.04522e-23)
(0.0242264 6.88641e-05 -2.04183e-23)
(0.02422 5.33367e-05 1.06943e-24)
(0.0242136 3.92021e-05 4.71854e-24)
(0.024208 2.63336e-05 -9.02982e-24)
(0.0261833 0.000358693 -1.49204e-24)
(0.0261691 0.00032992 2.15263e-24)
(0.026156 0.000299988 -9.56089e-26)
(0.0261446 0.000270171 -2.33738e-24)
(0.0261347 0.000241276 8.63979e-24)
(0.0261261 0.00021378 -8.6181e-24)
(0.0261185 0.000187948 -7.44518e-24)
(0.0261116 0.000163888 -1.78101e-23)
(0.0261053 0.000141612 9.22899e-24)
(0.0260994 0.000121062 4.3305e-23)
(0.0260939 0.000102147 -2.28449e-23)
(0.0260885 8.47473e-05 1.36297e-23)
(0.0260835 6.87456e-05 -5.59784e-24)
(0.0260786 5.40121e-05 -1.66771e-23)
(0.0260742 4.04264e-05 8.54455e-24)
(0.027777 0.000365574 4.9878e-25)
(0.0277718 0.000339117 -8.18599e-25)
(0.0277662 0.00031088 4.77363e-25)
(0.0277608 0.0002823 -2.98265e-24)
(0.0277558 0.000254307 -2.07305e-24)
(0.0277512 0.000227456 1.37953e-23)
(0.027747 0.000202052 -1.07091e-23)
(0.0277431 0.000178229 -6.55738e-24)
(0.0277393 0.000156007 6.0762e-24)
(0.0277356 0.000135336 -6.99488e-24)
(0.0277321 0.000116129 1.63327e-23)
(0.0277286 9.82728e-05 8.2608e-24)
(0.0277253 8.16564e-05 -3.08608e-23)
(0.027722 6.61603e-05 2.13366e-23)
(0.027719 5.16767e-05 -4.35619e-24)
(0.0289903 0.000366446 1.48791e-24)
(0.0289931 0.000342652 2.26153e-24)
(0.0289943 0.000316569 -5.14457e-24)
(0.0289946 0.000289727 4.94441e-25)
(0.0289945 0.000263112 1.15172e-26)
(0.0289941 0.000237316 -4.53844e-24)
(0.0289934 0.000212671 -6.05356e-24)
(0.0289926 0.000189329 1.42807e-23)
(0.0289916 0.00016733 1.48726e-23)
(0.0289904 0.000146642 -3.59971e-23)
(0.0289891 0.0001272 2.06047e-23)
(0.0289876 0.000108916 -1.43194e-24)
(0.0289861 9.16959e-05 -1.18602e-24)
(0.0289845 7.54421e-05 1.59867e-24)
(0.028983 6.00621e-05 -7.37461e-25)
(0.0296041 0.000357623 -3.92046e-24)
(0.0296148 0.000336511 -8.28639e-24)
(0.029623 0.000312878 4.6991e-24)
(0.0296296 0.000288193 1.468e-23)
(0.0296349 0.000263405 -4.0358e-24)
(0.0296393 0.000239089 -7.54374e-25)
(0.029643 0.000215576 2.22855e-25)
(0.0296461 0.000193026 -6.51344e-24)
(0.0296486 0.000171503 1.67029e-23)
(0.0296507 0.000151001 -7.23372e-24)
(0.0296523 0.000131487 4.00434e-24)
(0.0296536 0.000112903 -6.42655e-24)
(0.0296546 9.51905e-05 -7.27501e-24)
(0.0296553 7.82807e-05 1.08886e-23)
(0.0296558 6.21189e-05 -4.75788e-24)
(0.0294104 0.00034319 6.24469e-24)
(0.029426 0.000324537 -1.44535e-23)
(0.029439 0.0003033 2.29206e-24)
(0.02945 0.000280805 2.15905e-23)
(0.0294595 0.000257921 -2.11548e-23)
(0.0294677 0.000235175 7.54922e-24)
(0.029475 0.000212877 5.29214e-24)
(0.0294814 0.000191191 -1.19708e-23)
(0.029487 0.000170195 2.34723e-24)
(0.0294919 0.000149915 1.83526e-24)
(0.0294962 0.000130347 -8.30351e-25)
(0.0295 0.000111467 2.0771e-24)
(0.0295033 9.32507e-05 -2.62629e-24)
(0.0295062 7.56564e-05 1.84807e-24)
(0.0295089 5.86407e-05 -8.69809e-25)
(0.0284634 0.000320623 3.89641e-24)
(0.0284869 0.000304072 -8.32673e-24)
(0.0285069 0.000285135 -6.1178e-24)
(0.0285237 0.000264922 2.86929e-23)
(0.0285382 0.000244173 -2.69895e-23)
(0.0285506 0.000223332 2.69179e-24)
(0.0285613 0.000202665 4.73427e-24)
(0.0285705 0.000182322 2.79613e-24)
(0.0285784 0.000162389 2.6488e-24)
(0.0285852 0.00014291 -1.32886e-23)
(0.0285909 0.000123907 8.44549e-24)
(0.0285959 0.000105383 6.21869e-25)
(0.0285999 8.73341e-05 1.27095e-24)
(0.0286033 6.97493e-05 -4.81081e-25)
(0.0286061 5.26086e-05 2.20382e-25)
(0.0269001 0.0002912 9.75631e-24)
(0.0269276 0.000276444 -1.75493e-23)
(0.0269519 0.00025963 3.5234e-24)
(0.0269733 0.000241651 -9.49761e-24)
(0.0269922 0.0002231 -1.31719e-23)
(0.027009 0.000204329 4.32325e-23)
(0.0270239 0.000185553 -1.73549e-23)
(0.0270371 0.000166903 5.18669e-24)
(0.0270489 0.000148463 -2.98895e-24)
(0.0270593 0.000130287 -8.25223e-24)
(0.0270685 0.000112413 1.58076e-23)
(0.0270766 9.48593e-05 -9.06824e-24)
(0.0270837 7.76459e-05 1.17734e-24)
(0.02709 6.07793e-05 1.3357e-24)
(0.0270955 4.42811e-05 -1.36243e-25)
(0.0250211 0.00026235 3.77287e-24)
(0.0250529 0.00024907 -2.00608e-23)
(0.0250814 0.000234037 3.57238e-23)
(0.0251069 0.000217947 -2.80601e-23)
(0.0251297 0.00020126 2.96126e-23)
(0.0251502 0.000184253 -9.41614e-24)
(0.0251685 0.000167104 -6.87279e-24)
(0.025185 0.000149933 -8.24858e-24)
(0.0251997 0.000132824 1.58119e-23)
(0.0252129 0.000115842 2.63439e-25)
(0.0252247 9.90322e-05 -1.61374e-23)
(0.0252351 8.24322e-05 -2.38694e-24)
(0.0252444 6.60653e-05 4.17931e-24)
(0.0252525 4.99479e-05 -9.55439e-25)
(0.0252596 3.40883e-05 2.12654e-25)
(0.0229677 0.000231659 5.03628e-25)
(0.023004 0.000219728 -7.61535e-24)
(0.023037 0.000206308 -4.71767e-24)
(0.0230666 0.000191929 3.71078e-23)
(0.0230933 0.00017695 -3.74517e-23)
(0.0231174 0.000161593 1.11865e-23)
(0.0231391 0.000146016 1.99973e-24)
(0.0231587 0.00013033 -1.11144e-24)
(0.0231762 0.000114621 -5.66003e-24)
(0.023192 9.89569e-05 2.5472e-23)
(0.023206 8.3387e-05 -2.06658e-23)
(0.0232184 6.79507e-05 -1.14707e-24)
(0.0232293 5.26743e-05 1.97776e-24)
(0.0232389 3.75874e-05 1.96111e-24)
(0.023247 2.27013e-05 -1.55602e-24)
(0.0208483 0.000199625 7.50946e-25)
(0.0208885 0.00018901 7.13838e-24)
(0.0209252 0.000177144 -8.14725e-24)
(0.0209583 0.000164436 -6.07589e-24)
(0.0209883 0.00015116 4.00453e-23)
(0.0210154 0.000137502 -3.06195e-23)
(0.0210398 0.000123596 -5.4562e-25)
(0.0210618 0.000109546 -7.04536e-24)
(0.0210815 9.54326e-05 -7.42309e-25)
(0.0210991 8.13175e-05 9.65272e-25)
(0.0211146 6.7252e-05 -4.75639e-24)
(0.0211283 5.32768e-05 3.4881e-24)
(0.0211401 3.94347e-05 1.17547e-24)
(0.0211502 2.57561e-05 1.19044e-24)
(0.0211586 1.22978e-05 1.68285e-24)
(0.0187369 0.000167674 5.35622e-24)
(0.0187796 0.000158403 -8.30633e-24)
(0.0188186 0.000148101 -7.19177e-24)
(0.0188539 0.000137087 2.2053e-23)
(0.0188859 0.000125569 -7.87807e-24)
(0.0189147 0.000113694 -1.20601e-23)
(0.0189407 0.000101576 4.12136e-24)
(0.018964 8.93047e-05 1.02733e-23)
(0.0189847 7.69532e-05 -1.71497e-23)
(0.0190031 6.4579e-05 1.76823e-23)
(0.0190191 5.22333e-05 -9.93188e-24)
(0.0190329 3.9959e-05 4.54157e-24)
(0.0190446 2.77997e-05 -6.60906e-24)
(0.0190542 1.57869e-05 6.85812e-24)
(0.0190618 3.96048e-06 -1.78245e-24)
(0.0166801 0.000137249 -1.0395e-24)
(0.0167236 0.000129358 -3.77597e-24)
(0.0167633 0.000120638 -1.25273e-23)
(0.0167992 0.000111341 3.50618e-23)
(0.0168317 0.00010161 -5.98362e-24)
(0.016861 9.15605e-05 -1.04139e-23)
(0.0168872 8.12873e-05 3.98847e-24)
(0.0169106 7.08677e-05 -5.71677e-24)
(0.0169311 6.03663e-05 -1.35561e-23)
(0.0169491 4.98347e-05 1.29783e-23)
(0.0169645 3.93207e-05 6.26673e-25)
(0.0169774 2.88654e-05 -5.07746e-24)
(0.0169879 1.85066e-05 5.75368e-24)
(0.0169962 8.28162e-06 4.3893e-25)
(0.0170021 -1.80466e-06 -5.40169e-25)
(0.0147064 0.000109515 3.99777e-24)
(0.0147491 0.000103 6.23095e-24)
(0.0147879 9.58437e-05 -5.4909e-24)
(0.0148231 8.82294e-05 -1.31001e-23)
(0.0148548 8.02487e-05 1.82862e-23)
(0.0148833 7.1993e-05 -2.07234e-23)
(0.0149086 6.35408e-05 -1.29189e-24)
(0.014931 5.49586e-05 8.3994e-24)
(0.0149504 4.62992e-05 3.09889e-24)
(0.0149671 3.76106e-05 -7.16009e-24)
(0.0149811 2.89326e-05 -4.89704e-25)
(0.0149924 2.03094e-05 1.61414e-23)
(0.0150012 1.17749e-05 -6.24091e-24)
(0.0150075 3.3577e-06 -1.7635e-24)
(0.0150113 -4.93621e-06 -1.24825e-25)
(0.0128333 8.51916e-05 -4.14906e-24)
(0.0128737 7.9992e-05 5.37587e-24)
(0.0129105 7.4316e-05 6.8075e-25)
(0.0129438 6.8281e-05 1.20439e-23)
(0.0129737 6.19416e-05 -9.59754e-24)
(0.0130005 5.53725e-05 1.02668e-24)
(0.0130241 4.86383e-05 -9.30051e-25)
(0.0130448 4.17932e-05 -3.37929e-24)
(0.0130625 3.48805e-05 3.39382e-24)
(0.0130774 2.79419e-05 -1.10101e-23)
(0.0130896 2.10133e-05 4.44469e-25)
(0.0130991 1.41339e-05 2.65163e-24)
(0.013106 7.33222e-06 1.82571e-24)
(0.0131103 6.24477e-07 7.87602e-25)
(0.013112 -5.95977e-06 3.38657e-25)
(0.0110711 6.45575e-05 3.07032e-24)
(0.0111083 6.05562e-05 -2.40454e-24)
(0.0111422 5.62192e-05 -1.13793e-23)
(0.0111728 5.15993e-05 1.07048e-23)
(0.0112003 4.67322e-05 1.60551e-23)
(0.0112248 4.16805e-05 -3.59838e-24)
(0.0112463 3.64949e-05 -8.452e-24)
(0.0112649 3.12175e-05 -1.29802e-23)
(0.0112807 2.5884e-05 1.00042e-23)
(0.0112938 2.05272e-05 7.22232e-25)
(0.0113041 1.51799e-05 -2.50314e-24)
(0.0113118 9.87108e-06 -8.04937e-25)
(0.0113169 4.62894e-06 1.62359e-24)
(0.0113195 -5.37004e-07 -1.35695e-26)
(0.0113196 -5.59177e-06 -3.84634e-25)
(0.00942574 4.75535e-05 -1.93056e-24)
(0.00945912 4.45942e-05 -1.48394e-24)
(0.00948957 4.14106e-05 1.66841e-24)
(0.00951713 3.80023e-05 -5.93311e-24)
(0.00954185 3.44008e-05 1.96631e-23)
(0.00956379 3.0656e-05 -2.70288e-23)
(0.00958299 2.68059e-05 2.745e-23)
(0.0095995 2.28817e-05 -1.18849e-23)
(0.00961338 1.89118e-05 2.9866e-24)
(0.00962465 1.49215e-05 2.33577e-25)
(0.00963337 1.0937e-05 -2.37383e-24)
(0.00963958 6.98226e-06 1.04905e-24)
(0.00964333 3.08164e-06 -2.13403e-24)
(0.00964468 -7.54514e-07 -3.336e-25)
(0.00964366 -4.50851e-06 1.78644e-25)
(0.00789995 3.3907e-05 -9.3728e-25)
(0.00792921 3.18126e-05 2.17497e-25)
(0.00795599 2.95754e-05 5.31497e-25)
(0.00798026 2.7161e-05 -2.67825e-24)
(0.00800204 2.46025e-05 -1.35466e-24)
(0.00802136 2.1937e-05 1.10532e-23)
(0.00803824 1.91908e-05 -6.59008e-24)
(0.00805269 1.63869e-05 1.0358e-24)
(0.00806475 1.35464e-05 -9.83761e-25)
(0.00807445 1.06885e-05 -1.17574e-24)
(0.00808182 7.83219e-06 -4.28752e-25)
(0.0080869 4.99645e-06 2.48356e-24)
(0.00808973 2.20248e-06 8.31115e-25)
(0.00809037 -5.36422e-07 -1.65619e-24)
(0.00808883 -3.2227e-06 -2.95495e-25)
(0.00649399 2.32375e-05 -3.40579e-25)
(0.00651901 2.18279e-05 -1.26927e-25)
(0.00654202 2.03313e-05 -5.85785e-24)
(0.00656293 1.8699e-05 1.38173e-24)
(0.00658174 1.69657e-05 -4.68286e-24)
(0.00659844 1.51554e-05 2.89437e-24)
(0.00661303 1.32856e-05 6.15572e-24)
(0.00662552 1.13726e-05 5.00337e-24)
(0.00663593 9.43112e-06 -7.21644e-24)
(0.00664426 7.47515e-06 2.18697e-24)
(0.00665054 5.5178e-06 2.07651e-24)
(0.0066548 3.57209e-06 -3.20704e-24)
(0.00665708 1.6562e-06 1.72528e-24)
(0.00665744 -2.10389e-07 -2.08356e-25)
(0.00665587 -2.05261e-06 5.50989e-25)
(0.00520601 1.51298e-05 -1.33297e-24)
(0.0052268 1.42363e-05 -1.92304e-24)
(0.00524604 1.32926e-05 -4.58029e-25)
(0.00526359 1.22512e-05 4.8632e-24)
(0.00527943 1.11438e-05 -3.61972e-24)
(0.00529353 9.9835e-06 -8.33707e-25)
(0.00530589 8.7815e-06 6.21558e-24)
(0.0053165 7.54849e-06 1.39577e-25)
(0.00532535 6.29441e-06 -1.26589e-24)
(0.00533246 5.02868e-06 -5.34079e-24)
(0.00533783 3.76002e-06 4.10015e-25)
(0.0053415 2.49667e-06 4.01865e-24)
(0.00534347 1.25013e-06 -5.29898e-25)
(0.00534381 3.9251e-08 -6.95185e-25)
(0.00534257 -1.13897e-06 4.78686e-25)
(0.00403242 9.17547e-06 -2.91144e-25)
(0.00404907 8.65046e-06 8.96677e-27)
(0.00406459 8.09968e-06 2.3045e-24)
(0.0040788 7.48486e-06 1.66613e-24)
(0.00409168 6.83053e-06 -1.01101e-24)
(0.00410321 6.14211e-06 -2.82421e-24)
(0.00411336 5.4264e-06 1.22755e-24)
(0.00412211 4.6899e-06 -5.34601e-24)
(0.00412946 3.93874e-06 4.15204e-24)
(0.00413541 3.17887e-06 2.34901e-24)
(0.00413996 2.41577e-06 1.29226e-25)
(0.00414312 1.65436e-06 -2.74953e-24)
(0.00414491 9.00816e-07 5.49913e-25)
(0.00414536 1.68755e-07 -4.6207e-25)
(0.00414457 -5.32041e-07 2.43779e-25)
(0.00296822 4.99375e-06 -5.35761e-25)
(0.00298086 4.71395e-06 -4.58614e-27)
(0.00299273 4.42541e-06 1.83582e-24)
(0.00300364 4.10098e-06 -1.15379e-24)
(0.00301359 3.7557e-06 5.09459e-24)
(0.00302255 3.39085e-06 -9.4194e-24)
(0.00303048 3.01018e-06 7.97261e-24)
(0.00303737 2.61718e-06 -6.91427e-24)
(0.00304321 2.21524e-06 5.17432e-24)
(0.00304798 1.80771e-06 -3.48263e-24)
(0.00305169 1.39771e-06 1.22337e-24)
(0.00305435 9.88023e-07 1.89363e-25)
(0.00305595 5.82266e-07 3.54212e-25)
(0.00305653 1.82947e-07 -4.42192e-25)
(0.00305616 -1.88993e-07 9.992e-26)
(0.00200734 2.25333e-06 8.12561e-25)
(0.00201612 2.12293e-06 9.27367e-25)
(0.00202443 1.99506e-06 -3.92735e-24)
(0.00203211 1.8519e-06 2.93478e-24)
(0.00203916 1.69991e-06 -4.77981e-27)
(0.00204554 1.53905e-06 8.561e-25)
(0.00205123 1.37107e-06 -9.90261e-25)
(0.00205622 1.19758e-06 -2.26839e-24)
(0.00206048 1.02013e-06 2.30596e-24)
(0.00206402 8.40318e-07 2.96855e-25)
(0.00206682 6.59608e-07 -2.06493e-24)
(0.00206889 4.79479e-07 7.35444e-25)
(0.00207022 3.01695e-07 4.9711e-25)
(0.00207084 1.24855e-07 -5.41495e-26)
(0.00207079 -3.60523e-08 -6.74663e-26)
(0.00114299 7.06121e-07 -8.19644e-25)
(0.00114809 6.67621e-07 2.55469e-24)
(0.00115296 6.33937e-07 1.63626e-24)
(0.00115748 5.94306e-07 -2.83465e-24)
(0.00116166 5.50363e-07 -3.37887e-25)
(0.00116547 5.02326e-07 -3.21171e-25)
(0.0011689 4.51063e-07 1.03708e-24)
(0.00117193 3.97315e-07 -1.79175e-24)
(0.00117455 3.41779e-07 2.56559e-24)
(0.00117675 2.85128e-07 -1.25258e-24)
(0.00117853 2.27948e-07 -8.96609e-25)
(0.00117989 1.71018e-07 5.66088e-25)
(0.00118082 1.15543e-07 -7.66338e-25)
(0.00118133 5.98302e-08 7.9632e-25)
(0.00118144 1.14358e-08 -1.47766e-25)
(0.000367977 1.33105e-07 -5.84964e-27)
(0.000369592 1.6972e-07 5.00644e-25)
(0.000371154 2.00192e-07 6.05279e-25)
(0.000372619 2.21491e-07 -9.20365e-25)
(0.000373988 2.34384e-07 2.05506e-24)
(0.00037525 2.39466e-07 -2.22173e-24)
(0.000376399 2.37388e-07 1.57399e-25)
(0.000377426 2.28709e-07 1.37967e-24)
(0.000378326 2.13931e-07 -1.91325e-24)
(0.000379096 1.93537e-07 -3.96486e-25)
(0.000379731 1.67946e-07 1.48131e-24)
(0.000380231 1.37698e-07 -6.69664e-25)
(0.000380595 1.03634e-07 -2.87586e-25)
(0.000380821 6.5349e-08 2.46084e-25)
(0.000380916 2.5327e-08 -1.22774e-26)
(0.000892546 -0.000238199 8.83421e-26)
(0.00102008 -0.000161336 2.30341e-24)
(0.00123523 -8.07619e-05 -6.68193e-24)
(0.00145505 -1.38503e-05 9.82937e-24)
(0.00166636 4.12596e-05 -3.68864e-24)
(0.00187428 8.53959e-05 -3.62986e-24)
(0.00207919 0.000120748 4.16505e-24)
(0.00228211 0.000149104 -8.33543e-24)
(0.00248403 0.000171861 4.74328e-25)
(0.00268566 0.000190119 5.3318e-24)
(0.00288756 0.000204774 -1.03915e-24)
(0.00309021 0.000216633 1.14513e-24)
(0.00329413 0.000226414 -1.00068e-25)
(0.00350007 0.000234744 7.78911e-25)
(0.00370911 0.000242238 -2.87617e-24)
(0.00392274 0.000249403 1.59801e-24)
(0.0041431 0.000256436 -5.46782e-25)
(0.00437323 0.000263194 1.70957e-26)
(0.00461751 0.000268836 1.38145e-24)
(0.00488133 0.000271348 -8.77222e-25)
(0.00517138 0.000266122 1.11118e-25)
(0.00549237 0.000245355 -9.67006e-26)
(0.00581834 0.000198549 1.73803e-25)
(0.00610668 0.00012653 6.30698e-25)
(0.00634292 3.64441e-05 -1.13516e-24)
(0.0065266 -6.65628e-05 -6.99709e-25)
(0.00666009 -0.000178306 7.38763e-26)
(0.0067466 -0.000294655 1.65272e-24)
(0.00678857 -0.000411896 1.98656e-24)
(0.00678774 -0.00052674 -3.85823e-24)
(0.00674546 -0.000635587 2.58105e-24)
(0.0066629 -0.000734116 -1.83793e-24)
(0.00654128 -0.00081718 2.30747e-25)
(0.0063821 -0.000878813 -1.41534e-24)
(0.00618712 -0.000912265 1.36428e-24)
(0.00595837 -0.00090996 8.94631e-24)
(0.00569805 -0.000863208 -2.51287e-24)
(0.00540848 -0.000761488 2.21919e-24)
(0.00509222 -0.000591066 1.15789e-24)
(0.00475257 -0.000333374 -1.29648e-23)
(0.00439258 3.39461e-05 -1.57714e-25)
(0.00401632 0.000525971 5.45608e-24)
(0.0036109 0.00111474 1.79404e-24)
(0.00319169 0.00167828 -7.6956e-24)
(0.00295276 0.00183566 -3.88418e-25)
(0.00167974 -0.000315392 -2.61739e-24)
(0.00173159 -0.000271605 -3.76096e-24)
(0.0018629 -0.000193739 7.84484e-24)
(0.00202876 -0.000119832 3.74838e-24)
(0.00220556 -5.48845e-05 -1.31237e-23)
(0.00238901 -8.26365e-07 1.413e-23)
(0.00257553 4.34723e-05 -5.0807e-24)
(0.00276386 7.97161e-05 4.1466e-24)
(0.00295372 0.00010941 -5.47673e-24)
(0.00314508 0.000133795 5.36972e-26)
(0.00333811 0.000153887 -3.04176e-24)
(0.00353304 0.000170583 6.06953e-24)
(0.00373023 0.000184647 -3.42121e-24)
(0.0039303 0.000196725 -3.27135e-24)
(0.00413426 0.000207448 -2.3929e-24)
(0.00434345 0.000217331 4.22768e-24)
(0.00455987 0.000226552 -6.21528e-25)
(0.00478634 0.000234944 2.50181e-24)
(0.0050269 0.000241663 4.60714e-25)
(0.00528655 0.000244735 -7.89268e-25)
(0.0055715 0.000239745 -3.41339e-25)
(0.00588613 0.000219321 -2.0114e-25)
(0.00620526 0.000173593 9.47965e-25)
(0.00648783 0.000103798 1.06172e-24)
(0.00671994 1.70458e-05 -1.03378e-24)
(0.00690108 -8.17137e-05 -4.39617e-24)
(0.0070334 -0.000188466 5.72819e-24)
(0.00711992 -0.000299087 -3.77448e-24)
(0.00716295 -0.00040976 1.24517e-24)
(0.00716424 -0.000517093 -5.54184e-25)
(0.00712528 -0.000617415 3.63287e-24)
(0.00704747 -0.000706381 -3.5398e-24)
(0.00693244 -0.000778865 -8.03136e-26)
(0.00678214 -0.000828964 7.34585e-24)
(0.00659905 -0.000850013 -1.26367e-23)
(0.00638614 -0.000834527 3.45417e-24)
(0.00614698 -0.000773955 1.5943e-23)
(0.00588601 -0.00065805 -4.43643e-24)
(0.00560909 -0.000473727 -1.27056e-23)
(0.00532513 -0.000203541 -7.60918e-24)
(0.00504753 0.000173668 1.73707e-23)
(0.00479909 0.000673531 -1.67922e-23)
(0.00460409 0.00126856 -3.95346e-24)
(0.00450207 0.00182554 1.10053e-23)
(0.00453969 0.00192416 3.74461e-24)
(0.00261063 -0.000321441 -2.99536e-26)
(0.00261593 -0.000316459 -4.27256e-24)
(0.00266983 -0.000269407 8.35304e-24)
(0.00277261 -0.000205578 7.1983e-24)
(0.00290133 -0.000141277 -1.17043e-23)
(0.00304757 -8.32002e-05 2.33271e-25)
(0.00320489 -3.32185e-05 1.15192e-24)
(0.00336969 9.09421e-06 1.27182e-23)
(0.00354 4.47066e-05 -1.51016e-23)
(0.00371477 7.46488e-05 9.46789e-24)
(0.00389347 9.9867e-05 3.02983e-24)
(0.00407592 0.000121245 -1.62957e-23)
(0.00426217 0.000139532 5.90913e-24)
(0.00445266 0.000155352 2.47452e-24)
(0.00464822 0.000169334 -5.41591e-24)
(0.00485001 0.00018199 9.05941e-24)
(0.00505983 0.000193465 -6.60353e-24)
(0.00528025 0.000203564 -2.27249e-25)
(0.00551498 0.000211437 4.9982e-25)
(0.00576852 0.00021515 6.02879e-25)
(0.0060466 0.000210482 8.13619e-26)
(0.00635315 0.0001905 3.65852e-25)
(0.00666381 0.000145953 -9.48909e-25)
(0.00693917 7.84918e-05 2.75877e-24)
(0.00716593 -4.78887e-06 -4.17162e-24)
(0.00734349 -9.91209e-05 2.36491e-24)
(0.00747378 -0.00020067 -4.90043e-24)
(0.00755964 -0.00030532 6.55976e-24)
(0.00760325 -0.000409139 -5.25591e-24)
(0.00760638 -0.000508631 8.6503e-25)
(0.00757065 -0.000600065 1.10066e-24)
(0.00749778 -0.000679083 4.20794e-24)
(0.00738976 -0.000740617 -1.00588e-24)
(0.00724913 -0.000778886 3.85346e-24)
(0.00707908 -0.000787428 -1.13317e-23)
(0.00688358 -0.000759072 2.00283e-23)
(0.00666765 -0.000685782 -1.38151e-23)
(0.00643781 -0.000558269 2.04867e-23)
(0.006203 -0.00036536 -3.91862e-23)
(0.00597679 -9.3275e-05 1.49275e-23)
(0.00577981 0.000272815 5.2e-24)
(0.00564436 0.000739964 8.27891e-24)
(0.00560663 0.00127346 -1.03104e-23)
(0.00568978 0.00174216 3.13604e-24)
(0.00586499 0.00181507 -1.94411e-24)
(0.00367039 -0.000302698 -1.12152e-24)
(0.00364898 -0.000321865 -1.73775e-24)
(0.00365479 -0.000302776 -7.4905e-24)
(0.00369702 -0.000261524 1.96211e-24)
(0.00377326 -0.000207847 1.30555e-24)
(0.00387401 -0.000153368 6.03657e-24)
(0.00399295 -0.000102905 -1.29042e-23)
(0.00412544 -5.79482e-05 4.84998e-24)
(0.00426823 -1.86598e-05 1.67297e-23)
(0.00441925 1.53559e-05 -4.39128e-24)
(0.00457724 4.47036e-05 -4.24652e-24)
(0.00474148 7.00886e-05 -6.94931e-25)
(0.00491165 9.21372e-05 2.37375e-24)
(0.0050879 0.00011138 -4.74409e-24)
(0.00527085 0.000128407 1.05321e-24)
(0.00546145 0.000143697 -4.93215e-25)
(0.00566123 0.000157341 -2.741e-24)
(0.0058725 0.0001691 8.66448e-25)
(0.00609859 0.000178114 4.93866e-24)
(0.00634349 0.000182488 -5.54279e-25)
(0.00661237 0.000178194 -1.1652e-24)
(0.00690861 0.000158743 -3.15795e-25)
(0.00720871 0.000115511 -1.67344e-24)
(0.00747502 5.05466e-05 -1.32933e-28)
(0.00769482 -2.906e-05 -3.55396e-24)
(0.00786739 -0.000118712 6.31806e-24)
(0.00799446 -0.000214775 -4.92348e-24)
(0.00807869 -0.00031314 9.25963e-24)
(0.00812214 -0.000409758 -7.32079e-24)
(0.00812659 -0.000501044 1.86645e-24)
(0.00809386 -0.000583235 2.41551e-24)
(0.00802596 -0.000652006 -2.49932e-25)
(0.00792533 -0.000702413 -3.88373e-25)
(0.00779506 -0.000728914 -1.35191e-24)
(0.00763908 -0.000725423 1.68315e-24)
(0.00746237 -0.000685355 -6.27464e-24)
(0.00727125 -0.000601625 2.94916e-23)
(0.00707398 -0.000466577 -1.56575e-23)
(0.00688173 -0.000271995 -5.43612e-25)
(0.00671051 -9.39726e-06 -3.52758e-23)
(0.00658301 0.000327431 2.67479e-23)
(0.00653056 0.00073505 -9.99224e-24)
(0.00658472 0.00117682 2.08675e-24)
(0.00675147 0.00155119 1.32716e-23)
(0.00698613 0.00166041 -3.44192e-24)
(0.00485613 -0.000273653 -4.65455e-24)
(0.00482428 -0.000303547 9.5353e-24)
(0.00480262 -0.000302676 2.71649e-24)
(0.0048042 -0.000284124 1.18736e-23)
(0.00483137 -0.000248233 -2.92953e-23)
(0.00488567 -0.000203907 -8.54793e-25)