/*--------------------------------*- C++ -*----------------------------------*\
| =========                 |                                                 |
| \\      /  F ield         | OpenFOAM: The Open Source CFD Toolbox           |
|  \\    /   O peration     | Version:  2312                                  |
|   \\  /    A nd           | Website:  www.openfoam.com                      |
|    \\/     M anipulation  |                                                 |
\*---------------------------------------------------------------------------*/
FoamFile
{
    version     2.0;
    format      ascii;
    arch        "LSB;label=32;scalar=64";
    class       surfaceScalarField;
    location    "196";
    object      phi;
}
// * * * * * * * * * * * * * * * * * * * * * * * * * * * * * * * * * * * * * //

dimensions      [0 3 -1 0 0 0 0];

oriented        oriented;

internalField   nonuniform List<scalar> 
9445
(
6.10769e-10
1.09372e-11
6.04179e-10
6.59031e-12
6.00353e-10
3.82583e-12
5.98466e-10
1.88723e-12
5.98064e-10
4.01543e-13
5.9894e-10
-8.76278e-13
6.01005e-10
-2.06491e-12
6.04187e-10
-3.18182e-12
6.08722e-10
-4.53463e-12
6.1506e-10
-6.33882e-12
6.2435e-10
-9.28989e-12
6.40266e-10
-1.59154e-11
6.75896e-10
-3.56302e-11
7.77943e-10
-1.02047e-10
-2.67143e-10
1.04509e-09
2.13137e-09
4.91284e-11
2.10763e-09
3.03321e-11
2.09319e-09
1.82655e-11
2.08531e-09
9.76619e-12
2.08246e-09
3.25816e-12
2.08383e-09
-2.24794e-12
2.08902e-09
-7.25374e-12
2.09788e-09
-1.20449e-11
2.11102e-09
-1.7677e-11
2.12972e-09
-2.50418e-11
2.15693e-09
-3.65003e-11
2.19978e-09
-5.87606e-11
2.27224e-09
-1.08092e-10
2.38815e-09
-2.17957e-10
-3.90194e-10
2.5112e-09
4.20391e-09
1.23701e-10
4.15648e-09
7.77669e-11
4.12666e-09
4.80787e-11
4.10931e-09
2.71156e-11
4.10148e-09
1.10912e-11
4.10154e-09
-2.30965e-12
4.10854e-09
-1.42545e-11
4.12214e-09
-2.56436e-11
4.14314e-09
-3.86726e-11
4.17301e-09
-5.49153e-11
4.21472e-09
-7.82148e-11
4.2731e-09
-1.17133e-10
4.35104e-09
-1.86034e-10
4.43431e-09
-3.01231e-10
-4.39923e-10
4.48404e-09
6.97747e-09
2.44736e-10
6.89872e-09
1.56517e-10
6.84768e-09
9.91204e-11
6.81632e-09
5.84761e-11
6.79991e-09
2.75015e-11
6.79579e-09
1.80923e-12
6.80221e-09
-2.0677e-11
6.81818e-09
-4.16137e-11
6.84437e-09
-6.48586e-11
6.88152e-09
-9.20653e-11
6.93075e-09
-1.2745e-10
6.99178e-09
-1.7816e-10
7.05785e-09
-2.52104e-10
7.10788e-09
-3.51265e-10
-4.49613e-10
7.11758e-09
1.06312e-08
4.21753e-10
1.05132e-08
2.74443e-10
1.04345e-08
1.77868e-10
1.03837e-08
1.09221e-10
1.03542e-08
5.70531e-11
1.03418e-08
1.41594e-11
1.0344e-08
-2.28157e-11
1.03586e-08
-5.6285e-11
1.03855e-08
-9.16865e-11
1.04239e-08
-1.30457e-10
1.04722e-08
-1.75807e-10
1.05258e-08
-2.31776e-10
1.05738e-08
-3.00056e-10
1.05982e-08
-3.75679e-10
-4.39321e-10
1.05879e-08
1.53746e-08
6.60532e-10
1.52114e-08
4.37674e-10
1.50991e-08
2.90163e-10
1.50236e-08
1.84754e-10
1.49759e-08
1.04705e-10
1.49504e-08
3.96118e-11
1.49434e-08
-1.57393e-11
1.49519e-08
-6.4843e-11
1.49736e-08
-1.13329e-10
1.5006e-08
-1.62874e-10
1.50453e-08
-2.15136e-10
1.50846e-08
-2.71049e-10
1.51133e-08
-3.2874e-10
1.51198e-08
-3.82209e-10
-4.20485e-10
1.5101e-08
2.14446e-08
9.57639e-10
2.12352e-08
6.4698e-10
2.10867e-08
4.38713e-10
2.09827e-08
2.88742e-10
2.09128e-08
1.74603e-10
2.08697e-08
8.26848e-11
2.08484e-08
5.57609e-12
2.08449e-08
-6.13635e-11
2.0855e-08
-1.23423e-10
2.08745e-08
-1.82368e-10
2.08981e-08
-2.38709e-10
2.09187e-08
-2.91666e-10
2.09286e-08
-3.3861e-10
2.09218e-08
-3.75427e-10
-3.97383e-10
2.08987e-08
2.90958e-08
1.29287e-09
2.88505e-08
8.92307e-10
2.86701e-08
6.19066e-10
2.85388e-08
4.20068e-10
2.84456e-08
2.67781e-10
2.83824e-08
1.45849e-10
2.83432e-08
4.48208e-11
2.83228e-08
-4.09148e-11
2.83157e-08
-1.16405e-10
2.83167e-08
-1.83365e-10
2.83201e-08
-2.42029e-10
2.83199e-08
-2.91529e-10
2.83116e-08
-3.30274e-10
2.82928e-08
-3.56658e-10
-3.69691e-10
2.82651e-08
3.85888e-08
1.62262e-09
3.83342e-08
1.1469e-09
3.81386e-08
8.14713e-10
3.79898e-08
5.68809e-10
3.78788e-08
3.78822e-10
3.77978e-08
2.26811e-10
3.77406e-08
1.02006e-10
3.77014e-08
-1.68182e-12
3.76745e-08
-8.95299e-11
3.76544e-08
-1.63238e-10
3.7636e-08
-2.23599e-10
3.76152e-08
-2.70747e-10
3.75896e-08
-3.04719e-10
3.75589e-08
-3.25981e-10
-3.35527e-10
3.75248e-08
5.01849e-08
1.88215e-09
4.99659e-08
1.3659e-09
4.97863e-08
9.94378e-10
4.96419e-08
7.13201e-10
4.95279e-08
4.9284e-10
4.94389e-08
3.15728e-10
4.93699e-08
1.7104e-10
4.93159e-08
5.23481e-11
4.92712e-08
-4.48859e-11
4.92319e-08
-1.23947e-10
4.91941e-08
-1.85811e-10
4.91555e-08
-2.32138e-10
4.91152e-08
-2.64386e-10
4.90736e-08
-2.84361e-10
-2.94002e-10
4.90321e-08
6.41731e-08
2.00738e-09
6.40414e-08
1.49764e-09
6.3918e-08
1.11769e-09
6.38091e-08
8.2218e-10
6.37157e-08
5.86242e-10
6.36365e-08
3.94846e-10
6.35691e-08
2.38493e-10
6.35103e-08
1.11184e-10
6.34566e-08
8.74561e-12
6.34055e-08
-7.279e-11
6.33553e-08
-1.35611e-10
6.3305e-08
-1.81901e-10
6.32549e-08
-2.14224e-10
6.32056e-08
-2.35068e-10
-2.46704e-10
6.31583e-08
8.09473e-08
1.97384e-09
8.09339e-08
1.5111e-09
8.08974e-08
1.15412e-09
8.08512e-08
8.68439e-10
8.08017e-08
6.35668e-10
8.0752e-08
4.4461e-10
8.07025e-08
2.87994e-10
8.0653e-08
1.60663e-10
8.06031e-08
5.86264e-11
8.05514e-08
-2.10547e-11
8.0499e-08
-8.32234e-11
8.0446e-08
-1.28933e-10
8.03934e-08
-1.61585e-10
8.03421e-08
-1.83804e-10
-1.97832e-10
8.02932e-08
1.01096e-07
1.81862e-09
1.01186e-07
1.42091e-09
1.01234e-07
1.10587e-09
1.01255e-07
8.47716e-10
1.01257e-07
6.33726e-10
1.01245e-07
4.56233e-10
1.01223e-07
3.10022e-10
1.01193e-07
1.90987e-10
1.01156e-07
9.56198e-11
1.01114e-07
2.05361e-11
1.01068e-07
-3.75057e-11
1.01021e-07
-8.13877e-11
1.00973e-07
-1.13476e-10
1.00925e-07
-1.36406e-10
-1.52193e-10
1.0088e-07
1.25379e-07
1.6099e-09
1.25523e-07
1.27653e-09
1.25621e-07
1.00778e-09
1.25685e-07
7.84066e-10
1.25722e-07
5.96536e-10
1.25738e-07
4.39931e-10
1.25738e-07
3.10397e-10
1.25724e-07
2.04579e-10
1.25701e-07
1.19374e-10
1.25669e-07
5.18056e-11
1.25633e-07
-9.20844e-13
1.25593e-07
-4.14905e-11
1.25552e-07
-7.20982e-11
1.2551e-07
-9.48707e-11
-1.11533e-10
1.25469e-07
1.54537e-07
1.39462e-09
1.54693e-07
1.12131e-09
1.54803e-07
8.97381e-10
1.54878e-07
7.08801e-10
1.54925e-07
5.49446e-10
1.5495e-07
4.15644e-10
1.54956e-07
3.04458e-10
1.54947e-07
2.13095e-10
1.54927e-07
1.38938e-10
1.549e-07
7.94523e-11
1.54867e-07
3.22976e-11
1.5483e-07
-4.71383e-12
1.54791e-07
-3.34697e-11
1.54752e-07
-5.56688e-11
-7.26936e-11
1.54713e-07
1.89068e-07
1.18567e-09
1.89218e-07
9.7145e-10
1.89323e-07
7.91924e-10
1.89394e-07
6.38226e-10
1.89436e-07
5.07181e-10
1.89455e-07
3.96167e-10
1.89457e-07
3.03033e-10
1.89444e-07
2.25683e-10
1.89421e-07
1.62112e-10
1.8939e-07
1.1031e-10
1.89354e-07
6.8435e-11
1.89315e-07
3.47731e-11
1.89273e-07
7.86022e-12
1.89231e-07
-1.36299e-11
-3.07637e-11
1.89189e-07
2.29088e-07
9.82442e-10
2.29232e-07
8.27633e-10
2.2933e-07
6.93669e-10
2.29393e-07
5.75152e-10
2.29428e-07
4.72234e-10
2.2944e-07
3.83817e-10
2.29435e-07
3.08249e-10
2.29416e-07
2.44332e-10
2.29388e-07
1.90868e-10
2.29352e-07
1.46425e-10
2.2931e-07
1.09667e-10
2.29266e-07
7.93664e-11
2.29219e-07
5.44741e-11
2.29171e-07
3.40011e-11
1.71471e-11
2.29124e-07
2.74151e-07
7.89385e-10
2.74287e-07
6.91651e-10
2.74379e-07
6.02148e-10
2.74435e-07
5.18751e-10
2.74463e-07
4.4387e-10
2.7447e-07
3.77645e-10
2.74459e-07
3.19155e-10
2.74435e-07
2.68302e-10
2.74401e-07
2.24796e-10
2.7436e-07
1.87627e-10
2.74313e-07
1.56051e-10
2.74263e-07
1.29374e-10
2.74211e-07
1.06917e-10
2.74157e-07
8.79793e-11
7.19985e-11
2.74102e-07
3.22777e-07
6.13979e-10
3.22902e-07
5.66805e-10
3.22986e-07
5.18906e-10
3.23037e-07
4.67183e-10
3.23063e-07
4.18249e-10
3.23067e-07
3.73561e-10
3.23054e-07
3.31886e-10
3.23028e-07
2.94808e-10
3.22991e-07
2.61528e-10
3.22947e-07
2.31753e-10
3.22897e-07
2.05794e-10
3.22843e-07
1.83487e-10
3.22785e-07
1.64274e-10
3.22726e-07
1.47667e-10
1.33282e-10
3.22665e-07
3.71825e-07
4.43539e-10
3.71948e-07
4.43967e-10
3.72034e-07
4.3257e-10
3.72089e-07
4.12633e-10
3.72116e-07
3.91575e-10
3.72127e-07
3.62172e-10
3.72123e-07
3.35532e-10
3.72107e-07
3.11537e-10
3.72078e-07
2.89906e-10
3.7204e-07
2.70452e-10
3.71993e-07
2.52291e-10
3.71941e-07
2.35864e-10
3.71884e-07
2.21164e-10
3.71823e-07
2.08083e-10
1.96523e-10
3.7176e-07
3.69312e-07
3.24816e-10
3.69398e-07
3.57245e-10
3.69461e-07
3.70044e-10
3.69501e-07
3.72297e-10
3.69525e-07
3.67422e-10
3.69532e-07
3.56048e-10
3.69523e-07
3.43942e-10
3.69503e-07
3.31802e-10
3.69474e-07
3.19112e-10
3.69437e-07
3.06811e-10
3.69394e-07
2.95308e-10
3.69346e-07
2.84534e-10
3.69292e-07
2.74397e-10
3.69235e-07
2.65102e-10
2.56635e-10
3.69175e-07
3.1593e-07
2.41313e-10
3.16e-07
2.87545e-10
3.16055e-07
3.14586e-10
3.16098e-07
3.29816e-10
3.16128e-07
3.36889e-10
3.16146e-07
3.38268e-10
3.16153e-07
3.36724e-10
3.16152e-07
3.32824e-10
3.16144e-07
3.27439e-10
3.16129e-07
3.21706e-10
3.16108e-07
3.16361e-10
3.16081e-07
3.11296e-10
3.16049e-07
3.06171e-10
3.16014e-07
3.00671e-10
2.95034e-10
3.15975e-07
2.64489e-07
1.99469e-10
2.64527e-07
2.49821e-10
2.64558e-07
2.83019e-10
2.64583e-07
3.04778e-10
2.64602e-07
3.18602e-10
2.64613e-07
3.26807e-10
2.64618e-07
3.31338e-10
2.64618e-07
3.33208e-10
2.64612e-07
3.33421e-10
2.64601e-07
3.32358e-10
2.64587e-07
3.30666e-10
2.6457e-07
3.28811e-10
2.64549e-07
3.27115e-10
2.64524e-07
3.24826e-10
3.22016e-10
2.64497e-07
2.17681e-07
1.81637e-10
2.17701e-07
2.29649e-10
2.17721e-07
2.63418e-10
2.17739e-07
2.87187e-10
2.17753e-07
3.03839e-10
2.17765e-07
3.15387e-10
2.17773e-07
3.23282e-10
2.17777e-07
3.28595e-10
2.17779e-07
3.32066e-10
2.17777e-07
3.33996e-10
2.17773e-07
3.34823e-10
2.17767e-07
3.35024e-10
2.17759e-07
3.35078e-10
2.17749e-07
3.34741e-10
3.3357e-10
2.17737e-07
1.7661e-07
1.75438e-10
1.76623e-07
2.17031e-10
1.76639e-07
2.47582e-10
1.76656e-07
2.70044e-10
1.76673e-07
2.86611e-10
1.7669e-07
2.98849e-10
1.76705e-07
3.07894e-10
1.76719e-07
3.14567e-10
1.76732e-07
3.1944e-10
1.76743e-07
3.22862e-10
1.76753e-07
3.25129e-10
1.76761e-07
3.26584e-10
1.76769e-07
3.27375e-10
1.76776e-07
3.2748e-10
3.26932e-10
1.76783e-07
1.41526e-07
1.68846e-10
1.41541e-07
2.02277e-10
1.41561e-07
2.27664e-10
1.41584e-07
2.46912e-10
1.41609e-07
2.61591e-10
1.41635e-07
2.72847e-10
1.41661e-07
2.81512e-10
1.41688e-07
2.88174e-10
1.41714e-07
2.93248e-10
1.4174e-07
2.97005e-10
1.41765e-07
2.99643e-10
1.4179e-07
3.0135e-10
1.41816e-07
3.02247e-10
1.41841e-07
3.02384e-10
3.01768e-10
1.41866e-07
1.12182e-07
1.54354e-10
1.12204e-07
1.79693e-10
1.12233e-07
1.99498e-10
1.12265e-07
2.14894e-10
1.12299e-07
2.26951e-10
1.12336e-07
2.36455e-10
1.12373e-07
2.43968e-10
1.12411e-07
2.49879e-10
1.1245e-07
2.54454e-10
1.12489e-07
2.57876e-10
1.12529e-07
2.60279e-10
1.12568e-07
2.6178e-10
1.12608e-07
2.62469e-10
1.12648e-07
2.62383e-10
2.61525e-10
1.12688e-07
8.80453e-08
1.30885e-10
8.80757e-08
1.4925e-10
8.81112e-08
1.64007e-10
8.81504e-08
1.75741e-10
8.81922e-08
1.85151e-10
8.82359e-08
1.92747e-10
8.8281e-08
1.98875e-10
8.83271e-08
2.03768e-10
8.83739e-08
2.07589e-10
8.84213e-08
2.10453e-10
8.84692e-08
2.12445e-10
8.85173e-08
2.13638e-10
8.85657e-08
2.14089e-10
8.86143e-08
2.1382e-10
2.12843e-10
8.8663e-08
6.84484e-08
1.01948e-10
6.84828e-08
1.14812e-10
6.85214e-08
1.25434e-10
6.8563e-08
1.34065e-10
6.8607e-08
1.41154e-10
6.86528e-08
1.47011e-10
6.86998e-08
1.51826e-10
6.87479e-08
1.5573e-10
6.87966e-08
1.58814e-10
6.88459e-08
1.61145e-10
6.88956e-08
1.62773e-10
6.89455e-08
1.6374e-10
6.89955e-08
1.64082e-10
6.90455e-08
1.63813e-10
1.62945e-10
6.90954e-08
5.26969e-08
7.24817e-11
5.27304e-08
8.12361e-11
5.27672e-08
8.86595e-11
5.28064e-08
9.48249e-11
5.28476e-08
1.00024e-10
5.28902e-08
1.04427e-10
5.29339e-08
1.08127e-10
5.29784e-08
1.11187e-10
5.30236e-08
1.13653e-10
5.30691e-08
1.15561e-10
5.3115e-08
1.16936e-10
5.31609e-08
1.17804e-10
5.32068e-08
1.18184e-10
5.32525e-08
1.18086e-10
1.1752e-10
5.3298e-08
4.01396e-08
4.65239e-11
4.01685e-08
5.23047e-11
4.01998e-08
5.73349e-11
4.0233e-08
6.16136e-11
4.02677e-08
6.53333e-11
4.03036e-08
6.85731e-11
4.03403e-08
7.13662e-11
4.03778e-08
7.3739e-11
4.04157e-08
7.571e-11
4.0454e-08
7.72952e-11
4.04924e-08
7.85052e-11
4.05309e-08
7.93534e-11
4.05692e-08
7.98512e-11
4.06073e-08
8.00036e-11
7.98204e-11
4.0645e-08
3.0201e-08
2.62842e-11
3.02233e-08
2.99529e-11
3.02474e-08
3.32338e-11
3.0273e-08
3.61051e-11
3.02996e-08
3.86922e-11
3.03271e-08
4.10177e-11
3.03554e-08
4.30844e-11
3.03843e-08
4.48983e-11
3.04135e-08
4.6463e-11
3.0443e-08
4.77834e-11
3.04727e-08
4.88612e-11
3.05023e-08
4.97032e-11
3.05319e-08
5.03137e-11
3.05612e-08
5.06966e-11
5.08584e-11
3.05901e-08
2.23897e-08
1.22393e-11
2.24053e-08
1.44311e-11
2.2422e-08
1.64668e-11
2.24398e-08
1.83144e-11
2.24585e-08
2.00495e-11
2.24778e-08
2.16653e-11
2.24978e-08
2.3151e-11
2.25181e-08
2.45031e-11
2.25389e-08
2.5718e-11
2.25599e-08
2.67953e-11
2.2581e-08
2.77319e-11
2.26022e-08
2.85308e-11
2.26233e-08
2.91916e-11
2.26443e-08
2.97182e-11
3.01137e-11
2.2665e-08
1.62943e-08
3.68994e-12
1.63039e-08
4.87489e-12
1.63143e-08
6.05833e-12
1.63254e-08
7.18526e-12
1.63372e-08
8.29436e-12
1.63495e-08
9.36829e-12
1.63622e-08
1.03926e-11
1.63754e-08
1.13599e-11
1.63888e-08
1.22649e-11
1.64025e-08
1.31051e-11
1.64164e-08
1.38755e-11
1.64303e-08
1.45772e-11
1.64443e-08
1.52068e-11
1.64583e-08
1.57687e-11
1.62642e-11
1.64721e-08
1.15741e-08
-6.33575e-13
1.15791e-08
-9.94654e-14
1.15846e-08
5.28644e-13
1.15906e-08
1.17059e-12
1.15971e-08
1.83646e-12
1.16039e-08
2.50866e-12
1.16111e-08
3.17429e-12
1.16187e-08
3.82571e-12
1.16265e-08
4.4585e-12
1.16345e-08
5.07046e-12
1.16427e-08
5.65625e-12
1.16511e-08
6.21621e-12
1.16596e-08
6.74557e-12
1.16681e-08
7.24892e-12
7.72824e-12
1.16766e-08
7.94934e-09
-2.11251e-12
7.95119e-09
-1.94747e-12
7.95339e-09
-1.67529e-12
7.95591e-09
-1.34132e-12
7.95871e-09
-9.69249e-13
7.9618e-09
-5.8201e-13
7.96516e-09
-1.83504e-13
7.96877e-09
2.18899e-13
7.9726e-09
6.22868e-13
7.97664e-09
1.02808e-12
7.98087e-09
1.42915e-12
7.98526e-09
1.8274e-12
7.98979e-09
2.21664e-12
7.99444e-09
2.60199e-12
2.98751e-12
7.99918e-09
5.19204e-09
-1.98602e-12
5.1921e-09
-2.00202e-12
5.19233e-09
-1.90571e-12
5.19274e-09
-1.75154e-12
5.19334e-09
-1.56926e-12
5.19413e-09
-1.37407e-12
5.19511e-09
-1.16333e-12
5.19627e-09
-9.43867e-13
5.19761e-09
-7.18543e-13
5.19913e-09
-4.84686e-13
5.2008e-09
-2.47801e-13
5.20263e-09
-4.20399e-15
5.20461e-09
2.38289e-13
5.20673e-09
4.85357e-13
7.43282e-13
5.20897e-09
3.11746e-09
-1.19191e-12
3.11673e-09
-1.2667e-12
3.11606e-09
-1.24068e-12
3.11549e-09
-1.18119e-12
3.11503e-09
-1.10819e-12
3.11468e-09
-1.02775e-12
3.11446e-09
-9.39388e-13
3.11436e-09
-8.44055e-13
3.11438e-09
-7.4238e-13
3.11454e-09
-6.35385e-13
3.11481e-09
-5.24634e-13
3.11522e-09
-4.0828e-13
3.11574e-09
-2.89954e-13
3.1164e-09
-1.67251e-13
-3.24676e-14
3.11717e-09
1.57693e-09
-3.98e-13
1.57611e-09
-4.51706e-13
1.57531e-09
-4.42694e-13
1.57456e-09
-4.26261e-13
1.57386e-09
-4.07301e-13
1.57322e-09
-3.86791e-13
1.57264e-09
-3.6405e-13
1.57214e-09
-3.38905e-13
1.57171e-09
-3.11294e-13
1.57135e-09
-2.81793e-13
1.57108e-09
-2.50625e-13
1.57089e-09
-2.17137e-13
1.57078e-09
-1.82894e-13
1.57076e-09
-1.46909e-13
-1.02949e-13
1.57083e-09
4.51502e-10
4.51051e-10
4.50608e-10
4.50182e-10
4.49774e-10
4.49388e-10
4.49024e-10
4.48685e-10
4.48373e-10
4.48092e-10
4.47841e-10
4.47624e-10
4.47441e-10
4.47294e-10
4.47191e-10
1.24853e-09
-5.26639e-10
3.23192e-10
1.53848e-09
-4.73921e-10
1.8397e-10
1.82936e-09
-3.57733e-10
6.68572e-11
2.1143e-09
-2.4363e-10
-4.13122e-11
2.39107e-09
-1.38237e-10
-1.38526e-10
2.66021e-09
-5.03167e-11
-2.18831e-10
2.92302e-09
1.8257e-11
-2.81061e-10
3.18063e-09
6.64033e-11
-3.24018e-10
3.43406e-09
9.3689e-11
-3.47113e-10
3.68411e-09
1.00352e-10
-3.50406e-10
3.93144e-09
8.73974e-11
-3.34724e-10
4.17653e-09
5.71123e-11
-3.02211e-10
4.41982e-09
1.40374e-11
-2.57319e-10
4.66178e-09
-3.34607e-11
-2.08501e-10
4.90325e-09
-7.10284e-11
-1.70447e-10
5.14585e-09
-7.49211e-11
-1.6768e-10
5.39256e-09
-9.85337e-12
-2.36856e-10
5.6485e-09
1.75246e-10
-4.31184e-10
5.92156e-09
5.4496e-10
-8.18021e-10
6.22296e-09
1.16614e-09
-1.46754e-09
6.56462e-09
2.08622e-09
-2.42788e-09
6.95502e-09
3.27692e-09
-3.66733e-09
7.32854e-09
3.80036e-09
-4.17387e-09
7.64738e-09
3.60718e-09
-3.92602e-09
7.90373e-09
3.03984e-09
-3.29619e-09
8.09645e-09
2.24447e-09
-2.43719e-09
8.22759e-09
1.3379e-09
-1.46904e-09
8.29981e-09
4.01421e-10
-4.73645e-10
8.3153e-09
-5.07557e-10
4.9207e-10
8.27572e-09
-1.34483e-09
1.3844e-09
8.18273e-09
-2.07381e-09
2.16679e-09
8.03848e-09
-2.66445e-09
2.8087e-09
7.84587e-09
-3.09425e-09
3.28686e-09
7.60853e-09
-3.34946e-09
3.5868e-09
7.33048e-09
-3.42532e-09
3.70336e-09
7.01571e-09
-3.32488e-09
3.63965e-09
6.66774e-09
-3.0566e-09
3.40457e-09
6.28951e-09
-2.63078e-09
3.00901e-09
5.88369e-09
-2.05526e-09
2.46107e-09
5.45276e-09
-1.33141e-09
1.76234e-09
4.99729e-09
-4.57423e-10
9.12896e-10
4.50993e-09
5.51599e-10
-6.42424e-11
3.97701e-09
1.60474e-09
-1.07182e-09
3.40676e-09
2.4755e-09
-1.90525e-09
2.51734e-09
3.07377e-09
-2.18435e-09
2.59134e-09
-6.0678e-10
2.76122e-09
-6.43801e-10
2.9917e-09
-5.88207e-10
3.24844e-09
-5.0037e-10
3.51627e-09
-4.06071e-10
3.7873e-09
-3.21348e-10
4.05817e-09
-2.52611e-10
4.32749e-09
-2.02915e-10
4.59482e-09
-1.73638e-10
4.8601e-09
-1.64931e-10
5.12345e-09
-1.75952e-10
5.38502e-09
-2.04461e-10
5.64502e-09
-2.45961e-10
5.9038e-09
-2.92237e-10
6.16212e-09
-3.29357e-10
6.42164e-09
-3.34439e-10
6.68548e-09
-2.73693e-10
6.95912e-09
-9.83874e-11
7.25103e-09
2.53042e-10
7.57349e-09
8.43683e-10
7.93973e-09
1.71998e-09
8.35981e-09
2.85684e-09
8.76457e-09
3.39559e-09
9.11328e-09
3.25847e-09
9.39672e-09
2.75641e-09
9.61279e-09
2.0284e-09
9.76293e-09
1.18777e-09
9.84944e-09
3.14913e-10
9.87437e-09
-5.32493e-10
9.83952e-09
-1.30997e-09
9.74684e-09
-1.98113e-09
9.59904e-09
-2.51665e-09
9.39981e-09
-2.89502e-09
9.15382e-09
-3.10347e-09
8.86646e-09
-3.13796e-09
8.54352e-09
-3.00195e-09
8.191e-09
-2.70407e-09
7.81538e-09
-2.25517e-09
7.42491e-09
-1.66479e-09
7.03169e-09
-9.38188e-10
6.65411e-09
-7.98456e-11
6.31751e-09
8.88204e-10
6.05694e-09
1.8653e-09
5.9266e-09
2.60583e-09
2.5872e-09
5.85675e-09
4.49767e-09
-6.20405e-10
4.57142e-09
-7.17555e-10
4.71523e-09
-7.32015e-10
4.91296e-09
-6.98098e-10
5.14325e-09
-6.36364e-10
5.39269e-09
-5.70788e-10
5.65287e-09
-5.12789e-10
5.91889e-09
-4.68936e-10
6.1879e-09
-4.42651e-10
6.45825e-09
-4.35283e-10
6.72898e-09
-4.4668e-10
6.99952e-09
-4.74997e-10
7.26957e-09
-5.16011e-10
7.53914e-09
-5.61812e-10
7.80881e-09
-5.99022e-10
8.08011e-09
-6.0574e-10
8.35625e-09
-5.49832e-10
8.64299e-09
-3.85128e-10
8.94937e-09
-5.33361e-11
9.28869e-09
5.04359e-10
9.67562e-09
1.33305e-09
1.01219e-08
2.41055e-09
1.05557e-08
2.96177e-09
1.09334e-08
2.88077e-09
1.12441e-08
2.44577e-09
1.14843e-08
1.78816e-09
1.16547e-08
1.01739e-09
1.1757e-08
2.12628e-10
1.1793e-08
-5.68524e-10
1.17646e-08
-1.28162e-09
1.16743e-08
-1.89076e-09
1.15253e-08
-2.36763e-09
1.13223e-08
-2.69203e-09
1.10713e-08
-2.8525e-09
1.07794e-08
-2.8461e-09
1.04547e-08
-2.67722e-09
1.01062e-08
-2.35551e-09
9.74451e-09
-1.89352e-09
9.38421e-09
-1.30448e-09
9.04691e-09
-6.00891e-10
8.76567e-09
2.01396e-10
8.58611e-09
1.06776e-09
8.55233e-09
1.89909e-09
8.66696e-09
2.49121e-09
2.49852e-09
8.75563e-09
7.09453e-09
-5.9736e-10
7.10256e-09
-7.25582e-10
7.16329e-09
-7.92748e-10
7.28208e-09
-8.16893e-10
7.44999e-09
-8.04267e-10
7.65229e-09
-7.7309e-10
7.87825e-09
-7.3875e-10
8.12028e-09
-7.10963e-10
8.37299e-09
-6.95369e-10
8.63274e-09
-6.9503e-10
8.89705e-09
-7.1099e-10
9.16425e-09
-7.42195e-10
9.43323e-09
-7.84996e-10
9.70344e-09
-8.32015e-10
9.97503e-09
-8.70616e-10
1.02493e-08
-8.80031e-10
1.05295e-08
-8.29982e-10
1.08215e-08
-6.77114e-10
1.11348e-08
-3.66661e-10
1.14838e-08
1.55336e-10
1.18846e-08
9.32222e-10
1.23508e-08
1.94435e-09
1.28091e-08
2.50347e-09
1.32131e-08
2.47684e-09
1.35495e-08
2.10929e-09
1.38136e-08
1.52407e-09
1.40047e-08
8.26323e-10
1.41237e-08
9.36033e-11
1.41722e-08
-6.17008e-10
1.41521e-08
-1.2615e-09
1.40662e-08
-1.80487e-09
1.39187e-08
-2.22017e-09
1.37156e-08
-2.48886e-09
1.34642e-08
-2.60116e-09
1.31738e-08
-2.55569e-09
1.28549e-08
-2.35831e-09
1.25199e-08
-2.02047e-09
1.21837e-08
-1.5574e-09
1.18663e-08
-9.871e-10
1.15957e-08
-3.3024e-10
1.14109e-08
3.86204e-10
1.13596e-08
1.11906e-09
1.14749e-08
1.78381e-09
1.17282e-08
2.23783e-09
2.29973e-09
1.1927e-08
1.05487e-08
-5.58123e-10
1.0515e-08
-6.91869e-10
1.05137e-08
-7.91495e-10
1.05559e-08
-8.59076e-10
1.06454e-08
-8.9381e-10
1.07803e-08
-9.07914e-10
1.09486e-08
-9.07051e-10
1.11431e-08
-9.05504e-10
1.13572e-08
-9.09441e-10
1.15856e-08
-9.23415e-10
1.18243e-08
-9.49756e-10
1.20706e-08
-9.8842e-10
1.23221e-08
-1.03659e-09
1.25778e-08
-1.08762e-09
1.2837e-08
-1.12986e-09
1.31008e-08
-1.14383e-09
1.33722e-08
-1.10135e-09
1.36572e-08
-9.62152e-10
1.39658e-08
-6.75229e-10
1.43133e-08
-1.92171e-10
1.47173e-08
5.28215e-10
1.51931e-08
1.4685e-09
1.56679e-08
2.02866e-09
1.60926e-08
2.05219e-09
1.64513e-08
1.75057e-09
1.67372e-08
1.23822e-09
1.6948e-08
6.15497e-10
1.70837e-08
-4.21387e-11
1.71454e-08
-6.78676e-10
1.7135e-08
-1.25107e-09
1.70558e-08
-1.72567e-09
1.6913e-08
-2.07736e-09
1.67137e-08
-2.28965e-09
1.64674e-08
-2.35483e-09
1.61853e-08
-2.27351e-09
1.58805e-08
-2.05353e-09
1.55686e-08
-1.70859e-09
1.52682e-08
-1.25704e-09
1.50026e-08
-7.21436e-10
1.48012e-08
-1.28892e-10
1.47004e-08
4.86998e-10
1.47376e-08
1.08192e-09
1.49289e-08
1.59248e-09
1.52335e-08
1.93323e-09
2.02056e-09
1.55127e-08
1.50577e-08
-5.14897e-10
1.5004e-08
-6.38138e-10
1.4962e-08
-7.49463e-10
1.49455e-08
-8.42632e-10
1.49634e-08
-9.11707e-10
1.50208e-08
-9.65312e-10
1.51158e-08
-1.00199e-09
1.52427e-08
-1.0324e-09
1.53958e-08
-1.06255e-09
1.55699e-08
-1.09753e-09
1.57605e-08
-1.14032e-09
1.59637e-08
-1.19168e-09
1.61767e-08
-1.24961e-09
1.63974e-08
-1.30832e-09
1.66248e-08
-1.35726e-09
1.68594e-08
-1.37842e-09
1.7104e-08
-1.34594e-09
1.73648e-08
-1.22293e-09
1.76518e-08
-9.62283e-10
1.79817e-08
-5.21986e-10
1.83732e-08
1.36662e-10
1.88435e-08
9.98178e-10
1.93225e-08
1.54967e-09
1.97587e-08
1.61603e-09
2.01329e-08
1.37633e-09
2.04358e-08
9.35301e-10
2.06634e-08
3.87969e-10
2.08141e-08
-1.92892e-10
2.08885e-08
-7.53005e-10
2.08883e-08
-1.25092e-09
2.08176e-08
-1.65494e-09
2.06824e-08
-1.94221e-09
2.04915e-08
-2.09875e-09
2.0256e-08
-2.11928e-09
1.99892e-08
-2.00673e-09
1.97068e-08
-1.77116e-09
1.94269e-08
-1.42864e-09
1.91701e-08
-1.00024e-09
1.89603e-08
-5.11618e-10
1.88243e-08
7.01364e-12
1.87899e-08
5.21401e-10
1.88797e-08
9.92151e-10
1.9096e-08
1.37623e-09
1.94003e-08
1.62888e-09
1.71815e-09
1.97027e-08
2.08564e-08
-4.72637e-10
2.0798e-08
-5.79667e-10
2.07357e-08
-6.87205e-10
2.06812e-08
-7.88125e-10
2.06466e-08
-8.77095e-10
2.06369e-08
-9.55588e-10
2.06573e-08
-1.02239e-09
2.07073e-08
-1.08244e-09
2.07846e-08
-1.13982e-09
2.08857e-08
-1.1986e-09
2.10068e-08
-1.26149e-09
2.11446e-08
-1.32941e-09
2.12958e-08
-1.40085e-09
2.14582e-08
-1.47067e-09
2.16304e-08
-1.52948e-09
2.18127e-08
-1.56071e-09
2.20077e-08
-1.54102e-09
2.22219e-08
-1.43712e-09
2.24655e-08
-1.20588e-09
2.27562e-08
-8.1262e-10
2.31142e-08
-2.21366e-10
2.35581e-08
5.54297e-10
2.40237e-08
1.08402e-09
2.44577e-08
1.18209e-09
2.48366e-08
9.97349e-10
2.51484e-08
6.23558e-10
2.53865e-08
1.49828e-10
2.55481e-08
-3.54426e-10
2.56325e-08
-8.37449e-10
2.56417e-08
-1.26014e-09
2.55801e-08
-1.59333e-09
2.54549e-08
-1.81702e-09
2.52763e-08
-1.92008e-09
2.50569e-08
-1.89996e-09
2.48122e-08
-1.76203e-09
2.45596e-08
-1.51853e-09
2.43184e-08
-1.18747e-09
2.41097e-08
-7.91543e-10
2.39554e-08
-3.57296e-10
2.38766e-08
8.58407e-11
2.3891e-08
5.06976e-10
2.40077e-08
8.75506e-10
2.42196e-08
1.16429e-09
2.44958e-08
1.35269e-09
1.4324e-09
2.47816e-08
2.82233e-08
-4.30866e-10
2.81655e-08
-5.21818e-10
2.80968e-08
-6.18479e-10
2.80245e-08
-7.15846e-10
2.79573e-08
-8.09854e-10
2.79008e-08
-8.99153e-10
2.78614e-08
-9.82987e-10
2.78418e-08
-1.06283e-09
2.7843e-08
-1.14097e-09
2.78642e-08
-1.21985e-09
2.79039e-08
-1.30122e-09
2.796e-08
-1.3855e-09
2.80303e-08
-1.47115e-09
2.8113e-08
-1.55333e-09
2.82071e-08
-1.6236e-09
2.83131e-08
-1.66669e-09
2.84339e-08
-1.66187e-09
2.85764e-08
-1.57962e-09
2.87511e-08
-1.38052e-09
2.89769e-08
-1.03845e-09
2.92756e-08
-5.20113e-10
2.96668e-08
1.63129e-10
3.00963e-08
6.54535e-10
3.05093e-08
7.69111e-10
3.08775e-08
6.29123e-10
3.11855e-08
3.15541e-10
3.14243e-08
-8.89732e-11
3.1589e-08
-5.1915e-10
3.16782e-08
-9.26627e-10
3.16935e-08
-1.27546e-09
3.16399e-08
-1.53971e-09
3.15256e-08
-1.70266e-09
3.13619e-08
-1.75638e-09
3.1163e-08
-1.70114e-09
3.09457e-08
-1.54467e-09
3.07281e-08
-1.30095e-09
3.05297e-08
-9.89026e-10
3.03698e-08
-6.31665e-10
3.02665e-08
-2.54049e-10
3.02345e-08
1.17852e-10
3.02825e-08
4.59041e-10
3.04101e-08
7.47901e-10
3.06058e-08
9.68531e-10
3.08457e-08
1.11279e-09
1.18176e-09
3.10964e-08
3.74805e-08
-3.86614e-10
3.74224e-08
-4.63677e-10
3.73519e-08
-5.47958e-10
3.72725e-08
-6.36472e-10
3.7189e-08
-7.26376e-10
3.71059e-08
-8.16e-10
3.70275e-08
-9.04588e-10
3.69571e-08
-9.92419e-10
3.68967e-08
-1.08062e-09
3.68474e-08
-1.17054e-09
3.68092e-08
-1.26305e-09
3.67817e-08
-1.35799e-09
3.67642e-08
-1.45359e-09
3.67558e-08
-1.54501e-09
3.6757e-08
-1.62472e-09
3.67687e-08
-1.6784e-09
3.67948e-08
-1.68805e-09
3.68432e-08
-1.62799e-09
3.69247e-08
-1.46196e-09
3.706e-08
-1.17377e-09
3.72723e-08
-7.32442e-10
3.75818e-08
-1.4634e-10
3.79486e-08
2.8769e-10
3.83177e-08
4.00048e-10
3.86552e-08
2.91642e-10
3.89425e-08
2.82295e-11
3.91678e-08
-3.14278e-10
3.93243e-08
-6.75631e-10
3.94094e-08
-1.01175e-09
3.94246e-08
-1.2907e-09
3.93753e-08
-1.49039e-09
3.92704e-08
-1.5978e-09
3.91224e-08
-1.60831e-09
3.89462e-08
-1.52497e-09
3.8759e-08
-1.35742e-09
3.85787e-08
-1.12066e-09
3.84232e-08
-8.33607e-10
3.83091e-08
-5.17555e-10
3.82497e-08
-1.94609e-10
3.82534e-08
1.14145e-10
3.83226e-08
3.8986e-10
3.84519e-08
6.18551e-10
3.86289e-08
7.91551e-10
3.88351e-08
9.06628e-10
9.6769e-10
3.90491e-08
4.89831e-08
-3.3766e-10
4.89224e-08
-4.02971e-10
4.88499e-08
-4.75438e-10
4.87668e-08
-5.53435e-10
4.86756e-08
-6.35113e-10
4.85786e-08
-7.19063e-10
4.84785e-08
-8.04486e-10
4.83774e-08
-8.91249e-10
4.82766e-08
-9.79813e-10
4.81769e-08
-1.0709e-09
4.80788e-08
-1.16492e-09
4.79822e-08
-1.26138e-09
4.78871e-08
-1.35852e-09
4.77937e-08
-1.4516e-09
4.77032e-08
-1.5342e-09
4.76176e-08
-1.59285e-09
4.7542e-08
-1.61245e-09
4.74854e-08
-1.57136e-09
4.74591e-08
-1.4357e-09
4.7486e-08
-1.20064e-09
4.75905e-08
-8.36942e-10
4.7793e-08
-3.48893e-10
4.8072e-08
8.76354e-12
4.8373e-08
9.89915e-11
4.86574e-08
7.31968e-12
4.89039e-08
-2.18287e-10
4.90983e-08
-5.08688e-10
4.92317e-08
-8.09094e-10
4.93008e-08
-1.08085e-09
4.93068e-08
-1.2967e-09
4.92554e-08
-1.43893e-09
4.9156e-08
-1.49844e-09
4.90216e-08
-1.47387e-09
4.88673e-08
-1.37065e-09
4.87096e-08
-1.19973e-09
4.85651e-08
-9.76171e-10
4.84491e-08
-7.17635e-10
4.83744e-08
-4.42805e-10
4.83495e-08
-1.69785e-10
4.83782e-08
8.55275e-11
4.84589e-08
3.0907e-10
4.85845e-08
4.92988e-10
4.87433e-08
6.32712e-10
4.89214e-08
7.28538e-10
7.84611e-10
4.91045e-08
6.31052e-08
-2.84539e-10
6.30419e-08
-3.3968e-10
6.29677e-08
-4.01278e-10
6.28828e-08
-4.68544e-10
6.27881e-08
-5.40367e-10
6.26847e-08
-6.15684e-10
6.25739e-08
-6.93718e-10
6.24568e-08
-7.74099e-10
6.23338e-08
-8.56808e-10
6.22049e-08
-9.42067e-10
6.20699e-08
-1.0299e-09
6.19281e-08
-1.1196e-09
6.17793e-08
-1.20963e-09
6.16231e-08
-1.29542e-09
6.1461e-08
-1.37209e-09
6.12952e-08
-1.42706e-09
6.11312e-08
-1.44848e-09
6.09789e-08
-1.41906e-09
6.08501e-08
-1.30685e-09
6.07686e-08
-1.11912e-09
6.07598e-08
-8.28149e-10
6.08447e-08
-4.33871e-10
6.10205e-08
-1.66954e-10
6.12344e-08
-1.14963e-10
6.1445e-08
-2.03303e-10
6.1632e-08
-4.05264e-10
6.17779e-08
-6.54564e-10
6.18727e-08
-9.03874e-10
6.19124e-08
-1.12061e-09
6.18984e-08
-1.28271e-09
6.18366e-08
-1.37707e-09
6.17366e-08
-1.39848e-09
6.16113e-08
-1.34854e-09
6.14751e-08
-1.23445e-09
6.1343e-08
-1.06763e-09
6.12291e-08
-8.62339e-10
6.11456e-08
-6.34119e-10
6.11013e-08
-3.98481e-10
6.1101e-08
-1.69511e-10
6.11446e-08
4.19935e-11
6.12293e-08
2.24349e-10
6.13473e-08
3.74973e-10
6.1489e-08
4.91023e-10
6.16438e-08
5.7374e-10
6.26659e-10
6.18017e-08
8.02395e-08
-2.30758e-10
8.01767e-08
-2.76947e-10
8.01041e-08
-3.28635e-10
8.00211e-08
-3.85509e-10
7.99276e-08
-4.46954e-10
7.98242e-08
-5.12242e-10
7.97112e-08
-5.80691e-10
7.95889e-08
-6.51809e-10
7.94573e-08
-7.25232e-10
7.9316e-08
-8.00753e-10
7.91641e-08
-8.77989e-10
7.90004e-08
-9.55945e-10
7.8824e-08
-1.03324e-09
7.8634e-08
-1.1054e-09
7.84311e-08
-1.16916e-09
7.82168e-08
-1.21274e-09
7.79962e-08
-1.2279e-09
7.77784e-08
-1.20131e-09
7.75756e-08
-1.104e-09
7.74102e-08
-9.53727e-10
7.73064e-08
-7.24339e-10
7.72901e-08
-4.17573e-10
7.73669e-08
-2.43798e-10
7.74862e-08
-2.34253e-10
7.7613e-08
-3.30117e-10
7.77296e-08
-5.21809e-10
7.78152e-08
-7.40137e-10
7.78597e-08
-9.48382e-10
7.78596e-08
-1.12053e-09
7.78166e-08
-1.23972e-09
7.77369e-08
-1.29738e-09
7.76302e-08
-1.29182e-09
7.75087e-08
-1.22695e-09
7.73852e-08
-1.11096e-09
7.72725e-08
-9.54977e-10
7.71819e-08
-7.71699e-10
7.71219e-08
-5.74144e-10
7.70979e-08
-3.74523e-10
7.71118e-08
-1.83385e-10
7.71627e-08
-8.87603e-12
7.72448e-08
1.42206e-10
7.73525e-08
2.67334e-10
7.74775e-08
3.65939e-10
7.76121e-08
4.39176e-10
4.89764e-10
7.7749e-08
1.0083e-07
-1.8075e-10
1.00772e-07
-2.19072e-10
1.00705e-07
-2.61861e-10
1.00629e-07
-3.09035e-10
1.00542e-07
-3.60277e-10
1.00445e-07
-4.15119e-10
1.00337e-07
-4.72999e-10
1.00219e-07
-5.33404e-10
1.00089e-07
-5.95767e-10
9.99481e-08
-6.59595e-10
9.97943e-08
-7.24154e-10
9.96266e-08
-7.88204e-10
9.94437e-08
-8.50397e-10
9.92447e-08
-9.06354e-10
9.90296e-08
-9.54112e-10
9.87995e-08
-9.82644e-10
9.85591e-08
-9.87441e-10
9.83151e-08
-9.57317e-10
9.80804e-08
-8.69367e-10
9.78741e-08
-7.47443e-10
9.7713e-08
-5.63176e-10
9.76362e-08
-3.40761e-10
9.76415e-08
-2.49085e-10
9.76777e-08
-2.70513e-10
9.77295e-08
-3.81908e-10
9.77811e-08
-5.73368e-10
9.78072e-08
-7.6628e-10
9.78e-08
-9.41207e-10
9.77579e-08
-1.07836e-09
9.76835e-08
-1.16537e-09
9.75836e-08
-1.1975e-09
9.74677e-08
-1.17589e-09
9.73467e-08
-1.10591e-09
9.72316e-08
-9.95914e-10
9.71327e-08
-8.56034e-10
9.7058e-08
-6.97029e-10
9.70132e-08
-5.29353e-10
9.7001e-08
-3.62335e-10
9.70215e-08
-2.03802e-10
9.70721e-08