/*--------------------------------*- C++ -*----------------------------------*\
| =========                 |                                                 |
| \\      /  F ield         | OpenFOAM: The Open Source CFD Toolbox           |
|  \\    /   O peration     | Version:  2312                                  |
|   \\  /    A nd           | Website:  www.openfoam.com                      |
|    \\/     M anipulation  |                                                 |
\*---------------------------------------------------------------------------*/
FoamFile
{
    version     2.0;
    format      ascii;
    arch        "LSB;label=32;scalar=64";
    class       volVectorField;
    location    "6.75";
    object      U;
}
// * * * * * * * * * * * * * * * * * * * * * * * * * * * * * * * * * * * * * //

dimensions      [0 1 -1 0 0 0 0];

internalField   nonuniform List<vector> 
4800
(
(0.000463171 3.13154e-07 -2.68002e-26)
(0.000455504 3.43515e-07 -1.88383e-25)
(0.000450886 3.55074e-07 2.41787e-25)
(0.000448299 3.45682e-07 1.10603e-25)
(0.000447142 3.27717e-07 1.63351e-24)
(0.000447162 2.95309e-07 -3.89041e-24)
(0.00044811 2.55668e-07 3.64424e-24)
(0.00044989 1.79244e-07 -5.29074e-24)
(0.000452583 2.33176e-08 1.69631e-24)
(0.000456373 -2.416e-07 5.789e-24)
(0.000461662 -7.53692e-07 -1.78392e-24)
(0.000469736 -2.15878e-06 -1.51065e-25)
(0.000487803 -7.33095e-06 -2.17689e-24)
(0.000533723 -2.8213e-05 1.01275e-24)
(0.000609645 -9.17228e-05 -8.05192e-25)
(0.00143216 1.63467e-06 -8.52658e-26)
(0.00140872 1.18276e-06 1.06273e-25)
(0.00139436 8.22348e-07 -9.79922e-25)
(0.00138605 4.95792e-07 7.32221e-25)
(0.001382 1.789e-07 2.3527e-24)
(0.0013814 -1.65633e-07 -3.73548e-24)
(0.00138344 -5.61656e-07 -1.06723e-24)
(0.00138788 -1.08786e-06 -2.55593e-25)
(0.00139494 -1.91401e-06 8.78976e-24)
(0.00140504 -3.24115e-06 -6.49474e-24)
(0.00141937 -5.70945e-06 7.06976e-25)
(0.00144069 -1.15606e-05 1.07839e-24)
(0.00147785 -2.8442e-05 -1.59527e-24)
(0.00154152 -7.98133e-05 -4.83241e-25)
(0.00161013 -0.000195521 2.08683e-24)
(0.00250325 5.25635e-06 -6.10436e-26)
(0.0024629 3.79684e-06 6.23752e-26)
(0.00243783 2.66315e-06 6.41416e-25)
(0.00242295 1.67832e-06 -1.52969e-24)
(0.00241525 7.0172e-07 1.50174e-24)
(0.00241326 -3.64858e-07 1.40014e-24)
(0.00241562 -1.59972e-06 -3.61787e-24)
(0.00242177 -3.22949e-06 -2.27032e-24)
(0.00243215 -5.61884e-06 5.45246e-24)
(0.002447 -9.31561e-06 2.05678e-24)
(0.00246769 -1.58169e-05 -7.15108e-24)
(0.00249641 -2.91039e-05 -1.08529e-24)
(0.00253726 -5.86979e-05 3.05518e-24)
(0.00258906 -0.000123853 4.83611e-24)
(0.00262671 -0.000232083 -2.49867e-24)
(0.00368244 1.17627e-05 2.25669e-26)
(0.00362435 8.60354e-06 -1.57142e-25)
(0.00358774 6.15838e-06 7.00903e-25)
(0.00356546 4.04885e-06 7.5049e-25)
(0.00355329 1.97603e-06 -7.45122e-25)
(0.00354892 -2.88228e-07 -4.2335e-24)
(0.00355068 -2.78274e-06 -2.86607e-24)
(0.0035573 -6.09457e-06 1.09628e-23)
(0.00356943 -1.08386e-05 4.57386e-24)
(0.0035867 -1.78328e-05 -6.56814e-24)
(0.00360994 -2.92339e-05 -2.64658e-24)
(0.00363957 -4.95769e-05 -2.01987e-24)
(0.00367486 -8.68458e-05 6.04404e-26)
(0.00370867 -0.000150974 1.494e-24)
(0.00372276 -0.000236953 7.30269e-27)
(0.00497358 2.17829e-05 -4.14154e-26)
(0.00489768 1.60954e-05 -2.53311e-25)
(0.00484907 1.17014e-05 -1.6033e-25)
(0.00481874 7.93031e-06 4.33183e-25)
(0.00480132 4.28344e-06 -1.23262e-24)
(0.00479351 4.37454e-07 3.07636e-24)
(0.00479361 -4.00233e-06 -5.36725e-25)
(0.00479937 -9.34811e-06 1.8884e-24)
(0.00481131 -1.69378e-05 -1.0589e-23)
(0.00482839 -2.75608e-05 2.01047e-23)
(0.00485042 -4.34814e-05 -1.94532e-23)
(0.00487614 -6.84324e-05 1.02677e-23)
(0.00490217 -0.000107242 -9.52982e-24)
(0.00492085 -0.000162946 8.9905e-24)
(0.00492184 -0.00022796 -3.58518e-24)
(0.00637679 3.60249e-05 5.47197e-26)
(0.00628435 2.68996e-05 1.95906e-25)
(0.00622411 1.98556e-05 -1.03383e-24)
(0.00618555 1.38401e-05 -6.54933e-25)
(0.00616236 8.1227e-06 1.75643e-24)
(0.00615041 2.15383e-06 6.30704e-25)
(0.00614747 -4.45644e-06 -4.93039e-24)
(0.00615123 -1.24143e-05 1.17721e-23)
(0.00616105 -2.29507e-05 -1.53443e-23)
(0.00617551 -3.69778e-05 3.67833e-24)
(0.00619346 -5.63152e-05 1.11984e-23)
(0.00621262 -8.3245e-05 -1.55581e-23)
(0.00622914 -0.000119651 7.79097e-24)
(0.0062373 -0.000164996 7.98577e-24)
(0.00623238 -0.00021306 -6.07889e-24)
(0.0078863 5.49978e-05 4.52504e-26)
(0.00778082 4.15526e-05 -2.67659e-25)
(0.00771074 3.11576e-05 9.58703e-25)
(0.00766474 2.23129e-05 -1.33022e-24)
(0.00763588 1.40369e-05 -4.5225e-24)
(0.00761948 5.54785e-06 7.71047e-24)
(0.00761273 -3.63094e-06 -4.68433e-24)
(0.00761323 -1.43418e-05 1.59531e-23)
(0.00761945 -2.76978e-05 -1.08497e-23)
(0.00762957 -4.45161e-05 -5.07369e-24)
(0.00764176 -6.59106e-05 -9.98452e-24)
(0.00765356 -9.27846e-05 9.1797e-24)
(0.00766183 -0.000125121 2.58227e-24)
(0.00766309 -0.000161133 2.20884e-24)
(0.00765581 -0.000196658 -1.9436e-24)
(0.00948814 7.86059e-05 -6.5214e-26)
(0.00937633 6.01913e-05 8.85698e-25)
(0.00930036 4.58729e-05 -2.06211e-24)
(0.0092492 3.37038e-05 -1.68959e-24)
(0.00921587 2.24542e-05 6.31668e-25)
(0.00919551 1.11596e-05 1.24403e-24)
(0.00918492 -8.14142e-07 4.46971e-24)
(0.00918154 -1.42325e-05 -1.21823e-23)
(0.00918337 -3.00578e-05 -6.50608e-24)
(0.00918831 -4.88415e-05 1.78949e-23)
(0.00919434 -7.10184e-05 -5.54865e-24)
(0.00919927 -9.65473e-05 1.89729e-23)
(0.00920099 -0.000124567 -9.98819e-24)
(0.00919765 -0.000153278 -3.18269e-24)
(0.00918926 -0.000180163 1.88432e-24)
(0.0111591 0.000105609 -8.62095e-27)
(0.0110513 8.21246e-05 4.89564e-25)
(0.010976 6.3646e-05 -6.97141e-25)
(0.010924 4.78943e-05 1.67141e-24)
(0.0108889 3.34437e-05 -9.97001e-24)
(0.0108663 1.922e-05 1.05277e-23)
(0.0108529 4.4835e-06 -1.65996e-23)
(0.010846 -1.14259e-05 1.02033e-23)
(0.0108436 -2.92044e-05 7.59207e-24)
(0.0108437 -4.91127e-05 1.64858e-23)
(0.0108442 -7.1099e-05 -2.1532e-23)
(0.0108436 -9.46607e-05 -3.98226e-24)
(0.0108405 -0.000118791 1.83883e-24)
(0.0108341 -0.000142138 1.31241e-23)
(0.0108251 -0.000163277 -5.33704e-24)
(0.0128696 0.00013311 4.71878e-26)
(0.0127785 0.000105347 -2.05386e-25)
(0.0127128 8.30576e-05 9.18852e-25)
(0.012666 6.38859e-05 -3.22316e-24)
(0.0126335 4.63398e-05 4.88692e-24)
(0.0126117 2.93313e-05 -6.31172e-24)
(0.0125976 1.2115e-05 1.05686e-23)
(0.0125888 -5.85477e-06 1.85437e-24)
(0.0125836 -2.49683e-05 -1.45709e-23)
(0.01258 -4.52621e-05 2.07518e-23)
(0.0125767 -6.64361e-05 -2.28855e-23)
(0.0125723 -8.7886e-05 -6.73513e-24)
(0.0125663 -0.000108783 1.18797e-23)
(0.0125583 -0.000128268 3.5222e-24)
(0.0125489 -0.000145584 -1.53833e-24)
(0.0145937 0.000156689 1.87686e-25)
(0.0145304 0.000126395 -1.5964e-24)
(0.0144827 0.000101363 -2.57041e-24)
(0.0144477 7.94861e-05 6.09182e-24)
(0.0144229 5.9395e-05 2.72514e-24)
(0.0144056 4.01064e-05 -1.71163e-23)
(0.0143939 2.09738e-05 5.27239e-24)
(0.0143858 1.58854e-06 3.79756e-24)
(0.0143799 -1.81874e-05 -1.64229e-23)
(0.0143749 -3.82591e-05 1.71071e-23)
(0.0143699 -5.82711e-05 -1.36852e-23)
(0.0143639 -7.77141e-05 3.51546e-23)
(0.0143569 -9.60208e-05 -1.68946e-23)
(0.0143485 -0.000112715 9.9411e-24)
(0.0143397 -0.000127436 -2.71213e-24)
(0.0163248 0.000172135 -6.93165e-26)
(0.0162921 0.000141361 1.0761e-24)
(0.0162664 0.000115082 -2.11474e-24)
(0.0162472 9.16372e-05 -1.07736e-24)
(0.0162334 6.99355e-05 1.20325e-23)
(0.0162238 4.9205e-05 -1.74606e-24)
(0.0162171 2.89658e-05 -2.14032e-23)
(0.0162122 8.97516e-06 2.49658e-23)
(0.0162081 -1.07764e-05 -5.60956e-24)
(0.0162039 -3.01307e-05 -1.94081e-23)
(0.0161993 -4.87852e-05 2.06999e-23)
(0.0161938 -6.63932e-05 1.11552e-23)
(0.0161876 -8.26216e-05 -9.38522e-24)
(0.0161802 -9.72495e-05 -1.62442e-23)
(0.0161727 -0.000110137 1.36289e-24)
(0.0180824 0.000178497 -2.55309e-27)
(0.0180728 0.00014841 -1.19575e-24)
(0.0180652 0.000122008 5.73185e-24)
(0.0180599 9.80274e-05 3.70566e-25)
(0.0180567 7.56672e-05 3.28674e-24)
(0.0180548 5.43928e-05 -1.17484e-23)
(0.0180538 3.38967e-05 1.00419e-23)
(0.0180529 1.40699e-05 2.28764e-24)
(0.0180517 -5.04856e-06 2.06495e-23)
(0.0180498 -2.33088e-05 -3.19018e-23)
(0.0180471 -4.05031e-05 -1.44366e-23)
(0.0180433 -5.64382e-05 -9.53771e-24)
(0.0180389 -7.09535e-05 1.79612e-23)
(0.0180334 -8.3981e-05 -5.16368e-25)
(0.0180279 -9.55009e-05 1.74003e-24)
(0.0198932 0.000179113 -1.77469e-26)
(0.0198939 0.000149621 1.21577e-24)
(0.0198953 0.000123328 -1.7731e-24)
(0.0198975 9.92296e-05 -7.52463e-28)
(0.0199003 7.67338e-05 2.3729e-24)
(0.0199031 5.54819e-05 6.0515e-24)
(0.0199056 3.52885e-05 -2.34677e-23)
(0.0199074 1.61011e-05 1.97782e-24)
(0.0199083 -2.04197e-06 1.19362e-23)
(0.0199083 -1.90541e-05 -5.4962e-24)
(0.0199073 -3.48292e-05 1.5008e-23)
(0.0199052 -4.92932e-05 1.05031e-23)
(0.0199025 -6.24006e-05 -1.90588e-23)
(0.019899 -7.41692e-05 1.30319e-23)
(0.0198953 -8.46405e-05 -1.08335e-23)
(0.0217516 0.000178079 -5.27375e-25)
(0.0217547 0.000148873 2.76223e-25)
(0.0217581 0.000122562 2.10649e-24)
(0.0217619 9.83817e-05 -1.09493e-23)
(0.0217658 7.58966e-05 9.65419e-24)
(0.0217694 5.48639e-05 -7.07494e-24)
(0.0217724 3.51571e-05 5.07083e-24)
(0.0217746 1.67278e-05 -3.606e-23)
(0.021776 -4.3222e-07 5.20478e-23)
(0.0217763 -1.63076e-05 -3.06754e-23)
(0.0217759 -3.08849e-05 2.74025e-23)
(0.0217746 -4.41769e-05 2.29162e-23)
(0.0217728 -5.62104e-05 -4.00359e-23)
(0.0217702 -6.70496e-05 1.30249e-23)
(0.0217676 -7.67649e-05 -5.47172e-25)
(0.0236026 0.000176586 -1.86965e-26)
(0.0236066 0.000147966 -1.60679e-25)
(0.0236103 0.000121889 1.22296e-25)
(0.0236137 9.78676e-05 -3.01712e-25)
(0.0236169 7.56167e-05 3.93262e-24)
(0.0236197 5.49759e-05 -6.76716e-24)
(0.0236218 3.5848e-05 6.30418e-24)
(0.0236232 1.81673e-05 -1.99839e-23)
(0.0236239 1.87938e-06 4.55052e-23)
(0.0236238 -1.30646e-05 -5.82867e-23)
(0.0236231 -2.67195e-05 4.77733e-23)
(0.0236217 -3.91526e-05 -1.61389e-23)
(0.02362 -5.0431e-05 8.3899e-25)
(0.0236176 -6.06414e-05 3.70212e-24)
(0.0236153 -6.98658e-05 -7.10256e-24)
(0.0253543 0.000173561 -1.5476e-24)
(0.0253603 0.00014622 2.7859e-24)
(0.0253648 0.000120989 -9.35441e-25)
(0.0253684 9.76547e-05 -1.51586e-24)
(0.0253714 7.60726e-05 6.18946e-24)
(0.0253736 5.61416e-05 -6.30671e-24)
(0.0253752 3.77805e-05 -5.70314e-24)
(0.025376 2.09086e-05 -1.3801e-23)
(0.0253761 5.44418e-06 7.02596e-24)
(0.0253756 -8.70093e-06 3.36059e-23)
(0.0253746 -2.16201e-05 -1.77541e-23)
(0.025373 -3.34053e-05 1.05965e-23)
(0.0253713 -4.41413e-05 -4.36122e-24)
(0.025369 -5.39214e-05 -1.29327e-23)
(0.0253667 -6.28288e-05 6.62139e-24)
(0.0268912 0.000167937 5.08049e-25)
(0.0268993 0.000142581 -8.82053e-25)
(0.0269052 0.000118864 -2.58873e-25)
(0.0269095 9.68063e-05 -7.39428e-25)
(0.0269127 7.63789e-05 -1.83855e-24)
(0.026915 5.75228e-05 9.55853e-24)
(0.0269165 4.0169e-05 -7.69731e-24)
(0.0269172 2.42262e-05 -4.97155e-24)
(0.0269173 9.60385e-06 4.55462e-24)
(0.0269168 -3.80224e-06 -5.37874e-24)
(0.0269158 -1.60826e-05 1.25344e-23)
(0.0269143 -2.73354e-05 6.36415e-24)
(0.0269127 -3.76507e-05 -2.37545e-23)
(0.0269106 -4.71192e-05 1.64164e-23)
(0.0269085 -5.58165e-05 -3.34901e-24)
(0.0280636 0.000159537 1.50079e-24)
(0.0280734 0.000136717 2.5292e-24)
(0.0280805 0.000115085 -5.63448e-24)
(0.0280856 9.48191e-05 -2.92712e-25)
(0.0280894 7.59771e-05 1.28513e-24)
(0.0280921 5.85324e-05 -2.90889e-24)
(0.0280938 4.24305e-05 -4.63547e-24)
(0.0280948 2.75824e-05 1.00483e-23)
(0.0280951 1.39016e-05 1.12252e-23)
(0.0280948 1.28487e-06 -2.72662e-23)
(0.0280941 -1.03508e-05 1.57282e-23)
(0.0280929 -2.11001e-05 -1.10012e-24)
(0.0280915 -3.10433e-05 -9.17532e-25)
(0.0280898 -4.02575e-05 1.23768e-24)
(0.028088 -4.88037e-05 -5.71229e-25)
(0.0286687 0.000146952 -3.93414e-24)
(0.0286803 0.000127099 -8.4581e-24)
(0.0286889 0.000108027 4.56347e-24)
(0.0286953 9.00012e-05 1.53955e-23)
(0.0287002 7.31243e-05 -4.29478e-24)
(0.0287038 5.74021e-05 -1.19242e-24)
(0.0287064 4.27946e-05 5.4907e-25)
(0.0287082 2.92337e-05 -4.51061e-24)
(0.0287092 1.66459e-05 1.2211e-23)
(0.0287096 4.95045e-06 -5.3957e-24)
(0.0287094 -5.92757e-06 3.23375e-24)
(0.0287087 -1.60663e-05 -5.11408e-24)
(0.0287076 -2.55251e-05 -5.85863e-24)
(0.0287061 -3.43637e-05 8.77626e-24)
(0.0287044 -4.26287e-05 -3.83748e-24)
(0.0284903 0.000132888 6.23338e-24)
(0.0285024 0.000115976 -1.43187e-23)
(0.0285117 9.95175e-05 2.3479e-24)
(0.0285189 8.38032e-05 2.06309e-23)
(0.0285245 6.89542e-05 -1.99989e-23)
(0.0285288 5.4998e-05 6.94664e-24)
(0.0285321 4.19074e-05 4.45803e-24)
(0.0285345 2.9637e-05 -1.00345e-23)
(0.0285361 1.81285e-05 2.37826e-24)
(0.0285371 7.333e-06 1.08925e-24)
(0.0285374 -2.80147e-06 -1.02477e-24)
(0.0285373 -1.23067e-05 2.14604e-24)
(0.0285367 -2.12231e-05 -2.63243e-24)
(0.0285357 -2.96025e-05 1.78693e-24)
(0.0285344 -3.74863e-05 -8.29411e-25)
(0.0275592 0.00011755 3.86591e-24)
(0.0275722 0.000103333 -8.15332e-24)
(0.0275822 8.93649e-05 -5.60755e-24)
(0.02759 7.59092e-05 2.63492e-23)
(0.027596 6.30858e-05 -2.41735e-23)
(0.0276005 5.09238e-05 2.58475e-24)
(0.0276038 3.94129e-05 4.03411e-24)
(0.0276062 2.85188e-05 2.16285e-24)
(0.0276076 1.82104e-05 1.6797e-24)
(0.0276084 8.45225e-06 -7.64163e-24)
(0.0276085 -7.76146e-07 4.91541e-24)
(0.0276081 -9.50689e-06 7.34868e-25)
(0.0276072 -1.77702e-05 -1.6727e-24)
(0.027606 -2.55975e-05 9.21126e-25)
(0.0276043 -3.3012e-05 5.94604e-25)
(0.0260764 0.000102228 9.61585e-24)
(0.0260896 9.0362e-05 -1.70721e-23)
(0.0261003 7.8619e-05 3.48598e-24)
(0.0261089 6.72213e-05 -8.26697e-24)
(0.0261159 5.62724e-05 -1.06701e-23)
(0.0261214 4.58016e-05 3.62101e-23)
(0.0261257 3.58092e-05 -1.39711e-23)
(0.026129 2.6277e-05 3.89169e-24)
(0.0261314 1.71907e-05 -2.12738e-24)
(0.026133 8.52581e-06 -4.92304e-24)
(0.0261339 2.64623e-07 8.94508e-24)
(0.0261343 -7.6319e-06 -4.39006e-24)
(0.026134 -1.51752e-05 6.88926e-25)
(0.0261333 -2.23732e-05 2.19142e-25)
(0.026132 -2.923e-05 2.24654e-26)
(0.0242768 8.88926e-05 3.70232e-24)
(0.0242901 7.89463e-05 -1.91271e-23)
(0.024301 6.90294e-05 3.31582e-23)
(0.0243101 5.93245e-05 -2.52869e-23)
(0.0243174 4.99162e-05 2.52042e-23)
(0.0243234 4.08383e-05 -8.38055e-24)
(0.0243282 3.20961e-05 -5.76947e-24)
(0.0243319 2.36889e-05 -6.23703e-24)
(0.0243347 1.56052e-05 1.07677e-23)
(0.0243367 7.83842e-06 -6.13758e-25)
(0.0243379 3.70393e-07 -9.9798e-24)
(0.0243385 -6.79591e-06 -1.06508e-24)
(0.0243384 -1.36644e-05 1.92568e-24)
(0.0243378 -2.02397e-05 -3.2551e-25)
(0.0243366 -2.6521e-05 4.72771e-26)
(0.022296 7.65382e-05 4.92747e-25)
(0.0223094 6.81945e-05 -7.1988e-24)
(0.0223207 5.98154e-05 -4.01732e-24)
(0.0223302 5.15449e-05 3.28373e-23)
(0.022338 4.34568e-05 -3.22587e-23)
(0.0223445 3.55858e-05 9.41993e-24)
(0.0223497 2.79486e-05 1.58378e-24)
(0.0223539 2.05522e-05 -8.26211e-25)
(0.022357 1.33996e-05 -3.83252e-24)
(0.0223593 6.49019e-06 1.64562e-23)
(0.0223608 -1.72411e-07 -1.3038e-23)
(0.0223616 -6.58633e-06 -5.11302e-25)
(0.0223617 -1.2749e-05 1.05081e-24)
(0.0223612 -1.86595e-05 6.83385e-25)
(0.0223601 -2.43137e-05 -5.06229e-25)
(0.0202366 6.50283e-05 7.33455e-25)
(0.0202502 5.80208e-05 6.69119e-24)
(0.0202619 5.09438e-05 -7.67831e-24)
(0.0202718 4.39102e-05 -5.30829e-24)
(0.0202801 3.69826e-05 3.37504e-23)
(0.0202871 3.01958e-05 -2.58121e-23)
(0.0202928 2.35737e-05 -5.94837e-25)
(0.0202973 1.71287e-05 -5.30136e-24)
(0.0203009 1.08724e-05 -4.02996e-25)
(0.0203036 4.80841e-06 7.7524e-25)
(0.0203054 -1.05047e-06 -2.69224e-24)
(0.0203064 -6.70627e-06 2.29895e-24)
(0.0203066 -1.21524e-05 8.28755e-25)
(0.0203062 -1.7383e-05 7.03139e-25)
(0.0203051 -2.23904e-05 6.26917e-25)
(0.0181733 5.43066e-05 5.22806e-24)
(0.0181872 4.8425e-05 -8.01622e-24)
(0.0181992 4.24665e-05 -6.43151e-24)
(0.0182095 3.65167e-05 1.96149e-23)
(0.0182183 3.0625e-05 -7.02553e-24)
(0.0182257 2.48255e-05 -9.8641e-24)
(0.0182318 1.91433e-05 3.45256e-24)
(0.0182368 1.35948e-05 7.67659e-24)
(0.0182407 8.19302e-06 -1.21611e-23)
(0.0182437 2.94394e-06 1.19808e-23)
(0.0182457 -2.1398e-06 -6.32963e-24)
(0.0182469 -7.05523e-06 2.65658e-24)
(0.0182473 -1.17929e-05 -3.29499e-24)
(0.0182469 -1.63444e-05 3.16502e-24)
(0.0182457 -2.07003e-05 -7.1288e-25)
(0.0161588 4.43452e-05 -1.01479e-24)
(0.0161729 3.9436e-05 -3.52152e-24)
(0.0161851 3.44593e-05 -1.12195e-23)
(0.0161957 2.94749e-05 3.13223e-23)
(0.0162047 2.45195e-05 -5.61805e-24)
(0.0162124 1.9626e-05 -8.82139e-24)
(0.0162188 1.48169e-05 3.04577e-24)
(0.016224 1.01126e-05 -4.41889e-24)
(0.0162281 5.5196e-06 -9.48644e-24)
(0.0162312 1.05931e-06 9.14048e-24)
(0.0162332 -3.27552e-06 4.36851e-25)
(0.0162344 -7.46939e-06 -2.8161e-24)
(0.0162347 -1.15083e-05 3.21635e-24)
(0.0162341 -1.53839e-05 1.75798e-25)
(0.0162327 -1.9087e-05 -2.25822e-25)
(0.0142281 3.52314e-05 3.90528e-24)
(0.0142419 3.11844e-05 5.74451e-24)
(0.014254 2.70865e-05 -5.35648e-24)
(0.0142646 2.29731e-05 -1.16958e-23)
(0.0142736 1.88727e-05 1.57374e-23)
(0.0142812 1.48156e-05 -1.72186e-23)
(0.0142876 1.08228e-05 -6.61551e-25)
(0.0142927 6.91139e-06 6.66802e-24)
(0.0142966 3.0901e-06 2.31741e-24)
(0.0142995 -6.23719e-07 -4.75945e-24)
(0.0143013 -4.23406e-06 3.60075e-26)
(0.0143022 -7.72209e-06 9.60898e-24)
(0.0143021 -1.10753e-05 -3.66853e-24)
(0.0143011 -1.42864e-05 -9.0489e-25)
(0.0142992 -1.73465e-05 -5.37845e-26)
(0.0124019 2.71329e-05 -4.05666e-24)
(0.0124151 2.38622e-05 5.22207e-24)
(0.0124268 2.05567e-05 5.87606e-25)
(0.0124368 1.72321e-05 1.05701e-23)
(0.0124454 1.39138e-05 -8.61655e-24)
(0.0124526 1.0628e-05 6.86751e-25)
(0.0124585 7.39365e-06 -9.25484e-25)
(0.0124632 4.22223e-06 -2.70853e-24)
(0.0124667 1.12915e-06 2.35794e-24)
(0.012469 -1.88866e-06 -7.61065e-24)
(0.0124703 -4.80787e-06 5.45301e-25)
(0.0124706 -7.62107e-06 1.81456e-24)
(0.0124698 -1.03206e-05 1.12128e-24)
(0.0124682 -1.28994e-05 4.32152e-25)
(0.0124656 -1.5348e-05 1.49148e-25)
(0.0106914 2.02051e-05 3.00465e-24)
(0.0107036 1.76308e-05 -2.37702e-24)
(0.0107143 1.50338e-05 -1.04536e-23)
(0.0107235 1.24172e-05 9.81539e-24)
(0.0107312 9.80547e-06 1.3717e-23)
(0.0107376 7.22017e-06 -3.47683e-24)
(0.0107428 4.67593e-06 -7.09209e-24)
(0.0107467 2.18262e-06 -9.94672e-24)
(0.0107494 -2.47781e-07 7.49988e-24)
(0.010751 -2.61684e-06 4.36076e-25)
(0.0107516 -4.90228e-06 -1.67916e-24)
(0.0107511 -7.09907e-06 -4.48376e-25)
(0.0107496 -9.20167e-06 9.23178e-25)
(0.0107471 -1.12033e-05 -3.59893e-26)
(0.0107438 -1.30955e-05 -1.72126e-25)
(0.00910101 1.45179e-05 -1.89074e-24)
(0.00911181 1.25554e-05 -1.34791e-24)
(0.00912121 1.05783e-05 1.64054e-24)
(0.00912922 8.58352e-06 -5.21049e-24)
(0.00913589 6.59488e-06 1.71022e-23)
(0.00914128 4.6281e-06 -2.26882e-23)
(0.00914545 2.69356e-06 2.2267e-23)
(0.00914844 8.01436e-07 -9.43394e-24)
(0.0091503 -1.04594e-06 2.14531e-24)
(0.00915107 -2.83793e-06 2.76477e-26)
(0.00915079 -4.56385e-06 -1.67428e-24)
(0.00914951 -6.219e-06 5.55212e-25)
(0.00914727 -7.79817e-06 -1.26475e-24)
(0.00914411 -9.29539e-06 -1.62774e-25)
(0.00914007 -1.07036e-05 8.08843e-26)
(0.00763095 1.00353e-05 -9.18486e-25)
(0.00764017 8.59339e-06 2.35194e-25)
(0.00764813 7.14249e-06 5.11771e-25)
(0.00765481 5.67794e-06 -2.3776e-24)
(0.00766027 4.22134e-06 -1.07444e-24)
(0.00766456 2.78208e-06 9.29342e-24)
(0.00766771 1.36778e-06 -5.46515e-24)
(0.00766976 -1.22394e-08 7.83229e-25)
(0.00767076 -1.36066e-06 -7.58299e-25)
(0.00767074 -2.66398e-06 -8.16535e-25)
(0.00766974 -3.91681e-06 -2.34304e-25)
(0.00766781 -5.11507e-06 1.54015e-24)
(0.00766498 -6.25435e-06 3.75395e-25)
(0.00766131 -7.32974e-06 -9.03592e-25)
(0.00765681 -8.33589e-06 -1.34925e-25)
(0.00627898 6.63742e-06 -3.33877e-25)
(0.00628655 5.62214e-06 -1.10602e-25)
(0.00629304 4.60326e-06 -5.3857e-24)
(0.00629839 3.57571e-06 1.42368e-24)
(0.00630266 2.55703e-06 -3.8812e-24)
(0.00630588 1.55102e-06 2.71198e-24)
(0.00630808 5.63929e-07 5.14306e-24)
(0.00630929 -3.97533e-07 3.85683e-24)
(0.00630956 -1.33611e-06 -5.40652e-24)
(0.00630891 -2.24182e-06 1.62985e-24)
(0.00630738 -3.11036e-06 1.38139e-24)
(0.00630502 -3.93868e-06 -1.96692e-24)
(0.00630185 -4.72356e-06 1.04752e-24)
(0.00629793 -5.46111e-06 -6.98348e-26)
(0.00629328 -6.14744e-06 2.53083e-25)
(0.00504111 4.15877e-06 -1.30699e-24)
(0.0050471 3.48003e-06 -1.79156e-24)
(0.00505218 2.80339e-06 -3.26576e-25)
(0.00505629 2.12273e-06 4.45745e-24)
(0.00505947 1.45035e-06 -3.15707e-24)
(0.00506175 7.86029e-07 -6.142e-25)
(0.00506315 1.35964e-07 5.08608e-24)
(0.0050637 -4.96812e-07 1.30591e-26)
(0.00506343 -1.11417e-06 -1.03097e-24)
(0.00506237 -1.70898e-06 -3.75965e-24)
(0.00506055 -2.27809e-06 4.2617e-25)
(0.00505801 -2.81936e-06 2.56606e-24)
(0.00505478 -3.33068e-06 -3.29813e-25)
(0.00505091 -3.80904e-06 -3.39514e-25)
(0.00504642 -4.2516e-06 2.22309e-25)
(0.00391221 2.42262e-06 -2.85475e-25)
(0.00391675 1.99839e-06 1.68692e-26)
(0.00392056 1.58183e-06 2.13677e-24)
(0.00392356 1.16469e-06 1.43109e-24)
(0.00392581 7.54062e-07 -9.85313e-25)
(0.00392731 3.47766e-07 -2.43924e-24)
(0.00392809 -4.84259e-08 9.87428e-25)
(0.00392818 -4.35645e-07 -4.13923e-24)
(0.00392759 -8.10985e-07 3.18751e-24)
(0.00392635 -1.17386e-06 1.63129e-24)
(0.00392448 -1.52013e-06 -1.59931e-26)
(0.00392202 -1.84862e-06 -1.76947e-24)
(0.00391899 -2.158e-06 3.16168e-25)
(0.00391544 -2.44602e-06 -2.33343e-25)
(0.00391139 -2.71045e-06 1.14353e-25)
(0.00288635 1.26254e-06 -5.25276e-25)
(0.0028896 1.01895e-06 1.07269e-26)
(0.00289228 7.88126e-07 1.71214e-24)
(0.00289434 5.59245e-07 -1.07035e-24)
(0.00289582 3.35288e-07 4.4056e-24)
(0.00289673 1.15069e-07 -8.02605e-24)
(0.00289708 -1.03559e-07 6.48904e-24)
(0.0028969 -3.11457e-07 -5.40951e-24)
(0.00289618 -5.18926e-07 3.90794e-24)
(0.00289496 -7.15438e-07 -2.49963e-24)
(0.00289326 -9.03233e-07 8.5822e-25)
(0.0028911 -1.0809e-06 1.23585e-25)
(0.0028885 -1.24743e-06 1.9162e-25)
(0.0028855 -1.40117e-06 -2.3487e-25)
(0.00288212 -1.54028e-06 4.72438e-26)
(0.00195706 5.38817e-07 7.96495e-25)
(0.00195917 4.11346e-07 8.60808e-25)
(0.00196089 3.01227e-07 -3.68002e-24)
(0.00196218 1.94973e-07 2.69151e-24)
(0.00196305 9.29356e-08 -2.64024e-26)
(0.00196353 -3.28867e-09 6.92521e-25)
(0.00196361 -1.04298e-07 -8.45383e-25)
(0.00196332 -1.98881e-07 -1.76434e-24)
(0.00196265 -2.90014e-07 1.75292e-24)
(0.00196162 -3.75991e-07 1.80628e-25)
(0.00196026 -4.57175e-07 -1.38742e-24)
(0.00195857 -5.32679e-07 4.98095e-25)
(0.00195658 -6.03194e-07 2.91334e-25)
(0.0019543 -6.67893e-07 -3.48442e-26)
(0.00195176 -7.25238e-07 -3.17576e-26)
(0.0011176 1.58751e-07 -8.03198e-25)
(0.00111873 1.12077e-07 2.45599e-24)
(0.00111963 8.17394e-08 1.46446e-24)
(0.00112028 5.21302e-08 -2.63665e-24)
(0.00112069 2.29219e-08 -3.08934e-25)
(0.00112087 -4.57339e-09 -2.73643e-25)
(0.00112082 -3.62277e-08 8.33804e-25)
(0.00112055 -6.5392e-08 -1.41252e-24)
(0.00112006 -9.34495e-08 1.91712e-24)
(0.00111936 -1.20436e-07 -9.38413e-25)
(0.00111846 -1.44632e-07 -6.04434e-25)
(0.00111738 -1.64431e-07 3.63173e-25)
(0.00111611 -1.8597e-07 -4.21579e-25)
(0.00111468 -2.0948e-07 4.19053e-25)
(0.00111309 -2.33669e-07 -6.87989e-26)
(0.000361158 5.92112e-08 -5.73051e-27)
(0.000361432 1.1345e-07 4.76738e-25)
(0.000361641 1.57881e-07 5.45243e-25)
(0.000361773 1.8698e-07 -8.54632e-25)
(0.000361835 2.02738e-07 1.77462e-24)
(0.000361828 2.07221e-07 -1.92678e-24)
(0.000361748 2.02034e-07 1.26245e-25)
(0.0003616 1.89398e-07 1.05867e-24)
(0.000361383 1.70289e-07 -1.46312e-24)
(0.0003611 1.46036e-07 -2.61952e-25)
(0.000360753 1.18858e-07 9.9985e-25)
(0.000360346 9.06569e-08 -4.39696e-25)
(0.00035988 5.77203e-08 -1.58789e-25)
(0.000359362 2.0358e-08 1.32106e-25)
(0.000358795 -2.03373e-08 -5.69019e-27)
(0.000904299 -0.000238971 8.00343e-26)
(0.00103619 -0.000159944 2.03988e-24)
(0.00125832 -7.86865e-05 -5.85137e-24)
(0.00148569 -1.32303e-05 8.47781e-24)
(0.00170449 3.80182e-05 -3.17985e-24)
(0.0019195 7.57847e-05 -3.04016e-24)
(0.00213064 0.000102506 3.44775e-24)
(0.00233848 0.000120202 -6.79327e-24)
(0.00254373 0.000130574 4.43274e-25)
(0.00274698 0.000135092 4.26823e-24)
(0.00294876 0.000135021 -8.12003e-25)
(0.0031496 0.000131491 8.7593e-25)
(0.00335001 0.000125555 -8.58495e-26)
(0.00355061 0.000118252 5.42587e-25)
(0.00375221 0.000110664 -1.99108e-24)
(0.00395591 0.00010398 1.0892e-24)
(0.00416344 9.94962e-05 -3.35986e-25)
(0.0043772 9.86162e-05 2.62247e-26)
(0.00460104 0.00010246 7.79762e-25)
(0.00483967 0.000111548 -4.87219e-25)
(0.00509954 0.000124105 5.96944e-26)
(0.00538557 0.000135269 -5.21559e-26)
(0.0056759 0.000133982 9.92655e-26)
(0.00593377 0.000112982 3.83389e-25)
(0.00614644 7.30113e-05 -6.88151e-25)
(0.00631369 1.68552e-05 -4.61758e-25)
(0.00643707 -5.24185e-05 2.56758e-26)
(0.00651875 -0.000132142 1.12267e-24)
(0.00656047 -0.000219769 1.42488e-24)
(0.00656317 -0.000312387 -2.76154e-24)
(0.00652725 -0.000406261 1.89307e-24)
(0.00645285 -0.000496607 -1.34985e-24)
(0.00634025 -0.000577585 1.63629e-25)
(0.00619014 -0.000642434 -1.14619e-24)
(0.00600372 -0.000683622 1.10371e-24)
(0.00578264 -0.000692885 7.35979e-24)
(0.00552891 -0.000660994 -2.02169e-24)
(0.0052448 -0.000577036 1.89468e-24)
(0.00493304 -0.00042702 1.01584e-24)
(0.00459733 -0.000192321 -1.08774e-23)
(0.00424143 0.000148844 -1.32743e-25)
(0.00387023 0.00060979 4.58139e-24)
(0.00347238 0.00116001 1.45775e-24)
(0.00306575 0.00167763 -6.4196e-24)
(0.00283544 0.0017976 -3.18185e-25)
(0.00170188 -0.000318791 -2.34583e-24)
(0.00175717 -0.000274139 -3.28754e-24)
(0.00189456 -0.000195967 6.90306e-24)
(0.00206733 -0.00012345 3.19044e-24)
(0.00225126 -6.20639e-05 -1.11523e-23)
(0.00244167 -1.39454e-05 1.18673e-23)
(0.00263444 2.22872e-05 -4.24937e-24)
(0.00282777 4.84867e-05 3.36247e-24)
(0.00302103 6.63947e-05 -4.44634e-24)
(0.00321401 7.75864e-05 5.13708e-26)
(0.00340675 8.34358e-05 -2.34806e-24)
(0.00359945 8.51642e-05 4.65306e-24)
(0.00379242 8.38974e-05 -2.56963e-24)
(0.00398608 8.07258e-05 -2.30014e-24)
(0.00418112 7.6765e-05 -1.51906e-24)
(0.00437845 7.32118e-05 2.916e-24)
(0.00457965 7.13517e-05 -3.43685e-25)
(0.00478684 7.25497e-05 1.50553e-24)
(0.00500356 7.7891e-05 2.32994e-25)
(0.00523414 8.78838e-05 -4.44212e-25)
(0.00548462 0.000100864 -1.83653e-25)
(0.00575971 0.000112307 -1.10346e-25)
(0.00603891 0.000111717 5.37456e-25)
(0.00628754 9.23246e-05 6.5727e-25)
(0.00649349 5.49325e-05 -5.91651e-25)
(0.00665643 2.2086e-06 -2.82139e-24)
(0.00677756 -6.28501e-05 3.75977e-24)
(0.00685872 -0.000137545 -2.55792e-24)
(0.00690138 -0.00021922 8.54293e-25)
(0.00690642 -0.000304827 -4.07136e-25)
(0.00687429 -0.00039053 2.66296e-24)
(0.00680535 -0.0004715 -2.58887e-24)
(0.0067002 -0.000541918 -1.32106e-25)
(0.00656001 -0.0005951 5.90899e-24)
(0.00638661 -0.000623618 -1.01906e-23)
(0.00618254 -0.00061933 2.77998e-24)
(0.00595113 -0.00057317 1.31049e-23)
(0.00569667 -0.000474547 -3.60321e-24)
(0.00542499 -0.000310179 -1.05266e-23)
(0.00514511 -6.26144e-05 -6.3363e-24)
(0.00487057 0.000288598 1.4447e-23)
(0.00462394 0.000757271 -1.38802e-23)
(0.00442878 0.00131318 -3.01086e-24)
(0.00432492 0.00182347 9.04713e-24)
(0.00435448 0.00188616 2.84823e-24)
(0.00264358 -0.000327108 -2.66625e-26)
(0.00265205 -0.0003224 -3.76354e-24)
(0.00271092 -0.000275736 7.31319e-24)
(0.00281983 -0.000213456 6.12445e-24)
(0.00295506 -0.000152564 -1.0018e-23)
(0.0031079 -0.000100033 2.07826e-25)
(0.00327134 -5.75104e-05 9.59215e-25)
(0.00344108 -2.45499e-05 1.03529e-23)
(0.00361479 -2.83163e-08 -1.22594e-23)
(0.00379112 1.73762e-05 7.5191e-24)
(0.00396936 2.89482e-05 2.25767e-24)
(0.00414917 3.58894e-05 -1.24757e-23)
(0.00433047 3.93339e-05 4.50379e-24)
(0.00451344 4.03862e-05 1.78871e-24)
(0.00469851 4.01706e-05 -3.70541e-24)
(0.00488639 3.98769e-05 5.98345e-24)
(0.0050784 4.07693e-05 -4.19772e-24)
(0.00527639 4.41674e-05 -7.2851e-26)
(0.00548354 5.11163e-05 3.25935e-25)
(0.00570371 6.21089e-05 3.43802e-25)
(0.00594252 7.55907e-05 4.49275e-26)
(0.00620436 8.73755e-05 1.94709e-25)
(0.00647021 8.75242e-05 -5.42471e-25)
(0.00670763 6.97772e-05 1.61609e-24)
(0.00690521 3.50109e-05 -2.54764e-24)
(0.00706245 -1.42092e-05 1.46476e-24)
(0.00718021 -7.49452e-05 -3.27654e-24)
(0.00725997 -0.000144467 4.39494e-24)
(0.00730294 -0.000220007 -3.69468e-24)
(0.00730994 -0.000298385 5.47628e-25)
(0.00728147 -0.000375666 7.57945e-25)
(0.00721812 -0.000446993 3.07461e-24)
(0.00712087 -0.000506598 -7.42164e-25)
(0.00699137 -0.00054793 3.07068e-24)
(0.00683215 -0.000563782 -9.07436e-24)
(0.0066467 -0.000546342 1.61624e-23)
(0.00643972 -0.000487075 -1.11914e-23)
(0.00621748 -0.000376357 1.67858e-23)
(0.00598878 -0.000202829 -3.2153e-23)
(0.00576699 4.73262e-05 1.22685e-23)
(0.0055725 0.000388437 4.26761e-24)
(0.00543684 0.000826209 6.65135e-24)
(0.0053944 0.00132387 -8.26065e-24)
(0.00546789 0.00175094 2.29921e-24)
(0.00562556 0.00179047 -1.3822e-24)
(0.00371242 -0.000311026 -9.93971e-25)
(0.00369468 -0.00033112 -1.51602e-24)
(0.00370468 -0.000313165 -6.47601e-24)
(0.00375225 -0.000273529 1.78738e-24)
(0.00383439 -0.000223307 1.18626e-24)
(0.00394129 -0.000174089 5.1065e-24)
(0.00406607 -0.000130486 -1.06563e-23)
(0.00420333 -9.41523e-05 4.07578e-24)
(0.00434942 -6.51825e-05 1.35133e-23)
(0.00450192 -4.29395e-05 -3.59756e-24)
(0.00465924 -2.65107e-05 -3.36426e-24)
(0.00482042 -1.48924e-05 -5.34104e-25)
(0.00498491 -7.05548e-06 1.7454e-24)
(0.00515251 -1.95446e-06 -3.4059e-24)
(0.00532334 1.49558e-06 7.88447e-25)
(0.00549785 4.44444e-06 -2.74581e-25)
(0.00567707 8.11144e-06 -1.61813e-24)
(0.00586251 1.37533e-05 6.27258e-25)
(0.00605697 2.23629e-05 2.79945e-24)
(0.0062638 3.44078e-05 -3.29029e-25)
(0.00648812 4.84381e-05 -6.24394e-25)
(0.00673396 6.06021e-05 -1.71189e-25)
(0.00698382 6.15209e-05 -9.56546e-25)
(0.00720769 4.54581e-05 -5.49928e-26)
(0.00739488 1.3378e-05 -2.26039e-24)
(0.00754471 -3.22445e-05 3.90716e-24)
(0.00765766 -8.85254e-05 -3.27708e-24)
(0.00773484 -0.000152701 6.2245e-24)
(0.00777725 -0.000221897 -5.07543e-24)
(0.00778559 -0.000292817 1.28158e-24)
(0.00776046 -0.000361454 1.74197e-24)
(0.00770268 -0.000422963 -1.84364e-25)
(0.00761363 -0.000471696 -2.97541e-25)
(0.00749547 -0.000501342 -1.06545e-24)
(0.00735143 -0.000505086 1.32596e-24)
(0.00718593 -0.00047571 -5.02824e-24)
(0.00700491 -0.000405633 2.37428e-23)
(0.00681632 -0.00028685 -1.25971e-23)
(0.00663108 -0.000110931 -4.34727e-25)
(0.00646484 0.000130696 -2.85002e-23)
(0.0063399 0.0004442 2.15959e-23)
(0.00628673 0.000825411 -7.796e-24)
(0.00633518 0.00123657 1.96965e-24)
(0.00649039 0.00157647 9.59632e-24)
(0.00670518 0.00165301 -2.26779e-24)
(0.00490364 -0.000285471 -4.10743e-24)