/*--------------------------------*- C++ -*----------------------------------*\
| =========                 |                                                 |
| \\      /  F ield         | OpenFOAM: The Open Source CFD Toolbox           |
|  \\    /   O peration     | Version:  2312                                  |
|   \\  /    A nd           | Website:  www.openfoam.com                      |
|    \\/     M anipulation  |                                                 |
\*---------------------------------------------------------------------------*/
FoamFile
{
    version     2.0;
    format      ascii;
    arch        "LSB;label=32;scalar=64";
    class       volVectorField;
    location    "76";
    object      U;
}
// * * * * * * * * * * * * * * * * * * * * * * * * * * * * * * * * * * * * * //

dimensions      [0 1 -1 0 0 0 0];

internalField   nonuniform List<vector> 
4800
(
(0.000497156 2.65229e-07 -2.85042e-26)
(0.000490992 3.17264e-07 -2.04193e-25)
(0.000487345 3.51856e-07 2.61011e-25)
(0.000485398 3.66806e-07 1.23722e-25)
(0.000484713 3.75527e-07 1.86212e-24)
(0.000485082 3.56965e-07 -4.45883e-24)
(0.000486401 3.24746e-07 4.22217e-24)
(0.000488608 2.47311e-07 -6.20007e-24)
(0.000491781 8.02111e-08 1.9732e-24)
(0.000496164 -2.21571e-07 6.87332e-24)
(0.000502216 -7.97033e-07 -2.11533e-24)
(0.000511268 -2.32132e-06 -1.72147e-25)
(0.000530921 -7.87637e-06 -2.61952e-24)
(0.000580393 -3.04865e-05 1.21393e-24)
(0.000662715 -0.000100306 -9.6322e-25)
(0.00153716 1.33733e-06 -9.02663e-26)
(0.00151757 9.54266e-07 1.126e-25)
(0.00150548 6.43088e-07 -1.07263e-24)
(0.00149849 3.48606e-07 7.93843e-25)
(0.00149529 5.84249e-08 2.65187e-24)
(0.00149524 -2.89176e-07 -4.24596e-24)
(0.00149791 -7.19406e-07 -1.2562e-24)
(0.00150317 -1.30185e-06 -3.31447e-25)
(0.00151121 -2.21004e-06 1.02953e-23)
(0.00152263 -3.70003e-06 -7.64421e-24)
(0.00153875 -6.43222e-06 8.32649e-25)
(0.00156242 -1.27429e-05 1.28406e-24)
(0.00160295 -3.07926e-05 -1.9083e-24)
(0.00167181 -8.61132e-05 -5.71982e-25)
(0.00174626 -0.000212599 2.49405e-24)
(0.00268574 4.38202e-06 -6.45776e-26)
(0.00265115 3.17354e-06 6.5869e-26)
(0.00262912 2.22796e-06 6.9985e-25)
(0.00261569 1.35902e-06 -1.6846e-24)
(0.00260869 4.51398e-07 1.6771e-24)
(0.00260695 -6.17591e-07 1.6058e-24)
(0.00260976 -1.9583e-06 -4.14053e-24)
(0.00261663 -3.75244e-06 -2.65457e-24)
(0.00262801 -6.38827e-06 6.35273e-24)
(0.00264442 -1.05159e-05 2.43313e-24)
(0.00266733 -1.76888e-05 -8.45225e-24)
(0.00269898 -3.20615e-05 -1.30578e-24)
(0.00274362 -6.37435e-05 3.63309e-24)
(0.00280006 -0.000133853 5.78109e-24)
(0.00284132 -0.000252275 -2.99125e-24)
(0.00394801 9.9382e-06 2.38331e-26)
(0.00389734 7.38973e-06 -1.67467e-25)
(0.0038641 5.40144e-06 7.5941e-25)
(0.00384293 3.5828e-06 8.42426e-25)
(0.00383081 1.68698e-06 -8.10344e-25)
(0.0038259 -5.54679e-07 -4.79566e-24)
(0.00382745 -3.23984e-06 -3.32812e-24)
(0.00383416 -6.828e-06 1.26093e-23)
(0.00384676 -1.20441e-05 5.3702e-24)
(0.00386528 -1.98406e-05 -7.65594e-24)
(0.00389046 -3.24264e-05 -3.1092e-24)
(0.00392276 -5.45316e-05 -2.39406e-24)
(0.00396129 -9.46148e-05 6.71405e-26)
(0.00399849 -0.000163748 1.783e-24)
(0.00401454 -0.000257924 8.74881e-27)
(0.0053263 1.85635e-05 -4.36194e-26)
(0.00525951 1.40953e-05 -2.70031e-25)
(0.00521445 1.06075e-05 -1.8086e-25)
(0.00518458 7.42941e-06 4.6653e-25)
(0.00516617 4.15442e-06 -1.3825e-24)
(0.00515673 4.06242e-07 3.46289e-24)
(0.00515538 -4.29838e-06 -5.94291e-25)
(0.00516024 -1.00342e-05 2.18271e-24)
(0.00517157 -1.82963e-05 -1.22674e-23)
(0.00518903 -3.01359e-05 2.35013e-23)
(0.00521209 -4.77431e-05 -2.28436e-23)
(0.00523946 -7.50228e-05 1.21297e-23)
(0.00526752 -0.000117064 -1.1324e-23)
(0.00528813 -0.000177404 1.07342e-23)
(0.00528989 -0.000248756 -4.29653e-24)
(0.00681836 3.07994e-05 5.74006e-26)
(0.00673728 2.38584e-05 2.08311e-25)
(0.006681 1.84317e-05 -1.11033e-24)
(0.00664231 1.35024e-05 -7.35116e-25)
(0.00661698 8.47975e-06 1.92977e-24)
(0.00660211 2.77878e-06 7.12027e-25)
(0.0065962 -4.02005e-06 -5.62554e-24)
(0.00659762 -1.25417e-05 1.3529e-23)
(0.00660555 -2.39688e-05 -1.77372e-23)
(0.00661899 -3.95027e-05 4.23843e-24)
(0.00663654 -6.09159e-05 1.31282e-23)
(0.00665582 -9.05578e-05 -1.8353e-23)
(0.00667275 -0.000130377 9.21064e-24)
(0.0066812 -0.000179939 9.54216e-24)
(0.0066759 -0.000233012 -7.2829e-24)
(0.00841504 4.6843e-05 4.72096e-26)
(0.00832437 3.70399e-05 -2.818e-25)
(0.00825946 2.93417e-05 1.02593e-24)
(0.00821325 2.23544e-05 -1.44006e-24)
(0.0081814 1.52913e-05 -5.03132e-24)
(0.00816091 7.40886e-06 8.58928e-24)
(0.00814979 -1.83102e-06 -5.30089e-24)
(0.00814633 -1.3071e-05 1.82713e-23)
(0.00814915 -2.74534e-05 -1.24225e-23)
(0.00815661 -4.59621e-05 -5.87639e-24)
(0.00816673 -6.96513e-05 -1.17063e-23)
(0.00817688 -9.94018e-05 1.07576e-23)
(0.00818375 -0.00013514 3.04818e-24)
(0.00818359 -0.000174996 2.6378e-24)
(0.00817462 -0.000214676 -2.32613e-24)
(0.0100981 6.60823e-05 -6.75918e-26)
(0.0100063 5.34073e-05 9.29043e-25)
(0.00993808 4.33591e-05 -2.1885e-24)
(0.00988774 3.42026e-05 -1.86467e-24)
(0.00985141 2.49785e-05 6.42411e-25)
(0.00982633 1.48559e-05 1.34776e-24)
(0.00981038 3.18669e-06 5.03329e-24)
(0.00980174 -1.06014e-05 -1.38988e-23)
(0.00979872 -2.74066e-05 -7.59034e-24)
(0.0097994 -4.78692e-05 2.06231e-23)
(0.00980169 -7.23375e-05 -6.49918e-24)
(0.00980324 -0.000100673 2.2267e-23)
(0.00980182 -0.000131894 -1.17615e-23)
(0.00979542 -0.000164064 -3.78797e-24)
(0.00978394 -0.000194512 2.25083e-24)
(0.01184 8.6555e-05 -8.88e-27)
(0.011759 7.16519e-05 5.11497e-25)
(0.0116959 5.96237e-05 -7.31546e-25)
(0.0116472 4.85334e-05 1.80982e-24)
(0.0116105 3.73297e-05 -1.0949e-23)
(0.0115835 2.51679e-05 1.161e-23)
(0.0115646 1.13969e-05 -1.87041e-23)
(0.0115519 -4.47413e-06 1.14387e-23)
(0.0115437 -2.29291e-05 8.64216e-24)
(0.0115382 -4.42505e-05 1.9059e-23)
(0.0115337 -6.82666e-05 -2.49604e-23)
(0.0115283 -9.43278e-05 -4.70038e-24)
(0.0115207 -0.000121276 2.11298e-24)
(0.0115098 -0.000147619 1.55599e-23)
(0.0114964 -0.000171789 -6.35614e-24)
(0.0136086 0.000104605 4.85475e-26)
(0.0135516 8.89732e-05 -2.13185e-25)
(0.0135037 7.59482e-05 9.71935e-25)
(0.0134643 6.36452e-05 -3.4656e-24)
(0.013433 5.10627e-05 5.31442e-24)
(0.0134085 3.74365e-05 -6.97514e-24)
(0.0133899 2.22166e-05 1.18147e-23)
(0.0133757 5.08902e-06 2.17267e-24)
(0.0133646 -1.4099e-05 -1.65692e-23)
(0.0133551 -3.52401e-05 2.38662e-23)
(0.0133459 -5.78889e-05 -2.64324e-23)
(0.0133359 -8.12775e-05 -7.90854e-24)
(0.0133245 -0.000104414 1.38906e-23)
(0.013311 -0.000126304 4.16006e-24)
(0.0132965 -0.000146065 -1.82455e-24)
(0.0153794 0.000115447 1.96752e-25)
(0.0153556 0.000101244 -1.66353e-24)
(0.0153311 8.87821e-05 -2.75133e-24)
(0.0153082 7.64856e-05 6.47587e-24)
(0.0152882 6.35644e-05 2.99939e-24)
(0.0152712 4.94407e-05 -1.88703e-23)
(0.015257 3.37624e-05 5.73497e-24)
(0.0152449 1.64604e-05 4.18812e-24)
(0.0152341 -2.39499e-06 -1.87555e-23)
(0.0152236 -2.23892e-05 1.94253e-23)
(0.0152129 -4.30143e-05 -1.58793e-23)
(0.0152012 -6.35689e-05 4.07284e-23)
(0.0151885 -8.33193e-05 -1.97236e-23)
(0.0151744 -0.000101659 1.16751e-23)
(0.01516 -0.000118113 -3.20021e-24)
(0.017152 0.000115504 -8.10824e-26)
(0.0171602 0.000104564 1.13903e-24)
(0.0171606 9.4258e-05 -2.23073e-24)
(0.0171569 8.33927e-05 -1.17585e-24)
(0.0171513 7.14234e-05 1.30864e-23)
(0.0171449 5.80073e-05 -1.7915e-24)
(0.0171382 4.30602e-05 -2.3747e-23)
(0.0171312 2.67229e-05 2.79672e-23)
(0.0171237 9.32804e-06 -6.24527e-24)
(0.0171153 -8.68965e-06 -2.21044e-23)
(0.0171059 -2.67587e-05 2.37392e-23)
(0.0170953 -4.43633e-05 1.29783e-23)
(0.0170837 -6.10016e-05 -1.0804e-23)
(0.017071 -7.63179e-05 -1.89599e-23)
(0.0170581 -9.00583e-05 1.59888e-24)
(0.0189523 0.000105382 8.13498e-27)
(0.0189809 9.82117e-05 -1.30135e-24)
(0.0189989 9.0722e-05 6.15426e-24)
(0.0190099 8.21992e-05 4.45772e-25)
(0.0190163 7.22137e-05 3.65942e-24)
(0.0190195 6.05785e-05 -1.28553e-23)
(0.0190203 4.74132e-05 1.11761e-23)
(0.0190191 3.30567e-05 2.65432e-24)
(0.019016 1.79642e-05 2.34686e-23)
(0.0190112 2.58109e-06 -3.6089e-23)
(0.0190048 -1.25849e-05 -1.65096e-23)
(0.0189968 -2.71599e-05 -1.1042e-23)
(0.0189879 -4.08224e-05 2.0734e-23)
(0.0189777 -5.33748e-05 -6.0698e-25)
(0.0189674 -6.46816e-05 2.03013e-24)
(0.0208076 8.92001e-05 -9.42561e-27)
(0.0208416 8.52166e-05 1.3945e-24)
(0.0208662 8.05491e-05 -2.03156e-24)
(0.0208837 7.45477e-05 1.07207e-27)
(0.020896 6.69327e-05 2.61816e-24)
(0.0209041 5.7633e-05 6.73938e-24)
(0.020909 4.68411e-05 -2.61937e-23)
(0.0209112 3.49858e-05 2.12168e-24)
(0.0209111 2.25772e-05 1.34306e-23)
(0.0209089 1.00813e-05 -6.28657e-24)
(0.0209051 -2.15442e-06 1.71456e-23)
(0.0208996 -1.38217e-05 1.2116e-23)
(0.0208931 -2.4709e-05 -2.19815e-23)
(0.0208854 -3.47119e-05 1.51295e-23)
(0.0208775 -4.37642e-05 -1.25962e-23)
(0.0227108 7.14555e-05 -3.22161e-25)
(0.0227414 7.01713e-05 -1.06937e-25)
(0.0227643 6.78877e-05 2.58381e-24)
(0.0227814 6.40023e-05 -1.25952e-23)
(0.022794 5.86654e-05 1.10493e-23)
(0.0228026 5.19268e-05 -8.01895e-24)
(0.0228079 4.3855e-05 5.74535e-24)
(0.0228106 3.47865e-05 -4.10959e-23)
(0.0228111 2.52024e-05 5.93688e-23)
(0.0228097 1.55185e-05 -3.51863e-23)
(0.0228067 6.04718e-06 3.1498e-23)
(0.0228024 -2.9979e-06 2.6509e-23)
(0.0227971 -1.14478e-05 -4.63737e-23)
(0.0227908 -1.92227e-05 1.51279e-23)
(0.0227843 -2.62805e-05 -6.37196e-25)
(0.024608 5.43374e-05 -1.13154e-26)
(0.0246334 5.5407e-05 -8.65947e-25)
(0.0246519 5.5355e-05 8.85891e-25)
(0.0246656 5.36208e-05 -3.62394e-25)
(0.0246757 5.05028e-05 4.7592e-24)
(0.0246826 4.61707e-05 -8.10371e-24)
(0.0246866 4.07387e-05 7.45404e-24)
(0.0246882 3.4496e-05 -2.34692e-23)
(0.024688 2.77862e-05 5.33828e-23)
(0.0246861 2.09072e-05 -6.83569e-23)
(0.024683 1.40819e-05 5.60509e-23)
(0.0246787 7.47988e-06 -1.89498e-23)
(0.0246738 1.24644e-06 9.87053e-25)
(0.0246679 -4.5294e-06 4.35873e-24)
(0.024662 -9.79604e-06 -8.36674e-24)
(0.0264093 3.75491e-05 -8.90427e-25)
(0.0264301 4.13695e-05 6.30952e-25)
(0.0264449 4.37601e-05 9.38959e-25)
(0.0264551 4.43452e-05 -2.53738e-24)
(0.0264622 4.36937e-05 8.76095e-24)
(0.0264668 4.17244e-05 -8.61243e-24)
(0.0264691 3.85957e-05 -7.22101e-24)
(0.0264696 3.49521e-05 -1.71304e-23)
(0.0264685 3.09433e-05 9.0098e-24)
(0.0264659 2.68205e-05 4.14124e-23)
(0.0264622 2.25395e-05 -2.18558e-23)
(0.0264576 1.8269e-05 1.29174e-23)
(0.0264526 1.41317e-05 -5.3459e-24)
(0.0264469 1.02452e-05 -1.5709e-23)
(0.0264412 6.68902e-06 8.03698e-24)
(0.0279946 2.12957e-05 2.71632e-25)
(0.0280107 2.73915e-05 -3.49927e-25)
(0.028022 3.29227e-05 1.74401e-24)
(0.0280292 3.60099e-05 -6.22185e-24)
(0.0280335 3.83608e-05 -1.69524e-24)
(0.0280362 3.86032e-05 1.33834e-23)
(0.0280364 3.79193e-05 -8.07463e-24)
(0.0280354 3.66965e-05 -4.46958e-24)
(0.0280336 3.53105e-05 4.30259e-24)
(0.0280309 3.37475e-05 -5.18211e-24)
(0.0280273 3.19641e-05 1.39963e-23)
(0.0280229 3.00261e-05 7.73338e-24)
(0.0280177 2.78539e-05 -3.07339e-23)
(0.0280121 2.57279e-05 2.13468e-23)
(0.0280065 2.37519e-05 -4.32601e-24)
(0.0291931 7.43796e-06 7.34423e-25)
(0.0292045 1.62894e-05 1.71038e-25)
(0.029212 2.35058e-05 -8.49266e-25)
(0.0292172 2.94139e-05 3.13886e-24)
(0.0292194 3.42542e-05 -4.66225e-24)
(0.0292208 3.71628e-05 -8.111e-24)
(0.0292204 4.01523e-05 -7.28596e-24)
(0.0292184 4.15935e-05 1.78425e-23)
(0.029216 4.20938e-05 1.51824e-23)
(0.0292129 4.21652e-05 -3.89275e-23)
(0.0292092 4.20181e-05 2.3958e-23)
(0.0292047 4.1743e-05 -1.71564e-24)
(0.0291997 4.1424e-05 -1.37804e-24)
(0.0291946 4.10854e-05 1.82698e-24)
(0.0291893 4.0726e-05 -8.33432e-25)
(0.0297771 -5.07409e-06 -1.73117e-24)
(0.0297868 5.57006e-06 -1.41012e-24)
(0.0297933 1.50565e-05 3.96301e-24)
(0.0297973 2.31113e-05 -2.54054e-24)
(0.0297995 2.99496e-05 1.50533e-24)
(0.0298003 3.55557e-05 4.37032e-24)
(0.0298 4.01027e-05 -3.33399e-24)
(0.0297986 4.37738e-05 -2.03881e-23)
(0.0297965 4.66784e-05 4.48542e-23)
(0.0297938 4.9004e-05 -1.83382e-23)
(0.0297905 5.09385e-05 6.53486e-24)
(0.0297867 5.26157e-05 -1.17995e-23)
(0.0297826 5.41017e-05 -1.1478e-23)
(0.0297783 5.53917e-05 1.66095e-23)
(0.0297737 5.65128e-05 -7.04013e-24)
(0.0295756 -1.53751e-05 2.46133e-24)
(0.0295809 -2.68639e-06 -4.6339e-24)
(0.0295841 8.35086e-06 1.65825e-24)
(0.0295855 1.80598e-05 -2.09499e-24)
(0.0295856 2.66279e-05 5.12109e-24)
(0.0295848 3.40429e-05 -4.99252e-24)
(0.0295833 4.04365e-05 -1.23676e-23)
(0.0295812 4.59813e-05 3.0081e-23)
(0.0295785 5.08061e-05 6.16428e-24)
(0.0295755 5.5013e-05 -1.68209e-23)
(0.0295722 5.87211e-05 -8.22486e-24)
(0.0295685 6.20299e-05 9.06349e-24)
(0.0295646 6.49996e-05 -9.49917e-24)
(0.0295605 6.76677e-05 5.27944e-24)
(0.0295562 7.00778e-05 -2.25821e-24)
(0.0285541 -1.95195e-05 1.35065e-24)
(0.0285556 -6.07235e-06 -2.39746e-24)
(0.0285565 5.78628e-06 3.80542e-26)
(0.0285572 1.64206e-05 -1.00159e-25)
(0.0285574 2.59219e-05 3.2605e-24)
(0.0285572 3.43534e-05 6.99974e-25)
(0.0285565 4.18458e-05 -1.68017e-24)
(0.0285556 4.85085e-05 -2.36891e-24)
(0.0285544 5.44506e-05 -4.77739e-24)
(0.0285529 5.97698e-05 2.97747e-23)
(0.0285512 6.45489e-05 -1.84318e-23)
(0.0285494 6.88645e-05 1.52152e-24)
(0.0285473 7.27746e-05 -2.13445e-23)
(0.0285451 7.63257e-05 1.02827e-23)
(0.0285427 7.95614e-05 3.20732e-24)
(0.0269787 -1.99116e-05 3.11989e-24)
(0.026977 -6.85951e-06 -4.88164e-24)
(0.0269753 5.124e-06 1.18205e-24)
(0.0269738 1.594e-05 6.85565e-25)
(0.0269722 2.56673e-05 3.88075e-24)
(0.0269706 3.44141e-05 -8.49795e-24)
(0.026969 4.22889e-05 5.59406e-24)
(0.0269673 4.9389e-05 -2.82952e-24)
(0.0269657 5.58016e-05 2.12158e-24)
(0.0269641 6.16126e-05 1.01215e-23)
(0.0269625 6.68817e-05 -2.17014e-23)
(0.0269609 7.16625e-05 1.60012e-23)
(0.0269593 7.60115e-05 -1.46311e-24)
(0.0269577 7.9973e-05 -4.5e-24)
(0.0269561 8.35855e-05 6.90684e-25)
(0.0250532 -1.71225e-05 1.14142e-24)
(0.0250489 -4.59257e-06 -4.52591e-24)
(0.0250452 6.90082e-06 5.53159e-24)
(0.0250423 1.73815e-05 -2.19271e-24)
(0.0250399 2.68956e-05 -2.03339e-24)
(0.0250379 3.55291e-05 -4.92391e-25)
(0.0250362 4.33731e-05 6.84802e-25)
(0.0250348 5.05108e-05 3.03134e-24)
(0.0250337 5.70091e-05 -9.84518e-24)
(0.0250328 6.29249e-05 -3.00615e-24)
(0.0250321 6.83064e-05 1.36712e-23)
(0.0250316 7.32027e-05 3.59095e-24)
(0.0250313 7.76604e-05 -6.06425e-24)
(0.0250312 8.17141e-05 1.84939e-24)
(0.0250312 8.53938e-05 -5.15537e-25)
(0.0229286 -1.18776e-05 1.47983e-25)
(0.0229226 -4.8871e-07 -1.6095e-24)
(0.022918 1.00796e-05 1.19908e-25)
(0.0229148 1.97585e-05 2.14252e-24)
(0.0229125 2.85865e-05 1.40359e-25)
(0.022911 3.66461e-05 -6.07493e-25)
(0.0229102 4.40102e-05 -3.82111e-25)
(0.02291 5.0739e-05 3.65849e-25)
(0.0229103 5.68802e-05 2.97568e-24)
(0.0229111 6.24793e-05 -1.58672e-23)
(0.0229124 6.7579e-05 1.38568e-23)
(0.022914 7.22165e-05 1.47191e-24)
(0.022916 7.64241e-05 -1.96886e-24)
(0.0229183 8.02288e-05 -3.21199e-24)
(0.0229209 8.36525e-05 2.67789e-24)
(0.0207209 -6.08947e-06 2.18608e-25)
(0.0207151 3.79714e-06 1.42054e-24)
(0.0207112 1.29932e-05 -1.719e-24)
(0.020709 2.14369e-05 -2.86132e-25)
(0.0207081 2.91772e-05 -1.13771e-24)
(0.0207084 3.62767e-05 8.47752e-25)
(0.0207096 4.27855e-05 -3.33726e-25)
(0.0207117 4.87462e-05 1.82704e-24)
(0.0207145 5.41965e-05 6.17892e-25)
(0.020718 5.91705e-05 -1.03331e-25)
(0.0207221 6.3697e-05 3.75389e-24)
(0.0207268 6.77998e-05 -1.77119e-24)
(0.0207319 7.15002e-05 -4.09245e-25)
(0.0207376 7.48158e-05 -8.29401e-25)
(0.0207436 7.77614e-05 -2.37817e-24)
(0.0185198 -1.45046e-06 1.56553e-24)
(0.0185158 6.66813e-06 -2.22361e-24)
(0.0185139 1.42408e-05 -7.71338e-25)
(0.018514 2.12354e-05 2.11153e-24)
(0.0185156 2.76828e-05 -8.02199e-25)
(0.0185185 3.36213e-05 8.69361e-25)
(0.0185225 3.90847e-05 -9.4189e-26)
(0.0185276 4.4102e-05 -2.53008e-24)
(0.0185335 4.86963e-05 5.90858e-24)
(0.0185402 5.28873e-05 -7.57354e-24)
(0.0185476 5.66913e-05 5.34684e-24)
(0.0185557 6.01229e-05 -3.11956e-24)
(0.0185643 6.3196e-05 6.23548e-24)
(0.0185736 6.59231e-05 -7.2535e-24)
(0.0185832 6.83155e-05 2.2284e-24)
(0.0163887 1.1099e-06 -3.07527e-25)
(0.0163873 7.44296e-06 -7.54854e-25)
(0.0163882 1.34108e-05 -1.47434e-24)
(0.0163909 1.89567e-05 3.93715e-24)
(0.0163952 2.40939e-05 -1.29635e-24)
(0.0164008 2.88489e-05 -7.95122e-26)
(0.0164076 3.32422e-05 -7.53276e-25)
(0.0164155 3.72879e-05 9.5391e-25)
(0.0164243 4.09966e-05 4.73362e-24)
(0.016434 4.43781e-05 -4.38112e-24)
(0.0164444 4.74413e-05 -2.21065e-25)
(0.0164554 5.01948e-05 3.78631e-24)
(0.0164671 5.2647e-05 -4.22067e-24)
(0.0164793 5.48048e-05 -5.30532e-25)
(0.016492 5.66742e-05 6.24193e-25)
(0.0143668 1.70018e-06 1.20146e-24)
(0.0143678 6.43371e-06 1.12906e-24)
(0.014371 1.09601e-05 -1.63766e-24)
(0.0143759 1.51861e-05 -1.52823e-24)
(0.0143823 1.91226e-05 8.19721e-25)
(0.01439 2.27906e-05 4.69482e-25)
(0.0143989 2.61978e-05 9.92858e-25)
(0.0144087 2.93476e-05 -9.03685e-25)
(0.0144195 3.22428e-05 -6.7648e-25)
(0.0144312 3.48871e-05 3.06907e-24)
(0.0144435 3.72836e-05 1.17643e-24)
(0.0144565 3.94358e-05 -9.96245e-24)
(0.0144701 4.13468e-05 3.96947e-24)
(0.0144841 4.3019e-05 1.50097e-24)
(0.0144986 4.44553e-05 1.37049e-25)
(0.0124739 1.03226e-06 -1.26192e-24)
(0.0124765 4.3829e-06 1.55933e-24)
(0.012481 7.70682e-06 3.85109e-26)
(0.0124871 1.08218e-05 1.05293e-24)
(0.0124945 1.37393e-05 -1.26866e-24)
(0.0125032 1.64813e-05 -3.95797e-25)
(0.0125129 1.90471e-05 -3.38994e-25)
(0.0125236 2.1434e-05 2.84924e-25)
(0.0125351 2.364e-05 -1.16606e-24)
(0.0125475 2.56643e-05 3.9004e-24)
(0.0125605 2.75058e-05 4.75169e-25)
(0.012574 2.91642e-05 -9.67548e-25)
(0.0125882 3.06397e-05 -1.01223e-24)
(0.0126027 3.1932e-05 -5.82012e-25)
(0.0126176 3.30427e-05 -3.59782e-25)
(0.0107175 -1.5812e-07 9.40023e-25)
(0.0107204 2.108e-06 -7.8504e-25)
(0.0107253 4.46724e-06 -2.0493e-24)
(0.0107314 6.69069e-06 1.89221e-24)
(0.0107387 8.7902e-06 6.21511e-25)
(0.0107471 1.07847e-05 -1.0502e-24)
(0.0107565 1.26694e-05 -4.25678e-26)
(0.0107668 1.44387e-05 2.14298e-24)
(0.0107779 1.60879e-05 -2.05188e-24)
(0.0107897 1.76135e-05 -4.14576e-25)
(0.0108021 1.90122e-05 1.01124e-24)
(0.010815 2.02817e-05 5.74466e-25)
(0.0108284 2.14204e-05 -1.10975e-24)
(0.0108422 2.24267e-05 -7.52555e-26)
(0.0108564 2.33008e-05 4.00065e-25)
(0.00909749 -1.29331e-06 -5.96631e-25)
(0.00910002 1.95099e-07 -2.33901e-25)
(0.00910417 1.7874e-06 5.36941e-25)
(0.00910945 3.33127e-06 -5.59913e-25)
(0.00911574 4.8007e-06 1.48137e-24)
(0.009123 6.21345e-06 -1.94536e-25)
(0.00913114 7.56494e-06 -1.57619e-24)
(0.00914007 8.84875e-06 1.16078e-24)
(0.00914971 1.00594e-05 -8.37487e-25)
(0.00916 1.11922e-05 -4.22577e-25)
(0.00917087 1.22428e-05 7.39849e-25)
(0.00918224 1.32083e-05 -8.28873e-25)
(0.00919404 1.4086e-05 1.31171e-24)
(0.00920622 1.48736e-05 3.07172e-25)
(0.00921869 1.55706e-05 -1.83319e-25)
(0.00761047 -2.03092e-06 -2.86168e-25)
(0.00761201 -1.09909e-06 1.1208e-25)
(0.00761484 -8.34437e-08 1.47502e-25)
(0.00761872 9.58812e-07 -3.14317e-25)
(0.00762342 1.9599e-06 1.25872e-25)
(0.00762895 2.9323e-06 1.34349e-25)
(0.00763526 3.87556e-06 9.10326e-26)
(0.00764227 4.78426e-06 -1.9248e-25)
(0.00764992 5.65338e-06 1.47811e-25)
(0.00765817 6.47809e-06 4.00729e-25)
(0.00766694 7.25391e-06 3.14103e-25)
(0.00767619 7.97795e-06 -1.34055e-24)
(0.00768585 8.64706e-06 -8.49767e-25)
(0.00769588 9.25923e-06 1.24201e-24)
(0.00770619 9.8132e-06 3.00667e-25)
(0.0062508 -2.27484e-06 -1.05343e-25)
(0.00625121 -1.72472e-06 -1.01089e-26)
(0.0062525 -1.13022e-06 -1.06444e-24)
(0.00625473 -4.60977e-07 5.93803e-25)
(0.00625766 2.04715e-07 5.65154e-26)
(0.00626128 8.52711e-07 6.70657e-25)
(0.00626556 1.4894e-06 1.20674e-26)
(0.00627045 2.11169e-06 -7.4931e-25)
(0.00627593 2.71644e-06 1.46213e-24)
(0.00628194 3.29921e-06 -4.61036e-25)
(0.00628843 3.856e-06 -8.67257e-25)
(0.00629538 4.38443e-06 1.79386e-24)
(0.00630272 4.88134e-06 -9.91968e-25)
(0.00631042 5.34529e-06 2.88981e-25)
(0.00631841 5.77479e-06 -5.57727e-25)
(0.00501177 -2.13491e-06 -4.31423e-25)
(0.00501112 -1.79892e-06 -4.06466e-25)
(0.00501113 -1.47387e-06 1.12377e-25)
(0.00501174 -1.09357e-06 8.61494e-25)
(0.00501298 -6.73401e-07 -3.08312e-25)
(0.00501481 -2.55416e-07 1.84295e-25)
(0.00501719 1.56655e-07 -2.28037e-25)
(0.00502009 5.63638e-07 -2.46469e-25)
(0.00502349 9.6577e-07 5.18716e-26)
(0.00502737 1.35931e-06 1.68727e-24)
(0.0050317 1.74119e-06 2.3717e-25)
(0.00503644 2.10991e-06 -1.96866e-24)
(0.00504155 2.46242e-06 2.81696e-25)
(0.00504702 2.79799e-06 6.56026e-25)
(0.00505279 3.11539e-06 -4.86491e-25)
(0.00388604 -1.70945e-06 -9.48378e-26)
(0.00388458 -1.54575e-06 2.04775e-26)
(0.00388357 -1.3722e-06 4.82831e-25)
(0.00388299 -1.15116e-06 9.61598e-26)
(0.0038829 -9.16849e-07 -3.06222e-25)
(0.00388324 -6.72449e-07 -1.88162e-25)
(0.00388405 -4.21333e-07 -8.26121e-26)
(0.00388529 -1.70487e-07 7.30153e-25)
(0.00388696 8.0245e-08 -6.32156e-25)
(0.00388903 3.28625e-07 -7.98252e-25)
(0.00389149 5.72944e-07 -3.25903e-25)
(0.00389433 8.12973e-07 1.30927e-24)
(0.00389751 1.04595e-06 -3.68573e-25)
(0.00390103 1.27168e-06 4.20374e-25)
(0.00390484 1.48957e-06 -2.49243e-25)
(0.00286581 -1.16863e-06 -1.75454e-25)
(0.00286393 -1.10619e-06 3.16519e-26)
(0.00286232 -1.03036e-06 4.0961e-25)
(0.002861 -9.22706e-07 -2.45001e-25)
(0.00286002 -7.9491e-07 3.69039e-25)
(0.00285938 -6.60971e-07 -4.09943e-25)
(0.00285909 -5.2511e-07 -2.41447e-25)
(0.00285914 -3.88533e-07 7.13385e-25)
(0.00285951 -2.46929e-07 -9.50259e-25)
(0.00286023 -1.03538e-07 9.73851e-25)
(0.00286127 3.76649e-08 -3.92095e-25)
(0.00286262 1.78532e-07 -8.53842e-26)
(0.00286427 3.17261e-07 -2.72729e-25)
(0.00286622 4.53997e-07 3.71591e-25)
(0.00286844 5.8873e-07 -1.02783e-25)
(0.00194312 -6.48508e-07 2.67302e-25)
(0.00194124 -6.42773e-07 1.99855e-25)
(0.00193951 -6.21639e-07 -9.20892e-25)
(0.00193795 -5.79844e-07 5.59396e-25)
(0.00193661 -5.25106e-07 -5.02818e-26)
(0.0019355 -4.65016e-07 -4.58526e-26)
(0.00193463 -4.01987e-07 -5.36213e-26)
(0.001934 -3.35313e-07 2.8337e-25)
(0.00193362 -2.66099e-07 -3.93862e-25)
(0.00193348 -1.96297e-07 -1.63163e-25)
(0.00193359 -1.2569e-07 8.14964e-25)
(0.00193393 -5.37811e-08 -2.80171e-25)
(0.00193452 1.68963e-08 -3.1752e-25)
(0.00193534 8.77566e-08 2.61259e-26)
(0.00193639 1.59438e-07 6.90742e-26)
(0.00111008 -2.43567e-07 -2.70666e-25)
(0.00110862 -2.39341e-07 7.39951e-25)
(0.00110722 -2.32953e-07 2.352e-25)
(0.0011059 -2.21948e-07 -6.26981e-25)
(0.00110471 -2.07575e-07 -6.30362e-26)
(0.00110364 -1.9107e-07 -1.78396e-26)
(0.00110272 -1.72763e-07 -5.825e-26)
(0.00110194 -1.52337e-07 1.84404e-25)
(0.00110131 -1.3126e-07 -5.22113e-25)
(0.00110084 -1.09284e-07 2.47237e-25)
(0.00110051 -8.64288e-08 3.52216e-25)
(0.00110035 -6.31119e-08 -2.71253e-25)
(0.00110034 -4.03618e-08 5.65577e-25)
(0.00110048 -1.69329e-08 -6.47418e-25)
(0.00110078 8.31661e-09 1.49764e-25)
(0.00035907 -5.61648e-09 -1.94622e-27)
(0.000358385 6.66206e-08 1.37037e-25)
(0.000357717 1.12934e-07 9.7726e-26)
(0.000357076 1.39113e-07 -2.06246e-25)
(0.000356479 1.50237e-07 1.56669e-25)
(0.000355931 1.50248e-07 -1.83293e-25)
(0.000355434 1.42203e-07 -1.0859e-26)
(0.000354989 1.29034e-07 -2.1113e-25)
(0.000354599 1.11904e-07 3.05827e-25)
(0.000354265 9.2593e-08 1.68973e-25)
(0.000353988 7.24634e-08 -5.79945e-25)
(0.000353771 5.24327e-08 2.95001e-25)
(0.000353612 3.33512e-08 2.13039e-25)
(0.000353515 1.57281e-08 -1.93514e-25)
(0.000353477 4.85806e-10 1.2446e-26)
(0.000982778 -0.000266624 9.50682e-26)
(0.0011244 -0.000190377 2.47809e-24)
(0.00136166 -0.000113758 -7.19042e-24)
(0.00160333 -5.54346e-05 1.05904e-23)
(0.00183351 -1.34847e-05 -3.97267e-24)
(0.00205706 1.3023e-05 -3.92203e-24)
(0.00227373 2.71529e-05 4.49588e-24)
(0.002484 3.15759e-05 -8.94074e-24)
(0.0026887 2.86829e-05 5.83715e-25)
(0.00288861 2.05929e-05 5.62018e-24)
(0.00308454 9.15327e-06 -1.05503e-24)
(0.00327726 -3.93018e-06 1.11758e-24)
(0.00346751 -1.69872e-05 -1.21325e-25)
(0.00365605 -2.82319e-05 6.26085e-25)
(0.00384386 -3.56347e-05 -2.28501e-24)
(0.00403227 -3.67814e-05 1.22801e-24)
(0.00422344 -2.89563e-05 -3.40064e-25)
(0.00442062 -9.25314e-06 3.94692e-26)
(0.00462874 2.50392e-05 7.43e-25)
(0.00485409 7.50343e-05 -4.60907e-25)
(0.00510594 0.000138992 5.9934e-26)
(0.00538928 0.000210964 -5.41286e-26)
(0.0056842 0.000268237 1.20222e-25)
(0.00595243 0.000294144 5.18303e-25)
(0.00617811 0.000288562 -9.28369e-25)
(0.00635988 0.000254109 -7.32603e-25)
(0.00649947 0.000193771 -5.33986e-26)
(0.00659895 0.000110196 1.95582e-24)
(0.00665929 5.99429e-06 3.15324e-24)
(0.00668009 -0.000115571 -6.24306e-24)
(0.00666 -0.000249813 6.21807e-24)
(0.00659744 -0.000390494 -6.30314e-24)
(0.00649116 -0.0005299 1.92035e-24)
(0.00634076 -0.000659196 1.0823e-24)
(0.00614679 -0.000768841 -1.15536e-24)
(0.00591069 -0.000848836 1.59606e-24)
(0.0056345 -0.000888659 7.8613e-25)
(0.00532068 -0.000876635 1.98047e-24)
(0.00497207 -0.000798448 1.57746e-24)
(0.00459261 -0.000634898 -7.33275e-24)
(0.00418735 -0.000361453 -1.01543e-25)
(0.00376455 4.42456e-05 3.9533e-24)
(0.00332017 0.000571065 1.60446e-24)
(0.00288028 0.00113347 -5.87555e-24)
(0.00263627 0.00142158 -3.16669e-25)
(0.00184568 -0.00035243 -2.81567e-24)
(0.00190407 -0.000312401 -4.04665e-24)
(0.00204828 -0.000238726 8.43147e-24)
(0.00222995 -0.000172144 4.04764e-24)
(0.00242153 -0.000118582 -1.41658e-23)
(0.00261767 -8.02564e-05 1.52637e-23)
(0.00281371 -5.52693e-05 -5.49112e-24)
(0.00300747 -4.11778e-05 4.42884e-24)
(0.00319825 -3.55627e-05 -5.84677e-24)
(0.00338589 -3.61955e-05 7.22012e-26)
(0.00357057 -4.11021e-05 -3.01262e-24)
(0.00375269 -4.84498e-05 5.92692e-24)
(0.00393271 -5.64626e-05 -3.20762e-24)
(0.00411119 -6.32718e-05 -2.67073e-24)
(0.00428898 -6.68175e-05 -1.55893e-24)
(0.00446725 -6.46893e-05 3.31025e-24)
(0.004648 -5.42163e-05 -3.04437e-25)
(0.00483428 -3.25749e-05 1.48755e-24)
(0.00503081 2.87717e-06 2.07632e-25)
(0.00524362 5.31744e-05 -4.13279e-25)
(0.00548193 0.000116761 -1.74619e-25)
(0.00575084 0.000188117 -1.22325e-25)
(0.00603265 0.00024515 6.41565e-25)
(0.00629156 0.000271926 9.16287e-25)
(0.00651191 0.000268442 -7.12074e-25)
(0.00669166 0.000237088 -4.26325e-24)
(0.00683177 0.000180746 5.99355e-24)
(0.00693364 0.000102156 -4.47406e-24)
(0.00699778 4.21352e-06 1.53447e-24)
(0.0070236 -0.000109784 -1.18041e-24)
(0.00700979 -0.000234776 9.28702e-24)
(0.00695496 -0.000364508 -1.34797e-23)
(0.00685823 -0.000491301 8.29115e-24)
(0.00671967 -0.000606441 -7.73114e-24)
(0.00654046 -0.000700541 6.20383e-24)
(0.0063229 -0.000763758 -1.20371e-24)
(0.00607029 -0.00078572 5.07781e-24)
(0.00578696 -0.000754998 -3.82739e-25)
(0.0054787 -0.000657902 -6.10233e-24)
(0.00515423 -0.00047658 -4.81796e-24)
(0.00482732 -0.000188546 1.10489e-23)
(0.00452192 0.00022665 -1.15633e-23)
(0.00426652 0.00075571 -3.26329e-24)
(0.00410945 0.00129948 8.04484e-24)
(0.00411259 0.00151471 2.90402e-24)
(0.00285926 -0.000360355 -3.32758e-26)
(0.00286769 -0.000362687 -4.7174e-24)
(0.0029263 -0.000322005 8.94841e-24)
(0.00303826 -0.000265957 7.77577e-24)
(0.00317644 -0.000212259 -1.26184e-23)
(0.00333124 -0.000168512 2.5122e-25)
(0.00349484 -0.000136096 1.24312e-24)
(0.00366233 -0.000114156 1.3589e-23)
(0.00383107 -0.000100961 -1.60826e-23)
(0.00399958 -9.45856e-05 9.80747e-24)
(0.00416714 -9.31322e-05 2.80447e-24)
(0.00433348 -9.47665e-05 -1.58075e-23)
(0.00449866 -9.76795e-05 5.68339e-24)
(0.0046629 -9.99689e-05 2.13323e-24)
(0.0048268 -9.95657e-05 -4.15442e-24)
(0.00499131 -9.40827e-05 6.4537e-24)
(0.00515823 -8.09064e-05 -4.34533e-24)
(0.00533038 -5.73072e-05 -1.8022e-26)
(0.00551219 -2.07112e-05 3.25518e-25)
(0.00570941 2.98271e-05 3.14245e-25)
(0.0059312 9.29387e-05 2.76542e-26)
(0.00618268 0.000163553 1.91891e-25)
(0.00644861 0.000220179 -6.59959e-25)
(0.00669589 0.000247648 2.05823e-24)
(0.00690911 0.00024614 -3.50471e-24)
(0.00708545 0.000217818 2.06329e-24)
(0.00722504 0.000165452 -5.5231e-24)
(0.00732859 9.18787e-05 7.4841e-24)
(0.0073961 1.27688e-07 -7.73011e-24)
(0.00742678 -0.000106029 -2.07681e-25)
(0.00741935 -0.000221587 -8.15989e-25)
(0.00737263 -0.000340152 1.56776e-23)
(0.00728614 -0.000454097 -5.35964e-24)
(0.00716047 -0.000554869 -3.84704e-24)
(0.0069975 -0.000633337 4.18022e-24)
(0.00680045 -0.000679994 6.18023e-25)
(0.00657396 -0.000684958 -2.27156e-24)
(0.00632428 -0.000637638 9.07872e-24)
(0.00606004 -0.000526056 -1.90857e-23)
(0.00579418 -0.000335861 7.67373e-24)
(0.0055467 -5.09493e-05 3.11275e-24)
(0.0053495 0.000339399 5.62253e-24)
(0.00524106 0.000812121 -7.01508e-24)
(0.00525406 0.00126383 2.21316e-24)
(0.00538176 0.00142488 -1.38797e-24)
(0.00400353 -0.000341972 -1.20333e-24)
(0.0039829 -0.000370629 -1.8622e-24)
(0.0039906 -0.000358682 -7.97931e-24)
(0.00403554 -0.000326584 2.06617e-24)
(0.00411611 -0.000283619 1.39146e-24)
(0.00422081 -0.000242732 6.51135e-24)
(0.00434212 -0.000208423 -1.38783e-23)
(0.00447388 -0.000182217 5.27145e-24)
(0.00461201 -0.000163685 1.76641e-23)
(0.00475373 -0.000151676 -4.74151e-24)
(0.00489733 -0.000144698 -4.3673e-24)
(0.00504177 -0.000141116 -6.76227e-25)
(0.00518655 -0.000139215 2.111e-24)
(0.00533146 -0.000137142 -4.01144e-24)
(0.00547676 -0.000132874 9.67233e-25)
(0.00562311 -0.000124086 -2.33582e-25)
(0.00577205 -0.000108252 -1.53491e-24)
(0.00592613 -8.27606e-05 6.9873e-25)
(0.00608945 -4.51176e-05 2.60592e-24)
(0.00626746 5.50988e-06 -2.9097e-25)
(0.0064692 6.79423e-05 -5.80005e-25)
(0.00669974 0.000137586 -1.82644e-25)
(0.00694651 0.000193533 -1.16609e-24)
(0.00717942 0.000221443 -1.99506e-25)
(0.00738329 0.000221742 -3.35376e-24)
(0.00755442 0.000196364 5.5205e-24)
(0.00769211 0.000147958 -5.52076e-24)
(0.00779628 7.94621e-05 1.09005e-23)
(0.00786643 -5.90288e-06 -1.01384e-23)
(0.00790153 -0.000104104 2.07863e-24)
(0.00790035 -0.000210016 4.88797e-24)
(0.00786195 -0.00031721 -1.86216e-26)
(0.00778624 -0.000418172 -2.13154e-25)
(0.00767439 -0.000504617 3.73721e-25)
(0.00752899 -0.000567825 -1.46339e-24)
(0.00735418 -0.00059889 -8.43962e-25)
(0.00715585 -0.000588828 7.79559e-24)
(0.00694193 -0.000528533 -3.77035e-24)
(0.00672323 -0.000408695 5.06463e-25)
(0.00651506 -0.000219898 -1.93903e-23)
(0.0063393 4.56408e-05 1.512e-23)
(0.00622671 0.000387634 -6.39396e-24)
(0.00621059 0.000777922 1.23209e-24)
(0.00630514 0.00113316 8.55636e-24)
(0.00648663 0.00129054 -2.15914e-24)
(0.00527051 -0.000313807 -4.98069e-24)
(0.00523913 -0.000352625 1.02057e-23)
(0.00521763 -0.000360931 2.91747e-24)
(0.00522015 -0.0003501 1.25716e-23)