/*--------------------------------*- C++ -*----------------------------------*\
| =========                 |                                                 |
| \\      /  F ield         | OpenFOAM: The Open Source CFD Toolbox           |
|  \\    /   O peration     | Version:  2312                                  |
|   \\  /    A nd           | Website:  www.openfoam.com                      |
|    \\/     M anipulation  |                                                 |
\*---------------------------------------------------------------------------*/
FoamFile
{
    version     2.0;
    format      ascii;
    arch        "LSB;label=32;scalar=64";
    class       volScalarField;
    location    "17";
    object      p;
}
// * * * * * * * * * * * * * * * * * * * * * * * * * * * * * * * * * * * * * //

dimensions      [0 2 -2 0 0 0 0];

internalField   nonuniform List<scalar> 
4800
(
-1.5601e-12
-1.41007e-06
-2.58446e-06
-3.57952e-06
-4.43347e-06
-5.17155e-06
-5.81811e-06
-6.39076e-06
-6.89799e-06
-7.35205e-06
-7.76161e-06
-8.12879e-06
-8.44728e-06
-8.94823e-06
-1.058e-05
1.5452e-08
-1.392e-06
-2.56456e-06
-3.55847e-06
-4.41242e-06
-5.15157e-06
-5.80068e-06
-6.37734e-06
-6.89054e-06
-7.35433e-06
-7.78255e-06
-8.19076e-06
-8.59376e-06
-9.09829e-06
-9.95215e-06
3.19488e-08
-1.37261e-06
-2.54328e-06
-3.53622e-06
-4.39004e-06
-5.13007e-06
-5.78005e-06
-6.35971e-06
-6.87769e-06
-7.34852e-06
-7.7875e-06
-8.211e-06
-8.6283e-06
-9.04861e-06
-9.45145e-06
4.90278e-08
-1.35202e-06
-2.52028e-06
-3.51172e-06
-4.36483e-06
-5.10574e-06
-5.75489e-06
-6.33574e-06
-6.85583e-06
-7.32785e-06
-7.76485e-06
-8.17475e-06
-8.55058e-06
-8.86246e-06
-9.04233e-06
6.81942e-08
-1.32847e-06
-2.49354e-06
-3.48273e-06
-4.33422e-06
-5.07487e-06
-5.72286e-06
-6.30137e-06
-6.81946e-06
-7.28539e-06
-7.70734e-06
-8.08386e-06
-8.39687e-06
-8.60894e-06
-8.66612e-06
9.09252e-08
-1.3004e-06
-2.46135e-06
-3.4473e-06
-4.29601e-06
-5.03408e-06
-5.68001e-06
-6.25244e-06
-6.76236e-06
-7.21361e-06
-7.60852e-06
-7.93945e-06
-8.1861e-06
-8.31964e-06
-8.3125e-06
1.19403e-07
-1.26559e-06
-2.42132e-06
-3.40273e-06
-4.24703e-06
-4.98017e-06
-5.6204e-06
-6.18308e-06
-6.67773e-06
-7.10552e-06
-7.46435e-06
-7.74491e-06
-7.93165e-06
-8.00979e-06
-7.97259e-06
1.57292e-07
-1.22044e-06
-2.36965e-06
-3.34486e-06
-4.18251e-06
-4.90776e-06
-5.5378e-06
-6.08559e-06
-6.55818e-06
-6.95541e-06
-7.27365e-06
-7.50589e-06
-7.64444e-06
-7.68688e-06
-7.63825e-06
2.10115e-07
-1.15951e-06
-2.30071e-06
-3.26761e-06
-4.0958e-06
-4.80943e-06
-5.42448e-06
-5.9518e-06
-6.39669e-06
-6.75925e-06
-7.03713e-06
-7.22786e-06
-7.33128e-06
-7.35312e-06
-7.30348e-06
2.85131e-07
-1.07544e-06
-2.20685e-06
-3.16292e-06
-3.97831e-06
-4.67617e-06
-5.2714e-06
-5.77353e-06
-6.18724e-06
-6.51452e-06
-6.75612e-06
-6.91442e-06
-6.99475e-06
-7.00708e-06
-6.96275e-06
3.90597e-07
-9.59473e-07
-2.07876e-06
-3.02097e-06
-3.81991e-06
-4.49783e-06
-5.06905e-06
-5.54279e-06
-5.92491e-06
-6.21966e-06
-6.43152e-06
-6.56689e-06
-6.63427e-06
-6.64512e-06
-6.61022e-06
5.34863e-07
-8.02189e-07
-1.90624e-06
-2.83105e-06
-3.6098e-06
-4.2642e-06
-4.80867e-06
-5.25331e-06
-5.60596e-06
-5.87339e-06
-6.06326e-06
-6.18453e-06
-6.24709e-06
-6.26228e-06
-6.23966e-06
7.26107e-07
-5.93973e-07
-1.67875e-06
-2.58222e-06
-3.33734e-06
-3.96583e-06
-4.4829e-06
-4.90019e-06
-5.2276e-06
-5.47435e-06
-5.65009e-06
-5.76499e-06
-5.82915e-06
-5.85298e-06
-5.84475e-06
9.72516e-07
-3.24883e-07
-1.38549e-06
-2.26355e-06
-2.99234e-06
-3.59414e-06
-4.08529e-06
-4.47907e-06
-4.7871e-06
-5.02028e-06
-5.18922e-06
-5.30433e-06
-5.3752e-06
-5.41106e-06
-5.41897e-06
1.28209e-06
1.51346e-08
-1.01559e-06
-1.86431e-06
-2.56504e-06
-3.14092e-06
-3.60942e-06
-3.98499e-06
-4.28032e-06
-4.50688e-06
-4.67561e-06
-4.79651e-06
-4.87832e-06
-4.92911e-06
-4.95492e-06
1.66161e-06
4.35177e-07
-5.59196e-07
-1.37497e-06
-2.04683e-06
-2.59878e-06
-3.04892e-06
-3.41209e-06
-3.70117e-06
-3.92788e-06
-4.10233e-06
-4.23382e-06
-4.33028e-06
-4.39874e-06
-4.44443e-06
2.1145e-06
9.41144e-07
-9.65061e-09
-7.89154e-07
-1.43202e-06
-1.96256e-06
-2.39891e-06
-2.75557e-06
-3.04479e-06
-3.27731e-06
-3.46252e-06
-3.60894e-06
-3.72365e-06
-3.8127e-06
-3.88066e-06
2.63814e-06
1.53252e-06
6.33281e-07
-1.06714e-07
-7.20631e-07
-1.23208e-06
-1.65844e-06
-2.01329e-06
-2.30773e-06
-2.55123e-06
-2.75181e-06
-2.91731e-06
-3.05399e-06
-3.16701e-06
-3.26036e-06
3.22172e-06
2.19912e-06
1.35977e-06
6.62677e-07
7.79792e-08
-4.15908e-07
-8.34753e-07
-1.19059e-06
-1.49313e-06
-1.75073e-06
-1.97051e-06
-2.15851e-06
-2.32011e-06
-2.45993e-06
-2.58164e-06
3.84408e-06
2.91785e-06
2.14586e-06
1.49488e-06
9.39918e-07
4.62548e-07
4.92853e-08
-3.09947e-07
-6.2305e-07
-8.96612e-07
-1.1365e-06
-1.34786e-06
-1.53548e-06
-1.70345e-06
-1.85512e-06
4.44219e-06
3.61515e-06
2.91173e-06
2.3067e-06
1.78058e-06
1.31872e-06
9.10199e-07
5.46765e-07
2.2196e-07
-6.94432e-08
-3.31779e-07
-5.68942e-07
-7.85174e-07
-9.83876e-07
-1.16785e-06
4.93258e-06
4.19159e-06
3.54774e-06
2.98258e-06
2.48154e-06
2.03347e-06
1.62984e-06
1.26409e-06
9.30842e-07
6.25447e-07
3.43623e-07
8.19854e-08
-1.61147e-07
-3.87955e-07
-6.0092e-07
5.29926e-06
4.62523e-06
4.02764e-06
3.49317e-06
3.01107e-06
2.5729e-06
2.17197e-06
1.80288e-06
1.46116e-06
1.14309e-06
8.45637e-07
5.6656e-07
3.03511e-07
5.46162e-08
-1.82009e-07
5.56693e-06
4.94512e-06
4.38397e-06
3.87389e-06
3.40705e-06
2.977e-06
2.57844e-06
2.20698e-06
1.859e-06
1.53151e-06
1.22204e-06
9.28453e-07
6.48887e-07
3.81724e-07
1.2541e-07
5.76012e-06
5.17916e-06
4.64703e-06
4.15672e-06
3.70241e-06
3.27913e-06
2.88261e-06
2.50928e-06
2.15613e-06
1.82072e-06
1.50092e-06
1.19492e-06
9.01252e-07
6.1859e-07
3.45648e-07
5.89823e-06
5.34941e-06
4.84044e-06
4.36606e-06
3.92187e-06
3.50396e-06
3.10886e-06
2.73365e-06
2.37586e-06
2.03344e-06
1.70464e-06
1.38807e-06
1.08246e-06
7.86742e-07
4.9984e-07
5.99608e-06
5.47278e-06
4.9823e-06
4.52068e-06
4.08453e-06
3.67072e-06
3.27645e-06
2.89933e-06
2.53735e-06
2.18882e-06
1.8523e-06
1.52675e-06
1.21109e-06
9.04388e-07
6.05782e-07
6.06491e-06
5.56206e-06
5.08642e-06
4.63504e-06
4.20528e-06
3.7946e-06
3.40073e-06
3.02173e-06
2.65602e-06
2.30226e-06
1.95913e-06
1.62593e-06
1.3017e-06
9.85711e-07
6.77242e-07
6.11307e-06
5.62682e-06
5.16324e-06
4.72017e-06
4.29553e-06
3.88725e-06
3.4935e-06
3.11273e-06
2.74365e-06
2.38513e-06
2.03654e-06
1.69679e-06
1.36523e-06
1.04134e-06
7.24519e-07
6.14671e-06
5.67415e-06
5.22051e-06
4.78429e-06
4.3638e-06
3.95737e-06
3.56355e-06
3.18114e-06
2.80913e-06
2.44663e-06
2.09304e-06
1.74759e-06
1.40975e-06
1.07911e-06
7.5519e-07
6.17032e-06
5.70921e-06
5.26391e-06
4.83339e-06
4.4163e-06
4.01131e-06
3.61731e-06
3.23337e-06
2.85869e-06
2.49272e-06
2.13477e-06
1.78438e-06
1.44113e-06
1.1047e-06
7.74705e-07
6.1871e-06
5.73572e-06
5.29749e-06
4.87177e-06
4.4575e-06
4.05366e-06
3.65941e-06
3.27407e-06
2.89706e-06
2.52793e-06
2.16619e-06
1.8115e-06
1.46355e-06
1.12211e-06
7.8687e-07
6.19932e-06
5.75629e-06
5.32412e-06
4.90249e-06
4.49058e-06
4.08765e-06
3.69311e-06
3.30649e-06
2.9274e-06
2.55546e-06
2.19038e-06
1.83192e-06
1.47987e-06
1.13407e-06
7.9427e-07
6.2085e-06
5.77271e-06
5.34577e-06
4.92765e-06
4.51773e-06
4.11555e-06
3.7207e-06
3.3329e-06
2.95192e-06
2.5775e-06
2.20946e-06
1.84769e-06
1.49203e-06
1.1424e-06
7.98621e-07
6.21568e-06
5.7862e-06
5.3638e-06
4.9487e-06
4.54048e-06
4.1389e-06
3.74374e-06
3.35485e-06
2.97217e-06
2.59554e-06
2.22488e-06
1.86017e-06
1.50132e-06
1.14831e-06
8.01038e-07
6.2215e-06
5.79753e-06
5.3791e-06
4.9666e-06
4.55984e-06
4.15875e-06
3.76327e-06
3.37339e-06
2.98919e-06
2.61057e-06
2.23758e-06
1.87025e-06
1.50858e-06
1.1526e-06
8.02234e-07
6.22635e-06
5.80721e-06
5.39222e-06
4.98198e-06
4.57645e-06
4.17578e-06
3.77996e-06
3.38921e-06
3.00363e-06
2.62323e-06
2.24817e-06
1.87852e-06
1.51436e-06
1.15574e-06
8.0266e-07
6.23054e-06
5.81563e-06
5.40364e-06
4.99535e-06
4.59089e-06
4.19054e-06
3.79438e-06
3.40286e-06
3.01603e-06
2.63405e-06
2.25714e-06
1.88545e-06
1.51906e-06
1.1581e-06
8.02588e-07
6.2344e-06
5.82342e-06
5.41421e-06
5.00771e-06
4.60422e-06
4.20409e-06
3.80768e-06
3.41538e-06
3.02736e-06
2.64388e-06
2.26523e-06
1.89161e-06
1.52314e-06
1.15997e-06
8.02154e-07
6.23801e-06
5.83096e-06
5.42441e-06
5.01966e-06
4.6171e-06
4.21725e-06
3.82051e-06
3.4274e-06
3.03821e-06
2.65326e-06
2.27285e-06
1.89725e-06
1.52671e-06
1.16145e-06
8.01539e-07
-1.19458e-05
-9.70087e-06
-8.32046e-06
-7.39418e-06
-6.65105e-06
-6.07749e-06
-5.62832e-06
-5.2725e-06
-4.98953e-06
-4.76346e-06
-4.58159e-06
-4.43347e-06
-4.3105e-06
-4.20605e-06
-4.11591e-06
-4.03994e-06
-3.98348e-06
-3.96179e-06
-4.00193e-06
-4.14847e-06
-4.45748e-06
-4.98366e-06
-5.67687e-06
-6.33011e-06
-6.78786e-06
-6.97395e-06
-6.85147e-06
-6.40916e-06
-5.64775e-06
-4.57505e-06
-3.20493e-06
-1.55876e-06
3.33228e-07
2.43144e-06
4.68767e-06
7.04655e-06
9.4468e-06
1.18214e-05
1.40947e-05
1.61761e-05
1.79398e-05
1.92221e-05
1.96511e-05
1.89045e-05
1.57685e-05
-1.03279e-05
-9.165e-06
-8.12066e-06
-7.29527e-06
-6.59772e-06
-6.03984e-06
-5.59632e-06
-5.24281e-06
-4.96119e-06
-4.73642e-06
-4.55606e-06
-4.40972e-06
-4.2888e-06
-4.18671e-06
-4.09929e-06
-4.02645e-06
-3.97355e-06
-3.9557e-06
-3.99952e-06
-4.14858e-06
-4.45736e-06
-4.97866e-06
-5.66228e-06
-6.30423e-06
-6.75184e-06
-6.93013e-06
-6.80242e-06
-6.35739e-06
-5.59598e-06
-4.5266e-06
-3.16427e-06
-1.53193e-06
3.38181e-07
2.40402e-06
4.61427e-06
6.90927e-06
9.22156e-06
1.14746e-05
1.35776e-05
1.54134e-05
1.68064e-05
1.74859e-05
1.69225e-05
1.43629e-05
8.83505e-06
-9.47922e-06
-8.74643e-06
-7.91314e-06
-7.17891e-06
-6.53203e-06
-5.99579e-06
-5.56122e-06
-5.21156e-06
-4.9319e-06
-4.70859e-06
-4.52971e-06
-4.38509e-06
-4.26619e-06
-4.16649e-06
-4.0819e-06
-4.01242e-06
-3.96341e-06
-3.94984e-06
-3.99779e-06
-4.14967e-06
-4.45812e-06
-4.97373e-06
-5.64609e-06
-6.27475e-06
-6.7104e-06
-6.87955e-06
-6.74596e-06
-6.29836e-06
-5.53804e-06
-4.47431e-06
-3.12366e-06
-1.51109e-06
3.28592e-07
2.3502e-06
4.49839e-06
6.70815e-06
8.90447e-06
1.09999e-05
1.28876e-05
1.44268e-05
1.54134e-05
1.55417e-05
1.43368e-05
1.12774e-05
6.26947e-06
-8.93547e-06
-8.4035e-06
-7.73023e-06
-7.06887e-06
-6.4704e-06
-5.95709e-06
-5.53198e-06
-5.18575e-06
-4.90709e-06
-4.68417e-06
-4.50579e-06
-4.36206e-06
-4.24456e-06
-4.14685e-06
-4.06488e-06
-3.99872e-06
-3.95375e-06
-3.94469e-06
-3.99703e-06
-4.15189e-06
-4.45986e-06
-4.96898e-06
-5.62855e-06
-6.24189e-06
-6.66342e-06
-6.82135e-06
-6.68008e-06
-6.2286e-06
-5.46885e-06
-4.4114e-06
-3.07476e-06
-1.48657e-06
3.15054e-07
2.28096e-06
4.35093e-06
6.45379e-06
8.50651e-06
1.04113e-05
1.20487e-05
1.3266e-05
1.38591e-05
1.35604e-05
1.20466e-05
9.07594e-06
4.901e-06
-8.5112e-06
-8.09983e-06
-7.5504e-06
-6.9725e-06
-6.41899e-06
-5.92855e-06
-5.5129e-06
-5.16903e-06
-4.88984e-06
-4.66562e-06
-4.48616e-06
-4.34201e-06
-4.22493e-06
-4.12854e-06
-4.04886e-06
-3.98598e-06
-3.9452e-06
-3.94097e-06
-3.99804e-06
-4.15604e-06
-4.46321e-06
-4.96473e-06
-5.60951e-06
-6.20524e-06
-6.61055e-06
-6.75559e-06
-6.60565e-06
-6.15023e-06
-5.39223e-06
-4.34385e-06
-3.02605e-06
-1.46963e-06
2.8349e-07
2.17971e-06
4.15362e-06
6.12795e-06
8.01266e-06
9.70265e-06
1.10734e-05
1.19752e-05
1.22309e-05
1.16463e-05
1.00513e-05
7.40393e-06
3.98036e-06
-8.15282e-06
-7.82412e-06
-7.37051e-06
-6.87492e-06
-6.37433e-06
-5.90977e-06
-5.50525e-06
-5.16366e-06
-4.88286e-06
-4.6557e-06
-4.47338e-06
-4.32718e-06
-4.20919e-06
-4.11316e-06
-4.03519e-06
-3.97535e-06
-3.93885e-06
-3.9397e-06
-4.0018e-06
-4.16299e-06
-4.46888e-06
-4.96134e-06
-5.58887e-06
-6.16435e-06
-6.55112e-06
-6.68165e-06
-6.5224e-06
-6.06368e-06
-5.30969e-06
-4.27466e-06
-2.98239e-06
-1.46727e-06
2.24674e-07
2.03525e-06
3.89414e-06
5.719e-06
7.41532e-06
8.87576e-06
9.97964e-06
1.05953e-05
1.05874e-05
9.83999e-06
8.29709e-06
6.02558e-06
3.27942e-06
-7.82554e-06
-7.56027e-06
-7.19151e-06
-6.76427e-06
-6.32167e-06
-5.89349e-06
-5.50456e-06
-5.16842e-06
-4.88688e-06
-4.65618e-06
-4.46969e-06
-4.31989e-06
-4.19955e-06
-4.10273e-06
-4.02568e-06
-3.96846e-06
-3.93614e-06
-3.94221e-06
-4.00949e-06
-4.17375e-06
-4.47762e-06
-4.95921e-06
-5.56662e-06
-6.11877e-06
-6.48445e-06
-6.59876e-06
-6.4297e-06
-5.96879e-06
-5.22191e-06
-4.20572e-06
-2.94725e-06
-1.4847e-06
1.31694e-07
1.83951e-06
3.56446e-06
5.22126e-06
6.71467e-06
7.94133e-06
8.79326e-06
9.16545e-06
8.96859e-06
8.1514e-06
6.72743e-06
4.80211e-06
2.58225e-06
-7.50906e-06
-7.29412e-06
-6.99654e-06
-6.63899e-06
-6.25281e-06
-5.86562e-06
-5.50218e-06
-5.1776e-06
-4.89886e-06
-4.66608e-06
-4.47544e-06
-4.32132e-06
-4.1976e-06
-4.09901e-06
-4.02211e-06
-3.96706e-06
-3.93876e-06
-3.95005e-06
-4.02251e-06
-4.18952e-06
-4.49035e-06
-4.95883e-06
-5.54273e-06
-6.06811e-06
-6.40994e-06
-6.50634e-06
-6.32732e-06
-5.86602e-06
-5.13047e-06
-4.14013e-06
-2.92547e-06
-1.52855e-06
-3.4462e-09
1.58407e-06
3.15757e-06
4.63177e-06
5.91523e-06
6.91453e-06
7.54049e-06
7.7179e-06
7.39813e-06
6.5744e-06
5.29439e-06
3.66541e-06
1.84535e-06
-7.19321e-06
-7.01914e-06
-6.78015e-06
-6.48666e-06
-6.15834e-06
-5.81793e-06
-5.48707e-06
-5.18174e-06
-4.91173e-06
-4.68075e-06
-4.48809e-06
-4.33046e-06
-4.20343e-06
-4.10277e-06
-4.0257e-06
-3.97259e-06
-3.94824e-06
-3.96477e-06
-4.04233e-06
-4.21155e-06
-4.50798e-06
-4.96069e-06
-5.51719e-06
-6.01204e-06
-6.32719e-06
-6.40425e-06
-6.21572e-06
-5.7569e-06
-5.03839e-06
-4.08271e-06
-2.92377e-06
-1.60716e-06
-1.89924e-07
1.2604e-06
2.6677e-06
3.95025e-06
5.02481e-06
5.81228e-06
6.24494e-06
6.27526e-06
5.8852e-06
5.09374e-06
3.95981e-06
2.57769e-06
1.06468e-06
-6.87146e-06
-6.73165e-06
-6.54117e-06
-6.30406e-06
-6.03176e-06
-5.7407e-06
-5.44833e-06
-5.16968e-06
-4.91562e-06
-4.69234e-06
-4.50192e-06
-4.3436e-06
-4.21491e-06
-4.11312e-06
-4.03641e-06
-3.98561e-06
-3.96553e-06
-3.9875e-06
-4.07009e-06
-4.24084e-06
-4.53126e-06
-4.96517e-06
-5.49e-06
-5.95038e-06
-6.23623e-06
-6.2931e-06
-6.0965e-06
-5.64443e-06
-4.95045e-06
-4.0402e-06
-2.95072e-06
-1.73024e-06
-4.37387e-07
8.60715e-07
2.0912e-06
3.17936e-06
4.05356e-06
4.65117e-06
4.92514e-06
4.85025e-06
4.42829e-06
3.69001e-06
2.69301e-06
1.51437e-06
2.40425e-07
-6.5379e-06
-6.42792e-06
-6.2784e-06
-6.09034e-06
-5.86981e-06
-5.62772e-06
-5.37724e-06
-5.13117e-06
-4.90006e-06
-4.69129e-06
-4.50898e-06
-4.35456e-06
-4.22763e-06
-4.12716e-06
-4.05255e-06
-4.00536e-06
-3.99049e-06
-4.01848e-06
-4.10621e-06
-4.27783e-06
-4.56049e-06
-4.9724e-06
-5.4612e-06
-5.88334e-06
-6.1379e-06
-6.17478e-06
-5.9729e-06
-5.53361e-06
-4.87366e-06
-4.02156e-06
-3.01662e-06
-1.90843e-06
-7.55188e-07
3.78889e-07
1.42708e-06
2.32447e-06
3.01283e-06
3.44584e-06
3.59387e-06
3.44753e-06
3.01947e-06
2.34322e-06
1.4693e-06
4.58287e-07
-6.26294e-07
-6.18641e-06
-6.10342e-06
-5.98946e-06
-5.84421e-06
-5.67057e-06
-5.47535e-06
-5.2679e-06
-5.05833e-06
-4.85595e-06
-4.66825e-06
-4.50048e-06
-4.35573e-06
-4.23542e-06
-4.14018e-06
-4.07075e-06
-4.02953e-06
-4.02163e-06
-4.0568e-06
-4.15007e-06
-4.32205e-06
-4.59527e-06
-4.98222e-06
-5.43112e-06
-5.81197e-06
-6.03442e-06
-6.05309e-06
-5.85057e-06
-5.43206e-06
-4.81762e-06
-4.03787e-06
-3.13313e-06
-2.15244e-06
-1.15135e-06
-1.88656e-07
6.77402e-07
1.39328e-06
1.91428e-06
2.20835e-06
2.25899e-06
2.06662e-06
1.6483e-06
1.03537e-06
2.69464e-07
-6.02885e-07
-1.53484e-06
-5.81082e-06
-5.75304e-06
-5.67086e-06
-5.56356e-06
-5.43229e-06
-5.28108e-06
-5.11626e-06
-4.94538e-06
-4.77605e-06
-4.61515e-06
-4.46823e-06
-4.3394e-06
-4.23143e-06
-4.14642e-06
-4.08637e-06
-4.05451e-06
-4.05615e-06
-4.10028e-06
-4.1999e-06
-4.37205e-06
-4.63453e-06
-4.99423e-06
-5.40068e-06
-5.73877e-06
-5.93024e-06
-5.93466e-06
-5.73812e-06
-5.35034e-06
-4.79443e-06
-4.1019e-06
-3.3122e-06
-2.47176e-06
-1.63121e-06
-8.41905e-07
-1.52242e-07
3.95799e-07
7.69741e-07
9.48889e-07
9.25503e-07
7.05071e-07
3.0506e-07
-2.47695e-07
-9.20226e-07
-1.67737e-06
-2.48453e-06
-5.40481e-06
-5.37125e-06
-5.31837e-06
-5.24547e-06
-5.15284e-06
-5.04276e-06
-4.91939e-06
-4.78813e-06
-4.65487e-06
-4.52546e-06
-4.40515e-06
-4.29844e-06
-4.20896e-06
-4.13986e-06
-4.09417e-06
-4.07588e-06
-4.0903e-06
-4.1458e-06
-4.25301e-06
-4.42567e-06
-4.67669e-06
-5.00814e-06
-5.37169e-06
-5.66833e-06
-5.833e-06
-5.82951e-06
-5.64732e-06
-5.30165e-06
-4.81799e-06
-4.22675e-06
-3.5645e-06
-2.87294e-06
-2.19599e-06
-1.57634e-06
-1.05235e-06
-6.55455e-07
-4.08215e-07
-3.22838e-07
-4.02093e-07
-6.38644e-07
-1.01682e-06
-1.51496e-06
-2.10775e-06
-2.76898e-06
-3.47309e-06
-4.96139e-06
-4.95187e-06
-4.92697e-06
-4.88619e-06
-4.82949e-06
-4.75818e-06
-4.67492e-06
-4.5835e-06
-4.48831e-06
-4.39407e-06
-4.30539e-06
-4.22666e-06
-4.16182e-06
-4.11465e-06
-4.08884e-06
-4.08885e-06
-4.1199e-06
-4.18959e-06
-4.30629e-06
-4.48061e-06
-4.72041e-06
-5.0244e-06
-5.34722e-06
-5.60798e-06
-5.75403e-06
-5.75025e-06
-5.59195e-06
-5.30079e-06
-4.90246e-06
-4.42403e-06
-3.89733e-06
-3.35777e-06
-2.84153e-06
-2.38243e-06
-2.00955e-06
-1.74544e-06
-1.60517e-06
-1.59611e-06
-1.71783e-06
-1.96315e-06
-2.31929e-06
-2.76956e-06
-3.29509e-06
-3.87656e-06
-4.49518e-06
-4.47294e-06
-4.48814e-06
-4.49101e-06
-4.48132e-06
-4.45905e-06
-4.42496e-06
-4.38084e-06
-4.3293e-06
-4.27361e-06
-4.21741e-06
-4.16457e-06
-4.11902e-06
-4.08465e-06
-4.06536e-06
-4.06518e-06
-4.0885e-06
-4.1406e-06
-4.22747e-06
-4.35655e-06
-4.53472e-06
-4.76566e-06
-5.0451e-06
-5.33357e-06
-5.5691e-06
-5.70591e-06
-5.70851e-06
-5.58694e-06
-5.36375e-06
-5.0614e-06
-4.70263e-06
-4.31361e-06
-3.92281e-06
-3.55854e-06
-3.24646e-06
-3.00778e-06
-2.85815e-06
-2.80731e-06
-2.85969e-06
-3.01393e-06
-3.26394e-06
-3.59988e-06
-4.00944e-06
-4.47891e-06
-4.99432e-06
-5.54197e-06
-3.9332e-06
-3.97455e-06
-4.00592e-06
-4.0274e-06
-4.03911e-06
-4.04164e-06
-4.03627e-06
-4.02485e-06
-4.00979e-06
-3.99391e-06
-3.98034e-06
-3.97242e-06
-3.9737e-06
-3.98782e-06
-4.01877e-06
-4.07058e-06
-4.14817e-06
-4.25617e-06
-4.40093e-06
-4.5863e-06
-4.81354e-06
-5.07698e-06
-5.34307e-06
-5.56052e-06
-5.69092e-06
-5.71692e-06
-5.64898e-06
-5.50586e-06
-5.30575e-06
-5.06745e-06
-4.81166e-06
-4.56018e-06
-4.33411e-06
-4.15223e-06
-4.02966e-06
-3.977e-06
-4.00016e-06
-4.10229e-06
-4.28208e-06
-4.53487e-06
-4.85353e-06
-5.22936e-06
-5.65273e-06
-6.11373e-06
-6.60254e-06
-3.3397e-06
-3.40946e-06
-3.47098e-06
-3.52463e-06
-3.57084e-06
-3.61023e-06
-3.64382e-06
-3.67302e-06
-3.69965e-06
-3.72588e-06
-3.75422e-06
-3.78744e-06
-3.82855e-06
-3.88079e-06
-3.94765e-06
-4.03283e-06
-4.14026e-06
-4.27407e-06
-4.43822e-06
-4.6355e-06
-4.86564e-06
-5.12388e-06
-5.3784e-06
-5.58618e-06
-5.72557e-06
-5.7916e-06
-5.79058e-06
-5.73473e-06
-5.63793e-06
-5.51531e-06
-5.38289e-06
-5.25672e-06
-5.15191e-06
-5.08164e-06
-5.05644e-06
-5.08378e-06
-5.16826e-06
-5.31131e-06
-5.51186e-06
-5.76681e-06
-6.07147e-06
-6.42005e-06
-6.80602e-06
-7.22257e-06
-7.66275e-06
-2.69093e-06
-2.79217e-06
-2.88655e-06
-2.97462e-06
-3.05706e-06
-3.13466e-06
-3.20835e-06
-3.27929e-06
-3.34892e-06
-3.41894e-06
-3.49136e-06
-3.56841e-06
-3.65258e-06
-3.74657e-06
-3.85328e-06
-3.97577e-06
-4.11721e-06
-4.28071e-06
-4.46896e-06
-4.68374e-06
-4.92456e-06
-5.18699e-06
-5.44309e-06
-5.65947e-06
-5.82627e-06
-5.94353e-06
-6.01459e-06
-6.0464e-06
-6.0487e-06
-6.03287e-06
-6.0108e-06
-5.994e-06
-5.99291e-06
-6.01641e-06
-6.07165e-06
-6.1643e-06
-6.29806e-06
-6.47374e-06
-6.69075e-06
-6.94737e-06
-7.24081e-06
-7.56746e-06
-7.92313e-06
-8.30329e-06
-8.70318e-06
-1.9962e-06
-2.13096e-06
-2.26035e-06
-2.3849e-06
-2.50542e-06
-2.62281e-06
-2.73802e-06
-2.85205e-06
-2.96606e-06
-3.08141e-06
-3.19967e-06
-3.32264e-06
-3.45228e-06
-3.59073e-06
-3.74028e-06
-3.90329e-06
-4.08217e-06
-4.27918e-06
-4.49626e-06
-4.73459e-06
-4.99391e-06
-5.27138e-06
-5.54457e-06
-5.78782e-06
-5.99566e-06
-6.16932e-06
-6.31102e-06
-6.42496e-06
-6.51754e-06
-6.59656e-06
-6.67028e-06
-6.74664e-06
-6.83279e-06
-6.93478e-06
-7.05729e-06
-7.20357e-06
-7.3763e-06
-7.57729e-06
-7.80698e-06
-8.06475e-06
-8.34914e-06
-8.65808e-06
-8.98908e-06
-9.33933e-06
-9.70572e-06
-1.34237e-06
-1.51154e-06
-1.67634e-06
-1.83736e-06
-1.99551e-06
-2.15171e-06
-2.30685e-06
-2.46185e-06
-2.61767e-06
-2.77545e-06
-2.93645e-06
-3.10209e-06
-3.27395e-06
-3.45371e-06
-3.64312e-06
-3.84403e-06
-4.05825e-06
-4.28752e-06
-4.53338e-06
-4.79693e-06
-5.07862e-06
-5.37802e-06
-5.67749e-06
-5.95469e-06
-6.20474e-06
-6.4291e-06
-6.62972e-06
-6.80967e-06
-6.97329e-06
-7.12581e-06
-7.27277e-06
-7.41951e-06
-7.5708e-06
-7.73067e-06
-7.90252e-06
-8.08931e-06
-8.29326e-06
-8.51559e-06
-8.75692e-06
-9.01731e-06
-9.29627e-06
-9.59287e-06
-9.90579e-06
-1.02334e-05
-1.05739e-05
-8.05137e-07
-1.00483e-06
-1.20108e-06
-1.39441e-06
-1.5856e-06
-1.7755e-06
-1.96493e-06
-2.15469e-06
-2.34565e-06
-2.53875e-06
-2.73505e-06
-2.93572e-06
-3.14204e-06
-3.35536e-06
-3.5771e-06
-3.80874e-06
-4.05177e-06
-4.30767e-06
-4.57784e-06
-4.86358e-06
-5.16609e-06
-5.48656e-06
-5.80971e-06
-6.1146e-06
-6.39666e-06
-6.65759e-06
-6.89934e-06
-7.12453e-06
-7.3364e-06
-7.53863e-06
-7.73505e-06
-7.92936e-06
-8.12496e-06
-8.32492e-06
-8.532e-06
-8.7485e-06
-8.97594e-06
-9.21532e-06
-9.46729e-06
-9.73219e-06
-1.001e-05
-1.03005e-05
-1.06029e-05
-1.09165e-05
-1.12402e-05
-4.10706e-07
-6.35393e-07
-8.57191e-07
-1.07662e-06
-1.29438e-06
-1.51119e-06
-1.72777e-06
-1.9448e-06
-2.16304e-06
-2.38329e-06
-2.60646e-06
-2.83354e-06
-3.06559e-06
-3.30374e-06
-3.54919e-06
-3.80319e-06
-4.06706e-06
-4.34213e-06
-4.62982e-06
-4.9316e-06
-5.24905e-06
-5.58393e-06
-5.92233e-06
-6.24465e-06
-6.54685e-06
-6.83081e-06
-7.09855e-06
-7.35239e-06
-7.59491e-06
-7.82889e-06
-8.05715e-06
-8.28239e-06
-8.50716e-06
-8.73377e-06
-8.96423e-06
-9.20018e-06
-9.44304e-06
-9.69383e-06
-9.95324e-06
-1.02217e-05
-1.04995e-05
-1.07866e-05
-1.10827e-05
-1.13874e-05
-1.17002e-05
-1.23782e-07
-3.69369e-07
-6.12386e-07
-8.53304e-07
-1.09273e-06
-1.33128e-06
-1.56955e-06
-1.80813e-06
-2.04766e-06
-2.28885e-06
-2.53248e-06
-2.77938e-06
-3.03048e-06
-3.28674e-06
-3.5492e-06
-3.81898e-06
-4.09725e-06
-4.38527e-06
-4.68445e-06
-4.99627e-06
-5.32243e-06
-5.66476e-06
-6.01051e-06
-6.34176e-06
-6.65507e-06
-6.95247e-06
-7.23591e-06
-7.50744e-06
-7.76921e-06
-8.0234e-06
-8.27217e-06
-8.5176e-06
-8.76164e-06
-9.00604e-06
-9.25235e-06
-9.50192e-06
-9.75599e-06
-1.00155e-05
-1.02811e-05
-1.05534e-05
-1.08326e-05
-1.11189e-05
-1.14122e-05
-1.17124e-05
-1.20192e-05
7.92113e-08
-1.83824e-07
-4.44393e-07
-7.02912e-07
-9.59903e-07
-1.21588e-06
-1.47134e-06
-1.72679e-06
-1.98278e-06
-2.23993e-06
-2.4989e-06
-2.76043e-06
-3.02533e-06
-3.29442e-06
-3.56865e-06
-3.849e-06
-4.13656e-06
-4.4325e-06
-4.73815e-06
-5.05493e-06
-5.38451e-06
-5.72861e-06
-6.0757e-06
-6.40976e-06
-6.72794e-06
-7.03223e-06
-7.32443e-06
-7.60636e-06
-7.87981e-06
-8.14659e-06
-8.40843e-06
-8.66698e-06
-8.92378e-06
-9.18026e-06
-9.43768e-06
-9.69708e-06
-9.9596e-06
-1.02261e-05
-1.04971e-05
-1.07731e-05
-1.10547e-05
-1.13419e-05
-1.16348e-05
-1.19334e-05
-1.22376e-05
2.18999e-07
-5.84926e-08
-3.33468e-07
-6.06302e-07
-8.77436e-07
-1.14729e-06
-1.41628e-06
-1.68484e-06
-1.95344e-06
-2.22262e-06
-2.49297e-06
-2.76514e-06
-3.03982e-06
-3.31776e-06
-3.5998e-06
-3.88682e-06
-4.17982e-06
-4.47988e-06
-4.78824e-06
-5.10621e-06
-5.43535e-06
-5.77727e-06
-6.12165e-06
-6.45448e-06
-6.77338e-06
-7.08019e-06
-7.37651e-06
-7.66394e-06
-7.94405e-06
-8.21837e-06
-8.48834e-06
-8.7553e-06
-9.0205e-06
-9.28513e-06
-9.55026e-06
-9.81704e-06
-1.00861e-05
-1.03581e-05
-1.06338e-05
-1.09136e-05
-1.1198e-05
-1.14871e-05
-1.17811e-05
-1.20801e-05
-1.2384e-05
3.12915e-07
2.34476e-08
-2.63359e-07
-5.47838e-07
-8.30356e-07
-1.11126e-06
-1.39088e-06
-1.66959e-06
-1.94782e-06
-2.22604e-06
-2.50476e-06
-2.78455e-06
-3.06604e-06
-3.34989e-06
-3.63686e-06
-3.92774e-06
-4.22345e-06
-4.52495e-06
-4.83341e-06
-5.15001e-06
-5.47622e-06
-5.81344e-06
-6.15264e-06
-6.48171e-06
-6.79868e-06
-7.10514e-06
-7.40251e-06
-7.69222e-06
-7.97568e-06
-8.2542e-06
-8.52901e-06
-8.80125e-06
-9.07199e-06
-9.34221e-06
-9.61286e-06
-9.88495e-06
-1.0159e-05
-1.04356e-05
-1.07153e-05
-1.09987e-05
-1.12861e-05
-1.15778e-05
-1.1874e-05
-1.21747e-05
-1.24799e-05
3.74293e-07
7.48645e-08
-2.21694e-07
-5.15675e-07
-8.07379e-07
-1.09708e-06
-1.38506e-06
-1.67166e-06
-1.95723e-06
-2.24221e-06
-2.52705e-06
-2.81226e-06
-3.09839e-06
-3.38604e-06
-3.6759e-06
-3.96868e-06
-4.26523e-06
-4.56642e-06
-4.8733e-06
-5.18695e-06
-5.50873e-06
-5.83986e-06
-6.17251e-06
-6.49638e-06
-6.80982e-06
-7.11413e-06
-7.41061e-06
-7.70055e-06
-7.98523e-06
-8.26578e-06
-8.54328e-06
-8.81872e-06
-9.09305e-06
-9.3671e-06
-9.64166e-06
-9.91766e-06
-1.01956e-05
-1.04759e-05
-1.07593e-05
-1.1046e-05
-1.13366e-05
-1.16312e-05
-1.19301e-05
-1.22334e-05
-1.2541e-05
4.13081e-07
1.0533e-07
-1.99303e-07
-5.01072e-07
-8.00217e-07
-1.09696e-06
-1.39155e-06
-1.68428e-06
-1.97548e-06
-2.26552e-06
-2.55482e-06
-2.84384e-06
-3.13306e-06
-3.42305e-06
-3.71441e-06
-4.0078e-06
-4.30399e-06
-4.60375e-06
-4.90807e-06
-5.21789e-06
-5.53449e-06
-5.85891e-06
-6.18441e-06
-6.5024e-06
-6.81142e-06
-7.11256e-06
-7.40701e-06
-7.69596e-06
-7.98053e-06
-8.26175e-06
-8.54055e-06
-8.81781e-06
-9.09439e-06
-9.37107e-06
-9.64844e-06
-9.9274e-06
-1.02084e-05
-1.04918e-05
-1.07783e-05
-1.10682e-05
-1.13619e-05
-1.16597e-05
-1.19616e-05
-1.22679e-05
-1.25786e-05
4.36567e-07
1.21825e-07
-1.89535e-07
-4.97728e-07
-8.02943e-07
-1.10537e-06
-1.40522e-06
-1.70276e-06
-1.9983e-06
-2.29216e-06
-2.58472e-06
-2.8764e-06
-3.16765e-06
-3.45897e-06
-3.75093e-06
-4.04411e-06
-4.33921e-06
-4.63694e-06
-4.9382e-06
-5.24382e-06
-5.55498e-06
-5.87254e-06
-6.19083e-06
-6.50274e-06
-6.80697e-06
-7.10446e-06
-7.39629e-06
-7.68355e-06
-7.96725e-06
-8.24829e-06
-8.52751e-06
-8.80571e-06
-9.08362e-06
-9.36191e-06
-9.64153e-06
-9.92279e-06
-1.02062e-05
-1.04923e-05
-1.07816e-05
-1.10744e-05
-1.13711e-05
-1.16718e-05
-1.1977e-05
-1.22865e-05
-1.26007e-05
4.49961e-07
1.293e-07
-1.8771e-07
-5.01249e-07
-8.11465e-07
-1.11852e-06
-1.42261e-06
-1.72398e-06
-2.0229e-06
-2.31968e-06
-2.61465e-06
-2.9082e-06
-3.20076e-06
-3.49276e-06
-3.78474e-06
-4.07722e-06
-4.37086e-06
-4.66628e-06
-4.96429e-06
-5.26564e-06
-5.57142e-06
-5.88233e-06
-6.19366e-06
-6.49961e-06
-6.79902e-06
-7.09271e-06
-7.38169e-06
-7.66693e-06
-7.94933e-06
-8.22971e-06
-8.50883e-06
-8.78741e-06
-9.06613e-06
-9.34562e-06
-9.6267e-06
-9.90976e-06
-1.01952e-05
-1.04835e-05
-1.07752e-05
-1.10707e-05
-1.13701e-05
-1.16739e-05
-1.19821e-05
-1.2295e-05
-1.26126e-05
4.56869e-07
1.31155e-07
-1.90646e-07
-5.08679e-07
-8.23064e-07
-1.13394e-06
-1.44151e-06
-1.74596e-06
-2.04757e-06
-2.34661e-06
-2.64339e-06
-2.93827e-06
-3.23165e-06
-3.52393e-06
-3.81559e-06
-4.10713e-06
-4.39913e-06
-4.69216e-06
-4.98697e-06
-5.28419e-06
-5.58484e-06
-5.88948e-06
-6.19427e-06
-6.49457e-06
-6.78934e-06
-7.07931e-06
-7.36541e-06
-7.64851e-06
-7.92942e-06
-8.20889e-06
-8.4876e-06
-8.76623e-06
-9.0454e-06
-9.32566e-06
-9.60782e-06
-9.89233e-06
-1.01794e-05
-1.04697e-05
-1.07635e-05
-1.10613e-05
-1.13633e-05
-1.16699e-05
-1.19811e-05
-1.22972e-05
-1.26182e-05
4.59721e-07
1.29654e-07
-1.96248e-07
-5.18102e-07
-8.36006e-07
-1.15009e-06
-1.46053e-06
-1.76752e-06
-2.0713e-06
-2.37213e-06
-2.67031e-06
-2.96616e-06
-3.26004e-06
-3.55235e-06
-3.84352e-06
-4.13401e-06
-4.42435e-06
-4.71505e-06
-5.00679e-06
-5.30014e-06
-5.59602e-06
-5.89487e-06
-6.19364e-06
-6.48868e-06
-6.77909e-06
-7.06554e-06
-7.34887e-06
-7.62986e-06
-7.90923e-06
-8.18767e-06
-8.46581e-06
-8.74429e-06
-9.02363e-06
-9.3044e-06
-9.58741e-06
-9.8731e-06
-1.01616e-05
-1.04534e-05
-1.07492e-05
-1.1049e-05
-1.13534e-05
-1.16625e-05
-1.19765e-05
-1.22956e-05
-1.26199e-05
4.60107e-07
1.2626e-07
-2.03186e-07
-5.28321e-07
-8.49233e-07
-1.16604e-06
-1.47891e-06
-1.78802e-06
-2.09359e-06
-2.39587e-06
-2.69514e-06
-2.99171e-06
-3.2859e-06
-3.5781e-06
-3.8687e-06
-4.15812e-06
-4.44685e-06
-4.73536e-06
-5.02425e-06
-5.31402e-06
-5.60553e-06
-5.8991e-06
-6.19238e-06
-6.4826e-06
-6.76901e-06
-7.0522e-06
-7.33294e-06
-7.6119e-06
-7.88977e-06
-8.16715e-06
-8.44465e-06
-8.72288e-06
-9.00229e-06
-9.28325e-06
-9.56703e-06
-9.85367e-06
-1.01433e-05
-1.04365e-05
-1.07339e-05
-1.10356e-05
-1.13421e-05
-1.16535e-05
-1.197e-05
-1.22919e-05
-1.26192e-05
4.59044e-07
1.2189e-07
-2.10641e-07
-5.38622e-07
-8.6213e-07
-1.18128e-06
-1.49622e-06
-1.80712e-06
-2.1142e-06
-2.41768e-06
-2.71783e-06
-3.01494e-06
-3.30934e-06
-3.60135e-06
-3.89135e-06
-4.17974e-06
-4.46696e-06
-4.75343e-06
-5.03971e-06
-5.32624e-06
-5.61378e-06
-5.90258e-06
-6.19089e-06
-6.47674e-06
-6.75951e-06
-7.03972e-06
-7.31806e-06
-7.59514e-06
-7.87157e-06
-8.14794e-06
-8.42478e-06
-8.7027e-06
-8.98196e-06
-9.26315e-06
-9.54762e-06
-9.83494e-06
-1.01255e-05
-1.04199e-05
-1.07187e-05
-1.10221e-05
-1.13304e-05
-1.16439e-05
-1.19627e-05
-1.22871e-05
-1.26171e-05
4.57176e-07
1.17118e-07
-2.18114e-07
-5.48579e-07
-8.74347e-07
-1.19552e-06
-1.51225e-06
-1.82469e-06
-2.13304e-06
-2.43754e-06
-2.73842e-06
-3.03596e-06
-3.33047e-06
-3.62226e-06
-3.91168e-06
-4.1991e-06
-4.48492e-06
-4.76955e-06
-5.05346e-06
-5.33705e-06
-5.62103e-06
-5.90554e-06
-6.1894e-06
-6.47131e-06
-6.75079e-06
-7.0283e-06
-7.30446e-06
-7.57982e-06
-7.85492e-06
-8.13032e-06
-8.40651e-06
-8.68408e-06
-8.96308e-06
-9.24465e-06
-9.52954e-06
-9.81738e-06
-1.01087e-05
-1.04042e-05
-1.07042e-05
-1.1009e-05
-1.1319e-05
-1.16343e-05
-1.19552e-05
-1.22818e-05
-1.26143e-05
4.54905e-07
1.12296e-07
-2.25301e-07
-5.57935e-07
-8.85672e-07
-1.20861e-06
-1.52688e-06
-1.84065e-06
-2.1501e-06
-2.45545e-06
-2.75693e-06
-3.05482e-06
-3.34939e-06
-3.64095e-06
-3.92983e-06
-4.21636e-06
-4.50092e-06
-4.78388e-06
-5.06567e-06
-5.34665e-06
-5.62744e-06
-5.90814e-06
-6.18801e-06
-6.46641e-06
-6.74295e-06
-7.01805e-06
-7.29224e-06
-7.56604e-06
-7.83993e-06
-8.11443e-06
-8.39001e-06
-8.66719e-06
-8.94604e-06
-9.22787e-06
-9.513e-06
-9.8013e-06
-1.00934e-05
-1.03897e-05
-1.06908e-05
-1.09968e-05
-1.13082e-05
-1.16251e-05
-1.19479e-05
-1.22765e-05
-1.26111e-05
4.52428e-07
1.07558e-07
-2.32126e-07
-5.6667e-07
-8.96133e-07
-1.22061e-06
-1.54023e-06
-1.85515e-06
-2.16554e-06
-2.47162e-06
-2.77362e-06
-3.07178e-06
-3.36639e-06
-3.65772e-06
-3.94609e-06
-4.23181e-06
-4.51524e-06
-4.79669e-06
-5.0766e-06
-5.35524e-06
-5.6332e-06
-5.91048e-06
-6.18676e-06
-6.462e-06
-6.73593e-06
-7.00887e-06
-7.2813e-06
-7.55369e-06
-7.82649e-06
-8.10017e-06
-8.37519e-06
-8.652e-06