/*--------------------------------*- C++ -*----------------------------------*\
| =========                 |                                                 |
| \\      /  F ield         | OpenFOAM: The Open Source CFD Toolbox           |
|  \\    /   O peration     | Version:  2312                                  |
|   \\  /    A nd           | Website:  www.openfoam.com                      |
|    \\/     M anipulation  |                                                 |
\*---------------------------------------------------------------------------*/
FoamFile
{
    version     2.0;
    format      ascii;
    arch        "LSB;label=32;scalar=64";
    class       surfaceScalarField;
    location    "199";
    object      phi;
}
// * * * * * * * * * * * * * * * * * * * * * * * * * * * * * * * * * * * * * //

dimensions      [0 3 -1 0 0 0 0];

oriented        oriented;

internalField   nonuniform List<scalar> 
9445
(
6.08445e-10
1.49653e-11
5.98539e-10
9.9064e-12
5.92005e-10
6.53362e-12
5.87901e-10
4.10408e-12
5.85665e-10
2.23578e-12
5.84978e-10
6.86732e-13
5.85699e-10
-7.20305e-13
5.87818e-10
-2.11923e-12
5.9135e-10
-3.53226e-12
5.9675e-10
-5.40004e-12
6.05162e-10
-8.41197e-12
6.20192e-10
-1.50295e-11
6.54645e-10
-3.44535e-11
7.54057e-10
-9.94116e-11
-2.61312e-10
1.01537e-09
2.11957e-09
6.6689e-11
2.08485e-09
4.46226e-11
2.06153e-09
2.98554e-11
2.04642e-09
1.92142e-11
2.03762e-09
1.104e-11
2.03398e-09
4.32298e-12
2.03494e-09
-1.67684e-12
2.04028e-09
-7.46592e-12
2.0502e-09
-1.34471e-11
2.06596e-09
-2.11625e-11
2.09046e-09
-3.291e-11
2.13067e-09
-5.52374e-11
2.20037e-09
-1.04157e-10
2.31321e-09
-2.12253e-10
-3.81844e-10
2.43374e-09
4.17579e-09
1.67069e-10
4.10766e-09
1.12747e-10
4.06124e-09
7.62785e-11
4.03046e-09
4.99925e-11
4.01164e-09
2.98608e-11
4.00252e-09
1.34452e-11
4.00183e-09
-9.8889e-13
4.00897e-09
-1.46065e-11
4.02405e-09
-2.85288e-11
4.04868e-09
-4.57871e-11
4.08561e-09
-6.98421e-11
4.13956e-09
-1.09187e-10
4.21344e-09
-1.78039e-10
4.29341e-09
-2.92225e-10
-4.29524e-10
4.34109e-09
6.92502e-09
3.2955e-10
6.8134e-09
2.24375e-10
6.73619e-09
1.53487e-10
6.68382e-09
1.02357e-10
6.65038e-09
6.33082e-11
6.63205e-09
3.17702e-11
6.62666e-09
4.40479e-12
6.63287e-09
-2.08244e-11
6.65006e-09
-4.57183e-11
6.67935e-09
-7.50694e-11
6.72158e-09
-1.12072e-10
6.77629e-09
-1.63902e-10
6.83683e-09
-2.3858e-10
6.88253e-09
-3.37924e-10
-4.36207e-10
6.88922e-09
1.05462e-08
5.67707e-10
1.03802e-08
3.90375e-10
1.02635e-08
2.70172e-10
1.01825e-08
1.8332e-10
1.01287e-08
1.17138e-10
1.00963e-08
6.41811e-11
1.00817e-08
1.89814e-11
1.00826e-08
-2.17216e-11
1.00973e-08
-6.04082e-11
1.0125e-08
-1.02737e-10
1.01639e-08
-1.5101e-10
1.02092e-08
-2.09181e-10
1.02499e-08
-2.79277e-10
1.02683e-08
-3.56362e-10
-4.21227e-10
1.02533e-08
1.52505e-08
8.92079e-10
1.50204e-08
6.20523e-10
1.48557e-08
4.34904e-10
1.47387e-08
3.00311e-10
1.46579e-08
1.97862e-10
1.46056e-08
1.16521e-10
1.45762e-08
4.83443e-11
1.4566e-08
-1.1478e-11
1.4572e-08
-6.63777e-11
1.45907e-08
-1.21465e-10
1.4618e-08
-1.7833e-10
1.46468e-08
-2.37942e-10
1.46663e-08
-2.98776e-10
1.46649e-08
-3.54989e-10
-3.95679e-10
1.46394e-08
2.12792e-08
1.30441e-09
2.09798e-08
9.19858e-10
2.0761e-08
6.53749e-10
2.06018e-08
4.59562e-10
2.0488e-08
3.11635e-10
2.04097e-08
1.94825e-10
2.03594e-08
9.85903e-11
2.03316e-08
1.6302e-11
2.03217e-08
-5.63848e-11
2.0324e-08
-1.2379e-10
2.03327e-08
-1.87035e-10
2.03404e-08
-2.45637e-10
2.03389e-08
-2.97341e-10
2.03222e-08
-3.38266e-10
-3.63801e-10
2.02903e-08
2.88947e-08
1.78912e-09
2.85317e-08
1.28278e-09
2.82594e-08
9.26109e-10
2.80558e-08
6.63119e-10
2.79054e-08
4.62034e-10
2.77966e-08
3.03664e-10
2.77202e-08
1.7499e-10
2.76689e-08
6.755e-11
2.76364e-08
-2.38812e-11
2.7616e-08
-1.03326e-10
2.76009e-08
-1.72018e-10
2.7585e-08
-2.29684e-10
2.75629e-08
-2.75207e-10
2.75319e-08
-3.07311e-10
-3.25221e-10
2.74933e-08
3.83676e-08
2.30463e-09
3.79645e-08
1.68591e-09
3.76515e-08
1.2391e-09
3.74101e-08
9.04468e-10
3.72256e-08
6.46611e-10
3.70859e-08
4.43361e-10
3.69811e-08
2.79741e-10
3.69029e-08
1.45769e-10
3.68438e-08
3.52327e-11
3.67967e-08
-5.62092e-11
3.67554e-08
-1.30747e-10
3.6715e-08
-1.89321e-10
3.66725e-08
-2.32648e-10
3.66268e-08
-2.61662e-10
-2.77691e-10
3.65793e-08
4.99682e-08
2.78264e-09
4.95699e-08
2.08427e-09
4.92459e-08
1.56312e-09
4.8986e-08
1.1643e-09
4.87795e-08
8.53126e-10
4.86162e-08
6.06664e-10
4.84869e-08
4.09083e-10
4.83832e-08
2.49456e-10
4.82979e-08
1.2053e-10
4.82244e-08
1.72721e-11
4.81578e-08
-6.41441e-11
4.80946e-08
-1.26076e-10
4.80329e-08
-1.7098e-10
4.79725e-08
-2.01324e-10
-2.19519e-10
4.79144e-08
6.39864e-08
3.14816e-09
6.36506e-08
2.42006e-09
6.33587e-08
1.85503e-09
6.31121e-08
1.41093e-09
6.29066e-08
1.05862e-09
6.27361e-08
7.77155e-10
6.25938e-08
5.51365e-10
6.24731e-08
3.70149e-10
6.23681e-08
2.25489e-10
6.22742e-08
1.11256e-10
6.21874e-08
2.2576e-11
6.2106e-08
-4.45991e-11
6.20287e-08
-9.37619e-11
6.19557e-08
-1.28303e-10
-1.5115e-10
6.18874e-08
8.08048e-08
3.36082e-09
8.05749e-08
2.65e-09
8.03542e-08
2.07573e-09
8.01536e-08
1.61153e-09
7.99758e-08
1.23643e-09
7.98194e-08
9.33547e-10
7.96812e-08
6.89544e-10
7.95575e-08
4.93842e-10
7.94449e-08
3.38082e-10
7.93407e-08
2.15414e-10
7.92432e-08
1.20136e-10
7.91513e-08
4.73292e-11
7.90647e-08
-7.20527e-12
7.89836e-08
-4.71604e-11
-7.56911e-11
7.89081e-08
1.00994e-07
3.44303e-09
1.00869e-07
2.77455e-09
1.0073e-07
2.2153e-09
1.00589e-07
1.75216e-09
1.00454e-07
1.37182e-09
1.00326e-07
1.06163e-09
1.00205e-07
8.1032e-10
1.0009e-07
6.08118e-10
9.99818e-08
4.46719e-10
9.98782e-08
3.19013e-10
9.97794e-08
2.18963e-10
9.96854e-08
1.41345e-10
9.95964e-08
8.17897e-11
9.95127e-08
3.65053e-11
2.4064e-12
9.94346e-08
1.25301e-07
3.45044e-09
1.25244e-07
2.83132e-09
1.25163e-07
2.29699e-09
1.25068e-07
1.84661e-09
1.24968e-07
1.47214e-09
1.24865e-07
1.16432e-09
1.24762e-07
9.13553e-10
1.24659e-07
7.10727e-10
1.24558e-07
5.47817e-10
1.24459e-07
4.17811e-10
1.24364e-07
3.14733e-10
1.24272e-07
2.33428e-10
1.24184e-07
1.6962e-10
1.24101e-07
1.19658e-10
8.06271e-11
1.24022e-07
1.54457e-07
3.41578e-09
1.54438e-07
2.85018e-09
1.54387e-07
2.34835e-09
1.54316e-07
1.91704e-09
1.54233e-07
1.55477e-09
1.54143e-07
1.25471e-09
1.54048e-07
1.00868e-09
1.5395e-07
8.08281e-10
1.53852e-07
6.45943e-10
1.53755e-07
5.15016e-10
1.5366e-07
4.09819e-10
1.53568e-07
3.25466e-10
1.5348e-07
2.57914e-10
1.53396e-07
2.03744e-10
1.60228e-10
1.53316e-07
1.88941e-07
3.34463e-09
1.88957e-07
2.83473e-09
1.88931e-07
2.3744e-09
1.88878e-07
1.97e-09
1.88806e-07
1.62642e-09
1.88722e-07
1.33888e-09
1.8863e-07
1.10086e-09
1.88533e-07
9.05067e-10
1.88434e-07
7.44756e-10
1.88335e-07
6.13881e-10
1.88238e-07
5.07238e-10
1.88143e-07
4.20331e-10
1.88051e-07
3.49437e-10
1.87964e-07
2.9141e-10
2.43734e-10
1.8788e-07
2.28875e-07
3.23981e-09
2.28924e-07
2.78515e-09
2.28928e-07
2.37039e-09
2.28898e-07
2.00076e-09
2.28842e-07
1.68232e-09
2.28768e-07
1.41271e-09
2.28682e-07
1.1866e-09
2.28589e-07
9.98263e-10
2.28492e-07
8.4208e-10
2.28393e-07
7.12845e-10
2.28294e-07
6.0597e-10
2.28197e-07
5.17457e-10
2.28102e-07
4.43976e-10
2.28011e-07
3.82705e-10
3.31383e-10
2.27923e-07
2.73834e-07
3.09458e-09
2.73916e-07
2.7031e-09
2.7395e-07
2.3364e-09
2.73944e-07
2.00661e-09
2.73908e-07
1.71848e-09
2.7385e-07
1.4713e-09
2.73775e-07
1.26091e-09
2.7369e-07
1.08316e-09
2.73599e-07
9.33695e-10
2.73503e-07
8.08206e-10
2.73407e-07
7.02813e-10
2.7331e-07
6.14082e-10
2.73215e-07
5.39127e-10
2.73122e-07
4.75487e-10
4.21228e-10
2.73032e-07
3.22326e-07
2.89738e-09
3.22459e-07
2.57028e-09
3.22532e-07
2.26253e-09
3.2256e-07
1.97868e-09
3.22553e-07
1.72558e-09
3.22519e-07
1.50513e-09
3.22465e-07
1.31482e-09
3.22397e-07
1.15161e-09
3.22319e-07
1.01221e-09
3.22233e-07
8.93274e-10
3.22145e-07
7.91706e-10
3.22054e-07
7.04706e-10
3.21963e-07
6.29875e-10
3.21874e-07
5.6514e-10
5.08808e-10
3.21786e-07
3.71205e-07
2.63054e-09
3.71399e-07
2.3763e-09
3.71532e-07
2.12886e-09
3.71615e-07
1.8965e-09
3.71655e-07
1.68516e-09
3.71663e-07
1.49716e-09
3.71646e-07
1.33206e-09
3.71609e-07
1.18807e-09
3.71559e-07
1.0629e-09
3.71498e-07
9.54106e-10
3.7143e-07
8.59406e-10
3.71358e-07
7.76673e-10
3.71284e-07
7.04046e-10
3.71209e-07
6.39879e-10
5.82901e-10
3.71135e-07
3.68574e-07
2.36361e-09
3.68781e-07
2.16989e-09
3.68935e-07
1.97428e-09
3.69044e-07
1.78736e-09
3.69115e-07
1.6145e-09
3.69154e-07
1.45791e-09
3.69169e-07
1.31788e-09
3.69163e-07
1.19356e-09
3.69142e-07
1.08348e-09
3.69111e-07
9.8595e-10
3.69071e-07
8.99327e-10
3.69025e-07
8.22041e-10
3.68977e-07
7.52695e-10
3.68927e-07
6.90035e-10
6.33156e-10
3.68876e-07
3.15474e-07
2.07433e-09
3.15712e-07
1.9317e-09
3.15904e-07
1.78241e-09
3.16054e-07
1.63652e-09
3.1617e-07
1.49938e-09
3.16254e-07
1.37308e-09
3.16314e-07
1.25816e-09
3.16353e-07
1.15425e-09
3.16376e-07
1.06052e-09
3.16387e-07
9.7586e-10
3.16387e-07
8.99147e-10
3.16379e-07
8.29274e-10
3.16367e-07
7.65239e-10
3.16351e-07
7.06131e-10
6.51177e-10
3.16333e-07
2.63941e-07
1.82584e-09
2.64155e-07
1.71736e-09
2.64337e-07
1.60113e-09
2.64487e-07
1.48579e-09
2.64611e-07
1.37577e-09
2.64711e-07
1.273e-09
2.64791e-07
1.17804e-09
2.64855e-07
1.09075e-09
2.64905e-07
1.01061e-09
2.64944e-07
9.36877e-10
2.64974e-07
8.68786e-10
2.64998e-07
8.05548e-10
2.65016e-07
7.46442e-10
2.65032e-07
6.90806e-10
6.38073e-10
2.65045e-07
2.17195e-07
1.59528e-09
2.17401e-07
1.51164e-09
2.17581e-07
1.421e-09
2.17737e-07
1.32988e-09
2.17871e-07
1.24181e-09
2.17986e-07
1.15838e-09
2.18084e-07
1.08012e-09
2.18167e-07
1.00697e-09
2.18239e-07
9.38619e-10
2.18302e-07
8.74584e-10
2.18356e-07
8.14333e-10
2.18404e-07
7.57323e-10
2.18448e-07
7.0305e-10
2.18488e-07
6.51051e-10
6.00937e-10
2.18525e-07
1.7626e-07
1.37292e-09
1.76464e-07
1.30809e-09
1.76647e-07
1.2376e-09
1.76811e-07
1.16603e-09
1.76957e-07
1.09601e-09
1.77087e-07
1.02872e-09
1.77202e-07
9.64605e-10
1.77305e-07
9.03677e-10
1.77398e-07
8.45738e-10
1.77482e-07
7.90479e-10
1.77559e-07
7.37549e-10
1.7763e-07
6.86587e-10
1.77696e-07
6.3726e-10
1.77758e-07
5.89265e-10
5.42342e-10
1.77816e-07
1.41361e-07
1.1562e-09
1.41563e-07
1.10627e-09
1.41749e-07
1.05196e-09
1.41918e-07
9.96359e-10
1.42073e-07
9.41279e-10
1.42214e-07
8.87563e-10
1.42343e-07
8.35551e-10
1.42462e-07
7.85291e-10
1.42571e-07
7.36673e-10
1.42672e-07
6.89507e-10
1.42766e-07
6.43578e-10
1.42854e-07
5.98664e-10
1.42936e-07
5.54564e-10
1.43014e-07
5.11099e-10
4.68116e-10
1.43089e-07
1.12204e-07
9.48072e-10
1.124e-07
9.10336e-10
1.12583e-07
8.69218e-10
1.12752e-07
8.26775e-10
1.12909e-07
7.84153e-10
1.13055e-07
7.41927e-10
1.1319e-07
7.00365e-10
1.13316e-07
6.59532e-10
1.13433e-07
6.19379e-10
1.13543e-07
5.79808e-10
1.13646e-07
5.40701e-10
1.13743e-07
5.01944e-10
1.13834e-07
4.63436e-10
1.1392e-07
4.25089e-10
3.86835e-10
1.14001e-07
8.82116e-08
7.54614e-10
8.8395e-08
7.26918e-10
8.85676e-08
6.96604e-10
8.87294e-08
6.64988e-10
8.88808e-08
6.32735e-10
8.90225e-08
6.00243e-10
8.91552e-08
5.67724e-10
8.92794e-08
5.35252e-10
8.9396e-08
5.02824e-10
8.95054e-08
4.70404e-10
8.96081e-08
4.3795e-10
8.97047e-08
4.05421e-10
8.97953e-08
3.72788e-10
8.98804e-08
3.40031e-10
3.07144e-10
8.99601e-08
6.86948e-08
5.82046e-10
6.88593e-08
5.62472e-10
6.9015e-08
5.40887e-10
6.91619e-08
5.18055e-10
6.93003e-08
4.94328e-10
6.94306e-08
4.69997e-10
6.95531e-08
4.45232e-10
6.96682e-08
4.20107e-10
6.97764e-08
3.94647e-10
6.98779e-08
3.68863e-10
6.99731e-08
3.4276e-10
7.00622e-08
3.16349e-10
7.01453e-08
2.89647e-10
7.02227e-08
2.62679e-10
2.35477e-10
7.02944e-08
5.29634e-08
4.3458e-10
5.31045e-08
4.21361e-10
5.32387e-08
4.0664e-10
5.33661e-08
3.9075e-10
5.34865e-08
3.73876e-10
5.36003e-08
3.56243e-10
5.37075e-08
3.37983e-10
5.38084e-08
3.19166e-10
5.39033e-08
2.99834e-10
5.39921e-08
2.80025e-10
5.40751e-08
2.59771e-10
5.41523e-08
2.39111e-10
5.42239e-08
2.18091e-10
5.42898e-08
1.96757e-10
1.75164e-10
5.43501e-08
4.03831e-08
3.13675e-10
4.04992e-08
3.05219e-10
4.06102e-08
2.95686e-10
4.07159e-08
2.8509e-10
4.08162e-08
2.73554e-10
4.09112e-08
2.61253e-10
4.10009e-08
2.48284e-10
4.10853e-08
2.3471e-10
4.11646e-08
2.20578e-10
4.12387e-08
2.05938e-10
4.13076e-08
1.90833e-10
4.13714e-08
1.75316e-10
4.14301e-08
1.5944e-10
4.14835e-08
1.4326e-10
1.26839e-10
4.15319e-08
3.0398e-08
2.18334e-10
3.049e-08
2.13271e-10
3.05782e-08
2.07468e-10
3.06625e-08
2.00741e-10
3.07429e-08
1.93209e-10
3.08192e-08
1.84997e-10
3.08913e-08
1.76172e-10
3.09592e-08
1.66788e-10
3.10229e-08
1.5689e-10
3.10823e-08
1.46526e-10
3.11374e-08
1.35742e-10
3.11881e-08
1.24589e-10
3.12344e-08
1.13119e-10
3.12763e-08
1.01386e-10
8.94484e-11
3.13137e-08
2.2533e-08
1.45891e-10
2.26031e-08
1.43101e-10
2.26708e-08
1.39827e-10
2.27357e-08
1.35796e-10
2.27978e-08
1.31139e-10
2.28568e-08
1.25932e-10
2.29128e-08
1.20219e-10
2.29655e-08
1.14042e-10
2.3015e-08
1.0744e-10
2.30611e-08
1.00452e-10
2.31037e-08
9.31185e-11
2.31428e-08
8.54839e-11
2.31783e-08
7.7592e-11
2.32102e-08
6.94908e-11
6.12285e-11
2.32384e-08
1.63872e-08
9.28459e-11
1.64389e-08
9.1466e-11
1.64889e-08
8.97905e-11
1.65371e-08
8.75427e-11
1.65834e-08
8.48503e-11
1.66276e-08
8.17483e-11
1.66696e-08
7.82654e-11
1.67092e-08
7.4431e-11
1.67464e-08
7.02733e-11
1.6781e-08
6.58236e-11
1.6813e-08
6.11118e-11
1.68423e-08
5.61733e-11
1.68689e-08
5.1041e-11
1.68926e-08
4.57539e-11
4.03491e-11
1.69135e-08
1.16261e-08
5.55088e-11
1.16626e-08
5.49189e-11
1.16982e-08
5.41722e-11
1.17327e-08
5.30337e-11
1.1766e-08
5.16084e-11
1.17978e-08
4.99033e-11
1.18281e-08
4.79357e-11
1.18568e-08
4.57246e-11
1.18838e-08
4.32889e-11
1.1909e-08
4.06501e-11
1.19323e-08
3.7829e-11
1.19536e-08
3.48504e-11
1.19729e-08
3.1737e-11
1.19902e-08
2.8518e-11
2.52207e-11
1.20053e-08
7.97185e-09
3.04211e-11
7.99655e-09
3.02122e-11
8.02078e-09
2.99488e-11
8.04436e-09
2.94496e-11
8.06718e-09
2.87844e-11
8.08914e-09
2.79463e-11
8.11013e-09
2.69454e-11
8.13006e-09
2.57924e-11
8.14885e-09
2.44987e-11
8.16643e-09
2.30775e-11
8.18271e-09
2.15417e-11
8.19766e-09
1.9907e-11
8.21121e-09
1.8187e-11
8.22332e-09
1.64019e-11
1.45719e-11
8.23397e-09
5.19619e-09
1.45696e-11
5.2119e-09
1.45037e-11
5.2274e-09
1.44527e-11
5.24256e-09
1.42838e-11
5.25732e-09
1.40309e-11
5.27158e-09
1.36852e-11
5.28527e-09
1.32517e-11
5.29833e-09
1.2736e-11
5.31068e-09
1.21438e-11
5.32228e-09
1.14823e-11
5.33306e-09
1.07581e-11
5.34299e-09
9.97998e-12
5.35202e-09
9.15494e-12
5.36013e-09
8.29526e-12
7.41606e-12
5.36728e-09
3.11267e-09
5.46161e-12
3.12174e-09
5.42758e-12
3.13075e-09
5.44315e-12
3.13962e-09
5.41517e-12
3.1483e-09
5.35238e-12
3.15673e-09
5.25002e-12
3.16487e-09
5.11031e-12
3.17268e-09
4.93555e-12
3.18009e-09
4.72812e-12
3.18708e-09
4.49114e-12
3.19361e-09
4.2272e-12
3.19965e-09
3.94028e-12
3.20517e-09
3.63289e-12
3.21016e-09
3.31133e-12
2.98664e-12
3.21459e-09
1.57036e-09
1.11374e-12
1.5747e-09
1.08499e-12
1.57904e-09
1.10255e-12
1.58334e-09
1.1114e-12
1.58759e-09
1.11071e-12
1.59174e-09
1.09988e-12
1.59577e-09
1.07971e-12
1.59965e-09
1.05092e-12
1.60337e-09
1.01416e-12
1.60689e-09
9.70248e-13
1.61019e-09
9.19751e-13
1.61327e-09
8.63757e-13
1.6161e-09
8.02649e-13
1.61867e-09
7.38444e-13
6.77718e-13
1.62098e-09
4.48087e-10
4.49172e-10
4.50274e-10
4.51386e-10
4.52496e-10
4.53596e-10
4.54676e-10
4.55727e-10
4.56741e-10
4.57711e-10
4.58631e-10
4.59495e-10
4.60297e-10
4.61036e-10
4.61714e-10
1.21127e-09
-5.21471e-10
3.2557e-10
1.48937e-09
-4.77925e-10
1.9982e-10
1.76719e-09
-3.70517e-10
9.27055e-11
2.03842e-09
-2.61327e-10
-9.9106e-12
2.30137e-09
-1.55351e-10
-1.07594e-10
2.55695e-09
-5.85592e-11
-1.97023e-10
2.80687e-09
2.94287e-11
-2.7935e-10
3.05267e-09
1.10232e-10
-3.56028e-10
3.29567e-09
1.86148e-10
-4.29145e-10
3.53694e-09
2.60166e-10
-5.01444e-10
3.77736e-09
3.36107e-10
-5.76525e-10
4.01764e-09
4.19183e-10
-6.5946e-10
4.25849e-09
5.16768e-10
-7.57622e-10
4.50085e-09
6.39606e-10
-8.81965e-10
4.74615e-09
8.03007e-10
-1.04831e-09
4.99677e-09
1.02766e-09
-1.27828e-09
5.25633e-09
1.34159e-09
-1.60115e-09
5.53047e-09
1.77803e-09
-2.05217e-09
5.8275e-09
2.36499e-09
-2.66202e-09
6.15796e-09
3.12281e-09
-3.45328e-09
6.53203e-09
4.02674e-09
-4.4008e-09
6.95519e-09
4.95025e-09
-5.37341e-09
7.35269e-09
4.75512e-09
-5.15263e-09
7.6857e-09
3.80925e-09
-4.14226e-09
7.94862e-09
2.62157e-09
-2.88449e-09
8.14178e-09
1.35382e-09
-1.54698e-09
8.26854e-09
1.1621e-10
-2.4298e-10
8.33297e-09
-1.02367e-09
9.5924e-10
8.33875e-09
-2.02603e-09
2.02025e-09
8.2891e-09
-2.86679e-09
2.91645e-09
8.1871e-09
-3.53054e-09
3.63253e-09
8.03607e-09
-4.00778e-09
4.15881e-09
7.83967e-09
-4.29456e-09
4.49096e-09
7.60188e-09
-4.39266e-09
4.63045e-09
7.32671e-09
-4.30922e-09
4.58439e-09
7.01787e-09
-4.05567e-09
4.3645e-09
6.67847e-09
-3.64563e-09
3.98504e-09
6.31088e-09
-3.09212e-09
3.45971e-09
5.91707e-09
-2.404e-09
2.79781e-09
5.49842e-09
-1.58279e-09
2.00144e-09
5.05408e-09
-6.26514e-10
1.07086e-09
4.57365e-09
4.5028e-10
3.01518e-11
4.04227e-09
1.55898e-09
-1.0276e-09
3.46674e-09
2.4729e-09
-1.89737e-09
2.53897e-09
3.12867e-09
-2.2009e-09
2.50988e-09
-5.97603e-10
2.67081e-09
-6.38863e-10
2.88907e-09
-5.88773e-10
3.13197e-09
-5.04229e-10
3.38521e-09
-4.08586e-10
3.64148e-09
-3.14832e-10
3.8981e-09
-2.2719e-10
4.15425e-09
-1.45918e-10
4.40995e-09
-6.95566e-11
4.66557e-09
4.55207e-12
4.92156e-09
8.01139e-11
5.17845e-09
1.62293e-10
5.43688e-09
2.58338e-10
5.69779e-09
3.78698e-10
5.9627e-09
5.38096e-10
6.23419e-09
7.56175e-10
6.51617e-09
1.05961e-09
6.81471e-09
1.47949e-09
7.1388e-09
2.04089e-09
7.49991e-09
2.7617e-09
7.90913e-09
3.61753e-09
8.37294e-09
4.48643e-09
8.81046e-09
4.3176e-09
9.17937e-09
3.44035e-09
9.47315e-09
2.32778e-09
9.69159e-09
1.13539e-09
9.83779e-09
-2.99929e-11
9.91589e-09
-1.10176e-09
9.92977e-09
-2.03991e-09
9.88304e-09
-2.82007e-09
9.77937e-09
-3.42687e-09
9.62278e-09
-3.85119e-09
9.41786e-09
-4.08964e-09
9.16972e-09
-4.14452e-09
8.88381e-09
-4.02331e-09
8.56567e-09
-3.73753e-09
8.22091e-09
-3.30087e-09
7.85555e-09
-2.72676e-09
7.47722e-09
-2.02567e-09
7.09728e-09
-1.20284e-09
6.73305e-09
-2.62285e-10
6.40809e-09
7.75233e-10
6.15687e-09
1.8102e-09
6.03329e-09
2.59648e-09
2.60505e-09
5.96722e-09
4.35187e-09
-6.08384e-10
4.41919e-09
-7.0618e-10
4.55273e-09
-7.22314e-10
4.73764e-09
-6.89141e-10
4.95358e-09
-6.24523e-10
5.18781e-09
-5.49067e-10
5.43294e-09
-4.72316e-10
5.68483e-09
-3.9781e-10
5.94131e-09
-3.26038e-10
6.20135e-09
-2.55479e-10
6.46453e-09
-1.83066e-10
6.73085e-09
-1.0403e-10
7.00066e-09
-1.14747e-11
7.27477e-09
1.04588e-10
7.55469e-09
2.58176e-10
7.84314e-09
4.67727e-10
8.14429e-09
7.58453e-10
8.46458e-09
1.1592e-09
8.81372e-09
1.69176e-09
9.20407e-09
2.37134e-09
9.64767e-09
3.17394e-09
1.0152e-08
3.9821e-09
1.06302e-08
3.83942e-09
1.10362e-08
3.03431e-09
1.13625e-08
2.00151e-09
1.1608e-08
8.89893e-10
1.17754e-08
-1.97446e-10
1.18689e-08
-1.19524e-09
1.18925e-08
-2.06354e-09
1.18504e-08
-2.7779e-09
1.17467e-08
-3.32322e-09
1.15865e-08
-3.691e-09
1.13755e-08
-3.87865e-09
1.11203e-08
-3.88925e-09
1.0828e-08
-3.73099e-09
1.05064e-08
-3.416e-09
1.01644e-08
-2.9588e-09
9.81209e-09
-2.37449e-09
9.46359e-09
-1.67717e-09
9.13992e-09
-8.79174e-10
8.87392e-09
3.71827e-12
8.70997e-09
9.39176e-10
8.69231e-09
1.82786e-09
8.82301e-09
2.46578e-09
2.50577e-09
8.92229e-09
6.86292e-09
-5.82089e-10
6.86558e-09
-7.08837e-10
6.91792e-09
-7.74661e-10
7.02535e-09
-7.96565e-10
7.17996e-09
-7.79138e-10
7.36735e-09
-7.36451e-10
7.57818e-09
-6.83148e-10
7.80572e-09
-6.2535e-10
8.04549e-09
-5.65812e-10
8.29471e-09
-5.04692e-10
8.55172e-09
-4.40075e-10
8.81568e-09
-3.67992e-10
9.08641e-09
-2.82209e-10
9.36442e-09
-1.7342e-10
9.65109e-09
-2.84946e-11
9.94922e-09
1.69601e-10
1.02632e-08
4.44487e-10
1.05997e-08
8.22645e-10
1.09693e-08
1.32219e-09
1.13852e-08
1.9555e-09
1.18602e-08
2.69893e-09
1.24029e-08
3.43941e-09
1.29206e-08
3.32163e-09
1.33637e-08
2.59122e-09
1.37231e-08
1.64214e-09
1.39967e-08
6.16336e-10
1.41866e-08
-3.87373e-10
1.42968e-08
-1.30545e-09
1.43316e-08
-2.09834e-09
1.42956e-08
-2.74189e-09
1.41939e-08
-3.22151e-09
1.40325e-08
-3.52961e-09
1.38185e-08
-3.6647e-09
1.35603e-08
-3.63097e-09
1.3267e-08
-3.43769e-09
1.29491e-08
-3.09816e-09
1.26188e-08
-2.62846e-09
1.22906e-08
-2.04633e-09
1.19841e-08
-1.37067e-09
1.1727e-08
-6.22051e-10
1.15578e-08
1.72959e-10
1.15244e-08
9.72555e-10
1.16594e-08
1.69284e-09
1.19335e-08
2.19165e-09
2.28738e-09
1.21519e-08
1.02095e-08
-5.38202e-10
1.01696e-08
-6.68927e-10
1.01603e-08
-7.65411e-10
1.01925e-08
-8.28733e-10
1.027e-08
-8.56665e-10
1.03905e-08
-8.56925e-10
1.05442e-08
-8.36866e-10
1.07245e-08
-8.0564e-10
1.09258e-08
-7.67112e-10
1.1144e-08
-7.22885e-10
1.13762e-08
-6.72348e-10
1.16208e-08
-6.12584e-10
1.18769e-08
-5.38292e-10
1.21446e-08
-4.41089e-10
1.2425e-08
-3.08923e-10
1.2721e-08
-1.2642e-10
1.30372e-08
1.28314e-10
1.33805e-08
4.79315e-10
1.37622e-08
9.40549e-10
1.41963e-08
1.52138e-09
1.46965e-08
2.1987e-09
1.52723e-08
2.8636e-09
1.58261e-08
2.76785e-09
1.63041e-08
2.11319e-09
1.66956e-08
1.25072e-09
1.69969e-08
3.15002e-10
1.72095e-08
-6.00002e-10
1.73371e-08
-1.43301e-09
1.73841e-08
-2.14534e-09
1.73557e-08
-2.71348e-09
1.72579e-08
-3.12375e-09
1.70981e-08
-3.36979e-09
1.68849e-08
-3.45152e-09
1.66285e-08
-3.37458e-09
1.63405e-08
-3.1497e-09
1.60341e-08
-2.79176e-09
1.57246e-08
-2.31892e-09
1.54302e-08
-1.75194e-09
1.51738e-08
-1.1143e-09
1.49848e-08
-4.3304e-10
1.48992e-08
2.58602e-10
1.49544e-08
9.17397e-10
1.51663e-08
1.48088e-09
1.54935e-08
1.86442e-09
1.98435e-09
1.57966e-08
1.45894e-08
-4.88282e-10
1.45282e-08
-6.07655e-10
1.44771e-08
-7.14376e-10
1.44498e-08
-8.01359e-10
1.44557e-08
-8.62571e-10
1.45e-08
-9.01314e-10
1.45809e-08
-9.17726e-10
1.4694e-08
-9.18774e-10
1.4835e-08
-9.08067e-10
1.49998e-08
-8.87675e-10
1.51852e-08
-8.57805e-10
1.53891e-08
-8.16464e-10
1.56102e-08
-7.59346e-10
1.58482e-08
-6.79121e-10
1.61042e-08
-5.64945e-10
1.63812e-08
-4.03384e-10
1.66839e-08
-1.7437e-10
1.70195e-08
1.43678e-10
1.74001e-08
5.59969e-10
1.78407e-08
1.08076e-09
1.83556e-08
1.68383e-09
1.8955e-08
2.26418e-09
1.95375e-08
2.18532e-09
2.00454e-08
1.60536e-09
2.04653e-08
8.30794e-10
2.0792e-08
-1.17439e-11
2.10259e-08
-8.33868e-10
2.11701e-08
-1.57723e-09
2.12294e-08
-2.20458e-09
2.12094e-08
-2.69352e-09
2.11174e-08
-3.03172e-09
2.0962e-08
-3.21438e-09
2.07536e-08
-3.24316e-09
2.05044e-08
-3.12544e-09
2.02284e-08
-2.87368e-09
1.99413e-08
-2.50459e-09
1.96608e-08
-2.03842e-09
1.94074e-08
-1.49856e-09
1.92046e-08
-9.11556e-10
1.90791e-08
-3.07488e-10
1.90582e-08
2.79441e-10
1.91645e-08
8.11153e-10
1.93999e-08
1.24545e-09
1.97257e-08
1.53865e-09
1.65936e-09
2.00507e-08
2.02392e-08
-4.37126e-10
2.01711e-08
-5.39528e-10
2.00981e-08
-6.41403e-10
2.00317e-08
-7.34992e-10
1.99835e-08
-8.14346e-10
1.99602e-08
-8.77988e-10
1.99667e-08
-9.24276e-10
2.00035e-08
-9.55563e-10
2.00693e-08
-9.73881e-10
2.01622e-08
-9.80522e-10
2.028e-08
-9.75628e-10
2.04211e-08
-9.57578e-10
2.05846e-08
-9.22814e-10
2.07704e-08
-8.64963e-10
2.09798e-08
-7.74354e-10
2.12162e-08
-6.39751e-10
2.14847e-08
-4.42912e-10
2.1793e-08
-1.64572e-10
2.2154e-08
1.98927e-10
2.2584e-08
6.50785e-10
2.30976e-08
1.17027e-09
2.37057e-08
1.65605e-09
2.43049e-08
1.58611e-09
2.48333e-08
1.07693e-09
2.52747e-08
3.894e-10
2.56215e-08
-3.58542e-10
2.58727e-08
-1.085e-09
2.60308e-08
-1.73535e-09
2.61007e-08
-2.27449e-09
2.60889e-08
-2.68169e-09
2.60035e-08
-2.94641e-09
2.5855e-08
-3.06579e-09
2.56553e-08
-3.0435e-09
2.54187e-08
-2.88885e-09
2.51611e-08
-2.6161e-09
2.49002e-08
-2.24365e-09
2.46552e-08
-1.79341e-09
2.44468e-08
-1.29021e-09
2.42967e-08
-7.6144e-10
2.42257e-08
-2.365e-10
2.4251e-08
2.54107e-10
2.43814e-08
6.80792e-10
2.46095e-08
1.01741e-09
2.49036e-08
1.24448e-09
1.35471e-09
2.52083e-08
2.74405e-08
-3.84296e-10
2.73708e-08
-4.69831e-10
2.72893e-08
-5.59905e-10
2.72033e-08
-6.48957e-10
2.71211e-08
-7.32189e-10
2.70497e-08
-8.06618e-10
2.69956e-08
-8.70158e-10
2.69625e-08
-9.22473e-10
2.69525e-08
-9.63885e-10
2.69665e-08
-9.94502e-10
2.70047e-08
-1.01381e-09
2.70671e-08
-1.02e-09
2.71542e-08
-1.00987e-09
2.7267e-08
-9.77756e-10
2.74075e-08
-9.1491e-10
2.75803e-08
-8.12526e-10
2.77914e-08
-6.54039e-10
2.8049e-08
-4.22134e-10
2.83676e-08
-1.19731e-10
2.87649e-08
2.53539e-10
2.92557e-08
6.79502e-10
2.98516e-08
1.06012e-09
3.04498e-08
9.87878e-10
3.09846e-08
5.42112e-10
3.1436e-08
-6.19776e-11
3.17936e-08
-7.16147e-10
3.20547e-08
-1.34605e-09
3.22211e-08
-1.90179e-09
3.22978e-08
-2.3512e-09
3.2292e-08
-2.67587e-09
3.22131e-08
-2.86751e-09
3.20728e-08
-2.9255e-09
3.1885e-08
-2.85568e-09
3.16655e-08
-2.66932e-09
3.14317e-08
-2.38231e-09
3.12023e-08
-2.01424e-09
3.09966e-08
-1.58771e-09
3.08338e-08
-1.1274e-09
3.07316e-08
-6.59234e-10
3.07042e-08
-2.09133e-10
3.07597e-08
1.98547e-10
3.08975e-08
5.43019e-10
3.11054e-08
8.0949e-10
3.13589e-08
9.91005e-10
1.08978e-09
3.16238e-08
3.65216e-08
-3.26611e-10
3.64493e-08
-3.9755e-10
3.63639e-08
-4.74465e-10
3.62688e-08
-5.53897e-10
3.6169e-08
-6.32352e-10
3.60694e-08
-7.07062e-10
3.59753e-08
-7.75981e-10
3.58907e-08
-8.37929e-10
3.58192e-08
-8.92328e-10
3.57632e-08
-9.38577e-10
3.57251e-08
-9.75715e-10
3.57068e-08
-1.00167e-09
3.57105e-08
-1.01355e-09
3.5739e-08
-1.00626e-09
3.57958e-08
-9.71735e-10
3.58872e-08
-9.039e-10
3.60208e-08
-7.87633e-10
3.62056e-08
-6.06948e-10
3.64586e-08
-3.72682e-10
3.6799e-08
-8.68656e-11
3.72419e-08
2.36549e-10
3.77999e-08
5.02166e-10
3.83741e-08
4.13601e-10
3.8896e-08
2.02812e-11
3.9341e-08
-5.06996e-10
3.96957e-08
-1.07088e-09
3.99555e-08
-1.60578e-09
4.01213e-08
-2.06762e-09
4.01981e-08
-2.42804e-09
4.01939e-08
-2.67165e-09
4.01192e-08
-2.79283e-09
3.99872e-08
-2.79342e-09
3.98129e-08
-2.68143e-09
3.96135e-08
-2.46987e-09
3.94069e-08
-2.17577e-09
3.92118e-08
-1.81912e-09
3.9046e-08
-1.42196e-09
3.89259e-08
-1.00724e-09
3.88643e-08
-5.97643e-10
3.88693e-08
-2.14159e-10
3.89425e-08
1.25352e-10
3.90781e-08
4.07384e-10
3.92631e-08
6.24585e-10
3.94782e-08
7.75863e-10
8.6625e-10
3.97017e-08
4.78489e-08
-2.61178e-10
4.77713e-08
-3.19868e-10
4.76813e-08
-3.8448e-10
4.75804e-08
-4.52989e-10
4.7471e-08
-5.23004e-10
4.73563e-08
-5.92316e-10
4.72394e-08
-6.59109e-10
4.71235e-08
-7.22071e-10
4.70115e-08
-7.80317e-10
4.6906e-08
-8.33032e-10
4.68095e-08
-8.79267e-10
4.67249e-08
-9.17036e-10
4.66554e-08
-9.44031e-10
4.66052e-08
-9.5607e-10
4.65791e-08
-9.45662e-10
4.65853e-08
-9.10067e-10
4.66332e-08
-8.35513e-10
4.67329e-08
-7.06645e-10
4.6904e-08
-5.43846e-10
4.71681e-08
-3.5093e-10
4.75401e-08
-1.35487e-10
4.80338e-08
8.48471e-12
4.85587e-08
-1.11309e-10
4.90446e-08
-4.65636e-10
4.94631e-08
-9.25445e-10
4.97974e-08
-1.40517e-09
5.00409e-08
-1.84931e-09
5.0194e-08
-2.22067e-09
5.02615e-08
-2.49556e-09
5.02521e-08
-2.66228e-09
5.01775e-08
-2.7182e-09
5.00517e-08
-2.66766e-09
4.98909e-08
-2.52061e-09
4.97124e-08
-2.29138e-09
4.9534e-08
-1.99739e-09
4.93729e-08
-1.65802e-09
4.92445e-08
-1.29357e-09
4.91613e-08
-9.24058e-10
4.91317e-08
-5.68004e-10
4.91588e-08
-2.41263e-10
4.92402e-08
4.40051e-11
4.93683e-08
2.79238e-10
4.9531e-08
4.61868e-10
4.97137e-08
5.93149e-10
6.78286e-10
4.99017e-08
6.18137e-08
-1.87477e-10
6.17296e-08
-2.35791e-10
6.16345e-08
-2.89417e-10
6.15288e-08
-3.47252e-10
6.14135e-08
-4.07756e-10
6.12905e-08
-4.69288e-10
6.11617e-08
-5.3033e-10
6.10293e-08
-5.89634e-10
6.08952e-08
-6.46215e-10
6.07613e-08
-6.99181e-10
6.06298e-08
-7.47747e-10
6.0503e-08
-7.90186e-10
6.03839e-08
-8.24961e-10
6.0277e-08
-8.49147e-10
6.01873e-08
-8.55978e-10
6.01237e-08
-8.46525e-10
6.00969e-08
-8.08685e-10
6.01178e-08
-7.27547e-10
6.0208e-08
-6.33986e-10
6.03901e-08
-5.33081e-10
6.0679e-08
-4.244e-10
6.10899e-08
-4.02343e-10
6.1544e-08
-5.65485e-10
6.19724e-08
-8.94034e-10
6.23436e-08
-1.29657e-09
6.26385e-08
-1.70013e-09
6.28494e-08
-2.06018e-09
6.29759e-08
-2.34717e-09
6.30231e-08
-2.54282e-09
6.30005e-08
-2.63958e-09
6.29203e-08
-2.63803e-09
6.27974e-08
-2.54478e-09
6.26481e-08
-2.37131e-09
6.24893e-08
-2.13254e-09
6.23373e-08
-1.84543e-09
6.22071e-08
-1.5278e-09
6.21108e-08
-1.1973e-09
6.20572e-08
-8.70381e-10
6.20505e-08
-5.61369e-10
6.20909e-08
-2.81632e-10
6.21736e-08
-3.87271e-11
6.22913e-08
1.6154e-10
6.24335e-08
3.19639e-10
6.25893e-08
4.37408e-10
5.19383e-10
6.27482e-08
7.88286e-08
-1.07975e-10
7.87403e-08
-1.47477e-10
7.86424e-08
-1.91499e-10
7.85346e-08
-2.39505e-10
7.84174e-08
-2.90581e-10
7.82918e-08
-3.43615e-10
7.81589e-08
-3.97446e-10
7.80203e-08
-4.51009e-10
7.78774e-08
-5.03355e-10
7.77318e-08
-5.53604e-10
7.75852e-08
-6.01072e-10
7.74393e-08
-6.4436e-10
7.72968e-08
-6.82477e-10
7.71615e-08
-7.13782e-10
7.70381e-08
-7.32561e-10
7.69345e-08
-7.42917e-10
7.68608e-08
-7.35019e-10
7.68301e-08
-6.96897e-10
7.68617e-08
-6.65582e-10
7.69755e-08
-6.46804e-10
7.71879e-08
-6.36825e-10
7.75151e-08
-7.29605e-10
7.78902e-08
-9.40592e-10
7.82481e-08
-1.25193e-09
7.85569e-08
-1.60529e-09
7.87973e-08
-1.94059e-09
7.89616e-08
-2.22448e-09
7.90497e-08
-2.43527e-09
7.90672e-08
-2.56029e-09
7.9024e-08
-2.59642e-09
7.89333e-08
-2.54729e-09
7.88099e-08
-2.42135e-09
7.86695e-08
-2.23091e-09
7.85276e-08
-1.9907e-09
7.83985e-08
-1.71636e-09
7.82942e-08
-1.42342e-09
7.82233e-08
-1.12645e-09
7.81912e-08
-8.3831e-10
7.81994e-08
-5.69546e-10
7.82458e-08
-3.28e-10
7.83257e-08
-1.18649e-10
7.84313e-08
5.5914e-11
7.85549e-08
1.96059e-10
7.8688e-08
3.04364e-10
3.84385e-10
7.8823e-08
9.93534e-08
-2.67678e-11
9.92649e-08
-5.89682e-11
9.91683e-08
-9.48838e-11
9.90631e-08
-1.34301e-10
9.89493e-08
-1.7676e-10
9.88272e-08
-2.21587e-10
9.86978e-08
-2.67992e-10
9.8562e-08
-3.15196e-10
9.8421e-08
-3.62396e-10
9.82763e-08
-4.08929e-10
9.81294e-08
-4.54118e-10
9.79821e-08
-4.97127e-10
9.78369e-08
-5.37279e-10
9.76969e-08
-5.73692e-10
9.75674e-08
-6.03061e-10
9.74542e-08
-6.29761e-10
9.73649e-08
-6.4575e-10
9.73198e-08
-6.51808e-10
9.73299e-08
-6.75658e-10
9.74002e-08
-7.17046e-10
9.7558e-08
-7.94674e-10
9.78234e-08
-9.95021e-10
9.81297e-08
-1.24686e-09
9.84188e-08
-1.54104e-09
9.86618e-08
-1.84825e-09
9.8842e-08
-2.12086e-09
9.89537e-08
-2.33613e-09
9.8998e-08
-2.4796e-09
9.89816e-08
-2.54393e-09
9.89153e-08
-2.53011e-09
9.88124e-08
-2.44433e-09
9.86872e-08
-2.29619e-09
9.85543e-08
-2.09803e-09
9.84272e-08
-1.86359e-09
9.83174e-08
-1.60656e-09
9.82338e-08
-1.33977e-09
9.8182e-08
-1.0747e-09
9.81647e-08
-8.21019e-10
9.81815e-08
-5.86297e-10
9.82293e-08
-3.75862e-10
9.83034e-08
-1.92745e-10
9.83969e-08
-3.75953e-11
9.85039e-08
8.91203e-11
9.86177e-08
1.90514e-10
2.69226e-10
9.87329e-08
1.23942e-07