/*--------------------------------*- C++ -*----------------------------------*\
| =========                 |                                                 |
| \\      /  F ield         | OpenFOAM: The Open Source CFD Toolbox           |
|  \\    /   O peration     | Version:  2312                                  |
|   \\  /    A nd           | Website:  www.openfoam.com                      |
|    \\/     M anipulation  |                                                 |
\*---------------------------------------------------------------------------*/
FoamFile
{
    version     2.0;
    format      ascii;
    arch        "LSB;label=32;scalar=64";
    class       surfaceScalarField;
    location    "71.5";
    object      phi;
}
// * * * * * * * * * * * * * * * * * * * * * * * * * * * * * * * * * * * * * //

dimensions      [0 3 -1 0 0 0 0];

oriented        oriented;

internalField   nonuniform List<scalar> 
9445
(
6.09797e-10
1.68615e-11
5.98324e-10
1.14734e-11
5.90475e-10
7.84963e-12
5.85259e-10
5.21528e-12
5.82089e-10
3.16995e-12
5.80598e-10
1.4918e-12
5.80606e-10
-8.24463e-15
5.82159e-10
-1.55299e-12
5.85208e-10
-3.04882e-12
5.90118e-10
-4.91033e-12
5.9809e-10
-7.97212e-12
6.12706e-10
-1.46157e-11
6.46658e-10
-3.39526e-11
7.45026e-10
-9.83677e-11
-2.59264e-10
1.00429e-09
2.12251e-09
7.50736e-11
2.08251e-09
5.14688e-11
2.0548e-09
3.55608e-11
2.03602e-09
2.39948e-11
2.02414e-09
1.50501e-11
2.01787e-09
7.76063e-12
2.01657e-09
1.2942e-12
2.02008e-09
-5.0612e-12
2.02834e-09
-1.13092e-11
2.04254e-09
-1.91169e-11
2.06567e-09
-3.11011e-11
2.10461e-09
-5.35492e-11
2.17306e-09
-1.02411e-10
2.28459e-09
-2.09896e-10
-3.78781e-10
2.40411e-09
4.17916e-09
1.87943e-10
4.10095e-09
1.29676e-10
4.04622e-09
9.0291e-11
4.00856e-09
6.1662e-11
3.984e-09
3.96077e-11
3.96999e-09
2.1772e-11
3.9652e-09
6.08585e-12
3.9689e-09
-8.76032e-12
3.98089e-09
-2.3303e-11
4.00268e-09
-4.09081e-11
4.03717e-09
-6.55887e-11
4.08891e-09
-1.05291e-10
4.16081e-09
-1.74311e-10
4.23918e-09
-2.88262e-10
-4.25361e-10
4.28576e-09
6.92761e-09
3.70654e-10
6.79978e-09
2.57507e-10
6.70936e-09
1.80719e-10
6.64613e-09
1.24892e-10
6.60369e-09
8.20442e-11
6.57781e-09
4.76474e-11
6.56607e-09
1.783e-11
6.5668e-09
-9.48793e-12
6.57938e-09
-3.58853e-11
6.60439e-09
-6.59162e-11
6.64293e-09
-1.04129e-10
6.69437e-09
-1.56729e-10
6.75204e-09
-2.31991e-10
6.79546e-09
-3.31674e-10
-4.30265e-10
6.80036e-09
1.05472e-08
6.38867e-10
1.03573e-08
4.47407e-10
1.02213e-08
3.16718e-10
1.01246e-08
2.21588e-10
1.00578e-08
1.48797e-10
1.00147e-08
9.07705e-11
9.99109e-09
4.14539e-11
9.98423e-09
-2.62346e-12
9.99248e-09
-4.41358e-11
1.00144e-08
-8.78051e-11
1.00482e-08
-1.37957e-10
1.0089e-08
-1.97527e-10
1.01258e-08
-2.68778e-10
1.01409e-08
-3.46827e-10
-4.12545e-10
1.01232e-08
1.52505e-08
1.00553e-09
1.49868e-08
7.11025e-10
1.47953e-08
5.08281e-10
1.46566e-08
3.60247e-10
1.45582e-08
2.47183e-10
1.44914e-08
1.57603e-10
1.44499e-08
8.29499e-11
1.44294e-08
1.78958e-11
1.44265e-08
-4.12998e-11
1.44378e-08
-9.91132e-11
1.44586e-08
-1.58667e-10
1.44815e-08
-2.20494e-10
1.44959e-08
-2.83196e-10
1.44901e-08
-3.41026e-10
-3.8313e-10
1.44607e-08
2.12811e-08
1.47492e-09
2.09366e-08
1.05552e-09
2.06817e-08
7.63148e-10
2.04936e-08
5.48407e-10
2.03564e-08
3.84348e-10
2.0259e-08
2.54974e-10
2.0193e-08
1.48969e-10
2.0152e-08
5.89203e-11
2.01307e-08
-1.99906e-11
2.01235e-08
-9.19417e-11
2.01239e-08
-1.5909e-10
2.01244e-08
-2.20948e-10
2.01166e-08
-2.75389e-10
2.00942e-08
-3.18657e-10
-3.46212e-10
2.00573e-08
2.89057e-08
2.03363e-09
2.84838e-08
1.47739e-09
2.81644e-08
1.08257e-09
2.79231e-08
7.89652e-10
2.77424e-08
5.651e-10
2.76089e-08
3.88444e-10
2.75123e-08
2.45567e-10
2.74443e-08
1.26984e-10
2.73976e-08
2.6705e-11
2.73651e-08
-5.94792e-11
2.73398e-08
-1.33799e-10
2.73149e-08
-1.96066e-10
2.7285e-08
-2.4541e-10
2.7247e-08
-2.8073e-10
-3.01366e-10
2.72022e-08
3.83999e-08
2.6408e-09
3.79226e-08
1.9547e-09
3.75499e-08
1.45529e-09
3.72605e-08
1.07904e-09
3.70372e-08
7.8839e-10
3.68661e-08
5.59523e-10
3.67357e-08
3.75971e-10
3.66363e-08
2.26414e-10
3.65595e-08
1.03505e-10
3.64973e-08
2.72431e-12
3.64433e-08
-7.97938e-11
3.63919e-08
-1.44682e-10
3.63397e-08
-1.93208e-10
3.62855e-08
-2.26535e-10
-2.46166e-10
3.62303e-08
5.00384e-08
3.22623e-09
4.95509e-08
2.44218e-09
4.91539e-08
1.85233e-09
4.88346e-08
1.3983e-09
4.85798e-08
1.04317e-09
4.83772e-08
7.62127e-10
4.82157e-08
5.37501e-10
4.80854e-08
3.56711e-10
4.79778e-08
2.11119e-10
4.78859e-08
9.46289e-11
4.78032e-08
2.87768e-12
4.77263e-08
-6.77605e-11
4.76527e-08
-1.19586e-10
4.75818e-08
-1.55636e-10
-1.78548e-10
4.75142e-08
6.41121e-08
3.7097e-09
6.36754e-08
2.87888e-09
6.32987e-08
2.22902e-09
6.29816e-08
1.71532e-09
6.27181e-08
1.30667e-09
6.24999e-08
9.804e-10
6.23181e-08
7.19258e-10
6.21646e-08
5.10216e-10
6.20322e-08
3.43552e-10
6.19149e-08
2.11862e-10
6.18086e-08
1.09268e-10
6.171e-08
3.0824e-11
6.16179e-08
-2.74757e-11
6.15317e-08
-6.94736e-11
-9.84442e-11
6.14516e-08
8.10007e-08
4.04397e-09
8.06636e-08
3.21593e-09
8.03504e-08
2.54225e-09
8.00712e-08
1.99456e-09
7.98272e-08
1.55064e-09
7.96154e-08
1.19221e-09
7.94308e-08
9.03882e-10
7.9268e-08
6.72958e-10
7.91224e-08
4.89175e-10
7.89901e-08
3.44152e-10
7.88684e-08
2.30955e-10
7.87555e-08
1.43697e-10
7.86506e-08
7.74547e-11
7.85532e-08
2.79124e-11
-8.45857e-12
7.84632e-08
1.01271e-07
4.24685e-09
1.01039e-07
3.448e-09
1.00804e-07
2.77678e-09
1.00581e-07
2.21772e-09
1.00375e-07
1.75693e-09
1.00186e-07
1.38082e-09
1.00014e-07
1.07628e-09
9.98554e-08
8.31324e-10
9.97089e-08
6.3563e-10
9.95727e-08
4.80364e-10
9.94456e-08
3.58103e-10
9.93267e-08
2.62505e-10
9.92159e-08
1.88324e-10
9.91127e-08
1.31082e-10
8.71887e-11
9.90171e-08
1.25668e-07
4.3682e-09
1.25509e-07
3.60697e-09
1.25335e-07
2.9507e-09
1.25159e-07
2.39374e-09
1.24987e-07
1.92865e-09
1.24822e-07
1.54565e-09
1.24665e-07
1.23346e-09
1.24515e-07
9.80808e-10
1.24374e-07
7.77567e-10
1.24239e-07
6.149e-10
1.24112e-07
4.85319e-10
1.23992e-07
3.82437e-10
1.23879e-07
3.00997e-10
1.23774e-07
2.36561e-10
1.85592e-10
1.23675e-07
1.54915e-07
4.43229e-09
1.54805e-07
3.71769e-09
1.5467e-07
3.08494e-09
1.54525e-07
2.53911e-09
1.54376e-07
2.07818e-09
1.54226e-07
1.69551e-09
1.54078e-07
1.38131e-09
1.53934e-07
1.12506e-09
1.53794e-07
9.17098e-10
1.5366e-07
7.48921e-10
1.53532e-07
6.13276e-10
1.53411e-07
5.03966e-10
1.53296e-07
4.15886e-10
1.53187e-07
3.44755e-10
2.87158e-10
1.53086e-07
1.89493e-07
4.43804e-09
1.89431e-07
3.77967e-09
1.89335e-07
3.18084e-09
1.89218e-07
2.65596e-09
1.89089e-07
2.20768e-09
1.88952e-07
1.83222e-09
1.88812e-07
1.52114e-09
1.88672e-07
1.265e-09
1.88534e-07
1.05495e-09
1.884e-07
8.83146e-10
1.88271e-07
7.42779e-10
1.88147e-07
6.28014e-10
1.88029e-07
5.34018e-10
1.87917e-07
4.56746e-10
3.92949e-10
1.87811e-07
2.2952e-07
4.38006e-09
2.29516e-07
3.78328e-09
2.29466e-07
3.23085e-09
2.29385e-07
2.73679e-09
2.29283e-07
2.31045e-09
2.29165e-07
1.94983e-09
2.29039e-07
1.64764e-09
2.28908e-07
1.39593e-09
2.28775e-07
1.18714e-09
2.28644e-07
1.01425e-09
2.28516e-07
8.71105e-10
2.28392e-07
7.52365e-10
2.28272e-07
6.53582e-10
2.28158e-07
5.7102e-10
5.01675e-10
2.28049e-07
2.74555e-07
4.26359e-09
2.74619e-07
3.71834e-09
2.74629e-07
3.22138e-09
2.74593e-07
2.77253e-09
2.74525e-07
2.379e-09
2.74433e-07
2.04149e-09
2.74326e-07
1.75451e-09
2.7421e-07
1.51228e-09
2.74088e-07
1.3087e-09
2.73965e-07
1.13785e-09
2.73841e-07
9.94349e-10
2.7372e-07
8.73488e-10
2.73603e-07
7.71306e-10
2.73489e-07
6.84459e-10
6.10318e-10
2.7338e-07
3.23139e-07
4.05344e-09
3.23267e-07
3.58947e-09
3.23337e-07
3.15207e-09
3.23355e-07
2.7539e-09
3.23334e-07
2.40068e-09
3.23281e-07
2.09369e-09
3.23207e-07
1.82884e-09
3.23117e-07
1.60208e-09
3.23017e-07
1.40874e-09
3.22911e-07
1.24405e-09
3.22802e-07
1.10352e-09
3.22692e-07
9.83205e-10
3.22584e-07
8.79702e-10
3.22478e-07
7.9012e-10
7.12115e-10
3.22376e-07
3.72042e-07
3.73631e-09
3.72272e-07
3.35991e-09
3.72427e-07
2.99674e-09
3.72522e-07
2.65892e-09
3.72568e-07
2.35435e-09
3.72577e-07
2.08523e-09
3.72556e-07
1.85001e-09
3.72512e-07
1.64564e-09
3.72452e-07
1.46852e-09
3.72381e-07
1.31498e-09
3.72303e-07
1.18156e-09
3.72222e-07
1.06512e-09
3.72138e-07
9.62942e-10
3.72056e-07
8.72644e-10
7.92374e-10
3.71975e-07
3.69351e-07
3.39483e-09
3.69618e-07
3.09272e-09
3.6982e-07
2.79505e-09
3.69964e-07
2.51468e-09
3.7006e-07
2.25848e-09
3.70117e-07
2.02856e-09
3.70142e-07
1.82444e-09
3.70144e-07
1.6442e-09
3.70127e-07
1.48525e-09
3.70097e-07
1.34485e-09
3.70058e-07
1.22041e-09
3.70014e-07
1.10953e-09
3.69967e-07
1.01009e-09
3.69919e-07
9.20234e-10
8.38629e-10
3.69873e-07
3.16236e-07
3.00337e-09
3.16559e-07
2.76919e-09
3.16821e-07
2.53336e-09
3.17027e-07
2.30806e-09
3.17187e-07
2.09943e-09
3.17306e-07
1.90937e-09
3.17392e-07
1.73786e-09
3.17453e-07
1.58382e-09
3.17492e-07
1.44555e-09
3.17516e-07
1.32114e-09
3.17528e-07
1.2087e-09
3.17531e-07
1.10647e-09
3.17528e-07
1.01289e-09
3.17522e-07
9.26557e-10
8.463e-10
3.17514e-07
2.6448e-07
2.65022e-09
2.64784e-07
2.4646e-09
2.65042e-07
2.27522e-09
2.65258e-07
2.09242e-09
2.65436e-07
1.92119e-09
2.65582e-07
1.76326e-09
2.65702e-07
1.61873e-09
2.65798e-07
1.4869e-09
2.65877e-07
1.36657e-09
2.65942e-07
1.25638e-09
2.65996e-07
1.15496e-09
2.66041e-07
1.06102e-09
2.66081e-07
9.73384e-10
2.66116e-07
8.91025e-10
8.13061e-10
2.6615e-07
2.17591e-07
2.31249e-09
2.17891e-07
2.16482e-09
2.18153e-07
2.01323e-09
2.1838e-07
1.86556e-09
2.18575e-07
1.72578e-09
2.18743e-07
1.59529e-09
2.18888e-07
1.47418e-09
2.19013e-07
1.36195e-09
2.19121e-07
1.2578e-09
2.19217e-07
1.16076e-09
2.19302e-07
1.06986e-09
2.19379e-07
9.84165e-10
2.1945e-07
9.0284e-10
2.19515e-07
8.25145e-10
7.50463e-10
2.19578e-07
1.76575e-07
1.98177e-09
1.76875e-07
1.86503e-09
1.77143e-07
1.74494e-09
1.77381e-07
1.62704e-09
1.77593e-07
1.51422e-09
1.77781e-07
1.40751e-09
1.77948e-07
1.30701e-09
1.78097e-07
1.2124e-09
1.78232e-07
1.12311e-09
1.78354e-07
1.03851e-09
1.78466e-07
9.57933e-10
1.7857e-07
8.80732e-10
1.78666e-07
8.06346e-10
1.78757e-07
7.34274e-10
6.641e-10
1.78843e-07
1.41647e-07
1.65983e-09
1.41943e-07
1.56906e-09
1.42212e-07
1.47548e-09
1.42456e-07
1.38287e-09
1.42677e-07
1.29318e-09
1.42878e-07
1.20715e-09
1.4306e-07
1.12487e-09
1.43226e-07
1.04616e-09
1.43378e-07
9.70679e-10
1.43519e-07
8.98006e-10
1.43649e-07
8.27716e-10
1.43771e-07
7.59407e-10
1.43884e-07
6.92726e-10
1.43991e-07
6.27371e-10
5.63084e-10
1.44092e-07
1.12489e-07
1.35444e-09
1.12773e-07
1.28561e-09
1.13034e-07
1.21429e-09
1.13274e-07
1.14305e-09
1.13494e-07
1.07314e-09
1.13696e-07
1.00504e-09
1.13882e-07
9.38875e-10
1.14054e-07
8.74574e-10
1.14212e-07
8.11945e-10
1.1436e-07
7.50753e-10
1.14497e-07
6.90755e-10
1.14624e-07
6.3173e-10
1.14744e-07
5.73488e-10
1.14855e-07
5.15877e-10
4.58776e-10
1.14959e-07
8.84994e-08
1.07511e-09
8.87605e-08
1.0245e-09
8.90031e-08
9.71653e-10
8.92279e-08
9.18283e-10
8.9436e-08
8.65075e-10
8.96286e-08
8.12387e-10
8.98071e-08
7.6037e-10
8.99727e-08
7.09031e-10
9.01263e-08
6.58291e-10
9.0269e-08
6.08047e-10
9.04016e-08
5.58193e-10
9.05247e-08
5.08635e-10
9.06389e-08
4.59309e-10
9.07446e-08
4.10164e-10
3.61184e-10
9.08422e-08
6.89715e-08
8.29503e-10
6.92024e-08
7.93623e-10
6.94183e-08
7.55772e-10
6.96196e-08
7.17004e-10
6.9807e-08
6.77643e-10
6.99814e-08
6.37981e-10
7.01436e-08
5.98185e-10
7.02943e-08
5.5831e-10
7.04343e-08
5.18355e-10
7.0564e-08
4.78306e-10
7.06841e-08
4.3815e-10
7.07948e-08
3.97882e-10
7.08966e-08
3.57515e-10
7.09897e-08
3.17071e-10
2.76594e-10
7.10743e-08
5.32122e-08
6.21676e-10
5.34085e-08
5.97279e-10
5.35931e-08
5.7125e-10
5.3766e-08
5.44076e-10
5.39277e-08
5.15898e-10
5.40787e-08
4.86979e-10
5.42194e-08
4.57478e-10
5.43503e-08
4.27476e-10
5.44716e-08
3.97017e-10
5.45838e-08
3.66144e-10
5.4687e-08
3.34898e-10
5.47816e-08
3.03325e-10
5.48676e-08
2.71484e-10
5.49452e-08
2.39437e-10
2.0726e-10
5.50146e-08
4.05916e-08
4.51975e-10
4.07527e-08
4.36181e-10
4.09049e-08
4.19123e-10
4.10481e-08
4.00833e-10
4.11826e-08
3.81406e-10
4.13085e-08
3.61076e-10
4.1426e-08
3.39977e-10
4.15353e-08
3.18197e-10
4.16365e-08
2.95805e-10
4.17298e-08
2.72867e-10
4.18152e-08
2.49449e-10
4.18929e-08
2.25624e-10
4.19629e-08
2.01466e-10
4.20253e-08
1.77054e-10
1.52476e-10
4.20801e-08
3.05612e-08
3.17906e-10
3.06891e-08
3.08272e-10
3.08105e-08
2.97717e-10
3.09253e-08
2.85966e-10
3.10336e-08
2.73143e-10
3.11352e-08
2.59435e-10
3.12303e-08
2.44948e-10
3.13187e-08
2.29764e-10
3.14006e-08
2.13955e-10
3.14758e-08
1.97593e-10
3.15445e-08
1.80748e-10
3.16067e-08
1.63497e-10
3.16622e-08
1.45914e-10
3.17112e-08
1.2808e-10
1.10077e-10
3.17536e-08
2.26519e-08
2.15274e-10
2.27504e-08
2.09824e-10
2.28444e-08
2.03736e-10
2.29338e-08
1.96587e-10
2.30183e-08
1.88547e-10
2.3098e-08
1.79745e-10
2.31727e-08
1.70258e-10
2.32423e-08
1.60154e-10
2.33068e-08
1.49497e-10
2.3366e-08
1.38351e-10
2.342e-08
1.2678e-10
2.34687e-08
1.1485e-10
2.35119e-08
1.02627e-10
2.35498e-08
9.01834e-11
7.75868e-11
2.35823e-08
1.64677e-08
1.39181e-10
1.65411e-08
1.36392e-10
1.66117e-08
1.3318e-10
1.66792e-08
1.29116e-10
1.67433e-08
1.24384e-10
1.6804e-08
1.19056e-10
1.68611e-08
1.13188e-10
1.69144e-08
1.06829e-10
1.69639e-08
1.00029e-10
1.70094e-08
9.28385e-11
1.70509e-08
8.53076e-11
1.70882e-08
7.74898e-11
1.71214e-08
6.94362e-11
1.71504e-08
6.12048e-11
5.28484e-11
1.71751e-08
1.16758e-08
8.47162e-11
1.17287e-08
8.34785e-11
1.17799e-08
8.19806e-11
1.18292e-08
7.98665e-11
1.18763e-08
7.73007e-11
1.1921e-08
7.43124e-11
1.19633e-08
7.09362e-11
1.20029e-08
6.72068e-11
1.20397e-08
6.31579e-11
1.20738e-08
5.88257e-11
1.21048e-08
5.42453e-11
1.21329e-08
4.94552e-11
1.21578e-08
4.44913e-11
1.21796e-08
3.93967e-11
3.42104e-11
1.21982e-08
7.9991e-09
4.7365e-11
8.03566e-09
4.69235e-11
8.07129e-09
4.63478e-11
8.10578e-09
4.53814e-11
8.13894e-09
4.41416e-11
8.17062e-09
4.26324e-11
8.20068e-09
4.08743e-11
8.229e-09
3.88879e-11
8.25546e-09
3.66941e-11
8.27997e-09
3.43156e-11
8.30244e-09
3.17746e-11
8.3228e-09
2.90958e-11
8.34099e-09
2.63015e-11
8.35697e-09
2.3421e-11
2.04819e-11
8.37069e-09
5.20848e-09
2.31993e-11
5.23231e-09
2.30896e-11
5.25572e-09
2.29404e-11
5.27851e-09
2.25842e-11
5.30057e-09
2.20844e-11
5.32177e-09
2.14359e-11
5.34199e-09
2.06494e-11
5.36115e-09
1.97357e-11
5.37913e-09
1.87056e-11
5.39588e-09
1.75716e-11
5.41131e-09
1.63456e-11
5.42536e-09
1.50413e-11
5.43799e-09
1.36706e-11
5.44916e-09
1.22509e-11
1.08017e-11
5.45884e-09
3.11623e-09
8.9345e-12
3.13041e-09
8.914e-12
3.14443e-09
8.91346e-12
3.15819e-09
8.83152e-12
3.17158e-09
8.68889e-12
3.18454e-09
8.48166e-12
3.19697e-09
8.21428e-12
3.20882e-09
7.89117e-12
3.22e-09
7.5169e-12
3.23048e-09
7.09688e-12
3.24019e-09
6.63596e-12
3.24909e-09
6.14036e-12
3.25715e-09
5.6147e-12
3.26433e-09
5.06757e-12
4.51201e-12
3.27062e-09
1.57e-09
1.90442e-12
1.57702e-09
1.88633e-12
1.58403e-09
1.90575e-12
1.59095e-09
1.90838e-12
1.59775e-09
1.89517e-12
1.60436e-09
1.86548e-12
1.61076e-09
1.82052e-12
1.61689e-09
1.7615e-12
1.62272e-09
1.68955e-12
1.62821e-09
1.6061e-12
1.63333e-09
1.51229e-12
1.63806e-09
1.40979e-12
1.64238e-09
1.29954e-12
1.64626e-09
1.18413e-12
1.07075e-12
1.6497e-09
4.47182e-10
4.49068e-10
4.50974e-10
4.52882e-10
4.54777e-10
4.56643e-10
4.58463e-10
4.60225e-10
4.61914e-10
4.6352e-10
4.65033e-10
4.66442e-10
4.67742e-10
4.68926e-10
4.69997e-10
1.19695e-09
-5.2093e-10
3.28265e-10
1.46986e-09
-4.82189e-10
2.09282e-10
1.74181e-09
-3.79168e-10
1.07224e-10
2.00682e-09
-2.72225e-10
7.20817e-12
2.26343e-09
-1.6556e-10
-9.10496e-11
2.51278e-09
-6.36024e-11
-1.85744e-10
2.75678e-09
3.51708e-11
-2.79169e-10
2.99716e-09
1.33699e-10
-3.74086e-10
3.23542e-09
2.35635e-10
-4.73891e-10
3.47274e-09
3.45266e-10
-5.82584e-10
3.71006e-09
4.67728e-10
-7.05047e-10
3.94818e-09
6.09548e-10
-8.47668e-10
4.18793e-09
7.79512e-10
-1.01927e-09
4.43047e-09
9.89298e-10
-1.23184e-09
4.67753e-09
1.25472e-09
-1.50178e-09
4.93176e-09
1.5961e-09
-1.85033e-09
5.19747e-09
2.03502e-09
-2.30073e-09
5.481e-09
2.59447e-09
-2.878e-09
5.79056e-09
3.29542e-09
-3.60498e-09
6.13637e-09
4.13465e-09
-4.48046e-09
6.52847e-09
5.04274e-09
-5.43483e-09
6.97157e-09
5.83839e-09
-6.28149e-09
7.38581e-09
5.2689e-09
-5.68314e-09
7.73044e-09
3.93348e-09
-4.27811e-09
8.00041e-09
2.42705e-09
-2.69702e-09
8.19697e-09
9.15065e-10
-1.11162e-09
8.32419e-09
-4.92136e-10
3.64923e-10
8.38661e-09
-1.73443e-09
1.67201e-09
8.38857e-09
-2.78452e-09
2.78255e-09
8.33416e-09
-3.6304e-09
3.68481e-09
8.22732e-09
-4.26685e-09
4.37368e-09
8.07204e-09
-4.69352e-09
4.8488e-09
7.87246e-09
-4.91476e-09
5.11434e-09
7.63278e-09
-4.93939e-09
5.17908e-09
7.35705e-09
-4.78024e-09
5.05596e-09
7.04891e-09
-4.45281e-09
4.76095e-09
6.71128e-09
-3.97339e-09
4.31102e-09
6.34634e-09
-3.35651e-09
3.72146e-09
5.95571e-09
-2.61165e-09
3.00228e-09
5.54029e-09
-1.74043e-09
2.15585e-09
5.09832e-09
-7.4051e-10
1.18248e-09
4.61951e-09
3.74832e-10
1.03975e-10
4.08641e-09
1.51712e-09
-9.84017e-10
3.50632e-09
2.46155e-09
-1.88146e-09
2.54888e-09
3.16529e-09
-2.20785e-09
2.47824e-09
-5.95064e-10
2.6349e-09
-6.3885e-10
2.84738e-09
-5.91645e-10
3.08377e-09
-5.08609e-10
3.33013e-09
-4.11928e-10
3.57946e-09
-3.12932e-10
3.8294e-09
-2.14765e-10
4.07942e-09
-1.16316e-10
4.32975e-09
-1.47045e-11
4.58096e-09
9.40625e-11
4.83363e-09
2.1505e-10
5.08845e-09
3.54732e-10
5.34622e-09
5.21741e-10
5.60819e-09
7.27333e-10
5.87623e-09
9.86682e-10
6.15325e-09
1.31907e-09
6.44395e-09
1.74433e-09
6.75524e-09
2.28318e-09
7.09597e-09
2.95469e-09
7.47715e-09
3.75347e-09
7.90971e-09
4.61018e-09
8.39918e-09
5.34892e-09
8.85831e-09
4.80976e-09
9.24241e-09
3.54937e-09
9.54563e-09
2.12383e-09
9.76888e-09
6.91816e-10
9.91623e-09
-6.39489e-10
9.99241e-09
-1.81061e-09
1.00021e-08
-2.7942e-09
9.9499e-09
-3.5782e-09
9.84046e-09
-4.1574e-09
9.67861e-09
-4.53167e-09
9.4695e-09
-4.70565e-09
9.21853e-09
-4.68843e-09
8.93123e-09
-4.49293e-09
8.61307e-09
-4.13465e-09
8.26952e-09
-3.62985e-09
7.90641e-09
-2.9934e-09
7.53114e-09
-2.23638e-09
7.15472e-09
-1.36402e-09
6.79403e-09
-3.79813e-10
6.47273e-09
6.9613e-10
6.22435e-09
1.7655e-09
6.10366e-09
2.58224e-09
2.61224e-09
6.0403e-09
4.29481e-09
-6.0412e-10
4.35868e-09
-7.02717e-10
4.48698e-09
-7.19947e-10
4.66554e-09
-6.87167e-10
4.87447e-09
-6.20854e-10
5.10131e-09
-5.39775e-10
5.33917e-09
-4.52624e-10
5.58431e-09
-3.61458e-10
5.83488e-09
-2.65273e-10
6.09011e-09
-1.61164e-10
6.34983e-09
-4.46786e-11
6.6143e-09
9.02661e-11
6.88411e-09
2.51935e-10
7.16046e-09
4.50977e-10
7.44534e-09
7.01804e-10
7.74183e-09
1.02258e-09
8.05501e-09
1.43114e-09
8.39242e-09
1.94577e-09
8.76349e-09
2.58362e-09
9.17996e-09
3.33701e-09
9.65368e-09
4.13645e-09
1.0191e-08
4.81161e-09
1.06971e-08
4.30369e-09
1.1123e-08
3.12348e-09
1.14618e-08
1.78499e-09
1.17141e-08
4.39572e-10
1.18837e-08
-8.09125e-10
1.19756e-08
-1.90248e-09
1.19947e-08
-2.81334e-09
1.19463e-08
-3.52981e-09
1.18359e-08
-4.04696e-09
1.16693e-08
-4.36507e-09
1.14529e-08
-4.48927e-09
1.11936e-08
-4.42918e-09
1.08989e-08
-4.19817e-09
1.05764e-08
-3.81218e-09
1.02348e-08
-3.28823e-09
9.8842e-09
-2.6428e-09
9.53843e-09
-1.89061e-09
9.21845e-09
-1.04404e-09
8.95673e-09
-1.18095e-10
8.79821e-09
8.5465e-10
8.7871e-09
1.7766e-09
8.92593e-09
2.44341e-09
2.5065e-09
9.03167e-09
6.77195e-09
-5.75706e-10
6.77141e-09
-7.02182e-10
6.8191e-09
-7.67634e-10
6.92047e-09
-7.88539e-10
7.06826e-09
-7.68646e-10
7.24803e-09
-7.19544e-10
7.45125e-09
-6.55845e-10
7.67162e-09
-5.81825e-10
7.90507e-09
-4.9873e-10
8.14922e-09
-4.05312e-10
8.40279e-09
-2.98248e-10
8.66531e-09
-1.72254e-10
8.93696e-09
-1.97185e-11
9.21881e-09
1.6913e-10
9.51283e-09
4.07784e-10
9.82223e-09
7.1318e-10
1.01525e-08
1.1009e-09
1.05117e-08
1.58652e-09
1.091e-08
2.18537e-09
1.13596e-08
2.88737e-09
1.18734e-08
3.62268e-09
1.24584e-08
4.22664e-09
1.30121e-08
3.74998e-09
1.3481e-08
2.65451e-09
1.38571e-08
1.40894e-09
1.414e-08
1.56685e-10
1.43335e-08
-1.00268e-09
1.44427e-08
-2.01164e-09
1.44728e-08
-2.84347e-09
1.44298e-08
-3.48684e-09
1.43202e-08
-3.93734e-09
1.41511e-08
-4.19594e-09
1.39304e-08
-4.26856e-09
1.36668e-08
-4.16558e-09
1.33698e-08
-3.90118e-09
1.30499e-08
-3.49228e-09
1.2719e-08
-2.95737e-09
1.23918e-08
-2.31555e-09
1.20875e-08
-1.5863e-09
1.18337e-08
-7.90287e-10
1.16694e-08
4.62296e-11
1.16422e-08
8.8181e-10
1.17854e-08
1.63338e-09
1.20697e-08
2.15911e-09
2.27669e-09
1.22996e-08
1.00764e-08
-5.28913e-10
1.00327e-08
-6.58459e-10
1.00187e-08
-7.53639e-10
1.00451e-08
-8.1498e-10
1.01162e-08
-8.3967e-10
1.02288e-08
-8.32191e-10
1.03748e-08
-8.01821e-10
1.05477e-08
-7.54704e-10
1.07424e-08
-6.93477e-10
1.09554e-08
-6.18339e-10
1.11845e-08
-5.27259e-10
1.14282e-08
-4.16022e-10
1.16865e-08
-2.77974e-10
1.196e-08
-1.04393e-10
1.22508e-08
1.16988e-10
1.25621e-08
4.01838e-10
1.28999e-08
7.63143e-10
1.32729e-08
1.21349e-09
1.36917e-08
1.7666e-09
1.41692e-08
2.40988e-09
1.4719e-08
3.07291e-09
1.53487e-08
3.5969e-09
1.59485e-08
3.15015e-09
1.64601e-08
2.14294e-09
1.68735e-08
9.95547e-10
1.71875e-08
-1.57381e-10
1.74058e-08
-1.22096e-09
1.75333e-08
-2.13908e-09
1.75756e-08
-2.88584e-09
1.75396e-08
-3.45082e-09
1.74328e-08
-3.83056e-09
1.72639e-08
-4.02698e-09
1.70424e-08
-4.04708e-09
1.67791e-08
-3.90232e-09
1.6486e-08
-3.60802e-09
1.61762e-08
-3.18248e-09
1.5865e-08
-2.64614e-09
1.55705e-08
-2.02109e-09
1.53156e-08
-1.3314e-09
1.51295e-08
-6.0424e-10
1.50485e-08
1.27294e-10
1.51099e-08
8.20344e-10
1.53303e-08
1.413e-09
1.56683e-08
1.82116e-09
1.9608e-09
1.59842e-08
1.44068e-08
-4.75003e-10
1.4341e-08
-5.92623e-10
1.42845e-08
-6.97196e-10
1.42507e-08
-7.81177e-10
1.42497e-08
-8.38598e-10
1.42865e-08
-8.69033e-10
1.43595e-08
-8.74788e-10
1.4465e-08
-8.60259e-10
1.45993e-08
-8.27764e-10
1.4759e-08
-7.77998e-10
1.49415e-08
-7.09795e-10
1.51454e-08
-6.19922e-10
1.53702e-08
-5.02719e-10
1.56165e-08
-3.50732e-10
1.58865e-08
-1.53056e-10
1.61837e-08
1.04692e-10
1.65143e-08
4.32501e-10
1.68882e-08
8.39629e-10
1.73162e-08
1.3386e-09
1.78118e-08
1.91424e-09
1.83894e-08
2.49529e-09
1.90571e-08
2.92921e-09
1.96982e-08
2.50906e-09
2.02492e-08
1.59198e-09
2.06978e-08
5.46914e-10
2.10417e-08
-5.01261e-10
2.1284e-08
-1.46321e-09
2.14295e-08
-2.28461e-09
2.14845e-08
-2.94081e-09
2.14565e-08
-3.42282e-09
2.13544e-08
-3.72846e-09
2.11884e-08
-3.861e-09
2.09701e-08
-3.82879e-09
2.07124e-08
-3.64464e-09
2.04296e-08
-3.32523e-09
2.01376e-08
-2.89043e-09
1.98541e-08
-2.36263e-09
1.95995e-08
-1.76649e-09
1.93972e-08
-1.12917e-09
1.92739e-08
-4.809e-10
1.9257e-08
1.44235e-10
1.93689e-08
7.08436e-10
1.96119e-08
1.17e-09
1.99472e-08
1.4858e-09
1.62457e-09
2.02835e-08
2.00009e-08
-4.18658e-10
1.99271e-08
-5.18783e-10
1.98478e-08
-6.1784e-10
1.97743e-08
-7.07727e-10
1.97179e-08
-7.82177e-10
1.96866e-08
-8.37773e-10
1.9685e-08
-8.73145e-10
1.9714e-08
-8.89233e-10
1.9773e-08
-8.86784e-10
1.98608e-08
-8.65793e-10
1.99761e-08
-8.25123e-10
2.01182e-08
-7.62042e-10
2.02871e-08
-6.71604e-10
2.0484e-08
-5.47657e-10
2.07117e-08
-3.80682e-10
2.09737e-08
-1.57403e-10
2.12776e-08
1.2868e-10
2.16341e-08
4.83124e-10
2.20546e-08
9.18035e-10
2.25533e-08
1.41559e-09
2.31452e-08
1.90334e-09
2.38387e-08
2.23572e-09
2.45116e-08
1.83619e-09
2.50949e-08
1.00872e-09
2.55733e-08
6.84841e-11
2.59428e-08
-8.70754e-10
2.62059e-08
-1.7263e-09
2.63674e-08
-2.44612e-09
2.64339e-08
-3.00733e-09
2.6414e-08
-3.40287e-09
2.63178e-08
-3.63232e-09
2.61574e-08
-3.70059e-09
2.59463e-08
-3.61766e-09
2.56995e-08
-3.39785e-09
2.54335e-08
-3.05922e-09
2.51661e-08
-2.62305e-09
2.49166e-08
-2.1132e-09
2.47058e-08
-1.55568e-09
2.45551e-08
-9.78478e-10
2.44854e-08
-4.11128e-10
2.45136e-08
1.15991e-10
2.46485e-08
5.73526e-10
2.48827e-08
9.35848e-10
2.51844e-08
1.18403e-09
1.3112e-09
2.54978e-08
2.71429e-08
-3.59409e-10
2.70663e-08
-4.42149e-10
2.69773e-08
-5.28805e-10
2.6883e-08
-6.13511e-10
2.67919e-08
-6.91067e-10
2.67117e-08
-7.57505e-10
2.66487e-08
-8.1018e-10
2.66073e-08
-8.47851e-10
2.65903e-08
-8.69726e-10
2.65992e-08
-8.74731e-10
2.66353e-08
-8.61221e-10
2.66997e-08
-8.26494e-10
2.6794e-08
-7.6588e-10
2.69208e-08
-6.74453e-10
2.70841e-08
-5.43987e-10
2.72886e-08
-3.61838e-10
2.75429e-08
-1.25636e-10
2.78599e-08
1.66097e-10
2.82516e-08
5.26338e-10
2.87327e-08
9.34457e-10
2.93196e-08
1.3165e-09
3.00204e-08
1.53489e-09
3.07097e-08
1.14689e-09
3.13131e-08
4.05356e-10
3.18114e-08
-4.29855e-10
3.21985e-08
-1.25784e-09
3.2476e-08
-2.00384e-09
3.26487e-08
-2.6188e-09
3.27235e-08
-3.08218e-09
3.27101e-08
-3.38947e-09
3.26202e-08
-3.54233e-09
3.24672e-08
-3.54763e-09
3.22667e-08
-3.41715e-09
3.20355e-08
-3.1667e-09
3.17918e-08
-2.81551e-09
3.15545e-08
-2.38573e-09
3.1343e-08
-1.9017e-09
3.11765e-08
-1.38916e-09
3.10726e-08
-8.7454e-10
3.10453e-08
-3.83847e-10
3.11025e-08
5.88124e-11
3.12434e-08
4.32554e-10
3.14558e-08
7.23499e-10
3.17147e-08
9.25104e-10
1.04009e-09
3.19858e-08
3.61649e-08
-2.93965e-10
3.60844e-08
-3.61638e-10
3.59902e-08
-4.34619e-10
3.58858e-08
-5.09184e-10
3.57763e-08
-5.81483e-10
3.56669e-08
-6.48125e-10
3.55631e-08
-7.06426e-10
3.54697e-08
-7.54467e-10
3.53908e-08
-7.90783e-10
3.53298e-08
-8.13743e-10
3.529e-08
-8.21427e-10
3.52748e-08
-8.11226e-10
3.52874e-08
-7.78564e-10
3.53328e-08
-7.1986e-10
3.5417e-08
-6.28162e-10
3.5546e-08
-4.90788e-10
3.57307e-08
-3.10322e-10
3.59867e-08
-8.99585e-11
3.63267e-08
1.863e-10
3.67667e-08
4.94472e-10
3.73245e-08
7.58733e-10
3.80083e-08
8.51074e-10
3.86926e-08
4.62603e-10
3.92981e-08
-2.00185e-10
3.98014e-08
-9.33076e-10
4.01935e-08
-1.64992e-09
4.04751e-08
-2.28549e-09
4.06508e-08
-2.79449e-09
4.07281e-08
-3.15946e-09
4.07176e-08
-3.37902e-09
4.06325e-08
-3.45716e-09
4.04876e-08
-3.40281e-09
4.03001e-08
-3.22965e-09
4.00882e-08
-2.95476e-09
3.98707e-08
-2.59802e-09
3.96666e-08
-2.1816e-09
3.94939e-08
-1.72903e-09
3.93689e-08
-1.26418e-09
3.93045e-08
-8.10139e-10
3.93087e-08
-3.87979e-10
3.93819e-08
-1.43762e-11
3.95194e-08
2.95053e-10
3.9707e-08
5.35844e-10
3.99256e-08
7.06502e-10
8.1266e-10
4.0153e-08
4.74393e-08
-2.19125e-10
4.73519e-08
-2.74194e-10
4.72518e-08
-3.34509e-10
4.71404e-08
-3.97828e-10
4.70204e-08
-4.61461e-10
4.6895e-08
-5.22755e-10
4.6768e-08
-5.79374e-10
4.66429e-08
-6.29383e-10
4.65233e-08
-6.71248e-10
4.64129e-08
-7.03309e-10
4.63153e-08
-7.23852e-10
4.62349e-08
-7.30817e-10
4.61763e-08
-7.19921e-10
4.61458e-08
-6.89405e-10
4.61515e-08
-6.33881e-10
4.62009e-08
-5.40097e-10
4.63072e-08
-4.16685e-10
4.64895e-08
-2.72224e-10
4.67609e-08
-8.50736e-11
4.71391e-08
1.16239e-10
4.76441e-08
2.53738e-10
4.82842e-08
2.1097e-10
4.89378e-08
-1.91056e-10
4.95229e-08
-7.85225e-10
5.00112e-08
-1.42138e-09
5.03914e-08
-2.03009e-09
5.0663e-08
-2.5571e-09
5.08302e-08
-2.9617e-09
5.09012e-08
-3.23048e-09
5.08879e-08
-3.36573e-09
5.08044e-08
-3.37369e-09
5.0667e-08
-3.26532e-09
5.04934e-08
-3.05607e-09
5.03025e-08
-2.76387e-09
5.0113e-08
-2.40849e-09
4.99424e-08
-2.01108e-09
4.98066e-08
-1.59317e-09
4.97179e-08
-1.17547e-09
4.96845e-08
-7.76772e-10
4.97094e-08
-4.12883e-10
4.97906e-08
-9.5549e-11
4.9919e-08
1.66669e-10
5.00828e-08
3.71992e-10
5.02672e-08
5.22126e-10
6.22772e-10
5.04571e-08
6.13664e-08
-1.33891e-10
6.12706e-08
-1.78391e-10
6.11636e-08
-2.27565e-10
6.10459e-08
-2.80136e-10
6.09188e-08
-3.3433e-10
6.07842e-08
-3.88185e-10
6.06447e-08
-4.39808e-10
6.05027e-08
-4.87446e-10
6.03612e-08
-5.29704e-10
6.02229e-08
-5.6504e-10
6.00912e-08
-5.92127e-10
5.997e-08
-6.09653e-10
5.9864e-08
-6.13874e-10
5.97797e-08
-6.05158e-10
5.97259e-08
-5.80018e-10
5.97108e-08
-5.25055e-10
5.97494e-08
-4.5527e-10
5.98623e-08
-3.85123e-10
6.00627e-08
-2.85431e-10
6.03707e-08
-1.91763e-10
6.08082e-08
-1.83829e-10
6.1383e-08
-3.63775e-10
6.19819e-08
-7.89984e-10
6.25228e-08
-1.32609e-09
6.29743e-08
-1.87292e-09
6.33234e-08
-2.37916e-09
6.35686e-08
-2.8023e-09
6.37138e-08
-3.10689e-09
6.3768e-08
-3.28477e-09
6.37446e-08
-3.3423e-09
6.36584e-08
-3.28752e-09
6.35262e-08
-3.13306e-09
6.33659e-08
-2.89584e-09
6.31961e-08
-2.59402e-09
6.3034e-08
-2.24638e-09
6.2895e-08
-1.87207e-09
6.27915e-08
-1.48973e-09
6.27324e-08
-1.11631e-09
6.27218e-08
-7.66199e-10
6.27596e-08
-4.50635e-10
6.28412e-08
-1.77226e-10
6.29582e-08
4.97025e-11
6.31004e-08
2.29785e-10
6.32565e-08
3.66083e-10
4.6349e-10
6.34157e-08
7.83696e-08
-4.02623e-11
7.82672e-08
-7.59554e-11
7.81552e-08
-1.15609e-10
7.80336e-08
-1.58557e-10
7.7903e-08
-2.03729e-10
7.77646e-08
-2.49792e-10
7.76202e-08
-2.95346e-10
7.74717e-08
-3.38963e-10
7.73215e-08
-3.79508e-10
7.71721e-08
-4.1562e-10
7.70264e-08
-4.46436e-10
7.68878e-08
-4.71084e-10
7.67608e-08
-4.86895e-10
7.66513e-08
-4.95646e-10
7.65665e-08
-4.95224e-10
7.65175e-08
-4.7603e-10
7.6518e-08
-4.55791e-10
7.65826e-08
-4.49732e-10
7.67272e-08
-4.29993e-10
7.69767e-08
-4.41293e-10
7.73499e-08
-5.56944e-10
7.78524e-08
-8.66317e-10
7.83821e-08
-1.31972e-09
7.88609e-08
-1.80481e-09
7.92571e-08
-2.26918e-09
7.95581e-08
-2.68018e-09
7.97621e-08
-3.0063e-09
7.98728e-08
-3.21752e-09
7.99006e-08
-3.31262e-09
7.98603e-08
-3.30205e-09
7.97673e-08
-3.19444e-09
7.96378e-08
-3.00364e-09
7.94896e-08
-2.74761e-09
7.93395e-08
-2.44391e-09
7.92026e-08
-2.10945e-09
7.90912e-08
-1.76073e-09
7.90146e-08
-1.4131e-09
7.8978e-08
-1.07972e-09
7.89829e-08
-7.7108e-10
7.90271e-08
-4.94826e-10
7.91055e-08
-2.55594e-10
7.92101e-08
-5.49062e-11
7.9333e-08
1.06862e-10
7.94654e-08
2.33637e-10
3.29184e-10
7.95997e-08
9.8919e-08
5.78436e-11
9.88138e-08
2.92093e-11
9.87009e-08
-2.70895e-12
9.85799e-08
-3.75807e-11
9.84511e-08
-7.49056e-11
9.83152e-08
-1.13867e-10
9.81734e-08
-1.53556e-10
9.80274e-08
-1.92995e-10
9.78793e-08
-2.31427e-10
9.77315e-08
-2.67742e-10
9.75869e-08
-3.01877e-10
9.74484e-08
-3.32632e-10
9.73214e-08
-3.59806e-10
9.72109e-08
-3.85146e-10
9.71208e-08
-4.05163e-10
9.70699e-08
-4.25181e-10
9.70661e-08
-4.51903e-10
9.71084e-08
-4.92088e-10
9.72231e-08
-5.44666e-10
9.74413e-08
-6.59479e-10
9.7771e-08
-8.86677e-10
9.82122e-08
-1.30748e-09
9.86733e-08
-1.78086e-09
9.90835e-08
-2.21504e-09
9.94152e-08
-2.60083e-09
9.96588e-08
-2.92382e-09
9.98131e-08
-3.1606e-09
9.98818e-08
-3.2862e-09
9.98781e-08
-3.30886e-09
9.9818e-08
-3.24196e-09
9.97163e-08
-3.09276e-09
9.95889e-08
-2.8762e-09
9.94519e-08
-2.61065e-09
9.93201e-08
-2.31212e-09
9.92056e-08
-1.99498e-09
9.91178e-08
-1.67286e-09
9.90625e-08
-1.35786e-09
9.90426e-08
-1.05976e-09
9.90574e-08
-7.85914e-10
9.91039e-08
-5.41291e-10
9.91768e-08
-3.28524e-10
9.92701e-08
-1.48163e-10
9.93762e-08
7.24411e-13
9.94892e-08
1.20636e-10
2.15216e-10
9.96032e-08
1.23576e-07
1.57604e-10