/*--------------------------------*- C++ -*----------------------------------*\
| =========                 |                                                 |
| \\      /  F ield         | OpenFOAM: The Open Source CFD Toolbox           |
|  \\    /   O peration     | Version:  2312                                  |
|   \\  /    A nd           | Website:  www.openfoam.com                      |
|    \\/     M anipulation  |                                                 |
\*---------------------------------------------------------------------------*/
FoamFile
{
    version     2.0;
    format      ascii;
    arch        "LSB;label=32;scalar=64";
    class       volScalarField;
    location    "115.75";
    object      p;
}
// * * * * * * * * * * * * * * * * * * * * * * * * * * * * * * * * * * * * * //

dimensions      [0 2 -2 0 0 0 0];

internalField   nonuniform List<scalar> 
4800
(
-6.91896e-13
-1.67314e-06
-3.11878e-06
-4.38028e-06
-5.48682e-06
-6.4613e-06
-7.31967e-06
-8.08449e-06
-8.76833e-06
-9.37966e-06
-9.93023e-06
-1.0425e-05
-1.08572e-05
-1.14649e-05
-1.32533e-05
1.61597e-08
-1.65242e-06
-3.0944e-06
-4.35316e-06
-5.45848e-06
-6.43339e-06
-7.29383e-06
-8.06313e-06
-8.75385e-06
-9.37618e-06
-9.94735e-06
-1.04866e-05
-1.10106e-05
-1.1629e-05
-1.26035e-05
3.39236e-08
-1.62969e-06
-3.06788e-06
-4.32407e-06
-5.42795e-06
-6.40302e-06
-7.26454e-06
-8.03586e-06
-8.73189e-06
-9.36235e-06
-9.94544e-06
-1.05014e-05
-1.1041e-05
-1.15724e-05
-1.20716e-05
5.30809e-08
-1.6048e-06
-3.03851e-06
-4.29143e-06
-5.39321e-06
-6.36737e-06
-7.22987e-06
-8.00031e-06
-8.69799e-06
-9.33024e-06
-9.91108e-06
-1.04519e-05
-1.09459e-05
-1.13601e-05
-1.16197e-05
7.53542e-08
-1.57562e-06
-3.00373e-06
-4.25232e-06
-5.35088e-06
-6.32258e-06
-7.18447e-06
-7.95225e-06
-8.64535e-06
-9.2709e-06
-9.83493e-06
-1.03384e-05
-1.07625e-05
-1.10667e-05
-1.11924e-05
1.02378e-07
-1.54031e-06
-2.96147e-06
-4.20432e-06
-5.29809e-06
-6.26532e-06
-7.12293e-06
-7.88533e-06
-8.56719e-06
-9.17526e-06
-9.70869e-06
-1.01607e-05
-1.05101e-05
-1.07262e-05
-1.07792e-05
1.36331e-07
-1.49658e-06
-2.90911e-06
-4.14436e-06
-5.23108e-06
-6.19097e-06
-7.04003e-06
-7.79117e-06
-8.45488e-06
-9.03484e-06
-9.52681e-06
-9.92128e-06
-1.02023e-05
-1.03544e-05
-1.0371e-05
1.80479e-07
-1.44098e-06
-2.8428e-06
-4.06798e-06
-5.14456e-06
-6.09315e-06
-6.92848e-06
-7.66136e-06
-8.29894e-06
-8.84232e-06
-9.28688e-06
-9.62529e-06
-9.84998e-06
-9.95913e-06
-9.95919e-06
2.3923e-07
-1.36892e-06
-2.75734e-06
-3.96922e-06
-5.03163e-06
-5.96391e-06
-6.77936e-06
-7.48676e-06
-8.09111e-06
-8.59268e-06
-8.98908e-06
-9.27805e-06
-9.46017e-06
-9.54259e-06
-9.53745e-06
3.17703e-07
-1.2749e-06
-2.64644e-06
-3.84088e-06
-4.88409e-06
-5.7942e-06
-6.5832e-06
-7.25855e-06
-7.82458e-06
-8.28311e-06
-8.63505e-06
-8.88378e-06
-9.03604e-06
-9.10371e-06
-9.10036e-06
4.2033e-07
-1.1531e-06
-2.50334e-06
-3.67526e-06
-4.69342e-06
-5.5751e-06
-6.33149e-06
-6.96986e-06
-7.49546e-06
-7.91287e-06
-8.22693e-06
-8.44538e-06
-8.5786e-06
-8.6402e-06
-8.64327e-06
5.48027e-07
-9.9844e-07
-2.32193e-06
-3.46532e-06
-4.45204e-06
-5.29928e-06
-6.01828e-06
-6.61716e-06
-7.10314e-06
-7.48378e-06
-7.76771e-06
-7.96524e-06
-8.08819e-06
-8.15011e-06
-8.16281e-06
7.02711e-07
-8.09158e-07
-2.09976e-06
-3.20697e-06
-4.15525e-06
-4.96266e-06
-5.64131e-06
-6.20082e-06
-6.65055e-06
-7.00063e-06
-7.26195e-06
-7.44639e-06
-7.5659e-06
-7.63286e-06
-7.65757e-06
8.83765e-07
-5.88219e-07
-1.8363e-06
-2.89882e-06
-3.80229e-06
-4.56565e-06
-5.2027e-06
-5.72498e-06
-6.14352e-06
-6.4698e-06
-6.71569e-06
-6.89339e-06
-7.01439e-06
-7.08973e-06
-7.12821e-06
1.08232e-06
-3.3644e-07
-1.53346e-06
-2.54515e-06
-3.39822e-06
-4.11421e-06
-4.70923e-06
-5.19671e-06
-5.58914e-06
-5.89829e-06
-6.13535e-06
-6.31166e-06
-6.43791e-06
-6.52399e-06
-6.57751e-06
1.28711e-06
-6.05577e-08
-1.19735e-06
-2.15315e-06
-2.95265e-06
-3.6209e-06
-4.17495e-06
-4.62911e-06
-4.99803e-06
-5.29445e-06
-5.528e-06
-5.70755e-06
-5.84216e-06
-5.94074e-06
-6.01018e-06
1.48259e-06
2.21454e-07
-8.37874e-07
-1.73069e-06
-2.47774e-06
-3.103e-06
-3.62075e-06
-4.04326e-06
-4.38814e-06
-4.67191e-06
-4.90397e-06
-5.08969e-06
-5.2351e-06
-5.34754e-06
-5.43344e-06
1.65333e-06
4.88528e-07
-4.80895e-07
-1.29402e-06
-1.98756e-06
-2.57722e-06
-3.06186e-06
-3.45504e-06
-3.77776e-06
-4.04876e-06
-4.27855e-06
-4.47082e-06
-4.6282e-06
-4.75542e-06
-4.85804e-06
1.77783e-06
7.20736e-07
-1.57171e-07
-8.94043e-07
-1.51825e-06
-2.05337e-06
-2.50588e-06
-2.8789e-06
-3.18878e-06
-3.45056e-06
-3.67587e-06
-3.87165e-06
-4.03897e-06
-4.17976e-06
-4.29809e-06
1.83449e-06
8.98332e-07
1.12764e-07
-5.47892e-07
-1.1081e-06
-1.58963e-06
-1.9962e-06
-2.34104e-06
-2.63894e-06
-2.89623e-06
-3.11984e-06
-3.31663e-06
-3.48978e-06
-3.64079e-06
-3.77217e-06
1.82009e-06
9.98789e-07
3.05503e-07
-2.80484e-07
-7.80472e-07
-1.20991e-06
-1.57967e-06
-1.90119e-06
-2.1821e-06
-2.42843e-06
-2.6468e-06
-2.84148e-06
-3.01582e-06
-3.17281e-06
-3.31361e-06
1.75533e-06
1.0338e-06
4.19468e-07
-1.06182e-07
-5.57853e-07
-9.4861e-07
-1.29012e-06
-1.59101e-06
-1.85661e-06
-2.09456e-06
-2.30913e-06
-2.49891e-06
-2.66959e-06
-2.82635e-06
-2.97011e-06
1.6971e-06
1.05282e-06
4.98983e-07
2.06526e-08
-3.94326e-07
-7.57259e-07
-1.07755e-06
-1.3623e-06
-1.61692e-06
-1.84577e-06
-2.05228e-06
-2.23915e-06
-2.40942e-06
-2.56508e-06
-2.71215e-06
1.65736e-06
1.07212e-06
5.64389e-07
1.21588e-07
-2.66602e-07
-6.09331e-07
-9.14214e-07
-1.18735e-06
-1.43347e-06
-1.65647e-06
-1.85981e-06
-2.04586e-06
-2.21689e-06
-2.37499e-06
-2.52225e-06
1.64011e-06
1.10017e-06
6.27206e-07
2.1064e-07
-1.58034e-07
-4.86356e-07
-7.8072e-07
-1.04638e-06
-1.28754e-06
-1.5076e-06
-1.70933e-06
-1.89501e-06
-2.06679e-06
-2.2265e-06
-2.3759e-06
1.64397e-06
1.1387e-06
6.91759e-07
2.94406e-07
-6.03915e-08
-3.78978e-07
-6.66779e-07
-9.28272e-07
-1.16709e-06
-1.38617e-06
-1.58807e-06
-1.77493e-06
-1.94872e-06
-2.11106e-06
-2.26352e-06
1.66323e-06
1.18446e-06
7.56925e-07
3.73481e-07
2.82572e-08
-2.84126e-07
-5.68275e-07
-8.28009e-07
-1.0665e-06
-1.28642e-06
-1.49005e-06
-1.67939e-06
-1.85617e-06
-2.02192e-06
-2.17812e-06
1.69105e-06
1.23271e-06
8.19738e-07
4.46368e-07
1.07646e-07
-2.01011e-07
-4.83533e-07
-7.43215e-07
-9.8285e-07
-1.20482e-06
-1.41119e-06
-1.60376e-06
-1.78416e-06
-1.95383e-06
-2.11417e-06
1.72172e-06
1.27942e-06
8.77611e-07
5.11657e-07
1.77344e-07
-1.29243e-07
-4.11462e-07
-6.72161e-07
-9.1379e-07
-1.13847e-06
-1.34808e-06
-1.54427e-06
-1.72857e-06
-1.90234e-06
-2.06694e-06
1.75139e-06
1.32201e-06
9.28999e-07
5.68649e-07
2.37365e-07
-6.81878e-08
-3.5087e-07
-6.13141e-07
-8.57153e-07
-1.0848e-06
-1.2978e-06
-1.49768e-06
-1.68588e-06
-1.86368e-06
-2.03241e-06
1.77794e-06
1.35921e-06
9.73345e-07
6.17378e-07
2.88248e-07
-1.68608e-08
-3.0038e-07
-5.64432e-07
-8.10914e-07
-1.04153e-06
-1.25783e-06
-1.46124e-06
-1.65312e-06
-1.8347e-06
-2.00725e-06
1.80046e-06
1.39073e-06
1.01082e-06
6.5841e-07
3.30897e-07
2.59285e-08
-2.58554e-07
-5.24384e-07
-7.73234e-07
-1.00663e-06
-1.22599e-06
-1.43265e-06
-1.62788e-06
-1.81287e-06
-1.98885e-06
1.81886e-06
1.41685e-06
1.04203e-06
6.92593e-07
3.6637e-07
6.14098e-08
-2.24022e-07
-4.91509e-07
-7.42521e-07
-9.78428e-07
-1.20054e-06
-1.41008e-06
-1.60828e-06
-1.79627e-06
-1.97527e-06
1.83346e-06
1.43815e-06
1.06775e-06
7.2087e-07
3.95731e-07
9.0741e-08
-1.95556e-07
-4.64522e-07
-7.1745e-07
-9.55572e-07
-1.18009e-06
-1.39215e-06
-1.59293e-06
-1.78353e-06
-1.96512e-06
1.84477e-06
1.45534e-06
1.0888e-06
7.44157e-07
4.19966e-07
1.14953e-07
-1.72098e-07
-4.42353e-07
-6.96947e-07
-9.3699e-07
-1.16359e-06
-1.37783e-06
-1.58083e-06
-1.77365e-06
-1.95746e-06
1.85333e-06
1.46909e-06
1.10595e-06
7.63275e-07
4.39932e-07
1.34917e-07
-1.52775e-07
-4.24136e-07
-6.80162e-07
-9.21855e-07
-1.15024e-06
-1.36634e-06
-1.57123e-06
-1.76595e-06
-1.95164e-06
1.85968e-06
1.48e-06
1.11984e-06
7.78907e-07
4.56324e-07
1.51329e-07
-1.36899e-07
-4.09199e-07
-6.66446e-07
-9.09546e-07
-1.13945e-06
-1.35713e-06
-1.56362e-06
-1.75993e-06
-1.9472e-06
1.86428e-06
1.48864e-06
1.13112e-06
7.91726e-07
4.69831e-07
1.64874e-07
-1.23802e-07
-3.96901e-07
-6.5519e-07
-8.99491e-07
-1.13069e-06
-1.34971e-06
-1.55755e-06
-1.75521e-06
-1.94381e-06
1.86764e-06
1.49577e-06
1.14072e-06
8.02766e-07
4.8153e-07
1.7663e-07
-1.12437e-07
-3.8625e-07
-6.45477e-07
-8.90858e-07
-1.12322e-06
-1.34342e-06
-1.55247e-06
-1.75133e-06
-1.94112e-06
1.87016e-06
1.50195e-06
1.14929e-06
8.12754e-07
4.92178e-07
1.87355e-07
-1.02068e-07
-3.76549e-07
-6.36657e-07
-8.83055e-07
-1.11651e-06
-1.33791e-06
-1.54812e-06
-1.74811e-06
-1.93899e-06
-1.48057e-05
-1.2463e-05
-1.10157e-05
-1.00484e-05
-9.26543e-06
-8.64888e-06
-8.14792e-06
-7.72696e-06
-7.36243e-06
-7.03655e-06
-6.7362e-06
-6.45243e-06
-6.17956e-06
-5.91616e-06
-5.66649e-06
-5.44422e-06
-5.27299e-06
-5.1979e-06
-5.28105e-06
-5.60853e-06
-6.29845e-06
-7.44287e-06
-8.94449e-06
-1.04718e-05
-1.17752e-05
-1.27384e-05
-1.32995e-05
-1.34305e-05
-1.31192e-05
-1.23636e-05
-1.11705e-05
-9.55913e-06
-7.56263e-06
-5.22864e-06
-2.61771e-06
1.99877e-07
3.14734e-06
6.14386e-06
9.1041e-06
1.19345e-05
1.45188e-05
1.67123e-05
1.82027e-05
1.87644e-05
1.74454e-05
-1.30749e-05
-1.18829e-05
-1.07953e-05
-9.93763e-06
-9.20336e-06
-8.60279e-06
-8.10684e-06
-7.68696e-06
-7.32206e-06
-6.99566e-06
-6.69524e-06
-6.41141e-06
-6.13875e-06
-5.87606e-06
-5.62786e-06
-5.40799e-06
-5.24019e-06
-5.16954e-06
-5.25744e-06
-5.58859e-06
-6.28006e-06
-7.42124e-06
-8.91417e-06
-1.04321e-05
-1.1728e-05
-1.26862e-05
-1.32444e-05
-1.3374e-05
-1.30629e-05
-1.23092e-05
-1.11214e-05
-9.52003e-06
-7.54034e-06
-5.23223e-06
-2.65901e-06
1.05328e-07
2.97865e-06
5.8717e-06
8.68532e-06
1.13015e-05
1.35579e-05
1.52113e-05
1.57938e-05
1.46157e-05
1.06994e-05
-1.21624e-05
-1.14249e-05
-1.0564e-05
-9.8042e-06
-9.12402e-06
-8.54594e-06
-8.05851e-06
-7.6415e-06
-7.27721e-06
-6.95066e-06
-6.64981e-06
-6.36579e-06
-6.09339e-06
-5.83162e-06
-5.58527e-06
-5.36842e-06
-5.20487e-06
-5.13966e-06
-5.23336e-06
-5.569e-06
-6.26234e-06
-7.3995e-06
-8.88164e-06
-1.03877e-05
-1.16736e-05
-1.26247e-05
-1.31786e-05
-1.33062e-05
-1.29954e-05
-1.22452e-05
-1.10656e-05
-9.47945e-06
-7.52455e-06
-5.25391e-06
-2.73458e-06
-4.55161e-08
2.72411e-06
5.4746e-06
8.09106e-06
1.04318e-05
1.23017e-05
1.34163e-05
1.33325e-05
1.15212e-05
7.76859e-06
-1.15624e-05
-1.10394e-05
-1.03504e-05
-9.66985e-06
-9.04257e-06
-8.48869e-06
-8.01061e-06
-7.59646e-06
-7.2322e-06
-6.90477e-06
-6.60291e-06
-6.31826e-06
-6.04587e-06
-5.78497e-06
-5.54064e-06
-5.32717e-06
-5.16842e-06
-5.1093e-06
-5.20959e-06
-5.55024e-06
-6.24575e-06
-7.37843e-06
-8.84817e-06
-1.03401e-05
-1.16136e-05
-1.25549e-05
-1.31018e-05
-1.32249e-05
-1.29124e-05
-1.21648e-05
-1.09941e-05
-9.42634e-06
-7.50268e-06
-5.28024e-06
-2.83088e-06
-2.39591e-07
2.39652e-06
4.96713e-06
7.34371e-06
9.36965e-06
1.08433e-05
1.14999e-05
1.10194e-05
9.12388e-06
5.95399e-06
-1.10812e-05
-1.06867e-05
-1.01331e-05
-9.53817e-06
-8.96201e-06
-8.43301e-06
-7.96492e-06
-7.55313e-06
-7.18793e-06
-6.85856e-06
-6.5549e-06
-6.26908e-06
-5.99648e-06
-5.73658e-06
-5.49472e-06
-5.2854e-06
-5.1324e-06
-5.08054e-06
-5.1884e-06
-5.53465e-06
-6.23234e-06
-7.35936e-06
-8.81409e-06
-1.0289e-05
-1.15471e-05
-1.24761e-05
-1.30139e-05
-1.31312e-05
-1.2817e-05
-1.20734e-05
-1.09155e-05
-9.37273e-06
-7.49046e-06
-5.33053e-06
-2.97015e-06
-5.00567e-07
1.97372e-06
4.3341e-06
6.44458e-06
8.14693e-06
9.25595e-06
9.57162e-06
8.90181e-06
7.16243e-06
4.54667e-06
-1.06599e-05
-1.03531e-05
-9.90434e-06
-9.39492e-06
-8.87469e-06
-8.37531e-06
-7.92082e-06
-7.51187e-06
-7.1454e-06
-6.8134e-06
-6.50715e-06
-6.21958e-06
-5.94657e-06
-5.68786e-06
-5.44909e-06
-5.24491e-06
-5.09892e-06
-5.05567e-06
-5.17233e-06
-5.5248e-06
-6.22442e-06
-7.34401e-06
-8.78017e-06
-1.02342e-05
-1.14733e-05
-1.2387e-05
-1.29134e-05
-1.3024e-05
-1.27088e-05
-1.19723e-05
-1.08328e-05
-9.32395e-06
-7.49581e-06
-5.41524e-06
-3.16475e-06
-8.41132e-07
1.4458e-06
3.57367e-06
5.40756e-06
6.80183e-06
7.60669e-06
7.6883e-06
6.96279e-06
5.45645e-06
3.36952e-06
-1.02617e-05
-1.00206e-05
-9.6618e-06
-9.22949e-06
-8.76496e-06
-8.30777e-06
-7.8715e-06
-7.46946e-06
-7.10388e-06
-6.76991e-06
-6.46104e-06
-6.17158e-06
-5.8982e-06
-5.6411e-06
-5.40622e-06
-5.20837e-06
-5.07083e-06
-5.0377e-06
-5.16451e-06
-5.52369e-06
-6.22475e-06
-7.33452e-06
-8.74759e-06
-1.01761e-05
-1.13917e-05
-1.22861e-05
-1.27986e-05
-1.29015e-05
-1.25865e-05
-1.18608e-05
-1.07467e-05
-9.28252e-06
-7.52317e-06
-5.54042e-06
-3.42136e-06
-1.2665e-06
8.12497e-07
2.69536e-06
4.25702e-06
5.37456e-06
5.93951e-06
5.8779e-06
5.17616e-06
3.9081e-06
2.2486e-06
-9.86532e-06
-9.67497e-06
-9.39002e-06
-9.03162e-06
-8.62967e-06
-8.21522e-06
-7.80676e-06
-7.41941e-06
-7.05952e-06
-6.72638e-06
-6.41651e-06
-6.12616e-06
-5.85327e-06
-5.59877e-06
-5.36905e-06
-5.17913e-06
-5.05179e-06
-5.03052e-06
-5.16891e-06
-5.53513e-06
-6.23671e-06
-7.33347e-06
-8.71773e-06
-1.0115e-05
-1.13015e-05
-1.21721e-05
-1.26675e-05
-1.27618e-05
-1.24486e-05
-1.17387e-05
-1.06588e-05
-9.25182e-06
-7.57765e-06
-5.71216e-06
-3.74542e-06
-1.77884e-06
7.84698e-08
1.71445e-06
3.02068e-06
3.9018e-06
4.28805e-06
4.15015e-06
3.51233e-06
2.45938e-06
1.13065e-06
-9.46017e-06
-9.31019e-06
-9.08521e-06
-8.79382e-06
-8.4542e-06
-8.08873e-06
-7.71644e-06
-7.35228e-06
-7.00516e-06
-6.67822e-06
-6.37126e-06
-6.0829e-06
-5.8128e-06
-5.56303e-06
-5.3406e-06
-5.16088e-06
-5.04597e-06
-5.03859e-06
-5.19012e-06
-5.5635e-06
-6.26405e-06
-7.34362e-06
-8.69188e-06
-1.0051e-05
-1.12018e-05
-1.20432e-05
-1.25183e-05
-1.26031e-05
-1.22944e-05
-1.16068e-05
-1.05716e-05
-9.23635e-06
-7.66504e-06
-5.93626e-06
-4.14066e-06
-2.37701e-06
-7.47269e-07
6.49679e-07
1.7257e-06
2.41258e-06
2.67165e-06
2.50231e-06
1.9438e-06
1.075e-06
2.75954e-09
-9.03994e-06
-8.92329e-06
-8.74732e-06
-8.51422e-06
-8.23357e-06
-7.92044e-06
-7.59064e-06
-7.2578e-06
-6.93188e-06
-6.61865e-06
-6.32082e-06
-6.0395e-06
-5.7764e-06
-5.53501e-06
-5.32323e-06
-5.15693e-06
-5.05739e-06
-5.06633e-06
-5.23267e-06
-5.61312e-06
-6.31044e-06
-7.36723e-06
-8.6707e-06
-9.98396e-06
-1.10911e-05
-1.18974e-05
-1.23486e-05
-1.24239e-05
-1.21238e-05
-1.14668e-05
-1.04887e-05
-9.24115e-06
-7.79088e-06
-6.21707e-06
-4.60791e-06
-3.05586e-06
-1.65184e-06
-4.78579e-07
3.96417e-07
9.27891e-07
1.09818e-06
9.25086e-07
4.47344e-07
-2.67761e-07
-1.13962e-06
-8.59993e-06
-8.51207e-06
-8.37701e-06
-8.19411e-06
-7.96758e-06
-7.70666e-06
-7.423e-06
-7.12805e-06
-6.83147e-06
-6.54032e-06
-6.25943e-06
-5.99208e-06
-5.74205e-06
-5.51441e-06
-5.31807e-06
-5.16952e-06
-5.08906e-06
-5.11718e-06
-5.30003e-06
-5.68728e-06
-6.37858e-06
-7.40497e-06
-8.6532e-06
-9.913e-06
-1.09671e-05
-1.1732e-05
-1.21562e-05
-1.22233e-05
-1.19373e-05
-1.13211e-05
-1.04142e-05
-9.27131e-06
-7.95969e-06
-6.55651e-06
-5.14442e-06
-3.80633e-06
-2.61966e-06
-1.65026e-06
-9.46917e-07
-5.36902e-07
-4.23626e-07
-5.90963e-07
-9.95028e-07
-1.58379e-06
-2.29778e-06
-8.13688e-06
-8.07497e-06
-7.9752e-06
-7.83589e-06
-7.65827e-06
-7.44744e-06
-7.21131e-06
-6.95877e-06
-6.6983e-06
-6.43719e-06
-6.18146e-06
-5.93604e-06
-5.70649e-06
-5.49932e-06
-5.32446e-06
-5.19895e-06
-5.142e-06
-5.19253e-06
-5.39329e-06
-5.78682e-06
-6.46913e-06
-7.45417e-06
-8.63673e-06
-9.83536e-06
-1.08342e-05
-1.15446e-05
-1.19393e-05
-1.20009e-05
-1.17366e-05
-1.11731e-05
-1.03528e-05
-9.33116e-06
-8.17386e-06
-6.95318e-06
-5.7434e-06
-4.61578e-06
-3.63342e-06
-2.84663e-06
-2.28932e-06
-1.97696e-06
-1.90646e-06
-2.05812e-06
-2.3972e-06
-2.88324e-06
-3.47188e-06
-7.64942e-06
-7.61174e-06
-7.54341e-06
-7.44263e-06
-7.30915e-06
-7.14549e-06
-6.95664e-06
-6.74909e-06
-6.52978e-06
-6.30548e-06
-6.08265e-06
-5.86717e-06
-5.66594e-06
-5.48661e-06
-5.33993e-06
-5.24318e-06
-5.21447e-06
-5.29065e-06
-5.51004e-06
-5.90933e-06
-6.57788e-06
-7.51109e-06
-8.62024e-06
-9.74154e-06
-1.06733e-05
-1.1332e-05
-1.16967e-05
-1.17574e-05
-1.15244e-05
-1.10269e-05
-1.03084e-05
-9.42315e-06
-8.43251e-06
-7.40134e-06
-6.39364e-06
-5.46814e-06
-4.67439e-06
-4.04957e-06
-3.61654e-06
-3.38328e-06
-3.34379e-06
-3.48032e-06
-3.7668e-06
-4.17075e-06
-4.6599e-06
-7.13828e-06
-7.12379e-06
-7.08431e-06
-7.0183e-06
-6.92496e-06
-6.80536e-06
-6.66251e-06
-6.50094e-06
-6.32608e-06
-6.14382e-06
-5.96045e-06
-5.78219e-06
-5.61673e-06
-5.47236e-06
-5.36046e-06
-5.29784e-06
-5.30176e-06
-5.40617e-06
-5.64367e-06
-6.04868e-06
-6.69452e-06
-7.57327e-06
-8.6043e-06
-9.62118e-06
-1.04783e-05
-1.10894e-05
-1.1428e-05
-1.14948e-05
-1.13041e-05
-1.08862e-05
-1.02835e-05
-9.54662e-06
-8.73031e-06
-7.89023e-06
-7.07926e-06
-6.34405e-06
-5.72228e-06
-5.24081e-06
-4.91492e-06
-4.74855e-06
-4.73542e-06
-4.86115e-06
-5.10558e-06
-5.44582e-06
-5.85707e-06
-6.60619e-06
-6.61428e-06
-6.6019e-06
-6.56791e-06
-6.51148e-06
-6.43301e-06
-6.3343e-06
-6.21849e-06
-6.08975e-06
-5.95298e-06
-5.81393e-06
-5.67874e-06
-5.55523e-06
-5.45199e-06
-5.3804e-06
-5.35643e-06
-5.39612e-06
-5.52958e-06
-5.785e-06
-6.19152e-06
-6.80716e-06
-7.63696e-06
-8.56669e-06
-9.4715e-06
-1.0249e-05
-1.08142e-05
-1.11342e-05
-1.12164e-05
-1.10797e-05
-1.07539e-05
-1.0278e-05
-9.69675e-06
-9.05688e-06
-8.40403e-06
-7.78018e-06
-7.22121e-06
-6.75511e-06
-6.40116e-06
-6.16974e-06
-6.06292e-06
-6.07552e-06
-6.19667e-06
-6.41166e-06
-6.70375e-06
-7.05535e-06
-6.05782e-06
-6.08817e-06
-6.10171e-06
-6.0977e-06
-6.07557e-06
-6.03552e-06
-5.97875e-06
-5.90751e-06
-5.82504e-06
-5.73536e-06
-5.64347e-06
-5.55513e-06
-5.47782e-06
-5.41993e-06
-5.39226e-06
-5.40947e-06
-5.48651e-06
-5.64821e-06
-5.91958e-06
-6.32164e-06
-6.90115e-06
-7.66879e-06
-8.4931e-06
-9.29095e-06
-9.99087e-06
-1.05102e-05
-1.0819e-05
-1.0927e-05
-1.08552e-05
-1.06309e-05
-1.0288e-05
-9.8642e-06
-9.39719e-06
-8.92284e-06
-8.47334e-06
-8.07552e-06
-7.74993e-06
-7.51048e-06
-7.36454e-06
-7.31359e-06
-7.35398e-06
-7.47815e-06
-7.67578e-06
-7.93515e-06
-8.24374e-06
-5.50015e-06
-5.55245e-06
-5.591e-06
-5.61536e-06
-5.62527e-06
-5.62103e-06
-5.60361e-06
-5.57477e-06
-5.53709e-06
-5.49392e-06
-5.44971e-06
-5.40961e-06
-5.38022e-06
-5.36942e-06
-5.38669e-06
-5.44507e-06
-5.55773e-06
-5.74472e-06
-6.02677e-06
-6.42026e-06
-6.9575e-06
-7.64638e-06
-8.37744e-06
-9.08053e-06
-9.70089e-06
-1.01774e-05
-1.04843e-05
-1.06291e-05
-1.0631e-05
-1.05139e-05
-1.03054e-05
-1.00352e-05
-9.73258e-06
-9.42447e-06
-9.13482e-06
-8.88316e-06
-8.68455e-06
-8.54923e-06
-8.48277e-06
-8.48662e-06
-8.55871e-06
-8.69424e-06
-8.88643e-06
-9.12735e-06
-9.40836e-06
-4.94352e-06
-5.01696e-06
-5.07923e-06
-5.13012e-06
-5.16964e-06
-5.19828e-06
-5.21702e-06
-5.22741e-06
-5.23163e-06
-5.23251e-06
-5.23378e-06
-5.23995e-06
-5.2567e-06
-5.29096e-06
-5.35083e-06
-5.44709e-06
-5.59127e-06
-5.79816e-06
-6.08479e-06
-6.46328e-06
-6.95306e-06
-7.56636e-06
-8.20941e-06
-8.82624e-06
-9.37351e-06
-9.8147e-06
-1.01295e-05
-1.03205e-05
-1.04022e-05
-1.03937e-05
-1.03161e-05
-1.01915e-05
-1.00416e-05
-9.88566e-06
-9.74139e-06
-9.62228e-06
-9.53946e-06
-9.50072e-06
-9.51047e-06
-9.57028e-06
-9.67942e-06
-9.83521e-06
-1.00336e-05
-1.02694e-05
-1.05371e-05
-4.40108e-06
-4.4939e-06
-4.57763e-06
-4.65229e-06
-4.71814e-06
-4.77585e-06
-4.82649e-06
-4.87152e-06
-4.91287e-06
-4.95292e-06
-4.99478e-06
-5.04229e-06
-5.10017e-06
-5.17419e-06
-5.27107e-06
-5.39923e-06
-5.56786e-06
-5.7873e-06
-6.07034e-06
-6.42616e-06
-6.86569e-06
-7.39735e-06
-7.97294e-06
-8.51683e-06
-9.00579e-06
-9.42257e-06
-9.75257e-06
-9.99437e-06
-1.01568e-05
-1.0253e-05
-1.02982e-05
-1.03076e-05
-1.02967e-05
-1.02787e-05
-1.02658e-05
-1.02679e-05
-1.02924e-05
-1.03456e-05
-1.04311e-05
-1.05504e-05
-1.07039e-05
-1.08902e-05
-1.11073e-05
-1.13522e-05
-1.16213e-05
-3.88992e-06
-3.99888e-06
-4.10036e-06
-4.19465e-06
-4.28221e-06
-4.36384e-06
-4.44071e-06
-4.51423e-06
-4.58608e-06
-4.65829e-06
-4.73344e-06
-4.81466e-06
-4.90577e-06
-5.01129e-06
-5.13654e-06
-5.28773e-06
-5.47192e-06
-5.69708e-06
-5.97139e-06
-6.301e-06
-6.69401e-06
-7.1563e-06
-7.66616e-06
-8.15333e-06
-8.60147e-06
-9.00341e-06
-9.35081e-06
-9.64115e-06
-9.8784e-06
-1.00701e-05
-1.02255e-05
-1.03544e-05
-1.04667e-05
-1.05717e-05
-1.06771e-05
-1.07905e-05
-1.09167e-05
-1.10594e-05
-1.12217e-05
-1.14056e-05
-1.16116e-05
-1.18395e-05
-1.20885e-05
-1.2357e-05
-1.26429e-05
-3.44227e-06
-3.56278e-06
-3.67666e-06
-3.78485e-06
-3.88793e-06
-3.98665e-06
-4.08217e-06
-4.17584e-06
-4.26917e-06
-4.3639e-06
-4.46215e-06
-4.56647e-06
-4.67992e-06
-4.80603e-06
-4.94885e-06
-5.11312e-06
-5.30405e-06
-5.52748e-06
-5.79078e-06
-6.10029e-06
-6.46097e-06
-6.87859e-06
-7.33295e-06
-7.77809e-06
-8.20058e-06
-8.59799e-06
-8.96524e-06
-9.29902e-06
-9.59968e-06
-9.87044e-06
-1.01163e-05
-1.03431e-05
-1.05571e-05
-1.0764e-05
-1.09689e-05
-1.1176e-05
-1.1389e-05
-1.16108e-05
-1.18436e-05
-1.2089e-05
-1.2348e-05
-1.26208e-05
-1.29073e-05
-1.32068e-05
-1.35183e-05
-3.10511e-06
-3.23218e-06
-3.3526e-06
-3.46825e-06
-3.57985e-06
-3.68813e-06
-3.79412e-06
-3.8991e-06
-4.00446e-06
-4.11175e-06
-4.22279e-06
-4.33974e-06
-4.46508e-06
-4.60167e-06
-4.75286e-06
-4.92232e-06
-5.11444e-06
-5.33431e-06
-5.58624e-06
-5.87659e-06
-6.21531e-06
-6.60555e-06
-7.03046e-06
-7.45155e-06
-7.8612e-06
-8.25879e-06
-8.64087e-06
-9.00424e-06
-9.34758e-06
-9.67184e-06
-9.97966e-06
-1.02746e-05
-1.05603e-05
-1.08403e-05
-1.11178e-05
-1.13955e-05
-1.1676e-05
-1.19612e-05
-1.22527e-05
-1.25518e-05
-1.28592e-05
-1.31755e-05
-1.35007e-05
-1.38344e-05
-1.41762e-05
-2.8517e-06
-2.98229e-06
-3.10671e-06
-3.2269e-06
-3.3437e-06
-3.45786e-06
-3.57038e-06
-3.68245e-06
-3.79535e-06
-3.91052e-06
-4.02959e-06
-4.15448e-06
-4.28735e-06
-4.43069e-06
-4.58736e-06
-4.76055e-06
-4.954e-06
-5.17199e-06
-5.41945e-06
-5.70276e-06
-6.02863e-06
-6.39772e-06
-6.79802e-06
-7.20283e-06
-7.60471e-06
-8.00223e-06
-8.3925e-06
-8.77279e-06
-9.14168e-06
-9.49938e-06
-9.84731e-06
-1.01874e-05
-1.05219e-05
-1.08527e-05
-1.11818e-05
-1.15109e-05
-1.18417e-05
-1.21753e-05
-1.25128e-05
-1.28553e-05
-1.32031e-05
-1.35566e-05
-1.3916e-05
-1.42809e-05
-1.46511e-05
-2.6616e-06
-2.79487e-06
-2.92294e-06
-3.04682e-06
-3.1675e-06
-3.28594e-06
-3.40318e-06
-3.52033e-06
-3.63863e-06
-3.75945e-06
-3.88434e-06
-4.01504e-06
-4.15355e-06
-4.3021e-06
-4.4632e-06
-4.63978e-06
-4.83519e-06
-5.05326e-06
-5.29827e-06
-5.57502e-06
-5.88791e-06
-6.24314e-06
-6.62831e-06
-7.02228e-06
-7.41797e-06
-7.81366e-06
-8.20705e-06
-8.59621e-06
-8.98012e-06
-9.35872e-06
-9.73258e-06
-1.01027e-05
-1.04701e-05
-1.08359e-05
-1.12013e-05
-1.15672e-05
-1.19346e-05
-1.23042e-05
-1.26768e-05
-1.30528e-05
-1.34325e-05
-1.38161e-05
-1.42036e-05
-1.45947e-05
-1.49892e-05
-2.51765e-06
-2.65371e-06
-2.78492e-06
-2.91216e-06
-3.03647e-06
-3.15885e-06
-3.28033e-06
-3.40202e-06
-3.52512e-06
-3.65096e-06
-3.78102e-06
-3.91694e-06
-4.06056e-06
-4.21392e-06
-4.37935e-06
-4.55945e-06
-4.75715e-06
-4.97575e-06
-5.21904e-06
-5.49136e-06
-5.79704e-06
-6.14152e-06
-6.51539e-06
-6.9002e-06
-7.28928e-06
-7.68116e-06
-8.0742e-06
-8.46712e-06
-8.85915e-06
-9.25003e-06
-9.63988e-06
-1.0029e-05
-1.0418e-05
-1.08073e-05
-1.11974e-05
-1.1589e-05
-1.19825e-05
-1.23783e-05
-1.27768e-05
-1.31781e-05
-1.35823e-05
-1.39894e-05
-1.43993e-05
-1.48116e-05
-1.52262e-05
-2.40848e-06
-2.54785e-06
-2.68257e-06
-2.81355e-06
-2.94179e-06
-3.06831e-06
-3.19415e-06
-3.32039e-06
-3.44823e-06
-3.57897e-06
-3.71403e-06
-3.85497e-06
-4.00351e-06
-4.16155e-06
-4.33119e-06
-4.51479e-06
-4.71493e-06
-4.93455e-06
-5.17709e-06
-5.44696e-06
-5.74735e-06
-6.08331e-06
-6.44724e-06
-6.82302e-06
-7.20483e-06
-7.59153e-06
-7.98194e-06
-8.37514e-06
-8.77051e-06
-9.16772e-06
-9.56661e-06
-9.96722e-06
-1.03697e-05
-1.07741e-05
-1.11808e-05
-1.159e-05
-1.20018e-05
-1.24163e-05
-1.28335e-05
-1.32536e-05
-1.36763e-05
-1.41015e-05
-1.45288e-05
-1.4958e-05
-1.53886e-05
-2.32694e-06
-2.47018e-06
-2.60886e-06
-2.7439e-06
-2.87633e-06
-3.00716e-06
-3.13744e-06
-3.26825e-06
-3.40078e-06
-3.5363e-06
-3.6762e-06
-3.82196e-06
-3.97519e-06
-4.13768e-06
-4.31134e-06
-4.49834e-06
-4.70105e-06
-4.92197e-06
-5.1635e-06
-5.4321e-06
-5.72797e-06
-6.05645e-06
-6.41097e-06
-6.77781e-06
-7.15205e-06
-7.53277e-06
-7.91904e-06
-8.31019e-06
-8.70571e-06
-9.10524e-06
-9.50854e-06
-9.91546e-06
-1.03259e-05
-1.07399e-05
-1.11573e-05
-1.15783e-05
-1.20026e-05
-1.24302e-05
-1.2861e-05
-1.32948e-05
-1.37313e-05
-1.41702e-05
-1.46111e-05
-1.50534e-05
-1.54966e-05
-2.2672e-06
-2.4146e-06
-2.55743e-06
-2.69668e-06
-2.83336e-06
-2.96851e-06
-3.10315e-06
-3.23841e-06
-3.37545e-06
-3.51552e-06
-3.65997e-06
-3.81022e-06
-3.9678e-06
-4.13437e-06
-4.31175e-06
-4.50189e-06
-4.70703e-06
-4.92958e-06
-5.17335e-06
-5.43726e-06
-5.72863e-06
-6.05008e-06
-6.39567e-06
-6.75387e-06
-7.12052e-06
-7.49481e-06
-7.87603e-06
-8.26367e-06
-8.65734e-06
-9.05668e-06
-9.46141e-06
-9.87129e-06
-1.02861e-05
-1.07057e-05
-1.11299e-05
-1.15586e-05
-1.19914e-05
-1.24282e-05
-1.28688e-05
-1.33126e-05
-1.37594e-05
-1.42087e-05
-1.466e-05
-1.51126e-05
-1.5566e-05
-2.22423e-06
-2.37581e-06
-2.52277e-06
-2.66614e-06
-2.80694e-06
-2.9462e-06
-3.08498e-06
-3.22439e-06
-3.3656e-06
-3.50984e-06
-3.65842e-06
-3.8127e-06
-3.97415e-06
-4.14434e-06
-4.32494e-06
-4.51778e-06
-4.72483e-06
-4.94808e-06
-5.19087e-06
-5.45348e-06
-5.74083e-06
-6.05565e-06
-6.39284e-06
-6.74281e-06
-7.10202e-06
-7.46977e-06
-7.84552e-06
-8.22891e-06
-8.61962e-06
-9.01731e-06
-9.42167e-06
-9.83244e-06
-1.02493e-05
-1.06721e-05
-1.11004e-05
-1.15341e-05
-1.19728e-05
-1.24161e-05
-1.28636e-05
-1.33149e-05
-1.37695e-05
-1.42269e-05
-1.46863e-05
-1.51472e-05
-1.56089e-05
-2.19379e-06
-2.34936e-06
-2.50023e-06
-2.64745e-06
-2.79205e-06
-2.93508e-06
-3.0776e-06
-3.22073e-06
-3.36566e-06
-3.51358e-06
-3.66578e-06
-3.82357e-06
-3.98836e-06
-4.16162e-06
-4.34492e-06
-4.53993e-06
-4.74852e-06
-4.97291e-06
-5.21438e-06
-5.47499e-06
-5.7584e-06
-6.06697e-06
-6.39633e-06
-6.73857e-06
-7.0907e-06
-7.45208e-06
-7.82236e-06
-8.20126e-06
-8.58851e-06
-8.98381e-06
-9.38683e-06
-9.79729e-06
-1.02149e-05
-1.06393e-05
-1.10701e-05
-1.15071e-05
-1.19498e-05
-1.23978e-05
-1.28505e-05
-1.33075e-05
-1.37682e-05
-1.4232e-05
-1.46981e-05
-1.51659e-05
-1.56345e-05
-2.17241e-06
-2.33162e-06
-2.48603e-06
-2.63671e-06
-2.7847e-06
-2.93105e-06
-3.07685e-06
-3.22324e-06
-3.37138e-06
-3.52247e-06
-3.67775e-06
-3.83852e-06
-4.00611e-06
-4.18191e-06
-4.36741e-06
-4.56413e-06
-4.77373e-06
-4.99823e-06
-5.23933e-06
-5.49764e-06
-5.77727e-06
-6.08002e-06
-6.40215e-06
-6.73727e-06
-7.08278e-06
-7.43819e-06
-7.80325e-06
-8.17775e-06
-8.56146e-06
-8.95408e-06
-9.35533e-06
-9.76488e-06
-1.01824e-05
-1.06076e-05
-1.104e-05
-1.14792e-05
-1.19248e-05
-1.23763e-05
-1.28331e-05
-1.32947e-05
-1.37603e-05
-1.42294e-05
-1.47011e-05
-1.51747e-05
-1.56493e-05
-2.15738e-06
-2.31982e-06
-2.47735e-06
-2.63105e-06
-2.78196e-06
-2.93117e-06
-3.07978e-06
-3.22894e-06
-3.3798e-06
-3.53356e-06
-3.69143e-06
-3.85468e-06
-4.02458e-06
-4.20247e-06
-4.38973e-06
-4.58777e-06
-4.79796e-06
-5.02291e-06
-5.26295e-06
-5.51897e-06
-5.79508e-06
-6.09247e-06
-6.40803e-06
-6.73665e-06
-7.07611e-06
-7.42604e-06
-7.78627e-06
-8.15665e-06
-8.53695e-06
-8.92692e-06
-9.32626e-06
-9.73466e-06
-1.01518e-05
-1.05772e-05
-1.10106e-05
-1.14515e-05
-1.18993e-05
-1.23536e-05
-1.28137e-05
-1.3279e-05
-1.37489e-05
-1.42225e-05
-1.4699e-05
-1.51777e-05
-1.56576e-05
-2.14673e-06
-2.31197e-06
-2.47219e-06
-2.62846e-06
-2.78186e-06
-2.93348e-06
-3.08446e-06
-3.23593e-06
-3.38907e-06
-3.54504e-06
-3.70507e-06
-3.87036e-06
-4.04216e-06
-4.22174e-06
-4.4104e-06
-4.60944e-06
-4.82024e-06
-5.04533e-06
-5.28379e-06
-5.53789e-06
-5.81074e-06
-6.10321e-06
-6.41282e-06
-6.73557e-06
-7.06958e-06
-7.41455e-06
-7.77041e-06
-8.13702e-06
-8.51418e-06
-8.90165e-06
-9.29915e-06
-9.70637e-06
-1.01229e-05
-1.05485e-05
-1.09826e-05
-1.14247e-05
-1.18744e-05
-1.2331e-05
-1.27939e-05
-1.32625e-05
-1.37359e-05
-1.42135e-05
-1.46943e-05
-1.51775e-05
-1.56622e-05
-2.1391e-06
-2.30674e-06
-2.46922e-06
-2.62766e-06
-2.78315e-06
-2.93679e-06
-3.08973e-06
-3.24312e-06
-3.39814e-06
-3.55594e-06
-3.71773e-06
-3.8847e-06
-4.05804e-06
-4.239e-06
-4.42877e-06
-4.62861e-06
-4.84009e-06
-5.06445e-06
-5.3017e-06
-5.55412e-06
-5.82389e-06
-6.11187e-06
-6.41612e-06
-6.73361e-06
-7.06272e-06
-7.40327e-06
-7.75521e-06
-8.11844e-06
-8.49276e-06
-8.87796e-06
-9.27377e-06
-9.67986e-06
-1.00959e-05
-1.05214e-05
-1.09561e-05
-1.13993e-05
-1.18505e-05
-1.23091e-05
-1.27745e-05
-1.32459e-05
-1.37226e-05
-1.42038e-05
-1.46885e-05
-1.51758e-05
-1.56647e-05
-2.13358e-06
-2.30324e-06
-2.46763e-06
-2.62788e-06
-2.78509e-06
-2.9404e-06
-3.09496e-06
-3.24994e-06
-3.40649e-06
-3.5658e-06
-3.72904e-06
-3.89737e-06
-4.07198e-06
-4.25403e-06
-4.44469e-06
-4.64516e-06
-4.85697e-06
-5.08068e-06
-5.31686e-06
-5.56764e-06
-5.83462e-06
-6.11849e-06
-6.41793e-06
-6.7307e-06
-7.05545e-06
-7.39206e-06
-7.74053e-06
-8.10074e-06
-8.47254e-06
-8.85572e-06
-9.25001e-06
-9.6551e-06
-1.00706e-05
-1.04962e-05
-1.09313e-05
-1.13754e-05
-1.1828e-05
-1.22885e-05
-1.27561e-05
-1.32301e-05
-1.37097e-05
-1.41941e-05
-1.46822e-05
-1.51733e-05
-1.56661e-05
-2.12956e-06
-2.30091e-06
-2.46689e-06
-2.62864e-06
-2.78727e-06
-2.94395e-06
-3.09985e-06
-3.25612e-06
-3.41394e-06
-3.57448e-06
-3.7389e-06
-3.90835e-06
-4.08398e-06
-4.26691e-06
-4.45827e-06
-4.65919e-06
-4.87105e-06
-5.09438e-06
-5.3295e-06
-5.5787e-06
-5.84315e-06
-6.12331e-06
-6.41843e-06
-6.727e-06
-7.04788e-06
-7.381e-06
-7.72638e-06
-8.08393e-06
-8.45351e-06
-8.8349e-06
-9.22787e-06
-9.63208e-06
-1.00472e-05
-1.04727e-05
-1.09083e-05
-1.13533e-05
-1.18072e-05
-1.22692e-05
-1.27388e-05
-1.32152e-05
-1.36975e-05
-1.41847e-05
-1.46761e-05
-1.51705e-05
-1.56669e-05
-2.12664e-06
-2.29941e-06
-2.4667e-06
-2.62967e-06
-2.78948e-06
-2.94728e-06
-3.10426e-06
-3.26159e-06
-3.42044e-06
-3.58198e-06
-3.74736e-06
-3.91772e-06
-4.09417e-06
-4.27781e-06
-4.46971e-06
-4.67096e-06
-4.88279e-06
-5.10567e-06
-5.33996e-06
-5.58761e-06
-5.84978e-06
-6.12665e-06
-6.41791e-06
-6.72275e-06
-7.0402e-06
-7.37025e-06
-7.71292e-06
-8.06814e-06
-8.43576e-06
-8.8156e-06
-9.20741e-06
-9.61087e-06
-1.00256e-05
-1.04512e-05
-1.08872e-05
-1.1333e-05
-1.1788e-05
-1.22516e-05
-1.2723e-05
-1.32014e-05
-1.36861e-05
-1.4176e-05
-1.46703e-05
-1.51677e-05
-1.56674e-05
-2.12453e-06
-2.29849e-06
-2.46687e-06
-2.63087e-06
-2.79163e-06
-2.95036e-06
-3.10822e-06
-3.26641e-06
-3.4261e-06