/*--------------------------------*- C++ -*----------------------------------*\
| =========                 |                                                 |
| \\      /  F ield         | OpenFOAM: The Open Source CFD Toolbox           |
|  \\    /   O peration     | Version:  2312                                  |
|   \\  /    A nd           | Website:  www.openfoam.com                      |
|    \\/     M anipulation  |                                                 |
\*---------------------------------------------------------------------------*/
FoamFile
{
    version     2.0;
    format      ascii;
    arch        "LSB;label=32;scalar=64";
    class       volVectorField;
    location    "97.5";
    object      U;
}
// * * * * * * * * * * * * * * * * * * * * * * * * * * * * * * * * * * * * * //

dimensions      [0 1 -1 0 0 0 0];

internalField   nonuniform List<vector> 
4800
(
(0.000499413 3.30219e-07 -3.29963e-26)
(0.000491251 3.98039e-07 -2.34931e-25)
(0.000485947 4.42553e-07 3.00701e-25)
(0.000482623 4.59336e-07 1.40747e-25)
(0.000480808 4.5654e-07 2.10508e-24)
(0.000480197 4.35584e-07 -5.02494e-24)
(0.000480762 3.75864e-07 4.72515e-24)
(0.000482341 3.05882e-07 -6.90374e-24)
(0.000484984 1.49811e-07 2.20655e-24)
(0.000488905 -1.55551e-07 7.60088e-24)
(0.000494565 -7.36417e-07 -2.34102e-24)
(0.000503283 -2.25703e-06 -1.95103e-25)
(0.000522546 -7.77333e-06 -2.87132e-24)
(0.000571511 -3.02208e-05 1.31837e-24)
(0.000653628 -0.000100018 -1.043e-24)
(0.00154191 1.69473e-06 -1.05114e-25)
(0.00151636 1.3094e-06 1.31085e-25)
(0.00149935 9.95159e-07 -1.23541e-24)
(0.0014883 6.93368e-07 9.17604e-25)
(0.00148179 3.81437e-07 3.01985e-24)
(0.0014789 2.50464e-08 -4.81496e-24)
(0.00147945 -4.38177e-07 -1.3944e-24)
(0.00148284 -1.02042e-06 -3.50401e-25)
(0.00148932 -1.90586e-06 1.1498e-23)
(0.00149945 -3.39734e-06 -8.51527e-24)
(0.00151445 -6.13327e-06 9.27362e-25)
(0.00153719 -1.2429e-05 1.41841e-24)
(0.00157685 -3.03831e-05 -2.09552e-24)
(0.00164501 -8.53443e-05 -6.15917e-25)
(0.00171932 -0.000211421 2.71941e-24)
(0.00269125 5.52209e-06 -7.53208e-26)
(0.00264655 4.28572e-06 7.68674e-26)
(0.00261623 3.30667e-06 8.082e-25)
(0.00259601 2.40556e-06 -1.9386e-24)
(0.0025835 1.46796e-06 1.91956e-24)
(0.0025771 3.65842e-07 1.83883e-24)
(0.0025764 -1.0442e-06 -4.70309e-24)
(0.00258023 -2.82179e-06 -2.92765e-24)
(0.00258895 -5.45329e-06 7.10151e-24)
(0.00260331 -9.60962e-06 2.70299e-24)
(0.0026244 -1.67868e-05 -9.39046e-24)
(0.00265456 -3.1142e-05 -1.42749e-24)
(0.00269797 -6.27637e-05 4.01781e-24)
(0.00275354 -0.00013266 6.34678e-24)
(0.00279446 -0.000250951 -3.27583e-24)
(0.00395283 1.24787e-05 2.78491e-26)
(0.00388772 9.85391e-06 -1.95205e-25)
(0.00384275 7.7783e-06 8.80404e-25)
(0.00381202 5.87579e-06 9.64099e-25)
(0.00379216 3.90565e-06 -9.38741e-25)
(0.00378093 1.60423e-06 -5.5705e-24)
(0.00377733 -1.30231e-06 -3.77783e-24)
(0.00378011 -4.8298e-06 1.3944e-23)
(0.00378892 -1.00042e-05 5.95717e-24)
(0.00380466 -1.79109e-05 -8.58934e-24)
(0.00382738 -3.05174e-05 -3.47079e-24)
(0.00385764 -5.26377e-05 -2.65461e-24)
(0.00389453 -9.27538e-05 7.81466e-26)
(0.0039305 -0.000161924 1.96564e-24)
(0.00394574 -0.000256284 9.62113e-27)
(0.00532956 2.32684e-05 -5.1078e-26)
(0.00524388 1.86337e-05 -3.15274e-25)
(0.00518355 1.49624e-05 -2.07295e-25)
(0.00514134 1.16081e-05 5.42863e-25)
(0.00511297 8.16512e-06 -1.58382e-24)
(0.00509559 4.2202e-06 3.9604e-24)
(0.0050874 -5.28824e-07 -6.92001e-25)
(0.00508739 -6.64423e-06 2.47543e-24)
(0.00509408 -1.47093e-05 -1.3732e-23)
(0.00510795 -2.67053e-05 2.63414e-23)
(0.00512793 -4.43704e-05 -2.55265e-23)
(0.00515274 -7.17165e-05 1.34994e-23)
(0.0051787 -0.000113885 -1.25576e-23)
(0.0051976 -0.000174438 1.18756e-23)
(0.005198 -0.000246135 -4.74516e-24)
(0.00682007 3.86288e-05 6.7399e-26)
(0.0067156 3.13751e-05 2.438e-25)
(0.00664046 2.56086e-05 -1.29483e-24)
(0.00658661 2.0354e-05 -8.4391e-25)
(0.00654908 1.50067e-05 2.23208e-24)
(0.00652453 9.01689e-06 8.14296e-25)
(0.00651055 1.90601e-06 -6.40481e-24)
(0.00650566 -6.84247e-06 1.53449e-23)
(0.00650824 -1.83199e-05 -2.00327e-23)
(0.00651735 -3.40176e-05 4.79345e-24)
(0.00653123 -5.55447e-05 1.47063e-23)
(0.00654745 -8.53107e-05 -2.04873e-23)
(0.00656179 -0.000125321 1.02615e-23)
(0.00656807 -0.000175174 1.06022e-23)
(0.00656089 -0.000228638 -8.07888e-24)
(0.00841636 5.89794e-05 5.56535e-26)
(0.00829789 4.86576e-05 -3.31299e-25)
(0.00821055 4.0391e-05 1.19969e-24)
(0.00814632 3.28567e-05 -1.67711e-24)
(0.00810001 2.52423e-05 -5.79858e-24)
(0.00806801 1.6886e-05 9.8915e-24)
(0.0080475 7.16594e-06 -6.06157e-24)
(0.00803651 -4.47283e-06 2.07675e-23)
(0.0080331 -1.90334e-05 -1.41177e-23)
(0.00803547 -3.77692e-05 -6.63759e-24)
(0.00804133 -6.1652e-05 -1.31444e-23)
(0.00804791 -9.15933e-05 1.20705e-23)
(0.00805173 -0.000127565 3.40903e-24)
(0.00804896 -0.000167722 2.94452e-24)
(0.00803766 -0.000207766 -2.59226e-24)
(0.0101014 8.39198e-05 -8.0196e-26)
(0.00997772 7.04837e-05 1.09605e-24)
(0.00988369 5.9569e-05 -2.57098e-24)
(0.0098125 4.95634e-05 -2.16028e-24)
(0.00975942 3.94868e-05 7.6836e-25)
(0.00972093 2.85997e-05 1.57262e-24)
(0.00969415 1.62369e-05 5.77657e-24)
(0.00967677 1.82325e-06 -1.58524e-23)
(0.00966657 -1.53745e-05 -8.56686e-24)
(0.00966137 -3.61829e-05 2.33942e-23)
(0.00965875 -6.09539e-05 -7.32426e-24)
(0.00965617 -8.95672e-05 2.50651e-23)
(0.00965124 -0.000121068 -1.3213e-23)
(0.00964179 -0.000153538 -4.24861e-24)
(0.00962762 -0.000184302 2.52068e-24)
(0.0118481 0.000111605 -1.06553e-26)
(0.0117323 9.57421e-05 6.06087e-25)
(0.0116404 8.25253e-05 -8.65198e-25)
(0.0115683 7.02201e-05 2.11522e-24)
(0.0115126 5.7792e-05 -1.27257e-23)
(0.0114703 4.44865e-05 1.34695e-23)
(0.011439 2.96964e-05 -2.15006e-23)
(0.0114163 1.29426e-05 1.31738e-23)
(0.0113999 -6.22804e-06 9.88409e-24)
(0.0113877 -2.80909e-05 2.16576e-23)
(0.0113775 -5.25636e-05 -2.83198e-23)
(0.0113674 -7.90268e-05 -5.31145e-24)
(0.0113557 -0.000106335 2.38517e-24)
(0.0113414 -0.000133007 1.75437e-23)
(0.0113249 -0.000157478 -7.15653e-24)
(0.0136236 0.000138297 5.94881e-26)
(0.0135306 0.000121657 -2.56046e-25)
(0.0134521 0.000107217 1.14998e-24)
(0.0133875 9.33425e-05 -4.07236e-24)
(0.0133353 7.91367e-05 6.21618e-24)
(0.0132939 6.39298e-05 -8.10513e-24)
(0.0132614 4.72725e-05 1.36612e-23)
(0.0132359 2.88927e-05 2.46478e-24)
(0.0132155 8.65193e-06 -1.90149e-23)
(0.0131984 -1.33584e-05 2.72718e-23)
(0.0131828 -3.66984e-05 -3.01472e-23)
(0.0131673 -6.06684e-05 -8.9919e-24)
(0.0131513 -8.42996e-05 1.57747e-23)
(0.0131339 -0.000106609 4.71881e-24)
(0.0131158 -0.000126721 -2.0667e-24)
(0.0154013 0.000158964 2.51428e-25)
(0.0153427 0.000143869 -2.01831e-24)
(0.0152876 0.000129968 -3.24517e-24)
(0.0152389 0.000115873 7.68128e-24)
(0.0151971 0.000101006 3.5037e-24)
(0.015162 8.48917e-05 -2.2025e-23)
(0.0151328 6.73281e-05 6.7286e-24)
(0.0151083 4.83215e-05 4.88323e-24)
(0.0150872 2.80459e-05 -2.15838e-23)
(0.0150682 6.78556e-06 2.23761e-23)
(0.0150503 -1.48787e-05 -1.81979e-23)
(0.0150325 -3.62789e-05 4.6641e-23)
(0.0150146 -5.67323e-05 -2.25515e-23)
(0.014996 -7.56611e-05 1.33321e-23)
(0.0149777 -9.25994e-05 -3.64984e-24)
(0.0171773 0.000169668 -1.11979e-25)
(0.0171544 0.000158439 1.39283e-24)
(0.0171262 0.000146658 -2.69538e-24)
(0.0170978 0.000133878 -1.38286e-24)
(0.017071 0.000119783 1.54476e-23)
(0.0170465 0.000104074 -2.17026e-24)
(0.0170245 8.68457e-05 -2.77764e-23)
(0.0170046 6.84109e-05 3.25796e-23)
(0.0169862 4.91453e-05 -7.28372e-24)
(0.0169687 2.9512e-05 -2.55926e-23)
(0.0169516 1.00109e-05 2.7429e-23)
(0.0169344 -8.79731e-06 1.49697e-23)
(0.0169171 -2.64436e-05 -1.2437e-23)
(0.0168994 -4.26087e-05 -2.18158e-23)
(0.0168822 -5.70584e-05 1.83781e-24)
(0.0189754 0.000168875 2.15984e-26)
(0.018975 0.000162402 -1.61479e-24)
(0.0189697 0.00015487 7.41374e-24)
(0.0189594 0.000144623 4.59548e-25)
(0.018947 0.000132612 4.29003e-24)
(0.0189336 0.000118533 -1.52542e-23)
(0.0189199 0.000102786 1.31474e-23)
(0.0189063 8.59844e-05 3.07207e-24)
(0.0188926 6.86633e-05 2.73883e-23)
(0.0188786 5.12939e-05 -4.21462e-23)
(0.0188644 3.43381e-05 -1.92271e-23)
(0.0188496 1.81747e-05 -1.28437e-23)
(0.0188348 3.13398e-06 2.40822e-23)
(0.0188194 -1.06044e-05 -7.06485e-25)
(0.0188045 -2.29254e-05 2.35404e-24)
(0.0208253 0.000164156 -4.29607e-27)
(0.020834 0.000160862 1.78341e-24)
(0.0208364 0.00015494 -2.58627e-24)
(0.0208357 0.000147625 1.09238e-26)
(0.0208325 0.000138738 3.14306e-24)
(0.0208268 0.00012737 8.01117e-24)
(0.0208195 0.00011403 -3.11076e-23)
(0.020811 9.95896e-05 2.56694e-24)
(0.0208016 8.47545e-05 1.58692e-23)
(0.0207911 7.0009e-05 -7.38816e-24)
(0.0207801 5.57273e-05 2.01446e-23)
(0.0207682 4.21837e-05 1.42192e-23)
(0.0207562 2.95966e-05 -2.5766e-23)
(0.0207435 1.80693e-05 1.77368e-23)
(0.0207312 7.66221e-06 -1.47456e-23)
(0.0227167 0.00015662 -2.54835e-25)
(0.0227279 0.00015682 -3.62191e-25)
(0.0227322 0.000153505 3.31078e-24)
(0.0227332 0.00014805 -1.55282e-23)
(0.0227323 0.000141294 1.35665e-23)
(0.0227291 0.000132567 -9.6381e-24)
(0.0227244 0.000121986 6.93004e-24)
(0.0227184 0.000110235 -4.89909e-23)
(0.0227114 9.8059e-05 7.07303e-23)
(0.0227032 8.59704e-05 -4.179e-23)
(0.0226943 7.42886e-05 3.73624e-23)
(0.0226846 6.32049e-05 3.1406e-23)
(0.0226746 5.28617e-05 -5.48903e-23)
(0.0226641 4.33232e-05 1.78949e-23)
(0.0226537 3.46312e-05 -7.53382e-25)
(0.0245972 0.000147835 -9.82967e-27)
(0.024609 0.000152379 -1.36282e-24)
(0.0246138 0.000151323 1.41579e-24)
(0.0246147 0.000147915 -4.42906e-25)
(0.0246137 0.000143291 5.74989e-24)
(0.0246109 0.000137303 -9.83442e-24)
(0.0246064 0.000129346 9.0389e-24)
(0.0246008 0.00012023 -2.82512e-23)
(0.0245946 0.000110594 6.41067e-23)
(0.0245875 0.000100949 -8.19381e-23)
(0.0245798 9.1603e-05 6.70998e-23)
(0.0245713 8.27033e-05 -2.2661e-23)
(0.0245625 7.43409e-05 1.18183e-24)
(0.0245533 6.65531e-05 5.21539e-24)
(0.0245442 5.93727e-05 -9.98895e-24)
(0.0263815 0.000137435 -7.89404e-25)
(0.026392 0.00014666 -8.15852e-26)
(0.0263977 0.000149163 1.54845e-24)
(0.0263983 0.00014793 -2.49467e-24)
(0.0263975 0.000145414 8.85569e-24)
(0.026395 0.000141682 -9.59878e-24)
(0.026391 0.00013678 -8.51518e-24)
(0.0263854 0.000130264 -2.06707e-23)
(0.0263794 0.000123116 1.10143e-23)
(0.0263729 0.000115758 5.008e-23)
(0.026366 0.000108507 -2.63326e-23)
(0.0263584 0.000101525 1.55697e-23)
(0.0263506 9.48971e-05 -6.43332e-24)
(0.0263423 8.86477e-05 -1.892e-23)
(0.0263341 8.28032e-05 9.67104e-24)
(0.0279515 0.000128641 2.38426e-25)
(0.0279596 0.000138393 -2.3816e-25)
(0.0279645 0.000146367 2.6004e-24)
(0.0279656 0.000148492 -7.31457e-24)
(0.0279646 0.000147459 -1.33276e-24)
(0.0279626 0.000145669 1.55107e-23)
(0.0279593 0.000143046 -1.31217e-23)
(0.0279548 0.000139629 -8.13028e-24)
(0.0279491 0.000134984 8.12928e-24)
(0.0279432 0.000129913 -8.72027e-24)
(0.0279371 0.000124684 2.04614e-23)
(0.0279305 0.000119487 1.00396e-23)
(0.0279237 0.000114436 -3.75962e-23)
(0.0279164 0.000109575 2.58067e-23)
(0.0279091 0.000104935 -5.22559e-24)
(0.0291343 0.000119521 6.25261e-25)
(0.0291414 0.000132954 -3.84334e-25)
(0.029145 0.000141259 2.24479e-25)
(0.0291474 0.000147662 4.31436e-24)
(0.0291464 0.000150552 -5.34164e-24)
(0.0291449 0.000150377 -6.86481e-24)
(0.0291427 0.00014944 -6.84028e-24)
(0.0291396 0.000147907 2.32115e-23)
(0.0291356 0.000145772 2.26852e-23)
(0.0291308 0.000142852 -5.64332e-23)
(0.0291259 0.000139561 3.13549e-23)
(0.0291207 0.000136057 -2.11752e-24)
(0.0291152 0.000132473 -1.65966e-24)
(0.0291093 0.000128881 2.19856e-24)
(0.0291033 0.000125335 -1.0017e-24)
(0.0297056 0.000108987 -1.40973e-24)
(0.0297135 0.00012409 -1.48107e-25)
(0.0297192 0.000135522 4.05852e-24)
(0.0297218 0.000143454 -6.08161e-24)
(0.0297237 0.00014874 2.68613e-24)
(0.0297242 0.000152211 5.7097e-24)
(0.029723 0.000153592 -4.13796e-24)
(0.0297215 0.000153631 -2.38606e-23)
(0.0297195 0.000153111 5.40251e-23)
(0.0297168 0.00015198 -2.19976e-23)
(0.0297138 0.000150356 7.71646e-24)
(0.0297105 0.000148354 -1.39843e-23)
(0.0297069 0.000146091 -1.35544e-23)
(0.0297031 0.000143651 1.9592e-23)
(0.029699 0.000141094 -8.29328e-24)
(0.0294929 9.89665e-05 1.88084e-24)
(0.0294986 0.000115682 -3.15265e-24)
(0.0295025 0.000128236 1.5266e-24)
(0.029505 0.000138 -5.42394e-24)
(0.0295065 0.00014523 8.7978e-24)
(0.029507 0.000150291 -6.75663e-24)
(0.029507 0.000153786 -1.49553e-23)
(0.0295064 0.000155982 3.62774e-23)
(0.0295052 0.000157144 6.88045e-24)
(0.0295037 0.000157556 -1.96916e-23)
(0.0295019 0.00015733 -9.4599e-24)
(0.0295 0.000156508 1.03448e-23)
(0.0294979 0.000155254 -1.08195e-23)
(0.0294956 0.000153702 6.00081e-24)
(0.029493 0.000151916 -2.56391e-24)
(0.02847 9.23016e-05 9.88434e-25)
(0.0284774 0.000108787 -1.61142e-24)
(0.0284838 0.000121848 6.8957e-25)
(0.0284894 0.000132171 -3.13001e-24)
(0.028494 0.000140149 6.23117e-24)
(0.028498 0.000146248 4.57029e-25)
(0.0285013 0.000150838 -2.24436e-24)
(0.0285042 0.000154136 -2.78362e-24)
(0.0285064 0.000156345 -5.34877e-24)
(0.0285085 0.000157933 3.14296e-23)
(0.0285102 0.000158446 -1.56692e-23)
(0.0285112 0.000158262 1.01122e-24)
(0.0285119 0.000157802 -1.47104e-23)
(0.0285125 0.000157157 8.35398e-24)
(0.028513 0.000155983 3.17795e-24)
(0.0268839 8.61684e-05 2.17358e-24)
(0.0268892 0.000101736 -3.21075e-24)
(0.0268942 0.000114337 8.39924e-25)
(0.0268992 0.000124463 1.4654e-24)
(0.0269039 0.000132544 4.8726e-24)
(0.0269083 0.000138931 -1.19035e-23)
(0.0269124 0.000143892 6.91404e-24)
(0.0269164 0.000147648 -3.21174e-24)
(0.0269201 0.000150366 2.34023e-24)
(0.0269235 0.000152186 1.07546e-23)
(0.0269268 0.00015329 -2.29537e-23)
(0.02693 0.00015382 1.67889e-23)
(0.0269329 0.000153763 -1.54372e-24)
(0.0269357 0.000153144 -4.67646e-24)
(0.0269384 0.000152036 7.16209e-25)
(0.0249539 8.17092e-05 7.70634e-25)
(0.0249591 9.59724e-05 -2.6983e-24)
(0.0249646 0.000107685 2.50005e-24)
(0.0249705 0.000117252 1.1825e-27)
(0.0249765 0.000125018 -3.97767e-24)
(0.0249826 0.000131261 2.09878e-25)
(0.0249887 0.000136199 1.11097e-24)
(0.0249947 0.000140008 3.39589e-24)
(0.0250007 0.000142838 -1.03293e-23)
(0.0250066 0.000144835 -2.90355e-24)
(0.0250124 0.000146099 1.40189e-23)
(0.0250181 0.0001467 3.60403e-24)
(0.0250238 0.000146702 -6.09323e-24)
(0.0250294 0.000146166 1.85016e-24)
(0.0250349 0.000145133 -5.14816e-25)
(0.0228306 7.77703e-05 9.80128e-26)
(0.0228369 9.02976e-05 -9.34447e-25)
(0.0228442 0.000100695 3.98091e-25)
(0.0228523 0.000109271 -4.3503e-25)
(0.0228608 0.000116294 2.4594e-24)
(0.0228696 0.00012198 -1.23089e-24)
(0.0228786 0.000126507 -4.62752e-25)
(0.0228878 0.000130022 3.95041e-25)
(0.0228971 0.000132643 3.02542e-24)
(0.0229064 0.000134467 -1.59061e-23)
(0.0229157 0.000135571 1.38144e-23)
(0.022925 0.000136027 1.42876e-24)
(0.0229342 0.000135896 -1.9245e-24)
(0.0229435 0.000135224 -3.11485e-24)
(0.0229526 0.000134046 2.59549e-24)
(0.0206317 7.26075e-05 1.43735e-25)
(0.0206407 8.31239e-05 8.08957e-25)
(0.020651 9.19197e-05 -1.00584e-24)
(0.0206623 9.92148e-05 9.53208e-26)
(0.0206743 0.000105213 -3.20924e-24)
(0.0206868 0.000110081 2.43217e-24)
(0.0206996 0.000113953 -2.59939e-25)
(0.0207126 0.000116938 1.97263e-24)
(0.0207259 0.00011912 5.85102e-25)
(0.0207392 0.000120576 -1.3551e-25)
(0.0207526 0.000121372 3.59683e-24)
(0.020766 0.000121567 -1.73591e-24)
(0.0207794 0.000121208 -4.0521e-25)
(0.0207928 0.000120333 -7.92186e-25)
(0.0208061 0.000118976 -2.2552e-24)
(0.0184456 6.53616e-05 1.0307e-24)
(0.0184581 7.38311e-05 -1.42851e-24)
(0.018472 8.09587e-05 -2.76779e-25)
(0.0184871 8.68928e-05 6.35852e-25)
(0.0185029 9.17797e-05 -2.68259e-25)
(0.0185192 9.57368e-05 1.34849e-24)
(0.0185359 9.88605e-05 -2.87208e-25)
(0.0185529 0.000101228 -2.67387e-24)
(0.0185701 0.000102906 5.92394e-24)
(0.0185874 0.000103952 -7.4064e-24)
(0.0186048 0.000104419 5.12866e-24)
(0.0186222 0.000104349 -2.9513e-24)
(0.0186395 0.00010378 5.84325e-24)
(0.0186568 0.000102741 -6.78682e-24)
(0.0186739 0.000101263 2.08247e-24)
(0.0163317 5.6187e-05 -2.036e-25)
(0.0163476 6.27641e-05 -4.41499e-25)
(0.0163648 6.83302e-05 -6.18763e-25)
(0.0163831 7.29777e-05 1.57392e-24)
(0.0164022 7.68032e-05 -7.85453e-25)
(0.0164218 7.98866e-05 4.31317e-25)
(0.0164417 8.22954e-05 -8.20586e-25)
(0.016462 8.40854e-05 1.07072e-24)
(0.0164824 8.53043e-05 4.65203e-24)
(0.0165029 8.59936e-05 -4.3223e-24)
(0.0165234 8.619e-05 -2.16176e-25)
(0.0165438 8.59254e-05 3.52682e-24)
(0.0165641 8.52282e-05 -3.93378e-24)
(0.0165842 8.41237e-05 -4.9125e-25)
(0.0166041 8.26359e-05 5.78068e-25)
(0.0143251 4.59114e-05 8.01052e-25)
(0.0143433 5.086e-05 6.40653e-25)
(0.0143628 5.50728e-05 -1.08892e-24)
(0.0143832 5.86013e-05 -6.57887e-25)
(0.0144043 6.15051e-05 -1.57069e-25)
(0.0144259 6.38373e-05 1.32904e-24)
(0.0144478 6.56428e-05 8.85221e-25)
(0.01447 6.6959e-05 -1.12773e-24)
(0.0144922 6.7817e-05 -7.04796e-25)
(0.0145145 6.82454e-05 2.92339e-24)
(0.0145367 6.82699e-05 1.04929e-24)
(0.0145588 6.79146e-05 -9.28025e-24)
(0.0145807 6.72017e-05 3.68852e-24)
(0.0146022 6.61511e-05 1.38505e-24)
(0.0146234 6.47825e-05 1.26275e-25)
(0.0124434 3.5595e-05 -8.50995e-25)
(0.0124624 3.92174e-05 1.04315e-24)
(0.0124826 4.23252e-05 2.05161e-27)
(0.0125036 4.49404e-05 3.34882e-25)
(0.0125252 4.70973e-05 -6.17154e-25)
(0.0125473 4.88293e-05 -3.70177e-25)
(0.0125696 5.01638e-05 -2.40715e-25)
(0.0125922 5.11239e-05 3.81668e-25)
(0.0126148 5.17294e-05 -1.12634e-24)
(0.0126374 5.19995e-05 3.76127e-24)
(0.0126598 5.19523e-05 4.02255e-25)
(0.012682 5.16053e-05 -9.23196e-25)
(0.0127039 5.0975e-05 -9.40631e-25)
(0.0127255 5.00769e-05 -5.35937e-25)
(0.0127465 4.89266e-05 -3.30617e-25)
(0.0106933 2.61562e-05 6.43384e-25)
(0.0107116 2.87429e-05 -5.45905e-25)
(0.0107311 3.09867e-05 -1.18807e-24)
(0.0107512 3.28876e-05 1.08475e-24)
(0.0107719 3.44644e-05 -1.7406e-25)
(0.010793 3.5737e-05 -7.07391e-25)
(0.0108144 3.67205e-05 3.22381e-25)
(0.0108359 3.74281e-05 2.32756e-24)
(0.0108575 3.78718e-05 -2.12988e-24)
(0.010879 3.80641e-05 -3.82184e-25)
(0.0109003 3.8017e-05 9.5919e-25)
(0.0109214 3.77428e-05 5.28519e-25)
(0.0109421 3.72534e-05 -1.0235e-24)
(0.0109625 3.65601e-05 -6.8702e-26)
(0.0109822 3.56753e-05 3.67124e-25)
(0.00907567 1.81805e-05 -4.12084e-25)
(0.00909224 1.99833e-05 -1.32562e-25)
(0.00910973 2.15698e-05 3.68064e-25)
(0.0091279 2.29254e-05 -2.09932e-25)
(0.00914657 2.40619e-05 3.89874e-25)
(0.00916562 2.49895e-05 9.66472e-25)
(0.00918493 2.57153e-05 -2.43872e-24)
(0.00920438 2.6246e-05 1.45028e-24)
(0.00922386 2.65884e-05 -8.23223e-25)
(0.00924329 2.675e-05 -3.70923e-25)
(0.00926255 2.67382e-05 7.16324e-25)
(0.00928156 2.65613e-05 -7.58664e-25)
(0.00930023 2.62276e-05 1.21117e-24)
(0.00931849 2.57452e-05 2.8175e-25)
(0.00933622 2.51232e-05 -1.68063e-25)
(0.00758839 1.19014e-05 -2.03134e-25)
(0.00760241 1.31237e-05 8.56759e-26)
(0.00761725 1.42179e-05 9.94127e-26)
(0.0076327 1.51632e-05 -1.46295e-25)
(0.00764863 1.59683e-05 1.5713e-25)
(0.00766492 1.66367e-05 -3.42313e-25)
(0.00768147 1.71704e-05 3.43689e-25)
(0.00769818 1.75723e-05 -2.01675e-25)
(0.00771494 1.78457e-05 1.62148e-25)
(0.00773167 1.79948e-05 3.84139e-25)
(0.00774827 1.80237e-05 2.86203e-25)
(0.00776466 1.79379e-05 -1.24306e-24)
(0.00778076 1.77426e-05 -7.75663e-25)
(0.00779649 1.74437e-05 1.13908e-24)
(0.00781176 1.70474e-05 2.75351e-25)
(0.00622739 7.27675e-06 -7.47155e-26)
(0.00623853 8.07622e-06 -3.69597e-27)
(0.00625039 8.80634e-06 -6.60393e-25)
(0.00626281 9.4459e-06 4.27274e-25)
(0.00627567 1.00019e-05 2.32683e-25)
(0.00628889 1.0473e-05 4.29927e-25)
(0.00630237 1.0859e-05 -2.37345e-25)
(0.00631603 1.11605e-05 -8.19915e-25)
(0.00632978 1.13787e-05 1.50268e-24)
(0.00634354 1.15156e-05 -4.69308e-25)
(0.00635723 1.15733e-05 -8.14785e-25)
(0.00637077 1.15552e-05 1.65742e-24)
(0.00638409 1.14642e-05 -9.14583e-25)
(0.00639713 1.13046e-05 2.63997e-25)
(0.0064098 1.10803e-05 -5.10024e-25)
(0.00498725 4.0934e-06 -2.95206e-25)
(0.00499554 4.59023e-06 -2.6179e-25)
(0.00500446 5.05549e-06 1.13349e-25)
(0.00501385 5.47038e-06 5.32254e-25)
(0.00502366 5.83949e-06 -1.09416e-25)
(0.00503381 6.15929e-06 1.82835e-25)
(0.00504422 6.42853e-06 -4.33132e-25)
(0.00505483 6.64696e-06 -2.09827e-25)
(0.00506556 6.8146e-06 9.05549e-26)
(0.00507634 6.93221e-06 1.621e-24)
(0.00508711 7.00073e-06 1.93754e-25)
(0.00509781 7.02196e-06 -1.8257e-24)
(0.00510837 6.99753e-06 2.59681e-25)
(0.00511874 6.93029e-06 5.98898e-25)
(0.00512884 6.82274e-06 -4.44004e-25)
(0.00386158 2.06043e-06 -6.49443e-26)
(0.00386728 2.3459e-06 1.60968e-26)
(0.00387351 2.62348e-06 2.99205e-25)
(0.00388014 2.87659e-06 1.51347e-26)
(0.00388714 3.10723e-06 -2.18454e-25)
(0.00389444 3.31143e-06 -4.66901e-26)
(0.003902 3.48799e-06 -1.15986e-25)
(0.00390976 3.63632e-06 8.0906e-25)
(0.00391766 3.75602e-06 -6.82115e-25)
(0.00392566 3.84729e-06 -7.58182e-25)
(0.00393369 3.9104e-06 -2.85632e-25)
(0.00394171 3.9463e-06 1.21231e-24)
(0.00394967 3.9557e-06 -3.36877e-25)
(0.00395753 3.9405e-06 3.82858e-25)
(0.00396523 3.90242e-06 -2.26911e-25)
(0.00284316 8.75824e-07 -1.20152e-25)
(0.00284671 1.01754e-06 2.55181e-26)
(0.00285067 1.16595e-06 2.58423e-25)
(0.00285494 1.30546e-06 -1.52486e-25)
(0.00285952 1.4359e-06 1.0208e-25)
(0.00286435 1.55405e-06 3.14838e-26)
(0.00286942 1.65899e-06 -5.07144e-25)
(0.00287467 1.75013e-06 8.64656e-25)
(0.00288008 1.82686e-06 -9.89006e-25)
(0.00288559 1.8892e-06 9.41852e-25)
(0.00289117 1.93722e-06 -3.72961e-25)
(0.0028968 1.97134e-06 -7.90132e-26)
(0.00290241 1.99176e-06 -2.47799e-25)
(0.002908 1.99969e-06 3.37515e-25)
(0.00291351 1.99657e-06 -9.33e-26)
(0.00192434 2.69518e-07 1.82939e-25)
(0.00192623 3.18004e-07 1.24795e-25)
(0.0019284 3.81229e-07 -5.88209e-25)
(0.00193079 4.4421e-07 3.36949e-25)
(0.00193342 5.05494e-07 -4.00682e-26)
(0.00193625 5.62996e-07 -6.94734e-26)
(0.00193926 6.15995e-07 -5.88386e-27)
(0.00194244 6.64082e-07 3.17817e-25)
(0.00194574 7.06799e-07 -4.13665e-25)
(0.00194915 7.43708e-07 -1.50282e-25)
(0.00195264 7.74587e-07 7.669e-25)
(0.0019562 7.99554e-07 -2.61367e-25)
(0.00195978 8.18521e-07 -2.88596e-25)
(0.00196338 8.32174e-07 2.37014e-26)
(0.00196696 8.4187e-07 6.24958e-26)
(0.00109724 3.26785e-08 -1.84988e-25)
(0.00109796 4.37969e-08 4.94118e-25)
(0.00109886 6.61831e-08 1.27012e-25)
(0.00109989 8.83148e-08 -3.94336e-25)
(0.00110106 1.09437e-07 -3.77497e-26)
(0.00110237 1.29104e-07 -2.27708e-27)
(0.0011038 1.47222e-07 -8.61318e-26)
(0.00110534 1.6404e-07 2.17273e-25)
(0.00110697 1.81304e-07 -5.24112e-25)
(0.00110869 1.97058e-07 2.48938e-25)
(0.00111048 2.10357e-07 3.26613e-25)
(0.00111233 2.2125e-07 -2.49422e-25)
(0.00111421 2.29656e-07 5.14644e-25)
(0.00111613 2.35942e-07 -5.85903e-25)
(0.00111806 2.41268e-07 1.3502e-25)
(0.000354066 2.21316e-08 -1.32223e-27)
(0.000354092 7.41228e-08 8.9779e-26)
(0.000354184 1.12221e-07 5.51142e-26)
(0.000354331 1.3559e-07 -1.29151e-25)
(0.000354536 1.47384e-07 4.8802e-26)
(0.000354796 1.50358e-07 -6.38285e-26)
(0.000355107 1.46755e-07 -1.45595e-26)
(0.000355465 1.38589e-07 -2.21914e-25)
(0.000355865 1.28795e-07 3.18693e-25)
(0.000356304 1.17097e-07 1.53988e-25)
(0.000356775 1.0358e-07 -5.33556e-25)
(0.000357277 8.88508e-08 2.69003e-25)
(0.000357803 7.32755e-08 1.90805e-25)
(0.00035835 5.7191e-08 -1.73174e-25)
(0.000358913 4.11644e-08 1.11434e-26)
(0.000969964 -0.000269437 1.03046e-25)
(0.00110818 -0.000198651 2.72989e-24)
(0.00133911 -0.000126437 -7.9839e-24)
(0.00157381 -7.10005e-05 1.18772e-23)
(0.00179668 -3.0427e-05 -4.45974e-24)
(0.00201279 -3.60808e-06 -4.47465e-24)
(0.00222218 1.25241e-05 5.15947e-24)
(0.00242563 2.06613e-05 -1.03299e-23)
(0.00262422 2.31121e-05 6.42254e-25)
(0.00281892 2.18789e-05 6.54064e-24)
(0.00301068 1.869e-05 -1.23999e-24)
(0.00320033 1.51048e-05 1.32654e-24)
(0.00338867 1.26265e-05 -1.36662e-25)
(0.00357652 1.2861e-05 7.8632e-25)
(0.00376493 1.75787e-05 -2.88446e-24)
(0.00395537 2.8725e-05 1.56834e-24)
(0.00415016 4.84358e-05 -4.7533e-25)
(0.00435243 7.86857e-05 3.41378e-26)
(0.0045676 0.000120622 1.12876e-24)
(0.0048015 0.000174539 -7.11374e-25)
(0.00506224 0.000235762 9.41236e-26)
(0.00535693 0.000294978 -8.40761e-26)
(0.00566432 0.000332822 1.73465e-25)
(0.0059425 0.000335196 7.09351e-25)
(0.00617632 0.000302635 -1.27287e-24)
(0.00636543 0.000239893 -9.47886e-25)
(0.00651127 0.000151752 -3.93513e-26)
(0.00661549 4.21531e-05 2.48583e-24)
(0.00667881 -8.52548e-05 3.89952e-24)
(0.00670084 -0.00022638 -7.72336e-24)
(0.00668051 -0.000376104 7.61489e-24)
(0.0066166 -0.000528054 -7.70856e-24)
(0.00650835 -0.000674693 2.3507e-24)
(0.00635573 -0.000807606 1.41236e-24)
(0.00615962 -0.000917807 -1.49665e-24)
(0.00592163 -0.000995901 1.23235e-24)
(0.00564391 -0.00103195 1.10544e-24)
(0.0053289 -0.00101482 2.15244e-24)
(0.00497934 -0.000930692 1.74539e-24)
(0.00459889 -0.00076088 -7.63476e-24)
(0.00419213 -0.000481235 -1.07039e-25)
(0.00376686 -6.91316e-05 4.21932e-24)
(0.00331858 0.000466455 1.76869e-24)
(0.00287323 0.00104519 -6.31531e-24)
(0.00262482 0.00136547 -3.45802e-25)
(0.00181747 -0.000353464 -3.08503e-24)
(0.00187392 -0.000317329 -4.51348e-24)
(0.00201285 -0.000247688 9.3513e-24)
(0.00218822 -0.000183926 4.58672e-24)
(0.0023728 -0.00013189 -1.60723e-23)
(0.00256161 -9.3494e-05 1.74342e-23)
(0.00275031 -6.6836e-05 -6.28856e-24)
(0.00293709 -4.94023e-05 5.14006e-24)
(0.0031215 -3.88389e-05 -6.78423e-24)
(0.00330364 -3.30095e-05 7.93531e-26)
(0.0034839 -3.00353e-05 -3.56845e-24)
(0.00366276 -2.82226e-05 7.0457e-24)
(0.00384081 -2.59676e-05 -3.8533e-24)
(0.00401874 -2.15928e-05 -3.34157e-24)
(0.00419749 -1.33042e-05 -2.11899e-24)
(0.00437843 8.29124e-07 4.2007e-24)
(0.0045638 2.29094e-05 -4.79376e-25)
(0.00475655 5.48259e-05 2.12817e-24)
(0.00496199 9.76749e-05 3.551e-25)
(0.00518567 0.000151764 -6.33443e-25)
(0.00543556 0.000212523 -2.77804e-25)
(0.00571901 0.000271032 -1.85086e-25)
(0.00601657 0.000308769 9.35117e-25)
(0.00628814 0.000312297 1.24123e-24)
(0.00651867 0.000282076 -1.02942e-24)
(0.00670725 0.000222661 -5.62804e-24)
(0.00685465 0.000138776 7.79753e-24)
(0.00696194 3.4457e-05 -5.70977e-24)
(0.00702944 -8.64726e-05 1.94603e-24)
(0.00705665 -0.000219717 -1.45063e-24)
(0.00704255 -0.000360009 1.14104e-23)
(0.00698618 -0.000500923 -1.65481e-23)
(0.00688713 -0.000634959 1.02223e-23)
(0.00674589 -0.000753807 -9.9117e-24)
(0.00656396 -0.000848615 8.39544e-24)
(0.00634385 -0.000910117 -1.68573e-24)
(0.00608896 -0.000928497 4.90788e-24)
(0.00580364 -0.000892821 -1.62776e-25)
(0.00549359 -0.000789842 -6.31255e-24)
(0.00516732 -0.000602115 -5.13258e-24)
(0.00483818 -0.000307428 1.17771e-23)
(0.00452967 0.00011498 -1.24556e-23)
(0.00427 0.000653571 -3.70847e-24)
(0.00410771 0.00121396 8.71848e-24)
(0.00410808 0.00146055 3.29472e-24)
(0.0028118 -0.000360352 -3.65995e-26)
(0.00281868 -0.000365429 -5.22169e-24)
(0.00287363 -0.000327599 9.9586e-24)
(0.00298035 -0.000273966 8.83335e-24)
(0.00311229 -0.00022176 -1.42922e-23)
(0.00326027 -0.00017808 2.78885e-25)
(0.00341679 -0.000144305 1.42978e-24)
(0.00357738 -0.000119409 1.57835e-23)
(0.00373969 -0.000101703 -1.87055e-23)
(0.00390256 -8.93058e-05 1.15052e-23)
(0.00406551 -8.04065e-05 3.38356e-24)
(0.00422848 -7.33003e-05 -1.88503e-23)
(0.00439167 -6.63359e-05 6.7913e-24)
(0.00455551 -5.78214e-05 2.62758e-24)
(0.00472077 -4.59515e-05 -5.31809e-24)
(0.00488866 -2.88223e-05 8.49838e-24)
(0.00506129 -4.37944e-06 -5.91704e-24)
(0.00524139 2.91746e-05 -1.14863e-25)
(0.00543415 7.28783e-05 4.35821e-25)
(0.00564483 0.000127063 4.78192e-25)
(0.0058812 0.000187259 4.77967e-26)
(0.00615082 0.000244915 3.06608e-25)
(0.00643626 0.000282394 -9.55937e-25)
(0.00669933 0.00028696 2.91752e-24)
(0.0069251 0.000258997 -4.80486e-24)
(0.00711203 0.00020287 2.80036e-24)
(0.00726017 0.000123256 -7.12538e-24)
(0.00736996 2.42785e-05 9.64146e-24)
(0.00744134 -9.00481e-05 -9.70002e-24)
(0.00747364 -0.000215232 -1.66121e-25)
(0.00746593 -0.000345866 -9.45639e-25)
(0.00741752 -0.000475473 1.9316e-23)
(0.00732839 -0.000596612 -6.59005e-24)
(0.00719959 -0.000701125 -4.93882e-24)
(0.00703333 -0.00078039 5.81275e-24)
(0.00683307 -0.000825451 -5.86065e-25)
(0.00660355 -0.000826951 -1.80955e-24)
(0.00635107 -0.000774763 9.43478e-24)
(0.00608423 -0.000657296 -2.00571e-23)
(0.00581577 -0.000460524 8.10517e-24)
(0.00556544 -0.00016855 3.3438e-24)
(0.00536479 0.000229751 6.18382e-24)
(0.00525235 0.000712668 -7.72289e-24)
(0.00526172 0.00118038 2.56401e-24)
(0.00538895 0.00136937 -1.6322e-24)
(0.00393392 -0.000341199 -1.32984e-24)
(0.00391171 -0.000371642 -2.08174e-24)
(0.00391698 -0.000361327 -8.95529e-24)
(0.00395765 -0.000331133 2.24329e-24)
(0.00403292 -0.000289384 1.52447e-24)
(0.0041316 -0.000248514 7.44341e-24)
(0.00424637 -0.000213067 -1.60545e-23)
(0.00437158 -0.00018423 6.05919e-24)
(0.00450343 -0.000161621 2.06285e-23)
(0.00463954 -0.000144072 -5.51009e-24)
(0.0047785 -0.000130146 -5.14109e-24)
(0.00491953 -0.00011832 -8.06823e-25)
(0.00506237 -0.000107025 2.57882e-24)
(0.00520709 -9.46242e-05 -4.97479e-24)
(0.00535418 -7.93532e-05 1.16744e-24)
(0.00550469 -5.93775e-05 -3.69072e-25)
(0.00566049 -3.2712e-05 -2.25537e-24)
(0.00582413 2.33108e-06 8.58246e-25)
(0.00600062 4.67158e-05 3.98578e-24)
(0.00619491 0.000100806 -4.28984e-25)
(0.00641454 0.000160226 -9.34956e-25)
(0.00666724 0.000216772 -2.82592e-25)
(0.00693777 0.000253754 -1.69303e-24)
(0.00719004 0.000259194 -1.99253e-25)
(0.00740917 0.000233389 -4.48324e-24)
(0.00759296 0.000180519 7.5201e-24)
(0.00774068 0.000105221 -7.15984e-24)
(0.0078521 1.17076e-05 1.40488e-23)
(0.00792674 -9.58225e-05 -1.28433e-23)
(0.0079638 -0.000212696 2.66182e-24)
(0.00796243 -0.000333388 6.07744e-24)
(0.00792221 -0.000451415 -2.38383e-26)
(0.0078436 -0.000559456 -2.5299e-25)
(0.00772819 -0.000649607 5.26632e-25)
(0.00757896 -0.000713639 -1.88486e-24)
(0.00740031 -0.000743168 -6.36041e-25)
(0.00719825 -0.000729709 7.55654e-24)
(0.00698079 -0.000664582 -3.57654e-24)
(0.00675872 -0.000538826 6.34985e-25)
(0.00654725 -0.000343281 -2.1019e-23)
(0.00636817 -7.03147e-05 1.6429e-23)
(0.00625204 0.000280146 -7.17026e-24)
(0.00623225 0.000680813 1.17188e-24)
(0.00632444 0.00105059 1.00271e-23)
(0.00650502 0.00123227 -2.6981e-24)
(0.00517732 -0.000311813 -5.52781e-24)
(0.00514426 -0.000351702 1.1373e-23)
(0.00512001 -0.000361326 3.32091e-24)
(0.00511957 -0.000351337 1.42508e-23)
(0.0051414 -0.000328269 -3.52107e-23)
(0.00519048 -0.000297058 -1.13741e-24)
(0.00525896 -0.000265946 1.77022e-24)