/*--------------------------------*- C++ -*----------------------------------*\
| =========                 |                                                 |
| \\      /  F ield         | OpenFOAM: The Open Source CFD Toolbox           |
|  \\    /   O peration     | Version:  2312                                  |
|   \\  /    A nd           | Website:  www.openfoam.com                      |
|    \\/     M anipulation  |                                                 |
\*---------------------------------------------------------------------------*/
FoamFile
{
    version     2.0;
    format      ascii;
    arch        "LSB;label=32;scalar=64";
    class       volScalarField;
    location    "77.25";
    object      p;
}
// * * * * * * * * * * * * * * * * * * * * * * * * * * * * * * * * * * * * * //

dimensions      [0 2 -2 0 0 0 0];

internalField   nonuniform List<scalar> 
4800
(
-2.62406e-13
-1.03731e-06
-1.84788e-06
-2.50345e-06
-3.04436e-06
-3.5147e-06
-3.92296e-06
-4.28155e-06
-4.60349e-06
-4.89596e-06
-5.16369e-06
-5.40671e-06
-5.61777e-06
-6.03457e-06
-7.58772e-06
1.3317e-08
-1.02396e-06
-1.83502e-06
-2.49145e-06
-3.03366e-06
-3.5059e-06
-3.91675e-06
-4.27876e-06
-4.60584e-06
-4.90706e-06
-5.19175e-06
-5.47296e-06
-5.76258e-06
-6.16628e-06
-6.91827e-06
2.69063e-08
-1.01018e-06
-1.82173e-06
-2.47934e-06
-3.02206e-06
-3.49551e-06
-3.90857e-06
-4.27337e-06
-4.60447e-06
-4.91176e-06
-5.20573e-06
-5.4999e-06
-5.80009e-06
-6.11201e-06
-6.40839e-06
4.01167e-08
-9.96251e-07
-1.80785e-06
-2.46617e-06
-3.00918e-06
-3.48284e-06
-3.89737e-06
-4.26356e-06
-4.59589e-06
-4.90377e-06
-5.19495e-06
-5.47453e-06
-5.73251e-06
-5.93621e-06
-6.01495e-06
5.41993e-08
-9.80866e-07
-1.79199e-06
-2.45023e-06
-2.99385e-06
-3.46594e-06
-3.88067e-06
-4.24627e-06
-4.57602e-06
-4.87751e-06
-5.15369e-06
-5.40031e-06
-5.59695e-06
-5.70448e-06
-5.66818e-06
7.05534e-08
-9.6262e-07
-1.77267e-06
-2.42996e-06
-2.97398e-06
-3.44264e-06
-3.85529e-06
-4.21728e-06
-4.53946e-06
-4.82661e-06
-5.07676e-06
-5.27961e-06
-5.4131e-06
-5.44737e-06
-5.35458e-06
9.15674e-08
-9.39222e-07
-1.7475e-06
-2.40281e-06
-2.94569e-06
-3.4101e-06
-3.81722e-06
-4.17128e-06
-4.47997e-06
-4.74504e-06
-4.96123e-06
-5.11683e-06
-5.19483e-06
-5.17955e-06
-5.06368e-06
1.21585e-07
-9.06618e-07
-1.71239e-06
-2.36468e-06
-2.90409e-06
-3.36298e-06
-3.76073e-06
-4.10186e-06
-4.39111e-06
-4.62811e-06
-4.80688e-06
-4.9183e-06
-4.95316e-06
-4.90793e-06
-4.78654e-06
1.67573e-07
-8.58319e-07
-1.66097e-06
-2.30909e-06
-2.8431e-06
-3.29353e-06
-3.6781e-06
-4.00159e-06
-4.26672e-06
-4.47261e-06
-4.61508e-06
-4.68972e-06
-4.69465e-06
-4.63409e-06
-4.51656e-06
2.39331e-07
-7.85031e-07
-1.58414e-06
-2.22692e-06
-2.75356e-06
-3.19254e-06
-3.56043e-06
-3.86256e-06
-4.10112e-06
-4.27631e-06
-4.38725e-06
-4.43442e-06
-4.42121e-06
-4.35571e-06
-4.24735e-06
3.49079e-07
-6.74775e-07
-1.47011e-06
-2.10638e-06
-2.62375e-06
-3.049e-06
-3.39785e-06
-3.67682e-06
-3.88914e-06
-4.0372e-06
-4.12361e-06
-4.15274e-06
-4.131e-06
-4.06775e-06
-3.97172e-06
5.10941e-07
-5.13306e-07
-1.30464e-06
-1.93347e-06
-2.44018e-06
-2.85056e-06
-3.1799e-06
-3.43649e-06
-3.6257e-06
-3.7525e-06
-3.82234e-06
-3.84204e-06
-3.81931e-06
-3.7633e-06
-3.68151e-06
7.41428e-07
-2.83848e-07
-1.07101e-06
-1.69188e-06
-2.18757e-06
-2.58376e-06
-2.89557e-06
-3.13333e-06
-3.30496e-06
-3.41776e-06
-3.47907e-06
-3.49686e-06
-3.47902e-06
-3.4339e-06
-3.36773e-06
1.06085e-06
3.41774e-08
-7.48997e-07
-1.36152e-06
-1.84808e-06
-2.23306e-06
-2.532e-06
-2.75711e-06
-2.91856e-06
-3.0254e-06
-3.08598e-06
-3.10852e-06
-3.10053e-06
-3.06935e-06
-3.02018e-06
1.49393e-06
4.66234e-07
-3.14221e-07
-9.2048e-07
-1.40073e-06
-1.77968e-06
-2.07279e-06
-2.29352e-06
-2.45357e-06
-2.56302e-06
-2.63054e-06
-2.66414e-06
-2.67074e-06
-2.65675e-06
-2.62658e-06
2.06789e-06
1.0416e-06
2.61156e-07
-3.4242e-07
-8.22079e-07
-1.20197e-06
-1.49784e-06
-1.72386e-06
-1.8923e-06
-2.0134e-06
-2.09572e-06
-2.14686e-06
-2.1732e-06
-2.18041e-06
-2.17243e-06
2.80833e-06
1.78868e-06
1.00371e-06
3.98329e-07
-8.82903e-08
-4.77607e-07
-7.85998e-07
-1.02789e-06
-1.21527e-06
-1.35784e-06
-1.4636e-06
-1.53961e-06
-1.59183e-06
-1.62545e-06
-1.64415e-06
3.73319e-06
2.72945e-06
1.94979e-06
1.32482e-06
8.20523e-07
4.11797e-07
8.04755e-08
-1.8832e-07
-4.059e-07
-5.80809e-07
-7.20124e-07
-8.30269e-07
-9.16789e-07
-9.84445e-07
-1.03673e-06
4.84185e-06
3.86507e-06
3.08435e-06
2.44255e-06
1.91377e-06
1.47723e-06
1.11368e-06
8.07855e-07
5.496e-07
3.3185e-07
1.48589e-07
-5.92485e-09
-1.36821e-07
-2.48476e-07
-3.44223e-07
6.10171e-06
5.16178e-06
4.39232e-06
3.73714e-06
3.18312e-06
2.71422e-06
2.3116e-06
1.96129e-06
1.65484e-06
1.38646e-06
1.15091e-06
9.4308e-07
7.58352e-07
5.92811e-07
4.43221e-07
7.38481e-06
6.47262e-06
5.71404e-06
5.05113e-06
4.47445e-06
3.96912e-06
3.52024e-06
3.11788e-06
2.75582e-06
2.42914e-06
2.13318e-06
1.86353e-06
1.61629e-06
1.3882e-06
1.17644e-06
8.50557e-06
7.65157e-06
6.8736e-06
6.19528e-06
5.59652e-06
5.05776e-06
4.56726e-06
4.11855e-06
3.70684e-06
3.32763e-06
2.97661e-06
2.65005e-06
2.34477e-06
2.05814e-06
1.78778e-06
9.32196e-06
8.49634e-06
7.74708e-06
7.07225e-06
6.45951e-06
5.89661e-06
5.37583e-06
4.89227e-06
4.44169e-06
4.02005e-06
3.6237e-06
3.24963e-06
2.89529e-06
2.55856e-06
2.23749e-06
9.9113e-06
9.12303e-06
8.39832e-06
7.72933e-06
7.10881e-06
6.53036e-06
5.98865e-06
5.47934e-06
4.99864e-06
4.54325e-06
4.11032e-06
3.69751e-06
3.30283e-06
2.92462e-06
2.56131e-06
1.03292e-05
9.57406e-06
8.86849e-06
8.20649e-06
7.58396e-06
6.99689e-06
6.44116e-06
5.91309e-06
5.40962e-06
4.92823e-06
4.46676e-06
4.02343e-06
3.59669e-06
3.18528e-06
2.78802e-06
1.06132e-05
9.88642e-06
9.19846e-06
8.54565e-06
7.92531e-06
7.33441e-06
6.76977e-06
6.22857e-06
5.70851e-06
5.2077e-06
4.72453e-06
4.25768e-06
3.80598e-06
3.36856e-06
2.94455e-06
1.07991e-05
1.00975e-05
9.4266e-06
8.7841e-06
8.1681e-06
7.5763e-06
7.00637e-06
6.45627e-06
5.92432e-06
5.40915e-06
4.9096e-06
4.42474e-06
3.95379e-06
3.49616e-06
3.05129e-06
1.09161e-05
1.02376e-05
9.58276e-06
8.95057e-06
8.33986e-06
7.74897e-06
7.17623e-06
6.62023e-06
6.0798e-06
5.55401e-06
5.0421e-06
4.54347e-06
4.05766e-06
3.58436e-06
3.12326e-06
1.0988e-05
1.03296e-05
9.68922e-06
9.06681e-06
8.46171e-06
7.87273e-06
7.29874e-06
6.73884e-06
6.1923e-06
5.65857e-06
5.13721e-06
4.62792e-06
4.13051e-06
3.64492e-06
3.17107e-06
1.10306e-05
1.03896e-05
9.76222e-06
9.14883e-06
8.54919e-06
7.96252e-06
7.38815e-06
6.82561e-06
6.27454e-06
5.73469e-06
5.20592e-06
4.68819e-06
4.18154e-06
3.68613e-06
3.20206e-06
1.10551e-05
1.04292e-05
9.8132e-06
9.2079e-06
8.61328e-06
8.02894e-06
7.45462e-06
6.89019e-06
6.33558e-06
5.79084e-06
5.25606e-06
4.73144e-06
4.21723e-06
3.71376e-06
3.22133e-06
1.10686e-05
1.0456e-05
9.84991e-06
9.25172e-06
8.66155e-06
8.07935e-06
7.50522e-06
6.93931e-06
6.3818e-06
5.83297e-06
5.29315e-06
4.76275e-06
4.24217e-06
3.73193e-06
3.23245e-06
1.10759e-05
1.04749e-05
9.87745e-06
9.28542e-06
8.69911e-06
8.1188e-06
7.54485e-06
6.97765e-06
6.41762e-06
5.86527e-06
5.32109e-06
4.78568e-06
4.2596e-06
3.74352e-06
3.238e-06
1.10801e-05
1.04891e-05
9.89913e-06
9.31239e-06
8.72938e-06
8.15065e-06
7.57679e-06
7.0084e-06
6.44612e-06
5.89062e-06
5.34258e-06
4.80275e-06
4.27183e-06
3.75062e-06
3.23978e-06
1.1083e-05
1.05005e-05
9.91699e-06
9.3348e-06
8.75459e-06
8.17715e-06
7.60327e-06
7.03374e-06
6.46938e-06
5.91102e-06
5.3595e-06
4.8157e-06
4.28046e-06
3.75467e-06
3.23912e-06
1.10855e-05
1.05102e-05
9.9323e-06
9.35399e-06
8.77613e-06
8.19972e-06
7.6257e-06
7.05506e-06
6.48876e-06
5.92778e-06
5.37311e-06
4.82572e-06
4.28658e-06
3.75669e-06
3.23692e-06
1.10879e-05
1.05189e-05
9.94574e-06
9.37074e-06
8.79485e-06
8.21923e-06
7.645e-06
7.07328e-06
6.50517e-06
5.9418e-06
5.38424e-06
4.83362e-06
4.29097e-06
3.75738e-06
3.23382e-06
1.10903e-05
1.05268e-05
9.95782e-06
9.38564e-06
8.8114e-06
8.2364e-06
7.66191e-06
7.08915e-06
6.51937e-06
5.95378e-06
5.3936e-06
4.84e-06
4.29415e-06
3.75719e-06
3.23018e-06
1.10929e-05
1.05346e-05
9.96941e-06
9.39978e-06
8.82701e-06
8.25252e-06
7.6777e-06
7.1039e-06
6.53247e-06
5.96473e-06
5.40199e-06
4.84553e-06
4.29656e-06
3.75634e-06
3.22601e-06
1.10959e-05
1.05426e-05
9.98101e-06
9.41379e-06
8.8423e-06
8.26812e-06
7.69278e-06
7.11779e-06
6.54462e-06
5.9747e-06
5.40945e-06
4.85024e-06
4.29838e-06
3.75519e-06
3.22177e-06
-8.73004e-06
-6.37706e-06
-4.95202e-06
-3.99855e-06
-3.24796e-06
-2.68624e-06
-2.26647e-06
-1.95658e-06
-1.73387e-06
-1.57901e-06
-1.47481e-06
-1.40514e-06
-1.35414e-06
-1.30592e-06
-1.24379e-06
-1.15155e-06
-1.01427e-06
-8.22461e-07
-5.76415e-07
-2.96899e-07
-2.41894e-08
1.95563e-07
3.2659e-07
4.36776e-07
6.2994e-07
9.73104e-07
1.50198e-06
2.22737e-06
3.15269e-06
4.27678e-06
5.60162e-06
7.10911e-06
8.77962e-06
1.05897e-05
1.25003e-05
1.44657e-05
1.64311e-05
1.83321e-05
2.00903e-05
2.16056e-05
2.27276e-05
2.32448e-05
2.26874e-05
2.06534e-05
1.54066e-05
-7.14599e-06
-5.87897e-06
-4.7795e-06
-3.92122e-06
-3.21408e-06
-2.66656e-06
-2.25189e-06
-1.94439e-06
-1.72348e-06
-1.57056e-06
-1.46854e-06
-1.4012e-06
-1.35255e-06
-1.30661e-06
-1.24661e-06
-1.15639e-06
-1.02108e-06
-8.31103e-07
-5.8639e-07
-3.06983e-07
-3.1508e-08
1.96122e-07
3.40417e-07
4.65745e-07
6.72403e-07
1.02604e-06
1.56185e-06
2.29055e-06
3.21487e-06
4.3329e-06
5.64662e-06
7.13477e-06
8.7748e-06
1.05413e-05
1.23914e-05
1.42743e-05
1.61281e-05
1.78778e-05
1.94277e-05
2.0647e-05
2.13307e-05
2.11501e-05
1.94474e-05
1.54955e-05
8.01523e-06
-6.31962e-06
-5.50122e-06
-4.60387e-06
-3.83297e-06
-3.17383e-06
-2.64611e-06
-2.23925e-06
-1.93515e-06
-1.71617e-06
-1.56493e-06
-1.46465e-06
-1.39915e-06
-1.35237e-06
-1.30824e-06
-1.24997e-06
-1.16142e-06
-1.02785e-06
-8.39593e-07
-5.9623e-07
-3.16959e-07
-3.86206e-08
1.97459e-07
3.56198e-07
4.98112e-07
7.19455e-07
1.08428e-06
1.62707e-06
2.35836e-06
3.28e-06
4.38827e-06
5.68719e-06
7.14954e-06
8.74986e-06
1.04603e-05
1.22333e-05
1.40121e-05
1.57266e-05
1.72901e-05
1.85901e-05
1.94717e-05
1.97008e-05
1.89234e-05
1.6562e-05
1.22834e-05
5.81406e-06
-5.81051e-06
-5.1997e-06
-4.4624e-06
-3.75951e-06
-3.14586e-06
-2.63855e-06
-2.23883e-06
-1.93666e-06
-1.7178e-06
-1.56636e-06
-1.4661e-06
-1.40097e-06
-1.35486e-06
-1.31161e-06
-1.25436e-06
-1.167e-06
-1.03487e-06
-8.4815e-07
-6.06048e-07
-3.26834e-07
-4.53747e-08
1.99869e-07
3.74383e-07
5.34522e-07
7.7209e-07
1.14941e-06
1.70004e-06
2.43439e-06
3.352e-06
4.44842e-06
5.73051e-06
7.16106e-06
8.71297e-06
1.03551e-05
1.20345e-05
1.36877e-05
1.52362e-05
1.65827e-05
1.76032e-05
1.81333e-05
1.79474e-05
1.67537e-05
1.4188e-05
1.01018e-05
4.76961e-06
-5.42754e-06
-4.94339e-06
-4.33462e-06
-3.71016e-06
-3.13777e-06
-2.65043e-06
-2.25658e-06
-1.95405e-06
-1.73249e-06
-1.57792e-06
-1.47494e-06
-1.40778e-06
-1.36035e-06
-1.31641e-06
-1.25901e-06
-1.17202e-06
-1.04086e-06
-8.55518e-07
-6.1473e-07
-3.35726e-07
-5.11415e-08
2.0378e-07
3.95295e-07
5.75145e-07
8.30124e-07
1.22067e-06
1.77929e-06
2.51622e-06
3.42397e-06
4.5095e-06
5.76906e-06
7.15891e-06
8.65163e-06
1.02114e-05
1.17799e-05
1.32871e-05
1.46479e-05
1.57581e-05
1.64911e-05
1.6691e-05
1.61703e-05
1.473e-05
1.21968e-05
8.58111e-06
4.2295e-06
-5.11852e-06
-4.721e-06
-4.21244e-06
-3.67247e-06
-3.14772e-06
-2.68154e-06
-2.29441e-06
-1.99036e-06
-1.76365e-06
-1.60283e-06
-1.4938e-06
-1.42149e-06
-1.37004e-06
-1.32318e-06
-1.26388e-06
-1.17601e-06
-1.04507e-06
-8.60792e-07
-6.21353e-07
-3.42784e-07
-5.5222e-08
2.09717e-07
4.19319e-07
6.20196e-07
8.93468e-07
1.29749e-06
1.86389e-06
2.60016e-06
3.4929e-06
4.56871e-06
5.79578e-06
7.13424e-06
8.5555e-06
1.00176e-05
1.14576e-05
1.28002e-05
1.39566e-05
1.48229e-05
1.52788e-05
1.51923e-05
1.44288e-05
1.28796e-05
1.05039e-05
7.41073e-06
3.90712e-06
-4.8476e-06
-4.51896e-06
-4.09616e-06
-3.62776e-06
-3.16008e-06
-2.72476e-06
-2.34878e-06
-2.04445e-06
-1.81196e-06
-1.6427e-06
-1.52452e-06
-1.4437e-06
-1.38508e-06
-1.33255e-06
-1.26913e-06
-1.17873e-06
-1.04695e-06
-8.63222e-07
-6.25094e-07
-3.47203e-07
-5.69164e-08
2.1819e-07
4.46789e-07
6.69765e-07
9.61829e-07
1.37925e-06
1.95204e-06
2.67897e-06
3.56397e-06
4.62062e-06
5.80303e-06
7.07872e-06
8.41528e-06
9.76393e-06
1.10586e-05
1.22218e-05
1.3165e-05
1.37905e-05
1.39946e-05
1.36775e-05
1.27582e-05
1.11993e-05
9.03493e-06
6.40304e-06
3.54495e-06
-4.59406e-06
-4.3208e-06
-3.97194e-06
-3.57391e-06
-3.16062e-06
-2.76648e-06
-2.40911e-06
-2.10923e-06
-1.87348e-06
-1.69566e-06
-1.56638e-06
-1.47428e-06
-1.40547e-06
-1.34442e-06
-1.27443e-06
-1.17959e-06
-1.04571e-06
-8.61919e-07
-6.25052e-07
-3.4816e-07
-5.55638e-08
2.29568e-07
4.77752e-07
7.23588e-07
1.03417e-06
1.46454e-06
2.03662e-06
2.756e-06
3.63485e-06
4.6544e-06
5.78103e-06
6.98284e-06
8.22027e-06
9.44004e-06
1.0575e-05
1.15488e-05
1.22783e-05
1.26778e-05
1.26661e-05
1.21773e-05
1.11752e-05
9.66923e-06
7.72692e-06
5.47907e-06
3.10588e-06
-4.34748e-06
-4.11921e-06
-3.8319e-06
-3.49915e-06
-3.14341e-06
-2.79071e-06
-2.46132e-06
-2.17364e-06
-1.93994e-06
-1.75569e-06
-1.61518e-06
-1.51036e-06
-1.42922e-06
-1.35728e-06
-1.27849e-06
-1.1774e-06
-1.04024e-06
-8.55849e-07
-6.20344e-07
-3.44994e-07
-5.08013e-08
2.43815e-07
5.11549e-07
7.8076e-07
1.10874e-06
1.54766e-06
2.11759e-06
2.83377e-06
3.68802e-06
4.65883e-06
5.71973e-06
6.83459e-06
7.95804e-06
9.03495e-06
9.9994e-06
1.07804e-05
1.13044e-05
1.15018e-05
1.13155e-05
1.07099e-05
9.68082e-06
8.26286e-06
6.53173e-06
4.59836e-06
2.59404e-06
-4.10064e-06
-3.90974e-06
-3.67333e-06
-3.39785e-06
-3.09755e-06
-2.78824e-06
-2.49132e-06
-2.22513e-06
-1.99978e-06
-1.81304e-06
-1.66323e-06
-1.54617e-06
-1.45209e-06
-1.36798e-06
-1.27896e-06
-1.17038e-06
-1.02914e-06
-8.43985e-07
-6.10313e-07
-3.37461e-07
-4.29444e-08
2.59893e-07
5.46857e-07
8.37976e-07
1.18276e-06
1.62353e-06
2.19507e-06
2.89496e-06
3.71023e-06
4.62382e-06
5.60684e-06
6.61985e-06
7.61499e-06
8.53809e-06
9.32586e-06
9.91762e-06
1.02519e-05
1.0277e-05
9.95781e-06
9.28209e-06
8.26506e-06
6.95128e-06
5.4116e-06
3.73477e-06
2.01575e-06
-3.84629e-06
-3.68727e-06
-3.49317e-06
-3.26665e-06
-3.01605e-06
-2.75147e-06
-2.49014e-06
-2.25106e-06
-2.03909e-06
-1.8545e-06
-1.7e-06
-1.57367e-06
-1.46802e-06
-1.37209e-06
-1.27268e-06
-1.15641e-06
-1.01113e-06
-8.25715e-07
-5.94988e-07
-3.2618e-07
-3.31401e-08
2.75039e-07
5.83128e-07
8.87433e-07
1.2467e-06
1.69275e-06
2.25224e-06
2.92331e-06
3.69102e-06
4.53567e-06
5.42639e-06
6.32275e-06
7.17677e-06
7.94052e-06
8.55058e-06
8.96328e-06
9.12944e-06
9.01431e-06
8.60065e-06
7.89156e-06
6.91189e-06
5.70667e-06
4.33661e-06
2.87039e-06
1.37691e-06
-3.5765e-06
-3.44546e-06
-3.28726e-06
-3.10281e-06
-2.89643e-06
-2.67642e-06
-2.45379e-06
-2.24125e-06
-2.04515e-06
-1.86899e-06
-1.71573e-06
-1.58465e-06
-1.47055e-06
-1.36488e-06
-1.25656e-06
-1.13381e-06
-9.85699e-07
-8.01581e-07
-5.7585e-07
-3.13633e-07
-2.47987e-08
2.88088e-07
6.06822e-07
9.25654e-07
1.2919e-06
1.73663e-06
2.27542e-06
2.90634e-06
3.61402e-06
4.37569e-06
5.16004e-06
5.92746e-06
6.62932e-06
7.22301e-06
7.67092e-06
7.92169e-06
7.94495e-06
7.7213e-06
7.24606e-06
6.53101e-06
5.60374e-06
4.50489e-06
3.28381e-06
1.99272e-06
6.81917e-07
-3.28261e-06
-3.17701e-06
-3.05032e-06
-2.90271e-06
-2.73643e-06
-2.55674e-06
-2.37085e-06
-2.18689e-06
-2.01147e-06
-1.84917e-06
-1.70273e-06
-1.57218e-06
-1.45422e-06
-1.34265e-06
-1.22864e-06
-1.10229e-06
-9.54037e-07
-7.74077e-07
-5.56662e-07
-3.04622e-07
-2.36368e-08
2.88713e-07
6.0836e-07
9.39568e-07
1.3071e-06
1.73881e-06
2.24593e-06
2.82439e-06
3.45802e-06
4.12266e-06
4.78793e-06
5.42132e-06
5.96672e-06
6.40378e-06
6.69248e-06
6.80019e-06
6.70701e-06
6.40387e-06
5.89386e-06
5.19232e-06
4.32548e-06
3.32754e-06
2.23733e-06
1.09411e-06
-6.52034e-08
-2.95501e-06
-2.87341e-06
-2.77535e-06
-2.66067e-06
-2.53037e-06
-2.38745e-06
-2.23656e-06
-2.08322e-06
-1.93272e-06
-1.78919e-06
-1.65517e-06
-1.53126e-06
-1.41556e-06
-1.30375e-06
-1.18918e-06
-1.06396e-06
-9.19934e-07
-7.48453e-07
-5.44008e-07
-3.07446e-07
-3.94939e-08
2.60758e-07
5.80499e-07
9.12303e-07
1.27099e-06
1.67812e-06
2.14105e-06
2.65397e-06
3.20024e-06
3.7556e-06
4.2908e-06
4.77094e-06
5.18139e-06
5.47202e-06
5.62062e-06
5.60887e-06
5.4256e-06
5.06863e-06
4.545e-06
3.87035e-06
3.06743e-06
2.16374e-06
1.18906e-06
1.72673e-07
-8.58191e-07
-2.58241e-06
-2.52475e-06
-2.45405e-06
-2.37014e-06
-2.27332e-06
-2.16525e-06
-2.04884e-06
-1.92772e-06
-1.80565e-06
-1.68579e-06
-1.57029e-06
-1.45993e-06
-1.35386e-06
-1.24929e-06
-1.14145e-06
-1.02415e-06
-8.90637e-07
-7.33845e-07
-5.48679e-07
-3.33874e-07
-8.79606e-08
1.93847e-07
5.01756e-07
8.21296e-07
1.1595e-06
1.52975e-06
1.93555e-06
2.37027e-06
2.81833e-06
3.25852e-06
3.66507e-06
4.0144e-06
4.28056e-06
4.43743e-06
4.46827e-06
4.36194e-06
4.11346e-06
3.72464e-06
3.20382e-06
2.56508e-06
1.82697e-06
1.01079e-06
1.38941e-07
-7.66875e-07
-1.68655e-06
-2.15181e-06
-2.1199e-06
-2.07743e-06
-2.02439e-06
-1.96082e-06
-1.88761e-06
-1.80647e-06
-1.71974e-06
-1.62988e-06
-1.5391e-06
-1.44908e-06
-1.36054e-06
-1.27283e-06
-1.18428e-06
-1.09219e-06
-9.91862e-07
-8.77513e-07
-7.43673e-07
-5.85677e-07
-4.0065e-07
-1.85227e-07
6.70431e-08
3.48137e-07
6.40937e-07
9.44706e-07
1.2655e-06
1.60282e-06
1.94932e-06
2.29463e-06
2.62103e-06
2.90709e-06
3.12896e-06
3.26948e-06
3.3142e-06
3.25192e-06
3.07611e-06
2.78545e-06
2.38355e-06
1.87845e-06
1.28185e-06
6.08184e-07
-1.26516e-07
-9.05717e-07
-1.71345e-06
-2.53487e-06
-1.65123e-06
-1.64879e-06
-1.63771e-06
-1.61809e-06
-1.58999e-06
-1.55389e-06
-1.5108e-06
-1.46211e-06
-1.40938e-06
-1.35412e-06
-1.2972e-06
-1.23943e-06
-1.18085e-06
-1.11978e-06
-1.05427e-06
-9.81334e-07
-8.96484e-07
-7.95541e-07
-6.74259e-07
-5.28807e-07
-3.54976e-07
-1.45518e-07
9.38601e-08
3.44465e-07
5.99072e-07
8.57112e-07
1.11622e-06
1.37325e-06
1.61942e-06
1.83967e-06
2.01164e-06
2.12202e-06
2.16101e-06
2.11917e-06
1.9893e-06
1.76813e-06
1.45623e-06
1.05756e-06
5.78905e-07
2.94111e-08
-5.8011e-07
-1.23791e-06
-1.93198e-06
-2.65069e-06
-3.38309e-06
-1.07774e-06
-1.11038e-06
-1.13574e-06
-1.15417e-06
-1.16592e-06
-1.17136e-06
-1.17096e-06
-1.16576e-06
-1.15644e-06
-1.14373e-06
-1.12962e-06
-1.1133e-06
-1.09318e-06
-1.07101e-06
-1.04562e-06
-1.01253e-06
-9.68838e-07
-9.12169e-07
-8.38751e-07
-7.44199e-07
-6.23855e-07
-4.71422e-07
-2.90289e-07
-9.61721e-08
9.86358e-08
2.83733e-07
4.64146e-07
6.31859e-07
7.89766e-07
9.11426e-07
9.8633e-07
1.00927e-06
9.73117e-07
8.70826e-07
6.9813e-07
4.5392e-07
1.39534e-07
-2.41665e-07
-6.84481e-07
-1.18219e-06
-1.72698e-06
-2.31045e-06
-2.92404e-06
-3.55938e-06
-4.2085e-06
-4.28763e-07
-5.05559e-07
-5.75852e-07
-6.40292e-07
-6.99398e-07
-7.53617e-07
-8.03346e-07
-8.49175e-07
-8.91542e-07
-9.31028e-07
-9.68329e-07
-1.00263e-06
-1.03423e-06
-1.06461e-06
-1.09106e-06
-1.10967e-06
-1.11963e-06
-1.11951e-06
-1.10557e-06
-1.07346e-06
-1.0187e-06
-9.3672e-07
-8.29246e-07
-7.07421e-07
-5.83358e-07
-4.69748e-07
-3.65044e-07
-2.63337e-07
-1.87696e-07
-1.47714e-07
-1.44921e-07
-1.83127e-07
-2.68634e-07
-4.06347e-07
-5.98451e-07
-8.45136e-07
-1.14525e-06
-1.49639e-06
-1.89494e-06
-2.33618e-06
-2.81468e-06
-3.3246e-06
-3.85996e-06
-4.41485e-06
-4.98351e-06
3.038e-07
1.70385e-07
4.22347e-08
-8.09139e-08
-1.99601e-07
-3.14373e-07
-4.25661e-07
-5.33833e-07
-6.39214e-07
-7.42081e-07
-8.42723e-07
-9.41196e-07
-1.03728e-06
-1.13034e-06
-1.21887e-06
-1.30158e-06
-1.37764e-06
-1.44492e-06
-1.50016e-06
-1.5394e-06
-1.55932e-06
-1.5572e-06
-1.53059e-06
-1.49046e-06
-1.44934e-06
-1.39786e-06
-1.34199e-06
-1.30017e-06
-1.2901e-06
-1.30741e-06
-1.35062e-06
-1.42457e-06
-1.53466e-06
-1.68396e-06
-1.87371e-06
-2.1042e-06
-2.37496e-06
-2.68462e-06
-3.03086e-06
-3.41063e-06
-3.82038e-06
-4.25622e-06
-4.71415e-06
-5.19007e-06
-5.67993e-06
9.75318e-07
7.80228e-07
5.90091e-07
4.04431e-07
2.22597e-07
4.40348e-08
-1.3164e-07
-3.04685e-07
-4.75282e-07
-6.4352e-07
-8.09433e-07
-9.72829e-07
-1.13326e-06
-1.29033e-06
-1.44349e-06
-1.59166e-06
-1.73306e-06
-1.86558e-06
-1.98668e-06
-2.09328e-06
-2.18318e-06
-2.25361e-06
-2.30027e-06
-2.32828e-06
-2.34151e-06
-2.33994e-06
-2.33734e-06
-2.35001e-06
-2.38186e-06
-2.43012e-06
-2.49607e-06
-2.58396e-06
-2.69742e-06
-2.8388e-06
-3.00965e-06
-3.21086e-06
-3.44259e-06
-3.7042e-06
-3.99444e-06
-4.31155e-06
-4.65339e-06
-5.01756e-06
-5.40146e-06
-5.80241e-06
-6.21764e-06
1.528e-06
1.27381e-06
1.02409e-06
7.7854e-07
5.36663e-07
2.98035e-07
6.23957e-08
-1.70368e-07
-4.00272e-07
-6.27255e-07
-8.51192e-07
-1.07187e-06
-1.28896e-06
-1.502e-06
-1.7102e-06
-1.91222e-06
-2.10648e-06
-2.29122e-06
-2.46427e-06
-2.62349e-06
-2.76624e-06
-2.89036e-06
-2.99158e-06
-3.06704e-06
-3.11876e-06
-3.15814e-06
-3.197e-06
-3.24245e-06
-3.29431e-06
-3.35499e-06
-3.42807e-06
-3.51663e-06
-3.62317e-06
-3.74985e-06
-3.8984e-06
-4.06992e-06
-4.26488e-06
-4.48321e-06
-4.72442e-06
-4.98767e-06
-5.27182e-06
-5.57546e-06
-5.89702e-06
-6.2348e-06
-6.58705e-06
1.92687e-06
1.62179e-06
1.32117e-06
1.02482e-06
7.32445e-07
4.43812e-07
1.5883e-07
-1.22467e-07
-3.99971e-07
-6.73513e-07
-9.42877e-07
-1.20775e-06
-1.46768e-06
-1.72198e-06
-1.96977e-06
-2.20983e-06
-2.44085e-06
-2.66119e-06
-2.86901e-06
-3.0623e-06
-3.23886e-06
-3.39722e-06
-3.53068e-06
-3.63391e-06
-3.71299e-06
-3.77856e-06
-3.83917e-06
-3.89742e-06
-3.95633e-06
-4.02016e-06
-4.09233e-06
-4.17534e-06
-4.2715e-06
-4.38289e-06
-4.51122e-06
-4.65766e-06
-4.82292e-06
-5.00735e-06
-5.21099e-06
-5.4336e-06
-5.67467e-06
-5.93346e-06
-6.20902e-06
-6.50031e-06
-6.80617e-06
2.20831e-06
1.86105e-06
1.51855e-06
1.18078e-06
8.47631e-07
5.19052e-07
1.95128e-07
-1.23963e-07
-4.3799e-07
-7.4667e-07
-1.04966e-06
-1.34653e-06
-1.6367e-06
-1.91945e-06
-2.19389e-06
-2.45896e-06
-2.71343e-06
-2.95582e-06
-3.18455e-06
-3.39786e-06
-3.59405e-06
-3.77173e-06
-3.92323e-06
-4.04444e-06
-4.14151e-06
-4.22336e-06
-4.29448e-06
-4.35933e-06
-4.42252e-06
-4.48786e-06
-4.55826e-06
-4.63618e-06
-4.72391e-06
-4.82343e-06
-4.93638e-06
-5.06402e-06
-5.20731e-06
-5.36692e-06
-5.54326e-06
-5.73649e-06
-5.94652e-06
-6.17305e-06
-6.41563e-06
-6.67365e-06
-6.94641e-06
2.40092e-06
2.01991e-06
1.64421e-06
1.27389e-06
9.09044e-07
5.49798e-07
1.96398e-07
-1.50847e-07
-4.91593e-07
-8.25452e-07
-1.15199e-06
-1.47068e-06
-1.78091e-06
-2.08194e-06
-2.37295e-06
-2.65293e-06
-2.92079e-06
-3.17528e-06
-3.41506e-06
-3.63874e-06
-3.84492e-06
-4.03215e-06
-4.19362e-06
-4.32602e-06
-4.43454e-06
-4.52522e-06
-4.60328e-06
-4.67369e-06
-4.74055e-06
-4.80714e-06
-4.8763e-06
-4.95058e-06
-5.0322e-06
-5.1231e-06
-5.22495e-06
-5.33914e-06
-5.46683e-06
-5.6089e-06
-5.76601e-06
-5.93861e-06
-6.12692e-06
-6.33098e-06
-6.55068e-06
-6.78576e-06
-7.03586e-06
2.53057e-06
2.12315e-06
1.72169e-06
1.32642e-06
9.37566e-07
5.55434e-07
1.80395e-07
-1.87134e-07
-5.4672e-07
-8.97895e-07
-1.24016e-06
-1.57294e-06
-1.89561e-06
-2.20746e-06
-2.50771e-06
-2.79547e-06
-3.06981e-06
-3.32968e-06
-3.57404e-06
-3.8018e-06
-4.01191e-06
-4.2032e-06
-4.3698e-06
-4.50833e-06
-4.62331e-06
-4.72011e-06
-4.80381e-06
-4.87874e-06
-4.94854e-06
-5.0164e-06
-5.08516e-06
-5.15733e-06
-5.2351e-06
-5.32042e-06
-5.415e-06
-5.52034e-06
-5.63772e-06
-5.76816e-06
-5.91253e-06
-6.07148e-06
-6.24547e-06
-6.4348e-06
-6.63962e-06
-6.85992e-06
-7.0956e-06
2.61639e-06
2.18857e-06
1.76743e-06
1.35333e-06
9.46632e-07
5.47761e-07
1.57199e-07
-2.2456e-07
-5.97012e-07
-9.59639e-07
-1.3119e-06
-1.6532e-06
-1.98294e-06
-2.30043e-06
-2.60499e-06
-2.89583e-06
-3.1722e-06
-3.43325e-06
-3.6782e-06
-3.90622e-06
-4.11666e-06
-4.30863e-06
-4.47663e-06
-4.61863e-06
-4.73781e-06
-4.83917e-06
-4.92712e-06
-5.00557e-06
-5.07798e-06
-5.14744e-06
-5.2167e-06
-5.28817e-06
-5.36405e-06
-5.44628e-06
-5.53664e-06
-5.63667e-06
-5.74774e-06
-5.87101e-06
-6.00748e-06
-6.15797e-06
-6.32313e-06
-6.50346e-06
-6.69929e-06
-6.91083e-06
-7.13818e-06
2.67211e-06
2.22859e-06
1.79248e-06
1.36425e-06
9.44371e-07
5.3337e-07
1.31805e-07
-2.59771e-07
-6.40808e-07
-1.01075e-06
-1.36905e-06
-1.7151e-06
-2.04834e-06
-2.36813e-06
-2.67386e-06
-2.96489e-06
-3.24061e-06
-3.50036e-06
-3.7436e-06
-3.96972e-06
-4.1784e-06
-4.36909e-06
-4.53697e-06
-4.68023e-06
-4.802e-06
-4.90651e-06
-4.99763e-06
-5.07897e-06
-5.15383e-06
-5.22511e-06
-5.29543e-06
-5.36718e-06
-5.44251e-06
-5.52339e-06
-5.61161e-06
-5.70876e-06
-5.81629e-06
-5.93547e-06
-6.06742e-06
-6.21308e-06
-6.37326e-06
-6.5486e-06
-6.73961e-06
-6.94663e-06
-7.16992e-06
2.7072e-06
2.25149e-06
1.8039e-06
1.36499e-06
9.3531e-07
5.1548e-07
1.06107e-07
-2.92213e-07
-6.78901e-07
-1.05338e-06
-1.41509e-06
-1.76346e-06
-2.09793e-06
-2.41795e-06
-2.72299e-06
-3.01252e-06
-3.28606e-06
-3.54314e-06
-3.7834e-06
-4.00644e-06
-4.21223e-06
-4.40043e-06
-4.56693e-06
-4.7103e-06
-4.83352e-06
-4.94014e-06
-5.0336e-06
-5.11731e-06
-5.19431e-06
-5.26738e-06
-5.33901e-06
-5.41154e-06
-5.4871e-06
-5.56765e-06
-5.65502e-06
-5.75084e-06
-5.85663e-06
-5.97375e-06
-6.10341e-06
-6.24667e-06
-6.40444e-06
-6.57749e-06
-6.76645e-06
-6.97179e-06
-7.19387e-06
2.72804e-06
2.2627e-06
1.80615e-06
1.359e-06
9.21914e-07
4.95552e-07
8.05665e-08
-3.2242e-07
-7.12804e-07
-1.09e-06
-1.45345e-06
-1.8026e-06
-2.13695e-06
-2.45598e-06
-2.75927e-06
-3.04637e-06
-3.31694e-06
-3.57064e-06
-3.8073e-06
-4.02668e-06
-4.22899e-06
-4.41399e-06
-4.57833e-06
-4.72103e-06
-4.84489e-06
-4.95281e-06
-5.04793e-06
-5.13346e-06
-5.21223e-06
-5.28687e-06
-5.35978e-06
-5.43326e-06
-5.50939e-06
-5.59016e-06
-5.67739e-06
-5.77279e-06
-5.87792e-06
-5.99422e-06
-6.12297e-06
-6.26532e-06
-6.4223e-06
-6.59476e-06
-6.78342e-06
-6.98886e-06
-7.21155e-06
2.73902e-06
2.26587e-06
1.80213e-06
1.34849e-06
9.05652e-07
4.74335e-07
5.5217e-08
-3.51056e-07
-7.43867e-07
-1.12263e-06
-1.48679e-06
-1.83582e-06
-2.16926e-06
-2.48665e-06
-2.78764e-06
-3.07188e-06
-3.33913e-06
-3.58917e-06
-3.82198e-06
-4.03748e-06
-4.23602e-06
-4.41753e-06
-4.57931e-06
-4.72073e-06
-4.84461e-06
-4.95322e-06
-5.04941e-06
-5.13624e-06
-5.21636e-06
-5.29226e-06
-5.36627e-06
-5.44063e-06
-5.51741e-06
-5.59859e-06
-5.68602e-06
-5.78145e-06
-5.8865e-06
-6.00264e-06
-6.13126e-06
-6.27358e-06
-6.43069e-06
-6.60354e-06
-6.79293e-06
-6.99953e-06
-7.22384e-06
2.7432e-06
2.26356e-06
1.79391e-06
1.33498e-06
8.87543e-07
4.52342e-07
3.00791e-08
-3.78583e-07
-7.73016e-07
-1.15264e-06
-1.5169e-06
-1.86531e-06
-2.19744e-06
-2.5129e-06
-2.81137e-06
-3.09261e-06
-3.35646e-06
-3.60282e-06
-3.83178e-06
-4.04339e-06
-4.23814e-06
-4.41607e-06
-4.57512e-06
-4.71476e-06
-4.83826e-06
-4.9471e-06
-5.04386e-06
-5.13152e-06
-5.21258e-06
-5.2894e-06
-5.36425e-06
-5.43931e-06
-5.51664e-06
-5.59822e-06
-5.68594e-06
-5.78156e-06
-5.88675e-06
-6.00307e-06
-6.13193e-06
-6.27464e-06
-6.43235e-06
-6.6061e-06
-6.79676e-06
-7.00503e-06
-7.23151e-06
2.74279e-06
2.25762e-06
1.78296e-06
1.31961e-06
8.68374e-07
4.30019e-07
5.26583e-09
-4.05206e-07
-8.00766e-07
-1.18083e-06
-1.54487e-06
-1.89242e-06
-2.22308e-06
-2.53651e-06
-2.83246e-06
-3.11074e-06
-3.37129e-06
-3.6141e-06
-3.83935e-06
-4.04719e-06
-4.23824e-06
-4.41267e-06
-4.56888e-06
-4.7066e-06
-4.82931e-06
-4.93807e-06
-5.035e-06
-5.1231e-06
-5.20473e-06
-5.28214e-06
-5.35754e-06
-5.43307e-06
-5.51078e-06
-5.59265e-06
-5.68059e-06
-5.77639e-06
-5.88177e-06
-5.99834e-06
-6.12757e-06
-6.27083e-06
-6.42933e-06
-6.60418e-06
-6.79629e-06
-7.00644e-06
-7.23527e-06
2.73938e-06
2.24939e-06
1.7704e-06
1.30325e-06
8.48781e-07
4.07773e-07
-1.90309e-08
-4.30943e-07
-8.27329e-07
-1.20761e-06
-1.57128e-06
-1.91788e-06
-2.24705e-06
-2.5585e-06
-2.85202e-06
-3.1275e-06
-3.38494e-06
-3.62441e-06
-3.84617e-06
-4.05045e-06
-4.23797e-06
-4.40904e-06
-4.56213e-06
-4.69825e-06
-4.81991e-06
-4.92833e-06
-5.02509e-06
-5.11332e-06
-5.1952e-06
-5.27292e-06
-5.3486e-06
-5.42437e-06
-5.50226e-06
-5.58425e-06
-5.67228e-06
-5.76817e-06
-5.87368e-06
-5.99046e-06
-6.12004e-06
-6.26384e-06
-6.42315e-06
-6.5991e-06
-6.79268e-06
-7.0047e-06
-7.23585e-06
2.73409e-06
2.23985e-06
1.75704e-06
1.28657e-06
8.29275e-07
3.85974e-07
-4.25814e-08
-4.55695e-07
-8.5273e-07
-1.23311e-06
-1.59635e-06
-1.94201e-06
-2.26976e-06
-2.57935e-06
-2.87061e-06
-3.14349e-06
-3.39805e-06
-3.63443e-06
-3.85296e-06
-4.05395e-06
-4.23817e-06
-4.40604e-06
-4.55621e-06
-4.69077e-06
-4.81125e-06
-4.91902e-06
-5.01543e-06
-5.10353e-06
-5.18543e-06
-5.2632e-06
-5.33895e-06
-5.41474e-06
-5.49262e-06
-5.57458e-06
-5.66255e-06
-5.7584e-06
-5.86392e-06
-5.98081e-06
-6.11066e-06
-6.25493e-06
-6.41495e-06
-6.59191e-06
-6.78685e-06
-7.00062e-06
-7.23395e-06
2.72776e-06
2.22971e-06
1.74352e-06
1.27008e-06
8.1029e-07
3.64967e-07
-6.5123e-08
-4.79276e-07
-8.76854e-07
-1.25729e-06
-1.6201e-06
-1.96488e-06
-2.29132e-06
-2.5992e-06
-2.8884e-06
-3.15891e-06
-3.41085e-06
-3.64441e-06
-3.85999e-06
-4.05797e-06
-4.23915e-06
-4.40401e-06
-4.55145e-06
-4.68454e-06
-4.8038e-06
-4.91067e-06
-5.00665e-06
-5.09446e-06
-5.17618e-06
-5.25383e-06
-5.32946e-06
-5.40511e-06
-5.48283e-06
-5.56459e-06
-5.65237e-06
-5.74806e-06
-5.85348e-06
-5.97037e-06
-6.10037e-06
-6.24498e-06
-6.40558e-06
-6.58342e-06
-6.77956e-06
-6.99491e-06
-7.23021e-06
2.72097e-06
2.21952e-06
1.73029e-06
1.25421e-06
7.92195e-07
3.45071e-07
-8.63822e-08
-5.01454e-07
-8.99507e-07
-1.27998e-06
-1.6424e-06
-1.98639e-06
-2.31164e-06
-2.61798e-06
-2.90532e-06
-3.1737e-06
-3.42329e-06
-3.65431e-06
-3.86724e-06
-4.06249e-06
-4.24092e-06
-4.40303e-06
-4.54807e-06
-4.67951e-06
-4.7976e-06
-4.90355e-06
-4.99903e-06
-5.08644e-06
-5.16786e-06
-5.24526e-06
-5.32063e-06
-5.39602e-06
-5.47344e-06
-5.55491e-06
-5.64238e-06
-5.7378e-06
-5.84302e-06
-5.9598e-06
-6.08983e-06
-6.23466e-06
-6.39572e-06
-6.57428e-06
-6.77145e-06
-6.98817e-06
-7.22521e-06
2.71398e-06
2.20945e-06
1.71747e-06
1.23902e-06
7.74989e-07
3.26243e-07
-1.06437e-07
-5.22336e-07
-9.20817e-07
-1.30133e-06
-1.6634e-06
-2.00666e-06
-2.33086e-06
-2.63581e-06
-2.92149e-06
-3.18796e-06
-3.43542e-06
-3.66416e-06
-3.87469e-06
-4.06748e-06
-4.24341e-06
-4.40301e-06
-4.5459e-06
-4.67562e-06
-4.79259e-06
-4.89766e-06
-4.99255e-06
-5.07948e-06
-5.16052e-06
-5.23755e-06
-5.31258e-06
-5.3876e-06
-5.46463e-06
-5.5457e-06
-5.63279e-06
-5.72785e-06
-5.83276e-06
-5.94935e-06
-6.07931e-06
-6.22425e-06
-6.38563e-06
-6.56477e-06
-6.7628e-06
-6.98071e-06
-7.21929e-06
2.70658e-06
2.1991e-06
1.7045e-06
1.22376e-06
7.57811e-07
3.07512e-07
-1.26344e-07
-5.43037e-07
-9.41933e-07
-1.32248e-06
-1.68423e-06
-2.02682e-06
-2.35001e-06
-2.65366e-06
-2.93776e-06
-3.20241e-06
-3.44786e-06
-3.67444e-06
-3.88268e-06