/*--------------------------------*- C++ -*----------------------------------*\
| =========                 |                                                 |
| \\      /  F ield         | OpenFOAM: The Open Source CFD Toolbox           |
|  \\    /   O peration     | Version:  2312                                  |
|   \\  /    A nd           | Website:  www.openfoam.com                      |
|    \\/     M anipulation  |                                                 |
\*---------------------------------------------------------------------------*/
FoamFile
{
    version     2.0;
    format      ascii;
    arch        "LSB;label=32;scalar=64";
    class       surfaceScalarField;
    location    "117.25";
    object      phi;
}
// * * * * * * * * * * * * * * * * * * * * * * * * * * * * * * * * * * * * * //

dimensions      [0 3 -1 0 0 0 0];

oriented        oriented;

internalField   nonuniform List<scalar> 
9445
(
5.7005e-10
1.19423e-11
5.63558e-10
6.4923e-12
5.60409e-10
3.14927e-12
5.59469e-10
9.39641e-13
5.60154e-10
-6.85126e-13
5.61812e-10
-1.65768e-12
5.64382e-10
-2.57055e-12
5.67898e-10
-3.51534e-12
5.72475e-10
-4.57735e-12
5.78466e-10
-5.99105e-12
5.86966e-10
-8.50028e-12
6.01507e-10
-1.45404e-11
6.34461e-10
-3.29545e-11
7.28928e-10
-9.44665e-11
-2.4193e-10
9.70858e-10
1.99509e-09
5.18268e-11
1.97329e-09
2.82923e-11
1.96257e-09
1.38764e-11
1.95921e-09
4.29772e-12
1.96094e-09
-2.41782e-12
1.9659e-09
-6.61422e-12
1.97385e-09
-1.05192e-11
1.98469e-09
-1.43638e-11
1.99878e-09
-1.86683e-11
2.01718e-09
-2.43854e-11
2.04266e-09
-3.39857e-11
2.08201e-09
-5.38867e-11
2.14822e-09
-9.9167e-11
2.25331e-09
-1.99553e-10
-3.50991e-10
2.36237e-09
3.94557e-09
1.27264e-10
3.90412e-09
6.97396e-11
3.88346e-09
3.45411e-11
3.87661e-09
1.11415e-11
3.879e-09
-4.80054e-12
3.88736e-09
-1.4975e-11
3.9012e-09
-2.43653e-11
3.92005e-09
-3.32138e-11
3.94424e-09
-4.28541e-11
3.9751e-09
-5.52415e-11
4.01542e-09
-7.43113e-11
4.06977e-09
-1.08237e-10
4.14076e-09
-1.70156e-10
4.2149e-09
-2.73692e-10
-3.93614e-10
4.25752e-09
6.56703e-09
2.46674e-10
6.50094e-09
1.35833e-10
6.46743e-09
6.80544e-11
6.45548e-09
2.30883e-11
6.45767e-09
-6.99511e-12
6.46908e-09
-2.638e-11
6.4887e-09
-4.39826e-11
6.51538e-09
-5.98969e-11
6.54897e-09
-7.64471e-11
6.5903e-09
-9.65711e-11
6.64053e-09
-1.2454e-10
6.69945e-09
-1.67156e-10
6.76085e-09
-2.31553e-10
6.80558e-09
-3.18428e-10
-4.01439e-10
6.81341e-09
1.00354e-08
4.18366e-10
9.93945e-09
2.31806e-10
9.8898e-09
1.17702e-10
9.87058e-09
4.23109e-11
9.8712e-09
-7.6179e-12
9.88485e-09
-4.00299e-11
9.90934e-09
-6.84646e-11
9.94267e-09
-9.3227e-11
9.9837e-09
-1.17484e-10
1.0032e-08
-1.44892e-10
1.00864e-08
-1.78954e-10
1.01428e-08
-2.23469e-10
1.01911e-08
-2.79905e-10
1.02157e-08
-3.43019e-10
-3.93923e-10
1.02082e-08
1.45583e-08
6.48399e-10
1.44281e-08
3.61981e-10
1.43593e-08
1.86499e-10
1.43304e-08
7.12264e-11
1.43276e-08
-4.88315e-12
1.43424e-08
-5.47945e-11
1.43702e-08
-9.6243e-11
1.4408e-08
-1.31054e-10
1.44536e-08
-1.63028e-10
1.45047e-08
-1.9607e-10
1.45583e-08
-2.32488e-10
1.46081e-08
-2.733e-10
1.4645e-08
-3.16769e-10
1.4659e-08
-3.57081e-10
-3.83732e-10
1.46488e-08
2.03724e-08
9.36538e-10
2.02069e-08
5.27428e-10
2.01177e-08
2.75748e-10
2.00775e-08
1.11394e-10
2.00699e-08
2.7885e-12
2.00843e-08
-6.92647e-11
2.01136e-08
-1.25527e-10
2.01534e-08
-1.70806e-10
2.02001e-08
-2.09817e-10
2.02503e-08
-2.46248e-10
2.02994e-08
-2.81548e-10
2.03414e-08
-3.15314e-10
2.03698e-08
-3.45197e-10
2.03801e-08
-3.67316e-10
-3.77164e-10
2.03735e-08
2.77371e-08
1.26995e-09
2.75425e-08
7.22023e-10
2.74358e-08
3.82496e-10
2.73856e-08
1.61547e-10
2.73731e-08
1.52985e-11
2.73862e-08
-8.23953e-11
2.74156e-08
-1.54856e-10
2.74553e-08
-2.10513e-10
2.75007e-08
-2.55246e-10
2.75472e-08
-2.92805e-10
2.75902e-08
-3.24533e-10
2.7625e-08
-3.50103e-10
2.7648e-08
-3.6818e-10
2.76579e-08
-3.77239e-10
-3.76238e-10
2.7657e-08
3.69244e-08
1.6162e-09
3.67189e-08
9.27487e-10
3.66054e-08
4.96037e-10
3.65517e-08
2.1519e-10
3.6538e-08
2.89752e-11
3.65513e-08
-9.56946e-11
3.6581e-08
-1.84567e-10
3.66202e-08
-2.49702e-10
3.66634e-08
-2.98457e-10
3.67059e-08
-3.35243e-10
3.67435e-08
-3.62143e-10
3.67733e-08
-3.79895e-10
3.67938e-08
-3.88708e-10
3.68055e-08
-3.88933e-10
-3.81302e-10
3.68106e-08
4.82154e-08
1.92148e-09
4.80323e-08
1.11055e-09
4.79331e-08
5.95231e-10
4.789e-08
2.58367e-10
4.78843e-08
3.46528e-11
4.79036e-08
-1.14989e-10
4.79373e-08
-2.18344e-10
4.79784e-08
-2.90803e-10
4.80214e-08
-3.41454e-10
4.80621e-08
-3.75922e-10
4.80976e-08
-3.97571e-10
4.81262e-08
-4.08541e-10
4.81479e-08
-4.1043e-10
4.81638e-08
-4.04802e-10
-3.93209e-10
4.81757e-08
6.1925e-08
2.12483e-09
6.18063e-08
1.22923e-09
6.17503e-08
6.51206e-10
6.17378e-08
2.70879e-10
6.17546e-08
1.79013e-11
6.17901e-08
-1.50503e-10
6.18354e-08
-2.63696e-10
6.18844e-08
-3.39752e-10
6.19325e-08
-3.89568e-10
6.19768e-08
-4.20205e-10
6.20156e-08
-4.36392e-10
6.20486e-08
-4.41505e-10
6.20762e-08
-4.38117e-10
6.20999e-08
-4.2844e-10
-4.14347e-10
6.2121e-08
7.84743e-08
2.19221e-09
7.84496e-08
1.25395e-09
7.84601e-08
6.407e-10
7.8496e-08
2.34957e-10
7.85489e-08
-3.4998e-11
7.86112e-08
-2.12761e-10
7.86766e-08
-3.29112e-10
7.87408e-08
-4.03942e-10
7.8801e-08
-4.49769e-10
7.88557e-08
-4.74949e-10
7.89046e-08
-4.85287e-10
7.89481e-08
-4.84991e-10
7.89872e-08
-4.77181e-10
7.90231e-08
-4.64324e-10
-4.48338e-10
7.90571e-08
9.84832e-08
2.1459e-09
9.85443e-08
1.19287e-09
9.8619e-08
5.65994e-10
9.87038e-08
1.50163e-10
9.87942e-08
-1.25346e-10
9.88851e-08
-3.03671e-10
9.8973e-08
-4.17002e-10
9.90555e-08
-4.86467e-10
9.91315e-08
-5.25832e-10
9.9201e-08
-5.44406e-10
9.92644e-08
-5.48668e-10
9.93226e-08
-5.43253e-10
9.9377e-08
-5.31498e-10
9.94285e-08
-5.15888e-10
-4.98249e-10
9.94784e-08
1.22761e-07
2.04663e-09
1.22864e-07
1.08997e-09
1.22971e-07
4.59175e-10
1.2308e-07
4.02104e-11
1.2319e-07
-2.35198e-10
1.23296e-07
-4.09748e-10
1.23397e-07
-5.17477e-10
1.23491e-07
-5.80376e-10
1.23578e-07
-6.13095e-10
1.23659e-07
-6.2556e-10
1.23735e-07
-6.24612e-10
1.23807e-07
-6.15054e-10
1.23876e-07
-6.00258e-10
1.23942e-07
-5.82624e-10
-5.63837e-10
1.24008e-07
1.52097e-07
1.93783e-09
1.522e-07
9.86366e-10
1.52302e-07
3.56991e-10
1.52407e-07
-6.47474e-11
1.5251e-07
-3.37958e-10
1.5261e-07
-5.09214e-10
1.52705e-07
-6.12764e-10
1.52796e-07
-6.71249e-10
1.52882e-07
-6.99809e-10
1.52966e-07
-7.08712e-10
1.53046e-07
-7.04975e-10
1.53124e-07
-6.93449e-10
1.53202e-07
-6.77469e-10
1.53278e-07
-6.59333e-10
-6.40592e-10
1.53355e-07
1.86977e-07
1.81909e-09
1.87073e-07
8.90095e-10
1.87159e-07
2.71598e-10
1.87244e-07
-1.49705e-10
1.87325e-07
-4.19595e-10
1.87405e-07
-5.88661e-10
1.87483e-07
-6.90699e-10
1.8756e-07
-7.48149e-10
1.87636e-07
-7.7613e-10
1.87712e-07
-7.84951e-10
1.87789e-07
-7.81639e-10
1.87866e-07
-7.71011e-10
1.87945e-07
-7.56328e-10
1.88026e-07
-7.39792e-10
-7.22827e-10
1.88108e-07
2.27434e-07
1.66885e-09
2.27536e-07
7.87633e-10
2.27614e-07
1.93546e-10
2.27684e-07
-2.19044e-10
2.27746e-07
-4.82138e-10
2.27806e-07
-6.48524e-10
2.27866e-07
-7.50579e-10
2.27927e-07
-8.09572e-10
2.27991e-07
-8.39973e-10
2.28058e-07
-8.51768e-10
2.28128e-07
-8.51795e-10
2.28202e-07
-8.44726e-10
2.28279e-07
-8.33708e-10
2.2836e-07
-8.20839e-10
-8.07478e-10
2.28445e-07
2.7295e-07
1.47496e-09
2.73072e-07
6.65613e-10
2.73152e-07
1.1363e-10
2.73215e-07
-2.81454e-10
2.73265e-07
-5.32897e-10
2.73312e-07
-6.95468e-10
2.7336e-07
-7.98185e-10
2.73411e-07
-8.60402e-10
2.73466e-07
-8.9545e-10
2.73527e-07
-9.12641e-10
2.73594e-07
-9.18403e-10
2.73666e-07
-9.17128e-10
2.73744e-07
-9.1177e-10
2.73828e-07
-9.04299e-10
-8.9601e-10
2.73916e-07
3.22149e-07
1.23972e-09
3.22291e-07
5.23886e-10
3.22382e-07
2.30134e-11
3.22444e-07
-3.43731e-10
3.22492e-07
-5.81012e-10
3.22535e-07
-7.38464e-10
3.22579e-07
-8.41527e-10
3.22625e-07
-9.07334e-10
3.22678e-07
-9.47862e-10
3.22737e-07
-9.71543e-10
3.22803e-07
-9.84203e-10
3.22875e-07
-9.89852e-10
3.22955e-07
-9.91196e-10
3.2304e-07
-9.90067e-10
-9.87364e-10
3.23132e-07
3.72133e-07
9.64288e-10
3.72299e-07
3.57345e-10
3.72405e-07
-8.31797e-11
3.72455e-07
-3.93505e-10
3.7248e-07
-6.06295e-10
3.72495e-07
-7.52578e-10
3.72506e-07
-8.52882e-10
3.7252e-07
-9.21165e-10
3.72539e-07
-9.67399e-10
3.72566e-07
-9.98616e-10
3.72602e-07
-1.01964e-09
3.72646e-07
-1.03382e-09
3.72698e-07
-1.04343e-09
3.72758e-07
-1.05008e-09
-1.05489e-09
3.72826e-07
3.7026e-07
6.77067e-10
3.70432e-07
1.85181e-10
3.70535e-07
-1.86171e-10
3.70588e-07
-4.46045e-10
3.70614e-07
-6.32799e-10
3.70628e-07
-7.66706e-10
3.70638e-07
-8.62505e-10
3.70648e-07
-9.31503e-10
3.70663e-07
-9.81708e-10
3.70683e-07
-1.01871e-09
3.7071e-07
-1.04636e-09
3.70743e-07
-1.06739e-09
3.70783e-07
-1.08368e-09
3.7083e-07
-1.09659e-09
-1.10689e-09
3.70882e-07
3.17796e-07
4.81155e-10
3.17903e-07
7.73377e-11
3.17944e-07
-2.26381e-10
3.17949e-07
-4.51578e-10
3.17934e-07
-6.17741e-10
3.17909e-07
-7.413e-10
3.1788e-07
-8.3392e-10
3.17853e-07
-9.04119e-10
3.17829e-07
-9.58038e-10
3.1781e-07
-1.00009e-09
3.17797e-07
-1.03338e-09
3.1779e-07
-1.06014e-09
3.17788e-07
-1.08193e-09
3.17792e-07
-1.09985e-09
-1.11464e-09
3.17799e-07
2.66699e-07
2.97999e-10
2.66802e-07
-2.56159e-11
2.66848e-07
-2.72252e-10
2.66857e-07
-4.6077e-10
2.66844e-07
-6.04668e-10
2.66818e-07
-7.15171e-10
2.66785e-07
-8.00995e-10
2.6675e-07
-8.68514e-10
2.66714e-07
-9.22343e-10
2.6668e-07
-9.65838e-10
2.66648e-07
-1.00141e-09
2.66618e-07
-1.03081e-09
2.66592e-07
-1.05525e-09
2.66567e-07
-1.07558e-09
-1.09241e-09
2.66545e-07
2.20261e-07
1.5309e-10
2.20339e-07
-1.03381e-10
2.2037e-07
-3.03199e-10
2.20368e-07
-4.59509e-10
2.20346e-07
-5.82237e-10
2.2031e-07
-6.79238e-10
2.20266e-07
-7.56747e-10
2.20217e-07
-8.19462e-10
2.20165e-07
-8.70813e-10
2.20113e-07
-9.13298e-10
2.2006e-07
-9.48719e-10
2.20008e-07
-9.78385e-10
2.19955e-07
-1.00321e-09
2.19904e-07
-1.02385e-09
-1.04076e-09
2.19852e-07
1.79526e-07
4.90239e-11
1.79575e-07
-1.52119e-10
1.79585e-07
-3.12805e-10
1.79566e-07
-4.41019e-10
1.79528e-07
-5.44163e-10
1.79477e-07
-6.27788e-10
1.79416e-07
-6.96248e-10
1.7935e-07
-7.52885e-10
1.79279e-07
-8.00173e-10
1.79206e-07
-8.39921e-10
1.7913e-07
-8.73438e-10
1.79054e-07
-9.01682e-10
1.78976e-07
-9.25319e-10
1.78897e-07
-9.44838e-10
-9.60562e-10
1.78817e-07
1.44639e-07
-1.44631e-11
1.44659e-07
-1.71695e-10
1.44645e-07
-2.99431e-10
1.44608e-07
-4.03543e-10
1.44553e-07
-4.89201e-10
1.44485e-07
-5.60241e-10
1.44409e-07
-6.19624e-10
1.44325e-07
-6.69648e-10
1.44237e-07
-7.12047e-10
1.44145e-07
-7.48102e-10
1.44051e-07
-7.78738e-10
1.43954e-07
-8.04636e-10
1.43855e-07
-8.26269e-10
1.43754e-07
-8.43988e-10
-8.5802e-10
1.43651e-07
1.15286e-07
-4.47859e-11
1.15281e-07
-1.66687e-10
1.15249e-07
-2.67498e-10
1.15197e-07
-3.51416e-10
1.1513e-07
-4.21943e-10
1.15051e-07
-4.81618e-10
1.14964e-07
-5.32403e-10
1.1487e-07
-5.75848e-10
1.14771e-07
-6.13141e-10
1.14668e-07
-6.45162e-10
1.14562e-07
-6.72549e-10
1.14453e-07
-6.9577e-10
1.14342e-07
-7.1515e-10
1.14229e-07
-7.30935e-10
-7.43283e-10
1.14114e-07
9.09503e-08
-5.22339e-11
9.09297e-08
-1.46102e-10
9.08874e-08
-2.2518e-10
9.08284e-08
-2.92392e-10
9.07564e-08
-3.49988e-10
9.06744e-08
-3.99583e-10
9.05844e-08
-4.42456e-10
9.04882e-08
-4.79638e-10
9.0387e-08
-5.11919e-10
9.02817e-08
-5.39884e-10
9.01731e-08
-5.63958e-10
9.00618e-08
-5.84454e-10
8.99482e-08
-6.01587e-10
8.98328e-08
-6.15526e-10
-6.26373e-10
8.97159e-08
7.10314e-08
-4.71706e-11
7.10041e-08
-1.18806e-10
7.09592e-08
-1.80359e-10
7.09006e-08
-2.33725e-10
7.08308e-08
-2.80248e-10
7.07522e-08
-3.20923e-10
7.06663e-08
-3.56577e-10
7.05745e-08
-3.87878e-10
7.04779e-08
-4.15333e-10
7.03774e-08
-4.39319e-10
7.02735e-08
-4.60107e-10
7.0167e-08
-4.77898e-10
7.00582e-08
-4.92828e-10
6.99477e-08
-5.05007e-10
-5.145e-10
6.98358e-08
5.49077e-08
-3.69798e-11
5.48799e-08
-9.10386e-11
5.4838e-08
-1.38399e-10
5.47845e-08
-1.80212e-10
5.47214e-08
-2.17196e-10
5.46504e-08
-2.49958e-10
5.45729e-08
-2.7903e-10
5.44898e-08
-3.04829e-10
5.44022e-08
-3.2767e-10
5.43106e-08
-3.47782e-10
5.42159e-08
-3.65332e-10
5.41184e-08
-3.8044e-10
5.40188e-08
-3.93188e-10
5.39174e-08
-4.03644e-10
-4.11842e-10
5.38148e-08
4.19789e-08
-2.6093e-11
4.19541e-08
-6.62193e-11
4.19178e-08
-1.02056e-10
4.18717e-08
-1.34182e-10
4.18175e-08
-1.62936e-10
4.17562e-08
-1.88698e-10
4.1689e-08
-2.11805e-10
4.16167e-08
-2.32508e-10
4.154e-08
-2.5099e-10
4.14596e-08
-2.67384e-10
4.1376e-08
-2.81785e-10
4.12899e-08
-2.94259e-10
4.12015e-08
-3.0485e-10
4.11115e-08
-3.13596e-10
-3.20512e-10
4.10201e-08
3.16962e-08
-1.6621e-11
3.16758e-08
-4.57654e-11
3.1646e-08
-7.22543e-11
3.16081e-08
-9.62843e-11
3.15632e-08
-1.17996e-10
3.15121e-08
-1.37642e-10
3.14557e-08
-1.55431e-10
3.13947e-08
-1.71504e-10
3.13297e-08
-1.85962e-10
3.12612e-08
-1.98874e-10
3.11897e-08
-2.10289e-10
3.11157e-08
-2.20237e-10
3.10396e-08
-2.2874e-10
3.09618e-08
-2.35814e-10
-2.41461e-10
3.08827e-08
2.35787e-08
-9.35354e-12
2.35628e-08
-2.99237e-11
2.35395e-08
-4.88859e-11
2.35094e-08
-6.62379e-11
2.34735e-08
-8.2033e-11
2.34323e-08
-9.64512e-11
2.33865e-08
-1.09617e-10
2.33366e-08
-1.21603e-10
2.32831e-08
-1.32459e-10
2.32264e-08
-1.42216e-10
2.3167e-08
-1.50894e-10
2.31053e-08
-1.58504e-10
2.30416e-08
-1.65052e-10
2.29763e-08
-1.7054e-10
-1.74964e-10
2.29098e-08
1.72168e-08
-4.39833e-12
1.72052e-08
-1.83309e-11
1.71876e-08
-3.13348e-11
1.71647e-08
-4.33012e-11
1.71369e-08
-5.42582e-11
1.71048e-08
-6.43397e-11
1.70688e-08
-7.36153e-11
1.70293e-08
-8.21185e-11
1.69867e-08
-8.9869e-11
1.69414e-08
-9.68759e-11
1.68936e-08
-1.03145e-10
1.68438e-08
-1.08674e-10
1.67922e-08
-1.13464e-10
1.67392e-08
-1.17509e-10
-1.20799e-10
1.6685e-08
1.22684e-08
-1.4504e-12
1.22604e-08
-1.03508e-11
1.22478e-08
-1.87631e-11
1.22311e-08
-2.65204e-11
1.22105e-08
-3.36588e-11
1.21864e-08
-4.02749e-11
1.21592e-08
-4.64047e-11
1.21291e-08
-5.20599e-11
1.20965e-08
-5.72451e-11
1.20616e-08
-6.1959e-11
1.20246e-08
-6.61999e-11
1.19859e-08
-6.99621e-11
1.19457e-08
-7.32422e-11
1.19042e-08
-7.60316e-11
-7.83191e-11
1.18618e-08
8.45144e-09
-1.56316e-14
8.44634e-09
-5.25156e-12
8.43783e-09
-1.02527e-11
8.42617e-09
-1.48592e-11
8.41163e-09
-1.91182e-11
8.39445e-09
-2.30928e-11
8.37485e-09
-2.67996e-11
8.35303e-09
-3.024e-11
8.32919e-09
-3.34121e-11
8.30354e-09
-3.63112e-11
8.27628e-09
-3.89333e-11
8.24759e-09
-4.12722e-11
8.21767e-09
-4.33244e-11
8.18672e-09
-4.50811e-11
-4.65299e-11
8.15493e-09
5.53503e-09
4.26471e-13
5.53208e-09
-2.29569e-12
5.52672e-09
-4.8933e-12
5.51914e-09
-7.28336e-12
5.50953e-09
-9.5031e-12
5.49802e-09
-1.15884e-11
5.48477e-09
-1.35461e-11
5.4699e-09
-1.53738e-11
5.45356e-09
-1.70681e-11
5.43587e-09
-1.86243e-11
5.41698e-09
-2.00391e-11
5.39701e-09
-2.13074e-11
5.37611e-09
-2.24269e-11
5.35442e-09
-2.33909e-11
-2.41868e-11
5.33208e-09
3.33141e-09
3.43871e-13
3.32991e-09
-7.97366e-13
3.32687e-09
-1.8539e-12
3.32242e-09
-2.8264e-12
3.31665e-09
-3.7346e-12
3.30965e-09
-4.59452e-12
3.30152e-09
-5.40772e-12
3.29231e-09
-6.17146e-12
3.28213e-09
-6.88317e-12
3.27104e-09
-7.53991e-12
3.25914e-09
-8.13964e-12
3.24652e-09
-8.67953e-12
3.23325e-09
-9.15848e-12
3.21943e-09
-9.57216e-12
-9.91063e-12
3.20515e-09
1.68867e-09
1.08881e-13
1.68805e-09
-1.81127e-13
1.68661e-09
-4.17447e-13
1.68442e-09
-6.36481e-13
1.68153e-09
-8.43331e-13
1.67798e-09
-1.04299e-12
1.67381e-09
-1.23327e-12
1.66905e-09
-1.41307e-12
1.66375e-09
-1.58139e-12
1.65794e-09
-1.73715e-12
1.65168e-09
-1.87972e-12
1.64501e-09
-2.0082e-12
1.63798e-09
-2.12238e-12
1.63062e-09
-2.22018e-12
-2.29638e-12
1.62301e-09
4.84475e-10
4.84294e-10
4.83877e-10
4.8324e-10
4.82397e-10
4.81354e-10
4.80121e-10
4.78707e-10
4.77126e-10
4.75389e-10
4.73509e-10
4.71501e-10
4.69379e-10
4.67158e-10
4.64862e-10
1.16369e-09
-4.45075e-10
2.52245e-10
1.44204e-09
-3.45005e-10
6.66495e-11
1.72481e-09
-1.76134e-10
-1.06627e-10
2.00562e-09
-1.98775e-14
-2.80795e-10
2.28283e-09
1.77642e-10
-4.54852e-10
2.55701e-09
3.49758e-10
-6.23933e-10
2.82956e-09
5.13262e-10
-7.85821e-10
3.10155e-09
6.65502e-10
-9.37488e-10
3.37376e-09
8.03168e-10
-1.07538e-09
3.64676e-09
9.22459e-10
-1.19546e-09
3.921e-09
1.01891e-09
-1.29315e-09
4.19687e-09
1.08718e-09
-1.36306e-09
4.47474e-09
1.12101e-09
-1.39888e-09
4.75496e-09
1.11313e-09
-1.39335e-09
5.03791e-09
1.0557e-09
-1.33865e-09
5.32412e-09
9.4184e-10
-1.22805e-09
5.61456e-09
7.67507e-10
-1.05794e-09
5.91113e-09
5.35752e-10
-8.3232e-10
6.21712e-09
2.58869e-10
-5.64865e-10
6.53761e-09
-3.83747e-11
-2.82113e-10
6.87866e-09
-3.39193e-10
-1.86099e-12
7.24326e-09
-6.4885e-10
2.84252e-10
7.57246e-09
-8.88123e-10
5.5892e-10
7.8414e-09
-1.12006e-09
8.51128e-10
8.04917e-09
-1.38035e-09
1.17257e-09
8.19841e-09
-1.65145e-09
1.50222e-09
8.29311e-09
-1.90403e-09
1.80933e-09
8.33781e-09
-2.12535e-09
2.08065e-09
8.33552e-09
-2.30652e-09
2.30881e-09
8.28863e-09
-2.4347e-09
2.48159e-09
8.19986e-09
-2.50935e-09
2.59811e-09
8.07113e-09
-2.5168e-09
2.64552e-09
7.90439e-09
-2.4411e-09
2.60785e-09
7.70205e-09
-2.27379e-09
2.47613e-09
7.46681e-09
-2.0087e-09
2.24394e-09
7.20128e-09
-1.64298e-09
1.9085e-09
6.90781e-09
-1.17628e-09
1.46975e-09
6.58851e-09
-6.08414e-10
9.27719e-10
6.24542e-09
6.39275e-11
2.79162e-10
5.87985e-09
8.48885e-10
-4.83316e-10
5.48764e-09
1.75097e-09
-1.35875e-09
5.05189e-09
2.74343e-09
-2.30768e-09
4.54084e-09
3.69119e-09
-3.18014e-09
3.95927e-09
4.25949e-09
-3.67792e-09
3.66485e-09
3.5971e-09
-3.30267e-09
2.43942e-09
-5.2212e-10
2.60852e-09
-5.14112e-10
2.83903e-09
-4.06645e-10
3.0983e-09
-2.59289e-10
3.37216e-09
-9.62126e-11
3.65372e-09
6.81963e-11
3.9401e-09
2.26882e-10
4.23009e-09
3.75508e-10
4.52321e-09
5.10046e-10
4.81927e-09
6.264e-10
5.11822e-09
7.19958e-10
5.42011e-09
7.85292e-10
5.72505e-09
8.16076e-10
6.03315e-09
8.05027e-10
6.34454e-09
7.44309e-10
6.65947e-09
6.26913e-10
6.97855e-09
4.48422e-10
7.30334e-09
2.10967e-10
7.63673e-09
-7.45197e-11
7.98345e-09
-3.85094e-10
8.34941e-09
-7.05152e-10
8.73759e-09
-1.03703e-09
9.08644e-09
-1.23698e-09
9.37094e-09
-1.40457e-09
9.59074e-09
-1.60015e-09
9.74873e-09
-1.80943e-09
9.84904e-09
-2.00434e-09
9.89639e-09
-2.17271e-09
9.8938e-09
-2.30393e-09
9.84409e-09
-2.38499e-09
9.75051e-09
-2.41577e-09
9.61531e-09
-2.38159e-09
9.44108e-09
-2.26688e-09
9.23125e-09
-2.06396e-09
8.98983e-09
-1.76728e-09
8.72124e-09
-1.37439e-09
8.43043e-09
-8.85472e-10
8.12342e-09
-3.01407e-10
7.80871e-09
3.78644e-10
7.49903e-09
1.15856e-09
7.21226e-09
2.03774e-09
6.97036e-09
2.98532e-09
6.80006e-09
3.8615e-09
6.73175e-09
4.32779e-09
3.77796e-09
6.61864e-09
4.27372e-09
-5.3832e-10
4.35193e-09
-5.92322e-10
4.50438e-09
-5.59088e-10
4.71215e-09
-4.67058e-10
4.95578e-09
-3.39845e-10
5.22289e-09
-1.98921e-10
5.50602e-09
-5.62474e-11
5.80073e-09
8.08057e-11
6.10435e-09
2.06419e-10
6.41527e-09
3.15481e-10
6.73245e-09
4.02783e-10
7.05523e-09
4.62511e-10
7.38317e-09
4.8813e-10
7.71594e-09
4.72262e-10
8.0532e-09
4.07043e-10
8.39475e-09
2.85364e-10
8.74068e-09
1.02497e-10
9.09195e-09
-1.40299e-10
9.45081e-09
-4.33383e-10
9.82136e-09
-7.55646e-10
1.0209e-08
-1.09283e-09
1.06166e-08
-1.44456e-09
1.09806e-08
-1.60098e-09
1.12765e-08
-1.70046e-09
1.15046e-08
-1.82829e-09
1.16682e-08
-1.97305e-09
1.17716e-08
-2.10769e-09
1.18195e-08
-2.22063e-09
1.1815e-08
-2.29942e-09
1.17615e-08
-2.33153e-09
1.16629e-08
-2.31715e-09
1.15216e-08
-2.24031e-09
1.13412e-08
-2.08648e-09
1.11263e-08
-1.84907e-09
1.08826e-08
-1.52353e-09
1.06166e-08
-1.10844e-09
1.03365e-08
-6.05376e-10
1.00528e-08
-1.77137e-11
9.78075e-09
6.50731e-10
9.54397e-09
1.39533e-09
9.37786e-09
2.20385e-09
9.32808e-09
3.0351e-09
9.42993e-09
3.75965e-09
9.6268e-09
4.13092e-09
3.71769e-09
9.68707e-09
6.79608e-09
-5.2099e-10
6.8131e-09
-6.09341e-10
6.8873e-09
-6.3329e-10
7.02502e-09
-6.04784e-10
7.21437e-09
-5.29194e-10
7.44279e-09
-4.27336e-10
7.70076e-09
-3.14217e-10
7.98126e-09
-1.997e-10
8.27939e-09
-9.17041e-11
8.59168e-09
3.19366e-12
8.9157e-09
7.87568e-11
9.24976e-09
1.28451e-10
9.59257e-09
1.45326e-10
9.94304e-09
1.2179e-10
1.03002e-08
4.99001e-11
1.06631e-08
-7.75372e-11
1.10311e-08
-2.65499e-10
1.14043e-08
-5.13519e-10
1.17841e-08
-8.13136e-10
1.21734e-08
-1.14502e-09
1.2577e-08
-1.4964e-09
1.29968e-08
-1.86441e-09
1.33689e-08
-1.97304e-09
1.36696e-08
-2.0012e-09
1.39004e-08
-2.059e-09
1.40647e-08
-2.13734e-09
1.41669e-08
-2.20992e-09
1.42119e-08
-2.26564e-09
1.42028e-08
-2.29032e-09
1.4144e-08
-2.27272e-09
1.40397e-08
-2.21287e-09
1.38925e-08
-2.09312e-09
1.37072e-08
-1.90119e-09
1.349e-08
-1.63179e-09
1.32482e-08
-1.28178e-09
1.29911e-08
-8.51322e-10
1.273e-08
-3.44238e-10
1.24796e-08
2.32674e-10
1.22607e-08
8.69555e-10
1.21036e-08
1.55248e-09
1.20497e-08
2.25771e-09
1.21452e-08
2.93963e-09
1.24082e-08
3.49668e-09
1.27754e-08
3.7637e-09
3.51165e-09
1.29815e-08
1.01774e-08
-4.90217e-10
1.01587e-08
-5.90646e-10
1.01749e-08
-6.49484e-10
1.02402e-08
-6.70071e-10
1.03616e-08
-6.50614e-10
1.05315e-08
-5.97184e-10
1.07421e-08
-5.24848e-10
1.09865e-08
-4.44067e-10
1.12586e-08
-3.63846e-10
1.15537e-08
-2.9187e-10
1.18679e-08
-2.35465e-10
1.21984e-08
-2.02059e-10
1.25429e-08
-1.99152e-10
1.28993e-08
-2.34639e-10
1.32658e-08
-3.16588e-10
1.36405e-08
-4.52247e-10
1.40218e-08
-6.46771e-10
1.44086e-08
-9.00373e-10
1.48011e-08
-1.2056e-09
1.52008e-08
-1.54476e-09
1.56111e-08
-1.90664e-09
1.60328e-08
-2.28611e-09
1.64026e-08
-2.34284e-09
1.66988e-08
-2.29741e-09
1.69237e-08
-2.28392e-09
1.70814e-08
-2.29506e-09
1.71763e-08
-2.30483e-09
1.7213e-08
-2.30237e-09
1.71953e-08
-2.27258e-09
1.71288e-08
-2.20623e-09
1.70175e-08
-2.10158e-09
1.68639e-08
-1.93952e-09
1.66748e-08
-1.71201e-09
1.64577e-08
-1.41473e-09
1.62222e-08
-1.04624e-09
1.59797e-08
-6.08875e-10
1.57446e-08
-1.09148e-10
1.55349e-08
4.4237e-10
1.53742e-08
1.03027e-09
1.52932e-08
1.63351e-09
1.5329e-08
2.22186e-09
1.55164e-08
2.75222e-09
1.58587e-08
3.15437e-09
1.62869e-08
3.33557e-09
3.19703e-09
1.66015e-08
1.46184e-08
-4.59797e-10
1.45835e-08
-5.55782e-10
1.45668e-08
-6.32733e-10
1.45794e-08
-6.82639e-10
1.46348e-08
-7.06001e-10
1.47384e-08
-7.00871e-10
1.48868e-08
-6.73233e-10
1.50762e-08
-6.33394e-10
1.53017e-08
-5.894e-10
1.55587e-08
-5.4883e-10
1.58428e-08
-5.19579e-10
1.61505e-08
-5.09741e-10
1.64785e-08
-5.27234e-10
1.68241e-08
-5.80191e-10
1.71843e-08
-6.7676e-10
1.75562e-08
-8.24151e-10
1.7937e-08
-1.02757e-09
1.83244e-08
-1.28776e-09
1.87168e-08
-1.59801e-09
1.9114e-08
-1.94201e-09
1.95175e-08
-2.3101e-09
1.99263e-08
-2.69496e-09
2.02798e-08
-2.69632e-09
2.05587e-08
-2.57631e-09
2.07664e-08
-2.49164e-09
2.09076e-08
-2.43623e-09
2.09863e-08
-2.38353e-09
2.10069e-08
-2.32295e-09
2.0975e-08
-2.24072e-09
2.08978e-08
-2.12903e-09
2.07763e-08
-1.98006e-09
2.06148e-08
-1.77805e-09
2.04221e-08
-1.51924e-09
2.02072e-08
-1.19985e-09
1.99814e-08
-8.20442e-10
1.97583e-08
-3.85743e-10
1.95541e-08
9.50441e-11
1.93884e-08
6.08075e-10
1.92843e-08
1.13436e-09
1.92681e-08
1.64969e-09
1.93663e-08
2.12365e-09
1.95976e-08
2.52089e-09
1.99534e-08
2.7986e-09
2.03754e-08
2.91354e-09
2.83226e-09
2.07402e-08
2.03509e-08
-4.37218e-10
2.03177e-08
-5.22567e-10
2.02872e-08
-6.02212e-10
2.02728e-08
-6.68252e-10
2.02832e-08
-7.16427e-10
2.03292e-08
-7.4684e-10
2.04155e-08
-7.59549e-10
2.05422e-08
-7.60112e-10
2.0708e-08
-7.55201e-10
2.091e-08
-7.50803e-10
2.1145e-08
-7.54539e-10
2.14097e-08
-7.74511e-10
2.1701e-08
-8.18532e-10
2.20155e-08
-8.94637e-10
2.23495e-08
-1.01083e-09
2.26994e-08
-1.17403e-09
2.30611e-08
-1.38929e-09
2.3431e-08
-1.65759e-09
2.38056e-08
-1.97265e-09
2.41827e-08
-2.3191e-09
2.45613e-08
-2.68869e-09
2.49381e-08
-3.07181e-09
2.52573e-08
-3.01551e-09
2.55027e-08
-2.82168e-09
2.56786e-08
-2.66754e-09
2.57904e-08
-2.54804e-09
2.58407e-08
-2.43387e-09
2.58362e-08
-2.31846e-09
2.57837e-08
-2.18814e-09
2.56891e-08
-2.03443e-09
2.5552e-08
-1.84302e-09
2.53803e-08
-1.60633e-09
2.51832e-08
-1.32212e-09
2.49713e-08
-9.87957e-10
2.47572e-08
-6.06384e-10
2.45559e-08
-1.84388e-10
2.43841e-08
2.66815e-10
2.42609e-08
7.31298e-10
2.4206e-08
1.18919e-09
2.42386e-08
1.61716e-09
2.43729e-08
1.98938e-09
2.46132e-08
2.28057e-09
2.49441e-08
2.46772e-09
2.53224e-08
2.53525e-09
2.47879e-09
2.56758e-08
2.76447e-08
-4.24907e-10
2.76218e-08
-4.99661e-10
2.75947e-08
-5.75156e-10
2.75723e-08
-6.45813e-10
2.75637e-08
-7.07797e-10
2.75753e-08
-7.58433e-10
2.7615e-08
-7.99244e-10
2.76882e-08
-8.3339e-10
2.7796e-08
-8.62952e-10
2.79382e-08
-8.92978e-10
2.8114e-08
-9.30404e-10
2.8322e-08
-9.82522e-10
2.85598e-08
-1.05634e-09
2.88245e-08
-1.15929e-09
2.91124e-08
-1.29879e-09
2.94195e-08
-1.48109e-09
2.97409e-08
-1.71069e-09
3.00718e-08
-1.98849e-09
3.04072e-08
-2.30805e-09
3.07425e-08
-2.65441e-09
3.10743e-08
-3.02044e-09
3.13962e-08
-3.39376e-09
3.166e-08
-3.27934e-09
3.18529e-08
-3.0145e-09
3.19797e-08
-2.79439e-09
3.20466e-08
-2.61488e-09
3.20541e-08
-2.44141e-09
3.20149e-08
-2.27927e-09
3.19344e-08
-2.10768e-09
3.18115e-08
-1.91151e-09
3.16522e-08
-1.68364e-09
3.1466e-08
-1.42021e-09
3.12623e-08
-1.11838e-09
3.10525e-08
-7.78129e-10
3.08499e-08
-4.0383e-10
3.06698e-08
-4.23807e-12
3.05279e-08
4.08675e-10
3.04408e-08
8.18388e-10
3.04232e-08
1.20676e-09
3.04862e-08
1.55416e-09
3.0634e-08
1.84158e-09
3.08613e-08
2.05325e-09
3.11502e-08
2.17884e-09
3.14694e-08
2.21609e-09
2.17141e-09
3.17768e-08
3.68082e-08
-4.22533e-10
3.67978e-08
-4.89236e-10
3.67821e-08
-5.59472e-10
3.67661e-08
-6.29785e-10
3.67557e-08
-6.9748e-10
3.6757e-08
-7.59699e-10
3.67747e-08
-8.16892e-10
3.68157e-08
-8.74386e-10
3.68824e-08
-9.29692e-10
3.69761e-08
-9.86672e-10
3.70986e-08
-1.05291e-09
3.725e-08
-1.13395e-09
3.74294e-08
-1.23576e-09
3.7635e-08
-1.36485e-09
3.78639e-08
-1.52771e-09
3.81123e-08
-1.72943e-09
3.83752e-08
-1.97358e-09
3.86472e-08
-2.2605e-09
3.89221e-08
-2.58301e-09
3.91936e-08
-2.92587e-09
3.94557e-08
-3.2825e-09
3.96989e-08
-3.63703e-09
3.98857e-08
-3.46606e-09
4.00059e-08
-3.13473e-09
4.00651e-08
-2.85359e-09
4.0068e-08
-2.61777e-09
4.00266e-08
-2.40004e-09
3.99432e-08
-2.19582e-09
3.98165e-08
-1.981e-09
3.96551e-08
-1.75013e-09
3.94676e-08
-1.49614e-09
3.92618e-08
-1.21441e-09
3.90476e-08
-9.04198e-10
3.8837e-08
-5.67472e-10
3.86432e-08
-2.10098e-10
3.848e-08
1.58974e-10
3.83616e-08
5.27053e-10
3.83003e-08
8.79743e-10
3.83051e-08
1.2019e-09
3.83804e-08
1.47895e-09
3.85234e-08
1.69855e-09
3.87242e-08
1.85243e-09
3.89654e-08
1.93763e-09
3.92241e-08
1.9574e-09
1.92055e-09
3.9475e-08
4.8183e-08
-4.29874e-10
4.81851e-08
-4.91285e-10
4.81831e-08
-5.57473e-10
4.81799e-08
-6.26557e-10
4.81791e-08
-6.96695e-10
4.81852e-08
-7.65853e-10
4.82022e-08
-8.33814e-10
4.8232e-08
-9.04259e-10
4.82797e-08
-9.77329e-10
4.83476e-08
-1.05463e-09
4.84368e-08
-1.14209e-09
4.85477e-08
-1.24489e-09
4.86803e-08
-1.36833e-09
4.88335e-08
-1.51802e-09
4.90052e-08
-1.69941e-09
4.9192e-08
-1.91626e-09
4.93894e-08
-2.17102e-09
4.9592e-08
-2.46309e-09
4.9793e-08
-2.78398e-09
4.99848e-08
-3.11767e-09
5.01597e-08
-3.45737e-09
5.03054e-08
-3.78275e-09
5.03973e-08
-3.55804e-09
5.04264e-08
-3.16378e-09
5.04039e-08
-2.83108e-09
5.03412e-08
-2.55504e-09
5.02356e-08
-2.29444e-09
5.0086e-08
-2.04626e-09
4.99055e-08
-1.80046e-09
4.97006e-08
-1.54531e-09
4.94784e-08
-1.27394e-09
4.92477e-08
-9.83695e-10
4.90187e-08
-6.75174e-10
4.88029e-08
-3.51692e-10
4.8613e-08
-2.01405e-11
4.84601e-08
3.11862e-10
4.83555e-08
6.31634e-10
4.8307e-08
9.28225e-10
4.83187e-08
1.19024e-09
4.83896e-08
1.408e-09
4.85136e-08
1.57459e-09
4.86793e-08
1.68676e-09
4.88715e-08
1.7454e-09
4.90734e-08
1.75547e-09
1.7251e-09
4.92689e-08
6.21396e-08
-4.48426e-10
6.21551e-08
-5.06814e-10
6.21682e-08
-5.70605e-10
6.21806e-08
-6.38956e-10
6.21946e-08
-7.10658e-10
6.2214e-08
-7.85286e-10
6.2241e-08
-8.60796e-10
6.22765e-08
-9.39778e-10
6.23246e-08
-1.02536e-09
6.23878e-08
-1.11791e-09
6.24664e-08
-1.22063e-09
6.25601e-08
-1.33856e-09
6.26683e-08
-1.47652e-09
6.27896e-08
-1.63936e-09
6.29217e-08
-1.83156e-09
6.30612e-08
-2.05568e-09
6.32033e-08
-2.31314e-09
6.33425e-08
-2.60228e-09
6.34715e-08
-2.91305e-09
6.35826e-08
-3.2287e-09
6.36664e-08
-3.54124e-09
6.37093e-08
-3.82558e-09
6.36969e-08
-3.54563e-09
6.36367e-08
-3.10362e-09
6.35339e-08
-2.72826e-09
6.33853e-08
-2.40647e-09
6.32028e-08
-2.11191e-09
6.29904e-08
-1.83386e-09
6.27544e-08
-1.56452e-09
6.25025e-08
-1.29334e-09
6.22428e-08
-1.01423e-09
6.19846e-08
-7.25492e-10
6.17379e-08
-4.28554e-10
6.15138e-08
-1.27548e-10
6.13215e-08
1.7213e-10
6.11716e-08
4.61766e-10
6.10705e-08
7.32733e-10
6.10222e-08
9.76569e-10
6.10267e-08
1.18573e-09
6.10801e-08
1.35458e-09
6.11747e-08
1.47998e-09
6.12998e-08
1.56166e-09
6.14431e-08
1.60217e-09
6.1592e-08
1.60652e-09
1.58135e-09
6.17358e-08
7.90899e-08
-4.81227e-10
7.91214e-08
-5.38395e-10
7.91522e-08
-6.01323e-10
7.9183e-08
-6.69745e-10
7.92155e-08
-7.4318e-10
7.92514e-08
-8.2124e-10
7.92946e-08
-9.0393e-10
7.93466e-08
-9.91833e-10
7.94076e-08
-1.08638e-09
7.94795e-08
-1.18978e-09
7.95633e-08
-1.30437e-09
7.96582e-08
-1.43351e-09
7.97629e-08
-1.5812e-09
7.98749e-08
-1.75141e-09
7.9991e-08
-1.94767e-09
8.01067e-08
-2.17134e-09
8.02164e-08
-2.42289e-09
8.03136e-08
-2.69939e-09
8.039e-08
-2.98949e-09
8.04376e-08
-3.27631e-09
8.04453e-08
-3.5489e-09
8.03991e-08
-3.77939e-09
8.03003e-08
-3.4468e-09
8.01563e-08
-2.95971e-09
7.99717e-08
-2.54358e-09
7.97511e-08
-2.1859e-09
7.95027e-08
-1.86355e-09
7.92325e-08
-1.56358e-09
7.89464e-08
-1.27847e-09
7.86527e-08
-9.99646e-10
7.83603e-08
-7.21818e-10
7.80784e-08
-4.43609e-10
7.78168e-08
-1.66922e-10
7.75834e-08
1.05813e-10
7.73875e-08
3.6805e-10
7.72351e-08
6.14138e-10
7.71298e-08
8.38018e-10
7.70723e-08
1.03409e-09
7.70601e-08
1.19796e-09
7.70878e-08
1.32692e-09
7.71475e-08
1.42023e-09
7.72301e-08
1.4791e-09
7.73257e-08
1.50654e-09
7.74253e-08
1.50693e-09
1.48548e-09
7.75212e-08
9.95282e-08
-5.31001e-10
9.95782e-08
-5.88389e-10
9.96286e-08
-6.51759e-10
9.96801e-08
-7.21226e-10
9.97337e-08
-7.96792e-10
9.9791e-08
-8.78484e-10
9.98537e-08
-9.66609e-10
9.99234e-08
-1.06156e-09
1.00001e-07
-1.16431e-09
1.00088e-07
-1.27667e-09
1.00184e-07
-1.40061e-09
1.00289e-07
-1.53846e-09
1.00401e-07
-1.69304e-09
1.00517e-07
-1.8672e-09
1.00633e-07
-2.06334e-09
1.00743e-07
-2.28152e-09
1.00841e-07
-2.52109e-09
1.00919e-07
-2.77739e-09
1.00968e-07
-3.0384e-09
1.00979e-07
-3.28725e-09
1.0094e-07
-3.50953e-09
1.00835e-07
-3.67506e-09
1.00674e-07
-3.28574e-09
1.00471e-07
-2.75685e-09
1.00232e-07
-2.30476e-09
9.99624e-08
-1.91584e-09
9.96692e-08
-1.57037e-09
9.93602e-08
-1.25451e-09