/*--------------------------------*- C++ -*----------------------------------*\
| =========                 |                                                 |
| \\      /  F ield         | OpenFOAM: The Open Source CFD Toolbox           |
|  \\    /   O peration     | Version:  2312                                  |
|   \\  /    A nd           | Website:  www.openfoam.com                      |
|    \\/     M anipulation  |                                                 |
\*---------------------------------------------------------------------------*/
FoamFile
{
    version     2.0;
    format      ascii;
    arch        "LSB;label=32;scalar=64";
    class       volVectorField;
    location    "63.75";
    object      U;
}
// * * * * * * * * * * * * * * * * * * * * * * * * * * * * * * * * * * * * * //

dimensions      [0 1 -1 0 0 0 0];

internalField   nonuniform List<vector> 
4800
(
(0.000476932 4.38719e-07 -3.28302e-26)
(0.000465345 4.91333e-07 -2.28461e-25)
(0.000457442 5.13148e-07 2.93906e-25)
(0.000452117 5.08497e-07 1.31387e-25)
(0.000448686 4.79299e-07 1.91398e-24)
(0.000446729 4.22924e-07 -4.54287e-24)
(0.000445965 3.61021e-07 4.20099e-24)
(0.000446396 2.71473e-07 -6.01113e-24)
(0.00044785 1.44349e-07 1.94776e-24)
(0.000450489 -1.06931e-07 6.4943e-24)
(0.000454702 -6.13983e-07 -2.00644e-24)
(0.000461797 -1.99414e-06 -1.78662e-25)
(0.00047881 -7.06515e-06 -2.40313e-24)
(0.000523231 -2.74948e-05 1.10154e-24)
(0.000597123 -8.96419e-05 -8.72912e-25)
(0.00147143 2.34113e-06 -1.03429e-25)
(0.00143637 1.87713e-06 1.28864e-25)
(0.00141239 1.50884e-06 -1.16677e-24)
(0.00139615 1.17924e-06 8.77785e-25)
(0.00138555 8.51629e-07 2.74142e-24)
(0.0013793 4.90085e-07 -4.34828e-24)
(0.00137654 7.90303e-08 -1.19243e-24)
(0.00137718 -4.58223e-07 -2.48042e-25)
(0.00138061 -1.19284e-06 9.81406e-24)
(0.00138747 -2.44453e-06 -7.24686e-24)
(0.00139881 -4.84967e-06 7.9036e-25)
(0.00141736 -1.05794e-05 1.18643e-24)
(0.0014517 -2.71177e-05 -1.73781e-24)
(0.00151229 -7.736e-05 -5.08373e-25)
(0.00157789 -0.00019038 2.25713e-24)
(0.00256797 7.50699e-06 -7.36422e-26)
(0.00250802 5.96967e-06 7.53143e-26)
(0.00246695 4.77626e-06 7.6108e-25)
(0.00243899 3.73799e-06 -1.80357e-24)
(0.00242056 2.74009e-06 1.75257e-24)
(0.00240942 1.6846e-06 1.61494e-24)
(0.00240404 4.14916e-07 -4.18669e-24)
(0.00240416 -1.22281e-06 -2.51017e-24)
(0.00240859 -3.39843e-06 6.03995e-24)
(0.00241826 -6.93242e-06 2.25815e-24)
(0.00243427 -1.32519e-05 -7.88763e-24)
(0.0024586 -2.61992e-05 -1.15687e-24)
(0.0024953 -5.51731e-05 3.35403e-24)
(0.00254295 -0.000118766 5.24208e-24)
(0.00257712 -0.000224333 -2.70556e-24)
(0.00377332 1.67588e-05 2.70878e-26)
(0.00368748 1.33823e-05 -1.87978e-25)
(0.00362846 1.0765e-05 8.3077e-25)
(0.00358807 8.5024e-06 8.67973e-25)
(0.00356115 6.35173e-06 -8.82819e-25)
(0.00354443 4.11519e-06 -4.94347e-24)
(0.00353568 1.47921e-06 -3.28897e-24)
(0.0035342 -1.88837e-06 1.23067e-23)
(0.00353838 -6.14931e-06 4.95557e-24)
(0.00354878 -1.28593e-05 -7.29486e-24)
(0.00356594 -2.39387e-05 -2.92686e-24)
(0.0035899 -4.36923e-05 -2.20676e-24)
(0.00361996 -8.0009e-05 7.41293e-26)
(0.00364896 -0.00014251 1.62373e-24)
(0.00365905 -0.000226113 7.91906e-27)
(0.0050926 3.10049e-05 -4.94991e-26)
(0.00498062 2.48316e-05 -3.01681e-25)
(0.00490326 2.00473e-05 -1.84562e-25)
(0.00484993 1.59385e-05 5.1313e-25)
(0.00481394 1.20797e-05 -1.4174e-24)
(0.00479096 8.13871e-06 3.52746e-24)
(0.004778 3.62219e-06 -6.29862e-25)
(0.00477361 -1.901e-06 2.10901e-24)
(0.00477611 -8.88852e-06 -1.16929e-23)
(0.004785 -1.90347e-05 2.21316e-23)
(0.00479986 -3.44589e-05 -2.13957e-23)
(0.004819 -5.85863e-05 1.12256e-23)
(0.00483909 -9.62195e-05 -1.03696e-23)
(0.00485249 -0.000150271 9.76906e-24)
(0.00484904 -0.000213183 -3.89633e-24)
(0.00652761 5.13291e-05 6.52095e-26)
(0.00639072 4.12642e-05 2.32707e-25)
(0.00629546 3.34516e-05 -1.22008e-24)
(0.00622919 2.6782e-05 -7.50176e-25)
(0.00618382 2.05956e-05 2.0432e-24)
(0.00615401 1.43988e-05 7.17655e-25)
(0.00613606 7.52563e-06 -5.57188e-24)
(0.00612765 -5.47201e-07 1.32175e-23)
(0.0061268 -1.05163e-05 -1.707e-23)
(0.0061322 -2.39835e-05 4.11494e-24)
(0.00614218 -4.2619e-05 1.22926e-23)
(0.00615421 -6.85413e-05 -1.69972e-23)
(0.00616441 -0.00010363 8.51362e-24)
(0.00616704 -0.000147335 8.69218e-24)
(0.00615743 -0.000193501 -6.62608e-24)
(0.00807457 7.86751e-05 5.39037e-26)
(0.00791645 6.35999e-05 -3.18018e-25)
(0.00780522 5.184e-05 1.12963e-24)
(0.00772694 4.18401e-05 -1.55649e-24)
(0.00767249 3.26705e-05 -5.18768e-24)
(0.0076357 2.36602e-05 8.83817e-24)
(0.00761221 1.40113e-05 -5.29768e-24)
(0.00759895 3.07622e-06 1.7837e-23)
(0.00759347 -9.84303e-06 -1.21527e-23)
(0.00759377 -2.60578e-05 -5.61994e-24)
(0.00759752 -4.66561e-05 -1.0938e-23)
(0.00760191 -7.24396e-05 1.00853e-23)
(0.00760374 -0.000103413 2.82668e-24)
(0.00759943 -0.000137835 2.41274e-24)
(0.00758742 -0.000171622 -2.1269e-24)
(0.0097214 0.000113382 -7.79968e-26)
(0.0095494 9.23913e-05 1.0528e-24)
(0.00942648 7.58491e-05 -2.4355e-24)
(0.0093387 6.17878e-05 -1.9455e-24)
(0.00927653 4.90121e-05 7.71125e-25)
(0.00923334 3.66807e-05 1.45453e-24)
(0.00920434 2.39203e-05 5.06216e-24)
(0.00918592 1.0019e-05 -1.36365e-23)
(0.00917519 -5.64656e-06 -7.12416e-24)
(0.00916969 -2.39436e-05 1.98869e-23)
(0.00916692 -4.53739e-05 -6.08735e-24)
(0.00916432 -6.98664e-05 2.08438e-23)
(0.00915961 -9.66e-05 -1.09753e-23)
(0.00915077 -0.000123844 -3.49451e-24)
(0.00913773 -0.000149157 2.07272e-24)
(0.0114459 0.000154537 -1.04322e-26)
(0.0112719 0.000127332 5.83496e-25)
(0.0111447 0.000105511 -8.28746e-25)
(0.0110521 8.68669e-05 1.94731e-24)
(0.0109852 7.00181e-05 -1.14985e-23)
(0.0109374 5.40003e-05 1.2109e-23)
(0.0109039 3.79276e-05 -1.87599e-23)
(0.0108809 2.11107e-05 1.15987e-23)
(0.0108651 3.04723e-06 8.52035e-24)
(0.0108542 -1.6697e-05 1.82762e-23)
(0.0108456 -3.81824e-05 -2.38693e-23)
(0.0108373 -6.09379e-05 -4.3789e-24)
(0.0108278 -8.40142e-05 2.04331e-24)
(0.010816 -0.000106134 1.4505e-23)
(0.0108024 -0.00012594 -5.91036e-24)
(0.013218 0.000199274 5.86174e-26)
(0.0130574 0.000166627 -2.48662e-25)
(0.0129364 0.000139707 1.08925e-24)
(0.0128461 0.000116418 -3.77704e-24)
(0.0127793 9.53643e-05 5.681e-24)
(0.0127302 7.55658e-05 -7.24922e-24)
(0.0126945 5.61987e-05 1.20323e-23)
(0.0126684 3.66691e-05 2.02733e-24)
(0.0126491 1.663e-05 -1.63898e-23)
(0.012634 -4.06665e-06 2.31748e-23)
(0.0126211 -2.52103e-05 -2.55339e-23)
(0.0126089 -4.62839e-05 -7.47435e-24)
(0.0125964 -6.65362e-05 1.32306e-23)
(0.0125829 -8.51841e-05 3.92597e-24)
(0.0125691 -0.000101534 -1.7184e-24)
(0.0150096 0.000242725 2.47369e-25)
(0.0148771 0.000206636 -1.95897e-24)
(0.0147733 0.000175717 -3.02505e-24)
(0.0146936 0.000148399 7.23452e-24)
(0.014633 0.00012353 3.14734e-24)
(0.0145872 0.000100266 -1.97555e-23)
(0.0145527 7.79331e-05 6.1562e-24)
(0.0145264 5.60839e-05 4.38811e-24)
(0.0145057 3.4527e-05 -1.8497e-23)
(0.0144887 1.32685e-05 1.93732e-23)
(0.0144737 -7.42228e-06 -1.53436e-23)
(0.0144597 -2.71452e-05 3.95297e-23)
(0.014446 -4.5418e-05 -1.90019e-23)
(0.0144321 -6.18436e-05 1.11992e-23)
(0.0144187 -7.61224e-05 -3.06273e-24)
(0.0168123 0.000279838 -1.08914e-25)
(0.0167144 0.000242789 1.35641e-24)
(0.0166347 0.000209608 -2.58201e-24)
(0.0165716 0.00017949 -1.25694e-24)
(0.0165224 0.000151727 1.41361e-23)
(0.0164842 0.000125751 -2.15067e-24)
(0.0164544 0.000101116 -2.47584e-23)
(0.0164308 7.75487e-05 2.86926e-23)
(0.0164116 5.49719e-05 -6.47807e-24)
(0.0163951 3.34649e-05 -2.21248e-23)
(0.0163805 1.3212e-05 2.35611e-23)
(0.0163667 -5.53734e-06 1.26779e-23)
(0.0163536 -2.25434e-05 -1.06868e-23)
(0.0163406 -3.76603e-05 -1.85363e-23)
(0.0163285 -5.08094e-05 1.55955e-24)
(0.0186466 0.000308948 1.42304e-26)
(0.0185775 0.000272404 -1.54314e-24)
(0.0185202 0.000238361 7.08088e-24)
(0.0184741 0.000206667 3.29766e-25)
(0.0184374 0.000177068 3.80038e-24)
(0.0184083 0.00014931 -1.3919e-23)
(0.018385 0.000123185 1.17161e-23)
(0.0183661 9.85742e-05 2.5855e-24)
(0.0183501 7.54686e-05 2.38006e-23)
(0.0183361 5.39326e-05 -3.69236e-23)
(0.0183234 3.4069e-05 -1.66609e-23)
(0.0183114 1.59749e-05 -1.10078e-23)
(0.0183002 -2.80561e-07 2.07604e-23)
(0.0182892 -1.47154e-05 -6.01142e-25)
(0.018279 -2.73686e-05 2.022e-24)
(0.0205403 0.000333047 -1.14379e-26)
(0.0204888 0.000296974 1.62201e-24)
(0.0204462 0.000262435 -2.35006e-24)
(0.0204119 0.000229716 1.35521e-26)
(0.0203845 0.000198903 2.8634e-24)
(0.0203626 0.000169988 7.1784e-24)
(0.0203448 0.00014294 -2.78259e-23)
(0.0203299 0.000117736 2.42781e-24)
(0.0203172 9.43826e-05 1.40692e-23)
(0.0203059 7.28927e-05 -6.43091e-24)
(0.0202956 5.32807e-05 1.75995e-23)
(0.0202858 3.55237e-05 1.23291e-23)
(0.0202768 1.95858e-05 -2.23992e-23)
(0.0202679 5.36654e-06 1.53761e-23)
(0.0202598 -7.24063e-06 -1.28056e-23)
(0.0224858 0.00035542 -4.50605e-25)
(0.0224453 0.000319645 6.99836e-27)
(0.0224118 0.00028462 2.82969e-24)
(0.0223847 0.000251028 -1.37783e-23)
(0.0223629 0.000219228 1.20771e-23)
(0.0223453 0.000189402 -8.55364e-24)
(0.0223308 0.000161629 6.17558e-24)
(0.0223186 0.00013593 -4.30839e-23)
(0.022308 0.000112295 6.22354e-23)
(0.0222985 9.06789e-05 -3.65646e-23)
(0.02229 7.10176e-05 3.2677e-23)
(0.0222819 5.32132e-05 2.73701e-23)
(0.0222745 3.7153e-05 -4.78859e-23)
(0.0222672 2.27013e-05 1.56158e-23)
(0.0222608 9.72247e-06 -6.58319e-25)
(0.0244211 0.00037553 -1.73619e-26)
(0.0243916 0.000340649 -6.26992e-25)
(0.0243666 0.000305658 6.20251e-25)
(0.024346 0.000271656 -3.79488e-25)
(0.0243291 0.000239265 4.94677e-24)
(0.0243151 0.000208825 -8.42641e-24)
(0.0243034 0.000180503 7.74042e-24)
(0.0242934 0.000154341 -2.43053e-23)
(0.0242846 0.000130314 5.52099e-23)
(0.0242767 0.000108336 -7.06198e-23)
(0.0242695 8.82993e-05 5.7882e-23)
(0.0242627 7.00644e-05 -1.95674e-23)
(0.0242566 5.34905e-05 1.02626e-24)
(0.0242506 3.84181e-05 4.53291e-24)
(0.0242454 2.4701e-05 -8.68575e-24)
(0.0262496 0.000390968 -1.49695e-24)
(0.0262318 0.00035775 2.26244e-24)
(0.0262162 0.000323585 -2.52864e-25)
(0.0262028 0.0002899 -2.16875e-24)
(0.0261915 0.000257539 8.12008e-24)
(0.0261819 0.000226968 -8.1242e-24)
(0.0261737 0.000198419 -7.05989e-24)
(0.0261664 0.000171963 -1.69225e-23)
(0.02616 0.000147569 8.7509e-24)
(0.0261541 0.000125139 4.1221e-23)
(0.0261488 0.000104546 -2.177e-23)
(0.0261437 8.56425e-05 1.30134e-23)
(0.0261391 6.82839e-05 -5.34526e-24)
(0.0261345 5.23183e-05 -1.59632e-23)
(0.0261306 3.76076e-05 8.19122e-24)
(0.0278534 0.000400298 5.04155e-25)
(0.0278462 0.000369216 -8.41562e-25)
(0.0278391 0.000336557 2.61595e-25)
(0.0278327 0.00030388 -2.33252e-24)
(0.0278271 0.00027216 -2.01321e-24)
(0.0278221 0.000241952 1.26125e-23)
(0.0278178 0.000213538 -9.87757e-24)
(0.0278138 0.000187016 -6.13367e-24)
(0.0278102 0.00016237 5.6678e-24)
(0.0278068 0.000139512 -6.58798e-24)
(0.0278036 0.000118319 1.53836e-23)
(0.0278005 9.86491e-05 7.81959e-24)
(0.0277977 8.03651e-05 -2.92234e-23)
(0.0277949 6.33265e-05 2.02395e-23)
(0.0277924 4.74135e-05 -4.14138e-24)
(0.0290745 0.000402542 1.51601e-24)
(0.0290766 0.00037414 2.4382e-24)
(0.0290774 0.000343585 -5.48146e-24)
(0.0290776 0.000312528 9.37224e-26)
(0.0290775 0.00028202 6.73246e-25)
(0.0290772 0.000252663 -3.79627e-24)
(0.0290768 0.000224778 -5.48165e-24)
(0.0290763 0.000198488 1.24543e-23)
(0.0290758 0.000173802 1.34464e-23)
(0.029075 0.000150659 -3.26472e-23)
(0.0290742 0.000128961 1.87929e-23)
(0.0290733 0.000108591 -1.31315e-24)
(0.0290723 8.9431e-05 -1.09819e-24)
(0.0290712 7.13598e-05 1.48526e-24)
(0.0290703 5.42575e-05 -6.87094e-25)
(0.0296931 0.000393869 -4.02676e-24)
(0.0297043 0.000368167 -8.81027e-24)
(0.0297131 0.000340058 4.57559e-24)
(0.0297203 0.000311119 1.62848e-23)
(0.0297263 0.000282357 -4.58573e-24)
(0.0297314 0.000254361 -1.40434e-24)
(0.0297358 0.000227455 6.88371e-25)
(0.0297396 0.00020178 -4.33568e-24)
(0.0297428 0.000177372 1.21145e-23)
(0.0297456 0.000154201 -5.39584e-24)
(0.0297479 0.000132206 3.46473e-24)
(0.0297498 0.000111308 -5.39232e-24)
(0.0297515 9.14274e-05 -6.3501e-24)
(0.0297528 7.24872e-05 9.58104e-24)
(0.029754 5.4396e-05 -4.21712e-24)
(0.0295019 0.00037874 6.46419e-24)
(0.0295189 0.000355574 -1.50921e-23)
(0.0295332 0.00032992 2.27975e-24)
(0.0295455 0.000303194 2.36817e-23)
(0.0295562 0.000276314 -2.35957e-23)
(0.0295656 0.000249825 8.82224e-24)
(0.0295739 0.000224032 7.31576e-24)
(0.0295813 0.000199085 -1.68269e-23)
(0.0295879 0.000175042 1.75058e-24)
(0.0295938 0.000151906 4.14805e-24)
(0.029599 0.000129655 1.5859e-25)
(0.0296036 0.000108249 1.08251e-24)
(0.0296078 8.76424e-05 -1.62131e-24)
(0.0296116 6.77743e-05 1.3221e-24)
(0.029615 4.86147e-05 -6.51963e-25)
(0.0285635 0.000354112 4.05959e-24)
(0.0285893 0.000333312 -8.73215e-24)
(0.0286112 0.000310196 -6.63487e-24)
(0.0286298 0.000285955 3.1112e-23)
(0.0286457 0.000261369 -2.96524e-23)
(0.0286594 0.000236896 2.83433e-24)
(0.0286712 0.000212801 5.33727e-24)
(0.0286814 0.000189225 3.32107e-24)
(0.0286901 0.000166238 3.45903e-24)
(0.0286977 0.000143872 -1.8079e-23)
(0.0287041 0.000122135 1.14309e-23)
(0.0287096 0.000101013 4.81909e-25)
(0.0287142 8.04954e-05 4.04284e-24)
(0.028718 6.05496e-05 -1.80512e-24)
(0.028721 4.11792e-05 -1.65224e-25)
(0.0269964 0.000321359 1.02103e-23)
(0.0270271 0.000302698 -1.8447e-23)
(0.0270542 0.000282048 3.68123e-24)
(0.027078 0.000260362 -1.0371e-23)
(0.027099 0.000238264 -1.47237e-23)
(0.0271177 0.000216114 4.78533e-23)
(0.0271342 0.000194124 -1.94682e-23)
(0.0271488 0.00017242 5.95555e-24)
(0.0271618 0.000151077 -3.49094e-24)
(0.0271733 0.000130139 -1.01495e-23)
(0.0271834 0.000109632 1.97251e-23)
(0.0271923 8.95752e-05 -1.17465e-23)
(0.0272001 6.99784e-05 1.45088e-24)
(0.0272071 5.08537e-05 1.99025e-24)
(0.0272131 3.21872e-05 -2.31092e-25)
(0.0251149 0.000289009 3.95981e-24)
(0.0251505 0.000272177 -2.12244e-23)
(0.0251824 0.000253652 3.80863e-23)
(0.0252108 0.000234181 -3.01626e-23)
(0.0252361 0.000214242 3.23225e-23)
(0.0252588 0.000194117 -1.01526e-23)
(0.025279 0.000173983 -7.52829e-24)
(0.0252971 0.000153954 -9.28736e-24)
(0.0253132 0.000134114 1.82693e-23)
(0.0253276 0.00011452 6.33754e-25)
(0.0253404 9.52152e-05 -1.90722e-23)
(0.0253517 7.62266e-05 -3.00518e-24)
(0.0253616 5.75705e-05 5.23661e-24)
(0.0253702 3.92499e-05 -1.25216e-24)
(0.0253776 2.12502e-05 2.91126e-25)
(0.0230609 0.000254492 5.29562e-25)
(0.0231016 0.000239389 -8.07525e-24)
(0.0231383 0.000222848 -5.12502e-24)
(0.0231712 0.000205436 3.99845e-23)
(0.0232007 0.000187525 -4.06136e-23)
(0.0232272 0.00016934 1.21948e-23)
(0.0232509 0.000151041 2.21038e-24)
(0.0232721 0.00013274 -1.24573e-24)
(0.0232911 0.00011452 -6.46952e-24)
(0.023308 9.64454e-05 2.94007e-23)
(0.0233229 7.85592e-05 -2.39683e-23)
(0.023336 6.08944e-05 -1.41162e-24)
(0.0233474 4.34781e-05 2.36825e-24)
(0.0233572 2.63309e-05 2.49571e-24)
(0.0233654 9.50967e-06 -1.99561e-24)
(0.0209426 0.000218583 7.90526e-25)
(0.0209875 0.000205203 7.58468e-24)
(0.0210281 0.000190611 -8.64789e-24)
(0.0210645 0.000175244 -6.55657e-24)
(0.0210973 0.000159387 4.35444e-23)
(0.0211268 0.000143229 -3.32986e-23)
(0.0211531 0.00012691 -5.55696e-25)
(0.0211767 0.000110534 -7.84063e-24)
(0.0211976 9.41811e-05 -8.73125e-25)
(0.0212161 7.79123e-05 1.05782e-24)
(0.0212323 6.178e-05 -5.57684e-24)
(0.0212463 4.58218e-05 3.97851e-24)
(0.0212582 3.00919e-05 1.3189e-24)
(0.0212682 1.46199e-05 1.38311e-24)
(0.0212762 -5.68992e-07 2.09495e-24)
(0.0188327 0.000183001 5.64261e-24)
(0.0188799 0.000171384 -8.77195e-24)
(0.0189228 0.000158766 -7.71802e-24)
(0.0189612 0.000145487 2.36975e-23)
(0.0189959 0.00013176 -8.46189e-24)
(0.0190269 0.000117741 -1.31774e-23)
(0.0190545 0.000103548 4.4821e-24)
(0.0190791 8.92763e-05 1.14198e-23)
(0.0191007 7.49994e-05 -1.92491e-23)
(0.0191195 6.0775e-05 2.00116e-23)
(0.0191357 4.66605e-05 -1.13624e-23)
(0.0191494 3.26938e-05 5.27177e-24)
(0.0191607 1.89169e-05 -7.86591e-24)
(0.0191696 5.36688e-06 8.25313e-24)
(0.0191762 -7.97101e-06 -2.18482e-24)
(0.0167761 0.000149391 -1.09565e-24)
(0.0168238 0.00013957 -4.01805e-24)
(0.016867 0.000128941 -1.34401e-23)
(0.0169058 0.00011777 3.76422e-23)
(0.0169406 0.000106207 -6.35953e-24)
(0.0169716 9.43762e-05 -1.12975e-23)
(0.0169991 8.2378e-05 4.41019e-24)
(0.0170233 7.0294e-05 -6.30862e-24)
(0.0170443 5.81901e-05 -1.52271e-23)
(0.0170623 4.61215e-05 1.45627e-23)
(0.0170774 3.41313e-05 7.04186e-25)
(0.0170896 2.2272e-05 -5.92811e-24)
(0.0170992 1.05674e-05 6.71015e-24)
(0.0171061 -9.48619e-07 5.35746e-25)
(0.0171103 -1.22483e-05 -6.56043e-25)
(0.0148003 0.000119003 4.21573e-24)
(0.0148467 0.000110951 6.6488e-24)
(0.0148886 0.000102267 -5.79286e-24)
(0.0149262 9.31497e-05 -1.407e-23)
(0.0149599 8.36965e-05 1.97793e-23)
(0.0149897 7.40056e-05 -2.25643e-23)
(0.0150159 6.41626e-05 -1.50837e-24)
(0.0150386 5.42354e-05 9.22196e-24)
(0.0150581 4.42817e-05 3.43914e-24)
(0.0150743 3.43499e-05 -8.11016e-24)
(0.0150875 2.44847e-05 -6.61689e-25)
(0.0150977 1.47301e-05 1.86238e-23)
(0.015105 5.11552e-06 -7.21393e-24)
(0.0151095 -4.34823e-06 -2.08129e-24)
(0.0151112 -1.35847e-05 -1.50858e-25)
(0.0129224 9.25383e-05 -4.37784e-24)
(0.0129661 8.6151e-05 5.68015e-24)
(0.0130056 7.92915e-05 7.36038e-25)
(0.0130409 7.20867e-05 1.2985e-23)
(0.0130723 6.45981e-05 -1.03039e-23)
(0.0131001 5.69061e-05 1.15782e-24)
(0.0131242 4.90823e-05 -9.75778e-25)
(0.013145 4.1182e-05 -3.70513e-24)
(0.0131624 3.3255e-05 3.81537e-24)
(0.0131766 2.53426e-05 -1.23918e-23)
(0.0131877 1.74901e-05 4.30277e-25)
(0.0131957 9.7246e-06 2.98664e-24)
(0.0132008 2.0853e-06 2.09528e-24)
(0.013203 -5.42694e-06 9.20372e-25)
(0.0132023 -1.27495e-05 4.08279e-25)
(0.0111532 7.01968e-05 3.24216e-24)
(0.0111932 6.5307e-05 -2.53381e-24)
(0.0112294 6.00804e-05 -1.21717e-23)
(0.0112618 5.45774e-05 1.14556e-23)
(0.0112905 4.88399e-05 1.74129e-23)
(0.0113158 4.29355e-05 -3.8079e-24)
(0.0113376 3.69211e-05 -9.19751e-24)
(0.0113561 3.08406e-05 -1.43587e-23)
(0.0113714 2.47339e-05 1.11098e-23)
(0.0113836 1.86376e-05 8.30993e-25)
(0.0113927 1.25852e-05 -2.83393e-24)
(0.0113989 6.61154e-06 -9.39053e-25)
(0.0114021 7.30143e-07 1.88882e-24)
(0.0114024 -5.0398e-06 -6.04609e-27)
(0.0114001 -1.06651e-05 -4.63206e-25)
(0.00949906 5.18289e-05 -2.04074e-24)
(0.00953499 4.82264e-05 -1.59247e-24)
(0.00956747 4.43955e-05 1.76236e-24)
(0.00959656 4.03416e-05 -6.40888e-24)
(0.00962236 3.61012e-05 2.12803e-23)
(0.00964494 3.17289e-05 -2.94455e-23)
(0.00966437 2.72672e-05 3.00916e-23)
(0.00968073 2.27498e-05 -1.30793e-23)
(0.00969408 1.82074e-05 3.34514e-24)
(0.00970448 1.36703e-05 3.00465e-25)
(0.009712 9.16256e-06 -2.66684e-24)
(0.0097167 4.71861e-06 1.23434e-24)
(0.00971863 3.38785e-07 -2.46913e-24)
(0.00971789 -3.93877e-06 -3.97658e-25)
(0.00971454 -8.12222e-06 2.15121e-25)
(0.00796352 3.70841e-05 -9.92107e-25)
(0.00799506 3.45407e-05 2.25244e-25)
(0.00802366 3.18494e-05 5.64693e-25)
(0.00804934 2.89793e-05 -2.89135e-24)
(0.00807212 2.59681e-05 -1.49215e-24)
(0.00809205 2.28565e-05 1.2055e-23)
(0.00810916 1.9674e-05 -7.20548e-24)
(0.00812351 1.64461e-05 1.15138e-24)
(0.00813514 1.31954e-05 -1.08982e-24)
(0.00814408 9.94484e-06 -1.3267e-24)
(0.0081504 6.71275e-06 -5.02322e-25)
(0.00815415 3.52293e-06 2.85717e-24)
(0.00815538 3.96174e-07 1.00159e-24)
(0.00815416 -2.66606e-06 -1.94455e-24)
(0.00815056 -5.673e-06 -3.56066e-25)
(0.00654736 2.55261e-05 -3.61101e-25)
(0.00657443 2.38162e-05 -1.3771e-25)
(0.00659911 2.20143e-05 -6.2922e-24)
(0.00662133 2.00738e-05 1.44928e-24)
(0.0066411 1.80327e-05 -5.12828e-24)
(0.00665843 1.59179e-05 3.09621e-24)
(0.00667333 1.37494e-05 6.73277e-24)
(0.00668583 1.15451e-05 5.55262e-24)
(0.00669594 9.32101e-06 -8.04957e-24)
(0.0067037 7.09374e-06 2.44127e-24)
(0.00670916 4.87586e-06 2.36491e-24)
(0.00671235 2.68341e-06 -3.70295e-24)
(0.00671331 5.49858e-07 1.99496e-24)
(0.00671213 -1.55072e-06 -2.60402e-25)
(0.00670882 -3.62617e-06 6.64737e-25)
(0.00524923 1.67036e-05 -1.41609e-24)
(0.00527184 1.56199e-05 -2.06432e-24)
(0.0052926 1.44818e-05 -5.14451e-25)
(0.00531137 1.32426e-05 5.23759e-24)
(0.00532814 1.19368e-05 -3.93547e-24)
(0.0053429 1.05793e-05 -9.33176e-25)
(0.00535565 9.18298e-06 6.8378e-24)
(0.00536638 7.75993e-06 1.79149e-25)
(0.00537511 6.32085e-06 -1.39299e-24)
(0.00538186 4.87695e-06 -6.03517e-24)
(0.00538666 3.43632e-06 4.22855e-25)
(0.00538952 2.00898e-06 4.61824e-24)
(0.00539049 6.09594e-07 -6.0805e-25)
(0.00538969 -7.2414e-07 -8.35606e-25)
(0.00538701 -2.09323e-06 5.82544e-25)
(0.00406589 1.01858e-05 -3.09997e-25)
(0.00408412 9.54889e-06 7.71124e-27)
(0.00410098 8.88306e-06 2.48179e-24)
(0.0041163 8.15024e-06 1.8204e-24)
(0.00413007 7.37689e-06 -1.07761e-24)
(0.00414226 6.56962e-06 -3.08304e-24)
(0.00415285 5.73626e-06 1.3576e-24)
(0.00416184 4.88426e-06 -5.95141e-24)
(0.00416922 4.02027e-06 4.62916e-24)
(0.004175 3.15141e-06 2.66656e-24)
(0.00417919 2.28259e-06 1.77803e-25)
(0.00418182 1.41996e-06 -3.16264e-24)
(0.0041829 5.61802e-07 6.37378e-25)
(0.00418256 -2.26448e-07 -5.52004e-25)
(0.00418071 -1.05706e-06 2.98039e-25)
(0.00299262 5.57674e-06 -5.7188e-25)
(0.00300655 5.23797e-06 -8.36296e-27)
(0.00301956 4.88839e-06 1.97964e-24)
(0.00303143 4.50079e-06 -1.2455e-24)
(0.00304217 4.09141e-06 5.57365e-24)
(0.00305175 3.66223e-06 -1.03337e-23)
(0.00306013 3.21754e-06 8.80852e-24)
(0.00306731 2.76145e-06 -7.69395e-24)
(0.00307328 2.29766e-06 5.80174e-24)
(0.00307804 1.83026e-06 -3.94034e-24)
(0.00308159 1.36202e-06 1.38955e-24)
(0.00308394 8.96563e-07 2.17809e-25)
(0.0030851 4.29909e-07 4.1937e-25)
(0.00308515 3.45917e-09 -5.30754e-25)
(0.00308409 -4.41145e-07 1.22801e-25)
(0.00202353 2.53342e-06 8.69657e-25)
(0.00203329 2.37741e-06 1.00354e-24)
(0.00204248 2.22271e-06 -4.24213e-24)
(0.00205091 2.05143e-06 3.18342e-24)
(0.0020586 1.87067e-06 -5.45497e-29)
(0.0020655 1.6807e-06 9.50407e-25)
(0.0020716 1.48356e-06 -1.08819e-24)
(0.00207687 1.28122e-06 -2.53552e-24)
(0.00208132 1.07539e-06 2.58919e-24)
(0.00208492 8.6807e-07 3.45784e-25)
(0.00208769 6.60637e-07 -2.36949e-24)
(0.00208963 4.54996e-07 8.42435e-25)
(0.00209073 2.47713e-07 5.83723e-25)
(0.00209104 6.02585e-08 -6.25735e-26)
(0.0020906 -1.32642e-07 -8.24615e-26)
(0.00115195 8.00274e-07 -8.7966e-25)
(0.00115767 7.53851e-07 2.7526e-24)
(0.0011631 7.12143e-07 1.78788e-24)
(0.00116812 6.64112e-07 -3.07451e-24)
(0.00117273 6.11461e-07 -3.67692e-25)
(0.0011769 5.54465e-07 -3.53876e-25)
(0.00118062 4.94048e-07 1.15482e-24)
(0.00118388 4.31098e-07 -2.00402e-24)
(0.00118666 3.66361e-07 2.89706e-24)
(0.00118896 3.00671e-07 -1.41352e-24)
(0.00119077 2.34661e-07 -1.03093e-24)
(0.0011921 1.69345e-07 6.56439e-25)
(0.00119294 1.03934e-07 -9.11365e-25)
(0.00119331 4.70255e-08 9.48762e-25)
(0.00119325 -1.1814e-08 -1.79783e-25)
(0.000370734 1.48088e-07 -6.32185e-27)
(0.000372573 1.81791e-07 5.44147e-25)
(0.000374341 2.10939e-07 6.64942e-25)
(0.00037599 2.31879e-07 -1.0051e-24)
(0.000377523 2.44926e-07 2.27581e-24)
(0.000378928 2.50335e-07 -2.45895e-24)
(0.000380197 2.48493e-07 1.76699e-25)
(0.000381322 2.39787e-07 1.56113e-24)
(0.000382299 2.2459e-07 -2.16631e-24)
(0.000383123 2.033e-07 -4.60348e-25)
(0.000383792 1.76294e-07 1.71447e-24)
(0.000384306 1.44165e-07 -7.78678e-25)
(0.000384657 1.07645e-07 -3.44128e-25)
(0.000384858 6.84566e-08 2.95749e-25)
(0.000384913 2.46397e-08 -1.50776e-26)
(0.000884238 -0.000234263 8.57522e-26)
(0.00101057 -0.000156105 2.23073e-24)
(0.00122409 -7.40945e-05 -6.46184e-24)
(0.00144239 -5.30104e-06 9.49013e-24)
(0.00165258 5.20542e-05 -3.55932e-24)
(0.0018598 9.87147e-05 -3.49564e-24)
(0.0020645 0.000136786 4.00918e-24)
(0.0022677 0.000167937 -8.0276e-24)
(0.00247038 0.000193441 4.46795e-25)
(0.0026732 0.00021428 5.14538e-24)
(0.00287667 0.000231263 -1.00775e-24)
(0.00308121 0.000245085 1.11579e-24)
(0.00328737 0.000256358 -9.48459e-26)
(0.00349591 0.000265679 7.73612e-25)
(0.0037079 0.000273541 -2.85874e-24)
(0.00392488 0.000280207 1.59254e-24)
(0.00414908 0.000285642 -5.52492e-25)
(0.00438362 0.000289446 1.48938e-26)
(0.00463285 0.00029051 1.40463e-24)
(0.00490221 0.000286549 -8.92574e-25)
(0.00519822 0.000272878 1.12555e-25)
(0.00552527 0.000241597 -9.76709e-26)
(0.00585668 0.0001835 1.72633e-25)
(0.00614872 0.00010171 6.16356e-25)
(0.00638658 3.90624e-06 -1.1099e-24)
(0.00657031 -0.000105161 -6.63773e-25)
(0.00670295 -0.000221015 8.76246e-26)
(0.0067878 -0.000338935 1.53703e-24)
(0.00682724 -0.000455328 1.7366e-24)
(0.00682326 -0.0005674 -3.35548e-24)
(0.00677764 -0.000671925 1.95284e-24)
(0.00669198 -0.000764835 -1.11853e-24)
(0.00656781 -0.000841191 -2.41797e-26)
(0.00640686 -0.000895198 -1.73716e-24)
(0.00621101 -0.000920257 1.69073e-24)
(0.00598238 -0.000908907 9.77612e-24)
(0.00572316 -0.000852534 -2.91851e-24)
(0.00543566 -0.000740643 2.20737e-24)
(0.00512242 -0.000559483 1.07813e-24)
(0.00478675 -0.000290422 -1.34894e-23)
(0.00443118 8.9155e-05 -1.62444e-25)
(0.00405955 0.000592283 5.5645e-24)
(0.00365821 0.00119046 1.78651e-24)
(0.00324066 0.00175631 -7.81608e-24)
(0.00300247 0.00189758 -3.91895e-25)
(0.00166552 -0.000310617 -2.53534e-24)
(0.00171684 -0.000265447 -3.63323e-24)
(0.00184735 -0.000186145 7.5726e-24)
(0.00201228 -0.000110548 3.60612e-24)
(0.00218837 -4.35488e-05 -1.26181e-23)
(0.00237143 1.28276e-05 1.3571e-23)
(0.002558 5.96522e-05 -4.87622e-24)
(0.00274688 9.85245e-05 3.98416e-24)
(0.00293776 0.000130828 -5.26079e-24)
(0.00313063 0.000157688 4.96475e-26)
(0.00332558 0.000180031 -2.95019e-24)
(0.00352281 0.000198626 5.89546e-24)
(0.00372271 0.000214123 -3.33805e-24)
(0.00392594 0.000227143 -3.23482e-24)
(0.00413346 0.000238193 -2.40671e-24)
(0.00434666 0.00024753 4.19457e-24)
(0.00456764 0.000255107 -6.33676e-25)
(0.00479927 0.000260512 2.52612e-24)
(0.00504559 0.000262641 4.69602e-25)
(0.00531156 0.000259257 -8.01506e-25)
(0.00560321 0.000245887 -3.46122e-25)
(0.00592453 0.000215064 -2.0121e-25)
(0.00624952 0.000158205 9.40099e-25)
(0.00653594 7.88345e-05 1.02849e-24)
(0.00676961 -1.54303e-05 -1.02368e-24)
(0.00695058 -0.000120104 -4.19873e-24)
(0.00708174 -0.00023087 5.41294e-24)
(0.00716626 -0.000342982 -3.49564e-24)
(0.0072064 -0.000452734 1.14534e-24)
(0.00720415 -0.000557265 -4.39755e-25)
(0.00716146 -0.000653304 2.65761e-24)
(0.00708017 -0.000736769 -1.94474e-24)
(0.0069622 -0.00080274 -1.30346e-24)
(0.00680978 -0.000845484 9.29878e-24)
(0.0066255 -0.000858474 -1.49714e-23)
(0.00641242 -0.000834338 4.02072e-24)
(0.00617414 -0.000764599 1.70611e-23)
(0.00591511 -0.000639041 -4.89089e-24)
(0.00564121 -0.00044457 -1.33228e-23)
(0.0053615 -0.000163738 -7.82293e-24)
(0.0050891 0.000224479 1.78629e-23)
(0.00484699 0.000735732 -1.71594e-23)
(0.00465934 0.0013406 -3.96198e-24)
(0.00456439 0.00190121 1.12006e-23)
(0.00460716 0.00198483 3.78707e-24)
(0.00259064 -0.00031639 -2.896e-26)
(0.00259569 -0.000309951 -4.12807e-24)
(0.00264943 -0.000261369 8.05162e-24)
(0.00275185 -0.000195862 6.90771e-24)
(0.00288033 -0.000129632 -1.12299e-23)
(0.00302657 -6.93955e-05 2.2391e-25)
(0.00318428 -1.7068e-05 1.10274e-24)
(0.00334992 2.77028e-05 1.21855e-23)
(0.00352157 6.57832e-05 -1.44701e-23)
(0.00369817 9.80844e-05 9.10473e-24)
(0.00387919 0.000125469 2.95454e-24)
(0.00406438 0.000148676 -1.57944e-23)
(0.00425388 0.000168328 5.73255e-24)
(0.00444813 0.00018504 2.42758e-24)
(0.00464792 0.000199311 -5.36672e-24)
(0.00485446 0.000211378 9.02548e-24)
(0.00506964 0.000221168 -6.61244e-24)
(0.00529609 0.000228255 -2.38378e-25)
(0.00553745 0.000231539 5.02024e-25)
(0.00579821 0.000228831 6.11173e-25)
(0.00608384 0.000215871 8.45621e-26)
(0.0063978 0.000185629 3.68787e-25)
(0.00671481 0.000130141 -9.35622e-25)
(0.00699425 5.33358e-05 2.70294e-24)
(0.00722253 -3.72194e-05 -4.03876e-24)
(0.00739969 -0.000137284 2.28036e-24)
(0.00752851 -0.00024273 -4.56024e-24)
(0.00761203 -0.000348766 6.09206e-24)
(0.00765236 -0.000451559 -4.64106e-24)
(0.00765154 -0.000548187 9.73841e-25)
(0.00761167 -0.00063535 1.32491e-24)
(0.00753489 -0.000708963 2.34566e-24)
(0.00742354 -0.000764165 -3.27049e-25)
(0.0072804 -0.000795342 4.8349e-24)
(0.00710878 -0.000796165 -1.31891e-23)
(0.00691278 -0.000759574 2.21716e-23)
(0.00669745 -0.000677612 -1.5037e-23)
(0.00646934 -0.000541037 2.15132e-23)
(0.00623744 -0.000338695 -4.09346e-23)
(0.0060155 -5.67836e-05 1.55475e-23)
(0.00582419 0.000319215 5.35949e-24)
(0.005696 0.000796526 8.4465e-24)
(0.00566721 0.00133878 -1.05262e-23)
(0.00575981 0.00181105 3.18872e-24)
(0.00594197 0.00187244 -1.97765e-24)
(0.0036453 -0.000297527 -1.08117e-24)
(0.00362381 -0.000315125 -1.67313e-24)
(0.00362958 -0.000294707 -7.20866e-24)
(0.00367199 -0.000251686 1.89331e-24)
(0.00374841 -0.000196137 1.25478e-24)
(0.00384954 -0.000139632 5.77028e-24)
(0.00396923 -8.69896e-05 -1.23262e-23)
(0.00410289 -3.97409e-05 4.62289e-24)
(0.00424735 1.86394e-06 1.60062e-23)
(0.00440056 3.81083e-05 -4.18616e-24)
(0.00456127 6.95237e-05 -4.07493e-24)
(0.00472872 9.66523e-05 -6.71392e-25)
(0.00490269 0.000119982 2.31556e-24)
(0.00508336 0.00014006 -4.64941e-24)
(0.00527127 0.000157338 1.02418e-24)
(0.00546741 0.000171995 -5.01541e-25)
(0.00567344 0.000183918 -2.76161e-24)
(0.00589168 0.000192651 8.55251e-25)
(0.00612538 0.000197093 4.98421e-24)
(0.00637849 0.000195103 -5.61692e-25)
(0.00665585 0.000182638 -1.17634e-24)
(0.00696032 0.000153111 -3.15074e-25)
(0.00726733 9.91686e-05 -1.64418e-24)
(0.00753799 2.51406e-05 2.4651e-26)
(0.0077593 -6.14511e-05 -3.38336e-24)
(0.00793126 -0.000156615 6.06983e-24)
(0.00805656 -0.000256435 -4.56841e-24)
(0.00813809 -0.000356056 8.52071e-24)
(0.00817787 -0.000451512 -6.52579e-24)
(0.00817795 -0.000539843 1.7364e-24)
(0.00814064 -0.000617755 1.93456e-24)
(0.00806841 -0.000681204 -2.71826e-25)
(0.00796402 -0.000725458 -3.97024e-25)
(0.00783082 -0.000745136 -1.54946e-24)
(0.00767289 -0.000734283 2.07507e-24)
(0.0074953 -0.000686425 -6.83346e-24)
(0.00730443 -0.000594566 3.15947e-23)
(0.00710859 -0.000451119 -1.6832e-23)
(0.00691905 -0.000247925 -6.72282e-25)
(0.00675187 2.34688e-05 -3.64636e-23)
(0.00662992 0.000368959 2.76128e-23)
(0.00658475 0.000784987 -1.02188e-23)
(0.00664791 0.00123384 2.15699e-24)
(0.00682445 0.0016115 1.35763e-23)
(0.00706663 0.00171488 -3.53815e-24)
(0.00482699 -0.000268303 -4.4794e-24)
(0.00479509 -0.00029683 9.16222e-24)
(0.00477355 -0.000294526 2.6103e-24)
(0.0047753 -0.000274539 1.14232e-23)
(0.00480311 -0.000236687 -2.80494e-23)
(0.00485809 -0.000190474 -8.11896e-25)