/*--------------------------------*- C++ -*----------------------------------*\
| =========                 |                                                 |
| \\      /  F ield         | OpenFOAM: The Open Source CFD Toolbox           |
|  \\    /   O peration     | Version:  2312                                  |
|   \\  /    A nd           | Website:  www.openfoam.com                      |
|    \\/     M anipulation  |                                                 |
\*---------------------------------------------------------------------------*/
FoamFile
{
    version     2.0;
    format      ascii;
    arch        "LSB;label=32;scalar=64";
    class       volScalarField;
    location    "96";
    object      p;
}
// * * * * * * * * * * * * * * * * * * * * * * * * * * * * * * * * * * * * * //

dimensions      [0 2 -2 0 0 0 0];

internalField   nonuniform List<scalar> 
4800
(
-4.7935e-14
-1.45045e-06
-2.59405e-06
-3.51208e-06
-4.26118e-06
-4.88225e-06
-5.40203e-06
-5.85155e-06
-6.24223e-06
-6.58559e-06
-6.89189e-06
-7.16393e-06
-7.3975e-06
-7.82316e-06
-9.35193e-06
1.86897e-08
-1.42982e-06
-2.57276e-06
-3.49104e-06
-4.2411e-06
-4.86421e-06
-5.38673e-06
-5.84053e-06
-6.23703e-06
-6.5894e-06
-6.91288e-06
-7.22316e-06
-7.53489e-06
-7.95397e-06
-8.71624e-06
3.81579e-08
-1.40827e-06
-2.55054e-06
-3.46917e-06
-4.22042e-06
-4.8455e-06
-5.37023e-06
-5.82673e-06
-6.22797e-06
-6.58699e-06
-6.92016e-06
-7.24423e-06
-7.56779e-06
-7.90068e-06
-8.22263e-06
5.7526e-08
-1.38639e-06
-2.52767e-06
-3.44632e-06
-4.19837e-06
-4.82482e-06
-5.35158e-06
-5.80877e-06
-6.21212e-06
-6.57263e-06
-6.90374e-06
-7.21452e-06
-7.49815e-06
-7.7264e-06
-7.83448e-06
7.83007e-08
-1.36253e-06
-2.50235e-06
-3.42056e-06
-4.17291e-06
-4.79987e-06
-5.32815e-06
-5.78371e-06
-6.18513e-06
-6.54057e-06
-6.85786e-06
-7.13731e-06
-7.3619e-06
-7.49628e-06
-7.48955e-06
1.01822e-07
-1.3353e-06
-2.47314e-06
-3.39033e-06
-4.14222e-06
-4.76847e-06
-5.29619e-06
-5.74815e-06
-6.14244e-06
-6.48484e-06
-6.77767e-06
-7.01516e-06
-7.17853e-06
-7.24078e-06
-7.17622e-06
1.30174e-07
-1.3027e-06
-2.43793e-06
-3.35329e-06
-4.1036e-06
-4.72751e-06
-5.25156e-06
-5.69692e-06
-6.0785e-06
-6.40016e-06
-6.66075e-06
-6.85274e-06
-6.96206e-06
-6.97517e-06
-6.88602e-06
1.67217e-07
-1.26101e-06
-2.39296e-06
-3.30549e-06
-4.05266e-06
-4.67206e-06
-5.18923e-06
-5.62346e-06
-5.9869e-06
-6.28217e-06
-6.50722e-06
-6.65667e-06
-6.72398e-06
-6.70731e-06
-6.61155e-06
2.1926e-07
-1.20416e-06
-2.33213e-06
-3.2406e-06
-3.98273e-06
-4.59502e-06
-5.10179e-06
-5.52051e-06
-5.86154e-06
-6.12774e-06
-6.31856e-06
-6.43291e-06
-6.47136e-06
-6.4397e-06
-6.34739e-06
2.95267e-07
-1.12325e-06
-2.24645e-06
-3.14947e-06
-3.88445e-06
-4.48683e-06
-4.97993e-06
-5.37985e-06
-5.69644e-06
-5.9343e-06
-6.09588e-06
-6.18467e-06
-6.20635e-06
-6.1706e-06
-6.08788e-06
4.06398e-07
-1.00669e-06
-2.12397e-06
-3.01994e-06
-3.7456e-06
-4.33556e-06
-4.81259e-06
-5.19227e-06
-5.48524e-06
-5.69862e-06
-5.83831e-06
-5.91139e-06
-5.9265e-06
-5.8946e-06
-5.82552e-06
5.65342e-07
-8.40716e-07
-1.95024e-06
-2.83718e-06
-3.55151e-06
-4.12728e-06
-4.5873e-06
-4.94772e-06
-5.22063e-06
-5.41572e-06
-5.5418e-06
-5.60831e-06
-5.62505e-06
-5.60281e-06
-5.55025e-06
7.86493e-07
-6.09331e-07
-1.70832e-06
-2.58395e-06
-3.28535e-06
-3.84633e-06
-4.29028e-06
-4.63466e-06
-4.89322e-06
-5.07759e-06
-5.19843e-06
-5.26632e-06
-5.29119e-06
-5.28296e-06
-5.2491e-06
1.0868e-06
-2.93376e-07
-1.37807e-06
-2.23992e-06
-2.92745e-06
-3.47452e-06
-3.90537e-06
-4.23873e-06
-4.48979e-06
-4.67144e-06
-4.79508e-06
-4.87134e-06
-4.90967e-06
-4.91901e-06
-4.90579e-06
1.48568e-06
1.29687e-07
-9.35491e-07
-1.78089e-06
-2.45439e-06
-2.9899e-06
-3.41219e-06
-3.74067e-06
-3.99142e-06
-4.178e-06
-4.31181e-06
-4.40273e-06
-4.45934e-06
-4.4896e-06
-4.49926e-06
2.00312e-06
6.83949e-07
-3.54267e-07
-1.1797e-06
-1.83934e-06
-2.36664e-06
-2.78606e-06
-3.11658e-06
-3.37415e-06
-3.57217e-06
-3.72235e-06
-3.8335e-06
-3.91291e-06
-3.96761e-06
-4.00292e-06
2.65636e-06
1.39138e-06
3.90328e-07
-4.1013e-07
-1.05512e-06
-1.57713e-06
-1.99977e-06
-2.34032e-06
-2.61241e-06
-2.82702e-06
-2.99879e-06
-3.13533e-06
-3.24218e-06
-3.32522e-06
-3.38949e-06
3.4555e-06
2.26662e-06
1.31582e-06
5.47069e-07
-8.08622e-08
-5.98084e-07
-1.02728e-06
-1.38489e-06
-1.68287e-06
-1.91702e-06
-2.11546e-06
-2.2829e-06
-2.42271e-06
-2.53965e-06
-2.63819e-06
4.39833e-06
3.31006e-06
2.42499e-06
1.69643e-06
1.08945e-06
5.78776e-07
1.46043e-07
-2.22485e-07
-5.39264e-07
-8.10276e-07
-1.04489e-06
-1.24919e-06
-1.42763e-06
-1.58478e-06
-1.7247e-06
5.46212e-06
4.49681e-06
3.69236e-06
3.0131e-06
2.43131e-06
1.92743e-06
1.48937e-06
1.10762e-06
7.73556e-07
4.71821e-07
2.02979e-07
-3.75367e-08
-2.54644e-07
-4.52887e-07
-6.36086e-07
6.54709e-06
5.71155e-06
4.99342e-06
4.36735e-06
3.81447e-06
3.32101e-06
2.8753e-06
2.47061e-06
2.10525e-06
1.77463e-06
1.47256e-06
1.19238e-06
9.30122e-07
6.83063e-07
4.4907e-07
7.48141e-06
6.75818e-06
6.11685e-06
5.54089e-06
5.01688e-06
4.53604e-06
4.0946e-06
3.6859e-06
3.30098e-06
2.92887e-06
2.5864e-06
2.26837e-06
1.9659e-06
1.675e-06
1.3949e-06
8.1968e-06
7.55639e-06
6.97116e-06
6.43069e-06
5.92691e-06
5.45408e-06
5.0075e-06
4.58365e-06
4.1807e-06
3.79789e-06
3.43467e-06
3.08715e-06
2.75099e-06
2.42431e-06
2.1065e-06
8.71898e-06
8.13962e-06
7.59628e-06
7.08332e-06
6.59581e-06
6.13041e-06
5.68488e-06
5.25797e-06
4.84822e-06
4.45289e-06
4.06995e-06
3.6973e-06
3.33333e-06
2.97705e-06
2.62757e-06
9.08925e-06
8.55517e-06
8.04424e-06
7.55376e-06
7.08112e-06
6.62464e-06
6.18257e-06
5.75311e-06
5.33471e-06
4.92635e-06
4.52643e-06
4.13374e-06
3.74742e-06
3.36669e-06
2.99069e-06
9.34321e-06
8.84321e-06
8.35769e-06
7.88548e-06
7.4252e-06
6.97553e-06
6.53479e-06
6.10185e-06
5.67658e-06
5.25784e-06
4.84462e-06
4.43622e-06
4.03197e-06
3.63128e-06
3.23364e-06
9.51109e-06
9.03705e-06
8.57126e-06
8.11324e-06
7.66222e-06
7.21743e-06
6.77811e-06
6.34278e-06
5.91227e-06
5.48541e-06
5.06168e-06
4.64064e-06
4.22183e-06
3.80498e-06
3.3898e-06
9.61783e-06
9.16378e-06
8.71328e-06
8.26623e-06
7.82243e-06
7.38177e-06
6.94502e-06
6.50713e-06
6.07225e-06
5.6389e-06
5.2067e-06
4.77542e-06
4.34485e-06
3.91494e-06
3.48557e-06
9.68305e-06
9.24469e-06
8.80627e-06
8.36806e-06
7.93013e-06
7.49227e-06
7.05338e-06
6.61754e-06
6.17972e-06
5.74122e-06
5.3022e-06
4.86264e-06
4.42254e-06
3.98201e-06
3.54109e-06
9.72142e-06
9.29567e-06
8.86705e-06
8.43613e-06
8.00318e-06
7.56819e-06
7.13087e-06
6.69288e-06
6.25233e-06
5.80962e-06
5.36499e-06
4.91862e-06
4.47065e-06
4.02136e-06
3.57092e-06
9.74336e-06
9.32796e-06
8.90743e-06
8.48258e-06
8.05381e-06
7.62121e-06
7.18474e-06
6.74535e-06
6.30244e-06
5.85616e-06
5.4068e-06
4.9547e-06
4.50013e-06
4.04349e-06
3.58506e-06
9.75588e-06
9.34912e-06
8.93537e-06
8.51564e-06
8.09036e-06
7.65967e-06
7.22376e-06
6.78334e-06
6.33837e-06
5.88897e-06
5.43554e-06
4.97852e-06
4.5183e-06
4.05535e-06
3.59009e-06
9.76344e-06
9.36402e-06
8.95602e-06
8.54064e-06
8.11826e-06
7.68916e-06
7.25364e-06
6.81229e-06
6.36549e-06
5.91334e-06
5.45633e-06
4.995e-06
4.52984e-06
4.06141e-06
3.5902e-06
9.76874e-06
9.37561e-06
8.97255e-06
8.56087e-06
8.14094e-06
7.71314e-06
7.27784e-06
6.83563e-06
6.38719e-06
5.93257e-06
5.47236e-06
5.00721e-06
4.53767e-06
4.06438e-06
3.58792e-06
9.77326e-06
9.38558e-06
8.98679e-06
8.57828e-06
8.16042e-06
7.73367e-06
7.29844e-06
6.85548e-06
6.4055e-06
5.94864e-06
5.48555e-06
5.01696e-06
4.5435e-06
4.06588e-06
3.58474e-06
9.7777e-06
9.39479e-06
8.9997e-06
8.59392e-06
8.17779e-06
7.75192e-06
7.31664e-06
6.87307e-06
6.42158e-06
5.96269e-06
5.49696e-06
5.02527e-06
4.54828e-06
4.06678e-06
3.58144e-06
9.78234e-06
9.40358e-06
9.01171e-06
8.60825e-06
8.1936e-06
7.76842e-06
7.33301e-06
6.88892e-06
6.43603e-06
5.97526e-06
5.50715e-06
5.03266e-06
4.55251e-06
4.06752e-06
3.57842e-06
9.78728e-06
9.41218e-06
9.0231e-06
8.62163e-06
8.20823e-06
7.7836e-06
7.34807e-06
6.90333e-06
6.44923e-06
5.98673e-06
5.51648e-06
5.03948e-06
4.55647e-06
4.06831e-06
3.57581e-06
9.79281e-06
9.4211e-06
9.03459e-06
8.63492e-06
8.22263e-06
7.79848e-06
7.36283e-06
6.91727e-06
6.4621e-06
5.99792e-06
5.52562e-06
5.04624e-06
4.5605e-06
4.06931e-06
3.57351e-06
9.79852e-06
9.43013e-06
9.04619e-06
8.64842e-06
8.23727e-06
7.81357e-06
7.37775e-06
6.93151e-06
6.4751e-06
6.00926e-06
5.5349e-06
5.05295e-06
4.56446e-06
4.0704e-06
3.57159e-06
-1.05528e-05
-8.33147e-06
-6.97205e-06
-6.05606e-06
-5.32734e-06
-4.77478e-06
-4.35705e-06
-4.0476e-06
-3.82936e-06
-3.68893e-06
-3.61536e-06
-3.5992e-06
-3.63183e-06
-3.7054e-06
-3.81259e-06
-3.94664e-06
-4.10205e-06
-4.27483e-06
-4.46588e-06
-4.68059e-06
-4.92622e-06
-5.19746e-06
-5.41316e-06
-5.43806e-06
-5.18658e-06
-4.63424e-06
-3.78236e-06
-2.64297e-06
-1.23668e-06
4.10858e-07
2.27272e-06
4.31916e-06
6.51632e-06
8.82549e-06
1.12028e-05
1.35995e-05
1.59611e-05
1.82267e-05
2.03222e-05
2.21469e-05
2.35858e-05
2.44127e-05
2.41837e-05
2.24853e-05
1.7756e-05
-8.99947e-06
-7.82271e-06
-6.78112e-06
-5.95986e-06
-5.27469e-06
-4.73725e-06
-4.32561e-06
-4.01958e-06
-3.80426e-06
-3.66701e-06
-3.5971e-06
-3.58508e-06
-3.62226e-06
-3.70065e-06
-3.81285e-06
-3.95201e-06
-4.11249e-06
-4.29008e-06
-4.48514e-06
-4.70212e-06
-4.94663e-06
-5.21159e-06
-5.41566e-06
-5.42682e-06
-5.16234e-06
-4.59947e-06
-3.74024e-06
-2.59636e-06
-1.18852e-06
4.56821e-07
2.31152e-06
4.34413e-06
6.5185e-06
8.7931e-06
1.11203e-05
1.34463e-05
1.57093e-05
1.78373e-05
1.97395e-05
2.12893e-05
2.22995e-05
2.24435e-05
2.10845e-05
1.74295e-05
1.03497e-05
-8.18302e-06
-7.42983e-06
-6.58638e-06
-5.85066e-06
-5.21362e-06
-4.6971e-06
-4.29462e-06
-3.99347e-06
-3.78166e-06
-3.64777e-06
-3.58155e-06
-3.57365e-06
-3.61535e-06
-3.69856e-06
-3.81579e-06
-3.96007e-06
-4.12565e-06
-4.30802e-06
-4.50699e-06
-4.72594e-06
-4.96863e-06
-5.22599e-06
-5.41655e-06
-5.41203e-06
-5.13301e-06
-4.55878e-06
-3.69225e-06
-2.5448e-06
-1.13737e-06
5.02531e-07
2.34522e-06
4.35709e-06
6.49916e-06
8.7263e-06
1.09863e-05
1.32191e-05
1.53546e-05
1.73085e-05
1.89728e-05
2.01979e-05
2.0759e-05
2.03094e-05
1.82955e-05
1.42387e-05
8.00761e-06
-7.67132e-06
-7.11125e-06
-6.42379e-06
-5.75501e-06
-5.16317e-06
-4.66838e-06
-4.27489e-06
-3.97772e-06
-3.76812e-06
-3.63618e-06
-3.57232e-06
-3.56744e-06
-3.61277e-06
-3.70012e-06
-3.8219e-06
-3.97097e-06
-4.14141e-06
-4.32838e-06
-4.53103e-06
-4.75153e-06
-4.99158e-06
-5.23991e-06
-5.41482e-06
-5.39224e-06
-5.09636e-06
-4.50885e-06
-3.63374e-06
-2.4822e-06
-1.07562e-06
5.57006e-07
2.384e-06
4.36904e-06
6.46963e-06
8.63629e-06
1.08115e-05
1.29282e-05
1.49074e-05
1.66538e-05
1.80465e-05
1.89255e-05
1.90703e-05
1.81898e-05
1.59266e-05
1.20681e-05
6.90635e-06
-7.28473e-06
-6.83955e-06
-6.27203e-06
-5.68341e-06
-5.13256e-06
-4.65912e-06
-4.27383e-06
-3.97907e-06
-3.76958e-06
-3.63728e-06
-3.57361e-06
-3.56983e-06
-3.61717e-06
-3.70736e-06
-3.83265e-06
-3.98572e-06
-4.1604e-06
-4.35143e-06
-4.55722e-06
-4.77858e-06
-5.01492e-06
-5.25252e-06
-5.40952e-06
-5.36663e-06
-5.05202e-06
-4.45015e-06
-3.56638e-06
-2.41171e-06
-1.00826e-06
6.13073e-07
2.41826e-06
4.36782e-06
6.41527e-06
8.50635e-06
1.05779e-05
1.25562e-05
1.43551e-05
1.58715e-05
1.69804e-05
1.75284e-05
1.733e-05
1.61836e-05
1.39152e-05
1.0514e-05
6.31744e-06
-6.97104e-06
-6.60747e-06
-6.13101e-06
-5.62317e-06
-5.1211e-06
-4.67081e-06
-4.29517e-06
-4.00251e-06
-3.79136e-06
-3.65622e-06
-3.59008e-06
-3.58486e-06
-3.63192e-06
-3.72295e-06
-3.85008e-06
-4.00576e-06
-4.18353e-06
-4.37762e-06
-4.58556e-06
-4.80668e-06
-5.03783e-06
-5.26259e-06
-5.39916e-06
-5.33364e-06
-4.99865e-06
-4.38186e-06
-3.49018e-06
-2.33451e-06
-9.3794e-07
6.66251e-07
2.44134e-06
4.34441e-06
6.32469e-06
8.32311e-06
1.02712e-05
1.20902e-05
1.36892e-05
1.49638e-05
1.57947e-05
1.60506e-05
1.55968e-05
1.43221e-05
1.21829e-05
9.27968e-06
5.91551e-06
-6.69705e-06
-6.39764e-06
-6.00408e-06
-5.56273e-06
-5.11703e-06
-4.69834e-06
-4.33771e-06
-4.04943e-06
-3.83655e-06
-3.69689e-06
-3.62584e-06
-3.61645e-06
-3.66045e-06
-3.74972e-06
-3.8764e-06
-4.03265e-06
-4.21174e-06
-4.4073e-06
-4.61588e-06
-4.83514e-06
-5.05912e-06
-5.26854e-06
-5.38183e-06
-5.29125e-06
-4.93437e-06
-4.30255e-06
-3.40451e-06
-2.25099e-06
-8.66399e-07
7.13043e-07
2.4477e-06
4.29109e-06
6.18821e-06
8.07558e-06
9.88079e-06
1.15221e-05
1.29083e-05
1.39405e-05
1.45147e-05
1.45308e-05
1.39068e-05
1.26038e-05
1.06544e-05
8.19362e-06
5.46345e-06
-6.44381e-06
-6.1964e-06
-5.87383e-06
-5.50077e-06
-5.11025e-06
-4.73209e-06
-4.39461e-06
-4.11601e-06
-3.90383e-06
-3.75986e-06
-3.68275e-06
-3.66704e-06
-3.70524e-06
-3.7899e-06
-3.91336e-06
-4.06764e-06
-4.2457e-06
-4.44056e-06
-4.64765e-06
-4.86289e-06
-5.07722e-06
-5.26833e-06
-5.35528e-06
-5.23725e-06
-4.85731e-06
-4.21113e-06
-3.30946e-06
-2.16262e-06
-7.96767e-07
7.4822e-07
2.42978e-06
4.19813e-06
5.99446e-06
7.752e-06
9.39634e-06
1.08462e-05
1.20151e-05
1.28158e-05
1.3166e-05
1.2999e-05
1.2278e-05
1.1012e-05
9.26861e-06
7.17934e-06
4.9269e-06
-6.20194e-06
-5.99779e-06
-5.73501e-06
-5.42616e-06
-5.09321e-06
-4.76132e-06
-4.45482e-06
-4.19336e-06
-3.98657e-06
-3.84087e-06
-3.75879e-06
-3.73608e-06
-3.76648e-06
-3.84398e-06
-3.96148e-06
-4.11097e-06
-4.28525e-06
-4.47677e-06
-4.67975e-06
-4.8883e-06
-5.09002e-06
-5.25956e-06
-5.31709e-06
-5.16949e-06
-4.76596e-06
-4.10744e-06
-3.20656e-06
-2.07277e-06
-7.34367e-07
7.63999e-07
2.3773e-06
4.05324e-06
5.7302e-06
7.33984e-06
8.80858e-06
1.00594e-05
1.10153e-05
1.1605e-05
1.177e-05
1.1474e-05
1.07129e-05
9.5221e-06
7.97866e-06
6.19591e-06
4.30862e-06
-5.96482e-06
-5.7978e-06
-5.58568e-06
-5.33453e-06
-5.05819e-06
-4.77532e-06
-4.50592e-06
-4.26923e-06
-4.0732e-06
-3.93087e-06
-3.84777e-06
-3.81924e-06
-3.84103e-06
-3.90973e-06
-4.01905e-06
-4.16114e-06
-4.32886e-06
-4.51419e-06
-4.71015e-06
-4.90905e-06
-5.09498e-06
-5.23962e-06
-5.265e-06
-5.08647e-06
-4.65995e-06
-3.99306e-06
-3.10011e-06
-1.98732e-06
-6.87159e-07
7.49645e-07
2.27707e-06
3.8418e-06
5.38089e-06
6.82674e-06
8.10974e-06
9.16085e-06
9.91597e-06
1.03216e-05
1.03417e-05
9.96346e-06
9.20299e-06
8.10638e-06
6.7468e-06
5.21606e-06
3.61289e-06
-5.7249e-06
-5.59086e-06
-5.42243e-06
-5.22234e-06
-4.99907e-06
-4.7654e-06
-4.53779e-06
-4.32865e-06
-4.14939e-06
-4.01924e-06
-3.94105e-06
-3.90861e-06
-3.92219e-06
-3.98173e-06
-4.08165e-06
-4.21441e-06
-4.37319e-06
-4.54971e-06
-4.73581e-06
-4.92216e-06
-5.08924e-06
-5.20614e-06
-5.19756e-06
-4.98801e-06
-4.54111e-06
-3.87327e-06
-2.99921e-06
-1.91456e-06
-6.66013e-07
6.90997e-07
2.11294e-06
3.54722e-06
4.9314e-06
6.20125e-06
7.29414e-06
8.1518e-06
8.72457e-06
8.97634e-06
8.88888e-06
8.46555e-06
7.73247e-06
6.73675e-06
5.54179e-06
4.21952e-06
2.84246e-06
-5.47226e-06
-5.36851e-06
-5.23861e-06
-5.08374e-06
-4.90892e-06
-4.72243e-06
-4.538e-06
-4.35985e-06
-4.2038e-06
-4.09438e-06
-4.02474e-06
-3.99085e-06
-3.9994e-06
-4.05137e-06
-4.14209e-06
-4.26478e-06
-4.41314e-06
-4.57891e-06
-4.75285e-06
-4.92436e-06
-5.07025e-06
-5.15785e-06
-5.11523e-06
-4.87636e-06
-4.41384e-06
-3.76319e-06
-2.91347e-06
-1.86499e-06
-6.86584e-07
5.69414e-07
1.86596e-06
3.15172e-06
4.36711e-06
5.45382e-06
6.35853e-06
7.03515e-06
7.44809e-06
7.57584e-06
7.41312e-06
6.97235e-06
6.28275e-06
5.38719e-06
4.33778e-06
3.18983e-06
1.99695e-06
-5.19412e-06
-5.119e-06
-5.02402e-06
-4.90967e-06
-4.77868e-06
-4.63658e-06
-4.49169e-06
-4.35302e-06
-4.23174e-06
-4.14014e-06
-4.07962e-06
-4.05136e-06
-4.06035e-06
-4.10796e-06
-4.19121e-06
-4.30454e-06
-4.44233e-06
-4.59663e-06
-4.75724e-06
-4.91278e-06
-5.03671e-06
-5.09541e-06
-5.02214e-06
-4.75613e-06
-4.29628e-06
-3.67332e-06
-2.84962e-06
-1.8597e-06
-7.7391e-07
3.6233e-07
1.51556e-06
2.63791e-06
3.67544e-06
4.57797e-06
5.30257e-06
5.81528e-06
6.09258e-06
6.12393e-06
5.91201e-06
5.47317e-06
4.83541e-06
4.03518e-06
3.11381e-06
2.11337e-06
1.07369e-06
-4.87447e-06
-4.82721e-06
-4.76487e-06
-4.68776e-06
-4.59744e-06
-4.49768e-06
-4.3945e-06
-4.29522e-06
-4.20729e-06
-4.13836e-06
-4.09388e-06
-4.07739e-06
-4.09218e-06
-4.13967e-06
-4.21861e-06
-4.32495e-06
-4.45371e-06
-4.59753e-06
-4.74554e-06
-4.88574e-06
-4.98986e-06
-5.02279e-06
-4.92546e-06
-4.64412e-06
-4.20346e-06
-3.60275e-06
-2.83235e-06
-1.93182e-06
-9.5736e-07
4.45192e-08
1.04115e-06
1.99067e-06
2.84769e-06
3.57147e-06
4.12933e-06
4.49792e-06
4.66383e-06
4.62275e-06
4.38167e-06
3.95746e-06
3.37471e-06
2.66289e-06
1.85399e-06
9.7971e-07
6.97736e-08
-4.49298e-06
-4.47388e-06
-4.44334e-06
-4.40176e-06
-4.35015e-06
-4.29106e-06
-4.22859e-06
-4.16786e-06
-4.11441e-06
-4.07416e-06
-4.05258e-06
-4.05357e-06
-4.07987e-06
-4.13299e-06
-4.21284e-06
-4.31674e-06
-4.44032e-06
-4.57683e-06
-4.7155e-06
-4.84366e-06
-4.9339e-06
-4.94843e-06
-4.83851e-06
-4.56154e-06
-4.13583e-06
-3.58665e-06
-2.89983e-06
-2.10779e-06
-1.26254e-06
-4.07155e-07
4.24659e-07
1.19866e-06
1.87978e-06
2.43658e-06
2.84564e-06
3.09214e-06
3.16845e-06
3.07456e-06
2.81899e-06
2.41717e-06
1.88925e-06
1.25814e-06
5.48013e-07
-2.1738e-07
-1.01581e-06
-4.02398e-06
-4.03469e-06
-4.03668e-06
-4.03048e-06
-4.01689e-06
-3.99766e-06
-3.97561e-06
-3.95439e-06
-3.93821e-06
-3.93158e-06
-3.93881e-06
-3.96341e-06
-4.00799e-06
-4.07416e-06
-4.16234e-06
-4.27081e-06
-4.3959e-06
-4.53154e-06
-4.66718e-06
-4.79021e-06
-4.87597e-06
-4.8858e-06
-4.78045e-06
-4.52546e-06
-4.14079e-06
-3.66072e-06
-3.0757e-06
-2.41037e-06
-1.70818e-06
-1.00962e-06
-3.46233e-07
2.55842e-07
7.71395e-07
1.17766e-06
1.45865e-06
1.60485e-06
1.61156e-06
1.48088e-06
1.22155e-06
8.46675e-07
3.71775e-07
-1.86089e-07
-8.09025e-07
-1.47939e-06
-2.18053e-06
-3.44091e-06
-3.48403e-06
-3.52054e-06
-3.55108e-06
-3.57644e-06
-3.59798e-06
-3.61773e-06
-3.63831e-06
-3.66279e-06
-3.69444e-06
-3.73651e-06
-3.79191e-06
-3.86297e-06
-3.95122e-06
-4.05724e-06
-4.17985e-06
-4.316e-06
-4.46079e-06
-4.60459e-06
-4.73461e-06
-4.82849e-06
-4.85226e-06
-4.77237e-06
-4.56446e-06
-4.25123e-06
-3.85588e-06
-3.38443e-06
-2.86027e-06
-2.31332e-06
-1.77632e-06
-1.27674e-06
-8.36076e-07
-4.72251e-07
-1.98469e-07
-2.44253e-08
4.1617e-08
-4.41367e-09
-1.59143e-07
-4.14211e-07
-7.59381e-07
-1.18352e-06
-1.67451e-06
-2.21939e-06
-2.80518e-06
-3.4195e-06
-2.72468e-06
-2.80412e-06
-2.87836e-06
-2.94829e-06
-3.01496e-06
-3.07961e-06
-3.1438e-06
-3.20941e-06
-3.2786e-06
-3.35377e-06
-3.43733e-06
-3.53158e-06
-3.6384e-06
-3.75911e-06
-3.89422e-06
-4.04275e-06
-4.20263e-06
-4.36885e-06
-4.53372e-06
-4.69017e-06
-4.81237e-06
-4.87058e-06
-4.84138e-06
-4.71006e-06
-4.48899e-06
-4.19905e-06
-3.85824e-06
-3.48326e-06
-3.09441e-06
-2.71524e-06
-2.36695e-06
-2.06865e-06
-1.83597e-06
-1.67652e-06
-1.59228e-06
-1.59047e-06
-1.67492e-06
-1.84266e-06
-2.08706e-06
-2.40091e-06
-2.77674e-06
-3.20617e-06
-3.68e-06
-4.18883e-06
-4.72364e-06
-1.8537e-06
-1.97654e-06
-2.09489e-06
-2.21e-06
-2.32328e-06
-2.43609e-06
-2.54973e-06
-2.66563e-06
-2.78538e-06
-2.91077e-06
-3.04361e-06
-3.18571e-06
-3.33852e-06
-3.50304e-06
-3.67988e-06
-3.86814e-06
-4.06573e-06
-4.27062e-06
-4.47431e-06
-4.66632e-06
-4.84104e-06
-4.96893e-06
-5.01725e-06
-4.98468e-06
-4.87953e-06
-4.71779e-06
-4.51665e-06
-4.29061e-06
-4.0544e-06
-3.82469e-06
-3.61584e-06
-3.44001e-06
-3.30849e-06
-3.24274e-06
-3.22999e-06
-3.27722e-06
-3.38736e-06
-3.55804e-06
-3.78547e-06
-4.0658e-06
-4.39446e-06
-4.76566e-06
-5.17285e-06
-5.60946e-06
-6.06915e-06
-8.10981e-07
-9.82428e-07
-1.15148e-06
-1.31901e-06
-1.48638e-06
-1.65495e-06
-1.82595e-06
-2.00051e-06
-2.17986e-06
-2.36535e-06
-2.55835e-06
-2.76019e-06
-2.97197e-06
-3.1945e-06
-3.4282e-06
-3.67251e-06
-3.92611e-06
-4.18724e-06
-4.44922e-06
-4.70263e-06
-4.94801e-06
-5.16485e-06
-5.31763e-06
-5.40418e-06
-5.43087e-06
-5.40799e-06
-5.34868e-06
-5.26609e-06
-5.17216e-06
-5.07789e-06
-4.99721e-06
-4.94036e-06
-4.90763e-06
-4.89164e-06
-4.92136e-06
-5.00008e-06
-5.12335e-06
-5.28761e-06
-5.49188e-06
-5.73546e-06
-6.01594e-06
-6.32938e-06
-6.67138e-06
-7.03766e-06
-7.42405e-06
2.22516e-07
-1.40321e-09
-2.24185e-07
-4.46983e-07
-6.71178e-07
-8.97996e-07
-1.12849e-06
-1.36367e-06
-1.60454e-06
-1.85217e-06
-2.10762e-06
-2.37192e-06
-2.64595e-06
-2.9304e-06
-3.2256e-06
-3.53136e-06
-3.84671e-06
-4.16981e-06
-4.49705e-06
-4.82383e-06
-5.14519e-06
-5.45e-06
-5.71164e-06
-5.91537e-06
-6.06386e-06
-6.16501e-06
-6.22874e-06
-6.26566e-06
-6.28554e-06
-6.2965e-06
-6.30715e-06
-6.3255e-06
-6.35709e-06
-6.40684e-06
-6.48097e-06
-6.58169e-06
-6.70847e-06
-6.86162e-06
-7.04229e-06
-7.25068e-06
-7.48542e-06
-7.74426e-06
-8.02481e-06
-8.3247e-06
-8.64147e-06
1.12098e-06
8.48092e-07
5.74499e-07
2.99263e-07
2.13469e-08
-2.60228e-07
-5.46383e-07
-8.38005e-07
-1.13595e-06
-1.44106e-06
-1.75417e-06
-2.07608e-06
-2.40752e-06
-2.74902e-06
-3.10087e-06
-3.46299e-06
-3.83468e-06
-4.21478e-06
-4.60106e-06
-4.98981e-06
-5.37702e-06
-5.75694e-06
-6.10433e-06
-6.39778e-06
-6.6376e-06
-6.83062e-06
-6.98467e-06
-7.10815e-06
-7.20921e-06
-7.29553e-06
-7.37302e-06
-7.4465e-06
-7.53098e-06
-7.62311e-06
-7.72665e-06
-7.8421e-06
-7.97109e-06
-8.11618e-06
-8.27897e-06
-8.4597e-06
-8.6579e-06
-8.87282e-06
-9.10362e-06
-9.34925e-06
-9.6084e-06
1.79313e-06
1.47912e-06
1.16283e-06
8.43618e-07
5.20721e-07
1.93382e-07
-1.39144e-07
-4.77559e-07
-8.22521e-07
-1.17466e-06
-1.53462e-06
-1.903e-06
-2.28035e-06
-2.66706e-06
-3.06334e-06
-3.46909e-06
-3.88382e-06
-4.30659e-06
-4.7357e-06
-5.16865e-06
-5.6024e-06
-6.0326e-06
-6.43508e-06
-6.78666e-06
-7.08629e-06
-7.33988e-06
-7.55413e-06
-7.73625e-06
-7.8933e-06
-8.03213e-06
-8.15811e-06
-8.2767e-06
-8.38565e-06
-8.49843e-06
-8.61449e-06
-8.73475e-06
-8.86186e-06
-8.99816e-06
-9.14493e-06
-9.30278e-06
-9.47212e-06
-9.65314e-06
-9.84575e-06
-1.00496e-05
-1.0264e-05
2.28064e-06
1.9317e-06
1.57944e-06
1.22345e-06
8.63175e-07
4.98045e-07
1.2753e-07
-2.48848e-07
-6.31541e-07
-1.02099e-06
-1.41764e-06
-1.82189e-06
-2.23411e-06
-2.65451e-06
-3.08319e-06
-3.51997e-06
-3.96442e-06
-4.41571e-06
-4.87256e-06
-5.333e-06
-5.79444e-06
-6.25342e-06
-6.68735e-06
-7.07323e-06
-7.40941e-06
-7.70126e-06
-7.95462e-06
-8.1755e-06
-8.3696e-06
-8.54206e-06
-8.6974e-06
-8.8402e-06
-8.97364e-06
-9.1016e-06
-9.22664e-06
-9.35135e-06
-9.47804e-06
-9.60852e-06
-9.74416e-06
-9.88611e-06
-1.00353e-05
-1.01923e-05
-1.03575e-05
-1.05311e-05
-1.07131e-05
2.61582e-06
2.2381e-06
1.85647e-06
1.47065e-06
1.08027e-06
6.84962e-07
2.84432e-07
-1.21582e-07
-5.3334e-07
-9.51094e-07
-1.3751e-06
-1.80556e-06
-2.24266e-06
-2.68643e-06
-3.13684e-06
-3.59362e-06
-4.05633e-06
-4.52418e-06
-4.99606e-06
-5.47029e-06
-5.94474e-06
-6.41657e-06
-6.86501e-06
-7.26838e-06
-7.62501e-06
-7.93972e-06
-8.2174e-06
-8.46303e-06
-8.68135e-06
-8.87654e-06
-9.05269e-06
-9.21332e-06
-9.36197e-06
-9.50133e-06
-9.63428e-06
-9.7633e-06
-9.89042e-06
-1.00174e-05
-1.01459e-05
-1.02773e-05
-1.04128e-05
-1.05532e-05
-1.06993e-05
-1.08516e-05
-1.10105e-05
2.83605e-06
2.43509e-06
2.02989e-06
1.62031e-06
1.20616e-06
7.87301e-07
3.63644e-07
-6.4884e-08
-4.98364e-07
-9.36872e-07
-1.38048e-06
-1.82922e-06
-2.28308e-06
-2.74195e-06
-3.20566e-06
-3.67385e-06
-4.14602e-06
-4.62139e-06
-5.09895e-06
-5.57725e-06
-6.05453e-06
-6.52834e-06
-6.97994e-06
-7.38972e-06
-7.75611e-06
-8.0833e-06
-8.37538e-06
-8.63643e-06
-8.87045e-06
-9.08092e-06
-9.27146e-06
-9.44493e-06
-9.60456e-06
-9.75283e-06
-9.89227e-06
-1.00251e-05
-1.01534e-05
-1.02789e-05
-1.04035e-05
-1.05285e-05
-1.06552e-05
-1.07849e-05
-1.09184e-05
-1.10566e-05
-1.12003e-05
2.97384e-06
2.5542e-06
2.13021e-06
1.70188e-06
1.26921e-06
8.32242e-07
3.91068e-07
-5.42251e-08
-5.0356e-07
-9.56855e-07
-1.41402e-06
-1.87492e-06
-2.33939e-06
-2.80719e-06
-3.27802e-06
-3.75143e-06
-4.22688e-06
-4.70358e-06
-5.18061e-06
-5.65666e-06
-6.13024e-06
-6.59921e-06
-7.04697e-06
-7.4563e-06
-7.82571e-06
-8.15869e-06
-8.45863e-06
-8.72893e-06
-8.97287e-06
-9.19343e-06
-9.39366e-06
-9.5769e-06
-9.7448e-06
-9.89997e-06
-1.00447e-05
-1.01813e-05
-1.03115e-05
-1.04372e-05
-1.05602e-05
-1.0682e-05
-1.0804e-05
-1.09274e-05
-1.10534e-05
-1.11831e-05
-1.13173e-05
3.05476e-06
2.62014e-06
2.18124e-06
1.73821e-06
1.29119e-06
8.40413e-07
3.86092e-07
-7.15446e-08
-5.32281e-07
-9.95896e-07
-1.46215e-06
-1.93079e-06
-2.40151e-06
-2.87395e-06
-3.34772e-06
-3.82228e-06
-4.29705e-06
-4.77123e-06
-5.24397e-06
-5.71406e-06
-6.18022e-06
-6.64056e-06
-7.08064e-06
-7.48556e-06
-7.8539e-06
-8.18846e-06
-8.49204e-06
-8.76751e-06
-9.01765e-06
-9.24509e-06
-9.45241e-06
-9.64224e-06
-9.81636e-06
-9.97704e-06
-1.01264e-05
-1.02665e-05
-1.03992e-05
-1.05262e-05
-1.06494e-05
-1.07701e-05
-1.089e-05
-1.10104e-05
-1.11325e-05
-1.12576e-05
-1.13867e-05
3.09823e-06
2.65155e-06
2.20076e-06
1.74614e-06
1.28797e-06
8.26594e-07
3.62362e-07
-1.04389e-07
-5.73325e-07
-1.0441e-06
-1.51637e-06
-1.98974e-06
-2.46382e-06
-2.93815e-06
-3.41224e-06
-3.8855e-06
-4.35731e-06
-4.82686e-06
-5.29333e-06
-5.7556e-06
-6.21258e-06
-6.66255e-06
-7.09311e-06
-7.49155e-06
-7.85646e-06
-8.19005e-06
-8.49463e-06
-8.77266e-06
-9.02654e-06
-9.25851e-06
-9.47071e-06
-9.66534e-06
-9.84425e-06
-1.00094e-05
-1.01627e-05
-1.03061e-05
-1.04415e-05
-1.05704e-05
-1.06946e-05
-1.08157e-05
-1.09353e-05
-1.10547e-05
-1.11754e-05
-1.12986e-05
-1.14254e-05
3.11815e-06
2.66163e-06
2.20124e-06
1.73734e-06
1.27034e-06
8.007e-07
3.28858e-07
-1.44747e-07
-6.19678e-07
-1.09549e-06
-1.57173e-06
-2.04793e-06
-2.52358e-06
-2.99816e-06
-3.4711e-06
-3.94175e-06
-4.40946e-06
-4.87343e-06
-5.33284e-06
-5.78664e-06
-6.23389e-06
-6.67301e-06
-7.09346e-06
-7.48452e-06
-7.84476e-06
-8.17592e-06
-8.47995e-06
-8.7589e-06
-9.01485e-06
-9.24969e-06
-9.46526e-06
-9.66346e-06
-9.84606e-06
-1.00148e-05
-1.01715e-05
-1.03178e-05
-1.04557e-05
-1.05867e-05
-1.07125e-05
-1.08348e-05
-1.0955e-05
-1.10748e-05
-1.11954e-05
-1.13184e-05
-1.14449e-05
3.12401e-06
2.6593e-06
2.19097e-06
1.71947e-06
1.24533e-06
7.69061e-07
2.91208e-07
-1.8771e-07
-6.67171e-07
-1.14664e-06
-1.62558e-06
-2.10344e-06
-2.57964e-06
-3.05358e-06
-3.52464e-06
-3.99213e-06
-4.45535e-06
-4.91349e-06
-5.36577e-06
-5.81117e-06
-6.24887e-06
-6.67741e-06
-7.0879e-06
-7.47138e-06
-7.82645e-06
-8.15445e-06
-8.45704e-06
-8.73592e-06
-8.99284e-06
-9.22942e-06
-9.44732e-06
-9.64811e-06
-9.83355e-06
-1.00052e-05
-1.01645e-05
-1.03135e-05
-1.04536e-05
-1.05866e-05
-1.07142e-05
-1.08379e-05
-1.09594e-05
-1.10801e-05
-1.12015e-05
-1.13252e-05
-1.14524e-05
3.12198e-06
2.65032e-06
2.17528e-06
1.69741e-06
1.2173e-06
7.35568e-07
2.52805e-07
-2.30391e-07
-7.13419e-07
-1.19568e-06
-1.67655e-06
-2.15541e-06
-2.63162e-06
-3.10452e-06
-3.57343e-06
-4.03764e-06
-4.49641e-06
-4.94892e-06
-5.3944e-06
-5.83188e-06
-6.26061e-06
-6.67922e-06
-7.08031e-06
-7.45646e-06
-7.80629e-06
-8.13087e-06
-8.43156e-06
-8.70979e-06
-8.96698e-06
-9.20454e-06
-9.42407e-06
-9.6267e-06
-9.81425e-06
-9.98816e-06
-1.01497e-05
-1.03008e-05
-1.04429e-05
-1.05778e-05
-1.0707e-05
-1.08322e-05
-1.09549e-05
-1.10769e-05
-1.11995e-05
-1.13243e-05
-1.14528e-05
3.11595e-06
2.63827e-06
2.15744e-06
1.6741e-06
1.1889e-06
7.02511e-07
2.15602e-07
-2.71167e-07
-7.57134e-07
-1.24163e-06
-1.72397e-06
-2.20349e-06
-2.67947e-06
-3.15122e-06
-3.618e-06
-4.07907e-06
-4.53366e-06
-4.98095e-06
-5.42018e-06
-5.8504e-06
-6.27092e-06
-6.68046e-06
-7.0729e-06
-7.44219e-06
-7.787e-06
-8.10816e-06
-8.40678e-06
-8.68402e-06
-8.94107e-06
-9.17914e-06
-9.39932e-06
-9.60367e-06
-9.79276e-06
-9.96853e-06
-1.01318e-05
-1.02846e-05
-1.04283e-05
-1.05647e-05
-1.06954e-05
-1.0822e-05
-1.0946e-05
-1.10692e-05
-1.11931e-05
-1.13192e-05
-1.1449e-05
3.10827e-06
2.62528e-06
2.13938e-06
1.65124e-06
1.16159e-06
6.71155e-07
1.80651e-07
-3.09203e-07
-7.97686e-07
-1.28407e-06
-1.76763e-06
-2.24763e-06
-2.72332e-06
-3.19395e-06
-3.65875e-06
-4.11694e-06
-4.56774e-06
-5.01033e-06
-5.44393e-06
-5.86763e-06
-6.28077e-06
-6.68214e-06
-7.06676e-06
-7.42976e-06
-7.7699e-06
-8.08781e-06
-8.38435e-06
-8.66047e-06
-8.91715e-06
-9.15547e-06
-9.37644e-06
-9.58154e-06
-9.77175e-06
-9.94901e-06
-1.01136e-05
-1.02677e-05
-1.04128e-05
-1.05504e-05
-1.06823e-05
-1.081e-05
-1.09352e-05
-1.10595e-05
-1.11845e-05
-1.13118e-05
-1.1443e-05
3.10026e-06
2.61256e-06
2.12214e-06
1.62974e-06
1.13615e-06
6.42128e-07
1.48442e-07
-3.44137e-07
-8.34839e-07
-1.32289e-06
-1.80751e-06
-2.28792e-06
-2.76333e-06
-3.23295e-06
-3.69598e-06
-4.15162e-06
-4.59905e-06
-5.03746e-06
-5.46606e-06
-5.88397e-06
-6.29055e-06
-6.68465e-06
-7.06226e-06
-7.41959e-06
-7.75549e-06
-8.07038e-06
-8.36494e-06
-8.6399e-06
-8.89609e-06
-9.13447e-06
-9.35589e-06
-9.56148e-06
-9.75269e-06
-9.93099e-06
-1.00966e-05
-1.02517e-05
-1.03978e-05
-1.05364e-05
-1.06692e-05
-1.07978e-05
-1.09239e-05
-1.10491e-05
-1.11751e-05
-1.13036e-05
-1.14359e-05
3.09265e-06
2.60072e-06
2.10626e-06
1.61006e-06
1.11294e-06
6.15706e-07
1.19171e-07
-3.7585e-07
-8.68543e-07
-1.35809e-06
-1.84368e-06
-2.32448e-06
-2.79967e-06
-3.26842e-06
-3.72991e-06
-4.1833e-06
-4.62778e-06
-5.06251e-06
-5.48672e-06
-5.89952e-06
-6.30032e-06
-6.68799e-06
-7.05939e-06
-7.41166e-06
-7.74375e-06
-8.05591e-06
-8.34863e-06
-8.62247e-06
-8.87812e-06
-9.11643e-06
-9.33807e-06
-9.54399e-06
-9.73613e-06
-9.91504e-06
-1.00815e-05
-1.02373e-05
-1.03842e-05
-1.05236e-05
-1.06571e-05
-1.07864e-05
-1.09131e-05
-1.10391e-05
-1.11659e-05
-1.12951e-05
-1.14286e-05
3.08576e-06
2.59006e-06
2.09199e-06
1.59238e-06
1.0921e-06
5.91988e-07
9.28973e-08
-4.0432e-07
-8.98811e-07
-1.38972e-06
-1.8762e-06
-2.35738e-06
-2.83242e-06
-3.30044e-06
-3.76062e-06
-4.21207e-06
-4.65399e-06
-5.08552e-06
-5.50589e-06
-5.91424e-06
-6.30998e-06
-6.69201e-06
-7.05792e-06
-7.40572e-06
-7.73444e-06
-8.04415e-06
-8.3352e-06
-8.60801e-06
-8.86312e-06
-9.10129e-06
-9.32303e-06
-9.52923e-06
-9.72202e-06
-9.90137e-06
-1.00685e-05
-1.02249e-05
-1.03723e-05
-1.05122e-05
-1.06462e-05
-1.07759e-05
-1.09032e-05
-1.10297e-05
-1.11571e-05
-1.1287e-05
-1.14213e-05
3.07964e-06
2.58052e-06
2.07919e-06
1.57652e-06
1.07338e-06
5.70671e-07
6.9268e-08
-4.29941e-07
-9.26069e-07
-1.41823e-06
-1.90554e-06
-2.38711e-06
-2.86205e-06
-3.32948e-06
-3.78853e-06
-4.23833e-06
-4.67802e-06
-5.10677e-06
-5.52379e-06
-5.92824e-06
-6.31952e-06
-6.69657e-06
-7.0576e-06
-7.40142e-06
-7.72713e-06
-8.03466e-06
-8.32422e-06
-8.59608e-06
-8.85069e-06
-9.08869e-06
-9.31049e-06
-9.51694e-06
-9.71012e-06
-9.88985e-06
-1.00574e-05
-1.02142e-05
-1.03619e-05
-1.05022e-05
-1.06365e-05
-1.07666e-05
-1.08942e-05
-1.10211e-05
-1.11489e-05
-1.12794e-05
-1.14142e-05
3.07399e-06
2.5716e-06