/*--------------------------------*- C++ -*----------------------------------*\
| =========                 |                                                 |
| \\      /  F ield         | OpenFOAM: The Open Source CFD Toolbox           |
|  \\    /   O peration     | Version:  2312                                  |
|   \\  /    A nd           | Website:  www.openfoam.com                      |
|    \\/     M anipulation  |                                                 |
\*---------------------------------------------------------------------------*/
FoamFile
{
    version     2.0;
    format      ascii;
    arch        "LSB;label=32;scalar=64";
    class       surfaceScalarField;
    location    "96";
    object      phi;
}
// * * * * * * * * * * * * * * * * * * * * * * * * * * * * * * * * * * * * * //

dimensions      [0 3 -1 0 0 0 0];

oriented        oriented;

internalField   nonuniform List<scalar> 
9445
(
5.73712e-10
1.60846e-11
5.63416e-10
1.02962e-11
5.56909e-10
6.50673e-12
5.53011e-10
3.89777e-12
5.51022e-10
1.98894e-12
5.50536e-10
4.85865e-13
5.51361e-10
-8.2495e-13
5.53248e-10
-1.88646e-12
5.56375e-10
-3.12721e-12
5.6111e-10
-4.73482e-12
5.68486e-10
-7.37586e-12
5.81951e-10
-1.34657e-11
6.13578e-10
-3.16271e-11
7.05315e-10
-9.17366e-11
-2.36354e-10
9.41669e-10
2.00264e-09
7.03402e-11
1.96789e-09
4.50436e-11
1.94589e-09
2.85117e-11
1.93261e-09
1.71737e-11
1.92567e-09
8.92593e-12
1.9237e-09
2.46136e-12
1.92579e-09
-2.92046e-12
1.9313e-09
-7.39196e-12
1.94073e-09
-1.25606e-11
1.95508e-09
-1.90823e-11
1.97698e-09
-2.92765e-11
2.013e-09
-4.94807e-11
2.0759e-09
-9.45285e-11
2.17752e-09
-1.93361e-10
-3.42609e-10
2.28378e-09
3.95303e-09
1.73831e-10
3.88672e-09
1.11361e-10
3.84462e-09
7.06044e-11
3.81906e-09
4.27392e-11
3.80539e-09
2.25916e-11
3.80094e-09
6.91171e-12
3.80377e-09
-5.74939e-12
3.8127e-09
-1.63177e-11
3.82837e-09
-2.82321e-11
3.85184e-09
-4.25514e-11
3.88564e-09
-6.30773e-11
3.93415e-09
-9.7994e-11
3.99995e-09
-1.60328e-10
4.06987e-09
-2.63285e-10
-3.82319e-10
4.10958e-09
6.56943e-09
3.39102e-10
6.46328e-09
2.17511e-10
6.39562e-09
1.38259e-10
6.35414e-09
8.4219e-11
6.33135e-09
4.53904e-11
6.32278e-09
1.54758e-11
6.32517e-09
-8.13349e-12
6.33653e-09
-2.7684e-11
6.35709e-09
-4.87905e-11
6.38717e-09
-7.26303e-11
6.42752e-09
-1.03429e-10
6.47777e-09
-1.4824e-10
6.5317e-09
-2.14265e-10
6.5705e-09
-3.02077e-10
-3.85703e-10
6.57388e-09
1.00277e-08
5.79248e-10
9.87271e-09
3.72478e-10
9.77329e-09
2.37677e-10
9.71158e-09
1.4593e-10
9.67656e-09
8.04175e-11
9.66145e-09
3.0578e-11
9.66137e-09
-8.04991e-12
9.67336e-09
-3.96734e-11
9.69619e-09
-7.16232e-11
9.72885e-09
-1.05288e-10
9.76963e-09
-1.44205e-10
9.81406e-09
-1.92671e-10
9.85218e-09
-2.52388e-10
9.86828e-09
-3.18176e-10
-3.71319e-10
9.8539e-09
1.4537e-08
9.05599e-10
1.43247e-08
5.84767e-10
1.41872e-08
3.75157e-10
1.41006e-08
2.32568e-10
1.40497e-08
1.31309e-10
1.40249e-08
5.53821e-11
1.40195e-08
-2.66947e-12
1.40293e-08
-4.94935e-11
1.40509e-08
-9.31662e-11
1.40814e-08
-1.35809e-10
1.41171e-08
-1.79901e-10
1.41514e-08
-2.27027e-10
1.41749e-08
-2.7583e-10
1.41774e-08
-3.20695e-10
-3.51244e-10
1.41573e-08
2.03384e-08
1.32315e-09
2.00634e-08
8.59797e-10
1.9883e-08
5.55568e-10
1.97672e-08
3.48296e-10
1.96969e-08
2.01678e-10
1.9659e-08
9.32368e-11
1.9645e-08
1.1301e-11
1.96489e-08
-5.33365e-11
1.96651e-08
-1.09349e-10
1.9689e-08
-1.59764e-10
1.97155e-08
-2.06407e-10
1.9738e-08
-2.49521e-10
1.97494e-08
-2.87253e-10
1.97448e-08
-3.16032e-10
-3.31555e-10
1.97251e-08
2.76984e-08
1.82306e-09
2.73629e-08
1.19529e-09
2.71391e-08
7.79409e-10
2.69926e-08
4.94821e-10
2.69004e-08
2.93816e-10
2.68469e-08
1.46778e-10
2.68212e-08
3.69892e-11
2.68154e-08
-4.75826e-11
2.68225e-08
-1.16382e-10
2.68363e-08
-1.7362e-10
2.68513e-08
-2.2136e-10
2.68619e-08
-2.60088e-10
2.68637e-08
-2.89105e-10
2.6855e-08
-3.07332e-10
-3.14053e-10
2.68375e-08
3.68977e-08
2.3736e-09
3.65181e-08
1.57491e-09
3.62591e-08
1.03836e-09
3.60857e-08
6.68241e-10
3.59731e-08
4.06403e-10
3.59036e-08
2.16254e-10
3.58648e-08
7.57958e-11
3.58473e-08
-3.00127e-11
3.58428e-08
-1.11886e-10
3.58447e-08
-1.75583e-10
3.58477e-08
-2.24342e-10
3.58476e-08
-2.59975e-10
3.5842e-08
-2.83533e-10
3.58307e-08
-2.95995e-10
-2.98564e-10
3.58152e-08
4.82234e-08
2.9159e-09
4.7835e-08
1.96326e-09
4.75625e-08
1.31089e-09
4.73752e-08
8.55476e-10
4.725e-08
5.31657e-10
4.7169e-08
2.97224e-10
4.71193e-08
1.25499e-10
4.70908e-08
-1.49728e-12
4.70752e-08
-9.63147e-11
4.70662e-08
-1.66529e-10
4.7059e-08
-2.17169e-10
4.70508e-08
-2.51773e-10
4.70403e-08
-2.73047e-10
4.70277e-08
-2.83405e-10
-2.85046e-10
4.70142e-08
6.19873e-08
3.37727e-09
6.16402e-08
2.3104e-09
6.1388e-08
1.56309e-09
6.12099e-08
1.03356e-09
6.10875e-08
6.54068e-10
6.10056e-08
3.79171e-10
6.09522e-08
1.78866e-10
6.0918e-08
3.26976e-11
6.08957e-08
-7.40646e-11
6.08799e-08
-1.50711e-10
6.0867e-08
-2.04235e-10
6.0855e-08
-2.39759e-10
6.08432e-08
-2.61255e-10
6.08318e-08
-2.72038e-10
-2.74823e-10
6.08216e-08
7.85962e-08
3.70898e-09
7.83326e-08
2.57397e-09
7.81341e-08
1.76164e-09
7.79903e-08
1.17737e-09
7.78894e-08
7.54961e-10
7.78203e-08
4.48219e-10
7.7774e-08
2.25228e-10
7.77428e-08
6.38437e-11
7.77215e-08
-5.27097e-11
7.77059e-08
-1.351e-10
7.76936e-08
-1.92005e-10
7.76836e-08
-2.29697e-10
7.76753e-08
-2.52979e-10
7.76689e-08
-2.65684e-10
-2.70781e-10
7.76649e-08
9.8652e-08
3.92159e-09
9.84767e-08
2.74921e-09
9.83416e-08
1.89677e-09
9.82425e-08
1.27649e-09
9.81726e-08
8.24885e-10
9.81247e-08
4.96123e-10
9.80925e-08
2.57368e-10
9.80715e-08
8.49062e-11
9.80574e-08
-3.86938e-11
9.80483e-08
-1.25943e-10
9.80426e-08
-1.86286e-10
9.80396e-08
-2.26768e-10
9.80393e-08
-2.52684e-10
9.80418e-08
-2.68114e-10
-2.76134e-10
9.80471e-08
1.22955e-07
4.06613e-09
1.22835e-07
2.86938e-09
1.22741e-07
1.99016e-09
1.22672e-07
1.34531e-09
1.22624e-07
8.73481e-10
1.22591e-07
5.29246e-10
1.22569e-07
2.78987e-10
1.22556e-07
9.81186e-11
1.22549e-07
-3.15489e-11
1.22546e-07
-1.23536e-10
1.22548e-07
-1.8784e-10
1.22553e-07
-2.31916e-10
1.22562e-07
-2.61325e-10
1.22574e-07
-2.80258e-10
-2.91827e-10
1.2259e-07
1.52288e-07
4.17033e-09
1.52195e-07
2.96261e-09
1.52118e-07
2.06738e-09
1.52057e-07
1.40584e-09
1.52012e-07
9.1922e-10
1.51978e-07
5.62678e-10
1.51955e-07
3.02246e-10
1.5194e-07
1.13122e-10
1.51932e-07
-2.36715e-11
1.5193e-07
-1.21725e-10
1.51934e-07
-1.91548e-10
1.51943e-07
-2.40799e-10
1.51957e-07
-2.75175e-10
1.51975e-07
-2.98917e-10
-3.15142e-10
1.51999e-07
1.87124e-07
4.21455e-09
1.87065e-07
3.02096e-09
1.87005e-07
2.12746e-09
1.8695e-07
1.46113e-09
1.86902e-07
9.66922e-10
1.86863e-07
6.02116e-10
1.86832e-07
3.33024e-10
1.86809e-07
1.3572e-10
1.86795e-07
-9.53736e-12
1.86789e-07
-1.15452e-10
1.8679e-07
-1.92633e-10
1.86798e-07
-2.48904e-10
1.86813e-07
-2.90029e-10
1.86834e-07
-3.20244e-10
-3.42614e-10
1.86862e-07
2.27488e-07
4.16743e-09
2.27489e-07
3.01962e-09
2.27465e-07
2.15169e-09
2.2743e-07
1.49657e-09
2.27391e-07
1.00575e-09
2.27354e-07
6.38856e-10
2.27322e-07
3.6503e-10
2.27296e-07
1.62169e-10
2.27278e-07
8.4735e-12
2.27269e-07
-1.06492e-10
2.27268e-07
-1.92062e-10
2.27276e-07
-2.56584e-10
2.27292e-07
-3.05803e-10
2.27315e-07
-3.43883e-10
-3.73834e-10
2.27347e-07
2.72891e-07
4.01548e-09
2.72966e-07
2.94463e-09
2.72992e-07
2.12546e-09
2.72989e-07
1.49985e-09
2.7297e-07
1.02415e-09
2.72946e-07
6.6339e-10
2.72921e-07
3.9028e-10
2.729e-07
1.82998e-10
2.72881e-07
2.72096e-11
2.72875e-07
-1.00422e-10
2.72877e-07
-1.94375e-10
2.72888e-07
-2.67807e-10
2.72909e-07
-3.26085e-10
2.72938e-07
-3.73117e-10
-4.11769e-10
2.72976e-07
3.21962e-07
3.75375e-09
3.22118e-07
2.78926e-09
3.22202e-07
2.04146e-09
3.22239e-07
1.46219e-09
3.22248e-07
1.01512e-09
3.22241e-07
6.70758e-10
3.22228e-07
4.03353e-10
3.22215e-07
1.96352e-10
3.22204e-07
3.73447e-11
3.22205e-07
-1.00572e-10
3.22214e-07
-2.04077e-10
3.22234e-07
-2.87518e-10
3.22264e-07
-3.56067e-10
3.22304e-07
-4.13367e-10
-4.6171e-10
3.22354e-07
3.71701e-07
3.36877e-09
3.71953e-07
2.53714e-09
3.72112e-07
1.88274e-09
3.72207e-07
1.36722e-09
3.7226e-07
9.61749e-10
3.72288e-07
6.43206e-10
3.72298e-07
3.92936e-10
3.72304e-07
1.91176e-10
3.72311e-07
3.01331e-11
3.72317e-07
-1.06993e-10
3.72329e-07
-2.1573e-10
3.72347e-07
-3.06e-10
3.72374e-07
-3.82531e-10
3.72409e-07
-4.4859e-10
-5.06537e-10
3.72454e-07
3.69649e-07
2.92981e-09
3.69953e-07
2.23294e-09
3.70161e-07
1.67518e-09
3.703e-07
1.22768e-09
3.70393e-07
8.69175e-10
3.70455e-07
5.81059e-10
3.70499e-07
3.48426e-10
3.7053e-07
1.60237e-10
3.70557e-07
2.90283e-12
3.70583e-07
-1.32167e-10
3.7061e-07
-2.43117e-10
3.70643e-07
-3.38646e-10
3.70682e-07
-4.21799e-10
3.70729e-07
-4.95184e-10
-5.60676e-10
3.70783e-07
3.17405e-07
2.50486e-09
3.17701e-07
1.93636e-09
3.17904e-07
1.47235e-09
3.18038e-07
1.09349e-09
3.18123e-07
7.84073e-10
3.18174e-07
5.30541e-10
3.18202e-07
3.20102e-10
3.1822e-07
1.42907e-10
3.18231e-07
-8.6106e-12
3.18238e-07
-1.38924e-10
3.18246e-07
-2.51058e-10
3.18256e-07
-3.49059e-10
3.18271e-07
-4.36143e-10
3.1829e-07
-5.14564e-10
-5.85844e-10
3.18315e-07
2.66122e-07
2.10046e-09
2.66421e-07
1.63754e-09
2.6664e-07
1.25325e-09
2.66798e-07
9.34961e-10
2.66913e-07
6.69463e-10
2.66996e-07
4.47644e-10
2.67057e-07
2.59323e-10
2.67101e-07
9.86641e-11
2.67133e-07
-4.12016e-11
2.67157e-07
-1.63032e-10
2.67177e-07
-2.70872e-10
2.67195e-07
-3.67182e-10
2.67213e-07
-4.54096e-10
2.67232e-07
-5.33362e-10
-6.06182e-10
2.67252e-07
2.19668e-07
1.72851e-09
2.19951e-07
1.35481e-09
2.20164e-07
1.04001e-09
2.20324e-07
7.74668e-10
2.20444e-07
5.50004e-10
2.20533e-07
3.58463e-10
2.20599e-07
1.93493e-10
2.20646e-07
5.07366e-11
2.20682e-07
-7.6504e-11
2.20708e-07
-1.89097e-10
2.20727e-07
-2.90376e-10
2.20742e-07
-3.82116e-10
2.20754e-07
-4.65849e-10
2.20764e-07
-5.42861e-10
-6.14098e-10
2.20771e-07
1.7901e-07
1.39281e-09
1.7927e-07
1.09496e-09
1.79469e-07
8.40467e-10
1.79621e-07
6.225e-10
1.79736e-07
4.35376e-10
1.79822e-07
2.72878e-10
1.79885e-07
1.30516e-10
1.7993e-07
4.9731e-12
1.79962e-07
-1.07761e-10
1.79982e-07
-2.09531e-10
1.79994e-07
-3.02014e-10
1.79998e-07
-3.86637e-10
1.79997e-07
-4.64523e-10
1.79991e-07
-5.3658e-10
-6.03481e-10
1.7998e-07
1.44276e-07
1.09941e-09
1.44505e-07
8.65539e-10
1.44683e-07
6.62901e-10
1.44818e-07
4.86896e-10
1.44921e-07
3.33259e-10
1.44996e-07
1.97755e-10
1.45049e-07
7.67578e-11
1.45085e-07
-3.06198e-11
1.45106e-07
-1.28632e-10
1.45114e-07
-2.18026e-10
1.45112e-07
-3.00045e-10
1.45102e-07
-3.75688e-10
1.45083e-07
-4.45714e-10
1.45057e-07
-5.10728e-10
-5.71175e-10
1.45025e-07
1.15112e-07
8.52335e-10
1.15306e-07
6.71603e-10
1.15456e-07
5.12839e-10
1.1557e-07
3.73083e-10
1.15654e-07
2.48974e-10
1.15714e-07
1.37897e-10
1.15753e-07
3.781e-11
1.15775e-07
-5.24392e-11
1.15782e-07
-1.35519e-10
1.15776e-07
-2.12029e-10
1.15758e-07
-2.82764e-10
1.15731e-07
-3.48368e-10
1.15695e-07
-4.09328e-10
1.1565e-07
-4.66031e-10
-5.18756e-10
1.15597e-07
9.09461e-08
6.50905e-10
9.11041e-08
5.13551e-10
9.12257e-08
3.91289e-10
9.13166e-08
2.82163e-10
9.13817e-08
1.83827e-10
9.14248e-08
9.47786e-11
9.14494e-08
1.3204e-11
9.14576e-08
-6.05467e-11
9.14514e-08
-1.29416e-10
9.14327e-08
-1.93249e-10
9.14025e-08
-2.52611e-10
9.1362e-08
-3.07894e-10
9.13121e-08
-3.59397e-10
9.12534e-08
-4.07354e-10
-4.51925e-10
9.11866e-08
7.1141e-08
4.90513e-10
7.12666e-08
3.87978e-10
7.13623e-08
2.95559e-10
7.14325e-08
2.11914e-10
7.14808e-08
1.35588e-10
7.15101e-08
6.54507e-11
7.15223e-08
9.87504e-13
7.15202e-08
-5.84351e-11
7.15048e-08
-1.14012e-10
7.14775e-08
-1.65908e-10
7.14393e-08
-2.144e-10
7.13911e-08
-2.59715e-10
7.13337e-08
-3.02017e-10
7.12678e-08
-3.41436e-10
-3.78052e-10
7.11939e-08
5.50679e-08
3.64716e-10
5.51662e-08
2.89696e-10
5.52404e-08
2.21262e-10
5.52939e-08
1.58478e-10
5.5329e-08
1.00461e-10
5.53478e-08
4.66264e-11
5.53522e-08
-3.34284e-12
5.53436e-08
-4.9888e-11
5.53233e-08
-9.36458e-11
5.52921e-08
-1.34729e-10
5.52509e-08
-1.73275e-10
5.52006e-08
-2.09402e-10
5.51418e-08
-2.43188e-10
5.50751e-08
-2.74695e-10
-3.03952e-10
5.5001e-08
4.21396e-08
2.66982e-10
4.2216e-08
2.13351e-10
4.22734e-08
1.63869e-10
4.2314e-08
1.17853e-10
4.23396e-08
7.48493e-11
4.23517e-08
3.45581e-11
4.23515e-08
-3.15447e-12
4.23402e-08
-3.85856e-11
4.23186e-08
-7.2105e-11
4.22876e-08
-1.03709e-10
4.22478e-08
-1.33468e-10
4.21998e-08
-1.61434e-10
4.21443e-08
-1.87636e-10
4.20817e-08
-2.12093e-10
-2.34806e-10
4.20125e-08
3.18278e-08
1.91576e-10
3.18869e-08
1.54278e-10
3.19312e-08
1.19493e-10
3.19624e-08
8.67069e-11
3.19815e-08
5.57533e-11
3.19896e-08
2.64843e-11
3.19875e-08
-1.09765e-12
3.19761e-08
-2.72095e-11
3.19561e-08
-5.20988e-11
3.19281e-08
-7.56358e-11
3.18925e-08
-9.78687e-11
3.18498e-08
-1.18819e-10
3.18007e-08
-1.38486e-10
3.17455e-08
-1.56867e-10
-1.73947e-10
3.16846e-08
2.36695e-08
1.33819e-10
2.37151e-08
1.08741e-10
2.37494e-08
8.51142e-11
2.37736e-08
6.25516e-11
2.37883e-08
4.10466e-11
2.37942e-08
2.05532e-11
2.3792e-08
1.10964e-12
2.37822e-08
-1.73861e-11
2.37653e-08
-3.52108e-11
2.37418e-08
-5.20834e-11
2.3712e-08
-6.8065e-11
2.36763e-08
-8.31677e-11
2.36352e-08
-9.73778e-11
2.3589e-08
-1.10679e-10
-1.23051e-10
2.35381e-08
1.72679e-08
9.00466e-11
1.73027e-08
7.38892e-11
1.73293e-08
5.8528e-11
1.73482e-08
4.3674e-11
1.73598e-08
2.93972e-11
1.73647e-08
1.56811e-11
1.73632e-08
2.59198e-12
1.73557e-08
-9.86181e-12
1.73426e-08
-2.20764e-11
1.73241e-08
-3.36165e-11
1.73006e-08
-4.45701e-11
1.72724e-08
-5.49546e-11
1.72398e-08
-6.47506e-11
1.7203e-08
-7.39367e-11
-8.24916e-11
1.71625e-08
1.22877e-08
5.74406e-11
1.2314e-08
4.76013e-11
1.23343e-08
3.8181e-11
1.2349e-08
2.8967e-11
1.23584e-08
2.00463e-11
1.23627e-08
1.14063e-11
1.23622e-08
3.08976e-12
1.23571e-08
-4.7565e-12
1.23476e-08
-1.26327e-11
1.23341e-08
-2.00674e-11
1.23166e-08
-2.71232e-11
1.22955e-08
-3.38367e-11
1.22709e-08
-4.01883e-11
1.22432e-08
-4.61565e-11
-5.17211e-11
1.22124e-08
8.44934e-09
3.38336e-11
8.46865e-09
2.82984e-11
8.48384e-09
2.29846e-11
8.49507e-09
1.77351e-11
8.5025e-09
1.26212e-11
8.50627e-09
7.63324e-12
8.50661e-09
2.75709e-12
8.50362e-09
-1.76769e-12
8.49739e-09
-6.40483e-12
8.48813e-09
-1.08126e-11
8.47599e-09
-1.49822e-11
8.46112e-09
-1.8964e-11
8.44368e-09
-2.27434e-11
8.42382e-09
-2.63022e-11
-2.96224e-11
8.40172e-09
5.52171e-09
1.75333e-11
5.53523e-09
1.4776e-11
5.54607e-09
1.21478e-11
5.55427e-09
9.53059e-12
5.55993e-09
6.96664e-12
5.56311e-09
4.44815e-12
5.56393e-09
1.94313e-12
5.56251e-09
-3.50515e-13
5.55883e-09
-2.72799e-12
5.55303e-09
-5.01424e-12
5.54523e-09
-7.17449e-12
5.5355e-09
-9.24238e-12
5.52397e-09
-1.1212e-11
5.51074e-09
-1.30702e-11
-1.48019e-11
5.49592e-09
3.31532e-09
7.18164e-12
3.32402e-09
6.07328e-12
3.33111e-09
5.05165e-12
3.33662e-09
4.02898e-12
3.34056e-09
3.01971e-12
3.34299e-09
2.02014e-12
3.34393e-09
1.00805e-12
3.34349e-09
8.82044e-14
3.34163e-09
-8.67914e-13
3.33841e-09
-1.80005e-12
3.33392e-09
-2.68239e-12
3.32821e-09
-3.52887e-12
3.32133e-09
-4.3376e-12
3.31336e-09
-5.10111e-12
-5.80775e-12
3.30437e-09
1.676e-09
1.65411e-12
1.68069e-09
1.38259e-12
1.68457e-09
1.16517e-12
1.68765e-09
9.47028e-13
1.68995e-09
7.26525e-13
1.69146e-09
5.0589e-13
1.6922e-09
2.75076e-13
1.69221e-09
7.00408e-14
1.69149e-09
-1.46066e-13
1.69005e-09
-3.58969e-13
1.68793e-09
-5.60432e-13
1.68516e-09
-7.56199e-13
1.68176e-09
-9.41944e-13
1.67778e-09
-1.11693e-12
-1.27339e-12
1.67324e-09
4.79191e-10
4.80574e-10
4.81739e-10
4.82686e-10
4.83413e-10
4.83919e-10
4.84194e-10
4.84264e-10
4.84118e-10
4.83759e-10
4.83198e-10
4.82442e-10
4.815e-10
4.80383e-10
4.7911e-10
1.12623e-09
-4.42207e-10
2.57643e-10
1.39159e-09
-3.52924e-10
8.75643e-11
1.65994e-09
-1.93929e-10
-7.44152e-11
1.9256e-09
-2.3629e-11
-2.42034e-10
2.18714e-09
1.54781e-10
-4.16326e-10
2.44572e-09
3.35664e-10
-5.94237e-10
2.70308e-09
5.18514e-10
-7.75872e-10
2.96062e-09
7.03084e-10
-9.60624e-10
3.21942e-09
8.88638e-10
-1.14744e-09
3.48033e-09
1.07393e-09
-1.33484e-09
3.74402e-09
1.25734e-09
-1.52103e-09
4.01116e-09
1.43685e-09
-1.70399e-09
4.28254e-09
1.60984e-09
-1.88122e-09
4.55917e-09
1.77277e-09
-2.0494e-09
4.84235e-09
1.92077e-09
-2.20395e-09
5.13382e-09
2.04726e-09
-2.33873e-09
5.43594e-09
2.14347e-09
-2.44559e-09
5.75194e-09
2.19852e-09
-2.51452e-09
6.08617e-09
2.19715e-09
-2.53139e-09
6.44382e-09
2.11339e-09
-2.47103e-09
6.82921e-09
1.89416e-09
-2.27955e-09
7.24127e-09
1.42514e-09
-1.8372e-09
7.60771e-09
4.7914e-10
-8.45571e-10
7.89999e-09
-5.3795e-10
2.4567e-10
8.11924e-09
-1.4636e-09
1.24434e-09
8.26964e-09
-2.2514e-09
2.101e-09
8.35727e-09
-2.88561e-09
2.79798e-09
8.38891e-09
-3.37225e-09
3.34061e-09
8.37047e-09
-3.7174e-09
3.73584e-09
8.30662e-09
-3.92591e-09
3.98976e-09
8.20121e-09
-4.00419e-09
4.10959e-09
8.05767e-09
-3.95754e-09
4.10108e-09
7.87921e-09
-3.79033e-09
3.9688e-09
7.6689e-09
-3.50707e-09
3.71738e-09
7.42965e-09
-3.11309e-09
3.35234e-09
7.16397e-09
-2.61445e-09
2.88013e-09
6.87393e-09
-2.01718e-09
2.30723e-09
6.5611e-09
-1.32535e-09
1.63817e-09
6.22695e-09
-5.38578e-10
8.72729e-10
5.87047e-09
3.48739e-10
7.7458e-12
5.48751e-09
1.34203e-09
-9.59071e-10
5.05864e-09
2.41404e-09
-1.98517e-09
4.55075e-09
3.43617e-09
-2.92829e-09
3.96465e-09
4.08837e-09
-3.50226e-09
3.57114e-09
3.60535e-09
-3.21185e-09
2.35585e-09
-5.14275e-10
2.51449e-09
-5.11567e-10
2.73112e-09
-4.10557e-10
2.97445e-09
-2.66964e-10
3.23151e-09
-1.02274e-10
3.49588e-09
7.12941e-11
3.7653e-09
2.49089e-10
4.03908e-09
4.29306e-10
4.31714e-09
6.10574e-10
4.5997e-09
7.91376e-10
4.88708e-09
9.69957e-10
5.17974e-09
1.14419e-09
5.47835e-09
1.31123e-09
5.78384e-09
1.46728e-09
6.09749e-09
1.60712e-09
6.42098e-09
1.72377e-09
6.75659e-09
1.80786e-09
7.10746e-09
1.84765e-09
7.47776e-09
1.82685e-09
7.8724e-09
1.71874e-09
8.29539e-09
1.47118e-09
8.745e-09
9.75519e-10
9.14312e-09
8.10213e-11
9.45996e-09
-8.54792e-10
9.69745e-09
-1.70108e-09
9.86025e-09
-2.4142e-09
9.95493e-09
-2.9803e-09
9.98895e-09
-3.40627e-09
9.9689e-09
-3.69735e-09
9.9001e-09
-3.85711e-09
9.78708e-09
-3.89116e-09
9.634e-09
-3.80446e-09
9.44498e-09
-3.60131e-09
9.22418e-09
-3.28627e-09
8.97589e-09
-2.8648e-09
8.70452e-09
-2.34309e-09
8.41477e-09
-1.72743e-09
8.11221e-09
-1.02279e-09
7.8046e-09
-2.30968e-10
7.5032e-09
6.50134e-10
7.22519e-09
1.62004e-09
6.99089e-09
2.64834e-09
6.82699e-09
3.60008e-09
6.75913e-09
4.15622e-09
3.67141e-09
6.65886e-09
4.12162e-09
-5.26311e-10
4.19177e-09
-5.81711e-10
4.33187e-09
-5.5066e-10
4.52439e-09
-4.59484e-10
4.75097e-09
-3.28853e-10
5.00006e-09
-1.778e-10
5.26503e-09
-1.58758e-11
5.54212e-09
1.52212e-10
5.8293e-09
3.23395e-10
6.12553e-09
4.95143e-10
6.43035e-09
6.65135e-10
6.7437e-09
8.30847e-10
7.06589e-09
9.89042e-10
7.39764e-09
1.13553e-09
7.74001e-09
1.26475e-09
8.09453e-09
1.36925e-09
8.46328e-09
1.4391e-09
8.84915e-09
1.46179e-09
9.25591e-09
1.42009e-09
9.68799e-09
1.28666e-09
1.01487e-08
1.01044e-09
1.06355e-08
4.88783e-10
1.10643e-08
-3.47817e-10
1.14045e-08
-1.19495e-09
1.16588e-08
-1.95546e-09
1.18327e-08
-2.58802e-09
1.1933e-08
-3.08064e-09
1.19681e-08
-3.44132e-09
1.19452e-08
-3.67453e-09
1.18706e-08
-3.78248e-09
1.17495e-08
-3.77004e-09
1.1587e-08
-3.64194e-09
1.13882e-08
-3.40257e-09
1.11588e-08
-3.05685e-09
1.09047e-08
-2.61071e-09
1.06327e-08
-2.07103e-09
1.03505e-08
-1.44528e-09
1.00684e-08
-7.40654e-10
9.80089e-09
3.6513e-11
9.57068e-09
8.80347e-10
9.41213e-09
1.77859e-09
9.36925e-09
2.69122e-09
9.47517e-09
3.49416e-09
9.68995e-09
3.94144e-09
3.59047e-09
9.77089e-09
6.55143e-09
-5.03859e-10
6.56108e-09
-5.91364e-10
6.62453e-09
-6.14108e-10
6.74811e-09
-5.83062e-10
6.92095e-09
-5.01698e-10
7.13128e-09
-3.88128e-10
7.37057e-09
-2.55169e-10
7.63266e-09
-1.09879e-10
7.91343e-09
4.26281e-11
8.21029e-09
1.98286e-10
8.52163e-09
3.53788e-10
8.84658e-09
5.05904e-10
9.18486e-09
6.50761e-10
9.53675e-09
7.83643e-10
9.90297e-09
8.9853e-10
1.02847e-08
9.8751e-10
1.06837e-08
1.04012e-09
1.11023e-08
1.04315e-09
1.15438e-08
9.78609e-10
1.20117e-08
8.1873e-10
1.25084e-08
5.13778e-10
1.30297e-08
-3.25741e-11
1.34864e-08
-8.04485e-10
1.38469e-08
-1.55548e-09
1.41154e-08
-2.22389e-09
1.42975e-08
-2.77013e-09
1.44009e-08
-3.18406e-09
1.44347e-08
-3.4751e-09
1.44072e-08
-3.64703e-09
1.43253e-08
-3.70064e-09
1.41954e-08
-3.64006e-09
1.40234e-08
-3.46998e-09
1.3816e-08
-3.19512e-09
1.35801e-08
-2.82104e-09
1.3324e-08
-2.35455e-09
1.30568e-08
-1.80381e-09
1.27897e-08
-1.17821e-09
1.25373e-08
-4.8827e-10
1.23198e-08
2.54023e-10
1.21666e-08
1.03356e-09
1.21186e-08
1.82659e-09
1.22217e-08
2.58815e-09
1.24958e-08
3.22007e-09
1.28802e-08
3.55701e-09
3.36718e-09
1.31035e-08
9.81608e-09
-4.66047e-10
9.78827e-09
-5.63546e-10
9.79344e-09
-6.1928e-10
9.84588e-09
-6.35499e-10
9.95132e-09
-6.07145e-10
1.01033e-08
-5.40107e-10
1.02953e-08
-4.4713e-10
1.0521e-08
-3.35582e-10
1.07754e-08
-2.1179e-10
1.10548e-08
-8.11592e-11
1.13566e-08
5.19794e-11
1.1679e-08
1.83521e-10
1.2021e-08
3.08765e-10
1.23823e-08
4.22331e-10
1.27632e-08
5.17679e-10
1.31643e-08
5.86408e-10
1.35868e-08
6.17584e-10
1.40326e-08
5.974e-10
1.45038e-08
5.07359e-10
1.5003e-08
3.19548e-10
1.55309e-08
-1.41403e-11
1.60816e-08
-5.83255e-10
1.65607e-08
-1.28361e-09
1.69365e-08
-1.93127e-09
1.72143e-08
-2.50163e-09
1.74003e-08
-2.95619e-09
1.75028e-08
-3.28654e-09
1.75318e-08
-3.50409e-09
1.74968e-08
-3.61203e-09
1.74057e-08
-3.60953e-09
1.72657e-08
-3.50004e-09
1.70841e-08
-3.28841e-09
1.68689e-08
-2.97997e-09
1.66291e-08
-2.58119e-09
1.63747e-08
-2.10017e-09
1.61176e-08
-1.54673e-09
1.58722e-08
-9.32731e-10
1.56562e-08
-2.72312e-10
1.54928e-08
4.17388e-10
1.54124e-08
1.11402e-09
1.54517e-08
1.7873e-09
1.56455e-08
2.39434e-09
1.59985e-08
2.86704e-09
1.6443e-08
3.11254e-09
3.03117e-09
1.6779e-08
1.41169e-08
-4.25631e-10
1.40708e-08
-5.17403e-10
1.40407e-08
-5.89259e-10
1.40387e-08
-6.33424e-10
1.40787e-08
-6.47163e-10
1.41641e-08
-6.25571e-10
1.42938e-08
-5.76776e-10
1.44643e-08
-5.06137e-10
1.46721e-08
-4.19551e-10
1.49137e-08
-3.2278e-10
1.51863e-08
-2.20583e-10
1.54875e-08
-1.17732e-10
1.58161e-08
-1.97558e-11
1.61711e-08
6.7307e-11
1.65523e-08
1.36419e-10
1.696e-08
1.78725e-10
1.73947e-08
1.82927e-10
1.78573e-08
1.34807e-10
1.8349e-08
1.567e-11
1.88707e-08
-2.02144e-10
1.94212e-08
-5.64679e-10
1.9992e-08
-1.15411e-09
2.04849e-08
-1.77651e-09
2.08681e-08
-2.31445e-09
2.11481e-08
-2.78159e-09
2.13316e-08
-3.13971e-09
2.14273e-08
-3.38219e-09
2.14464e-08
-3.52321e-09
2.13999e-08
-3.56552e-09
2.12966e-08
-3.50624e-09
2.11447e-08
-3.34817e-09
2.0953e-08
-3.09665e-09
2.07309e-08
-2.75786e-09
2.04891e-08
-2.33945e-09
2.02399e-08
-1.851e-09
1.99974e-08
-1.30423e-09
1.97781e-08
-7.13348e-10
1.96015e-08
-9.57172e-11
1.94903e-08
5.28574e-10
1.94708e-08
1.13354e-09
1.95692e-08
1.68888e-09
1.98043e-08
2.15924e-09
2.01684e-08
2.50292e-09
2.06041e-08
2.67684e-09
2.64745e-09
2.09878e-08
1.96892e-08
-3.8974e-10
1.96416e-08
-4.69771e-10
1.95953e-08
-5.42974e-10
1.95629e-08
-6.01007e-10
1.9555e-08
-6.39347e-10
1.95824e-08
-6.52914e-10
1.9649e-08
-6.43362e-10
1.97562e-08
-6.13355e-10
1.99038e-08
-5.67186e-10
2.00908e-08
-5.09761e-10
2.03154e-08
-4.45151e-10
2.05759e-08
-3.78243e-10
2.08712e-08
-3.15108e-10
2.12007e-08
-2.62171e-10
2.15639e-08
-2.26761e-10
2.19606e-08
-2.18013e-10
2.23909e-08
-2.47375e-10
2.2855e-08
-3.29207e-10
2.33526e-08
-4.81958e-10
2.3883e-08
-7.32527e-10
2.44426e-08
-1.12429e-09
2.50197e-08
-1.73124e-09
2.55137e-08
-2.27049e-09
2.58931e-08
-2.69383e-09
2.61654e-08
-3.0539e-09
2.63374e-08
-3.3118e-09
2.64182e-08
-3.46298e-09
2.64207e-08
-3.52571e-09
2.63574e-08
-3.50223e-09
2.62381e-08
-3.38687e-09
2.60718e-08
-3.18194e-09
2.58688e-08
-2.89358e-09
2.564e-08
-2.52906e-09
2.53979e-08
-2.09736e-09
2.51564e-08
-1.60955e-09
2.49313e-08
-1.07906e-09
2.47398e-08
-5.21888e-10
2.46008e-08
4.32349e-11
2.45345e-08
5.94891e-10
2.45596e-08
1.10849e-09
2.46903e-08
1.55813e-09
2.4931e-08
1.91855e-09
2.52666e-08
2.16729e-09
2.56543e-08
2.28913e-09
2.27999e-09
2.60218e-08
2.68084e-08
-3.6063e-10
2.67676e-08
-4.28934e-10
2.67213e-08
-4.96726e-10
2.66783e-08
-5.57974e-10
2.66469e-08
-6.0801e-10
2.66371e-08
-6.43026e-10
2.66556e-08
-6.61912e-10
2.67073e-08
-6.65011e-10
2.67956e-08
-6.55514e-10
2.69227e-08
-6.36886e-10
2.70891e-08
-6.11523e-10
2.72949e-08
-5.84077e-10
2.75406e-08
-5.60765e-10
2.78263e-08
-5.47873e-10
2.81521e-08
-5.52634e-10
2.85183e-08
-5.84129e-10
2.89245e-08
-6.53591e-10
2.93704e-08
-7.75135e-10
2.98548e-08
-9.66365e-10
3.03751e-08
-1.2528e-09
3.09251e-08
-1.67431e-09
3.14896e-08
-2.29571e-09
3.19678e-08
-2.74866e-09
3.23288e-08
-3.05491e-09
3.25809e-08
-3.30592e-09
3.27302e-08
-3.46109e-09
3.2786e-08
-3.51885e-09
3.27637e-08
-3.50335e-09
3.26773e-08
-3.41587e-09
3.25372e-08
-3.24677e-09
3.23534e-08
-2.99816e-09
3.21373e-08
-2.67747e-09
3.19015e-08
-2.29321e-09
3.16597e-08
-1.85559e-09
3.14271e-08
-1.37693e-09
3.12197e-08
-8.71719e-10
3.10544e-08
-3.56605e-10
3.09477e-08
1.49953e-10
3.09147e-08
6.27911e-10
3.09663e-08
1.05688e-09
3.11068e-08
1.41765e-09
3.13308e-08
1.69459e-09
3.16203e-08
1.87775e-09
3.19441e-08
1.96533e-09
1.96415e-09
3.226e-08
3.57922e-08
-3.37594e-10
3.576e-08
-3.96752e-10
3.57214e-08
-4.58114e-10
3.56812e-08
-5.17841e-10
3.56455e-08
-5.72265e-10
3.56211e-08
-6.18681e-10
3.56147e-08
-6.55469e-10
3.56313e-08
-6.81564e-10
3.56767e-08
-7.00923e-10
3.57549e-08
-7.15102e-10
3.5868e-08
-7.2465e-10
3.60186e-08
-7.34709e-10
3.62092e-08
-7.51347e-10
3.64416e-08
-7.80229e-10
3.67171e-08
-8.28155e-10
3.70368e-08
-9.03805e-10
3.74009e-08
-1.01776e-09
3.78092e-08
-1.18344e-09
3.82597e-08
-1.41687e-09
3.87485e-08
-1.74152e-09
3.92669e-08
-2.19274e-09
3.9796e-08
-2.82482e-09
4.02383e-08
-3.19096e-09
4.05641e-08
-3.38075e-09
4.07813e-08
-3.52305e-09
4.08946e-08
-3.57438e-09
4.09142e-08
-3.53847e-09
4.08584e-08
-3.44756e-09
4.07427e-08
-3.30015e-09
4.0577e-08
-3.08115e-09
4.03724e-08
-2.79349e-09
4.01413e-08
-2.44638e-09
3.98976e-08
-2.04949e-09
3.96559e-08
-1.61394e-09
3.94317e-08
-1.15268e-09
3.92403e-08
-6.80337e-10
3.90966e-08
-2.12867e-10
3.90133e-08
2.33217e-10
3.9e-08
6.41175e-10
3.9061e-08
9.95932e-10
3.91936e-08
1.28506e-09
3.93876e-08
1.50052e-09
3.96257e-08
1.63973e-09
3.98845e-08
1.70647e-09
1.71007e-09
4.01386e-08
4.69963e-08
-3.19643e-10
4.69721e-08
-3.7259e-10
4.69429e-08
-4.28968e-10
4.69116e-08
-4.86529e-10
4.6882e-08
-5.42634e-10
4.68589e-08
-5.95608e-10
4.68474e-08
-6.43901e-10
4.68511e-08
-6.85342e-10
4.68773e-08
-7.27107e-10
4.69285e-08
-7.66253e-10
4.70071e-08
-8.03323e-10
4.71179e-08
-8.45441e-10
4.72642e-08
-8.97683e-10
4.74491e-08
-9.6511e-10
4.76751e-08
-1.0542e-09
4.79445e-08
-1.17313e-09
4.82582e-08
-1.33153e-09
4.86167e-08
-1.54187e-09
4.90176e-08
-1.81781e-09
4.94564e-08
-2.18032e-09
4.99227e-08
-2.65899e-09
5.0394e-08
-3.29615e-09
5.07804e-08
-3.57737e-09
5.10542e-08
-3.65452e-09
5.12216e-08
-3.69051e-09
5.12852e-08
-3.63792e-09
5.1258e-08
-3.51135e-09
5.11626e-08
-3.35211e-09
5.1013e-08
-3.15056e-09
5.08181e-08
-2.88622e-09
5.059e-08
-2.56543e-09
5.03426e-08
-2.199e-09
5.00905e-08
-1.79734e-09
4.98484e-08
-1.37188e-09
4.96311e-08
-9.3536e-10
4.94522e-08
-5.01429e-10
4.93234e-08
-8.40903e-11
4.92534e-08
3.0322e-10
4.92466e-08
6.47948e-10
4.93024e-08
9.40194e-10
4.94144e-08
1.17309e-09
4.95711e-08
1.34373e-09
4.97574e-08
1.45348e-09
4.9956e-08
1.50787e-09
1.51565e-09
5.01504e-08
6.08092e-08
-3.07298e-10
6.07932e-08
-3.56593e-10
6.07743e-08
-4.10029e-10
6.07542e-08
-4.66386e-10
6.07357e-08
-5.24195e-10
6.07222e-08
-5.82104e-10
6.07178e-08
-6.39446e-10
6.07264e-08
-6.93941e-10
6.07504e-08
-7.51191e-10
6.07941e-08
-8.09855e-10
6.08617e-08
-8.70938e-10
6.09564e-08
-9.40205e-10
6.1081e-08
-1.02228e-09
6.12384e-08
-1.12252e-09
6.14315e-08
-1.24727e-09
6.16627e-08
-1.40427e-09
6.19333e-08
-1.60223e-09
6.22442e-08
-1.85267e-09
6.25927e-08
-2.16634e-09
6.29741e-08
-2.56173e-09
6.33766e-08
-3.06147e-09
6.37749e-08
-3.69445e-09
6.40914e-08
-3.89389e-09
6.43009e-08
-3.86399e-09
6.44063e-08
-3.79597e-09
6.44081e-08
-3.6397e-09
6.43298e-08
-3.43306e-09
6.41961e-08
-3.21844e-09
6.40111e-08
-2.96556e-09
6.37854e-08
-2.66049e-09
6.35338e-08
-2.31385e-09
6.3271e-08
-1.93616e-09
6.30115e-08
-1.53783e-09
6.27695e-08
-1.12985e-09
6.25579e-08
-7.23824e-10
6.23879e-08
-3.3145e-10
6.22676e-08
3.62939e-11
6.22017e-08
3.69107e-10
6.21907e-08
6.58912e-10
6.22309e-08
8.99983e-10
6.23146e-08
1.08942e-09
6.24309e-08
1.22739e-09
6.25674e-08
1.317e-09
6.27114e-08
1.36391e-09
1.37544e-09
6.28516e-08
7.76605e-08
-3.02918e-10
7.76547e-08
-3.50761e-10
7.76479e-08
-4.03271e-10
7.76415e-08
-4.5991e-10
7.76375e-08
-5.20209e-10
7.76384e-08
-5.8301e-10
7.76478e-08
-6.48821e-10
7.76694e-08
-7.15564e-10
7.77028e-08
-7.84599e-10
7.77541e-08
-8.61176e-10
7.78281e-08
-9.44941e-10
7.79261e-08
-1.03815e-09
7.805e-08
-1.14625e-09
7.82023e-08
-1.27477e-09
7.83849e-08
-1.42989e-09
7.85995e-08
-1.61885e-09
7.88465e-08
-1.84931e-09
7.9126e-08
-2.13216e-09
7.94343e-08
-2.47464e-09
7.97661e-08
-2.89347e-09
8.01079e-08
-3.40332e-09
8.04316e-08
-4.0181e-09
8.06765e-08
-4.13881e-09
8.08182e-08
-4.00575e-09
8.08514e-08
-3.82912e-09
8.07917e-08
-3.58005e-09
8.06766e-08
-3.31787e-09
8.05079e-08
-3.04977e-09
8.02888e-08
-2.7465e-09
8.00364e-08
-2.40802e-09
7.97661e-08
-2.04361e-09
7.94929e-08
-1.66295e-09
7.92306e-08
-1.27553e-09
7.89918e-08
-8.91053e-10
7.87871e-08
-5.19151e-10
7.86245e-08
-1.68815e-10
7.85087e-08
1.52128e-10
7.84412e-08
4.36574e-10
7.842e-08
6.80159e-10
7.84397e-08
8.80257e-10
7.84926e-08
1.03647e-09
7.85695e-08
1.15057e-09
7.86603e-08
1.2262e-09
7.87557e-08
1.26846e-09
1.28321e-09
7.88479e-08
9.80536e-08
-3.09423e-10
9.80606e-08
-3.57778e-10
9.80686e-08
-4.11224e-10
9.80784e-08
-4.69752e-10
9.80916e-08
-5.33322e-10
9.81101e-08
-6.01592e-10
9.81362e-08
-6.74885e-10
9.81741e-08
-7.53469e-10
9.82272e-08
-8.37656e-10
9.82958e-08
-9.29844e-10
9.83835e-08
-1.03266e-09
9.84937e-08
-1.14833e-09
9.86282e-08
-1.28076e-09
9.87886e-08
-1.43512e-09
9.89759e-08
-1.61718e-09
9.91906e-08
-1.83359e-09
9.94319e-08
-2.09055e-09
9.9698e-08
-2.39827e-09
9.99834e-08
-2.7601e-09
1.00281e-07
-3.19118e-09
1.00576e-07
-3.69817e-09
1.00836e-07
-4.27825e-09
1.0102e-07
-4.32265e-09
1.01094e-07
-4.07945e-09
1.01065e-07
-3.80006e-09
1.00969e-07
-3.4845e-09
1.00825e-07
-3.17364e-09
1.00627e-07
-2.85149e-09
1.00384e-07
-2.50386e-09
1.00116e-07
-2.13983e-09
9.98382e-08
-1.76613e-09
9.95655e-08
-1.39025e-09
9.931e-08
-1.01994e-09
9.90818e-08
-6.62888e-10
9.88888e-08
-3.26164e-10
9.87357e-08
-1.56919e-11
9.86249e-08