/*--------------------------------*- C++ -*----------------------------------*\
| =========                 |                                                 |
| \\      /  F ield         | OpenFOAM: The Open Source CFD Toolbox           |
|  \\    /   O peration     | Version:  2312                                  |
|   \\  /    A nd           | Website:  www.openfoam.com                      |
|    \\/     M anipulation  |                                                 |
\*---------------------------------------------------------------------------*/
FoamFile
{
    version     2.0;
    format      ascii;
    arch        "LSB;label=32;scalar=64";
    class       volVectorField;
    location    "96";
    object      U;
}
// * * * * * * * * * * * * * * * * * * * * * * * * * * * * * * * * * * * * * //

dimensions      [0 1 -1 0 0 0 0];

internalField   nonuniform List<vector> 
4800
(
(0.000463666 3.94699e-07 -2.76603e-26)
(0.000453442 4.17138e-07 -1.90623e-25)
(0.000446888 4.13559e-07 2.45741e-25)
(0.000442824 3.89958e-07 1.07913e-25)
(0.000440515 3.46469e-07 1.55769e-24)
(0.000439534 2.93797e-07 -3.68345e-24)
(0.000439717 2.27067e-07 3.39214e-24)
(0.000440747 1.60267e-07 -4.84089e-24)
(0.000442704 1.89411e-08 1.57089e-24)
(0.000445721 -2.23359e-07 5.19574e-24)
(0.000450181 -6.98493e-07 -1.60512e-24)
(0.00045735 -2.03407e-06 -1.44059e-25)
(0.000474249 -7.00031e-06 -1.91482e-24)
(0.000517859 -2.69114e-05 8.91774e-25)
(0.00058895 -8.60078e-05 -7.10248e-25)
(0.00143316 2.11251e-06 -8.77255e-26)
(0.0014026 1.60736e-06 1.0925e-25)
(0.00138303 1.20437e-06 -9.72566e-25)
(0.00137087 8.52653e-07 7.35001e-25)
(0.00136389 5.08479e-07 2.25269e-24)
(0.0013608 1.4783e-07 -3.53798e-24)
(0.00136104 -2.61164e-07 -9.57131e-25)
(0.0013636 -7.28394e-07 -1.9285e-25)
(0.00136883 -1.47473e-06 7.96594e-24)
(0.00137702 -2.6878e-06 -5.84794e-24)
(0.00138924 -4.98396e-06 6.3662e-25)
(0.00140817 -1.05351e-05 9.54011e-25)
(0.00144229 -2.67004e-05 -1.39968e-24)
(0.00150155 -7.57456e-05 -4.23385e-25)
(0.00156442 -0.000184321 1.83032e-24)
(0.00250497 6.71998e-06 -6.26279e-26)
(0.00245326 5.05542e-06 6.41132e-26)
(0.00242015 3.75632e-06 6.36638e-25)
(0.00239952 2.65227e-06 -1.50177e-24)
(0.00238757 1.61033e-06 1.44932e-24)
(0.00238209 5.01947e-07 1.31728e-24)
(0.00238204 -7.37926e-07 -3.4015e-24)
(0.00238561 -2.19998e-06 -2.0377e-24)
(0.00239342 -4.38458e-06 4.953e-24)
(0.00240565 -7.77382e-06 1.8275e-24)
(0.0024234 -1.37914e-05 -6.36938e-24)
(0.00244873 -2.62685e-05 -9.34936e-25)
(0.00248556 -5.43354e-05 2.70227e-24)
(0.00253245 -0.000116045 4.23043e-24)
(0.00256527 -0.000216919 -2.18134e-24)
(0.00368608 1.49053e-05 2.311e-26)
(0.00361271 1.12364e-05 -1.59496e-25)
(0.00356567 8.38208e-06 6.9876e-25)
(0.00353623 5.97203e-06 7.16953e-25)
(0.00351899 3.72476e-06 -7.40366e-25)
(0.0035107 1.3719e-06 -4.06614e-24)
(0.00350976 -1.22918e-06 -2.64017e-24)
(0.00351365 -4.18775e-06 1.00005e-23)
(0.00352292 -8.53324e-06 4.07855e-24)
(0.00353738 -1.49626e-05 -5.95501e-24)
(0.0035574 -2.54522e-05 -2.3718e-24)
(0.00358337 -4.4371e-05 -1.7842e-24)
(0.00361454 -7.93085e-05 6.06729e-26)
(0.00364391 -0.000139398 1.3083e-24)
(0.0036543 -0.00021877 6.35589e-27)
(0.00498165 2.74136e-05 -4.23835e-26)
(0.00488676 2.06915e-05 -2.56275e-25)
(0.00482573 1.54749e-05 -1.51982e-25)
(0.00478727 1.10978e-05 4.33544e-25)
(0.00476441 7.06769e-06 -1.17409e-24)
(0.00475284 2.9298e-06 2.91687e-24)
(0.00475018 -1.52848e-06 -5.18485e-25)
(0.00475358 -6.50075e-06 1.70165e-24)
(0.00476296 -1.34623e-05 -9.57266e-24)
(0.00477752 -2.32372e-05 1.80649e-23)
(0.00479666 -3.78032e-05 -1.73712e-23)
(0.00481914 -6.07675e-05 9.08896e-24)
(0.0048417 -9.66837e-05 -8.36496e-24)
(0.00485698 -0.000148194 7.84489e-24)
(0.00485541 -0.000207502 -3.11407e-24)
(0.00639345 4.51349e-05 5.60494e-26)
(0.00627839 3.41418e-05 1.98194e-25)
(0.00620394 2.56218e-05 -1.03426e-24)
(0.00615659 1.8514e-05 -6.21499e-25)
(0.00612794 1.2058e-05 1.71192e-24)
(0.00611267 5.57965e-06 5.93551e-25)
(0.00610744 -1.1467e-06 -4.58829e-24)
(0.00610944 -8.72612e-06 1.08503e-23)
(0.00611756 -1.84922e-05 -1.39677e-23)
(0.00613025 -3.13757e-05 3.37036e-24)
(0.00614615 -4.89923e-05 9.99106e-24)
(0.00616307 -7.35301e-05 -1.37603e-23)
(0.00617729 -0.00010675 6.88198e-24)
(0.0061834 -0.000148011 6.94591e-24)
(0.00617714 -0.000191169 -5.2754e-24)
(0.00791763 6.88273e-05 4.64882e-26)
(0.0077858 5.22717e-05 -2.7275e-25)
(0.0076997 3.94246e-05 9.60428e-25)
(0.0076443 2.8751e-05 -1.31551e-24)
(0.0076101 1.91812e-05 -4.32591e-24)
(0.00759094 9.81818e-06 7.36498e-24)
(0.00758268 2.89687e-07 -4.38113e-24)
(0.0075823 -1.01066e-05 1.46679e-23)
(0.00758789 -2.26459e-05 -9.9914e-24)
(0.00759735 -3.81504e-05 -4.59552e-24)
(0.00760873 -5.76145e-05 -8.87932e-24)
(0.00761964 -8.19097e-05 8.18841e-24)
(0.00762708 -0.000111019 2.28133e-24)
(0.00762779 -0.000143215 1.92044e-24)
(0.00762047 -0.000174504 -1.68747e-24)
(0.00954231 9.87117e-05 -6.73604e-26)
(0.0094002 7.54404e-05 9.04537e-25)
(0.00930615 5.72866e-05 -2.08035e-24)
(0.00924476 4.2224e-05 -1.629e-24)
(0.00920606 2.8867e-05 6.6944e-25)
(0.00918339 1.61172e-05 1.22864e-24)
(0.00917205 3.42015e-06 4.19806e-24)
(0.00916875 -9.95789e-06 -1.12349e-23)
(0.00917108 -2.50816e-05 -5.80086e-24)
(0.00917662 -4.25581e-05 1.62924e-23)
(0.00918323 -6.28018e-05 -4.93099e-24)
(0.00918875 -8.58057e-05 1.68455e-23)
(0.00919118 -0.000110787 -8.84313e-24)
(0.00918877 -0.000136074 -2.77892e-24)
(0.00918165 -0.00015932 1.63932e-24)
(0.0112461 0.000133897 -8.97357e-27)
(0.011104 0.000103262 5.01643e-25)
(0.0110083 7.90959e-05 -7.11146e-25)
(0.0109448 5.89881e-05 1.64605e-24)
(0.0109039 4.12922e-05 -9.65281e-24)
(0.010879 2.47603e-05 1.01434e-23)
(0.0108653 8.67083e-06 -1.55434e-23)
(0.0108593 -7.6832e-06 9.63333e-24)
(0.0108584 -2.511e-05 7.01861e-24)
(0.0108601 -4.39665e-05 1.49048e-23)
(0.0108626 -6.42665e-05 -1.9421e-23)
(0.0108639 -8.56028e-05 -3.49893e-24)
(0.010863 -0.000107091 1.68649e-24)
(0.0108588 -0.000127524 1.1518e-23)
(0.0108522 -0.000145625 -4.66093e-24)
(0.0130003 0.000171743 4.95567e-26)
(0.0128718 0.000134059 -2.12506e-25)
(0.0127832 0.00010377 9.29095e-25)
(0.0127232 7.83538e-05 -3.19836e-24)
(0.012684 5.60511e-05 4.78467e-24)
(0.0126594 3.55538e-05 -6.05681e-24)
(0.012645 1.60469e-05 9.99133e-24)
(0.0126374 -3.12035e-06 1.63577e-24)
(0.0126342 -2.252e-05 -1.347e-23)
(0.0126332 -4.23143e-05 1.88889e-23)
(0.0126327 -6.23298e-05 -2.07344e-23)
(0.0126313 -8.21032e-05 -5.96269e-24)
(0.0126286 -0.000100952 1.06113e-23)
(0.0126238 -0.000118159 3.10762e-24)
(0.0126179 -0.000133098 -1.3512e-24)
(0.0147793 0.000207763 1.98301e-25)
(0.014677 0.000164547 -1.65381e-24)
(0.0146047 0.000128874 -2.56303e-24)
(0.0145549 9.85027e-05 6.13257e-24)
(0.0145219 7.17844e-05 2.62726e-24)
(0.014501 4.74791e-05 -1.6472e-23)
(0.0144884 2.47779e-05 5.17021e-24)
(0.0144813 3.11465e-06 3.66002e-24)
(0.0144776 -1.78953e-05 -1.50776e-23)
(0.0144755 -3.83284e-05 1.58629e-23)
(0.0144737 -5.79996e-05 -1.23082e-23)
(0.0144714 -7.65674e-05 3.17581e-23)
(0.0144682 -9.36219e-05 -1.51252e-23)
(0.0144638 -0.000108823 8.84467e-24)
(0.014459 -0.000121925 -2.40034e-24)
(0.0165764 0.000237231 -7.18769e-26)
(0.0165058 0.000190634 1.11166e-24)
(0.016455 0.000150992 -2.16472e-24)
(0.01642 0.000116615 -1.04992e-24)
(0.016397 8.61685e-05 1.17997e-23)
(0.0163827 5.86035e-05 -1.84164e-24)
(0.0163744 3.32129e-05 -2.04553e-23)
(0.0163698 9.51932e-06 2.35605e-23)
(0.0163674 -1.27228e-05 -5.34624e-24)
(0.016366 -3.35901e-05 -1.79274e-23)
(0.0163647 -5.29919e-05 1.89587e-23)
(0.016363 -7.07643e-05 1.00214e-23)
(0.0163607 -8.67359e-05 -8.57971e-24)
(0.0163576 -0.000100816 -1.45918e-23)
(0.0163545 -0.000112977 1.21701e-24)
(0.0184138 0.000258558 -5.88955e-27)
(0.0183689 0.000209996 -1.21854e-24)
(0.0183372 0.000167639 5.80408e-24)
(0.0183162 0.0001303 2.88114e-25)
(0.0183033 9.69934e-05 3.12275e-24)
(0.018296 6.69073e-05 -1.14829e-23)
(0.0182926 3.94696e-05 9.58268e-24)
(0.0182914 1.42927e-05 2.04998e-24)
(0.0182915 -8.83368e-06 1.91455e-23)
(0.0182918 -3.00171e-05 -2.98262e-23)
(0.0182921 -4.92801e-05 -1.33045e-23)
(0.0182918 -6.66244e-05 -8.64601e-24)
(0.0182913 -8.20574e-05 1.63854e-23)
(0.0182899 -9.56404e-05 -4.59748e-25)
(0.0182887 -0.000107464 1.5681e-24)
(0.0203212 0.000274877 -2.2407e-26)
(0.0202902 0.000224394 1.19875e-24)
(0.0202695 0.000179684 -1.7448e-24)
(0.0202569 0.000139886 3.15713e-27)
(0.0202502 0.000104257 2.31697e-24)
(0.0202474 7.21687e-05 5.80352e-24)
(0.0202471 4.31404e-05 -2.24527e-23)
(0.0202482 1.68389e-05 2.01136e-24)
(0.0202499 -6.99426e-06 1.12939e-23)
(0.0202516 -2.85213e-05 -5.07678e-24)
(0.0202532 -4.78589e-05 1.3911e-23)
(0.0202543 -6.51331e-05 9.6062e-24)
(0.0202552 -8.04734e-05 -1.74693e-23)
(0.0202554 -9.40307e-05 1.18471e-23)
(0.0202558 -0.000105959 -9.83649e-24)
(0.0222919 0.000290106 -6.6794e-25)
(0.0222677 0.000237566 5.00066e-25)
(0.0222519 0.000190499 1.94451e-24)
(0.0222426 0.000148344 -1.04688e-23)
(0.0222379 0.000110568 9.25343e-24)
(0.0222362 7.66659e-05 -6.71922e-24)
(0.0222365 4.6199e-05 4.8428e-24)
(0.0222378 1.88165e-05 -3.37693e-23)
(0.0222396 -5.79202e-06 4.87351e-23)
(0.0222415 -2.78723e-05 -2.84527e-23)
(0.0222433 -4.76171e-05 2.53623e-23)
(0.0222448 -6.52316e-05 2.10059e-23)
(0.0222462 -8.09206e-05 -3.66809e-23)
(0.0222471 -9.48869e-05 1.18981e-23)
(0.0222482 -0.000107317 -4.97985e-25)
(0.0242603 0.000304234 -2.42736e-26)
(0.0242433 0.000250422 2.66401e-25)
(0.024232 0.0002016 -3.41929e-25)
(0.0242251 0.000157548 -2.75345e-25)
(0.0242215 0.000117957 3.5576e-24)
(0.0242201 8.2465e-05 -6.15891e-24)
(0.0242201 5.06679e-05 5.76582e-24)
(0.0242209 2.22116e-05 -1.8269e-23)
(0.0242221 -3.26847e-06 4.1535e-23)
(0.0242234 -2.61225e-05 -5.30907e-23)
(0.0242249 -4.65867e-05 4.3425e-23)
(0.0242261 -6.49059e-05 -1.46522e-23)
(0.0242273 -8.1324e-05 7.54204e-25)
(0.0242282 -9.60696e-05 3.33473e-24)
(0.0242294 -0.000109345 -6.40482e-24)
(0.0261223 0.0003144 -2.07314e-24)
(0.0261143 0.000260635 4.39444e-24)
(0.026109 0.000211194 -2.2617e-24)
(0.0261059 0.000166197 -8.74741e-25)
(0.0261047 0.000125543 4.64993e-24)
(0.0261045 8.89707e-05 -4.9483e-24)
(0.0261053 5.61519e-05 -4.83293e-24)
(0.0261063 2.6742e-05 -1.18867e-23)
(0.0261075 4.29153e-07 5.90304e-24)
(0.0261087 -2.32758e-05 2.90094e-23)
(0.02611 -4.45971e-05 -1.53639e-23)
(0.0261111 -6.37986e-05 9.22227e-24)
(0.0261123 -8.11449e-05 -3.78637e-24)
(0.0261132 -9.68677e-05 -1.12847e-23)
(0.0261143 -0.000111172 5.77924e-24)
(0.027755 0.000318471 7.04183e-25)
(0.0277557 0.000266015 -1.31238e-24)
(0.0277566 0.000217128 -1.75304e-24)
(0.027758 0.000172234 3.30804e-24)
(0.0277597 0.000131399 -1.9909e-24)
(0.0277616 9.44508e-05 4.60558e-24)
(0.0277638 6.1113e-05 -4.47223e-24)
(0.0277659 3.10185e-05 -3.60949e-24)
(0.0277678 3.86822e-06 3.16186e-24)
(0.0277694 -2.0663e-05 -4.14155e-24)
(0.0277711 -4.28533e-05 9.5944e-24)
(0.0277727 -6.30124e-05 5.06614e-24)
(0.0277742 -8.13972e-05 -1.88376e-23)
(0.0277754 -9.82213e-05 1.31169e-23)
(0.0277768 -0.000113672 -2.6957e-24)
(0.029005 0.000315979 2.15468e-24)
(0.0290131 0.00026592 4.47021e-24)
(0.0290196 0.000218671 -9.59327e-24)
(0.0290251 0.000174881 -3.02045e-24)
(0.0290298 0.000134759 6.03446e-24)
(0.029034 9.81896e-05 1.14997e-24)
(0.0290377 6.49468e-05 -2.1681e-24)
(0.0290409 3.47188e-05 8.0165e-25)
(0.0290437 7.07341e-06 4.87704e-24)
(0.0290464 -1.80903e-05 -1.24694e-23)
(0.0290489 -4.11111e-05 7.90768e-24)
(0.0290512 -6.2279e-05 -5.9978e-25)
(0.0290534 -8.18103e-05 -5.68561e-25)
(0.0290553 -9.9887e-05 7.92908e-25)
(0.0290573 -0.000116665 -3.73987e-25)
(0.0296609 0.000302686 -5.84375e-24)
(0.029676 0.000256146 -1.44926e-23)
(0.0296882 0.000211741 5.17e-24)
(0.0296983 0.000170194 3.06159e-23)
(0.0297067 0.000131795 -9.20296e-24)
(0.0297139 9.64666e-05 -5.85163e-24)
(0.02972 6.4035e-05 3.79677e-24)
(0.029725 3.43551e-05 8.79332e-24)
(0.0297294 7.09801e-06 -1.51503e-23)
(0.0297329 -1.80382e-05 5.45445e-24)
(0.0297358 -4.13359e-05 4.66692e-25)
(0.029738 -6.29944e-05 4.82806e-25)
(0.0297397 -8.31671e-05 -1.1617e-24)
(0.029741 -0.000101996 2.23996e-24)
(0.029742 -0.000119607 -1.16963e-24)
(0.029495 0.000283677 9.55745e-24)
(0.029515 0.000240963 -2.28564e-23)
(0.0295315 0.000199879 2.98253e-24)
(0.0295453 0.000161079 4.05114e-23)
(0.029557 0.000124786 -4.19578e-23)
(0.0295669 9.10402e-05 1.7373e-23)
(0.0295755 5.97889e-05 1.91383e-23)
(0.0295831 3.07299e-05 -4.50481e-23)
(0.0295893 3.75443e-06 -9.70231e-25)
(0.0295943 -2.11961e-05 1.67407e-23)
(0.0295983 -4.43848e-05 5.29701e-24)
(0.0296016 -6.60641e-05 -3.9436e-24)
(0.0296043 -8.63817e-05 3.41421e-24)
(0.0296065 -0.000105449 -1.28892e-24)
(0.0296083 -0.000123371 4.28445e-25)
(0.0285878 0.000257645 6.08298e-24)
(0.0286115 0.000219344 -1.32399e-23)
(0.0286305 0.000182297 -1.06408e-23)
(0.0286456 0.000147022 4.99043e-23)
(0.0286577 0.000113775 -4.86407e-23)
(0.0286674 8.26003e-05 4.25117e-24)
(0.028675 5.3394e-05 9.13973e-24)
(0.0286808 2.60013e-05 6.23342e-24)
(0.0286856 4.06702e-07 7.4813e-24)
(0.0286896 -2.35309e-05 -4.12214e-23)
(0.0286921 -4.6041e-05 2.58416e-23)
(0.0286937 -6.72555e-05 -5.83591e-28)
(0.0286945 -8.72581e-05 1.61084e-23)
(0.0286948 -0.000106143 -7.54429e-24)
(0.0286945 -0.000123997 -1.77354e-24)
(0.0270549 0.000226681 1.53938e-23)
(0.0270829 0.000192986 -2.79443e-23)
(0.0271062 0.000160297 5.53483e-24)
(0.0271254 0.000129055 -1.63403e-23)
(0.0271414 9.94549e-05 -2.38413e-23)
(0.0271546 7.14813e-05 7.66107e-23)
(0.0271655 4.50845e-05 -3.16818e-23)
(0.0271746 2.02899e-05 9.98936e-24)
(0.0271817 -3.15667e-06 -5.98693e-24)
(0.0271872 -2.56051e-05 -1.86525e-23)
(0.0271911 -4.69895e-05 3.69521e-23)
(0.0271937 -6.72371e-05 -2.30842e-23)
(0.0271952 -8.63943e-05 2.65365e-24)
(0.0271959 -0.000104559 4.57429e-24)
(0.0271955 -0.000121799 -5.95743e-25)
(0.0252076 0.00019725 5.98685e-24)
(0.0252384 0.000167662 -3.22133e-23)
(0.0252644 0.000138874 5.80065e-23)
(0.0252859 0.0001112 -4.61276e-23)
(0.0253039 8.47771e-05 4.99016e-23)
(0.0253189 5.96145e-05 -1.55047e-23)
(0.0253311 3.56253e-05 -1.16236e-23)
(0.025341 1.26962e-05 -1.47014e-23)
(0.0253486 -9.19109e-06 2.97047e-23)
(0.0253544 -3.00924e-05 1.66509e-24)
(0.0253585 -4.99761e-05 -3.18037e-23)
(0.025361 -6.88405e-05 -5.40099e-24)
(0.0253622 -8.67431e-05 9.3605e-24)
(0.0253621 -0.000103753 -2.35751e-24)
(0.0253607 -0.000119903 5.74515e-25)
(0.0231869 0.000167444 8.01179e-25)
(0.0232198 0.000141733 -1.22256e-23)
(0.0232475 0.0001166 -7.78064e-24)
(0.0232706 9.22956e-05 6.06569e-23)
(0.0232897 6.89156e-05 -6.16984e-23)
(0.0233053 4.64461e-05 1.85488e-23)
(0.0233179 2.48762e-05 3.38277e-24)
(0.0233279 4.24955e-06 -1.9222e-24)
(0.0233354 -1.5457e-05 -1.01293e-23)
(0.0233407 -3.4275e-05 4.64293e-23)
(0.023344 -5.22065e-05 -3.80048e-23)
(0.0233454 -6.92786e-05 -2.37419e-24)
(0.0233451 -8.55212e-05 3.87344e-24)
(0.0233433 -0.000100958 4.35732e-24)
(0.0233399 -0.000115598 -3.51122e-24)
(0.0210944 0.0001386 1.19523e-24)
(0.0211279 0.000116597 1.14471e-23)
(0.0211561 9.50026e-05 -1.3052e-23)
(0.0211794 7.40114e-05 -9.87699e-24)
(0.0211985 5.37172e-05 6.56039e-23)
(0.0212138 3.41536e-05 -5.01495e-23)
(0.0212258 1.53849e-05 -8.19275e-25)
(0.0212348 -2.61099e-06 -1.1872e-23)
(0.0212411 -1.98939e-05 -1.36045e-24)
(0.0212449 -3.64304e-05 1.57826e-24)
(0.0212463 -5.22247e-05 -8.73504e-24)
(0.0212456 -6.72881e-05 6.082e-24)
(0.0212428 -8.16186e-05 1.97212e-24)
(0.0212382 -9.52183e-05 2.13597e-24)
(0.0212317 -0.000108087 3.47682e-24)
(0.0189981 0.000112175 8.51976e-24)
(0.0190308 9.37213e-05 -1.3233e-23)
(0.019058 7.55549e-05 -1.15772e-23)
(0.0190802 5.78529e-05 3.5538e-23)
(0.019098 4.06956e-05 -1.2684e-23)
(0.019112 2.41315e-05 -1.9712e-23)
(0.0191223 8.16366e-06 6.69804e-24)
(0.0191294 -7.2179e-06 1.71127e-23)
(0.0191336 -2.20082e-05 -2.89331e-23)
(0.019135 -3.61816e-05 3.01892e-23)
(0.0191338 -4.97293e-05 -1.72452e-23)
(0.0191302 -6.26417e-05 8.08204e-24)
(0.0191243 -7.49078e-05 -1.23077e-23)
(0.0191163 -8.65245e-05 1.30417e-23)
(0.0191063 -9.74856e-05 -3.51115e-24)
(0.0169435 8.90754e-05 -1.65147e-24)
(0.016974 7.39556e-05 -6.02821e-24)
(0.0169992 5.90452e-05 -2.00901e-23)
(0.0170194 4.44857e-05 5.62588e-23)
(0.0170352 3.03283e-05 -9.5261e-24)
(0.017047 1.6617e-05 -1.68251e-23)
(0.0170551 3.35581e-06 6.5585e-24)
(0.0170599 -9.48203e-06 -9.38145e-24)
(0.0170615 -2.1809e-05 -2.27233e-23)
(0.0170602 -3.36225e-05 2.17199e-23)
(0.0170562 -4.49128e-05 1.04917e-24)
(0.0170496 -5.56646e-05 -9.04831e-24)
(0.0170406 -6.58652e-05 1.02334e-23)
(0.0170293 -7.5506e-05 8.49772e-25)
(0.0170158 -8.45753e-05 -1.03597e-24)
(0.0149614 6.95923e-05 6.34232e-24)
(0.0149892 5.7507e-05 9.93706e-24)
(0.0150118 4.55675e-05 -8.70981e-24)
(0.0150296 3.3876e-05 -2.09647e-23)
(0.0150431 2.2465e-05 2.93884e-23)
(0.0150526 1.13868e-05 -3.34587e-23)
(0.0150585 6.46629e-07 -2.22226e-24)
(0.0150609 -9.76008e-06 1.36468e-23)
(0.0150602 -1.97577e-05 5.0927e-24)
(0.0150565 -2.9346e-05 -1.20829e-23)
(0.01505 -3.85095e-05 -1.07067e-24)
(0.0150409 -4.72311e-05 2.80428e-23)
(0.0150292 -5.54952e-05 -1.08665e-23)
(0.0150153 -6.32899e-05 -3.18665e-24)
(0.014999 -7.06016e-05 -2.35819e-25)
(0.0130733 5.35451e-05 -6.57302e-24)
(0.0130981 4.41273e-05 8.52138e-24)
(0.0131181 3.48087e-05 1.08997e-24)
(0.0131336 2.56539e-05 1.92681e-23)
(0.0131449 1.66897e-05 -1.5315e-23)
(0.0131524 7.95864e-06 1.69604e-24)
(0.0131563 -5.38861e-07 -1.44903e-24)
(0.0131569 -8.71847e-06 -5.46751e-24)
(0.0131543 -1.66131e-05 5.6462e-24)
(0.0131488 -2.41964e-05 -1.83568e-23)
(0.0131405 -3.14446e-05 5.8376e-25)
(0.0131296 -3.83401e-05 4.41203e-24)
(0.0131162 -4.4867e-05 3.12815e-24)
(0.0131004 -5.1013e-05 1.39188e-24)
(0.0130825 -5.67655e-05 6.34688e-25)
(0.011293 4.05247e-05 4.85763e-24)
(0.011315 3.33839e-05 -3.80119e-24)
(0.0113325 2.63108e-05 -1.80977e-23)
(0.0113459 1.93346e-05 1.70275e-23)
(0.0113554 1.24841e-05 2.57245e-23)
(0.0113613 5.79032e-06 -5.66583e-24)
(0.0113638 -7.16303e-07 -1.35656e-23)
(0.011363 -6.99968e-06 -2.11436e-23)
(0.0113593 -1.30753e-05 1.63626e-23)
(0.0113527 -1.89135e-05 1.23695e-24)
(0.0113434 -2.44947e-05 -4.19691e-24)
(0.0113316 -2.98033e-05 -1.4159e-24)
(0.0113173 -3.48251e-05 2.8444e-24)
(0.0113008 -3.95491e-05 4.20686e-27)
(0.0112822 -4.39639e-05 -7.17846e-25)
(0.00962839 3.00715e-05 -3.05073e-24)
(0.00964773 2.482e-05 -2.35863e-24)
(0.00966309 1.96132e-05 2.63484e-24)
(0.00967469 1.44542e-05 -9.46463e-24)
(0.00968276 9.37304e-06 3.14065e-23)
(0.00968747 4.40283e-06 -4.33561e-23)
(0.00968903 -4.34302e-07 4.42434e-23)
(0.0096876 -5.12043e-06 -1.92174e-23)
(0.00968334 -9.66197e-06 4.92284e-24)
(0.00967641 -1.40256e-05 4.6147e-25)
(0.00966692 -1.81984e-05 -3.92498e-24)
(0.00965502 -2.21684e-05 1.86697e-24)
(0.00964085 -2.59237e-05 -3.69406e-24)
(0.00962456 -2.94548e-05 -6.09637e-25)
(0.00960626 -3.2752e-05 3.32698e-25)
(0.00808276 2.17575e-05 -1.47954e-24)
(0.00809965 1.80278e-05 3.40486e-25)
(0.00811309 1.43261e-05 8.40068e-25)
(0.00812321 1.064e-05 -4.26382e-24)
(0.00813017 7.00024e-06 -2.18215e-24)
(0.00813413 3.43398e-06 1.77099e-23)
(0.00813523 -3.77485e-08 -1.05769e-23)
(0.0081336 -3.4103e-06 1.68801e-24)
(0.00812939 -6.69402e-06 -1.59717e-24)
(0.00812272 -9.84613e-06 -1.95275e-24)
(0.00811371 -1.28616e-05 -7.52844e-25)
(0.00810249 -1.57326e-05 4.24868e-24)
(0.00808916 -1.84497e-05 1.54219e-24)
(0.00807389 -2.1005e-05 -2.93374e-24)
(0.00805677 -2.33906e-05 -5.49703e-25)
(0.0066562 1.52181e-05 -5.37108e-25)
(0.00667081 1.26767e-05 -2.01955e-25)
(0.00668252 1.01528e-05 -9.2867e-24)
(0.00669136 7.62654e-06 2.16535e-24)
(0.00669746 5.12688e-06 -7.50367e-24)
(0.00670094 2.67061e-06 4.56642e-24)
(0.00670191 2.85503e-07 9.86109e-24)
(0.00670047 -2.041e-06 8.12115e-24)
(0.00669672 -4.32199e-06 -1.17799e-23)
(0.0066908 -6.50669e-06 3.57044e-24)
(0.00668277 -8.59745e-06 3.48558e-24)
(0.00667277 -1.05906e-05 -5.50299e-24)
(0.00666089 -1.2479e-05 2.96603e-24)
(0.00664726 -1.4256e-05 -4.13325e-25)
(0.00663198 -1.59157e-05 1.02426e-24)
(0.00534649 1.01565e-05 -2.10039e-24)
(0.00535893 8.51296e-06 -3.04229e-24)
(0.005369 6.88124e-06 -7.39013e-25)
(0.00537667 5.2402e-06 7.70609e-24)
(0.00538204 3.61387e-06 -5.76455e-24)
(0.0053852 2.01055e-06 -1.35453e-24)
(0.00538621 4.50746e-07 9.95609e-24)
(0.0053852 -1.05762e-06 2.6037e-25)
(0.00538218 -2.56639e-06 -2.02815e-24)
(0.00537728 -4.00367e-06 -8.83483e-24)
(0.00537058 -5.37848e-06 5.88684e-25)
(0.00536216 -6.69167e-06 6.817e-24)
(0.00535212 -7.93789e-06 -9.03791e-25)
(0.00534056 -9.11195e-06 -1.28375e-24)
(0.00532757 -1.02092e-05 8.95553e-25)
(0.00414981 6.33345e-06 -4.58419e-25)
(0.0041601 5.34232e-06 1.3081e-26)
(0.00416853 4.3615e-06 3.6451e-24)
(0.00417504 3.37136e-06 2.65379e-24)
(0.00417971 2.3889e-06 -1.58864e-24)
(0.00418258 1.41724e-06 -4.49909e-24)
(0.00418368 4.60332e-07 1.95649e-24)
(0.00418318 -4.37304e-07 -8.56339e-24)
(0.00418099 -1.36717e-06 6.72344e-24)
(0.00417725 -2.24936e-06 3.89553e-24)
(0.00417202 -3.09057e-06 2.8259e-25)
(0.00416537 -3.89615e-06 -4.65173e-24)
(0.00415737 -4.66208e-06 9.60778e-25)
(0.0041481 -5.38441e-06 -8.51997e-25)
(0.00413763 -6.05961e-06 4.59185e-25)
(0.00306112 3.55182e-06 -8.43028e-25)
(0.00306924 3.00957e-06 -9.15712e-27)
(0.00307598 2.47909e-06 2.90036e-24)
(0.00308127 1.94328e-06 -1.82356e-24)
(0.00308516 1.41137e-06 8.1088e-24)
(0.00308767 8.84276e-07 -1.50209e-23)
(0.00308882 3.59086e-07 1.26428e-23)
(0.00308874 -1.24402e-07 -1.09815e-23)
(0.00308738 -6.32987e-07 8.37501e-24)
(0.00308477 -1.11992e-06 -5.72785e-24)
(0.00308102 -1.58114e-06 2.02182e-24)
(0.00307614 -2.02393e-06 3.18873e-25)
(0.00307021 -2.44513e-06 6.2921e-25)
(0.00306328 -2.842e-06 -8.07081e-25)
(0.00305541 -3.21196e-06 1.89291e-25)
(0.00207459 1.65431e-06 1.27783e-24)
(0.00208047 1.39772e-06 1.46445e-24)
(0.00208542 1.15392e-06 -6.19833e-24)
(0.00208936 9.08947e-07 4.6404e-24)
(0.00209234 6.6794e-07 -3.32777e-27)
(0.00209437 4.29991e-07 1.3729e-24)
(0.00209544 1.92865e-07 -1.57609e-24)
(0.00209563 -2.43552e-08 -3.64021e-24)
(0.00209494 -2.54226e-07 3.71838e-24)
(0.00209335 -4.74491e-07 5.05214e-25)
(0.00209094 -6.81161e-07 -3.44942e-24)
(0.00208774 -8.78147e-07 1.2238e-24)
(0.00208378 -1.06605e-06 8.62546e-25)
(0.0020791 -1.24335e-06 -9.17984e-26)
(0.00207374 -1.40776e-06 -1.27057e-25)
(0.00118381 5.42746e-07 -1.28827e-24)
(0.00118737 4.62196e-07 4.0212e-24)
(0.00119041 3.87331e-07 2.59026e-24)
(0.00119287 3.08443e-07 -4.47336e-24)
(0.00119478 2.35423e-07 -5.33866e-25)
(0.00119614 1.6455e-07 -5.11137e-25)
(0.00119693 9.15176e-08 1.66371e-24)
(0.00119721 2.75507e-08 -2.87151e-24)
(0.00119697 -4.49752e-08 4.15399e-24)
(0.0011962 -1.13488e-07 -2.03591e-24)
(0.00119494 -1.77213e-07 -1.49516e-24)
(0.00119321 -2.32301e-07 9.56468e-25)
(0.00119102 -2.91402e-07 -1.35275e-24)
(0.0011884 -3.53942e-07 1.42387e-24)
(0.00118537 -4.16409e-07 -2.74993e-25)
(0.000382067 1.25244e-07 -9.18966e-27)
(0.000383235 1.74533e-07 7.88143e-25)
(0.00038425 2.12468e-07 9.57032e-25)
(0.000385085 2.35985e-07 -1.45159e-24)
(0.000385748 2.52147e-07 3.26436e-24)
(0.000386239 2.59345e-07 -3.52795e-24)
(0.000386548 2.55378e-07 2.52578e-25)
(0.000386689 2.44046e-07 2.22854e-24)
(0.000386665 2.23118e-07 -3.09321e-24)
(0.000386466 1.94979e-07 -6.62385e-25)
(0.000386104 1.61008e-07 2.46696e-24)
(0.000385583 1.25893e-07 -1.12272e-24)
(0.000384909 8.07272e-08 -5.06509e-25)
(0.000384089 2.63944e-08 4.36844e-25)
(0.00038313 -3.43855e-08 -2.27308e-26)
(0.000870943 -0.000215219 6.99821e-26)
(0.000999341 -0.000125962 1.73256e-24)
(0.00121705 -3.44759e-05 -4.89415e-24)
(0.00144096 4.18151e-05 6.93809e-24)
(0.00165837 0.000104745 -2.59939e-24)
(0.0018741 0.000154868 -2.38499e-24)
(0.00208827 0.000194192 2.66852e-24)
(0.00230155 0.000224296 -5.20658e-24)
(0.00251453 0.000246419 3.26942e-25)
(0.00272763 0.000261572 3.28388e-24)
(0.00294118 0.000270629 -6.40339e-25)
(0.00315553 0.000274371 7.10757e-25)
(0.00337116 0.000273463 -5.88112e-26)
(0.00358875 0.000268447 5.00711e-25)
(0.00380926 0.000259727 -1.84792e-24)
(0.00403395 0.000247589 1.03046e-24)
(0.00426461 0.00023222 -3.52773e-25)
(0.00450368 0.000213771 1.53063e-26)
(0.00475452 0.000192222 8.64644e-25)
(0.00502156 0.000167007 -5.44199e-25)
(0.00530968 0.000136228 6.44558e-26)
(0.00562256 9.5359e-05 -5.49637e-26)
(0.00593318 4.02837e-05 9.03538e-26)
(0.00620202 -2.69499e-05 3.00078e-25)
(0.00641756 -0.000102589 -5.40131e-25)
(0.00658101 -0.000182883 -2.6135e-25)
(0.00669489 -0.000265074 1.00144e-25)
(0.00676324 -0.00034756 4.77708e-25)
(0.00678979 -0.000428404 2.67836e-27)
(0.00677716 -0.000505082 1.12384e-25)
(0.00672714 -0.000574679 -1.81969e-24)
(0.00664108 -0.00063348 2.98029e-24)
(0.00652017 -0.000676825 -1.40283e-24)
(0.00636567 -0.000699116 -3.27961e-24)
(0.00617907 -0.000693841 3.25882e-24)
(0.00596208 -0.000653502 1.34027e-23)
(0.00571662 -0.000569329 -4.76508e-24)
(0.00544481 -0.000430525 2.07052e-24)
(0.00514918 -0.00022286 6.67513e-25)
(0.00483285 7.29424e-05 -1.54376e-23)
(0.00449879 0.000477421 -1.7831e-25)
(0.00415025 0.00100301 5.79858e-24)
(0.00376847 0.00160839 1.59616e-24)
(0.00336891 0.00213944 -7.88594e-24)
(0.00313987 0.00216783 -3.73898e-25)
(0.00165042 -0.00029244 -2.02938e-24)
(0.00170477 -0.000237762 -2.74163e-24)
(0.00184138 -0.000149707 5.80897e-24)
(0.00201338 -6.70676e-05 2.5511e-24)
(0.00219797 5.20574e-06 -8.90136e-24)
(0.00239072 6.4868e-05 9.31516e-24)
(0.00258795 0.000112931 -3.31303e-24)
(0.00278809 0.000150874 2.56829e-24)
(0.00299051 0.000180006 -3.40203e-24)
(0.00319492 0.000201435 3.37794e-26)
(0.00340123 0.000216122 -1.88225e-24)
(0.00360954 0.000224907 3.76928e-24)
(0.0038201 0.000228491 -2.14318e-24)
(0.00403344 0.000227446 -2.10104e-24)
(0.00425034 0.000222203 -1.57085e-24)
(0.00447191 0.000213069 2.73039e-24)
(0.00469969 0.000200244 -3.99472e-25)
(0.00493581 0.000183883 1.6107e-24)
(0.00518319 0.000163968 2.73664e-25)
(0.0054457 0.000139972 -4.99697e-25)
(0.00572754 0.000110149 -2.05198e-25)
(0.00603185 7.03425e-05 -1.09814e-25)
(0.00633238 1.6942e-05 4.95457e-25)
(0.00659169 -4.77272e-05 4.8641e-25)
(0.00679931 -0.000119956 -5.41841e-25)
(0.00695661 -0.000196094 -1.78024e-24)
(0.00706598 -0.000273492 2.08669e-24)
(0.00713131 -0.00035062 -1.05977e-24)
(0.00715628 -0.000425483 3.17542e-25)
(0.00714354 -0.000495435 2.53888e-25)
(0.00709499 -0.000557463 -3.07633e-24)
(0.00701222 -0.000607801 7.01753e-24)
(0.00689677 -0.000641787 -7.77483e-24)
(0.0067504 -0.000653867 1.88981e-23)
(0.00657527 -0.000637606 -2.61528e-23)
(0.00637409 -0.000585618 6.68947e-24)
(0.0061502 -0.000489301 2.19273e-23)
(0.00590794 -0.000338213 -6.91571e-24)
(0.0056533 -0.000118915 -1.58393e-23)
(0.00539536 0.000186332 -8.56882e-24)
(0.00514819 0.000598579 1.95061e-23)
(0.00493552 0.00113016 -1.80393e-23)
(0.00477672 0.0017424 -3.50137e-24)
(0.00471698 0.00227186 1.07352e-23)
(0.00476712 0.00225164 3.26529e-24)
(0.00257921 -0.000300092 -2.28948e-26)
(0.00258749 -0.000285928 -3.18736e-24)
(0.00264795 -0.000229393 6.12388e-24)
(0.00275833 -0.000157226 4.87989e-24)
(0.00289619 -8.59793e-05 -8.06386e-24)
(0.00305307 -2.25674e-05 1.75246e-25)
(0.00322246 3.10611e-05 7.43217e-25)
(0.00340044 7.5102e-05 7.9137e-24)
(0.0035848 0.0001103 -9.38124e-24)
(0.0037742 0.000137513 5.83476e-24)
(0.00396788 0.000157602 1.89634e-24)
(0.00416547 0.000171365 -1.0146e-23)
(0.00436688 0.000179478 3.68569e-24)
(0.00457237 0.000182502 1.5778e-24)
(0.0047825 0.000180873 -3.50689e-24)
(0.00499812 0.000174908 5.89162e-24)
(0.00522049 0.000164809 -4.2979e-24)
(0.0054514 0.000150731 -1.28947e-25)
(0.00569327 0.000132655 3.41395e-25)
(0.00594935 0.000110096 3.89806e-25)
(0.0062231 8.14516e-05 6.13461e-26)
(0.00651699 4.29442e-05 2.12452e-25)
(0.00680557 -8.5494e-06 -4.87524e-25)
(0.00705362 -7.04393e-05 1.36747e-24)
(0.00725175 -0.00013905 -1.91522e-24)
(0.00740152 -0.000210803 1.05616e-24)
(0.00750516 -0.000283149 -1.52937e-24)
(0.00756643 -0.000354644 1.98328e-24)
(0.00758898 -0.000423241 -3.63326e-25)
(0.00757553 -0.000486163 1.28095e-24)
(0.00752809 -0.000540304 2.25763e-24)
(0.00744851 -0.000581866 -8.09284e-24)
(0.0073387 -0.00060622 3.38308e-24)
(0.00720095 -0.000607925 9.69793e-24)
(0.00703816 -0.000580759 -2.21417e-23)
(0.00685407 -0.000517677 3.21606e-23)
(0.00665349 -0.000410656 -2.06132e-23)
(0.00644289 -0.000250327 2.59072e-23)
(0.00623141 -2.53342e-05 -4.81809e-23)
(0.00603306 0.000278107 1.80425e-23)
(0.00586935 0.000674677 5.91947e-24)
(0.00577397 0.00116833 8.71478e-24)
(0.00577829 0.00171464 -1.08222e-23)
(0.00591258 0.0021618 2.92064e-24)
(0.00609907 0.00213849 -1.75478e-24)
(0.00364222 -0.000283844 -8.48652e-25)
(0.00362499 -0.000294464 -1.26158e-24)
(0.00363631 -0.000268514 -5.33042e-24)
(0.00368747 -0.000218835 1.59644e-24)
(0.00377376 -0.000158666 1.03889e-24)
(0.00388618 -9.91302e-05 4.03287e-24)
(0.00401831 -4.51146e-05 -8.19014e-24)
(0.00416521 1.63015e-06 3.14783e-24)
(0.00432341 4.06881e-05 1.03777e-23)
(0.00449058 7.22483e-05 -2.71849e-24)
(0.00466522 9.6809e-05 -2.62093e-24)
(0.00484639 0.000114958 -4.33162e-25)
(0.00503356 0.000127237 1.50822e-24)
(0.00522664 0.00013413 -3.04098e-24)
(0.00542588 0.000136031 6.69242e-25)
(0.00563185 0.000133235 -3.26157e-25)
(0.00584547 0.000125929 -1.78072e-24)
(0.00606813 0.000114254 5.92536e-25)
(0.00630174 9.81851e-05 3.13616e-24)
(0.00654884 7.72704e-05 -3.78166e-25)
(0.00681208 5.00516e-05 -7.06238e-25)
(0.00709318 1.31255e-05 -1.7519e-25)
(0.00736751 -3.61617e-05 -8.54201e-25)
(0.00760217 -9.49844e-05 7.2755e-26)
(0.00778892 -0.000159703 -1.46168e-24)
(0.00792945 -0.000226779 2.78456e-24)
(0.00802585 -0.000293753 -1.51668e-24)
(0.00808177 -0.000359299 2.50428e-24)
(0.00810086 -0.000421324 -9.04752e-25)
(0.00808592 -0.000476929 6.67559e-25)
(0.00803911 -0.000522931 -9.70989e-25)
(0.0079625 -0.000555545 -3.53978e-25)
(0.00785841 -0.000570245 -4.05951e-25)
(0.00772969 -0.000561823 -2.49973e-24)
(0.00757997 -0.000524447 4.0214e-24)
(0.00741395 -0.0004517 -9.45099e-24)
(0.00723779 -0.000336587 4.12327e-23)
(0.00705971 -0.000171503 -2.21851e-23)
(0.00689103 5.17514e-05 -1.29845e-24)
(0.00674819 0.000341377 -4.0956e-23)
(0.00665452 0.000702989 3.07032e-23)
(0.00664233 0.00113061 -1.05534e-23)
(0.00673961 0.00158038 2.67906e-24)
(0.0069523 0.00194042 1.31092e-23)
(0.00720931 0.00198584 -3.2221e-24)
(0.00483611 -0.000257956 -3.49722e-24)
(0.00480875 -0.000281156 7.07676e-24)