/*--------------------------------*- C++ -*----------------------------------*\
| =========                 |                                                 |
| \\      /  F ield         | OpenFOAM: The Open Source CFD Toolbox           |
|  \\    /   O peration     | Version:  2312                                  |
|   \\  /    A nd           | Website:  www.openfoam.com                      |
|    \\/     M anipulation  |                                                 |
\*---------------------------------------------------------------------------*/
FoamFile
{
    version     2.0;
    format      ascii;
    arch        "LSB;label=32;scalar=64";
    class       volScalarField;
    location    "106";
    object      p;
}
// * * * * * * * * * * * * * * * * * * * * * * * * * * * * * * * * * * * * * //

dimensions      [0 2 -2 0 0 0 0];

internalField   nonuniform List<scalar> 
4800
(
-3.17371e-13
-9.81867e-07
-1.78567e-06
-2.46208e-06
-3.05627e-06
-3.58407e-06
-4.05374e-06
-4.47625e-06
-4.86096e-06
-5.21326e-06
-5.53721e-06
-5.83273e-06
-6.09127e-06
-6.55353e-06
-8.17723e-06
1.1041e-08
-9.70529e-07
-1.77417e-06
-2.4508e-06
-3.04574e-06
-3.57488e-06
-4.04665e-06
-4.47238e-06
-4.86231e-06
-5.22373e-06
-5.56543e-06
-5.90068e-06
-6.24123e-06
-6.69366e-06
-7.49828e-06
2.24756e-08
-9.58567e-07
-1.76214e-06
-2.43875e-06
-3.03349e-06
-3.5635e-06
-4.03686e-06
-4.46507e-06
-4.859e-06
-5.22672e-06
-5.57813e-06
-5.92688e-06
-6.27875e-06
-6.6382e-06
-6.97564e-06
3.39171e-08
-9.45975e-07
-1.74884e-06
-2.42535e-06
-3.01859e-06
-3.54898e-06
-4.02311e-06
-4.45212e-06
-4.84708e-06
-5.21522e-06
-5.56364e-06
-5.8971e-06
-6.20495e-06
-6.45243e-06
-6.56542e-06
4.66119e-08
-9.31402e-07
-1.73273e-06
-2.40943e-06
-2.99916e-06
-3.52882e-06
-4.00256e-06
-4.43005e-06
-4.82182e-06
-5.18291e-06
-5.51532e-06
-5.81401e-06
-6.05743e-06
-6.20443e-06
-6.19783e-06
6.20564e-08
-9.13321e-07
-1.71214e-06
-2.38802e-06
-2.97413e-06
-3.50036e-06
-3.97147e-06
-4.3941e-06
-4.77713e-06
-5.12254e-06
-5.42707e-06
-5.67931e-06
-5.85589e-06
-5.92543e-06
-5.85875e-06
8.27419e-08
-8.89305e-07
-1.68465e-06
-2.35746e-06
-2.94045e-06
-3.46037e-06
-3.92502e-06
-4.33825e-06
-4.70597e-06
-5.02723e-06
-5.29518e-06
-5.49685e-06
-5.61409e-06
-5.63032e-06
-5.5378e-06
1.1297e-07
-8.55304e-07
-1.64619e-06
-2.31422e-06
-2.89213e-06
-3.40346e-06
-3.85704e-06
-4.25539e-06
-4.60119e-06
-4.89155e-06
-5.1188e-06
-5.27263e-06
-5.34301e-06
-5.32603e-06
-5.22577e-06
1.59354e-07
-8.05154e-07
-1.59066e-06
-2.25234e-06
-2.8223e-06
-3.32198e-06
-3.75982e-06
-4.13773e-06
-4.45617e-06
-4.71189e-06
-4.89908e-06
-5.01232e-06
-5.04923e-06
-5.01405e-06
-4.91572e-06
2.30848e-07
-7.30389e-07
-1.50972e-06
-2.16335e-06
-2.7225e-06
-3.20692e-06
-3.62466e-06
-3.97753e-06
-4.26538e-06
-4.48626e-06
-4.63779e-06
-4.71968e-06
-4.73508e-06
-4.69231e-06
-4.60136e-06
3.38189e-07
-6.20572e-07
-1.393e-06
-2.03687e-06
-2.58251e-06
-3.04848e-06
-3.44272e-06
-3.76787e-06
-4.02474e-06
-4.2138e-06
-4.3364e-06
-4.39631e-06
-4.3999e-06
-4.35683e-06
-4.2764e-06
4.93341e-07
-4.63815e-07
-1.22861e-06
-1.86037e-06
-2.39107e-06
-2.83656e-06
-3.20578e-06
-3.50314e-06
-3.73152e-06
-3.89419e-06
-3.99557e-06
-4.04204e-06
-4.04132e-06
-4.00292e-06
-3.93483e-06
7.09915e-07
-2.46545e-07
-1.00332e-06
-1.62249e-06
-2.13657e-06
-2.56126e-06
-2.90649e-06
-3.17886e-06
-3.38376e-06
-3.52695e-06
-3.61493e-06
-3.65534e-06
-3.65613e-06
-3.6259e-06
-3.57135e-06
1.00429e-06
4.72863e-08
-6.99659e-07
-1.30811e-06
-1.80649e-06
-2.2124e-06
-2.53744e-06
-2.79037e-06
-2.97877e-06
-3.11021e-06
-3.19236e-06
-3.23319e-06
-3.24025e-06
-3.22106e-06
-3.18118e-06
1.39658e-06
4.35921e-07
-3.02364e-07
-9.00942e-07
-1.38671e-06
-1.77853e-06
-2.08985e-06
-2.33113e-06
-2.51146e-06
-2.63943e-06
-2.72317e-06
-2.77049e-06
-2.78828e-06
-2.78308e-06
-2.75953e-06
1.90943e-06
9.6081e-07
2.11611e-07
-3.83041e-07
-8.61836e-07
-1.24691e-06
-1.55327e-06
-1.79245e-06
-1.97421e-06
-2.10752e-06
-2.20047e-06
-2.2605e-06
-2.29391e-06
-2.30635e-06
-2.30186e-06
2.55722e-06
1.60581e-06
8.5736e-07
2.61414e-07
-2.18296e-07
-6.05973e-07
-9.17826e-07
-1.16567e-06
-1.35925e-06
-1.50734e-06
-1.61776e-06
-1.6975e-06
-1.75233e-06
-1.78727e-06
-1.80595e-06
3.35038e-06
2.40148e-06
1.64757e-06
1.04333e-06
5.53267e-07
1.51974e-07
-1.77031e-07
-4.45235e-07
-6.61896e-07
-8.35273e-07
-9.72712e-07
-1.08067e-06
-1.16447e-06
-1.22861e-06
-1.27649e-06
4.30391e-06
3.34939e-06
2.58606e-06
1.96684e-06
1.45604e-06
1.02948e-06
6.71564e-07
3.71404e-07
1.20302e-07
-8.93452e-08
-2.64234e-07
-4.10208e-07
-5.32158e-07
-6.34205e-07
-7.19596e-07
5.3668e-06
4.42961e-06
3.66024e-06
3.02098e-06
2.48108e-06
2.01958e-06
1.62269e-06
1.28039e-06
9.84594e-07
7.28349e-07
5.05649e-07
3.11281e-07
1.40806e-07
-9.51647e-09
-1.42805e-07
6.41978e-06
5.50745e-06
4.73473e-06
4.07283e-06
3.49862e-06
2.9959e-06
2.55313e-06
2.16144e-06
1.81358e-06
1.50347e-06
1.22584e-06
9.76121e-07
7.50349e-07
5.45191e-07
3.57794e-07
7.30936e-06
6.42089e-06
5.64821e-06
4.96818e-06
4.36474e-06
3.82604e-06
3.34256e-06
2.90649e-06
2.51141e-06
2.15198e-06
1.82356e-06
1.52217e-06
1.24433e-06
9.87183e-07
7.48255e-07
7.97187e-06
7.11041e-06
6.3433e-06
5.65448e-06
5.03254e-06
4.46841e-06
3.9542e-06
3.48321e-06
3.04992e-06
2.64974e-06
2.27871e-06
1.93345e-06
1.61105e-06
1.30913e-06
1.02561e-06
8.45373e-06
7.61938e-06
6.86249e-06
6.17218e-06
5.54002e-06
4.95884e-06
4.42218e-06
3.92452e-06
3.46124e-06
3.02848e-06
2.62294e-06
2.24183e-06
1.88278e-06
1.54384e-06
1.22328e-06
8.7915e-06
7.98424e-06
7.24132e-06
6.555e-06
5.91895e-06
5.3275e-06
4.77548e-06
4.2584e-06
3.7725e-06
3.31461e-06
2.88206e-06
2.47262e-06
2.0844e-06
1.71586e-06
1.36558e-06
9.02169e-06
8.24131e-06
7.51451e-06
6.83564e-06
6.20007e-06
5.60336e-06
5.0414e-06
4.51064e-06
4.00807e-06
3.53121e-06
3.07796e-06
2.64659e-06
2.23563e-06
1.84385e-06
1.47016e-06
9.17557e-06
8.42071e-06
7.71043e-06
7.04074e-06
6.40834e-06
5.80976e-06
5.24177e-06
4.70162e-06
4.18699e-06
3.696e-06
3.22706e-06
2.77884e-06
2.35023e-06
1.94032e-06
1.54827e-06
9.27652e-06
8.54508e-06
7.85074e-06
7.19089e-06
6.56318e-06
5.96487e-06
5.39349e-06
4.84699e-06
4.32367e-06
3.82215e-06
3.34124e-06
2.88001e-06
2.43765e-06
2.01356e-06
1.60713e-06
9.34154e-06
8.63115e-06
7.95168e-06
7.30161e-06
6.67919e-06
6.08231e-06
5.50918e-06
4.95837e-06
4.42868e-06
3.91916e-06
3.429e-06
2.95759e-06
2.50441e-06
2.06912e-06
1.65134e-06
9.38271e-06
8.69098e-06
8.02506e-06
7.38417e-06
6.76701e-06
6.17206e-06
5.59814e-06
5.04431e-06
4.50981e-06
3.99406e-06
3.49657e-06
3.01703e-06
2.55518e-06
2.11088e-06
1.68397e-06
9.40834e-06
8.733e-06
8.07917e-06
7.44659e-06
6.83433e-06
6.24142e-06
5.6672e-06
5.11114e-06
4.57286e-06
4.05208e-06
3.54862e-06
3.06243e-06
2.59345e-06
2.14175e-06
1.70733e-06
9.42406e-06
8.76304e-06
8.11987e-06
7.49462e-06
6.88674e-06
6.29576e-06
5.72144e-06
5.16361e-06
4.62219e-06
4.09721e-06
3.58875e-06
3.09695e-06
2.62197e-06
2.16405e-06
1.72334e-06
9.43363e-06
8.78508e-06
8.15121e-06
7.53233e-06
6.92827e-06
6.33899e-06
5.7646e-06
5.20524e-06
4.66112e-06
4.13252e-06
3.61973e-06
3.1231e-06
2.64297e-06
2.17971e-06
1.73362e-06
9.43952e-06
8.8018e-06
8.17599e-06
7.56259e-06
6.9618e-06
6.37396e-06
5.79945e-06
5.2387e-06
4.69217e-06
4.16035e-06
3.64374e-06
3.14287e-06
2.65821e-06
2.1903e-06
1.73953e-06
9.44327e-06
8.81498e-06
8.19613e-06
7.58742e-06
6.9894e-06
6.40271e-06
5.828e-06
5.26594e-06
4.7172e-06
4.18248e-06
3.66245e-06
3.15779e-06
2.66912e-06
2.19708e-06
1.74218e-06
9.44584e-06
8.82574e-06
8.21287e-06
7.60817e-06
7.01248e-06
6.4267e-06
5.8517e-06
5.28838e-06
4.7376e-06
4.20023e-06
3.67711e-06
3.16904e-06
2.67677e-06
2.20105e-06
1.74249e-06
9.44779e-06
8.83477e-06
8.22704e-06
7.62575e-06
7.032e-06
6.4469e-06
5.87156e-06
5.30703e-06
4.75436e-06
4.21458e-06
3.68865e-06
3.17751e-06
2.68202e-06
2.203e-06
1.74117e-06
9.44943e-06
8.84262e-06
8.23932e-06
7.64094e-06
7.04881e-06
6.46423e-06
5.88848e-06
5.32279e-06
4.76837e-06
4.22637e-06
3.69787e-06
3.18393e-06
2.68549e-06
2.20348e-06
1.73868e-06
9.45099e-06
8.84992e-06
8.25067e-06
7.65492e-06
7.06421e-06
6.48002e-06
5.90381e-06
5.33696e-06
4.78081e-06
4.23664e-06
3.70565e-06
3.189e-06
2.68772e-06
2.20283e-06
1.73518e-06
9.45245e-06
8.85672e-06
8.26129e-06
7.668e-06
7.07856e-06
6.49464e-06
5.91785e-06
5.34977e-06
4.79186e-06
4.24555e-06
3.71216e-06
3.19295e-06
2.68905e-06
2.20153e-06
1.73124e-06
-9.39991e-06
-6.99478e-06
-5.53721e-06
-4.56567e-06
-3.80043e-06
-3.22485e-06
-2.78903e-06
-2.45771e-06
-2.20554e-06
-2.01097e-06
-1.85484e-06
-1.71931e-06
-1.58707e-06
-1.44122e-06
-1.26522e-06
-1.04473e-06
-7.68985e-07
-4.38453e-07
-6.8129e-08
3.00045e-07
5.95054e-07
7.29609e-07
6.44539e-07
4.45702e-07
2.80983e-07
2.4357e-07
3.84411e-07
7.33093e-07
1.30619e-06
2.10938e-06
3.15378e-06
4.43739e-06
5.93538e-06
7.62742e-06
9.47311e-06
1.14231e-05
1.34184e-05
1.53909e-05
1.72596e-05
1.89234e-05
2.02403e-05
2.10106e-05
2.08006e-05
1.92408e-05
1.48006e-05
-7.76474e-06
-6.47915e-06
-5.35984e-06
-4.4877e-06
-3.76705e-06
-3.20596e-06
-2.77501e-06
-2.44551e-06
-2.19436e-06
-2.0008e-06
-1.8458e-06
-1.71146e-06
-1.58033e-06
-1.43546e-06
-1.26037e-06
-1.0408e-06
-7.66105e-07
-4.36828e-07
-6.75263e-08
3.00831e-07
5.98818e-07
7.414e-07
6.69521e-07
4.85424e-07
3.33604e-07
3.05854e-07
4.52448e-07
8.03289e-07
1.37463e-06
2.17073e-06
3.20236e-06
4.4663e-06
5.93345e-06
7.58179e-06
9.36753e-06
1.12366e-05
1.31234e-05
1.49496e-05
1.66181e-05
1.79992e-05
1.88971e-05
1.90011e-05
1.76984e-05
1.426e-05
7.52772e-06
-6.91232e-06
-6.08592e-06
-5.17804e-06
-4.39676e-06
-3.72567e-06
-3.18473e-06
-2.7614e-06
-2.43472e-06
-2.18464e-06
-1.99174e-06
-1.83737e-06
-1.70366e-06
-1.57311e-06
-1.42875e-06
-1.25419e-06
-1.0353e-06
-7.6161e-07
-4.33666e-07
-6.56847e-08
3.025e-07
6.03266e-07
7.54233e-07
6.96648e-07
5.28812e-07
3.91304e-07
3.74229e-07
5.26942e-07
8.79605e-07
1.44793e-06
2.23423e-06
3.24904e-06
4.48755e-06
5.91512e-06
7.50769e-06
9.21732e-06
1.09841e-05
1.27347e-05
1.43796e-05
1.58053e-05
1.6859e-05
1.7315e-05
1.68361e-05
1.4884e-05
1.10585e-05
5.12686e-06
-6.38151e-06
-5.76958e-06
-5.02751e-06
-4.31789e-06
-3.69398e-06
-3.17388e-06
-2.75768e-06
-2.43245e-06
-2.18167e-06
-1.98761e-06
-1.83223e-06
-1.69778e-06
-1.56671e-06
-1.42205e-06
-1.24745e-06
-1.02892e-06
-7.56136e-07
-4.29608e-07
-6.31656e-08
3.0465e-07
6.08148e-07
7.67928e-07
7.25729e-07
5.75631e-07
4.53963e-07
4.48965e-07
6.0883e-07
9.63914e-07
1.5293e-06
2.30317e-06
3.29998e-06
4.50797e-06
5.88802e-06
7.4133e-06
9.0309e-06
1.06743e-05
1.22623e-05
1.36949e-05
1.4847e-05
1.55556e-05
1.56008e-05
1.46985e-05
1.25003e-05
8.82217e-06
3.90176e-06
-5.9763e-06
-5.49632e-06
-4.88424e-06
-4.25869e-06
-3.67812e-06
-3.17835e-06
-2.76822e-06
-2.44231e-06
-2.1881e-06
-1.99007e-06
-1.83114e-06
-1.69377e-06
-1.56045e-06
-1.41418e-06
-1.23871e-06
-1.02012e-06
-7.48231e-07
-4.23455e-07
-5.91566e-08
3.07676e-07
6.1349e-07
7.82325e-07
7.56641e-07
6.25815e-07
5.21413e-07
5.29566e-07
6.96982e-07
1.05421e-06
1.61527e-06
2.37134e-06
3.34847e-06
4.5178e-06
5.83992e-06
7.2843e-06
8.79284e-06
1.02927e-05
1.16959e-05
1.28959e-05
1.37641e-05
1.41444e-05
1.38508e-05
1.26845e-05
1.04722e-05
7.20335e-06
3.18766e-06
-5.64049e-06
-5.25216e-06
-4.74343e-06
-4.2029e-06
-3.67395e-06
-3.19681e-06
-2.79364e-06
-2.46594e-06
-2.20598e-06
-2.00106e-06
-1.83556e-06
-1.69252e-06
-1.55461e-06
-1.40495e-06
-1.22738e-06
-1.0081e-06
-7.3705e-07
-4.14439e-07
-5.31166e-08
3.11846e-07
6.19243e-07
7.97138e-07
7.89006e-07
6.78948e-07
5.93139e-07
6.15301e-07
7.90169e-07
1.14903e-06
1.70072e-06
2.43669e-06
3.38893e-06
4.5096e-06
5.7616e-06
7.11007e-06
8.49212e-06
9.82982e-06
1.10311e-05
1.1989e-05
1.25809e-05
1.26722e-05
1.21259e-05
1.08287e-05
8.73211e-06
5.92768e-06
2.69799e-06
-5.33843e-06
-5.02074e-06
-4.60253e-06
-4.13357e-06
-3.66414e-06
-3.22061e-06
-2.82904e-06
-2.50099e-06
-2.23464e-06
-2.02093e-06
-1.84625e-06
-1.6947e-06
-1.54959e-06
-1.39441e-06
-1.21325e-06
-9.92478e-07
-7.22141e-07
-4.02136e-07
-4.48084e-08
3.17185e-07
6.25137e-07
8.1183e-07
8.22117e-07
7.34186e-07
6.68144e-07
7.04982e-07
8.86713e-07
1.24576e-06
1.77921e-06
2.50001e-06
3.41635e-06
4.47638e-06
5.6451e-06
6.88233e-06
8.12135e-06
9.28166e-06
1.02711e-05
1.09885e-05
1.13264e-05
1.11807e-05
1.04648e-05
9.1339e-06
7.21228e-06
4.82319e-06
2.19172e-06
-5.04905e-06
-4.78728e-06
-4.44521e-06
-4.04905e-06
-3.63381e-06
-3.23257e-06
-2.86321e-06
-2.53973e-06
-2.26882e-06
-2.04657e-06
-1.86156e-06
-1.69942e-06
-1.54478e-06
-1.38204e-06
-1.19579e-06
-9.72734e-07
-7.031e-07
-3.86275e-07
-3.41917e-08
3.2347e-07
6.30554e-07
8.25432e-07
8.54752e-07
7.90071e-07
7.44679e-07
7.96556e-07
9.84425e-07
1.33644e-06
1.85368e-06
2.55615e-06
3.42085e-06
4.40822e-06
5.48109e-06
6.59237e-06
7.67409e-06
8.6463e-06
9.42248e-06
9.91219e-06
1.00293e-05
9.70216e-06
8.8874e-06
7.58588e-06
5.8551e-06
3.81443e-06
1.63288e-06
-4.76141e-06
-4.54454e-06
-4.26489e-06
-3.93538e-06
-3.57836e-06
-3.21908e-06
-2.87922e-06
-2.57023e-06
-2.29903e-06
-2.07098e-06
-1.87682e-06
-1.70347e-06
-1.53797e-06
-1.36628e-06
-1.17389e-06
-9.48114e-07
-6.79544e-07
-3.66871e-07
-2.16773e-08
3.3012e-07
6.34328e-07
8.36304e-07
8.84906e-07
8.44236e-07
8.19896e-07
8.86404e-07
1.07921e-06
1.41804e-06
1.92327e-06
2.58945e-06
3.39089e-06
4.295e-06
5.25891e-06
6.23103e-06
7.14498e-06
7.92532e-06
8.49466e-06
8.77841e-06
8.71349e-06
8.25751e-06
7.39847e-06
6.16249e-06
4.61631e-06
2.862e-06
1.02303e-06
-4.46829e-06
-4.28825e-06
-4.05947e-06
-3.78772e-06
-3.48628e-06
-3.17302e-06
-2.86574e-06
-2.57684e-06
-2.3134e-06
-2.08462e-06
-1.88496e-06
-1.70147e-06
-1.52528e-06
-1.34453e-06
-1.14587e-06
-9.17787e-07
-6.51199e-07
-3.43872e-07
-8.4201e-09
3.35472e-07
6.34444e-07
8.41811e-07
9.09409e-07
8.92987e-07
8.89469e-07
9.67788e-07
1.16375e-06
1.4922e-06
1.97066e-06
2.58745e-06
3.31738e-06
4.12575e-06
4.96744e-06
5.78966e-06
6.52985e-06
7.12127e-06
7.49817e-06
7.60366e-06
7.39622e-06
6.85636e-06
5.99168e-06
4.83889e-06
3.46125e-06
1.94061e-06
3.66398e-07
-4.16337e-06
-4.01431e-06
-3.82736e-06
-3.60463e-06
-3.35342e-06
-3.08557e-06
-2.8148e-06
-2.54988e-06
-2.30162e-06
-2.07745e-06
-1.87612e-06
-1.68646e-06
-1.50174e-06
-1.31354e-06
-1.10991e-06
-8.81254e-07
-6.19049e-07
-3.17495e-07
6.8799e-09
3.34409e-07
6.27301e-07
8.37909e-07
9.23452e-07
9.30789e-07
9.46908e-07
1.035e-06
1.22936e-06
1.54295e-06
1.9843e-06
2.54095e-06
3.18763e-06
3.88766e-06
4.59572e-06
5.2609e-06
5.82776e-06
6.23925e-06
6.4438e-06
6.40131e-06
6.08798e-06
5.49992e-06
4.65491e-06
3.5911e-06
2.36288e-06
1.03361e-06
-3.31909e-07
-3.84078e-06
-3.71853e-06
-3.56661e-06
-3.38534e-06
-3.17828e-06
-2.95269e-06
-2.71762e-06
-2.48202e-06
-2.25472e-06
-2.04144e-06
-1.84172e-06
-1.65077e-06
-1.46272e-06
-1.27053e-06
-1.06472e-06
-8.38345e-07
-5.82873e-07
-2.93151e-07
1.87877e-08
3.25503e-07
6.08061e-07
8.18776e-07
9.2011e-07
9.49681e-07
9.83243e-07
1.07779e-06
1.26483e-06
1.55469e-06
1.94954e-06
2.43553e-06
2.98695e-06
3.56762e-06
4.13412e-06
4.64088e-06
5.04012e-06
5.28648e-06
5.34235e-06
5.18195e-06
4.79434e-06
4.18486e-06
3.37482e-06
2.39898e-06
1.30155e-06
1.30547e-07
-1.06687e-06
-3.49548e-06
-3.39712e-06
-3.27531e-06
-3.12957e-06
-2.96133e-06
-2.77477e-06
-2.57603e-06
-2.37188e-06
-2.1686e-06
-1.97072e-06
-1.77919e-06
-1.59226e-06
-1.40606e-06
-1.21497e-06
-1.01114e-06
-7.89785e-07
-5.46081e-07
-2.75234e-07
1.70334e-08
3.05145e-07
5.70592e-07
7.76561e-07
8.89991e-07
9.3884e-07
9.8638e-07
1.08241e-06
1.25522e-06
1.51147e-06
1.84962e-06
2.25465e-06
2.70087e-06
3.15419e-06
3.57728e-06
3.92964e-06
4.17273e-06
4.27322e-06
4.20566e-06
3.95524e-06
3.51932e-06
2.90762e-06
2.14094e-06
1.24863e-06
2.6529e-07
-7.73175e-07
-1.83231e-06
-3.12324e-06
-3.04701e-06
-2.95202e-06
-2.8376e-06
-2.70401e-06
-2.55347e-06
-2.38975e-06
-2.21742e-06
-2.04087e-06
-1.86349e-06
-1.68683e-06
-1.5106e-06
-1.33254e-06
-1.14895e-06
-9.54491e-07
-7.43481e-07
-5.16407e-07
-2.67994e-07
-1.79768e-09
2.62015e-07
5.05259e-07
7.00935e-07
8.21082e-07
8.84425e-07
9.40967e-07
1.03207e-06
1.18279e-06
1.39514e-06
1.66738e-06
1.98241e-06
2.31769e-06
2.64315e-06
2.92544e-06
3.13272e-06
3.23647e-06
3.21352e-06
3.04787e-06
2.73226e-06
2.26877e-06
1.66824e-06
9.48923e-07
1.34282e-07
-7.49322e-07
-1.67532e-06
-2.6185e-06
-2.72022e-06
-2.6657e-06
-2.59598e-06
-2.51045e-06
-2.40881e-06
-2.29208e-06
-2.16238e-06
-2.02259e-06
-1.8755e-06
-1.7232e-06
-1.56783e-06
-1.41003e-06
-1.24773e-06
-1.07912e-06
-9.00944e-07
-7.09614e-07
-5.03804e-07
-2.81713e-07
-4.80758e-08
1.84478e-07
4.00056e-07
5.78879e-07
6.98659e-07
7.69842e-07
8.28773e-07
9.06756e-07
1.0291e-06
1.18721e-06
1.38629e-06
1.60883e-06
1.83272e-06
2.03335e-06
2.18459e-06
2.26284e-06
2.24829e-06
2.12587e-06
1.8864e-06
1.52729e-06
1.05265e-06
4.72598e-07
-1.97977e-07
-9.41019e-07
-1.73691e-06
-2.56617e-06
-3.41039e-06
-2.28324e-06
-2.25173e-06
-2.20767e-06
-2.15063e-06
-2.08016e-06
-1.99655e-06
-1.9011e-06
-1.79514e-06
-1.68102e-06
-1.56021e-06
-1.43121e-06
-1.29773e-06
-1.1604e-06
-1.01656e-06
-8.62684e-07
-6.97559e-07
-5.21066e-07
-3.32956e-07
-1.3722e-07
5.7862e-08
2.39814e-07
3.94298e-07
5.04957e-07
5.75857e-07
6.30076e-07
6.8454e-07
7.6003e-07
8.72167e-07
9.97324e-07
1.1265e-06
1.24409e-06
1.33121e-06
1.36849e-06
1.33912e-06
1.23007e-06
1.03245e-06
7.41698e-07
3.57772e-07
-1.1489e-07
-6.67855e-07
-1.28958e-06
-1.9666e-06
-2.6846e-06
-3.42945e-06
-4.18774e-06
-1.81164e-06
-1.80625e-06
-1.79032e-06
-1.76361e-06
-1.72572e-06
-1.67671e-06
-1.61696e-06
-1.54749e-06
-1.46765e-06
-1.38087e-06
-1.29e-06
-1.19186e-06
-1.08774e-06
-9.75823e-07
-8.54488e-07
-7.24501e-07
-5.86181e-07
-4.39388e-07
-2.87267e-07
-1.35478e-07
7.06872e-09
1.29694e-07
2.20426e-07
2.79009e-07
3.2767e-07
3.48296e-07
3.90018e-07
4.41e-07
4.91904e-07
5.35187e-07
5.59419e-07
5.51012e-07
4.96397e-07
3.84042e-07
2.05723e-07
-4.33112e-08
-3.64735e-07
-7.57378e-07
-1.2173e-06
-1.73803e-06
-2.31106e-06
-2.92663e-06
-3.57444e-06
-4.24434e-06
-4.92661e-06
-1.31194e-06
-1.33757e-06
-1.35411e-06
-1.36155e-06
-1.35968e-06
-1.34846e-06
-1.32805e-06
-1.29888e-06
-1.26157e-06
-1.21761e-06
-1.16865e-06
-1.11165e-06
-1.04743e-06
-9.76055e-07
-8.97547e-07
-8.12135e-07
-7.19955e-07
-6.21354e-07
-5.18474e-07
-4.15412e-07
-3.17418e-07
-2.31801e-07
-1.72186e-07
-1.42176e-07
-1.36092e-07
-1.14117e-07
-1.09469e-07
-1.13899e-07
-1.27228e-07
-1.55199e-07
-2.0589e-07
-2.88001e-07
-4.10098e-07
-5.79651e-07
-8.01897e-07
-1.07948e-06
-1.41268e-06
-1.79986e-06
-2.23775e-06
-2.72161e-06
-3.24547e-06
-3.80253e-06
-4.38554e-06
-4.98724e-06
-5.60063e-06
-7.92804e-07
-8.57023e-07
-9.13117e-07
-9.61279e-07
-1.00159e-06
-1.03416e-06
-1.05914e-06
-1.07686e-06
-1.08767e-06
-1.09198e-06
-1.08988e-06
-1.08107e-06
-1.06597e-06
-1.04488e-06
-1.01775e-06
-9.84398e-07
-9.45007e-07
-9.00334e-07
-8.51396e-07
-8.01204e-07
-7.52824e-07
-7.10234e-07
-6.85168e-07
-6.768e-07
-6.83913e-07
-6.99457e-07
-7.33452e-07
-7.8167e-07
-8.43788e-07
-9.23987e-07
-1.02745e-06
-1.15917e-06
-1.32395e-06
-1.52621e-06
-1.76922e-06
-2.05468e-06
-2.38261e-06
-2.7516e-06
-3.15909e-06
-3.60165e-06
-4.07517e-06
-4.57508e-06
-5.09643e-06
-5.63417e-06
-6.18328e-06
-2.64268e-07
-3.77666e-07
-4.8366e-07
-5.82356e-07
-6.74016e-07
-7.58883e-07
-8.37135e-07
-9.08918e-07
-9.74365e-07
-1.0336e-06
-1.08676e-06
-1.13395e-06
-1.17531e-06
-1.21087e-06
-1.24048e-06
-1.26404e-06
-1.2817e-06
-1.2936e-06
-1.3007e-06
-1.30428e-06
-1.30643e-06
-1.31384e-06
-1.32503e-06
-1.33902e-06
-1.36152e-06
-1.40422e-06
-1.46502e-06
-1.54099e-06
-1.63294e-06
-1.74338e-06
-1.87506e-06
-2.03078e-06
-2.21332e-06
-2.42531e-06
-2.6688e-06
-2.9448e-06
-3.25323e-06
-3.59313e-06
-3.96283e-06
-4.36006e-06
-4.78206e-06
-5.22575e-06
-5.68787e-06
-6.16499e-06
-6.65359e-06
1.82865e-07
1.62336e-08
-1.43008e-07
-2.95119e-07
-4.40452e-07
-5.79275e-07
-7.11751e-07
-8.37972e-07
-9.57976e-07
-1.07179e-06
-1.17945e-06
-1.28096e-06
-1.37629e-06
-1.46533e-06
-1.54788e-06
-1.62376e-06
-1.69272e-06
-1.7548e-06
-1.81016e-06
-1.85876e-06
-1.90356e-06
-1.94716e-06
-1.98652e-06
-2.02482e-06
-2.07222e-06
-2.13319e-06
-2.20732e-06
-2.29514e-06
-2.39801e-06
-2.51734e-06
-2.6546e-06
-2.81159e-06
-2.99034e-06
-3.19269e-06
-3.42012e-06
-3.67345e-06
-3.95266e-06
-4.25703e-06
-4.58548e-06
-4.93662e-06
-5.30875e-06
-5.69987e-06
-6.1078e-06
-6.53024e-06
-6.96479e-06
5.22357e-07
3.05057e-07
9.53938e-08
-1.06828e-07
-3.01914e-07
-4.90083e-07
-6.71422e-07
-8.45918e-07
-1.01352e-06
-1.17417e-06
-1.32782e-06
-1.47437e-06
-1.61366e-06
-1.74545e-06
-1.86946e-06
-1.98534e-06
-2.0928e-06
-2.19151e-06
-2.28129e-06
-2.3629e-06
-2.43689e-06
-2.50341e-06
-2.56606e-06
-2.62719e-06
-2.69108e-06
-2.76006e-06
-2.83758e-06
-2.92619e-06
-3.02737e-06
-3.14231e-06
-3.27251e-06
-3.41971e-06
-3.58553e-06
-3.77119e-06
-3.9776e-06
-4.20533e-06
-4.45456e-06
-4.72503e-06
-5.01619e-06
-5.3272e-06
-5.65699e-06
-6.00426e-06
-6.36754e-06
-6.74526e-06
-7.13578e-06
7.55655e-07
4.94916e-07
2.42432e-07
-1.9102e-09
-2.38283e-07
-4.66763e-07
-6.87327e-07
-8.99892e-07
-1.10436e-06
-1.30061e-06
-1.48851e-06
-1.66787e-06
-1.83846e-06
-1.99999e-06
-2.15213e-06
-2.29451e-06
-2.42677e-06
-2.54858e-06
-2.65995e-06
-2.76116e-06
-2.85192e-06
-2.93404e-06
-3.0103e-06
-3.08153e-06
-3.14988e-06
-3.21973e-06
-3.29551e-06
-3.38002e-06
-3.47499e-06
-3.58196e-06
-3.70253e-06
-3.83821e-06
-3.99027e-06
-4.15972e-06
-4.34739e-06
-4.55384e-06
-4.77931e-06
-5.02378e-06
-5.28696e-06
-5.56845e-06
-5.86761e-06
-6.18359e-06
-6.5154e-06
-6.8619e-06
-7.22193e-06
9.16753e-07
6.20226e-07
3.32863e-07
5.467e-08
-2.14401e-07
-4.7433e-07
-7.25028e-07
-9.66355e-07
-1.19815e-06
-1.42024e-06
-1.63243e-06
-1.83451e-06
-2.02623e-06
-2.20732e-06
-2.37747e-06
-2.53633e-06
-2.68363e-06
-2.81914e-06
-2.94284e-06
-3.05481e-06
-3.1556e-06
-3.24772e-06
-3.3313e-06
-3.40605e-06
-3.47596e-06
-3.54605e-06
-3.62017e-06
-3.70102e-06
-3.79063e-06
-3.8908e-06
-4.00316e-06
-4.12914e-06
-4.2699e-06
-4.42638e-06
-4.59933e-06
-4.78933e-06
-4.9968e-06
-5.22198e-06
-5.46489e-06
-5.72533e-06
-6.00291e-06
-6.29706e-06
-6.6071e-06
-6.93225e-06
-7.27167e-06
1.02976e-06
7.04794e-07
3.90003e-07
8.54771e-08
-2.08736e-07
-4.92523e-07
-7.6571e-07
-1.02809e-06
-1.27945e-06
-1.5196e-06
-1.74834e-06
-1.96548e-06
-2.17078e-06
-2.36402e-06
-2.54497e-06
-2.71339e-06
-2.86913e-06
-3.01205e-06
-3.14233e-06
-3.26033e-06
-3.36718e-06
-3.46459e-06
-3.55153e-06
-3.62865e-06
-3.70031e-06
-3.77094e-06
-3.84401e-06
-3.9223e-06
-4.00807e-06
-4.10322e-06
-4.20937e-06
-4.32786e-06
-4.45988e-06
-4.60643e-06
-4.76837e-06
-4.94645e-06
-5.14121e-06
-5.35299e-06
-5.58193e-06
-5.82797e-06
-6.09095e-06
-6.37055e-06
-6.66634e-06
-6.97778e-06
-7.30424e-06
1.11125e-06
7.64041e-07
4.28012e-07
1.03341e-07
-2.09822e-07
-5.11273e-07
-8.00774e-07
-1.07809e-06
-1.343e-06
-1.59533e-06
-1.8349e-06
-2.06154e-06
-2.2751e-06
-2.47541e-06
-2.66236e-06
-2.83584e-06
-2.99585e-06
-3.14244e-06
-3.27606e-06
-3.39725e-06
-3.50714e-06
-3.6071e-06
-3.69624e-06
-3.77545e-06
-3.84871e-06
-3.9201e-06
-3.99292e-06
-4.06992e-06
-4.15337e-06
-4.24519e-06
-4.347e-06
-4.46028e-06
-4.58629e-06
-4.72614e-06
-4.88078e-06
-5.05098e-06
-5.23733e-06
-5.44026e-06
-5.66004e-06
-5.89682e-06
-6.15061e-06
-6.42126e-06
-6.70854e-06
-7.01205e-06
-7.33134e-06
1.17133e-06
8.06913e-07
4.54663e-07
1.14828e-07
-2.12367e-07
-5.26662e-07
-8.27786e-07
-1.1155e-06
-1.3896e-06
-1.64993e-06
-1.89634e-06
-2.12873e-06
-2.34699e-06
-2.55109e-06
-2.741e-06
-2.91677e-06
-3.07856e-06
-3.22664e-06
-3.36151e-06
-3.48409e-06
-3.5953e-06
-3.69661e-06
-3.78722e-06
-3.86808e-06
-3.9429e-06
-4.0154e-06
-4.08864e-06
-4.16526e-06
-4.24754e-06
-4.33745e-06
-4.43671e-06
-4.54684e-06
-4.66915e-06
-4.80481e-06
-4.9548e-06
-5.11995e-06
-5.30095e-06
-5.49837e-06
-5.7126e-06
-5.94392e-06
-6.19247e-06
-6.45824e-06
-6.7411e-06
-7.04081e-06
-7.35704e-06
1.21613e-06
8.38436e-07
4.73821e-07
1.22582e-07
-2.14999e-07
-5.38622e-07
-8.48004e-07
-1.14291e-06
-1.42315e-06
-1.68861e-06
-1.93917e-06
-2.17479e-06
-2.39547e-06
-2.60125e-06
-2.79225e-06
-2.96863e-06
-3.13072e-06
-3.27897e-06
-3.41396e-06
-3.53667e-06
-3.64824e-06
-3.75009e-06
-3.84155e-06
-3.92374e-06
-4.00002e-06
-4.0737e-06
-4.14765e-06
-4.22445e-06
-4.30638e-06
-4.39543e-06
-4.49335e-06
-4.60168e-06
-4.72179e-06
-4.85488e-06
-5.00202e-06
-5.16414e-06
-5.34202e-06
-5.53631e-06
-5.74752e-06
-5.97602e-06
-6.22204e-06
-6.48568e-06
-6.76693e-06
-7.06565e-06
-7.38158e-06
1.24927e-06
8.61215e-07
4.8707e-07
1.27166e-07
-2.18167e-07
-5.486e-07
-8.63847e-07
-1.16369e-06
-1.44797e-06
-1.71659e-06
-1.96952e-06
-2.20675e-06
-2.42837e-06
-2.63452e-06
-2.82544e-06
-3.0014e-06
-3.16288e-06
-3.31039e-06
-3.44477e-06
-3.56695e-06
-3.67825e-06
-3.78003e-06
-3.87185e-06
-3.95498e-06
-4.03242e-06
-4.10712e-06
-4.18182e-06
-4.25905e-06
-4.34105e-06
-4.4298e-06
-4.52704e-06
-4.63437e-06
-4.75321e-06
-4.88482e-06
-5.03034e-06
-5.19078e-06
-5.367e-06
-5.55972e-06
-5.76954e-06
-5.99692e-06
-6.24217e-06
-6.5055e-06
-6.78696e-06
-7.08649e-06
-7.40392e-06
1.27303e-06
8.76758e-07
4.95148e-07
1.28566e-07
-2.22619e-07
-5.58065e-07
-8.77499e-07
-1.18072e-06
-1.4676e-06
-1.73809e-06
-1.99218e-06
-2.22997e-06
-2.4516e-06
-2.65731e-06
-2.84742e-06
-3.02233e-06
-3.18261e-06
-3.32883e-06
-3.46216e-06
-3.58335e-06
-3.6939e-06
-3.79513e-06
-3.88686e-06
-3.97051e-06
-4.04871e-06
-4.12416e-06
-4.19949e-06
-4.27716e-06
-4.35934e-06
-4.448e-06
-4.54492e-06
-4.65169e-06
-4.7698e-06
-4.90057e-06
-5.0452e-06
-5.20477e-06
-5.38019e-06
-5.57229e-06
-5.78173e-06
-6.00903e-06
-6.25462e-06
-6.51874e-06
-6.80152e-06
-7.10296e-06
-7.42295e-06
1.28915e-06
8.86234e-07
4.98666e-07
1.26844e-07
-2.28836e-07
-5.6803e-07
-8.90481e-07
-1.19601e-06
-1.48453e-06
-1.756e-06
-2.0105e-06
-2.24817e-06
-2.46922e-06
-2.67397e-06
-2.86284e-06
-3.03632e-06
-3.19507e-06
-3.33979e-06
-3.47165e-06
-3.59151e-06
-3.70097e-06
-3.80127e-06
-3.89253e-06
-3.97627e-06
-4.05482e-06
-4.1307e-06
-4.20645e-06
-4.28442e-06
-4.36673e-06
-4.45535e-06
-4.55203e-06
-4.65844e-06
-4.77608e-06
-4.90634e-06
-5.05046e-06
-5.20958e-06
-5.38471e-06
-5.57672e-06
-5.78634e-06
-6.01417e-06
-6.26069e-06
-6.52622e-06
-6.81094e-06
-7.11489e-06
-7.438e-06
1.29912e-06
8.9072e-07
4.98292e-07
1.22269e-07
-2.36937e-07
-5.78993e-07
-9.03654e-07
-1.21077e-06
-1.50026e-06
-1.77216e-06
-2.02657e-06
-2.26369e-06
-2.48381e-06
-2.68732e-06
-2.8747e-06
-3.04653e-06
-3.20356e-06
-3.3466e-06
-3.47679e-06
-3.59512e-06
-3.70323e-06
-3.80233e-06
-3.89279e-06
-3.97626e-06
-4.05481e-06
-4.13081e-06
-4.20672e-06
-4.28478e-06
-4.3671e-06
-4.45558e-06
-4.55202e-06
-4.6581e-06
-4.77535e-06
-4.90521e-06
-5.04899e-06
-5.20788e-06
-5.38294e-06
-5.57512e-06
-5.7852e-06
-6.01386e-06
-6.26161e-06
-6.52884e-06
-6.81577e-06
-7.12248e-06
-7.44893e-06
1.30427e-06
8.91234e-07
4.94755e-07
1.15285e-07
-2.4676e-07
-5.91053e-07
-9.17366e-07
-1.22557e-06
-1.51562e-06
-1.78758e-06
-2.0416e-06
-2.27793e-06
-2.49692e-06
-2.69902e-06
-2.88479e-06
-3.05489e-06
-3.21012e-06
-3.35137e-06
-3.47981e-06
-3.59648e-06
-3.70309e-06
-3.80079e-06
-3.89022e-06
-3.97311e-06
-4.05136e-06
-4.12722e-06
-4.20304e-06
-4.281e-06
-4.36313e-06
-4.45136e-06
-4.54747e-06
-4.65317e-06
-4.77002e-06
-4.8995e-06
-5.04298e-06
-5.2017e-06
-5.37678e-06
-5.56921e-06
-5.77985e-06
-6.00942e-06
-6.2585e-06
-6.5275e-06
-6.8167e-06
-7.12621e-06
-7.45601e-06
1.30573e-06
8.88711e-07
4.88785e-07
1.0642e-07
-2.57966e-07
-6.04057e-07
-9.31641e-07
-1.2406e-06
-1.53094e-06
-1.80274e-06
-2.0562e-06
-2.29161e-06
-2.50939e-06
-2.71003e-06
-2.89416e-06
-3.06249e-06
-3.21591e-06
-3.35535e-06
-3.48203e-06
-3.59697e-06
-3.70201e-06
-3.79819e-06
-3.88642e-06
-3.96852e-06
-4.04623e-06
-4.12172e-06
-4.19725e-06
-4.27491e-06
-4.35671e-06
-4.44455e-06
-4.54023e-06
-4.64546e-06
-4.76185e-06
-4.89091e-06
-5.03407e-06
-5.19259e-06
-5.36767e-06
-5.56035e-06
-5.77154e-06
-6.00201e-06
-6.25238e-06
-6.52311e-06
-6.8145e-06
-7.12671e-06
-7.45973e-06
1.30447e-06
8.83977e-07
4.81065e-07
9.62185e-08
-2.70146e-07
-6.17721e-07
-9.4631e-07
-1.25582e-06
-1.54627e-06
-1.81778e-06
-2.07059e-06
-2.30504e-06
-2.52159e-06
-2.72078e-06
-2.90329e-06
-3.0699e-06
-3.22154e-06
-3.35919e-06
-3.48406e-06
-3.59735e-06
-3.70079e-06
-3.79542e-06
-3.88235e-06
-3.96349e-06
-4.04051e-06
-4.11547e-06
-4.19054e-06
-4.26775e-06
-4.34908e-06
-4.43641e-06
-4.53155e-06
-4.63623e-06
-4.75209e-06
-4.88068e-06
-5.02345e-06
-5.18174e-06
-5.35677e-06
-5.54964e-06
-5.76131e-06
-5.99259e-06
-6.24415e-06
-6.51648e-06
-6.80992e-06
-7.12465e-06
-7.46067e-06
1.30131e-06
8.77748e-07
4.72217e-07
8.52117e-08
-2.82854e-07
-6.31684e-07
-9.61091e-07
-1.271e-06
-1.56146e-06
-1.83263e-06
-2.08477e-06
-2.31826e-06
-2.5336e-06
-2.73139e-06
-2.91235e-06
-3.07732e-06
-3.22725e-06
-3.36319e-06
-3.48635e-06
-3.59803e-06
-3.69987e-06
-3.79293e-06
-3.87851e-06
-3.95863e-06
-4.03485e-06
-4.10917e-06
-4.18365e-06
-4.2603e-06
-4.34105e-06
-4.42779e-06
-4.52232e-06
-4.62638e-06
-4.74165e-06
-4.86971e-06
-5.01204e-06
-5.17002e-06
-5.34494e-06
-5.53792e-06
-5.74998e-06
-5.98196e-06
-6.23457e-06
-6.50834e-06
-6.80365e-06
-7.12068e-06
-7.45945e-06
1.29691e-06
8.70625e-07
4.62785e-07
7.38864e-08
-2.95659e-07
-6.45563e-07
-9.75651e-07
-1.28587e-06
-1.57628e-06
-1.84708e-06
-2.09855e-06
-2.33112e-06
-2.54532e-06
-2.74179e-06
-2.9213e-06
-3.08472e-06
-3.23305e-06
-3.36738e-06
-3.4889e-06
-3.59912e-06
-3.69937e-06
-3.79093e-06
-3.87517e-06
-3.95422e-06
-4.0296e-06
-4.1032e-06
-4.17703e-06
-4.25305e-06
-4.33316e-06
-4.41925e-06
-4.51311e-06
-4.61651e-06
-4.73115e-06
-4.85863e-06
-5.00047e-06
-5.15811e-06
-5.33284e-06
-5.52586e-06
-5.73821e-06
-5.97077e-06
-6.22429e-06
-6.49934e-06
-6.7963e-06
-7.11539e-06
-7.45664e-06
1.29164e-06
8.62921e-07
4.53018e-07
6.24383e-08
-3.08411e-07
-6.59249e-07
-9.89913e-07
-1.30037e-06
-1.5907e-06
-1.86111e-06
-2.11194e-06
-2.34364e-06
-2.55676e-06
-2.752e-06
-2.93015e-06
-3.09212e-06
-3.23895e-06
-3.37176e-06
-3.49176e-06
-3.60056e-06
-3.69934e-06
-3.78944e-06
-3.87235e-06
-3.95034e-06
-4.02484e-06
-4.09769e-06
-4.17082e-06
-4.24616e-06
-4.32559e-06
-4.41098e-06
-4.50414e-06
-4.60685e-06
-4.72082e-06
-4.84769e-06
-4.98901e-06
-5.14625e-06
-5.32075e-06
-5.51373e-06
-5.72628e-06
-5.95932e-06
-6.21362e-06
-6.48977e-06
-6.7882e-06
-7.10913e-06
-7.45262e-06
1.28548e-06
8.54436e-07
4.42577e-07
5.04095e-08
-3.21663e-07
-6.73366e-07
-1.00455e-06
-1.3152e-06
-1.60542e-06
-1.87544e-06
-2.12562e-06
-2.35644e-06
-2.5685e-06
-2.76252e-06