/*--------------------------------*- C++ -*----------------------------------*\
| =========                 |                                                 |
| \\      /  F ield         | OpenFOAM: The Open Source CFD Toolbox           |
|  \\    /   O peration     | Version:  2312                                  |
|   \\  /    A nd           | Website:  www.openfoam.com                      |
|    \\/     M anipulation  |                                                 |
\*---------------------------------------------------------------------------*/
FoamFile
{
    version     2.0;
    format      ascii;
    arch        "LSB;label=32;scalar=64";
    class       surfaceScalarField;
    location    "364";
    object      phi;
}
// * * * * * * * * * * * * * * * * * * * * * * * * * * * * * * * * * * * * * //

dimensions      [0 3 -1 0 0 0 0];

oriented        oriented;

internalField   nonuniform List<scalar> 
9445
(
1.11273e-10
1.41223e-12
1.10768e-10
5.04663e-13
1.1082e-10
-5.20388e-14
1.11271e-10
-4.504e-13
1.12028e-10
-7.57098e-13
1.13044e-10
-1.01672e-12
1.1431e-10
-1.266e-12
1.1586e-10
-1.54915e-12
1.17808e-10
-1.94822e-12
1.20454e-10
-2.64599e-12
1.24543e-10
-4.08893e-12
1.31974e-10
-7.43113e-12
1.47017e-10
-1.50428e-11
1.80143e-10
-3.31262e-11
-8.85154e-11
2.68658e-10
3.8978e-10
6.50646e-12
3.87819e-10
2.46544e-12
3.87792e-10
-2.47252e-14
3.89131e-10
-1.78996e-12
3.9152e-10
-3.14606e-12
3.94795e-10
-4.29141e-12
3.98923e-10
-5.39373e-12
4.04025e-10
-6.65159e-12
4.10484e-10
-8.40692e-12
4.19172e-10
-1.13338e-11
4.31872e-10
-1.6789e-11
4.51848e-10
-2.74072e-11
4.84328e-10
-4.75226e-11
5.35296e-10
-8.40949e-11
-1.45894e-10
5.92675e-10
7.71749e-10
1.68362e-11
7.67557e-10
6.65739e-12
7.67159e-10
3.73164e-13
7.69418e-10
-4.0488e-12
7.73705e-10
-7.43289e-12
7.79692e-10
-1.02791e-11
7.87306e-10
-1.30075e-11
7.96751e-10
-1.60965e-11
8.08648e-10
-2.03036e-11
8.24265e-10
-2.69513e-11
8.45734e-10
-3.82579e-11
8.75841e-10
-5.75142e-11
9.16658e-10
-8.83397e-11
9.65005e-10
-1.32442e-10
-1.84916e-10
1.00403e-09
1.28684e-09
3.44497e-11
1.27931e-09
1.41834e-11
1.27804e-09
1.64936e-12
1.2811e-09
-7.10826e-12
1.28744e-09
-1.37717e-11
1.29649e-09
-1.93355e-11
1.3081e-09
-2.46107e-11
1.32246e-09
-3.04646e-11
1.34029e-09
-3.81286e-11
1.3628e-09
-4.94664e-11
1.39157e-09
-6.70198e-11
1.4275e-09
-9.34471e-11
1.46893e-09
-1.29772e-10
1.50918e-09
-1.72687e-10
-2.12623e-10
1.53688e-09
1.97197e-09
6.20052e-11
1.95958e-09
2.65754e-11
1.95661e-09
4.62133e-12
1.96011e-09
-1.06088e-11
1.96844e-09
-2.2107e-11
1.98071e-09
-3.16027e-11
1.99654e-09
-4.04414e-11
2.01602e-09
-4.99409e-11
2.03962e-09
-6.17323e-11
2.06804e-09
-7.7889e-11
2.1016e-09
-1.00581e-10
2.13914e-09
-1.30985e-10
2.17687e-09
-1.67501e-10
2.20859e-09
-2.04406e-10
-2.32788e-10
2.22876e-09
2.87267e-09
1.02836e-10
2.85335e-09
4.58958e-11
2.84745e-09
1.05272e-11
2.85067e-09
-1.38323e-11
2.86061e-09
-3.20441e-11
2.87587e-09
-4.68609e-11
2.89573e-09
-6.03001e-11
2.91992e-09
-7.41356e-11
2.94841e-09
-9.02229e-11
2.98098e-09
-1.10455e-10
3.01656e-09
-1.3616e-10
3.05255e-09
-1.66978e-10
3.08483e-09
-1.99786e-10
3.10925e-09
-2.28826e-10
-2.47781e-10
3.12425e-09
4.04444e-09
1.60925e-10
4.01553e-09
7.48016e-11
4.00492e-09
2.11327e-11
4.00666e-09
-1.55726e-11
4.01732e-09
-4.27007e-11
4.03482e-09
-6.43628e-11
4.0579e-09
-8.33814e-11
4.08573e-09
-1.0196e-10
4.1175e-09
-1.21995e-10
4.15199e-09
-1.44945e-10
4.18707e-09
-1.71241e-10
4.21963e-09
-1.99539e-10
4.24633e-09
-2.26484e-10
4.26511e-09
-2.47608e-10
-2.59227e-10
4.27656e-09
5.5538e-09
2.4064e-10
5.51211e-09
1.16495e-10
5.49445e-09
3.87861e-11
5.49291e-09
-1.40283e-11
5.50278e-09
-5.25711e-11
5.5211e-09
-8.26888e-11
5.54588e-09
-1.08155e-10
5.57552e-09
-1.31597e-10
5.60839e-09
-1.54872e-10
5.64245e-09
-1.79003e-10
5.67505e-09
-2.03839e-10
5.70332e-09
-2.2781e-10
5.72507e-09
-2.48237e-10
5.73978e-09
-2.62314e-10
-2.68335e-10
5.74889e-09
7.4788e-09
3.46049e-10
7.42088e-09
1.74422e-10
7.39334e-09
6.63263e-11
7.38609e-09
-6.7875e-12
7.39299e-09
-5.94616e-11
7.40997e-09
-9.96785e-11
7.43417e-09
-1.32345e-10
7.46316e-09
-1.60592e-10
7.49461e-09
-1.86323e-10
7.52598e-09
-2.1037e-10
7.55463e-09
-2.32494e-10
7.57835e-09
-2.51525e-10
7.59597e-09
-2.65855e-10
7.60781e-09
-2.74161e-10
-2.76018e-10
7.6155e-09
9.90807e-09
4.79519e-10
9.83097e-09
2.51522e-10
9.79061e-09
1.06691e-10
9.77484e-09
8.97619e-12
9.77598e-09
-6.05958e-11
9.78882e-09
-1.1252e-10
9.80954e-09
-1.53067e-10
9.835e-09
-1.86054e-10
9.86237e-09
-2.13688e-10
9.88899e-09
-2.36989e-10
9.91258e-09
-2.5609e-10
9.93163e-09
-2.70573e-10
9.94569e-09
-2.79914e-10
9.95543e-09
-2.83898e-10
-2.82853e-10
9.96226e-09
1.29376e-08
6.39397e-10
1.28403e-08
3.48775e-10
1.2785e-08
1.62021e-10
1.27581e-08
3.59271e-11
1.27505e-08
-5.30269e-11
1.27561e-08
-1.18102e-10
1.27702e-08
-1.6717e-10
1.27891e-08
-2.05002e-10
1.28099e-08
-2.34433e-10
1.28299e-08
-2.5705e-10
1.28475e-08
-2.73664e-10
1.28616e-08
-2.84708e-10
1.28723e-08
-2.90555e-10
1.28801e-08
-2.91737e-10
-2.88989e-10
1.28863e-08
1.66643e-08
8.16912e-10
1.65501e-08
4.62999e-10
1.648e-08
2.32096e-10
1.64405e-08
7.5442e-11
1.64219e-08
-3.45033e-11
1.64176e-08
-1.13729e-10
1.64223e-08
-1.71859e-10
1.64321e-08
-2.14857e-10
1.64442e-08
-2.46472e-10
1.64562e-08
-2.69105e-10
1.64669e-08
-2.84375e-10
1.64757e-08
-2.93494e-10
1.64827e-08
-2.97507e-10
1.64883e-08
-2.97406e-10
-2.94131e-10
1.64935e-08
2.11764e-08
9.93551e-10
2.1055e-08
5.84377e-10
2.09748e-08
3.12284e-10
2.09243e-08
1.25949e-10
2.08946e-08
-4.8267e-12
2.08791e-08
-9.82546e-11
2.08729e-08
-1.6562e-10
2.08722e-08
-2.14152e-10
2.08744e-08
-2.48634e-10
2.08776e-08
-2.72356e-10
2.08809e-08
-2.87707e-10
2.0884e-08
-2.96531e-10
2.08868e-08
-3.00335e-10
2.08898e-08
-3.00383e-10
-2.97709e-10
2.08934e-08
2.65434e-08
1.14184e-09
2.64323e-08
6.95501e-10
2.63526e-08
3.92006e-10
2.62972e-08
1.81309e-10
2.62598e-08
3.26428e-11
2.62349e-08
-7.33998e-11
2.62186e-08
-1.4931e-10
2.62078e-08
-2.03381e-10
2.62005e-08
-2.41311e-10
2.61953e-08
-2.6716e-10
2.61915e-08
-2.83929e-10
2.61889e-08
-2.93914e-10
2.61875e-08
-2.98913e-10
2.61875e-08
-3.00338e-10
-2.99255e-10
2.6189e-08
3.28124e-08
1.23305e-09
3.2733e-08
7.74851e-10
3.26691e-08
4.55909e-10
3.26196e-08
2.30831e-10
3.25818e-08
7.04518e-11
3.25529e-08
-4.44837e-11
3.25305e-08
-1.26892e-10
3.25127e-08
-1.85646e-10
3.24984e-08
-2.27015e-10
3.24868e-08
-2.55548e-10
3.24775e-08
-2.74622e-10
3.24704e-08
-2.86782e-10
3.24654e-08
-2.93972e-10
3.24628e-08
-2.9766e-10
-2.98907e-10
3.24624e-08
4.00142e-08
1.25097e-09
3.99829e-08
8.06127e-10
3.9949e-08
4.89793e-10
3.9917e-08
2.62864e-10
3.98882e-08
9.92051e-11
3.98629e-08
-1.91365e-11
3.98406e-08
-1.04658e-10
3.98212e-08
-1.66204e-10
3.98043e-08
-2.10151e-10
3.979e-08
-2.41179e-10
3.97781e-08
-2.62762e-10
3.97688e-08
-2.77501e-10
3.97622e-08
-2.87345e-10
3.97583e-08
-2.93743e-10
-2.97714e-10
3.97571e-08
4.81687e-08
1.2015e-09
4.81866e-08
7.88148e-10
4.81873e-08
4.89118e-10
4.81786e-08
2.71572e-10
4.8165e-08
1.12792e-10
4.81492e-08
-3.28409e-12
4.81327e-08
-8.8142e-11
4.81165e-08
-1.50087e-10
4.81016e-08
-1.95194e-10
4.80883e-08
-2.27946e-10
4.80773e-08
-2.51676e-10
4.80686e-08
-2.68863e-10
4.80626e-08
-2.81353e-10
4.80594e-08
-2.90506e-10
-2.97264e-10
4.80589e-08
5.72466e-08
1.10597e-09
5.73004e-08
7.34363e-10
5.73278e-08
4.61709e-10
5.73385e-08
2.60947e-10
5.73385e-08
1.12708e-10
5.73323e-08
3.00802e-12
5.73224e-08
-7.83294e-11
5.73111e-08
-1.38761e-10
5.72997e-08
-1.83785e-10
5.72892e-08
-2.17479e-10
5.72804e-08
-2.42868e-10
5.72738e-08
-2.62201e-10
5.72696e-08
-2.77145e-10
5.7268e-08
-2.88922e-10
-2.9837e-10
5.72691e-08
6.70524e-08
9.83199e-10
6.71267e-08
6.60042e-10
6.71689e-08
4.19481e-10
6.71899e-08
2.4e-10
6.71969e-08
1.0565e-10
6.71952e-08
4.69512e-12
6.71884e-08
-7.15117e-11
6.7179e-08
-1.2937e-10
6.71689e-08
-1.73635e-10
6.71592e-08
-2.07846e-10
6.7151e-08
-2.34632e-10
6.71448e-08
-2.55945e-10
6.71408e-08
-2.73231e-10
6.71395e-08
-2.87553e-10
-2.99625e-10
6.71407e-08
7.70449e-08
8.39579e-10
7.71336e-08
5.71334e-10
7.7185e-08
3.68127e-10
7.72111e-08
2.13879e-10
7.72205e-08
9.62648e-11
7.72191e-08
6.05636e-12
7.72113e-08
-6.36485e-11
7.71999e-08
-1.18022e-10
7.71872e-08
-1.60934e-10
7.71746e-08
-1.95278e-10
7.71632e-08
-2.23212e-10
7.71536e-08
-2.46343e-10
7.71463e-08
-2.65864e-10
7.71414e-08
-2.82655e-10
-2.97299e-10
7.7139e-08
7.63527e-08
6.93443e-10
7.64448e-08
4.79199e-10
7.64993e-08
3.13662e-10
7.65278e-08
1.85416e-10
7.65386e-08
8.54603e-11
7.65377e-08
6.93761e-12
7.65294e-08
-5.53601e-11
7.65168e-08
-1.05388e-10
7.6502e-08
-1.46133e-10
7.64865e-08
-1.79839e-10
7.64715e-08
-2.08189e-10
7.64576e-08
-2.32445e-10
7.64453e-08
-2.53549e-10
7.64348e-08
-2.72197e-10
-2.88855e-10
7.64264e-08
6.52479e-08
5.62862e-10
6.53331e-08
3.94026e-10
6.53857e-08
2.61039e-10
6.54152e-08
1.55876e-10
6.54286e-08
7.20905e-11
6.54309e-08
4.6994e-12
6.54256e-08
-5.01299e-11
6.54156e-08
-9.5338e-11
6.54026e-08
-1.33166e-10
6.53881e-08
-1.65312e-10
6.53729e-08
-1.93056e-10
6.53579e-08
-2.17366e-10
6.53433e-08
-2.38962e-10
6.53295e-08
-2.58383e-10
-2.7599e-10
6.53166e-08
5.466e-08
4.47454e-10
5.47381e-08
3.15926e-10
5.47888e-08
2.10391e-10
5.48194e-08
1.25251e-10
5.48355e-08
5.59705e-11
5.48412e-08
-1.00215e-12
5.48395e-08
-4.8434e-11
5.48327e-08
-8.84668e-11
5.48222e-08
-1.22742e-10
5.48094e-08
-1.52511e-10
5.47951e-08
-1.78723e-10
5.47798e-08
-2.02095e-10
5.4764e-08
-2.23167e-10
5.4748e-08
-2.42337e-10
-2.59877e-10
5.47319e-08
4.50845e-08
3.47531e-10
4.51543e-08
2.46194e-10
4.52012e-08
1.63416e-10
4.52312e-08
9.53327e-11
4.52483e-08
3.88101e-11
4.5256e-08
-8.63263e-12
4.52565e-08
-4.89556e-11
4.52517e-08
-8.36855e-11
4.52429e-08
-1.13997e-10
4.52312e-08
-1.4079e-10
4.52173e-08
-1.64748e-10
4.52015e-08
-1.8639e-10
4.51845e-08
-2.06103e-10
4.51663e-08
-2.24174e-10
-2.40795e-10
4.51472e-08
3.67158e-08
2.63295e-10
3.67759e-08
1.86118e-10
3.68173e-08
1.21962e-10
3.68444e-08
6.81974e-11
3.68605e-08
2.27109e-11
3.68681e-08
-1.61916e-11
3.6869e-08
-4.98694e-11
3.68647e-08
-7.93866e-11
3.68563e-08
-1.05563e-10
3.68445e-08
-1.29027e-10
3.683e-08
-1.50258e-10
3.68133e-08
-1.69616e-10
3.67945e-08
-1.87374e-10
3.67741e-08
-2.03728e-10
-2.18804e-10
3.67521e-08
2.95719e-08
1.94477e-10
2.96216e-08
1.36422e-10
2.96562e-08
8.73135e-11
2.9679e-08
4.5402e-11
2.96924e-08
9.31035e-12
2.96983e-08
-2.20879e-11
2.96981e-08
-4.97136e-11
2.9693e-08
-7.42889e-11
2.96838e-08
-9.63698e-11
2.96712e-08
-1.16383e-10
2.96556e-08
-1.34652e-10
2.96374e-08
-1.51422e-10
2.96169e-08
-1.66873e-10
2.95943e-08
-1.81136e-10
-1.94288e-10
2.95698e-08
2.35772e-08
1.40106e-10
2.36167e-08
9.69977e-11
2.36441e-08
5.98883e-11
2.36618e-08
2.7652e-11
2.36717e-08
-5.68525e-13
2.36751e-08
-2.5499e-11
2.36732e-08
-4.77462e-11
2.36667e-08
-6.77862e-11
2.36563e-08
-8.59843e-11
2.36425e-08
-1.0262e-10
2.36258e-08
-1.17907e-10
2.36064e-08
-1.32002e-10
2.35845e-08
-1.45021e-10
2.35604e-08
-1.57047e-10
-1.68123e-10
2.35342e-08
1.86137e-08
9.85393e-11
1.86437e-08
6.69611e-11
1.86643e-08
3.92914e-11
1.86771e-08
1.48428e-11
1.86835e-08
-6.88534e-12
1.86843e-08
-2.6344e-11
1.86805e-08
-4.39209e-11
1.86726e-08
-5.99198e-11
1.86612e-08
-7.45725e-11
1.86466e-08
-8.80563e-11
1.86292e-08
-1.00505e-10
1.86093e-08
-1.12016e-10
1.85869e-08
-1.22661e-10
1.85623e-08
-1.32489e-10
-1.41519e-10
1.85357e-08
1.45491e-08
6.772e-11
1.45712e-08
4.49175e-11
1.45859e-08
2.45781e-11
1.45944e-08
6.31459e-12
1.45977e-08
-1.01372e-11
1.45964e-08
-2.50477e-11
1.45911e-08
-3.86569e-11
1.45824e-08
-5.11513e-11
1.45705e-08
-6.26725e-11
1.45557e-08
-7.33282e-11
1.45384e-08
-8.31984e-11
1.45187e-08
-9.23413e-11
1.44969e-08
-1.00798e-10
1.4473e-08
-1.08594e-10
-1.15737e-10
1.44472e-08
1.12531e-08
4.54914e-11
1.12687e-08
2.92822e-11
1.12787e-08
1.45657e-11
1.12839e-08
1.15372e-12
1.12848e-08
-1.10713e-11
1.1282e-08
-2.22662e-11
1.12759e-08
-3.25745e-11
1.12669e-08
-4.21055e-11
1.12552e-08
-5.09421e-11
1.1241e-08
-5.91462e-11
1.12245e-08
-6.67632e-11
1.1206e-08
-7.38252e-11
1.11856e-08
-8.03536e-11
1.11633e-08
-8.63609e-11
-9.18473e-11
1.11395e-08
8.60399e-09
2.98495e-11
8.61474e-09
1.85325e-11
8.62123e-09
8.07988e-12
8.62396e-09
-1.57345e-12
8.62335e-09
-1.04615e-11
8.61975e-09
-1.86735e-11
8.61347e-09
-2.62915e-11
8.60474e-09
-3.33764e-11
8.59377e-09
-3.99737e-11
8.58074e-09
-4.61169e-11
8.56581e-09
-5.18296e-11
8.54911e-09
-5.71277e-11
8.53078e-09
-6.2021e-11
8.51093e-09
-6.65142e-11
-7.06039e-11
8.48969e-09
6.49303e-09
1.90865e-11
6.50021e-09
1.13545e-11
6.50419e-09
4.09737e-12
6.5053e-09
-2.68175e-12
6.50382e-09
-8.97634e-12
6.49998e-09
-1.48369e-11
6.494e-09
-2.03079e-11
6.48604e-09
-2.54209e-11
6.47627e-09
-3.01989e-11
6.46481e-09
-3.46582e-11
6.45179e-09
-3.88094e-11
6.43732e-09
-4.26593e-11
6.42151e-09
-4.62109e-11
6.40446e-09
-4.94648e-11
-5.24165e-11
6.38627e-09
4.82483e-09
1.18369e-11
4.82948e-09
6.69707e-12
4.83178e-09
1.80334e-12
4.83191e-09
-2.81111e-12
4.83006e-09
-7.1257e-12
4.82639e-09
-1.11697e-11
4.82105e-09
-1.49652e-11
4.81415e-09
-1.85269e-11
4.80582e-09
-2.18651e-11
4.79615e-09
-2.49862e-11
4.78523e-09
-2.78937e-11
4.77316e-09
-3.05895e-11
4.76002e-09
-3.30734e-11
4.7459e-09
-3.53438e-11
-3.73967e-11
4.73088e-09
3.51748e-09
7.06011e-12
3.52041e-09
3.76477e-12
3.52163e-09
5.9078e-13
3.52124e-09
-2.42399e-12
3.51937e-09
-5.25905e-12
3.51614e-09
-7.93203e-12
3.51162e-09
-1.04524e-11
3.50592e-09
-1.28259e-11
3.49911e-09
-1.50559e-11
3.49127e-09
-1.71439e-11
3.48247e-09
-1.90899e-11
3.47277e-09
-2.08937e-11
3.46225e-09
-2.25535e-11
3.45097e-09
-2.40672e-11
-2.54315e-11
3.43901e-09
2.50175e-09
3.99117e-12
2.50353e-09
1.98148e-12
2.50409e-09
3.1654e-14
2.50349e-09
-1.83007e-12
2.50182e-09
-3.58925e-12
2.49915e-09
-5.25667e-12
2.49553e-09
-6.8353e-12
2.49103e-09
-8.32654e-12
2.48571e-09
-9.73056e-12
2.47961e-09
-1.10468e-11
2.47279e-09
-1.2274e-11
2.46531e-09
-1.3411e-11
2.45721e-09
-1.4456e-11
2.44855e-09
-1.54068e-11
-1.62607e-11
2.43938e-09
1.7198e-09
2.08333e-12
1.72083e-09
9.44168e-13
1.72103e-09
-1.61396e-13
1.72042e-09
-1.22041e-12
1.71905e-09
-2.22534e-12
1.71698e-09
-3.18255e-12
1.71424e-09
-4.09212e-12
1.71086e-09
-4.95374e-12
1.7069e-09
-5.76649e-12
1.70238e-09
-6.5292e-12
1.69735e-09
-7.24052e-12
1.69184e-09
-7.89929e-12
1.68588e-09
-8.50412e-12
1.67953e-09
-9.05307e-12
-9.54394e-12
1.67281e-09
1.12389e-09
9.54082e-13
1.12446e-09
3.79029e-13
1.12447e-09
-1.72073e-13
1.12395e-09
-7.00654e-13
1.12292e-09
-1.2044e-12
1.12143e-09
-1.68653e-12
1.11948e-09
-2.14628e-12
1.11711e-09
-2.58292e-12
1.11434e-09
-2.99551e-12
1.1112e-09
-3.38306e-12
1.1077e-09
-3.74457e-12
1.10388e-09
-4.07922e-12
1.09976e-09
-4.38617e-12
1.09537e-09
-4.66401e-12
-4.91077e-12
1.09074e-09
6.74984e-10
3.40077e-13
6.75259e-10
1.04609e-13
6.75198e-10
-1.117e-13
6.74817e-10
-3.19099e-13
6.7413e-10
-5.17938e-13
6.73153e-10
-7.09247e-13
6.71899e-10
-8.92363e-13
6.70383e-10
-1.06673e-12
6.68619e-10
-1.23176e-12
6.66623e-10
-1.38689e-12
6.6441e-10
-1.5316e-12
6.61996e-10
-1.66546e-12
6.59398e-10
-1.78812e-12
6.56633e-10
-1.89874e-12
-1.99563e-12
6.53718e-10
3.41421e-10
6.21053e-14
3.41522e-10
3.1395e-15
3.41454e-10
-4.34522e-14
3.41223e-10
-8.82354e-14
3.40837e-10
-1.31779e-13
3.40302e-10
-1.74055e-13
3.39624e-10
-2.14761e-13
3.38811e-10
-2.53652e-13
3.3787e-10
-2.90516e-13
3.36808e-10
-3.2517e-13
3.35634e-10
-3.57462e-13
3.34356e-10
-3.87263e-13
3.32982e-10
-4.14519e-13
3.31522e-10
-4.38917e-13
-4.59285e-13
3.29986e-10
9.77195e-11
9.77226e-11
9.76792e-11
9.75909e-11
9.74591e-11
9.72851e-11
9.70703e-11
9.68167e-11
9.65262e-11
9.6201e-11
9.58435e-11
9.54563e-11
9.50417e-11
9.46028e-11
9.41435e-11
3.24259e-10
-2.16634e-10
1.61033e-10
4.01739e-10
-2.48923e-10
1.71444e-10
4.83824e-10
-2.4999e-10
1.67905e-10
5.66962e-10
-2.40818e-10
1.57679e-10
6.50336e-10
-2.26201e-10
1.42827e-10
7.3406e-10
-2.08689e-10
1.24965e-10
8.18525e-10
-1.89594e-10
1.05129e-10
9.04127e-10
-1.6994e-10
8.43376e-11
9.91212e-10
-1.50793e-10
6.37084e-11
1.08006e-09
-1.3337e-10
4.45239e-11
1.17087e-09
-1.1909e-10
2.82771e-11
1.26378e-09
-1.09599e-10
1.66884e-11
1.35884e-09
-1.06758e-10
1.16953e-11
1.45603e-09
-1.12596e-10
1.54056e-11
1.55526e-09
-1.29229e-10
3.00073e-11
1.65634e-09
-1.58733e-10
5.7646e-11
1.75907e-09
-2.03032e-10
1.00306e-10
1.86314e-09
-2.63919e-10
1.59844e-10
1.96816e-09
-3.43411e-10
2.38392e-10
2.07346e-09
-4.45036e-10
3.39735e-10
2.17769e-09
-5.76702e-10
4.72474e-10
2.27798e-09
-7.55832e-10
6.55544e-10
2.35689e-09
-8.6268e-10
7.83769e-10
2.41065e-09
-9.26947e-10
8.73183e-10
2.44153e-09
-9.82243e-10
9.51365e-10
2.45172e-09
-1.0151e-09
1.00491e-09
2.44356e-09
-1.0139e-09
1.02206e-09
2.41956e-09
-9.71184e-10
9.9518e-10
2.38228e-09
-8.84011e-10
9.21297e-10
2.33417e-09
-7.53374e-10
8.01482e-10
2.27752e-09
-5.83045e-10
6.39696e-10
2.21433e-09
-3.78451e-10
4.41638e-10
2.14625e-09
-1.45836e-10
2.13918e-10
2.07443e-09
1.08073e-10
-3.62491e-11
1.99933e-09
3.75868e-10
-3.00773e-10
1.92055e-09
6.4885e-10
-5.70073e-10
1.83664e-09
9.16353e-10
-8.3244e-10
1.74511e-09
1.16538e-09
-1.07385e-09
1.6427e-09
1.38086e-09
-1.27845e-09
1.52598e-09
1.54645e-09
-1.42973e-09
1.39215e-09
1.64565e-09
-1.51182e-09
1.24046e-09
1.66212e-09
-1.51043e-09
1.07407e-09
1.5782e-09
-1.4118e-09
9.04695e-10
1.37124e-09
-1.20187e-09
9.86034e-10
7.59255e-10
-8.40593e-10
6.23276e-10
-2.47235e-10
6.7416e-10
-2.99807e-10
7.41731e-10
-3.17562e-10
8.18775e-10
-3.17861e-10
9.01286e-10
-3.08711e-10
9.87334e-10
-2.94737e-10
1.07613e-09
-2.78389e-10
1.16741e-09
-2.61222e-10
1.26115e-09
-2.44535e-10
1.35741e-09
-2.29628e-10
1.45625e-09
-2.17933e-10
1.55772e-09
-2.11068e-10
1.66181e-09
-2.10843e-10
1.76844e-09
-2.19225e-10
1.87747e-09
-2.38258e-10
1.98869e-09
-2.69954e-10
2.10182e-09
-3.16168e-10
2.21653e-09
-3.78621e-10
2.33231e-09
-4.59197e-10
2.44841e-09
-5.61135e-10
2.56328e-09
-6.91575e-10
2.67374e-09
-8.66291e-10
2.76069e-09
-9.49623e-10
2.82003e-09
-9.86295e-10
2.85433e-09
-1.01654e-09
2.86606e-09
-1.02683e-09
2.85787e-09
-1.00571e-09
2.83256e-09
-9.45875e-10
2.793e-09
-8.44458e-10
2.74199e-09
-7.02366e-10
2.68214e-09
-5.23188e-10
2.61577e-09
-3.12084e-10
2.54489e-09
-7.4958e-11
2.47105e-09
1.81911e-10
2.3952e-09
4.51718e-10
2.3175e-09
7.26554e-10
2.23718e-09
9.96675e-10
2.15261e-09
1.24996e-09
2.06166e-09
1.4718e-09
1.96259e-09
1.64553e-09
1.85534e-09
1.75291e-09
1.74333e-09
1.77412e-09
1.63478e-09
1.68675e-09
1.54012e-09
1.46591e-09
1.08977e-09
1.43638e-09
1.02379e-09
-2.66994e-10
1.05605e-09
-3.32069e-10
1.10657e-09
-3.68084e-10
1.17207e-09
-3.83363e-10
1.24842e-09
-3.85062e-10
1.33248e-09
-3.78795e-10
1.4223e-09
-3.6821e-10
1.51679e-09
-3.55707e-10
1.61534e-09
-3.43091e-10
1.71765e-09
-3.31938e-10
1.82354e-09
-3.23819e-10
1.93287e-09
-3.204e-10
2.04551e-09
-3.23488e-10
2.16131e-09
-3.35017e-10
2.28003e-09
-3.56977e-10
2.40139e-09
-3.91317e-10
2.52505e-09
-4.39828e-10
2.65057e-09
-5.04146e-10
2.77738e-09
-5.86007e-10
2.90457e-09
-6.88321e-10
3.03038e-09
-8.17387e-10
3.15128e-09
-9.87187e-10
3.24646e-09
-1.04481e-09
3.31155e-09
-1.05138e-09
3.34939e-09
-1.05439e-09
3.36277e-09
-1.04021e-09
3.35467e-09
-9.97599e-10
3.32823e-09
-9.19441e-10
3.2867e-09
-8.02925e-10
3.23322e-09
-6.48889e-10
3.17078e-09
-4.60745e-10
3.1021e-09
-2.43405e-10
3.02961e-09
-2.4694e-12
2.95537e-09
2.56159e-10
2.88092e-09
5.26167e-10
2.80719e-09
8.00283e-10
2.73436e-09
1.0695e-09
2.66199e-09
1.32233e-09
2.58938e-09
1.54441e-09
2.51645e-09
1.71845e-09
2.4448e-09
1.82456e-09
2.37817e-09
1.84075e-09
2.3202e-09
1.74472e-09
2.26566e-09
1.52045e-09
1.17445e-09
2.18098e-09
1.55102e-09
-2.81129e-10
1.57082e-09
-3.51867e-10
1.60557e-09
-4.02838e-10
1.65675e-09
-4.34546e-10
1.72245e-09
-4.50761e-10
1.79986e-09
-4.56202e-10
1.88654e-09
-4.54891e-10
1.98073e-09
-4.49899e-10
2.08125e-09
-4.43608e-10
2.18731e-09
-4.38003e-10
2.2984e-09
-4.34908e-10
2.41413e-09
-4.3613e-10
2.53418e-09
-4.43538e-10
2.65824e-09
-4.59073e-10
2.78596e-09
-4.84697e-10
2.91695e-09
-5.22312e-10
3.05077e-09
-5.73645e-10
3.18687e-09
-6.40245e-10
3.32454e-09
-7.23679e-10
3.46271e-09
-8.26491e-10
3.59938e-09
-9.54059e-10
3.73062e-09
-1.11843e-09
3.83398e-09
-1.14816e-09
3.90476e-09
-1.12216e-09
3.94612e-09
-1.09575e-09
3.9612e-09
-1.05528e-09
3.95331e-09
-9.89707e-10
3.92599e-09
-8.92125e-10
3.88287e-09
-7.59807e-10
3.82751e-09
-5.93533e-10
3.76332e-09
-3.96551e-10
3.69346e-09
-1.73547e-10
3.62087e-09
7.01253e-11
3.54818e-09
3.28851e-10
3.47767e-09
5.96669e-10
3.41119e-09
8.66765e-10
3.35003e-09
1.13066e-09
3.29503e-09
1.37733e-09
3.24682e-09
1.59262e-09
3.20625e-09
1.75902e-09
3.17458e-09
1.85623e-09
3.15228e-09
1.86305e-09
3.13513e-09
1.76188e-09
3.10754e-09
1.54803e-09
1.24342e-09
3.03857e-09
2.23937e-09
-2.9174e-10
2.25096e-09
-3.63462e-10
2.27263e-09
-4.24505e-10
2.30899e-09
-4.7091e-10
2.36102e-09
-5.02788e-10
2.4275e-09
-5.22678e-10
2.50647e-09
-5.33861e-10
2.59603e-09
-5.39463e-10
2.69463e-09
-5.42206e-10
2.80107e-09
-5.44448e-10
2.91447e-09
-5.48307e-10
3.03414e-09
-5.55797e-10
3.15951e-09
-5.68905e-10
3.29006e-09
-5.89624e-10
3.42528e-09
-6.19924e-10
3.56465e-09
-6.61676e-10
3.70755e-09
-7.16552e-10
3.85332e-09
-7.86009e-10
4.00107e-09
-8.71429e-10
4.14952e-09
-9.74946e-10
4.29641e-09
-1.10094e-09
4.43736e-09
-1.25938e-09
4.54836e-09
-1.25917e-09
4.62447e-09
-1.19827e-09
4.66913e-09
-1.14042e-09
4.68581e-09
-1.07196e-09
4.67822e-09
-9.82115e-10
4.6503e-09
-8.64208e-10
4.60612e-09
-7.15617e-10
4.54966e-09
-5.37079e-10
4.4848e-09
-3.31693e-10
4.41521e-09
-1.03956e-10
4.34436e-09
1.40973e-10
4.27555e-09
3.97669e-10
4.21183e-09
6.60386e-10
4.156e-09
9.22592e-10
4.11047e-09
1.17619e-09
4.07719e-09
1.41062e-09
4.05757e-09
1.61224e-09
4.05231e-09
1.76427e-09
4.06059e-09
1.84794e-09
4.07812e-09
1.84552e-09
4.09398e-09
1.74602e-09
4.08851e-09
1.5535e-09
1.29443e-09
4.03751e-09
3.13216e-09
-2.99656e-10
3.13833e-09
-3.69632e-10
3.14989e-09
-4.36064e-10
3.1726e-09
-4.93617e-10
3.2097e-09
-5.39885e-10
3.26205e-09
-5.75028e-10
3.32899e-09
-6.00807e-10
3.40919e-09
-6.19666e-10
3.50118e-09
-6.34188e-10
3.60358e-09
-6.46851e-10
3.71525e-09
-6.59976e-10
3.83521e-09
-6.75764e-10
3.96265e-09
-6.96341e-10
4.09681e-09
-7.23783e-10
4.23698e-09
-7.60089e-10
4.38242e-09
-8.07122e-10
4.53237e-09
-8.66505e-10
4.68597e-09
-9.396e-10
4.84212e-09
-1.02758e-09
4.99931e-09
-1.13214e-09
5.15493e-09
-1.25657e-09
5.30417e-09
-1.40861e-09
5.42168e-09
-1.37668e-09
5.50227e-09
-1.27886e-09
5.54967e-09
-1.18781e-09
5.56767e-09
-1.08997e-09
5.56038e-09
-9.74821e-10
5.53216e-09
-8.3599e-10
5.48752e-09
-6.70977e-10
5.43093e-09
-4.80494e-10
5.36675e-09
-2.67513e-10
5.29917e-09
-3.63706e-11
5.23222e-09
2.07923e-10
5.16983e-09
4.60057e-10
5.11582e-09
7.14397e-10
5.07381e-09
9.64597e-10
5.04709e-09
1.20292e-09
5.03825e-09
1.41946e-09
5.04877e-09
1.60172e-09
5.0782e-09
1.73485e-09
5.12286e-09
1.80328e-09
5.17416e-09
1.79422e-09
5.21735e-09
1.70283e-09
5.23312e-09
1.53773e-09
1.32332e-09
5.20423e-09
4.28236e-09
-3.05461e-10
4.28494e-09
-3.72205e-10
4.28915e-09
-4.40282e-10
4.30039e-09
-5.04858e-10
4.32302e-09
-5.62506e-10
4.35964e-09
-6.11658e-10
4.41126e-09
-6.52423e-10
4.47767e-09
-6.86078e-10
4.55803e-09
-7.14547e-10
4.65122e-09
-7.40039e-10
4.75608e-09
-7.64832e-10
4.8715e-09
-7.91186e-10
4.99646e-09
-8.21307e-10
5.13002e-09
-8.57335e-10
5.27123e-09
-9.01301e-10
5.41917e-09
-9.55059e-10
5.57285e-09
-1.02019e-09
5.73118e-09
-1.09794e-09
5.89286e-09
-1.18926e-09
6.05606e-09
-1.29534e-09
6.21782e-09
-1.41832e-09
6.37282e-09
-1.56361e-09
6.49479e-09
-1.49866e-09
6.57837e-09
-1.36243e-09
6.62747e-09
-1.23691e-09
6.6462e-09
-1.1087e-09
6.63903e-09
-9.67653e-10
6.61076e-09
-8.07723e-10
6.56635e-09
-6.26568e-10
6.51075e-09
-4.24894e-10
6.4488e-09
-2.05557e-10
6.38517e-09
2.72525e-11
6.32444e-09
2.68652e-10
6.27108e-09
5.13422e-10
6.22946e-09
7.56018e-10
6.20376e-09
9.90296e-10
6.19767e-09
1.20901e-09
6.21384e-09
1.40328e-09
6.25313e-09
1.56244e-09
6.31342e-09
1.67456e-09
6.38845e-09
1.72825e-09
6.46696e-09
1.71571e-09
6.53325e-09
1.63654e-09
6.57047e-09
1.50051e-09
1.32724e-09
6.56656e-09
5.75324e-09
-3.0981e-10
5.75358e-09
-3.72548e-10
5.75288e-09
-4.39582e-10
5.75535e-09
-5.07333e-10
5.76536e-09
-5.72516e-10
5.7865e-09
-6.32797e-10
5.82115e-09
-6.87074e-10
5.87049e-09
-7.35409e-10
5.93471e-09
-7.78769e-10
6.01339e-09
-8.18726e-10
6.10575e-09
-8.57193e-10
6.21082e-09
-8.96256e-10
6.32757e-09
-9.38053e-10
6.45493e-09
-9.84696e-10
6.59183e-09
-1.0382e-09
6.73714e-09
-1.10037e-09
6.88968e-09
-1.17273e-09
7.04814e-09
-1.25639e-09
7.21092e-09
-1.35204e-09
7.37588e-09
-1.4603e-09
7.53968e-09
-1.58212e-09
7.69646e-09
-1.7204e-09
7.81968e-09
-1.62187e-09
7.90384e-09
-1.44659e-09
7.95294e-09
-1.28602e-09
7.97134e-09
-1.1271e-09
7.96386e-09
-9.60164e-10
7.93567e-09
-7.79535e-10
7.89216e-09
-5.83063e-10
7.83873e-09
-3.71458e-10
7.78063e-09
-1.47464e-10
7.723e-09
8.48891e-11
7.67077e-09
3.20879e-10
7.62877e-09
5.55426e-10
7.60162e-09
7.83161e-10
7.59363e-09
9.98293e-10
7.60831e-09
1.19432e-09
7.6478e-09
1.3638e-09
7.71185e-09
1.49839e-09
7.7968e-09
1.5896e-09
7.89479e-09
1.63026e-09
7.99376e-09
1.61674e-09
8.07907e-09
1.55123e-09
8.13687e-09
1.44271e-09
1.30573e-09
8.15837e-09
7.61907e-09
-3.13379e-10
7.61831e-09
-3.7179e-10
7.61477e-09
-4.3604e-10
7.6113e-09
-5.03862e-10
7.61151e-09
-5.72732e-10
7.61909e-09
-6.40373e-10
7.63716e-09
-7.05151e-10
7.66803e-09
-7.66274e-10
7.71305e-09
-8.23793e-10
7.7728e-09
-8.78471e-10
7.84721e-09
-9.31607e-10
7.93581e-09
-9.84855e-10
8.03783e-09
-1.04007e-09
8.15231e-09
-1.09918e-09
8.27818e-09
-1.16406e-09
8.41421e-09
-1.23641e-09
8.55908e-09
-1.3176e-09
8.71127e-09
-1.40857e-09
8.86892e-09
-1.50969e-09
9.02957e-09
-1.62095e-09
9.18946e-09
-1.74201e-09
9.34226e-09
-1.87319e-09
9.46197e-09
-1.74158e-09
9.54316e-09
-1.52778e-09
9.58972e-09
-1.33258e-09
9.60614e-09
-1.14351e-09
9.59747e-09
-9.515e-10
9.56924e-09
-7.51303e-10
9.52717e-09
-5.40995e-10
9.47701e-09
-3.21291e-10
9.42434e-09
-9.47977e-11
9.37456e-09
1.34669e-10
9.3328e-09
3.6264e-10
9.30392e-09
5.84309e-10
9.2924e-09
7.94674e-10
9.30216e-09
9.8854e-10
9.33603e-09
1.16045e-09
9.39516e-09
1.30466e-09
9.47814e-09
1.41541e-09
9.58027e-09
1.48748e-09
9.69321e-09
1.51731e-09
9.80565e-09
1.50431e-09
9.90506e-09
1.45182e-09
9.98046e-09
1.36731e-09
1.2611e-09
1.00251e-08
9.96558e-09
-3.16694e-10
9.96458e-09
-3.70795e-10
9.95985e-09
-4.31311e-10
9.95302e-09
-4.97034e-10
9.94664e-09
-5.6635e-10
9.94378e-09
-6.37512e-10
9.94759e-09
-7.08963e-10
9.9609e-09
-7.7958e-10
9.98593e-09
-8.48821e-10
1.00242e-08
-9.16755e-10
1.00766e-08
-9.84003e-10
1.01434e-08
-1.05163e-09
1.02243e-08
-1.12103e-09
1.03189e-08
-1.19375e-09
1.04262e-08
-1.27137e-09
1.05452e-08
-1.35534e-09
1.06744e-08
-1.4468e-09
1.08122e-08
-1.54641e-09
1.09566e-08
-1.65412e-09
1.11049e-08
-1.76923e-09
1.12529e-08
-1.89001e-09
1.13938e-08
-2.01415e-09
1.15036e-08
-1.8513e-09
1.15769e-08
-1.60107e-09
1.16173e-08
-1.37301e-09
1.16293e-08
-1.15551e-09
1.1618e-08
-9.40253e-10
1.15893e-08
-7.22514e-10
1.15489e-08
-5.00606e-10
1.15028e-08
-2.75235e-10
1.14568e-08
-4.88133e-11
1.14163e-08
1.75158e-10
1.13864e-08
3.92608e-10
1.13715e-08
5.99209e-10
1.13756e-08
7.90576e-10
1.14017e-08
9.62384e-10
1.14517e-08
1.11044e-09
1.15256e-08
1.23083e-09
1.16208e-08
1.32013e-09
1.17324e-08
1.37591e-09
1.18525e-08
1.39727e-09
1.19713e-08
1.38547e-09
1.20789e-08
1.34422e-09
1.21668e-08
1.2794e-09
1.19822e-09
1.22297e-08
1.28895e-08
-3.19932e-10
1.28887e-08
-3.70006e-10
1.28839e-08
-4.26469e-10
1.28757e-08
-4.88847e-10
1.28656e-08
-5.56305e-10
1.28559e-08
-6.27765e-10
1.2849e-08
-7.02089e-10
1.28477e-08
-7.78268e-10
1.28545e-08
-8.5559e-10
1.28714e-08
-9.33734e-10
1.29002e-08
-1.01281e-09
1.29419e-08
-1.09332e-09
1.2997e-08
-1.17612e-09
1.30656e-08
-1.26228e-09
1.31471e-08
-1.35292e-09
1.32409e-08
-1.44912e-09
1.33457e-08
-1.55163e-09
1.346e-08
-1.6607e-09
1.35817e-08
-1.77578e-09
1.37078e-08
-1.89532e-09
1.38339e-08
-2.0162e-09
1.39532e-08
-2.13338e-09
1.40446e-08
-1.94275e-09
1.41037e-08
-1.6601e-09
1.41332e-08
-1.40258e-09
1.41375e-08
-1.15979e-09
1.41216e-08
-9.24355e-10
1.40912e-08
-6.92128e-10
1.40523e-08
-4.61674e-10
1.40107e-08
-2.33651e-10
1.39721e-08
-1.01939e-11
1.39416e-08
2.05648e-10
1.39238e-08
4.10387e-10
1.39226e-08
6.00394e-10
1.39411e-08
7.72148e-10
1.3981e-08
9.224e-10
1.40432e-08
1.04833e-09
1.41263e-08
1.14769e-09
1.42274e-08
1.21902e-09
1.43414e-08
1.26189e-09
1.44616e-08
1.2771e-09
1.45802e-08
1.26687e-09
1.46896e-08
1.23478e-09
1.47836e-08
1.18542e-09
1.12384e-09
1.4858e-08
1.64964e-08
-3.22832e-10
1.64957e-08
-3.69339e-10
1.64911e-08
-4.21885e-10
1.64827e-08
-4.8044e-10
1.64711e-08
-5.44724e-10
1.64576e-08
-6.1424e-10
1.64439e-08
-6.88352e-10
1.6432e-08
-7.66398e-10
1.64242e-08
-8.4781e-10
1.64227e-08
-9.3221e-10
1.64294e-08
-1.01947e-09
1.64458e-08
-1.10974e-09
1.64731e-08
-1.20343e-09
1.65119e-08
-1.30111e-09
1.65624e-08
-1.40345e-09
1.66243e-08
-1.51101e-09
1.66968e-08
-1.62409e-09
1.67785e-08
-1.74238e-09
1.68674e-08
-1.86472e-09
1.69607e-08
-1.98862e-09
1.7054e-08
-2.10948e-09
1.71402e-08
-2.21956e-09
1.72037e-08
-2.00627e-09
1.72409e-08
-1.69732e-09
1.72539e-08
-1.41562e-09
1.72464e-08
-1.15229e-09
1.72232e-08
-9.01092e-10
1.71896e-08
-6.58524e-10
1.71513e-08
-4.23392e-10
1.71139e-08
-1.96242e-10
1.70825e-08
2.11715e-11
1.70618e-08
2.26398e-10
1.70555e-08
4.16702e-10
1.70665e-08
5.89345e-10
1.70968e-08
7.41831e-10
1.71471e-08
8.72075e-10
1.72169e-08
9.78556e-10
1.73042e-08
1.06043e-09
1.74055e-08
1.11766e-09
1.75164e-08
1.15105e-09
1.76312e-08
1.16231e-09
1.7744e-08
1.154e-09
1.78495e-08
1.12932e-09
1.7943e-08
1.09187e-09
1.04528e-09
1.80216e-08
2.08954e-08
-3.24818e-10
2.08943e-08
-3.68287e-10
2.08897e-08
-4.17307e-10
2.08814e-08
-4.72085e-10
2.08693e-08
-5.32683e-10
2.08541e-08
-5.99011e-10
2.08366e-08
-6.70853e-10
2.08181e-08
-7.47924e-10
2.08002e-08
-8.29932e-10
2.07847e-08
-9.16648e-10
2.07732e-08
-1.00795e-09
2.07673e-08
-1.10386e-09
2.07684e-08
-1.20453e-09
2.07775e-08
-1.3102e-09
2.07952e-08
-1.42112e-09
2.08215e-08
-1.53741e-09
2.08563e-08
-1.65881e-09
2.08984e-08
-1.78447e-09
2.09461e-08
-1.9125e-09
2.09969e-08
-2.03941e-09
2.10466e-08
-2.15914e-09
2.10885e-08
-2.26142e-09
2.11142e-08
-2.03197e-09
2.11217e-08
-1.70483e-09
2.11121e-08
-1.40607e-09
2.10884e-08
-1.12858e-09
2.10547e-08
-8.6738e-10
2.10158e-08
-6.19651e-10
2.09768e-08
-3.84407e-10
2.09426e-08
-1.62013e-10