/*--------------------------------*- C++ -*----------------------------------*\
| =========                 |                                                 |
| \\      /  F ield         | OpenFOAM: The Open Source CFD Toolbox           |
|  \\    /   O peration     | Version:  2312                                  |
|   \\  /    A nd           | Website:  www.openfoam.com                      |
|    \\/     M anipulation  |                                                 |
\*---------------------------------------------------------------------------*/
FoamFile
{
    version     2.0;
    format      ascii;
    arch        "LSB;label=32;scalar=64";
    class       volVectorField;
    location    "364";
    object      U;
}
// * * * * * * * * * * * * * * * * * * * * * * * * * * * * * * * * * * * * * //

dimensions      [0 1 -1 0 0 0 0];

internalField   nonuniform List<vector> 
4800
(
(8.9235e-05 1.90587e-08 -4.94183e-27)
(8.8537e-05 2.54961e-08 -3.54813e-26)
(8.83816e-05 3.05867e-08 4.52976e-26)
(8.85907e-05 3.29608e-08 2.14927e-26)
(8.90763e-05 3.25335e-08 3.23584e-25)
(8.97819e-05 2.86498e-08 -7.73908e-25)
(9.06844e-05 2.0391e-08 7.29889e-25)
(9.17878e-05 5.8287e-09 -1.06613e-24)
(9.31385e-05 -1.98339e-08 3.3899e-25)
(9.48723e-05 -7.02477e-08 1.16152e-24)
(9.73426e-05 -1.92043e-07 -3.5569e-25)
(0.000101396 -5.5165e-07 -2.92342e-26)
(0.000109084 -1.59977e-06 -4.23263e-25)
(0.000128049 -6.70561e-06 1.97743e-25)
(0.000160698 -3.59108e-05 -1.55929e-25)
(0.00027697 1.91644e-07 -2.02229e-26)
(0.000274678 8.49237e-08 2.51831e-26)
(0.000274065 -2.35015e-09 -2.40079e-25)
(0.000274571 -8.9474e-08 1.77069e-25)
(0.000275916 -1.84744e-07 5.89616e-25)
(0.000277929 -2.97275e-07 -9.44398e-25)
(0.000280539 -4.4079e-07 -2.77626e-25)
(0.000283764 -6.41002e-07 -7.14108e-26)
(0.000287757 -9.5739e-07 2.20476e-24)
(0.000292913 -1.54071e-06 -1.60756e-24)
(0.000300105 -2.79009e-06 1.71426e-25)
(0.000311032 -5.77291e-06 2.56231e-25)
(0.00032874 -1.30536e-05 -3.73385e-25)
(0.000359136 -3.05885e-05 -1.33122e-25)
(0.000396659 -7.24953e-05 4.77162e-25)
(0.000485888 6.35742e-07 -1.63403e-26)
(0.000481684 2.86141e-07 1.66104e-26)
(0.000480416 1.17358e-09 1.76672e-25)
(0.00048109 -2.77878e-07 -4.23316e-25)
(0.00048321 -5.79196e-07 4.1893e-25)
(0.000486473 -9.3167e-07 4.03257e-25)
(0.000490754 -1.37907e-06 -1.03303e-24)
(0.000496081 -2.00186e-06 -6.44423e-25)
(0.00050269 -2.9747e-06 1.50826e-24)
(0.000511152 -4.69448e-06 5.6517e-25)
(0.000522551 -8.04897e-06 -1.90717e-24)
(0.000538547 -1.49122e-05 -2.95999e-25)
(0.000560985 -2.8705e-05 7.51753e-25)
(0.000590778 -5.45327e-05 1.20942e-24)
(0.000619007 -9.73396e-05 -6.13307e-25)
(0.000717846 1.47084e-06 6.89181e-27)
(0.000711357 6.93012e-07 -4.83781e-26)
(0.000709183 6.09903e-08 2.18657e-25)
(0.000709841 -5.50783e-07 2.41261e-25)
(0.000712585 -1.2066e-06 -2.29409e-25)
(0.000716967 -1.96929e-06 -1.37187e-24)
(0.000722788 -2.93221e-06 -9.50451e-25)
(0.000730056 -4.26098e-06 3.44859e-24)
(0.000739026 -6.29097e-06 1.42564e-24)
(0.000750263 -9.70874e-06 -1.96042e-24)
(0.000764652 -1.58322e-05 -7.68357e-25)
(0.000783081 -2.68919e-05 -5.74164e-25)
(0.000805533 -4.58521e-05 6.60987e-27)
(0.000829736 -7.50276e-05 3.91338e-25)
(0.000848316 -0.000113017 1.89427e-27)
(0.000974662 2.84258e-06 -1.45785e-26)
(0.000965467 1.39612e-06 -9.02897e-26)
(0.000962076 2.2492e-07 -6.03348e-26)
(0.000962468 -8.95019e-07 1.53169e-25)
(0.000965611 -2.08408e-06 -4.48939e-25)
(0.000970889 -3.45429e-06 1.10546e-24)
(0.000978 -5.16532e-06 -1.86803e-25)
(0.000986883 -7.48525e-06 6.77527e-25)
(0.000997708 -1.09129e-05 -3.63712e-24)
(0.00101084 -1.63586e-05 6.69599e-24)
(0.00102666 -2.53115e-05 -6.22138e-24)
(0.00104506 -3.97649e-05 3.15449e-24)
(0.00106469 -6.14682e-05 -2.81536e-24)
(0.00108244 -9.03086e-05 2.53719e-24)
(0.00109385 -0.00012263 -9.76469e-25)
(0.001258 4.94724e-06 2.23911e-26)
(0.00124565 2.52967e-06 8.12882e-26)
(0.00124068 5.79439e-07 -4.27964e-25)
(0.00124048 -1.26084e-06 -2.80106e-25)
(0.00124372 -3.19069e-06 7.1993e-25)
(0.00124956 -5.38591e-06 2.60168e-25)
(0.00125758 -8.08152e-06 -1.99926e-24)
(0.00126758 -1.16435e-05 4.64514e-24)
(0.00127954 -1.66874e-05 -5.84669e-24)
(0.00129349 -2.41999e-05 1.3144e-24)
(0.00130923 -3.55349e-05 3.91937e-24)
(0.00132588 -5.20628e-05 -5.17989e-24)
(0.00134159 -7.43045e-05 2.41042e-24)
(0.00135378 -0.000100857 2.40026e-24)
(0.00136037 -0.000128074 -1.73187e-24)
(0.00156921 8.03606e-06 2.16653e-26)
(0.00155326 4.27753e-06 -1.28425e-25)
(0.00154631 1.25672e-06 4.61659e-25)
(0.00154515 -1.55331e-06 -6.35317e-25)
(0.00154808 -4.45571e-06 -2.1678e-24)
(0.00155406 -7.70157e-06 3.58286e-24)
(0.00156247 -1.15986e-05 -2.13336e-24)
(0.00157294 -1.65819e-05 7.04892e-24)
(0.00158519 -2.32997e-05 -4.52149e-24)
(0.00159888 -3.26486e-05 -2.0241e-24)
(0.00161333 -4.56296e-05 -3.82193e-24)
(0.00162733 -6.29122e-05 3.22248e-24)
(0.00163914 -8.41789e-05 8.51457e-25)
(0.00164713 -0.000107683 6.97691e-25)
(0.00165061 -0.000130584 -5.77329e-25)
(0.00190904 1.24109e-05 -3.67172e-26)
(0.00188917 6.87647e-06 4.98516e-25)
(0.00187984 2.44282e-06 -1.15067e-24)
(0.0018773 -1.61988e-06 -9.566e-25)
(0.00187947 -5.74139e-06 3.14558e-25)
(0.00188507 -1.02544e-05 6.36665e-25)
(0.00189326 -1.55242e-05 2.28286e-24)
(0.00190345 -2.2008e-05 -5.97912e-24)
(0.00191511 -3.02951e-05 -3.11418e-24)
(0.00192761 -4.10668e-05 7.72121e-24)
(0.00194 -5.48984e-05 -2.29581e-24)
(0.00195108 -7.18998e-05 7.20022e-24)
(0.00195956 -9.13625e-05 -3.47524e-24)
(0.00196456 -0.000111723 -1.04294e-24)
(0.00196611 -0.00013102 5.81785e-25)
(0.00227728 1.84034e-05 -5.734e-27)
(0.00225337 1.06105e-05 3.22725e-25)
(0.00224139 4.38193e-06 -4.48186e-25)
(0.00223706 -1.23939e-06 1.07118e-24)
(0.00223799 -6.82693e-06 -6.20153e-24)
(0.00224265 -1.2795e-05 6.23278e-24)
(0.00224996 -1.95427e-05 -9.49747e-24)
(0.00225914 -2.74994e-05 5.37811e-24)
(0.00226944 -3.71259e-05 3.78533e-24)
(0.00228004 -4.88395e-05 7.77807e-24)
(0.00228999 -6.28428e-05 -9.28556e-24)
(0.00229829 -7.89087e-05 -1.63868e-24)
(0.00230409 -9.62649e-05 6.23721e-25)
(0.00230702 -0.00011372 4.45593e-24)
(0.00230739 -0.000130022 -1.70783e-24)
(0.0026722 2.63198e-05 3.73134e-26)
(0.0026446 1.57818e-05 -1.5754e-25)
(0.00262989 7.36393e-06 6.89492e-25)
(0.00262351 -1.24127e-07 -2.34705e-24)
(0.00262278 -7.40532e-06 3.40136e-24)
(0.00262596 -1.49696e-05 -4.19013e-24)
(0.0026318 -2.32248e-05 6.60766e-24)
(0.00263932 -3.25354e-05 1.15427e-24)
(0.00264765 -4.3207e-05 -7.84876e-24)
(0.00265594 -5.54193e-05 1.03713e-23)
(0.00266335 -6.91222e-05 -1.04065e-23)
(0.00266914 -8.3953e-05 -2.88003e-24)
(0.00267282 -9.92503e-05 4.50646e-24)
(0.00267429 -0.000114197 1.23867e-24)
(0.0026739 -0.000128034 -5.08906e-25)
(0.00308986 3.63274e-05 1.79026e-25)
(0.0030596 2.26365e-05 -1.4214e-24)
(0.00304253 1.16771e-05 -2.22666e-24)
(0.00303408 2.04894e-06 4.94528e-24)
(0.00303147 -7.10771e-06 2.14413e-24)
(0.00303279 -1.63465e-05 -1.24741e-23)
(0.0030367 -2.60655e-05 3.44066e-24)
(0.00304211 -3.65516e-05 2.28982e-24)
(0.00304812 -4.79724e-05 -9.53489e-24)
(0.00305394 -6.03425e-05 8.80014e-24)
(0.00305889 -7.34887e-05 -6.6411e-24)
(0.00306248 -8.70497e-05 1.5208e-23)
(0.00306446 -0.000100534 -6.68765e-24)
(0.00306482 -0.000113426 3.60046e-24)
(0.00306388 -0.000125289 -9.2583e-25)
(0.00352342 4.82661e-05 -8.48079e-26)
(0.00349247 3.12252e-05 1.10022e-24)
(0.00347404 1.75032e-05 -2.02159e-24)
(0.00346396 5.55613e-06 -9.9495e-25)
(0.00345955 -5.5748e-06 1.02085e-23)
(0.00345894 -1.64877e-05 -1.24403e-24)
(0.00346073 -2.75624e-05 -1.54056e-23)
(0.00346386 -3.90195e-05 1.6421e-23)
(0.00346747 -5.09348e-05 -3.25665e-24)
(0.0034709 -6.32431e-05 -1.05431e-23)
(0.00347362 -7.57501e-05 1.01943e-23)
(0.00347532 -8.81678e-05 5.08715e-24)
(0.00347587 -0.000100171 -3.73926e-24)
(0.00347531 -0.00011146 -6.0476e-24)
(0.0034739 -0.000121798 4.79609e-25)
(0.00396279 6.14021e-05 6.10638e-27)
(0.00393406 4.11915e-05 -1.36725e-24)
(0.00391601 2.47401e-05 6.05967e-24)
(0.00390534 1.04753e-05 4.28036e-25)
(0.00389972 -2.59352e-06 3.07661e-24)
(0.00389748 -1.50788e-05 -9.67379e-24)
(0.00389737 -2.73405e-05 7.61777e-24)
(0.0038984 -3.95581e-05 1.67353e-24)
(0.00389984 -5.17691e-05 1.29754e-23)
(0.00390117 -6.38991e-05 -1.76718e-23)
(0.003902 -7.57954e-05 -7.30685e-24)
(0.00390214 -8.72673e-05 -4.44925e-24)
(0.00390152 -9.81272e-05 7.48507e-24)
(0.00390018 -0.00010822 -2.03542e-25)
(0.00389832 -0.000117431 6.31276e-25)
(0.0043952 7.42453e-05 -1.82047e-26)
(0.00437209 5.15546e-05 1.51406e-24)
(0.00435675 3.27826e-05 -2.03111e-24)
(0.00434706 1.64765e-05 -5.66022e-27)
(0.00434133 1.70497e-06 2.26561e-24)
(0.00433828 -1.21168e-05 5.27957e-24)
(0.00433688 -2.53249e-05 -1.83103e-23)
(0.00433637 -3.80823e-05 1.25291e-24)
(0.00433618 -5.04297e-05 7.48056e-24)
(0.00433593 -6.23263e-05 -3.18387e-24)
(0.00433535 -7.36871e-05 7.74448e-24)
(0.00433433 -8.44145e-05 4.98519e-24)
(0.00433284 -9.44241e-05 -8.16892e-24)
(0.00433088 -0.000103656 5.17041e-24)
(0.00432865 -0.000112067 -4.05736e-24)
(0.00480728 8.47011e-05 -6.70618e-25)
(0.0047925 6.06846e-05 2.54459e-25)
(0.00478209 4.04042e-05 2.5403e-24)
(0.00477514 2.26583e-05 -1.19211e-23)
(0.0047707 6.66126e-06 9.41757e-24)
(0.00476795 -8.09642e-06 -6.30444e-24)
(0.00476623 -2.1917e-05 3.97263e-24)
(0.00476504 -3.49583e-05 -2.59491e-23)
(0.004764 -4.72838e-05 3.33573e-23)
(0.00476286 -5.89012e-05 -1.78629e-23)
(0.00476148 -6.97918e-05 1.43944e-23)
(0.0047598 -7.99327e-05 1.10802e-23)
(0.00475781 -8.9311e-05 -1.76542e-23)
(0.00475552 -9.7926e-05 5.30345e-24)
(0.00475307 -0.000105777 -2.12184e-25)
(0.00518785 9.08324e-05 -2.66607e-26)
(0.00518202 6.67697e-05 -2.52419e-25)
(0.00517761 4.60144e-05 1.81226e-25)
(0.00517454 2.76644e-05 -3.374e-25)
(0.00517248 1.11184e-05 3.94365e-24)
(0.00517108 -4.02883e-06 -6.06341e-24)
(0.00517001 -1.8034e-05 5.07013e-24)
(0.00516903 -3.10494e-05 -1.44915e-23)
(0.00516796 -4.31612e-05 2.96836e-23)
(0.00516668 -5.44184e-05 -3.44054e-23)
(0.00516515 -6.4853e-05 2.56633e-23)
(0.00516335 -7.44928e-05 -7.92322e-24)
(0.00516129 -8.33693e-05 3.89308e-25)
(0.00515899 -9.15162e-05 1.57824e-24)
(0.00515658 -9.89562e-05 -2.86706e-24)
(0.00552853 9.19778e-05 -2.37399e-24)
(0.0055297 6.87986e-05 3.86065e-24)
(0.00553045 4.84597e-05 -1.18911e-24)
(0.00553107 3.03118e-05 -1.6914e-24)
(0.00553158 1.39116e-05 6.22871e-24)
(0.00553191 -1.05144e-06 -5.66689e-24)
(0.005532 -1.47903e-05 -4.65318e-24)
(0.00553178 -2.74494e-05 -1.01697e-23)
(0.00553124 -3.91293e-05 4.53679e-24)
(0.00553035 -4.99056e-05 2.02154e-23)
(0.00552914 -5.98406e-05 -9.75758e-24)
(0.00552762 -6.89909e-05 5.40531e-24)
(0.00552584 -7.74105e-05 -2.0411e-24)
(0.00552382 -8.51503e-05 -5.72216e-24)
(0.00552168 -9.22429e-05 2.80607e-24)
(0.00581884 8.91238e-05 8.15138e-25)
(0.00582384 6.72596e-05 -1.2658e-24)
(0.00582762 4.78543e-05 -4.10634e-25)
(0.00583055 3.04424e-05 -6.85069e-25)
(0.00583278 1.46862e-05 -1.91783e-24)
(0.00583437 3.36959e-07 8.65473e-24)
(0.0058354 -1.27897e-05 -6.27192e-24)
(0.00583589 -2.48326e-05 -3.70803e-24)
(0.00583591 -3.59006e-05 3.05099e-24)
(0.0058355 -4.60832e-05 -3.34885e-24)
(0.0058347 -5.54577e-05 7.15039e-24)
(0.00583357 -6.40931e-05 3.39921e-24)
(0.00583215 -7.2052e-05 -1.18086e-23)
(0.00583047 -7.93905e-05 7.68146e-24)
(0.00582864 -8.61433e-05 -1.50944e-24)
(0.00603735 8.38142e-05 2.46832e-24)
(0.0060438 6.35197e-05 3.77125e-24)
(0.00604872 4.53492e-05 -7.39868e-24)
(0.00605248 2.89834e-05 -4.0627e-25)
(0.00605531 1.41595e-05 1.42639e-24)
(0.00605734 6.68863e-07 -2.68927e-24)
(0.00605867 -1.16536e-05 -3.93856e-24)
(0.00605941 -2.29411e-05 7.65639e-24)
(0.00605963 -3.33041e-05 7.91274e-24)
(0.00605939 -4.2837e-05 -1.769e-23)
(0.00605876 -5.16214e-05 9.47758e-24)
(0.00605779 -5.97287e-05 -6.20609e-25)
(0.00605653 -6.72217e-05 -4.90346e-25)
(0.00605501 -7.41549e-05 6.27405e-25)
(0.00605331 -8.05599e-05 -2.79945e-25)
(0.00614543 7.67441e-05 -6.52914e-24)
(0.00615247 5.84223e-05 -1.25331e-23)
(0.00615773 4.18633e-05 5.95112e-24)
(0.00616164 2.68708e-05 1.81309e-23)
(0.00616448 1.32489e-05 -4.5413e-24)
(0.00616644 8.28565e-07 -1.10343e-24)
(0.00616765 -1.05319e-05 4.49711e-25)
(0.00616823 -2.09528e-05 -3.79788e-24)
(0.00616828 -3.05377e-05 9.41068e-24)
(0.00616788 -3.93758e-05 -3.8473e-24)
(0.0061671 -4.75438e-05 2.15471e-24)
(0.00616597 -5.51079e-05 -3.2061e-24)
(0.00616456 -6.21249e-05 -3.4958e-24)
(0.00616289 -6.86426e-05 5.00116e-24)
(0.00616101 -7.46862e-05 -2.12287e-24)
(0.00609028 6.80776e-05 1.01376e-23)
(0.00609777 5.21373e-05 -2.07314e-23)
(0.0061033 3.75859e-05 3.07876e-24)
(0.00610732 2.4313e-05 2.3933e-23)
(0.00611014 1.21804e-05 -2.09207e-23)
(0.00611199 1.06166e-06 6.51406e-24)
(0.00611303 -9.15545e-06 3.51363e-24)
(0.00611341 -1.85713e-05 -7.23226e-24)
(0.00611324 -2.7274e-05 2.02623e-24)
(0.00611259 -3.53395e-05 2.82984e-25)
(0.00611154 -4.28323e-05 -9.39394e-25)
(0.00611015 -4.98073e-05 1.65675e-24)
(0.00610844 -5.63108e-05 -1.90537e-24)
(0.00610648 -6.23813e-05 1.2178e-24)
(0.00610426 -6.80378e-05 -5.46777e-25)
(0.00587496 5.87539e-05 6.02647e-24)
(0.0058829 4.52447e-05 -1.14202e-23)
(0.00588882 3.27892e-05 -7.00528e-24)
(0.00589313 2.13271e-05 3.00265e-23)
(0.00589615 1.07658e-05 -2.50509e-23)
(0.00589811 1.01576e-06 2.55105e-24)
(0.00589922 -8.00609e-06 3.51437e-24)
(0.00589961 -1.63765e-05 1.66845e-24)
(0.0058994 -2.41635e-05 1.03792e-24)
(0.00589867 -3.14254e-05 -3.9975e-24)
(0.00589749 -3.82117e-05 2.49482e-24)
(0.00589592 -4.45639e-05 5.92238e-25)
(0.005894 -5.05169e-05 -2.24608e-24)
(0.00589178 -5.60988e-05 1.12225e-24)
(0.00588925 -6.13239e-05 5.39306e-25)
(0.00555555 4.95941e-05 1.4366e-23)
(0.00556388 3.82725e-05 -2.31849e-23)
(0.00557019 2.77367e-05 4.37419e-24)
(0.00557485 1.79548e-05 -9.19769e-24)
(0.00557816 8.86734e-06 -1.07089e-23)
(0.00558036 4.13709e-07 3.4417e-23)
(0.00558165 -7.46495e-06 -1.2257e-23)
(0.00558216 -1.48238e-05 3.11356e-24)
(0.005582 -2.1712e-05 -1.56972e-24)
(0.00558126 -2.81714e-05 -3.04417e-24)
(0.00558002 -3.42377e-05 5.05536e-24)
(0.00557833 -3.99402e-05 -1.98234e-24)
(0.00557623 -4.53033e-05 3.81927e-25)
(0.00557377 -5.03463e-05 -1.80316e-25)
(0.00557093 -5.50783e-05 6.57244e-26)
(0.00517256 4.07912e-05 5.30522e-24)
(0.00518104 3.13939e-05 -2.50949e-23)
(0.00518757 2.25773e-05 4.00953e-23)
(0.00519245 1.43248e-05 -2.82754e-23)
(0.00519595 6.60039e-06 2.59117e-23)
(0.00519832 -6.34779e-07 -8.28059e-24)
(0.00519971 -7.42096e-06 -5.28805e-24)
(0.00520028 -1.37966e-05 -5.19381e-24)
(0.00520012 -1.97954e-05 8.09596e-24)
(0.00519933 -2.54461e-05 -8.25058e-25)
(0.00519796 -3.07727e-05 -6.54055e-24)
(0.00519608 -3.57948e-05 -4.63791e-25)
(0.00519373 -4.05281e-05 8.60844e-25)
(0.00519095 -4.49847e-05 -6.27863e-26)
(0.00518774 -4.91689e-05 -1.45666e-26)
(0.00475507 3.26275e-05 6.74795e-25)
(0.00476342 2.4914e-05 -9.11162e-24)
(0.00476989 1.76247e-05 -4.60539e-24)
(0.00477475 1.07513e-05 3.60208e-23)
(0.00477824 4.27502e-06 -3.32189e-23)
(0.00478057 -1.82721e-06 9.16196e-24)
(0.00478191 -7.58167e-06 1.43521e-24)
(0.00478237 -1.30137e-05 -6.9767e-25)
(0.00478207 -1.81453e-05 -2.95976e-24)
(0.00478107 -2.29947e-05 1.19417e-23)
(0.00477944 -2.75769e-05 -9.06044e-24)
(0.00477724 -3.19039e-05 -2.34217e-25)
(0.00477451 -3.5985e-05 5.98483e-25)
(0.00477129 -3.98267e-05 1.55677e-25)
(0.00476759 -4.34298e-05 -7.93194e-26)
(0.00432334 2.53545e-05 9.53355e-25)
(0.00433123 1.9108e-05 8.10645e-24)
(0.00433736 1.31663e-05 -8.84576e-24)
(0.00434193 7.52624e-06 -5.6702e-24)
(0.00434516 2.18149e-06 3.40124e-23)
(0.00434724 -2.8793e-06 -2.50018e-23)
(0.00434831 -7.67228e-06 -6.11891e-25)
(0.00434849 -1.22131e-05 -4.54895e-24)
(0.00434787 -1.6515e-05 -2.64916e-25)
(0.00434651 -2.05885e-05 6.55898e-25)
(0.00434449 -2.44422e-05 -1.74742e-24)
(0.00434184 -2.80826e-05 1.66649e-24)
(0.00433862 -3.15144e-05 6.22911e-25)
(0.00433487 -3.47401e-05 4.56126e-25)
(0.00433059 -3.77585e-05 1.83257e-25)
(0.00389118 1.91455e-05 6.38839e-24)
(0.00389835 1.41671e-05 -9.31474e-24)
(0.00390387 9.40198e-06 -6.96962e-24)
(0.00390793 4.8511e-06 2.0399e-23)
(0.00391069 5.17567e-07 -7.06181e-24)
(0.00391234 -3.60202e-06 -9.25555e-24)
(0.00391299 -7.51666e-06 3.18434e-24)
(0.00391275 -1.12351e-05 6.52213e-24)
(0.00391169 -1.47642e-05 -9.8042e-24)
(0.00390987 -1.81094e-05 9.20312e-24)
(0.00390737 -2.12748e-05 -4.5755e-24)
(0.00390421 -2.42632e-05 1.76001e-24)
(0.00390046 -2.70761e-05 -1.80004e-24)
(0.00389614 -2.9714e-05 1.5231e-24)
(0.00389128 -3.2174e-05 -2.52649e-25)
(0.003468 1.40623e-05 -1.15223e-24)
(0.00347426 1.01648e-05 -3.79216e-24)
(0.00347901 6.41097e-06 -1.15009e-23)
(0.0034824 2.80562e-06 3.11018e-23)
(0.00348459 -6.41441e-07 -5.5335e-24)
(0.0034857 -3.92861e-06 -8.12431e-24)
(0.00348585 -7.06007e-06 2.60706e-24)
(0.00348511 -1.00398e-05 -3.73451e-24)
(0.00348357 -1.28706e-05 -7.43212e-24)
(0.00348128 -1.55546e-05 7.09072e-24)
(0.00347829 -1.80929e-05 3.3288e-25)
(0.00347465 -2.04861e-05 -1.74209e-24)
(0.0034704 -2.27341e-05 1.989e-24)
(0.00346558 -2.48358e-05 6.05487e-26)
(0.00346021 -2.67879e-05 -8.63658e-26)
(0.0030602 1.00593e-05 4.06772e-24)
(0.00306547 7.06645e-06 5.69419e-24)
(0.00306939 4.16529e-06 -5.28248e-24)
(0.00307207 1.36443e-06 -1.08903e-23)
(0.00307363 -1.32215e-06 1.41214e-23)
(0.00307419 -3.89029e-06 -1.49154e-23)
(0.00307383 -6.34115e-06 -3.92982e-25)
(0.00307262 -8.67579e-06 5.47566e-24)
(0.00307064 -1.08946e-05 1.81816e-24)
(0.00306793 -1.29976e-05 -3.41311e-24)
(0.00306453 -1.49844e-05 2.24942e-25)
(0.0030605 -1.68544e-05 6.16041e-24)
(0.00305587 -1.86065e-05 -2.30979e-24)
(0.00305069 -2.0239e-05 -4.82334e-25)
(0.00304497 -2.17487e-05 -2.08888e-26)
(0.00267211 7.01462e-06 -3.82591e-24)
(0.0026764 4.76345e-06 4.81018e-24)
(0.00267951 2.56671e-06 5.06425e-25)
(0.0026815 4.36148e-07 9.01384e-24)
(0.00268247 -1.61239e-06 -7.30278e-24)
(0.00268253 -3.57409e-06 4.88836e-25)
(0.00268172 -5.44853e-06 -7.98668e-25)
(0.00268013 -7.23513e-06 -2.09905e-24)
(0.0026778 -8.933e-06 1.65886e-24)
(0.00267478 -1.05412e-05 -5.29296e-24)
(0.00267112 -1.20586e-05 5.00011e-25)
(0.00266684 -1.34838e-05 1.24132e-24)
(0.002662 -1.48156e-05 6.96894e-25)
(0.00265663 -1.6052e-05 2.36921e-25)
(0.00265076 -1.71902e-05 5.63769e-26)
(0.00230651 4.76855e-06 2.53481e-24)
(0.00230992 3.11288e-06 -1.98202e-24)
(0.00231229 1.48638e-06 -8.35773e-24)
(0.00231367 -9.7177e-08 7.74322e-24)
(0.00231415 -1.62216e-06 1.0371e-23)
(0.00231379 -3.08433e-06 -2.74658e-24)
(0.00231265 -4.48264e-06 -5.21989e-24)
(0.00231078 -5.81576e-06 -6.91877e-24)
(0.00230824 -7.08232e-06 5.11692e-24)
(0.00230506 -8.28095e-06 2.49746e-25)
(0.00230128 -9.41026e-06 -1.04916e-24)
(0.00229693 -1.04688e-05 -2.32157e-25)
(0.00229207 -1.14551e-05 4.87974e-25)
(0.00228671 -1.23676e-05 -3.70037e-26)
(0.00228089 -1.32039e-05 -6.12388e-26)
(0.00196505 3.15599e-06 -1.41224e-24)
(0.00196769 1.96854e-06 -9.67123e-25)
(0.00196943 7.94516e-07 1.20257e-24)
(0.00197031 -3.51778e-07 -3.61457e-24)
(0.00197039 -1.45654e-06 1.17172e-23)
(0.00196974 -2.51678e-06 -1.51772e-23)
(0.00196838 -3.53128e-06 1.45496e-23)
(0.00196638 -4.49855e-06 -6.06255e-24)
(0.00196376 -5.41716e-06 1.28923e-24)
(0.00196057 -6.28572e-06 -4.34375e-26)
(0.00195683 -7.10283e-06 -9.87772e-25)
(0.00195259 -7.86716e-06 2.42803e-25)
(0.00194787 -8.5774e-06 -6.34909e-25)
(0.00194272 -9.23222e-06 -6.18891e-26)
(0.00193716 -9.82967e-06 2.63701e-26)
(0.00164846 2.02666e-06 -6.02817e-25)
(0.00165044 1.19972e-06 1.58654e-25)
(0.00165167 3.77524e-07 3.29092e-25)
(0.00165217 -4.26611e-07 -1.46898e-24)
(0.00165197 -1.20172e-06 -6.24362e-25)
(0.00165113 -1.94611e-06 5.5397e-24)
(0.00164969 -2.65869e-06 -3.22291e-24)
(0.00164767 -3.33809e-06 4.36484e-25)
(0.00164511 -3.98304e-06 -4.26704e-25)
(0.00164204 -4.5923e-06 -4.26438e-25)
(0.0016385 -5.16465e-06 -9.58433e-26)
(0.00163451 -5.69899e-06 7.24991e-25)
(0.0016301 -6.19422e-06 1.0812e-25)
(0.00162531 -6.64928e-06 -3.64915e-25)
(0.00162016 -7.06277e-06 -3.94925e-26)
(0.00135673 1.25462e-06 -1.91708e-25)
(0.00135819 6.99206e-07 -6.02014e-26)
(0.00135902 1.44737e-07 -2.98666e-24)
(0.00135924 -3.97793e-07 8.22936e-25)
(0.00135887 -9.20548e-07 -2.03455e-24)
(0.00135796 -1.42292e-06 1.50286e-24)
(0.00135652 -1.90399e-06 2.69243e-24)
(0.0013546 -2.36266e-06 1.92427e-24)
(0.00135221 -2.79791e-06 -2.64413e-24)
(0.00134939 -3.20872e-06 7.93752e-25)
(0.00134616 -3.59414e-06 6.15286e-25)
(0.00134254 -3.95331e-06 -8.09153e-25)
(0.00133857 -4.28539e-06 4.26324e-25)
(0.00133427 -4.58956e-06 -2.25696e-27)
(0.00132967 -4.86485e-06 6.55679e-26)
(0.00108935 7.40217e-07 -6.5592e-25)
(0.00109039 3.84314e-07 -8.78397e-25)
(0.00109093 2.85445e-08 -1.39082e-25)
(0.00109096 -3.19267e-07 2.15878e-24)
(0.00109051 -6.54183e-07 -1.49148e-24)
(0.0010896 -9.76281e-07 -2.6349e-25)
(0.00108827 -1.28483e-06 2.31744e-24)
(0.00108653 -1.57903e-06 -2.04031e-26)
(0.00108441 -1.85813e-06 -4.68279e-25)
(0.00108192 -2.12136e-06 -1.54642e-24)
(0.00107909 -2.36803e-06 2.20805e-25)
(0.00107595 -2.59754e-06 9.67768e-25)
(0.0010725 -2.80926e-06 -1.21294e-25)
(0.00106879 -3.00259e-06 -8.63482e-26)
(0.00106483 -3.17688e-06 5.05644e-26)
(0.000845396 4.07737e-07 -1.25515e-25)
(0.000846113 1.93944e-07 8.7776e-27)
(0.000846433 -1.89917e-08 9.15239e-25)
(0.000846351 -2.26686e-07 5.90952e-25)
(0.000845891 -4.26524e-07 -4.30131e-25)
(0.000845072 -6.18873e-07 -1.00731e-24)
(0.000843909 -8.03199e-07 3.92102e-25)
(0.000842421 -9.78984e-07 -1.60915e-24)
(0.000840625 -1.1457e-06 1.232e-24)
(0.000838538 -1.30285e-06 5.84049e-25)
(0.000836179 -1.44994e-06 -3.73568e-26)
(0.000833565 -1.5866e-06 -5.91326e-25)
(0.000830716 -1.71241e-06 9.2967e-26)
(0.000827651 -1.82694e-06 -5.47155e-26)
(0.000824388 -1.92973e-06 2.27738e-26)
(0.000623682 2.01396e-07 -2.03413e-25)
(0.000624149 8.44516e-08 6.44855e-27)
(0.00062432 -3.04201e-08 6.48387e-25)
(0.000624188 -1.41943e-07 -4.0409e-25)
(0.000623774 -2.49112e-07 1.60857e-24)
(0.000623089 -3.52305e-07 -2.90669e-24)
(0.000622144 -4.51188e-07 2.31714e-24)
(0.000620954 -5.45464e-07 -1.8865e-24)
(0.00061953 -6.3482e-07 1.31583e-24)
(0.000617885 -7.18965e-07 -8.10976e-25)
(0.000616034 -7.97619e-07 2.73525e-25)
(0.000613991 -8.70559e-07 3.69422e-26)
(0.00061177 -9.37562e-07 4.54981e-26)
(0.000609386 -9.98335e-07 -5.26568e-26)
(0.000606853 -1.05253e-06 8.2546e-27)
(0.000422851 8.18035e-08 2.73799e-25)
(0.000423128 2.71007e-08 2.89246e-25)
(0.0004232 -2.47698e-08 -1.24065e-24)
(0.000423066 -7.47335e-08 8.98516e-25)
(0.000422737 -1.2267e-07 -1.21744e-26)
(0.000422221 -1.68812e-07 2.16762e-25)
(0.000421526 -2.12986e-07 -2.73469e-25)
(0.000420661 -2.55052e-07 -5.40679e-25)
(0.000419633 -2.94863e-07 5.27017e-25)
(0.000418453 -3.32282e-07 4.47927e-26)
(0.00041713 -3.67178e-07 -3.78409e-25)
(0.000415674 -3.99452e-07 1.36983e-25)
(0.000414094 -4.29009e-07 6.85698e-26)
(0.000412402 -4.55679e-07 -9.08236e-27)
(0.000410608 -4.79173e-07 -4.89545e-27)
(0.000241458 2.32319e-08 -2.47472e-25)
(0.000241588 7.3338e-09 7.50744e-25)
(0.000241602 -6.84101e-09 4.33858e-25)
(0.000241497 -2.09422e-08 -7.94478e-25)
(0.00024128 -3.50072e-08 -9.23782e-26)
(0.000240955 -4.89988e-08 -7.96197e-26)
(0.000240527 -6.27601e-08 2.34898e-25)
(0.00024 -7.61627e-08 -3.90078e-25)
(0.000239379 -8.90904e-08 5.10769e-25)
(0.00023867 -1.01442e-07 -2.50589e-25)
(0.000237877 -1.1313e-07 -1.48187e-25)
(0.000237007 -1.24082e-07 8.48799e-26)
(0.000236065 -1.34244e-07 -8.1286e-26)
(0.000235059 -1.43509e-07 7.51967e-26)
(0.000233993 -1.51626e-07 -9.43564e-27)
(7.80235e-05 7.81514e-09 -1.39795e-27)
(7.80425e-05 1.92179e-08 1.15029e-25)
(7.80254e-05 2.80633e-08 1.28507e-25)
(7.7971e-05 3.36987e-08 -2.0429e-25)
(7.78822e-05 3.6537e-08 4.09236e-25)
(7.77595e-05 3.70729e-08 -4.44505e-25)
(7.76042e-05 3.57243e-08 2.78806e-26)
(7.74174e-05 3.28595e-08 2.27237e-25)
(7.72005e-05 2.87968e-08 -3.13266e-25)
(7.69552e-05 2.3811e-08 -4.98585e-26)
(7.66831e-05 1.81363e-08 1.93857e-25)
(7.63862e-05 1.19754e-08 -8.30753e-26)
(7.60661e-05 5.48865e-09 -2.42458e-26)
(7.57253e-05 -1.16063e-09 1.92947e-26)
(7.53655e-05 -7.73979e-09 -6.09766e-28)
(0.000247823 -0.000115949 2.23808e-26)
(0.00028588 -0.000113429 6.00329e-25)
(0.00034818 -9.98075e-05 -1.76465e-24)
(0.000414081 -8.47459e-05 2.61376e-24)
(0.000480365 -7.01266e-05 -9.97255e-25)
(0.000547349 -5.67559e-05 -9.5784e-25)
(0.000615138 -4.49162e-05 1.08642e-24)
(0.0006839 -3.47355e-05 -2.114e-24)
(0.000753802 -2.62707e-05 1.69561e-25)
(0.000824975 -1.95341e-05 1.30734e-24)
(0.000897515 -1.45054e-05 -2.40694e-25)
(0.000971483 -1.11359e-05 2.53832e-25)
(0.00104691 -9.34842e-06 -2.71451e-26)
(0.0011238 -9.03522e-06 1.47352e-25)
(0.00120213 -1.00549e-05 -5.43037e-25)
(0.00128187 -1.22319e-05 2.95623e-25)
(0.00136295 -1.53615e-05 -8.83385e-26)
(0.0014453 -1.92316e-05 8.63081e-27)
(0.00152881 -2.36656e-05 1.95701e-25)
(0.00161322 -2.86121e-05 -1.20587e-25)
(0.00169801 -3.42862e-05 1.2805e-26)
(0.00178188 -4.13415e-05 -1.06032e-26)
(0.00185618 -5.03786e-05 1.55829e-26)
(0.00191238 -6.1159e-05 4.8172e-26)
(0.00194994 -7.29405e-05 -8.71019e-26)
(0.0019703 -8.4598e-05 -4.00386e-26)
(0.0019748 -9.46511e-05 1.50002e-26)
(0.00196483 -0.000101459 7.51788e-26)
(0.00194185 -0.000103355 2.22732e-26)
(0.00190737 -9.87293e-05 -3.28209e-26)
(0.0018629 -8.60423e-05 -1.51106e-25)
(0.00180995 -6.38165e-05 2.64556e-25)
(0.00174994 -3.06225e-05 -1.27236e-25)
(0.00168416 1.48787e-05 -2.82872e-25)
(0.00161372 7.37792e-05 2.79404e-25)
(0.00153938 0.000146608 1.02143e-24)
(0.00146149 0.00023286 -4.02868e-25)
(0.00137985 0.000330432 8.20495e-26)
(0.00129377 0.000435088 -2.88339e-26)
(0.00120212 0.000540051 -8.88374e-25)
(0.0011037 0.000635733 -9.02242e-27)
(0.000997693 0.000709382 2.41907e-25)
(0.000883961 0.000743968 2.64358e-26)
(0.000768096 0.000716049 -2.84733e-25)
(0.000700293 0.000578822 -9.60034e-27)
(0.000432657 -0.000136193 -6.74013e-25)
(0.000451577 -0.000144117 -1.03705e-24)
(0.00049168 -0.000133338 2.14259e-24)
(0.000542431 -0.000117393 1.04568e-24)
(0.000598672 -0.000100629 -3.71682e-24)
(0.000658562 -8.48672e-05 4.01955e-24)
(0.000721045 -7.07417e-05 -1.46153e-24)
(0.000785629 -5.8464e-05 1.12841e-24)
(0.000852094 -4.80938e-05 -1.51172e-24)
(0.000920336 -3.96225e-05 2.17757e-26)
(0.000990304 -3.30052e-05 -7.51696e-25)
(0.00106196 -2.81706e-05 1.49044e-24)
(0.00113528 -2.50226e-05 -8.10473e-25)
(0.00121021 -2.3439e-05 -6.95618e-25)
(0.0012867 -2.32676e-05 -4.40216e-25)
(0.0013647 -2.43256e-05 8.81118e-25)
(0.00144411 -2.64036e-05 -9.64531e-26)
(0.00152485 -2.92854e-05 4.36117e-25)
(0.00160677 -3.27872e-05 5.85414e-26)
(0.00168961 -3.6842e-05 -1.25864e-25)
(0.00177282 -4.16261e-05 -4.73378e-26)
(0.00185508 -4.77214e-05 -2.22061e-26)
(0.00192791 -5.56701e-05 9.54577e-26)
(0.00198299 -6.52136e-05 8.46418e-26)
(0.00201984 -7.55965e-05 -1.0004e-25)
(0.00203991 -8.56889e-05 -3.08552e-25)
(0.00204456 -9.40324e-05 3.60879e-25)
(0.0020352 -9.90227e-05 -1.89719e-25)
(0.00201331 -9.90369e-05 5.7124e-26)
(0.00198042 -9.25063e-05 1.97742e-26)
(0.00193811 -7.7934e-05 -2.67316e-25)
(0.00188792 -5.38799e-05 6.5086e-25)
(0.00183138 -1.89415e-05 -7.36208e-25)
(0.00176992 2.8222e-05 1.72565e-24)
(0.00170485 8.8764e-05 -2.30125e-24)
(0.0016373 0.000163371 5.81067e-25)
(0.00156808 0.000251825 1.60561e-24)
(0.00149767 0.000352435 -5.6667e-25)
(0.00142628 0.000461441 -9.86793e-25)
(0.00135411 0.000572444 -3.86908e-25)
(0.00128182 0.000675841 8.33089e-25)
(0.00121141 0.000757939 -5.25325e-25)
(0.00114686 0.000799073 2.38352e-25)
(0.00109459 0.000770967 2.09461e-25)
(0.00106643 0.00063091 -2.16784e-25)
(0.000635495 -0.000145343 -7.87411e-27)
(0.000643954 -0.000161304 -1.22581e-24)
(0.000666267 -0.000157873 2.4137e-24)
(0.000701064 -0.000145257 2.12102e-24)
(0.000744837 -0.000129133 -3.52995e-24)
(0.000795122 -0.00011261 7.59712e-26)
(0.000850121 -9.71063e-05 3.54177e-25)
(0.000908719 -8.32232e-05 3.79955e-24)
(0.000970255 -7.12012e-05 -4.55159e-24)
(0.00103432 -6.11107e-05 2.73559e-24)
(0.00110067 -5.29388e-05 7.57541e-25)
(0.00116911 -4.66244e-05 -4.42064e-24)
(0.00123952 -4.20727e-05 1.59771e-24)
(0.00131179 -3.9159e-05 6.13348e-25)
(0.00138581 -3.77278e-05 -1.24244e-24)
(0.00146149 -3.75937e-05 1.99022e-24)
(0.00153871 -3.85449e-05 -1.38382e-24)
(0.00161734 -4.03624e-05 -1.42215e-26)
(0.00169722 -4.28548e-05 1.13628e-25)
(0.00177804 -4.59384e-05 1.12341e-25)
(0.00185925 -4.97478e-05 2.00096e-26)
(0.00193949 -5.47897e-05 5.1726e-26)
(0.00201051 -6.15483e-05 -1.03374e-25)
(0.0020642 -6.97482e-05 2.82848e-25)
(0.00210014 -7.86193e-05 -3.82299e-25)
(0.00211979 -8.70239e-05 2.07449e-25)
(0.00212454 -9.35224e-05 -3.05653e-25)
(0.00211579 -9.6546e-05 3.97828e-25)
(0.00209507 -9.45142e-05 -1.49433e-25)
(0.00206395 -8.59047e-05 1.66144e-25)
(0.00202402 -6.92688e-05 2.58854e-25)
(0.00197692 -4.32171e-05 -7.63267e-25)
(0.00192425 -6.39747e-06 3.29775e-25)
(0.00186763 4.24901e-05 9.14732e-25)
(0.00180861 0.000104589 -1.98448e-24)
(0.00174867 0.000180635 2.66734e-24)
(0.00168915 0.000270537 -1.61378e-24)
(0.00163128 0.000372798 1.62894e-24)
(0.00157622 0.000483823 -2.73658e-24)
(0.00152536 0.00059716 9.65102e-25)
(0.00148067 0.000702628 2.18175e-25)
(0.00144497 0.000785173 -5.97776e-27)
(0.00142125 0.000823547 3.79155e-26)
(0.00140917 0.0007909 -2.9399e-25)
(0.00139867 0.000662329 2.59153e-25)
(0.000856425 -0.000150197 -2.90076e-25)
(0.000859246 -0.000169945 -5.1605e-25)
(0.000869463 -0.000173661 -2.36087e-24)
(0.000890341 -0.000166564 5.82273e-25)
(0.000921179 -0.000153544 4.17188e-25)
(0.00096033 -0.000138191 1.97884e-24)
(0.00100604 -0.000122634 -4.22432e-24)
(0.0010569 -0.000108006 1.6848e-24)
(0.00111193 -9.4875e-05 5.45745e-24)
(0.00117043 -8.3499e-05 -1.50861e-24)
(0.00123192 -7.39694e-05 -1.36728e-24)
(0.00129607 -6.62823e-05 -2.12015e-25)
(0.00136261 -6.03737e-05 6.73086e-25)
(0.00143136 -5.61359e-05 -1.30677e-24)
(0.00150213 -5.34229e-05 3.09613e-25)
(0.00157477 -5.20551e-05 -9.61459e-26)
(0.00164914 -5.18242e-05 -5.86773e-25)
(0.00172505 -5.2512e-05 2.48151e-25)
(0.00180231 -5.39219e-05 9.94146e-25)
(0.00188058 -5.59537e-05 -1.31537e-25)
(0.00195926 -5.86986e-05 -2.05523e-25)
(0.00203699 -6.25839e-05 -4.56539e-26)
(0.00210575 -6.80343e-05 -2.04492e-25)
(0.00215771 -7.47625e-05 2.65436e-26)
(0.00219249 -8.19869e-05 -3.23943e-25)
(0.00221156 -8.85644e-05 6.2252e-25)
(0.00221632 -9.30794e-05 -3.51555e-25)