/*--------------------------------*- C++ -*----------------------------------*\
| =========                 |                                                 |
| \\      /  F ield         | OpenFOAM: The Open Source CFD Toolbox           |
|  \\    /   O peration     | Version:  2312                                  |
|   \\  /    A nd           | Website:  www.openfoam.com                      |
|    \\/     M anipulation  |                                                 |
\*---------------------------------------------------------------------------*/
FoamFile
{
    version     2.0;
    format      ascii;
    arch        "LSB;label=32;scalar=64";
    class       volVectorField;
    location    "115";
    object      U;
}
// * * * * * * * * * * * * * * * * * * * * * * * * * * * * * * * * * * * * * //

dimensions      [0 1 -1 0 0 0 0];

internalField   nonuniform List<vector> 
4800
(
(0.000487946 4.21554e-07 -3.52905e-26)
(0.000476952 4.88953e-07 -2.47847e-25)
(0.00046942 5.26108e-07 3.18192e-25)
(0.000464339 5.34817e-07 1.44894e-25)
(0.000461086 5.14569e-07 2.13329e-24)
(0.000459294 4.70945e-07 -5.07799e-24)
(0.000458704 4.11684e-07 4.72555e-24)
(0.000459343 3.20626e-07 -6.81285e-24)
(0.000461075 1.82038e-07 2.19665e-24)
(0.000464067 -8.75087e-08 7.42043e-24)
(0.000468725 -6.31446e-07 -2.2895e-24)
(0.000476383 -2.07786e-06 -1.98756e-25)
(0.000494234 -7.34138e-06 -2.76626e-24)
(0.000540542 -2.86541e-05 1.26311e-24)
(0.000618404 -9.46276e-05 -9.98529e-25)
(0.00150479 2.22303e-06 -1.12141e-25)
(0.00147112 1.79245e-06 1.39769e-25)
(0.00144788 1.44646e-06 -1.28614e-24)
(0.00143199 1.12856e-06 9.62632e-25)
(0.00142158 7.9958e-07 3.07014e-24)
(0.00141551 4.36732e-07 -4.8923e-24)
(0.00141297 6.29199e-09 -1.37049e-24)
(0.00141395 -5.68014e-07 -3.07283e-25)
(0.00141793 -1.37203e-06 1.12477e-23)
(0.00142556 -2.71432e-06 -8.32412e-24)
(0.00143795 -5.27343e-06 9.07187e-25)
(0.00145792 -1.12694e-05 1.37068e-24)
(0.00149428 -2.84418e-05 -2.01152e-24)
(0.00155811 -8.07613e-05 -5.84247e-25)
(0.00162796 -0.0002 2.60281e-24)
(0.00262488 7.17123e-06 -8.01692e-26)
(0.00256683 5.75299e-06 8.19163e-26)
(0.00252649 4.6413e-06 8.4128e-25)
(0.00249864 3.65245e-06 -2.00327e-24)
(0.00248006 2.66766e-06 1.96131e-24)
(0.00246877 1.59356e-06 1.83599e-24)
(0.00246333 2.66688e-07 -4.73506e-24)
(0.00246363 -1.47635e-06 -2.87335e-24)
(0.00246856 -3.84372e-06 6.92261e-24)
(0.00247909 -7.63711e-06 2.61425e-24)
(0.00249642 -1.43697e-05 -9.11561e-24)
(0.00252256 -2.79913e-05 -1.35347e-24)
(0.00256172 -5.82448e-05 3.88049e-24)
(0.00261263 -0.000124783 6.08024e-24)
(0.00264987 -0.000236638 -3.1356e-24)
(0.00385454 1.60878e-05 2.95923e-26)
(0.00377082 1.30081e-05 -2.06237e-25)
(0.00371219 1.05975e-05 9.18989e-25)
(0.0036713 8.46651e-06 9.7858e-25)
(0.00364352 6.36742e-06 -9.77923e-25)
(0.00362597 4.10885e-06 -5.60441e-24)
(0.00361655 1.37479e-06 -3.78982e-24)
(0.00361472 -2.20843e-06 1.40571e-23)
(0.00361903 -6.81325e-06 5.7239e-24)
(0.00362998 -1.40119e-05 -8.38947e-24)
(0.00364829 -2.58618e-05 -3.38207e-24)
(0.00367392 -4.67741e-05 -2.56256e-24)
(0.00370619 -8.49786e-05 8.17478e-26)
(0.00373772 -0.000150801 1.88723e-24)
(0.00374973 -0.000239901 9.21411e-27)
(0.00519817 2.98745e-05 -5.4229e-26)
(0.00508842 2.43071e-05 -3.32375e-25)
(0.00501085 1.99466e-05 -2.0945e-25)
(0.00495612 1.61153e-05 5.68074e-25)
(0.00491823 1.23866e-05 -1.60397e-24)
(0.0048934 8.44302e-06 3.9989e-24)
(0.00487884 3.79057e-06 -7.07681e-25)
(0.00487321 -2.00968e-06 2.44162e-24)
(0.00487515 -9.61062e-06 -1.35207e-23)
(0.00488391 -2.04635e-05 2.56137e-23)
(0.00489927 -3.70151e-05 -2.4817e-23)
(0.00491941 -6.27375e-05 1.30546e-23)
(0.0049409 -0.000102665 -1.20874e-23)
(0.00495577 -0.000160057 1.14007e-23)
(0.00495319 -0.000227556 -4.54912e-24)
(0.00665665 4.95756e-05 7.15816e-26)
(0.00652219 4.06196e-05 2.57027e-25)
(0.00642606 3.35852e-05 -1.35435e-24)
(0.0063573 2.74364e-05 -8.52669e-25)
(0.00630881 2.15272e-05 2.29436e-24)
(0.00627588 1.53898e-05 8.18195e-25)
(0.00625512 8.37664e-06 -6.38504e-24)
(0.00624435 -9.29066e-08 1.52038e-23)
(0.00624183 -1.07779e-05 -1.97145e-23)
(0.0062461 -2.5233e-05 4.73571e-24)
(0.00625556 -4.5289e-05 1.42959e-23)
(0.00626752 -7.31221e-05 -1.98197e-23)
(0.00627794 -0.000110712 9.91833e-24)
(0.00628079 -0.000157606 1.01848e-23)
(0.00627098 -0.000207617 -7.75786e-24)
(0.00822496 7.60362e-05 5.92321e-26)
(0.00806989 6.28516e-05 -3.50842e-25)
(0.00795733 5.24236e-05 1.25602e-24)
(0.00787554 4.33316e-05 -1.74062e-24)
(0.0078167 3.46927e-05 -5.88721e-24)
(0.00777542 2.58798e-05 1.00334e-23)
(0.00774776 1.61426e-05 -6.06716e-24)
(0.00773085 4.77011e-06 2.05688e-23)
(0.00772239 -8.97243e-06 -1.39957e-23)
(0.0077203 -2.63503e-05 -6.5136e-24)
(0.00772224 -4.85556e-05 -1.2767e-23)
(0.00772525 -7.64078e-05 1.17407e-23)
(0.00772593 -0.000109913 3.30025e-24)
(0.0077205 -0.000147293 2.83441e-24)
(0.00770715 -0.000184351 -2.49528e-24)
(0.00988943 0.000109405 -8.57377e-26)
(0.00972186 9.14642e-05 1.16295e-24)
(0.00959769 7.70847e-05 -2.7051e-24)
(0.00950573 6.4522e-05 -2.20519e-24)
(0.00943814 5.26864e-05 8.376e-25)
(0.00938924 4.08122e-05 1.63054e-24)
(0.00935475 2.81059e-05 5.79845e-24)
(0.00933136 1.38262e-05 -1.5736e-23)
(0.0093163 -2.67696e-06 -8.3377e-24)
(0.00930706 -2.22017e-05 2.30432e-23)
(0.00930109 -4.52841e-05 -7.12291e-24)
(0.0092957 -7.1834e-05 2.43704e-23)
(0.00928844 -0.000100973 -1.28293e-23)
(0.00927716 -0.000130882 -4.10593e-24)
(0.00926164 -0.000158996 2.43466e-24)
(0.0116261 0.000148464 -1.14758e-26)
(0.0114588 0.000125941 6.45075e-25)
(0.0113313 0.000107474 -9.17914e-25)
(0.0112346 9.11941e-05 2.19062e-24)
(0.0111617 7.59102e-05 -1.30306e-23)
(0.0111074 6.07862e-05 1.37478e-23)
(0.0110674 4.5055e-05 -2.15566e-23)
(0.0110382 2.80505e-05 1.32727e-23)
(0.011017 9.28522e-06 9.83336e-24)
(0.011001 -1.16069e-05 2.12846e-23)
(0.0109879 -3.46306e-05 -2.77985e-23)
(0.0109755 -5.92705e-05 -5.15626e-24)
(0.0109623 -8.44936e-05 2.3515e-24)
(0.0109468 -0.000108923 1.70377e-23)
(0.0109296 -0.000131093 -6.94441e-24)
(0.0134035 0.000189988 6.47345e-26)
(0.0132525 0.000164155 -2.75016e-25)
(0.0131329 0.000142202 1.21399e-24)
(0.0130393 0.000122478 -4.24322e-24)
(0.0129668 0.000103891 6.41832e-24)
(0.0129111 8.56588e-05 -8.25971e-24)
(0.0128684 6.71255e-05 1.37932e-23)
(0.0128356 4.77834e-05 2.39381e-24)
(0.0128098 2.73594e-05 -1.895e-23)
(0.0127887 5.80125e-06 2.69586e-23)
(0.0127704 -1.6602e-05 -2.97342e-23)
(0.012753 -3.92415e-05 -8.78825e-24)
(0.0127357 -6.12689e-05 1.54666e-23)
(0.0127176 -8.18074e-05 4.60972e-24)
(0.0126993 -0.000100073 -2.01773e-24)
(0.0151929 0.000228876 2.77302e-25)
(0.0150727 0.000202115 -2.17638e-24)
(0.0149725 0.000178164 -3.39708e-24)
(0.014891 0.00015597 8.09722e-24)
(0.0148258 0.000134781 3.58648e-24)
(0.0147739 0.000114033 -2.25234e-23)
(0.0147327 9.32798e-05 6.9588e-24)
(0.0146995 7.22292e-05 4.9941e-24)
(0.0146721 5.08143e-05 -2.14917e-23)
(0.0146486 2.91847e-05 2.2389e-23)
(0.0146276 7.70194e-06 -1.79642e-23)
(0.0146077 -1.31095e-05 4.61284e-23)
(0.0145885 -3.2668e-05 -2.2238e-23)
(0.0145693 -5.04912e-05 1.31251e-23)
(0.0145508 -6.6198e-05 -3.59087e-24)
(0.0169861 0.000260195 -1.29028e-25)
(0.016902 0.000235106 1.5231e-24)
(0.0168277 0.000211122 -2.88758e-24)
(0.0167647 0.000187955 -1.42817e-24)
(0.0167123 0.000165363 1.60305e-23)
(0.0166691 0.000143128 -2.36483e-24)
(0.0166334 0.000121084 -2.83579e-23)
(0.0166034 9.91754e-05 3.30239e-23)
(0.0165777 7.75047e-05 -7.4176e-24)
(0.0165549 5.63095e-05 -2.56659e-23)
(0.016534 3.59283e-05 2.74098e-23)
(0.0165142 1.67271e-05 1.48648e-23)
(0.0164953 -9.45051e-07 -1.24082e-23)
(0.0164768 -1.68662e-05 -2.16729e-23)
(0.0164593 -3.0886e-05 1.82478e-24)
(0.018803 0.000282642 2.44356e-26)
(0.0187481 0.000260607 -1.76014e-24)
(0.0186972 0.00023801 8.00325e-24)
(0.0186525 0.000215199 3.99146e-25)
(0.018614 0.000192429 4.371e-24)
(0.0185812 0.000169837 -1.58497e-23)
(0.0185531 0.000147531 1.34611e-23)
(0.0185286 0.000125655 3.04674e-24)
(0.0185068 0.000104426 2.76457e-23)
(0.0184869 8.40965e-05 -4.26991e-23)
(0.0184684 6.49355e-05 -1.93712e-23)
(0.0184506 4.71675e-05 -1.28807e-23)
(0.0184338 3.09734e-05 2.41901e-23)
(0.0184172 1.64215e-05 -7.07524e-25)
(0.0184018 3.54069e-06 2.36136e-24)
(0.0206703 0.00029947 -5.77587e-27)
(0.0206321 0.00028031 1.90266e-24)
(0.0205962 0.000259389 -2.75416e-24)
(0.0205642 0.000237471 1.73324e-26)
(0.0205362 0.000215195 3.28083e-24)
(0.0205117 0.000192973 8.26375e-24)
(0.0204901 0.000171109 -3.20522e-23)
(0.0204707 0.000149869 2.7308e-24)
(0.020453 0.000129512 1.62509e-23)
(0.0204365 0.000110262 -7.49532e-24)
(0.0204209 9.23095e-05 2.04641e-23)
(0.0204059 7.57733e-05 1.44039e-23)
(0.0203916 6.07269e-05 -2.61123e-23)
(0.0203776 4.71564e-05 1.79686e-23)
(0.0203645 3.5033e-05 -1.49433e-23)
(0.0225801 0.000313942 -3.28609e-25)
(0.0225515 0.00029733 -2.92214e-25)
(0.0225243 0.00027802 3.43724e-24)
(0.0224998 0.000257117 -1.61694e-23)
(0.0224781 0.000235568 1.41261e-23)
(0.0224588 0.000213997 -9.94971e-24)
(0.0224414 0.000192841 7.17493e-24)
(0.0224255 0.000172424 -5.02225e-23)
(0.0224108 0.000153001 7.25061e-23)
(0.0223969 0.000134751 -4.26973e-23)
(0.0223838 0.000117794 3.81528e-23)
(0.0223711 0.000102179 3.20434e-23)
(0.0223591 8.79162e-05 -5.6012e-23)
(0.0223472 7.49534e-05 1.82662e-23)
(0.0223362 6.32337e-05 -7.69812e-25)
(0.0244758 0.00032634 -1.30288e-26)
(0.0244557 0.000312231 -1.22826e-24)
(0.0244357 0.000294724 1.2666e-24)
(0.0244172 0.00027519 -4.56087e-25)
(0.0244004 0.000254734 5.96979e-24)
(0.0243851 0.000234108 -1.01065e-23)
(0.0243711 0.00021384 9.21675e-24)
(0.024358 0.000194302 -2.88253e-23)
(0.0243458 0.000175743 6.53878e-23)
(0.0243341 0.000158309 -8.35501e-23)
(0.024323 0.000142074 6.84258e-23)
(0.0243123 0.00012705 -2.31132e-23)
(0.0243021 0.000113218 1.21352e-24)
(0.0242921 0.000100514 5.35262e-24)
(0.0242827 8.88716e-05 -1.02375e-23)
(0.0262683 0.000334857 -1.06819e-24)
(0.0262573 0.000324456 7.81425e-25)
(0.0262442 0.000308855 1.16525e-24)
(0.0262314 0.00029097 -3.11755e-24)
(0.0262195 0.000271965 1.0704e-23)
(0.0262083 0.000252585 -1.04986e-23)
(0.0261978 0.000233397 -8.74599e-24)
(0.0261877 0.000214805 -2.07169e-23)
(0.0261782 0.000197065 1.09091e-23)
(0.0261689 0.000180307 5.02558e-23)
(0.0261601 0.000164589 -2.64618e-23)
(0.0261515 0.00014991 1.57266e-23)
(0.0261433 0.000136245 -6.46966e-24)
(0.0261351 0.000123535 -1.92083e-23)
(0.0261276 0.000111721 9.83652e-24)
(0.0278422 0.00033827 3.07424e-25)
(0.027838 0.000331679 -4.68625e-25)
(0.0278316 0.000319531 1.75763e-24)
(0.0278244 0.000303611 -6.62803e-24)
(0.0278171 0.000286357 -2.06314e-24)
(0.02781 0.000268469 1.88521e-23)
(0.027803 0.000250519 -1.41005e-23)
(0.0277962 0.000232931 -8.11438e-24)
(0.0277897 0.000215975 7.63279e-24)
(0.0277832 0.000199786 -8.4489e-24)
(0.0277768 0.000184426 1.97825e-23)
(0.0277705 0.000169901 9.85117e-24)
(0.0277645 0.000156196 -3.68574e-23)
(0.0277584 0.000143268 2.54039e-23)
(0.0277527 0.000131071 -5.16978e-24)
(0.0290355 0.000339467 9.90403e-25)
(0.0290357 0.000334573 8.07182e-25)
(0.0290351 0.000324975 -2.28529e-24)
(0.0290336 0.000311375 2.63653e-24)
(0.0290315 0.000296038 -3.6719e-24)
(0.0290288 0.000279785 -7.88985e-24)
(0.0290258 0.000263224 -8.23205e-24)
(0.0290227 0.000246773 2.20867e-23)
(0.0290194 0.000230692 2.04881e-23)
(0.029016 0.000215121 -4.91624e-23)
(0.0290125 0.000200136 2.76519e-23)
(0.0290088 0.000185759 -1.88965e-24)
(0.0290052 0.000171991 -1.51809e-24)
(0.0290014 0.000158809 2.02829e-24)
(0.0289978 0.000146183 -9.29974e-25)
(0.0296226 0.000333416 -2.64795e-24)
(0.0296303 0.000330042 -4.23233e-24)
(0.0296361 0.000321987 4.36213e-24)
(0.0296407 0.00031072 4.30243e-24)
(0.0296441 0.00029743 -6.70889e-25)
(0.0296465 0.000282981 2.51014e-24)
(0.0296482 0.00026797 -2.05859e-24)
(0.0296494 0.000252784 -1.59898e-23)
(0.0296501 0.000237665 3.62807e-23)
(0.0296505 0.000222762 -1.50061e-23)
(0.0296505 0.00020817 6.07439e-24)
(0.0296501 0.000193935 -1.05428e-23)
(0.0296496 0.000180085 -1.08182e-23)
(0.0296488 0.000166619 1.58609e-23)
(0.029648 0.000153531 -6.80439e-24)
(0.0294128 0.000321601 4.04287e-24)
(0.0294245 0.00031992 -8.84141e-24)
(0.0294343 0.000313818 1.85107e-24)
(0.0294426 0.000304491 8.76464e-24)
(0.0294497 0.000293003 -7.03004e-24)
(0.0294558 0.000280179 8.7601e-25)
(0.0294611 0.000266572 -4.06547e-24)
(0.0294657 0.000252525 1.03551e-23)
(0.0294697 0.000238261 4.48542e-24)
(0.0294732 0.000223931 -8.14679e-24)
(0.0294762 0.000209645 -4.86799e-24)
(0.0294788 0.000195471 5.98325e-24)
(0.029481 0.000181456 -6.51722e-24)
(0.029483 0.000167621 3.84159e-24)
(0.0294847 0.000153983 -1.68857e-24)
(0.0284343 0.000303771 2.43552e-24)
(0.0284546 0.000302781 -5.0155e-24)
(0.0284721 0.000297727 -2.97534e-24)
(0.0284875 0.000289766 1.39759e-23)
(0.0285009 0.000279799 -1.18662e-23)
(0.0285128 0.00026848 1.61828e-24)
(0.0285232 0.000256254 1.62796e-24)
(0.0285325 0.000243411 3.65171e-25)
(0.0285407 0.000230153 -7.86091e-25)
(0.028548 0.000216624 6.60094e-24)
(0.0285544 0.000202935 -3.95757e-24)
(0.0285601 0.000189164 1.04701e-24)
(0.028565 0.00017537 -9.21438e-24)
(0.0285695 0.000161589 4.50719e-24)
(0.0285733 0.00014785 1.62124e-24)
(0.0268521 0.000279762 5.96783e-24)
(0.026875 0.000278846 -1.05045e-23)
(0.0268959 0.000274418 2.17382e-24)
(0.0269149 0.000267487 -4.61824e-24)
(0.0269323 0.000258762 -5.42037e-24)
(0.0269482 0.000248735 1.91838e-23)
(0.0269628 0.000237759 -6.94316e-24)
(0.0269761 0.000226083 1.65782e-24)
(0.0269883 0.000213884 -7.73494e-25)
(0.0269996 0.000201297 -4.99891e-25)
(0.0270098 0.000188425 4.1699e-26)
(0.0270193 0.000175347 1.38868e-24)
(0.027028 0.000162126 7.37494e-26)
(0.027036 0.000148807 -1.07638e-24)
(0.0270433 0.000135426 2.05236e-25)
(0.0249476 0.000255904 2.27952e-24)
(0.0249746 0.000254835 -1.17144e-23)
(0.0249998 0.000250793 2.01891e-23)
(0.0250232 0.000244571 -1.52806e-23)
(0.0250448 0.000236728 1.49286e-23)
(0.0250649 0.000227647 -5.08037e-24)
(0.0250836 0.000217614 -3.41431e-24)
(0.0251009 0.00020684 -3.43006e-24)
(0.0251169 0.000195483 5.28908e-24)
(0.0251319 0.000183662 -8.6362e-25)
(0.0251457 0.000171478 -4.1872e-24)
(0.0251586 0.000159008 -6.83588e-26)
(0.0251705 0.000146315 1.96676e-25)
(0.0251816 0.00013345 1.23768e-25)
(0.0251918 0.000120455 -6.59013e-26)
(0.0228647 0.000229919 3.02442e-25)
(0.0228968 0.000228558 -4.43048e-24)
(0.0229271 0.000224702 -2.48858e-24)
(0.0229554 0.000218959 2.02728e-23)
(0.0229819 0.000211769 -1.99147e-23)
(0.0230067 0.000203436 5.81351e-24)
(0.0230299 0.000194192 9.70235e-25)
(0.0230515 0.000184213 -4.98452e-25)
(0.0230717 0.000173641 -2.22577e-24)
(0.0230906 0.000162584 9.27948e-24)
(0.0231082 0.000151136 -7.23532e-24)
(0.0231247 0.00013937 -1.79353e-25)
(0.0231399 0.000127349 4.92246e-25)
(0.0231542 0.000115124 6.76182e-26)
(0.0231673 0.000102742 -1.00363e-26)
(0.0207167 0.000201557 4.50187e-25)
(0.0207539 0.000199883 4.14609e-24)
(0.0207892 0.00019615 -4.75186e-24)
(0.0208223 0.00019082 -3.3389e-24)
(0.0208535 0.000184233 2.13595e-23)
(0.0208827 0.000176628 -1.63405e-23)
(0.0209102 0.000168191 -3.73087e-25)
(0.0209359 0.000159072 -3.38385e-24)
(0.02096 0.000149391 -2.47776e-25)
(0.0209825 0.000139245 5.06275e-25)
(0.0210036 0.000128717 -1.60506e-24)
(0.0210232 0.000117872 1.46359e-24)
(0.0210414 0.000106771 5.56053e-25)
(0.0210582 9.54643e-05 4.40993e-25)
(0.0210737 8.39982e-05 2.41069e-25)
(0.0185827 0.000171889 3.21416e-24)
(0.0186239 0.000169999 -4.94623e-24)
(0.0186632 0.000166447 -4.0665e-24)
(0.0187002 0.000161582 1.2419e-23)
(0.018735 0.000155655 -4.44766e-24)
(0.0187678 0.000148851 -6.39081e-24)
(0.0187985 0.00014132 2.22886e-24)
(0.0188274 0.000133181 5.0557e-24)
(0.0188543 0.000124537 -8.04459e-24)
(0.0188796 0.000115469 7.92968e-24)
(0.018903 0.000106047 -4.17271e-24)
(0.0189247 9.63329e-05 1.72524e-24)
(0.0189448 8.63799e-05 -2.02409e-24)
(0.0189632 7.62385e-05 1.86647e-24)
(0.01898 6.59527e-05 -3.80951e-25)
(0.0165122 0.000142375 -6.2529e-25)
(0.0165559 0.000140435 -2.20716e-24)
(0.0165975 0.000137182 -7.13985e-24)
(0.0166367 0.000132882 1.99459e-23)
(0.0166736 0.000127708 -3.52146e-24)
(0.0167084 0.000121799 -5.72463e-24)
(0.016741 0.000115272 2.03635e-24)
(0.0167715 0.000108224 -2.9441e-24)
(0.0168 0.000100736 -6.43217e-24)
(0.0168265 9.28779e-05 6.19422e-24)
(0.016851 8.47095e-05 2.97716e-25)
(0.0168735 7.62857e-05 -1.88946e-24)
(0.0168941 6.76566e-05 2.15985e-24)
(0.0169128 5.88687e-05 1.04036e-25)
(0.0169295 4.99651e-05 -1.3655e-25)
(0.0145339 0.000114475 2.41198e-24)
(0.0145781 0.000112648 3.63173e-24)
(0.0146202 0.000109815 -3.31061e-24)
(0.0146598 0.000106169 -7.4889e-24)
(0.0146972 0.000101817 1.02205e-23)
(0.0147323 9.68642e-05 -1.13257e-23)
(0.0147652 9.14007e-05 -5.16673e-25)
(0.0147959 8.55042e-05 4.45643e-24)
(0.0148244 7.924e-05 1.57295e-24)
(0.0148508 7.26651e-05 -3.28955e-24)
(0.014875 6.58313e-05 1.70751e-26)
(0.0148971 5.87864e-05 6.63613e-24)
(0.014917 5.15751e-05 -2.53945e-24)
(0.0149348 4.42382e-05 -6.12043e-25)
(0.0149504 3.6816e-05 -3.43228e-26)
(0.0126636 8.93237e-05 -2.51096e-24)
(0.0127065 8.77326e-05 3.24106e-24)
(0.0127473 8.53997e-05 3.83448e-25)
(0.0127858 8.24463e-05 6.84362e-24)
(0.012822 7.89346e-05 -5.52882e-24)
(0.0128561 7.49434e-05 4.94566e-25)
(0.0128879 7.0544e-05 -5.79889e-25)
(0.0129175 6.57959e-05 -1.81527e-24)
(0.0129448 6.07506e-05 1.63666e-24)
(0.0129699 5.54546e-05 -5.27534e-24)
(0.0129928 4.99507e-05 3.69813e-25)
(0.0130135 4.42793e-05 1.27163e-24)
(0.0130319 3.84783e-05 7.87576e-25)
(0.013048 3.25827e-05 3.00557e-25)
(0.0130619 2.66272e-05 9.74087e-26)
(0.0109097 6.75934e-05 1.86349e-24)
(0.0109498 6.63036e-05 -1.46803e-24)
(0.0109879 6.44928e-05 -6.65997e-24)
(0.0110239 6.22133e-05 6.25853e-24)
(0.0110579 5.95013e-05 9.00503e-24)
(0.0110897 5.64192e-05 -2.18401e-24)
(0.0111194 5.30203e-05 -4.69208e-24)
(0.0111469 4.93491e-05 -6.77487e-24)
(0.0111723 4.5445e-05 5.13876e-24)
(0.0111954 4.13449e-05 3.10302e-25)
(0.0112163 3.70831e-05 -1.17298e-24)
(0.011235 3.26925e-05 -3.13256e-25)
(0.0112515 2.82037e-05 6.43647e-25)
(0.0112657 2.36458e-05 -2.99385e-26)
(0.0112776 1.90475e-05 -1.1339e-25)
(0.00927638 4.95129e-05 -1.17475e-24)
(0.0093126 4.85386e-05 -8.65156e-25)
(0.00934709 4.72166e-05 1.01774e-24)
(0.00937976 4.55424e-05 -3.39175e-24)
(0.00941057 4.35437e-05 1.11736e-23)
(0.00943944 4.12688e-05 -1.50313e-23)
(0.00946635 3.87553e-05 1.49359e-23)
(0.00949126 3.60354e-05 -6.37592e-24)
(0.00951412 3.31386e-05 1.48801e-24)
(0.0095349 3.00932e-05 3.4218e-26)
(0.00955358 2.69254e-05 -1.16753e-24)
(0.00957013 2.3661e-05 3.87863e-25)
(0.00958453 2.03237e-05 -8.87134e-25)
(0.00959679 1.6937e-05 -1.09915e-25)
(0.00960687 1.35229e-05 5.33955e-26)
(0.00776521 3.49779e-05 -5.71608e-25)
(0.00779692 3.42932e-05 1.40552e-25)
(0.00782722 3.33879e-05 3.20907e-25)
(0.007856 3.22205e-05 -1.54364e-24)
(0.00788317 3.082e-05 -7.31371e-25)
(0.00790867 2.92206e-05 6.16546e-24)
(0.00793243 2.74474e-05 -3.64519e-24)
(0.0079544 2.5523e-05 5.3797e-25)
(0.00797454 2.34687e-05 -5.18279e-25)
(0.00799281 2.1305e-05 -5.6992e-25)
(0.00800916 1.90515e-05 -1.66816e-25)
(0.00802358 1.67271e-05 1.08119e-24)
(0.00803603 1.43497e-05 2.52035e-25)
(0.00804651 1.19374e-05 -6.27839e-25)
(0.008055 9.50631e-06 -8.90509e-26)
(0.00637566 2.36743e-05 -2.08099e-25)
(0.00640257 2.32291e-05 -7.25961e-26)
(0.00642841 2.26501e-05 -3.45077e-24)
(0.00645302 2.18816e-05 8.70562e-25)
(0.00647632 2.09544e-05 -2.59728e-24)
(0.00649823 1.98897e-05 1.7308e-24)
(0.00651867 1.87033e-05 3.42718e-24)
(0.00653759 1.74106e-05 2.63808e-24)
(0.00655493 1.60261e-05 -3.72468e-24)
(0.00657066 1.45641e-05 1.12631e-24)
(0.00658471 1.30382e-05 9.69012e-25)
(0.00659708 1.1462e-05 -1.38086e-24)
(0.00660773 9.84815e-06 7.36761e-25)
(0.00661665 8.21004e-06 -4.04585e-26)
(0.00662383 6.55887e-06 1.66971e-25)
(0.00510535 1.51824e-05 -8.15767e-25)
(0.00512741 1.49168e-05 -1.14319e-24)
(0.00514873 1.45744e-05 -2.36089e-25)
(0.00516911 1.41021e-05 2.86406e-24)
(0.00518846 1.35286e-05 -2.07129e-24)
(0.00520671 1.28647e-05 -4.31243e-25)
(0.00522379 1.21199e-05 3.41876e-24)
(0.00523963 1.1304e-05 2.85211e-26)
(0.00525418 1.04263e-05 -6.97776e-25)
(0.00526738 9.49627e-06 -2.62495e-24)
(0.0052792 8.52278e-06 2.91216e-25)
(0.00528961 7.51499e-06 1.80486e-24)
(0.00529858 6.48134e-06 -2.32834e-25)
(0.00530611 5.43136e-06 -2.27737e-25)
(0.00531217 4.37257e-06 1.46727e-25)
(0.00395024 9.04834e-06 -1.78414e-25)
(0.00396759 8.90472e-06 8.3876e-27)
(0.00398447 8.72109e-06 1.36805e-24)
(0.00400067 8.45576e-06 9.47211e-25)
(0.00401612 8.13106e-06 -6.19078e-25)
(0.00403074 7.75076e-06 -1.60916e-24)
(0.00404448 7.3204e-06 6.68732e-25)
(0.00405726 6.84564e-06 -2.83935e-24)
(0.00406903 6.33203e-06 2.19233e-24)
(0.00407976 5.7853e-06 1.14321e-24)
(0.00408939 5.21087e-06 -5.70807e-27)
(0.0040979 4.61447e-06 -1.24631e-24)
(0.00410527 4.0013e-06 2.20976e-25)
(0.00411149 3.37771e-06 -1.57947e-25)
(0.00411653 2.74877e-06 7.55873e-26)
(0.00290488 4.82938e-06 -3.28674e-25)
(0.00291776 4.7582e-06 2.62799e-27)
(0.0029304 4.67137e-06 1.09476e-24)
(0.00294256 4.54003e-06 -6.8602e-25)
(0.00295423 4.37779e-06 2.90895e-24)
(0.00296532 4.18496e-06 -5.32979e-24)
(0.00297577 3.9644e-06 4.40325e-24)
(0.00298555 3.71903e-06 -3.71895e-24)
(0.00299459 3.4518e-06 2.69885e-24)
(0.00300287 3.16584e-06 -1.74487e-24)
(0.00301034 2.86408e-06 6.01969e-25)
(0.00301697 2.54975e-06 8.72096e-26)
(0.00302276 2.22568e-06 1.32956e-25)
(0.00302768 1.89576e-06 -1.61449e-25)
(0.00303172 1.56349e-06 3.13061e-26)
(0.00196278 2.13101e-06 4.98932e-25)
(0.00197151 2.09638e-06 5.52239e-25)
(0.00198015 2.06153e-06 -2.35085e-24)
(0.00198849 2.00799e-06 1.73556e-24)
(0.00199654 1.94143e-06 -1.12259e-26)
(0.00200422 1.86122e-06 4.70141e-25)
(0.00201151 1.7686e-06 -5.63111e-25)
(0.00201836 1.66481e-06 -1.21285e-24)
(0.00202472 1.55115e-06 1.21056e-24)
(0.00203058 1.42904e-06 1.30193e-25)
(0.0020359 1.29976e-06 -9.78276e-25)
(0.00204066 1.16484e-06 3.52366e-25)
(0.00204484 1.02551e-06 2.04963e-25)
(0.00204844 8.83762e-07 -2.52059e-26)
(0.00205143 7.4196e-07 -2.11153e-26)
(0.00111675 6.46865e-07 -5.03675e-25)
(0.00112169 6.3811e-07 1.55303e-24)
(0.00112661 6.33714e-07 9.55893e-25)
(0.00113139 6.22946e-07 -1.69175e-24)
(0.00113602 6.07098e-07 -1.9979e-25)
(0.00114048 5.86106e-07 -1.82738e-25)
(0.00114473 5.60535e-07 5.69077e-25)
(0.00114875 5.30891e-07 -9.66914e-25)
(0.00115251 4.97666e-07 1.33189e-24)
(0.00115598 4.61372e-07 -6.52535e-25)
(0.00115916 4.22428e-07 -4.26977e-25)
(0.00116203 3.81351e-07 2.57269e-25)
(0.00116458 3.38414e-07 -2.94902e-25)
(0.00116679 2.94245e-07 2.90358e-25)
(0.00116866 2.4997e-07 -4.5941e-26)
(0.000359258 1.14908e-07 -3.59702e-27)
(0.000360761 1.48757e-07 3.03103e-25)
(0.000362283 1.76418e-07 3.5551e-25)
(0.000363777 1.95688e-07 -5.49882e-25)
(0.000365244 2.07764e-07 1.17763e-24)
(0.000366669 2.13499e-07 -1.27547e-24)
(0.000368042 2.13637e-07 8.60963e-26)
(0.000369352 2.08723e-07 7.32055e-25)
(0.000370589 1.99175e-07 -1.01222e-24)
(0.000371745 1.85313e-07 -1.8675e-25)
(0.000372812 1.67356e-07 7.07764e-25)
(0.000373786 1.45503e-07 -3.12284e-25)
(0.000374659 1.19818e-07 -1.11522e-25)
(0.000375429 9.04191e-08 9.23591e-26)
(0.000376093 5.76195e-08 -3.81793e-27)
(0.00091727 -0.000254126 9.85421e-26)
(0.00104672 -0.000183773 2.61412e-24)
(0.00126404 -0.000109683 -7.64762e-24)
(0.00148518 -4.93095e-05 1.13775e-23)
(0.00169624 -7.27557e-07 -4.27204e-24)
(0.0019025 3.70723e-05 -4.28606e-24)
(0.00210441 6.66739e-05 4.94748e-24)
(0.00230312 9.01338e-05 -9.94714e-24)
(0.0024998 0.000109131 5.69115e-25)
(0.00269539 0.000124993 6.36191e-24)
(0.00289065 0.000138791 -1.23179e-24)
(0.0030862 0.000151471 1.34689e-24)
(0.00328265 0.000163919 -1.23113e-25)
(0.00348076 0.000177022 8.86738e-25)
(0.00368155 0.000191685 -3.27216e-24)
(0.00388648 0.000208588 1.81038e-24)
(0.00409801 0.000228139 -6.09092e-25)
(0.00431951 0.000250662 2.01545e-26)
(0.00455557 0.000275488 1.54023e-24)
(0.00481209 0.00030017 -9.79632e-25)
(0.0050965 0.000319091 1.27148e-25)
(0.00541457 0.000322383 -1.11626e-25)
(0.00574205 0.000295306 2.0903e-25)
(0.0060353 0.00023519 7.87096e-25)
(0.00627912 0.000148345 -1.41561e-24)
(0.00647311 4.15766e-05 -9.34961e-25)
(0.00661846 -7.89859e-05 4.08044e-26)
(0.00671697 -0.00020893 2.31594e-24)
(0.00677031 -0.000344576 3.20353e-24)
(0.00677974 -0.000482005 -6.30018e-24)
(0.00674602 -0.000616695 5.42342e-24)
(0.00666979 -0.000743392 -5.01241e-24)
(0.00655183 -0.000856108 1.32901e-24)
(0.0063933 -0.000948199 -9.76556e-26)
(0.0061958 -0.00101244 2.69394e-26)
(0.00596131 -0.00104096 5.65966e-24)
(0.0056921 -0.00102499 -8.89197e-25)
(0.00539053 -0.000954115 2.28673e-24)
(0.00505922 -0.000814857 1.485e-24)
(0.00470148 -0.000588848 -1.10021e-23)
(0.00432083 -0.000253174 -1.40561e-25)
(0.0039225 0.000210885 5.11725e-24)
(0.00349677 0.000784161 1.88922e-24)
(0.0030633 0.00136528 -7.41327e-24)
(0.00281762 0.00161062 -3.89911e-25)
(0.00172008 -0.000332752 -2.94063e-24)
(0.00177194 -0.000295147 -4.30874e-24)
(0.0019026 -0.000223472 8.94689e-24)
(0.00206789 -0.0001555 4.38657e-24)
(0.00224298 -9.65277e-05 -1.53711e-23)
(0.00242357 -4.83191e-05 1.66753e-23)
(0.00260603 -9.36054e-06 -6.01343e-24)
(0.00278909 2.22875e-05 4.95503e-24)
(0.00297262 4.84183e-05 -6.54009e-24)
(0.00315678 7.05164e-05 6.70003e-26)
(0.00334191 8.97991e-05 -3.58846e-24)
(0.00352839 0.000107324 7.13991e-24)
(0.00371667 0.000124043 -3.99299e-24)
(0.00390743 0.000140881 -3.73158e-24)
(0.00410161 0.000158755 -2.65838e-24)
(0.00430056 0.000178316 4.79538e-24)
(0.00450667 0.000199932 -6.82776e-25)
(0.00472314 0.000223919 2.78054e-24)
(0.00495429 0.000249596 5.17704e-25)
(0.00520569 0.000274526 -8.75036e-25)
(0.00548445 0.000293283 -3.84801e-25)
(0.00579619 0.000296431 -2.36378e-25)
(0.00611765 0.000269956 1.13677e-24)
(0.0064065 0.000211705 1.34303e-24)
(0.00664786 0.000127892 -1.24219e-24)
(0.00684114 2.51263e-05 -5.75259e-24)
(0.00698719 -9.05331e-05 7.68473e-24)
(0.00708748 -0.000214653 -5.30898e-24)
(0.0071435 -0.000343485 1.77735e-24)
(0.00715648 -0.000473021 -1.07147e-24)
(0.00712733 -0.000598657 7.98475e-24)
(0.00705695 -0.000715109 -1.05203e-23)
(0.00694651 -0.000816405 5.14394e-24)
(0.00679767 -0.000895964 -7.79118e-25)
(0.00661271 -0.000946641 -3.004e-24)
(0.00639455 -0.000960666 1.13196e-24)
(0.00614677 -0.000929377 1.14358e-23)
(0.00587378 -0.000842586 -2.60822e-24)
(0.00558137 -0.000687407 -1.02638e-23)
(0.00527817 -0.000446591 -6.79318e-24)
(0.00497748 -9.86111e-05 1.55431e-23)
(0.00470211 0.000374495 -1.55754e-23)
(0.00447787 0.00095313 -4.14201e-24)
(0.00434831 0.00152282 1.04953e-23)
(0.00436981 0.00170273 3.82101e-24)
(0.00266477 -0.000338439 -3.49789e-26)
(0.00266958 -0.000339437 -5.00401e-24)
(0.0027209 -0.00029837 9.5411e-24)
(0.00282136 -0.000240277 8.43581e-24)
(0.00294688 -0.000181641 -1.36527e-23)
(0.003089 -0.000129006 2.6568e-25)
(0.00324108 -8.40342e-05 1.36684e-24)
(0.00339946 -4.60544e-05 1.51874e-23)
(0.00356228 -1.38336e-05 -1.80298e-23)
(0.00372859 1.39072e-05 1.12659e-23)
(0.00389804 3.83369e-05 3.52771e-24)
(0.00407057 6.05166e-05 -1.91418e-23)
(0.00424634 8.14058e-05 6.92865e-24)
(0.00442587 0.000101927 2.84541e-24)
(0.00460994 0.000122996 -6.12755e-24)
(0.00479976 0.000145213 1.01714e-23)
(0.0049976 0.000168891 -7.36614e-24)
(0.00520647 0.000194343 -2.48072e-25)
(0.0054304 0.000220875 5.47e-25)
(0.0056746 0.000246055 6.63174e-25)
(0.0059458 0.000264649 8.19007e-26)
(0.00624941 0.000267651 4.1798e-25)
(0.00656319 0.000241781 -1.14584e-24)
(0.00684626 0.000185426 3.38156e-24)
(0.00708403 0.000104705 -5.25845e-24)
(0.00727567 6.03881e-06 3.00915e-24)
(0.00742171 -0.000104567 -6.7714e-24)
(0.00752327 -0.000222657 9.11191e-24)
(0.00758163 -0.000344419 -8.20558e-24)
(0.00759803 -0.000465759 4.93486e-25)
(0.00757351 -0.000581998 2.25384e-25)
(0.00750929 -0.000687827 1.23335e-23)
(0.00740696 -0.000777323 -3.93894e-24)
(0.00726873 -0.000844019 -2.66773e-25)
(0.00709763 -0.000880963 -3.57928e-24)
(0.00689755 -0.000880681 1.11296e-23)
(0.00667348 -0.000834987 -8.76475e-24)
(0.00643189 -0.000734577 1.62598e-23)
(0.00618157 -0.000568349 -3.2067e-23)
(0.00593569 -0.000322597 1.24359e-23)
(0.00571442 1.797e-05 4.5869e-24)
(0.00554967 0.00046217 7.77135e-24)
(0.00547878 0.000981779 -9.69731e-24)
(0.00552957 0.00146057 3.13363e-24)
(0.00568625 0.00159925 -1.98082e-24)
(0.00373628 -0.000318653 -1.27089e-24)
(0.00371318 -0.000343869 -1.99414e-24)
(0.00371667 -0.000329541 -8.61385e-24)
(0.00375489 -0.00029412 2.16014e-24)
(0.00382674 -0.000245887 1.45717e-24)
(0.00392219 -0.000196551 7.10227e-24)
(0.00403474 -0.000150804 -1.53635e-23)
(0.00415966 -0.000109941 5.75774e-24)
(0.00429375 -7.38867e-05 1.99514e-23)
(0.00443503 -4.19965e-05 -5.26109e-24)
(0.00458234 -1.34296e-05 -5.04587e-24)
(0.0047351 1.27067e-05 -8.16578e-25)
(0.00489311 3.72706e-05 2.74204e-24)
(0.00505663 6.1116e-05 -5.43555e-24)
(0.00522622 8.51146e-05 1.21991e-24)
(0.00540293 0.000109784 -5.35621e-25)
(0.00558888 0.000135353 -3.02498e-24)
(0.00578687 0.000162128 9.65743e-25)
(0.00600062 0.000189404 5.47438e-24)
(0.00623493 0.00021474 -5.97473e-25)
(0.00649611 0.000233097 -1.30833e-24)
(0.0067893 0.000235905 -3.68271e-25)
(0.00709332 0.000210635 -2.02489e-24)
(0.00736882 0.000156231 -7.30233e-26)
(0.00760148 7.87143e-05 -4.63052e-24)
(0.0077902 -1.56915e-05 8.06331e-24)
(0.00793515 -0.000121023 -6.81213e-24)
(0.00803713 -0.000232796 1.30737e-23)
(0.00809722 -0.00034715 -1.11309e-23)
(0.00811665 -0.000459922 2.53521e-24)
(0.00809665 -0.000566387 4.56577e-24)
(0.00803875 -0.000661259 -1.64625e-25)
(0.00794501 -0.000738726 -3.58468e-25)
(0.00781823 -0.000792543 -5.19423e-25)
(0.00766219 -0.000816121 2.6829e-26)
(0.00748176 -0.000802548 -3.91024e-24)
(0.00728325 -0.00074454 2.06013e-23)
(0.00707486 -0.00063434 -1.07295e-23)
(0.00686761 -0.000463653 -2.93749e-27)
(0.00667717 -0.000223884 -3.04829e-23)
(0.00652579 9.17812e-05 2.33577e-23)
(0.0064445 0.000481475 -9.32417e-24)
(0.0064659 0.000913077 1.66495e-24)
(0.00660025 0.0012947 1.29066e-23)
(0.00681456 0.00144794 -3.46782e-24)
(0.0049308 -0.000288331 -5.28583e-24)
(0.00489699 -0.000323198 1.08722e-23)
(0.00487194 -0.000327573 3.17917e-24)
(0.00487018 -0.000313093 1.3789e-23)
(0.00489164 -0.000282971 -3.39799e-23)
(0.00493973 -0.000243466 -1.09613e-24)