/*--------------------------------*- C++ -*----------------------------------*\
| =========                 |                                                 |
| \\      /  F ield         | OpenFOAM: The Open Source CFD Toolbox           |
|  \\    /   O peration     | Version:  2312                                  |
|   \\  /    A nd           | Website:  www.openfoam.com                      |
|    \\/     M anipulation  |                                                 |
\*---------------------------------------------------------------------------*/
FoamFile
{
    version     2.0;
    format      ascii;
    arch        "LSB;label=32;scalar=64";
    class       surfaceScalarField;
    location    "66";
    object      phi;
}
// * * * * * * * * * * * * * * * * * * * * * * * * * * * * * * * * * * * * * //

dimensions      [0 3 -1 0 0 0 0];

oriented        oriented;

internalField   nonuniform List<scalar> 
9445
(
5.80081e-10
8.68527e-12
5.76243e-10
3.83766e-12
5.75287e-10
9.5602e-13
5.76248e-10
-9.60458e-13
5.78207e-10
-1.95937e-12
5.8103e-10
-2.82288e-12
5.84667e-10
-3.63686e-12
5.89139e-10
-4.47248e-12
5.94595e-10
-5.45531e-12
6.01453e-10
-6.85806e-12
6.10863e-10
-9.41012e-12
6.26446e-10
-1.55834e-11
6.60983e-10
-3.45366e-11
7.59349e-10
-9.8366e-11
-2.52709e-10
1.01206e-09
2.03222e-09
3.78203e-11
2.01894e-09
1.71126e-11
2.01523e-09
4.6678e-12
2.01754e-09
-3.26766e-12
2.02321e-09
-7.6278e-12
2.03177e-09
-1.13838e-11
2.04287e-09
-1.4736e-11
2.05653e-09
-1.81382e-11
2.07322e-09
-2.21465e-11
2.09418e-09
-2.78096e-11
2.12232e-09
-3.75512e-11
2.16465e-09
-5.79135e-11
2.23459e-09
-1.04484e-10
2.34477e-09
-2.08544e-10
-3.67273e-10
2.45934e-09
4.02118e-09
9.30843e-11
3.99539e-09
4.28971e-11
3.98746e-09
1.26049e-11
3.99044e-09
-6.25015e-12
3.99971e-09
-1.69015e-11
4.01442e-09
-2.60879e-11
4.03362e-09
-3.39411e-11
4.05718e-09
-4.16977e-11
4.08571e-09
-5.06762e-11
4.1208e-09
-6.28934e-11
4.16544e-09
-8.21948e-11
4.22438e-09
-1.16859e-10
4.30034e-09
-1.8044e-10
4.37937e-09
-2.87568e-10
-4.1327e-10
4.42536e-09
6.69451e-09
1.80606e-10
6.65268e-09
8.47221e-11
6.6385e-09
2.67911e-11
6.64101e-09
-8.76399e-12
6.6533e-09
-2.91885e-11
6.67392e-09
-4.6711e-11
6.70116e-09
-6.11792e-11
6.73434e-09
-7.48814e-11
6.77388e-09
-9.02115e-11
6.82089e-09
-1.09904e-10
6.87676e-09
-1.38072e-10
6.9414e-09
-1.81493e-10
7.00841e-09
-2.47453e-10
7.05792e-09
-3.37078e-10
-4.23902e-10
7.06855e-09
1.02294e-08
3.05933e-10
1.01681e-08
1.46047e-10
1.01453e-08
4.95813e-11
1.01458e-08
-9.24078e-12
1.01602e-08
-4.35905e-11
1.01858e-08
-7.23401e-11
1.02201e-08
-9.54884e-11
1.02616e-08
-1.16329e-10
1.03099e-08
-1.38512e-10
1.0365e-08
-1.64988e-10
1.04259e-08
-1.98978e-10
1.04885e-08
-2.44077e-10
1.05426e-08
-3.01634e-10
1.0572e-08
-3.66433e-10
-4.19383e-10
1.05675e-08
1.48333e-08
4.71777e-10
1.47504e-08
2.28944e-10
1.4717e-08
8.29325e-11
1.4714e-08
-6.17663e-12
1.47297e-08
-5.93529e-11
1.4759e-08
-1.01637e-10
1.47986e-08
-1.35083e-10
1.4846e-08
-1.63748e-10
1.48999e-08
-1.92327e-10
1.49584e-08
-2.23577e-10
1.50188e-08
-2.59317e-10
1.50749e-08
-3.00173e-10
1.51173e-08
-3.44093e-10
1.5136e-08
-3.85074e-10
-4.12407e-10
1.5129e-08
2.07403e-08
6.73989e-10
2.06377e-08
3.31627e-10
2.05941e-08
1.26512e-10
2.05872e-08
7.51063e-13
2.0604e-08
-7.62136e-11
2.06361e-08
-1.33673e-10
2.0679e-08
-1.78026e-10
2.07298e-08
-2.14527e-10
2.07856e-08
-2.48182e-10
2.08435e-08
-2.81471e-10
2.08993e-08
-3.1507e-10
2.09471e-08
-3.48007e-10
2.09805e-08
-3.77496e-10
2.09948e-08
-3.99363e-10
-4.08904e-10
2.09913e-08
2.82043e-08
8.95761e-10
2.80913e-08
4.44673e-10
2.80431e-08
1.74667e-10
2.80355e-08
8.4032e-12
2.80545e-08
-9.52066e-11
2.80896e-08
-1.68788e-10
2.81353e-08
-2.23707e-10
2.81876e-08
-2.6691e-10
2.8243e-08
-3.03553e-10
2.82975e-08
-3.35982e-10
2.83469e-08
-3.64491e-10
2.83869e-08
-3.88006e-10
2.84141e-08
-4.04657e-10
2.84273e-08
-4.12568e-10
-4.10486e-10
2.84289e-08
3.74889e-08
1.10209e-09
3.73867e-08
5.4685e-10
3.73478e-08
2.13621e-10
3.73484e-08
7.7358e-12
3.73749e-08
-1.21709e-10
3.74165e-08
-2.10305e-10
3.74667e-08
-2.73933e-10
3.75212e-08
-3.21398e-10
3.75758e-08
-3.58234e-10
3.76269e-08
-3.87063e-10
3.7671e-08
-4.08604e-10
3.77057e-08
-4.22645e-10
3.77298e-08
-4.28744e-10
3.7744e-08
-4.26828e-10
-4.17366e-10
3.77509e-08
4.88673e-08
1.24071e-09
4.881e-08
6.04125e-10
4.88035e-08
2.20084e-10
4.88288e-08
-1.75439e-11
4.88742e-08
-1.67041e-10
4.893e-08
-2.66156e-10
4.89904e-08
-3.34312e-10
4.9051e-08
-3.82042e-10
4.91083e-08
-4.15544e-10
4.91594e-08
-4.38147e-10
4.92023e-08
-4.51494e-10
4.92362e-08
-4.56527e-10
4.92615e-08
-4.54025e-10
4.92797e-08
-4.45011e-10
-4.30687e-10
4.9293e-08
6.26519e-08
1.25866e-09
6.26776e-08
5.78357e-10
6.27315e-08
1.66245e-10
6.28022e-08
-8.82177e-11
6.28818e-08
-2.46707e-10
6.29638e-08
-3.48119e-10
6.30435e-08
-4.14058e-10
6.3118e-08
-4.56473e-10
6.31848e-08
-4.82394e-10
6.32427e-08
-4.96039e-10
6.32912e-08
-5.0003e-10
6.3331e-08
-4.96253e-10
6.33632e-08
-4.86249e-10
6.33897e-08
-4.71528e-10
-4.53483e-10
6.34125e-08
7.92706e-08
1.13519e-09
7.93999e-08
4.49104e-10
7.95315e-08
3.46211e-11
7.96623e-08
-2.18966e-10
7.97883e-08
-3.72719e-10
7.99064e-08
-4.66213e-10
8.00142e-08
-5.21888e-10
8.01105e-08
-5.52759e-10
8.01948e-08
-5.66678e-10
8.02674e-08
-5.68639e-10
8.03293e-08
-5.61963e-10
8.03821e-08
-5.49062e-10
8.04276e-08
-5.31782e-10
8.04678e-08
-5.11701e-10
-4.90106e-10
8.05044e-08
9.93525e-08
9.04707e-10
9.95659e-08
2.3569e-10
9.97653e-08
-1.647e-10
9.99495e-08
-4.0319e-10
1.00118e-07
-5.41715e-10
1.00271e-07
-6.19008e-10
1.00407e-07
-6.58056e-10
1.00527e-07
-6.72702e-10
1.00632e-07
-6.71496e-10
1.00724e-07
-6.59959e-10
1.00803e-07
-6.41745e-10
1.00874e-07
-6.19414e-10
1.00937e-07
-5.94791e-10
1.00994e-07
-5.69279e-10
-5.43917e-10
1.01048e-07
1.23704e-07
6.35351e-10
1.23951e-07
-1.12172e-11
1.24178e-07
-3.91938e-10
1.24386e-07
-6.10597e-10
1.24574e-07
-7.30122e-10
1.24744e-07
-7.88464e-10
1.24895e-07
-8.09105e-10
1.25029e-07
-8.06628e-10
1.25147e-07
-7.90136e-10
1.25253e-07
-7.65449e-10
1.25347e-07
-7.3631e-10
1.25433e-07
-7.05207e-10
1.25512e-07
-6.73791e-10
1.25586e-07
-6.43206e-10
-6.14201e-10
1.25656e-07
1.53106e-07
3.78374e-10
1.5334e-07
-2.45569e-10
1.53553e-07
-6.05121e-10
1.53748e-07
-8.05342e-10
1.53925e-07
-9.07473e-10
1.54086e-07
-9.49198e-10
1.54231e-07
-9.54203e-10
1.54362e-07
-9.3756e-10
1.54481e-07
-9.08732e-10
1.54589e-07
-8.73659e-10
1.54689e-07
-8.36043e-10
1.54782e-07
-7.98226e-10
1.54869e-07
-7.61661e-10
1.54953e-07
-7.27244e-10
-6.95477e-10
1.55035e-07
1.88051e-07
1.44074e-10
1.88255e-07
-4.49121e-10
1.88435e-07
-7.85249e-10
1.88598e-07
-9.68077e-10
1.88746e-07
-1.05558e-09
1.88881e-07
-1.08461e-09
1.89005e-07
-1.07859e-09
1.8912e-07
-1.0525e-09
1.89227e-07
-1.01577e-09
1.89328e-07
-9.74278e-10
1.89424e-07
-9.31611e-10
1.89515e-07
-8.89954e-10
1.89604e-07
-8.50574e-10
1.89691e-07
-8.14173e-10
-7.81048e-10
1.89777e-07
2.28594e-07
-8.07462e-11
2.2877e-07
-6.24479e-10
2.28918e-07
-9.33141e-10
2.29047e-07
-1.09747e-09
2.29164e-07
-1.17213e-09
2.29271e-07
-1.1919e-09
2.29371e-07
-1.1791e-09
2.29467e-07
-1.148e-09
2.29559e-07
-1.10764e-09
2.29648e-07
-1.06356e-09
2.29736e-07
-1.01915e-09
2.29822e-07
-9.76414e-10
2.29908e-07
-9.36479e-10
2.29994e-07
-8.99907e-10
-8.66857e-10
2.30079e-07
2.7422e-07
-2.99347e-10
2.74376e-07
-7.80735e-10
2.74499e-07
-1.05555e-09
2.74601e-07
-1.20011e-09
2.74693e-07
-1.26323e-09
2.74777e-07
-1.27663e-09
2.74859e-07
-1.26067e-09
2.74939e-07
-1.22813e-09
2.75019e-07
-1.18759e-09
2.75099e-07
-1.14406e-09
2.75181e-07
-1.10059e-09
2.75263e-07
-1.059e-09
2.75347e-07
-1.02025e-09
2.75432e-07
-9.84817e-10
-9.52783e-10
2.75518e-07
3.23541e-07
-5.16284e-10
3.23686e-07
-9.26087e-10
3.23791e-07
-1.16042e-09
3.23873e-07
-1.28252e-09
3.23943e-07
-1.33346e-09
3.24008e-07
-1.34113e-09
3.24071e-07
-1.32333e-09
3.24134e-07
-1.29165e-09
3.24199e-07
-1.25289e-09
3.24267e-07
-1.2117e-09
3.24337e-07
-1.17078e-09
3.2441e-07
-1.13166e-09
3.24485e-07
-1.09515e-09
3.24562e-07
-1.06155e-09
-1.03088e-09
3.2464e-07
3.73635e-07
-6.96866e-10
3.73727e-07
-1.01796e-09
3.7377e-07
-1.20369e-09
3.73788e-07
-1.30025e-09
3.73795e-07
-1.34048e-09
3.73799e-07
-1.34586e-09
3.73807e-07
-1.33141e-09
3.73821e-07
-1.3052e-09
3.73841e-07
-1.27271e-09
3.73867e-07
-1.23789e-09
3.73899e-07
-1.20299e-09
3.73937e-07
-1.16929e-09
3.73979e-07
-1.13741e-09
3.74025e-07
-1.10764e-09
-1.0801e-09
3.74074e-07
3.71694e-07
-8.36293e-10
3.71755e-07
-1.07825e-09
3.71771e-07
-1.2196e-09
3.71765e-07
-1.29481e-09
3.71751e-07
-1.32626e-09
3.71735e-07
-1.33024e-09
3.71722e-07
-1.31832e-09
3.71714e-07
-1.29677e-09
3.71711e-07
-1.27012e-09
3.71715e-07
-1.24124e-09
3.71723e-07
-1.21182e-09
3.71737e-07
-1.18284e-09
3.71754e-07
-1.1548e-09
3.71775e-07
-1.12793e-09
-1.10227e-09
3.71797e-07
3.18662e-07
-8.75438e-10
3.18648e-07
-1.06417e-09
3.18606e-07
-1.17741e-09
3.1855e-07
-1.23963e-09
3.18492e-07
-1.26787e-09
3.18436e-07
-1.2743e-09
3.18385e-07
-1.26713e-09
3.1834e-07
-1.25171e-09
3.18301e-07
-1.23148e-09
3.18269e-07
-1.20868e-09
3.18241e-07
-1.1846e-09
3.18219e-07
-1.16006e-09
3.18199e-07
-1.13544e-09
3.18182e-07
-1.11094e-09
-1.08666e-09
3.18167e-07
2.67403e-07
-8.79168e-10
2.67362e-07
-1.02299e-09
2.67297e-07
-1.11189e-09
2.67219e-07
-1.16233e-09
2.67138e-07
-1.18699e-09
2.67059e-07
-1.19457e-09
2.66983e-07
-1.19101e-09
2.66911e-07
-1.18035e-09
2.66845e-07
-1.16515e-09
2.66783e-07
-1.14711e-09
2.66726e-07
-1.12722e-09
2.66672e-07
-1.10611e-09
2.66621e-07
-1.0841e-09
2.66571e-07
-1.06137e-09
-1.03797e-09
2.66522e-07
2.20716e-07
-8.45125e-10
2.20647e-07
-9.53929e-10
2.20558e-07
-1.0229e-09
2.20459e-07
-1.06348e-09
2.20357e-07
-1.08461e-09
2.20255e-07
-1.0925e-09
2.20155e-07
-1.09144e-09
2.20059e-07
-1.08429e-09
2.19967e-07
-1.07294e-09
2.19879e-07
-1.05862e-09
2.19794e-07
-1.04208e-09
2.19711e-07
-1.02375e-09
2.19631e-07
-1.0039e-09
2.19552e-07
-9.82621e-10
-9.59975e-10
2.19474e-07
1.797e-07
-7.73898e-10
1.79602e-07
-8.5625e-10
1.79489e-07
-9.09986e-10
1.79369e-07
-9.42999e-10
1.79246e-07
-9.61493e-10
1.79123e-07
-9.69762e-10
1.79002e-07
-9.70774e-10
1.78885e-07
-9.66551e-10
1.7877e-07
-9.58438e-10
1.78659e-07
-9.47309e-10
1.7855e-07
-9.33699e-10
1.78445e-07
-9.17931e-10
1.78341e-07
-9.00183e-10
1.78239e-07
-8.80565e-10
-8.59125e-10
1.78138e-07
1.44536e-07
-6.73617e-10
1.44416e-07
-7.36896e-10
1.44286e-07
-7.7973e-10
1.44151e-07
-8.0757e-10
1.44014e-07
-8.24606e-10
1.43878e-07
-8.33691e-10
1.43744e-07
-8.36823e-10
1.43613e-07
-8.35396e-10
1.43485e-07
-8.30357e-10
1.4336e-07
-8.22328e-10
1.43238e-07
-8.11693e-10
1.43118e-07
-7.98698e-10
1.43002e-07
-7.83487e-10
1.42887e-07
-7.66166e-10
-7.46783e-10
1.42775e-07
1.14958e-07
-5.59169e-10
1.1483e-07
-6.09137e-10
1.14695e-07
-6.44503e-10
1.14556e-07
-6.6906e-10
1.14417e-07
-6.85516e-10
1.14279e-07
-6.95709e-10
1.14143e-07
-7.00966e-10
1.1401e-07
-7.02245e-10
1.1388e-07
-7.00205e-10
1.13753e-07
-6.95284e-10
1.13629e-07
-6.87762e-10
1.13508e-07
-6.77829e-10
1.1339e-07
-6.65604e-10
1.13275e-07
-6.51182e-10
-6.34619e-10
1.13163e-07
9.0483e-08
-4.45866e-10
9.03602e-08
-4.86364e-10
9.02321e-08
-5.16434e-10
9.01018e-08
-5.38736e-10
8.99712e-08
-5.54908e-10
8.98416e-08
-5.661e-10
8.97138e-08
-5.73191e-10
8.95884e-08
-5.76832e-10
8.94657e-08
-5.77475e-10
8.93458e-08
-5.75427e-10
8.9229e-08
-5.70892e-10
8.91151e-08
-5.64018e-10
8.90044e-08
-5.54903e-10
8.88969e-08
-5.43634e-10
-5.30265e-10
8.87925e-08
7.05132e-08
-3.44096e-10
7.04042e-08
-3.77333e-10
7.02909e-08
-4.03207e-10
7.01757e-08
-4.23523e-10
7.006e-08
-4.39166e-10
6.99447e-08
-4.50846e-10
6.98307e-08
-4.59148e-10
6.97184e-08
-4.64506e-10
6.96081e-08
-4.67223e-10
6.95002e-08
-4.67512e-10
6.93948e-08
-4.6552e-10
6.92922e-08
-4.61362e-10
6.91924e-08
-4.55116e-10
6.90956e-08
-4.46857e-10
-4.36631e-10
6.9002e-08
5.4407e-08
-2.58346e-10
5.43151e-08
-2.85509e-10
5.42195e-08
-3.07611e-10
5.41218e-08
-3.25751e-10
5.40229e-08
-3.40329e-10
5.39239e-08
-3.51794e-10
5.38253e-08
-3.60528e-10
5.37276e-08
-3.6681e-10
5.36312e-08
-3.70838e-10
5.35364e-08
-3.72755e-10
5.34436e-08
-3.7267e-10
5.33529e-08
-3.70665e-10
5.32646e-08
-3.66801e-10
5.31788e-08
-3.61134e-10
-3.53697e-10
5.30959e-08
4.15373e-08
-1.88964e-10
4.14626e-08
-2.10763e-10
4.13842e-08
-2.29224e-10
4.13033e-08
-2.44866e-10
4.12208e-08
-2.57827e-10
4.11374e-08
-2.68397e-10
4.10537e-08
-2.76818e-10
4.09702e-08
-2.83261e-10
4.08872e-08
-2.8785e-10
4.08051e-08
-2.90679e-10
4.07243e-08
-2.91825e-10
4.06449e-08
-2.91343e-10
4.05674e-08
-2.89276e-10
4.04919e-08
-2.85662e-10
-2.80521e-10
4.04188e-08
3.13327e-08
-1.34315e-10
3.12732e-08
-1.51322e-10
3.12102e-08
-1.66235e-10
3.11445e-08
-1.79145e-10
3.10768e-08
-1.90085e-10
3.10076e-08
-1.99246e-10
3.09376e-08
-2.06773e-10
3.08671e-08
-2.12763e-10
3.07965e-08
-2.17293e-10
3.07263e-08
-2.2042e-10
3.06566e-08
-2.22196e-10
3.05879e-08
-2.22654e-10
3.05205e-08
-2.21821e-10
3.04545e-08
-2.19717e-10
-2.16354e-10
3.03904e-08
2.32959e-08
-9.2209e-11
2.32496e-08
-1.05006e-10
2.31999e-08
-1.16545e-10
2.31474e-08
-1.2667e-10
2.30927e-08
-1.35399e-10
2.30363e-08
-1.42858e-10
2.29787e-08
-1.49125e-10
2.29202e-08
-1.54253e-10
2.28612e-08
-1.58284e-10
2.2802e-08
-1.61253e-10
2.2743e-08
-1.63189e-10
2.26845e-08
-1.6411e-10
2.26267e-08
-1.64031e-10
2.25699e-08
-1.6296e-10
-1.60899e-10
2.25145e-08
1.70081e-08
-6.05353e-11
1.69728e-08
-6.9738e-11
1.69345e-08
-7.81974e-11
1.68935e-08
-8.5678e-11
1.68503e-08
-9.22189e-11
1.68053e-08
-9.78975e-11
1.67589e-08
-1.02753e-10
1.67115e-08
-1.06809e-10
1.66633e-08
-1.10088e-10
1.66147e-08
-1.12606e-10
1.65658e-08
-1.14379e-10
1.65172e-08
-1.15415e-10
1.64688e-08
-1.1572e-10
1.64212e-08
-1.15293e-10
-1.14132e-10
1.63744e-08
1.21225e-08
-3.74278e-11
1.20964e-08
-4.36675e-11
1.20677e-08
-4.94526e-11
1.20366e-08
-5.45907e-11
1.20035e-08
-5.91378e-11
1.19687e-08
-6.31378e-11
1.19326e-08
-6.66068e-11
1.18953e-08
-6.95536e-11
1.18572e-08
-7.19866e-11
1.18185e-08
-7.3912e-11
1.17795e-08
-7.53367e-11
1.17403e-08
-7.62622e-11
1.17013e-08
-7.66901e-11
1.16626e-08
-7.66149e-11
-7.60307e-11
1.16245e-08
8.35549e-09
-2.12556e-11
8.33698e-09
-2.51548e-11
8.31628e-09
-2.87537e-11
8.29364e-09
-3.19585e-11
8.26933e-09
-3.48256e-11
8.24357e-09
-3.73768e-11
8.21658e-09
-3.96163e-11
8.18857e-09
-4.15452e-11
8.15975e-09
-4.31649e-11
8.13032e-09
-4.44762e-11
8.10046e-09
-4.54811e-11
8.07038e-09
-4.61784e-11
8.04025e-09
-4.65678e-11
8.01028e-09
-4.66422e-11
-4.6393e-11
7.98064e-09
5.47667e-09
-1.05869e-11
5.46426e-09
-1.27402e-11
5.45019e-09
-1.46824e-11
5.43465e-09
-1.64163e-11
5.41781e-09
-1.79839e-11
5.39982e-09
-1.93935e-11
5.38085e-09
-2.06444e-11
5.36104e-09
-2.17347e-11
5.34054e-09
-2.26632e-11
5.31949e-09
-2.34285e-11
5.29804e-09
-2.40307e-11
5.27633e-09
-2.44678e-11
5.2545e-09
-2.47392e-11
5.2327e-09
-2.48388e-11
-2.47565e-11
5.21106e-09
3.29976e-09
-4.17267e-12
3.29215e-09
-5.13137e-12
3.28342e-09
-5.94677e-12
3.27368e-09
-6.6787e-12
3.26304e-09
-7.34863e-12
3.25161e-09
-7.95763e-12
3.23947e-09
-8.50383e-12
3.22672e-09
-8.985e-12
3.21345e-09
-9.39962e-12
3.19977e-09
-9.74627e-12
3.18577e-09
-1.00245e-11
3.17153e-09
-1.02328e-11
3.15716e-09
-1.03709e-11
3.14276e-09
-1.04349e-11
-1.0416e-11
3.12842e-09
1.67476e-09
-9.4297e-13
1.67083e-09
-1.20423e-12
1.66627e-09
-1.38996e-12
1.66115e-09
-1.56074e-12
1.65553e-09
-1.7209e-12
1.64944e-09
-1.86893e-12
1.64294e-09
-2.00337e-12
1.63608e-09
-2.12294e-12
1.6289e-09
-2.22685e-12
1.62147e-09
-2.31445e-12
1.61383e-09
-2.38554e-12
1.60604e-09
-2.4396e-12
1.59814e-09
-2.47647e-12
1.5902e-09
-2.49497e-12
-2.48952e-12
1.58228e-09
4.81324e-10
4.8012e-10
4.7873e-10
4.77169e-10
4.75448e-10
4.7358e-10
4.71576e-10
4.69453e-10
4.67226e-10
4.64912e-10
4.62526e-10
4.60087e-10
4.5761e-10
4.55115e-10
4.52626e-10
1.21326e-09
-4.69751e-10
2.68548e-10
1.50334e-09
-3.75121e-10
8.5045e-11
1.79771e-09
-2.12763e-10
-8.16137e-11
2.08973e-09
-4.78903e-11
-2.44132e-10
2.37713e-09
1.13221e-10
-4.00615e-10
2.6604e-09
2.61168e-10
-5.44443e-10
2.94068e-09
3.92125e-10
-6.72404e-10
3.21878e-09
5.02371e-10
-7.8047e-10
3.4953e-09
5.87702e-10
-8.64219e-10
3.77066e-09
6.43391e-10
-9.18757e-10
4.04518e-09
6.64133e-10
-9.38652e-10
4.31903e-09
6.44045e-10
-9.17896e-10
4.59227e-09
5.76681e-10
-8.49915e-10
4.86483e-09
4.55669e-10
-7.28229e-10
5.1366e-09
2.76187e-10
-5.47955e-10
5.40768e-09
3.77046e-11
-3.08784e-10
5.67876e-09
-2.51812e-10
-1.92677e-11
5.95192e-09
-5.68677e-10
2.95508e-10
6.23149e-09
-8.72331e-10
5.92763e-10
6.52465e-09
-1.09476e-09
8.01604e-10
6.8408e-09
-1.16534e-09
8.49191e-10
7.18754e-09
-1.02599e-09
6.79252e-10
7.51116e-09
-6.43373e-10
3.19748e-10
7.78451e-09
-3.71917e-10
9.85651e-11
8.00322e-09
-2.89216e-10
7.05042e-11
8.16693e-09
-3.48793e-10
1.85084e-10
8.27761e-09
-5.02998e-10
3.92322e-10
8.33807e-09
-7.18017e-10
6.57561e-10
8.35051e-09
-9.66734e-10
9.54292e-10
8.31557e-09
-1.21569e-09
1.25063e-09
8.23402e-09
-1.44269e-09
1.52423e-09
8.10821e-09
-1.63007e-09
1.75588e-09
7.93964e-09
-1.74066e-09
1.90923e-09
7.73055e-09
-1.75562e-09
1.9647e-09
7.48392e-09
-1.66183e-09
1.90846e-09
7.20287e-09
-1.4516e-09
1.73266e-09
6.89036e-09
-1.12211e-09
1.43462e-09
6.54917e-09
-6.72462e-10
1.01365e-09
6.18221e-09
-1.00089e-10
4.67049e-10
5.79182e-09
6.02258e-10
-2.11865e-10
5.37653e-09
1.43968e-09
-1.02439e-09
4.92305e-09
2.38773e-09
-1.93425e-09
4.40442e-09
3.3197e-09
-2.80108e-09
3.82491e-09
3.92279e-09
-3.34327e-09
3.4301e-09
3.47369e-09
-3.07888e-09
2.54008e-09
-5.50491e-10
2.71597e-09
-5.51015e-10
2.95543e-09
-4.52218e-10
3.2241e-09
-3.1656e-10
3.50735e-09
-1.70034e-10
3.79748e-09
-2.89598e-11
4.09114e-09
9.84592e-11
4.38674e-09
2.06777e-10
4.68344e-09
2.90999e-10
4.98081e-09
3.46019e-10
5.27857e-09
3.66374e-10
5.57646e-09
3.4616e-10
5.87416e-09
2.78982e-10
6.17127e-09
1.58557e-10
6.46732e-09
-1.98676e-11
6.76207e-09
-2.57043e-10
7.05577e-09
-5.45513e-10
7.35017e-09
-8.63078e-10
7.64935e-09
-1.17151e-09
7.96049e-09
-1.4059e-09
8.29344e-09
-1.49829e-09
8.65676e-09
-1.38931e-09
8.99585e-09
-9.82466e-10
9.28336e-09
-6.59427e-10
9.51482e-09
-5.20678e-10
9.68949e-09
-5.23456e-10
9.80885e-09
-6.22361e-10
9.87549e-09
-7.84655e-10
9.89141e-09
-9.82656e-10
9.8572e-09
-1.18147e-09
9.7737e-09
-1.35919e-09
9.64392e-09
-1.50028e-09
9.46986e-09
-1.5666e-09
9.25466e-09
-1.54042e-09
9.00255e-09
-1.40973e-09
8.71845e-09
-1.1675e-09
8.40786e-09
-8.11515e-10
8.07735e-09
-3.41952e-10
7.73596e-09
2.41296e-10
7.39713e-09
9.41094e-10
7.08008e-09
1.75673e-09
6.80897e-09
2.65884e-09
6.61355e-09
3.51512e-09
6.52638e-09
4.00996e-09
3.53542e-09
6.42105e-09
4.44316e-09
-5.68288e-10
4.52469e-09
-6.32544e-10
4.68226e-09
-6.09792e-10
4.89674e-09
-5.31037e-10
5.14767e-09
-4.20966e-10
5.42179e-09
-3.03076e-10
5.71088e-09
-1.90631e-10
6.00989e-09
-9.22331e-11
6.31564e-09
-1.47594e-11
6.62612e-09
3.5543e-11
6.93991e-09
5.25885e-11
7.25589e-09
3.01729e-11
7.57308e-09
-3.82077e-11
7.89048e-09
-1.58839e-10
8.20703e-09
-3.36422e-10
8.52192e-09
-5.71928e-10
8.8348e-09
-8.58389e-10
9.1468e-09
-1.17509e-09
9.46155e-09
-1.48625e-09
9.78597e-09
-1.73032e-09
1.01301e-08
-1.84245e-09
1.05034e-08
-1.76261e-09
1.08517e-08
-1.33074e-09
1.11481e-08
-9.55813e-10
1.13881e-08
-7.60717e-10
1.15706e-08
-7.05954e-10
1.16964e-08
-7.48183e-10
1.17678e-08
-8.56032e-10
1.17863e-08
-1.00116e-09
1.17527e-08
-1.14783e-09
1.16678e-08
-1.27428e-09
1.15352e-08
-1.36773e-09
1.13577e-08
-1.38911e-09
1.11396e-08
-1.32227e-09
1.08866e-08
-1.15671e-09
1.06058e-08
-8.867e-10
1.03058e-08
-5.11513e-10
9.99752e-09
-3.37027e-11
9.69663e-09
5.42185e-10
9.427e-09
1.21072e-09
9.22443e-09
1.95931e-09
9.13534e-09
2.74792e-09
9.19691e-09
3.45355e-09
9.36865e-09
3.83822e-09
3.47656e-09
9.42751e-09
7.05214e-09
-5.51874e-10
7.07085e-09
-6.51257e-10
7.14736e-09
-6.86306e-10
7.28832e-09
-6.71993e-10
7.48209e-09
-6.14735e-10
7.71497e-09
-5.35952e-10
7.97657e-09
-4.52235e-10
8.25912e-09
-3.74786e-10
8.55698e-09
-3.12619e-10
8.86613e-09
-2.73607e-10
9.18361e-09
-2.64886e-10
9.50704e-09
-2.93258e-10
9.8344e-09
-3.65571e-10
1.01638e-08
-4.88233e-10
1.04933e-08
-6.65958e-10
1.08213e-08
-8.99942e-10
1.11466e-08
-1.18368e-09
1.14695e-08
-1.49792e-09
1.17927e-08
-1.80949e-09
1.21227e-08
-2.06028e-09
1.24693e-08
-2.18909e-09
1.28427e-08
-2.136e-09
1.31908e-08
-1.67882e-09
1.3488e-08
-1.25305e-09
1.37301e-08
-1.00277e-09
1.39152e-08
-8.9114e-10
1.40436e-08
-8.76554e-10
1.4117e-08
-9.29369e-10
1.4136e-08
-1.02024e-09
1.4102e-08
-1.11384e-09
1.40162e-08
-1.18842e-09
1.38819e-08
-1.23346e-09
1.37032e-08
-1.2104e-09
1.34857e-08
-1.10474e-09
1.32369e-08
-9.07956e-10
1.29665e-08
-6.16232e-10
1.26861e-08
-2.31194e-10
1.24111e-08
2.41336e-10
1.21624e-08
7.90896e-10
1.19702e-08
1.40291e-09
1.18762e-08
2.05327e-09
1.19275e-08
2.69665e-09
1.21459e-08
3.2351e-09
1.24771e-08
3.50707e-09
3.28778e-09
1.26659e-08
1.05382e-08
-5.22571e-10
1.05203e-08
-6.33426e-10
1.05377e-08
-7.03714e-10
1.06037e-08
-7.37953e-10
1.07262e-08
-7.37266e-10
1.08975e-08
-7.07263e-10
1.11087e-08
-6.63414e-10
1.1352e-08
-6.18041e-10
1.16205e-08
-5.81113e-10
1.19087e-08
-5.61801e-10
1.22121e-08
-5.68294e-10
1.25269e-08
-6.08104e-10
1.28499e-08
-6.88576e-10
1.3178e-08
-8.16353e-10
1.35083e-08
-9.96204e-10
1.38379e-08
-1.22956e-09
1.41646e-08
-1.51034e-09
1.44874e-08
-1.82071e-09
1.4808e-08
-2.13016e-09
1.51319e-08
-2.38416e-09
1.54684e-08
-2.52561e-09
1.5828e-08
-2.49553e-09
1.61626e-08
-2.01349e-09
1.64492e-08
-1.53963e-09
1.66836e-08
-1.23714e-09
1.68636e-08
-1.07114e-09
1.69883e-08
-1.00126e-09
1.70588e-08
-9.99871e-10
1.7075e-08
-1.03647e-09
1.70383e-08
-1.07709e-09
1.69516e-08
-1.10174e-09
1.68164e-08
-1.09828e-09
1.66385e-08
-1.03244e-09
1.64252e-08
-8.9146e-10
1.6186e-08
-6.68805e-10
1.59328e-08
-3.63037e-10
1.56805e-08
2.11129e-11
1.54473e-08
4.74593e-10
1.52571e-08
9.81037e-10
1.51409e-08
1.5191e-09
1.51362e-08
2.05803e-09
1.52786e-08
2.55424e-09
1.55748e-08
2.93885e-09
1.59622e-08
3.11966e-09
2.99924e-09
1.62508e-08
1.51006e-08
-4.94185e-10
1.50668e-08
-5.99591e-10
1.5051e-08
-6.87909e-10
1.50639e-08
-7.50888e-10
1.51178e-08
-7.91115e-10
1.52194e-08
-8.08859e-10
1.53652e-08
-8.09206e-10
1.55497e-08
-8.02578e-10
1.57674e-08
-7.9885e-10
1.60128e-08
-8.07219e-10
1.62808e-08
-8.36259e-10
1.65666e-08
-8.93851e-10
1.68657e-08
-9.8774e-10
1.71741e-08
-1.12475e-09
1.74876e-08
-1.30966e-09
1.78021e-08
-1.54408e-09
1.8114e-08
-1.82222e-09
1.84209e-08
-2.12762e-09
1.87232e-08
-2.43246e-09
1.90248e-08
-2.68572e-09
1.9334e-08
-2.83481e-09
1.9661e-08
-2.82255e-09
1.99647e-08
-2.31718e-09
2.02251e-08
-1.80009e-09
2.04385e-08
-1.4505e-09
2.06021e-08
-1.23476e-09
2.0714e-08
-1.11318e-09
2.0774e-08
-1.05982e-09
2.0782e-08
-1.04447e-09
2.07388e-08
-1.03387e-09
2.065e-08
-1.01294e-09
2.05138e-08
-9.62123e-10
2.03379e-08
-8.56532e-10
2.01319e-08
-6.85507e-10
1.99071e-08
-4.43969e-10
1.96773e-08
-1.33202e-10
1.94589e-08
2.39443e-10
1.92725e-08
6.61033e-10
1.91413e-08
1.1122e-09
1.90923e-08
1.56818e-09
1.91524e-08
1.99787e-09
1.93417e-08
2.36493e-09
1.96543e-08
2.62629e-09
2.00363e-08
2.73767e-09
2.66503e-09
2.03705e-08
2.09709e-08
-4.73835e-10
2.0939e-08
-5.67638e-10
2.09088e-08
-6.57757e-10
2.08945e-08
-7.36543e-10
2.09034e-08
-8.00029e-10
2.0945e-08
-8.50422e-10
2.1025e-08
-8.89208e-10
2.11433e-08
-9.20855e-10
2.12967e-08
-9.52325e-10
2.14819e-08
-9.92421e-10
2.16946e-08
-1.04894e-09
2.19301e-08
-1.12937e-09
2.21838e-08
-1.24141e-09
2.24508e-08
-1.39172e-09
2.2726e-08
-1.58482e-09
2.30042e-08
-1.82233e-09
2.32805e-08
-2.09848e-09
2.35508e-08
-2.39801e-09
2.38142e-08
-2.6958e-09
2.40725e-08
-2.94401e-09
2.43326e-08
-3.09489e-09
2.46038e-08
-3.09376e-09
2.48546e-08
-2.56798e-09
2.50693e-08
-2.01487e-09
2.52444e-08
-1.6256e-09
2.53768e-08
-1.36715e-09
2.54634e-08
-1.19975e-09
2.55009e-08
-1.09735e-09
2.54926e-08
-1.03615e-09
2.54406e-08
-9.8188e-10
2.53444e-08
-9.16742e-10
2.52047e-08
-8.22392e-10
2.50312e-08
-6.83027e-10
2.48345e-08
-4.88808e-10
2.46272e-08
-2.36665e-10
2.44244e-08
6.9613e-11
2.42434e-08
4.20425e-10
2.41039e-08
8.00483e-10
2.40265e-08
1.18966e-09
2.40308e-08
1.56387e-09
2.41323e-08
1.89637e-09
2.43366e-08
2.16058e-09
2.46306e-08
2.33232e-09
2.49739e-08
2.39438e-09
2.34091e-09
2.5298e-08
2.84184e-08
-4.63359e-10
2.83965e-08
-5.45687e-10
2.83693e-08
-6.30584e-10
2.83456e-08
-7.12831e-10
2.83345e-08
-7.88914e-10
2.83414e-08
-8.57318e-10
2.83725e-08
-9.20324e-10
2.84328e-08
-9.81202e-10
2.8524e-08
-1.04349e-09
2.86442e-08
-1.11259e-09
2.87913e-08
-1.19608e-09
2.89621e-08
-1.3002e-09
2.91528e-08
-1.43206e-09
2.93586e-08
-1.59755e-09
2.95742e-08
-1.80047e-09
2.9794e-08
-2.04207e-09
3.00117e-08
-2.3162e-09
3.02222e-08
-2.60856e-09
3.0423e-08
-2.89651e-09
3.06138e-08
-3.13485e-09
3.07997e-08
-3.28076e-09
3.09885e-08
-3.28259e-09
3.11614e-08
-2.74086e-09
3.13078e-08
-2.16135e-09
3.14242e-08
-1.74197e-09
3.15072e-08
-1.45013e-09
3.15515e-08
-1.24403e-09
3.15553e-08
-1.10118e-09
3.15208e-08
-1.00162e-09
3.14494e-08
-9.10543e-10
3.13384e-08
-8.05659e-10
3.11917e-08
-6.75725e-10
3.10191e-08
-5.10418e-10
3.08316e-08
-3.01341e-10
3.06427e-08
-4.77298e-11
3.04675e-08
2.44797e-10
3.03229e-08
5.65055e-10
3.02258e-08
8.97528e-10
3.01921e-08
1.22342e-09
3.02337e-08
1.52225e-09
3.03562e-08
1.77384e-09
3.05558e-08
1.96098e-09
3.08164e-08
2.07179e-09
3.11084e-08
2.10229e-09
2.05719e-09
3.13922e-08
3.77496e-08
-4.62083e-10
3.77393e-08
-5.3539e-10
3.77225e-08
-6.13783e-10
3.77039e-08
-6.94161e-10
3.7689e-08
-7.74004e-10
3.76837e-08
-8.52053e-10
3.76917e-08
-9.28293e-10
3.7716e-08
-1.00553e-09
3.77611e-08
-1.08865e-09
3.78283e-08
-1.17978e-09
3.79156e-08
-1.28335e-09
3.80217e-08
-1.4063e-09
3.81442e-08
-1.55457e-09
3.82793e-08
-1.73265e-09
3.84221e-08
-1.94327e-09
3.8567e-08
-2.18693e-09
3.87073e-08
-2.45653e-09
3.88374e-08
-2.73867e-09
3.89535e-08
-3.01262e-09
3.90537e-08
-3.23504e-09
3.9141e-08
-3.368e-09
3.92213e-08
-3.36295e-09
3.92914e-08
-2.81096e-09
3.93467e-08
-2.21659e-09
3.9383e-08
-1.77833e-09
3.93958e-08
-1.46291e-09
3.93817e-08
-1.22991e-09
3.93401e-08
-1.05955e-09
3.92651e-08
-9.26671e-10
3.91583e-08
-8.0371e-10
3.90237e-08
-6.71138e-10
3.88649e-08
-5.16921e-10
3.86894e-08
-3.34903e-10
3.85086e-08
-1.20493e-10
3.83356e-08
1.25258e-10
3.81849e-08
3.95485e-10
3.80711e-08
6.78859e-10
3.80074e-08
9.61214e-10
3.80041e-08
1.22675e-09
3.80665e-08
1.45987e-09
3.81934e-08
1.64694e-09
3.83761e-08
1.7782e-09
3.85989e-08
1.84907e-09
3.884e-08
1.86117e-09
1.82172e-09
3.90754e-08
4.93008e-08
-4.69919e-10
4.93021e-08
-5.36713e-10
4.92979e-08
-6.09512e-10
4.92904e-08
-6.86655e-10
4.92829e-08
-7.66553e-10
4.92791e-08
-8.48206e-10
4.92828e-08
-9.32057e-10
4.92954e-08
-1.01806e-09
4.93181e-08
-1.11135e-09
4.93528e-08
-1.21455e-09
4.94e-08
-1.33054e-09
4.9458e-08
-1.46426e-09
4.95244e-08
-1.62103e-09
4.95961e-08
-1.80432e-09
4.96685e-08
-2.01571e-09
4.97364e-08
-2.25482e-09
4.97933e-08
-2.5134e-09
4.98337e-08
-2.77907e-09
4.98529e-08
-3.03185e-09
4.98479e-08
-3.23004e-09
4.98201e-08
-3.34012e-09
4.97735e-08
-3.3164e-09
4.97224e-08
-2.75981e-09
4.96685e-08
-2.1627e-09
4.96072e-08
-1.71708e-09
4.95345e-08
-1.39019e-09
4.94475e-08
-1.14289e-09
4.93404e-08
-9.52483e-10
4.92108e-08
-7.97052e-10
4.90606e-08
-6.53541e-10
4.88932e-08
-5.03728e-10
4.87134e-08
-3.37132e-10
4.85285e-08
-1.49962e-10
4.83488e-08
5.92432e-11
4.8186e-08
2.87984e-10
4.80528e-08
5.28683e-10
4.79604e-08
7.71269e-10
4.79177e-08
1.00391e-09
4.79299e-08
1.21456e-09
4.79974e-08
1.39243e-09
4.81151e-08
1.52925e-09
4.8273e-08
1.6203e-09
4.84571e-08
1.66496e-09
4.86515e-08
1.6667e-09
1.6323e-09
4.88409e-08
6.34315e-08
-4.88924e-10
6.3446e-08
-5.5116e-10
6.34561e-08
-6.19657e-10
6.34631e-08
-6.93666e-10
6.34689e-08
-7.72325e-10
6.34757e-08
-8.55034e-10
6.34856e-08
-9.41921e-10
6.35011e-08
-1.03362e-09
6.35215e-08
-1.13169e-09
6.35462e-08
-1.23933e-09
6.35762e-08
-1.36047e-09
6.36098e-08
-1.49794e-09
6.36438e-08
-1.65501e-09
6.3674e-08
-1.83445e-09
6.36954e-08
-2.03718e-09
6.37018e-08
-2.26116e-09
6.36885e-08
-2.50015e-09
6.36497e-08
-2.74028e-09
6.35779e-08
-2.96003e-09
6.34706e-08
-3.12274e-09
6.33286e-08
-3.19808e-09
6.31539e-08
-3.14175e-09
6.29782e-08
-2.5841e-09
6.281e-08
-1.99452e-09
6.26445e-08
-1.5515e-09
6.24772e-08
-1.22297e-09
6.23062e-08
-9.71864e-10
6.21262e-08
-7.72512e-10
6.19349e-08
-6.05685e-10
6.17335e-08
-4.5213e-10
6.15261e-08
-2.96391e-10
6.13182e-08
-1.29197e-10
6.11171e-08
5.11062e-11
6.09314e-08
2.44968e-10
6.07713e-08
4.48073e-10
6.06461e-08
6.53876e-10
6.05634e-08
8.53937e-10
6.05281e-08
1.03927e-09
6.05412e-08
1.20146e-09
6.05999e-08
1.33368e-09
6.06977e-08
1.43147e-09
6.08249e-08
1.49315e-09
6.09699e-08
1.51989e-09
6.11212e-08
1.5154e-09
1.48517e-09
6.12684e-08
8.05383e-08
-5.22817e-10
8.05691e-08
-5.81975e-10
8.05968e-08
-6.47345e-10
8.06219e-08
-7.18722e-10
8.06453e-08
-7.95757e-10
8.06685e-08
-8.78173e-10
8.06926e-08
-9.66014e-10
8.07188e-08
-1.05983e-09
8.07478e-08
-1.16071e-09
8.07789e-08
-1.27041e-09
8.08102e-08
-1.39178e-09
8.08392e-08
-1.527e-09
8.08629e-08
-1.6787e-09
8.08759e-08
-1.84746e-09
8.08723e-08
-2.03353e-09
8.08463e-08
-2.23517e-09
8.07907e-08
-2.44453e-09
8.06971e-08
-2.64671e-09
8.05603e-08
-2.82319e-09
8.03771e-08
-2.93957e-09
8.01454e-08
-2.96643e-09
7.98663e-08
-2.86264e-09
7.95855e-08
-2.30331e-09
7.93181e-08
-1.72712e-09
7.90596e-08
-1.29298e-09
7.88057e-08
-9.69094e-10
7.85549e-08
-7.2103e-10
7.83046e-08
-5.22214e-10
7.80533e-08
-3.54359e-10
7.78015e-08
-2.00366e-10
7.75549e-08
-4.97566e-11
7.73178e-08
1.07924e-10
7.70975e-08
2.71387e-10
7.69017e-08
4.40733e-10
7.67378e-08
6.11988e-10
7.6612e-08
7.79688e-10
7.65284e-08
9.37498e-10
7.64885e-08
1.07917e-09
7.64907e-08
1.19929e-09
7.65305e-08
1.29392e-09
7.66009e-08
1.36099e-09
7.66936e-08
1.40044e-09
7.67995e-08
1.41402e-09
7.69099e-08
1.40499e-09
1.37753e-09
7.70176e-08
1.011e-07
-5.74585e-10
1.0115e-07
-6.31758e-10
1.01197e-07
-6.94937e-10
1.01243e-07
-7.64217e-10
1.01287e-07
-8.39571e-10
1.01329e-07
-9.20969e-10
1.01372e-07
-1.00848e-09
1.01414e-07
-1.1025e-09
1.01457e-07
-1.20366e-09
1.015e-07
-1.31304e-09
1.0154e-07
-1.43218e-09
1.01576e-07
-1.56236e-09
1.01602e-07
-1.70505e-09
1.01614e-07
-1.85929e-09
1.01606e-07
-2.02533e-09
1.01571e-07
-2.19995e-09
1.01498e-07
-2.37239e-09
1.01382e-07
-2.53033e-09
1.01215e-07
-2.6561e-09
1.00993e-07
-2.71747e-09
1.00713e-07
-2.68614e-09
1.00373e-07
-2.52359e-09
1.00029e-07
-1.95878e-09
9.96985e-08
-1.39669e-09
9.93786e-08
-9.73e-10