/*--------------------------------*- C++ -*----------------------------------*\
| =========                 |                                                 |
| \\      /  F ield         | OpenFOAM: The Open Source CFD Toolbox           |
|  \\    /   O peration     | Version:  2312                                  |
|   \\  /    A nd           | Website:  www.openfoam.com                      |
|    \\/     M anipulation  |                                                 |
\*---------------------------------------------------------------------------*/
FoamFile
{
    version     2.0;
    format      ascii;
    arch        "LSB;label=32;scalar=64";
    class       volScalarField;
    location    "200";
    object      p;
}
// * * * * * * * * * * * * * * * * * * * * * * * * * * * * * * * * * * * * * //

dimensions      [0 2 -2 0 0 0 0];

internalField   nonuniform List<scalar> 
4800
(
5.89438e-13
-3.20795e-07
-6.01466e-07
-8.47555e-07
-1.06511e-06
-1.25831e-06
-1.43055e-06
-1.58443e-06
-1.72173e-06
-1.84328e-06
-1.94945e-06
-2.04397e-06
-2.13995e-06
-2.25847e-06
-2.75485e-06
2.84523e-09
-3.17596e-07
-5.97994e-07
-8.44006e-07
-1.06172e-06
-1.25539e-06
-1.42851e-06
-1.5839e-06
-1.72379e-06
-1.85005e-06
-1.96508e-06
-2.07483e-06
-2.19281e-06
-2.35205e-06
-2.72485e-06
6.41589e-09
-3.13727e-07
-5.93899e-07
-8.39881e-07
-1.05783e-06
-1.25207e-06
-1.42622e-06
-1.58333e-06
-1.72613e-06
-1.85743e-06
-1.98116e-06
-2.10433e-06
-2.23838e-06
-2.39908e-06
-2.62892e-06
1.04422e-08
-3.09338e-07
-5.89221e-07
-8.35092e-07
-1.05317e-06
-1.24786e-06
-1.42287e-06
-1.58142e-06
-1.72652e-06
-1.86137e-06
-1.98987e-06
-2.11716e-06
-2.24836e-06
-2.38419e-06
-2.52313e-06
1.51093e-08
-3.04173e-07
-5.83636e-07
-8.29243e-07
-1.04728e-06
-1.24219e-06
-1.41773e-06
-1.57715e-06
-1.72351e-06
-1.85973e-06
-1.98862e-06
-2.11227e-06
-2.23017e-06
-2.33653e-06
-2.42078e-06
2.0696e-08
-2.97915e-07
-5.76782e-07
-8.21907e-07
-1.03963e-06
-1.23441e-06
-1.40995e-06
-1.5694e-06
-1.71552e-06
-1.85055e-06
-1.97576e-06
-2.09061e-06
-2.19164e-06
-2.27204e-06
-2.32332e-06
2.75811e-08
-2.90145e-07
-5.6818e-07
-8.12517e-07
-1.02953e-06
-1.22365e-06
-1.3984e-06
-1.55669e-06
-1.70073e-06
-1.83185e-06
-1.94997e-06
-2.05309e-06
-2.13718e-06
-2.19727e-06
-2.22912e-06
3.63619e-08
-2.80219e-07
-5.57104e-07
-8.00237e-07
-1.01598e-06
-1.20868e-06
-1.3816e-06
-1.53722e-06
-1.67715e-06
-1.80189e-06
-1.91057e-06
-2.00093e-06
-2.06995e-06
-2.11528e-06
-2.13601e-06
4.79819e-08
-2.67142e-07
-5.4246e-07
-7.83839e-07
-9.97575e-07
-1.18787e-06
-1.35766e-06
-1.50897e-06
-1.64286e-06
-1.75935e-06
-1.85745e-06
-1.93553e-06
-1.99222e-06
-2.02738e-06
-2.04198e-06
6.38856e-08
-2.49424e-07
-5.22645e-07
-7.61583e-07
-9.72391e-07
-1.15911e-06
-1.32435e-06
-1.46976e-06
-1.59607e-06
-1.70326e-06
-1.79076e-06
-1.85805e-06
-1.90527e-06
-1.93377e-06
-1.9453e-06
8.61705e-08
-2.2493e-07
-4.95404e-07
-7.31096e-07
-9.37935e-07
-1.11983e-06
-1.27915e-06
-1.41734e-06
-1.53514e-06
-1.63284e-06
-1.71065e-06
-1.76912e-06
-1.80953e-06
-1.83399e-06
-1.8444e-06
1.17683e-07
-1.9078e-07
-4.57744e-07
-6.893e-07
-8.91105e-07
-1.06699e-06
-1.21928e-06
-1.34945e-06
-1.45853e-06
-1.54738e-06
-1.617e-06
-1.6688e-06
-1.70472e-06
-1.72715e-06
-1.73782e-06
1.61936e-07
-1.43399e-07
-4.0599e-07
-6.32493e-07
-8.28309e-07
-9.97278e-07
-1.14189e-06
-1.26389e-06
-1.36479e-06
-1.44605e-06
-1.50933e-06
-1.55658e-06
-1.59002e-06
-1.61202e-06
-1.62403e-06
2.22759e-07
-7.88044e-08
-3.36098e-07
-5.56664e-07
-7.45777e-07
-9.07362e-07
-1.04425e-06
-1.15864e-06
-1.25252e-06
-1.32789e-06
-1.38683e-06
-1.43154e-06
-1.46426e-06
-1.48719e-06
-1.50151e-06
3.03743e-07
6.88471e-09
-2.44186e-07
-4.58055e-07
-6.40081e-07
-7.94355e-07
-9.24115e-07
-1.03204e-06
-1.12054e-06
-1.19195e-06
-1.24856e-06
-1.29261e-06
-1.3262e-06
-1.3513e-06
-1.36887e-06
4.07754e-07
1.16942e-07
-1.27035e-07
-3.33696e-07
-5.08663e-07
-6.5624e-07
-7.80031e-07
-8.83089e-07
-9.68111e-07
-1.03758e-06
-1.09381e-06
-1.13893e-06
-1.17486e-06
-1.20331e-06
-1.2251e-06
5.3662e-07
2.5369e-07
1.76269e-08
-1.81644e-07
-3.50028e-07
-4.92e-07
-6.11393e-07
-7.11469e-07
-7.95034e-07
-8.64566e-07
-9.22275e-07
-9.70117e-07
-1.00979e-06
-1.04279e-06
-1.06981e-06
6.90798e-07
4.18059e-07
1.90745e-07
-1.22302e-09
-1.63845e-07
-3.01617e-07
-4.18407e-07
-5.17494e-07
-6.01632e-07
-6.73174e-07
-7.34152e-07
-7.86313e-07
-8.31145e-07
-8.69924e-07
-9.0331e-07
8.68705e-07
6.08785e-07
3.91063e-07
2.06171e-07
4.83607e-08
-8.66845e-08
-2.02664e-07
-3.02698e-07
-3.89351e-07
-4.6476e-07
-5.30733e-07
-5.88798e-07
-6.40237e-07
-6.8614e-07
-7.27164e-07
1.06554e-06
8.21116e-07
6.13775e-07
4.35712e-07
2.81849e-07
1.48251e-07
3.15558e-08
-7.1055e-08
-1.61871e-07
-2.42755e-07
-3.15261e-07
-3.80692e-07
-4.40136e-07
-4.94509e-07
-5.4452e-07
1.25962e-06
1.03185e-06
8.34886e-07
6.63077e-07
5.12314e-07
3.79131e-07
2.60604e-07
1.54338e-07
5.83953e-08
-2.88079e-08
-1.08586e-07
-1.82038e-07
-2.50087e-07
-3.13501e-07
-3.73051e-07
1.41989e-06
1.20705e-06
1.01922e-06
8.52737e-07
7.04409e-07
5.71228e-07
4.50696e-07
3.4085e-07
2.401e-07
1.47117e-07
6.07869e-08
-1.98194e-08
-9.54867e-08
-1.6686e-07
-2.34676e-07
1.53952e-06
1.3391e-06
1.15906e-06
9.97198e-07
8.51028e-07
7.17964e-07
5.95892e-07
4.83194e-07
3.78553e-07
2.80851e-07
1.89143e-07
1.02638e-07
2.0669e-08
-5.73133e-08
-1.31972e-07
1.62681e-06
1.43669e-06
1.26335e-06
1.10555e-06
9.61334e-07
8.28504e-07
7.05277e-07
5.90314e-07
4.82523e-07
3.80959e-07
2.84821e-07
1.93437e-07
1.06235e-07
2.2748e-08
-5.76043e-08
1.6893e-06
1.50773e-06
1.34014e-06
1.18592e-06
1.0435e-06
9.10988e-07
7.86909e-07
6.70155e-07
5.59808e-07
4.55071e-07
3.55266e-07
2.59822e-07
1.68251e-07
8.01541e-08
-4.96857e-09
1.73337e-06
1.55894e-06
1.39633e-06
1.24527e-06
1.10446e-06
9.72305e-07
8.47586e-07
7.29384e-07
6.1693e-07
5.09551e-07
4.06674e-07
3.07818e-07
2.12568e-07
1.20586e-07
3.14435e-08
1.76409e-06
1.5957e-06
1.43739e-06
1.2891e-06
1.14972e-06
1.01792e-06
8.92706e-07
7.7331e-07
6.59089e-07
5.4948e-07
4.44003e-07
3.42254e-07
2.43885e-07
1.48608e-07
5.60625e-08
1.78535e-06
1.6221e-06
1.46753e-06
1.32166e-06
1.18354e-06
1.05207e-06
9.26444e-07
8.06038e-07
6.90313e-07
5.78798e-07
4.71098e-07
3.66875e-07
2.6584e-07
1.67754e-07
7.23105e-08
1.80003e-06
1.64121e-06
1.48988e-06
1.34611e-06
1.20908e-06
1.0779e-06
9.51934e-07
8.30658e-07
7.13632e-07
6.00472e-07
4.90852e-07
3.84498e-07
2.81168e-07
1.80668e-07
8.2742e-08
1.81022e-06
1.65523e-06
1.50672e-06
1.36476e-06
1.22868e-06
1.09775e-06
9.71476e-07
8.49438e-07
7.31275e-07
6.1668e-07
5.0539e-07
3.97182e-07
2.91863e-07
1.89276e-07
8.92074e-08
1.81738e-06
1.66572e-06
1.51965e-06
1.37927e-06
1.24399e-06
1.11328e-06
9.86725e-07
8.64009e-07
7.44844e-07
6.28987e-07
5.16232e-07
4.06403e-07
2.99347e-07
1.94942e-07
9.30118e-08
1.82251e-06
1.67377e-06
1.52982e-06
1.39079e-06
1.25621e-06
1.12566e-06
9.98853e-07
8.75529e-07
7.55473e-07
6.38499e-07
5.24451e-07
4.13195e-07
3.04613e-07
1.98614e-07
9.50564e-08
1.8263e-06
1.68009e-06
1.53799e-06
1.40013e-06
1.26614e-06
1.13573e-06
1.00868e-06
8.84809e-07
7.63955e-07
6.45987e-07
5.30792e-07
4.18273e-07
3.08344e-07
2.00941e-07
9.59526e-08
1.82918e-06
1.6852e-06
1.5447e-06
1.40785e-06
1.27437e-06
1.14406e-06
1.01678e-06
8.92414e-07
7.70845e-07
6.51989e-07
5.35772e-07
4.22132e-07
3.11008e-07
2.02363e-07
9.61107e-08
1.83143e-06
1.68941e-06
1.55032e-06
1.41434e-06
1.28128e-06
1.15105e-06
1.02356e-06
8.9874e-07
7.76527e-07
6.56876e-07
5.39748e-07
4.25109e-07
3.12924e-07
2.03177e-07
9.58043e-08
1.83326e-06
1.69295e-06
1.55507e-06
1.41984e-06
1.28716e-06
1.15699e-06
1.0293e-06
9.04061e-07
7.81268e-07
6.60906e-07
5.42964e-07
4.27435e-07
3.14307e-07
2.03581e-07
9.52153e-08
1.83476e-06
1.69597e-06
1.55914e-06
1.42457e-06
1.2922e-06
1.16207e-06
1.03418e-06
9.08574e-07
7.85259e-07
6.64259e-07
5.4559e-07
4.29269e-07
3.15302e-07
2.03707e-07
9.4459e-08
1.83604e-06
1.6986e-06
1.5627e-06
1.42869e-06
1.29659e-06
1.16648e-06
1.03842e-06
9.12469e-07
7.88679e-07
6.671e-07
5.47774e-07
4.30738e-07
3.16015e-07
2.03638e-07
9.3596e-08
1.83718e-06
1.70098e-06
1.56594e-06
1.43245e-06
1.3006e-06
1.1705e-06
1.04227e-06
9.15992e-07
7.91757e-07
6.69637e-07
5.49696e-07
4.31992e-07
3.16564e-07
2.03459e-07
9.26771e-08
1.83813e-06
1.70304e-06
1.56877e-06
1.43575e-06
1.30413e-06
1.17406e-06
1.04568e-06
9.1913e-07
7.94508e-07
6.71916e-07
5.51439e-07
4.3315e-07
3.17104e-07
2.0336e-07
9.19284e-08
-3.73043e-06
-3.17126e-06
-2.7586e-06
-2.46642e-06
-2.22681e-06
-2.03014e-06
-1.8663e-06
-1.72801e-06
-1.61066e-06
-1.511e-06
-1.42666e-06
-1.35579e-06
-1.29687e-06
-1.24862e-06
-1.2099e-06
-1.17978e-06
-1.15755e-06
-1.14287e-06
-1.13577e-06
-1.13679e-06
-1.14589e-06
-1.16176e-06
-1.17424e-06
-1.16552e-06
-1.12436e-06
-1.04331e-06
-9.19103e-07
-7.52957e-07
-5.49392e-07
-3.15325e-07
-5.91246e-08
2.10127e-07
4.83151e-07
7.50764e-07
1.00396e-06
1.23383e-06
1.4316e-06
1.58867e-06
1.6966e-06
1.74742e-06
1.73378e-06
1.64577e-06
1.45531e-06
1.13523e-06
4.54928e-07
-3.15214e-06
-2.91957e-06
-2.65078e-06
-2.41204e-06
-2.19773e-06
-2.01294e-06
-1.85489e-06
-1.71958e-06
-1.60386e-06
-1.50516e-06
-1.42146e-06
-1.35108e-06
-1.29259e-06
-1.24474e-06
-1.20643e-06
-1.17673e-06
-1.15494e-06
-1.1407e-06
-1.13401e-06
-1.13531e-06
-1.1445e-06
-1.16011e-06
-1.17197e-06
-1.16254e-06
-1.12094e-06
-1.04002e-06
-9.167e-07
-7.52318e-07
-5.51477e-07
-3.21152e-07
-6.97789e-08
1.93447e-07
4.59054e-07
7.17528e-07
9.59312e-07
1.17459e-06
1.35289e-06
1.4826e-06
1.55008e-06
1.53832e-06
1.42413e-06
1.17122e-06
7.12087e-07
-7.2836e-08
-1.3687e-06
-2.82201e-06
-2.7171e-06
-2.53582e-06
-2.34398e-06
-2.1574e-06
-1.98782e-06
-1.83806e-06
-1.70745e-06
-1.5945e-06
-1.49757e-06
-1.41506e-06
-1.34555e-06
-1.28776e-06
-1.2405e-06
-1.20273e-06
-1.17354e-06
-1.15224e-06
-1.13847e-06
-1.1322e-06
-1.13379e-06
-1.14302e-06
-1.15828e-06
-1.16936e-06
-1.15904e-06
-1.11687e-06
-1.03608e-06
-9.13872e-07
-7.51796e-07
-5.54606e-07
-3.29404e-07
-8.47705e-08
1.69908e-07
4.24875e-07
6.70183e-07
8.95618e-07
1.09038e-06
1.2424e-06
1.3375e-06
1.358e-06
1.28074e-06
1.07424e-06
6.95349e-07
8.68324e-08
-8.12943e-07
-2.02543e-06
-2.61276e-06
-2.55616e-06
-2.42731e-06
-2.27269e-06
-2.11199e-06
-1.9585e-06
-1.81836e-06
-1.6935e-06
-1.58406e-06
-1.48933e-06
-1.40828e-06
-1.33981e-06
-1.28281e-06
-1.23619e-06
-1.19898e-06
-1.1703e-06
-1.1495e-06
-1.1362e-06
-1.13034e-06
-1.1322e-06
-1.14144e-06
-1.15626e-06
-1.16643e-06
-1.15506e-06
-1.11221e-06
-1.03156e-06
-9.10656e-07
-7.51319e-07
-5.58524e-07
-3.39568e-07
-1.03232e-07
1.4084e-07
3.8254e-07
6.11422e-07
8.16577e-07
9.86201e-07
1.10687e-06
1.16257e-06
1.13334e-06
9.93851e-07
7.12652e-07
2.54042e-07
-4.13262e-07
-1.29609e-06
-2.34616e-06
-2.46062e-06
-2.42271e-06
-2.32761e-06
-2.20231e-06
-2.0644e-06
-1.92667e-06
-1.79674e-06
-1.67831e-06
-1.5729e-06
-1.48071e-06
-1.40133e-06
-1.33399e-06
-1.27781e-06
-1.23185e-06
-1.19519e-06
-1.16703e-06
-1.14672e-06
-1.13389e-06
-1.12844e-06
-1.13057e-06
-1.13977e-06
-1.15409e-06
-1.16323e-06
-1.15075e-06
-1.10725e-06
-1.02692e-06
-9.07712e-07
-7.51758e-07
-5.64294e-07
-3.52838e-07
-1.26405e-07
1.05081e-07
3.31143e-07
5.40843e-07
7.22647e-07
8.63941e-07
9.50423e-07
9.65268e-07
8.88317e-07
6.95888e-07
3.62398e-07
-1.34179e-07
-8.00843e-07
-1.61299e-06
-2.49963e-06
-2.33907e-06
-2.30904e-06
-2.23626e-06
-2.13411e-06
-2.01603e-06
-1.89328e-06
-1.77376e-06
-1.66226e-06
-1.56131e-06
-1.47198e-06
-1.39443e-06
-1.3283e-06
-1.27296e-06
-1.22764e-06
-1.19152e-06
-1.16385e-06
-1.14402e-06
-1.13166e-06
-1.12662e-06
-1.12898e-06
-1.13811e-06
-1.15183e-06
-1.15986e-06
-1.14623e-06
-1.10219e-06
-1.02248e-06
-9.05527e-07
-7.538e-07
-5.72827e-07
-3.70367e-07
-1.55679e-07
6.10358e-08
2.6896e-07
4.56751e-07
6.12415e-07
7.22914e-07
7.73774e-07
7.48644e-07
6.29267e-07
3.96549e-07
3.37464e-08
-4.67173e-07
-1.09605e-06
-1.81519e-06
-2.55695e-06
-2.23365e-06
-2.20832e-06
-2.15113e-06
-2.06765e-06
-1.96706e-06
-1.85858e-06
-1.74967e-06
-1.64555e-06
-1.54952e-06
-1.46337e-06
-1.38785e-06
-1.32303e-06
-1.26856e-06
-1.22385e-06
-1.18823e-06
-1.16101e-06
-1.14162e-06
-1.12969e-06
-1.12503e-06
-1.12761e-06
-1.1366e-06
-1.14963e-06
-1.15645e-06
-1.1417e-06
-1.09728e-06
-1.01861e-06
-9.04602e-07
-7.58132e-07
-5.8503e-07
-3.93302e-07
-1.92438e-07
7.12499e-09
1.94314e-07
3.5756e-07
4.84696e-07
5.62802e-07
5.78091e-07
5.15976e-07
3.61765e-07
1.02514e-07
-2.69446e-07
-7.51276e-07
-1.32389e-06
-1.94893e-06
-2.57278e-06
-2.1358e-06
-2.11463e-06
-2.06933e-06
-2.00142e-06
-1.91662e-06
-1.82197e-06
-1.72399e-06
-1.62788e-06
-1.5374e-06
-1.45493e-06
-1.38176e-06
-1.31842e-06
-1.26487e-06
-1.22077e-06
-1.18561e-06
-1.15879e-06
-1.13979e-06
-1.12825e-06
-1.12393e-06
-1.12665e-06
-1.13545e-06
-1.14769e-06
-1.15323e-06
-1.13742e-06
-1.09291e-06
-1.01582e-06
-9.05654e-07
-7.6568e-07
-6.02052e-07
-4.23011e-07
-2.38225e-07
-5.82768e-08
1.05669e-07
2.42083e-07
3.39039e-07
3.84364e-07
3.65808e-07
2.71557e-07
9.13626e-08
-1.81468e-07
-5.47181e-07
-9.96297e-07
-1.50727e-06
-2.04721e-06
-2.57718e-06
-2.04038e-06
-2.02346e-06
-1.98799e-06
-1.93346e-06
-1.86314e-06
-1.78205e-06
-1.6955e-06
-1.60828e-06
-1.52426e-06
-1.44623e-06
-1.37597e-06
-1.31446e-06
-1.26203e-06
-1.21863e-06
-1.18393e-06
-1.15748e-06
-1.13884e-06
-1.12764e-06
-1.1236e-06
-1.12642e-06
-1.13494e-06
-1.14632e-06
-1.15057e-06
-1.13388e-06
-1.0897e-06
-1.01492e-06
-9.09689e-07
-7.77686e-07
-6.25364e-07
-4.61148e-07
-2.9479e-07
-1.36861e-07
1.63307e-09
1.09534e-07
1.75656e-07
1.89177e-07
1.40053e-07
1.97764e-08
-1.77433e-07
-4.53004e-07
-8.02183e-07
-1.21259e-06
-1.66408e-06
-2.13081e-06
-2.58565e-06
-1.94413e-06
-1.93162e-06
-1.90469e-06
-1.86188e-06
-1.80488e-06
-1.73706e-06
-1.66243e-06
-1.58508e-06
-1.50868e-06
-1.43619e-06
-1.36975e-06
-1.31073e-06
-1.25989e-06
-1.21746e-06
-1.18337e-06
-1.15736e-06
-1.13908e-06
-1.12821e-06
-1.12442e-06
-1.12729e-06
-1.1355e-06
-1.14597e-06
-1.149e-06
-1.13176e-06
-1.08852e-06
-1.01703e-06
-9.18082e-07
-7.9577e-07
-6.56794e-07
-5.09661e-07
-3.64056e-07
-2.30316e-07
-1.18974e-07
-4.04372e-08
-4.66627e-09
-2.06554e-08
-9.58872e-08
-2.35561e-07
-4.41627e-07
-7.11768e-07
-1.03858e-06
-1.40939e-06
-1.80711e-06
-2.21243e-06
-2.60663e-06
-1.84477e-06
-1.83673e-06
-1.81747e-06
-1.78508e-06
-1.74028e-06
-1.68524e-06
-1.62283e-06
-1.55626e-06
-1.48873e-06
-1.42313e-06
-1.36175e-06
-1.30628e-06
-1.25781e-06
-1.21693e-06
-1.18385e-06
-1.15853e-06
-1.14077e-06
-1.13031e-06
-1.12682e-06
-1.12976e-06
-1.13768e-06
-1.1473e-06
-1.14934e-06
-1.13208e-06
-1.09064e-06
-1.02369e-06
-9.32647e-07
-8.21982e-07
-6.98538e-07
-5.7076e-07
-4.48049e-07
-3.40233e-07
-2.57033e-07
-2.07727e-07
-2.00676e-07
-2.42785e-07
-3.38977e-07
-4.91574e-07
-6.99705e-07
-9.58863e-07
-1.26081e-06
-1.59405e-06
-1.94491e-06
-2.29928e-06
-2.64419e-06
-1.74047e-06
-1.73698e-06
-1.72477e-06
-1.70175e-06
-1.6681e-06
-1.6252e-06
-1.57498e-06
-1.5198e-06
-1.46227e-06
-1.40495e-06
-1.3501e-06
-1.29955e-06
-1.25464e-06
-1.21626e-06
-1.18493e-06
-1.16084e-06
-1.14399e-06
-1.13423e-06
-1.13124e-06
-1.13441e-06
-1.14218e-06
-1.1512e-06
-1.15271e-06
-1.13623e-06
-1.0978e-06
-1.03694e-06
-9.55703e-07
-8.5883e-07
-7.53157e-07
-6.46861e-07
-5.48812e-07
-4.68016e-07
-4.13073e-07
-3.9183e-07
-4.10842e-07
-4.74928e-07
-5.86753e-07
-7.4646e-07
-9.51427e-07
-1.19625e-06
-1.47303e-06
-1.77207e-06
-2.08281e-06
-2.39504e-06
-2.69959e-06
-1.62958e-06
-1.63078e-06
-1.62523e-06
-1.61078e-06
-1.58737e-06
-1.55587e-06
-1.51754e-06
-1.47404e-06
-1.42733e-06
-1.37955e-06
-1.33272e-06
-1.28863e-06
-1.24876e-06
-1.21422e-06
-1.18575e-06
-1.16381e-06
-1.1486e-06
-1.1401e-06
-1.13807e-06
-1.14186e-06
-1.14991e-06
-1.15885e-06
-1.16064e-06
-1.14612e-06
-1.11226e-06
-1.05938e-06
-9.90093e-07
-9.09248e-07
-8.23483e-07
-7.40467e-07
-6.68263e-07
-6.14774e-07
-5.87243e-07
-5.91919e-07
-6.3356e-07
-7.1512e-07
-8.37512e-07
-9.99463e-07
-1.19753e-06
-1.42632e-06
-1.67891e-06
-1.9475e-06
-2.22409e-06
-2.50129e-06
-2.77249e-06
-1.51058e-06
-1.51667e-06
-1.51759e-06
-1.51119e-06
-1.49729e-06
-1.47651e-06
-1.44965e-06
-1.4178e-06
-1.38241e-06
-1.34512e-06
-1.30764e-06
-1.27158e-06
-1.2384e-06
-1.20928e-06
-1.18515e-06
-1.16666e-06
-1.1542e-06
-1.14792e-06
-1.14767e-06
-1.15284e-06
-1.16193e-06
-1.17177e-06
-1.1751e-06
-1.16416e-06
-1.13683e-06
-1.09415e-06
-1.03909e-06
-9.76446e-07
-9.12428e-07
-8.53937e-07
-8.07989e-07
-7.81176e-07
-7.79271e-07
-8.06925e-07
-8.67285e-07
-9.61832e-07
-1.09029e-06
-1.25066e-06
-1.43937e-06
-1.65158e-06
-1.88158e-06
-2.12328e-06
-2.37073e-06
-2.61856e-06
-2.86189e-06
-1.38211e-06
-1.39342e-06
-1.40076e-06
-1.40212e-06
-1.39726e-06
-1.38664e-06
-1.37081e-06
-1.35047e-06
-1.32661e-06
-1.30048e-06
-1.27342e-06
-1.24679e-06
-1.22191e-06
-1.19993e-06
-1.18186e-06
-1.16846e-06
-1.16026e-06
-1.15757e-06
-1.16036e-06
-1.16813e-06
-1.17952e-06
-1.19175e-06
-1.19846e-06
-1.19323e-06
-1.17477e-06
-1.14469e-06
-1.10612e-06
-1.06359e-06
-1.02262e-06
-9.89143e-07
-9.68952e-07
-9.67248e-07
-9.8836e-07
-1.0355e-06
-1.11052e-06
-1.21388e-06
-1.34464e-06
-1.50061e-06
-1.67853e-06
-1.87434e-06
-2.08356e-06
-2.30156e-06
-2.52396e-06
-2.74684e-06
-2.96655e-06
-1.24325e-06
-1.26016e-06
-1.27406e-06
-1.28306e-06
-1.28697e-06
-1.28615e-06
-1.281e-06
-1.27197e-06
-1.25973e-06
-1.24518e-06
-1.22935e-06
-1.21334e-06
-1.19824e-06
-1.18512e-06
-1.17492e-06
-1.16846e-06
-1.16636e-06
-1.16902e-06
-1.17656e-06
-1.18862e-06
-1.20413e-06
-1.22085e-06
-1.23338e-06
-1.23641e-06
-1.22943e-06
-1.21438e-06
-1.19431e-06
-1.17324e-06
-1.15586e-06
-1.14697e-06
-1.15109e-06
-1.17208e-06
-1.21299e-06
-1.27586e-06
-1.36164e-06
-1.47015e-06
-1.60024e-06
-1.74987e-06
-1.91631e-06
-2.09638e-06
-2.28665e-06
-2.48371e-06
-2.68436e-06
-2.88574e-06
-3.0851e-06
-1.09367e-06
-1.11669e-06
-1.13738e-06
-1.15411e-06
-1.16671e-06
-1.17553e-06
-1.18085e-06
-1.18298e-06
-1.18239e-06
-1.17972e-06
-1.17573e-06
-1.17128e-06
-1.16724e-06
-1.16453e-06
-1.16399e-06
-1.1664e-06
-1.17241e-06
-1.18249e-06
-1.19687e-06
-1.2154e-06
-1.23736e-06
-1.26121e-06
-1.28242e-06
-1.29658e-06
-1.3037e-06
-1.30582e-06
-1.30569e-06
-1.30666e-06
-1.31245e-06
-1.32674e-06
-1.35284e-06
-1.39345e-06
-1.4506e-06
-1.52549e-06
-1.61847e-06
-1.72913e-06
-1.85635e-06
-1.99844e-06
-2.1533e-06
-2.31852e-06
-2.49162e-06
-2.67012e-06
-2.85171e-06
-3.03432e-06
-3.21587e-06
-9.33823e-07
-9.63565e-07
-9.9141e-07
-1.01609e-06
-1.03752e-06
-1.05601e-06
-1.07177e-06
-1.08504e-06
-1.09616e-06
-1.10561e-06
-1.11394e-06
-1.12181e-06
-1.12992e-06
-1.13899e-06
-1.14975e-06
-1.1629e-06
-1.17906e-06
-1.19874e-06
-1.22227e-06
-1.24972e-06
-1.28078e-06
-1.31466e-06
-1.34759e-06
-1.37568e-06
-1.39918e-06
-1.41999e-06
-1.44037e-06
-1.46294e-06
-1.49049e-06
-1.52566e-06
-1.57075e-06
-1.62755e-06
-1.69734e-06
-1.78078e-06
-1.87796e-06
-1.98842e-06
-2.11128e-06
-2.24525e-06
-2.38881e-06
-2.54028e-06
-2.69788e-06
-2.85988e-06
-3.02464e-06
-3.19068e-06
-3.35646e-06
-7.6541e-07
-8.02602e-07
-8.38098e-07
-8.71137e-07
-9.01729e-07
-9.30112e-07
-9.56476e-07
-9.81017e-07
-1.00401e-06
-1.02581e-06
-1.04687e-06
-1.06767e-06
-1.08876e-06
-1.11072e-06
-1.13416e-06
-1.15968e-06
-1.18785e-06
-1.21919e-06
-1.25412e-06
-1.29293e-06
-1.33569e-06
-1.38231e-06
-1.42961e-06
-1.47387e-06
-1.51524e-06
-1.55525e-06
-1.59562e-06
-1.63828e-06
-1.68523e-06
-1.73829e-06
-1.79896e-06
-1.86842e-06
-1.94748e-06
-2.03651e-06
-2.13551e-06
-2.24413e-06
-2.36176e-06
-2.48754e-06
-2.62044e-06
-2.75934e-06
-2.90305e-06
-3.05041e-06
-3.20026e-06
-3.35158e-06
-3.50327e-06
-5.91688e-07
-6.37159e-07
-6.80911e-07
-7.22864e-07
-7.63133e-07
-8.01855e-07
-8.39175e-07
-8.75277e-07
-9.10405e-07
-9.44857e-07
-9.78978e-07
-1.01316e-06
-1.04784e-06
-1.08348e-06
-1.12059e-06
-1.15968e-06
-1.20127e-06
-1.24589e-06
-1.29401e-06
-1.34608e-06
-1.40253e-06
-1.46375e-06
-1.527e-06
-1.58858e-06
-1.64815e-06
-1.7067e-06
-1.76543e-06
-1.82578e-06
-1.88914e-06
-1.9567e-06
-2.02945e-06
-2.10821e-06
-2.19353e-06
-2.28569e-06
-2.38471e-06
-2.49041e-06
-2.60245e-06
-2.7203e-06
-2.84337e-06
-2.97096e-06
-3.10232e-06
-3.23671e-06
-3.37337e-06
-3.51159e-06
-3.65069e-06
-4.29639e-07
-4.8381e-07
-5.36149e-07
-5.87226e-07
-6.37243e-07
-6.86227e-07
-7.34275e-07
-7.81573e-07
-8.28348e-07
-8.74858e-07
-9.2139e-07
-9.68271e-07
-1.01586e-06
-1.06456e-06
-1.1148e-06
-1.16702e-06
-1.2217e-06
-1.27935e-06
-1.34049e-06
-1.40567e-06
-1.4755e-06
-1.55057e-06
-1.62846e-06
-1.70554e-06
-1.78086e-06
-1.85474e-06
-1.92808e-06
-2.00201e-06
-2.07757e-06
-2.15558e-06
-2.23674e-06
-2.32164e-06
-2.41072e-06
-2.50423e-06
-2.60227e-06
-2.7048e-06
-2.8117e-06
-2.92271e-06
-3.03751e-06
-3.15572e-06
-3.2769e-06
-3.40061e-06
-3.52636e-06
-3.65371e-06
-3.78228e-06
-2.9954e-07
-3.61805e-07
-4.22321e-07
-4.81897e-07
-5.40748e-07
-5.98855e-07
-6.56297e-07
-7.13255e-07
-7.69945e-07
-8.26594e-07
-8.83454e-07
-9.40812e-07
-9.98984e-07
-1.05832e-06
-1.11919e-06
-1.182e-06
-1.24721e-06
-1.31529e-06
-1.38677e-06
-1.46223e-06
-1.54235e-06
-1.62774e-06
-1.71619e-06
-1.80424e-06
-1.89043e-06
-1.97464e-06
-2.05758e-06
-2.14027e-06
-2.22353e-06
-2.30801e-06
-2.39424e-06
-2.48267e-06
-2.57368e-06
-2.66752e-06
-2.76434e-06
-2.86422e-06
-2.96716e-06
-3.07306e-06
-3.18178e-06
-3.29312e-06
-3.40685e-06
-3.52269e-06
-3.64035e-06
-3.75954e-06
-3.88004e-06
-2.03801e-07
-2.73133e-07
-3.40852e-07
-4.07763e-07
-4.74066e-07
-5.39738e-07
-6.04856e-07
-6.69593e-07
-7.34148e-07
-7.98727e-07
-8.63558e-07
-9.28894e-07
-9.95022e-07
-1.06225e-06
-1.13093e-06
-1.20142e-06
-1.27415e-06
-1.34957e-06
-1.42819e-06
-1.51058e-06
-1.59744e-06
-1.68929e-06
-1.78414e-06
-1.87871e-06
-1.97133e-06
-2.0616e-06
-2.15014e-06
-2.23788e-06
-2.32554e-06
-2.41362e-06
-2.50259e-06
-2.59283e-06
-2.68468e-06
-2.77839e-06
-2.87416e-06
-2.9721e-06
-3.07227e-06
-3.1747e-06
-3.27932e-06
-3.38606e-06
-3.49478e-06
-3.60533e-06
-3.71753e-06
-3.83117e-06
-3.94615e-06
-1.35281e-07
-2.10646e-07
-2.84521e-07
-3.57608e-07
-4.3008e-07
-5.01925e-07
-5.73224e-07
-6.44137e-07
-7.14846e-07
-7.85537e-07
-8.56416e-07
-9.27716e-07
-9.99693e-07
-1.07263e-06
-1.14684e-06
-1.22268e-06
-1.30052e-06
-1.38079e-06
-1.46398e-06
-1.55063e-06
-1.64141e-06
-1.73676e-06
-1.83487e-06
-1.93275e-06
-2.02862e-06
-2.122e-06
-2.21346e-06
-2.30386e-06
-2.39381e-06
-2.48377e-06
-2.57412e-06
-2.66523e-06
-2.75739e-06
-2.85086e-06
-2.94584e-06
-3.04246e-06
-3.14083e-06
-3.24101e-06
-3.343e-06
-3.44679e-06
-3.55231e-06
-3.65948e-06
-3.76817e-06
-3.87826e-06
-3.98969e-06
-8.75617e-08
-1.68023e-07
-2.47071e-07
-3.25286e-07
-4.02804e-07
-4.79631e-07
-5.55849e-07
-6.31608e-07
-7.07069e-07
-7.82402e-07
-8.57796e-07
-9.33462e-07
-1.00964e-06
-1.08658e-06
-1.16457e-06
-1.24395e-06
-1.32505e-06
-1.40828e-06
-1.49411e-06
-1.58302e-06
-1.67566e-06
-1.77239e-06
-1.87157e-06
-1.97051e-06
-2.06748e-06
-2.16199e-06
-2.25462e-06
-2.34612e-06
-2.43705e-06
-2.5278e-06
-2.61872e-06
-2.71014e-06
-2.80233e-06
-2.89555e-06
-2.98997e-06
-3.08575e-06
-3.18302e-06
-3.28185e-06
-3.38229e-06
-3.48434e-06
-3.58799e-06
-3.69319e-06
-3.79987e-06
-3.90794e-06
-4.01735e-06
-5.52886e-08
-1.40024e-07
-2.23377e-07
-3.05803e-07
-3.87414e-07
-4.68225e-07
-5.48323e-07
-6.27843e-07
-7.06931e-07
-7.85744e-07
-8.64454e-07
-9.43256e-07
-1.02237e-06
-1.10202e-06
-1.18249e-06
-1.26407e-06
-1.34709e-06
-1.43193e-06
-1.519e-06
-1.60878e-06
-1.70186e-06
-1.79852e-06
-1.89732e-06
-1.99587e-06
-2.09255e-06
-2.18695e-06
-2.27963e-06
-2.37127e-06
-2.46235e-06
-2.55322e-06
-2.64421e-06
-2.73562e-06
-2.8277e-06
-2.92069e-06
-3.01476e-06
-3.11007e-06
-3.20674e-06
-3.30487e-06
-3.40452e-06
-3.50571e-06
-3.60846e-06
-3.71273e-06
-3.81848e-06
-3.92565e-06
-4.03422e-06
-3.41611e-08
-1.22474e-07
-2.09389e-07
-2.95262e-07
-3.80176e-07
-4.64162e-07
-5.47305e-07
-6.29729e-07
-7.11567e-07
-7.92963e-07
-8.74078e-07
-9.55091e-07
-1.0362e-06
-1.11764e-06
-1.19964e-06
-1.28248e-06
-1.36647e-06
-1.45196e-06
-1.53934e-06
-1.62905e-06
-1.72164e-06
-1.81734e-06
-1.91487e-06
-2.01214e-06
-2.1077e-06
-2.20125e-06
-2.29331e-06
-2.3845e-06
-2.47523e-06
-2.56583e-06
-2.6566e-06
-2.74782e-06
-2.83971e-06
-2.93251e-06
-3.02637e-06
-3.12146e-06
-3.2179e-06
-3.31577e-06
-3.41516e-06
-3.5161e-06
-3.61861e-06
-3.72268e-06
-3.82828e-06
-3.93535e-06
-4.04389e-06
-2.08702e-08
-1.1218e-07
-2.02046e-07
-2.90738e-07
-3.78323e-07
-4.64839e-07
-5.50373e-07
-6.35038e-07
-7.18955e-07
-8.0226e-07
-8.85103e-07
-9.67651e-07
-1.05009e-06
-1.13263e-06
-1.2155e-06
-1.29896e-06
-1.38329e-06
-1.46881e-06
-1.5559e-06
-1.64496e-06
-1.7365e-06
-1.83071e-06
-1.92647e-06
-2.02198e-06
-2.11597e-06
-2.20826e-06
-2.29935e-06
-2.38976e-06
-2.47987e-06
-2.56997e-06
-2.66036e-06
-2.75128e-06
-2.84295e-06
-2.93559e-06
-3.02934e-06
-3.12438e-06
-3.2208e-06
-3.31872e-06
-3.4182e-06
-3.51928e-06
-3.622e-06
-3.72635e-06
-3.8323e-06
-3.93982e-06
-4.04888e-06
-1.29566e-08
-1.06789e-07
-1.99107e-07
-2.90116e-07
-3.79871e-07
-4.68416e-07
-5.55838e-07
-6.42239e-07
-7.27735e-07
-8.12452e-07
-8.96532e-07
-9.80134e-07
-1.06343e-06
-1.14662e-06
-1.22992e-06
-1.31357e-06
-1.39783e-06
-1.483e-06
-1.56944e-06
-1.65751e-06
-1.74769e-06
-1.84014e-06
-1.93391e-06
-2.02744e-06
-2.11968e-06
-2.21052e-06
-2.30045e-06
-2.38993e-06
-2.47927e-06
-2.56877e-06
-2.65868e-06
-2.74926e-06
-2.8407e-06
-2.93319e-06
-3.02691e-06
-3.12198e-06
-3.21854e-06
-3.31667e-06
-3.41645e-06
-3.51792e-06
-3.62112e-06
-3.72604e-06
-3.83267e-06
-3.94097e-06
-4.05091e-06
-8.64965e-09
-1.04619e-07
-1.9899e-07
-2.91918e-07
-3.83451e-07
-4.73638e-07
-5.62564e-07
-6.50325e-07
-7.3703e-07
-8.22799e-07
-9.07769e-07
-9.92088e-07
-1.07592e-06
-1.15946e-06
-1.2429e-06
-1.32647e-06
-1.41042e-06
-1.49502e-06
-1.58061e-06
-1.66752e-06
-1.75621e-06
-1.84681e-06
-1.93851e-06
-2.03003e-06
-2.12047e-06
-2.20984e-06
-2.29856e-06
-2.38703e-06
-2.47555e-06
-2.5644e-06
-2.65381e-06
-2.74402e-06
-2.83522e-06
-2.92759e-06
-3.02129e-06
-3.11646e-06
-3.21322e-06
-3.31166e-06
-3.41185e-06
-3.51384e-06
-3.61766e-06
-3.72333e-06
-3.83081e-06
-3.94007e-06
-4.05108e-06
-6.70868e-09
-1.04502e-07
-2.00607e-07
-2.9514e-07
-3.88146e-07
-4.79679e-07
-5.69819e-07
-6.5866e-07
-7.46304e-07
-8.32868e-07
-9.18481e-07
-1.00329e-06
-1.08745e-06
-1.17113e-06
-1.25453e-06
-1.33787e-06
-1.42137e-06
-1.5053e-06
-1.58996e-06
-1.67565e-06
-1.76282e-06
-1.85158e-06
-1.94126e-06
-2.03082e-06
-2.11953e-06
-2.20744e-06
-2.29497e-06
-2.38244e-06
-2.47015e-06
-2.55834e-06
-2.64724e-06
-2.73708e-06
-2.82803e-06
-2.92028e-06
-3.01398e-06
-3.10927e-06
-3.20626e-06
-3.30504e-06
-3.40569e-06
-3.50825e-06
-3.61277e-06
-3.71924e-06
-3.82764e-06
-3.93794e-06
-4.0501e-06
-6.28433e-09
-1.05648e-07
-2.03229e-07
-2.99119e-07
-3.93361e-07
-4.86011e-07
-5.77147e-07
-6.66858e-07
-7.55244e-07
-8.42418e-07
-9.28504e-07
-1.01364e-06
-1.09798e-06
-1.18169e-06
-1.26496e-06
-1.34797e-06
-1.43097e-06
-1.51418e-06
-1.59789e-06
-1.68238e-06
-1.76806e-06
-1.85505e-06
-1.94282e-06
-2.03054e-06
-2.11761e-06
-2.20416e-06
-2.29055e-06
-2.37707e-06
-2.46398e-06
-2.55153e-06
-2.63994e-06
-2.72941e-06
-2.82012e-06
-2.91225e-06
-3.00595e-06
-3.10135e-06
-3.19857e-06
-3.29769e-06
-3.3988e-06
-3.50195e-06
-3.60716e-06
-3.71445e-06
-3.82378e-06
-3.93513e-06
-4.04845e-06
-6.80562e-09
-1.0753e-07
-2.06381e-07
-3.0343e-07
-3.9872e-07
-4.92309e-07
-5.84273e-07
-6.74697e-07
-7.6368e-07
-8.5133e-07
-9.37771e-07
-1.02313e-06
-1.10757e-06
-1.19123e-06
-1.2743e-06
-1.35696e-06
-1.43943e-06
-1.52192e-06
-1.60471e-06
-1.68806e-06
-1.77234e-06
-1.85767e-06
-1.94365e-06
-2.02966e-06
-2.11523e-06
-2.20052e-06
-2.28584e-06
-2.37146e-06
-2.45763e-06
-2.54457e-06
-2.6325e-06
-2.72161e-06
-2.81209e-06
-2.9041e-06
-2.99779e-06
-3.0933e-06
-3.19073e-06
-3.29018e-06
-3.39173e-06
-3.49543e-06
-3.60131e-06
-3.70937e-06
-3.81961e-06
-3.93197e-06
-4.0464e-06
-7.89415e-09
-1.09806e-07
-2.09756e-07
-3.07805e-07
-4.03994e-07
-4.98382e-07
-5.91042e-07
-6.8206e-07
-7.71531e-07
-8.59561e-07
-9.4627e-07
-1.03179e-06
-1.11626e-06
-1.19983e-06
-1.28268e-06
-1.36497e-06
-1.44692e-06
-1.52874e-06
-1.61066e-06
-1.69293e-06
-1.77591e-06
-1.8597e-06
-1.94403e-06
-2.02848e-06
-2.1127e-06
-2.19682e-06
-2.28116e-06
-2.36595e-06
-2.45143e-06
-2.5378e-06
-2.62528e-06
-2.71406e-06
-2.80431e-06
-2.8962e-06
-2.98987e-06
-3.08546e-06
-3.18308e-06
-3.28283e-06
-3.38478e-06
-3.48899e-06
-3.59549e-06
-3.70428e-06
-3.81536e-06
-3.92866e-06
-4.04414e-06
-9.30121e-09
-1.12254e-07
-2.13163e-07
-3.12079e-07
-4.09044e-07
-5.04118e-07
-5.97372e-07
-6.8889e-07
-7.78766e-07
-8.67104e-07
-9.54022e-07
-1.03965e-06
-1.12412e-06
-1.20758e-06
-1.29019e-06
-1.37214e-06
-1.4536e-06
-1.53477e-06
-1.61588e-06
-1.69716e-06
-1.77894e-06
-1.86133e-06
-1.94416e-06
-2.0272e-06
-2.11018e-06
-2.19326e-06
-2.2767e-06
-2.36073e-06
-2.44557e-06
-2.53142e-06
-2.61848e-06
-2.70694e-06
-2.79697e-06
-2.88874e-06
-2.98238e-06
-3.07803e-06
-3.17582e-06
-3.27583e-06
-3.37814e-06
-3.48281e-06
-3.58988e-06
-3.69934e-06
-3.81118e-06
-3.92536e-06
-4.0418e-06
-1.08639e-08
-1.14732e-07
-2.1648e-07
-3.16153e-07
-4.13792e-07
-5.09459e-07
-6.03222e-07
-6.95165e-07
-7.8538e-07
-8.73972e-07
-9.61055e-07
-1.04675e-06
-1.1312e-06
-1.21454e-06
-1.29693e-06
-1.37854e-06
-1.45954e-06
-1.54012e-06
-1.6205e-06
-1.70088e-06
-1.78157e-06
-1.86267e-06
-1.94415e-06
-2.02592e-06
-2.1078e-06
-2.18993e-06
-2.27256e-06
-2.3559e-06
-2.44015e-06
-2.52552e-06
-2.6122e-06
-2.70036e-06
-2.79018e-06
-2.88182e-06
-2.97543e-06
-3.07113e-06
-3.16905e-06
-3.26929e-06
-3.37192e-06
-3.47701e-06
-3.58457e-06
-3.69464e-06
-3.80718e-06
-3.92214e-06
-4.03947e-06
-1.24827e-08
-1.17158e-07
-2.19642e-07
-3.19976e-07
-4.18204e-07
-5.14385e-07
-6.08588e-07
-7.00894e-07
-7.91398e-07
-8.802e-07
-9.67414e-07
-1.05316e-06
-1.13758e-06
-1.2208e-06
-1.30297e-06
-1.38427e-06
-1.46485e-06
-1.54489e-06
-1.6246e-06
-1.70416e-06
-1.78387e-06
-1.86381e-06
-1.94406e-06
-2.0247e-06
-2.10558e-06
-2.18687e-06
-2.26877e-06
-2.35148e-06
-2.43521e-06
-2.52014e-06
-2.60646e-06
-2.69435e-06
-2.78397e-06
-2.87549e-06
-2.96905e-06
-3.06479e-06
-3.16283e-06
-3.26326e-06
-3.36617e-06
-3.47161e-06
-3.57963e-06
-3.69023e-06
-3.80339e-06
-3.91907e-06
-4.03719e-06
-1.41201e-08
-1.19516e-07
-2.22655e-07
-3.23577e-07
-4.22326e-07
-5.1896e-07
-6.13548e-07
-7.06172e-07
-7.96923e-07
-8.85904e-07
-9.73224e-07
-1.05901e-06
-1.14338e-06
-1.22648e-06
-1.30845e-06
-1.38945e-06
-1.46964e-06
-1.54919e-06
-1.62829e-06
-1.70711e-06
-1.78593e-06
-1.86481e-06
-1.94394e-06
-2.02355e-06