/*--------------------------------*- C++ -*----------------------------------*\
| =========                 |                                                 |
| \\      /  F ield         | OpenFOAM: The Open Source CFD Toolbox           |
|  \\    /   O peration     | Version:  2312                                  |
|   \\  /    A nd           | Website:  www.openfoam.com                      |
|    \\/     M anipulation  |                                                 |
\*---------------------------------------------------------------------------*/
FoamFile
{
    version     2.0;
    format      ascii;
    arch        "LSB;label=32;scalar=64";
    class       surfaceScalarField;
    location    "200";
    object      phi;
}
// * * * * * * * * * * * * * * * * * * * * * * * * * * * * * * * * * * * * * //

dimensions      [0 3 -1 0 0 0 0];

oriented        oriented;

internalField   nonuniform List<scalar> 
9445
(
1.65155e-10
2.44988e-12
1.64087e-10
1.0679e-12
1.63876e-10
2.11156e-13
1.64278e-10
-4.02011e-13
1.6515e-10
-8.72113e-13
1.66415e-10
-1.26487e-12
1.68048e-10
-1.63234e-12
1.70076e-10
-2.02823e-12
1.72622e-10
-2.54644e-12
1.76031e-10
-3.40883e-12
1.81226e-10
-5.19496e-12
1.90665e-10
-9.43912e-12
2.09985e-10
-1.93194e-11
2.53143e-10
-4.31589e-11
-1.15434e-10
3.68577e-10
5.78075e-10
1.12134e-11
5.7408e-10
5.06313e-12
5.73044e-10
1.24714e-12
5.74098e-10
-1.45635e-12
5.76747e-10
-3.52137e-12
5.8072e-10
-5.23753e-12
5.85926e-10
-6.83787e-12
5.9246e-10
-8.56298e-12
6.00718e-10
-1.08045e-11
6.11684e-10
-1.43743e-11
6.27506e-10
-2.10168e-11
6.52301e-10
-3.42344e-11
6.9283e-10
-5.98479e-11
7.56707e-10
-1.07037e-10
-1.86274e-10
8.27548e-10
1.14372e-09
2.87914e-11
1.13542e-09
1.33638e-11
1.1329e-09
3.77218e-12
1.13441e-09
-2.96898e-12
1.13898e-09
-8.09266e-12
1.14607e-09
-1.23236e-11
1.15547e-09
-1.62392e-11
1.16733e-09
-2.04193e-11
1.18225e-09
-2.57303e-11
1.20163e-09
-3.37512e-11
1.22793e-09
-4.73157e-11
1.26453e-09
-7.0833e-11
1.31398e-09
-1.09297e-10
1.37204e-09
-1.65101e-10
-2.31437e-10
1.4172e-09
1.90561e-09
5.84329e-11
1.89111e-09
2.78607e-11
1.88607e-09
8.81466e-12
1.88757e-09
-4.47248e-12
1.89398e-09
-1.45039e-11
1.90438e-09
-2.27144e-11
1.91835e-09
-3.02126e-11
1.93598e-09
-3.80539e-11
1.9579e-09
-4.76442e-11
1.98533e-09
-6.11866e-11
2.01994e-09
-8.19229e-11
2.06265e-09
-1.13547e-10
2.11125e-09
-1.5789e-10
2.15727e-09
-2.11122e-10
-2.60937e-10
2.18677e-09
2.91766e-09
1.04212e-10
2.89444e-09
5.10762e-11
2.88537e-09
1.78872e-11
2.886e-09
-5.10043e-12
2.8938e-09
-2.23105e-11
2.90732e-09
-3.62307e-11
2.9258e-09
-4.8698e-11
2.94908e-09
-6.13323e-11
2.97744e-09
-7.59984e-11
3.01138e-09
-9.51274e-11
3.05098e-09
-1.21521e-10
3.09455e-09
-1.5712e-10
3.13728e-09
-2.00625e-10
3.17155e-09
-2.45387e-10
-2.80253e-10
3.19087e-09
4.246e-09
1.71037e-10
4.21083e-09
8.62445e-11
4.19561e-09
3.31072e-11
4.19396e-09
-3.44671e-12
4.20219e-09
-3.05444e-11
4.2181e-09
-5.2138e-11
4.2404e-09
-7.09921e-11
4.26839e-09
-8.93263e-11
4.30168e-09
-1.09287e-10
4.33965e-09
-1.33098e-10
4.3807e-09
-1.62573e-10
4.42144e-09
-1.97855e-10
4.4567e-09
-2.35891e-10
4.48147e-09
-2.70159e-10
-2.92942e-10
4.49416e-09
5.97057e-09
2.64363e-10
5.91955e-09
1.37265e-10
5.8954e-09
5.72575e-11
5.8894e-09
2.55114e-12
5.89642e-09
-3.75625e-11
5.91325e-09
-6.8973e-11
5.93783e-09
-9.55759e-11
5.96871e-09
-1.20205e-10
6.00455e-09
-1.45128e-10
6.04357e-09
-1.7211e-10
6.08294e-09
-2.01952e-10
6.11876e-09
-2.33668e-10
6.14685e-09
-2.6398e-10
6.16472e-09
-2.88038e-10
-3.01484e-10
6.17327e-09
8.18599e-09
3.8946e-10
8.11488e-09
2.08372e-10
8.07845e-09
9.36856e-11
8.06537e-09
1.56283e-11
8.06878e-09
-4.09686e-11
8.08425e-09
-8.44431e-11
8.10872e-09
-1.20044e-10
8.13979e-09
-1.51272e-10
8.17514e-09
-1.80485e-10
8.21209e-09
-2.09056e-10
8.24731e-09
-2.37176e-10
8.27726e-09
-2.63616e-10
8.29918e-09
-2.859e-10
8.31234e-09
-3.01199e-10
-3.07629e-10
8.31849e-09
1.10011e-08
5.49806e-10
1.09062e-08
3.03278e-10
1.08541e-08
1.45857e-10
1.08307e-08
3.89724e-11
1.08275e-08
-3.77212e-11
1.08385e-08
-9.5498e-11
1.08597e-08
-1.41214e-10
1.08876e-08
-1.79176e-10
1.09191e-08
-2.12e-10
1.09511e-08
-2.40997e-10
1.09802e-08
-2.66347e-10
1.10039e-08
-2.87287e-10
1.10205e-08
-3.02555e-10
1.10304e-08
-3.11053e-10
-3.12461e-10
1.10352e-08
1.45361e-08
7.44362e-10
1.44159e-08
4.2349e-10
1.43455e-08
2.16323e-10
1.43089e-08
7.55702e-11
1.42957e-08
-2.4583e-11
1.42989e-08
-9.86972e-11
1.43132e-08
-1.55493e-10
1.43344e-08
-2.00324e-10
1.43587e-08
-2.36377e-10
1.43831e-08
-2.65364e-10
1.44047e-08
-2.87982e-10
1.44218e-08
-3.04331e-10
1.44336e-08
-3.14338e-10
1.44407e-08
-3.18154e-10
-3.16354e-10
1.44446e-08
1.89159e-08
9.63737e-10
1.87738e-08
5.6565e-10
1.86852e-08
3.0488e-10
1.86339e-08
1.26911e-10
1.86084e-08
9.03088e-13
1.86007e-08
-9.10141e-11
1.86048e-08
-1.59602e-10
1.8616e-08
-2.11514e-10
1.86305e-08
-2.50864e-10
1.86453e-08
-2.80161e-10
1.86582e-08
-3.00957e-10
1.86682e-08
-3.14305e-10
1.8675e-08
-3.21112e-10
1.86792e-08
-3.22336e-10
-3.19019e-10
1.86818e-08
2.42602e-08
1.18661e-09
2.41074e-08
7.18438e-10
2.40062e-08
4.06093e-10
2.39421e-08
1.9103e-10
2.39041e-08
3.88424e-11
2.38843e-08
-7.11461e-11
2.38763e-08
-1.51677e-10
2.38757e-08
-2.10835e-10
2.38787e-08
-2.5388e-10
2.38829e-08
-2.84338e-10
2.38866e-08
-3.04704e-10
2.38892e-08
-3.169e-10
2.38906e-08
-3.22547e-10
2.38914e-08
-3.23088e-10
-3.1979e-10
2.38922e-08
3.06739e-08
1.37998e-09
3.05313e-08
8.61065e-10
3.04301e-08
5.07306e-10
3.03606e-08
2.60553e-10
3.03142e-08
8.51953e-11
3.02842e-08
-4.11099e-11
3.02651e-08
-1.32628e-10
3.0253e-08
-1.98734e-10
3.0245e-08
-2.45808e-10
3.0239e-08
-2.78356e-10
3.0234e-08
-2.99711e-10
3.02296e-08
-3.12463e-10
3.02257e-08
-3.18705e-10
3.02228e-08
-3.20154e-10
-3.18163e-10
3.02212e-08
3.82467e-08
1.50812e-09
3.81406e-08
9.67147e-10
3.80581e-08
5.89859e-10
3.79961e-08
3.2258e-10
3.79502e-08
1.31068e-10
3.79162e-08
-7.1564e-12
3.78907e-08
-1.0705e-10
3.78707e-08
-1.78819e-10
3.78546e-08
-2.29651e-10
3.7841e-08
-2.64769e-10
3.78294e-08
-2.88087e-10
3.78195e-08
-3.02613e-10
3.78115e-08
-3.10697e-10
3.78055e-08
-3.14179e-10
-3.14424e-10
3.78018e-08
4.70695e-08
1.55028e-09
4.70203e-08
1.01636e-09
4.69738e-08
6.36345e-10
4.69333e-08
3.6305e-10
4.68991e-08
1.65276e-10
4.68702e-08
2.17267e-11
4.68455e-08
-8.234e-11
4.6824e-08
-1.57324e-10
4.68051e-08
-2.10734e-10
4.67884e-08
-2.48112e-10
4.6774e-08
-2.73622e-10
4.67618e-08
-2.90428e-10
4.6752e-08
-3.00953e-10
4.67449e-08
-3.07038e-10
-3.10006e-10
4.67405e-08
5.72554e-08
1.51389e-09
5.72642e-08
1.00754e-09
5.72589e-08
6.416e-10
5.72467e-08
3.75313e-10
5.72311e-08
1.80883e-10
5.7214e-08
3.87899e-11
5.71965e-08
-6.48718e-11
5.71794e-08
-1.4015e-10
5.7163e-08
-1.94415e-10
5.71481e-08
-2.33147e-10
5.71349e-08
-2.60459e-10
5.71239e-08
-2.79449e-10
5.71154e-08
-2.92456e-10
5.71096e-08
-3.01234e-10
-3.07016e-10
5.71066e-08
6.89128e-08
1.42608e-09
6.8962e-08
9.58315e-10
6.89873e-08
6.16379e-10
6.89972e-08
3.65362e-10
6.89974e-08
1.80696e-10
6.89914e-08
4.47522e-11
6.89818e-08
-5.52531e-11
6.89703e-08
-1.28686e-10
6.89584e-08
-1.82473e-10
6.8947e-08
-2.21774e-10
6.8937e-08
-2.50447e-10
6.89289e-08
-2.71381e-10
6.89232e-08
-2.86739e-10
6.89201e-08
-2.98125e-10
-3.06658e-10
6.89198e-08
8.20237e-08
1.30968e-09
8.2094e-08
8.88053e-10
8.21341e-08
5.76315e-10
8.21541e-08
3.45354e-10
8.21608e-08
1.73931e-10
8.21591e-08
4.65073e-11
8.21522e-08
-4.83406e-11
8.21426e-08
-1.19059e-10
8.2132e-08
-1.71923e-10
8.21218e-08
-2.1161e-10
8.2113e-08
-2.4161e-10
8.21061e-08
-2.64526e-10
8.21017e-08
-2.82295e-10
8.20999e-08
-2.96353e-10
-3.07688e-10
8.2101e-08
9.62578e-08
1.17072e-09
9.63424e-08
8.03536e-10
9.63904e-08
5.28292e-10
9.64139e-08
3.21801e-10
9.64213e-08
1.66526e-10
9.64185e-08
4.93999e-11
9.64094e-08
-3.93065e-11
9.63972e-08
-1.06849e-10
9.63839e-08
-1.58652e-10
9.63711e-08
-1.98772e-10
9.63597e-08
-2.30241e-10
9.63505e-08
-2.55319e-10
9.63439e-08
-2.75687e-10
9.63402e-08
-2.92596e-10
-3.0689e-10
9.63394e-08
1.10786e-07
1.00569e-09
1.10888e-07
7.01515e-10
1.10947e-07
4.69658e-10
1.10976e-07
2.9276e-10
1.10985e-07
1.57282e-10
1.10981e-07
5.29814e-11
1.1097e-07
-2.78672e-11
1.10954e-07
-9.10977e-11
1.10937e-07
-1.41108e-10
1.10919e-07
-1.81203e-10
1.10903e-07
-2.13862e-10
1.10888e-07
-2.40942e-10
1.10876e-07
-2.63829e-10
1.10867e-07
-2.8356e-10
-3.00829e-10
1.10861e-07
1.09956e-07
8.35626e-10
1.10064e-07
5.93403e-10
1.10128e-07
4.05296e-10
1.10162e-07
2.58931e-10
1.10175e-07
1.44407e-10
1.10174e-07
5.41332e-11
1.10163e-07
-1.76863e-11
1.10148e-07
-7.54881e-11
1.10129e-07
-1.22652e-10
1.1011e-07
-1.61735e-10
1.10091e-07
-1.94667e-10
1.10073e-07
-2.22899e-10
1.10056e-07
-2.47526e-10
1.10042e-07
-2.6937e-10
-2.88991e-10
1.1003e-07
9.41065e-08
6.84276e-10
9.42063e-08
4.93627e-10
9.42687e-08
3.42868e-10
9.43044e-08
2.23228e-10
9.43213e-08
1.27592e-10
9.43249e-08
5.04443e-11
9.43197e-08
-1.24764e-11
9.43087e-08
-6.44647e-11
9.42941e-08
-1.08052e-10
9.42775e-08
-1.4517e-10
9.42602e-08
-1.77287e-10
9.42428e-08
-2.05515e-10
9.42259e-08
-2.30697e-10
9.421e-08
-2.5347e-10
-2.74275e-10
9.41953e-08
7.89483e-08
5.51224e-10
7.90394e-08
4.02512e-10
7.90995e-08
2.8284e-10
7.91367e-08
1.86016e-10
7.91573e-08
1.07e-10
7.91659e-08
4.18544e-11
7.91659e-08
-1.25034e-11
7.91599e-08
-5.84812e-11
7.91498e-08
-9.79398e-11
7.91369e-08
-1.32307e-10
7.91223e-08
-1.62673e-10
7.91067e-08
-1.89873e-10
7.90905e-08
-2.14538e-10
7.90742e-08
-2.37148e-10
-2.58038e-10
7.9058e-08
6.51994e-08
4.3556e-10
6.52814e-08
3.20569e-10
6.53378e-08
2.26448e-10
6.5375e-08
1.48843e-10
6.53977e-08
8.42471e-11
6.54097e-08
2.98994e-11
6.54135e-08
-1.63952e-11
6.54114e-08
-5.63669e-11
6.54049e-08
-9.13575e-11
6.53949e-08
-1.224e-10
6.53826e-08
-1.50288e-10
6.53683e-08
-1.75629e-10
6.53527e-08
-1.98887e-10
6.53359e-08
-2.20411e-10
-2.40444e-10
6.53183e-08
5.31534e-08
3.36468e-10
5.32256e-08
2.48448e-10
5.32768e-08
1.75187e-10
5.3312e-08
1.13654e-10
5.33348e-08
6.14656e-11
5.3348e-08
1.67273e-11
5.33537e-08
-2.20949e-11
5.33535e-08
-5.62208e-11
5.33488e-08
-8.65968e-11
5.33403e-08
-1.13952e-10
5.33289e-08
-1.3885e-10
5.3315e-08
-1.61721e-10
5.3299e-08
-1.82894e-10
5.32812e-08
-2.02615e-10
-2.21055e-10
5.32618e-08
4.28516e-08
2.53463e-10
4.29131e-08
1.86893e-10
4.29578e-08
1.30548e-10
4.29891e-08
8.23556e-11
4.30098e-08
4.07479e-11
4.30221e-08
4.46326e-12
4.30275e-08
-2.75477e-11
4.30274e-08
-5.61248e-11
4.30227e-08
-8.19178e-11
4.30142e-08
-1.05428e-10
4.30024e-08
-1.27041e-10
4.29877e-08
-1.47055e-10
4.29705e-08
-1.65694e-10
4.2951e-08
-1.83128e-10
-1.99468e-10
4.29295e-08
3.41958e-08
1.85973e-10
3.42464e-08
1.36313e-10
3.42834e-08
9.35551e-11
3.43094e-08
5.63202e-11
3.43265e-08
2.36303e-11
3.43363e-08
-5.32554e-12
3.434e-08
-3.12467e-11
3.43386e-08
-5.46942e-11
3.43328e-08
-7.61002e-11
3.43231e-08
-9.57982e-11
3.43101e-08
-1.14046e-10
3.42941e-08
-1.3104e-10
3.42754e-08
-1.4693e-10
3.42541e-08
-1.61827e-10
-1.75801e-10
3.42304e-08
2.70213e-08
1.32907e-10
2.70612e-08
9.64163e-11
2.70903e-08
6.4434e-11
2.71105e-08
3.6083e-11
2.71234e-08
1.08023e-11
2.71299e-08
-1.19067e-11
2.71312e-08
-3.24964e-11
2.71278e-08
-5.13287e-11
2.71204e-08
-6.86808e-11
2.71094e-08
-8.47672e-11
2.70951e-08
-9.97532e-11
2.70778e-08
-1.13765e-10
2.70578e-08
-1.26898e-10
2.70352e-08
-1.39223e-10
-1.5078e-10
2.70101e-08
2.11402e-08
9.25704e-11
2.11704e-08
6.61863e-11
2.11922e-08
4.26271e-11
2.12069e-08
2.13769e-11
2.12156e-08
2.15818e-12
2.1219e-08
-1.53203e-11
2.12178e-08
-3.13419e-11
2.12127e-08
-4.6131e-11
2.12038e-08
-5.98587e-11
2.11917e-08
-7.26575e-11
2.11766e-08
-8.46297e-11
2.11587e-08
-9.58527e-11
2.11382e-08
-1.06385e-10
2.11152e-08
-1.16269e-10
-1.25529e-10
2.109e-08
1.63658e-08
6.28688e-11
1.63879e-08
4.41198e-11
1.64035e-08
2.70502e-11
1.64134e-08
1.13971e-11
1.64185e-08
-2.93707e-12
1.64193e-08
-1.61136e-11
1.64163e-08
-2.83039e-11
1.64098e-08
-3.96412e-11
1.64002e-08
-5.02267e-11
1.63876e-08
-6.01388e-11
1.63725e-08
-6.94375e-11
1.63548e-08
-7.81684e-11
1.63348e-08
-8.63657e-11
1.63125e-08
-9.40544e-11
-1.01247e-10
1.62883e-08
1.25242e-08
4.16191e-11
1.25397e-08
2.85487e-11
1.25504e-08
1.64108e-11
1.25567e-08
5.11078e-12
1.25591e-08
-5.34672e-12
1.2558e-08
-1.5048e-11
1.25538e-08
-2.40927e-11
1.25467e-08
-3.25561e-11
1.2537e-08
-4.04952e-11
1.25248e-08
-4.79539e-11
1.25103e-08
-5.49652e-11
1.24937e-08
-6.15544e-11
1.24751e-08
-6.77403e-11
1.24546e-08
-7.35372e-11
-7.89517e-11
1.24323e-08
9.45922e-09
2.68064e-11
9.46988e-09
1.78951e-11
9.47683e-09
9.45665e-12
9.48044e-09
1.49678e-12
9.48103e-09
-5.93284e-12
9.47886e-09
-1.28788e-11
9.47417e-09
-1.93968e-11
9.46714e-09
-2.55265e-11
9.45794e-09
-3.12981e-11
9.44672e-09
-3.6734e-11
9.43361e-09
-4.18513e-11
9.41871e-09
-4.66625e-11
9.40215e-09
-5.11775e-11
9.38402e-09
-5.54037e-11
-5.93449e-11
9.36441e-09
7.03428e-09
1.67269e-11
7.04136e-09
1.08153e-11
7.0457e-09
5.11474e-12
7.04752e-09
-3.20399e-13
7.04701e-09
-5.42754e-12
7.04437e-09
-1.0234e-11
7.03974e-09
-1.47689e-11
7.03327e-09
-1.90516e-11
7.02507e-09
-2.30963e-11
7.01524e-09
-2.69135e-11
7.0039e-09
-3.05103e-11
6.99113e-09
-3.38926e-11
6.97702e-09
-3.70645e-11
6.96165e-09
-4.003e-11
-4.27912e-11
6.94509e-09
5.13181e-09
1.00308e-11
5.13638e-09
6.24624e-12
5.13895e-09
2.54032e-12
5.13965e-09
-1.02159e-12
5.13861e-09
-4.38573e-12
5.13595e-09
-7.57018e-12
5.13177e-09
-1.05887e-11
5.12617e-09
-1.34496e-11
5.11923e-09
-1.61583e-11
5.11103e-09
-1.87187e-11
5.10166e-09
-2.11329e-11
5.09117e-09
-2.34031e-11
5.07963e-09
-2.55306e-11
5.06712e-09
-2.7517e-11
-2.93637e-11
5.05369e-09
3.6522e-09
5.69896e-12
3.65505e-09
3.39176e-12
3.65648e-09
1.10877e-12
3.65656e-09
-1.09716e-12
3.65536e-09
-3.18884e-12
3.65297e-09
-5.17912e-12
3.64946e-09
-7.07341e-12
3.64488e-09
-8.87431e-12
3.6393e-09
-1.05832e-11
3.63279e-09
-1.22005e-11
3.62538e-09
-1.37264e-11
3.61714e-09
-1.5161e-11
3.60811e-09
-1.65045e-11
3.59835e-09
-1.7757e-11
-1.89193e-11
3.58791e-09
2.51209e-09
2.98934e-12
2.5138e-09
1.67965e-12
2.51453e-09
3.81187e-13
2.51431e-09
-8.76702e-13
2.5132e-09
-2.07335e-12
2.51123e-09
-3.21755e-12
2.50847e-09
-4.31059e-12
2.50495e-09
-5.35266e-12
2.50071e-09
-6.34338e-12
2.49579e-09
-7.28213e-12
2.49023e-09
-8.16811e-12
2.48407e-09
-9.00098e-12
2.47735e-09
-9.78038e-12
2.4701e-09
-1.05058e-11
-1.11772e-11
2.46235e-09
1.64252e-09
1.37592e-12
1.64348e-09
7.1187e-13
1.6438e-09
6.26538e-14
1.64349e-09
-5.66261e-13
1.64258e-09
-1.1666e-12
1.64111e-09
-1.74342e-12
1.6391e-09
-2.29642e-12
1.63657e-09
-2.82504e-12
1.63355e-09
-3.32851e-12
1.63008e-09
-3.80605e-12
1.62617e-09
-4.25689e-12
1.62185e-09
-4.68059e-12
1.61714e-09
-5.07684e-12
1.61208e-09
-5.44493e-12
-5.78376e-12
1.60669e-09
9.86942e-10
4.93204e-13
9.87436e-10
2.18504e-13
9.87535e-10
-3.68508e-14
9.87252e-10
-2.8365e-13
9.86606e-10
-5.20532e-13
9.85612e-10
-7.49423e-13
9.84286e-10
-9.69731e-13
9.82642e-10
-1.1809e-12
9.80695e-10
-1.38237e-12
9.78463e-10
-1.57361e-12
9.7596e-10
-1.75418e-12
9.73203e-10
-1.92377e-12
9.70209e-10
-2.08229e-12
9.66993e-10
-2.22907e-12
-2.36248e-12
9.63572e-10
4.99452e-10
9.07106e-14
4.9965e-10
2.00655e-14
4.99648e-10
-3.47066e-14
4.99452e-10
-8.76979e-14
4.99071e-10
-1.39355e-13
4.98512e-10
-1.89803e-13
4.9778e-10
-2.38684e-13
4.96885e-10
-2.85712e-13
4.95834e-10
-3.30648e-13
4.94633e-10
-3.73304e-13
4.93293e-10
-4.13535e-13
4.9182e-10
-4.51231e-13
4.90224e-10
-4.86409e-13
4.88514e-10
-5.18754e-13
-5.46779e-13
4.86698e-10
1.43027e-10
1.43047e-10
1.43012e-10
1.42925e-10
1.42785e-10
1.42595e-10
1.42357e-10
1.42071e-10
1.4174e-10
1.41367e-10
1.40954e-10
1.40502e-10
1.40016e-10
1.39497e-10
1.3895e-10
4.43281e-10
-2.73228e-10
1.98524e-10
5.48455e-10
-2.99675e-10
1.94502e-10
6.59249e-10
-2.85873e-10
1.75078e-10
7.70827e-10
-2.60277e-10
1.487e-10
8.82071e-10
-2.29053e-10
1.17809e-10
9.93152e-10
-1.95446e-10
8.4365e-11
1.10461e-09
-1.61022e-10
4.9568e-11
1.21696e-09
-1.26948e-10
1.45977e-11
1.33065e-09
-9.43912e-11
-1.92991e-11
1.44603e-09
-6.46227e-11
-5.07588e-11
1.56336e-09
-3.90538e-11
-7.82782e-11
1.68282e-09
-1.92233e-11
-1.00232e-10
1.80449e-09
-6.74139e-12
-1.14932e-10
1.92841e-09
-3.18068e-12
-1.2074e-10
2.05456e-09
-9.90438e-12
-1.16245e-10
2.1829e-09
-2.78504e-11
-1.00492e-10
2.31342e-09
-5.73229e-11
-7.3199e-11
2.44617e-09
-9.80126e-11
-3.47299e-11
2.58121e-09
-1.49597e-10
1.45508e-11
2.71856e-09
-2.1392e-10
7.65704e-11
2.85762e-09
-3.00118e-10
1.61062e-10
2.99613e-09
-4.34974e-10
2.96464e-10
3.11052e-09
-5.71399e-10
4.57007e-10
3.19405e-09
-7.16834e-10
6.33302e-10
3.24831e-09
-8.77405e-10
8.23142e-10
3.27502e-09
-1.02878e-09
1.00208e-09
3.27633e-09
-1.14794e-09
1.14662e-09
3.2549e-09
-1.21747e-09
1.2389e-09
3.2137e-09
-1.22695e-09
1.26816e-09
3.15578e-09
-1.17258e-09
1.2305e-09
3.0841e-09
-1.05579e-09
1.12747e-09
3.00139e-09
-8.8157e-10
9.64274e-10
2.91008e-09
-6.56878e-10
7.48197e-10
2.81215e-09
-3.89399e-10
4.87325e-10
2.70909e-09
-8.69236e-11
1.89978e-10
2.60161e-09
2.42485e-10
-1.34999e-10
2.48924e-09
5.89433e-10
-4.77062e-10
2.36997e-09
9.41611e-10
-8.22347e-10
2.24004e-09
1.28219e-09
-1.15225e-09
2.09415e-09
1.58884e-09
-1.44296e-09
1.92654e-09
1.83372e-09
-1.66611e-09
1.73318e-09
1.98357e-09
-1.79022e-09
1.51544e-09
1.99835e-09
-1.7806e-09
1.28871e-09
1.82681e-09
-1.60008e-09
1.36833e-09
1.09364e-09
-1.17326e-09
8.65472e-10
-3.11152e-10
9.33013e-10
-3.67216e-10
1.02345e-09
-3.76315e-10
1.1264e-09
-3.63226e-10
1.23619e-09
-3.38842e-10
1.35011e-09
-3.09364e-10
1.46705e-09
-2.77962e-10
1.58663e-09
-2.46526e-10
1.70878e-09
-2.16539e-10
1.83354e-09
-1.89389e-10
1.961e-09
-1.66513e-10
2.09121e-09
-1.49431e-10
2.22418e-09
-1.39713e-10
2.35989e-09
-1.38886e-10
2.49826e-09
-1.48281e-10
2.63924e-09
-1.68824e-10
2.78276e-09
-2.00845e-10
2.92884e-09
-2.44091e-10
3.07752e-09
-2.98278e-10
3.22874e-09
-3.65145e-10
3.38179e-09
-4.5317e-10
3.53415e-09
-5.87336e-10
3.66002e-09
-6.97266e-10
3.75207e-09
-8.08885e-10
3.81212e-09
-9.37457e-10
3.84212e-09
-1.05878e-09
3.84452e-09
-1.15033e-09
3.8223e-09
-1.19525e-09
3.77878e-09
-1.18344e-09
3.71744e-09
-1.11124e-09
3.64164e-09
-9.7999e-10
3.55455e-09
-7.94484e-10
3.45906e-09
-5.61385e-10
3.3577e-09
-2.88041e-10
3.2526e-09
1.81788e-11
3.14529e-09
3.4979e-10
3.03647e-09
6.98259e-10
2.92565e-09
1.05243e-09
2.81114e-09
1.39669e-09
2.69064e-09
1.70934e-09
2.56287e-09
1.96149e-09
2.4304e-09
2.11604e-09
2.30258e-09
2.12617e-09
2.19309e-09
1.93629e-09
1.49392e-09
2.06749e-09
1.43843e-09
-3.32379e-10
1.4784e-09
-4.07186e-10
1.54402e-09
-4.41937e-10
1.63009e-09
-4.49293e-10
1.73057e-09
-4.39325e-10
1.84096e-09
-4.19757e-10
1.9585e-09
-3.95495e-10
2.0816e-09
-3.69625e-10
2.20939e-09
-3.44338e-10
2.34142e-09
-3.21417e-10
2.47741e-09
-3.02499e-10
2.61717e-09
-2.89197e-10
2.76057e-09
-2.8311e-10
2.90745e-09
-2.85767e-10
3.05766e-09
-2.9849e-10
3.21105e-09
-3.22215e-10
3.36751e-09
-3.57304e-10
3.52699e-09
-4.03565e-10
3.68946e-09
-4.60749e-10
3.85478e-09
-5.3047e-10
4.0221e-09
-6.20483e-10
4.18857e-09
-7.53815e-10
4.32615e-09
-8.34845e-10
4.42691e-09
-9.09646e-10
4.49291e-09
-1.00345e-09
4.52634e-09
-1.09221e-09
4.52998e-09
-1.15397e-09
4.50717e-09
-1.17244e-09
4.46167e-09
-1.13794e-09
4.39737e-09
-1.04694e-09
4.31813e-09
-9.00757e-10
4.22765e-09
-7.03997e-10
4.12934e-09
-4.63083e-10
4.02642e-09
-1.85112e-10
3.92179e-09
1.22805e-10
3.81807e-09
4.53506e-10
3.7174e-09
7.98932e-10
3.62126e-09
1.14857e-09
3.53054e-09
1.48741e-09
3.44609e-09
1.7938e-09
3.36984e-09
2.03775e-09
3.30569e-09
2.18019e-09
3.25695e-09
2.17492e-09
3.21403e-09
1.97921e-09
1.58219e-09
3.12577e-09
2.19907e-09
-3.44679e-10
2.22007e-09
-4.28187e-10
2.2622e-09
-4.84066e-10
2.32695e-09
-5.14047e-10
2.41134e-09
-5.23713e-10
2.51125e-09
-5.19664e-10
2.62316e-09
-5.07405e-10
2.74453e-09
-4.91001e-10
2.87366e-09
-4.73468e-10
3.00942e-09
-4.57173e-10
3.15105e-09
-4.44128e-10
3.29802e-09
-4.36168e-10
3.44993e-09
-4.35017e-10
3.60643e-09
-4.42267e-10
3.76722e-09
-4.59279e-10
3.93202e-09
-4.87021e-10
4.10063e-09
-5.25907e-10
4.27288e-09
-5.75817e-10
4.44866e-09
-6.36535e-10
4.62772e-09
-7.09524e-10
4.80898e-09
-8.01747e-10
4.98929e-09
-9.34121e-10
5.13836e-09
-9.83915e-10
5.24768e-09
-1.01897e-09
5.31953e-09
-1.0753e-09
5.35638e-09
-1.12907e-09
5.36135e-09
-1.15894e-09
5.33818e-09
-1.14927e-09
5.29108e-09
-1.09084e-09
5.22446e-09
-9.80317e-10
5.14272e-09
-8.19015e-10
5.05012e-09
-6.11397e-10
4.95074e-09
-3.6371e-10
4.84854e-09
-8.2907e-11
4.74737e-09
2.23978e-10
4.65105e-09
5.4982e-10
4.56334e-09
8.86643e-10
4.48779e-09
1.22412e-09
4.42771e-09
1.54749e-09
4.38615e-09
1.83536e-09
4.36566e-09
2.05823e-09
4.36658e-09
2.17928e-09
4.38142e-09
2.16007e-09
4.38518e-09
1.97545e-09
1.6384e-09
4.32896e-09
3.19771e-09
-3.51518e-10
3.20616e-09
-4.36643e-10
3.22864e-09
-5.06544e-10
3.27121e-09
-5.56618e-10
3.33495e-09
-5.87458e-10
3.418e-09
-6.02708e-10
3.51748e-09
-6.06889e-10
3.63066e-09
-6.04178e-10
3.75528e-09
-5.98093e-10
3.88965e-09
-5.91536e-10
4.03248e-09
-5.86959e-10
4.18282e-09
-5.86511e-10
4.33993e-09
-5.92126e-10
4.5032e-09
-6.05533e-10
4.6721e-09
-6.2818e-10
4.84619e-09
-6.61109e-10
5.02509e-09
-7.04809e-10
5.20851e-09
-7.5924e-10
5.39619e-09
-8.24219e-10
5.58771e-09
-9.01035e-10
5.78175e-09
-9.9579e-10
5.97476e-09
-1.12713e-09
6.13441e-09
-1.14357e-09
6.25162e-09
-1.13618e-09
6.32885e-09
-1.15253e-09
6.36885e-09
-1.16907e-09
6.37509e-09
-1.16518e-09
6.35176e-09
-1.12593e-09
6.30354e-09
-1.04262e-09
6.2354e-09
-9.1218e-10
6.15234e-09
-7.35952e-10
6.05926e-09
-5.18317e-10
5.96096e-09
-2.65409e-10
5.8622e-09
1.58561e-11
5.76781e-09
3.1836e-10
5.68285e-09
6.34782e-10
5.61256e-09
9.56936e-10
5.56223e-09
1.27445e-09
5.53678e-09
1.57294e-09
5.53995e-09
1.83219e-09
5.57257e-09
2.02561e-09
5.62935e-09
2.1225e-09
5.69386e-09
2.09556e-09
5.73492e-09
1.93439e-09
1.66102e-09
5.7123e-09
4.49728e-09
-3.54636e-10
4.49776e-09
-4.37122e-10
4.50531e-09
-5.14098e-10
4.52767e-09
-5.78972e-10
4.56913e-09
-6.28914e-10
4.63076e-09
-6.64344e-10
4.71157e-09
-6.87699e-10
4.80963e-09
-7.02232e-10
4.92281e-09
-7.11277e-10
5.04919e-09
-7.17919e-10
5.18714e-09
-7.24911e-10
5.33533e-09
-7.34695e-10
5.49265e-09
-7.49448e-10
5.65819e-09
-7.71074e-10
5.83117e-09
-8.01155e-10
6.0109e-09
-8.4084e-10
6.19681e-09
-8.90721e-10
6.38842e-09
-9.50848e-10
6.58527e-09
-1.02107e-09
6.7867e-09
-1.10247e-09
6.99112e-09
-1.20021e-09
7.19451e-09
-1.33052e-09
7.36285e-09
-1.3119e-09
7.4865e-09
-1.25983e-09
7.56805e-09
-1.23409e-09
7.61053e-09
-1.21154e-09
7.61774e-09
-1.17239e-09
7.59432e-09
-1.10251e-09
7.54549e-09
-9.93796e-10
7.47679e-09
-8.4348e-10
7.39384e-09
-6.53003e-10
7.30223e-09
-4.26702e-10
7.20748e-09
-1.7066e-10
7.11516e-09
1.08176e-10
7.03101e-09
4.02513e-10
6.96106e-09
7.04725e-10
6.91165e-09
1.00635e-09
6.88904e-09
1.29707e-09
6.89859e-09
1.56339e-09
6.94322e-09
1.78756e-09
7.02088e-09
1.94795e-09
7.12129e-09
2.02209e-09
7.22332e-09
1.99353e-09
7.29636e-09
1.86134e-09
1.64736e-09
7.31002e-09
6.17398e-09
-3.55354e-10
6.16977e-09
-4.32908e-10
6.1671e-09
-5.11431e-10
6.17311e-09
-5.84983e-10
6.1936e-09
-6.49402e-10
6.23209e-09
-7.02827e-10
6.28987e-09
-7.45488e-10
6.36669e-09
-7.79046e-10
6.46135e-09
-8.05939e-10
6.57231e-09
-8.28883e-10
6.69798e-09
-8.50581e-10
6.83687e-09
-8.73583e-10
6.98764e-09
-9.0022e-10
7.14912e-09
-9.32552e-10
7.32026e-09
-9.72296e-10
7.50014e-09
-1.02072e-09
7.68795e-09
-1.07853e-09
7.88297e-09
-1.14587e-09
8.0845e-09
-1.2226e-09
8.29161e-09
-1.30957e-09
8.50235e-09
-1.41095e-09
8.71216e-09
-1.54033e-09
8.88591e-09
-1.48565e-09
9.0135e-09
-1.38741e-09
9.09752e-09
-1.31811e-09
9.14119e-09
-1.25521e-09
9.14867e-09
-1.17987e-09
9.12504e-09
-1.07888e-09
9.07604e-09
-9.44799e-10
9.00779e-09
-7.75234e-10
8.92655e-09
-5.71757e-10
8.83854e-09
-3.387e-10
8.75e-09
-8.21124e-11
8.66715e-09
1.9102e-10
8.59641e-09
4.7326e-10
8.54437e-09
7.56758e-10
8.51775e-09
1.03297e-09
8.52278e-09
1.29204e-09
8.5641e-09
1.52207e-09
8.64284e-09
1.70883e-09
8.75414e-09
1.83664e-09
8.88495e-09
1.89128e-09
9.0136e-09
1.86488e-09
9.11367e-09
1.76128e-09
1.59833e-09
9.1627e-09
8.31802e-09
-3.5489e-10
8.31159e-09
-4.26473e-10
8.30291e-09
-5.02755e-10
8.29738e-09
-5.79454e-10
8.30064e-09
-6.5266e-10
8.3174e-09
-7.19591e-10
8.35085e-09
-7.78937e-10
8.40259e-09
-8.30788e-10
8.47296e-09
-8.76309e-10
8.56144e-09
-9.1736e-10
8.66702e-09
-9.56158e-10
8.78847e-09
-9.95034e-10
8.92451e-09
-1.03626e-09
9.07387e-09
-1.08192e-09
9.23536e-09
-1.13379e-09
9.40787e-09
-1.19323e-09
9.59037e-09
-1.26102e-09
9.7819e-09
-1.3374e-09
9.9815e-09
-1.4222e-09
1.01879e-08
-1.51598e-09
1.03988e-08
-1.62181e-09
1.06089e-08
-1.75052e-09
1.07831e-08
-1.65977e-09
1.09107e-08
-1.51502e-09
1.09942e-08
-1.40165e-09
1.1037e-08
-1.29799e-09
1.10435e-08
-1.18634e-09
1.10191e-08
-1.05454e-09
1.09702e-08
-8.95881e-10
1.09034e-08
-7.08394e-10
1.08254e-08
-4.93811e-10
1.07432e-08
-2.56458e-10
1.06634e-08
-2.3198e-12
1.05927e-08
2.61679e-10
1.05379e-08
5.28121e-10
1.05054e-08
7.89222e-10
1.05016e-08
1.03677e-09
1.05317e-08
1.26192e-09
1.05988e-08
1.45499e-09
1.07019e-08
1.60572e-09
1.08344e-08
1.70419e-09
1.09826e-08
1.74301e-09
1.11274e-08
1.72011e-09
1.12476e-08
1.6411e-09
1.51937e-09
1.13265e-08
1.10345e-08
-3.54168e-10
1.10276e-08
-4.19593e-10
1.10163e-08
-4.91464e-10
1.10041e-08
-5.6717e-10
1.09952e-08
-6.43813e-10
1.09944e-08
-7.18776e-10
1.10056e-08
-7.90173e-10
1.10319e-08
-8.57077e-10
1.10751e-08
-9.19523e-10
1.11361e-08
-9.78353e-10
1.1215e-08
-1.03499e-09
1.13112e-08
-1.09122e-09
1.14239e-08
-1.14898e-09
1.15521e-08
-1.21014e-09
1.16947e-08
-1.2764e-09
1.18506e-08
-1.34909e-09
1.20185e-08
-1.42899e-09
1.21975e-08
-1.51635e-09
1.23862e-08
-1.61093e-09
1.25831e-08
-1.71288e-09
1.27854e-08
-1.82413e-09
1.29874e-08
-1.95253e-09
1.31547e-08
-1.82704e-09
1.32767e-08
-1.63701e-09
1.33554e-08
-1.48039e-09
1.33942e-08
-1.33676e-09
1.33977e-08
-1.18979e-09
1.33716e-08
-1.02848e-09
1.33226e-08
-8.46934e-10
1.32579e-08
-6.43663e-10
1.31846e-08
-4.20545e-10
1.311e-08
-1.8185e-10
1.30411e-08
6.6611e-11
1.29846e-08
3.18172e-10
1.2947e-08
5.65732e-10
1.29342e-08
8.01991e-10
1.29514e-08
1.01959e-09
1.30021e-08
1.21119e-09
1.30875e-08
1.36965e-09
1.32048e-08
1.48842e-09
1.33466e-08
1.56237e-09
1.35007e-08
1.58894e-09
1.36513e-08
1.56947e-09
1.37826e-08
1.50978e-09
1.4196e-09
1.38824e-08
1.44439e-08
-3.53555e-10
1.44376e-08
-4.13213e-10
1.44259e-08
-4.79815e-10
1.44108e-08
-5.52016e-10
1.4395e-08
-6.28036e-10
1.43822e-08
-7.05963e-10
1.43761e-08
-7.84089e-10
1.43802e-08
-8.61183e-10
1.43973e-08
-9.36645e-10
1.44295e-08
-1.01053e-09
1.4478e-08
-1.08347e-09
1.45433e-08
-1.15656e-09
1.46255e-08
-1.23116e-09
1.47241e-08
-1.30877e-09
1.48385e-08
-1.39076e-09
1.49677e-08
-1.47827e-09
1.51106e-08
-1.57196e-09
1.52662e-08
-1.67195e-09
1.54331e-08
-1.77782e-09
1.56094e-08
-1.88921e-09
1.57921e-08
-2.00676e-09
1.59747e-08
-2.13517e-09
1.61256e-08
-1.97796e-09
1.62345e-08
-1.74584e-09
1.63026e-08
-1.5485e-09
1.6333e-08
-1.36722e-09
1.63305e-08
-1.18727e-09
1.6301e-08
-9.98961e-10
1.62514e-08
-7.97312e-10
1.6189e-08
-5.81279e-10
1.61213e-08
-3.52853e-10
1.60556e-08
-1.16141e-10
1.59988e-08
1.23402e-10
1.59573e-08
3.59637e-10
1.59369e-08
5.86148e-10
1.59423e-08
7.96563e-10
1.59771e-08
9.84818e-10
1.60429e-08
1.1454e-09
1.61389e-08
1.27363e-09
1.62613e-08
1.36606e-09
1.64027e-08
1.42091e-09
1.65531e-08
1.43862e-09
1.67004e-08
1.42215e-09
1.68333e-08
1.37688e-09
1.30987e-09
1.6943e-08
1.8681e-08
-3.52753e-10
1.86752e-08
-4.07365e-10
1.86641e-08
-4.68747e-10
1.86485e-08
-5.36366e-10
1.86298e-08
-6.09325e-10
1.86103e-08
-6.86489e-10
1.85929e-08
-7.66678e-10
1.85806e-08
-8.48866e-10
1.85763e-08
-9.32338e-10
1.85825e-08
-1.01679e-09
1.86014e-08
-1.10235e-09
1.86344e-08
-1.18952e-09
1.86823e-08
-1.27911e-09
1.87456e-08
-1.3721e-09
1.88243e-08
-1.46944e-09
1.89179e-08
-1.57189e-09
1.90258e-08
-1.67986e-09
1.91471e-08
-1.79317e-09
1.92803e-08
-1.91107e-09
1.94236e-08
-2.03254e-09
1.95737e-08
-2.15678e-09
1.97237e-08
-2.28522e-09
1.98468e-08
-2.101e-09
1.99332e-08
-1.83226e-09
1.99834e-08
-1.59876e-09
2.00001e-08
-1.38391e-09
1.99878e-08
-1.17492e-09
1.99524e-08
-9.63548e-10
1.99008e-08
-7.45719e-10
1.98403e-08
-5.20831e-10
1.97784e-08
-2.90887e-10
1.97219e-08
-5.96797e-11
1.96774e-08
1.67925e-10
1.96504e-08
3.86603e-10
1.96456e-08
5.90966e-10
1.96663e-08
7.75917e-10
1.97141e-08
9.36952e-10
1.97891e-08
1.07042e-09
1.9889e-08
1.17376e-09
2.00092e-08
1.24579e-09
2.01433e-08
1.28681e-09
2.02832e-08
1.29879e-09
2.04201e-08
1.28518e-09
2.05463e-08
1.25065e-09
1.20043e-09
2.06558e-08
2.38904e-08
-3.51023e-10
2.38845e-08
-4.01409e-10
2.38738e-08
-4.58105e-10
2.38585e-08
-5.21039e-10
2.38391e-08
-5.89894e-10
2.38167e-08
-6.64152e-10
2.37932e-08
-7.43174e-10
2.37707e-08
-8.26328e-10
2.37515e-08
-9.131e-10
2.37379e-08
-1.00319e-09
2.3732e-08
-1.09653e-09
2.37359e-08
-1.19335e-09
2.37508e-08
-1.29406e-09
2.37779e-08
-1.39919e-09
2.38178e-08
-1.5093e-09
2.38706e-08
-1.62475e-09
2.39363e-08
-1.74554e-09
2.40143e-08
-1.87112e-09
2.41034e-08
-2.00025e-09
2.4202e-08
-2.1311e-09
2.43065e-08
-2.26132e-09
2.44102e-08
-2.38892e-09
2.44931e-08
-2.18389e-09
2.45471e-08
-1.8862e-09
2.45715e-08
-1.62316e-09
2.45683e-08
-1.38076e-09
2.45417e-08
-1.14836e-09
2.44975e-08
-9.1925e-10
2.4442e-08
-6.90292e-10
2.43824e-08
-4.61232e-10
2.43255e-08
-2.33952e-10
2.42776e-08
-1.17473e-11
2.42442e-08
2.01331e-10
2.42297e-08
4.01014e-10
2.42375e-08
5.83173e-10
2.42693e-08
7.44156e-10
2.43252e-08
8.81041e-10
2.44038e-08
9.91839e-10
2.45019e-08
1.07564e-09
2.4615e-08
1.1327e-09
2.47373e-08
1.16446e-09
2.48627e-08
1.1734e-09
2.4985e-08
1.16288e-09
2.50989e-08
1.13674e-09
1.09895e-09
2.52004e-08
3.02179e-08
-3.47717e-10
3.02111e-08
-3.94632e-10
3.02003e-08
-4.47317e-10
3.01852e-08
-5.05943e-10
3.01658e-08
-5.70535e-10
3.01427e-08
-6.4098e-10
3.01165e-08
-7.17056e-10
3.00887e-08
-7.98497e-10
3.00607e-08
-8.85068e-10
3.00341e-08
-9.76623e-10
3.00107e-08
-1.07315e-09
2.99922e-08
-1.17477e-09
2.99798e-08
-1.28174e-09
2.9975e-08
-1.39435e-09
2.99785e-08
-1.51284e-09
2.9991e-08
-1.63726e-09
3.00127e-08
-1.76724e-09
3.00435e-08
-1.90183e-09
3.00825e-08
-2.03925e-09
3.01281e-08
-2.17676e-09
3.01772e-08
-2.31042e-09
3.02232e-08
-2.43491e-09
3.02552e-08
-2.21593e-09
3.02677e-08
-1.89861e-09
3.02589e-08
-1.61441e-09
3.02303e-08
-1.35213e-09
3.01854e-08
-1.10345e-09
3.01293e-08
-8.63185e-10
3.00681e-08
-6.29047e-10
3.00079e-08
-4.01016e-10
2.99546e-08
-1.807e-10
2.99136e-08