/*--------------------------------*- C++ -*----------------------------------*\
| =========                 |                                                 |
| \\      /  F ield         | OpenFOAM: The Open Source CFD Toolbox           |
|  \\    /   O peration     | Version:  2312                                  |
|   \\  /    A nd           | Website:  www.openfoam.com                      |
|    \\/     M anipulation  |                                                 |
\*---------------------------------------------------------------------------*/
FoamFile
{
    version     2.0;
    format      ascii;
    arch        "LSB;label=32;scalar=64";
    class       volVectorField;
    location    "200";
    object      U;
}
// * * * * * * * * * * * * * * * * * * * * * * * * * * * * * * * * * * * * * //

dimensions      [0 1 -1 0 0 0 0];

internalField   nonuniform List<vector> 
4800
(
(0.000132594 3.35384e-08 -8.13122e-27)
(0.000131286 4.54811e-08 -5.81567e-26)
(0.000130814 5.45348e-08 7.43044e-26)
(0.000130903 5.91373e-08 3.50287e-26)
(0.000131417 5.94017e-08 5.25866e-25)
(0.000132268 5.4492e-08 -1.25696e-24)
(0.000133415 4.31855e-08 1.1842e-24)
(0.000134854 2.31112e-08 -1.72921e-24)
(0.000136629 -1.14611e-08 5.48777e-25)
(0.000138888 -7.7466e-08 1.8886e-24)
(0.000142049 -2.35456e-07 -5.77245e-25)
(0.000147185 -7.0466e-07 -4.60135e-26)
(0.000157018 -2.09565e-06 -6.93572e-25)
(0.000181537 -8.90368e-06 3.21009e-25)
(0.000223075 -4.69776e-05 -2.51833e-25)
(0.000411211 3.31974e-07 -3.34515e-26)
(0.000406994 1.77215e-07 4.16432e-26)
(0.000405351 5.16557e-08 -3.9419e-25)
(0.000405419 -7.2492e-08 2.91208e-25)
(0.00040677 -2.071e-07 9.62636e-25)
(0.00040913 -3.6464e-07 -1.53954e-24)
(0.000412373 -5.63223e-07 -4.50731e-25)
(0.000416489 -8.3367e-07 -1.15679e-25)
(0.00042162 -1.24466e-06 3.58285e-24)
(0.000428188 -1.97647e-06 -2.61244e-24)
(0.000437207 -3.5325e-06 2.78361e-25)
(0.000450776 -7.30295e-06 4.16924e-25)
(0.000472813 -1.66685e-05 -6.05538e-25)
(0.000510878 -3.94521e-05 -2.03435e-25)
(0.000557044 -9.35205e-05 7.58935e-25)
(0.000720824 1.09348e-06 -2.6971e-26)
(0.00071321 5.85485e-07 2.74205e-26)
(0.00071007 1.75712e-07 2.89479e-25)
(0.000709886 -2.20379e-07 -6.92104e-25)
(0.000711895 -6.43059e-07 6.82846e-25)
(0.000715616 -1.13109e-06 6.54099e-25)
(0.000720823 -1.74058e-06 -1.67521e-24)
(0.000727485 -2.56623e-06 -1.0422e-24)
(0.000735811 -3.80742e-06 2.43818e-24)
(0.000746394 -5.93148e-06 9.12613e-25)
(0.000760451 -1.00375e-05 -3.07589e-24)
(0.000779959 -1.85318e-05 -4.71402e-25)
(0.000807203 -3.58842e-05 1.21258e-24)
(0.000843264 -6.87456e-05 1.91345e-24)
(0.000876514 -0.000123151 -9.62263e-25)
(0.00106406 2.50865e-06 1.13442e-26)
(0.0010525 1.38269e-06 -7.94184e-26)
(0.00104746 4.77443e-07 3.5747e-25)
(0.00104672 -3.86045e-07 3.91458e-25)
(0.00104911 -1.29906e-06 -3.74073e-25)
(0.00105394 -2.34457e-06 -2.21833e-24)
(0.00106084 -3.63964e-06 -1.52909e-24)
(0.00106972 -5.37636e-06 5.54982e-24)
(0.00108078 -7.93253e-06 2.28568e-24)
(0.00109456 -1.2103e-05 -3.1424e-24)
(0.00111199 -1.94899e-05 -1.22862e-24)
(0.00113404 -3.29241e-05 -9.12375e-25)
(0.00116061 -5.62788e-05 1.46323e-26)
(0.0011888 -9.26278e-05 6.1543e-25)
(0.00120937 -0.000140076 2.94324e-27)
(0.0014434 4.80569e-06 -2.39102e-26)
(0.00142729 2.72238e-06 -1.47515e-25)
(0.0014199 1.05256e-06 -9.73451e-26)
(0.0014182 -5.18936e-07 2.49165e-25)
(0.0014206 -2.16166e-06 -7.23577e-25)
(0.00142615 -4.02175e-06 1.77768e-24)
(0.00143431 -6.29565e-06 -3.00624e-25)
(0.00144487 -9.28976e-06 1.07946e-24)
(0.0014579 -1.35569e-05 -5.78339e-24)
(0.00147366 -2.01291e-05 1.06093e-23)
(0.00149245 -3.07804e-05 -9.82469e-24)
(0.00151402 -4.80185e-05 4.95605e-24)
(0.00153662 -7.41919e-05 -4.39092e-24)
(0.00155641 -0.000109362 3.93012e-24)
(0.00156793 -0.00014899 -1.50339e-24)
(0.00186097 8.28233e-06 3.65426e-26)
(0.00183974 4.82231e-06 1.32037e-25)
(0.00182949 2.05697e-06 -6.92644e-25)
(0.00182635 -5.08937e-07 -4.48631e-25)
(0.0018283 -3.15379e-06 1.1553e-24)
(0.00183405 -6.10468e-06 4.14325e-25)
(0.00184288 -9.64606e-06 -3.16993e-24)
(0.00185439 -1.41901e-05 7.33479e-24)
(0.00186837 -2.04055e-05 -9.1916e-24)
(0.0018847 -2.93824e-05 2.06589e-24)
(0.00190297 -4.26951e-05 6.10282e-24)
(0.00192205 -6.2064e-05 -8.02089e-24)
(0.00193961 -8.83229e-05 3.72813e-24)
(0.00195253 -0.000119987 3.66711e-24)
(0.00195831 -0.000152676 -2.64003e-24)
(0.00231822 1.33025e-05 3.51128e-26)
(0.00229142 7.96623e-06 -2.07272e-25)
(0.00227782 3.71153e-06 7.40749e-25)
(0.00227274 -1.78935e-07 -1.01458e-24)
(0.00227367 -4.12327e-06 -3.43213e-24)
(0.00227902 -8.44361e-06 5.65193e-24)
(0.00228779 -1.35074e-05 -3.34272e-24)
(0.00229933 -1.97975e-05 1.09755e-23)
(0.00231315 -2.80024e-05 -7.02166e-24)
(0.00232868 -3.90807e-05 -3.12325e-24)
(0.00234501 -5.416e-05 -5.84955e-24)
(0.00236061 -7.40958e-05 4.93288e-24)
(0.00237339 -9.86979e-05 1.29675e-24)
(0.00238135 -0.000126091 1.05252e-24)
(0.00238371 -0.000152971 -8.70272e-25)
(0.00281546 2.02711e-05 -5.89142e-26)
(0.00278294 1.24943e-05 7.95734e-25)
(0.00276561 6.30251e-06 -1.82622e-24)
(0.00275812 7.22887e-07 -1.5013e-24)
(0.00275745 -4.82864e-06 5.00386e-25)
(0.00276171 -1.07772e-05 9.95014e-25)
(0.00276962 -1.75547e-05 3.52197e-24)
(0.00278026 -2.56621e-05 -9.15635e-24)
(0.00279282 -3.57091e-05 -4.71538e-24)
(0.00280642 -4.83929e-05 1.17184e-23)
(0.00281991 -6.43291e-05 -3.44988e-24)
(0.00283181 -8.36938e-05 1.08037e-23)
(0.00284059 -0.000105811 -5.20957e-24)
(0.00284517 -0.000129025 -1.55436e-24)
(0.00284557 -0.000151137 8.66062e-25)
(0.00335113 2.95722e-05 -9.0672e-27)
(0.0033133 1.87698e-05 5.07553e-25)
(0.00329219 1.01671e-05 -7.01175e-25)
(0.00328195 2.52044e-06 1.65806e-24)
(0.0032792 -4.93445e-06 -9.52712e-24)
(0.00328172 -1.27254e-05 9.51739e-24)
(0.003288 -2.13221e-05 -1.43576e-23)
(0.00329685 -3.11906e-05 8.11214e-24)
(0.00330725 -4.27939e-05 5.66441e-24)
(0.00331814 -5.65305e-05 1.154e-23)
(0.00332838 -7.25868e-05 -1.37499e-23)
(0.00333678 -9.07344e-05 -2.40267e-24)
(0.00334235 -0.000110197 9.32924e-25)
(0.00334461 -0.000129738 6.54755e-24)
(0.00334389 -0.000148007 -2.50756e-24)
(0.00392093 4.14407e-05 5.77398e-26)
(0.00387913 2.70956e-05 -2.42867e-25)
(0.00385472 1.56397e-05 1.05475e-24)
(0.00384177 5.57502e-06 -3.55906e-24)
(0.00383665 -4.03649e-06 5.12175e-24)
(0.00383697 -1.3815e-05 -6.25088e-24)
(0.00384101 -2.42409e-05 9.78002e-24)
(0.00384742 -3.5709e-05 1.67666e-24)
(0.00385505 -4.85166e-05 -1.14796e-23)
(0.00386284 -6.2809e-05 1.50789e-23)
(0.00386979 -7.84972e-05 -1.5104e-23)
(0.00387505 -9.51924e-05 -4.15084e-24)
(0.00387805 -0.000112221 6.52766e-24)
(0.00387863 -0.000128755 1.79151e-24)
(0.00387718 -0.00014401 -7.36272e-25)
(0.00451691 5.57411e-05 2.67724e-25)
(0.00447372 3.75515e-05 -2.13504e-24)
(0.00444735 2.2932e-05 -3.31664e-24)
(0.00443228 1.01925e-05 7.32389e-24)
(0.00442497 -1.7407e-06 3.13921e-24)
(0.00442297 -1.35573e-05 -1.81479e-23)
(0.0044245 -2.5727e-05 5.00411e-24)
(0.00442815 -3.85634e-05 3.30919e-24)
(0.0044328 -5.22247e-05 -1.35862e-23)
(0.00443746 -6.66933e-05 1.25687e-23)
(0.00444134 -8.176e-05 -9.405e-24)
(0.00444389 -9.70393e-05 2.16074e-23)
(0.00444481 -0.000112034 -9.50228e-24)
(0.00444406 -0.000126233 5.12469e-24)
(0.004442 -0.000139207 -1.319e-24)
(0.00512695 7.16673e-05 -1.18347e-25)
(0.00508631 4.97437e-05 1.59882e-24)
(0.00506034 3.19248e-05 -2.92929e-24)
(0.00504454 1.64483e-05 -1.42574e-24)
(0.00503581 2.18127e-06 1.45658e-23)
(0.0050319 -1.15966e-05 -1.79449e-24)
(0.00503114 -2.53302e-05 -2.16916e-23)
(0.00503221 -3.9264e-05 2.30051e-23)
(0.00503407 -5.34698e-05 -4.57237e-24)
(0.00503594 -6.78628e-05 -1.46886e-23)
(0.00503721 -8.2228e-05 1.41955e-23)
(0.00503755 -9.62667e-05 7.06722e-24)
(0.00503679 -0.000109659 -5.23668e-24)
(0.00503495 -0.00012212 -8.46821e-24)
(0.00503233 -0.000133431 6.7265e-25)
(0.00573564 8.74938e-05 2.41846e-27)
(0.00570226 6.25335e-05 -1.91665e-24)
(0.00567987 4.19049e-05 8.49143e-24)
(0.0056655 2.3942e-05 5.91741e-25)
(0.00565681 7.56111e-06 4.24265e-24)
(0.00565203 -7.9319e-06 -1.33522e-23)
(0.00564976 -2.2944e-05 1.04417e-23)
(0.00564891 -3.76732e-05 2.26246e-24)
(0.00564865 -5.21587e-05 1.76598e-23)
(0.00564839 -6.63202e-05 -2.41416e-23)
(0.00564773 -8.00011e-05 -9.97472e-24)
(0.00564644 -9.30148e-05 -6.07396e-24)
(0.00564447 -0.000105188 1.02746e-23)
(0.00564182 -0.000116389 -2.79918e-25)
(0.00563876 -0.000126524 8.71655e-25)
(0.0063273 0.000100714 -2.98198e-26)
(0.00630509 7.39798e-05 2.03911e-24)
(0.00628942 5.14096e-05 -2.71789e-24)
(0.00627888 3.15956e-05 -9.00971e-27)
(0.0062721 1.36126e-05 3.04386e-24)
(0.00626792 -3.14329e-06 7.07403e-24)
(0.00626537 -1.90249e-05 -2.44902e-23)
(0.0062637 -3.42018e-05 1.69977e-24)
(0.00626233 -4.87169e-05 1.00043e-23)
(0.00626089 -6.25324e-05 -4.24875e-24)
(0.00625914 -7.55699e-05 1.03786e-23)
(0.00625695 -8.77456e-05 6.69523e-24)
(0.00625432 -9.89954e-05 -1.10243e-23)
(0.00625125 -0.000109285 7.00999e-24)
(0.00624798 -0.000118593 -5.518e-24)
(0.0068905 0.000108963 -1.00042e-24)
(0.00688049 8.18883e-05 4.82432e-25)
(0.00687306 5.85216e-05 3.27834e-24)
(0.00686793 3.77823e-05 -1.55561e-23)
(0.00686455 1.89583e-05 1.22705e-23)
(0.00686233 1.57608e-06 -8.23175e-24)
(0.00686077 -1.46507e-05 5.19249e-24)
(0.00685945 -2.98716e-05 -3.38825e-23)
(0.00685808 -4.41479e-05 4.36655e-23)
(0.00685647 -5.74914e-05 -2.3432e-23)
(0.00685451 -6.9894e-05 1.8953e-23)
(0.00685218 -8.13489e-05 1.46491e-23)
(0.0068495 -9.18642e-05 -2.34517e-23)
(0.0068465 -0.000101464 7.08088e-24)
(0.00684337 -0.000110168 -2.84434e-25)
(0.00741968 0.000111472 -3.77918e-26)
(0.0074192 8.50581e-05 -1.4153e-25)
(0.00741885 6.18684e-05 5.2671e-26)
(0.00741883 4.11002e-05 -4.28752e-25)
(0.00741902 2.22259e-05 4.99688e-24)
(0.00741923 4.88964e-06 -7.70357e-24)
(0.00741927 -1.11367e-05 6.46598e-24)
(0.00741902 -2.59908e-05 -1.85388e-23)
(0.00741838 -3.97544e-05 3.8104e-23)
(0.0074173 -5.248e-05 -4.4346e-23)
(0.0074158 -6.42094e-05 3.32312e-23)
(0.0074139 -7.49856e-05 -1.03081e-23)
(0.00741166 -8.48581e-05 5.11941e-25)
(0.0074091 -9.38826e-05 2.08458e-24)
(0.00740642 -0.000102099 -3.7916e-24)
(0.00790877 0.000109589 -3.23419e-24)
(0.00791333 8.42127e-05 5.42816e-24)
(0.00791701 6.17052e-05 -1.8759e-24)
(0.00792008 4.14654e-05 -1.99827e-24)
(0.00792256 2.30856e-05 7.59848e-24)
(0.00792445 6.28081e-06 -6.96575e-24)
(0.00792573 -9.14685e-06 -5.80297e-24)
(0.00792641 -2.33359e-05 -1.27622e-23)
(0.00792652 -3.63886e-05 5.68046e-24)
(0.00792608 -4.83876e-05 2.5605e-23)
(0.00792516 -5.94067e-05 -1.24243e-23)
(0.00792382 -6.95168e-05 6.94007e-24)
(0.00792213 -7.8788e-05 -2.6223e-24)
(0.00792012 -8.72898e-05 -7.44035e-24)
(0.00791795 -9.50696e-05 3.66396e-24)
(0.00833866 0.000105316 1.07491e-24)
(0.00834501 8.11713e-05 -1.68205e-24)
(0.00835004 5.96029e-05 -8.06785e-25)
(0.00835408 4.01787e-05 -1.52744e-25)
(0.00835724 2.25744e-05 -2.42696e-24)
(0.0083596 6.5449e-06 1.01894e-23)
(0.00836121 -8.09632e-06 -7.51203e-24)
(0.00836215 -2.1495e-05 -4.54637e-24)
(0.00836248 -3.37707e-05 3.73702e-24)
(0.00836227 -4.50262e-05 -4.1793e-24)
(0.0083616 -5.53537e-05 8.95338e-24)
(0.00836053 -6.48378e-05 4.31417e-24)
(0.00835911 -7.35572e-05 -1.50396e-23)
(0.0083574 -8.15848e-05 9.84793e-24)
(0.00835552 -8.89688e-05 -1.94674e-24)
(0.008669 9.95031e-05 3.17197e-24)
(0.00867609 7.70109e-05 4.97074e-24)
(0.00868148 5.67625e-05 -9.70969e-24)
(0.00868559 3.84787e-05 -8.59472e-25)
(0.00868866 2.19089e-05 2.32314e-24)
(0.00869081 6.84353e-06 -2.91964e-24)
(0.00869219 -6.89054e-06 -4.69681e-24)
(0.00869289 -1.94384e-05 8.82118e-24)
(0.00869302 -3.0925e-05 9.51348e-24)
(0.00869264 -4.146e-05 -2.1422e-23)
(0.00869184 -5.11408e-05 1.15888e-23)
(0.00869067 -6.00548e-05 -7.66194e-25)
(0.00868919 -6.82797e-05 -6.15912e-25)
(0.00868743 -7.5886e-05 7.94551e-25)
(0.0086855 -8.29167e-05 -3.56556e-25)
(0.00883871 9.17095e-05 -8.23899e-24)
(0.00884658 7.14823e-05 -1.60555e-23)
(0.0088524 5.31121e-05 7.33643e-24)
(0.00885667 3.64408e-05 2.37583e-23)
(0.00885969 2.12829e-05 -6.03037e-24)
(0.00886169 7.46871e-06 -1.74028e-24)
(0.00886284 -5.15032e-06 7.97148e-25)
(0.00886328 -1.67054e-05 -3.88646e-24)
(0.00886313 -2.7313e-05 1.02081e-23)
(0.00886248 -3.70761e-05 -4.25635e-24)
(0.00886142 -4.60857e-05 2.62303e-24)
(0.00885999 -5.44214e-05 -3.83856e-24)
(0.00885827 -6.21528e-05 -4.31897e-24)
(0.00885628 -6.93415e-05 6.23672e-24)
(0.00885407 -7.60215e-05 -2.66785e-24)
(0.00877246 8.17651e-05 1.27216e-23)
(0.00878102 6.42708e-05 -2.61119e-23)
(0.00878732 4.82423e-05 3.81461e-24)
(0.00879188 3.35957e-05 3.09206e-23)
(0.00879503 2.01969e-05 -2.73115e-23)
(0.00879706 7.91691e-06 8.71948e-24)
(0.00879816 -3.36146e-06 5.20205e-24)
(0.0087985 -1.37468e-05 -1.08505e-23)
(0.00879822 -2.33382e-05 2.42106e-24)
(0.00879741 -3.22234e-05 1.03982e-24)
(0.00879615 -4.04788e-05 -9.52411e-25)
(0.00879452 -4.81705e-05 1.91455e-24)
(0.00879257 -5.53553e-05 -2.26068e-24)
(0.00879034 -6.20827e-05 1.48915e-24)
(0.00878784 -6.83789e-05 -6.76753e-25)
(0.00847523 7.10428e-05 7.60639e-24)
(0.00848428 5.62889e-05 -1.44474e-23)
(0.00849105 4.26531e-05 -9.00007e-24)
(0.008496 3.00883e-05 3.86409e-23)
(0.00849946 1.85005e-05 -3.24991e-23)
(0.00850173 7.79701e-06 3.26565e-24)
(0.00850302 -2.10963e-06 4.64309e-24)
(0.0085035 -1.1303e-05 2.27185e-24)
(0.00850331 -1.98604e-05 1.52946e-24)
(0.00850255 -2.78499e-05 -6.22657e-24)
(0.0085013 -3.53305e-05 3.86705e-24)
(0.00849963 -4.23525e-05 7.53101e-25)
(0.0084976 -4.89591e-05 -2.45006e-24)
(0.00849524 -5.51873e-05 1.24424e-24)
(0.00849255 -6.10577e-05 6.49835e-25)
(0.00802598 6.06367e-05 1.83303e-23)
(0.00803541 4.83008e-05 -2.96109e-23)
(0.00804263 3.68034e-05 5.58039e-24)
(0.00804801 2.61161e-05 -1.19608e-23)
(0.00805189 1.61757e-05 -1.41114e-23)
(0.00805452 6.91847e-06 4.51833e-23)
(0.00805614 -1.7186e-06 -1.62393e-23)
(0.00805691 -9.79702e-06 4.18387e-24)
(0.00805694 -1.73734e-05 -2.13421e-24)
(0.00805635 -2.44974e-05 -4.31809e-24)
(0.00805521 -3.12119e-05 7.29223e-24)
(0.0080536 -3.75533e-05 -3.0444e-24)
(0.00805154 -4.35526e-05 5.48268e-25)
(0.00804911 -4.92358e-05 -1.39417e-25)
(0.00804628 -5.46176e-05 7.3239e-26)
(0.00748203 5.06653e-05 6.86779e-24)
(0.0074917 4.04173e-05 -3.25491e-23)
(0.00749926 3.07926e-05 5.21736e-23)
(0.00750502 2.17714e-05 -3.69413e-23)
(0.00750926 1.33131e-05 3.41154e-23)
(0.00751224 5.37652e-06 -1.08601e-23)
(0.00751417 -2.08231e-06 -6.99799e-24)
(0.00751519 -9.1073e-06 -6.97472e-24)
(0.00751544 -1.57386e-05 1.10528e-23)
(0.00751499 -2.20109e-05 -1.0069e-24)
(0.00751394 -2.7954e-05 -9.09566e-24)
(0.00751233 -3.3593e-05 -7.11174e-25)
(0.00751022 -3.89488e-05 1.30159e-24)
(0.00750767 -4.40388e-05 -1.27122e-25)
(0.00750464 -4.88722e-05 -8.08968e-27)
(0.00688537 4.13059e-05 8.89045e-25)
(0.0068951 3.28605e-05 -1.20251e-23)
(0.0069028 2.48738e-05 -6.14155e-24)
(0.00690875 1.7329e-05 4.78388e-23)
(0.00691319 1.02032e-05 -4.42577e-23)
(0.00691637 3.47216e-06 1.22468e-23)
(0.00691846 -2.8933e-06 1.93385e-24)
(0.0069196 -8.92348e-06 -9.47768e-25)
(0.00691992 -1.46455e-05 -4.07291e-24)
(0.00691948 -2.00823e-05 1.65538e-23)
(0.00691837 -2.52533e-05 -1.26122e-23)
(0.00691664 -3.01748e-05 -3.56879e-25)
(0.00691435 -3.48601e-05 8.62072e-25)
(0.00691153 -3.932e-05 2.91872e-25)
(0.00690818 -4.35592e-05 -1.73938e-25)
(0.00626596 3.27539e-05 1.28163e-24)
(0.00627545 2.58714e-05 1.09174e-23)
(0.00628302 1.93205e-05 -1.18973e-23)
(0.00628889 1.3087e-05 -7.67691e-24)
(0.00629328 7.16175e-06 4.62072e-23)
(0.0062964 1.53343e-06 -3.39848e-23)
(0.00629843 -3.81632e-06 -8.15573e-25)
(0.00629948 -8.90747e-06 -6.26289e-24)
(0.00629965 -1.37572e-05 -3.84739e-25)
(0.00629902 -1.83796e-05 8.97737e-25)
(0.00629766 -2.27866e-05 -2.51086e-24)
(0.00629563 -2.6988e-05 2.33548e-24)
(0.00629297 -3.09916e-05 8.66547e-25)
(0.00628972 -3.48034e-05 6.50871e-25)
(0.00628588 -3.8425e-05 3.18689e-25)
(0.00564452 2.52171e-05 8.77936e-24)
(0.00565343 1.96912e-05 -1.27858e-23)
(0.00566054 1.43984e-05 -9.62086e-24)
(0.00566603 9.32754e-06 2.81492e-23)
(0.00567009 4.48046e-06 -9.73702e-24)
(0.0056729 -1.44773e-07 -1.2874e-23)
(0.00567462 -4.55881e-06 4.41781e-24)
(0.00567534 -8.77391e-06 9.15725e-24)
(0.00567516 -1.27999e-05 -1.38494e-23)
(0.00567415 -1.66446e-05 1.30749e-23)
(0.00567237 -2.03146e-05 -6.55684e-24)
(0.00566986 -2.38151e-05 2.55853e-24)
(0.00566668 -2.71504e-05 -2.71685e-24)
(0.00566287 -3.0323e-05 2.36041e-24)
(0.00565843 -3.3333e-05 -4.23613e-25)
(0.00503504 1.88447e-05 -1.6203e-24)
(0.00504308 1.4488e-05 -5.34243e-24)
(0.00504946 1.02875e-05 -1.62389e-23)
(0.00505431 6.23623e-06 4.38779e-23)
(0.0050578 2.3453e-06 -7.76731e-24)
(0.0050601 -1.3812e-06 -1.15105e-23)
(0.00506131 -4.94867e-06 3.73263e-24)
(0.00506154 -8.36363e-06 -5.33656e-24)
(0.00506086 -1.16308e-05 -1.07448e-23)
(0.00505934 -1.47538e-05 1.02382e-23)
(0.00505703 -1.77357e-05 4.81171e-25)
(0.00505397 -2.05789e-05 -2.61837e-24)
(0.00505022 -2.3285e-05 2.98321e-24)
(0.0050458 -2.58552e-05 1.04928e-25)
(0.00504074 -2.8288e-05 -1.44856e-25)
(0.00444691 1.36789e-05 5.85294e-24)
(0.00445388 1.03139e-05 8.2187e-24)
(0.00445935 7.04575e-06 -7.57699e-24)
(0.00446341 3.8731e-06 -1.57244e-23)
(0.0044662 8.13855e-07 2.04496e-23)
(0.00446786 -2.12446e-06 -2.16635e-23)
(0.00446848 -4.94391e-06 -6.22208e-25)
(0.00446814 -7.64712e-06 7.98163e-24)
(0.00446691 -1.02355e-05 2.66713e-24)
(0.00446485 -1.27102e-05 -5.08502e-24)
(0.004462 -1.50722e-05 2.76947e-25)
(0.00445842 -1.73219e-05 9.34748e-24)
(0.00445413 -1.946e-05 -3.51264e-24)
(0.00444918 -2.14863e-05 -7.58917e-25)
(0.00444359 -2.33992e-05 -3.55307e-26)
(0.00388639 9.65355e-06 -5.62674e-24)
(0.00389222 7.11185e-06 7.06628e-24)
(0.00389671 4.62279e-06 7.51195e-25)
(0.00389993 2.19128e-06 1.33342e-23)
(0.00390198 -1.60533e-07 -1.0774e-23)
(0.00390299 -2.42409e-06 7.47473e-25)
(0.00390301 -4.59956e-06 -1.16686e-24)
(0.00390213 -6.68724e-06 -3.12685e-24)
(0.0039004 -8.68677e-06 2.51508e-24)
(0.00389786 -1.05979e-05 -8.02654e-24)
(0.00389457 -1.24203e-05 7.21715e-25)
(0.00389056 -1.41538e-05 1.88395e-24)
(0.00388588 -1.57981e-05 1.07686e-24)
(0.00388055 -1.73529e-05 3.75493e-25)
(0.00387461 -1.88166e-05 9.78262e-26)
(0.00335754 6.62625e-06 3.80278e-24)
(0.00336226 4.75191e-06 -2.96699e-24)
(0.00336581 2.89943e-06 -1.25799e-23)
(0.00336822 1.07954e-06 1.16473e-23)
(0.0033696 -6.8426e-07 1.57016e-23)
(0.00337001 -2.38426e-06 -4.10821e-24)
(0.00336952 -4.01978e-06 -7.90816e-24)
(0.00336819 -5.58993e-06 -1.05867e-23)
(0.00336606 -7.0936e-06 7.84781e-24)
(0.00336318 -8.5299e-06 3.96932e-25)
(0.0033596 -9.89805e-06 -1.63406e-24)
(0.00335534 -1.11974e-05 -3.75903e-25)
(0.00335044 -1.24273e-05 7.85611e-25)
(0.00334495 -1.35875e-05 -5.34395e-26)
(0.00333887 -1.46768e-05 -1.08614e-25)
(0.0028628 4.42007e-06 -2.15552e-24)
(0.00286652 3.07366e-06 -1.48499e-24)
(0.00286922 1.73002e-06 1.83175e-24)
(0.00287094 4.04001e-07 -5.56111e-24)
(0.00287173 -8.8229e-07 1.80366e-23)
(0.00287166 -2.12314e-06 -2.34394e-23)
(0.00287078 -3.31765e-06 2.25471e-23)
(0.00286913 -4.46452e-06 -9.41545e-24)
(0.00286676 -5.56248e-06 2.02832e-24)
(0.00286371 -6.61044e-06 -4.9014e-26)
(0.00286001 -7.60747e-06 -1.5574e-24)
(0.0028557 -8.55281e-06 4.08533e-25)
(0.0028508 -9.44586e-06 -1.03418e-24)
(0.00284536 -1.02863e-05 -1.07567e-25)
(0.00283939 -1.10732e-05 4.77805e-26)
(0.00240337 2.85705e-06 -9.33328e-25)
(0.00240621 1.91843e-06 2.43524e-25)
(0.0024082 9.72931e-07 5.09726e-25)
(0.00240934 3.70104e-08 -2.29234e-24)
(0.00240967 -8.70702e-07 -9.86551e-25)
(0.00240925 -1.74682e-06 8.6889e-24)
(0.00240812 -2.59052e-06 -5.06141e-24)
(0.00240631 -3.40053e-06 6.93262e-25)
(0.00240386 -4.17568e-06 -6.75822e-25)
(0.00240081 -4.91495e-06 -6.85647e-25)
(0.00239717 -5.61743e-06 -1.62754e-25)
(0.00239299 -6.28243e-06 1.19046e-24)
(0.0023883 -6.90941e-06 2.01113e-25)
(0.00238312 -7.49812e-06 -6.19851e-25)
(0.00237747 -8.04808e-06 -7.29596e-26)
(0.0019794 1.77877e-06 -3.00202e-25)
(0.00198152 1.14769e-06 -9.53366e-26)
(0.00198293 5.06973e-07 -4.7017e-24)
(0.00198362 -1.28024e-07 1.28203e-24)
(0.00198363 -7.43243e-07 -3.23755e-24)
(0.001983 -1.3373e-06 2.36003e-24)
(0.00198175 -1.90951e-06 4.27845e-24)
(0.00197992 -2.45884e-06 3.08828e-24)
(0.00197754 -2.98432e-06 -4.25977e-24)
(0.00197463 -3.4851e-06 1.27958e-24)
(0.00197123 -3.96041e-06 1.01048e-24)
(0.00196735 -4.40969e-06 -1.35161e-24)
(0.00196303 -4.83251e-06 7.13782e-25)
(0.00195828 -5.22866e-06 -1.31185e-26)
(0.00195315 -5.59794e-06 1.23181e-25)
(0.00159029 1.05495e-06 -1.03604e-24)
(0.00159182 6.49947e-07 -1.39385e-24)
(0.00159279 2.36821e-07 -2.28311e-25)
(0.00159315 -1.72311e-07 3.43002e-24)
(0.00159296 -5.68071e-07 -2.38186e-24)
(0.00159223 -9.50406e-07 -4.3008e-25)
(0.00159099 -1.31878e-06 3.72764e-24)
(0.00158926 -1.67244e-06 -2.3726e-26)
(0.00158707 -2.01064e-06 -7.53584e-25)
(0.00158444 -2.33273e-06 -2.54132e-24)
(0.0015814 -2.63813e-06 3.47193e-25)
(0.00157796 -2.92642e-06 1.6201e-24)
(0.00157415 -3.19727e-06 -2.04211e-25)
(0.00156999 -3.45051e-06 -1.59246e-25)
(0.0015655 -3.68605e-06 9.63358e-26)
(0.00123485 5.84049e-07 -1.99517e-25)
(0.00123592 3.40099e-07 1.34335e-26)
(0.00123654 9.16155e-08 1.46238e-24)
(0.00123669 -1.53752e-07 9.51996e-25)
(0.00123639 -3.90655e-07 -6.83883e-25)
(0.00123566 -6.19672e-07 -1.62144e-24)
(0.00123453 -8.40399e-07 6.36613e-25)
(0.001233 -1.05232e-06 -2.62537e-24)
(0.00123111 -1.25495e-06 2.01237e-24)
(0.00122886 -1.44781e-06 9.69588e-25)
(0.00122627 -1.6305e-06 -5.07862e-26)
(0.00122337 -1.80275e-06 -9.96475e-25)
(0.00122017 -1.96433e-06 1.61297e-25)
(0.00121669 -2.11508e-06 -1.00557e-25)
(0.00121295 -2.25492e-06 4.38919e-26)
(0.000911469 2.90001e-07 -3.24802e-25)
(0.000912179 1.55749e-07 9.42177e-27)
(0.00091255 2.09513e-08 1.04025e-24)
(0.000912564 -1.11325e-07 -6.48634e-25)
(0.000912241 -2.38711e-07 2.60175e-24)
(0.000911596 -3.61877e-07 -4.70935e-24)
(0.000910641 -4.80558e-07 3.77197e-24)
(0.000909391 -5.94461e-07 -3.08704e-24)
(0.000907857 -7.03289e-07 2.16641e-24)
(0.000906055 -8.06774e-07 -1.34609e-24)
(0.000903998 -9.04668e-07 4.55807e-25)
(0.0009017 -9.96818e-07 6.24374e-26)
(0.000899176 -1.0831e-06 8.12013e-26)
(0.000896441 -1.16337e-06 -9.53725e-26)
(0.000893507 -1.23748e-06 1.60599e-26)
(0.000618269 1.18506e-07 4.38544e-25)
(0.000618696 5.49475e-08 4.65769e-25)
(0.000618891 -6.31416e-09 -1.99585e-24)
(0.000618837 -6.57948e-08 1.44865e-24)
(0.000618553 -1.22902e-07 -1.83792e-26)
(0.000618045 -1.78081e-07 3.54713e-25)
(0.000617324 -2.31184e-07 -4.44342e-25)
(0.000616396 -2.82075e-07 -8.89276e-25)
(0.000615273 -3.30614e-07 8.70033e-25)
(0.000613962 -3.76673e-07 7.73199e-26)
(0.000612474 -4.20139e-07 -6.38347e-25)
(0.000610819 -4.60942e-07 2.30708e-25)
(0.000609007 -4.99041e-07 1.19665e-25)
(0.000607049 -5.34324e-07 -1.54986e-26)
(0.000604953 -5.66557e-07 -9.5995e-27)
(0.000353212 3.39664e-08 -3.97182e-25)
(0.000353419 1.61262e-08 1.20713e-24)
(0.000353492 5.76595e-11 7.02846e-25)
(0.000353422 -1.62413e-08 -1.28171e-24)
(0.000353219 -3.26933e-08 -1.49302e-25)
(0.000352888 -4.92957e-08 -1.29649e-25)
(0.000352433 -6.58463e-08 3.85347e-25)
(0.000351858 -8.21772e-08 -6.42096e-25)
(0.000351169 -9.81392e-08 8.47573e-25)
(0.000350372 -1.13606e-07 -4.15658e-25)
(0.000349472 -1.28471e-07 -2.50523e-25)
(0.000348474 -1.42651e-07 1.45066e-25)
(0.000347385 -1.56095e-07 -1.45522e-25)
(0.000346211 -1.68692e-07 1.37171e-25)
(0.000344958 -1.80143e-07 -1.86261e-26)
(0.000114196 1.23928e-08 -2.23681e-27)
(0.00011423 3.06861e-08 1.84503e-25)
(0.000114223 4.48708e-08 2.07185e-25)
(0.000114171 5.40981e-08 -3.28391e-25)
(0.000114079 5.90015e-08 6.62649e-25)
(0.000113947 6.03191e-08 -7.19514e-25)
(0.000113776 5.86807e-08 4.55258e-26)
(0.000113567 5.46387e-08 3.731e-25)
(0.000113321 4.86706e-08 -5.14572e-25)
(0.000113041 4.11885e-08 -8.37571e-26)
(0.000112728 3.25438e-08 3.24401e-25)
(0.000112384 2.30417e-08 -1.39704e-25)
(0.00011201 1.29237e-08 -4.25053e-26)
(0.000111609 2.43677e-09 3.41449e-26)
(0.000111182 -8.0777e-09 -1.1618e-27)
(0.000339117 -0.000145441 3.33119e-26)
(0.000391288 -0.000134138 8.89431e-25)
(0.000476331 -0.0001107 -2.61256e-24)
(0.000565921 -8.74241e-05 3.86955e-24)
(0.000655326 -6.62637e-05 -1.47568e-24)
(0.000745034 -4.78859e-05 -1.42399e-24)
(0.000835184 -3.23472e-05 1.6209e-24)
(0.000925994 -1.95668e-05 -3.17429e-24)
(0.00101769 -9.41417e-06 2.41906e-25)
(0.00111044 -1.72957e-06 1.9794e-24)
(0.00120439 3.66606e-06 -3.68605e-25)
(0.00129964 6.97044e-06 3.92243e-25)
(0.00139627 8.40246e-06 -4.06599e-26)
(0.00149434 8.20711e-06 2.34627e-25)
(0.00159391 6.66093e-06 -8.65128e-25)
(0.00169503 4.07339e-06 4.72941e-25)
(0.0017978 7.79034e-07 -1.44365e-25)
(0.00190237 -2.89536e-06 1.27227e-26)
(0.0020089 -6.70095e-06 3.26791e-25)
(0.00211755 -1.06152e-05 -2.02458e-25)
(0.00222832 -1.50939e-05 2.23009e-26)
(0.00234042 -2.14462e-05 -1.87059e-26)
(0.00244332 -3.149e-05 2.93375e-26)
(0.00252527 -4.59003e-05 9.70983e-26)
(0.00258454 -6.41929e-05 -1.74866e-25)
(0.0026222 -8.51169e-05 -9.33829e-26)
(0.00263929 -0.000106765 2.13482e-26)
(0.00263702 -0.00012687 1.97767e-25)
(0.00261683 -0.000143027 1.58696e-25)
(0.00258031 -0.000152849 -2.9386e-25)
(0.00252918 -0.000154035 -1.00383e-26)
(0.00246518 -0.000144374 1.94562e-25)
(0.00239007 -0.00012169 -1.36369e-25)
(0.00230553 -8.37774e-05 -4.26757e-25)
(0.00221317 -2.83679e-05 4.21459e-25)
(0.00211441 4.67369e-05 1.77006e-24)
(0.00201034 0.00014325 -6.44324e-25)
(0.00190145 0.000261593 2.06965e-25)
(0.00178743 0.000399734 8.17868e-28)
(0.00166701 0.000551782 -1.72281e-24)
(0.00153817 0.000706542 -1.80582e-26)
(0.00139883 0.000845955 4.98463e-25)
(0.00124761 0.000942646 5.72641e-26)
(0.00109101 0.000956074 -5.87276e-25)
(0.00100216 0.000807415 -2.09134e-26)
(0.000602097 -0.000172033 -1.01384e-24)
(0.000626761 -0.000175886 -1.53652e-24)
(0.000680999 -0.000156232 3.19006e-24)
(0.000749805 -0.000131534 1.54882e-24)
(0.000825555 -0.000107234 -5.51169e-24)
(0.000905669 -8.54157e-05 5.96951e-24)
(0.000988668 -6.66151e-05 -2.17192e-24)
(0.00107385 -5.0859e-05 1.69557e-24)
(0.00116091 -3.80159e-05 -2.27129e-24)
(0.00124971 -2.78957e-05 3.09639e-26)
(0.00134019 -2.02848e-05 -1.15662e-24)
(0.00143232 -1.49547e-05 2.29944e-24)
(0.00152608 -1.16617e-05 -1.26029e-24)
(0.00162149 -1.01418e-05 -1.10367e-24)
(0.00171856 -1.01052e-05 -7.16567e-25)
(0.00181731 -1.12341e-05 1.40528e-24)
(0.0019178 -1.31896e-05 -1.61215e-25)
(0.00202015 -1.56428e-05 7.15502e-25)
(0.00212449 -1.83393e-05 1.01431e-25)
(0.00223094 -2.12412e-05 -2.09508e-25)
(0.00233945 -2.47577e-05 -8.08884e-26)
(0.0024492 -3.01051e-05 -4.02746e-26)
(0.00254991 -3.89945e-05 1.78715e-25)
(0.00263011 -5.20218e-05 1.75269e-25)
(0.00268815 -6.86515e-05 -1.88708e-25)
(0.00272515 -8.76118e-05 -6.79255e-25)
(0.00274215 -0.000107015 8.38194e-25)
(0.00274041 -0.000124639 -4.9778e-25)
(0.00272137 -0.000138135 1.57651e-25)
(0.00268668 -0.000145176 -1.71222e-26)
(0.0026381 -0.000143516 -5.26962e-26)
(0.00257746 -0.000130998 5.13214e-25)
(0.00250661 -0.000105498 -8.72288e-25)
(0.00242744 -6.4859e-05 2.54702e-24)
(0.00234181 -6.83876e-06 -3.60046e-24)
(0.00225153 7.0807e-05 9.24955e-25)
(0.00215833 0.000169973 2.909e-24)
(0.00206368 0.000291488 -9.6342e-25)
(0.0019687 0.000433975 -1.89711e-24)
(0.00187424 0.000592324 -8.33918e-25)
(0.00178139 0.000755824 1.80371e-24)
(0.00169265 0.000905699 -1.29021e-24)
(0.00161324 0.00101123 2.68847e-25)
(0.00155162 0.00102467 6.03495e-25)
(0.00152631 0.00087226 -2.2261e-25)
(0.000894823 -0.000182248 -1.18972e-26)
(0.000904022 -0.000198248 -1.8332e-24)
(0.000932961 -0.00018903 3.59941e-24)
(0.00097931 -0.000168885 3.13947e-24)
(0.00103767 -0.000145328 -5.23508e-24)
(0.00110445 -0.000122304 1.12109e-25)
(0.00117709 -0.000101468 5.26355e-25)
(0.001254 -8.33919e-05 5.6887e-24)
(0.00133426 -6.81918e-05 -6.82601e-24)
(0.00141729 -5.57856e-05 4.14434e-24)
(0.00150276 -4.60028e-05 1.18211e-24)
(0.00159043 -3.86289e-05 -6.80624e-24)
(0.00168018 -3.34216e-05 2.46677e-24)
(0.00177191 -3.01137e-05 9.6299e-25)
(0.00186555 -2.84117e-05 -1.97874e-24)
(0.00196108 -2.79953e-05 3.19503e-24)
(0.00205853 -2.85248e-05 -2.23998e-24)
(0.00215794 -2.96702e-05 -3.05547e-26)
(0.00225942 -3.11717e-05 1.82318e-25)
(0.00236303 -3.29743e-05 1.85386e-25)
(0.00246867 -3.54377e-05 3.13987e-26)
(0.0025755 -3.96821e-05 9.01595e-26)
(0.00267348 -4.73118e-05 -1.95711e-25)
(0.00275151 -5.88466e-05 5.48187e-25)
(0.002808 -7.36976e-05 -7.77989e-25)
(0.00284411 -9.05665e-05 4.2957e-25)
(0.00286089 -0.00010758 -7.55766e-25)
(0.00285963 -0.000122558 9.93577e-25)
(0.0028418 -0.000133207 -6.00886e-25)
(0.00280908 -0.000137259 2.63198e-25)
(0.00276329 -0.000132532 3.91051e-25)
(0.00270636 -0.000116936 -5.58113e-25)
(0.00264027 -8.84232e-05 3.06052e-25)
(0.00256708 -4.49271e-05 1.36188e-24)
(0.00248895 1.56913e-05 -3.17246e-24)
(0.00240814 9.55772e-05 4.55629e-24)
(0.00232704 0.000196578 -2.8407e-24)
(0.00224813 0.000319567 3.19418e-24)
(0.002174 0.000463287 -5.52775e-24)
(0.00210746 0.000622643 1.97883e-24)
(0.00205193 0.00078642 5.12814e-25)
(0.00201176 0.000934315 2.79861e-25)
(0.00199138 0.00103355 -2.92297e-25)
(0.00199019 0.0010383 -3.28365e-25)
(0.00199424 0.000901102 3.11527e-25)
(0.00121652 -0.000185677 -4.38737e-25)
(0.00121743 -0.000207907 -7.68673e-25)
(0.00122901 -0.000209087 -3.50376e-24)
(0.00125552 -0.000196725 8.81998e-25)
(0.00129557 -0.000177431 6.23951e-25)
(0.00134667 -0.00015593 2.93014e-24)
(0.00140625 -0.000134913 -6.27391e-24)
(0.0014723 -0.000115711 2.49122e-24)
(0.00154343 -9.89036e-05 8.17731e-24)
(0.00161864 -8.46717e-05 -2.24967e-24)
(0.0016973 -7.29897e-05 -2.06838e-24)
(0.00177895 -6.37225e-05 -3.24793e-25)
(0.00186327 -5.66706e-05 1.04732e-24)
(0.00195004 -5.15909e-05 -2.0482e-24)
(0.00203911 -4.82038e-05 4.81772e-25)
(0.00213038 -4.61984e-05 -1.60205e-25)
(0.00222381 -4.52421e-05 -9.61606e-25)
(0.00231939 -4.50094e-05 3.91669e-25)
(0.00241717 -4.52387e-05 1.64909e-24)
(0.00251714 -4.58588e-05 -2.12627e-25)
(0.00261916 -4.71787e-05 -3.49878e-25)
(0.00272232 -5.02164e-05 -8.17789e-26)
(0.00281692 -5.64654e-05 -3.87723e-25)
(0.00289223 -6.63695e-05 2.87789e-26)
(0.00294678 -7.92879e-05 -7.01117e-25)
(0.0029817 -9.38973e-05 1.28764e-24)
(0.00299808 -0.000108345 -8.58001e-25)
(0.00299721 -0.0001205 1.53793e-24)
(0.0029806 -0.000128138 -1.02849e-24)
(0.00294998 -0.000129065 3.18042e-25)