/*--------------------------------*- C++ -*----------------------------------*\
| =========                 |                                                 |
| \\      /  F ield         | OpenFOAM: The Open Source CFD Toolbox           |
|  \\    /   O peration     | Version:  2312                                  |
|   \\  /    A nd           | Website:  www.openfoam.com                      |
|    \\/     M anipulation  |                                                 |
\*---------------------------------------------------------------------------*/
FoamFile
{
    version     2.0;
    format      ascii;
    arch        "LSB;label=32;scalar=64";
    class       volScalarField;
    location    "142";
    object      p;
}
// * * * * * * * * * * * * * * * * * * * * * * * * * * * * * * * * * * * * * //

dimensions      [0 2 -2 0 0 0 0];

internalField   nonuniform List<scalar> 
4800
(
1.40299e-13
-1.11217e-06
-2.06892e-06
-2.91063e-06
-3.65742e-06
-4.33323e-06
-4.94132e-06
-5.4891e-06
-5.98622e-06
-6.43967e-06
-6.85442e-06
-7.23149e-06
-7.56223e-06
-8.08876e-06
-9.79638e-06
1.07546e-08
-1.09984e-06
-2.05493e-06
-2.89575e-06
-3.64248e-06
-4.31906e-06
-4.92905e-06
-5.48018e-06
-5.98287e-06
-6.44611e-06
-6.87978e-06
-7.29866e-06
-7.71575e-06
-8.23906e-06
-9.11737e-06
2.23129e-08
-1.08641e-06
-2.03996e-06
-2.87984e-06
-3.62532e-06
-4.30187e-06
-4.91313e-06
-5.4667e-06
-5.97362e-06
-6.44369e-06
-6.88789e-06
-7.32133e-06
-7.75115e-06
-8.18191e-06
-8.58366e-06
3.45212e-08
-1.07158e-06
-2.02289e-06
-2.86132e-06
-3.60496e-06
-4.28034e-06
-4.89201e-06
-5.44633e-06
-5.95421e-06
-6.42479e-06
-6.86605e-06
-7.28378e-06
-7.66802e-06
-7.98315e-06
-8.15283e-06
4.87296e-08
-1.05378e-06
-2.00193e-06
-2.83785e-06
-3.57975e-06
-4.25164e-06
-4.86197e-06
-5.4147e-06
-5.91903e-06
-6.38205e-06
-6.80644e-06
-7.18767e-06
-7.50422e-06
-7.7139e-06
-7.75763e-06
6.65329e-08
-1.03134e-06
-1.97525e-06
-2.80711e-06
-3.54693e-06
-4.21309e-06
-4.81888e-06
-5.36623e-06
-5.86107e-06
-6.30721e-06
-6.7019e-06
-7.03385e-06
-7.27945e-06
-7.40659e-06
-7.38524e-06
9.04073e-08
-1.00178e-06
-1.9402e-06
-2.76643e-06
-3.5016e-06
-4.16081e-06
-4.75792e-06
-5.2943e-06
-5.77245e-06
-6.19242e-06
-6.54777e-06
-6.82553e-06
-7.00737e-06
-7.07652e-06
-7.02533e-06
1.24359e-07
-9.61247e-07
-1.89275e-06
-2.71147e-06
-3.43879e-06
-4.08857e-06
-4.67227e-06
-5.19119e-06
-5.64514e-06
-6.03136e-06
-6.3425e-06
-6.56832e-06
-6.69891e-06
-6.73072e-06
-6.66857e-06
1.74203e-07
-9.04162e-07
-1.82718e-06
-2.63614e-06
-3.35238e-06
-3.98835e-06
-4.55345e-06
-5.04854e-06
-5.47188e-06
-5.81984e-06
-6.08683e-06
-6.26776e-06
-6.36073e-06
-6.37075e-06
-6.30787e-06
2.47329e-07
-8.23336e-07
-1.73616e-06
-2.53273e-06
-3.23435e-06
-3.85149e-06
-4.39272e-06
-4.8585e-06
-5.24702e-06
-5.55579e-06
-5.78267e-06
-5.92794e-06
-5.99554e-06
-5.99483e-06
-5.93709e-06
3.51923e-07
-7.10534e-07
-1.61122e-06
-2.39235e-06
-3.07585e-06
-3.66913e-06
-4.18201e-06
-4.61485e-06
-4.96722e-06
-5.23921e-06
-5.43247e-06
-5.55152e-06
-5.60373e-06
-5.59995e-06
-5.55079e-06
4.96249e-07
-5.57185e-07
-1.44351e-06
-2.20571e-06
-2.86397e-06
-3.43311e-06
-3.91508e-06
-4.3139e-06
-4.63179e-06
-4.87188e-06
-5.03905e-06
-5.1405e-06
-5.18506e-06
-5.18344e-06
-5.14491e-06
6.88711e-07
-3.54509e-07
-1.22414e-06
-1.96459e-06
-2.59847e-06
-3.13798e-06
-3.58836e-06
-3.95485e-06
-4.24243e-06
-4.45701e-06
-4.60566e-06
-4.69691e-06
-4.73976e-06
-4.74397e-06
-4.71738e-06
9.3851e-07
-9.30065e-08
-9.43658e-07
-1.66124e-06
-2.26902e-06
-2.77938e-06
-3.20015e-06
-3.5386e-06
-3.80204e-06
-3.99828e-06
-4.13563e-06
-4.22295e-06
-4.26878e-06
-4.28164e-06
-4.2681e-06
1.25582e-06
2.3809e-07
-5.93774e-07
-1.28838e-06
-1.8705e-06
-2.35425e-06
-2.74992e-06
-3.0667e-06
-3.31339e-06
-3.49885e-06
-3.6318e-06
-3.72081e-06
-3.77364e-06
-3.7977e-06
-3.79851e-06
1.65107e-06
6.47682e-07
-1.66637e-07
-8.39889e-07
-1.39911e-06
-1.86125e-06
-2.23859e-06
-2.54146e-06
-2.77943e-06
-2.96173e-06
-3.09697e-06
-3.19314e-06
-3.25715e-06
-3.2953e-06
-3.31234e-06
2.13488e-06
1.14298e-06
3.43735e-07
-3.1186e-07
-8.53995e-07
-1.30198e-06
-1.6694e-06
-1.96717e-06
-2.20498e-06
-2.39189e-06
-2.53608e-06
-2.64493e-06
-2.72467e-06
-2.78069e-06
-2.81704e-06
2.69996e-06
1.72544e-06
9.39394e-07
2.94871e-07
-2.38925e-07
-6.82211e-07
-1.04925e-06
-1.35131e-06
-1.59796e-06
-1.79775e-06
-1.95823e-06
-2.08599e-06
-2.18656e-06
-2.26481e-06
-2.32457e-06
3.34093e-06
2.38796e-06
1.61221e-06
9.71493e-07
4.36597e-07
-1.23228e-08
-3.89302e-07
-7.05459e-07
-9.69987e-07
-1.19088e-06
-1.37518e-06
-1.52897e-06
-1.6569e-06
-1.76281e-06
-1.85045e-06
4.04026e-06
3.11285e-06
2.34496e-06
1.70189e-06
1.15767e-06
6.93495e-07
2.96331e-07
-4.3881e-08
-3.35827e-07
-5.86781e-07
-8.02847e-07
-9.8958e-07
-1.15184e-06
-1.29335e-06
-1.41676e-06
4.70634e-06
3.80687e-06
3.04591e-06
2.39609e-06
1.83639e-06
1.35096e-06
9.27987e-07
5.58182e-07
2.33662e-07
-5.23576e-08
-3.05512e-07
-5.3034e-07
-7.30542e-07
-9.09231e-07
-1.06936e-06
5.24371e-06
4.37338e-06
3.62173e-06
2.96731e-06
2.39368e-06
1.88807e-06
1.44039e-06
1.04235e-06
6.86811e-07
3.67787e-07
8.04586e-08
-1.79158e-07
-4.14678e-07
-6.29269e-07
-8.25615e-07
5.63764e-06
4.79575e-06
4.05621e-06
3.40209e-06
2.81988e-06
2.29941e-06
1.83242e-06
1.41155e-06
1.03033e-06
6.83475e-07
3.66701e-07
7.64596e-08
-1.9031e-07
-4.36078e-07
-6.62941e-07
5.92088e-06
5.10867e-06
4.38423e-06
3.73405e-06
3.14777e-06
2.6175e-06
2.13616e-06
1.69721e-06
1.29501e-06
9.25124e-07
5.83986e-07
2.6869e-07
-2.3277e-08
-2.94026e-07
-5.4552e-07
6.12229e-06
5.3395e-06
4.63174e-06
3.98844e-06
3.40207e-06
2.86616e-06
2.37459e-06
1.92181e-06
1.50326e-06
1.11533e-06
7.5504e-07
4.19906e-07
1.07713e-07
-1.83413e-07
-4.5522e-07
6.26631e-06
5.51121e-06
4.81993e-06
4.18518e-06
3.60135e-06
3.06283e-06
2.56443e-06
2.10167e-06
1.67087e-06
1.26905e-06
8.93665e-07
5.42595e-07
2.13973e-07
-9.37526e-08
-3.82041e-07
6.36893e-06
5.63893e-06
4.96419e-06
4.33931e-06
3.75969e-06
3.22061e-06
2.71787e-06
2.24793e-06
1.80781e-06
1.39507e-06
1.00762e-06
6.43711e-07
3.01832e-07
-1.92684e-08
-3.2081e-07
6.44202e-06
5.73541e-06
5.0766e-06
4.46153e-06
3.8866e-06
3.34805e-06
2.84257e-06
2.36736e-06
1.92008e-06
1.49873e-06
1.10162e-06
7.27377e-07
3.74783e-07
4.28424e-08
-2.69459e-07
6.49467e-06
5.80895e-06
5.16453e-06
4.55864e-06
3.98851e-06
3.45114e-06
2.94398e-06
2.46488e-06
2.012e-06
1.58376e-06
1.17883e-06
7.96156e-07
4.34786e-07
9.39482e-08
-2.27187e-07
6.53236e-06
5.86494e-06
5.23342e-06
4.636e-06
4.07047e-06
3.53455e-06
3.02635e-06
2.54426e-06
2.08687e-06
1.653e-06
1.24163e-06
8.5198e-07
4.83333e-07
1.35118e-07
-1.93335e-07
6.55904e-06
5.90763e-06
5.2876e-06
4.69777e-06
4.13644e-06
3.60199e-06
3.09309e-06
2.6086e-06
2.1475e-06
1.70892e-06
1.29216e-06
8.9665e-07
5.219e-07
1.67502e-07
-1.67069e-07
6.5777e-06
5.94029e-06
5.33036e-06
4.7472e-06
4.18959e-06
3.6565e-06
3.14709e-06
2.66059e-06
2.19633e-06
1.75375e-06
1.33239e-06
9.31908e-07
5.51977e-07
1.92341e-07
-1.47398e-07
6.59063e-06
5.96541e-06
5.36429e-06
4.78691e-06
4.23254e-06
3.70065e-06
3.19079e-06
2.70255e-06
2.23555e-06
1.7895e-06
1.36417e-06
9.59389e-07
5.75004e-07
2.1088e-07
-1.33268e-07
6.59949e-06
5.98489e-06
5.39141e-06
4.81901e-06
4.26743e-06
3.73655e-06
3.22625e-06
2.73644e-06
2.26701e-06
1.8179e-06
1.38908e-06
9.80558e-07
5.92302e-07
2.24294e-07
-1.23653e-07
6.60551e-06
6.00014e-06
5.41328e-06
4.84516e-06
4.29595e-06
3.76588e-06
3.25513e-06
2.76387e-06
2.29226e-06
1.84043e-06
1.40852e-06
9.9669e-07
6.05035e-07
2.33632e-07
-1.17618e-07
6.60958e-06
6.01224e-06
5.43108e-06
4.86663e-06
4.31942e-06
3.78997e-06
3.27875e-06
2.78616e-06
2.31255e-06
1.85827e-06
1.42361e-06
1.00884e-06
6.14185e-07
2.39799e-07
-1.14339e-07
6.61232e-06
6.02194e-06
5.44567e-06
4.88435e-06
4.3388e-06
3.80983e-06
3.29811e-06
2.80428e-06
2.32888e-06
1.87239e-06
1.43526e-06
1.01788e-06
6.20564e-07
2.43549e-07
-1.13121e-07
6.61415e-06
6.02988e-06
5.45784e-06
4.89919e-06
4.35504e-06
3.8264e-06
3.31419e-06
2.8192e-06
2.34214e-06
1.88365e-06
1.44428e-06
1.02455e-06
6.24841e-07
2.45469e-07
-1.13456e-07
6.6154e-06
6.03677e-06
5.4686e-06
4.91237e-06
4.36944e-06
3.84105e-06
3.3283e-06
2.83216e-06
2.3535e-06
1.89308e-06
1.45157e-06
1.02959e-06
6.27596e-07
2.45983e-07
-1.15073e-07
6.61622e-06
6.04274e-06
5.47818e-06
4.92421e-06
4.3824e-06
3.85417e-06
3.34083e-06
2.84353e-06
2.36327e-06
1.90097e-06
1.45742e-06
1.03332e-06
6.29234e-07
2.45602e-07
-1.17405e-07
-1.11463e-05
-8.72374e-06
-7.24963e-06
-6.26979e-06
-5.49332e-06
-4.90122e-06
-4.44297e-06
-4.08072e-06
-3.78702e-06
-3.54005e-06
-3.32018e-06
-3.11028e-06
-2.89443e-06
-2.65863e-06
-2.39052e-06
-2.08344e-06
-1.73783e-06
-1.36996e-06
-1.01705e-06
-7.46711e-07
-6.56604e-07
-8.63813e-07
-1.40429e-06
-2.09491e-06
-2.74518e-06
-3.23749e-06
-3.50227e-06
-3.5032e-06
-3.2166e-06
-2.62775e-06
-1.72905e-06
-5.23446e-07
9.72985e-07
2.72969e-06
4.70231e-06
6.83476e-06
9.06155e-06
1.13091e-05
1.3494e-05
1.55171e-05
1.7245e-05
1.85026e-05
1.89091e-05
1.81258e-05
1.4899e-05
-9.45624e-06
-8.18191e-06
-7.05929e-06
-6.18341e-06
-5.45238e-06
-4.87637e-06
-4.42309e-06
-4.0625e-06
-3.76901e-06
-3.52228e-06
-3.30263e-06
-3.09295e-06
-2.87725e-06
-2.64155e-06
-2.37372e-06
-2.06718e-06
-1.72254e-06
-1.35604e-06
-1.00457e-06
-7.34645e-07
-6.42124e-07
-8.42057e-07
-1.37027e-06
-2.04728e-06
-2.68634e-06
-3.17101e-06
-3.43162e-06
-3.43165e-06
-3.14737e-06
-2.56472e-06
-1.6775e-06
-4.90417e-07
9.78245e-07
2.69539e-06
4.61354e-06
6.67246e-06
8.80064e-06
1.09152e-05
1.29175e-05
1.46822e-05
1.60261e-05
1.66681e-05
1.6069e-05
1.34594e-05
7.84044e-06
-8.57338e-06
-7.76332e-06
-6.86162e-06
-6.081e-06
-5.40162e-06
-4.84632e-06
-4.40086e-06
-4.04226e-06
-3.75e-06
-3.50328e-06
-3.28341e-06
-3.07345e-06
-2.85756e-06
-2.62171e-06
-2.35393e-06
-2.0479e-06
-1.70443e-06
-1.33975e-06
-9.90351e-07
-7.21506e-07
-6.26925e-07
-8.19221e-07
-1.33389e-06
-1.99541e-06
-2.62146e-06
-3.09712e-06
-3.35278e-06
-3.35179e-06
-3.07064e-06
-2.49622e-06
-1.62402e-06
-4.61072e-07
9.71557e-07
2.63748e-06
4.48523e-06
6.44931e-06
8.45085e-06
1.03963e-05
1.21711e-05
1.36267e-05
1.45505e-05
1.46288e-05
1.33779e-05
1.02666e-05
5.18737e-06
-8.01247e-06
-7.4224e-06
-6.69049e-06
-5.98618e-06
-5.35573e-06
-4.82241e-06
-4.38493e-06
-4.02819e-06
-3.73487e-06
-3.4866e-06
-3.26513e-06
-3.05385e-06
-2.83689e-06
-2.60034e-06
-2.33232e-06
-2.02675e-06
-1.68463e-06
-1.32214e-06
-9.75309e-07
-7.07995e-07
-6.11571e-07
-7.95922e-07
-1.29597e-06
-1.94041e-06
-2.55171e-06
-3.01669e-06
-3.2659e-06
-3.26276e-06
-2.98419e-06
-2.41839e-06
-1.5631e-06
-4.28309e-07
9.61321e-07
2.56525e-06
4.32709e-06
6.17528e-06
8.0231e-06
9.7668e-06
1.12798e-05
1.24015e-05
1.292e-05
1.25608e-05
1.09936e-05
7.97091e-06
3.73733e-06
-7.57443e-06
-7.11966e-06
-6.52216e-06
-5.90474e-06
-5.31855e-06
-4.80819e-06
-4.37827e-06
-4.02152e-06
-3.72491e-06
-3.47279e-06
-3.24764e-06
-3.03333e-06
-2.8141e-06
-2.57605e-06
-2.30749e-06
-2.00249e-06
-1.66225e-06
-1.30276e-06
-9.59512e-07
-6.94661e-07
-5.96892e-07
-7.72954e-07
-1.25695e-06
-1.88236e-06
-2.47699e-06
-2.92975e-06
-3.17152e-06
-3.16605e-06
-2.89095e-06
-2.33615e-06
-1.50208e-06
-4.02244e-07
9.34559e-07
2.46312e-06
4.12181e-06
5.83307e-06
7.50341e-06
9.02212e-06
1.02576e-05
1.10536e-05
1.12251e-05
1.05721e-05
8.91901e-06
6.2195e-06
2.74581e-06
-7.20215e-06
-6.8402e-06
-6.34885e-06
-5.81696e-06
-5.28576e-06
-4.80249e-06
-4.38052e-06
-4.0229e-06
-3.72111e-06
-3.46286e-06
-3.23157e-06
-3.01221e-06
-2.78911e-06
-2.54853e-06
-2.27898e-06
-1.9747e-06
-1.63701e-06
-1.28163e-06
-9.43342e-07
-6.82257e-07
-5.83924e-07
-7.51436e-07
-1.21785e-06
-1.82197e-06
-2.39779e-06
-2.8367e-06
-3.07019e-06
-3.06261e-06
-2.79271e-06
-2.25247e-06
-1.44552e-06
-3.89278e-07
8.82933e-07
2.3211e-06
3.8586e-06
5.41296e-06
6.88649e-06
8.16675e-06
9.1265e-06
9.62748e-06
9.52796e-06
8.7065e-06
7.10265e-06
4.77988e-06
1.98949e-06
-6.85869e-06
-6.56718e-06
-6.1676e-06
-5.70855e-06
-5.24258e-06
-4.79267e-06
-4.38407e-06
-4.02875e-06
-3.72203e-06
-3.45658e-06
-3.21707e-06
-2.99079e-06
-2.76219e-06
-2.51795e-06
-2.24691e-06
-1.94352e-06
-1.60922e-06
-1.25931e-06
-9.27661e-07
-6.71962e-07
-5.74103e-07
-7.32933e-07
-1.18016e-06
-1.76059e-06
-2.31523e-06
-2.73852e-06
-2.96289e-06
-2.95366e-06
-2.69116e-06
-2.16992e-06
-1.39711e-06
-3.94419e-07
8.00228e-07
2.13229e-06
3.53114e-06
4.91147e-06
6.17515e-06
7.21405e-06
7.91469e-06
8.16538e-06
7.87126e-06
6.97599e-06
5.48896e-06
3.51239e-06
1.25054e-06
-6.52252e-06
-6.2863e-06
-5.96392e-06
-5.58048e-06
-5.17118e-06
-4.7611e-06
-4.37774e-06
-4.03003e-06
-3.72224e-06
-3.45048e-06
-3.20215e-06
-2.96816e-06
-2.73289e-06
-2.48414e-06
-2.21137e-06
-1.90929e-06
-1.57952e-06
-1.23678e-06
-9.13834e-07
-6.65516e-07
-5.69461e-07
-7.19618e-07
-1.146e-06
-1.70019e-06
-2.23114e-06
-2.63692e-06
-2.8514e-06
-2.84138e-06
-2.5892e-06
-2.09236e-06
-1.36196e-06
-4.2401e-07
6.79259e-07
1.88963e-06
3.13422e-06
4.32786e-06
5.37658e-06
6.18249e-06
6.65136e-06
6.702e-06
6.28051e-06
5.37535e-06
4.03012e-06
2.34884e-06
4.86777e-07
-6.18245e-06
-5.99023e-06
-5.73038e-06
-5.41447e-06
-5.06358e-06
-4.70035e-06
-4.34646e-06
-4.01515e-06
-3.71255e-06
-3.43676e-06
-3.18259e-06
-2.94163e-06
-2.69949e-06
-2.44629e-06
-2.1722e-06
-1.87243e-06
-1.54887e-06
-1.21552e-06
-9.03823e-07
-6.65329e-07
-5.72739e-07
-7.14387e-07
-1.11823e-06
-1.6435e-06
-2.14813e-06
-2.53455e-06
-2.73851e-06
-2.72915e-06
-2.49121e-06
-2.02541e-06
-1.34698e-06
-4.85974e-07
5.1182e-07
1.58603e-06
2.66395e-06
3.664e-06
4.50069e-06
5.09115e-06
5.36239e-06
5.26171e-06
4.76611e-06
3.88997e-06
2.68823e-06
1.25183e-06
-3.0459e-07
-5.83134e-06
-5.67488e-06
-5.46547e-06
-5.20756e-06
-4.91307e-06
-4.59839e-06
-4.28029e-06
-3.97172e-06
-3.68039e-06
-3.40746e-06
-3.15206e-06
-2.90578e-06
-2.6589e-06
-2.40276e-06
-2.12897e-06
-1.83345e-06
-1.51858e-06
-1.19754e-06
-9.00243e-07
-6.74531e-07
-5.87439e-07
-7.20915e-07
-1.1005e-06
-1.59413e-06
-2.06968e-06
-2.43528e-06
-2.62876e-06
-2.62162e-06
-2.403e-06
-1.97634e-06
-1.36062e-06
-5.89349e-07
2.89441e-07
1.21533e-06
2.11861e-06
2.92472e-06
3.56015e-06
3.95857e-06
4.06808e-06
3.85874e-06
3.3277e-06
2.50133e-06
1.43337e-06
1.97673e-07
-1.12207e-06
-5.46372e-06
-5.33724e-06
-5.16912e-06
-4.96037e-06
-4.71699e-06
-4.44953e-06
-4.17025e-06
-3.89015e-06
-3.61694e-06
-3.35417e-06
-3.10193e-06
-2.85529e-06
-2.60749e-06
-2.35171e-06
-2.08128e-06
-1.79315e-06
-1.49045e-06
-1.18548e-06
-9.06372e-07
-6.96934e-07
-6.17767e-07
-7.43621e-07
-1.09728e-06
-1.55664e-06
-2.00042e-06
-2.34361e-06
-2.52795e-06
-2.5262e-06
-2.33235e-06
-1.95395e-06
-1.41245e-06
-7.43466e-07
4.41358e-09
7.73296e-07
1.49928e-06
2.11744e-06
2.56823e-06
2.80139e-06
2.78304e-06
2.49945e-06
1.95895e-06
1.19101e-06
2.42547e-07
-8.28933e-07
-1.96243e-06
-5.07563e-06
-4.97509e-06
-4.8415e-06
-4.67432e-06
-4.47604e-06
-4.25283e-06
-4.01303e-06
-3.76505e-06
-3.5157e-06
-3.26916e-06
-3.02648e-06
-2.78568e-06
-2.54238e-06
-2.29181e-06
-2.02929e-06
-1.753e-06
-1.46698e-06
-1.18266e-06
-9.26129e-07
-7.36908e-07
-6.68441e-07
-7.87518e-07
-1.11384e-06
-1.53647e-06
-1.94621e-06
-2.26617e-06
-2.44323e-06
-2.45095e-06
-2.28875e-06
-1.96878e-06
-1.51282e-06
-9.57012e-07
-3.48893e-07
2.58899e-07
8.10051e-07
1.25268e-06
1.53917e-06
1.63423e-06
1.51762e-06
1.18585e-06
6.52059e-07
-5.61308e-08
-9.00362e-07
-1.83695e-06
-2.82139e-06
-4.66521e-06
-4.58772e-06
-4.48373e-06
-4.35208e-06
-4.19336e-06
-4.01078e-06
-3.80956e-06
-3.59564e-06
-3.37435e-06
-3.14965e-06
-2.92327e-06
-2.69505e-06
-2.46269e-06
-2.2234e-06
-1.97459e-06
-1.7157e-06
-1.45172e-06
-1.1933e-06
-9.64072e-07
-7.99255e-07
-7.44463e-07
-8.57966e-07
-1.15609e-06
-1.54008e-06
-1.91445e-06
-2.21111e-06
-2.38302e-06
-2.40528e-06
-2.2835e-06
-2.03133e-06
-1.67078e-06
-1.23624e-06
-7.72417e-07
-3.24809e-07
6.18329e-08
3.44581e-07
4.88933e-07
4.71313e-07
2.80884e-07
-8.02852e-08
-5.98246e-07
-1.24949e-06
-2.004e-06
-2.82918e-06
-3.69254e-06
-4.23271e-06
-4.17643e-06
-4.09863e-06
-3.99808e-06
-3.87437e-06
-3.72892e-06
-3.56473e-06
-3.38565e-06
-3.19551e-06
-2.99759e-06
-2.79384e-06
-2.58511e-06
-2.37074e-06
-2.14964e-06
-1.92119e-06
-1.68597e-06
-1.44987e-06
-1.2228e-06
-1.02557e-06
-8.89197e-07
-8.51027e-07
-9.6048e-07
-1.23042e-06
-1.57491e-06
-1.91376e-06
-2.18663e-06
-2.35858e-06
-2.4023e-06
-2.3275e-06
-2.15036e-06
-1.89253e-06
-1.58444e-06
-1.26173e-06
-9.64713e-07
-7.2986e-07
-5.88355e-07
-5.6397e-07
-6.71579e-07
-9.1628e-07
-1.29377e-06
-1.7915e-06
-2.39071e-06
-3.06868e-06
-3.80143e-06
-4.56533e-06
-3.78026e-06
-3.74449e-06
-3.691e-06
-3.61872e-06
-3.52687e-06
-3.41586e-06
-3.28722e-06
-3.1433e-06
-2.98663e-06
-2.8197e-06
-2.64434e-06
-2.46184e-06
-2.27271e-06
-2.0771e-06
-1.87604e-06
-1.67112e-06
-1.4687e-06
-1.27822e-06
-1.11717e-06
-1.01257e-06
-9.93723e-07
-1.10073e-06
-1.3436e-06
-1.64943e-06
-1.9544e-06
-2.21496e-06
-2.38343e-06
-2.45389e-06
-2.43128e-06
-2.33253e-06
-2.17769e-06
-1.99167e-06
-1.8039e-06
-1.64571e-06
-1.54496e-06
-1.52374e-06
-1.59764e-06
-1.77542e-06
-2.05905e-06
-2.44398e-06
-2.92006e-06
-3.47303e-06
-4.08619e-06
-4.74214e-06
-5.42378e-06
-3.31243e-06
-3.29764e-06
-3.26812e-06
-3.22302e-06
-3.16148e-06
-3.08344e-06
-2.98958e-06
-2.88126e-06
-2.76007e-06
-2.62777e-06
-2.48592e-06
-2.3359e-06
-2.17895e-06
-2.01601e-06
-1.84925e-06
-1.68107e-06
-1.51776e-06
-1.36834e-06
-1.2468e-06
-1.17605e-06
-1.17861e-06
-1.28488e-06
-1.50278e-06
-1.77233e-06
-2.04368e-06
-2.28508e-06
-2.46374e-06
-2.56687e-06
-2.5995e-06
-2.57837e-06
-2.52199e-06
-2.4499e-06
-2.38414e-06
-2.34736e-06
-2.35964e-06
-2.43638e-06
-2.58762e-06
-2.81833e-06
-3.12885e-06
-3.51523e-06
-3.96986e-06
-4.48242e-06
-5.04099e-06
-5.63317e-06
-6.24666e-06
-2.8379e-06
-2.84583e-06
-2.84128e-06
-2.82374e-06
-2.79256e-06
-2.74745e-06
-2.68864e-06
-2.61686e-06
-2.53314e-06
-2.43868e-06
-2.33481e-06
-2.22277e-06
-2.1041e-06
-1.98024e-06
-1.85382e-06
-1.72791e-06
-1.60809e-06
-1.50291e-06
-1.42313e-06
-1.38686e-06
-1.41185e-06
-1.5191e-06
-1.71411e-06
-1.95124e-06
-2.19321e-06
-2.41951e-06
-2.60815e-06
-2.74526e-06
-2.83254e-06
-2.88386e-06
-2.91552e-06
-2.94269e-06
-2.98048e-06
-3.04404e-06
-3.14707e-06
-3.30002e-06
-3.50944e-06
-3.77821e-06
-4.10597e-06
-4.48963e-06
-4.92377e-06
-5.40125e-06
-5.91384e-06
-6.45291e-06
-7.00975e-06
-2.37016e-06
-2.40422e-06
-2.42717e-06
-2.43893e-06
-2.43939e-06
-2.4284e-06
-2.40589e-06
-2.37217e-06
-2.32794e-06
-2.27412e-06
-2.21182e-06
-2.14211e-06
-2.06648e-06
-1.98658e-06
-1.90497e-06
-1.825e-06
-1.75124e-06
-1.69108e-06
-1.65304e-06
-1.65062e-06
-1.69785e-06
-1.80714e-06
-1.98223e-06
-2.19262e-06
-2.41124e-06
-2.62467e-06
-2.82049e-06
-2.98753e-06
-3.12355e-06
-3.23721e-06
-3.34139e-06
-3.44797e-06
-3.567e-06
-3.70793e-06
-3.87947e-06
-4.08844e-06
-4.33912e-06
-4.63323e-06
-4.97033e-06
-5.34822e-06
-5.76323e-06
-6.21055e-06
-6.68464e-06
-7.17961e-06
-7.68944e-06
-1.925e-06
-1.9896e-06
-2.04434e-06
-2.08906e-06
-2.12405e-06
-2.14952e-06
-2.16541e-06
-2.17181e-06
-2.1692e-06
-2.15835e-06
-2.14021e-06
-2.11571e-06
-2.08611e-06
-2.053e-06
-2.01857e-06
-1.98585e-06
-1.95849e-06
-1.942e-06
-1.94242e-06
-1.96975e-06
-2.0358e-06
-2.14783e-06
-2.3069e-06
-2.49561e-06
-2.69535e-06
-2.89756e-06
-3.09655e-06
-3.28472e-06
-3.4578e-06
-3.61912e-06
-3.77742e-06
-3.94177e-06
-4.11867e-06
-4.31374e-06
-4.53223e-06
-4.77837e-06
-5.05504e-06
-5.36331e-06
-5.70274e-06
-6.0719e-06
-6.46851e-06
-6.88949e-06
-7.33118e-06
-7.78964e-06
-8.26075e-06
-1.52656e-06
-1.62638e-06
-1.7172e-06
-1.7993e-06
-1.87281e-06
-1.93783e-06
-1.99446e-06
-2.0429e-06
-2.08357e-06
-2.11704e-06
-2.14404e-06
-2.1654e-06
-2.18213e-06
-2.19563e-06
-2.20759e-06
-2.22035e-06
-2.23678e-06
-2.26048e-06
-2.29615e-06
-2.34892e-06
-2.42589e-06
-2.53579e-06
-2.68141e-06
-2.85085e-06
-3.03321e-06
-3.22339e-06
-3.41899e-06
-3.61615e-06
-3.81104e-06
-4.00316e-06
-4.19652e-06
-4.39675e-06
-4.60856e-06
-4.8371e-06
-5.08543e-06
-5.35354e-06
-5.64312e-06
-5.95582e-06
-6.29166e-06
-6.64962e-06
-7.02829e-06
-7.42578e-06
-7.83977e-06
-8.26768e-06
-8.7068e-06
-1.21617e-06
-1.35367e-06
-1.48262e-06
-1.60293e-06
-1.71469e-06
-1.8182e-06
-1.91379e-06
-2.00175e-06
-2.08239e-06
-2.15611e-06
-2.22343e-06
-2.285e-06
-2.34158e-06
-2.39424e-06
-2.44424e-06
-2.49334e-06
-2.54371e-06
-2.59646e-06
-2.65623e-06
-2.72566e-06
-2.81172e-06
-2.92261e-06
-3.05867e-06
-3.21168e-06
-3.37782e-06
-3.55509e-06
-3.74078e-06
-3.93293e-06
-4.13015e-06
-4.33274e-06
-4.54342e-06
-4.76141e-06
-4.98499e-06
-5.22606e-06
-5.48929e-06
-5.76812e-06
-6.06165e-06
-6.37166e-06
-6.70004e-06
-7.04656e-06
-7.40998e-06
-7.78889e-06
-8.18179e-06
-8.587e-06
-9.00276e-06
-1.00826e-06
-1.18076e-06
-1.3438e-06
-1.49755e-06
-1.6424e-06
-1.77872e-06
-1.90682e-06
-2.02693e-06
-2.13926e-06
-2.24412e-06
-2.34197e-06
-2.43331e-06
-2.51884e-06
-2.59924e-06
-2.67549e-06
-2.7486e-06
-2.8198e-06
-2.89244e-06
-2.96764e-06
-3.05002e-06
-3.14282e-06
-3.25165e-06
-3.37918e-06
-3.51957e-06
-3.67029e-06
-3.83286e-06
-4.0069e-06
-4.19042e-06
-4.38089e-06
-4.5752e-06
-4.77882e-06
-5.00142e-06
-5.23879e-06
-5.48697e-06
-5.74778e-06
-6.02204e-06
-6.31099e-06
-6.61575e-06
-6.93661e-06
-7.27319e-06
-7.62471e-06
-7.99026e-06
-8.3688e-06
-8.75915e-06
-9.16006e-06
-8.75044e-07
-1.07596e-06
-1.26663e-06
-1.44736e-06
-1.61852e-06
-1.78036e-06
-1.93311e-06
-2.07695e-06
-2.21211e-06
-2.33889e-06
-2.4577e-06
-2.56894e-06
-2.67322e-06
-2.77116e-06
-2.86343e-06
-2.95112e-06
-3.03532e-06
-3.11835e-06
-3.20211e-06
-3.28931e-06
-3.38366e-06
-3.48962e-06
-3.60905e-06
-3.73971e-06
-3.88085e-06
-4.03193e-06
-4.19266e-06
-4.36369e-06
-4.54565e-06
-4.7396e-06
-4.94614e-06
-5.1651e-06
-5.39603e-06
-5.63939e-06
-5.89636e-06
-6.16771e-06
-6.45381e-06
-6.75478e-06
-7.07057e-06
-7.40094e-06
-7.74543e-06
-8.10341e-06
-8.47416e-06
-8.85685e-06
-9.25052e-06
-7.81689e-07
-1.00593e-06
-1.21908e-06
-1.42138e-06
-1.61307e-06
-1.79438e-06
-1.9655e-06
-2.12664e-06
-2.27807e-06
-2.42008e-06
-2.55304e-06
-2.6774e-06
-2.79365e-06
-2.90242e-06
-3.00453e-06
-3.10089e-06
-3.19285e-06
-3.28197e-06
-3.37002e-06
-3.45966e-06
-3.55435e-06
-3.65845e-06
-3.77331e-06
-3.89663e-06
-4.02841e-06
-4.17033e-06
-4.32385e-06
-4.48925e-06
-4.66595e-06
-4.85389e-06
-5.05373e-06
-5.26636e-06
-5.4925e-06
-5.73249e-06
-5.98659e-06
-6.25507e-06
-6.5381e-06
-6.83575e-06
-7.14799e-06
-7.47459e-06
-7.81518e-06
-8.16931e-06
-8.53642e-06
-8.91585e-06
-9.30681e-06
-7.11198e-07
-9.54338e-07
-1.18535e-06
-1.4044e-06
-1.61174e-06
-1.8076e-06
-1.99221e-06
-2.1658e-06
-2.32866e-06
-2.48107e-06
-2.62347e-06
-2.7564e-06
-2.88034e-06
-2.99601e-06
-3.10423e-06
-3.20595e-06
-3.3024e-06
-3.39502e-06
-3.48578e-06
-3.5771e-06
-3.67226e-06
-3.77518e-06
-3.88647e-06
-4.00485e-06
-4.13167e-06
-4.26855e-06
-4.41619e-06
-4.57495e-06
-4.7452e-06
-4.9276e-06
-5.12289e-06
-5.33162e-06
-5.55423e-06
-5.79105e-06
-6.04235e-06
-6.3083e-06
-6.58903e-06
-6.88458e-06
-7.19488e-06
-7.51976e-06
-7.85894e-06
-8.21206e-06
-8.5786e-06
-8.95796e-06
-9.34948e-06
-6.53925e-07
-9.12019e-07
-1.15695e-06
-1.38892e-06
-1.60816e-06
-1.81494e-06
-2.00948e-06
-2.19206e-06
-2.36301e-06
-2.52266e-06
-2.67151e-06
-2.81007e-06
-2.93911e-06
-3.05923e-06
-3.1713e-06
-3.27634e-06
-3.37564e-06
-3.47069e-06
-3.56342e-06
-3.65611e-06
-3.75179e-06
-3.854e-06
-3.9634e-06
-4.0792e-06
-4.20265e-06
-4.33531e-06
-4.47832e-06
-4.63258e-06
-4.79876e-06
-4.97744e-06
-5.16923e-06
-5.37473e-06
-5.59442e-06
-5.82871e-06
-6.07786e-06
-6.34204e-06
-6.62138e-06
-6.9159e-06
-7.22557e-06
-7.55026e-06
-7.88973e-06
-8.24361e-06
-8.61145e-06
-8.9927e-06
-9.38677e-06
-6.05427e-07
-8.75393e-07
-1.13129e-06
-1.37331e-06
-1.60173e-06
-1.81678e-06
-2.01872e-06
-2.20786e-06
-2.38456e-06
-2.54929e-06
-2.70261e-06
-2.84511e-06
-2.97747e-06
-3.10048e-06
-3.21509e-06
-3.3224e-06
-3.42371e-06
-3.52054e-06
-3.6148e-06
-3.70866e-06
-3.80498e-06
-3.90703e-06
-4.01533e-06
-4.12937e-06
-4.25056e-06
-4.38062e-06
-4.52076e-06
-4.672e-06
-4.83511e-06
-5.01083e-06
-5.19986e-06
-5.40286e-06
-5.62036e-06
-5.85277e-06
-6.1004e-06
-6.36348e-06
-6.64215e-06
-6.93648e-06
-7.24643e-06
-7.5719e-06
-7.91267e-06
-8.26839e-06
-8.63868e-06
-9.02302e-06
-9.42085e-06
-5.64384e-07
-8.43891e-07
-1.10851e-06
-1.35845e-06
-1.59398e-06
-1.81535e-06
-2.02284e-06
-2.21682e-06
-2.39772e-06
-2.56608e-06
-2.72249e-06
-2.86763e-06
-3.00224e-06
-3.12721e-06
-3.24356e-06
-3.35243e-06
-3.45517e-06
-3.55332e-06
-3.64875e-06
-3.74359e-06
-3.84054e-06
-3.94252e-06
-4.05003e-06
-4.16297e-06
-4.2828e-06
-4.41109e-06
-4.54913e-06
-4.69803e-06
-4.85876e-06
-5.0322e-06
-5.21911e-06
-5.4202e-06
-5.63603e-06
-5.86707e-06
-6.11369e-06
-6.37617e-06
-6.65469e-06
-6.94934e-06
-7.26012e-06
-7.58694e-06
-7.92961e-06
-8.28784e-06
-8.66124e-06
-9.04934e-06
-9.45159e-06
-5.3054e-07
-8.17778e-07
-1.08939e-06
-1.34561e-06
-1.5867e-06
-1.81292e-06
-2.02461e-06
-2.22218e-06
-2.40615e-06
-2.57707e-06
-2.73561e-06
-2.88251e-06
-3.01862e-06
-3.14488e-06
-3.26236e-06
-3.37226e-06
-3.47598e-06
-3.57504e-06
-3.67133e-06
-3.76685e-06
-3.86422e-06
-3.96605e-06
-4.07289e-06
-4.185e-06
-4.30374e-06
-4.43061e-06
-4.56694e-06
-4.714e-06
-4.87287e-06
-5.04449e-06
-5.22969e-06
-5.42924e-06
-5.64375e-06
-5.87377e-06
-6.11971e-06
-6.3819e-06
-6.66057e-06
-6.95584e-06
-7.26775e-06
-7.59623e-06
-7.94114e-06
-8.3022e-06
-8.67903e-06
-9.07119e-06
-9.47813e-06
-5.03634e-07
-7.97188e-07
-1.07446e-06
-1.3357e-06
-1.58115e-06
-1.81112e-06
-2.02599e-06
-2.22622e-06
-2.41237e-06
-2.58507e-06
-2.745e-06
-2.89306e-06
-3.03009e-06
-3.15711e-06
-3.27524e-06
-3.38574e-06
-3.49002e-06
-3.58963e-06
-3.68641e-06
-3.78231e-06
-3.87982e-06
-3.9813e-06
-4.08739e-06
-4.19866e-06
-4.31636e-06
-4.44193e-06
-4.57681e-06
-4.72232e-06
-4.8796e-06
-5.04967e-06
-5.23342e-06
-5.43166e-06
-5.64508e-06
-5.87428e-06
-6.11972e-06
-6.38179e-06
-6.66076e-06
-6.95681e-06
-7.26999e-06
-7.60028e-06
-7.94755e-06
-8.31155e-06
-8.69193e-06
-9.08824e-06
-9.49993e-06
-4.83145e-07
-7.8191e-07
-1.0638e-06
-1.32906e-06
-1.57796e-06
-1.81082e-06
-2.02808e-06
-2.23025e-06
-2.41793e-06
-2.59179e-06
-2.75261e-06
-2.90131e-06
-3.0388e-06
-3.16615e-06
-3.28456e-06
-3.39528e-06
-3.49978e-06
-3.59959e-06
-3.69654e-06
-3.79249e-06
-3.88984e-06
-3.99073e-06
-4.09592e-06
-4.20624e-06
-4.32285e-06
-4.44718e-06
-4.58071e-06
-4.72481e-06
-4.88065e-06
-5.04931e-06
-5.23175e-06
-5.42882e-06
-5.64128e-06
-5.86977e-06
-6.11481e-06
-6.37685e-06
-6.65619e-06
-6.95306e-06
-7.26756e-06
-7.59968e-06
-7.94933e-06
-8.31627e-06
-8.70017e-06
-9.10058e-06
-9.51696e-06
-4.68326e-07
-7.71426e-07
-1.05711e-06
-1.32562e-06
-1.57724e-06
-1.81234e-06
-2.03139e-06
-2.23493e-06
-2.42363e-06
-2.5982e-06
-2.75949e-06
-2.90843e-06
-3.04604e-06
-3.17341e-06
-3.29176e-06
-3.40242e-06
-3.50684e-06
-3.60656e-06
-3.70338e-06
-3.7991e-06
-3.89603e-06
-3.9961e-06
-4.10024e-06
-4.20947e-06
-4.32492e-06
-4.448e-06
-4.58021e-06
-4.72295e-06
-4.87744e-06
-5.04478e-06
-5.22599e-06
-5.42198e-06
-5.63354e-06
-5.86138e-06
-6.10607e-06
-6.3681e-06
-6.64783e-06
-6.94552e-06
-7.2613e-06
-7.59522e-06
-7.94718e-06
-8.31697e-06
-8.70428e-06
-9.10866e-06
-9.52955e-06
-4.58309e-07
-7.6505e-07
-1.05387e-06
-1.32502e-06
-1.57881e-06
-1.81563e-06
-2.036e-06
-2.2405e-06
-2.42983e-06
-2.60477e-06
-2.76621e-06
-2.91512e-06
-3.05258e-06
-3.1797e-06
-3.29777e-06
-3.40812e-06
-3.51223e-06
-3.61163e-06
-3.70809e-06
-3.80334e-06
-3.89962e-06
-3.9987e-06
-4.10165e-06
-4.20969e-06
-4.3239e-06
-4.44569e-06
-4.57661e-06
-4.71802e-06
-4.87119e-06
-5.03726e-06
-5.2173e-06
-5.41225e-06
-5.62296e-06
-5.85018e-06
-6.09454e-06
-6.35656e-06
-6.63665e-06
-6.93511e-06
-7.25212e-06
-7.58773e-06
-7.94189e-06
-8.3144e-06
-8.70495e-06
-9.11309e-06
-9.53827e-06
-4.52215e-07
-7.62042e-07
-1.05348e-06
-1.3268e-06
-1.58232e-06
-1.82048e-06
-2.0418e-06
-2.24694e-06
-2.43662e-06
-2.61168e-06
-2.77303e-06
-2.9217e-06
-3.05879e-06
-3.18551e-06
-3.30311e-06
-3.41299e-06
-3.51661e-06
-3.61551e-06
-3.71143e-06
-3.80605e-06
-3.90151e-06
-3.99948e-06
-4.10114e-06
-4.20791e-06
-4.32082e-06
-4.44133e-06
-4.57094e-06
-4.71105e-06
-4.86294e-06
-5.02779e-06
-5.20669e-06
-5.40063e-06
-5.61052e-06
-5.83713e-06
-6.08114e-06
-6.34313e-06
-6.62354e-06
-6.92271e-06
-7.24085e-06
-7.57804e-06
-7.93425e-06
-8.30929e-06
-8.70287e-06
-9.11454e-06
-9.54374e-06
-4.49223e-07
-7.61688e-07
-1.05534e-06
-1.33045e-06
-1.58737e-06
-1.82656e-06
-2.04858e-06
-2.25412e-06
-2.44395e-06
-2.61893e-06
-2.78004e-06
-2.92833e-06
-3.06494e-06
-3.19111e-06
-3.30812e-06
-3.4174e-06
-3.52041e-06
-3.61869e-06
-3.71394e-06
-3.80781e-06
-3.90235e-06
-3.99912e-06
-4.09944e-06
-4.20489e-06
-4.31649e-06
-4.4357e-06
-4.56403e-06
-4.70286e-06
-4.8535e-06
-5.01716e-06
-5.19496e-06
-5.38793e-06
-5.597e-06
-5.82301e-06
-6.06668e-06
-6.3286e-06
-6.60928e-06
-6.90908e-06
-7.22824e-06
-7.56688e-06
-7.92497e-06
-8.30235e-06
-8.69873e-06
-9.11366e-06
-9.54658e-06
-4.4859e-07
-7.6333e-07
-1.05886e-06
-1.33547e-06
-1.59352e-06
-1.83352e-06
-2.05605e-06
-2.26182e-06
-2.45164e-06
-2.62643e-06
-2.78719e-06
-2.935e-06
-3.07105e-06
-3.19659e-06
-3.31293e-06
-3.42155e-06
-3.52387e-06
-3.62144e-06
-3.71595e-06
-3.80899e-06
-3.90256e-06
-3.99811e-06
-4.09708e-06
-4.20119e-06
-4.3115e-06
-4.42943e-06
-4.5565e-06
-4.69409e-06
-4.84353e-06
-5.00603e-06
-5.18277e-06
-5.3748e-06
-5.58308e-06
-5.8085e-06
-6.0518e-06
-6.31363e-06
-6.59452e-06
-6.89487e-06
-7.21494e-06
-7.55488e-06
-7.91468e-06
-8.29419e-06
-8.69312e-06
-9.11104e-06
-9.54738e-06
-4.49681e-07
-7.66386e-07
-1.06352e-06
-1.34139e-06
-1.60037e-06
-1.84099e-06
-2.06388e-06
-2.26976e-06
-2.45949e-06
-2.634e-06
-2.79434e-06
-2.94162e-06
-3.07706e-06
-3.20192e-06
-3.31759e-06
-3.42549e-06
-3.52709e-06
-3.62392e-06
-3.71765e-06
-3.80985e-06
-3.90243e-06
-3.99677e-06
-4.09439e-06
-4.19721e-06
-4.30625e-06
-4.42296e-06
-4.54882e-06
-4.68523e-06
-4.83351e-06
-4.99492e-06
-5.17064e-06
-5.36177e-06
-5.5693e-06
-5.79413e-06
-6.03706e-06
-6.29878e-06
-6.57982e-06
-6.88063e-06
-7.20151e-06
-7.5426e-06
-7.90392e-06
-8.28535e-06
-8.68659e-06
-9.10722e-06
-9.54664e-06
-4.52056e-07
-7.70482e-07
-1.06901e-06
-1.34794e-06
-1.60769e-06
-1.8488e-06
-2.07192e-06
-2.27783e-06
-2.46738e-06
-2.64156e-06
-2.80144e-06
-2.94816e-06
-3.08296e-06
-3.20713e-06
-3.32214e-06
-3.42929e-06
-3.53015e-06
-3.62624e-06
-3.71918e-06
-3.81052e-06
-3.90212e-06
-3.99526e-06
-4.09158e-06
-4.19312e-06
-4.30096e-06
-4.41649e-06
-4.54119e-06
-4.67646e-06
-4.82365e-06