/*--------------------------------*- C++ -*----------------------------------*\
| =========                 |                                                 |
| \\      /  F ield         | OpenFOAM: The Open Source CFD Toolbox           |
|  \\    /   O peration     | Version:  2312                                  |
|   \\  /    A nd           | Website:  www.openfoam.com                      |
|    \\/     M anipulation  |                                                 |
\*---------------------------------------------------------------------------*/
FoamFile
{
    version     2.0;
    format      ascii;
    arch        "LSB;label=32;scalar=64";
    class       surfaceScalarField;
    location    "142";
    object      phi;
}
// * * * * * * * * * * * * * * * * * * * * * * * * * * * * * * * * * * * * * //

dimensions      [0 3 -1 0 0 0 0];

oriented        oriented;

internalField   nonuniform List<scalar> 
9445
(
5.93633e-10
8.29654e-12
5.89717e-10
3.91588e-12
5.88377e-10
1.33968e-12
5.88707e-10
-3.29476e-13
5.90292e-10
-1.58551e-12
5.92721e-10
-2.42844e-12
5.95993e-10
-3.27234e-12
6.00209e-10
-4.21563e-12
6.05552e-10
-5.34279e-12
6.12442e-10
-6.89007e-12
6.22044e-10
-9.60259e-12
6.38029e-10
-1.59847e-11
6.73398e-10
-3.53695e-11
7.7418e-10
-1.00782e-10
-2.61042e-10
1.03522e-09
2.07712e-09
3.6838e-11
2.06295e-09
1.80943e-11
2.0573e-09
6.98042e-12
2.05722e-09
-2.49005e-13
2.06116e-09
-5.51985e-12
2.06796e-09
-9.22545e-12
2.07753e-09
-1.28516e-11
2.09006e-09
-1.67381e-11
2.10607e-09
-2.13581e-11
2.12683e-09
-2.76471e-11
2.1553e-09
-3.80741e-11
2.1986e-09
-5.92885e-11
2.27049e-09
-1.07258e-10
2.38421e-09
-2.14495e-10
-3.80323e-10
2.50349e-09
4.10551e-09
9.19649e-11
4.07709e-09
4.65225e-11
4.06462e-09
1.94463e-11
4.0626e-09
1.76866e-12
4.06794e-09
-1.08533e-11
4.07862e-09
-1.99074e-11
4.09444e-09
-2.86731e-11
4.11537e-09
-3.76738e-11
4.14212e-09
-4.81044e-11
4.17628e-09
-6.18095e-11
4.2209e-09
-8.2693e-11
4.28081e-09
-1.19193e-10
4.35882e-09
-1.85267e-10
4.44075e-09
-2.96431e-10
-4.286e-10
4.48903e-09
6.82714e-09
1.80546e-10
6.77983e-09
9.38413e-11
6.7573e-09
4.19755e-11
6.75112e-09
7.94592e-12
6.75622e-09
-1.59511e-11
6.76949e-09
-3.31845e-11
6.79054e-09
-4.9717e-11
6.81884e-09
-6.59741e-11
6.85474e-09
-8.4003e-11
6.89937e-09
-1.06441e-10
6.9541e-09
-1.37427e-10
7.01879e-09
-1.83877e-10
7.08686e-09
-2.53343e-10
7.1378e-09
-3.47372e-10
-4.39626e-10
7.14883e-09
1.04198e-08
3.08726e-10
1.0349e-08
1.64649e-10
1.03129e-08
7.80703e-11
1.02997e-08
2.11398e-11
1.03023e-08
-1.84725e-11
1.03162e-08
-4.71529e-11
1.03404e-08
-7.38994e-11
1.03737e-08
-9.92869e-11
1.04156e-08
-1.25869e-10
1.04659e-08
-1.56744e-10
1.05236e-08
-1.95088e-10
1.05842e-08
-2.44547e-10
1.06374e-08
-3.0656e-10
1.06661e-08
-3.75996e-10
-4.33603e-10
1.066e-08
1.50911e-08
4.79284e-10
1.49939e-08
2.61879e-10
1.49415e-08
1.30482e-10
1.49184e-08
4.42123e-11
1.49158e-08
-1.58575e-11
1.49283e-08
-5.9655e-11
1.49528e-08
-9.83789e-11
1.49876e-08
-1.34106e-10
1.50311e-08
-1.69339e-10
1.50814e-08
-2.07051e-10
1.51352e-08
-2.48963e-10
1.51863e-08
-2.95654e-10
1.52248e-08
-3.45036e-10
1.52399e-08
-3.91039e-10
-4.22788e-10
1.5229e-08
2.10746e-08
6.87092e-10
2.09527e-08
3.83821e-10
2.0884e-08
1.99195e-10
2.08501e-08
7.81411e-11
2.08405e-08
-6.31434e-12
2.08493e-08
-6.83969e-11
2.08713e-08
-1.20452e-10
2.09039e-08
-1.66697e-10
2.09444e-08
-2.09784e-10
2.09893e-08
-2.52005e-10
2.10342e-08
-2.9389e-10
2.10729e-08
-3.34343e-10
2.10984e-08
-3.70495e-10
2.11055e-08
-3.981e-10
-4.12379e-10
2.1095e-08
2.8622e-08
9.12868e-10
2.84861e-08
5.19717e-10
2.8407e-08
2.7823e-10
2.83655e-08
1.19671e-10
2.83502e-08
8.97582e-12
2.83545e-08
-7.26612e-11
2.83725e-08
-1.38461e-10
2.84002e-08
-1.94455e-10
2.84341e-08
-2.43676e-10
2.847e-08
-2.87868e-10
2.85032e-08
-3.27075e-10
2.85289e-08
-3.60062e-10
2.85433e-08
-3.84886e-10
2.85449e-08
-3.99661e-10
-4.03164e-10
2.85356e-08
3.79921e-08
1.11777e-09
3.78666e-08
6.45244e-10
3.77929e-08
3.51906e-10
3.77541e-08
1.58485e-10
3.77396e-08
2.34775e-11
3.77429e-08
-7.59987e-11
3.77584e-08
-1.53877e-10
3.77813e-08
-2.17423e-10
3.78078e-08
-2.70186e-10
3.78338e-08
-3.13855e-10
3.78555e-08
-3.48763e-10
3.787e-08
-3.74524e-10
3.78757e-08
-3.90652e-10
3.78732e-08
-3.97138e-10
-3.94565e-10
3.78646e-08
4.94504e-08
1.24571e-09
4.93736e-08
7.22068e-10
4.93321e-08
3.93344e-10
4.93152e-08
1.75414e-10
4.93151e-08
2.35258e-11
4.93271e-08
-8.80033e-11
4.93465e-08
-1.73242e-10
4.93692e-08
-2.40115e-10
4.93918e-08
-2.92763e-10
4.94112e-08
-3.33289e-10
4.94252e-08
-3.6278e-10
4.94327e-08
-3.81971e-10
4.94337e-08
-3.91624e-10
4.94294e-08
-3.92872e-10
-3.87081e-10
4.94219e-08
6.32984e-08
1.24262e-09
6.33121e-08
7.08407e-10
6.3335e-08
3.70415e-10
6.33647e-08
1.45727e-10
6.3398e-08
-9.82199e-12
6.34336e-08
-1.23518e-10
6.34684e-08
-2.08034e-10
6.35001e-08
-2.71832e-10
6.35268e-08
-3.19525e-10
6.35473e-08
-3.538e-10
6.35611e-08
-3.76526e-10
6.35684e-08
-3.89306e-10
6.35704e-08
-3.93643e-10
6.35687e-08
-3.91174e-10
-3.83466e-10
6.35651e-08
7.9952e-08
1.09099e-09
8.00772e-08
5.83136e-10
8.01849e-08
2.62749e-10
8.02791e-08
5.15215e-11
8.03621e-08
-9.28107e-11
8.04346e-08
-1.95981e-10
8.04965e-08
-2.69973e-10
8.05479e-08
-3.23218e-10
8.05889e-08
-3.6051e-10
8.06201e-08
-3.85031e-10
8.06427e-08
-3.99131e-10
8.06582e-08
-4.0482e-10
8.06684e-08
-4.03838e-10
8.06751e-08
-3.97857e-10
-3.8832e-10
8.06799e-08
1.00025e-07
8.30501e-10
1.00241e-07
3.67448e-10
1.00423e-07
8.10255e-11
1.00577e-07
-1.02536e-10
1.00708e-07
-2.24481e-10
1.00819e-07
-3.06716e-10
1.00911e-07
-3.62146e-10
1.00987e-07
-3.98643e-10
1.01047e-07
-4.21158e-10
1.01095e-07
-4.3307e-10
1.01133e-07
-4.36845e-10
1.01163e-07
-4.3448e-10
1.01187e-07
-4.27593e-10
1.01206e-07
-4.17617e-10
-4.05703e-10
1.01224e-07
1.24305e-07
5.31598e-10
1.24558e-07
1.14854e-10
1.24773e-07
-1.33907e-10
1.24958e-07
-2.8722e-10
1.25115e-07
-3.81535e-10
1.25247e-07
-4.39075e-10
1.25358e-07
-4.72694e-10
1.25449e-07
-4.90157e-10
1.25524e-07
-4.96463e-10
1.25586e-07
-4.94998e-10
1.25638e-07
-4.88098e-10
1.25681e-07
-4.77518e-10
1.25718e-07
-4.64577e-10
1.2575e-07
-4.50358e-10
-4.3567e-10
1.2578e-07
1.53552e-07
2.45789e-10
1.53794e-07
-1.26558e-10
1.54002e-07
-3.42393e-10
1.54181e-07
-4.65736e-10
1.54333e-07
-5.33918e-10
1.54462e-07
-5.6837e-10
1.54571e-07
-5.81745e-10
1.54663e-07
-5.81811e-10
1.5474e-07
-5.73615e-10
1.54805e-07
-5.60389e-10
1.54862e-07
-5.44221e-10
1.54911e-07
-5.26558e-10
1.54954e-07
-5.08395e-10
1.54995e-07
-4.90468e-10
-4.73255e-10
1.55032e-07
1.88258e-07
-1.07099e-11
1.88473e-07
-3.41405e-10
1.88653e-07
-5.22792e-10
1.88806e-07
-6.18803e-10
1.88936e-07
-6.63782e-10
1.89046e-07
-6.7849e-10
1.8914e-07
-6.7513e-10
1.89219e-07
-6.61322e-10
1.89287e-07
-6.41834e-10
1.89347e-07
-6.19667e-10
1.89399e-07
-5.96553e-10
1.89446e-07
-5.73647e-10
1.89489e-07
-5.5165e-10
1.8953e-07
-5.31021e-10
-5.1197e-10
1.89569e-07
2.28509e-07
-2.48435e-10
2.28695e-07
-5.27732e-10
2.28847e-07
-6.74583e-10
2.28972e-07
-7.43664e-10
2.29076e-07
-7.67835e-10
2.29163e-07
-7.65979e-10
2.29237e-07
-7.49368e-10
2.29301e-07
-7.25108e-10
2.29357e-07
-6.9749e-10
2.29406e-07
-6.69017e-10
2.29451e-07
-6.41168e-10
2.29492e-07
-6.14783e-10
2.29531e-07
-5.90267e-10
2.29567e-07
-5.67847e-10
-5.47559e-10
2.29603e-07
2.73821e-07
-4.67979e-10
2.73983e-07
-6.90594e-10
2.74109e-07
-8.00376e-10
2.7421e-07
-8.44602e-10
2.74292e-07
-8.49665e-10
2.7436e-07
-8.3379e-10
2.74417e-07
-8.06638e-10
2.74467e-07
-7.74657e-10
2.74511e-07
-7.41432e-10
2.7455e-07
-7.08732e-10
2.74587e-07
-6.77788e-10
2.74621e-07
-6.49127e-10
2.74654e-07
-6.22974e-10
2.74685e-07
-5.99379e-10
-5.78158e-10
2.74716e-07
3.22792e-07
-6.65065e-10
3.22929e-07
-8.27281e-10
3.23027e-07
-8.98536e-10
3.23101e-07
-9.18292e-10
3.23158e-07
-9.07275e-10
3.23205e-07
-8.80182e-10
3.23243e-07
-8.45135e-10
3.23276e-07
-8.07713e-10
3.23306e-07
-7.70771e-10
3.23332e-07
-7.35594e-10
3.23358e-07
-7.02904e-10
3.23381e-07
-6.72838e-10
3.23404e-07
-6.45437e-10
3.23425e-07
-6.20627e-10
-5.98274e-10
3.23445e-07
3.72402e-07
-7.96247e-10
3.72475e-07
-9.00867e-10
3.72517e-07
-9.3981e-10
3.72539e-07
-9.40572e-10
3.72551e-07
-9.19399e-10
3.72557e-07
-8.86505e-10
3.72563e-07
-8.50466e-10
3.72568e-07
-8.12697e-10
3.72572e-07
-7.75481e-10
3.72577e-07
-7.40225e-10
3.72582e-07
-7.07484e-10
3.72586e-07
-6.77559e-10
3.72591e-07
-6.50264e-10
3.72596e-07
-6.2528e-10
-6.02333e-10
3.726e-07
3.70221e-07
-8.74002e-10
3.70252e-07
-9.31894e-10
3.70258e-07
-9.4595e-10
3.7025e-07
-9.325e-10
3.70236e-07
-9.0581e-10
3.70221e-07
-8.71105e-10
3.70204e-07
-8.33467e-10
3.70187e-07
-7.95965e-10
3.70171e-07
-7.59795e-10
3.70157e-07
-7.25735e-10
3.70143e-07
-6.93764e-10
3.70129e-07
-6.64015e-10
3.70116e-07
-6.36294e-10
3.70101e-07
-6.10346e-10
-5.86173e-10
3.70084e-07
3.17035e-07
-8.83663e-10
3.17016e-07
-9.12723e-10
3.16982e-07
-9.12006e-10
3.16942e-07
-8.92406e-10
3.16899e-07
-8.63024e-10
3.16857e-07
-8.28937e-10
3.16816e-07
-7.93071e-10
3.16778e-07
-7.57607e-10
3.16742e-07
-7.23359e-10
3.16707e-07
-6.90721e-10
3.16673e-07
-6.59818e-10
3.16639e-07
-6.30584e-10
3.16606e-07
-6.02917e-10
3.16572e-07
-5.76604e-10
-5.51435e-10
3.16537e-07
2.65794e-07
-8.49027e-10
2.65741e-07
-8.59494e-10
2.65679e-07
-8.49722e-10
2.65614e-07
-8.2739e-10
2.65549e-07
-7.9858e-10
2.65487e-07
-7.66529e-10
2.65427e-07
-7.33812e-10
2.65371e-07
-7.01175e-10
2.65317e-07
-6.69466e-10
2.65265e-07
-6.38915e-10
2.65215e-07
-6.09563e-10
2.65166e-07
-5.81335e-10
2.65117e-07
-5.54051e-10
2.65068e-07
-5.27517e-10
-5.01555e-10
2.65018e-07
2.1912e-07
-7.77243e-10
2.19038e-07
-7.77521e-10
2.18953e-07
-7.64367e-10
2.18868e-07
-7.42546e-10
2.18786e-07
-7.16277e-10
2.18707e-07
-6.8776e-10
2.18632e-07
-6.58621e-10
2.1856e-07
-6.29416e-10
2.18491e-07
-6.00725e-10
2.18425e-07
-5.72724e-10
2.18361e-07
-5.45325e-10
2.18298e-07
-5.18532e-10
2.18236e-07
-4.92169e-10
2.18175e-07
-4.6611e-10
-4.40236e-10
2.18113e-07
1.78114e-07
-6.79288e-10
1.78012e-07
-6.75167e-10
1.77909e-07
-6.61711e-10
1.77809e-07
-6.42501e-10
1.77713e-07
-6.20199e-10
1.77621e-07
-5.96231e-10
1.77534e-07
-5.71533e-10
1.77451e-07
-5.46586e-10
1.77372e-07
-5.21697e-10
1.77297e-07
-4.96985e-10
1.77224e-07
-4.72441e-10
1.77153e-07
-4.48021e-10
1.77085e-07
-4.23618e-10
1.77018e-07
-3.99157e-10
-3.74551e-10
1.76952e-07
1.42992e-07
-5.66238e-10
1.42879e-07
-5.62471e-10
1.4277e-07
-5.51887e-10
1.42664e-07
-5.37081e-10
1.42564e-07
-5.19839e-10
1.42469e-07
-5.01145e-10
1.42379e-07
-4.81566e-10
1.42294e-07
-4.6146e-10
1.42213e-07
-4.41029e-10
1.42136e-07
-4.20365e-10
1.42063e-07
-3.99469e-10
1.41994e-07
-3.78305e-10
1.41927e-07
-3.56812e-10
1.41863e-07
-3.34946e-10
-3.12671e-10
1.41801e-07
1.13515e-07
-4.54314e-10
1.13406e-07
-4.52992e-10
1.133e-07
-4.46535e-10
1.132e-07
-4.36875e-10
1.13105e-07
-4.25125e-10
1.13016e-07
-4.11901e-10
1.12932e-07
-3.97575e-10
1.12853e-07
-3.82457e-10
1.12779e-07
-3.66703e-10
1.12709e-07
-3.50403e-10
1.12643e-07
-3.33557e-10
1.12581e-07
-3.16135e-10
1.12522e-07
-2.98116e-10
1.12466e-07
-2.79494e-10
-2.60265e-10
1.12414e-07
8.91923e-08
-3.54609e-10
8.90956e-08
-3.56293e-10
8.90031e-08
-3.54018e-10
8.89155e-08
-3.49206e-10
8.88328e-08
-3.42449e-10
8.8755e-08
-3.34144e-10
8.8682e-08
-3.24593e-10
8.86137e-08
-3.14067e-10
8.85497e-08
-3.02715e-10
8.84899e-08
-2.90607e-10
8.84341e-08
-2.7774e-10
8.8382e-08
-2.64092e-10
8.83336e-08
-2.49652e-10
8.82885e-08
-2.34458e-10
-2.18537e-10
8.82468e-08
6.94022e-08
-2.71884e-10
6.93219e-08
-2.76049e-10
6.9245e-08
-2.7715e-10
6.9172e-08
-2.76173e-10
6.91029e-08
-2.7337e-10
6.90378e-08
-2.69011e-10
6.89766e-08
-2.63377e-10
6.89192e-08
-2.56696e-10
6.88656e-08
-2.49099e-10
6.88156e-08
-2.40641e-10
6.87692e-08
-2.31308e-10
6.87262e-08
-2.2108e-10
6.86865e-08
-2.0996e-10
6.865e-08
-1.98003e-10
-1.85264e-10
6.86168e-08
5.34782e-08
-2.0582e-10
5.34136e-08
-2.11466e-10
5.33513e-08
-2.14812e-10
5.32916e-08
-2.1644e-10
5.32346e-08
-2.16393e-10
5.31805e-08
-2.14889e-10
5.31293e-08
-2.12174e-10
5.3081e-08
-2.08436e-10
5.30357e-08
-2.03781e-10
5.29933e-08
-1.98243e-10
5.29538e-08
-1.91805e-10
5.29172e-08
-1.84447e-10
5.28834e-08
-1.7618e-10
5.28524e-08
-1.67064e-10
-1.57165e-10
5.28243e-08
4.0778e-08
-1.53749e-10
4.07265e-08
-1.5989e-10
4.06761e-08
-1.64392e-10
4.06271e-08
-1.6747e-10
4.05798e-08
-1.69078e-10
4.05343e-08
-1.69409e-10
4.04908e-08
-1.68662e-10
4.04493e-08
-1.66987e-10
4.041e-08
-1.6446e-10
4.03729e-08
-1.61099e-10
4.03379e-08
-1.56886e-10
4.03053e-08
-1.51802e-10
4.0275e-08
-1.45858e-10
4.0247e-08
-1.39115e-10
-1.31634e-10
4.02215e-08
3.07233e-08
-1.12706e-10
3.0682e-08
-1.18587e-10
3.0641e-08
-1.2336e-10
3.06005e-08
-1.26962e-10
3.05608e-08
-1.29342e-10
3.0522e-08
-1.30665e-10
3.04845e-08
-1.31088e-10
3.04482e-08
-1.3072e-10
3.04133e-08
-1.29611e-10
3.038e-08
-1.27769e-10
3.03483e-08
-1.25174e-10
3.03183e-08
-1.2181e-10
3.02901e-08
-1.17689e-10
3.02639e-08
-1.12858e-10
-1.07372e-10
3.02396e-08
2.2816e-08
-8.03237e-11
2.27829e-08
-8.5464e-11
2.27494e-08
-8.988e-11
2.27158e-08
-9.33519e-11
2.26824e-08
-9.58656e-11
2.26492e-08
-9.75574e-11
2.26167e-08
-9.85392e-11
2.25849e-08
-9.88862e-11
2.25539e-08
-9.86316e-11
2.25239e-08
-9.77741e-11
2.2495e-08
-9.62962e-11
2.24674e-08
-9.41823e-11
2.24411e-08
-9.14422e-11
2.24164e-08
-8.8111e-11
-8.42306e-11
2.23932e-08
1.66384e-08
-5.49596e-11
1.66121e-08
-5.91133e-11
1.6585e-08
-6.2788e-11
1.65574e-08
-6.5733e-11
1.65295e-08
-6.79759e-11
1.65015e-08
-6.96179e-11
1.64737e-08
-7.07342e-11
1.64462e-08
-7.13744e-11
1.64191e-08
-7.15582e-11
1.63926e-08
-7.12809e-11
1.63669e-08
-7.05273e-11
1.6342e-08
-6.92835e-11
1.63181e-08
-6.75558e-11
1.62953e-08
-6.53663e-11
-6.27447e-11
1.62739e-08
1.18457e-08
-3.549e-11
1.18252e-08
-3.8589e-11
1.18037e-08
-4.13511e-11
1.17816e-08
-4.35861e-11
1.17589e-08
-4.5346e-11
1.1736e-08
-4.66982e-11
1.1713e-08
-4.76891e-11
1.169e-08
-4.83494e-11
1.16671e-08
-4.869e-11
1.16445e-08
-4.87058e-11
1.16224e-08
-4.83845e-11
1.16008e-08
-4.77144e-11
1.15799e-08
-4.66986e-11
1.15599e-08
-4.53485e-11
-4.36818e-11
1.15409e-08
8.15605e-09
-2.10722e-11
8.14063e-09
-2.31751e-11
8.12431e-09
-2.50232e-11
8.10725e-09
-2.6527e-11
8.08964e-09
-2.77409e-11
8.07165e-09
-2.87038e-11
8.0534e-09
-2.94415e-11
8.03502e-09
-2.99712e-11
8.01663e-09
-3.02987e-11
7.99835e-09
-3.04197e-11
7.98029e-09
-3.03255e-11
7.96258e-09
-3.00069e-11
7.94534e-09
-2.94649e-11
7.9287e-09
-2.87035e-11
-2.77298e-11
7.91275e-09
5.34077e-09
-1.09811e-11
5.32983e-09
-1.22334e-11
5.31809e-09
-1.32891e-11
5.30572e-09
-1.41524e-11
5.29284e-09
-1.48638e-11
5.27958e-09
-1.54415e-11
5.26604e-09
-1.58975e-11
5.25231e-09
-1.62401e-11
5.23848e-09
-1.64721e-11
5.22465e-09
-1.65906e-11
5.21091e-09
-1.65904e-11
5.19737e-09
-1.64652e-11
5.18412e-09
-1.6215e-11
5.17126e-09
-1.58398e-11
-1.53385e-11
5.15887e-09
3.21511e-09
-4.53529e-12
3.20802e-09
-5.13752e-12
3.20033e-09
-5.60009e-12
3.19216e-09
-5.98175e-12
3.1836e-09
-6.30294e-12
3.17473e-09
-6.56904e-12
3.16561e-09
-6.7839e-12
3.15632e-09
-6.95034e-12
3.14692e-09
-7.06929e-12
3.13747e-09
-7.13931e-12
3.12804e-09
-7.15806e-12
3.11869e-09
-7.12217e-12
3.10951e-09
-7.03138e-12
3.10055e-09
-6.88435e-12
-6.67614e-12
3.09189e-09
1.63058e-09
-1.08174e-12
1.62671e-09
-1.26358e-12
1.62248e-09
-1.37068e-12
1.61796e-09
-1.46232e-12
1.6132e-09
-1.54239e-12
1.60824e-09
-1.61045e-12
1.60312e-09
-1.66652e-12
1.59788e-09
-1.71079e-12
1.59255e-09
-1.74331e-12
1.58718e-09
-1.76365e-12
1.58179e-09
-1.7713e-12
1.57644e-09
-1.76523e-12
1.57115e-09
-1.74541e-12
1.56598e-09
-1.7108e-12
-1.65705e-12
1.56096e-09
4.68288e-10
4.67025e-10
4.65654e-10
4.64192e-10
4.62649e-10
4.61039e-10
4.59372e-10
4.57662e-10
4.55918e-10
4.54155e-10
4.52383e-10
4.50618e-10
4.48873e-10
4.47162e-10
4.45505e-10
1.23935e-09
-4.98181e-10
2.94049e-10
1.53235e-09
-4.21165e-10
1.28173e-10
1.8284e-09
-2.7792e-10
-1.81393e-11
2.12056e-09
-1.34994e-10
-1.57161e-10
2.40654e-09
7.18783e-13
-2.86704e-10
2.68685e-09
1.19457e-10
-3.99763e-10
2.96248e-09
2.17976e-10
-4.93604e-10
3.23425e-09
2.93034e-10
-5.64807e-10
3.50289e-09
3.41119e-10
-6.09753e-10
3.76888e-09
3.58998e-10
-6.24994e-10
4.03261e-09
3.43229e-10
-6.06958e-10
4.2943e-09
2.9052e-10
-5.52211e-10
4.55405e-09
1.98273e-10
-4.58019e-10
4.81188e-09
6.57128e-11
-3.23547e-10
5.06794e-09
-1.04187e-10
-1.51868e-10
5.3228e-09
-3.00684e-10
4.58191e-11
5.57801e-09
-5.01858e-10
2.46645e-10
5.83696e-09
-6.66793e-10
4.07844e-10
6.10569e-09
-7.36356e-10
4.67626e-10
6.39355e-09
-6.27171e-10
3.3931e-10
6.71205e-09
-2.61205e-10
-5.72878e-11
7.07055e-09
4.06291e-10
-7.64793e-10
7.41182e-09
1.05377e-09
-1.39504e-09
7.70338e-09
1.33708e-09
-1.62865e-09
7.93843e-09
1.30708e-09
-1.54213e-09
8.11589e-09
1.04942e-09
-1.22688e-09
8.23753e-09
6.49823e-10
-7.71465e-10
8.30565e-09
1.70516e-10
-2.38637e-10
8.32202e-09
-3.42966e-10
3.266e-10
8.28768e-09
-8.51202e-10
8.85537e-10
8.20354e-09
-1.31824e-09
1.40239e-09
8.07091e-09
-1.7109e-09
1.84352e-09
7.89194e-09
-2.00057e-09
2.17955e-09
7.66956e-09
-2.16561e-09
2.38799e-09
7.40728e-09
-2.19256e-09
2.45484e-09
7.10872e-09
-2.07579e-09
2.37435e-09
6.77729e-09
-1.81564e-09
2.14707e-09
6.41606e-09
-1.41515e-09
1.77638e-09
6.02811e-09
-8.75758e-10
1.26371e-09
5.61628e-09
-1.93895e-10
6.05726e-10
5.18029e-09
6.33973e-10
-1.97989e-10
4.71091e-09
1.58721e-09
-1.11782e-09
4.18762e-09
2.55406e-09
-2.03076e-09
3.61378e-09
3.26722e-09
-2.69339e-09
3.0062e-09
3.27234e-09
-2.66476e-09
2.5848e-09
-5.79498e-10
2.76007e-09
-5.96433e-10
2.99838e-09
-5.16229e-10
3.26483e-09
-4.01436e-10
3.54466e-09
-2.7912e-10
3.82978e-09
-1.65661e-10
4.11667e-09
-6.89144e-11
4.40359e-09
6.11046e-12
4.68983e-09
5.48808e-11
4.97496e-09
7.38701e-11
5.25875e-09
5.94363e-11
5.541e-09
8.27281e-12
5.82144e-09
-8.21713e-11
6.09982e-09
-2.12666e-10
6.37599e-09
-3.80352e-10
6.65028e-09
-5.74977e-10
6.92405e-09
-7.75623e-10
7.2006e-09
-9.43345e-10
7.48613e-09
-1.02189e-09
7.79052e-09
-9.31558e-10
8.12627e-09
-5.96954e-10
8.5043e-09
2.82586e-11
8.86595e-09
6.92118e-10
9.17737e-09
1.02566e-09
9.43087e-09
1.05358e-09
9.62456e-09
8.55729e-10
9.75963e-09
5.14757e-10
9.83791e-09
9.22316e-11
9.86096e-09
-3.66011e-10
9.82978e-09
-8.20026e-10
9.74544e-09
-1.2339e-09
9.60967e-09
-1.57512e-09
9.42525e-09
-1.81615e-09
9.19607e-09
-1.93643e-09
8.92693e-09
-1.92342e-09
8.62323e-09
-1.7721e-09
8.29088e-09
-1.48329e-09
7.93662e-09
-1.06089e-09
7.56934e-09
-5.08482e-10
7.20218e-09
1.7326e-10
6.85417e-09
9.81988e-10
6.55047e-09
1.89091e-09
6.32216e-09
2.78236e-09
6.21432e-09
3.37506e-09
3.09108e-09
6.12945e-09
4.50582e-09
-5.96289e-10
4.58491e-09
-6.75519e-10
4.73845e-09
-6.69777e-10
4.94812e-09
-6.11107e-10
5.19314e-09
-5.2414e-10
5.45976e-09
-4.32272e-10
5.7394e-09
-3.48561e-10
6.02688e-09
-2.81368e-10
6.31899e-09
-2.37226e-10
6.6137e-09
-2.20841e-10
6.90962e-09
-2.36488e-10
7.2057e-09
-2.878e-10
7.50099e-09
-3.77465e-10
7.79469e-09
-5.06366e-10
8.08617e-09
-6.71833e-10
8.37534e-09
-8.64143e-10
8.66317e-09
-1.06345e-09
8.95273e-09
-1.23291e-09
9.25021e-09
-1.31937e-09
9.56586e-09
-1.2472e-09
9.91311e-09
-9.44211e-10
1.03045e-08
-3.63156e-10
1.06813e-08
3.15319e-10
1.10087e-08
6.9825e-10
1.12781e-08
7.84259e-10
1.14864e-08
6.47367e-10
1.16342e-08
3.6702e-10
1.17225e-08
3.91806e-12
1.17526e-08
-3.96106e-10
1.17254e-08
-7.92829e-10
1.16421e-08
-1.15066e-09
1.15051e-08
-1.43808e-09
1.13178e-08
-1.6289e-09
1.10854e-08
-1.70403e-09
1.08143e-08
-1.65227e-09
1.0512e-08
-1.46979e-09
1.01874e-08
-1.15876e-09
9.85174e-09
-7.25186e-10
9.52014e-09
-1.76879e-10
9.21562e-09
4.7778e-10
8.9729e-09
1.22471e-09
8.83767e-09
2.02614e-09
8.8492e-09
2.77083e-09
8.99387e-09
3.2304e-09
3.01963e-09
9.06531e-09
7.12994e-09
-5.774e-10
7.14499e-09
-6.90563e-10
7.21605e-09
-7.40839e-10
7.34904e-09
-7.44104e-10
7.5343e-09
-7.09396e-10
7.75679e-09
-6.54767e-10
8.00581e-09
-5.97573e-10
8.27337e-09
-5.48928e-10
8.55379e-09
-5.17647e-10
8.84295e-09
-5.10003e-10
9.13788e-09
-5.31421e-10
9.43625e-09
-5.86167e-10
9.7361e-09
-6.77319e-10
1.00358e-08
-8.06044e-10
1.03339e-08
-9.69983e-10
1.06298e-08
-1.16e-09
1.09237e-08
-1.35742e-09
1.12184e-08
-1.5276e-09
1.15198e-08
-1.62073e-09
1.18383e-08
-1.56568e-09
1.21881e-08
-1.29402e-09
1.25834e-08
-7.58478e-10
1.29671e-08
-6.8368e-11
1.33041e-08
3.61267e-10
1.35845e-08
5.03847e-10
1.38042e-08
4.27628e-10
1.39626e-08
2.08712e-10
1.40597e-08
-9.32799e-11
1.40966e-08
-4.32918e-10
1.40738e-08
-7.7003e-10
1.39928e-08
-1.06971e-09
1.38565e-08
-1.3018e-09
1.36695e-08
-1.44187e-09
1.34382e-08
-1.47268e-09
1.31707e-08
-1.38485e-09
1.28773e-08
-1.17637e-09
1.25701e-08
-8.51519e-10
1.22643e-08
-4.19442e-10
1.19807e-08
1.06737e-10
1.17484e-08
7.10048e-10
1.16082e-08
1.36492e-09
1.16074e-08
2.02694e-09
1.17736e-08
2.60468e-09
1.20621e-08
2.94184e-09
2.8348e-09
1.2247e-08
1.06272e-08
-5.44565e-10
1.06035e-08
-6.66844e-10
1.06141e-08
-7.51493e-10
1.06706e-08
-8.00567e-10
1.07815e-08
-8.20251e-10
1.09392e-08
-8.12481e-10
1.11342e-08
-7.92625e-10
1.13585e-08
-7.73246e-10
1.16052e-08
-7.64347e-10
1.18685e-08
-7.73302e-10
1.21439e-08
-8.06829e-10
1.24277e-08
-8.69908e-10
1.27166e-08
-9.66202e-10
1.30078e-08
-1.09732e-09
1.32992e-08
-1.26132e-09
1.35889e-08
-1.44974e-09
1.38767e-08
-1.64516e-09
1.41643e-08
-1.81527e-09
1.44574e-08
-1.91379e-09
1.47662e-08
-1.87449e-09
1.51055e-08
-1.63334e-09
1.5491e-08
-1.14397e-09
1.58694e-08
-4.46768e-10
1.62062e-08
2.4533e-11
1.649e-08
2.20005e-10
1.67154e-08
2.02261e-10
1.68801e-08
4.39437e-11
1.69835e-08
-1.96632e-10
1.70255e-08
-4.74949e-10
1.70068e-08
-7.51274e-10
1.69289e-08
-9.91824e-10
1.67953e-08
-1.16827e-09
1.66118e-08
-1.25835e-09
1.63862e-08
-1.2471e-09
1.61288e-08
-1.12743e-09
1.58521e-08
-8.99643e-10
1.55713e-08
-5.70703e-10
1.53051e-08
-1.53267e-10
1.50771e-08
3.34724e-10
1.49178e-08
8.69327e-10
1.48643e-08
1.4185e-09
1.49529e-08
1.93825e-09
1.51951e-08
2.3625e-09
1.55369e-08
2.60009e-09
2.56103e-09
1.58107e-08
1.51954e-08
-5.10896e-10
1.51541e-08
-6.25561e-10
1.51283e-08
-7.25685e-10
1.513e-08
-8.02233e-10
1.51705e-08
-8.60824e-10
1.52539e-08
-8.9588e-10
1.538e-08
-9.18703e-10
1.55412e-08
-9.34453e-10
1.57323e-08
-9.55404e-10
1.59472e-08
-9.88229e-10
1.6181e-08
-1.04059e-09
1.64287e-08
-1.11765e-09
1.66861e-08
-1.22365e-09
1.69495e-08
-1.36065e-09
1.72153e-08
-1.52716e-09
1.74809e-08
-1.71536e-09
1.7745e-08
-1.9092e-09
1.80085e-08
-2.07875e-09
1.82761e-08
-2.18144e-09
1.85579e-08
-2.15629e-09
1.88688e-08
-1.94427e-09
1.92258e-08
-1.5009e-09
1.9582e-08
-8.0306e-10
1.99046e-08
-2.98007e-10
2.01805e-08
-5.59527e-11
2.04026e-08
-1.97925e-11
2.0567e-08
-1.20437e-10
2.06715e-08
-3.01124e-10
2.07154e-08
-5.18877e-10
2.0699e-08
-7.34833e-10
2.0624e-08
-9.16843e-10
2.04946e-08
-1.0389e-09
2.03176e-08
-1.08134e-09
2.01024e-08
-1.03191e-09
1.98611e-08
-8.86124e-10
1.96084e-08
-6.46922e-10
1.93617e-08
-3.23982e-10
1.91415e-08
6.6869e-11
1.89716e-08
5.04665e-10
1.88789e-08
9.61971e-10
1.88911e-08
1.40636e-09
1.90291e-08
1.80018e-09
1.92913e-08
2.10037e-09
1.96299e-08
2.26148e-09
2.25082e-09
1.99401e-08
2.10667e-08
-4.82525e-10
2.10246e-08
-5.83539e-10
2.09819e-08
-6.82935e-10
2.09524e-08
-7.72737e-10
2.09442e-08
-8.52572e-10
2.09654e-08
-9.1711e-10
2.10208e-08
-9.74166e-10
2.11107e-08
-1.02432e-09
2.1232e-08
-1.07669e-09
2.13803e-08
-1.13653e-09
2.15518e-08
-1.21213e-09
2.17416e-08
-1.30744e-09
2.19451e-08
-1.42711e-09
2.21578e-08
-1.57333e-09
2.23755e-08
-1.74489e-09
2.25946e-08
-1.93449e-09
2.28128e-08
-2.1274e-09
2.30301e-08
-2.29606e-09
2.32504e-08
-2.4017e-09
2.3483e-08
-2.38884e-09
2.37426e-08
-2.20397e-09
2.40471e-08
-1.80533e-09
2.43595e-08
-1.11548e-09
2.46493e-08
-5.87855e-10
2.49019e-08
-3.08527e-10
2.51079e-08
-2.25771e-10
2.52616e-08
-2.74151e-10
2.53592e-08
-3.98729e-10
2.53992e-08
-5.58837e-10
2.53812e-08
-7.16903e-10
2.53074e-08
-8.42959e-10
2.51823e-08
-9.1383e-10
2.50138e-08
-9.12885e-10
2.48128e-08
-8.30837e-10
2.45927e-08
-6.66009e-10
2.43696e-08
-4.2391e-10
2.41622e-08
-1.16566e-10
2.39905e-08
2.38644e-10
2.38759e-08
6.19225e-10
2.3839e-08
9.98841e-10
2.38964e-08
1.34901e-09
2.40553e-08
1.64128e-09
2.43056e-08
1.85005e-09
2.4611e-08
1.95611e-09
1.95242e-09
2.49094e-08
2.85134e-08
-4.60293e-10
2.84777e-08
-5.47826e-10
2.84344e-08
-6.39603e-10
2.83921e-08
-7.30435e-10
2.83573e-08
-8.17757e-10
2.83391e-08
-8.98913e-10
2.83413e-08
-9.7644e-10
2.83681e-08
-1.05109e-09
2.84201e-08
-1.12873e-09
2.84961e-08
-1.2125e-09
2.85944e-08
-1.3104e-09
2.87108e-08
-1.42387e-09
2.88419e-08
-1.55818e-09
2.89833e-08
-1.71477e-09
2.91307e-08
-1.89234e-09
2.92801e-08
-2.08385e-09
2.94285e-08
-2.27578e-09
2.95751e-08
-2.44269e-09
2.9723e-08
-2.54959e-09
2.98807e-08
-2.54657e-09
3.00628e-08
-2.38597e-09
3.02868e-08
-2.02936e-09
3.05294e-08
-1.35813e-09
3.0764e-08
-8.22402e-10
3.09736e-08
-5.18176e-10
3.11469e-08
-3.99001e-10
3.12759e-08
-4.03181e-10
3.13551e-08
-4.77936e-10
3.13821e-08
-5.85867e-10
3.13562e-08
-6.90986e-10
3.12793e-08
-7.66064e-10
3.11567e-08
-7.91247e-10
3.09971e-08
-7.53228e-10
3.08121e-08
-6.45823e-10
3.06161e-08
-4.70052e-10
3.04257e-08
-2.33543e-10
3.02591e-08
5.00905e-11
3.01339e-08
3.63781e-10
3.00676e-08
6.85558e-10
3.00734e-08
9.93059e-10
3.01584e-08
1.264e-09
3.03206e-08
1.47908e-09
3.05462e-08
1.62446e-09
3.08083e-08
1.69399e-09
1.69049e-09
3.10702e-08
3.78469e-08
-4.42599e-10
3.78181e-08
-5.18989e-10
3.77802e-08
-6.01709e-10
3.77375e-08
-6.8772e-10
3.76945e-08
-7.74808e-10
3.7657e-08
-8.61397e-10
3.76286e-08
-9.48023e-10
3.76133e-08
-1.03576e-09
3.76128e-08
-1.12829e-09
3.76273e-08
-1.227e-09
3.76563e-08
-1.33934e-09
3.76986e-08
-1.46622e-09
3.77515e-08
-1.611e-09
3.78112e-08
-1.77455e-09
3.78743e-08
-1.95537e-09
3.79367e-08
-2.14629e-09
3.79957e-08
-2.33475e-09
3.80502e-08
-2.49717e-09
3.81026e-08
-2.60204e-09
3.8161e-08
-2.60497e-09
3.82392e-08
-2.46421e-09
3.83547e-08
-2.14484e-09
3.85006e-08
-1.50396e-09
3.86552e-08
-9.77087e-10
3.87999e-08
-6.62878e-10
3.89209e-08
-5.19977e-10
3.90082e-08
-4.90465e-10
3.90543e-08
-5.24057e-10
3.90564e-08
-5.87965e-10
3.90131e-08
-6.47695e-10
3.89264e-08
-6.79361e-10
3.8802e-08
-6.66782e-10
3.86488e-08
-6.0009e-10
3.84791e-08
-4.76079e-10
3.83071e-08
-2.98113e-10
3.81489e-08
-7.52591e-11
3.80199e-08
1.79042e-10
3.79354e-08
4.48266e-10
3.7907e-08
7.13932e-10
3.79418e-08
9.5832e-10
3.80402e-08
1.16562e-09
3.81953e-08
1.32392e-09
3.83931e-08
1.42666e-09
3.86136e-08
1.47348e-09
1.46982e-09
3.88343e-08
4.94079e-08
-4.28624e-10
4.93851e-08
-4.96152e-10
4.93538e-08
-5.70467e-10
4.93161e-08
-6.49969e-10
4.92745e-08
-7.33168e-10
4.9232e-08
-8.1898e-10
4.91914e-08
-9.07423e-10
4.9155e-08
-9.99365e-10
4.91236e-08
-1.0969e-09
4.90987e-08
-1.20208e-09
4.90785e-08
-1.31912e-09
4.90621e-08
-1.44985e-09
4.90477e-08
-1.59653e-09
4.90323e-08
-1.75917e-09
4.90128e-08
-1.93593e-09
4.8986e-08
-2.11943e-09
4.89493e-08
-2.29804e-09
4.89018e-08
-2.44974e-09
4.88461e-08
-2.54632e-09
4.87897e-08
-2.54858e-09
4.87461e-08
-2.42059e-09
4.8732e-08
-2.13075e-09
4.87589e-08
-1.5309e-09
4.88121e-08
-1.03025e-09
4.88713e-08
-7.22039e-10
4.89206e-08
-5.69333e-10
4.89485e-08
-5.18345e-10
4.89458e-08
-5.21377e-10
4.89093e-08
-5.5146e-10
4.88372e-08
-5.75593e-10
4.87317e-08
-5.73824e-10
4.85986e-08
-5.33661e-10
4.8447e-08
-4.48505e-10
4.82886e-08
-3.17731e-10
4.81369e-08
-1.4639e-10
4.80058e-08
5.58719e-11
4.79079e-08
2.76931e-10
4.78542e-08
5.01903e-10
4.78516e-08
7.16566e-10
4.79021e-08
9.07861e-10
4.80023e-08
1.06538e-09
4.81438e-08
1.18241e-09
4.8314e-08
1.25648e-09
4.84981e-08
1.28942e-09
1.28655e-09
4.86813e-08
6.35566e-08
-4.20081e-10
6.35409e-08
-4.80463e-10
6.35179e-08
-5.47416e-10
6.34881e-08
-6.20226e-10
6.3453e-08
-6.98029e-10
6.34141e-08
-7.80117e-10
6.3373e-08
-8.66352e-10
6.33309e-08
-9.57214e-10
6.3288e-08
-1.05398e-09
6.32442e-08
-1.15834e-09
6.31979e-08
-1.2728e-09
6.31471e-08
-1.39903e-09
6.30892e-08
-1.53863e-09
6.30209e-08
-1.69092e-09
6.2939e-08
-1.85398e-09
6.28398e-08
-2.02028e-09
6.27211e-08
-2.17928e-09
6.25819e-08
-2.3106e-09
6.24248e-08
-2.38921e-09
6.2257e-08
-2.38078e-09
6.20915e-08
-2.25504e-09
6.19443e-08
-1.9836e-09
6.18447e-08
-1.43128e-09
6.17855e-08
-9.70982e-10
6.17455e-08
-6.82071e-10
6.17086e-08
-5.32395e-10
6.16646e-08
-4.74363e-10
6.16024e-08
-4.59252e-10
6.15154e-08
-4.6441e-10
6.14036e-08
-4.63778e-10
6.127e-08
-4.40279e-10
6.11206e-08
-3.8425e-10
6.0964e-08
-2.91895e-10
6.08108e-08
-1.64551e-10
6.06727e-08
-8.26855e-12
6.05603e-08
1.68253e-10
6.04836e-08
3.53702e-10
6.04489e-08
5.36567e-10
6.04592e-08
7.06265e-10
6.05133e-08
8.53781e-10
6.0606e-08
9.72647e-10
6.0729e-08
1.0594e-09
6.08719e-08
1.11362e-09
6.10236e-08
1.13767e-09
1.13589e-09
6.11743e-08
8.06808e-08
-4.20906e-10
8.06757e-08
-4.75424e-10
8.06643e-08
-5.36001e-10
8.06465e-08
-6.0242e-10
8.06228e-08
-6.74277e-10
8.05938e-08
-7.51166e-10
8.05604e-08
-8.32923e-10
8.05229e-08
-9.19734e-10
8.04812e-08
-1.01229e-09
8.04344e-08
-1.11155e-09
8.03806e-08
-1.21899e-09
8.03171e-08
-1.33548e-09
8.02404e-08
-1.46194e-09
8.01464e-08
-1.59693e-09
8.00308e-08
-1.73845e-09
7.98894e-08
-1.87882e-09
7.97189e-08
-2.00879e-09
7.95179e-08
-2.10959e-09
7.92883e-08
-2.15958e-09
7.90364e-08
-2.12892e-09
7.87739e-08
-1.99259e-09
7.85166e-08
-1.72622e-09
7.83063e-08
-1.22102e-09
7.8143e-08
-8.07667e-10
7.80112e-08
-5.50237e-10
7.78914e-08
-4.12669e-10
7.77692e-08
-3.52143e-10
7.764e-08
-3.30022e-10
7.74981e-08
-3.22575e-10
7.73428e-08
-3.0844e-10
7.71769e-08
-2.7442e-10
7.70066e-08
-2.13919e-10
7.684e-08
-1.25297e-10
7.6686e-08
-1.05788e-11
7.65538e-08
1.23947e-10
7.64513e-08
2.70774e-10
7.63848e-08
4.20162e-10
7.63574e-08
5.64006e-10
7.6369e-08
6.94657e-10
7.64166e-08
8.06159e-10
7.64946e-08
8.94655e-10
7.65955e-08
9.58516e-10
7.6711e-08
9.98167e-10
7.68329e-08
1.01578e-09
1.01465e-09
7.69541e-08
1.01238e-07
-4.34776e-10
1.01247e-07
-4.84423e-10
1.0125e-07
-5.39488e-10
1.01248e-07
-5.99999e-10
1.01239e-07
-6.65828e-10
1.01225e-07
-7.36779e-10
1.01205e-07
-8.12709e-10
1.01179e-07
-8.93609e-10
1.01146e-07
-9.7973e-10
1.01106e-07
-1.07138e-09
1.01056e-07
-1.1692e-09
1.00994e-07
-1.27315e-09
1.00915e-07
-1.3834e-09
1.00816e-07
-1.49763e-09
1.00691e-07
-1.61365e-09
1.00536e-07
-1.72351e-09
1.00346e-07
-1.81907e-09
1.0012e-07
-1.88319e-09
9.98573e-08
-1.89729e-09
9.95644e-08
-1.83602e-09
9.92501e-08
-1.67827e-09
9.89288e-08
-1.40498e-09
9.8649e-08
-9.41163e-10
9.84151e-08
-5.7376e-10
9.82137e-08
-3.4881e-10
9.8028e-08
-2.27026e-10
9.78454e-08
-1.69578e-10