/*--------------------------------*- C++ -*----------------------------------*\
| =========                 |                                                 |
| \\      /  F ield         | OpenFOAM: The Open Source CFD Toolbox           |
|  \\    /   O peration     | Version:  2312                                  |
|   \\  /    A nd           | Website:  www.openfoam.com                      |
|    \\/     M anipulation  |                                                 |
\*---------------------------------------------------------------------------*/
FoamFile
{
    version     2.0;
    format      ascii;
    arch        "LSB;label=32;scalar=64";
    class       volVectorField;
    location    "4.5";
    object      U;
}
// * * * * * * * * * * * * * * * * * * * * * * * * * * * * * * * * * * * * * //

dimensions      [0 1 -1 0 0 0 0];

internalField   nonuniform List<vector> 
4800
(
(0.000462487 3.1181e-07 -2.67044e-26)
(0.000454861 3.4182e-07 -1.8772e-25)
(0.000450277 3.53153e-07 2.40932e-25)
(0.000447718 3.43589e-07 1.10229e-25)
(0.000446583 3.25886e-07 1.62815e-24)
(0.000446624 2.93502e-07 -3.87796e-24)
(0.000447584 2.54269e-07 3.63289e-24)
(0.000449377 1.77745e-07 -5.27453e-24)
(0.00045208 2.16913e-08 1.691e-24)
(0.000455876 -2.42879e-07 5.77192e-24)
(0.00046117 -7.54438e-07 -1.77863e-24)
(0.000469246 -2.15858e-06 -1.50567e-25)
(0.000487308 -7.32754e-06 -2.17074e-24)
(0.000533207 -2.81952e-05 1.01008e-24)
(0.000609093 -9.16602e-05 -8.0312e-25)
(0.00143008 1.62742e-06 -8.49629e-26)
(0.00140676 1.1756e-06 1.05896e-25)
(0.0013925 8.15277e-07 -9.76548e-25)
(0.00138428 4.88854e-07 7.29665e-25)
(0.00138029 1.72345e-07 2.34495e-24)
(0.00137976 -1.72328e-07 -3.7234e-24)
(0.00138183 -5.67093e-07 -1.06413e-24)
(0.0013863 -1.09309e-06 -2.55073e-25)
(0.00139339 -1.91939e-06 8.76338e-24)
(0.00140352 -3.24561e-06 -6.47552e-24)
(0.00141787 -5.71214e-06 7.04878e-25)
(0.0014392 -1.15603e-05 1.07533e-24)
(0.00147635 -2.84332e-05 -1.59092e-24)
(0.00154002 -7.97733e-05 -4.82164e-25)
(0.00160862 -0.000195403 2.0814e-24)
(0.00249965 5.23294e-06 -6.08282e-26)
(0.0024595 3.77414e-06 6.21548e-26)
(0.00243461 2.64108e-06 6.39212e-25)
(0.00241987 1.65722e-06 -1.5245e-24)
(0.00241228 6.80545e-07 1.49675e-24)
(0.00241039 -3.85171e-07 1.39575e-24)
(0.00241282 -1.61817e-06 -3.60687e-24)
(0.00241904 -3.2472e-06 -2.26383e-24)
(0.00242947 -5.63565e-06 5.43602e-24)
(0.00244436 -9.33054e-06 2.0509e-24)
(0.00246508 -1.58282e-05 -7.13054e-24)
(0.00249382 -2.91098e-05 -1.0825e-24)
(0.00253469 -5.86922e-05 3.04654e-24)
(0.0025865 -0.000123815 4.82316e-24)
(0.00262418 -0.000231979 -2.49209e-24)
(0.00367718 1.17106e-05 2.24877e-26)
(0.00361939 8.55309e-06 -1.56592e-25)
(0.00358302 6.10942e-06 6.9849e-25)
(0.00356094 4.00207e-06 7.48032e-25)
(0.00354893 1.92899e-06 -7.42566e-25)
(0.0035447 -3.25793e-07 -4.21999e-24)
(0.00354656 -2.82278e-06 -2.85821e-24)
(0.00355328 -6.1358e-06 1.09317e-23)
(0.00356548 -1.08771e-05 4.56056e-24)
(0.00358281 -1.78678e-05 -6.5485e-24)
(0.0036061 -2.92637e-05 -2.63887e-24)
(0.00363577 -4.95996e-05 -2.01422e-24)
(0.0036711 -8.68569e-05 6.01993e-26)
(0.00370493 -0.000150961 1.48993e-24)
(0.00371906 -0.000236896 7.28313e-27)
(0.00496653 2.16872e-05 -4.12709e-26)
(0.004891 1.60027e-05 -2.52427e-25)
(0.00484271 1.16116e-05 -1.59804e-25)
(0.00481263 7.84437e-06 4.31685e-25)
(0.00479542 4.19762e-06 -1.22862e-24)
(0.00478779 3.6612e-07 3.06644e-24)
(0.00478803 -4.0758e-06 -5.35066e-25)
(0.0047939 -9.42311e-06 1.88371e-24)
(0.00480595 -1.70125e-05 -1.05596e-23)
(0.0048231 -2.76282e-05 2.00459e-23)
(0.00484521 -4.35423e-05 -1.93971e-23)
(0.00487098 -6.84859e-05 1.02388e-23)
(0.00489706 -0.000107286 -9.50343e-24)
(0.00491579 -0.000162975 8.96583e-24)
(0.00491683 -0.000227965 -3.57541e-24)
(0.00636779 3.58679e-05 5.45293e-26)
(0.0062758 2.67473e-05 1.95223e-25)
(0.00621594 1.9708e-05 -1.03027e-24)
(0.00617769 1.36987e-05 -6.52811e-25)
(0.00615475 7.98289e-06 1.75055e-24)
(0.00614301 2.02261e-06 6.28692e-25)
(0.00614025 -4.58553e-06 -4.91395e-24)
(0.00614415 -1.25353e-05 1.17331e-23)
(0.00615409 -2.30715e-05 -1.52983e-23)
(0.00616866 -3.7092e-05 3.66714e-24)
(0.00618669 -5.64229e-05 1.11661e-23)
(0.00620592 -8.33457e-05 -1.5514e-23)
(0.00622251 -0.000119745 7.76896e-24)
(0.00623073 -0.000165081 7.96354e-24)
(0.00622587 -0.000213134 -6.06203e-24)
(0.00787519 5.47601e-05 4.50924e-26)
(0.00777023 4.13209e-05 -2.66725e-25)
(0.00770058 3.09328e-05 9.55399e-25)
(0.00765494 2.20968e-05 -1.3257e-24)
(0.00762637 1.38253e-05 -4.50775e-24)
(0.00761021 5.34421e-06 7.68536e-24)
(0.00760367 -3.82559e-06 -4.66955e-24)
(0.00760434 -1.45319e-05 1.59043e-23)
(0.00761071 -2.78843e-05 -1.08164e-23)
(0.00762094 -4.46955e-05 -5.05858e-24)
(0.00763324 -6.60832e-05 -9.95572e-24)
(0.00764513 -9.29508e-05 9.15309e-24)
(0.00765348 -0.000125282 2.57489e-24)
(0.00765481 -0.000161289 2.20257e-24)
(0.00764759 -0.00019681 -1.9381e-24)
(0.00947478 7.82685e-05 -6.49828e-26)
(0.00936352 5.98594e-05 8.82586e-25)
(0.00928802 4.55495e-05 -2.05494e-24)
(0.00923725 3.33916e-05 -1.684e-24)
(0.00920424 2.21501e-05 6.29317e-25)
(0.00918416 1.08657e-05 1.23978e-24)
(0.0091738 -1.0975e-06 4.4555e-24)
(0.00917061 -1.45085e-05 -1.21447e-23)
(0.0091726 -3.03285e-05 -6.48714e-24)
(0.00917768 -4.91052e-05 1.78409e-23)
(0.00918383 -7.12753e-05 -5.53248e-24)
(0.00918886 -9.67985e-05 1.89175e-23)
(0.00919067 -0.000124813 -9.95914e-24)
(0.00918741 -0.000153521 -3.17346e-24)
(0.00917909 -0.000180405 1.87887e-24)
(0.0111434 0.000105157 -8.58918e-27)
(0.0110361 8.16736e-05 4.87824e-25)
(0.0109613 6.32033e-05 -6.94675e-25)
(0.0109097 4.74643e-05 1.66572e-24)
(0.010875 3.30251e-05 -9.93682e-24)
(0.0108526 1.88142e-05 1.04929e-23)
(0.0108394 4.08995e-06 -1.65469e-23)
(0.0108328 -1.18093e-05 1.01704e-23)
(0.0108306 -2.95802e-05 7.5684e-24)
(0.0108308 -4.9481e-05 1.6436e-23)
(0.0108314 -7.14604e-05 -2.14671e-23)
(0.0108309 -9.50166e-05 -3.9705e-24)
(0.010828 -0.000119142 1.83333e-24)
(0.0108217 -0.000142488 1.3085e-23)
(0.0108127 -0.000163625 -5.32121e-24)
(0.0128514 0.000132537 4.6998e-26)
(0.0127608 0.000104764 -2.04618e-25)
(0.0126955 8.24786e-05 9.15592e-25)
(0.0126492 6.3319e-05 -3.212e-24)
(0.012617 4.57861e-05 4.87028e-24)
(0.0125954 2.87924e-05 -6.29079e-24)
(0.0125816 1.15899e-05 1.05343e-23)
(0.0125731 -6.3649e-06 1.84891e-24)
(0.012568 -2.54694e-05 -1.4525e-23)
(0.0125646 -4.57551e-05 2.06876e-23)
(0.0125614 -6.69217e-05 -2.2815e-23)
(0.0125571 -8.83656e-05 -6.71463e-24)
(0.0125513 -0.000109258 1.18435e-23)
(0.0125433 -0.00012874 3.51142e-24)
(0.012534 -0.000146055 -1.53363e-24)
(0.0145729 0.000156 1.86769e-25)
(0.0145099 0.000125676 -1.59011e-24)
(0.0144626 0.000100639 -2.56138e-24)
(0.0144281 7.87691e-05 6.0699e-24)
(0.0144036 5.86905e-05 2.71592e-24)
(0.0143866 3.94171e-05 -1.70585e-23)
(0.0143751 2.02994e-05 5.2541e-24)
(0.0143672 9.28948e-07 3.78474e-24)
(0.0143615 -1.88354e-05 -1.63706e-23)
(0.0143567 -3.88965e-05 1.7052e-23)
(0.0143518 -5.88993e-05 -1.36422e-23)
(0.0143459 -7.83349e-05 3.50436e-23)
(0.014339 -9.6636e-05 -1.68413e-23)
(0.0143307 -0.000113327 9.90965e-24)
(0.014322 -0.000128044 -2.70357e-24)
(0.016301 0.000171337 -6.87595e-26)
(0.0162688 0.00014051 1.0714e-24)
(0.0162434 0.00011421 -2.10641e-24)
(0.0162245 9.07646e-05 -1.07361e-24)
(0.0162111 6.90718e-05 1.19898e-23)
(0.0162017 4.83545e-05 -1.73917e-24)
(0.0161952 2.81304e-05 -2.13299e-23)
(0.0161905 8.15223e-06 2.48816e-23)
(0.0161865 -1.15857e-05 -5.59043e-24)
(0.0161826 -3.09269e-05 -1.93441e-23)
(0.0161781 -4.95702e-05 2.06319e-23)
(0.0161727 -6.7169e-05 1.11187e-23)
(0.0161665 -8.339e-05 -9.3546e-24)
(0.0161593 -9.80119e-05 -1.61908e-23)
(0.0161519 -0.000110894 1.35842e-24)
(0.0180554 0.000177589 -2.77159e-27)
(0.0180461 0.000147427 -1.18998e-24)
(0.0180388 0.000120989 5.70794e-24)
(0.0180338 9.69973e-05 3.70256e-25)
(0.0180309 7.464e-05 3.27543e-24)
(0.0180293 5.33759e-05 -1.17051e-23)
(0.0180284 3.28935e-05 1.00063e-23)
(0.0180277 1.30815e-05 2.28016e-24)
(0.0180267 -6.02277e-06 2.05788e-23)
(0.0180249 -2.42694e-05 -3.17915e-23)
(0.0180223 -4.14516e-05 -1.43871e-23)
(0.0180187 -5.73761e-05 -9.50505e-24)
(0.0180143 -7.18821e-05 1.78997e-23)
(0.018009 -8.49016e-05 -5.14565e-25)
(0.0180036 -9.64145e-05 1.73406e-24)
(0.0198624 0.000178085 -1.78273e-26)
(0.0198635 0.000148499 1.20899e-24)
(0.0198652 0.000122156 -1.76339e-24)
(0.0198677 9.80371e-05 -9.21364e-28)
(0.0198706 7.55381e-05 2.3635e-24)
(0.0198736 5.4293e-05 6.02876e-24)
(0.0198763 3.41123e-05 -2.33796e-23)
(0.0198783 1.49403e-05 1.9697e-24)
(0.0198794 -3.18638e-06 1.18922e-23)
(0.0198795 -2.01837e-05 -5.47645e-24)
(0.0198786 -3.59457e-05 1.49538e-23)
(0.0198767 -5.03976e-05 1.04653e-23)
(0.0198741 -6.34936e-05 -1.89901e-23)
(0.0198706 -7.52516e-05 1.29846e-23)
(0.019867 -8.57131e-05 -1.07944e-23)
(0.0217169 0.000176929 -5.28463e-25)
(0.0217202 0.000147609 2.80538e-25)
(0.0217239 0.000121234 2.09375e-24)
(0.0217279 9.7023e-05 -1.08973e-23)
(0.021732 7.45283e-05 9.60945e-24)
(0.0217357 5.3498e-05 -7.04608e-24)
(0.021739 3.38024e-05 5.04962e-24)
(0.0217413 1.53875e-05 -3.59194e-23)
(0.0217428 -1.75381e-06 5.18446e-23)
(0.0217433 -1.76129e-05 -3.05572e-23)
(0.0217429 -3.21749e-05 2.72972e-23)
(0.0217417 -4.5452e-05 2.28285e-23)
(0.02174 -5.74709e-05 -3.98826e-23)
(0.0217375 -6.8296e-05 1.2975e-23)
(0.021735 -7.79978e-05 -5.45083e-25)
(0.0235637 0.000175332 -1.87227e-26)
(0.023568 0.000146577 -1.51992e-25)
(0.0235718 0.00012042 1.13029e-25)
(0.0235754 9.63546e-05 -3.00215e-25)
(0.0235788 7.40846e-05 3.91301e-24)
(0.0235816 5.34407e-05 -6.73489e-24)
(0.0235839 3.43195e-05 6.27598e-24)
(0.0235855 1.66511e-05 -1.98987e-23)
(0.0235863 3.7806e-07 4.5314e-23)
(0.0235862 -1.45497e-05 -5.80443e-23)
(0.0235856 -2.81866e-05 4.7576e-23)
(0.0235843 -4.06006e-05 -1.60725e-23)
(0.0235826 -5.18598e-05 8.35577e-25)
(0.0235804 -6.20515e-05 3.68697e-24)
(0.0235781 -7.12579e-05 -7.07371e-24)
(0.0253115 0.000172233 -1.54952e-24)
(0.0253176 0.000144739 2.79893e-24)
(0.0253223 0.00011941 -9.51114e-25)
(0.025326 9.60185e-05 -1.50191e-24)
(0.025329 7.44063e-05 6.14873e-24)
(0.0253313 5.4464e-05 -6.26852e-24)
(0.025333 3.61036e-05 -5.67484e-24)
(0.0253339 1.92403e-05 -1.37364e-23)
(0.0253341 3.78826e-06 6.98971e-24)
(0.0253337 -1.0341e-05 3.3451e-23)
(0.0253327 -2.32404e-05 -1.76733e-23)
(0.0253312 -3.50042e-05 1.05498e-23)
(0.0253295 -4.57183e-05 -4.3418e-24)
(0.0253273 -5.54766e-05 -1.28762e-23)
(0.0253251 -6.43622e-05 6.59264e-24)
(0.0268449 0.000166558 5.0871e-25)
(0.0268531 0.000141039 -8.8419e-25)
(0.0268591 0.000117212 -2.74567e-25)
(0.0268634 9.50867e-05 -6.93126e-25)
(0.0268667 7.46191e-05 -1.83551e-24)
(0.026869 5.57439e-05 9.47942e-24)
(0.0268706 3.83839e-05 -7.64212e-24)
(0.0268714 2.2447e-05 -4.94378e-24)
(0.0268715 7.83692e-06 4.5276e-24)
(0.026871 -5.54835e-06 -5.35155e-24)
(0.0268701 -1.7807e-05 1.24703e-23)
(0.0268687 -2.90385e-05 6.33375e-24)
(0.026867 -3.93318e-05 -2.36402e-23)
(0.026865 -4.87771e-05 1.63382e-23)
(0.0268629 -5.745e-05 -3.33328e-24)
(0.0280148 0.000158113 1.503e-24)
(0.0280246 0.000135131 2.53992e-24)
(0.0280318 0.000113386 -5.65525e-24)
(0.0280369 9.30479e-05 -3.14675e-25)
(0.0280408 7.41612e-05 1.32171e-24)
(0.0280434 5.66924e-05 -2.86946e-24)
(0.0280452 4.05811e-05 -4.60596e-24)
(0.0280462 2.57343e-05 9.95195e-24)
(0.0280466 1.20624e-05 1.11513e-23)
(0.0280463 -5.40167e-07 -2.70906e-23)
(0.0280456 -1.21597e-05 1.56318e-23)
(0.0280444 -2.28893e-05 -1.09363e-24)
(0.0280431 -3.28092e-05 -9.1255e-25)
(0.0280414 -4.19973e-05 1.23114e-24)
(0.0280396 -5.05152e-05 -5.68276e-25)
(0.028619 0.000145499 -3.94085e-24)
(0.0286305 0.000125494 -8.48365e-24)
(0.0286391 0.000106313 4.5617e-24)
(0.0286456 8.82151e-05 1.54668e-23)
(0.0286504 7.12936e-05 -4.31852e-24)
(0.0286541 5.55458e-05 -1.21853e-24)
(0.0286567 4.09282e-05 5.67627e-25)
(0.0286584 2.73666e-05 -4.42399e-24)
(0.0286595 1.4786e-05 1.20269e-23)
(0.0286599 3.1012e-06 -5.32157e-24)
(0.0286597 -7.76018e-06 3.21142e-24)
(0.028659 -1.78758e-05 -5.07134e-24)
(0.0286578 -2.73068e-05 -5.82021e-24)
(0.0286564 -3.61145e-05 8.72164e-24)
(0.0286546 -4.43463e-05 -3.81475e-24)
(0.0284412 0.000131429 6.24543e-24)
(0.0284533 0.000114375 -1.43495e-23)
(0.0284626 9.78134e-05 2.35011e-24)
(0.0284698 8.20289e-05 2.0703e-23)
(0.0284754 6.71353e-05 -2.00788e-23)
(0.0284797 5.31527e-05 6.98504e-24)
(0.0284829 4.00515e-05 4.51409e-24)
(0.0284853 2.77812e-05 -1.0169e-23)
(0.0284869 1.62847e-05 2.36249e-24)
(0.0284879 5.50923e-06 1.15185e-24)
(0.0284882 -4.59361e-06 -9.97793e-25)
(0.0284881 -1.4064e-05 2.11904e-24)
(0.0284874 -2.29448e-05 -2.60522e-24)
(0.0284865 -3.12875e-05 1.77265e-24)
(0.0284851 -3.91324e-05 -8.23461e-25)
(0.0275125 0.000116122 3.87407e-24)
(0.0275254 0.000101776 -8.17122e-24)
(0.0275354 8.77137e-05 -5.62294e-24)
(0.0275432 7.41935e-05 2.64214e-23)
(0.0275491 6.13275e-05 -2.42456e-23)
(0.0275536 4.91417e-05 2.59037e-24)
(0.0275568 3.76206e-05 4.04831e-24)
(0.0275591 2.67296e-05 2.17342e-24)
(0.0275605 1.64335e-05 1.69353e-24)
(0.0275612 6.69805e-06 -7.71894e-24)
(0.0275613 -2.50289e-06 4.96305e-24)
(0.0275609 -1.12011e-05 7.3236e-25)
(0.02756 -1.94267e-05 -1.62931e-24)
(0.0275587 -2.72122e-05 9.0026e-25)
(0.0275569 -3.45814e-05 5.8848e-25)
(0.0260337 0.000100858 9.63708e-24)
(0.0260468 8.88815e-05 -1.71101e-23)
(0.0260575 7.70569e-05 3.49361e-24)
(0.026066 6.56042e-05 -8.28753e-24)
(0.0260729 5.46198e-05 -1.0699e-23)
(0.0260783 4.41308e-05 3.63046e-23)
(0.0260825 3.41326e-05 -1.40095e-23)
(0.0260857 2.46071e-05 3.90353e-24)
(0.0260881 1.55342e-05 -2.13443e-24)
(0.0260896 6.89065e-06 -4.94558e-24)
(0.0260905 -1.3485e-06 8.99002e-24)
(0.0260907 -9.21397e-06 -4.41857e-24)
(0.0260904 -1.67175e-05 6.91961e-25)
(0.0260896 -2.38692e-05 2.25271e-25)
(0.0260882 -3.06744e-05 2.16032e-26)
(0.0242386 8.75871e-05 3.71072e-24)
(0.0242518 7.75497e-05 -1.91701e-23)
(0.0242627 6.75674e-05 3.32327e-23)
(0.0242716 5.78187e-05 -2.53435e-23)
(0.0242789 4.83847e-05 2.52603e-23)
(0.0242847 3.92946e-05 -8.39918e-24)
(0.0242894 3.05532e-05 -5.78224e-24)
(0.024293 2.21554e-05 -6.25105e-24)
(0.0242957 1.40913e-05 1.07931e-23)
(0.0242975 6.34975e-06 -6.13882e-25)
(0.0242986 -1.08124e-06 -1.0005e-23)
(0.0242991 -8.20732e-06 -1.06873e-24)
(0.0242989 -1.50316e-05 1.93211e-24)
(0.0242982 -2.15575e-05 -3.27048e-25)
(0.0242969 -2.77844e-05 4.76435e-26)
(0.0222625 7.53299e-05 4.93879e-25)
(0.0222758 6.69156e-05 -7.21493e-24)
(0.022287 5.84866e-05 -4.02564e-24)
(0.0222963 5.01844e-05 3.29074e-23)
(0.022304 4.20793e-05 -3.23261e-23)
(0.0223103 3.42035e-05 9.43925e-24)
(0.0223153 2.65722e-05 1.58687e-24)
(0.0223193 1.91907e-05 -8.27743e-25)
(0.0223224 1.20612e-05 -3.83911e-24)
(0.0223245 5.18248e-06 1.64835e-23)
(0.0223259 -1.44309e-06 -1.30593e-23)
(0.0223265 -7.81504e-06 -5.12077e-25)
(0.0223265 -1.39312e-05 1.05243e-24)
(0.0223258 -1.97909e-05 6.84508e-25)
(0.0223245 -2.53899e-05 -5.07079e-25)
(0.0202075 6.39519e-05 7.35149e-25)
(0.020221 5.6891e-05 6.70601e-24)
(0.0202325 4.97771e-05 -7.69541e-24)
(0.0202422 4.27214e-05 -5.31914e-24)
(0.0202503 3.57836e-05 3.38163e-23)
(0.0202571 2.89975e-05 -2.58625e-23)
(0.0202626 2.23846e-05 -5.96333e-25)
(0.020267 1.59574e-05 -5.31013e-24)
(0.0202704 9.72538e-06 -4.03283e-25)
(0.0202729 3.69251e-06 7.76607e-25)
(0.0202745 -2.1323e-06 -2.69481e-24)
(0.0202754 -7.74799e-06 2.30186e-24)
(0.0202755 -1.31488e-05 8.2983e-25)
(0.0202749 -1.83298e-05 7.03816e-25)
(0.0202736 -2.32841e-05 6.27007e-25)
(0.0181483 5.33806e-05 5.24014e-24)
(0.018162 4.7459e-05 -8.03447e-24)
(0.0181737 4.14735e-05 -6.44481e-24)
(0.0181839 3.55085e-05 1.96551e-23)
(0.0181924 2.96115e-05 -7.04001e-24)
(0.0181996 2.38155e-05 -9.88179e-24)
(0.0182055 1.81437e-05 3.45901e-24)
(0.0182103 1.2613e-05 7.68808e-24)
(0.018214 7.23383e-06 -1.21772e-23)
(0.0182168 2.01566e-06 1.1995e-23)
(0.0182187 -3.03491e-06 -6.33592e-24)
(0.0182197 -7.91341e-06 2.65853e-24)
(0.0182199 -1.26097e-05 -3.29581e-24)
(0.0182193 -1.7116e-05 3.16507e-24)
(0.018218 -2.14235e-05 -7.12561e-25)
(0.0161374 4.35736e-05 -1.01713e-24)
(0.0161512 3.86343e-05 -3.52918e-24)
(0.0161632 3.36379e-05 -1.12424e-23)
(0.0161735 2.8643e-05 3.13861e-23)
(0.0161824 2.36852e-05 -5.6304e-24)
(0.0161898 1.87962e-05 -8.83781e-24)
(0.016196 1.39977e-05 3.05031e-24)
(0.016201 9.30896e-06 -4.42569e-24)
(0.0162049 4.73544e-06 -9.49741e-24)
(0.0162078 3.00134e-07 9.15126e-24)
(0.0162096 -4.00364e-06 4.37338e-25)
(0.0162106 -8.16322e-06 -2.81708e-24)
(0.0162107 -1.21651e-05 3.21758e-24)
(0.01621 -1.60008e-05 1.75647e-25)
(0.0162084 -1.96614e-05 -2.25669e-25)
(0.0142098 3.46073e-05 3.91427e-24)
(0.0142234 3.05377e-05 5.75671e-24)
(0.0142353 2.64252e-05 -5.36879e-24)
(0.0142456 2.23044e-05 -1.17193e-23)
(0.0142544 1.82031e-05 1.57671e-23)
(0.0142618 1.41504e-05 -1.72489e-23)
(0.0142679 1.01674e-05 -6.61261e-25)
(0.0142728 6.27012e-06 6.67863e-24)
(0.0142766 2.46359e-06 2.32058e-24)
(0.0142793 -1.23018e-06 -4.76373e-24)
(0.0142809 -4.81341e-06 3.73758e-26)
(0.0142816 -8.27151e-06 9.61368e-24)
(0.0142813 -1.1593e-05 -3.67012e-24)
(0.0142801 -1.47704e-05 -9.04827e-25)
(0.0142781 -1.77947e-05 -5.3744e-26)
(0.0123864 2.66425e-05 -4.06597e-24)
(0.0123994 2.33548e-05 5.23393e-24)
(0.0124108 2.00384e-05 5.8871e-25)
(0.0124207 1.67084e-05 1.05905e-23)
(0.012429 1.33897e-05 -8.63392e-24)
(0.012436 1.01075e-05 6.87313e-25)
(0.0124417 6.88244e-06 -9.27639e-25)
(0.0124462 3.72108e-06 -2.71284e-24)
(0.0124494 6.53363e-07 2.36041e-24)
(0.0124516 -2.35066e-06 -7.61844e-24)
(0.0124527 -5.25371e-06 5.46737e-25)
(0.0124528 -8.04552e-06 1.81625e-24)
(0.0124519 -1.07205e-05 1.12187e-24)
(0.0124501 -1.32724e-05 4.32196e-25)
(0.0124474 -1.56924e-05 1.49036e-25)
(0.0106785 1.9831e-05 3.01152e-24)
(0.0106904 1.72439e-05 -2.38253e-24)
(0.0107009 1.46387e-05 -1.04754e-23)
(0.0107098 1.20179e-05 9.83575e-24)
(0.0107174 9.40587e-06 1.37419e-23)
(0.0107236 6.82335e-06 -3.48467e-24)
(0.0107285 4.28611e-06 -7.10451e-24)
(0.0107323 1.80207e-06 -9.96049e-24)
(0.0107348 -6.10329e-07 7.50957e-24)
(0.0107362 -2.96919e-06 4.36274e-25)
(0.0107366 -5.24202e-06 -1.68062e-24)
(0.0107359 -7.42236e-06 -4.48435e-25)
(0.0107343 -9.5059e-06 9.2339e-25)
(0.0107317 -1.14867e-05 -3.60927e-26)
(0.0107282 -1.33565e-05 -1.72002e-25)
(0.00909026 1.42414e-05 -1.89505e-24)
(0.00910086 1.22694e-05 -1.35065e-24)
(0.00911007 1.0286e-05 1.6443e-24)
(0.00911788 8.28784e-06 -5.22043e-24)
(0.00912435 6.29873e-06 1.71342e-23)
(0.00912955 4.33384e-06 -2.27276e-23)
(0.00913353 2.40383e-06 2.23027e-23)
(0.00913635 5.19835e-07 -9.44826e-24)
(0.00913803 -1.32646e-06 2.14772e-24)
(0.00913863 -3.10428e-06 2.71475e-26)
(0.0091382 -4.81756e-06 -1.67604e-24)
(0.00913678 -6.46003e-06 5.55151e-25)
(0.00913439 -8.02502e-06 -1.26522e-24)
(0.00913111 -9.50669e-06 -1.62713e-25)
(0.00912695 -1.08983e-05 8.0829e-26)
(0.00762219 9.8382e-06 -9.20573e-25)
(0.00763123 8.3892e-06 2.35797e-25)
(0.00763901 6.93353e-06 5.12906e-25)
(0.00764552 5.46626e-06 -2.38221e-24)
(0.0076508 4.009e-06 -1.07605e-24)
(0.00765492 2.57066e-06 9.30952e-24)
(0.0076579 1.15934e-06 -5.47432e-24)
(0.00765979 -2.16178e-07 7.84257e-25)
(0.00766063 -1.5637e-06 -7.59351e-25)
(0.00766046 -2.85666e-06 -8.17336e-25)
(0.00765932 -4.10035e-06 -2.34294e-25)
(0.00765726 -5.28979e-06 1.54098e-24)
(0.0076543 -6.41915e-06 3.75107e-25)
(0.00765051 -7.48353e-06 -9.03628e-25)
(0.0076459 -8.47787e-06 -1.34837e-25)
(0.00627198 6.50275e-06 -3.34634e-25)
(0.00627939 5.4824e-06 -1.10809e-25)
(0.00628572 4.45998e-06 -5.39676e-24)
(0.00629092 3.43025e-06 1.42714e-24)
(0.00629504 2.41081e-06 -3.88767e-24)
(0.0062981 1.40494e-06 2.71774e-24)
(0.00630016 4.19872e-07 5.15178e-24)
(0.00630123 -5.40116e-07 3.86216e-24)
(0.00630136 -1.47703e-06 -5.41338e-24)
(0.00630058 -2.37587e-06 1.63188e-24)
(0.00629892 -3.23847e-06 1.38249e-24)
(0.00629644 -4.06096e-06 -1.96788e-24)
(0.00629316 -4.83924e-06 1.04799e-24)
(0.00628913 -5.56939e-06 -6.96825e-26)
(0.00628439 -6.24772e-06 2.52924e-25)
(0.00503565 4.07163e-06 -1.30994e-24)
(0.00504152 3.38941e-06 -1.79531e-24)
(0.00504646 2.71024e-06 -3.26916e-25)
(0.00505044 2.02792e-06 4.46652e-24)
(0.00505349 1.35478e-06 -3.16292e-24)
(0.00505564 6.90129e-07 -6.14914e-25)
(0.00505692 4.14056e-08 5.09426e-24)
(0.00505735 -5.90471e-07 1.27004e-26)
(0.00505696 -1.20735e-06 -1.03261e-24)
(0.00505578 -1.79785e-06 -3.76346e-24)
(0.00505386 -2.3633e-06 4.27108e-25)
(0.00505122 -2.90091e-06 2.56768e-24)
(0.00504789 -3.4081e-06 -3.29985e-25)
(0.00504392 -3.88179e-06 -3.39374e-25)
(0.00503934 -4.31925e-06 2.22172e-25)
(0.00390811 2.37025e-06 -2.86119e-25)
(0.00391255 1.94378e-06 1.69328e-26)
(0.00391624 1.52554e-06 2.14119e-24)
(0.00391915 1.10723e-06 1.43365e-24)
(0.00392129 6.95954e-07 -9.87522e-25)
(0.00392269 2.89351e-07 -2.44365e-24)
(0.00392336 -1.06602e-07 9.88941e-25)
(0.00392335 -4.92157e-07 -4.15052e-24)
(0.00392266 -8.69069e-07 3.19611e-24)
(0.00392132 -1.22896e-06 1.63283e-24)
(0.00391936 -1.57302e-06 -1.64045e-26)
(0.00391682 -1.89939e-06 -1.77063e-24)
(0.00391371 -2.2064e-06 3.16241e-25)
(0.00391008 -2.49169e-06 -2.3327e-25)
(0.00390595 -2.75311e-06 1.14283e-25)
(0.00288341 1.23436e-06 -5.26457e-25)
(0.00288659 9.89471e-07 1.07994e-26)
(0.00288919 7.57628e-07 1.71571e-24)
(0.00289118 5.28031e-07 -1.07257e-24)
(0.00289258 3.03684e-07 4.41357e-24)
(0.00289341 8.38421e-08 -8.04011e-24)
(0.00289367 -1.35968e-07 6.50343e-24)
(0.00289341 -3.43179e-07 -5.42068e-24)
(0.00289261 -5.50628e-07 3.91293e-24)
(0.00289132 -7.46181e-07 -2.50231e-24)
(0.00288955 -9.32791e-07 8.59059e-25)
(0.00288731 -1.10935e-06 1.23671e-25)
(0.00288465 -1.27465e-06 1.91616e-25)
(0.00288159 -1.42696e-06 -2.34836e-25)
(0.00287815 -1.56449e-06 4.72145e-26)
(0.00195513 5.26238e-07 7.98282e-25)
(0.0019572 3.98144e-07 8.62585e-25)
(0.00195886 2.87502e-07 -3.68773e-24)
(0.00196009 1.80895e-07 2.69694e-24)
(0.00196091 7.87261e-08 -2.65356e-26)
(0.00196133 -1.73761e-08 6.93587e-25)
(0.00196135 -1.1936e-07 -8.48268e-25)
(0.00196101 -2.13594e-07 -1.76973e-24)
(0.00196028 -3.04611e-07 1.75519e-24)
(0.0019592 -3.90283e-07 1.80692e-25)
(0.00195778 -4.70845e-07 -1.38854e-24)
(0.00195605 -5.45911e-07 4.98505e-25)
(0.001954 -6.15924e-07 2.91416e-25)
(0.00195168 -6.8002e-07 -3.4862e-26)
(0.0019491 -7.36676e-07 -3.17375e-26)
(0.00111654 1.54852e-07 -8.04996e-25)
(0.00111764 1.08131e-07 2.46134e-24)
(0.00111851 7.76174e-08 1.46728e-24)
(0.00111913 4.78972e-08 -2.6421e-24)
(0.00111951 1.86432e-08 -3.09554e-25)
(0.00111966 -9.02281e-09 -2.74656e-25)
(0.00111957 -4.08973e-08 8.36705e-25)
(0.00111927 -6.9814e-08 -1.41454e-24)
(0.00111874 -9.7989e-08 1.91945e-24)
(0.00111801 -1.24899e-07 -9.39559e-25)
(0.00111708 -1.48481e-07 -6.04923e-25)
(0.00111596 -1.6837e-07 3.63396e-25)
(0.00111466 -1.89945e-07 -4.21588e-25)
(0.0011132 -2.13417e-07 4.18992e-25)
(0.00111159 -2.37453e-07 -6.8754e-26)
(0.000360831 5.87226e-08 -5.74331e-27)
(0.000361096 1.1327e-07 4.77728e-25)
(0.000361294 1.57823e-07 5.46198e-25)
(0.000361416 1.86995e-07 -8.56281e-25)
(0.000361467 2.02782e-07 1.7778e-24)
(0.000361448 2.07228e-07 -1.93025e-24)
(0.000361357 2.02049e-07 1.26433e-25)
(0.000361198 1.89359e-07 1.06006e-24)
(0.00036097 1.70126e-07 -1.46502e-24)
(0.000360676 1.45794e-07 -2.62135e-25)
(0.000360318 1.18872e-07 1.00065e-24)
(0.000359899 9.04388e-08 -4.39998e-25)
(0.000359423 5.73066e-08 -1.58793e-25)
(0.000358895 1.97973e-08 1.32094e-25)
(0.000358319 -2.09585e-08 -5.68634e-27)
(0.000903526 -0.000238815 7.9847e-26)
(0.00103535 -0.000159838 2.03453e-24)
(0.00125735 -7.86174e-05 -5.83513e-24)
(0.00148461 -1.31844e-05 8.45252e-24)
(0.00170333 3.80432e-05 -3.17034e-24)
(0.00191827 7.57848e-05 -3.02984e-24)
(0.00212935 0.000102471 3.43552e-24)
(0.00233714 0.000120118 -6.76798e-24)
(0.00254233 0.000130423 4.42083e-25)
(0.00274551 0.000134853 4.25169e-24)
(0.00294722 0.000134672 -8.08733e-25)
(0.00314795 0.000131009 8.72291e-25)
(0.00334824 0.000124918 -8.55562e-26)
(0.00354868 0.000117438 5.39946e-25)
(0.00375009 0.000109656 -1.98122e-24)
(0.00395355 0.000102768 1.08364e-24)
(0.00416081 9.80841e-05 -3.33823e-25)
(0.00437428 9.70255e-05 2.62987e-26)
(0.00459782 0.000100738 7.73635e-25)
(0.0048362 0.000109764 -4.83243e-25)
(0.00509588 0.000122343 5.91539e-26)
(0.00538177 0.000133623 -5.16807e-26)
(0.00567197 0.000132553 9.83893e-26)
(0.00592961 0.000111859 3.80121e-25)
(0.006142 7.22788e-05 -6.82268e-25)
(0.00630896 1.65795e-05 -4.57881e-25)
(0.00643207 -5.22067e-05 2.5518e-26)
(0.00651355 -0.000131439 1.11303e-24)
(0.00655511 -0.000218593 1.4112e-24)
(0.00655771 -0.000310763 -2.7345e-24)
(0.00652173 -0.000404217 1.86816e-24)
(0.00644731 -0.000494168 -1.32541e-24)
(0.00633473 -0.000574773 1.56445e-25)
(0.00618469 -0.000639268 -1.14984e-24)
(0.00599839 -0.000680122 1.10762e-24)
(0.00577747 -0.000689074 7.35354e-24)
(0.00552394 -0.000656899 -2.02406e-24)
(0.0052401 -0.000572692 1.88778e-24)
(0.00492866 -0.000422468 1.01022e-24)
(0.00459334 -0.000187626 -1.08513e-23)
(0.00423788 0.000153577 -1.32373e-25)
(0.00386716 0.000614337 4.56594e-24)
(0.0034698 0.00116394 1.44979e-24)
(0.00306368 0.00168033 -6.39515e-24)
(0.00283363 0.00179858 -3.16705e-25)
(0.00170033 -0.000318593 -2.33998e-24)
(0.00175563 -0.000273972 -3.27838e-24)
(0.00189297 -0.000195842 6.88421e-24)
(0.00206568 -0.00012336 3.1803e-24)
(0.00224956 -6.20066e-05 -1.11166e-23)
(0.00243991 -1.39224e-05 1.18274e-23)
(0.00263265 2.22693e-05 -4.23482e-24)
(0.00282595 4.84162e-05 3.34979e-24)
(0.00301916 6.62556e-05 -4.42964e-24)
(0.00321209 7.73596e-05 5.12265e-26)
(0.00340478 8.31006e-05 -2.33847e-24)
(0.00359739 8.46988e-05 4.63385e-24)
(0.00379025 8.32798e-05 -2.55869e-24)
(0.00398377 7.99349e-05 -2.28917e-24)
(0.00417862 7.57836e-05 -1.51021e-24)
(0.00437573 7.20291e-05 2.90157e-24)
(0.00457666 6.99707e-05 -3.40949e-25)
(0.00478355 7.099e-05 1.49541e-24)
(0.00499996 7.61978e-05 2.30676e-25)
(0.00523025 8.61223e-05 -4.4074e-25)
(0.00548049 9.91187e-05 -1.82035e-25)
(0.00575537 0.000110675 -1.09343e-25)
(0.00603438 0.000110304 5.32669e-25)
(0.00628274 9.12235e-05 6.51685e-25)
(0.0064884 5.42242e-05 -5.86449e-25)
(0.00665104 1.95536e-06 -2.79743e-24)
(0.0067719 -6.26215e-05 3.72773e-24)
(0.00685284 -0.000136834 -2.5357e-24)
(0.00689534 -0.000218043 8.46856e-25)
(0.00690028 -0.000303212 -4.02333e-25)
(0.0068681 -0.000388504 2.62585e-24)
(0.00679914 -0.000469089 -2.53676e-24)
(0.00669402 -0.000539147 -1.62573e-25)
(0.0065539 -0.000591989 5.93475e-24)
(0.00638061 -0.00062019 -1.02096e-23)
(0.00617672 -0.00061561 2.78338e-24)
(0.00594552 -0.00056919 1.30844e-23)
(0.00569132 -0.000470344 -3.60109e-24)
(0.00541995 -0.000305798 -1.0503e-23)
(0.00514045 -5.81e-05 -6.31737e-24)
(0.00486633 0.000293109 1.4403e-23)
(0.00462014 0.000761574 -1.38307e-23)
(0.00442536 0.00131689 -2.98993e-24)
(0.00432177 0.00182602 9.01098e-24)
(0.00435127 0.00188713 2.8294e-24)
(0.00264109 -0.000326943 -2.65935e-26)
(0.0026496 -0.000322241 -3.75347e-24)
(0.00270849 -0.000275596 7.29282e-24)
(0.00281741 -0.000213347 6.10487e-24)
(0.00295262 -0.00015249 -9.98682e-24)
(0.00310545 -9.99982e-05 2.07283e-25)
(0.00326888 -5.75196e-05 9.55876e-25)
(0.00343861 -2.46131e-05 1.03143e-23)
(0.0036123 -1.59845e-07 -1.22134e-23)
(0.00378861 1.71587e-05 7.48973e-24)
(0.00396681 2.8625e-05 2.248e-24)
(0.00414655 3.54396e-05 -1.24243e-23)
(0.00432777 3.87363e-05 4.48512e-24)
(0.00451062 3.962e-05 1.78061e-24)
(0.00469552 3.92189e-05 -3.68678e-24)
(0.00488319 3.87283e-05 5.95103e-24)
(0.00507495 3.94258e-05 -4.17298e-24)
(0.00527264 4.26462e-05 -7.13653e-26)
(0.00547946 4.94597e-05 3.24214e-25)
(0.00569931 6.03786e-05 3.41235e-25)
(0.00593782 7.38712e-05 4.46188e-26)
(0.00619939 8.57644e-05 1.92924e-25)
(0.00646497 8.61338e-05 -5.37641e-25)
(0.00670208 6.87024e-05 1.60188e-24)
(0.00689934 3.43306e-05 -2.52561e-24)
(0.00705627 -1.44367e-05 1.45216e-24)
(0.00717375 -7.46965e-05 -3.24813e-24)
(0.00725329 -0.000143744 4.35668e-24)
(0.0072961 -0.000218826 -3.65959e-24)
(0.00730299 -0.000296774 5.46501e-25)
(0.00727447 -0.000373655 7.59148e-25)
(0.0072111 -0.000444608 3.01378e-24)
(0.00711388 -0.000503864 -7.21927e-25)
(0.00698446 -0.000544871 3.08288e-24)
(0.00682536 -0.000560425 -9.08501e-24)
(0.00664008 -0.000542715 1.61534e-23)
(0.00643332 -0.000483212 -1.11789e-23)
(0.00621134 -0.000372299 1.6747e-23)
(0.00598296 -0.000198628 -3.20718e-23)
(0.00576152 5.16326e-05 1.22361e-23)
(0.00556742 0.000392709 4.25402e-24)
(0.00543215 0.000830281 6.62282e-24)
(0.00539002 0.00132743 -8.22451e-24)
(0.00546365 0.00175353 2.28258e-24)
(0.00562108 0.00179172 -1.37074e-24)
(0.00370879 -0.000310926 -9.9129e-25)
(0.00369113 -0.000331007 -1.51174e-24)
(0.00370118 -0.00031306 -6.45722e-24)
(0.00374881 -0.000273433 1.7833e-24)
(0.00383099 -0.000223244 1.18346e-24)
(0.00393792 -0.000174062 5.08972e-24)
(0.00406273 -0.000130502 -1.06182e-23)
(0.00420001 -9.42208e-05 4.06187e-24)
(0.00434612 -6.53169e-05 1.34622e-23)
(0.00449863 -4.31565e-05 -3.58425e-24)
(0.00465594 -2.68289e-05 -3.3511e-24)
(0.00481709 -1.53321e-05 -5.31921e-25)
(0.00498152 -7.63693e-06 1.73776e-24)
(0.00514902 -2.69809e-06 -3.39036e-24)
(0.00531972 5.73347e-07 7.85167e-25)
(0.00549404 3.33171e-06 -2.72513e-25)
(0.00567302 6.80941e-06 -1.60699e-24)
(0.00585817 1.22766e-05 6.24749e-25)
(0.00605229 2.07509e-05 2.77811e-24)
(0.00625877 3.27185e-05 -3.2688e-25)
(0.00648275 4.67549e-05 -6.18911e-25)
(0.00672823 5.90233e-05 -1.69618e-25)
(0.00697775 6.01638e-05 -9.47982e-25)
(0.00720126 4.44192e-05 -5.47362e-26)
(0.00738809 1.27342e-05 -2.24094e-24)
(0.00753758 -3.24384e-05 3.87325e-24)
(0.00765025 -8.82496e-05 -3.24836e-24)
(0.00772721 -0.000151959 6.16926e-24)
(0.00776945 -0.000220707 -5.02787e-24)
(0.00777767 -0.000291206 1.27112e-24)
(0.00775248 -0.000359453 1.72147e-24)
(0.00769469 -0.000420601 -1.84028e-25)
(0.00760567 -0.000468999 -2.96473e-25)
(0.0074876 -0.000498338 -1.066e-24)
(0.00734368 -0.000501801 1.33021e-24)
(0.00717835 -0.000472178 -5.02213e-24)
(0.00699755 -0.000401891 2.37005e-23)
(0.00680922 -0.000282943 -1.25763e-23)
(0.00662429 -0.000106918 -4.36965e-25)
(0.00645838 0.000134752 -2.84064e-23)
(0.00633379 0.000448222 2.15225e-23)
(0.00628098 0.000829257 -7.75821e-24)
(0.00632969 0.00124 1.97058e-24)
(0.00648502 0.00157918 9.52748e-24)
(0.00669954 0.00165467 -2.24534e-24)
(0.0048987 -0.000285449 -4.09608e-24)