/*--------------------------------*- C++ -*----------------------------------*\
| =========                 |                                                 |
| \\      /  F ield         | OpenFOAM: The Open Source CFD Toolbox           |
|  \\    /   O peration     | Version:  2312                                  |
|   \\  /    A nd           | Website:  www.openfoam.com                      |
|    \\/     M anipulation  |                                                 |
\*---------------------------------------------------------------------------*/
FoamFile
{
    version     2.0;
    format      ascii;
    arch        "LSB;label=32;scalar=64";
    class       volScalarField;
    location    "147.5";
    object      p;
}
// * * * * * * * * * * * * * * * * * * * * * * * * * * * * * * * * * * * * * //

dimensions      [0 2 -2 0 0 0 0];

internalField   nonuniform List<scalar> 
4800
(
-1.83914e-13
-1.75723e-06
-3.19824e-06
-4.39546e-06
-5.40087e-06
-6.25371e-06
-6.98393e-06
-7.61416e-06
-8.16904e-06
-8.65987e-06
-9.09587e-06
-9.48271e-06
-9.81665e-06
-1.03268e-05
-1.19548e-05
2.06042e-08
-1.73276e-06
-3.17134e-06
-4.36738e-06
-5.37268e-06
-6.22654e-06
-6.9595e-06
-7.59413e-06
-8.15559e-06
-8.65655e-06
-9.11136e-06
-9.53939e-06
-9.95771e-06
-1.04744e-05
-1.1338e-05
4.25415e-08
-1.70666e-06
-3.14273e-06
-4.33763e-06
-5.34297e-06
-6.19792e-06
-6.93342e-06
-7.57051e-06
-8.13642e-06
-8.64505e-06
-9.11095e-06
-9.55461e-06
-9.98756e-06
-1.04216e-05
-1.0839e-05
6.50615e-08
-1.67941e-06
-3.1125e-06
-4.30581e-06
-5.31069e-06
-6.16607e-06
-6.90302e-06
-7.54195e-06
-8.10854e-06
-8.61879e-06
-9.08336e-06
-9.51372e-06
-9.90582e-06
-1.02317e-05
-1.04261e-05
8.98942e-08
-1.64894e-06
-3.07832e-06
-4.26937e-06
-5.27304e-06
-6.12787e-06
-6.86447e-06
-7.504e-06
-8.0671e-06
-8.5708e-06
-9.02108e-06
-9.41852e-06
-9.74811e-06
-9.97427e-06
-1.00448e-05
1.18474e-07
-1.61372e-06
-3.03849e-06
-4.22637e-06
-5.22777e-06
-6.08065e-06
-6.81465e-06
-7.45082e-06
-8.00614e-06
-8.49458e-06
-8.91816e-06
-9.27049e-06
-9.53391e-06
-9.68128e-06
-9.68622e-06
1.52779e-07
-1.57171e-06
-2.99081e-06
-4.17432e-06
-5.17192e-06
-6.02073e-06
-6.74911e-06
-7.37691e-06
-7.91852e-06
-8.38355e-06
-8.77122e-06
-9.07357e-06
-9.27721e-06
-9.36887e-06
-9.34278e-06
1.96218e-07
-1.5195e-06
-2.93164e-06
-4.10916e-06
-5.10089e-06
-5.94277e-06
-6.66163e-06
-7.2757e-06
-7.79704e-06
-8.23202e-06
-8.57946e-06
-8.83399e-06
-8.9897e-06
-9.04555e-06
-9.00754e-06
2.54037e-07
-1.45175e-06
-2.85536e-06
-4.02484e-06
-5.00799e-06
-5.83942e-06
-6.54429e-06
-7.13934e-06
-7.63486e-06
-8.03622e-06
-8.34402e-06
-8.55778e-06
-8.67894e-06
-8.71455e-06
-8.67567e-06
3.33191e-07
-1.36112e-06
-2.75411e-06
-3.91294e-06
-4.88425e-06
-5.70129e-06
-6.38771e-06
-6.95925e-06
-7.42577e-06
-7.79351e-06
-8.06632e-06
-8.24885e-06
-8.34804e-06
-8.37515e-06
-8.34248e-06
4.41558e-07
-1.23867e-06
-2.61807e-06
-3.76291e-06
-4.71864e-06
-5.51727e-06
-6.18145e-06
-6.72676e-06
-7.16391e-06
-7.50127e-06
-7.74647e-06
-7.908e-06
-7.99609e-06
-8.0235e-06
-8.002e-06
5.86952e-07
-1.07475e-06
-2.4362e-06
-3.5628e-06
-4.49881e-06
-5.27539e-06
-5.91484e-06
-6.43345e-06
-6.84371e-06
-7.15655e-06
-7.38246e-06
-7.53257e-06
-7.61849e-06
-7.6529e-06
-7.64636e-06
7.76672e-07
-8.59484e-07
-2.19685e-06
-3.29993e-06
-4.21196e-06
-4.96362e-06
-5.57754e-06
-6.07127e-06
-6.45929e-06
-6.75466e-06
-6.96974e-06
-7.11685e-06
-7.20769e-06
-7.254e-06
-7.26545e-06
1.01708e-06
-5.82956e-07
-1.88796e-06
-2.96117e-06
-3.84493e-06
-4.56979e-06
-5.15904e-06
-5.63149e-06
-6.00314e-06
-6.28838e-06
-6.5004e-06
-6.65168e-06
-6.75338e-06
-6.81597e-06
-6.84714e-06
1.31275e-06
-2.36066e-07
-1.49771e-06
-2.53339e-06
-3.38439e-06
-4.08122e-06
-4.64762e-06
-5.10315e-06
-5.46448e-06
-5.74637e-06
-5.96191e-06
-6.12293e-06
-6.23965e-06
-6.32132e-06
-6.37491e-06
1.666e-06
1.87956e-07
-1.01617e-06
-2.00487e-06
-2.81794e-06
-3.4853e-06
-4.03056e-06
-4.47309e-06
-4.82925e-06
-5.11326e-06
-5.33741e-06
-5.51256e-06
-5.64783e-06
-5.75128e-06
-5.82902e-06
2.07787e-06
6.92596e-07
-4.37315e-07
-1.36756e-06
-2.13607e-06
-2.77139e-06
-3.29592e-06
-3.72783e-06
-4.08223e-06
-4.37201e-06
-4.60822e-06
-4.80049e-06
-4.95686e-06
-5.08431e-06
-5.18819e-06
2.54498e-06
1.27698e-06
2.38496e-07
-6.20305e-07
-1.33578e-06
-1.93441e-06
-2.43631e-06
-2.85749e-06
-3.21103e-06
-3.50795e-06
-3.75766e-06
-3.96836e-06
-4.14699e-06
-4.29957e-06
-4.43087e-06
3.04681e-06
1.92561e-06
9.99033e-07
2.26108e-07
-4.261e-07
-9.80998e-07
-1.45559e-06
-1.86295e-06
-2.21358e-06
-2.51624e-06
-2.77844e-06
-3.00682e-06
-3.20707e-06
-3.38415e-06
-3.54221e-06
3.56106e-06
2.61468e-06
1.82021e-06
1.14636e-06
5.67109e-07
6.35329e-08
-3.77768e-07
-7.66616e-07
-1.11064e-06
-1.41617e-06
-1.68878e-06
-1.93348e-06
-2.15475e-06
-2.35651e-06
-2.54211e-06
4.05168e-06
3.28282e-06
2.62362e-06
2.05175e-06
1.5486e-06
1.1002e-06
6.96844e-07
3.317e-07
-3.7216e-10
-3.03667e-07
-5.82057e-07
-8.39103e-07
-1.07807e-06
-1.30187e-06
-1.51335e-06
4.45586e-06
3.83519e-06
3.29029e-06
2.80596e-06
2.36936e-06
1.97089e-06
1.60393e-06
1.26396e-06
9.47527e-07
6.51689e-07
3.73687e-07
1.10966e-07
-1.38851e-07
-3.77824e-07
-6.07791e-07
4.77382e-06
4.26145e-06
3.8005e-06
3.38045e-06
2.99271e-06
2.63099e-06
2.29099e-06
1.96968e-06
1.66464e-06
1.37376e-06
1.09505e-06
8.26691e-07
5.66996e-07
3.14455e-07
6.75677e-08
5.01304e-06
4.57806e-06
4.17705e-06
3.80322e-06
3.45103e-06
3.11653e-06
2.79683e-06
2.4898e-06
2.1936e-06
1.90663e-06
1.6274e-06
1.35455e-06
1.0868e-06
8.23056e-07
5.62174e-07
5.19063e-06
4.80987e-06
4.45138e-06
4.11088e-06
3.78474e-06
3.47035e-06
3.16567e-06
2.86904e-06
2.57898e-06
2.29425e-06
2.01369e-06
1.73634e-06
1.46129e-06
1.1878e-06
9.15111e-07
5.32051e-06
4.97738e-06
4.64887e-06
4.3321e-06
4.02451e-06
3.72428e-06
3.42985e-06
3.13986e-06
2.85314e-06
2.56873e-06
2.28578e-06
2.0036e-06
1.72154e-06
1.43905e-06
1.15548e-06
5.41352e-06
5.09647e-06
4.78889e-06
4.48865e-06
4.19383e-06
3.90307e-06
3.61512e-06
3.32889e-06
3.04343e-06
2.75801e-06
2.47197e-06
2.18479e-06
1.89594e-06
1.60503e-06
1.31157e-06
5.47876e-06
5.17989e-06
4.88687e-06
4.59799e-06
4.31177e-06
4.02716e-06
3.74311e-06
3.45871e-06
3.17319e-06
2.88595e-06
2.59648e-06
2.30436e-06
2.00921e-06
1.71068e-06
1.40842e-06
5.52383e-06
5.23785e-06
4.95503e-06
4.67397e-06
4.39356e-06
4.1129e-06
3.83107e-06
3.54728e-06
3.2609e-06
2.97143e-06
2.67845e-06
2.38164e-06
2.0807e-06
1.77543e-06
1.4656e-06
5.55482e-06
5.27825e-06
5.00273e-06
4.72719e-06
4.45078e-06
4.17265e-06
3.89196e-06
3.60805e-06
3.32039e-06
3.02855e-06
2.73217e-06
2.431e-06
2.1248e-06
1.8135e-06
1.49723e-06
5.57644e-06
5.30698e-06
5.03686e-06
4.76538e-06
4.4918e-06
4.2153e-06
3.93512e-06
3.65071e-06
3.36158e-06
3.06739e-06
2.76782e-06
2.46268e-06
2.15175e-06
1.83494e-06
1.5118e-06
5.59208e-06
5.32823e-06
5.0623e-06
4.79395e-06
4.52245e-06
4.24702e-06
3.967e-06
3.68189e-06
3.39128e-06
3.09486e-06
2.79238e-06
2.48366e-06
2.16855e-06
1.84699e-06
1.51878e-06
5.60407e-06
5.34481e-06
5.08229e-06
4.81645e-06
4.54656e-06
4.27188e-06
3.99183e-06
3.70598e-06
3.41395e-06
3.11548e-06
2.81036e-06
2.49844e-06
2.17963e-06
1.85391e-06
1.52116e-06
5.61388e-06
5.35851e-06
5.09888e-06
4.83516e-06
4.56657e-06
4.29245e-06
4.01229e-06
3.72571e-06
3.43237e-06
3.13204e-06
2.82455e-06
2.50979e-06
2.18768e-06
1.85829e-06
1.52146e-06
5.62241e-06
5.37043e-06
5.11332e-06
4.85142e-06
4.58392e-06
4.31026e-06
4.02997e-06
3.7427e-06
3.44817e-06
3.14618e-06
2.83657e-06
2.51927e-06
2.19424e-06
1.86157e-06
1.52099e-06
5.63012e-06
5.38114e-06
5.12626e-06
4.86596e-06
4.59942e-06
4.32615e-06
4.04573e-06
3.75785e-06
3.46226e-06
3.15878e-06
2.84728e-06
2.52772e-06
2.20008e-06
1.86449e-06
1.5205e-06
5.63722e-06
5.39092e-06
5.13804e-06
4.87914e-06
4.61345e-06
4.34052e-06
4.06e-06
3.77158e-06
3.47504e-06
3.17024e-06
2.85707e-06
2.53551e-06
2.20556e-06
1.86736e-06
1.52044e-06
5.64392e-06
5.40004e-06
5.14896e-06
4.89132e-06
4.62638e-06
4.35377e-06
4.07314e-06
3.78423e-06
3.48686e-06
3.18088e-06
2.86622e-06
2.54287e-06
2.21086e-06
1.87034e-06
1.52086e-06
5.65061e-06
5.40905e-06
5.15969e-06
4.90323e-06
4.63902e-06
4.36671e-06
4.086e-06
3.79664e-06
3.49847e-06
3.19139e-06
2.87533e-06
2.5503e-06
2.21635e-06
1.87364e-06
1.52177e-06
5.65701e-06
5.4177e-06
5.17001e-06
4.91475e-06
4.65129e-06
4.37934e-06
4.0986e-06
3.80887e-06
3.50999e-06
3.20187e-06
2.88449e-06
2.55785e-06
2.22204e-06
1.87721e-06
1.52301e-06
-1.33595e-05
-1.1168e-05
-9.81075e-06
-8.89367e-06
-8.15159e-06
-7.57389e-06
-7.11889e-06
-6.76035e-06
-6.48266e-06
-6.27502e-06
-6.13021e-06
-6.0433e-06
-6.01191e-06
-6.03622e-06
-6.11837e-06
-6.26527e-06
-6.48946e-06
-6.81005e-06
-7.2516e-06
-7.84785e-06
-8.62728e-06
-9.59455e-06
-1.05993e-05
-1.13588e-05
-1.17314e-05
-1.16807e-05
-1.12016e-05
-1.03081e-05
-9.02747e-06
-7.39311e-06
-5.44125e-06
-3.21156e-06
-7.48165e-07
1.89968e-06
4.67776e-06
7.52776e-06
1.03877e-05
1.31918e-05
1.58664e-05
1.8324e-05
2.04424e-05
2.20555e-05
2.27878e-05
2.2292e-05
1.93388e-05
-1.17439e-05
-1.06185e-05
-9.59361e-06
-8.77716e-06
-8.08087e-06
-7.51944e-06
-7.07075e-06
-6.7153e-06
-6.43995e-06
-6.23481e-06
-6.09299e-06
-6.00969e-06
-5.98259e-06
-6.01194e-06
-6.09975e-06
-6.25289e-06
-6.48393e-06
-6.81159e-06
-7.25973e-06
-7.86095e-06
-8.64197e-06
-9.60546e-06
-1.06013e-05
-1.13496e-05
-1.17114e-05
-1.16519e-05
-1.11662e-05
-1.0268e-05
-8.98448e-06
-7.34964e-06
-5.40088e-06
-3.17946e-06
-7.31552e-07
1.89101e-06
4.63069e-06
7.42459e-06
1.02042e-05
1.28934e-05
1.54026e-05
1.76163e-05
1.93604e-05
2.03588e-05
2.00677e-05
1.76834e-05
1.21919e-05
-1.08907e-05
-1.01845e-05
-9.3694e-06
-8.64199e-06
-7.99643e-06
-7.45761e-06
-7.01868e-06
-6.66816e-06
-6.39605e-06
-6.1939e-06
-6.05543e-06
-5.97603e-06
-5.95357e-06
-5.98838e-06
-6.08231e-06
-6.24224e-06
-6.4807e-06
-6.816e-06
-7.27113e-06
-7.87738e-06
-8.65939e-06
-9.61758e-06
-1.06021e-05
-1.13366e-05
-1.16854e-05
-1.16155e-05
-1.11226e-05
-1.022e-05
-8.93489e-06
-7.3022e-06
-5.36081e-06
-3.15407e-06
-7.30803e-07
1.85383e-06
4.53801e-06
7.25301e-06
9.92216e-06
1.24577e-05
1.47528e-05
1.66666e-05
1.7992e-05
1.84166e-05
1.74455e-05
1.45126e-05
9.51054e-06
-1.03371e-05
-9.82563e-06
-9.16947e-06
-8.51295e-06
-7.91585e-06
-7.4013e-06
-6.97265e-06
-6.62685e-06
-6.35734e-06
-6.15738e-06
-6.02146e-06
-5.94532e-06
-5.92707e-06
-5.9671e-06
-6.06709e-06
-6.23388e-06
-6.48e-06
-6.8232e-06
-7.2855e-06
-7.8967e-06
-8.67914e-06
-9.63055e-06
-1.06014e-05
-1.13192e-05
-1.16519e-05
-1.15688e-05
-1.10664e-05
-1.01576e-05
-8.87028e-06
-7.24044e-06
-5.30903e-06
-3.12214e-06
-7.31983e-07
1.8021e-06
4.41305e-06
7.02545e-06
9.55386e-06
1.18991e-05
1.39403e-05
1.55229e-05
1.64372e-05
1.64074e-05
1.50933e-05
1.22266e-05
8.06057e-06
-9.90377e-06
-9.50673e-06
-8.97151e-06
-8.39846e-06
-7.84755e-06
-7.35695e-06
-6.93848e-06
-6.59683e-06
-6.32887e-06
-6.12981e-06
-5.99519e-06
-5.92124e-06
-5.90639e-06
-5.95111e-06
-6.0568e-06
-6.2303e-06
-6.48408e-06
-6.83521e-06
-7.30453e-06
-7.92016e-06
-8.70183e-06
-9.64426e-06
-1.05983e-05
-1.12963e-05
-1.16101e-05
-1.15117e-05
-1.09985e-05
-1.00835e-05
-8.79529e-06
-7.17149e-06
-5.25554e-06
-3.09678e-06
-7.51393e-07
1.71658e-06
4.23448e-06
6.72014e-06
9.08027e-06
1.12072e-05
1.29737e-05
1.42267e-05
1.47829e-05
1.44401e-05
1.30174e-05
1.04612e-05
7.04814e-06
-9.53802e-06
-9.22064e-06
-8.77746e-06
-8.28669e-06
-7.78869e-06
-7.32384e-06
-6.91873e-06
-6.58225e-06
-6.31538e-06
-6.11604e-06
-5.98132e-06
-5.90818e-06
-5.89554e-06
-5.94405e-06
-6.05472e-06
-6.2344e-06
-6.49553e-06
-6.85421e-06
-7.32995e-06
-7.94891e-06
-8.72793e-06
-9.65833e-06
-1.05917e-05
-1.12661e-05
-1.15578e-05
-1.1442e-05
-1.09173e-05
-9.99712e-06
-8.71082e-06
-7.09816e-06
-5.20547e-06
-3.08578e-06
-7.99601e-07
1.58415e-06
3.98739e-06
6.32226e-06
8.4901e-06
1.03801e-05
1.18679e-05
1.28173e-05
1.30881e-05
1.2558e-05
1.11657e-05
8.97502e-06
6.24431e-06
-9.20562e-06
-8.94981e-06
-8.58972e-06
-8.16889e-06
-7.72557e-06
-7.29769e-06
-6.91225e-06
-6.58438e-06
-6.3199e-06
-6.12015e-06
-5.9844e-06
-5.91074e-06
-5.89898e-06
-5.95007e-06
-6.06457e-06
-6.24947e-06
-6.51719e-06
-6.88253e-06
-7.36349e-06
-7.98399e-06
-8.75768e-06
-9.67205e-06
-1.05798e-05
-1.12263e-05
-1.14924e-05
-1.13569e-05
-1.08204e-05
-9.89652e-06
-8.61617e-06
-7.02142e-06
-5.1619e-06
-3.09461e-06
-8.84478e-07
1.39504e-06
3.66143e-06
5.82324e-06
7.78039e-06
9.42536e-06
1.06461e-05
1.13335e-05
1.13944e-05
1.07742e-05
9.48568e-06
7.63624e-06
5.44001e-06
-8.8874e-06
-8.6808e-06
-8.39059e-06
-8.03858e-06
-7.65468e-06
-7.27073e-06
-6.91308e-06
-6.60004e-06
-6.34187e-06
-6.14363e-06
-6.00727e-06
-5.93259e-06
-5.92073e-06
-5.97322e-06
-6.09014e-06
-6.27899e-06
-6.55209e-06
-6.92262e-06
-7.40685e-06
-8.02627e-06
-8.79099e-06
-9.68422e-06
-1.05606e-05
-1.11738e-05
-1.14105e-05
-1.12532e-05
-1.07049e-05
-9.78009e-06
-8.51132e-06
-6.9434e-06
-5.12941e-06
-3.1304e-06
-1.0153e-06
1.13885e-06
3.24699e-06
5.2172e-06
6.9528e-06
8.35595e-06
9.33372e-06
9.8077e-06
9.72721e-06
9.08498e-06
7.93075e-06
6.37665e-06
4.58857e-06
-8.57443e-06
-8.40861e-06
-8.17708e-06
-7.89001e-06
-7.56717e-06
-7.23314e-06
-6.91156e-06
-6.62154e-06
-6.37622e-06
-6.18395e-06
-6.04957e-06
-5.97491e-06
-5.96306e-06
-6.01632e-06
-6.13428e-06
-6.32572e-06
-6.60283e-06
-6.97658e-06
-7.46131e-06
-8.07607e-06
-8.82709e-06
-9.69298e-06
-1.05308e-05
-1.1105e-05
-1.13084e-05
-1.11277e-05
-1.05686e-05
-9.64713e-06
-8.39774e-06
-6.86813e-06
-5.11478e-06
-3.20238e-06
-1.20292e-06
8.04686e-07
2.73555e-06
4.50105e-06
6.01265e-06
7.18713e-06
7.95373e-06
8.26312e-06
8.09696e-06
7.47574e-06
6.46214e-06
5.15633e-06
3.68328e-06
-8.26108e-06
-8.13054e-06
-7.94895e-06
-7.72046e-06
-7.45694e-06
-7.17609e-06
-6.89739e-06
-6.6387e-06
-6.41419e-06
-6.23446e-06
-6.1068e-06
-6.03513e-06
-6.02505e-06
-6.07955e-06
-6.19751e-06
-6.39065e-06
-6.6705e-06
-7.04489e-06
-7.52681e-06
-8.13247e-06
-8.86403e-06
-9.69516e-06
-1.04867e-05
-1.10158e-05
-1.11822e-05
-1.09774e-05
-1.04103e-05
-9.49844e-06
-8.27887e-06
-6.80197e-06
-5.12705e-06
-3.32159e-06
-1.45909e-06
3.82191e-07
2.12069e-06
3.67488e-06
4.96812e-06
5.93433e-06
6.52445e-06
6.71279e-06
6.50232e-06
5.92647e-06
5.04735e-06
3.94801e-06
2.72171e-06
-7.94135e-06
-7.84266e-06
-7.70451e-06
-7.52821e-06
-7.32041e-06
-7.09318e-06
-6.86157e-06
-6.64096e-06
-6.445e-06
-6.28526e-06
-6.17061e-06
-6.10667e-06
-6.10161e-06
-6.15889e-06
-6.27647e-06
-6.47185e-06
-6.75375e-06
-7.12578e-06
-7.60102e-06
-8.19253e-06
-8.89811e-06
-9.68647e-06
-1.04234e-05
-1.09016e-05
-1.10286e-05
-1.08009e-05
-1.02305e-05
-9.33728e-06
-8.16105e-06
-6.75415e-06
-5.17766e-06
-3.50059e-06
-1.79571e-06
-1.37652e-07
1.39862e-06
2.74167e-06
3.82882e-06
4.61115e-06
5.05811e-06
5.16096e-06
4.93447e-06
4.41535e-06
3.65879e-06
2.73097e-06
1.70139e-06
-7.60748e-06
-7.53871e-06
-7.43951e-06
-7.31003e-06
-7.15384e-06
-6.97884e-06
-6.79613e-06
-6.61817e-06
-6.45714e-06
-6.3245e-06
-6.22952e-06
-6.17982e-06
-6.18476e-06
-6.24459e-06
-6.36319e-06
-6.56417e-06
-6.84787e-06
-7.21418e-06
-7.67863e-06
-8.25069e-06
-8.92348e-06
-9.66117e-06
-1.0336e-05
-1.07583e-05
-1.08456e-05
-1.0599e-05
-1.00331e-05
-9.17044e-06
-8.05436e-06
-6.73728e-06
-5.28038e-06
-3.75275e-06
-2.2239e-06
-7.61633e-07
5.68452e-07
1.70673e-06
2.6046e-06
3.22828e-06
3.5613e-06
3.60552e-06
3.38068e-06
2.92122e-06
2.27322e-06
1.48821e-06
6.18159e-07
-7.2495e-06
-7.20976e-06
-7.14656e-06
-7.05978e-06
-6.95131e-06
-6.82625e-06
-6.69254e-06
-6.55984e-06
-6.43837e-06
-6.33881e-06
-6.26979e-06
-6.24102e-06
-6.26236e-06
-6.32647e-06
-6.45088e-06
-6.65862e-06
-6.94164e-06
-7.30051e-06
-7.75088e-06
-8.29858e-06
-8.93224e-06
-9.61259e-06
-1.02195e-05
-1.05834e-05
-1.06341e-05
-1.03765e-05
-9.82592e-06
-9.00918e-06
-7.9732e-06
-6.76718e-06
-5.4506e-06
-4.0913e-06
-2.75281e-06
-1.49339e-06
-3.67532e-07
5.77229e-07
1.30492e-06
1.79366e-06
2.03655e-06
2.04089e-06
1.82739e-06
1.42519e-06
8.71363e-07
2.05486e-07
-5.33544e-07
-6.85496e-06
-6.84395e-06
-6.81492e-06
-6.76782e-06
-6.70376e-06
-6.62608e-06
-6.54039e-06
-6.454e-06
-6.37519e-06
-6.31298e-06
-6.27569e-06
-6.27179e-06
-6.30986e-06
-6.39177e-06
-6.52952e-06
-6.73962e-06
-7.01977e-06
-7.37158e-06
-7.80586e-06
-8.32539e-06
-8.91505e-06
-9.53407e-06
-1.00707e-05
-1.03772e-05
-1.0399e-05
-1.01426e-05
-9.62171e-06
-8.86973e-06
-7.9364e-06
-6.86127e-06
-5.70355e-06
-4.5279e-06
-3.38849e-06
-2.3327e-06
-1.40382e-06
-6.38194e-07
-6.13659e-08
3.13322e-07
4.84492e-07
4.61298e-07
2.62635e-07
-8.80025e-08
-5.61749e-07
-1.12853e-06
-1.75923e-06
-6.40793e-06
-6.42565e-06
-6.42973e-06
-6.42032e-06
-6.39816e-06
-6.36549e-06
-6.32635e-06
-6.28624e-06
-6.25165e-06
-6.2299e-06
-6.22828e-06
-6.25445e-06
-6.31661e-06
-6.42058e-06
-6.57382e-06
-6.78811e-06
-7.06709e-06
-7.41258e-06
-7.82939e-06
-8.31848e-06
-8.86175e-06
-9.41969e-06
-9.88908e-06
-1.01442e-05
-1.01498e-05
-9.91101e-06
-9.43588e-06
-8.77561e-06
-7.96499e-06
-7.03546e-06
-6.05188e-06
-5.07082e-06
-4.13302e-06
-3.27554e-06
-2.53218e-06
-1.92991e-06
-1.48612e-06
-1.20835e-06
-1.09523e-06
-1.13801e-06
-1.32318e-06
-1.62989e-06
-2.03678e-06
-2.52165e-06
-3.06275e-06
-5.88852e-06
-5.93569e-06
-5.97249e-06
-5.99942e-06
-6.01726e-06
-6.02767e-06
-6.03354e-06
-6.03906e-06
-6.04927e-06
-6.07e-06
-6.10752e-06
-6.16849e-06
-6.26026e-06
-6.38858e-06
-6.56016e-06
-6.78388e-06
-7.06487e-06
-7.40486e-06
-7.80469e-06
-8.26395e-06
-8.76251e-06
-9.26459e-06
-9.67616e-06
-9.89463e-06
-9.90332e-06
-9.6952e-06
-9.29404e-06
-8.75249e-06
-8.07199e-06
-7.30303e-06
-6.50733e-06
-5.72475e-06
-4.98416e-06
-4.31471e-06
-3.74279e-06
-3.288e-06
-2.9619e-06
-2.76863e-06
-2.70599e-06
-2.76674e-06
-2.93965e-06
-3.21007e-06
-3.5622e-06
-3.97982e-06
-4.44685e-06
-5.27589e-06
-5.35359e-06
-5.42337e-06
-5.48593e-06
-5.5422e-06
-5.59366e-06
-5.64305e-06
-5.69342e-06
-5.74848e-06
-5.81281e-06
-5.89168e-06
-5.99056e-06
-6.11544e-06
-6.27182e-06
-6.46582e-06
-6.70395e-06
-6.99069e-06
-7.32811e-06
-7.71462e-06
-8.14833e-06
-8.61005e-06
-9.06672e-06
-9.4361e-06
-9.64374e-06
-9.67285e-06
-9.51717e-06
-9.23328e-06
-8.80929e-06
-8.26419e-06
-7.67638e-06
-7.07766e-06
-6.49038e-06
-5.93694e-06
-5.4421e-06
-5.0263e-06
-4.70339e-06
-4.48112e-06
-4.36227e-06
-4.34518e-06
-4.42426e-06
-4.59081e-06
-4.83431e-06
-5.14356e-06
-5.50706e-06
-5.91335e-06
-4.54826e-06
-4.65794e-06
-4.76215e-06
-4.86161e-06
-4.95717e-06
-5.04657e-06
-5.1378e-06
-5.2324e-06
-5.33215e-06
-5.44051e-06
-5.56184e-06
-5.70064e-06
-5.86175e-06
-6.04997e-06
-6.27041e-06
-6.52766e-06
-6.82549e-06
-7.16546e-06
-7.54603e-06
-7.96262e-06
-8.40047e-06
-8.83082e-06
-9.18299e-06
-9.40341e-06
-9.47247e-06
-9.41775e-06
-9.24452e-06
-8.94249e-06
-8.57039e-06
-8.17187e-06
-7.76379e-06
-7.36041e-06
-6.98195e-06
-6.64839e-06
-6.37451e-06
-6.16971e-06
-6.03939e-06
-5.98616e-06
-6.0096e-06
-6.10687e-06
-6.27297e-06
-6.49972e-06
-6.77769e-06
-7.09888e-06
-7.45607e-06
-3.6885e-06
-3.82889e-06
-3.96527e-06
-4.0988e-06
-4.23079e-06
-4.36516e-06
-4.50026e-06
-4.63902e-06
-4.78368e-06
-4.93693e-06
-5.10223e-06
-5.28319e-06
-5.48371e-06
-5.70755e-06
-5.9589e-06
-6.24098e-06
-6.55686e-06
-6.90787e-06
-7.29196e-06
-7.70576e-06
-8.13652e-06
-8.56299e-06
-8.93452e-06
-9.19323e-06
-9.33773e-06
-9.38459e-06
-9.32352e-06
-9.18049e-06
-8.99191e-06
-8.77691e-06
-8.54768e-06
-8.318e-06
-8.1042e-06
-7.92049e-06
-7.77717e-06
-7.68104e-06
-7.63633e-06
-7.64535e-06
-7.70813e-06
-7.82375e-06
-7.99077e-06
-8.20472e-06
-8.4581e-06
-8.74565e-06
-9.06277e-06
-2.71813e-06
-2.88958e-06
-3.05763e-06
-3.22358e-06
-3.39013e-06
-3.56011e-06
-3.73478e-06
-3.9144e-06
-4.10093e-06
-4.2972e-06
-4.50597e-06
-4.7299e-06
-4.97185e-06
-5.23482e-06
-5.52192e-06
-5.83583e-06
-6.17868e-06
-6.5517e-06
-6.95374e-06
-7.38178e-06
-7.82885e-06
-8.28008e-06
-8.69197e-06
-9.02526e-06
-9.26715e-06
-9.41487e-06
-9.49111e-06
-9.51777e-06
-9.50515e-06
-9.46261e-06
-9.402e-06
-9.33576e-06
-9.27508e-06
-9.22937e-06
-9.20603e-06
-9.21075e-06
-9.24775e-06
-9.31912e-06
-9.42604e-06
-9.5675e-06
-9.73947e-06
-9.94036e-06
-1.01718e-05
-1.04319e-05
-1.07158e-05
-1.7183e-06
-1.92146e-06
-2.12432e-06
-2.32577e-06
-2.52627e-06
-2.73068e-06
-2.94341e-06
-3.16422e-06
-3.39302e-06
-3.63184e-06
-3.88331e-06
-4.14967e-06
-4.43318e-06
-4.73619e-06
-5.06116e-06
-5.4103e-06
-5.7854e-06
-6.18774e-06
-6.61699e-06
-7.07212e-06
-7.54911e-06
-8.04017e-06
-8.51018e-06
-8.91638e-06
-9.24824e-06
-9.5168e-06
-9.73477e-06
-9.90711e-06
-1.00388e-05
-1.01395e-05
-1.02198e-05
-1.02886e-05
-1.03532e-05
-1.04203e-05
-1.04957e-05
-1.05839e-05
-1.06882e-05
-1.08106e-05
-1.09523e-05
-1.11149e-05
-1.12993e-05
-1.15048e-05
-1.17292e-05
-1.19712e-05
-1.22296e-05
-8.33774e-07
-1.05983e-06
-1.287e-06
-1.51884e-06
-1.75792e-06
-2.00366e-06
-2.25257e-06
-2.50809e-06
-2.7736e-06
-3.05046e-06
-3.33998e-06
-3.64407e-06
-3.96481e-06
-4.3042e-06
-4.66426e-06
-5.04692e-06
-5.4539e-06
-5.88653e-06
-6.34549e-06
-6.83058e-06
-7.34034e-06
-7.87118e-06
-8.39014e-06
-8.85986e-06
-9.2749e-06
-9.63979e-06
-9.95743e-06
-1.02315e-05
-1.04682e-05
-1.06754e-05
-1.08603e-05
-1.10292e-05
-1.11875e-05
-1.13402e-05
-1.14916e-05
-1.16454e-05
-1.18045e-05
-1.19717e-05
-1.21489e-05
-1.2337e-05
-1.25375e-05
-1.275e-05
-1.29743e-05
-1.32091e-05
-1.34533e-05
-1.78003e-07
-4.26502e-07
-6.79088e-07
-9.36579e-07
-1.19946e-06
-1.46814e-06
-1.74319e-06
-2.02707e-06
-2.32174e-06
-2.62815e-06
-2.94748e-06
-3.28142e-06
-3.63173e-06
-4.00009e-06
-4.38823e-06
-4.79788e-06
-5.23063e-06
-5.68791e-06
-6.17076e-06
-6.67967e-06
-7.21442e-06
-7.77332e-06
-8.32808e-06
-8.84436e-06
-9.3141e-06
-9.73845e-06
-1.012e-05
-1.04629e-05
-1.07724e-05
-1.10535e-05
-1.13115e-05
-1.15509e-05
-1.17759e-05
-1.19901e-05
-1.2197e-05
-1.23997e-05
-1.26009e-05
-1.28027e-05
-1.30068e-05
-1.32141e-05
-1.34257e-05
-1.36426e-05
-1.38649e-05
-1.4092e-05
-1.43238e-05
3.00737e-07
3.53269e-08
-2.35369e-07
-5.11017e-07
-7.93562e-07
-1.08329e-06
-1.3816e-06
-1.68979e-06
-2.00885e-06
-2.33974e-06
-2.68369e-06
-3.04205e-06
-3.41623e-06
-3.80768e-06
-4.21787e-06
-4.64831e-06
-5.10047e-06
-5.57569e-06
-6.07515e-06
-6.59965e-06
-7.14958e-06
-7.7247e-06
-8.29967e-06
-8.84143e-06
-9.34165e-06
-9.80183e-06
-1.02245e-05
-1.06131e-05
-1.0971e-05
-1.13021e-05
-1.161e-05
-1.18982e-05
-1.21697e-05
-1.24276e-05
-1.26744e-05
-1.29127e-05
-1.31445e-05
-1.33717e-05
-1.35956e-05
-1.38176e-05
-1.4039e-05
-1.42607e-05
-1.4483e-05
-1.47061e-05
-1.49303e-05
6.40425e-07
3.60613e-07
7.46369e-08
-2.18912e-07
-5.19559e-07
-8.28466e-07
-1.14664e-06
-1.47484e-06
-1.81387e-06
-2.16467e-06
-2.52828e-06
-2.90578e-06
-3.29831e-06
-3.70708e-06
-4.13334e-06
-4.57835e-06
-5.0434e-06
-5.52968e-06
-6.03832e-06
-6.5702e-06
-7.12601e-06
-7.70592e-06
-8.28693e-06
-8.83872e-06
-9.35399e-06
-9.83429e-06
-1.02816e-05
-1.06983e-05
-1.10871e-05
-1.14507e-05
-1.17918e-05
-1.21129e-05
-1.24165e-05
-1.27048e-05
-1.29799e-05
-1.32437e-05
-1.34979e-05
-1.37441e-05
-1.39835e-05
-1.42176e-05
-1.44479e-05
-1.46746e-05
-1.48986e-05
-1.51202e-05
-1.53401e-05
8.68288e-07
5.74961e-07
2.74671e-07
-3.32007e-08
-3.49262e-07
-6.74148e-07
-1.00845e-06
-1.35278e-06
-1.70785e-06
-2.07442e-06
-2.45328e-06
-2.8453e-06
-3.2514e-06
-3.67256e-06
-4.10977e-06
-4.56408e-06
-5.03653e-06
-5.52812e-06
-6.03986e-06
-6.57254e-06
-7.12686e-06
-7.70304e-06
-8.2806e-06
-8.83259e-06
-9.35261e-06
-9.84193e-06
-1.0302e-05
-1.07347e-05
-1.1142e-05
-1.15259e-05
-1.18883e-05
-1.22312e-05
-1.25564e-05
-1.28657e-05
-1.31606e-05
-1.34428e-05
-1.37136e-05
-1.39744e-05
-1.42262e-05
-1.447e-05
-1.47075e-05
-1.49391e-05
-1.51655e-05
-1.53872e-05
-1.5605e-05
1.01343e-06
7.08484e-07
3.96202e-07
7.58072e-08
-2.53234e-07
-5.91281e-07
-9.38758e-07
-1.29616e-06
-1.66402e-06
-2.0429e-06
-2.43342e-06
-2.83625e-06
-3.25211e-06
-3.68172e-06
-4.12588e-06
-4.58538e-06
-5.06107e-06
-5.55373e-06
-6.06417e-06
-6.59303e-06
-7.14093e-06
-7.70804e-06
-8.27636e-06
-8.82236e-06
-9.34037e-06
-9.83135e-06
-1.02964e-05
-1.07369e-05
-1.11543e-05
-1.15501e-05
-1.19258e-05
-1.22827e-05
-1.26223e-05
-1.29459e-05
-1.32547e-05
-1.355e-05
-1.3833e-05
-1.41048e-05
-1.43669e-05
-1.46182e-05
-1.48619e-05
-1.5098e-05
-1.53271e-05
-1.55501e-05
-1.57676e-05
1.10087e-06
7.86113e-07
4.63313e-07
1.32045e-07
-2.07901e-07
-5.5683e-07
-9.15078e-07
-1.28299e-06
-1.66095e-06
-2.04936e-06
-2.4487e-06
-2.85942e-06
-3.28207e-06
-3.71717e-06
-4.16532e-06
-4.62709e-06
-5.10313e-06
-5.59398e-06
-6.1003e-06
-6.62253e-06
-7.16119e-06
-7.71633e-06
-8.27228e-06
-8.80876e-06
-9.32076e-06
-9.80891e-06
-1.0274e-05
-1.07171e-05
-1.11393e-05
-1.15416e-05
-1.19251e-05
-1.22909e-05
-1.26399e-05
-1.29732e-05
-1.32918e-05
-1.35966e-05
-1.38884e-05
-1.41681e-05
-1.44364e-05
-1.46958e-05
-1.49452e-05
-1.51856e-05
-1.54179e-05
-1.5643e-05
-1.58615e-05
1.14953e-06
8.26048e-07
4.94231e-07
1.53876e-07
-1.95155e-07
-5.53072e-07
-9.2009e-07
-1.29644e-06
-1.68237e-06
-2.07816e-06
-2.48411e-06
-2.90056e-06
-3.32785e-06
-3.76636e-06
-4.21647e-06
-4.67859e-06
-5.15316e-06
-5.64055e-06
-6.14121e-06
-6.65542e-06
-7.18358e-06
-7.72558e-06
-8.26791e-06
-8.79329e-06
-9.29724e-06
-9.7801e-06
-1.02424e-05
-1.0685e-05
-1.11087e-05
-1.1514e-05
-1.19019e-05
-1.22731e-05
-1.26283e-05
-1.29682e-05
-1.32937e-05
-1.36053e-05
-1.39039e-05
-1.419e-05
-1.44645e-05
-1.4729e-05
-1.49831e-05
-1.52275e-05
-1.54632e-05
-1.56909e-05
-1.59113e-05
1.1735e-06
8.42384e-07
5.02913e-07
1.54902e-07
-2.01736e-07
-5.67101e-07
-9.41306e-07
-1.32448e-06
-1.71676e-06
-2.11832e-06
-2.52932e-06
-2.94995e-06
-3.38042e-06
-3.82094e-06
-4.27177e-06
-4.73311e-06
-5.20524e-06
-5.68837e-06
-6.18278e-06
-6.68856e-06
-7.206e-06
-7.73485e-06
-8.26354e-06
-8.77746e-06
-9.2726e-06
-9.74906e-06
-1.02072e-05
-1.06477e-05
-1.10708e-05
-1.14772e-05
-1.18674e-05
-1.22418e-05
-1.26009e-05
-1.29454e-05
-1.32757e-05
-1.35924e-05
-1.38961e-05
-1.41873e-05
-1.44668e-05
-1.47355e-05
-1.49936e-05
-1.52418e-05
-1.54807e-05
-1.57112e-05
-1.59339e-05
1.18261e-06
8.45063e-07
4.99041e-07
1.44496e-07
-2.18572e-07
-5.90178e-07
-9.70355e-07
-1.35914e-06
-1.75659e-06
-2.16274e-06
-2.57767e-06
-3.00145e-06
-3.43415e-06
-3.87585e-06
-4.32667e-06
-4.78667e-06
-5.25598e-06
-5.73464e-06
-6.22278e-06
-6.72034e-06
-7.22751e-06
-7.74385e-06
-8.25958e-06
-8.76244e-06
-9.24881e-06
-9.7186e-06
-1.01721e-05
-1.06095e-05
-1.10312e-05
-1.14375e-05
-1.18286e-05
-1.22048e-05
-1.25666e-05
-1.29142e-05
-1.32481e-05
-1.35686e-05
-1.38762e-05
-1.41715e-05
-1.44549e-05
-1.47272e-05
-1.49889e-05
-1.52404e-05
-1.54824e-05
-1.57156e-05
-1.59408e-05
1.18375e-06
8.40581e-07
4.88889e-07
1.28714e-07
-2.39854e-07
-6.16769e-07
-1.00199e-06
-1.39549e-06
-1.79722e-06
-2.20715e-06
-2.62525e-06
-3.05148e-06
-3.48582e-06
-3.92823e-06
-4.37868e-06
-4.83714e-06
-5.30358e-06
-5.77791e-06
-6.26013e-06
-6.75004e-06
-7.24769e-06
-7.75253e-06
-8.25634e-06
-8.74891e-06
-9.22698e-06
-9.69033e-06
-1.01391e-05
-1.05733e-05
-1.09931e-05
-1.13986e-05
-1.17899e-05
-1.21672e-05
-1.25307e-05
-1.28806e-05
-1.32171e-05
-1.35406e-05
-1.38513e-05
-1.41498e-05
-1.44365e-05
-1.47118e-05
-1.49766e-05
-1.52311e-05
-1.54758e-05
-1.57116e-05
-1.59392e-05
1.181e-06
8.32939e-07
4.763e-07
1.11227e-07
-2.62105e-07
-6.43602e-07
-1.03316e-06
-1.43069e-06
-1.83607e-06
-2.24919e-06
-2.66993e-06
-3.09817e-06
-3.53379e-06
-3.97665e-06
-4.42662e-06
-4.88353e-06
-5.34726e-06
-5.8176e-06
-6.2944e-06
-6.77736e-06
-7.26641e-06
-7.76088e-06
-8.25393e-06
-8.73716e-06
-9.20763e-06
-9.66502e-06
-1.01093e-05
-1.05403e-05
-1.09581e-05
-1.13626e-05
-1.17538e-05
-1.21317e-05
-1.24964e-05
-1.28479e-05
-1.31865e-05
-1.35123e-05
-1.38256e-05
-1.41267e-05
-1.44161e-05
-1.4694e-05
-1.49614e-05
-1.52185e-05
-1.54656e-05
-1.57038e-05
-1.59337e-05
1.17681e-06
8.24455e-07
4.63469e-07
9.40905e-08
-2.83416e-07
-6.68918e-07
-1.06227e-06
-1.4633e-06
-1.87184e-06
-2.28772e-06
-2.71073e-06
-3.14069e-06
-3.57737e-06
-4.02056e-06
-4.47003e-06
-4.92552e-06
-5.38679e-06
-5.85353e-06
-6.32549e-06
-6.80224e-06
-7.28363e-06
-7.76887e-06
-8.25233e-06
-8.72721e-06
-9.19086e-06
-9.64285e-06
-1.0083e-05
-1.05111e-05
-1.0927e-05
-1.13304e-05
-1.17213e-05
-1.20996e-05
-1.24651e-05
-1.2818e-05
-1.31582e-05
-1.34859e-05
-1.38013e-05
-1.41046e-05
-1.43961e-05
-1.46762e-05
-1.4946e-05
-1.52053e-05
-1.54546e-05
-1.56948e-05
-1.59267e-05
1.17259e-06
8.16358e-07
4.51526e-07
7.8329e-08
-3.02868e-07
-6.91909e-07
-1.0886e-06
-1.49272e-06
-1.90406e-06
-2.32236e-06
-2.74737e-06
-3.17883e-06
-3.61645e-06
-4.05992e-06
-4.50894e-06
-4.96317e-06
-5.42226e-06
-5.88582e-06
-6.35349e-06
-6.82476e-06
-7.29937e-06
-7.77645e-06
-8.25142e-06
-8.71889e-06
-9.17649e-06
-9.6237e-06
-1.00602e-05
-1.04857e-05
-1.08998e-05
-1.13022e-05
-1.16928e-05
-1.20713e-05
-1.24375e-05
-1.27914e-05
-1.3133e-05
-1.34622e-05
-1.37794e-05
-1.40846e-05
-1.43779e-05
-1.466e-05
-1.49317e-05
-1.5193e-05
-1.54441e-05
-1.56861e-05
-1.59198e-05
1.16896e-06
8.09206e-07
4.40952e-07
6.43584e-08
-3.20116e-07
-7.12299e-07
-1.11196e-06
-1.51883e-06
-1.93264e-06
-2.3531e-06
-2.7799e-06
-3.2127e-06
-3.65116e-06
-4.0949e-06
-4.54354e-06
-4.99667e-06
-5.45386e-06
-5.91463e-06
-6.37854e-06
-6.84501e-06
-7.31366e-06
-7.78356e-06
-8.25106e-06
-8.71201e-06
-9.16429e-06
-9.60729e-06
-1.00406e-05
-1.04637e-05
-1.08762e-05
-1.12778e-05
-1.1668e-05
-1.20467e-05
-1.24135e-05
-1.27683e-05
-1.3111e-05
-1.34417e-05
-1.37603e-05
-1.40671e-05
-1.43619e-05
-1.46459e-05
-1.49191e-05
-1.5182e-05
-1.54347e-05
-1.56783e-05
-1.59135e-05
1.16605e-06
8.03178e-07
4.31868e-07
5.22772e-08
-3.35102e-07
-7.30074e-07
-1.13237e-06
-1.54168e-06
-1.9577e-06
-2.38009e-06
-2.80848e-06
-3.24249e-06
-3.68171e-06
-4.12572e-06
-4.57406e-06
-5.02625e-06
-5.4818e-06
-5.94015e-06
-6.4008e-06
-6.86307e-06
-7.32653e-06
-7.79014e-06
-8.25109e-06
-8.70633e-06
-9.15397e-06
-9.5933e-06
-1.00238e-05
-1.04449e-05
-1.0856e-05
-1.12568e-05
-1.16468e-05
-1.20256e-05
-1.23929e-05
-1.27485e-05
-1.30923e-05
-1.34241e-05
-1.3744e-05
-1.40521e-05
-1.43483e-05
-1.46338e-05
-1.49085e-05
-1.51727e-05
-1.54268e-05
-1.56717e-05
-1.59082e-05
1.16383e-06
7.98208e-07
4.24166e-07
4.19155e-08
-3.48056e-07
-7.45517e-07
-1.15016e-06
-1.56167e-06
-1.97967e-06
-2.40378e-06
-2.83361e-06
-3.26872e-06
-3.70865e-06
-4.15293e-06
-4.60104e-06
-5.05245e-06
-5.50659e-06
-5.96286e-06
-6.42067e-06
-6.87928e-06
-7.33818e-06
-7.79626e-06
-8.25141e-06
-8.7016e-06
-9.14515e-06
-9.58126e-06
-1.00093e-05
-1.04286e-05
-1.08386e-05
-1.12388e-05
-1.16285e-05
-1.20075e-05
-1.23753e-05