/*--------------------------------*- C++ -*----------------------------------*\
| =========                 |                                                 |
| \\      /  F ield         | OpenFOAM: The Open Source CFD Toolbox           |
|  \\    /   O peration     | Version:  2312                                  |
|   \\  /    A nd           | Website:  www.openfoam.com                      |
|    \\/     M anipulation  |                                                 |
\*---------------------------------------------------------------------------*/
FoamFile
{
    version     2.0;
    format      ascii;
    arch        "LSB;label=32;scalar=64";
    class       surfaceScalarField;
    location    "44";
    object      phi;
}
// * * * * * * * * * * * * * * * * * * * * * * * * * * * * * * * * * * * * * //

dimensions      [0 3 -1 0 0 0 0];

oriented        oriented;

internalField   nonuniform List<scalar> 
9445
(
5.94478e-10
7.35733e-12
5.91465e-10
3.01317e-12
5.90955e-10
5.09743e-13
5.92074e-10
-1.11912e-12
5.94212e-10
-2.13773e-12
5.97158e-10
-2.94561e-12
6.00894e-10
-3.73658e-12
6.05496e-10
-4.60167e-12
6.11148e-10
-5.65205e-12
6.18297e-10
-7.14857e-12
6.2812e-10
-9.82374e-12
6.44304e-10
-1.61837e-11
6.79919e-10
-3.56151e-11
7.81246e-10
-1.01327e-10
-2.61908e-10
1.04315e-09
2.08173e-09
3.25789e-11
2.07067e-09
1.40724e-11
2.0679e-09
3.27905e-12
2.07036e-09
-3.57812e-12
2.07621e-09
-7.98199e-12
2.08478e-09
-1.15214e-11
2.09588e-09
-1.48314e-11
2.10966e-09
-1.83881e-11
2.12671e-09
-2.26967e-11
2.14832e-09
-2.87578e-11
2.1775e-09
-3.90026e-11
2.22139e-09
-6.00816e-11
2.29378e-09
-1.08005e-10
2.40786e-09
-2.15403e-10
-3.81167e-10
2.52712e-09
4.11704e-09
8.11536e-11
4.09467e-09
3.64412e-11
4.08775e-09
1.01944e-11
4.09045e-09
-6.27389e-12
4.09945e-09
-1.69822e-11
4.11358e-09
-2.56498e-11
4.13224e-09
-3.34955e-11
4.15553e-09
-4.16753e-11
4.18421e-09
-5.13799e-11
4.21997e-09
-6.45224e-11
4.26591e-09
-8.49414e-11
4.32688e-09
-1.21044e-10
4.40565e-09
-1.86777e-10
4.48794e-09
-2.97692e-10
-4.29431e-10
4.5362e-09
6.84969e-09
1.58946e-10
6.81224e-09
7.38952e-11
6.79864e-09
2.37881e-11
6.79988e-09
-7.51554e-12
6.81087e-09
-2.7972e-11
6.82967e-09
-4.44494e-11
6.85524e-09
-5.90628e-11
6.88721e-09
-7.36419e-11
6.92616e-09
-9.0331e-11
6.97332e-09
-1.11684e-10
7.03014e-09
-1.41759e-10
7.09649e-09
-1.87397e-10
7.16581e-09
-2.56093e-10
7.21751e-09
-3.49396e-10
-4.40883e-10
7.22896e-09
1.04584e-08
2.70968e-10
1.04022e-08
1.30044e-10
1.03792e-08
4.68584e-11
1.03768e-08
-5.15383e-12
1.03882e-08
-3.93366e-11
1.041e-08
-6.6262e-11
1.04408e-08
-8.98516e-11
1.04794e-08
-1.12232e-10
1.05256e-08
-1.36613e-10
1.05796e-08
-1.65663e-10
1.06403e-08
-2.02461e-10
1.07035e-08
-2.50549e-10
1.07587e-08
-3.11287e-10
1.07888e-08
-3.79527e-10
-4.36033e-10
1.07839e-08
1.51512e-08
4.18807e-10
1.50745e-08
2.06748e-10
1.50398e-08
8.15059e-11
1.5032e-08
2.68286e-12
1.50421e-08
-4.94439e-11
1.50649e-08
-8.90938e-11
1.50984e-08
-1.23334e-10
1.51406e-08
-1.54394e-10
1.51901e-08
-1.86187e-10
1.52455e-08
-2.21064e-10
1.53037e-08
-2.60581e-10
1.53583e-08
-3.05193e-10
1.53997e-08
-3.52718e-10
1.54173e-08
-3.97056e-10
-4.27353e-10
1.54086e-08
2.11617e-08
5.96249e-10
2.10672e-08
3.01257e-10
2.10221e-08
1.26685e-10
2.10084e-08
1.63708e-11
2.10161e-08
-5.71546e-11
2.10386e-08
-1.1164e-10
2.10723e-08
-1.57056e-10
2.11148e-08
-1.96838e-10
2.11634e-08
-2.34823e-10
2.12152e-08
-2.72874e-10
2.12659e-08
-3.11268e-10
2.13095e-08
-3.48756e-10
2.13391e-08
-3.82355e-10
2.13498e-08
-4.07762e-10
-4.20182e-10
2.13427e-08
2.8741e-08
7.83353e-10
2.86403e-08
4.0203e-10
2.85915e-08
1.75437e-10
2.85759e-08
3.19599e-11
2.85829e-08
-6.41142e-11
2.86053e-08
-1.3406e-10
2.86384e-08
-1.90129e-10
2.86789e-08
-2.37387e-10
2.87235e-08
-2.79448e-10
2.87685e-08
-3.17781e-10
2.88093e-08
-3.52123e-10
2.88416e-08
-3.81041e-10
2.88617e-08
-4.02447e-10
2.88683e-08
-4.14357e-10
-4.15475e-10
2.88636e-08
3.81474e-08
9.41544e-10
3.80648e-08
4.84595e-10
3.80287e-08
2.11575e-10
3.80221e-08
3.85536e-11
3.80353e-08
-7.73555e-11
3.80617e-08
-1.60487e-10
3.80964e-08
-2.24768e-10
3.81357e-08
-2.7667e-10
3.8176e-08
-3.19773e-10
3.82137e-08
-3.55506e-10
3.82455e-08
-3.83862e-10
3.82686e-08
-4.04195e-10
3.8282e-08
-4.15823e-10
3.82862e-08
-4.18582e-10
-4.12934e-10
3.82837e-08
4.96467e-08
1.01646e-09
4.96196e-08
5.11636e-10
4.96225e-08
2.08686e-10
4.9644e-08
1.7009e-11
4.96774e-08
-1.10742e-10
4.97177e-08
-2.00778e-10
4.97609e-08
-2.67963e-10
4.98039e-08
-3.197e-10
4.98439e-08
-3.59749e-10
4.98783e-08
-3.8988e-10
4.99052e-08
-4.10806e-10
4.9924e-08
-4.22932e-10
4.99349e-08
-4.26756e-10
4.99395e-08
-4.23196e-10
-4.13445e-10
4.994e-08
6.35448e-08
9.57269e-10
6.36125e-08
4.43959e-10
6.36846e-08
1.36523e-10
6.37578e-08
-5.61836e-11
6.38298e-08
-1.82688e-10
6.38983e-08
-2.69266e-10
6.39614e-08
-3.31069e-10
6.40175e-08
-3.75865e-10
6.40655e-08
-4.07691e-10
6.41044e-08
-4.2882e-10
6.41343e-08
-4.40691e-10
6.41559e-08
-4.44515e-10
6.41706e-08
-4.41464e-10
6.41803e-08
-4.32895e-10
-4.20153e-10
6.4187e-08
8.02669e-08
7.5026e-10
8.04466e-08
2.64203e-10
8.0605e-08
-2.18654e-11
8.07459e-08
-1.97076e-10
8.08702e-08
-3.06934e-10
8.0979e-08
-3.78051e-10
8.10727e-08
-4.24856e-10
8.1152e-08
-4.55146e-10
8.12175e-08
-4.73217e-10
8.12705e-08
-4.81731e-10
8.13123e-08
-4.82558e-10
8.13451e-08
-4.77255e-10
8.13708e-08
-4.67175e-10
8.13915e-08
-4.53654e-10
-4.37869e-10
8.14092e-08
1.0044e-07
4.37967e-10
1.00706e-07
-2.26473e-12
1.00938e-07
-2.53502e-10
1.01138e-07
-3.97312e-10
1.01311e-07
-4.79767e-10
1.01459e-07
-5.26141e-10
1.01585e-07
-5.50458e-10
1.0169e-07
-5.60455e-10
1.01777e-07
-5.60633e-10
1.0185e-07
-5.53827e-10
1.01909e-07
-5.41985e-10
1.01958e-07
-5.26615e-10
1.02e-07
-5.08911e-10
1.02036e-07
-4.89929e-10
-4.70512e-10
1.02069e-07
1.24861e-07
9.3703e-11
1.2516e-07
-3.01858e-10
1.25421e-07
-5.141e-10
1.25647e-07
-6.23958e-10
1.25843e-07
-6.75817e-10
1.26012e-07
-6.94632e-10
1.26156e-07
-6.94013e-10
1.26277e-07
-6.82077e-10
1.2638e-07
-6.63426e-10
1.26467e-07
-6.40935e-10
1.26541e-07
-6.16368e-10
1.26606e-07
-5.90969e-10
1.26663e-07
-5.65622e-10
1.26714e-07
-5.41018e-10
-5.17631e-10
1.26761e-07
1.54297e-07
-2.30675e-10
1.54579e-07
-5.83773e-10
1.54826e-07
-7.60599e-10
1.55041e-07
-8.39259e-10
1.55229e-07
-8.63446e-10
1.55391e-07
-8.57144e-10
1.55531e-07
-8.34169e-10
1.55652e-07
-8.02671e-10
1.55756e-07
-7.67531e-10
1.55847e-07
-7.3147e-10
1.55926e-07
-6.96016e-10
1.55997e-07
-6.62093e-10
1.56062e-07
-6.30213e-10
1.56122e-07
-6.00693e-10
-5.73683e-10
1.56178e-07
1.89243e-07
-5.18836e-10
1.89487e-07
-8.27474e-10
1.89697e-07
-9.71411e-10
1.89881e-07
-1.02252e-09
1.90041e-07
-1.02329e-09
1.9018e-07
-9.96351e-10
1.90301e-07
-9.5583e-10
1.90408e-07
-9.09199e-10
1.90502e-07
-8.61489e-10
1.90586e-07
-8.15152e-10
1.90661e-07
-7.71457e-10
1.9073e-07
-7.31187e-10
1.90794e-07
-6.94583e-10
1.90855e-07
-6.61518e-10
-6.31729e-10
1.90913e-07
2.2977e-07
-7.72697e-10
2.29976e-07
-1.03385e-09
2.30149e-07
-1.14402e-09
2.30297e-07
-1.17066e-09
2.30425e-07
-1.15133e-09
2.30537e-07
-1.10847e-09
2.30636e-07
-1.05491e-09
2.30724e-07
-9.97472e-10
2.30804e-07
-9.41321e-10
2.30877e-07
-8.88193e-10
2.30945e-07
-8.38883e-10
2.31008e-07
-7.94035e-10
2.31067e-07
-7.54051e-10
2.31124e-07
-7.18538e-10
-6.86841e-10
2.31179e-07
2.75387e-07
-1.002e-09
2.75562e-07
-1.20871e-09
2.75702e-07
-1.28426e-09
2.75819e-07
-1.28759e-09
2.75919e-07
-1.25134e-09
2.76007e-07
-1.19622e-09
2.76086e-07
-1.13376e-09
2.76157e-07
-1.069e-09
2.76223e-07
-1.00727e-09
2.76286e-07
-9.50403e-10
2.76345e-07
-8.97945e-10
2.76402e-07
-8.5096e-10
2.76456e-07
-8.08682e-10
2.76507e-07
-7.69748e-10
-7.36015e-10
2.76557e-07
3.24693e-07
-1.20326e-09
3.24833e-07
-1.34872e-09
3.24937e-07
-1.38872e-09
3.2502e-07
-1.37003e-09
3.25088e-07
-1.31907e-09
3.25146e-07
-1.25487e-09
3.25198e-07
-1.18585e-09
3.25247e-07
-1.11744e-09
3.25293e-07
-1.05301e-09
3.25336e-07
-9.93836e-10
3.25377e-07
-9.39286e-10
3.25418e-07
-8.91216e-10
3.25458e-07
-8.49207e-10
3.25499e-07
-8.10867e-10
-7.75788e-10
3.25539e-07
3.74601e-07
-1.30828e-09
3.7465e-07
-1.39789e-09
3.74672e-07
-1.41072e-09
3.74681e-07
-1.37881e-09
3.74685e-07
-1.32333e-09
3.74688e-07
-1.25775e-09
3.74694e-07
-1.19175e-09
3.74704e-07
-1.12731e-09
3.74717e-07
-1.06582e-09
3.74732e-07
-1.00909e-09
3.7475e-07
-9.5727e-10
3.74769e-07
-9.10049e-10
3.74786e-07
-8.66508e-10
3.74802e-07
-8.26787e-10
-7.91337e-10
3.74818e-07
3.72503e-07
-1.35839e-09
3.72507e-07
-1.40247e-09
3.72489e-07
-1.39248e-09
3.72463e-07
-1.35306e-09
3.72437e-07
-1.29697e-09
3.72413e-07
-1.23378e-09
3.72392e-07
-1.17041e-09
3.72373e-07
-1.10915e-09
3.72359e-07
-1.05109e-09
3.72346e-07
-9.96756e-10
3.72336e-07
-9.46359e-10
3.72325e-07
-8.99921e-10
3.72316e-07
-8.57307e-10
3.72307e-07
-8.18081e-10
-7.81773e-10
3.72298e-07
3.19101e-07
-1.33113e-09
3.19048e-07
-1.34887e-09
3.18984e-07
-1.32833e-09
3.18917e-07
-1.28628e-09
3.18852e-07
-1.23247e-09
3.18793e-07
-1.17451e-09
3.18739e-07
-1.11608e-09
3.18689e-07
-1.05956e-09
3.18644e-07
-1.00589e-09
3.18603e-07
-9.5548e-10
3.18565e-07
-9.08289e-10
3.18529e-07
-8.64129e-10
3.18494e-07
-8.22612e-10
3.18459e-07
-7.83276e-10
-7.45744e-10
3.18423e-07
2.67616e-07
-1.25498e-09
2.67522e-07
-1.25576e-09
2.67425e-07
-1.23052e-09
2.67328e-07
-1.1893e-09
2.67236e-07
-1.14036e-09
2.6715e-07
-1.08848e-09
2.6707e-07
-1.03645e-09
2.66996e-07
-9.85807e-10
2.66928e-07
-9.37309e-10
2.66863e-07
-8.90991e-10
2.66802e-07
-8.46923e-10
2.66742e-07
-8.04745e-10
2.66684e-07
-7.64212e-10
2.66626e-07
-7.25048e-10
-6.86866e-10
2.66567e-07
2.20696e-07
-1.13844e-09
2.2057e-07
-1.1305e-09
2.20445e-07
-1.10478e-09
2.20323e-07
-1.06788e-09
2.20208e-07
-1.02525e-09
2.201e-07
-9.80329e-10
2.19999e-07
-9.3505e-10
2.19903e-07
-8.90466e-10
2.19813e-07
-8.47093e-10
2.19727e-07
-8.05094e-10
2.19645e-07
-7.64364e-10
2.19565e-07
-7.24792e-10
2.19487e-07
-6.86054e-10
2.19409e-07
-6.48015e-10
-6.10385e-10
2.19333e-07
1.79451e-07
-9.9145e-10
1.793e-07
-9.80395e-10
1.79153e-07
-9.57261e-10
1.79011e-07
-9.26407e-10
1.78878e-07
-8.91289e-10
1.78751e-07
-8.5413e-10
1.78633e-07
-8.16263e-10
1.7852e-07
-7.78428e-10
1.78414e-07
-7.41021e-10
1.78314e-07
-7.0417e-10
1.78217e-07
-6.67841e-10
1.78124e-07
-6.31917e-10
1.78034e-07
-5.96236e-10
1.77947e-07
-5.60645e-10
-5.2499e-10
1.77862e-07
1.44093e-07
-8.28416e-10
1.43932e-07
-8.18926e-10
1.43775e-07
-8.00793e-10
1.43626e-07
-7.77106e-10
1.43485e-07
-7.50088e-10
1.43352e-07
-7.21163e-10
1.43227e-07
-6.91195e-10
1.43109e-07
-6.60683e-10
1.42998e-07
-6.29936e-10
1.42893e-07
-5.99053e-10
1.42793e-07
-5.68048e-10
1.42698e-07
-5.3685e-10
1.42607e-07
-5.05389e-10
1.4252e-07
-4.73555e-10
-4.41261e-10
1.42436e-07
1.14394e-07
-6.67317e-10
1.14237e-07
-6.61811e-10
1.14086e-07
-6.49876e-10
1.13942e-07
-6.33788e-10
1.13807e-07
-6.14904e-10
1.1368e-07
-5.94071e-10
1.13561e-07
-5.71858e-10
1.13449e-07
-5.48651e-10
1.13343e-07
-5.24692e-10
1.13244e-07
-5.00093e-10
1.13151e-07
-4.7487e-10
1.13064e-07
-4.49036e-10
1.12981e-07
-4.22524e-10
1.12902e-07
-3.95313e-10
-3.67385e-10
1.12829e-07
8.98752e-08
-5.22281e-10
8.97348e-08
-5.21335e-10
8.96003e-08
-5.15465e-10
8.94729e-08
-5.06344e-10
8.93527e-08
-4.947e-10
8.92397e-08
-4.81041e-10
8.91336e-08
-4.65784e-10
8.90342e-08
-4.49241e-10
8.89411e-08
-4.31616e-10
8.8854e-08
-4.13018e-10
8.87726e-08
-3.93477e-10
8.86966e-08
-3.73021e-10
8.86257e-08
-3.51631e-10
8.85597e-08
-3.29326e-10
-3.06127e-10
8.84985e-08
6.99244e-08
-4.00111e-10
6.9806e-08
-4.02953e-10
6.96925e-08
-4.0201e-10
6.95846e-08
-3.98447e-10
6.94825e-08
-3.92569e-10
6.93862e-08
-3.84697e-10
6.92955e-08
-3.75155e-10
6.92105e-08
-3.64203e-10
6.91309e-08
-3.52011e-10
6.90565e-08
-3.38675e-10
6.89873e-08
-3.24232e-10
6.8923e-08
-3.08705e-10
6.88635e-08
-2.9211e-10
6.88086e-08
-2.74489e-10
-2.55882e-10
6.87584e-08
5.38754e-08
-3.01242e-10
5.3779e-08
-3.0652e-10
5.36859e-08
-3.08981e-10
5.35968e-08
-3.09309e-10
5.35118e-08
-3.07549e-10
5.3431e-08
-3.03929e-10
5.33546e-08
-2.98707e-10
5.32824e-08
-2.92092e-10
5.32147e-08
-2.84224e-10
5.31512e-08
-2.75179e-10
5.30919e-08
-2.64987e-10
5.30369e-08
-2.53667e-10
5.2986e-08
-2.41248e-10
5.29393e-08
-2.27784e-10
-2.13328e-10
5.28968e-08
4.10808e-08
-2.22823e-10
4.10035e-08
-2.292e-10
4.09281e-08
-2.33591e-10
4.08551e-08
-2.36239e-10
4.07846e-08
-2.37075e-10
4.07169e-08
-2.3628e-10
4.06523e-08
-2.34054e-10
4.05907e-08
-2.30559e-10
4.05324e-08
-2.25904e-10
4.04774e-08
-2.2014e-10
4.04257e-08
-2.13288e-10
4.03774e-08
-2.05363e-10
4.03325e-08
-1.96396e-10
4.02912e-08
-1.86442e-10
-1.75554e-10
4.02534e-08
3.09554e-08
-1.61212e-10
3.08939e-08
-1.6764e-10
3.0833e-08
-1.72747e-10
3.07732e-08
-1.76437e-10
3.07148e-08
-1.78631e-10
3.0658e-08
-1.7948e-10
3.06031e-08
-1.79129e-10
3.05502e-08
-1.77699e-10
3.04996e-08
-1.75267e-10
3.04513e-08
-1.71866e-10
3.04055e-08
-1.67507e-10
3.03624e-08
-1.62198e-10
3.03219e-08
-1.55968e-10
3.02843e-08
-1.48866e-10
-1.40937e-10
3.02497e-08
2.29946e-08
-1.13186e-10
2.29459e-08
-1.18971e-10
2.28971e-08
-1.23911e-10
2.28483e-08
-1.2772e-10
2.28001e-08
-1.30367e-10
2.27526e-08
-1.31968e-10
2.27061e-08
-1.32624e-10
2.26608e-08
-1.32419e-10
2.26169e-08
-1.31406e-10
2.25746e-08
-1.29601e-10
2.25342e-08
-1.27008e-10
2.24956e-08
-1.23631e-10
2.24591e-08
-1.19494e-10
2.24249e-08
-1.14631e-10
-1.0908e-10
2.2393e-08
1.67753e-08
-7.62453e-11
1.67373e-08
-8.1004e-11
1.66986e-08
-8.52187e-11
1.66594e-08
-8.85669e-11
1.66202e-08
-9.10716e-11
1.6581e-08
-9.2814e-11
1.65422e-08
-9.38597e-11
1.65041e-08
-9.42633e-11
1.64667e-08
-9.40577e-11
1.64304e-08
-9.32502e-11
1.63952e-08
-9.18392e-11
1.63614e-08
-8.98254e-11
1.63291e-08
-8.72252e-11
1.62986e-08
-8.4061e-11
-8.03588e-11
1.62698e-08
1.19492e-08
-4.848e-11
1.19202e-08
-5.20679e-11
1.18903e-08
-5.52836e-11
1.18596e-08
-5.78788e-11
1.18285e-08
-5.99096e-11
1.17971e-08
-6.14258e-11
1.17657e-08
-6.24658e-11
1.17345e-08
-6.30629e-11
1.17037e-08
-6.32357e-11
1.16734e-08
-6.2986e-11
1.16439e-08
-6.23103e-11
1.16152e-08
-6.12068e-11
1.15877e-08
-5.96856e-11
1.15614e-08
-5.77585e-11
-5.54404e-11
1.15365e-08
8.23221e-09
-2.83573e-11
8.21095e-09
-3.08047e-11
8.18864e-09
-3.29761e-11
8.16551e-09
-3.47465e-11
8.14178e-09
-3.61767e-11
8.11764e-09
-3.72922e-11
8.09329e-09
-3.8113e-11
8.06888e-09
-3.86568e-11
8.04458e-09
-3.89334e-11
8.02054e-09
-3.8942e-11
7.99691e-09
-3.86791e-11
7.97384e-09
-3.81416e-11
7.95149e-09
-3.73352e-11
7.93e-09
-3.62639e-11
-3.49331e-11
7.90949e-09
5.39418e-09
-1.4563e-11
5.3794e-09
-1.60208e-11
5.36369e-09
-1.72688e-11
5.34724e-09
-1.82953e-11
5.33021e-09
-1.9146e-11
5.31275e-09
-1.98304e-11
5.29499e-09
-2.03568e-11
5.27707e-09
-2.0733e-11
5.2591e-09
-2.09634e-11
5.2412e-09
-2.10466e-11
5.2235e-09
-2.09801e-11
5.20612e-09
-2.0761e-11
5.18918e-09
-2.03918e-11
5.17279e-09
-1.98727e-11
-1.92017e-11
5.15706e-09
3.24953e-09
-5.92316e-12
3.24013e-09
-6.62026e-12
3.23003e-09
-7.16992e-12
3.21937e-09
-7.62798e-12
3.20824e-09
-8.01694e-12
3.19674e-09
-8.33805e-12
3.18498e-09
-8.59302e-12
3.17303e-09
-8.78413e-12
3.16098e-09
-8.91279e-12
3.14891e-09
-8.97803e-12
3.13691e-09
-8.97846e-12
3.12506e-09
-8.9122e-12
3.11345e-09
-8.78031e-12
3.10216e-09
-8.58162e-12
-8.31065e-12
3.09127e-09
1.64924e-09
-1.38265e-12
1.64421e-09
-1.58962e-12
1.63876e-09
-1.71842e-12
1.63296e-09
-1.83016e-12
1.62687e-09
-1.92879e-12
1.62055e-09
-2.0127e-12
1.61404e-09
-2.08122e-12
1.60739e-09
-2.13424e-12
1.60064e-09
-2.17188e-12
1.59386e-09
-2.19373e-12
1.58708e-09
-2.19949e-12
1.58036e-09
-2.18853e-12
1.57374e-09
-2.16103e-12
1.56727e-09
-2.11652e-12
-2.0501e-12
1.56101e-09
4.74069e-10
4.72479e-10
4.70761e-10
4.68931e-10
4.67002e-10
4.64989e-10
4.62908e-10
4.60774e-10
4.58602e-10
4.56408e-10
4.54209e-10
4.5202e-10
4.49859e-10
4.47743e-10
4.45692e-10
1.24945e-09
-4.9587e-10
2.89572e-10
1.546e-09
-4.12931e-10
1.16379e-10
1.84606e-09
-2.63325e-10
-3.6733e-11
2.14263e-09
-1.14303e-10
-1.82262e-10
2.43333e-09
2.69912e-11
-3.17693e-10
2.71855e-09
1.5053e-10
-4.35756e-10
2.99927e-09
2.52441e-10
-5.33155e-10
3.27622e-09
3.28848e-10
-6.05801e-10
3.55002e-09
3.75561e-10
-6.49361e-10
3.82109e-09
3.88379e-10
-6.59454e-10
4.08974e-09
3.62748e-10
-6.31389e-10
4.35608e-09
2.9402e-10
-5.60369e-10
4.62012e-09
1.77877e-10
-4.41916e-10
4.88169e-09
1.15714e-11
-2.73142e-10
5.14072e-09
-2.04379e-10
-5.46461e-11
5.39747e-09
-4.61267e-10
2.04513e-10
5.65314e-09
-7.38624e-10
4.8296e-10
5.91076e-09
-9.95172e-10
7.3755e-10
6.17614e-09
-1.16787e-09
9.02482e-10
6.45869e-09
-1.16422e-09
8.81669e-10
6.77042e-09
-8.90805e-10
5.79081e-10
7.12152e-09
-2.76253e-10
-7.48498e-11
7.45713e-09
4.77945e-10
-8.13553e-10
7.74547e-09
9.25309e-10
-1.21365e-09
7.97914e-09
1.05809e-09
-1.29176e-09
8.15643e-09
9.51066e-10
-1.12835e-09
8.27902e-09
6.7839e-10
-8.00984e-10
8.34918e-09
3.01507e-10
-3.71663e-10
8.36833e-09
-1.3239e-10
1.13239e-10
8.33721e-09
-5.84188e-10
6.15303e-10
8.25642e-09
-1.01565e-09
1.09644e-09
8.12693e-09
-1.3902e-09
1.51968e-09
7.95056e-09
-1.67566e-09
1.85203e-09
7.73007e-09
-1.84703e-09
2.06751e-09
7.46888e-09
-1.88758e-09
2.14877e-09
7.17062e-09
-1.78888e-09
2.08714e-09
6.83876e-09
-1.54903e-09
1.8809e-09
6.47649e-09
-1.16935e-09
1.53162e-09
6.0871e-09
-6.49985e-10
1.03938e-09
5.67364e-09
1.37327e-11
3.9972e-10
5.23625e-09
8.26063e-10
-3.88671e-10
4.76551e-09
1.76612e-09
-1.29538e-09
4.24037e-09
2.71949e-09
-2.19435e-09
3.6634e-09
3.41062e-09
-2.83365e-09
3.10066e-09
3.32014e-09
-2.7574e-09
2.60946e-09
-5.78209e-10
2.78758e-09
-5.91056e-10
3.02988e-09
-5.05616e-10
3.301e-09
-3.85432e-10
3.58598e-09
-2.57981e-10
3.87664e-09
-1.40135e-10
4.16931e-09
-4.02308e-11
4.4622e-09
3.59613e-11
4.75442e-09
8.33409e-11
5.04547e-09
9.7335e-11
5.33499e-09
7.32215e-11
5.62267e-09
6.34663e-12
5.90807e-09
-1.07525e-10
6.19073e-09
-2.71092e-10
6.47017e-09
-4.83814e-10
6.74637e-09
-7.3747e-10
7.02022e-09
-1.01248e-09
7.2946e-09
-1.26955e-09
7.57537e-09
-1.44863e-09
7.87237e-09
-1.46122e-09
8.19864e-09
-1.21708e-09
8.56602e-09
-6.43633e-10
8.91899e-09
1.24981e-10
9.2248e-09
6.19494e-10
9.47518e-09
8.07719e-10
9.66746e-09
7.5878e-10
9.80268e-09
5.43169e-10
9.88262e-09
2.21574e-10
9.90834e-09
-1.58116e-10
9.88052e-09
-5.56366e-10
9.79986e-09
-9.3498e-10
9.66769e-09
-1.25803e-09
9.48642e-09
-1.4944e-09
9.25974e-09
-1.62034e-09
8.99233e-09
-1.62017e-09
8.68961e-09
-1.48616e-09
8.35755e-09
-1.21696e-09
8.00303e-09
-8.14837e-10
7.63524e-09
-2.8219e-10
7.26762e-09
3.81348e-10
6.91983e-09
1.17385e-09
6.61749e-09
2.06847e-09
6.39189e-09
2.94509e-09
6.28703e-09
3.51547e-09
3.18776e-09
6.19994e-09
4.55366e-09
-5.95669e-10
4.63473e-09
-6.72129e-10
4.79178e-09
-6.62668e-10
5.00597e-09
-5.99619e-10
5.25624e-09
-5.0825e-10
5.52875e-09
-4.1264e-10
5.81471e-09
-3.26197e-10
6.10879e-09
-2.58119e-10
6.40766e-09
-2.15523e-10
6.7091e-09
-2.04111e-10
7.01159e-09
-2.29267e-10
7.31388e-09
-2.95943e-10
7.61483e-09
-4.08471e-10
7.91334e-09
-5.69607e-10
8.20839e-09
-7.78858e-10
8.4994e-09
-1.02848e-09
8.78679e-09
-1.29987e-09
9.07306e-09
-1.55583e-09
9.36394e-09
-1.7395e-09
9.66955e-09
-1.76683e-09
1.00038e-08
-1.55137e-09
1.03804e-08
-1.02015e-09
1.07444e-08
-2.39077e-10
1.10629e-08
3.00966e-10
1.13267e-08
5.43975e-10
1.15318e-08
5.53631e-10
1.16785e-08
3.96513e-10
1.17677e-08
1.32317e-10
1.18002e-08
-1.90572e-10
1.17763e-08
-5.32513e-10
1.1697e-08
-8.55673e-10
1.15641e-08
-1.12505e-09
1.13806e-08
-1.31091e-09
1.11513e-08
-1.39113e-09
1.08827e-08
-1.35151e-09
1.05822e-08
-1.18565e-09
1.02588e-08
-8.93608e-10
9.92384e-09
-4.79853e-10
9.59283e-09
4.88194e-11
9.28916e-09
6.85014e-10
9.04824e-09
1.41477e-09
8.91646e-09
2.20025e-09
8.93318e-09
2.92837e-09
9.08251e-09
3.36614e-09
3.11912e-09
9.15115e-09
7.21093e-09
-5.77634e-10
7.22762e-09
-6.88817e-10
7.3015e-09
-7.36554e-10
7.43872e-09
-7.36836e-10
7.62901e-09
-6.9854e-10
7.85747e-09
-6.41099e-10
8.11307e-09
-5.81794e-10
8.38771e-09
-5.32761e-10
8.67549e-09
-5.03307e-10
8.97211e-09
-5.00728e-10
9.27437e-09
-5.31526e-10
9.57969e-09
-6.01269e-10
9.88586e-09
-7.14634e-10
1.01908e-08
-8.74573e-10
1.04927e-08
-1.08076e-09
1.07902e-08
-1.32597e-09
1.1083e-08
-1.59264e-09
1.13729e-08
-1.84576e-09
1.16653e-08
-2.03192e-09
1.19704e-08
-2.07192e-09
1.23028e-08
-1.88379e-09
1.26778e-08
-1.39513e-09
1.30435e-08
-6.04723e-10
1.33672e-08
-2.27301e-11
1.36386e-08
2.72527e-10
1.38526e-08
3.39669e-10
1.4008e-08
2.41123e-10
1.4105e-08
3.53245e-11
1.41435e-08
-2.29107e-10
1.41238e-08
-5.12815e-10
1.40469e-08
-7.78768e-10
1.39151e-08
-9.93244e-10
1.37324e-08
-1.12823e-09
1.3505e-08
-1.1637e-09
1.32409e-08
-1.08743e-09
1.29502e-08
-8.94948e-10
1.26452e-08
-5.88562e-10
1.23413e-08
-1.75987e-10
1.20594e-08
3.3072e-10
1.18293e-08
9.15095e-10
1.16922e-08
1.55188e-09
1.1696e-08
2.19643e-09
1.18681e-08
2.75627e-09
1.21618e-08
3.07249e-09
2.93651e-09
1.23444e-08
1.07525e-08
-5.46168e-10
1.07309e-08
-6.67209e-10
1.07442e-08
-7.49914e-10
1.08044e-08
-7.97033e-10
1.09201e-08
-8.14208e-10
1.10838e-08
-8.04757e-10
1.12854e-08
-7.83476e-10
1.15171e-08
-7.64447e-10
1.17716e-08
-7.57779e-10
1.20429e-08
-7.72039e-10
1.23263e-08
-8.14883e-10
1.26176e-08
-8.92591e-10
1.29133e-08
-1.01037e-09
1.32102e-08
-1.17149e-09
1.35054e-08
-1.37591e-09
1.37963e-08
-1.61694e-09
1.40818e-08
-1.87814e-09
1.43629e-08
-2.12679e-09
1.46441e-08
-2.31313e-09
1.49353e-08
-2.36317e-09
1.52518e-08
-2.20024e-09
1.56101e-08
-1.75349e-09
1.59637e-08
-9.58302e-10
1.62814e-08
-3.40396e-10
1.65517e-08
2.20565e-12
1.67677e-08
1.23627e-10
1.6927e-08
8.19208e-11
1.70283e-08
-6.60597e-11
1.7071e-08
-2.71735e-10
1.70547e-08
-4.96543e-10
1.69807e-08
-7.04787e-10
1.68519e-08
-8.64451e-10
1.66733e-08
-9.49576e-10
1.64523e-08
-9.42759e-10
1.61991e-08
-8.34221e-10
1.59261e-08
-6.21952e-10
1.56486e-08
-3.11026e-10
1.53854e-08
8.71737e-11
1.51604e-08
5.55718e-10
1.50045e-08
1.07105e-09
1.49549e-08
1.60143e-09
1.50486e-08
2.10272e-09
1.52966e-08
2.50832e-09
1.56431e-08
2.72599e-09
2.66392e-09
1.59157e-08
1.53772e-08
-5.14762e-10
1.53387e-08
-6.28684e-10
1.53164e-08
-7.27712e-10
1.53222e-08
-8.02809e-10
1.5367e-08
-8.5903e-10
1.54569e-08
-8.94564e-10
1.55895e-08
-9.16144e-10
1.57584e-08
-9.33304e-10
1.59575e-08
-9.56867e-10
1.61809e-08
-9.95426e-10
1.6423e-08
-1.05706e-09
1.66788e-08
-1.14837e-09
1.69435e-08
-1.27504e-09
1.72126e-08
-1.44065e-09
1.74821e-08
-1.64538e-09
1.77483e-08
-1.88313e-09
1.80087e-08
-2.13856e-09
1.82633e-08
-2.38132e-09
1.85155e-08
-2.5654e-09
1.87748e-08
-2.62244e-09
1.90563e-08
-2.48172e-09
1.93778e-08
-2.07501e-09
1.97008e-08
-1.28135e-09
1.99969e-08
-6.36486e-10
2.02534e-08
-2.54268e-10
2.04614e-08
-8.43326e-11
2.06165e-08
-7.3209e-11
2.07164e-08
-1.66006e-10
2.07592e-08
-3.14463e-10
2.0744e-08
-4.81423e-10
2.06724e-08
-6.33136e-10
2.05477e-08
-7.39801e-10
2.03759e-08
-7.77764e-10
2.0166e-08
-7.32793e-10
1.99297e-08
-5.97926e-10
1.96816e-08
-3.73914e-10
1.94393e-08
-6.86974e-11
1.92232e-08
3.03299e-10
1.90574e-08
7.21518e-10
1.8969e-08
1.15945e-09
1.89857e-08
1.58471e-09
1.91287e-08
1.95969e-09
1.93958e-08
2.2412e-09
1.97383e-08
2.38353e-09
2.35347e-09
2.00488e-08
2.13177e-08
-4.89764e-10
2.12794e-08
-5.90471e-10
2.12411e-08
-6.8935e-10
2.12168e-08
-7.78516e-10
2.12142e-08
-8.56441e-10
2.12422e-08
-9.22521e-10
2.13042e-08
-9.78197e-10
2.14025e-08
-1.03155e-09
2.1532e-08
-1.08638e-09
2.16894e-08
-1.15281e-09
2.18697e-08
-1.23746e-09
2.20679e-08
-1.34652e-09
2.22788e-08
-1.48596e-09
2.24974e-08
-1.65917e-09
2.27184e-08
-1.86641e-09
2.29372e-08
-2.10191e-09
2.31501e-08
-2.35146e-09
2.33557e-08
-2.58694e-09
2.35565e-08
-2.76623e-09
2.37608e-08
-2.82672e-09
2.39834e-08
-2.70436e-09
2.42428e-08
-2.3344e-09
2.45119e-08
-1.55045e-09
2.47662e-08
-8.90787e-10
2.49918e-08
-4.79816e-10
2.51775e-08
-2.70036e-10
2.5317e-08
-2.12732e-10
2.54065e-08
-2.55469e-10
2.54425e-08
-3.50539e-10
2.5424e-08
-4.62874e-10
2.53523e-08
-5.61395e-10
2.52315e-08
-6.18997e-10
2.50681e-08
-6.14447e-10
2.48726e-08
-5.37244e-10
2.4658e-08
-3.83384e-10
2.44405e-08
-1.56355e-10
2.42382e-08
1.33568e-10
2.40715e-08
4.70002e-10
2.39619e-08
8.31174e-10
2.39299e-08
1.19146e-09
2.3992e-08
1.52255e-09
2.41556e-08
1.79615e-09
2.441e-08
1.98674e-09
2.47184e-08
2.07518e-09
2.05442e-09
2.50174e-08
2.8846e-08
-4.72184e-10
2.88154e-08
-5.5987e-10
2.87777e-08
-6.51675e-10
2.87416e-08
-7.42448e-10
2.87146e-08
-8.29413e-10
2.87041e-08
-9.1197e-10
2.87145e-08
-9.88638e-10
2.875e-08
-1.06702e-09
2.88108e-08
-1.14716e-09
2.88972e-08
-1.23922e-09
2.90048e-08
-1.34513e-09
2.91301e-08
-1.47178e-09
2.92689e-08
-1.62478e-09
2.94162e-08
-1.80644e-09
2.95665e-08
-2.01672e-09
2.97145e-08
-2.24991e-09
2.98557e-08
-2.49266e-09
2.99876e-08
-2.71889e-09
3.01117e-08
-2.89029e-09
3.02349e-08
-2.94995e-09
3.03716e-08
-2.84099e-09
3.05399e-08
-2.50279e-09
3.07279e-08
-1.7384e-09
3.09162e-08
-1.07911e-09
3.10897e-08
-6.53326e-10
3.1235e-08
-4.15349e-10
3.13435e-08
-3.21233e-10
3.14099e-08
-3.21793e-10
3.14291e-08
-3.6975e-10
3.13996e-08
-4.33454e-10
3.13233e-08
-4.85027e-10
3.12036e-08
-4.99311e-10
3.10483e-08
-4.59197e-10
3.08686e-08
-3.57503e-10
3.06783e-08
-1.9308e-10
3.04938e-08
2.81012e-11
3.03327e-08
2.94747e-10
3.02132e-08
5.89505e-10
3.01522e-08
8.92175e-10
3.0163e-08
1.18059e-09
3.02528e-08
1.43282e-09
3.04191e-08
1.62976e-09
3.06481e-08
1.75777e-09
3.09125e-08
1.81083e-09
1.79193e-09
3.11749e-08
3.82722e-08
-4.60677e-10
3.825e-08
-5.37711e-10
3.82194e-08
-6.21036e-10
3.81846e-08
-7.07669e-10
3.81506e-08
-7.95412e-10
3.81219e-08
-8.8332e-10
3.81043e-08
-9.71037e-10
3.80997e-08
-1.06243e-09
3.81097e-08
-1.15712e-09
3.81346e-08
-1.26407e-09
3.81742e-08
-1.38476e-09
3.82266e-08
-1.52419e-09
3.82878e-08
-1.68603e-09
3.83537e-08
-1.87233e-09
3.84194e-08
-2.08237e-09
3.84795e-08
-2.31007e-09
3.85295e-08
-2.54265e-09
3.85664e-08
-2.75573e-09
3.85906e-08
-2.91455e-09
3.86083e-08
-2.96762e-09
3.86328e-08
-2.86547e-09
3.86818e-08
-2.55182e-09
3.8761e-08
-1.81761e-09
3.88578e-08
-1.17589e-09
3.8956e-08
-7.51549e-10
3.90402e-08
-4.99531e-10
3.90992e-08
-3.80234e-10
3.91261e-08
-3.48696e-10
3.91152e-08
-3.5888e-10
3.90658e-08
-3.83963e-10
3.8977e-08
-3.96262e-10
3.88527e-08
-3.7499e-10
3.87022e-08
-3.08724e-10
3.85367e-08
-1.91962e-10
3.83698e-08
-2.62423e-11
3.82168e-08
1.81151e-10
3.80935e-08
4.18039e-10
3.80144e-08
6.68548e-10
3.79913e-08
9.15336e-10
3.80308e-08
1.14102e-09
3.81335e-08
1.33013e-09
3.82923e-08
1.47102e-09
3.84927e-08
1.5573e-09
3.87148e-08
1.58875e-09
1.57097e-09
3.89358e-08
4.99341e-08
-4.54787e-10
4.99199e-08
-5.23461e-10
4.98978e-08
-5.98965e-10
4.98699e-08
-6.79747e-10
4.98389e-08
-7.64363e-10
4.98075e-08
-8.52017e-10
4.97792e-08
-9.42678e-10
4.97547e-08
-1.03793e-09
4.9737e-08
-1.13939e-09
4.97243e-08
-1.25143e-09
4.97164e-08
-1.37684e-09
4.97113e-08
-1.5191e-09
4.97064e-08
-1.68112e-09
4.96978e-08
-1.86376e-09
4.96812e-08
-2.06572e-09
4.96516e-08
-2.28043e-09
4.96045e-08
-2.49558e-09
4.9537e-08
-2.68823e-09
4.94493e-08
-2.8269e-09
4.93467e-08
-2.86503e-09
4.92418e-08
-2.76054e-09
4.91515e-08
-2.4615e-09
4.91009e-08
-1.76699e-09
4.90846e-08
-1.15967e-09
4.90866e-08
-7.53543e-10
4.90883e-08
-5.0125e-10
4.90781e-08
-3.69983e-10
4.90511e-08
-3.21656e-10
4.89988e-08
-3.06593e-10
4.89153e-08
-3.00495e-10
4.88024e-08
-2.8337e-10
4.86662e-08
-2.38775e-10
4.85147e-08
-1.5718e-10
4.83584e-08
-3.57146e-11
4.82101e-08
1.22027e-10
4.8083e-08
3.08332e-10
4.79897e-08
5.11288e-10
4.79406e-08
7.17631e-10
4.79424e-08
9.13599e-10
4.79968e-08
1.08658e-09
4.81005e-08
1.22648e-09
4.82447e-08
1.32681e-09
4.84167e-08
1.38527e-09
4.86016e-08
1.4038e-09
1.38779e-09
4.87848e-08
6.41888e-08
-4.56611e-10
6.4184e-08
-5.18633e-10
6.41724e-08
-5.87336e-10
6.41547e-08
-6.62045e-10
6.41323e-08
-7.41954e-10
6.41067e-08
-8.26505e-10
6.40797e-08
-9.15648e-10
6.4052e-08
-1.01018e-09
6.40242e-08
-1.11159e-09
6.3995e-08
-1.22226e-09
6.39629e-08
-1.34472e-09
6.39251e-08
-1.48136e-09
6.38783e-08
-1.63431e-09
6.38181e-08
-1.80354e-09
6.37397e-08
-1.9873e-09
6.36379e-08
-2.17861e-09
6.35082e-08
-2.36587e-09
6.33474e-08
-2.5275e-09
6.31558e-08
-2.6353e-09
6.2938e-08
-2.6472e-09
6.27055e-08
-2.52807e-09
6.24748e-08
-2.23076e-09
6.22895e-08
-1.58171e-09
6.21516e-08
-1.02172e-09
6.20457e-08
-6.47673e-10
6.19559e-08
-4.11474e-10
6.18676e-08
-2.81662e-10
6.17688e-08
-2.22884e-10
6.16568e-08
-1.94575e-10
6.1529e-08
-1.72663e-10
6.13847e-08
-1.39126e-10
6.12286e-08
-8.26053e-11
6.10687e-08
2.6952e-12
6.09145e-08
1.18442e-10
6.07768e-08
2.59731e-10
6.06664e-08
4.18739e-10
6.05922e-08
5.85552e-10
6.05602e-08
7.49565e-10
6.05732e-08
9.0061e-10
6.06297e-08
1.03007e-09
6.07244e-08
1.13177e-09
6.08488e-08
1.20242e-09
6.09924e-08
1.2417e-09
6.11441e-08
1.25206e-09
1.23786e-09
6.12941e-08
8.14229e-08
-4.70292e-10
8.14312e-08
-5.2692e-10
8.14337e-08
-5.8977e-10
8.14303e-08
-6.58654e-10
8.14215e-08
-7.33216e-10
8.14082e-08
-8.13137e-10
8.13909e-08
-8.98358e-10
8.13699e-08
-9.89244e-10
8.1345e-08
-1.0867e-09
8.13148e-08
-1.19201e-09
8.12769e-08
-1.30684e-09
8.1228e-08
-1.43248e-09
8.11638e-08
-1.57012e-09
8.1079e-08
-1.71875e-09
8.09679e-08
-1.87617e-09
8.08243e-08
-2.035e-09
8.06429e-08
-2.18449e-09
8.04199e-08
-2.30446e-09
8.01547e-08
-2.37008e-09
7.98511e-08
-2.34366e-09
7.9519e-08
-2.19598e-09
7.91743e-08
-1.886e-09
7.88748e-08
-1.28228e-09
7.86284e-08
-7.75288e-10
7.84223e-08
-4.41521e-10
7.82423e-08
-2.31549e-10
7.80731e-08
-1.12468e-10
7.79037e-08
-5.34617e-11
7.7731e-08
-2.18892e-11
7.75538e-08
4.52738e-12
7.73723e-08
4.24095e-11
7.71912e-08
9.84745e-11
7.70169e-08
1.76972e-10
7.68581e-08
2.77333e-10
7.67231e-08
3.94719e-10
7.66194e-08
5.22373e-10
7.65525e-08
6.52435e-10
7.65252e-08
7.76948e-10
7.6537e-08
8.88776e-10
7.65848e-08
9.82292e-10
7.66627e-08
1.05386e-09
7.67632e-08
1.10196e-09
7.68778e-08
1.1271e-09
7.69983e-08
1.13146e-09
1.11834e-09
7.71179e-08
1.02098e-07
-4.99364e-10
1.02123e-07
-5.51524e-10
1.02142e-07
-6.09303e-10
1.02156e-07
-6.72746e-10
1.02165e-07
-7.4176e-10
1.02168e-07
-8.16193e-10
1.02166e-07
-8.95985e-10
1.02158e-07
-9.81208e-10
1.02143e-07
-1.07227e-09
1.02121e-07
-1.1696e-09
1.02088e-07
-1.27402e-09
1.02041e-07
-1.38566e-09
1.01976e-07
-1.50475e-09
1.01886e-07
-1.62914e-09
1.01766e-07
-1.7561e-09
1.01609e-07
-1.87771e-09
1.01408e-07
-1.98394e-09
1.0116e-07
-2.05609e-09
1.00862e-07
-2.07223e-09
1.00518e-07
-1.99939e-09
1.00134e-07
-1.81245e-09
9.97259e-08
-1.47777e-09
9.93582e-08
-9.14535e-10
9.90419e-08
-4.59002e-10
9.87654e-08
-1.65043e-10