/*--------------------------------*- C++ -*----------------------------------*\
| =========                 |                                                 |
| \\      /  F ield         | OpenFOAM: The Open Source CFD Toolbox           |
|  \\    /   O peration     | Version:  2312                                  |
|   \\  /    A nd           | Website:  www.openfoam.com                      |
|    \\/     M anipulation  |                                                 |
\*---------------------------------------------------------------------------*/
FoamFile
{
    version     2.0;
    format      ascii;
    arch        "LSB;label=32;scalar=64";
    class       volVectorField;
    location    "17.25";
    object      U;
}
// * * * * * * * * * * * * * * * * * * * * * * * * * * * * * * * * * * * * * //

dimensions      [0 1 -1 0 0 0 0];

internalField   nonuniform List<vector> 
4800
(
(0.000465807 3.15232e-07 -2.69013e-26)
(0.000458085 3.45552e-07 -1.89047e-25)
(0.000453428 3.57009e-07 2.42652e-25)
(0.000450814 3.47549e-07 1.10951e-25)
(0.000449637 3.29162e-07 1.63828e-24)
(0.000449642 2.96576e-07 -3.90144e-24)
(0.00045058 2.56617e-07 3.65414e-24)
(0.000452352 1.80127e-07 -5.30464e-24)
(0.000455042 2.40483e-08 1.70088e-24)
(0.00045883 -2.41552e-07 5.80351e-24)
(0.000464123 -7.54992e-07 -1.78839e-24)
(0.000472207 -2.16361e-06 -1.51444e-25)
(0.000490312 -7.35022e-06 -2.1822e-24)
(0.000536335 -2.82948e-05 1.01535e-24)
(0.000612377 -9.19471e-05 -8.07274e-25)
(0.00144034 1.64588e-06 -8.55845e-26)
(0.00141674 1.19173e-06 1.06669e-25)
(0.00140227 8.29837e-07 -9.83172e-25)
(0.00139388 5.02284e-07 7.34734e-25)
(0.00138977 1.84286e-07 2.3597e-24)
(0.00138913 -1.60974e-07 -3.74613e-24)
(0.00139113 -5.57997e-07 -1.06981e-24)
(0.00139554 -1.08503e-06 -2.55945e-25)
(0.00140259 -1.91221e-06 8.81231e-24)
(0.00141268 -3.24197e-06 -6.51113e-24)
(0.00142701 -5.71524e-06 7.08754e-25)
(0.00144835 -1.15772e-05 1.08101e-24)
(0.00148554 -2.84949e-05 -1.59908e-24)
(0.00154928 -8.00018e-05 -4.84328e-25)
(0.0016179 -0.000195999 2.09177e-24)
(0.00251757 5.29061e-06 -6.127e-26)
(0.00247696 3.82415e-06 6.26083e-26)
(0.00245171 2.68581e-06 6.43544e-25)
(0.0024367 1.69759e-06 -1.5346e-24)
(0.00242891 7.18904e-07 1.50631e-24)
(0.00242684 -3.50054e-07 1.40389e-24)
(0.00242915 -1.58688e-06 -3.62729e-24)
(0.00243526 -3.2188e-06 -2.27586e-24)
(0.00244561 -5.61132e-06 5.46657e-24)
(0.00246043 -9.31347e-06 2.0618e-24)
(0.00248112 -1.58241e-05 -7.16866e-24)
(0.00250983 -2.91271e-05 -1.08775e-24)
(0.00255068 -5.87612e-05 3.06264e-24)
(0.00260246 -0.00012404 4.84719e-24)
(0.00264003 -0.000232488 -2.5042e-24)
(0.00370354 1.18358e-05 2.26503e-26)
(0.00364511 8.66213e-06 -1.57703e-25)
(0.00360825 6.20719e-06 7.03263e-25)
(0.0035858 4.09053e-06 7.52696e-25)
(0.0035735 2.01362e-06 -7.47587e-25)
(0.00356902 -2.57961e-07 -4.2451e-24)
(0.00357072 -2.75423e-06 -2.87251e-24)
(0.00357727 -6.06814e-06 1.09899e-23)
(0.00358935 -1.0818e-05 4.58517e-24)
(0.00360658 -1.782e-05 -6.58498e-24)
(0.00362979 -2.92325e-05 -2.65316e-24)
(0.00365939 -4.95908e-05 -2.02467e-24)
(0.00369465 -8.68871e-05 6.0707e-26)
(0.00372839 -0.000151084 1.4974e-24)
(0.00374235 -0.000237175 7.31793e-27)
(0.00500211 2.19115e-05 -4.15684e-26)
(0.00492579 1.61988e-05 -2.54204e-25)
(0.0048769 1.1788e-05 -1.60779e-25)
(0.00484635 8.00461e-06 4.34656e-25)
(0.00482877 4.35061e-06 -1.23623e-24)
(0.00482083 4.93273e-07 3.08526e-24)
(0.00482084 -3.95072e-06 -5.38274e-25)
(0.00482652 -9.29859e-06 1.89257e-24)
(0.00483839 -1.68927e-05 -1.06146e-23)
(0.00485541 -2.75258e-05 2.01547e-23)
(0.0048774 -4.34567e-05 -1.95007e-23)
(0.00490306 -6.8417e-05 1.02919e-23)
(0.00492903 -0.000107234 -9.55119e-24)
(0.00494763 -0.000162956 9.00959e-24)
(0.0049485 -0.000228001 -3.59227e-24)
(0.00641337 3.62242e-05 5.49223e-26)
(0.00632048 2.70609e-05 1.96594e-25)
(0.00625993 1.99913e-05 -1.03734e-24)
(0.00622114 1.39574e-05 -6.56808e-25)
(0.00619777 8.22888e-06 1.76193e-24)
(0.00618567 2.24753e-06 6.32487e-25)
(0.00618262 -4.36711e-06 -4.94468e-24)
(0.00618629 -1.23341e-05 1.18056e-23)
(0.00619603 -2.28731e-05 -1.53837e-23)
(0.00621042 -3.69073e-05 3.68804e-24)
(0.0062283 -5.62508e-05 1.12252e-23)
(0.00624738 -8.31817e-05 -1.55937e-23)
(0.00626383 -0.00011958 7.8088e-24)
(0.00627191 -0.000164908 8.00152e-24)
(0.0062669 -0.000212954 -6.09027e-24)
(0.00793148 5.52778e-05 4.54184e-26)
(0.00782558 4.17814e-05 -2.68623e-25)
(0.00775521 3.13515e-05 9.61962e-25)
(0.00770897 2.24817e-05 -1.33457e-24)
(0.00767993 1.419e-05 -4.53584e-24)
(0.0076634 5.68702e-06 7.73317e-24)
(0.00765653 -3.50093e-06 -4.69729e-24)
(0.00765693 -1.42167e-05 1.5995e-23)
(0.00766307 -2.75753e-05 -1.08785e-23)
(0.0076731 -4.4397e-05 -5.08641e-24)
(0.00768522 -6.57917e-05 -1.00075e-23)
(0.00769694 -9.26587e-05 9.2013e-24)
(0.00770513 -0.000124977 2.58798e-24)
(0.00770632 -0.000160957 2.21296e-24)
(0.00769897 -0.000196443 -1.94705e-24)
(0.00954236 7.89635e-05 -6.54558e-26)
(0.00943024 6.04874e-05 8.88878e-25)
(0.00935404 4.61262e-05 -2.06923e-24)
(0.0093027 3.39264e-05 -1.69463e-24)
(0.00926922 2.26571e-05 6.34152e-25)
(0.00924874 1.13473e-05 1.24805e-24)
(0.00923805 -6.36135e-07 4.48214e-24)
(0.00923458 -1.40591e-05 -1.22142e-23)
(0.00923633 -2.98846e-05 -6.52101e-24)
(0.00924119 -4.86666e-05 1.79399e-23)
(0.00924715 -7.0837e-05 -5.56089e-24)
(0.009252 -9.63516e-05 1.90143e-23)
(0.00925366 -0.000124346 -1.00096e-23)
(0.00925025 -0.000153022 -3.18856e-24)
(0.00924181 -0.000179864 1.88751e-24)
(0.0112227 0.000106018 -8.6525e-27)
(0.0111148 8.24697e-05 4.91315e-25)
(0.0110394 6.39453e-05 -6.99604e-25)
(0.0109873 4.81604e-05 1.6767e-24)
(0.0109521 3.36883e-05 -1e-23)
(0.0109294 1.94497e-05 1.0559e-23)
(0.0109159 4.70472e-06 -1.66447e-23)
(0.010909 -1.12074e-05 1.02319e-23)
(0.0109066 -2.89832e-05 7.61187e-24)
(0.0109065 -4.88844e-05 1.65245e-23)
(0.010907 -7.08578e-05 -2.1582e-23)
(0.0109063 -9.43997e-05 -3.98969e-24)
(0.0109033 -0.000118502 1.84395e-24)
(0.0108968 -0.000141814 1.31478e-23)
(0.0108877 -0.000162912 -5.34566e-24)
(0.0129428 0.000133513 4.73535e-26)
(0.0128519 0.000105697 -2.06114e-25)
(0.0127862 8.33672e-05 9.21955e-25)
(0.0127395 6.41655e-05 -3.23346e-24)
(0.012707 4.66002e-05 4.90193e-24)
(0.0126852 2.95797e-05 -6.32994e-24)
(0.0126711 1.23586e-05 1.05977e-23)
(0.0126623 -5.61121e-06 1.85813e-24)
(0.0126571 -2.47174e-05 -1.46077e-23)
(0.0126535 -4.49984e-05 2.08001e-23)
(0.0126501 -6.61542e-05 -2.29374e-23)
(0.0126457 -8.75801e-05 -6.74753e-24)
(0.0126397 -0.000108447 1.19038e-23)
(0.0126316 -0.000127898 3.52834e-24)
(0.0126223 -0.000145177 -1.5407e-24)
(0.0146771 0.00015701 1.88275e-25)
(0.0146141 0.000126683 -1.60189e-24)
(0.0145666 0.000101624 -2.57859e-24)
(0.0145319 7.97269e-05 6.11175e-24)
(0.0145071 5.96238e-05 2.73291e-24)
(0.01449 4.03298e-05 -1.71649e-23)
(0.0144783 2.11985e-05 5.28854e-24)
(0.0144703 1.81942e-06 3.80859e-24)
(0.0144645 -1.79438e-05 -1.6461e-23)
(0.0144595 -3.79977e-05 1.71494e-23)
(0.0144544 -5.7987e-05 -1.37122e-23)
(0.0144485 -7.74031e-05 3.52266e-23)
(0.0144415 -9.56792e-05 -1.6926e-23)
(0.0144331 -0.000112341 9.95808e-24)
(0.0144243 -0.000127027 -2.71614e-24)
(0.0164193 0.000172315 -6.94445e-26)
(0.0163871 0.000141525 1.07961e-24)
(0.0163617 0.000115233 -2.12175e-24)
(0.0163428 9.17789e-05 -1.08046e-24)
(0.0163292 7.00741e-05 1.20679e-23)
(0.0163197 4.93466e-05 -1.75264e-24)
(0.0163132 2.91157e-05 -2.14606e-23)
(0.0163083 9.1395e-06 2.50293e-23)
(0.0163043 -1.0594e-05 -5.62476e-24)
(0.0163003 -2.99259e-05 -1.94518e-23)
(0.0162957 -4.85542e-05 2.07435e-23)
(0.0162903 -6.61332e-05 1.11741e-23)
(0.0162841 -8.23306e-05 -9.40511e-24)
(0.0162767 -9.69264e-05 -1.62714e-23)
(0.0162693 -0.000109781 1.36481e-24)
(0.01819 0.000178547 -2.65444e-27)
(0.0181806 0.000148441 -1.1994e-24)
(0.0181732 0.000122026 5.74975e-24)
(0.0181681 9.8039e-05 3.70911e-25)
(0.0181651 7.56791e-05 3.29502e-24)
(0.0181634 5.44114e-05 -1.17815e-23)
(0.0181626 3.39281e-05 1.00675e-23)
(0.0181618 1.41192e-05 2.29151e-24)
(0.0181607 -4.97724e-06 2.06936e-23)
(0.0181589 -2.3212e-05 -3.19745e-23)
(0.0181562 -4.03785e-05 -1.44656e-23)
(0.0181525 -5.6284e-05 -9.55322e-24)
(0.0181482 -7.07689e-05 1.79932e-23)
(0.0181428 -8.37658e-05 -5.1691e-25)
(0.0181374 -9.52555e-05 1.74233e-24)
(0.0200155 0.000179106 -1.78707e-26)
(0.0200163 0.000149575 1.21904e-24)
(0.0200179 0.000123254 -1.77785e-24)
(0.0200202 9.91398e-05 -7.16968e-28)
(0.020023 7.66374e-05 2.37932e-24)
(0.0200259 5.53873e-05 6.06659e-24)
(0.0200285 3.52033e-05 -2.35256e-23)
(0.0200304 1.60311e-05 1.98476e-24)
(0.0200315 -2.09127e-06 1.1964e-23)
(0.0200315 -1.90798e-05 -5.50638e-24)
(0.0200306 -3.48294e-05 1.50369e-23)
(0.0200286 -4.92668e-05 1.05197e-23)
(0.020026 -6.23468e-05 -1.90899e-23)
(0.0200225 -7.40881e-05 1.30495e-23)
(0.0200189 -8.45325e-05 -1.08466e-23)
(0.0218901 0.000178076 -5.30569e-25)
(0.0218932 0.000148813 2.7965e-25)
(0.0218966 0.000122459 2.11086e-24)
(0.0219004 9.8249e-05 -1.09758e-23)
(0.0219044 7.57459e-05 9.67793e-24)
(0.021908 5.47053e-05 -7.09115e-24)
(0.0219111 3.4999e-05 5.08301e-24)
(0.0219134 1.6577e-05 -3.61338e-23)
(0.0219148 -5.70259e-07 5.21544e-23)
(0.0219152 -1.64292e-05 -3.07311e-23)
(0.0219148 -3.09872e-05 2.74508e-23)
(0.0219135 -4.42583e-05 2.29493e-23)
(0.0219117 -5.62701e-05 -4.00927e-23)
(0.0219092 -6.70872e-05 1.30418e-23)
(0.0219067 -7.67806e-05 -5.47738e-25)
(0.0237576 0.000176599 -1.88066e-26)
(0.0237616 0.000147913 -1.57016e-25)
(0.0237653 0.000121783 1.18173e-25)
(0.0237687 9.77227e-05 -3.02288e-25)
(0.023772 7.54448e-05 3.93972e-24)
(0.0237747 5.47877e-05 -6.77954e-24)
(0.0237769 3.56518e-05 6.31553e-24)
(0.0237784 1.79702e-05 -2.00177e-23)
(0.0237791 1.68651e-06 4.55786e-23)
(0.023779 -1.32488e-05 -5.83746e-23)
(0.0237783 -2.68917e-05 4.784e-23)
(0.023777 -3.93107e-05 -1.61602e-23)
(0.0237753 -5.05737e-05 8.39515e-25)
(0.023773 -6.0768e-05 3.7048e-24)
(0.0237707 -6.99762e-05 -7.10785e-24)
(0.0255253 0.000173577 -1.55679e-24)
(0.0255314 0.000146164 2.80841e-24)
(0.0255359 0.000120874 -9.49988e-25)
(0.0255396 9.74946e-05 -1.5141e-24)
(0.0255425 7.58794e-05 6.19141e-24)
(0.0255448 5.59253e-05 -6.3104e-24)
(0.0255464 3.755e-05 -5.70861e-24)
(0.0255472 2.06705e-05 -1.38142e-23)
(0.0255474 5.20444e-06 7.03342e-24)
(0.0255469 -8.93846e-06 3.36353e-23)
(0.0255459 -2.18521e-05 -1.77688e-23)
(0.0255444 -3.36296e-05 1.06032e-23)
(0.0255427 -4.43562e-05 -4.36467e-24)
(0.0255404 -5.4126e-05 -1.29381e-23)
(0.0255382 -6.30225e-05 6.62304e-24)
(0.0270768 0.000167944 5.11135e-25)
(0.027085 0.000142512 -8.88203e-25)
(0.0270909 0.000118731 -2.72427e-25)
(0.0270952 9.66222e-05 -7.06032e-25)
(0.0270984 7.61556e-05 -1.8439e-24)
(0.0271007 5.72708e-05 9.53693e-24)
(0.0271023 3.98966e-05 -7.68608e-24)
(0.027103 2.39407e-05 -4.96929e-24)
(0.0271032 9.3106e-06 4.55173e-24)
(0.0271027 -4.09833e-06 -5.37712e-24)
(0.0271017 -1.63786e-05 1.25303e-23)
(0.0271003 -2.76293e-05 6.36164e-24)
(0.0270986 -3.79407e-05 -2.37448e-23)
(0.0270966 -4.7404e-05 1.64087e-23)
(0.0270945 -5.60949e-05 -3.34692e-24)
(0.0282607 0.000159528 1.51016e-24)
(0.0282705 0.00013663 2.55167e-24)
(0.0282776 0.000114928 -5.68196e-24)
(0.0282828 9.46077e-05 -3.16573e-25)
(0.0282866 7.57217e-05 1.3286e-24)
(0.0282893 5.82431e-05 -2.87976e-24)
(0.0282911 4.21154e-05 -4.62255e-24)
(0.0282921 2.72484e-05 9.98751e-24)
(0.0282924 1.3554e-05 1.11889e-23)
(0.0282921 9.27998e-07 -2.71816e-23)
(0.0282914 -1.0714e-05 1.56841e-23)
(0.0282903 -2.14669e-05 -1.0973e-24)
(0.0282889 -3.14112e-05 -9.15472e-25)
(0.0282872 -4.06245e-05 1.23497e-24)
(0.0282855 -4.91682e-05 -5.69954e-25)
(0.0288719 0.00014692 -3.9594e-24)
(0.0288835 0.000126989 -8.52734e-24)
(0.0288921 0.000107846 4.58017e-24)
(0.0288986 8.97623e-05 1.55562e-23)
(0.0289035 7.28381e-05 -4.34491e-24)
(0.0289071 5.70778e-05 -1.23424e-24)
(0.0289098 4.24405e-05 5.77687e-25)
(0.0289116 2.8856e-05 -4.40376e-24)
(0.0289126 1.62497e-05 1.19943e-23)
(0.028913 4.53973e-06 -5.31055e-24)
(0.0289129 -6.34937e-06 3.21282e-24)
(0.0289122 -1.64957e-05 -5.07128e-24)
(0.0289111 -2.59592e-05 -5.82246e-24)
(0.0289097 -3.48001e-05 8.72548e-24)
(0.028908 -4.30656e-05 -3.81632e-24)
(0.0286918 0.000132817 6.27431e-24)
(0.028704 0.000115828 -1.44202e-23)
(0.0287133 9.93014e-05 2.35873e-24)
(0.0287206 8.35292e-05 2.08346e-23)
(0.0287262 6.86323e-05 -2.02177e-23)
(0.0287305 5.46364e-05 7.04544e-24)
(0.0287338 4.1514e-05 4.58839e-24)
(0.0287362 2.92174e-05 -1.0345e-23)
(0.0287379 1.7689e-05 2.35214e-24)
(0.0287389 6.87806e-06 1.22393e-24)
(0.0287393 -3.26616e-06 -9.7138e-25)
(0.0287391 -1.27785e-05 2.09499e-24)
(0.0287385 -2.17003e-05 -2.58173e-24)
(0.0287376 -3.00834e-05 1.76099e-24)
(0.0287363 -3.7969e-05 -8.18707e-25)
(0.0277518 0.000117434 3.89163e-24)
(0.0277648 0.000103145 -8.21089e-24)
(0.0277749 8.91135e-05 -5.6581e-24)
(0.0277827 7.5604e-05 2.65867e-23)
(0.0277887 6.2735e-05 -2.4413e-23)
(0.0277932 5.05355e-05 2.60278e-24)
(0.0277965 3.89933e-05 4.08195e-24)
(0.0277989 2.80744e-05 2.19922e-24)
(0.0278003 1.77457e-05 1.72974e-24)
(0.0278011 7.97234e-06 -7.92945e-24)
(0.0278012 -1.26854e-06 5.09462e-24)
(0.0278009 -1.00086e-05 7.28617e-25)
(0.0278 -1.82779e-05 -1.52152e-24)
(0.0277988 -2.61084e-05 8.49153e-25)
(0.0277971 -3.35239e-05 5.74274e-25)
(0.0262554 0.000102071 9.68009e-24)
(0.0262687 9.01421e-05 -1.71912e-23)
(0.0262794 7.83423e-05 3.50906e-24)
(0.026288 6.68969e-05 -8.34445e-24)
(0.0262949 5.59075e-05 -1.07907e-23)
(0.0263004 4.54033e-05 3.65877e-23)
(0.0263048 3.53829e-05 -1.41331e-23)
(0.0263081 2.58284e-05 3.94606e-24)
(0.0263105 1.67229e-05 -2.16136e-24)
(0.0263121 8.04277e-06 -5.04148e-24)
(0.026313 -2.32841e-07 9.18584e-24)
(0.0263134 -8.13902e-06 -4.54969e-24)
(0.0263131 -1.56877e-05 7.05663e-25)
(0.0263123 -2.28879e-05 2.56133e-25)
(0.0263111 -2.97443e-05 1.71972e-26)
(0.0244399 8.87058e-05 3.72701e-24)
(0.0244532 7.87048e-05 -1.9264e-23)
(0.0244642 6.87393e-05 3.34102e-23)
(0.0244732 5.8993e-05 -2.5492e-23)
(0.0244806 4.955e-05 2.54368e-23)
(0.0244866 4.04425e-05 -8.44963e-24)
(0.0244913 3.16762e-05 -5.82396e-24)
(0.0244951 2.32485e-05 -6.31238e-24)
(0.0244978 1.5149e-05 1.09321e-23)
(0.0244998 7.36899e-06 -5.95721e-25)
(0.024501 -1.06599e-07 -1.01669e-23)
(0.0245016 -7.27859e-06 -1.10169e-24)
(0.0245014 -1.41509e-05 1.98854e-24)
(0.0245008 -2.07278e-05 -3.42681e-25)
(0.0244996 -2.70082e-05 5.17402e-26)
(0.0224424 7.63327e-05 4.96015e-25)
(0.0224559 6.79439e-05 -7.25022e-24)
(0.0224672 5.95245e-05 -4.05247e-24)
(0.0224766 5.12197e-05 3.31051e-23)
(0.0224844 4.31025e-05 -3.25365e-23)
(0.0224909 3.52068e-05 9.50477e-24)
(0.0224961 2.75493e-05 1.59999e-24)
(0.0225002 2.0136e-05 -8.35863e-25)
(0.0225033 1.29705e-05 -3.88676e-24)
(0.0225056 6.05161e-06 1.67125e-23)
(0.0225071 -6.16768e-07 -1.32509e-23)
(0.0225079 -7.03443e-06 -5.26973e-25)
(0.0225079 -1.31989e-05 1.07463e-24)
(0.0225074 -1.9109e-05 7.14414e-25)
(0.0225062 -2.47605e-05 -5.31615e-25)
(0.0203664 6.4822e-05 7.38283e-25)
(0.0203801 5.77787e-05 6.73898e-24)
(0.0203917 5.06697e-05 -7.73258e-24)
(0.0204016 4.36088e-05 -5.35158e-24)
(0.0204099 3.66579e-05 3.40453e-23)
(0.0204168 2.98518e-05 -2.60373e-23)
(0.0204224 2.32136e-05 -5.97494e-25)
(0.020427 1.67559e-05 -5.35926e-24)
(0.0204305 1.04896e-05 -4.1097e-25)
(0.0204331 4.41811e-06 7.82399e-25)
(0.0204349 -1.44558e-06 -2.74325e-24)
(0.0204358 -7.10285e-06 2.33115e-24)
(0.020436 -1.25481e-05 8.38421e-25)
(0.0204356 -1.77756e-05 7.15162e-25)
(0.0204344 -2.27778e-05 6.50996e-25)
(0.0182873 5.41189e-05 5.26219e-24)
(0.0183011 4.82099e-05 -8.06984e-24)
(0.0183131 4.22269e-05 -6.48089e-24)
(0.0183234 3.62562e-05 1.97671e-23)
(0.0183321 3.03467e-05 -7.07966e-24)
(0.0183394 2.45324e-05 -9.9536e-24)
(0.0183455 1.88384e-05 3.48235e-24)
(0.0183504 1.32806e-05 7.75949e-24)
(0.0183543 7.87246e-06 -1.23065e-23)
(0.0183572 2.61667e-06 1.21374e-23)
(0.0183591 -2.46882e-06 -6.42271e-24)
(0.0183603 -7.38382e-06 2.70254e-24)
(0.0183605 -1.2119e-05 -3.37112e-24)
(0.0183601 -1.6666e-05 3.2485e-24)
(0.0183588 -2.10155e-05 -7.36569e-25)
(0.0162579 4.41906e-05 -1.02136e-24)
(0.0162719 3.92608e-05 -3.54634e-24)
(0.016284 3.42656e-05 -1.13045e-23)
(0.0162946 2.92655e-05 3.15609e-23)
(0.0163035 2.42966e-05 -5.65682e-24)
(0.0163111 1.93922e-05 -8.89536e-24)
(0.0163175 1.45739e-05 3.0768e-24)
(0.0163226 9.86393e-06 -4.46292e-24)
(0.0163266 5.26546e-06 -9.60115e-24)
(0.0163296 8.07819e-07 9.2496e-24)
(0.0163316 -3.52917e-06 4.42147e-25)
(0.0163327 -7.7246e-06 -2.86893e-24)
(0.0163329 -1.17621e-05 3.27586e-24)
(0.0163323 -1.56339e-05 1.8153e-25)
(0.0163308 -1.93313e-05 -2.32708e-25)
(0.0143134 3.51156e-05 3.9304e-24)
(0.0143272 3.10531e-05 5.78554e-24)
(0.0143392 2.69413e-05 -5.39102e-24)
(0.0143497 2.28158e-05 -1.17843e-23)
(0.0143586 1.87052e-05 1.58648e-23)
(0.0143662 1.46395e-05 -1.73673e-23)
(0.0143725 1.06397e-05 -6.74219e-25)
(0.0143775 6.72376e-06 6.7306e-24)
(0.0143814 2.89916e-06 2.3418e-24)
(0.0143842 -8.12958e-07 -4.82235e-24)
(0.0143859 -4.42587e-06 2.68426e-26)
(0.0143867 -7.91507e-06 9.76634e-24)
(0.0143865 -1.1267e-05 -3.72989e-24)
(0.0143855 -1.4475e-05 -9.24321e-25)
(0.0143835 -1.75304e-05 -5.53394e-26)
(0.0124747 2.70538e-05 -4.0826e-24)
(0.0124879 2.37712e-05 5.2559e-24)
(0.0124995 2.0455e-05 5.92292e-25)
(0.0125094 1.71211e-05 1.06522e-23)
(0.012518 1.37945e-05 -8.68073e-24)
(0.0125251 1.05017e-05 6.95307e-25)
(0.0125309 7.26194e-06 -9.30863e-25)
(0.0125355 4.08579e-06 -2.73338e-24)
(0.0125389 9.90814e-07 2.38644e-24)
(0.0125412 -2.03325e-06 -7.70384e-24)
(0.0125424 -4.95195e-06 5.45915e-25)
(0.0125426 -7.7639e-06 1.83697e-24)
(0.0125418 -1.04621e-05 1.13847e-24)
(0.0125401 -1.30386e-05 4.40353e-25)
(0.0125374 -1.5484e-05 1.53317e-25)
(0.010753 2.01559e-05 3.02376e-24)
(0.0107651 1.75724e-05 -2.39188e-24)
(0.0107757 1.49671e-05 -1.05282e-23)
(0.0107849 1.2343e-05 9.88563e-24)
(0.0107926 9.72456e-06 1.38286e-23)
(0.0107989 7.13337e-06 -3.49891e-24)
(0.010804 4.58437e-06 -7.15169e-24)
(0.0108078 2.08689e-06 -1.00463e-23)
(0.0108105 -3.4647e-07 7.57818e-24)
(0.0108121 -2.71972e-06 4.42932e-25)
(0.0108125 -5.00548e-06 -1.70098e-24)
(0.010812 -7.20183e-06 -4.56682e-25)
(0.0108104 -9.30405e-06 9.39695e-25)
(0.0108079 -1.13047e-05 -3.56274e-26)
(0.0108045 -1.3195e-05 -1.76834e-25)
(0.00915249 1.44905e-05 -1.90271e-24)
(0.00916325 1.2521e-05 -1.35767e-24)
(0.00917261 1.05373e-05 1.65084e-24)
(0.00918057 8.53647e-06 -5.25071e-24)
(0.00918719 6.54237e-06 1.72367e-23)
(0.00919253 4.57065e-06 -2.28789e-23)
(0.00919665 2.63192e-06 2.24666e-23)
(0.00919959 7.36349e-07 -9.52206e-24)
(0.0092014 -1.11499e-06 2.16967e-24)
(0.00920211 -2.90946e-06 3.11918e-26)
(0.00920178 -4.63633e-06 -1.69394e-24)
(0.00920046 -6.29189e-06 5.66497e-25)
(0.00919816 -7.87135e-06 -1.28571e-24)
(0.00919497 -9.3684e-06 -1.66638e-25)
(0.00919087 -1.07758e-05 8.30656e-26)
(0.00767345 1.00224e-05 -9.24284e-25)
(0.00768263 8.57507e-06 2.36423e-25)
(0.00769056 7.11912e-06 5.15106e-25)
(0.00769721 5.64979e-06 -2.39558e-24)
(0.00770264 4.18882e-06 -1.08439e-24)
(0.00770688 2.74549e-06 9.37121e-24)
(0.00770999 1.32774e-06 -5.51208e-24)
(0.007712 -5.54411e-08 7.91268e-25)
(0.00771296 -1.40702e-06 -7.65791e-25)
(0.00771289 -2.71249e-06 -8.2647e-25)
(0.00771185 -3.96666e-06 -2.38757e-25)
(0.00770988 -5.16575e-06 1.56363e-24)
(0.00770701 -6.30569e-06 3.85501e-25)
(0.0077033 -7.3814e-06 -9.21153e-25)
(0.00769876 -8.38744e-06 -1.3853e-25)
(0.00631347 6.63314e-06 -3.35979e-25)
(0.00632102 5.61384e-06 -1.11459e-25)
(0.00632749 4.59119e-06 -5.42382e-24)
(0.00633282 3.56e-06 1.43174e-24)
(0.00633706 2.53797e-06 -3.91443e-24)
(0.00634025 1.52875e-06 2.73028e-24)
(0.00634242 5.38989e-07 5.18655e-24)
(0.0063436 -4.25193e-07 3.89498e-24)
(0.00634383 -1.36621e-06 -5.46312e-24)
(0.00634315 -2.2737e-06 1.64704e-24)
(0.00634159 -3.1436e-06 1.39973e-24)
(0.00633919 -3.97285e-06 -1.99762e-24)
(0.00633598 -4.75851e-06 1.06416e-24)
(0.00633203 -5.49663e-06 -7.28438e-26)
(0.00632734 -6.18321e-06 2.59803e-25)
(0.00506848 4.15893e-06 -1.3152e-24)
(0.00507446 3.47735e-06 -1.80391e-24)
(0.00507952 2.79803e-06 -3.30089e-25)
(0.00508362 2.11475e-06 4.48913e-24)
(0.00508678 1.43996e-06 -3.18167e-24)
(0.00508904 7.73255e-07 -6.20696e-25)
(0.00509041 1.21339e-07 5.13084e-24)
(0.00509094 -5.13424e-07 1.49978e-26)
(0.00509064 -1.13279e-06 -1.04004e-24)
(0.00508956 -1.72899e-06 -3.80424e-24)
(0.00508771 -2.29925e-06 4.27766e-25)
(0.00508514 -2.84136e-06 2.60308e-24)
(0.00508188 -3.35342e-06 -3.34799e-25)
(0.00507798 -3.83239e-06 -3.47749e-25)
(0.00507346 -4.27533e-06 2.28188e-25)
(0.00393324 2.42449e-06 -2.87265e-25)
(0.00393778 1.99836e-06 1.6881e-26)
(0.00394157 1.58004e-06 2.15162e-24)
(0.00394457 1.16117e-06 1.44252e-24)
(0.0039468 7.48936e-07 -9.91485e-25)
(0.00394829 3.41052e-07 -2.45857e-24)
(0.00394906 -5.6445e-08 9.964e-25)
(0.00394912 -4.44767e-07 -4.18074e-24)
(0.00394851 -8.21852e-07 3.22e-24)
(0.00394725 -1.18561e-06 1.65116e-24)
(0.00394536 -1.53271e-06 -1.34996e-26)
(0.00394288 -1.86184e-06 -1.7946e-24)
(0.00393983 -2.17182e-06 3.21778e-25)
(0.00393625 -2.46036e-06 -2.38743e-25)
(0.00393217 -2.72515e-06 1.17369e-25)
(0.00290172 1.26451e-06 -5.28565e-25)
(0.00290497 1.01978e-06 1.0617e-26)
(0.00290765 7.8791e-07 1.72389e-24)
(0.00290971 5.58015e-07 -1.07777e-24)
(0.00291119 3.33114e-07 4.44039e-24)
(0.00291209 1.12022e-07 -8.09127e-24)
(0.00291242 -1.07618e-07 6.54555e-24)
(0.00291223 -3.16103e-07 -5.46042e-24)
(0.0029115 -5.24464e-07 3.94815e-24)
(0.00291026 -7.21659e-07 -2.52812e-24)
(0.00290854 -9.0997e-07 8.68448e-25)
(0.00290636 -1.08806e-06 1.2529e-25)
(0.00290375 -1.25498e-06 1.95433e-25)
(0.00290073 -1.40908e-06 -2.39862e-25)
(0.00289733 -1.54846e-06 4.84873e-26)
(0.0019674 5.4014e-07 8.01476e-25)
(0.00196952 4.12058e-07 8.66752e-25)
(0.00197124 3.01424e-07 -3.70503e-24)
(0.00197253 1.94676e-07 2.71054e-24)
(0.0019734 9.21807e-08 -2.62867e-26)
(0.00197387 -4.4518e-09 6.98712e-25)
(0.00197394 -1.05999e-07 -8.52389e-25)
(0.00197364 -2.00906e-07 -1.78182e-24)
(0.00197296 -2.9243e-07 1.7707e-24)
(0.00197193 -3.78773e-07 1.83434e-25)
(0.00197055 -4.60202e-07 -1.40548e-24)
(0.00196885 -5.35921e-07 5.04444e-25)
(0.00196685 -6.06641e-07 2.96312e-25)
(0.00196456 -6.71527e-07 -3.53369e-26)
(0.001962 -7.29016e-07 -3.25925e-26)
(0.00112347 1.59333e-07 -8.08217e-25)
(0.0011246 1.12412e-07 2.47189e-24)
(0.00112551 8.19157e-08 1.47525e-24)
(0.00112616 5.21572e-08 -2.65478e-24)
(0.00112657 2.28077e-08 -3.11124e-25)
(0.00112674 -4.83193e-09 -2.75833e-25)
(0.00112669 -3.66491e-08 8.41268e-25)
(0.00112641 -6.59031e-08 -1.42583e-24)
(0.00112592 -9.41104e-08 1.93721e-24)
(0.00112522 -1.21228e-07 -9.48176e-25)
(0.00112431 -1.45457e-07 -6.12239e-25)
(0.00112321 -1.65351e-07 3.68353e-25)
(0.00112194 -1.86987e-07 -4.29699e-25)
(0.0011205 -2.10595e-07 4.27825e-25)
(0.00111891 -2.34866e-07 -7.06059e-26)
(0.000363041 5.93986e-08 -5.76629e-27)
(0.000363317 1.13693e-07 4.79867e-25)
(0.000363526 1.58208e-07 5.49188e-25)
(0.000363658 1.87375e-07 -8.6048e-25)
(0.00036372 2.03182e-07 1.78858e-24)
(0.000363712 2.0769e-07 -1.94185e-24)
(0.000363631 2.02503e-07 1.27392e-25)
(0.000363482 1.89857e-07 1.06917e-24)
(0.000363264 1.707e-07 -1.47774e-24)
(0.000362979 1.46384e-07 -2.65446e-25)
(0.00036263 1.19175e-07 1.01271e-24)
(0.00036222 9.08778e-08 -4.45666e-25)
(0.000361752 5.78301e-08 -1.61822e-25)
(0.000361231 2.0344e-08 1.34765e-25)
(0.000360661 -2.04768e-08 -5.83956e-27)
(0.000908112 -0.000239161 8.01744e-26)
(0.00104056 -0.000159448 2.04164e-24)
(0.00126364 -7.76603e-05 -5.85389e-24)
(0.00149197 -1.18321e-05 8.47663e-24)
(0.00171167 3.96685e-05 -3.17931e-24)
(0.00192753 7.75967e-05 -3.03657e-24)
(0.0021395 0.000104412 3.44242e-24)
(0.00234813 0.000122153 -6.78011e-24)
(0.00255415 0.000132534 4.43272e-25)
(0.00275815 0.000137034 4.25873e-24)
(0.00296067 0.000136925 -8.10053e-25)
(0.00316222 0.000133341 8.7377e-25)
(0.00336336 0.000127335 -8.56431e-26)
(0.00356468 0.000119944 5.41216e-25)
(0.003767 0.000112249 -1.98604e-24)
(0.00397143 0.000105436 1.08643e-24)
(0.00417968 0.000100801 -3.35079e-25)
(0.00439417 9.97562e-05 2.61865e-26)
(0.00461872 0.000103438 7.77542e-25)
(0.00485811 0.000112385 -4.85825e-25)
(0.0051188 0.000124838 5.95543e-26)
(0.00540578 0.000135915 -5.20475e-26)
(0.00569712 0.000134523 9.91779e-26)
(0.00595589 0.000113378 3.83244e-25)
(0.00616926 7.32656e-05 -6.87833e-25)
(0.00633705 1.69996e-05 -4.61357e-25)
(0.00646085 -5.23466e-05 2.60604e-26)
(0.00654291 -0.000132137 1.12078e-24)
(0.00658498 -0.000219876 1.41835e-24)
(0.00658802 -0.000312704 -2.74779e-24)
(0.0065524 -0.000406931 1.86901e-24)
(0.0064782 -0.000497797 -1.31771e-24)
(0.00636569 -0.000579465 1.50307e-25)
(0.0062155 -0.000645155 -1.17368e-24)
(0.00602879 -0.000687299 1.13103e-24)
(0.00580719 -0.00069758 7.47392e-24)
(0.00555267 -0.000666716 -2.06007e-24)
(0.00526753 -0.000583736 1.91659e-24)
(0.00495445 -0.000434581 1.02709e-24)
(0.00461715 -0.000200512 -1.10229e-23)
(0.00425942 0.000140509 -1.34525e-25)
(0.0038863 0.000602255 4.64604e-24)
(0.00348654 0.00115487 1.48382e-24)
(0.00307806 0.00167667 -6.51515e-24)
(0.00284684 0.00180085 -3.23426e-25)
(0.00170982 -0.00031929 -2.34932e-24)
(0.00176529 -0.000274141 -3.28848e-24)
(0.00190328 -0.000195433 6.90792e-24)
(0.00207678 -0.000122512 3.18826e-24)
(0.00226148 -6.0823e-05 -1.11442e-23)
(0.00245265 -1.24915e-05 1.18537e-23)
(0.00264619 2.38805e-05 -4.24383e-24)
(0.00284026 5.01635e-05 3.35539e-24)
(0.00303424 6.81131e-05 -4.43716e-24)
(0.00322793 7.93151e-05 5.1328e-26)
(0.00342138 8.51505e-05 -2.34224e-24)
(0.00361477 8.68446e-05 4.64151e-24)
(0.00380843 8.55247e-05 -2.56319e-24)
(0.00400278 8.22805e-05 -2.29432e-24)
(0.00419851 7.82252e-05 -1.51514e-24)
(0.00439655 7.45547e-05 2.90862e-24)
(0.00459843 7.25553e-05 -3.42691e-25)
(0.00480632 7.35994e-05 1.50141e-24)
(0.00502373 7.87874e-05 2.32306e-25)
(0.00525502 8.86436e-05 -4.42916e-25)
(0.00550628 0.000101521 -1.83157e-25)
(0.00578225 0.000112877 -1.10181e-25)
(0.00606237 0.000112182 5.36929e-25)
(0.00631182 9.26529e-05 6.57088e-25)
(0.00651843 5.51286e-05 -5.91354e-25)
(0.00668188 2.30297e-06 -2.8193e-24)
(0.00680343 -6.28241e-05 3.75581e-24)
(0.00688495 -0.000137585 -2.55327e-24)
(0.00692796 -0.000219369 8.52572e-25)
(0.00693335 -0.00030518 -4.03149e-25)
(0.00690151 -0.000391218 2.624e-24)
(0.00683278 -0.000472677 -2.51427e-24)
(0.00672773 -0.000543739 -2.04098e-25)
(0.00658748 -0.000597698 6.07113e-24)
(0.00641381 -0.000627091 -1.04135e-23)
(0.00620925 -0.000623726 2.83643e-24)
(0.00597712 -0.00057848 1.32996e-23)
(0.00572169 -0.000480706 -3.66088e-24)
(0.00544881 -0.000317058 -1.06742e-23)
(0.00516751 -7.00004e-05 -6.42481e-24)
(0.00489136 0.000281154 1.4651e-23)
(0.00464316 0.000750631 -1.40872e-23)
(0.00444677 0.00130878 -3.07925e-24)
(0.00434227 0.00182296 9.18889e-24)
(0.00437237 0.00188935 2.91168e-24)
(0.00265678 -0.000327555 -2.66969e-26)
(0.00266519 -0.000322567 -3.7659e-24)
(0.00272426 -0.000275533 7.3166e-24)
(0.00283361 -0.000212889 6.11992e-24)
(0.00296937 -0.000151688 -1.00134e-23)
(0.00312281 -9.89194e-05 2.08004e-25)
(0.00328687 -5.6226e-05 9.57799e-25)
(0.00345725 -2.31504e-05 1.03315e-23)
(0.00363159 1.44236e-06 -1.22336e-23)
(0.00380857 1.88837e-05 7.50134e-24)
(0.00398744 3.04647e-05 2.25169e-24)
(0.00416788 3.73916e-05 -1.24445e-23)
(0.00434982 4.08004e-05 4.49244e-24)
(0.00453343 4.17952e-05 1.78418e-24)
(0.00471915 4.14989e-05 -3.69596e-24)
(0.00490767 4.11007e-05 5.96803e-24)
(0.00510033 4.18662e-05 -4.18669e-24)
(0.00529897 4.51218e-05 -7.25305e-26)
(0.00550676 5.19269e-05 3.25058e-25)
(0.0057276 6.27887e-05 3.4278e-25)
(0.00596711 7.61692e-05 4.4694e-26)
(0.00622976 8.78656e-05 1.94253e-25)
(0.00649644 8.79118e-05 -5.42011e-25)
(0.0067346 7.00342e-05 1.61498e-24)
(0.00693277 3.5145e-05 -2.54618e-24)
(0.00709049 -1.41699e-05 1.46396e-24)
(0.00720864 -7.49714e-05 -3.27145e-24)
(0.00728875 -0.00014456 4.38766e-24)
(0.00733207 -0.000220208 -3.67957e-24)
(0.00733939 -0.000298784 5.55528e-25)
(0.00731122 -0.000376385 7.74665e-25)
(0.00724808 -0.000448172 2.98656e-24)
(0.00715092 -0.000508376 -7.07874e-25)
(0.00702137 -0.000550423 3.1555e-24)
(0.0068619 -0.000567071 -9.26715e-24)
(0.00667601 -0.000550457 1.64454e-23)
(0.00646836 -0.000491993 -1.13747e-23)
(0.00624525 -0.000381997 1.70317e-23)
(0.00601546 -0.000209051 -3.26214e-23)
(0.00579242 4.07249e-05 1.24455e-23)
(0.00559658 0.000381844 4.33066e-24)
(0.00545964 0.000820303 6.76367e-24)
(0.00541639 0.00131977 -8.40203e-24)
(0.00548983 0.00174992 2.35612e-24)
(0.00564868 0.00179247 -1.42018e-24)
(0.00373183 -0.000311291 -9.95327e-25)
(0.00371392 -0.000331235 -1.51639e-24)
(0.00372388 -0.000313071 -6.47446e-24)
(0.00377159 -0.00027318 1.79172e-24)
(0.00385401 -0.000222694 1.18859e-24)
(0.00396128 -0.000173249 5.10175e-24)
(0.00408649 -0.00012947 -1.06377e-23)
(0.00422423 -9.30058e-05 4.07026e-24)
(0.00437082 -6.39459e-05 1.34836e-23)
(0.00452384 -4.16465e-05 -3.58996e-24)
(0.0046817 -2.51899e-05 -3.35616e-24)
(0.00484341 -1.35689e-05 -5.32764e-25)
(0.00500846 -5.75236e-06 1.74096e-24)
(0.00517662 -6.94833e-07 -3.39725e-24)
(0.00534802 2.68769e-06 7.8646e-25)
(0.00552311 5.54476e-06 -2.73825e-25)
(0.00570291 9.09731e-06 -1.6137e-24)
(0.00588893 1.46082e-05 6.25751e-25)
(0.00608396 2.30841e-05 2.79162e-24)
(0.00629139 3.50049e-05 -3.27993e-25)
(0.00651634 4.89362e-05 -6.22703e-25)
(0.00676287 6.10118e-05 -1.70894e-25)
(0.00701345 6.18303e-05 -9.55735e-25)
(0.00723797 4.56435e-05 -5.53199e-26)
(0.00742568 1.34489e-05 -2.25888e-24)
(0.00757593 -3.22625e-05 3.90466e-24)
(0.00768924 -8.86073e-05 -3.27166e-24)
(0.00776676 -0.000152851 6.21176e-24)
(0.00780949 -0.000222156 -5.0571e-24)
(0.00781814 -0.000293269 1.28082e-24)
(0.00779328 -0.000362212 1.7249e-24)
(0.00773571 -0.000424153 -1.87014e-25)
(0.00764675 -0.00047344 -3.00584e-25)
(0.00752855 -0.00050374 -1.08739e-24)
(0.00738428 -0.000508199 1.36186e-24)
(0.00721837 -0.000479555 -5.11445e-24)
(0.00703675 -0.000410173 2.41279e-23)
(0.00684738 -0.000291993 -1.28016e-23)
(0.00666118 -0.000116527 -4.41817e-25)
(0.00649387 0.000124851 -2.89449e-23)
(0.00636779 0.000438393 2.19347e-23)
(0.00631358 0.000820126 -7.94194e-24)
(0.00636139 0.00123256 1.97841e-24)
(0.00651666 0.00157465 9.83743e-24)
(0.00673267 0.00165365 -2.34256e-24)
(0.00493014 -0.000285522 -4.11273e-24)