/*--------------------------------*- C++ -*----------------------------------*\
| =========                 |                                                 |
| \\      /  F ield         | OpenFOAM: The Open Source CFD Toolbox           |
|  \\    /   O peration     | Version:  2312                                  |
|   \\  /    A nd           | Website:  www.openfoam.com                      |
|    \\/     M anipulation  |                                                 |
\*---------------------------------------------------------------------------*/
FoamFile
{
    version     2.0;
    format      ascii;
    arch        "LSB;label=32;scalar=64";
    class       volScalarField;
    location    "171.25";
    object      p;
}
// * * * * * * * * * * * * * * * * * * * * * * * * * * * * * * * * * * * * * //

dimensions      [0 2 -2 0 0 0 0];

internalField   nonuniform List<scalar> 
4800
(
-3.67154e-13
-1.08607e-06
-2.00505e-06
-2.80309e-06
-3.50512e-06
-4.1372e-06
-4.70357e-06
-5.21269e-06
-5.67446e-06
-6.09567e-06
-6.48116e-06
-6.83168e-06
-7.13874e-06
-7.64349e-06
-9.32075e-06
1.11024e-08
-1.07376e-06
-1.99152e-06
-2.78901e-06
-3.49134e-06
-4.12433e-06
-4.69269e-06
-5.20514e-06
-5.67238e-06
-6.10317e-06
-6.5072e-06
-6.89883e-06
-7.29076e-06
-7.7905e-06
-8.64407e-06
2.28886e-08
-1.0605e-06
-1.97713e-06
-2.77408e-06
-3.47546e-06
-4.10871e-06
-4.67848e-06
-5.1934e-06
-5.66482e-06
-6.10229e-06
-6.5166e-06
-6.92248e-06
-7.32676e-06
-7.73419e-06
-8.11539e-06
3.51117e-08
-1.04608e-06
-1.96093e-06
-2.75706e-06
-3.45652e-06
-4.08915e-06
-4.6595e-06
-5.17523e-06
-5.64766e-06
-6.08565e-06
-6.49704e-06
-6.88745e-06
-7.24684e-06
-7.54015e-06
-7.69212e-06
4.90958e-08
-1.02901e-06
-1.9412e-06
-2.73549e-06
-3.43319e-06
-4.06294e-06
-4.63233e-06
-5.14656e-06
-5.6156e-06
-6.04624e-06
-6.44112e-06
-6.79573e-06
-7.0887e-06
-7.2784e-06
-7.3066e-06
6.64009e-08
-1.00766e-06
-1.91621e-06
-2.70707e-06
-3.40314e-06
-4.02744e-06
-4.59291e-06
-5.10208e-06
-5.56193e-06
-5.97616e-06
-6.34206e-06
-6.64846e-06
-6.872e-06
-6.98097e-06
-6.94571e-06
8.94982e-08
-9.79591e-07
-1.88335e-06
-2.66924e-06
-3.36147e-06
-3.97907e-06
-4.53654e-06
-5.03535e-06
-5.47909e-06
-5.86792e-06
-6.19551e-06
-6.44906e-06
-6.61043e-06
-6.66301e-06
-6.59918e-06
1.2248e-07
-9.40877e-07
-1.83857e-06
-2.61777e-06
-3.30298e-06
-3.91185e-06
-4.45667e-06
-4.93893e-06
-5.35936e-06
-5.71551e-06
-6.00018e-06
-6.20327e-06
-6.31494e-06
-6.33158e-06
-6.25779e-06
1.71415e-07
-8.85753e-07
-1.77603e-06
-2.54651e-06
-3.2217e-06
-3.81779e-06
-4.34502e-06
-4.80465e-06
-5.1957e-06
-5.51493e-06
-5.75694e-06
-5.91668e-06
-5.99219e-06
-5.98825e-06
-5.91459e-06
2.44205e-07
-8.06593e-07
-1.68806e-06
-2.44745e-06
-3.10922e-06
-3.68812e-06
-4.19283e-06
-4.62466e-06
-4.98245e-06
-5.26411e-06
-5.46763e-06
-5.59326e-06
-5.64475e-06
-5.63118e-06
-5.5634e-06
3.49877e-07
-6.94402e-07
-1.56551e-06
-2.31124e-06
-2.95597e-06
-3.51363e-06
-3.99172e-06
-4.39245e-06
-4.71597e-06
-4.96267e-06
-5.13428e-06
-5.23523e-06
-5.27263e-06
-5.25698e-06
-5.19848e-06
4.97902e-07
-5.39456e-07
-1.39847e-06
-2.12788e-06
-2.75232e-06
-3.28555e-06
-3.7347e-06
-4.10356e-06
-4.39474e-06
-4.61156e-06
-4.75887e-06
-4.84374e-06
-4.87473e-06
-4.86218e-06
-4.81499e-06
6.98323e-07
-3.31371e-07
-1.17643e-06
-1.88701e-06
-2.4892e-06
-2.99638e-06
-3.41661e-06
-3.75573e-06
-4.01905e-06
-4.21254e-06
-4.34323e-06
-4.41945e-06
-4.44995e-06
-4.44416e-06
-4.40958e-06
9.62603e-07
-5.85776e-08
-8.87988e-07
-1.5788e-06
-2.15805e-06
-2.63985e-06
-3.03376e-06
-3.34783e-06
-3.58967e-06
-3.76719e-06
-3.88859e-06
-3.96253e-06
-3.99728e-06
-4.0011e-06
-3.98027e-06
1.30417e-06
2.92429e-07
-5.21331e-07
-1.1931e-06
-1.7507e-06
-2.21006e-06
-2.58268e-06
-2.87846e-06
-3.10653e-06
-3.27583e-06
-3.39496e-06
-3.47236e-06
-3.51557e-06
-3.53172e-06
-3.52608e-06
1.73678e-06
7.36688e-07
-6.47908e-08
-7.20143e-07
-1.25948e-06
-1.70168e-06
-2.06017e-06
-2.34591e-06
-2.56869e-06
-2.73774e-06
-2.86157e-06
-2.94807e-06
-3.00405e-06
-3.03565e-06
-3.04741e-06
2.27043e-06
1.28177e-06
4.91568e-07
-1.51323e-07
-6.78775e-07
-1.11181e-06
-1.46505e-06
-1.74992e-06
-1.97634e-06
-2.15334e-06
-2.28902e-06
-2.39063e-06
-2.46429e-06
-2.51534e-06
-2.54777e-06
2.90989e-06
1.93395e-06
1.15207e-06
5.15769e-07
-8.23577e-09
-4.417e-07
-7.99629e-07
-1.09356e-06
-1.33309e-06
-1.52672e-06
-1.68197e-06
-1.80547e-06
-1.90271e-06
-1.97841e-06
-2.03614e-06
3.64548e-06
2.68839e-06
1.91314e-06
1.27626e-06
7.46556e-07
3.02739e-07
-7.01403e-08
-3.83253e-07
-6.4555e-07
-8.64811e-07
-1.04792e-06
-1.20086e-06
-1.3286e-06
-1.43528e-06
-1.52425e-06
4.45572e-06
3.52636e-06
2.75893e-06
2.11672e-06
1.57327e-06
1.10957e-06
7.11963e-07
3.70215e-07
7.60463e-08
-1.77711e-07
-3.97308e-07
-5.88059e-07
-7.5436e-07
-8.99869e-07
-1.02768e-06
5.24289e-06
4.3439e-06
3.58318e-06
2.93239e-06
2.37015e-06
1.88062e-06
1.45213e-06
1.0757e-06
7.43817e-07
4.49983e-07
1.88667e-07
-4.47177e-08
-2.5403e-07
-4.42523e-07
-6.13059e-07
5.89212e-06
5.02317e-06
4.27009e-06
3.61233e-06
3.03346e-06
2.52057e-06
2.06382e-06
1.65537e-06
1.28848e-06
9.57338e-07
6.57102e-07
3.83815e-07
1.34119e-07
-9.48179e-08
-3.05535e-07
6.37071e-06
5.53228e-06
4.79098e-06
4.13189e-06
3.54249e-06
3.01246e-06
2.5337e-06
2.09945e-06
1.70376e-06
1.34153e-06
1.00856e-06
7.01483e-07
4.17428e-07
1.53949e-07
-9.1187e-08
6.71686e-06
5.90794e-06
5.18136e-06
4.52575e-06
3.93131e-06
3.38997e-06
2.89511e-06
2.44096e-06
2.02234e-06
1.63493e-06
1.2752e-06
9.40345e-07
6.27902e-07
3.35777e-07
6.20551e-08
6.96131e-06
6.18157e-06
5.47172e-06
4.82284e-06
4.22754e-06
3.6796e-06
3.17358e-06
2.70456e-06
2.26822e-06
1.86101e-06
1.48006e-06
1.12298e-06
7.87701e-07
4.72453e-07
1.75623e-07
7.13182e-06
6.37999e-06
5.68744e-06
5.04727e-06
4.45412e-06
3.9031e-06
3.38968e-06
2.90983e-06
2.46009e-06
2.03763e-06
1.64007e-06
1.26544e-06
9.11991e-07
5.78275e-07
2.62938e-07
7.25024e-06
6.52413e-06
5.84825e-06
5.21766e-06
4.62848e-06
4.07672e-06
3.55866e-06
3.07112e-06
2.6114e-06
2.17725e-06
1.76674e-06
1.37825e-06
1.01035e-06
6.61885e-07
3.31738e-07
7.33197e-06
6.62892e-06
5.96874e-06
5.34803e-06
4.76377e-06
4.21267e-06
3.69184e-06
3.19885e-06
2.73163e-06
2.28841e-06
1.86768e-06
1.46814e-06
1.08868e-06
7.28367e-07
3.86328e-07
7.38805e-06
6.70562e-06
6.05994e-06
5.44868e-06
4.86946e-06
4.31972e-06
3.79728e-06
3.30035e-06
2.82738e-06
2.37703e-06
1.94812e-06
1.53969e-06
1.15087e-06
7.80961e-07
4.29287e-07
7.42641e-06
6.76216e-06
6.12946e-06
5.52685e-06
4.95245e-06
4.40436e-06
3.88103e-06
3.38118e-06
2.90368e-06
2.44758e-06
2.01202e-06
1.5963e-06
1.19979e-06
8.22005e-07
4.62424e-07
7.45246e-06
6.80407e-06
6.18289e-06
5.58801e-06
5.01803e-06
4.47163e-06
3.94778e-06
3.44564e-06
2.96447e-06
2.50361e-06
2.06252e-06
1.64072e-06
1.2378e-06
8.53439e-07
4.87284e-07
7.46999e-06
6.83545e-06
6.22437e-06
5.63629e-06
5.07023e-06
4.52539e-06
4.0012e-06
3.49718e-06
3.0129e-06
2.54802e-06
2.10223e-06
1.67527e-06
1.26691e-06
8.76993e-07
5.05299e-07
7.48174e-06
6.85925e-06
6.25699e-06
5.67481e-06
5.11214e-06
4.56868e-06
4.04419e-06
3.53853e-06
3.05157e-06
2.5832e-06
2.13334e-06
1.70192e-06
1.28888e-06
8.94205e-07
5.1778e-07
7.48962e-06
6.87762e-06
6.28301e-06
5.70589e-06
5.14614e-06
4.60383e-06
4.07904e-06
3.5719e-06
3.08255e-06
2.6111e-06
2.15766e-06
1.72234e-06
1.30522e-06
9.06405e-07
5.25888e-07
7.49495e-06
6.89208e-06
6.30407e-06
5.7313e-06
5.17403e-06
4.63264e-06
4.1075e-06
3.599e-06
3.10748e-06
2.63327e-06
2.17665e-06
1.73788e-06
1.31717e-06
9.14717e-07
5.30622e-07
7.49862e-06
6.90369e-06
6.32137e-06
5.75232e-06
5.19713e-06
4.65646e-06
4.13093e-06
3.62115e-06
3.12765e-06
2.65095e-06
2.19148e-06
1.74964e-06
1.32573e-06
9.20067e-07
5.32822e-07
7.50121e-06
6.91316e-06
6.33573e-06
5.76985e-06
5.2164e-06
4.67627e-06
4.15031e-06
3.63932e-06
3.14403e-06
2.66508e-06
2.20305e-06
1.75845e-06
1.33171e-06
9.232e-07
5.33176e-07
7.50311e-06
6.92109e-06
6.34789e-06
5.78472e-06
5.23272e-06
4.69299e-06
4.16657e-06
3.65445e-06
3.15749e-06
2.67649e-06
2.21214e-06
1.76506e-06
1.33575e-06
9.24678e-07
5.32162e-07
7.50461e-06
6.92817e-06
6.35882e-06
5.79811e-06
5.24737e-06
4.70794e-06
4.18103e-06
3.66778e-06
3.1692e-06
2.68622e-06
2.21964e-06
1.77017e-06
1.33841e-06
9.24889e-07
5.30004e-07
7.50579e-06
6.93449e-06
6.36878e-06
5.81036e-06
5.26078e-06
4.72154e-06
4.19406e-06
3.67963e-06
3.17943e-06
2.69451e-06
2.22578e-06
1.77407e-06
1.34005e-06
9.24315e-07
5.2725e-07
-1.06308e-05
-8.22208e-06
-6.75766e-06
-5.78263e-06
-5.01084e-06
-4.42494e-06
-3.97412e-06
-3.62185e-06
-3.34217e-06
-3.11317e-06
-2.91592e-06
-2.73341e-06
-2.54959e-06
-2.35005e-06
-2.1216e-06
-1.85516e-06
-1.54794e-06
-1.21099e-06
-8.73758e-07
-5.95209e-07
-4.60782e-07
-5.75154e-07
-9.78834e-07
-1.50853e-06
-1.98978e-06
-2.31846e-06
-2.43119e-06
-2.29615e-06
-1.89199e-06
-1.20671e-06
-2.34751e-07
1.01905e-06
2.53806e-06
4.29257e-06
6.23988e-06
8.32615e-06
1.04884e-05
1.26552e-05
1.47445e-05
1.66569e-05
1.82578e-05
1.93629e-05
1.95787e-05
1.85392e-05
1.49384e-05
-8.9615e-06
-7.68881e-06
-6.57079e-06
-5.69827e-06
-4.97225e-06
-4.4013e-06
-3.95543e-06
-3.60478e-06
-3.32579e-06
-3.09733e-06
-2.90067e-06
-2.71877e-06
-2.53551e-06
-2.33653e-06
-2.10868e-06
-1.84305e-06
-1.53699e-06
-1.20151e-06
-8.65697e-07
-5.87526e-07
-4.50609e-07
-5.57542e-07
-9.48878e-07
-1.46474e-06
-1.93415e-06
-2.2545e-06
-2.36247e-06
-2.22617e-06
-1.82411e-06
-1.14508e-06
-1.84728e-07
1.0502e-06
2.54085e-06
4.25495e-06
6.14656e-06
8.15753e-06
1.02186e-05
1.22488e-05
1.41509e-05
1.57975e-05
1.70036e-05
1.74787e-05
1.66675e-05
1.37791e-05
7.81355e-06
-8.08989e-06
-7.27821e-06
-6.37757e-06
-5.59881e-06
-4.92353e-06
-4.37326e-06
-3.93525e-06
-3.58738e-06
-3.30924e-06
-3.08104e-06
-2.88454e-06
-2.70278e-06
-2.51967e-06
-2.32089e-06
-2.09345e-06
-1.82855e-06
-1.52376e-06
-1.19008e-06
-8.56213e-07
-5.7897e-07
-4.39839e-07
-5.38941e-07
-9.16686e-07
-1.41696e-06
-1.87285e-06
-2.18358e-06
-2.28613e-06
-2.14867e-06
-1.7497e-06
-1.07911e-06
-1.34096e-07
1.07621e-06
2.53008e-06
4.19198e-06
6.01187e-06
7.92622e-06
9.85821e-06
1.17161e-05
1.3387e-05
1.47188e-05
1.54982e-05
1.54043e-05
1.39428e-05
1.05772e-05
5.2206e-06
-7.53933e-06
-6.94492e-06
-6.21246e-06
-5.50843e-06
-4.88129e-06
-4.35266e-06
-3.92252e-06
-3.57634e-06
-3.29753e-06
-3.068e-06
-2.87021e-06
-2.68743e-06
-2.50353e-06
-2.30436e-06
-2.07696e-06
-1.81265e-06
-1.50922e-06
-1.17761e-06
-8.46068e-07
-5.70123e-07
-4.28915e-07
-5.19799e-07
-8.82862e-07
-1.36597e-06
-1.80662e-06
-2.10613e-06
-2.20187e-06
-2.06231e-06
-1.66612e-06
-1.00467e-06
-7.71686e-08
1.10419e-06
2.51401e-06
4.11268e-06
5.84521e-06
7.64186e-06
9.41785e-06
1.10712e-05
1.24751e-05
1.34717e-05
1.38444e-05
1.33162e-05
1.15541e-05
8.31441e-06
3.85745e-06
-7.11239e-06
-6.65149e-06
-6.05158e-06
-5.43359e-06
-4.85024e-06
-4.34351e-06
-3.92072e-06
-3.57438e-06
-3.29255e-06
-3.05921e-06
-2.85794e-06
-2.67229e-06
-2.48623e-06
-2.28573e-06
-2.05789e-06
-1.79411e-06
-1.49236e-06
-1.16347e-06
-8.35094e-07
-5.61248e-07
-4.18391e-07
-5.00686e-07
-8.47724e-07
-1.31185e-06
-1.73547e-06
-2.02232e-06
-2.11043e-06
-1.96884e-06
-1.57653e-06
-9.26861e-07
-2.13938e-08
1.12406e-06
2.47983e-06
4.00183e-06
5.62979e-06
7.28792e-06
8.88463e-06
1.03114e-05
1.14366e-05
1.21063e-05
1.21346e-05
1.13216e-05
9.49401e-06
6.61317e-06
2.96689e-06
-6.75238e-06
-6.38345e-06
-5.88827e-06
-5.35513e-06
-4.82639e-06
-4.34495e-06
-3.93006e-06
-3.58254e-06
-3.29579e-06
-3.05605e-06
-2.84876e-06
-2.65797e-06
-2.4679e-06
-2.26484e-06
-2.03587e-06
-1.77248e-06
-1.47281e-06
-1.14748e-06
-8.23406e-07
-5.52781e-07
-4.08972e-07
-4.82412e-07
-8.11988e-07
-1.25514e-06
-1.65982e-06
-1.9326e-06
-2.01248e-06
-1.8695e-06
-1.483e-06
-8.49011e-07
2.82886e-08
1.12906e-06
2.41886e-06
3.84914e-06
5.35467e-06
6.85472e-06
8.25341e-06
9.44e-06
1.02908e-05
1.06676e-05
1.04307e-05
9.46129e-06
7.7034e-06
5.22851e-06
2.29921e-06
-6.42287e-06
-6.12406e-06
-5.71973e-06
-5.25847e-06
-4.79348e-06
-4.34624e-06
-3.94404e-06
-3.59778e-06
-3.30636e-06
-3.05851e-06
-2.84315e-06
-2.64498e-06
-2.44892e-06
-2.24192e-06
-2.011e-06
-1.74781e-06
-1.45069e-06
-1.12992e-06
-8.11529e-07
-5.45508e-07
-4.01686e-07
-4.66148e-07
-7.76813e-07
-1.19694e-06
-1.58069e-06
-1.83794e-06
-1.90905e-06
-1.76576e-06
-1.38753e-06
-7.74255e-07
6.76636e-08
1.11371e-06
2.32436e-06
3.64721e-06
5.01309e-06
6.33846e-06
7.52722e-06
8.47328e-06
9.06649e-06
9.19733e-06
8.77389e-06
7.74361e-06
6.12091e-06
4.01461e-06
1.63638e-06
-6.10261e-06
-5.85906e-06
-5.53135e-06
-5.14478e-06
-4.73465e-06
-4.32933e-06
-3.95045e-06
-3.61201e-06
-3.31902e-06
-3.06336e-06
-2.83953e-06
-2.63246e-06
-2.42882e-06
-2.21683e-06
-1.9833e-06
-1.72025e-06
-1.42634e-06
-1.11142e-06
-8.00373e-07
-5.40659e-07
-3.98051e-07
-4.53581e-07
-7.43898e-07
-1.13892e-06
-1.49974e-06
-1.74006e-06
-1.80191e-06
-1.66021e-06
-1.29369e-06
-7.07492e-07
9.15402e-08
1.07114e-06
2.1885e-06
3.38836e-06
4.59935e-06
5.73826e-06
6.71166e-06
7.42742e-06
7.79261e-06
7.72954e-06
7.18794e-06
6.16039e-06
4.69521e-06
2.90146e-06
9.3919e-07
-5.78056e-06
-5.58121e-06
-5.31589e-06
-4.9966e-06
-4.64485e-06
-4.28438e-06
-3.93483e-06
-3.61345e-06
-3.32282e-06
-3.06432e-06
-2.83385e-06
-2.61734e-06
-2.40561e-06
-2.18867e-06
-1.9524e-06
-1.68989e-06
-1.4003e-06
-1.09292e-06
-7.9133e-07
-5.4002e-07
-4.00197e-07
-4.4706e-07
-7.15625e-07
-1.0835e-06
-1.4195e-06
-1.64169e-06
-1.69451e-06
-1.55681e-06
-1.20845e-06
-6.52738e-07
9.30113e-08
9.92511e-07
2.0023e-06
3.06469e-06
4.10867e-06
5.05636e-06
5.81847e-06
6.32155e-06
6.4943e-06
6.2873e-06
5.68127e-06
4.69459e-06
3.38619e-06
1.8508e-06
2.06087e-07
-5.44955e-06
-5.28628e-06
-5.07151e-06
-4.81012e-06
-4.51446e-06
-4.20143e-06
-3.88772e-06
-3.58766e-06
-3.30751e-06
-3.05251e-06
-2.81832e-06
-2.59474e-06
-2.37634e-06
-2.15578e-06
-1.91745e-06
-1.65675e-06
-1.37333e-06
-1.07585e-06
-7.86368e-07
-5.46045e-07
-4.10985e-07
-4.49733e-07
-6.95235e-07
-1.03406e-06
-1.34363e-06
-1.54654e-06
-1.59438e-06
-1.46139e-06
-1.13422e-06
-6.16816e-07
6.1163e-08
8.67389e-07
1.75634e-06
2.66923e-06
3.53777e-06
4.28882e-06
4.85716e-06
5.17336e-06
5.19073e-06
4.88321e-06
4.25149e-06
3.32549e-06
2.16221e-06
8.38282e-07
-5.60596e-07
-5.10378e-06
-4.97085e-06
-4.79758e-06
-4.58533e-06
-4.34054e-06
-4.07421e-06
-3.7989e-06
-3.52616e-06
-3.26388e-06
-3.01676e-06
-2.78324e-06
-2.55907e-06
-2.33867e-06
-2.11472e-06
-1.87708e-06
-1.621e-06
-1.3466e-06
-1.06218e-06
-7.88122e-07
-5.61912e-07
-4.34057e-07
-4.65646e-07
-6.87003e-07
-9.9515e-07
-1.27715e-06
-1.46211e-06
-1.50709e-06
-1.37936e-06
-1.07879e-06
-6.15749e-07
-1.62131e-08
6.85241e-07
1.4418e-06
2.19709e-06
2.88922e-06
3.45626e-06
3.84213e-06
3.99856e-06
3.89524e-06
3.52196e-06
2.89032e-06
2.03277e-06
9.98828e-07
-1.51942e-07
-1.35716e-06
-4.73857e-06
-4.63195e-06
-4.49347e-06
-4.32289e-06
-4.12307e-06
-3.90063e-06
-3.66422e-06
-3.42274e-06
-3.1833e-06
-2.95036e-06
-2.72487e-06
-2.50501e-06
-2.28673e-06
-2.0643e-06
-1.83123e-06
-1.58356e-06
-1.32206e-06
-1.0547e-06
-8.00035e-07
-5.91589e-07
-4.73838e-07
-4.99762e-07
-6.96408e-07
-9.72654e-07
-1.22661e-06
-1.39435e-06
-1.43523e-06
-1.32276e-06
-1.05934e-06
-6.59939e-07
-1.49548e-07
4.36341e-07
1.05162e-06
1.64581e-06
2.16551e-06
2.56017e-06
2.786e-06
2.8105e-06
2.61654e-06
2.20374e-06
1.58803e-06
7.995e-07
-1.21437e-07
-1.12955e-06
-2.17935e-06
-4.35076e-06
-4.26762e-06
-4.15907e-06
-4.0242e-06
-3.86392e-06
-3.68183e-06
-3.48348e-06
-3.27518e-06
-3.06257e-06
-2.84979e-06
-2.6388e-06
-2.42929e-06
-2.21898e-06
-2.00416e-06
-1.7809e-06
-1.54659e-06
-1.30284e-06
-1.05733e-06
-8.26518e-07
-6.39887e-07
-5.35528e-07
-5.57922e-07
-7.3021e-07
-9.74039e-07
-1.20036e-06
-1.35283e-06
-1.39414e-06
-1.3039e-06
-1.08682e-06
-7.60581e-07
-3.49519e-07
1.13283e-07
5.82183e-07
1.01775e-06
1.37507e-06
1.61397e-06
1.70291e-06
1.62152e-06
1.36181e-06
9.28367e-07
3.37448e-07
-3.85416e-07
-1.20858e-06
-2.09824e-06
-3.02117e-06
-3.93879e-06
-3.87735e-06
-3.79539e-06
-3.69191e-06
-3.56674e-06
-3.42163e-06
-3.25987e-06
-3.08562e-06
-2.90298e-06
-2.71541e-06
-2.52503e-06
-2.33248e-06
-2.13699e-06
-1.93661e-06
-1.72946e-06
-1.51448e-06
-1.29401e-06
-1.07555e-06
-8.7329e-07
-7.12632e-07
-6.25184e-07
-6.46814e-07
-7.96406e-07
-1.00863e-06
-1.20876e-06
-1.34922e-06
-1.39739e-06
-1.33708e-06
-1.17408e-06
-9.28977e-07
-6.25272e-07
-2.93119e-07
3.64556e-08
3.22462e-07
5.31356e-07
6.34074e-07
6.095e-07
4.45707e-07
1.40082e-07
-3.00927e-07
-8.62869e-07
-1.52534e-06
-2.26433e-06
-3.05491e-06
-3.87284e-06
-3.50241e-06
-3.46204e-06
-3.40491e-06
-3.33012e-06
-3.23708e-06
-3.12643e-06
-2.99996e-06
-2.86025e-06
-2.71009e-06
-2.55205e-06
-2.38809e-06
-2.21925e-06
-2.04585e-06
-1.8673e-06
-1.68333e-06
-1.49429e-06
-1.30303e-06
-1.11694e-06
-9.47875e-07
-8.17063e-07
-7.50036e-07
-7.74173e-07
-9.04079e-07
-1.08749e-06
-1.26458e-06
-1.39706e-06
-1.45857e-06
-1.437e-06
-1.33649e-06
-1.17454e-06
-9.76674e-07
-7.67801e-07
-5.74437e-07
-4.25606e-07
-3.46858e-07
-3.58421e-07
-4.73845e-07
-6.9969e-07
-1.03571e-06
-1.47543e-06
-2.00709e-06
-2.61514e-06
-3.28187e-06
-3.9891e-06
-4.71924e-06
-3.04309e-06
-3.02458e-06
-2.99215e-06
-2.94515e-06
-2.88292e-06
-2.80554e-06
-2.71389e-06
-2.60948e-06
-2.49409e-06
-2.36953e-06
-2.23741e-06
-2.09888e-06
-1.95485e-06
-1.80572e-06
-1.65226e-06
-1.49599e-06
-1.33998e-06
-1.19131e-06
-1.05973e-06
-9.62102e-07
-9.18783e-07
-9.49107e-07
-1.06358e-06
-1.22292e-06
-1.38198e-06
-1.51146e-06
-1.59071e-06
-1.61109e-06
-1.57542e-06
-1.49875e-06
-1.40283e-06
-1.30883e-06
-1.23696e-06
-1.20705e-06
-1.23682e-06
-1.33989e-06
-1.52487e-06
-1.79513e-06
-2.14921e-06
-2.58151e-06
-3.08306e-06
-3.64251e-06
-4.24712e-06
-4.88385e-06
-5.53999e-06
-2.56555e-06
-2.5711e-06
-2.56492e-06
-2.54661e-06
-2.51565e-06
-2.47191e-06
-2.4158e-06
-2.34815e-06
-2.2701e-06
-2.18283e-06
-2.08764e-06
-1.98559e-06
-1.87782e-06
-1.76534e-06
-1.64945e-06
-1.53241e-06
-1.41727e-06
-1.31035e-06
-1.21966e-06
-1.15771e-06
-1.14077e-06
-1.18153e-06
-1.28692e-06
-1.42739e-06
-1.57725e-06
-1.70394e-06
-1.80305e-06
-1.86724e-06
-1.89607e-06
-1.89995e-06
-1.89589e-06
-1.90123e-06
-1.93089e-06
-1.99784e-06
-2.11322e-06
-2.2857e-06
-2.52074e-06
-2.82018e-06
-3.1824e-06
-3.60295e-06
-4.07527e-06
-4.59132e-06
-5.14222e-06
-5.7188e-06
-6.31199e-06
-2.08017e-06
-2.1134e-06
-2.13652e-06
-2.14939e-06
-2.15175e-06
-2.1435e-06
-2.12484e-06
-2.09623e-06
-2.0584e-06
-2.01216e-06
-1.95847e-06
-1.89833e-06
-1.83279e-06
-1.76318e-06
-1.69091e-06
-1.61844e-06
-1.54868e-06
-1.48663e-06
-1.43888e-06
-1.41386e-06
-1.42388e-06
-1.47969e-06
-1.58423e-06
-1.71873e-06
-1.85351e-06
-1.98446e-06
-2.10438e-06
-2.20787e-06
-2.29364e-06
-2.36716e-06
-2.43982e-06
-2.5246e-06
-2.63261e-06
-2.77234e-06
-2.95027e-06
-3.17144e-06
-3.43917e-06
-3.75462e-06
-4.1166e-06
-4.52189e-06
-4.96585e-06
-5.44292e-06
-5.94703e-06
-6.47187e-06
-7.01105e-06
-1.60019e-06
-1.66642e-06
-1.72369e-06
-1.77205e-06
-1.8115e-06
-1.84212e-06
-1.86406e-06
-1.87764e-06
-1.88334e-06
-1.88175e-06
-1.87358e-06
-1.8597e-06
-1.84102e-06
-1.81881e-06
-1.79447e-06
-1.77003e-06
-1.74817e-06
-1.73235e-06
-1.72792e-06
-1.7403e-06
-1.77698e-06
-1.84851e-06
-1.95417e-06
-2.07969e-06
-2.2142e-06
-2.35298e-06
-2.49037e-06
-2.624e-06
-2.75337e-06
-2.88054e-06
-3.01143e-06
-3.15437e-06
-3.31716e-06
-3.50559e-06
-3.72376e-06
-3.97458e-06
-4.25991e-06
-4.58026e-06
-4.93471e-06
-5.32118e-06
-5.73676e-06
-6.17782e-06
-6.64027e-06
-7.11977e-06
-7.61191e-06
-1.14285e-06
-1.24908e-06
-1.34705e-06
-1.43688e-06
-1.51878e-06
-1.593e-06
-1.65975e-06
-1.7193e-06
-1.77198e-06
-1.81825e-06
-1.85863e-06
-1.89382e-06
-1.92458e-06
-1.95189e-06
-1.97693e-06
-2.00123e-06
-2.02678e-06
-2.05601e-06
-2.09258e-06
-2.14079e-06
-2.20588e-06
-2.2917e-06
-2.3969e-06
-2.51805e-06
-2.65259e-06
-2.79567e-06
-2.94385e-06
-3.09611e-06
-3.25219e-06
-3.41276e-06
-3.58049e-06
-3.76003e-06
-3.95626e-06
-4.17275e-06
-4.41179e-06
-4.67522e-06
-4.96467e-06
-5.2806e-06
-5.62199e-06
-5.98716e-06
-6.37443e-06
-6.78185e-06
-7.2068e-06
-7.64628e-06
-8.09723e-06
-7.70698e-07
-9.19335e-07
-1.05979e-06
-1.19231e-06
-1.31725e-06
-1.43493e-06
-1.54558e-06
-1.64942e-06
-1.74671e-06
-1.8378e-06
-1.92309e-06
-2.00307e-06
-2.07829e-06
-2.14947e-06
-2.21746e-06
-2.28326e-06
-2.34829e-06
-2.41396e-06
-2.48294e-06
-2.55842e-06
-2.64226e-06
-2.7389e-06
-2.8502e-06
-2.97381e-06
-3.10725e-06
-3.2492e-06
-3.39943e-06
-3.55789e-06
-3.724e-06
-3.89769e-06
-4.08e-06
-4.27377e-06
-4.48238e-06
-4.70859e-06
-4.9536e-06
-5.21749e-06
-5.50099e-06
-5.80498e-06
-6.12923e-06
-6.47264e-06
-6.8341e-06
-7.21241e-06
-7.60592e-06
-8.01262e-06
-8.43044e-06
-5.02881e-07
-6.90853e-07
-8.70352e-07
-1.04162e-06
-1.20501e-06
-1.3608e-06
-1.50921e-06
-1.65041e-06
-1.78461e-06
-1.91207e-06
-2.03307e-06
-2.14796e-06
-2.25715e-06
-2.36111e-06
-2.46048e-06
-2.55598e-06
-2.64845e-06
-2.73932e-06
-2.82975e-06
-2.92146e-06
-3.01906e-06
-3.12692e-06
-3.24486e-06
-3.36903e-06
-3.4997e-06
-3.63782e-06
-3.78382e-06
-3.93837e-06
-4.10201e-06
-4.27494e-06
-4.45815e-06
-4.6536e-06
-4.86255e-06
-5.08607e-06
-5.32588e-06
-5.58305e-06
-5.85741e-06
-6.14851e-06
-6.45622e-06
-6.78051e-06
-7.12093e-06
-7.47653e-06
-7.84606e-06
-8.22818e-06
-8.62154e-06
-3.2247e-07
-5.43746e-07
-7.55888e-07
-9.59087e-07
-1.15363e-06
-1.33975e-06
-1.51763e-06
-1.68739e-06
-1.8492e-06
-2.00326e-06
-2.14978e-06
-2.28905e-06
-2.42139e-06
-2.5472e-06
-2.66689e-06
-2.78111e-06
-2.89066e-06
-2.99639e-06
-3.09967e-06
-3.20214e-06
-3.30751e-06
-3.42e-06
-3.53852e-06
-3.65984e-06
-3.78547e-06
-3.91781e-06
-4.05835e-06
-4.20777e-06
-4.36635e-06
-4.53459e-06
-4.71364e-06
-4.90518e-06
-5.11054e-06
-5.33037e-06
-5.56494e-06
-5.81439e-06
-6.07886e-06
-6.35869e-06
-6.65424e-06
-6.96546e-06
-7.29181e-06
-7.63252e-06
-7.98672e-06
-8.35351e-06
-8.73193e-06
-1.9729e-07
-4.458e-07
-6.84278e-07
-9.12883e-07
-1.13185e-06
-1.34136e-06
-1.54155e-06
-1.7325e-06
-1.91436e-06
-2.08729e-06
-2.25153e-06
-2.40732e-06
-2.55497e-06
-2.69483e-06
-2.82735e-06
-2.95306e-06
-3.07271e-06
-3.18723e-06
-3.29788e-06
-3.40669e-06
-3.51636e-06
-3.6303e-06
-3.74786e-06
-3.86689e-06
-3.98923e-06
-4.11725e-06
-4.25246e-06
-4.39615e-06
-4.54955e-06
-4.71375e-06
-4.88956e-06
-5.07761e-06
-5.27836e-06
-5.49222e-06
-5.71974e-06
-5.96167e-06
-6.21859e-06
-6.49079e-06
-6.77824e-06
-7.08072e-06
-7.39785e-06
-7.72914e-06
-8.07401e-06
-8.43176e-06
-8.80161e-06
-1.0635e-07
-3.76642e-07
-6.35965e-07
-8.84432e-07
-1.12221e-06
-1.34942e-06
-1.56617e-06
-1.77254e-06
-1.96868e-06
-2.15477e-06
-2.33106e-06
-2.49782e-06
-2.65537e-06
-2.80408e-06
-2.94442e-06
-3.07701e-06
-3.20262e-06
-3.3223e-06
-3.43736e-06
-3.54962e-06
-3.66145e-06
-3.77602e-06
-3.8929e-06
-4.01027e-06
-4.12992e-06
-4.25454e-06
-4.38615e-06
-4.52633e-06
-4.6762e-06
-4.83656e-06
-5.00801e-06
-5.19119e-06
-5.38688e-06
-5.59585e-06
-5.8188e-06
-6.05626e-06
-6.30853e-06
-6.57572e-06
-6.85785e-06
-7.15485e-06
-7.46652e-06
-7.79254e-06
-8.13244e-06
-8.48565e-06
-8.85155e-06
-3.71223e-08
-3.24675e-07
-6.00315e-07
-8.64111e-07
-1.11618e-06
-1.35662e-06
-1.58552e-06
-1.80298e-06
-2.00918e-06
-2.20434e-06
-2.38872e-06
-2.56264e-06
-2.7265e-06
-2.88071e-06
-3.02583e-06
-3.16239e-06
-3.29158e-06
-3.41426e-06
-3.53181e-06
-3.64597e-06
-3.75906e-06
-3.87394e-06
-3.99008e-06
-4.10621e-06
-4.22435e-06
-4.34717e-06
-4.47652e-06
-4.61388e-06
-4.76044e-06
-4.91726e-06
-5.08523e-06
-5.26519e-06
-5.45788e-06
-5.66396e-06
-5.88395e-06
-6.1183e-06
-6.36734e-06
-6.6313e-06
-6.91032e-06
-7.20441e-06
-7.51345e-06
-7.83717e-06
-8.1752e-06
-8.52708e-06
-8.89228e-06
1.72593e-08
-2.83913e-07
-5.72268e-07
-8.47853e-07
-1.11076e-06
-1.36107e-06
-1.59888e-06
-1.82431e-06
-2.03759e-06
-2.23896e-06
-2.42874e-06
-2.60731e-06
-2.77512e-06
-2.93271e-06
-3.08089e-06
-3.21967e-06
-3.35082e-06
-3.47516e-06
-3.59411e-06
-3.70936e-06
-3.82313e-06
-3.938e-06
-4.05354e-06
-4.16899e-06
-4.28634e-06
-4.40792e-06
-4.53556e-06
-4.67087e-06
-4.81523e-06
-4.96982e-06
-5.13559e-06
-5.31337e-06
-5.50389e-06
-5.70779e-06
-5.92566e-06
-6.15799e-06
-6.40518e-06
-6.66752e-06
-6.94519e-06
-7.23824e-06
-7.54659e-06
-7.87006e-06
-8.20833e-06
-8.56102e-06
-8.92765e-06
6.03264e-08
-2.51625e-07
-5.49933e-07
-8.34636e-07
-1.10581e-06
-1.36352e-06
-1.60788e-06
-1.83906e-06
-2.05732e-06
-2.26294e-06
-2.4563e-06
-2.63784e-06
-2.80807e-06
-2.96755e-06
-3.11685e-06
-3.25746e-06
-3.38972e-06
-3.51493e-06
-3.63459e-06
-3.75035e-06
-3.86437e-06
-3.97902e-06
-4.09398e-06
-4.20891e-06
-4.32566e-06
-4.44637e-06
-4.57289e-06
-4.70686e-06
-4.84973e-06
-5.00271e-06
-5.16682e-06
-5.34294e-06
-5.53187e-06
-5.73431e-06
-5.95089e-06
-6.18214e-06
-6.42851e-06
-6.6903e-06
-6.96775e-06
-7.26094e-06
-7.56986e-06
-7.89437e-06
-8.23423e-06
-8.58908e-06
-8.9585e-06
9.39902e-08
-2.26578e-07
-5.32757e-07
-8.2458e-07
-1.1021e-06
-1.36541e-06
-1.61462e-06
-1.84996e-06
-2.07171e-06
-2.28021e-06
-2.47591e-06
-2.65928e-06
-2.83091e-06
-2.99145e-06
-3.1417e-06
-3.28271e-06
-3.41536e-06
-3.54085e-06
-3.6607e-06
-3.77652e-06
-3.89043e-06
-4.00459e-06
-4.11884e-06
-4.2332e-06
-4.3494e-06
-4.4694e-06
-4.59502e-06
-4.72795e-06
-4.86965e-06
-5.02137e-06
-5.1842e-06
-5.3591e-06
-5.54692e-06
-5.7484e-06
-5.96423e-06
-6.19497e-06
-6.4411e-06
-6.70299e-06
-6.98089e-06
-7.27496e-06
-7.58521e-06
-7.91155e-06
-8.25379e-06
-8.6116e-06
-8.98461e-06
1.19538e-07
-2.07999e-07
-5.20474e-07
-8.17915e-07
-1.10037e-06
-1.36792e-06
-1.62074e-06
-1.85908e-06
-2.08325e-06
-2.29367e-06
-2.49081e-06
-2.67522e-06
-2.84754e-06
-3.0085e-06
-3.15893e-06
-3.29998e-06
-3.43255e-06
-3.55789e-06
-3.67753e-06
-3.79303e-06
-3.9065e-06
-4.01988e-06
-4.13322e-06
-4.24687e-06
-4.36241e-06
-4.48165e-06
-4.60644e-06
-4.73844e-06
-4.87914e-06
-5.02981e-06
-5.19161e-06
-5.36554e-06
-5.55251e-06
-5.75331e-06
-5.96867e-06
-6.19921e-06
-6.44545e-06
-6.70779e-06
-6.98654e-06
-7.28189e-06
-7.5939e-06
-7.92251e-06
-8.26756e-06
-8.62875e-06
-9.00573e-06
1.38125e-07
-1.9512e-07
-5.12693e-07
-8.14613e-07
-1.10092e-06
-1.37173e-06
-1.62724e-06
-1.86773e-06
-2.09357e-06
-2.3052e-06
-2.50315e-06
-2.68802e-06
-2.86053e-06
-3.02145e-06
-3.17168e-06
-3.31235e-06
-3.44448e-06
-3.56934e-06
-3.68845e-06
-3.80333e-06
-3.91606e-06
-4.0284e-06
-4.14063e-06
-4.25338e-06
-4.36809e-06
-4.48649e-06
-4.61041e-06
-4.74151e-06
-4.88127e-06
-5.03099e-06
-5.19186e-06
-5.36493e-06
-5.55118e-06
-5.75144e-06
-5.96649e-06
-6.19698e-06
-6.44349e-06
-6.70647e-06
-6.98625e-06
-7.28307e-06
-7.59702e-06
-7.92809e-06
-8.27613e-06
-8.64088e-06
-9.02197e-06
1.50885e-07
-1.871e-07
-5.08854e-07
-8.1439e-07
-1.10375e-06
-1.37708e-06
-1.6346e-06
-1.87662e-06
-2.10356e-06
-2.3159e-06
-2.5142e-06
-2.69914e-06
-2.87147e-06
-3.03202e-06
-3.18176e-06
-3.3218e-06
-3.45324e-06
-3.57737e-06
-3.69569e-06
-3.80972e-06
-3.92147e-06
-4.03258e-06
-4.14352e-06
-4.25519e-06
-4.36891e-06
-4.48637e-06
-4.60936e-06
-4.73953e-06
-4.87833e-06
-5.02711e-06
-5.18709e-06
-5.35936e-06
-5.54494e-06
-5.74472e-06
-5.9595e-06
-6.19001e-06
-6.43685e-06
-6.70052e-06
-6.98139e-06
-7.27973e-06
-7.59567e-06
-7.92922e-06
-8.28026e-06
-8.64855e-06
-9.03372e-06
1.58904e-07
-1.83071e-07
-5.08303e-07
-8.16796e-07
-1.10861e-06
-1.3839e-06
-1.64293e-06
-1.88604e-06
-2.11367e-06
-2.32635e-06
-2.5247e-06
-2.70943e-06
-2.88133e-06
-3.04129e-06
-3.19033e-06
-3.32955e-06
-3.46014e-06
-3.58336e-06
-3.70074e-06
-3.81374e-06
-3.92434e-06
-4.03406e-06
-4.14359e-06
-4.25404e-06
-4.36664e-06
-4.48306e-06
-4.60506e-06
-4.73424e-06
-4.87207e-06
-5.01991e-06
-5.179e-06
-5.35047e-06
-5.53539e-06
-5.73469e-06
-5.94923e-06
-6.17975e-06
-6.42691e-06
-6.69124e-06
-6.97317e-06
-7.27299e-06
-7.59086e-06
-7.92682e-06
-8.28076e-06
-8.65246e-06
-9.04156e-06
1.63174e-07
-1.82205e-07
-5.10367e-07
-8.21316e-07
-1.11512e-06
-1.39197e-06
-1.65214e-06
-1.89601e-06
-2.12405e-06
-2.33683e-06
-2.535e-06
-2.71933e-06
-2.89064e-06
-3.04988e-06
-3.19808e-06
-3.33638e-06
-3.46599e-06
-3.5882e-06
-3.70453e-06
-3.8164e-06
-3.92573e-06
-4.03398e-06
-4.14201e-06
-4.25115e-06
-4.36255e-06
-4.47787e-06
-4.59881e-06
-4.72697e-06
-4.8638e-06
-5.01067e-06
-5.16886e-06
-5.33954e-06
-5.52379e-06
-5.72259e-06
-5.93685e-06
-6.16735e-06
-6.41479e-06
-6.67973e-06
-6.96264e-06
-7.26384e-06
-7.58352e-06
-7.92175e-06
-8.27843e-06
-8.65335e-06
-9.04615e-06
1.64568e-07
-1.83749e-07
-5.14413e-07
-8.27428e-07
-1.12288e-06
-1.40098e-06
-1.66202e-06
-1.90641e-06
-2.13466e-06
-2.34736e-06
-2.54523e-06
-2.72903e-06
-2.89967e-06
-3.05809e-06
-3.20539e-06
-3.34271e-06
-3.47128e-06
-3.59242e-06
-3.70763e-06
-3.81832e-06
-3.92634e-06
-4.03308e-06
-4.13958e-06
-4.24734e-06
-4.35751e-06
-4.47168e-06
-4.59154e-06
-4.71864e-06
-4.85445e-06
-5.00035e-06
-5.15764e-06
-5.3275e-06
-5.51107e-06
-5.70936e-06
-5.92331e-06
-6.15375e-06
-6.40139e-06
-6.66686e-06
-6.95065e-06
-7.2531e-06
-7.57445e-06
-7.91477e-06
-8.27398e-06
-8.65188e-06
-9.04812e-06
1.63841e-07
-1.87036e-07
-5.19856e-07
-8.34631e-07
-1.13146e-06
-1.41057e-06
-1.67228e-06
-1.91703e-06
-2.14535e-06
-2.35788e-06
-2.55535e-06
-2.73857e-06
-2.90847e-06
-3.06605e-06
-3.21242e-06
-3.34873e-06
-3.47626e-06
-3.59631e-06
-3.7104e-06
-3.81988e-06
-3.92659e-06
-4.03182e-06
-4.1368e-06
-4.24318e-06
-4.3521e-06
-4.46512e-06
-4.58388e-06
-4.70993e-06
-4.84473e-06
-4.98966e-06
-5.14604e-06
-5.31509e-06
-5.49797e-06
-5.69573e-06
-5.90934e-06
-6.13966e-06
-6.38745e-06
-6.65336e-06
-6.93791e-06
-7.24149e-06
-7.56433e-06
-7.90654e-06
-8.26806e-06
-8.64869e-06
-9.04808e-06
1.61619e-07
-1.91493e-07
-5.26182e-07
-8.42464e-07
-1.14046e-06
-1.42039e-06
-1.68263e-06
-1.92762e-06
-2.15592e-06
-2.36821e-06
-2.56523e-06
-2.74785e-06
-2.91701e-06
-3.07374e-06
-3.21918e-06
-3.35452e-06
-3.48101e-06
-3.59999e-06
-3.71297e-06
-3.82127e-06
-3.9267e-06
-4.03049e-06
-4.13398e-06
-4.23901e-06
-4.34671e-06
-4.4586e-06
-4.57629e-06
-4.7013e-06
-4.8351e-06
-4.97909e-06
-5.13458e-06
-5.30284e-06
-5.48504e-06
-5.68226e-06
-5.8955e-06
-6.12566e-06
-6.37353e-06
-6.6398e-06
-6.925e-06
-7.22956e-06
-7.55373e-06
-7.89764e-06
-8.26123e-06
-8.64432e-06
-9.04655e-06
1.5831e-07
-1.96781e-07
-5.33108e-07
-8.50697e-07
-1.14968e-06
-1.4303e-06
-1.69295e-06
-1.93808e-06
-2.16631e-06
-2.3783e-06
-2.57486e-06
-2.75686e-06
-2.92528e-06
-3.08118e-06
-3.22571e-06
-3.36009e-06
-3.48557e-06
-3.60355e-06
-3.71545e-06
-3.82263e-06
-3.92682e-06
-4.0292e-06
-4.13125e-06
-4.23497e-06
-4.34149e-06
-4.45228e-06
-4.56892e-06
-4.69293e-06
-4.82576e-06
-4.96883e-06
-5.12346e-06
-5.29094e-06