/*--------------------------------*- C++ -*----------------------------------*\
| =========                 |                                                 |
| \\      /  F ield         | OpenFOAM: The Open Source CFD Toolbox           |
|  \\    /   O peration     | Version:  2312                                  |
|   \\  /    A nd           | Website:  www.openfoam.com                      |
|    \\/     M anipulation  |                                                 |
\*---------------------------------------------------------------------------*/
FoamFile
{
    version     2.0;
    format      ascii;
    arch        "LSB;label=32;scalar=64";
    class       surfaceScalarField;
    location    "105";
    object      phi;
}
// * * * * * * * * * * * * * * * * * * * * * * * * * * * * * * * * * * * * * //

dimensions      [0 3 -1 0 0 0 0];

oriented        oriented;

internalField   nonuniform List<scalar> 
9445
(
6.17189e-10
1.07254e-11
6.10644e-10
6.54506e-12
6.06792e-10
3.85128e-12
6.04857e-10
1.93537e-12
6.04408e-10
4.49145e-13
6.05226e-10
-8.18172e-13
6.07302e-10
-2.07601e-12
6.10506e-10
-3.20443e-12
6.15087e-10
-4.58046e-12
6.21519e-10
-6.43211e-12
6.3096e-10
-9.44108e-12
6.47105e-10
-1.61449e-11
6.83155e-10
-3.60504e-11
7.86344e-10
-1.03189e-10
-2.70693e-10
1.05704e-09
2.15317e-09
4.84061e-11
2.1294e-09
3.03169e-11
2.11471e-09
1.85444e-11
2.10651e-09
1.01321e-11
2.10334e-09
3.61778e-12
2.10443e-09
-1.90076e-12
2.1095e-09
-7.15177e-12
2.11831e-09
-1.20107e-11
2.1315e-09
-1.77686e-11
2.1504e-09
-2.53337e-11
2.17798e-09
-3.70264e-11
2.22143e-09
-5.95891e-11
2.29484e-09
-1.09461e-10
2.41227e-09
-2.20622e-10
-3.95597e-10
2.53717e-09
4.24576e-09
1.22264e-10
4.19802e-09
7.80569e-11
4.16749e-09
4.90792e-11
4.1493e-09
2.83179e-11
4.14065e-09
1.22657e-11
4.14e-09
-1.24539e-12
4.14656e-09
-1.37102e-11
4.15983e-09
-2.529e-11
4.18072e-09
-3.86568e-11
4.21076e-09
-5.53739e-11
4.25293e-09
-7.91895e-11
4.31206e-09
-1.18722e-10
4.3911e-09
-1.88502e-10
4.47568e-09
-3.05199e-10
-4.4627e-10
4.52635e-09
7.04479e-09
2.4244e-10
6.96524e-09
1.57606e-10
6.91272e-09
1.01597e-10
6.8797e-09
6.13446e-11
6.86165e-09
3.03077e-11
6.85614e-09
4.27354e-12
6.8615e-09
-1.90787e-11
6.87665e-09
-4.04329e-11
6.90233e-09
-6.43413e-11
6.9394e-09
-9.24396e-11
6.98891e-09
-1.28698e-10
7.05055e-09
-1.80371e-10
7.11751e-09
-2.55459e-10
7.16842e-09
-3.56111e-10
-4.56324e-10
7.17848e-09
1.073e-08
4.18381e-10
1.06107e-08
2.76991e-10
1.05294e-08
1.82861e-10
1.04758e-08
1.14922e-10
1.04435e-08
6.26174e-11
1.04287e-08
1.90852e-11
1.04288e-08
-1.91419e-11
1.04419e-08
-5.35463e-11
1.04675e-08
-8.99955e-11
1.05052e-08
-1.3016e-10
1.05534e-08
-1.76818e-10
1.06071e-08
-2.34113e-10
1.06554e-08
-3.03762e-10
1.06801e-08
-3.80827e-10
-4.45936e-10
1.06697e-08
1.55116e-08
6.55509e-10
1.53463e-08
4.42332e-10
1.52302e-08
2.98894e-10
1.51504e-08
1.94741e-10
1.50985e-08
1.14494e-10
1.50692e-08
4.84078e-11
1.50587e-08
-8.6339e-12
1.50645e-08
-5.93719e-11
1.5084e-08
-1.09493e-10
1.51148e-08
-1.60947e-10
1.5153e-08
-2.15018e-10
1.51915e-08
-2.72644e-10
1.52197e-08
-3.31936e-10
1.52258e-08
-3.86869e-10
-4.26423e-10
1.52062e-08
2.16261e-08
9.49553e-10
2.14144e-08
6.54024e-10
2.1261e-08
4.52328e-10
2.11512e-08
3.04566e-10
2.10753e-08
1.90319e-10
2.10267e-08
9.70452e-11
2.10003e-08
1.77368e-11
2.09926e-08
-5.16106e-11
2.09991e-08
-1.16035e-10
2.10157e-08
-1.77486e-10
2.10368e-08
-2.36188e-10
2.10555e-08
-2.91287e-10
2.10637e-08
-3.4012e-10
2.10553e-08
-3.78539e-10
-4.01792e-10
2.10307e-08
2.93275e-08
1.27887e-09
2.90804e-08
9.01088e-10
2.88946e-08
6.38164e-10
2.87561e-08
4.43008e-10
2.86554e-08
2.91069e-10
2.85849e-08
1.67552e-10
2.85388e-08
6.38105e-11
2.85123e-08
-2.50959e-11
2.84999e-08
-1.03707e-10
2.84963e-08
-1.73868e-10
2.84956e-08
-2.35494e-10
2.8492e-08
-2.87622e-10
2.84805e-08
-3.28625e-10
2.84588e-08
-3.56882e-10
-3.71407e-10
2.84284e-08
3.88738e-08
1.59799e-09
3.86197e-08
1.15523e-09
3.84191e-08
8.38721e-10
3.82628e-08
5.9932e-10
3.81431e-08
4.10787e-10
3.80533e-08
2.5733e-10
3.79876e-08
1.29507e-10
3.79407e-08
2.18867e-11
3.79065e-08
-6.95586e-11
3.78799e-08
-1.47285e-10
3.78556e-08
-2.1122e-10
3.78296e-08
-2.61528e-10
3.77991e-08
-2.98213e-10
3.7764e-08
-3.21733e-10
-3.33107e-10
3.77257e-08
5.05232e-08
1.84064e-09
5.03087e-08
1.36974e-09
5.01264e-08
1.02101e-09
4.99754e-08
7.5034e-10
4.98527e-08
5.33478e-10
4.97543e-08
3.55705e-10
4.96758e-08
2.08047e-10
4.96125e-08
8.51272e-11
4.95589e-08
-1.59721e-11
4.95115e-08
-9.98075e-11
4.9466e-08
-1.65782e-10
4.94203e-08
-2.15793e-10
4.93733e-08
-2.51238e-10
4.93255e-08
-2.73922e-10
-2.85811e-10
4.92782e-08
6.45608e-08
1.9429e-09
6.44389e-08
1.49166e-09
6.43168e-08
1.14303e-09
6.42037e-08
8.63437e-10
6.41031e-08
6.34099e-10
6.40152e-08
4.43639e-10
6.39381e-08
2.85094e-10
6.38693e-08
1.53943e-10
6.38065e-08
4.68652e-11
6.37457e-08
-3.89862e-11
6.36863e-08
-1.06464e-10
6.36274e-08
-1.56824e-10
6.35689e-08
-1.92784e-10
6.35118e-08
-2.16777e-10
-2.31087e-10
6.34571e-08
8.13787e-08
1.88243e-09
8.138e-08
1.49031e-09
8.13492e-08
1.1739e-09
8.13021e-08
9.10501e-10
8.1248e-08
6.88215e-10
8.11912e-08
5.00389e-10
8.11334e-08
3.42921e-10
8.10747e-08
2.12607e-10
8.1015e-08
1.0659e-10
8.09541e-08
2.19541e-11
8.08916e-08
-4.4022e-11
8.0829e-08
-9.42057e-11
8.07669e-08
-1.3069e-10
8.07065e-08
-1.56331e-10
-1.73353e-10
8.06487e-08
1.01566e-07
1.69733e-09
1.01673e-07
1.38296e-09
1.01729e-07
1.11773e-09
1.01752e-07
8.88004e-10
1.01752e-07
6.8856e-10
1.01735e-07
5.16827e-10
1.01707e-07
3.714e-10
1.01669e-07
2.50577e-10
1.01623e-07
1.52049e-10
1.01572e-07
7.3107e-11
1.01517e-07
1.10671e-11
1.01459e-07
-3.67509e-11
1.01401e-07
-7.26685e-11
1.01344e-07
-9.90462e-11
-1.17911e-10
1.01289e-07
1.25879e-07
1.45738e-09
1.26043e-07
1.21859e-09
1.26151e-07
1.00919e-09
1.26218e-07
8.20978e-10
1.26254e-07
6.52771e-10
1.26266e-07
5.046e-10
1.26261e-07
3.77367e-10
1.2624e-07
2.70898e-10
1.26209e-07
1.83587e-10
1.26169e-07
1.13043e-10
1.26123e-07
5.68727e-11
1.26073e-07
1.27787e-11
1.26022e-07
-2.12949e-11
1.2597e-07
-4.73027e-11
-6.69022e-11
1.25919e-07
1.55055e-07
1.21374e-09
1.55231e-07
1.04271e-09
1.55355e-07
8.85102e-10
1.55437e-07
7.39429e-10
1.55484e-07
6.05307e-10
1.55505e-07
4.83486e-10
1.55506e-07
3.76677e-10
1.5549e-07
2.86176e-10
1.55463e-07
2.11112e-10
1.55426e-07
1.49589e-10
1.55384e-07
9.97119e-11
1.55337e-07
5.96683e-11
1.55288e-07
2.78681e-11
1.55237e-07
2.77966e-12
-1.68984e-11
1.55187e-07
1.89599e-07
9.82614e-10
1.89765e-07
8.75904e-10
1.89885e-07
7.65474e-10
1.89964e-07
6.60163e-10
1.90009e-07
5.60553e-10
1.90027e-07
4.65177e-10
1.90025e-07
3.7906e-10
1.90006e-07
3.05049e-10
1.89975e-07
2.42484e-10
1.89934e-07
1.89918e-10
1.89888e-07
1.46178e-10
1.89837e-07
1.10129e-10
1.89785e-07
8.07523e-11
1.8973e-07
5.69005e-11
3.75549e-11
1.89676e-07
2.29638e-07
7.64826e-10
2.29792e-07
7.21789e-10
2.299e-07
6.56918e-10
2.29971e-07
5.89875e-10
2.30009e-07
5.22431e-10
2.30023e-07
4.51051e-10
2.30016e-07
3.85987e-10
2.29992e-07
3.29528e-10
2.29954e-07
2.80156e-10
2.29907e-07
2.36665e-10
2.29855e-07
1.98762e-10
2.29798e-07
1.66492e-10
2.29739e-07
1.39907e-10
2.29678e-07
1.17832e-10
9.94283e-11
2.29616e-07
2.74724e-07
5.69601e-10
2.74865e-07
5.81295e-10
2.74958e-07
5.63293e-10
2.75014e-07
5.34024e-10
2.75045e-07
4.91893e-10
2.75049e-07
4.46784e-10
2.75036e-07
3.99215e-10
2.75009e-07
3.56321e-10
2.74971e-07
3.18451e-10
2.74922e-07
2.85178e-10
2.74865e-07
2.55814e-10
2.74802e-07
2.29324e-10
2.74736e-07
2.06392e-10
2.74667e-07
1.86711e-10
1.69911e-10
2.74597e-07
3.2334e-07
4.04408e-10
3.23462e-07
4.59516e-10
3.23543e-07
4.81996e-10
3.23593e-07
4.84381e-10
3.23617e-07
4.67347e-10
3.23619e-07
4.45173e-10
3.23602e-07
4.15646e-10
3.23572e-07
3.8665e-10
3.2353e-07
3.6001e-10
3.23479e-07
3.36493e-10
3.2342e-07
3.15285e-10
3.23354e-07
2.95374e-10
3.23283e-07
2.77395e-10
3.23208e-07
2.61518e-10
2.47574e-10
3.2313e-07
3.72292e-07
2.4616e-10
3.7241e-07
3.40961e-10
3.72496e-07
3.95782e-10
3.72556e-07
4.24906e-10
3.72589e-07
4.33882e-10
3.72603e-07
4.32008e-10
3.72594e-07
4.24545e-10
3.72567e-07
4.12968e-10
3.72528e-07
3.99294e-10
3.72479e-07
3.85351e-10
3.72423e-07
3.71814e-10
3.72359e-07
3.59021e-10
3.72289e-07
3.4721e-10
3.72214e-07
3.36501e-10
3.26978e-10
3.72135e-07
3.69716e-07
1.52273e-10
3.6979e-07
2.6711e-10
3.69845e-07
3.40493e-10
3.69883e-07
3.87331e-10
3.69902e-07
4.15139e-10
3.69904e-07
4.29904e-10
3.69892e-07
4.35976e-10
3.69868e-07
4.36965e-10
3.69833e-07
4.3446e-10
3.69789e-07
4.29617e-10
3.69737e-07
4.24021e-10
3.69677e-07
4.18349e-10
3.69612e-07
4.1285e-10
3.69541e-07
4.07516e-10
4.02341e-10
3.69465e-07
3.1618e-07
9.91531e-11
3.16233e-07
2.13876e-10
3.16281e-07
2.93189e-10
3.1632e-07
3.48127e-10
3.1635e-07
3.85406e-10
3.16369e-07
4.10286e-10
3.16379e-07
4.26488e-10
3.16379e-07
4.36795e-10
3.1637e-07
4.4305e-10
3.16353e-07
4.46426e-10
3.16329e-07
4.4813e-10
3.16299e-07
4.48759e-10
3.16263e-07
4.48732e-10
3.16222e-07
4.48374e-10
4.47652e-10
3.16177e-07
2.6461e-07
8.71666e-11
2.64629e-07
1.94793e-10
2.64649e-07
2.72533e-10
2.64668e-07
3.29055e-10
2.64684e-07
3.69955e-10
2.64695e-07
3.99616e-10
2.647e-07
4.21195e-10
2.647e-07
4.36962e-10
2.64694e-07
4.48622e-10
2.64683e-07
4.57186e-10
2.64668e-07
4.63591e-10
2.64648e-07
4.68458e-10
2.64625e-07
4.72165e-10
2.64598e-07
4.7495e-10
4.76961e-10
2.64569e-07
2.17668e-07
9.76141e-11
2.1767e-07
1.92571e-10
2.17679e-07
2.63569e-10
2.17691e-07
3.17055e-10
2.17703e-07
3.57459e-10
2.17715e-07
3.88218e-10
2.17724e-07
4.11885e-10
2.17731e-07
4.30298e-10
2.17735e-07
4.44774e-10
2.17735e-07
4.56229e-10
2.17734e-07
4.65371e-10
2.17729e-07
4.72684e-10
2.17723e-07
4.78522e-10
2.17715e-07
4.83123e-10
4.86624e-10
2.17705e-07
1.76478e-07
1.16093e-10
1.76475e-07
1.95339e-10
1.76482e-07
2.56348e-10
1.76496e-07
3.03607e-10
1.76513e-07
3.40475e-10
1.76531e-07
3.6953e-10
1.7655e-07
3.92695e-10
1.76569e-07
4.11356e-10
1.76588e-07
4.2651e-10
1.76605e-07
4.38866e-10
1.76621e-07
4.48946e-10
1.76637e-07
4.57146e-10
1.76652e-07
4.63752e-10
1.76666e-07
4.68943e-10
4.72839e-10
1.7668e-07
1.41305e-07
1.28753e-10
1.41309e-07
1.91746e-10
1.41324e-07
2.41557e-10
1.41346e-07
2.81094e-10
1.41374e-07
3.12773e-10
1.41405e-07
3.38419e-10
1.41438e-07
3.59397e-10
1.41473e-07
3.76691e-10
1.41508e-07
3.91009e-10
1.41544e-07
4.02861e-10
1.41581e-07
4.12627e-10
1.41617e-07
4.20589e-10
1.41654e-07
4.26943e-10
1.41691e-07
4.31826e-10
4.35328e-10
1.41729e-07
1.11912e-07
1.27547e-10
1.11928e-07
1.75717e-10
1.11955e-07
2.1479e-10
1.11989e-07
2.46526e-10
1.1203e-07
2.72565e-10
1.12074e-07
2.94137e-10
1.12121e-07
3.12151e-10
1.12171e-07
3.27261e-10
1.12222e-07
3.39939e-10
1.12274e-07
3.50528e-10
1.12327e-07
3.5928e-10
1.12382e-07
3.66382e-10
1.12437e-07
3.71969e-10
1.12492e-07
3.76138e-10
3.78955e-10
1.12549e-07
8.77628e-08
1.12301e-10
8.77905e-08
1.48058e-10
8.78275e-08
1.778e-10
8.78715e-08
2.02503e-10
8.79208e-08
2.2323e-10
8.79742e-08
2.40767e-10
8.80307e-08
2.5568e-10
8.80895e-08
2.68375e-10
8.81503e-08
2.79142e-10
8.82127e-08
2.88198e-10
8.82762e-08
2.95701e-10
8.83409e-08
3.0177e-10
8.84063e-08
3.06495e-10
8.84725e-08
3.09937e-10
3.12144e-10
8.85393e-08
6.81791e-08
8.80661e-11
6.82132e-08
1.13992e-10
6.82549e-08
1.36099e-10
6.83025e-08
1.54866e-10
6.83548e-08
1.70962e-10
6.84107e-08
1.84859e-10
6.84695e-08
1.9688e-10
6.85306e-08
2.07258e-10
6.85936e-08
2.16162e-10
6.86581e-08
2.23716e-10
6.87238e-08
2.30015e-10
6.87904e-08
2.35129e-10
6.88578e-08
2.39115e-10
6.89257e-08
2.42008e-10
2.43844e-10
6.8994e-08
5.24556e-08
6.12546e-11
5.249e-08
7.96511e-11
5.25303e-08
9.57276e-11
5.25755e-08
1.09673e-10
5.26246e-08
1.21898e-10
5.26768e-08
1.32667e-10
5.27315e-08
1.42144e-10
5.27883e-08
1.5045e-10
5.28468e-08
1.57673e-10
5.29067e-08
1.63881e-10
5.29676e-08
1.69121e-10
5.30293e-08
1.73433e-10
5.30915e-08
1.7685e-10
5.31541e-08
1.79391e-10
1.81081e-10
5.32169e-08
3.99328e-08
3.69861e-11
3.99627e-08
4.97298e-11
3.99973e-08
6.11435e-11
4.00357e-08
7.12589e-11
4.00773e-08
8.03283e-11
4.01214e-08
8.84801e-11
4.01678e-08
9.5783e-11
4.0216e-08
1.02292e-10
4.02656e-08
1.08046e-10
4.03164e-08
1.13074e-10
4.03681e-08
1.17397e-10
4.04205e-08
1.21034e-10
4.04734e-08
1.24e-10
4.05265e-08
1.26306e-10
1.27969e-10
4.05796e-08
3.00297e-08
1.81203e-11
3.00528e-08
2.66732e-11
3.00794e-08
3.45434e-11
3.0109e-08
4.16712e-11
3.01411e-08
4.82096e-11
3.01754e-08
5.4209e-11
3.02115e-08
5.96853e-11
3.02491e-08
6.46574e-11
3.0288e-08
6.91342e-11
3.0328e-08
7.31244e-11
3.03687e-08
7.66317e-11
3.04101e-08
7.96629e-11
3.04519e-08
8.22226e-11
3.04939e-08
8.43165e-11
8.59534e-11
3.05359e-08
2.22522e-08
5.43714e-12
2.2268e-08
1.09238e-11
2.22864e-08
1.61558e-11
2.2307e-08
2.09994e-11
2.23297e-08
2.55447e-11
2.23541e-08
2.98047e-11
2.238e-08
3.37695e-11
2.24072e-08
3.74408e-11
2.24356e-08
4.08121e-11
2.24648e-08
4.38808e-11
2.24948e-08
4.66424e-11
2.25254e-08
4.90966e-11
2.25564e-08
5.12414e-11
2.25876e-08
5.30801e-11
5.46157e-11
2.26189e-08
1.61874e-08
-1.68736e-12
1.61967e-08
1.60612e-12
1.62079e-08
4.92038e-12
1.62208e-08
8.06484e-12
1.62353e-08
1.10796e-11
1.62511e-08
1.39675e-11
1.62682e-08
1.67078e-11
1.62864e-08
1.92977e-11
1.63054e-08
2.17237e-11
1.63253e-08
2.39788e-11
1.63459e-08
2.60557e-11
1.63671e-08
2.79505e-11
1.63887e-08
2.96581e-11
1.64106e-08
3.11808e-11
3.25185e-11
1.64327e-08
1.14938e-08
-4.56479e-12
1.14982e-08
-2.7566e-12
1.15039e-08
-8.43788e-13
1.15109e-08
1.08951e-12
1.1519e-08
2.97551e-12
1.15282e-08
4.81824e-12
1.15383e-08
6.59755e-12
1.15493e-08
8.3149e-12
1.1561e-08
9.95512e-12
1.15735e-08
1.15102e-11
1.15866e-08
1.29739e-11
1.16002e-08
1.43411e-11
1.16142e-08
1.56059e-11
1.16287e-08
1.67705e-11
1.78344e-11
1.16433e-08
7.89174e-09
-4.73806e-12
7.89283e-09
-3.84217e-12
7.89483e-09
-2.85083e-12
7.89771e-09
-1.78636e-12
7.90138e-09
-6.96325e-13
7.90581e-09
3.89154e-13
7.91096e-09
1.44774e-12
7.91678e-09
2.4929e-12
7.92323e-09
3.50851e-12
7.93025e-09
4.48873e-12
7.93779e-09
5.43024e-12
7.94581e-09
6.32803e-12
7.95424e-09
7.17663e-12
7.96303e-09
7.97892e-12
8.73608e-12
7.97213e-09
5.15311e-09
-3.49764e-12
5.15243e-09
-3.15693e-12
5.15229e-09
-2.7105e-12
5.15269e-09
-2.1868e-12
5.15362e-09
-1.63431e-12
5.15509e-09
-1.07903e-12
5.15707e-09
-5.28662e-13
5.15953e-09
3.27434e-14
5.16246e-09
5.82806e-13
5.16582e-09
1.12249e-12
5.1696e-09
1.65085e-12
5.17377e-09
2.16384e-12
5.17828e-09
2.6572e-12
5.18313e-09
3.13421e-12
3.59858e-12
5.18827e-09
3.09351e-09
-1.87749e-12
3.09217e-09
-1.81297e-12
3.09111e-09
-1.65202e-12
3.09037e-09
-1.44538e-12
3.08996e-09
-1.22311e-12
3.08988e-09
-9.9726e-13
3.09012e-09
-7.67927e-13
3.09068e-09
-5.29809e-13
3.09156e-09
-2.94557e-13
3.09274e-09
-5.88854e-14
3.09421e-09
1.75927e-13
3.09597e-09
4.07445e-13
3.09799e-09
6.33186e-13
3.10027e-09
8.55953e-13
1.08085e-12
3.10279e-09
1.56463e-09
-5.75607e-13
1.56341e-09
-5.9898e-13
1.56232e-09
-5.61133e-13
1.56139e-09
-5.11139e-13
1.56063e-09
-4.58575e-13
1.56003e-09
-4.04718e-13
1.55961e-09
-3.49269e-13
1.55937e-09
-2.90339e-13
1.55931e-09
-2.31414e-13
1.55942e-09
-1.71143e-13
1.55971e-09
-1.09793e-13
1.56017e-09
-4.85879e-14
1.56079e-09
1.18888e-14
1.56157e-09
7.30322e-14
1.38407e-13
1.56251e-09
4.47957e-10
4.47358e-10
4.46797e-10
4.46286e-10
4.45827e-10
4.45423e-10
4.45073e-10
4.44783e-10
4.44552e-10
4.4438e-10
4.44271e-10
4.44222e-10
4.44234e-10
4.44307e-10
4.44445e-10
1.26252e-09
-5.36946e-10
3.31462e-10
1.55499e-09
-4.88775e-10
1.96308e-10
1.84807e-09
-3.7808e-10
8.50031e-11
2.13473e-09
-2.70794e-10
-1.58711e-11
2.41266e-09
-1.74104e-10
-1.03824e-10
2.68238e-09
-9.70704e-11
-1.7265e-10
2.94514e-09
-4.17103e-11
-2.21053e-10
3.20208e-09
-8.99615e-12
-2.47944e-10
3.45415e-09
8.99658e-13
-2.52967e-10
3.70227e-09
-1.17526e-11
-2.36368e-10
3.94706e-09
-4.50876e-11
-1.99705e-10
4.18905e-09
-9.60789e-11
-1.45906e-10
4.42864e-09
-1.5888e-10
-8.07169e-11
4.66636e-09
-2.23119e-10
-1.45921e-11
4.90305e-09
-2.71463e-10
3.47662e-11
5.14046e-09
-2.75871e-10
3.84651e-11
5.38178e-09
-1.95281e-10
-4.60414e-11
5.6325e-09
2.91942e-11
-2.79919e-10
5.90111e-09
4.70623e-10
-7.39232e-10
6.19959e-09
1.20499e-09
-1.50347e-09
6.54051e-09
2.2892e-09
-2.63013e-09
6.93322e-09
3.69451e-09
-4.08722e-09
7.31167e-09
4.3602e-09
-4.73865e-09
7.63645e-09
4.21729e-09
-4.54207e-09
7.89874e-09
3.64845e-09
-3.91074e-09
8.09703e-09
2.81263e-09
-3.01092e-09
8.23318e-09
1.83847e-09
-1.97461e-09
8.30961e-09
8.17303e-10
-8.93736e-10
8.32823e-09
-1.85392e-10
1.66771e-10
8.29043e-09
-1.11884e-09
1.15664e-09
8.19767e-09
-1.94116e-09
2.03392e-09
8.05199e-09
-2.61817e-09
2.76385e-09
7.85632e-09
-3.1245e-09
3.32016e-09
7.61444e-09
-3.44481e-09
3.6867e-09
7.33055e-09
-3.57389e-09
3.85778e-09
7.00884e-09
-3.51524e-09
3.83695e-09
6.65302e-09
-3.27843e-09
3.63426e-09
6.26615e-09
-2.87531e-09
3.26219e-09
5.85098e-09
-2.31536e-09
2.73053e-09
5.41016e-09
-1.60142e-09
2.04225e-09
4.94472e-09
-7.32103e-10
1.19754e-09
4.44937e-09
2.79295e-10
2.16049e-10
3.91172e-09
1.3467e-09
-8.09046e-10
3.34211e-09
2.25529e-09
-1.68569e-09
2.37921e-09
3.01143e-09
-2.04853e-09
2.61791e-09
-6.17677e-10
2.78885e-09
-6.59716e-10
3.02039e-09
-6.09618e-10
3.27804e-09
-5.28447e-10
3.54641e-09
-4.42477e-10
3.81745e-09
-3.6811e-10
4.08768e-09
-3.11943e-10
4.35566e-09
-2.76973e-10
4.62095e-09
-2.64385e-10
4.8834e-09
-2.74204e-10
5.1432e-09
-3.04888e-10
5.4005e-09
-3.53384e-10
5.65551e-09
-4.13889e-10
5.9086e-09
-4.76207e-10
6.16059e-09
-5.23457e-10
6.41327e-09
-5.28548e-10
6.67005e-09
-4.52059e-10
6.93685e-09
-2.37606e-10
7.22287e-09
1.84598e-10
7.54131e-09
8.86552e-10
7.90626e-09
1.92425e-09
8.32883e-09
3.27195e-09
8.73952e-09
3.94951e-09
9.09563e-09
3.86117e-09
9.38666e-09
3.35743e-09
9.60997e-09
2.58932e-09
9.7667e-09
1.68173e-09
9.85886e-09
7.25142e-10
9.88817e-09
-2.14694e-10
9.85608e-09
-1.08675e-09
9.76435e-09
-1.84943e-09
9.61557e-09
-2.46939e-09
9.41347e-09
-2.9224e-09
9.16285e-09
-3.1942e-09
8.86932e-09
-3.28036e-09
8.53887e-09
-3.18479e-09
8.17766e-09
-2.91722e-09
7.79227e-09
-2.48993e-09
7.39092e-09
-1.91401e-09
6.98565e-09
-1.19615e-09
6.59495e-09
-3.41407e-10
6.2451e-09
6.29153e-10
5.97212e-09
1.61968e-09
5.83314e-09
2.39427e-09
2.44607e-09
5.76627e-09
4.53984e-09
-6.31166e-10
4.61353e-09
-7.33406e-10
4.75718e-09
-7.53274e-10
4.95479e-09
-7.2605e-10
5.1847e-09
-6.72392e-10
5.43331e-09
-6.16712e-10
5.692e-09
-5.70642e-10
5.95578e-09
-5.40753e-10
6.22174e-09
-5.30341e-10
6.48813e-09
-5.40595e-10
6.75401e-09
-5.70765e-10
7.0188e-09
-6.1817e-10
7.28219e-09
-6.77286e-10
7.54424e-09
-7.38251e-10
7.80557e-09
-7.84789e-10
8.06791e-09
-7.90893e-10
8.33483e-09
-7.18973e-10
8.61263e-09
-5.15407e-10
8.91122e-09
-1.13989e-10
9.24506e-09
5.5271e-10
9.62987e-09
1.53945e-09
1.00787e-08
2.82308e-09
1.05196e-08
3.50864e-09
1.09065e-08
3.4743e-09
1.12267e-08
3.03717e-09
1.14763e-08
2.33977e-09
1.16553e-08
1.50274e-09
1.1765e-08
6.1537e-10
1.1807e-08
-2.56682e-10
1.17827e-08
-1.06248e-09
1.16943e-08
-1.761e-09
1.1545e-08
-2.32007e-09
1.13395e-08
-2.71692e-09
1.1084e-08
-2.93869e-09
1.07858e-08
-2.98212e-09
1.04531e-08
-2.85207e-09
1.00951e-08
-2.55923e-09
9.72261e-09
-2.11747e-09
9.35003e-09
-1.54143e-09
8.99875e-09
-8.44877e-10
8.70179e-09
-4.44458e-11
8.50486e-09
8.26083e-10
8.45387e-09
1.67067e-09
8.55623e-09
2.29191e-09
2.35588e-09
8.64642e-09
7.15489e-09
-6.0758e-10
7.16216e-09
-7.40677e-10
7.22197e-09
-8.13078e-10
7.33934e-09
-8.43421e-10
7.50578e-09
-8.38832e-10
7.70616e-09
-8.17097e-10
7.92953e-09
-7.94014e-10
8.16814e-09
-7.79362e-10
8.41649e-09
-7.78691e-10
8.67083e-09
-7.9493e-10
8.92864e-09
-8.28577e-10
9.18822e-09
-8.77754e-10
9.44846e-09
-9.37527e-10
9.70882e-09
-9.98608e-10
9.96956e-09
-1.04553e-09
1.02322e-08
-1.05355e-09
1.05004e-08
-9.87153e-10
1.07808e-08
-7.95754e-10
1.10838e-08
-4.17054e-10
1.14254e-08
2.11125e-10
1.18229e-08
1.14193e-09
1.22916e-08
2.3544e-09
1.27582e-08
3.04206e-09
1.31734e-08
3.0591e-09
1.3522e-08
2.68858e-09
1.3798e-08
2.06378e-09
1.40001e-08
1.30056e-09
1.4129e-08
4.86548e-10
1.41854e-08
-3.13155e-10
1.41711e-08
-1.04813e-09
1.40885e-08
-1.67839e-09
1.39417e-08
-2.1733e-09
1.37367e-08
-2.51189e-09
1.34811e-08
-2.68311e-09
1.31843e-08
-2.68533e-09
1.28571e-08
-2.5249e-09
1.25121e-08
-2.2142e-09
1.21644e-08
-1.76973e-09
1.18336e-08
-1.21071e-09
1.15477e-08
-5.58934e-10
1.13454e-08
1.57825e-10
1.12747e-08
8.96783e-10
1.13705e-08
1.57493e-09
1.16089e-08
2.05347e-09
2.15675e-09
1.1808e-08
1.06297e-08
-5.67566e-10
1.05946e-08
-7.05515e-10
1.05918e-08
-8.10311e-10
1.06319e-08
-8.8349e-10
1.07186e-08
-9.25533e-10
1.08503e-08
-9.48807e-10
1.10146e-08
-9.58369e-10
1.12043e-08
-9.69049e-10
1.14124e-08
-9.86807e-10
1.16336e-08
-1.01613e-09
1.18639e-08
-1.05884e-09
1.21002e-08
-1.11409e-09
1.23405e-08
-1.17782e-09
1.25834e-08
-1.24153e-09
1.28287e-08
-1.29082e-09
1.30776e-08
-1.30241e-09
1.33336e-08
-1.24312e-09
1.36035e-08
-1.06575e-09
1.38987e-08
-7.12197e-10
1.42362e-08
-1.2637e-10
1.46352e-08
7.42922e-10
1.51132e-08
1.87644e-09
1.55975e-08
2.55768e-09
1.60359e-08
2.62076e-09
1.64097e-08
2.31481e-09
1.67105e-08
1.76291e-09
1.69355e-08
1.07556e-09
1.70839e-08
3.38143e-10
1.71561e-08
-3.85365e-10
1.71537e-08
-1.04565e-09
1.70795e-08
-1.60426e-09
1.69388e-08
-2.03256e-09
1.67387e-08
-2.31182e-09
1.64888e-08
-2.4332e-09
1.62006e-08
-2.39711e-09
1.58876e-08
-2.21187e-09
1.55655e-08
-1.89211e-09
1.52531e-08
-1.45732e-09
1.49735e-08
-9.31168e-10
1.47563e-08
-3.41739e-10
1.46377e-08
2.76474e-10
1.46554e-08
8.79101e-10
1.48272e-08
1.40307e-09
1.51163e-08
1.76436e-09
1.88065e-09
1.53924e-08
1.51619e-08
-5.23177e-10
1.51063e-08
-6.49976e-10
1.50618e-08
-7.65818e-10
1.50426e-08
-8.64271e-10
1.50568e-08
-9.39721e-10
1.51097e-08
-1.00169e-09
1.51991e-08
-1.04778e-09
1.53195e-08
-1.0895e-09
1.54648e-08
-1.13211e-09
1.56297e-08
-1.18099e-09
1.58094e-08
-1.23855e-09
1.60001e-08
-1.30479e-09
1.61988e-08
-1.37652e-09
1.64034e-08
-1.44616e-09
1.66132e-08
-1.50057e-09
1.68288e-08
-1.51806e-09
1.70539e-08
-1.46815e-09
1.72954e-08
-1.30728e-09
1.75651e-08
-9.81852e-10
1.78815e-08
-4.42852e-10
1.82658e-08
3.58688e-10
1.87374e-08
1.40483e-09
1.92272e-08
2.06788e-09
1.96797e-08
2.16821e-09
2.00724e-08
1.92214e-09
2.0394e-08
1.44131e-09
2.06394e-08
8.30182e-10
2.08063e-08
1.71259e-10
2.08943e-08
-4.73372e-10
2.09048e-08
-1.05619e-09
2.08414e-08
-1.54087e-09
2.07102e-08
-1.90133e-09
2.05199e-08
-2.1215e-09
2.02818e-08
-2.19514e-09
2.00097e-08
-2.12503e-09
1.97196e-08
-1.92173e-09
1.94297e-08
-1.60221e-09
1.9161e-08
-1.18861e-09
1.89375e-08
-7.07642e-10
1.8786e-08
-1.90331e-10
1.87347e-08
3.27813e-10
1.88066e-08
8.07248e-10
1.90053e-08
1.20435e-09
1.92953e-08
1.47432e-09
1.58494e-09
1.9591e-08
2.09865e-08
-4.79033e-10
2.09256e-08
-5.89009e-10
2.08601e-08
-7.00335e-10
2.08017e-08
-8.05899e-10
2.07625e-08
-9.00509e-10
2.0747e-08
-9.86166e-10
2.07604e-08
-1.06115e-09
2.0802e-08
-1.13119e-09
2.08695e-08
-1.19955e-09
2.0959e-08
-1.27047e-09
2.10666e-08
-1.34619e-09
2.11887e-08
-1.42693e-09
2.13222e-08
-1.51e-09
2.14647e-08
-1.5886e-09
2.1615e-08
-1.65086e-09
2.17737e-08
-1.67676e-09
2.19443e-08
-1.63876e-09
2.21342e-08
-1.49723e-09
2.23555e-08
-1.20319e-09
2.26287e-08
-7.15983e-10
2.29763e-08
1.10891e-11
2.342e-08
9.61134e-10
2.38974e-08
1.59044e-09
2.43505e-08
1.71507e-09
2.47517e-08
1.52101e-09
2.50862e-08
1.10677e-09
2.53464e-08
5.69983e-10
2.55281e-08
-1.04536e-11
2.563e-08
-5.75216e-10
2.56532e-08
-1.07938e-09
2.56018e-08
-1.48947e-09
2.54829e-08
-1.78246e-09
2.53068e-08
-1.9454e-09
2.50866e-08
-1.97491e-09
2.48378e-08
-1.87631e-09
2.45785e-08
-1.66237e-09
2.43282e-08
-1.35198e-09
2.41085e-08
-9.68837e-10
2.39414e-08
-5.40539e-10
2.38485e-08
-9.74692e-11
2.38479e-08
3.28438e-10
2.39492e-08
7.05902e-10
2.41466e-08
1.00694e-09
2.44107e-08
1.21021e-09
1.30668e-09
2.4689e-08
2.83837e-08
-4.34276e-10
2.83222e-08
-5.27576e-10
2.82492e-08
-6.27291e-10
2.81718e-08
-7.28497e-10
2.80985e-08
-8.27235e-10
2.80347e-08
-9.22391e-10
2.79867e-08
-1.01314e-09
2.79568e-08
-1.10122e-09
2.79458e-08
-1.18857e-09
2.79529e-08
-1.27754e-09
2.79761e-08
-1.36947e-09
2.80133e-08
-1.4641e-09
2.80621e-08
-1.55877e-09
2.81206e-08
-1.64709e-09
2.8188e-08
-1.71833e-09
2.82652e-08
-1.75396e-09
2.83561e-08
-1.72963e-09
2.84686e-08
-1.60975e-09
2.86153e-08
-1.34989e-09
2.88186e-08
-9.19275e-10
2.91029e-08
-2.73225e-10
2.94916e-08
5.72502e-10
2.99333e-08
1.14872e-09
3.03681e-08
1.28025e-09
3.07623e-08
1.12684e-09
3.10975e-08
7.716e-10
3.13629e-08
3.04539e-10
3.15523e-08
-1.99847e-10
3.16631e-08
-6.86002e-10
3.16962e-08
-1.11249e-09
3.16561e-08
-1.44941e-09
3.1551e-08
-1.67735e-09
3.13924e-08
-1.78679e-09
3.11949e-08
-1.77736e-09
3.09754e-08
-1.65683e-09
3.07528e-08
-1.43977e-09
3.05469e-08
-1.14608e-09
3.03776e-08
-7.99543e-10
3.02634e-08
-4.2639e-10
3.02196e-08
-5.36263e-11
3.02552e-08
2.92818e-10
3.03708e-08
5.90359e-10
3.05555e-08
8.22206e-10
3.07863e-08
9.79371e-10
1.06213e-09
3.10309e-08
3.7677e-08
-3.85594e-10
3.76138e-08
-4.64361e-10
3.75374e-08
-5.50908e-10
3.74513e-08
-6.42336e-10
3.73599e-08
-7.35888e-10
3.72675e-08
-8.3002e-10
3.71784e-08
-9.2401e-10
3.70954e-08
-1.01819e-09
3.70203e-08
-1.11354e-09
3.6954e-08
-1.21121e-09
3.68962e-08
-1.31166e-09
3.68462e-08
-1.4141e-09
3.68031e-08
-1.51568e-09
3.67662e-08
-1.61013e-09
3.67357e-08
-1.68783e-09
3.67131e-08
-1.73142e-09
3.67035e-08
-1.71996e-09
3.67157e-08
-1.62196e-09
3.67629e-08
-1.39709e-09
3.68699e-08
-1.02629e-09
3.70629e-08
-4.66269e-10
3.73665e-08
2.68918e-10
3.77452e-08
7.70061e-10
3.81381e-08
8.87273e-10
3.8505e-08
7.60006e-10
3.88236e-08
4.52955e-10
3.90801e-08
4.80129e-11
3.92659e-08
-3.85596e-10
3.9377e-08
-7.9715e-10
3.94142e-08
-1.1496e-09
3.93821e-08
-1.41736e-09
3.92898e-08
-1.58506e-09
3.91498e-08
-1.64681e-09
3.89777e-08
-1.60516e-09
3.87908e-08
-1.46996e-09
3.86078e-08
-1.25683e-09
3.84473e-08
-9.85562e-10
3.83263e-08
-6.78483e-10
3.82586e-08
-3.58734e-10
3.82535e-08
-4.84964e-11
3.83137e-08
2.3265e-10
3.84345e-08
4.6947e-10
3.86042e-08
6.52558e-10
3.88047e-08
7.78887e-10
8.51654e-10
3.90152e-08
4.92231e-08
-3.3053e-10
4.91556e-08
-3.96804e-10
4.90753e-08
-4.70643e-10
4.89835e-08
-5.50496e-10
4.88822e-08
-6.34581e-10
4.87737e-08
-7.2156e-10
4.86604e-08
-8.10665e-10
4.85439e-08
-9.01755e-10
4.84256e-08
-9.95168e-10
4.83058e-08
-1.09141e-09
4.81846e-08
-1.19046e-09
4.80617e-08
-1.29124e-09
4.7937e-08
-1.39094e-09
4.78104e-08
-1.48354e-09
4.76833e-08
-1.56072e-09
4.7558e-08
-1.60617e-09
4.74407e-08
-1.60269e-09
4.73418e-08
-1.52297e-09
4.72749e-08
-1.3302e-09
4.72673e-08
-1.01874e-09
4.73471e-08
-5.46074e-10
4.75397e-08
7.63773e-11
4.78289e-08
4.80863e-10
4.81547e-08
5.6145e-10
4.84707e-08
4.44026e-10
4.8752e-08
1.71624e-10
4.89815e-08
-1.81471e-10
4.91484e-08
-5.525e-10
4.92476e-08
-8.96387e-10
4.92794e-08
-1.18142e-09
4.92489e-08
-1.38687e-09
4.91656e-08
-1.50172e-09
4.90424e-08
-1.52366e-09
4.88951e-08
-1.45787e-09
4.87408e-08
-1.3156e-09
4.85966e-08
-1.11261e-09
4.84785e-08
-8.67482e-10
4.83999e-08
-5.99889e-10
4.83702e-08
-3.29013e-10
4.83936e-08
-7.19585e-11
4.8469e-08
1.57272e-10
4.85899e-08
3.48556e-10
4.87452e-08
4.97291e-10
4.89211e-08
6.02996e-10
6.69211e-10
4.91035e-08
6.33961e-08
-2.69563e-10
6.33241e-08
-3.24802e-10
6.32402e-08
-3.86746e-10
6.31444e-08
-4.54661e-10
6.30373e-08
-5.27482e-10
6.29199e-08
-6.04181e-10
6.27932e-08
-6.83987e-10
6.26579e-08
-7.66492e-10
6.25143e-08
-8.51542e-10
6.2362e-08
-9.39137e-10
6.22004e-08
-1.02885e-09
6.20286e-08
-1.11946e-09
6.18461e-08
-1.20835e-09
6.16524e-08
-1.28987e-09
6.14491e-08
-1.35742e-09
6.12386e-08
-1.39574e-09
6.10278e-08
-1.39185e-09
6.08276e-08
-1.32276e-09
6.06524e-08
-1.15505e-09
6.05307e-08
-8.97031e-10
6.04919e-08
-5.07216e-10
6.0563e-08
5.27291e-12
6.07463e-08
2.97504e-10
6.09837e-08
3.24106e-10
6.12267e-08
2.00956e-10
6.14502e-08
-5.18513e-11
6.16337e-08
-3.64997e-10
6.17649e-08
-6.83648e-10
6.18379e-08
-9.69378e-10
6.18528e-08
-1.19634e-09
6.1815e-08
-1.34902e-09
6.1734e-08
-1.42078e-09
6.1623e-08
-1.4126e-09
6.14968e-08
-1.33167e-09
6.1371e-08
-1.18987e-09
6.12606e-08
-1.00221e-09
6.11783e-08
-7.85156e-10
6.11336e-08
-5.5517e-10
6.1132e-08
-3.27393e-10
6.11745e-08
-1.14515e-10
6.12574e-08
7.43479e-11
6.13747e-08
2.31302e-10
6.15165e-08
3.55479e-10
6.16726e-08
4.46947e-10
5.08795e-10
6.1833e-08
8.05856e-08
-2.06389e-10
8.05124e-08
-2.51686e-10
8.04283e-08
-3.02561e-10
8.03323e-08
-3.58731e-10
8.02245e-08
-4.19606e-10
8.01047e-08
-4.84464e-10
7.99734e-08
-5.52604e-10
7.98303e-08
-6.23471e-10
7.96753e-08
-6.9655e-10
7.95076e-08
-7.71415e-10
7.9326e-08
-8.47208e-10
7.9129e-08
-9.2249e-10
7.89154e-08
-9.94792e-10
7.86843e-08
-1.05876e-09
7.84365e-08
-1.10955e-09
7.81737e-08
-1.13294e-09
7.79023e-08
-1.12048e-09
7.76325e-08
-1.053e-09
7.73795e-08
-9.02051e-10
7.71696e-08
-6.87116e-10
7.70312e-08
-3.68783e-10
7.69999e-08
3.65759e-11
7.70805e-08
2.16849e-10
7.72188e-08
1.85878e-10
7.73767e-08
4.30109e-11
7.75296e-08
-2.04776e-10
7.76535e-08
-4.88834e-10
7.77353e-08
-7.6551e-10
7.77698e-08
-1.00382e-09
7.77572e-08
-1.18378e-09
7.77032e-08
-1.29504e-09
7.76175e-08
-1.33502e-09
7.75123e-08
-1.30737e-09
7.74011e-08
-1.22051e-09
7.72974e-08
-1.08617e-09
7.7213e-08
-9.17844e-10
7.71573e-08
-7.29481e-10
7.71364e-08
-5.3426e-10
7.71527e-08
-3.43694e-10
7.72052e-08
-1.66989e-10
7.72901e-08
-1.05817e-11
7.74005e-08
1.20988e-10
7.75292e-08
2.26723e-10
7.76684e-08
3.07808e-10
3.66406e-10
7.78107e-08
1.01228e-07
-1.45903e-10
1.01159e-07
-1.8223e-10
1.01079e-07
-2.22932e-10
1.00988e-07
-2.67932e-10
1.00886e-07
-3.16915e-10
1.00771e-07
-3.69392e-10
1.00643e-07
-4.24761e-10
1.00502e-07
-4.82427e-10
1.00347e-07
-5.41653e-10
1.00177e-07
-6.0174e-10
9.99914e-08
-6.61458e-10
9.97881e-08
-7.19212e-10
9.95658e-08
-7.72533e-10
9.93235e-08
-8.16431e-10
9.90614e-08
-8.4743e-10
9.87809e-08
-8.52418e-10
9.84879e-08
-8.2747e-10
9.81902e-08
-7.55298e-10
9.79044e-08
-6.16251e-10
9.76521e-08
-4.34841e-10
9.74542e-08
-1.70863e-10
9.73615e-08
1.29216e-10
9.73712e-08
2.07145e-10
9.74225e-08
1.34649e-10
9.74994e-08
-3.39659e-11
9.75854e-08
-2.90765e-10
9.76482e-08
-5.51601e-10
9.7677e-08
-7.94356e-10
9.76684e-08
-9.95154e-10
9.76238e-08
-1.13918e-09
9.75493e-08
-1.2206e-09
9.74545e-08
-1.24015e-09
9.73504e-08
-1.2033e-09
9.72488e-08
-1.11887e-09
9.71603e-08
-9.97696e-10
9.70938e-08
-8.51394e-10
9.70557e-08
-6.9131e-10
9.70491e-08
-5.27703e-10
9.70746e-08
-3.69209e-10
9.71302e-08
-2.22528e-10
9.72118e-08
-9.2187e-11