/*--------------------------------*- C++ -*----------------------------------*\
| =========                 |                                                 |
| \\      /  F ield         | OpenFOAM: The Open Source CFD Toolbox           |
|  \\    /   O peration     | Version:  2312                                  |
|   \\  /    A nd           | Website:  www.openfoam.com                      |
|    \\/     M anipulation  |                                                 |
\*---------------------------------------------------------------------------*/
FoamFile
{
    version     2.0;
    format      ascii;
    arch        "LSB;label=32;scalar=64";
    class       volVectorField;
    location    "105";
    object      U;
}
// * * * * * * * * * * * * * * * * * * * * * * * * * * * * * * * * * * * * * //

dimensions      [0 1 -1 0 0 0 0];

internalField   nonuniform List<vector> 
4800
(
(0.000496485 2.81434e-07 -2.93415e-26)
(0.000489816 3.36569e-07 -2.09714e-25)
(0.000485763 3.7238e-07 2.682e-25)
(0.000483488 3.8381e-07 1.26566e-25)
(0.000482545 3.9126e-07 1.90034e-24)
(0.000482673 3.7312e-07 -4.54535e-24)
(0.000483823 3.3269e-07 4.29689e-24)
(0.000485886 2.58542e-07 -6.301e-24)
(0.000488924 9.4598e-08 2.00768e-24)
(0.00049318 -2.07045e-07 6.97152e-24)
(0.000499117 -7.81832e-07 -2.14617e-24)
(0.00050806 -2.30155e-06 -1.75878e-25)
(0.000527573 -7.83584e-06 -2.65122e-24)
(0.000576817 -3.03534e-05 1.22625e-24)
(0.000658888 -9.99611e-05 -9.72535e-25)
(0.00153458 1.42729e-06 -9.28786e-26)
(0.00151351 1.04284e-06 1.15847e-25)
(0.00150023 7.28165e-07 -1.09924e-24)
(0.0014923 4.25866e-07 8.14569e-25)
(0.00148836 1.32191e-07 2.70752e-24)
(0.00148763 -2.12105e-07 -4.3283e-24)
(0.00148985 -6.55818e-07 -1.27292e-24)
(0.00149467 -1.23168e-06 -3.31532e-25)
(0.00150234 -2.13056e-06 1.04523e-23)
(0.00151341 -3.61511e-06 -7.75531e-24)
(0.00152922 -6.3403e-06 8.44821e-25)
(0.0015526 -1.26333e-05 1.30016e-24)
(0.00159282 -3.0625e-05 -1.92976e-24)
(0.00166136 -8.57382e-05 -5.76088e-25)
(0.00173558 -0.000211776 2.51939e-24)
(0.00268063 4.66695e-06 -6.64203e-26)
(0.00264356 3.44674e-06 6.7763e-26)
(0.00261956 2.48315e-06 7.17181e-25)
(0.00260459 1.59892e-06 -1.72426e-24)
(0.00259638 6.8187e-07 1.71354e-24)
(0.00259355 -3.86179e-07 1.63463e-24)
(0.00259564 -1.74977e-06 -4.2106e-24)
(0.00260179 -3.52575e-06 -2.69023e-24)
(0.00261256 -6.15228e-06 6.45154e-24)
(0.00262844 -1.0268e-05 2.46487e-24)
(0.00265086 -1.74213e-05 -8.56432e-24)
(0.00268207 -3.17554e-05 -1.31774e-24)
(0.00272631 -6.33575e-05 3.67847e-24)
(0.0027824 -0.000133261 5.84437e-24)
(0.00282346 -0.000251321 -3.02317e-24)
(0.00393985 1.05693e-05 2.4506e-26)
(0.00388565 7.98789e-06 -1.72024e-25)
(0.00384968 5.95543e-06 7.78542e-25)
(0.00382637 4.10142e-06 8.59783e-25)
(0.00381257 2.18416e-06 -8.30442e-25)
(0.00380621 -2.53803e-08 -4.96921e-24)
(0.00380678 -2.86008e-06 -3.43583e-24)
(0.00381255 -6.354e-06 1.27706e-23)
(0.00382426 -1.15414e-05 5.43547e-24)
(0.00384212 -1.93343e-05 -7.7718e-24)
(0.00386668 -3.18868e-05 -3.15246e-24)
(0.00389843 -5.39378e-05 -2.42356e-24)
(0.00393648 -9.39374e-05 6.89046e-26)
(0.00397329 -0.000162918 1.80343e-24)
(0.00398909 -0.00025687 8.84657e-27)
(0.00531474 1.97269e-05 -4.4844e-26)
(0.00524337 1.51869e-05 -2.77268e-25)
(0.00519479 1.16112e-05 -1.84475e-25)
(0.00516219 8.36277e-06 4.78475e-25)
(0.00514164 5.0425e-06 -1.41043e-24)
(0.00513048 1.23461e-06 3.53122e-24)
(0.00512771 -3.49824e-06 -6.07142e-25)
(0.00513152 -9.22325e-06 2.21113e-24)
(0.00514179 -1.74308e-05 -1.24334e-23)
(0.00515845 -2.92736e-05 2.38344e-23)
(0.00518078 -4.68378e-05 -2.31532e-23)
(0.00520751 -7.40548e-05 1.22838e-23)
(0.00523503 -0.000116018 -1.14605e-23)
(0.00525518 -0.000176256 1.08607e-23)
(0.00525661 -0.000247482 -4.34692e-24)
(0.00680334 3.27303e-05 5.9017e-26)
(0.0067166 2.56545e-05 2.13887e-25)
(0.00665599 2.00716e-05 -1.13863e-24)
(0.00661396 1.50179e-05 -7.49731e-25)
(0.00658603 9.90463e-06 1.97344e-24)
(0.00656914 4.12537e-06 7.25513e-25)
(0.00656154 -2.74779e-06 -5.72463e-24)
(0.00656163 -1.12613e-05 1.37513e-23)
(0.00656843 -2.26548e-05 -1.80088e-23)
(0.00658093 -3.81803e-05 4.30664e-24)
(0.00659767 -5.95484e-05 1.33069e-23)
(0.00661625 -8.91266e-05 -1.85902e-23)
(0.00663258 -0.000128876 9.3283e-24)
(0.00664053 -0.000178366 9.65965e-24)
(0.00663481 -0.000231367 -7.37281e-24)
(0.00839689 4.98354e-05 4.85627e-26)
(0.00829947 3.98064e-05 -2.89585e-25)
(0.00822938 3.18532e-05 1.05225e-24)
(0.0081792 2.46615e-05 -1.47493e-24)
(0.00814427 1.74369e-05 -5.13505e-24)
(0.0081214 9.43208e-06 8.76502e-24)
(0.00810833 7.4622e-08 -5.39779e-24)
(0.00810333 -1.11955e-05 1.85734e-23)
(0.00810487 -2.55623e-05 -1.26296e-23)
(0.00811128 -4.40651e-05 -5.96517e-24)
(0.00812051 -6.77188e-05 -1.18661e-23)
(0.00812991 -9.74141e-05 1.09063e-23)
(0.00813613 -0.000133091 3.08858e-24)
(0.00813543 -0.00017289 2.67205e-24)
(0.00812598 -0.000212519 -2.35648e-24)
(0.0100776 7.04919e-05 -6.96116e-26)
(0.00997792 5.74754e-05 9.55096e-25)
(0.0099037 4.70401e-05 -2.2466e-24)
(0.00984871 3.75679e-05 -1.90487e-24)
(0.00980879 2.80832e-05 6.63578e-25)
(0.00978092 1.77565e-05 1.38033e-24)
(0.00976275 5.92131e-06 5.12776e-24)
(0.00975233 -7.96216e-06 -1.41345e-23)
(0.00974787 -2.47873e-05 -7.69663e-24)
(0.00974738 -4.52669e-05 2.09483e-23)
(0.00974868 -6.97225e-05 -6.59067e-24)
(0.00974941 -9.80225e-05 2.2581e-23)
(0.0097473 -0.000129199 -1.19256e-23)
(0.00974031 -0.000161324 -3.84017e-24)
(0.00972833 -0.000191729 2.28203e-24)
(0.0118181 9.27879e-05 -9.16725e-27)
(0.0117284 7.7414e-05 5.26219e-25)
(0.0116584 6.48431e-05 -7.52154e-25)
(0.0116045 5.3296e-05 1.85324e-24)
(0.0115636 4.17022e-05 -1.11911e-23)
(0.0115334 2.92213e-05 1.18606e-23)
(0.0115119 1.52035e-05 -1.90526e-23)
(0.0114971 -8.29229e-07 1.16607e-23)
(0.0114873 -1.93759e-05 8.79252e-24)
(0.0114805 -4.07657e-05 1.93578e-23)
(0.0114749 -6.48125e-05 -2.5348e-23)
(0.0114685 -9.08763e-05 -4.76849e-24)
(0.0114602 -0.00011781 2.14524e-24)
(0.0114487 -0.000144128 1.5789e-23)
(0.0114347 -0.000168269 -6.45046e-24)
(0.0135862 0.000113087 5.03471e-26)
(0.0135201 9.68558e-05 -2.19982e-25)
(0.0134647 8.31298e-05 9.98688e-25)
(0.0134195 7.0215e-05 -3.55292e-24)
(0.0133835 5.70895e-05 5.44011e-24)
(0.0133554 4.3001e-05 -7.12484e-24)
(0.0133338 2.74158e-05 1.20504e-23)
(0.0133173 1.00271e-05 2.20308e-24)
(0.0133043 -9.38727e-06 -1.68659e-23)
(0.0132933 -3.06495e-05 2.42667e-23)
(0.0132829 -5.33776e-05 -2.68688e-23)
(0.0132718 -7.68231e-05 -8.03298e-24)
(0.0132595 -9.99948e-05 1.41121e-23)
(0.0132453 -0.0001219 4.2262e-24)
(0.0132301 -0.000141663 -1.85377e-24)
(0.0153569 0.000126539 2.05946e-25)
(0.0153241 0.000111672 -1.71995e-24)
(0.015292 9.83675e-05 -2.82286e-24)
(0.0152629 8.53057e-05 6.655e-24)
(0.0152379 7.16786e-05 3.06677e-24)
(0.0152169 5.69332e-05 -1.92909e-23)
(0.0151995 4.07524e-05 5.87385e-24)
(0.0151848 2.30502e-05 4.28127e-24)
(0.0151718 3.87445e-06 -1.90951e-23)
(0.0151597 -1.63638e-05 1.9789e-23)
(0.0151475 -3.71549e-05 -1.61532e-23)
(0.0151346 -5.78365e-05 4.14394e-23)
(0.0151208 -7.76878e-05 -2.00647e-23)
(0.0151059 -9.61052e-05 1.1877e-23)
(0.0150908 -0.000112614 -3.25602e-24)
(0.0171287 0.000129346 -8.70097e-26)
(0.0171288 0.000117845 1.18198e-24)
(0.017122 0.00010666 -2.30289e-24)
(0.0171121 9.4896e-05 -1.2044e-24)
(0.0171015 8.20452e-05 1.34179e-23)
(0.017091 6.78379e-05 -1.85381e-24)
(0.017081 5.22407e-05 -2.42786e-23)
(0.0170713 3.53868e-05 2.85593e-23)
(0.0170615 1.75983e-05 -6.38157e-24)
(0.0170512 -7.70782e-07 -2.2538e-23)
(0.0170403 -1.91503e-05 2.41959e-23)
(0.0170283 -3.69998e-05 1.32227e-23)
(0.0170156 -5.38322e-05 -1.10088e-23)
(0.0170019 -6.93078e-05 -1.93192e-23)
(0.0169882 -8.31789e-05 1.62947e-24)
(0.0189275 0.000122125 1.05862e-26)
(0.0189486 0.000114316 -1.35391e-24)
(0.01896 0.000106093 6.36014e-24)
(0.0189654 9.66573e-05 4.41757e-25)
(0.0189673 8.56492e-05 3.74154e-24)
(0.0189666 7.305e-05 -1.31938e-23)
(0.0189643 5.90839e-05 1.14386e-23)
(0.0189604 4.40985e-05 2.70214e-24)
(0.0189552 2.84962e-05 2.39635e-23)
(0.0189484 1.26983e-05 -3.68707e-23)
(0.0189404 -2.86195e-06 -1.68553e-23)
(0.0189311 -1.77914e-05 -1.12707e-23)
(0.018921 -3.17614e-05 2.11643e-23)
(0.0189098 -4.45785e-05 -6.19948e-25)
(0.0188986 -5.61135e-05 2.07288e-24)
(0.0207795 0.000108691 -8.52072e-27)
(0.0208074 0.000104261 1.456e-24)
(0.0208263 9.89487e-05 -2.11882e-24)
(0.0208389 9.20382e-05 3.12671e-27)
(0.020847 8.32973e-05 2.69337e-24)
(0.0208517 7.28325e-05 6.91359e-24)
(0.0208538 6.10472e-05 -2.68657e-23)
(0.0208537 4.8427e-05 2.19012e-24)
(0.0208516 3.54233e-05 1.37582e-23)
(0.0208478 2.24166e-05 -6.42885e-24)
(0.0208425 9.74611e-06 1.75382e-23)
(0.0208357 -2.32474e-06 1.23906e-23)
(0.0208282 -1.35886e-05 -2.24805e-23)
(0.0208195 -2.39403e-05 1.54776e-23)
(0.0208108 -3.33126e-05 -1.28873e-23)
(0.0226781 9.3687e-05 -3.11091e-25)
(0.0227038 9.20359e-05 -1.47164e-25)
(0.0227224 8.898e-05 2.69391e-24)
(0.0227356 8.43623e-05 -1.30263e-23)
(0.0227446 7.80756e-05 1.14182e-23)
(0.02275 7.00733e-05 -8.24266e-24)
(0.0227529 6.07632e-05 5.91179e-24)
(0.0227535 5.06972e-05 -4.216e-23)
(0.0227524 4.03284e-05 6.09059e-23)
(0.0227495 2.99844e-05 -3.60686e-23)
(0.0227453 1.99421e-05 3.22834e-23)
(0.0227398 1.04039e-05 2.71644e-23)
(0.0227337 1.51558e-06 -4.75225e-23)
(0.0227266 -6.66701e-06 1.55043e-23)
(0.0227194 -1.41144e-05 -6.53245e-25)
(0.02457 7.88772e-05 -1.10963e-26)
(0.0245912 7.98114e-05 -9.38154e-25)
(0.0246065 7.89894e-05 9.62959e-25)
(0.0246175 7.65291e-05 -3.74665e-25)
(0.0246251 7.25784e-05 4.91595e-24)
(0.0246294 6.70563e-05 -8.35674e-24)
(0.0246314 6.0359e-05 7.66865e-24)
(0.0246313 5.30084e-05 -2.41119e-23)
(0.0246297 4.53532e-05 5.48203e-23)
(0.0246265 3.76161e-05 -7.0172e-23)
(0.0246224 3.00106e-05 5.75296e-23)
(0.0246172 2.27209e-05 -1.9449e-23)
(0.0246115 1.58964e-05 1.01412e-24)
(0.024605 9.59049e-06 4.47763e-24)
(0.0245985 3.82067e-06 -8.59346e-24)
(0.0263658 6.44524e-05 -8.78349e-25)
(0.0263835 6.79412e-05 5.37136e-25)
(0.0263954 6.94298e-05 1.05474e-24)
(0.0264037 6.94826e-05 -2.64451e-24)
(0.0264092 6.78741e-05 9.07795e-24)
(0.0264121 6.46513e-05 -8.90857e-24)
(0.0264131 6.04467e-05 -7.42716e-24)
(0.0264123 5.58162e-05 -1.75914e-23)
(0.0264101 5.0886e-05 9.30166e-24)
(0.0264064 4.57319e-05 4.2623e-23)
(0.026402 4.04892e-05 -2.24282e-23)
(0.0263968 3.53257e-05 1.32665e-23)
(0.0263913 3.04202e-05 -5.48544e-24)
(0.0263852 2.5845e-05 -1.61479e-23)
(0.026379 2.16252e-05 8.26347e-24)
(0.0279454 4.98023e-05 2.68579e-25)
(0.0279598 5.66295e-05 -3.38307e-25)
(0.0279692 6.03781e-05 1.84082e-24)
(0.0279746 6.31336e-05 -6.51605e-24)
(0.0279783 6.44875e-05 -1.72889e-24)
(0.0279797 6.28104e-05 1.55945e-23)
(0.0279792 6.08075e-05 -9.97155e-24)
(0.0279777 5.8839e-05 -5.34325e-24)
(0.0279753 5.67108e-05 5.26542e-24)
(0.0279719 5.42885e-05 -6.35878e-24)
(0.0279676 5.15082e-05 1.66513e-23)
(0.0279624 4.83521e-05 8.50711e-24)
(0.0279571 4.52713e-05 -3.18997e-23)
(0.0279514 4.23187e-05 2.19189e-23)
(0.0279456 3.95355e-05 -4.44472e-24)
(0.0291394 3.73872e-05 7.25501e-25)
(0.0291499 4.57061e-05 1.2279e-25)
(0.0291574 5.2704e-05 -7.57568e-25)
(0.0291606 5.81186e-05 3.23726e-24)
(0.0291635 6.09601e-05 -4.82578e-24)
(0.0291635 6.41348e-05 -6.96543e-24)
(0.0291624 6.47708e-05 -5.45374e-24)
(0.0291606 6.46263e-05 1.4835e-23)
(0.0291581 6.40615e-05 1.4671e-23)
(0.0291548 6.31973e-05 -4.10029e-23)
(0.0291509 6.21148e-05 2.55622e-23)
(0.0291462 6.08389e-05 -1.79297e-24)
(0.0291415 5.95142e-05 -1.40841e-24)
(0.0291364 5.81529e-05 1.86849e-24)
(0.0291311 5.68009e-05 -8.52648e-25)
(0.0297228 2.49788e-05 -1.70778e-24)
(0.0297321 3.58419e-05 -1.33536e-24)
(0.029738 4.4767e-05 3.93653e-24)
(0.0297418 5.21248e-05 -2.69797e-24)
(0.0297441 5.7889e-05 1.55562e-24)
(0.0297449 6.24008e-05 4.43084e-24)
(0.0297445 6.57628e-05 -3.3771e-24)
(0.0297433 6.80667e-05 -2.06179e-23)
(0.0297412 6.96145e-05 4.53283e-23)
(0.0297384 7.06744e-05 -1.85263e-23)
(0.0297351 7.14298e-05 6.59767e-24)
(0.0297315 7.19494e-05 -1.19066e-23)
(0.0297277 7.22496e-05 -1.16114e-23)
(0.0297236 7.23529e-05 1.68132e-23)
(0.0297193 7.23157e-05 -7.13063e-24)
(0.0295198 1.47946e-05 2.41189e-24)
(0.029525 2.71905e-05 -4.5298e-24)
(0.0295281 3.78129e-05 1.61624e-24)
(0.02953 4.69206e-05 -2.08807e-24)
(0.0295306 5.44598e-05 5.07665e-24)
(0.0295302 6.06855e-05 -4.94161e-24)
(0.0295291 6.58326e-05 -1.22403e-23)
(0.0295274 7.00397e-05 2.97796e-23)
(0.0295252 7.34792e-05 6.12173e-24)
(0.0295226 7.6352e-05 -1.66666e-23)
(0.0295197 7.87869e-05 -8.16384e-24)
(0.0295166 8.08222e-05 9.01281e-24)
(0.0295132 8.25054e-05 -9.45421e-24)
(0.0295096 8.38821e-05 5.26224e-24)
(0.0295058 8.5011e-05 -2.25257e-24)
(0.0284987 9.74339e-06 1.34218e-24)
(0.0285024 2.28418e-05 -2.39519e-24)
(0.0285051 3.42428e-05 3.37672e-27)
(0.0285071 4.4117e-05 8.91933e-26)
(0.0285086 5.25663e-05 2.99366e-24)
(0.0285094 5.9822e-05 6.97576e-25)
(0.0285098 6.60563e-05 -1.60086e-24)
(0.0285098 7.14265e-05 -2.28532e-24)
(0.0285095 7.60483e-05 -4.63831e-24)
(0.0285089 8.00282e-05 2.89493e-23)
(0.028508 8.34693e-05 -1.79178e-23)
(0.0285068 8.64235e-05 1.49811e-24)
(0.0285055 8.896e-05 -2.08718e-23)
(0.028504 9.11417e-05 1.00566e-23)
(0.0285023 9.30129e-05 3.14505e-24)
(0.026925 7.71748e-06 3.08949e-24)
(0.0269255 2.05939e-05 -4.85813e-24)
(0.0269257 3.19179e-05 1.17003e-24)
(0.0269259 4.18622e-05 5.61832e-25)
(0.026926 5.05549e-05 3.58776e-24)
(0.026926 5.81596e-05 -7.71347e-24)
(0.0269258 6.48156e-05 5.19173e-24)
(0.0269256 7.06441e-05 -2.66529e-24)
(0.0269253 7.57682e-05 2.00911e-24)
(0.0269249 8.02181e-05 9.66324e-24)
(0.0269245 8.41115e-05 -2.07472e-23)
(0.026924 8.75258e-05 1.53374e-23)
(0.0269234 9.04921e-05 -1.3954e-24)
(0.0269229 9.30619e-05 -4.33545e-24)
(0.0269222 9.52836e-05 6.66923e-25)
(0.025003 8.42321e-06 1.13119e-24)
(0.0250015 2.06346e-05 -4.55313e-24)
(0.0250004 3.14828e-05 5.7038e-24)
(0.0249999 4.11094e-05 -2.43197e-24)
(0.0249996 4.96228e-05 -1.5636e-24)
(0.0249997 5.71516e-05 -5.86079e-25)
(0.0249999 6.38167e-05 5.63993e-25)
(0.0250003 6.9715e-05 2.78099e-24)
(0.0250009 7.49249e-05 -9.18169e-24)
(0.0250016 7.95145e-05 -2.87241e-24)
(0.0250024 8.35527e-05 1.28375e-23)
(0.0250034 8.70909e-05 3.40404e-24)
(0.0250044 9.01846e-05 -5.74637e-24)
(0.0250055 9.28731e-05 1.75909e-24)
(0.0250067 9.5173e-05 -4.91576e-25)
(0.0228838 1.10754e-05 1.46525e-25)
(0.0228813 2.21445e-05 -1.62456e-24)
(0.0228799 3.20437e-05 4.80446e-26)
(0.0228796 4.08791e-05 2.53793e-24)
(0.02288 4.87504e-05 -3.8989e-25)
(0.0228811 5.57607e-05 -4.16833e-25)
(0.0228827 6.2002e-05 -3.32806e-25)
(0.0228847 6.75497e-05 3.30154e-25)
(0.0228871 7.24712e-05 2.73627e-24)
(0.0228899 7.68203e-05 -1.46682e-23)
(0.0228929 8.06452e-05 1.28359e-23)
(0.0228962 8.39931e-05 1.38286e-24)
(0.0228998 8.68999e-05 -1.84104e-24)
(0.0229036 8.93896e-05 -3.03085e-24)
(0.0229075 9.14851e-05 2.52867e-24)
(0.0206833 1.39022e-05 2.16239e-25)
(0.0206815 2.3416e-05 1.43967e-24)
(0.0206813 3.197e-05 -1.73469e-24)
(0.0206825 3.96401e-05 -3.59773e-25)
(0.0206848 4.65095e-05 -4.66344e-25)
(0.020688 5.26544e-05 3.35287e-25)
(0.0206919 5.81434e-05 -3.22278e-25)
(0.0206965 6.30355e-05 1.61195e-24)
(0.0207017 6.7379e-05 5.71476e-25)
(0.0207074 7.12126e-05 -8.12784e-26)
(0.0207135 7.45709e-05 3.47343e-24)
(0.02072 7.74838e-05 -1.61476e-24)
(0.0207268 7.99773e-05 -3.64618e-25)
(0.020734 8.20754e-05 -7.63507e-25)
(0.0207414 8.37986e-05 -2.22968e-24)
(0.0184903 1.5366e-05 1.54769e-24)
(0.0184906 2.31301e-05 -2.20941e-24)
(0.0184927 3.01586e-05 -8.34983e-25)
(0.0184965 3.649e-05 2.32297e-24)
(0.0185015 4.21851e-05 -8.74875e-25)
(0.0185076 4.72979e-05 6.23483e-25)
(0.0185145 5.18768e-05 -2.25889e-26)
(0.0185222 5.59613e-05 -2.20998e-24)
(0.0185306 5.95823e-05 5.27436e-24)
(0.0185395 6.27656e-05 -6.83446e-24)
(0.018549 6.55341e-05 4.87078e-24)
(0.018559 6.79101e-05 -2.86574e-24)
(0.0185693 6.99144e-05 5.77981e-24)
(0.01858 7.1564e-05 -6.74241e-24)
(0.0185909 7.28723e-05 2.07909e-24)
(0.0163671 1.4873e-05 -3.03871e-25)
(0.0163701 2.09272e-05 -7.65928e-25)
(0.0163749 2.64508e-05 -1.58091e-24)
(0.0163814 3.14497e-05 4.24773e-24)
(0.0163892 3.59656e-05 -1.30815e-24)
(0.016398 4.00348e-05 -2.4454e-25)
(0.0164078 4.36872e-05 -6.39466e-25)
(0.0164183 4.6946e-05 7.9886e-25)
(0.0164296 4.98298e-05 4.21452e-24)
(0.0164414 5.23553e-05 -3.89295e-24)
(0.0164538 5.45376e-05 -1.9679e-25)
(0.0164667 5.63913e-05 3.47998e-24)
(0.0164799 5.79293e-05 -3.87732e-24)
(0.0164935 5.91619e-05 -4.9391e-25)
(0.0165073 6.00988e-05 5.80533e-25)
(0.0143517 1.2709e-05 1.18662e-24)
(0.014357 1.72434e-05 1.15621e-24)
(0.0143641 2.14152e-05 -1.61762e-24)
(0.0143726 2.52104e-05 -1.64421e-24)
(0.0143824 2.86571e-05 1.07068e-24)
(0.0143932 3.17779e-05 9.15941e-26)
(0.014405 3.45884e-05 9.06575e-25)
(0.0144174 3.71005e-05 -7.0319e-25)
(0.0144306 3.93238e-05 -5.80721e-25)
(0.0144443 4.12675e-05 2.75711e-24)
(0.0144585 4.29399e-05 1.1002e-24)
(0.0144732 4.43487e-05 -9.0892e-24)
(0.0144881 4.55018e-05 3.62464e-24)
(0.0145034 4.64057e-05 1.38374e-24)
(0.0145189 4.70675e-05 1.27217e-25)
(0.0124636 9.61472e-06 -1.25137e-24)
(0.0124702 1.28884e-05 1.55334e-24)
(0.0124784 1.59287e-05 4.76777e-26)
(0.012488 1.8713e-05 1.18694e-24)
(0.0124987 2.12609e-05 -1.34623e-24)
(0.0125103 2.35843e-05 -3.5186e-25)
(0.0125227 2.56888e-05 -3.32657e-25)
(0.0125359 2.75784e-05 2.08285e-25)
(0.0125496 2.92562e-05 -1.0338e-24)
(0.0125639 3.07262e-05 3.46541e-24)
(0.0125787 3.19915e-05 4.56584e-25)
(0.0125938 3.3056e-05 -8.5984e-25)
(0.0126092 3.39244e-05 -9.18651e-25)
(0.0126248 3.46001e-05 -5.33863e-25)
(0.0126405 3.50881e-05 -3.33606e-25)
(0.0107101 6.37121e-06 9.40048e-25)
(0.0107169 8.65396e-06 -7.84466e-25)
(0.0107251 1.07981e-05 -2.11041e-24)
(0.0107345 1.27792e-05 1.94771e-24)
(0.0107449 1.46114e-05 8.56597e-25)
(0.0107561 1.62991e-05 -1.0418e-24)
(0.010768 1.78411e-05 -1.85869e-25)
(0.0107806 1.92368e-05 1.77877e-24)
(0.0107938 2.04856e-05 -1.74574e-24)
(0.0108074 2.15879e-05 -3.76404e-25)
(0.0108215 2.25441e-05 9.04523e-25)
(0.0108358 2.33554e-05 5.26277e-25)
(0.0108504 2.4024e-05 -1.0154e-24)
(0.0108652 2.45513e-05 -7.18264e-26)
(0.01088 2.49406e-05 3.70742e-25)
(0.00909168 3.55199e-06 -5.98997e-25)
(0.00909776 5.08789e-06 -2.48667e-25)
(0.00910504 6.55194e-06 5.31597e-25)
(0.00911328 7.92033e-06 -6.25655e-25)
(0.00912238 9.20369e-06 1.7241e-24)
(0.00913224 1.04013e-05 -6.52419e-25)
(0.00914276 1.15087e-05 -9.93209e-25)
(0.00915387 1.25231e-05 8.768e-25)
(0.00916548 1.34418e-05 -7.31675e-25)
(0.00917753 1.42635e-05 -3.9292e-25)
(0.00918992 1.49866e-05 6.50998e-25)
(0.00920262 1.56112e-05 -7.61611e-25)
(0.00921551 1.61373e-05 1.19534e-24)
(0.00922858 1.65655e-05 2.8374e-25)
(0.00924171 1.68975e-05 -1.69833e-25)
(0.00760525 1.44911e-06 -2.9413e-25)
(0.00760997 2.44039e-06 1.12643e-25)
(0.00761569 3.40604e-06 1.48653e-25)
(0.00762221 4.32171e-06 -3.40204e-25)
(0.00762946 5.19511e-06 9.34438e-26)
(0.00763738 6.02329e-06 3.19714e-25)
(0.0076459 6.80049e-06 -3.09924e-26)
(0.00765493 7.52348e-06 -1.61722e-25)
(0.00766443 8.18879e-06 1.20803e-25)
(0.00767433 8.79412e-06 3.54726e-25)
(0.00768456 9.33734e-06 2.87666e-25)
(0.00769506 9.81751e-06 -1.2153e-24)
(0.00770578 1.02338e-05 -7.86751e-25)
(0.00771666 1.05863e-05 1.13982e-24)
(0.00772761 1.08756e-05 2.78503e-25)
(0.00624566 1.13586e-07 -1.07898e-25)
(0.00624877 7.20401e-07 -1.2345e-26)
(0.0062527 1.33161e-06 -1.13451e-24)
(0.00625728 1.92199e-06 5.81118e-25)
(0.00626248 2.49572e-06 -3.066e-26)
(0.00626825 3.04995e-06 6.76993e-25)
(0.00627454 3.57893e-06 1.2054e-25)
(0.0062813 4.07989e-06 -6.11654e-25)
(0.00628848 4.54925e-06 1.23963e-24)
(0.00629602 4.98463e-06 -3.92275e-25)
(0.00630389 5.38387e-06 -7.76579e-25)
(0.00631203 5.74573e-06 1.6285e-24)
(0.00632039 6.06897e-06 -9.0138e-25)
(0.00632892 6.35353e-06 2.69539e-25)
(0.00633757 6.59933e-06 -5.16557e-25)
(0.00500661 -5.53273e-07 -4.20764e-25)
(0.00500814 -2.14971e-07 -4.18713e-25)
(0.00501037 1.51215e-07 1.02332e-25)
(0.0050131 5.15675e-07 9.22487e-25)
(0.00501634 8.75974e-07 -3.55288e-25)
(0.00502005 1.23073e-06 1.57008e-25)
(0.00502421 1.57508e-06 -1.01776e-25)
(0.00502878 1.90779e-06 -2.28116e-25)
(0.00503372 2.22528e-06 2.54201e-26)
(0.00503901 2.52557e-06 1.48511e-24)
(0.00504459 2.80691e-06 2.31691e-25)
(0.00505045 3.0681e-06 -1.7764e-24)
(0.00505653 3.30787e-06 2.55034e-25)
(0.00506282 3.52628e-06 6.06303e-25)
(0.00506924 3.72303e-06 -4.5053e-25)
(0.00388093 -7.41763e-07 -8.97687e-26)
(0.00388123 -5.65737e-07 1.84672e-26)
(0.003882 -3.71912e-07 4.79769e-25)
(0.0038832 -1.60114e-07 1.21339e-25)
(0.00388479 5.41916e-08 -3.16244e-25)
(0.00388675 2.67535e-07 -2.31596e-25)
(0.00388909 4.77489e-07 -5.55615e-26)
(0.00389176 6.84343e-07 5.86099e-25)
(0.00389477 8.85414e-07 -5.16079e-25)
(0.00389808 1.07921e-06 -7.05667e-25)
(0.00390166 1.26452e-06 -3.0463e-25)
(0.00390551 1.44027e-06 1.17949e-24)
(0.00390958 1.6054e-06 -3.3688e-25)
(0.00391385 1.76012e-06 3.87991e-25)
(0.0039183 1.90441e-06 -2.3079e-25)
(0.00286103 -6.38917e-07 -1.73152e-25)
(0.0028605 -5.63897e-07 2.93906e-26)
(0.00286029 -4.70136e-07 4.08927e-25)
(0.00286036 -3.63337e-07 -2.4204e-25)
(0.00286072 -2.4912e-07 4.2848e-25)
(0.00286138 -1.32046e-07 -5.51119e-25)
(0.00286232 -1.38549e-08 -8.39016e-26)
(0.00286354 1.00757e-07 5.57202e-25)
(0.00286502 2.15779e-07 -8.03049e-25)
(0.00286677 3.28883e-07 8.48665e-25)
(0.00286875 4.39318e-07 -3.4506e-25)
(0.00287096 5.46188e-07 -7.66833e-26)
(0.00287338 6.48583e-07 -2.5043e-25)
(0.00287599 7.46814e-07 3.42023e-25)
(0.00287878 8.41214e-07 -9.51595e-26)
(0.00193909 -4.08323e-07 2.63835e-25)
(0.00193818 -3.95464e-07 2.03137e-25)
(0.00193743 -3.63821e-07 -9.29772e-25)
(0.00193687 -3.18913e-07 5.74985e-25)
(0.0019365 -2.67797e-07 -4.6925e-26)
(0.00193635 -2.14232e-07 -2.68358e-26)
(0.00193639 -1.58003e-07 -6.70826e-26)
(0.00193663 -1.02803e-07 2.21363e-25)
(0.00193708 -4.50768e-08 -3.29102e-25)
(0.00193772 1.16993e-08 -1.50469e-25)
(0.00193854 6.82095e-08 7.35528e-25)
(0.00193956 1.24454e-07 -2.49759e-25)
(0.00194074 1.79313e-07 -2.89544e-25)
(0.0019421 2.33136e-07 2.34652e-26)
(0.00194361 2.86641e-07 6.39402e-26)
(0.00110729 -1.691e-07 -2.67198e-25)
(0.00110639 -1.66211e-07 7.36277e-25)
(0.00110558 -1.58647e-07 2.49447e-25)
(0.00110486 -1.45807e-07 -6.3638e-25)
(0.00110426 -1.29403e-07 -6.49811e-26)
(0.00110378 -1.12726e-07 -2.25676e-26)
(0.00110342 -9.5266e-08 -3.52505e-26)
(0.00110318 -7.69802e-08 1.39229e-25)
(0.00110307 -5.83983e-08 -4.39e-25)
(0.00110309 -4.04477e-08 2.06325e-25)
(0.00110323 -2.25013e-08 3.12496e-25)
(0.00110349 -4.04e-09 -2.45298e-25)
(0.00110387 1.42578e-08 5.22646e-25)
(0.00110437 3.29195e-08 -5.9736e-25)
(0.00110498 5.40804e-08 1.38606e-25)
(0.000357964 3.26848e-09 -1.92162e-27)
(0.000357464 6.90407e-08 1.36973e-25)
(0.000356994 1.11297e-07 1.02399e-25)
(0.000356559 1.3656e-07 -2.09324e-25)
(0.000356168 1.49465e-07 1.84553e-25)
(0.000355822 1.51323e-07 -2.12485e-25)
(0.000355522 1.44942e-07 -7.19678e-27)
(0.000355269 1.33083e-07 -1.71532e-25)
(0.000355064 1.17206e-07 2.50137e-25)
(0.000354907 9.91393e-08 1.50994e-25)
(0.000354799 7.9893e-08 -5.16092e-25)
(0.000354739 6.05002e-08 2.63943e-25)
(0.000354727 4.16678e-08 1.94776e-25)
(0.000354763 2.40496e-08 -1.77398e-25)
(0.000354845 9.45918e-09 1.15226e-26)
(0.000977267 -0.000266359 9.59665e-26)
(0.00111779 -0.000191259 2.50922e-24)
(0.00135309 -0.000115492 -7.29127e-24)
(0.0015927 -5.76166e-05 1.07591e-23)
(0.00182083 -1.5703e-05 -4.03636e-24)
(0.00204238 1.11979e-05 -3.99723e-24)
(0.00225718 2.61357e-05 4.58713e-24)
(0.00246578 3.17681e-05 -9.13511e-24)
(0.00266904 3.04243e-05 5.89434e-25)
(0.00286781 2.42548e-05 5.75186e-24)
(0.00306293 1.49965e-05 -1.08256e-24)
(0.00325515 4.31981e-06 1.14998e-24)
(0.00344524 -6.15334e-06 -1.22969e-25)
(0.00363396 -1.4699e-05 6.55109e-25)
(0.00382231 -1.93829e-05 -2.39444e-24)
(0.00401161 -1.79134e-05 1.29134e-24)
(0.0042041 -7.80572e-06 -3.6759e-25)
(0.00440293 1.36786e-05 3.76421e-26)
(0.00461299 4.87761e-05 8.24372e-25)
(0.00484073 9.82661e-05 -5.13935e-25)
(0.00509472 0.000160304 6.70753e-26)
(0.00538015 0.000227596 -6.03285e-26)
(0.00567753 0.000278213 1.3053e-25)
(0.00594772 0.000297499 5.52836e-25)
(0.00617462 0.000285064 -9.90816e-25)
(0.00635735 0.00024372 -7.67153e-25)
(0.00649764 0.000176917 -4.76954e-26)
(0.00659748 8.76305e-05 2.03508e-24)
(0.00665779 -2.1283e-05 3.24585e-24)
(0.00667822 -0.000146328 -6.42525e-24)
(0.00665755 -0.000282771 6.35665e-24)
(0.00659432 -0.00042438 -6.42417e-24)
(0.00648744 -0.000563541 1.95024e-24)
(0.00633662 -0.00069159 1.08093e-24)
(0.00614251 -0.000799182 -1.15512e-24)
(0.00590659 -0.00087652 1.68107e-24)
(0.0056309 -0.00091326 7.66711e-25)
(0.0053179 -0.000897878 2.00422e-24)
(0.00497039 -0.000816184 1.58844e-24)
(0.00459224 -0.000649111 -7.46546e-24)
(0.00418837 -0.000372302 -1.03142e-25)
(0.00376681 3.63715e-05 4.00998e-24)
(0.00332321 0.000565643 1.62828e-24)
(0.00288336 0.00113007 -5.96013e-24)
(0.00263891 0.00142005 -3.21684e-25)
(0.00183447 -0.000351554 -2.84691e-24)
(0.00189231 -0.000312259 -4.10575e-24)
(0.00203509 -0.00023936 8.54385e-24)
(0.00221503 -0.000173244 4.11848e-24)
(0.00240476 -0.000119801 -1.44154e-23)
(0.00259902 -8.11847e-05 1.55515e-23)
(0.00279326 -5.55079e-05 -5.59705e-24)
(0.00298538 -4.03275e-05 4.5263e-24)
(0.00317474 -3.32914e-05 -5.97491e-24)
(0.00336125 -3.2114e-05 7.26878e-26)
(0.00354512 -3.4942e-05 -3.09571e-24)
(0.00372678 -3.99761e-05 6.09653e-24)
(0.00390671 -4.54868e-05 -3.30947e-24)
(0.00408549 -4.96776e-05 -2.78905e-24)
(0.00426401 -5.05775e-05 -1.66985e-24)
(0.00444342 -4.59023e-05 3.47148e-24)
(0.00462583 -3.32125e-05 -3.41757e-25)
(0.00481422 -9.84221e-06 1.61826e-24)
(0.00501323 2.63694e-05 2.39286e-25)
(0.00522912 7.61459e-05 -4.59707e-25)
(0.00547033 0.000137841 -1.96227e-25)
(0.00574213 0.000204533 -1.34917e-25)
(0.00602722 0.000254939 6.98239e-25)
(0.00628872 0.000275181 9.72964e-25)
(0.00651072 0.000264929 -7.72711e-25)
(0.00669168 0.000226749 -4.48872e-24)
(0.00683263 0.000164004 6.27961e-24)
(0.00693492 7.97677e-05 -4.65618e-24)
(0.00699903 -2.28919e-05 1.5936e-24)
(0.00702444 -0.000140282 -1.20831e-24)
(0.00700996 -0.000267474 9.48974e-24)
(0.00695435 -0.000398172 -1.37328e-23)
(0.00685687 -0.000524796 8.40462e-24)
(0.00671773 -0.000638796 -7.74598e-24)
(0.00653819 -0.000730978 6.14851e-24)
(0.0063206 -0.000791688 -1.18126e-24)
(0.00606828 -0.00081073 5.24944e-24)
(0.00578555 -0.000776818 -4.292e-25)
(0.00547818 -0.000676376 -6.24318e-24)
(0.00515485 -0.00049166 -4.90283e-24)
(0.00482922 -0.000200306 1.12441e-23)
(0.0045251 0.000217972 -1.17608e-23)
(0.00427074 0.000749772 -3.3347e-24)
(0.00411427 0.00129598 8.179e-24)
(0.00411766 0.00151341 2.97332e-24)
(0.00284122 -0.000359269 -3.36592e-26)
(0.00284933 -0.000361978 -4.77856e-24)
(0.00290711 -0.000321758 9.0724e-24)
(0.00301778 -0.000266074 7.91197e-24)
(0.00315444 -0.000212503 -1.28302e-23)
(0.00330761 -0.000168528 2.54417e-25)
(0.00346958 -0.000135527 1.26752e-24)
(0.00363554 -0.000112612 1.3883e-23)
(0.00380294 -9.80851e-05 -1.64347e-23)
(0.00397038 -9.00626e-05 1.00438e-23)
(0.00413717 -8.66602e-05 2.89507e-24)
(0.00430312 -8.60945e-05 -1.62625e-23)
(0.0044683 -8.66083e-05 5.85018e-24)
(0.00463299 -8.63756e-05 2.21559e-24)
(0.00479783 -8.34164e-05 -4.36476e-24)
(0.00496377 -7.54702e-05 6.83859e-24)
(0.00513274 -6.01553e-05 -4.65179e-24)
(0.00530748 -3.4887e-05 -4.07641e-26)
(0.00549238 2.41806e-06 3.47173e-25)
(0.00569343 5.24179e-05 3.48718e-25)
(0.00591897 0.000113675 3.21989e-26)
(0.00617427 0.000179649 2.15599e-25)
(0.0064444 0.000229678 -7.15867e-25)
(0.00669503 0.000250721 2.2163e-24)
(0.0069104 0.000242549 -3.7322e-24)
(0.00708827 0.000207477 2.19005e-24)
(0.0072289 0.000148783 -5.76344e-24)
(0.00733295 6.96389e-05 7.80555e-24)
(0.00740045 -2.66893e-05 -7.98117e-24)
(0.00743068 -0.000136268 -1.74383e-25)
(0.0074225 -0.000254016 -7.90948e-25)
(0.00737488 -0.000373572 1.59774e-23)
(0.0072875 -0.000487411 -5.45009e-24)
(0.00716108 -0.00058714 -3.84945e-24)
(0.00699758 -0.000663811 4.10821e-24)
(0.00680029 -0.000708105 8.17353e-25)
(0.00657386 -0.000710304 -2.4223e-24)
(0.00632454 -0.000659959 9.32385e-24)
(0.00606097 -0.0005452 -1.9558e-23)
(0.00579603 -0.000351772 7.85397e-24)
(0.00554968 -6.36713e-05 3.17727e-24)
(0.00535372 0.000329753 5.73969e-24)
(0.00524651 0.000805322 -7.1633e-24)
(0.00526057 0.00125964 2.27881e-24)
(0.00538916 0.00142309 -1.4335e-24)
(0.00397791 -0.000340785 -1.2179e-24)
(0.00395703 -0.000369567 -1.8894e-24)
(0.00396425 -0.000357798 -8.10357e-24)
(0.00400833 -0.000325904 2.08391e-24)
(0.00408774 -0.000282991 1.40515e-24)
(0.00419114 -0.000241879 6.6286e-24)
(0.00431107 -0.000207059 -1.41603e-23)
(0.00444151 -0.000179974 5.37037e-24)
(0.00457843 -0.000160233 1.80585e-23)
(0.00471918 -0.000146714 -4.84022e-24)
(0.00486212 -0.000137922 -4.47344e-24)
(0.00500627 -0.00013227 -6.95302e-25)
(0.00515118 -0.000128094 2.18562e-24)
(0.0052967 -0.000123616 -4.17167e-24)
(0.00544318 -0.000116905 9.97909e-25)
(0.00559128 -0.000105759 -2.6239e-25)
(0.00574269 -8.78837e-05 -1.68147e-24)
(0.0058999 -6.07981e-05 7.25408e-25)
(0.00606696 -2.25077e-05 2.89081e-24)
(0.00624964 2.75567e-05 -3.20126e-25)
(0.00645607 8.81823e-05 -6.53527e-25)
(0.00669147 0.000153217 -2.02621e-25)
(0.00694351 0.000202603 -1.26447e-24)
(0.00718064 0.000224224 -1.93198e-25)
(0.00738725 0.000217992 -3.53843e-24)
(0.0075603 0.00018596 5.86031e-24)
(0.00769925 0.000131318 -5.76456e-24)
(0.00780405 5.73423e-05 1.13559e-23)
(0.00787423 -3.25066e-05 -1.04929e-23)
(0.00790886 -0.000134078 2.16483e-24)
(0.00790686 -0.000242156 5.01315e-24)
(0.00786744 -0.000350352 -2.45721e-26)
(0.00779071 -0.000451259 -2.22644e-25)
(0.00767793 -0.000536747 3.60969e-25)
(0.0075318 -0.000598273 -1.4601e-24)
(0.00735653 -0.00062711 -9.17188e-25)
(0.00715802 -0.000614437 8.1599e-24)
(0.00694423 -0.000551282 -3.96346e-24)
(0.00672593 -0.000428445 5.02396e-25)
(0.00651845 -0.000236597 -1.98746e-23)
(0.00634361 3.19636e-05 1.54905e-23)
(0.00623215 0.00037691 -6.55971e-24)
(0.00621726 0.000769986 1.23366e-24)
(0.00631309 0.00112782 8.85011e-24)
(0.00649567 0.0012879 -2.26043e-24)
(0.00523697 -0.000312428 -5.04367e-24)
(0.00520532 -0.00035124 1.0341e-23)
(0.00518336 -0.000359603 2.96937e-24)
(0.00518533 -0.000348782 1.27899e-23)