/*--------------------------------*- C++ -*----------------------------------*\
| =========                 |                                                 |
| \\      /  F ield         | OpenFOAM: The Open Source CFD Toolbox           |
|  \\    /   O peration     | Version:  2312                                  |
|   \\  /    A nd           | Website:  www.openfoam.com                      |
|    \\/     M anipulation  |                                                 |
\*---------------------------------------------------------------------------*/
FoamFile
{
    version     2.0;
    format      ascii;
    arch        "LSB;label=32;scalar=64";
    class       surfaceScalarField;
    location    "162";
    object      phi;
}
// * * * * * * * * * * * * * * * * * * * * * * * * * * * * * * * * * * * * * //

dimensions      [0 3 -1 0 0 0 0];

oriented        oriented;

internalField   nonuniform List<scalar> 
9445
(
5.91456e-10
1.68107e-11
5.8023e-10
1.12265e-11
5.72713e-10
7.5166e-12
5.67842e-10
4.87131e-12
5.64967e-10
2.87464e-12
5.63698e-10
1.2692e-12
5.63845e-10
-1.4677e-13
5.6539e-10
-1.54499e-12
5.68281e-10
-2.89128e-12
5.72932e-10
-4.65065e-12
5.80456e-10
-7.52433e-12
5.94361e-10
-1.39052e-11
6.27e-10
-3.26385e-11
7.21764e-10
-9.47641e-11
-2.4753e-10
9.69293e-10
2.06082e-09
7.42665e-11
2.02221e-09
4.98324e-11
1.99615e-09
3.3575e-11
1.97902e-09
2.20044e-11
1.96858e-09
1.33113e-11
1.96348e-09
6.37241e-12
1.963e-09
3.28781e-13
1.96686e-09
-5.40377e-12
1.97504e-09
-1.10644e-11
1.98874e-09
-1.83535e-11
2.01076e-09
-2.95414e-11
2.0478e-09
-5.09531e-11
2.11313e-09
-9.79664e-11
2.21945e-09
-2.01087e-10
-3.60429e-10
2.33235e-09
4.06156e-09
1.84967e-10
3.98681e-09
1.24579e-10
3.93602e-09
8.43654e-11
3.90223e-09
5.57933e-11
3.88112e-09
3.442e-11
3.87e-09
1.74977e-11
3.86735e-09
2.97513e-12
3.87241e-09
-1.04627e-11
3.88493e-09
-2.35839e-11
3.90647e-09
-3.98896e-11
3.93967e-09
-6.27413e-11
3.98901e-09
-1.00297e-10
4.05725e-09
-1.66207e-10
4.13101e-09
-2.74844e-10
-4.03295e-10
4.17388e-09
6.73945e-09
3.63304e-10
6.61827e-09
2.45755e-10
6.53529e-09
1.67349e-10
6.47937e-09
1.11718e-10
6.44351e-09
7.02753e-11
6.42323e-09
3.7781e-11
6.41592e-09
1.02819e-11
6.41995e-09
-1.44902e-11
6.43439e-09
-3.80234e-11
6.46018e-09
-6.5684e-11
6.49813e-09
-1.0069e-10
6.54771e-09
-1.49881e-10
6.60251e-09
-2.21002e-10
6.64288e-09
-3.15218e-10
-4.06889e-10
6.64648e-09
1.02717e-08
6.24324e-10
1.00928e-08
4.24631e-10
9.96914e-09
2.91019e-10
9.88459e-09
1.96272e-10
9.82892e-09
1.25947e-10
9.79537e-09
7.13324e-11
9.77973e-09
2.59217e-11
9.77912e-09
-1.3882e-11
9.7917e-09
-5.06099e-11
9.81643e-09
-9.04066e-11
9.85155e-09
-1.35815e-10
9.8923e-09
-1.90627e-10
9.92817e-09
-2.56878e-10
9.94249e-09
-3.29535e-10
-3.89677e-10
9.92528e-09
1.48689e-08
9.80974e-10
1.46216e-08
6.71947e-10
1.44486e-08
4.64048e-10
1.43284e-08
3.16486e-10
1.42471e-08
2.07259e-10
1.41952e-08
1.2315e-10
1.41666e-08
5.45794e-11
1.41566e-08
-3.879e-12
1.41621e-08
-5.61239e-11
1.41796e-08
-1.07858e-10
1.42048e-08
-1.61012e-10
1.42308e-08
-2.16676e-10
1.42474e-08
-2.73527e-10
1.42438e-08
-3.25882e-10
-3.63107e-10
1.42172e-08
2.07737e-08
1.4388e-09
2.04509e-08
9.94749e-10
2.02216e-08
6.93331e-10
2.00594e-08
4.7869e-10
1.99467e-08
3.19982e-10
1.98712e-08
1.98593e-10
1.98243e-08
1.01487e-10
1.97996e-08
2.08849e-11
1.97919e-08
-4.84796e-11
1.97958e-08
-1.11739e-10
1.98053e-08
-1.70522e-10
1.98133e-08
-2.24675e-10
1.9812e-08
-2.72248e-10
1.97957e-08
-3.09588e-10
-3.32267e-10
1.97649e-08
2.82531e-08
1.98758e-09
2.78569e-08
1.39094e-09
2.75698e-08
9.80362e-10
2.73625e-08
6.86025e-10
2.72144e-08
4.68083e-10
2.71109e-08
3.02117e-10
2.70409e-08
1.71433e-10
2.69962e-08
6.56133e-11
2.69698e-08
-2.20568e-11
2.69547e-08
-9.66994e-11
2.69445e-08
-1.60295e-10
2.69329e-08
-2.13048e-10
2.69148e-08
-2.54192e-10
2.68879e-08
-2.82662e-10
-2.9779e-10
2.68534e-08
3.75861e-08
2.59162e-09
3.7135e-08
1.84202e-09
3.67995e-08
1.31591e-09
3.6551e-08
9.34528e-10
3.63683e-08
6.50772e-10
3.62354e-08
4.34978e-10
3.61399e-08
2.66983e-10
3.60717e-08
1.33743e-10
3.60227e-08
2.69168e-11
3.59855e-08
-5.94406e-11
3.59536e-08
-1.28439e-10
3.59223e-08
-1.81682e-10
3.58883e-08
-2.20272e-10
3.5851e-08
-2.4534e-10
-2.5828e-10
3.58115e-08
4.90543e-08
3.18637e-09
4.85885e-08
2.30786e-09
4.82294e-08
1.67502e-09
4.79551e-08
1.20881e-09
4.77469e-08
8.58904e-10
4.75897e-08
5.92224e-10
4.74707e-08
3.85966e-10
4.73796e-08
2.2482e-10
4.7308e-08
9.85386e-11
4.72485e-08
7.14307e-14
4.71959e-08
-7.58302e-11
4.71464e-08
-1.32177e-10
4.70981e-08
-1.71996e-10
4.70507e-08
-1.97957e-10
-2.12555e-10
4.7005e-08
6.29585e-08
3.69448e-09
6.25339e-08
2.73248e-09
6.21908e-08
2.01811e-09
6.19184e-08
1.48121e-09
6.17039e-08
1.07333e-09
6.15354e-08
7.6075e-10
6.14019e-08
5.19455e-10
6.12942e-08
3.32522e-10
6.12048e-08
1.88008e-10
6.11277e-08
7.71544e-11
6.10585e-08
-6.68576e-12
6.09948e-08
-6.84962e-11
6.09353e-08
-1.12471e-10
6.08797e-08
-1.42309e-10
-1.61086e-10
6.08282e-08
7.96886e-08
4.0664e-09
7.93522e-08
3.06886e-09
7.90643e-08
2.30594e-09
7.88249e-08
1.72067e-09
7.86281e-08
1.27008e-09
7.84667e-08
9.22228e-10
7.83328e-08
6.53265e-10
7.82199e-08
4.45455e-10
7.81223e-08
2.85584e-10
7.8036e-08
1.63529e-10
7.79579e-08
7.14035e-11
7.78865e-08
2.88052e-12
7.78209e-08
-4.68577e-11
7.77608e-08
-8.21998e-11
-1.06485e-10
7.77062e-08
9.98228e-08
4.31366e-09
9.95818e-08
3.30983e-09
9.93634e-08
2.52433e-09
9.91726e-08
1.91151e-09
9.90083e-08
1.43434e-09
9.88672e-08
1.0634e-09
9.87448e-08
7.75623e-10
9.86373e-08
5.53008e-10
9.85413e-08
3.81558e-10
9.84545e-08
2.50274e-10
9.83755e-08
1.50478e-10
9.83031e-08
7.52527e-11
9.82372e-08
1.90744e-11
9.81772e-08
-2.2241e-11
-5.24635e-11
9.81232e-08
1.24126e-07
4.48449e-09
1.23951e-07
3.48536e-09
1.23784e-07
2.69096e-09
1.23632e-07
2.06364e-09
1.23495e-07
1.57108e-09
1.23373e-07
1.18601e-09
1.23262e-07
8.86079e-10
1.23162e-07
6.53208e-10
1.23071e-07
4.73006e-10
1.22987e-07
3.34006e-10
1.2291e-07
2.27168e-10
1.2284e-07
1.45327e-10
1.22776e-07
8.28169e-11
1.22719e-07
3.51934e-11
-1.04471e-12
1.22667e-07
1.53345e-07
4.60274e-09
1.53212e-07
3.61881e-09
1.53076e-07
2.82639e-09
1.52946e-07
2.19416e-09
1.52823e-07
1.69395e-09
1.52708e-07
1.30055e-09
1.52602e-07
9.92416e-10
1.52503e-07
7.51701e-10
1.52412e-07
5.64004e-10
1.52329e-07
4.17775e-10
1.52252e-07
3.03904e-10
1.52182e-07
2.15168e-10
1.52119e-07
1.4593e-10
1.52062e-07
9.17264e-11
4.90981e-11
1.52012e-07
1.87947e-07
4.65355e-09
1.87863e-07
3.70268e-09
1.87761e-07
2.92787e-09
1.87652e-07
2.30305e-09
1.87542e-07
1.80433e-09
1.87434e-07
1.40888e-09
1.87329e-07
1.09657e-09
1.87231e-07
8.50438e-10
1.87138e-07
6.56478e-10
1.87052e-07
5.03522e-10
1.86974e-07
3.82653e-10
1.86902e-07
2.86808e-10
1.86838e-07
2.10465e-10
1.8678e-07
1.49249e-10
9.97928e-11
1.86729e-07
2.28007e-07
4.61689e-09
2.2799e-07
3.71955e-09
2.27937e-07
2.98058e-09
2.27862e-07
2.37782e-09
2.27775e-07
1.89168e-09
2.27681e-07
1.50222e-09
2.27587e-07
1.19138e-09
2.27494e-07
9.43535e-10
2.27404e-07
7.45769e-10
2.2732e-07
5.87558e-10
2.27242e-07
4.60513e-10
2.27171e-07
3.57936e-10
2.27107e-07
2.74585e-10
2.2705e-07
2.06279e-10
1.49789e-10
2.27e-07
2.7308e-07
4.48546e-09
2.73139e-07
3.66061e-09
2.73145e-07
2.97469e-09
2.73115e-07
2.40837e-09
2.7306e-07
1.94618e-09
2.72991e-07
1.57145e-09
2.72914e-07
1.2686e-09
2.72833e-07
1.02385e-09
2.72754e-07
8.25686e-10
2.72677e-07
6.64574e-10
2.72604e-07
5.32913e-10
2.72537e-07
4.24549e-10
2.72477e-07
3.34644e-10
2.72424e-07
2.59371e-10
1.95776e-10
2.72378e-07
3.2176e-07
4.24979e-09
3.21904e-07
3.51649e-09
3.21979e-07
2.89958e-09
3.22004e-07
2.38381e-09
3.21992e-07
1.95737e-09
3.21957e-07
1.60687e-09
3.21906e-07
1.31939e-09
3.21847e-07
1.08342e-09
3.21783e-07
8.89121e-10
3.21719e-07
7.28379e-10
3.21658e-07
5.94459e-10
3.216e-07
4.81958e-10
3.21548e-07
3.86633e-10
3.21503e-07
3.04911e-10
2.34211e-10
3.21464e-07
3.70944e-07
3.8916e-09
3.71192e-07
3.26803e-09
3.71356e-07
2.73584e-09
3.71455e-07
2.28442e-09
3.71507e-07
1.90559e-09
3.71525e-07
1.58935e-09
3.71518e-07
1.32552e-09
3.71497e-07
1.10508e-09
3.71466e-07
9.19995e-10
3.7143e-07
7.63736e-10
3.71394e-07
6.30741e-10
3.7136e-07
5.16525e-10
3.71329e-07
4.1761e-10
3.71303e-07
3.30988e-10
2.54385e-10
3.71282e-07
3.68533e-07
3.48538e-09
3.68834e-07
2.96758e-09
3.69051e-07
2.51906e-09
3.69202e-07
2.13311e-09
3.69303e-07
1.80438e-09
3.69367e-07
1.52541e-09
3.69404e-07
1.28861e-09
3.69422e-07
1.0869e-09
3.69428e-07
9.14147e-10
3.69427e-07
7.65134e-10
3.69422e-07
6.35516e-10
3.69417e-07
5.21679e-10
3.69414e-07
4.20705e-10
3.69414e-07
3.30154e-10
2.48397e-10
3.6942e-07
3.1596e-07
3.04746e-09
3.16298e-07
2.63018e-09
3.16554e-07
2.26248e-09
3.16746e-07
1.94186e-09
3.16885e-07
1.66465e-09
3.16985e-07
1.42556e-09
3.17055e-07
1.219e-09
3.17102e-07
1.0397e-09
3.17133e-07
8.83103e-10
3.17153e-07
7.45292e-10
3.17165e-07
6.22957e-10
3.17174e-07
5.13375e-10
3.1718e-07
4.14327e-10
3.17186e-07
3.23994e-10
2.40819e-10
3.17194e-07
2.64542e-07
2.63929e-09
2.64871e-07
2.30104e-09
2.65134e-07
1.99899e-09
2.65344e-07
1.73268e-09
2.65509e-07
1.49941e-09
2.65639e-07
1.29516e-09
2.65742e-07
1.11586e-09
2.65825e-07
9.57584e-10
2.65891e-07
8.16932e-10
2.65945e-07
6.90914e-10
2.65991e-07
5.77072e-10
2.66031e-07
4.73284e-10
2.66068e-07
3.77844e-10
2.66102e-07
2.89321e-10
2.0642e-10
2.66137e-07
2.17991e-07
2.25426e-09
2.1831e-07
1.9816e-09
2.18574e-07
1.73551e-09
2.1879e-07
1.51608e-09
2.18969e-07
1.32135e-09
2.19115e-07
1.14841e-09
2.19237e-07
9.94219e-10
2.19339e-07
8.55922e-10
2.19425e-07
7.30992e-10
2.19498e-07
6.17216e-10
2.19563e-07
5.12755e-10
2.1962e-07
4.16048e-10
2.19672e-07
3.25835e-10
2.1972e-07
2.41047e-10
1.60876e-10
2.19766e-07
1.77269e-07
1.88993e-09
1.77578e-07
1.67263e-09
1.77839e-07
1.47466e-09
1.78059e-07
1.29614e-09
1.78244e-07
1.13564e-09
1.78402e-07
9.91046e-10
1.78536e-07
8.60179e-10
1.78651e-07
7.40981e-10
1.7875e-07
6.31643e-10
1.78837e-07
5.30582e-10
1.78913e-07
4.3648e-10
1.78981e-07
3.48234e-10
1.79042e-07
2.64971e-10
1.79097e-07
1.85944e-10
1.10562e-10
1.79147e-07
1.42544e-07
1.55089e-09
1.42837e-07
1.38039e-09
1.43088e-07
1.2236e-09
1.43303e-07
1.08062e-09
1.43489e-07
9.50356e-10
1.43648e-07
8.3132e-10
1.43786e-07
7.22001e-10
1.43906e-07
6.20981e-10
1.44011e-07
5.27032e-10
1.44103e-07
4.39048e-10
1.44183e-07
3.56152e-10
1.44254e-07
2.77561e-10
1.44316e-07
2.02669e-10
1.44371e-07
1.31033e-10
6.22631e-11
1.44419e-07
1.1348e-07
1.24418e-09
1.13748e-07
1.11289e-09
1.1398e-07
9.90949e-10
1.14182e-07
8.78477e-10
1.14358e-07
7.74626e-10
1.14511e-07
6.78384e-10
1.14644e-07
5.88763e-10
1.1476e-07
5.04851e-10
1.14862e-07
4.25834e-10
1.1495e-07
3.50989e-10
1.15026e-07
2.79776e-10
1.15092e-07
2.11667e-10
1.15148e-07
1.46252e-10
1.15196e-07
8.33774e-11
2.26175e-11
1.15236e-07
8.94844e-08
9.75502e-10
8.97208e-08
8.7651e-10
8.99281e-08
7.83628e-10
9.01097e-08
6.96954e-10
9.02685e-08
6.15818e-10
9.04073e-08
5.39594e-10
9.05283e-08
4.67693e-10
9.06336e-08
3.99561e-10
9.07248e-08
3.34691e-10
9.08031e-08
2.7266e-10
9.08697e-08
2.13134e-10
9.09256e-08
1.55821e-10
9.09714e-08
1.00431e-10
9.10078e-08
4.70114e-11
-4.49623e-12
9.10349e-08
6.98838e-08
7.47444e-10
7.00858e-08
6.74526e-10
7.0264e-08
6.05421e-10
7.04208e-08
5.4014e-10
7.05584e-08
4.78174e-10
7.06788e-08
4.19196e-10
7.07836e-08
3.62894e-10
7.08742e-08
3.08959e-10
7.09518e-08
2.57111e-10
7.10174e-08
2.07114e-10
7.10717e-08
1.58807e-10
7.11155e-08
1.12044e-10
7.11492e-08
6.67126e-11
7.11735e-08
2.27375e-11
-1.94996e-11
7.11885e-08
5.40166e-08
5.59367e-10
5.41841e-08
5.07029e-10
5.43325e-08
4.56965e-10
5.44636e-08
4.09034e-10
5.45789e-08
3.62896e-10
5.46797e-08
3.18438e-10
5.4767e-08
2.75523e-10
5.4842e-08
2.34001e-10
5.49054e-08
1.93742e-10
5.49578e-08
1.54642e-10
5.5e-08
1.16643e-10
5.50323e-08
7.97097e-11
5.50553e-08
4.37551e-11
5.50691e-08
8.9002e-12
-2.4702e-11
5.50743e-08
4.12767e-08
4.08234e-10
4.14119e-08
3.71751e-10
4.15324e-08
3.36558e-10
4.1639e-08
3.02354e-10
4.1733e-08
2.68972e-10
4.1815e-08
2.36428e-10
4.18858e-08
2.04683e-10
4.19461e-08
1.73686e-10
4.19965e-08
1.43398e-10
4.20373e-08
1.13797e-10
4.20691e-08
8.48804e-11
4.20921e-08
5.66658e-11
4.21067e-08
2.91534e-11
4.21132e-08
2.44946e-12
-2.33573e-11
4.21118e-08
3.1129e-08
2.8964e-10
3.12357e-08
2.65053e-10
3.13311e-08
2.41152e-10
3.14159e-08
2.1752e-10
3.14907e-08
1.94151e-10
3.1556e-08
1.71113e-10
3.16123e-08
1.48415e-10
3.16599e-08
1.26063e-10
3.16993e-08
1.04066e-10
3.17306e-08
8.24418e-11
3.17543e-08
6.12174e-11
3.17705e-08
4.0438e-11
3.17795e-08
2.01422e-11
3.17815e-08
4.41045e-13
-1.86481e-11
3.17768e-08
2.31112e-08
1.98693e-10
2.31934e-08
1.82773e-10
2.32674e-08
1.67181e-10
2.33335e-08
1.51465e-10
2.33919e-08
1.35732e-10
2.34429e-08
1.20053e-10
2.34869e-08
1.04457e-10
2.3524e-08
8.8974e-11
2.35544e-08
7.36335e-11
2.35784e-08
5.84707e-11
2.35961e-08
4.35206e-11
2.36077e-08
2.88325e-11
2.36134e-08
1.44564e-11
2.36133e-08
5.20544e-13
-1.2992e-11
2.36076e-08
1.68295e-08
1.30621e-10
1.68914e-08
1.20803e-10
1.69475e-08
1.11115e-10
1.69978e-08
1.01146e-10
1.70425e-08
9.10529e-11
1.70817e-08
8.08861e-11
1.71154e-08
7.06791e-11
1.71439e-08
6.04664e-11
1.71673e-08
5.02812e-11
1.71856e-08
4.01602e-11
1.7199e-08
3.01371e-11
1.72076e-08
2.02518e-11
1.72115e-08
1.05522e-11
1.72108e-08
1.15271e-12
-7.89355e-12
1.72057e-08
1.19519e-08
8.1098e-11
1.19973e-08
7.54064e-11
1.20387e-08
6.97527e-11
1.2076e-08
6.38088e-11
1.21094e-08
5.77298e-11
1.21387e-08
5.15396e-11
1.21641e-08
4.52672e-11
1.21856e-08
3.89424e-11
1.22033e-08
3.25935e-11
1.22172e-08
2.62512e-11
1.22274e-08
1.99429e-11
1.2234e-08
1.36984e-11
1.2237e-08
7.55509e-12
1.22366e-08
1.56485e-12
-4.08723e-12
1.22328e-08
8.20138e-09
4.63744e-11
8.23345e-09
4.33374e-11
8.26289e-09
4.03139e-11
8.28963e-09
3.70686e-11
8.31364e-09
3.37174e-11
8.33492e-09
3.02659e-11
8.35345e-09
2.67355e-11
8.36924e-09
2.31473e-11
8.38232e-09
1.95216e-11
8.39269e-09
1.58801e-11
8.40039e-09
1.22421e-11
8.40546e-09
8.62866e-12
8.40795e-09
5.06628e-12
8.40796e-09
1.5472e-12
-1.68854e-12
8.40557e-09
5.34831e-09
2.32905e-11
5.3698e-09
2.18542e-11
5.38967e-09
2.04425e-11
5.40784e-09
1.88991e-11
5.42427e-09
1.72886e-11
5.43892e-09
1.56091e-11
5.45178e-09
1.38739e-11
5.46284e-09
1.20953e-11
5.47207e-09
1.02856e-11
5.47949e-09
8.45777e-12
5.48511e-09
6.62321e-12
5.48895e-09
4.79508e-12
5.49102e-09
2.98973e-12
5.49139e-09
1.17548e-12
-4.46202e-13
5.49015e-09
3.20443e-09
9.22867e-12
3.21761e-09
8.67262e-12
3.22989e-09
8.1591e-12
3.2412e-09
7.58953e-12
3.2515e-09
6.98614e-12
3.26076e-09
6.34725e-12
3.26896e-09
5.67913e-12
3.27607e-09
4.98773e-12
3.28207e-09
4.27867e-12
3.28697e-09
3.55816e-12
3.29076e-09
2.83111e-12
3.29346e-09
2.10449e-12
3.29506e-09
1.38536e-12
3.29559e-09
6.49486e-13
1.38654e-14
3.29513e-09
1.61654e-09
2.04439e-12
1.62331e-09
1.90396e-12
1.62966e-09
1.80602e-12
1.63555e-09
1.69546e-12
1.64097e-09
1.57386e-12
1.64587e-09
1.44141e-12
1.65025e-09
1.30004e-12
1.65409e-09
1.15156e-12
1.65737e-09
9.97586e-13
1.66009e-09
8.39902e-13
1.66224e-09
6.79673e-13
1.66382e-09
5.19148e-13
1.66485e-09
3.6062e-13
1.66531e-09
1.92585e-13
5.9543e-14
1.66526e-09
4.61074e-10
4.62978e-10
4.64784e-10
4.6648e-10
4.68054e-10
4.69495e-10
4.70795e-10
4.71947e-10
4.72944e-10
4.73784e-10
4.74464e-10
4.74983e-10
4.75343e-10
4.75536e-10
4.75596e-10
1.1566e-09
-4.8373e-10
2.96426e-10
1.42349e-09
-4.23435e-10
1.56546e-10
1.6911e-09
-2.95896e-10
2.82857e-11
1.95367e-09
-1.60138e-10
-1.02435e-10
2.20986e-09
-1.91794e-11
-2.37015e-10
2.46085e-09
1.22218e-10
-3.73205e-10
2.70853e-09
2.64939e-10
-5.12618e-10
2.95454e-09
4.10681e-10
-6.56691e-10
3.20021e-09
5.61307e-10
-8.06975e-10
3.44656e-09
7.18772e-10
-9.65127e-10
3.69443e-09
8.8519e-10
-1.13306e-09
3.94454e-09
1.0633e-09
-1.31341e-09
4.19773e-09
1.2567e-09
-1.50989e-09
4.45519e-09
1.46968e-09
-1.72713e-09
4.71859e-09
1.70796e-09
-1.97136e-09
4.99031e-09
1.97901e-09
-2.25073e-09
5.27379e-09
2.28977e-09
-2.57326e-09
5.57404e-09
2.64525e-09
-2.94549e-09
5.89769e-09
3.0421e-09
-3.36575e-09
6.25283e-09
3.45903e-09
-3.81417e-09
6.64677e-09
3.82172e-09
-4.21566e-09
7.08099e-09
3.9718e-09
-4.40602e-09
7.47765e-09
3.11239e-09
-3.50905e-09
7.80124e-09
1.81346e-09
-2.13705e-09
8.04924e-09
5.00772e-10
-7.48778e-10
8.22423e-09
-7.2438e-10
5.49392e-10
8.3318e-09
-1.80737e-09
1.69981e-09
8.37805e-09
-2.71702e-09
2.67077e-09
8.36829e-09
-3.44031e-09
3.45006e-09
8.30708e-09
-3.97742e-09
4.03864e-09
8.19848e-09
-4.3335e-09
4.4421e-09
8.04642e-09
-4.51518e-09
4.66724e-09
7.85477e-09
-4.5301e-09
4.72176e-09
7.62737e-09
-4.38726e-09
4.61466e-09
7.36784e-09
-4.09712e-09
4.35665e-09
7.07938e-09
-3.67126e-09
3.95972e-09
6.76454e-09
-3.12117e-09
3.43601e-09
6.42524e-09
-2.45625e-09
2.79555e-09
6.06292e-09
-1.68102e-09
2.04333e-09
5.67797e-09
-7.93291e-10
1.17824e-09
5.26649e-09
2.10035e-10
2.01445e-10
4.81457e-09
1.30967e-09
-8.57757e-10
4.29678e-09
2.39739e-09
-1.8796e-09
3.7149e-09
3.20987e-09
-2.62799e-09
3.01541e-09
3.36593e-09
-2.66644e-09
2.40455e-09
-5.55929e-10
2.56017e-09
-5.7905e-10
2.77204e-09
-5.07764e-10
3.00884e-09
-3.96946e-10
3.25729e-09
-2.67625e-10
3.5107e-09
-1.31196e-10
3.76691e-09
8.73605e-12
4.02538e-09
1.52211e-10
4.28626e-09
3.00422e-10
4.54996e-09
4.55072e-10
4.81698e-09
6.18175e-10
5.08788e-09
7.92391e-10
5.36346e-09
9.81123e-10
5.64492e-09
1.18821e-09
5.93406e-09
1.41882e-09
6.23335e-09
1.67971e-09
6.54645e-09
1.97667e-09
6.87859e-09
2.3131e-09
7.23675e-09
2.68394e-09
7.62934e-09
3.06644e-09
8.064e-09
3.38706e-09
8.54224e-09
3.49356e-09
8.97916e-09
2.67547e-09
9.33646e-09
1.45616e-09
9.61154e-09
2.25693e-10
9.80701e-09
-9.19853e-10
9.92882e-09
-1.92918e-09
9.98358e-09
-2.77177e-09
9.97711e-09
-3.43385e-09
9.91459e-09
-3.91489e-09
9.80079e-09
-4.21971e-09
9.64046e-09
-4.35485e-09
9.43843e-09
-4.32808e-09
9.19971e-09
-4.14854e-09
8.92938e-09
-3.82679e-09
8.63248e-09
-3.37437e-09
8.31418e-09
-2.80287e-09
7.98019e-09
-2.12226e-09
7.63809e-09
-1.33892e-09
7.29911e-09
-4.54311e-10
6.97963e-09
5.29514e-10
6.70161e-09
1.58769e-09
6.4934e-09
2.6056e-09
6.40017e-09
3.3031e-09
3.0902e-09
6.32538e-09
4.18395e-09
-5.65999e-10
4.24904e-09
-6.44145e-10
4.38051e-09
-6.39238e-10
4.56301e-09
-5.79443e-10
4.77725e-09
-4.81866e-10
5.01142e-09
-3.65364e-10
5.25894e-09
-2.38783e-10
5.51619e-09
-1.05039e-10
5.7813e-09
3.53063e-11
6.05343e-09
1.82943e-10
6.33232e-09
3.39286e-10
6.6181e-09
5.06617e-10
6.91127e-09
6.87953e-10
7.21297e-09
8.86513e-10
7.52499e-09
1.10681e-09
7.84985e-09
1.35485e-09
8.19131e-09
1.63522e-09
8.55481e-09
1.9496e-09
8.94754e-09
2.29121e-09
9.37813e-09
2.63584e-09
9.8544e-09
2.91079e-09
1.03777e-08
2.97023e-09
1.0856e-08
2.19723e-09
1.1248e-08
1.06414e-09
1.15511e-08
-7.74034e-11
1.17679e-08
-1.13662e-09
1.19046e-08
-2.0659e-09
1.19684e-08
-2.83557e-09
1.19657e-08
-3.43115e-09
1.19024e-08
-3.85157e-09
1.1784e-08
-4.10139e-09
1.16164e-08
-4.18726e-09
1.14056e-08
-4.11728e-09
1.11581e-08
-3.90096e-09
1.08806e-08
-3.54929e-09
1.05805e-08
-3.07434e-09
1.02663e-08
-2.48859e-09
9.94791e-09
-1.8039e-09
9.63967e-09
-1.03068e-09
9.3633e-09
-1.77939e-10
9.15176e-09
7.41059e-10
9.0492e-09
1.69025e-09
9.09385e-09
2.56094e-09
9.27146e-09
3.12548e-09
2.99345e-09
9.36821e-09
6.61984e-09
-5.39368e-10
6.62291e-09
-6.4721e-10
6.67591e-09
-6.92236e-10
6.78546e-09
-6.88994e-10
6.94207e-09
-6.38482e-10
7.13307e-09
-5.56357e-10
7.35012e-09
-4.55831e-10
7.58711e-09
-3.42033e-10
7.84007e-09
-2.17658e-10
8.10659e-09
-8.35694e-11
8.38531e-09
6.05606e-11
8.67565e-09
2.1628e-10
8.97764e-09
3.85967e-10
9.29217e-09
5.71977e-10
9.62093e-09
7.78045e-10
9.96638e-09
1.00941e-09
1.03323e-08
1.26931e-09
1.07242e-08
1.55768e-09
1.11494e-08
1.86597e-09
1.16167e-08
2.16862e-09
1.21337e-08
2.3938e-09
1.27014e-08
2.40249e-09
1.32205e-08
1.67814e-09
1.36469e-08
6.37672e-10
1.39779e-08
-4.08349e-10
1.42158e-08
-1.37455e-09
1.43673e-08
-2.21741e-09
1.44401e-08
-2.90835e-09
1.44412e-08
-3.43228e-09
1.43774e-08
-3.78771e-09
1.42552e-08
-3.97921e-09
1.40816e-08
-4.01368e-09
1.38641e-08
-3.89976e-09
1.36108e-08
-3.64766e-09
1.33307e-08
-3.26916e-09
1.30337e-08
-2.77738e-09
1.27316e-08
-2.18647e-09
1.24389e-08
-1.51118e-09
1.21753e-08
-7.67126e-10
1.19693e-08
2.80324e-11
1.18606e-08
8.49788e-10
1.18959e-08
1.65496e-09
1.21024e-08
2.35447e-09
1.24346e-08
2.79325e-09
2.76741e-09
1.26607e-08
9.88154e-09
-4.95625e-10
9.84387e-09
-6.09546e-10
9.83695e-09
-6.85313e-10
9.87355e-09
-7.25593e-10
9.9577e-09
-7.22639e-10
1.00859e-08
-6.84512e-10
1.02504e-08
-6.20376e-10
1.04452e-08
-5.36802e-10
1.06653e-08
-4.37768e-10
1.09072e-08
-3.25472e-10
1.11686e-08
-2.00824e-10
1.14481e-08
-6.32099e-11
1.17451e-08
8.89053e-11
1.20604e-08
2.56735e-10
1.23953e-08
4.43127e-10
1.27522e-08
6.52538e-10
1.31347e-08
8.86743e-10
1.35486e-08
1.14383e-09
1.4001e-08
1.41357e-09
1.45004e-08
1.66914e-09
1.50545e-08
1.83978e-09
1.56633e-08
1.79366e-09
1.62205e-08
1.12097e-09
1.66792e-08
1.78929e-10
1.70363e-08
-7.65411e-10
1.72939e-08
-1.63221e-09
1.74591e-08
-2.38257e-09
1.754e-08
-2.98927e-09
1.75445e-08
-3.43675e-09
1.74801e-08
-3.72332e-09
1.73546e-08
-3.85377e-09
1.71765e-08
-3.83552e-09
1.69547e-08
-3.67796e-09
1.66993e-08
-3.39229e-09
1.64216e-08
-2.99144e-09
1.61342e-08
-2.49001e-09
1.5852e-08
-1.90427e-09
1.55931e-08
-1.25222e-09
1.53803e-08
-5.54368e-10
1.52434e-08
1.64911e-10
1.52189e-08
8.74284e-10
1.53429e-08
1.53098e-09
1.56263e-08
2.07106e-09
1.60144e-08
2.40517e-09
2.44311e-09
1.63387e-08
1.4168e-08
-4.46449e-10
1.41096e-08
-5.51136e-10
1.40636e-08
-6.39269e-10
1.40422e-08
-7.04229e-10
1.40577e-08
-7.3808e-10
1.41144e-08
-7.41209e-10
1.4211e-08
-7.16984e-10
1.43442e-08
-6.70052e-10
1.45105e-08
-6.04014e-10
1.47065e-08
-5.21452e-10
1.49297e-08
-4.24093e-10
1.51786e-08
-3.12071e-10
1.54522e-08
-1.84683e-10
1.5751e-08
-4.2083e-11
1.60764e-08
1.17684e-10
1.64306e-08
2.98382e-10
1.68172e-08
5.0016e-10
1.72418e-08
7.19228e-10
1.77116e-08
9.43746e-10
1.82348e-08
1.14599e-09
1.88182e-08
1.25635e-09
1.94609e-08
1.15092e-09
2.00501e-08
5.31769e-10
2.05362e-08
-3.0719e-10
2.09154e-08
-1.14454e-09
2.11894e-08
-1.9062e-09
2.13654e-08
-2.55861e-09
2.14524e-08
-3.0762e-09
2.14587e-08
-3.4431e-09
2.13931e-08
-3.65771e-09
2.12647e-08
-3.72535e-09
2.10833e-08
-3.65413e-09
2.08598e-08
-3.45447e-09
2.06063e-08
-3.13877e-09
2.03362e-08
-2.72135e-09
2.00646e-08
-2.21846e-09
1.98088e-08
-1.64849e-09
1.95888e-08
-1.03216e-09
1.94277e-08
-3.93257e-10
1.93518e-08
2.40826e-10
1.9388e-08
8.3803e-10
1.9557e-08
1.36198e-09
1.98565e-08
1.77157e-09
2.02383e-08
2.02337e-09
2.08571e-09
2.05957e-08
1.97161e-08
-3.97631e-10
1.96523e-08
-4.87355e-10
1.95861e-08
-5.73073e-10
1.95287e-08
-6.46786e-10
1.94923e-08
-7.01699e-10
1.94855e-08
-7.34392e-10
1.95128e-08
-7.44305e-10
1.95757e-08
-7.32935e-10
1.96738e-08
-7.02173e-10
1.98062e-08
-6.53774e-10
1.99715e-08
-5.89482e-10
2.0169e-08
-5.09565e-10
2.03982e-08
-4.13821e-10
2.066e-08
-3.03888e-10
2.09561e-08
-1.78461e-10
2.12887e-08
-3.4192e-11
2.16616e-08
1.27253e-10
2.20806e-08
3.0023e-10
2.25528e-08
4.7152e-10
2.30859e-08
6.12928e-10
2.3686e-08
6.56279e-10
2.43504e-08
4.86461e-10
2.49612e-08
-7.90388e-11
2.54662e-08
-8.12135e-10
2.58602e-08
-1.53859e-09
2.61445e-08
-2.19051e-09
2.63265e-08
-2.74059e-09
2.64156e-08
-3.16526e-09
2.6421e-08
-3.4485e-09
2.63525e-08
-3.58921e-09
2.62207e-08
-3.59356e-09
2.60371e-08
-3.47055e-09
2.58144e-08
-3.23174e-09
2.55665e-08
-2.89088e-09
2.53088e-08
-2.46369e-09
2.50583e-08
-1.96792e-09
2.48333e-08
-1.4235e-09
2.46538e-08
-8.52631e-10
2.45404e-08
-2.79886e-10
2.45131e-08
2.68144e-10
2.45876e-08
7.63507e-10
2.47705e-08
1.17912e-09
2.50508e-08
1.49123e-09
2.53914e-08
1.68273e-09
1.74835e-09
2.57288e-08
2.68058e-08
-3.4999e-10
2.67432e-08
-4.24784e-10
2.66713e-08
-5.01155e-10
2.65976e-08
-5.7313e-10
2.65313e-08
-6.35326e-10
2.64806e-08
-6.83756e-10
2.64526e-08
-7.16249e-10
2.64519e-08
-7.32262e-10
2.64818e-08
-7.32043e-10
2.65441e-08
-7.16114e-10
2.66404e-08
-6.85762e-10
2.67715e-08
-6.40711e-10
2.69385e-08
-5.80804e-10
2.71439e-08
-5.09299e-10
2.73904e-08
-4.24933e-10
2.76805e-08
-3.24273e-10
2.80188e-08
-2.11081e-10
2.84117e-08
-9.26801e-11
2.88666e-08
1.66787e-11
2.93905e-08
8.90272e-11
2.99888e-08
5.79354e-11
3.06569e-08
-1.81665e-10
3.12737e-08
-6.95793e-10
3.17845e-08
-1.32295e-09
3.21826e-08
-1.93665e-09
3.2468e-08
-2.47591e-09
3.26483e-08
-2.92093e-09
3.27335e-08
-3.25044e-09
3.27335e-08
-3.44846e-09
3.26592e-08
-3.51492e-09
3.25228e-08
-3.45716e-09
3.23374e-08
-3.28519e-09
3.21174e-08
-3.01173e-09
3.18783e-08
-2.6518e-09
3.16369e-08
-2.22229e-09
3.14108e-08
-1.74187e-09
3.12183e-08
-1.23098e-09
3.10773e-08
-7.11602e-10
3.10041e-08
-2.06679e-10
3.10114e-08
2.60859e-10
3.11053e-08
6.69535e-10
3.12829e-08
1.00152e-09
3.15293e-08
1.24485e-09
3.18166e-08
1.39545e-09
1.45815e-09
3.21068e-08
3.5763e-08
-3.01439e-10
3.57019e-08
-3.63737e-10
3.56304e-08
-4.29615e-10
3.55525e-08
-4.95215e-10
3.54738e-08
-5.56612e-10
3.54005e-08
-6.10474e-10
3.53387e-08
-6.54448e-10
3.52937e-08
-6.8734e-10
3.52703e-08
-7.0864e-10
3.52724e-08
-7.18124e-10
3.53036e-08
-7.16973e-10
3.53669e-08
-7.04078e-10
3.54654e-08
-6.79249e-10
3.5604e-08
-6.47915e-10
3.57869e-08
-6.07837e-10
3.60176e-08
-5.55018e-10
3.63024e-08
-4.95882e-10
3.66489e-08
-4.39094e-10
3.70648e-08
-3.99253e-10
3.75574e-08
-4.03579e-10
3.81314e-08
-5.16024e-10
3.87799e-08
-8.30235e-10
3.93819e-08
-1.29779e-09
3.98812e-08
-1.8222e-09
4.02684e-08
-2.32387e-09
4.05423e-08
-2.74986e-09
4.07108e-08
-3.0894e-09
4.0784e-08
-3.32364e-09
4.07724e-08
-3.43681e-09
4.06881e-08
-3.43063e-09
4.05449e-08
-3.31399e-09
4.03575e-08
-3.09775e-09
4.01414e-08
-2.79566e-09
3.99133e-08
-2.42374e-09
3.96905e-08
-1.99949e-09
3.94903e-08
-1.5416e-09
3.9329e-08
-1.06975e-09
3.92215e-08
-6.04027e-10
3.91788e-08
-1.63979e-10
3.92071e-08
2.32499e-10
3.93061e-08
5.70583e-10
3.94676e-08
8.39972e-10
3.96765e-08
1.03599e-09
3.99116e-08
1.16032e-09
1.22044e-09
4.01493e-08
4.69533e-08
-2.49771e-10
4.68919e-08
-3.02293e-10
4.68212e-08
-3.5894e-10
4.67434e-08
-4.17374e-10
4.66617e-08
-4.74899e-10
4.65802e-08
-5.28992e-10
4.65033e-08
-5.77608e-10
4.64356e-08
-6.19554e-10
4.63811e-08
-6.54161e-10
4.63439e-08
-6.80976e-10
4.63287e-08
-7.01756e-10
4.63392e-08
-7.14516e-10
4.63794e-08
-7.19503e-10
4.6457e-08
-7.25502e-10
4.65769e-08
-7.27714e-10
4.67438e-08
-7.21932e-10
4.69662e-08
-7.1832e-10
4.72533e-08
-7.26174e-10
4.7614e-08
-7.59938e-10
4.80557e-08
-8.45273e-10
4.85829e-08
-1.04321e-09
4.9187e-08
-1.43434e-09
4.97508e-08
-1.86163e-09
5.02182e-08
-2.28956e-09
5.05769e-08
-2.68256e-09
5.08244e-08
-2.99736e-09
5.09689e-08
-3.23395e-09
5.10206e-08
-3.37535e-09
5.09901e-08
-3.40627e-09
5.08908e-08
-3.33138e-09
5.07382e-08
-3.1613e-09
5.05478e-08
-2.90743e-09
5.03363e-08
-2.58413e-09
5.01204e-08
-2.20789e-09
4.9917e-08
-1.79604e-09
4.97417e-08
-1.36627e-09
4.96082e-08
-9.36264e-10
4.95272e-08
-5.22998e-10
4.95049e-08
-1.41729e-10
4.95428e-08
1.94608e-10
4.96365e-08
4.76899e-10
4.97764e-08
7.00102e-10
4.99487e-08
8.63647e-10
5.01377e-08
9.71354e-10
1.0305e-09
5.03276e-08
6.0773e-08
-1.94607e-10
6.07104e-08
-2.39689e-10
6.06404e-08
-2.88934e-10
6.05641e-08
-3.41027e-10
6.04834e-08
-3.94253e-10
6.04013e-08
-4.46841e-10
6.03209e-08
-4.97203e-10
6.02456e-08
-5.44318e-10
6.01791e-08
-5.87602e-10
6.01246e-08
-6.26499e-10
6.00863e-08
-6.63448e-10
6.00679e-08
-6.96097e-10
6.00735e-08
-7.25156e-10
6.01114e-08
-7.63352e-10
6.0185e-08
-8.01368e-10
6.03008e-08
-8.37734e-10
6.04692e-08
-8.86684e-10
6.06999e-08
-9.56827e-10
6.10025e-08
-1.06254e-09
6.13847e-08
-1.22749e-09
6.18508e-08
-1.50933e-09
6.23908e-08
-1.97438e-09
6.2896e-08
-2.36677e-09
6.33122e-08
-2.70583e-09
6.36249e-08
-2.99517e-09
6.3831e-08
-3.20355e-09
6.39401e-08
-3.34297e-09
6.39611e-08
-3.39642e-09
6.39048e-08
-3.34993e-09
6.37861e-08
-3.21272e-09
6.36218e-08
-2.99693e-09
6.34281e-08
-2.71375e-09
6.32216e-08
-2.37762e-09
6.30185e-08
-2.00483e-09
6.2834e-08
-1.61159e-09
6.26814e-08
-1.21362e-09
6.25708e-08
-8.2572e-10
6.25091e-08
-4.61236e-10
6.24985e-08
-1.31097e-10
6.25372e-08
1.55838e-10
6.26193e-08
3.94843e-10
6.27352e-08
5.84137e-10
6.28737e-08
7.25175e-10
6.30228e-08
8.2224e-10
8.81569e-10
6.31718e-08
7.76496e-08
-1.38007e-10
7.75876e-08
-1.77691e-10
7.75201e-08
-2.21423e-10
7.74476e-08
-2.68571e-10
7.73716e-08
-3.18203e-10
7.72939e-08
-3.69179e-10
7.72172e-08
-4.20548e-10
7.71443e-08
-4.71427e-10
7.70784e-08
-5.21608e-10
7.70227e-08
-5.7081e-10
7.69795e-08
-6.20238e-10
7.69544e-08
-6.71085e-10
7.69522e-08
-7.22914e-10
7.69735e-08
-7.847e-10
7.70242e-08
-8.51974e-10
7.71147e-08
-9.28275e-10
7.72527e-08
-1.02473e-09
7.74466e-08
-1.15065e-09
7.77053e-08
-1.32129e-09
7.80362e-08
-1.55836e-09
7.84422e-08
-1.91532e-09
7.89118e-08
-2.44401e-09
7.93478e-08
-2.8028e-09
7.97009e-08
-3.05886e-09
7.99549e-08
-3.24915e-09
8.01094e-08
-3.35808e-09
8.01755e-08
-3.40903e-09
8.01598e-08
-3.38079e-09
8.00734e-08
-3.26354e-09
7.99337e-08
-3.073e-09
7.97579e-08
-2.82115e-09
7.95622e-08
-2.518e-09
7.93623e-08
-2.17772e-09
7.9173e-08
-1.81552e-09
7.9007e-08
-1.44565e-09
7.88746e-08
-1.08114e-09
7.87824e-08
-7.33589e-10
7.87339e-08
-4.12732e-10
7.87285e-08
-1.25711e-10
7.87629e-08
1.21439e-10
7.88305e-08
3.27243e-10
7.8923e-08
4.91652e-10
7.90313e-08
6.16935e-10
7.91464e-08
7.07119e-10
7.67287e-10
7.92607e-08
9.80686e-08
-8.33797e-11
9.80105e-08
-1.19605e-10
9.79488e-08
-1.59758e-10
9.78839e-08
-2.03663e-10
9.78167e-08
-2.50978e-10
9.77486e-08
-3.01103e-10
9.76818e-08
-3.53728e-10
9.76186e-08
-4.08216e-10
9.75618e-08
-4.64868e-10
9.7515e-08
-5.23996e-10
9.74804e-08
-5.85622e-10
9.74629e-08
-6.53575e-10
9.74671e-08
-7.2714e-10
9.74899e-08
-8.07455e-10
9.75401e-08
-9.02248e-10
9.76291e-08
-1.01724e-09
9.77616e-08
-1.15727e-09
9.79428e-08
-1.33181e-09
9.818e-08
-1.55844e-09
9.84788e-08
-1.85717e-09
9.88386e-08
-2.27519e-09
9.92458e-08
-2.85122e-09
9.96159e-08
-3.17287e-09
9.99042e-08
-3.34715e-09
1.00096e-07
-3.44093e-09
1.00198e-07
-3.45988e-09
1.00221e-07
-3.43224e-09
1.00168e-07
-3.32742e-09
1.00052e-07
-3.14806e-09
9.98954e-08
-2.91623e-09
9.97129e-08
-2.6387e-09
9.95197e-08
-2.32482e-09
9.93303e-08
-1.98834e-09
9.91573e-08
-1.64248e-09
9.90105e-08
-1.29883e-09
9.88968e-08
-9.67498e-10
9.88202e-08
-6.56976e-10
9.87814e-08
-3.73851e-10
9.87781e-08
-1.22497e-10
9.88063e-08
9.32389e-11
9.88598e-08
2.73773e-10
9.89315e-08
4.19972e-10
9.90142e-08
5.34247e-10
9.91012e-08