/*--------------------------------*- C++ -*----------------------------------*\
| =========                 |                                                 |
| \\      /  F ield         | OpenFOAM: The Open Source CFD Toolbox           |
|  \\    /   O peration     | Version:  2312                                  |
|   \\  /    A nd           | Website:  www.openfoam.com                      |
|    \\/     M anipulation  |                                                 |
\*---------------------------------------------------------------------------*/
FoamFile
{
    version     2.0;
    format      ascii;
    arch        "LSB;label=32;scalar=64";
    class       volScalarField;
    location    "405";
    object      p;
}
// * * * * * * * * * * * * * * * * * * * * * * * * * * * * * * * * * * * * * //

dimensions      [0 2 -2 0 0 0 0];

internalField   nonuniform List<scalar> 
4800
(
-5.84631e-13
-3.46115e-07
-6.46313e-07
-9.07636e-07
-1.13722e-06
-1.33999e-06
-1.51991e-06
-1.68001e-06
-1.82244e-06
-1.94832e-06
-2.05824e-06
-2.15623e-06
-2.25623e-06
-2.3824e-06
-2.9078e-06
3.26823e-09
-3.42436e-07
-6.42332e-07
-9.03563e-07
-1.1333e-06
-1.33655e-06
-1.51736e-06
-1.67899e-06
-1.82405e-06
-1.95471e-06
-2.07363e-06
-2.18708e-06
-2.30914e-06
-2.47478e-06
-2.86298e-06
7.37581e-09
-3.37978e-07
-6.37615e-07
-8.988e-07
-1.12877e-06
-1.33259e-06
-1.51444e-06
-1.67781e-06
-1.8258e-06
-1.96154e-06
-2.08923e-06
-2.21615e-06
-2.35395e-06
-2.51847e-06
-2.75239e-06
1.19481e-08
-3.32983e-07
-6.32296e-07
-8.9335e-07
-1.12345e-06
-1.32772e-06
-1.51043e-06
-1.67523e-06
-1.82551e-06
-1.96473e-06
-2.09705e-06
-2.22765e-06
-2.36147e-06
-2.49845e-06
-2.63577e-06
1.71885e-08
-3.27173e-07
-6.26024e-07
-8.86788e-07
-1.11683e-06
-1.32131e-06
-1.50453e-06
-1.67019e-06
-1.82163e-06
-1.96204e-06
-2.09435e-06
-2.2205e-06
-2.33956e-06
-2.44478e-06
-2.52455e-06
2.33932e-08
-3.2021e-07
-6.18412e-07
-8.78658e-07
-1.10836e-06
-1.31269e-06
-1.49587e-06
-1.66146e-06
-1.8125e-06
-1.95137e-06
-2.07938e-06
-2.19574e-06
-2.29644e-06
-2.37399e-06
-2.41933e-06
3.09642e-08
-3.11652e-07
-6.08954e-07
-8.68366e-07
-1.09732e-06
-1.30093e-06
-1.48325e-06
-1.64751e-06
-1.79618e-06
-1.93066e-06
-2.05081e-06
-2.15435e-06
-2.23682e-06
-2.29286e-06
-2.31807e-06
4.05346e-08
-3.00815e-07
-5.96884e-07
-8.55027e-07
-1.08264e-06
-1.28475e-06
-1.46509e-06
-1.62645e-06
-1.7706e-06
-1.89809e-06
-2.00795e-06
-2.09768e-06
-2.16404e-06
-2.20452e-06
-2.21832e-06
5.31183e-08
-2.86638e-07
-5.81036e-07
-8.37338e-07
-1.06285e-06
-1.26242e-06
-1.43942e-06
-1.59613e-06
-1.73375e-06
-1.85231e-06
-1.95073e-06
-2.02728e-06
-2.08051e-06
-2.11032e-06
-2.11786e-06
7.02658e-08
-2.67523e-07
-5.59694e-07
-8.13446e-07
-1.03589e-06
-1.2317e-06
-1.40387e-06
-1.55427e-06
-1.68375e-06
-1.7923e-06
-1.87936e-06
-1.94438e-06
-1.98756e-06
-2.0104e-06
-2.01483e-06
9.42243e-08
-2.41191e-07
-5.3045e-07
-7.80815e-07
-9.99117e-07
-1.18985e-06
-1.35575e-06
-1.49848e-06
-1.61888e-06
-1.71731e-06
-1.79402e-06
-1.84966e-06
-1.88564e-06
-1.90425e-06
-1.90754e-06
1.2801e-07
-2.04588e-07
-4.90125e-07
-7.36173e-07
-9.49228e-07
-1.13366e-06
-1.29215e-06
-1.42638e-06
-1.53752e-06
-1.62655e-06
-1.69458e-06
-1.74315e-06
-1.77438e-06
-1.79084e-06
-1.7944e-06
1.75284e-07
-1.53973e-07
-4.34864e-07
-6.75619e-07
-8.8243e-07
-1.05962e-06
-1.21002e-06
-1.33565e-06
-1.43814e-06
-1.51915e-06
-1.58047e-06
-1.62423e-06
-1.65283e-06
-1.66882e-06
-1.67375e-06
2.39947e-07
-8.5245e-08
-3.6049e-07
-5.94985e-07
-7.94779e-07
-9.64239e-07
-1.10654e-06
-1.22414e-06
-1.31926e-06
-1.39405e-06
-1.4508e-06
-1.49187e-06
-1.51969e-06
-1.53662e-06
-1.54392e-06
3.25592e-07
5.54271e-09
-2.63033e-07
-4.90406e-07
-6.82729e-07
-8.44512e-07
-9.79327e-07
-1.09014e-06
-1.17959e-06
-1.25022e-06
-1.3045e-06
-1.34485e-06
-1.37356e-06
-1.39272e-06
-1.40339e-06
4.35082e-07
1.21757e-07
-1.39142e-07
-3.58776e-07
-5.43588e-07
-6.98288e-07
-8.26806e-07
-9.32486e-07
-1.01826e-06
-1.08683e-06
-1.1407e-06
-1.18216e-06
-1.21329e-06
-1.23595e-06
-1.25102e-06
5.70289e-07
2.6588e-07
1.36968e-08
-1.97882e-07
-3.75586e-07
-5.24278e-07
-6.48097e-07
-7.50592e-07
-8.34804e-07
-9.03417e-07
-9.58822e-07
-1.00314e-06
-1.03821e-06
-1.06567e-06
-1.08627e-06
7.31736e-07
4.39014e-07
1.96682e-07
-6.73928e-09
-1.78047e-07
-3.22095e-07
-4.43023e-07
-5.44377e-07
-6.29135e-07
-6.99842e-07
-7.58699e-07
-8.07604e-07
-8.48177e-07
-8.81825e-07
-9.09268e-07
9.17824e-07
6.39964e-07
4.08672e-07
2.13414e-07
4.77063e-08
-9.30889e-08
-2.12899e-07
-3.15077e-07
-4.02397e-07
-4.77169e-07
-5.41346e-07
-5.96591e-07
-6.44305e-07
-6.85692e-07
-7.21482e-07
1.12353e-06
8.63793e-07
6.4469e-07
4.57591e-07
2.96795e-07
1.58066e-07
3.78762e-08
-6.67695e-08
-1.58355e-07
-2.38901e-07
-3.10079e-07
-3.73304e-07
-4.29765e-07
-4.80474e-07
-5.26226e-07
1.32609e-06
1.08599e-06
8.79284e-07
6.99921e-07
5.43313e-07
4.05717e-07
2.84066e-07
1.75844e-07
7.8973e-08
-8.25631e-09
-8.72598e-08
-1.59224e-07
-2.25156e-07
-2.85898e-07
-3.4232e-07
1.49293e-06
1.27048e-06
1.07479e-06
9.02132e-07
7.48977e-07
6.12069e-07
4.88787e-07
3.77081e-07
2.75275e-07
1.81953e-07
9.59207e-08
1.61797e-08
-5.81205e-08
-1.27681e-07
-1.93331e-07
1.61707e-06
1.40925e-06
1.22294e-06
1.05606e-06
9.05919e-07
7.6971e-07
6.45223e-07
5.30785e-07
4.25023e-07
3.26757e-07
2.34982e-07
1.48857e-07
6.76611e-08
-9.19449e-09
-8.24484e-08
1.70736e-06
1.51158e-06
1.33324e-06
1.17137e-06
1.02387e-06
8.8837e-07
7.63007e-07
6.46417e-07
5.37467e-07
4.35174e-07
3.38692e-07
2.47311e-07
1.60424e-07
7.75298e-08
-2.00861e-09
1.7718e-06
1.58587e-06
1.4143e-06
1.25675e-06
1.11158e-06
9.7676e-07
8.50766e-07
7.32475e-07
6.20948e-07
5.1536e-07
4.15002e-07
3.19276e-07
2.27669e-07
1.39758e-07
5.50002e-08
1.81712e-06
1.63931e-06
1.47348e-06
1.31965e-06
1.17649e-06
1.0423e-06
9.15833e-07
7.96163e-07
6.82511e-07
5.74188e-07
4.706e-07
3.71247e-07
2.75698e-07
1.83596e-07
9.44829e-08
1.84865e-06
1.67756e-06
1.51661e-06
1.36597e-06
1.22453e-06
1.0909e-06
9.64052e-07
8.43233e-07
7.27799e-07
6.17173e-07
5.10866e-07
4.0846e-07
3.09596e-07
2.13975e-07
1.21213e-07
1.87042e-06
1.70498e-06
1.54818e-06
1.40026e-06
1.26029e-06
1.12712e-06
9.9995e-07
8.78152e-07
7.61196e-07
6.48609e-07
5.39987e-07
4.34989e-07
3.33317e-07
2.34724e-07
1.38887e-07
1.88545e-06
1.72478e-06
1.57152e-06
1.42592e-06
1.28718e-06
1.1544e-06
1.02693e-06
9.04283e-07
7.8601e-07
6.71733e-07
5.61125e-07
4.53908e-07
3.49838e-07
2.48716e-07
1.50271e-07
1.89587e-06
1.73928e-06
1.58904e-06
1.44541e-06
1.30772e-06
1.17525e-06
1.04751e-06
9.24103e-07
8.04678e-07
6.8893e-07
5.76601e-07
4.67467e-07
3.61334e-07
2.58043e-07
1.57369e-07
1.90321e-06
1.75011e-06
1.60247e-06
1.46051e-06
1.3237e-06
1.19148e-06
1.06348e-06
9.39396e-07
8.18952e-07
7.01914e-07
5.8808e-07
4.77279e-07
3.69355e-07
2.64188e-07
1.61593e-07
1.90848e-06
1.75841e-06
1.613e-06
1.47247e-06
1.33639e-06
1.20436e-06
1.07612e-06
9.51424e-07
8.30074e-07
7.11894e-07
5.96737e-07
4.84472e-07
3.74984e-07
2.68182e-07
1.63918e-07
1.9124e-06
1.76495e-06
1.62145e-06
1.48214e-06
1.34668e-06
1.2148e-06
1.08632e-06
9.61071e-07
8.38908e-07
7.19714e-07
6.03384e-07
4.89829e-07
3.78964e-07
2.70727e-07
1.65004e-07
1.9154e-06
1.77024e-06
1.62839e-06
1.49012e-06
1.35518e-06
1.22342e-06
1.09471e-06
9.68951e-07
8.46058e-07
7.25957e-07
6.08585e-07
4.93884e-07
3.81802e-07
2.723e-07
1.65292e-07
1.91779e-06
1.77462e-06
1.6342e-06
1.49682e-06
1.36233e-06
1.23064e-06
1.10171e-06
9.75491e-07
8.5194e-07
7.31026e-07
6.12723e-07
4.97004e-07
3.83842e-07
2.7322e-07
1.65075e-07
1.91974e-06
1.77831e-06
1.63913e-06
1.50252e-06
1.3684e-06
1.23677e-06
1.10763e-06
9.80985e-07
8.5684e-07
7.35198e-07
6.16063e-07
4.99438e-07
3.85315e-07
2.737e-07
1.64549e-07
1.92137e-06
1.78147e-06
1.64337e-06
1.50741e-06
1.37361e-06
1.24201e-06
1.11267e-06
9.85642e-07
8.6096e-07
7.38665e-07
6.18787e-07
5.01354e-07
3.86377e-07
2.73881e-07
1.63837e-07
1.92278e-06
1.78424e-06
1.64707e-06
1.51169e-06
1.37815e-06
1.24657e-06
1.11705e-06
9.89661e-07
8.6449e-07
7.41601e-07
6.21051e-07
5.02887e-07
3.87141e-07
2.73852e-07
1.63006e-07
1.92405e-06
1.78676e-06
1.65046e-06
1.5156e-06
1.3823e-06
1.25073e-06
1.12102e-06
9.93299e-07
8.67667e-07
7.44221e-07
6.23041e-07
5.04196e-07
3.87732e-07
2.73703e-07
1.62109e-07
1.92511e-06
1.78894e-06
1.65341e-06
1.51902e-06
1.38595e-06
1.2544e-06
1.12454e-06
9.96528e-07
8.70497e-07
7.46567e-07
6.24838e-07
5.05395e-07
3.88303e-07
2.73626e-07
1.61375e-07
-3.90131e-06
-3.28397e-06
-2.83347e-06
-2.51583e-06
-2.25595e-06
-2.04327e-06
-1.86665e-06
-1.71809e-06
-1.59252e-06
-1.48632e-06
-1.39685e-06
-1.32201e-06
-1.26005e-06
-1.20951e-06
-1.16913e-06
-1.13793e-06
-1.11534e-06
-1.10138e-06
-1.09682e-06
-1.10338e-06
-1.12284e-06
-1.15588e-06
-1.19199e-06
-1.20787e-06
-1.18655e-06
-1.11658e-06
-9.91627e-07
-8.11102e-07
-5.78869e-07
-3.02223e-07
9.29453e-09
3.44861e-07
6.93134e-07
1.04274e-06
1.38251e-06
1.70151e-06
1.98886e-06
2.2338e-06
2.42577e-06
2.55444e-06
2.60992e-06
2.57957e-06
2.43148e-06
2.13976e-06
1.46319e-06
-3.29057e-06
-3.02201e-06
-2.72303e-06
-2.46066e-06
-2.22659e-06
-2.02578e-06
-1.85478e-06
-1.70904e-06
-1.58495e-06
-1.47964e-06
-1.39076e-06
-1.31638e-06
-1.25486e-06
-1.20475e-06
-1.16484e-06
-1.13415e-06
-1.1121e-06
-1.09869e-06
-1.09463e-06
-1.10156e-06
-1.12108e-06
-1.1537e-06
-1.18883e-06
-1.20351e-06
-1.18125e-06
-1.11098e-06
-9.86644e-07
-8.07827e-07
-5.78501e-07
-3.06029e-07
-2.04388e-11
3.28604e-07
6.68321e-07
1.00745e-06
1.33426e-06
1.63689e-06
1.9029e-06
2.11854e-06
2.26785e-06
2.33091e-06
2.28059e-06
2.07508e-06
1.63792e-06
8.37568e-07
-5.21744e-07
-2.93938e-06
-2.81042e-06
-2.60437e-06
-2.39085e-06
-2.1854e-06
-2.00004e-06
-1.83734e-06
-1.69621e-06
-1.57482e-06
-1.47119e-06
-1.38346e-06
-1.30995e-06
-1.24914e-06
-1.19967e-06
-1.16035e-06
-1.13025e-06
-1.10878e-06
-1.09596e-06
-1.09243e-06
-1.09973e-06
-1.11928e-06
-1.15137e-06
-1.18531e-06
-1.19851e-06
-1.17503e-06
-1.10429e-06
-9.80608e-07
-8.0385e-07
-5.78194e-07
-3.11163e-07
-1.25229e-08
3.06603e-07
6.34402e-07
9.5874e-07
1.26722e-06
1.54689e-06
1.7837e-06
1.96123e-06
2.05923e-06
2.05114e-06
1.9007e-06
1.55794e-06
9.56197e-07
2.38317e-08
-1.26211e-06
-2.71695e-06
-2.64206e-06
-2.4922e-06
-2.31769e-06
-2.13907e-06
-1.97015e-06
-1.81712e-06
-1.68169e-06
-1.56371e-06
-1.46221e-06
-1.37588e-06
-1.30337e-06
-1.24334e-06
-1.19453e-06
-1.15582e-06
-1.12631e-06
-1.10544e-06
-1.0932e-06
-1.09021e-06
-1.09786e-06
-1.1174e-06
-1.14886e-06
-1.18143e-06
-1.1929e-06
-1.16797e-06
-1.09661e-06
-9.73616e-07
-7.992e-07
-5.77837e-07
-3.1729e-07
-2.75642e-08
2.79937e-07
5.93023e-07
8.99027e-07
1.18479e-06
1.43632e-06
1.63802e-06
1.77148e-06
1.81392e-06
1.73636e-06
1.50234e-06
1.06969e-06
3.99775e-07
-5.19487e-07
-1.63666e-06
-2.55516e-06
-2.50218e-06
-2.38903e-06
-2.24557e-06
-2.09071e-06
-1.93796e-06
-1.79521e-06
-1.66615e-06
-1.55208e-06
-1.45301e-06
-1.36824e-06
-1.2968e-06
-1.23756e-06
-1.18941e-06
-1.15129e-06
-1.12236e-06
-1.10209e-06
-1.09044e-06
-1.08799e-06
-1.09599e-06
-1.11548e-06
-1.1462e-06
-1.17722e-06
-1.18679e-06
-1.16033e-06
-1.08843e-06
-9.66425e-07
-7.94947e-07
-5.78812e-07
-3.26067e-07
-4.6994e-08
2.46686e-07
5.42379e-07
8.2688e-07
1.08632e-06
1.30585e-06
1.46881e-06
1.55585e-06
1.54388e-06
1.40558e-06
1.11079e-06
6.32277e-07
-4.17142e-08
-8.88154e-07
-1.83078e-06
-2.4258e-06
-2.38277e-06
-2.29435e-06
-2.17575e-06
-2.04174e-06
-1.90445e-06
-1.77226e-06
-1.65005e-06
-1.5403e-06
-1.44392e-06
-1.36084e-06
-1.2905e-06
-1.23204e-06
-1.1845e-06
-1.14693e-06
-1.11855e-06
-1.09886e-06
-1.08781e-06
-1.08589e-06
-1.09422e-06
-1.11361e-06
-1.14345e-06
-1.17273e-06
-1.18028e-06
-1.15226e-06
-1.08002e-06
-9.5949e-07
-7.91772e-07
-5.82066e-07
-3.38732e-07
-7.23484e-08
2.05045e-07
4.80471e-07
7.40263e-07
9.70036e-07
1.15443e-06
1.2765e-06
1.31733e-06
1.25578e-06
1.06944e-06
7.37876e-07
2.49419e-07
-3.88187e-07
-1.13657e-06
-1.92259e-06
-2.31359e-06
-2.27675e-06
-2.20589e-06
-2.10761e-06
-1.99222e-06
-1.86984e-06
-1.74847e-06
-1.63363e-06
-1.52866e-06
-1.43526e-06
-1.35403e-06
-1.28484e-06
-1.22712e-06
-1.18013e-06
-1.14305e-06
-1.11516e-06
-1.096e-06
-1.08551e-06
-1.0841e-06
-1.09272e-06
-1.11192e-06
-1.14073e-06
-1.16809e-06
-1.17348e-06
-1.14395e-06
-1.07167e-06
-9.53249e-07
-7.90309e-07
-5.88472e-07
-3.56427e-07
-1.05043e-07
1.53359e-07
4.05509e-07
6.3745e-07
8.3462e-07
9.81684e-07
1.06237e-06
1.05957e-06
9.55961e-07
7.3585e-07
3.88903e-07
-8.41436e-08
-6.64903e-07
-1.31331e-06
-1.97105e-06
-2.20944e-06
-2.17789e-06
-2.12055e-06
-2.03943e-06
-1.94106e-06
-1.8333e-06
-1.72326e-06
-1.61654e-06
-1.51702e-06
-1.42712e-06
-1.34802e-06
-1.28009e-06
-1.22314e-06
-1.17666e-06
-1.13998e-06
-1.11251e-06
-1.09382e-06
-1.08383e-06
-1.08288e-06
-1.09171e-06
-1.11061e-06
-1.13823e-06
-1.16347e-06
-1.16665e-06
-1.13575e-06
-1.06386e-06
-9.4837e-07
-7.91458e-07
-5.99186e-07
-3.80569e-07
-1.46716e-07
8.98641e-08
3.15782e-07
5.17082e-07
6.79476e-07
7.88338e-07
8.29016e-07
7.87355e-07
6.50853e-07
4.10746e-07
6.51174e-08
-3.77456e-07
-8.95088e-07
-1.45288e-06
-2.00824e-06
-2.10792e-06
-2.0815e-06
-2.03533e-06
-1.96904e-06
-1.88643e-06
-1.79319e-06
-1.69518e-06
-1.5976e-06
-1.50458e-06
-1.41899e-06
-1.34261e-06
-1.2763e-06
-1.22028e-06
-1.17434e-06
-1.13806e-06
-1.11094e-06
-1.09265e-06
-1.0831e-06
-1.08253e-06
-1.0915e-06
-1.10998e-06
-1.13623e-06
-1.15921e-06
-1.16019e-06
-1.12819e-06
-1.05733e-06
-9.45831e-07
-7.96465e-07
-6.15731e-07
-4.12915e-07
-1.99272e-07
1.26759e-08
2.09679e-07
3.78184e-07
5.04695e-07
5.76001e-07
5.79829e-07
5.0562e-07
3.45798e-07
9.75216e-08
-2.35316e-07
-6.40427e-07
-1.09679e-06
-1.57669e-06
-2.05021e-06
-2.00558e-06
-1.98425e-06
-1.9477e-06
-1.89441e-06
-1.82637e-06
-1.74745e-06
-1.66214e-06
-1.5749e-06
-1.4897e-06
-1.40966e-06
-1.33697e-06
-1.27298e-06
-1.21835e-06
-1.17323e-06
-1.13746e-06
-1.11074e-06
-1.09284e-06
-1.08369e-06
-1.08345e-06
-1.09247e-06
-1.11041e-06
-1.13516e-06
-1.15579e-06
-1.15473e-06
-1.12212e-06
-1.05316e-06
-9.46998e-07
-8.06993e-07
-6.40027e-07
-4.55563e-07
-2.64831e-07
-8.01234e-08
8.5796e-08
2.20233e-07
3.10997e-07
3.46881e-07
3.18424e-07
2.18727e-07
4.45087e-08
-2.02767e-07
-5.15978e-07
-8.82074e-07
-1.28293e-06
-1.69759e-06
-2.10528e-06
-1.90002e-06
-1.88369e-06
-1.85568e-06
-1.8139e-06
-1.75921e-06
-1.69414e-06
-1.62193e-06
-1.54611e-06
-1.47017e-06
-1.39719e-06
-1.32957e-06
-1.26904e-06
-1.21665e-06
-1.17294e-06
-1.13808e-06
-1.11201e-06
-1.09464e-06
-1.08595e-06
-1.08606e-06
-1.09508e-06
-1.11243e-06
-1.1356e-06
-1.15395e-06
-1.15121e-06
-1.11873e-06
-1.05288e-06
-9.5372e-07
-8.25182e-07
-6.74427e-07
-5.10933e-07
-3.45671e-07
-1.90388e-07
-5.69731e-08
4.31797e-08
9.96208e-08
1.03486e-07
4.8178e-08
-6.99588e-08
-2.50966e-07
-4.90772e-07
-7.8106e-07
-1.10974e-06
-1.46214e-06
-1.82278e-06
-2.17716e-06
-1.7893e-06
-1.77795e-06
-1.75769e-06
-1.72618e-06
-1.68365e-06
-1.63173e-06
-1.57262e-06
-1.50895e-06
-1.44356e-06
-1.37921e-06
-1.31829e-06
-1.26272e-06
-1.21385e-06
-1.17258e-06
-1.1394e-06
-1.11453e-06
-1.09808e-06
-1.09012e-06
-1.09073e-06
-1.09986e-06
-1.11667e-06
-1.13837e-06
-1.15473e-06
-1.15099e-06
-1.11973e-06
-1.05855e-06
-9.68407e-07
-8.53701e-07
-7.21717e-07
-5.81719e-07
-4.4413e-07
-3.19804e-07
-2.19371e-07
-1.52579e-07
-1.27868e-07
-1.51712e-07
-2.28131e-07
-3.58256e-07
-5.40046e-07
-7.68247e-07
-1.03471e-06
-1.32908e-06
-1.63992e-06
-1.95591e-06
-2.26676e-06
-1.67169e-06
-1.66536e-06
-1.65233e-06
-1.63015e-06
-1.59872e-06
-1.55912e-06
-1.5128e-06
-1.46159e-06
-1.40768e-06
-1.35334e-06
-1.30077e-06
-1.25185e-06
-1.20812e-06
-1.1707e-06
-1.1404e-06
-1.1177e-06
-1.10291e-06
-1.09624e-06
-1.09777e-06
-1.10734e-06
-1.12392e-06
-1.14454e-06
-1.15958e-06
-1.15589e-06
-1.1274e-06
-1.07286e-06
-9.9406e-07
-8.95722e-07
-7.85028e-07
-6.70752e-07
-5.6245e-07
-4.69756e-07
-4.01728e-07
-3.66277e-07
-3.69779e-07
-4.1654e-07
-5.08514e-07
-6.45129e-07
-8.23281e-07
-1.03756e-06
-1.28072e-06
-1.54437e-06
-1.81977e-06
-2.09868e-06
-2.37362e-06
-1.54551e-06
-1.54439e-06
-1.53831e-06
-1.52481e-06
-1.50364e-06
-1.47556e-06
-1.44153e-06
-1.40278e-06
-1.36087e-06
-1.3176e-06
-1.27482e-06
-1.23426e-06
-1.19742e-06
-1.16558e-06
-1.13971e-06
-1.12054e-06
-1.10857e-06
-1.10414e-06
-1.10738e-06
-1.11807e-06
-1.13509e-06
-1.15548e-06
-1.17037e-06
-1.16831e-06
-1.1446e-06
-1.09909e-06
-1.0342e-06
-9.54775e-07
-8.6763e-07
-7.80753e-07
-7.02538e-07
-6.41138e-07
-6.03876e-07
-5.96812e-07
-6.24414e-07
-6.89224e-07
-7.91742e-07
-9.30441e-07
-1.10193e-06
-1.30127e-06
-1.52243e-06
-1.75884e-06
-2.00396e-06
-2.25177e-06
-2.49673e-06
-1.40934e-06
-1.41371e-06
-1.4145e-06
-1.4093e-06
-1.3978e-06
-1.3806e-06
-1.35835e-06
-1.33184e-06
-1.30217e-06
-1.27068e-06
-1.23885e-06
-1.20814e-06
-1.17994e-06
-1.1555e-06
-1.13588e-06
-1.12194e-06
-1.11433e-06
-1.11351e-06
-1.11969e-06
-1.13264e-06
-1.15127e-06
-1.17287e-06
-1.18941e-06
-1.19114e-06
-1.17473e-06
-1.14092e-06
-1.09258e-06
-1.03439e-06
-9.72527e-07
-9.13925e-07
-8.656e-07
-8.34094e-07
-8.25e-07
-8.42678e-07
-8.90018e-07
-9.68274e-07
-1.07707e-06
-1.21453e-06
-1.37746e-06
-1.56172e-06
-1.76253e-06
-1.9749e-06
-2.19398e-06
-2.41538e-06
-2.63495e-06
-1.26212e-06
-1.27241e-06
-1.28015e-06
-1.28308e-06
-1.28092e-06
-1.27416e-06
-1.26327e-06
-1.24876e-06
-1.23138e-06
-1.21212e-06
-1.1921e-06
-1.17249e-06
-1.15449e-06
-1.13924e-06
-1.12776e-06
-1.12096e-06
-1.11956e-06
-1.12412e-06
-1.1349e-06
-1.15177e-06
-1.17376e-06
-1.19863e-06
-1.21931e-06
-1.22758e-06
-1.22134e-06
-1.20204e-06
-1.17267e-06
-1.1375e-06
-1.10184e-06
-1.07138e-06
-1.05167e-06
-1.04765e-06
-1.06337e-06
-1.10176e-06
-1.16455e-06
-1.25215e-06
-1.36379e-06
-1.49765e-06
-1.65102e-06
-1.82064e-06
-2.00287e-06
-2.19402e-06
-2.39055e-06
-2.58927e-06
-2.78703e-06
-1.10342e-06
-1.12019e-06
-1.13512e-06
-1.14625e-06
-1.15332e-06
-1.15677e-06
-1.15698e-06
-1.15428e-06
-1.1492e-06
-1.14245e-06
-1.13486e-06
-1.12734e-06
-1.12088e-06
-1.11643e-06
-1.11493e-06
-1.11722e-06
-1.12407e-06
-1.13604e-06
-1.15348e-06
-1.17637e-06
-1.20403e-06
-1.23483e-06
-1.2627e-06
-1.28066e-06
-1.2876e-06
-1.28539e-06
-1.27686e-06
-1.26566e-06
-1.25607e-06
-1.25249e-06
-1.25907e-06
-1.27932e-06
-1.31601e-06
-1.37101e-06
-1.44527e-06
-1.53875e-06
-1.65063e-06
-1.77936e-06
-1.92285e-06
-2.07864e-06
-2.24409e-06
-2.41654e-06
-2.59343e-06
-2.77248e-06
-2.95133e-06
-9.33554e-07
-9.57496e-07
-9.8003e-07
-9.99601e-07
-1.01604e-06
-1.02974e-06
-1.04099e-06
-1.05006e-06
-1.05733e-06
-1.0633e-06
-1.06862e-06
-1.07399e-06
-1.08015e-06
-1.0879e-06
-1.09803e-06
-1.1113e-06
-1.12842e-06
-1.14996e-06
-1.17633e-06
-1.20768e-06
-1.24366e-06
-1.28338e-06
-1.32169e-06
-1.35255e-06
-1.37541e-06
-1.39224e-06
-1.40551e-06
-1.41812e-06
-1.4333e-06
-1.45428e-06
-1.48397e-06
-1.52476e-06
-1.57843e-06
-1.64616e-06
-1.72841e-06
-1.82503e-06
-1.9353e-06
-2.05807e-06
-2.19184e-06
-2.33486e-06
-2.4853e-06
-2.6413e-06
-2.80107e-06
-2.96298e-06
-3.1253e-06
-7.54205e-07
-7.86181e-07
-8.16879e-07
-8.45352e-07
-8.71542e-07
-8.9575e-07
-9.18228e-07
-9.39197e-07
-9.58959e-07
-9.77912e-07
-9.96537e-07
-1.01537e-06
-1.035e-06
-1.05606e-06
-1.0792e-06
-1.10506e-06
-1.13428e-06
-1.16741e-06
-1.20493e-06
-1.24714e-06
-1.29408e-06
-1.34556e-06
-1.39726e-06
-1.44367e-06
-1.4844e-06
-1.52118e-06
-1.55598e-06
-1.591e-06
-1.62857e-06
-1.67089e-06
-1.71994e-06
-1.77729e-06
-1.8441e-06
-1.92108e-06
-2.0085e-06
-2.10622e-06
-2.21375e-06
-2.33031e-06
-2.45493e-06
-2.58645e-06
-2.72365e-06
-2.8653e-06
-3.01018e-06
-3.15714e-06
-3.30501e-06
-5.68821e-07
-6.09811e-07
-6.49374e-07
-6.87393e-07
-7.23937e-07
-7.59168e-07
-7.93271e-07
-8.2646e-07
-8.59001e-07
-8.91216e-07
-9.23483e-07
-9.56223e-07
-9.89901e-07
-1.02502e-06
-1.06211e-06
-1.10172e-06
-1.1444e-06
-1.1907e-06
-1.24111e-06
-1.2961e-06
-1.35605e-06
-1.42128e-06
-1.48818e-06
-1.55166e-06
-1.61097e-06
-1.66729e-06
-1.72212e-06
-1.77709e-06
-1.83383e-06
-1.89381e-06
-1.95829e-06
-2.02832e-06
-2.10472e-06
-2.18799e-06
-2.27834e-06
-2.37571e-06
-2.47987e-06
-2.59037e-06
-2.70663e-06
-2.82798e-06
-2.95366e-06
-3.0829e-06
-3.2149e-06
-3.34892e-06
-3.48421e-06
-3.95442e-07
-4.46016e-07
-4.94905e-07
-5.42787e-07
-5.89842e-07
-6.36083e-07
-6.81627e-07
-7.26687e-07
-7.71511e-07
-8.16375e-07
-8.61586e-07
-9.07492e-07
-9.54477e-07
-1.00295e-06
-1.05337e-06
-1.1062e-06
-1.16194e-06
-1.2211e-06
-1.28421e-06
-1.35182e-06
-1.42453e-06
-1.50286e-06
-1.58382e-06
-1.66278e-06
-1.73836e-06
-1.81103e-06
-1.88192e-06
-1.95237e-06
-2.02354e-06
-2.09646e-06
-2.17198e-06
-2.25083e-06
-2.33363e-06
-2.42078e-06
-2.51249e-06
-2.60884e-06
-2.70975e-06
-2.81504e-06
-2.92442e-06
-3.03754e-06
-3.15397e-06
-3.27326e-06
-3.39493e-06
-3.51851e-06
-3.64361e-06
-2.55711e-07
-3.15276e-07
-3.7316e-07
-4.30325e-07
-4.86978e-07
-5.43069e-07
-5.98686e-07
-6.54035e-07
-7.09347e-07
-7.64865e-07
-8.20853e-07
-8.77611e-07
-9.35469e-07
-9.9479e-07
-1.05596e-06
-1.11941e-06
-1.18558e-06
-1.25497e-06
-1.3281e-06
-1.40556e-06
-1.48803e-06
-1.57607e-06
-1.66712e-06
-1.757e-06
-1.84385e-06
-1.9276e-06
-2.00914e-06
-2.08965e-06
-2.17008e-06
-2.25116e-06
-2.33356e-06
-2.41782e-06
-2.50442e-06
-2.5937e-06
-2.6859e-06
-2.78117e-06
-2.87955e-06
-2.98101e-06
-3.08544e-06
-3.19266e-06
-3.30247e-06
-3.4146e-06
-3.52876e-06
-3.64466e-06
-3.7621e-06
-1.526e-07
-2.20034e-07
-2.85878e-07
-3.51087e-07
-4.15856e-07
-4.80133e-07
-5.44e-07
-6.07649e-07
-6.71294e-07
-7.3515e-07
-7.99452e-07
-8.64467e-07
-9.30489e-07
-9.97842e-07
-1.06688e-06
-1.13797e-06
-1.21156e-06
-1.28809e-06
-1.36809e-06
-1.45212e-06
-1.54088e-06
-1.63489e-06
-1.73191e-06
-1.82822e-06
-1.92171e-06
-2.01198e-06
-2.09979e-06
-2.18621e-06
-2.27204e-06
-2.35785e-06
-2.44417e-06
-2.53148e-06
-2.62015e-06
-2.71053e-06
-2.80284e-06
-2.89727e-06
-2.99392e-06
-3.09285e-06
-3.19403e-06
-3.29741e-06
-3.40288e-06
-3.5103e-06
-3.61951e-06
-3.7303e-06
-3.84259e-06
-7.86456e-08
-1.52775e-07
-2.2541e-07
-2.97382e-07
-3.68861e-07
-4.39811e-07
-5.10316e-07
-5.80554e-07
-6.50715e-07
-7.20993e-07
-7.91602e-07
-8.62782e-07
-9.348e-07
-1.00795e-06
-1.08254e-06
-1.15894e-06
-1.23753e-06
-1.31875e-06
-1.40309e-06
-1.49108e-06
-1.58342e-06
-1.68053e-06
-1.78046e-06
-1.87991e-06
-1.97673e-06
-2.07037e-06
-2.16152e-06
-2.25114e-06
-2.33992e-06
-2.42833e-06
-2.51684e-06
-2.60583e-06
-2.69567e-06
-2.78663e-06
-2.87897e-06
-2.97286e-06
-3.06845e-06
-3.16582e-06
-3.26501e-06
-3.36602e-06
-3.46881e-06
-3.5733e-06
-3.67942e-06
-3.78701e-06
-3.89606e-06
-2.70436e-08
-1.06789e-07
-1.85103e-07
-2.62663e-07
-3.39608e-07
-4.15923e-07
-4.91697e-07
-5.67089e-07
-6.42272e-07
-7.17421e-07
-7.92732e-07
-8.68423e-07
-9.44736e-07
-1.02194e-06
-1.10032e-06
-1.18022e-06
-1.26199e-06
-1.34604e-06
-1.43283e-06
-1.52287e-06
-1.6168e-06
-1.71496e-06
-1.81566e-06
-1.916e-06
-2.01391e-06
-2.10883e-06
-2.2014e-06
-2.29248e-06
-2.38265e-06
-2.47234e-06
-2.56193e-06
-2.6518e-06
-2.74224e-06
-2.83352e-06
-2.92587e-06
-3.01948e-06
-3.1145e-06
-3.21101e-06
-3.3091e-06
-3.4088e-06
-3.51011e-06
-3.61299e-06
-3.71739e-06
-3.82323e-06
-3.9305e-06
7.93249e-09
-7.64806e-08
-1.59481e-07
-2.416e-07
-3.22948e-07
-4.03531e-07
-4.83439e-07
-5.62817e-07
-6.41821e-07
-7.20612e-07
-7.99369e-07
-8.78294e-07
-9.5761e-07
-1.03756e-06
-1.11842e-06
-1.2005e-06
-1.28412e-06
-1.36967e-06
-1.45757e-06
-1.54831e-06
-1.64247e-06
-1.74034e-06
-1.84042e-06
-1.9402e-06
-2.03778e-06
-2.13265e-06
-2.22542e-06
-2.31686e-06
-2.40746e-06
-2.49759e-06
-2.58762e-06
-2.67784e-06
-2.76856e-06
-2.86001e-06
-2.95241e-06
-3.04593e-06
-3.14072e-06
-3.23689e-06
-3.33452e-06
-3.43366e-06
-3.53433e-06
-3.63653e-06
-3.74023e-06
-3.84537e-06
-3.95196e-06
3.09019e-08
-5.73769e-08
-1.4422e-07
-2.30036e-07
-3.14912e-07
-3.9887e-07
-4.82003e-07
-5.64442e-07
-6.4633e-07
-7.27815e-07
-8.09065e-07
-8.90267e-07
-9.71628e-07
-1.05338e-06
-1.13576e-06
-1.21907e-06
-1.30362e-06
-1.38975e-06
-1.47788e-06
-1.56842e-06
-1.66196e-06
-1.75868e-06
-1.85732e-06
-1.95567e-06
-2.05207e-06
-2.14612e-06
-2.23837e-06
-2.3295e-06
-2.41994e-06
-2.51002e-06
-2.60006e-06
-2.69035e-06
-2.78115e-06
-2.87269e-06
-2.96515e-06
-3.05872e-06
-3.15352e-06
-3.24968e-06
-3.34728e-06
-3.44638e-06
-3.54701e-06
-3.64917e-06
-3.75287e-06
-3.85804e-06
-3.96471e-06
4.54271e-08
-4.60548e-08
-1.36047e-07
-2.24858e-07
-3.12559e-07
-3.99186e-07
-4.84832e-07
-5.69618e-07
-6.53675e-07
-7.37143e-07
-8.2018e-07
-9.02961e-07
-9.85679e-07
-1.06855e-06
-1.1518e-06
-1.23571e-06
-1.32056e-06
-1.40669e-06
-1.49445e-06
-1.58426e-06
-1.67664e-06
-1.77176e-06
-1.8685e-06
-1.96498e-06
-2.05976e-06
-2.15255e-06
-2.24389e-06
-2.33434e-06
-2.42428e-06
-2.51401e-06
-2.60383e-06
-2.69401e-06
-2.78477e-06
-2.87633e-06
-2.96888e-06
-3.06257e-06
-3.15754e-06
-3.2539e-06
-3.35175e-06
-3.45113e-06
-3.55209e-06
-3.65465e-06
-3.75879e-06
-3.8645e-06
-3.97176e-06
5.41587e-08
-3.9989e-08
-1.3257e-07
-2.23819e-07
-3.13793e-07
-4.02541e-07
-4.90155e-07
-5.76747e-07
-6.6244e-07
-7.47368e-07
-8.31681e-07
-9.15543e-07
-9.99137e-07
-1.08267e-06
-1.16635e-06
-1.25044e-06
-1.3352e-06
-1.42094e-06
-1.50801e-06
-1.59678e-06
-1.68774e-06
-1.78102e-06
-1.87566e-06
-1.97009e-06
-2.06306e-06
-2.15441e-06
-2.24464e-06
-2.33422e-06
-2.42348e-06
-2.51271e-06
-2.60218e-06
-2.69213e-06
-2.78279e-06
-2.87434e-06
-2.96697e-06
-3.06083e-06
-3.15605e-06
-3.25274e-06
-3.35098e-06
-3.45085e-06
-3.55237e-06
-3.65557e-06
-3.76045e-06
-3.86697e-06
-3.97515e-06
5.90054e-08
-3.73768e-08
-1.32103e-07
-2.2535e-07
-3.1717e-07
-4.07619e-07
-4.96789e-07
-5.84784e-07
-6.71723e-07
-7.57733e-07
-8.42959e-07
-9.27556e-07
-1.0117e-06
-1.09558e-06
-1.17941e-06
-1.26341e-06
-1.34785e-06
-1.43301e-06
-1.5192e-06
-1.60678e-06
-1.6962e-06
-1.78758e-06
-1.8801e-06
-1.97244e-06
-2.06358e-06
-2.15346e-06
-2.24251e-06
-2.33114e-06
-2.41965e-06
-2.5083e-06
-2.59735e-06
-2.68703e-06
-2.77753e-06
-2.86905e-06
-2.96176e-06
-3.0558e-06
-3.1513e-06
-3.24837e-06
-3.34709e-06
-3.44753e-06
-3.54972e-06
-3.6537e-06
-3.75946e-06
-3.86697e-06
-3.97623e-06
6.13034e-08
-3.69684e-08
-1.33488e-07
-2.28391e-07
-3.21728e-07
-4.13559e-07
-5.03975e-07
-5.93077e-07
-6.80977e-07
-7.678e-07
-8.53683e-07
-9.38779e-07
-1.02325e-06
-1.10729e-06
-1.19108e-06
-1.27485e-06
-1.35883e-06
-1.4433e-06
-1.52855e-06
-1.6149e-06
-1.70278e-06
-1.79228e-06
-1.88274e-06
-1.97308e-06
-2.06246e-06
-2.15089e-06
-2.23877e-06
-2.32645e-06
-2.41419e-06
-2.50225e-06
-2.59085e-06
-2.68022e-06
-2.77054e-06
-2.86201e-06
-2.95478e-06
-3.04899e-06
-3.14478e-06
-3.24224e-06
-3.34146e-06
-3.4425e-06
-3.54542e-06
-3.65022e-06
-3.75691e-06
-3.86547e-06
-3.97588e-06
6.19659e-08
-3.79189e-08
-1.35954e-07
-2.32246e-07
-3.26845e-07
-4.19815e-07
-5.11245e-07
-6.01232e-07
-6.89887e-07
-7.7733e-07
-8.63696e-07
-9.4913e-07
-1.03379e-06
-1.11786e-06
-1.20151e-06
-1.28496e-06
-1.36844e-06
-1.45219e-06
-1.53648e-06
-1.62162e-06
-1.708e-06
-1.79571e-06
-1.88423e-06
-1.97269e-06
-2.06043e-06
-2.14751e-06
-2.23427e-06
-2.32102e-06
-2.40801e-06
-2.49548e-06
-2.58363e-06
-2.67268e-06
-2.76282e-06
-2.85422e-06
-2.94703e-06
-3.0414e-06
-3.13745e-06
-3.23529e-06
-3.33499e-06
-3.43664e-06
-3.54026e-06
-3.64588e-06
-3.7535e-06
-3.8631e-06
-3.97465e-06
6.16054e-08
-3.96687e-08
-1.38998e-07
-2.36468e-07
-3.3213e-07
-4.26052e-07
-5.1832e-07
-6.09029e-07
-6.98287e-07
-7.86213e-07
-8.72938e-07
-9.58602e-07
-1.04336e-06
-1.12738e-06
-1.21084e-06
-1.29394e-06
-1.37689e-06
-1.45993e-06
-1.5433e-06
-1.62728e-06
-1.71225e-06
-1.79829e-06
-1.88501e-06
-1.97175e-06
-2.05798e-06
-2.1438e-06
-2.22952e-06
-2.31541e-06
-2.40168e-06
-2.48858e-06
-2.5763e-06
-2.66503e-06
-2.75498e-06
-2.84629e-06
-2.93913e-06
-3.03363e-06
-3.12992e-06
-3.2281e-06
-3.32826e-06
-3.43047e-06
-3.53476e-06
-3.64116e-06
-3.74967e-06
-3.86026e-06
-3.97291e-06
6.06269e-08
-4.18532e-08
-1.42297e-07
-2.40778e-07
-3.37347e-07
-4.32074e-07
-5.25043e-07
-6.16349e-07
-7.06099e-07
-7.94408e-07
-8.81404e-07
-9.67226e-07
-1.05202e-06
-1.13596e-06
-1.2192e-06
-1.30194e-06
-1.38437e-06
-1.46672e-06
-1.54923e-06
-1.63213e-06
-1.71579e-06
-1.80029e-06
-1.88536e-06
-1.97054e-06
-2.0554e-06
-2.14008e-06
-2.22484e-06
-2.30991e-06
-2.39553e-06
-2.48189e-06
-2.56919e-06
-2.65763e-06
-2.74737e-06
-2.83859e-06
-2.93144e-06
-3.02605e-06
-3.12255e-06
-3.22104e-06
-3.32161e-06
-3.42433e-06
-3.52924e-06
-3.63636e-06
-3.7457e-06
-3.85722e-06
-3.97089e-06
5.92959e-08
-4.42376e-08
-1.4565e-07
-2.45004e-07
-3.42353e-07
-4.37768e-07
-5.31332e-07
-6.23139e-07
-7.13294e-07
-8.01912e-07
-8.89118e-07
-9.75049e-07
-1.05985e-06
-1.14367e-06
-1.22669e-06
-1.30908e-06
-1.39102e-06
-1.47274e-06
-1.55444e-06
-1.63635e-06
-1.71881e-06
-1.8019e-06
-1.88546e-06
-1.96923e-06
-2.05287e-06
-2.1365e-06
-2.22039e-06
-2.30473e-06
-2.38973e-06
-2.47559e-06
-2.56251e-06
-2.65066e-06
-2.74021e-06
-2.83133e-06
-2.92417e-06
-3.01887e-06
-3.11555e-06
-3.21431e-06
-3.31525e-06
-3.41842e-06
-3.52389e-06
-3.63167e-06
-3.74176e-06
-3.85413e-06
-3.96874e-06
5.7786e-08
-4.66712e-08
-1.48927e-07
-2.49041e-07
-3.47066e-07
-4.43073e-07
-5.37146e-07
-6.29377e-07
-7.19871e-07
-8.08742e-07
-8.96113e-07
-9.82117e-07
-1.0669e-06
-1.1506e-06
-1.2334e-06
-1.31545e-06
-1.39694e-06
-1.47807e-06
-1.55904e-06
-1.64005e-06
-1.72142e-06
-1.80323e-06
-1.88543e-06
-1.96793e-06
-2.05047e-06
-2.13317e-06
-2.21626e-06
-2.29993e-06
-2.38438e-06
-2.46979e-06
-2.55634e-06
-2.64422e-06
-2.73359e-06
-2.82461e-06
-2.91743e-06
-3.01219e-06
-3.10902e-06
-3.20802e-06
-3.30927e-06
-3.41286e-06
-3.51882e-06
-3.62719e-06
-3.73796e-06
-3.8511e-06
-3.96657e-06
5.62037e-08
-4.90655e-08
-1.52061e-07
-2.52837e-07
-3.5145e-07
-4.4797e-07
-5.4248e-07
-6.35073e-07
-7.25853e-07
-8.14933e-07
-9.02435e-07
-9.8849e-07
-1.07324e-06
-1.15682e-06
-1.23941e-06
-1.32115e-06
-1.40222e-06
-1.48281e-06
-1.56311e-06
-1.64331e-06
-1.7237e-06
-1.80435e-06
-1.88533e-06
-1.9667e-06
-2.04826e-06
-2.13012e-06
-2.2125e-06
-2.29557e-06
-2.3795e-06
-2.4645e-06
-2.55072e-06
-2.63834e-06
-2.72754e-06
-2.81846e-06
-2.91125e-06
-3.00606e-06
-3.10301e-06
-3.20221e-06
-3.30374e-06
-3.40768e-06
-3.51409e-06
-3.62298e-06
-3.73435e-06
-3.84818e-06
-3.96442e-06
5.45913e-08
-5.14025e-08
-1.55054e-07
-2.56417e-07
-3.55549e-07
-4.52521e-07
-5.47413e-07
-6.40321e-07
-7.31347e-07
-8.20603e-07
-9.0821e-07
-9.94298e-07
-1.079e-06
-1.16247e-06
-1.24485e-06
-1.32631e-06
-1.40699e-06
-1.48709e-06
-1.56678e-06
-1.64624e-06
-1.72574e-06
-1.80534e-06
-1.8852e-06
-1.96554e-06
-2.04621e-06
-2.12732e-06
-2.20905e-06
-2.29157e-06
-2.37504e-06