/*--------------------------------*- C++ -*----------------------------------*\
| =========                 |                                                 |
| \\      /  F ield         | OpenFOAM: The Open Source CFD Toolbox           |
|  \\    /   O peration     | Version:  2312                                  |
|   \\  /    A nd           | Website:  www.openfoam.com                      |
|    \\/     M anipulation  |                                                 |
\*---------------------------------------------------------------------------*/
FoamFile
{
    version     2.0;
    format      ascii;
    arch        "LSB;label=32;scalar=64";
    class       surfaceScalarField;
    location    "405";
    object      phi;
}
// * * * * * * * * * * * * * * * * * * * * * * * * * * * * * * * * * * * * * //

dimensions      [0 3 -1 0 0 0 0];

oriented        oriented;

internalField   nonuniform List<scalar> 
9445
(
1.80573e-10
2.92886e-12
1.79152e-10
1.4215e-12
1.7866e-10
4.9115e-13
1.78834e-10
-1.73721e-13
1.79516e-10
-6.81708e-13
1.8062e-10
-1.10459e-12
1.82119e-10
-1.49853e-12
1.84039e-10
-1.91984e-12
1.86503e-10
-2.46459e-12
1.89864e-10
-3.36104e-12
1.95077e-10
-5.21266e-12
2.047e-10
-9.62256e-12
2.24615e-10
-1.99158e-11
2.6941e-10
-4.47944e-11
-1.19643e-10
3.89053e-10
6.32035e-10
1.32848e-11
6.26836e-10
6.6197e-12
6.24847e-10
2.48064e-12
6.25121e-10
-4.48313e-13
6.27119e-10
-2.67894e-12
6.3054e-10
-4.52595e-12
6.35281e-10
-6.23955e-12
6.41432e-10
-8.07087e-12
6.49387e-10
-1.04199e-11
6.60145e-10
-1.41187e-11
6.75907e-10
-2.0975e-11
7.00924e-10
-3.46387e-11
7.42184e-10
-6.11758e-11
8.07465e-10
-1.10076e-10
-1.91668e-10
8.7949e-10
1.25046e-09
3.39237e-11
1.23985e-09
1.72312e-11
1.23549e-09
6.83952e-12
1.2355e-09
-4.58508e-13
1.23881e-09
-5.99117e-12
1.24483e-09
-1.05438e-11
1.25333e-09
-1.47339e-11
1.26442e-09
-1.9166e-11
1.27872e-09
-2.47235e-11
1.29762e-09
-3.30187e-11
1.32363e-09
-4.69762e-11
1.36017e-09
-7.11837e-11
1.40984e-09
-1.10842e-10
1.46814e-09
-1.68373e-10
-2.36403e-10
1.51287e-09
2.08327e-09
6.84596e-11
2.06506e-09
3.54408e-11
2.05707e-09
1.48326e-11
2.05615e-09
4.60538e-13
2.06052e-09
-1.03675e-11
2.06918e-09
-1.92014e-11
2.08167e-09
-2.72243e-11
2.09804e-09
-3.55356e-11
2.11888e-09
-4.55676e-11
2.14543e-09
-5.95614e-11
2.1793e-09
-8.08511e-11
2.2214e-09
-1.13286e-10
2.26938e-09
-1.58815e-10
2.31449e-09
-2.13483e-10
-2.64445e-10
2.34253e-09
3.18916e-09
1.21364e-10
3.16052e-09
6.40843e-11
3.14712e-09
2.82304e-11
3.14419e-09
3.39262e-12
3.14899e-09
-1.51753e-11
3.15995e-09
-3.01532e-11
3.17622e-09
-4.34981e-11
3.19758e-09
-5.68991e-11
3.22427e-09
-7.22566e-11
3.25675e-09
-9.20357e-11
3.29501e-09
-1.19111e-10
3.33725e-09
-1.55535e-10
3.37851e-09
-2.00067e-10
3.41095e-09
-2.45925e-10
-2.81598e-10
3.4281e-09
4.64e-09
1.97867e-10
4.59739e-09
1.06691e-10
4.57622e-09
4.94032e-11
4.56965e-09
9.96278e-12
4.57372e-09
-1.92544e-11
4.58606e-09
-4.24921e-11
4.60526e-09
-6.26925e-11
4.63054e-09
-8.21763e-11
4.66142e-09
-1.03137e-10
4.69721e-09
-1.27827e-10
4.7362e-09
-1.58109e-10
4.77487e-09
-1.94204e-10
4.80791e-09
-2.33104e-10
4.8302e-09
-2.68217e-10
-2.91645e-10
4.84025e-09
6.52238e-09
3.03592e-10
6.46171e-09
1.67361e-10
6.42978e-09
8.13323e-11
6.41733e-09
2.24169e-11
6.41887e-09
-2.07936e-11
6.43098e-09
-5.46008e-11
6.45143e-09
-8.31458e-11
6.47866e-09
-1.09403e-10
6.51122e-09
-1.35704e-10
6.54725e-09
-1.63848e-10
6.58381e-09
-1.94673e-10
6.61686e-09
-2.27254e-10
6.64213e-09
-2.5837e-10
6.65708e-09
-2.83171e-10
-2.97235e-10
6.66267e-09
8.93848e-09
4.43567e-10
8.85555e-09
2.50295e-10
8.80946e-09
1.27413e-10
8.78831e-09
4.35693e-11
8.78483e-09
-1.73078e-11
8.79432e-09
-6.4096e-11
8.81354e-09
-1.02365e-10
8.83994e-09
-1.35801e-10
8.87109e-09
-1.66858e-10
8.9042e-09
-1.96956e-10
8.93586e-09
-2.2633e-10
8.96242e-09
-2.53811e-10
8.98104e-09
-2.76994e-10
8.99096e-09
-2.93092e-10
-3.00221e-10
8.99395e-09
1.20052e-08
6.20341e-10
1.18968e-08
3.5872e-10
1.18333e-08
1.90857e-10
1.18004e-08
7.6469e-11
1.1789e-08
-5.83168e-12
1.17928e-08
-6.79695e-11
1.18077e-08
-1.17192e-10
1.18299e-08
-1.58043e-10
1.18563e-08
-1.93267e-10
1.18836e-08
-2.24253e-10
1.19085e-08
-2.51239e-10
1.19282e-08
-2.73535e-10
1.19412e-08
-2.89949e-10
1.19475e-08
-2.99443e-10
-3.01726e-10
1.1949e-08
1.58506e-08
8.30857e-10
1.57164e-08
4.92914e-10
1.56339e-08
2.73433e-10
1.55868e-08
1.23578e-10
1.55644e-08
1.65003e-11
1.55595e-08
-6.30582e-11
1.55666e-08
-1.24257e-10
1.55812e-08
-1.7272e-10
1.55998e-08
-2.11801e-10
1.56188e-08
-2.43317e-10
1.56357e-08
-2.68048e-10
1.56483e-08
-2.86168e-10
1.5656e-08
-2.97679e-10
1.56594e-08
-3.02789e-10
-3.02112e-10
1.56598e-08
2.06069e-08
1.06243e-09
2.04525e-08
6.47303e-10
2.03526e-08
3.73406e-10
2.02909e-08
1.85284e-10
2.0256e-08
5.13203e-11
2.024e-08
-4.6978e-11
2.02365e-08
-1.20797e-10
2.02409e-08
-1.77065e-10
2.02491e-08
-2.20075e-10
2.02583e-08
-2.52464e-10
2.02661e-08
-2.75879e-10
2.02714e-08
-2.91453e-10
2.02739e-08
-3.00161e-10
2.02741e-08
-3.03015e-10
-3.01099e-10
2.02731e-08
2.64004e-08
1.28969e-09
2.62403e-08
8.0747e-10
2.61307e-08
4.83007e-10
2.60581e-08
2.57848e-10
2.60121e-08
9.73468e-11
2.59846e-08
-1.95397e-11
2.59697e-08
-1.05859e-10
2.59625e-08
-1.69918e-10
2.59596e-08
-2.17139e-10
2.59583e-08
-2.51168e-10
2.5957e-08
-2.74596e-10
2.5955e-08
-2.89419e-10
2.59522e-08
-2.9732e-10
2.59489e-08
-2.99796e-10
-2.98148e-10
2.5946e-08
3.3344e-08
1.47666e-09
3.32018e-08
9.49694e-10
3.30978e-08
5.87001e-10
3.30239e-08
3.31725e-10
3.29726e-08
1.48733e-10
3.29373e-08
1.5737e-11
3.2913e-08
-8.16109e-11
3.28959e-08
-1.5279e-10
3.2883e-08
-2.04274e-10
3.28725e-08
-2.40653e-10
3.28633e-08
-2.65331e-10
3.28548e-08
-2.80957e-10
3.28472e-08
-2.89675e-10
3.28406e-08
-2.93248e-10
-2.93065e-10
3.28355e-08
4.15423e-08
1.58887e-09
4.14449e-08
1.04704e-09
4.13665e-08
6.65435e-10
4.13057e-08
3.92501e-10
4.12594e-08
1.95088e-10
4.12239e-08
5.12076e-11
4.11962e-08
-5.39088e-11
4.11738e-08
-1.30409e-10
4.1155e-08
-1.85473e-10
4.11387e-08
-2.24342e-10
4.11243e-08
-2.50957e-10
4.11117e-08
-2.6836e-10
4.1101e-08
-2.78936e-10
4.10923e-08
-2.84555e-10
-2.86617e-10
4.10858e-08
5.11141e-08
1.61235e-09
5.10781e-08
1.08299e-09
5.10408e-08
7.02798e-10
5.10064e-08
4.26873e-10
5.09761e-08
2.25345e-10
5.09497e-08
7.76457e-11
5.09264e-08
-3.05786e-11
5.09055e-08
-1.09528e-10
5.08866e-08
-1.66611e-10
5.08696e-08
-2.07322e-10
5.08545e-08
-2.35809e-10
5.08413e-08
-2.55238e-10
5.08304e-08
-2.68043e-10
5.0822e-08
-2.76084e-10
-2.80708e-10
5.08161e-08
6.22098e-08
1.56274e-09
6.22299e-08
1.06291e-09
6.22339e-08
6.98797e-10
6.2229e-08
4.31692e-10
6.22193e-08
2.35031e-10
6.2207e-08
9.00266e-11
6.21932e-08
-1.67949e-11
6.21789e-08
-9.52286e-11
6.21648e-08
-1.52501e-10
6.21515e-08
-1.94012e-10
6.21395e-08
-2.23831e-10
6.21293e-08
-2.45041e-10
6.21212e-08
-2.59977e-10
6.21155e-08
-2.704e-10
-2.77559e-10
6.21124e-08
7.49612e-08
1.46992e-09
7.50159e-08
1.0082e-09
7.50466e-08
6.68107e-10
7.50617e-08
4.16576e-10
7.50666e-08
2.3012e-10
7.50649e-08
9.17554e-11
7.5059e-08
-1.09161e-11
7.50508e-08
-8.70292e-11
7.50417e-08
-1.43374e-10
7.50327e-08
-1.85031e-10
7.50247e-08
-2.15819e-10
7.50182e-08
-2.3861e-10
7.50138e-08
-2.55559e-10
7.50117e-08
-2.6828e-10
-2.77899e-10
7.5012e-08
8.93315e-08
1.35312e-09
8.94033e-08
9.36468e-10
8.94455e-08
6.25913e-10
8.9468e-08
3.9407e-10
8.94774e-08
2.20697e-10
8.94783e-08
9.08375e-11
8.9474e-08
-6.59351e-12
8.94668e-08
-7.98431e-11
8.94585e-08
-1.35074e-10
8.94504e-08
-1.76902e-10
8.94433e-08
-2.08787e-10
8.94381e-08
-2.33324e-10
8.94349e-08
-2.52451e-10
8.94343e-08
-2.67613e-10
-2.79807e-10
8.94362e-08
1.0492e-07
1.21391e-09
1.05006e-07
8.50784e-10
1.05055e-07
5.76185e-10
1.05081e-07
3.68512e-10
1.05091e-07
2.11143e-10
1.0509e-07
9.15443e-11
1.05083e-07
2.93073e-13
1.05073e-07
-6.96931e-11
1.05062e-07
-1.23739e-10
1.0505e-07
-1.65853e-10
1.05041e-07
-1.99047e-10
1.05033e-07
-2.25576e-10
1.05028e-07
-2.47128e-10
1.05025e-07
-2.64965e-10
-2.79941e-10
1.05025e-07
1.20777e-07
1.04715e-09
1.20881e-07
7.46177e-10
1.20943e-07
5.14586e-10
1.20975e-07
3.36391e-10
1.20987e-07
1.98848e-10
1.20987e-07
9.21799e-11
1.20978e-07
8.93701e-12
1.20965e-07
-5.65602e-11
1.2095e-07
-1.08628e-10
1.20934e-07
-1.50533e-10
1.2092e-07
-1.84737e-10
1.20908e-07
-2.13097e-10
1.20898e-07
-2.37004e-10
1.2089e-07
-2.57504e-10
-2.75299e-10
1.20885e-07
1.19803e-07
8.74507e-10
1.19914e-07
6.34723e-10
1.19982e-07
4.46614e-10
1.2002e-07
2.98946e-10
1.20036e-07
1.82486e-10
1.20038e-07
9.00328e-11
1.20031e-07
1.60245e-11
1.20018e-07
-4.384e-11
1.20003e-07
-9.28691e-11
1.19986e-07
-1.33587e-10
1.19969e-07
-1.67908e-10
1.19953e-07
-1.97284e-10
1.19939e-07
-2.2281e-10
1.19927e-07
-2.45316e-10
-2.65367e-10
1.19917e-07
1.02413e-07
7.20625e-10
1.02516e-07
5.31794e-10
1.02582e-07
3.80842e-10
1.02621e-07
2.59933e-10
1.02641e-07
1.62505e-10
1.02648e-07
8.33694e-11
1.02645e-07
1.84562e-11
1.02637e-07
-3.54159e-11
1.02625e-07
-8.07141e-11
1.02611e-07
-1.19337e-10
1.02595e-07
-1.52739e-10
1.0258e-07
-1.82027e-10
1.02565e-07
-2.08043e-10
1.02551e-07
-2.31427e-10
-2.52623e-10
1.02539e-07
8.57847e-08
5.85285e-10
8.58787e-08
4.37848e-10
8.59417e-08
3.17818e-10
8.59819e-08
2.19749e-10
8.60053e-08
1.39059e-10
8.60166e-08
7.20812e-11
8.60192e-08
1.58895e-11
8.60156e-08
-3.18289e-11
8.60078e-08
-7.28793e-11
8.59971e-08
-1.08659e-10
8.59846e-08
-1.40242e-10
8.5971e-08
-1.68454e-10
8.59569e-08
-1.93925e-10
8.59426e-08
-2.17133e-10
-2.38413e-10
8.59284e-08
7.07203e-08
4.67393e-10
7.0805e-08
3.53201e-10
7.08642e-08
2.58564e-10
7.09043e-08
1.79724e-10
7.09298e-08
1.13546e-10
7.09444e-08
5.7488e-11
7.09508e-08
9.48487e-12
7.09511e-08
-3.2115e-11
7.09468e-08
-6.86064e-11
7.09391e-08
-1.00994e-10
7.09289e-08
-1.30053e-10
7.09169e-08
-1.56383e-10
7.09034e-08
-1.80439e-10
7.08888e-08
-2.02569e-10
-2.23015e-10
7.08734e-08
5.75464e-08
3.65827e-10
5.76214e-08
2.78199e-10
5.76757e-08
2.04288e-10
5.77139e-08
1.41529e-10
5.77396e-08
8.78369e-11
5.77556e-08
4.14955e-11
5.7764e-08
1.07488e-12
5.77664e-08
-3.45801e-11
5.77642e-08
-6.6376e-11
5.77582e-08
-9.50159e-11
5.77492e-08
-1.21045e-10
5.77377e-08
-1.44883e-10
5.77241e-08
-1.66851e-10
5.77087e-08
-1.8719e-10
-2.06067e-10
5.76918e-08
4.63059e-08
2.79899e-10
4.63707e-08
2.13403e-10
4.64186e-08
1.56315e-10
4.64532e-08
1.06923e-10
4.64772e-08
6.39003e-11
4.64926e-08
2.61244e-11
4.6501e-08
-7.37066e-12
4.65038e-08
-3.73724e-11
4.65019e-08
-6.44955e-11
4.64961e-08
-8.92174e-11
4.6487e-08
-1.11909e-10
4.64749e-08
-1.32854e-10
4.64604e-08
-1.5227e-10
4.64435e-08
-1.70317e-10
-1.87104e-10
4.64245e-08
3.68858e-08
2.09046e-10
3.69399e-08
1.59238e-10
3.69805e-08
1.157e-10
3.70101e-08
7.73264e-11
3.70307e-08
4.33317e-11
3.70438e-08
1.30155e-11
3.70507e-08
-1.42563e-11
3.70523e-08
-3.90033e-11
3.70495e-08
-6.16276e-11
3.70427e-08
-8.24416e-11
3.70325e-08
-1.01687e-10
3.70192e-08
-1.1955e-10
3.70031e-08
-1.36171e-10
3.69844e-08
-1.5165e-10
-1.66055e-10
3.69633e-08
2.90985e-08
1.52359e-10
2.91421e-08
1.15594e-10
2.9175e-08
8.28472e-11
2.91989e-08
5.34555e-11
2.92152e-08
2.70075e-11
2.92251e-08
3.09219e-12
2.92295e-08
-1.86922e-11
2.92292e-08
-3.86749e-11
2.92247e-08
-5.71082e-11
2.92164e-08
-7.41878e-11
2.92048e-08
-9.00653e-11
2.91901e-08
-1.04855e-10
2.91726e-08
-1.18645e-10
2.91524e-08
-1.31494e-10
-1.43441e-10
2.91298e-08
2.27316e-08
1.08399e-10
2.27655e-08
8.16885e-11
2.27909e-08
5.74275e-11
2.28091e-08
3.52638e-11
2.28211e-08
1.50372e-11
2.28277e-08
-3.47552e-12
2.28295e-08
-2.0519e-11
2.28271e-08
-3.62918e-11
2.28209e-08
-5.09445e-11
2.28114e-08
-6.45941e-11
2.27986e-08
-7.73304e-11
2.2783e-08
-8.92208e-11
2.27647e-08
-1.00315e-10
2.27438e-08
-1.10649e-10
-1.20239e-10
2.27206e-08
1.75751e-08
7.53023e-11
1.76005e-08
5.62293e-11
1.76194e-08
3.85501e-11
1.76325e-08
2.21274e-11
1.76406e-08
6.95563e-12
1.76442e-08
-7.07529e-12
1.76438e-08
-2.0108e-11
1.76398e-08
-3.22553e-11
1.76324e-08
-4.36022e-11
1.7622e-08
-5.42143e-11
1.76089e-08
-6.41414e-11
1.75931e-08
-7.34201e-11
1.75748e-08
-8.20772e-11
1.75543e-08
-9.01307e-11
-9.75889e-11
1.75316e-08
1.34346e-08
5.10457e-11
1.34531e-08
3.76866e-11
1.34666e-08
2.50452e-11
1.34756e-08
1.31233e-11
1.34806e-08
1.99705e-12
1.34819e-08
-8.3827e-12
1.34799e-08
-1.80951e-11
1.34748e-08
-2.71998e-11
1.3467e-08
-3.5741e-11
1.34565e-08
-4.37527e-11
1.34436e-08
-5.12596e-11
1.34285e-08
-5.82796e-11
1.34112e-08
-6.48252e-11
1.3392e-08
-7.09048e-11
-7.65211e-11
1.33709e-08
1.01371e-08
3.36942e-11
1.01503e-08
2.45451e-11
1.01596e-08
1.57102e-11
1.01655e-08
7.26961e-12
1.01681e-08
-6.71753e-13
1.01679e-08
-8.13455e-12
1.0165e-08
-1.51601e-11
1.01595e-08
-2.17767e-11
1.01518e-08
-2.8005e-11
1.01419e-08
-3.38599e-11
1.013e-08
-3.93518e-11
1.01162e-08
-4.44875e-11
1.01007e-08
-4.92716e-11
1.00835e-08
-5.3707e-11
-5.77944e-11
1.00647e-08
7.53224e-09
2.1559e-11
7.54132e-09
1.54639e-11
7.54756e-09
9.46645e-12
7.55115e-09
3.67698e-12
7.55229e-09
-1.80381e-12
7.55114e-09
-6.98623e-12
7.54787e-09
-1.18898e-11
7.54262e-09
-1.65258e-11
7.53551e-09
-2.09016e-11
7.52667e-09
-2.50221e-11
7.51621e-09
-2.88895e-11
7.50423e-09
-3.25052e-11
7.49083e-09
-3.58696e-11
7.4761e-09
-3.89828e-11
-4.18447e-11
7.46015e-09
5.49119e-09
1.32616e-11
5.49731e-09
9.34412e-12
5.50135e-09
5.42791e-12
5.50341e-09
1.61886e-12
5.50361e-09
-2.00364e-12
5.50207e-09
-5.4474e-12
5.4989e-09
-8.71996e-12
5.4942e-09
-1.18241e-11
5.48806e-09
-1.47606e-11
5.48057e-09
-1.75294e-11
5.47181e-09
-2.01293e-11
5.46186e-09
-2.2559e-11
5.45081e-09
-2.48171e-11
5.43873e-09
-2.69024e-11
-2.88148e-11
5.4257e-09
3.90554e-09
7.73071e-12
3.90955e-09
5.33359e-12
3.91207e-09
2.91146e-12
3.91314e-09
5.44518e-13
3.91285e-09
-1.7142e-12
3.91128e-09
-3.87188e-12
3.90849e-09
-5.93007e-12
3.90455e-09
-7.8879e-12
3.89953e-09
-9.74367e-12
3.8935e-09
-1.14953e-11
3.88651e-09
-1.31405e-11
3.87863e-09
-1.46773e-11
3.86991e-09
-1.61039e-11
3.86043e-09
-1.74186e-11
-1.86211e-11
3.85024e-09
2.68486e-09
4.16266e-12
2.6874e-09
2.79717e-12
2.6889e-09
1.41469e-12
2.68938e-09
6.10905e-14
2.6889e-09
-1.23418e-12
2.6875e-09
-2.47718e-12
2.68524e-09
-3.66696e-12
2.68216e-09
-4.80167e-12
2.67829e-09
-5.87911e-12
2.67369e-09
-6.89706e-12
2.66841e-09
-7.85329e-12
2.66247e-09
-8.74611e-12
2.65594e-09
-9.57403e-12
2.64886e-09
-1.03353e-11
-1.10291e-11
2.64127e-09
1.7546e-09
1.96992e-12
1.75612e-09
1.27518e-12
1.75695e-09
5.81763e-13
1.75711e-09
-9.66912e-14
1.75662e-09
-7.47818e-13
1.75552e-09
-1.37554e-12
1.75383e-09
-1.97842e-12
1.75159e-09
-2.55483e-12
1.74881e-09
-3.10305e-12
1.74554e-09
-3.62143e-12
1.74179e-09
-4.10844e-12
1.73761e-09
-4.56293e-12
1.73302e-09
-4.98396e-12
1.72805e-09
-5.37013e-12
-5.71986e-12
1.72274e-09
1.0538e-09
7.30325e-13
1.05463e-09
4.41803e-13
1.05504e-09
1.68224e-13
1.05504e-09
-9.8629e-14
1.05465e-09
-3.56021e-13
1.05388e-09
-6.05502e-13
1.05275e-09
-8.46014e-13
1.05127e-09
-1.07657e-12
1.04946e-09
-1.29619e-12
1.04735e-09
-1.504e-12
1.04494e-09
-1.69922e-12
1.04226e-09
-1.88125e-12
1.03932e-09
-2.04972e-12
1.03616e-09
-2.20367e-12
-2.34116e-12
1.03278e-09
5.3304e-10
1.43841e-13
5.33413e-10
6.91537e-14
5.33571e-10
1.02077e-14
5.3352e-10
-4.72659e-14
5.33267e-10
-1.03526e-13
5.3282e-10
-1.58616e-13
5.32186e-10
-2.12069e-13
5.31373e-10
-2.63494e-13
5.3039e-10
-3.12555e-13
5.29245e-10
-3.58972e-13
5.27948e-10
-4.02523e-13
5.2651e-10
-4.43026e-13
5.2494e-10
-4.80434e-13
5.23251e-10
-5.1435e-13
-5.4313e-13
5.21453e-10
1.52566e-10
1.52636e-10
1.52646e-10
1.52598e-10
1.52495e-10
1.52336e-10
1.52124e-10
1.51861e-10
1.51548e-10
1.51189e-10
1.50787e-10
1.50344e-10
1.49863e-10
1.49349e-10
1.48806e-10
4.67647e-10
-2.78796e-10
2.00202e-10
5.78742e-10
-2.98483e-10
1.87389e-10
6.95718e-10
-2.7594e-10
1.58963e-10
8.13439e-10
-2.41158e-10
1.23437e-10
9.3072e-10
-2.00491e-10
8.32103e-11
1.04775e-09
-1.57265e-10
4.0233e-11
1.16511e-09
-1.13048e-10
-4.31402e-12
1.28336e-09
-6.8996e-11
-4.92517e-11
1.40296e-09
-2.62696e-11
-9.33334e-11
1.52429e-09
1.38791e-11
-1.35207e-10
1.64762e-09
5.00788e-11
-1.73405e-10
1.77313e-09
8.08726e-11
-2.06383e-10
1.90094e-09
1.04804e-10
-2.32612e-10
2.0311e-09
1.20573e-10
-2.50738e-10
2.16366e-09
1.2727e-10
-2.59829e-10
2.29867e-09
1.24682e-10
-2.59697e-10
2.4363e-09
1.13602e-10
-2.51225e-10
2.57684e-09
9.5913e-11
-2.36458e-10
2.72082e-09
7.39816e-11
-2.17955e-10
2.86884e-09
4.81953e-11
-1.96216e-10
3.02114e-09
1.07078e-11
-1.63013e-10
3.17643e-09
-6.7664e-11
-8.76204e-11
3.30861e-09
-2.117e-10
7.95149e-11
3.409e-09
-4.07122e-10
3.06731e-10
3.47822e-09
-6.3587e-10
5.66649e-10
3.51717e-09
-8.68661e-10
8.29713e-10
3.52744e-09
-1.076e-09
1.06573e-09
3.51138e-09
-1.23411e-09
1.25017e-09
3.47185e-09
-1.32708e-09
1.36661e-09
3.41204e-09
-1.34704e-09
1.40685e-09
3.33515e-09
-1.29283e-09
1.36973e-09
3.24421e-09
-1.16826e-09
1.25919e-09
3.14201e-09
-9.80187e-10
1.0824e-09
3.03092e-09
-7.36946e-10
8.48032e-10
2.91289e-09
-4.47168e-10
5.65195e-10
2.78921e-09
-1.1946e-10
2.43138e-10
2.66018e-09
2.36952e-10
-1.07916e-10
2.52459e-09
6.10583e-10
-4.74996e-10
2.37938e-09
9.85527e-10
-8.40313e-10
2.21958e-09
1.33954e-09
-1.17974e-09
2.0392e-09
1.64308e-09
-1.4627e-09
1.83349e-09
1.85884e-09
-1.65313e-09
1.60305e-09
1.94017e-09
-1.70973e-09
1.36368e-09
1.82668e-09
-1.58731e-09
1.40248e-09
1.16124e-09
-1.20004e-09
9.18414e-10
-3.17719e-10
9.89476e-10
-3.69546e-10
1.08494e-09
-3.71408e-10
1.19363e-09
-3.49842e-10
1.30947e-09
-3.16329e-10
1.42958e-09
-2.77379e-10
1.5528e-09
-2.36269e-10
1.67873e-09
-1.94923e-10
1.80729e-09
-1.5483e-10
1.93853e-09
-1.17367e-10
2.07255e-09
-8.39349e-11
2.20939e-09
-5.5973e-11
2.3491e-09
-3.4905e-11
2.49168e-09
-2.20026e-11
2.63712e-09
-1.81678e-11
2.78545e-09
-2.36509e-11
2.93681e-09
-3.77559e-11
3.09149e-09
-5.87711e-11
3.25001e-09
-8.45331e-11
3.41297e-09
-1.14764e-10
3.58056e-09
-1.56882e-10
3.75129e-09
-2.384e-10
3.89664e-09
-3.57045e-10
4.00715e-09
-5.17634e-10
4.0836e-09
-7.12327e-10
4.12707e-09
-9.12124e-10
4.13937e-09
-1.0883e-09
4.12314e-09
-1.21788e-09
4.08164e-09
-1.28559e-09
4.01845e-09
-1.28385e-09
3.93721e-09
-1.21159e-09
3.84144e-09
-1.07249e-09
3.73443e-09
-8.73169e-10
3.61912e-09
-6.21638e-10
3.49813e-09
-3.26183e-10
3.37363e-09
5.04256e-12
3.24709e-09
3.63491e-10
3.11899e-09
7.38683e-10
2.9886e-09
1.11591e-09
2.85435e-09
1.4738e-09
2.71528e-09
1.78214e-09
2.57405e-09
2.00008e-09
2.44024e-09
2.07398e-09
2.32873e-09
1.93819e-09
1.52697e-09
2.20424e-09
1.53345e-09
-3.38295e-10
1.57468e-09
-4.1078e-10
1.64349e-09
-4.40221e-10
1.7341e-09
-4.40444e-10
1.83997e-09
-4.22201e-10
1.95628e-09
-3.93687e-10
2.08006e-09
-3.60054e-10
2.20965e-09
-3.24508e-10
2.34411e-09
-2.89297e-10
2.48296e-09
-2.56214e-10
2.6259e-09
-2.26877e-10
2.77276e-09
-2.0283e-10
2.92339e-09
-1.85538e-10
3.07768e-09
-1.76293e-10
3.23553e-09
-1.76021e-10
3.39691e-09
-1.8503e-10
3.5619e-09
-2.02739e-10
3.73075e-09
-2.2762e-10
3.90393e-09
-2.57721e-10
4.08204e-09
-2.9287e-10
4.26517e-09
-3.4001e-10
4.45161e-09
-4.24842e-10
4.61034e-09
-5.15779e-10
4.73116e-09
-6.38456e-10
4.815e-09
-7.96166e-10
4.86312e-09
-9.60236e-10
4.87759e-09
-1.10278e-09
4.86142e-09
-1.20171e-09
4.81826e-09
-1.24242e-09
4.75216e-09
-1.21775e-09
4.66728e-09
-1.12672e-09
4.56771e-09
-9.72918e-10
4.45731e-09
-7.62774e-10
4.33975e-09
-5.04073e-10
4.21846e-09
-2.04898e-10
4.09672e-09
1.2679e-10
3.9775e-09
4.82713e-10
3.86338e-09
8.528e-10
3.75648e-09
1.22281e-09
3.65882e-09
1.57146e-09
3.57328e-09
1.86768e-09
3.50445e-09
2.06891e-09
3.45608e-09
2.12234e-09
3.41844e-09
1.97583e-09
1.60831e-09
3.3371e-09
2.35311e-09
-3.48879e-10
2.37355e-09
-4.31214e-10
2.41684e-09
-4.83517e-10
2.48437e-09
-5.07972e-10
2.57281e-09
-5.10643e-10
2.67771e-09
-4.98584e-10
2.79528e-09
-4.77627e-10
2.92281e-09
-4.52037e-10
3.05847e-09
-4.24952e-10
3.20105e-09
-3.98794e-10
3.34975e-09
-3.75581e-10
3.50402e-09
-3.57102e-10
3.66345e-09
-3.44969e-10
3.82772e-09
-3.40561e-10
3.99658e-09
-3.44877e-10
4.16987e-09
-3.58318e-10
4.34757e-09
-3.80439e-10
4.52986e-09
-4.09915e-10
4.71715e-09
-4.45016e-10
4.90995e-09
-4.85667e-10
5.10823e-09
-5.38288e-10
5.31001e-09
-6.26622e-10
5.48184e-09
-6.8761e-10
5.61275e-09
-7.69371e-10
5.70383e-09
-8.87243e-10
5.75653e-09
-1.01293e-09
5.77323e-09
-1.11948e-09
5.7573e-09
-1.18578e-09
5.71286e-09
-1.19798e-09
5.64449e-09
-1.14937e-09
5.55693e-09
-1.03916e-09
5.45488e-09
-8.70877e-10
5.34294e-09
-6.50829e-10
5.22554e-09
-3.86675e-10
5.10711e-09
-8.64667e-11
4.99215e-09
2.41748e-10
4.88531e-09
5.89552e-10
4.79135e-09
9.46761e-10
4.71503e-09
1.29913e-09
4.66097e-09
1.62553e-09
4.63314e-09
1.89551e-09
4.63289e-09
2.06916e-09
4.65298e-09
2.10225e-09
4.66705e-09
1.96176e-09
1.65329e-09
4.62207e-09
3.43249e-09
-3.53269e-10
3.439e-09
-4.37723e-10
3.46076e-09
-5.05276e-10
3.50409e-09
-5.51303e-10
3.57003e-09
-5.76584e-10
3.6565e-09
-5.85057e-10
3.76041e-09
-5.81534e-10
3.8788e-09
-5.70424e-10
4.00925e-09
-5.55409e-10
4.14995e-09
-5.39492e-10
4.29954e-09
-5.25166e-10
4.457e-09
-5.14567e-10
4.62158e-09
-5.09544e-10
4.79266e-09
-5.11643e-10
4.96978e-09
-5.21996e-10
5.15259e-09
-5.41134e-10
5.34094e-09
-5.68787e-10
5.53487e-09
-6.03847e-10
5.73468e-09
-6.4482e-10
5.94073e-09
-6.91716e-10
6.15282e-09
-7.50377e-10
6.36863e-09
-8.42438e-10
6.55248e-09
-8.71462e-10
6.69267e-09
-9.09554e-10
6.79037e-09
-9.84947e-10
6.84726e-09
-1.06982e-09
6.86604e-09
-1.13826e-09
6.85047e-09
-1.17021e-09
6.80519e-09
-1.1527e-09
6.73533e-09
-1.07952e-09
6.64629e-09
-9.50114e-10
6.54347e-09
-7.68055e-10
6.43221e-09
-5.39574e-10
6.31785e-09
-2.72309e-10
6.20582e-09
2.55656e-11
6.10186e-09
3.45703e-10
6.01216e-09
6.79257e-10
5.94325e-09
1.01567e-09
5.90166e-09
1.34072e-09
5.89293e-09
1.63426e-09
5.91959e-09
1.86885e-09
5.9775e-09
2.01125e-09
6.0502e-09
2.02954e-09
6.1046e-09
1.90736e-09
1.66156e-09
6.09634e-09
4.84042e-09
-3.53435e-10
4.83799e-09
-4.35298e-10
4.8433e-09
-5.10581e-10
4.86448e-09
-5.72487e-10
4.90605e-09
-6.18151e-10
4.96908e-09
-6.48093e-10
5.05248e-09
-6.64926e-10
5.15414e-09
-6.72087e-10
5.2718e-09
-6.73073e-10
5.4034e-09
-6.71089e-10
5.5472e-09
-6.68961e-10
5.70177e-09
-6.69146e-10
5.866e-09
-6.73767e-10
6.03894e-09
-6.84584e-10
6.21985e-09
-7.02909e-10
6.40817e-09
-7.2945e-10
6.60352e-09
-7.64135e-10
6.80577e-09
-8.061e-10
7.01504e-09
-8.5409e-10
7.23151e-09
-9.08182e-10
7.45471e-09
-9.73585e-10
7.68194e-09
-1.06966e-09
7.87562e-09
-1.06515e-09
8.02337e-09
-1.0573e-09
8.12642e-09
-1.08799e-09
8.18662e-09
-1.13002e-09
8.20699e-09
-1.15863e-09
8.19173e-09
-1.15496e-09
8.14601e-09
-1.10697e-09
8.07557e-09
-1.00908e-09
7.98647e-09
-8.61016e-10
7.88486e-09
-6.66441e-10
7.77687e-09
-4.31585e-10
7.66869e-09
-1.64134e-10
7.56672e-09
1.27536e-10
7.47772e-09
4.34704e-10
7.40894e-09
7.48045e-10
7.36786e-09
1.05674e-09
7.36148e-09
1.3471e-09
7.39455e-09
1.60119e-09
7.46679e-09
1.79662e-09
7.56908e-09
1.90896e-09
7.68019e-09
1.91844e-09
7.76759e-09
1.81996e-09
1.63184e-09
7.7973e-09
6.66012e-09
-3.50889e-10
6.65242e-09
-4.27591e-10
6.64643e-09
-5.04599e-10
6.64971e-09
-5.75762e-10
6.66835e-09
-6.36796e-10
6.70607e-09
-6.85813e-10
6.76423e-09
-7.23087e-10
6.84253e-09
-7.50378e-10
6.93969e-09
-7.70233e-10
7.05407e-09
-7.85473e-10
7.18399e-09
-7.98877e-10
7.32787e-09
-8.13026e-10
7.48432e-09
-8.30225e-10
7.65216e-09
-8.52425e-10
7.83038e-09
-8.81121e-10
8.01814e-09
-9.17213e-10
8.21485e-09
-9.60847e-10
8.42016e-09
-1.01141e-09
8.63395e-09
-1.06788e-09
8.85613e-09
-1.13037e-09
9.08594e-09
-1.20339e-09
9.32015e-09
-1.30387e-09
9.51995e-09
-1.26495e-09
9.67235e-09
-1.20971e-09
9.77851e-09
-1.19415e-09
9.84043e-09
-1.19194e-09
9.86142e-09
-1.17962e-09
9.84613e-09
-1.13967e-09
9.80024e-09
-1.06109e-09
9.73013e-09
-9.38968e-10
9.64252e-09
-7.73407e-10
9.54427e-09
-5.68194e-10
9.44228e-09
-3.2959e-10
9.34347e-09
-6.53299e-11
9.25496e-09
2.16052e-10
9.18408e-09
5.05578e-10
9.13844e-09
7.9369e-10
9.12541e-09
1.06976e-09
9.15111e-09
1.3214e-09
9.21836e-09
1.53394e-09
9.32398e-09
1.691e-09
9.45599e-09
1.77695e-09
9.5927e-09
1.78172e-09
9.70617e-09
1.70649e-09
1.56684e-09
9.77118e-09
8.99004e-09
-3.46986e-10
8.97983e-09
-4.17372e-10
8.96723e-09
-4.92007e-10
8.95793e-09
-5.66463e-10
8.95785e-09
-6.36716e-10
8.97196e-09
-6.99916e-10
9.0036e-09
-7.5473e-10
9.05448e-09
-8.01263e-10
9.12498e-09
-8.40729e-10
9.21455e-09
-8.75044e-10
9.32215e-09
-9.06478e-10
9.44651e-09
-9.37386e-10
9.58631e-09
-9.70023e-10
9.74028e-09
-1.00639e-09
9.90726e-09
-1.04811e-09
1.00863e-08
-1.09621e-09
1.02764e-08
-1.15104e-09
1.04772e-08
-1.21221e-09
1.06883e-08
-1.27892e-09
1.09092e-08
-1.35126e-09
1.11388e-08
-1.43297e-09
1.13732e-08
-1.53833e-09
1.15735e-08
-1.46519e-09
1.1726e-08
-1.36227e-09
1.18318e-08
-1.29996e-09
1.18929e-08
-1.25302e-09
1.19129e-08
-1.19956e-09
1.18967e-08
-1.12352e-09
1.18507e-08
-1.01503e-09
1.17817e-08
-8.69959e-10
1.1697e-08
-6.88783e-10
1.16043e-08
-4.7544e-10
1.15109e-08
-2.36188e-10
1.14243e-08
2.12745e-11
1.13519e-08
2.88451e-10
1.1301e-08
5.5642e-10
1.12788e-08
8.15875e-10
1.12916e-08
1.05703e-09
1.13435e-08
1.26948e-09
1.14351e-08
1.44233e-09
1.15611e-08
1.56501e-09
1.17089e-08
1.62914e-09
1.18593e-08
1.6313e-09
1.19903e-08
1.57554e-09
1.47388e-09
1.20832e-08
1.19448e-08
-3.42724e-10
1.1934e-08
-4.06604e-10
1.19186e-08
-4.76562e-10
1.1902e-08
-5.49901e-10
1.18889e-08
-6.2365e-10
1.18842e-08
-6.95139e-10
1.18919e-08
-7.6245e-10
1.19153e-08
-8.24644e-10
1.19563e-08
-8.81761e-10
1.20159e-08
-9.34661e-10
1.20942e-08
-9.84789e-10
1.21908e-08
-1.03393e-09
1.23047e-08
-1.084e-09
1.24352e-08
-1.13681e-09
1.2581e-08
-1.19392e-09
1.27412e-08
-1.25641e-09
1.29149e-08
-1.32473e-09
1.31013e-08
-1.39865e-09
1.32999e-08
-1.47751e-09
1.35099e-08
-1.56128e-09
1.37298e-08
-1.65283e-09
1.39551e-08
-1.76361e-09
1.41477e-08
-1.65782e-09
1.4294e-08
-1.50861e-09
1.43945e-08
-1.40041e-09
1.4451e-08
-1.30954e-09
1.44673e-08
-1.2159e-09
1.44488e-08
-1.10504e-09
1.44022e-08
-9.6836e-10
1.43347e-08
-8.02503e-10
1.42543e-08
-6.08364e-10
1.41688e-08
-3.89975e-10
1.40861e-08
-1.53486e-10
1.40138e-08
9.36319e-11
1.3959e-08
3.43244e-10
1.39285e-08
5.86931e-10
1.39281e-08
8.16222e-10
1.39624e-08
1.02278e-09
1.40332e-08
1.1986e-09
1.41391e-08
1.33644e-09
1.42736e-08
1.4305e-09
1.44253e-08
1.47752e-09
1.45785e-08
1.47804e-09
1.4717e-08
1.43706e-09
1.36356e-09
1.48273e-08
1.56555e-08
-3.38469e-10
1.56452e-08
-3.96301e-10
1.56294e-08
-4.60727e-10
1.56098e-08
-5.30347e-10
1.55895e-08
-6.03337e-10
1.55721e-08
-6.77759e-10
1.55616e-08
-7.5189e-10
1.55614e-08
-8.24497e-10
1.55746e-08
-8.94983e-10
1.56034e-08
-9.6341e-10
1.5649e-08
-1.03042e-09
1.57122e-08
-1.0971e-09
1.5793e-08
-1.16479e-09
1.58911e-08
-1.23491e-09
1.60059e-08
-1.30874e-09
1.61367e-08
-1.38724e-09
1.62828e-08
-1.4708e-09
1.64434e-08
-1.55923e-09
1.66177e-08
-1.6519e-09
1.6805e-08
-1.74852e-09
1.70031e-08
-1.85092e-09
1.7207e-08
-1.96751e-09
1.73815e-08
-1.83233e-09
1.75131e-08
-1.64024e-09
1.76015e-08
-1.48882e-09
1.76484e-08
-1.35642e-09
1.76575e-08
-1.22502e-09
1.76344e-08
-1.08196e-09
1.75861e-08
-9.1997e-10
1.75201e-08
-7.36503e-10
1.74445e-08
-5.32814e-10
1.73675e-08
-3.12928e-10
1.72967e-08
-8.27123e-11
1.72394e-08
1.50876e-10
1.72022e-08
3.80436e-10
1.71907e-08
5.98529e-10
1.72088e-08
7.98025e-10
1.72592e-08
9.72427e-10
1.73416e-08
1.1162e-09
1.74529e-08
1.22514e-09
1.75865e-08
1.29689e-09
1.77327e-08
1.33134e-09
1.78798e-08
1.33095e-09
1.80162e-08
1.30069e-09
1.24728e-09
1.81324e-08
2.02685e-08
-3.33924e-10
2.02588e-08
-3.86514e-10
2.02435e-08
-4.45526e-10
2.02236e-08
-5.1038e-10
2.02004e-08
-5.80148e-10
2.01763e-08
-6.53678e-10
2.01542e-08
-7.29786e-10
2.01372e-08
-8.07454e-10
2.01282e-08
-8.85991e-10
2.01299e-08
-9.65113e-10
2.01444e-08
-1.04496e-09
2.01734e-08
-1.12606e-09
2.02178e-08
-1.2092e-09
2.02782e-08
-1.29532e-09
2.03548e-08
-1.38529e-09
2.04473e-08
-1.47977e-09
2.05555e-08
-1.57897e-09
2.06788e-08
-1.68257e-09
2.08167e-08
-1.78977e-09
2.0968e-08
-1.89988e-09
2.11306e-08
-2.01351e-09
2.12989e-08
-2.13581e-09
2.14428e-08
-1.97616e-09
2.15495e-08
-1.74692e-09
2.16177e-08
-1.55703e-09
2.16486e-08
-1.38736e-09
2.16459e-08
-1.22233e-09
2.16151e-08
-1.05119e-09
2.15632e-08
-8.68058e-10
2.14979e-08
-6.71159e-10
2.14271e-08
-4.62014e-10
2.13586e-08
-2.44476e-10
2.12998e-08
-2.38995e-11
2.12571e-08
1.93579e-10
2.12359e-08
4.01645e-10
2.12402e-08
5.94211e-10
2.12725e-08
7.65793e-10
2.13331e-08
9.11833e-10
2.14203e-08
1.02899e-09
2.153e-08
1.11537e-09
2.16562e-08
1.17077e-09
2.17908e-08
1.1967e-09
2.19255e-08
1.1963e-09
2.20522e-08
1.17399e-09
1.13489e-09
2.21646e-08
2.59405e-08
-3.28446e-10
2.59307e-08
-3.76686e-10
2.5916e-08
-4.30895e-10
2.58966e-08
-4.90957e-10
2.5873e-08
-5.56524e-10
2.58464e-08
-6.27057e-10
2.58185e-08
-7.0191e-10
2.57915e-08
-7.80459e-10
2.57677e-08
-8.62214e-10
2.57495e-08
-9.46905e-10
2.57391e-08
-1.03452e-09
2.57383e-08
-1.12529e-09
2.57488e-08
-1.21967e-09
2.57717e-08
-1.3182e-09
2.58078e-08
-1.4214e-09
2.58576e-08
-1.52959e-09
2.59213e-08
-1.64269e-09
2.59989e-08
-1.76015e-09
2.609e-08
-1.88086e-09
2.61936e-08
-2.00352e-09
2.63075e-08
-2.12739e-09
2.64258e-08
-2.25416e-09
2.65259e-08
-2.07626e-09
2.65967e-08
-1.81772e-09
2.66359e-08
-1.59617e-09
2.6644e-08
-1.39547e-09
2.66243e-08
-1.20268e-09
2.65823e-08
-1.00913e-09
2.65245e-08
-8.10263e-10
2.64583e-08
-6.0501e-10
2.63913e-08
-3.95002e-10
2.63306e-08
-1.83728e-10
2.62825e-08
2.42094e-11
2.62523e-08
2.23757e-10
2.6244e-08
4.09925e-10
2.62601e-08
5.78165e-10
2.63012e-08
7.24687e-10
2.63663e-08
8.46709e-10
2.64526e-08
9.42631e-10
2.65559e-08
1.01213e-09
2.66705e-08
1.05618e-09
2.67902e-08
1.07693e-09
2.69091e-08
1.07748e-09
2.70215e-08
1.06155e-09
1.03303e-09
2.71234e-08
3.28287e-08
-3.2167e-10
3.28184e-08
-3.66373e-10
3.28041e-08
-4.16518e-10
3.27853e-08
-4.72235e-10
3.27623e-08
-5.3352e-10
3.27355e-08
-6.00232e-10
3.27057e-08
-6.72137e-10
3.26742e-08
-7.48965e-10
3.26425e-08
-8.30493e-10
3.26122e-08
-9.16606e-10
3.2585e-08
-1.00733e-09
3.25626e-08
-1.10284e-09
3.25463e-08
-1.20344e-09
3.25376e-08
-1.30946e-09
3.25374e-08
-1.42119e-09
3.25465e-08
-1.53871e-09
3.25655e-08
-1.66171e-09
3.25947e-08
-1.78935e-09
3.26341e-08
-1.92018e-09
3.26827e-08
-2.05219e-09
3.27385e-08
-2.18317e-09
3.27957e-08
-2.31138e-09
3.28412e-08
-2.12176e-09
3.28667e-08
-1.84322e-09
3.2869e-08
-1.59847e-09
3.28481e-08
-1.3746e-09
3.28069e-08
-1.16149e-09
3.27503e-08
-9.52481e-10
3.26843e-08
-7.44275e-10
3.26156e-08
-5.36354e-10
3.25509e-08
-3.30282e-10
3.24962e-08
-1.28985e-10