/*--------------------------------*- C++ -*----------------------------------*\
| =========                 |                                                 |
| \\      /  F ield         | OpenFOAM: The Open Source CFD Toolbox           |
|  \\    /   O peration     | Version:  2312                                  |
|   \\  /    A nd           | Website:  www.openfoam.com                      |
|    \\/     M anipulation  |                                                 |
\*---------------------------------------------------------------------------*/
FoamFile
{
    version     2.0;
    format      ascii;
    arch        "LSB;label=32;scalar=64";
    class       volVectorField;
    location    "405";
    object      U;
}
// * * * * * * * * * * * * * * * * * * * * * * * * * * * * * * * * * * * * * //

dimensions      [0 1 -1 0 0 0 0];

internalField   nonuniform List<vector> 
4800
(
(0.00014508 3.82538e-08 -8.76974e-27)
(0.00014345 5.09365e-08 -6.25203e-26)
(0.000142728 6.05822e-08 7.99348e-26)
(0.000142616 6.54475e-08 3.74522e-26)
(0.000142964 6.57759e-08 5.60315e-25)
(0.000143675 6.07483e-08 -1.33797e-24)
(0.000144704 4.91286e-08 1.25784e-24)
(0.000146045 2.84989e-08 -1.8321e-24)
(0.000147744 -7.00132e-09 5.82389e-25)
(0.000149947 -7.48462e-08 1.99531e-24)
(0.000153086 -2.38137e-07 -6.09979e-25)
(0.000158275 -7.25588e-07 -4.89207e-26)
(0.000168368 -2.1797e-06 -7.30994e-25)
(0.000193747 -9.30285e-06 3.38443e-25)
(0.000236453 -4.87354e-05 -2.65507e-25)
(0.000449904 3.95405e-07 -3.57846e-26)
(0.000444718 2.32773e-07 4.45411e-26)
(0.000442321 1.03348e-07 -4.19614e-25)
(0.00044178 -2.28833e-08 3.10453e-25)
(0.000442627 -1.58373e-07 1.01983e-24)
(0.000444562 -3.16297e-07 -1.62861e-24)
(0.000447445 -5.15634e-07 -4.73727e-25)
(0.00045126 -7.88193e-07 -1.1929e-25)
(0.000456146 -1.20416e-06 3.76782e-24)
(0.000462529 -1.94847e-06 -2.74448e-24)
(0.000471441 -3.54234e-06 2.92408e-25)
(0.000485042 -7.43266e-06 4.36903e-25)
(0.000507394 -1.71407e-05 -6.33638e-25)
(0.000546278 -4.07849e-05 -2.1201e-25)
(0.000593135 -9.65611e-05 7.9292e-25)
(0.000788598 1.29244e-06 -2.88028e-26)
(0.000779332 7.60738e-07 2.92853e-26)
(0.000774907 3.38663e-07 3.07906e-25)
(0.000773684 -6.38787e-08 -7.35047e-25)
(0.000774829 -4.89193e-07 7.23522e-25)
(0.000777822 -9.78071e-07 6.89739e-25)
(0.00078241 -1.58896e-06 -1.76683e-24)
(0.000788549 -2.41913e-06 -1.09452e-24)
(0.000796441 -3.67148e-06 2.56201e-24)
(0.000806679 -5.82292e-06 9.55513e-25)
(0.000820491 -1.00044e-05 -3.22076e-24)
(0.000839889 -1.87074e-05 -4.9054e-25)
(0.000867209 -3.65654e-05 1.26823e-24)
(0.00090351 -7.04374e-05 1.99376e-24)
(0.000936649 -0.000126314 -1.00142e-24)
(0.00116394 2.94901e-06 1.20922e-26)
(0.00115002 1.77255e-06 -8.46223e-26)
(0.00114316 8.40586e-07 3.80023e-25)
(0.00114092 -3.67052e-08 4.13887e-25)
(0.00114208 -9.55243e-07 -3.97422e-25)
(0.00114586 -2.0021e-06 -2.33991e-24)
(0.00115187 -3.29877e-06 -1.60447e-24)
(0.00115999 -5.04184e-06 5.8331e-24)
(0.0011704 -7.61444e-06 2.39171e-24)
(0.00118365 -1.18239e-05 -3.29349e-24)
(0.00120064 -1.931e-05 -1.28503e-24)
(0.00122234 -3.29899e-05 -9.51388e-25)
(0.00124862 -5.68652e-05 1.64033e-26)
(0.00127646 -9.40836e-05 6.39991e-25)
(0.00129633 -0.000142547 3.05271e-27)
(0.00157853 5.61698e-06 -2.54329e-26)
(0.00155937 3.44301e-06 -1.56966e-25)
(0.0015496 1.72452e-06 -1.02746e-25)
(0.00154596 1.28147e-07 2.64571e-25)
(0.00154675 -1.5243e-06 -7.63251e-25)
(0.00155093 -3.3859e-06 1.87321e-24)
(0.00155792 -5.65995e-06 -3.17577e-25)
(0.00156747 -8.65917e-06 1.12949e-24)
(0.00157963 -1.29422e-05 -6.04921e-24)
(0.00159463 -1.9552e-05 1.1075e-23)
(0.00161275 -3.02939e-05 -1.02408e-23)
(0.00163371 -4.77417e-05 5.15502e-24)
(0.00165566 -7.4322e-05 -4.556e-24)
(0.00167468 -0.000110099 4.06955e-24)
(0.00168522 -0.000150349 -1.554e-24)
(0.00203456 9.61989e-06 3.87725e-26)
(0.00200962 6.01453e-06 1.40284e-25)
(0.00199646 3.16994e-06 -7.34031e-25)
(0.00199095 5.63832e-07 -4.72263e-25)
(0.00199092 -2.09628e-06 1.21946e-24)
(0.00199499 -5.04801e-06 4.35111e-25)
(0.00200237 -8.58517e-06 -3.32119e-24)
(0.00201261 -1.31275e-05 7.66928e-24)
(0.00202549 -1.93485e-05 -9.58953e-24)
(0.00204084 -2.83438e-05 2.15716e-24)
(0.00205822 -4.17059e-05 6.33814e-24)
(0.00207644 -6.11938e-05 -8.31102e-24)
(0.00209311 -8.76834e-05 3.86177e-24)
(0.00210504 -0.000119678 3.77968e-24)
(0.00210972 -0.000152686 -2.71887e-24)
(0.00253339 1.53437e-05 3.7143e-26)
(0.00250233 9.79435e-06 -2.19503e-25)
(0.00248536 5.42139e-06 7.82974e-25)
(0.00247753 1.47117e-06 -1.07006e-24)
(0.00247614 -2.49509e-06 -3.60344e-24)
(0.00247951 -6.8143e-06 5.92789e-24)
(0.00248658 -1.18656e-05 -3.49325e-24)
(0.00249663 -1.81401e-05 1.14327e-23)
(0.00250912 -2.63295e-05 -7.3114e-24)
(0.00252346 -3.73919e-05 -3.24118e-24)
(0.0025387 -5.24594e-05 -6.0451e-24)
(0.00255327 -7.24054e-05 5.10066e-24)
(0.00256502 -9.70618e-05 1.33748e-24)
(0.00257192 -0.000124551 1.08005e-24)
(0.00257318 -0.00015152 -8.92669e-25)
(0.00307509 2.32009e-05 -6.20908e-26)
(0.00303794 1.51368e-05 8.40219e-25)
(0.00301691 8.78224e-06 -1.92479e-24)
(0.00300636 3.1204e-06 -1.57267e-24)
(0.00300312 -2.46016e-06 5.30751e-25)
(0.00300517 -8.40379e-06 1.0441e-24)
(0.00301116 -1.51564e-05 3.66685e-24)
(0.00302011 -2.32279e-05 -9.49883e-24)
(0.00303117 -3.32297e-05 -4.86046e-24)
(0.00304342 -4.58551e-05 1.21148e-23)
(0.00305568 -6.17164e-05 -3.54657e-24)
(0.00306644 -8.09951e-05 1.11005e-23)
(0.00307413 -0.000103029 -5.34954e-24)
(0.00307765 -0.00012617 -1.58917e-24)
(0.00307704 -0.000148208 8.84476e-25)
(0.00365755 3.35512e-05 -9.51254e-27)
(0.00361506 2.23967e-05 5.33926e-25)
(0.00359012 1.35896e-05 -7.36462e-25)
(0.00357668 5.83954e-06 1.73282e-24)
(0.0035712 -1.64979e-06 -9.93186e-24)
(0.00357138 -9.42952e-06 9.90331e-24)
(0.0035756 -1.79853e-05 -1.48645e-23)
(0.00358264 -2.7793e-05 8.40228e-24)
(0.00359143 -3.93179e-05 5.84296e-24)
(0.00360088 -5.29544e-05 1.18461e-23)
(0.00360981 -6.88839e-05 -1.41038e-23)
(0.00361703 -8.6879e-05 -2.44681e-24)
(0.00362152 -0.000106173 9.64834e-25)
(0.00362277 -0.000125541 6.66584e-24)
(0.00362113 -0.000143636 -2.54886e-24)
(0.00427565 4.65485e-05 6.0232e-26)
(0.00422961 3.18252e-05 -2.53938e-25)
(0.00420158 2.01437e-05 1.10095e-24)
(0.0041855 9.96517e-06 -3.70169e-24)
(0.00417769 3.20524e-07 5.31551e-24)
(0.00417566 -9.43586e-06 -6.46339e-24)
(0.00417763 -1.98017e-05 1.00794e-23)
(0.00418222 -3.11827e-05 1.7078e-24)
(0.00418822 -4.38802e-05 -1.17692e-23)
(0.00419456 -5.8038e-05 1.5404e-23)
(0.0042002 -7.35647e-05 -1.54118e-23)
(0.0042043 -9.00724e-05 -4.20727e-24)
(0.00420627 -0.000106895 6.63871e-24)
(0.00420591 -0.000123212 1.81456e-24)
(0.00420363 -0.000138249 -7.44685e-25)
(0.00492027 6.18916e-05 2.77253e-25)
(0.00487386 4.33812e-05 -2.221e-24)
(0.00484449 2.8564e-05 -3.43712e-24)
(0.0048267 1.57285e-05 7.58209e-24)
(0.00481696 3.7804e-06 3.2291e-24)
(0.00481281 -7.99324e-06 -1.86541e-23)
(0.00481243 -2.00793e-05 5.15494e-24)
(0.00481438 -3.28022e-05 3.39875e-24)
(0.00481751 -4.63263e-05 -1.38176e-23)
(0.00482081 -6.0636e-05 1.28117e-23)
(0.00482349 -7.55228e-05 -9.50899e-24)
(0.00482497 -9.06034e-05 2.18824e-23)
(0.00482494 -0.000105385 -9.59745e-24)
(0.00482335 -0.000119364 5.1664e-24)
(0.00482057 -0.000132115 -1.32716e-24)
(0.00557813 7.85149e-05 -1.21237e-25)
(0.00553585 5.64615e-05 1.65353e-24)
(0.00550795 3.85589e-05 -3.024e-24)
(0.0054902 2.30585e-05 -1.46104e-24)
(0.00547962 8.82777e-06 1.49111e-23)
(0.005474 -4.8666e-06 -1.86097e-24)
(0.00547168 -1.84826e-05 -2.21085e-23)
(0.00547133 -3.2274e-05 2.33814e-23)
(0.00547193 -4.63189e-05 -4.65907e-24)
(0.00547266 -6.05364e-05 -1.48545e-23)
(0.00547293 -7.47145e-05 1.4325e-23)
(0.00547237 -8.8557e-05 7.08381e-24)
(0.00547082 -0.000101746 -5.29544e-24)
(0.00546828 -0.000114001 -8.49758e-24)
(0.00546507 -0.000125104 6.73185e-25)
(0.00623322 9.44001e-05 1.9223e-27)
(0.00620004 6.96547e-05 -1.97285e-24)
(0.00617711 4.91686e-05 8.71052e-24)
(0.00616185 3.13319e-05 5.87737e-25)
(0.00615214 1.50899e-05 4.29755e-24)
(0.00614632 -2.46183e-07 -1.35872e-23)
(0.00614303 -1.50871e-05 1.05755e-23)
(0.00614123 -2.96351e-05 2.26069e-24)
(0.00614011 -4.39332e-05 1.77565e-23)
(0.00613906 -5.79044e-05 -2.43403e-23)
(0.00613769 -7.1394e-05 -1.00132e-23)
(0.00613577 -8.42169e-05 -6.05671e-24)
(0.00613323 -9.62004e-05 1.02864e-23)
(0.00613009 -0.000107212 -2.76047e-25)
(0.00612661 -0.000117156 8.6754e-25)
(0.00687062 0.000106898 -3.06087e-26)
(0.00685007 8.081e-05 2.09174e-24)
(0.00683513 5.86946e-05 -2.78044e-24)
(0.00682478 3.92298e-05 -7.38152e-27)
(0.0068179 2.15428e-05 3.08253e-24)
(0.00681345 5.05589e-06 7.13557e-24)
(0.00681055 -1.05746e-05 -2.47003e-23)
(0.0068085 -2.55145e-05 1.7488e-24)
(0.00680676 -3.98055e-05 1.00658e-23)
(0.00680496 -5.34091e-05 -4.23898e-24)
(0.00680287 -6.6246e-05 1.03752e-23)
(0.00680039 -7.82307e-05 6.64889e-24)
(0.00679749 -8.92966e-05 -1.09725e-23)
(0.00679419 -9.94063e-05 6.93778e-24)
(0.00679073 -0.000108534 -5.46052e-24)
(0.00748115 0.000113898 -1.01394e-24)
(0.0074732 8.78166e-05 4.77655e-25)
(0.00746711 6.51926e-05 3.34029e-24)
(0.00746286 4.50299e-05 -1.57511e-23)
(0.00746003 2.66742e-05 1.24085e-23)
(0.00745816 9.68832e-06 -8.26903e-24)
(0.00745682 -6.19423e-06 5.23492e-24)
(0.00745564 -2.11119e-05 -3.38864e-23)
(0.00745436 -3.51188e-05 4.36886e-23)
(0.00745281 -4.8221e-05 -2.3341e-23)
(0.0074509 -6.04055e-05 1.88702e-23)
(0.00744861 -7.16602e-05 1.44865e-23)
(0.00744597 -8.19875e-05 -2.32004e-23)
(0.007443 -9.14064e-05 6.99028e-24)
(0.00743993 -9.99303e-05 -2.79754e-25)
(0.00806115 0.000115271 -3.79399e-26)
(0.00806205 8.99655e-05 -1.82415e-25)
(0.00806279 6.76467e-05 9.18385e-26)
(0.00806364 4.75763e-05 -4.31842e-25)
(0.00806452 2.92736e-05 5.02387e-24)
(0.0080653 1.24152e-05 -7.72919e-24)
(0.00806582 -3.20572e-06 6.47183e-24)
(0.00806598 -1.77122e-05 -1.84799e-23)
(0.0080657 -3.11754e-05 3.79042e-23)
(0.00806496 -4.36388e-05 -4.40036e-23)
(0.00806376 -5.51364e-05 3.28921e-23)
(0.00806214 -6.57032e-05 -1.01918e-23)
(0.00806015 -7.5381e-05 4.95749e-25)
(0.00805784 -8.42184e-05 2.02611e-24)
(0.00805541 -9.22482e-05 -3.70367e-24)
(0.00860311 0.00011287 -3.22032e-24)
(0.00860811 8.8534e-05 5.34216e-24)
(0.0086122 6.68552e-05 -1.79362e-24)
(0.00861568 4.72877e-05 -2.03129e-24)
(0.00861858 2.94622e-05 7.63815e-24)
(0.00862088 1.31204e-05 -6.98463e-24)
(0.00862257 -1.91711e-06 -5.77026e-24)
(0.00862364 -1.57747e-05 -1.26271e-23)
(0.00862412 -2.85434e-05 5.69595e-24)
(0.00862406 -4.02961e-05 2.52716e-23)
(0.0086235 -5.10975e-05 -1.22435e-23)
(0.00862251 -6.10098e-05 6.7821e-24)
(0.00862115 -7.00949e-05 -2.58411e-24)
(0.00861946 -7.84149e-05 -7.2238e-24)
(0.00861762 -8.60102e-05 3.54941e-24)
(0.00908213 0.000108621 1.06304e-24)
(0.00908841 8.54201e-05 -1.65578e-24)
(0.00909342 6.45829e-05 -7.32142e-25)
(0.00909751 4.5737e-05 -3.05314e-25)
(0.0091008 2.8598e-05 -2.38228e-24)
(0.00910334 1.29479e-05 1.01823e-23)
(0.00910517 -1.38105e-06 -7.4791e-24)
(0.00910636 -1.452e-05 -4.47336e-24)
(0.00910697 -2.65765e-05 3.69686e-24)
(0.00910705 -3.76429e-05 -4.07205e-24)
(0.00910668 -4.78021e-05 8.73862e-24)
(0.0091059 -5.713e-05 4.15923e-24)
(0.00910479 -6.56973e-05 -1.45211e-23)
(0.00910337 -7.35699e-05 9.47831e-24)
(0.0091018 -8.0789e-05 -1.86539e-24)
(0.0094497 0.000102981 3.12095e-24)
(0.00945668 8.13611e-05 4.84846e-24)
(0.009462 6.17626e-05 -9.49175e-24)
(0.00946611 4.39698e-05 -7.99594e-25)
(0.00946924 2.77749e-05 2.21738e-24)
(0.00947152 1.29984e-05 -2.88314e-24)
(0.00947306 -5.1102e-07 -4.56738e-24)
(0.00947396 -1.28824e-05 8.63908e-24)
(0.0094743 -2.42271e-05 9.20307e-24)
(0.00947416 -3.4643e-05 -2.06962e-23)
(0.00947361 -4.42176e-05 1.1167e-23)
(0.0094727 -5.30293e-05 -7.35901e-25)
(0.00947149 -6.11482e-05 -5.84947e-25)
(0.00947 -6.86379e-05 7.51622e-25)
(0.00946834 -7.55348e-05 -3.36261e-25)
(0.00963632 9.52765e-05 -8.08143e-24)
(0.00964419 7.58412e-05 -1.57013e-23)
(0.00965004 5.80401e-05 7.19986e-24)
(0.00965439 4.17786e-05 2.32581e-23)
(0.00965755 2.69138e-05 -5.90542e-24)
(0.00965972 1.33074e-05 -1.7363e-24)
(0.00966108 8.34424e-07 8.05632e-25)
(0.00966175 -1.06183e-05 -3.55153e-24)
(0.00966185 -2.11525e-05 9.41415e-24)
(0.00966146 -3.0859e-05 -3.94454e-24)
(0.00966066 -3.98182e-05 2.42909e-24)
(0.00965951 -4.81011e-05 -3.56507e-24)
(0.00965806 -5.57696e-05 -3.98314e-24)
(0.00965634 -6.28787e-05 5.73936e-24)
(0.00965442 -6.94563e-05 -2.4494e-24)
(0.00955858 8.53258e-05 1.24783e-23)
(0.00956719 6.85219e-05 -2.5612e-23)
(0.00957361 5.29719e-05 3.73209e-24)
(0.00957831 3.86515e-05 3.04555e-23)
(0.00958166 2.54676e-05 -2.69755e-23)
(0.0095839 1.33216e-05 8.68828e-24)
(0.00958524 2.12002e-06 5.4279e-24)
(0.00958585 -8.2266e-06 -1.14105e-23)
(0.00958583 -1.78024e-05 2.17364e-24)
(0.0095853 -2.66833e-05 1.4365e-24)
(0.00958433 -3.49357e-05 -7.08357e-25)
(0.00958298 -4.26174e-05 1.60785e-24)
(0.00958132 -4.97778e-05 -1.93064e-24)
(0.00957938 -5.64604e-05 1.29112e-24)
(0.00957717 -6.26861e-05 -5.89503e-25)
(0.00922381 7.45499e-05 7.47971e-24)
(0.00923294 6.03869e-05 -1.42134e-23)
(0.00923985 4.71459e-05 -8.89712e-24)
(0.00924497 3.48347e-05 3.82326e-23)
(0.00924864 2.33976e-05 -3.22721e-23)
(0.00925114 1.27707e-05 3.20232e-24)
(0.00925269 2.88893e-06 4.65125e-24)
(0.00925344 -6.31335e-06 2.33548e-24)
(0.00925353 -1.4899e-05 1.70246e-24)
(0.00925305 -2.29248e-05 -7.33603e-24)
(0.00925209 -3.04402e-05 4.51535e-24)
(0.00925071 -3.74878e-05 6.6234e-25)
(0.00924896 -4.41037e-05 -1.51325e-24)
(0.0092469 -5.03194e-05 8.03783e-25)
(0.0092445 -5.61507e-05 5.00597e-25)
(0.00872139 6.40871e-05 1.80891e-23)
(0.00873091 5.22497e-05 -2.92369e-23)
(0.00873828 4.10726e-05 5.50212e-24)
(0.00874387 3.05765e-05 -1.19304e-23)
(0.00874796 2.0734e-05 -1.42249e-23)
(0.00875085 1.15081e-05 4.53663e-23)
(0.00875274 2.85599e-06 -1.64267e-23)
(0.00875378 -5.26743e-06 4.30104e-24)
(0.00875411 -1.29056e-05 -2.2263e-24)
(0.00875381 -2.00973e-05 -4.81134e-24)
(0.00875296 -2.68765e-05 8.34665e-24)
(0.00875164 -3.3272e-05 -3.84313e-24)
(0.00874989 -3.93085e-05 6.10216e-25)
(0.00874776 -4.50066e-05 1.0026e-25)
(0.00874524 -5.03767e-05 3.52225e-26)
(0.00811595 5.40551e-05 6.80618e-24)
(0.00812575 4.42172e-05 -3.23096e-23)
(0.00813349 3.48433e-05 5.19006e-23)
(0.00813948 2.59568e-05 -3.68517e-23)
(0.00814398 1.75498e-05 3.42647e-23)
(0.00814725 9.60531e-06 -1.08387e-23)
(0.00814948 2.09784e-06 -7.0407e-24)
(0.00815082 -5.00194e-06 -7.15745e-24)
(0.00815138 -1.17221e-05 1.16495e-23)
(0.00815126 -1.80875e-05 -8.03862e-25)
(0.00815053 -2.41195e-05 -9.90801e-24)
(0.00814925 -2.98363e-05 -9.38223e-25)
(0.00814748 -3.5253e-05 1.67544e-24)
(0.00814526 -4.03817e-05 -2.43847e-25)
(0.00814257 -4.5228e-05 2.49528e-26)
(0.00745471 4.46016e-05 8.85307e-25)
(0.00746463 3.64811e-05 -1.20005e-23)
(0.0074726 2.86788e-05 -6.18733e-24)
(0.00747885 2.12161e-05 4.80337e-23)
(0.00748363 1.40991e-05 -4.45797e-23)
(0.00748716 7.32543e-06 1.23716e-23)
(0.00748962 8.82163e-07 1.97316e-24)
(0.00749114 -5.24798e-06 -9.79087e-25)
(0.00749183 -1.10814e-05 -4.30538e-24)
(0.00749178 -1.66321e-05 1.77557e-23)
(0.00749106 -2.19119e-05 -1.36355e-23)
(0.00748971 -2.69308e-05 -4.66571e-25)
(0.0074878 -3.16967e-05 1.00383e-24)
(0.00748537 -3.62157e-05 5.29917e-25)
(0.00748241 -4.0489e-05 -3.70879e-25)
(0.00677125 3.58869e-05 1.28293e-24)
(0.00678104 2.92482e-05 1.09595e-23)
(0.00678899 2.28198e-05 -1.19356e-23)
(0.00679527 1.66202e-05 -7.75926e-24)
(0.0068001 1.06663e-05 4.69116e-23)
(0.00680367 4.96574e-06 -3.44985e-23)
(0.00680616 -4.85589e-07 -8.00748e-25)
(0.00680767 -5.6963e-06 -6.48264e-24)
(0.00680831 -1.06742e-05 -4.38599e-25)
(0.00680814 -1.54254e-05 9.13881e-25)
(0.00680724 -1.99552e-05 -2.8388e-24)
(0.00680565 -2.42676e-05 2.49198e-24)
(0.00680344 -2.83656e-05 9.01212e-25)
(0.00680063 -3.2251e-05 7.18715e-25)
(0.00679724 -3.59224e-05 5.16121e-25)
(0.0060886 2.81018e-05 8.83658e-24)
(0.00609796 2.27465e-05 -1.28749e-23)
(0.00610557 1.75218e-05 -9.75418e-24)
(0.0061116 1.24442e-05 2.85546e-23)
(0.0061162 7.53856e-06 -9.87094e-24)
(0.00611957 2.81934e-06 -1.32005e-23)
(0.00612184 -1.71217e-06 4.51351e-24)
(0.00612311 -6.05851e-06 9.54377e-24)
(0.00612347 -1.02214e-05 -1.46025e-23)
(0.00612299 -1.42018e-05 1.39484e-23)
(0.00612172 -1.80004e-05 -7.12497e-24)
(0.00611973 -2.16175e-05 2.86971e-24)
(0.00611704 -2.50531e-05 -3.30889e-24)
(0.00611372 -2.83063e-05 3.03686e-24)
(0.00610976 -3.13742e-05 -6.28323e-25)
(0.00542205 2.14038e-05 -1.63995e-24)
(0.00543067 1.71563e-05 -5.42662e-24)
(0.00543767 1.29803e-05 -1.65579e-23)
(0.00544316 8.89224e-06 4.47471e-23)
(0.0054473 4.9229e-06 -7.87215e-24)
(0.00545023 1.09034e-06 -1.18141e-23)
(0.00545207 -2.60088e-06 3.8963e-24)
(0.00545291 -6.14934e-06 -5.55782e-24)
(0.00545282 -9.55292e-06 -1.14344e-23)
(0.00545187 -1.28095e-05 1.08761e-23)
(0.00545011 -1.59171e-05 5.11961e-25)
(0.00544759 -1.8874e-05 -3.02784e-24)
(0.00544435 -2.16783e-05 3.43689e-24)
(0.00544044 -2.4328e-05 1.57656e-25)
(0.00543586 -2.68194e-05 -2.06807e-25)
(0.00478152 1.58629e-05 5.95615e-24)
(0.00478917 1.25597e-05 8.405e-24)
(0.00479534 9.28496e-06 -7.70425e-24)
(0.00480012 6.05695e-06 -1.613e-23)
(0.00480361 2.91016e-06 2.10677e-23)
(0.00480595 -1.36304e-07 -2.24333e-23)
(0.00480724 -3.07643e-06 -7.28216e-25)
(0.00480754 -5.90648e-06 8.32134e-24)
(0.00480692 -8.62236e-06 2.81253e-24)
(0.00480543 -1.12204e-05 -5.52431e-24)
(0.00480314 -1.36976e-05 1.71861e-25)
(0.00480008 -1.60511e-05 1.05587e-23)
(0.00479629 -1.82784e-05 -3.98567e-24)
(0.00479182 -2.0377e-05 -9.23656e-25)
(0.00478669 -2.23433e-05 -4.98281e-26)
(0.00417333 1.1447e-05 -5.7552e-24)
(0.00417989 8.93362e-06 7.22903e-24)
(0.00418513 6.4189e-06 7.77879e-25)
(0.00418909 3.9241e-06 1.3782e-23)
(0.00419187 1.48515e-06 -1.11026e-23)
(0.00419357 -8.80133e-07 8.09623e-25)
(0.00419426 -3.16565e-06 -1.1845e-24)
(0.004194 -5.36667e-06 -3.27338e-24)
(0.00419286 -7.4785e-06 2.71535e-24)
(0.00419088 -9.49719e-06 -8.68035e-24)
(0.0041881 -1.14193e-05 7.01433e-25)
(0.00418458 -1.3242e-05 2.03874e-24)
(0.00418036 -1.49625e-05 1.20865e-24)
(0.00417546 -1.65786e-05 4.4351e-25)
(0.00416993 -1.80871e-05 1.36115e-25)
(0.00360135 8.04407e-06 3.90748e-24)
(0.00360681 6.17662e-06 -3.0448e-24)
(0.00361111 4.28946e-06 -1.30012e-23)
(0.00361426 2.4068e-06 1.20372e-23)
(0.00361633 5.63397e-07 1.63703e-23)
(0.00361741 -1.22596e-06 -4.21417e-24)
(0.00361755 -2.95594e-06 -8.26343e-24)
(0.0036168 -4.62184e-06 -1.12396e-23)
(0.00361522 -6.21925e-06 8.36883e-24)
(0.00361285 -7.74452e-06 4.50806e-25)
(0.00360973 -9.1945e-06 -1.79325e-24)
(0.0036059 -1.05664e-05 -4.44273e-25)
(0.0036014 -1.1858e-05 9.19783e-25)
(0.00359627 -1.30672e-05 -4.79666e-26)
(0.00359055 -1.41918e-05 -1.50731e-25)
(0.0030677 5.49868e-06 -2.22363e-24)
(0.00307214 4.14711e-06 -1.54323e-24)
(0.00307556 2.76718e-06 1.88782e-24)
(0.00307796 1.38472e-06 -5.80211e-24)
(0.0030794 3.07242e-08 1.88447e-23)
(0.00307994 -1.28395e-06 -2.46112e-23)
(0.00307963 -2.55513e-06 2.38014e-23)
(0.00307851 -3.77872e-06 -9.97539e-24)
(0.00307662 -4.95105e-06 2.19556e-24)
(0.00307401 -6.06903e-06 -1.58539e-26)
(0.00307071 -7.12998e-06 -1.69284e-24)
(0.00306675 -8.13162e-06 4.99765e-25)
(0.00306219 -9.07202e-06 -1.19516e-24)
(0.00305705 -9.94964e-06 -1.39735e-25)
(0.00305136 -1.07628e-05 6.63191e-26)
(0.00257323 3.64481e-06 -9.65966e-25)
(0.00257674 2.69563e-06 2.49775e-25)
(0.00257938 1.71707e-06 5.28268e-25)
(0.00258114 7.34295e-07 -2.3972e-24)
(0.00258206 -2.27377e-07 -1.04843e-24)
(0.00258218 -1.16104e-06 9.15513e-24)
(0.00258155 -2.06366e-06 -5.34364e-24)
(0.00258019 -2.93202e-06 7.44563e-25)
(0.00257815 -3.76327e-06 -7.22812e-25)
(0.00257546 -4.55499e-06 -7.5224e-25)
(0.00257215 -5.30503e-06 -1.95947e-25)
(0.00256827 -6.01163e-06 1.35734e-24)
(0.00256383 -6.67328e-06 2.80996e-25)
(0.00255889 -7.28885e-06 -7.51291e-25)
(0.00255346 -7.85731e-06 -1.0142e-25)
(0.00211777 2.32818e-06 -3.11503e-25)
(0.00212048 1.68543e-06 -1.00165e-25)
(0.00212246 1.01747e-06 -4.91047e-24)
(0.0021237 3.4635e-07 1.32264e-24)
(0.00212421 -3.09173e-07 -3.42788e-24)
(0.00212403 -9.45485e-07 2.4567e-24)
(0.00212321 -1.56047e-06 4.52512e-24)
(0.00212175 -2.1518e-06 3.31421e-24)
(0.00211971 -2.71739e-06 -4.59966e-24)
(0.00211709 -3.25545e-06 1.38277e-24)
(0.00211395 -3.76437e-06 1.12743e-24)
(0.0021103 -4.24285e-06 -1.55439e-24)
(0.00210618 -4.68978e-06 8.23948e-25)
(0.00210162 -5.10436e-06 -3.58291e-26)
(0.00209664 -5.48598e-06 1.71581e-25)
(0.00170039 1.41716e-06 -1.07716e-24)
(0.00170243 1.00182e-06 -1.45664e-24)
(0.00170387 5.68222e-07 -2.47502e-25)
(0.00170469 1.33298e-07 3.5912e-24)
(0.00170491 -2.9051e-07 -2.50939e-24)
(0.00170456 -7.01868e-07 -4.65875e-25)
(0.00170366 -1.09935e-06 3.96529e-24)
(0.00170223 -1.48139e-06 -1.08603e-26)
(0.00170031 -1.84655e-06 -8.01362e-25)
(0.00169791 -2.19357e-06 -2.79454e-24)
(0.00169507 -2.52132e-06 3.51511e-25)
(0.0016918 -2.82891e-06 1.839e-24)
(0.00168813 -3.11556e-06 -2.3393e-25)
(0.0016841 -3.38071e-06 -2.12142e-25)
(0.00167973 -3.62401e-06 1.34477e-25)
(0.0013196 8.0565e-07 -2.07736e-25)
(0.00132108 5.538e-07 1.34091e-26)
(0.00132209 2.91377e-07 1.53142e-24)
(0.0013226 2.91831e-08 1.00636e-24)
(0.00132263 -2.25632e-07 -7.11791e-25)
(0.0013222 -4.72991e-07 -1.71318e-24)
(0.00132133 -7.11977e-07 6.8032e-25)
(0.00132004 -9.41607e-07 -2.82543e-24)
(0.00131834 -1.16096e-06 2.16938e-24)
(0.00131627 -1.36923e-06 1.07226e-24)
(0.00131383 -1.56568e-06 -3.5021e-26)
(0.00131105 -1.74972e-06 -1.13013e-24)
(0.00130795 -1.92089e-06 1.92257e-25)
(0.00130456 -2.07876e-06 -1.31446e-25)
(0.0013009 -2.22309e-06 6.13949e-26)
(0.000973529 4.11431e-07 -3.3853e-25)
(0.000974551 2.71926e-07 8.85299e-27)
(0.000975218 1.28756e-07 1.08982e-24)
(0.000975504 -1.32465e-08 -6.79934e-25)
(0.000975428 -1.50798e-07 2.7515e-24)
(0.000975004 -2.84283e-07 -4.99122e-24)
(0.000974245 -4.13166e-07 4.02229e-24)
(0.000973164 -5.36913e-07 -3.31562e-24)
(0.000971776 -6.55005e-07 2.34761e-24)
(0.000970097 -7.6698e-07 -1.47699e-24)
(0.000968142 -8.72418e-07 5.03166e-25)
(0.000965929 -9.71004e-07 7.05423e-26)
(0.000963474 -1.06248e-06 1.00351e-25)
(0.000960797 -1.14654e-06 -1.20653e-25)
(0.000957913 -1.22296e-06 2.25065e-26)
(0.000660052 1.73869e-07 4.57403e-25)
(0.000660697 1.07369e-07 4.88528e-25)
(0.000661096 4.19425e-08 -2.09137e-24)
(0.00066123 -2.2191e-08 1.52167e-24)
(0.000661115 -8.40799e-08 -1.77552e-26)
(0.000660758 -1.44068e-07 3.79268e-25)
(0.000660168 -2.01895e-07 -4.70866e-25)
(0.000659354 -2.57317e-07 -9.57869e-25)
(0.000658326 -3.10097e-07 9.42159e-25)
(0.000657096 -3.60024e-07 8.94843e-26)
(0.000655673 -4.06907e-07 -7.14841e-25)
(0.000654071 -4.50608e-07 2.57476e-25)
(0.000652301 -4.91022e-07 1.41648e-25)
(0.000650377 -5.27968e-07 -1.76037e-26)
(0.00064831 -5.61153e-07 -1.34763e-26)
(0.000376908 5.16631e-08 -4.14459e-25)
(0.000377242 3.26097e-08 1.26206e-24)
(0.000377434 1.51106e-08 7.40656e-25)
(0.000377471 -2.72138e-09 -1.34472e-24)
(0.000377365 -2.0731e-08 -1.56935e-25)
(0.00037712 -3.88934e-08 -1.37474e-25)
(0.000376739 -5.69709e-08 4.12444e-25)
(0.000376228 -7.47626e-08 -6.90424e-25)
(0.000375592 -9.2089e-08 9.21841e-25)
(0.000374839 -1.08796e-07 -4.51663e-25)
(0.000373973 -1.24752e-07 -2.80379e-25)
(0.000373003 -1.39853e-07 1.65195e-25)
(0.000371935 -1.54026e-07 -1.78403e-25)
(0.000370778 -1.67136e-07 1.73046e-25)
(0.000369538 -1.78849e-07 -2.619e-26)
(0.000121793 1.34815e-08 -2.34531e-27)
(0.000121868 3.17488e-08 1.94053e-25)
(0.000121898 4.6003e-08 2.19374e-25)
(0.000121881 5.52752e-08 -3.46364e-25)
(0.000121819 6.01775e-08 7.06063e-25)
(0.000121714 6.14484e-08 -7.66283e-25)
(0.000121566 5.97228e-08 4.91596e-26)
(0.000121376 5.55615e-08 4.06797e-25)
(0.000121147 4.94519e-08 -5.61563e-25)
(0.00012088 4.18166e-08 -9.5497e-26)
(0.000120577 3.30169e-08 3.67422e-25)
(0.00012024 2.33675e-08 -1.59839e-25)
(0.000119872 1.31173e-08 -5.32239e-26)
(0.000119475 2.52164e-09 4.35998e-26)
(0.000119051 -8.06097e-09 -1.70757e-27)
(0.000357678 -0.000147902 3.45353e-26)
(0.000413122 -0.000132293 9.14319e-25)
(0.000503351 -0.000104808 -2.67438e-24)
(0.000598381 -7.82482e-05 3.93807e-24)
(0.000693111 -5.44826e-05 -1.50176e-24)
(0.000788078 -3.40827e-05 -1.43185e-24)
(0.000883421 -1.70103e-05 1.62145e-24)
(0.000979361 -3.10854e-06 -3.1521e-24)
(0.00107613 7.81784e-06 2.49337e-25)
(0.0011739 1.59866e-05 1.95185e-24)
(0.00127282 2.16307e-05 -3.61087e-25)
(0.00137301 2.50006e-05 3.82695e-25)
(0.00147455 2.63685e-05 -4.00477e-26)
(0.00157752 2.60365e-05 2.26934e-25)
(0.00168202 2.43443e-05 -8.37077e-25)
(0.00178818 2.16726e-05 4.57341e-25)
(0.0018962 1.84361e-05 -1.39401e-25)
(0.00200637 1.50481e-05 1.21647e-26)
(0.00211913 1.18375e-05 3.16757e-25)
(0.00223501 8.87202e-06 -1.96593e-25)
(0.00235451 5.63864e-06 2.19948e-26)
(0.0024775 5.47258e-07 -1.85694e-26)
(0.00259316 -8.95166e-06 3.00175e-26)
(0.00268823 -2.43072e-05 1.01822e-25)
(0.00275997 -4.54398e-05 -1.82932e-25)
(0.00280887 -7.12388e-05 -1.00157e-25)
(0.00283546 -9.9722e-05 2.23613e-26)
(0.00284057 -0.000128391 2.10998e-25)
(0.00282535 -0.000154504 1.58171e-25)
(0.00279125 -0.000175278 -2.87021e-25)
(0.00273993 -0.000188004 -8.2156e-26)
(0.00267316 -0.000190089 3.13506e-25)
(0.00259279 -0.000179019 -1.92838e-25)
(0.00250063 -0.000152282 -5.6453e-25)
(0.00239848 -0.000107277 5.57215e-25)
(0.00228804 -4.13338e-05 2.35665e-24)
(0.00217078 4.80187e-05 -8.48533e-25)
(0.00204773 0.000162346 3.05642e-25)
(0.00191915 0.00030107 3.9131e-26)
(0.00178431 0.000459781 -2.39525e-24)
(0.00164154 0.000628328 -2.58376e-26)
(0.00148885 0.000788711 7.61375e-25)
(0.00132472 0.000912055 1.56404e-25)
(0.00115612 0.000954177 -9.57694e-25)
(0.00106104 0.000827684 -4.24289e-26)
(0.00063923 -0.000175815 -1.04881e-24)
(0.00066515 -0.000176542 -1.5709e-24)
(0.000722763 -0.000153079 3.2719e-24)
(0.000795882 -0.00012498 1.56627e-24)
(0.000876278 -9.78518e-05 -5.57039e-24)
(0.000961206 -7.37761e-05 6.00236e-24)
(0.00104908 -5.32239e-05 -2.17993e-24)
(0.00113916 -3.61496e-05 1.67899e-24)
(0.00123111 -2.23557e-05 -2.25082e-24)
(0.00132477 -1.15917e-05 3.17132e-26)
(0.00142008 -3.5883e-06 -1.12996e-24)
(0.00151701 1.93666e-06 2.24419e-24)
(0.00161557 5.28093e-06 -1.22651e-24)
(0.00171578 6.76521e-06 -1.06834e-24)
(0.00181768 6.74139e-06 -6.90525e-25)
(0.00192136 5.59647e-06 1.35951e-24)
(0.00202699 3.7463e-06 -1.55632e-25)
(0.00213483 1.60192e-06 6.9162e-25)
(0.00224526 -5.07701e-07 9.92433e-26)
(0.00235876 -2.50442e-06 -2.0289e-25)
(0.00247577 -4.85741e-06 -7.91175e-26)
(0.00259612 -9.05734e-06 -4.05112e-26)
(0.00270922 -1.75154e-05 1.82328e-25)
(0.00280216 -3.15552e-05 1.85302e-25)
(0.00287233 -5.10148e-05 -1.94022e-25)
(0.00292028 -7.47465e-05 -7.21897e-25)
(0.00294657 -0.000100781 8.93272e-25)
(0.00295205 -0.000126667 -5.29056e-25)
(0.00293793 -0.000149723 1.67587e-25)
(0.00290569 -0.000167232 -6.32473e-27)
(0.00285705 -0.000176552 -1.86857e-25)
(0.00279387 -0.000175149 8.20712e-25)
(0.00271811 -0.000160567 -1.21747e-24)
(0.00263176 -0.000130351 3.40608e-24)
(0.00253689 -8.19537e-05 -4.79457e-24)
(0.00243559 -1.27151e-05 1.23696e-24)
(0.00232993 7.99381e-05 3.96722e-24)
(0.00222191 0.000197877 -1.2802e-24)
(0.00211329 0.000341105 -2.64671e-24)
(0.00200562 0.000506003 -1.25044e-24)
(0.00190064 0.000683014 2.73272e-24)
(0.00180145 0.000853557 -2.17827e-24)
(0.00171387 0.00098536 -2.47685e-28)
(0.00164736 0.00102641 1.16442e-24)
(0.00162312 0.0008938 4.55673e-26)
(0.000954491 -0.000185955 -1.22753e-26)
(0.000963616 -0.000200033 -1.87978e-24)
(0.000994134 -0.000187816 3.68001e-24)
(0.00104331 -0.000164577 3.16941e-24)
(0.00110524 -0.000138215 -5.30072e-24)
(0.00117604 -0.000112827 1.15563e-25)
(0.00125296 -9.00829e-05 5.26365e-25)
(0.00133429 -7.05189e-05 5.63259e-24)
(0.00141905 -5.42009e-05 -6.75325e-24)
(0.00150663 -4.09927e-05 4.07159e-24)
(0.00159665 -3.06706e-05 1.14457e-24)
(0.00168889 -2.29677e-05 -6.63934e-24)
(0.00178322 -1.75885e-05 2.40398e-24)
(0.00187953 -1.42102e-05 9.3406e-25)
(0.00197782 -1.24789e-05 -1.91395e-24)
(0.00207811 -1.20075e-05 3.08774e-24)
(0.00218051 -1.23827e-05 -2.16378e-24)
(0.00228523 -1.31969e-05 -3.02872e-26)
(0.0023926 -1.41214e-05 1.75063e-25)
(0.00250302 -1.50662e-05 1.78923e-25)
(0.00261687 -1.64535e-05 2.94428e-26)
(0.0027339 -1.96715e-05 8.89493e-26)
(0.00284382 -2.69927e-05 -2.00534e-25)
(0.00293413 -3.96171e-05 5.66319e-25)
(0.00300234 -5.72982e-05 -8.14949e-25)
(0.00304903 -7.88452e-05 4.52009e-25)
(0.00307482 -0.000102296 -8.03681e-25)
(0.00308059 -0.000125239 1.05399e-24)
(0.00306758 -0.000145053 -6.07655e-25)
(0.00303732 -0.000159089 3.19034e-25)
(0.00299159 -0.000164774 4.98943e-25)
(0.00293235 -0.000159648 -9.52244e-25)
(0.00286169 -0.000141336 4.68643e-25)
(0.00278181 -0.000107483 1.84644e-24)
(0.00269506 -5.5664e-05 -4.29109e-24)
(0.00260394 1.66381e-05 6.23499e-24)
(0.0025112 0.000111858 -3.90316e-24)
(0.00241984 0.000231786 4.55127e-24)
(0.00233314 0.000376411 -8.01153e-24)
(0.00225474 0.000542031 2.88323e-24)
(0.00218898 0.000718536 8.14789e-25)
(0.00214118 0.000885767 7.75867e-25)
(0.0021167 0.00100924 -8.95846e-25)
(0.00211569 0.00103868 -9.62479e-26)
(0.00212451 0.00091904 1.45087e-25)
(0.00130246 -0.000188537 -4.51486e-25)
(0.00130253 -0.000209729 -7.84125e-25)
(0.00131432 -0.000208833 -3.55738e-24)
(0.0013422 -0.000193972 9.20456e-25)
(0.00138453 -0.000172165 6.49381e-25)
(0.00143857 -0.000148383 2.94565e-24)
(0.00150155 -0.000125424 -6.23628e-24)
(0.00157132 -0.00010464 2.49474e-24)
(0.00164634 -8.65928e-05 8.05984e-24)
(0.0017256 -7.14269e-05 -2.22512e-24)
(0.00180837 -5.90739e-05 -2.02702e-24)
(0.00189419 -4.93515e-05 -3.16512e-25)
(0.00198273 -4.20111e-05 1.01545e-24)
(0.00207377 -3.67564e-05 -1.98291e-24)
(0.0021672 -3.32503e-05 4.67053e-25)
(0.00226294 -3.11186e-05 -1.53984e-25)
(0.00236105 -2.9959e-05 -9.27661e-25)
(0.00246167 -2.9374e-05 3.76526e-25)
(0.00256505 -2.90388e-05 1.59618e-24)
(0.00267151 -2.88535e-05 -2.03502e-25)
(0.00278134 -2.91922e-05 -3.41531e-25)
(0.00289423 -3.13346e-05 -8.17411e-26)
(0.00300022 -3.74079e-05 -3.97362e-25)
(0.00308727 -4.84861e-05 2.16314e-26)
(0.00315302 -6.4237e-05 -7.4383e-25)
(0.00319809 -8.34276e-05 1.35192e-24)
(0.00322312 -0.000104108 -9.07943e-25)
(0.00322903 -0.000123916 1.61785e-24)
(0.00321709 -0.000140302 -1.04985e-24)
(0.0031889 -0.000150703 3.46559e-25)