/*--------------------------------*- C++ -*----------------------------------*\
| =========                 |                                                 |
| \\      /  F ield         | OpenFOAM: The Open Source CFD Toolbox           |
|  \\    /   O peration     | Version:  2312                                  |
|   \\  /    A nd           | Website:  www.openfoam.com                      |
|    \\/     M anipulation  |                                                 |
\*---------------------------------------------------------------------------*/
FoamFile
{
    version     2.0;
    format      ascii;
    arch        "LSB;label=32;scalar=64";
    class       volVectorField;
    location    "145.5";
    object      U;
}
// * * * * * * * * * * * * * * * * * * * * * * * * * * * * * * * * * * * * * //

dimensions      [0 1 -1 0 0 0 0];

internalField   nonuniform List<vector> 
4800
(
(0.000481242 2.2137e-07 -2.24003e-26)
(0.000476482 2.36531e-07 -1.59843e-25)
(0.000474295 2.39364e-07 2.0447e-25)
(0.000473674 2.49151e-07 9.64857e-26)
(0.000474221 2.43776e-07 1.45463e-24)
(0.000475594 2.42488e-07 -3.49303e-24)
(0.00047769 2.04837e-07 3.31079e-24)
(0.000480503 1.12443e-07 -4.87249e-24)
(0.000484158 -5.1334e-08 1.54627e-24)
(0.00048886 -3.25132e-07 5.42503e-24)
(0.00049505 -8.64824e-07 -1.66806e-24)
(0.000504066 -2.33837e-06 -1.33064e-25)
(0.000523479 -7.77097e-06 -2.0806e-24)
(0.000571963 -2.9808e-05 9.81983e-25)
(0.000651499 -9.66747e-05 -7.8359e-25)
(0.00149089 1.11589e-06 -7.09651e-26)
(0.00147596 6.67173e-07 8.85067e-26)
(0.00146857 3.1009e-07 -8.3855e-25)
(0.00146584 1.42604e-08 6.18153e-25)
(0.00146654 -2.8854e-07 2.05607e-24)
(0.0014696 -6.01821e-07 -3.33095e-24)
(0.00147482 -1.00417e-06 -9.97081e-25)
(0.00148211 -1.59246e-06 -2.67569e-25)
(0.00149173 -2.47463e-06 8.11218e-24)
(0.00150427 -3.87436e-06 -6.03357e-24)
(0.00152098 -6.47755e-06 6.56716e-25)
(0.00154472 -1.259e-05 1.01993e-24)
(0.00158476 -3.02261e-05 -1.52587e-24)
(0.00165205 -8.42188e-05 -4.75537e-25)
(0.00172377 -0.000206234 2.01556e-24)
(0.00260914 3.61616e-06 -5.08068e-26)
(0.00258299 2.21171e-06 5.18469e-26)
(0.00256937 1.14687e-06 5.47515e-25)
(0.00256352 2.1995e-07 -1.31714e-24)
(0.00256342 -7.13224e-07 1.29894e-24)
(0.00256714 -1.72832e-06 1.26102e-24)
(0.00257447 -2.99887e-06 -3.3015e-24)
(0.00258517 -4.73091e-06 -2.10005e-24)
(0.00259941 -7.23776e-06 5.00466e-24)
(0.00261794 -1.11377e-05 1.92973e-24)
(0.00264216 -1.79733e-05 -6.70109e-24)
(0.00267435 -3.18351e-05 -1.05289e-24)
(0.00271876 -6.25946e-05 2.88707e-24)
(0.00277403 -0.000130668 4.6321e-24)
(0.00281386 -0.000244456 -2.40119e-24)
(0.00384142 8.13475e-06 1.87715e-26)
(0.00380337 5.15061e-06 -1.31523e-25)
(0.00378259 2.90062e-06 5.94828e-25)
(0.00377266 9.40383e-07 6.58192e-25)
(0.0037706 -1.01155e-06 -6.22723e-25)
(0.00377398 -3.07381e-06 -3.74755e-24)
(0.00378202 -5.69829e-06 -2.69582e-24)
(0.00379469 -9.19399e-06 1.00113e-23)
(0.00381168 -1.40918e-05 4.25001e-24)
(0.00383353 -2.1449e-05 -6.03827e-24)
(0.00386105 -3.34129e-05 -2.46034e-24)
(0.00389475 -5.46118e-05 -1.90459e-24)
(0.00393385 -9.32604e-05 5.08791e-26)
(0.00397093 -0.00015993 1.42266e-24)
(0.00398693 -0.000249926 6.98099e-27)
(0.00519029 1.50902e-05 -3.4402e-26)
(0.00514048 9.82e-06 -2.1197e-25)
(0.00511211 5.85238e-06 -1.4082e-25)
(0.00509736 2.42525e-06 3.65581e-25)
(0.00509221 -9.68397e-07 -1.06238e-24)
(0.00509429 -4.47889e-06 2.63898e-24)
(0.00510164 -8.84154e-06 -4.65177e-25)
(0.00511457 -1.46134e-05 1.7477e-24)
(0.00513212 -2.23734e-05 -9.70605e-24)
(0.00515435 -3.34924e-05 1.85862e-23)
(0.00518106 -5.01712e-05 -1.80953e-23)
(0.00521104 -7.61736e-05 9.62956e-24)
(0.00524088 -0.000116407 -8.99996e-24)
(0.00526273 -0.000174153 8.52484e-24)
(0.00526579 -0.000241926 -3.4074e-24)
(0.00665377 2.48799e-05 4.53226e-26)
(0.00659381 1.66e-05 1.63526e-25)
(0.00655837 1.03743e-05 -8.7094e-25)
(0.00653867 5.04921e-06 -5.74861e-25)
(0.00652985 -8.68904e-08 1.5109e-24)
(0.00652959 -5.64606e-06 5.55416e-25)
(0.00653524 -1.19946e-05 -4.39341e-24)
(0.00654672 -2.03112e-05 1.06481e-23)
(0.00656272 -3.10718e-05 -1.39856e-23)
(0.00658265 -4.56697e-05 3.33723e-24)
(0.0066054 -6.58777e-05 1.03888e-23)
(0.00662877 -9.39531e-05 -1.4536e-23)
(0.00664894 -0.000131749 7.29876e-24)
(0.00666013 -0.000178754 7.52883e-24)
(0.00665745 -0.000228752 -5.74018e-24)
(0.0082231 3.76043e-05 3.72689e-26)
(0.00815697 2.56854e-05 -2.21753e-25)
(0.00811656 1.67242e-05 8.0479e-25)
(0.0080929 9.1244e-06 -1.12826e-24)
(0.00808082 1.81222e-06 -3.93996e-24)
(0.00807762 -5.81967e-06 6.72794e-24)
(0.00808096 -1.46215e-05 -4.16061e-24)
(0.00808976 -2.54586e-05 1.43754e-23)
(0.00810264 -3.90097e-05 -9.77175e-24)
(0.00811839 -5.63658e-05 -4.63286e-24)
(0.00813539 -7.86196e-05 -9.24231e-24)
(0.00815124 -0.000106612 8.49515e-24)
(0.00816292 -0.000140245 2.40537e-24)
(0.008167 -0.000177667 2.06768e-24)
(0.00816195 -0.000214668 -1.82195e-24)
(0.00988087 5.26697e-05 -5.31485e-26)
(0.00981562 3.67676e-05 7.29911e-25)
(0.00977459 2.47828e-05 -1.71659e-24)
(0.00974961 1.46621e-05 -1.45794e-24)
(0.00973588 5.0232e-06 5.02419e-25)
(0.00973053 -4.9245e-06 1.05302e-24)
(0.00973149 -1.60737e-05 3.94572e-24)
(0.00973728 -2.92774e-05 -1.09172e-23)
(0.00974633 -4.51176e-05 -5.97971e-24)
(0.00975716 -6.42694e-05 1.62194e-23)
(0.00976803 -8.71463e-05 -5.10918e-24)
(0.00977691 -0.000113629 1.74911e-23)
(0.00978187 -0.000142761 -9.23522e-24)
(0.00978115 -0.000172662 -2.95444e-24)
(0.00977487 -0.000200751 1.75162e-24)
(0.011601 6.83126e-05 -6.89168e-27)
(0.0115466 4.86303e-05 4.00482e-25)
(0.0115117 3.36975e-05 -5.72685e-25)
(0.0114901 2.10768e-05 1.41394e-24)
(0.0114778 9.17581e-06 -8.55462e-24)
(0.0114725 -2.97812e-06 9.0721e-24)
(0.0114723 -1.62672e-05 -1.46393e-23)
(0.0114758 -3.13969e-05 8.94739e-24)
(0.0114815 -4.87934e-05 6.77065e-24)
(0.0114879 -6.87185e-05 1.49319e-23)
(0.0114936 -9.10741e-05 -1.95494e-23)
(0.011497 -0.000115272 -3.65569e-24)
(0.0114973 -0.000140211 1.67637e-24)
(0.0114934 -0.000164465 1.20658e-23)
(0.0114864 -0.000186545 -4.91273e-24)
(0.0133533 8.12822e-05 3.63708e-26)
(0.013321 5.87944e-05 -1.641e-25)
(0.0133003 4.15197e-05 7.56296e-25)
(0.0132879 2.68261e-05 -2.69777e-24)
(0.0132815 1.3032e-05 4.13815e-24)
(0.0132796 -9.24038e-07 -5.43488e-24)
(0.0132808 -1.58214e-05 9.2113e-24)
(0.013284 -3.22015e-05 1.69721e-24)
(0.013288 -5.02876e-05 -1.29251e-23)
(0.0132917 -7.0029e-05 1.85971e-23)
(0.0132941 -9.10466e-05 -2.05802e-23)
(0.0132942 -0.000112645 -6.10884e-24)
(0.0132918 -0.000133904 1.07691e-23)
(0.0132865 -0.000153892 3.20144e-24)
(0.0132793 -0.000171796 -1.39969e-24)
(0.0151156 8.73242e-05 1.33519e-25)
(0.0151128 6.36816e-05 -1.2532e-24)
(0.0151127 4.51986e-05 -2.13362e-24)
(0.0151149 2.92926e-05 4.99962e-24)
(0.0151188 1.43437e-05 2.32357e-24)
(0.0151237 -7.25841e-07 -1.46191e-23)
(0.0151293 -1.64035e-05 4.43968e-24)
(0.0151348 -3.31549e-05 3.24771e-24)
(0.0151396 -5.10055e-05 -1.45229e-23)
(0.0151429 -6.97217e-05 1.50612e-23)
(0.0151444 -8.88425e-05 -1.22208e-23)
(0.0151437 -0.000107761 3.13766e-23)
(0.0151408 -0.000125818 -1.51244e-23)
(0.0151357 -0.000142464 8.91557e-24)
(0.0151294 -0.000157279 -2.43412e-24)
(0.0168887 8.31852e-05 -3.6628e-26)
(0.0169137 6.00068e-05 8.18037e-25)
(0.0169347 4.15763e-05 -1.67357e-24)
(0.0169528 2.55007e-05 -9.05317e-25)
(0.0169686 1.03516e-05 1.00311e-23)
(0.0169823 -4.8501e-06 -1.36199e-24)
(0.0169941 -2.03981e-05 -1.82485e-23)
(0.0170039 -3.65762e-05 2.14955e-23)
(0.0170115 -5.33095e-05 -4.80877e-24)
(0.0170167 -7.03078e-05 -1.69468e-23)
(0.0170195 -8.71494e-05 1.81548e-23)
(0.0170199 -0.000103383 9.83307e-24)
(0.0170184 -0.000118583 -8.27506e-24)
(0.0170149 -0.000132451 -1.4345e-23)
(0.0170105 -0.000144788 1.20384e-24)
(0.0186989 6.93237e-05 -1.40347e-26)
(0.0187404 4.72524e-05 -8.85917e-25)
(0.0187751 2.95594e-05 4.48331e-24)
(0.0188043 1.40424e-05 3.97942e-25)
(0.0188291 -6.14363e-07 2.79857e-24)
(0.0188498 -1.50354e-05 -9.71123e-24)
(0.018867 -2.96077e-05 8.48117e-24)
(0.0188808 -4.44192e-05 2.01431e-24)
(0.0188914 -5.93587e-05 1.77748e-23)
(0.0188991 -7.41671e-05 -2.73689e-23)
(0.0189042 -8.85195e-05 -1.24646e-23)
(0.0189067 -0.000102115 -8.26273e-24)
(0.0189074 -0.000114699 1.55728e-23)
(0.0189061 -0.000126125 -4.46107e-25)
(0.018904 -0.000136313 1.50954e-24)
(0.0205737 5.00469e-05 -2.06137e-26)
(0.0206175 2.87047e-05 8.69617e-25)
(0.0206551 1.16341e-05 -1.28026e-24)
(0.0206871 -3.22151e-06 -1.17662e-26)
(0.0207143 -1.70298e-05 1.92102e-24)
(0.0207372 -3.02927e-05 5.01365e-24)
(0.0207561 -4.3419e-05 -1.9478e-23)
(0.0207713 -5.64575e-05 1.56729e-24)
(0.0207832 -6.92974e-05 1.00146e-23)
(0.0207921 -8.17596e-05 -4.66712e-24)
(0.0207984 -9.36357e-05 1.27357e-23)
(0.0208024 -0.00010475 8.9319e-24)
(0.0208047 -0.000114964 -1.62248e-23)
(0.0208052 -0.000124215 1.10816e-23)
(0.0208049 -0.000132481 -9.21772e-24)
(0.0225044 2.99174e-05 -5.329e-25)
(0.0225425 8.74481e-06 4.18402e-25)
(0.0225753 -7.8926e-06 1.51069e-24)
(0.0226035 -2.21166e-05 -8.47596e-24)
(0.0226278 -3.4941e-05 7.52798e-24)
(0.0226481 -4.70283e-05 -5.75538e-24)
(0.0226649 -5.86597e-05 4.09206e-24)
(0.0226784 -6.9895e-05 -2.98431e-23)
(0.0226891 -8.06842e-05 4.31006e-23)
(0.022697 -9.09387e-05 -2.55546e-23)
(0.0227029 -0.000100557 2.28651e-23)
(0.0227067 -0.000109464 1.91398e-23)
(0.0227091 -0.000117601 -3.34614e-23)
(0.0227101 -0.000124955 1.0885e-23)
(0.0227104 -0.000131529 -4.56606e-25)
(0.0244327 1.07888e-05 -1.79604e-26)
(0.0244636 -9.90002e-06 1.25257e-25)
(0.02449 -2.60085e-05 -1.79826e-25)
(0.0245124 -3.94463e-05 -2.36077e-25)
(0.0245315 -5.12807e-05 3.08426e-24)
(0.0245473 -6.21037e-05 -5.36995e-24)
(0.0245603 -7.21921e-05 5.08397e-24)
(0.0245706 -8.16697e-05 -1.63029e-23)
(0.0245786 -9.05564e-05 3.72762e-23)
(0.0245844 -9.88328e-05 -4.78947e-23)
(0.0245886 -0.000106469 3.93232e-23)
(0.0245912 -0.000113454 -1.32987e-23)
(0.0245927 -0.000119781 6.85458e-25)
(0.0245931 -0.000125471 3.02797e-24)
(0.0245929 -0.000130543 -5.82918e-24)
(0.0262628 -7.37939e-06 -1.437e-24)
(0.026288 -2.69311e-05 2.80645e-24)
(0.026309 -4.21173e-05 -1.19717e-24)
(0.0263263 -5.44827e-05 -1.07172e-24)
(0.0263407 -6.50901e-05 4.75744e-24)
(0.0263524 -7.44682e-05 -4.92998e-24)
(0.0263617 -8.29208e-05 -4.6162e-24)
(0.0263688 -9.06319e-05 -1.12664e-23)
(0.0263741 -9.76897e-05 5.67295e-24)
(0.0263778 -0.000104125 2.74797e-23)
(0.0263802 -0.000109969 -1.45372e-23)
(0.0263813 -0.000115238 8.66442e-24)
(0.0263817 -0.000119939 -3.58332e-24)
(0.026381 -0.000124102 -1.05396e-23)
(0.02638 -0.000127762 5.38948e-24)
(0.0278718 -2.50445e-05 4.60365e-25)
(0.0278927 -4.29006e-05 -8.11259e-25)
(0.0279094 -5.66335e-05 -4.10612e-25)
(0.0279228 -6.7561e-05 -1.37137e-25)
(0.0279334 -7.66499e-05 -1.61479e-24)
(0.0279417 -8.43719e-05 7.67385e-24)
(0.0279481 -9.10871e-05 -6.27629e-24)
(0.0279526 -9.69979e-05 -4.1283e-24)
(0.0279558 -0.000102258 3.7746e-24)
(0.0279576 -0.000106896 -4.4692e-24)
(0.0279584 -0.000111017 1.04174e-23)
(0.0279583 -0.000114652 5.26078e-24)
(0.0279576 -0.000117821 -1.96475e-23)
(0.0279561 -0.000120534 1.35502e-23)
(0.0279542 -0.000122817 -2.75538e-24)
(0.0290998 -4.27152e-05 1.33442e-24)
(0.0291165 -5.8121e-05 2.22e-24)
(0.0291292 -6.97673e-05 -4.95981e-24)
(0.0291389 -7.88174e-05 -1.81188e-25)
(0.0291462 -8.60724e-05 1.01577e-24)
(0.0291515 -9.19401e-05 -2.71289e-24)
(0.0291552 -9.67304e-05 -4.17701e-24)
(0.0291575 -0.000100795 9.19455e-24)
(0.0291586 -0.000104251 1.00585e-23)
(0.0291588 -0.000107102 -2.43697e-23)
(0.0291581 -0.000109539 1.39945e-23)
(0.0291565 -0.000111585 -9.24272e-25)
(0.0291545 -0.000113091 -7.58019e-25)
(0.029152 -0.0001143 1.02622e-24)
(0.0291495 -0.000115102 -4.71524e-25)
(0.0297296 -5.82163e-05 -3.45085e-24)
(0.0297407 -7.0726e-05 -7.06704e-24)
(0.0297485 -8.00335e-05 4.28065e-24)
(0.0297539 -8.6898e-05 1.21438e-23)
(0.0297578 -9.21586e-05 -3.27244e-24)
(0.0297601 -9.61446e-05 -3.77902e-25)
(0.0297613 -9.90726e-05 -1.79559e-27)
(0.0297615 -0.00010129 -6.21499e-24)
(0.0297607 -0.000103001 1.54175e-23)
(0.0297593 -0.000104218 -6.6164e-24)
(0.0297575 -0.000104946 3.33646e-24)
(0.0297552 -0.000105283 -5.49146e-24)
(0.0297523 -0.000105307 -5.95355e-24)
(0.029749 -0.000105081 8.80419e-24)
(0.0297453 -0.000104605 -3.80435e-24)
(0.0295507 -7.0333e-05 5.38867e-24)
(0.029558 -7.98613e-05 -1.20946e-23)
(0.0295626 -8.66218e-05 2.22104e-24)
(0.0295652 -9.1435e-05 1.5088e-23)
(0.0295664 -9.47554e-05 -1.38234e-23)
(0.0295665 -9.69059e-05 3.98359e-24)
(0.0295656 -9.82038e-05 3.06225e-25)
(0.0295641 -9.88566e-05 -1.75941e-25)
(0.0295619 -9.89562e-05 3.19339e-24)
(0.0295591 -9.86177e-05 -3.22178e-24)
(0.0295557 -9.79717e-05 -2.67741e-24)
(0.029552 -9.7071e-05 3.64494e-24)
(0.0295478 -9.58815e-05 -4.07413e-24)
(0.0295435 -9.43927e-05 2.47272e-24)
(0.0295388 -9.26198e-05 -1.09874e-24)
(0.0285592 -7.74725e-05 3.29664e-24)
(0.028562 -8.41552e-05 -6.78237e-24)
(0.0285629 -8.87338e-05 -4.02444e-24)
(0.0285623 -9.16204e-05 1.89685e-23)
(0.0285607 -9.32326e-05 -1.62416e-23)
(0.0285583 -9.38973e-05 2.10605e-24)
(0.0285551 -9.38311e-05 2.29848e-24)
(0.0285515 -9.32015e-05 7.27054e-25)
(0.0285473 -9.21314e-05 -4.14502e-25)
(0.0285428 -9.06894e-05 4.49841e-24)
(0.028538 -8.89045e-05 -2.66923e-24)
(0.028533 -8.67995e-05 9.74225e-25)
(0.0285278 -8.43997e-05 -7.97138e-24)
(0.0285224 -8.17419e-05 3.91861e-24)
(0.0285168 -7.88574e-05 1.41508e-24)
(0.0270199 -7.89639e-05 8.11396e-24)
(0.0270185 -8.34041e-05 -1.4109e-23)
(0.0270157 -8.6247e-05 2.96592e-24)
(0.0270121 -8.771e-05 -5.45646e-24)
(0.0270078 -8.81176e-05 -5.72322e-24)
(0.0270029 -8.77322e-05 2.15171e-23)
(0.0269975 -8.67122e-05 -7.3065e-24)
(0.0269919 -8.51759e-05 1.5016e-24)
(0.0269859 -8.32091e-05 -5.84133e-25)
(0.0269799 -8.08687e-05 7.46599e-25)
(0.0269736 -7.82076e-05 -2.66222e-24)
(0.0269673 -7.52809e-05 3.41398e-24)
(0.0269608 -7.21308e-05 -1.31515e-25)
(0.0269543 -6.87835e-05 -1.6106e-24)
(0.0269476 -6.52516e-05 2.81876e-25)
(0.0251346 -7.63017e-05 3.10461e-24)
(0.0251293 -7.91947e-05 -1.53445e-23)
(0.0251229 -8.07051e-05 2.54234e-23)
(0.0251161 -8.10694e-05 -1.8358e-23)
(0.0251088 -8.05649e-05 1.61747e-23)
(0.0251012 -7.93737e-05 -5.95212e-24)
(0.0250935 -7.76226e-05 -3.58734e-24)
(0.0250857 -7.54134e-05 -2.7727e-24)
(0.0250779 -7.28298e-05 2.61832e-24)
(0.0250702 -6.99357e-05 -1.78712e-24)
(0.0250624 -6.6781e-05 -3.4138e-25)
(0.0250547 -6.34039e-05 9.17435e-25)
(0.0250471 -5.98273e-05 -1.46505e-24)
(0.0250396 -5.60672e-05 6.10092e-25)
(0.025032 -5.21357e-05 -1.9664e-25)
(0.0230515 -7.01261e-05 4.11879e-25)
(0.0230417 -7.17544e-05 -5.71546e-24)
(0.0230315 -7.21322e-05 -2.62761e-24)
(0.0230215 -7.16305e-05 2.32145e-23)
(0.0230114 -7.04817e-05 -2.15831e-23)
(0.0230015 -6.8801e-05 5.99496e-24)
(0.0229917 -6.6677e-05 8.5846e-25)
(0.0229822 -6.41823e-05 -3.606e-25)
(0.0229729 -6.13774e-05 -1.01702e-24)
(0.0229639 -5.83071e-05 2.8218e-24)
(0.0229551 -5.50036e-05 -1.59433e-24)
(0.0229466 -5.14927e-05 3.89715e-25)
(0.0229382 -4.77951e-05 -2.89293e-25)
(0.0229303 -4.39326e-05 -1.10771e-24)
(0.0229225 -3.99235e-05 9.62007e-25)
(0.0208772 -6.09876e-05 6.12466e-25)
(0.0208645 -6.15322e-05 5.25675e-24)
(0.0208518 -6.13319e-05 -6.08452e-24)
(0.0208396 -6.05329e-05 -3.68548e-24)
(0.0208279 -5.92236e-05 2.17434e-23)
(0.0208166 -5.74773e-05 -1.66426e-23)
(0.0208057 -5.53611e-05 -5.80427e-25)
(0.0207954 -5.29285e-05 -2.49306e-24)
(0.0207855 -5.02214e-05 6.98966e-26)
(0.0207761 -4.72735e-05 4.48867e-25)
(0.0207671 -4.41113e-05 2.31035e-25)
(0.0207587 -4.07619e-05 5.42486e-25)
(0.0207506 -3.72523e-05 3.05618e-25)
(0.0207431 -3.3604e-05 1.02678e-26)
(0.0207359 -2.9834e-05 -8.07884e-25)
(0.0186971 -5.03804e-05 4.36826e-24)
(0.0186829 -5.07053e-05 -6.59328e-24)
(0.0186693 -5.0429e-05 -4.68748e-24)
(0.0186565 -4.96477e-05 1.41554e-23)
(0.0186444 -4.84464e-05 -5.09696e-24)
(0.0186329 -4.68922e-05 -5.98079e-24)
(0.0186221 -4.50329e-05 2.21429e-24)
(0.018612 -4.29055e-05 3.58705e-24)
(0.0186026 -4.05371e-05 -4.61213e-24)
(0.0185938 -3.79508e-05 3.5722e-24)
(0.0185857 -3.51707e-05 -1.15235e-24)
(0.0185781 -3.22228e-05 1.43185e-26)
(0.0185712 -2.91322e-05 1.2238e-24)
(0.0185649 -2.5919e-05 -1.82882e-24)
(0.0185591 -2.25994e-05 7.17522e-25)
(0.016574 -4.04777e-05 -8.49612e-25)
(0.0165601 -4.08027e-05 -2.75952e-24)
(0.0165469 -4.06251e-05 -8.22746e-24)
(0.0165347 -4.00512e-05 2.28647e-23)
(0.0165233 -3.91423e-05 -4.45662e-24)
(0.0165126 -3.79447e-05 -5.8188e-24)
(0.0165028 -3.64936e-05 1.54599e-24)
(0.0164937 -3.48147e-05 -2.32562e-24)
(0.0164853 -3.29217e-05 -3.44484e-24)
(0.0164777 -3.08268e-05 3.42117e-24)
(0.0164708 -2.85489e-05 1.56096e-25)
(0.0164645 -2.61132e-05 2.8283e-25)
(0.016459 -2.3543e-05 -2.66551e-25)
(0.0164542 -2.08635e-05 -1.72014e-25)
(0.01645 -1.80891e-05 1.9101e-25)
(0.0145505 -3.19972e-05 3.27863e-24)
(0.0145377 -3.24304e-05 4.43245e-24)
(0.0145258 -3.24634e-05 -4.4918e-24)
(0.0145148 -3.21856e-05 -8.55376e-24)
(0.0145045 -3.16288e-05 1.07558e-23)
(0.014495 -3.08296e-05 -1.09407e-23)
(0.0144862 -2.98187e-05 1.62053e-25)
(0.0144782 -2.86123e-05 3.80174e-24)
(0.014471 -2.72126e-05 1.10774e-24)
(0.0144644 -2.5622e-05 -1.31279e-24)
(0.0144586 -2.3855e-05 6.78059e-25)
(0.0144536 -2.19379e-05 5.71473e-25)
(0.0144492 -1.98939e-05 -1.22829e-25)
(0.0144455 -1.77496e-05 2.49512e-25)
(0.0144426 -1.55163e-05 4.00174e-26)
(0.0126505 -2.51058e-05 -3.41606e-24)
(0.0126391 -2.56641e-05 4.35928e-24)
(0.0126285 -2.59081e-05 4.05574e-25)
(0.0126186 -2.59032e-05 7.5177e-24)
(0.0126094 -2.56613e-05 -6.38064e-24)
(0.0126008 -2.52151e-05 2.06191e-25)
(0.0125929 -2.45909e-05 -8.05371e-25)
(0.0125857 -2.37976e-05 -1.58869e-24)
(0.0125791 -2.28315e-05 8.44598e-25)
(0.0125733 -2.16892e-05 -2.65451e-24)
(0.0125681 -2.03806e-05 6.11989e-25)
(0.0125636 -1.89289e-05 6.03962e-25)
(0.0125597 -1.73587e-05 1.43222e-25)
(0.0125566 -1.56915e-05 -4.89833e-26)
(0.0125541 -1.39396e-05 -1.00787e-25)
(0.0108841 -1.95874e-05 2.53794e-24)
(0.010874 -2.02189e-05 -2.03518e-24)
(0.0108644 -2.06132e-05 -8.05361e-24)
(0.0108553 -2.08047e-05 7.53977e-24)
(0.0108468 -2.07954e-05 9.2917e-24)
(0.0108387 -2.06166e-05 -2.89935e-24)
(0.0108312 -2.02889e-05 -4.63249e-24)
(0.0108243 -1.98152e-05 -5.17694e-24)
(0.0108179 -1.91896e-05 3.6461e-24)
(0.0108121 -1.84082e-05 4.2373e-26)
(0.010807 -1.74767e-05 -4.98901e-25)
(0.0108024 -1.64132e-05 3.48017e-26)
(0.0107984 -1.52395e-05 -3.05122e-26)
(0.0107952 -1.39735e-05 -6.12272e-26)
(0.0107925 -1.2628e-05 1.08206e-25)
(0.00925284 -1.51101e-05 -1.60181e-24)
(0.00924361 -1.57476e-05 -1.02247e-24)
(0.00923474 -1.62142e-05 1.39811e-24)
(0.00922617 -1.6513e-05 -3.72727e-24)
(0.00921792 -1.66462e-05 1.20163e-23)
(0.00921005 -1.66428e-05 -1.48578e-23)
(0.00920258 -1.65174e-05 1.35108e-23)
(0.00919553 -1.6269e-05 -5.42688e-24)
(0.00918893 -1.58915e-05 8.96502e-25)
(0.00918281 -1.53808e-05 -2.24328e-25)
(0.0091772 -1.47405e-05 -6.48533e-25)
(0.00917213 -1.39843e-05 -1.07135e-25)
(0.00916763 -1.31293e-05 -7.16748e-26)
(0.00916372 -1.21904e-05 6.44557e-26)
(0.00916038 -1.11783e-05 -4.81944e-26)
(0.00775331 -1.1405e-05 -7.80356e-25)
(0.00774477 -1.1992e-05 2.24857e-25)
(0.00773638 -1.24596e-05 4.24647e-25)
(0.0077281 -1.27893e-05 -1.73755e-24)
(0.00771999 -1.29878e-05 -6.20259e-25)
(0.00771211 -1.30804e-05 6.12089e-24)
(0.00770449 -1.30763e-05 -3.49571e-24)
(0.00769717 -1.29729e-05 3.93599e-25)
(0.00769017 -1.27643e-05 -4.0377e-25)
(0.00768355 -1.24465e-05 -2.94846e-25)
(0.00767735 -1.2022e-05 2.70892e-26)
(0.00767161 -1.15008e-05 2.30232e-25)
(0.00766636 -1.08957e-05 -2.25135e-25)
(0.00766164 -1.02182e-05 1.12049e-25)
(0.00765745 -9.47618e-06 7.73322e-26)
(0.00637969 -8.31116e-06 -2.8445e-25)
(0.00637178 -8.81048e-06 -7.85342e-26)
(0.00636384 -9.22698e-06 -4.18171e-24)
(0.00635585 -9.53264e-06 1.29433e-24)
(0.00634791 -9.73968e-06 -2.48735e-24)
(0.00634006 -9.86825e-06 2.17317e-24)
(0.00633235 -9.92388e-06 3.35115e-24)
(0.00632482 -9.90351e-06 2.05819e-24)
(0.00631752 -9.80205e-06 -2.64336e-24)
(0.00631049 -9.61606e-06 7.83793e-25)
(0.00630379 -9.34684e-06 3.93342e-25)
(0.00629748 -9.00127e-06 -2.51445e-25)
(0.00629158 -8.58856e-06 1.12911e-25)
(0.00628615 -8.11682e-06 1.09913e-25)
(0.0062812 -7.59191e-06 -1.41169e-25)
(0.00512498 -5.75342e-06 -1.11652e-24)
(0.00511778 -6.14677e-06 -1.42367e-24)
(0.00511041 -6.48061e-06 -1.38554e-25)
(0.00510289 -6.72973e-06 3.45258e-24)
(0.00509531 -6.9094e-06 -2.24562e-24)
(0.00508772 -7.03438e-06 -2.87093e-25)
(0.00508017 -7.10783e-06 3.17254e-24)
(0.00507271 -7.12707e-06 -1.38271e-25)
(0.00506538 -7.08812e-06 -6.37571e-25)
(0.00505824 -6.988e-06 -1.45371e-24)
(0.00505136 -6.82712e-06 4.04564e-25)
(0.00504477 -6.60984e-06 5.3432e-25)
(0.00503854 -6.34243e-06 -5.23579e-26)
(0.0050327 -6.03011e-06 1.4037e-25)
(0.00502728 -5.67689e-06 -1.21794e-25)
(0.00398165 -3.70114e-06 -2.44533e-25)
(0.00397535 -3.98635e-06 2.36529e-26)
(0.00396877 -4.22587e-06 1.68984e-24)
(0.00396199 -4.40552e-06 9.92375e-25)
(0.00395507 -4.54029e-06 -8.3898e-25)
(0.00394808 -4.63996e-06 -1.7082e-24)
(0.00394106 -4.70631e-06 5.93224e-25)
(0.00393405 -4.73737e-06 -2.2637e-24)
(0.0039271 -4.7302e-06 1.70153e-24)
(0.00392028 -4.68245e-06 5.94239e-25)
(0.00391364 -4.5939e-06 -1.92911e-25)
(0.00390722 -4.467e-06 -3.96648e-25)
(0.00390108 -4.30568e-06 -2.22613e-27)
(0.00389527 -4.11303e-06 8.01708e-26)
(0.00388981 -3.89133e-06 -6.1972e-26)
(0.00294205 -2.13483e-06 -4.5116e-25)
(0.00293684 -2.32477e-06 2.65989e-26)
(0.00293132 -2.47692e-06 1.37003e-24)
(0.00292558 -2.59062e-06 -8.49631e-25)
(0.00291968 -2.67788e-06 3.10161e-24)
(0.00291366 -2.74452e-06 -5.48992e-24)
(0.00290758 -2.79167e-06 4.11815e-24)
(0.00290146 -2.81813e-06 -3.11668e-24)
(0.00289535 -2.82212e-06 1.9779e-24)
(0.00288931 -2.80198e-06 -1.05589e-24)
(0.00288338 -2.75733e-06 3.29048e-25)
(0.00287762 -2.68935e-06 3.1141e-26)
(0.00287207 -2.60031e-06 -2.76088e-26)
(0.00286676 -2.4918e-06 5.34414e-26)
(0.00286173 -2.36485e-06 -2.54637e-26)
(0.00199858 -1.0273e-06 6.85963e-25)
(0.00199465 -1.14067e-06 6.8616e-25)
(0.00199045 -1.22417e-06 -2.97457e-24)
(0.00198604 -1.28595e-06 2.10474e-24)
(0.00198148 -1.33315e-06 -4.83241e-26)
(0.0019768 -1.3688e-06 4.24714e-25)
(0.00197204 -1.39382e-06 -5.86635e-25)
(0.00196723 -1.40799e-06 -9.85931e-25)
(0.0019624 -1.41068e-06 9.08266e-25)
(0.0019576 -1.40126e-06 2.14338e-26)
(0.00195286 -1.37962e-06 -4.26269e-25)
(0.00194823 -1.34636e-06 1.60678e-25)
(0.00194373 -1.30277e-06 1.02889e-26)
(0.00193941 -1.24953e-06 -7.32308e-27)
(0.0019353 -1.18609e-06 1.70932e-26)
(0.00114384 -3.35666e-07 -6.93574e-25)
(0.00114135 -3.64835e-07 2.06639e-24)
(0.00113866 -3.86245e-07 1.10418e-24)
(0.00113583 -4.04238e-07 -2.11444e-24)
(0.00113289 -4.19162e-07 -2.4124e-25)
(0.00112986 -4.31127e-07 -1.91084e-25)
(0.00112676 -4.40301e-07 5.13586e-25)
(0.00112362 -4.4673e-07 -8.14144e-25)
(0.00112046 -4.50387e-07 9.44112e-25)
(0.00111729 -4.5118e-07 -4.66415e-25)
(0.00111416 -4.4914e-07 -1.90185e-25)
(0.00111108 -4.44476e-07 8.02974e-26)
(0.00110807 -4.37719e-07 4.42421e-26)
(0.00110517 -4.28736e-07 -8.78884e-26)
(0.0011024 -4.13872e-07 3.70936e-26)
(0.000370733 -3.29633e-09 -4.98181e-27)
(0.000369775 8.3562e-08 3.99178e-25)
(0.000368746 1.42986e-07 4.20129e-25)
(0.000367668 1.78683e-07 -6.91813e-25)
(0.000366553 1.95704e-07 1.26696e-24)
(0.000365408 1.97936e-07 -1.38239e-24)
(0.000364237 1.88463e-07 7.6599e-26)
(0.000363049 1.6987e-07 5.70474e-25)
(0.000361851 1.44372e-07 -7.80378e-25)
(0.00036065 1.13924e-07 -7.35423e-26)
(0.000359456 8.02135e-08 3.195e-25)
(0.00035828 4.46773e-08 -1.17868e-25)
(0.00035713 8.42008e-09 1.52963e-26)
(0.000356015 -2.73384e-08 -2.14225e-26)
(0.000354943 -5.92917e-08 3.09216e-27)
(0.00096513 -0.00024929 7.768e-26)
(0.00110707 -0.000164038 1.93906e-24)
(0.00134604 -7.89863e-05 -5.50441e-24)
(0.00159054 -1.29169e-05 7.86658e-24)
(0.00182534 3.58575e-05 -2.94726e-24)
(0.0020552 6.82583e-05 -2.74965e-24)
(0.00227962 8.70921e-05 3.0868e-24)
(0.00249881 9.4755e-05 -5.99783e-24)
(0.00271326 9.33354e-05 4.40507e-25)
(0.00292345 8.47233e-05 3.70034e-24)
(0.00312985 7.05814e-05 -6.83926e-25)
(0.00333299 5.2409e-05 7.16595e-25)
(0.00353339 3.16507e-05 -8.15616e-26)
(0.00373159 9.83073e-06 3.78432e-25)
(0.00392831 -1.13116e-05 -1.3707e-24)
(0.00412445 -2.96267e-05 7.26007e-25)
(0.00432182 -4.25183e-05 -1.72489e-25)
(0.00452276 -4.67079e-05 3.70182e-26)
(0.00473188 -3.91352e-05 2.99151e-25)
(0.00495465 -1.66147e-05 -1.74879e-25)
(0.00519916 2.10275e-05 1.95566e-26)
(0.00547213 7.04804e-05 -1.7897e-26)
(0.00575406 0.000117674 4.67924e-26)
(0.00600758 0.000146549 2.25865e-25)
(0.00621849 0.000152452 -4.02156e-25)
(0.00638653 0.000136759 -3.40475e-25)
(0.00651327 0.000101833 -2.52372e-26)
(0.0066009 4.92322e-05 8.95897e-25)
(0.00665082 -1.9546e-05 1.33775e-24)
(0.00666316 -0.000102386 -2.60823e-24)
(0.00663712 -0.000195891 2.16011e-24)
(0.00657149 -0.000295011 -1.84975e-24)
(0.0064653 -0.000393084 4.07537e-25)
(0.00631819 -0.000482113 -6.42276e-25)
(0.00613067 -0.000553124 5.98533e-25)
(0.005904 -0.000596396 5.68518e-24)
(0.00564009 -0.000601397 -1.29782e-24)
(0.00534128 -0.000556143 1.82428e-24)
(0.0050105 -0.000445724 1.11514e-24)
(0.0046519 -0.000250289 -9.55021e-24)
(0.00427052 5.43534e-05 -1.19753e-25)
(0.00387383 0.000486402 4.25095e-24)
(0.00345442 0.00102283 1.43071e-24)
(0.00303413 0.00155133 -6.0391e-24)
(0.00279971 0.00171516 -3.03551e-25)
(0.0018212 -0.000334951 -2.25358e-24)
(0.00188093 -0.000287107 -3.08072e-24)
(0.00202924 -0.000205404 6.51209e-24)
(0.00221531 -0.000131695 2.92069e-24)
(0.0024128 -7.18457e-05 -1.01925e-23)
(0.00261639 -2.802e-05 1.07339e-23)
(0.00282126 1.42291e-06 -3.8285e-24)
(0.00302504 1.8653e-05 2.94738e-24)
(0.00322674 2.57501e-05 -3.89996e-24)
(0.00342592 2.46926e-05 5.25301e-26)
(0.00362248 1.72448e-05 -1.94041e-24)
(0.00381649 5.00536e-06 3.80615e-24)
(0.00400821 -1.04856e-05 -2.03892e-24)
(0.0041979 -2.76276e-05 -1.62795e-24)
(0.00438609 -4.4637e-05 -8.51544e-25)
(0.00457343 -5.9349e-05 1.98557e-24)
(0.00476153 -6.92016e-05 -1.17022e-25)
(0.00495235 -7.09924e-05 7.22779e-25)
(0.00515021 -6.17499e-05 4.76884e-26)
(0.00536011 -3.83497e-05 -1.6611e-25)
(0.00558984 -5.62444e-07 -5.78895e-26)
(0.00584612 4.86477e-05 -4.27364e-26)
(0.00611174 9.5895e-05 2.45074e-25)
(0.00635229 0.000125805 4.0825e-25)
(0.00655421 0.000133772 -2.81171e-25)
(0.00671686 0.000121003 -1.93911e-24)
(0.00684116 8.98132e-05 2.74323e-24)
(0.00692868 4.18326e-05 -2.03144e-24)
(0.00698034 -2.12432e-05 6.97572e-25)
(0.00699607 -9.70911e-05 -4.37884e-25)
(0.00697504 -0.000182113 3.11355e-24)
(0.00691622 -0.000271176 -3.74526e-24)
(0.00681895 -0.000357634 1.18391e-24)
(0.00668334 -0.000433593 2.93164e-24)
(0.00651051 -0.000490229 -6.25777e-24)
(0.00630261 -0.00051799 1.77946e-24)
(0.00606281 -0.000506539 1.0525e-23)
(0.0057954 -0.000444228 -2.65817e-24)
(0.00550635 -0.000316917 -8.92393e-24)
(0.00520487 -0.000106193 -5.65897e-24)
(0.00490529 0.000210253 1.2923e-23)
(0.00463203 0.000649904 -1.26447e-23)
(0.00441203 0.00118909 -2.86355e-24)
(0.00428948 0.00170426 8.37541e-24)
(0.00431181 0.00180419 2.65573e-24)
(0.00283213 -0.00034428 -2.54268e-26)
(0.00284204 -0.00033944 -3.54314e-24)
(0.0029059 -0.000291634 6.84869e-24)
(0.00302344 -0.000228773 5.5944e-24)
(0.00316861 -0.00016922 -9.19512e-24)
(0.00333188 -0.000120284 1.96673e-25)
(0.00350532 -8.36205e-05 8.59092e-25)
(0.00368386 -5.8609e-05 9.083e-24)
(0.00386465 -4.38936e-05 -1.0722e-23)
(0.00404597 -3.77927e-05 6.42091e-24)
(0.0042268 -3.86575e-05 1.77113e-24)
(0.0044066 -4.49143e-05 -1.01511e-23)
(0.0045851 -5.49964e-05 3.64199e-24)
(0.00476222 -6.72787e-05 1.32743e-24)
(0.00493816 -7.9957e-05 -2.47315e-24)
(0.00511327 -9.08716e-05 3.6932e-24)
(0.00528885 -9.75069e-05 -2.35535e-24)
(0.0054665 -9.6748e-05 6.2156e-26)
(0.00565011 -8.57231e-05 1.90721e-25)
(0.00584419 -6.13763e-05 1.33537e-25)
(0.00605615 -2.34239e-05 1.1643e-26)
(0.0062926 2.55056e-05 6.03726e-26)
(0.00653888 7.27226e-05 -2.56316e-25)
(0.00676377 0.000103576 8.38904e-25)
(0.00695446 0.000113526 -1.51939e-24)
(0.0071099 0.000103625 9.10609e-25)
(0.00723035 7.61558e-05 -2.50815e-24)
(0.00731667 3.28237e-05 3.38763e-24)
(0.00736934 -2.44906e-05 -3.29059e-24)
(0.00738802 -9.32243e-05 1.98403e-25)
(0.00737186 -0.000169615 2.68453e-25)
(0.00732003 -0.00024845 4.36636e-24)
(0.0072322 -0.000323123 -1.31684e-24)
(0.00710897 -0.000385897 1.53317e-24)
(0.00695214 -0.000428204 -5.7536e-24)
(0.00676479 -0.00044086 1.1723e-23)
(0.00655142 -0.000414076 -8.47799e-24)
(0.00631828 -0.000337165 1.3952e-23)
(0.00607423 -0.000197907 -2.71375e-23)
(0.00583275 1.83719e-05 1.04526e-23)
(0.00561463 0.000327411 3.74352e-24)
(0.00545261 0.000737597 5.98966e-24)
(0.0053839 0.00121735 -7.44407e-24)
(0.00543561 0.00164389 2.06726e-24)
(0.00558323 0.00170981 -1.24096e-24)
(0.0039771 -0.000327926 -9.44341e-25)
(0.00395966 -0.000349762 -1.41439e-24)
(0.00397157 -0.000332487 -5.97653e-24)
(0.00402324 -0.00029366 1.72681e-24)
(0.00411149 -0.000245331 1.14141e-24)
(0.00422546 -0.000199534 4.6281e-24)
(0.00435742 -0.000161198 -9.45334e-24)
(0.00450113 -0.00013197 3.67115e-24)
(0.00465231 -0.000111876 1.17244e-23)
(0.00480803 -9.99837e-05 -3.17053e-24)
(0.00496626 -9.5072e-05 -2.85524e-24)
(0.00512568 -9.57931e-05 -4.35461e-25)
(0.00528544 -0.00010068 1.32942e-24)
(0.00544496 -0.000108164 -2.48824e-24)
(0.00560404 -0.000116475 6.18992e-25)
(0.00576265 -0.000123507 -9.52379e-26)
(0.00592172 -0.000126816 -7.21495e-25)
(0.0060824 -0.000123401 4.58978e-25)
(0.00624815 -0.000110512 1.0789e-24)
(0.00642289 -8.5182e-05 -1.43252e-25)
(0.00661358 -4.70829e-05 -1.90249e-25)
(0.00682663 1.47218e-06 -6.14004e-26)
(0.00705007 4.85078e-05 -4.51416e-25)
(0.00725621 8.01556e-05 -1.32049e-25)
(0.00743303 9.19617e-05 -1.51056e-24)
(0.00757905 8.48356e-05 2.417e-24)
(0.00769384 6.10501e-05 -2.48301e-24)
(0.00777756 2.23876e-05 4.85768e-24)
(0.00783017 -2.90896e-05 -4.34751e-24)
(0.00785108 -9.06004e-05 1.00617e-24)
(0.00783942 -0.000158236 1.7966e-24)
(0.00779454 -0.000226748 -1.1582e-25)
(0.00771648 -0.000289635 -2.2957e-25)
(0.00760635 -0.000339419 -6.78315e-25)
(0.00746662 -0.000367957 6.84561e-25)
(0.00730128 -0.000366695 -3.73598e-24)
(0.00711606 -0.000326814 1.84388e-23)
(0.00691888 -0.000239239 -9.6984e-24)
(0.00672071 -9.46409e-05 -1.8984e-25)
(0.00653729 0.000116412 -2.4378e-23)