/*--------------------------------*- C++ -*----------------------------------*\
| =========                 |                                                 |
| \\      /  F ield         | OpenFOAM: The Open Source CFD Toolbox           |
|  \\    /   O peration     | Version:  2312                                  |
|   \\  /    A nd           | Website:  www.openfoam.com                      |
|    \\/     M anipulation  |                                                 |
\*---------------------------------------------------------------------------*/
FoamFile
{
    version     2.0;
    format      ascii;
    arch        "LSB;label=32;scalar=64";
    class       surfaceScalarField;
    location    "48.25";
    object      phi;
}
// * * * * * * * * * * * * * * * * * * * * * * * * * * * * * * * * * * * * * //

dimensions      [0 3 -1 0 0 0 0];

oriented        oriented;

internalField   nonuniform List<scalar> 
9445
(
5.69806e-10
1.17503e-11
5.63563e-10
6.24349e-12
5.60728e-10
2.8345e-12
5.60141e-10
5.87393e-13
5.61074e-10
-9.33439e-13
5.62953e-10
-1.87901e-12
5.65743e-10
-2.78975e-12
5.69449e-10
-3.70573e-12
5.74164e-10
-4.71509e-12
5.80256e-10
-6.09271e-12
5.88826e-10
-8.56983e-12
6.03406e-10
-1.45798e-11
6.36382e-10
-3.29756e-11
7.30834e-10
-9.44524e-11
-2.41344e-10
9.72178e-10
1.99516e-09
5.07974e-11
1.97434e-09
2.70633e-11
1.9648e-09
1.23707e-11
1.96267e-09
2.71747e-12
1.9653e-09
-3.56106e-12
1.9711e-09
-7.6853e-12
1.97983e-09
-1.1517e-11
1.99133e-09
-1.52083e-11
2.00593e-09
-1.93108e-11
2.0247e-09
-2.48669e-11
2.05045e-09
-3.4318e-11
2.08994e-09
-5.40695e-11
2.15615e-09
-9.9182e-11
2.26098e-09
-1.99288e-10
-3.49822e-10
2.36946e-09
3.94716e-09
1.24377e-10
3.90779e-09
6.64267e-11
3.88956e-09
3.06046e-11
3.88512e-09
7.15862e-12
3.88931e-09
-7.75267e-12
3.89942e-09
-1.77995e-11
3.91483e-09
-2.69236e-11
3.93495e-09
-3.53275e-11
3.96016e-09
-4.45189e-11
3.9918e-09
-5.65139e-11
4.0327e-09
-7.52152e-11
4.0874e-09
-1.08765e-10
4.15847e-09
-1.70257e-10
4.23241e-09
-2.73223e-10
-3.92152e-10
4.27474e-09
6.57192e-09
2.40447e-10
6.50948e-09
1.28867e-10
6.48004e-09
6.00499e-11
6.47204e-09
1.51596e-11
6.47733e-09
-1.30425e-11
6.49165e-09
-3.21255e-11
6.51389e-09
-4.91551e-11
6.54265e-09
-6.40932e-11
6.57797e-09
-7.98331e-11
6.62067e-09
-9.92148e-11
6.67194e-09
-1.26486e-10
6.73158e-09
-1.68407e-10
6.79338e-09
-2.32062e-10
6.83827e-09
-3.18105e-10
-4.00114e-10
6.84623e-09
1.0046e-08
4.06799e-10
9.95583e-09
2.19072e-10
9.9123e-09
1.03577e-10
9.899e-09
2.84652e-11
9.90447e-09
-1.85165e-11
9.92246e-09
-5.01196e-11
9.9509e-09
-7.75942e-11
9.98739e-09
-1.00582e-10
1.00311e-08
-1.23513e-10
1.00816e-08
-1.49697e-10
1.01377e-08
-1.82619e-10
1.01953e-08
-2.2604e-10
1.02446e-08
-2.81389e-10
1.027e-08
-3.43414e-10
-3.93228e-10
1.02631e-08
1.45776e-08
6.28985e-10
1.44559e-08
3.40783e-10
1.43957e-08
1.63768e-10
1.43752e-08
4.90078e-11
1.43795e-08
-2.28315e-11
1.44004e-08
-7.10019e-11
1.44337e-08
-1.10909e-10
1.44761e-08
-1.42973e-10
1.45254e-08
-1.72895e-10
1.45798e-08
-2.04077e-10
1.4636e-08
-2.38792e-10
1.4688e-08
-2.78032e-10
1.47266e-08
-3.20036e-10
1.47422e-08
-3.58998e-10
-3.84438e-10
1.47334e-08
2.0404e-08
9.06371e-10
2.02503e-08
4.94543e-10
2.01725e-08
2.41486e-10
2.01435e-08
7.80624e-11
2.01456e-08
-2.49986e-11
2.01685e-08
-9.38383e-11
2.0205e-08
-1.47427e-10
2.02511e-08
-1.89061e-10
2.03032e-08
-2.25032e-10
2.03579e-08
-2.58781e-10
2.04108e-08
-2.9168e-10
2.04561e-08
-3.23305e-10
2.04873e-08
-3.51288e-10
2.05001e-08
-3.71746e-10
-3.80184e-10
2.04958e-08
2.7785e-08
1.22598e-09
2.76057e-08
6.73917e-10
2.75137e-08
3.33407e-10
2.74776e-08
1.14162e-10
2.7478e-08
-2.53769e-11
2.75023e-08
-1.18076e-10
2.7541e-08
-1.86183e-10
2.7589e-08
-2.37086e-10
2.76416e-08
-2.77606e-10
2.76943e-08
-3.11475e-10
2.77426e-08
-3.39963e-10
2.7782e-08
-3.6271e-10
2.78091e-08
-3.78355e-10
2.78227e-08
-3.85351e-10
-3.82635e-10
2.78251e-08
3.69933e-08
1.55562e-09
3.68065e-08
8.60723e-10
3.67112e-08
4.28712e-10
3.66747e-08
1.50665e-10
3.6677e-08
-2.76839e-11
3.67043e-08
-1.45366e-10
3.6746e-08
-2.27914e-10
3.67958e-08
-2.86855e-10
3.68482e-08
-3.30032e-10
3.68987e-08
-3.61943e-10
3.69433e-08
-3.84611e-10
3.69794e-08
-3.98729e-10
3.70055e-08
-4.04455e-10
3.70222e-08
-4.02089e-10
-3.92314e-10
3.70319e-08
4.83116e-08
1.84219e-09
4.815e-08
1.02235e-09
4.80721e-08
5.06639e-10
4.8049e-08
1.73778e-10
4.80622e-08
-4.08984e-11
4.80982e-08
-1.8141e-10
4.81467e-08
-2.76379e-10
4.82008e-08
-3.40956e-10
4.82553e-08
-3.84501e-10
4.83061e-08
-4.12753e-10
4.83505e-08
-4.29039e-10
4.83872e-08
-4.3543e-10
4.84162e-08
-4.33448e-10
4.84387e-08
-4.24574e-10
-4.10284e-10
4.84567e-08
6.20582e-08
2.02568e-09
6.19626e-08
1.11799e-09
6.19299e-08
5.39288e-10
6.19398e-08
1.63929e-10
6.19777e-08
-7.88044e-11
6.20323e-08
-2.35997e-10
6.20947e-08
-3.38782e-10
6.21589e-08
-4.05186e-10
6.22207e-08
-4.46296e-10
6.22772e-08
-4.69295e-10
6.23271e-08
-4.78894e-10
6.237e-08
-4.78383e-10
6.24068e-08
-4.70236e-10
6.24388e-08
-4.56554e-10
-4.39111e-10
6.24676e-08
7.86604e-08
2.07297e-09
7.86589e-08
1.11947e-09
7.86934e-08
5.0478e-10
7.87529e-08
1.04428e-10
7.88281e-08
-1.53984e-10
7.89109e-08
-3.1882e-10
7.89951e-08
-4.22926e-10
7.90763e-08
-4.86423e-10
7.9152e-08
-5.22006e-10
7.92209e-08
-5.38156e-10
7.92827e-08
-5.40678e-10
7.9338e-08
-5.33689e-10
7.93879e-08
-5.2019e-10
7.94339e-08
-5.0252e-10
-4.82481e-10
7.94773e-08
9.87468e-08
2.00708e-09
9.88301e-08
1.03619e-09
9.89282e-08
4.06632e-10
9.90365e-08
-3.89365e-12
9.9149e-08
-2.66462e-10
9.92608e-08
-4.30633e-10
9.93682e-08
-5.30248e-10
9.94687e-08
-5.86947e-10
9.95614e-08
-6.14728e-10
9.96463e-08
-6.23035e-10
9.9724e-08
-6.1836e-10
9.97955e-08
-6.05255e-10
9.98623e-08
-5.86929e-10
9.99255e-08
-5.65727e-10
-5.43349e-10
9.99863e-08
1.23136e-07
1.88988e-09
1.23259e-07
9.13135e-10
1.23388e-07
2.77899e-10
1.2352e-07
-1.36113e-10
1.23651e-07
-3.97167e-10
1.23777e-07
-5.56874e-10
1.23897e-07
-6.49888e-10
1.24009e-07
-6.98951e-10
1.24113e-07
-7.1904e-10
1.2421e-07
-7.20249e-10
1.24301e-07
-7.09447e-10
1.24387e-07
-6.91361e-10
1.2447e-07
-6.69239e-10
1.24549e-07
-6.45338e-10
-6.21207e-10
1.24627e-07
1.52626e-07
1.76647e-09
1.52747e-07
7.92393e-10
1.52869e-07
1.56318e-10
1.52993e-07
-2.60191e-10
1.53114e-07
-5.18893e-10
1.53232e-07
-6.74915e-10
1.53346e-07
-7.63261e-10
1.53454e-07
-8.0727e-10
1.53558e-07
-8.22523e-10
1.53657e-07
-8.19501e-10
1.53753e-07
-8.05267e-10
1.53846e-07
-7.84605e-10
1.53937e-07
-7.60731e-10
1.54028e-07
-7.35804e-10
-7.11239e-10
1.54118e-07
1.87706e-07
1.63721e-09
1.87815e-07
6.83589e-10
1.87916e-07
5.50156e-11
1.88017e-07
-3.60686e-10
1.88114e-07
-6.16341e-10
1.8821e-07
-7.70442e-10
1.88304e-07
-8.57363e-10
1.88397e-07
-9.00232e-10
1.88489e-07
-9.14695e-10
1.88581e-07
-9.11322e-10
1.88673e-07
-8.97215e-10
1.88765e-07
-8.77132e-10
1.88859e-07
-8.54228e-10
1.88953e-07
-8.30574e-10
-8.07464e-10
1.8905e-07
2.284e-07
1.48008e-09
2.28509e-07
5.74487e-10
2.28602e-07
-3.78512e-11
2.28681e-07
-4.4009e-10
2.28756e-07
-6.90612e-10
2.28829e-07
-8.43215e-10
2.28902e-07
-9.30902e-10
2.28978e-07
-9.75778e-10
2.29056e-07
-9.92964e-10
2.29137e-07
-9.92756e-10
2.29222e-07
-9.82087e-10
2.29311e-07
-9.65577e-10
2.29403e-07
-9.46287e-10
2.29498e-07
-9.26205e-10
-9.06564e-10
2.29597e-07
2.74179e-07
1.28195e-09
2.74304e-07
4.49857e-10
2.74395e-07
-1.28544e-10
2.74463e-07
-5.0841e-10
2.74522e-07
-7.49746e-10
2.74579e-07
-9.00249e-10
2.74638e-07
-9.89916e-10
2.74701e-07
-1.03902e-09
2.7477e-07
-1.06166e-09
2.74845e-07
-1.0675e-09
2.74926e-07
-1.06306e-09
2.75013e-07
-1.05268e-09
2.75106e-07
-1.03927e-09
2.75205e-07
-1.02471e-09
-1.01018e-09
2.75308e-07
3.23653e-07
1.0437e-09
3.23796e-07
3.07538e-10
3.23892e-07
-2.2445e-10
3.23959e-07
-5.76051e-10
3.24014e-07
-8.04815e-10
3.24066e-07
-9.51614e-10
3.24119e-07
-1.04282e-09
3.24176e-07
-1.09667e-09
3.2424e-07
-1.1258e-09
3.24312e-07
-1.13895e-09
3.24391e-07
-1.14204e-09
3.24477e-07
-1.13906e-09
3.24571e-07
-1.13268e-09
3.24671e-07
-1.12467e-09
-1.11583e-09
3.24776e-07
3.73913e-07
7.67484e-10
3.74082e-07
1.38057e-10
3.74175e-07
-3.16525e-10
3.7422e-07
-6.21308e-10
3.74242e-07
-8.27154e-10
3.74255e-07
-9.6467e-10
3.74268e-07
-1.05537e-09
3.74285e-07
-1.1139e-09
3.7431e-07
-1.1507e-09
3.74344e-07
-1.17304e-09
3.74388e-07
-1.18584e-09
3.74441e-07
-1.19247e-09
3.74504e-07
-1.19522e-09
3.74575e-07
-1.19562e-09
-1.19476e-09
3.74654e-07
3.72097e-07
4.8391e-10
3.72268e-07
-3.3206e-11
3.72358e-07
-4.06644e-10
3.72403e-07
-6.66245e-10
3.72425e-07
-8.48686e-10
3.72436e-07
-9.75646e-10
3.72444e-07
-1.06377e-09
3.72455e-07
-1.12495e-09
3.72472e-07
-1.16749e-09
3.72496e-07
-1.19711e-09
3.72528e-07
-1.21777e-09
3.72568e-07
-1.23224e-09
3.72615e-07
-1.24242e-09
3.72669e-07
-1.24962e-09
-1.25461e-09
3.72729e-07
3.19465e-07
2.98752e-10
3.19554e-07
-1.22487e-10
3.19581e-07
-4.3314e-10
3.19573e-07
-6.58577e-10
3.19547e-07
-8.22122e-10
3.19512e-07
-9.41152e-10
3.19477e-07
-1.02823e-09
3.19444e-07
-1.09248e-09
3.19417e-07
-1.14036e-09
3.19396e-07
-1.17645e-09
3.19382e-07
-1.20396e-09
3.19375e-07
-1.22517e-09
3.19375e-07
-1.24163e-09
3.19379e-07
-1.25443e-09
-1.2643e-09
3.19389e-07
2.68168e-07
1.27269e-10
2.68255e-07
-2.09383e-10
2.68285e-07
-4.62469e-10
2.68279e-07
-6.52456e-10
2.68251e-07
-7.94895e-10
2.68213e-07
-9.02365e-10
2.68169e-07
-9.84238e-10
2.68123e-07
-1.04731e-09
2.68079e-07
-1.09646e-09
2.68038e-07
-1.1352e-09
2.68e-07
-1.16604e-09
2.67966e-07
-1.19074e-09
2.67935e-07
-1.21053e-09
2.67907e-07
-1.22626e-09
-1.2385e-09
2.67881e-07
2.21527e-07
-4.41969e-12
2.21589e-07
-2.70926e-10
2.21603e-07
-4.76173e-10
2.21584e-07
-6.34214e-10
2.21546e-07
-7.56248e-10
2.21494e-07
-8.51197e-10
2.21436e-07
-9.25871e-10
2.21374e-07
-9.85262e-10
2.21311e-07
-1.03298e-09
2.21247e-07
-1.07163e-09
2.21184e-07
-1.1031e-09
2.21122e-07
-1.12871e-09
2.21061e-07
-1.14939e-09
2.21e-07
-1.1658e-09
-1.17836e-09
2.2094e-07
1.80607e-07
-9.2257e-11
1.80638e-07
-3.01902e-10
1.80628e-07
-4.66687e-10
1.80591e-07
-5.96511e-10
1.80534e-07
-6.99438e-10
1.80464e-07
-7.81709e-10
1.80387e-07
-8.4812e-10
1.80303e-07
-9.02231e-10
1.80217e-07
-9.4664e-10
1.80129e-07
-9.83245e-10
1.80039e-07
-1.01341e-09
1.79948e-07
-1.03811e-09
1.79857e-07
-1.05802e-09
1.79765e-07
-1.07364e-09
-1.08527e-09
1.79672e-07
1.45548e-07
-1.37801e-10
1.45547e-07
-3.01151e-10
1.45512e-07
-4.32167e-10
1.45454e-07
-5.37703e-10
1.45378e-07
-6.23435e-10
1.4529e-07
-6.93626e-10
1.45193e-07
-7.51545e-10
1.4509e-07
-7.99657e-10
1.44984e-07
-8.3979e-10
1.44874e-07
-8.73285e-10
1.44761e-07
-9.01104e-10
1.44647e-07
-9.23947e-10
1.44531e-07
-9.42293e-10
1.44414e-07
-9.56495e-10
-9.66783e-10
1.44296e-07
1.16034e-07
-1.48241e-10
1.16008e-07
-2.74571e-10
1.15953e-07
-3.78004e-10
1.15879e-07
-4.63208e-10
1.1579e-07
-5.3402e-10
1.15689e-07
-5.93248e-10
1.15581e-07
-6.4306e-10
1.15466e-07
-6.85129e-10
1.15347e-07
-7.20709e-10
1.15225e-07
-7.5072e-10
1.15099e-07
-7.75827e-10
1.14972e-07
-7.9651e-10
1.14843e-07
-8.13106e-10
1.14712e-07
-8.25863e-10
-8.34945e-10
1.1458e-07
9.15526e-08
-1.35439e-10
9.15107e-08
-2.32706e-10
9.14467e-08
-3.13939e-10
9.13658e-08
-3.82353e-10
9.12722e-08
-4.40413e-10
9.11689e-08
-4.89901e-10
9.1058e-08
-5.32234e-10
9.09414e-08
-5.68523e-10
9.08203e-08
-5.99604e-10
9.06957e-08
-6.2609e-10
9.05683e-08
-6.48424e-10
9.04387e-08
-6.6693e-10
9.03074e-08
-6.81832e-10
9.01749e-08
-6.93306e-10
-7.0146e-10
9.00414e-08
7.15076e-08
-1.11432e-10
7.14607e-08
-1.85877e-10
7.13961e-08
-2.4926e-10
7.13175e-08
-3.03772e-10
7.1228e-08
-3.50898e-10
7.11298e-08
-3.91741e-10
7.10248e-08
-4.27215e-10
7.09143e-08
-4.58038e-10
7.07994e-08
-4.84748e-10
7.06811e-08
-5.07738e-10
7.056e-08
-5.27294e-10
7.04367e-08
-5.43626e-10
7.03117e-08
-5.56878e-10
7.01856e-08
-5.67166e-10
-5.7456e-10
7.00587e-08
5.52796e-08
-8.48251e-11
5.5235e-08
-1.41262e-10
5.51759e-08
-1.90197e-10
5.51052e-08
-2.33079e-10
5.50251e-08
-2.70742e-10
5.49372e-08
-3.03864e-10
5.4843e-08
-3.33025e-10
5.47436e-08
-3.58671e-10
5.464e-08
-3.81133e-10
5.45329e-08
-4.00653e-10
5.4423e-08
-4.17407e-10
5.43109e-08
-4.31524e-10
5.41972e-08
-4.4309e-10
5.40822e-08
-4.52181e-10
-4.58834e-10
5.39664e-08
4.22672e-08
-6.04335e-11
4.22285e-08
-1.0262e-10
4.21781e-08
-1.39787e-10
4.21179e-08
-1.72867e-10
4.20495e-08
-2.02305e-10
4.19741e-08
-2.2853e-10
4.1893e-08
-2.51896e-10
4.1807e-08
-2.72667e-10
4.17169e-08
-2.91036e-10
4.16234e-08
-3.07142e-10
4.15271e-08
-3.21088e-10
4.14285e-08
-3.32946e-10
4.13282e-08
-3.42764e-10
4.12266e-08
-3.50586e-10
-3.56428e-10
4.11242e-08
3.19185e-08
-4.03179e-11
3.18871e-08
-7.12734e-11
3.18462e-08
-9.88391e-11
3.1797e-08
-1.2367e-10
3.17407e-08
-1.46013e-10
3.16783e-08
-1.66143e-10
3.16107e-08
-1.8427e-10
3.15385e-08
-2.00537e-10
3.14625e-08
-2.15048e-10
3.13833e-08
-2.27877e-10
3.13013e-08
-2.39078e-10
3.1217e-08
-2.48687e-10
3.1131e-08
-2.56727e-10
3.10436e-08
-2.63219e-10
-2.68165e-10
3.09554e-08
2.37488e-08
-2.4967e-11
2.37247e-08
-4.71366e-11
2.36928e-08
-6.69187e-11
2.3654e-08
-8.49026e-11
2.36092e-08
-1.01234e-10
2.35592e-08
-1.16098e-10
2.35045e-08
-1.29608e-10
2.34458e-08
-1.41834e-10
2.33836e-08
-1.52827e-10
2.33183e-08
-1.62621e-10
2.32505e-08
-1.71239e-10
2.31805e-08
-1.78694e-10
2.31088e-08
-1.84995e-10
2.30357e-08
-1.90148e-10
-1.94147e-10
2.29617e-08
1.73455e-08
-1.41557e-11
1.73278e-08
-2.9396e-11
1.73039e-08
-4.30039e-11
1.72744e-08
-5.54431e-11
1.724e-08
-6.68216e-11
1.72012e-08
-7.7272e-11
1.71584e-08
-8.685e-11
1.71122e-08
-9.55844e-11
1.70628e-08
-1.03495e-10
1.70108e-08
-1.10592e-10
1.69565e-08
-1.16883e-10
1.69001e-08
-1.22368e-10
1.68422e-08
-1.27049e-10
1.6783e-08
-1.30921e-10
-1.33976e-10
1.67228e-08
1.2364e-08
-7.16597e-12
1.23516e-08
-1.70231e-11
1.23345e-08
-2.58618e-11
1.2313e-08
-3.39522e-11
1.22876e-08
-4.13949e-11
1.22586e-08
-4.82871e-11
1.22264e-08
-5.46518e-11
1.21913e-08
-6.04968e-11
1.21536e-08
-6.58258e-11
1.21137e-08
-7.06383e-11
1.20717e-08
-7.49333e-11
1.20281e-08
-7.87063e-11
1.1983e-08
-8.19548e-11
1.19367e-08
-8.46707e-11
-8.68427e-11
1.18896e-08
8.52023e-09
-3.08054e-12
8.51214e-09
-8.93199e-12
8.50049e-09
-1.42136e-11
8.48557e-09
-1.90348e-11
8.46767e-09
-2.34916e-11
8.44703e-09
-2.76505e-11
8.4239e-09
-3.15183e-11
8.39849e-09
-3.50936e-11
8.37104e-09
-3.83738e-11
8.34176e-09
-4.13541e-11
8.31086e-09
-4.40311e-11
8.27855e-09
-4.6399e-11
8.24505e-09
-4.84549e-11
8.21057e-09
-5.019e-11
-5.1592e-11
8.17532e-09
5.58209e-09
-1.0034e-12
5.57723e-09
-4.06669e-12
5.56984e-09
-6.83001e-12
5.56015e-09
-9.33811e-12
5.54832e-09
-1.16684e-11
5.53453e-09
-1.38597e-11
5.51893e-09
-1.59116e-11
5.50165e-09
-1.78202e-11
5.48286e-09
-1.95818e-11
5.4627e-09
-2.11916e-11
5.44131e-09
-2.26462e-11
5.41886e-09
-2.3941e-11
5.39548e-09
-2.50738e-11
5.37132e-09
-2.60378e-11
-2.68204e-11
5.34655e-09
3.36097e-09
-1.72846e-13
3.35837e-09
-1.46646e-12
3.35414e-09
-2.60016e-12
3.34843e-09
-3.62199e-12
3.34134e-09
-4.57892e-12
3.33297e-09
-5.4864e-12
3.3234e-09
-6.34237e-12
3.31272e-09
-7.14365e-12
3.30102e-09
-7.88742e-12
3.2884e-09
-8.57067e-12
3.27495e-09
-9.19136e-12
3.26075e-09
-9.74669e-12
3.24592e-09
-1.02356e-11
3.23053e-09
-1.06538e-11
-1.09913e-11
3.2147e-09
1.70429e-09
9.27939e-15
1.70315e-09
-3.21356e-13
1.70112e-09
-5.78174e-13
1.69831e-09
-8.07915e-13
1.69476e-09
-1.02818e-12
1.69051e-09
-1.23948e-12
1.68561e-09
-1.44075e-12
1.6801e-09
-1.63044e-12
1.67402e-09
-1.8074e-12
1.66742e-09
-1.97051e-12
1.66035e-09
-2.11914e-12
1.65285e-09
-2.25238e-12
1.64499e-09
-2.36997e-12
1.6368e-09
-2.46995e-12
-2.54712e-12
1.62836e-09
4.89174e-10
4.88852e-10
4.88274e-10
4.87466e-10
4.86438e-10
4.85199e-10
4.83758e-10
4.82127e-10
4.8032e-10
4.7835e-10
4.7623e-10
4.73978e-10
4.71608e-10
4.69138e-10
4.66591e-10
1.16579e-09
-4.40362e-10
2.46751e-10
1.4456e-09
-3.34938e-10
5.51235e-11
1.73013e-09
-1.60541e-10
-1.23984e-10
2.01324e-09
2.07937e-11
-3.03902e-10
2.29292e-09
2.04123e-10
-4.83809e-10
2.5699e-09
3.81481e-10
-6.58458e-10
2.8455e-09
5.4987e-10
-8.25475e-10
3.12075e-09
7.06228e-10
-9.81472e-10
3.39637e-09
8.46867e-10
-1.12249e-09
3.67292e-09
9.67479e-10
-1.24402e-09
3.9508e-09
1.06294e-09
-1.34083e-09
4.23038e-09
1.12718e-09
-1.40677e-09
4.51201e-09
1.15293e-09
-1.43456e-09
4.79595e-09
1.13167e-09
-1.41562e-09
5.08249e-09
1.05389e-09
-1.34043e-09
5.37197e-09
9.10985e-10
-1.20047e-09
5.66511e-09
6.96823e-10
-9.89966e-10
5.96356e-09
4.12758e-10
-7.11208e-10
6.27028e-09
7.09092e-11
-3.77622e-10
6.58998e-09
-3.01217e-10
-1.84873e-11
6.92858e-09
-6.8256e-10
3.43957e-10
7.28926e-09
-1.06946e-09
7.08784e-10
7.61419e-09
-1.29669e-09
9.71758e-10
7.87934e-09
-1.46231e-09
1.19716e-09
8.08427e-09
-1.65199e-09
1.44706e-09
8.23145e-09
-1.8445e-09
1.69732e-09
8.32495e-09
-2.02347e-09
1.92996e-09
8.36951e-09
-2.17859e-09
2.13403e-09
8.36789e-09
-2.3035e-09
2.30512e-09
8.32235e-09
-2.37888e-09
2.42441e-09
8.23565e-09
-2.41295e-09
2.49966e-09
8.10933e-09
-2.39165e-09
2.51797e-09
7.94512e-09
-2.29386e-09
2.45806e-09
7.74529e-09
-2.11135e-09
2.31119e-09
7.51244e-09
-1.83689e-09
2.06974e-09
7.24912e-09
-1.46633e-09
1.72965e-09
6.95762e-09
-9.98166e-10
1.28967e-09
6.64007e-09
-4.31196e-10
7.48745e-10
6.29848e-09
2.38711e-10
1.02875e-10
5.93416e-09
1.02062e-09
-6.56305e-10
5.54313e-09
1.91983e-09
-1.5288e-09
5.10789e-09
2.90915e-09
-2.47391e-09
4.59576e-09
3.85063e-09
-3.3385e-09
4.01238e-09
4.39912e-09
-3.81574e-09
3.76235e-09
3.64622e-09
-3.39619e-09
2.44695e-09
-5.17846e-10
2.61754e-09
-5.05535e-10
2.85023e-09
-3.93228e-10
3.11203e-09
-2.41003e-10
3.38896e-09
-7.28096e-11
3.67389e-09
9.65555e-11
3.96392e-09
2.59838e-10
4.25782e-09
4.12322e-10
4.55506e-09
5.49631e-10
4.85539e-09
6.67154e-10
5.15872e-09
7.59607e-10
5.46509e-09
8.20812e-10
5.77454e-09
8.43488e-10
6.08709e-09
8.19115e-10
6.40273e-09
7.3825e-10
6.72149e-09
5.9223e-10
7.04368e-09
3.74631e-10
7.37051e-09
8.5925e-11
7.70446e-09
-2.63041e-10
8.04981e-09
-6.46564e-10
8.41221e-09
-1.04496e-09
8.79483e-09
-1.45208e-09
9.13758e-09
-1.63944e-09
9.41656e-09
-1.74128e-09
9.63203e-09
-1.86746e-09
9.78668e-09
-1.99915e-09
9.88482e-09
-2.12161e-09
9.93124e-09
-2.22501e-09
9.92869e-09
-2.30095e-09
9.88015e-09
-2.33034e-09
9.78874e-09
-2.32154e-09
9.65603e-09
-2.25894e-09
9.48456e-09
-2.12238e-09
9.27756e-09
-1.90436e-09
9.03897e-09
-1.5983e-09
8.77314e-09
-1.2005e-09
8.48498e-09
-7.10008e-10
8.18054e-09
-1.26758e-10
7.86836e-09
5.50892e-10
7.56144e-09
1.32755e-09
7.27793e-09
2.20335e-09
7.03994e-09
3.14713e-09
6.87402e-09
4.01655e-09
6.81116e-09
4.46198e-09
3.8793e-09
6.69421e-09
4.29138e-09
-5.34492e-10
4.37075e-09
-5.84905e-10
4.5255e-09
-5.47976e-10
4.7361e-09
-4.51598e-10
4.98316e-09
-3.19873e-10
5.25413e-09
-1.74411e-10
5.54148e-09
-2.75184e-11
5.84076e-09
1.13043e-10
6.14923e-09
2.41159e-10
6.4652e-09
3.51187e-10
6.78759e-09
4.37217e-10
7.1157e-09
4.927e-10
7.44901e-09
5.10176e-10
7.78706e-09
4.81071e-10
8.12934e-09
3.95971e-10
8.47535e-09
2.46217e-10
8.82482e-09
2.51566e-11
9.1783e-09
-2.67547e-10
9.53749e-09
-6.22234e-10
9.90591e-09
-1.01498e-09
1.02886e-08
-1.42766e-09
1.06885e-08
-1.85195e-09
1.1044e-08
-1.99499e-09
1.13321e-08
-2.02936e-09
1.15539e-08
-2.08929e-09
1.17125e-08
-2.15769e-09
1.18123e-08
-2.22144e-09
1.18581e-08
-2.27077e-09
1.18526e-08
-2.29551e-09
1.18001e-08
-2.27779e-09
1.17038e-08
-2.2252e-09
1.15649e-08
-2.12006e-09
1.13873e-08
-1.94482e-09
1.11755e-08
-1.69259e-09
1.09351e-08
-1.35783e-09
1.06725e-08
-9.37906e-10
1.03958e-08
-4.33319e-10
1.01156e-08
1.53476e-10
9.84721e-09
8.19246e-10
9.61467e-09
1.56008e-09
9.45386e-09
2.36416e-09
9.41108e-09
3.18991e-09
9.52214e-09
3.9055e-09
9.724e-09
4.26012e-09
3.82118e-09
9.78213e-09
6.82966e-09
-5.17922e-10
6.84757e-09
-6.02818e-10
6.92404e-09
-6.24447e-10
7.06488e-09
-5.92436e-10
7.25788e-09
-5.12875e-10
7.4905e-09
-4.07027e-10
7.75318e-09
-2.90203e-10
8.03889e-09
-1.7267e-10
8.34259e-09
-6.25358e-11
8.66073e-09
3.30462e-11
8.99085e-09
1.07098e-10
9.33116e-09
1.52387e-10
9.68027e-09
1.61072e-10
1.00369e-08
1.24411e-10
1.03999e-08
3.2981e-11
1.0768e-08
-1.21838e-10
1.114e-08
-3.46847e-10
1.15155e-08
-6.43099e-10
1.18953e-08
-1.00198e-09
1.22815e-08
-1.40125e-09
1.26783e-08
-1.82447e-09
1.30879e-08
-2.26153e-09
1.34485e-08
-2.3556e-09
1.37385e-08
-2.31938e-09
1.39604e-08
-2.31112e-09
1.41173e-08
-2.31459e-09
1.42142e-08
-2.31838e-09
1.42552e-08
-2.31176e-09
1.42439e-08
-2.28423e-09
1.41857e-08
-2.21959e-09
1.40836e-08
-2.1231e-09
1.39385e-08
-1.97491e-09
1.3756e-08
-1.76231e-09
1.3542e-08
-1.47863e-09
1.33039e-08
-1.11973e-09
1.30507e-08
-6.84701e-10
1.27937e-08
-1.76313e-10
1.25478e-08
3.99414e-10
1.23338e-08
1.03321e-09
1.21822e-08
1.71162e-09
1.21352e-08
2.41117e-09
1.22391e-08
3.08603e-09
1.25114e-08
3.63316e-09
1.2886e-08
3.88558e-09
3.61255e-09
1.30946e-08
1.02332e-08
-4.88062e-10
1.02165e-08
-5.86087e-10
1.02348e-08
-6.42791e-10
1.03033e-08
-6.60907e-10
1.04286e-08
-6.38174e-10
1.06028e-08
-5.81282e-10
1.08186e-08
-5.05969e-10
1.10688e-08
-4.22838e-10
1.13472e-08
-3.40944e-10
1.16489e-08
-2.6866e-10
1.19701e-08
-2.14105e-10
1.23078e-08
-1.85333e-10
1.26596e-08
-1.9069e-10
1.30232e-08
-2.39168e-10
1.33964e-08
-3.40235e-10
1.3777e-08
-5.0242e-10
1.41627e-08
-7.3258e-10
1.45519e-08
-1.03235e-09
1.49439e-08
-1.39396e-09
1.53393e-08
-1.79667e-09
1.57406e-08
-2.22577e-09
1.61489e-08
-2.66974e-09
1.65035e-08
-2.71027e-09
1.67854e-08
-2.60121e-09
1.69981e-08
-2.52387e-09
1.71454e-08
-2.46185e-09
1.72326e-08
-2.40558e-09
1.72626e-08
-2.34182e-09
1.72412e-08
-2.26277e-09
1.71752e-08
-2.15365e-09
1.70651e-08
-2.01302e-09
1.69129e-08
-1.82268e-09
1.67262e-08
-1.57562e-09
1.65125e-08
-1.26489e-09
1.62809e-08
-8.88117e-10
1.60428e-08
-4.46646e-10
1.58125e-08
5.39684e-11
1.56081e-08
6.03821e-10
1.54533e-08
1.18807e-09
1.53789e-08
1.78601e-09
1.54224e-08
2.3676e-09
1.56188e-08
2.8897e-09
1.59706e-08
3.28136e-09
1.64068e-08
3.44936e-09
3.29409e-09
1.67253e-08
1.47047e-08
-4.59333e-10
1.46723e-08
-5.53669e-10
1.46581e-08
-6.286e-10
1.46743e-08
-6.77109e-10
1.47338e-08
-6.97662e-10
1.48423e-08
-6.89782e-10
1.49963e-08
-6.60019e-10
1.51921e-08
-6.18631e-10
1.54246e-08
-5.73456e-10
1.5689e-08
-5.3304e-10
1.5981e-08
-5.06094e-10
1.62969e-08
-5.01199e-10
1.66332e-08
-5.27062e-10
1.69869e-08
-5.92853e-10
1.73547e-08
-7.08032e-10
1.77332e-08
-8.8091e-10
1.81189e-08
-1.11826e-09
1.85087e-08
-1.42212e-09
1.89e-08
-1.78526e-09
1.92914e-08
-2.18811e-09
1.96833e-08
-2.61769e-09
2.00749e-08
-3.06134e-09
2.04089e-08
-3.0442e-09
2.0669e-08
-2.86134e-09
2.08605e-08
-2.71532e-09
2.09873e-08
-2.58865e-09
2.10549e-08
-2.47322e-09
2.10666e-08
-2.35352e-09
2.1029e-08
-2.22516e-09
2.09507e-08
-2.07537e-09
2.08286e-08
-1.89092e-09
2.06677e-08
-1.66179e-09
2.04769e-08
-1.38482e-09
2.02651e-08
-1.05312e-09
2.00433e-08
-6.66276e-10
1.98248e-08
-2.28192e-10
1.96259e-08
2.52901e-10
1.94661e-08
7.63644e-10
1.93685e-08
1.28563e-09
1.93596e-08
1.79494e-09
1.94658e-08
2.26134e-09
1.97059e-08
2.64961e-09
2.00706e-08
2.91674e-09
2.05004e-08
3.01955e-09
2.9245e-09
2.087e-08
2.04758e-08
-4.39322e-10
2.04458e-08
-5.23603e-10
2.0419e-08
-6.01874e-10
2.04087e-08
-6.66727e-10
2.04239e-08
-7.12898e-10
2.04752e-08
-7.41072e-10
2.05681e-08
-7.52913e-10
2.07022e-08
-7.52738e-10
2.08757e-08
-7.46991e-10
2.1086e-08
-7.43288e-10
2.13298e-08
-7.49906e-10
2.16038e-08
-7.75188e-10
2.19044e-08
-8.277e-10
2.2228e-08
-9.16443e-10
2.25706e-08
-1.05063e-09
2.29277e-08
-1.23807e-09
2.32947e-08
-1.48521e-09
2.36668e-08
-1.79423e-09
2.40396e-08
-2.15801e-09
2.44091e-08
-2.55769e-09
2.47732e-08
-2.98178e-09
2.51286e-08
-3.41667e-09
2.54231e-08
-3.33877e-09
2.56447e-08
-3.08289e-09
2.57995e-08
-2.87011e-09
2.58918e-08
-2.68103e-09
2.59262e-08
-2.50758e-09
2.59112e-08
-2.3385e-09
2.58528e-08
-2.16678e-09
2.5752e-08
-1.97457e-09
2.56113e-08
-1.75022e-09
2.54391e-08
-1.48962e-09
2.52432e-08
-1.18885e-09
2.50338e-08
-8.43761e-10
2.48234e-08
-4.55848e-10
2.46266e-08
-3.14588e-11
2.44602e-08
4.19328e-10
2.43431e-08
8.80786e-10
2.4295e-08
1.33372e-09
2.43349e-08
1.75507e-09
2.4477e-08
2.11926e-09
2.47253e-08
2.40122e-09
2.5064e-08
2.57806e-09
2.54491e-08
2.63444e-09
2.56624e-09
2.58074e-08
2.78164e-08
-4.30622e-10
2.77977e-08
-5.04844e-10
2.77754e-08
-5.79613e-10
2.77581e-08
-6.4943e-10
2.77557e-08
-7.1046e-10
2.77733e-08
-7.58697e-10
2.78211e-08
-8.00682e-10
2.79029e-08
-8.34551e-10
2.80192e-08
-8.63365e-10
2.81708e-08
-8.94878e-10
2.83568e-08
-9.3586e-10
2.85753e-08
-9.93651e-10
2.88236e-08
-1.07604e-09
2.90985e-08
-1.19134e-09
2.93959e-08
-1.34808e-09
2.9711e-08
-1.55311e-09
3.0038e-08
-1.8122e-09
3.0371e-08
-2.12724e-09
3.07036e-08
-2.49066e-09
3.10296e-08
-2.88366e-09
3.13437e-08
-3.29587e-09
3.16396e-08
-3.71262e-09
3.18733e-08
-3.57241e-09
3.20368e-08
-3.24642e-09
3.2137e-08
-2.97027e-09
3.21773e-08
-2.72138e-09
3.21678e-08
-2.49805e-09
3.21163e-08
-2.287e-09
3.20224e-08
-2.07288e-09
3.18889e-08
-1.84104e-09
3.17241e-08
-1.58548e-09
3.15356e-08
-1.30105e-09
3.13315e-08
-9.8478e-10
3.11231e-08
-6.35337e-10
3.09234e-08
-2.562e-10
3.0747e-08
1.44921e-10
3.06102e-08
5.5619e-10
3.05288e-08
9.6216e-10
3.05176e-08
1.34493e-09
3.05874e-08
1.68527e-09
3.07422e-08
1.96443e-09
3.09765e-08
2.16694e-09
3.12719e-08
2.2827e-09
3.15965e-08
2.30975e-09
2.25481e-09
3.1908e-08
3.70343e-08
-4.33078e-10
3.70293e-08
-4.99785e-10
3.70196e-08
-5.69925e-10
3.70101e-08
-6.39975e-10
3.70075e-08
-7.07851e-10
3.70168e-08
-7.6799e-10
3.70438e-08
-8.27617e-10
3.70942e-08
-8.84963e-10
3.71709e-08
-9.40068e-10
3.72758e-08
-9.99795e-10
3.74101e-08
-1.07014e-09
3.75736e-08
-1.15713e-09
3.7765e-08
-1.2675e-09
3.79822e-08
-1.40851e-09
3.82217e-08
-1.58762e-09
3.84789e-08
-1.81028e-09
3.87478e-08
-2.08112e-09
3.90219e-08
-2.40129e-09
3.92933e-08
-2.76206e-09
3.95536e-08
-3.14401e-09
3.9795e-08
-3.53721e-09
4.00079e-08
-3.92558e-09
4.01588e-08
-3.72326e-09
4.02446e-08
-3.33222e-09
4.02699e-08
-2.99564e-09
4.02457e-08
-2.6971e-09
4.01827e-08
-2.43513e-09
4.00766e-08
-2.18092e-09
3.99315e-08
-1.92778e-09
3.97579e-08
-1.66741e-09
3.95619e-08
-1.38946e-09
3.93509e-08
-1.09005e-09
3.91341e-08
-7.67991e-10
3.89229e-08
-4.24157e-10
3.87304e-08
-6.36562e-11
3.85698e-08
3.05479e-10
3.84552e-08
6.70842e-10
3.83984e-08
1.01891e-09
3.84085e-08
1.33486e-09
3.84893e-08
1.60447e-09
3.8638e-08
1.81573e-09
3.88442e-08
1.96067e-09
3.90903e-08
2.03659e-09
3.93531e-08
2.04702e-09
2.00102e-09
3.96069e-08
4.84703e-08
-4.46678e-10
4.84791e-08
-5.08637e-10
4.84846e-08
-5.75376e-10
4.84895e-08
-6.44929e-10
4.84977e-08
-7.16015e-10
4.85145e-08
-7.84803e-10
4.85409e-08
-8.54063e-10
4.8582e-08
-9.25984e-10
4.86422e-08
-1.00029e-09
4.87233e-08
-1.08092e-09
4.88261e-08
-1.17294e-09
4.89509e-08
-1.28197e-09
4.90973e-08
-1.41389e-09
4.92637e-08
-1.57492e-09
4.94475e-08
-1.77136e-09
4.96442e-08
-2.00703e-09
4.98484e-08
-2.28529e-09
5.00532e-08
-2.6061e-09
5.02501e-08
-2.95891e-09
5.04294e-08
-3.32332e-09
5.0581e-08
-3.68883e-09
5.06928e-08
-4.03742e-09
5.0743e-08
-3.77347e-09
5.07335e-08
-3.32268e-09
5.06786e-08
-2.94074e-09
5.05805e-08
-2.59903e-09
5.04392e-08
-2.29377e-09
5.02658e-08
-2.00759e-09
5.00656e-08
-1.72757e-09
4.98444e-08
-1.44615e-09
4.961e-08
-1.15504e-09
4.93706e-08
-8.50737e-10
4.9136e-08
-5.33356e-10
4.89172e-08
-2.05362e-10
4.87257e-08
1.27884e-10
4.85734e-08
4.57723e-10
4.84706e-08
7.73706e-10
4.84247e-08
1.06473e-09
4.84397e-08
1.31989e-09
4.85143e-08
1.52987e-09
4.8642e-08
1.68807e-09
4.88111e-08
1.79153e-09
4.90063e-08
1.84137e-09
4.92106e-08
1.84279e-09
1.80409e-09
4.94075e-08
6.24941e-08
-4.73101e-10
6.2518e-08
-5.32583e-10
6.25402e-08
-5.97542e-10
6.25623e-08
-6.67039e-10
6.25863e-08
-7.4008e-10
6.26172e-08
-8.15658e-10
6.26563e-08
-8.93125e-10
6.27057e-08
-9.75439e-10
6.27688e-08
-1.06336e-09
6.28469e-08
-1.15909e-09
6.29408e-08
-1.26681e-09
6.30502e-08
-1.39132e-09
6.3174e-08
-1.5377e-09
6.33103e-08
-1.71123e-09
6.3456e-08
-1.91712e-09
6.36067e-08
-2.1577e-09
6.37566e-08
-2.43517e-09
6.38985e-08
-2.74805e-09
6.40234e-08
-3.08372e-09
6.41212e-08
-3.42113e-09
6.41804e-08
-3.74807e-09
6.41854e-08
-4.04246e-09
6.41333e-08
-3.72132e-09
6.40319e-08
-3.22129e-09
6.38833e-08
-2.79214e-09
6.36977e-08
-2.41344e-09
6.34808e-08
-2.07684e-09
6.32391e-08
-1.76598e-09
6.29791e-08
-1.46755e-09
6.27072e-08
-1.17424e-09
6.24317e-08
-8.79549e-10
6.21615e-08
-5.80499e-10
6.19061e-08
-2.77998e-10
6.16754e-08
2.53999e-11
6.14793e-08
3.2395e-10
6.1327e-08
6.10049e-10
6.12249e-08
8.75804e-10
6.11766e-08
1.11306e-09
6.11818e-08
1.31468e-09
6.12363e-08
1.47537e-09
6.13321e-08
1.59228e-09
6.14582e-08
1.66539e-09
6.16021e-08
1.69743e-09
6.17513e-08
1.69359e-09
1.66065e-09
6.18948e-08
7.95196e-08
-5.15454e-10
7.95613e-08
-5.74267e-10
7.96027e-08
-6.38969e-10
7.9645e-08
-7.0927e-10
7.96897e-08
-7.84765e-10
7.97393e-08
-8.65251e-10
7.97966e-08
-9.50515e-10
7.98628e-08
-1.04159e-09
7.99395e-08
-1.14001e-09
8.00281e-08
-1.24776e-09
8.0129e-08
-1.36769e-09
8.02413e-08
-1.5036e-09
8.03631e-08
-1.65955e-09
8.04917e-08
-1.83977e-09
8.06228e-08
-2.04821e-09
8.07509e-08
-2.28584e-09
8.08694e-08
-2.55371e-09
8.097e-08
-2.84858e-09
8.10424e-08
-3.1561e-09
8.10763e-08
-3.45503e-09
8.10585e-08
-3.73034e-09
8.09777e-08
-3.96168e-09
8.08371e-08
-3.58063e-09
8.06465e-08
-3.0307e-09
8.04174e-08
-2.56306e-09
8.01583e-08
-2.15435e-09
7.98742e-08
-1.79275e-09
7.9572e-08
-1.46375e-09
7.92591e-08
-1.15463e-09
7.89429e-08
-8.58044e-10
7.86319e-08
-5.68597e-10
7.83352e-08
-2.83768e-10
7.80617e-08
-4.55435e-12
7.78192e-08
2.67921e-10
7.76164e-08
5.26795e-10
7.74587e-08
7.67737e-10
7.73495e-08
9.85028e-10
7.7289e-08
1.17351e-09
7.72745e-08
1.32915e-09
7.73004e-08
1.44955e-09
7.73585e-08
1.53418e-09
7.74394e-08
1.58448e-09
7.75332e-08
1.6036e-09
7.76307e-08
1.59607e-09
1.56716e-09
7.77242e-08
1.00047e-07
-5.76351e-10
1.00109e-07
-6.35923e-10
1.00172e-07
-7.01666e-10
1.00236e-07
-7.73716e-10
1.00303e-07
-8.52119e-10
1.00375e-07
-9.36975e-10
1.00453e-07
-1.02849e-09
1.00539e-07
-1.12728e-09
1.00633e-07
-1.23463e-09
1.00738e-07
-1.35214e-09
1.00852e-07
-1.48191e-09
1.00975e-07
-1.62663e-09
1.01105e-07
-1.78922e-09
1.01238e-07
-1.97262e-09
1.01369e-07
-2.17931e-09
1.01492e-07
-2.40888e-09
1.01599e-07
-2.66095e-09
1.0168e-07
-2.93003e-09
1.01725e-07
-3.20081e-09
1.01722e-07
-3.45241e-09
1.01661e-07
-3.669e-09
1.01522e-07
-3.82223e-09
1.01317e-07
-3.37641e-09
1.01071e-07
-2.78415e-09
1.00789e-07
-2.2813e-09
1.00481e-07
-1.84635e-09
1.00153e-07
-1.46468e-09
9.98124e-08
-1.12303e-09