/*--------------------------------*- C++ -*----------------------------------*\
| =========                 |                                                 |
| \\      /  F ield         | OpenFOAM: The Open Source CFD Toolbox           |
|  \\    /   O peration     | Version:  2312                                  |
|   \\  /    A nd           | Website:  www.openfoam.com                      |
|    \\/     M anipulation  |                                                 |
\*---------------------------------------------------------------------------*/
FoamFile
{
    version     2.0;
    format      ascii;
    arch        "LSB;label=32;scalar=64";
    class       volVectorField;
    location    "146.25";
    object      U;
}
// * * * * * * * * * * * * * * * * * * * * * * * * * * * * * * * * * * * * * //

dimensions      [0 1 -1 0 0 0 0];

internalField   nonuniform List<vector> 
4800
(
(0.000461043 2.78224e-07 -2.03101e-26)
(0.00045455 2.65744e-07 -1.4054e-25)
(0.000451319 2.4215e-07 1.80978e-25)
(0.000450062 2.10096e-07 8.0613e-26)
(0.000450326 1.7884e-07 1.1792e-24)
(0.000451428 1.60187e-07 -2.81045e-24)
(0.000453304 1.05908e-07 2.62208e-24)
(0.000455864 1.01682e-08 -3.79205e-24)
(0.000459195 -1.36858e-07 1.21567e-24)
(0.00046344 -3.73676e-07 4.14686e-24)
(0.000469007 -8.5552e-07 -1.27699e-24)
(0.000477203 -2.22532e-06 -1.06897e-25)
(0.000495324 -7.34769e-06 -1.56488e-24)
(0.000540833 -2.79528e-05 7.51413e-25)
(0.00061424 -8.88029e-05 -6.03364e-25)
(0.00142906 1.46443e-06 -6.4566e-26)
(0.00140974 9.21847e-07 8.04194e-26)
(0.00140001 4.98278e-07 -7.22665e-25)
(0.00139608 1.28256e-07 5.41126e-25)
(0.00139656 -2.16721e-07 1.69093e-24)
(0.00139935 -5.2064e-07 -2.70477e-24)
(0.00140446 -9.23533e-07 -7.6881e-25)
(0.00141146 -1.47645e-06 -1.79567e-25)
(0.00142057 -2.26878e-06 6.30405e-24)
(0.0014322 -3.51426e-06 -4.6588e-24)
(0.00144753 -5.87828e-06 5.06463e-25)
(0.0014693 -1.15773e-05 7.76871e-25)
(0.00150639 -2.82142e-05 -1.15893e-24)
(0.00156886 -7.88889e-05 -3.73916e-25)
(0.00163438 -0.000191101 1.54268e-24)
(0.00250284 4.63081e-06 -4.62183e-26)
(0.00247028 2.89471e-06 4.73052e-26)
(0.00245369 1.57478e-06 4.73616e-25)
(0.00244674 4.29609e-07 -1.11269e-24)
(0.00244709 -6.18341e-07 1.07464e-24)
(0.00245109 -1.62675e-06 1.01169e-24)
(0.00245897 -2.87739e-06 -2.64853e-24)
(0.00246985 -4.48776e-06 -1.63446e-24)
(0.00248387 -6.7498e-06 3.91555e-24)
(0.00250156 -1.02437e-05 1.48009e-24)
(0.00252421 -1.64474e-05 -5.14782e-24)
(0.00255401 -2.92731e-05 -7.94895e-25)
(0.00259502 -5.80612e-05 2.20278e-24)
(0.00264575 -0.0001216 3.52124e-24)
(0.00268135 -0.000225708 -1.82311e-24)
(0.00368886 1.02205e-05 1.71019e-26)
(0.00364287 6.44934e-06 -1.18025e-25)
(0.00361912 3.59743e-06 5.19688e-25)
(0.00360875 1.14596e-06 5.4257e-25)
(0.00360848 -1.09461e-06 -5.43432e-25)
(0.00361309 -3.18883e-06 -3.07303e-24)
(0.00362298 -5.80872e-06 -2.11117e-24)
(0.00363681 -9.06306e-06 7.95076e-24)
(0.00365439 -1.35053e-05 3.2874e-24)
(0.00367606 -2.01094e-05 -4.71916e-24)
(0.00370252 -3.09267e-05 -1.90357e-24)
(0.00373425 -5.03722e-05 -1.45815e-24)
(0.00377057 -8.61786e-05 4.26786e-26)
(0.00380438 -0.000147866 1.08047e-24)
(0.00381806 -0.000229638 5.26653e-27)
(0.0049912 1.86899e-05 -3.14446e-26)
(0.00493217 1.18864e-05 -1.89787e-25)
(0.00490119 6.76144e-06 -1.14893e-25)
(0.00488711 2.38269e-06 3.22104e-25)
(0.00488554 -1.5632e-06 -8.81051e-25)
(0.00489019 -5.16593e-06 2.18558e-24)
(0.00490116 -9.64849e-06 -3.91488e-25)
(0.00491673 -1.5047e-05 1.37025e-24)
(0.00493621 -2.21232e-05 -7.61869e-24)
(0.00495946 -3.21218e-05 1.44611e-23)
(0.00498627 -4.7139e-05 -1.39975e-23)
(0.00501549 -7.07612e-05 7.39123e-24)
(0.00504396 -0.00010759 -6.85065e-24)
(0.00506427 -0.000160417 6.43905e-24)
(0.00506669 -0.000221454 -2.55582e-24)
(0.00640989 3.05448e-05 4.16438e-26)
(0.00633928 1.95892e-05 1.46767e-25)
(0.0063016 1.13622e-05 -7.69624e-25)
(0.00628385 4.39749e-06 -4.72453e-25)
(0.00628034 -1.79372e-06 1.27535e-24)
(0.00628462 -7.4364e-06 4.50045e-25)
(0.00629576 -1.41702e-05 -3.55047e-24)
(0.00631173 -2.20576e-05 8.49379e-24)
(0.00633139 -3.19406e-05 -1.10369e-23)
(0.00635402 -4.5106e-05 2.64661e-24)
(0.00637854 -6.32412e-05 8.04027e-24)
(0.00640291 -8.85035e-05 -1.11488e-23)
(0.00642359 -0.000122632 5.58543e-24)
(0.00643522 -0.000165001 5.6458e-24)
(0.00643354 -0.00020945 -4.28419e-24)
(0.00793884 4.60987e-05 3.44883e-26)
(0.00785993 2.9841e-05 -2.0207e-25)
(0.00781714 1.76444e-05 7.14228e-25)
(0.00779646 7.43112e-06 -9.82812e-25)
(0.0077909 -1.47925e-06 -3.28453e-24)
(0.00779453 -9.82261e-06 5.59965e-24)
(0.00780519 -1.90744e-05 -3.38234e-24)
(0.00782042 -2.95696e-05 1.14796e-23)
(0.00783886 -4.21544e-05 -7.80987e-24)
(0.00785923 -5.78932e-05 -3.64094e-24)
(0.00787996 -7.78443e-05 -7.12941e-24)
(0.00789885 -0.000102837 6.56574e-24)
(0.00791314 -0.0001328 1.8374e-24)
(0.00791968 -0.000165961 1.5428e-24)
(0.00791733 -0.000198286 -1.35432e-24)
(0.00956382 6.51195e-05 -4.95755e-26)
(0.00948248 4.25695e-05 6.67739e-25)
(0.00943787 2.56081e-05 -1.54121e-24)
(0.00941609 1.15636e-05 -1.22829e-24)
(0.00940949 -6.68713e-07 4.81927e-25)
(0.00941253 -1.1989e-05 9.13315e-25)
(0.00942239 -2.39521e-05 3.22621e-24)
(0.00943638 -3.70556e-05 -8.75196e-24)
(0.00945281 -5.20137e-05 -4.63011e-24)
(0.00947016 -6.95554e-05 1.28126e-23)
(0.00948673 -9.0131e-05 -3.92957e-24)
(0.00950068 -0.000113687 1.34135e-23)
(0.00951026 -0.000139378 -7.04836e-24)
(0.00951394 -0.000165473 -2.20595e-24)
(0.00951201 -0.00018958 1.29815e-24)
(0.0112619 8.63576e-05 -6.46338e-27)
(0.011187 5.69905e-05 3.67796e-25)
(0.0111459 3.4734e-05 -5.22404e-25)
(0.0111263 1.64403e-05 1.22631e-24)
(0.0111208 5.70861e-07 -7.25361e-24)
(0.0111243 -1.40028e-05 7.64299e-24)
(0.0111339 -2.87233e-05 -1.19309e-23)
(0.0111468 -4.42294e-05 7.3546e-24)
(0.0111613 -6.10754e-05 5.43475e-24)
(0.0111758 -7.96496e-05 1.16843e-23)
(0.0111888 -9.99659e-05 -1.52376e-23)
(0.011199 -0.000121563 -2.75128e-24)
(0.0112056 -0.000143493 1.34024e-24)
(0.0112078 -0.00016449 9.01423e-24)
(0.0112066 -0.000183233 -3.63405e-24)
(0.0130051 0.000107094 3.38775e-26)
(0.0129473 7.12086e-05 -1.515e-25)
(0.0129167 4.36413e-05 6.79079e-25)
(0.012904 2.1004e-05 -2.35986e-24)
(0.0129027 1.41947e-06 3.55464e-24)
(0.0129088 -1.63835e-05 -4.55043e-24)
(0.0129194 -3.37162e-05 7.57516e-24)
(0.0129322 -5.12732e-05 1.2921e-24)
(0.0129457 -6.94602e-05 -1.03469e-23)
(0.0129583 -8.84179e-05 1.46026e-23)
(0.0129691 -0.000107945 -1.60473e-23)
(0.0129772 -0.000127519 -4.60622e-24)
(0.0129823 -0.00014639 8.21317e-24)
(0.0129843 -0.000163784 2.38869e-24)
(0.012984 -0.000179031 -1.03446e-24)
(0.014771 0.000123273 1.1752e-25)
(0.0147391 8.21355e-05 -1.14258e-24)
(0.0147254 4.99269e-05 -1.87386e-24)
(0.0147239 2.33216e-05 4.43683e-24)
(0.0147303 3.0083e-07 1.95009e-24)
(0.0147414 -2.03871e-05 -1.22401e-23)
(0.014755 -3.99559e-05 3.80208e-24)
(0.0147693 -5.90784e-05 2.72199e-24)
(0.0147831 -7.80546e-05 -1.14644e-23)
(0.0147954 -9.69046e-05 1.20294e-23)
(0.0148056 -0.000115396 -9.35331e-24)
(0.0148133 -0.000133125 2.41256e-23)
(0.0148185 -0.000149617 -1.14453e-23)
(0.0148212 -0.000164472 6.66219e-24)
(0.0148225 -0.0001774 -1.7983e-24)
(0.0165579 0.000131115 -1.8817e-26)
(0.0165532 8.64562e-05 7.17472e-25)
(0.0165584 5.0769e-05 -1.4916e-24)
(0.01657 2.09748e-05 -7.66355e-25)
(0.0165857 -4.82254e-06 8.53664e-24)
(0.0166031 -2.78116e-05 -1.27487e-24)
(0.016621 -4.90496e-05 -1.50363e-23)
(0.016638 -6.91629e-05 1.74271e-23)
(0.0166535 -8.84085e-05 -3.94852e-24)
(0.0166668 -0.000106798 -1.33364e-23)
(0.0166778 -0.000124177 1.40961e-23)
(0.0166864 -0.000140318 7.3885e-24)
(0.0166928 -0.000154988 -6.40243e-24)
(0.016697 -0.000168034 -1.07305e-23)
(0.0167002 -0.000179384 8.8857e-25)
(0.0183905 0.000130019 -2.84924e-26)
(0.0184045 8.29633e-05 -7.26627e-25)
(0.0184234 4.47729e-05 3.84127e-24)
(0.018445 1.25228e-05 3.00656e-25)
(0.0184677 -1.53223e-05 2.278e-24)
(0.0184903 -3.99313e-05 -8.1234e-24)
(0.0185116 -6.22356e-05 6.89442e-24)
(0.018531 -8.28098e-05 1.51354e-24)
(0.0185481 -0.000101919 1.38897e-23)
(0.0185627 -0.00011964 -2.16157e-23)
(0.018575 -0.000135938 -9.62086e-24)
(0.0185848 -0.000150752 -6.18782e-24)
(0.0185928 -0.000164027 1.17811e-23)
(0.0185988 -0.000175764 -3.1964e-25)
(0.0186038 -0.000186007 1.11035e-24)
(0.0202975 0.000123612 -3.12413e-26)
(0.0203175 7.4252e-05 6.15158e-25)
(0.0203407 3.38026e-05 -9.1268e-25)
(0.0203651 -5.28039e-07 -1.42678e-26)
(0.0203898 -3.00229e-05 1.56478e-24)
(0.0204134 -5.58292e-05 4.0266e-24)
(0.0204352 -7.88201e-05 -1.55806e-23)
(0.0204547 -9.95598e-05 1.35642e-24)
(0.0204718 -0.000118366 7.90071e-24)
(0.0204865 -0.000135412 -3.5506e-24)
(0.020499 -0.00015079 9.7277e-24)
(0.0205094 -0.00016457 6.6464e-24)
(0.0205181 -0.00017682 -1.21081e-23)
(0.0205251 -0.000187629 8.10386e-24)
(0.0205314 -0.000197104 -6.71523e-24)
(0.0222711 0.000116389 -7.87141e-25)
(0.0222893 6.46414e-05 9.05635e-25)
(0.0223097 2.18575e-05 8.60312e-25)
(0.0223312 -1.44027e-05 -6.15608e-24)
(0.0223528 -4.53992e-05 5.55512e-24)
(0.0223734 -7.22523e-05 -4.40275e-24)
(0.0223924 -9.58245e-05 3.13161e-24)
(0.0224093 -0.000116709 -2.26033e-23)
(0.0224243 -0.000135297 3.26068e-23)
(0.0224372 -0.000151864 -1.90727e-23)
(0.0224483 -0.000166611 1.69907e-23)
(0.0224577 -0.000179707 1.39377e-23)
(0.0224659 -0.0001913 -2.43068e-23)
(0.0224726 -0.000201531 7.8403e-24)
(0.0224788 -0.000210539 -3.25289e-25)
(0.0242472 0.000109781 -2.68552e-26)
(0.0242626 5.62499e-05 1.01122e-24)
(0.0242791 1.14309e-05 -1.1372e-24)
(0.0242961 -2.63424e-05 -1.52013e-25)
(0.0243131 -5.84809e-05 1.94836e-24)
(0.0243293 -8.61526e-05 -3.52407e-24)
(0.0243441 -0.000110212 3.47812e-24)
(0.0243573 -0.000131274 -1.13653e-23)
(0.024369 -0.00014979 2.60517e-23)
(0.0243791 -0.000166113 -3.34592e-23)
(0.0243879 -0.000180524 2.73926e-23)
(0.0243954 -0.000193258 -9.23937e-24)
(0.024402 -0.000204512 4.62112e-25)
(0.0244075 -0.00021446 2.04675e-24)
(0.0244126 -0.000223255 -3.95913e-24)
(0.0261208 0.000102327 -2.22707e-24)
(0.0261355 4.8231e-05 5.44102e-24)
(0.0261497 2.50286e-06 -3.51907e-24)
(0.0261637 -3.60085e-05 2.48948e-25)
(0.0261771 -6.87397e-05 1.37516e-24)
(0.0261895 -9.68426e-05 -1.88167e-24)
(0.0262008 -0.000121161 -2.56244e-24)
(0.0262107 -0.000142315 -6.69359e-24)
(0.0262194 -0.000160787 3.01139e-24)
(0.0262269 -0.000176975 1.64981e-23)
(0.0262335 -0.000191208 -8.81132e-24)
(0.026239 -0.000203758 5.3311e-24)
(0.0262439 -0.000214848 -2.19648e-24)
(0.0262479 -0.000224668 -6.49124e-24)
(0.0262517 -0.000233379 3.31539e-24)
(0.0277648 9.23943e-05 7.45415e-25)
(0.02778 3.91135e-05 -1.45685e-24)
(0.0277934 -6.21643e-06 -2.89552e-24)
(0.0278056 -4.45963e-05 6.69823e-24)
(0.0278169 -7.72446e-05 -1.74015e-24)
(0.0278268 -0.000105289 -1.32755e-24)
(0.0278357 -0.000129546 -3.01438e-25)
(0.0278434 -0.000150616 -1.44924e-24)
(0.0278501 -0.00016898 1.07471e-24)
(0.0278558 -0.000185051 -1.99767e-24)
(0.0278607 -0.000199168 4.53534e-24)
(0.0278649 -0.000211616 2.56897e-24)
(0.0278685 -0.000222622 -9.47303e-24)
(0.0278715 -0.00023238 6.64951e-24)
(0.0278743 -0.000241047 -1.37436e-24)
(0.0290252 7.9714e-05 2.26377e-24)
(0.0290405 2.87366e-05 5.08245e-24)
(0.0290535 -1.51231e-05 -1.07683e-23)
(0.0290651 -5.24542e-05 -4.36064e-24)
(0.0290753 -8.44069e-05 8.25388e-24)
(0.0290841 -0.000111992 3.68434e-24)
(0.0290915 -0.000135919 -1.16988e-25)
(0.0290979 -0.000156743 -5.5915e-24)
(0.0291034 -0.000174931 -3.96057e-25)
(0.029108 -0.000190885 9.46582e-26)
(0.0291118 -0.000204932 9.55082e-25)
(0.0291149 -0.000217342 -1.3087e-25)
(0.0291175 -0.000228332 -1.95597e-25)
(0.0291195 -0.000238084 2.94277e-25)
(0.0291212 -0.000246744 -1.45051e-25)
(0.0296992 6.23832e-05 -6.11588e-24)
(0.0297152 1.54076e-05 -1.55447e-23)
(0.0297278 -2.50901e-05 5.07812e-24)
(0.0297377 -5.99868e-05 3.35787e-23)
(0.0297452 -9.0225e-05 -1.01849e-23)
(0.0297507 -0.000116506 -7.02365e-24)
(0.0297548 -0.000139381 4.63965e-24)
(0.0297579 -0.000159347 1.29829e-23)
(0.02976 -0.000176843 -2.41591e-23)
(0.0297613 -0.000192235 9.08116e-24)
(0.0297619 -0.000205818 -7.94646e-25)
(0.029762 -0.000217832 2.76118e-24)
(0.0297615 -0.00022847 1.09381e-24)
(0.0297607 -0.000237897 -1.05513e-24)
(0.0297595 -0.000246242 2.41084e-25)
(0.0295467 4.27585e-05 9.95611e-24)
(0.0295631 1.9698e-07 -2.37592e-23)
(0.0295756 -3.63751e-05 3.1242e-24)
(0.0295849 -6.81782e-05 4.18455e-23)
(0.0295917 -9.59619e-05 -4.33234e-23)
(0.0295966 -0.000120209 1.79783e-23)
(0.0296001 -0.000141367 2.00706e-23)
(0.0296024 -0.000159882 -4.73132e-23)
(0.0296038 -0.000176145 -1.34325e-24)
(0.0296042 -0.000190478 1.78922e-23)
(0.0296039 -0.000203131 5.85394e-24)
(0.029603 -0.000214307 -4.5878e-24)
(0.0296015 -0.000224172 4.11477e-24)
(0.0295995 -0.000232867 -1.71117e-24)
(0.0295971 -0.000240505 6.1737e-25)
(0.0286182 2.53941e-05 6.31229e-24)
(0.0286296 -1.16652e-05 -1.36378e-23)
(0.0286377 -4.4153e-05 -1.06016e-23)
(0.0286428 -7.268e-05 4.98013e-23)
(0.0286455 -9.77199e-05 -4.80816e-23)
(0.0286466 -0.000119665 4.31443e-24)
(0.0286465 -0.000138917 8.89454e-24)
(0.0286454 -0.00015586 5.93795e-24)
(0.0286434 -0.000170816 6.99535e-24)
(0.0286406 -0.000184039 -3.84385e-23)
(0.0286372 -0.000195725 2.41077e-23)
(0.0286332 -0.000206039 5.01132e-26)
(0.0286286 -0.000215113 1.47086e-23)
(0.0286237 -0.000223063 -6.87532e-24)
(0.0286183 -0.000229978 -1.61e-24)
(0.0271088 1.16504e-05 1.58795e-23)
(0.0271209 -1.99177e-05 -2.86068e-23)
(0.0271288 -4.82606e-05 5.72168e-24)
(0.0271333 -7.34457e-05 -1.57945e-23)
(0.0271353 -9.56572e-05 -2.23875e-23)
(0.0271354 -0.000115233 7.28977e-23)
(0.027134 -0.000132528 -2.9706e-23)
(0.0271313 -0.000147847 9.1638e-24)
(0.0271274 -0.000161423 -5.41851e-24)
(0.0271227 -0.000173443 -1.63332e-23)
(0.0271171 -0.00018406 3.21256e-23)
(0.0271109 -0.000193403 -1.97328e-23)
(0.027104 -0.000201577 2.30679e-24)
(0.0270966 -0.00020867 3.75442e-24)
(0.0270887 -0.000214754 -4.78676e-25)
(0.025269 -4.70337e-07 6.15783e-24)
(0.0252791 -2.76526e-05 -3.25805e-23)
(0.025285 -5.20885e-05 5.77817e-23)
(0.0252878 -7.38496e-05 -4.52179e-23)
(0.0252879 -9.31398e-05 4.75275e-23)
(0.0252859 -0.00011025 -1.50915e-23)
(0.0252822 -0.000125452 -1.09948e-23)
(0.0252771 -0.000138959 -1.3308e-23)
(0.0252707 -0.000150938 2.59332e-23)
(0.0252633 -0.000161529 8.73375e-25)
(0.025255 -0.00017085 -2.70267e-23)
(0.0252459 -0.000179003 -4.32355e-24)
(0.0252361 -0.000186067 7.52955e-24)
(0.0252257 -0.000192112 -1.83761e-24)
(0.0252146 -0.000197191 4.3676e-25)
(0.0232428 -9.95328e-06 8.22732e-25)
(0.0232497 -3.28175e-05 -1.23021e-23)
(0.0232527 -5.33646e-05 -7.38756e-24)
(0.0232524 -7.17471e-05 5.87985e-23)
(0.0232495 -8.81642e-05 -5.89457e-23)
(0.0232445 -0.000102813 1.75127e-23)
(0.0232376 -0.000115869 3.09869e-24)
(0.0232292 -0.00012748 -1.71125e-24)
(0.0232196 -0.000137768 -8.689e-24)
(0.0232088 -0.00014684 3.91802e-23)
(0.023197 -0.000154786 -3.18205e-23)
(0.0231844 -0.000161681 -1.82822e-24)
(0.023171 -0.000167585 3.09284e-24)
(0.023157 -0.00017255 3.24708e-24)
(0.0231423 -0.000176615 -2.59679e-24)
(0.02113 -1.55501e-05 1.22613e-24)
(0.021133 -3.4356e-05 1.14582e-23)
(0.0211322 -5.13315e-05 -1.31063e-23)
(0.0211283 -6.6617e-05 -9.4941e-24)
(0.0211218 -8.03536e-05 6.1828e-23)
(0.0211132 -9.26598e-05 -4.72673e-23)
(0.0211028 -0.000103649 -9.03129e-25)
(0.0210909 -0.000113424 -1.05674e-23)
(0.0210776 -0.000122077 -1.06765e-24)
(0.0210632 -0.000129685 1.44779e-24)
(0.0210479 -0.000136312 -6.97377e-24)
(0.0210317 -0.000142014 5.10913e-24)
(0.0210147 -0.000146832 1.69552e-24)
(0.0209971 -0.000150806 1.72229e-24)
(0.0209789 -0.000153965 2.53863e-24)
(0.0190021 -1.74876e-05 8.73553e-24)
(0.0190012 -3.27092e-05 -1.34756e-23)
(0.0189967 -4.65346e-05 -1.12683e-23)
(0.0189894 -5.90538e-05 3.44811e-23)
(0.0189796 -7.03584e-05 -1.23252e-23)
(0.0189678 -8.05227e-05 -1.82533e-23)
(0.0189542 -8.96206e-05 6.28214e-24)
(0.0189391 -9.7723e-05 1.51333e-23)
(0.0189228 -0.000104893 -2.49673e-23)
(0.0189054 -0.000111185 2.55375e-23)
(0.018887 -0.000116642 -1.42308e-23)
(0.0188679 -0.000121303 6.46614e-24)
(0.018848 -0.000125197 -9.39087e-24)
(0.0188276 -0.000128352 9.76558e-24)
(0.0188066 -0.000130788 -2.55243e-24)
(0.0169131 -1.67239e-05 -1.69327e-24)
(0.0169091 -2.88868e-05 -6.01232e-24)
(0.0169019 -3.99952e-05 -1.95628e-23)
(0.0168921 -5.01112e-05 5.4701e-23)
(0.0168799 -5.92949e-05 -9.53958e-24)
(0.0168658 -6.759e-05 -1.58689e-23)
(0.01685 -7.50404e-05 5.8509e-24)
(0.0168328 -8.16915e-05 -8.42185e-24)
(0.0168144 -8.75843e-05 -1.94403e-23)
(0.0167949 -9.2754e-05 1.86361e-23)
(0.0167746 -9.72292e-05 8.95576e-25)
(0.0167535 -0.000101035 -7.07696e-24)
(0.0167317 -0.00010419 8.02484e-24)
(0.0167095 -0.000106713 6.12593e-25)
(0.0166868 -0.000108617 -7.5342e-25)
(0.0149031 -1.44353e-05 6.50491e-24)
(0.0148972 -2.40361e-05 9.84109e-24)
(0.0148884 -3.28512e-05 -8.92614e-24)
(0.0148771 -4.09355e-05 -2.03714e-23)
(0.0148637 -4.83197e-05 2.79575e-23)
(0.0148484 -5.50222e-05 -3.12077e-23)
(0.0148315 -6.10671e-05 -1.65984e-24)
(0.0148132 -6.64818e-05 1.24171e-23)
(0.0147937 -7.12919e-05 4.49206e-24)
(0.0147732 -7.55183e-05 -1.00896e-23)
(0.0147519 -7.91784e-05 -5.69063e-25)
(0.0147298 -8.2287e-05 2.24203e-23)
(0.0147071 -8.48553e-05 -8.64479e-24)
(0.0146839 -8.68956e-05 -2.42787e-24)
(0.0146604 -8.84164e-05 -1.72004e-25)
(0.0129984 -1.15875e-05 -6.74469e-24)
(0.0129917 -1.90657e-05 8.70919e-24)
(0.0129824 -2.59739e-05 1.03835e-24)
(0.0129707 -3.23578e-05 1.85327e-23)
(0.0129569 -3.82212e-05 -1.49272e-23)
(0.0129413 -4.35679e-05 1.41422e-24)
(0.0129242 -4.8412e-05 -1.50431e-24)
(0.0129056 -5.27695e-05 -4.99796e-24)
(0.0128859 -5.66545e-05 4.80389e-24)
(0.0128652 -6.00781e-05 -1.55856e-23)
(0.0128436 -6.30493e-05 7.12419e-25)
(0.0128213 -6.55761e-05 3.72472e-24)
(0.0127983 -6.76642e-05 2.52587e-24)
(0.0127749 -6.93214e-05 1.08052e-24)
(0.0127512 -7.05522e-05 4.64734e-25)
(0.0112139 -8.77977e-06 4.98695e-24)
(0.0112071 -1.4514e-05 -3.92697e-24)
(0.0111979 -1.98444e-05 -1.78793e-23)
(0.0111865 -2.48022e-05 1.68029e-23)
(0.011173 -2.93751e-05 2.43589e-23)
(0.0111578 -3.35638e-05 -5.77166e-24)
(0.011141 -3.73774e-05 -1.27148e-23)
(0.0111229 -4.08236e-05 -1.88693e-23)
(0.0111035 -4.39087e-05 1.44396e-23)
(0.0110831 -4.66373e-05 9.90971e-25)
(0.0110619 -4.90131e-05 -3.51498e-24)
(0.0110399 -5.10395e-05 -1.10461e-24)
(0.0110172 -5.27189e-05 2.23556e-24)
(0.0109941 -5.40557e-05 -1.8471e-26)
(0.0109707 -5.50517e-05 -5.27671e-25)
(0.0095551 -6.30923e-06 -3.13326e-24)
(0.00954876 -1.06214e-05 -2.31437e-24)
(0.00954018 -1.46483e-05 2.71298e-24)
(0.00952944 -1.84097e-05 -9.10403e-24)
(0.00951676 -2.189e-05 3.00413e-23)
(0.00950236 -2.50923e-05 -4.06398e-23)
(0.00948642 -2.80221e-05 4.06918e-23)
(0.00946912 -3.06817e-05 -1.7468e-23)
(0.00945062 -3.30727e-05 4.25303e-24)
(0.00943107 -3.51958e-05 2.66848e-25)
(0.00941061 -3.70518e-05 -3.36098e-24)
(0.00938939 -3.86411e-05 1.43234e-24)
(0.00936754 -3.99643e-05 -2.94527e-24)
(0.00934521 -4.10231e-05 -4.58088e-25)
(0.0093225 -4.18177e-05 2.45385e-25)
(0.00802207 -4.2869e-06 -1.52003e-24)
(0.00801644 -7.45081e-06 3.72415e-25)
(0.00800874 -1.04068e-05 8.53786e-25)
(0.007999 -1.31731e-05 -4.12687e-24)
(0.00798741 -1.5739e-05 -1.98165e-24)
(0.00797418 -1.81104e-05 1.66133e-23)
(0.00795945 -2.02901e-05 -9.84561e-24)
(0.0079434 -2.22775e-05 1.49562e-24)
(0.00792616 -2.40717e-05 -1.42915e-24)
(0.00790788 -2.56716e-05 -1.66065e-24)
(0.00788869 -2.70762e-05 -5.82357e-25)
(0.00786874 -2.82847e-05 3.44594e-24)
(0.00784814 -2.92963e-05 1.1347e-24)
(0.00782705 -3.01114e-05 -2.27549e-24)
(0.00780557 -3.07288e-05 -4.06513e-25)
(0.00661139 -2.71513e-06 -5.49118e-25)
(0.00660659 -4.97219e-06 -1.93351e-25)
(0.00659994 -7.06249e-06 -9.17629e-24)
(0.0065914 -9.01675e-06 2.29631e-24)
(0.00658116 -1.08325e-05 -6.98101e-24)
(0.00656938 -1.25179e-05 4.56384e-24)
(0.00655619 -1.40738e-05 9.21623e-24)
(0.00654174 -1.54985e-05 7.26646e-24)
(0.00652616 -1.67902e-05 -1.03878e-23)
(0.00650957 -1.79469e-05 3.13958e-24)
(0.0064921 -1.89672e-05 2.9084e-24)
(0.00647388 -1.98494e-05 -4.44471e-24)
(0.00645502 -2.05925e-05 2.38593e-24)
(0.00643567 -2.11956e-05 -2.87664e-25)
(0.00641593 -2.16573e-05 7.58881e-25)
(0.00531781 -1.59089e-06 -2.13699e-24)
(0.00531394 -3.11813e-06 -3.03003e-24)
(0.00530844 -4.52311e-06 -6.33482e-25)
(0.00530124 -5.83227e-06 7.59973e-24)
(0.00529253 -7.04984e-06 -5.52087e-24)
(0.00528243 -8.18472e-06 -1.18284e-24)
(0.00527105 -9.23692e-06 9.22045e-24)
(0.00525852 -1.02045e-05 1.4061e-25)
(0.00524493 -1.10855e-05 -1.86798e-24)
(0.00523042 -1.1878e-05 -7.5586e-24)
(0.00521508 -1.25804e-05 6.29122e-25)
(0.00519904 -1.31909e-05 5.59208e-24)
(0.00518239 -1.37086e-05 -7.33616e-25)
(0.00516526 -1.41321e-05 -9.64209e-25)
(0.00514775 -1.44597e-05 6.64303e-25)
(0.00413527 -8.43357e-07 -4.64754e-25)
(0.00413236 -1.80198e-06 2.17272e-26)
(0.00412803 -2.68183e-06 3.61958e-24)
(0.00412227 -3.49657e-06 2.51881e-24)
(0.0041152 -4.25481e-06 -1.62648e-24)
(0.00410694 -4.96458e-06 -4.28406e-24)
(0.00409757 -5.6255e-06 1.80704e-24)
(0.00408719 -6.23588e-06 -7.76747e-24)
(0.00407589 -6.79409e-06 6.01454e-24)
(0.00406376 -7.2984e-06 3.31136e-24)
(0.0040509 -7.74749e-06 1.44039e-25)
(0.00403741 -8.13992e-06 -3.82721e-24)
(0.00402336 -8.47486e-06 7.5834e-25)
(0.00400888 -8.75083e-06 -6.4448e-25)
(0.00399404 -8.96615e-06 3.40815e-25)
(0.00305734 -3.88027e-07 -8.52635e-25)
(0.00305533 -9.33156e-07 6.2146e-27)
(0.00305216 -1.43066e-06 2.89002e-24)
(0.00304782 -1.88638e-06 -1.81121e-24)
(0.00304245 -2.31043e-06 7.72591e-24)
(0.0030361 -2.70868e-06 -1.41908e-23)
(0.00302886 -3.08067e-06 1.18157e-23)
(0.00302078 -3.42523e-06 -1.00942e-23)
(0.00301195 -3.74121e-06 7.44833e-24)
(0.00300243 -4.0274e-06 -4.94353e-24)
(0.0029923 -4.28293e-06 1.72613e-24)
(0.00298164 -4.50677e-06 2.63784e-25)
(0.0029705 -4.69838e-06 4.86876e-25)
(0.00295899 -4.85666e-06 -6.18232e-25)
(0.00294716 -4.98026e-06 1.40513e-25)
(0.00207742 -1.46694e-07 1.29993e-24)
(0.00207618 -4.15865e-07 1.455e-24)
(0.00207407 -6.55787e-07 -6.19356e-24)
(0.00207111 -8.70808e-07 4.57695e-24)
(0.0020674 -1.06927e-06 -2.57793e-26)
(0.00206297 -1.25475e-06 1.2596e-24)
(0.00205788 -1.42722e-06 -1.49241e-24)
(0.00205217 -1.58631e-06 -3.2961e-24)
(0.00204589 -1.73169e-06 3.32296e-24)
(0.0020391 -1.86295e-06 4.05446e-25)
(0.00203184 -1.97988e-06 -2.88853e-24)
(0.00202418 -2.08211e-06 1.02785e-24)
(0.00201615 -2.16961e-06 6.84885e-25)
(0.00200783 -2.24167e-06 -7.4936e-26)
(0.00199925 -2.29624e-06 -9.42938e-26)
(0.00118887 -2.98394e-08 -1.31652e-24)
(0.00118824 -1.1567e-07 4.08157e-24)
(0.00118706 -1.87269e-07 2.51771e-24)
(0.00118537 -2.49699e-07 -4.44973e-24)
(0.00118321 -3.06481e-07 -5.2557e-25)
(0.00118063 -3.5984e-07 -4.84126e-25)
(0.00117764 -4.1025e-07 1.52531e-24)
(0.00117426 -4.58038e-07 -2.61148e-24)
(0.00117053 -5.03496e-07 3.67423e-24)
(0.00116648 -5.46831e-07 -1.79351e-24)
(0.00116214 -5.88305e-07 -1.25353e-24)
(0.00115753 -6.28075e-07 7.8537e-25)
(0.0011527 -6.66458e-07 -1.05146e-24)
(0.00114767 -7.02446e-07 1.09212e-24)
(0.00114248 -7.30165e-07 -2.03971e-25)
(0.000385146 4.91209e-08 -9.43676e-27)
(0.00038491 1.24033e-07 7.95545e-25)
(0.000384495 1.81404e-07 9.34506e-25)
(0.000383909 2.20687e-07 -1.444e-24)
(0.000383174 2.43861e-07 3.10861e-24)
(0.000382295 2.52044e-07 -3.36587e-24)
(0.000381279 2.46942e-07 2.30597e-25)
(0.000380133 2.30181e-07 1.98939e-24)
(0.000378866 2.0329e-07 -2.75652e-24)
(0.000377488 1.67708e-07 -5.49963e-25)
(0.000376006 1.24741e-07 2.06865e-24)
(0.000374432 7.56032e-08 -9.30234e-25)
(0.000372777 2.13394e-08 -3.93985e-25)
(0.000371051 -3.6307e-08 3.36841e-25)
(0.000369266 -9.24272e-08 -1.68481e-26)
(0.000908476 -0.000218971 5.99855e-26)
(0.00104514 -0.000124131 1.40062e-24)
(0.00127642 -2.94443e-05 -3.83052e-24)
(0.00151453 4.68485e-05 5.17533e-24)
(0.0017458 0.000106715 -1.9353e-24)
(0.00197474 0.000150837 -1.59651e-24)
(0.00220101 0.000181498 1.70391e-24)
(0.00242486 0.000200598 -3.12721e-24)
(0.00264665 0.000209744 2.79588e-25)
(0.00286663 0.000210366 1.85611e-24)
(0.00308508 0.000203729 -3.3974e-25)
(0.0033023 0.000190933 3.59588e-25)
(0.00351868 0.00017293 -3.75528e-26)
(0.00373468 0.000150597 2.07631e-25)
(0.0039509 0.000124841 -7.52491e-25)
(0.00416805 9.67534e-05 4.04307e-25)
(0.00438737 6.77027e-05 -1.00257e-25)
(0.00461054 3.9645e-05 2.39319e-26)
(0.00484063 1.47512e-05 1.54297e-25)
(0.00508156 -4.52656e-06 -8.49176e-26)
(0.00533913 -1.72207e-05 4.60402e-27)
(0.00561803 -2.43293e-05 -3.27549e-27)
(0.00589647 -3.13791e-05 4.76829e-27)
(0.00614052 -4.52084e-05 1.68209e-26)
(0.00633875 -6.75024e-05 -2.78065e-26)
(0.00649172 -9.78991e-05 1.54646e-26)
(0.00660193 -0.000135034 5.1346e-26)
(0.00667216 -0.000177876 -1.5359e-25)
(0.00670516 -0.000225488 -7.28515e-25)
(0.00670138 -0.000275843 1.55066e-24)
(0.00666186 -0.000327502 -2.90835e-24)
(0.00658707 -0.000376861 3.92591e-24)
(0.00647694 -0.000418161 -1.63358e-24)
(0.00633154 -0.000445211 -3.24853e-24)
(0.00615174 -0.000450609 3.23747e-24)
(0.00593883 -0.000425923 1.26117e-23)
(0.00569452 -0.000361519 -4.58217e-24)
(0.0054209 -0.000245836 1.84717e-24)
(0.00512068 -6.39279e-05 5.61445e-25)
(0.00479774 0.00020406 -1.42043e-23)
(0.00445604 0.00058076 -1.63342e-25)
(0.00410038 0.0010784 5.26803e-24)
(0.00371421 0.00165598 1.38667e-24)
(0.00331781 0.00215821 -7.10763e-24)
(0.00309218 0.0021654 -3.29567e-25)
(0.0017251 -0.00030109 -1.69607e-24)
(0.00178442 -0.000243311 -2.13064e-24)
(0.00193115 -0.000152493 4.60822e-24)
(0.0021152 -6.95692e-05 1.81088e-24)
(0.00231233 2.77607e-07 -6.28341e-24)
(0.00251748 5.47436e-05 6.28341e-24)
(0.00272629 9.50268e-05 -2.19557e-24)
(0.00293667 0.000122855 1.50761e-24)
(0.00314764 0.000139853 -2.00912e-24)
(0.00335867 0.000147526 2.9022e-26)
(0.0035695 0.000147216 -9.6984e-25)
(0.00378008 0.000140089 1.91605e-24)
(0.00399052 0.00012716 -1.04403e-24)
(0.00420103 0.000109362 -8.90987e-25)
(0.00441203 8.76589e-05 -5.18508e-25)
(0.00462393 6.31704e-05 1.10875e-24)
(0.00483772 3.72741e-05 -7.25635e-26)
(0.00505466 1.18983e-05 4.2207e-25)
(0.00527734 -1.08352e-05 8.91159e-27)
(0.00550902 -2.85143e-05 -9.21233e-26)
(0.00575487 -4.01301e-05 -2.08721e-26)
(0.00601906 -4.63896e-05 -5.12829e-27)
(0.0062814 -5.23599e-05 2.39733e-26)
(0.00651098 -6.4433e-05 2.3354e-26)
(0.00669756 -8.41724e-05 -3.66652e-26)
(0.0068418 -0.000111333 4.09232e-26)
(0.00694595 -0.000144606 -2.10329e-25)
(0.00701246 -0.000182942 3.92678e-25)
(0.00704381 -0.000225229 -1.52857e-25)
(0.00704014 -0.000269239 4.73513e-25)
(0.00700288 -0.000313525 -4.6694e-24)
(0.00693243 -0.000354365 8.99354e-24)
(0.00682908 -0.000385927 -8.63851e-24)
(0.00669333 -0.000402103 1.89036e-23)
(0.00652673 -0.000395613 -2.55416e-23)
(0.00633151 -0.000358163 6.46725e-24)
(0.00611075 -0.000280328 2.0353e-23)
(0.00586868 -0.000150947 -6.49339e-24)
(0.00561132 4.40581e-05 -1.45458e-23)
(0.00534825 0.000323176 -7.78293e-24)
(0.00509413 0.000707884 1.77012e-23)
(0.00487355 0.00121121 -1.62196e-23)
(0.00470629 0.00179418 -2.89063e-24)
(0.00464291 0.00229037 9.59192e-24)
(0.00468738 0.00225163 2.71777e-24)
(0.00269797 -0.000311038 -1.88068e-26)
(0.00270948 -0.000296217 -2.52997e-24)
(0.00277641 -0.000238611 4.7701e-24)
(0.00289604 -0.000166673 3.449e-24)
(0.00304431 -9.76497e-05 -5.83263e-24)
(0.00321202 -3.88364e-05 1.43055e-25)
(0.00339187 7.83286e-06 4.82851e-25)
(0.00357928 4.26668e-05 4.7052e-24)
(0.00377155 6.66388e-05 -5.5294e-24)
(0.00396699 8.09635e-05 3.21943e-24)
(0.00416456 8.68642e-05 8.98821e-25)
(0.00436362 8.54579e-05 -5.14542e-24)
(0.00456384 7.7753e-05 1.85083e-24)
(0.0047651 6.47022e-05 7.11092e-25)
(0.00496746 4.72981e-05 -1.39697e-24)
(0.00517106 2.66759e-05 2.14138e-24)
(0.0053765 4.20827e-06 -1.39473e-24)
(0.00558461 -1.82117e-05 4.58076e-26)
(0.0057974 -3.84923e-05 1.29647e-25)
(0.00601743 -5.43483e-05 8.28413e-26)
(0.00624913 -6.46602e-05 1.71593e-26)
(0.00649605 -6.98737e-05 1.36522e-26)
(0.00673965 -7.46135e-05 -2.14207e-26)
(0.00695225 -8.48258e-05 5.74548e-26)
(0.00712492 -0.000101924 -5.11312e-26)
(0.00725844 -0.000125762 2.26368e-26)
(0.00735485 -0.000155076 3.92027e-25)
(0.00741626 -0.000188785 -5.8471e-25)
(0.00744482 -0.000225583 1.62473e-24)
(0.00744039 -0.000263074 1.01339e-24)
(0.00740499 -0.000299842 2.05388e-24)
(0.00733869 -0.000331988 -1.04339e-23)
(0.00724228 -0.00035367 4.08647e-24)
(0.0071167 -0.000358938 9.65813e-24)
(0.00696421 -0.000340761 -2.14168e-23)
(0.00678804 -0.000291208 3.03178e-23)
(0.00659268 -0.000201453 -1.92376e-23)
(0.00638443 -6.14283e-05 2.3679e-23)
(0.00617239 0.000140786 -4.38851e-23)
(0.00597073 0.000419632 1.64034e-23)
(0.0058013 0.000789999 5.33116e-24)
(0.00569836 0.00125633 7.65519e-24)
(0.00569191 0.00177375 -9.48708e-24)
(0.00582315 0.00218823 2.30029e-24)
(0.00598654 0.00214844 -1.34824e-24)
(0.00380853 -0.000296783 -6.89641e-25)
(0.00379442 -0.000308139 -9.75196e-25)
(0.00380995 -0.000282671 -3.9839e-24)
(0.00386769 -0.000234128 1.39308e-24)
(0.00396206 -0.000176459 8.96655e-25)
(0.00408332 -0.000121259 2.78555e-24)
(0.00422431 -7.35658e-05 -5.13528e-24)
(0.00437936 -3.51958e-05 2.09609e-24)
(0.00454442 -6.45294e-06 6.01719e-24)
(0.00471672 1.31517e-05 -1.63001e-24)
(0.00489433 2.44368e-05 -1.4358e-24)
(0.0050759 2.82866e-05 -2.21731e-25)
(0.00526057 2.55846e-05 7.05744e-25)
(0.00544777 1.72258e-05 -1.35396e-24)
(0.00563716 4.18402e-06 3.27625e-25)
(0.00582846 -1.24258e-05 -6.93885e-26)
(0.00602191 -3.12606e-05 -4.46673e-25)
(0.00621779 -5.04813e-05 2.91231e-25)
(0.00641753 -6.8063e-05 6.11879e-25)
(0.0066229 -8.18042e-05 -1.08281e-25)
(0.00683749 -9.0552e-05 -7.48244e-26)
(0.00706412 -9.44861e-05 -8.30248e-27)
(0.00728594 -9.78156e-05 -3.2423e-26)
(0.00747874 -0.000106043 9.53184e-27)
(0.00763494 -0.000120401 2.98625e-26)
(0.00775546 -0.00014083 1.33304e-26)
(0.00784212 -0.000166093 4.33541e-25)
(0.00789676 -0.000195069 -1.12996e-24)
(0.00792107 -0.000226201 1.90625e-24)
(0.00791479 -0.000257105 -1.62819e-26)
(0.00788072 -0.000286289 -1.95674e-24)
(0.00781818 -0.000309696 -3.05291e-25)
(0.00772865 -0.000321604 -3.27928e-25)
(0.00761353 -0.000316332 -2.38151e-24)
(0.00747582 -0.000287265 3.97047e-24)
(0.00731966 -0.00022712 -8.78807e-24)
(0.00715083 -0.000128108 3.79515e-23)
(0.00697732 1.80672e-05 -2.04501e-23)
(0.00681034 0.000220127 -1.26303e-24)
(0.00666634 0.00048684 -3.66101e-23)