/*--------------------------------*- C++ -*----------------------------------*\
| =========                 |                                                 |
| \\      /  F ield         | OpenFOAM: The Open Source CFD Toolbox           |
|  \\    /   O peration     | Version:  2312                                  |
|   \\  /    A nd           | Website:  www.openfoam.com                      |
|    \\/     M anipulation  |                                                 |
\*---------------------------------------------------------------------------*/
FoamFile
{
    version     2.0;
    format      ascii;
    arch        "LSB;label=32;scalar=64";
    class       surfaceScalarField;
    location    "83.75";
    object      phi;
}
// * * * * * * * * * * * * * * * * * * * * * * * * * * * * * * * * * * * * * //

dimensions      [0 3 -1 0 0 0 0];

oriented        oriented;

internalField   nonuniform List<scalar> 
9445
(
5.98509e-10
7.60598e-12
5.9509e-10
3.41949e-12
5.94109e-10
9.80837e-13
5.94708e-10
-5.99401e-13
5.96485e-10
-1.77634e-12
5.99079e-10
-2.59381e-12
6.02502e-10
-3.42367e-12
6.06863e-10
-4.3608e-12
6.12355e-10
-5.49239e-12
6.19413e-10
-7.05809e-12
6.29216e-10
-9.80255e-12
6.45458e-10
-1.62418e-11
6.81255e-10
-3.57975e-11
7.83163e-10
-1.01908e-10
-2.6431e-10
1.04747e-09
2.09428e-09
3.39735e-11
2.0816e-09
1.60928e-11
2.07702e-09
5.5683e-12
2.07767e-09
-1.25746e-12
2.08212e-09
-6.22318e-12
2.08936e-09
-9.83186e-12
2.09932e-09
-1.33902e-11
2.11222e-09
-1.7259e-11
2.12864e-09
-2.19049e-11
2.14985e-09
-2.82702e-11
2.17887e-09
-3.88201e-11
2.22286e-09
-6.0241e-11
2.29572e-09
-1.0865e-10
2.41084e-09
-2.17033e-10
-3.85172e-10
2.5317e-09
4.13928e-09
8.51572e-11
4.11349e-09
4.18834e-11
4.10281e-09
1.6256e-11
4.10197e-09
-4.16368e-13
4.10808e-09
-1.23343e-11
4.11942e-09
-2.11721e-11
4.13579e-09
-2.97661e-11
4.15726e-09
-3.87293e-11
4.18459e-09
-4.92281e-11
4.21942e-09
-6.31027e-11
4.26484e-09
-8.42444e-11
4.32573e-09
-1.21127e-10
4.40491e-09
-1.87834e-10
4.48807e-09
-3.00191e-10
-4.34249e-10
4.53715e-09
6.88263e-09
1.67667e-10
6.83923e-09
8.52832e-11
6.81924e-09
3.62481e-11
6.81461e-09
4.21379e-12
6.82067e-09
-1.84005e-11
6.83472e-09
-3.52201e-11
6.85638e-09
-5.1428e-11
6.88525e-09
-6.75964e-11
6.92178e-09
-8.5759e-11
6.96716e-09
-1.08482e-10
7.02279e-09
-1.39879e-10
7.08853e-09
-1.86868e-10
7.15776e-09
-2.57056e-10
7.20969e-09
-3.52123e-10
-4.45728e-10
7.22117e-09
1.05027e-08
2.87149e-10
1.04373e-08
1.50661e-10
1.04046e-08
6.90286e-11
1.03933e-08
1.54791e-11
1.03969e-08
-2.20394e-11
1.04116e-08
-4.98834e-11
1.04363e-08
-7.614e-11
1.04701e-08
-1.01365e-10
1.05125e-08
-1.28144e-10
1.05634e-08
-1.59424e-10
1.06218e-08
-1.9832e-10
1.06834e-08
-2.48437e-10
1.07375e-08
-3.11193e-10
1.07669e-08
-3.81472e-10
-4.39979e-10
1.07611e-08
1.52073e-08
4.45653e-10
1.51174e-08
2.40555e-10
1.50693e-08
1.17164e-10
1.50486e-08
3.6189e-11
1.50472e-08
-2.0615e-11
1.50602e-08
-6.29171e-11
1.50849e-08
-1.00901e-10
1.51199e-08
-1.36367e-10
1.51636e-08
-1.71831e-10
1.52143e-08
-2.10047e-10
1.52686e-08
-2.52624e-10
1.53202e-08
-3.00052e-10
1.53592e-08
-3.50171e-10
1.53746e-08
-3.96873e-10
-4.29236e-10
1.53638e-08
2.12297e-08
6.37009e-10
2.11177e-08
3.52583e-10
2.10546e-08
1.80234e-10
2.10237e-08
6.71307e-11
2.10155e-08
-1.24342e-11
2.10246e-08
-7.20555e-11
2.10466e-08
-1.22906e-10
2.1079e-08
-1.68735e-10
2.11192e-08
-2.12025e-10
2.11639e-08
-2.54803e-10
2.12087e-08
-2.97421e-10
2.12473e-08
-3.38654e-10
2.12727e-08
-3.75538e-10
2.12796e-08
-4.03769e-10
-4.18534e-10
2.12689e-08
2.88201e-08
8.40615e-10
2.86977e-08
4.74982e-10
2.86264e-08
2.51524e-10
2.8589e-08
1.04552e-10
2.85755e-08
9.90239e-13
2.85802e-08
-7.6758e-11
2.85979e-08
-1.40607e-10
2.86251e-08
-1.95849e-10
2.86582e-08
-2.4513e-10
2.86932e-08
-2.89845e-10
2.87256e-08
-3.29791e-10
2.87505e-08
-3.63568e-10
2.87641e-08
-3.89123e-10
2.87648e-08
-4.0451e-10
-4.08474e-10
2.87548e-08
3.82352e-08
1.01639e-09
3.8128e-08
5.82213e-10
3.80652e-08
3.14301e-10
3.80325e-08
1.3729e-10
3.8021e-08
1.24865e-11
3.80253e-08
-8.10688e-11
3.80405e-08
-1.55823e-10
3.80626e-08
-2.17968e-10
3.80879e-08
-2.70432e-10
3.81125e-08
-3.14438e-10
3.81327e-08
-3.49991e-10
3.81456e-08
-3.76497e-10
3.81498e-08
-3.93342e-10
3.81458e-08
-4.00448e-10
-3.98367e-10
3.81357e-08
4.97377e-08
1.10786e-09
4.96849e-08
6.35018e-10
4.96586e-08
3.40603e-10
4.96507e-08
1.45148e-10
4.96557e-08
7.47851e-12
4.967e-08
-9.53602e-11
4.96899e-08
-1.75721e-10
4.9712e-08
-2.40095e-10
4.97334e-08
-2.91754e-10
4.97511e-08
-3.32186e-10
4.97632e-08
-3.62059e-10
4.97685e-08
-3.81843e-10
4.97673e-08
-3.92139e-10
4.97609e-08
-3.93992e-10
-3.8872e-10
4.97512e-08
6.36278e-08
1.06243e-09
6.3671e-08
5.91829e-10
6.37137e-08
2.9786e-10
6.37562e-08
1.02664e-10
6.37975e-08
-3.38381e-11
6.38375e-08
-1.35314e-10
6.38743e-08
-2.12535e-10
6.39064e-08
-2.72201e-10
6.39324e-08
-3.17789e-10
6.39514e-08
-3.51207e-10
6.39632e-08
-3.73802e-10
6.39682e-08
-3.86844e-10
6.39677e-08
-3.91625e-10
6.39633e-08
-3.89656e-10
-3.82433e-10
6.3957e-08
8.03223e-08
8.65863e-10
8.04808e-08
4.33391e-10
8.0612e-08
1.66599e-10
8.07225e-08
-7.8058e-12
8.08166e-08
-1.27984e-10
8.08961e-08
-2.14812e-10
8.09621e-08
-2.78501e-10
8.10154e-08
-3.25484e-10
8.10567e-08
-3.59121e-10
8.10872e-08
-3.81655e-10
8.11082e-08
-3.9482e-10
8.11215e-08
-4.00205e-10
8.11292e-08
-3.9928e-10
8.11331e-08
-3.93546e-10
-3.84337e-10
8.1135e-08
1.00438e-07
5.61361e-10
1.00688e-07
1.83652e-10
1.00895e-07
-3.99802e-11
1.01068e-07
-1.81258e-10
1.01213e-07
-2.72877e-10
1.01333e-07
-3.34639e-10
1.01431e-07
-3.76633e-10
1.0151e-07
-4.04381e-10
1.01572e-07
-4.21379e-10
1.0162e-07
-4.29871e-10
1.01657e-07
-4.31635e-10
1.01685e-07
-4.28168e-10
1.01707e-07
-4.2075e-10
1.01724e-07
-4.1059e-10
-3.98694e-10
1.01738e-07
1.24764e-07
2.21484e-10
1.25048e-07
-1.00732e-10
1.2529e-07
-2.8157e-10
1.25493e-07
-3.8491e-10
1.25665e-07
-4.442e-10
1.25807e-07
-4.77348e-10
1.25925e-07
-4.94282e-10
1.26021e-07
-5.0049e-10
1.26099e-07
-4.99266e-10
1.26162e-07
-4.92797e-10
1.26213e-07
-4.82622e-10
1.26255e-07
-4.69946e-10
1.2629e-07
-4.55697e-10
1.2632e-07
-4.40697e-10
-4.25563e-10
1.26347e-07
1.54057e-07
-9.97672e-11
1.54329e-07
-3.73268e-10
1.54561e-07
-5.13491e-10
1.54758e-07
-5.82117e-10
1.54925e-07
-6.10923e-10
1.55065e-07
-6.17315e-10
1.55182e-07
-6.10884e-10
1.55278e-07
-5.9721e-10
1.55359e-07
-5.79441e-10
1.55425e-07
-5.59574e-10
1.55482e-07
-5.38811e-10
1.5553e-07
-5.17945e-10
1.55571e-07
-4.97538e-10
1.55609e-07
-4.78067e-10
-4.59781e-10
1.55643e-07
1.88817e-07
-3.87766e-10
1.89056e-07
-6.11761e-10
1.89257e-07
-7.14891e-10
1.89427e-07
-7.52179e-10
1.89571e-07
-7.54321e-10
1.89691e-07
-7.37774e-10
1.89792e-07
-7.11879e-10
1.89877e-07
-6.81933e-10
1.89948e-07
-6.50699e-10
1.90008e-07
-6.20085e-10
1.90061e-07
-5.91072e-10
1.90107e-07
-5.63806e-10
1.90148e-07
-5.38557e-10
1.90185e-07
-5.15521e-10
-4.94582e-10
1.9022e-07
2.29132e-07
-6.41963e-10
2.29336e-07
-8.15907e-10
2.29504e-07
-8.8252e-10
2.29643e-07
-8.91292e-10
2.29759e-07
-8.7051e-10
2.29856e-07
-8.34458e-10
2.29937e-07
-7.93178e-10
2.30006e-07
-7.50826e-10
2.30065e-07
-7.09293e-10
2.30115e-07
-6.70316e-10
2.30159e-07
-6.3525e-10
2.30198e-07
-6.02813e-10
2.30234e-07
-5.74106e-10
2.30266e-07
-5.48012e-10
-5.24991e-10
2.30297e-07
2.74528e-07
-8.68709e-10
2.74701e-07
-9.88395e-10
2.74837e-07
-1.01868e-09
2.74946e-07
-1.00099e-09
2.75036e-07
-9.60283e-10
2.75111e-07
-9.09094e-10
2.75173e-07
-8.55461e-10
2.75226e-07
-8.03998e-10
2.75272e-07
-7.54967e-10
2.75312e-07
-7.10406e-10
2.75348e-07
-6.71091e-10
2.75379e-07
-6.33828e-10
2.75406e-07
-6.01408e-10
2.75431e-07
-5.7283e-10
-5.48251e-10
2.75454e-07
3.23585e-07
-1.05909e-09
3.23718e-07
-1.12161e-09
3.23817e-07
-1.11757e-09
3.23892e-07
-1.0762e-09
3.23951e-07
-1.01911e-09
3.23998e-07
-9.55689e-10
3.24036e-07
-8.93674e-10
3.24069e-07
-8.36541e-10
3.24094e-07
-7.8064e-10
3.24115e-07
-7.31316e-10
3.24134e-07
-6.90298e-10
3.24154e-07
-6.53293e-10
3.24172e-07
-6.19693e-10
3.24189e-07
-5.89244e-10
-5.61028e-10
3.24201e-07
3.73155e-07
-1.16118e-09
3.73212e-07
-1.17886e-09
3.73244e-07
-1.1498e-09
3.73263e-07
-1.09541e-09
3.73275e-07
-1.03113e-09
3.73283e-07
-9.62825e-10
3.73289e-07
-9.00217e-10
3.73296e-07
-8.43751e-10
3.73306e-07
-7.89868e-10
3.73315e-07
-7.40542e-10
3.7332e-07
-6.95669e-10
3.73321e-07
-6.54598e-10
3.7332e-07
-6.18169e-10
3.73317e-07
-5.85851e-10
-5.56765e-10
3.73312e-07
3.70954e-07
-1.20306e-09
3.70961e-07
-1.18569e-09
3.7095e-07
-1.13886e-09
3.70932e-07
-1.07797e-09
3.70913e-07
-1.01151e-09
3.70894e-07
-9.44494e-10
3.70876e-07
-8.81869e-10
3.70856e-07
-8.23839e-10
3.70836e-07
-7.69687e-10
3.70816e-07
-7.20321e-10
3.70796e-07
-6.75616e-10
3.70776e-07
-6.34865e-10
3.70755e-07
-5.977e-10
3.70733e-07
-5.63645e-10
-5.32218e-10
3.70709e-07
3.17622e-07
-1.1739e-09
3.17575e-07
-1.13905e-09
3.17521e-07
-1.0845e-09
3.17465e-07
-1.02239e-09
3.17412e-07
-9.58053e-10
3.17362e-07
-8.95078e-10
3.17316e-07
-8.35575e-10
3.17272e-07
-7.79795e-10
3.17231e-07
-7.28309e-10
3.17191e-07
-6.80875e-10
3.17153e-07
-6.37081e-10
3.17114e-07
-5.96579e-10
3.17075e-07
-5.5877e-10
3.17035e-07
-5.23257e-10
-4.89667e-10
3.16992e-07
2.66226e-07
-1.09727e-09
2.66141e-07
-1.05412e-09
2.66056e-07
-9.99724e-10
2.65974e-07
-9.40493e-10
2.65897e-07
-8.81002e-10
2.65825e-07
-8.23389e-10
2.65759e-07
-7.6867e-10
2.65696e-07
-7.16989e-10
2.65636e-07
-6.68979e-10
2.65579e-07
-6.2387e-10
2.65524e-07
-5.81679e-10
2.65469e-07
-5.42e-10
2.65415e-07
-5.04145e-10
2.6536e-07
-4.68024e-10
-4.33295e-10
2.65303e-07
2.194e-07
-9.8645e-10
2.19289e-07
-9.42696e-10
2.19181e-07
-8.9133e-10
2.19078e-07
-8.37496e-10
2.18981e-07
-7.84071e-10
2.1889e-07
-7.32662e-10
2.18805e-07
-6.83773e-10
2.18725e-07
-6.37363e-10
2.1865e-07
-5.93559e-10
2.18578e-07
-5.52051e-10
2.18509e-07
-5.12518e-10
2.18442e-07
-4.74673e-10
2.18376e-07
-4.38192e-10
2.18311e-07
-4.02804e-10
-3.68346e-10
2.18246e-07
1.78257e-07
-8.46814e-10
1.78122e-07
-8.08077e-10
1.77995e-07
-7.64165e-10
1.77876e-07
-7.18575e-10
1.77765e-07
-6.73483e-10
1.77663e-07
-6.29847e-10
1.77567e-07
-5.8797e-10
1.77477e-07
-5.4789e-10
1.77393e-07
-5.09457e-10
1.77314e-07
-4.72532e-10
1.77238e-07
-4.36842e-10
1.77165e-07
-4.02173e-10
1.77096e-07
-3.68314e-10
1.77028e-07
-3.35078e-10
-3.02308e-10
1.76962e-07
1.43018e-07
-6.97289e-10
1.42876e-07
-6.66327e-10
1.42744e-07
-6.31662e-10
1.42621e-07
-5.95803e-10
1.42508e-07
-5.60152e-10
1.42403e-07
-5.25243e-10
1.42306e-07
-4.91247e-10
1.42216e-07
-4.58203e-10
1.42133e-07
-4.26036e-10
1.42055e-07
-3.9462e-10
1.41982e-07
-3.63795e-10
1.41913e-07
-3.33421e-10
1.41848e-07
-3.03357e-10
1.41787e-07
-2.73537e-10
-2.43858e-10
1.41728e-07
1.13454e-07
-5.54796e-10
1.13321e-07
-5.32774e-10
1.13197e-07
-5.07847e-10
1.13083e-07
-4.81799e-10
1.12978e-07
-4.55456e-10
1.12882e-07
-4.29144e-10
1.12794e-07
-4.03007e-10
1.12713e-07
-3.77144e-10
1.12638e-07
-3.51509e-10
1.1257e-07
-3.26013e-10
1.12507e-07
-3.00577e-10
1.12448e-07
-2.75125e-10
1.12395e-07
-2.49568e-10
1.12345e-07
-2.23985e-10
-1.98243e-10
1.12299e-07
8.90812e-08
-4.30965e-10
8.89658e-08
-4.17322e-10
8.88591e-08
-4.01171e-10
8.87611e-08
-3.83828e-10
8.86714e-08
-3.65716e-10
8.85893e-08
-3.47081e-10
8.85144e-08
-3.28101e-10
8.84462e-08
-3.08886e-10
8.83841e-08
-2.89431e-10
8.83277e-08
-2.69663e-10
8.82767e-08
-2.49546e-10
8.82306e-08
-2.29056e-10
8.81893e-08
-2.08198e-10
8.81523e-08
-1.87046e-10
-1.65572e-10
8.81196e-08
6.92707e-08
-3.29724e-10
6.91761e-08
-3.22781e-10
6.90886e-08
-3.1367e-10
6.90081e-08
-3.03308e-10
6.89342e-08
-2.91853e-10
6.88667e-08
-2.79527e-10
6.88051e-08
-2.6654e-10
6.87492e-08
-2.53005e-10
6.86987e-08
-2.38924e-10
6.86533e-08
-2.24242e-10
6.86127e-08
-2.08932e-10
6.85767e-08
-1.93028e-10
6.8545e-08
-1.76564e-10
6.85176e-08
-1.59646e-10
-1.42292e-10
6.84944e-08
5.33473e-08
-2.49506e-10
5.32718e-08
-2.47287e-10
5.32014e-08
-2.43288e-10
5.31361e-08
-2.3804e-10
5.30758e-08
-2.31549e-10
5.30204e-08
-2.24043e-10
5.29696e-08
-2.15733e-10
5.29233e-08
-2.06723e-10
5.28814e-08
-1.97008e-10
5.28437e-08
-1.8654e-10
5.281e-08
-1.75308e-10
5.27804e-08
-1.63359e-10
5.27546e-08
-1.50765e-10
5.27325e-08
-1.37615e-10
-1.2397e-10
5.27142e-08
4.06599e-08
-1.86511e-10
4.05998e-08
-1.87228e-10
4.05431e-08
-1.86582e-10
4.04898e-08
-1.84745e-10
4.04399e-08
-1.81678e-10
4.03935e-08
-1.77607e-10
4.03505e-08
-1.7272e-10
4.03109e-08
-1.67098e-10
4.02746e-08
-1.6073e-10
4.02416e-08
-1.53576e-10
4.0212e-08
-1.45628e-10
4.01855e-08
-1.36942e-10
4.01624e-08
-1.27591e-10
4.01424e-08
-1.17662e-10
-1.07215e-10
4.01257e-08
3.06237e-08
-1.36913e-10
3.05756e-08
-1.39169e-10
3.05295e-08
-1.40443e-10
3.04854e-08
-1.40636e-10
3.04434e-08
-1.39726e-10
3.04037e-08
-1.37924e-10
3.03664e-08
-1.35379e-10
3.03314e-08
-1.32148e-10
3.02989e-08
-1.28217e-10
3.02689e-08
-1.2355e-10
3.02414e-08
-1.18145e-10
3.02165e-08
-1.12049e-10
3.01942e-08
-1.05332e-10
3.01747e-08
-9.80644e-11
-9.03004e-11
3.01577e-08
2.27363e-08
-9.77632e-11
2.26977e-08
-1.00572e-10
2.266e-08
-1.02699e-10
2.26232e-08
-1.03891e-10
2.25877e-08
-1.04177e-10
2.25535e-08
-1.03732e-10
2.25208e-08
-1.02666e-10
2.24896e-08
-1.01016e-10
2.24602e-08
-9.8768e-11
2.24325e-08
-9.58896e-11
2.24068e-08
-9.23798e-11
2.2383e-08
-8.82758e-11
2.23613e-08
-8.36334e-11
2.23417e-08
-7.85076e-11
-7.29414e-11
2.23244e-08
1.65777e-08
-6.70483e-11
1.65469e-08
-6.97762e-11
1.65162e-08
-7.20245e-11
1.64858e-08
-7.35148e-11
1.64559e-08
-7.43175e-11
1.64268e-08
-7.4566e-11
1.63984e-08
-7.43356e-11
1.63711e-08
-7.36495e-11
1.63448e-08
-7.24929e-11
1.63198e-08
-7.08402e-11
1.62961e-08
-6.86886e-11
1.62739e-08
-6.60641e-11
1.62532e-08
-6.30079e-11
1.62343e-08
-5.9558e-11
-5.57463e-11
1.62171e-08
1.18016e-08
-4.34113e-11
1.17775e-08
-4.56948e-11
1.17531e-08
-4.76232e-11
1.17286e-08
-4.89858e-11
1.17041e-08
-4.98707e-11
1.16799e-08
-5.03684e-11
1.16561e-08
-5.05272e-11
1.16328e-08
-5.03607e-11
1.16102e-08
-4.98567e-11
1.15883e-08
-4.89951e-11
1.15674e-08
-4.77718e-11
1.15476e-08
-4.62025e-11
1.15289e-08
-4.43152e-11
1.15114e-08
-4.21333e-11
-3.96772e-11
1.14954e-08
8.12576e-09
-2.5849e-11
8.10759e-09
-2.75275e-11
8.0889e-09
-2.893e-11
8.06987e-09
-2.99545e-11
8.05068e-09
-3.0681e-11
8.03147e-09
-3.11632e-11
8.01238e-09
-3.14295e-11
7.9935e-09
-3.14876e-11
7.97498e-09
-3.13285e-11
7.95692e-09
-3.09378e-11
7.93946e-09
-3.0311e-11
7.92271e-09
-2.94561e-11
7.90679e-09
-2.83902e-11
7.89178e-09
-2.71256e-11
-2.5672e-11
7.87777e-09
5.32138e-09
-1.35084e-11
5.30843e-09
-1.45697e-11
5.29491e-09
-1.54178e-11
5.28101e-09
-1.60513e-11
5.26686e-09
-1.65253e-11
5.25256e-09
-1.68663e-11
5.23822e-09
-1.70887e-11
5.22393e-09
-1.71962e-11
5.20978e-09
-1.71836e-11
5.19589e-09
-1.70418e-11
5.18234e-09
-1.6767e-11
5.16925e-09
-1.63621e-11
5.15669e-09
-1.58363e-11
5.14476e-09
-1.51947e-11
-1.44381e-11
5.13353e-09
3.20393e-09
-5.59181e-12
3.19549e-09
-6.12766e-12
3.18659e-09
-6.5146e-12
3.17734e-09
-6.81011e-12
3.16786e-09
-7.04054e-12
3.15821e-09
-7.21492e-12
3.14846e-09
-7.33863e-12
3.13868e-09
-7.41295e-12
3.12893e-09
-7.4354e-12
3.11929e-09
-7.40144e-12
3.10983e-09
-7.30883e-12
3.10062e-09
-7.15798e-12
3.09174e-09
-6.95295e-12
3.08324e-09
-6.69479e-12
-6.37967e-12
3.07518e-09
1.62526e-09
-1.33271e-12
1.62064e-09
-1.50266e-12
1.61572e-09
-1.59454e-12
1.61057e-09
-1.66843e-12
1.60526e-09
-1.72923e-12
1.59982e-09
-1.77743e-12
1.5943e-09
-1.81358e-12
1.58872e-09
-1.83763e-12
1.58314e-09
-1.84884e-12
1.57758e-09
-1.84589e-12
1.5721e-09
-1.82811e-12
1.56674e-09
-1.79536e-12
1.56153e-09
-1.7487e-12
1.55653e-09
-1.68791e-12
-1.60888e-12
1.55176e-09
4.66916e-10
4.65413e-10
4.63818e-10
4.6215e-10
4.60421e-10
4.58643e-10
4.5683e-10
4.54992e-10
4.53143e-10
4.51297e-10
4.49469e-10
4.47674e-10
4.45925e-10
4.44237e-10
4.42628e-10
1.25386e-09
-5.06243e-10
2.9986e-10
1.54992e-09
-4.316e-10
1.35539e-10
1.84901e-09
-2.91011e-10
-8.08291e-12
2.14384e-09
-1.51968e-10
-1.42858e-10
2.43221e-09
-2.16995e-11
-2.6667e-10
2.71444e-09
8.97853e-11
-3.7202e-10
2.99154e-09
1.78748e-10
-4.55845e-10
3.26427e-09
2.41795e-10
-5.14526e-10
3.5333e-09
2.75288e-10
-5.44318e-10
3.79911e-09
2.75839e-10
-5.41647e-10
4.06202e-09
2.40037e-10
-5.02949e-10
4.32225e-09
1.64524e-10
-4.24756e-10
4.57985e-09
4.70367e-11
-3.0463e-10
4.83478e-09
-1.12367e-10
-1.4257e-10
5.08714e-09
-3.09163e-10
5.68084e-11
5.3375e-09
-5.29975e-10
2.79608e-10
5.58751e-09
-7.48631e-10
4.98626e-10
5.84079e-09
-9.17443e-10
6.64167e-10
6.10385e-09
-9.69078e-10
7.06014e-10
6.38675e-09
-8.07729e-10
5.24826e-10
6.70197e-09
-3.43979e-10
2.87574e-11
7.05998e-09
4.78445e-10
-8.36456e-10
7.40356e-09
1.29334e-09
-1.63691e-09
7.69881e-09
1.69097e-09
-1.98622e-09
7.93811e-09
1.72353e-09
-1.96283e-09
8.12006e-09
1.4875e-09
-1.66945e-09
8.24617e-09
1.08004e-09
-1.20615e-09
8.31839e-09
5.71813e-10
-6.44028e-10
8.33813e-09
1.37644e-11
-3.35094e-11
8.30611e-09
-5.49835e-10
5.81857e-10
8.22296e-09
-1.07852e-09
1.16167e-09
8.08984e-09
-1.53485e-09
1.66797e-09
7.90883e-09
-1.88661e-09
2.06761e-09
7.68296e-09
-2.10933e-09
2.3352e-09
7.41588e-09
-2.1877e-09
2.45478e-09
7.11142e-09
-2.11512e-09
2.41958e-09
6.77317e-09
-1.89176e-09
2.23001e-09
6.40438e-09
-1.52106e-09
1.88985e-09
6.00832e-09
-1.0052e-09
1.40127e-09
5.5885e-09
-3.41541e-10
7.61361e-10
5.14387e-09
4.73235e-10
-2.86127e-11
4.66824e-09
1.42103e-09
-9.45396e-10
4.14162e-09
2.39182e-09
-1.86519e-09
3.56871e-09
3.12585e-09
-2.55295e-09
2.91564e-09
3.22985e-09
-2.57678e-09
2.61386e-09
-5.88398e-10
2.79064e-09
-6.08382e-10
3.031e-09
-5.3137e-10
3.29957e-09
-4.20534e-10
3.58134e-09
-3.03473e-10
3.8681e-09
-1.96975e-10
4.15617e-09
-1.09324e-10
4.44375e-09
-4.57837e-11
4.73001e-09
-1.09709e-11
5.01448e-09
-8.63609e-12
5.29686e-09
-4.23386e-11
5.5769e-09
-1.15517e-10
5.8543e-09
-2.30361e-10
6.12868e-09
-3.86749e-10
6.39986e-09
-5.8034e-10
6.66817e-09
-7.98286e-10
6.93506e-09
-1.01552e-09
7.20413e-09
-1.18651e-09
7.48212e-09
-1.24708e-09
7.77976e-09
-1.10537e-09
8.11073e-09
-6.74943e-10
8.48731e-09
1.01863e-10
8.85112e-09
9.29531e-10
9.16665e-09
1.37543e-09
9.42519e-09
1.465e-09
9.62439e-09
1.2883e-09
9.76508e-09
9.39356e-10
9.84861e-09
4.88275e-10
9.8761e-09
-1.37231e-11
9.84818e-09
-5.21916e-10
9.76559e-09
-9.95927e-10
9.62988e-09
-1.39914e-09
9.44377e-09
-1.7005e-09
9.21122e-09
-1.87678e-09
8.93718e-09
-1.91366e-09
8.62726e-09
-1.8052e-09
8.28755e-09
-1.55206e-09
7.92496e-09
-1.15846e-09
7.54841e-09
-6.28657e-10
7.17153e-09
3.53347e-11
6.81263e-09
8.32135e-10
6.49874e-09
1.73492e-09
6.26151e-09
2.62905e-09
6.14797e-09
3.2394e-09
2.99836e-09
6.06525e-09
4.55406e-09
-6.05308e-10
4.63359e-09
-6.87918e-10
4.78797e-09
-6.85745e-10
4.99884e-09
-6.31404e-10
5.24506e-09
-5.4969e-10
5.51268e-09
-4.64602e-10
5.79297e-09
-3.89615e-10
6.08052e-09
-3.33334e-10
6.37207e-09
-3.02516e-10
6.66544e-09
-3.02006e-10
6.95911e-09
-3.3601e-10
7.25198e-09
-4.08386e-10
7.54304e-09
-5.21416e-10
7.83133e-09
-6.7504e-10
8.11616e-09
-8.65172e-10
8.39744e-09
-1.07956e-09
8.67625e-09
-1.29434e-09
8.95601e-09
-1.46627e-09
9.24353e-09
-1.5346e-09
9.55008e-09
-1.41191e-09
9.89049e-09
-1.01535e-09
1.0279e-08
-2.8669e-10
1.06576e-08
5.50969e-10
1.09895e-08
1.04353e-09
1.12647e-08
1.18977e-09
1.14798e-08
1.07324e-09
1.16345e-08
7.84624e-10
1.17295e-08
3.93295e-10
1.17654e-08
-4.9606e-11
1.17427e-08
-4.99186e-10
1.16622e-08
-9.15452e-10
1.1526e-08
-1.26294e-09
1.13376e-08
-1.5121e-09
1.11021e-08
-1.64131e-09
1.08261e-08
-1.63766e-09
1.05174e-08
-1.49649e-09
1.01851e-08
-1.21975e-09
9.8404e-09
-8.13752e-10
9.4987e-09
-2.86955e-10
9.18256e-09
3.51469e-10
8.92723e-09
1.08747e-09
8.77861e-09
1.88354e-09
8.77724e-09
2.63041e-09
8.91267e-09
3.10397e-09
2.92574e-09
8.98529e-09
7.20204e-09
-5.86181e-10
7.21694e-09
-7.02818e-10
7.28799e-09
-7.56789e-10
7.42102e-09
-7.64439e-10
7.60649e-09
-7.35164e-10
7.82909e-09
-6.87196e-10
8.0779e-09
-6.38423e-10
8.34468e-09
-6.00117e-10
8.62365e-09
-5.81488e-10
8.9105e-09
-5.88857e-10
9.20204e-09
-6.27549e-10
9.49589e-09
-7.02234e-10
9.78996e-09
-8.15486e-10
1.00824e-08
-9.67496e-10
1.03718e-08
-1.15456e-09
1.06574e-08
-1.36511e-09
1.09396e-08
-1.57658e-09
1.12215e-08
-1.7482e-09
1.15099e-08
-1.82293e-09
1.18162e-08
-1.71825e-09
1.21564e-08
-1.35558e-09
1.25469e-08
-6.77148e-10
1.29316e-08
1.66261e-10
1.32733e-08
7.01798e-10
1.35605e-08
9.02562e-10
1.37883e-08
8.45448e-10
1.39553e-08
6.1769e-10
1.40608e-08
2.8772e-10
1.41051e-08
-9.38829e-11
1.40883e-08
-4.82375e-10
1.40114e-08
-8.38583e-10
1.38771e-08
-1.12858e-09
1.36897e-08
-1.32474e-09
1.34558e-08
-1.40744e-09
1.31839e-08
-1.36569e-09
1.28841e-08
-1.1967e-09
1.25689e-08
-9.04524e-10
1.22536e-08
-4.98538e-10
1.19591e-08
7.54429e-12
1.17144e-08
5.96249e-10
1.15602e-08
1.24166e-09
1.15442e-08
1.8995e-09
1.16953e-08
2.47931e-09
1.19722e-08
2.82711e-09
2.74273e-09
1.21552e-08
1.0728e-08
-5.53076e-10
1.07037e-08
-6.78498e-10
1.07139e-08
-7.66918e-10
1.07697e-08
-8.20251e-10
1.08795e-08
-8.45029e-10
1.10363e-08
-8.43951e-10
1.12301e-08
-8.32202e-10
1.14525e-08
-8.22511e-10
1.16965e-08
-8.25553e-10
1.19562e-08
-8.48559e-10
1.22267e-08
-8.98074e-10
1.25043e-08
-9.79781e-10
1.27855e-08
-1.09664e-09
1.30672e-08
-1.24928e-09
1.33472e-08
-1.43453e-09
1.36236e-08
-1.64156e-09
1.38963e-08
-1.84927e-09
1.41676e-08
-2.01945e-09
1.44437e-08
-2.09909e-09
1.47365e-08
-2.01105e-09
1.50627e-08
-1.68174e-09
1.54406e-08
-1.055e-09
1.58187e-08
-2.11914e-10
1.61602e-08
3.60306e-10
1.64517e-08
6.11067e-10
1.66866e-08
6.10576e-10
1.68618e-08
4.42433e-10
1.69756e-08
1.73969e-10
1.70271e-08
-1.45389e-10
1.70162e-08
-4.71491e-10
1.69441e-08
-7.66461e-10
1.68139e-08
-9.98397e-10
1.66312e-08
-1.14204e-09
1.6404e-08
-1.18021e-09
1.61426e-08
-1.10432e-09
1.58599e-08
-9.13949e-10
1.55712e-08
-6.15831e-10
1.52954e-08
-2.22772e-10
1.50562e-08
2.46724e-10
1.48841e-08
7.68339e-10
1.48162e-08
1.30959e-09
1.48894e-08
1.82633e-09
1.5116e-08
2.25267e-09
1.54449e-08
2.49825e-09
2.47403e-09
1.57136e-08
1.53298e-08
-5.19087e-10
1.52878e-08
-6.36477e-10
1.52609e-08
-7.39981e-10
1.52614e-08
-8.20794e-10
1.53004e-08
-8.84008e-10
1.53816e-08
-9.25139e-10
1.55053e-08
-9.55885e-10
1.56631e-08
-9.80391e-10
1.58501e-08
-1.01255e-09
1.60599e-08
-1.05831e-09
1.62869e-08
-1.1251e-09
1.65264e-08
-1.2193e-09
1.67738e-08
-1.34402e-09
1.70249e-08
-1.50036e-09
1.72762e-08
-1.68582e-09
1.75249e-08
-1.89029e-09
1.77699e-08
-2.09422e-09
1.80125e-08
-2.26208e-09
1.82585e-08
-2.34512e-09
1.85196e-08
-2.27206e-09
1.88128e-08
-1.97495e-09
1.91583e-08
-1.40055e-09
1.95124e-08
-5.66041e-10
1.98393e-08
3.33956e-11
2.01236e-08
3.26783e-10
2.03566e-08
3.77559e-10
2.05335e-08
2.65534e-10
2.06507e-08
5.67923e-11
2.07065e-08
-2.01136e-10
2.07002e-08
-4.65185e-10
2.0633e-08
-6.99311e-10
2.05088e-08
-8.74194e-10
2.03342e-08
-9.67413e-10
2.01186e-08
-9.64645e-10
1.98744e-08
-8.60075e-10
1.96164e-08
-6.55953e-10
1.93623e-08
-3.61792e-10
1.9133e-08
6.59034e-12
1.89521e-08
4.2755e-10
1.88471e-08
8.73411e-10
1.88455e-08
1.3112e-09
1.89689e-08
1.70287e-09
1.92165e-08
2.00507e-09
1.95426e-08
2.1722e-09
2.1715e-09
1.98451e-08
2.124e-08
-4.90151e-10
2.1197e-08
-5.93503e-10
2.11529e-08
-6.95854e-10
2.11215e-08
-7.89388e-10
2.11111e-08
-8.73625e-10
2.11293e-08
-9.43354e-10
2.11811e-08
-1.00772e-09
2.12662e-08
-1.06546e-09
2.13819e-08
-1.12824e-09
2.15232e-08
-1.19966e-09
2.16859e-08
-1.28775e-09
2.18651e-08
-1.39854e-09
2.20557e-08
-1.53464e-09
2.2253e-08
-1.69761e-09
2.24525e-08
-1.88537e-09
2.26506e-08
-2.08836e-09
2.2845e-08
-2.28865e-09
2.30363e-08
-2.45336e-09
2.32294e-08
-2.5382e-09
2.34354e-08
-2.47811e-09
2.36718e-08
-2.21131e-09
2.396e-08
-1.68873e-09
2.42674e-08
-8.73454e-10
2.45606e-08
-2.59838e-10
2.48218e-08
6.55835e-11
2.504e-08
1.59339e-10
2.52083e-08
9.72581e-11
2.5321e-08
-5.59193e-11
2.53754e-08
-2.55504e-10
2.53702e-08
-4.59978e-10
2.53066e-08
-6.35705e-10
2.51889e-08
-7.56535e-10
2.50248e-08
-8.03321e-10
2.48251e-08
-7.64931e-10
2.46035e-08
-6.38486e-10
2.43765e-08
-4.28903e-10
2.41628e-08
-1.48154e-10
2.39829e-08
1.86566e-10
2.38584e-08
5.52034e-10
2.38102e-08
9.21551e-10
2.38553e-08
1.26612e-09
2.40015e-08
1.55674e-09
2.42393e-08
1.76726e-09
2.45335e-08
1.87791e-09
1.88118e-09
2.48239e-08
2.87315e-08
-4.66855e-10
2.86943e-08
-5.56355e-10
2.86491e-08
-6.50627e-10
2.86043e-08
-7.44592e-10
2.85664e-08
-8.35746e-10
2.85445e-08
-9.21487e-10
2.85421e-08
-1.00527e-09
2.85628e-08
-1.08617e-09
2.86072e-08
-1.17268e-09
2.86745e-08
-1.26692e-09
2.87616e-08
-1.37484e-09
2.8865e-08
-1.50191e-09
2.898e-08
-1.64972e-09
2.91025e-08
-1.82007e-09
2.92278e-08
-2.01062e-09
2.93515e-08
-2.21206e-09
2.94709e-08
-2.40807e-09
2.95857e-08
-2.56818e-09
2.97001e-08
-2.65262e-09
2.98248e-08
-2.60279e-09
2.99769e-08
-2.36338e-09
3.01786e-08
-1.89046e-09
3.04123e-08
-1.10719e-09
3.06485e-08
-4.95978e-10
3.08664e-08
-1.52389e-10
3.10527e-08
-2.69632e-11
3.11981e-08
-4.81345e-11
3.12947e-08
-1.52532e-10
3.13388e-08
-2.99567e-10
3.13284e-08
-4.49542e-10
3.12645e-08
-5.71794e-10
3.11518e-08
-6.43927e-10
3.09989e-08
-6.50408e-10
3.08175e-08
-5.83452e-10
3.0622e-08
-4.43029e-10
3.04293e-08
-2.36237e-10
3.02583e-08
2.28601e-11
3.01265e-08
3.18354e-10
3.0052e-08
6.26569e-10
3.00484e-08
9.25143e-10
3.01233e-08
1.1912e-09
3.02752e-08
1.40483e-09
3.04909e-08
1.55155e-09
3.07443e-08
1.62455e-09
1.62609e-09
3.09994e-08
3.81162e-08
-4.47425e-10
3.80853e-08
-5.25373e-10
3.80447e-08
-6.10081e-10
3.79987e-08
-6.98597e-10
3.79518e-08
-7.88793e-10
3.79095e-08
-8.79176e-10
3.78748e-08
-9.70593e-10
3.78524e-08
-1.06376e-09
3.78426e-08
-1.16289e-09
3.78465e-08
-1.27081e-09
3.78624e-08
-1.39081e-09
3.78883e-08
-1.52773e-09
3.79218e-08
-1.68331e-09
3.79591e-08
-1.85734e-09
3.79958e-08
-2.04731e-09
3.80278e-08
-2.24402e-09
3.80524e-08
-2.43265e-09
3.80689e-08
-2.58474e-09
3.80812e-08
-2.66493e-09
3.80995e-08
-2.62109e-09
3.81405e-08
-2.40439e-09
3.82266e-08
-1.97657e-09
3.83585e-08
-1.23905e-09
3.8512e-08
-6.49486e-10
3.8664e-08
-3.04328e-10
3.87981e-08
-1.61091e-10
3.89029e-08
-1.5296e-10
3.89681e-08
-2.17767e-10
3.89896e-08
-3.20978e-10
3.89644e-08
-4.24364e-10
3.88934e-08
-5.00784e-10
3.87816e-08
-5.32129e-10
3.86378e-08
-5.06626e-10
3.84741e-08
-4.19763e-10
3.83051e-08
-2.74017e-10
3.8147e-08
-7.81146e-11
3.80155e-08
1.54284e-10
3.79268e-08
4.07058e-10
3.78927e-08
6.60713e-10
3.79206e-08
8.97207e-10
3.80117e-08
1.10015e-09
3.81595e-08
1.25702e-09
3.83504e-08
1.36064e-09
3.85649e-08
1.41003e-09
1.41009e-09
3.87809e-08
4.97348e-08
-4.31008e-10
4.9709e-08
-4.99612e-10
4.96743e-08
-5.75324e-10
4.96323e-08
-6.56614e-10
4.95856e-08
-7.4206e-10
4.9537e-08
-8.30644e-10
4.9489e-08
-9.22518e-10
4.94437e-08
-1.01854e-09
4.94018e-08
-1.1209e-09
4.93633e-08
-1.23233e-09
4.93277e-08
-1.35524e-09
4.92927e-08
-1.49275e-09
4.9256e-08
-1.64654e-09
4.92143e-08
-1.81572e-09
4.91644e-08
-1.99735e-09
4.91023e-08
-2.18198e-09
4.90259e-08
-2.35626e-09
4.89347e-08
-2.4935e-09
4.88323e-08
-2.56253e-09
4.87288e-08
-2.51759e-09
4.86406e-08
-2.3162e-09
4.85896e-08
-1.92557e-09
4.85966e-08
-1.24608e-09
4.86449e-08
-6.977e-10
4.87094e-08
-3.68865e-10
4.87711e-08
-2.22808e-10
4.88165e-08
-1.98365e-10
4.88334e-08
-2.34693e-10
4.88176e-08
-3.05157e-10
4.87657e-08
-3.72411e-10
4.86781e-08
-4.13213e-10
4.85601e-08
-4.14105e-10
4.84203e-08
-3.66901e-10
4.82706e-08
-2.70034e-10
4.81244e-08
-1.27808e-10
4.7996e-08
5.02688e-11
4.78984e-08
2.51916e-10
4.78433e-08
4.62178e-10
4.78377e-08
6.66234e-10
4.78844e-08
8.50525e-10
4.79805e-08
1.00409e-09
4.81178e-08
1.11965e-09
4.82843e-08
1.19418e-09
4.84654e-08
1.22896e-09
1.22886e-09
4.86466e-08
6.39455e-08
-4.19439e-10
6.39262e-08
-4.8032e-10
6.38988e-08
-5.47977e-10
6.3864e-08
-6.21739e-10
6.38227e-08
-7.0079e-10
6.37765e-08
-7.84463e-10
6.37267e-08
-8.7268e-10
6.36741e-08
-9.65948e-10
6.36187e-08
-1.06551e-09
6.35596e-08
-1.17329e-09
6.34955e-08
-1.29112e-09
6.34235e-08
-1.42078e-09
6.33406e-08
-1.56357e-09
6.32429e-08
-1.718e-09
6.31267e-08
-1.88121e-09
6.29883e-08
-2.04352e-09
6.28252e-08
-2.19325e-09
6.26372e-08
-2.30545e-09
6.24278e-08
-2.35312e-09
6.22068e-08
-2.29657e-09
6.19902e-08
-2.09968e-09
6.17993e-08
-1.73461e-09
6.16736e-08
-1.12037e-09
6.16049e-08
-6.29007e-10
6.15678e-08
-3.31802e-10
6.15412e-08
-1.9617e-10
6.15125e-08
-1.69714e-10
6.14702e-08
-1.92348e-10
6.14041e-08
-2.3909e-10
6.13128e-08
-2.8108e-10
6.11983e-08
-2.98774e-10
6.10656e-08
-2.81353e-10
6.09227e-08
-2.2399e-10
6.07803e-08
-1.27639e-10
6.065e-08
2.50905e-12
6.05429e-08
1.57378e-10
6.04691e-08
3.25662e-10
6.04358e-08
4.95469e-10
6.04463e-08
6.55773e-10
6.04998e-08
7.97041e-10
6.05916e-08
9.12284e-10
6.07137e-08
9.97523e-10
6.0856e-08
1.05185e-09
6.10078e-08
1.07717e-09
1.07746e-09
6.11592e-08
8.11324e-08
-4.16866e-10
8.11233e-08
-4.71218e-10
8.1107e-08
-5.31705e-10
8.10834e-08
-5.98132e-10
8.10528e-08
-6.7011e-10
8.10155e-08
-7.4725e-10
8.09723e-08
-8.2939e-10
8.0923e-08
-9.16715e-10
8.08673e-08
-1.00984e-09
8.08038e-08
-1.10976e-09
8.07303e-08
-1.21757e-09
8.06434e-08
-1.33397e-09
8.05394e-08
-1.45952e-09
8.04134e-08
-1.59202e-09
8.02609e-08
-1.72872e-09
8.00772e-08
-1.85978e-09
7.98592e-08
-1.97527e-09
7.96058e-08
-2.05206e-09
7.93201e-08
-2.06738e-09
7.90108e-08
-1.98725e-09
7.8693e-08
-1.78193e-09
7.83871e-08
-1.42868e-09
7.81454e-08
-8.78659e-10
7.79686e-08
-4.52234e-10
7.78365e-08
-1.99711e-10
7.7725e-08
-8.46703e-11
7.76159e-08
-6.06603e-11
7.7504e-08
-8.03949e-11
7.73815e-08
-1.16588e-10
7.72456e-08
-1.45213e-10
7.70984e-08
-1.51519e-10
7.69447e-08
-1.27716e-10
7.67921e-08
-7.14013e-11
7.66503e-08
1.42188e-11
7.65272e-08
1.25618e-10
7.64318e-08
2.52758e-10
7.63706e-08
3.86886e-10
7.6347e-08
5.19056e-10
7.63615e-08
6.41285e-10
7.64114e-08
7.47118e-10
7.64915e-08
8.32218e-10
7.65945e-08
8.94493e-10
7.67124e-08
9.33948e-10
7.68372e-08
9.52378e-10
9.52774e-10
7.69619e-08
1.01748e-07
-4.27162e-10
1.01753e-07
-4.75891e-10
1.01751e-07
-5.29983e-10
1.01743e-07
-5.89464e-10
1.01727e-07
-6.54192e-10
1.01703e-07
-7.23952e-10
1.01673e-07
-7.98556e-10
1.01634e-07
-8.77962e-10
1.01586e-07
-9.62296e-10
1.01528e-07
-1.05181e-09
1.01458e-07
-1.14682e-09
1.01371e-07
-1.24704e-09
1.01263e-07
-1.35223e-09
1.01131e-07
-1.45931e-09
1.00967e-07
-1.56554e-09
1.00768e-07
-1.66082e-09
1.0053e-07
-1.73684e-09
1.0025e-07
-1.77215e-09
9.99308e-08
-1.74798e-09
9.95792e-08
-1.63571e-09
9.92085e-08
-1.41119e-09
9.88375e-08
-1.05766e-09
9.85239e-08
-5.65074e-10
9.8274e-08
-2.02352e-10
9.80701e-08
4.19913e-12