/*--------------------------------*- C++ -*----------------------------------*\
| =========                 |                                                 |
| \\      /  F ield         | OpenFOAM: The Open Source CFD Toolbox           |
|  \\    /   O peration     | Version:  2312                                  |
|   \\  /    A nd           | Website:  www.openfoam.com                      |
|    \\/     M anipulation  |                                                 |
\*---------------------------------------------------------------------------*/
FoamFile
{
    version     2.0;
    format      ascii;
    arch        "LSB;label=32;scalar=64";
    class       volScalarField;
    location    "62";
    object      p;
}
// * * * * * * * * * * * * * * * * * * * * * * * * * * * * * * * * * * * * * //

dimensions      [0 2 -2 0 0 0 0];

internalField   nonuniform List<scalar> 
4800
(
1.52266e-13
-1.07688e-06
-2.01734e-06
-2.85479e-06
-3.6081e-06
-4.29541e-06
-4.9168e-06
-5.48004e-06
-5.99327e-06
-6.46251e-06
-6.89249e-06
-7.28418e-06
-7.62851e-06
-8.16964e-06
-9.9033e-06
9.84336e-09
-1.06543e-06
-2.00418e-06
-2.84054e-06
-3.59366e-06
-4.28149e-06
-4.90459e-06
-5.47109e-06
-5.9899e-06
-6.46903e-06
-6.91815e-06
-7.35208e-06
-7.78372e-06
-8.32148e-06
-9.21553e-06
2.05191e-08
-1.05286e-06
-1.98989e-06
-2.82492e-06
-3.57659e-06
-4.26435e-06
-4.8885e-06
-5.45731e-06
-5.98033e-06
-6.46633e-06
-6.92606e-06
-7.37458e-06
-7.81889e-06
-8.26272e-06
-8.67444e-06
3.19677e-08
-1.03872e-06
-1.9733e-06
-2.80681e-06
-3.55581e-06
-4.24266e-06
-4.86695e-06
-5.43624e-06
-5.96014e-06
-6.44656e-06
-6.90317e-06
-7.33556e-06
-7.73332e-06
-8.05971e-06
-8.23664e-06
4.55272e-08
-1.02146e-06
-1.95258e-06
-2.7836e-06
-3.52974e-06
-4.21336e-06
-4.83623e-06
-5.40343e-06
-5.92353e-06
-6.40211e-06
-6.84139e-06
-7.23647e-06
-7.56519e-06
-7.78439e-06
-7.83383e-06
6.28255e-08
-9.99369e-07
-1.92588e-06
-2.75264e-06
-3.496e-06
-4.17334e-06
-4.7919e-06
-5.35317e-06
-5.86327e-06
-6.32443e-06
-6.73327e-06
-7.07798e-06
-7.33433e-06
-7.46953e-06
-7.453e-06
8.63812e-08
-9.69925e-07
-1.89052e-06
-2.71123e-06
-3.4496e-06
-4.11886e-06
-4.72863e-06
-5.27851e-06
-5.77118e-06
-6.20539e-06
-6.57392e-06
-6.86322e-06
-7.05446e-06
-7.1305e-06
-7.08358e-06
1.202e-07
-9.29257e-07
-1.84243e-06
-2.65512e-06
-3.38499e-06
-4.0439e-06
-4.63961e-06
-5.17148e-06
-5.63904e-06
-6.03846e-06
-6.36161e-06
-6.59771e-06
-6.73651e-06
-6.77431e-06
-6.71601e-06
1.70003e-07
-8.71895e-07
-1.77599e-06
-2.57824e-06
-3.29613e-06
-3.9403e-06
-4.51645e-06
-5.02363e-06
-5.45943e-06
-5.81934e-06
-6.09705e-06
-6.28703e-06
-6.38714e-06
-6.4024e-06
-6.34301e-06
2.42927e-07
-7.90915e-07
-1.68414e-06
-2.47312e-06
-3.17515e-06
-3.79954e-06
-4.35056e-06
-4.82721e-06
-5.22682e-06
-5.54612e-06
-5.78235e-06
-5.93543e-06
-6.00919e-06
-6.01303e-06
-5.9584e-06
3.46729e-07
-6.78567e-07
-1.5589e-06
-2.33144e-06
-3.01336e-06
-3.6132e-06
-4.13431e-06
-4.57645e-06
-4.93831e-06
-5.21926e-06
-5.42043e-06
-5.54607e-06
-5.60346e-06
-5.60353e-06
-5.55703e-06
4.89077e-07
-5.26968e-07
-1.39215e-06
-2.14485e-06
-2.80285e-06
-3.3742e-06
-3.86228e-06
-4.26852e-06
-4.59409e-06
-4.84145e-06
-5.01502e-06
-5.12179e-06
-5.17053e-06
-5.17198e-06
-5.13557e-06
6.77664e-07
-3.28161e-07
-1.17579e-06
-1.90606e-06
-2.53732e-06
-3.07773e-06
-3.532e-06
-3.90384e-06
-4.1972e-06
-4.41729e-06
-4.5708e-06
-4.66603e-06
-4.71196e-06
-4.71838e-06
-4.69324e-06
9.20904e-07
-7.33792e-08
-9.02593e-07
-1.60886e-06
-2.21173e-06
-2.72106e-06
-3.14359e-06
-3.48524e-06
-3.75239e-06
-3.95232e-06
-4.09295e-06
-4.18291e-06
-4.23066e-06
-4.24475e-06
-4.23184e-06
1.22848e-06
2.45083e-07
-5.6554e-07
-1.24733e-06
-1.82238e-06
-2.30338e-06
-2.69899e-06
-3.01693e-06
-3.26521e-06
-3.45233e-06
-3.58675e-06
-3.67694e-06
-3.73054e-06
-3.75481e-06
-3.75531e-06
1.6087e-06
6.35799e-07
-1.57611e-07
-8.17029e-07
-1.36808e-06
-1.82613e-06
-2.2018e-06
-2.50419e-06
-2.7422e-06
-2.92441e-06
-3.05905e-06
-3.15443e-06
-3.21762e-06
-3.25472e-06
-3.27042e-06
2.06747e-06
1.1051e-06
3.25796e-07
-3.16608e-07
-8.50615e-07
-1.29359e-06
-1.65781e-06
-1.95348e-06
-2.19038e-06
-2.37693e-06
-2.51977e-06
-2.62666e-06
-2.70346e-06
-2.75587e-06
-2.78906e-06
2.60402e-06
1.65292e-06
8.82933e-07
2.49726e-07
-2.76536e-07
-7.1477e-07
-1.07786e-06
-1.37583e-06
-1.6196e-06
-1.81765e-06
-1.9769e-06
-2.10605e-06
-2.20462e-06
-2.27599e-06
-2.32935e-06
3.2093e-06
2.26965e-06
1.50395e-06
8.7057e-07
3.41657e-07
-1.0317e-07
-4.77202e-07
-7.8931e-07
-1.051e-06
-1.26452e-06
-1.44031e-06
-1.59532e-06
-1.72954e-06
-1.83673e-06
-1.91244e-06
3.86698e-06
2.93975e-06
2.17334e-06
1.53092e-06
9.87627e-07
5.25092e-07
1.29716e-07
-2.06788e-07
-5.00322e-07
-7.55348e-07
-9.68977e-07
-1.14737e-06
-1.29997e-06
-1.43225e-06
-1.54579e-06
4.48332e-06
3.57238e-06
2.80396e-06
2.14772e-06
1.58269e-06
1.09407e-06
6.68912e-07
2.97924e-07
-2.45016e-08
-3.04719e-07
-5.49968e-07
-7.65772e-07
-9.57446e-07
-1.12912e-06
-1.28298e-06
4.97839e-06
4.08594e-06
3.31829e-06
2.65125e-06
2.06773e-06
1.55593e-06
1.10535e-06
7.07091e-07
3.53698e-07
3.83945e-08
-2.44384e-07
-4.98834e-07
-7.28546e-07
-9.36488e-07
-1.1249e-06
5.33708e-06
4.46821e-06
3.70723e-06
3.0355e-06
2.43981e-06
1.91038e-06
1.43805e-06
1.01434e-06
6.32346e-07
2.86713e-07
-2.69404e-08
-3.12199e-07
-5.72103e-07
-8.09216e-07
-1.02586e-06
5.59471e-06
4.75132e-06
4.00144e-06
3.33042e-06
2.72833e-06
2.18685e-06
1.69788e-06
1.25415e-06
8.49861e-07
4.80541e-07
1.42473e-07
-1.67474e-07
-4.52038e-07
-7.13576e-07
-9.54269e-07
5.77951e-06
4.96316e-06
4.22686e-06
3.56052e-06
2.95663e-06
2.40779e-06
1.90704e-06
1.44839e-06
1.02704e-06
6.3918e-07
2.8161e-07
-4.84018e-08
-3.5326e-07
-6.34994e-07
-8.95461e-07
5.91243e-06
5.12191e-06
4.40135e-06
3.74314e-06
3.14091e-06
2.58834e-06
2.07971e-06
1.6102e-06
1.17587e-06
7.73493e-07
4.00361e-07
5.41866e-08
-2.67034e-07
-5.64991e-07
-8.41266e-07
6.00805e-06
5.2434e-06
4.53971e-06
3.89094e-06
3.2921e-06
2.7381e-06
2.22435e-06
1.74695e-06
1.30269e-06
8.88936e-07
5.03445e-07
1.44354e-07
-1.89986e-07
-5.00985e-07
-7.90003e-07
6.0786e-06
5.33804e-06
4.65032e-06
4.01112e-06
3.41664e-06
2.86276e-06
2.34578e-06
1.86264e-06
1.41076e-06
9.88043e-07
5.92678e-07
2.23174e-07
-1.21812e-07
-4.43436e-07
-7.42854e-07
6.13075e-06
5.41174e-06
4.73878e-06
4.10892e-06
3.51918e-06
2.96624e-06
2.44725e-06
1.95985e-06
1.50203e-06
1.07213e-06
6.68754e-07
2.90734e-07
-6.29953e-08
-3.93358e-07
-7.01326e-07
6.1689e-06
5.46902e-06
4.80949e-06
4.18836e-06
3.60323e-06
3.05159e-06
2.53133e-06
2.04067e-06
1.57809e-06
1.14234e-06
7.32361e-07
3.4729e-07
-1.36935e-08
-3.51309e-07
-6.66366e-07
6.19645e-06
5.51341e-06
4.86588e-06
4.25261e-06
3.67174e-06
3.12149e-06
2.60039e-06
2.10715e-06
1.64066e-06
1.20003e-06
7.84532e-07
3.93551e-07
2.64836e-08
-3.17212e-07
-6.38197e-07
6.216e-06
5.5477e-06
4.91077e-06
4.30443e-06
3.72736e-06
3.17845e-06
2.65672e-06
2.16133e-06
1.69154e-06
1.24678e-06
8.26595e-07
4.30596e-07
5.83696e-08
-2.90471e-07
-6.16452e-07
6.2296e-06
5.57416e-06
4.94649e-06
4.34618e-06
3.77244e-06
3.22471e-06
2.70245e-06
2.2052e-06
1.73256e-06
1.28424e-06
8.60012e-07
4.59698e-07
8.30465e-08
-2.70189e-07
-6.00417e-07
6.23885e-06
5.59462e-06
4.975e-06
4.37988e-06
3.80901e-06
3.26227e-06
2.73951e-06
2.2406e-06
1.76544e-06
1.31398e-06
8.86229e-07
4.82158e-07
1.01671e-07
-2.55356e-07
-5.89226e-07
6.24501e-06
5.61053e-06
4.99785e-06
4.40719e-06
3.83876e-06
3.29282e-06
2.76955e-06
2.26912e-06
1.7917e-06
1.33746e-06
9.06579e-07
4.99202e-07
1.15358e-07
-2.44969e-07
-5.8199e-07
6.24899e-06
5.62298e-06
5.01629e-06
4.42944e-06
3.86306e-06
3.31773e-06
2.79393e-06
2.2921e-06
1.81262e-06
1.35588e-06
9.22216e-07
5.1191e-07
1.2511e-07
-2.38107e-07
-5.7787e-07
6.25147e-06
5.63279e-06
5.03123e-06
4.44763e-06
3.88296e-06
3.33808e-06
2.81374e-06
2.3106e-06
1.82925e-06
1.37026e-06
9.34108e-07
5.21199e-07
1.31787e-07
-2.33967e-07
-5.76124e-07
6.25292e-06
5.64067e-06
5.04354e-06
4.46272e-06
3.89946e-06
3.3549e-06
2.83e-06
2.32563e-06
1.84257e-06
1.38153e-06
9.43127e-07
5.27872e-07
1.36113e-07
-2.31909e-07
-5.76188e-07
6.25365e-06
5.64735e-06
5.05426e-06
4.47595e-06
3.91393e-06
3.36959e-06
2.84409e-06
2.33851e-06
1.85378e-06
1.39076e-06
9.50193e-07
5.32695e-07
1.387e-07
-2.31471e-07
-5.77746e-07
6.25392e-06
5.65297e-06
5.06361e-06
4.48762e-06
3.92673e-06
3.38252e-06
2.85639e-06
2.34958e-06
1.86321e-06
1.39828e-06
9.55663e-07
5.36077e-07
1.40047e-07
-2.3206e-07
-5.80163e-07
-1.12702e-05
-8.815e-06
-7.32239e-06
-6.33262e-06
-5.54865e-06
-4.95213e-06
-4.48967e-06
-4.1224e-06
-3.8219e-06
-3.56459e-06
-3.32985e-06
-3.09935e-06
-2.85616e-06
-2.58498e-06
-2.27265e-06
-1.91237e-06
-1.50513e-06
-1.07001e-06
-6.49109e-07
-3.18063e-07
-1.86935e-07
-3.87101e-07
-9.67147e-07
-1.73742e-06
-2.49375e-06
-3.1079e-06
-3.50051e-06
-3.63042e-06
-3.46922e-06
-2.99787e-06
-2.20415e-06
-1.08742e-06
3.3872e-07
2.04487e-06
3.98653e-06
6.10642e-06
8.33715e-06
1.06031e-05
1.28188e-05
1.48838e-05
1.66638e-05
1.7988e-05
1.84771e-05
1.78033e-05
1.47307e-05
-9.55949e-06
-8.26798e-06
-7.13172e-06
-6.24712e-06
-5.50982e-06
-4.92858e-06
-4.47093e-06
-4.10497e-06
-3.80464e-06
-3.54727e-06
-3.3124e-06
-3.08169e-06
-2.83816e-06
-2.56674e-06
-2.25415e-06
-1.8939e-06
-1.48714e-06
-1.05297e-06
-6.33166e-07
-3.02216e-07
-1.68344e-07
-3.60833e-07
-9.28143e-07
-1.68448e-06
-2.42962e-06
-3.03651e-06
-3.42536e-06
-3.55475e-06
-3.39653e-06
-2.93164e-06
-2.14985e-06
-1.05223e-06
3.45429e-07
2.0112e-06
3.89753e-06
5.94308e-06
8.07457e-06
1.02072e-05
1.22407e-05
1.40489e-05
1.54483e-05
1.61608e-05
1.56517e-05
1.316e-05
7.68323e-06
-8.66604e-06
-7.84544e-06
-6.93334e-06
-6.14518e-06
-5.45981e-06
-4.89956e-06
-4.44962e-06
-4.0861e-06
-3.786e-06
-3.52826e-06
-3.29277e-06
-3.06137e-06
-2.8172e-06
-2.54504e-06
-2.23197e-06
-1.87172e-06
-1.46568e-06
-1.03298e-06
-6.14986e-07
-2.84886e-07
-1.48726e-07
-3.33237e-07
-8.86539e-07
-1.62703e-06
-2.35912e-06
-2.95732e-06
-3.34156e-06
-3.47023e-06
-3.31543e-06
-2.85907e-06
-2.09266e-06
-1.01964e-06
3.41374e-07
1.95518e-06
3.77026e-06
5.72014e-06
7.7243e-06
9.68739e-06
1.14934e-05
1.29927e-05
1.39733e-05
1.41221e-05
1.29592e-05
9.95452e-06
4.98927e-06
-8.09749e-06
-7.50107e-06
-6.76095e-06
-6.0502e-06
-5.41437e-06
-4.87628e-06
-4.43407e-06
-4.07198e-06
-3.77063e-06
-3.51097e-06
-3.27343e-06
-3.04023e-06
-2.79458e-06
-2.52119e-06
-2.20738e-06
-1.84711e-06
-1.44204e-06
-1.01122e-06
-5.95624e-07
-2.66916e-07
-1.28771e-07
-3.051e-07
-8.43377e-07
-1.56644e-06
-2.2838e-06
-2.87167e-06
-3.24981e-06
-3.37658e-06
-3.22449e-06
-2.77693e-06
-2.02758e-06
-9.82962e-07
3.3466e-07
1.88591e-06
3.61441e-06
5.44765e-06
7.29737e-06
9.05811e-06
1.06018e-05
1.17667e-05
1.23406e-05
1.20488e-05
1.05617e-05
7.62894e-06
3.4871e-06
-7.65194e-06
-7.19388e-06
-6.59059e-06
-5.9674e-06
-5.37668e-06
-4.86171e-06
-4.42676e-06
-4.06438e-06
-3.75936e-06
-3.49544e-06
-3.25371e-06
-3.01703e-06
-2.76869e-06
-2.49339e-06
-2.1786e-06
-1.81855e-06
-1.4151e-06
-9.87158e-07
-5.75144e-07
-2.48936e-07
-1.0946e-07
-2.77372e-07
-7.99249e-07
-1.5029e-06
-2.20354e-06
-2.77952e-06
-3.15051e-06
-3.27507e-06
-3.12652e-06
-2.68992e-06
-1.96175e-06
-9.52157e-07
3.12391e-07
1.78782e-06
3.41253e-06
5.10807e-06
6.77946e-06
8.31425e-06
9.57931e-06
1.0417e-05
1.0641e-05
1.00501e-05
8.46729e-06
5.84186e-06
2.43845e-06
-7.27158e-06
-6.90831e-06
-6.41347e-06
-5.87714e-06
-5.34164e-06
-4.85396e-06
-4.42674e-06
-4.06353e-06
-3.75269e-06
-3.48222e-06
-3.2338e-06
-2.99162e-06
-2.73911e-06
-2.46096e-06
-2.14488e-06
-1.78535e-06
-1.38442e-06
-9.60723e-07
-5.53955e-07
-2.31822e-07
-9.20236e-08
-2.51428e-07
-7.55406e-07
-1.43734e-06
-2.11901e-06
-2.68138e-06
-3.04424e-06
-3.16663e-06
-3.02312e-06
-2.60083e-06
-1.89951e-06
-9.33369e-07
2.66516e-07
1.65121e-06
3.15415e-06
4.69198e-06
6.16554e-06
7.46063e-06
8.44826e-06
8.98841e-06
8.93742e-06
8.17183e-06
6.62852e-06
4.3668e-06
1.63242e-06
-6.91893e-06
-6.62735e-06
-6.22594e-06
-5.76389e-06
-5.29395e-06
-4.83975e-06
-4.42598e-06
-4.06534e-06
-3.74864e-06
-3.47077e-06
-3.2133e-06
-2.96385e-06
-2.70577e-06
-2.42375e-06
-2.10606e-06
-1.74748e-06
-1.35022e-06
-9.3247e-07
-5.33015e-07
-2.16947e-07
-7.81815e-08
-2.29188e-07
-7.13746e-07
-1.37145e-06
-2.03168e-06
-2.57851e-06
-2.93219e-06
-3.0526e-06
-2.91604e-06
-2.51214e-06
-1.84437e-06
-9.31344e-07
1.91161e-07
1.46959e-06
2.83338e-06
4.19634e-06
5.45884e-06
6.51107e-06
7.2373e-06
7.52385e-06
7.27359e-06
6.42768e-06
4.99254e-06
3.0669e-06
8.51292e-07
-6.57211e-06
-6.33656e-06
-6.01341e-06
-5.62795e-06
-5.21549e-06
-4.80131e-06
-4.41364e-06
-4.05893e-06
-3.74134e-06
-3.45738e-06
-3.1896e-06
-2.93238e-06
-2.66793e-06
-2.38133e-06
-2.06202e-06
-1.70515e-06
-1.31311e-06
-9.03467e-07
-5.13887e-07
-2.06363e-07
-7.03686e-08
-2.13308e-07
-6.76921e-07
-1.30779e-06
-1.94381e-06
-2.47299e-06
-2.8164e-06
-2.93529e-06
-2.80818e-06
-2.42765e-06
-1.80126e-06
-9.5211e-07
7.95424e-08
1.23636e-06
2.44552e-06
3.62094e-06
4.66703e-06
5.48432e-06
5.97606e-06
6.05876e-06
5.67614e-06
4.81401e-06
3.5132e-06
1.87491e-06
5.18254e-08
-6.21975e-06
-6.02858e-06
-5.76859e-06
-5.45136e-06
-5.09799e-06
-4.73115e-06
-4.37271e-06
-4.03335e-06
-3.72175e-06
-3.43255e-06
-3.15878e-06
-2.89488e-06
-2.62381e-06
-2.33266e-06
-2.0125e-06
-1.65876e-06
-1.27414e-06
-8.75396e-07
-4.98865e-07
-2.02934e-07
-7.18774e-08
-2.07314e-07
-6.48442e-07
-1.24968e-06
-1.85852e-06
-2.36785e-06
-2.69992e-06
-2.81817e-06
-2.70392e-06
-2.35284e-06
-1.77678e-06
-1.0032e-06
-7.60577e-08
9.44957e-07
1.98721e-06
2.96827e-06
3.80083e-06
4.40019e-06
4.69109e-06
4.61837e-06
4.15655e-06
3.31752e-06
2.15373e-06
7.53928e-07
-7.69103e-07
-5.8547e-06
-5.69938e-06
-5.49012e-06
-5.23127e-06
-4.93463e-06
-4.61643e-06
-4.2932e-06
-3.97703e-06
-3.67577e-06
-3.38842e-06
-3.11534e-06
-2.84574e-06
-2.56945e-06
-2.2761e-06
-1.95717e-06
-1.60903e-06
-1.23493e-06
-8.50685e-07
-4.91085e-07
-2.10423e-07
-8.69238e-08
-2.15648e-07
-6.32741e-07
-1.20143e-06
-1.77994e-06
-2.26718e-06
-2.58742e-06
-2.706e-06
-2.60886e-06
-2.2947e-06
-1.77906e-06
-1.09318e-06
-2.83507e-07
5.8983e-07
1.45733e-06
2.24339e-06
2.87319e-06
3.27794e-06
3.40359e-06
3.2179e-06
2.71561e-06
1.92081e-06
8.8516e-07
-3.1927e-07
-1.61012e-06
-5.47176e-06
-5.34629e-06
-5.17832e-06
-4.96867e-06
-4.72318e-06
-4.45212e-06
-4.16748e-06
-3.87974e-06
-3.59612e-06
-3.31931e-06
-3.04907e-06
-2.77921e-06
-2.50222e-06
-2.21023e-06
-1.8961e-06
-1.55729e-06
-1.19787e-06
-8.32618e-07
-4.94549e-07
-2.33446e-07
-1.20565e-07
-2.43587e-07
-6.35112e-07
-1.16827e-06
-1.71328e-06
-2.17593e-06
-2.48446e-06
-2.6058e-06
-2.53041e-06
-2.2614e-06
-1.81704e-06
-1.23074e-06
-5.49665e-07
1.67448e-07
8.57697e-07
1.45529e-06
1.89844e-06
2.13509e-06
2.12921e-06
1.86486e-06
1.34819e-06
6.06661e-07
-3.14557e-07
-1.35937e-06
-2.46783e-06
-5.06769e-06
-4.96784e-06
-4.83414e-06
-4.66584e-06
-4.46525e-06
-4.23823e-06
-3.99282e-06
-3.73697e-06
-3.47698e-06
-3.21644e-06
-2.95571e-06
-2.69199e-06
-2.42009e-06
-2.1346e-06
-1.8303e-06
-1.50587e-06
-1.16634e-06
-8.25426e-07
-5.14075e-07
-2.77289e-07
-1.78428e-07
-2.96984e-07
-6.61499e-07
-1.15628e-06
-1.66476e-06
-2.10085e-06
-2.39798e-06
-2.52531e-06
-2.47719e-06
-2.26231e-06
-1.90003e-06
-1.42385e-06
-8.78802e-07
-3.22469e-07
1.93993e-07
6.14984e-07
8.91832e-07
9.87395e-07
8.79473e-07
5.62542e-07
4.78212e-08
-6.38788e-07
-1.46039e-06
-2.37444e-06
-3.33729e-06
-4.64189e-06
-4.5646e-06
-4.46001e-06
-4.32682e-06
-4.16537e-06
-3.97861e-06
-3.77142e-06
-3.54933e-06
-3.31719e-06
-3.07844e-06
-2.83415e-06
-2.58349e-06
-2.32346e-06
-2.05087e-06
-1.76264e-06
-1.45867e-06
-1.14507e-06
-8.34425e-07
-5.55235e-07
-3.47679e-07
-2.66321e-07
-3.81868e-07
-7.18248e-07
-1.17202e-06
-1.6414e-06
-2.0503e-06
-2.33714e-06
-2.47324e-06
-2.45977e-06
-2.30747e-06
-2.03607e-06
-1.67833e-06
-1.27707e-06
-8.74881e-07
-5.22659e-07
-2.62396e-07
-1.29678e-07
-1.49719e-07
-3.35167e-07
-6.85752e-07
-1.18917e-06
-1.82337e-06
-2.55952e-06
-3.36598e-06
-4.21097e-06
-4.19655e-06
-4.13978e-06
-4.06072e-06
-3.95797e-06
-3.83094e-06
-3.68078e-06
-3.51015e-06
-3.32252e-06
-3.12128e-06
-2.90927e-06
-2.68783e-06
-2.45734e-06
-2.21649e-06
-1.96397e-06
-1.69881e-06
-1.42201e-06
-1.14068e-06
-8.66323e-07
-6.24464e-07
-4.50669e-07
-3.90012e-07
-5.04123e-07
-8.11727e-07
-1.22216e-06
-1.65093e-06
-2.03209e-06
-2.31012e-06
-2.46049e-06
-2.48755e-06
-2.40418e-06
-2.22901e-06
-1.99104e-06
-1.72721e-06
-1.47593e-06
-1.27512e-06
-1.15678e-06
-1.14587e-06
-1.2587e-06
-1.50199e-06
-1.87294e-06
-2.3604e-06
-2.9468e-06
-3.6104e-06
-4.32802e-06
-5.07662e-06
-3.7363e-06
-3.69919e-06
-3.64361e-06
-3.56832e-06
-3.4724e-06
-3.356e-06
-3.22034e-06
-3.0674e-06
-2.89932e-06
-2.71824e-06
-2.52548e-06
-2.32198e-06
-2.10772e-06
-1.88271e-06
-1.64785e-06
-1.40507e-06
-1.16209e-06
-9.29553e-07
-7.29352e-07
-5.92713e-07
-5.55378e-07
-6.692e-07
-9.47734e-07
-1.31403e-06
-1.70088e-06
-2.055e-06
-2.32729e-06
-2.4963e-06
-2.56769e-06
-2.55578e-06
-2.47762e-06
-2.35682e-06
-2.2235e-06
-2.109e-06
-2.04154e-06
-2.04386e-06
-2.13268e-06
-2.3182e-06
-2.60374e-06
-2.98597e-06
-3.45579e-06
-3.99992e-06
-4.60247e-06
-5.24674e-06
-5.91613e-06
-3.26878e-06
-3.25166e-06
-3.21903e-06
-3.17002e-06
-3.10365e-06
-3.0195e-06
-2.91792e-06
-2.79995e-06
-2.66693e-06
-2.52036e-06
-2.3614e-06
-2.19113e-06
-2.0104e-06
-1.82008e-06
-1.62238e-06
-1.42e-06
-1.2206e-06
-1.03429e-06
-8.78695e-07
-7.8077e-07
-7.68236e-07
-8.81784e-07
-1.13183e-06
-1.45531e-06
-1.80032e-06
-2.12711e-06
-2.39623e-06
-2.58715e-06
-2.70396e-06
-2.76136e-06
-2.77501e-06
-2.76279e-06
-2.7469e-06
-2.75082e-06
-2.79513e-06
-2.8956e-06
-3.06312e-06
-3.30383e-06
-3.61923e-06
-4.00639e-06
-4.45851e-06
-4.96599e-06
-5.51757e-06
-6.10142e-06
-6.70571e-06
-2.80706e-06
-2.81131e-06
-2.80229e-06
-2.77986e-06
-2.74312e-06
-2.69114e-06
-2.62368e-06
-2.54138e-06
-2.4452e-06
-2.33622e-06
-2.21535e-06
-2.08361e-06
-1.94229e-06
-1.79279e-06
-1.63803e-06
-1.48131e-06
-1.32943e-06
-1.19185e-06
-1.08196e-06
-1.02209e-06
-1.03312e-06
-1.14637e-06
-1.36873e-06
-1.65267e-06
-1.95694e-06
-2.25582e-06
-2.5216e-06
-2.73461e-06
-2.8947e-06
-3.01439e-06
-3.10802e-06
-3.18902e-06
-3.27219e-06
-3.37325e-06
-3.50654e-06
-3.68311e-06
-3.91001e-06
-4.19082e-06
-4.52609e-06
-4.91362e-06
-5.34867e-06
-5.82464e-06
-6.33374e-06
-6.86781e-06
-7.41858e-06
-2.36979e-06
-2.39809e-06
-2.41508e-06
-2.4211e-06
-2.41525e-06
-2.39621e-06
-2.36361e-06
-2.31804e-06
-2.26037e-06
-2.19135e-06
-2.11172e-06
-2.0223e-06
-1.9245e-06
-1.81994e-06
-1.71159e-06
-1.60322e-06
-1.50065e-06
-1.41233e-06
-1.34762e-06
-1.32221e-06
-1.35783e-06
-1.46513e-06
-1.66103e-06
-1.90814e-06
-2.17471e-06
-2.44561e-06
-2.7042e-06
-2.93426e-06
-3.13082e-06
-3.30152e-06
-3.45835e-06
-3.61185e-06
-3.77145e-06
-3.94639e-06
-4.14591e-06
-4.37771e-06
-4.64659e-06
-4.95467e-06
-5.30191e-06
-5.68664e-06
-6.10579e-06
-6.55504e-06
-7.02922e-06
-7.52276e-06
-8.02995e-06
-1.9735e-06
-2.02841e-06
-2.07647e-06
-2.11538e-06
-2.14317e-06
-2.15902e-06
-2.16315e-06
-2.15632e-06
-2.1392e-06
-2.11223e-06
-2.07598e-06
-2.03121e-06
-1.97919e-06
-1.92154e-06
-1.86064e-06
-1.79993e-06
-1.74378e-06
-1.7005e-06
-1.67764e-06
-1.6855e-06
-1.73157e-06
-1.83555e-06
-2.00495e-06
-2.21654e-06
-2.44925e-06
-2.69322e-06
-2.93868e-06
-3.17478e-06
-3.39519e-06
-3.60237e-06
-3.8038e-06
-4.00723e-06
-4.21882e-06
-4.44381e-06
-4.68779e-06
-4.95548e-06
-5.25017e-06
-5.57354e-06
-5.92536e-06
-6.30429e-06
-6.70834e-06
-7.13477e-06
-7.58028e-06
-8.04119e-06
-8.51368e-06
-1.6454e-06
-1.7366e-06
-1.82015e-06
-1.8945e-06
-1.95837e-06
-2.01153e-06
-2.05452e-06
-2.08797e-06
-2.1123e-06
-2.12777e-06
-2.13481e-06
-2.13414e-06
-2.12685e-06
-2.11459e-06
-2.09917e-06
-2.08434e-06
-2.07162e-06
-2.06462e-06
-2.06869e-06
-2.09285e-06
-2.1494e-06
-2.24719e-06
-2.38963e-06
-2.56527e-06
-2.76376e-06
-2.98035e-06
-3.20819e-06
-3.43713e-06
-3.66269e-06
-3.88799e-06
-4.11617e-06
-4.34836e-06
-4.5897e-06
-4.84382e-06
-5.11345e-06
-5.40119e-06
-5.70909e-06
-6.03801e-06
-6.38786e-06
-6.75799e-06
-7.1472e-06
-7.55374e-06
-7.97547e-06
-8.41002e-06
-8.85483e-06
-1.4227e-06
-1.55151e-06
-1.67018e-06
-1.77884e-06
-1.8776e-06
-1.96667e-06
-2.04628e-06
-2.11663e-06
-2.17795e-06
-2.23055e-06
-2.27474e-06
-2.31096e-06
-2.33983e-06
-2.36223e-06
-2.37728e-06
-2.40035e-06
-2.41768e-06
-2.43565e-06
-2.46127e-06
-2.50063e-06
-2.56034e-06
-2.64798e-06
-2.76795e-06
-2.91426e-06
-3.08019e-06
-3.26374e-06
-3.46564e-06
-3.68042e-06
-3.89624e-06
-4.11577e-06
-4.34857e-06
-4.5918e-06
-4.8433e-06
-5.10732e-06
-5.386e-06
-5.68037e-06
-5.99125e-06
-6.31915e-06
-6.66412e-06
-7.02569e-06
-7.40299e-06
-7.79487e-06
-8.19999e-06
-8.61686e-06
-9.04364e-06
-1.29778e-06
-1.45857e-06
-1.60834e-06
-1.74763e-06
-1.87681e-06
-1.99603e-06
-2.10537e-06
-2.20497e-06
-2.29501e-06
-2.37578e-06
-2.4478e-06
-2.51174e-06
-2.5685e-06
-2.61895e-06
-2.66678e-06
-2.69795e-06
-2.73128e-06
-2.76591e-06
-2.80334e-06
-2.84739e-06
-2.90376e-06
-2.97886e-06
-3.0778e-06
-3.20032e-06
-3.34352e-06
-3.50322e-06
-3.67485e-06
-3.85949e-06
-4.05851e-06
-4.27229e-06
-4.4982e-06
-4.73484e-06
-4.98357e-06
-5.24613e-06
-5.52309e-06
-5.81495e-06
-6.12217e-06
-6.44501e-06
-6.7834e-06
-7.13698e-06
-7.50514e-06
-7.887e-06
-8.28149e-06
-8.68746e-06
-9.10384e-06
-1.22627e-06
-1.414e-06
-1.58999e-06
-1.75454e-06
-1.9079e-06
-2.05017e-06
-2.18143e-06
-2.30194e-06
-2.41184e-06
-2.51151e-06
-2.60149e-06
-2.68196e-06
-2.75336e-06
-2.81641e-06
-2.87196e-06
-2.91981e-06
-2.96383e-06
-3.00541e-06
-3.04667e-06
-3.09116e-06
-3.14387e-06
-3.2111e-06
-3.29767e-06
-3.40234e-06
-3.52366e-06
-3.6621e-06
-3.81762e-06
-3.98938e-06
-4.17513e-06
-4.37406e-06
-4.58748e-06
-4.81532e-06
-5.05795e-06
-5.31559e-06
-5.58832e-06
-5.8763e-06
-6.17971e-06
-6.4986e-06
-6.83267e-06
-7.18159e-06
-7.54487e-06
-7.92188e-06
-8.31185e-06
-8.71386e-06
-9.12687e-06
-1.17805e-06
-1.38812e-06
-1.58521e-06
-1.76948e-06
-1.94117e-06
-2.10047e-06
-2.24759e-06
-2.3827e-06
-2.50614e-06
-2.6181e-06
-2.71899e-06
-2.80931e-06
-2.88968e-06
-2.9609e-06
-3.02363e-06
-3.07863e-06
-3.12761e-06
-3.1725e-06
-3.21577e-06
-3.26054e-06
-3.31127e-06
-3.37359e-06
-3.45103e-06
-3.54387e-06
-3.65278e-06
-3.77802e-06
-3.91927e-06
-4.0766e-06
-4.24992e-06
-4.43902e-06
-4.64379e-06
-4.86408e-06
-5.10002e-06
-5.35179e-06
-5.61945e-06
-5.90303e-06
-6.20253e-06
-6.51786e-06
-6.84882e-06
-7.19503e-06
-7.55604e-06
-7.93126e-06
-8.31999e-06
-8.72152e-06
-9.13506e-06
-1.13812e-06
-1.3658e-06
-1.57918e-06
-1.77845e-06
-1.9639e-06
-2.13577e-06
-2.29423e-06
-2.43955e-06
-2.57209e-06
-2.69225e-06
-2.80036e-06
-2.89713e-06
-2.98321e-06
-3.05923e-06
-3.12598e-06
-3.18456e-06
-3.23654e-06
-3.28381e-06
-3.32876e-06
-3.37431e-06
-3.42446e-06
-3.48414e-06
-3.5565e-06
-3.64218e-06
-3.74222e-06
-3.85776e-06
-3.98951e-06
-4.13779e-06
-4.30245e-06
-4.4833e-06
-4.68038e-06
-4.89383e-06
-5.12387e-06
-5.37062e-06
-5.63409e-06
-5.91425e-06
-6.21104e-06
-6.5243e-06
-6.8538e-06
-7.19918e-06
-7.56003e-06
-7.93583e-06
-8.32597e-06
-8.72974e-06
-9.14637e-06
-1.09892e-06
-1.34048e-06
-1.56657e-06
-1.77741e-06
-1.97331e-06
-2.15452e-06
-2.32127e-06
-2.47396e-06
-2.61282e-06
-2.73854e-06
-2.85155e-06
-2.95246e-06
-3.042e-06
-3.12099e-06
-3.19041e-06
-3.2515e-06
-3.3058e-06
-3.35514e-06
-3.40186e-06
-3.44874e-06
-3.49941e-06
-3.55823e-06
-3.6279e-06
-3.70945e-06
-3.80449e-06
-3.9145e-06
-4.04017e-06
-4.18187e-06
-4.33987e-06
-4.51444e-06
-4.70584e-06
-4.9143e-06
-5.14e-06
-5.38304e-06
-5.64345e-06
-5.92122e-06
-6.21629e-06
-6.52851e-06
-6.85764e-06
-7.20339e-06
-7.56537e-06
-7.94311e-06
-8.33603e-06
-8.74338e-06
-9.16446e-06
-1.05973e-06
-1.31239e-06
-1.54854e-06
-1.7684e-06
-1.9723e-06
-2.16051e-06
-2.33341e-06
-2.49132e-06
-2.63491e-06
-2.76449e-06
-2.88076e-06
-2.98446e-06
-3.07641e-06
-3.15757e-06
-3.22905e-06
-3.29213e-06
-3.34841e-06
-3.39972e-06
-3.44835e-06
-3.49692e-06
-3.54883e-06
-3.60795e-06
-3.67672e-06
-3.75647e-06
-3.84892e-06
-3.95547e-06
-4.07698e-06
-4.21414e-06
-4.36756e-06
-4.53773e-06
-4.72501e-06
-4.92972e-06
-5.15208e-06
-5.3923e-06
-5.65045e-06
-5.92658e-06
-6.22066e-06
-6.53258e-06
-6.86214e-06
-7.20906e-06
-7.57295e-06
-7.95339e-06
-8.3498e-06
-8.76149e-06
-9.18782e-06
-1.02238e-06
-1.28395e-06
-1.5281e-06
-1.75509e-06
-1.96522e-06
-2.15884e-06
-2.33641e-06
-2.49832e-06
-2.64511e-06
-2.77741e-06
-2.89601e-06
-3.00171e-06
-3.09544e-06
-3.17824e-06
-3.25132e-06
-3.31606e-06
-3.37409e-06
-3.42723e-06
-3.47776e-06
-3.52818e-06
-3.58166e-06
-3.64171e-06
-3.71052e-06
-3.78961e-06
-3.88064e-06
-3.98501e-06
-4.10375e-06
-4.23781e-06
-4.38797e-06
-4.55486e-06
-4.73899e-06
-4.9408e-06
-5.16063e-06
-5.39874e-06
-5.6553e-06
-5.93039e-06
-6.22404e-06
-6.53617e-06
-6.86663e-06
-7.21516e-06
-7.58142e-06
-7.96495e-06
-8.36521e-06
-8.78158e-06
-9.21336e-06
-9.88877e-07
-1.25768e-06
-1.50826e-06
-1.7409e-06
-1.95593e-06
-2.15376e-06
-2.33481e-06
-2.49971e-06
-2.64879e-06
-2.78307e-06
-2.90333e-06
-3.01044e-06
-3.10544e-06
-3.18945e-06
-3.26378e-06
-3.32986e-06
-3.38936e-06
-3.44412e-06
-3.49637e-06
-3.5485e-06
-3.60355e-06
-3.66464e-06
-3.7338e-06
-3.81268e-06
-3.90288e-06
-4.00578e-06
-4.12256e-06
-4.25433e-06
-4.40201e-06
-4.56638e-06
-4.74807e-06
-4.94763e-06
-5.16549e-06
-5.402e-06
-5.6574e-06
-5.93183e-06
-6.22538e-06
-6.53802e-06
-6.86962e-06
-7.21997e-06
-7.58875e-06
-7.97552e-06
-8.37977e-06
-8.80089e-06
-9.23805e-06
-9.60544e-07
-1.23527e-06
-1.49105e-06
-1.7282e-06
-1.94709e-06
-2.14811e-06
-2.33181e-06
-2.49904e-06
-2.64959e-06
-2.78526e-06
-2.90664e-06
-3.01469e-06
-3.11053e-06
-3.19537e-06
-3.27058e-06
-3.33766e-06
-3.39831e-06
-3.45437e-06
-3.50804e-06
-3.56159e-06
-3.61794e-06
-3.6799e-06
-3.74937e-06
-3.82815e-06
-3.91773e-06
-4.01948e-06
-4.13472e-06
-4.26468e-06
-4.41038e-06
-4.57271e-06
-4.75241e-06
-4.95012e-06
-5.16638e-06
-5.4016e-06
-5.6561e-06
-5.93011e-06
-6.22374e-06
-6.53703e-06
-6.8699e-06
-7.22214e-06
-7.59347e-06
-7.9835e-06
-8.39171e-06
-8.81749e-06
-9.26016e-06
-9.37882e-07
-1.21748e-06
-1.47749e-06
-1.71825e-06
-1.94012e-06
-2.14357e-06
-2.32912e-06
-2.4972e-06
-2.64963e-06
-2.78625e-06
-2.9083e-06
-3.01687e-06
-3.11318e-06
-3.19849e-06
-3.27425e-06
-3.34199e-06
-3.40344e-06
-3.46044e-06
-3.51514e-06
-3.56976e-06
-3.62705e-06
-3.68958e-06
-3.75918e-06
-3.83776e-06
-3.92672e-06
-4.02744e-06
-4.14135e-06
-4.26975e-06
-4.41376e-06
-4.57433e-06
-4.75232e-06
-4.94845e-06
-5.16333e-06
-5.39746e-06
-5.65124e-06
-5.92495e-06
-6.21877e-06
-6.53278e-06
-6.86692e-06
-7.22106e-06
-7.59491e-06
-7.98811e-06
-8.40014e-06
-8.83039e-06
-9.27815e-06
-9.20746e-07
-1.20438e-06
-1.46784e-06
-1.71147e-06
-1.93568e-06
-2.14096e-06
-2.32792e-06
-2.49726e-06
-2.6502e-06
-2.78729e-06
-2.90962e-06
-3.01838e-06
-3.11482e-06
-3.2003e-06
-3.27628e-06
-3.34436e-06
-3.40627e-06
-3.46386e-06
-3.51924e-06
-3.57453e-06
-3.63241e-06
-3.69517e-06
-3.76467e-06
-3.84288e-06
-3.93113e-06
-4.03084e-06
-4.14352e-06
-4.27049e-06
-4.41295e-06
-4.57194e-06
-4.74839e-06
-4.9431e-06
-5.15676e-06
-5.38993e-06
-5.64309e-06
-5.91658e-06
-6.21063e-06
-6.52536e-06
-6.86077e-06
-7.21674e-06
-7.59302e-06
-7.98925e-06
-8.40494e-06
-8.83947e-06
-9.29209e-06
-9.08599e-07
-1.1956e-06
-1.46188e-06
-1.70781e-06
-1.93383e-06
-2.14048e-06
-2.32844e-06
-2.4985e-06
-2.65173e-06
-2.78896e-06
-2.91129e-06
-3.01995e-06
-3.11626e-06
-3.20163e-06
-3.27757e-06
-3.3457e-06
-3.40778e-06
-3.46565e-06
-3.52137e-06
-3.57702e-06
-3.63513e-06
-3.69784e-06
-3.76701e-06
-3.84467e-06
-3.93211e-06
-4.03078e-06
-4.14224e-06
-4.26785e-06
-4.40886e-06
-4.56638e-06
-4.7414e-06
-4.9348e-06
-5.14734e-06
-5.37964e-06
-5.63224e-06
-5.90554e-06
-6.19982e-06
-6.51525e-06
-6.85187e-06
-7.20958e-06
-7.58817e-06
-7.98728e-06
-8.40644e-06
-8.845e-06
-9.30222e-06
-9.00714e-07
-1.19054e-06
-1.45915e-06
-1.70693e-06
-1.93435e-06
-2.142e-06
-2.33062e-06
-2.50107e-06
-2.65437e-06
-2.79147e-06
-2.91359e-06
-3.02192e-06
-3.11791e-06
-3.20296e-06
-3.27864e-06
-3.3466e-06
-3.4086e-06
-3.46649e-06
-3.52229e-06
-3.578e-06
-3.63607e-06
-3.69848e-06
-3.76712e-06
-3.84408e-06
-3.93061e-06
-4.02821e-06
-4.13845e-06
-4.26274e-06
-4.40237e-06
-4.55849e-06
-4.73218e-06
-4.92435e-06
-5.13583e-06
-5.36731e-06
-5.61939e-06
-5.89251e-06
-6.18701e-06
-6.50309e-06
-6.84084e-06
-7.20018e-06
-7.58093e-06
-7.98273e-06
-8.40512e-06
-8.84746e-06
-9.309e-06
-8.96315e-07
-1.18853e-06
-1.45908e-06
-1.70835e-06
-1.93685e-06
-2.14523e-06
-2.33426e-06
-2.50484e-06
-2.65803e-06
-2.79486e-06
-2.91659e-06
-3.02443e-06
-3.11993e-06
-3.20452e-06
-3.27977e-06
-3.34738e-06
-3.40912e-06
-3.46682e-06
-3.52248e-06
-3.57804e-06
-3.63586e-06
-3.69779e-06
-3.76575e-06
-3.84188e-06
-3.92744e-06
-4.02394e-06
-4.13298e-06
-4.25597e-06
-4.39426e-06
-4.54906e-06
-4.72147e-06
-4.91247e-06
-5.12295e-06
-5.35366e-06
-5.60524e-06
-5.87817e-06
-6.17286e-06
-6.48954e-06
-6.82832e-06
-7.18917e-06
-7.5719e-06
-7.9762e-06
-8.40159e-06
-8.84743e-06
-9.31297e-06
-8.94646e-07
-1.1889e-06
-1.46106e-06
-1.71155e-06
-1.9409e-06
-2.14979e-06
-2.33904e-06
-2.5096e-06
-2.66254e-06
-2.79898e-06
-2.92019e-06
-3.02747e-06
-3.12237e-06
-3.20638e-06
-3.28109e-06
-3.34822e-06
-3.40957e-06
-3.46694e-06
-3.5223e-06
-3.57756e-06
-3.63497e-06
-3.69629e-06
-3.76346e-06
-3.83869e-06
-3.92323e-06
-4.01863e-06
-4.12648e-06
-4.24822e-06
-4.38523e-06
-4.53875e-06
-4.70995e-06
-4.89985e-06
-5.10938e-06
-5.33935e-06
-5.59043e-06
-5.86318e-06
-6.15801e-06
-6.47522e-06
-6.81493e-06
-7.17714e-06
-7.56169e-06
-7.96827e-06
-8.39641e-06
-8.84547e-06
-9.31468e-06
-8.95025e-07
-1.19103e-06
-1.46455e-06
-1.71602e-06
-1.94603e-06
-2.15527e-06
-2.34461e-06
-2.51503e-06
-2.66764e-06
-2.8036e-06
-2.92422e-06
-3.03093e-06
-3.12514e-06
-3.20851e-06
-3.28262e-06
-3.3492e-06
-3.41006e-06
-3.46699e-06
-3.52196e-06
-3.5768e-06
-3.63371e-06
-3.69434e-06
-3.76065e-06
-3.83495e-06
-3.91848e-06
-4.01279e-06
-4.11948e-06
-4.24003e-06
-4.37581e-06
-4.52814e-06
-4.69819e-06
-4.88705e-06
-5.09568e-06
-5.32495e-06
-5.57555e-06
-5.8481e-06
-6.14305e-06
-6.46071e-06
-6.80124e-06
-7.16468e-06
-7.55087e-06
-7.95951e-06
-8.39014e-06
-8.84212e-06
-9.31467e-06
-8.96956e-07
-1.19447e-06
-1.46915e-06
-1.72144e-06
-1.95195e-06
-2.16143e-06
-2.35075e-06
-2.52095e-06
-2.67317e-06
-2.8086e-06
-2.92858e-06
-3.03466e-06
-3.12819e-06
-3.21087e-06
-3.28434e-06
-3.35033e-06
-3.41064e-06
-3.46707e-06
-3.52155e-06
-3.57591e-06
-3.63225e-06
-3.69214e-06
-3.75756e-06
-3.8309e-06
-3.91344e-06
-4.00669e-06
-4.11226e-06