/*--------------------------------*- C++ -*----------------------------------*\
| =========                 |                                                 |
| \\      /  F ield         | OpenFOAM: The Open Source CFD Toolbox           |
|  \\    /   O peration     | Version:  2312                                  |
|   \\  /    A nd           | Website:  www.openfoam.com                      |
|    \\/     M anipulation  |                                                 |
\*---------------------------------------------------------------------------*/
FoamFile
{
    version     2.0;
    format      ascii;
    arch        "LSB;label=32;scalar=64";
    class       volVectorField;
    location    "62";
    object      U;
}
// * * * * * * * * * * * * * * * * * * * * * * * * * * * * * * * * * * * * * //

dimensions      [0 1 -1 0 0 0 0];

internalField   nonuniform List<vector> 
4800
(
(0.000480072 1.95317e-07 -2.02098e-26)
(0.000476143 1.98456e-07 -1.44529e-25)
(0.000474716 1.97044e-07 1.84629e-25)
(0.000474781 2.041e-07 8.76376e-26)
(0.000475909 2.10101e-07 1.32947e-24)
(0.000477762 2.03905e-07 -3.19634e-24)
(0.000480245 1.59055e-07 3.03866e-24)
(0.0004834 6.59224e-08 -4.48967e-24)
(0.00048734 -9.4688e-08 1.4203e-24)
(0.000492268 -3.64121e-07 5.02395e-24)
(0.000498646 -9.0037e-07 -1.54349e-24)
(0.000507815 -2.37329e-06 -1.20751e-25)
(0.000527395 -7.81894e-06 -1.93794e-24)
(0.000576062 -2.99056e-05 9.22481e-25)
(0.000655528 -9.66202e-05 -7.37845e-25)
(0.00148848 9.75687e-07 -6.40748e-26)
(0.0014761 5.10162e-07 7.99203e-26)
(0.00147103 1.48017e-07 -7.60307e-25)
(0.00147036 -1.4782e-07 5.59352e-25)
(0.00147274 -4.44485e-07 1.8817e-24)
(0.00147725 -7.48643e-07 -3.05705e-24)
(0.00148365 -1.16397e-06 -9.21856e-25)
(0.00149193 -1.75637e-06 -2.55501e-25)
(0.00150238 -2.6319e-06 7.49521e-24)
(0.00151559 -4.02398e-06 -5.585e-24)
(0.00153286 -6.62046e-06 6.07661e-25)
(0.00155703 -1.27289e-05 9.49203e-25)
(0.00159745 -3.03882e-05 -1.42601e-24)
(0.00166495 -8.44849e-05 -4.52248e-25)
(0.00173655 -0.000206464 1.8929e-24)
(0.00260652 3.15712e-06 -4.59134e-26)
(0.0025848 1.71104e-06 4.68448e-26)
(0.00257513 6.23007e-07 4.96596e-25)
(0.00257277 -3.07111e-07 -1.18621e-24)
(0.00257551 -1.24304e-06 1.1806e-24)
(0.00258164 -2.2333e-06 1.16945e-24)
(0.002591 -3.50267e-06 -3.03365e-24)
(0.00260333 -5.22794e-06 -1.94155e-24)
(0.00261896 -7.71722e-06 4.62098e-24)
(0.00263862 -1.15986e-05 1.79358e-24)
(0.00266376 -1.84116e-05 -6.22525e-24)
(0.00269668 -3.22468e-05 -9.90037e-25)
(0.00274164 -6.29745e-05 2.68757e-24)
(0.00279722 -0.000131031 4.33414e-24)
(0.00283708 -0.000244624 -2.249e-24)
(0.00383958 7.09367e-06 1.69777e-26)
(0.00380794 4.0259e-06 -1.1903e-25)
(0.00379286 1.73125e-06 5.3945e-25)
(0.00378781 -2.50769e-07 5.91957e-25)
(0.00378993 -2.14226e-06 -5.6108e-25)
(0.00379647 -4.20351e-06 -3.49207e-24)
(0.00380756 -6.82616e-06 -2.49946e-24)
(0.00382247 -1.02746e-05 9.21914e-24)
(0.0038414 -1.51389e-05 3.94222e-24)
(0.00386484 -2.24558e-05 -5.58185e-24)
(0.00389365 -3.43668e-05 -2.28165e-24)
(0.00392838 -5.54918e-05 -1.77405e-24)
(0.00396827 -9.40233e-05 4.54607e-26)
(0.00400589 -0.000160517 1.32834e-24)
(0.00402221 -0.00025018 6.52157e-27)
(0.00519008 1.3136e-05 -3.1136e-26)
(0.00514872 7.72766e-06 -1.91923e-25)
(0.00512781 3.69852e-06 -1.28489e-25)
(0.00511928 2.70841e-07 3.31455e-25)
(0.00511989 -3.09556e-06 -9.79657e-25)
(0.00512571 -6.49763e-06 2.45314e-24)
(0.00513709 -1.09257e-05 -4.2668e-25)
(0.00515292 -1.65735e-05 1.61583e-24)
(0.00517296 -2.42712e-05 -8.97292e-24)
(0.00519723 -3.53171e-05 1.72246e-23)
(0.00522562 -5.1902e-05 -1.67965e-23)
(0.00525695 -7.77745e-05 8.9577e-24)
(0.00528788 -0.000117812 -8.38464e-24)
(0.00531057 -0.000175274 7.94413e-24)
(0.00531431 -0.000242647 -3.17438e-24)
(0.00665568 2.15966e-05 4.10297e-26)
(0.00660623 1.31113e-05 1.48066e-25)
(0.00658 6.81596e-06 -7.89948e-25)
(0.00656796 1.46383e-06 -5.25065e-25)
(0.00656611 -3.66612e-06 1.36182e-24)
(0.00657065 -8.83503e-06 5.05656e-25)
(0.00658105 -1.53798e-05 -4.05916e-24)
(0.00659612 -2.35155e-05 9.81141e-24)
(0.00661517 -3.41649e-05 -1.29178e-23)
(0.00663761 -4.86437e-05 3.07761e-24)
(0.00666242 -6.87082e-05 9.63897e-24)
(0.00668748 -9.65994e-05 -1.35068e-23)
(0.00670905 -0.000134145 6.78485e-24)
(0.00672142 -0.000180817 6.99581e-24)
(0.00671976 -0.000230404 -5.3319e-24)
(0.00822722 3.24866e-05 3.37092e-26)
(0.00817354 2.02774e-05 -2.00678e-25)
(0.00814402 1.12406e-05 7.29753e-25)
(0.00812948 3.60713e-06 -1.02489e-24)
(0.00812525 -3.51442e-06 -3.59903e-24)
(0.00812827 -1.09436e-05 6.14846e-24)
(0.00813698 -1.97031e-05 -3.81981e-24)
(0.00815006 -3.03404e-05 1.3245e-23)
(0.0081665 -4.37162e-05 -9.00021e-24)
(0.00818523 -6.08926e-05 -4.28187e-24)
(0.00820468 -8.29459e-05 -8.56844e-24)
(0.00822259 -0.000110704 7.87383e-24)
(0.008236 -0.000144051 2.23123e-24)
(0.00824157 -0.00018113 1.91514e-24)
(0.00823785 -0.000217743 -1.68698e-24)
(0.00988686 4.51375e-05 -4.79128e-26)
(0.00983572 2.88292e-05 6.59718e-25)
(0.00980705 1.67514e-05 -1.55425e-24)
(0.00979256 6.63783e-06 -1.32879e-24)
(0.00978761 -2.77823e-06 4.49545e-25)
(0.00978957 -1.24243e-05 9.54994e-25)
(0.00979666 -2.34162e-05 3.61777e-24)
(0.0098074 -3.63595e-05 -1.00464e-23)
(0.00982058 -5.19428e-05 -5.53576e-24)
(0.00983484 -7.08394e-05 1.49615e-23)
(0.00984859 -9.34508e-05 -4.72669e-24)
(0.0098599 -0.000119647 1.61772e-23)
(0.00986693 -0.000148466 -8.5428e-24)
(0.009868 -0.000178027 -2.72821e-24)
(0.00986332 -0.00020576 1.61617e-24)
(0.0116083 5.77537e-05 -6.15983e-27)
(0.0115692 3.74897e-05 3.61098e-25)
(0.0115478 2.24186e-05 -5.16833e-25)
(0.0115377 9.85741e-06 1.2835e-24)
(0.0115351 -1.77767e-06 -7.78897e-24)
(0.011538 -1.3557e-05 8.26769e-24)
(0.0115446 -2.65292e-05 -1.34182e-23)
(0.0115538 -4.13037e-05 8.18907e-24)
(0.0115641 -5.83463e-05 6.22045e-24)
(0.0115745 -7.79264e-05 1.37595e-23)
(0.0115834 -9.99407e-05 -1.80175e-23)
(0.0115897 -0.000123796 -3.36828e-24)
(0.0115923 -0.000148388 1.5518e-24)
(0.0115906 -0.000172296 1.1102e-23)
(0.0115854 -0.000194037 -4.5149e-24)
(0.0133619 6.71327e-05 3.18342e-26)
(0.0133451 4.37857e-05 -1.4634e-25)
(0.0133385 2.62715e-05 6.81757e-25)
(0.0133383 1.16597e-05 -2.44122e-24)
(0.0133422 -1.82484e-06 3.75405e-24)
(0.013349 -1.53163e-05 -4.94945e-24)
(0.0133576 -2.97542e-05 8.41327e-24)
(0.013367 -4.56628e-05 1.56667e-24)
(0.0133762 -6.32852e-05 -1.18486e-23)
(0.0133843 -8.25802e-05 1.70744e-23)
(0.0133903 -0.00010317 -1.88991e-23)
(0.0133936 -0.000124357 -5.60348e-24)
(0.013394 -0.000145223 9.88593e-24)
(0.0133911 -0.000164839 2.93225e-24)
(0.0133861 -0.000182397 -1.28044e-24)
(0.0151265 6.91745e-05 1.10063e-25)
(0.0151386 4.42546e-05 -1.10489e-24)
(0.0151522 2.53352e-05 -1.92574e-24)
(0.0151665 9.46343e-06 4.49345e-24)
(0.0151809 -5.18554e-06 2.10936e-24)
(0.0151949 -1.96566e-05 -1.32748e-23)
(0.0152081 -3.47795e-05 4.01815e-24)
(0.0152201 -5.09498e-05 2.95023e-24)
(0.0152304 -6.82265e-05 -1.32756e-23)
(0.0152384 -8.6393e-05 1.37588e-23)
(0.015244 -0.000104993 -1.11658e-23)
(0.0152467 -0.000123423 2.86671e-23)
(0.0152469 -0.000141025 -1.38012e-23)
(0.0152444 -0.000157252 8.12439e-24)
(0.0152405 -0.000171689 -2.21463e-24)
(0.0169044 6.08521e-05 -2.07469e-26)
(0.0169428 3.5838e-05 7.03111e-25)
(0.0169764 1.66594e-05 -1.47686e-24)
(0.0170059 4.3133e-07 -8.1771e-25)
(0.0170317 -1.44395e-05 9.03064e-24)
(0.0170541 -2.89953e-05 -1.20348e-24)
(0.0170735 -4.38983e-05 -1.65219e-23)
(0.0170897 -5.94106e-05 1.95001e-23)
(0.0171028 -7.54785e-05 -4.3604e-24)
(0.0171128 -9.18339e-05 -1.53996e-23)
(0.0171198 -0.000108068 1.64943e-23)
(0.0171238 -0.000123734 8.91217e-24)
(0.0171255 -0.000138411 -7.52607e-24)
(0.0171248 -0.000151798 -1.29923e-23)
(0.017123 -0.000163702 1.08814e-24)
(0.018723 4.28192e-05 -2.13663e-26)
(0.018776 1.82879e-05 -7.40229e-25)
(0.0188216 -5.96119e-07 3.90433e-24)
(0.0188609 -1.64753e-05 3.95475e-25)
(0.0188947 -3.08421e-05 2.53166e-24)
(0.0189233 -4.47356e-05 -8.68687e-24)
(0.0189474 -5.86557e-05 7.6316e-24)
(0.0189672 -7.2768e-05 1.82765e-24)
(0.0189831 -8.6988e-05 1.60419e-23)
(0.0189954 -0.000101085 -2.46901e-23)
(0.0190044 -0.000114757 -1.12398e-23)
(0.0190105 -0.000127712 -7.43096e-24)
(0.0190144 -0.000139703 1.40219e-23)
(0.0190159 -0.000150582 -3.98175e-25)
(0.0190164 -0.000160271 1.35369e-24)
(0.02061 1.95063e-05 -2.39693e-26)
(0.0206634 -4.91491e-06 6.91235e-25)
(0.0207101 -2.35533e-05 -1.02616e-24)
(0.0207506 -3.89166e-05 -1.687e-26)
(0.0207855 -5.26171e-05 1.69389e-24)
(0.0208152 -6.55287e-05 4.46227e-24)
(0.0208401 -7.80835e-05 -1.73385e-23)
(0.0208606 -9.0436e-05 1.37748e-24)
(0.0208772 -0.000102542 8.94046e-24)
(0.0208901 -0.000114261 -4.17064e-24)
(0.0209001 -0.000125409 1.13787e-23)
(0.0209073 -0.000135824 7.96051e-24)
(0.0209125 -0.000145377 -1.44662e-23)
(0.0209156 -0.00015401 9.84761e-24)
(0.0209178 -0.000161706 -8.18689e-24)
(0.0225561 -4.4148e-06 -5.89601e-25)
(0.0226018 -2.90523e-05 5.72168e-25)
(0.0226422 -4.75899e-05 1.17148e-24)
(0.0226773 -6.26392e-05 -7.16228e-24)
(0.0227078 -7.56947e-05 6.40351e-24)
(0.0227337 -8.75686e-05 -5.03623e-24)
(0.0227554 -9.87024e-05 3.56459e-24)
(0.0227734 -0.000109284 -2.63123e-23)
(0.0227879 -0.000119335 3.79974e-23)
(0.0227994 -0.000128824 -2.25601e-23)
(0.0228084 -0.000137686 2.01863e-23)
(0.022815 -0.000145854 1.68662e-23)
(0.02282 -0.000153274 -2.9477e-23)
(0.0228233 -0.000159941 9.57619e-24)
(0.0228257 -0.000165867 -4.0082e-25)
(0.0245018 -2.68105e-05 -1.94354e-26)
(0.0245386 -5.13765e-05 3.95634e-25)
(0.0245707 -6.97945e-05 -4.69561e-25)
(0.0245985 -8.44679e-05 -1.97007e-25)
(0.0246225 -9.67703e-05 2.56965e-24)
(0.0246427 -0.000107524 -4.52811e-24)
(0.0246597 -0.000117229 4.3528e-24)
(0.0246735 -0.000126124 -1.40925e-23)
(0.0246846 -0.000134283 3.23116e-23)
(0.0246933 -0.000141754 -4.15915e-23)
(0.0247 -0.000148581 3.41713e-23)
(0.0247049 -0.000154755 -1.15581e-23)
(0.0247086 -0.000160291 5.92267e-25)
(0.0247109 -0.000165224 2.61625e-24)
(0.0247125 -0.000169564 -5.04473e-24)
(0.0263492 -4.76724e-05 -1.55146e-24)
(0.0263789 -7.15416e-05 3.32556e-24)
(0.0264041 -8.94121e-05 -1.74077e-24)
(0.0264254 -0.000103351 -6.5934e-25)
(0.0264434 -0.000114663 3.60129e-24)
(0.0264584 -0.000124117 -3.85909e-24)
(0.0264708 -0.000132318 -3.84835e-24)
(0.0264807 -0.000139559 -9.53442e-24)
(0.0264885 -0.000145945 4.68457e-24)
(0.0264944 -0.000151596 2.33231e-23)
(0.0264987 -0.000156637 -1.23666e-23)
(0.0265017 -0.000160985 7.38844e-24)
(0.0265036 -0.000164757 -3.05865e-24)
(0.0265045 -0.000168061 -8.9753e-24)
(0.0265049 -0.000170886 4.58604e-24)
(0.0279737 -6.78442e-05 4.99185e-25)
(0.027998 -9.02e-05 -9.12293e-25)
(0.028018 -0.000106904 -9.50855e-25)
(0.0280342 -0.000119613 1.41384e-24)
(0.0280476 -0.000129579 -1.56542e-24)
(0.0280585 -0.000137502 5.26524e-24)
(0.0280671 -0.000144004 -4.6241e-24)
(0.0280737 -0.000149547 -3.32733e-24)
(0.0280787 -0.000154072 2.98525e-24)
(0.0280822 -0.000157877 -3.70067e-24)
(0.0280845 -0.000161439 8.60008e-24)
(0.028086 -0.000163946 4.40495e-24)
(0.0280864 -0.000166301 -1.58702e-23)
(0.0280856 -0.000168033 1.08188e-23)
(0.0280847 -0.000169229 -2.27505e-24)
(0.0292156 -8.86199e-05 1.45696e-24)
(0.0292349 -0.00010848 2.66893e-24)
(0.0292498 -0.000123311 -5.85505e-24)
(0.0292615 -0.000134153 -9.63592e-25)
(0.0292704 -0.000142343 2.34205e-24)
(0.0292772 -0.000148435 -1.4051e-24)
(0.0292824 -0.000153099 -3.2528e-24)
(0.0292858 -0.000156821 6.05666e-24)
(0.0292879 -0.000159255 7.66836e-24)
(0.0292889 -0.000161095 -1.87073e-23)
(0.0292883 -0.000162957 8.04295e-24)
(0.0292876 -0.000163476 -4.40305e-25)
(0.0292864 -0.000163645 -3.6661e-25)
(0.0292848 -0.00016356 5.49735e-25)
(0.029283 -0.000163345 -3.37676e-25)
(0.0298522 -0.000105278 -3.80266e-24)
(0.0298633 -0.000122181 -8.22985e-24)
(0.0298712 -0.000134425 4.33706e-24)
(0.0298765 -0.000143172 1.51856e-23)
(0.0298803 -0.000149369 -4.26521e-24)
(0.0298824 -0.000153511 -1.38132e-24)
(0.0298838 -0.000156409 7.03729e-25)
(0.0298839 -0.000158353 -3.06462e-24)
(0.0298831 -0.000158925 7.29387e-24)
(0.0298822 -0.00015892 -3.14379e-24)
(0.0298806 -0.00015866 2.36184e-24)
(0.029878 -0.000158036 -4.06259e-24)
(0.0298749 -0.000157035 -4.70139e-24)
(0.0298715 -0.000155726 7.01755e-24)
(0.0298678 -0.000154018 -3.05685e-24)
(0.0296808 -0.000117191 5.98678e-24)
(0.029688 -0.000130576 -1.35967e-23)
(0.0296921 -0.000140083 2.35432e-24)
(0.0296943 -0.000146651 1.83645e-23)
(0.0296949 -0.00015087 -1.74012e-23)
(0.0296944 -0.000153322 5.65032e-24)
(0.029693 -0.000154512 2.60328e-24)
(0.0296907 -0.000154729 -5.66731e-24)
(0.0296877 -0.000154244 2.64271e-24)
(0.0296841 -0.000153222 -7.57287e-25)
(0.0296801 -0.000151693 -1.65561e-24)
(0.0296756 -0.00014965 2.6325e-24)
(0.0296708 -0.000147141 -3.05488e-24)
(0.0296659 -0.000144248 1.94066e-24)
(0.0296607 -0.000141007 -8.77824e-25)
(0.0286933 -0.000123781 3.68695e-24)
(0.028695 -0.000134044 -7.64256e-24)
(0.0286943 -0.000140959 -4.75932e-24)
(0.0286922 -0.000145332 2.2416e-23)
(0.028689 -0.0001478 -1.96813e-23)
(0.028685 -0.000148793 2.37611e-24)
(0.0286803 -0.000148675 2.97327e-24)
(0.0286751 -0.000147698 1.22996e-24)
(0.0286695 -0.000145971 2.69456e-25)
(0.0286636 -0.000143588 5.67017e-25)
(0.0286574 -0.000140651 -2.17685e-25)
(0.028651 -0.000137231 8.95844e-25)
(0.0286444 -0.000133388 -5.93982e-24)
(0.0286377 -0.00012919 2.95305e-24)
(0.0286307 -0.000124683 1.14261e-24)
(0.0271536 -0.000123713 9.1183e-24)
(0.02715 -0.000131077 -1.59252e-23)
(0.0271448 -0.000135816 3.32642e-24)
(0.0271387 -0.000138513 -6.49768e-24)
(0.0271318 -0.000139641 -7.23647e-24)
(0.0271245 -0.000139515 2.63979e-23)
(0.0271167 -0.000138366 -9.32831e-24)
(0.0271087 -0.000136367 2.1454e-24)
(0.0271004 -0.000133646 -9.74019e-25)
(0.0270921 -0.000130316 -5.18019e-25)
(0.0270836 -0.000126475 -1.2218e-25)
(0.027075 -0.000122198 1.77421e-24)
(0.0270664 -0.000117541 4.51458e-26)
(0.0270577 -0.000112556 -1.24903e-24)
(0.027049 -0.000107278 2.31382e-25)
(0.0252655 -0.000118602 3.49865e-24)
(0.0252567 -0.000123861 -1.74175e-23)
(0.0252468 -0.000126925 2.90831e-23)
(0.0252365 -0.000128232 -2.12087e-23)
(0.0252258 -0.000128199 1.91452e-23)
(0.0252147 -0.000127095 -6.89939e-24)
(0.0252036 -0.000125101 -4.27146e-24)
(0.0251924 -0.000122362 -3.59912e-24)
(0.0251812 -0.000118995 4.24171e-24)
(0.0251702 -0.000115096 -1.71231e-24)
(0.0251592 -0.000110739 -2.05945e-24)
(0.0251484 -0.000105984 6.24336e-25)
(0.0251377 -0.000100874 -9.56368e-25)
(0.0251272 -9.5445e-05 4.79107e-25)
(0.0251168 -8.97239e-05 -1.63914e-25)
(0.0231772 -0.000108832 4.64832e-25)
(0.0231627 -0.00011247 -6.495e-24)
(0.0231477 -0.000114154 -3.07458e-24)
(0.0231329 -0.000114362 2.68332e-23)
(0.0231181 -0.000113482 -2.5168e-23)
(0.0231035 -0.000111731 7.04944e-24)
(0.0230891 -0.000109246 1.04062e-24)
(0.0230751 -0.000106135 -4.59184e-25)
(0.0230614 -0.00010249 -1.50682e-24)
(0.0230481 -9.83786e-05 5.0176e-24)
(0.0230351 -9.38568e-05 -3.37303e-24)
(0.0230226 -8.89687e-05 2.87307e-25)
(0.0230104 -8.37498e-05 -1.17112e-25)
(0.0229986 -7.82339e-05 -9.19323e-25)
(0.0229872 -7.24516e-05 8.1038e-25)
(0.0209951 -9.51784e-05 6.916e-25)
(0.0209761 -9.73875e-05 5.97911e-24)
(0.0209572 -9.81869e-05 -6.91353e-24)
(0.0209389 -9.78935e-05 -4.25881e-24)
(0.0209212 -9.6725e-05 2.53947e-23)
(0.020904 -9.48202e-05 -1.94344e-23)
(0.0208875 -9.22865e-05 -6.41954e-25)
(0.0208717 -8.92126e-05 -3.07769e-24)
(0.0208565 -8.56702e-05 1.88567e-26)
(0.0208419 -8.17155e-05 5.30412e-25)
(0.020828 -7.73924e-05 -1.17255e-25)
(0.0208148 -7.27392e-05 8.06027e-25)
(0.0208021 -6.77901e-05 3.9201e-25)
(0.0207902 -6.25794e-05 9.47609e-26)
(0.0207789 -5.71367e-05 -6.82882e-25)
(0.0188034 -7.96447e-05 4.93311e-24)
(0.0187819 -8.11793e-05 -7.45836e-24)
(0.0187611 -8.16468e-05 -5.37424e-24)
(0.0187413 -8.12399e-05 1.62486e-23)
(0.0187223 -8.01103e-05 -5.84669e-24)
(0.0187042 -7.83697e-05 -7.0231e-24)
(0.0186871 -7.61016e-05 2.57893e-24)
(0.0186708 -7.33726e-05 4.39839e-24)
(0.0186554 -7.02376e-05 -5.90723e-24)
(0.0186409 -6.67397e-05 4.86304e-24)
(0.0186272 -6.29146e-05 -1.85002e-24)
(0.0186145 -5.87952e-05 3.20694e-25)
(0.0186025 -5.44125e-05 7.96718e-25)
(0.0185915 -4.97958e-05 -1.38955e-24)
(0.0185813 -4.4974e-05 6.0422e-25)
(0.0166669 -6.46065e-05 -9.59158e-25)
(0.0166452 -6.5846e-05 -3.13637e-24)
(0.0166244 -6.62441e-05 -9.41696e-24)
(0.0166047 -6.59655e-05 2.61838e-23)
(0.0165861 -6.51101e-05 -5.0581e-24)
(0.0165684 -6.37499e-05 -6.74209e-24)
(0.0165518 -6.19443e-05 1.85944e-24)
(0.0165362 -5.97456e-05 -2.78132e-24)
(0.0165216 -5.71954e-05 -4.42339e-24)
(0.016508 -5.43247e-05 4.36322e-24)
(0.0164954 -5.11604e-05 2.00863e-25)
(0.0164838 -4.77296e-05 -3.33433e-26)
(0.0164731 -4.40584e-05 9.32481e-26)
(0.0164635 -4.01746e-05 -1.46424e-25)
(0.0164548 -3.61046e-05 1.59328e-25)
(0.0146304 -5.12638e-05 3.69951e-24)
(0.0146098 -5.24003e-05 5.04339e-24)
(0.0145902 -5.28939e-05 -5.06952e-24)
(0.0145717 -5.28732e-05 -9.78616e-24)
(0.0145541 -5.23836e-05 1.23971e-23)
(0.0145376 -5.14693e-05 -1.27199e-23)
(0.0145221 -5.01793e-05 1.01964e-25)
(0.0145075 -4.85562e-05 4.48275e-24)
(0.0144941 -4.66296e-05 1.34259e-24)
(0.0144816 -4.44189e-05 -1.79762e-24)
(0.0144701 -4.1942e-05 6.72642e-25)
(0.0144597 -3.92217e-05 1.58561e-24)
(0.0144503 -3.62806e-05 -5.10102e-25)
(0.0144419 -3.3146e-05 1.45937e-25)
(0.0144346 -2.9841e-05 3.29403e-26)
(0.0127191 -4.00364e-05 -3.85246e-24)
(0.0127002 -4.11438e-05 4.92025e-24)
(0.0126822 -4.1772e-05 4.66623e-25)
(0.0126652 -4.20057e-05 8.62119e-24)
(0.0126489 -4.18523e-05 -7.28643e-24)
(0.0126335 -4.13436e-05 2.71867e-25)
(0.0126191 -4.05223e-05 -9.03884e-25)
(0.0126055 -3.94218e-05 -1.86396e-24)
(0.0125929 -3.80608e-05 1.08069e-24)
(0.0125813 -3.6449e-05 -3.41932e-24)
(0.0125706 -3.45982e-05 6.61616e-25)
(0.012561 -3.25267e-05 7.83565e-25)
(0.0125523 -3.02554e-05 2.57612e-25)
(0.0125446 -2.78089e-05 -2.43506e-27)
(0.012538 -2.5207e-05 -8.17289e-26)
(0.0109435 -3.08218e-05 2.86062e-24)
(0.0109265 -3.18856e-05 -2.29112e-24)
(0.0109101 -3.26062e-05 -9.15733e-24)
(0.0108943 -3.30204e-05 8.57559e-24)
(0.0108791 -3.31161e-05 1.07074e-23)
(0.0108647 -3.2921e-05 -3.27022e-24)
(0.010851 -3.24711e-05 -5.35974e-24)
(0.0108381 -3.17905e-05 -6.17666e-24)
(0.010826 -3.08894e-05 4.39753e-24)
(0.0108148 -2.97715e-05 8.63508e-26)
(0.0108044 -2.84442e-05 -6.67492e-25)
(0.0107949 -2.69219e-05 -1.31182e-26)
(0.0107863 -2.52235e-05 6.77747e-26)
(0.0107788 -2.33689e-05 -6.27601e-26)
(0.0107721 -2.13751e-05 8.64512e-26)
(0.009305 -2.33037e-05 -1.80457e-24)
(0.00928956 -2.42795e-05 -1.16418e-24)
(0.00927452 -2.50217e-05 1.5744e-24)
(0.00925984 -2.55229e-05 -4.26852e-24)
(0.00924559 -2.57674e-05 1.37876e-23)
(0.00923184 -2.57811e-05 -1.7182e-23)
(0.00921864 -2.55926e-05 1.57705e-23)
(0.00920605 -2.52177e-05 -6.37889e-24)
(0.00919411 -2.46615e-05 1.11032e-24)
(0.00918288 -2.39239e-05 -2.20905e-25)
(0.0091724 -2.30094e-05 -8.14872e-25)
(0.00916271 -2.19292e-05 -4.64403e-26)
(0.00915386 -2.06984e-05 -2.03487e-25)
(0.0091459 -1.93331e-05 4.51251e-26)
(0.00913883 -1.78466e-05 -3.7995e-26)
(0.00779955 -1.71727e-05 -8.78753e-25)
(0.0077856 -1.80198e-05 2.50657e-25)
(0.00777179 -1.87148e-05 4.79249e-25)
(0.00775809 -1.92192e-05 -1.98503e-24)
(0.00774462 -1.95241e-05 -7.27868e-25)
(0.00773144 -1.96529e-05 7.07195e-24)
(0.00771863 -1.96264e-05 -4.05262e-24)
(0.00770626 -1.94547e-05 4.71843e-25)
(0.00769439 -1.91396e-05 -4.79704e-25)
(0.00768307 -1.86793e-05 -3.76384e-25)
(0.00767237 -1.8076e-05 2.46999e-27)
(0.00766235 -1.73379e-05 3.88409e-25)
(0.00765305 -1.64768e-05 -1.78689e-25)
(0.00764455 -1.55043e-05 1.32309e-26)
(0.00763686 -1.44306e-05 6.03023e-26)
(0.00642072 -1.22016e-05 -3.20197e-25)
(0.00640822 -1.28951e-05 -8.99962e-26)
(0.00639564 -1.34904e-05 -4.74811e-24)
(0.00638298 -1.39377e-05 1.44914e-24)
(0.00637035 -1.42376e-05 -2.8818e-24)
(0.00635786 -1.4409e-05 2.45916e-24)
(0.00634557 -1.44665e-05 3.87575e-24)
(0.00633356 -1.44162e-05 2.44454e-24)
(0.00632189 -1.42581e-05 -3.18321e-24)
(0.00631064 -1.39897e-05 9.45989e-25)
(0.00629987 -1.36118e-05 5.32318e-25)
(0.00628966 -1.313e-05 -4.54657e-25)
(0.00628007 -1.25526e-05 2.21176e-25)
(0.00627116 -1.18877e-05 9.83777e-26)
(0.00626297 -1.11423e-05 -1.0918e-25)
(0.00516092 -8.23879e-06 -1.25644e-24)
(0.00514998 -8.77014e-06 -1.61286e-24)
(0.00513876 -9.23585e-06 -1.69842e-25)
(0.00512732 -9.59153e-06 3.9207e-24)
(0.00511579 -9.84527e-06 -2.57189e-24)
(0.00510425 -1.00108e-05 -3.47097e-25)
(0.00509278 -1.00975e-05 3.6883e-24)
(0.00508145 -1.01091e-05 -1.38786e-25)
(0.00507033 -1.00448e-05 -7.41195e-25)
(0.00505951 -9.90197e-06 -1.82872e-24)
(0.00504905 -9.68068e-06 4.44242e-25)
(0.00503903 -9.38418e-06 7.95431e-25)
(0.0050295 -9.01807e-06 -8.59984e-26)
(0.00502055 -8.58724e-06 9.91896e-26)
(0.00501221 -8.09637e-06 -9.36767e-26)
(0.00401226 -5.17552e-06 -2.75103e-25)
(0.00400301 -5.55221e-06 2.56874e-26)
(0.00399338 -5.88089e-06 1.91507e-24)
(0.00398345 -6.13394e-06 1.13942e-24)
(0.00397333 -6.32231e-06 -9.44359e-25)
(0.00396311 -6.45465e-06 -1.95943e-24)
(0.00395287 -6.53673e-06 6.92868e-25)
(0.00394266 -6.57064e-06 -2.67906e-24)
(0.00393256 -6.55538e-06 2.02082e-24)
(0.00392265 -6.48877e-06 7.56961e-25)
(0.00391298 -6.37034e-06 -1.92429e-25)
(0.00390364 -6.20177e-06 -5.76159e-25)
(0.00389469 -5.98646e-06 3.16084e-26)
(0.0038862 -5.72708e-06 5.24627e-26)
(0.0038782 -5.42622e-06 -4.75157e-26)
(0.00296683 -2.91782e-06 -5.07453e-25)
(0.00295945 -3.16266e-06 2.81855e-26)
(0.00295164 -3.36854e-06 1.55092e-24)
(0.00294351 -3.52729e-06 -9.62535e-25)
(0.00293516 -3.64884e-06 3.55563e-24)
(0.00292666 -3.73797e-06 -6.31328e-24)
(0.00291807 -3.798e-06 4.78109e-24)
(0.00290945 -3.83009e-06 -3.66417e-24)
(0.00290087 -3.83357e-06 2.36795e-24)
(0.00289238 -3.80695e-06 -1.30481e-24)
(0.00288405 -3.7497e-06 4.14435e-25)
(0.00287594 -3.66253e-06 4.3605e-26)
(0.00286812 -3.54736e-06 -6.33222e-27)
(0.00286063 -3.40552e-06 2.66168e-26)
(0.00285353 -3.23804e-06 -1.95002e-26)
(0.00201697 -1.37163e-06 7.71419e-25)
(0.00201157 -1.51249e-06 7.77109e-25)
(0.0020058 -1.62268e-06 -3.3643e-24)
(0.00199974 -1.70738e-06 2.38784e-24)
(0.00199348 -1.77271e-06 -5.18446e-26)
(0.00198705 -1.8209e-06 4.94579e-25)
(0.00198052 -1.85385e-06 -6.73609e-25)
(0.00197393 -1.87245e-06 -1.16324e-24)
(0.00196733 -1.87671e-06 1.08332e-24)
(0.00196076 -1.86608e-06 3.94836e-26)
(0.00195427 -1.84044e-06 -5.65345e-25)
(0.00194792 -1.80017e-06 2.10186e-25)
(0.00194176 -1.74636e-06 4.10492e-26)
(0.00193582 -1.67936e-06 -1.07119e-26)
(0.00193016 -1.59868e-06 1.30944e-26)
(0.00115529 -4.38625e-07 -7.79861e-25)
(0.00115197 -4.73408e-07 2.32883e-24)
(0.00114838 -5.01271e-07 1.25715e-24)
(0.0011446 -5.25765e-07 -2.39337e-24)
(0.00114067 -5.46568e-07 -2.7373e-25)
(0.00113661 -5.63268e-07 -2.19369e-25)
(0.00113247 -5.76167e-07 5.98267e-25)
(0.00112827 -5.85565e-07 -9.56106e-25)
(0.00112404 -5.91579e-07 1.13513e-24)
(0.00111981 -5.94109e-07 -5.59714e-25)
(0.00111561 -5.93135e-07 -2.50663e-25)
(0.00111148 -5.8873e-07 1.17072e-25)
(0.00110745 -5.81233e-07 -1.87837e-27)
(0.00110355 -5.69298e-07 -4.05349e-26)
(0.00109981 -5.49796e-07 2.84618e-26)
(0.000374809 -1.34659e-08 -5.60088e-27)
(0.000373588 8.2346e-08 4.50297e-25)
(0.000372271 1.4786e-07 4.77602e-25)
(0.000370885 1.87039e-07 -7.82879e-25)
(0.000369444 2.05387e-07 1.45111e-24)
(0.000367958 2.07226e-07 -1.58234e-24)
(0.000366437 1.95977e-07 8.93823e-26)
(0.000364892 1.74517e-07 6.76622e-25)
(0.000363331 1.45334e-07 -9.27101e-25)
(0.000361766 1.10647e-07 -9.96802e-26)
(0.000360208 7.24005e-08 4.19775e-25)
(0.000358669 3.22937e-08 -1.62119e-25)
(0.00035716 -8.28165e-09 -2.05243e-27)
(0.000355693 -4.70847e-08 -6.72296e-27)
(0.000354278 -8.10522e-08 2.37812e-27)
(0.000970681 -0.000246913 7.32643e-26)
(0.00111433 -0.000158584 1.79701e-24)
(0.00135636 -7.09855e-05 -5.05422e-24)
(0.00160429 -3.07118e-06 7.12901e-24)
(0.0018428 4.69308e-05 -2.6693e-24)
(0.00207656 7.9923e-05 -2.42663e-24)
(0.00230498 9.86632e-05 2.69638e-24)
(0.00252816 0.000105546 -5.17529e-24)
(0.00274646 0.000102638 4.06399e-25)
(0.00296028 9.18477e-05 3.15595e-24)
(0.00317002 7.4858e-05 -5.75773e-25)
(0.00337612 5.31699e-05 5.96411e-25)
(0.00357906 2.82292e-05 -7.14819e-26)
(0.00377927 1.5989e-06 2.937e-25)
(0.0039774 -2.49952e-05 -1.05547e-24)
(0.00417421 -4.9285e-05 5.49268e-25)
(0.00437141 -6.84949e-05 -1.06548e-25)
(0.0045712 -7.90047e-05 3.82969e-26)
(0.00477811 -7.71837e-05 1.16396e-25)
(0.00499765 -5.91995e-05 -5.66519e-26)
(0.00523819 -2.38281e-05 3.48543e-27)
(0.00550655 2.6704e-05 -3.77365e-27)
(0.00578412 7.86784e-05 2.10175e-26)
(0.00603449 0.000115594 1.31147e-25)
(0.0062427 0.000132055 -2.3146e-25)
(0.00640806 0.00012792 -2.28413e-25)
(0.00653257 0.000104768 -2.71128e-26)
(0.00661858 6.40149e-05 6.098e-25)
(0.00666752 6.69327e-06 8.9685e-25)
(0.00667958 -6.54452e-05 -1.72864e-24)
(0.00665386 -0.000149289 1.24643e-24)
(0.00658899 -0.000240008 -8.78264e-25)
(0.00648384 -0.000331034 8.84928e-26)
(0.00633792 -0.000414345 -9.74987e-25)
(0.00615159 -0.000480852 9.37733e-25)
(0.00592606 -0.000520657 6.41627e-24)
(0.00566319 -0.000523015 -1.68392e-24)
(0.00536533 -0.000475701 1.78336e-24)
(0.00503546 -0.000363517 1.02473e-24)
(0.00467793 -0.000166292 -9.90448e-24)
(0.00429786 0.000140607 -1.22458e-25)
(0.00390295 0.000574641 4.28269e-24)
(0.00348572 0.00111157 1.38646e-24)
(0.00306751 0.00163405 -6.03251e-24)
(0.00283482 0.00177528 -2.98698e-25)
(0.0018344 -0.0003335 -2.10949e-24)
(0.00189525 -0.000283315 -2.82342e-24)
(0.00204621 -0.000199246 6.00272e-24)
(0.00223546 -0.000123734 2.61287e-24)
(0.00243657 -6.26228e-05 -9.10693e-24)
(0.00264404 -1.8121e-05 9.48878e-24)
(0.00285297 1.13408e-05 -3.3707e-24)
(0.00306084 2.79308e-05 2.53215e-24)
(0.00326654 3.36927e-05 -3.35444e-24)
(0.00346954 3.06167e-05 4.80999e-26)
(0.00366963 2.04818e-05 -1.62289e-24)
(0.0038668 4.88163e-06 3.17179e-24)
(0.00406123 -1.46425e-05 -1.67921e-24)
(0.00425306 -3.64407e-05 -1.27526e-24)
(0.0044427 -5.87454e-05 -5.77945e-25)
(0.00463067 -7.92763e-05 1.52513e-24)
(0.00481838 -9.52843e-05 -3.6204e-26)
(0.0050077 -0.000103231 4.16427e-25)
(0.00520275 -9.95863e-05 -2.00812e-26)
(0.00540855 -8.06032e-05 -6.29158e-26)
(0.00563314 -4.50091e-05 -9.94605e-27)
(0.00588327 5.29444e-06 -1.31119e-26)
(0.00614285 5.72505e-05 1.04707e-25)
(0.00637872 9.50902e-05 2.4768e-25)
(0.00657671 0.000113535 -1.29353e-25)
(0.00673568 0.00011224 -1.24879e-24)
(0.00685699 9.26948e-05 1.81401e-24)
(0.00694233 5.64162e-05 -1.37248e-24)
(0.00699264 4.6429e-06 4.75785e-25)
(0.00700784 -6.06521e-05 -2.68126e-25)
(0.00698701 -0.000136138 1.731e-24)
(0.00692895 -0.000216891 -1.63146e-24)
(0.00683282 -0.000296354 -2.91395e-25)
(0.00669858 -0.000366611 5.00867e-24)
(0.00652722 -0.000418732 -8.6269e-24)
(0.00632082 -0.000443001 2.33851e-24)
(0.00608251 -0.000428883 1.14608e-23)
(0.00581659 -0.000364515 -3.06207e-24)
(0.00552909 -0.000235508 -9.38094e-24)
(0.00522946 -2.31886e-05 -5.77522e-24)
(0.00493217 0.000294935 1.31792e-23)
(0.00466207 0.000736287 -1.27519e-23)
(0.00444635 0.00127569 -2.74882e-24)
(0.00432885 0.00178512 8.37271e-24)
(0.0043545 0.00186313 2.56956e-24)
(0.00285561 -0.0003433 -2.36795e-26)
(0.00286628 -0.000336857 -3.26887e-24)
(0.00293208 -0.00028721 6.28371e-24)
(0.00305234 -0.000222737 4.99907e-24)
(0.0032008 -0.000161976 -8.26478e-24)
(0.00336774 -0.000112324 1.82325e-25)
(0.00354511 -7.55474e-05 7.53175e-25)
(0.00372771 -5.1035e-05 7.82306e-24)
(0.00391254 -3.74925e-05 -9.21947e-24)
(0.00409778 -3.32311e-05 5.45113e-24)
(0.00428228 -3.65968e-05 1.45096e-24)
(0.00446538 -4.60283e-05 -8.4536e-24)
(0.00464673 -5.99477e-05 3.02588e-24)
(0.00482609 -7.67065e-05 1.06494e-24)
(0.00500352 -9.44855e-05 -1.88193e-24)
(0.00517919 -0.000111022 2.67894e-24)
(0.00535418 -0.000123611 -1.59273e-24)
(0.00552992 -0.000128807 1.03276e-25)
(0.00571008 -0.000123193 1.3736e-25)
(0.00589912 -0.000103116 5.72003e-26)
(0.00610465 -6.7262e-05 2.51225e-27)
(0.00633326 -1.72124e-05 7.58235e-27)
(0.00657157 3.46367e-05 -1.15545e-25)
(0.00679005 7.32915e-05 4.26768e-25)
(0.00697538 9.36282e-05 -8.85469e-25)
(0.00712597 9.51085e-05 5.49354e-25)
(0.00724252 7.91374e-05 -1.67633e-24)
(0.007326 4.73435e-05 2.26349e-24)
(0.00737682 1.15311e-06 -2.184e-24)
(0.00739466 -5.71992e-05 2.39208e-25)
(0.00737853 -0.000124204 4.49156e-25)
(0.0073274 -0.000194847 1.90287e-24)
(0.00724077 -0.000262608 -4.53323e-25)
(0.00711908 -0.000319731 2.57715e-24)
(0.00696399 -0.000357552 -7.62009e-24)
(0.00677849 -0.000366738 1.37217e-23)
(0.00656704 -0.00033732 -9.56762e-24)
(0.00633592 -0.000258427 1.47316e-23)
(0.00609405 -0.000117626 -2.83895e-23)
(0.00585507 9.99275e-05 1.08752e-23)
(0.00564004 0.000410024 3.82723e-24)
(0.0054821 0.000821045 5.99504e-24)
(0.00541863 0.00130008 -7.4438e-24)
(0.00547614 0.00172082 2.00003e-24)
(0.00562663 0.00176801 -1.185e-24)
(0.00401278 -0.000327405 -8.76538e-25)
(0.00399619 -0.000348003 -1.2941e-24)
(0.00400936 -0.0003296 -5.42388e-24)
(0.00406332 -0.000289435 1.63941e-24)
(0.00415441 -0.000240075 1.07727e-24)
(0.00427169 -0.000193594 4.11334e-24)
(0.0044073 -0.000155107 -8.2275e-24)
(0.00455489 -0.000126265 3.23378e-24)
(0.00471002 -0.000107195 1.00506e-23)
(0.00486964 -9.69602e-05 -2.73557e-24)
(0.00503158 -9.43492e-05 -2.42064e-24)
(0.00519439 -9.80339e-05 -3.63454e-25)
(0.00535709 -0.000106534 1.08048e-24)
(0.0055189 -0.000118266 -1.98603e-24)
(0.00567947 -0.000131439 5.10767e-25)
(0.00583852 -0.000143845 -3.39757e-26)
(0.00599677 -0.000152853 -3.86681e-25)
(0.00615511 -0.000155141 3.76737e-25)
(0.00631672 -0.000147426 4.4321e-25)
(0.00648542 -0.000126175 -7.89681e-26)
(0.0066683 -9.00482e-05 -2.84311e-26)
(0.00687167 -4.03225e-05 -1.52799e-26)
(0.00708503 1.12633e-05 -2.02866e-25)
(0.00728279 5.05581e-05 -1.27287e-25)
(0.00745261 7.26388e-05 -9.55384e-25)
(0.00759243 7.67836e-05 1.44592e-24)
(0.00770224 6.4318e-05 -1.64261e-24)
(0.00778231 3.69978e-05 3.22075e-24)
(0.00783248 -3.56552e-06 -2.87314e-24)
(0.00785214 -5.49059e-05 7.11424e-25)
(0.00784026 -0.000113346 1.07898e-24)
(0.00779598 -0.000173823 -1.28677e-25)
(0.00771913 -0.000229923 -2.24005e-25)
(0.00761066 -0.000274152 -8.71188e-25)
(0.00747289 -0.000298279 1.09778e-24)
(0.00730971 -0.000293619 -4.24027e-24)
(0.00712681 -0.000251197 2.02321e-23)
(0.00693213 -0.000161782 -1.0702e-23)