/*--------------------------------*- C++ -*----------------------------------*\
| =========                 |                                                 |
| \\      /  F ield         | OpenFOAM: The Open Source CFD Toolbox           |
|  \\    /   O peration     | Version:  2312                                  |
|   \\  /    A nd           | Website:  www.openfoam.com                      |
|    \\/     M anipulation  |                                                 |
\*---------------------------------------------------------------------------*/
FoamFile
{
    version     2.0;
    format      ascii;
    arch        "LSB;label=32;scalar=64";
    class       surfaceScalarField;
    location    "146.5";
    object      phi;
}
// * * * * * * * * * * * * * * * * * * * * * * * * * * * * * * * * * * * * * //

dimensions      [0 3 -1 0 0 0 0];

oriented        oriented;

internalField   nonuniform List<scalar> 
9445
(
5.70271e-10
1.30489e-11
5.62769e-10
7.5024e-12
5.58722e-10
4.04653e-12
5.57006e-10
1.71664e-12
5.56967e-10
3.89876e-14
5.58124e-10
-1.15696e-12
5.60203e-10
-2.0797e-12
5.63285e-10
-3.08171e-12
5.67494e-10
-4.20842e-12
5.73159e-10
-5.66505e-12
5.8136e-10
-8.20118e-12
5.95608e-10
-1.42483e-11
6.28188e-10
-3.258e-11
7.21852e-10
-9.36642e-11
-2.40175e-10
9.62027e-10
1.9945e-09
5.67821e-11
1.96928e-09
3.2721e-11
1.95556e-09
1.7767e-11
1.94958e-09
7.69581e-12
1.94907e-09
5.50948e-13
1.95233e-09
-4.41891e-12
1.95866e-09
-8.41132e-12
1.96813e-09
-1.25524e-11
1.98103e-09
-1.71096e-11
1.99838e-09
-2.30147e-11
2.02293e-09
-3.27455e-11
2.06138e-09
-5.2703e-11
2.12668e-09
-9.78782e-11
2.23077e-09
-1.97755e-10
-3.48389e-10
2.33899e-09
3.94248e-09
1.39699e-10
3.89449e-09
8.07088e-11
3.86818e-09
4.4085e-11
3.85638e-09
1.94965e-11
3.85469e-09
2.23621e-12
3.85988e-09
-9.60654e-12
3.8707e-09
-1.92373e-11
3.88705e-09
-2.88952e-11
3.90906e-09
-3.91233e-11
3.93802e-09
-5.19719e-11
3.97665e-09
-7.13781e-11
4.02946e-09
-1.05517e-10
4.09906e-09
-1.67478e-10
4.17206e-09
-2.7075e-10
-3.90244e-10
4.21391e-09
6.55937e-09
2.71289e-10
6.48278e-09
1.57302e-10
6.44031e-09
8.65502e-11
6.42054e-09
3.92666e-11
6.41645e-09
6.33015e-12
6.42294e-09
-1.61011e-11
6.43787e-09
-3.41622e-11
6.46071e-09
-5.17369e-11
6.49099e-09
-6.94072e-11
6.52944e-09
-9.04247e-11
6.57714e-09
-1.19074e-10
6.63382e-09
-1.62196e-10
6.69328e-09
-2.26937e-10
6.73648e-09
-3.13947e-10
-3.96971e-10
6.7432e-09
1.00209e-08
4.61093e-10
9.90954e-09
2.68704e-10
9.84693e-09
1.49167e-10
9.81645e-09
6.97434e-11
9.80811e-09
1.46695e-11
9.81473e-09
-2.27241e-11
9.83267e-09
-5.21007e-11
9.8606e-09
-7.96665e-11
9.89704e-09
-1.05844e-10
9.94139e-09
-1.34774e-10
9.99234e-09
-1.7003e-10
1.00456e-08
-2.15491e-10
1.00914e-08
-2.72691e-10
1.01138e-08
-3.36404e-10
-3.8779e-10
1.01047e-08
1.4535e-08
7.16528e-10
1.43834e-08
4.20323e-10
1.42968e-08
2.3577e-10
1.42527e-08
1.13807e-10
1.42378e-08
2.96196e-11
1.42427e-08
-2.76158e-11
1.4262e-08
-7.14488e-11
1.42927e-08
-1.1033e-10
1.43322e-08
-1.45333e-10
1.43782e-08
-1.80763e-10
1.44272e-08
-2.19086e-10
1.44732e-08
-2.61441e-10
1.45067e-08
-3.06197e-10
1.45179e-08
-3.476e-10
-3.75181e-10
1.45053e-08
2.03395e-08
1.03871e-09
2.01455e-08
6.14364e-10
2.00326e-08
3.48584e-10
1.99729e-08
1.73547e-10
1.99491e-08
5.33933e-11
1.99503e-08
-2.87429e-11
1.99689e-08
-9.00756e-11
1.99995e-08
-1.40953e-10
2.00386e-08
-1.8442e-10
2.00822e-08
-2.2438e-10
2.01256e-08
-2.6252e-10
2.01628e-08
-2.986e-10
2.0187e-08
-3.30413e-10
2.01936e-08
-3.54162e-10
-3.65399e-10
2.01838e-08
2.76955e-08
1.41584e-09
2.74641e-08
8.45715e-10
2.73271e-08
4.85574e-10
2.72522e-08
2.4846e-10
2.72191e-08
8.6474e-11
2.72151e-08
-2.47468e-11
2.72309e-08
-1.05837e-10
2.72592e-08
-1.69222e-10
2.7295e-08
-2.20226e-10
2.73334e-08
-2.62778e-10
2.73694e-08
-2.98536e-10
2.73982e-08
-3.27394e-10
2.7416e-08
-3.48188e-10
2.74213e-08
-3.59516e-10
-3.60424e-10
2.74163e-08
3.68772e-08
1.81571e-09
3.66263e-08
1.09661e-09
3.64752e-08
6.3668e-10
3.63909e-08
3.32773e-10
3.63516e-08
1.25722e-10
3.63436e-08
-1.67334e-11
3.63563e-08
-1.18461e-10
3.63812e-08
-1.9418e-10
3.64125e-08
-2.51496e-10
3.64448e-08
-2.95128e-10
3.64738e-08
-3.27547e-10
3.64962e-08
-3.49791e-10
3.65103e-08
-3.6229e-10
3.65164e-08
-3.65563e-10
-3.60469e-10
3.65164e-08
4.81675e-08
2.18323e-09
4.79308e-08
1.33322e-09
4.77869e-08
7.80665e-10
4.77068e-08
4.12856e-10
4.76702e-08
1.62267e-10
4.76637e-08
-1.01945e-11
4.76764e-08
-1.31211e-10
4.77001e-08
-2.17788e-10
4.77284e-08
-2.79802e-10
4.77566e-08
-3.23381e-10
4.77814e-08
-3.52374e-10
4.7801e-08
-3.69304e-10
4.78147e-08
-3.76063e-10
4.78236e-08
-3.74436e-10
-3.6615e-10
4.78293e-08
6.18802e-08
2.45439e-09
6.17019e-08
1.51149e-09
6.15953e-08
8.87304e-10
6.15403e-08
4.67829e-10
6.15211e-08
1.81459e-10
6.15264e-08
-1.54831e-11
6.15467e-08
-1.51555e-10
6.15747e-08
-2.45785e-10
6.16051e-08
-3.10201e-10
6.16343e-08
-3.5259e-10
6.16602e-08
-3.78264e-10
6.1682e-08
-3.91073e-10
6.16999e-08
-3.9396e-10
6.17149e-08
-3.89427e-10
-3.79568e-10
6.17283e-08
7.84323e-08
2.59126e-09
7.83453e-08
1.59845e-09
7.8302e-08
9.3065e-10
7.82918e-08
4.77993e-10
7.83048e-08
1.68428e-10
7.83335e-08
-4.41086e-11
7.83705e-08
-1.88621e-10
7.84107e-08
-2.8592e-10
7.84503e-08
-3.49837e-10
7.84874e-08
-3.89646e-10
7.85209e-08
-4.1184e-10
7.85511e-08
-4.21184e-10
7.85783e-08
-4.21239e-10
7.86037e-08
-4.14829e-10
-4.04149e-10
7.86283e-08
9.84381e-08
2.61294e-09
9.84378e-08
1.59877e-09
9.84587e-08
9.09763e-10
9.84963e-08
4.40436e-10
9.85449e-08
1.19765e-10
9.86005e-08
-9.97186e-11
9.86581e-08
-2.46164e-10
9.87145e-08
-3.42301e-10
9.87679e-08
-4.03242e-10
9.88176e-08
-4.39357e-10
9.88636e-08
-4.5791e-10
9.89066e-08
-4.6416e-10
9.89473e-08
-4.61951e-10
9.89867e-08
-4.54185e-10
-4.43017e-10
9.90256e-08
1.22704e-07
2.57755e-09
1.22749e-07
1.5534e-09
1.22805e-07
8.54188e-10
1.22868e-07
3.76918e-10
1.22937e-07
5.08872e-11
1.23008e-07
-1.70569e-10
1.23078e-07
-3.15926e-10
1.23145e-07
-4.09302e-10
1.23208e-07
-4.66834e-10
1.23268e-07
-4.996e-10
1.23326e-07
-5.15285e-10
1.23381e-07
-5.19367e-10
1.23435e-07
-5.15782e-10
1.23488e-07
-5.07396e-10
-4.96271e-10
1.23541e-07
1.52017e-07
2.52428e-09
1.5207e-07
1.50024e-09
1.52127e-07
7.9744e-10
1.52187e-07
3.16657e-10
1.52252e-07
-1.4076e-11
1.52318e-07
-2.36576e-10
1.52383e-07
-3.81494e-10
1.52448e-07
-4.73684e-10
1.52511e-07
-5.29891e-10
1.52573e-07
-5.61564e-10
1.52634e-07
-5.76589e-10
1.52695e-07
-5.80531e-10
1.52757e-07
-5.7733e-10
1.52819e-07
-5.69793e-10
-5.59884e-10
1.52883e-07
1.86859e-07
2.44748e-09
1.86916e-07
1.44317e-09
1.86965e-07
7.48717e-10
1.8701e-07
2.71028e-10
1.87059e-07
-6.29023e-11
1.87109e-07
-2.86228e-10
1.87159e-07
-4.32209e-10
1.87212e-07
-5.25765e-10
1.87265e-07
-5.83622e-10
1.87321e-07
-6.17223e-10
1.87379e-07
-6.34461e-10
1.87439e-07
-6.40883e-10
1.87502e-07
-6.40385e-10
1.87568e-07
-6.35699e-10
-6.28684e-10
1.87637e-07
2.2726e-07
2.3229e-09
2.27338e-07
1.36528e-09
2.2739e-07
6.96907e-10
2.27429e-07
2.31709e-10
2.27466e-07
-9.96447e-11
2.27502e-07
-3.21818e-10
2.27538e-07
-4.68984e-10
2.27578e-07
-5.6539e-10
2.27622e-07
-6.27084e-10
2.27669e-07
-6.6505e-10
2.27722e-07
-6.86932e-10
2.27779e-07
-6.98141e-10
2.27841e-07
-7.02463e-10
2.27908e-07
-7.02549e-10
-7.00174e-10
2.27979e-07
2.72712e-07
2.13855e-09
2.72823e-07
1.25449e-09
2.7289e-07
6.29645e-10
2.72933e-07
1.89234e-10
2.72966e-07
-1.32598e-10
2.72994e-07
-3.50419e-10
2.73023e-07
-4.97854e-10
2.73055e-07
-5.97736e-10
2.73093e-07
-6.64684e-10
2.73137e-07
-7.08789e-10
2.73187e-07
-7.37213e-10
2.73244e-07
-7.55086e-10
2.73308e-07
-7.65991e-10
2.73377e-07
-7.72443e-10
-7.76133e-10
2.73453e-07
3.21848e-07
1.89554e-09
3.21994e-07
1.10855e-09
3.2208e-07
5.4361e-10
3.2213e-07
1.39631e-10
3.22166e-07
-1.68757e-10
3.22195e-07
-3.79596e-10
3.22224e-07
-5.26689e-10
3.22256e-07
-6.30089e-10
3.22294e-07
-7.02728e-10
3.22339e-07
-7.53721e-10
3.22391e-07
-7.89627e-10
3.22452e-07
-8.15177e-10
3.22519e-07
-8.33687e-10
3.22594e-07
-8.47481e-10
-8.57794e-10
3.22676e-07
3.71756e-07
1.58947e-09
3.71942e-07
9.22791e-10
3.72053e-07
4.31983e-10
3.72121e-07
7.1703e-11
3.72156e-07
-2.03687e-10
3.72174e-07
-3.9731e-10
3.72185e-07
-5.37913e-10
3.72196e-07
-6.41013e-10
3.7221e-07
-7.17297e-10
3.72231e-07
-7.74435e-10
3.72259e-07
-8.17942e-10
3.72296e-07
-8.51779e-10
3.72341e-07
-8.78717e-10
3.72394e-07
-9.00745e-10
-9.19302e-10
3.72456e-07
3.69832e-07
1.26541e-09
3.70041e-07
7.14112e-10
3.7017e-07
3.02628e-10
3.70251e-07
-9.06113e-12
3.70295e-07
-2.47843e-10
3.7032e-07
-4.22172e-10
3.70336e-07
-5.54495e-10
3.70351e-07
-6.55569e-10
3.70367e-07
-7.33638e-10
3.70388e-07
-7.95028e-10
3.70414e-07
-8.4428e-10
3.70447e-07
-8.84617e-10
3.70487e-07
-9.18304e-10
3.70533e-07
-9.47003e-10
-9.71737e-10
3.70585e-07
3.17466e-07
1.00962e-09
3.17617e-07
5.62838e-10
3.17701e-07
2.18553e-10
3.1774e-07
-4.8162e-11
3.17748e-07
-2.55486e-10
3.17741e-07
-4.15322e-10
3.17726e-07
-5.39915e-10
3.17709e-07
-6.38495e-10
3.17693e-07
-7.17723e-10
3.17681e-07
-7.82469e-10
3.17673e-07
-8.36262e-10
3.1767e-07
-8.81689e-10
3.17672e-07
-9.20607e-10
3.1768e-07
-9.54386e-10
-9.83979e-10
3.17692e-07
2.66358e-07
7.69208e-10
2.66513e-07
4.07441e-10
2.66607e-07
1.2465e-10
2.66657e-07
-9.87768e-11
2.66677e-07
-2.75291e-10
2.66678e-07
-4.16285e-10
2.66668e-07
-5.2969e-10
2.66652e-07
-6.22087e-10
2.66632e-07
-6.98506e-10
2.66613e-07
-7.62653e-10
2.66593e-07
-8.17229e-10
2.66576e-07
-8.64236e-10
2.66561e-07
-9.05125e-10
2.66547e-07
-9.40973e-10
-9.7253e-10
2.66536e-07
2.19959e-07
5.63756e-10
2.20091e-07
2.74932e-10
2.20171e-07
4.496e-11
2.20212e-07
-1.39851e-10
2.20226e-07
-2.89621e-10
2.20222e-07
-4.1222e-10
2.20206e-07
-5.13418e-10
2.20182e-07
-5.97841e-10
2.20153e-07
-6.69168e-10
2.2012e-07
-7.302e-10
2.20086e-07
-7.82982e-10
2.20051e-07
-8.29016e-10
2.20015e-07
-8.69384e-10
2.19979e-07
-9.04895e-10
-9.36122e-10
2.19942e-07
1.79281e-07
3.98605e-10
1.79386e-07
1.70204e-10
1.79445e-07
-1.431e-11
1.79472e-07
-1.66106e-10
1.79474e-07
-2.91648e-10
1.79458e-07
-3.96514e-10
1.79429e-07
-4.84917e-10
1.79392e-07
-5.60134e-10
1.79347e-07
-6.24788e-10
1.79298e-07
-6.80911e-10
1.79245e-07
-7.29991e-10
1.79189e-07
-7.73118e-10
1.79131e-07
-8.11072e-10
1.7907e-07
-8.44443e-10
-8.73647e-10
1.79008e-07
1.44464e-07
2.74157e-10
1.44539e-07
9.56293e-11
1.44576e-07
-5.10528e-11
1.44584e-07
-1.74133e-10
1.4457e-07
-2.77885e-10
1.4454e-07
-3.66165e-10
1.44497e-07
-4.4194e-10
1.44444e-07
-5.07492e-10
1.44384e-07
-5.6463e-10
1.44318e-07
-6.1477e-10
1.44247e-07
-6.58957e-10
1.44172e-07
-6.97961e-10
1.44093e-07
-7.32331e-10
1.44011e-07
-7.62483e-10
-7.88706e-10
1.43926e-07
1.15184e-07
1.86788e-10
1.15231e-07
4.83281e-11
1.15247e-07
-6.67134e-11
1.15238e-07
-1.65393e-10
1.1521e-07
-2.50047e-10
1.15167e-07
-3.23338e-10
1.15113e-07
-3.87238e-10
1.15049e-07
-4.43284e-10
1.14977e-07
-4.92697e-10
1.14898e-07
-5.36434e-10
1.14815e-07
-5.75209e-10
1.14726e-07
-6.0955e-10
1.14634e-07
-6.39829e-10
1.14537e-07
-6.66331e-10
-6.8925e-10
1.14438e-07
9.09093e-08
1.28401e-10
9.09351e-08
2.24667e-11
9.09355e-08
-6.71048e-11
9.09154e-08
-1.45238e-10
9.08788e-08
-2.135e-10
9.0829e-08
-2.73515e-10
9.07683e-08
-3.26552e-10
9.06987e-08
-3.7362e-10
9.06215e-08
-4.15525e-10
9.05379e-08
-4.52892e-10
9.04489e-08
-4.86193e-10
9.03552e-08
-5.15774e-10
9.02572e-08
-5.41879e-10
9.01556e-08
-5.64698e-10
-5.84352e-10
9.00507e-08
7.10315e-08
9.03877e-11
7.10439e-08
1.01077e-11
7.10354e-08
-5.85787e-11
7.10099e-08
-1.19752e-10
7.09704e-08
-1.74041e-10
7.09193e-08
-2.22428e-10
7.08585e-08
-2.65697e-10
7.07894e-08
-3.04493e-10
7.07132e-08
-3.39326e-10
7.06309e-08
-3.70593e-10
7.05433e-08
-3.9859e-10
7.0451e-08
-4.23539e-10
7.03547e-08
-4.45589e-10
7.02549e-08
-4.64862e-10
-4.81428e-10
7.0152e-08
5.49291e-08
6.5264e-11
5.49337e-08
5.53607e-12
5.49216e-08
-4.65212e-11
5.48955e-08
-9.36287e-11
5.48575e-08
-1.36061e-10
5.48094e-08
-1.74336e-10
5.47526e-08
-2.08923e-10
5.46883e-08
-2.40211e-10
5.46175e-08
-2.68513e-10
5.4541e-08
-2.94068e-10
5.44595e-08
-3.17056e-10
5.43735e-08
-3.3761e-10
5.42838e-08
-3.55815e-10
5.41906e-08
-3.71744e-10
-3.85432e-10
5.40947e-08
4.20059e-08
4.80971e-11
4.2007e-08
4.51082e-12
4.19946e-08
-3.41593e-11
4.19707e-08
-6.97223e-11
4.19368e-08
-1.02159e-10
4.18942e-08
-1.31726e-10
4.18439e-08
-1.58686e-10
4.1787e-08
-1.83266e-10
4.17241e-08
-2.05647e-10
4.1656e-08
-2.25966e-10
4.15833e-08
-2.44327e-10
4.15065e-08
-2.608e-10
4.14261e-08
-2.75431e-10
4.13426e-08
-2.88258e-10
-2.99292e-10
4.12565e-08
3.17197e-08
3.57395e-11
3.17194e-08
4.75788e-12
3.17085e-08
-2.32941e-11
3.16883e-08
-4.94382e-11
3.16596e-08
-7.35425e-11
3.16236e-08
-9.57129e-11
3.1581e-08
-1.1609e-10
3.15326e-08
-1.34797e-10
3.14788e-08
-1.51933e-10
3.14205e-08
-1.67569e-10
3.13579e-08
-1.8176e-10
3.12916e-08
-1.94539e-10
3.12221e-08
-2.05924e-10
3.11498e-08
-2.15932e-10
-2.24559e-10
3.10751e-08
2.35944e-08
2.63918e-11
2.35941e-08
5.02821e-12
2.35855e-08
-1.4648e-11
2.35693e-08
-3.32324e-11
2.35463e-08
-5.05109e-11
2.35171e-08
-6.65288e-11
2.34823e-08
-8.13559e-11
2.34426e-08
-9.5053e-11
2.33983e-08
-1.0767e-10
2.335e-08
-1.19238e-10
2.3298e-08
-1.29783e-10
2.32428e-08
-1.39313e-10
2.31847e-08
-1.47834e-10
2.31241e-08
-1.55346e-10
-1.61841e-10
2.30614e-08
1.72244e-08
1.90028e-11
1.72245e-08
4.86025e-12
1.72182e-08
-8.35866e-12
1.7206e-08
-2.09917e-11
1.71883e-08
-3.28171e-11
1.71656e-08
-4.38558e-11
1.71384e-08
-5.41407e-11
1.71071e-08
-6.36974e-11
1.70719e-08
-7.25465e-11
1.70334e-08
-8.06984e-11
1.69918e-08
-8.81595e-11
1.69474e-08
-9.49285e-11
1.69006e-08
-1.01003e-10
1.68516e-08
-1.06376e-10
-1.11036e-10
1.68008e-08
1.22694e-08
1.30442e-11
1.22701e-08
4.16635e-12
1.22659e-08
-4.19199e-12
1.22572e-08
-1.22782e-11
1.22443e-08
-1.98894e-11
1.22275e-08
-2.7037e-11
1.22071e-08
-3.3738e-11
1.21834e-08
-3.99991e-11
1.21566e-08
-4.58258e-11
1.21272e-08
-5.12175e-11
1.20952e-08
-5.61726e-11
1.20609e-08
-6.0685e-11
1.20247e-08
-6.47503e-11
1.19867e-08
-6.83584e-11
-7.14963e-11
1.19471e-08
8.44818e-09
8.2725e-12
8.44924e-09
3.10311e-12
8.44679e-09
-1.74302e-12
8.441e-09
-6.48632e-12
8.43209e-09
-1.09814e-11
8.42028e-09
-1.52219e-11
8.40576e-09
-1.92221e-11
8.38874e-09
-2.29793e-11
8.36941e-09
-2.64935e-11
8.34795e-09
-2.97593e-11
8.32455e-09
-3.27729e-11
8.29939e-09
-3.55275e-11
8.27266e-09
-3.80189e-11
8.24454e-09
-4.02377e-11
-4.21704e-11
8.21522e-09
5.52983e-09
4.59977e-12
5.53101e-09
1.92618e-12
5.5298e-09
-5.33996e-13
5.52628e-09
-2.96086e-12
5.52058e-09
-5.28092e-12
5.51284e-09
-7.48173e-12
5.50318e-09
-9.5694e-12
5.49174e-09
-1.15401e-11
5.47864e-09
-1.3393e-11
5.46401e-09
-1.51224e-11
5.44796e-09
-1.67244e-11
5.43063e-09
-1.8194e-11
5.41213e-09
-1.95284e-11
5.39262e-09
-2.07204e-11
-2.17571e-11
5.3722e-09
3.32622e-09
2.00603e-12
3.32726e-09
8.89233e-13
3.32682e-09
-9.14657e-14
3.32492e-09
-1.06327e-12
3.32164e-09
-2.00274e-12
3.31706e-09
-2.90178e-12
3.31125e-09
-3.75845e-12
3.30428e-09
-4.57194e-12
3.29623e-09
-5.34113e-12
3.28717e-09
-6.06188e-12
3.27718e-09
-6.73199e-12
3.26633e-09
-7.34846e-12
3.25472e-09
-7.91007e-12
3.24241e-09
-8.41226e-12
-8.8449e-12
3.22949e-09
1.68489e-09
4.82018e-13
1.68558e-09
1.99458e-13
1.6855e-09
-1.48394e-14
1.68467e-09
-2.29174e-13
1.68311e-09
-4.41108e-13
1.68085e-09
-6.47168e-13
1.67794e-09
-8.43807e-13
1.6744e-09
-1.03374e-12
1.67027e-09
-1.21345e-12
1.66559e-09
-1.38223e-12
1.6604e-09
-1.53947e-12
1.65474e-09
-1.68417e-12
1.64864e-09
-1.81619e-12
1.64216e-09
-1.9332e-12
-2.02986e-12
1.63535e-09
4.82973e-10
4.83172e-10
4.83157e-10
4.82928e-10
4.82487e-10
4.8184e-10
4.80996e-10
4.79962e-10
4.78749e-10
4.77367e-10
4.75827e-10
4.74143e-10
4.72327e-10
4.70394e-10
4.68364e-10
1.15252e-09
-4.43503e-10
2.53012e-10
1.42727e-09
-3.46002e-10
7.12527e-11
1.70606e-09
-1.79466e-10
-9.93284e-11
1.98281e-09
-4.76676e-12
-2.71976e-10
2.25577e-09
1.73368e-10
-4.46333e-10
2.52576e-09
3.47872e-10
-6.17864e-10
2.79426e-09
5.16493e-10
-7.84992e-10
3.0624e-09
6.7719e-10
-9.45328e-10
3.33104e-09
8.27302e-10
-1.09595e-09
3.60085e-09
9.63676e-10
-1.23348e-09
3.87232e-09
1.08257e-09
-1.35404e-09
4.14593e-09
1.17951e-09
-1.45312e-09
4.42217e-09
1.24915e-09
-1.52539e-09
4.70157e-09
1.2852e-09
-1.5646e-09
4.98474e-09
1.28056e-09
-1.56374e-09
5.27254e-09
1.22826e-09
-1.51606e-09
5.56625e-09
1.12294e-09
-1.41665e-09
5.86807e-09
9.63963e-10
-1.26579e-09
6.18155e-09
7.55463e-10
-1.06894e-09
6.51163e-09
5.09544e-10
-8.39628e-10
6.86374e-09
2.25158e-10
-5.77265e-10
7.23967e-09
-1.31961e-10
-2.43966e-10
7.57712e-09
-5.55712e-10
2.18258e-10
7.85063e-09
-9.88969e-10
7.1546e-10
8.06002e-09
-1.42046e-09
1.21108e-09
8.20834e-09
-1.8222e-09
1.67388e-09
8.30037e-09
-2.17281e-09
2.08078e-09
8.34098e-09
-2.45998e-09
2.41937e-09
8.33405e-09
-2.68061e-09
2.68755e-09
8.28273e-09
-2.82823e-09
2.87955e-09
8.18981e-09
-2.90066e-09
2.99357e-09
8.05752e-09
-2.88929e-09
3.02159e-09
7.88819e-09
-2.78634e-09
2.95567e-09
7.68444e-09
-2.58591e-09
2.78967e-09
7.44895e-09
-2.28477e-09
2.52026e-09
7.18428e-09
-1.88245e-09
2.14712e-09
6.89266e-09
-1.38028e-09
1.67189e-09
6.57606e-09
-7.79142e-10
1.09574e-09
6.2363e-09
-7.64944e-11
4.16255e-10
5.87417e-09
7.35273e-10
-3.73146e-10
5.48532e-09
1.66062e-09
-1.27177e-09
5.05219e-09
2.67266e-09
-2.23952e-09
4.54254e-09
3.63757e-09
-3.12793e-09
3.96026e-09
4.22391e-09
-3.64163e-09
3.64512e-09
3.59868e-09
-3.28354e-09
2.41473e-09
-5.19245e-10
2.58108e-09
-5.12352e-10
2.80792e-09
-4.06305e-10
3.0629e-09
-2.59747e-10
3.33231e-09
-9.60461e-11
3.60932e-09
7.0859e-11
3.89123e-09
2.34587e-10
4.17695e-09
3.91472e-10
4.46611e-09
5.38144e-10
4.75863e-09
6.71156e-10
5.05457e-09
7.86631e-10
5.3541e-09
8.79979e-10
5.65748e-09
9.45764e-10
5.96505e-09
9.7763e-10
6.27723e-09
9.68384e-10
6.59465e-09
9.10843e-10
6.91833e-09
7.99263e-10
7.25016e-09
6.3213e-10
7.59334e-09
4.12281e-10
7.95251e-09
1.50376e-10
8.33283e-09
-1.55164e-10
8.73592e-09
-5.35055e-10
9.09603e-09
-9.15814e-10
9.38726e-09
-1.2802e-09
9.61008e-09
-1.64328e-09
9.7679e-09
-1.98002e-09
9.86576e-09
-2.27067e-09
9.90877e-09
-2.503e-09
9.90107e-09
-2.67291e-09
9.84629e-09
-2.77345e-09
9.74774e-09
-2.80211e-09
9.60812e-09
-2.74967e-09
9.43051e-09
-2.60874e-09
9.21851e-09
-2.37391e-09
8.97614e-09
-2.0424e-09
8.70779e-09
-1.61411e-09
8.41832e-09
-1.09081e-09
8.11358e-09
-4.74408e-10
7.80187e-09
2.35223e-10
7.49558e-09
1.04156e-09
7.21221e-09
1.94398e-09
6.97328e-09
2.91159e-09
6.80532e-09
3.80554e-09
6.73742e-09
4.29181e-09
3.75541e-09
6.62713e-09
4.22912e-09
-5.34449e-10
4.30535e-09
-5.88585e-10
4.45465e-09
-5.55601e-10
4.65844e-09
-4.6354e-10
4.89765e-09
-3.35254e-10
5.16009e-09
-1.9158e-10
5.4385e-09
-4.38281e-11
5.72863e-09
1.01347e-10
6.02798e-09
2.38788e-10
6.3351e-09
3.64034e-10
6.64911e-09
4.72622e-10
6.96953e-09
5.59566e-10
7.29612e-09
6.19175e-10
7.62881e-09
6.44932e-10
7.96767e-09
6.29529e-10
8.31292e-09
5.6559e-10
8.66515e-09
4.47033e-10
9.02575e-09
2.71531e-10
9.39734e-09
4.06888e-11
9.78396e-09
-2.3624e-10
1.01902e-08
-5.61413e-10
1.06173e-08
-9.62097e-10
1.09964e-08
-1.295e-09
1.1302e-08
-1.58575e-09
1.15352e-08
-1.87645e-09
1.16998e-08
-2.14463e-09
1.18012e-08
-2.37208e-09
1.18447e-08
-2.5465e-09
1.18347e-08
-2.66293e-09
1.17755e-08
-2.71424e-09
1.16709e-08
-2.69754e-09
1.15243e-08
-2.60301e-09
1.13395e-08
-2.42399e-09
1.11215e-08
-2.15592e-09
1.0876e-08
-1.79684e-09
1.06095e-08
-1.34759e-09
1.033e-08
-8.11318e-10
1.00479e-08
-1.92327e-10
9.77829e-09
5.04821e-10
9.54456e-09
1.2753e-09
9.38172e-09
2.10682e-09
9.33495e-09
2.95836e-09
9.43891e-09
3.70158e-09
9.64027e-09
4.09045e-09
3.69042e-09
9.70527e-09
6.72468e-09
-5.15926e-10
6.74002e-09
-6.03927e-10
6.81155e-09
-6.27134e-10
6.94574e-09
-5.97724e-10
7.13093e-09
-5.20451e-10
7.35478e-09
-4.15426e-10
7.60802e-09
-2.97063e-10
7.88383e-09
-1.74466e-10
8.17753e-09
-5.4916e-11
8.48592e-09
5.56499e-11
8.80677e-09
1.51764e-10
9.13863e-09
2.27714e-10
9.48047e-09
2.77331e-10
9.83159e-09
2.93816e-10
1.01914e-08
2.69687e-10
1.05596e-08
1.97376e-10
1.09362e-08
7.05208e-11
1.13216e-08
-1.13923e-10
1.17178e-08
-3.55483e-10
1.21277e-08
-6.46205e-10
1.25552e-08
-9.88824e-10
1.30003e-08
-1.40728e-09
1.33926e-08
-1.68728e-09
1.37069e-08
-1.90002e-09
1.39454e-08
-2.11496e-09
1.41124e-08
-2.31164e-09
1.42136e-08
-2.4733e-09
1.42545e-08
-2.58733e-09
1.42398e-08
-2.64822e-09
1.41745e-08
-2.64897e-09
1.40631e-08
-2.58618e-09
1.39095e-08
-2.44943e-09
1.37189e-08
-2.23333e-09
1.34974e-08
-1.93448e-09
1.32528e-08
-1.5522e-09
1.29941e-08
-1.08889e-09
1.27326e-08
-5.49811e-10
1.2483e-08
5.72655e-11
1.22659e-08
7.21934e-10
1.21112e-08
1.42999e-09
1.20603e-08
2.15772e-09
1.2159e-08
2.85962e-09
1.24258e-08
3.43482e-09
1.27979e-08
3.71833e-09
3.48014e-09
1.30082e-08
1.00723e-08
-4.83536e-10
1.00514e-08
-5.83042e-10
1.00649e-08
-6.40639e-10
1.01271e-08
-6.59936e-10
1.02447e-08
-6.38031e-10
1.04102e-08
-5.80923e-10
1.06162e-08
-5.03109e-10
1.0856e-08
-4.14201e-10
1.11237e-08
-3.2267e-10
1.1415e-08
-2.3559e-10
1.17262e-08
-1.59482e-10
1.20549e-08
-1.00963e-10
1.2399e-08
-6.68297e-11
1.27571e-08
-6.42665e-11
1.31278e-08
-1.0098e-10
1.35099e-08
-1.84721e-10
1.39025e-08
-3.22056e-10
1.43052e-08
-5.16615e-10
1.47186e-08
-7.68912e-10
1.51445e-08
-1.07209e-09
1.5585e-08
-1.42939e-09
1.60393e-08
-1.86151e-09
1.64357e-08
-2.08368e-09
1.67504e-08
-2.21476e-09
1.69868e-08
-2.35139e-09
1.71497e-08
-2.47455e-09
1.72452e-08
-2.56871e-09
1.72785e-08
-2.62072e-09
1.72554e-08
-2.62509e-09
1.71816e-08
-2.57512e-09
1.70619e-08
-2.46652e-09
1.6901e-08
-2.28855e-09
1.67054e-08
-2.03771e-09
1.6483e-08
-1.71206e-09
1.62434e-08
-1.31258e-09
1.59981e-08
-8.4366e-10
1.57615e-08
-3.13213e-10
1.55515e-08
2.67277e-10
1.53915e-08
8.81927e-10
1.53121e-08
1.50941e-09
1.53503e-08
2.11951e-09
1.55408e-08
2.66918e-09
1.58869e-08
3.08867e-09
1.632e-08
3.28528e-09
3.15998e-09
1.66401e-08
1.44725e-08
-4.50708e-10
1.44349e-08
-5.45458e-10
1.4415e-08
-6.20813e-10
1.44241e-08
-6.69034e-10
1.44759e-08
-6.89775e-10
1.45753e-08
-6.80369e-10
1.47192e-08
-6.47029e-10
1.4904e-08
-5.98998e-10
1.51254e-08
-5.43981e-10
1.53787e-08
-4.88974e-10
1.56603e-08
-4.41012e-10
1.59667e-08
-4.07414e-10
1.62954e-08
-3.95509e-10
1.66439e-08
-4.12812e-10
1.70102e-08
-4.67216e-10
1.73921e-08
-5.66588e-10
1.77876e-08
-7.17574e-10
1.81951e-08
-9.24191e-10
1.8614e-08
-1.18774e-09
1.9044e-08
-1.50213e-09
1.94856e-08
-1.87094e-09
1.99357e-08
-2.31162e-09
2.03236e-08
-2.47157e-09
2.06273e-08
-2.51853e-09
2.08514e-08
-2.57548e-09
2.10011e-08
-2.62426e-09
2.10827e-08
-2.65031e-09
2.11019e-08
-2.63987e-09
2.10652e-08
-2.58837e-09
2.09791e-08
-2.48906e-09
2.08486e-08
-2.33597e-09
2.06792e-08
-2.11917e-09
2.0479e-08
-1.8375e-09
2.02575e-08
-1.49062e-09
2.00263e-08
-1.08138e-09
1.97991e-08
-6.16395e-10
1.95921e-08
-1.06225e-10
1.94248e-08
4.34593e-10
1.93202e-08
9.86478e-10
1.93046e-08
1.52503e-09
1.94043e-08
2.0198e-09
1.9638e-08
2.4355e-09
1.99971e-08
2.72957e-09
2.04235e-08
2.85887e-09
2.78994e-09
2.07935e-08
2.0158e-08
-4.24896e-10
2.01213e-08
-5.08765e-10
2.00871e-08
-5.86582e-10
2.00684e-08
-6.50404e-10
2.00745e-08
-6.95845e-10
2.01164e-08
-7.22215e-10
2.0198e-08
-7.28719e-10
2.03202e-08
-7.21114e-10
2.04818e-08
-7.05637e-10
2.06805e-08
-6.87671e-10
2.09134e-08
-6.73892e-10
2.11777e-08
-6.71721e-10
2.14707e-08
-6.88543e-10
2.17898e-08
-7.31885e-10
2.21322e-08
-8.09605e-10
2.24951e-08
-9.29478e-10
2.28755e-08
-1.09799e-09
2.32706e-08
-1.31927e-09
2.36779e-08
-1.59508e-09
2.40955e-08
-1.91967e-09
2.45211e-08
-2.29658e-09
2.49494e-08
-2.73988e-09
2.53122e-08
-2.83442e-09
2.55902e-08
-2.79652e-09
2.57887e-08
-2.77393e-09
2.59133e-08
-2.74887e-09
2.59704e-08
-2.70743e-09
2.59663e-08
-2.63579e-09
2.59096e-08
-2.53167e-09
2.58066e-08
-2.38609e-09
2.56607e-08
-2.19002e-09
2.54803e-08
-1.93878e-09
2.52748e-08
-1.63199e-09
2.50552e-08
-1.271e-09
2.48344e-08
-8.60634e-10
2.46276e-08
-4.09541e-10
2.44516e-08
6.97391e-11
2.43254e-08
5.60773e-10
2.42688e-08
1.04306e-09
2.43007e-08
1.49313e-09
2.44354e-08
1.88512e-09
2.46771e-08
2.1938e-09
2.50104e-08
2.39631e-09
2.5392e-08
2.47721e-09
2.43223e-09
2.57497e-08
2.74e-08
-4.08504e-10
2.73727e-08
-4.81538e-10
2.73411e-08
-5.54954e-10
2.73138e-08
-6.23116e-10
2.72997e-08
-6.81746e-10
2.73066e-08
-7.29059e-10
2.73414e-08
-7.63578e-10
2.74096e-08
-7.89273e-10
2.75131e-08
-8.09161e-10
2.76522e-08
-8.26757e-10
2.78264e-08
-8.48108e-10
2.80347e-08
-8.80027e-10
2.82755e-08
-9.29295e-10
2.85465e-08
-1.00294e-09
2.88453e-08
-1.10838e-09
2.91687e-08
-1.25291e-09
2.95132e-08
-1.4425e-09
2.98749e-08
-1.68094e-09
3.02499e-08
-1.97007e-09
3.06341e-08
-2.30384e-09
3.10227e-08
-2.68519e-09
3.14074e-08
-3.12459e-09
3.17252e-08
-3.15224e-09
3.19597e-08
-3.03102e-09
3.21166e-08
-2.93081e-09
3.22016e-08
-2.83391e-09
3.22208e-08
-2.72662e-09
3.21843e-08
-2.59933e-09
3.21009e-08
-2.44822e-09
3.19727e-08
-2.25786e-09
3.18055e-08
-2.02289e-09
3.16104e-08
-1.7436e-09
3.13975e-08
-1.41915e-09
3.1179e-08
-1.05252e-09
3.09687e-08
-6.50302e-10
3.07818e-08
-2.22668e-10
3.06345e-08
2.17065e-10
3.05432e-08
6.52097e-10
3.05226e-08
1.06365e-09
3.05837e-08
1.43201e-09
3.07307e-08
1.73811e-09
3.09582e-08
1.96627e-09
3.12483e-08
2.10626e-09
3.15695e-08
2.15598e-09
2.12199e-09
3.18798e-08
3.6509e-08
-4.0111e-10
3.64934e-08
-4.65862e-10
3.64722e-08
-5.33778e-10
3.64505e-08
-6.0139e-10
3.6434e-08
-6.65332e-10
3.64297e-08
-7.24679e-10
3.64414e-08
-7.75307e-10
3.64769e-08
-8.24756e-10
3.65392e-08
-8.71501e-10
3.66298e-08
-9.1733e-10
3.67508e-08
-9.69133e-10
3.69031e-08
-1.03231e-09
3.70865e-08
-1.11274e-09
3.73002e-08
-1.21662e-09
3.75424e-08
-1.35056e-09
3.78105e-08
-1.52101e-09
3.8101e-08
-1.73295e-09
3.84094e-08
-1.98937e-09
3.8731e-08
-2.29165e-09
3.90598e-08
-2.6327e-09
3.93887e-08
-3.0141e-09
3.97066e-08
-3.44244e-09
3.99579e-08
-3.40356e-09
4.01301e-08
-3.20325e-09
4.0228e-08
-3.02863e-09
4.02567e-08
-2.86269e-09
4.02274e-08
-2.69724e-09
4.01519e-08
-2.52388e-09
4.00292e-08
-2.32553e-09
3.98651e-08
-2.09374e-09
3.96712e-08
-1.82894e-09
3.94569e-08
-1.52937e-09
3.92337e-08
-1.19593e-09
3.90141e-08
-8.3292e-10
3.88119e-08
-4.48058e-10
3.86415e-08
-5.22841e-11
3.85166e-08
3.41904e-10
3.84501e-08
7.18671e-10
3.84508e-08
1.06287e-09
3.85231e-08
1.35976e-09
3.86642e-08
1.597e-09
3.88641e-08
1.7664e-09
3.91052e-08
1.86512e-09
3.93646e-08
1.89658e-09
1.86972e-09
3.96169e-08
4.78305e-08
-4.02286e-10
4.78262e-08
-4.61559e-10
4.78176e-08
-5.25249e-10
4.78077e-08
-5.91425e-10
4.78001e-08
-6.57738e-10
4.77992e-08
-7.23846e-10
4.78092e-08
-7.85323e-10
4.78338e-08
-8.49352e-10
4.7877e-08
-9.14672e-10
4.79414e-08
-9.81732e-10
4.80289e-08
-1.05664e-09
4.8141e-08
-1.14443e-09
4.82785e-08
-1.25019e-09
4.84412e-08
-1.37937e-09
4.86284e-08
-1.53771e-09
4.8838e-08
-1.73066e-09
4.90671e-08
-1.962e-09
4.93112e-08
-2.23353e-09
4.95653e-08
-2.54569e-09
4.98223e-08
-2.88974e-09
5.00731e-08
-3.26489e-09
5.03047e-08
-3.67398e-09
5.04707e-08
-3.5696e-09
5.05638e-08
-3.2964e-09
5.05842e-08
-3.04905e-09
5.0549e-08
-2.82741e-09
5.04687e-08
-2.61701e-09
5.03378e-08
-2.39292e-09
5.01629e-08
-2.15067e-09
4.99581e-08
-1.88888e-09
4.97319e-08
-1.60276e-09
4.94946e-08
-1.2921e-09
4.92578e-08
-9.59128e-10
4.9034e-08
-6.09097e-10
4.88361e-08
-2.50142e-10
4.86759e-08
1.07902e-10
4.85649e-08
4.52932e-10
4.85108e-08
7.72686e-10
4.85179e-08
1.05577e-09
4.85853e-08
1.29242e-09
4.87065e-08
1.47574e-09
4.88703e-08
1.6026e-09
4.90614e-08
1.67402e-09
4.92629e-08
1.69512e-09
1.6742e-09
4.94584e-08
6.17393e-08
-4.13263e-10
6.17471e-08
-4.69402e-10
6.17525e-08
-5.30615e-10
6.17571e-08
-5.9602e-10
6.17636e-08
-6.64247e-10
6.1775e-08
-7.35256e-10
6.17953e-08
-8.05646e-10
6.18242e-08
-8.78234e-10
6.18663e-08
-9.56808e-10
6.19257e-08
-1.0411e-09
6.20029e-08
-1.13381e-09
6.20982e-08
-1.23976e-09
6.2212e-08
-1.36402e-09
6.23442e-08
-1.51148e-09
6.24935e-08
-1.6871e-09
6.26583e-08
-1.89537e-09
6.28352e-08
-2.13896e-09
6.30201e-08
-2.41844e-09
6.32074e-08
-2.73301e-09
6.33897e-08
-3.07205e-09
6.35565e-08
-3.43166e-09
6.36937e-08
-3.81114e-09
6.37643e-08
-3.64019e-09
6.37644e-08
-3.29652e-09
6.37135e-08
-2.99816e-09
6.36175e-08
-2.73137e-09
6.34658e-08
-2.46533e-09
6.32698e-08
-2.19694e-09
6.3044e-08
-1.92485e-09
6.27962e-08
-1.64114e-09
6.25364e-08
-1.3429e-09
6.22749e-08
-1.03067e-09
6.20233e-08
-7.07485e-10
6.1793e-08
-3.78823e-10
6.15953e-08
-5.24591e-11
6.14392e-08
2.64013e-10
6.13327e-08
5.59482e-10
6.12795e-08
8.2588e-10
6.12798e-08
1.05544e-09
6.13297e-08
1.24249e-09
6.14215e-08
1.38397e-09
6.15444e-08
1.47974e-09
6.16859e-08
1.5325e-09
6.18336e-08
1.54742e-09
1.53135e-09
6.19765e-08
7.8652e-08
-4.36899e-10
7.86744e-08
-4.91803e-10
7.86959e-08
-5.52193e-10
7.87177e-08
-6.1778e-10
7.87414e-08
-6.87967e-10
7.87685e-08
-7.62349e-10
7.88035e-08
-8.40688e-10
7.88488e-08
-9.23481e-10
7.89043e-08
-1.01228e-09
7.89722e-08
-1.10904e-09
7.90544e-08
-1.21604e-09
7.91512e-08
-1.33657e-09
7.92621e-08
-1.4749e-09
7.93859e-08
-1.63526e-09
7.95206e-08
-1.8218e-09
7.96633e-08
-2.03808e-09
7.981e-08
-2.28566e-09
7.99556e-08
-2.56404e-09
8.00936e-08
-2.87099e-09
8.02157e-08
-3.19412e-09
8.03111e-08
-3.52712e-09
8.03604e-08
-3.86044e-09
8.0341e-08
-3.62079e-09
8.02736e-08
-3.22908e-09
8.01576e-08
-2.88221e-09
7.99835e-08
-2.55724e-09
7.97656e-08
-2.24738e-09
7.95176e-08
-1.949e-09
7.92466e-08
-1.65379e-09
7.89618e-08
-1.35642e-09
7.86738e-08
-1.05481e-09
7.83928e-08
-7.49749e-10
7.81297e-08
-4.44369e-10
7.78948e-08
-1.4389e-10
7.76953e-08
1.47007e-10
7.75397e-08
4.19648e-10
7.74311e-08
6.68022e-10
7.73706e-08
8.86449e-10
7.73556e-08
1.07042e-09
7.73808e-08
1.21726e-09
7.74385e-08
1.32632e-09
7.75192e-08
1.39898e-09
7.76133e-08
1.43842e-09
7.77115e-08
1.44921e-09
1.43673e-09
7.78061e-08
9.90646e-08
-4.75979e-10
9.9104e-08
-5.31209e-10
9.91441e-08
-5.92205e-10
9.91853e-08
-6.59066e-10
9.92291e-08
-7.31746e-10
9.9277e-08
-8.10266e-10
9.93312e-08
-8.94888e-10
9.93937e-08
-9.85933e-10
9.94658e-08
-1.08442e-09
9.95489e-08
-1.19215e-09
9.96441e-08
-1.3112e-09
9.97515e-08
-1.44399e-09
9.98704e-08
-1.59375e-09
9.99989e-08
-1.76378e-09
1.00134e-07
-1.95724e-09
1.00273e-07
-2.17649e-09
1.00409e-07
-2.42199e-09
1.00537e-07
-2.69196e-09
1.00648e-07
-2.98238e-09
1.00734e-07
-3.27995e-09
1.00782e-07
-3.57477e-09
1.00769e-07
-3.84744e-09
1.00698e-07
-3.55005e-09
1.00574e-07
-3.10504e-09
1.00394e-07
-2.70176e-09
1.00168e-07
-2.33137e-09
9.99093e-08
-1.98889e-09
9.96257e-08
-1.66543e-09
9.9326e-08
-1.35404e-09
9.902e-08