/*--------------------------------*- C++ -*----------------------------------*\
| =========                 |                                                 |
| \\      /  F ield         | OpenFOAM: The Open Source CFD Toolbox           |
|  \\    /   O peration     | Version:  2312                                  |
|   \\  /    A nd           | Website:  www.openfoam.com                      |
|    \\/     M anipulation  |                                                 |
\*---------------------------------------------------------------------------*/
FoamFile
{
    version     2.0;
    format      ascii;
    arch        "LSB;label=32;scalar=64";
    class       surfaceScalarField;
    location    "105.75";
    object      phi;
}
// * * * * * * * * * * * * * * * * * * * * * * * * * * * * * * * * * * * * * //

dimensions      [0 3 -1 0 0 0 0];

oriented        oriented;

internalField   nonuniform List<scalar> 
9445
(
5.88505e-10
8.08515e-12
5.84931e-10
3.57335e-12
5.83988e-10
9.43332e-13
5.84759e-10
-7.7111e-13
5.86644e-10
-1.88467e-12
5.89365e-10
-2.72173e-12
5.929e-10
-3.53467e-12
5.97316e-10
-4.41627e-12
6.02785e-10
-5.46876e-12
6.0974e-10
-6.95462e-12
6.19344e-10
-9.60427e-12
6.35255e-10
-1.59108e-11
6.70416e-10
-3.51608e-11
7.70524e-10
-1.00109e-10
-2.58493e-10
1.02902e-09
2.06046e-09
3.5647e-11
2.04765e-09
1.6379e-11
2.04355e-09
5.04165e-12
2.04501e-09
-2.22801e-12
2.05012e-09
-6.99495e-12
2.05805e-09
-1.0651e-11
2.06858e-09
-1.40692e-11
2.08185e-09
-1.76847e-11
2.09838e-09
-2.20016e-11
2.11945e-09
-2.80222e-11
2.14802e-09
-3.81767e-11
2.19119e-09
-5.90761e-11
2.2626e-09
-1.06572e-10
2.37529e-09
-2.12795e-10
-3.7629e-10
2.49308e-09
4.07467e-09
8.85376e-11
4.04917e-09
4.18775e-11
4.03991e-09
1.43028e-11
4.04093e-09
-3.25354e-12
4.04872e-09
-1.4783e-11
4.06178e-09
-2.37058e-11
4.07956e-09
-3.18469e-11
4.10203e-09
-4.01567e-11
4.12991e-09
-4.98849e-11
4.16484e-09
-6.29484e-11
4.20985e-09
-8.31939e-11
4.26977e-09
-1.18994e-10
4.34737e-09
-1.8417e-10
4.42853e-09
-2.93957e-10
-4.23925e-10
4.47617e-09
6.77924e-09
1.7307e-10
6.73703e-09
8.40868e-11
6.71996e-09
3.13724e-11
6.71884e-09
-2.13176e-12
6.72816e-09
-2.41041e-11
6.7455e-09
-4.10493e-11
6.76992e-09
-5.62611e-11
6.80085e-09
-7.10884e-11
6.8388e-09
-8.78371e-11
6.88493e-09
-1.09083e-10
6.94065e-09
-1.38913e-10
7.00583e-09
-1.84171e-10
7.07397e-09
-2.5231e-10
7.12475e-09
-3.44737e-10
-4.35051e-10
7.13588e-09
1.03517e-08
2.94848e-10
1.02889e-08
1.46952e-10
1.0261e-08
5.91854e-11
1.02555e-08
3.36217e-12
1.02648e-08
-3.33443e-11
1.02848e-08
-6.11058e-11
1.03143e-08
-8.57101e-11
1.03517e-08
-1.08532e-10
1.03969e-08
-1.33047e-10
1.04499e-08
-1.61995e-10
1.05095e-08
-1.98516e-10
1.05715e-08
-2.46206e-10
1.06256e-08
-3.06457e-10
1.0655e-08
-3.74101e-10
-4.29937e-10
1.06499e-08
1.49994e-08
4.56279e-10
1.49135e-08
2.32837e-10
1.48726e-08
1.00022e-10
1.48607e-08
1.53135e-11
1.4868e-08
-4.07012e-11
1.4889e-08
-8.20137e-11
1.4921e-08
-1.1775e-10
1.4962e-08
-1.49542e-10
1.50106e-08
-1.81611e-10
1.5065e-08
-2.16447e-10
1.51222e-08
-2.55714e-10
1.5176e-08
-2.99968e-10
1.52166e-08
-3.47105e-10
1.52336e-08
-3.91064e-10
-4.21024e-10
1.52247e-08
2.09557e-08
6.52264e-10
2.08487e-08
3.3976e-10
2.07954e-08
1.53352e-10
2.07763e-08
3.43805e-11
2.07805e-08
-4.48851e-11
2.08009e-08
-1.02366e-10
2.08331e-08
-1.49923e-10
2.08744e-08
-1.90881e-10
2.09222e-08
-2.29393e-10
2.09733e-08
-2.6755e-10
2.10234e-08
-3.05795e-10
2.10664e-08
-3.43019e-10
2.10956e-08
-3.7634e-10
2.11061e-08
-4.01517e-10
-4.13781e-10
2.10989e-08
2.84723e-08
8.64202e-10
2.83548e-08
4.57237e-10
2.82951e-08
2.1304e-10
2.82723e-08
5.71628e-11
2.82746e-08
-4.71851e-11
2.82942e-08
-1.21967e-10
2.83255e-08
-1.81193e-10
2.83649e-08
-2.30297e-10
2.84088e-08
-2.73306e-10
2.84533e-08
-3.12016e-10
2.84939e-08
-3.46407e-10
2.85261e-08
-3.75215e-10
2.85462e-08
-3.9647e-10
2.8553e-08
-4.08256e-10
-4.09313e-10
2.85485e-08
3.78092e-08
1.05471e-09
3.77044e-08
5.61969e-10
3.76535e-08
2.6397e-10
3.7637e-08
7.36141e-11
3.76438e-08
-5.39609e-11
3.76663e-08
-1.44399e-10
3.76984e-08
-2.13363e-10
3.77362e-08
-2.68125e-10
3.77758e-08
-3.12856e-10
3.78132e-08
-3.49433e-10
3.7845e-08
-3.78168e-10
3.78684e-08
-3.98628e-10
3.78822e-08
-4.10273e-10
3.7887e-08
-4.13021e-10
-4.07379e-10
3.7885e-08
4.92339e-08
1.1696e-09
4.91784e-08
6.17378e-10
4.91617e-08
2.80694e-10
4.91698e-08
6.55337e-11
4.9194e-08
-7.82025e-11
4.92284e-08
-1.78765e-10
4.92678e-08
-2.52775e-10
4.93086e-08
-3.08854e-10
4.93473e-08
-3.51573e-10
4.93811e-08
-3.83288e-10
4.94081e-08
-4.05118e-10
4.94272e-08
-4.17743e-10
4.94388e-08
-4.21841e-10
4.94442e-08
-4.18437e-10
-4.08791e-10
4.94456e-08
6.30521e-08
1.15626e-09
6.30858e-08
5.83669e-10
6.31334e-08
2.33083e-10
6.3189e-08
9.9325e-12
6.32485e-08
-1.37677e-10
6.33084e-08
-2.38724e-10
6.33658e-08
-3.10122e-10
6.34182e-08
-3.61262e-10
6.34638e-08
-3.97225e-10
6.35016e-08
-4.2101e-10
6.3531e-08
-4.34569e-10
6.35527e-08
-4.39459e-10
6.3568e-08
-4.37084e-10
6.35785e-08
-4.28949e-10
-4.16496e-10
6.35862e-08
7.96849e-08
9.97215e-10
7.98276e-08
4.41052e-10
7.9958e-08
1.02655e-10
8.00775e-08
-1.09534e-10
8.01862e-08
-2.46459e-10
8.02838e-08
-3.36238e-10
8.03695e-08
-3.95904e-10
8.04433e-08
-4.34986e-10
8.05051e-08
-4.59041e-10
8.05557e-08
-4.71611e-10
8.05963e-08
-4.7518e-10
8.06286e-08
-4.7173e-10
8.06544e-08
-4.62909e-10
8.06757e-08
-4.50253e-10
-4.3507e-10
8.06943e-08
9.97534e-08
7.31204e-10
9.99834e-08
2.10978e-10
1.00185e-07
-9.877e-11
1.00362e-07
-2.87171e-10
1.00518e-07
-4.01838e-10
1.00653e-07
-4.71196e-10
1.00769e-07
-5.11737e-10
1.00867e-07
-5.33176e-10
1.00949e-07
-5.41409e-10
1.01018e-07
-5.40282e-10
1.01075e-07
-5.32447e-10
1.01123e-07
-5.1991e-10
1.01165e-07
-5.04219e-10
1.01201e-07
-4.86677e-10
-4.68309e-10
1.01234e-07
1.24052e-07
4.28291e-10
1.24315e-07
-5.2629e-11
1.24548e-07
-3.31499e-10
1.24752e-07
-4.91313e-10
1.24931e-07
-5.80196e-10
1.25085e-07
-6.25837e-10
1.25218e-07
-6.44747e-10
1.25332e-07
-6.46863e-10
1.25429e-07
-6.38391e-10
1.25512e-07
-6.23253e-10
1.25584e-07
-6.04048e-10
1.25646e-07
-5.82583e-10
1.25702e-07
-5.60134e-10
1.25753e-07
-5.37677e-10
-5.15901e-10
1.25801e-07
1.53347e-07
1.41151e-10
1.53598e-07
-3.03908e-10
1.53819e-07
-5.52366e-10
1.54013e-07
-6.85703e-10
1.54184e-07
-7.50817e-10
1.54333e-07
-7.74782e-10
1.54462e-07
-7.7425e-10
1.54575e-07
-7.59423e-10
1.54673e-07
-7.36531e-10
1.54759e-07
-7.09502e-10
1.54836e-07
-6.80763e-10
1.54905e-07
-6.51875e-10
1.54969e-07
-6.23825e-10
1.55029e-07
-5.97267e-10
-5.72572e-10
1.55085e-07
1.88134e-07
-1.18564e-10
1.88353e-07
-5.22969e-10
1.88541e-07
-7.41249e-10
1.88706e-07
-8.50622e-10
1.88851e-07
-8.95036e-10
1.88977e-07
-9.0141e-10
1.89089e-07
-8.85688e-10
1.89187e-07
-8.58017e-10
1.89275e-07
-8.24573e-10
1.89355e-07
-7.89017e-10
1.89428e-07
-7.53557e-10
1.89495e-07
-7.19511e-10
1.89559e-07
-6.8761e-10
1.8962e-07
-6.58265e-10
-6.31609e-10
1.89679e-07
2.28481e-07
-3.56924e-10
2.2867e-07
-7.11473e-10
2.28826e-07
-8.97717e-10
2.28959e-07
-9.83598e-10
2.29075e-07
-1.01027e-09
2.29175e-07
-1.00236e-09
2.29265e-07
-9.75525e-10
2.29346e-07
-9.39018e-10
2.2942e-07
-8.98716e-10
2.29489e-07
-8.57868e-10
2.29554e-07
-8.18397e-10
2.29616e-07
-7.81399e-10
2.29676e-07
-7.47362e-10
2.29734e-07
-7.16497e-10
-6.8877e-10
2.29791e-07
2.73897e-07
-5.77389e-10
2.74061e-07
-8.75985e-10
2.74191e-07
-1.02722e-09
2.74297e-07
-1.08981e-09
2.74388e-07
-1.10081e-09
2.74467e-07
-1.08204e-09
2.74539e-07
-1.04715e-09
2.74605e-07
-1.00502e-09
2.74667e-07
-9.60796e-10
2.74726e-07
-9.17119e-10
2.74784e-07
-8.75684e-10
2.7484e-07
-8.37318e-10
2.74894e-07
-8.02309e-10
2.74949e-07
-7.70783e-10
-7.42565e-10
2.75003e-07
3.22991e-07
-7.81945e-10
3.23132e-07
-1.01734e-09
3.23236e-07
-1.13031e-09
3.23315e-07
-1.16951e-09
3.2338e-07
-1.16596e-09
3.23436e-07
-1.138e-09
3.23487e-07
-1.09816e-09
3.23535e-07
-1.05278e-09
3.23581e-07
-1.00668e-09
3.23626e-07
-9.62114e-10
3.23671e-07
-9.20307e-10
3.23715e-07
-8.81784e-10
3.23759e-07
-8.46635e-10
3.23803e-07
-8.14699e-10
-7.85805e-10
3.23847e-07
3.72781e-07
-9.19913e-10
3.72851e-07
-1.08708e-09
3.72884e-07
-1.1636e-09
3.729e-07
-1.18474e-09
3.72906e-07
-1.17224e-09
3.72909e-07
-1.14162e-09
3.72914e-07
-1.10309e-09
3.72922e-07
-1.06066e-09
3.72933e-07
-1.0174e-09
3.72946e-07
-9.75582e-10
3.72962e-07
-9.36203e-10
3.7298e-07
-8.99762e-10
3.73e-07
-8.663e-10
3.73021e-07
-8.35665e-10
-8.07588e-10
3.73043e-07
3.70695e-07
-1.00638e-09
3.70726e-07
-1.11757e-09
3.70726e-07
-1.1642e-09
3.70712e-07
-1.17045e-09
3.70693e-07
-1.1533e-09
3.70674e-07
-1.12227e-09
3.70655e-07
-1.08478e-09
3.7064e-07
-1.045e-09
3.70627e-07
-1.00508e-09
3.70618e-07
-9.66511e-10
3.70612e-07
-9.29944e-10
3.70608e-07
-8.95548e-10
3.70605e-07
-8.63273e-10
3.70602e-07
-8.32987e-10
-8.04579e-10
3.70599e-07
3.1756e-07
-1.01569e-09
3.17533e-07
-1.09084e-09
3.17489e-07
-1.12009e-09
3.17437e-07
-1.11902e-09
3.17385e-07
-1.10049e-09
3.17334e-07
-1.07157e-09
3.17287e-07
-1.03771e-09
3.17244e-07
-1.00181e-09
3.17204e-07
-9.65793e-10
3.17168e-07
-9.306e-10
3.17135e-07
-8.96687e-10
3.17104e-07
-8.64231e-10
3.17074e-07
-8.33213e-10
3.17044e-07
-8.03516e-10
-7.74982e-10
3.17015e-07
2.66334e-07
-9.80623e-10
2.66273e-07
-1.02962e-09
2.66199e-07
-1.0463e-09
2.66121e-07
-1.04127e-09
2.66044e-07
-1.02307e-09
2.6597e-07
-9.9724e-10
2.65899e-07
-9.67327e-10
2.65833e-07
-9.35684e-10
2.65771e-07
-9.03584e-10
2.65712e-07
-8.71806e-10
2.65656e-07
-8.40689e-10
2.65602e-07
-8.10334e-10
2.6555e-07
-7.8069e-10
2.65498e-07
-7.51589e-10
-7.22856e-10
2.65446e-07
2.19671e-07
-9.07182e-10
2.1958e-07
-9.38312e-10
2.19481e-07
-9.46885e-10
2.1938e-07
-9.40214e-10
2.1928e-07
-9.23966e-10
2.19185e-07
-9.01936e-10
2.19094e-07
-8.76574e-10
2.19008e-07
-8.49432e-10
2.18926e-07
-8.21468e-10
2.18847e-07
-7.93199e-10
2.18772e-07
-7.64924e-10
2.18698e-07
-7.3672e-10
2.18626e-07
-7.08524e-10
2.18555e-07
-6.80263e-10
-6.51836e-10
2.18484e-07
1.78667e-07
-8.02258e-10
1.78551e-07
-8.22624e-10
1.78431e-07
-8.27096e-10
1.78312e-07
-8.20797e-10
1.78196e-07
-8.07578e-10
1.78084e-07
-7.8991e-10
1.77976e-07
-7.69383e-10
1.77874e-07
-7.47003e-10
1.77776e-07
-7.23423e-10
1.77682e-07
-6.99048e-10
1.77591e-07
-6.74106e-10
1.77503e-07
-6.48688e-10
1.77417e-07
-6.22792e-10
1.77333e-07
-5.96379e-10
-5.69386e-10
1.77251e-07
1.43528e-07
-6.77793e-10
1.43398e-07
-6.92897e-10
1.43268e-07
-6.96681e-10
1.4314e-07
-6.92693e-10
1.43015e-07
-6.83449e-10
1.42896e-07
-6.70556e-10
1.42782e-07
-6.5506e-10
1.42672e-07
-6.37651e-10
1.42568e-07
-6.18796e-10
1.42468e-07
-5.98801e-10
1.42371e-07
-5.7786e-10
1.42279e-07
-5.56045e-10
1.42189e-07
-5.3339e-10
1.42103e-07
-5.09872e-10
-4.85473e-10
1.42019e-07
1.14009e-07
-5.5013e-10
1.1388e-07
-5.63407e-10
1.13751e-07
-5.68386e-10
1.13626e-07
-5.6763e-10
1.13505e-07
-5.6273e-10
1.1339e-07
-5.54701e-10
1.13279e-07
-5.44232e-10
1.13173e-07
-5.31808e-10
1.13072e-07
-5.17777e-10
1.12975e-07
-5.02384e-10
1.12883e-07
-4.85779e-10
1.12795e-07
-4.68046e-10
1.12711e-07
-4.49214e-10
1.12631e-07
-4.29299e-10
-4.08298e-10
1.12553e-07
8.96275e-08
-4.32588e-10
8.95096e-08
-4.45527e-10
8.93935e-08
-4.52308e-10
8.92807e-08
-4.54795e-10
8.91718e-08
-4.53901e-10
8.90674e-08
-4.50236e-10
8.89674e-08
-4.44273e-10
8.8872e-08
-4.36373e-10
8.8781e-08
-4.26804e-10
8.86944e-08
-4.15766e-10
8.8612e-08
-4.03383e-10
8.85337e-08
-3.89735e-10
8.84593e-08
-3.7485e-10
8.83888e-08
-3.5876e-10
-3.41477e-10
8.8322e-08
6.97719e-08
-3.32167e-10
6.96713e-08
-3.44981e-10
6.95723e-08
-3.53249e-10
6.94758e-08
-3.58262e-10
6.93823e-08
-3.60454e-10
6.92923e-08
-3.60199e-10
6.92058e-08
-3.57835e-10
6.91231e-08
-3.53633e-10
6.90441e-08
-3.47806e-10
6.89688e-08
-3.40512e-10
6.88973e-08
-3.31859e-10
6.88295e-08
-3.21905e-10
6.87653e-08
-3.10677e-10
6.87048e-08
-2.98207e-10
-2.84521e-10
6.86478e-08
5.37849e-08
-2.50234e-10
5.37024e-08
-2.6248e-10
5.36206e-08
-2.71462e-10
5.35403e-08
-2.77964e-10
5.3462e-08
-2.82114e-10
5.3386e-08
-2.84156e-10
5.33125e-08
-2.84338e-10
5.32417e-08
-2.82859e-10
5.31738e-08
-2.79885e-10
5.31088e-08
-2.75542e-10
5.30469e-08
-2.6991e-10
5.2988e-08
-2.63031e-10
5.29322e-08
-2.54922e-10
5.28796e-08
-2.45614e-10
-2.35138e-10
5.28303e-08
4.10285e-08
-1.84977e-10
4.09621e-08
-1.96078e-10
4.08956e-08
-2.04947e-10
4.08296e-08
-2.11915e-10
4.07644e-08
-2.16963e-10
4.07005e-08
-2.20264e-10
4.06382e-08
-2.21992e-10
4.05776e-08
-2.22293e-10
4.0519e-08
-2.21292e-10
4.04626e-08
-2.19083e-10
4.04084e-08
-2.15721e-10
4.03566e-08
-2.11231e-10
4.03073e-08
-2.05624e-10
4.02606e-08
-1.98924e-10
-1.91162e-10
4.02166e-08
3.09254e-08
-1.33628e-10
3.08725e-08
-1.43149e-10
3.08188e-08
-1.51223e-10
3.07647e-08
-1.57839e-10
3.07107e-08
-1.62942e-10
3.06571e-08
-1.66659e-10
3.06042e-08
-1.69108e-10
3.05523e-08
-1.70391e-10
3.05016e-08
-1.70601e-10
3.04523e-08
-1.698e-10
3.04046e-08
-1.68024e-10
3.03587e-08
-1.65284e-10
3.03146e-08
-1.61585e-10
3.02727e-08
-1.56946e-10
-1.51394e-10
3.02329e-08
2.29769e-08
-9.36141e-11
2.29351e-08
-1.01339e-10
2.28921e-08
-1.08163e-10
2.28481e-08
-1.13878e-10
2.28036e-08
-1.18457e-10
2.27589e-08
-1.21989e-10
2.27144e-08
-1.24552e-10
2.26702e-08
-1.26213e-10
2.26266e-08
-1.27035e-10
2.25839e-08
-1.27059e-10
2.25422e-08
-1.26304e-10
2.25017e-08
-1.24771e-10
2.24625e-08
-1.22465e-10
2.2425e-08
-1.19394e-10
-1.15581e-10
2.23892e-08
1.67642e-08
-6.28883e-11
1.67316e-08
-6.87987e-11
1.66976e-08
-7.41475e-11
1.66624e-08
-7.86779e-11
1.66264e-08
-8.24036e-11
1.65898e-08
-8.53857e-11
1.65529e-08
-8.76688e-11
1.6516e-08
-8.92958e-11
1.64792e-08
-9.03054e-11
1.64429e-08
-9.07216e-11
1.64071e-08
-9.05547e-11
1.63722e-08
-8.98014e-11
1.63382e-08
-8.84616e-11
1.63053e-08
-8.65396e-11
-8.40487e-11
1.62738e-08
1.19415e-08
-3.98604e-11
1.19168e-08
-4.40842e-11
1.18906e-08
-4.79369e-11
1.18631e-08
-5.12188e-11
1.18347e-08
-5.39732e-11
1.18055e-08
-5.62361e-11
1.17759e-08
-5.80307e-11
1.1746e-08
-5.93811e-11
1.1716e-08
-6.03093e-11
1.16861e-08
-6.08281e-11
1.16565e-08
-6.09422e-11
1.16273e-08
-6.06464e-11
1.15988e-08
-5.99395e-11
1.15711e-08
-5.88206e-11
-5.72955e-11
1.15443e-08
8.22635e-09
-2.3235e-11
8.20827e-09
-2.59992e-11
8.18883e-09
-2.84959e-11
8.16824e-09
-3.06301e-11
8.14672e-09
-3.24519e-11
8.12446e-09
-3.39792e-11
8.10165e-09
-3.52216e-11
8.07846e-09
-3.61906e-11
8.05505e-09
-3.68974e-11
8.03157e-09
-3.73478e-11
8.00817e-09
-3.75434e-11
7.985e-09
-3.74796e-11
7.96222e-09
-3.71549e-11
7.93996e-09
-3.65653e-11
-3.57102e-11
7.91838e-09
5.38959e-09
-1.18902e-11
5.37707e-09
-1.34831e-11
5.36345e-09
-1.48748e-11
5.34889e-09
-1.60685e-11
5.33354e-09
-1.71035e-11
5.31755e-09
-1.79859e-11
5.30104e-09
-1.87183e-11
5.28416e-09
-1.93045e-11
5.26701e-09
-1.97491e-11
5.24971e-09
-2.00542e-11
5.23239e-09
-2.02203e-11
5.21516e-09
-2.02438e-11
5.19812e-09
-2.01237e-11
5.18141e-09
-1.98556e-11
-1.94342e-11
5.16514e-09
3.2461e-09
-4.82084e-12
3.23817e-09
-5.56137e-12
3.22946e-09
-6.16026e-12
3.22007e-09
-6.67781e-12
3.2101e-09
-7.13428e-12
3.19964e-09
-7.52984e-12
3.18879e-09
-7.8638e-12
3.17762e-09
-8.13649e-12
3.16622e-09
-8.34909e-12
3.15467e-09
-8.50196e-12
3.14304e-09
-8.59516e-12
3.13143e-09
-8.62673e-12
3.1199e-09
-8.59622e-12
3.10854e-09
-8.50053e-12
-8.33263e-12
3.09744e-09
1.64706e-09
-1.12469e-12
1.64283e-09
-1.33824e-12
1.63815e-09
-1.47619e-12
1.63307e-09
-1.59926e-12
1.62765e-09
-1.71131e-12
1.62193e-09
-1.81062e-12
1.61596e-09
-1.89598e-12
1.60979e-09
-1.96673e-12
1.60346e-09
-2.02281e-12
1.59703e-09
-2.06409e-12
1.59052e-09
-2.09064e-12
1.584e-09
-2.10188e-12
1.5775e-09
-2.09771e-12
1.57107e-09
-2.07694e-12
-2.03454e-12
1.56478e-09
4.73259e-10
4.7192e-10
4.70444e-10
4.68845e-10
4.67134e-10
4.65323e-10
4.63427e-10
4.6146e-10
4.59438e-10
4.57373e-10
4.55283e-10
4.53181e-10
4.51083e-10
4.49006e-10
4.46972e-10
1.23262e-09
-4.88491e-10
2.84887e-10
1.52538e-09
-4.04643e-10
1.11881e-10
1.82172e-09
-2.53983e-10
-4.23501e-11
2.11476e-09
-1.0279e-10
-1.90253e-10
2.40223e-09
4.208e-11
-3.29553e-10
2.68459e-09
1.70972e-10
-4.53326e-10
2.96285e-09
2.80288e-10
-5.58548e-10
3.23781e-09
3.66421e-10
-6.41382e-10
3.5101e-09
4.25471e-10
-6.97764e-10
3.78019e-09
4.5336e-10
-7.23453e-10
4.04841e-09
4.45745e-10
-7.13964e-10
4.31494e-09
3.9817e-10
-6.64694e-10
4.57981e-09
3.06288e-10
-5.71162e-10
4.84299e-09
1.67025e-10
-4.30198e-10
5.10443e-09
-1.97417e-11
-2.41701e-10
5.36448e-09
-2.47532e-10
-1.25213e-11
5.62432e-09
-4.99183e-10
2.39343e-10
5.88683e-09
-7.39522e-10
4.77013e-10
6.15739e-09
-9.13438e-10
6.4288e-10
6.44468e-09
-9.40356e-10
6.53066e-10
6.75969e-09
-7.40085e-10
4.25073e-10
7.11144e-09
-2.54134e-10
-9.76209e-11
7.44477e-09
3.43164e-10
-6.76484e-10
7.72928e-09
6.7265e-10
-9.5717e-10
7.95866e-09
7.30148e-10
-9.59525e-10
8.13162e-09
5.84428e-10
-7.57383e-10
8.24996e-09
3.02389e-10
-4.20731e-10
8.31611e-09
-6.20463e-11
-4.10519e-12
8.33181e-09
-4.67403e-10
4.51707e-10
8.29807e-09
-8.78115e-10
9.11851e-10
8.21581e-09
-1.26066e-09
1.34293e-09
8.08628e-09
-1.5823e-09
1.71183e-09
7.91138e-09
-1.81389e-09
1.98879e-09
7.69385e-09
-1.9335e-09
2.15102e-09
7.43702e-09
-1.92661e-09
2.18345e-09
7.14434e-09
-1.78612e-09
2.0788e-09
6.81911e-09
-1.5107e-09
1.83594e-09
6.46434e-09
-1.10167e-09
1.45643e-09
6.08313e-09
-5.58768e-10
9.3998e-10
5.67821e-09
1.23015e-10
2.81908e-10
5.24913e-09
9.47808e-10
-5.18733e-10
4.78526e-09
1.89323e-09
-1.42936e-09
4.26428e-09
2.84199e-09
-2.32101e-09
3.68791e-09
3.51383e-09
-2.93747e-09
3.16331e-09
3.34291e-09
-2.8183e-09
2.57447e-09
-5.69877e-10
2.75056e-09
-5.80738e-10
2.9901e-09
-4.93522e-10
3.25828e-09
-3.70966e-10
3.54033e-09
-2.39974e-10
3.82833e-09
-1.17024e-10
4.1187e-09
-1.00848e-11
4.40976e-09
7.53637e-11
4.70067e-09
1.34558e-10
4.99101e-09
1.63019e-10
5.2805e-09
1.5626e-10
5.56886e-09
1.09811e-10
5.85577e-09
1.93759e-11
6.14085e-09
-1.18057e-10
6.42376e-09
-3.02652e-10
6.70452e-09
-5.28289e-10
6.98402e-09
-7.78682e-10
7.26496e-09
-1.02046e-09
7.55271e-09
-1.20119e-09
7.8563e-09
-1.24395e-09
8.18757e-09
-1.07135e-09
8.55691e-09
-6.23472e-10
8.90813e-09
-8.0543e-12
9.21e-09
3.70771e-10
9.45556e-09
4.84591e-10
9.64276e-09
3.97232e-10
9.77282e-09
1.72326e-10
9.84776e-09
-1.36982e-10
9.86909e-09
-4.88739e-10
9.83777e-09
-8.46789e-10
9.75487e-09
-1.17777e-09
9.62208e-09
-1.44951e-09
9.44189e-09
-1.6337e-09
9.21797e-09
-1.70957e-09
8.9549e-09
-1.66355e-09
8.65795e-09
-1.48917e-09
8.3329e-09
-1.18565e-09
7.98648e-09
-7.5525e-10
7.62772e-09
-2.00004e-10
7.26989e-09
4.8084e-10
6.93225e-09
1.28545e-09
6.63951e-09
2.18597e-09
6.42176e-09
3.05974e-09
6.32123e-09
3.61436e-09
3.25258e-09
6.23195e-09
4.49352e-09
-5.87232e-10
4.5739e-09
-6.61115e-10
4.72956e-09
-6.49188e-10
4.9418e-09
-5.832e-10
5.1899e-09
-4.88075e-10
5.46031e-09
-3.87434e-10
5.74446e-09
-2.9423e-10
6.03714e-09
-2.17324e-10
6.33514e-09
-1.63442e-10
6.6364e-09
-1.38233e-10
6.93946e-09
-1.46801e-10
7.24319e-09
-1.93917e-10
7.54658e-09
-2.84016e-10
7.84866e-09
-4.20136e-10
8.14855e-09
-6.02542e-10
8.44576e-09
-8.25501e-10
8.74071e-09
-1.07363e-09
9.03572e-09
-1.31547e-09
9.33595e-09
-1.50142e-09
9.65058e-09
-1.55858e-09
9.99217e-09
-1.41294e-09
1.03725e-08
-1.00382e-09
1.07358e-08
-3.71296e-10
1.10504e-08
5.6101e-11
1.13089e-08
2.26146e-10
1.15081e-08
1.97998e-10
1.16486e-08
3.18745e-11
1.17317e-08
-2.20078e-10
1.17586e-08
-5.1566e-10
1.17301e-08
-8.18335e-10
1.16476e-08
-1.09525e-09
1.15132e-08
-1.31512e-09
1.13302e-08
-1.45069e-09
1.11034e-08
-1.48273e-09
1.08389e-08
-1.39906e-09
1.05442e-08
-1.19445e-09
1.0228e-08
-8.69539e-10
9.90162e-09
-4.28817e-10
9.58031e-09
1.21298e-10
9.28748e-09
7.7367e-10
9.05825e-09
1.51469e-09
8.93834e-09
2.30588e-09
8.96568e-09
3.0324e-09
9.12171e-09
3.45833e-09
3.1857e-09
9.1886e-09
7.11812e-09
-5.69471e-10
7.13484e-09
-6.77835e-10
7.2084e-09
-7.22748e-10
7.34495e-09
-7.19755e-10
7.53413e-09
-6.77253e-10
7.76144e-09
-6.14744e-10
8.01606e-09
-5.48854e-10
8.2901e-09
-4.91365e-10
8.5778e-09
-4.51134e-10
8.87505e-09
-4.35486e-10
9.17881e-09
-4.50564e-10
9.48666e-09
-5.01763e-10
9.79655e-09
-5.93907e-10
1.01066e-08
-7.30202e-10
1.04152e-08
-9.11107e-10
1.0721e-08
-1.13132e-09
1.10238e-08
-1.37641e-09
1.13252e-08
-1.61692e-09
1.163e-08
-1.80623e-09
1.19473e-08
-1.87583e-09
1.22901e-08
-1.75571e-09
1.26715e-08
-1.38523e-09
1.30378e-08
-7.3758e-10
1.3358e-08
-2.64108e-10
1.36237e-08
-3.96233e-11
1.38309e-08
-9.20468e-12
1.3979e-08
-1.16147e-10
1.40684e-08
-3.09558e-10
1.41001e-08
-5.47293e-10
1.40744e-08
-7.92695e-10
1.39931e-08
-1.01389e-09
1.38588e-08
-1.18089e-09
1.36758e-08
-1.26766e-09
1.34501e-08
-1.25706e-09
1.31898e-08
-1.13875e-09
1.29047e-08
-9.09365e-10
1.2607e-08
-5.71761e-10
1.23118e-08
-1.33697e-10
1.20401e-08
3.93041e-10
1.18215e-08
9.9231e-10
1.16969e-08
1.6392e-09
1.1714e-08
2.28887e-09
1.18984e-08
2.84795e-09
1.22008e-08
3.15591e-09
3.00242e-09
1.23841e-08
1.06187e-08
-5.38255e-10
1.05975e-08
-6.56674e-10
1.06111e-08
-7.36377e-10
1.06716e-08
-7.80189e-10
1.07874e-08
-7.93042e-10
1.0951e-08
-7.78413e-10
1.11529e-08
-7.50709e-10
1.13851e-08
-7.23578e-10
1.16406e-08
-7.06633e-10
1.19137e-08
-7.08634e-10
1.21999e-08
-7.36732e-10
1.24952e-08
-7.97079e-10
1.27964e-08
-8.95078e-10
1.31004e-08
-1.03421e-09
1.34045e-08
-1.21523e-09
1.37065e-08
-1.43331e-09
1.40051e-08
-1.67501e-09
1.43012e-08
-1.91296e-09
1.45986e-08
-2.10363e-09
1.4906e-08
-2.18326e-09
1.52367e-08
-2.08645e-09
1.5605e-08
-1.75351e-09
1.59614e-08
-1.09397e-09
1.62764e-08
-5.79098e-10
1.65409e-08
-3.04105e-10
1.67494e-08
-2.17703e-10
1.69e-08
-2.66758e-10
1.69923e-08
-4.01909e-10
1.70265e-08
-5.81452e-10
1.70027e-08
-7.68892e-10
1.69227e-08
-9.33926e-10
1.67902e-08
-1.04835e-09
1.66101e-08
-1.08755e-09
1.639e-08
-1.03697e-09
1.61398e-08
-8.88609e-10
1.5872e-08
-6.41493e-10
1.56014e-08
-3.01202e-10
1.53469e-08
1.2084e-10
1.5132e-08
6.07895e-10
1.49876e-08
1.13675e-09
1.49508e-08
1.67603e-09
1.50579e-08
2.18174e-09
1.53187e-08
2.58711e-09
1.56753e-08
2.79932e-09
2.72621e-09
1.59515e-08
1.51934e-08
-5.06995e-10
1.51554e-08
-6.18636e-10
1.51339e-08
-7.14892e-10
1.51404e-08
-7.8667e-10
1.5186e-08
-8.387e-10
1.52772e-08
-8.69541e-10
1.54112e-08
-8.84753e-10
1.55819e-08
-8.94297e-10
1.57834e-08
-9.08139e-10
1.60102e-08
-9.35402e-10
1.62569e-08
-9.83395e-10
1.65185e-08
-1.05874e-09
1.67908e-08
-1.16736e-09
1.70696e-08
-1.31294e-09
1.73509e-08
-1.49656e-09
1.76314e-08
-1.71383e-09
1.79087e-08
-1.95231e-09
1.81825e-08
-2.18676e-09
1.84557e-08
-2.37679e-09
1.8736e-08
-2.46364e-09
1.90368e-08
-2.3872e-09
1.93728e-08
-2.08957e-09
1.97018e-08
-1.42291e-09
1.99966e-08
-8.73951e-10
2.02475e-08
-5.54952e-10
2.04473e-08
-4.1753e-10
2.05927e-08
-4.12118e-10
2.0682e-08
-4.91202e-10
2.07145e-08
-6.13994e-10
2.069e-08
-7.44444e-10
2.06106e-08
-8.54468e-10
2.04806e-08
-9.18354e-10
2.03059e-08
-9.12825e-10
2.00955e-08
-8.26596e-10
1.98612e-08
-6.54337e-10
1.96175e-08
-3.97716e-10
1.93814e-08
-6.51552e-11
1.91733e-08
3.28905e-10
1.90172e-08
7.64079e-10
1.89397e-08
1.2142e-09
1.89684e-08
1.64729e-09
1.91241e-08
2.02611e-09
1.94035e-08
2.30774e-09
1.97562e-08
2.44659e-09
2.40967e-09
2.00727e-08
2.1074e-08
-4.8218e-10
2.10363e-08
-5.80931e-10
2.09988e-08
-6.77381e-10
2.09757e-08
-7.63585e-10
2.09745e-08
-8.37443e-10
2.10044e-08
-8.9945e-10
2.1069e-08
-9.49412e-10
2.11705e-08
-9.95711e-10
2.13039e-08
-1.04159e-09
2.14664e-08
-1.09791e-09
2.16532e-08
-1.17019e-09
2.18595e-08
-1.26506e-09
2.20807e-08
-1.3885e-09
2.23117e-08
-1.54399e-09
2.2548e-08
-1.73283e-09
2.2785e-08
-1.95084e-09
2.30192e-08
-2.1865e-09
2.32491e-08
-2.4167e-09
2.34764e-08
-2.60403e-09
2.37077e-08
-2.69497e-09
2.39557e-08
-2.63516e-09
2.42354e-08
-2.36931e-09
2.45146e-08
-1.7021e-09
2.47699e-08
-1.1293e-09
2.49906e-08
-7.75655e-10
2.5168e-08
-5.94888e-10
2.52968e-08
-5.40912e-10
2.5374e-08
-5.68406e-10
2.53981e-08
-6.38103e-10
2.53683e-08
-7.1468e-10
2.52869e-08
-7.73024e-10
2.51588e-08
-7.90289e-10
2.49908e-08
-7.44807e-10
2.47932e-08
-6.29029e-10
2.45793e-08
-4.40374e-10
2.43647e-08
-1.83122e-10
2.41675e-08
1.32004e-10
2.40078e-08
4.88644e-10
2.39066e-08
8.65225e-10
2.38844e-08
1.23648e-09
2.39571e-08
1.57454e-09
2.41316e-08
1.85159e-09
2.43968e-08
2.04261e-09
2.47145e-08
2.12888e-09
2.10384e-09
2.50203e-08
2.85314e-08
-4.65028e-10
2.85015e-08
-5.51046e-10
2.84649e-08
-6.40765e-10
2.84302e-08
-7.2896e-10
2.84053e-08
-8.12538e-10
2.83972e-08
-8.91341e-10
2.84109e-08
-9.63106e-10
2.84508e-08
-1.03556e-09
2.85172e-08
-1.10808e-09
2.86103e-08
-1.19093e-09
2.87262e-08
-1.28616e-09
2.88622e-08
-1.40104e-09
2.90141e-08
-1.54042e-09
2.91772e-08
-1.70702e-09
2.93465e-08
-1.90215e-09
2.9517e-08
-2.12137e-09
2.96845e-08
-2.35393e-09
2.98464e-08
-2.57865e-09
3.00031e-08
-2.76073e-09
3.01601e-08
-2.85198e-09
3.03291e-08
-2.80414e-09
3.05248e-08
-2.56504e-09
3.07283e-08
-1.90555e-09
3.0921e-08
-1.32198e-09
3.10912e-08
-9.45885e-10
3.12285e-08
-7.32221e-10
3.13258e-08
-6.38208e-10
3.13784e-08
-6.21012e-10
3.13839e-08
-6.43619e-10
3.13416e-08
-6.72365e-10
3.12542e-08
-6.85577e-10
3.11249e-08
-6.61009e-10
3.09628e-08
-5.82731e-10
3.07791e-08
-4.45321e-10
3.05876e-08
-2.48833e-10
3.04043e-08
1.32415e-13
3.02466e-08
2.89726e-10
3.01324e-08
6.02836e-10
3.00782e-08
9.19424e-10
3.0097e-08
1.21772e-09
3.01953e-08
1.47625e-09
3.03704e-08
1.67644e-09
3.06078e-08
1.80518e-09
3.08797e-08
1.85701e-09
1.83542e-09
3.11481e-08
3.78743e-08
-4.54322e-10
3.78533e-08
-5.29995e-10
3.78241e-08
-6.11612e-10
3.77913e-08
-6.96131e-10
3.77599e-08
-7.81186e-10
3.77345e-08
-8.65932e-10
3.7721e-08
-9.49579e-10
3.77216e-08
-1.03614e-09
3.77382e-08
-1.12475e-09
3.77716e-08
-1.2243e-09
3.78219e-08
-1.33641e-09
3.78873e-08
-1.46652e-09
3.79644e-08
-1.61751e-09
3.80492e-08
-1.79184e-09
3.81378e-08
-1.99071e-09
3.8225e-08
-2.20854e-09
3.83063e-08
-2.43523e-09
3.83791e-08
-2.65144e-09
3.84425e-08
-2.82419e-09
3.85012e-08
-2.91064e-09
3.85656e-08
-2.86859e-09
3.86499e-08
-2.64927e-09
3.87511e-08
-2.00679e-09
3.88567e-08
-1.42756e-09
3.89542e-08
-1.04337e-09
3.90314e-08
-8.09459e-10
3.90795e-08
-6.86316e-10
3.90913e-08
-6.32782e-10
3.90663e-08
-6.18629e-10
3.90033e-08
-6.09393e-10
3.89012e-08
-5.83469e-10
3.87654e-08
-5.25153e-10
3.8606e-08
-4.23327e-10
3.84343e-08
-2.73708e-10
3.82642e-08
-7.86479e-11
3.81103e-08
1.53987e-10
3.79883e-08
4.11689e-10
3.79125e-08
6.78715e-10
3.78939e-08
9.3802e-10
3.7939e-08
1.17261e-09
3.80477e-08
1.36749e-09
3.82126e-08
1.51153e-09
3.8419e-08
1.59885e-09
3.86462e-08
1.62976e-09
1.61033e-09
3.88713e-08
4.94408e-08
-4.49576e-10
4.94281e-08
-5.17262e-10
4.9408e-08
-5.91513e-10
4.93826e-08
-6.70735e-10
4.93548e-08
-7.53378e-10
4.93275e-08
-8.38651e-10
4.93042e-08
-9.26306e-10
4.92861e-08
-1.01799e-09
4.92763e-08
-1.11493e-09
4.92736e-08
-1.22167e-09
4.92782e-08
-1.34095e-09
4.9288e-08
-1.47634e-09
4.93009e-08
-1.63037e-09
4.93146e-08
-1.8056e-09
4.93248e-08
-2.00088e-09
4.93265e-08
-2.21019e-09
4.93158e-08
-2.42456e-09
4.92897e-08
-2.62532e-09
4.92475e-08
-2.782e-09
4.91929e-08
-2.85604e-09
4.91354e-08
-2.81113e-09
4.90883e-08
-2.60211e-09
4.90668e-08
-1.98531e-09
4.90648e-08
-1.42552e-09
4.90696e-08
-1.04819e-09
4.90654e-08
-8.05309e-10
4.90457e-08
-6.66629e-10
4.90073e-08
-5.94344e-10
4.89386e-08
-5.49965e-10
4.88391e-08
-5.09894e-10
4.87124e-08
-4.5674e-10
4.85637e-08
-3.76451e-10
4.84016e-08
-2.61264e-10
4.82375e-08
-1.09535e-10
4.80839e-08
7.48974e-11
4.79537e-08
2.84239e-10
4.78595e-08
5.059e-10
4.78111e-08
7.27075e-10
4.78148e-08
9.34285e-10
4.78721e-08
1.11532e-09
4.79791e-08
1.26054e-09
4.81267e-08
1.36395e-09
4.83018e-08
1.42372e-09
4.84893e-08
1.44224e-09
1.42528e-09
4.86744e-08
6.35893e-08
-4.52714e-10
6.35863e-08
-5.14198e-10
6.35769e-08
-5.82196e-10
6.35622e-08
-6.56e-10
6.35436e-08
-7.34747e-10
6.35228e-08
-8.17866e-10
6.35017e-08
-9.05199e-10
6.34812e-08
-9.97554e-10
6.34626e-08
-1.09628e-09
6.34447e-08
-1.20376e-09
6.34264e-08
-1.32266e-09
6.34055e-08
-1.45547e-09
6.33794e-08
-1.60425e-09
6.33439e-08
-1.77013e-09
6.32949e-08
-1.95185e-09
6.3228e-08
-2.14329e-09
6.31389e-08
-2.33548e-09
6.30238e-08
-2.51015e-09
6.28829e-08
-2.64115e-09
6.27189e-08
-2.69209e-09
6.25404e-08
-2.63254e-09
6.23596e-08
-2.4214e-09
6.22102e-08
-1.83584e-09
6.20921e-08
-1.30748e-09
6.19932e-08
-9.49259e-10
6.19016e-08
-7.13737e-10
6.18049e-08
-5.69866e-10
6.16946e-08
-4.84108e-10
6.15685e-08
-4.2388e-10
6.14256e-08
-3.66928e-10
6.12669e-08
-2.98066e-10
6.10979e-08
-2.07405e-10
6.09265e-08
-8.99323e-11
6.07637e-08
5.33105e-11
6.06188e-08
2.19724e-10
6.05036e-08
3.99499e-10
6.04262e-08
5.83256e-10
6.03927e-08
7.60646e-10
6.04051e-08
9.21847e-10
6.04618e-08
1.05866e-09
6.0557e-08
1.16532e-09
6.06819e-08
1.239e-09
6.08258e-08
1.27981e-09
6.09775e-08
1.29054e-09
1.27592e-09
6.11269e-08
8.07092e-08
-4.67655e-10
8.07193e-08
-5.24272e-10
8.07241e-08
-5.8705e-10
8.07239e-08
-6.55785e-10
8.07193e-08
-7.30104e-10
8.07111e-08
-8.09676e-10
8.07003e-08
-8.94416e-10
8.06875e-08
-9.84705e-10
8.06726e-08
-1.08141e-09
8.06547e-08
-1.18586e-09
8.06319e-08
-1.29987e-09
8.06013e-08
-1.42492e-09
8.05594e-08
-1.56234e-09
8.05013e-08
-1.71201e-09
8.04217e-08
-1.87228e-09
8.03154e-08
-2.03698e-09
8.01772e-08
-2.19724e-09
8.00027e-08
-2.33566e-09
7.97913e-08
-2.42979e-09
7.95453e-08
-2.44603e-09
7.92712e-08
-2.35843e-09
7.89807e-08
-2.13096e-09
7.87219e-08
-1.57694e-09
7.85001e-08
-1.08577e-09
7.83049e-08
-7.54026e-10
7.81261e-08
-5.34931e-10
7.79512e-08
-3.94961e-10
7.77725e-08
-3.05356e-10
7.75881e-08
-2.39518e-10
7.73973e-08
-1.7614e-10
7.72025e-08
-1.03295e-10
7.70093e-08
-1.4148e-11
7.68247e-08
9.46678e-11
7.66563e-08
2.21724e-10
7.65137e-08
3.62256e-10
7.64042e-08
5.09069e-10
7.63327e-08
6.54675e-10
7.63019e-08
7.91465e-10
7.63111e-08
9.12649e-10
7.63568e-08
1.01301e-09
7.64328e-08
1.08932e-09
7.65313e-08
1.14048e-09
7.66438e-08
1.16734e-09
7.67619e-08
1.17241e-09
1.15927e-09
7.68785e-08
1.01264e-07
-4.97814e-10
1.01291e-07
-5.50569e-10
1.01313e-07
-6.08989e-10
1.0133e-07
-6.73127e-10
1.01343e-07
-7.429e-10
1.01351e-07
-8.18175e-10
1.01356e-07
-8.98914e-10
1.01356e-07
-9.85237e-10
1.01353e-07
-1.07758e-09
1.01343e-07
-1.17651e-09
1.01326e-07
-1.28295e-09
1.01299e-07
-1.39737e-09
1.01257e-07
-1.52017e-09
1.01195e-07
-1.65008e-09
1.01107e-07
-1.78484e-09
1.00988e-07
-1.91793e-09
1.00832e-07
-2.04065e-09
1.00633e-07
-2.13669e-09
1.00389e-07
-2.1863e-09
1.00103e-07
-2.15969e-09
9.97779e-08
-2.0336e-09
9.94246e-08
-1.77763e-09
9.90985e-08
-1.25094e-09
9.88091e-08
-7.96333e-10
9.85461e-08
-4.91018e-10