/*--------------------------------*- C++ -*----------------------------------*\
| =========                 |                                                 |
| \\      /  F ield         | OpenFOAM: The Open Source CFD Toolbox           |
|  \\    /   O peration     | Version:  2312                                  |
|   \\  /    A nd           | Website:  www.openfoam.com                      |
|    \\/     M anipulation  |                                                 |
\*---------------------------------------------------------------------------*/
FoamFile
{
    version     2.0;
    format      ascii;
    arch        "LSB;label=32;scalar=64";
    class       volScalarField;
    location    "160.75";
    object      p;
}
// * * * * * * * * * * * * * * * * * * * * * * * * * * * * * * * * * * * * * //

dimensions      [0 2 -2 0 0 0 0];

internalField   nonuniform List<scalar> 
4800
(
-8.48165e-12
-1.06298e-06
-1.91744e-06
-2.62827e-06
-3.22875e-06
-3.75741e-06
-4.22245e-06
-4.63445e-06
-5.00552e-06
-5.343e-06
-5.65169e-06
-5.93191e-06
-6.17603e-06
-6.62224e-06
-8.21495e-06
1.26545e-08
-1.04987e-06
-1.90422e-06
-2.6154e-06
-3.21678e-06
-3.74704e-06
-4.21447e-06
-4.62986e-06
-5.00618e-06
-5.35267e-06
-5.67882e-06
-5.99814e-06
-6.32285e-06
-6.75917e-06
-7.54546e-06
2.57542e-08
-1.03611e-06
-1.89034e-06
-2.60205e-06
-3.20355e-06
-3.73467e-06
-4.20404e-06
-4.62213e-06
-5.00252e-06
-5.3553e-06
-5.69108e-06
-6.02385e-06
-6.35985e-06
-6.70467e-06
-7.03084e-06
3.87637e-08
-1.02187e-06
-1.87545e-06
-2.58719e-06
-3.18857e-06
-3.71945e-06
-4.18999e-06
-4.60932e-06
-4.99087e-06
-5.34422e-06
-5.67723e-06
-5.99522e-06
-6.28832e-06
-6.52328e-06
-6.62831e-06
5.297e-08
-1.00574e-06
-1.85806e-06
-2.56894e-06
-3.17049e-06
-3.69923e-06
-4.16949e-06
-4.588e-06
-4.96672e-06
-5.3134e-06
-5.63097e-06
-5.91518e-06
-6.14545e-06
-6.28202e-06
-6.2693e-06
6.98314e-08
-9.86243e-07
-1.83658e-06
-2.5456e-06
-3.14691e-06
-3.67172e-06
-4.13913e-06
-4.5536e-06
-4.92426e-06
-5.25596e-06
-5.54659e-06
-5.78568e-06
-5.95086e-06
-6.01176e-06
-5.94004e-06
9.17651e-08
-9.61047e-07
-1.80856e-06
-2.51454e-06
-3.11369e-06
-3.63377e-06
-4.09474e-06
-4.50045e-06
-4.85682e-06
-5.1654e-06
-5.42071e-06
-5.61078e-06
-5.71831e-06
-5.72737e-06
-5.63054e-06
1.2303e-07
-9.26136e-07
-1.76995e-06
-2.47159e-06
-3.06593e-06
-3.57975e-06
-4.03031e-06
-4.42184e-06
-4.75757e-06
-5.03661e-06
-5.25275e-06
-5.39661e-06
-5.45884e-06
-5.4359e-06
-5.33194e-06
1.70289e-07
-8.75254e-07
-1.71456e-06
-2.41042e-06
-2.99755e-06
-3.50189e-06
-3.93788e-06
-4.3101e-06
-4.62003e-06
-4.86611e-06
-5.0439e-06
-5.14884e-06
-5.17905e-06
-5.13899e-06
-5.03755e-06
2.427e-07
-7.99649e-07
-1.63377e-06
-2.32232e-06
-2.90103e-06
-3.39116e-06
-3.80859e-06
-4.15734e-06
-4.43854e-06
-4.65172e-06
-4.79572e-06
-4.871e-06
-4.88112e-06
-4.83452e-06
-4.74112e-06
3.51404e-07
-6.88335e-07
-1.51663e-06
-2.19614e-06
-2.76258e-06
-3.23697e-06
-3.63302e-06
-3.95603e-06
-4.20838e-06
-4.39191e-06
-4.50898e-06
-4.56406e-06
-4.56382e-06
-4.51803e-06
-4.43593e-06
5.08952e-07
-5.28592e-07
-1.35035e-06
-2.01927e-06
-2.57147e-06
-3.02814e-06
-3.40178e-06
-3.69937e-06
-3.92562e-06
-4.08507e-06
-4.18308e-06
-4.22657e-06
-4.22358e-06
-4.18369e-06
-4.1149e-06
7.29632e-07
-3.05803e-07
-1.12024e-06
-1.77749e-06
-2.31458e-06
-2.75318e-06
-3.10573e-06
-3.38101e-06
-3.58633e-06
-3.72876e-06
-3.81561e-06
-3.85502e-06
-3.8552e-06
-3.82489e-06
-3.77077e-06
1.03057e-06
-2.49512e-09
-8.09008e-07
-1.45409e-06
-1.97725e-06
-2.39982e-06
-2.73501e-06
-2.99362e-06
-3.18509e-06
-3.31829e-06
-3.40164e-06
-3.44355e-06
-3.4518e-06
-3.43407e-06
-3.39595e-06
1.43217e-06
4.02551e-07
-3.96649e-07
-1.03064e-06
-1.54244e-06
-1.9534e-06
-2.27757e-06
-2.52718e-06
-2.71318e-06
-2.84542e-06
-2.93271e-06
-2.98322e-06
-3.00411e-06
-3.00206e-06
-2.98177e-06
1.95652e-06
9.33152e-07
1.39215e-07
-4.86707e-07
-9.92047e-07
-1.39781e-06
-1.71897e-06
-1.96866e-06
-2.15845e-06
-2.29837e-06
-2.3971e-06
-2.46238e-06
-2.50075e-06
-2.51808e-06
-2.51848e-06
2.62355e-06
1.61118e-06
8.2526e-07
1.9821e-07
-3.08407e-07
-7.17387e-07
-1.04489e-06
-1.30462e-06
-1.50807e-06
-1.66482e-06
-1.78301e-06
-1.86984e-06
-1.93133e-06
-1.97274e-06
-1.99786e-06
3.44573e-06
2.45013e-06
1.66771e-06
1.03572e-06
5.19927e-07
9.89787e-08
-2.44452e-07
-5.24529e-07
-7.52053e-07
-9.35592e-07
-1.08244e-06
-1.19911e-06
-1.29117e-06
-1.36335e-06
-1.41919e-06
4.42251e-06
3.45237e-06
2.6713e-06
2.02873e-06
1.49748e-06
1.05688e-06
6.88421e-07
3.78204e-07
1.1668e-07
-1.03425e-07
-2.88443e-07
-4.44184e-07
-5.75708e-07
-6.87323e-07
-7.82371e-07
5.52364e-06
4.58863e-06
3.81638e-06
3.16497e-06
2.61606e-06
2.14964e-06
1.74843e-06
1.40036e-06
1.09726e-06
8.32892e-07
6.01692e-07
3.98536e-07
2.18904e-07
5.89645e-08
-8.44862e-08
6.62867e-06
5.7326e-06
4.96877e-06
4.31114e-06
3.74156e-06
3.24311e-06
2.80215e-06
2.40926e-06
2.05778e-06
1.74228e-06
1.45785e-06
1.20009e-06
9.65168e-07
7.49824e-07
5.5123e-07
7.5765e-06
6.71418e-06
5.95775e-06
5.29542e-06
4.70822e-06
4.18104e-06
3.70421e-06
3.27106e-06
2.87598e-06
2.51401e-06
2.18077e-06
1.87255e-06
1.58618e-06
1.31896e-06
1.06845e-06
8.27102e-06
7.44755e-06
6.71087e-06
6.04949e-06
5.45022e-06
4.90256e-06
4.39946e-06
3.93551e-06
3.50583e-06
3.10606e-06
2.73249e-06
2.38209e-06
2.05222e-06
1.74068e-06
1.44541e-06
8.7752e-06
7.98957e-06
7.27275e-06
6.61557e-06
6.01008e-06
5.44941e-06
4.92795e-06
4.44095e-06
3.98425e-06
3.55429e-06
3.1481e-06
2.76321e-06
2.39751e-06
2.04921e-06
1.71668e-06
9.13246e-06
8.37881e-06
7.6801e-06
7.03004e-06
6.42356e-06
5.85567e-06
5.32176e-06
4.81785e-06
4.34061e-06
3.88727e-06
3.45546e-06
3.04324e-06
2.64891e-06
2.27109e-06
1.90849e-06
9.37613e-06
8.65063e-06
7.96968e-06
7.32903e-06
6.72505e-06
6.1539e-06
5.61194e-06
5.09608e-06
4.6037e-06
4.13269e-06
3.6812e-06
3.24773e-06
2.83097e-06
2.42988e-06
2.04347e-06
9.53767e-06
8.8375e-06
8.17368e-06
7.54325e-06
6.94356e-06
6.3717e-06
5.8249e-06
5.3008e-06
4.79745e-06
4.31321e-06
3.84671e-06
3.39683e-06
2.96261e-06
2.5433e-06
2.1382e-06
9.64215e-06
8.96467e-06
8.31669e-06
7.69634e-06
7.1018e-06
6.53084e-06
5.98139e-06
5.45172e-06
4.94039e-06
4.44623e-06
3.96825e-06
3.50567e-06
3.05783e-06
2.62425e-06
2.20447e-06
9.70814e-06
9.05069e-06
8.41701e-06
7.80623e-06
7.21709e-06
6.6479e-06
6.09716e-06
5.56369e-06
5.0465e-06
4.54478e-06
4.05789e-06
3.58535e-06
3.12676e-06
2.68188e-06
2.25046e-06
9.74891e-06
9.10896e-06
8.48805e-06
7.88607e-06
7.30213e-06
6.73502e-06
6.18378e-06
5.64763e-06
5.12598e-06
4.61835e-06
4.12439e-06
3.64387e-06
3.17663e-06
2.72265e-06
2.28184e-06
9.7736e-06
9.14889e-06
8.53925e-06
7.94514e-06
7.36596e-06
6.80095e-06
6.24957e-06
5.71144e-06
5.18626e-06
4.67384e-06
4.17409e-06
3.68701e-06
3.21265e-06
2.75116e-06
2.30263e-06
9.78831e-06
9.17689e-06
8.57712e-06
7.98992e-06
7.41494e-06
6.85186e-06
6.30049e-06
5.76076e-06
5.23264e-06
4.71621e-06
4.21159e-06
3.71898e-06
3.23861e-06
2.77079e-06
2.31576e-06
9.79706e-06
9.19725e-06
8.60605e-06
8.02482e-06
7.4535e-06
6.8921e-06
6.34075e-06
5.79963e-06
5.26897e-06
4.74906e-06
4.24021e-06
3.74283e-06
3.25727e-06
2.78401e-06
2.32338e-06
9.8025e-06
9.21277e-06
8.62897e-06
8.05288e-06
7.48467e-06
6.92468e-06
6.37328e-06
5.83089e-06
5.29795e-06
4.77495e-06
4.26238e-06
3.76078e-06
3.27067e-06
2.79263e-06
2.32712e-06
9.80629e-06
9.22519e-06
8.64777e-06
8.07608e-06
7.51052e-06
6.95167e-06
6.40014e-06
5.85655e-06
5.32152e-06
4.79572e-06
4.2798e-06
3.77443e-06
3.28027e-06
2.79799e-06
2.32816e-06
9.80923e-06
9.23554e-06
8.66366e-06
8.09574e-06
7.5324e-06
6.97446e-06
6.42271e-06
5.87796e-06
5.341e-06
4.81265e-06
4.2937e-06
3.78494e-06
3.28714e-06
2.80107e-06
2.32738e-06
9.81173e-06
9.24445e-06
8.67735e-06
8.11265e-06
7.55117e-06
6.99393e-06
6.4419e-06
5.89604e-06
5.35729e-06
4.82662e-06
4.30492e-06
3.79311e-06
3.29204e-06
2.80257e-06
2.32544e-06
9.81404e-06
9.25237e-06
8.68942e-06
8.12747e-06
7.56756e-06
7.01086e-06
6.4585e-06
5.91158e-06
5.37119e-06
4.83837e-06
4.31417e-06
3.79957e-06
3.29552e-06
2.80296e-06
2.32271e-06
9.81643e-06
9.25995e-06
8.70077e-06
8.14132e-06
7.58279e-06
7.02653e-06
6.47379e-06
5.92581e-06
5.3838e-06
4.84891e-06
4.32228e-06
3.80499e-06
3.29807e-06
2.80253e-06
2.31928e-06
9.81894e-06
9.26745e-06
8.71183e-06
8.15469e-06
7.59738e-06
7.04139e-06
6.48814e-06
5.939e-06
5.3953e-06
4.85834e-06
4.32934e-06
3.80949e-06
3.2999e-06
2.80164e-06
2.31561e-06
-9.41609e-06
-7.05357e-06
-5.61936e-06
-4.66093e-06
-3.90485e-06
-3.33574e-06
-2.90567e-06
-2.58139e-06
-2.3393e-06
-2.1596e-06
-2.02492e-06
-1.91914e-06
-1.82666e-06
-1.73228e-06
-1.62091e-06
-1.47922e-06
-1.29617e-06
-1.06977e-06
-8.10482e-07
-5.49142e-07
-3.38967e-07
-2.46221e-07
-3.04751e-07
-4.13864e-07
-4.45562e-07
-3.19571e-07
4.85962e-09
5.45734e-07
1.31065e-06
2.30203e-06
3.52106e-06
4.95557e-06
6.58566e-06
8.3851e-06
1.03138e-05
1.23233e-05
1.43565e-05
1.63474e-05
1.82169e-05
1.98654e-05
2.11501e-05
2.18693e-05
2.15805e-05
1.99051e-05
1.52672e-05
-7.8064e-06
-6.54316e-06
-5.44135e-06
-4.58067e-06
-3.86871e-06
-3.31415e-06
-2.88915e-06
-2.56703e-06
-2.32637e-06
-2.14816e-06
-2.01517e-06
-1.91121e-06
-1.82056e-06
-1.72796e-06
-1.61831e-06
-1.47836e-06
-1.2971e-06
-1.07253e-06
-8.1481e-07
-5.53746e-07
-3.40967e-07
-2.4058e-07
-2.86314e-07
-3.80924e-07
-3.99861e-07
-2.64073e-07
6.66293e-08
6.1024e-07
1.37391e-06
2.35938e-06
3.5671e-06
4.98256e-06
6.58319e-06
8.34049e-06
1.02108e-05
1.21409e-05
1.40668e-05
1.59121e-05
1.75812e-05
1.89454e-05
1.98076e-05
1.98531e-05
1.84576e-05
1.48885e-05
7.96732e-06
-6.96608e-06
-6.15364e-06
-5.25929e-06
-4.48774e-06
-3.82479e-06
-3.29042e-06
-2.87337e-06
-2.55448e-06
-2.31542e-06
-2.13842e-06
-2.00672e-06
-1.90412e-06
-1.81486e-06
-1.72363e-06
-1.61538e-06
-1.47692e-06
-1.29735e-06
-1.07467e-06
-8.18701e-07
-5.58124e-07
-3.42725e-07
-2.34169e-07
-2.65896e-07
-3.4446e-07
-3.49293e-07
-2.02808e-07
1.34425e-07
6.80242e-07
1.44117e-06
2.41794e-06
3.61021e-06
5.00052e-06
6.56278e-06
8.26575e-06
1.00614e-05
1.18905e-05
1.36813e-05
1.53459e-05
1.67721e-05
1.78079e-05
1.82261e-05
1.7686e-05
1.56396e-05
1.16961e-05
5.62392e-06
-6.44363e-06
-5.8404e-06
-5.10917e-06
-4.40756e-06
-3.7912e-06
-3.27778e-06
-2.86814e-06
-2.55119e-06
-2.312e-06
-2.13447e-06
-2.00245e-06
-1.89988e-06
-1.81092e-06
-1.72023e-06
-1.61279e-06
-1.47546e-06
-1.29741e-06
-1.0766e-06
-8.22474e-07
-5.62467e-07
-3.44286e-07
-2.26938e-07
-2.43396e-07
-3.04292e-07
-2.93425e-07
-1.34811e-07
2.10018e-07
7.58537e-07
1.51651e-06
2.48269e-06
3.65683e-06
5.01695e-06
6.53264e-06
8.16946e-06
9.87414e-06
1.1581e-05
1.32099e-05
1.46627e-05
1.58154e-05
1.65056e-05
1.65128e-05
1.55512e-05
1.32687e-05
9.4874e-06
4.45728e-06
-6.04679e-06
-5.57143e-06
-4.96715e-06
-4.34867e-06
-3.77512e-06
-3.2819e-06
-2.8786e-06
-2.56151e-06
-2.31954e-06
-2.13874e-06
-2.00389e-06
-1.89917e-06
-1.80875e-06
-1.71725e-06
-1.60968e-06
-1.47294e-06
-1.29618e-06
-1.07733e-06
-8.25386e-07
-5.66297e-07
-3.4543e-07
-2.18787e-07
-2.18694e-07
-2.60313e-07
-2.32358e-07
-6.06337e-08
2.9211e-07
8.429e-07
1.59591e-06
2.54735e-06
3.69955e-06
5.02171e-06
6.48019e-06
8.03702e-06
9.63352e-06
1.11977e-05
1.26424e-05
1.38631e-05
1.47321e-05
1.50944e-05
1.47642e-05
1.35431e-05
1.12581e-05
7.90371e-06
3.80009e-06
-5.72034e-06
-5.33413e-06
-4.83009e-06
-4.29601e-06
-3.773e-06
-3.30193e-06
-2.90609e-06
-2.58787e-06
-2.34082e-06
-2.15385e-06
-2.01321e-06
-1.90356e-06
-1.80928e-06
-1.71508e-06
-1.60599e-06
-1.46895e-06
-1.29312e-06
-1.07627e-06
-8.26902e-07
-5.69221e-07
-3.45934e-07
-2.09623e-07
-1.91748e-07
-2.12535e-07
-1.66263e-07
1.92387e-08
3.79743e-07
9.3186e-07
1.6744e-06
2.60874e-06
3.73316e-06
5.00694e-06
6.39571e-06
7.85725e-06
9.32786e-06
1.07304e-05
1.19739e-05
1.29528e-05
1.35462e-05
1.36207e-05
1.30406e-05
1.16942e-05
9.5357e-06
6.6615e-06
3.36163e-06
-5.42942e-06
-5.11245e-06
-4.69722e-06
-4.23299e-06
-3.7683e-06
-3.33028e-06
-2.94651e-06
-2.62871e-06
-2.37595e-06
-2.18093e-06
-2.03187e-06
-1.91439e-06
-1.81351e-06
-1.71429e-06
-1.60194e-06
-1.46343e-06
-1.28794e-06
-1.07306e-06
-8.26679e-07
-5.70985e-07
-3.45669e-07
-1.99462e-07
-1.62674e-07
-1.61188e-07
-9.56321e-08
1.04089e-07
4.71985e-07
1.02221e-06
1.74778e-06
2.66581e-06
3.75216e-06
4.96525e-06
6.27083e-06
7.6212e-06
8.94903e-06
1.01746e-05
1.12063e-05
1.19454e-05
1.22859e-05
1.21252e-05
1.13791e-05
1.00054e-05
8.03147e-06
5.58529e-06
2.89724e-06
-5.15338e-06
-4.89154e-06
-4.55123e-06
-4.15842e-06
-3.74773e-06
-3.3514e-06
-2.98957e-06
-2.67692e-06
-2.42043e-06
-2.21764e-06
-2.05894e-06
-1.93139e-06
-1.82139e-06
-1.71483e-06
-1.59736e-06
-1.4561e-06
-1.28031e-06
-1.06735e-06
-8.24436e-07
-5.71446e-07
-3.44677e-07
-1.88557e-07
-1.31917e-07
-1.06897e-07
-2.16672e-08
1.92442e-07
5.66507e-07
1.10562e-06
1.81919e-06
2.7136e-06
3.74742e-06
4.88706e-06
6.09561e-06
7.31934e-06
8.48956e-06
9.52827e-06
1.03458e-05
1.08579e-05
1.0979e-05
1.06395e-05
9.79884e-06
8.46075e-06
6.68625e-06
4.59861e-06
2.37079e-06
-4.88153e-06
-4.66429e-06
-4.38572e-06
-4.0588e-06
-3.70589e-06
-3.35217e-06
-3.01982e-06
-2.72065e-06
-2.46525e-06
-2.25768e-06
-2.09032e-06
-1.95181e-06
-1.83107e-06
-1.71546e-06
-1.59135e-06
-1.44627e-06
-1.2697e-06
-1.05879e-06
-8.20042e-07
-5.7069e-07
-3.43333e-07
-1.77625e-07
-1.00517e-07
-5.09837e-08
5.4029e-08
2.81282e-07
6.55177e-07
1.18395e-06
1.88641e-06
2.73811e-06
3.70681e-06
4.76166e-06
5.85882e-06
6.94173e-06
7.94273e-06
8.78654e-06
9.40035e-06
9.70772e-06
9.64869e-06
9.18361e-06
8.30329e-06
7.03697e-06
5.45464e-06
3.66165e-06
1.78445e-06
-4.60669e-06
-4.42635e-06
-4.19853e-06
-3.92914e-06
-3.63173e-06
-3.32407e-06
-3.02418e-06
-2.7469e-06
-2.49876e-06
-2.29189e-06
-2.11897e-06
-1.97028e-06
-1.83871e-06
-1.71349e-06
-1.58209e-06
-1.43277e-06
-1.25545e-06
-1.04716e-06
-8.13705e-07
-5.6929e-07
-3.42598e-07
-1.68167e-07
-7.05236e-08
3.55528e-09
1.30209e-07
3.63703e-07
7.34728e-07
1.25852e-06
1.92928e-06
2.72564e-06
3.61993e-06
4.57654e-06
5.54827e-06
6.47885e-06
7.3051e-06
7.95959e-06
8.38024e-06
8.51054e-06
8.3114e-06
7.76606e-06
6.88502e-06
5.70794e-06
4.30097e-06
2.74868e-06
1.1428e-06
-4.3221e-06
-4.17316e-06
-3.98747e-06
-3.76732e-06
-3.52047e-06
-3.25898e-06
-2.99564e-06
-2.74225e-06
-2.50976e-06
-2.30984e-06
-2.13513e-06
-1.97916e-06
-1.83882e-06
-1.70513e-06
-1.56712e-06
-1.41417e-06
-1.23697e-06
-1.03258e-06
-8.06102e-07
-5.68691e-07
-3.44476e-07
-1.62907e-07
-4.55561e-08
5.13239e-08
1.97254e-07
4.36859e-07
8.04123e-07
1.30714e-06
1.93456e-06
2.66634e-06
3.4736e-06
4.31777e-06
5.15175e-06
5.92217e-06
6.57212e-06
7.04678e-06
7.29507e-06
7.2788e-06
6.9765e-06
6.38695e-06
5.53062e-06
4.44835e-06
3.19705e-06
1.8423e-06
4.50748e-07
-4.02081e-06
-3.89938e-06
-3.74931e-06
-3.57115e-06
-3.3688e-06
-3.14958e-06
-2.92332e-06
-2.6996e-06
-2.49011e-06
-2.30023e-06
-2.12788e-06
-1.97061e-06
-1.82567e-06
-1.68641e-06
-1.54402e-06
-1.38945e-06
-1.21444e-06
-1.01623e-06
-7.98954e-07
-5.71295e-07
-3.52485e-07
-1.66367e-07
-3.15165e-08
8.63691e-08
2.4671e-07
4.90814e-07
8.46366e-07
1.31675e-06
1.89024e-06
2.54547e-06
3.25201e-06
3.97115e-06
4.65843e-06
5.26601e-06
5.74632e-06
6.05473e-06
6.15453e-06
6.02191e-06
5.64828e-06
5.04143e-06
4.22511e-06
3.23641e-06
2.12169e-06
9.30797e-07
-2.87611e-07
-3.69587e-06
-3.59927e-06
-3.4802e-06
-3.33843e-06
-3.17571e-06
-2.99658e-06
-2.8078e-06
-2.61703e-06
-2.43157e-06
-2.25615e-06
-2.09221e-06
-1.93919e-06
-1.79486e-06
-1.65452e-06
-1.51157e-06
-1.35889e-06
-1.18945e-06
-1.00077e-06
-7.95881e-07
-5.8144e-07
-3.72055e-07
-1.85307e-07
-3.69018e-08
9.8175e-08
2.68064e-07
5.09654e-07
8.43678e-07
1.27095e-06
1.77875e-06
2.34485e-06
2.93888e-06
3.52396e-06
4.06081e-06
4.50928e-06
4.83087e-06
4.99209e-06
4.96867e-06
4.74773e-06
4.32884e-06
3.72391e-06
2.95586e-06
2.056e-06
1.06076e-06
7.56656e-09
-1.0679e-06
-3.3402e-06
-3.26689e-06
-3.17583e-06
-3.06653e-06
-2.93961e-06
-2.79769e-06
-2.64511e-06
-2.48706e-06
-2.32844e-06
-2.1734e-06
-2.02434e-06
-1.88164e-06
-1.7441e-06
-1.60865e-06
-1.47066e-06
-1.32482e-06
-1.1657e-06
-9.91127e-07
-8.03138e-07
-6.06305e-07
-4.10955e-07
-2.29269e-07
-7.34793e-08
7.27414e-08
2.45529e-07
4.7504e-07
7.76853e-07
1.14997e-06
1.58041e-06
2.04632e-06
2.52012e-06
2.9673e-06
3.35756e-06
3.65678e-06
3.83537e-06
3.87108e-06
3.74946e-06
3.46497e-06
3.02149e-06
2.4317e-06
1.71562e-06
8.98416e-07
7.93186e-09
-9.27984e-07
-1.88311e-06
-2.94605e-06
-2.89582e-06
-2.8314e-06
-2.75235e-06
-2.6587e-06
-2.55182e-06
-2.4343e-06
-2.30949e-06
-2.18083e-06
-2.05147e-06
-1.9237e-06
-1.79831e-06
-1.67454e-06
-1.55084e-06
-1.42488e-06
-1.29277e-06
-1.15017e-06
-9.9533e-07
-8.29632e-07
-6.55769e-07
-4.80315e-07
-3.11078e-07
-1.56533e-07
-7.80462e-09
1.59087e-07
3.66196e-07
6.24656e-07
9.32331e-07
1.27582e-06
1.63468e-06
1.98394e-06
2.30062e-06
2.55344e-06
2.71768e-06
2.77364e-06
2.70752e-06
2.51168e-06
2.185e-06
1.73303e-06
1.16732e-06
5.04226e-07
-2.3682e-07
-1.03496e-06
-1.86966e-06
-2.72163e-06
-2.50501e-06
-2.47934e-06
-2.4421e-06
-2.39303e-06
-2.33199e-06
-2.25959e-06
-2.17737e-06
-2.08738e-06
-1.99194e-06
-1.89332e-06
-1.79281e-06
-1.69215e-06
-1.59149e-06
-1.48824e-06
-1.38223e-06
-1.27166e-06
-1.15301e-06
-1.02473e-06
-8.87637e-07
-7.43367e-07
-5.95174e-07
-4.46821e-07
-3.04342e-07
-1.64669e-07
-1.45337e-08
1.59741e-07
3.6472e-07
5.97974e-07
8.50125e-07
1.10383e-06
1.33763e-06
1.52887e-06
1.65751e-06
1.70683e-06
1.66383e-06
1.52016e-06
1.27236e-06
9.21677e-07
4.7379e-07
-6.1706e-08
-6.72158e-07
-1.34303e-06
-2.059e-06
-2.80508e-06
-3.5671e-06
-2.01029e-06
-2.01235e-06
-2.00485e-06
-1.98771e-06
-1.96079e-06
-1.92446e-06
-1.87943e-06
-1.82721e-06
-1.76882e-06
-1.70599e-06
-1.64157e-06
-1.57329e-06
-1.50064e-06
-1.4287e-06
-1.35524e-06
-1.27532e-06
-1.18835e-06
-1.09448e-06
-9.93741e-07
-8.86583e-07
-7.73703e-07
-6.55843e-07
-5.37293e-07
-4.19742e-07
-2.98573e-07
-1.68429e-07
-2.53021e-08
1.33139e-07
2.98911e-07
4.53513e-07
5.78067e-07
6.59183e-07
6.84699e-07
6.43214e-07
5.26012e-07
3.28232e-07
4.87582e-08
-3.10266e-07
-7.43831e-07
-1.24448e-06
-1.80286e-06
-2.40841e-06
-3.05011e-06
-3.7171e-06
-4.39906e-06
-1.46292e-06
-1.49755e-06
-1.52406e-06
-1.54266e-06
-1.5534e-06
-1.55655e-06
-1.55256e-06
-1.54221e-06
-1.52631e-06
-1.50578e-06
-1.48178e-06
-1.45383e-06
-1.42356e-06
-1.39353e-06
-1.35959e-06
-1.31894e-06
-1.27324e-06
-1.22302e-06
-1.16715e-06
-1.10503e-06
-1.03607e-06
-9.59663e-07
-8.78017e-07
-7.93681e-07
-7.11791e-07
-6.35374e-07
-5.54326e-07
-4.64516e-07
-3.79782e-07
-3.17453e-07
-2.85825e-07
-2.92106e-07
-3.44963e-07
-4.52383e-07
-6.1985e-07
-8.50006e-07
-1.14295e-06
-1.4966e-06
-1.907e-06
-2.36865e-06
-2.8749e-06
-3.41834e-06
-3.9912e-06
-4.58575e-06
-5.1945e-06
-8.65586e-07
-9.40458e-07
-1.0081e-06
-1.06897e-06
-1.12344e-06
-1.17185e-06
-1.21455e-06
-1.25203e-06
-1.28484e-06
-1.31364e-06
-1.33923e-06
-1.36203e-06
-1.38233e-06
-1.39996e-06
-1.41374e-06
-1.42346e-06
-1.42972e-06
-1.43197e-06
-1.42884e-06
-1.41951e-06
-1.40285e-06
-1.37829e-06
-1.34602e-06
-1.30746e-06
-1.27161e-06
-1.24188e-06
-1.21535e-06
-1.18955e-06
-1.17989e-06
-1.19235e-06
-1.23006e-06
-1.29883e-06
-1.40535e-06
-1.55475e-06
-1.75016e-06
-1.99305e-06
-2.28339e-06
-2.61967e-06
-2.99905e-06
-3.4177e-06
-3.87104e-06
-4.35402e-06
-4.86132e-06
-5.38755e-06
-5.92736e-06
-2.17018e-07
-3.42663e-07
-4.62151e-07
-5.75698e-07
-6.83765e-07
-7.86821e-07
-8.85274e-07
-9.795e-07
-1.06988e-06
-1.1568e-06
-1.24057e-06
-1.32133e-06
-1.39906e-06
-1.47399e-06
-1.54615e-06
-1.61522e-06
-1.6806e-06
-1.74144e-06
-1.79703e-06
-1.84605e-06
-1.88812e-06
-1.9225e-06
-1.94686e-06
-1.96668e-06
-1.97797e-06
-1.99805e-06
-2.00716e-06
-2.03313e-06
-2.07917e-06
-2.1422e-06
-2.22444e-06
-2.33135e-06
-2.46767e-06
-2.63636e-06
-2.83925e-06
-3.07743e-06
-3.35112e-06
-3.65948e-06
-4.00072e-06
-4.37236e-06
-4.77142e-06
-5.19462e-06
-5.63842e-06
-6.09919e-06
-6.57318e-06
3.6387e-07
1.83381e-07
8.77555e-09
-1.60341e-07
-3.2454e-07
-4.84316e-07
-6.40029e-07
-7.9193e-07
-9.40224e-07
-1.08508e-06
-1.22667e-06
-1.36511e-06
-1.50051e-06
-1.63293e-06
-1.76215e-06
-1.88763e-06
-2.00863e-06
-2.12457e-06
-2.23451e-06
-2.33748e-06
-2.43334e-06
-2.52099e-06
-2.59953e-06
-2.67048e-06
-2.73249e-06
-2.77065e-06
-2.81999e-06
-2.88497e-06
-2.96292e-06
-3.05284e-06
-3.15746e-06
-3.28059e-06
-3.42525e-06
-3.59365e-06
-3.78745e-06
-4.00777e-06
-4.25506e-06
-4.52898e-06
-4.82855e-06
-5.15233e-06
-5.49853e-06
-5.86512e-06
-6.24984e-06
-6.65029e-06
-7.06397e-06
8.29265e-07
5.96748e-07
3.69876e-07
1.48368e-07
-6.82402e-08
-2.80344e-07
-4.88197e-07
-6.91943e-07
-8.91673e-07
-1.08746e-06
-1.27938e-06
-1.46745e-06
-1.65162e-06
-1.83172e-06
-2.00739e-06
-2.17811e-06
-2.3433e-06
-2.5022e-06
-2.65401e-06
-2.79804e-06
-2.93343e-06
-3.06106e-06
-3.17717e-06
-3.27518e-06
-3.36101e-06
-3.43743e-06
-3.51744e-06
-3.6028e-06
-3.69461e-06
-3.79525e-06
-3.9073e-06
-4.03317e-06
-4.17503e-06
-4.33484e-06
-4.51412e-06
-4.71392e-06
-4.93478e-06
-5.17673e-06
-5.4394e-06
-5.72209e-06
-6.02379e-06
-6.34329e-06
-6.6792e-06
-7.02998e-06
-7.394e-06
1.16151e-06
8.84432e-07
6.1317e-07
3.47534e-07
8.72138e-08
-1.68031e-07
-4.18321e-07
-6.63684e-07
-9.04115e-07
-1.13959e-06
-1.37006e-06
-1.59545e-06
-1.81556e-06
-2.03015e-06
-2.23884e-06
-2.44112e-06
-2.63643e-06
-2.82404e-06
-3.0033e-06
-3.17352e-06
-3.33422e-06
-3.48609e-06
-3.62325e-06
-3.7408e-06
-3.84333e-06
-3.93926e-06
-4.03231e-06
-4.12531e-06
-4.2218e-06
-4.32482e-06
-4.43654e-06
-4.55893e-06
-4.69394e-06
-4.84333e-06
-5.00849e-06
-5.19039e-06
-5.38966e-06
-5.60659e-06
-5.84122e-06
-6.09329e-06
-6.36234e-06
-6.64768e-06
-6.94843e-06
-7.2636e-06
-7.59209e-06
1.39552e-06
1.08155e-06
7.73852e-07
4.72347e-07
1.76884e-07
-1.12616e-07
-3.96141e-07
-6.73611e-07
-9.44928e-07
-1.20998e-06
-1.46863e-06
-1.72071e-06
-1.966e-06
-2.20418e-06
-2.43489e-06
-2.65766e-06
-2.87197e-06
-3.07722e-06
-3.27289e-06
-3.45845e-06
-3.63368e-06
-3.79865e-06
-3.94731e-06
-4.07668e-06
-4.19152e-06
-4.29657e-06
-4.39566e-06
-4.49295e-06
-4.59204e-06
-4.69561e-06
-4.80575e-06
-4.9244e-06
-5.05338e-06
-5.19428e-06
-5.34835e-06
-5.5166e-06
-5.69978e-06
-5.89843e-06
-6.11283e-06
-6.34305e-06
-6.58894e-06
-6.85017e-06
-7.12624e-06
-7.41653e-06
-7.72033e-06
1.55729e-06
1.21376e-06
8.77125e-07
5.47439e-07
2.24692e-07
-9.10519e-08
-3.9966e-07
-7.00961e-07
-9.94784e-07
-1.28095e-06
-1.55927e-06
-1.82953e-06
-2.09149e-06
-2.34483e-06
-2.58922e-06
-2.82426e-06
-3.04952e-06
-3.26455e-06
-3.469e-06
-3.66251e-06
-3.84497e-06
-4.01649e-06
-4.17193e-06
-4.30852e-06
-4.42953e-06
-4.53956e-06
-4.643e-06
-4.74366e-06
-4.8446e-06
-4.94834e-06
-5.05707e-06
-5.17273e-06
-5.29705e-06
-5.43153e-06
-5.57743e-06
-5.73583e-06
-5.9076e-06
-6.09342e-06
-6.29377e-06
-6.50891e-06
-6.73895e-06
-6.98383e-06
-7.24332e-06
-7.51705e-06
-7.8046e-06
1.66849e-06
1.30173e-06
9.42608e-07
5.91262e-07
2.47818e-07
-8.75433e-08
-4.14595e-07
-7.331e-07
-1.04283e-06
-1.34357e-06
-1.6351e-06
-1.91719e-06
-2.1896e-06
-2.45204e-06
-2.70423e-06
-2.94586e-06
-3.17664e-06
-3.39626e-06
-3.60454e-06
-3.80128e-06
-3.98658e-06
-4.16111e-06
-4.31965e-06
-4.45968e-06
-4.58425e-06
-4.69797e-06
-4.80474e-06
-4.90784e-06
-5.01014e-06
-5.11414e-06
-5.22205e-06
-5.33577e-06
-5.45699e-06
-5.58719e-06
-5.72769e-06
-5.87962e-06
-6.04393e-06
-6.22142e-06
-6.41268e-06
-6.61817e-06
-6.83814e-06
-7.07272e-06
-7.32189e-06
-7.58549e-06
-7.86329e-06
1.7446e-06
1.3598e-06
9.83386e-07
6.15606e-07
2.5668e-07
-9.31203e-08
-4.33499e-07
-7.64172e-07
-1.08488e-06
-1.39538e-06
-1.69545e-06
-1.98485e-06
-2.26337e-06
-2.53077e-06
-2.78685e-06
-3.03138e-06
-3.26419e-06
-3.48514e-06
-3.69421e-06
-3.89136e-06
-4.07695e-06
-4.25144e-06
-4.41109e-06
-4.55278e-06
-4.67976e-06
-4.7961e-06
-4.90522e-06
-5.01017e-06
-5.11372e-06
-5.21832e-06
-5.32608e-06
-5.43889e-06
-5.55843e-06
-5.68619e-06
-5.82353e-06
-5.97162e-06
-6.13149e-06
-6.30399e-06
-6.48985e-06
-6.68962e-06
-6.9037e-06
-7.13238e-06
-7.37578e-06
-7.63391e-06
-7.90669e-06
1.79628e-06
1.39748e-06
1.00782e-06
6.276e-07
2.57133e-07
-1.03238e-07
-4.53171e-07
-7.92355e-07
-1.12051e-06
-1.43739e-06
-1.74276e-06
-2.03642e-06
-2.31817e-06
-2.58784e-06
-2.8453e-06
-3.09042e-06
-3.32316e-06
-3.5435e-06
-3.75158e-06
-3.94757e-06
-4.13195e-06
-4.30526e-06
-4.46413e-06
-4.60638e-06
-4.73478e-06
-4.85281e-06
-4.9636e-06
-5.07007e-06
-5.17484e-06
-5.28023e-06
-5.38831e-06
-5.50094e-06
-5.6198e-06
-5.7464e-06
-5.88212e-06
-6.02817e-06
-6.18563e-06
-6.35544e-06
-6.5384e-06
-6.73518e-06
-6.94629e-06
-7.17213e-06
-7.41294e-06
-7.66885e-06
-7.93988e-06
1.83075e-06
1.42099e-06
1.02108e-06
6.31367e-07
2.52238e-07
-1.15913e-07
-4.72715e-07
-8.17839e-07
-1.151e-06
-1.47194e-06
-1.78046e-06
-2.07635e-06
-2.35948e-06
-2.62973e-06
-2.88703e-06
-3.13136e-06
-3.3628e-06
-3.58141e-06
-3.78751e-06
-3.98136e-06
-4.16362e-06
-4.33482e-06
-4.49213e-06
-4.63412e-06
-4.76314e-06
-4.88216e-06
-4.99412e-06
-5.10176e-06
-5.20758e-06
-5.31379e-06
-5.4224e-06
-5.53524e-06
-5.654e-06
-5.78021e-06
-5.91525e-06
-6.06038e-06
-6.21676e-06
-6.38537e-06
-6.5671e-06
-6.7627e-06
-6.97276e-06
-7.19778e-06
-7.43809e-06
-7.69391e-06
-7.96534e-06
1.85288e-06
1.4344e-06
1.02642e-06
6.29345e-07
2.43613e-07
-1.30345e-07
-4.9214e-07
-8.41435e-07
-1.17794e-06
-1.50141e-06
-1.81164e-06
-2.10848e-06
-2.39183e-06
-2.66162e-06
-2.91787e-06
-3.16062e-06
-3.39004e-06
-3.60633e-06
-3.80987e-06
-4.00106e-06
-4.18068e-06
-4.34928e-06
-4.50451e-06
-4.64565e-06
-4.77467e-06
-4.89412e-06
-5.00678e-06
-5.11526e-06
-5.22188e-06
-5.32879e-06
-5.43793e-06
-5.55113e-06
-5.67006e-06
-5.79625e-06
-5.93114e-06
-6.07603e-06
-6.2321e-06
-6.40042e-06
-6.58193e-06
-6.77745e-06
-6.98765e-06
-7.21309e-06
-7.45419e-06
-7.71123e-06
-7.98439e-06
1.86608e-06
1.44052e-06
1.02605e-06
6.23134e-07
2.32259e-07
-1.46125e-07
-5.11618e-07
-8.63878e-07
-1.20262e-06
-1.5276e-06
-1.83865e-06
-2.13563e-06
-2.4185e-06
-2.68724e-06
-2.94192e-06
-3.18267e-06
-3.40973e-06
-3.62339e-06
-3.82412e-06
-4.01241e-06
-4.18914e-06
-4.35484e-06
-4.50768e-06
-4.64756e-06
-4.77613e-06
-4.89555e-06
-5.00852e-06
-5.11748e-06
-5.22463e-06
-5.33203e-06
-5.4416e-06
-5.55512e-06
-5.67427e-06
-5.80061e-06
-5.93559e-06
-6.08055e-06
-6.23672e-06
-6.40523e-06
-6.58707e-06
-6.78312e-06
-6.99412e-06
-7.22068e-06
-7.46329e-06
-7.72229e-06
-7.99791e-06
1.87285e-06
1.44139e-06
1.02157e-06
6.13919e-07
2.18934e-07
-1.62912e-07
-5.31215e-07
-8.8563e-07
-1.22587e-06
-1.55172e-06
-1.86302e-06
-2.15968e-06
-2.44167e-06
-2.70904e-06
-2.96192e-06
-3.20048e-06
-3.42505e-06
-3.63598e-06
-3.83384e-06
-4.01915e-06
-4.1929e-06
-4.35561e-06
-4.50585e-06
-4.64421e-06
-4.77201e-06
-4.89106e-06
-5.00399e-06
-5.11311e-06
-5.22052e-06
-5.32818e-06
-5.438e-06
-5.55172e-06
-5.67104e-06
-5.79752e-06
-5.93264e-06
-6.07778e-06
-6.23422e-06
-6.40312e-06
-6.58554e-06
-6.7824e-06
-6.99451e-06
-7.22253e-06
-7.467e-06
-7.72831e-06
-8.00671e-06
1.87503e-06
1.43856e-06
1.01424e-06
6.02639e-07
2.04279e-07
-1.80357e-07
-5.50862e-07
-9.0689e-07
-1.24817e-06
-1.57448e-06
-1.88571e-06
-2.18177e-06
-2.4627e-06
-2.72856e-06
-2.97955e-06
-3.2159e-06
-3.43798e-06
-3.64622e-06
-3.84124e-06
-4.02363e-06
-4.19443e-06
-4.35421e-06
-4.50171e-06
-4.63836e-06
-4.76523e-06
-4.88362e-06
-4.99625e-06
-5.10527e-06
-5.21267e-06
-5.32039e-06
-5.43026e-06
-5.54403e-06
-5.66339e-06
-5.78993e-06
-5.92514e-06
-6.07045e-06
-6.22717e-06
-6.3965e-06
-6.57956e-06
-6.77732e-06
-6.99063e-06
-7.22021e-06
-7.46663e-06
-7.73032e-06
-8.01158e-06
1.87403e-06
1.43321e-06
1.00502e-06
5.90054e-07
1.88851e-07
-1.98101e-07
-5.70389e-07
-9.27671e-07
-1.26968e-06
-1.59622e-06
-1.90719e-06
-2.20254e-06
-2.48232e-06
-2.74666e-06
-2.99578e-06
-3.22998e-06
-3.44967e-06
-3.65533e-06
-3.84763e-06
-4.0272e-06
-4.19518e-06
-4.35205e-06
-4.49687e-06
-4.6318e-06
-4.75758e-06
-4.87511e-06
-4.98723e-06
-5.09593e-06
-5.20313e-06
-5.31069e-06
-5.42044e-06
-5.53411e-06
-5.65338e-06
-5.77985e-06
-5.91506e-06
-6.06046e-06
-6.21738e-06
-6.3871e-06
-6.57076e-06
-6.76937e-06
-6.98384e-06
-7.21493e-06
-7.46324e-06
-7.72925e-06
-8.01328e-06
1.87088e-06
1.42624e-06
9.94673e-07
5.76779e-07
1.73125e-07
-2.15798e-07
-5.89576e-07
-9.4787e-07
-1.29042e-06
-1.61705e-06
-1.92767e-06
-2.22227e-06
-2.50092e-06
-2.76378e-06
-3.01112e-06
-3.24328e-06
-3.46071e-06
-3.66394e-06
-3.85369e-06
-4.0306e-06
-4.1959e-06
-4.34988e-06
-4.49232e-06
-4.62556e-06
-4.75004e-06
-4.86662e-06
-4.97807e-06
-5.0863e-06
-5.19313e-06
-5.30039e-06
-5.40986e-06
-5.52329e-06
-5.64234e-06
-5.76863e-06
-5.90373e-06
-6.0491e-06
-6.20614e-06
-6.37615e-06
-6.5603e-06
-6.75967e-06
-6.97519e-06
-7.20766e-06
-7.45773e-06
-7.72589e-06
-8.01249e-06
1.86639e-06
1.41835e-06
9.8379e-07
5.63322e-07
1.57524e-07
-2.33111e-07
-6.08165e-07
-9.67305e-07
-1.31028e-06
-1.63693e-06
-1.94717e-06
-2.24102e-06
-2.51859e-06
-2.78007e-06
-3.02575e-06
-3.25601e-06
-3.47135e-06
-3.67233e-06
-3.85971e-06
-4.03415e-06
-4.19693e-06
-4.34815e-06
-4.48852e-06
-4.62002e-06
-4.7431e-06
-4.85872e-06
-4.96942e-06
-5.07707e-06
-5.18342e-06
-5.29026e-06
-5.39935e-06
-5.51241e-06
-5.63113e-06
-5.75715e-06
-5.89203e-06
-6.03729e-06
-6.19434e-06
-6.36452e-06
-6.54906e-06
-6.74906e-06
-6.96549e-06
-7.19918e-06
-7.45082e-06
-7.72093e-06
-8.00988e-06
1.86112e-06
1.41007e-06
9.72852e-07
5.50107e-07
1.42417e-07
-2.49719e-07
-6.25882e-07
-9.85744e-07
-1.32906e-06
-1.65569e-06
-1.96556e-06
-2.25871e-06
-2.53528e-06
-2.79548e-06
-3.03963e-06
-3.26816e-06
-3.48159e-06
-3.68052e-06
-3.86573e-06
-4.03793e-06
-4.19837e-06
-4.34711e-06
-4.48553e-06
-4.61532e-06
-4.73701e-06
-4.85169e-06
-4.9616e-06
-5.0686e-06
-5.1744e-06
-5.28075e-06
-5.38938e-06
-5.50201e-06
-5.62032e-06
-5.74598e-06
-5.88056e-06
-6.02562e-06
-6.18259e-06
-6.35285e-06
-6.53766e-06
-6.73815e-06
-6.95534e-06
-7.19009e-06
-7.44311e-06
-7.71494e-06
-8.00599e-06
1.85539e-06
1.40162e-06
9.62019e-07
5.37234e-07
1.27857e-07
-2.65612e-07
-6.42754e-07
-1.00324e-06
-1.34685e-06
-1.67343e-06
-1.98295e-06
-2.27545e-06
-2.55109e-06
-2.81011e-06
-3.05288e-06
-3.27982e-06
-3.49151e-06
-3.68857e-06
-3.87181e-06
-4.04194e-06
-4.20025e-06
-4.34677e-06
-4.48324e-06
-4.61142e-06
-4.73183e-06
-4.84554e-06
-4.95466e-06
-5.06098e-06
-5.16618e-06
-5.27197e-06
-5.38008e-06
-5.49221e-06
-5.61006e-06
-5.7353e-06
-5.86952e-06
-6.0143e-06
-6.17111e-06
-6.34136e-06
-6.52633e-06
-6.7272e-06
-6.94501e-06
-7.18066e-06
-7.43488e-06
-7.70824e-06
-8.00115e-06
1.84908e-06
1.39271e-06
9.50842e-07
5.2412e-07
1.13143e-07
-2.81584e-07