/*--------------------------------*- C++ -*----------------------------------*\
| =========                 |                                                 |
| \\      /  F ield         | OpenFOAM: The Open Source CFD Toolbox           |
|  \\    /   O peration     | Version:  2312                                  |
|   \\  /    A nd           | Website:  www.openfoam.com                      |
|    \\/     M anipulation  |                                                 |
\*---------------------------------------------------------------------------*/
FoamFile
{
    version     2.0;
    format      ascii;
    arch        "LSB;label=32;scalar=64";
    class       volVectorField;
    location    "160.75";
    object      U;
}
// * * * * * * * * * * * * * * * * * * * * * * * * * * * * * * * * * * * * * //

dimensions      [0 1 -1 0 0 0 0];

internalField   nonuniform List<vector> 
4800
(
(0.00046233 2.70409e-07 -2.02713e-26)
(0.000456078 2.58977e-07 -1.40655e-25)
(0.000453031 2.36802e-07 1.81016e-25)
(0.000451909 2.08352e-07 8.10924e-26)
(0.000452263 1.80983e-07 1.19034e-24)
(0.000453443 1.62524e-07 -2.83956e-24)
(0.000455391 1.08711e-07 2.65409e-24)
(0.000458015 1.32506e-08 -3.84688e-24)
(0.000461409 -1.34637e-07 1.23147e-24)
(0.00046572 -3.74051e-07 4.21719e-24)
(0.000471363 -8.60359e-07 -1.29826e-24)
(0.000479646 -2.23874e-06 -1.07887e-25)
(0.000497894 -7.38816e-06 -1.59516e-24)
(0.000543673 -2.81176e-05 7.65414e-25)
(0.000617601 -8.94671e-05 -6.14366e-25)
(0.00143311 1.41946e-06 -6.44706e-26)
(0.00141446 8.81665e-07 8.03096e-26)
(0.00140522 4.62325e-07 -7.25198e-25)
(0.00140163 9.98856e-08 5.42142e-25)
(0.00140232 -2.4027e-07 1.70616e-24)
(0.0014053 -5.46374e-07 -2.73338e-24)
(0.00141058 -9.51179e-07 -7.81544e-25)
(0.00141773 -1.50711e-06 -1.86232e-25)
(0.00142698 -2.30558e-06 6.40272e-24)
(0.00143877 -3.56304e-06 -4.73579e-24)
(0.00145428 -5.94643e-06 5.14842e-25)
(0.00147627 -1.16798e-05 7.91298e-25)
(0.00151366 -2.84031e-05 -1.18137e-24)
(0.00157657 -7.93668e-05 -3.80678e-25)
(0.00164264 -0.000192411 1.57203e-24)
(0.00250995 4.49296e-06 -4.61678e-26)
(0.00247843 2.77706e-06 4.72416e-26)
(0.00246258 1.47495e-06 4.75264e-25)
(0.00245613 3.50054e-07 -1.11826e-24)
(0.00245677 -6.86933e-07 1.0834e-24)
(0.00246103 -1.69931e-06 1.0254e-24)
(0.00246914 -2.95294e-06 -2.68116e-24)
(0.0024802 -4.57066e-06 -1.66043e-24)
(0.00249441 -6.84996e-06 3.97485e-24)
(0.00251231 -1.03757e-05 1.50683e-24)
(0.00253521 -1.66305e-05 -5.23928e-24)
(0.0025653 -2.95419e-05 -8.11798e-25)
(0.00260667 -5.8496e-05 2.24369e-24)
(0.00265785 -0.000122422 3.59018e-24)
(0.00269384 -0.000227345 -1.85908e-24)
(0.00369921 9.92599e-06 1.70874e-26)
(0.00365463 6.20523e-06 -1.18068e-25)
(0.00363183 3.39778e-06 5.21168e-25)
(0.00362206 9.86768e-07 5.47387e-25)
(0.00362212 -1.21603e-06 -5.45715e-25)
(0.003627 -3.32079e-06 -3.11042e-24)
(0.00363713 -5.94319e-06 -2.14506e-24)
(0.00365113 -9.20812e-06 8.05879e-24)
(0.0036689 -1.36829e-05 3.34405e-24)
(0.00369077 -2.03457e-05 -4.79289e-24)
(0.00371748 -3.12552e-05 -1.93599e-24)
(0.00374951 -5.08443e-05 -1.48537e-24)
(0.00378617 -8.6886e-05 4.28367e-26)
(0.00382034 -0.000148991 1.10164e-24)
(0.00383429 -0.000231448 5.37323e-27)
(0.00500486 1.81639e-05 -3.14203e-26)
(0.00494758 1.1463e-05 -1.89936e-25)
(0.00491773 6.42698e-06 -1.16033e-25)
(0.0049043 2.13597e-06 3.22839e-25)
(0.00490309 -1.76008e-06 -8.89845e-25)
(0.00490798 -5.36078e-06 2.20989e-24)
(0.00491913 -9.84184e-06 -3.94547e-25)
(0.00493482 -1.52511e-05 1.39174e-24)
(0.00495444 -2.23751e-05 -7.73684e-24)
(0.00497786 -3.24599e-05 1.47025e-23)
(0.00500485 -4.76097e-05 -1.42415e-23)
(0.00503431 -7.1425e-05 7.52755e-24)
(0.00506303 -0.000108533 -6.98367e-24)
(0.0050836 -0.000161765 6.56869e-24)
(0.00508616 -0.000223358 -2.6087e-24)
(0.00642674 2.96948e-05 4.1605e-26)
(0.00635822 1.89249e-05 1.46881e-25)
(0.00632183 1.08561e-05 -7.71421e-25)
(0.00630477 4.0386e-06 -4.77065e-25)
(0.00630162 -2.06566e-06 1.2829e-24)
(0.00630608 -7.67958e-06 4.55061e-25)
(0.00631733 -1.44058e-05 -3.59634e-24)
(0.00633334 -2.22999e-05 8.61041e-24)
(0.00635305 -3.22408e-05 -1.12034e-23)
(0.00637575 -4.55137e-05 2.68441e-24)
(0.00640037 -6.38119e-05 8.18137e-24)
(0.00642486 -8.93e-05 -1.13561e-23)
(0.00644567 -0.000123726 5.6901e-24)
(0.0064574 -0.000166473 5.76277e-24)
(0.00645577 -0.000211376 -4.37417e-24)
(0.00795852 4.48061e-05 3.44403e-26)
(0.00788206 2.88587e-05 -2.02021e-25)
(0.00784074 1.6922e-05 7.15753e-25)
(0.00782082 6.93853e-06 -9.8669e-25)
(0.00781561 -1.82263e-06 -3.31296e-24)
(0.00781938 -1.01013e-05 5.64915e-24)
(0.00783004 -1.93151e-05 -3.42177e-24)
(0.00784522 -2.98094e-05 1.16384e-23)
(0.0078636 -4.24522e-05 -7.91635e-24)
(0.00788393 -5.83073e-05 -3.69822e-24)
(0.00790463 -7.84349e-05 -7.25778e-24)
(0.00792351 -0.000103665 6.68149e-24)
(0.00793778 -0.000133921 1.87201e-24)
(0.00794429 -0.000167426 1.5752e-24)
(0.00794186 -0.00020013 -1.38299e-24)
(0.00958569 6.32305e-05 -4.94653e-26)
(0.00950722 4.11667e-05 6.67368e-25)
(0.0094643 2.46066e-05 -1.543e-24)
(0.00944339 1.09071e-05 -1.23751e-24)
(0.00943718 -1.09289e-06 4.79072e-25)
(0.00944034 -1.22779e-05 9.17163e-25)
(0.00945012 -2.41604e-05 3.2621e-24)
(0.00946397 -3.72384e-05 -8.86995e-24)
(0.00948025 -5.22386e-05 -4.71246e-24)
(0.00949743 -6.98874e-05 1.30065e-23)
(0.00951385 -9.06318e-05 -4.00117e-24)
(0.00952765 -0.000114412 1.36597e-23)
(0.00953707 -0.000140372 -7.18033e-24)
(0.00954057 -0.00016677 -2.25153e-24)
(0.00953846 -0.000191195 1.32562e-24)
(0.0112851 8.36762e-05 -6.44097e-27)
(0.0112135 5.50279e-05 3.67423e-25)
(0.0111744 3.33597e-05 -5.22209e-25)
(0.0111558 1.55622e-05 1.23185e-24)
(0.0111508 4.80818e-08 -7.30409e-24)
(0.0111545 -1.42946e-05 7.70153e-24)
(0.0111639 -2.88656e-05 -1.2069e-23)
(0.0111767 -4.42988e-05 7.43182e-24)
(0.0111909 -6.11496e-05 5.50673e-24)
(0.0112051 -7.97993e-05 1.1873e-23)
(0.0112179 -0.000100253 -1.54884e-23)
(0.0112279 -0.000122039 -2.80634e-24)
(0.0112342 -0.000144196 1.35916e-24)
(0.0112361 -0.000165444 9.1968e-24)
(0.0112346 -0.000184447 -3.7102e-24)
(0.0130286 0.00010339 3.37026e-26)
(0.0129745 6.85056e-05 -1.51119e-25)
(0.0129462 4.17587e-05 6.79719e-25)
(0.0129347 1.98052e-05 -2.36867e-24)
(0.0129341 7.36587e-07 3.5748e-24)
(0.0129404 -1.67055e-05 -4.58875e-24)
(0.012951 -3.37883e-05 7.65399e-24)
(0.0129637 -5.11949e-05 1.31731e-24)
(0.0129768 -6.9322e-05 -1.04853e-23)
(0.0129892 -8.82972e-05 1.48282e-23)
(0.0129996 -0.000107906 -1.63054e-23)
(0.0130074 -0.00012761 -4.69524e-24)
(0.0130122 -0.000146648 8.36146e-24)
(0.0130138 -0.000164229 2.43622e-24)
(0.0130132 -0.000179673 -1.05571e-24)
(0.0147939 0.000118322 1.16644e-25)
(0.0147658 7.84886e-05 -1.13944e-24)
(0.0147547 4.73642e-05 -1.87962e-24)
(0.0147547 2.16612e-05 4.44434e-24)
(0.0147619 -6.57054e-07 1.96562e-24)
(0.0147734 -2.08175e-05 -1.23399e-23)
(0.0147871 -4.00037e-05 3.82349e-24)
(0.0148013 -5.88653e-05 2.74372e-24)
(0.0148149 -7.76852e-05 -1.16311e-23)
(0.0148269 -9.64653e-05 1.21879e-23)
(0.0148368 -0.000114955 -9.51663e-24)
(0.0148441 -0.000132735 2.45319e-23)
(0.014849 -0.000149315 -1.16535e-23)
(0.0148512 -0.00016428 6.78983e-24)
(0.0148521 -0.000177332 -1.83419e-24)
(0.0165796 0.000124761 -1.85624e-26)
(0.0165787 8.16905e-05 7.15678e-25)
(0.0165863 4.73503e-05 -1.4905e-24)
(0.0165996 1.8696e-05 -7.71412e-25)
(0.0166162 -6.19317e-06 8.58517e-24)
(0.0166342 -2.84711e-05 -1.26893e-24)
(0.0166522 -4.91683e-05 -1.51764e-23)
(0.0166693 -6.8882e-05 1.76199e-23)
(0.0166846 -8.78463e-05 -3.9868e-24)
(0.0166977 -0.000106051 -1.35241e-23)
(0.0167084 -0.000123321 1.43118e-23)
(0.0167166 -0.000139411 7.5234e-24)
(0.0167227 -0.000154071 -6.50189e-24)
(0.0167265 -0.000167137 -1.0927e-23)
(0.0167293 -0.000178526 9.05689e-25)
(0.0184105 0.000122212 -2.82332e-26)
(0.0184279 7.69901e-05 -7.26419e-25)
(0.0184491 4.03776e-05 3.84539e-24)
(0.0184722 9.46221e-06 3.1017e-25)
(0.018496 -1.72393e-05 2.30197e-24)
(0.0185191 -4.09395e-05 -8.17583e-24)
(0.0185407 -6.25317e-05 6.9625e-24)
(0.0185601 -8.25519e-05 1.54204e-24)
(0.0185772 -0.000101237 1.40844e-23)
(0.0185917 -0.000118639 -2.18926e-23)
(0.0186037 -0.000134703 -9.76491e-24)
(0.0186132 -0.000149347 -6.29682e-24)
(0.0186209 -0.000162502 1.19764e-23)
(0.0186265 -0.000174154 -3.26343e-25)
(0.0186312 -0.000184339 1.13105e-24)
(0.0203152 0.000114351 -3.08491e-26)
(0.0203381 6.70546e-05 6.19021e-25)
(0.0203633 2.83854e-05 -9.18739e-25)
(0.0203891 -4.40607e-06 -1.47326e-26)
(0.0204147 -3.25568e-05 1.57592e-24)
(0.0204388 -5.72688e-05 4.0656e-24)
(0.0204608 -7.93756e-05 -1.5737e-23)
(0.0204804 -9.94012e-05 1.35794e-24)
(0.0204975 -0.000117632 7.99274e-24)
(0.0205121 -0.000134216 -3.60515e-24)
(0.0205244 -0.000149224 9.87195e-24)
(0.0205345 -0.000162706 6.75991e-24)
(0.0205429 -0.000174715 -1.23104e-23)
(0.0205496 -0.000185327 8.25166e-24)
(0.0205555 -0.000194639 -6.83876e-24)
(0.0222856 0.000105669 -7.7507e-25)
(0.0223061 5.62254e-05 8.852e-25)
(0.0223282 1.534e-05 8.80925e-25)
(0.0223509 -1.91167e-05 -6.23166e-24)
(0.0223733 -4.85782e-05 5.61993e-24)
(0.0223943 -7.41587e-05 -4.45619e-24)
(0.0224135 -9.66792e-05 3.16747e-24)
(0.0224305 -0.00011669 -2.29213e-23)
(0.0224454 -0.00013455 3.30668e-23)
(0.0224582 -0.000150509 -1.93709e-23)
(0.0224691 -0.000164747 1.72626e-23)
(0.0224783 -0.000177414 1.41853e-23)
(0.0224862 -0.00018864 -2.47411e-23)
(0.0224926 -0.000198555 7.98506e-24)
(0.0224985 -0.000207289 -3.31524e-25)
(0.0242579 9.76772e-05 -2.63701e-26)
(0.0242751 4.6621e-05 9.7023e-25)
(0.0242929 3.97103e-06 -1.09285e-24)
(0.0243109 -3.1843e-05 -1.55544e-25)
(0.0243286 -6.22978e-05 1.99699e-24)
(0.024345 -8.85411e-05 -3.6037e-24)
(0.02436 -0.000111389 3.54877e-24)
(0.0243732 -0.000131419 -1.15892e-23)
(0.0243848 -0.000149053 2.65678e-23)
(0.0243948 -0.000164621 -3.41315e-23)
(0.0244034 -0.000178381 2.7953e-23)
(0.0244107 -0.000190551 -9.43062e-24)
(0.024417 -0.000201311 4.72816e-25)
(0.0244222 -0.00021082 2.09328e-24)
(0.0244271 -0.000219224 -4.04733e-24)
(0.026128 8.90525e-05 -2.18046e-24)
(0.0261439 3.75246e-05 5.2991e-24)
(0.0261591 -5.80092e-06 -3.40114e-24)
(0.0261737 -4.22467e-05 1.83436e-25)
(0.0261875 -7.31742e-05 1.54457e-24)
(0.0262001 -9.97099e-05 -2.03434e-24)
(0.0262114 -0.000122667 -2.66516e-24)
(0.0262213 -0.000142637 -6.92353e-24)
(0.02623 -0.000160077 3.14371e-24)
(0.0262373 -0.000175365 1.70496e-23)
(0.0262437 -0.000188808 -9.09859e-24)
(0.026249 -0.000200658 5.49773e-24)
(0.0262536 -0.000211124 -2.26591e-24)
(0.0262574 -0.000220381 -6.69181e-24)
(0.0262609 -0.000228581 3.4176e-24)
(0.0277692 7.82347e-05 7.27574e-25)
(0.0277851 2.75375e-05 -1.41735e-24)
(0.0277989 -1.53761e-05 -2.75113e-24)
(0.0278115 -5.15218e-05 6.30091e-24)
(0.0278229 -8.22164e-05 -1.73122e-24)
(0.027833 -0.000108564 -8.12314e-25)
(0.0278418 -0.000131327 -6.41476e-25)
(0.0278494 -0.000151073 -1.60024e-24)
(0.0278559 -0.000168265 1.2272e-24)
(0.0278615 -0.000183296 -2.1352e-24)
(0.0278662 -0.000196486 4.8626e-24)
(0.0278701 -0.000208099 2.71611e-24)
(0.0278735 -0.00021835 -1.00291e-23)
(0.0278762 -0.000227418 7.02417e-24)
(0.0278787 -0.00023545 -1.4487e-24)
(0.0290272 6.50254e-05 2.20407e-24)
(0.0290427 1.63947e-05 4.89681e-24)
(0.0290561 -2.48948e-05 -1.03915e-23)
(0.0290678 -5.98918e-05 -4.09178e-24)
(0.0290779 -8.98357e-05 7.78766e-24)
(0.0290865 -0.00011564 3.28127e-24)
(0.0290938 -0.000137962 -3.71099e-25)
(0.0291001 -0.000157339 -4.66179e-24)
(0.0291053 -0.000174224 2.57462e-25)
(0.0291096 -0.000189002 -1.43116e-24)
(0.0291132 -0.000201979 1.76531e-24)
(0.0291159 -0.00021341 -1.82996e-25)
(0.0291182 -0.0002235 -2.3249e-25)
(0.0291199 -0.000232419 3.41536e-25)
(0.0291212 -0.000240304 -1.66065e-25)
(0.0296995 4.78168e-05 -5.94287e-24)
(0.0297155 3.34064e-06 -1.49718e-23)
(0.029728 -3.47565e-05 5.039e-24)
(0.0297375 -6.75028e-05 3.21181e-23)
(0.0297445 -9.57737e-05 -9.71396e-24)
(0.0297497 -0.00012023 -6.57518e-24)
(0.0297536 -0.000141429 4.32651e-24)
(0.0297564 -0.000159866 1.16779e-23)
(0.0297582 -0.000175967 -2.14673e-23)
(0.0297593 -0.000190083 8.01267e-24)
(0.0297596 -0.000202489 -5.15584e-25)
(0.0297594 -0.000213415 2.20181e-24)
(0.0297587 -0.000223041 6.18892e-25)
(0.0297576 -0.000231525 -3.92131e-25)
(0.0297562 -0.000238987 -3.02618e-26)
(0.0295457 2.83721e-05 9.65493e-24)
(0.0295612 -1.14159e-05 -2.29812e-23)
(0.029573 -4.57072e-05 3.07174e-24)
(0.0295817 -7.54455e-05 3.99963e-23)
(0.029588 -0.000101261 -4.12731e-23)
(0.0295925 -0.000123649 1.6995e-23)
(0.0295955 -0.000143086 1.86591e-23)
(0.0295974 -0.000160018 -4.39461e-23)
(0.0295984 -0.000174824 -1.01021e-24)
(0.0295984 -0.000187808 1.63738e-23)
(0.0295978 -0.000199206 5.23735e-24)
(0.0295965 -0.000209212 -3.99081e-24)
(0.0295947 -0.000217983 3.52041e-24)
(0.0295924 -0.000225654 -1.4073e-24)
(0.0295897 -0.000232329 4.92784e-25)
(0.0286104 1.20353e-05 6.10695e-24)
(0.0286212 -2.27394e-05 -1.31655e-23)
(0.0286284 -5.30501e-05 -1.01393e-23)
(0.0286328 -7.95373e-05 4.76285e-23)
(0.028635 -0.000102647 -4.58189e-23)
(0.0286358 -0.00012278 4.16494e-24)
(0.0286353 -0.000140348 8.41769e-24)
(0.0286339 -0.000155729 5.55407e-24)
(0.0286316 -0.000169227 6.44118e-24)
(0.0286286 -0.000181085 -3.52162e-23)
(0.028625 -0.00019149 2.20986e-23)
(0.0286208 -0.0002006 1.23124e-25)
(0.0286161 -0.000208542 1.29828e-23)
(0.0286111 -0.000215424 -6.05345e-24)
(0.0286056 -0.000221331 -1.37894e-24)
(0.0271002 -1.79893e-07 1.53489e-23)
(0.0271108 -2.99046e-05 -2.76084e-23)
(0.0271175 -5.63607e-05 5.53337e-24)
(0.0271211 -7.96526e-05 -1.50494e-23)
(0.0271223 -0.000100056 -2.1158e-23)
(0.0271217 -0.000117939 6.91399e-23)
(0.0271197 -0.000133652 -2.80493e-23)
(0.0271165 -0.00014748 8.58889e-24)
(0.0271123 -0.000159648 -5.05294e-24)
(0.0271072 -0.00017034 -1.50209e-23)
(0.0271014 -0.000179702 2.94451e-23)
(0.027095 -0.00018786 -1.79387e-23)
(0.0270879 -0.00019491 2.119e-24)
(0.0270804 -0.000200941 3.33391e-24)
(0.0270724 -0.000206017 -4.18803e-25)
(0.0252579 -1.09756e-05 5.9493e-24)
(0.0252663 -3.63782e-05 -3.13831e-23)
(0.0252708 -5.90383e-05 5.55015e-23)
(0.0252723 -7.90612e-05 -4.32988e-23)
(0.0252715 -9.6701e-05 4.52365e-23)
(0.0252687 -0.000112257 -1.44358e-23)
(0.0252643 -0.00012599 -1.04509e-23)
(0.0252586 -0.000138102 -1.25121e-23)
(0.0252517 -0.000148758 2.41395e-23)
(0.025244 -0.000158095 6.50475e-25)
(0.0252354 -0.000166229 -2.49506e-23)
(0.0252262 -0.000173257 -3.90781e-24)
(0.0252162 -0.000179254 6.81703e-24)
(0.0252058 -0.000184287 -1.64217e-24)
(0.0251948 -0.000188407 3.85921e-25)
(0.0232279 -1.87823e-05 7.94601e-25)
(0.023233 -4.00202e-05 -1.18418e-23)
(0.0232343 -5.89876e-05 -7.03906e-24)
(0.0232327 -7.58442e-05 5.62307e-23)
(0.0232287 -9.0799e-05 -5.62202e-23)
(0.0232228 -0.000104054 1.66656e-23)
(0.0232152 -0.000115782 2.93068e-24)
(0.0232063 -0.00012613 -1.60831e-24)
(0.0231962 -0.000135217 -8.09384e-24)
(0.0231851 -0.000143149 3.63401e-23)
(0.0231732 -0.000150013 -2.9452e-23)
(0.0231605 -0.000155883 -1.64974e-24)
(0.0231471 -0.000160813 2.82344e-24)
(0.0231333 -0.000164856 2.89401e-24)
(0.0231188 -0.000168049 -2.30781e-24)
(0.0211105 -2.26751e-05 1.18401e-24)
(0.0211116 -4.00775e-05 1.10224e-23)
(0.0211091 -5.56982e-05 -1.26143e-23)
(0.0211039 -6.96728e-05 -9.07226e-24)
(0.0210964 -8.21431e-05 5.8876e-23)
(0.0210869 -9.32342e-05 -4.50121e-23)
(0.0210759 -0.000103062 -8.83843e-25)
(0.0210635 -0.000111731 -9.95177e-24)
(0.02105 -0.000119329 -9.76392e-25)
(0.0210356 -0.000125936 1.37305e-24)
(0.0210202 -0.000131614 -6.39863e-24)
(0.0210042 -0.000136416 4.75144e-24)
(0.0209875 -0.000140384 1.58786e-24)
(0.0209704 -0.000143553 1.58609e-24)
(0.0209527 -0.000145952 2.26507e-24)
(0.0189783 -2.30578e-05 8.43561e-24)
(0.0189755 -3.71187e-05 -1.29997e-23)
(0.0189696 -4.9815e-05 -1.07948e-23)
(0.0189611 -6.1238e-05 3.30147e-23)
(0.0189504 -7.14812e-05 -1.18044e-23)
(0.0189379 -8.06245e-05 -1.73385e-23)
(0.0189239 -8.8745e-05 5.98154e-24)
(0.0189086 -9.59144e-05 1.42494e-23)
(0.0188923 -0.000102196 -2.33901e-23)
(0.018875 -0.000107643 2.38201e-23)
(0.018857 -0.000112299 -1.31978e-23)
(0.0188383 -0.000116201 5.95076e-24)
(0.018819 -0.000119378 -8.5305e-24)
(0.0187994 -0.000121856 8.82114e-24)
(0.0187793 -0.000123654 -2.28421e-24)
(0.0168861 -2.10018e-05 -1.63529e-24)
(0.0168805 -3.22347e-05 -5.78282e-24)
(0.016872 -4.24313e-05 -1.8747e-23)
(0.0168612 -5.16617e-05 5.24065e-23)
(0.0168484 -5.99874e-05 -9.18251e-24)
(0.0168339 -6.74552e-05 -1.51283e-23)
(0.0168179 -7.4112e-05 5.52277e-24)
(0.0168008 -8.00038e-05 -7.95874e-24)
(0.0167826 -8.51723e-05 -1.81952e-23)
(0.0167636 -8.96525e-05 1.74533e-23)
(0.0167438 -9.3473e-05 8.37965e-25)
(0.0167234 -9.66581e-05 -6.4841e-24)
(0.0167026 -9.9226e-05 7.35749e-24)
(0.0166814 -0.000101195 5.48021e-25)
(0.0166598 -0.000102578 -6.75851e-25)
(0.0148745 -1.77001e-05 6.28303e-24)
(0.0148673 -2.65807e-05 9.45687e-24)
(0.0148575 -3.46847e-05 -8.62094e-24)
(0.0148455 -4.20773e-05 -1.95187e-23)
(0.0148316 -4.87896e-05 2.66966e-23)
(0.0148161 -5.48423e-05 -2.9702e-23)
(0.0147992 -6.02617e-05 -1.51131e-24)
(0.0147812 -6.50765e-05 1.17672e-23)
(0.0147622 -6.93125e-05 4.23236e-24)
(0.0147423 -7.29914e-05 -9.39875e-24)
(0.0147217 -7.61302e-05 -4.61603e-25)
(0.0147006 -7.87435e-05 2.06719e-23)
(0.014679 -8.08424e-05 -7.9617e-24)
(0.0146571 -8.24391e-05 -2.21037e-24)
(0.0146349 -8.35426e-05 -1.54589e-25)
(0.0129699 -1.40857e-05 -6.51561e-24)
(0.0129621 -2.10234e-05 8.4086e-24)
(0.012952 -2.73933e-05 9.92007e-25)
(0.0129398 -3.3252e-05 1.77312e-23)
(0.0129257 -3.86032e-05 -1.43115e-23)
(0.0129101 -4.34532e-05 1.3192e-24)
(0.0128931 -4.78175e-05 -1.45719e-24)
(0.0128749 -5.17132e-05 -4.74134e-24)
(0.0128558 -5.51548e-05 4.49461e-24)
(0.0128358 -5.81537e-05 -1.45745e-23)
(0.0128151 -6.07191e-05 7.10889e-25)
(0.0127938 -6.28589e-05 3.48016e-24)
(0.012772 -6.45792e-05 2.3358e-24)
(0.0127499 -6.5888e-05 9.89226e-25)
(0.0127276 -6.67906e-05 4.18312e-25)
(0.0111868 -1.07008e-05 4.81826e-24)
(0.0111791 -1.60389e-05 -3.79749e-24)
(0.0111692 -2.09716e-05 -1.71783e-23)
(0.0111574 -2.55404e-05 1.61414e-23)
(0.0111437 -2.97331e-05 2.32492e-23)
(0.0111285 -3.35522e-05 -5.57293e-24)
(0.011112 -3.70074e-05 -1.21154e-23)
(0.0110942 -4.01072e-05 -1.78238e-23)
(0.0110755 -4.28582e-05 1.36105e-23)
(0.0110558 -4.52651e-05 9.15081e-25)
(0.0110355 -4.73321e-05 -3.27764e-24)
(0.0110145 -4.90627e-05 -1.01264e-24)
(0.010993 -5.04598e-05 2.05306e-24)
(0.0109712 -5.15284e-05 -2.24755e-26)
(0.0109492 -5.22708e-05 -4.7552e-25)
(0.00953033 -7.78419e-06 -3.02766e-24)
(0.00952321 -1.18117e-05 -2.22161e-24)
(0.00951406 -1.5552e-05 2.62255e-24)
(0.00950294 -1.90328e-05 -8.71202e-24)
(0.00949009 -2.22389e-05 2.87217e-23)
(0.00947571 -2.5174e-05 -3.8726e-23)
(0.00945998 -2.78437e-05 3.86501e-23)
(0.00944305 -3.02506e-05 -1.65573e-23)
(0.00942508 -3.23964e-05 3.99238e-24)
(0.0094062 -3.42821e-05 2.24902e-25)
(0.00938656 -3.5909e-05 -3.1495e-24)
(0.0093663 -3.72778e-05 1.30745e-24)
(0.00934552 -3.83896e-05 -2.71488e-24)
(0.00932438 -3.92466e-05 -4.15464e-25)
(0.00930298 -3.98496e-05 2.21329e-25)
(0.00800023 -5.40347e-06 -1.46894e-24)
(0.0079939 -8.36695e-06 3.62984e-25)
(0.00798566 -1.11232e-05 8.23836e-25)
(0.00797556 -1.36933e-05 -3.95323e-24)
(0.00796379 -1.60678e-05 -1.87862e-24)
(0.00795054 -1.82525e-05 1.58341e-23)
(0.00793596 -2.02495e-05 -9.37171e-24)
(0.0079202 -2.20582e-05 1.41104e-24)
(0.00790339 -2.36781e-05 -1.35086e-24)
(0.00788568 -2.51083e-05 -1.55377e-24)
(0.00786718 -2.63483e-05 -5.33035e-25)
(0.00784804 -2.73973e-05 3.18957e-24)
(0.00782838 -2.82554e-05 1.02322e-24)
(0.00780833 -2.89229e-05 -2.0824e-24)
(0.00778799 -2.93997e-05 -3.669e-25)
(0.00659279 -3.54181e-06 -5.31264e-25)
(0.00658736 -5.65742e-06 -1.84936e-25)
(0.00658019 -7.61315e-06 -8.8185e-24)
(0.00657129 -9.43506e-06 2.22945e-24)
(0.00656083 -1.11227e-05 -6.64526e-24)
(0.00654898 -1.26826e-05 4.39444e-24)
(0.00653585 -1.41151e-05 8.77913e-24)
(0.0065216 -1.54185e-05 6.86841e-24)
(0.00650633 -1.65911e-05 -9.79152e-24)
(0.00649017 -1.76312e-05 2.95795e-24)
(0.00647325 -1.85376e-05 2.70994e-24)
(0.00645568 -1.9309e-05 -4.10985e-24)
(0.00643758 -1.99448e-05 2.20416e-24)
(0.00641909 -2.04442e-05 -2.54726e-25)
(0.0064003 -2.08063e-05 6.85244e-25)
(0.00530259 -2.16739e-06 -2.06925e-24)
(0.00529813 -3.60591e-06 -2.91548e-24)
(0.00529213 -4.92528e-06 -5.95019e-25)
(0.00528457 -6.14928e-06 7.30163e-24)
(0.00527561 -7.28536e-06 -5.28033e-24)
(0.00526538 -8.34024e-06 -1.11356e-24)
(0.00525399 -9.31329e-06 8.7659e-24)
(0.00524155 -1.02026e-05 1.16656e-25)
(0.00522816 -1.10064e-05 -1.77539e-24)
(0.00521394 -1.17227e-05 -7.08157e-24)
(0.005199 -1.23504e-05 6.15036e-25)
(0.00518344 -1.28878e-05 5.19025e-24)
(0.00516737 -1.33343e-05 -6.79292e-25)
(0.00515091 -1.36885e-05 -8.74146e-25)
(0.00513414 -1.39492e-05 6.00025e-25)
(0.00412338 -1.21579e-06 -4.50873e-25)
(0.00411993 -2.12534e-06 2.21261e-26)
(0.00411515 -2.95429e-06 3.48134e-24)
(0.00410902 -3.71786e-06 2.40589e-24)
(0.0041017 -4.42784e-06 -1.57162e-24)
(0.00409327 -5.09006e-06 -4.09383e-24)
(0.00408382 -5.70368e-06 1.71519e-24)
(0.00407345 -6.26703e-06 -7.34664e-24)
(0.00406224 -6.77854e-06 5.68401e-24)
(0.00405029 -7.23661e-06 3.09833e-24)
(0.00403769 -7.64007e-06 1.15051e-25)
(0.00402453 -7.98761e-06 -3.55486e-24)
(0.00401089 -8.27852e-06 6.97138e-25)
(0.00399689 -8.51147e-06 -5.85508e-25)
(0.0039826 -8.68493e-06 3.07894e-25)
(0.00304861 -6.037e-07 -8.29117e-25)
(0.00304614 -1.12569e-06 8.12391e-27)
(0.00304256 -1.59565e-06 2.78119e-24)
(0.00303791 -2.02374e-06 -1.74219e-24)
(0.00303228 -2.42205e-06 7.38397e-24)
(0.00302576 -2.79484e-06 -1.35439e-23)
(0.0030184 -3.14137e-06 1.12359e-23)
(0.00301027 -3.46049e-06 -9.56239e-24)
(0.00300146 -3.75108e-06 7.02672e-24)
(0.00299202 -4.01203e-06 -4.64047e-24)
(0.00298203 -4.24253e-06 1.61673e-24)
(0.00297156 -4.44164e-06 2.45343e-25)
(0.00296069 -4.60889e-06 4.45247e-25)
(0.0029495 -4.74325e-06 -5.63745e-25)
(0.00293805 -4.84343e-06 1.26952e-25)
(0.00207159 -2.48561e-07 1.25712e-24)
(0.00206999 -5.10436e-07 1.39971e-24)
(0.00206757 -7.37861e-07 -5.96302e-24)
(0.00206435 -9.40534e-07 4.39812e-24)
(0.00206042 -1.12766e-06 -2.80805e-26)
(0.00205582 -1.30185e-06 1.19637e-24)
(0.00205061 -1.46297e-06 -1.42506e-24)
(0.00204483 -1.61066e-06 -3.11927e-24)
(0.00203852 -1.74461e-06 3.13694e-24)
(0.00203174 -1.86446e-06 3.74695e-25)
(0.00202454 -1.97003e-06 -2.69413e-24)
(0.00201698 -2.061e-06 9.59465e-25)
(0.00200909 -2.13737e-06 6.30685e-25)
(0.00200096 -2.19844e-06 -6.9549e-26)
(0.00199261 -2.24223e-06 -8.51954e-26)
(0.00118563 -6.14002e-08 -1.27258e-24)
(0.00118476 -1.45151e-07 3.93869e-24)
(0.00118337 -2.12716e-07 2.41419e-24)
(0.0011815 -2.71412e-07 -4.28148e-24)
(0.0011792 -3.25466e-07 -5.0493e-25)
(0.0011765 -3.76078e-07 -4.62296e-25)
(0.00117341 -4.23644e-07 1.44853e-24)
(0.00116996 -4.68469e-07 -2.47414e-24)
(0.00116619 -5.1084e-07 3.46283e-24)
(0.00116212 -5.50978e-07 -1.69081e-24)
(0.00115779 -5.89147e-07 -1.16957e-24)
(0.00115322 -6.25494e-07 7.29292e-25)
(0.00114845 -6.60318e-07 -9.62915e-25)
(0.00114351 -6.92557e-07 9.96452e-25)
(0.00113843 -7.16535e-07 -1.84284e-25)
(0.000384142 4.54522e-08 -9.11118e-27)
(0.000383821 1.21378e-07 7.67116e-25)
(0.000383327 1.79391e-07 8.96734e-25)
(0.000382675 2.18852e-07 -1.38946e-24)
(0.000381881 2.41355e-07 2.97122e-24)
(0.000380952 2.48806e-07 -3.21806e-24)
(0.000379894 2.43043e-07 2.18843e-25)
(0.000378715 2.25781e-07 1.87989e-24)
(0.000377423 1.9862e-07 -2.60389e-24)
(0.000376028 1.63044e-07 -5.12175e-25)
(0.000374539 1.20402e-07 1.93036e-24)
(0.000372967 7.19453e-08 -8.65751e-25)
(0.000371322 1.87487e-08 -3.60921e-25)
(0.000369615 -3.73959e-08 3.0784e-25)
(0.000367858 -9.17197e-08 -1.5221e-26)
(0.000913581 -0.000221382 6.11037e-26)
(0.00105082 -0.000127181 1.43364e-24)
(0.00128296 -3.31738e-05 -3.93201e-24)
(0.00152186 4.23296e-05 5.33627e-24)
(0.00175369 0.000101292 -1.99586e-24)
(0.00198298 0.000144411 -1.66402e-24)
(0.00220938 0.000174012 1.78416e-24)
(0.00243313 0.000192041 -3.29143e-24)
(0.00265458 0.000200155 2.90615e-25)
(0.002874 0.00019982 1.95928e-24)
(0.00309167 0.000192328 -3.58199e-25)
(0.00330791 0.000178809 3.77849e-25)
(0.00352312 0.000160255 -4.02996e-26)
(0.00373773 0.000137595 2.13558e-25)
(0.00395236 0.000111806 -7.73152e-25)
(0.00416769 8.40632e-05 4.13793e-25)
(0.004385 5.58608e-05 -9.98144e-26)
(0.00460596 2.92926e-05 2.51259e-26)
(0.00483377 6.62497e-06 1.48584e-25)
(0.00507248 -9.59182e-06 -8.09281e-26)
(0.00532813 -1.82778e-05 4.30491e-27)
(0.00560552 -2.05099e-05 -3.14166e-27)
(0.00588335 -2.25708e-05 5.86523e-27)
(0.00612749 -3.20466e-05 2.56141e-26)
(0.00632642 -5.11107e-05 -4.34177e-26)
(0.00648049 -7.91266e-05 -4.19042e-27)
(0.00659197 -0.000114862 4.4618e-26)
(0.00666365 -0.000157291 -9.13396e-26)
(0.00669799 -0.000205398 -5.93995e-25)
(0.00669562 -0.000257433 1.27926e-24)
(0.0066573 -0.000311568 -2.5627e-24)
(0.00658337 -0.00036418 3.52561e-24)
(0.00647373 -0.000409445 -1.4899e-24)
(0.00632838 -0.000441014 -3.0581e-24)
(0.00614816 -0.000451372 3.04488e-24)
(0.00593434 -0.000431984 1.20907e-23)
(0.00568862 -0.000373137 -4.33909e-24)
(0.00541314 -0.00026322 1.84099e-24)
(0.0051106 -8.72688e-05 5.9972e-25)
(0.00478494 0.000174612 -1.38395e-23)
(0.00444023 0.000545167 -1.59859e-25)
(0.00408155 0.00103711 5.18344e-24)
(0.00369304 0.00161075 1.38616e-24)
(0.00329485 0.00211405 -7.01419e-24)
(0.00306901 0.00213149 -3.26899e-25)
(0.00173398 -0.000303882 -1.73089e-24)
(0.00179343 -0.000246818 -2.18838e-24)
(0.0019405 -0.000156645 4.72524e-24)
(0.00212494 -7.44266e-05 1.87696e-24)
(0.00232236 -5.38834e-06 -6.5162e-24)
(0.00252766 4.81694e-05 6.54626e-24)
(0.00273643 8.7485e-05 -2.29183e-24)
(0.00294655 0.000114323 1.58999e-24)
(0.00315703 0.000130359 -2.11744e-24)
(0.00336732 0.000137131 3.0671e-26)
(0.0035772 0.000136009 -1.02079e-24)
(0.0037866 0.000128193 2.01362e-24)
(0.00399564 0.000114741 -1.09263e-24)
(0.00420453 9.6643e-05 -9.18122e-25)
(0.00441365 7.49289e-05 -5.1937e-25)
(0.00462343 5.08029e-05 1.13699e-24)
(0.00483487 2.57653e-05 -6.83735e-26)
(0.00504924 1.87648e-06 4.17265e-25)
(0.00526926 -1.86513e-05 5.62947e-27)
(0.00549835 -3.33232e-05 -8.83121e-26)
(0.00574191 -4.09936e-05 -1.93207e-26)
(0.00600429 -4.24678e-05 -5.45656e-27)
(0.00626586 -4.35485e-05 2.93048e-26)
(0.00649548 -5.13515e-05 4.1001e-26)
(0.00668286 -6.79334e-05 -4.30467e-26)
(0.00682839 -9.27608e-05 -6.2323e-26)
(0.00693405 -0.000124663 -4.67092e-26)
(0.00700227 -0.00016259 2.48385e-25)
(0.00703524 -0.000205349 -1.01315e-25)
(0.00703327 -0.000251005 4.1178e-25)
(0.00699741 -0.000297678 -4.13621e-24)
(0.00692803 -0.000341657 8.10741e-24)
(0.00682537 -0.000377043 -7.94139e-24)
(0.00668986 -0.000397565 1.7741e-23)
(0.006523 -0.000395832 -2.41253e-23)
(0.006327 -0.000363454 6.12143e-24)
(0.00610492 -0.000290922 1.96056e-23)
(0.00586101 -0.000167029 -6.20537e-24)
(0.00560129 2.23288e-05 -1.41103e-23)
(0.00533532 0.000295648 -7.61268e-24)
(0.00507774 0.000674501 1.73171e-23)
(0.0048532 0.00117223 -1.59227e-23)
(0.00468207 0.00175099 -2.87535e-24)
(0.00461401 0.00224808 9.44749e-24)
(0.00465669 0.00221704 2.69016e-24)
(0.00271065 -0.000313837 -1.92182e-26)
(0.00272211 -0.000299778 -2.59238e-24)
(0.00278894 -0.00024291 4.89793e-24)
(0.0029086 -0.000171677 3.57742e-24)
(0.00305685 -0.000103415 -6.03536e-24)
(0.00322445 -4.54433e-05 1.46462e-25)
(0.00340405 3.35749e-07 5.05064e-25)
(0.00359101 3.42553e-05 4.95784e-24)
(0.0037826 5.7334e-05 -5.82813e-24)
(0.00397712 7.08153e-05 3.39765e-24)
(0.00417353 7.59492e-05 9.40885e-25)
(0.00437119 7.38901e-05 -5.40363e-24)
(0.00456977 6.56934e-05 1.94225e-24)
(0.00476912 5.23687e-05 7.37302e-25)
(0.00496931 3.49764e-05 -1.42937e-24)
(0.00517044 1.47313e-05 2.17202e-24)
(0.00537317 -6.87112e-06 -1.40042e-24)
(0.0055783 -2.78117e-05 5.10385e-26)
(0.00578801 -4.59432e-05 1.29512e-25)
(0.00600502 -5.88295e-05 7.96796e-26)
(0.00623403 -6.5277e-05 1.57649e-26)
(0.00647877 -6.58146e-05 1.24694e-26)
(0.00672137 -6.57845e-05 -2.79693e-26)
(0.00693394 -7.1828e-05 8.4848e-26)
(0.0071075 -8.58597e-05 -1.16296e-25)
(0.00724248 -0.000107429 6.41658e-26)
(0.00734064 -0.000135411 2.23263e-25)
(0.00740404 -0.00016873 -3.52065e-25)
(0.00743454 -0.00020599 1.30924e-24)
(0.00743212 -0.000245092 9.47776e-25)
(0.00739832 -0.000284155 1.91899e-24)
(0.00733335 -0.000319334 -9.40429e-24)
(0.00723785 -0.000344701 3.70745e-24)
(0.00711272 -0.00035414 9.06591e-24)
(0.00696017 -0.000340509 -2.02622e-23)
(0.00678338 -0.000295782 2.89278e-23)
(0.00658684 -0.00021105 -1.84272e-23)
(0.00637684 -7.61879e-05 2.29271e-23)
(0.00616244 0.000120765 -4.25811e-23)
(0.0059578 0.000394273 1.59375e-23)
(0.00578467 0.00075932 5.2038e-24)
(0.0056772 0.00122063 7.51283e-24)
(0.00566607 0.00173432 -9.31113e-24)
(0.00579061 0.00214931 2.27616e-24)
(0.00595332 0.0021146 -1.33327e-24)
(0.0038248 -0.000299474 -7.05507e-25)
(0.00381051 -0.000311653 -1.00208e-24)
(0.00382585 -0.000286822 -4.10551e-24)
(0.00388326 -0.000239061 1.41545e-24)
(0.00397734 -0.000182144 9.1279e-25)
(0.00409823 -0.000127743 2.89629e-24)
(0.00423873 -8.08876e-05 -5.38934e-24)
(0.0043931 -4.33676e-05 2.19089e-24)
(0.00455729 -1.54505e-05 6.34429e-24)
(0.00472846 3.36975e-06 -1.72048e-24)
(0.00490468 1.3936e-05 -1.51476e-24)
(0.00508461 1.71724e-05 -2.32882e-25)
(0.00526738 1.40125e-05 7.34167e-25)
(0.00545237 5.40957e-06 -1.40061e-24)
(0.00563924 -7.59638e-06 3.41674e-25)
(0.00582772 -2.3815e-05 -6.54937e-26)
(0.00601806 -4.17814e-05 -4.36941e-25)
(0.00621053 -5.95362e-05 2.97036e-25)
(0.00640673 -7.50154e-05 5.89239e-25)
(0.0066086 -8.58593e-05 -1.04971e-25)
(0.00682004 -9.08446e-05 -6.87836e-26)
(0.00704406 -9.02372e-05 -8.35188e-27)
(0.00726461 -8.89444e-05 -4.44426e-26)
(0.00745727 -9.31289e-05 -2.45317e-27)
(0.00761441 -0.000104538 -4.92622e-26)
(0.00773655 -0.000122782 1.26809e-25)
(0.00782521 -0.000146767 2.63836e-25)
(0.00788212 -0.000175389 -7.72927e-25)
(0.00790875 -0.00020699 1.51058e-24)
(0.00790477 -0.000239441 4.34809e-26)
(0.0078725 -0.000270841 -1.70394e-24)
(0.00781156 -0.000297182 -2.90486e-25)
(0.00772321 -0.00031263 -3.192e-25)
(0.00760879 -0.000311343 -2.25519e-24)
(0.00747124 -0.000286596 3.73028e-24)
(0.00731467 -0.00023101 -8.40748e-24)
(0.00714484 -0.000136707 3.64675e-23)
(0.00696972 4.67515e-06 -1.96335e-23)
(0.0068005 0.000201919 -1.18418e-24)