/*--------------------------------*- C++ -*----------------------------------*\
| =========                 |                                                 |
| \\      /  F ield         | OpenFOAM: The Open Source CFD Toolbox           |
|  \\    /   O peration     | Version:  2312                                  |
|   \\  /    A nd           | Website:  www.openfoam.com                      |
|    \\/     M anipulation  |                                                 |
\*---------------------------------------------------------------------------*/
FoamFile
{
    version     2.0;
    format      ascii;
    arch        "LSB;label=32;scalar=64";
    class       surfaceScalarField;
    location    "97";
    object      phi;
}
// * * * * * * * * * * * * * * * * * * * * * * * * * * * * * * * * * * * * * //

dimensions      [0 3 -1 0 0 0 0];

oriented        oriented;

internalField   nonuniform List<scalar> 
9445
(
6.10675e-10
1.6318e-11
5.99659e-10
1.10159e-11
5.92193e-10
7.46566e-12
5.87297e-10
4.89607e-12
5.84394e-10
2.90269e-12
5.83134e-10
1.26085e-12
5.83364e-10
-2.30748e-13
5.85088e-10
-1.72324e-12
5.88306e-10
-3.21811e-12
5.93395e-10
-5.08976e-12
6.01547e-10
-8.15119e-12
6.16356e-10
-1.48092e-11
6.50578e-10
-3.42225e-11
7.4957e-10
-9.8992e-11
-2.60882e-10
1.01045e-09
2.12591e-09
7.26826e-11
2.08741e-09
4.95145e-11
2.06093e-09
3.39475e-11
2.04315e-09
2.26697e-11
2.03211e-09
1.39459e-11
2.02656e-09
6.81393e-12
2.02592e-09
4.10028e-13
2.02996e-09
-5.76284e-12
2.03875e-09
-1.20146e-11
2.0535e-09
-1.98388e-11
2.07716e-09
-3.18144e-11
2.11667e-09
-5.43166e-11
2.1858e-09
-1.03353e-10
2.2982e-09
-2.11393e-10
-3.81314e-10
2.41863e-09
4.18624e-09
1.82025e-10
4.11083e-09
1.24928e-10
4.05835e-09
8.64279e-11
4.0225e-09
5.85224e-11
3.99943e-09
3.70121e-11
3.9867e-09
1.95502e-11
3.98301e-09
4.09252e-12
3.98768e-09
-1.04313e-11
4.0006e-09
-2.49325e-11
4.02332e-09
-4.25561e-11
4.0587e-09
-6.72002e-11
4.11137e-09
-1.06982e-10
4.18424e-09
-1.76221e-10
4.26355e-09
-2.90702e-10
-4.28604e-10
4.31084e-09
6.93965e-09
3.59054e-10
6.81622e-09
2.48357e-10
6.72927e-09
1.73387e-10
6.66879e-09
1.19003e-10
6.62858e-09
7.72201e-11
6.60457e-09
4.35596e-11
6.59442e-09
1.42386e-11
6.59662e-09
-1.26253e-11
6.61047e-09
-3.87872e-11
6.63677e-09
-6.8856e-11
6.67655e-09
-1.06979e-10
6.72921e-09
-1.59643e-10
6.78808e-09
-2.35092e-10
6.83253e-09
-3.35151e-10
-4.34254e-10
6.83818e-09
1.05654e-08
6.18837e-10
1.03819e-08
4.3186e-10
1.02508e-08
3.04453e-10
1.0158e-08
2.11865e-10
1.00943e-08
1.40922e-10
1.00536e-08
8.41845e-11
1.00321e-08
3.57441e-11
1.00272e-08
-7.67058e-12
1.00371e-08
-4.86952e-11
1.00606e-08
-9.23214e-11
1.00959e-08
-1.42328e-10
1.01382e-08
-2.0189e-10
1.01763e-08
-2.73232e-10
1.01926e-08
-3.51464e-10
-4.17413e-10
1.01758e-08
1.52757e-08
9.73569e-10
1.5021e-08
6.86582e-10
1.48361e-08
4.89295e-10
1.47026e-08
3.45409e-10
1.46082e-08
2.35322e-10
1.45446e-08
1.47829e-10
1.45057e-08
7.45899e-11
1.44875e-08
1.05595e-11
1.44867e-08
-4.79089e-11
1.44998e-08
-1.05439e-10
1.45222e-08
-1.64746e-10
1.45468e-08
-2.26441e-10
1.45626e-08
-2.89091e-10
1.45581e-08
-3.46914e-10
-3.89018e-10
1.45297e-08
2.13134e-08
1.42663e-09
2.09809e-08
1.01902e-09
2.0735e-08
7.35201e-10
2.05536e-08
5.26873e-10
2.04215e-08
3.67388e-10
2.03281e-08
2.41214e-10
2.02653e-08
1.37396e-10
2.0227e-08
4.88932e-11
2.0208e-08
-2.89461e-11
2.02029e-08
-1.00289e-10
2.02051e-08
-1.66986e-10
2.02072e-08
-2.28531e-10
2.02008e-08
-2.82744e-10
2.01798e-08
-3.25821e-10
-3.53188e-10
2.01439e-08
2.89435e-08
1.96364e-09
2.85376e-08
1.42488e-09
2.823e-08
1.0428e-09
2.79975e-08
7.59401e-10
2.78233e-08
5.41623e-10
2.76948e-08
3.69706e-10
2.76021e-08
2.30099e-10
2.75372e-08
1.13806e-10
2.74931e-08
1.51273e-11
2.74629e-08
-7.00521e-11
2.74395e-08
-1.43585e-10
2.74162e-08
-2.05287e-10
2.73877e-08
-2.54189e-10
2.7351e-08
-2.89131e-10
-3.09417e-10
2.73072e-08
3.84397e-08
2.5431e-09
3.79831e-08
1.88143e-09
3.76258e-08
1.40014e-09
3.73477e-08
1.03746e-09
3.71328e-08
7.56519e-10
3.69681e-08
5.34473e-10
3.68425e-08
3.55675e-10
3.67468e-08
2.09467e-10
3.6673e-08
8.89381e-11
3.66133e-08
-1.0356e-11
3.65613e-08
-9.15665e-11
3.65116e-08
-1.55558e-10
3.64608e-08
-2.03375e-10
3.64078e-08
-2.36113e-10
-2.55231e-10
3.63536e-08
5.00741e-08
3.0949e-09
4.96126e-08
2.34297e-09
4.92351e-08
1.7776e-09
4.89304e-08
1.34216e-09
4.86865e-08
1.00047e-09
4.8492e-08
7.28959e-10
4.83366e-08
5.11067e-10
4.8211e-08
3.35055e-10
4.81071e-08
1.92869e-10
4.80179e-08
7.88103e-11
4.79376e-08
-1.12214e-11
4.78624e-08
-8.04035e-11
4.77902e-08
-1.31188e-10
4.77205e-08
-1.66387e-10
-1.8859e-10
4.76539e-08
6.41361e-08
3.54023e-09
6.37301e-08
2.74899e-09
6.33772e-08
2.13047e-09
6.30783e-08
1.64106e-09
6.28285e-08
1.25027e-09
6.26206e-08
9.36854e-10
6.24467e-08
6.8494e-10
6.22993e-08
4.82538e-10
6.21714e-08
3.20688e-10
6.20578e-08
1.925e-10
6.1954e-08
9.24916e-11
6.18576e-08
1.60467e-11
6.17671e-08
-4.07275e-11
6.16823e-08
-8.15251e-11
-1.09524e-10
6.16032e-08
8.10046e-08
3.83416e-09
8.07015e-08
3.05207e-09
8.04155e-08
2.41646e-09
8.01576e-08
1.89898e-09
7.99302e-08
1.47771e-09
7.97311e-08
1.13588e-09
7.95564e-08
8.59694e-10
7.94013e-08
6.37669e-10
7.92615e-08
4.60441e-10
7.91337e-08
3.20275e-10
7.90155e-08
2.10717e-10
7.89053e-08
1.26226e-10
7.88025e-08
6.21212e-11
7.87067e-08
1.42449e-11
-2.07866e-11
7.8618e-08
1.01246e-07
3.9963e-09
1.01049e-07
3.24888e-09
1.00843e-07
2.62207e-09
1.00644e-07
2.09879e-09
1.00456e-07
1.66537e-09
1.00282e-07
1.30972e-09
1.00121e-07
1.02043e-09
9.99721e-08
7.86873e-10
9.98328e-08
5.99713e-10
9.97022e-08
4.50871e-10
9.95795e-08
3.33479e-10
9.94641e-08
2.41614e-10
9.93559e-08
1.70327e-10
9.92547e-08
1.15354e-10
7.32599e-11
9.91607e-08
1.25605e-07
4.07262e-09
1.25479e-07
3.37446e-09
1.25334e-07
2.76778e-09
1.25181e-07
2.25118e-09
1.25029e-07
1.81764e-09
1.2488e-07
1.45872e-09
1.24736e-07
1.16482e-09
1.24596e-07
9.26083e-10
1.24463e-07
7.33437e-10
1.24335e-07
5.78862e-10
1.24213e-07
4.555e-10
1.24097e-07
3.57438e-10
1.23987e-07
2.79768e-10
1.23884e-07
2.1831e-10
1.69718e-10
1.23788e-07
1.54801e-07
4.09598e-09
1.54721e-07
3.45422e-09
1.54613e-07
2.87601e-09
1.54489e-07
2.37437e-09
1.54359e-07
1.94844e-09
1.54225e-07
1.59291e-09
1.5409e-07
1.2997e-09
1.53956e-07
1.05969e-09
1.53825e-07
8.64298e-10
1.53698e-07
7.05856e-10
1.53576e-07
5.77795e-10
1.53459e-07
4.74438e-10
1.53348e-07
3.91072e-10
1.53242e-07
3.23709e-10
2.69154e-10
1.53143e-07
1.89314e-07
4.06933e-09
1.89281e-07
3.48783e-09
1.89206e-07
2.9506e-09
1.89108e-07
2.47233e-09
1.88995e-07
2.06146e-09
1.88872e-07
1.71544e-09
1.88745e-07
1.42754e-09
1.88615e-07
1.18961e-09
1.88485e-07
9.93842e-10
1.88358e-07
8.3325e-10
1.88234e-07
7.01745e-10
1.88114e-07
5.94037e-10
1.88e-07
5.05711e-10
1.8789e-07
4.33037e-10
3.73006e-10
1.87786e-07
2.2927e-07
3.99709e-09
2.29287e-07
3.47021e-09
2.29256e-07
2.98182e-09
2.29189e-07
2.53927e-09
2.29099e-07
2.15116e-09
2.28993e-07
1.82145e-09
2.28877e-07
1.54404e-09
2.28754e-07
1.31207e-09
2.28629e-07
1.11892e-09
2.28504e-07
9.58492e-10
2.28381e-07
8.2534e-10
2.2826e-07
7.1468e-10
2.28143e-07
6.22493e-10
2.28031e-07
5.45367e-10
4.8055e-10
2.27923e-07
2.74234e-07
3.87975e-09
2.74306e-07
3.3988e-09
2.74325e-07
2.96226e-09
2.74299e-07
2.56511e-09
2.7424e-07
2.21019e-09
2.74157e-07
1.90446e-09
2.74058e-07
1.6432e-09
2.73948e-07
1.4217e-09
2.73833e-07
1.23482e-09
2.73714e-07
1.07748e-09
2.73594e-07
9.44997e-10
2.73475e-07
8.33205e-10
2.73359e-07
7.38557e-10
2.73247e-07
6.58027e-10
5.89235e-10
2.73138e-07
3.22739e-07
3.67308e-09
3.22864e-07
3.27381e-09
3.22934e-07
2.89256e-09
3.22956e-07
2.54242e-09
3.22939e-07
2.22743e-09
3.22891e-07
1.95211e-09
3.22821e-07
1.71326e-09
3.22735e-07
1.50767e-09
3.22639e-07
1.33162e-09
3.22535e-07
1.18114e-09
3.22427e-07
1.05242e-09
3.22319e-07
9.41995e-10
3.2221e-07
8.46871e-10
3.22104e-07
7.64463e-10
6.92663e-10
3.22e-07
3.71559e-07
3.37152e-09
3.71776e-07
3.05667e-09
3.71923e-07
2.74556e-09
3.72014e-07
2.45181e-09
3.72057e-07
2.18381e-09
3.72064e-07
1.94496e-09
3.72043e-07
1.73478e-09
3.71999e-07
1.55115e-09
3.7194e-07
1.39131e-09
3.71869e-07
1.25229e-09
3.7179e-07
1.13116e-09
3.71707e-07
1.02525e-09
3.71621e-07
9.32192e-10
3.71536e-07
8.4989e-10
7.76715e-10
3.71452e-07
3.68861e-07
3.0581e-09
3.69106e-07
2.81177e-09
3.69291e-07
2.56047e-09
3.69423e-07
2.31934e-09
3.69511e-07
2.09638e-09
3.69561e-07
1.89441e-09
3.69582e-07
1.71379e-09
3.6958e-07
1.55337e-09
3.6956e-07
1.41128e-09
3.69527e-07
1.28537e-09
3.69485e-07
1.17348e-09
3.69436e-07
1.0736e-09
3.69385e-07
9.83908e-10
3.69332e-07
9.02792e-10
8.29088e-10
3.69279e-07
3.15748e-07
2.70347e-09
3.16043e-07
2.51642e-09
3.16283e-07
2.32045e-09
3.16473e-07
2.12906e-09
3.1662e-07
1.94954e-09
3.1673e-07
1.78445e-09
3.16809e-07
1.63431e-09
3.16864e-07
1.49862e-09
3.16899e-07
1.37625e-09
3.16919e-07
1.26576e-09
3.16927e-07
1.16564e-09
3.16926e-07
1.07443e-09
3.16919e-07
9.908e-10
3.16908e-07
9.13551e-10
8.4167e-10
3.16896e-07
2.64076e-07
2.38882e-09
2.6435e-07
2.24251e-09
2.64583e-07
2.08712e-09
2.64779e-07
1.93356e-09
2.6494e-07
1.78761e-09
2.65073e-07
1.65163e-09
2.65181e-07
1.52618e-09
2.65269e-07
1.41101e-09
2.6534e-07
1.30538e-09
2.65397e-07
1.20829e-09
2.65444e-07
1.11866e-09
2.65483e-07
1.03544e-09
2.65517e-07
9.57641e-10
2.65546e-07
8.84389e-10
8.14926e-10
2.65572e-07
2.17242e-07
2.08957e-09
2.1751e-07
1.97433e-09
2.17746e-07
1.8512e-09
2.17951e-07
1.7283e-09
2.18129e-07
1.61013e-09
2.18282e-07
1.49861e-09
2.18414e-07
1.39428e-09
2.18528e-07
1.29697e-09
2.18627e-07
1.20617e-09
2.18714e-07
1.12123e-09
2.18791e-07
1.04137e-09
2.18861e-07
9.65853e-10
2.18925e-07
8.93988e-10
2.18984e-07
8.25148e-10
7.58811e-10
2.1904e-07
1.7626e-07
1.7964e-09
1.76528e-07
1.70586e-09
1.7677e-07
1.60904e-09
1.76987e-07
1.51164e-09
1.7718e-07
1.41695e-09
1.77352e-07
1.32638e-09
1.77506e-07
1.24036e-09
1.77644e-07
1.15881e-09
1.77769e-07
1.08142e-09
1.77883e-07
1.00773e-09
1.77987e-07
9.37238e-10
1.78083e-07
8.69449e-10
1.78173e-07
8.03893e-10
1.78258e-07
7.40157e-10
6.77886e-10
1.78339e-07
1.41352e-07
1.50939e-09
1.41619e-07
1.4393e-09
1.41864e-07
1.3643e-09
1.42087e-07
1.2883e-09
1.4229e-07
1.21351e-09
1.42476e-07
1.14092e-09
1.42645e-07
1.07087e-09
1.42801e-07
1.00337e-09
1.42944e-07
9.38223e-10
1.43076e-07
8.75148e-10
1.432e-07
8.13835e-10
1.43315e-07
7.53972e-10
1.43424e-07
6.95279e-10
1.43527e-07
6.37504e-10
5.80436e-10
1.43624e-07
1.12212e-07
1.23492e-09
1.12469e-07
1.18202e-09
1.12708e-07
1.12522e-09
1.1293e-07
1.06714e-09
1.13134e-07
1.0092e-09
1.13323e-07
9.52058e-10
1.13498e-07
8.96007e-10
1.1366e-07
8.41092e-10
1.13811e-07
7.87224e-10
1.13952e-07
7.34254e-10
1.14084e-07
6.82016e-10
1.14207e-07
6.30342e-10
1.14323e-07
5.79091e-10
1.14433e-07
5.2814e-10
4.77395e-10
1.14536e-07
8.82427e-08
9.8182e-10
8.84815e-08
9.43212e-10
8.87052e-08
9.01445e-10
8.89141e-08
8.58256e-10
8.91089e-08
8.14452e-10
8.92904e-08
7.70501e-10
8.94598e-08
7.26652e-10
8.96179e-08
6.82983e-10
8.97656e-08
6.39479e-10
8.99038e-08
5.96088e-10
9.00331e-08
5.52745e-10
9.0154e-08
5.09393e-10
9.02671e-08
4.65988e-10
9.03728e-08
4.22501e-10
3.7892e-10
9.04713e-08
6.87419e-08
7.57784e-10
6.89544e-08
7.30724e-10
6.91547e-08
7.01129e-10
6.93429e-08
6.70053e-10
6.95195e-08
6.37906e-10
6.96849e-08
6.05044e-10
6.98399e-08
5.71682e-10
6.9985e-08
5.37915e-10
7.01207e-08
5.03776e-10
7.02475e-08
4.69279e-10
7.03658e-08
4.3443e-10
7.0476e-08
3.99242e-10
7.05782e-08
3.63736e-10
7.06728e-08
3.27946e-10
2.91913e-10
7.07598e-08
5.30148e-08
5.67348e-10
5.31963e-08
5.49267e-10
5.33682e-08
5.29223e-10
5.35305e-08
5.0771e-10
5.36835e-08
4.84926e-10
5.38274e-08
4.61162e-10
5.39624e-08
4.36595e-10
5.4089e-08
4.11324e-10
5.42074e-08
3.8541e-10
5.43178e-08
3.58906e-10
5.44203e-08
3.31858e-10
5.45153e-08
3.04321e-10
5.46027e-08
2.76353e-10
5.46826e-08
2.48017e-10
2.19386e-10
5.47551e-08
4.04286e-08
4.11508e-10
4.05778e-08
4.00104e-10
4.07198e-08
3.87253e-10
4.08545e-08
3.73009e-10
4.09819e-08
3.57501e-10
4.11021e-08
3.40965e-10
4.12151e-08
3.2354e-10
4.13212e-08
3.05319e-10
4.14202e-08
2.86371e-10
4.15123e-08
2.66767e-10
4.15976e-08
2.46571e-10
4.16761e-08
2.25854e-10
4.17478e-08
2.04688e-10
4.18126e-08
1.83148e-10
1.61316e-10
4.18707e-08
3.04317e-08
2.88404e-10
3.05501e-08
2.81717e-10
3.06634e-08
2.74014e-10
3.07713e-08
2.65061e-10
3.08738e-08
2.54992e-10
3.09708e-08
2.43986e-10
3.10622e-08
2.32145e-10
3.1148e-08
2.19548e-10
3.12281e-08
2.06265e-10
3.13025e-08
1.92363e-10
3.13711e-08
1.77908e-10
3.1434e-08
1.62973e-10
3.14911e-08
1.47626e-10
3.15423e-08
1.31944e-10
1.16001e-10
3.15876e-08
2.25531e-08
1.94381e-10
2.2644e-08
1.90826e-10
2.27314e-08
1.8659e-10
2.28152e-08
1.81301e-10
2.2895e-08
1.75122e-10
2.29709e-08
1.6817e-10
2.30425e-08
1.60515e-10
2.31098e-08
1.5222e-10
2.31727e-08
1.43343e-10
2.32311e-08
1.33944e-10
2.3285e-08
1.24078e-10
2.33341e-08
1.13809e-10
2.33786e-08
1.03196e-10
2.34182e-08
9.2305e-11
8.11997e-11
2.3453e-08
1.63952e-08
1.24964e-10
1.64627e-08
1.23329e-10
1.6528e-08
1.21258e-10
1.65909e-08
1.18372e-10
1.66512e-08
1.14837e-10
1.67087e-08
1.10716e-10
1.67631e-08
1.06056e-10
1.68144e-08
1.00902e-10
1.68625e-08
9.52988e-11
1.69071e-08
8.92901e-11
1.69483e-08
8.29206e-11
1.69859e-08
7.62392e-11
1.70198e-08
6.92916e-11
1.705e-08
6.21309e-11
5.48059e-11
1.70763e-08
1.16249e-08
7.5571e-11
1.16732e-08
7.49857e-11
1.17204e-08
7.41459e-11
1.1766e-08
7.27317e-11
1.18099e-08
7.08885e-11
1.1852e-08
6.86386e-11
1.18921e-08
6.60113e-11
1.19299e-08
6.30364e-11
1.19655e-08
5.97429e-11
1.19986e-08
5.61624e-11
1.20292e-08
5.23255e-11
1.20572e-08
4.82668e-11
1.20825e-08
4.40181e-11
1.2105e-08
3.96186e-11
3.51041e-11
1.21247e-08
7.96519e-09
4.19461e-11
7.99834e-09
4.18383e-11
8.03088e-09
4.16086e-11
8.06258e-09
4.10227e-11
8.09329e-09
4.01819e-11
8.12284e-09
3.90866e-11
8.1511e-09
3.77535e-11
8.17794e-09
3.62e-11
8.20324e-09
3.44435e-11
8.2269e-09
3.25036e-11
8.24882e-09
3.03993e-11
8.26894e-09
2.81524e-11
8.28717e-09
2.57828e-11
8.30347e-09
2.33166e-11
2.07797e-11
8.3178e-09
5.18739e-09
2.03787e-11
5.20881e-09
2.04155e-11
5.23e-09
2.04246e-11
5.25077e-09
2.02486e-11
5.27101e-09
1.9941e-11
5.2906e-09
1.94951e-11
5.30944e-09
1.89196e-11
5.32742e-09
1.8223e-11
5.34444e-09
1.74144e-11
5.36044e-09
1.65044e-11
5.37534e-09
1.5503e-11
5.38907e-09
1.44222e-11
5.40158e-09
1.32724e-11
5.41283e-09
1.20692e-11
1.0831e-11
5.42278e-09
3.10441e-09
7.77339e-12
3.11702e-09
7.80191e-12
3.12959e-09
7.85801e-12
3.142e-09
7.8427e-12
3.15417e-09
7.77254e-12
3.16602e-09
7.64313e-12
3.17748e-09
7.45795e-12
3.18848e-09
7.22058e-12
3.19896e-09
6.9347e-12
3.20886e-09
6.60481e-12
3.21813e-09
6.23496e-12
3.22672e-09
5.83059e-12
3.2346e-09
5.39559e-12
3.24173e-09
4.93777e-12
4.46955e-12
3.24809e-09
1.56454e-09
1.63277e-12
1.57072e-09
1.6234e-12
1.57692e-09
1.65398e-12
1.58309e-09
1.67004e-12
1.5892e-09
1.67185e-12
1.59518e-09
1.65872e-12
1.60101e-09
1.63163e-12
1.60664e-09
1.59156e-12
1.61203e-09
1.53945e-12
1.61716e-09
1.47646e-12
1.62199e-09
1.40351e-12
1.6265e-09
1.32207e-12
1.63066e-09
1.23287e-12
1.63446e-09
1.13832e-12
1.04538e-12
1.63789e-09
4.45827e-10
4.47451e-10
4.49105e-10
4.50775e-10
4.52447e-10
4.54105e-10
4.55737e-10
4.57328e-10
4.58868e-10
4.60344e-10
4.61748e-10
4.6307e-10
4.64303e-10
4.65441e-10
4.66487e-10
1.20456e-09
-5.24366e-10
3.30263e-10
1.47953e-09
-4.86125e-10
2.1115e-10
1.75363e-09
-3.84124e-10
1.10028e-10
2.02071e-09
-2.79295e-10
1.22125e-11
2.27926e-09
-1.76208e-10
-8.2343e-11
2.53032e-09
-7.98098e-11
-1.71248e-10
2.77573e-09
1.11197e-11
-2.56534e-10
3.01719e-09
9.91942e-11
-3.40653e-10
3.25614e-09
1.87823e-10
-4.26772e-10
3.49375e-09
2.81116e-10
-5.18729e-10
3.73096e-09
3.84098e-10
-6.21306e-10
3.96855e-09
5.03267e-10
-7.40855e-10
4.20732e-09
6.47478e-10
-8.86249e-10
4.44835e-09
8.28951e-10
-1.06998e-09
4.69331e-09
1.064e-09
-1.30897e-09
4.9448e-09
1.37464e-09
-1.62612e-09
5.20683e-09
1.78721e-09
-2.04924e-09
5.48574e-09
2.32745e-09
-2.60636e-09
5.79008e-09
3.01988e-09
-3.32422e-09
6.13015e-09
3.87434e-09
-4.21442e-09
6.51615e-09
4.83546e-09
-5.22145e-09
6.95336e-09
5.73607e-09
-6.17328e-09
7.36348e-09
5.31491e-09
-5.72504e-09
7.70605e-09
4.09951e-09
-4.44207e-09
7.97552e-09
2.67691e-09
-2.94638e-09
8.17265e-09
1.21624e-09
-1.41338e-09
8.30125e-09
-1.69269e-10
4.06684e-11
8.36569e-09
-1.4132e-09
1.34877e-09
8.36997e-09
-2.48093e-09
2.47665e-09
8.31777e-09
-3.35521e-09
3.40741e-09
8.2127e-09
-4.02708e-09
4.13216e-09
8.05852e-09
-4.49302e-09
4.6472e-09
7.85924e-09
-4.75455e-09
4.95382e-09
7.61907e-09
-4.81828e-09
5.05846e-09
7.3421e-09
-4.69542e-09
4.97238e-09
7.03205e-09
-4.40051e-09
4.71057e-09
6.69194e-09
-3.94949e-09
4.28961e-09
6.32401e-09
-3.35691e-09
3.72483e-09
5.93002e-09
-2.63257e-09
3.02656e-09
5.51103e-09
-1.77851e-09
2.1975e-09
5.06557e-09
-7.92597e-10
1.23806e-09
4.58435e-09
3.12097e-10
1.6913e-10
4.05047e-09
1.44809e-09
-9.14217e-10
3.47213e-09
2.39439e-09
-1.81605e-09
2.5009e-09
3.13279e-09
-2.16155e-09
2.49354e-09
-5.99271e-10
2.65166e-09
-6.44245e-10
2.86594e-09
-5.98405e-10
3.10425e-09
-5.176e-10
3.3525e-09
-4.24466e-10
3.60355e-09
-3.30854e-10
3.85491e-09
-2.40239e-10
4.10596e-09
-1.51857e-10
4.35689e-09
-6.3109e-11
4.6082e-09
2.98078e-11
4.86046e-09
1.31831e-10
5.11432e-09
2.49408e-10
5.37055e-09
3.91255e-10
5.63027e-09
5.69226e-10
5.89533e-09
7.98939e-10
6.16855e-09
1.10142e-09
6.4543e-09
1.50146e-09
6.75951e-09
2.02224e-09
7.09343e-09
2.68596e-09
7.4672e-09
3.50057e-09
7.89195e-09
4.41071e-09
8.37392e-09
5.2541e-09
8.8278e-09
4.86103e-09
9.20922e-09
3.71809e-09
9.51175e-09
2.37438e-09
9.73566e-09
9.92336e-10
9.88467e-09
-3.18275e-10
9.96328e-09
-1.49181e-09
9.9758e-09
-2.49345e-09
9.92638e-09
-3.30578e-09
9.81924e-09
-3.91995e-09
9.65896e-09
-4.33274e-09
9.45054e-09
-4.54613e-09
9.19937e-09
-4.56711e-09
8.911e-09
-4.40705e-09
8.591e-09
-4.08052e-09
8.24491e-09
-3.6034e-09
7.87862e-09
-2.99062e-09
7.49959e-09
-2.25353e-09
7.11887e-09
-1.39779e-09
6.75343e-09
-4.27159e-10
6.42733e-09
6.38194e-10
6.17433e-09
1.70109e-09
6.04999e-09
2.51874e-09
2.56427e-09
5.98662e-09
4.32043e-09
-6.08861e-10
4.38526e-09
-7.0908e-10
4.51491e-09
-7.28053e-10
4.69507e-09
-6.97764e-10
4.90567e-09
-6.35066e-10
5.1341e-09
-5.59279e-10
5.37327e-09
-4.7941e-10
5.61932e-09
-3.97904e-10
5.87028e-09
-3.14074e-10
6.12533e-09
-2.25236e-10
6.38423e-09
-1.27072e-10
6.64717e-09
-1.35295e-11
6.91469e-09
1.23737e-10
7.18785e-09
2.96058e-10
7.46859e-09
5.18198e-10
7.75993e-09
8.10089e-10
8.06654e-09
1.19485e-09
8.39594e-09
1.69284e-09
8.75816e-09
2.32373e-09
9.1651e-09
3.09364e-09
9.62882e-09
3.94699e-09
1.01566e-08
4.72636e-09
1.06559e-08
4.3617e-09
1.10783e-08
3.29569e-09
1.14162e-08
2.0365e-09
1.16691e-08
7.39371e-10
1.18407e-08
-4.89846e-10
1.19355e-08
-1.58659e-09
1.19581e-08
-2.51603e-09
1.19131e-08
-3.26083e-09
1.18056e-08
-3.81247e-09
1.16412e-08
-4.1683e-09
1.1426e-08
-4.33096e-09
1.1167e-08
-4.30806e-09
1.08714e-08
-4.11151e-09
1.05473e-08
-3.75637e-09
1.02031e-08
-3.25927e-09
9.84925e-09
-2.63673e-09
9.49941e-09
-1.90369e-09
9.17454e-09
-1.07292e-09
8.90704e-09
-1.5966e-10
8.74185e-09
8.03381e-10
8.7235e-09
1.71944e-09
8.85591e-09
2.38632e-09
2.4602e-09
8.95998e-09
6.81032e-09
-5.81004e-10
6.81053e-09
-7.09288e-10
6.85925e-09
-7.76768e-10
6.96179e-09
-8.00313e-10
7.11094e-09
-7.8421e-10
7.29204e-09
-7.40384e-10
7.49634e-09
-6.83704e-10
7.71735e-09
-6.18919e-10
7.95089e-09
-5.47614e-10
8.19444e-09
-4.68785e-10
8.44662e-09
-3.79252e-10
8.70687e-09
-2.73774e-10
8.97528e-09
-1.44676e-10
9.25272e-09
1.86156e-11
9.54112e-09
2.29796e-10
9.84365e-09
5.07564e-10
1.01652e-08
8.73252e-10
1.0514e-08
1.34404e-09
1.09009e-08
1.93691e-09
1.13383e-08
2.65623e-09
1.18392e-08
3.44601e-09
1.2412e-08
4.15359e-09
1.29571e-08
3.81665e-09
1.34214e-08
2.83131e-09
1.37961e-08
1.66182e-09
1.40798e-08
4.55726e-10
1.42756e-08
-6.85643e-10
1.43881e-08
-1.69916e-09
1.44224e-08
-2.5503e-09
1.43837e-08
-3.22208e-09
1.42778e-08
-3.70661e-09
1.41116e-08
-4.00209e-09
1.38927e-08
-4.11209e-09
1.36298e-08
-4.04517e-09
1.33325e-08
-3.81413e-09
1.30111e-08
-3.43505e-09
1.26779e-08
-2.92605e-09
1.23474e-08
-2.30619e-09
1.20389e-08
-1.59517e-09
1.17798e-08
-8.13906e-10
1.16092e-08
1.09608e-11
1.15745e-08
8.38139e-10
1.17093e-08
1.58465e-09
1.19857e-08
2.1099e-09
2.23373e-09
1.22122e-08
1.01297e-08
-5.34926e-10
1.00867e-08
-6.66296e-10
1.00736e-08
-7.63709e-10
1.0101e-08
-8.27701e-10
1.0173e-08
-8.56142e-10
1.02867e-08
-8.54095e-10
1.04334e-08
-8.30414e-10
1.06065e-08
-7.92082e-10
1.08009e-08
-7.42013e-10
1.10128e-08
-6.80668e-10
1.12397e-08
-6.06163e-10
1.14803e-08
-5.14346e-10
1.17341e-08
-3.98486e-10
1.20017e-08
-2.49004e-10
1.22851e-08
-5.35368e-11
1.25874e-08
2.05234e-10
1.29139e-08
5.46749e-10
1.32734e-08
9.84549e-10
1.36775e-08
1.5328e-09
1.41394e-08
2.19436e-09
1.46729e-08
2.91254e-09
1.52871e-08
3.53939e-09
1.58758e-08
3.22793e-09
1.63813e-08
2.32575e-09
1.67928e-08
1.25036e-09
1.71076e-08
1.40922e-10
1.73284e-08
-9.06466e-10
1.74599e-08
-1.8306e-09
1.75071e-08
-2.59758e-09
1.74762e-08
-3.19118e-09
1.73742e-08
-3.60452e-09
1.7209e-08
-3.83693e-09
1.69902e-08
-3.89327e-09
1.67283e-08
-3.78332e-09
1.64353e-08
-3.52115e-09
1.61246e-08
-3.12428e-09
1.58113e-08
-2.61276e-09
1.55137e-08
-2.00863e-09
1.52547e-08
-1.33613e-09
1.50634e-08
-6.2265e-10
1.49759e-08
9.84367e-11
1.50299e-08
7.84199e-10
1.52419e-08
1.37261e-09
1.55719e-08
1.77993e-09
1.92274e-09
1.58829e-08
1.44767e-08
-4.81918e-10
1.44117e-08
-6.01309e-10
1.43561e-08
-7.0812e-10
1.43233e-08
-7.94879e-10
1.4323e-08
-8.55857e-10
1.43605e-08
-8.91591e-10
1.44338e-08
-9.03741e-10
1.45392e-08
-8.97487e-10
1.46726e-08
-8.75428e-10
1.48305e-08
-8.38524e-10
1.50101e-08
-7.85746e-10
1.52097e-08
-7.1394e-10
1.54286e-08
-6.17386e-10
1.56672e-08
-4.87628e-10
1.59276e-08
-3.13899e-10
1.62132e-08
-8.03504e-11
1.65294e-08
2.3051e-10
1.68859e-08
6.27996e-10
1.72954e-08
1.12337e-09
1.77713e-08
1.71847e-09
1.83282e-08
2.35555e-09
1.89763e-08
2.89138e-09
1.96032e-08
2.60103e-09
2.01463e-08
1.78263e-09
2.05922e-08
8.04441e-10
2.09367e-08
-2.03584e-10
2.11818e-08
-1.15153e-09
2.13319e-08
-1.98071e-09
2.13926e-08
-2.6583e-09
2.13707e-08
-3.16929e-09
2.12744e-08
-3.50817e-09
2.11132e-08
-3.67581e-09
2.08986e-08
-3.67861e-09
2.06432e-08
-3.52791e-09
2.03613e-08
-3.23927e-09
2.00689e-08
-2.83184e-09
1.97838e-08
-2.32767e-09
1.95265e-08
-1.75132e-09
1.93204e-08
-1.13011e-09
1.91922e-08
-4.94459e-10
1.91694e-08
1.2128e-10
1.92745e-08
6.79085e-10
1.95101e-08
1.13699e-09
1.98384e-08
1.45171e-09
1.59191e-09
2.01692e-08
2.00886e-08
-4.26588e-10
2.00157e-08
-5.28433e-10
1.99373e-08
-6.29674e-10
1.98647e-08
-7.22312e-10
1.98091e-08
-8.00273e-10
1.97782e-08
-8.60699e-10
1.97766e-08
-9.02113e-10
1.9805e-08
-9.25865e-10
1.98626e-08
-9.33002e-10
1.99478e-08
-9.23781e-10
2.00592e-08
-8.97161e-10
2.01958e-08
-8.50502e-10
2.03572e-08
-7.78849e-10
2.05444e-08
-6.74773e-10
2.07598e-08
-5.29286e-10
2.10074e-08
-3.27981e-10
2.12931e-08
-5.52232e-11
2.16278e-08
2.93301e-10
2.20252e-08
7.25972e-10
2.24993e-08
1.24445e-09
2.30654e-08
1.78944e-09
2.37342e-08
2.22254e-09
2.43891e-08
1.94615e-09
2.49622e-08
1.20954e-09
2.54368e-08
3.29774e-10
2.58067e-08
-5.73459e-10
2.60728e-08
-1.41765e-09
2.62395e-08
-2.14735e-09
2.63126e-08
-2.7314e-09
2.62998e-08
-3.15647e-09
2.62105e-08
-3.4189e-09
2.60561e-08
-3.5214e-09
2.58497e-08
-3.47222e-09
2.56062e-08
-3.28439e-09
2.53419e-08
-2.97506e-09
2.5075e-08
-2.56486e-09
2.48246e-08
-2.07734e-09
2.46117e-08
-1.53843e-09
2.44579e-08
-9.76245e-10
2.4384e-08
-4.20544e-10
2.44072e-08
9.80152e-11
2.45365e-08
5.49782e-10
2.47648e-08
9.08756e-10
2.50608e-08
1.15566e-09
1.28328e-09
2.53695e-08
2.7249e-08
-3.68357e-10
2.71733e-08
-4.52769e-10
2.70852e-08
-5.4153e-10
2.69917e-08
-6.28887e-10
2.69013e-08
-7.09803e-10
2.68212e-08
-7.80615e-10
2.67579e-08
-8.38823e-10
2.67155e-08
-8.8343e-10
2.66963e-08
-9.13892e-10
2.6702e-08
-9.29393e-10
2.67331e-08
-9.28312e-10
2.67907e-08
-9.08043e-10
2.68758e-08
-8.64016e-10
2.69906e-08
-7.89545e-10
2.71388e-08
-6.77541e-10
2.73257e-08
-5.14836e-10
2.75578e-08
-2.87341e-10
2.78479e-08
3.22294e-12
2.82113e-08
3.62559e-10
2.86623e-08
7.93475e-10
2.92173e-08
1.23441e-09
2.98877e-08
1.55216e-09
3.05545e-08
1.27931e-09
3.11449e-08
6.19171e-10
3.16381e-08
-1.6344e-10
3.20251e-08
-9.60482e-10
3.23058e-08
-1.69828e-09
3.2484e-08
-2.3256e-09
3.25662e-08
-2.81357e-09
3.25609e-08
-3.15114e-09
3.24788e-08
-3.33687e-09
3.2333e-08
-3.3756e-09
3.21384e-08
-3.2776e-09
3.19116e-08
-3.05762e-09
3.16708e-08
-2.73418e-09
3.14348e-08
-2.32889e-09
3.12233e-08
-1.86583e-09
3.10555e-08
-1.37069e-09
3.09493e-08
-8.70044e-10
3.09189e-08
-3.90133e-10
3.09723e-08
4.46002e-11
3.11091e-08
4.1299e-10
3.13172e-08
7.00692e-10
3.15721e-08
9.00784e-10
1.0156e-09
3.18397e-08
3.62891e-08
-3.03851e-10
3.62094e-08
-3.73117e-10
3.6116e-08
-4.48082e-10
3.60122e-08
-5.25123e-10
3.59029e-08
-6.00522e-10
3.57934e-08
-6.71083e-10
3.56889e-08
-7.34295e-10
3.55939e-08
-7.88429e-10
3.55122e-08
-8.32186e-10
3.5447e-08
-8.64198e-10
3.54011e-08
-8.82449e-10
3.53775e-08
-8.84419e-10
3.53793e-08
-8.65843e-10
3.54103e-08
-8.20591e-10
3.54765e-08
-7.43729e-10
3.55848e-08
-6.23074e-10
3.5743e-08
-4.4554e-10
3.59665e-08
-2.20299e-10
3.6273e-08
5.60626e-11
3.6677e-08
3.89485e-10
3.71964e-08
7.14984e-10
3.78434e-08
9.05112e-10
3.85003e-08
6.22508e-10
3.90895e-08
2.99174e-11
3.95859e-08
-6.59815e-10
3.99772e-08
-1.35181e-09
4.02618e-08
-1.9829e-09
4.04434e-08
-2.50714e-09
4.05285e-08
-2.8987e-09
4.05268e-08
-3.14944e-09
4.04504e-08
-3.2605e-09
4.03138e-08
-3.23896e-09
4.01333e-08
-3.09707e-09
3.99268e-08
-2.85115e-09
3.97132e-08
-2.52058e-09
3.95115e-08
-2.12715e-09
3.93398e-08
-1.69418e-09
3.92147e-08
-1.24554e-09
3.91491e-08
-8.04487e-10
3.91513e-08
-3.92348e-10
3.92222e-08
-2.63024e-11
3.9357e-08
2.78165e-10
3.9542e-08
5.15683e-10
3.97583e-08
6.84567e-10
7.90087e-10
3.99838e-08
4.75799e-08
-2.29863e-10
4.74931e-08
-2.86381e-10
4.73935e-08
-3.48482e-10
4.72824e-08
-4.14006e-10
4.71623e-08
-4.80368e-10
4.70362e-08
-5.45045e-10
4.69078e-08
-6.05843e-10
4.67803e-08
-6.60979e-10
4.66571e-08
-7.08992e-10
4.65414e-08
-7.48498e-10
4.64365e-08
-7.77532e-10
4.63462e-08
-7.94085e-10
4.62749e-08
-7.94525e-10
4.62277e-08
-7.73419e-10
4.62125e-08
-7.28533e-10
4.62381e-08
-6.48679e-10
4.63138e-08
-5.21201e-10
4.6458e-08
-3.6451e-10
4.6691e-08
-1.76916e-10
4.70275e-08
5.29274e-11
4.74876e-08
2.54924e-10
4.80845e-08
3.08151e-10
4.87056e-08
1.48477e-12
4.92707e-08
-5.35249e-10
4.97502e-08
-1.13929e-09
5.01286e-08
-1.73019e-09
5.04027e-08
-2.25703e-09
5.05758e-08
-2.68022e-09
5.06549e-08
-2.97778e-09
5.06506e-08
-3.14516e-09
5.05764e-08
-3.18626e-09
5.04477e-08
-3.11027e-09
5.02819e-08
-2.93124e-09
5.00973e-08
-2.66661e-09
4.99126e-08
-2.3359e-09
4.97455e-08
-1.96002e-09
4.96117e-08
-1.5604e-09
4.9524e-08
-1.15779e-09
4.94907e-08
-7.71191e-10
4.9515e-08
-4.16682e-10
4.95952e-08
-1.06465e-10
4.97225e-08
1.50853e-10
4.98853e-08
3.52834e-10
5.00689e-08
5.00968e-10
6.0061e-10
5.02584e-08
6.15188e-08
-1.45475e-10
6.14236e-08
-1.91197e-10
6.1317e-08
-2.4186e-10
6.11993e-08
-2.9625e-10
6.10716e-08
-3.52669e-10
6.09357e-08
-4.0924e-10
6.07941e-08
-4.64166e-10
6.06489e-08
-5.15811e-10
6.05027e-08
-5.62755e-10
6.03579e-08
-6.03751e-10
6.02174e-08
-6.37044e-10
6.00847e-08
-6.61332e-10
5.9964e-08
-6.73867e-10
5.98608e-08
-6.70195e-10
5.97833e-08
-6.51063e-10
5.97415e-08
-6.06866e-10
5.97456e-08
-5.25275e-10
5.98159e-08
-4.34836e-10
5.99742e-08
-3.3525e-10
6.02353e-08
-2.08169e-10
6.0622e-08
-1.3177e-10
6.11481e-08
-2.17944e-10
6.17097e-08
-5.60125e-10
6.22274e-08
-1.05294e-09
6.2668e-08
-1.57988e-09
6.30139e-08
-2.07609e-09
6.32609e-08
-2.50399e-09
6.34117e-08
-2.83103e-09
6.34738e-08
-3.03993e-09
6.34591e-08
-3.13041e-09
6.33819e-08
-3.10907e-09
6.32584e-08
-2.98682e-09
6.31062e-08
-2.77901e-09
6.29431e-08
-2.50354e-09
6.27865e-08
-2.17923e-09
6.26516e-08
-1.82517e-09
6.25511e-08
-1.45994e-09
6.2494e-08
-1.10061e-09
6.24846e-08
-7.61833e-10
6.25231e-08
-4.55154e-10
6.26052e-08
-1.88544e-10
6.27224e-08
3.35833e-11
6.28651e-08
2.10215e-10
6.30217e-08
3.44279e-10
4.40355e-10
6.3182e-08
7.85253e-08
-5.28215e-11
7.84235e-08
-8.94151e-11
7.83118e-08
-1.30153e-10
7.819e-08
-1.74413e-10
7.80585e-08
-2.21171e-10
7.79184e-08
-2.69134e-10
7.77712e-08
-3.1696e-10
7.76187e-08
-3.63284e-10
7.74628e-08
-4.06884e-10
7.73057e-08
-4.4666e-10
7.71498e-08
-4.81173e-10
7.69982e-08
-5.0968e-10
7.68545e-08
-5.3019e-10
7.67241e-08
-5.39845e-10
7.66139e-08
-5.40831e-10
7.65337e-08
-5.26698e-10
7.64963e-08
-4.87865e-10
7.65186e-08
-4.57094e-10
7.66185e-08
-4.35119e-10
7.68158e-08
-4.05538e-10
7.71336e-08
-4.49549e-10
7.7584e-08
-6.68349e-10
7.80734e-08
-1.04949e-09
7.85266e-08
-1.50621e-09
7.89102e-08
-1.9634e-09
7.92063e-08
-2.37227e-09
7.9411e-08
-2.70865e-09
7.95268e-08
-2.94687e-09
7.9562e-08
-3.07506e-09
7.95294e-08
-3.0978e-09
7.94443e-08
-3.02399e-09
7.93229e-08
-2.86549e-09
7.91822e-08
-2.63829e-09
7.90387e-08
-2.35998e-09
7.89072e-08
-2.04781e-09
7.88004e-08
-1.71831e-09
7.87273e-08
-1.38682e-09
7.86934e-08
-1.06673e-09
7.87004e-08
-7.68824e-10
7.87463e-08
-5.01052e-10
7.88261e-08
-2.68357e-10
7.89323e-08
-7.26573e-11
7.90568e-08
8.57161e-11
7.91911e-08
2.09983e-10
3.039e-10
7.93276e-08
9.90638e-08
4.40653e-11
9.89595e-08
1.49442e-11
9.88468e-08
-1.75231e-11
9.87255e-08
-5.30972e-11
9.85956e-08
-9.12356e-11
9.84576e-08
-1.31134e-10
9.83125e-08
-1.71929e-10
9.81619e-08
-2.12595e-10
9.80073e-08
-2.52318e-10
9.78508e-08
-2.90135e-10
9.76948e-08
-3.25167e-10
9.75422e-08
-3.57155e-10
9.73963e-08
-3.84268e-10
9.72636e-08
-4.07118e-10
9.71481e-08
-4.25322e-10
9.70589e-08
-4.37491e-10
9.70158e-08
-4.44802e-10
9.70255e-08
-4.66783e-10
9.70917e-08
-5.01372e-10
9.72485e-08
-5.62255e-10
9.75228e-08
-7.23865e-10
9.79121e-08
-1.0577e-09
9.83326e-08
-1.47e-09
9.87173e-08
-1.89083e-09
9.90353e-08
-2.28146e-09
9.92724e-08
-2.60936e-09
9.94263e-08
-2.86255e-09
9.95e-08
-3.02056e-09
9.95026e-08
-3.0777e-09
9.94486e-08
-3.04373e-09
9.93534e-08
-2.92881e-09
9.92327e-08
-2.74483e-09
9.91022e-08
-2.5077e-09
9.8976e-08
-2.23386e-09
9.88665e-08
-1.93831e-09
9.87829e-08
-1.63468e-09
9.87312e-08
-1.33513e-09
9.87142e-08
-1.04974e-09
9.87316e-08
-7.86226e-10
9.87804e-08
-5.49853e-10
9.88557e-08
-3.43578e-10
9.89512e-08
-1.68251e-10
9.90597e-08
-2.27829e-11
9.91755e-08
9.42103e-11
1.86865e-10
9.92926e-08
1.2369e-07