/*--------------------------------*- C++ -*----------------------------------*\
| =========                 |                                                 |
| \\      /  F ield         | OpenFOAM: The Open Source CFD Toolbox           |
|  \\    /   O peration     | Version:  2312                                  |
|   \\  /    A nd           | Website:  www.openfoam.com                      |
|    \\/     M anipulation  |                                                 |
\*---------------------------------------------------------------------------*/
FoamFile
{
    version     2.0;
    format      ascii;
    arch        "LSB;label=32;scalar=64";
    class       surfaceScalarField;
    location    "102.5";
    object      phi;
}
// * * * * * * * * * * * * * * * * * * * * * * * * * * * * * * * * * * * * * //

dimensions      [0 3 -1 0 0 0 0];

oriented        oriented;

internalField   nonuniform List<scalar> 
9445
(
5.73786e-10
1.0249e-11
5.687e-10
5.08624e-12
5.66756e-10
1.9435e-12
5.66871e-10
-1.14612e-13
5.68263e-10
-1.39174e-12
5.70571e-10
-2.30791e-12
5.73744e-10
-3.17274e-12
5.77801e-10
-4.05721e-12
5.82859e-10
-5.05815e-12
5.89313e-10
-6.45422e-12
5.98286e-10
-8.97324e-12
6.13353e-10
-1.50666e-11
6.47083e-10
-3.37303e-11
7.43411e-10
-9.63279e-11
-2.46954e-10
9.90365e-10
2.00939e-09
4.44616e-11
1.99217e-09
2.23124e-11
1.98534e-09
8.77053e-12
1.98519e-09
3.89742e-14
1.98914e-09
-5.34155e-12
1.99615e-09
-9.32763e-12
2.00593e-09
-1.29437e-11
2.01839e-09
-1.65227e-11
2.03394e-09
-2.06047e-11
2.05373e-09
-2.62423e-11
2.08062e-09
-3.58644e-11
2.12149e-09
-5.59432e-11
2.18956e-09
-1.01798e-10
2.29711e-09
-2.03876e-10
-3.58632e-10
2.40879e-09
3.9753e-09
1.09185e-10
3.94234e-09
5.52714e-11
3.92881e-09
2.22995e-11
3.92761e-09
1.23733e-12
3.93396e-09
-1.16842e-11
3.94602e-09
-2.13949e-11
3.96304e-09
-2.99654e-11
3.98464e-09
-3.81192e-11
4.01131e-09
-4.72774e-11
4.04453e-09
-5.94566e-11
4.08719e-09
-7.85286e-11
4.14396e-09
-1.12707e-10
4.21748e-09
-1.75322e-10
4.29406e-09
-2.80461e-10
-4.0297e-10
4.3384e-09
6.6179e-09
2.11567e-10
6.56508e-09
1.08094e-10
6.54248e-09
4.49039e-11
6.53896e-09
4.75413e-12
6.54712e-09
-1.98409e-11
6.56401e-09
-3.82849e-11
6.58826e-09
-5.42211e-11
6.61882e-09
-6.86769e-11
6.65591e-09
-8.43675e-11
6.70051e-09
-1.04053e-10
6.75389e-09
-1.31915e-10
6.81592e-09
-1.74733e-10
6.8803e-09
-2.39705e-10
6.92756e-09
-3.27724e-10
-4.12369e-10
6.93696e-09
1.01136e-08
3.58403e-10
1.00367e-08
1.84983e-10
1.00023e-08
7.93124e-11
9.99471e-09
1.23577e-11
1.00038e-08
-2.88825e-11
1.00246e-08
-5.91669e-11
1.00553e-08
-8.48459e-11
1.00936e-08
-1.06997e-10
1.01391e-08
-1.29835e-10
1.01914e-08
-1.56423e-10
1.02496e-08
-1.90122e-10
1.03095e-08
-2.34625e-10
1.03611e-08
-2.91335e-10
1.03884e-08
-3.55018e-10
-4.06688e-10
1.03828e-08
1.46697e-08
5.5397e-10
1.45656e-08
2.89008e-10
1.4517e-08
1.27932e-10
1.45035e-08
2.58788e-11
1.45123e-08
-3.76687e-11
1.4536e-08
-8.28971e-11
1.45713e-08
-1.20172e-10
1.46153e-08
-1.5097e-10
1.46661e-08
-1.80662e-10
1.4722e-08
-2.12282e-10
1.47798e-08
-2.47881e-10
1.48334e-08
-2.88283e-10
1.48737e-08
-3.31594e-10
1.48906e-08
-3.71902e-10
-3.98606e-10
1.48825e-08
2.05214e-08
7.96032e-10
2.03907e-08
4.1974e-10
2.03275e-08
1.9107e-10
2.03072e-08
4.61902e-11
2.03147e-08
-4.51378e-11
2.03403e-08
-1.08539e-10
2.03785e-08
-1.58353e-10
2.04256e-08
-1.98104e-10
2.04785e-08
-2.33562e-10
2.05339e-08
-2.67667e-10
2.05875e-08
-3.01445e-10
2.06334e-08
-3.34209e-10
2.06652e-08
-3.63388e-10
2.06783e-08
-3.8495e-10
-3.94286e-10
2.06739e-08
2.79252e-08
1.06984e-09
2.77754e-08
5.69444e-10
2.77021e-08
2.64419e-10
2.76771e-08
7.11559e-11
2.7684e-08
-5.19607e-11
2.77113e-08
-1.35851e-10
2.77514e-08
-1.98466e-10
2.77998e-08
-2.46522e-10
2.78523e-08
-2.86013e-10
2.79046e-08
-3.19976e-10
2.79523e-08
-3.49195e-10
2.79911e-08
-3.72961e-10
2.80173e-08
-3.89666e-10
2.803e-08
-3.97598e-10
-3.95598e-10
2.80313e-08
3.71487e-08
1.34187e-09
3.69996e-08
7.18534e-10
3.69282e-08
3.35851e-10
3.69062e-08
9.30768e-11
3.69169e-08
-6.2651e-11
3.69482e-08
-1.67131e-10
3.69914e-08
-2.41681e-10
3.70412e-08
-2.96266e-10
3.70927e-08
-3.37511e-10
3.71417e-08
-3.68974e-10
3.71845e-08
-3.9203e-10
3.72185e-08
-4.06931e-10
3.72424e-08
-4.13545e-10
3.72568e-08
-4.11994e-10
-4.02862e-10
3.7264e-08
4.84693e-08
1.55939e-09
4.83542e-08
8.33669e-10
4.83066e-08
3.83422e-10
4.83027e-08
9.69723e-11
4.83274e-08
-8.73144e-11
4.83693e-08
-2.09089e-10
4.84202e-08
-2.92586e-10
4.84745e-08
-3.50559e-10
4.85277e-08
-3.90711e-10
4.85763e-08
-4.17561e-10
4.86179e-08
-4.33606e-10
4.86513e-08
-4.40366e-10
4.86768e-08
-4.39009e-10
4.86956e-08
-4.30805e-10
-4.1711e-10
4.87098e-08
6.22008e-08
1.66566e-09
6.21593e-08
8.75164e-10
6.21636e-08
3.79089e-10
6.2198e-08
6.26262e-11
6.22513e-08
-1.40652e-10
6.23147e-08
-2.72511e-10
6.23815e-08
-3.59359e-10
6.2447e-08
-4.16077e-10
6.2508e-08
-4.51653e-10
6.25622e-08
-4.71772e-10
6.26087e-08
-4.80111e-10
6.26476e-08
-4.79281e-10
6.26799e-08
-4.71313e-10
6.27071e-08
-4.58041e-10
-4.4107e-10
6.27311e-08
7.87678e-08
1.63321e-09
7.88246e-08
8.18284e-10
7.89009e-08
3.02797e-10
7.89896e-08
-2.60522e-11
7.90841e-08
-2.35136e-10
7.9179e-08
-3.67422e-10
7.927e-08
-4.50357e-10
7.93543e-08
-5.00355e-10
7.94303e-08
-5.27616e-10
7.94973e-08
-5.38862e-10
7.95559e-08
-5.38669e-10
7.9607e-08
-5.3033e-10
7.96519e-08
-5.163e-10
7.96925e-08
-4.98568e-10
-4.7871e-10
7.97301e-08
9.87943e-08
1.49014e-09
9.89359e-08
6.76643e-10
9.90777e-08
1.61007e-10
9.92176e-08
-1.65981e-10
9.9352e-08
-3.69499e-10
9.94784e-08
-4.93798e-10
9.95947e-08
-5.66683e-10
9.97e-08
-6.05636e-10
9.97942e-08
-6.21853e-10
9.98781e-08
-6.22805e-10
9.9953e-08
-6.13579e-10
1.0002e-07
-5.97759e-10
1.00082e-07
-5.77898e-10
1.00139e-07
-5.55908e-10
-5.33191e-10
1.00194e-07
1.23088e-07
1.30078e-09
1.23266e-07
4.98292e-10
1.23438e-07
-1.14378e-11
1.23602e-07
-3.29776e-10
1.23756e-07
-5.2293e-10
1.23898e-07
-6.3576e-10
1.24027e-07
-6.9651e-10
1.24145e-07
-7.23451e-10
1.24252e-07
-7.28523e-10
1.24349e-07
-7.19672e-10
1.24437e-07
-7.02214e-10
1.24519e-07
-6.79783e-10
1.24596e-07
-6.54863e-10
1.2467e-07
-6.29193e-10
-6.03961e-10
1.24741e-07
1.52432e-07
1.11341e-09
1.52603e-07
3.27203e-10
1.52768e-07
-1.75722e-10
1.52922e-07
-4.8383e-10
1.53066e-07
-6.66984e-10
1.532e-07
-7.69723e-10
1.53324e-07
-8.20476e-10
1.53438e-07
-8.38013e-10
1.53544e-07
-8.34722e-10
1.53644e-07
-8.18791e-10
1.53737e-07
-7.956e-10
1.53826e-07
-7.68734e-10
1.53912e-07
-7.40556e-10
1.53995e-07
-7.12635e-10
-6.85961e-10
1.54077e-07
1.87319e-07
9.34224e-10
1.87469e-07
1.76771e-10
1.87609e-07
-3.1527e-10
1.87736e-07
-6.11025e-10
1.87854e-07
-7.85219e-10
1.87965e-07
-8.80557e-10
1.88069e-07
-9.24998e-10
1.88169e-07
-9.37237e-10
1.88263e-07
-9.29668e-10
1.88355e-07
-9.10465e-10
1.88444e-07
-8.8494e-10
1.88532e-07
-8.56574e-10
1.88619e-07
-8.27601e-10
1.88706e-07
-7.99448e-10
-7.72941e-10
1.88793e-07
2.27787e-07
7.48769e-10
2.27928e-07
3.58006e-11
2.28046e-07
-4.33019e-10
2.28147e-07
-7.12463e-10
2.28239e-07
-8.76967e-10
2.28325e-07
-9.66614e-10
2.28408e-07
-1.00781e-09
2.28489e-07
-1.01842e-09
2.2857e-07
-1.01035e-09
2.28651e-07
-9.91438e-10
2.28732e-07
-9.66797e-10
2.28816e-07
-9.39736e-10
2.289e-07
-9.12359e-10
2.28987e-07
-8.85973e-10
-8.61315e-10
2.29075e-07
2.73323e-07
5.48128e-10
2.73467e-07
-1.0903e-10
2.73569e-07
-5.34591e-10
2.73651e-07
-7.94622e-10
2.73723e-07
-9.48801e-10
2.7379e-07
-1.03386e-09
2.73857e-07
-1.07404e-09
2.73924e-07
-1.08591e-09
2.73994e-07
-1.0804e-09
2.74067e-07
-1.06473e-09
2.74144e-07
-1.04366e-09
2.74225e-07
-1.02024e-09
2.74309e-07
-9.96437e-10
2.74396e-07
-9.73436e-10
-9.51899e-10
2.74487e-07
3.22545e-07
3.30327e-10
3.22691e-07
-2.55332e-10
3.22789e-07
-6.32247e-10
3.22862e-07
-8.67802e-10
3.22923e-07
-1.00959e-09
3.22979e-07
-1.08961e-09
3.23034e-07
-1.12945e-09
3.23092e-07
-1.14367e-09
3.23154e-07
-1.14205e-09
3.2322e-07
-1.13103e-09
3.23291e-07
-1.11483e-09
3.23367e-07
-1.09622e-09
3.23448e-07
-1.07695e-09
3.23532e-07
-1.05811e-09
-1.04011e-09
3.2362e-07
3.72567e-07
9.21014e-11
3.72702e-07
-3.90219e-10
3.72772e-07
-7.01831e-10
3.72806e-07
-9.01993e-10
3.72823e-07
-1.02647e-09
3.72833e-07
-1.10009e-09
3.72844e-07
-1.14053e-09
3.7286e-07
-1.15914e-09
3.72881e-07
-1.16381e-09
3.7291e-07
-1.15997e-09
3.72947e-07
-1.15114e-09
3.7299e-07
-1.13964e-09
3.7304e-07
-1.12692e-09
3.73096e-07
-1.11393e-09
-1.10124e-09
3.73157e-07
3.70679e-07
-1.28669e-10
3.70793e-07
-5.04525e-10
3.70849e-07
-7.57423e-10
3.70872e-07
-9.24867e-10
3.70878e-07
-1.0326e-09
3.70878e-07
-1.09966e-09
3.70876e-07
-1.13944e-09
3.70879e-07
-1.16118e-09
3.70886e-07
-1.17103e-09
3.70899e-07
-1.1732e-09
3.70918e-07
-1.17051e-09
3.70944e-07
-1.16483e-09
3.70974e-07
-1.15739e-09
3.71009e-07
-1.14894e-09
-1.13991e-09
3.71048e-07
3.17979e-07
-2.39231e-10
3.18017e-07
-5.4224e-10
3.18011e-07
-7.52087e-10
3.17982e-07
-8.95506e-10
3.17942e-07
-9.92218e-10
3.17898e-07
-1.05627e-09
3.17856e-07
-1.09772e-09
3.17819e-07
-1.12371e-09
3.17787e-07
-1.1391e-09
3.17761e-07
-1.14724e-09
3.17741e-07
-1.1504e-09
3.17726e-07
-1.15013e-09
3.17716e-07
-1.1474e-09
3.1771e-07
-1.14287e-09
-1.13694e-09
3.17707e-07
2.66866e-07
-3.2919e-10
2.66891e-07
-5.67069e-10
2.66876e-07
-7.37066e-10
2.66837e-07
-8.57027e-10
2.66786e-07
-9.4109e-10
2.66729e-07
-9.99598e-10
2.66672e-07
-1.03997e-09
2.66615e-07
-1.06745e-09
2.66562e-07
-1.08571e-09
2.66512e-07
-1.09734e-09
2.66466e-07
-1.10409e-09
2.66423e-07
-1.10715e-09
2.66383e-07
-1.1073e-09
2.66345e-07
-1.10504e-09
-1.1007e-09
2.66309e-07
2.20354e-07
-3.81506e-10
2.20354e-07
-5.67236e-10
2.20321e-07
-7.0361e-10
2.20266e-07
-8.02719e-10
2.202e-07
-8.74642e-10
2.20127e-07
-9.26806e-10
2.20052e-07
-9.64542e-10
2.19976e-07
-9.91651e-10
2.19901e-07
-1.01083e-09
2.19828e-07
-1.024e-09
2.19756e-07
-1.03248e-09
2.19686e-07
-1.03717e-09
2.19617e-07
-1.03866e-09
2.1955e-07
-1.03735e-09
-1.03349e-09
2.19483e-07
1.79522e-07
-3.94528e-10
1.79493e-07
-5.38832e-10
1.79437e-07
-6.47403e-10
1.79363e-07
-7.28615e-10
1.79278e-07
-7.89516e-10
1.79186e-07
-8.35289e-10
1.79091e-07
-8.69672e-10
1.78995e-07
-8.95348e-10
1.78898e-07
-9.14253e-10
1.78802e-07
-9.27776e-10
1.78707e-07
-9.36879e-10
1.78612e-07
-9.42234e-10
1.78517e-07
-9.44279e-10
1.78423e-07
-9.43318e-10
-9.39535e-10
1.78329e-07
1.44529e-07
-3.72399e-10
1.44474e-07
-4.84306e-10
1.44397e-07
-5.70563e-10
1.44306e-07
-6.37003e-10
1.44204e-07
-6.88443e-10
1.44098e-07
-7.28379e-10
1.43987e-07
-7.59352e-10
1.43875e-07
-7.83221e-10
1.43762e-07
-8.01346e-10
1.43649e-07
-8.1471e-10
1.43536e-07
-8.24003e-10
1.43424e-07
-8.29706e-10
1.43312e-07
-8.3214e-10
1.432e-07
-8.31535e-10
-8.2803e-10
1.43088e-07
1.15085e-07
-3.25866e-10
1.15013e-07
-4.12891e-10
1.14925e-07
-4.81652e-10
1.14824e-07
-5.36233e-10
1.14715e-07
-5.79812e-10
1.14601e-07
-6.14661e-10
1.14485e-07
-6.42471e-10
1.14366e-07
-6.64508e-10
1.14246e-07
-6.81713e-10
1.14126e-07
-6.94764e-10
1.14006e-07
-7.04142e-10
1.13887e-07
-7.10189e-10
1.13768e-07
-7.13135e-10
1.13649e-07
-7.13153e-10
-7.10347e-10
1.13532e-07
9.06927e-08
-2.68262e-10
9.0616e-08
-3.362e-10
9.05256e-08
-3.91243e-10
9.04256e-08
-4.36258e-10
9.0319e-08
-4.73228e-10
9.02079e-08
-5.03583e-10
9.00939e-08
-5.28434e-10
8.9978e-08
-5.48632e-10
8.98611e-08
-5.64808e-10
8.97438e-08
-5.7742e-10
8.96264e-08
-5.86794e-10
8.95094e-08
-5.93168e-10
8.9393e-08
-5.96703e-10
8.92773e-08
-5.97527e-10
-5.95718e-10
8.91627e-08
7.07564e-08
-2.10437e-10
7.06837e-08
-2.63457e-10
7.05999e-08
-3.07496e-10
7.05082e-08
-3.44534e-10
7.04107e-08
-3.75707e-10
7.0309e-08
-4.01896e-10
7.02044e-08
-4.23823e-10
7.00978e-08
-4.42045e-10
6.99899e-08
-4.5697e-10
6.98814e-08
-4.68897e-10
6.97727e-08
-4.78044e-10
6.96641e-08
-4.84568e-10
6.95559e-08
-4.88581e-10
6.94486e-08
-4.90175e-10
-4.89406e-10
6.93423e-08
5.46468e-08
-1.58711e-10
5.45831e-08
-1.99764e-10
5.45103e-08
-2.3471e-10
5.44306e-08
-2.6483e-10
5.43456e-08
-2.90704e-10
5.42566e-08
-3.1287e-10
5.41646e-08
-3.31788e-10
5.40703e-08
-3.47805e-10
5.39745e-08
-3.61177e-10
5.38777e-08
-3.72091e-10
5.37804e-08
-3.80685e-10
5.36829e-08
-3.87061e-10
5.35856e-08
-3.91292e-10
5.34888e-08
-3.93443e-10
-3.93551e-10
5.3393e-08
4.17516e-08
-1.15568e-10
4.16986e-08
-1.46839e-10
4.1638e-08
-1.74103e-10
4.15713e-08
-1.98082e-10
4.14996e-08
-2.19027e-10
4.1424e-08
-2.37271e-10
4.13453e-08
-2.53094e-10
4.12642e-08
-2.66699e-10
4.11813e-08
-2.7824e-10
4.1097e-08
-2.87825e-10
4.10119e-08
-2.95539e-10
4.09263e-08
-3.01444e-10
4.08405e-08
-3.05585e-10
4.07551e-08
-3.08005e-10
-3.08725e-10
4.06703e-08
3.1511e-08
-8.1211e-11
3.14686e-08
-1.04448e-10
3.14196e-08
-1.25179e-10
3.13653e-08
-1.43698e-10
3.13063e-08
-1.60102e-10
3.12437e-08
-1.74592e-10
3.11779e-08
-1.87329e-10
3.11096e-08
-1.98423e-10
3.10393e-08
-2.07959e-10
3.09675e-08
-2.15995e-10
3.08945e-08
-2.22581e-10
3.08208e-08
-2.27748e-10
3.07468e-08
-2.31524e-10
3.06727e-08
-2.33935e-10
-2.34987e-10
3.0599e-08
2.34361e-08
-5.47648e-11
2.34032e-08
-7.15049e-11
2.33647e-08
-8.67326e-11
2.33215e-08
-1.00486e-10
2.32742e-08
-1.12812e-10
2.32234e-08
-1.23832e-10
2.31697e-08
-1.33628e-10
2.31136e-08
-1.42256e-10
2.30554e-08
-1.49755e-10
2.29955e-08
-1.56155e-10
2.29344e-08
-1.61478e-10
2.28724e-08
-1.6574e-10
2.28099e-08
-1.68956e-10
2.27471e-08
-1.71135e-10
-1.7228e-10
2.26843e-08
1.71128e-08
-3.50601e-11
1.7088e-08
-4.66776e-11
1.70586e-08
-5.73691e-11
1.70252e-08
-6.70864e-11
1.69883e-08
-7.58839e-11
1.69483e-08
-8.38317e-11
1.69056e-08
-9.09662e-11
1.68607e-08
-9.73097e-11
1.68138e-08
-1.02878e-10
1.67653e-08
-1.07681e-10
1.67156e-08
-1.11728e-10
1.66648e-08
-1.15023e-10
1.66135e-08
-1.17573e-10
1.65617e-08
-1.19379e-10
-1.20435e-10
1.65099e-08
1.21967e-08
-2.09753e-11
1.21787e-08
-2.86415e-11
1.2157e-08
-3.5699e-11
1.2132e-08
-4.21318e-11
1.21042e-08
-4.80083e-11
1.20737e-08
-5.33664e-11
1.2041e-08
-5.82182e-11
1.20062e-08
-6.2569e-11
1.19698e-08
-6.64218e-11
1.19318e-08
-6.97765e-11
1.18928e-08
-7.26347e-11
1.18527e-08
-7.49955e-11
1.1812e-08
-7.68608e-11
1.17709e-08
-7.8226e-11
-7.90835e-11
1.17295e-08
8.40507e-09
-1.14328e-11
8.39257e-09
-1.61342e-11
8.37727e-09
-2.03981e-11
8.35942e-09
-2.42887e-11
8.33929e-09
-2.78728e-11
8.31709e-09
-3.11683e-11
8.29305e-09
-3.41763e-11
8.26737e-09
-3.68947e-11
8.24027e-09
-3.93212e-11
8.21195e-09
-4.1452e-11
8.1826e-09
-4.32853e-11
8.15242e-09
-4.48183e-11
8.12161e-09
-4.60509e-11
8.09036e-09
-4.69768e-11
-4.75861e-11
8.05886e-09
5.50741e-09
-5.42288e-12
5.49926e-09
-7.98424e-12
5.48909e-09
-1.02307e-11
5.47708e-09
-1.22808e-11
5.4634e-09
-1.41855e-11
5.44818e-09
-1.59511e-11
5.43158e-09
-1.75751e-11
5.41374e-09
-1.90536e-11
5.3948e-09
-2.0383e-11
5.37491e-09
-2.15593e-11
5.3542e-09
-2.25804e-11
5.33283e-09
-2.34432e-11
5.31092e-09
-2.41472e-11
5.28863e-09
-2.46869e-11
-2.50516e-11
5.2661e-09
3.31683e-09
-2.02331e-12
3.31199e-09
-3.1487e-12
3.30584e-09
-4.07352e-12
3.29847e-09
-4.91894e-12
3.29e-09
-5.71255e-12
3.2805e-09
-6.45492e-12
3.27007e-09
-7.14322e-12
3.25879e-09
-7.77433e-12
3.24676e-09
-8.34568e-12
3.23405e-09
-8.85461e-12
3.22077e-09
-9.29966e-12
3.20701e-09
-9.67877e-12
3.19285e-09
-9.99169e-12
3.1784e-09
-1.02348e-11
-1.03988e-11
3.16375e-09
1.6825e-09
-4.3356e-13
1.68008e-09
-7.33835e-13
1.67695e-09
-9.4158e-13
1.67317e-09
-1.13438e-12
1.66877e-09
-1.31931e-12
1.66381e-09
-1.49485e-12
1.65833e-09
-1.6593e-12
1.65236e-09
-1.81117e-12
1.64597e-09
-1.9494e-12
1.63919e-09
-2.07299e-12
1.63207e-09
-2.18146e-12
1.62466e-09
-2.27412e-12
1.61702e-09
-2.35087e-12
1.6092e-09
-2.41019e-12
-2.44683e-12
1.60125e-09
4.83177e-10
4.82443e-10
4.81501e-10
4.80367e-10
4.79048e-10
4.77553e-10
4.75893e-10
4.74082e-10
4.72133e-10
4.7006e-10
4.67878e-10
4.65604e-10
4.63253e-10
4.60843e-10
4.58396e-10
1.18734e-09
-4.56109e-10
2.59138e-10
1.47155e-09
-3.57923e-10
7.37119e-11
1.76017e-09
-1.91467e-10
-9.71593e-11
2.04682e-09
-2.03159e-11
-2.66328e-10
2.32936e-09
1.49939e-10
-4.32483e-10
2.60841e-09
3.10674e-10
-5.89728e-10
2.88522e-09
4.58512e-10
-7.35317e-10
3.16071e-09
5.90136e-10
-8.65623e-10
3.43558e-09
7.01674e-10
-9.76545e-10
3.71033e-09
7.88825e-10
-1.06357e-09
3.98531e-09
8.46644e-10
-1.12163e-09
4.2608e-09
8.69351e-10
-1.14484e-09
4.537e-09
8.50319e-10
-1.12652e-09
4.81404e-09
7.82404e-10
-1.05945e-09
5.09201e-09
6.59002e-10
-9.36969e-10
5.37117e-09
4.75917e-10
-7.55075e-10
5.65224e-09
2.34591e-10
-5.15666e-10
5.93706e-09
-5.16114e-11
-2.33211e-10
6.22929e-09
-3.56844e-10
6.46188e-11
6.53502e-09
-6.36457e-10
3.30722e-10
6.86187e-09
-8.43513e-10
5.16668e-10
7.21507e-09
-9.4755e-10
5.94345e-10
7.539e-09
-8.70764e-10
5.4684e-10
7.80809e-09
-8.32822e-10
5.63735e-10
8.01989e-09
-9.02599e-10
6.90796e-10
8.17557e-09
-1.04914e-09
8.93457e-10
8.27792e-09
-1.23319e-09
1.13084e-09
8.33054e-09
-1.43305e-09
1.38044e-09
8.3361e-09
-1.63416e-09
1.6286e-09
8.29573e-09
-1.80724e-09
1.84761e-09
8.21127e-09
-1.9458e-09
2.03027e-09
8.08486e-09
-2.03514e-09
2.16155e-09
7.91814e-09
-2.04577e-09
2.21248e-09
7.71345e-09
-1.96489e-09
2.16959e-09
7.4736e-09
-1.78247e-09
2.02231e-09
7.20142e-09
-1.49292e-09
1.7651e-09
6.89954e-09
-1.09447e-09
1.39634e-09
6.5704e-09
-5.86291e-10
9.15431e-10
6.21648e-09
3.47692e-11
3.19152e-10
5.83958e-09
7.76608e-10
-3.99704e-10
5.4369e-09
1.64414e-09
-1.24146e-09
4.99315e-09
2.61137e-09
-2.16762e-09
4.47879e-09
3.54638e-09
-3.03202e-09
3.89866e-09
4.12316e-09
-3.54303e-09
3.56752e-09
3.54094e-09
-3.2098e-09
2.48776e-09
-5.35085e-10
2.66046e-09
-5.30624e-10
2.8957e-09
-4.26705e-10
3.15995e-09
-2.84562e-10
3.43893e-09
-1.29038e-10
3.72523e-09
2.43717e-11
4.01577e-09
1.67974e-10
4.30913e-09
2.96767e-10
4.60469e-09
4.06115e-10
4.90212e-09
4.91399e-10
5.20122e-09
5.47542e-10
5.50188e-09
5.68688e-10
5.80399e-09
5.48209e-10
6.10739e-09
4.79006e-10
6.41185e-09
3.54545e-10
6.71729e-09
1.70475e-10
7.02407e-09
-7.21871e-11
7.33361e-09
-3.61154e-10
7.64923e-09
-6.7246e-10
7.97687e-09
-9.64097e-10
8.32423e-09
-1.19088e-09
8.69701e-09
-1.32033e-09
9.03792e-09
-1.21168e-09
9.32132e-09
-1.11623e-09
9.54504e-09
-1.12631e-09
9.7102e-09
-1.2143e-09
9.81944e-09
-1.34243e-09
9.8763e-09
-1.48991e-09
9.88333e-09
-1.6412e-09
9.84188e-09
-1.76579e-09
9.75412e-09
-1.85804e-09
9.62256e-09
-1.90358e-09
9.44945e-09
-1.87265e-09
9.23807e-09
-1.75352e-09
8.99254e-09
-1.53694e-09
8.71749e-09
-1.21787e-09
8.41812e-09
-7.95094e-10
8.10071e-09
-2.6888e-10
7.77403e-09
3.61451e-10
7.45121e-09
1.09942e-09
7.15082e-09
1.94454e-09
6.8958e-09
2.86638e-09
6.71413e-09
3.72805e-09
6.63753e-09
4.19976e-09
3.67819e-09
6.52685e-09
4.3556e-09
-5.52283e-10
4.4358e-09
-6.10828e-10
4.5912e-09
-5.82102e-10
4.80279e-09
-4.96155e-10
5.05064e-09
-3.76887e-10
5.32188e-09
-2.46864e-10
5.60866e-09
-1.18806e-10
5.90625e-09
-8.23459e-13
6.21176e-09
1.00604e-10
6.52335e-09
1.79814e-10
6.83975e-09
2.31136e-10
7.16009e-09
2.48356e-10
7.48362e-09
2.24675e-10
7.80966e-09
1.52968e-10
8.13745e-09
2.67494e-11
8.4664e-09
-1.58469e-10
8.79626e-09
-4.02051e-10
9.12785e-09
-6.9274e-10
9.46386e-09
-1.00847e-09
9.80982e-09
-1.31006e-09
1.01733e-08
-1.5543e-09
1.05601e-08
-1.70717e-09
1.09125e-08
-1.56407e-09
1.12053e-08
-1.40908e-09
1.14369e-08
-1.35788e-09
1.16083e-08
-1.38569e-09
1.17219e-08
-1.45606e-09
1.17812e-08
-1.54915e-09
1.17883e-08
-1.64833e-09
1.17452e-08
-1.72265e-09
1.16543e-08
-1.76722e-09
1.15184e-08
-1.76765e-09
1.13406e-08
-1.6948e-09
1.11253e-08
-1.53825e-09
1.08783e-08
-1.28994e-09
1.06064e-08
-9.45992e-10
1.03179e-08
-5.066e-10
1.00236e-08
2.54837e-11
9.73873e-09
6.46274e-10
9.48731e-09
1.35084e-09
9.30492e-09
2.12693e-09
9.23762e-09
2.93368e-09
9.32166e-09
3.64402e-09
9.50601e-09
4.0154e-09
3.62026e-09
9.56395e-09
6.92042e-09
-5.35736e-10
6.93875e-09
-6.29158e-10
7.01453e-09
-6.57883e-10
7.15457e-09
-6.362e-10
7.34686e-09
-5.69172e-10
7.5783e-09
-4.78311e-10
7.83895e-09
-3.79453e-10
8.12141e-09
-2.83279e-10
8.42042e-09
-1.98411e-10
8.73224e-09
-1.32008e-10
9.05413e-09
-9.07526e-11
9.38404e-09
-8.15495e-11
9.72029e-09
-1.11581e-10
1.00614e-08
-1.88122e-10
1.04058e-08
-3.17649e-10
1.07521e-08
-5.04793e-10
1.10993e-08
-7.49254e-10
1.14473e-08
-1.04072e-09
1.17978e-08
-1.35902e-09
1.21557e-08
-1.66795e-09
1.25279e-08
-1.92647e-09
1.29202e-08
-2.09952e-09
1.32757e-08
-1.91956e-09
1.35706e-08
-1.70397e-09
1.38037e-08
-1.59097e-09
1.39761e-08
-1.5581e-09
1.409e-08
-1.56994e-09
1.41484e-08
-1.6075e-09
1.41532e-08
-1.65313e-09
1.4107e-08
-1.67648e-09
1.40131e-08
-1.67333e-09
1.38733e-08
-1.62788e-09
1.36925e-08
-1.51393e-09
1.34764e-08
-1.32221e-09
1.32327e-08
-1.04622e-09
1.29706e-08
-6.83868e-10
1.27016e-08
-2.37673e-10
1.24408e-08
2.86358e-10
1.22089e-08
8.78086e-10
1.20364e-08
1.52343e-09
1.19647e-08
2.19859e-09
1.20404e-08
2.85797e-09
1.22831e-08
3.40136e-09
1.26331e-08
3.66536e-09
3.42313e-09
1.28302e-08
1.03532e-08
-5.06168e-10
1.03355e-08
-6.11479e-10
1.03529e-08
-6.7525e-10
1.04192e-08
-7.02559e-10
1.05421e-08
-6.92076e-10
1.07138e-08
-6.49939e-10
1.09258e-08
-5.91438e-10
1.11707e-08
-5.28238e-10
1.14423e-08
-4.69997e-10
1.17353e-08
-4.24994e-10
1.20455e-08
-4.00954e-10
1.23696e-08
-4.05633e-10
1.27047e-08
-4.4674e-10
1.30484e-08
-5.31787e-10
1.3398e-08
-6.67278e-10
1.37512e-08
-8.57988e-10
1.41059e-08
-1.10389e-09
1.44606e-08
-1.39549e-09
1.48161e-08
-1.71445e-09
1.51758e-08
-2.02769e-09
1.55458e-08
-2.29643e-09
1.59313e-08
-2.48506e-09
1.6278e-08
-2.26628e-09
1.65644e-08
-1.99031e-09
1.67898e-08
-1.81642e-09
1.69555e-08
-1.72376e-09
1.70633e-08
-1.67776e-09
1.71153e-08
-1.65955e-09
1.7114e-08
-1.65182e-09
1.70624e-08
-1.62487e-09
1.69647e-08
-1.57562e-09
1.68212e-08
-1.48436e-09
1.66388e-08
-1.33152e-09
1.6425e-08
-1.10846e-09
1.61893e-08
-8.10523e-10
1.59433e-08
-4.37851e-10
1.57017e-08
3.98991e-12
1.54822e-08
5.05799e-10
1.5309e-08
1.05133e-09
1.52127e-08
1.61974e-09
1.52306e-08
2.18063e-09
1.5398e-08
2.69064e-09
1.57193e-08
3.08001e-09
1.61283e-08
3.25636e-09
3.12161e-09
1.64298e-08
1.48536e-08
-4.77331e-10
1.48199e-08
-5.77786e-10
1.48047e-08
-6.59965e-10
1.48183e-08
-7.16202e-10
1.4874e-08
-7.47746e-10
1.49779e-08
-7.5388e-10
1.51263e-08
-7.39826e-10
1.53146e-08
-7.16562e-10
1.55378e-08
-6.93188e-10
1.57907e-08
-6.77829e-10
1.60684e-08
-6.78661e-10
1.63668e-08
-7.04036e-10
1.66821e-08
-7.62064e-10
1.70107e-08
-8.60422e-10
1.7349e-08
-1.00558e-09
1.76934e-08
-1.20241e-09
1.80406e-08
-1.45105e-09
1.83877e-08
-1.74259e-09
1.87337e-08
-2.06047e-09
1.90808e-08
-2.37474e-09
1.94332e-08
-2.64881e-09
1.97952e-08
-2.84707e-09
2.01172e-08
-2.58828e-09
2.03807e-08
-2.25382e-09
2.0586e-08
-2.02172e-09
2.0734e-08
-1.8718e-09
2.08267e-08
-1.77043e-09
2.0864e-08
-1.6969e-09
2.08509e-08
-1.63868e-09
2.07916e-08
-1.56557e-09
2.06872e-08
-1.47119e-09
2.05388e-08
-1.33597e-09
2.03556e-08
-1.14834e-09
2.01467e-08
-8.99515e-10
1.99231e-08
-5.86925e-10
1.96986e-08
-2.13364e-10
1.94893e-08
2.13241e-10
1.93155e-08
6.79618e-10
1.92002e-08
1.16662e-09
1.917e-08
1.64997e-09
1.92516e-08
2.09899e-09
1.94643e-08
2.47793e-09
1.98006e-08
2.74379e-09
2.0204e-08
2.85295e-09
2.77173e-09
2.05539e-08
2.06532e-08
-4.56634e-10
2.06215e-08
-5.4609e-10
2.05923e-08
-6.30767e-10
2.05792e-08
-7.0303e-10
2.05901e-08
-7.58659e-10
2.06353e-08
-7.9912e-10
2.07202e-08
-8.24697e-10
2.08443e-08
-8.40694e-10
2.10058e-08
-8.54686e-10
2.12014e-08
-8.7338e-10
2.14272e-08
-9.04466e-10
2.16793e-08
-9.56199e-10
2.19539e-08
-1.03658e-09
2.22465e-08
-1.1531e-09
2.25529e-08
-1.31194e-09
2.28684e-08
-1.51788e-09
2.31883e-08
-1.77102e-09
2.35084e-08
-2.06267e-09
2.38258e-08
-2.37787e-09
2.41409e-08
-2.6898e-09
2.44558e-08
-2.9637e-09
2.4773e-08
-3.16428e-09
2.50503e-08
-2.86556e-09
2.5273e-08
-2.47657e-09
2.54422e-08
-2.19091e-09
2.55585e-08
-1.98808e-09
2.56233e-08
-1.83525e-09
2.56365e-08
-1.71009e-09
2.56033e-08
-1.6055e-09
2.55306e-08
-1.49284e-09
2.54142e-08
-1.3548e-09
2.52588e-08
-1.18058e-09
2.50745e-08
-9.64073e-10
2.48717e-08
-6.96671e-10
2.46627e-08
-3.77946e-10
2.44627e-08
-1.33242e-11
2.42883e-08
3.87571e-10
2.41593e-08
8.08666e-10
2.40955e-08
1.2304e-09
2.41163e-08
1.62915e-09
2.42366e-08
1.97874e-09
2.44611e-08
2.25335e-09
2.47755e-08
2.42945e-09
2.51377e-08
2.49075e-09
2.43225e-09
2.54772e-08
2.80209e-08
-4.46273e-10
2.79997e-08
-5.2482e-10
2.79739e-08
-6.04984e-10
2.79523e-08
-6.8143e-10
2.7944e-08
-7.5041e-10
2.79551e-08
-8.10171e-10
2.79922e-08
-8.6181e-10
2.80613e-08
-9.09773e-10
2.81629e-08
-9.5632e-10
2.82964e-08
-1.00682e-09
2.84602e-08
-1.06829e-09
2.8652e-08
-1.14802e-09
2.88687e-08
-1.25323e-09
2.91062e-08
-1.39065e-09
2.936e-08
-1.56576e-09
2.96251e-08
-1.78293e-09
2.98958e-08
-2.04179e-09
3.01665e-08
-2.33336e-09
3.04327e-08
-2.64405e-09
3.0693e-08
-2.95007e-09
3.09469e-08
-3.21762e-09
3.11946e-08
-3.41201e-09
3.14041e-08
-3.07502e-09
3.15653e-08
-2.63775e-09
3.16796e-08
-2.30529e-09
3.17471e-08
-2.05554e-09
3.17666e-08
-1.85479e-09
3.17464e-08
-1.68983e-09
3.16871e-08
-1.54623e-09
3.15872e-08
-1.39298e-09
3.14506e-08
-1.21815e-09
3.12849e-08
-1.01487e-09
3.10977e-08
-7.76908e-10
3.09004e-08
-4.99387e-10
3.07065e-08
-1.83977e-10
3.05305e-08
1.62638e-10
3.03894e-08
5.28709e-10
3.02995e-08
8.98548e-10
3.02761e-08
1.25381e-09
3.03306e-08
1.5746e-09
3.04679e-08
1.84141e-09
3.06834e-08
2.03791e-09
3.09598e-08
2.15306e-09
3.12667e-08
2.18385e-09
2.13594e-09
3.1563e-08
3.72635e-08
-4.45785e-10
3.72546e-08
-5.15923e-10
3.724e-08
-5.9036e-10
3.72244e-08
-6.65869e-10
3.72137e-08
-7.39619e-10
3.72143e-08
-8.10782e-10
3.72289e-08
-8.76459e-10
3.7264e-08
-9.44842e-10
3.73227e-08
-1.01506e-09
3.74057e-08
-1.08979e-09
3.75133e-08
-1.17589e-09
3.76449e-08
-1.27967e-09
3.77988e-08
-1.40705e-09
3.79718e-08
-1.56368e-09
3.81599e-08
-1.75392e-09
3.83585e-08
-1.98145e-09
3.85616e-08
-2.24488e-09
3.87626e-08
-2.53438e-09
3.89559e-08
-2.83739e-09
3.91389e-08
-3.13307e-09
3.93084e-08
-3.38707e-09
3.94618e-08
-3.56547e-09
3.95802e-08
-3.19341e-09
3.96588e-08
-2.71629e-09
3.96982e-08
-2.34472e-09
3.96971e-08
-2.05449e-09
3.96624e-08
-1.82006e-09
3.95954e-08
-1.62285e-09
3.94902e-08
-1.44098e-09
3.9353e-08
-1.25577e-09
3.91903e-08
-1.05548e-09
3.90077e-08
-8.32313e-10
3.88134e-08
-5.8259e-10
3.86187e-08
-3.04618e-10
3.84368e-08
-2.15074e-12
3.82815e-08
3.18003e-10
3.81672e-08
6.4296e-10
3.81066e-08
9.5912e-10
3.81094e-08
1.25107e-09
3.81801e-08
1.50386e-09
3.83169e-08
1.70462e-09
3.85104e-08
1.84447e-09
3.87437e-08
1.91973e-09
3.89946e-08
1.93292e-09
1.89213e-09
3.92384e-08
4.87191e-08
-4.55052e-10
4.87226e-08
-5.19417e-10
4.87214e-08
-5.8919e-10
4.87182e-08
-6.62601e-10
4.87164e-08
-7.37874e-10
4.87198e-08
-8.14182e-10
4.87331e-08
-8.89749e-10
4.87571e-08
-9.68806e-10
4.87952e-08
-1.05317e-09
4.88497e-08
-1.14429e-09
4.8921e-08
-1.24725e-09
4.90088e-08
-1.36742e-09
4.91115e-08
-1.5098e-09
4.9227e-08
-1.67911e-09
4.93516e-08
-1.87859e-09
4.94813e-08
-2.11112e-09
4.96102e-08
-2.3738e-09
4.97315e-08
-2.65569e-09
4.98392e-08
-2.94507e-09
4.99301e-08
-3.22397e-09
4.99982e-08
-3.45518e-09
5.0039e-08
-3.60622e-09
5.00485e-08
-3.20288e-09
5.00278e-08
-2.69563e-09
4.99776e-08
-2.29457e-09
4.98984e-08
-1.97527e-09
4.97911e-08
-1.71271e-09
4.9657e-08
-1.4888e-09
4.94975e-08
-1.2815e-09
4.93163e-08
-1.07457e-09
4.9119e-08
-8.58149e-10
4.89124e-08
-6.25754e-10
4.87051e-08
-3.75238e-10
4.85078e-08
-1.07347e-10
4.8332e-08
1.73655e-10
4.81903e-08
4.59686e-10
4.80933e-08
7.40013e-10
4.80492e-08
1.00316e-09
4.80627e-08
1.23757e-09
4.81335e-08
1.43315e-09
4.82557e-08
1.58241e-09
4.84187e-08
1.68149e-09
4.86078e-08
1.7306e-09
4.88067e-08
1.73403e-09
1.6993e-09
4.89995e-08
6.27519e-08
-4.75866e-10
6.27691e-08
-5.36572e-10
6.2783e-08
-6.03153e-10
6.27952e-08
-6.748e-10
6.28079e-08
-7.50589e-10
6.28237e-08
-8.29922e-10
6.2846e-08
-9.12076e-10
6.28742e-08
-9.96966e-10
6.29109e-08
-1.0899e-09
6.29586e-08
-1.19199e-09
6.30169e-08
-1.30553e-09
6.30843e-08
-1.43481e-09
6.31588e-08
-1.58438e-09
6.32378e-08
-1.7581e-09
6.33176e-08
-1.95832e-09
6.33936e-08
-2.18716e-09
6.34597e-08
-2.4399e-09
6.35089e-08
-2.70493e-09
6.35355e-08
-2.97163e-09
6.35358e-08
-3.22423e-09
6.35011e-08
-3.42055e-09
6.3426e-08
-3.53108e-09
6.33221e-08
-3.09902e-09
6.31971e-08
-2.57057e-09
6.30509e-08
-2.14845e-09
6.28846e-08
-1.8089e-09
6.26989e-08
-1.527e-09
6.24944e-08
-1.28429e-09
6.22742e-08
-1.06137e-09
6.20427e-08
-8.43088e-10
6.18057e-08
-6.21106e-10
6.15703e-08
-3.90371e-10
6.1345e-08
-1.49941e-10
6.11393e-08
9.83663e-11
6.09633e-08
3.49704e-10
6.08262e-08
5.96768e-10
6.07351e-08
8.31119e-10
6.06942e-08
1.04407e-09
6.07039e-08
1.22778e-09
6.0761e-08
1.37611e-09
6.0858e-08
1.48537e-09
6.09848e-08
1.55469e-09
6.11295e-08
1.58596e-09
6.12799e-08
1.58363e-09
1.5538e-09
6.14254e-08
7.97658e-08
-5.11589e-10
7.97995e-08
-5.70278e-10
7.98314e-08
-6.35008e-10
7.98621e-08
-7.05548e-10
7.9893e-08
-7.81487e-10
7.99256e-08
-8.62498e-10
7.99622e-08
-9.48631e-10
8.00053e-08
-1.04014e-09
8.00545e-08
-1.13903e-09
8.01096e-08
-1.2471e-09
8.01708e-08
-1.36673e-09
8.02367e-08
-1.50073e-09
8.03046e-08
-1.65228e-09
8.03707e-08
-1.82416e-09
8.04304e-08
-2.0181e-09
8.04781e-08
-2.23478e-09
8.05059e-08
-2.46773e-09
8.05069e-08
-2.70597e-09
8.04769e-08
-2.94156e-09
8.04079e-08
-3.15531e-09
8.029e-08
-3.30257e-09
8.01178e-08
-3.35889e-09
7.99168e-08
-2.898e-09
7.97e-08
-2.35386e-09
7.94684e-08
-1.91683e-09
7.92227e-08
-1.5632e-09
7.89646e-08
-1.2689e-09
7.86955e-08
-1.01511e-09
7.8419e-08
-7.84918e-10
7.81406e-08
-5.64649e-10
7.78665e-08
-3.47012e-10
7.76039e-08
-1.27835e-10
7.73603e-08
9.36975e-11
7.71442e-08
3.14484e-10
7.69633e-08
5.30537e-10
7.68238e-08
7.36315e-10
7.67293e-08
9.25631e-10
7.66807e-08
1.09265e-09
7.66759e-08
1.23257e-09
7.67099e-08
1.34216e-09
7.67752e-08
1.42008e-09
7.68629e-08
1.46697e-09
7.69636e-08
1.48526e-09
7.70684e-08
1.47883e-09
1.45239e-09
7.71698e-08
1.00247e-07
-5.6502e-10
1.003e-07
-6.22946e-10
1.00352e-07
-6.86928e-10
1.00403e-07
-7.57071e-10
1.00455e-07
-8.33373e-10
1.00509e-07
-9.15834e-10
1.00565e-07
-1.00465e-09
1.00625e-07
-1.10022e-09
1.00689e-07
-1.20347e-09
1.00758e-07
-1.3158e-09
1.0083e-07
-1.43893e-09
1.00904e-07
-1.57477e-09
1.00977e-07
-1.72524e-09
1.01045e-07
-1.89182e-09
1.01102e-07
-2.0753e-09
1.01141e-07
-2.27395e-09
1.01154e-07
-2.48104e-09
1.01136e-07
-2.6876e-09
1.01079e-07
-2.88457e-09
1.0097e-07
-3.04628e-09
1.00803e-07
-3.13594e-09
1.00573e-07
-3.12816e-09
1.0031e-07
-2.63547e-09
1.00033e-07
-2.07698e-09
9.97442e-08
-1.62781e-09
9.94445e-08
-1.26348e-09
9.91366e-08
-9.60944e-10