/*--------------------------------*- C++ -*----------------------------------*\
| =========                 |                                                 |
| \\      /  F ield         | OpenFOAM: The Open Source CFD Toolbox           |
|  \\    /   O peration     | Version:  2312                                  |
|   \\  /    A nd           | Website:  www.openfoam.com                      |
|    \\/     M anipulation  |                                                 |
\*---------------------------------------------------------------------------*/
FoamFile
{
    version     2.0;
    format      ascii;
    arch        "LSB;label=32;scalar=64";
    class       volVectorField;
    location    "142.5";
    object      U;
}
// * * * * * * * * * * * * * * * * * * * * * * * * * * * * * * * * * * * * * //

dimensions      [0 1 -1 0 0 0 0];

internalField   nonuniform List<vector> 
4800
(
(0.000462633 2.5962e-07 -1.94085e-26)
(0.000456724 2.45893e-07 -1.34837e-25)
(0.000453948 2.21312e-07 1.73486e-25)
(0.000453115 1.94118e-07 7.79525e-26)
(0.000453648 1.74108e-07 1.14751e-24)
(0.00045499 1.53331e-07 -2.73942e-24)
(0.00045708 9.75307e-08 2.56412e-24)
(0.000459839 1.93425e-09 -3.7241e-24)
(0.000463351 -1.44588e-07 1.19051e-24)
(0.000467763 -3.84351e-07 4.09428e-24)
(0.000473503 -8.71958e-07 -1.2603e-24)
(0.000481882 -2.25374e-06 -1.03865e-25)
(0.000500253 -7.42026e-06 -1.55473e-24)
(0.000546243 -2.82353e-05 7.48359e-25)
(0.00062049 -8.98555e-05 -6.01441e-25)
(0.00143437 1.35971e-06 -6.13004e-26)
(0.00141673 8.21581e-07 7.63662e-26)
(0.00140828 3.97688e-07 -6.91034e-25)
(0.00140552 3.81886e-08 5.1613e-25)
(0.0014067 -2.89809e-07 1.63353e-24)
(0.00141016 -5.99486e-07 -2.62046e-24)
(0.00141584 -1.01153e-06 -7.52493e-25)
(0.00142335 -1.5723e-06 -1.82742e-25)
(0.00143293 -2.37043e-06 6.1658e-24)
(0.001445 -3.63308e-06 -4.5666e-24)
(0.00146077 -6.0262e-06 4.96654e-25)
(0.00148302 -1.17777e-05 7.65925e-25)
(0.0015207 -2.85565e-05 -1.14651e-24)
(0.00158396 -7.97186e-05 -3.71792e-25)
(0.00165035 -0.000193256 1.53126e-24)
(0.00251253 4.30251e-06 -4.37866e-26)
(0.00248272 2.59121e-06 4.48017e-26)
(0.00246819 1.28118e-06 4.51606e-25)
(0.00246309 1.67459e-07 -1.06394e-24)
(0.00246449 -8.53517e-07 1.03453e-24)
(0.00246952 -1.87104e-06 9.83463e-25)
(0.00247831 -3.13307e-06 -2.56608e-24)
(0.00248992 -4.75932e-06 -1.59453e-24)
(0.00250463 -7.04209e-06 3.81602e-24)
(0.00252296 -1.05828e-05 1.45201e-24)
(0.00254627 -1.68648e-05 -5.05057e-24)
(0.00257675 -2.98235e-05 -7.87469e-25)
(0.00261851 -5.88735e-05 2.16906e-24)
(0.00267007 -0.000123035 3.48262e-24)
(0.00270635 -0.000228412 -1.80652e-24)
(0.00370342 9.50294e-06 1.61655e-26)
(0.00366125 5.79727e-06 -1.11743e-25)
(0.00364031 2.97838e-06 4.93778e-25)
(0.00363234 5.65092e-07 5.13305e-25)
(0.00363347 -1.53298e-06 -5.10137e-25)
(0.00363936 -3.69144e-06 -2.97816e-24)
(0.00365046 -6.32474e-06 -2.05586e-24)
(0.00366514 -9.59194e-06 7.70242e-24)
(0.00368356 -1.40774e-05 3.20921e-24)
(0.003706 -2.07676e-05 -4.59451e-24)
(0.00373321 -3.17245e-05 -1.86015e-24)
(0.00376572 -5.13881e-05 -1.43154e-24)
(0.00380283 -8.75522e-05 4.05567e-26)
(0.0038374 -0.000149879 1.06576e-24)
(0.00385162 -0.000232686 5.20853e-27)
(0.00501089 1.73828e-05 -2.9653e-26)
(0.00495673 1.07177e-05 -1.79307e-25)
(0.00492928 5.67482e-06 -1.09987e-25)
(0.004918 1.42806e-06 3.05012e-25)
(0.00491828 -2.3691e-06 -8.47752e-25)
(0.00492433 -6.01849e-06 2.11181e-24)
(0.00493671 -1.05129e-05 -3.74886e-25)
(0.0049532 -1.59027e-05 1.32939e-24)
(0.00497357 -2.30447e-05 -7.39361e-24)
(0.00499764 -3.31694e-05 1.4077e-23)
(0.00502522 -4.83846e-05 -1.36583e-23)
(0.00505521 -7.22951e-05 7.23506e-24)
(0.0050844 -0.000109537 -6.72718e-24)
(0.00510537 -0.000162963 6.33982e-24)
(0.00510824 -0.000224818 -2.52237e-24)
(0.00643459 2.83983e-05 3.91711e-26)
(0.0063699 1.76995e-05 1.38305e-25)
(0.00633646 9.64693e-06 -7.27043e-25)
(0.00632188 2.89654e-06 -4.51389e-25)
(0.00632061 -3.058e-06 1.21293e-24)
(0.00632639 -8.68925e-06 4.32853e-25)
(0.00633904 -1.54566e-05 -3.4233e-24)
(0.00635596 -2.33004e-05 8.19089e-24)
(0.00637652 -3.32591e-05 -1.06768e-23)
(0.00639994 -4.65794e-05 2.55809e-24)
(0.00642518 -6.4954e-05 7.82861e-24)
(0.00645022 -9.05487e-05 -1.0889e-23)
(0.0064715 -0.000125111 5.4649e-24)
(0.00648364 -0.000168027 5.54754e-24)
(0.00648233 -0.000213128 -4.21844e-24)
(0.00796794 4.27991e-05 3.23444e-26)
(0.00789602 2.6976e-05 -1.89746e-25)
(0.00785819 1.51048e-05 6.72946e-25)
(0.00784108 5.22465e-06 -9.28627e-25)
(0.00783806 -3.33631e-06 -3.12811e-24)
(0.00784347 -1.15936e-05 5.33634e-24)
(0.00785554 -2.08032e-05 -3.24074e-24)
(0.00787178 -3.12466e-05 1.10475e-23)
(0.00789107 -4.3897e-05 -7.51761e-24)
(0.00791217 -5.9796e-05 -3.52131e-24)
(0.00793352 -7.99992e-05 -6.93039e-24)
(0.00795295 -0.000105334 6.38668e-24)
(0.00796768 -0.00013572 1.7934e-24)
(0.00797459 -0.000169372 1.51216e-24)
(0.00797248 -0.000202236 -1.33016e-24)
(0.00959618 6.02777e-05 -4.63183e-26)
(0.0095229 3.84113e-05 6.25262e-25)
(0.00948401 2.19958e-05 -1.44688e-24)
(0.00946627 8.45451e-06 -1.16448e-24)
(0.00946251 -3.2829e-06 4.46851e-25)
(0.00946758 -1.4375e-05 8.61515e-25)
(0.00947888 -2.62107e-05 3.08161e-24)
(0.0094939 -3.92157e-05 -8.39884e-24)
(0.00951116 -5.41964e-05 -4.48044e-24)
(0.00952915 -7.18693e-05 1.23508e-23)
(0.00954624 -9.26726e-05 -3.81136e-24)
(0.00956058 -0.000116541 1.30282e-23)
(0.00957047 -0.000142612 -6.86022e-24)
(0.00957435 -0.000169133 -2.15524e-24)
(0.00957255 -0.00019369 1.27136e-24)
(0.0112959 7.9508e-05 -6.00653e-27)
(0.0112301 5.11473e-05 3.43353e-25)
(0.0111955 2.97291e-05 -4.88215e-25)
(0.0111805 1.21756e-05 1.15492e-24)
(0.0111781 -3.03515e-06 -6.86032e-24)
(0.011184 -1.71652e-05 7.2392e-24)
(0.0111951 -3.16116e-05 -1.13811e-23)
(0.0112091 -4.69327e-05 7.00657e-24)
(0.0112244 -6.37216e-05 5.20573e-24)
(0.0112395 -8.23575e-05 1.12558e-23)
(0.011253 -0.000102836 -1.47018e-23)
(0.0112635 -0.000124677 -2.67037e-24)
(0.0112702 -0.000146911 1.29463e-24)
(0.0112726 -0.000168251 8.777e-24)
(0.0112714 -0.000187354 -3.54753e-24)
(0.0130391 9.7726e-05 3.12071e-26)
(0.0129911 6.32237e-05 -1.40574e-25)
(0.0129676 3.68459e-05 6.34362e-25)
(0.0129599 1.52508e-05 -2.21429e-24)
(0.0129623 -3.42917e-06 3.34662e-24)
(0.0129709 -2.05488e-05 -4.30604e-24)
(0.0129833 -3.7409e-05 7.19628e-24)
(0.0129975 -5.46376e-05 1.24685e-24)
(0.0130118 -7.26404e-05 -9.89073e-24)
(0.013025 -9.15436e-05 1.40162e-23)
(0.0130362 -0.000111123 -1.54338e-23)
(0.0130446 -0.000130833 -4.45316e-24)
(0.0130499 -0.0001499 7.94134e-24)
(0.0130518 -0.000167529 2.31739e-24)
(0.0130516 -0.000183031 -1.00609e-24)
(0.0148037 0.000110917 1.0611e-25)
(0.0147817 7.1545e-05 -1.05512e-24)
(0.0147754 4.08984e-05 -1.75283e-24)
(0.0147793 1.56698e-05 4.13971e-24)
(0.0147897 -6.11956e-06 1.83913e-24)
(0.0148036 -2.58573e-05 -1.15521e-23)
(0.0148193 -4.47136e-05 3.57479e-24)
(0.0148351 -6.33085e-05 2.57138e-24)
(0.0148499 -8.19212e-05 -1.09507e-23)
(0.0148629 -0.000100551 1.14782e-23)
(0.0148736 -0.000118939 -8.98441e-24)
(0.0148815 -0.000136656 2.31852e-23)
(0.0148869 -0.000153201 -1.10299e-23)
(0.0148896 -0.000168155 6.43589e-24)
(0.0148908 -0.000181211 -1.74158e-24)
(0.0165888 0.000115461 -1.42614e-26)
(0.0165934 7.29001e-05 6.57236e-25)
(0.0166058 3.91227e-05 -1.37901e-24)
(0.0166229 1.10093e-05 -7.19393e-25)
(0.0166426 -1.32264e-05 7.99949e-24)
(0.016663 -3.49458e-05 -1.17378e-24)
(0.0166831 -5.51911e-05 -1.41888e-23)
(0.0167017 -7.45325e-05 1.65005e-23)
(0.0167183 -9.31913e-05 -3.73425e-24)
(0.0167325 -0.000111152 -1.27025e-23)
(0.016744 -0.00012823 1.34605e-23)
(0.0167529 -0.000144174 7.08442e-24)
(0.0167596 -0.000158722 -6.13395e-24)
(0.0167639 -0.000171703 -1.03175e-23)
(0.016767 -0.000183029 8.56466e-25)
(0.0184194 0.000110956 -2.83296e-26)
(0.0184418 6.62726e-05 -6.60791e-25)
(0.0184671 3.02568e-05 3.54099e-24)
(0.0184938 3.69979e-08 2.99565e-25)
(0.0185204 -2.596e-05 2.14809e-24)
(0.0185458 -4.90125e-05 -7.59941e-24)
(0.0185693 -7.00442e-05 6.49094e-24)
(0.0185903 -8.95832e-05 1.44553e-24)
(0.0186086 -0.000107858 1.3173e-23)
(0.0186241 -0.000124913 -2.04845e-23)
(0.0186369 -0.000140687 -9.14953e-24)
(0.0186472 -0.000155091 -5.90496e-24)
(0.0186554 -0.000168045 1.1248e-23)
(0.0186615 -0.000179528 -3.0624e-25)
(0.0186666 -0.000189571 1.06472e-24)
(0.0203241 0.000101147 -2.98993e-26)
(0.0203513 5.44205e-05 5.52719e-25)
(0.02038 1.62782e-05 -8.22762e-25)
(0.0204089 -1.56596e-05 -1.53523e-26)
(0.020437 -4.30055e-05 1.45669e-24)
(0.0204631 -6.69872e-05 3.77177e-24)
(0.0204868 -8.84416e-05 -1.46078e-23)
(0.0205078 -0.000107887 1.25424e-24)
(0.020526 -0.000125606 7.43757e-24)
(0.0205415 -0.000141742 -3.36097e-24)
(0.0205546 -0.000156361 9.2106e-24)
(0.0205653 -0.000169505 6.31084e-24)
(0.0205743 -0.000181219 -1.15074e-23)
(0.0205814 -0.000191572 7.71592e-24)
(0.0205877 -0.000200654 -6.40503e-24)
(0.0222948 9.05717e-05 -7.43745e-25)
(0.0223186 4.1687e-05 8.65602e-25)
(0.0223438 1.4291e-06 7.7261e-25)
(0.022369 -3.21768e-05 -5.67566e-24)
(0.0223935 -6.07489e-05 5.13215e-24)
(0.0224162 -8.55105e-05 -4.10966e-24)
(0.0224368 -0.000107284 2.918e-24)
(0.0224549 -0.000126614 -2.12169e-23)
(0.0224708 -0.00014386 3.06272e-23)
(0.0224843 -0.000159269 -1.79677e-23)
(0.022496 -0.000173017 1.60272e-23)
(0.0225057 -0.000185246 1.31762e-23)
(0.0225141 -0.000196079 -2.30034e-23)
(0.0225208 -0.00020564 7.42941e-24)
(0.022527 -0.000214052 -3.08721e-25)
(0.0242676 8.08101e-05 -2.5174e-26)
(0.0242873 3.02495e-05 9.65794e-25)
(0.0243075 -1.16176e-05 -1.08546e-24)
(0.0243275 -4.65264e-05 -1.41085e-25)
(0.0243468 -7.60606e-05 1.8088e-24)
(0.0243645 -0.000101428 -3.28039e-24)
(0.0243806 -0.000123451 3.24922e-24)
(0.0243947 -0.00014271 -1.06517e-23)
(0.0244071 -0.000159633 2.44581e-23)
(0.0244177 -0.00017455 -3.14644e-23)
(0.0244268 -0.000187718 2.57957e-23)
(0.0244345 -0.000199346 -8.71094e-24)
(0.0244412 -0.000209609 4.36013e-25)
(0.0244467 -0.000218662 1.93243e-24)
(0.0244518 -0.000226641 -3.74445e-24)
(0.0261385 7.06845e-05 -2.07453e-24)
(0.0261561 1.94932e-05 5.07414e-24)
(0.026173 -2.30417e-05 -3.28738e-24)
(0.0261891 -5.84531e-05 2.32198e-25)
(0.0262041 -8.83719e-05 1.2956e-24)
(0.0262176 -0.000113959 -1.77136e-24)
(0.0262297 -0.000136006 -2.4126e-24)
(0.0262402 -0.000155111 -6.31073e-24)
(0.0262494 -0.000171743 2.8373e-24)
(0.0262572 -0.000186285 1.55751e-23)
(0.0262639 -0.000199036 -8.32459e-24)
(0.0262695 -0.000210245 5.03755e-24)
(0.0262743 -0.000220113 -2.07898e-24)
(0.0262783 -0.000228811 -6.13798e-24)
(0.026282 -0.000236483 3.13773e-24)
(0.0277804 5.8573e-05 6.90527e-25)
(0.0277973 8.07063e-06 -1.34679e-24)
(0.0278124 -3.37715e-05 -2.6585e-24)
(0.0278261 -6.88116e-05 6.12579e-24)
(0.0278382 -9.85182e-05 -1.62404e-24)
(0.0278487 -0.000123901 -1.06213e-24)
(0.0278581 -0.0001457 -4.02692e-25)
(0.0278661 -0.000164509 -1.41559e-24)
(0.027873 -0.000180812 1.06494e-24)
(0.0278788 -0.000195005 -1.92519e-24)
(0.0278838 -0.000207407 4.3791e-24)
(0.0278879 -0.000218276 2.46265e-24)
(0.0278914 -0.000227822 -9.09254e-24)
(0.0278942 -0.000236221 6.37623e-24)
(0.0278967 -0.000243615 -1.31683e-24)
(0.0290385 4.44991e-05 2.10203e-24)
(0.029055 -3.64987e-06 4.67629e-24)
(0.0290695 -4.3991e-05 -9.91957e-24)
(0.0290817 -7.80867e-05 -3.93473e-24)
(0.0290921 -0.000107099 7.47771e-24)
(0.029101 -0.000131911 3.22205e-24)
(0.0291086 -0.000153217 -2.70011e-25)
(0.029115 -0.00017159 -4.69408e-24)
(0.0291203 -0.000187504 2.62822e-26)
(0.0291247 -0.000201348 -8.37167e-25)
(0.0291282 -0.00021343 1.38723e-24)
(0.029131 -0.000224001 -1.54284e-25)
(0.0291332 -0.000233262 -2.05188e-25)
(0.0291347 -0.000241384 3.03524e-25)
(0.029136 -0.000248499 -1.48233e-25)
(0.0297116 2.70923e-05 -5.65913e-24)
(0.0297276 -1.67257e-05 -1.4244e-23)
(0.02974 -5.41529e-05 4.81322e-24)
(0.0297492 -8.609e-05 3.05466e-23)
(0.029756 -0.00011341 -9.24181e-24)
(0.029761 -0.000136831 -6.26508e-24)
(0.0297647 -0.000156965 4.12482e-24)
(0.0297673 -0.000174347 1.11599e-23)
(0.029769 -0.000189415 -2.0548e-23)
(0.0297698 -0.000202523 7.67695e-24)
(0.02977 -0.000213946 -5.16961e-25)
(0.0297695 -0.000223914 2.13918e-24)
(0.0297686 -0.000232608 6.40009e-25)
(0.0297673 -0.000240183 -4.51225e-25)
(0.0297657 -0.00024676 5.93615e-27)
(0.0295583 7.47231e-06 9.17504e-24)
(0.0295735 -3.15406e-05 -2.18188e-23)
(0.0295848 -6.50552e-05 2.92835e-24)
(0.0295929 -9.39181e-05 3.78911e-23)
(0.0295987 -0.000118713 -3.90831e-23)
(0.0296027 -0.000139991 1.60688e-23)
(0.0296054 -0.000158296 1.7578e-23)
(0.0296069 -0.000174109 -4.14119e-23)
(0.0296074 -0.000187812 -9.12512e-25)
(0.029607 -0.00019971 1.53967e-23)
(0.029606 -0.00021004 4.90947e-24)
(0.0296043 -0.000219001 -3.72812e-24)
(0.0296021 -0.000226749 3.28317e-24)
(0.0295994 -0.00023342 -1.30711e-24)
(0.0295964 -0.000239115 4.56493e-25)
(0.0286203 -8.00827e-06 5.80213e-24)
(0.0286303 -4.21103e-05 -1.24917e-23)
(0.0286364 -7.16973e-05 -9.58547e-24)
(0.02864 -9.72956e-05 4.50317e-23)
(0.0286416 -0.000119369 -4.32633e-23)
(0.0286417 -0.000138403 3.95574e-24)
(0.0286407 -0.000154861 7.9278e-24)
(0.0286387 -0.000169134 5.2072e-24)
(0.0286359 -0.000181527 6.00409e-24)
(0.0286324 -0.000192282 -3.27778e-23)
(0.0286283 -0.000201594 2.0578e-23)
(0.0286237 -0.000209622 1.38546e-25)
(0.0286186 -0.000216495 1.19405e-23)
(0.0286132 -0.000222322 -5.56383e-24)
(0.0286073 -0.000227188 -1.2567e-24)
(0.0271111 -1.86919e-05 1.45796e-23)
(0.0271202 -4.80635e-05 -2.61971e-23)
(0.0271254 -7.38184e-05 5.25722e-24)
(0.0271276 -9.62036e-05 -1.41852e-23)
(0.0271277 -0.000115621 -1.98547e-23)
(0.0271261 -0.000132489 6.50354e-23)
(0.0271231 -0.000147165 -2.63268e-23)
(0.027119 -0.000159939 8.03201e-24)
(0.0271139 -0.00017104 -4.71414e-24)
(0.0271081 -0.000180655 -1.3918e-23)
(0.0271015 -0.000188938 2.72452e-23)
(0.0270944 -0.000196015 -1.65354e-23)
(0.0270867 -0.000201988 1.96286e-24)
(0.0270787 -0.000206945 3.04002e-24)
(0.0270701 -0.000210954 -3.7934e-25)
(0.0252678 -2.79783e-05 5.65239e-24)
(0.0252743 -5.29368e-05 -2.97554e-23)
(0.025277 -7.48859e-05 5.25399e-23)
(0.0252768 -9.40504e-05 -4.09171e-23)
(0.0252744 -0.000110775 4.25948e-23)
(0.0252702 -0.000125381 -1.36382e-23)
(0.0252645 -0.000138129 -9.83661e-24)
(0.0252575 -0.000149229 -1.17002e-23)
(0.0252496 -0.000158853 2.2441e-23)
(0.0252408 -0.000167146 5.14848e-25)
(0.0252313 -0.000174229 -2.30902e-23)
(0.0252211 -0.000180199 -3.57249e-24)
(0.0252103 -0.000185136 6.23957e-24)
(0.0251991 -0.000189109 -1.49212e-24)
(0.0251874 -0.000192173 3.48485e-25)
(0.0232355 -3.39023e-05 7.5515e-25)
(0.0232382 -5.461e-05 -1.12268e-23)
(0.0232373 -7.29005e-05 -6.62831e-24)
(0.0232337 -8.89765e-05 5.30965e-23)
(0.0232278 -0.000103088 -5.30013e-23)
(0.0232201 -0.000115457 1.56908e-23)
(0.0232109 -0.000126266 2.74833e-24)
(0.0232005 -0.000135669 -1.50218e-24)
(0.023189 -0.000143794 -7.51636e-24)
(0.0231767 -0.000150752 3.36585e-23)
(0.0231636 -0.000156631 -2.72456e-23)
(0.0231499 -0.000161506 -1.50149e-24)
(0.0231356 -0.000165437 2.5894e-24)
(0.0231208 -0.000168477 2.61449e-24)
(0.0231056 -0.000170669 -2.08149e-24)
(0.0211146 -3.56586e-05 1.12571e-24)
(0.0211129 -5.25429e-05 1.04504e-23)
(0.0211079 -6.75508e-05 -1.19663e-23)
(0.0211004 -8.08248e-05 -8.56406e-24)
(0.0210906 -9.25311e-05 5.54514e-23)
(0.0210792 -0.000102818 -4.24031e-23)
(0.0210664 -0.000111814 -8.48438e-25)
(0.0210523 -0.000119631 -9.30453e-24)
(0.0210373 -0.000126364 -8.94206e-25)
(0.0210215 -0.000132091 1.29005e-24)
(0.0210049 -0.000136879 -5.87792e-24)
(0.0209878 -0.000140781 4.40522e-24)
(0.0209701 -0.000143841 1.47848e-24)
(0.0209521 -0.0001461 1.46053e-24)
(0.0209337 -0.000147591 2.0431e-24)
(0.0189781 -3.38606e-05 8.02517e-24)
(0.0189724 -4.74565e-05 -1.23577e-23)
(0.0189637 -5.96088e-05 -1.02115e-23)
(0.0189527 -7.04175e-05 3.12243e-23)
(0.0189398 -7.99955e-05 -1.11684e-23)
(0.0189252 -8.84415e-05 -1.63086e-23)
(0.0189094 -9.58432e-05 5.63673e-24)
(0.0188924 -0.000102277 1.33218e-23)
(0.0188746 -0.000107808 -2.17905e-23)
(0.018856 -0.000112493 2.21245e-23)
(0.0188367 -0.000116376 -1.22096e-23)
(0.018817 -0.000119496 5.47597e-24)
(0.0187969 -0.000121885 -7.77975e-24)
(0.0187764 -0.000123572 8.01432e-24)
(0.0187557 -0.000124582 -2.06221e-24)
(0.016882 -2.97377e-05 -1.55697e-24)
(0.0168734 -4.05743e-05 -5.48932e-24)
(0.0168622 -5.03089e-05 -1.77499e-23)
(0.016849 -5.90275e-05 4.96179e-23)
(0.0168339 -6.68038e-05 -8.72528e-24)
(0.0168174 -7.36968e-05 -1.4275e-23)
(0.0167996 -7.97601e-05 5.17378e-24)
(0.0167809 -8.50431e-05 -7.4631e-24)
(0.0167613 -8.95894e-05 -1.69439e-23)
(0.016741 -9.34359e-05 1.62618e-23)
(0.0167202 -9.66127e-05 7.80241e-25)
(0.0166989 -9.91456e-05 -5.94831e-24)
(0.0166773 -0.000101056 6.75318e-24)
(0.0166555 -0.000102365 4.94471e-25)
(0.0166336 -0.00010309 -6.11031e-25)
(0.0148674 -2.46012e-05 5.98793e-24)
(0.0148574 -3.31588e-05 8.97853e-24)
(0.014845 -4.08917e-05 -8.21682e-24)
(0.0148307 -4.788e-05 -1.8496e-23)
(0.0148147 -5.41599e-05 2.52371e-23)
(0.0147973 -5.97591e-05 -2.80124e-23)
(0.0147788 -6.47085e-05 -1.37775e-24)
(0.0147593 -6.90393e-05 1.10642e-23)
(0.014739 -7.27791e-05 3.96283e-24)
(0.014718 -7.59508e-05 -8.72792e-24)
(0.0146965 -7.85727e-05 -3.83089e-25)
(0.0146746 -8.06612e-05 1.9058e-23)
(0.0146525 -8.22299e-05 -7.3342e-24)
(0.0146301 -8.32943e-05 -2.01977e-24)
(0.0146077 -8.38669e-05 -1.40001e-25)
(0.0129612 -1.94315e-05 -6.21676e-24)
(0.0129508 -2.61172e-05 8.01975e-24)
(0.0129383 -3.22024e-05 9.38783e-25)
(0.012924 -3.7755e-05 1.68003e-23)
(0.012908 -4.27794e-05 -1.35829e-23)
(0.0128906 -4.72855e-05 1.22633e-24)
(0.0128721 -5.12921e-05 -1.3935e-24)
(0.0128526 -5.48176e-05 -4.46546e-24)
(0.0128323 -5.78778e-05 4.19028e-24)
(0.0128114 -6.04848e-05 -1.35836e-23)
(0.0127898 -6.26492e-05 6.92303e-25)
(0.0127679 -6.43806e-05 3.24129e-24)
(0.0127457 -6.56873e-05 2.15957e-24)
(0.0127234 -6.65802e-05 9.08146e-25)
(0.012701 -6.70676e-05 3.79542e-25)
(0.0111776 -1.47702e-05 4.60344e-24)
(0.0111677 -1.99131e-05 -3.63073e-24)
(0.0111557 -2.46341e-05 -1.6346e-23)
(0.0111419 -2.89796e-05 1.53588e-23)
(0.0111265 -3.29351e-05 2.20167e-23)
(0.0111097 -3.65042e-05 -5.32337e-24)
(0.0110918 -3.96977e-05 -1.14604e-23)
(0.0110729 -4.25247e-05 -1.6752e-23)
(0.011053 -4.49927e-05 1.27726e-23)
(0.0110325 -4.7107e-05 8.45889e-25)
(0.0110114 -4.8873e-05 -3.05194e-24)
(0.0109899 -5.02957e-05 -9.31509e-25)
(0.0109681 -5.13802e-05 1.89112e-24)
(0.0109461 -5.21336e-05 -2.41527e-26)
(0.010924 -5.25605e-05 -4.32289e-25)
(0.00952182 -1.08272e-05 -2.89717e-24)
(0.00951268 -1.46973e-05 -2.11527e-24)
(0.00950162 -1.82841e-05 2.51048e-24)
(0.00948876 -2.16083e-05 -8.27731e-24)
(0.00947433 -2.46496e-05 2.72719e-23)
(0.00945853 -2.74105e-05 -3.66821e-23)
(0.00944153 -2.98961e-05 3.65233e-23)
(0.00942349 -3.21093e-05 -1.56227e-23)
(0.00940456 -3.40525e-05 3.74026e-24)
(0.00938487 -3.57273e-05 1.93318e-25)
(0.00936457 -3.71358e-05 -2.9469e-24)
(0.0093438 -3.82802e-05 1.20061e-24)
(0.00932266 -3.91631e-05 -2.51063e-24)
(0.00930131 -3.97886e-05 -3.79904e-25)
(0.00927985 -4.0159e-05 2.01615e-25)
(0.00799299 -7.62143e-06 -1.40814e-24)
(0.00798489 -1.04571e-05 3.50222e-25)
(0.00797495 -1.31072e-05 7.88883e-25)
(0.00796329 -1.55722e-05 -3.76509e-24)
(0.0079501 -1.78375e-05 -1.77528e-24)
(0.00793556 -1.99059e-05 1.50249e-23)
(0.00791982 -2.17786e-05 -8.8845e-24)
(0.00790303 -2.34554e-05 1.32891e-24)
(0.00788532 -2.49359e-05 -1.27403e-24)
(0.00786684 -2.62197e-05 -1.45456e-24)
(0.00784771 -2.73071e-05 -4.91102e-25)
(0.00782807 -2.81985e-05 2.96306e-24)
(0.00780804 -2.8895e-05 9.33204e-25)
(0.00778776 -2.93983e-05 -1.91912e-24)
(0.00776732 -2.97092e-05 -3.34925e-25)
(0.00658712 -5.10827e-06 -5.12351e-25)
(0.00658018 -7.11689e-06 -1.76222e-25)
(0.00657151 -9.00314e-06 -8.43482e-24)
(0.00656124 -1.07577e-05 2.14883e-24)
(0.00654952 -1.23765e-05 -6.31124e-24)
(0.00653651 -1.38625e-05 4.2096e-24)
(0.00652233 -1.52152e-05 8.34292e-24)
(0.00650712 -1.64327e-05 6.48978e-24)
(0.00649101 -1.75137e-05 -9.23301e-24)
(0.00647412 -1.84568e-05 2.78821e-24)
(0.00645658 -1.92613e-05 2.5341e-24)
(0.00643851 -1.99267e-05 -3.82238e-24)
(0.00642003 -2.04532e-05 2.04861e-24)
(0.00640127 -2.08409e-05 -2.29849e-25)
(0.00638232 -2.10896e-05 6.26918e-25)
(0.00529853 -3.21553e-06 -2.00831e-24)
(0.00529281 -4.57782e-06 -2.79707e-24)
(0.00528553 -5.85286e-06 -5.6044e-25)
(0.00527679 -7.03548e-06 6.99809e-24)
(0.00526674 -8.13079e-06 -5.04373e-24)
(0.00525548 -9.14148e-06 -1.05104e-24)
(0.00524315 -1.00661e-05 8.33589e-24)
(0.00522984 -1.09028e-05 9.90217e-26)
(0.00521569 -1.16497e-05 -1.68783e-24)
(0.00520079 -1.23053e-05 -6.6623e-24)
(0.00518525 -1.28686e-05 5.95724e-25)
(0.0051692 -1.33386e-05 4.85034e-24)
(0.00515273 -1.37151e-05 -6.33702e-25)
(0.00513596 -1.39973e-05 -8.03683e-25)
(0.005119 -1.41843e-05 5.50249e-25)
(0.00412082 -1.85954e-06 -4.38263e-25)
(0.00411634 -2.73069e-06 2.21824e-26)
(0.00411049 -3.53196e-06 3.34722e-24)
(0.00410339 -4.27148e-06 2.30118e-24)
(0.00409514 -4.95914e-06 -1.51633e-24)
(0.00408583 -5.59692e-06 -3.91722e-24)
(0.00407558 -6.18339e-06 1.63296e-24)
(0.00406445 -6.71683e-06 -6.97613e-24)
(0.00405256 -7.19571e-06 5.3941e-24)
(0.00404 -7.61853e-06 2.919e-24)
(0.00402685 -7.98429e-06 9.51668e-26)
(0.00401322 -8.29197e-06 -3.33164e-24)
(0.00399919 -8.5412e-06 6.48653e-25)
(0.00398487 -8.73097e-06 -5.40367e-25)
(0.00397035 -8.86e-06 2.83058e-25)
(0.00304728 -9.56472e-07 -8.07262e-25)
(0.00304399 -1.46568e-06 9.42288e-27)
(0.00303958 -1.91938e-06 2.68211e-24)
(0.00303415 -2.3348e-06 -1.67956e-24)
(0.00302779 -2.72223e-06 7.08432e-24)
(0.00302056 -3.08292e-06 -1.29809e-23)
(0.00301254 -3.41582e-06 1.07394e-23)
(0.0030038 -3.71971e-06 -9.11409e-24)
(0.00299441 -3.9935e-06 6.67685e-24)
(0.00298444 -4.23611e-06 -4.39337e-24)
(0.00297398 -4.4468e-06 1.52816e-24)
(0.0029631 -4.62478e-06 2.30744e-25)
(0.00295188 -4.76978e-06 4.13829e-25)
(0.00294038 -4.88093e-06 -5.22938e-25)
(0.0029287 -4.9571e-06 1.17017e-25)
(0.00207113 -4.0842e-07 1.22683e-24)
(0.00206894 -6.68982e-07 1.35311e-24)
(0.00206592 -8.88204e-07 -5.76831e-24)
(0.00206214 -1.08551e-06 4.2484e-24)
(0.00205767 -1.2684e-06 -2.95164e-26)
(0.00205256 -1.43774e-06 1.14556e-24)
(0.00204685 -1.59327e-06 -1.37001e-24)
(0.0020406 -1.7346e-06 -2.97885e-24)
(0.00203386 -1.86143e-06 2.99027e-24)
(0.00202668 -1.9734e-06 3.5164e-25)
(0.00201911 -2.07038e-06 -2.54577e-24)
(0.00201121 -2.15211e-06 9.07101e-25)
(0.00200304 -2.21866e-06 5.90607e-25)
(0.00199465 -2.26938e-06 -6.5461e-26)
(0.0019861 -2.3024e-06 -7.87414e-26)
(0.00118566 -1.08085e-07 -1.24044e-24)
(0.00118443 -1.91963e-07 3.82739e-24)
(0.00118268 -2.56501e-07 2.33473e-24)
(0.00118047 -3.14097e-07 -4.1514e-24)
(0.00117784 -3.67598e-07 -4.89027e-25)
(0.00117481 -4.17492e-07 -4.45696e-25)
(0.00117142 -4.64082e-07 1.39076e-24)
(0.00116768 -5.07658e-07 -2.37128e-24)
(0.00116363 -5.48511e-07 3.30607e-24)
(0.00115931 -5.86855e-07 -1.61457e-24)
(0.00115473 -6.22966e-07 -1.10849e-24)
(0.00114994 -6.56991e-07 6.8887e-25)
(0.00114497 -6.89231e-07 -9.0074e-25)
(0.00113986 -7.18343e-07 9.29737e-25)
(0.00113463 -7.38838e-07 -1.70788e-25)
(0.000384273 4.14919e-08 -8.92727e-27)
(0.000383828 1.19917e-07 7.50235e-25)
(0.000383208 1.7965e-07 8.73793e-25)
(0.000382439 2.19546e-07 -1.35674e-24)
(0.000381531 2.41812e-07 2.88665e-24)
(0.00038049 2.48652e-07 -3.12718e-24)
(0.000379323 2.42059e-07 2.11484e-25)
(0.00037804 2.2386e-07 1.81088e-24)
(0.000376648 1.95742e-07 -2.50769e-24)
(0.000375159 1.59274e-07 -4.88138e-25)
(0.000373581 1.15873e-07 1.84258e-24)
(0.000371926 6.68577e-08 -8.24798e-25)
(0.000370204 1.33726e-08 -3.40057e-25)
(0.000368429 -4.2529e-08 2.89565e-25)
(0.000366611 -9.61558e-08 -1.42044e-26)
(0.000917855 -0.00022236 5.97129e-26)
(0.00105585 -0.000127801 1.39445e-24)
(0.00128926 -3.3663e-05 -3.81358e-24)
(0.00152945 4.17201e-05 5.15507e-24)
(0.0017625 0.000100321 -1.9269e-24)
(0.00199291 0.000142848 -1.59306e-24)
(0.00222031 0.000171646 1.70093e-24)
(0.0024449 0.000188698 -3.11993e-24)
(0.00266702 0.000195693 2.83814e-25)
(0.00288691 0.000194134 1.84477e-24)
(0.00310485 0.000185339 -3.34492e-25)
(0.00332115 0.000170463 3.50259e-25)
(0.0035362 0.000150529 -3.8627e-26)
(0.00375042 0.000126504 1.90504e-25)
(0.00396438 9.94153e-05 -6.87e-25)
(0.00417874 7.05155e-05 3.64542e-25)
(0.00439475 4.14284e-05 -8.02016e-26)
(0.00461402 1.43985e-05 2.55644e-26)
(0.0048398 -8.11227e-06 9.45985e-26)
(0.00507622 -2.33047e-05 -4.61909e-26)
(0.0053294 -2.9814e-05 -8.02007e-29)
(0.00560438 -2.85227e-05 6.09249e-28)
(0.00588023 -2.59683e-05 -7.59833e-29)
(0.00612318 -3.06299e-05 6.89629e-27)
(0.00632151 -4.50386e-05 -9.56345e-27)
(0.00647551 -6.88318e-05 1.13887e-26)
(0.00658729 -0.00010084 3.88401e-26)
(0.00665953 -0.000140199 -1.2119e-25)
(0.00669477 -0.000186029 -6.05987e-25)
(0.00669343 -0.000236423 1.29926e-24)
(0.00665603 -0.000289771 -2.51781e-24)
(0.00658297 -0.000342586 3.44121e-24)
(0.00647411 -0.000388706 -1.4479e-24)
(0.00632926 -0.000421766 -2.95885e-24)
(0.00614922 -0.00043416 2.94653e-24)
(0.00593524 -0.00041725 1.1705e-23)
(0.00568902 -0.00036123 -4.19646e-24)
(0.0054127 -0.000254407 1.79186e-24)
(0.00510902 -8.17471e-05 5.90298e-25)
(0.00478197 0.000176729 -1.3441e-23)
(0.00443574 0.000543905 -1.55439e-25)
(0.00407559 0.00103271 5.04623e-24)
(0.00368603 0.00160383 1.35083e-24)
(0.00328746 0.00210586 -6.83797e-24)
(0.00306186 0.00212457 -3.18881e-25)
(0.00174219 -0.000305274 -1.68586e-24)
(0.00180202 -0.000248106 -2.1192e-24)
(0.00194994 -0.000157836 4.57749e-24)
(0.00213541 -7.56954e-05 1.80263e-24)
(0.00233386 -6.94807e-06 -6.252e-24)
(0.00254016 4.60942e-05 6.25589e-24)
(0.00274984 8.46972e-05 -2.18624e-24)
(0.00296074 0.000110642 1.49998e-24)
(0.00317182 0.000125639 -1.99804e-24)
(0.00338253 0.000131258 2.99721e-26)
(0.0035926 0.000128898 -9.46506e-25)
(0.00380198 0.000119784 1.86255e-24)
(0.00401075 0.000105005 -1.0033e-24)
(0.00421911 8.5593e-05 -8.20429e-25)
(0.00442739 6.26303e-05 -4.35375e-25)
(0.00463598 3.7396e-05 1.00613e-24)
(0.00484586 1.15219e-05 -4.31187e-26)
(0.00505822 -1.27876e-05 3.24245e-25)
(0.00527583 -3.31316e-05 -1.39199e-26)
(0.00550217 -4.67647e-05 -5.70124e-26)
(0.00574276 -5.22798e-05 -5.57159e-27)
(0.00600218 -5.02778e-05 1.99168e-27)
(0.00626125 -4.68182e-05 -3.51513e-27)
(0.00648931 -4.98894e-05 1.1033e-26)
(0.00667583 -6.18938e-05 -7.79268e-27)
(0.00682113 -8.25706e-05 4.63034e-26)
(0.00692706 -0.000110805 -1.73828e-25)
(0.00699585 -0.000145712 3.15268e-25)
(0.0070298 -0.000186242 -1.21532e-25)
(0.00702893 -0.000230252 4.05134e-25)
(0.00699412 -0.000276109 -4.04567e-24)
(0.00692574 -0.000320257 7.88392e-24)
(0.00682402 -0.000356428 -7.68428e-24)
(0.00668916 -0.000378337 1.71174e-23)
(0.00652266 -0.000378512 -2.32734e-23)
(0.00632666 -0.000348462 5.90474e-24)
(0.00610426 -0.000278593 1.89341e-23)
(0.00585967 -0.000157617 -5.98885e-24)
(0.00559894 2.86313e-05 -1.3648e-23)
(0.00533166 0.000298713 -7.37494e-24)
(0.00507254 0.000674297 1.6785e-23)
(0.0048463 0.00116887 -1.54457e-23)
(0.00467356 0.00174491 -2.78197e-24)
(0.00460415 0.00224033 9.19037e-24)
(0.00464616 0.00220997 2.60989e-24)
(0.00272338 -0.000315362 -1.86676e-26)
(0.00273504 -0.00030142 -2.51064e-24)
(0.00280231 -0.000244618 4.73041e-24)
(0.00292266 -0.000173505 3.42747e-24)
(0.0030717 -0.000105513 -5.78828e-24)
(0.00324011 -4.80004e-05 1.41581e-25)
(0.00342047 -2.85926e-06 4.79841e-25)
(0.00360808 3.02489e-05 4.67116e-24)
(0.00380018 5.23705e-05 -5.48412e-24)
(0.00399503 6.47796e-05 3.1724e-24)
(0.00419154 6.87488e-05 8.58686e-25)
(0.00438907 6.54581e-05 -4.98191e-24)
(0.00458725 5.59968e-05 1.78761e-24)
(0.00478591 4.14183e-05 6.6514e-25)
(0.00498506 2.28369e-05 -1.25573e-24)
(0.00518476 1.53994e-06 1.86604e-24)
(0.00538563 -2.0844e-05 -1.16609e-24)
(0.0055884 -4.2153e-05 6.32608e-26)
(0.00579527 -6.00769e-05 1.11778e-25)
(0.00600904 -7.19158e-05 5.56577e-26)
(0.00623451 -7.62289e-05 1.20121e-26)
(0.00647567 -7.33453e-05 -2.09237e-27)
(0.00671518 -6.88613e-05 4.17656e-27)
(0.00692572 -7.02686e-05 -3.84592e-27)
(0.00709809 -7.98156e-05 4.54059e-27)
(0.00723267 -9.73208e-05 -1.75293e-27)
(0.00733102 -0.000121706 3.17882e-25)
(0.00739497 -0.000152069 -4.75749e-25)
(0.00742652 -0.00018716 1.35085e-24)
(0.00742526 -0.000224618 8.90993e-25)
(0.00739268 -0.00026285 1.82943e-24)
(0.00732881 -0.000298176 -9.1228e-24)
(0.00723441 -0.000324264 3.58745e-24)
(0.00711011 -0.000334993 8.72084e-24)
(0.00695809 -0.000323146 -1.94869e-23)
(0.00678151 -0.000280602 2.78273e-23)
(0.00658483 -0.000198365 -1.77341e-23)
(0.00637434 -6.6232e-05 2.20933e-23)
(0.00615911 0.000127819 -4.10613e-23)
(0.00595329 0.000398309 1.53798e-23)
(0.00577867 0.000760296 5.02684e-24)
(0.00566943 0.00121862 7.25853e-24)
(0.00565638 0.00172965 -9.00206e-24)
(0.00577914 0.00214277 2.19092e-24)
(0.0059403 0.00210824 -1.28302e-24)
(0.00384231 -0.000301086 -6.83141e-25)
(0.00382817 -0.000313507 -9.67042e-25)
(0.00384375 -0.000288849 -3.94896e-24)
(0.00390155 -0.0002413 1.37293e-24)
(0.00399615 -0.000184679 8.84096e-25)
(0.00411761 -0.000130711 2.76027e-24)
(0.00425868 -8.44452e-05 -5.09282e-24)
(0.00441354 -4.76665e-05 2.08035e-24)
(0.00457809 -2.06267e-05 5.94407e-24)
(0.00474946 -2.79534e-06 -1.61789e-24)
(0.00492566 6.68699e-06 -1.40888e-24)
(0.00510532 8.76777e-06 -2.14409e-25)
(0.00528754 4.4163e-06 6.6524e-25)
(0.00547165 -5.36819e-06 -1.25663e-24)
(0.00565726 -1.94922e-05 3.11924e-25)
(0.00584405 -3.66951e-05 -4.50756e-26)
(0.00603219 -5.53777e-05 -3.30484e-25)
(0.00622192 -7.34451e-05 2.69613e-25)
(0.00641482 -8.86826e-05 3.92634e-25)
(0.00661291 -9.84715e-05 -8.28031e-26)
(0.0068202 -0.000101346 -2.1366e-26)
(0.00703996 -9.73829e-05 3.59572e-27)
(0.00725676 -9.17396e-05 1.19951e-26)
(0.00744685 -9.14028e-05 -9.19851e-27)
(0.00760241 -9.84414e-05 4.09707e-26)
(0.00772391 -0.00011273 -4.84286e-26)
(0.00781264 -0.000133206 3.5842e-25)
(0.00787004 -0.000158953 -9.3308e-25)
(0.00789779 -0.000188456 1.58436e-24)
(0.00789495 -0.000219304 6.26034e-27)
(0.00786413 -0.000249835 -1.67248e-24)
(0.00780439 -0.000276317 -2.76162e-25)
(0.00771729 -0.000292433 -3.03303e-25)
(0.00760388 -0.000292345 -2.16044e-24)
(0.00746705 -0.000269262 3.5781e-24)
(0.00731088 -0.000215711 -8.06306e-24)
(0.00714112 -0.000123732 3.49952e-23)
(0.00696573 1.51186e-05 -1.88479e-23)
(0.00679588 0.000209688 -1.13561e-24)
(0.00664797 0.000468859 -3.42767e-23)