/*--------------------------------*- C++ -*----------------------------------*\
| =========                 |                                                 |
| \\      /  F ield         | OpenFOAM: The Open Source CFD Toolbox           |
|  \\    /   O peration     | Version:  2312                                  |
|   \\  /    A nd           | Website:  www.openfoam.com                      |
|    \\/     M anipulation  |                                                 |
\*---------------------------------------------------------------------------*/
FoamFile
{
    version     2.0;
    format      ascii;
    arch        "LSB;label=32;scalar=64";
    class       volScalarField;
    location    "53";
    object      p;
}
// * * * * * * * * * * * * * * * * * * * * * * * * * * * * * * * * * * * * * //

dimensions      [0 2 -2 0 0 0 0];

internalField   nonuniform List<scalar> 
4800
(
-5.18277e-14
-1.8205e-06
-3.3073e-06
-4.53675e-06
-5.56404e-06
-6.43127e-06
-7.17088e-06
-7.80545e-06
-8.36202e-06
-8.8541e-06
-9.28964e-06
-9.67494e-06
-1.00071e-05
-1.05145e-05
-1.21345e-05
2.17005e-08
-1.79473e-06
-3.27903e-06
-4.50732e-06
-5.53461e-06
-6.40279e-06
-7.14529e-06
-7.78421e-06
-8.3475e-06
-8.84974e-06
-9.3041e-06
-9.73048e-06
-1.01466e-05
-1.06609e-05
-1.15211e-05
4.47583e-08
-1.76733e-06
-3.24907e-06
-4.47624e-06
-5.50365e-06
-6.37304e-06
-7.11787e-06
-7.76019e-06
-8.32734e-06
-8.83721e-06
-9.30275e-06
-9.74476e-06
-1.01755e-05
-1.06075e-05
-1.10235e-05
6.83655e-08
-1.73882e-06
-3.21755e-06
-4.44319e-06
-5.47024e-06
-6.34021e-06
-7.08629e-06
-7.73144e-06
-8.29883e-06
-8.81006e-06
-9.27448e-06
-9.70337e-06
-1.00936e-05
-1.04178e-05
-1.06115e-05
9.42904e-08
-1.70711e-06
-3.1821e-06
-4.40556e-06
-5.43154e-06
-6.30114e-06
-7.04697e-06
-7.6926e-06
-8.25748e-06
-8.76167e-06
-9.2119e-06
-9.60816e-06
-9.93624e-06
-1.01611e-05
-1.02313e-05
1.23947e-07
-1.67065e-06
-3.14106e-06
-4.36147e-06
-5.38536e-06
-6.25321e-06
-6.99669e-06
-7.63869e-06
-8.19692e-06
-8.68576e-06
-9.10932e-06
-9.46081e-06
-9.72312e-06
-9.86961e-06
-9.87426e-06
1.59261e-07
-1.6275e-06
-3.09228e-06
-4.30847e-06
-5.32881e-06
-6.19288e-06
-6.93105e-06
-7.56484e-06
-8.10974e-06
-8.57568e-06
-8.96352e-06
-9.26543e-06
-9.46838e-06
-9.55949e-06
-9.53323e-06
2.03595e-07
-1.57426e-06
-3.03217e-06
-4.2426e-06
-5.25737e-06
-6.11488e-06
-6.84393e-06
-7.4644e-06
-7.98937e-06
-8.4259e-06
-8.77391e-06
-9.02845e-06
-9.18391e-06
-9.23958e-06
-9.20158e-06
2.6217e-07
-1.50563e-06
-2.95512e-06
-4.15779e-06
-5.1644e-06
-6.01194e-06
-6.72753e-06
-7.32947e-06
-7.82917e-06
-8.23281e-06
-8.54176e-06
-8.75607e-06
-8.8775e-06
-8.91335e-06
-8.87479e-06
3.41967e-07
-1.41419e-06
-2.8532e-06
-4.04557e-06
-5.04084e-06
-5.8746e-06
-6.5724e-06
-7.15153e-06
-7.62296e-06
-7.99368e-06
-8.26846e-06
-8.45226e-06
-8.55237e-06
-8.58027e-06
-8.54837e-06
4.50949e-07
-1.29085e-06
-2.71637e-06
-3.89515e-06
-4.87542e-06
-5.69152e-06
-6.36792e-06
-6.92169e-06
-7.36468e-06
-7.70604e-06
-7.95398e-06
-8.11761e-06
-8.20742e-06
-8.23638e-06
-8.21631e-06
5.97092e-07
-1.12565e-06
-2.53321e-06
-3.69412e-06
-4.65534e-06
-5.45023e-06
-6.10287e-06
-6.631e-06
-7.04819e-06
-7.36611e-06
-7.59586e-06
-7.74907e-06
-7.83764e-06
-7.87447e-06
-7.87017e-06
7.87918e-07
-9.083e-07
-2.29148e-06
-3.42914e-06
-4.36702e-06
-5.13787e-06
-5.76605e-06
-6.27047e-06
-6.66662e-06
-6.96831e-06
-7.18848e-06
-7.33992e-06
-7.43459e-06
-7.48436e-06
-7.49874e-06
1.03011e-06
-6.28235e-07
-1.97827e-06
-3.08604e-06
-3.99613e-06
-4.74102e-06
-5.34559e-06
-5.82993e-06
-6.21099e-06
-6.50388e-06
-6.72229e-06
-6.87905e-06
-6.98559e-06
-7.05264e-06
-7.08822e-06
1.3284e-06
-2.75614e-07
-1.58061e-06
-2.65026e-06
-3.52773e-06
-4.24515e-06
-4.82776e-06
-5.29631e-06
-5.66832e-06
-5.95919e-06
-6.18244e-06
-6.35026e-06
-6.47314e-06
-6.56052e-06
-6.61952e-06
1.68461e-06
1.56631e-07
-1.08752e-06
-2.10853e-06
-2.94742e-06
-3.63538e-06
-4.19732e-06
-4.65367e-06
-5.02155e-06
-5.3157e-06
-5.54882e-06
-5.73202e-06
-5.87468e-06
-5.98504e-06
-6.06934e-06
2.09944e-06
6.72401e-07
-4.92189e-07
-1.45131e-06
-2.24362e-06
-2.89855e-06
-3.43947e-06
-3.8854e-06
-4.25205e-06
-4.55277e-06
-4.79889e-06
-5.00025e-06
-5.16511e-06
-5.30057e-06
-5.41209e-06
2.57082e-06
1.27239e-06
2.06768e-07
-6.75348e-07
-1.41073e-06
-2.02658e-06
-2.54356e-06
-2.97812e-06
-3.34375e-06
-3.65179e-06
-3.91185e-06
-4.13229e-06
-4.32018e-06
-4.48167e-06
-4.6216e-06
3.08503e-06
1.9434e-06
9.97634e-07
2.08972e-07
-4.57027e-07
-1.02491e-06
-1.51176e-06
-1.93059e-06
-2.29203e-06
-2.60503e-06
-2.87722e-06
-3.11531e-06
-3.32505e-06
-3.51149e-06
-3.67889e-06
3.61055e-06
2.65855e-06
1.85651e-06
1.17668e-06
5.91455e-07
8.0852e-08
-3.68283e-07
-7.65348e-07
-1.1178e-06
-1.43193e-06
-1.71332e-06
-1.96697e-06
-2.19735e-06
-2.40841e-06
-2.60356e-06
4.1114e-06
3.3544e-06
2.70265e-06
2.13582e-06
1.63524e-06
1.18685e-06
7.81313e-07
4.12377e-07
7.53049e-08
-2.33963e-07
-5.19159e-07
-7.83728e-07
-1.03087e-06
-1.26347e-06
-1.48434e-06
4.52853e-06
3.93386e-06
3.4085e-06
2.93872e-06
2.51255e-06
2.12083e-06
1.75748e-06
1.41857e-06
1.10118e-06
8.02703e-07
5.20612e-07
2.52499e-07
-3.88907e-09
-2.50507e-07
-4.89112e-07
4.8615e-06
4.3838e-06
3.95028e-06
3.5516e-06
3.1801e-06
2.8302e-06
2.49823e-06
2.18178e-06
1.87898e-06
1.58809e-06
1.30739e-06
1.03527e-06
7.70228e-07
5.10866e-07
2.55778e-07
5.11346e-06
4.71829e-06
4.34962e-06
4.00164e-06
3.66972e-06
3.35065e-06
3.04228e-06
2.74305e-06
2.45163e-06
2.16679e-06
1.88731e-06
1.61205e-06
1.33992e-06
1.06999e-06
8.01205e-07
5.30099e-06
4.96277e-06
4.63942e-06
4.32756e-06
4.02437e-06
3.72801e-06
3.4371e-06
3.15048e-06
2.86715e-06
2.58618e-06
2.30671e-06
2.02799e-06
1.74931e-06
1.47011e-06
1.18981e-06
5.43794e-06
5.13845e-06
4.84648e-06
4.55997e-06
4.27706e-06
3.99661e-06
3.71762e-06
3.43921e-06
3.1606e-06
2.88114e-06
2.60023e-06
2.31742e-06
2.03224e-06
1.74425e-06
1.45299e-06
5.53537e-06
5.26204e-06
4.99151e-06
4.72235e-06
4.45322e-06
4.18334e-06
3.91196e-06
3.63837e-06
3.36197e-06
3.08232e-06
2.79899e-06
2.51166e-06
2.22002e-06
1.92374e-06
1.62244e-06
5.60293e-06
5.34727e-06
5.09127e-06
4.83376e-06
4.57375e-06
4.31069e-06
4.04393e-06
3.77289e-06
3.49709e-06
3.21619e-06
2.92989e-06
2.63796e-06
2.34019e-06
2.03641e-06
1.72631e-06
5.64883e-06
5.40527e-06
5.15911e-06
4.9094e-06
4.65543e-06
4.39671e-06
4.13263e-06
3.86269e-06
3.58651e-06
3.3038e-06
3.01433e-06
2.71795e-06
2.41451e-06
2.10398e-06
1.78625e-06
5.67978e-06
5.4447e-06
5.20533e-06
4.96096e-06
4.71104e-06
4.45507e-06
4.19244e-06
3.92273e-06
3.6456e-06
3.36083e-06
3.06821e-06
2.76763e-06
2.45902e-06
2.14243e-06
1.81815e-06
5.70095e-06
5.47204e-06
5.23752e-06
4.99694e-06
4.74982e-06
4.49559e-06
4.23368e-06
3.96371e-06
3.68538e-06
3.39849e-06
3.10287e-06
2.79844e-06
2.48515e-06
2.16299e-06
1.83164e-06
5.71605e-06
5.49186e-06
5.26098e-06
5.02325e-06
4.77814e-06
4.52504e-06
4.26343e-06
3.99296e-06
3.71335e-06
3.42441e-06
3.12602e-06
2.81812e-06
2.50067e-06
2.17372e-06
1.83716e-06
5.72762e-06
5.50722e-06
5.27922e-06
5.04374e-06
4.80015e-06
4.54783e-06
4.2863e-06
4.01523e-06
3.73437e-06
3.44354e-06
3.14263e-06
2.8316e-06
2.51047e-06
2.17932e-06
1.83812e-06
5.73723e-06
5.52e-06
5.29443e-06
5.06081e-06
4.81843e-06
4.56669e-06
4.30514e-06
4.03347e-06
3.75144e-06
3.45887e-06
3.15569e-06
2.84188e-06
2.51746e-06
2.18257e-06
1.83715e-06
5.74578e-06
5.5313e-06
5.30785e-06
5.07584e-06
4.83448e-06
4.5832e-06
4.3216e-06
4.04936e-06
3.76625e-06
3.47213e-06
3.16691e-06
2.8506e-06
2.52325e-06
2.18505e-06
1.83584e-06
5.75371e-06
5.54169e-06
5.32013e-06
5.08954e-06
4.84906e-06
4.59819e-06
4.33653e-06
4.06378e-06
3.7797e-06
3.48418e-06
3.17714e-06
2.85861e-06
2.52865e-06
2.18747e-06
1.83478e-06
5.76121e-06
5.5514e-06
5.33154e-06
5.1022e-06
4.86251e-06
4.61201e-06
4.3503e-06
4.07709e-06
3.79216e-06
3.4954e-06
3.18675e-06
2.86624e-06
2.53395e-06
2.19011e-06
1.83436e-06
5.76843e-06
5.56064e-06
5.34233e-06
5.11411e-06
4.87514e-06
4.62497e-06
4.36322e-06
4.0896e-06
3.80391e-06
3.50604e-06
3.19595e-06
2.87368e-06
2.53931e-06
2.19309e-06
1.83468e-06
5.77578e-06
5.56995e-06
5.35313e-06
5.12599e-06
4.88772e-06
4.63788e-06
4.3761e-06
4.1021e-06
3.81569e-06
3.51678e-06
3.20533e-06
2.88139e-06
2.54506e-06
2.1966e-06
1.8357e-06
5.78289e-06
5.57897e-06
5.36362e-06
5.13756e-06
4.90001e-06
4.65055e-06
4.3888e-06
4.1145e-06
3.82745e-06
3.52757e-06
3.21484e-06
2.88931e-06
2.55111e-06
2.20048e-06
1.83716e-06
-1.35398e-05
-1.13634e-05
-1.0014e-05
-9.10086e-06
-8.36112e-06
-7.78519e-06
-7.33249e-06
-6.97802e-06
-6.70746e-06
-6.5112e-06
-6.38305e-06
-6.31928e-06
-6.31867e-06
-6.3818e-06
-6.51206e-06
-6.71773e-06
-7.01133e-06
-7.41059e-06
-7.93819e-06
-8.62264e-06
-9.4839e-06
-1.05141e-05
-1.15406e-05
-1.22718e-05
-1.25761e-05
-1.24288e-05
-1.18304e-05
-1.07999e-05
-9.37313e-06
-7.59131e-06
-5.49634e-06
-3.13162e-06
-5.4361e-07
2.21718e-06
5.09611e-06
8.03501e-06
1.09725e-05
1.38434e-05
1.6575e-05
1.90802e-05
2.12365e-05
2.28764e-05
2.36188e-05
2.31028e-05
2.00809e-05
-1.19291e-05
-1.08128e-05
-9.7937e-06
-8.98074e-06
-8.2867e-06
-7.72718e-06
-7.28099e-06
-6.9299e-06
-6.66201e-06
-6.46866e-06
-6.34399e-06
-6.2844e-06
-6.28878e-06
-6.35763e-06
-6.49429e-06
-6.70706e-06
-7.0083e-06
-7.41534e-06
-7.95011e-06
-8.63997e-06
-9.50304e-06
-1.05295e-05
-1.1547e-05
-1.22666e-05
-1.25596e-05
-1.24032e-05
-1.17979e-05
-1.07621e-05
-9.33155e-06
-7.54831e-06
-5.45548e-06
-3.09807e-06
-5.24582e-07
2.21189e-06
5.05335e-06
7.93695e-06
1.07946e-05
1.35508e-05
1.61164e-05
1.83759e-05
2.01543e-05
2.11723e-05
2.08784e-05
1.84515e-05
1.28674e-05
-1.10773e-05
-1.03771e-05
-9.56663e-06
-8.84201e-06
-8.19854e-06
-7.66181e-06
-7.22559e-06
-6.87977e-06
-6.61555e-06
-6.42568e-06
-6.30489e-06
-6.24988e-06
-6.25968e-06
-6.33474e-06
-6.47832e-06
-6.69878e-06
-7.00829e-06
-7.42366e-06
-7.96597e-06
-8.66119e-06
-9.52533e-06
-1.05464e-05
-1.15522e-05
-1.22576e-05
-1.2537e-05
-1.23699e-05
-1.17571e-05
-1.07163e-05
-9.28348e-06
-7.50158e-06
-5.4153e-06
-3.07176e-06
-5.22134e-07
2.17716e-06
4.96376e-06
7.76893e-06
1.05163e-05
1.31184e-05
1.54685e-05
1.74256e-05
1.87809e-05
1.92186e-05
1.82366e-05
1.5258e-05
1.01776e-05
-1.05239e-05
-1.00163e-05
-9.36424e-06
-8.70995e-06
-8.1145e-06
-7.60228e-06
-7.1766e-06
-6.83585e-06
-6.57467e-06
-6.38751e-06
-6.26984e-06
-6.21878e-06
-6.23359e-06
-6.31463e-06
-6.46508e-06
-6.69334e-06
-7.01136e-06
-7.4353e-06
-7.98528e-06
-8.68571e-06
-9.55022e-06
-1.05642e-05
-1.15558e-05
-1.22438e-05
-1.25064e-05
-1.23256e-05
-1.1703e-05
-1.06556e-05
-9.21971e-06
-7.43992e-06
-5.36295e-06
-3.03868e-06
-5.21664e-07
2.12748e-06
4.8411e-06
7.54367e-06
1.01498e-05
1.25605e-05
1.46549e-05
1.62776e-05
1.72174e-05
1.71955e-05
1.58676e-05
1.29609e-05
8.73261e-06
-1.00911e-05
-9.6962e-06
-9.16413e-06
-8.59344e-06
-8.04354e-06
-7.55562e-06
-7.14034e-06
-6.80418e-06
-6.54505e-06
-6.35933e-06
-6.24355e-06
-6.19536e-06
-6.21438e-06
-6.30081e-06
-6.45772e-06
-6.69361e-06
-7.02009e-06
-7.45249e-06
-8.00985e-06
-8.71477e-06
-9.57822e-06
-1.05827e-05
-1.15568e-05
-1.22239e-05
-1.24667e-05
-1.22701e-05
-1.16364e-05
-1.05824e-05
-9.14506e-06
-7.37075e-06
-5.30879e-06
-3.01233e-06
-5.39902e-07
2.04317e-06
4.66354e-06
7.23885e-06
9.67573e-06
1.18665e-05
1.36836e-05
1.49736e-05
1.5551e-05
1.52127e-05
1.37761e-05
1.1187e-05
7.72645e-06
-9.72658e-06
-9.41053e-06
-8.96932e-06
-8.48038e-06
-7.98394e-06
-7.52145e-06
-7.11987e-06
-6.78945e-06
-6.53197e-06
-6.34656e-06
-6.23126e-06
-6.18456e-06
-6.20659e-06
-6.29739e-06
-6.45993e-06
-6.70287e-06
-7.03731e-06
-7.47758e-06
-8.04145e-06
-8.74949e-06
-9.60966e-06
-1.06012e-05
-1.15535e-05
-1.2196e-05
-1.24157e-05
-1.22011e-05
-1.15558e-05
-1.04963e-05
-9.06046e-06
-7.29698e-06
-5.25813e-06
-3.0008e-06
-5.87825e-07
1.91056e-06
4.41556e-06
6.83898e-06
9.08198e-06
1.10336e-05
1.25691e-05
1.35517e-05
1.3841e-05
1.33136e-05
1.19086e-05
9.69108e-06
6.92363e-06
-9.3964e-06
-9.14144e-06
-8.78265e-06
-8.36339e-06
-7.922e-06
-7.49608e-06
-7.11485e-06
-6.79364e-06
-6.53912e-06
-6.3539e-06
-6.2381e-06
-6.19153e-06
-6.21519e-06
-6.30895e-06
-6.47582e-06
-6.72473e-06
-7.06608e-06
-7.51302e-06
-8.08182e-06
-8.79076e-06
-9.64451e-06
-1.06186e-05
-1.1544e-05
-1.2157e-05
-1.235e-05
-1.21152e-05
-1.14581e-05
-1.03949e-05
-8.96501e-06
-7.21954e-06
-5.21418e-06
-3.00982e-06
-6.73712e-07
1.71937e-06
4.08617e-06
6.3348e-06
8.36496e-06
1.00689e-05
1.13345e-05
1.20522e-05
1.21292e-05
1.15111e-05
1.02117e-05
8.34084e-06
6.1162e-06
-9.08176e-06
-8.87585e-06
-8.58669e-06
-8.23615e-06
-7.85423e-06
-7.47296e-06
-7.11999e-06
-6.81413e-06
-6.56651e-06
-6.38344e-06
-6.26756e-06
-6.22053e-06
-6.24476e-06
-6.33997e-06
-6.50956e-06
-6.76298e-06
-7.10963e-06
-7.56126e-06
-8.13257e-06
-8.83922e-06
-9.68229e-06
-1.06333e-05
-1.15254e-05
-1.21034e-05
-1.22657e-05
-1.20088e-05
-1.13402e-05
-1.02765e-05
-8.85856e-06
-7.14062e-06
-5.18176e-06
-3.04692e-06
-8.07368e-07
1.45855e-06
3.66504e-06
5.71973e-06
7.52569e-06
8.985e-06
1.00048e-05
1.05068e-05
1.04409e-05
9.80092e-06
8.63826e-06
7.06747e-06
5.25739e-06
-8.77407e-06
-8.60906e-06
-8.37869e-06
-8.09328e-06
-7.77279e-06
-7.44219e-06
-7.1259e-06
-6.84368e-06
-6.60959e-06
-6.43318e-06
-6.31973e-06
-6.27328e-06
-6.29804e-06
-6.39352e-06
-6.56431e-06
-6.82077e-06
-7.17064e-06
-7.62425e-06
-8.1947e-06
-8.89478e-06
-9.72168e-06
-1.06426e-05
-1.14938e-05
-1.20309e-05
-1.21585e-05
-1.1878e-05
-1.11994e-05
-1.01399e-05
-8.74251e-06
-7.06443e-06
-5.16801e-06
-3.12185e-06
-1.00033e-06
1.11646e-06
3.14291e-06
4.98996e-06
6.56892e-06
7.79664e-06
8.6027e-06
8.93834e-06
8.78625e-06
8.16822e-06
7.14882e-06
5.83042e-06
4.34043e-06
-8.46788e-06
-8.33852e-06
-8.15852e-06
-7.93219e-06
-7.67165e-06
-7.39501e-06
-7.12239e-06
-6.87229e-06
-6.6598e-06
-6.49663e-06
-6.3903e-06
-6.34745e-06
-6.37441e-06
-6.4696e-06
-6.64072e-06
-6.89914e-06
-7.24995e-06
-7.70232e-06
-8.26781e-06
-8.95598e-06
-9.75998e-06
-1.06426e-05
-1.14445e-05
-1.19344e-05
-1.20239e-05
-1.17194e-05
-1.10341e-05
-9.98586e-06
-8.62039e-06
-6.99767e-06
-5.18253e-06
-3.24641e-06
-1.26518e-06
6.81847e-07
2.5125e-06
4.14487e-06
5.50227e-06
6.51891e-06
7.14634e-06
7.35977e-06
7.16352e-06
6.59231e-06
5.71005e-06
4.6018e-06
3.36276e-06
-8.15714e-06
-8.06023e-06
-7.92433e-06
-7.75093e-06
-7.54696e-06
-7.32488e-06
-7.10032e-06
-6.88922e-06
-6.70617e-06
-6.56372e-06
-6.47069e-06
-6.43608e-06
-6.46839e-06
-6.56334e-06
-6.73562e-06
-6.99618e-06
-7.34541e-06
-7.79282e-06
-8.34858e-06
-9.01882e-06
-9.79244e-06
-1.06279e-05
-1.13718e-05
-1.18086e-05
-1.18577e-05
-1.15312e-05
-1.08448e-05
-9.8176e-06
-8.49882e-06
-6.95022e-06
-5.2376e-06
-3.43403e-06
-1.61482e-06
1.44705e-07
1.76914e-06
3.18671e-06
4.33481e-06
5.16496e-06
5.64745e-06
5.77468e-06
5.56325e-06
5.05052e-06
4.29346e-06
3.36003e-06
2.32135e-06
-7.83358e-06
-7.76741e-06
-7.67132e-06
-7.54568e-06
-7.39433e-06
-7.22558e-06
-7.05102e-06
-6.88361e-06
-6.73654e-06
-6.62179e-06
-6.54905e-06
-6.52935e-06
-6.56834e-06
-6.66462e-06
-6.84208e-06
-7.10584e-06
-7.45096e-06
-7.88948e-06
-8.43064e-06
-9.07658e-06
-9.81203e-06
-1.05916e-05
-1.12696e-05
-1.16485e-05
-1.16576e-05
-1.13141e-05
-1.06353e-05
-9.6423e-06
-8.38864e-06
-6.93567e-06
-5.34804e-06
-3.69924e-06
-2.06147e-06
-5.02804e-07
9.10983e-07
2.11999e-06
3.07575e-06
3.74501e-06
4.11214e-06
4.17977e-06
3.97174e-06
3.5206e-06
2.87459e-06
2.08699e-06
1.21104e-06
-7.48601e-06
-7.44993e-06
-7.3909e-06
-7.30906e-06
-7.20661e-06
-7.089e-06
-6.96464e-06
-6.84359e-06
-6.73716e-06
-6.65609e-06
-6.60997e-06
-6.61394e-06
-6.66301e-06
-6.7641e-06
-6.94912e-06
-7.21431e-06
-7.55484e-06
-7.98158e-06
-8.50373e-06
-9.11949e-06
-9.80955e-06
-1.0526e-05
-1.11321e-05
-1.1451e-05
-1.14244e-05
-1.10731e-05
-1.04142e-05
-9.47215e-06
-8.30552e-06
-6.97115e-06
-5.53047e-06
-4.0565e-06
-2.61549e-06
-1.26542e-06
-6.07181e-08
9.50867e-07
1.73362e-06
2.26644e-06
2.54349e-06
2.5736e-06
2.37513e-06
1.98245e-06
1.43284e-06
7.66987e-07
2.49023e-08
-7.10023e-06
-7.09379e-06
-7.07025e-06
-7.02948e-06
-6.97276e-06
-6.9038e-06
-6.82868e-06
-6.75514e-06
-6.69223e-06
-6.64929e-06
-6.63525e-06
-6.66069e-06
-6.72955e-06
-6.84953e-06
-7.04067e-06
-7.30486e-06
-7.6394e-06
-8.05424e-06
-8.55412e-06
-9.13507e-06
-9.77429e-06
-1.04234e-05
-1.09556e-05
-1.12163e-05
-1.1163e-05
-1.08182e-05
-1.01946e-05
-9.32477e-06
-8.2711e-06
-7.07545e-06
-5.8011e-06
-4.51883e-06
-3.28422e-06
-2.14407e-06
-1.14162e-06
-3.13336e-07
3.15542e-07
7.3241e-07
9.36833e-07
9.38631e-07
7.56665e-07
4.17422e-07
-4.94937e-08
-6.13495e-07
-1.24456e-06
-6.65794e-06
-6.6816e-06
-6.69224e-06
-6.69032e-06
-6.67679e-06
-6.65416e-06
-6.62681e-06
-6.60064e-06
-6.58271e-06
-6.58068e-06
-6.6024e-06
-6.65682e-06
-6.75124e-06
-6.89236e-06
-7.09176e-06
-7.35659e-06
-7.68762e-06
-8.08993e-06
-8.56528e-06
-9.10883e-06
-9.69481e-06
-1.02771e-05
-1.07395e-05
-1.09492e-05
-1.0884e-05
-1.0563e-05
-9.9925e-06
-9.22959e-06
-8.30769e-06
-7.26348e-06
-6.17401e-06
-5.09655e-06
-4.07147e-06
-3.13623e-06
-2.32499e-06
-1.66457e-06
-1.17193e-06
-8.54114e-07
-7.09178e-07
-7.27676e-07
-8.93762e-07
-1.18697e-06
-1.58491e-06
-2.06461e-06
-2.60357e-06
-6.13543e-06
-6.18967e-06
-6.23426e-06
-6.26989e-06
-6.29755e-06
-6.3192e-06
-6.33806e-06
-6.35856e-06
-6.38616e-06
-6.42712e-06
-6.48817e-06
-6.57674e-06
-6.69981e-06
-6.8634e-06
-7.07694e-06
-7.34701e-06
-7.6761e-06
-8.06671e-06
-8.51801e-06
-9.02505e-06
-9.56005e-06
-1.00815e-05
-1.04856e-05
-1.06616e-05
-1.06053e-05
-1.03194e-05
-9.84498e-06
-9.2127e-06
-8.42153e-06
-7.55179e-06
-6.66476e-06
-5.79659e-06
-4.97696e-06
-4.23688e-06
-3.60317e-06
-3.09498e-06
-2.72333e-06
-2.492e-06
-2.39815e-06
-2.43398e-06
-2.58745e-06
-2.84332e-06
-3.18475e-06
-3.59495e-06
-4.05744e-06
-5.50742e-06
-5.5932e-06
-5.67175e-06
-5.74407e-06
-5.81136e-06
-5.87548e-06
-5.93895e-06
-6.00522e-06
-6.07835e-06
-6.16329e-06
-6.26556e-06
-6.39106e-06
-6.54596e-06
-6.73602e-06
-6.96835e-06
-7.24841e-06
-7.57874e-06
-7.96141e-06
-8.39293e-06
-8.86861e-06
-9.36192e-06
-9.83448e-06
-1.01985e-05
-1.03695e-05
-1.03419e-05
-1.01308e-05
-9.77975e-06
-9.26061e-06
-8.63189e-06
-7.96299e-06
-7.28491e-06
-6.62134e-06
-5.99756e-06
-5.43998e-06
-4.96889e-06
-4.59747e-06
-4.33311e-06
-4.17842e-06
-4.13143e-06
-4.18598e-06
-4.33267e-06
-4.56027e-06
-4.85714e-06
-5.21135e-06
-5.61099e-06
-4.74766e-06
-4.86634e-06
-4.97991e-06
-5.08936e-06
-5.19574e-06
-5.30095e-06
-5.4075e-06
-5.51878e-06
-5.63728e-06
-5.76647e-06
-5.91092e-06
-6.07556e-06
-6.26552e-06
-6.48565e-06
-6.74124e-06
-7.03643e-06
-7.37396e-06
-7.75475e-06
-8.17542e-06
-8.62958e-06
-9.0962e-06
-9.54285e-06
-9.89278e-06
-1.0086e-05
-1.01191e-05
-1.0024e-05
-9.7777e-06
-9.4095e-06
-8.974e-06
-8.50914e-06
-8.03279e-06
-7.56418e-06
-7.12623e-06
-6.7391e-06
-6.41696e-06
-6.16891e-06
-6.00036e-06
-5.91381e-06
-5.90864e-06
-5.98161e-06
-6.12737e-06
-6.33746e-06
-6.60175e-06
-6.91186e-06
-7.26027e-06
-3.83489e-06
-3.98575e-06
-4.13366e-06
-4.27984e-06
-4.42534e-06
-4.57211e-06
-4.72191e-06
-4.87793e-06
-5.04186e-06
-5.21617e-06
-5.40454e-06
-5.61091e-06
-5.83937e-06
-6.09362e-06
-6.37793e-06
-6.69522e-06
-7.04806e-06
-7.43696e-06
-7.85826e-06
-8.30742e-06
-8.76729e-06
-9.21333e-06
-9.59078e-06
-9.83551e-06
-9.95697e-06
-9.97319e-06
-9.8676e-06
-9.67726e-06
-9.43913e-06
-9.17196e-06
-8.8901e-06
-8.61038e-06
-8.34987e-06
-8.12252e-06
-7.93867e-06
-7.80546e-06
-7.7273e-06
-7.70639e-06
-7.74243e-06
-7.8342e-06
-7.98039e-06
-8.17676e-06
-8.41488e-06
-8.68921e-06
-8.99504e-06
-2.78961e-06
-2.97179e-06
-3.15136e-06
-3.32964e-06
-3.50939e-06
-3.69318e-06
-3.88388e-06
-4.08112e-06
-4.28669e-06
-4.5039e-06
-4.73577e-06
-4.98493e-06
-5.25436e-06
-5.54712e-06
-5.86637e-06
-6.21459e-06
-6.59354e-06
-7.00389e-06
-7.44324e-06
-7.90785e-06
-8.38794e-06
-8.86576e-06
-9.29578e-06
-9.63499e-06
-9.86949e-06
-9.99975e-06
-1.00538e-05
-1.0053e-05
-1.00074e-05
-9.9297e-06
-9.83395e-06
-9.73302e-06
-9.63803e-06
-9.55871e-06
-9.50316e-06
-9.47764e-06
-9.48644e-06
-9.53171e-06
-9.61469e-06
-9.73434e-06
-9.88597e-06
-1.00674e-05
-1.0281e-05
-1.0525e-05
-1.07945e-05
-1.69952e-06
-1.91394e-06
-2.1292e-06
-2.3445e-06
-2.56031e-06
-2.77873e-06
-3.00733e-06
-3.24572e-06
-3.49413e-06
-3.75479e-06
-4.03025e-06
-4.32275e-06
-4.63459e-06
-4.96823e-06
-5.32615e-06
-5.71045e-06
-6.12267e-06
-6.56377e-06
-7.03275e-06
-7.52793e-06
-8.04386e-06
-8.57113e-06
-9.07095e-06
-9.49648e-06
-9.83805e-06
-1.01092e-05
-1.03231e-05
-1.04847e-05
-1.0601e-05
-1.06836e-05
-1.07439e-05
-1.07908e-05
-1.08322e-05
-1.08756e-05
-1.09273e-05
-1.09919e-05
-1.10731e-05
-1.11727e-05
-1.12922e-05
-1.14338e-05
-1.15982e-05
-1.17845e-05
-1.19899e-05
-1.22136e-05
-1.24545e-05
-7.24707e-07
-9.61486e-07
-1.2005e-06
-1.44508e-06
-1.69851e-06
-1.96219e-06
-2.2303e-06
-2.50602e-06
-2.79333e-06
-3.09396e-06
-3.40935e-06
-3.74146e-06
-4.09243e-06
-4.46437e-06
-4.85931e-06
-5.27922e-06
-5.72565e-06
-6.19979e-06
-6.70195e-06
-7.23142e-06
-7.78606e-06
-8.36077e-06
-8.91905e-06
-9.42087e-06
-9.86014e-06
-1.02414e-05
-1.05685e-05
-1.08464e-05
-1.10823e-05
-1.12846e-05
-1.14612e-05
-1.1619e-05
-1.17641e-05
-1.19018e-05
-1.20369e-05
-1.21731e-05
-1.23138e-05
-1.24621e-05
-1.26199e-05
-1.27885e-05
-1.29693e-05
-1.31618e-05
-1.33662e-05
-1.35812e-05
-1.38054e-05
5.4259e-10
-2.59204e-07
-5.24441e-07
-7.95957e-07
-1.07461e-06
-1.36133e-06
-1.65628e-06
-1.96168e-06
-2.27969e-06
-2.61149e-06
-2.95842e-06
-3.3222e-06
-3.70465e-06
-4.10754e-06
-4.53265e-06
-4.98173e-06
-5.45633e-06
-5.95776e-06
-6.48687e-06
-7.04379e-06
-7.62775e-06
-8.23611e-06
-8.83749e-06
-9.39415e-06
-9.89694e-06
-1.03473e-05
-1.07487e-05
-1.11061e-05
-1.14248e-05
-1.17106e-05
-1.19692e-05
-1.22059e-05
-1.24252e-05
-1.26311e-05
-1.28273e-05
-1.30172e-05
-1.32038e-05
-1.33896e-05
-1.35763e-05
-1.37646e-05
-1.39561e-05
-1.41523e-05
-1.43534e-05
-1.45587e-05
-1.47678e-05
5.30227e-07
2.53578e-07
-3.02858e-08
-3.2076e-07
-6.20209e-07
-9.28691e-07
-1.24779e-06
-1.57881e-06
-1.92277e-06
-2.28075e-06
-2.65402e-06
-3.04401e-06
-3.45218e-06
-3.88003e-06
-4.32908e-06
-4.80086e-06
-5.29682e-06
-5.81823e-06
-6.36612e-06
-6.94101e-06
-7.54288e-06
-8.17085e-06
-8.79649e-06
-9.38336e-06
-9.92234e-06
-1.04152e-05
-1.08646e-05
-1.12744e-05
-1.16485e-05
-1.1991e-05
-1.23061e-05
-1.25976e-05
-1.2869e-05
-1.31233e-05
-1.33637e-05
-1.35928e-05
-1.38129e-05
-1.40259e-05
-1.42335e-05
-1.44374e-05
-1.46391e-05
-1.48397e-05
-1.50395e-05
-1.52389e-05
-1.54381e-05
9.05601e-07
6.14248e-07
3.14724e-07
5.30411e-09
-3.13152e-07
-6.41888e-07
-9.82043e-07
-1.3344e-06
-1.69977e-06
-2.07915e-06
-2.4736e-06
-2.88424e-06
-3.31226e-06
-3.7589e-06
-4.22545e-06
-4.71315e-06
-5.22328e-06
-5.75695e-06
-6.31516e-06
-6.89856e-06
-7.5075e-06
-8.14161e-06
-8.77509e-06
-9.37453e-06
-9.93184e-06
-1.04485e-05
-1.09268e-05
-1.13691e-05
-1.17786e-05
-1.21583e-05
-1.25111e-05
-1.28398e-05
-1.31472e-05
-1.34356e-05
-1.37073e-05
-1.39645e-05
-1.42092e-05
-1.44429e-05
-1.46672e-05
-1.48838e-05
-1.50944e-05
-1.52997e-05
-1.55002e-05
-1.56967e-05
-1.58898e-05
1.15609e-06
8.50858e-07
5.36382e-07
2.12034e-07
-1.22675e-07
-4.68389e-07
-8.2574e-07
-1.19536e-06
-1.57797e-06
-1.97431e-06
-2.38522e-06
-2.81156e-06
-3.25429e-06
-3.71435e-06
-4.19278e-06
-4.69057e-06
-5.20874e-06
-5.7482e-06
-6.30982e-06
-6.89418e-06
-7.50168e-06
-8.13207e-06
-8.76242e-06
-9.36293e-06
-9.92639e-06
-1.0454e-05
-1.09474e-05
-1.14084e-05
-1.18393e-05
-1.22423e-05
-1.26194e-05
-1.29729e-05
-1.33046e-05
-1.36165e-05
-1.39103e-05
-1.41879e-05
-1.44508e-05
-1.47005e-05
-1.4938e-05
-1.51648e-05
-1.53829e-05
-1.55927e-05
-1.57948e-05
-1.59902e-05
-1.61797e-05
1.31438e-06
9.97151e-07
6.70159e-07
3.3264e-07
-1.5807e-08
-3.75528e-07
-7.46964e-07
-1.1306e-06
-1.52695e-06
-1.93657e-06
-2.36007e-06
-2.7981e-06
-3.25134e-06
-3.72053e-06
-4.20642e-06
-4.70976e-06
-5.23131e-06
-5.77176e-06
-6.33179e-06
-6.91184e-06
-7.51221e-06
-8.1327e-06
-8.75314e-06
-9.34742e-06
-9.90911e-06
-1.04391e-05
-1.09386e-05
-1.1409e-05
-1.18518e-05
-1.22685e-05
-1.26609e-05
-1.30303e-05
-1.33783e-05
-1.37063e-05
-1.40158e-05
-1.43081e-05
-1.45844e-05
-1.48459e-05
-1.50942e-05
-1.53295e-05
-1.55539e-05
-1.57677e-05
-1.59721e-05
-1.61679e-05
-1.6356e-05
1.40834e-06
1.08086e-06
7.42897e-07
3.94035e-07
3.4065e-08
-3.37256e-07
-7.20219e-07
-1.11514e-06
-1.52236e-06
-1.94225e-06
-2.37524e-06
-2.82177e-06
-3.28231e-06
-3.75736e-06
-4.24744e-06
-4.75307e-06
-5.27478e-06
-5.81302e-06
-6.36828e-06
-6.9408e-06
-7.53082e-06
-8.13803e-06
-8.74486e-06
-9.32878e-06
-9.88409e-06
-1.04113e-05
-1.09113e-05
-1.1385e-05
-1.18335e-05
-1.22579e-05
-1.26594e-05
-1.30389e-05
-1.33977e-05
-1.37368e-05
-1.40572e-05
-1.436e-05
-1.46462e-05
-1.49166e-05
-1.51725e-05
-1.54155e-05
-1.56454e-05
-1.58633e-05
-1.60706e-05
-1.62679e-05
-1.64562e-05
1.45951e-06
1.1229e-06
7.75477e-07
4.17027e-07
4.74172e-08
-3.33489e-07
-7.25843e-07
-1.12982e-06
-1.54561e-06
-1.97344e-06
-2.41356e-06
-2.86622e-06
-3.33171e-06
-3.81033e-06
-4.30239e-06
-4.8082e-06
-5.32807e-06
-5.86226e-06
-6.41104e-06
-6.97448e-06
-7.55271e-06
-8.14529e-06
-8.73706e-06
-9.30877e-06
-9.85532e-06
-1.03769e-05
-1.08741e-05
-1.13476e-05
-1.1798e-05
-1.22262e-05
-1.26329e-05
-1.30188e-05
-1.33846e-05
-1.37312e-05
-1.40594e-05
-1.43699e-05
-1.46635e-05
-1.49411e-05
-1.52034e-05
-1.54518e-05
-1.56865e-05
-1.59085e-05
-1.61188e-05
-1.63183e-05
-1.65079e-05
1.48355e-06
1.139e-06
7.83526e-07
4.16964e-07
3.92669e-08
-3.49591e-07
-7.49647e-07
-1.16096e-06
-1.58359e-06
-2.01763e-06
-2.46316e-06
-2.9203e-06
-3.38916e-06
-3.86986e-06
-4.36254e-06
-4.86731e-06
-5.38431e-06
-5.91359e-06
-6.45525e-06
-7.00919e-06
-7.57541e-06
-8.15334e-06
-8.73e-06
-9.28908e-06
-9.82599e-06
-1.03407e-05
-1.08335e-05
-1.13048e-05
-1.1755e-05
-1.21846e-05
-1.2594e-05
-1.29837e-05
-1.33542e-05
-1.3706e-05
-1.40397e-05
-1.43558e-05
-1.46551e-05
-1.49382e-05
-1.52058e-05
-1.54587e-05
-1.56976e-05
-1.59233e-05
-1.61367e-05
-1.63386e-05
-1.653e-05
1.49147e-06
1.14024e-06
7.7788e-07
4.04395e-07
1.9851e-08
-3.75683e-07
-7.82151e-07
-1.19951e-06
-1.6277e-06
-2.0667e-06
-2.51647e-06
-2.97698e-06
-3.44819e-06
-3.93009e-06
-4.42264e-06
-4.9258e-06
-5.43953e-06
-5.96371e-06
-6.4983e-06
-7.043e-06
-7.59773e-06
-8.16176e-06
-8.72408e-06
-9.27096e-06
-9.79826e-06
-1.03057e-05
-1.07935e-05
-1.12617e-05
-1.17105e-05
-1.21402e-05
-1.25509e-05
-1.29428e-05
-1.33164e-05
-1.36718e-05
-1.40096e-05
-1.433e-05
-1.46337e-05
-1.49211e-05
-1.51928e-05
-1.54496e-05
-1.56922e-05
-1.59211e-05
-1.61374e-05
-1.63418e-05
-1.65353e-05
1.491e-06
1.13389e-06
7.65571e-07
3.86112e-07
-4.30329e-09
-4.05531e-07
-8.17435e-07
-1.23988e-06
-1.67272e-06
-2.11581e-06
-2.56901e-06
-3.03216e-06
-3.50512e-06
-3.98772e-06
-4.47979e-06
-4.98115e-06
-5.49161e-06
-6.01091e-06
-6.53883e-06
-7.07496e-06
-7.61909e-06
-8.17038e-06
-8.71952e-06
-9.25508e-06
-9.77329e-06
-1.02738e-05
-1.07564e-05
-1.12212e-05
-1.16682e-05
-1.20972e-05
-1.25083e-05
-1.29017e-05
-1.32773e-05
-1.36354e-05
-1.39761e-05
-1.42999e-05
-1.4607e-05
-1.48978e-05
-1.51729e-05
-1.5433e-05
-1.56787e-05
-1.59105e-05
-1.61294e-05
-1.63361e-05
-1.65318e-05
1.48664e-06
1.12439e-06
7.50874e-07
3.66203e-07
-2.93151e-08
-4.35475e-07
-8.52072e-07
-1.27889e-06
-1.7157e-06
-2.16227e-06
-2.61835e-06
-3.08369e-06
-3.55803e-06
-4.04109e-06
-4.53258e-06
-5.03218e-06
-5.53959e-06
-6.0544e-06
-6.57626e-06
-7.10465e-06
-7.63923e-06
-8.17904e-06
-8.71633e-06
-9.24162e-06
-9.75153e-06
-1.02455e-05
-1.07234e-05
-1.11849e-05
-1.16298e-05
-1.20579e-05
-1.2469e-05
-1.28632e-05
-1.32403e-05
-1.36003e-05
-1.39434e-05
-1.42698e-05
-1.45796e-05
-1.48733e-05
-1.51512e-05
-1.54139e-05
-1.56623e-05
-1.58967e-05
-1.61178e-05
-1.63267e-05
-1.65243e-05
1.48105e-06
1.11427e-06
7.36199e-07
3.46928e-07
-5.30775e-08
-4.63569e-07
-8.8428e-07
-1.31492e-06
-1.7552e-06
-2.2048e-06
-2.66338e-06
-3.1306e-06
-3.60611e-06
-4.08953e-06
-4.58045e-06
-5.07846e-06
-5.58312e-06
-6.09392e-06
-6.61039e-06
-7.13189e-06
-7.65798e-06
-8.18761e-06
-8.71436e-06
-9.2305e-06
-9.73297e-06
-1.02211e-05
-1.06946e-05
-1.1153e-05
-1.15959e-05
-1.2023e-05
-1.2434e-05
-1.28287e-05
-1.32069e-05
-1.35685e-05
-1.39135e-05
-1.42419e-05
-1.45541e-05
-1.48501e-05
-1.51303e-05
-1.53953e-05
-1.56458e-05
-1.58825e-05
-1.61056e-05
-1.63163e-05
-1.65157e-05
1.47574e-06
1.10488e-06
7.2276e-07
3.29387e-07
-7.46018e-08
-4.88935e-07
-9.13293e-07
-1.34733e-06
-1.79068e-06
-2.24296e-06
-2.70376e-06
-3.17266e-06
-3.64921e-06
-4.13295e-06
-4.62338e-06
-5.11999e-06
-5.62223e-06
-6.12951e-06
-6.64124e-06
-7.15667e-06
-7.67529e-06
-8.19594e-06
-8.71338e-06
-9.22143e-06
-9.71733e-06
-1.02003e-05
-1.06699e-05
-1.11255e-05
-1.15666e-05
-1.19928e-05
-1.24036e-05
-1.27987e-05
-1.31777e-05
-1.35406e-05
-1.38872e-05
-1.42174e-05
-1.45314e-05
-1.48294e-05
-1.51116e-05
-1.53786e-05
-1.56309e-05
-1.58695e-05
-1.60942e-05
-1.63065e-05
-1.65073e-05
1.47137e-06
1.0968e-06
7.11024e-07
3.13999e-07
-9.35405e-08
-5.11299e-07
-9.3891e-07
-1.37598e-06
-1.82207e-06
-2.27675e-06
-2.73954e-06
-3.20996e-06
-3.68746e-06
-4.17152e-06
-4.66156e-06
-5.15697e-06
-5.65712e-06
-6.16133e-06
-6.66891e-06
-7.17905e-06
-7.69111e-06
-8.20389e-06
-8.71315e-06
-9.2141e-06
-9.70423e-06
-1.01827e-05
-1.06489e-05
-1.1102e-05
-1.15416e-05
-1.19669e-05
-1.23775e-05
-1.27729e-05
-1.31527e-05
-1.35167e-05
-1.38646e-05
-1.41963e-05
-1.4512e-05
-1.48117e-05
-1.50954e-05
-1.53641e-05
-1.56181e-05
-1.58582e-05
-1.60843e-05
-1.6298e-05
-1.65e-05
1.46799e-06
1.09016e-06
7.01079e-07
3.00831e-07
-1.09868e-07
-5.30677e-07
-9.61188e-07
-1.40096e-06
-1.84951e-06
-2.30634e-06
-2.77093e-06
-3.24271e-06
-3.72111e-06
-4.20549e-06
-4.69523e-06
-5.18963e-06
-5.68799e-06
-6.18955e-06
-6.69355e-06
-7.19907e-06
-7.70544e-06
-8.21134e-06
-8.71345e-06
-9.20819e-06
-9.69331e-06
-1.01679e-05
-1.06311e-05
-1.10821e-05
-1.15203e-05
-1.19449e-05
-1.23554e-05
-1.27511e-05
-1.31316e-05
-1.34965e-05
-1.38455e-05
-1.41786e-05
-1.44956e-05
-1.47968e-05
-1.5082e-05
-1.53519e-05
-1.56076e-05
-1.58488e-05
-1.60761e-05
-1.62908e-05
-1.64939e-05
1.46551e-06
1.08481e-06
6.92776e-07
2.89665e-07
-1.23861e-07
-5.47403e-07
-9.80515e-07
-1.42271e-06
-1.87347e-06
-2.33225e-06
-2.79847e-06
-3.27151e-06
-3.75073e-06
-4.23546e-06
-4.72498e-06
-5.21855e-06
-5.7154e-06
-6.21467e-06
-6.71556e-06
-7.21708e-06
-7.71846e-06
-8.21832e-06
-8.71412e-06
-9.20338e-06
-9.6841e-06
-1.01552e-05
-1.06158e-05
-1.10651e-05
-1.15021e-05
-1.19262e-05
-1.23365e-05
-1.27325e-05
-1.31136e-05
-1.34794e-05