/*--------------------------------*- C++ -*----------------------------------*\
| =========                 |                                                 |
| \\      /  F ield         | OpenFOAM: The Open Source CFD Toolbox           |
|  \\    /   O peration     | Version:  2312                                  |
|   \\  /    A nd           | Website:  www.openfoam.com                      |
|    \\/     M anipulation  |                                                 |
\*---------------------------------------------------------------------------*/
FoamFile
{
    version     2.0;
    format      ascii;
    arch        "LSB;label=32;scalar=64";
    class       volScalarField;
    location    "81";
    object      p;
}
// * * * * * * * * * * * * * * * * * * * * * * * * * * * * * * * * * * * * * //

dimensions      [0 2 -2 0 0 0 0];

internalField   nonuniform List<scalar> 
4800
(
2.13311e-11
-1.10669e-06
-1.96597e-06
-2.65492e-06
-3.21525e-06
-3.694e-06
-4.10729e-06
-4.46632e-06
-4.78484e-06
-5.07253e-06
-5.33452e-06
-5.57123e-06
-5.7761e-06
-6.18513e-06
-7.72082e-06
1.45384e-08
-1.09196e-06
-1.95163e-06
-2.64149e-06
-3.20328e-06
-3.68397e-06
-4.10001e-06
-4.46264e-06
-4.78635e-06
-5.08273e-06
-5.36153e-06
-5.63606e-06
-5.91863e-06
-6.31475e-06
-7.0576e-06
2.93833e-08
-1.07674e-06
-1.93682e-06
-2.62781e-06
-3.19086e-06
-3.67252e-06
-4.09086e-06
-4.45653e-06
-4.7843e-06
-5.08678e-06
-5.37483e-06
-5.66231e-06
-5.95547e-06
-6.2608e-06
-6.5525e-06
4.38157e-08
-1.06146e-06
-1.92154e-06
-2.61319e-06
-3.17753e-06
-3.65888e-06
-4.07883e-06
-4.44628e-06
-4.77543e-06
-5.07859e-06
-5.36401e-06
-5.63722e-06
-5.88884e-06
-6.08723e-06
-6.16321e-06
5.91236e-08
-1.04474e-06
-1.90437e-06
-2.59604e-06
-3.16193e-06
-3.64131e-06
-4.06139e-06
-4.42883e-06
-4.75572e-06
-5.05273e-06
-5.3235e-06
-5.56435e-06
-5.75558e-06
-5.85902e-06
-5.82096e-06
7.66804e-08
-1.02523e-06
-1.88384e-06
-2.57477e-06
-3.14146e-06
-3.61857e-06
-4.03574e-06
-4.40008e-06
-4.71995e-06
-5.00303e-06
-5.24834e-06
-5.44622e-06
-5.57534e-06
-5.60652e-06
-5.51253e-06
9.88104e-08
-1.00069e-06
-1.85766e-06
-2.54694e-06
-3.11216e-06
-3.58708e-06
-3.99845e-06
-4.35498e-06
-4.66208e-06
-4.92373e-06
-5.13583e-06
-5.28738e-06
-5.36198e-06
-5.34444e-06
-5.22771e-06
1.29794e-07
-9.67132e-07
-1.82179e-06
-2.50842e-06
-3.07041e-06
-3.54075e-06
-3.94363e-06
-4.2874e-06
-4.57591e-06
-4.81033e-06
-4.98591e-06
-5.09424e-06
-5.12661e-06
-5.07979e-06
-4.95781e-06
1.76563e-07
-9.18065e-07
-1.76986e-06
-2.4527e-06
-3.00974e-06
-3.47261e-06
-3.86335e-06
-4.18996e-06
-4.45531e-06
-4.65967e-06
-4.79999e-06
-4.87253e-06
-4.87581e-06
-4.81428e-06
-4.69648e-06
2.48952e-07
-8.44098e-07
-1.69268e-06
-2.37056e-06
-2.92078e-06
-3.37335e-06
-3.74858e-06
-4.05467e-06
-4.29457e-06
-4.46944e-06
-4.57936e-06
-4.62544e-06
-4.61144e-06
-4.54561e-06
-4.4374e-06
3.59303e-07
-7.33026e-07
-1.57816e-06
-2.24995e-06
-2.79153e-06
-3.23157e-06
-3.58911e-06
-3.87319e-06
-4.08811e-06
-4.23718e-06
-4.32381e-06
-4.35294e-06
-4.33133e-06
-4.26846e-06
-4.1731e-06
5.21945e-07
-5.70236e-07
-1.41164e-06
-2.07634e-06
-2.6079e-06
-3.03423e-06
-3.37378e-06
-3.63689e-06
-3.83011e-06
-3.95932e-06
-4.03071e-06
-4.05158e-06
-4.02997e-06
-3.97517e-06
-3.89472e-06
7.53668e-07
-3.38445e-07
-1.17581e-06
-1.83269e-06
-2.35346e-06
-2.76677e-06
-3.09048e-06
-3.33637e-06
-3.5135e-06
-3.63016e-06
-3.6944e-06
-3.71463e-06
-3.69901e-06
-3.65603e-06
-3.59199e-06
1.07514e-06
-1.63487e-08
-8.49714e-07
-1.49888e-06
-2.00936e-06
-2.41216e-06
-2.72478e-06
-2.95978e-06
-3.12827e-06
-3.2404e-06
-3.3053e-06
-3.33159e-06
-3.32699e-06
-3.29899e-06
-3.25287e-06
1.51131e-06
4.22317e-07
-4.07283e-07
-1.0509e-06
-1.553e-06
-1.94987e-06
-2.25821e-06
-2.49054e-06
-2.65913e-06
-2.77523e-06
-2.84841e-06
-2.88706e-06
-2.89828e-06
-2.88858e-06
-2.86248e-06
2.08946e-06
1.00716e-06
1.82289e-07
-4.61991e-07
-9.58773e-07
-1.35622e-06
-1.66825e-06
-1.90715e-06
-2.08534e-06
-2.21429e-06
-2.30351e-06
-2.36093e-06
-2.39307e-06
-2.40568e-06
-2.4028e-06
2.83523e-06
1.76692e-06
9.49725e-07
3.13954e-07
-1.97134e-07
-6.05606e-07
-9.30887e-07
-1.18626e-06
-1.38404e-06
-1.53532e-06
-1.64901e-06
-1.73239e-06
-1.79145e-06
-1.83144e-06
-1.85618e-06
3.76582e-06
2.7221e-06
1.91189e-06
1.26962e-06
7.47834e-07
3.21048e-07
-2.6469e-08
-3.07786e-07
-5.35272e-07
-7.19135e-07
-8.67099e-07
-9.85477e-07
-1.07966e-06
-1.15449e-06
-1.21365e-06
4.88049e-06
3.87603e-06
3.07965e-06
2.43079e-06
1.88912e-06
1.43612e-06
1.05887e-06
7.43451e-07
4.77268e-07
2.51336e-07
5.94576e-08
-1.03544e-07
-2.42482e-07
-3.61822e-07
-4.6512e-07
6.15084e-06
5.1969e-06
4.41822e-06
3.77251e-06
3.21291e-06
2.73259e-06
2.32215e-06
1.96742e-06
1.65664e-06
1.38249e-06
1.14015e-06
9.25317e-07
7.33708e-07
5.61277e-07
4.04541e-07
7.45413e-06
6.55369e-06
5.7748e-06
5.13282e-06
4.55966e-06
4.0538e-06
3.60624e-06
3.20498e-06
2.84183e-06
2.51192e-06
2.21145e-06
1.93663e-06
1.6837e-06
1.44928e-06
1.23047e-06
8.58368e-06
7.7581e-06
7.03229e-06
6.34284e-06
5.74086e-06
5.20817e-06
4.72527e-06
4.28122e-06
3.87085e-06
3.49085e-06
3.13777e-06
2.80808e-06
2.49852e-06
2.20646e-06
1.92956e-06
9.42256e-06
8.63389e-06
7.91439e-06
7.25084e-06
6.64821e-06
6.09757e-06
5.58759e-06
5.11125e-06
4.66472e-06
4.24499e-06
3.84892e-06
3.47354e-06
3.11627e-06
2.77507e-06
2.44808e-06
1.00246e-05
9.27241e-06
8.57763e-06
7.93208e-06
7.33037e-06
6.76755e-06
6.23844e-06
5.73863e-06
5.26464e-06
4.81354e-06
4.38277e-06
3.97009e-06
3.57358e-06
3.19167e-06
2.82293e-06
1.04493e-05
9.73289e-06
9.06054e-06
8.42662e-06
7.82639e-06
7.25717e-06
6.716e-06
6.19953e-06
5.70476e-06
5.22935e-06
4.77137e-06
4.32919e-06
3.90141e-06
3.48683e-06
3.08437e-06
1.07385e-05
1.00518e-05
9.39898e-06
8.77561e-06
8.17923e-06
7.60805e-06
7.05967e-06
6.53156e-06
6.02151e-06
5.52781e-06
5.04908e-06
4.58413e-06
4.13194e-06
3.69167e-06
3.26255e-06
1.09278e-05
1.02665e-05
9.63096e-06
9.01841e-06
8.42748e-06
7.85666e-06
7.30411e-06
6.76804e-06
6.24697e-06
5.7397e-06
5.24526e-06
4.76283e-06
4.29172e-06
3.83141e-06
3.38142e-06
1.10474e-05
1.04081e-05
9.7881e-06
9.18599e-06
8.60088e-06
8.03162e-06
7.4769e-06
6.93554e-06
6.40657e-06
5.88923e-06
5.38287e-06
4.887e-06
4.40123e-06
3.92532e-06
3.45903e-06
1.11204e-05
1.04999e-05
9.89385e-06
9.30134e-06
8.72199e-06
8.15494e-06
7.59934e-06
7.05448e-06
6.51981e-06
5.99489e-06
5.47937e-06
4.97306e-06
4.47582e-06
3.98764e-06
3.50848e-06
1.11627e-05
1.05588e-05
9.96513e-06
9.3814e-06
8.80749e-06
8.24288e-06
7.68713e-06
7.1399e-06
6.60097e-06
6.07018e-06
5.54746e-06
5.03285e-06
4.52644e-06
4.02842e-06
3.53895e-06
1.11846e-05
1.05967e-05
1.0014e-05
9.43814e-06
8.86917e-06
8.30695e-06
7.75137e-06
7.20244e-06
6.66016e-06
6.12466e-06
5.59609e-06
5.0747e-06
4.56077e-06
4.05466e-06
3.5567e-06
1.11977e-05
1.06219e-05
1.00488e-05
9.47972e-06
8.91509e-06
8.35503e-06
7.79974e-06
7.24944e-06
6.70442e-06
6.16498e-06
5.63149e-06
5.10438e-06
4.5841e-06
4.07117e-06
3.56605e-06
1.1205e-05
1.06396e-05
1.00747e-05
9.51151e-06
8.95063e-06
8.39244e-06
7.83739e-06
7.28592e-06
6.7385e-06
6.19565e-06
5.6579e-06
5.12584e-06
4.60006e-06
4.08124e-06
3.56996e-06
1.12093e-05
1.06529e-05
1.0095e-05
9.53696e-06
8.97927e-06
8.42267e-06
7.86776e-06
7.3152e-06
6.76562e-06
6.21972e-06
5.67819e-06
5.14175e-06
4.61114e-06
4.08713e-06
3.57043e-06
1.12122e-05
1.06638e-05
1.0112e-05
9.55824e-06
9.00327e-06
8.44794e-06
7.89307e-06
7.33945e-06
6.78789e-06
6.23922e-06
5.69428e-06
5.15391e-06
4.61897e-06
4.09033e-06
3.56881e-06
1.12148e-05
1.06732e-05
1.01267e-05
9.57667e-06
9.02397e-06
8.46967e-06
7.91472e-06
7.36006e-06
6.80665e-06
6.25544e-06
5.7074e-06
5.16348e-06
4.62464e-06
4.09185e-06
3.566e-06
1.12173e-05
1.06818e-05
1.01398e-05
9.59294e-06
9.04214e-06
8.48865e-06
7.93352e-06
7.37786e-06
6.82273e-06
6.2692e-06
5.71834e-06
5.17121e-06
4.62885e-06
4.09232e-06
3.5626e-06
1.12201e-05
1.06898e-05
1.01518e-05
9.60758e-06
9.05838e-06
8.50551e-06
7.95017e-06
7.39355e-06
6.83682e-06
6.28116e-06
5.72772e-06
5.17765e-06
4.63208e-06
4.09215e-06
3.55889e-06
1.12233e-05
1.06978e-05
1.01634e-05
9.62165e-06
9.07386e-06
8.52148e-06
7.96588e-06
7.4083e-06
6.85e-06
6.29227e-06
5.73633e-06
5.18343e-06
4.63476e-06
4.09153e-06
3.55487e-06
1.12268e-05
1.07061e-05
1.01751e-05
9.63566e-06
9.08918e-06
8.53724e-06
7.98116e-06
7.42243e-06
6.86244e-06
6.30258e-06
5.74416e-06
5.18853e-06
4.63695e-06
4.09071e-06
3.5509e-06
-8.85378e-06
-6.53017e-06
-5.12075e-06
-4.1762e-06
-3.43198e-06
-2.87439e-06
-2.45811e-06
-2.15238e-06
-1.93574e-06
-1.79015e-06
-1.69964e-06
-1.64926e-06
-1.62438e-06
-1.61033e-06
-1.59182e-06
-1.55357e-06
-1.48091e-06
-1.36414e-06
-1.20026e-06
-1.00235e-06
-8.01471e-07
-6.31596e-07
-5.08201e-07
-3.57968e-07
-8.77868e-08
3.5679e-07
1.00112e-06
1.85422e-06
2.91e-06
4.16481e-06
5.6111e-06
7.2298e-06
9.00218e-06
1.08995e-05
1.28832e-05
1.49075e-05
1.69185e-05
1.8853e-05
2.06337e-05
2.21614e-05
2.32857e-05
2.37941e-05
2.32127e-05
2.11324e-05
1.58019e-05
-7.28489e-06
-6.03416e-06
-4.94683e-06
-4.09685e-06
-3.3956e-06
-2.85224e-06
-2.44125e-06
-2.13815e-06
-1.9236e-06
-1.7803e-06
-1.69237e-06
-1.64479e-06
-1.62279e-06
-1.61158e-06
-1.59583e-06
-1.5602e-06
-1.49006e-06
-1.37563e-06
-1.21351e-06
-1.01592e-06
-8.1239e-07
-6.34887e-07
-4.98642e-07
-3.33523e-07
-4.97572e-08
4.05505e-07
1.05686e-06
1.91373e-06
2.96905e-06
4.21882e-06
5.65455e-06
7.2544e-06
8.99752e-06
1.08525e-05
1.2777e-05
1.47202e-05
1.66209e-05
1.84052e-05
1.99782e-05
2.12097e-05
2.18944e-05
2.17016e-05
1.99676e-05
1.59578e-05
8.39216e-06
-6.46528e-06
-5.65748e-06
-4.76986e-06
-4.00634e-06
-3.35291e-06
-2.82937e-06
-2.42641e-06
-2.12703e-06
-1.91479e-06
-1.77358e-06
-1.68788e-06
-1.64268e-06
-1.62315e-06
-1.6144e-06
-1.60103e-06
-1.56771e-06
-1.49985e-06
-1.38762e-06
-1.22718e-06
-1.02983e-06
-8.23386e-07
-6.37549e-07
-4.87208e-07
-3.05735e-07
-7.17162e-09
4.59462e-07
1.11775e-06
1.97758e-06
3.03058e-06
4.27205e-06
5.69284e-06
7.26727e-06
8.97182e-06
1.0772e-05
1.26206e-05
1.4461e-05
1.62234e-05
1.78223e-05
1.91458e-05
2.00394e-05
2.02686e-05
1.94775e-05
1.70844e-05
1.27504e-05
6.21357e-06
-5.96034e-06
-5.35655e-06
-4.62722e-06
-3.93113e-06
-3.32283e-06
-2.81962e-06
-2.4241e-06
-2.12704e-06
-1.91533e-06
-1.7744e-06
-1.68925e-06
-1.645e-06
-1.62676e-06
-1.61955e-06
-1.60787e-06
-1.57635e-06
-1.51043e-06
-1.40018e-06
-1.24126e-06
-1.04394e-06
-8.34161e-07
-6.39122e-07
-4.73254e-07
-2.73694e-07
4.13373e-08
5.20724e-07
1.18677e-06
2.04996e-06
3.09955e-06
4.3308e-06
5.73341e-06
7.27659e-06
8.93374e-06
1.06665e-05
1.24226e-05
1.41382e-05
1.57355e-05
1.71179e-05
1.81621e-05
1.87041e-05
1.85178e-05
1.73104e-05
1.47157e-05
1.05841e-05
5.19801e-06
-5.58154e-06
-5.10164e-06
-4.49901e-06
-3.88096e-06
-3.31334e-06
-2.83e-06
-2.44074e-06
-2.1438e-06
-1.92988e-06
-1.78636e-06
-1.69907e-06
-1.6534e-06
-1.63448e-06
-1.6272e-06
-1.61599e-06
-1.58539e-06
-1.52083e-06
-1.41226e-06
-1.25474e-06
-1.05735e-06
-8.43985e-07
-6.39008e-07
-4.56294e-07
-2.37117e-07
9.56626e-08
5.88549e-07
1.26233e-06
2.12813e-06
3.17046e-06
4.38927e-06
5.76831e-06
7.27177e-06
8.87042e-06
1.05217e-05
1.21675e-05
1.37379e-05
1.51479e-05
1.62945e-05
1.70513e-05
1.72629e-05
1.67419e-05
1.52891e-05
1.2731e-05
9.07951e-06
4.68621e-06
-5.27731e-06
-4.88278e-06
-4.37829e-06
-3.84317e-06
-3.32288e-06
-2.86099e-06
-2.47887e-06
-2.1809e-06
-1.96236e-06
-1.81318e-06
-1.72046e-06
-1.67027e-06
-1.64793e-06
-1.63832e-06
-1.62575e-06
-1.59468e-06
-1.53054e-06
-1.4231e-06
-1.26673e-06
-1.06917e-06
-8.51989e-07
-6.36421e-07
-4.35656e-07
-1.9551e-07
1.55963e-07
6.62702e-07
1.34346e-06
2.20914e-06
3.23946e-06
4.44399e-06
5.79106e-06
7.24389e-06
8.77123e-06
1.03253e-05
1.1843e-05
1.32493e-05
1.44555e-05
1.5358e-05
1.58377e-05
1.5763e-05
1.49997e-05
1.34398e-05
1.10436e-05
7.92224e-06
4.38661e-06
-5.01212e-06
-4.68546e-06
-4.26581e-06
-3.80075e-06
-3.33705e-06
-2.906e-06
-2.53555e-06
-2.2378e-06
-2.014e-06
-1.857e-06
-1.75576e-06
-1.69768e-06
-1.66873e-06
-1.65393e-06
-1.63764e-06
-1.60424e-06
-1.53918e-06
-1.43202e-06
-1.27638e-06
-1.07846e-06
-8.57229e-07
-6.30486e-07
-4.10627e-07
-1.48362e-07
2.22365e-07
7.43135e-07
1.42854e-06
2.28799e-06
3.30753e-06
4.4909e-06
5.79439e-06
7.18463e-06
8.62663e-06
1.00672e-05
1.14396e-05
1.26665e-05
1.36594e-05
1.43212e-05
1.45491e-05
1.4244e-05
1.33258e-05
1.17584e-05
9.57775e-06
6.92382e-06
4.0411e-06
-4.76566e-06
-4.49372e-06
-4.14714e-06
-3.75203e-06
-3.34242e-06
-2.95225e-06
-2.60094e-06
-2.308e-06
-2.08137e-06
-1.91649e-06
-1.80479e-06
-1.73598e-06
-1.69731e-06
-1.67431e-06
-1.65161e-06
-1.6137e-06
-1.54608e-06
-1.43815e-06
-1.28269e-06
-1.08416e-06
-8.58691e-07
-6.20327e-07
-3.80662e-07
-9.55173e-08
2.94642e-07
8.28115e-07
1.5137e-06
2.36367e-06
3.37316e-06
4.52101e-06
5.76873e-06
7.08402e-06
8.42553e-06
9.73644e-06
1.09487e-05
1.1986e-05
1.27647e-05
1.32004e-05
1.32125e-05
1.27362e-05
1.17366e-05
1.02247e-05
8.26982e-06
6.00498e-06
3.61277e-06
-4.52777e-06
-4.30059e-06
-4.01517e-06
-3.68506e-06
-3.33273e-06
-2.98483e-06
-2.66099e-06
-2.38049e-06
-2.15652e-06
-1.98604e-06
-1.86374e-06
-1.78267e-06
-1.73201e-06
-1.69822e-06
-1.66659e-06
-1.62197e-06
-1.55012e-06
-1.4403e-06
-1.28448e-06
-1.08519e-06
-8.5548e-07
-6.05365e-07
-3.45643e-07
-3.76958e-08
3.71573e-07
9.10501e-07
1.59768e-06
2.43914e-06
3.42509e-06
4.52293e-06
5.70308e-06
6.92948e-06
8.15501e-06
9.32158e-06
1.03625e-05
1.12058e-05
1.17787e-05
1.20121e-05
1.18498e-05
1.12576e-05
1.02327e-05
8.81133e-06
7.07118e-06
5.12507e-06
3.10617e-06
-4.29129e-06
-4.10159e-06
-3.8671e-06
-3.5943e-06
-3.29762e-06
-2.99327e-06
-2.70154e-06
-2.44305e-06
-2.22865e-06
-2.05631e-06
-1.92506e-06
-1.83208e-06
-1.76861e-06
-1.7225e-06
-1.68014e-06
-1.6271e-06
-1.54965e-06
-1.43709e-06
-1.28061e-06
-1.08071e-06
-8.47102e-07
-5.85799e-07
-3.06518e-07
2.3642e-08
4.46287e-07
9.89381e-07
1.67964e-06
2.50391e-06
3.44748e-06
4.48428e-06
5.58427e-06
6.7063e-06
7.80089e-06
8.81106e-06
9.67448e-06
1.03273e-05
1.07096e-05
1.07704e-05
1.04756e-05
9.81438e-06
8.80341e-06
7.48896e-06
5.94359e-06
4.25772e-06
2.52782e-06
-4.0487e-06
-3.89121e-06
-3.69938e-06
-3.47587e-06
-3.22961e-06
-2.96939e-06
-2.71313e-06
-2.48331e-06
-2.28346e-06
-2.11377e-06
-1.97797e-06
-1.87582e-06
-1.80069e-06
-1.74231e-06
-1.68864e-06
-1.62643e-06
-1.54278e-06
-1.42722e-06
-1.27034e-06
-1.07058e-06
-8.34029e-07
-5.6282e-07
-2.66565e-07
8.45475e-08
5.13745e-07
1.06627e-06
1.74609e-06
2.53594e-06
3.42653e-06
4.39123e-06
5.39593e-06
6.398e-06
7.34863e-06
8.19429e-06
8.87988e-06
9.35247e-06
9.56565e-06
9.48587e-06
9.09709e-06
8.40378e-06
7.43224e-06
6.22908e-06
4.85649e-06
3.38458e-06
1.88347e-06
-3.79129e-06
-3.66232e-06
-3.50681e-06
-3.32576e-06
-3.12365e-06
-2.90883e-06
-2.69306e-06
-2.49027e-06
-2.30661e-06
-2.14574e-06
-2.01156e-06
-1.90472e-06
-1.82087e-06
-1.75199e-06
-1.68805e-06
-1.61731e-06
-1.52802e-06
-1.41018e-06
-1.25405e-06
-1.05603e-06
-8.18772e-07
-5.40073e-07
-2.27439e-07
1.32761e-07
5.73338e-07
1.12243e-06
1.77492e-06
2.52145e-06
3.34768e-06
4.22537e-06
5.11906e-06
5.98739e-06
6.78463e-06
7.46321e-06
7.97704e-06
8.28492e-06
8.35404e-06
8.16539e-06
7.71561e-06
7.01777e-06
6.10079e-06
5.00665e-06
3.78603e-06
2.49232e-06
1.17682e-06
-3.50917e-06
-3.40631e-06
-3.28297e-06
-3.13944e-06
-2.97819e-06
-2.80481e-06
-2.6269e-06
-2.45306e-06
-2.29034e-06
-2.1438e-06
-2.01683e-06
-1.91046e-06
-1.8222e-06
-1.74634e-06
-1.67491e-06
-1.59796e-06
-1.5051e-06
-1.38704e-06
-1.23404e-06
-1.04071e-06
-8.06607e-07
-5.24286e-07
-2.00787e-07
1.61764e-07
6.05123e-07
1.1366e-06
1.75194e-06
2.44236e-06
3.18948e-06
3.96478e-06
4.73391e-06
5.45852e-06
6.09838e-06
6.61314e-06
6.96767e-06
7.13076e-06
7.0822e-06
6.81382e-06
6.32995e-06
5.6471e-06
4.79264e-06
3.80196e-06
2.71499e-06
1.57198e-06
4.10681e-07
-3.19085e-06
-3.11284e-06
-3.01901e-06
-2.90933e-06
-2.78499e-06
-2.64931e-06
-2.50722e-06
-2.36462e-06
-2.22734e-06
-2.10006e-06
-1.98582e-06
-1.88585e-06
-1.79901e-06
-1.72151e-06
-1.64734e-06
-1.56845e-06
-1.47595e-06
-1.36136e-06
-1.21545e-06
-1.03127e-06
-8.06105e-07
-5.2818e-07
-2.04849e-07
1.57583e-07
5.90379e-07
1.09062e-06
1.65541e-06
2.27431e-06
2.92741e-06
3.58727e-06
4.22229e-06
4.79912e-06
5.28366e-06
5.64634e-06
5.85808e-06
5.8991e-06
5.75893e-06
5.43638e-06
4.9395e-06
4.28489e-06
3.49631e-06
2.60222e-06
1.63332e-06
6.19754e-07
-4.10593e-07
-2.82242e-06
-2.76931e-06
-2.70381e-06
-2.62587e-06
-2.53598e-06
-2.43605e-06
-2.32927e-06
-2.21966e-06
-2.11141e-06
-2.00818e-06
-1.91259e-06
-1.82594e-06
-1.74783e-06
-1.67586e-06
-1.60576e-06
-1.53139e-06
-1.44538e-06
-1.34007e-06
-1.20706e-06
-1.03872e-06
-8.29692e-07
-5.68033e-07
-2.55651e-07
9.83049e-08
5.03361e-07
9.58309e-07
1.45817e-06
1.99108e-06
2.53776e-06
3.07306e-06
3.5708e-06
4.0031e-06
4.34473e-06
4.56931e-06
4.65869e-06
4.60206e-06
4.3951e-06
4.04024e-06
3.54654e-06
2.92892e-06
2.2068e-06
1.40227e-06
5.38499e-07
-3.62148e-07
-1.27899e-06
-2.38731e-06
-2.36096e-06
-2.3247e-06
-2.27863e-06
-2.22298e-06
-2.15885e-06
-2.08824e-06
-2.01378e-06
-1.9383e-06
-1.86444e-06
-1.79425e-06
-1.72885e-06
-1.6683e-06
-1.61106e-06
-1.55401e-06
-1.49283e-06
-1.42175e-06
-1.33398e-06
-1.2221e-06
-1.0783e-06
-8.95511e-07
-6.61109e-07
-3.73606e-07
-4.74028e-08
3.14775e-07
7.09884e-07
1.13118e-06
1.56684e-06
1.99909e-06
2.40832e-06
2.77401e-06
3.07494e-06
3.28614e-06
3.39205e-06
3.38321e-06
3.25395e-06
3.00306e-06
2.63436e-06
2.15646e-06
1.58177e-06
9.25445e-07
2.04149e-07
-5.64976e-07
-1.36542e-06
-2.18186e-06
-1.86935e-06
-1.87345e-06
-1.86957e-06
-1.85791e-06
-1.8387e-06
-1.81261e-06
-1.78091e-06
-1.74524e-06
-1.70746e-06
-1.66935e-06
-1.63242e-06
-1.59749e-06
-1.56466e-06
-1.5329e-06
-1.50019e-06
-1.46351e-06
-1.41826e-06
-1.35867e-06
-1.2784e-06
-1.16998e-06
-1.02541e-06
-8.32453e-07
-5.88366e-07
-3.08964e-07
-4.48528e-09
3.17458e-07
6.48493e-07
9.77617e-07
1.29717e-06
1.58613e-06
1.83482e-06
2.01591e-06
2.11585e-06
2.12798e-06
2.04683e-06
1.86891e-06
1.59448e-06
1.22773e-06
7.75976e-07
2.48897e-07
-3.42198e-07
-9.85073e-07
-1.66725e-06
-2.37666e-06
-3.10199e-06
-1.26161e-06
-1.30167e-06
-1.33509e-06
-1.36235e-06
-1.38385e-06
-1.40011e-06
-1.41199e-06
-1.42045e-06
-1.42668e-06
-1.4319e-06
-1.43698e-06
-1.44262e-06
-1.44961e-06
-1.45523e-06
-1.45906e-06
-1.45996e-06
-1.45352e-06
-1.4347e-06
-1.39854e-06
-1.33844e-06
-1.24627e-06
-1.11118e-06
-9.29826e-07
-7.16851e-07
-4.84583e-07
-2.43279e-07
-7.71162e-09
2.13178e-07
4.20313e-07
6.1153e-07
7.54293e-07
8.34708e-07
8.49288e-07
7.94445e-07
6.6567e-07
4.60724e-07
1.80755e-07
-1.70416e-07
-5.8713e-07
-1.06235e-06
-1.58798e-06
-2.15528e-06
-2.75534e-06
-3.37947e-06
-4.01937e-06
-5.57411e-07
-6.42437e-07
-7.21566e-07
-7.9559e-07
-8.65217e-07
-9.3106e-07
-9.93765e-07
-1.05396e-06
-1.11246e-06
-1.16989e-06
-1.22698e-06
-1.28377e-06
-1.34168e-06
-1.39878e-06
-1.45309e-06
-1.50534e-06
-1.55142e-06
-1.58714e-06
-1.60886e-06
-1.61094e-06
-1.58589e-06
-1.52515e-06
-1.42471e-06
-1.29543e-06
-1.14916e-06
-9.96185e-07
-8.5058e-07
-7.14702e-07
-5.94456e-07
-5.00159e-07
-4.48974e-07
-4.44084e-07
-4.87595e-07
-5.84288e-07
-7.38213e-07
-9.50511e-07
-1.21978e-06
-1.54312e-06
-1.91668e-06
-2.33567e-06
-2.79454e-06
-3.28725e-06
-3.80756e-06
-4.34931e-06
-4.90653e-06
2.57374e-07
1.15414e-07
-2.21102e-08
-1.5553e-07
-2.85549e-07
-4.12892e-07
-5.38166e-07
-6.61885e-07
-7.84507e-07
-9.06496e-07
-1.02815e-06
-1.14982e-06
-1.27127e-06
-1.39287e-06
-1.51254e-06
-1.62917e-06
-1.74051e-06
-1.84396e-06
-1.93627e-06
-2.01266e-06
-2.0668e-06
-2.0927e-06
-2.0861e-06
-2.05022e-06
-1.99586e-06
-1.93772e-06
-1.87197e-06
-1.80898e-06
-1.75347e-06
-1.73208e-06
-1.74492e-06
-1.7881e-06
-1.86485e-06
-1.98083e-06
-2.13928e-06
-2.34074e-06
-2.58433e-06
-2.86849e-06
-3.19097e-06
-3.54882e-06
-3.93846e-06
-4.35592e-06
-4.79702e-06
-5.25758e-06
-5.73337e-06
1.02142e-06
8.17456e-07
6.17463e-07
4.20861e-07
2.2684e-07
3.46863e-08
-1.56132e-07
-3.46001e-07
-5.3523e-07
-7.2409e-07
-9.12776e-07
-1.10136e-06
-1.28973e-06
-1.47742e-06
-1.66334e-06
-1.84642e-06
-2.02528e-06
-2.19751e-06
-2.35996e-06
-2.50868e-06
-2.63911e-06
-2.74753e-06
-2.82652e-06
-2.87389e-06
-2.89868e-06
-2.91033e-06
-2.91097e-06
-2.90155e-06
-2.90858e-06
-2.93752e-06
-2.98541e-06
-3.05223e-06
-3.14206e-06
-3.25917e-06
-3.40595e-06
-3.58336e-06
-3.79157e-06
-4.03018e-06
-4.29811e-06
-4.59373e-06
-4.91495e-06
-5.25937e-06
-5.62437e-06
-6.00724e-06
-6.40517e-06
1.66209e-06
1.39895e-06
1.13899e-06
8.81806e-07
6.26783e-07
3.73353e-07
1.21118e-07
-1.30172e-07
-3.80683e-07
-6.30517e-07
-8.79705e-07
-1.12815e-06
-1.37559e-06
-1.62153e-06
-1.86526e-06
-2.10578e-06
-2.3415e-06
-2.57018e-06
-2.78918e-06
-2.99542e-06
-3.18576e-06
-3.35679e-06
-3.49863e-06
-3.60731e-06
-3.68714e-06
-3.74049e-06
-3.78897e-06
-3.83051e-06
-3.87872e-06
-3.93433e-06
-3.99832e-06
-4.07433e-06
-4.16604e-06
-4.27619e-06
-4.40678e-06
-4.55922e-06
-4.73434e-06
-4.93237e-06
-5.15299e-06
-5.39549e-06
-5.65884e-06
-5.94176e-06
-6.24273e-06
-6.56013e-06
-6.89222e-06
2.13009e-06
1.81609e-06
1.50489e-06
1.19626e-06
8.89779e-07
5.85093e-07
2.81995e-07
-1.96049e-08
-3.19716e-07
-6.18287e-07
-9.15207e-07
-1.21026e-06
-1.50312e-06
-1.79324e-06
-2.07985e-06
-2.3618e-06
-2.63758e-06
-2.90532e-06
-3.16285e-06
-3.40766e-06
-3.63693e-06
-3.84775e-06
-4.02977e-06
-4.177e-06
-4.2929e-06
-4.38538e-06
-4.45547e-06
-4.52317e-06
-4.5893e-06
-4.65515e-06
-4.72459e-06
-4.80153e-06
-4.88879e-06
-4.98863e-06
-5.10306e-06
-5.23369e-06
-5.38162e-06
-5.54746e-06
-5.73145e-06
-5.93351e-06
-6.15329e-06
-6.39021e-06
-6.64346e-06
-6.91208e-06
-7.19499e-06
2.46271e-06
2.10637e-06
1.75285e-06
1.40205e-06
1.05376e-06
7.07853e-07
3.64311e-07
2.32121e-08
-3.15309e-07
-6.51065e-07
-9.83821e-07
-1.31324e-06
-1.63887e-06
-1.96007e-06
-2.27598e-06
-2.58551e-06
-2.88731e-06
-3.17977e-06
-3.46101e-06
-3.72879e-06
-3.98077e-06
-4.21453e-06
-4.4194e-06
-4.58815e-06
-4.72438e-06
-4.83611e-06
-4.92976e-06
-5.01244e-06
-5.08789e-06
-5.16017e-06
-5.23316e-06
-5.30991e-06
-5.39297e-06
-5.48459e-06
-5.5868e-06
-5.70125e-06
-5.8292e-06
-5.97155e-06
-6.12896e-06
-6.30177e-06
-6.4901e-06
-6.69383e-06
-6.91266e-06
-7.14611e-06
-7.39363e-06
2.69002e-06
2.29966e-06
1.9124e-06
1.52828e-06
1.1473e-06
7.69526e-07
3.95119e-07
2.43121e-08
-3.42625e-07
-7.0538e-07
-1.0636e-06
-1.41683e-06
-1.76452e-06
-2.10598e-06
-2.44035e-06
-2.76662e-06
-3.08356e-06
-3.38973e-06
-3.68351e-06
-3.963e-06
-4.22633e-06
-4.47143e-06
-4.68794e-06
-4.86887e-06
-5.01857e-06
-5.14392e-06
-5.25009e-06
-5.3421e-06
-5.42492e-06
-5.50261e-06
-5.57841e-06
-5.65509e-06
-5.73522e-06
-5.82108e-06
-5.91467e-06
-6.01767e-06
-6.13151e-06
-6.25735e-06
-6.39607e-06
-6.54834e-06
-6.71459e-06
-6.89507e-06
-7.08983e-06
-7.29878e-06
-7.52172e-06
2.84122e-06
2.42411e-06
2.01056e-06
1.60075e-06
1.19485e-06
7.93108e-07
3.95848e-07
3.43114e-09
-3.83761e-07
-7.65312e-07
-1.14077e-06
-1.5096e-06
-1.87119e-06
-2.22484e-06
-2.56972e-06
-2.90486e-06
-3.22919e-06
-3.54141e-06
-3.8402e-06
-4.12399e-06
-4.39129e-06
-4.64041e-06
-4.86195e-06
-5.04961e-06
-5.20724e-06
-5.34082e-06
-5.45484e-06
-5.55406e-06
-5.64284e-06
-5.72477e-06
-5.80289e-06
-5.88001e-06
-5.95864e-06
-6.04102e-06
-6.12915e-06
-6.22477e-06
-6.32943e-06
-6.44442e-06
-6.57081e-06
-6.7095e-06
-6.86116e-06
-7.02628e-06
-7.2052e-06
-7.39812e-06
-7.60511e-06
2.93897e-06
2.5011e-06
2.06734e-06
1.63803e-06
1.21348e-06
7.94091e-07
3.80299e-07
-2.74262e-08
-4.28612e-07
-8.22761e-07
-1.20935e-06
-1.58779e-06
-1.95745e-06
-2.31761e-06
-2.66749e-06
-3.0062e-06
-3.3328e-06
-3.64618e-06
-3.94526e-06
-4.22879e-06
-4.4956e-06
-4.74435e-06
-4.96683e-06
-5.15761e-06
-5.31964e-06
-5.4584e-06
-5.57798e-06
-5.68252e-06
-5.77581e-06
-5.8612e-06
-5.94167e-06
-6.01991e-06
-6.09835e-06
-6.1792e-06
-6.26445e-06
-6.35589e-06
-6.45513e-06
-6.56357e-06
-6.68243e-06
-6.81274e-06
-6.95538e-06
-7.11105e-06
-7.28029e-06
-7.4635e-06
-7.66098e-06
3.00011e-06
2.54618e-06
2.09699e-06
1.65297e-06
1.21456e-06
7.82274e-07
3.56661e-07
-6.17397e-08
-4.72385e-07
-8.74715e-07
-1.26815e-06
-1.65209e-06
-2.02587e-06
-2.3888e-06
-2.74016e-06
-3.07912e-06
-3.40487e-06
-3.7165e-06
-4.01313e-06
-4.29377e-06
-4.55757e-06
-4.80348e-06
-5.02441e-06
-5.21601e-06
-5.38028e-06
-5.5223e-06
-5.64567e-06
-5.75405e-06
-5.8509e-06
-5.93934e-06
-6.02219e-06
-6.10201e-06
-6.18117e-06
-6.26182e-06
-6.34596e-06
-6.43541e-06
-6.53183e-06
-6.6367e-06
-6.75135e-06
-6.87694e-06
-7.01449e-06
-7.16486e-06
-7.32874e-06
-7.50672e-06
-7.69925e-06
3.03662e-06
2.57018e-06
2.1091e-06
1.65389e-06
1.20511e-06
7.63369e-07
3.29284e-07
-9.65437e-08
-5.13517e-07
-9.21032e-07
-1.31848e-06
-1.70522e-06
-2.08062e-06
-2.444e-06
-2.7947e-06
-3.13197e-06
-3.45513e-06
-3.7634e-06
-4.05611e-06
-4.33247e-06
-4.59194e-06
-4.83366e-06
-5.0516e-06
-5.24213e-06
-5.40751e-06
-5.55146e-06
-5.6774e-06
-5.78861e-06
-5.88829e-06
-5.97934e-06
-6.06441e-06
-6.14595e-06
-6.22627e-06
-6.30748e-06
-6.39158e-06
-6.48041e-06
-6.57566e-06
-6.67889e-06
-6.79152e-06
-6.91481e-06
-7.04989e-06
-7.19774e-06
-7.3592e-06
-7.53496e-06
-7.72561e-06
3.05673e-06
2.58036e-06
2.10993e-06
1.64605e-06
1.18938e-06
7.40577e-07
3.00324e-07
-1.30731e-07
-5.51947e-07
-9.62686e-07
-1.36232e-06
-1.7502e-06
-2.1257e-06
-2.48818e-06
-2.83702e-06
-3.17157e-06
-3.49124e-06
-3.79538e-06
-4.08349e-06
-4.35496e-06
-4.60947e-06
-4.84637e-06
-5.06059e-06
-5.24893e-06
-5.41451e-06
-5.55942e-06
-5.68705e-06
-5.80029e-06
-5.90213e-06
-5.9953e-06
-6.08229e-06
-6.16547e-06
-6.24706e-06
-6.32917e-06
-6.41377e-06
-6.50273e-06
-6.59779e-06
-6.70054e-06
-6.81249e-06
-6.93498e-06
-7.06923e-06
-7.21632e-06
-7.37719e-06
-7.55265e-06
-7.74337e-06
3.06599e-06
2.58154e-06
2.1036e-06
1.63283e-06
1.16997e-06
7.1575e-07
2.70883e-07
-1.63941e-07
-5.88047e-07
-1.00077e-06
-1.40147e-06
-1.7895e-06
-2.16425e-06
-2.52511e-06
-2.87151e-06
-3.20287e-06
-3.51868e-06
-3.81843e-06
-4.10174e-06
-4.36815e-06
-4.61755e-06
-4.84943e-06
-5.05966e-06
-5.2458e-06
-5.41036e-06
-5.5554e-06
-5.68405e-06
-5.79866e-06
-5.90206e-06
-5.99686e-06
-6.08541e-06
-6.16998e-06
-6.25276e-06
-6.33581e-06
-6.42112e-06
-6.51055e-06
-6.60588e-06
-6.70877e-06
-6.82077e-06
-6.9433e-06
-7.07766e-06
-7.22502e-06
-7.38639e-06
-7.56266e-06
-7.75459e-06
3.06821e-06
2.57702e-06
2.09285e-06
1.61644e-06
1.14858e-06
6.90057e-07
2.4161e-07
-1.96034e-07
-6.22175e-07
-1.03613e-06
-1.43724e-06
-1.82489e-06
-2.19846e-06
-2.55737e-06
-2.90111e-06
-3.22916e-06
-3.54109e-06
-3.83649e-06
-4.11508e-06
-4.37654e-06
-4.62091e-06
-4.84785e-06
-5.05403e-06
-5.23771e-06
-5.40083e-06
-5.54536e-06
-5.67457e-06
-5.79001e-06
-5.89446e-06
-5.99043e-06
-6.08015e-06
-6.16582e-06
-6.24957e-06
-6.33345e-06
-6.41944e-06
-6.50941e-06
-6.60519e-06
-6.70847e-06
-6.82086e-06
-6.94384e-06
-7.07878e-06
-7.22691e-06
-7.38933e-06
-7.56699e-06
-7.76073e-06
3.06599e-06
2.56902e-06
2.07955e-06
1.59839e-06
1.12637e-06
6.64298e-07
2.12961e-07
-2.26892e-07
-6.54536e-07
-1.06928e-06
-1.47046e-06
-1.85745e-06
-2.22967e-06
-2.58657e-06
-2.92766e-06
-3.25249e-06
-3.5607e-06
-3.85195e-06
-4.12608e-06
-4.38285e-06
-4.62245e-06
-4.84464e-06
-5.04687e-06
-5.22795e-06
-5.3894e-06
-5.53303e-06
-5.66244e-06
-5.77831e-06
-5.88338e-06
-5.98012e-06
-6.07065e-06
-6.15711e-06
-6.24157e-06
-6.32608e-06
-6.4126e-06
-6.50305e-06
-6.59925e-06
-6.70296e-06
-6.81582e-06
-6.93939e-06
-7.07507e-06
-7.22418e-06
-7.38787e-06
-7.56715e-06
-7.7629e-06
3.06108e-06
2.55908e-06
2.06501e-06
1.57973e-06
1.10413e-06
6.39048e-07
1.85285e-07
-2.56379e-07
-6.85205e-07
-1.10049e-06
-1.50157e-06
-1.88782e-06
-2.25868e-06
-2.61362e-06
-2.9522e-06
-3.27401e-06
-3.57875e-06
-3.86616e-06
-4.13615e-06
-4.38859e-06
-4.62374e-06
-4.84149e-06
-5.03993e-06
-5.21842e-06
-5.37793e-06
-5.52079e-06
-5.64994e-06
-5.76594e-06
-5.87128e-06
-5.96845e-06
-6.05948e-06
-6.14643e-06
-6.23135e-06
-6.31626e-06
-6.40314e-06
-6.4939e-06
-6.59042e-06
-6.69448e-06
-6.80777e-06
-6.93189e-06
-7.06832e-06
-7.21841e-06
-7.38337e-06
-7.56427e-06
-7.76204e-06
3.05468e-06
2.54821e-06
2.05007e-06
1.56118e-06
1.08244e-06
6.14724e-07
1.5886e-07
-2.84355e-07
-7.14164e-07
-1.12986e-06
-1.53077e-06
-1.91629e-06
-2.28586e-06
-2.63899e-06
-2.97526e-06
-3.2943e-06
-3.59588e-06
-3.87979e-06
-4.14601e-06
-4.39448e-06
-4.62556e-06
-4.8392e-06
-5.03409e-06
-5.21001e-06
-5.36753e-06
-5.50975e-06
-5.63827e-06
-5.7542e-06
-5.85956e-06
-5.95689e-06
-6.04816e-06
-6.13535e-06
-6.2205e-06
-6.3056e-06
-6.39264e-06
-6.48355e-06
-6.58024e-06
-6.68451e-06
-6.79811e-06
-6.92268e-06
-7.05975e-06
-7.21073e-06
-7.37686e-06
-7.55927e-06
-7.75892e-06
3.0476e-06
2.53713e-06
2.03537e-06
1.54325e-06
1.06171e-06
5.91656e-07
1.33932e-07
-3.10648e-07
-7.41316e-07
-1.15735e-06
-1.5581e-06
-1.94294e-06
-2.31134e-06
-2.66283e-06
-2.99701e-06
-3.31356e-06
-3.61229e-06
-3.89305e-06
-4.15587e-06
-4.40077e-06
-4.62815e-06
-4.83804e-06
-5.02963e-06
-5.20308e-06
-5.35877e-06
-5.50027e-06
-5.62806e-06
-5.74369e-06
-5.8489e-06
-5.94621e-06
-6.03751e-06
-6.12475e-06
-6.20993e-06
-6.29504e-06
-6.38207e-06
-6.47298e-06
-6.56968e-06
-6.67403e-06
-6.7878e-06
-6.91269e-06
-7.05027e-06
-7.20198e-06
-7.36913e-06
-7.55288e-06
-7.75422e-06
3.04037e-06
2.52632e-06
2.02131e-06
1.5263e-06
1.04227e-06
5.7012e-07
1.10732e-07
-3.35069e-07
-7.66505e-07
-1.18285e-06
-1.58345e-06
-1.9677e-06
-2.33506e-06
-2.68509e-06
-3.01742e-06
-3.33176e-06
-3.62795e-06
-3.9059e-06
-4.16569e-06
-4.4074e-06
-4.63147e-06
-4.83799e-06
-5.02656e-06
-5.1977e-06
-5.35177e-06
-5.49239e-06
-5.61945e-06
-5.73461e-06
-5.83961e-06
-5.93675e-06
-6.02793e-06
-6.11507e-06
-6.20014e-06
-6.28512e-06
-6.372e-06
-6.46277e-06
-6.55936e-06
-6.66366e-06
-6.77748e-06
-6.90256e-06
-7.0405e-06
-7.19279e-06
-7.36079e-06
-7.54568e-06
-7.7485e-06
3.03318e-06
2.51589e-06
2.00794e-06
1.51033e-06
1.02404e-06
5.50004e-07
8.91108e-08
-3.57798e-07
-7.89936e-07
-1.20658e-06
-1.60706e-06
-1.99078e-06
-2.35723e-06
-2.70597e-06
-3.03665e-06
-3.34903e-06
-3.64297e-06
-3.91842e-06
-4.1755e-06
-4.41434e-06
-4.63545e-06
-4.83891e-06
-5.02472e-06
-5.19374e-06
-5.34636e-06
-5.48595e-06
-5.61232e-06
-5.72696e-06
-5.83164e-06
-5.92851e-06
-6.01947e-06
-6.10639e-06
-6.19123e-06
-6.27596e-06
-6.36259e-06
-6.45311e-06
-6.54948e-06
-6.65361e-06
-6.76737e-06
-6.89251e-06
-7.03068e-06
-7.18342e-06
-7.3521e-06
-7.53796e-06
-7.74206e-06
3.02581e-06
2.50541e-06
1.99465e-06
1.49454e-06
1.00608e-06
5.30229e-07
6.78897e-08
-3.80088e-07
-8.12911e-07
-1.22985e-06
-1.63023e-06
-2.01348e-06