/*--------------------------------*- C++ -*----------------------------------*\
| =========                 |                                                 |
| \\      /  F ield         | OpenFOAM: The Open Source CFD Toolbox           |
|  \\    /   O peration     | Version:  2312                                  |
|   \\  /    A nd           | Website:  www.openfoam.com                      |
|    \\/     M anipulation  |                                                 |
\*---------------------------------------------------------------------------*/
FoamFile
{
    version     2.0;
    format      ascii;
    arch        "LSB;label=32;scalar=64";
    class       surfaceScalarField;
    location    "92";
    object      phi;
}
// * * * * * * * * * * * * * * * * * * * * * * * * * * * * * * * * * * * * * //

dimensions      [0 3 -1 0 0 0 0];

oriented        oriented;

internalField   nonuniform List<scalar> 
9445
(
5.68141e-10
1.36268e-11
5.60209e-10
7.9322e-12
5.55836e-10
4.37283e-12
5.53876e-10
1.95959e-12
5.53648e-10
2.27724e-13
5.5466e-10
-1.01101e-12
5.56599e-10
-1.93968e-12
5.59549e-10
-2.95024e-12
5.63624e-10
-4.07481e-12
5.69142e-10
-5.51817e-12
5.77173e-10
-8.03077e-12
5.91208e-10
-1.40352e-11
6.23447e-10
-3.22389e-11
7.16244e-10
-9.27969e-11
-2.37533e-10
9.53777e-10
1.98702e-09
5.91528e-11
1.96049e-09
3.44594e-11
1.94582e-09
1.9048e-11
1.93916e-09
8.62226e-12
1.93814e-09
1.23915e-12
1.94102e-09
-3.88814e-12
1.94699e-09
-7.90466e-12
1.95611e-09
-1.20787e-11
1.96866e-09
-1.66188e-11
1.98561e-09
-2.24653e-11
2.00967e-09
-3.20981e-11
2.04752e-09
-5.18863e-11
2.11198e-09
-9.66966e-11
2.21481e-09
-1.95628e-10
-3.44232e-10
2.32151e-09
3.92786e-09
1.4532e-10
3.87758e-09
8.47334e-11
3.84966e-09
4.69711e-11
3.83676e-09
2.15178e-11
3.83433e-09
3.67678e-12
3.83895e-09
-8.51064e-12
3.84925e-09
-1.82007e-11
3.8651e-09
-2.79317e-11
3.88659e-09
-3.81111e-11
3.91495e-09
-5.08231e-11
3.95286e-09
-7.00119e-11
4.00479e-09
-1.03817e-10
4.07331e-09
-1.65209e-10
4.14509e-09
-2.67413e-10
-3.85158e-10
4.18602e-09
6.53562e-09
2.81884e-10
6.45566e-09
1.64685e-10
6.41094e-09
9.16898e-11
6.38973e-09
4.27296e-11
6.38472e-09
8.68824e-12
6.39057e-09
-1.436e-11
6.40492e-09
-3.2546e-11
6.42723e-09
-5.02452e-11
6.45694e-09
-6.78226e-11
6.49472e-09
-8.86011e-11
6.5416e-09
-1.16889e-10
6.5973e-09
-1.59517e-10
6.65565e-09
-2.23566e-10
6.69781e-09
-3.09569e-10
-3.91267e-10
6.70392e-09
9.98604e-09
4.78725e-10
9.8701e-09
2.80633e-10
9.80458e-09
1.57202e-10
9.77241e-09
7.49062e-11
9.76309e-09
1.8007e-11
9.7691e-09
-2.03726e-11
9.78658e-09
-5.00267e-11
9.8141e-09
-7.77632e-11
9.85008e-09
-1.03798e-10
9.89385e-09
-1.32378e-10
9.94409e-09
-1.6713e-10
9.99654e-09
-2.11962e-10
1.00414e-08
-2.68411e-10
1.00631e-08
-3.31237e-10
-3.81648e-10
1.00534e-08
1.44872e-08
7.43715e-10
1.43297e-08
4.38173e-10
1.42395e-08
2.47374e-10
1.41935e-08
1.20881e-10
1.41776e-08
3.38766e-11
1.41821e-08
-2.48184e-11
1.42013e-08
-6.92084e-11
1.42318e-08
-1.08318e-10
1.42712e-08
-1.43136e-10
1.43169e-08
-1.7811e-10
1.43656e-08
-2.15805e-10
1.4411e-08
-2.57434e-10
1.4444e-08
-3.0142e-10
1.44549e-08
-3.42051e-10
-3.68918e-10
1.44421e-08
2.02776e-08
1.07859e-09
2.00759e-08
6.39842e-10
1.99587e-08
3.64564e-10
1.98968e-08
1.82785e-10
1.98722e-08
5.84865e-11
1.98732e-08
-2.58014e-11
1.98921e-08
-8.80982e-11
1.99231e-08
-1.39308e-10
1.99625e-08
-1.82576e-10
2.00064e-08
-2.22001e-10
2.005e-08
-2.59422e-10
2.00873e-08
-2.94712e-10
2.01116e-08
-3.25749e-10
2.01184e-08
-3.48801e-10
-3.59469e-10
2.01089e-08
2.76195e-08
1.47234e-09
2.73782e-08
8.81045e-10
2.72358e-08
5.07048e-10
2.71582e-08
2.60322e-10
2.71243e-08
9.24177e-11
2.71205e-08
-2.19695e-11
2.7137e-08
-1.04597e-10
2.71662e-08
-1.68528e-10
2.7203e-08
-2.19385e-10
2.72424e-08
-2.61376e-10
2.72793e-08
-2.96366e-10
2.7309e-08
-3.24394e-10
2.73276e-08
-3.44402e-10
2.73339e-08
-3.55054e-10
-3.55433e-10
2.73299e-08
3.67889e-08
1.89341e-09
3.65253e-08
1.14466e-09
3.6367e-08
6.65273e-10
3.62792e-08
3.48117e-10
3.62388e-08
1.32815e-10
3.62311e-08
-1.42339e-11
3.62448e-08
-1.18322e-10
3.62713e-08
-1.94991e-10
3.63042e-08
-2.52342e-10
3.63383e-08
-2.95475e-10
3.63691e-08
-3.27135e-10
3.63933e-08
-3.48538e-10
3.64091e-08
-3.60235e-10
3.64168e-08
-3.62811e-10
-3.57157e-10
3.64186e-08
4.80707e-08
2.28679e-09
4.7818e-08
1.39734e-09
4.76647e-08
8.18575e-10
4.75798e-08
4.33067e-10
4.75413e-08
1.71268e-10
4.75348e-08
-7.69782e-12
4.75487e-08
-1.32243e-10
4.75742e-08
-2.2045e-10
4.76047e-08
-2.82881e-10
4.76354e-08
-3.26169e-10
4.76628e-08
-3.54505e-10
4.76849e-08
-3.70635e-10
4.77012e-08
-3.7659e-10
4.77126e-08
-3.74232e-10
-3.65327e-10
4.77208e-08
6.17808e-08
2.58735e-09
6.15833e-08
1.59481e-09
6.14649e-08
9.36985e-10
6.14032e-08
4.94712e-10
6.13809e-08
1.93588e-10
6.13855e-08
-1.22585e-11
6.14067e-08
-1.53419e-10
6.14365e-08
-2.5029e-10
6.14694e-08
-3.15771e-10
6.15015e-08
-3.58273e-10
6.15305e-08
-3.83534e-10
6.15556e-08
-3.95676e-10
6.15768e-08
-3.97813e-10
6.15951e-08
-3.92545e-10
-3.82019e-10
6.16118e-08
7.83374e-08
2.7549e-09
7.82293e-08
1.70289e-09
7.81722e-08
9.9409e-10
7.81537e-08
5.13274e-10
7.81622e-08
1.85068e-10
7.81891e-08
-3.91255e-11
7.82263e-08
-1.90661e-10
7.82679e-08
-2.91935e-10
7.831e-08
-3.5784e-10
7.83501e-08
-3.98392e-10
7.83872e-08
-4.2059e-10
7.8421e-08
-4.2953e-10
7.84522e-08
-4.28985e-10
7.84816e-08
-4.21909e-10
-4.10573e-10
7.85101e-08
9.83576e-08
2.80641e-09
9.83359e-08
1.72464e-09
9.83421e-08
9.87856e-10
9.83702e-08
4.85209e-10
9.84132e-08
1.42024e-10
9.84662e-08
-9.20422e-11
9.85232e-08
-2.47694e-10
9.85806e-08
-3.49376e-10
9.86362e-08
-4.13454e-10
9.8689e-08
-4.51144e-10
9.87387e-08
-4.70291e-10
9.87857e-08
-4.76545e-10
9.88307e-08
-4.7401e-10
9.88746e-08
-4.6575e-10
-4.54026e-10
9.8918e-08
1.22654e-07
2.79904e-09
1.22678e-07
1.70002e-09
1.22719e-07
9.46767e-10
1.22773e-07
4.31643e-10
1.22835e-07
7.95006e-11
1.22903e-07
-1.59614e-10
1.22972e-07
-3.16426e-10
1.23039e-07
-4.17068e-10
1.23105e-07
-4.79045e-10
1.23168e-07
-5.14376e-10
1.23229e-07
-5.31395e-10
1.23289e-07
-5.3603e-10
1.23347e-07
-5.32522e-10
1.23406e-07
-5.23938e-10
-5.12472e-10
1.23464e-07
1.52021e-07
2.77107e-09
1.52055e-07
1.66594e-09
1.52097e-07
9.04124e-10
1.52148e-07
3.80851e-10
1.52206e-07
2.18551e-11
1.52268e-07
-2.22118e-10
1.52333e-07
-3.80612e-10
1.52397e-07
-4.8184e-10
1.52462e-07
-5.43899e-10
1.52527e-07
-5.79253e-10
1.52592e-07
-5.96496e-10
1.52658e-07
-6.01687e-10
1.52724e-07
-5.99113e-10
1.52792e-07
-5.91811e-10
-5.81909e-10
1.52862e-07
1.86942e-07
2.71399e-09
1.86983e-07
1.62507e-09
1.87019e-07
8.67685e-10
1.87056e-07
3.4425e-10
1.87098e-07
-2.0712e-11
1.87144e-07
-2.67803e-10
1.87193e-07
-4.29647e-10
1.87245e-07
-5.34024e-10
1.87301e-07
-5.9921e-10
1.87359e-07
-6.37719e-10
1.87421e-07
-6.58193e-10
1.87486e-07
-6.6671e-10
1.87554e-07
-6.67543e-10
1.87626e-07
-6.63686e-10
-6.57179e-10
1.87701e-07
2.27438e-07
2.60091e-09
2.27506e-07
1.5575e-09
2.27548e-07
8.25127e-10
2.27581e-07
3.11637e-10
2.27612e-07
-5.20693e-11
2.27645e-07
-3.0013e-10
2.2768e-07
-4.65023e-10
2.2772e-07
-5.73849e-10
2.27765e-07
-6.44299e-10
2.27816e-07
-6.88427e-10
2.27872e-07
-7.14647e-10
2.27934e-07
-7.28913e-10
2.28002e-07
-7.35416e-10
2.28076e-07
-7.3708e-10
-7.35884e-10
2.28154e-07
2.72994e-07
2.41847e-09
2.731e-07
1.45054e-09
2.73164e-07
7.6127e-10
2.73202e-07
2.74185e-10
2.73231e-07
-8.1753e-11
2.73258e-07
-3.26588e-10
2.73286e-07
-4.93153e-10
2.73319e-07
-6.06922e-10
2.73359e-07
-6.84002e-10
2.73406e-07
-7.3554e-10
2.73461e-07
-7.69475e-10
2.73523e-07
-7.91486e-10
2.73594e-07
-8.05567e-10
2.73671e-07
-8.14507e-10
-8.20215e-10
2.73755e-07
3.22237e-07
2.16717e-09
3.22386e-07
1.30137e-09
3.22472e-07
6.75453e-10
3.22521e-07
2.24431e-10
3.22555e-07
-1.15762e-10
3.22584e-07
-3.55293e-10
3.22614e-07
-5.22617e-10
3.22648e-07
-6.41072e-10
3.22689e-07
-7.25137e-10
3.22738e-07
-7.84858e-10
3.22796e-07
-8.27511e-10
3.22863e-07
-8.58374e-10
3.22939e-07
-8.81165e-10
3.23023e-07
-8.98489e-10
-9.11748e-10
3.23114e-07
3.72243e-07
1.84099e-09
3.72442e-07
1.10229e-09
3.7256e-07
5.58116e-10
3.72629e-07
1.54943e-10
3.72668e-07
-1.54161e-10
3.72687e-07
-3.7435e-10
3.72699e-07
-5.3499e-10
3.72711e-07
-6.53582e-10
3.72728e-07
-7.41988e-10
3.72752e-07
-8.08756e-10
3.72785e-07
-8.6006e-10
3.72827e-07
-9.00338e-10
3.72878e-07
-9.32702e-10
3.72939e-07
-9.59393e-10
-9.82042e-10
3.73009e-07
3.70361e-07
1.48841e-09
3.70589e-07
8.74346e-10
3.70734e-07
4.13034e-10
3.70818e-07
7.0681e-11
3.7087e-07
-2.06266e-10
3.709e-07
-4.042e-10
3.70921e-07
-5.55596e-10
3.70939e-07
-6.72086e-10
3.7096e-07
-7.62612e-10
3.70985e-07
-8.34243e-10
3.71017e-07
-8.92089e-10
3.71057e-07
-9.39774e-10
3.71104e-07
-9.7985e-10
3.71159e-07
-1.01419e-09
-1.04396e-09
3.71221e-07
3.18043e-07
1.20251e-09
3.18213e-07
7.0432e-10
3.18307e-07
3.18554e-10
3.18359e-07
1.88204e-11
3.1837e-07
-2.17295e-10
3.18366e-07
-4.00011e-10
3.18353e-07
-5.42904e-10
3.18338e-07
-6.56507e-10
3.18323e-07
-7.48291e-10
3.18313e-07
-8.23696e-10
3.18308e-07
-8.86679e-10
3.18308e-07
-9.40145e-10
3.18314e-07
-9.86193e-10
3.18326e-07
-1.02638e-09
-1.06178e-09
3.18344e-07
2.6687e-07
9.31133e-10
2.67048e-07
5.26122e-10
2.67159e-07
2.07873e-10
2.67222e-07
-4.47064e-11
2.6725e-07
-2.45321e-10
2.67257e-07
-4.06498e-10
2.6725e-07
-5.36744e-10
2.67237e-07
-6.43286e-10
2.67221e-07
-7.31793e-10
2.67203e-07
-8.0644e-10
2.67187e-07
-8.70256e-10
2.67172e-07
-9.25493e-10
2.6716e-07
-9.73791e-10
2.6715e-07
-1.01638e-09
-1.0541e-09
2.67142e-07
2.20424e-07
6.9504e-10
2.2058e-07
3.7061e-10
2.20677e-07
1.10986e-10
2.2073e-07
-9.83582e-11
2.20754e-07
-2.68755e-10
2.20756e-07
-4.08947e-10
2.20745e-07
-5.25197e-10
2.20724e-07
-6.22574e-10
2.20697e-07
-7.05181e-10
2.20667e-07
-7.76173e-10
2.20635e-07
-8.37852e-10
2.20601e-07
-8.91915e-10
2.20567e-07
-9.39585e-10
2.20532e-07
-9.81781e-10
-1.01916e-09
2.20497e-07
1.79716e-07
5.01295e-10
1.79843e-07
2.44441e-10
1.79918e-07
3.53778e-11
1.79956e-07
-1.36519e-10
1.79967e-07
-2.79509e-10
1.79958e-07
-3.99424e-10
1.79933e-07
-5.00923e-10
1.79898e-07
-5.87623e-10
1.79856e-07
-6.6244e-10
1.79807e-07
-7.27654e-10
1.79754e-07
-7.84944e-10
1.79698e-07
-8.35542e-10
1.79639e-07
-8.80332e-10
1.79577e-07
-9.19985e-10
-9.54974e-10
1.79513e-07
1.44877e-07
3.51937e-10
1.4497e-07
1.50994e-10
1.45021e-07
-1.52961e-11
1.45039e-07
-1.54728e-10
1.45033e-07
-2.72808e-10
1.45007e-07
-3.73628e-10
1.44966e-07
-4.60472e-10
1.44915e-07
-5.35871e-10
1.44854e-07
-6.01838e-10
1.44786e-07
-6.59956e-10
1.44713e-07
-7.11404e-10
1.44634e-07
-7.57052e-10
1.44552e-07
-7.97522e-10
1.44465e-07
-8.33287e-10
-8.64674e-10
1.44375e-07
1.15571e-07
2.44223e-10
1.15634e-07
8.87031e-11
1.1566e-07
-4.17734e-11
1.15659e-07
-1.53412e-10
1.15636e-07
-2.49522e-10
1.15595e-07
-3.3298e-10
1.1554e-07
-4.05974e-10
1.15475e-07
-4.70206e-10
1.154e-07
-5.27033e-10
1.15318e-07
-5.77524e-10
1.15229e-07
-6.22484e-10
1.15134e-07
-6.62506e-10
1.15035e-07
-6.98014e-10
1.14931e-07
-7.29328e-10
-7.56666e-10
1.14823e-07
9.12628e-08
1.70406e-10
9.12999e-08
5.16693e-11
9.13077e-08
-4.96415e-11
9.12921e-08
-1.37823e-10
9.12576e-08
-2.15034e-10
9.12078e-08
-2.83095e-10
9.11452e-08
-3.4341e-10
9.10721e-08
-3.97095e-10
9.09901e-08
-4.45045e-10
9.09005e-08
-4.87959e-10
9.08044e-08
-5.26365e-10
9.07026e-08
-5.60654e-10
9.05956e-08
-5.91101e-10
9.04842e-08
-6.17919e-10
-6.41243e-10
9.03688e-08
7.13425e-08
1.21198e-10
7.13626e-08
3.15813e-11
7.13589e-08
-4.59343e-11
7.13357e-08
-1.14691e-10
7.12965e-08
-1.75821e-10
7.12438e-08
-2.30428e-10
7.11798e-08
-2.79383e-10
7.11061e-08
-3.23395e-10
7.10241e-08
-3.63033e-10
7.09349e-08
-3.98737e-10
7.08394e-08
-4.30841e-10
7.07383e-08
-4.59593e-10
7.06324e-08
-4.85161e-10
7.05221e-08
-5.07681e-10
-5.27231e-10
7.04081e-08
5.51928e-08
8.8094e-11
5.52027e-08
2.16503e-11
5.51936e-08
-3.68445e-11
5.51685e-08
-8.95605e-11
5.51298e-08
-1.37115e-10
5.50794e-08
-1.80092e-10
5.50191e-08
-2.19016e-10
5.495e-08
-2.5432e-10
5.48733e-08
-2.86349e-10
5.479e-08
-3.15371e-10
5.47007e-08
-3.41585e-10
5.46062e-08
-3.6514e-10
5.45072e-08
-3.86134e-10
5.44042e-08
-4.04647e-10
-4.20717e-10
5.42977e-08
4.22224e-08
6.51461e-11
4.22272e-08
1.68399e-11
4.22168e-08
-2.6418e-11
4.21933e-08
-6.60271e-11
4.21584e-08
-1.02211e-10
4.21135e-08
-1.35246e-10
4.206e-08
-1.65434e-10
4.19987e-08
-1.93029e-10
4.19305e-08
-2.1823e-10
4.18564e-08
-2.41189e-10
4.17768e-08
-2.62022e-10
4.16925e-08
-2.80808e-10
4.16039e-08
-2.976e-10
4.15117e-08
-3.12438e-10
-3.25338e-10
4.14163e-08
3.18922e-08
4.84568e-11
3.18948e-08
1.42174e-11
3.18854e-08
-1.69819e-11
3.18653e-08
-4.59718e-11
3.18359e-08
-7.27477e-11
3.1798e-08
-9.74045e-11
3.17527e-08
-1.20116e-10
3.17007e-08
-1.41021e-10
3.16427e-08
-1.60229e-10
3.15793e-08
-1.77819e-10
3.15112e-08
-1.93851e-10
3.14387e-08
-2.08363e-10
3.13625e-08
-2.21377e-10
3.1283e-08
-2.32911e-10
-2.42962e-10
3.12006e-08
2.37281e-08
3.57221e-11
2.37301e-08
1.21952e-11
2.37227e-08
-9.57359e-12
2.37069e-08
-3.0085e-11
2.36833e-08
-4.92132e-11
2.36529e-08
-6.69513e-11
2.36162e-08
-8.34082e-11
2.35738e-08
-9.86523e-11
2.35263e-08
-1.12738e-10
2.34742e-08
-1.25702e-10
2.34179e-08
-1.3757e-10
2.33579e-08
-1.48354e-10
2.32946e-08
-1.58061e-10
2.32284e-08
-1.66692e-10
-1.74238e-10
2.31596e-08
1.73249e-08
2.56286e-11
1.7327e-08
1.01059e-11
1.73219e-08
-4.4409e-12
1.73101e-08
-1.83138e-11
1.72923e-08
-3.13775e-11
1.72689e-08
-4.35521e-11
1.72404e-08
-5.49246e-11
1.72073e-08
-6.55219e-11
1.71699e-08
-7.53669e-11
1.71287e-08
-8.4471e-11
1.70839e-08
-9.28415e-11
1.70361e-08
-1.00478e-10
1.69854e-08
-1.07378e-10
1.69322e-08
-1.13535e-10
-1.18937e-10
1.68769e-08
1.23425e-08
1.7505e-11
1.23448e-08
7.79719e-12
1.23418e-08
-1.36192e-12
1.23336e-08
-1.01836e-11
1.23208e-08
-1.85911e-11
1.23037e-08
-2.64422e-11
1.22826e-08
-3.38268e-11
1.22579e-08
-4.07468e-11
1.22297e-08
-4.72091e-11
1.21984e-08
-5.32126e-11
1.21644e-08
-5.87558e-11
1.21277e-08
-6.38327e-11
1.20888e-08
-6.84387e-11
1.20478e-08
-7.25638e-11
-7.61945e-11
1.20051e-08
8.49915e-09
1.10391e-11
8.50153e-09
5.41779e-12
8.50006e-09
1.10721e-13
8.4949e-09
-5.02176e-12
8.48629e-09
-9.98679e-12
8.47448e-09
-1.46299e-11
8.45968e-09
-1.90251e-11
8.4421e-09
-2.31655e-11
8.42194e-09
-2.70519e-11
8.39941e-09
-3.06787e-11
8.37469e-09
-3.40414e-11
8.34799e-09
-3.71331e-11
8.3195e-09
-3.99496e-11
8.28942e-09
-4.24813e-11
-4.47141e-11
8.25794e-09
5.56335e-09
6.10513e-12
5.56555e-09
3.22225e-12
5.56514e-09
5.16561e-13
5.56221e-09
-2.08501e-12
5.55686e-09
-4.64382e-12
5.54928e-09
-7.04931e-12
5.5396e-09
-9.33742e-12
5.52793e-09
-1.15031e-11
5.51443e-09
-1.35471e-11
5.49921e-09
-1.5463e-11
5.48242e-09
-1.72467e-11
5.46418e-09
-1.88927e-11
5.44463e-09
-2.03981e-11
5.4239e-09
-2.17558e-11
-2.29524e-11
5.40214e-09
3.34633e-09
2.65347e-12
3.34809e-09
1.462e-12
3.34823e-09
3.76447e-13
3.34681e-09
-6.56653e-13
3.34385e-09
-1.69008e-12
3.33947e-09
-2.67211e-12
3.33375e-09
-3.60916e-12
3.32674e-09
-4.5007e-12
3.31854e-09
-5.34724e-12
3.30922e-09
-6.14412e-12
3.29887e-09
-6.88875e-12
3.28755e-09
-7.57804e-12
3.27536e-09
-8.21067e-12
3.26239e-09
-8.782e-12
-9.28169e-12
3.24872e-09
1.69498e-09
6.40815e-13
1.6961e-09
3.4468e-13
1.69637e-09
1.04036e-13
1.69583e-09
-1.21532e-13
1.6945e-09
-3.54453e-13
1.69241e-09
-5.79503e-13
1.68959e-09
-7.94472e-13
1.68609e-09
-1.00157e-12
1.68194e-09
-1.19928e-12
1.67718e-09
-1.38561e-12
1.67186e-09
-1.56015e-12
1.666e-09
-1.72187e-12
1.65966e-09
-1.87056e-12
1.65288e-09
-2.00385e-12
-2.11633e-12
1.64572e-09
4.85806e-10
4.86151e-10
4.86255e-10
4.86134e-10
4.85779e-10
4.852e-10
4.84405e-10
4.83404e-10
4.82204e-10
4.80819e-10
4.79259e-10
4.77537e-10
4.75666e-10
4.73662e-10
4.71546e-10
1.14282e-09
-4.35848e-10
2.46809e-10
1.41572e-09
-3.34513e-10
6.16099e-11
1.69285e-09
-1.63761e-10
-1.13372e-10
1.96828e-09
1.61541e-11
-2.91582e-10
2.24023e-09
2.00942e-10
-4.72891e-10
2.50962e-09
3.83473e-10
-6.52861e-10
2.77794e-09
5.61727e-10
-8.30051e-10
3.04636e-09
7.33657e-10
-1.00207e-09
3.31574e-09
8.96555e-10
-1.16594e-09
3.58675e-09
1.04719e-09
-1.31819e-09
3.85989e-09
1.18161e-09
-1.45475e-09
4.13567e-09
1.295e-09
-1.57079e-09
4.41463e-09
1.38149e-09
-1.66045e-09
4.69737e-09
1.4339e-09
-1.71664e-09
4.98456e-09
1.44369e-09
-1.73088e-09
5.27708e-09
1.40157e-09
-1.6941e-09
5.5762e-09
1.29876e-09
-1.59788e-09
5.88396e-09
1.13002e-09
-1.43778e-09
6.20361e-09
8.92675e-10
-1.21233e-09
6.5396e-09
5.91425e-10
-9.27417e-10
6.89656e-09
2.18603e-10
-5.75566e-10
7.27529e-09
-2.68396e-10
-1.10332e-10
7.61267e-09
-8.09917e-10
4.72533e-10
7.88409e-09
-1.31309e-09
1.04167e-09
8.09023e-09
-1.77678e-09
1.57064e-09
8.23471e-09
-2.18203e-09
2.03755e-09
8.32285e-09
-2.51532e-09
2.42718e-09
8.36002e-09
-2.7725e-09
2.73533e-09
8.35016e-09
-2.95016e-09
2.96001e-09
8.29667e-09
-3.04786e-09
3.10135e-09
8.20266e-09
-3.06988e-09
3.16388e-09
8.0704e-09
-3.00903e-09
3.1413e-09
7.90221e-09
-2.85908e-09
3.02727e-09
7.70066e-09
-2.61539e-09
2.81695e-09
7.46832e-09
-2.27554e-09
2.50788e-09
7.20762e-09
-1.83949e-09
2.10019e-09
6.92065e-09
-1.30858e-09
1.59555e-09
6.60924e-09
-6.83416e-10
9.94828e-10
6.27503e-09
3.90171e-11
2.95193e-10
5.91862e-09
8.66853e-10
-5.10441e-10
5.53507e-09
1.80467e-09
-1.42112e-09
5.10585e-09
2.82496e-09
-2.39573e-09
4.59724e-09
3.79076e-09
-3.28216e-09
4.01363e-09
4.36092e-09
-3.77731e-09
3.74084e-09
3.64788e-09
-3.37508e-09
2.39662e-09
-5.10955e-10
2.56219e-09
-5.0008e-10
2.78814e-09
-3.8971e-10
3.04229e-09
-2.37997e-10
3.31113e-09
-6.79021e-11
3.58793e-09
1.06677e-10
3.87005e-09
2.79602e-10
4.15648e-09
4.47222e-10
4.44689e-09
6.06146e-10
4.74121e-09
7.52872e-10
5.03952e-09
8.83306e-10
5.34202e-09
9.92498e-10
5.64905e-09
1.07446e-09
5.96102e-09
1.12193e-09
6.27841e-09
1.1263e-09
6.60188e-09
1.0781e-09
6.93242e-09
9.6823e-10
7.27171e-09
7.90731e-10
7.62263e-09
5.41761e-10
7.98918e-09
2.24872e-10
8.37559e-09
-1.67811e-10
8.78227e-09
-6.7507e-10
9.1424e-09
-1.17005e-09
9.43111e-09
-1.60181e-09
9.6499e-09
-1.99556e-09
9.80287e-09
-2.33501e-09
9.89577e-09
-2.60822e-09
9.93426e-09
-2.81098e-09
9.92261e-09
-2.93851e-09
9.8648e-09
-2.99004e-09
9.76445e-09
-2.96953e-09
9.62429e-09
-2.86888e-09
9.44744e-09
-2.68223e-09
9.23743e-09
-2.40538e-09
8.9982e-09
-2.03631e-09
8.73403e-09
-1.57531e-09
8.44962e-09
-1.02418e-09
8.15076e-09
-3.84553e-10
7.84564e-09
3.44139e-10
7.54663e-09
1.16586e-09
7.27106e-09
2.08024e-09
7.04007e-09
3.05595e-09
6.87947e-09
3.95136e-09
6.8181e-09
4.42229e-09
3.85454e-09
6.7044e-09
4.20102e-09
-5.25961e-10
4.27705e-09
-5.76106e-10
4.42635e-09
-5.39009e-10
4.63001e-09
-4.41665e-10
4.86925e-09
-3.07137e-10
5.13205e-09
-1.5612e-10
5.41125e-09
3.99663e-13
5.7027e-09
1.55768e-10
6.004e-09
3.04851e-10
6.3137e-09
4.43172e-10
6.63097e-09
5.66037e-10
6.95538e-09
6.68082e-10
7.2868e-09
7.43047e-10
7.62523e-09
7.83501e-10
7.9708e-09
7.80734e-10
8.32377e-09
7.2512e-10
8.68468e-09
6.07327e-10
9.05465e-09
4.20755e-10
9.43592e-09
1.60489e-10
9.83179e-09
-1.70991e-10
1.02457e-08
-5.81732e-10
1.06774e-08
-1.10674e-09
1.10568e-08
-1.54947e-09
1.13594e-08
-1.90438e-09
1.15876e-08
-2.22379e-09
1.17462e-08
-2.4936e-09
1.18413e-08
-2.70336e-09
1.18789e-08
-2.84858e-09
1.18637e-08
-2.92331e-09
1.18004e-08
-2.92672e-09
1.16931e-08
-2.86224e-09
1.15451e-08
-2.7209e-09
1.13605e-08
-2.49764e-09
1.11442e-08
-2.18899e-09
1.09016e-08
-1.79372e-09
1.06393e-08
-1.31303e-09
1.03652e-08
-7.50079e-10
1.00896e-08
-1.08936e-10
9.82751e-09
6.06191e-10
9.6025e-09
1.39087e-09
9.44971e-09
2.23303e-09
9.41444e-09
3.09122e-09
9.53121e-09
3.83459e-09
9.74033e-09
4.21317e-09
3.79017e-09
9.80469e-09
6.68547e-09
-5.07511e-10
6.70082e-09
-5.91458e-10
6.77299e-09
-6.11178e-10
6.9079e-09
-5.76574e-10
7.09382e-09
-4.93054e-10
7.31875e-09
-3.81052e-10
7.57351e-09
-2.5436e-10
7.85145e-09
-1.22176e-10
8.14799e-09
8.31492e-12
8.45995e-09
1.31213e-10
8.78519e-09
2.40789e-10
9.12234e-09
3.30934e-10
9.47048e-09
3.94907e-10
9.829e-09
4.24986e-10
1.01974e-08
4.12311e-10
1.05754e-08
3.47116e-10
1.09629e-08
2.19896e-10
1.13601e-08
2.3557e-11
1.17683e-08
-2.47767e-10
1.21898e-08
-5.92513e-10
1.26269e-08
-1.01881e-09
1.30781e-08
-1.55791e-09
1.3471e-08
-1.94234e-09
1.37818e-08
-2.21523e-09
1.40143e-08
-2.45631e-09
1.41739e-08
-2.6532e-09
1.42673e-08
-2.79675e-09
1.43005e-08
-2.8818e-09
1.42791e-08
-2.90185e-09
1.42084e-08
-2.85603e-09
1.40931e-08
-2.74693e-09
1.39371e-08
-2.56492e-09
1.37457e-08
-2.30625e-09
1.35252e-08
-1.96851e-09
1.32832e-08
-1.55167e-09
1.30286e-08
-1.05842e-09
1.27726e-08
-4.94082e-10
1.25298e-08
1.33804e-10
1.2321e-08
8.15055e-10
1.2176e-08
1.5358e-09
1.21366e-08
2.27244e-09
1.22486e-08
2.9793e-09
1.25291e-08
3.55403e-09
1.29124e-08
3.8299e-09
3.575e-09
1.31276e-08
1.00211e-08
-4.75136e-10
1.00008e-08
-5.71186e-10
1.00152e-08
-6.25581e-10
1.00787e-08
-6.40078e-10
1.01978e-08
-6.12145e-10
1.03651e-08
-5.48381e-10
1.05735e-08
-4.62775e-10
1.08164e-08
-3.65018e-10
1.1088e-08
-2.63363e-10
1.13841e-08
-1.64819e-10
1.17011e-08
-7.62253e-11
1.20366e-08
-4.61194e-12
1.23889e-08
4.26566e-11
1.27564e-08
5.74762e-11
1.31379e-08
3.07911e-11
1.35323e-08
-4.72779e-11
1.39385e-08
-1.86324e-10
1.43558e-08
-3.93752e-10
1.47843e-08
-6.76202e-10
1.52245e-08
-1.03278e-09
1.56773e-08
-1.47152e-09
1.61393e-08
-2.01992e-09
1.65368e-08
-2.33993e-09
1.68478e-08
-2.52616e-09
1.70771e-08
-2.68562e-09
1.7231e-08
-2.80715e-09
1.73168e-08
-2.8825e-09
1.73405e-08
-2.90549e-09
1.73088e-08
-2.87019e-09
1.72281e-08
-2.77527e-09
1.71029e-08
-2.62178e-09
1.69382e-08
-2.40021e-09
1.67406e-08
-2.1087e-09
1.65182e-08
-1.7461e-09
1.62805e-08
-1.31393e-09
1.60389e-08
-8.16842e-10
1.58077e-08
-2.62821e-10
1.56046e-08
3.3689e-10
1.54531e-08
9.66514e-10
1.53839e-08
1.60501e-09
1.54341e-08
2.22227e-09
1.56381e-08
2.77532e-09
1.59984e-08
3.19372e-09
1.64439e-08
3.38439e-09
3.2475e-09
1.67714e-08
1.44096e-08
-4.426e-10
1.43729e-08
-5.34479e-10
1.4354e-08
-6.06656e-10
1.43646e-08
-6.50751e-10
1.44186e-08
-6.66145e-10
1.45207e-08
-6.50487e-10
1.4668e-08
-6.10007e-10
1.4857e-08
-5.54048e-10
1.50835e-08
-4.89865e-10
1.53431e-08
-4.24404e-10
1.5632e-08
-3.6513e-10
1.59472e-08
-3.19782e-10
1.62861e-08
-2.96226e-10
1.66464e-08
-3.02894e-10
1.70262e-08
-3.48985e-10
1.74233e-08
-4.44408e-10
1.78357e-08
-5.98708e-10
1.82613e-08
-8.19346e-10
1.86986e-08
-1.1135e-09
1.91464e-08
-1.48059e-09
1.96031e-08
-1.92822e-09
2.00633e-08
-2.48006e-09
2.04532e-08
-2.72992e-09
2.0753e-08
-2.82591e-09
2.09688e-08
-2.90143e-09
2.11079e-08
-2.94624e-09
2.11778e-08
-2.95238e-09
2.11848e-08
-2.91256e-09
2.11377e-08
-2.82303e-09
2.10431e-08
-2.68072e-09
2.0905e-08
-2.48362e-09
2.07299e-08
-2.22513e-09
2.05262e-08
-1.90496e-09
2.03034e-08
-1.52333e-09
2.0073e-08
-1.08354e-09
1.98486e-08
-5.92393e-10
1.96463e-08
-6.06063e-11
1.94855e-08
4.97688e-10
1.93893e-08
1.0628e-09
1.93836e-08
1.61069e-09
1.94948e-08
2.11107e-09
1.97412e-08
2.52885e-09
2.01135e-08
2.82144e-09
2.0552e-08
2.94588e-09
2.86871e-09
2.09308e-08
2.00837e-08
-4.17434e-10
2.00482e-08
-4.98909e-10
2.00153e-08
-5.73836e-10
1.99986e-08
-6.34027e-10
2.00075e-08
-6.75048e-10
2.00527e-08
-6.957e-10
2.01387e-08
-6.95951e-10
2.02663e-08
-6.81655e-10
2.04345e-08
-6.58097e-10
2.0641e-08
-6.3084e-10
2.0883e-08
-6.07177e-10
2.11581e-08
-5.94893e-10
2.14638e-08
-6.01865e-10
2.17974e-08
-6.36526e-10
2.21564e-08
-7.0798e-10
2.25379e-08
-8.25947e-10
2.29389e-08
-9.99686e-10
2.33559e-08
-1.23634e-09
2.37857e-08
-1.54331e-09
2.42249e-08
-1.91982e-09
2.46693e-08
-2.37258e-09
2.51104e-08
-2.92115e-09
2.54767e-08
-3.09621e-09
2.57507e-08
-3.0999e-09
2.59397e-08
-3.09051e-09
2.60521e-08
-3.05859e-09
2.60953e-08
-2.99564e-09
2.60773e-08
-2.89449e-09
2.60079e-08
-2.75369e-09
2.58939e-08
-2.56667e-09
2.5738e-08
-2.32778e-09
2.55498e-08
-2.03691e-09
2.53388e-08
-1.69397e-09
2.51162e-08
-1.30066e-09
2.48947e-08
-8.62109e-10
2.46895e-08
-3.8712e-10
2.45171e-08
1.11772e-10
2.43965e-08
6.1828e-10
2.43472e-08
1.11205e-09
2.4388e-08
1.56989e-09
2.45329e-08
1.9662e-09
2.47857e-08
2.27606e-09
2.51302e-08
2.47692e-09
2.55224e-08
2.55372e-09
2.50259e-09
2.58885e-08
2.73147e-08
-4.0224e-10
2.72891e-08
-4.73305e-10
2.72595e-08
-5.44282e-10
2.72348e-08
-6.09341e-10
2.72243e-08
-6.64508e-10
2.72351e-08
-7.06522e-10
2.72754e-08
-7.36208e-10
2.73504e-08
-7.56733e-10
2.74619e-08
-7.69591e-10
2.76104e-08
-7.79277e-10
2.77957e-08
-7.925e-10
2.80171e-08
-8.16287e-10
2.82731e-08
-8.57857e-10
2.85617e-08
-9.25143e-10
2.88804e-08
-1.02672e-09
2.92262e-08
-1.17174e-09
2.95954e-08
-1.3688e-09
2.99832e-08
-1.62422e-09
3.03851e-08
-1.94516e-09
3.07953e-08
-2.33002e-09
3.12067e-08
-2.78397e-09
3.16075e-08
-3.32199e-09
3.19306e-08
-3.41932e-09
3.21615e-08
-3.33074e-09
3.23081e-08
-3.23719e-09
3.23793e-08
-3.12977e-09
3.2383e-08
-2.99932e-09
3.23314e-08
-2.84289e-09
3.22329e-08
-2.65521e-09
3.209e-08
-2.42379e-09
3.19106e-08
-2.14836e-09
3.17053e-08
-1.83162e-09
3.14848e-08
-1.47347e-09
3.12612e-08
-1.07707e-09
3.10483e-08
-6.49182e-10
3.08612e-08
-2.00046e-10
3.07159e-08
2.5713e-10
3.06285e-08
7.05631e-10
3.06136e-08
1.12696e-09
3.06818e-08
1.50167e-09
3.0837e-08
1.81105e-09
3.10732e-08
2.03981e-09
3.1372e-08
2.17812e-09
3.17014e-08
2.22437e-09
2.18557e-09
3.20184e-08
3.64131e-08
-3.96781e-10
3.63998e-08
-4.60016e-10
3.63816e-08
-5.26037e-10
3.63634e-08
-5.91137e-10
3.63516e-08
-6.52753e-10
3.63518e-08
-7.06653e-10
3.63707e-08
-7.55178e-10
3.64146e-08
-8.00646e-10
3.64862e-08
-8.41129e-10
3.65878e-08
-8.80932e-10
3.67221e-08
-9.2675e-10
3.68899e-08
-9.84113e-10
3.70914e-08
-1.05934e-09
3.73258e-08
-1.15955e-09
3.75915e-08
-1.29242e-09
3.78858e-08
-1.46609e-09
3.82051e-08
-1.68809e-09
3.85442e-08
-1.96332e-09
3.88973e-08
-2.29819e-09
3.92567e-08
-2.68949e-09
3.96128e-08
-3.14002e-09
3.99505e-08
-3.65969e-09
4.02095e-08
-3.67833e-09
4.03786e-08
-3.49989e-09
4.0466e-08
-3.32452e-09
4.04796e-08
-3.14337e-09
4.04352e-08
-2.95494e-09
4.0343e-08
-2.75067e-09
4.0202e-08
-2.51428e-09
4.00209e-08
-2.24269e-09
3.98121e-08
-1.93952e-09
3.95854e-08
-1.60488e-09
3.93522e-08
-1.24027e-09
3.91252e-08
-8.50116e-10
3.89182e-08
-4.42159e-10
3.87454e-08
-2.72842e-11
3.86204e-08
3.82132e-10
3.85556e-08
7.70433e-10
3.85598e-08
1.12278e-09
3.86367e-08
1.42477e-09
3.87833e-08
1.66445e-09
3.8989e-08
1.83405e-09
3.9236e-08
1.93117e-09
3.95007e-08
1.95965e-09
1.9289e-09
3.97574e-08
4.77248e-08
-4.00739e-10
4.77238e-08
-4.59023e-10
4.77192e-08
-5.21441e-10
4.7714e-08
-5.85953e-10
4.77118e-08
-6.50598e-10
4.7718e-08
-7.12769e-10
4.77362e-08
-7.73401e-10
4.777e-08
-8.34498e-10
4.78241e-08
-8.95173e-10
4.79016e-08
-9.58427e-10
4.80047e-08
-1.02984e-09
4.81349e-08
-1.11434e-09
4.82932e-08
-1.21768e-09
4.84799e-08
-1.3462e-09
4.8694e-08
-1.50658e-09
4.89337e-08
-1.7058e-09
4.91958e-08
-1.95009e-09
4.94749e-08
-2.24251e-09
4.97649e-08
-2.58816e-09
5.0057e-08
-2.98154e-09
5.03392e-08
-3.42227e-09
5.05945e-08
-3.91494e-09
5.07708e-08
-3.85462e-09
5.08616e-08
-3.59072e-09
5.0872e-08
-3.33497e-09
5.08241e-08
-3.09546e-09
5.07281e-08
-2.85889e-09
5.05779e-08
-2.60044e-09
5.03832e-08
-2.31962e-09
5.01595e-08
-2.01903e-09
4.99166e-08
-1.69656e-09
4.96648e-08
-1.35313e-09
4.9416e-08
-9.9144e-10
4.91827e-08
-6.16774e-10
4.89777e-08
-2.37245e-10
4.88128e-08
1.37642e-10
4.86992e-08
4.95749e-10
4.86444e-08
8.25241e-10
4.86522e-08
1.11502e-09
4.87212e-08
1.3557e-09
4.88449e-08
1.54077e-09
4.90114e-08
1.66754e-09
4.92052e-08
1.73741e-09
4.94089e-08
1.75592e-09
1.73173e-09
4.96061e-08
6.16264e-08
-4.15346e-10
6.16385e-08
-4.711e-10
6.16488e-08
-5.31798e-10
6.16594e-08
-5.96512e-10
6.16728e-08
-6.63994e-10
6.16931e-08
-7.33118e-10
6.17211e-08
-8.01381e-10
6.17606e-08
-8.7398e-10
6.18166e-08
-9.51143e-10
6.18915e-08
-1.03336e-09
6.19863e-08
-1.12465e-09
6.21021e-08
-1.23009e-09
6.22394e-08
-1.35502e-09
6.23983e-08
-1.50512e-09
6.25779e-08
-1.68614e-09
6.27761e-08
-1.90398e-09
6.29896e-08
-2.16362e-09
6.32133e-08
-2.46624e-09
6.34405e-08
-2.8153e-09
6.36615e-08
-3.20262e-09
6.38635e-08
-3.62426e-09
6.4028e-08
-4.07941e-09
6.41104e-08
-3.93703e-09
6.41103e-08
-3.59059e-09
6.40525e-08
-3.27723e-09
6.39455e-08
-2.98844e-09
6.37778e-08
-2.69121e-09
6.35619e-08
-2.38456e-09
6.33156e-08
-2.07323e-09
6.30484e-08
-1.75183e-09
6.27708e-08
-1.41903e-09
6.24938e-08
-1.07612e-09
6.22288e-08
-7.26427e-10
6.19874e-08
-3.75412e-10
6.17809e-08
-3.06669e-11
6.1618e-08
3.00532e-10
6.15065e-08
6.07246e-10
6.14499e-08
8.8181e-10
6.14481e-08
1.11683e-09
6.14968e-08
1.30702e-09
6.15878e-08
1.44971e-09
6.17102e-08
1.54516e-09
6.18512e-08
1.59643e-09
6.19981e-08
1.60903e-09
1.5901e-09
6.21397e-08
7.85382e-08
-4.43374e-10
7.85656e-08
-4.98566e-10
7.8593e-08
-5.59215e-10
7.86215e-08
-6.24988e-10
7.86528e-08
-6.95235e-10
7.86895e-08
-7.6985e-10
7.87363e-08
-8.48178e-10
7.87936e-08
-9.31266e-10
7.88632e-08
-1.02075e-09
7.89481e-08
-1.11829e-09
7.905e-08
-1.22656e-09
7.91694e-08
-1.34943e-09
7.93059e-08
-1.49161e-09
7.94588e-08
-1.65802e-09
7.96262e-08
-1.85348e-09
7.98049e-08
-2.08274e-09
7.99908e-08
-2.34951e-09
8.01779e-08
-2.65335e-09
8.03584e-08
-2.99576e-09
8.05217e-08
-3.36591e-09
8.06547e-08
-3.75731e-09
8.07339e-08
-4.15856e-09
8.0726e-08
-3.92917e-09
8.06598e-08
-3.52439e-09
8.05438e-08
-3.16123e-09
8.03616e-08
-2.80621e-09
8.01265e-08
-2.45608e-09
7.9859e-08
-2.11704e-09
7.95682e-08
-1.78251e-09
7.92649e-08
-1.44845e-09
7.89596e-08
-1.11375e-09
7.86632e-08
-7.79768e-10
7.83866e-08
-4.49825e-10
7.81399e-08
-1.28716e-10
7.79306e-08
1.78701e-10
7.77668e-08
4.64296e-10
7.76516e-08
7.22449e-10
7.75856e-08
9.47821e-10
7.75661e-08
1.13631e-09
7.75875e-08
1.28565e-09
7.76416e-08
1.39555e-09
7.7719e-08
1.46777e-09
7.78097e-08
1.50579e-09
7.79042e-08
1.51448e-09
1.49945e-09
7.79949e-08
9.89622e-08
-4.87531e-10
9.90074e-08
-5.43793e-10
9.90541e-08
-6.05902e-10
9.91031e-08
-6.73974e-10
9.91558e-08
-7.47996e-10
9.92141e-08
-8.28116e-10
9.92804e-08
-9.14438e-10
9.93566e-08
-1.00745e-09
9.94444e-08
-1.10858e-09
9.95457e-08
-1.2196e-09
9.96618e-08
-1.34268e-09
9.97931e-08
-1.48073e-09
9.9939e-08
-1.63751e-09
1.00098e-07
-1.81697e-09
1.00267e-07
-2.0228e-09
1.00443e-07
-2.2584e-09
1.00619e-07
-2.526e-09
1.0079e-07
-2.82364e-09
1.00944e-07
-3.15028e-09
1.01072e-07
-3.4934e-09
1.01157e-07
-3.84256e-09
1.01172e-07
-4.1731e-09
1.01113e-07
-3.87065e-09
1.00999e-07
-3.4103e-09
1.00819e-07
-2.98139e-09
1.00582e-07
-2.56913e-09
1.00308e-07
-2.18222e-09
1.00008e-07
-1.81652e-09
9.96908e-08
-1.46566e-09
9.93684e-08
-1.12607e-09
9.90512e-08