/*--------------------------------*- C++ -*----------------------------------*\
| =========                 |                                                 |
| \\      /  F ield         | OpenFOAM: The Open Source CFD Toolbox           |
|  \\    /   O peration     | Version:  2312                                  |
|   \\  /    A nd           | Website:  www.openfoam.com                      |
|    \\/     M anipulation  |                                                 |
\*---------------------------------------------------------------------------*/
FoamFile
{
    version     2.0;
    format      ascii;
    arch        "LSB;label=32;scalar=64";
    class       volScalarField;
    location    "174";
    object      p;
}
// * * * * * * * * * * * * * * * * * * * * * * * * * * * * * * * * * * * * * //

dimensions      [0 2 -2 0 0 0 0];

internalField   nonuniform List<scalar> 
4800
(
-8.25782e-13
-1.62202e-06
-3.02009e-06
-4.23677e-06
-5.30199e-06
-6.23874e-06
-7.06414e-06
-7.80042e-06
-8.45797e-06
-9.04658e-06
-9.57719e-06
-1.00542e-05
-1.04708e-05
-1.10648e-05
-1.28359e-05
1.58486e-08
-1.60194e-06
-2.99661e-06
-4.21078e-06
-5.27499e-06
-6.21218e-06
-7.03982e-06
-7.78046e-06
-8.44471e-06
-9.04411e-06
-9.59504e-06
-1.01161e-05
-1.06235e-05
-1.12268e-05
-1.21856e-05
3.32216e-08
-1.57995e-06
-2.97111e-06
-4.18297e-06
-5.24592e-06
-6.18363e-06
-7.01176e-06
-7.75482e-06
-8.42428e-06
-9.03157e-06
-9.59422e-06
-1.01317e-05
-1.06545e-05
-1.11705e-05
-1.16558e-05
5.18873e-08
-1.5559e-06
-2.94292e-06
-4.1518e-06
-5.21281e-06
-6.14991e-06
-6.97847e-06
-7.72107e-06
-8.39228e-06
-9.00116e-06
-9.56151e-06
-1.00839e-05
-1.05614e-05
-1.0961e-05
-1.12083e-05
7.35305e-08
-1.52773e-06
-2.90956e-06
-4.11443e-06
-5.17244e-06
-6.10728e-06
-6.93555e-06
-7.67475e-06
-8.34194e-06
-8.94418e-06
-9.4878e-06
-9.97321e-06
-1.03815e-05
-1.06722e-05
-1.0787e-05
9.97769e-08
-1.49363e-06
-2.86899e-06
-4.06852e-06
-5.12201e-06
-6.05256e-06
-6.87715e-06
-7.61014e-06
-8.26658e-06
-8.85169e-06
-9.36505e-06
-9.79958e-06
-1.01341e-05
-1.03377e-05
-1.03811e-05
1.32831e-07
-1.45127e-06
-2.81861e-06
-4.01104e-06
-5.05784e-06
-5.98129e-06
-6.7976e-06
-7.51959e-06
-8.15794e-06
-8.71544e-06
-9.18789e-06
-9.56567e-06
-9.83269e-06
-9.97349e-06
-9.98133e-06
1.76065e-07
-1.39715e-06
-2.75455e-06
-3.93755e-06
-4.9747e-06
-5.88719e-06
-6.69006e-06
-7.39442e-06
-8.00675e-06
-8.52831e-06
-8.9541e-06
-9.27668e-06
-9.48836e-06
-9.58715e-06
-9.57926e-06
2.34093e-07
-1.32646e-06
-2.67151e-06
-3.84205e-06
-4.86569e-06
-5.76239e-06
-6.54578e-06
-7.22472e-06
-7.80486e-06
-8.28539e-06
-8.66389e-06
-8.93797e-06
-9.10801e-06
-9.1809e-06
-9.16846e-06
3.12285e-07
-1.23332e-06
-2.56294e-06
-3.71715e-06
-4.72258e-06
-5.59789e-06
-6.35554e-06
-7.00335e-06
-7.54594e-06
-7.98415e-06
-8.31889e-06
-8.55366e-06
-8.69474e-06
-8.7536e-06
-8.74351e-06
4.15652e-07
-1.11167e-06
-2.42177e-06
-3.55486e-06
-4.5366e-06
-5.3846e-06
-6.11062e-06
-6.72238e-06
-7.22531e-06
-7.62426e-06
-7.92145e-06
-8.12659e-06
-8.24938e-06
-8.30281e-06
-8.2996e-06
5.47568e-07
-9.56391e-07
-2.24157e-06
-3.34778e-06
-4.29989e-06
-5.11493e-06
-5.80475e-06
-6.37805e-06
-6.84205e-06
-7.20399e-06
-7.47396e-06
-7.65891e-06
-7.77196e-06
-7.82622e-06
-7.83302e-06
7.09306e-07
-7.64213e-07
-2.01749e-06
-3.0903e-06
-4.0069e-06
-4.78429e-06
-5.43534e-06
-5.97056e-06
-6.39958e-06
-6.73233e-06
-6.97946e-06
-7.15283e-06
-7.26314e-06
-7.3228e-06
-7.3419e-06
8.99495e-07
-5.34642e-07
-1.74726e-06
-2.77927e-06
-3.65499e-06
-4.39165e-06
-5.00353e-06
-5.50322e-06
-5.90238e-06
-6.21254e-06
-6.44531e-06
-6.61244e-06
-6.72483e-06
-6.79323e-06
-6.82633e-06
1.11411e-06
-2.70015e-07
-1.43286e-06
-2.41619e-06
-3.24571e-06
-3.9397e-06
-4.51365e-06
-4.98162e-06
-5.35651e-06
-5.65048e-06
-5.8751e-06
-6.04156e-06
-6.15996e-06
-6.23969e-06
-6.28801e-06
1.3462e-06
2.5202e-08
-1.07992e-06
-2.00852e-06
-2.78721e-06
-3.4368e-06
-3.97435e-06
-4.41439e-06
-4.76997e-06
-5.05311e-06
-5.27471e-06
-5.4448e-06
-5.57226e-06
-5.66521e-06
-5.73003e-06
1.58185e-06
3.40453e-07
-6.95953e-07
-1.56627e-06
-2.29314e-06
-2.89819e-06
-3.4007e-06
-3.81549e-06
-4.15502e-06
-4.43077e-06
-4.65275e-06
-4.8295e-06
-4.96831e-06
-5.07598e-06
-5.15814e-06
1.80505e-06
6.55372e-07
-2.98331e-07
-1.1028e-06
-1.77815e-06
-2.34196e-06
-2.8128e-06
-3.20471e-06
-3.52961e-06
-3.79913e-06
-4.02291e-06
-4.20785e-06
-4.35924e-06
-4.48236e-06
-4.58223e-06
1.99988e-06
9.51584e-07
8.43179e-08
-6.44258e-07
-1.2616e-06
-1.78619e-06
-2.23053e-06
-2.60286e-06
-2.91401e-06
-3.17689e-06
-3.402e-06
-3.59481e-06
-3.75834e-06
-3.89643e-06
-4.01351e-06
2.14533e-06
1.21049e-06
4.29209e-07
-2.26887e-07
-7.86237e-07
-1.26611e-06
-1.67751e-06
-2.02874e-06
-2.32671e-06
-2.58447e-06
-2.81154e-06
-3.0113e-06
-3.18539e-06
-3.33691e-06
-3.46994e-06
2.225e-06
1.39926e-06
7.03041e-07
1.11417e-07
-3.95092e-07
-8.31821e-07
-1.20957e-06
-1.53635e-06
-1.82239e-06
-2.07589e-06
-2.30242e-06
-2.50558e-06
-2.68685e-06
-2.84846e-06
-2.99332e-06
2.24482e-06
1.51431e-06
8.90101e-07
3.54131e-07
-1.08471e-07
-5.1164e-07
-8.64743e-07
-1.1775e-06
-1.45728e-06
-1.70348e-06
-1.92279e-06
-2.1248e-06
-2.30926e-06
-2.47856e-06
-2.6333e-06
2.25039e-06
1.59369e-06
1.02639e-06
5.33779e-07
1.03454e-07
-2.75324e-07
-6.11109e-07
-9.11247e-07
-1.1806e-06
-1.42172e-06
-1.63825e-06
-1.83699e-06
-2.02301e-06
-2.19649e-06
-2.36049e-06
2.25633e-06
1.65669e-06
1.13309e-06
6.73334e-07
2.67491e-07
-9.32185e-08
-4.1607e-07
-7.07136e-07
-9.71017e-07
-1.2114e-06
-1.43184e-06
-1.63515e-06
-1.82357e-06
-1.99864e-06
-2.16194e-06
2.27005e-06
1.71458e-06
1.22443e-06
7.89551e-07
4.01801e-07
5.38826e-08
-2.60383e-07
-5.46098e-07
-8.07298e-07
-1.04714e-06
-1.26833e-06
-1.4732e-06
-1.66391e-06
-1.8423e-06
-2.01014e-06
2.29349e-06
1.77218e-06
1.30747e-06
8.9107e-07
5.16287e-07
1.77047e-07
-1.31829e-07
-4.14601e-07
-6.74733e-07
-9.15066e-07
-1.13806e-06
-1.34584e-06
-1.54032e-06
-1.72312e-06
-1.89577e-06
2.3241e-06
1.82922e-06
1.38375e-06
9.80969e-07
6.15361e-07
2.81831e-07
-2.39876e-08
-3.05733e-07
-5.66439e-07
-8.08646e-07
-1.03454e-06
-1.246e-06
-1.44472e-06
-1.63217e-06
-1.80976e-06
2.35778e-06
1.8835e-06
1.45272e-06
1.06005e-06
7.00896e-07
3.70929e-07
6.644e-08
-2.15688e-07
-4.78092e-07
-7.23003e-07
-9.52369e-07
-1.16787e-06
-1.37107e-06
-1.5633e-06
-1.7459e-06
2.39092e-06
1.93299e-06
1.51365e-06
1.12861e-06
7.73985e-07
4.46104e-07
1.41819e-07
-1.4153e-07
-4.06227e-07
-6.54239e-07
-8.87313e-07
-1.10698e-06
-1.31466e-06
-1.51161e-06
-1.69911e-06
2.42113e-06
1.97647e-06
1.56625e-06
1.18711e-06
8.35719e-07
5.08992e-07
2.0427e-07
-8.07136e-08
-3.47944e-07
-5.99162e-07
-8.35933e-07
-1.05965e-06
-1.27164e-06
-1.47307e-06
-1.66515e-06
2.44721e-06
2.01355e-06
1.61082e-06
1.23636e-06
8.87367e-07
5.61247e-07
2.55777e-07
-3.09818e-08
-3.00752e-07
-5.55073e-07
-7.95352e-07
-1.02286e-06
-1.23883e-06
-1.44436e-06
-1.64061e-06
2.46886e-06
2.0445e-06
1.64805e-06
1.27743e-06
9.3029e-07
6.04483e-07
2.98154e-07
9.65238e-09
-2.62516e-07
-5.1971e-07
-7.63197e-07
-9.94144e-07
-1.21369e-06
-1.42288e-06
-1.62284e-06
2.4863e-06
2.06994e-06
1.67885e-06
1.31147e-06
9.65824e-07
6.40184e-07
3.33005e-07
4.28881e-08
-2.3146e-07
-4.91237e-07
-7.37586e-07
-9.71578e-07
-1.19428e-06
-1.40669e-06
-1.60988e-06
2.50004e-06
2.09062e-06
1.70418e-06
1.33957e-06
9.95192e-07
6.69657e-07
3.61696e-07
7.01332e-08
-2.06148e-07
-4.68204e-07
-7.17065e-07
-9.53719e-07
-1.17917e-06
-1.39437e-06
-1.60036e-06
2.51065e-06
2.10731e-06
1.72495e-06
1.36275e-06
1.01946e-06
6.94012e-07
3.85362e-07
9.25294e-08
-1.85443e-07
-4.49485e-07
-7.0053e-07
-9.39491e-07
-1.16732e-06
-1.38492e-06
-1.5933e-06
2.51872e-06
2.12073e-06
1.74193e-06
1.38184e-06
1.03953e-06
7.14156e-07
4.0491e-07
1.10977e-07
-1.68462e-07
-4.34225e-07
-6.87156e-07
-9.28105e-07
-1.15797e-06
-1.37763e-06
-1.58806e-06
2.52474e-06
2.13145e-06
1.75577e-06
1.39755e-06
1.05608e-06
7.30795e-07
4.2104e-07
1.2616e-07
-1.54541e-07
-4.21784e-07
-6.76336e-07
-9.18987e-07
-1.1506e-06
-1.372e-06
-1.58418e-06
2.52918e-06
2.14004e-06
1.76711e-06
1.41052e-06
1.06982e-06
7.44609e-07
4.3442e-07
1.38723e-07
-1.43068e-07
-4.11588e-07
-6.67537e-07
-9.11652e-07
-1.14475e-06
-1.36765e-06
-1.58131e-06
2.5325e-06
2.14723e-06
1.77686e-06
1.4218e-06
1.08181e-06
7.56691e-07
4.46114e-07
1.49675e-07
-1.3311e-07
-4.02793e-07
-6.60012e-07
-9.05455e-07
-1.1399e-06
-1.36414e-06
-1.57914e-06
2.53507e-06
2.15356e-06
1.78567e-06
1.4321e-06
1.09282e-06
7.67802e-07
4.56862e-07
1.5972e-07
-1.24009e-07
-3.94802e-07
-6.53229e-07
-8.99934e-07
-1.13567e-06
-1.36123e-06
-1.57749e-06
-1.43605e-05
-1.20201e-05
-1.05765e-05
-9.61145e-06
-8.8318e-06
-8.22019e-06
-7.7263e-06
-7.3146e-06
-6.9617e-06
-6.6499e-06
-6.36591e-06
-6.09992e-06
-5.84544e-06
-5.59992e-06
-5.36581e-06
-5.1546e-06
-4.98694e-06
-4.90328e-06
-4.96229e-06
-5.24372e-06
-5.85865e-06
-6.90014e-06
-8.27806e-06
-9.67826e-06
-1.08642e-05
-1.1724e-05
-1.2199e-05
-1.22627e-05
-1.1904e-05
-1.11211e-05
-9.92137e-06
-8.32322e-06
-6.35859e-06
-4.07335e-06
-1.52583e-06
1.21604e-06
4.07775e-06
6.98032e-06
9.83962e-06
1.25622e-05
1.50305e-05
1.70951e-05
1.84385e-05
1.88157e-05
1.72317e-05
-1.26405e-05
-1.14456e-05
-1.03594e-05
-9.50275e-06
-8.77147e-06
-8.17578e-06
-7.68692e-06
-7.27653e-06
-6.92375e-06
-6.61179e-06
-6.32769e-06
-6.06177e-06
-5.80769e-06
-5.56304e-06
-5.33051e-06
-5.12173e-06
-4.9574e-06
-4.87796e-06
-4.94151e-06
-5.22632e-06
-5.84233e-06
-6.88026e-06
-8.24927e-06
-9.63965e-06
-1.08176e-05
-1.16719e-05
-1.21437e-05
-1.22059e-05
-1.18474e-05
-1.1067e-05
-9.87298e-06
-8.28561e-06
-6.33879e-06
-4.08068e-06
-1.57245e-06
1.11419e-06
3.89923e-06
6.6951e-06
9.40358e-06
1.19065e-05
1.40396e-05
1.55542e-05
1.59743e-05
1.4597e-05
1.04414e-05
-1.17347e-05
-1.09938e-05
-1.01317e-05
-9.37213e-06
-8.69465e-06
-8.12132e-06
-7.64109e-06
-7.23364e-06
-6.88153e-06
-6.56956e-06
-6.28536e-06
-6.01952e-06
-5.7659e-06
-5.5223e-06
-5.29165e-06
-5.08584e-06
-4.92555e-06
-4.85131e-06
-4.92036e-06
-5.2093e-06
-5.82664e-06
-6.86026e-06
-8.21833e-06
-9.59641e-06
-1.0764e-05
-1.16109e-05
-1.20782e-05
-1.21384e-05
-1.17804e-05
-1.10039e-05
-9.81881e-06
-8.24753e-06
-6.32657e-06
-4.10722e-06
-1.65443e-06
9.5504e-07
3.63405e-06
6.2845e-06
8.79234e-06
1.10157e-05
1.27583e-05
1.37304e-05
1.3485e-05
1.14914e-05
7.55508e-06
-1.11416e-05
-1.06136e-05
-9.92286e-06
-9.2418e-06
-8.61681e-06
-8.06743e-06
-7.59659e-06
-7.19193e-06
-6.83988e-06
-6.52714e-06
-6.24214e-06
-5.97585e-06
-5.72237e-06
-5.47971e-06
-5.25106e-06
-5.04851e-06
-4.8928e-06
-4.82432e-06
-4.89959e-06
-5.19313e-06
-5.81204e-06
-6.84087e-06
-8.18643e-06
-9.55006e-06
-1.07049e-05
-1.15417e-05
-1.20019e-05
-1.20578e-05
-1.16986e-05
-1.09253e-05
-9.75012e-06
-8.19824e-06
-6.30973e-06
-4.13993e-06
-1.75865e-06
7.51294e-07
3.29479e-06
5.76311e-06
8.02868e-06
9.93489e-06
1.12779e-05
1.1797e-05
1.11656e-05
9.11049e-06
5.79757e-06
-1.06675e-05
-1.02676e-05
-9.71139e-06
-9.11571e-06
-8.54131e-06
-8.01641e-06
-7.55554e-06
-7.15299e-06
-6.79994e-06
-6.48531e-06
-6.19852e-06
-5.93108e-06
-5.67739e-06
-5.43568e-06
-5.20936e-06
-5.01073e-06
-4.86047e-06
-4.79878e-06
-4.8812e-06
-5.17992e-06
-5.80036e-06
-6.82327e-06
-8.15383e-06
-9.50018e-06
-1.06394e-05
-1.14638e-05
-1.1915e-05
-1.19654e-05
-1.16051e-05
-1.08368e-05
-9.67537e-06
-8.14961e-06
-6.3037e-06
-4.1977e-06
-1.90675e-06
4.80074e-07
2.86031e-06
5.11706e-06
7.11563e-06
8.69872e-06
9.68215e-06
9.86438e-06
9.05782e-06
7.18295e-06
4.44711e-06
-1.02543e-05
-9.9421e-06
-9.49002e-06
-8.98011e-06
-8.46054e-06
-7.96503e-06
-7.51733e-06
-7.11732e-06
-6.7629e-06
-6.4455e-06
-6.15596e-06
-5.88661e-06
-5.63232e-06
-5.39158e-06
-5.16803e-06
-4.97416e-06
-4.83044e-06
-4.77677e-06
-4.86751e-06
-5.17199e-06
-5.79372e-06
-6.80903e-06
-8.12123e-06
-9.44665e-06
-1.05669e-05
-1.13759e-05
-1.18161e-05
-1.18604e-05
-1.15e-05
-1.07397e-05
-9.59783e-06
-8.10718e-06
-6.31659e-06
-4.29107e-06
-2.11106e-06
1.28903e-07
2.32112e-06
4.34514e-06
6.06779e-06
7.34496e-06
8.0286e-06
7.98646e-06
7.13907e-06
5.51801e-06
3.33175e-06
-9.86525e-06
-9.61891e-06
-9.25671e-06
-8.82327e-06
-8.35948e-06
-7.90549e-06
-7.47524e-06
-7.08204e-06
-6.72816e-06
-6.40841e-06
-6.11588e-06
-5.84424e-06
-5.58916e-06
-5.34956e-06
-5.12937e-06
-4.94123e-06
-4.80532e-06
-4.76103e-06
-4.86134e-06
-5.17203e-06
-5.79458e-06
-6.80009e-06
-8.08971e-06
-9.38972e-06
-1.04868e-05
-1.12768e-05
-1.17037e-05
-1.17412e-05
-1.1382e-05
-1.06338e-05
-9.51863e-06
-8.07387e-06
-6.35315e-06
-4.42634e-06
-2.37836e-06
-3.07414e-07
1.67712e-06
3.45718e-06
4.90982e-06
5.91425e-06
6.36439e-06
6.18915e-06
5.37878e-06
4.01154e-06
2.267e-06
-9.47916e-06
-9.28386e-06
-8.99549e-06
-8.63557e-06
-8.23414e-06
-7.82255e-06
-7.41965e-06
-7.04067e-06
-6.69188e-06
-6.37234e-06
-6.07817e-06
-5.80499e-06
-5.54968e-06
-5.31194e-06
-5.09609e-06
-4.91501e-06
-4.78844e-06
-4.75507e-06
-4.86628e-06
-5.18357e-06
-5.80599e-06
-6.79876e-06
-8.06051e-06
-9.32973e-06
-1.03986e-05
-1.11654e-05
-1.15763e-05
-1.16063e-05
-1.12503e-05
-1.05194e-05
-9.4398e-06
-8.05351e-06
-6.41889e-06
-4.60987e-06
-2.71427e-06
-8.3108e-07
9.33061e-07
2.46857e-06
3.66949e-06
4.44295e-06
4.72189e-06
4.47992e-06
3.74468e-06
2.60416e-06
1.20037e-06
-9.08545e-06
-8.93084e-06
-8.70254e-06
-8.40948e-06
-8.07016e-06
-7.70722e-06
-7.34e-06
-6.98355e-06
-6.64677e-06
-6.33259e-06
-6.04042e-06
-5.76824e-06
-5.51468e-06
-5.28057e-06
-5.07085e-06
-4.89878e-06
-4.78354e-06
-4.76289e-06
-4.88644e-06
-5.21051e-06
-5.83139e-06
-6.80756e-06
-8.03484e-06
-9.26685e-06
-1.03015e-05
-1.10402e-05
-1.14322e-05
-1.14546e-05
-1.11049e-05
-1.0398e-05
-9.36457e-06
-8.05116e-06
-6.52005e-06
-4.84782e-06
-3.12274e-06
-1.44107e-06
9.788e-08
1.39789e-06
2.37353e-06
2.95927e-06
3.11905e-06
2.85425e-06
2.20769e-06
1.26029e-06
1.203e-07
-8.67776e-06
-8.5568e-06
-8.37766e-06
-8.14287e-06
-7.86233e-06
-7.55137e-06
-7.22607e-06
-6.90018e-06
-6.58367e-06
-6.28213e-06
-5.99789e-06
-5.73143e-06
-5.48344e-06
-5.25624e-06
-5.05562e-06
-4.89544e-06
-4.79416e-06
-4.78845e-06
-4.92591e-06
-5.25674e-06
-5.87414e-06
-6.82864e-06
-8.01332e-06
-9.20089e-06
-1.01945e-05
-1.08998e-05
-1.127e-05
-1.12853e-05
-1.09464e-05
-1.0272e-05
-9.2972e-06
-8.07249e-06
-6.66273e-06
-5.14495e-06
-3.60493e-06
-2.13249e-06
-8.15847e-07
2.64997e-07
1.04536e-06
1.48282e-06
1.5629e-06
1.3015e-06
7.4354e-07
-4.30728e-08
-9.77138e-07
-8.25127e-06
-8.15935e-06
-8.0213e-06
-7.83671e-06
-7.61008e-06
-7.35094e-06
-7.07115e-06
-6.7823e-06
-6.49404e-06
-6.21327e-06
-5.94447e-06
-5.69033e-06
-5.4536e-06
-5.23827e-06
-5.05113e-06
-4.90678e-06
-4.82291e-06
-4.83476e-06
-4.98776e-06
-5.32517e-06
-5.93667e-06
-6.863e-06
-7.99534e-06
-9.13114e-06
-1.00761e-05
-1.0742e-05
-1.10884e-05
-1.10984e-05
-1.07762e-05
-1.01447e-05
-9.24276e-06
-8.12337e-06
-6.85207e-06
-5.50374e-06
-4.15853e-06
-2.89671e-06
-1.79302e-06
-9.10679e-07
-2.96004e-07
2.59843e-08
5.38125e-08
-1.90813e-07
-6.67308e-07
-1.32159e-06
-2.09317e-06
-7.80237e-06
-7.73662e-06
-7.63397e-06
-7.49295e-06
-7.31502e-06
-7.10554e-06
-6.8726e-06
-6.62518e-06
-6.37179e-06
-6.11955e-06
-5.87416e-06
-5.63996e-06
-5.42153e-06
-5.22442e-06
-5.05643e-06
-4.93284e-06
-4.87051e-06
-4.90302e-06
-5.07298e-06
-5.41658e-06
-6.01954e-06
-6.90834e-06
-7.97894e-06
-9.05762e-06
-9.94463e-06
-1.05655e-05
-1.08866e-05
-1.08946e-05
-1.05972e-05
-1.00208e-05
-9.20672e-06
-8.20896e-06
-7.09119e-06
-5.92339e-06
-4.77732e-06
-3.72167e-06
-2.81696e-06
-2.11104e-06
-1.6355e-06
-1.40361e-06
-1.4103e-06
-1.63372e-06
-2.03921e-06
-2.58543e-06
-3.22762e-06
-7.32924e-06
-7.28786e-06
-7.21672e-06
-7.11416e-06
-6.98012e-06
-6.81732e-06
-6.63091e-06
-6.42743e-06
-6.21386e-06
-5.99675e-06
-5.78228e-06
-5.5758e-06
-5.38322e-06
-5.21137e-06
-5.06892e-06
-4.97158e-06
-4.93529e-06
-4.99167e-06
-5.17946e-06
-5.52881e-06
-6.11943e-06
-6.96067e-06
-7.96368e-06
-8.96871e-06
-9.796e-06
-1.03689e-05
-1.06651e-05
-1.06763e-05
-1.04135e-05
-9.90531e-06
-9.19419e-06
-8.33261e-06
-7.37997e-06
-6.39882e-06
-5.45073e-06
-4.59197e-06
-3.86969e-06
-3.31883e-06
-2.96025e-06
-2.8003e-06
-2.83166e-06
-3.03563e-06
-3.38063e-06
-3.8394e-06
-4.3784e-06
-6.83201e-06
-6.81388e-06
-6.77159e-06
-6.70367e-06
-6.60948e-06
-6.49023e-06
-6.34903e-06
-6.19045e-06
-6.01991e-06
-5.84308e-06
-5.66598e-06
-5.49434e-06
-5.3349e-06
-5.19524e-06
-5.08474e-06
-5.01892e-06
-5.01295e-06
-5.09608e-06
-5.3014e-06
-5.65655e-06
-6.22789e-06
-7.0177e-06
-7.95161e-06
-8.86161e-06
-9.61858e-06
-1.01491e-05
-1.04251e-05
-1.04471e-05
-1.023e-05
-9.80347e-06
-9.20873e-06
-8.49457e-06
-7.71383e-06
-6.91997e-06
-6.16358e-06
-5.48903e-06
-4.93186e-06
-4.51694e-06
-4.25777e-06
-4.15664e-06
-4.20603e-06
-4.3906e-06
-4.69248e-06
-5.08339e-06
-5.54071e-06
-6.3124e-06
-6.31691e-06
-6.30171e-06
-6.26571e-06
-6.20816e-06
-6.12953e-06
-6.0317e-06
-5.9178e-06
-5.79197e-06
-5.6589e-06
-5.52408e-06
-5.39315e-06
-5.27309e-06
-5.1718e-06
-5.09885e-06
-5.06906e-06
-5.09669e-06
-5.20791e-06
-5.43071e-06
-5.78895e-06
-6.33462e-06
-7.07864e-06
-7.92312e-06
-8.73221e-06
-9.41475e-06
-9.90558e-06
-1.01693e-05
-1.02118e-05
-1.00521e-05
-9.71921e-06
-9.25111e-06
-8.69081e-06
-8.08311e-06
-7.4717e-06
-6.8965e-06
-6.39137e-06
-5.98245e-06
-5.68731e-06
-5.51486e-06
-5.46593e-06
-5.53439e-06
-5.70876e-06
-5.974e-06
-6.31308e-06
-6.70738e-06
-5.77372e-06
-5.80071e-06
-5.81155e-06
-5.80555e-06
-5.78216e-06
-5.74158e-06
-5.68505e-06
-5.6148e-06
-5.53397e-06
-5.44641e-06
-5.3569e-06
-5.27074e-06
-5.19455e-06
-5.13615e-06
-5.10486e-06
-5.11419e-06
-5.17735e-06
-5.31614e-06
-5.55521e-06
-5.91207e-06
-6.42743e-06
-7.11785e-06
-7.86521e-06
-8.57564e-06
-9.19175e-06
-9.64458e-06
-9.90356e-06
-9.97669e-06
-9.88464e-06
-9.65431e-06
-9.31834e-06
-8.91263e-06
-8.47337e-06
-8.03474e-06
-7.62712e-06
-7.27565e-06
-6.99931e-06
-6.8106e-06
-6.71573e-06
-6.71517e-06
-6.80451e-06
-6.97556e-06
-7.21765e-06
-7.51873e-06
-7.86608e-06
-5.22163e-06
-5.27108e-06
-5.30728e-06
-5.32985e-06
-5.33856e-06
-5.33371e-06
-5.31624e-06
-5.28787e-06
-5.25106e-06
-5.20899e-06
-5.16575e-06
-5.12613e-06
-5.09588e-06
-5.08254e-06
-5.09461e-06
-5.14393e-06
-5.24253e-06
-5.40756e-06
-5.6591e-06
-6.01063e-06
-6.49191e-06
-7.11045e-06
-7.77265e-06
-8.39942e-06
-8.94907e-06
-9.36813e-06
-9.63141e-06
-9.74551e-06
-9.72938e-06
-9.60625e-06
-9.40263e-06
-9.14676e-06
-8.86647e-06
-8.58746e-06
-8.33211e-06
-8.11869e-06
-7.96091e-06
-7.86786e-06
-7.84419e-06
-7.89058e-06
-8.0043e-06
-8.18002e-06
-8.41058e-06
-8.6878e-06
-9.00292e-06
-4.66556e-06
-4.73709e-06
-4.79774e-06
-4.8474e-06
-4.88618e-06
-4.91453e-06
-4.93339e-06
-4.94419e-06
-4.94895e-06
-4.95033e-06
-4.95175e-06
-4.95742e-06
-4.97274e-06
-5.00391e-06
-5.05826e-06
-5.14544e-06
-5.27607e-06
-5.4634e-06
-5.72263e-06
-6.06434e-06
-6.50737e-06
-7.0528e-06
-7.64074e-06
-8.19547e-06
-8.68439e-06
-9.07664e-06
-9.35342e-06
-9.51712e-06
-9.58193e-06
-9.56628e-06
-9.4904e-06
-9.37528e-06
-9.24133e-06
-9.10715e-06
-8.98876e-06
-8.89917e-06
-8.84828e-06
-8.84282e-06
-8.88655e-06
-8.9805e-06
-9.12339e-06
-9.31211e-06
-9.54224e-06
-9.8085e-06
-1.01051e-05
-4.11613e-06
-4.20884e-06
-4.29255e-06
-4.36737e-06
-4.43373e-06
-4.4923e-06
-4.54408e-06
-4.59038e-06
-4.63295e-06
-4.67404e-06
-4.71654e-06
-4.76402e-06
-4.82083e-06
-4.89222e-06
-4.98428e-06
-5.10454e-06
-5.26146e-06
-5.46447e-06
-5.72548e-06
-6.05364e-06
-6.46099e-06
-6.9414e-06
-7.46153e-06
-7.95373e-06
-8.39482e-06
-8.77047e-06
-9.06759e-06
-9.28477e-06
-9.43046e-06
-9.51754e-06
-9.56037e-06
-9.57363e-06
-9.57156e-06
-9.56709e-06
-9.57136e-06
-9.59349e-06
-9.64055e-06
-9.71756e-06
-9.82765e-06
-9.97212e-06
-1.01507e-05
-1.0362e-05
-1.06033e-05
-1.08717e-05
-1.11634e-05
-3.5905e-06
-3.70259e-06
-3.80698e-06
-3.90402e-06
-3.99446e-06
-4.07922e-06
-4.15936e-06
-4.23611e-06
-4.31103e-06
-4.38603e-06
-4.46348e-06
-4.54631e-06
-4.63799e-06
-4.74266e-06
-4.86516e-06
-5.01111e-06
-5.1871e-06
-5.39997e-06
-5.6573e-06
-5.96637e-06
-6.33317e-06
-6.76401e-06
-7.22742e-06
-7.67259e-06
-8.08249e-06
-8.45052e-06
-8.76964e-06
-9.03752e-06
-9.25781e-06
-9.43782e-06
-9.58642e-06
-9.71303e-06
-9.82703e-06
-9.93709e-06
-1.00507e-05
-1.01741e-05
-1.0312e-05
-1.04683e-05
-1.06454e-05
-1.08447e-05
-1.10665e-05
-1.13103e-05
-1.15751e-05
-1.18591e-05
-1.21602e-05
-3.12703e-06
-3.25375e-06
-3.37424e-06
-3.48871e-06
-3.59791e-06
-3.70286e-06
-3.80467e-06
-3.90452e-06
-4.00375e-06
-4.10401e-06
-4.20727e-06
-4.31588e-06
-4.43264e-06
-4.56074e-06
-4.70394e-06
-4.86648e-06
-5.0531e-06
-5.26952e-06
-5.52209e-06
-5.81598e-06
-6.15587e-06
-6.54908e-06
-6.97117e-06
-7.38459e-06
-7.77728e-06
-8.14668e-06
-8.48863e-06
-8.80042e-06
-9.0825e-06
-9.33809e-06
-9.57212e-06
-9.79032e-06
-9.99851e-06
-1.02021e-05
-1.04059e-05
-1.06138e-05
-1.08293e-05
-1.10551e-05
-1.1293e-05
-1.15444e-05
-1.181e-05
-1.20899e-05
-1.23838e-05
-1.26908e-05
-1.30098e-05
-2.77633e-06
-2.91202e-06
-3.04234e-06
-3.16789e-06
-3.28917e-06
-3.40705e-06
-3.52262e-06
-3.63701e-06
-3.75145e-06
-3.86739e-06
-3.98649e-06
-4.11074e-06
-4.2424e-06
-4.38411e-06
-4.53887e-06
-4.71005e-06
-4.90182e-06
-5.11803e-06
-5.36291e-06
-5.6435e-06
-5.96481e-06
-6.34061e-06
-6.73955e-06
-7.13564e-06
-7.52079e-06
-7.8938e-06
-8.25224e-06
-8.59361e-06
-8.91692e-06
-9.22326e-06
-9.51534e-06
-9.79664e-06
-1.00707e-05
-1.03409e-05
-1.06103e-05
-1.08814e-05
-1.11567e-05
-1.14379e-05
-1.17265e-05
-1.20236e-05
-1.23298e-05
-1.26455e-05
-1.29705e-05
-1.33044e-05
-1.36468e-05
-2.51367e-06
-2.65691e-06
-2.79399e-06
-2.92712e-06
-3.0568e-06
-3.18365e-06
-3.30866e-06
-3.43291e-06
-3.55757e-06
-3.68395e-06
-3.81356e-06
-3.94815e-06
-4.08969e-06
-4.24048e-06
-4.40308e-06
-4.58041e-06
-4.7759e-06
-4.9933e-06
-5.23741e-06
-5.51375e-06
-5.82633e-06
-6.18125e-06
-6.56224e-06
-6.94671e-06
-7.32713e-06
-7.70221e-06
-8.06999e-06
-8.42838e-06
-8.77635e-06
-9.1143e-06
-9.44377e-06
-9.76675e-06
-1.00853e-05
-1.04016e-05
-1.07173e-05
-1.10343e-05
-1.13539e-05
-1.16774e-05
-1.20059e-05
-1.234e-05
-1.26803e-05
-1.3027e-05
-1.33801e-05
-1.37394e-05
-1.41044e-05
-2.31712e-06
-2.46613e-06
-2.6099e-06
-2.74944e-06
-2.88561e-06
-3.01926e-06
-3.15135e-06
-3.28291e-06
-3.41507e-06
-3.54908e-06
-3.68636e-06
-3.82851e-06
-3.97735e-06
-4.1349e-06
-4.3035e-06
-4.48576e-06
-4.6848e-06
-4.90401e-06
-5.1473e-06
-5.41897e-06
-5.72278e-06
-6.06519e-06
-6.43425e-06
-6.81019e-06
-7.18613e-06
-7.56078e-06
-7.93252e-06
-8.29996e-06
-8.66242e-06
-9.02005e-06
-9.37359e-06
-9.72408e-06
-1.00727e-05
-1.04206e-05
-1.07688e-05
-1.11185e-05
-1.14704e-05
-1.18255e-05
-1.21843e-05
-1.25472e-05
-1.29147e-05
-1.32868e-05
-1.36634e-05
-1.40443e-05
-1.44293e-05
-2.1702e-06
-2.32445e-06
-2.47364e-06
-2.61864e-06
-2.7604e-06
-2.89984e-06
-3.03791e-06
-3.17561e-06
-3.31404e-06
-3.45441e-06
-3.59807e-06
-3.74653e-06
-3.90146e-06
-4.06474e-06
-4.2385e-06
-4.42511e-06
-4.62722e-06
-4.8478e-06
-5.09031e-06
-5.35886e-06
-5.65742e-06
-5.99091e-06
-6.35034e-06
-6.71839e-06
-7.08891e-06
-7.4608e-06
-7.83291e-06
-8.20437e-06
-8.57474e-06
-8.94397e-06
-9.31234e-06
-9.68035e-06
-1.00486e-05
-1.04176e-05
-1.07881e-05
-1.11606e-05
-1.15356e-05
-1.19136e-05
-1.2295e-05
-1.26799e-05
-1.30684e-05
-1.34606e-05
-1.38562e-05
-1.42551e-05
-1.46568e-05
-2.06067e-06
-2.2198e-06
-2.37405e-06
-2.52425e-06
-2.67133e-06
-2.8162e-06
-2.95979e-06
-3.10311e-06
-3.24721e-06
-3.3933e-06
-3.54266e-06
-3.69673e-06
-3.85707e-06
-4.02543e-06
-4.20373e-06
-4.39413e-06
-4.59906e-06
-4.82119e-06
-5.06361e-06
-5.33003e-06
-5.62406e-06
-5.95022e-06
-6.30086e-06
-6.6609e-06
-7.0251e-06
-7.39267e-06
-7.7628e-06
-8.1349e-06
-8.50865e-06
-8.88391e-06
-9.26073e-06
-9.63927e-06
-1.00198e-05
-1.04026e-05
-1.07879e-05
-1.11761e-05
-1.15674e-05
-1.19619e-05
-1.23598e-05
-1.27611e-05
-1.31657e-05
-1.35735e-05
-1.39842e-05
-1.43975e-05
-1.4813e-05
-1.97969e-06
-2.14385e-06
-2.30316e-06
-2.45846e-06
-2.61068e-06
-2.76072e-06
-2.9095e-06
-3.05803e-06
-3.20737e-06
-3.35867e-06
-3.51321e-06
-3.67232e-06
-3.8375e-06
-4.01037e-06
-4.1927e-06
-4.38649e-06
-4.59404e-06
-4.81767e-06
-5.06024e-06
-5.32445e-06
-5.61433e-06
-5.93369e-06
-6.2758e-06
-6.62774e-06
-6.98519e-06
-7.3475e-06
-7.71409e-06
-8.08456e-06
-8.45865e-06
-8.83622e-06
-9.2172e-06
-9.60158e-06
-9.98944e-06
-1.03809e-05
-1.07759e-05
-1.11747e-05
-1.15772e-05
-1.19834e-05
-1.23933e-05
-1.28067e-05
-1.32235e-05
-1.36433e-05
-1.40658e-05
-1.44906e-05
-1.49173e-05
-1.92091e-06
-2.09005e-06
-2.25428e-06
-2.41449e-06
-2.57159e-06
-2.72647e-06
-2.88009e-06
-3.03342e-06
-3.18753e-06
-3.34356e-06
-3.50272e-06
-3.66633e-06
-3.83578e-06
-4.01261e-06
-4.19849e-06
-4.39522e-06
-4.60485e-06
-4.82951e-06
-5.07176e-06
-5.33408e-06
-5.62001e-06
-5.9328e-06
-6.26663e-06
-6.61064e-06
-6.96116e-06
-7.31769e-06
-7.67978e-06
-8.04718e-06
-8.41972e-06
-8.79724e-06
-9.17963e-06
-9.56681e-06
-9.95871e-06
-1.03553e-05
-1.07565e-05
-1.11622e-05
-1.15724e-05
-1.19869e-05
-1.24055e-05
-1.2828e-05
-1.32539e-05
-1.3683e-05
-1.41149e-05
-1.45489e-05
-1.49847e-05
-1.879e-06
-2.05289e-06
-2.22178e-06
-2.38658e-06
-2.54819e-06
-2.70752e-06
-2.86551e-06
-3.02316e-06
-3.18153e-06
-3.34174e-06
-3.50497e-06
-3.67248e-06
-3.84562e-06
-4.02581e-06
-4.21465e-06
-4.41376e-06
-4.62494e-06
-4.8504e-06
-5.09207e-06
-5.35231e-06
-5.6343e-06
-5.94075e-06
-6.26668e-06
-6.60302e-06
-6.94669e-06
-7.29724e-06
-7.65437e-06
-8.01796e-06
-8.38788e-06
-8.76398e-06
-9.14612e-06
-9.53419e-06
-9.92804e-06
-1.03275e-05
-1.07326e-05
-1.11429e-05
-1.15584e-05
-1.19788e-05
-1.24038e-05
-1.2833e-05
-1.3266e-05
-1.37025e-05
-1.41418e-05
-1.45834e-05
-1.50267e-05
-1.84958e-06
-2.02787e-06
-2.20103e-06
-2.36999e-06
-2.53566e-06
-2.69894e-06
-2.8608e-06
-3.02223e-06
-3.18431e-06
-3.34812e-06
-3.51483e-06
-3.68565e-06
-3.86188e-06
-4.04486e-06
-4.23606e-06
-4.43698e-06
-4.64938e-06
-4.87526e-06
-5.11623e-06
-5.3741e-06
-5.65223e-06
-5.95264e-06
-6.27111e-06
-6.60021e-06
-6.93728e-06
-7.28195e-06
-7.63408e-06
-7.99359e-06
-8.3604e-06
-8.73437e-06
-9.11535e-06
-9.5032e-06
-9.89774e-06
-1.02988e-05
-1.07062e-05
-1.11196e-05
-1.15388e-05
-1.19635e-05
-1.23933e-05
-1.28278e-05
-1.32664e-05
-1.37088e-05
-1.41543e-05
-1.46023e-05
-1.5052e-05
-1.82915e-06
-2.01138e-06
-2.18835e-06
-2.36098e-06
-2.53019e-06
-2.69691e-06
-2.86211e-06
-3.02679e-06
-3.19201e-06
-3.35887e-06
-3.5285e-06
-3.70207e-06
-3.88083e-06
-4.06607e-06
-4.25913e-06
-4.46139e-06
-4.67465e-06
-4.90098e-06
-5.14071e-06
-5.39612e-06
-5.67057e-06
-5.96531e-06
-6.27686e-06
-6.59921e-06
-6.9301e-06
-7.26922e-06
-7.61653e-06
-7.97201e-06
-8.33559e-06
-8.70715e-06
-9.08654e-06
-9.47361e-06
-9.86815e-06
-1.027e-05
-1.06788e-05
-1.10943e-05
-1.15163e-05
-1.19442e-05
-1.23778e-05
-1.28165e-05
-1.32598e-05
-1.37071e-05
-1.41579e-05
-1.46113e-05
-1.50668e-05
-1.815e-06
-2.00071e-06
-2.18099e-06
-2.3568e-06
-2.52905e-06
-2.6987e-06
-2.86672e-06
-3.03414e-06
-3.202e-06
-3.37139e-06
-3.54343e-06
-3.71926e-06
-3.90009e-06
-4.08712e-06
-4.28164e-06
-4.48482e-06
-4.69903e-06
-4.92532e-06
-5.16331e-06
-5.4165e-06
-5.68751e-06
-5.97698e-06
-6.2822e-06
-6.59837e-06
-6.92356e-06
-7.25756e-06
-7.6004e-06
-7.95208e-06
-8.31253e-06
-8.68167e-06
-9.05934e-06
-9.44538e-06
-9.83958e-06
-1.02417e-05
-1.06515e-05
-1.10686e-05
-1.14926e-05
-1.19232e-05
-1.23599e-05
-1.28021e-05
-1.32493e-05
-1.3701e-05
-1.41563e-05
-1.46146e-05
-1.50751e-05
-1.8052e-06
-1.9939e-06
-2.17704e-06
-2.35555e-06
-2.53038e-06
-2.70248e-06
-2.87287e-06
-3.04256e-06
-3.21261e-06
-3.38409e-06
-3.55811e-06
-3.73578e-06
-3.91827e-06
-4.10674e-06
-4.30238e-06
-4.50642e-06
-4.72136e-06
-4.94668e-06
-5.18326e-06
-5.43455e-06
-5.70226e-06
-5.98688e-06
-6.28634e-06
-6.59691e-06
-6.91693e-06
-7.24628e-06
-7.58504e-06
-7.93322e-06
-8.29077e-06
-8.65761e-06
-9.0336e-06
-9.41856e-06
-9.81228e-06
-1.02145e-05
-1.06249e-05
-1.10432e-05
-1.1469e-05
-1.19018e-05
-1.23411e-05
-1.27864e-05
-1.32371e-05
-1.36925e-05
-1.41519e-05
-1.46145e-05
-1.50796e-05
-1.79839e-06
-1.98966e-06
-2.17521e-06
-2.356e-06
-2.53299e-06
-2.70715e-06
-2.8795e-06
-3.05107e-06
-3.22292e-06
-3.39611e-06
-3.57174e-06
-3.7509e-06
-3.93473e-06
-4.12434e-06
-4.3209e-06
-4.52581e-06
-4.74052e-06
-4.96499e-06
-5.20063e-06
-5.45001e-06
-5.7146e-06
-5.99478e-06
-6.28904e-06
-6.59456e-06
-6.90993e-06
-7.23511e-06
-7.5702e-06
-7.91522e-06
-8.27014e-06
-8.63488e-06
-9.0093e-06
-9.39323e-06
-9.78646e-06
-1.01887e-05
-1.05997e-05
-1.10189e-05
-1.14462e-05
-1.18809e-05
-1.23225e-05
-1.27705e-05
-1.32243e-05
-1.36831e-05
-1.41462e-05
-1.46127e-05
-1.5082e-05
-1.79366e-06
-1.9871e-06
-2.17469e-06
-2.3574e-06
-2.53618e-06
-2.71205e-06
-2.88602e-06
-3.05914e-06
-3.23246e-06
-3.40706e-06
-3.58399e-06
-3.76437e-06
-3.94927e-06
-4.13978e-06
-4.33706e-06
-4.54254e-06
-4.75684e-06
-4.98068e-06
-5.21541e-06
-5.46296e-06
-5.72464e-06
-6.0008e-06
-6.29038e-06
-6.59136e-06
-6.90258e-06
-7.22403e-06
-7.55584e-06
-7.89804e-06
-8.2506e-06
-8.61345e-06
-8.98647e-06
-9.36946e-06
-9.76222e-06
-1.01645e-05
-1.05759e-05
-1.0996e-05
-1.14246e-05
-1.1861e-05
-1.23047e-05
-1.27551e-05
-1.32116e-05
-1.36735e-05
-1.41399e-05
-1.46101e-05
-1.50831e-05
-1.79039e-06
-1.98568e-06
-2.17499e-06
-2.35929e-06
-2.53957e-06
-2.71684e-06
-2.89215e-06
-3.06654e-06
-3.24107e-06
-3.4168e-06
-3.59481e-06
-3.77616e-06
-3.96191e-06
-4.15314e-06
-4.35096e-06
-4.55668e-06
-4.77079e-06
-4.994e-06
-5.22778e-06
-5.47364e-06
-5.73268e-06
-6.00518e-06
-6.29056e-06
-6.58749e-06
-6.895e-06
-7.21314e-06
-7.54204e-06
-7.88174e-06
-8.23221e-06
-8.59339e-06
-8.96515e-06
-9.34732e-06
-9.73967e-06
-1.01419e-05
-1.05537e-05
-1.09747e-05
-1.14044e-05
-1.18423e-05
-1.22879e-05
-1.27405e-05
-1.31996e-05
-1.36642e-05
-1.41336e-05
-1.46071e-05
-1.50835e-05
-1.78818e-06
-1.98503e-06
-2.17577e-06
-2.36139e-06
-2.54291e-06
-2.72135e-06
-2.89775e-06
-3.07318e-06
-3.24869e-06
-3.42535e-06
-3.60422e-06
-3.78635e-06
-3.97279e-06
-4.16458e-06
-4.36279e-06
-4.56862e-06
-4.78255e-06
-5.00521e-06
-5.23802e-06
-5.48231e-06
-5.73901e-06
-6.00824e-06
-6.28986e-06
-6.58318e-06
-6.88742e-06
-7.20263e-06
-7.52896e-06
-7.86645e-06
-8.21508e-06
-8.57479e-06
-8.94546e-06
-9.32691e-06
-9.71891e-06
-1.01212e-05
-1.05333e-05
-1.0955e-05
-1.13858e-05
-1.18251e-05
-1.22724e-05
-1.2727e-05
-1.31883e-05
-1.36554e-05
-1.41276e-05
-1.4604e-05
-1.50836e-05
-1.78675e-06
-1.98491e-06
-2.17686e-06
-2.36359e-06
-2.54614e-06
-2.72553e-06
-2.90284e-06
-3.07911e-06
-3.25543e-06
-3.43284e-06
-3.6124e-06
-3.79517e-06
-3.98216e-06
-4.17438e-06