/*--------------------------------*- C++ -*----------------------------------*\
| =========                 |                                                 |
| \\      /  F ield         | OpenFOAM: The Open Source CFD Toolbox           |
|  \\    /   O peration     | Version:  2312                                  |
|   \\  /    A nd           | Website:  www.openfoam.com                      |
|    \\/     M anipulation  |                                                 |
\*---------------------------------------------------------------------------*/
FoamFile
{
    version     2.0;
    format      ascii;
    arch        "LSB;label=32;scalar=64";
    class       surfaceScalarField;
    location    "169";
    object      phi;
}
// * * * * * * * * * * * * * * * * * * * * * * * * * * * * * * * * * * * * * //

dimensions      [0 3 -1 0 0 0 0];

oriented        oriented;

internalField   nonuniform List<scalar> 
9445
(
5.8214e-10
1.63692e-11
5.71429e-10
1.07106e-11
5.6444e-10
6.98875e-12
5.60073e-10
4.36757e-12
5.57633e-10
2.44011e-12
5.56742e-10
8.90674e-13
5.57241e-10
-4.98617e-13
5.58934e-10
-1.69357e-12
5.6191e-10
-2.9754e-12
5.66593e-10
-4.68377e-12
5.74037e-10
-7.44334e-12
5.87709e-10
-1.36728e-11
6.19822e-10
-3.21127e-11
7.13023e-10
-9.32006e-11
-2.41841e-10
9.54864e-10
2.03018e-09
7.19814e-11
1.99365e-09
4.72397e-11
1.96968e-09
3.09591e-11
1.95451e-09
1.95297e-11
1.94579e-09
1.11647e-11
1.94221e-09
4.47055e-12
1.94304e-09
-1.32384e-12
1.94763e-09
-6.29243e-12
1.95635e-09
-1.1694e-11
1.97035e-09
-1.86788e-11
1.99227e-09
-2.93699e-11
2.02877e-09
-5.01656e-11
2.09284e-09
-9.61841e-11
2.19676e-09
-1.97125e-10
-3.51379e-10
2.3063e-09
4.00422e-09
1.78648e-10
3.93393e-09
1.17525e-10
3.88758e-09
7.73065e-11
3.85797e-09
4.91476e-11
3.8405e-09
2.86258e-11
3.83264e-09
1.23403e-11
3.83271e-09
-1.40214e-12
3.83956e-09
-1.31356e-11
3.85352e-09
-2.56593e-11
3.87597e-09
-4.11313e-11
3.9094e-09
-6.27961e-11
3.95826e-09
-9.90245e-11
4.02522e-09
-1.63141e-10
4.09701e-09
-2.6892e-10
-3.92645e-10
4.13828e-09
6.64928e-09
3.49825e-10
6.53596e-09
2.30842e-10
6.46076e-09
1.52507e-10
6.41212e-09
9.77872e-11
6.38269e-09
5.80605e-11
6.36812e-09
2.69055e-11
6.36557e-09
1.15429e-12
6.37311e-09
-2.06759e-11
6.39041e-09
-4.29623e-11
6.41826e-09
-6.89853e-11
6.45729e-09
-1.01821e-10
6.50709e-09
-1.4883e-10
6.56137e-09
-2.17416e-10
6.60089e-09
-3.08439e-10
-3.96096e-10
6.60434e-09
1.01417e-08
5.99581e-10
9.97526e-09
3.97323e-10
9.86385e-09
2.63914e-10
9.79076e-09
1.70872e-10
9.74528e-09
1.03539e-10
9.7207e-09
5.14867e-11
9.71267e-09
9.19262e-12
9.71825e-09
-2.6257e-11
9.73569e-09
-6.04093e-11
9.7642e-09
-9.7496e-11
9.80199e-09
-1.39603e-10
9.84442e-09
-1.91266e-10
9.88129e-09
-2.54286e-10
9.8964e-09
-3.23545e-10
-3.80222e-10
9.88052e-09
1.46913e-08
9.40071e-10
1.44621e-08
6.26598e-10
1.4307e-08
4.19019e-10
1.42035e-08
2.74287e-10
1.41373e-08
1.69781e-10
1.40987e-08
9.01124e-11
1.40814e-08
2.64936e-11
1.40811e-08
-2.59609e-11
1.40944e-08
-7.37259e-11
1.41181e-08
-1.21184e-10
1.41483e-08
-1.69834e-10
1.41783e-08
-2.21272e-10
1.41982e-08
-2.74156e-10
1.41975e-08
-3.22824e-10
-3.56764e-10
1.4174e-08
2.05397e-08
1.37661e-09
2.02414e-08
9.24918e-10
2.00367e-08
6.23702e-10
1.98977e-08
4.13294e-10
1.9806e-08
2.61484e-10
1.9749e-08
1.47087e-10
1.97182e-08
5.73239e-11
1.97074e-08
-1.52021e-11
1.97115e-08
-7.77512e-11
1.9725e-08
-1.34768e-10
1.97428e-08
-1.87568e-10
1.97578e-08
-2.36274e-10
1.97626e-08
-2.79006e-10
1.97519e-08
-3.12142e-10
-3.31313e-10
1.97265e-08
2.79535e-08
1.89976e-09
2.75883e-08
1.29013e-09
2.7333e-08
8.78965e-10
2.7156e-08
5.90325e-10
2.70357e-08
3.8179e-10
2.69568e-08
2.2593e-10
2.69086e-08
1.05587e-10
2.68829e-08
1.04241e-11
2.68729e-08
-6.77383e-11
2.6872e-08
-1.33821e-10
2.6874e-08
-1.8961e-10
2.68732e-08
-2.35455e-10
2.68648e-08
-2.70638e-10
2.68468e-08
-2.94086e-10
-3.051e-10
2.68206e-08
3.72125e-08
2.47596e-09
3.67977e-08
1.7049e-09
3.65006e-08
1.17605e-09
3.62895e-08
8.01446e-10
3.61416e-08
5.29663e-10
3.60401e-08
3.27398e-10
3.59725e-08
1.73213e-10
3.59292e-08
5.37107e-11
3.59021e-08
-4.05983e-11
3.58841e-08
-1.158e-10
3.58693e-08
-1.74812e-10
3.58532e-08
-2.19384e-10
3.58331e-08
-2.50588e-10
3.58085e-08
-2.69476e-10
-2.77342e-10
3.57808e-08
4.8601e-08
3.04369e-09
4.81743e-08
2.13159e-09
4.78586e-08
1.49178e-09
4.76276e-08
1.03243e-09
4.74606e-08
6.96653e-10
4.73412e-08
4.46829e-10
4.72564e-08
2.57988e-10
4.71962e-08
1.13903e-10
4.7152e-08
3.56691e-12
4.71174e-08
-8.11855e-11
4.70871e-08
-1.4452e-10
4.70579e-08
-1.90165e-10
4.70282e-08
-2.20868e-10
4.69979e-08
-2.39173e-10
-2.47426e-10
4.6968e-08
6.24253e-08
3.52819e-09
6.20395e-08
2.51738e-09
6.17418e-08
1.7895e-09
6.15162e-08
1.25799e-09
6.13474e-08
8.65446e-10
6.12218e-08
5.72449e-10
6.11279e-08
3.51874e-10
6.10565e-08
1.85305e-10
6.10003e-08
5.98159e-11
6.09533e-08
-3.42348e-11
6.09119e-08
-1.03068e-10
6.08736e-08
-1.51916e-10
6.08376e-08
-1.84839e-10
6.08038e-08
-2.05318e-10
-2.16253e-10
6.07726e-08
7.90836e-08
3.8805e-09
7.87832e-08
2.81776e-09
7.85396e-08
2.03308e-09
7.83475e-08
1.45011e-09
7.81982e-08
1.01476e-09
7.80824e-08
6.88176e-10
7.79918e-08
4.42482e-10
7.79193e-08
2.57834e-10
7.78594e-08
1.19703e-10
7.78079e-08
1.72522e-11
7.77623e-08
-5.74699e-11
7.77211e-08
-1.10744e-10
7.76838e-08
-1.47485e-10
7.76502e-08
-1.71705e-10
-1.8657e-10
7.76205e-08
9.91651e-08
4.11176e-09
9.89559e-08
3.02688e-09
9.87784e-08
2.21063e-09
9.86327e-08
1.59584e-09
9.85149e-08
1.13252e-09
9.84198e-08
7.83308e-10
9.8342e-08
5.20299e-10
9.8277e-08
3.2277e-10
9.82215e-08
1.75193e-10
9.81731e-08
6.56939e-11
9.81302e-08
-1.45774e-11
9.80921e-08
-7.26443e-11
9.80585e-08
-1.13871e-10
9.80293e-08
-1.42509e-10
-1.61828e-10
9.80045e-08
1.23451e-07
4.2714e-09
1.23302e-07
3.17631e-09
1.23171e-07
2.34187e-09
1.23059e-07
1.70734e-09
1.22965e-07
1.22608e-09
1.22887e-07
8.61932e-10
1.2282e-07
5.87042e-10
1.22763e-07
3.80169e-10
1.22713e-07
2.25101e-10
1.22669e-07
1.09384e-10
1.22631e-07
2.34958e-11
1.22598e-07
-3.96317e-11
1.2257e-07
-8.5829e-11
1.22547e-07
-1.19353e-10
-1.43496e-10
1.22528e-07
1.52704e-07
4.38452e-09
1.52589e-07
3.29141e-09
1.52482e-07
2.44964e-09
1.52385e-07
1.80408e-09
1.523e-07
1.31136e-09
1.52225e-07
9.36725e-10
1.52159e-07
6.52604e-10
1.52102e-07
4.37647e-10
1.52051e-07
2.75367e-10
1.52008e-07
1.52904e-10
1.51971e-07
6.0679e-11
1.5194e-07
-8.54063e-12
1.51914e-07
-6.06354e-11
1.51895e-07
-9.98814e-11
-1.29561e-10
1.51881e-07
1.87392e-07
4.43321e-09
1.8732e-07
3.36378e-09
1.87238e-07
2.53167e-09
1.87154e-07
1.88723e-09
1.87075e-07
1.39132e-09
1.87e-07
1.01126e-09
1.86932e-07
7.2064e-10
1.86871e-07
4.98841e-10
1.86817e-07
3.29496e-10
1.8677e-07
1.99782e-10
1.8673e-07
1.00437e-10
1.86697e-07
2.39642e-11
1.86672e-07
-3.51607e-11
1.86653e-07
-8.11968e-11
-1.17399e-10
1.86641e-07
2.27565e-07
4.39193e-09
2.27557e-07
3.37221e-09
2.27518e-07
2.57064e-09
2.27462e-07
1.94302e-09
2.27399e-07
1.455e-09
2.27333e-07
1.07687e-09
2.27269e-07
7.84513e-10
2.27209e-07
5.58385e-10
2.27156e-07
3.83357e-10
2.27108e-07
2.47163e-10
2.27068e-07
1.40596e-10
2.27035e-07
5.66916e-11
2.2701e-07
-1.01994e-11
2.26993e-07
-6.38931e-11
-1.0746e-10
2.26983e-07
2.72761e-07
4.25072e-09
2.72828e-07
3.30554e-09
2.72844e-07
2.55479e-09
2.72827e-07
1.95985e-09
2.7279e-07
1.49155e-09
2.72743e-07
1.12413e-09
2.72692e-07
8.35993e-10
2.7264e-07
6.09675e-10
2.72593e-07
4.30983e-10
2.7255e-07
2.89493e-10
2.72514e-07
1.76554e-10
2.72485e-07
8.58733e-11
2.72464e-07
1.1309e-11
2.72451e-07
-5.12885e-11
-1.02699e-10
2.72446e-07
3.21599e-07
4.00283e-09
3.21749e-07
3.15602e-09
3.21828e-07
2.4752e-09
3.2186e-07
1.92845e-09
3.21859e-07
1.49216e-09
3.21839e-07
1.14478e-09
3.21807e-07
8.67765e-10
3.2177e-07
6.46388e-10
3.21733e-07
4.68236e-10
3.21699e-07
3.23456e-10
3.21671e-07
2.0498e-10
3.21649e-07
1.07746e-10
3.21634e-07
2.56122e-11
3.2163e-07
-4.69078e-11
-1.07304e-10
3.21635e-07
3.71035e-07
3.63275e-09
3.71285e-07
2.90636e-09
3.71446e-07
2.31387e-09
3.71544e-07
1.83077e-09
3.71597e-07
1.43886e-09
3.71621e-07
1.12146e-09
3.71625e-07
8.63621e-10
3.71618e-07
6.52994e-10
3.71606e-07
4.80261e-10
3.71593e-07
3.36555e-10
3.71582e-07
2.16365e-10
3.71575e-07
1.14084e-10
3.71576e-07
2.50962e-11
3.71582e-07
-5.32464e-11
-1.21146e-10
3.71596e-07
3.68802e-07
3.21115e-09
3.69104e-07
2.6043e-09
3.69316e-07
2.10161e-09
3.69462e-07
1.68515e-09
3.69559e-07
1.34168e-09
3.69622e-07
1.05814e-09
3.69663e-07
8.23148e-10
3.69688e-07
6.27056e-10
3.69707e-07
4.62051e-10
3.69721e-07
3.21798e-10
3.69736e-07
2.01762e-10
3.69751e-07
9.891e-11
3.69769e-07
7.27704e-12
3.69793e-07
-7.75107e-11
-1.51035e-10
3.69823e-07
3.16422e-07
2.77942e-09
3.16739e-07
2.28668e-09
3.1697e-07
1.87104e-09
3.17134e-07
1.52152e-09
3.17247e-07
1.2282e-09
3.17324e-07
9.81532e-10
3.17374e-07
7.73049e-10
3.17405e-07
5.95401e-10
3.17425e-07
4.42785e-10
3.17436e-07
3.10448e-10
3.17444e-07
1.94133e-10
3.17452e-07
9.01465e-11
3.17464e-07
-4.18978e-12
3.17476e-07
-8.99984e-11
-1.67868e-10
3.17493e-07
2.65115e-07
2.37293e-09
2.65429e-07
1.97254e-09
2.6567e-07
1.62954e-09
2.65855e-07
1.33716e-09
2.65995e-07
1.0882e-09
2.66101e-07
8.75052e-10
2.66182e-07
6.91784e-10
2.66245e-07
5.32615e-10
2.66295e-07
3.92814e-10
2.66336e-07
2.69404e-10
2.66371e-07
1.58859e-10
2.66402e-07
5.96244e-11
2.66431e-07
-3.28943e-11
2.66458e-07
-1.16853e-10
-1.94862e-10
2.66485e-07
2.18656e-07
1.99445e-09
2.18958e-07
1.67142e-09
2.19196e-07
1.39106e-09
2.19384e-07
1.14881e-09
2.19533e-07
9.39323e-10
2.19651e-07
7.57217e-10
2.19745e-07
5.97776e-10
2.19821e-07
4.56921e-10
2.19882e-07
3.31398e-10
2.19933e-07
2.18553e-10
2.19976e-07
1.16161e-10
2.20013e-07
2.23022e-11
2.20045e-07
-6.4965e-11
2.20074e-07
-1.46001e-10
-2.21843e-10
2.20101e-07
1.78004e-07
1.64447e-09
1.78289e-07
1.38697e-09
1.78519e-07
1.16077e-09
1.78705e-07
9.62653e-10
1.78856e-07
7.88809e-10
1.78977e-07
6.3532e-10
1.79076e-07
4.98802e-10
1.79157e-07
3.76351e-10
1.79223e-07
2.65518e-10
1.79277e-07
1.64499e-10
1.79322e-07
7.13912e-11
1.79359e-07
-1.47437e-11
1.79389e-07
-9.53818e-11
1.79414e-07
-1.7109e-10
-2.42376e-10
1.79435e-07
1.43305e-07
1.32817e-09
1.43566e-07
1.12596e-09
1.43781e-07
9.462e-10
1.43957e-07
7.86705e-10
1.44101e-07
6.44702e-10
1.44219e-07
5.17445e-10
1.44315e-07
4.02584e-10
1.44393e-07
2.98076e-10
1.44456e-07
2.0213e-10
1.44507e-07
1.13721e-10
1.44548e-07
3.11055e-11
1.44578e-07
-4.55212e-11
1.44601e-07
-1.18018e-10
1.44616e-07
-1.86416e-10
-2.51096e-10
1.44625e-07
1.14215e-07
1.051e-09
1.14446e-07
8.94882e-10
1.14638e-07
7.54428e-10
1.14796e-07
6.28214e-10
1.14927e-07
5.14217e-10
1.15033e-07
4.10611e-10
1.1512e-07
3.15785e-10
1.1519e-07
2.28379e-10
1.15245e-07
1.47309e-10
1.15287e-07
7.16407e-11
1.15317e-07
8.40597e-13
1.15337e-07
-6.58001e-11
1.15348e-07
-1.28937e-10
1.15351e-07
-1.88762e-10
-2.45478e-10
1.15345e-07
9.01528e-08
8.15525e-10
9.03505e-08
6.9719e-10
9.05155e-08
5.89473e-10
9.06523e-08
4.91436e-10
9.07648e-08
4.0165e-10
9.08565e-08
3.18935e-10
9.093e-08
2.42311e-10
9.09874e-08
1.70924e-10
9.10307e-08
1.04058e-10
9.10614e-08
4.09503e-11
9.10803e-08
-1.81169e-11
9.10889e-08
-7.43355e-11
9.10876e-08
-1.27696e-10
9.10773e-08
-1.78384e-10
-2.26497e-10
9.10583e-08
7.0465e-08
6.20806e-10
7.06293e-08
5.32897e-10
7.07668e-08
4.51974e-10
7.08809e-08
3.77366e-10
7.09744e-08
3.0811e-10
7.10498e-08
2.43518e-10
7.11091e-08
1.83021e-10
7.11539e-08
1.26108e-10
7.11857e-08
7.23184e-11
7.12054e-08
2.12599e-11
7.12141e-08
-2.68332e-11
7.12125e-08
-7.2798e-11
7.12014e-08
-1.16558e-10
7.11812e-08
-1.58185e-10
-1.97715e-10
7.11524e-08
5.45067e-08
4.63397e-10
5.464e-08
3.9954e-10
5.47519e-08
3.40138e-10
5.48446e-08
2.84637e-10
5.49202e-08
2.32444e-10
5.49805e-08
1.83217e-10
5.50269e-08
1.3664e-10
5.50606e-08
9.24428e-11
5.50825e-08
5.03737e-11
5.50936e-08
1.01678e-11
5.50946e-08
-2.78046e-11
5.50861e-08
-6.42879e-11
5.50686e-08
-9.90909e-11
5.50427e-08
-1.3223e-10
-1.63706e-10
5.50087e-08
4.16818e-08
3.3857e-10
4.17879e-08
2.93359e-10
4.18772e-08
2.50888e-10
4.19512e-08
2.10648e-10
4.20113e-08
1.72338e-10
4.20587e-08
1.35826e-10
4.20944e-08
1.00966e-10
4.21192e-08
6.76297e-11
4.21338e-08
3.56999e-11
4.21391e-08
4.9547e-12
4.21353e-08
-2.40374e-11
4.21231e-08
-5.21259e-11
4.2103e-08
-7.89408e-11
4.20752e-08
-1.0449e-10
-1.2876e-10
4.20403e-08
3.1459e-08
2.4127e-10
3.15422e-08
2.10205e-10
3.16123e-08
1.80752e-10
3.16705e-08
1.52432e-10
3.17177e-08
1.25163e-10
3.17546e-08
9.8923e-11
3.17819e-08
7.36557e-11
3.18002e-08
4.93162e-11
3.18101e-08
2.58769e-11
3.18118e-08
3.21374e-12
3.1806e-08
-1.82165e-11
3.1793e-08
-3.91134e-11
3.17731e-08
-5.90735e-11
3.17467e-08
-7.8097e-11
-9.61753e-11
3.17141e-08
2.33763e-08
1.66701e-10
2.34404e-08
1.4611e-10
2.34948e-08
1.26416e-10
2.354e-08
1.07187e-10
2.35767e-08
8.84815e-11
2.36053e-08
7.03189e-11
2.36263e-08
5.26897e-11
2.364e-08
3.55878e-11
2.36468e-08
1.90292e-11
2.3647e-08
3.00307e-12
2.3641e-08
-1.22252e-11
2.36291e-08
-2.71894e-11
2.36115e-08
-4.1474e-11
2.35885e-08
-5.50857e-11
-6.80312e-11
2.35604e-08
1.70387e-08
1.10627e-10
1.70872e-08
9.75735e-11
1.71286e-08
8.49871e-11
1.71633e-08
7.25072e-11
1.71915e-08
6.02577e-11
1.72136e-08
4.82608e-11
1.72298e-08
3.65286e-11
1.72403e-08
2.50709e-11
1.72454e-08
1.39103e-11
1.72453e-08
3.08986e-12
1.72403e-08
-7.1678e-12
1.72305e-08
-1.74137e-11
1.72162e-08
-2.71661e-11
1.71975e-08
-3.64463e-11
-4.52837e-11
1.71748e-08
1.21129e-08
6.94548e-11
1.21488e-08
6.16463e-11
1.21797e-08
5.40676e-11
1.22058e-08
4.64406e-11
1.22271e-08
3.88948e-11
1.22439e-08
3.14424e-11
1.22564e-08
2.41025e-11
1.22646e-08
1.68879e-11
1.22686e-08
9.82015e-12
1.22688e-08
2.91909e-12
1.22652e-08
-3.53621e-12
1.22579e-08
-1.01267e-11
1.22471e-08
-1.64031e-11
1.2233e-08
-2.23477e-11
-2.80184e-11
1.22158e-08
8.32066e-09
4.02145e-11
8.3464e-09
3.59026e-11
8.36876e-09
3.17085e-11
8.38777e-09
2.74305e-11
8.4035e-09
2.31672e-11
8.41602e-09
1.89211e-11
8.42541e-09
1.47103e-11
8.43176e-09
1.05454e-11
8.43513e-09
6.44654e-12
8.43566e-09
2.38896e-12
8.43346e-09
-1.33661e-12
8.42854e-09
-5.20403e-12
8.42105e-09
-8.91431e-12
8.41111e-09
-1.24111e-11
-1.57486e-11
8.39884e-09
5.43198e-09
2.04708e-11
5.44952e-09
1.83605e-11
5.46491e-09
1.63272e-11
5.47811e-09
1.42302e-11
5.48915e-09
1.21244e-11
5.49806e-09
1.00087e-11
5.50488e-09
7.89611e-12
5.50963e-09
5.79322e-12
5.51236e-09
3.71449e-12
5.51312e-09
1.62425e-12
5.51205e-09
-2.66387e-13
5.50909e-09
-2.24276e-12
5.50434e-09
-4.1601e-12
5.49789e-09
-5.96435e-12
-7.68173e-12
5.48983e-09
3.25807e-09
8.23037e-12
3.26904e-09
7.39272e-12
3.27875e-09
6.6197e-12
3.28716e-09
5.81617e-12
3.29429e-09
5.00094e-12
3.30012e-09
4.17368e-12
3.30468e-09
3.34126e-12
3.30796e-09
2.50631e-12
3.31e-09
1.67768e-12
3.31079e-09
8.30053e-13
3.31046e-09
7.15778e-14
3.30893e-09
-7.2e-13
3.30627e-09
-1.49796e-12
3.30254e-09
-2.23286e-12
-2.92413e-12
3.29778e-09
1.64537e-09
1.85556e-12
1.65111e-09
1.64834e-12
1.65624e-09
1.48946e-12
1.66074e-09
1.32278e-12
1.66459e-09
1.14954e-12
1.66779e-09
9.71033e-13
1.67034e-09
7.8878e-13
1.67224e-09
6.03465e-13
1.6735e-09
4.19718e-13
1.67411e-09
2.25716e-13
1.67412e-09
5.70499e-14
1.67352e-09
-1.19972e-13
1.67232e-09
-2.95485e-13
1.67055e-09
-4.64449e-13
-6.14471e-13
1.66824e-09
4.69878e-10
4.71526e-10
4.73016e-10
4.74338e-10
4.75488e-10
4.76459e-10
4.77248e-10
4.77851e-10
4.78271e-10
4.78497e-10
4.78554e-10
4.78434e-10
4.78138e-10
4.77674e-10
4.77059e-10
1.14063e-09
-4.62959e-10
2.77195e-10
1.4065e-09
-3.88387e-10
1.2252e-10
1.67419e-09
-2.45177e-10
-2.25202e-11
1.93804e-09
-9.23051e-11
-1.71545e-10
2.19666e-09
6.73562e-11
-3.25969e-10
2.45118e-09
2.28589e-10
-4.83113e-10
2.70344e-09
3.91538e-10
-6.43803e-10
2.95496e-09
5.56927e-10
-8.08446e-10
3.20694e-09
7.2529e-10
-9.77268e-10
3.4603e-09
8.96992e-10
-1.15035e-09
3.71577e-09
1.07227e-09
-1.32774e-09
3.97409e-09
1.25126e-09
-1.50958e-09
4.23609e-09
1.43439e-09
-1.69639e-09
4.50282e-09
1.62237e-09
-1.88911e-09
4.77575e-09
1.81574e-09
-2.08867e-09
5.05697e-09
2.01454e-09
-2.29576e-09
5.34941e-09
2.21775e-09
-2.51019e-09
5.65719e-09
2.4226e-09
-2.73039e-09
5.98586e-09
2.61921e-09
-2.94787e-09
6.34204e-09
2.78451e-09
-3.14069e-09
6.73153e-09
2.85436e-09
-3.24385e-09
7.15467e-09
2.69137e-09
-3.1145e-09
7.53631e-09
1.7856e-09
-2.16724e-09
7.84389e-09
6.33841e-10
-9.41414e-10
8.07695e-09
-4.83476e-10
2.50407e-10
8.23965e-09
-1.49729e-09
1.33459e-09
8.33763e-09
-2.35753e-09
2.25955e-09
8.37667e-09
-3.04843e-09
3.00939e-09
8.36219e-09
-3.57422e-09
3.5887e-09
8.29898e-09
-3.94178e-09
4.00499e-09
8.1912e-09
-4.15673e-09
4.26452e-09
8.04264e-09
-4.2242e-09
4.37276e-09
7.85695e-09
-4.14934e-09
4.33503e-09
7.63764e-09
-3.93817e-09
4.15748e-09
7.388e-09
-3.59816e-09
3.8478e-09
7.11087e-09
-3.13789e-09
3.41502e-09
6.80854e-09
-2.56604e-09
2.86837e-09
6.48276e-09
-1.88931e-09
2.21509e-09
6.13487e-09
-1.10981e-09
1.4577e-09
5.76495e-09
-2.23413e-10
5.93328e-10
5.36843e-09
7.7322e-10
-3.76695e-10
4.92902e-09
1.8572e-09
-1.41779e-09
4.41787e-09
2.90981e-09
-2.39866e-09
3.83385e-09
3.64483e-09
-3.06081e-09
3.28815e-09
3.47981e-09
-2.9341e-09
2.37833e-09
-5.34985e-10
2.53526e-09
-5.45321e-10
2.74926e-09
-4.59177e-10
2.98904e-09
-3.32085e-10
3.24151e-09
-1.85117e-10
3.50013e-09
-3.00268e-11
3.76267e-09
1.29e-10
4.02851e-09
2.91083e-10
4.2977e-09
4.56098e-10
4.57053e-09
6.24167e-10
4.84739e-09
7.95412e-10
5.12883e-09
9.69818e-10
5.41561e-09
1.14761e-09
5.70875e-09
1.32923e-09
6.00973e-09
1.51476e-09
6.32069e-09
1.70358e-09
6.64463e-09
1.89381e-09
6.98576e-09
2.08147e-09
7.34968e-09
2.25529e-09
7.74308e-09
2.3911e-09
8.17174e-09
2.4257e-09
8.63571e-09
2.22739e-09
9.05344e-09
1.36787e-09
9.39016e-09
2.97118e-10
9.64582e-09
-7.39132e-10
9.82502e-09
-1.67649e-09
9.93385e-09
-2.46636e-09
9.97846e-09
-3.09304e-09
9.96485e-09
-3.56062e-09
9.89847e-09
-3.8754e-09
9.78419e-09
-4.04245e-09
9.62662e-09
-4.06663e-09
9.43035e-09
-3.95307e-09
9.20004e-09
-3.70787e-09
8.94039e-09
-3.3385e-09
8.65612e-09
-2.85362e-09
8.35213e-09
-2.26205e-09
8.03404e-09
-1.57122e-09
7.70949e-09
-7.85259e-10
7.38987e-09
9.6205e-11
7.09152e-09
1.07156e-09
6.83548e-09
2.11324e-09
6.64787e-09
3.09742e-09
6.56841e-09
3.72428e-09
3.37043e-09
6.48613e-09
4.14928e-09
-5.45986e-10
4.21673e-09
-6.12778e-10
4.35226e-09
-5.94705e-10
4.53953e-09
-5.19354e-10
4.75968e-09
-4.05266e-10
5.00103e-09
-2.7138e-10
5.25699e-09
-1.26957e-10
5.52387e-09
2.42007e-11
5.79972e-09
1.80245e-10
6.08358e-09
3.4031e-10
6.37506e-09
5.03932e-10
6.67425e-09
6.70627e-10
6.98161e-09
8.40253e-10
7.29797e-09
1.01287e-09
7.62471e-09
1.18802e-09
7.96392e-09
1.36437e-09
8.31856e-09
1.53917e-09
8.69282e-09
1.70721e-09
9.09223e-09
1.85588e-09
9.52336e-09
1.95997e-09
9.9917e-09
1.95735e-09
1.04968e-08
1.72225e-09
1.09507e-08
9.13981e-10
1.13165e-08
-6.86521e-11
1.15945e-08
-1.01716e-09
1.179e-08
-1.87195e-09
1.19094e-08
-2.58573e-09
1.19592e-08
-3.14291e-09
1.19462e-08
-3.54758e-09
1.18765e-08
-3.80567e-09
1.17558e-08
-3.92177e-09
1.15897e-08
-3.9006e-09
1.13841e-08
-3.74745e-09
1.1145e-08
-3.46871e-09
1.08787e-08
-3.07227e-09
1.05925e-08
-2.56735e-09
1.02942e-08
-1.96377e-09
9.99402e-09
-1.27107e-09
9.70638e-09
-4.97619e-10
9.45336e-09
3.49223e-10
9.26847e-09
1.25646e-09
9.19547e-09
2.18624e-09
9.2697e-09
3.0232e-09
9.4677e-09
3.52628e-09
3.28145e-09
9.55668e-09
6.57975e-09
-5.21399e-10
6.58601e-09
-6.19037e-10
6.64393e-09
-6.52628e-10
6.76034e-09
-6.35755e-10
6.92483e-09
-5.69755e-10
7.12522e-09
-4.71778e-10
7.35312e-09
-3.54857e-10
7.60238e-09
-2.25059e-10
7.86896e-09
-8.63299e-11
8.15031e-09
5.89582e-11
8.44494e-09
2.093e-10
8.7522e-09
3.63369e-10
9.07202e-09
5.20429e-10
9.40487e-09
6.80026e-10
9.75186e-09
8.41021e-10
1.01149e-08
1.00132e-09
1.04969e-08
1.15722e-09
1.09017e-08
1.30239e-09
1.13347e-08
1.42288e-09
1.18021e-08
1.49261e-09
1.23087e-08
1.45067e-09
1.28535e-08
1.17752e-09
1.33419e-08
4.25573e-10
1.37351e-08
-4.61854e-10
1.4034e-08
-1.31602e-09
1.42443e-08
-2.08227e-09
1.4373e-08
-2.71442e-09
1.4427e-08
-3.19693e-09
1.44136e-08
-3.53422e-09
1.434e-08
-3.73204e-09
1.42128e-08
-3.79463e-09
1.4039e-08
-3.72673e-09
1.38255e-08
-3.534e-09
1.35802e-08
-3.2234e-09
1.33115e-08
-2.8036e-09
1.30291e-08
-2.28493e-09
1.27444e-08
-1.67902e-09
1.24718e-08
-9.98472e-10
1.22314e-08
-2.57192e-10
1.20518e-08
5.28742e-10
1.19735e-08
1.33481e-09
1.20427e-08
2.11708e-09
1.22832e-08
2.78262e-09
1.26408e-08
3.16873e-09
3.05869e-09
1.28635e-08
9.83968e-09
-4.80553e-10
9.80687e-09
-5.86228e-10
9.80583e-09
-6.51592e-10
9.85004e-09
-6.79964e-10
9.94462e-09
-6.6433e-10
1.00845e-08
-6.11648e-10
1.02625e-08
-5.32871e-10
1.04725e-08
-4.35034e-10
1.07095e-08
-3.23328e-10
1.09698e-08
-2.01385e-10
1.1251e-08
-7.18684e-11
1.15515e-08
6.28066e-11
1.18708e-08
2.01157e-10
1.22088e-08
3.42093e-10
1.25661e-08
4.83661e-10
1.29445e-08
6.22894e-10
1.33466e-08
7.55175e-10
1.37759e-08
8.73059e-10
1.42374e-08
9.61412e-10
1.47365e-08
9.93462e-10
1.52774e-08
9.09823e-10
1.58574e-08
5.97504e-10
1.63763e-08
-9.33301e-11
1.67933e-08
-8.78856e-10
1.71097e-08
-1.63245e-09
1.73321e-08
-2.3046e-09
1.74676e-08
-2.84995e-09
1.75237e-08
-3.25302e-09
1.75084e-08
-3.51891e-09
1.74298e-08
-3.65349e-09
1.72959e-08
-3.66076e-09
1.71149e-08
-3.54566e-09
1.68953e-08
-3.31446e-09
1.66469e-08
-2.97496e-09
1.63803e-08
-2.53696e-09
1.61077e-08
-2.01233e-09
1.58436e-08
-1.41494e-09
1.56059e-08
-7.60812e-10
1.54179e-08
-6.91512e-11
1.53091e-08
6.37496e-10
1.53164e-08
1.32752e-09
1.54752e-08
1.95832e-09
1.57934e-08
2.46437e-09
1.6209e-08
2.75317e-09
2.73025e-09
1.65374e-08
1.41291e-08
-4.35608e-10
1.40766e-08
-5.3376e-10
1.40385e-08
-6.13515e-10
1.40266e-08
-6.68012e-10
1.40542e-08
-6.91919e-10
1.4125e-08
-6.82471e-10
1.42378e-08
-6.4574e-10
1.43895e-08
-5.86699e-10
1.45763e-08
-5.10102e-10
1.47948e-08
-4.19859e-10
1.50422e-08
-3.19328e-10
1.53169e-08
-2.11919e-10
1.56179e-08
-9.97545e-11
1.59445e-08
1.54603e-11
1.62973e-08
1.30848e-10
1.66777e-08
2.42542e-10
1.70878e-08
3.45035e-10
1.75309e-08
4.29906e-10
1.80114e-08
4.80988e-10
1.85337e-08
4.71166e-10
1.91006e-08
3.4294e-10
1.97077e-08
-9.63505e-12
2.02498e-08
-6.35396e-10
2.06841e-08
-1.31324e-09
2.10125e-08
-1.96079e-09
2.12419e-08
-2.53408e-09
2.13802e-08
-2.98818e-09
2.14348e-08
-3.30768e-09
2.14148e-08
-3.49892e-09
2.13296e-08
-3.56822e-09
2.11882e-08
-3.5194e-09
2.10004e-08
-3.35782e-09
2.07765e-08
-3.09055e-09
2.0528e-08
-2.72647e-09
2.02677e-08
-2.27672e-09
2.00103e-08
-1.75489e-09
1.97725e-08
-1.17711e-09
1.95739e-08
-5.62282e-10
1.94375e-08
6.72414e-11
1.93897e-08
6.85361e-10
1.94568e-08
1.26042e-09
1.96585e-08
1.75659e-09
1.99901e-08
2.13275e-09
2.03983e-08
2.34503e-09
2.36092e-09
2.07676e-08
1.96839e-08
-3.93058e-10
1.9628e-08
-4.7785e-10
1.95717e-08
-5.57163e-10
1.95266e-08
-6.22901e-10
1.95042e-08
-6.69529e-10
1.95142e-08
-6.92499e-10
1.95609e-08
-6.92434e-10
1.96457e-08
-6.71529e-10
1.97684e-08
-6.32804e-10
1.99277e-08
-5.79153e-10
2.01222e-08
-5.13794e-10
2.0351e-08
-4.40678e-10
2.06133e-08
-3.62052e-10
2.09087e-08
-2.79977e-10
2.12378e-08
-1.98262e-10
2.16019e-08
-1.21574e-10
2.20031e-08
-5.61748e-11
2.24443e-08
-1.12276e-11
2.29289e-08
-3.68658e-12
2.34606e-08
-6.05175e-11
2.40404e-08
-2.36828e-10
2.46616e-08
-6.30838e-10
2.52153e-08
-1.18909e-09
2.56571e-08
-1.75507e-09
2.59888e-08
-2.29242e-09
2.6218e-08
-2.76334e-09
2.63526e-08
-3.1228e-09
2.64006e-08
-3.35563e-09
2.63718e-08
-3.47014e-09
2.6277e-08
-3.47339e-09
2.61267e-08
-3.36912e-09
2.59321e-08
-3.1632e-09
2.57052e-08
-2.8637e-09
2.54595e-08
-2.48069e-09
2.52094e-08
-2.02665e-09
2.49712e-08
-1.5167e-09
2.47627e-08
-9.68639e-10
2.46034e-08
-4.02912e-10
2.45132e-08
1.57363e-10
2.45119e-08
6.8672e-10
2.46142e-08
1.1581e-09
2.48256e-08
1.54523e-09
2.51332e-08
1.82514e-09
2.54968e-08
1.98143e-09
2.0094e-09
2.58483e-08
2.6782e-08
-3.54451e-10
2.673e-08
-4.25904e-10
2.66707e-08
-4.97861e-10
2.66121e-08
-5.64333e-10
2.6563e-08
-6.20364e-10
2.65324e-08
-6.6194e-10
2.65274e-08
-6.87378e-10
2.65526e-08
-6.96816e-10
2.66115e-08
-6.91708e-10
2.67058e-08
-6.73398e-10
2.68365e-08
-6.44496e-10
2.70049e-08
-6.09094e-10
2.72116e-08
-5.68712e-10
2.7457e-08
-5.25399e-10
2.77426e-08
-4.83829e-10
2.80702e-08
-4.49193e-10
2.84422e-08
-4.2821e-10
2.88614e-08
-4.30412e-10
2.93309e-08
-4.73199e-10
2.98531e-08
-5.82696e-10
3.04272e-08
-8.10973e-10
3.1044e-08
-1.2476e-09
3.15931e-08
-1.73815e-09
3.20285e-08
-2.19048e-09
3.23515e-08
-2.61548e-09
3.25705e-08
-2.98233e-09
3.26929e-08
-3.24522e-09
3.2727e-08
-3.38966e-09
3.26838e-08
-3.42696e-09
3.25755e-08
-3.36516e-09
3.24142e-08
-3.20777e-09
3.22123e-08
-2.96128e-09
3.19834e-08
-2.63487e-09
3.17424e-08
-2.2397e-09
3.15051e-08
-1.78934e-09
3.12883e-08
-1.29987e-09
3.11094e-08
-7.89679e-10
3.09855e-08
-2.79017e-10
3.09322e-08
2.10619e-10
3.09615e-08
6.57468e-10
3.10784e-08
1.04116e-09
3.12787e-08
1.34488e-09
3.15462e-08
1.55764e-09
3.18512e-08
1.67644e-09
1.70707e-09
3.21536e-08
3.57447e-08
-3.18392e-10
3.56978e-08
-3.79007e-10
3.56425e-08
-4.42499e-10
3.55831e-08
-5.05011e-10
3.55256e-08
-5.62801e-10
3.54764e-08
-6.12761e-10
3.54419e-08
-6.52876e-10
3.54276e-08
-6.82487e-10
3.54383e-08
-7.02422e-10
3.54776e-08
-7.12723e-10
3.5549e-08
-7.15931e-10
3.56563e-08
-7.16358e-10
3.58015e-08
-7.13909e-10
3.59868e-08
-7.10681e-10
3.62152e-08
-7.12283e-10
3.64901e-08
-7.24013e-10
3.68145e-08
-7.5268e-10
3.71918e-08
-8.07708e-10
3.76252e-08
-9.06553e-10
3.81161e-08
-1.0736e-09
3.86623e-08
-1.35715e-09
3.92516e-08
-1.83698e-09
3.97756e-08
-2.26212e-09
4.01871e-08
-2.60202e-09
4.04868e-08
-2.91518e-09
4.06832e-08
-3.17866e-09
4.07827e-08
-3.34475e-09
4.07939e-08
-3.40085e-09
4.07296e-08
-3.36265e-09
4.06034e-08
-3.23898e-09
4.04284e-08
-3.03275e-09
4.02183e-08
-2.75118e-09
3.99879e-08
-2.40451e-09
3.9753e-08
-2.00474e-09
3.95296e-08
-1.56597e-09
3.9334e-08
-1.10432e-09
3.91818e-08
-6.37475e-10
3.90866e-08
-1.83833e-10
3.90588e-08
2.38484e-10
3.91034e-08
6.12837e-10
3.9219e-08
9.2555e-10
3.93965e-08
1.16735e-09
3.96196e-08
1.33458e-09
3.98661e-08
1.42991e-09
1.46171e-09
4.01115e-08
4.69329e-08
-2.83281e-10
4.68897e-08
-3.35883e-10
4.68395e-08
-3.92251e-10
4.67845e-08
-4.50078e-10
4.67285e-08
-5.06767e-10
4.66758e-08
-5.60076e-10
4.66312e-08
-6.08215e-10
4.65991e-08
-6.50452e-10
4.65843e-08
-6.87598e-10
4.65902e-08
-7.18613e-10
4.66215e-08
-7.47215e-10
4.66829e-08
-7.77775e-10
4.6777e-08
-8.08011e-10
4.69076e-08
-8.4126e-10
4.70795e-08
-8.84231e-10
4.72974e-08
-9.41919e-10
4.75658e-08
-1.02107e-09
4.78887e-08
-1.1306e-09
4.82699e-08
-1.28778e-09
4.87105e-08
-1.51421e-09
4.92073e-08
-1.85388e-09
4.97457e-08
-2.37539e-09
5.02226e-08
-2.73906e-09
5.05913e-08
-2.97066e-09
5.08517e-08
-3.17565e-09
5.10121e-08
-3.33909e-09
5.10771e-08
-3.40972e-09
5.10559e-08
-3.37964e-09
5.09637e-08
-3.27045e-09
5.08154e-08
-3.09066e-09
5.06245e-08
-2.84188e-09
5.04056e-08
-2.5323e-09
5.01742e-08
-2.17305e-09
4.99459e-08
-1.77648e-09
4.97364e-08
-1.35644e-09
4.95601e-08
-9.28071e-10
4.94298e-08
-5.07129e-10
4.93549e-08
-1.08947e-10
4.93409e-08
2.52499e-10
4.9388e-08
5.65736e-10
4.94909e-08
8.22617e-10
4.96392e-08
1.01909e-09
4.98183e-08
1.15548e-09
5.00118e-08
1.23643e-09
1.2699e-09
5.02036e-08
6.07385e-08
-2.4919e-10
6.06988e-08
-2.96228e-10
6.0654e-08
-3.47395e-10
6.06053e-08
-4.01445e-10
6.05553e-08
-4.56727e-10
6.0507e-08
-5.11795e-10
6.0464e-08
-5.65165e-10
6.04299e-08
-6.16388e-10
6.04084e-08
-6.66076e-10
6.04026e-08
-7.12833e-10
6.04179e-08
-7.62499e-10
6.04567e-08
-8.16547e-10
6.05217e-08
-8.73039e-10
6.06177e-08
-9.37271e-10
6.07502e-08
-1.01673e-09
6.0924e-08
-1.11567e-09
6.11441e-08
-1.24121e-09
6.14151e-08
-1.4016e-09
6.17414e-08
-1.61406e-09
6.21235e-08
-1.89635e-09
6.25579e-08
-2.2882e-09
6.30281e-08
-2.84568e-09
6.34401e-08
-3.15102e-09
6.37496e-08
-3.28012e-09
6.39575e-08
-3.38362e-09
6.40708e-08
-3.45234e-09
6.40905e-08
-3.42945e-09
6.40289e-08
-3.31799e-09
6.39046e-08
-3.14617e-09
6.37323e-08
-2.91841e-09
6.35253e-08
-2.6349e-09
6.32985e-08
-2.30549e-09
6.30673e-08
-1.9418e-09
6.28466e-08
-1.55579e-09
6.26504e-08
-1.1602e-09
6.24906e-08
-7.68314e-10
6.23765e-08
-3.93073e-10
6.23138e-08
-4.61708e-11
6.23039e-08
2.62386e-10
6.2344e-08
5.25623e-10
6.24273e-08
7.39359e-10
6.25436e-08
9.02727e-10
6.26811e-08
1.01795e-09
6.28276e-08
1.08996e-09
1.12549e-09
6.2972e-08
7.75896e-08
-2.18332e-10
7.75553e-08
-2.61929e-10
7.75178e-08
-3.09849e-10
7.74779e-08
-3.61557e-10
7.74374e-08
-4.16186e-10
7.73985e-08
-4.72944e-10
7.73642e-08
-5.30904e-10
7.7338e-08
-5.90171e-10
7.73222e-08
-6.50257e-10
7.73217e-08
-7.12348e-10
7.73375e-08
-7.78225e-10
7.73709e-08
-8.4998e-10
7.74286e-08
-9.3072e-10
7.75155e-08
-1.02417e-09
7.76337e-08
-1.13492e-09
7.7787e-08
-1.26897e-09
7.79802e-08
-1.43441e-09
7.82169e-08
-1.6384e-09
7.85015e-08
-1.89862e-09
7.88328e-08
-2.22763e-09
7.92068e-08
-2.66223e-09
7.96055e-08
-3.24441e-09
7.99449e-08
-3.49038e-09
8.01875e-08
-3.52275e-09
8.03376e-08
-3.53372e-09
8.03975e-08
-3.51224e-09
8.03647e-08
-3.39664e-09
8.02606e-08
-3.21386e-09
8.01069e-08
-2.99242e-09
7.99133e-08
-2.72487e-09
7.96936e-08
-2.41517e-09
7.94627e-08
-2.07458e-09
7.92351e-08
-1.71421e-09
7.90242e-08
-1.34488e-09
7.88415e-08
-9.77537e-10
7.86961e-08
-6.22927e-10
7.85939e-08
-2.90866e-10
7.85373e-08
1.04495e-11
7.85251e-08
2.74558e-10
7.8553e-08
4.97759e-10
7.86138e-08
6.78519e-10
7.86989e-08
8.17706e-10
7.87986e-08
9.18224e-10
7.8904e-08
9.84586e-10
1.02224e-09
7.90072e-08
9.79801e-08
-1.93863e-10
9.79541e-08
-2.35976e-10
9.79269e-08
-2.82575e-10
9.78989e-08
-3.33593e-10
9.78715e-08
-3.88791e-10
9.78464e-08
-4.47873e-10
9.78261e-08
-5.10568e-10
9.78131e-08
-5.77222e-10
9.781e-08
-6.47167e-10
9.78214e-08
-7.23711e-10
9.78475e-08
-8.04265e-10
9.78917e-08
-8.94203e-10
9.79588e-08
-9.97843e-10
9.80519e-08
-1.11723e-09
9.81732e-08
-1.25623e-09
9.83256e-08
-1.42136e-09
9.85126e-08
-1.62143e-09
9.8736e-08
-1.86178e-09
9.89987e-08
-2.16132e-09
9.92962e-08
-2.52518e-09
9.96242e-08
-2.99021e-09
9.99613e-08
-3.58147e-09
1.00232e-07
-3.76135e-09
1.00413e-07
-3.70325e-09
1.0051e-07
-3.63068e-09
1.00514e-07
-3.51631e-09
1.00431e-07
-3.3137e-09
1.00297e-07
-3.07973e-09
1.00122e-07
-2.81784e-09
9.99151e-08
-2.51788e-09
9.96906e-08
-2.19067e-09
9.94631e-08
-1.84705e-09
9.92454e-08
-1.49654e-09
9.90487e-08
-1.14814e-09
9.88817e-08
-8.10596e-10
9.87507e-08
-4.91874e-10
9.86586e-08
-1.98767e-10
9.86056e-08
6.34455e-11
9.8589e-08
2.91191e-10
9.86038e-08
4.82944e-10