/*--------------------------------*- C++ -*----------------------------------*\
| =========                 |                                                 |
| \\      /  F ield         | OpenFOAM: The Open Source CFD Toolbox           |
|  \\    /   O peration     | Version:  2312                                  |
|   \\  /    A nd           | Website:  www.openfoam.com                      |
|    \\/     M anipulation  |                                                 |
\*---------------------------------------------------------------------------*/
FoamFile
{
    version     2.0;
    format      ascii;
    arch        "LSB;label=32;scalar=64";
    class       volVectorField;
    location    "37";
    object      U;
}
// * * * * * * * * * * * * * * * * * * * * * * * * * * * * * * * * * * * * * //

dimensions      [0 1 -1 0 0 0 0];

internalField   nonuniform List<vector> 
4800
(
(0.000469162 2.12646e-07 -1.72758e-26)
(0.00046478 1.90686e-07 -1.21246e-25)
(0.000463206 1.62542e-07 1.55535e-25)
(0.000463582 1.46522e-07 7.13792e-26)
(0.000464894 1.454e-07 1.06884e-24)
(0.00046696 1.1824e-07 -2.56021e-24)
(0.000469645 6.06086e-08 2.41803e-24)
(0.000472964 -3.30045e-08 -3.55115e-24)
(0.000476968 -1.80353e-07 1.12617e-24)
(0.000481849 -4.26405e-07 3.95592e-24)
(0.000488058 -9.28313e-07 -1.21538e-24)
(0.000496923 -2.34406e-06 -9.55763e-26)
(0.000515961 -7.63551e-06 -1.52356e-24)
(0.000563217 -2.90118e-05 7.40497e-25)
(0.000639408 -9.24332e-05 -5.96335e-25)
(0.00145599 1.09375e-06 -5.46691e-26)
(0.00144281 5.56029e-07 6.81345e-26)
(0.00143782 1.28728e-07 -6.24529e-25)
(0.00143846 -2.25107e-07 4.63871e-25)
(0.00144169 -5.00408e-07 1.52123e-24)
(0.00144723 -8.34775e-07 -2.45225e-24)
(0.00145451 -1.26336e-06 -7.24789e-25)
(0.00146352 -1.83707e-06 -1.93514e-25)
(0.00147442 -2.65722e-06 5.91922e-24)
(0.00148773 -3.96178e-06 -4.40477e-24)
(0.00150474 -6.42537e-06 4.78806e-25)
(0.00152825 -1.23095e-05 7.48174e-25)
(0.00156743 -2.94604e-05 -1.12865e-24)
(0.0016326 -8.19065e-05 -3.73091e-25)
(0.00170083 -0.000198709 1.51591e-24)
(0.00255195 3.46314e-06 -3.91252e-26)
(0.00252956 1.77593e-06 3.99929e-26)
(0.00252069 4.62637e-07 4.06793e-25)
(0.00252111 -6.23493e-07 -9.65843e-25)
(0.00252559 -1.53595e-06 9.61202e-25)
(0.00253401 -2.59504e-06 9.3251e-25)
(0.00254527 -3.86768e-06 -2.4192e-24)
(0.00255916 -5.52943e-06 -1.53304e-24)
(0.00257588 -7.87334e-06 3.65549e-24)
(0.00259608 -1.15252e-05 1.41397e-24)
(0.00262121 -1.79849e-05 -4.91124e-24)
(0.00265351 -3.12478e-05 -7.85512e-25)
(0.00269715 -6.09087e-05 2.11961e-24)
(0.00275063 -0.000126576 3.43561e-24)
(0.0027883 -0.000234931 -1.78511e-24)
(0.00376308 7.65071e-06 1.44675e-26)
(0.00373129 4.02755e-06 -1.00479e-25)
(0.00371812 1.22939e-06 4.47399e-25)
(0.00371769 -1.08149e-06 4.77665e-25)
(0.0037227 -2.97502e-06 -4.6545e-25)
(0.00373315 -5.21884e-06 -2.80946e-24)
(0.00374748 -7.82468e-06 -1.97297e-24)
(0.00376506 -1.11495e-05 7.32245e-24)
(0.00378601 -1.5743e-05 3.10965e-24)
(0.00381075 -2.26289e-05 -4.4134e-24)
(0.00384016 -3.38905e-05 -1.80109e-24)
(0.00387477 -5.40243e-05 -1.40028e-24)
(0.0039139 -9.09558e-05 3.60575e-26)
(0.00395029 -0.000154686 1.04837e-24)
(0.00396569 -0.00023976 5.13516e-27)
(0.00509253 1.39807e-05 -2.65657e-26)
(0.00505174 7.5168e-06 -1.61574e-25)
(0.00503417 2.53921e-06 -1.01765e-25)
(0.00503222 -1.51158e-06 2.71371e-25)
(0.00503719 -4.77084e-06 -7.79889e-25)
(0.00504874 -8.66537e-06 1.98836e-24)
(0.00506502 -1.30749e-05 -3.46228e-25)
(0.00508484 -1.85162e-05 1.27751e-24)
(0.00510809 -2.58057e-05 -7.1006e-24)
(0.00513472 -3.62017e-05 1.3605e-23)
(0.00516465 -5.18332e-05 -1.32543e-23)
(0.00519681 -7.63379e-05 7.05982e-24)
(0.00522799 -0.00011441 -6.59374e-24)
(0.00525065 -0.000169043 6.22716e-24)
(0.00525467 -0.000232547 -2.47978e-24)
(0.00653894 2.27698e-05 3.50895e-26)
(0.00649064 1.24774e-05 1.24645e-25)
(0.00646928 4.60921e-06 -6.58323e-25)
(0.00646534 -1.74033e-06 -4.14507e-25)
(0.00647009 -6.85276e-06 1.10071e-24)
(0.00648202 -1.27784e-05 4.08587e-25)
(0.00649906 -1.93741e-05 -3.2404e-24)
(0.00651963 -2.72304e-05 7.79495e-24)
(0.00654328 -3.73469e-05 -1.02295e-23)
(0.00656937 -5.09806e-05 2.44078e-24)
(0.00659696 -6.98379e-05 7.59407e-24)
(0.00662409 -9.60908e-05 -1.06119e-23)
(0.0066472 -0.000131487 5.33085e-24)
(0.00666087 -0.000175431 5.43407e-24)
(0.00666067 -0.000221754 -4.13269e-24)
(0.00809428 3.40919e-05 2.89075e-26)
(0.00804182 1.89902e-05 -1.70331e-25)
(0.00801841 7.5521e-06 6.08915e-25)
(0.00801293 -1.52521e-06 -8.4448e-25)
(0.00801767 -9.20359e-06 -2.90093e-24)
(0.00802979 -1.74331e-05 4.96146e-24)
(0.00804665 -2.63847e-05 -3.05282e-24)
(0.00806681 -3.67566e-05 1.05143e-23)
(0.00808934 -4.95221e-05 -7.14798e-24)
(0.00811313 -6.57196e-05 -3.38191e-24)
(0.00813675 -8.6404e-05 -6.722e-24)
(0.00815811 -0.000112387 6.18691e-24)
(0.00817447 -0.000143557 1.74433e-24)
(0.00818269 -0.000178097 1.47523e-24)
(0.00818159 -0.000211915 -1.29751e-24)
(0.00974207 4.74365e-05 -4.11291e-26)
(0.00969132 2.67295e-05 5.59889e-25)
(0.00966926 1.118e-05 -1.30367e-24)
(0.0096644 -1.1867e-06 -1.0739e-24)
(0.00966994 -1.17126e-05 3.87936e-25)
(0.00968243 -2.24243e-05 7.83549e-25)
(0.00969909 -3.38281e-05 2.89368e-24)
(0.00971833 -4.66036e-05 -7.9718e-24)
(0.00973897 -6.15814e-05 -4.33419e-24)
(0.00975968 -7.94607e-05 1.18106e-23)
(0.00977898 -0.000100661 -3.68706e-24)
(0.00979512 -0.000125086 1.26023e-23)
(0.00980644 -0.000151829 -6.64328e-24)
(0.00981145 -0.000179092 -2.09139e-24)
(0.0098105 -0.000204417 1.23358e-24)
(0.0114575 6.12762e-05 -5.25612e-27)
(0.0114169 3.46285e-05 3.06072e-25)
(0.0114015 1.46886e-05 -4.36362e-25)
(0.0114009 -1.22624e-06 1.05212e-24)
(0.0114093 -1.47861e-05 -6.31515e-24)
(0.0114234 -2.80432e-05 6.68417e-24)
(0.0114406 -4.17624e-05 -1.0691e-23)
(0.0114593 -5.65993e-05 6.5511e-24)
(0.0114782 -7.31697e-05 4.92605e-24)
(0.0114962 -9.18243e-05 1.07718e-23)
(0.0115119 -0.000112523 -1.40836e-23)
(0.0115242 -0.000134743 -2.57836e-24)
(0.0115323 -0.000157467 1.24102e-24)
(0.0115356 -0.000179364 8.46228e-24)
(0.0115351 -0.000199051 -3.41951e-24)
(0.0132119 7.27306e-05 2.64081e-26)
(0.0131911 4.05612e-05 -1.22938e-25)
(0.0131886 1.63943e-05 5.67548e-25)
(0.0131968 -2.95962e-06 -2.00366e-24)
(0.0132112 -1.9473e-05 3.05314e-24)
(0.0132291 -3.51062e-05 -3.97754e-24)
(0.0132485 -5.08017e-05 6.70659e-24)
(0.0132678 -6.71731e-05 1.20533e-24)
(0.0132862 -8.46266e-05 -9.33084e-24)
(0.0133026 -0.00010325 1.33176e-23)
(0.0133162 -0.000122771 -1.46909e-23)
(0.0133265 -0.000142593 -4.2635e-24)
(0.0133332 -0.000161894 7.58986e-24)
(0.0133361 -0.000179837 2.21661e-24)
(0.0133366 -0.000195697 -9.61904e-25)
(0.0149845 7.7892e-05 8.11138e-26)
(0.01499 4.14297e-05 -9.07281e-25)
(0.0150055 1.37392e-05 -1.57807e-24)
(0.0150263 -8.55045e-06 3.6936e-24)
(0.0150496 -2.75733e-05 1.68794e-24)
(0.0150736 -4.51481e-05 -1.06135e-23)
(0.0150969 -6.22816e-05 3.24914e-24)
(0.0151186 -7.95308e-05 2.36323e-24)
(0.015138 -9.71493e-05 -1.03137e-23)
(0.0151546 -0.00011509 1.07662e-23)
(0.015168 -0.000133038 -8.51263e-24)
(0.015178 -0.000150509 2.19356e-23)
(0.015185 -0.000166954 -1.04474e-23)
(0.0151888 -0.000181911 6.0964e-24)
(0.0151909 -0.000195041 -1.6485e-24)
(0.0167767 7.35718e-05 1.84532e-27)
(0.0168073 3.43115e-05 5.4384e-25)
(0.0168407 4.10717e-06 -1.19229e-24)
(0.0168745 -2.03371e-05 -6.53256e-25)
(0.0169073 -4.11785e-05 7.21602e-24)
(0.0169381 -6.00628e-05 -1.00688e-24)
(0.0169662 -7.79663e-05 -1.30133e-23)
(0.0169911 -9.53947e-05 1.52395e-23)
(0.0170126 -0.000112528 -3.4358e-24)
(0.0170306 -0.000129301 -1.18425e-23)
(0.0170452 -0.000145473 1.25808e-23)
(0.0170564 -0.000160733 6.6396e-24)
(0.0170648 -0.000174772 -5.74523e-24)
(0.0170705 -0.000187377 -9.65992e-24)
(0.0170747 -0.000198426 8.00914e-25)
(0.0186153 5.9982e-05 -3.47051e-26)
(0.0186606 1.87213e-05 -5.2302e-25)
(0.0187049 -1.3254e-05 3.01228e-24)
(0.0187469 -3.91882e-05 3.25648e-25)
(0.0187858 -6.12101e-05 1.96979e-24)
(0.018821 -8.08028e-05 -6.7998e-24)
(0.0188522 -9.8875e-05 5.90503e-24)
(0.0188794 -0.000115909 1.35896e-24)
(0.0189026 -0.00013209 1.21501e-23)
(0.0189219 -0.000147413 -1.88314e-23)
(0.0189379 -0.000161761 -8.445e-24)
(0.0189505 -0.000174991 -5.45756e-24)
(0.0189607 -0.000186974 1.03932e-23)
(0.0189683 -0.000197648 -2.81412e-25)
(0.0189745 -0.000207009 9.81454e-25)
(0.0205281 4.11886e-05 -3.19828e-26)
(0.0205747 -2.05776e-06 3.9676e-25)
(0.0206197 -3.56809e-05 -6.02227e-25)
(0.0206618 -6.29065e-05 -2.14468e-26)
(0.0207005 -8.58196e-05 1.27666e-24)
(0.0207352 -0.000105803 3.37207e-24)
(0.0207658 -0.000123726 -1.30739e-23)
(0.0207923 -0.000140093 1.08006e-24)
(0.020815 -0.000155154 6.71035e-24)
(0.0208341 -0.000169005 -3.06009e-24)
(0.02085 -0.000181662 8.37448e-24)
(0.020863 -0.000193116 5.74023e-24)
(0.0208738 -0.000203366 -1.04664e-23)
(0.0208823 -0.000212441 6.99968e-24)
(0.0208897 -0.000220399 -5.80666e-24)
(0.0225048 2.17293e-05 -7.61845e-25)
(0.0225447 -2.34272e-05 9.50551e-25)
(0.0225833 -5.86958e-05 5.13237e-25)
(0.0226194 -8.72051e-05 -4.66092e-24)
(0.0226526 -0.000110945 4.26468e-24)
(0.0226823 -0.00013124 -3.59306e-24)
(0.0227086 -0.000148963 2.5283e-24)
(0.0227314 -0.000164675 -1.88577e-23)
(0.022751 -0.000178717 2.72186e-23)
(0.0227676 -0.000191299 -1.60498e-23)
(0.0227816 -0.000202548 1.43263e-23)
(0.0227933 -0.00021256 1.17762e-23)
(0.0228032 -0.000221416 -2.05511e-23)
(0.0228112 -0.000229203 6.62884e-24)
(0.0228183 -0.00023601 -2.74715e-25)
(0.024481 3.733e-06 -2.52242e-26)
(0.0245133 -4.27809e-05 1.10441e-24)
(0.024544 -7.93489e-05 -1.23306e-24)
(0.0245724 -0.000108866 -1.14871e-25)
(0.0245984 -0.000133213 1.46924e-24)
(0.0246216 -0.000153684 -2.72581e-24)
(0.0246422 -0.000171172 2.77345e-24)
(0.0246599 -0.000186299 -9.245e-24)
(0.0246752 -0.00019949 2.13366e-23)
(0.0246882 -0.000211046 -2.75494e-23)
(0.0246992 -0.00022118 2.26264e-23)
(0.0247083 -0.000230062 -7.64569e-24)
(0.0247162 -0.000237825 3.79699e-25)
(0.0247226 -0.000244588 1.68205e-24)
(0.0247283 -0.000250458 -3.26729e-24)
(0.0263526 -1.33575e-05 -2.05174e-24)
(0.0263795 -6.01425e-05 5.13492e-24)
(0.0264039 -9.72436e-05 -3.42535e-24)
(0.0264259 -0.000127161 4.12452e-25)
(0.0264457 -0.000151658 7.29381e-25)
(0.0264632 -0.000172 -1.23114e-24)
(0.0264786 -0.000189094 -2.00392e-24)
(0.0264917 -0.000203605 -5.37606e-24)
(0.026503 -0.000216013 2.31737e-24)
(0.0265125 -0.000226679 1.33186e-23)
(0.0265205 -0.000235872 -7.14155e-24)
(0.0265271 -0.000243803 4.33418e-24)
(0.0265327 -0.000250639 -1.79233e-24)
(0.0265372 -0.000256521 -5.26598e-24)
(0.0265412 -0.000261559 2.68771e-24)
(0.0279921 -3.09662e-05 6.7624e-25)
(0.0280154 -7.67194e-05 -1.3268e-24)
(0.0280356 -0.000113384 -2.71289e-24)
(0.0280531 -0.000142962 6.34739e-24)
(0.0280685 -0.000167076 -1.54853e-24)
(0.0280819 -0.000186925 -1.72526e-24)
(0.0280935 -0.000203413 9.05707e-26)
(0.0281033 -0.000217206 -1.13225e-24)
(0.0281116 -0.000228809 7.99707e-25)
(0.0281185 -0.000238616 -1.62156e-24)
(0.0281242 -0.000246924 3.66858e-24)
(0.0281288 -0.000253964 2.09311e-24)
(0.0281327 -0.000259917 -7.71018e-24)
(0.0281357 -0.000264933 5.40806e-24)
(0.0281382 -0.000269127 -1.11556e-24)
(0.0292457 -4.94331e-05 2.02807e-24)
(0.0292666 -9.31915e-05 4.51315e-24)
(0.0292839 -0.000128591 -9.58142e-24)
(0.0292984 -0.00015721 -3.84125e-24)
(0.0293106 -0.000180488 7.28541e-24)
(0.0293207 -0.000199509 3.17608e-24)
(0.0293292 -0.000215171 -2.08089e-25)
(0.029336 -0.00022811 -4.69983e-24)
(0.0293415 -0.000238827 -1.47642e-25)
(0.0293458 -0.000247725 -3.74601e-25)
(0.0293491 -0.000255107 1.07917e-24)
(0.0293514 -0.000261207 -1.29731e-25)
(0.0293531 -0.00026621 -1.78705e-25)
(0.029354 -0.000270267 2.64882e-25)
(0.0293546 -0.000273489 -1.29395e-25)
(0.0299124 -6.80015e-05 -5.44148e-24)
(0.0299276 -0.000108081 -1.35527e-23)
(0.0299385 -0.000140653 4.70089e-24)
(0.0299464 -0.000167054 2.89026e-23)
(0.0299521 -0.000188478 -8.7202e-24)
(0.0299561 -0.000205921 -5.77777e-24)
(0.0299589 -0.000220162 3.78576e-24)
(0.0299605 -0.000231804 9.83781e-24)
(0.0299611 -0.000241318 -1.78824e-23)
(0.029961 -0.000249068 6.62699e-24)
(0.0299602 -0.000255336 -2.97951e-25)
(0.0299588 -0.000260347 1.65434e-24)
(0.029957 -0.00026427 2.92299e-25)
(0.0299547 -0.000267243 3.77863e-27)
(0.0299521 -0.000269371 -1.67304e-25)
(0.0297603 -8.69821e-05 8.7971e-24)
(0.0297728 -0.000121808 -2.07927e-23)
(0.0297814 -0.000150163 2.88821e-24)
(0.0297871 -0.000173174 3.51175e-23)
(0.0297907 -0.000191846 -3.59336e-23)
(0.0297926 -0.000206999 1.44947e-23)
(0.0297932 -0.000219292 1.52215e-23)
(0.0297927 -0.000229244 -3.57912e-23)
(0.0297913 -0.00023725 -3.35584e-25)
(0.0297892 -0.000243624 1.28284e-23)
(0.0297864 -0.000248602 3.86862e-24)
(0.0297831 -0.000252376 -2.7314e-24)
(0.0297793 -0.000255092 2.29846e-24)
(0.0297751 -0.000256875 -8.1312e-25)
(0.0297706 -0.000257818 2.56354e-25)
(0.0288133 -9.90791e-05 5.53131e-24)
(0.0288193 -0.000128947 -1.18367e-23)
(0.0288221 -0.000153414 -8.8009e-24)
(0.0288228 -0.000173358 4.13554e-23)
(0.0288218 -0.000189582 -3.92511e-23)
(0.0288195 -0.000202742 3.73275e-24)
(0.0288161 -0.000213368 7.03035e-24)
(0.0288119 -0.000221879 4.4401e-24)
(0.0288071 -0.000228603 4.84593e-24)
(0.0288016 -0.000233795 -2.59921e-23)
(0.0287957 -0.000237651 1.63452e-23)
(0.0287893 -0.000240332 3.0582e-25)
(0.0287825 -0.000241964 8.21133e-24)
(0.0287754 -0.000242654 -3.78474e-24)
(0.0287679 -0.000242482 -7.56115e-25)
(0.0273096 -0.000104245 1.38743e-23)
(0.0273119 -0.000129806 -2.47942e-23)
(0.0273111 -0.000150837 5.01651e-24)
(0.0273082 -0.000168028 -1.27788e-23)
(0.0273035 -0.000182023 -1.73265e-23)
(0.0272976 -0.000193346 5.75723e-23)
(0.0272906 -0.000202417 -2.29011e-23)
(0.0272829 -0.000209574 6.78091e-24)
(0.0272745 -0.00021508 -3.89723e-24)
(0.0272656 -0.000219143 -1.08399e-23)
(0.0272562 -0.000221922 2.09078e-23)
(0.0272465 -0.000223553 -1.22242e-23)
(0.0272364 -0.000224143 1.51814e-24)
(0.0272261 -0.000223788 2.00106e-24)
(0.0272155 -0.000222561 -2.29967e-25)
(0.0254617 -0.00010647 5.37227e-24)
(0.0254595 -0.000127606 -2.79484e-23)
(0.0254542 -0.000145047 4.8789e-23)
(0.0254469 -0.000159334 -3.75128e-23)
(0.0254378 -0.000170968 3.8071e-23)
(0.0254276 -0.000180342 -1.24443e-23)
(0.0254164 -0.000187778 -8.74061e-24)
(0.0254045 -0.000193531 -9.90982e-24)
(0.0253919 -0.000197802 1.81474e-23)
(0.025379 -0.00020075 -1.5692e-25)
(0.0253657 -0.000202502 -1.79419e-23)
(0.0253521 -0.00020317 -2.48401e-24)
(0.0253382 -0.00020285 4.38059e-24)
(0.0253242 -0.000201625 -9.71999e-25)
(0.02531 -0.000199565 2.11509e-25)
(0.0234148 -0.000103366 7.17057e-25)
(0.0234067 -0.000120492 -1.05141e-23)
(0.0233958 -0.000134673 -5.93883e-24)
(0.0233831 -0.0001463 4.83519e-23)
(0.023369 -0.000155743 -4.76929e-23)
(0.0233538 -0.000163299 1.39771e-23)
(0.0233377 -0.00016921 2.37974e-24)
(0.0233211 -0.000173669 -1.2624e-24)
(0.0233041 -0.000176825 -6.0433e-24)
(0.0232867 -0.000178802 2.64733e-23)
(0.0232691 -0.000179701 -2.11953e-23)
(0.0232514 -0.000179614 -1.01042e-24)
(0.0232335 -0.000178616 1.86768e-24)
(0.0232156 -0.000176775 1.62615e-24)
(0.0231977 -0.000174145 -1.26943e-24)
(0.0212694 -9.52417e-05 1.06859e-24)
(0.0212551 -0.000108876 9.75985e-24)
(0.0212385 -0.0001202 -1.12e-23)
(0.0212205 -0.00012949 -7.76313e-24)
(0.0212014 -0.000137019 4.94642e-23)
(0.0211814 -0.000143003 -3.783e-23)
(0.0211609 -0.000147619 -8.49216e-25)
(0.02114 -0.000151004 -7.86753e-24)
(0.0211188 -0.000153272 -6.42875e-25)
(0.0210976 -0.000154516 1.12709e-24)
(0.0210762 -0.000154816 -4.32055e-24)
(0.0210549 -0.00015424 3.48804e-24)
(0.0210337 -0.000152846 1.21046e-24)
(0.0210128 -0.000150686 1.09408e-24)
(0.020992 -0.000147806 1.25637e-24)
(0.0191022 -8.33247e-05 7.61894e-24)
(0.019083 -9.40658e-05 -1.16811e-23)
(0.019062 -0.000103019 -9.35781e-24)
(0.01904 -0.000110398 2.85441e-23)
(0.0190171 -0.000116398 -1.02228e-23)
(0.0189937 -0.000121166 -1.43595e-23)
(0.01897 -0.000124816 5.01953e-24)
(0.0189461 -0.000127444 1.12304e-23)
(0.0189221 -0.00012913 -1.78938e-23)
(0.0188982 -0.000129946 1.77522e-23)
(0.0188745 -0.000129949 -9.49381e-24)
(0.0188511 -0.00012919 4.0753e-24)
(0.0188279 -0.000127714 -5.34811e-24)
(0.0188052 -0.000125565 5.31176e-24)
(0.0187829 -0.000122782 -1.28167e-24)
(0.0169747 -6.96128e-05 -1.4787e-24)
(0.0169527 -7.80677e-05 -5.12102e-24)
(0.0169294 -8.5172e-05 -1.62842e-23)
(0.0169053 -9.1096e-05 4.54667e-23)
(0.0168805 -9.59575e-05 -8.16771e-24)
(0.0168554 -9.98416e-05 -1.27802e-23)
(0.0168301 -0.000102822 4.4106e-24)
(0.0168049 -0.000104964 -6.39978e-24)
(0.0167797 -0.000106329 -1.38207e-23)
(0.0167547 -0.000106965 1.33081e-23)
(0.01673 -0.000106914 6.35168e-25)
(0.0167058 -0.000106215 -4.2977e-24)
(0.016682 -0.000104902 4.8993e-24)
(0.0166588 -0.000103009 3.04785e-25)
(0.0166362 -0.000100568 -3.84195e-25)
(0.014933 -5.6004e-05 5.68971e-24)
(0.0149103 -6.2688e-05 8.34033e-24)
(0.0148865 -6.83713e-05 -7.8054e-24)
(0.014862 -7.31844e-05 -1.69503e-23)
(0.014837 -7.71832e-05 2.27625e-23)
(0.0148117 -8.04149e-05 -2.48677e-23)
(0.0147862 -8.29279e-05 -9.4568e-25)
(0.0147608 -8.47677e-05 9.61507e-24)
(0.0147356 -8.59736e-05 3.34402e-24)
(0.0147106 -8.65785e-05 -6.93106e-24)
(0.014686 -8.66119e-05 -2.75422e-26)
(0.0146618 -8.6102e-05 1.42778e-23)
(0.0146382 -8.50737e-05 -5.45691e-24)
(0.0146152 -8.35532e-05 -1.40022e-24)
(0.014593 -8.15626e-05 -8.90248e-26)
(0.0130061 -4.36893e-05 -5.91015e-24)
(0.0129841 -4.89679e-05 7.60547e-24)
(0.0129611 -5.35254e-05 8.48535e-25)
(0.0129375 -5.74539e-05 1.52878e-23)
(0.0129132 -6.07647e-05 -1.24814e-23)
(0.0128887 -6.34821e-05 9.78799e-25)
(0.0128639 -6.56369e-05 -1.34013e-24)
(0.0128392 -6.72576e-05 -3.89929e-24)
(0.0128145 -6.83688e-05 3.4058e-24)
(0.0127901 -6.89922e-05 -1.10107e-23)
(0.012766 -6.91483e-05 7.40974e-25)
(0.0127423 -6.88566e-05 2.61335e-24)
(0.0127192 -6.81344e-05 1.6441e-24)
(0.0126967 -6.70005e-05 6.51344e-25)
(0.012675 -6.54699e-05 2.4377e-25)
(0.0112084 -3.31529e-05 4.37842e-24)
(0.011188 -3.72813e-05 -3.46661e-24)
(0.0111666 -4.09157e-05 -1.5165e-23)
(0.0111443 -4.41015e-05 1.42382e-23)
(0.0111214 -4.68223e-05 1.98011e-23)
(0.0110981 -4.9091e-05 -5.04939e-24)
(0.0110745 -5.0927e-05 -1.02247e-23)
(0.0110508 -5.23467e-05 -1.4312e-23)
(0.011027 -5.33651e-05 1.07937e-23)
(0.0110034 -5.3996e-05 6.3806e-25)
(0.01098 -5.42532e-05 -2.43538e-24)
(0.010957 -5.41494e-05 -6.7361e-25)
(0.0109345 -5.36957e-05 1.38283e-24)
(0.0109126 -5.29048e-05 -3.94502e-26)
(0.0108913 -5.17864e-05 -2.7996e-25)
(0.0095439 -2.44502e-05 -2.75658e-24)
(0.00952542 -2.76217e-05 -1.95413e-24)
(0.0095059 -3.0475e-05 2.39286e-24)
(0.00948543 -3.30078e-05 -7.53586e-24)
(0.00946421 -3.51952e-05 2.47226e-23)
(0.00944241 -3.70464e-05 -3.27291e-23)
(0.00942019 -3.85727e-05 3.20744e-23)
(0.00939771 -3.97826e-05 -1.35791e-23)
(0.00937509 -4.06848e-05 3.0929e-24)
(0.00935247 -4.12879e-05 5.58091e-26)
(0.00932999 -4.16004e-05 -2.41401e-24)
(0.00930778 -4.16299e-05 8.45079e-25)
(0.00928593 -4.13831e-05 -1.87644e-24)
(0.0092646 -4.08676e-05 -2.56949e-25)
(0.00924386 -4.00892e-05 1.31422e-25)
(0.00801029 -1.74454e-05 -1.34017e-24)
(0.00799397 -1.98193e-05 3.45565e-25)
(0.00797652 -2.19995e-05 7.45845e-25)
(0.00795803 -2.39494e-05 -3.44375e-24)
(0.00793868 -2.56494e-05 -1.54371e-24)
(0.00791863 -2.71075e-05 1.34158e-23)
(0.00789805 -2.83292e-05 -7.88338e-24)
(0.00787707 -2.93185e-05 1.12786e-24)
(0.00785584 -3.00799e-05 -1.09165e-24)
(0.0078345 -3.06184e-05 -1.18192e-24)
(0.00781317 -3.0939e-05 -3.51215e-25)
(0.00779198 -3.10454e-05 2.26853e-24)
(0.00777106 -3.09413e-05 6.06548e-25)
(0.00775054 -3.06305e-05 -1.3737e-24)
(0.00773051 -3.01164e-05 -2.19376e-25)
(0.00660211 -1.19449e-05 -4.87713e-25)
(0.00658804 -1.36606e-05 -1.60068e-25)
(0.0065728 -1.52619e-05 -7.82916e-24)
(0.00655646 -1.66982e-05 2.08657e-24)
(0.0065392 -1.79612e-05 -5.6e-24)
(0.00652117 -1.90573e-05 3.94169e-24)
(0.00650251 -1.99885e-05 7.42823e-24)
(0.00648337 -2.07562e-05 5.56031e-24)
(0.00646388 -2.13626e-05 -7.79909e-24)
(0.00644417 -2.18102e-05 2.34913e-24)
(0.00642436 -2.21013e-05 2.01316e-24)
(0.0064046 -2.22375e-05 -2.90935e-24)
(0.00638499 -2.22205e-05 1.55082e-24)
(0.00636568 -2.20515e-05 -1.30595e-25)
(0.00634674 -2.17322e-05 4.12012e-25)
(0.00531246 -7.75035e-06 -1.91195e-24)
(0.0053007 -8.93278e-06 -2.61058e-24)
(0.00528777 -1.00456e-05 -4.64308e-25)
(0.00527376 -1.10437e-05 6.4873e-24)
(0.00525882 -1.19286e-05 -4.57795e-24)
(0.00524308 -1.27045e-05 -8.81364e-25)
(0.00522669 -1.33719e-05 7.35004e-24)
(0.00520975 -1.39307e-05 1.77386e-26)
(0.00519241 -1.43818e-05 -1.48563e-24)
(0.00517477 -1.47259e-05 -5.45088e-24)
(0.00515696 -1.49641e-05 5.90886e-25)
(0.00513911 -1.50965e-05 3.7707e-24)
(0.00512131 -1.51236e-05 -4.85957e-25)
(0.0051037 -1.50453e-05 -5.42497e-25)
(0.00508637 -1.48618e-05 3.62398e-25)
(0.00413397 -4.67079e-06 -4.18343e-25)
(0.00412454 -5.43398e-06 2.56239e-26)
(0.004114 -6.15011e-06 3.11772e-24)
(0.00410246 -6.79122e-06 2.07529e-24)
(0.00409005 -7.36419e-06 -1.44197e-24)
(0.00407689 -7.87147e-06 -3.54025e-24)
(0.00406307 -8.31265e-06 1.42821e-24)
(0.00404872 -8.68722e-06 -5.99434e-24)
(0.00403394 -8.99509e-06 4.61563e-24)
(0.00401883 -9.23625e-06 2.37125e-24)
(0.0040035 -9.41085e-06 -2.78564e-27)
(0.00398806 -9.51855e-06 -2.60045e-24)
(0.0039726 -9.55927e-06 4.77212e-25)
(0.00395725 -9.53227e-06 -3.69702e-25)
(0.00394207 -9.43691e-06 1.86643e-25)
(0.00305925 -2.52371e-06 -7.71301e-25)
(0.00305211 -2.97491e-06 1.7484e-26)
(0.003044 -3.3891e-06 2.50417e-24)
(0.00303504 -3.75833e-06 -1.56482e-24)
(0.00302533 -4.09032e-06 6.40622e-24)
(0.00301495 -4.38633e-06 -1.16607e-23)
(0.00300399 -4.64586e-06 9.47736e-24)
(0.00299254 -4.86835e-06 -7.89261e-24)
(0.00298068 -5.05348e-06 5.66183e-24)
(0.00296851 -5.20101e-06 -3.63016e-24)
(0.0029561 -5.31084e-06 1.24786e-24)
(0.00294355 -5.38253e-06 1.81414e-25)
(0.00293093 -5.41594e-06 2.9493e-25)
(0.00291835 -5.41043e-06 -3.66164e-25)
(0.00290587 -5.36505e-06 7.71927e-26)
(0.0020811 -1.13515e-06 1.17214e-24)
(0.00207616 -1.36884e-06 1.26121e-24)
(0.00207047 -1.57287e-06 -5.39608e-24)
(0.00206412 -1.75289e-06 3.93968e-24)
(0.00205719 -1.91419e-06 -4.09576e-26)
(0.00204973 -2.05744e-06 1.00482e-24)
(0.00204181 -2.1826e-06 -1.23328e-24)
(0.0020335 -2.2896e-06 -2.5661e-24)
(0.00202484 -2.37851e-06 2.54389e-24)
(0.00201592 -2.44938e-06 2.66189e-25)
(0.00200678 -2.50239e-06 -2.03224e-24)
(0.00199751 -2.53744e-06 7.2712e-25)
(0.00198815 -2.55466e-06 4.38693e-25)
(0.00197877 -2.55325e-06 -5.07437e-26)
(0.00196945 -2.53173e-06 -5.19366e-26)
(0.00119257 -3.39079e-07 -1.18473e-24)
(0.00118969 -4.04484e-07 3.61707e-24)
(0.00118633 -4.6127e-07 2.14372e-24)
(0.00118256 -5.14037e-07 -3.87245e-24)
(0.00117841 -5.6301e-07 -4.53012e-25)
(0.00117392 -6.07791e-07 -4.01265e-25)
(0.00116914 -6.48343e-07 1.21894e-24)
(0.00116408 -6.84796e-07 -2.05389e-24)
(0.00115881 -7.17378e-07 2.78836e-24)
(0.00115334 -7.46298e-07 -1.36362e-24)
(0.00114772 -7.71796e-07 -8.8635e-25)
(0.001142 -7.93934e-07 5.36587e-25)
(0.0011362 -8.12822e-07 -6.47152e-25)
(0.00113037 -8.25567e-07 6.5298e-25)
(0.00112456 -8.2864e-07 -1.12582e-25)
(0.000387034 1.2096e-08 -8.50768e-27)
(0.000386024 1.08716e-07 7.06564e-25)
(0.00038485 1.77432e-07 8.04928e-25)
(0.000383538 2.20703e-07 -1.2657e-24)
(0.000382098 2.42806e-07 2.61019e-24)
(0.000380541 2.47201e-07 -2.83166e-24)
(0.000378877 2.36765e-07 1.84714e-25)
(0.000377117 2.14027e-07 1.54776e-24)
(0.000375274 1.81247e-07 -2.13963e-24)
(0.00037336 1.40481e-07 -3.86119e-25)
(0.000371387 9.35769e-08 1.47413e-24)
(0.00036937 4.22469e-08 -6.50293e-25)
(0.000367322 -1.19681e-08 -2.44716e-25)
(0.000365257 -6.56861e-08 2.05365e-25)
(0.00036319 -1.15467e-07 -9.35529e-27)
(0.000945684 -0.000228942 5.93439e-26)
(0.00108802 -0.000133045 1.36917e-24)
(0.00132853 -3.84115e-05 -3.71897e-24)
(0.00157586 3.62605e-05 4.97524e-24)
(0.00181543 9.30263e-05 -1.85882e-24)
(0.0020518 0.000132675 -1.49939e-24)
(0.00228443 0.000157748 1.58108e-24)
(0.00251342 0.000170413 -2.84551e-24)
(0.00273902 0.000172546 2.88904e-25)
(0.00296144 0.000165796 1.64131e-24)
(0.00318098 0.000151621 -2.86776e-25)
(0.00339794 0.000131309 2.89582e-25)
(0.00361267 0.00010601 -3.74362e-26)
(0.00382552 7.68377e-05 1.2568e-25)
(0.00403692 4.50308e-05 -4.42116e-25)
(0.00424736 1.21581e-05 2.20898e-25)
(0.00445798 -1.96544e-05 -1.51125e-26)
(0.00467026 -4.74933e-05 3.00585e-26)
(0.00488755 -6.80354e-05 -9.7685e-26)
(0.00511423 -7.73655e-05 7.88813e-26)
(0.00535718 -7.30117e-05 -1.61856e-26)
(0.00562268 -5.49284e-05 1.43365e-26)
(0.00589201 -3.10251e-05 -2.06819e-26)
(0.00613254 -1.37818e-05 -5.26676e-26)
(0.00633151 -7.88321e-06 9.86288e-26)
(0.00648809 -1.36762e-05 5.12196e-26)
(0.00660371 -3.05953e-05 1.5181e-26)
(0.00668069 -5.82041e-05 -1.83938e-25)
(0.00672127 -9.62566e-05 -5.80696e-25)
(0.00672611 -0.000142911 1.23911e-24)
(0.00669425 -0.000195965 -2.25846e-24)
(0.00662565 -0.000253059 3.06765e-24)
(0.00652027 -0.000307062 -1.28946e-24)
(0.00637715 -0.000350998 -2.68111e-24)
(0.00619677 -0.000376799 2.66725e-24)
(0.00598027 -0.00037525 1.08398e-23)
(0.00572937 -0.000336013 -3.8115e-24)
(0.00544629 -0.000246943 1.76617e-24)
(0.00513389 -9.26384e-05 6.48038e-25)
(0.00479642 0.000147424 -1.27848e-23)
(0.0044387 0.000497109 -1.49079e-25)
(0.00406719 0.000971513 4.88644e-24)
(0.00366853 0.00153488 1.33847e-24)
(0.00326366 0.00204109 -6.65102e-24)
(0.00303699 0.00207891 -3.11723e-25)
(0.00179553 -0.000314469 -1.66661e-24)
(0.00185718 -0.00025712 -2.06272e-24)
(0.00200949 -0.000166422 4.47791e-24)
(0.00220027 -8.468e-05 1.72114e-24)
(0.00240406 -1.73273e-05 -5.96192e-24)
(0.00261544 3.332e-05 5.90129e-24)
(0.0028297 6.86617e-05 -2.05356e-24)
(0.00304446 9.06711e-05 1.35744e-24)
(0.00325856 0.00010122 -1.81131e-24)
(0.00347133 0.000102013 3.1239e-26)
(0.0036825 9.45866e-05 -7.94282e-25)
(0.00389195 8.03125e-05 1.54457e-24)
(0.00409972 6.04195e-05 -8.00892e-25)
(0.00430588 3.60968e-05 -5.57551e-25)
(0.00451061 8.64416e-06 -1.70921e-25)
(0.00471414 -2.03438e-05 6.41147e-25)
(0.00491726 -4.87365e-05 4.70728e-26)
(0.00512106 -7.36787e-05 1.37249e-26)
(0.00532839 -9.19362e-05 -8.81626e-26)
(0.00554298 -9.96817e-05 5.37828e-26)
(0.00577113 -9.44452e-05 4.46809e-26)
(0.00601873 -7.59269e-05 2.87919e-26)
(0.00626914 -5.15297e-05 -1.17878e-25)
(0.00649314 -3.3127e-05 -8.07468e-26)
(0.00667928 -2.51951e-05 1.13615e-25)
(0.00682669 -2.81649e-05 3.51385e-25)
(0.00693637 -4.1539e-05 -5.04138e-25)
(0.00701009 -6.48529e-05 4.58583e-25)
(0.00704978 -9.77278e-05 -1.60164e-25)
(0.00705565 -0.000138002 3.6485e-25)
(0.00702699 -0.000183314 -3.62864e-24)
(0.00696367 -0.000231414 7.03726e-24)
(0.00686613 -0.00027499 -6.86674e-24)
(0.00673379 -0.000307106 1.54648e-23)
(0.00656775 -0.000319877 -2.11497e-23)
(0.00637007 -0.000304264 5.37119e-24)
(0.00614383 -0.000250157 1.76391e-23)
(0.00589326 -0.000145821 -5.50435e-24)
(0.0056245 2.32429e-05 -1.28604e-23)
(0.00534727 0.000275998 -7.05087e-24)
(0.00507662 0.000634877 1.6052e-23)
(0.00483805 0.00111497 -1.48538e-23)
(0.00465422 0.00168189 -2.70651e-24)
(0.00457463 0.00217977 8.88514e-24)
(0.00461368 0.00216263 2.51308e-24)
(0.00280618 -0.000325018 -1.83859e-26)
(0.00281838 -0.000312018 -2.45262e-24)
(0.00288742 -0.000255754 4.60613e-24)
(0.003011 -0.00018526 3.27051e-24)
(0.0031637 -0.000118543 -5.55223e-24)
(0.00333588 -6.3122e-05 1.39386e-25)
(0.00351977 -2.08527e-05 4.48398e-25)
(0.00371041 8.74302e-06 4.24532e-24)
(0.00390478 2.68359e-05 -4.96608e-24)
(0.004101 3.48021e-05 2.7837e-24)
(0.00429791 3.40468e-05 6.72261e-25)
(0.00449477 2.59049e-05 -4.11709e-24)
(0.00469111 1.1615e-05 1.46549e-24)
(0.0048866 -7.60296e-06 4.87546e-25)
(0.00508107 -3.04137e-05 -7.74882e-25)
(0.00527439 -5.5215e-05 9.68275e-25)
(0.00546698 -7.98929e-05 -4.41301e-25)
(0.00565942 -0.000101653 1.17641e-25)
(0.005854 -0.000117366 5.88359e-26)
(0.00605374 -0.000123302 -2.77259e-26)
(0.00626425 -0.000117004 -1.28599e-27)
(0.0064909 -9.79273e-05 -5.55818e-26)
(0.00671922 -7.29796e-05 1.1486e-25)
(0.00692376 -5.34143e-05 -3.00126e-25)
(0.00709446 -4.34702e-05 3.8312e-25)
(0.00723046 -4.36301e-05 -2.02735e-25)
(0.00733237 -5.34441e-05 5.43155e-25)
(0.00740133 -7.24211e-05 -7.65806e-25)
(0.00743902 -0.000100046 1.36517e-24)
(0.00744495 -0.000133832 7.22008e-25)
(0.00741918 -0.000171271 1.57846e-24)
(0.00736102 -0.000210284 -8.15742e-24)
(0.00727155 -0.000243339 3.19567e-24)
(0.0071506 -0.000263634 7.87402e-24)
(0.00699994 -0.000263583 -1.7721e-23)
(0.00682261 -0.000234542 2.55472e-23)
(0.00662305 -0.000167014 -1.63611e-23)
(0.00640753 -5.03352e-05 2.07149e-23)
(0.00618517 0.000127846 -3.86335e-23)
(0.00597016 0.000382403 1.45027e-23)
(0.00578446 0.00072899 4.77639e-24)
(0.00566261 0.00117365 6.94408e-24)
(0.00563748 0.00167537 -8.60979e-24)
(0.00574691 0.00208833 2.09209e-24)
(0.00590604 0.00206177 -1.21587e-24)
(0.00395676 -0.00031064 -6.71688e-25)
(0.00394267 -0.000324704 -9.40069e-25)
(0.00395879 -0.000301106 -3.80785e-24)
(0.00401782 -0.000254775 1.36593e-24)
(0.00411437 -0.000199613 8.79268e-25)
(0.00423806 -0.000147667 2.61986e-24)
(0.00438136 -0.000104019 -4.70978e-24)
(0.00453811 -7.04084e-05 1.96094e-24)
(0.00470394 -4.70095e-05 5.34013e-24)
(0.00487575 -3.32404e-05 -1.48007e-24)
(0.00505144 -2.81255e-05 -1.23001e-24)
(0.0052295 -3.0557e-05 -1.78194e-25)
(0.00540885 -3.9413e-05 5.07282e-25)
(0.00558865 -5.3525e-05 -9.04852e-25)
(0.00576829 -7.15767e-05 2.4791e-25)
(0.0059472 -9.19986e-05 2.58531e-26)
(0.00612536 -0.000112714 2.26911e-26)
(0.00630279 -0.000131022 2.05311e-25)
(0.00648117 -0.000143919 -2.8747e-25)
(0.00666271 -0.000147797 -9.55994e-27)
(0.00685224 -0.000140233 1.5081e-25)
(0.00705446 -0.00012046 4.6799e-26)
(0.0072572 -9.49126e-05 2.05914e-25)
(0.00743899 -7.42028e-05 -4.50201e-26)
(0.00759129 -6.22979e-05 2.99756e-25)
(0.0077133 -5.9697e-05 -5.83604e-25)
(0.00780521 -6.59709e-05 5.90526e-25)
(0.00786757 -8.06073e-05 -1.30227e-24)
(0.00790186 -0.000102913 1.68529e-24)
(0.00790644 -0.000130247 -7.39562e-26)
(0.00788316 -0.00015966 -1.52847e-24)
(0.00782986 -0.000189659 -2.44022e-25)
(0.0077484 -0.000212333 -2.74235e-25)
(0.00763922 -0.000221184 -1.95897e-24)
(0.0075047 -0.000209094 3.22897e-24)
(0.0073488 -0.000168095 -7.41402e-24)
(0.00717722 -8.97296e-05 3.23734e-23)
(0.0069979 3.49078e-05 -1.74096e-23)
(0.00682203 0.000215019 -1.0089e-24)