/*--------------------------------*- C++ -*----------------------------------*\
| =========                 |                                                 |
| \\      /  F ield         | OpenFOAM: The Open Source CFD Toolbox           |
|  \\    /   O peration     | Version:  2312                                  |
|   \\  /    A nd           | Website:  www.openfoam.com                      |
|    \\/     M anipulation  |                                                 |
\*---------------------------------------------------------------------------*/
FoamFile
{
    version     2.0;
    format      ascii;
    arch        "LSB;label=32;scalar=64";
    class       surfaceScalarField;
    location    "1.5";
    object      phi;
}
// * * * * * * * * * * * * * * * * * * * * * * * * * * * * * * * * * * * * * //

dimensions      [0 3 -1 0 0 0 0];

oriented        oriented;

internalField   nonuniform List<scalar> 
9445
(
5.72837e-10
1.23736e-11
5.65335e-10
7.50144e-12
5.60949e-10
4.38631e-12
5.58697e-10
2.25191e-12
5.58041e-10
6.55882e-13
5.58699e-10
-6.57669e-13
5.60464e-10
-1.76479e-12
5.63272e-10
-2.80853e-12
5.67358e-10
-4.08574e-12
5.73093e-10
-5.73478e-12
5.81556e-10
-8.46319e-12
5.96295e-10
-1.47397e-11
6.29764e-10
-3.34689e-11
7.25693e-10
-9.59289e-11
-2.49196e-10
9.7489e-10
1.99969e-09
5.47708e-11
1.97358e-09
3.3611e-11
1.95794e-09
2.00321e-11
1.94947e-09
1.07252e-11
1.94634e-09
3.77866e-12
1.94749e-09
-1.80617e-12
1.95219e-09
-6.46179e-12
1.96032e-09
-1.09421e-11
1.97244e-09
-1.62088e-11
1.98964e-09
-2.29342e-11
2.01472e-09
-3.35375e-11
2.05453e-09
-5.45539e-11
2.12244e-09
-1.01375e-10
2.23131e-09
-2.04798e-10
-3.64386e-10
2.3465e-09
3.94623e-09
1.36584e-10
3.89523e-09
8.46094e-11
3.86408e-09
5.11826e-11
3.84653e-09
2.82765e-11
3.83906e-09
1.12481e-11
3.83948e-09
-2.2249e-12
3.84637e-09
-1.33524e-11
3.85943e-09
-2.40103e-11
3.87933e-09
-3.6106e-11
3.90729e-09
-5.08896e-11
3.94613e-09
-7.2383e-11
4.00054e-09
-1.08964e-10
4.07341e-09
-1.74237e-10
4.15133e-09
-2.82724e-10
-4.10941e-10
4.19789e-09
6.55462e-09
2.6842e-10
6.47134e-09
1.67887e-10
6.41944e-09
1.03077e-10
6.38907e-09
5.86493e-11
6.3745e-09
2.5822e-11
6.37213e-09
1.4112e-13
6.37965e-09
-2.0871e-11
6.39611e-09
-4.04717e-11
6.42193e-09
-6.19196e-11
6.45756e-09
-8.65235e-11
6.50415e-09
-1.1897e-10
6.56146e-09
-1.66282e-10
6.62322e-09
-2.35995e-10
6.66974e-09
-3.29244e-10
-4.20034e-10
6.67883e-09
9.99676e-09
4.61003e-10
9.87324e-09
2.91398e-10
9.79463e-09
1.8169e-10
9.74689e-09
1.06394e-10
9.72152e-09
5.11837e-11
9.71337e-09
8.29172e-12
9.71895e-09
-2.64509e-11
9.7361e-09
-5.76137e-11
9.76431e-09
-9.01304e-11
9.8027e-09
-1.24915e-10
9.84984e-09
-1.66115e-10
9.90128e-09
-2.17718e-10
9.9467e-09
-2.81418e-10
9.96948e-09
-3.52025e-10
-4.10388e-10
9.95984e-09
1.44756e-08
7.22657e-10
1.43047e-08
4.62224e-10
1.41935e-08
2.92892e-10
1.41236e-08
1.76382e-10
1.40832e-08
9.15014e-11
1.40654e-08
2.60998e-11
1.40653e-08
-2.63303e-11
1.40794e-08
-7.17386e-11
1.41053e-08
-1.15976e-10
1.41405e-08
-1.6018e-10
1.41814e-08
-2.07012e-10
1.42214e-08
-2.57637e-10
1.42503e-08
-3.10383e-10
1.42576e-08
-3.59324e-10
-3.93616e-10
1.42409e-08
2.02228e-08
1.05461e-09
2.00013e-08
6.83687e-10
1.98536e-08
4.40587e-10
1.97574e-08
2.72594e-10
1.96983e-08
1.50643e-10
1.96668e-08
5.75362e-11
1.96567e-08
-1.62386e-11
1.96631e-08
-7.81186e-11
1.96814e-08
-1.34303e-10
1.97078e-08
-1.86523e-10
1.97369e-08
-2.36165e-10
1.97622e-08
-2.82895e-10
1.97762e-08
-3.24366e-10
1.97735e-08
-3.56598e-10
-3.74922e-10
1.97548e-08
2.74915e-08
1.44388e-09
2.72246e-08
9.50599e-10
2.70417e-08
6.23447e-10
2.69185e-08
3.95789e-10
2.68386e-08
2.3054e-10
2.67908e-08
1.05399e-10
2.67671e-08
7.43142e-12
2.67613e-08
-7.23122e-11
2.67674e-08
-1.40397e-10
2.67801e-08
-1.99271e-10
2.6794e-08
-2.49997e-10
2.68033e-08
-2.92273e-10
2.68038e-08
-3.24799e-10
2.67933e-08
-3.46081e-10
-3.55139e-10
2.67735e-08
3.65445e-08
1.85548e-09
3.62518e-08
1.24332e-09
3.60449e-08
8.30415e-10
3.59006e-08
5.40058e-10
3.58026e-08
3.28546e-10
3.57388e-08
1.69192e-10
3.57004e-08
4.58572e-11
3.568e-08
-5.19396e-11
3.5671e-08
-1.31443e-10
3.56677e-08
-1.95989e-10
3.56651e-08
-2.47331e-10
3.56591e-08
-2.86249e-10
3.56474e-08
-3.13098e-10
3.56297e-08
-3.28434e-10
-3.33237e-10
3.56078e-08
4.7647e-08
2.23078e-09
4.7366e-08
1.52426e-09
4.71594e-08
1.03706e-09
4.70099e-08
6.89501e-10
4.6904e-08
4.3452e-10
4.68305e-08
2.42676e-10
4.67808e-08
9.55519e-11
4.67475e-08
-1.86343e-11
4.67243e-08
-1.08308e-10
4.67061e-08
-1.77695e-10
4.66887e-08
-2.29934e-10
4.66697e-08
-2.67246e-10
4.66481e-08
-2.91505e-10
4.66243e-08
-3.04645e-10
-3.08611e-10
4.65996e-08
6.1084e-08
2.50304e-09
6.08638e-08
1.74448e-09
6.06929e-08
1.208e-09
6.05637e-08
8.18647e-10
6.0468e-08
5.30223e-10
6.03979e-08
3.12845e-10
6.03463e-08
1.47148e-10
6.03071e-08
2.0536e-11
6.02755e-08
-7.67068e-11
6.02475e-08
-1.49698e-10
6.02205e-08
-2.02995e-10
6.01934e-08
-2.40107e-10
6.01659e-08
-2.63974e-10
6.01385e-08
-2.77307e-10
-2.82467e-10
6.01124e-08
7.72278e-08
2.63358e-09
7.71055e-08
1.86671e-09
7.70021e-08
1.31148e-09
7.6919e-08
9.0175e-10
7.68539e-08
5.95243e-10
7.68031e-08
3.63631e-10
7.67625e-08
1.87793e-10
7.67285e-08
5.45436e-11
7.66979e-08
-4.60945e-11
7.66689e-08
-1.20692e-10
7.66403e-08
-1.74451e-10
7.6612e-08
-2.11803e-10
7.65843e-08
-2.36263e-10
7.65579e-08
-2.50862e-10
-2.58063e-10
7.65335e-08
9.6628e-08
2.64165e-09
9.66019e-08
1.89276e-09
9.65718e-08
1.34163e-09
9.65434e-08
9.30119e-10
9.65183e-08
6.20299e-10
9.6496e-08
3.85969e-10
9.64751e-08
2.0866e-10
9.64546e-08
7.50709e-11
9.64334e-08
-2.48397e-11
9.64113e-08
-9.86389e-11
9.63886e-08
-1.51726e-10
9.63657e-08
-1.88964e-10
9.63435e-08
-2.14049e-10
9.63227e-08
-2.30032e-10
-2.39303e-10
9.63039e-08
1.20013e-07
2.58484e-09
1.20044e-07
1.86164e-09
1.20061e-07
1.3245e-09
1.2007e-07
9.21044e-10
1.20074e-07
6.16656e-10
1.20073e-07
3.86771e-10
1.20068e-07
2.1347e-10
1.2006e-07
8.34526e-11
1.20049e-07
-1.33535e-11
1.20035e-07
-8.49767e-11
1.2002e-07
-1.36762e-10
1.20005e-07
-1.73648e-10
1.1999e-07
-1.99278e-10
1.19976e-07
-2.1657e-10
-2.27759e-10
1.19965e-07
1.48107e-07
2.50423e-09
1.48157e-07
1.81087e-09
1.4819e-07
1.29234e-09
1.48209e-07
9.01293e-10
1.4822e-07
6.05953e-10
1.48224e-07
3.83122e-10
1.48222e-07
2.15422e-10
1.48216e-07
8.97003e-11
1.48206e-07
-3.84371e-12
1.48195e-07
-7.37726e-11
1.48183e-07
-1.24789e-10
1.48171e-07
-1.61898e-10
1.4816e-07
-1.88578e-10
1.48151e-07
-2.07555e-10
-2.20888e-10
1.48145e-07
1.81379e-07
2.40296e-09
1.81441e-07
1.74932e-09
1.81476e-07
1.25676e-09
1.81494e-07
8.83163e-10
1.815e-07
5.99949e-10
1.81498e-07
3.85641e-10
1.8149e-07
2.23826e-10
1.81477e-07
1.01943e-10
1.81463e-07
1.06862e-11
1.81448e-07
-5.86515e-11
1.81433e-07
-1.10057e-10
1.81419e-07
-1.48427e-10
1.81408e-07
-1.77049e-10
1.81399e-07
-1.98448e-10
-2.14502e-10
1.81392e-07
2.1991e-07
2.26896e-09
2.19991e-07
1.66879e-09
2.20035e-07
1.21243e-09
2.20055e-07
8.63321e-10
2.20058e-07
5.96643e-10
2.20051e-07
3.93261e-10
2.20036e-07
2.38358e-10
2.20018e-07
1.20448e-10
2.19998e-07
3.07874e-11
2.19977e-07
-3.82942e-11
2.19958e-07
-9.10398e-11
2.19941e-07
-1.31465e-10
2.19927e-07
-1.62712e-10
2.19916e-07
-1.87125e-10
-2.06428e-10
2.19908e-07
2.63268e-07
2.09646e-09
2.63374e-07
1.56299e-09
2.63433e-07
1.15284e-09
2.63461e-07
8.35465e-10
2.63468e-07
5.90284e-10
2.6346e-07
4.00953e-10
2.63444e-07
2.54698e-10
2.63423e-07
1.41548e-10
2.63399e-07
5.39545e-11
2.63376e-07
-1.44803e-11
2.63354e-07
-6.92992e-11
2.63334e-07
-1.12118e-10
2.63318e-07
-1.46346e-10
2.63305e-07
-1.74124e-10
-1.96956e-10
2.63296e-07
3.10142e-07
1.88555e-09
3.10275e-07
1.42916e-09
3.10355e-07
1.07331e-09
3.10396e-07
7.94016e-10
3.10412e-07
5.7511e-10
3.10409e-07
4.03363e-10
3.10396e-07
2.68291e-10
3.10376e-07
1.61559e-10
3.10353e-07
7.67863e-11
3.10329e-07
9.58872e-12
3.10306e-07
-4.67914e-11
3.10286e-07
-9.22345e-11
3.1027e-07
-1.29667e-10
3.10257e-07
-1.61021e-10
-1.87564e-10
3.10247e-07
3.57671e-07
1.63197e-09
3.5784e-07
1.26007e-09
3.57948e-07
9.64598e-10
3.58014e-07
7.28612e-10
3.58049e-07
5.40321e-10
3.58062e-07
3.89774e-10
3.58062e-07
2.6892e-10
3.58052e-07
1.71348e-10
3.58037e-07
9.19933e-11
3.58019e-07
2.6927e-11
3.58e-07
-2.79133e-11
3.57982e-07
-7.41534e-11
3.57966e-07
-1.13322e-10
3.57952e-07
-1.47032e-10
-1.76461e-10
3.57941e-07
3.55439e-07
1.38114e-09
3.55613e-07
1.08593e-09
3.55731e-07
8.46296e-10
3.55809e-07
6.51326e-10
3.55856e-07
4.92785e-10
3.55882e-07
3.63424e-10
3.55894e-07
2.57248e-10
3.55896e-07
1.69462e-10
3.55892e-07
9.63857e-11
3.55883e-07
3.53924e-11
3.55872e-07
-1.70998e-11
3.55862e-07
-6.36238e-11
3.55852e-07
-1.03367e-10
3.55843e-07
-1.38398e-10
-1.69645e-10
3.55836e-07
3.04579e-07
1.1543e-09
3.0474e-07
9.24653e-10
3.04853e-07
7.33713e-10
3.04929e-07
5.7552e-10
3.04977e-07
4.44413e-10
3.05005e-07
3.35271e-10
3.05019e-07
2.43795e-10
3.05022e-07
1.66473e-10
3.05017e-07
1.0044e-10
3.0501e-07
4.32613e-11
3.04999e-07
-6.93841e-12
3.04987e-07
-5.10421e-11
3.04974e-07
-9.0578e-11
3.04962e-07
-1.26035e-10
-1.58148e-10
3.0495e-07
2.55324e-07
9.59961e-10
2.55469e-07
7.79957e-10
2.55575e-07
6.27362e-10
2.55652e-07
4.98832e-10
2.55706e-07
3.90408e-10
2.55743e-07
2.98456e-10
2.55767e-07
2.19869e-10
2.55781e-07
1.52066e-10
2.55789e-07
9.29542e-11
2.55791e-07
4.08625e-11
2.55789e-07
-5.37427e-12
2.55785e-07
-4.69277e-11
2.55779e-07
-8.4555e-11
2.55772e-07
-1.18894e-10
-1.504e-10
2.55764e-07
2.10616e-07
7.94059e-10
2.10743e-07
6.52966e-10
2.10839e-07
5.3145e-10
2.1091e-07
4.27374e-10
2.10963e-07
3.38042e-10
2.11e-07
2.60909e-10
2.11026e-07
1.93776e-10
2.11044e-07
1.34808e-10
2.11054e-07
8.25235e-11
2.11059e-07
3.57466e-11
2.1106e-07
-6.44873e-12
2.11058e-07
-4.4897e-11
2.11054e-07
-8.01309e-11
2.11048e-07
-1.1264e-10
-1.42756e-10
2.1104e-07
1.71395e-07
6.51675e-10
1.71507e-07
5.4133e-10
1.71593e-07
4.44957e-10
1.71659e-07
3.61085e-10
1.7171e-07
2.87866e-10
1.71747e-07
2.23551e-10
1.71774e-07
1.66619e-10
1.71793e-07
1.15793e-10
1.71806e-07
7.00326e-11
1.71813e-07
2.8479e-11
1.71816e-07
-9.52733e-12
1.71816e-07
-4.44917e-11
1.71812e-07
-7.69005e-11
1.71807e-07
-1.07045e-10
-1.35158e-10
1.71799e-07
1.3784e-07
5.28854e-10
1.37938e-07
4.42843e-10
1.38017e-07
3.66747e-10
1.38078e-07
2.99507e-10
1.38126e-07
2.39846e-10
1.38163e-07
1.86585e-10
1.38191e-07
1.38698e-10
1.38212e-07
9.53155e-11
1.38226e-07
5.57e-11
1.38235e-07
1.92364e-11
1.3824e-07
-1.44152e-11
1.38241e-07
-4.56838e-11
1.38239e-07
-7.49117e-11
1.38234e-07
-1.02263e-10
-1.27888e-10
1.38227e-07
1.09681e-07
4.2231e-10
1.09768e-07
3.55642e-10
1.09839e-07
2.95939e-10
1.09896e-07
2.42416e-10
1.09942e-07
1.94188e-10
1.09978e-07
1.50487e-10
1.10006e-07
1.10637e-10
1.10027e-07
7.40672e-11
1.10042e-07
4.02596e-11
1.10053e-07
8.7556e-12
1.10059e-07
-2.04436e-11
1.10061e-07
-4.788e-11
1.1006e-07
-7.36544e-11
1.10055e-07
-9.78772e-11
-1.20637e-10
1.10048e-07
8.64088e-08
3.30036e-10
8.64856e-08
2.78843e-10
8.6549e-08
2.32475e-10
8.66011e-08
1.90319e-10
8.66435e-08
1.51787e-10
8.66776e-08
1.16401e-10
8.67045e-08
8.37304e-11
8.67252e-08
5.34e-11
8.67404e-08
2.50826e-11
8.67507e-08
-1.56247e-12
8.67566e-08
-2.63599e-11
8.67586e-08
-4.98569e-11
8.67569e-08
-7.19971e-11
8.67519e-08
-9.2861e-11
-1.12488e-10
8.67438e-08
6.7412e-08
2.5126e-10
6.74783e-08
2.12504e-10
6.75338e-08
1.77013e-10
6.75798e-08
1.44303e-10
6.76176e-08
1.14013e-10
6.76481e-08
8.58664e-11
6.76722e-08
5.96044e-11
6.76907e-08
3.49676e-11
6.7704e-08
1.17487e-11
6.77126e-08
-1.01099e-11
6.77169e-08
-3.07268e-11
6.77173e-08
-5.02586e-11
6.7714e-08
-6.87158e-11
6.77073e-08
-8.6128e-11
-1.02499e-10
6.76973e-08
5.20614e-08
1.85735e-10
5.2117e-08
1.56943e-10
5.21637e-08
1.30292e-10
5.22026e-08
1.05399e-10
5.22345e-08
8.20826e-11
5.22602e-08
6.01903e-11
5.22803e-08
3.95765e-11
5.22951e-08
2.00921e-11
5.23053e-08
1.54656e-12
5.23111e-08
-1.58824e-11
5.23129e-08
-3.24935e-11
5.23108e-08
-4.82255e-11
5.23052e-08
-6.31088e-11
5.22962e-08
-7.71463e-11
-9.03202e-11
5.22841e-08
3.97638e-08
1.32991e-10
3.98087e-08
1.12097e-10
3.98464e-08
9.25455e-11
3.98778e-08
7.40506e-11
3.99033e-08
5.6555e-11
3.99235e-08
3.99829e-11
3.99388e-08
2.42501e-11
3.99497e-08
9.27612e-12
3.99562e-08
-5.00032e-12
3.99589e-08
-1.85426e-11
3.99578e-08
-3.14427e-11
3.99533e-08
-4.36844e-11
3.99454e-08
-5.52639e-11
3.99345e-08
-6.617e-11
-7.63769e-11
3.99205e-08
2.99885e-08
9.19993e-11
3.00234e-08
7.72527e-11
3.00526e-08
6.33058e-11
3.00767e-08
4.99574e-11
3.00961e-08
3.7228e-11
3.0111e-08
2.50765e-11
3.01217e-08
1.34628e-11
3.01287e-08
2.35512e-12
3.01319e-08
-8.26754e-12
3.01318e-08
-1.84026e-11
3.01284e-08
-2.80565e-11
3.01219e-08
-3.72245e-11
3.01126e-08
-4.58906e-11
3.01004e-08
-5.40359e-11
-6.16333e-11
3.00857e-08
2.22764e-08
6.12359e-11
2.23025e-08
5.11648e-11
2.23243e-08
4.15486e-11
2.2342e-08
3.2252e-11
2.23559e-08
2.33308e-11
2.23662e-08
1.47542e-11
2.23732e-08
6.51258e-12
2.23769e-08
-1.39166e-12
2.23776e-08
-8.98954e-12
2.23755e-08
-1.62583e-11
2.23706e-08
-2.31848e-11
2.23632e-08
-2.97624e-11
2.23532e-08
-3.59738e-11
2.2341e-08
-4.17975e-11
-4.72096e-11
2.23266e-08
1.62385e-08
3.89307e-11
1.62574e-08
3.23228e-11
1.62729e-08
2.59726e-11
1.62854e-08
1.97849e-11
1.62949e-08
1.38194e-11
1.63016e-08
8.04573e-12
1.63057e-08
2.47429e-12
1.63071e-08
-2.87762e-12
1.63062e-08
-8.05219e-12
1.6303e-08
-1.30117e-11
1.62975e-08
-1.77371e-11
1.629e-08
-2.22231e-11
1.62805e-08
-2.64549e-11
1.62691e-08
-3.04122e-11
-3.40751e-11
1.62559e-08
1.15495e-08
2.33272e-11
1.15626e-08
1.92092e-11
1.15734e-08
1.52521e-11
1.15818e-08
1.1376e-11
1.1588e-08
7.62638e-12
1.1592e-08
3.97313e-12
1.15941e-08
4.35796e-13
1.15942e-08
-2.96417e-12
1.15924e-08
-6.27357e-12
1.15888e-08
-9.44892e-12
1.15836e-08
-1.2473e-11
1.15767e-08
-1.53428e-11
1.15683e-08
-1.80476e-11
1.15584e-08
-2.05701e-11
-2.2894e-11
1.15472e-08
7.94023e-09
1.28551e-11
7.94897e-09
1.04648e-11
7.95603e-09
8.19752e-12
7.96143e-09
5.97133e-12
7.96525e-09
3.81155e-12
7.96753e-09
1.69301e-12
7.96833e-09
-3.64475e-13
7.96771e-09
-2.34281e-12
7.96572e-09
-4.28558e-12
7.96241e-09
-6.14173e-12
7.95786e-09
-7.91605e-12
7.95211e-09
-9.59739e-12
7.94524e-09
-1.1181e-11
7.93733e-09
-1.2654e-11
-1.40024e-11
7.92844e-09
5.1895e-09
6.20678e-12
5.195e-09
4.96153e-12
5.19938e-09
3.82501e-12
5.20264e-09
2.7096e-12
5.20483e-09
1.62381e-12
5.20597e-09
5.51404e-13
5.2061e-09
-4.98026e-13
5.20526e-09
-1.50141e-12
5.20347e-09
-2.49584e-12
5.20077e-09
-3.44566e-12
5.19721e-09
-4.35515e-12
5.19283e-09
-5.2158e-12
5.18768e-09
-6.02652e-12
5.1818e-09
-6.77811e-12
-7.45885e-12
5.17526e-09
3.11703e-09
2.34496e-12
3.12018e-09
1.80943e-12
3.12264e-09
1.36465e-12
3.12442e-09
9.29376e-13
3.12554e-09
5.02707e-13
3.12602e-09
7.68392e-14
3.12586e-09
-3.42002e-13
3.1251e-09
-7.42783e-13
3.12375e-09
-1.14047e-12
3.12182e-09
-1.52241e-12
3.11936e-09
-1.88793e-12
3.11637e-09
-2.23372e-12
3.11291e-09
-2.55947e-12
3.10899e-09
-2.85979e-12
-3.12493e-12
3.10465e-09
1.57679e-09
4.7364e-13
1.57828e-09
3.2643e-13
1.57941e-09
2.33378e-13
1.5802e-09
1.42598e-13
1.58065e-09
5.10322e-14
1.58077e-09
-4.14253e-14
1.58056e-09
-1.34686e-13
1.58004e-09
-2.22986e-13
1.57921e-09
-3.11066e-13
1.57808e-09
-3.95819e-13
1.57667e-09
-4.76595e-13
1.57499e-09
-5.5374e-13
1.57306e-09
-6.25565e-13
1.57089e-09
-6.90999e-13
-7.42969e-13
1.56851e-09
4.51334e-10
4.51661e-10
4.51894e-10
4.52037e-10
4.52088e-10
4.52046e-10
4.51912e-10
4.51689e-10
4.51378e-10
4.50982e-10
4.50505e-10
4.49952e-10
4.49326e-10
4.48635e-10
4.47892e-10
1.16571e-09
-4.83533e-10
2.92708e-10
1.43872e-09
-4.19603e-10
1.46597e-10
1.7138e-09
-2.89855e-10
1.47715e-11
1.98466e-09
-1.5596e-10
-1.14897e-10
2.24957e-09
-2.32068e-11
-2.41699e-10
2.50931e-09
1.01095e-10
-3.6084e-10
2.76531e-09
2.15692e-10
-4.71688e-10
3.01876e-09
3.19782e-10
-5.73231e-10
3.27066e-09
4.1263e-10
-6.64536e-10
3.52181e-09
4.93683e-10
-7.4483e-10
3.77281e-09
5.62559e-10
-8.13558e-10
4.02416e-09
6.19321e-10
-8.70677e-10
4.27636e-09
6.64927e-10
-9.17121e-10
4.52997e-09
7.01907e-10
-9.55525e-10
4.78587e-09
7.35392e-10
-9.91291e-10
5.04548e-09
7.74495e-10
-1.0341e-09
5.31115e-09
8.33815e-10
-1.09949e-09
5.58677e-09
9.35116e-10
-1.21073e-09
5.87813e-09
1.1046e-09
-1.39597e-09
6.19313e-09
1.36932e-09
-1.68431e-09
6.54007e-09
1.72719e-09
-2.07413e-09
6.92338e-09
2.11863e-09
-2.50195e-09
7.2777e-09
2.00418e-09
-2.35849e-09
7.57156e-09
1.49867e-09
-1.79253e-09
7.80165e-09
8.31534e-10
-1.06163e-09
7.96895e-09
9.76243e-11
-2.6493e-10
8.07674e-09
-6.32748e-10
5.24961e-10
8.12877e-09
-1.3144e-09
1.26237e-09
8.1284e-09
-1.91827e-09
1.91865e-09
8.07849e-09
-2.42384e-09
2.47375e-09
7.98172e-09
-2.81485e-09
2.91162e-09
7.84089e-09
-3.0783e-09
3.21913e-09
7.65915e-09
-3.2051e-09
3.38684e-09
7.43991e-09
-3.19084e-09
3.41008e-09
7.18663e-09
-3.03604e-09
3.28931e-09
6.90258e-09
-2.74533e-09
3.02938e-09
6.59056e-09
-2.32578e-09
2.6378e-09
6.2529e-09
-1.78413e-09
2.12179e-09
5.89173e-09
-1.12364e-09
1.48481e-09
5.50841e-09
-3.42128e-10
7.25454e-10
5.09981e-09
5.62272e-10
-1.53676e-10
4.65351e-09
1.5646e-09
-1.11829e-09
4.14628e-09
2.5509e-09
-2.04367e-09
3.58075e-09
3.25818e-09
-2.69265e-09
2.98597e-09
3.23838e-09
-2.64359e-09
2.42241e-09
-5.5944e-10
2.58439e-09
-5.81587e-10
2.80448e-09
-5.09943e-10
3.05052e-09
-4.02e-10
3.30884e-09
-2.81534e-10
3.57236e-09
-1.62417e-10
3.8382e-09
-5.01501e-11
4.10529e-09
5.26898e-11
4.37335e-09
1.44568e-10
4.64243e-09
2.2461e-10
4.91268e-09
2.92309e-10
5.18433e-09
3.47667e-10
5.45769e-09
3.91564e-10
5.73323e-09
4.26368e-10
6.01173e-09
4.56892e-10
6.29459e-09
4.91641e-10
6.58417e-09
5.44233e-10
6.88445e-09
6.34829e-10
7.20146e-09
7.87597e-10
7.54344e-09
1.02734e-09
7.91927e-09
1.35135e-09
8.33404e-09
1.70386e-09
8.71803e-09
1.62019e-09
9.03778e-09
1.17892e-09
9.28964e-09
5.79674e-10
9.47433e-09
-8.7073e-11
9.59504e-09
-7.53453e-10
9.65556e-09
-1.37493e-09
9.65944e-09
-1.92215e-09
9.60986e-09
-2.37426e-09
9.50996e-09
-2.71495e-09
9.36319e-09
-2.93154e-09
9.17351e-09
-3.01541e-09
8.94536e-09
-2.96269e-09
8.68359e-09
-2.77426e-09
8.39323e-09
-2.45497e-09
8.07958e-09
-2.01213e-09
7.74866e-09
-1.45321e-09
7.40838e-09
-7.83361e-10
7.07086e-09
-4.60571e-12
6.75192e-09
8.81211e-10
6.47346e-09
1.84305e-09
6.26237e-09
2.76199e-09
6.16095e-09
3.3596e-09
3.07226e-09
6.07465e-09
4.21259e-09
-5.74146e-10
4.28437e-09
-6.53362e-10
4.42472e-09
-6.50292e-10
4.61719e-09
-5.9447e-10
4.8424e-09
-5.06747e-10
5.08801e-09
-4.08028e-10
5.34653e-09
-3.08671e-10
5.61367e-09
-2.14445e-10
5.88699e-09
-1.28754e-10
6.16514e-09
-5.35361e-11
6.44734e-09
1.00998e-11
6.73322e-09
6.17863e-11
7.02265e-09
1.02133e-10
7.3158e-09
1.3322e-10
7.61324e-09
1.59456e-10
7.9162e-09
1.88676e-10
8.22698e-09
2.33451e-10
8.54955e-09
3.12265e-10
8.89001e-09
4.47141e-10
9.25687e-09
6.60477e-10
9.65948e-09
9.48749e-10
1.01035e-08
1.25981e-09
1.05154e-08
1.20828e-09
1.08599e-08
8.34485e-10
1.11328e-08
3.06757e-10
1.13345e-08
-2.88836e-10
1.14681e-08
-8.87029e-10
1.15373e-08
-1.4441e-09
1.15458e-08
-1.93063e-09
1.14971e-08
-2.32558e-09
1.1395e-08
-2.61282e-09
1.12436e-08
-2.78018e-09
1.1048e-08
-2.81979e-09
1.08139e-08
-2.72856e-09
1.05477e-08
-2.50812e-09
1.02568e-08
-2.16409e-09
9.94953e-09
-1.70481e-09
9.6361e-09
-1.13978e-09
9.33108e-09
-4.78336e-10
9.05571e-09
2.7076e-10
8.8432e-09
1.09372e-09
8.73524e-09
1.95101e-09
8.76681e-09
2.73042e-09
8.92128e-09
3.20513e-09
2.99948e-09
8.99406e-09
6.6585e-09
-5.53814e-10
6.66923e-09
-6.64086e-10
6.7318e-09
-7.12868e-10
6.85206e-09
-7.14733e-10
7.02083e-09
-6.75509e-10
7.2247e-09
-6.11902e-10
7.45414e-09
-5.3811e-10
7.70234e-09
-4.62645e-10
7.96461e-09
-3.9103e-10
8.23784e-09
-3.26758e-10
8.51993e-09
-2.71999e-10
8.80957e-09
-2.27845e-10
9.10591e-09
-1.94214e-10
9.40863e-09
-1.69494e-10
9.71789e-09
-1.49805e-10
1.00346e-08
-1.28078e-10
1.0361e-08
-9.2865e-11
1.07007e-08
-2.74339e-11
1.10598e-08
8.80005e-11
1.1447e-08
2.73284e-10
1.18719e-08
5.2388e-10
1.23406e-08
7.91062e-10
1.27765e-08
7.72342e-10
1.31427e-08
4.68346e-10
1.34345e-08
1.49696e-11
1.36518e-08
-5.06131e-10
1.37972e-08
-1.03247e-09
1.38745e-08
-1.52137e-09
1.38874e-08
-1.94356e-09
1.38399e-08
-2.27812e-09
1.37364e-08
-2.50932e-09
1.35821e-08
-2.62579e-09
1.33829e-08
-2.62068e-09
1.31464e-08
-2.49202e-09
1.28809e-08
-2.24259e-09
1.25961e-08
-1.87933e-09
1.23037e-08
-1.4124e-09
1.20182e-08
-8.54275e-10
1.17594e-08
-2.19495e-10
1.15551e-08
4.75012e-10
1.14447e-08
1.20414e-09
1.14724e-08
1.92334e-09
1.16618e-08
2.54101e-09
1.19651e-08
2.90176e-09
2.80762e-09
1.2157e-08
9.92424e-09
-5.18221e-10
9.89629e-09
-6.36128e-10
9.90046e-09
-7.17042e-10
9.94826e-09
-7.62526e-10
1.00462e-08
-7.73442e-10
1.01888e-08
-7.54509e-10
1.03672e-08
-7.16482e-10
1.05746e-08
-6.70061e-10
1.08052e-08
-6.21683e-10
1.10546e-08
-5.76162e-10
1.13195e-08
-5.36829e-10
1.15973e-08
-5.05699e-10
1.18865e-08
-4.83422e-10
1.21861e-08
-4.69028e-10
1.24956e-08
-4.59306e-10
1.28155e-08
-4.48053e-10
1.31477e-08
-4.25032e-10
1.34956e-08
-3.75325e-10
1.38651e-08
-2.81466e-10
1.42646e-08
-1.26257e-10
1.47039e-08
8.4567e-11
1.51895e-08
3.05459e-10
1.56427e-08
3.19162e-10
1.60251e-08
8.59337e-11
1.63315e-08
-2.9143e-10
1.65611e-08
-7.35699e-10
1.6716e-08
-1.18737e-09
1.67997e-08
-1.60508e-09
1.68162e-08
-1.96003e-09
1.67697e-08
-2.23169e-09
1.66655e-08
-2.40511e-09
1.65097e-08
-2.46999e-09
1.63099e-08
-2.42082e-09
1.60749e-08
-2.2571e-09
1.58155e-08
-1.98314e-09
1.55438e-08
-1.60765e-09
1.52745e-08
-1.14308e-09
1.50254e-08
-6.05151e-10
1.48194e-08
-1.34932e-11
1.46855e-08
6.08825e-10
1.46598e-08
1.22985e-09
1.47765e-08
1.80664e-09
1.50439e-08
2.27367e-09
1.54049e-08
2.54073e-09
2.52068e-09
1.56918e-08
1.42019e-08
-4.79293e-10
1.4155e-08
-5.8919e-10
1.41219e-08
-6.8397e-10
1.41151e-08
-7.55681e-10
1.41458e-08
-8.04129e-10
1.42176e-08
-8.26393e-10
1.43299e-08
-8.28738e-10
1.44774e-08
-8.17609e-10
1.46556e-08
-7.99869e-10
1.486e-08
-7.80574e-10
1.50869e-08
-7.63683e-10
1.53331e-08
-7.51942e-10
1.55964e-08
-7.46712e-10
1.58751e-08
-7.47714e-10
1.61683e-08
-7.52476e-10
1.6476e-08
-7.55731e-10
1.67994e-08
-7.48514e-10
1.71419e-08
-7.17749e-10
1.75087e-08
-6.48341e-10
1.79083e-08
-5.25764e-10
1.83499e-08
-3.57093e-10
1.88403e-08
-1.84898e-10
1.93002e-08
-1.4073e-10
1.96902e-08
-3.04119e-10
2.00042e-08
-6.05424e-10
2.02404e-08
-9.71915e-10
2.04004e-08
-1.34735e-09
2.04873e-08
-1.69198e-09
2.05051e-08
-1.97784e-09
2.04586e-08
-2.18523e-09
2.03538e-08
-2.30027e-09
2.01979e-08
-2.31413e-09
2.00001e-08
-2.22293e-09
1.97709e-08
-2.02791e-09
1.95229e-08
-1.73522e-09
1.92708e-08
-1.35553e-09
1.90314e-08
-9.03608e-10
1.88242e-08
-3.9803e-10
1.86721e-08
1.38623e-10
1.86012e-08
6.79743e-10
1.86377e-08
1.19332e-09
1.88014e-08
1.64298e-09
1.90882e-08
1.98686e-09
1.94483e-08
2.18062e-09
2.19335e-09
1.97756e-08
1.97185e-08
-4.42984e-10
1.96683e-08
-5.39021e-10
1.96169e-08
-6.32568e-10
1.95769e-08
-7.15676e-10
1.95578e-08
-7.85091e-10
1.95683e-08
-8.36838e-10
1.96128e-08
-8.7321e-10
1.96916e-08
-8.96458e-10
1.98032e-08
-9.11441e-10
1.99449e-08
-9.22338e-10
2.01141e-08
-9.3284e-10
2.0308e-08
-9.4582e-10
2.05242e-08
-9.62989e-10
2.07611e-08
-9.8457e-10
2.10174e-08
-1.00874e-09
2.12928e-08
-1.03112e-09
2.15882e-08
-1.044e-09
2.19066e-08
-1.03612e-09
2.2253e-08
-9.94718e-10
2.26351e-08
-9.07873e-10
2.30621e-08
-7.84044e-10
2.35401e-08
-6.6294e-10
2.39917e-08
-5.92346e-10
2.43769e-08
-6.89312e-10
2.46881e-08
-9.16596e-10
2.49223e-08
-1.20617e-09
2.50804e-08
-1.50542e-09
2.51651e-08
-1.77662e-09
2.51803e-08
-1.99308e-09
2.51314e-08
-2.1363e-09
2.5025e-08
-2.19392e-09
2.48697e-08
-2.15887e-09
2.4676e-08
-2.0292e-09
2.44562e-08
-1.80808e-09
2.42245e-08
-1.50356e-09
2.39971e-08
-1.12815e-09
2.37919e-08
-6.98404e-10
2.36284e-08
-2.34482e-10
2.35268e-08
2.40261e-10
2.35067e-08
6.99763e-10
2.35838e-08
1.1163e-09
2.3764e-08
1.46273e-09
2.4036e-08
1.71485e-09
2.43619e-08
1.85478e-09
1.87695e-09
2.46783e-08
2.67408e-08
-4.10304e-10
2.66942e-08
-4.92464e-10
2.66395e-08
-5.77862e-10
2.65849e-08
-6.61006e-10
2.65378e-08
-7.38032e-10
2.65068e-08
-8.05826e-10
2.64976e-08
-8.64033e-10
2.65144e-08
-9.13274e-10
2.6559e-08
-9.55987e-10
2.66316e-08
-9.94944e-10
2.67316e-08
-1.0329e-09
2.6858e-08
-1.07221e-09
2.70095e-08
-1.11443e-09
2.71848e-08
-1.15991e-09
2.73833e-08
-1.2072e-09
2.76048e-08
-1.25262e-09
2.78504e-08
-1.28958e-09
2.81227e-08
-1.30845e-09
2.84267e-08
-1.29872e-09
2.87697e-08
-1.25085e-09
2.91602e-08
-1.17456e-09
2.96039e-08
-1.10668e-09
3.00277e-08
-1.01613e-09
3.03915e-08
-1.05306e-09
3.06857e-08
-1.21083e-09
3.09061e-08
-1.42653e-09
3.10523e-08
-1.65168e-09
3.11267e-08
-1.85105e-09
3.11333e-08
-1.99966e-09
3.10778e-08
-2.08072e-09
3.09676e-08
-2.08375e-09
3.08125e-08
-2.00374e-09
3.06241e-08
-1.84084e-09
3.04162e-08
-1.60014e-09
3.0204e-08
-1.29139e-09
3.00043e-08
-9.28469e-10
2.98346e-08
-5.2873e-10
2.97124e-08
-1.12275e-10
2.96537e-08
2.9903e-10
2.96708e-08
6.82627e-10
2.97699e-08
1.01716e-09
2.99481e-08
1.28456e-09
3.01905e-08
1.47241e-09
3.04694e-08
1.57594e-09
1.59935e-09
3.0747e-08
3.5577e-08
-3.79466e-10
3.55346e-08
-4.50046e-10
3.54826e-08
-5.25912e-10
3.54253e-08
-6.03708e-10
3.53677e-08
-6.80427e-10
3.53156e-08
-7.53726e-10
3.52741e-08
-8.22532e-10
3.52477e-08
-8.86883e-10
3.52396e-08
-9.47924e-10
3.52521e-08
-1.00741e-09
3.52864e-08
-1.06723e-09
3.53434e-08
-1.12914e-09
3.54232e-08
-1.19429e-09
3.55262e-08
-1.26288e-09
3.56526e-08
-1.33359e-09
3.58032e-08
-1.40321e-09
3.59796e-08
-1.46606e-09
3.61851e-08
-1.5139e-09
3.64246e-08
-1.53827e-09
3.67054e-08
-1.53161e-09
3.70355e-08
-1.50467e-09
3.742e-08
-1.49114e-09
3.77931e-08
-1.38925e-09
3.81156e-08
-1.37552e-09
3.83756e-08
-1.47087e-09
3.85671e-08
-1.61807e-09
3.86889e-08
-1.77346e-09
3.87427e-08
-1.90483e-09
3.87324e-08
-1.9894e-09
3.86642e-08
-2.01251e-09
3.85464e-08
-1.96592e-09
3.83895e-08
-1.84688e-09
3.82063e-08
-1.65759e-09
3.8011e-08
-1.4049e-09
3.78194e-08
-1.09978e-09
3.76476e-08
-7.56638e-10
3.75113e-08
-3.92421e-10
3.74246e-08
-2.56127e-11
3.73985e-08
3.25109e-10
3.74391e-08
6.42054e-10
3.7546e-08
9.10317e-10
3.77113e-08
1.11918e-09
3.79203e-08
1.2634e-09
3.81524e-08
1.34394e-09
1.36753e-09
3.83842e-08
4.65689e-08
-3.48746e-10
4.65291e-08
-4.10206e-10
4.64806e-08
-4.77442e-10
4.64255e-08
-5.48564e-10
4.63666e-08
-6.21541e-10
4.63075e-08
-6.9465e-10
4.62518e-08
-7.66851e-10
4.62029e-08
-8.37946e-10
4.61635e-08
-9.08539e-10
4.61359e-08
-9.79845e-10
4.6122e-08
-1.05332e-09
4.61233e-08
-1.13037e-09
4.61409e-08
-1.21196e-09
4.61763e-08
-1.29824e-09
4.62308e-08
-1.38807e-09
4.63062e-08
-1.47864e-09
4.64053e-08
-1.56516e-09
4.6532e-08
-1.64056e-09
4.66919e-08
-1.69823e-09
4.68925e-08
-1.7322e-09
4.71416e-08
-1.75378e-09
4.74437e-08
-1.79326e-09
4.77439e-08
-1.68941e-09
4.80049e-08
-1.63647e-09
4.82125e-08
-1.67849e-09
4.8359e-08
-1.76458e-09
4.84422e-08
-1.85671e-09
4.84636e-08
-1.92616e-09
4.8427e-08
-1.95282e-09
4.8339e-08
-1.9245e-09
4.82085e-08
-1.83544e-09
4.80468e-08
-1.68516e-09
4.78669e-08
-1.47774e-09
4.76833e-08
-1.22131e-09
4.75109e-08
-9.27363e-10
4.73642e-08
-6.09865e-10
4.7256e-08
-2.84215e-10
4.71964e-08
3.38956e-11
4.71919e-08
3.29684e-10
4.72435e-08
5.90455e-10
4.73471e-08
8.0667e-10
4.74935e-08
9.72743e-10
4.76695e-08
1.08743e-09
4.78597e-08
1.1538e-09
1.17831e-09
4.80489e-08
6.00821e-08
-3.18422e-10
6.00446e-08
-3.7275e-10
5.99999e-08
-4.32753e-10
5.99488e-08
-4.97482e-10
5.9893e-08
-5.65706e-10
5.98346e-08
-6.36246e-10
5.9776e-08
-7.08267e-10
5.97195e-08
-7.8147e-10
5.96672e-08
-8.56147e-10
5.96204e-08
-9.33131e-10
5.95807e-08
-1.01356e-09
5.9549e-08
-1.09867e-09
5.95264e-08
-1.18936e-09
5.95141e-08
-1.28596e-09
5.95137e-08
-1.38769e-09
5.95274e-08
-1.49236e-09
5.95585e-08
-1.59619e-09
5.96113e-08
-1.69335e-09
5.9692e-08
-1.77899e-09
5.98084e-08
-1.84856e-09
5.99679e-08
-1.91334e-09
6.01748e-08
-2.00017e-09
6.03871e-08
-1.90162e-09
6.05713e-08
-1.8207e-09
6.07117e-08
-1.81891e-09
6.07994e-08
-1.85227e-09
6.08318e-08
-1.88907e-09
6.08101e-08
-1.90453e-09
6.07387e-08
-1.88136e-09
6.06243e-08
-1.81012e-09
6.04764e-08
-1.68759e-09
6.03066e-08
-1.51534e-09
6.01278e-08
-1.29889e-09
5.99535e-08
-1.04702e-09
5.9797e-08
-7.70897e-10
5.96703e-08
-4.83167e-10
5.95829e-08
-1.96848e-10
5.95412e-08
7.56642e-11
5.95474e-08
3.23464e-10
5.95998e-08
5.38103e-10
5.96924e-08
7.13994e-10
5.98164e-08
8.48746e-10
5.99608e-08
9.43083e-10
6.01141e-08
1.00049e-09
1.02638e-09
6.0266e-08
7.65062e-08
-2.91134e-10
7.64734e-08
-3.39939e-10
7.64347e-08
-3.94095e-10
7.63905e-08
-4.53231e-10
7.63415e-08
-5.16722e-10
7.62891e-08
-5.83869e-10
7.62349e-08
-6.54104e-10
7.61806e-08
-7.27154e-10
7.61276e-08
-8.03124e-10
7.6077e-08
-8.82534e-10
7.60296e-08
-9.66189e-10
7.5986e-08
-1.05506e-09
7.59466e-08
-1.14993e-09
7.59119e-08
-1.25124e-09
7.58827e-08
-1.35856e-09
7.58607e-08
-1.47036e-09
7.58485e-08
-1.58395e-09
7.585e-08
-1.69486e-09
7.5871e-08
-1.79995e-09
7.59185e-08
-1.89612e-09
7.59993e-08
-1.99406e-09
7.61166e-08
-2.11749e-09
7.62411e-08
-2.02614e-09
7.63455e-08
-1.92509e-09
7.64135e-08
-1.88691e-09
7.64362e-08
-1.87501e-09
7.64118e-08
-1.86468e-09
7.63422e-08
-1.83486e-09
7.62318e-08
-1.77104e-09
7.60883e-08
-1.66655e-09
7.59212e-08
-1.52052e-09
7.5742e-08
-1.33615e-09
7.55628e-08
-1.11974e-09
7.53958e-08
-8.7995e-10
7.52517e-08
-6.26841e-10
7.51396e-08
-3.71092e-10
7.50658e-08
-1.2301e-10
7.50332e-08
1.08258e-10
7.50415e-08
3.15126e-10
7.50873e-08
4.92392e-10
7.51642e-08
6.37087e-10
7.52643e-08
7.48608e-10
7.53789e-08
8.28458e-10
7.54996e-08
8.7985e-10
9.07064e-10
7.56189e-08
9.62832e-08
-2.7043e-10
9.62584e-08
-3.1512e-10
9.62291e-08
-3.6476e-10
9.61952e-08
-4.19328e-10
9.61571e-08
-4.78614e-10
9.61155e-08
-5.42309e-10
9.60715e-08
-6.10126e-10
9.60263e-08
-6.81914e-10
9.59809e-08
-7.57722e-10
9.59362e-08
-8.37881e-10
9.58929e-08
-9.22908e-10
9.58514e-08
-1.0135e-09
9.58117e-08
-1.11024e-09
9.5774e-08
-1.21349e-09
9.57384e-08
-1.32301e-09
9.57058e-08
-1.43775e-09
9.56777e-08
-1.55586e-09
9.5657e-08
-1.67413e-09
9.56478e-08
-1.79073e-09
9.56557e-08
-1.90402e-09
9.56849e-08
-2.02331e-09
9.57372e-08
-2.16981e-09
9.57923e-08
-2.08121e-09
9.58299e-08
-1.96273e-09
9.58341e-08
-1.89106e-09
9.57978e-08
-1.83872e-09
9.57217e-08
-1.78856e-09
9.56086e-08
-1.72181e-09
9.54639e-08
-1.62628e-09
9.52954e-08
-1.49809e-09
9.51132e-08
-1.33828e-09
9.4928e-08
-1.15095e-09
9.47507e-08
-9.42447e-10
9.45913e-08
-7.20544e-10
9.44581e-08
-4.93665e-10
9.43571e-08
-2.70142e-10