/*--------------------------------*- C++ -*----------------------------------*\
| =========                 |                                                 |
| \\      /  F ield         | OpenFOAM: The Open Source CFD Toolbox           |
|  \\    /   O peration     | Version:  2312                                  |
|   \\  /    A nd           | Website:  www.openfoam.com                      |
|    \\/     M anipulation  |                                                 |
\*---------------------------------------------------------------------------*/
FoamFile
{
    version     2.0;
    format      ascii;
    arch        "LSB;label=32;scalar=64";
    class       volVectorField;
    location    "179.5";
    object      U;
}
// * * * * * * * * * * * * * * * * * * * * * * * * * * * * * * * * * * * * * //

dimensions      [0 1 -1 0 0 0 0];

internalField   nonuniform List<vector> 
4800
(
(0.00046256 3.58064e-07 -2.54185e-26)
(0.000453509 3.70065e-07 -1.7537e-25)
(0.000447998 3.60505e-07 2.26012e-25)
(0.000444837 3.34133e-07 9.96645e-26)
(0.000443263 2.90168e-07 1.44338e-24)
(0.000443053 2.42432e-07 -3.41798e-24)
(0.000443739 1.99027e-07 3.15935e-24)
(0.000445252 1.18584e-07 -4.528e-24)
(0.000447642 -3.08618e-08 1.46413e-24)
(0.000451064 -2.72712e-07 4.88234e-24)
(0.000455893 -7.49322e-07 -1.50696e-24)
(0.000463402 -2.09649e-06 -1.32765e-25)
(0.000480701 -7.11353e-06 -1.81113e-24)
(0.00052494 -2.72528e-05 8.50368e-25)
(0.000596837 -8.69607e-05 -6.78747e-25)
(0.00143095 1.9077e-06 -8.06671e-26)
(0.00140393 1.39203e-06 1.00463e-25)
(0.00138745 9.81813e-07 -8.96518e-25)
(0.00137792 6.27377e-07 6.76567e-25)
(0.00137308 2.74193e-07 2.08639e-24)
(0.0013722 -8.8346e-08 -3.28294e-24)
(0.00137381 -4.56124e-07 -9.01353e-25)
(0.0013778 -9.58766e-07 -1.90038e-25)
(0.00138428 -1.73288e-06 7.47124e-24)
(0.00139358 -2.96239e-06 -5.49241e-24)
(0.00140683 -5.28014e-06 5.97684e-25)
(0.00142671 -1.08819e-05 9.01461e-25)
(0.00146182 -2.72042e-05 -1.32865e-24)
(0.00152218 -7.67909e-05 -4.09058e-25)
(0.001586 -0.000186603 1.7457e-24)
(0.00250263 6.05969e-06 -5.76307e-26)
(0.00245693 4.37645e-06 5.89945e-26)
(0.00242901 3.06684e-06 5.87027e-25)
(0.00241275 1.96814e-06 -1.38663e-24)
(0.00240436 8.97379e-07 1.34123e-24)
(0.00240244 -2.17091e-07 1.21333e-24)
(0.00240456 -1.37984e-06 -3.14272e-24)
(0.00241048 -2.92926e-06 -1.92639e-24)
(0.00242034 -5.15633e-06 4.649e-24)
(0.00243432 -8.58742e-06 1.72413e-24)
(0.00245368 -1.46701e-05 -6.00574e-24)
(0.0024805 -2.72702e-05 -8.94129e-25)
(0.00251873 -5.55854e-05 2.55425e-24)
(0.00256694 -0.000117937 4.02191e-24)
(0.00260076 -0.000219939 -2.07602e-24)
(0.0036844 1.34244e-05 2.12818e-26)
(0.00361964 9.73234e-06 -1.46874e-25)
(0.0035799 6.87053e-06 6.44263e-25)
(0.00355656 4.48444e-06 6.64467e-25)
(0.00354424 2.18508e-06 -6.82576e-25)
(0.00354073 -1.81115e-07 -3.70777e-24)
(0.0035428 -2.5575e-06 -2.43813e-24)
(0.00354981 -5.74231e-06 9.4409e-24)
(0.00356188 -1.01642e-05 3.85273e-24)
(0.00357862 -1.66479e-05 -5.58511e-24)
(0.00360075 -2.72584e-05 -2.23208e-24)
(0.00362863 -4.63703e-05 -1.68757e-24)
(0.00366151 -8.16276e-05 5.51298e-26)
(0.0036924 -0.000142301 1.24111e-24)
(0.00370393 -0.000222551 6.03559e-27)
(0.0049811 2.46549e-05 -3.90577e-26)
(0.0048975 1.79252e-05 -2.36039e-25)
(0.00484588 1.27242e-05 -1.40696e-25)
(0.0048152 8.41051e-06 3.99571e-25)
(0.0047986 4.32141e-06 -1.08924e-24)
(0.00479272 2.18254e-07 2.68838e-24)
(0.00479416 -3.95851e-06 -4.76332e-25)
(0.00480126 -9.19117e-06 1.60779e-24)
(0.00481401 -1.62996e-05 -9.01407e-24)
(0.0048313 -2.61342e-05 1.69893e-23)
(0.00485293 -4.08719e-05 -1.63664e-23)
(0.00487763 -6.40862e-05 8.58523e-24)
(0.00490214 -0.000100353 -7.91743e-24)
(0.0049191 -0.000152372 7.4305e-24)
(0.00491887 -0.000212348 -2.94979e-24)
(0.00639395 4.05175e-05 5.16728e-26)
(0.0062929 2.95694e-05 1.82538e-25)
(0.00622998 2.11243e-05 -9.5374e-25)
(0.00619202 1.41531e-05 -5.76591e-25)
(0.00617092 7.67076e-06 1.5831e-24)
(0.00616212 1.32357e-06 5.51899e-25)
(0.00616199 -5.21135e-06 -4.26316e-24)
(0.0061683 -1.28907e-05 1.01003e-23)
(0.00618014 -2.28328e-05 -1.30897e-23)
(0.00619596 -3.58297e-05 3.15335e-24)
(0.00621463 -5.36527e-05 9.41021e-24)
(0.00623396 -7.84755e-05 -1.29854e-23)
(0.00625029 -0.000112056 6.4975e-24)
(0.0062582 -0.000153764 6.56252e-24)
(0.00625344 -0.000197447 -4.98325e-24)
(0.00791843 6.1626e-05 4.28445e-26)
(0.00780331 4.52214e-05 -2.51252e-25)
(0.0077308 3.25625e-05 8.85519e-25)
(0.00768635 2.21462e-05 -1.21441e-24)
(0.00766094 1.26506e-05 -4.01117e-24)
(0.00764902 3.4772e-06 6.83111e-24)
(0.00764658 -5.73545e-06 -4.07911e-24)
(0.00765116 -1.62249e-05 1.37087e-23)
(0.00766082 -2.88941e-05 -9.33493e-24)
(0.00767369 -4.45168e-05 -4.30986e-24)
(0.00768803 -6.41878e-05 -8.35856e-24)
(0.00770148 -8.87697e-05 7.70504e-24)
(0.00771111 -0.000118229 2.14954e-24)
(0.00771369 -0.000150825 1.80885e-24)
(0.00770795 -0.000182548 -1.58904e-24)
(0.00954194 8.80521e-05 -6.19609e-26)
(0.00941907 6.51008e-05 8.32479e-25)
(0.00934055 4.73176e-05 -1.91627e-24)
(0.0092916 3.2694e-05 -1.50768e-24)
(0.00926286 1.95934e-05 6.12021e-25)
(0.00924821 7.15021e-06 1.13325e-24)
(0.00924334 -5.15033e-06 3.90401e-24)
(0.0092455 -1.84661e-05 -1.04869e-23)
(0.00925227 -3.36372e-05 -5.45224e-24)
(0.00926148 -5.11967e-05 1.52486e-23)
(0.0092712 -7.16084e-05 -4.63264e-24)
(0.00927935 -9.48597e-05 1.58233e-23)
(0.00928403 -0.000120148 -8.30905e-24)
(0.00928352 -0.000145782 -2.60901e-24)
(0.00927802 -0.000169397 1.5382e-24)
(0.0112426 0.000118784 -8.21124e-27)
(0.0111219 8.86895e-05 4.60885e-25)
(0.0110434 6.51483e-05 -6.53671e-25)
(0.0109936 4.57291e-05 1.5185e-24)
(0.0109638 2.85548e-05 -8.92529e-24)
(0.0109477 1.2528e-05 9.38554e-24)
(0.010941 -3.03466e-06 -1.44499e-23)
(0.0109409 -1.91394e-05 8.94201e-24)
(0.0109448 -3.64602e-05 6.54078e-24)
(0.0109505 -5.52929e-05 1.39391e-23)
(0.0109562 -7.56641e-05 -1.81673e-23)
(0.0109603 -9.71568e-05 -3.2763e-24)
(0.0109616 -0.000118865 1.5824e-24)
(0.0109595 -0.000139562 1.07724e-23)
(0.0109545 -0.000157953 -4.35531e-24)
(0.0129921 0.000151148 4.47921e-26)
(0.0128861 0.000114232 -1.93929e-25)
(0.0128158 8.48703e-05 8.52902e-25)
(0.0127706 6.04516e-05 -2.94316e-24)
(0.0127432 3.90059e-05 4.41081e-24)
(0.0127281 1.92911e-05 -5.59955e-24)
(0.0127214 5.19329e-07 9.25839e-24)
(0.0127201 -1.81648e-05 1.5331e-24)
(0.012722 -3.72427e-05 -1.25264e-23)
(0.0127252 -5.68318e-05 1.75987e-23)
(0.0127281 -7.67542e-05 -1.9325e-23)
(0.0127296 -9.65324e-05 -5.55662e-24)
(0.0127293 -0.000115462 9.89221e-24)
(0.0127265 -0.000132804 2.89248e-24)
(0.0127223 -0.000147916 -1.25645e-24)
(0.0147655 0.000180793 1.7375e-25)
(0.0146858 0.000138498 -1.49796e-24)
(0.014632 0.000104046 -2.35279e-24)
(0.0145974 7.50037e-05 5.6154e-24)
(0.0145768 4.95135e-05 2.4214e-24)
(0.0145658 2.6333e-05 -1.51848e-23)
(0.0145612 4.63452e-06 4.75381e-24)
(0.0145606 -1.62447e-05 3.37411e-24)
(0.0145623 -3.66546e-05 -1.3985e-23)
(0.0145646 -5.66335e-05 1.47014e-23)
(0.0145664 -7.59813e-05 -1.14178e-23)
(0.0145671 -9.43394e-05 2.94563e-23)
(0.0145664 -0.000111276 -1.40167e-23)
(0.0145641 -0.00012643 8.18771e-24)
(0.0145611 -0.00013954 -2.21916e-24)
(0.0165579 0.000203293 -5.57835e-26)
(0.0165084 0.000157637 9.91453e-25)
(0.0164754 0.000119434 -1.95923e-24)
(0.0164552 8.66841e-05 -9.63473e-25)
(0.0164443 5.78215e-05 1.08045e-23)
(0.0164398 3.17432e-05 -1.6689e-24)
(0.0164395 7.67028e-06 -1.88029e-23)
(0.0164416 -1.48924e-05 2.16913e-23)
(0.0164447 -3.62049e-05 -4.91944e-24)
(0.0164477 -5.6315e-05 -1.65326e-23)
(0.0164502 -7.51085e-05 1.74832e-23)
(0.0164515 -9.24025e-05 9.22392e-24)
(0.0164518 -0.000108005 -7.91938e-24)
(0.0164508 -0.000121802 -1.3422e-23)
(0.0164495 -0.000133752 1.11752e-24)
(0.0183917 0.000217374 -1.26933e-26)
(0.0183658 0.000169677 -1.06861e-24)
(0.0183503 0.000128885 5.20487e-24)
(0.0183428 9.3402e-05 2.91911e-25)
(0.0183411 6.19845e-05 2.86424e-24)
(0.0183431 3.37212e-05 -1.04562e-23)
(0.0183473 7.92338e-06 8.76014e-24)
(0.0183525 -1.57865e-05 1.88627e-24)
(0.0183577 -3.76294e-05 1.75411e-23)
(0.0183624 -5.77085e-05 -2.73175e-23)
(0.0183663 -7.6034e-05 -1.21807e-23)
(0.0183691 -9.25888e-05 -7.89658e-24)
(0.018371 -0.000107357 1.49814e-23)
(0.0183718 -0.000120378 -4.1702e-25)
(0.0183725 -0.000131724 1.42851e-24)
(0.0202963 0.000226305 -2.50148e-26)
(0.0202819 0.000176626 1.02143e-24)
(0.0202753 0.000133584 -1.49194e-24)
(0.0202746 9.58307e-05 -2.07698e-27)
(0.0202777 6.2351e-05 2.0869e-24)
(0.0202831 3.23826e-05 5.25819e-24)
(0.0202896 5.31875e-06 -2.03437e-23)
(0.0202964 -1.92006e-05 1.8104e-24)
(0.0203029 -4.14039e-05 1.02517e-23)
(0.0203086 -6.14617e-05 -4.60906e-24)
(0.0203135 -7.9505e-05 1.26284e-23)
(0.0203173 -9.56494e-05 8.69831e-24)
(0.0203205 -0.000109999 -1.5825e-23)
(0.0203227 -0.00012268 1.06985e-23)
(0.0203248 -0.000133827 -8.87858e-24)
(0.0222645 0.000234175 -7.01698e-25)
(0.0222541 0.000182388 6.19474e-25)
(0.0222501 0.000137084 1.61707e-24)
(0.0222507 9.71755e-05 -9.15852e-24)
(0.0222543 6.18126e-05 8.12908e-24)
(0.0222595 3.03068e-05 -6.00671e-24)
(0.0222655 2.12676e-06 4.31767e-24)
(0.0222717 -2.31516e-05 -3.03267e-23)
(0.0222776 -4.57902e-05 4.37639e-23)
(0.0222829 -6.60338e-05 -2.5567e-23)
(0.0222875 -8.41111e-05 2.27871e-23)
(0.0222914 -0.000100231 1.88278e-23)
(0.0222947 -0.000114577 -3.28675e-23)
(0.0222973 -0.000127322 1.06469e-23)
(0.0222999 -0.000138634 -4.44706e-25)
(0.0242315 0.000241464 -2.49509e-26)
(0.0242251 0.000188291 4.84695e-25)
(0.0242229 0.000141252 -5.74825e-25)
(0.0242237 9.95882e-05 -2.38025e-25)
(0.0242266 6.26657e-05 3.06816e-24)
(0.0242306 2.98654e-05 -5.35327e-24)
(0.0242351 6.73726e-07 5.06037e-24)
(0.0242397 -2.53514e-05 -1.61331e-23)
(0.0242442 -4.85334e-05 3.67535e-23)
(0.0242483 -6.91863e-05 -4.70415e-23)
(0.024252 -8.76039e-05 3.8488e-23)
(0.024255 -0.00010405 -1.29848e-23)
(0.0242578 -0.000118749 6.63548e-25)
(0.02426 -0.000131903 2.93586e-24)
(0.0242623 -0.000143694 -5.64799e-24)
(0.0260933 0.000245805 -2.10879e-24)
(0.0260929 0.000192544 4.67868e-24)
(0.026094 0.000144846 -2.6163e-24)
(0.0260964 0.000102312 -5.44389e-25)
(0.0260997 6.44578e-05 3.67111e-24)
(0.0261034 3.08229e-05 -4.02549e-24)
(0.0261072 9.60359e-07 -4.1304e-24)
(0.0261109 -2.56431e-05 -1.02719e-23)
(0.0261145 -4.93385e-05 4.99697e-24)
(0.0261177 -7.04765e-05 2.51585e-23)
(0.0261206 -8.93823e-05 -1.33525e-23)
(0.026123 -0.000106339 8.02352e-24)
(0.0261252 -0.000121587 -3.29832e-24)
(0.0261269 -0.000135336 -9.8029e-24)
(0.0261287 -0.000147772 5.01708e-24)
(0.0277266 0.00024522 7.12168e-25)
(0.0277321 0.000193198 -1.34623e-24)
(0.0277372 0.000146037 -2.06825e-24)
(0.0277419 0.000103649 4.25835e-24)
(0.0277465 6.57378e-05 -1.90271e-24)
(0.0277508 3.18606e-05 2.86091e-24)
(0.0277548 1.61804e-06 -3.23287e-24)
(0.0277584 -2.53493e-05 -2.93701e-24)
(0.0277618 -4.94265e-05 2.51522e-24)
(0.0277648 -7.10145e-05 -3.49423e-24)
(0.0277674 -9.04493e-05 8.05697e-24)
(0.0277696 -0.000108003 4.30188e-24)
(0.0277716 -0.000123901 -1.59742e-23)
(0.0277732 -0.000138345 1.11347e-23)
(0.0277748 -0.000151512 -2.28994e-24)
(0.0289784 0.000239294 2.17148e-24)
(0.028989 0.000189675 4.60681e-24)
(0.0289975 0.00014423 -9.85239e-24)
(0.0290045 0.000102993 -3.37902e-24)
(0.0290105 6.58889e-05 6.62029e-24)
(0.0290155 3.25544e-05 1.87458e-24)
(0.02902 2.49504e-06 -1.57077e-24)
(0.0290241 -2.4484e-05 -1.03599e-24)
(0.0290279 -4.87813e-05 3.356e-24)
(0.0290312 -7.07785e-05 -8.83776e-24)
(0.0290341 -9.07751e-05 5.89152e-24)
(0.0290365 -0.000109008 -4.62854e-25)
(0.0290387 -0.000125675 -4.57708e-25)
(0.0290406 -0.000140955 6.44048e-25)
(0.0290424 -0.000155008 -3.0545e-25)
(0.029641 0.000224895 -5.87703e-24)
(0.0296561 0.0001789 -1.46503e-23)
(0.0296682 0.000136355 5.12065e-24)
(0.0296781 9.74269e-05 3.11392e-23)
(0.0296861 6.20277e-05 -9.38242e-24)
(0.0296927 3.00722e-05 -6.12391e-24)
(0.0296982 1.18691e-06 3.99847e-24)
(0.0297027 -2.50343e-05 9.82051e-24)
(0.0297062 -4.8939e-05 -1.73688e-23)
(0.0297088 -7.08128e-05 6.34074e-24)
(0.0297107 -9.0878e-05 1.18287e-25)
(0.029712 -0.00010932 1.08809e-24)
(0.0297129 -0.000126303 -5.36684e-25)
(0.0297133 -0.000141988 1.31926e-24)
(0.0297135 -0.000156509 -7.72501e-25)
(0.0294784 0.000206196 9.59297e-24)
(0.0294969 0.000164307 -2.29119e-23)
(0.029512 0.000125076 3.00748e-24)
(0.0295242 8.88452e-05 4.04278e-23)
(0.0295343 5.56899e-05 -4.18303e-23)
(0.029543 2.52621e-05 1.72888e-23)
(0.02955 -2.49089e-06 1.90592e-23)
(0.0295554 -2.77311e-05 -4.48889e-23)
(0.0295597 -5.08247e-05 -1.04473e-24)
(0.0295631 -7.21004e-05 1.6758e-23)
(0.0295656 -9.17466e-05 5.34357e-24)
(0.0295674 -0.000109905 -4.02679e-24)
(0.0295687 -0.000126713 3.5175e-24)
(0.0295695 -0.000142316 -1.3638e-24)
(0.0295698 -0.000156828 4.64647e-25)
(0.028563 0.000182959 6.0928e-24)
(0.0285826 0.000145682 -1.3227e-23)
(0.0285978 0.000110563 -1.05091e-23)
(0.0286094 7.79077e-05 4.93076e-23)
(0.0286182 4.77183e-05 -4.78936e-23)
(0.0286247 1.98368e-05 4.23862e-24)
(0.0286299 -5.79441e-06 8.95057e-24)
(0.028634 -2.93796e-05 6.02657e-24)
(0.0286365 -5.12424e-05 7.17397e-24)
(0.0286378 -7.15579e-05 -3.95435e-23)
(0.0286383 -9.04288e-05 2.48047e-23)
(0.0286381 -0.000107975 2.87872e-26)
(0.0286373 -0.00012432 1.53025e-23)
(0.028636 -0.000139575 -7.15899e-24)
(0.028634 -0.000153822 -1.67574e-24)
(0.0270382 0.000157399 1.53856e-23)
(0.0270609 0.000124947 -2.78551e-23)
(0.0270792 9.43112e-05 5.5367e-24)
(0.0270937 6.56387e-05 -1.59611e-23)
(0.0271053 3.89409e-05 -2.30314e-23)
(0.0271146 1.42701e-05 7.43702e-23)
(0.0271217 -8.68666e-06 -3.05802e-23)
(0.0271269 -3.03368e-05 9.56594e-24)
(0.0271303 -5.06829e-05 -5.70857e-24)
(0.0271323 -6.96805e-05 -1.76168e-23)
(0.0271331 -8.73936e-05 3.48169e-23)
(0.027133 -0.000103946 -2.16293e-23)
(0.0271319 -0.00011944 2.50079e-24)
(0.02713 -0.000133948 4.22747e-24)
(0.0271272 -0.000147515 -5.46766e-25)
(0.0251956 0.00013377 5.97551e-24)
(0.0252196 0.000105586 -3.19626e-23)
(0.0252391 7.88155e-05 5.72492e-23)
(0.0252546 5.36195e-05 -4.52707e-23)
(0.025267 2.99448e-05 4.84823e-23)
(0.0252766 7.67473e-06 -1.51759e-23)
(0.0252838 -1.32883e-05 -1.12632e-23)
(0.0252888 -3.30671e-05 -1.40464e-23)
(0.025292 -5.16441e-05 2.80678e-23)
(0.0252936 -6.90281e-05 1.37914e-24)
(0.0252938 -8.52995e-05 -2.98041e-23)
(0.0252928 -0.000100555 -4.97032e-24)
(0.0252905 -0.000114859 8.62658e-24)
(0.0252873 -0.000128253 -2.15248e-24)
(0.0252829 -0.000140765 5.20739e-25)
(0.0231756 0.00011072 7.98941e-25)
(0.0232 8.64736e-05 -1.21054e-23)
(0.0232198 6.33216e-05 -7.55446e-24)
(0.0232354 4.13382e-05 5.93032e-23)
(0.0232475 2.05031e-05 -6.00302e-23)
(0.0232567 8.30233e-07 1.79768e-23)
(0.0232632 -1.77799e-05 3.24646e-24)
(0.0232674 -3.53229e-05 -1.82831e-24)
(0.0232696 -5.18157e-05 -9.52591e-24)
(0.0232699 -6.73166e-05 4.34484e-23)
(0.0232685 -8.18832e-05 -3.54816e-23)
(0.0232657 -9.55617e-05 -2.1635e-24)
(0.0232614 -0.000108383 3.56639e-24)
(0.0232559 -0.000120373 3.93398e-24)
(0.0232491 -0.000131548 -3.16342e-24)
(0.0210789 8.94279e-05 1.19126e-24)
(0.0211026 6.88955e-05 1.13131e-23)
(0.0211216 4.917e-05 -1.29132e-23)
(0.0211362 3.03523e-05 -9.63034e-24)
(0.0211473 1.25065e-05 6.35523e-23)
(0.0211552 -4.44415e-06 -4.85824e-23)
(0.0211602 -2.05204e-05 -8.36836e-25)
(0.0211628 -3.57085e-05 -1.12946e-23)
(0.021163 -5.00477e-05 -1.24713e-24)
(0.0211612 -6.35744e-05 1.51559e-24)
(0.0211575 -7.63042e-05 -8.04679e-24)
(0.0211521 -8.8253e-05 5.68636e-24)
(0.0211451 -9.94368e-05 1.85692e-24)
(0.0211367 -0.000109872 1.97349e-24)
(0.0211268 -0.000119567 3.12405e-24)
(0.0189748 7.0858e-05 8.48936e-24)
(0.0189968 5.37962e-05 -1.31547e-23)
(0.0190139 3.73548e-05 -1.13345e-23)
(0.0190268 2.16367e-05 3.47573e-23)
(0.0190361 6.6432e-06 -1.24116e-23)
(0.019042 -7.65077e-06 -1.89887e-23)
(0.0190449 -2.12364e-05 6.47836e-24)
(0.0190453 -3.41212e-05 1.62501e-23)
(0.0190432 -4.63209e-05 -2.72719e-23)
(0.0190389 -5.78385e-05 2.82877e-23)
(0.0190325 -6.86742e-05 -1.60421e-23)
(0.0190243 -7.88359e-05 7.45148e-24)
(0.0190143 -8.8331e-05 -1.11971e-23)
(0.0190027 -9.7167e-05 1.18035e-23)
(0.0189895 -0.000105344 -3.15235e-24)
(0.0169113 5.53621e-05 -1.6455e-24)
(0.0169309 4.14879e-05 -5.94989e-24)
(0.0169458 2.80797e-05 -1.96715e-23)
(0.0169566 1.5214e-05 5.50616e-23)
(0.0169637 2.87676e-06 -9.41529e-24)
(0.0169675 -8.92613e-06 -1.63054e-23)
(0.0169683 -2.01641e-05 6.24446e-24)
(0.0169664 -3.08491e-05 -8.94964e-24)
(0.016962 -4.09775e-05 -2.13653e-23)
(0.0169553 -5.05427e-05 2.04396e-23)
(0.0169464 -5.95423e-05 9.85828e-25)
(0.0169356 -6.79772e-05 -8.28994e-24)
(0.0169229 -7.58459e-05 9.3826e-24)
(0.0169085 -8.31482e-05 7.61347e-25)
(0.0168925 -8.98795e-05 -9.30358e-25)
(0.0149223 4.2792e-05 6.31996e-24)
(0.0149394 3.1746e-05 9.78436e-24)
(0.0149522 2.10398e-05 -8.67643e-24)
(0.0149609 1.07253e-05 -2.05129e-23)
(0.0149661 8.00559e-07 2.85569e-23)
(0.0149679 -8.72486e-06 -3.23097e-23)
(0.0149669 -1.78145e-05 -2.01027e-24)
(0.0149631 -2.64722e-05 1.30769e-23)
(0.0149568 -3.46893e-05 4.83288e-24)
(0.0149481 -4.24567e-05 -1.12804e-23)
(0.0149373 -4.97671e-05 -8.93095e-25)
(0.0149245 -5.66145e-05 2.58536e-23)
(0.0149098 -6.29923e-05 -1.00042e-23)
(0.0148933 -6.88966e-05 -2.89844e-24)
(0.0148753 -7.4321e-05 -2.11954e-25)
(0.0130308 3.27292e-05 -6.55091e-24)
(0.0130457 2.41293e-05 8.48105e-24)
(0.0130565 1.57725e-05 1.05955e-24)
(0.0130635 7.68877e-06 1.87898e-23)
(0.0130671 -1.29612e-07 -1.49997e-23)
(0.0130675 -7.62418e-06 1.58323e-24)
(0.0130651 -1.48037e-05 -1.44942e-24)
(0.01306 -2.1658e-05 -5.24658e-24)
(0.0130523 -2.81739e-05 5.30048e-24)
(0.0130424 -3.43393e-05 -1.72222e-23)
(0.0130303 -4.01434e-05 6.18734e-25)
(0.0130162 -4.55773e-05 4.13248e-24)
(0.0130003 -5.06326e-05 2.89225e-24)
(0.0129826 -5.53042e-05 1.27264e-24)
(0.0129633 -5.95849e-05 5.71049e-25)
(0.0112511 2.47172e-05 4.84218e-24)
(0.011264 1.81874e-05 -3.79734e-24)
(0.0112732 1.18257e-05 -1.78059e-23)
(0.0112789 5.64664e-06 1.67466e-23)
(0.0112813 -3.46753e-07 2.49604e-23)
(0.0112807 -6.10663e-06 -5.63044e-24)
(0.0112774 -1.16403e-05 -1.312e-23)
(0.0112716 -1.69332e-05 -2.01382e-23)
(0.0112633 -2.19724e-05 1.5531e-23)
(0.0112527 -2.6745e-05 1.1411e-24)
(0.0112401 -3.12397e-05 -3.92174e-24)
(0.0112255 -3.54473e-05 -1.29639e-24)
(0.0112091 -3.93594e-05 2.60971e-24)
(0.011191 -4.29704e-05 -3.36227e-27)
(0.0111714 -4.62731e-05 -6.46532e-25)
(0.00959029 1.83575e-05 -3.04153e-24)
(0.00960152 1.35383e-05 -2.31524e-24)
(0.00960937 8.83002e-06 2.62906e-24)
(0.00961402 4.23517e-06 -9.23039e-24)
(0.0096157 -2.26134e-07 3.0574e-23)
(0.00961461 -4.52722e-06 -4.19335e-23)
(0.00961093 -8.67373e-06 4.25362e-23)
(0.00960483 -1.26455e-05 -1.84082e-23)
(0.00959644 -1.64324e-05 4.64277e-24)
(0.00958592 -2.00227e-05 3.91995e-25)
(0.00957339 -2.34065e-05 -3.69188e-24)
(0.00955901 -2.65751e-05 1.70143e-24)
(0.00954288 -2.95209e-05 -3.40309e-24)
(0.00952518 -3.22385e-05 -5.52364e-25)
(0.009506 -3.47213e-05 2.99913e-25)
(0.00805058 1.33266e-05 -1.47526e-24)
(0.00806034 9.88529e-06 3.47096e-25)
(0.00806713 6.51378e-06 8.34511e-25)
(0.00807106 3.20828e-06 -4.16687e-24)
(0.00807231 -5.41978e-10 -2.08946e-24)
(0.00807104 -3.1039e-06 1.71334e-23)
(0.00806741 -6.1101e-06 -1.02075e-23)
(0.00806154 -8.99113e-06 1.60424e-24)
(0.00805356 -1.1742e-05 -1.52251e-24)
(0.0080436 -1.43534e-05 -1.83303e-24)
(0.00803178 -1.68173e-05 -6.87691e-25)
(0.00801822 -1.9126e-05 3.93328e-24)
(0.00800305 -2.12734e-05 1.38937e-24)
(0.0079864 -2.32544e-05 -2.68169e-24)
(0.00796838 -2.50637e-05 -4.95881e-25)
(0.00663097 9.37182e-06 -5.35603e-25)
(0.00663941 7.01029e-06 -1.9663e-25)
(0.00664532 4.69167e-06 -9.13812e-24)
(0.00664873 2.40883e-06 2.18273e-24)
(0.00664979 1.98644e-07 -7.24015e-24)
(0.00664863 -1.9502e-06 4.50991e-24)
(0.00664535 -4.0437e-06 9.52898e-24)
(0.00664007 -6.04808e-06 7.74158e-24)
(0.0066329 -7.96487e-06 -1.11793e-23)
(0.00662393 -9.78741e-06 3.38546e-24)
(0.00661328 -1.15094e-05 3.25362e-24)
(0.00660106 -1.31248e-05 -5.08842e-24)
(0.00658738 -1.46287e-05 2.73941e-24)
(0.00657237 -1.60168e-05 -3.6687e-25)
(0.00655611 -1.72847e-05 9.2444e-25)
(0.00532827 6.29934e-06 -2.09459e-24)
(0.0053355 4.7588e-06 -3.00155e-24)
(0.00534062 3.24586e-06 -6.94963e-25)
(0.00534363 1.75102e-06 7.57808e-24)
(0.00534464 3.08513e-07 -5.61436e-24)
(0.00534376 -1.1012e-06 -1.28166e-24)
(0.00534103 -2.4846e-06 9.61018e-24)
(0.00533659 -3.80627e-06 2.18331e-25)
(0.0053305 -5.07242e-06 -1.9509e-24)
(0.00532284 -6.27868e-06 -8.30833e-24)
(0.00531371 -7.42049e-06 5.94807e-25)
(0.00530321 -8.49325e-06 6.33186e-24)
(0.00529143 -9.49342e-06 -8.36926e-25)
(0.00527847 -1.04174e-05 -1.16299e-24)
(0.00526442 -1.12618e-05 8.08537e-25)
(0.00413793 3.96114e-06 -4.57157e-25)
(0.00414398 3.02267e-06 1.58255e-26)
(0.00414834 2.10479e-06 3.59286e-24)
(0.00415098 1.19575e-06 2.57707e-24)
(0.00415197 3.09905e-07 -1.57131e-24)
(0.00415146 -5.31336e-07 -4.34396e-24)
(0.00414939 -1.38782e-06 1.89582e-24)
(0.0041459 -2.19894e-06 -8.25927e-24)
(0.00414104 -2.97656e-06 6.41512e-24)
(0.00413487 -3.71933e-06 3.65641e-24)
(0.00412747 -4.424e-06 2.33664e-25)
(0.00411892 -5.08716e-06 -4.32449e-24)
(0.00410929 -5.7064e-06 8.8259e-25)
(0.00409867 -6.27899e-06 -7.73374e-25)
(0.00408713 -6.80218e-06 4.14639e-25)
(0.00305446 2.24096e-06 -8.40689e-25)
(0.00305929 1.72122e-06 -3.89118e-27)
(0.00306284 1.22036e-06 2.86216e-24)
(0.00306508 7.24849e-07 -1.79759e-24)
(0.00306604 2.38092e-07 7.79435e-24)
(0.00306585 -2.1612e-07 -1.4367e-23)
(0.00306445 -6.88085e-07 1.22818e-23)
(0.00306193 -1.13563e-06 -1.06722e-23)
(0.00305834 -1.56344e-06 7.99636e-24)
(0.00305372 -1.97309e-06 -5.40083e-24)
(0.00304813 -2.36251e-06 1.90021e-24)
(0.00304163 -2.72911e-06 2.96918e-25)
(0.00303426 -3.0714e-06 5.74788e-25)
(0.00302611 -3.38752e-06 -7.35186e-25)
(0.00301723 -3.67545e-06 1.70936e-25)
(0.00207173 1.05144e-06 1.27423e-24)
(0.00207528 7.99971e-07 1.44372e-24)
(0.00207794 5.67223e-07 -6.12254e-24)
(0.00207968 3.40334e-07 4.56372e-24)
(0.00208053 1.1766e-07 -1.06255e-26)
(0.00208056 -8.94737e-08 1.30502e-24)
(0.00207976 -3.04018e-07 -1.52463e-24)
(0.00207814 -5.07944e-07 -3.49899e-24)
(0.00207576 -7.01491e-07 3.55973e-24)
(0.00207264 -8.85164e-07 4.66346e-25)
(0.00206882 -1.05941e-06 -3.22348e-24)
(0.00206434 -1.22344e-06 1.14466e-24)
(0.00205924 -1.37667e-06 7.93731e-25)
(0.00205357 -1.51818e-06 -8.5159e-26)
(0.00204736 -1.64579e-06 -1.14732e-25)
(0.00118325 3.49846e-07 -1.28455e-24)
(0.00118542 2.65693e-07 3.99325e-24)
(0.00118709 1.92959e-07 2.5351e-24)
(0.00118821 1.27029e-07 -4.41195e-24)
(0.00118882 6.00174e-08 -5.24705e-25)
(0.00118894 -1.59816e-09 -4.94896e-25)
(0.00118858 -6.71541e-08 1.59433e-24)
(0.00118773 -1.30301e-07 -2.76122e-24)
(0.00118642 -1.90804e-07 3.96041e-24)
(0.00118468 -2.43421e-07 -1.93165e-24)
(0.00118251 -2.93442e-07 -1.39774e-24)
(0.00117995 -3.44778e-07 8.88722e-25)
(0.001177 -3.97525e-07 -1.23736e-24)
(0.00117371 -4.51605e-07 1.29757e-24)
(0.0011701 -5.02447e-07 -2.48287e-25)
(0.000382344 9.90121e-08 -9.16248e-27)
(0.000383041 1.53103e-07 7.81195e-25)
(0.000383584 1.95475e-07 9.38098e-25)
(0.00038396 2.27729e-07 -1.43172e-24)
(0.000384169 2.45541e-07 3.1737e-24)
(0.000384225 2.52684e-07 -3.43203e-24)
(0.000384126 2.47914e-07 2.42311e-25)
(0.000383869 2.33534e-07 2.12479e-24)
(0.00038346 2.10744e-07 -2.94765e-24)
(0.000382906 1.84538e-07 -6.17469e-25)
(0.00038221 1.52242e-07 2.30637e-24)
(0.000381379 1.11528e-07 -1.04595e-24)
(0.000380421 6.31365e-08 -4.63409e-25)
(0.000379344 7.74179e-09 3.98693e-25)
(0.000378155 -5.10243e-08 -2.05198e-26)
(0.000882764 -0.000216806 6.70607e-26)
(0.00101377 -0.000126148 1.63536e-24)
(0.00123567 -3.40342e-05 -4.58239e-24)
(0.00146393 4.18379e-05 6.42075e-24)
(0.00168554 0.000103354 -2.40457e-24)
(0.00190519 0.00015114 -2.15257e-24)
(0.00212285 0.000187303 2.38321e-24)
(0.00233908 0.000213545 -4.5875e-24)
(0.00255441 0.000231248 3.15991e-25)
(0.0027692 0.000241568 2.85467e-24)
(0.00298379 0.00024551 -5.48767e-25)
(0.00319855 0.000243969 6.0272e-25)
(0.00341392 0.000237713 -5.26994e-26)
(0.00363053 0.000227401 4.08253e-25)
(0.00384922 0.000213607 -1.50237e-24)
(0.00407108 0.000196884 8.32541e-25)
(0.00429771 0.000177803 -2.72576e-25)
(0.00453126 0.000157088 1.79682e-26)
(0.00477505 0.00013538 6.3971e-25)
(0.00503316 0.000113088 -3.98906e-25)
(0.00531083 8.91767e-05 4.56949e-26)
(0.00561168 6.01611e-05 -3.88105e-26)
(0.00591085 2.12279e-05 6.40092e-26)
(0.0061706 -2.83358e-05 2.14455e-25)
(0.00637954 -8.64374e-05 -3.85204e-25)
(0.00653865 -0.000150887 -1.81179e-25)
(0.00665084 -0.000219433 8.32188e-26)
(0.00671981 -0.000290132 2.99392e-25)
(0.00674855 -0.000361105 -1.86499e-25)
(0.00673912 -0.000430254 4.82233e-25)
(0.0066929 -0.00049493 -2.05742e-24)
(0.00661084 -0.0005514 3.15591e-24)
(0.00649371 -0.000594856 -1.43138e-24)
(0.0063425 -0.000619453 -3.20908e-24)
(0.00615846 -0.000618387 3.19079e-24)
(0.00594316 -0.00058388 1.29769e-23)
(0.00569841 -0.000506904 -4.62911e-24)
(0.00542633 -0.00037645 1.99267e-24)
(0.00512945 -0.000178113 6.43616e-25)
(0.00481123 0.000107381 -1.491e-23)
(0.00447486 0.000501709 -1.7216e-25)
(0.00412402 0.00101664 5.59101e-24)
(0.00374087 0.0016113 1.52421e-24)
(0.0033424 0.00213214 -7.59073e-24)
(0.00311455 0.00215566 -3.58004e-25)
(0.00167359 -0.000295596 -1.93176e-24)
(0.00172953 -0.000240251 -2.56259e-24)
(0.00186925 -0.000151684 5.4574e-24)
(0.00204492 -6.93567e-05 2.33383e-24)
(0.00223328 1.71783e-06 -8.13236e-24)
(0.00242969 5.93168e-05 8.42257e-24)
(0.00263024 0.000104513 -2.98389e-24)
(0.0028332 0.000138885 2.25173e-24)
(0.00303785 0.000163869 -2.98642e-24)
(0.00324383 0.00018071 3.28561e-26)
(0.00345102 0.000190498 -1.60247e-24)
(0.00365947 0.00019419 3.19936e-24)
(0.00386943 0.000192601 -1.80249e-24)
(0.00408132 0.000186431 -1.71976e-24)
(0.00429581 0.000176289 -1.23545e-24)
(0.00451379 0.000162751 2.21796e-24)
(0.00473663 0.000146404 -2.95415e-25)
(0.00496612 0.00012796 1.23313e-24)
(0.00520515 0.000108053 1.90234e-25)
(0.00545722 8.71017e-05 -3.70399e-25)
(0.00572692 6.41958e-05 -1.47109e-25)
(0.0060173 3.61822e-05 -7.73055e-26)
(0.00630461 -1.2708e-06 3.50146e-25)
(0.00655337 -4.85281e-05 3.47519e-25)
(0.0067533 -0.000103488 -3.86083e-25)
(0.00690551 -0.000164083 -1.24526e-24)
(0.00701274 -0.000228177 1.42145e-24)
(0.00707854 -0.000293828 -6.50177e-25)
(0.00710571 -0.000359051 1.86121e-25)
(0.00709632 -0.000421624 3.04324e-25)
(0.00705183 -0.000478797 -3.41526e-24)
(0.00697339 -0.000526778 7.36821e-24)
(0.00686215 -0.000560756 -7.83101e-24)
(0.00671955 -0.000574936 1.85307e-23)
(0.00654752 -0.0005626 -2.55044e-23)
(0.00634861 -0.000516085 6.50769e-24)
(0.00612605 -0.000426542 2.11711e-23)
(0.00588411 -0.000283328 -6.68672e-24)
(0.00562876 -7.28161e-05 -1.52717e-23)
(0.00536929 0.000222947 -8.25121e-24)
(0.00511984 0.000624969 1.87784e-23)
(0.00490428 0.00114586 -1.73314e-23)
(0.00474219 0.00174695 -3.29029e-24)
(0.0046802 0.00226486 1.0303e-23)
(0.00472783 0.00224026 3.07364e-24)
(0.00261565 -0.000304021 -2.16962e-26)
(0.00262499 -0.000289908 -2.99449e-24)
(0.00268744 -0.000233349 5.72719e-24)
(0.00280062 -0.000161632 4.46012e-24)
(0.00294159 -9.14986e-05 -7.40955e-24)
(0.00310165 -2.99342e-05 1.65991e-25)
(0.003274 2.11054e-05 6.664e-25)
(0.00345454 6.18757e-05 6.95743e-24)
(0.00364091 9.32205e-05 -8.23131e-24)
(0.00383166 0.000116122 5.04404e-24)
(0.00402597 0.000131563 1.58572e-24)
(0.0042234 0.000140459 -8.60638e-24)
(0.0044238 0.000143608 3.11951e-24)
(0.00462731 0.00014171 1.30611e-24)
(0.00483436 0.000135389 -2.83948e-24)
(0.00504555 0.00012523 4.70181e-24)
(0.00526197 0.000111824 -3.37522e-24)
(0.00548502 9.5868e-05 -7.37917e-26)
(0.00571711 7.79838e-05 2.73497e-25)
(0.00596106 5.85954e-05 2.92114e-25)
(0.00622079 3.69195e-05 4.68941e-26)
(0.00649864 1.0129e-05 1.50105e-25)
(0.00677199 -2.564e-05 -3.44273e-25)
(0.00700781 -7.04101e-05 9.67673e-25)
(0.00719696 -0.000122056 -1.35505e-24)
(0.00734071 -0.00017861 7.47494e-25)
(0.00744163 -0.000238052 -9.82159e-25)
(0.00750312 -0.000298435 1.25377e-24)
(0.00752781 -0.000357666 1.64206e-25)
(0.00751779 -0.000413405 1.17801e-24)
(0.00747462 -0.000462803 2.15189e-24)
(0.00739968 -0.000502027 -8.51343e-24)
(0.00729449 -0.000526298 3.48791e-24)
(0.007161 -0.000529941 9.49698e-24)
(0.00700188 -0.000506454 -2.15397e-23)
(0.00682067 -0.000448519 3.1118e-23)
(0.00662206 -0.00034787 -1.9906e-23)
(0.00641244 -0.000194936 2.49328e-23)
(0.00620089 2.18144e-05 -4.63455e-23)
(0.00600147 0.000316356 1.73517e-23)
(0.00583572 0.000703276 5.68311e-24)
(0.00573735 0.00118678 8.31496e-24)
(0.00573734 0.00172241 -1.03196e-23)
(0.00586904 0.00215852 2.70357e-24)
(0.00604741 0.0021308 -1.61381e-24)
(0.00369274 -0.000288462 -8.02079e-25)
(0.00367655 -0.000299553 -1.17761e-24)
(0.00368919 -0.00027398 -4.9349e-24)
(0.00374232 -0.000225013 1.5373e-24)
(0.00383101 -0.000166017 9.97927e-25)
(0.003946 -0.000108209 3.66642e-24)
(0.0040806 -5.6557e-05 -7.28563e-24)
(0.00422967 -1.28007e-05 2.83974e-24)
(0.00438954 2.27073e-05 9.07113e-24)
(0.00455776 5.02573e-05 -2.39564e-24)
(0.0047327 7.04557e-05 -2.26187e-24)
(0.00491332 8.40046e-05 -3.68129e-25)
(0.005099 9.15747e-05 1.25753e-24)
(0.00528951 9.37931e-05 -2.51105e-24)
(0.00548492 9.12519e-05 5.62655e-25)
(0.00568553 8.4515e-05 -2.43953e-25)
(0.00589208 7.41561e-05 -1.35596e-24)
(0.00610555 6.08423e-05 4.95978e-25)
(0.00632778 4.51744e-05 2.335e-24)
(0.00656092 2.75713e-05 -2.91531e-25)
(0.00680808 7.37274e-06 -5.0697e-25)
(0.00707083 -1.79322e-05 -1.23221e-25)
(0.00732771 -5.17601e-05 -6.01847e-25)
(0.00754827 -9.38069e-05 4.91953e-26)
(0.00772457 -0.000141917 -1.0234e-24)
(0.00785798 -0.000194198 1.95834e-24)
(0.00795094 -0.000248752 -9.61466e-25)
(0.00800673 -0.000303624 1.48048e-24)
(0.0080278 -0.000356614 -1.45511e-25)
(0.0080163 -0.000405283 4.71781e-25)
(0.00797389 -0.000446703 -1.20371e-24)
(0.00790219 -0.000477044 -3.33924e-25)
(0.00780308 -0.000491631 -3.78338e-25)
(0.00767908 -0.000485023 -2.42155e-24)
(0.00753356 -0.000451112 3.92868e-24)
(0.00737103 -0.000383209 -9.11414e-24)
(0.00719748 -0.000274075 3.96889e-23)
(0.00702105 -0.000115899 -2.13595e-23)
(0.00685299 9.96702e-05 -1.26303e-24)
(0.00670969 0.000381023 -3.92097e-23)
(0.00661446 0.000733823 2.93806e-23)
(0.00659957 0.00115222 -1.00058e-23)
(0.00669259 0.00159233 2.64118e-24)
(0.00690065 0.00194322 1.22096e-23)