/*--------------------------------*- C++ -*----------------------------------*\
| =========                 |                                                 |
| \\      /  F ield         | OpenFOAM: The Open Source CFD Toolbox           |
|  \\    /   O peration     | Version:  2312                                  |
|   \\  /    A nd           | Website:  www.openfoam.com                      |
|    \\/     M anipulation  |                                                 |
\*---------------------------------------------------------------------------*/
FoamFile
{
    version     2.0;
    format      ascii;
    arch        "LSB;label=32;scalar=64";
    class       volVectorField;
    location    "91.5";
    object      U;
}
// * * * * * * * * * * * * * * * * * * * * * * * * * * * * * * * * * * * * * //

dimensions      [0 1 -1 0 0 0 0];

internalField   nonuniform List<vector> 
4800
(
(0.000463336 2.37572e-07 -1.81687e-26)
(0.000458137 2.19054e-07 -1.26596e-25)
(0.000455903 1.88551e-07 1.6279e-25)
(0.000455718 1.63207e-07 7.35531e-26)
(0.000456619 1.575e-07 1.08937e-24)
(0.000458318 1.30402e-07 -2.60457e-24)
(0.000460705 7.23944e-08 2.44583e-24)
(0.00046374 -2.27209e-08 -3.56757e-24)
(0.00046749 -1.68116e-07 1.13673e-24)
(0.000472117 -4.08556e-07 3.94333e-24)
(0.000478059 -8.99324e-07 -1.21282e-24)
(0.000486632 -2.29038e-06 -9.80102e-26)
(0.000505249 -7.49469e-06 -1.50652e-24)
(0.000551656 -2.84777e-05 7.29708e-25)
(0.000626465 -9.05758e-05 -5.87364e-25)
(0.00143727 1.23781e-06 -5.74253e-26)
(0.00142175 6.98562e-07 7.15476e-26)
(0.00141491 2.63495e-07 -6.50035e-25)
(0.00141401 -1.03185e-07 4.84401e-25)
(0.00141617 -3.88495e-07 1.55037e-24)
(0.0014207 -7.17239e-07 -2.49397e-24)
(0.00142721 -1.13782e-06 -7.23644e-25)
(0.00143549 -1.70427e-06 -1.82729e-25)
(0.00144573 -2.50687e-06 5.92335e-24)
(0.00145839 -3.78022e-06 -4.39564e-24)
(0.00147472 -6.19242e-06 4.77914e-25)
(0.0014975 -1.19813e-05 7.41341e-25)
(0.00153575 -2.88721e-05 -1.11398e-24)
(0.00159966 -8.04216e-05 -3.65835e-25)
(0.00166663 -0.000194881 1.49325e-24)
(0.00251848 3.91292e-06 -4.10507e-26)
(0.00249224 2.2064e-06 4.19906e-26)
(0.00248042 8.72605e-07 4.24921e-25)
(0.00247838 -2.51389e-07 -1.0031e-24)
(0.0024813 -1.19212e-06 9.80951e-25)
(0.00248812 -2.24489e-06 9.40883e-25)
(0.00249825 -3.5098e-06 -2.44794e-24)
(0.00251106 -5.14924e-06 -1.53282e-24)
(0.00252682 -7.44644e-06 3.66309e-24)
(0.00254608 -1.10166e-05 1.40353e-24)
(0.00257024 -1.7347e-05 -4.87916e-24)
(0.00260152 -3.03911e-05 -7.69858e-25)
(0.00264405 -5.96161e-05 2.09992e-24)
(0.00269633 -0.000124214 3.3877e-24)
(0.00273313 -0.000230414 -1.75889e-24)
(0.00371318 8.6349e-06 1.51668e-26)
(0.00367607 4.94866e-06 -1.04969e-25)
(0.00365895 2.08314e-06 4.64542e-25)
(0.00365519 -3.00111e-07 4.86505e-25)
(0.00365831 -2.26789e-06 -4.80529e-25)
(0.00366666 -4.50364e-06 -2.84577e-24)
(0.0036796 -7.11891e-06 -1.97493e-24)
(0.00369587 -1.0404e-05 7.37196e-24)
(0.00371566 -1.49149e-05 3.09546e-24)
(0.0037393 -2.16563e-05 -4.4156e-24)
(0.00376761 -3.26951e-05 -1.79374e-24)
(0.0038011 -5.24871e-05 -1.38669e-24)
(0.00383911 -8.88617e-05 3.76774e-26)
(0.00387446 -0.000151576 1.035e-24)
(0.00388923 -0.000234991 5.06264e-27)
(0.00502497 1.57752e-05 -2.78388e-26)
(0.00497738 9.16137e-06 -1.68554e-25)
(0.00495491 4.05293e-06 -1.03947e-25)
(0.00494881 -1.79328e-07 2.8092e-25)
(0.00495163 -3.56268e-06 -7.88544e-25)
(0.00496073 -7.45101e-06 2.01724e-24)
(0.00497543 -1.19136e-05 -3.55264e-25)
(0.00499382 -1.7307e-05 1.27785e-24)
(0.00501583 -2.44822e-05 -7.10569e-24)
(0.00504132 -3.46758e-05 1.35644e-23)
(0.00507016 -5.00009e-05 -1.31837e-23)
(0.00510126 -7.40701e-05 7.0001e-24)
(0.00513143 -0.000111532 -6.52066e-24)
(0.00515324 -0.000165277 6.14942e-24)
(0.00515673 -0.00022756 -2.44697e-24)
(0.00645312 2.57231e-05 3.67847e-26)
(0.00639651 1.51308e-05 1.30017e-25)
(0.00636926 7.0198e-06 -6.84301e-25)
(0.00636047 4.07573e-07 -4.25386e-25)
(0.00636277 -5.10753e-06 1.14014e-24)
(0.00637199 -1.09539e-05 4.13666e-25)
(0.00638732 -1.76579e-05 -3.27283e-24)
(0.00640642 -2.54813e-05 7.8435e-24)
(0.00642884 -3.54695e-05 -1.02512e-23)
(0.00645385 -4.88645e-05 2.45194e-24)
(0.00648045 -6.73625e-05 7.55449e-24)
(0.00650668 -9.31289e-05 -1.0527e-23)
(0.00652899 -0.000127908 5.28547e-24)
(0.006542 -0.000171087 5.37035e-24)
(0.00654138 -0.000216499 -4.08329e-24)
(0.00799055 3.86501e-05 3.0356e-26)
(0.00792819 2.30158e-05 -1.78224e-25)
(0.0078978 1.11472e-05 6.33262e-25)
(0.007887 1.52886e-06 -8.75311e-25)
(0.00788854 -6.61579e-06 -2.96283e-24)
(0.00789782 -1.48734e-05 5.05519e-24)
(0.00791289 -2.40179e-05 -3.09117e-24)
(0.00793158 -3.44082e-05 1.05787e-23)
(0.00795292 -4.7064e-05 -7.19586e-24)
(0.00797574 -6.30233e-05 -3.38385e-24)
(0.00799854 -8.3341e-05 -6.68521e-24)
(0.00801919 -0.000108839 6.1581e-24)
(0.00803498 -0.000139423 1.7316e-24)
(0.00804277 -0.0001733 1.46021e-24)
(0.00804139 -0.000206404 -1.28426e-24)
(0.00962195 5.41678e-05 -4.33663e-26)
(0.00955961 3.25982e-05 5.86696e-25)
(0.00952933 1.632e-05 -1.35974e-24)
(0.00951854 3.12469e-06 -1.10134e-24)
(0.00952009 -8.02937e-06 4.14292e-25)
(0.00952958 -1.90168e-05 8.10932e-25)
(0.00954424 -3.0705e-05 2.93549e-24)
(0.00956197 -4.35921e-05 -8.03281e-24)
(0.00958145 -5.85255e-05 -4.3161e-24)
(0.00960128 -7.62168e-05 1.18458e-23)
(0.0096199 -9.70979e-05 -3.67059e-24)
(0.00963552 -0.000121093 1.25451e-23)
(0.00964648 -0.000147326 -6.60813e-24)
(0.00965125 -0.00017403 -2.07544e-24)
(0.0096502 -0.000198779 1.22382e-24)
(0.0113236 7.08837e-05 -5.58902e-27)
(0.0112697 4.29438e-05 3.21548e-25)
(0.0112448 2.18559e-05 -4.57551e-25)
(0.0112374 4.79095e-06 1.08815e-24)
(0.0112411 -9.71623e-06 -6.48619e-24)
(0.0112518 -2.35267e-05 6.85164e-24)
(0.0112667 -3.77044e-05 -1.084e-23)
(0.0112837 -5.28089e-05 6.66222e-24)
(0.0113014 -6.94631e-05 4.97148e-24)
(0.0113185 -8.80414e-05 1.0792e-23)
(0.0113336 -0.000108528 -1.41003e-23)
(0.0113455 -0.000130431 -2.56554e-24)
(0.0113533 -0.000152765 1.24434e-24)
(0.0113566 -0.000174229 8.42394e-24)
(0.0113561 -0.00019347 -3.40272e-24)
(0.0130673 8.60166e-05 2.85991e-26)
(0.0130319 5.2051e-05 -1.30567e-25)
(0.0130188 2.62205e-05 5.94053e-25)
(0.0130193 5.30414e-06 -2.08073e-24)
(0.0130282 -1.25358e-05 3.15305e-24)
(0.0130421 -2.90947e-05 -4.07446e-24)
(0.0130587 -4.55112e-05 6.83094e-24)
(0.0130761 -6.23798e-05 1.19896e-24)
(0.0130931 -8.01187e-05 -9.4288e-24)
(0.0131085 -9.88482e-05 1.33924e-23)
(0.0131215 -0.00011833 -1.47543e-23)
(0.0131313 -0.000138003 -4.26019e-24)
(0.0131378 -0.000157079 7.59722e-24)
(0.0131407 -0.000174749 2.21481e-24)
(0.0131413 -0.000190315 -9.60877e-25)
(0.0148319 9.56299e-05 9.27467e-26)
(0.0148224 5.68618e-05 -9.71566e-25)
(0.0148266 2.69564e-05 -1.64331e-24)
(0.0148391 2.61199e-06 3.86807e-24)
(0.0148562 -1.81702e-05 1.73478e-24)
(0.0148757 -3.71049e-05 -1.09013e-23)
(0.0148958 -5.53073e-05 3.36091e-24)
(0.0149151 -7.33597e-05 2.4272e-24)
(0.0149328 -9.15407e-05 -1.04197e-23)
(0.0149482 -0.000109842 1.09088e-23)
(0.0149608 -0.000127989 -8.55721e-24)
(0.0149703 -0.000145537 2.20756e-23)
(0.014977 -0.000161969 -1.04975e-23)
(0.0149808 -0.000176853 6.12072e-24)
(0.0149828 -0.000189872 -1.65465e-24)
(0.0166175 9.62879e-05 -5.61513e-27)
(0.0166338 5.43215e-05 5.93196e-25)
(0.0166561 2.13885e-05 -1.27035e-24)
(0.0166815 -5.61745e-06 -6.75389e-25)
(0.0167079 -2.86785e-05 7.49024e-24)
(0.0167338 -4.93798e-05 -1.08029e-24)
(0.0167583 -6.87558e-05 -1.33626e-23)
(0.0167806 -8.73531e-05 1.55758e-23)
(0.0168002 -0.000105388 -3.52167e-24)
(0.0168168 -0.000122837 -1.20225e-23)
(0.0168304 -0.000139504 1.27446e-23)
(0.0168409 -0.000155117 6.70159e-24)
(0.016849 -0.000169403 -5.81342e-24)
(0.0168544 -0.000182175 -9.75392e-24)
(0.0168585 -0.000193335 8.08555e-25)
(0.0184499 8.78064e-05 -3.19142e-26)
(0.0184825 4.36305e-05 -5.81651e-25)
(0.0185167 8.47021e-06 3.22797e-24)
(0.0185509 -2.04613e-05 3.05138e-25)
(0.0185838 -4.5133e-05 2.02052e-24)
(0.0186143 -6.69812e-05 -7.07903e-24)
(0.018642 -8.69417e-05 6.08233e-24)
(0.0186665 -0.000105536 1.36878e-24)
(0.0186877 -0.000122989 1.23929e-23)
(0.0187056 -0.00013934 -1.92561e-23)
(0.0187204 -0.000154516 -8.60401e-24)
(0.0187323 -0.000168412 -5.5445e-24)
(0.0187419 -0.000180934 1.05692e-23)
(0.0187492 -0.00019205 -2.85797e-25)
(0.0187553 -0.000201777 9.97428e-25)
(0.0203575 7.40666e-05 -3.12413e-26)
(0.0203934 2.76726e-05 4.59463e-25)
(0.0204298 -9.51221e-06 -6.90241e-25)
(0.0204652 -4.00777e-05 -1.84853e-26)
(0.0204986 -6.60002e-05 1.3409e-24)
(0.0205292 -8.86265e-05 3.50091e-24)
(0.0205567 -0.00010883 -1.35624e-23)
(0.0205808 -0.00012714 1.14995e-24)
(0.0206016 -0.000143845 6.9255e-24)
(0.0206193 -0.000159085 -3.13495e-24)
(0.0206342 -0.000172916 8.58867e-24)
(0.0206465 -0.000185367 5.87419e-24)
(0.0206568 -0.00019647 -1.07144e-23)
(0.020665 -0.000206282 7.16391e-24)
(0.0206722 -0.000214883 -5.94408e-24)
(0.0223319 5.96508e-05 -7.60756e-25)
(0.0223629 1.08252e-05 9.2686e-25)
(0.0223944 -2.82617e-05 6.05478e-25)
(0.0224251 -6.03886e-05 -5.02016e-24)
(0.022454 -8.74518e-05 4.57151e-24)
(0.0224804 -0.000110737 -3.75925e-24)
(0.0225041 -0.000131103 2.65816e-24)
(0.0225248 -0.000149124 -1.95456e-23)
(0.0225429 -0.000165174 2.82118e-23)
(0.0225583 -0.0001795 -1.65736e-23)
(0.0225715 -0.000192271 1.47841e-23)
(0.0225825 -0.000203619 1.21328e-23)
(0.022592 -0.000213654 -2.11752e-23)
(0.0225998 -0.00022249 6.8302e-24)
(0.0226067 -0.00023024 -2.83217e-25)
(0.0243092 4.62724e-05 -2.55728e-26)
(0.0243346 -4.27587e-06 1.08021e-24)
(0.0243599 -4.48785e-05 -1.20799e-24)
(0.0243841 -7.82476e-05 -1.23026e-25)
(0.0244067 -0.000106209 1.57089e-24)
(0.0244273 -0.000129997 -2.88973e-24)
(0.0244458 -0.000150472 2.90947e-24)
(0.024462 -0.00016826 -9.62984e-24)
(0.0244761 -0.000183813 2.21708e-23)
(0.0244882 -0.000197467 -2.85707e-23)
(0.0244986 -0.000209472 2.34368e-23)
(0.0245073 -0.000220029 -7.91512e-24)
(0.0245149 -0.000229303 3.93379e-25)
(0.0245211 -0.000237438 1.74385e-24)
(0.0245268 -0.000244564 -3.38548e-24)
(0.0261852 3.29969e-05 -2.09752e-24)
(0.026207 -1.79284e-05 5.2281e-24)
(0.0262276 -5.92023e-05 -3.46964e-24)
(0.0262467 -9.31495e-05 3.89456e-25)
(0.026264 -0.0001215 8.29178e-25)
(0.0262796 -0.000145441 -1.3316e-24)
(0.0262935 -0.000165829 -2.08522e-24)
(0.0263055 -0.000183324 -5.56312e-24)
(0.026316 -0.000198429 2.42084e-24)
(0.0263248 -0.000211535 1.3769e-23)
(0.0263324 -0.000222941 -7.37776e-24)
(0.0263388 -0.000232889 4.47619e-24)
(0.0263443 -0.000241573 -1.84916e-24)
(0.0263488 -0.000249156 -5.44595e-24)
(0.0263529 -0.000255775 2.78157e-24)
(0.0278318 1.81839e-05 6.96177e-25)
(0.0278517 -3.15752e-05 -1.36669e-24)
(0.0278694 -7.22843e-05 -2.80063e-24)
(0.0278848 -0.000105991 6.56321e-24)
(0.0278985 -0.000134148 -1.58044e-24)
(0.0279105 -0.00015783 -1.87185e-24)
(0.0279211 -0.000177877 1.68946e-25)
(0.0279302 -0.000194956 -1.12045e-24)
(0.027938 -0.000209587 7.80243e-25)
(0.0279445 -0.000222179 -1.62634e-24)
(0.0279501 -0.000233053 3.67571e-24)
(0.0279546 -0.000242466 2.11393e-24)
(0.0279585 -0.000250624 -7.78412e-24)
(0.0279617 -0.000257698 5.47136e-24)
(0.0279645 -0.000263823 -1.13155e-24)
(0.0290934 2.23981e-06 2.10065e-24)
(0.0291123 -4.52458e-05 4.71086e-24)
(0.0291282 -8.46137e-05 -9.98778e-24)
(0.0291416 -0.000117437 -4.09188e-24)
(0.0291529 -0.00014489 7.72746e-24)
(0.0291626 -0.000167948 3.53097e-24)
(0.0291708 -0.000187416 -1.44798e-26)
(0.0291777 -0.000203945 -5.48088e-24)
(0.0291833 -0.000218044 -6.39616e-25)
(0.0291878 -0.000230113 7.56028e-25)
(0.0291915 -0.000240467 4.99195e-25)
(0.0291943 -0.00024936 -9.39803e-26)
(0.0291964 -0.000256995 -1.56592e-25)
(0.0291979 -0.000263538 2.38226e-25)
(0.029199 -0.000269121 -1.18125e-25)
(0.0297687 -1.53159e-05 -5.66394e-24)
(0.0297849 -5.89622e-05 -1.42568e-23)
(0.0297968 -9.55846e-05 4.76047e-24)
(0.0298054 -0.000126262 3.07073e-23)
(0.0298118 -0.000151968 -9.30632e-24)
(0.0298165 -0.000173571 -6.35384e-24)
(0.0298198 -0.000191801 4.18897e-24)
(0.0298221 -0.000207252 1.15059e-23)
(0.0298233 -0.000220385 -2.13125e-23)
(0.0298238 -0.00023157 7.98819e-24)
(0.0298235 -0.000241095 -6.39225e-25)
(0.0298227 -0.000249196 2.35143e-24)
(0.0298214 -0.000256058 8.64271e-25)
(0.0298196 -0.000261837 -7.8487e-25)
(0.0298176 -0.000266652 1.51285e-25)
(0.0296172 -3.50038e-05 9.18665e-24)
(0.0296316 -7.36502e-05 -2.18211e-23)
(0.0296418 -0.000106293 2.93805e-24)
(0.0296489 -0.000133703 3.77715e-23)
(0.0296538 -0.000156683 -3.89263e-23)
(0.0296569 -0.00017599 1.59701e-23)
(0.0296586 -0.000192266 1.7404e-23)
(0.0296592 -0.000206025 -4.10027e-23)
(0.0296589 -0.000217667 -8.77675e-25)
(0.0296577 -0.000227513 1.52119e-23)
(0.0296558 -0.000235815 4.84303e-24)
(0.0296533 -0.000242775 -3.67618e-24)
(0.0296503 -0.000248553 3.23872e-24)
(0.0296469 -0.000253282 -1.29239e-24)
(0.0296431 -0.000257062 4.52447e-25)
(0.0286746 -4.92193e-05 5.7973e-24)
(0.0286824 -8.28351e-05 -1.24674e-23)
(0.0286869 -0.000111367 -9.50563e-24)
(0.0286889 -0.000135435 4.46498e-23)
(0.0286892 -0.000155716 -4.27795e-23)
(0.0286882 -0.000172833 3.94419e-24)
(0.0286859 -0.000187304 7.79991e-24)
(0.0286828 -0.000199542 5.08451e-24)
(0.0286789 -0.000209874 5.80662e-24)
(0.0286743 -0.000218559 -3.16131e-23)
(0.0286692 -0.000225804 1.98503e-23)
(0.0286636 -0.000231773 1.672e-25)
(0.0286576 -0.000236596 1.12978e-23)
(0.0286513 -0.000240382 -5.25695e-24)
(0.0286445 -0.000243217 -1.17215e-24)
(0.0271655 -5.7297e-05 1.45705e-23)
(0.0271714 -8.62137e-05 -2.61441e-23)
(0.0271738 -0.000110902 5.25854e-24)
(0.0271735 -0.000131883 -1.39736e-23)
(0.0271712 -0.000149691 -1.9401e-23)
(0.0271674 -0.000164799 6.37837e-23)
(0.0271624 -0.000177599 -2.57094e-23)
(0.0271564 -0.000188413 7.78851e-24)
(0.0271495 -0.000197497 -4.54948e-24)
(0.027142 -0.000205062 -1.32616e-23)
(0.0271339 -0.000211272 2.58838e-23)
(0.0271253 -0.000216262 -1.55957e-23)
(0.0271162 -0.000220138 1.86668e-24)
(0.0271068 -0.000222992 2.80921e-24)
(0.027097 -0.000224896 -3.46042e-25)
(0.0253183 -6.35756e-05 5.64908e-24)
(0.0253209 -8.78957e-05 -2.96356e-23)
(0.0253199 -0.000108751 5.2156e-23)
(0.0253163 -0.000126561 -4.04696e-23)
(0.0253108 -0.000141742 4.18292e-23)
(0.0253036 -0.000154647 -1.34693e-23)
(0.0252951 -0.000165572 -9.64356e-24)
(0.0252856 -0.000174762 -1.13263e-23)
(0.0252752 -0.00018242 2.14742e-23)
(0.0252641 -0.000188711 3.30506e-25)
(0.0252524 -0.000193763 -2.18887e-23)
(0.0252403 -0.000197685 -3.30647e-24)
(0.0252277 -0.000200561 5.78667e-24)
(0.0252147 -0.000202464 -1.36364e-24)
(0.0252014 -0.000203453 3.14393e-25)
(0.0232794 -6.55861e-05 7.5458e-25)
(0.0232773 -8.55651e-05 -1.1171e-23)
(0.0232719 -0.000102801 -6.50924e-24)
(0.023264 -0.000117598 5.23926e-23)
(0.0232541 -0.00013026 -5.21165e-23)
(0.0232427 -0.000141036 1.53837e-23)
(0.0232301 -0.00015014 2.67303e-24)
(0.0232165 -0.000157756 -1.44915e-24)
(0.023202 -0.000164035 -7.16788e-24)
(0.0231869 -0.000169105 3.19226e-23)
(0.0231712 -0.000173065 -2.57707e-23)
(0.0231552 -0.000176002 -1.37423e-24)
(0.0231387 -0.000177981 2.4062e-24)
(0.0231219 -0.000179063 2.35557e-24)
(0.0231049 -0.000179293 -1.86823e-24)
(0.0211494 -6.29778e-05 1.12476e-24)
(0.0211421 -7.91343e-05 1.03887e-23)
(0.0211318 -9.31539e-05 -1.19037e-23)
(0.0211193 -0.000105245 -8.4367e-24)
(0.021105 -0.000115622 5.43664e-23)
(0.0210893 -0.000124462 -4.15749e-23)
(0.0210725 -0.000131915 -8.61284e-25)
(0.0210548 -0.000138115 -8.98401e-24)
(0.0210365 -0.000143173 -8.28035e-25)
(0.0210176 -0.000147184 1.25654e-24)
(0.0209982 -0.000150224 -5.47529e-24)
(0.0209786 -0.000152361 4.17883e-24)
(0.0209586 -0.000153645 1.41385e-24)
(0.0209385 -0.000154122 1.36611e-24)
(0.0209183 -0.000153828 1.83086e-24)
(0.0190023 -5.66849e-05 8.0187e-24)
(0.0189905 -6.95889e-05 -1.23306e-23)
(0.0189761 -8.08447e-05 -1.00912e-23)
(0.0189598 -9.06041e-05 3.08336e-23)
(0.0189419 -9.90175e-05 -1.10328e-23)
(0.0189229 -0.000106205 -1.59239e-23)
(0.0189029 -0.000112268 5.52198e-24)
(0.0188822 -0.000117299 1.28462e-23)
(0.0188609 -0.000121377 -2.08611e-23)
(0.0188392 -0.000124571 2.10499e-23)
(0.0188172 -0.000126938 -1.15222e-23)
(0.018795 -0.000128525 5.11143e-24)
(0.0187726 -0.000129369 -7.12798e-24)
(0.0187503 -0.000129504 7.28377e-24)
(0.018728 -0.000128958 -1.8489e-24)
(0.0168959 -4.82414e-05 -1.55587e-24)
(0.0168811 -5.84637e-05 -5.45436e-24)
(0.0168642 -6.74355e-05 -1.7545e-23)
(0.0168456 -7.52804e-05 4.90276e-23)
(0.0168257 -8.20942e-05 -8.67851e-24)
(0.0168047 -8.79483e-05 -1.40053e-23)
(0.0167829 -9.29059e-05 5.0035e-24)
(0.0167605 -9.70279e-05 -7.22976e-24)
(0.0167376 -0.00010037 -1.61864e-23)
(0.0167144 -0.00010298 1.55486e-23)
(0.016691 -0.000104895 7.44892e-25)
(0.0166675 -0.000106149 -5.50984e-24)
(0.016644 -0.000106767 6.26159e-24)
(0.0166206 -0.000106777 4.42197e-25)
(0.0165974 -0.000106199 -5.48708e-25)
(0.014873 -3.92208e-05 5.98443e-24)
(0.0148571 -4.72751e-05 8.90877e-24)
(0.0148392 -5.44037e-05 -8.21108e-24)
(0.0148199 -6.07077e-05 -1.82752e-23)
(0.0147993 -6.62321e-05 2.4814e-23)
(0.0147777 -7.10121e-05 -2.74108e-23)
(0.0147553 -7.50869e-05 -1.25723e-24)
(0.0147324 -7.84971e-05 1.07583e-23)
(0.014709 -8.12793e-05 3.82085e-24)
(0.0146854 -8.34635e-05 -8.27677e-24)
(0.0146616 -8.5075e-05 -2.76602e-25)
(0.0146377 -8.61358e-05 1.78059e-23)
(0.0146139 -8.66647e-05 -6.84032e-24)
(0.0145904 -8.66817e-05 -1.85242e-24)
(0.014567 -8.62023e-05 -1.25981e-25)
(0.0129613 -3.07312e-05 -6.21393e-24)
(0.0129455 -3.70286e-05 8.00975e-24)
(0.0129279 -4.26625e-05 9.23551e-25)
(0.0129088 -4.77058e-05 1.65626e-23)
(0.0128886 -5.21641e-05 -1.34312e-23)
(0.0128673 -5.60529e-05 1.16356e-24)
(0.0128453 -5.93972e-05 -1.39731e-24)
(0.0128227 -6.2222e-05 -4.34781e-24)
(0.0127996 -6.4549e-05 3.99803e-24)
(0.0127762 -6.63964e-05 -1.29515e-23)
(0.0127526 -6.77799e-05 7.16491e-25)
(0.012729 -6.87143e-05 3.08544e-24)
(0.0127054 -6.92123e-05 2.02544e-24)
(0.012682 -6.92881e-05 8.3942e-25)
(0.0126589 -6.89521e-05 3.42245e-25)
(0.0111749 -2.33175e-05 4.60189e-24)
(0.01116 -2.81736e-05 -3.63402e-24)
(0.0111434 -3.25763e-05 -1.62115e-23)
(0.0111253 -3.65626e-05 1.52288e-23)
(0.011106 -4.01145e-05 2.16266e-23)
(0.0110857 -4.32391e-05 -5.31575e-24)
(0.0110645 -4.59514e-05 -1.12298e-23)
(0.0110427 -4.8265e-05 -1.62073e-23)
(0.0110204 -5.01917e-05 1.23189e-23)
(0.0109976 -5.17416e-05 7.91363e-25)
(0.0109747 -5.29245e-05 -2.89767e-24)
(0.0109516 -5.37496e-05 -8.62729e-25)
(0.0109285 -5.42251e-05 1.7563e-24)
(0.0109056 -5.43607e-05 -2.8991e-26)
(0.0108829 -5.41621e-05 -3.90527e-25)
(0.00951835 -1.71359e-05 -2.89645e-24)
(0.00950476 -2.08039e-05 -2.09496e-24)
(0.00948955 -2.4181e-05 2.51122e-24)
(0.00947286 -2.72663e-05 -8.16088e-24)
(0.0094549 -3.00341e-05 2.6853e-23)
(0.00943585 -3.2489e-05 -3.59446e-23)
(0.00941591 -3.46389e-05 3.56197e-23)
(0.00939522 -3.64901e-05 -1.51899e-23)
(0.00937393 -3.80482e-05 3.5855e-24)
(0.00935219 -3.93184e-05 1.5222e-25)
(0.00933014 -4.03066e-05 -2.81757e-24)
(0.0093079 -4.1018e-05 1.10483e-24)
(0.00928561 -4.14576e-05 -2.34415e-24)
(0.0092634 -4.1631e-05 -3.46519e-25)
(0.00924137 -4.15411e-05 1.82411e-25)
(0.00799014 -1.21493e-05 -1.40787e-24)
(0.00797813 -1.48445e-05 3.54296e-25)
(0.00796454 -1.73648e-05 7.87051e-25)
(0.00794947 -1.96804e-05 -3.71738e-24)
(0.00793311 -2.17699e-05 -1.72607e-24)
(0.00791563 -2.36373e-05 1.47258e-23)
(0.0078972 -2.5286e-05 -8.69119e-24)
(0.00787797 -2.67179e-05 1.28322e-24)
(0.00785808 -2.79353e-05 -1.23358e-24)
(0.00783767 -2.89404e-05 -1.38775e-24)
(0.00781687 -2.97363e-05 -4.53514e-25)
(0.00779583 -3.03257e-05 2.78339e-24)
(0.00777465 -3.07112e-05 8.43616e-25)
(0.0077535 -3.08956e-05 -1.77335e-24)
(0.00773245 -3.08795e-05 -3.03367e-25)
(0.00658562 -8.24517e-06 -5.12272e-25)
(0.00657531 -1.01566e-05 -1.736e-25)
(0.00656349 -1.19666e-05 -8.36605e-24)
(0.00655022 -1.36337e-05 2.16219e-24)
(0.00653569 -1.51461e-05 -6.17354e-24)
(0.00652005 -1.65072e-05 4.18634e-24)
(0.00650345 -1.77177e-05 8.1696e-24)
(0.00648601 -1.87775e-05 6.28361e-24)
(0.00646788 -1.9687e-05 -8.90365e-24)
(0.00644919 -2.04467e-05 2.68669e-24)
(0.00643007 -2.1058e-05 2.40322e-24)
(0.00641064 -2.15219e-05 -3.58537e-24)
(0.00639102 -2.18397e-05 1.91889e-24)
(0.00637135 -2.20118e-05 -2.02213e-25)
(0.00635172 -2.2038e-05 5.68296e-25)
(0.00529858 -5.28966e-06 -2.00803e-24)
(0.00529004 -6.58296e-06 -2.77901e-24)
(0.00528007 -7.8156e-06 -5.37035e-25)
(0.00526877 -8.95105e-06 6.9381e-24)
(0.00525628 -9.98653e-06 -4.96782e-24)
(0.00524274 -1.09245e-05 -1.01114e-24)
(0.00522825 -1.17644e-05 8.1389e-24)
(0.00521296 -1.25054e-05 7.40212e-26)
(0.00519698 -1.31469e-05 -1.6469e-24)
(0.00518042 -1.36886e-05 -6.36802e-24)
(0.00516341 -1.41308e-05 6.01883e-25)
(0.00514606 -1.44737e-05 4.57401e-24)
(0.00512848 -1.47175e-05 -5.95481e-25)
(0.0051108 -1.48618e-05 -7.32848e-25)
(0.0050931 -1.49055e-05 4.99043e-25)
(0.00412221 -3.14487e-06 -4.39343e-25)
(0.00411543 -3.9648e-06 2.37039e-26)
(0.00410739 -4.74388e-06 3.32344e-24)
(0.00409817 -5.46058e-06 2.26197e-24)
(0.00408788 -6.11769e-06 -1.5154e-24)
(0.00407665 -6.7167e-06 -3.8531e-24)
(0.00406456 -7.2567e-06 1.59051e-24)
(0.00405172 -7.73655e-06 -6.75988e-24)
(0.00403823 -8.15543e-06 5.22058e-24)
(0.0040242 -8.51262e-06 2.78461e-24)
(0.00400973 -8.808e-06 6.56322e-26)
(0.00399491 -9.0412e-06 -3.14501e-24)
(0.00397984 -9.21222e-06 6.03364e-25)
(0.00396464 -9.32008e-06 -4.94223e-25)
(0.00394938 -9.36338e-06 2.56782e-25)
(0.00304952 -1.67325e-06 -8.10002e-25)
(0.00304447 -2.14926e-06 1.23053e-26)
(0.00303836 -2.59238e-06 2.66501e-24)
(0.00303127 -2.99853e-06 -1.66773e-24)
(0.00302329 -3.37245e-06 6.96942e-24)
(0.00301452 -3.71491e-06 -1.27446e-23)
(0.00300502 -4.02513e-06 1.04878e-23)
(0.00299488 -4.30219e-06 -8.85129e-24)
(0.00298417 -4.54539e-06 6.44535e-24)
(0.00297299 -4.75407e-06 -4.21047e-24)
(0.00296141 -4.92801e-06 1.45979e-24)
(0.00294951 -5.06679e-06 2.18219e-25)
(0.00293737 -5.17037e-06 3.82023e-25)
(0.00292508 -5.23795e-06 -4.80787e-25)
(0.00291271 -5.26826e-06 1.06162e-25)
(0.00207361 -7.40462e-07 1.23095e-24)
(0.00207017 -9.83306e-07 1.34372e-24)
(0.00206593 -1.19819e-06 -5.73494e-24)
(0.00206096 -1.39291e-06 4.21218e-24)
(0.00205533 -1.5713e-06 -3.38029e-26)
(0.00204909 -1.73388e-06 1.11664e-24)
(0.00204229 -1.88048e-06 -1.34587e-24)
(0.002035 -2.01086e-06 -2.88848e-24)
(0.00202728 -2.12487e-06 2.88916e-24)
(0.00201917 -2.2224e-06 3.2923e-25)
(0.00201074 -2.30353e-06 -2.41717e-24)
(0.00200204 -2.36822e-06 8.62155e-25)
(0.00199315 -2.41665e-06 5.50613e-25)
(0.00198411 -2.4481e-06 -6.16545e-26)
(0.00197499 -2.46075e-06 -7.1432e-26)
(0.00118769 -2.12201e-07 -1.2442e-24)
(0.00118571 -2.85044e-07 3.81757e-24)
(0.00118324 -3.46634e-07 2.30758e-24)
(0.00118032 -4.03739e-07 -4.12357e-24)
(0.00117698 -4.56912e-07 -4.84683e-25)
(0.00117326 -5.06141e-07 -4.37862e-25)
(0.0011692 -5.51578e-07 1.35535e-24)
(0.00116481 -5.93436e-07 -2.30292e-24)
(0.00116014 -6.31989e-07 3.18639e-24)
(0.00115523 -6.67463e-07 -1.55668e-24)
(0.0011501 -7.00155e-07 -1.05292e-24)
(0.0011448 -7.30233e-07 6.49879e-25)
(0.00113935 -7.57957e-07 -8.33024e-25)
(0.00113381 -7.8127e-07 8.55307e-25)
(0.00112819 -7.95416e-07 -1.54904e-25)
(0.000385188 2.92707e-08 -8.93236e-27)
(0.000384489 1.16863e-07 7.47465e-25)
(0.000383624 1.80964e-07 8.64493e-25)
(0.000382611 2.22465e-07 -1.34766e-24)
(0.000381459 2.44699e-07 2.83958e-24)
(0.000380179 2.50431e-07 -3.07751e-24)
(0.000378777 2.42031e-07 2.05882e-25)
(0.000377265 2.21631e-07 1.75185e-24)
(0.000375652 1.91161e-07 -2.42477e-24)
(0.00037395 1.52405e-07 -4.6228e-25)
(0.00037217 1.06963e-07 1.75038e-24)
(0.000370325 5.63143e-08 -7.80505e-25)
(0.000368426 1.76855e-09 -3.14595e-25)
(0.000366487 -5.40062e-08 2.66967e-25)
(0.000364519 -1.06782e-07 -1.288e-26)
(0.000926654 -0.000223755 5.84146e-26)
(0.0010663 -0.000128245 1.34943e-24)
(0.00130244 -3.35419e-05 -3.66745e-24)
(0.00154547 4.1871e-05 4.90981e-24)
(0.00178123 9.99863e-05 -1.83445e-24)
(0.00201422 0.000141523 -1.48193e-24)
(0.00224398 0.000168882 1.56467e-24)
(0.00247065 0.000184092 -2.82559e-24)
(0.00269451 0.000188913 2.77557e-25)
(0.00291576 0.000184914 1.64213e-24)
(0.00313467 0.000173466 -2.91543e-25)
(0.00335152 0.000155774 2.99691e-25)
(0.00356667 0.000132913 -3.58339e-26)
(0.00378051 0.000105912 1.46682e-25)
(0.00399354 7.58998e-05 -5.2266e-25)
(0.00420633 4.42783e-05 2.70076e-25)
(0.00442006 1.29035e-05 -4.08818e-26)
(0.00463628 -1.56534e-05 2.73961e-26)
(0.00485829 -3.8536e-05 -1.8139e-26)
(0.0050903 -5.23641e-05 2.69076e-26)
(0.00533877 -5.52456e-05 -9.61292e-27)
(0.00560908 -4.75521e-05 8.8176e-27)
(0.00588123 -3.62683e-05 -1.33867e-26)
(0.00612192 -3.14165e-05 -3.61519e-26)
(0.00631914 -3.64707e-05 6.83696e-26)
(0.00647298 -5.1522e-05 5.15418e-26)
(0.00658526 -7.54812e-05 2.99554e-26)
(0.00665837 -0.000108042 -2.09746e-25)
(0.00669519 -0.0001487 -6.98536e-25)
(0.00669583 -0.000195113 1.48013e-24)
(0.00666027 -0.00024586 -2.6335e-24)
(0.00658883 -0.000298189 3.52791e-24)
(0.00648152 -0.000345161 -1.4629e-24)
(0.00633767 -0.000380339 -2.92997e-24)
(0.00615802 -0.000395953 2.9187e-24)
(0.00594377 -0.000383155 1.15315e-23)
(0.0056966 -0.000331946 -4.13859e-24)
(0.00541869 -0.000230448 1.76448e-24)
(0.00511283 -6.34722e-05 5.8455e-25)
(0.00478313 0.000189158 -1.32384e-23)
(0.00443402 0.000550655 -1.53156e-25)
(0.00407116 0.00103439 4.9725e-24)
(0.00367959 0.00160157 1.32692e-24)
(0.00328038 0.00210122 -6.7346e-24)
(0.003055 0.00212003 -3.13287e-25)
(0.00175945 -0.000307646 -1.64162e-24)
(0.00182013 -0.000250012 -2.03501e-24)
(0.00196995 -0.00015925 4.41374e-24)
(0.0021577 -7.7004e-05 1.69898e-24)
(0.00235853 -8.60452e-06 -5.88557e-24)
(0.00256716 4.36164e-05 5.82986e-24)
(0.00277904 8.09447e-05 -2.02905e-24)
(0.0029919 0.000105218 1.3501e-24)
(0.00320463 0.000118205 -1.80128e-24)
(0.00341661 0.000121538 2.93987e-26)
(0.00362755 0.000116663 -8.15955e-25)
(0.00383734 0.000104857 1.59655e-24)
(0.00404605 8.7267e-05 -8.44235e-25)
(0.00425379 6.49906e-05 -6.40583e-25)
(0.00446082 3.9214e-05 -2.73723e-25)
(0.00466745 1.13671e-05 7.63304e-25)
(0.00487455 -1.66891e-05 8.69897e-27)
(0.00508324 -4.24327e-05 1.38823e-25)
(0.00529632 -6.30796e-05 -5.65477e-26)
(0.00551736 -7.53199e-05 7.53697e-27)
(0.00575218 -7.7231e-05 2.37789e-26)
(0.00600577 -6.89157e-05 1.84407e-26)
(0.00626 -5.68709e-05 -7.67872e-26)
(0.00648489 -5.05874e-05 -5.85696e-26)
(0.00666967 -5.33888e-05 7.04042e-26)
(0.00681446 -6.54653e-05 3.14557e-25)
(0.00692071 -8.57554e-05 -5.06308e-25)
(0.0069903 -0.000113964 5.18626e-25)
(0.00702594 -0.00014943 -1.86642e-25)
(0.00702713 -0.000189478 4.29413e-25)
(0.00699444 -0.000232686 -4.2112e-24)
(0.00692789 -0.000276284 8.05903e-24)
(0.006828 -0.000313178 -7.72006e-24)
(0.00669446 -0.000337008 1.69695e-23)
(0.00652868 -0.000340158 -2.30068e-23)
(0.00633278 -0.000313937 5.82906e-24)
(0.00610981 -0.000248567 1.86283e-23)
(0.005864 -0.000132577 -5.89308e-24)
(0.00560143 4.83249e-05 -1.34241e-23)
(0.00533177 0.000312861 -7.25505e-24)
(0.00506988 0.000682924 1.65108e-23)
(0.00484076 0.00117234 -1.51848e-23)
(0.00466536 0.00174401 -2.70654e-24)
(0.0045942 0.00223622 9.03313e-24)
(0.00463527 0.00220541 2.5381e-24)
(0.00275058 -0.000318058 -1.81192e-26)
(0.00276268 -0.000304126 -2.42063e-24)
(0.002831 -0.000247199 4.54429e-24)
(0.00295297 -0.000176085 3.22749e-24)
(0.00310386 -0.000108407 -5.47781e-24)
(0.00327421 -5.16063e-05 1.37201e-25)
(0.00345645 -7.59238e-06 4.43279e-25)
(0.00364579 2.40094e-05 4.21894e-24)
(0.00383935 4.42916e-05 -4.94111e-24)
(0.00403531 5.45817e-05 2.80205e-24)
(0.00423253 5.61913e-05 7.14872e-25)
(0.00443029 5.03528e-05 -4.26514e-24)
(0.00462818 3.8217e-05 1.52437e-24)
(0.00482594 2.09065e-05 5.37977e-25)
(0.00502349 -3.59001e-07 -9.39569e-25)
(0.00522079 -2.414e-05 1.29737e-24)
(0.00541832 -4.85806e-05 -7.20864e-25)
(0.00561673 -7.12284e-05 9.23323e-26)
(0.00581826 -8.93736e-05 7.96146e-26)
(0.00602572 -9.97878e-05 7.26762e-27)
(0.00624425 -0.000100525 4.86799e-27)
(0.00647825 -9.14312e-05 -3.36031e-26)
(0.00671161 -7.85278e-05 7.61661e-26)
(0.00691793 -7.07657e-05 -2.04515e-25)
(0.0070878 -7.12901e-05 2.85552e-25)
(0.00722139 -8.0367e-05 -1.5666e-25)
(0.0073198 -9.69333e-05 5.90061e-25)
(0.00738442 -0.000120721 -8.38487e-25)
(0.00741776 -0.000150883 1.61044e-24)
(0.0074185 -0.000184446 8.37644e-25)
(0.00738845 -0.000219965 1.77863e-24)
(0.0073266 -0.000254709 -9.33403e-24)
(0.00723432 -0.000281413 3.64181e-24)
(0.00711165 -0.000293885 8.63979e-24)
(0.00696073 -0.000284781 -1.92386e-23)
(0.00678462 -0.000245793 2.73966e-23)
(0.0065878 -0.000167748 -1.74429e-23)
(0.00637651 -4.02447e-05 2.17033e-23)
(0.00615985 0.000148826 -4.03325e-23)
(0.00595201 0.000414139 1.51065e-23)
(0.00577486 0.000770915 4.93541e-24)
(0.00566277 0.00122423 7.10784e-24)
(0.0056467 0.00173079 -8.81238e-24)
(0.0057674 0.00214023 2.11194e-24)
(0.00592568 0.00210487 -1.23041e-24)
(0.00388025 -0.000303979 -6.61729e-25)
(0.00386646 -0.000316685 -9.27638e-25)
(0.00388261 -0.000292193 -3.76198e-24)
(0.00394141 -0.000244854 1.3465e-24)
(0.0040373 -0.000188621 8.65487e-25)
(0.00416021 -0.000135339 2.58619e-24)
(0.00430276 -9.00924e-05 -4.66381e-24)
(0.00445901 -5.46794e-05 1.93328e-24)
(0.00462474 -2.93165e-05 5.32963e-24)
(0.00479698 -1.34307e-05 -1.46528e-24)
(0.00497364 -6.13841e-06 -1.24127e-24)
(0.00515329 -6.44211e-06 -1.84192e-25)
(0.00533493 -1.33085e-05 5.48543e-25)
(0.0055178 -2.56679e-05 -1.00892e-24)
(0.00570142 -4.23203e-05 2.62846e-25)
(0.00588529 -6.18537e-05 -4.7363e-27)
(0.0060695 -8.24452e-05 -1.22863e-25)
(0.00625411 -0.000101727 2.26033e-25)
(0.00644076 -0.000117095 -3.87516e-27)
(0.00663146 -0.00012542 -4.06284e-26)
(0.00683053 -0.00012475 7.86813e-26)
(0.00704167 -0.000114695 2.97669e-26)
(0.00725086 -0.000100828 1.38524e-25)
(0.00743552 -9.15445e-05 -2.12236e-26)
(0.00758766 -8.97819e-05 2.61156e-25)
(0.00770758 -9.58576e-05 -4.62831e-25)
(0.00779601 -0.000108668 6.3472e-25)
(0.00785388 -0.000128 -1.44199e-24)
(0.00788346 -0.000152717 1.95934e-24)
(0.00788244 -0.000179842 -9.06267e-26)
(0.00785464 -0.00020756 -1.78062e-24)
(0.00779712 -0.000233449 -2.67043e-25)
(0.00771239 -0.000250093 -2.90648e-25)
(0.00760094 -0.000251589 -2.12751e-24)
(0.00746557 -0.000231029 3.54039e-24)
(0.00731029 -0.000180764 -7.92355e-24)
(0.00714082 -9.2667e-05 3.43603e-23)
(0.00696509 4.19094e-05 -1.85067e-23)
(0.00679426 0.000231892 -1.11878e-24)