/*--------------------------------*- C++ -*----------------------------------*\
| =========                 |                                                 |
| \\      /  F ield         | OpenFOAM: The Open Source CFD Toolbox           |
|  \\    /   O peration     | Version:  2312                                  |
|   \\  /    A nd           | Website:  www.openfoam.com                      |
|    \\/     M anipulation  |                                                 |
\*---------------------------------------------------------------------------*/
FoamFile
{
    version     2.0;
    format      ascii;
    arch        "LSB;label=32;scalar=64";
    class       surfaceScalarField;
    location    "127.75";
    object      phi;
}
// * * * * * * * * * * * * * * * * * * * * * * * * * * * * * * * * * * * * * //

dimensions      [0 3 -1 0 0 0 0];

oriented        oriented;

internalField   nonuniform List<scalar> 
9445
(
5.81154e-10
9.06596e-12
5.76909e-10
4.24488e-12
5.75531e-10
1.37866e-12
5.76023e-10
-4.91971e-13
5.7769e-10
-1.66693e-12
5.8024e-10
-2.55031e-12
5.83627e-10
-3.38664e-12
5.87891e-10
-4.26434e-12
5.93179e-10
-5.28774e-12
5.99907e-10
-6.72867e-12
6.09223e-10
-9.31535e-12
6.24743e-10
-1.55206e-11
6.59238e-10
-3.44944e-11
7.57575e-10
-9.83374e-11
-2.53103e-10
1.01068e-09
2.03497e-09
3.96389e-11
2.02022e-09
1.89951e-11
2.01495e-09
6.64439e-12
2.01574e-09
-1.27927e-12
2.02035e-09
-6.28521e-12
2.02793e-09
-1.01255e-11
2.03817e-09
-1.363e-11
2.05112e-09
-1.72063e-11
2.06722e-09
-2.13941e-11
2.08772e-09
-2.72241e-11
2.11553e-09
-3.71232e-11
2.15764e-09
-5.76356e-11
2.22751e-09
-1.04364e-10
2.33783e-09
-2.08653e-10
-3.68092e-10
2.45281e-09
4.02505e-09
9.78658e-11
3.9963e-09
4.77469e-11
3.98525e-09
1.76998e-11
3.98538e-09
-1.41346e-12
3.99259e-09
-1.34982e-11
4.00532e-09
-2.28498e-11
4.02286e-09
-3.11701e-11
4.04501e-09
-3.93548e-11
4.07239e-09
-4.87736e-11
4.10656e-09
-6.13977e-11
4.15052e-09
-8.10815e-11
4.209e-09
-1.16119e-10
4.28474e-09
-1.80103e-10
4.36382e-09
-2.87734e-10
-4.14252e-10
4.40998e-09
6.69863e-09
1.90425e-10
6.65183e-09
9.45467e-11
6.63248e-09
3.70485e-11
6.63046e-09
6.02892e-13
6.6394e-09
-2.24338e-11
6.65673e-09
-4.01823e-11
6.68124e-09
-5.568e-11
6.71212e-09
-7.02372e-11
6.74977e-09
-8.64152e-11
6.79525e-09
-1.06886e-10
6.84995e-09
-1.35773e-10
6.91371e-09
-1.79884e-10
6.98016e-09
-2.4655e-10
7.02936e-09
-3.3694e-10
-4.2464e-10
7.03975e-09
1.02326e-08
3.23461e-10
1.01637e-08
1.63446e-10
1.01332e-08
6.75065e-11
1.01271e-08
6.79726e-12
1.01364e-08
-3.18274e-11
1.01572e-08
-6.08941e-11
1.01874e-08
-8.59025e-11
1.02254e-08
-1.08257e-10
1.02709e-08
-1.31871e-10
1.03236e-08
-1.59643e-10
1.03827e-08
-1.94808e-10
1.04438e-08
-2.40996e-10
1.04968e-08
-2.99597e-10
1.05253e-08
-3.6541e-10
-4.19327e-10
1.052e-08
1.48341e-08
5.00255e-10
1.47404e-08
2.57144e-10
1.46965e-08
1.11442e-10
1.46842e-08
1.90987e-11
1.46926e-08
-4.0221e-11
1.47151e-08
-8.34328e-11
1.4749e-08
-1.19744e-10
1.47916e-08
-1.50857e-10
1.48413e-08
-1.81651e-10
1.48966e-08
-2.1488e-10
1.49541e-08
-2.52376e-10
1.5008e-08
-2.94804e-10
1.50485e-08
-3.40148e-10
1.50655e-08
-3.82411e-10
-4.10864e-10
1.5057e-08
2.07374e-08
7.17077e-10
2.06201e-08
3.74423e-10
2.05629e-08
1.68724e-10
2.05437e-08
3.82529e-11
2.05499e-08
-4.64087e-11
2.05731e-08
-1.06603e-10
2.06083e-08
-1.55017e-10
2.06526e-08
-1.95143e-10
2.0703e-08
-2.32016e-10
2.07563e-08
-2.68139e-10
2.08081e-08
-3.04213e-10
2.08526e-08
-3.39306e-10
2.08831e-08
-3.7067e-10
2.08949e-08
-3.9415e-10
-4.05045e-10
2.0889e-08
2.81963e-08
9.572e-10
2.80646e-08
5.06162e-10
2.79992e-08
2.341e-10
2.7976e-08
6.14632e-11
2.79809e-08
-5.13463e-11
2.80045e-08
-1.30183e-10
2.80402e-08
-1.90724e-10
2.80841e-08
-2.39027e-10
2.81322e-08
-2.80135e-10
2.81805e-08
-3.16449e-10
2.82246e-08
-3.48307e-10
2.826e-08
-3.74686e-10
2.82831e-08
-3.93769e-10
2.82927e-08
-4.03724e-10
-4.03332e-10
2.8291e-08
3.74744e-08
1.18518e-09
3.73496e-08
6.30912e-10
3.72898e-08
2.93924e-10
3.72714e-08
7.98365e-11
3.72806e-08
-6.04854e-11
3.73075e-08
-1.57136e-10
3.73451e-08
-2.28358e-10
3.73888e-08
-2.82686e-10
3.74342e-08
-3.25495e-10
3.74772e-08
-3.59467e-10
3.75143e-08
-3.85398e-10
3.75427e-08
-4.03157e-10
3.75613e-08
-4.12378e-10
3.75707e-08
-4.13063e-10
-4.05749e-10
3.75731e-08
4.88437e-08
1.34767e-09
4.87609e-08
7.13743e-10
4.87303e-08
3.2451e-10
4.87333e-08
7.67718e-11
4.87583e-08
-8.54076e-11
4.87965e-08
-1.95408e-10
4.88416e-08
-2.73421e-10
4.88889e-08
-3.29995e-10
4.89346e-08
-3.71191e-10
4.89755e-08
-4.00386e-10
4.90095e-08
-4.1933e-10
4.90354e-08
-4.29082e-10
4.90535e-08
-4.3053e-10
4.90653e-08
-4.24807e-10
-4.13208e-10
4.90727e-08
6.26138e-08
1.39029e-09
6.26125e-08
7.15031e-10
6.26401e-08
2.96854e-10
6.26862e-08
3.06785e-11
6.27432e-08
-1.42351e-10
6.2805e-08
-2.57258e-10
6.2867e-08
-3.35394e-10
6.29257e-08
-3.88718e-10
6.29787e-08
-4.24154e-10
6.30242e-08
-4.45955e-10
6.30618e-08
-4.56869e-10
6.30916e-08
-4.58928e-10
6.31149e-08
-4.53818e-10
6.31333e-08
-4.43186e-10
-4.28545e-10
6.31486e-08
7.9207e-08
1.29093e-09
7.93093e-08
6.12721e-10
7.94143e-08
1.91874e-10
7.95195e-08
-7.45417e-11
7.96218e-08
-2.4457e-10
7.97182e-08
-3.53684e-10
7.98065e-08
-4.23721e-10
7.98853e-08
-4.67471e-10
7.99538e-08
-4.92668e-10
8.00122e-08
-5.04337e-10
8.00612e-08
-5.05928e-10
8.01023e-08
-5.00022e-10
8.01371e-08
-4.8863e-10
8.01674e-08
-4.73493e-10
-4.56037e-10
8.01949e-08
9.9245e-08
1.0833e-09
9.94333e-08
4.2443e-10
9.9606e-08
1.91054e-11
9.97659e-08
-2.34453e-10
9.99113e-08
-3.89964e-10
1.00042e-07
-4.84544e-10
1.00158e-07
-5.39746e-10
1.0026e-07
-5.68954e-10
1.00348e-07
-5.80568e-10
1.00423e-07
-5.80131e-10
1.00489e-07
-5.71423e-10
1.00546e-07
-5.57176e-10
1.00597e-07
-5.39396e-10
1.00643e-07
-5.19662e-10
-4.99168e-10
1.00686e-07
1.23527e-07
8.34538e-10
1.2375e-07
2.01627e-10
1.23954e-07
-1.85103e-10
1.24138e-07
-4.18924e-10
1.24305e-07
-5.56233e-10
1.24453e-07
-6.3294e-10
1.24584e-07
-6.71032e-10
1.247e-07
-6.84402e-10
1.24801e-07
-6.81944e-10
1.2489e-07
-6.69486e-10
1.2497e-07
-6.50885e-10
1.25041e-07
-6.28796e-10
1.25107e-07
-6.05053e-10
1.25168e-07
-5.80984e-10
-5.57502e-10
1.25227e-07
1.52825e-07
5.94958e-10
1.53038e-07
-1.15129e-11
1.53232e-07
-3.78871e-10
1.53407e-07
-5.93557e-10
1.53564e-07
-7.13746e-10
1.53706e-07
-7.74349e-10
1.53832e-07
-7.97544e-10
1.53945e-07
-7.97553e-10
1.54047e-07
-7.83584e-10
1.54139e-07
-7.61538e-10
1.54223e-07
-7.35218e-10
1.54302e-07
-7.07125e-10
1.54376e-07
-6.78886e-10
1.54446e-07
-6.51581e-10
-6.25873e-10
1.54515e-07
1.87631e-07
3.75884e-10
1.8782e-07
-2.00762e-10
1.87985e-07
-5.43295e-10
1.88131e-07
-7.39715e-10
1.88262e-07
-8.45014e-10
1.88381e-07
-8.9296e-10
1.88488e-07
-9.05221e-10
1.88587e-07
-8.96034e-10
1.88678e-07
-8.74515e-10
1.88763e-07
-8.46454e-10
1.88843e-07
-8.1551e-10
1.8892e-07
-7.84005e-10
1.88994e-07
-7.53374e-10
1.89067e-07
-7.24496e-10
-6.97826e-10
1.89139e-07
2.28003e-07
1.64216e-10
2.28171e-07
-3.68362e-10
2.28308e-07
-6.80397e-10
2.28425e-07
-8.57142e-10
2.28529e-07
-9.48512e-10
2.28622e-07
-9.86354e-10
2.28708e-07
-9.91274e-10
2.28789e-07
-9.76753e-10
2.28866e-07
-9.51424e-10
2.2894e-07
-9.20738e-10
2.29013e-07
-8.88112e-10
2.29084e-07
-8.55671e-10
2.29156e-07
-8.24668e-10
2.29227e-07
-7.95824e-10
-7.6946e-10
2.29299e-07
2.73439e-07
-5.02514e-11
2.73591e-07
-5.19966e-10
2.73707e-07
-7.96608e-10
2.73802e-07
-9.51833e-10
2.73883e-07
-1.02988e-09
2.73957e-07
-1.05979e-09
2.74026e-07
-1.06014e-09
2.74092e-07
-1.04337e-09
2.74158e-07
-1.01722e-09
2.74224e-07
-9.86621e-10
2.7429e-07
-9.54657e-10
2.74358e-07
-9.23219e-10
2.74427e-07
-8.93387e-10
2.74497e-07
-8.65752e-10
-8.40526e-10
2.74568e-07
3.22555e-07
-2.64487e-10
3.22697e-07
-6.61758e-10
3.22798e-07
-8.97789e-10
3.22875e-07
-1.02901e-09
3.22939e-07
-1.09362e-09
3.22996e-07
-1.11627e-09
3.23049e-07
-1.11357e-09
3.23102e-07
-1.09615e-09
3.23155e-07
-1.07083e-09
3.23211e-07
-1.04187e-09
3.23268e-07
-1.01191e-09
3.23327e-07
-9.82539e-10
3.23389e-07
-9.5468e-10
3.23452e-07
-9.28794e-10
-9.04972e-10
3.23516e-07
3.72453e-07
-4.5407e-10
3.72554e-07
-7.63078e-10
3.72605e-07
-9.49254e-10
3.7263e-07
-1.05327e-09
3.7264e-07
-1.10451e-09
3.72647e-07
-1.12232e-09
3.72653e-07
-1.1204e-09
3.72663e-07
-1.10626e-09
3.72678e-07
-1.08532e-09
3.72697e-07
-1.06121e-09
3.72721e-07
-1.03607e-09
3.7275e-07
-1.01123e-09
3.72783e-07
-9.87369e-10
3.72819e-07
-9.64838e-10
-9.43829e-10
3.72858e-07
3.70455e-07
-6.01942e-10
3.70526e-07
-8.34417e-10
3.70553e-07
-9.75973e-10
3.70556e-07
-1.05582e-09
3.70548e-07
-1.09639e-09
3.70536e-07
-1.1108e-09
3.70525e-07
-1.10905e-09
3.70516e-07
-1.09781e-09
3.70512e-07
-1.08099e-09
3.70512e-07
-1.06135e-09
3.70517e-07
-1.04052e-09
3.70525e-07
-1.01946e-09
3.70536e-07
-9.98735e-10
3.7055e-07
-9.78635e-10
-9.59252e-10
3.70565e-07
3.17521e-07
-6.57115e-10
3.17524e-07
-8.37447e-10
3.17498e-07
-9.50166e-10
3.17458e-07
-1.01594e-09
3.17412e-07
-1.05064e-09
3.17366e-07
-1.06488e-09
3.17323e-07
-1.06588e-09
3.17284e-07
-1.05869e-09
3.1725e-07
-1.04651e-09
3.1722e-07
-1.03141e-09
3.17194e-07
-1.01467e-09
3.17171e-07
-9.97089e-10
3.17152e-07
-9.79096e-10
3.17134e-07
-9.60922e-10
-9.42672e-10
3.17117e-07
2.66397e-07
-6.78535e-10
2.66375e-07
-8.15489e-10
2.66328e-07
-9.03279e-10
2.66268e-07
-9.56337e-10
2.66203e-07
-9.85713e-10
2.66138e-07
-9.99078e-10
2.66074e-07
-1.00189e-09
2.66013e-07
-9.97723e-10
2.65955e-07
-9.89031e-10
2.65901e-07
-9.77373e-10
2.6585e-07
-9.63724e-10
2.65802e-07
-9.48699e-10
2.65755e-07
-9.32644e-10
2.6571e-07
-9.15742e-10
-8.98076e-10
2.65666e-07
2.19845e-07
-6.63153e-10
2.19796e-07
-7.66581e-10
2.19728e-07
-8.34584e-10
2.19648e-07
-8.77039e-10
2.19564e-07
-9.01732e-10
2.19479e-07
-9.14094e-10
2.19395e-07
-9.17974e-10
2.19314e-07
-9.15982e-10
2.19235e-07
-9.09884e-10
2.19158e-07
-9.00831e-10
2.19084e-07
-8.89565e-10
2.19012e-07
-8.76547e-10
2.18941e-07
-8.62028e-10
2.18872e-07
-8.46152e-10
-8.28974e-10
2.18802e-07
1.78954e-07
-6.12837e-10
1.78878e-07
-6.9112e-10
1.78788e-07
-7.44029e-10
1.78689e-07
-7.78399e-10
1.78587e-07
-7.99591e-10
1.78484e-07
-8.11311e-10
1.78382e-07
-8.16194e-10
1.78283e-07
-8.16076e-10
1.78185e-07
-8.12211e-10
1.78089e-07
-8.05446e-10
1.77996e-07
-7.9632e-10
1.77905e-07
-7.85174e-10
1.77815e-07
-7.72201e-10
1.77726e-07
-7.57519e-10
-7.41176e-10
1.77639e-07
1.43908e-07
-5.35756e-10
1.43813e-07
-5.95982e-10
1.43707e-07
-6.38081e-10
1.43595e-07
-6.66801e-10
1.43482e-07
-6.85754e-10
1.43368e-07
-6.97391e-10
1.43255e-07
-7.03462e-10
1.43144e-07
-7.05227e-10
1.43036e-07
-7.03573e-10
1.42929e-07
-6.99103e-10
1.42825e-07
-6.92212e-10
1.42723e-07
-6.83161e-10
1.42623e-07
-6.72107e-10
1.42525e-07
-6.59156e-10
-6.44358e-10
1.42428e-07
1.14444e-07
-4.45528e-10
1.14341e-07
-4.93103e-10
1.1423e-07
-5.27718e-10
1.14116e-07
-5.52691e-10
1.14001e-07
-5.70354e-10
1.13886e-07
-5.82278e-10
1.13772e-07
-5.8962e-10
1.1366e-07
-5.93245e-10
1.1355e-07
-5.93774e-10
1.13443e-07
-5.91635e-10
1.13338e-07
-5.87117e-10
1.13235e-07
-5.8042e-10
1.13134e-07
-5.71671e-10
1.13036e-07
-5.6097e-10
-5.48368e-10
1.1294e-07
9.0072e-08
-3.55632e-10
8.9973e-08
-3.94127e-10
8.98686e-08
-4.23345e-10
8.97616e-08
-4.45622e-10
8.96536e-08
-4.6237e-10
8.95459e-08
-4.74574e-10
8.94392e-08
-4.82997e-10
8.93342e-08
-4.88229e-10
8.92312e-08
-4.90697e-10
8.91302e-08
-4.907e-10
8.90316e-08
-4.88449e-10
8.89352e-08
-4.84102e-10
8.88413e-08
-4.77762e-10
8.87499e-08
-4.69517e-10
-4.59417e-10
8.86609e-08
7.01904e-08
-2.74918e-10
7.01027e-08
-3.06391e-10
7.00107e-08
-3.31293e-10
6.99163e-08
-3.51223e-10
6.98208e-08
-3.66945e-10
6.97253e-08
-3.79064e-10
6.96304e-08
-3.88087e-10
6.95366e-08
-3.94406e-10
6.94442e-08
-3.98309e-10
6.93535e-08
-4.00003e-10
6.92647e-08
-3.99643e-10
6.91779e-08
-3.97351e-10
6.90934e-08
-3.9321e-10
6.90112e-08
-3.87296e-10
-3.79646e-10
6.89314e-08
5.41556e-08
-2.07026e-10
5.40818e-08
-2.32616e-10
5.40042e-08
-2.53678e-10
5.39242e-08
-2.71197e-10
5.38428e-08
-2.85515e-10
5.37607e-08
-2.97008e-10
5.36786e-08
-3.0601e-10
5.3597e-08
-3.1277e-10
5.35162e-08
-3.17476e-10
5.34364e-08
-3.20272e-10
5.33581e-08
-3.2127e-10
5.32813e-08
-3.20562e-10
5.32063e-08
-3.18211e-10
5.31333e-08
-3.14275e-10
-3.08778e-10
5.30624e-08
4.13419e-08
-1.52108e-10
4.12818e-08
-1.72532e-10
4.12181e-08
-1.89964e-10
4.11518e-08
-2.04881e-10
4.10837e-08
-2.17392e-10
4.10144e-08
-2.27738e-10
4.09445e-08
-2.36127e-10
4.08745e-08
-2.42712e-10
4.08046e-08
-2.47611e-10
4.07353e-08
-2.50922e-10
4.06667e-08
-2.52725e-10
4.05992e-08
-2.53084e-10
4.05331e-08
-2.52043e-10
4.04684e-08
-2.49641e-10
-2.45892e-10
4.04055e-08
3.11806e-08
-1.08742e-10
3.11327e-08
-1.24591e-10
3.10813e-08
-1.38563e-10
3.10271e-08
-1.50753e-10
3.09709e-08
-1.61177e-10
3.09132e-08
-1.69993e-10
3.08544e-08
-1.77321e-10
3.07949e-08
-1.83249e-10
3.07351e-08
-1.8785e-10
3.06754e-08
-1.91186e-10
3.0616e-08
-1.93312e-10
3.05572e-08
-1.94268e-10
3.04992e-08
-1.94085e-10
3.04424e-08
-1.92783e-10
-1.90367e-10
3.03868e-08
2.31778e-08
-7.51474e-11
2.31402e-08
-8.70144e-11
2.30994e-08
-9.77562e-11
2.30559e-08
-1.07244e-10
2.30102e-08
-1.15482e-10
2.29628e-08
-1.2257e-10
2.2914e-08
-1.28574e-10
2.28643e-08
-1.3354e-10
2.2814e-08
-1.37509e-10
2.27633e-08
-1.40518e-10
2.27126e-08
-1.42602e-10
2.26621e-08
-1.43784e-10
2.26121e-08
-1.44083e-10
2.25628e-08
-1.43506e-10
-1.42053e-10
2.25145e-08
1.69171e-08
-4.96822e-11
1.68882e-08
-5.81802e-11
1.68565e-08
-6.60144e-11
1.68222e-08
-7.29841e-11
1.67859e-08
-7.91113e-11
1.67478e-08
-8.44585e-11
1.67082e-08
-8.90558e-11
1.66676e-08
-9.29241e-11
1.66262e-08
-9.60845e-11
1.65842e-08
-9.85564e-11
1.6542e-08
-1.00359e-10
1.64997e-08
-1.01506e-10
1.64576e-08
-1.02006e-10
1.6416e-08
-1.01859e-10
-1.0106e-10
1.6375e-08
1.20536e-08
-3.09379e-11
1.20321e-08
-3.66809e-11
1.20081e-08
-4.20171e-11
1.19819e-08
-4.67827e-11
1.19538e-08
-5.10182e-11
1.19241e-08
-5.47587e-11
1.18931e-08
-5.80151e-11
1.18609e-08
-6.0794e-11
1.1828e-08
-6.31039e-11
1.17944e-08
-6.49529e-11
1.17603e-08
-6.63511e-11
1.17261e-08
-6.73039e-11
1.1692e-08
-6.78155e-11
1.1658e-08
-6.78814e-11
-6.74943e-11
1.16244e-08
8.30493e-09
-1.76959e-11
8.28953e-09
-2.12777e-11
8.2721e-09
-2.45868e-11
8.25287e-09
-2.75485e-11
8.23205e-09
-3.02072e-11
8.20988e-09
-3.25801e-11
8.18653e-09
-3.46686e-11
8.16221e-09
-3.64723e-11
8.1371e-09
-3.79929e-11
8.11138e-09
-3.92325e-11
8.08522e-09
-4.01953e-11
8.0588e-09
-4.08826e-11
8.03228e-09
-4.12963e-11
8.00583e-09
-4.14304e-11
-4.12756e-11
7.97961e-09
5.4414e-09
-8.87935e-12
5.43098e-09
-1.08561e-11
5.41903e-09
-1.26372e-11
5.40571e-09
-1.42345e-11
5.39119e-09
-1.56825e-11
5.3756e-09
-1.69878e-11
5.35908e-09
-1.81483e-11
5.34176e-09
-1.91612e-11
5.3238e-09
-2.00253e-11
5.3053e-09
-2.07403e-11
5.28642e-09
-2.13072e-11
5.26726e-09
-2.17257e-11
5.24796e-09
-2.19965e-11
5.22864e-09
-2.21146e-11
-2.20695e-11
5.20944e-09
3.27718e-09
-3.52936e-12
3.27074e-09
-4.41089e-12
3.26326e-09
-5.15667e-12
3.25485e-09
-5.82857e-12
3.24561e-09
-6.4451e-12
3.23563e-09
-7.0068e-12
3.225e-09
-7.51117e-12
3.21379e-09
-7.95568e-12
3.2021e-09
-8.33884e-12
3.19002e-09
-8.65953e-12
3.17763e-09
-8.91784e-12
3.16502e-09
-9.113e-12
3.15227e-09
-9.24543e-12
3.13947e-09
-9.31172e-12
-9.30296e-12
3.1267e-09
1.66261e-09
-8.08365e-13
1.65925e-09
-1.05059e-12
1.65532e-09
-1.21956e-12
1.65086e-09
-1.3754e-12
1.64594e-09
-1.52199e-12
1.64059e-09
-1.65782e-12
1.63486e-09
-1.78128e-12
1.6288e-09
-1.89104e-12
1.62244e-09
-1.9863e-12
1.61585e-09
-2.06648e-12
1.60906e-09
-2.13153e-12
1.60213e-09
-2.1811e-12
1.5951e-09
-2.2153e-12
1.58802e-09
-2.23284e-12
-2.22839e-12
1.58095e-09
4.77602e-10
4.76551e-10
4.75332e-10
4.73956e-10
4.72434e-10
4.70776e-10
4.68995e-10
4.67104e-10
4.65118e-10
4.63051e-10
4.6092e-10
4.58739e-10
4.56523e-10
4.54291e-10
4.52062e-10
1.21113e-09
-4.73546e-10
2.73091e-10
1.4998e-09
-3.83303e-10
9.46356e-11
1.79243e-09
-2.25596e-10
-6.70287e-11
2.08237e-09
-6.54235e-11
-2.24517e-10
2.3674e-09
9.09749e-11
-3.76014e-10
2.64809e-09
2.3437e-10
-5.15052e-10
2.92555e-09
3.61286e-10
-6.3875e-10
3.20064e-09
4.68363e-10
-7.43451e-10
3.47401e-09
5.51756e-10
-8.25121e-10
3.74613e-09
6.07243e-10
-8.79371e-10
4.01737e-09
6.30177e-10
-9.01415e-10
4.28795e-09
6.15478e-10
-8.86053e-10
4.55797e-09
5.578e-10
-8.27818e-10
4.82745e-09
4.52178e-10
-7.21661e-10
5.09641e-09
2.95407e-10
-5.6437e-10
5.36514e-09
8.89578e-11
-3.57684e-10
5.63456e-09
-1.57369e-10
-1.12056e-10
5.90709e-09
-4.19101e-10
1.4657e-10
6.18729e-09
-6.54808e-10
3.74613e-10
6.48256e-09
-7.9984e-10
5.04572e-10
6.80235e-09
-7.9059e-10
4.70796e-10
7.154e-09
-5.81198e-10
2.29544e-10
7.4823e-09
-2.27024e-10
-1.01272e-10
7.75928e-09
-3.45687e-11
-2.42408e-10
7.98046e-09
-3.75994e-11
-1.83582e-10
8.1455e-09
-1.81992e-10
1.69524e-11
8.25661e-09
-4.16363e-10
3.05254e-10
8.3166e-09
-7.02133e-10
6.42137e-10
8.32762e-09
-1.00863e-09
9.97617e-10
8.29079e-09
-1.30773e-09
1.34456e-09
8.20747e-09
-1.57608e-09
1.6594e-09
8.07947e-09
-1.7884e-09
1.9164e-09
7.90852e-09
-1.91607e-09
2.08702e-09
7.69715e-09
-1.94153e-09
2.1529e-09
7.44843e-09
-1.85249e-09
2.10121e-09
7.16552e-09
-1.64258e-09
1.92549e-09
6.85139e-09
-1.31021e-09
1.62434e-09
6.50882e-09
-8.55638e-10
1.19821e-09
6.1408e-09
-2.77212e-10
6.45233e-10
5.7489e-09
4.31192e-10
-3.92907e-11
5.33264e-09
1.27517e-09
-8.58907e-10
4.87855e-09
2.22963e-09
-1.77554e-09
4.36062e-09
3.17134e-09
-2.65342e-09
3.78222e-09
3.79706e-09
-3.21866e-09
3.34556e-09
3.43375e-09
-2.9971e-09
2.53308e-09
-5.53812e-10
2.70753e-09
-5.5775e-10
2.94496e-09
-4.6303e-10
3.21118e-09
-3.31642e-10
3.49165e-09
-1.89494e-10
3.77871e-09
-5.26867e-11
4.06902e-09
7.09667e-11
4.36102e-09
1.76366e-10
4.65395e-09
2.58832e-10
4.94742e-09
3.13763e-10
5.24123e-09
3.36369e-10
5.53518e-09
3.21535e-10
5.82901e-09
2.63962e-10
6.12245e-09
1.58738e-10
6.4152e-09
2.66373e-12
6.70721e-09
-2.0305e-10
6.99907e-09
-4.49235e-10
7.29293e-09
-7.12954e-10
7.59316e-09
-9.55042e-10
7.90728e-09
-1.11396e-09
8.24523e-09
-1.12854e-09
8.61531e-09
-9.51276e-10
8.96099e-09
-5.72705e-10
9.25384e-09
-3.27417e-10
9.48919e-09
-2.72956e-10
9.66628e-09
-3.5908e-10
9.78691e-09
-5.36993e-10
9.85364e-09
-7.68858e-10
9.86845e-09
-1.02344e-09
9.83241e-09
-1.2717e-09
9.74714e-09
-1.4908e-09
9.61501e-09
-1.65626e-09
9.43828e-09
-1.73935e-09
9.22042e-09
-1.72367e-09
8.96576e-09
-1.59783e-09
8.67926e-09
-1.35608e-09
8.36642e-09
-9.97374e-10
8.03379e-09
-5.23001e-10
7.69031e-09
6.62652e-11
7.34887e-09
7.72628e-10
7.02899e-09
1.59506e-09
6.75442e-09
2.50419e-09
6.55534e-09
3.37042e-09
6.46387e-09
3.88854e-09
3.44706e-09
6.36237e-09
4.4273e-09
-5.71129e-10
4.50758e-09
-6.38032e-10
4.66305e-09
-6.18502e-10
4.87488e-09
-5.43473e-10
5.12271e-09
-4.37324e-10
5.39335e-09
-3.23326e-10
5.67859e-09
-2.14277e-10
5.97342e-09
-1.18455e-10
6.27473e-09
-4.24854e-11
6.58061e-09
7.88761e-12
6.88971e-09
2.72721e-11
7.201e-09
1.02393e-11
7.5136e-09
-4.86368e-11
7.82664e-09
-1.54304e-10
8.13931e-09
-3.1e-10
8.45103e-09
-5.14771e-10
8.76187e-09
-7.60078e-10
9.07347e-09
-1.02455e-09
9.38984e-09
-1.27141e-09
9.71833e-09
-1.44244e-09
1.00692e-08
-1.47941e-09
1.04516e-08
-1.3337e-09
1.0809e-08
-9.30058e-10
1.1113e-08
-6.31407e-10
1.13588e-08
-5.1882e-10
1.15453e-08
-5.45529e-10
1.16736e-08
-6.65282e-10
1.17458e-08
-8.41145e-10
1.17639e-08
-1.04146e-09
1.17286e-08
-1.23642e-09
1.16419e-08
-1.40412e-09
1.15069e-08
-1.52126e-09
1.13265e-08
-1.55896e-09
1.11053e-08
-1.50248e-09
1.08493e-08
-1.34178e-09
1.05655e-08
-1.07229e-09
1.02625e-08
-6.94406e-10
9.95129e-09
-2.11797e-10
9.64719e-09
3.70369e-10
9.37385e-09
1.04597e-09
9.16665e-09
1.80225e-09
9.07138e-09
2.59946e-09
9.12459e-09
3.31721e-09
9.29378e-09
3.71936e-09
3.38416e-09
9.35668e-09
7.02261e-09
-5.53986e-10
7.0401e-09
-6.55525e-10
7.11467e-09
-6.93068e-10
7.25278e-09
-6.81586e-10
7.44326e-09
-6.27801e-10
7.67235e-09
-5.5242e-10
7.92968e-09
-4.716e-10
8.20747e-09
-3.96253e-10
8.50023e-09
-3.35244e-10
8.80406e-09
-2.95935e-10
9.11606e-09
-2.84733e-10
9.434e-09
-3.07699e-10
9.75598e-09
-3.70613e-10
1.00803e-08
-4.78601e-10
1.04053e-08
-6.35012e-10
1.07297e-08
-8.39166e-10
1.10528e-08
-1.08315e-09
1.13754e-08
-1.3472e-09
1.1701e-08
-1.59698e-09
1.20364e-08
-1.77783e-09
1.23918e-08
-1.83489e-09
1.27773e-08
-1.71918e-09
1.31376e-08
-1.29038e-09
1.34454e-08
-9.39184e-10
1.36958e-08
-7.69254e-10
1.38871e-08
-7.36734e-10
1.40196e-08
-7.97796e-10
1.4095e-08
-9.16591e-10
1.41147e-08
-1.06113e-09
1.40795e-08
-1.20124e-09
1.39916e-08
-1.31626e-09
1.3855e-08
-1.38462e-09
1.36733e-08
-1.37723e-09
1.34524e-08
-1.28162e-09
1.32002e-08
-1.08953e-09
1.29261e-08
-7.98232e-10
1.26421e-08
-4.10349e-10
1.23632e-08
6.70645e-11
1.21103e-08
6.23299e-10
1.19132e-08
1.24301e-09
1.18134e-08
1.90208e-09
1.18576e-08
2.55526e-09
1.20687e-08
3.10614e-09
1.23943e-08
3.39377e-09
3.19614e-09
1.25823e-08
1.04896e-08
-5.23597e-10
1.04701e-08
-6.36029e-10
1.04855e-08
-7.08451e-10
1.05486e-08
-7.44746e-10
1.06676e-08
-7.46752e-10
1.08348e-08
-7.19695e-10
1.10414e-08
-6.78118e-10
1.12793e-08
-6.34226e-10
1.15421e-08
-5.98002e-10
1.18242e-08
-5.78085e-10
1.21214e-08
-5.81883e-10
1.24299e-08
-6.16228e-10
1.27467e-08
-6.87403e-10
1.3069e-08
-8.00838e-10
1.3394e-08
-9.60071e-10
1.37195e-08
-1.1647e-09
1.40438e-08
-1.40743e-09
1.43667e-08
-1.6701e-09
1.46906e-08
-1.92088e-09
1.50216e-08
-2.1088e-09
1.53696e-08
-2.18285e-09
1.57448e-08
-2.09441e-09
1.60956e-08
-1.64123e-09
1.63965e-08
-1.24004e-09
1.66426e-08
-1.01534e-09
1.68314e-08
-9.25499e-10
1.69625e-08
-9.28911e-10
1.70369e-08
-9.90994e-10
1.70552e-08
-1.07942e-09
1.70184e-08
-1.16451e-09
1.69292e-08
-1.22703e-09
1.67918e-08
-1.24721e-09
1.6611e-08
-1.19641e-09
1.63942e-08
-1.06488e-09
1.61512e-08
-8.46526e-10
1.58939e-08
-5.40951e-10
1.56371e-08
-1.53571e-10
1.53993e-08
3.04956e-10
1.5204e-08
8.18518e-10
1.50821e-08
1.36492e-09
1.50708e-08
1.91338e-09
1.52059e-08
2.42021e-09
1.54947e-08
2.81735e-09
1.58759e-08
3.01251e-09
2.90937e-09
1.61627e-08
1.5027e-08
-4.93523e-10
1.4991e-08
-6.00064e-10
1.49725e-08
-6.89905e-10
1.49823e-08
-7.5459e-10
1.50324e-08
-7.96846e-10
1.51295e-08
-8.16786e-10
1.52702e-08
-8.18844e-10
1.54489e-08
-8.12915e-10
1.56603e-08
-8.09356e-10
1.58989e-08
-8.16748e-10
1.61598e-08
-8.42806e-10
1.64384e-08
-8.94832e-10
1.67306e-08
-9.79512e-10
1.70323e-08
-1.10255e-09
1.73399e-08
-1.26767e-09
1.76498e-08
-1.47468e-09
1.79592e-08
-1.71683e-09
1.82667e-08
-1.97756e-09
1.85733e-08
-2.2275e-09
1.88839e-08
-2.41939e-09
1.92076e-08
-2.50654e-09
1.95546e-08
-2.44145e-09
1.98793e-08
-1.96585e-09
2.01586e-08
-1.51933e-09
2.03878e-08
-1.24459e-09
2.05637e-08
-1.10143e-09
2.0685e-08
-1.05019e-09
2.07517e-08
-1.05765e-09
2.07635e-08
-1.09123e-09
2.07219e-08
-1.12293e-09
2.06305e-08
-1.13558e-09
2.04921e-08
-1.10888e-09
2.03138e-08
-1.01811e-09
2.01046e-08
-8.55604e-10
1.98757e-08
-6.17681e-10
1.96413e-08
-3.06545e-10
1.94182e-08
6.95031e-11
1.92264e-08
4.96766e-10
1.90895e-08
9.55405e-10
1.90342e-08
1.42024e-09
1.90876e-08
1.85998e-09
1.92697e-08
2.23808e-09
1.95754e-08
2.51171e-09
1.99516e-08
2.63627e-09
2.57794e-09
2.0283e-08
2.08662e-08
-4.7068e-10
2.08313e-08
-5.652e-10
2.07977e-08
-6.56295e-10
2.07793e-08
-7.36203e-10
2.07837e-08
-8.01214e-10
2.08206e-08
-8.53734e-10
2.08947e-08
-8.92919e-10
2.10064e-08
-9.2458e-10
2.11527e-08
-9.55666e-10
2.13303e-08
-9.94393e-10
2.15351e-08
-1.04761e-09
2.17627e-08
-1.12237e-09
2.20084e-08
-1.22527e-09
2.22679e-08
-1.36203e-09
2.25366e-08
-1.53631e-09
2.28098e-08
-1.74795e-09
2.30835e-08
-1.99053e-09
2.3355e-08
-2.24902e-09
2.36239e-08
-2.49636e-09
2.38934e-08
-2.68892e-09
2.41714e-08
-2.78456e-09
2.44675e-08
-2.73758e-09
2.47447e-08
-2.24306e-09
2.49837e-08
-1.75835e-09
2.51798e-08
-1.44067e-09
2.53289e-08
-1.25053e-09
2.54286e-08
-1.14989e-09
2.54774e-08
-1.10644e-09
2.54754e-08
-1.08919e-09
2.54242e-08
-1.07172e-09
2.53276e-08
-1.03897e-09
2.51868e-08
-9.68107e-10
2.50114e-08
-8.42687e-10
2.48117e-08
-6.55934e-10
2.46005e-08
-4.06497e-10
2.43931e-08
-9.91616e-11
2.42071e-08
2.55573e-10
2.4062e-08
6.41827e-10
2.39785e-08
1.03887e-09
2.39765e-08
1.42228e-09
2.40714e-08
1.76505e-09
2.42692e-08
2.04032e-09
2.45571e-08
2.22381e-09
2.48954e-08
2.29799e-09
2.25684e-09
2.52165e-08
2.8277e-08
-4.56741e-10
2.82512e-08
-5.39359e-10
2.82196e-08
-6.2472e-10
2.8191e-08
-7.07563e-10
2.81739e-08
-7.84185e-10
2.81747e-08
-8.54485e-10
2.81997e-08
-9.17966e-10
2.82524e-08
-9.77201e-10
2.83351e-08
-1.03844e-09
2.84467e-08
-1.10592e-09
2.85849e-08
-1.18587e-09
2.87468e-08
-1.28424e-09
2.89285e-08
-1.40702e-09
2.9126e-08
-1.55945e-09
2.93344e-08
-1.74471e-09
2.95487e-08
-1.96225e-09
2.97638e-08
-2.20564e-09
2.9976e-08
-2.46122e-09
3.01835e-08
-2.70387e-09
3.03879e-08
-2.8933e-09
3.05953e-08
-2.99201e-09
3.08143e-08
-2.95657e-09
3.10196e-08
-2.44834e-09
3.11963e-08
-1.93508e-09
3.13396e-08
-1.58392e-09
3.14446e-08
-1.35556e-09
3.15074e-08
-1.21269e-09
3.15244e-08
-1.12349e-09
3.14987e-08
-1.06348e-09
3.1433e-08
-1.00602e-09
3.13244e-08
-9.30361e-10
3.11775e-08
-8.21193e-10
3.10035e-08
-6.68714e-10
3.08136e-08
-4.66045e-10
3.06212e-08
-2.14101e-10
3.04419e-08
8.02256e-11
3.02923e-08
4.05163e-10
3.01898e-08
7.44307e-10
3.01502e-08
1.07843e-09
3.01859e-08
1.38666e-09
3.03024e-08
1.64849e-09
3.04963e-08
1.84642e-09
3.07518e-08
1.96833e-09
3.10398e-08
2.00995e-09
1.97571e-09
3.1321e-08
3.75672e-08
-4.50845e-10
3.75518e-08
-5.24e-10
3.75295e-08
-6.02338e-10
3.75046e-08
-6.82744e-10
3.74831e-08
-7.62599e-10
3.74695e-08
-8.40901e-10
3.74695e-08
-9.18019e-10
3.74859e-08
-9.93561e-10
3.75209e-08
-1.07345e-09
3.75778e-08
-1.16279e-09
3.76551e-08
-1.26321e-09
3.7751e-08
-1.38015e-09
3.78634e-08
-1.51937e-09
3.79889e-08
-1.68503e-09
3.81236e-08
-1.87938e-09
3.82625e-08
-2.10109e-09
3.84e-08
-2.3432e-09
3.85322e-08
-2.59345e-09
3.86563e-08
-2.82788e-09
3.87722e-08
-3.00924e-09
3.88846e-08
-3.10437e-09
3.90003e-08
-3.07228e-09
3.91088e-08
-2.55689e-09
3.92005e-08
-2.02674e-09
3.92699e-08
-1.65337e-09
3.93116e-08
-1.39718e-09
3.93174e-08
-1.21858e-09
3.92924e-08
-1.09845e-09
3.92344e-08
-1.00547e-09
3.91384e-08
-9.10045e-10
3.90083e-08
-8.0022e-10
3.88512e-08
-6.64123e-10
3.86757e-08
-4.93155e-10
3.84934e-08
-2.83758e-10
3.83179e-08
-3.86409e-11
3.81637e-08
2.34426e-10
3.80457e-08
5.23172e-10
3.79773e-08
8.12714e-10
3.79689e-08
1.08679e-09
3.80262e-08
1.32939e-09
3.81481e-08
1.52655e-09
3.83264e-08
1.66818e-09
3.85452e-08
1.74947e-09
3.87834e-08
1.77177e-09
1.74207e-09
3.90171e-08
4.90746e-08
-4.5268e-10
4.90694e-08
-5.18861e-10
4.90582e-08
-5.91071e-10
4.90431e-08
-6.67641e-10
4.90274e-08
-7.46905e-10
4.90144e-08
-8.27938e-10
4.90072e-08
-9.10844e-10
4.90102e-08
-9.96516e-10
4.90224e-08
-1.08568e-09
4.90452e-08
-1.1856e-09
4.90803e-08
-1.29826e-09
4.91266e-08
-1.42643e-09
4.91813e-08
-1.57405e-09
4.9242e-08
-1.7458e-09
4.93052e-08
-1.94259e-09
4.93664e-08
-2.16224e-09
4.94201e-08
-2.39689e-09
4.94627e-08
-2.63607e-09
4.94906e-08
-2.8558e-09
4.95032e-08
-3.02181e-09
4.95034e-08
-3.10456e-09
4.94966e-08
-3.06551e-09
4.94893e-08
-2.54959e-09
4.94774e-08
-2.01486e-09
4.94552e-08
-1.63112e-09
4.94164e-08
-1.35846e-09
4.93567e-08
-1.15887e-09
4.92717e-08
-1.01343e-09
4.91597e-08
-8.93427e-10
4.90239e-08
-7.74253e-10
4.88662e-08
-6.42565e-10
4.86918e-08
-4.89694e-10
4.85093e-08
-3.10663e-10
4.83301e-08
-1.04513e-10
4.81664e-08
1.24979e-10
4.80312e-08
3.69703e-10
4.79359e-08
6.18409e-10
4.78899e-08
8.5877e-10
4.78984e-08
1.07825e-09
4.79622e-08
1.26565e-09
4.80764e-08
1.41234e-09
4.82312e-08
1.51335e-09
4.84129e-08
1.5678e-09
4.86056e-08
1.57899e-09
1.55349e-09
4.87942e-08
6.31601e-08
-4.64098e-10
6.31664e-08
-5.25245e-10
6.3168e-08
-5.92605e-10
6.31657e-08
-6.65416e-10
6.31616e-08
-7.42762e-10
6.31577e-08
-8.24002e-10
6.3156e-08
-9.09138e-10
6.31582e-08
-9.98736e-10
6.31667e-08
-1.09416e-09
6.31796e-08
-1.19857e-09
6.3196e-08
-1.31466e-09
6.32149e-08
-1.44534e-09
6.32353e-08
-1.59443e-09
6.32533e-08
-1.7638e-09
6.32643e-08
-1.95355e-09
6.32633e-08
-2.16125e-09
6.32463e-08
-2.37996e-09
6.32086e-08
-2.59832e-09
6.31457e-08
-2.79288e-09
6.30574e-08
-2.93348e-09
6.29453e-08
-2.99249e-09
6.28134e-08
-2.93362e-09
6.26854e-08
-2.42155e-09
6.25635e-08
-1.89298e-09
6.24411e-08
-1.50872e-09
6.23129e-08
-1.23023e-09
6.21748e-08
-1.02081e-09
6.2021e-08
-8.59655e-10
6.18507e-08
-7.23143e-10
6.16669e-08
-5.90384e-10
6.14728e-08
-4.48509e-10
6.12741e-08
-2.90986e-10
6.10787e-08
-1.15227e-10
6.08965e-08
7.76651e-11
6.07378e-08
2.83704e-10
6.06127e-08
4.94724e-10
6.05293e-08
7.01822e-10
6.04926e-08
8.95475e-10
6.05041e-08
1.06681e-09
6.05611e-08
1.20862e-09
6.06573e-08
1.31614e-09
6.07832e-08
1.38744e-09
6.09275e-08
1.4235e-09
6.10786e-08
1.42787e-09
1.40594e-09
6.12262e-08
8.02196e-08
-4.88743e-10
8.02407e-08
-5.46334e-10
8.02581e-08
-6.10026e-10
8.02723e-08
-6.79597e-10
8.02842e-08
-7.54666e-10
8.02951e-08
-8.34904e-10
8.03062e-08
-9.20312e-10
8.03188e-08
-1.01127e-09
8.03334e-08
-1.10879e-09
8.03495e-08
-1.21465e-09
8.03657e-08
-1.33087e-09
8.03798e-08
-1.45941e-09
8.03889e-08
-1.60353e-09
8.03883e-08
-1.76322e-09
8.03733e-08
-1.93861e-09
8.03383e-08
-2.12617e-09
8.02778e-08
-2.31954e-09
8.01854e-08
-2.50587e-09
8.00579e-08
-2.66542e-09
7.98935e-08
-2.76903e-09
7.96922e-08
-2.79126e-09
7.94568e-08
-2.69822e-09
7.92253e-08
-2.18998e-09
7.90062e-08
-1.67392e-09
7.87928e-08
-1.29533e-09
7.85804e-08
-1.01784e-09
7.83661e-08
-8.06429e-10
7.81456e-08
-6.39151e-10
7.79181e-08
-4.95735e-10
7.76867e-08
-3.58903e-10
7.74555e-08
-2.17352e-10
7.72308e-08
-6.63014e-11
7.70198e-08
9.58333e-11
7.68301e-08
2.67306e-10
7.66705e-08
4.4329e-10
7.65476e-08
6.17658e-10
7.64659e-08
7.83535e-10
7.64272e-08
9.34209e-10
7.64301e-08
1.06385e-09
7.64705e-08
1.16821e-09
7.65417e-08
1.24496e-09
7.66353e-08
1.29383e-09
7.67424e-08
1.31643e-09
7.68544e-08
1.3159e-09
1.29635e-09
7.69639e-08
1.00727e-07
-5.29729e-10
1.00766e-07
-5.84887e-10
1.00802e-07
-6.45886e-10
1.00835e-07
-7.12807e-10
1.00866e-07
-7.85599e-10
1.00895e-07
-8.64192e-10
1.00923e-07
-9.48634e-10
1.00951e-07
-1.03918e-09
1.00979e-07
-1.13647e-09
1.01006e-07
-1.24131e-09
1.0103e-07
-1.35515e-09
1.01049e-07
-1.47903e-09
1.0106e-07
-1.61456e-09
1.01059e-07
-1.76137e-09
1.01038e-07
-1.91836e-09
1.00993e-07
-2.08079e-09
1.00916e-07
-2.24273e-09
1.00801e-07
-2.39078e-09
1.00643e-07
-2.50745e-09
1.00439e-07
-2.56543e-09
1.00189e-07
-2.54084e-09
9.98927e-08
-2.40188e-09
9.95964e-08
-1.89363e-09
9.93136e-08
-1.39115e-09
9.90381e-08