/*--------------------------------*- C++ -*----------------------------------*\
| =========                 |                                                 |
| \\      /  F ield         | OpenFOAM: The Open Source CFD Toolbox           |
|  \\    /   O peration     | Version:  2312                                  |
|   \\  /    A nd           | Website:  www.openfoam.com                      |
|    \\/     M anipulation  |                                                 |
\*---------------------------------------------------------------------------*/
FoamFile
{
    version     2.0;
    format      ascii;
    arch        "LSB;label=32;scalar=64";
    class       volVectorField;
    location    "62.75";
    object      U;
}
// * * * * * * * * * * * * * * * * * * * * * * * * * * * * * * * * * * * * * //

dimensions      [0 1 -1 0 0 0 0];

internalField   nonuniform List<vector> 
4800
(
(0.000458205 2.91171e-07 -1.9407e-26)
(0.000451324 2.7233e-07 -1.33142e-25)
(0.000447796 2.40605e-07 1.71787e-25)
(0.000446457 1.97704e-07 7.51735e-26)
(0.000446649 1.62135e-07 1.08921e-24)
(0.0004477 1.3903e-07 -2.58985e-24)
(0.000449541 7.9728e-08 2.40405e-24)
(0.000452063 -1.74143e-08 -3.45704e-24)
(0.000455341 -1.59228e-07 1.11216e-24)
(0.000459501 -3.87974e-07 3.75966e-24)
(0.000464947 -8.57106e-07 -1.15872e-24)
(0.000472982 -2.20437e-06 -9.8512e-26)
(0.000490858 -7.26452e-06 -1.41334e-24)
(0.00053578 -2.75846e-05 6.83711e-25)
(0.000607859 -8.71207e-05 -5.50743e-25)
(0.00142049 1.54481e-06 -6.11806e-26)
(0.00140022 9.83174e-07 7.61777e-26)
(0.00138979 5.38198e-07 -6.74041e-25)
(0.00138579 1.45682e-07 5.07243e-25)
(0.00138619 -2.03438e-07 1.55441e-24)
(0.00138896 -5.07384e-07 -2.47638e-24)
(0.0013941 -9.14443e-07 -6.91996e-25)
(0.00140109 -1.46291e-06 -1.53485e-25)
(0.00141014 -2.2333e-06 5.69441e-24)
(0.00142162 -3.44624e-06 -4.20161e-24)
(0.00143669 -5.76009e-06 4.56884e-25)
(0.00145808 -1.13724e-05 6.98694e-25)
(0.00149457 -2.78063e-05 -1.04284e-24)
(0.00155603 -7.78149e-05 -3.41253e-25)
(0.00162013 -0.000187937 1.39625e-24)
(0.00248834 4.86392e-06 -4.36296e-26)
(0.00245441 3.06248e-06 4.46937e-26)
(0.0024369 1.66647e-06 4.40584e-25)
(0.00243006 4.55768e-07 -1.03062e-24)
(0.00243046 -6.05791e-07 9.88869e-25)
(0.00243461 -1.62037e-06 9.1867e-25)
(0.00244273 -2.87537e-06 -2.40734e-24)
(0.00245373 -4.46641e-06 -1.47111e-24)
(0.00246781 -6.67462e-06 3.53226e-24)
(0.00248539 -1.00828e-05 1.32732e-24)
(0.00250778 -1.61532e-05 -4.62303e-24)
(0.00253712 -2.87585e-05 -7.10757e-25)
(0.00257743 -5.71263e-05 1.97875e-24)
(0.00262718 -0.000119705 3.16511e-24)
(0.00266179 -0.000221695 -1.64091e-24)
(0.00366847 1.06949e-05 1.60918e-26)
(0.00362085 6.76686e-06 -1.10593e-25)
(0.00359613 3.73873e-06 4.83123e-25)
(0.00358616 1.12788e-06 4.95155e-25)
(0.00358623 -1.11805e-06 -5.04738e-25)
(0.00359127 -3.25881e-06 -2.80003e-24)
(0.00360177 -5.89114e-06 -1.89643e-24)
(0.00361597 -9.10277e-06 7.17882e-24)
(0.00363383 -1.34488e-05 2.94407e-24)
(0.00365557 -1.98933e-05 -4.24422e-24)
(0.0036819 -3.04651e-05 -1.70801e-24)
(0.00371329 -4.95284e-05 -1.30549e-24)
(0.00374905 -8.47067e-05 3.94236e-26)
(0.00378216 -0.000145291 9.68111e-25)
(0.0037953 -0.000225212 4.71656e-27)
(0.00496524 1.94974e-05 -2.95118e-26)
(0.00490441 1.23835e-05 -1.77103e-25)
(0.00487259 6.92841e-06 -1.04119e-25)
(0.00485925 2.27435e-06 2.99205e-25)
(0.00485848 -1.73021e-06 -8.03751e-25)
(0.00486393 -5.42328e-06 1.99398e-24)
(0.00487599 -9.94301e-06 -3.58832e-25)
(0.00489228 -1.52653e-05 1.22768e-24)
(0.00491237 -2.22013e-05 -6.83368e-24)
(0.00493601 -3.19628e-05 1.29447e-23)
(0.00496297 -4.66206e-05 -1.25197e-23)
(0.00499214 -6.97154e-05 6.60297e-24)
(0.00502037 -0.000105774 -6.11292e-24)
(0.00504039 -0.000157473 5.74151e-24)
(0.00504267 -0.000216942 -2.27798e-24)
(0.00637909 3.17919e-05 3.90164e-26)
(0.0063065 2.02855e-05 1.36607e-25)
(0.00626819 1.15099e-05 -7.1306e-25)
(0.00625151 4.08372e-06 -4.27646e-25)
(0.00624936 -2.24838e-06 1.16861e-24)
(0.00625486 -8.01525e-06 4.07605e-25)
(0.00626764 -1.48627e-05 -3.20299e-24)
(0.00628478 -2.26469e-05 7.62975e-24)
(0.00630548 -3.23525e-05 -9.8864e-24)
(0.0063289 -4.5216e-05 2.377e-24)
(0.00635398 -6.29004e-05 7.17114e-24)
(0.00637872 -8.75337e-05 -9.92799e-24)
(0.00639962 -0.000120821 4.97963e-24)
(0.00641143 -0.000162103 5.00681e-24)
(0.00641005 -0.000205222 -3.80165e-24)
(0.00790435 4.79245e-05 3.22845e-26)
(0.00782318 3.07569e-05 -1.88339e-25)
(0.00777997 1.77163e-05 6.60614e-25)
(0.00776062 6.78319e-06 -9.03973e-25)
(0.00775686 -2.41561e-06 -2.97963e-24)
(0.00776234 -1.09656e-05 5.07909e-24)
(0.00777502 -2.03759e-05 -3.04654e-24)
(0.00779197 -3.07998e-05 1.02853e-23)
(0.00781192 -4.31927e-05 -7.0051e-24)
(0.00783357 -5.85921e-05 -3.25094e-24)
(0.00785533 -7.80414e-05 -6.33338e-24)
(0.00787507 -0.000102362 5.84672e-24)
(0.00789009 -0.00013148 1.63263e-24)
(0.00789732 -0.000163638 1.36201e-24)
(0.0078957 -0.000194841 -1.19696e-24)
(0.00952729 6.77218e-05 -4.63969e-26)
(0.00944321 4.37517e-05 6.21432e-25)
(0.00939825 2.55561e-05 -1.42667e-24)
(0.00937794 1.04522e-05 -1.11453e-24)
(0.00937341 -2.28298e-06 4.54615e-25)
(0.00937882 -1.39708e-05 8.36909e-25)
(0.0093911 -2.61769e-05 2.90357e-24)
(0.00940728 -3.92705e-05 -7.83048e-24)
(0.0094257 -5.40554e-05 -4.09731e-24)
(0.00944479 -7.12602e-05 1.14302e-23)
(0.00946289 -9.13342e-05 -3.4778e-24)
(0.00947818 -0.000114235 1.18797e-23)
(0.00948898 -0.000139137 -6.24467e-24)
(0.00949381 -0.000164346 -1.94297e-24)
(0.00949303 -0.000187511 1.14316e-24)
(0.0112255 9.00181e-05 -6.04648e-27)
(0.0111471 5.85484e-05 3.41884e-25)
(0.0111055 3.45503e-05 -4.84717e-25)
(0.0110874 1.4781e-05 1.12061e-24)
(0.011084 -1.95144e-06 -6.58289e-24)
(0.0110901 -1.70855e-05 6.92479e-24)
(0.0111024 -3.21849e-05 -1.07e-23)
(0.0111179 -4.77993e-05 6.61931e-24)
(0.0111347 -6.45458e-05 4.85733e-24)
(0.0111513 -8.28396e-05 1.03639e-23)
(0.0111663 -0.000102713 -1.3517e-23)
(0.0111783 -0.00012373 -2.41352e-24)
(0.0111865 -0.000144976 1.2047e-24)
(0.0111903 -0.000165225 7.92128e-24)
(0.0111906 -0.000183195 -3.18981e-24)
(0.0129713 0.000112179 3.15983e-26)
(0.0129093 7.33462e-05 -1.40813e-25)
(0.0128778 4.33998e-05 6.25917e-25)
(0.0128661 1.87851e-05 -2.15795e-24)
(0.0128668 -2.10466e-06 3.23276e-24)
(0.0128755 -2.07735e-05 -4.10612e-24)
(0.0128889 -3.86988e-05 6.79918e-24)
(0.0129045 -5.65481e-05 1.12969e-24)
(0.0129205 -7.47786e-05 -9.2186e-24)
(0.0129355 -9.3578e-05 1.29384e-23)
(0.0129485 -0.000112783 -1.42043e-23)
(0.0129587 -0.000131907 -4.03375e-24)
(0.0129659 -0.00015024 7.23899e-24)
(0.0129696 -0.000167045 2.09266e-24)
(0.0129712 -0.000181686 -9.0535e-25)
(0.0147424 0.000130169 1.07955e-25)
(0.0147057 8.51406e-05 -1.05677e-24)
(0.0146906 4.98059e-05 -1.71247e-24)
(0.0146897 2.06285e-05 4.06893e-24)
(0.0146978 -4.19647e-06 1.75665e-24)
(0.0147112 -2.61667e-05 -1.10234e-23)
(0.0147274 -4.6636e-05 3.45102e-24)
(0.0147444 -6.63129e-05 2.45558e-24)
(0.0147608 -8.55543e-05 -1.01432e-23)
(0.0147756 -0.000104442 1.07004e-23)
(0.0147882 -0.000122796 -8.20391e-24)
(0.0147981 -0.00014026 2.12352e-23)
(0.0148055 -0.000156399 -1.00335e-23)
(0.0148101 -0.000170847 5.82491e-24)
(0.0148133 -0.000183349 -1.56943e-24)
(0.0165369 0.000140096 -1.40469e-26)
(0.0165275 9.0614e-05 6.55778e-25)
(0.0165309 5.10119e-05 -1.3683e-24)
(0.0165427 1.79838e-05 -6.91102e-25)
(0.0165596 -1.01943e-05 7.71488e-24)
(0.016579 -3.49334e-05 -1.18745e-24)
(0.0165991 -5.74535e-05 -1.34549e-23)
(0.0166185 -7.84561e-05 1.55195e-23)
(0.0166365 -9.82647e-05 -3.5353e-24)
(0.0166522 -0.00011696 -1.17773e-23)
(0.0166655 -0.000134452 1.24044e-23)
(0.0166763 -0.000150564 6.43097e-24)
(0.0166849 -0.000165106 -5.64762e-24)
(0.0166912 -0.000177959 -9.3614e-24)
(0.0166964 -0.000189082 7.73061e-25)
(0.0183798 0.000141157 -3.00318e-26)
(0.0183897 8.84399e-05 -6.50281e-25)
(0.0184067 4.55715e-05 3.47868e-24)
(0.0184283 9.47157e-06 2.58251e-25)
(0.018452 -2.13652e-05 2.0239e-24)
(0.0184761 -4.82481e-05 -7.29432e-24)
(0.0184993 -7.22723e-05 6.13169e-24)
(0.0185208 -9.41221e-05 1.308e-24)
(0.0185401 -0.000114147 1.21978e-23)
(0.0185569 -0.000132496 -1.90806e-23)
(0.0185714 -0.000149207 -8.43099e-24)
(0.0185833 -0.000164271 -5.36667e-24)
(0.0185934 -0.00017768 1.02784e-23)
(0.0186013 -0.000189466 -2.73126e-25)
(0.0186083 -0.000199705 9.61972e-25)
(0.0203009 0.000136898 -3.1829e-26)
(0.0203173 8.10989e-05 5.22748e-25)
(0.0203388 3.52584e-05 -7.77514e-25)
(0.0203632 -3.5062e-06 -1.37479e-26)
(0.0203886 -3.65694e-05 1.39108e-24)
(0.0204135 -6.51784e-05 3.56053e-24)
(0.0204369 -9.03535e-05 -1.37651e-23)
(0.0204582 -0.000112784 1.23368e-24)
(0.0204772 -0.000132885 6.95485e-24)
(0.0204939 -0.000150913 -3.0848e-24)
(0.0205083 -0.000167031 8.47645e-24)
(0.0205206 -0.000181367 5.73816e-24)
(0.0205313 -0.000194034 -1.04841e-23)
(0.0205401 -0.000205155 6.96892e-24)
(0.0205482 -0.000214868 -5.77917e-24)
(0.0222928 0.0001319 -7.99668e-25)
(0.0223078 7.29478e-05 9.64182e-25)
(0.0223267 2.40815e-05 6.60229e-25)
(0.022348 -1.72219e-05 -5.25492e-24)
(0.0223702 -5.23103e-05 4.77088e-24)
(0.0223919 -8.24611e-05 -3.82408e-24)
(0.0224122 -0.000108681 2.72389e-24)
(0.0224307 -0.000131682 -1.95595e-23)
(0.0224473 -0.00015196 2.82291e-23)
(0.0224619 -0.000169876 -1.64319e-23)
(0.0224748 -0.000185707 1.46285e-23)
(0.0224859 -0.00019968 1.19082e-23)
(0.0224958 -0.000211987 -2.07768e-23)
(0.0225042 -0.000222807 6.68675e-24)
(0.022512 -0.000232307 -2.76635e-25)
(0.0242894 0.000127512 -2.73846e-26)
(0.0243024 6.61282e-05 1.15817e-24)
(0.0243177 1.46139e-05 -1.29353e-24)
(0.0243345 -2.87629e-05 -1.23215e-25)
(0.024352 -6.55065e-05 1.56479e-24)
(0.024369 -9.69708e-05 -2.87833e-24)
(0.0243849 -0.000124146 2.88951e-24)
(0.0243994 -0.000147759 -9.51083e-24)
(0.0244125 -0.000168367 2.18297e-23)
(0.024424 -0.000186415 -2.80423e-23)
(0.0244343 -0.00020226 2.29416e-23)
(0.0244433 -0.000216197 -7.73617e-24)
(0.0244514 -0.000228472 3.80906e-25)
(0.0244584 -0.000239293 1.69265e-24)
(0.024465 -0.000248844 -3.2901e-24)
(0.0261828 0.00012187 -2.2848e-24)
(0.026196 5.94996e-05 5.73637e-24)
(0.0262096 6.61402e-06 -3.84946e-24)
(0.0262236 -3.78947e-05 5.43438e-25)
(0.0262375 -7.5672e-05 4.91403e-25)
(0.0262506 -0.000108016 -1.0445e-24)
(0.0262628 -0.000135884 -1.91416e-24)
(0.0262738 -0.000160006 -5.18709e-24)
(0.0262837 -0.000180967 2.19759e-24)
(0.0262925 -0.000199256 1.28688e-23)
(0.0263003 -0.000215275 -6.91051e-24)
(0.026307 -0.000229357 4.20899e-24)
(0.0263132 -0.000241775 -1.73581e-24)
(0.0263185 -0.000252756 -5.13109e-24)
(0.0263236 -0.00026249 2.62246e-24)
(0.0278438 0.000113123 7.70401e-25)
(0.0278585 5.13505e-05 -1.52616e-24)
(0.0278719 -1.38982e-06 -3.31665e-24)
(0.0278845 -4.60578e-05 7.93151e-24)
(0.0278963 -8.41007e-05 -1.66223e-24)
(0.027907 -0.000116752 -3.41093e-24)
(0.0279167 -0.000144935 1.15629e-24)
(0.0279254 -0.000169348 -7.12952e-25)
(0.0279331 -0.000190572 3.58105e-25)
(0.02794 -0.000209101 -1.27654e-24)
(0.027946 -0.00022535 2.83649e-24)
(0.0279513 -0.000239657 1.7579e-24)
(0.0279561 -0.000252299 -6.43101e-24)
(0.0279602 -0.000263508 4.57408e-24)
(0.0279641 -0.000273466 -9.57012e-25)
(0.0291173 0.000100979 2.35526e-24)
(0.029133 4.16689e-05 5.46715e-24)
(0.0291465 -9.67317e-06 -1.15266e-23)
(0.0291588 -5.35835e-05 -5.10175e-24)
(0.0291699 -9.12046e-05 9.50011e-24)
(0.0291795 -0.000123681 5.00594e-24)
(0.029188 -0.000151843 8.71356e-25)
(0.0291954 -0.000176338 -8.82975e-24)
(0.029202 -0.000197723 -2.9035e-24)
(0.0292076 -0.000216476 6.01731e-24)
(0.0292125 -0.000232991 -2.26513e-24)
(0.0292166 -0.000247589 8.17039e-26)
(0.0292202 -0.000260531 -3.63363e-26)
(0.0292232 -0.000272034 8.62368e-26)
(0.0292259 -0.000282273 -5.12278e-26)
(0.0297999 8.29019e-05 -6.39889e-24)
(0.0298169 2.80012e-05 -1.66573e-23)
(0.0298305 -1.985e-05 4.96951e-24)
(0.0298414 -6.12245e-05 3.67544e-23)
(0.0298498 -9.71374e-05 -1.12485e-23)
(0.029856 -0.000128412 -8.20417e-24)
(0.0298608 -0.000155677 5.48114e-24)
(0.0298644 -0.000179506 1.68282e-23)
(0.0298672 -0.000200414 -3.22537e-23)
(0.0298691 -0.00021884 1.2326e-23)
(0.0298703 -0.000235131 -1.74289e-24)
(0.0298709 -0.000249572 4.58832e-24)
(0.029871 -0.000262395 2.73267e-24)
(0.0298707 -0.000273795 -3.3795e-24)
(0.0298701 -0.000283931 1.20759e-24)
(0.0296541 6.18397e-05 1.04641e-23)
(0.0296724 1.1211e-05 -2.51387e-23)
(0.0296863 -3.22891e-05 3.14376e-24)
(0.0296972 -7.02103e-05 4.58014e-23)
(0.0297053 -0.000103503 -4.78516e-23)
(0.0297112 -0.000132687 2.02704e-23)
(0.0297156 -0.000158244 2.36042e-23)
(0.0297187 -0.000180683 -5.57925e-23)
(0.0297207 -0.000200463 -2.33676e-24)
(0.0297219 -0.000217961 2.1886e-23)
(0.0297222 -0.000233469 7.54826e-24)
(0.0297218 -0.000247228 -6.28737e-24)
(0.0297208 -0.000259434 5.83393e-24)
(0.0297193 -0.000270257 -2.61374e-24)
(0.0297174 -0.000279831 9.93021e-25)
(0.0287409 4.21895e-05 6.69824e-24)
(0.0287541 -2.20251e-06 -1.45452e-23)
(0.0287639 -4.10053e-05 -1.1558e-23)
(0.02877 -7.53022e-05 5.43372e-23)
(0.0287734 -0.000105604 -5.29299e-23)
(0.028775 -0.000132297 4.60305e-24)
(0.0287753 -0.000155822 9.95636e-24)
(0.0287745 -0.000176623 6.83402e-24)
(0.0287727 -0.000195076 8.34785e-24)
(0.02877 -0.000211476 -4.64051e-23)
(0.0287665 -0.000226054 2.90768e-23)
(0.0287625 -0.000239003 -1.69569e-25)
(0.0287578 -0.00025048 1.92391e-23)
(0.0287528 -0.000260622 -9.04016e-24)
(0.0287472 -0.000269536 -2.23494e-24)
(0.0272317 2.57155e-05 1.68818e-23)
(0.0272465 -1.18951e-05 -3.05176e-23)
(0.0272566 -4.60631e-05 6.07649e-24)
(0.0272627 -7.66388e-05 -1.73585e-23)
(0.0272657 -0.00010375 -2.50586e-23)
(0.0272666 -0.000127764 8.09853e-23)
(0.0272656 -0.00014909 -3.33395e-23)
(0.0272632 -0.000168083 1.04578e-23)
(0.0272595 -0.000185017 -6.25448e-24)
(0.0272547 -0.00020011 -1.94322e-23)
(0.0272489 -0.000213538 3.85054e-23)
(0.0272424 -0.000225454 -2.40669e-23)
(0.0272351 -0.000235979 2.75182e-24)
(0.0272272 -0.000245221 4.80345e-24)
(0.0272186 -0.00025326 -6.30397e-25)
(0.0253929 1.08574e-05 6.55604e-24)
(0.025406 -2.18668e-05 -3.49188e-23)
(0.0254143 -5.15586e-05 6.23312e-23)
(0.0254188 -7.81869e-05 -4.91234e-23)
(0.0254201 -0.000101919 5.23276e-23)
(0.0254189 -0.00012308 -1.64389e-23)
(0.0254156 -0.000141988 -1.21447e-23)
(0.0254106 -0.000158894 -1.50536e-23)
(0.0254041 -0.000173993 2.99678e-23)
(0.0253964 -0.000187445 1.43447e-24)
(0.0253876 -0.000199388 -3.17856e-23)
(0.0253778 -0.000209939 -5.30782e-24)
(0.0253671 -0.000219192 9.21495e-24)
(0.0253557 -0.00022723 -2.30735e-24)
(0.0253435 -0.000234115 5.60426e-25)
(0.0233698 -1.72594e-06 8.76997e-25)
(0.0233798 -2.94967e-05 -1.32089e-23)
(0.0233851 -5.4625e-05 -8.1082e-24)
(0.0233864 -7.72359e-05 6.40509e-23)
(0.0233846 -9.75396e-05 -6.45938e-23)
(0.02338 -0.000115762 1.92861e-23)
(0.0233733 -0.000132109 3.45771e-24)
(0.0233646 -0.000146749 -1.93507e-24)
(0.0233543 -0.000159824 -1.00092e-23)
(0.0233427 -0.000171456 4.55388e-23)
(0.0233298 -0.000181748 -3.71476e-23)
(0.0233158 -0.000190786 -2.24388e-24)
(0.0233008 -0.000198639 3.71229e-24)
(0.023285 -0.000205368 4.08178e-24)
(0.0232683 -0.00021102 -3.28227e-24)
(0.0212609 -1.01368e-05 1.30813e-24)
(0.0212667 -3.30879e-05 1.23248e-23)
(0.0212678 -5.39217e-05 -1.40851e-23)
(0.0212651 -7.27853e-05 -1.03614e-23)
(0.0212591 -8.9837e-05 6.79809e-23)
(0.0212504 -0.00010521 -5.1977e-23)
(0.0212395 -0.000119031 -9.35449e-25)
(0.0212265 -0.000131419 -1.18945e-23)
(0.0212119 -0.000142477 -1.2736e-24)
(0.0211959 -0.000152293 1.60583e-24)
(0.0211785 -0.00016094 -8.27347e-24)
(0.02116 -0.000168478 5.901e-24)
(0.0211404 -0.000174959 1.92958e-24)
(0.0211201 -0.000180425 2.02822e-24)
(0.0210988 -0.000184911 3.17805e-24)
(0.0191354 -1.4239e-05 9.32578e-24)
(0.0191366 -3.28528e-05 -1.44171e-23)
(0.0191334 -4.98457e-05 -1.22357e-23)
(0.0191265 -6.53155e-05 3.74896e-23)
(0.0191164 -7.9363e-05 -1.33948e-23)
(0.0191037 -9.20699e-05 -2.0182e-23)
(0.0190888 -0.000103519 6.91267e-24)
(0.0190719 -0.000113792 1.70392e-23)
(0.0190533 -0.00012296 -2.84051e-23)
(0.0190333 -0.000131082 2.93126e-23)
(0.0190119 -0.000138208 -1.65239e-23)
(0.0189895 -0.000144382 7.62348e-24)
(0.0189661 -0.000149636 -1.13548e-23)
(0.0189419 -0.000154004 1.19354e-23)
(0.0189169 -0.000157509 -3.1745e-24)
(0.0170454 -1.49118e-05 -1.80863e-24)
(0.0170427 -2.97669e-05 -6.47716e-24)
(0.0170359 -4.33988e-05 -2.12408e-23)
(0.0170257 -5.58703e-05 5.9434e-23)
(0.0170125 -6.72485e-05 -1.02646e-23)
(0.0169967 -7.75826e-05 -1.74237e-23)
(0.0169788 -8.69229e-05 6.55627e-24)
(0.016959 -9.53202e-05 -9.4163e-24)
(0.0169376 -0.000102821 -2.2164e-23)
(0.0169147 -0.000109464 2.12225e-23)
(0.0168906 -0.000115281 1.02174e-24)
(0.0168655 -0.0001203 -8.41597e-24)
(0.0168394 -0.000124544 9.53151e-24)
(0.0168126 -0.000128033 7.62204e-25)
(0.0167851 -0.000130786 -9.32794e-25)
(0.0150305 -1.34135e-05 6.95195e-24)
(0.0150251 -2.50862e-05 1.06308e-23)
(0.015016 -3.58529e-05 -9.54267e-24)
(0.0150038 -4.57643e-05 -2.2147e-23)
(0.0149887 -5.48573e-05 3.06114e-23)
(0.0149712 -6.31537e-05 -3.44062e-23)
(0.0149516 -7.06803e-05 -1.99332e-24)
(0.0149302 -7.74678e-05 1.3813e-23)
(0.0149072 -8.35441e-05 5.05646e-24)
(0.0148828 -8.89326e-05 -1.16197e-23)
(0.0148573 -9.36522e-05 -8.24339e-25)
(0.0148307 -9.77198e-05 2.63514e-23)
(0.0148032 -0.000101148 -1.01827e-23)
(0.0147751 -0.000103953 -2.92443e-24)
(0.0147463 -0.000106142 -2.12295e-25)
(0.0131177 -1.09009e-05 -7.21321e-24)
(0.013111 -1.99345e-05 9.32563e-24)
(0.013101 -2.8314e-05 1.13651e-24)
(0.0130879 -3.60818e-05 2.02279e-23)
(0.0130722 -4.32463e-05 -1.62239e-23)
(0.0130542 -4.98122e-05 1.62402e-24)
(0.0130341 -5.57942e-05 -1.59944e-24)
(0.0130122 -6.12097e-05 -5.55273e-24)
(0.0129888 -6.6074e-05 5.48846e-24)
(0.012964 -7.03991e-05 -1.78273e-23)
(0.012938 -7.4195e-05 7.04668e-25)
(0.012911 -7.74709e-05 4.26704e-24)
(0.0128832 -8.02336e-05 2.95375e-24)
(0.0128548 -8.24918e-05 1.2886e-24)
(0.0128257 -8.4251e-05 5.7247e-25)
(0.0113228 -8.18517e-06 5.33819e-24)
(0.0113158 -1.50592e-05 -4.19589e-24)
(0.0113057 -2.14728e-05 -1.93659e-23)
(0.0112928 -2.74557e-05 1.82081e-23)
(0.0112774 -3.29978e-05 2.67531e-23)
(0.0112597 -3.80992e-05 -6.18724e-24)
(0.0112401 -4.27686e-05 -1.40137e-23)
(0.0112186 -4.70143e-05 -2.11713e-23)
(0.0111957 -5.08429e-05 1.62717e-23)
(0.0111713 -5.42593e-05 1.1631e-24)
(0.0111458 -5.72677e-05 -4.04788e-24)
(0.0111193 -5.9872e-05 -1.31536e-24)
(0.011092 -6.2075e-05 2.65317e-24)
(0.011064 -6.38814e-05 -7.859e-27)
(0.0110354 -6.52929e-05 -6.49327e-25)
(0.00965239 -5.7171e-06 -3.35786e-24)
(0.00964577 -1.08445e-05 -2.51478e-24)
(0.00963636 -1.56497e-05 2.90538e-24)
(0.00962426 -2.01521e-05 -9.95817e-24)
(0.00960976 -2.4337e-05 3.2924e-23)
(0.00959311 -2.82062e-05 -4.48465e-23)
(0.00957453 -3.17648e-05 4.52052e-23)
(0.00955423 -3.5015e-05 -1.94882e-23)
(0.0095324 -3.79583e-05 4.83907e-24)
(0.00950922 -4.05954e-05 3.66291e-25)
(0.00948487 -4.29273e-05 -3.83756e-24)
(0.00945952 -4.49545e-05 1.72204e-24)
(0.00943332 -4.66773e-05 -3.47494e-24)
(0.00940645 -4.80976e-05 -5.57723e-25)
(0.00937904 -4.92151e-05 3.01889e-25)
(0.00810705 -3.69796e-06 -1.63136e-24)
(0.00810121 -7.42902e-06 3.92502e-25)
(0.00809285 -1.09284e-05 9.19342e-25)
(0.00808199 -1.42149e-05 -4.5119e-24)
(0.00806888 -1.72779e-05 -2.21312e-24)
(0.00805373 -2.01225e-05 1.83553e-23)
(0.00803674 -2.2751e-05 -1.09072e-23)
(0.0080181 -2.51624e-05 1.68717e-24)
(0.00799797 -2.73556e-05 -1.60611e-24)
(0.00797653 -2.93293e-05 -1.90511e-24)
(0.00795393 -3.10825e-05 -6.97426e-25)
(0.00793034 -3.26141e-05 4.03924e-24)
(0.0079059 -3.39232e-05 1.39855e-24)
(0.00788079 -3.50097e-05 -2.72726e-24)
(0.00785513 -3.58722e-05 -5.00349e-25)
(0.00668379 -2.16529e-06 -5.90947e-25)
(0.00667895 -4.80483e-06 -2.12405e-25)
(0.00667186 -7.26143e-06 -9.9842e-24)
(0.0066625 -9.56785e-06 2.44509e-24)
(0.00665109 -1.17214e-05 -7.74674e-24)
(0.00663779 -1.37301e-05 4.94547e-24)
(0.00662279 -1.55945e-05 1.02134e-23)
(0.00660623 -1.73125e-05 8.18132e-24)
(0.00658826 -1.8882e-05 -1.17621e-23)
(0.00656905 -2.03007e-05 3.55825e-24)
(0.00654872 -2.15671e-05 3.37077e-24)
(0.00652744 -2.26792e-05 -5.23033e-24)
(0.00650533 -2.36357e-05 2.8126e-24)
(0.00648255 -2.44355e-05 -3.67358e-25)
(0.00645923 -2.50765e-05 9.35051e-25)
(0.00537768 -1.12379e-06 -2.3026e-24)
(0.00537394 -2.89674e-06 -3.29524e-24)
(0.00536823 -4.53696e-06 -7.23212e-25)
(0.00536052 -6.07313e-06 8.29122e-24)
(0.00535098 -7.50892e-06 -6.08023e-24)
(0.00533977 -8.85392e-06 -1.34502e-24)
(0.00532703 -1.01078e-05 1.02813e-23)
(0.00531287 -1.12684e-05 1.97969e-25)
(0.00529743 -1.23333e-05 -2.08388e-24)
(0.00528085 -1.33004e-05 -8.68271e-24)
(0.00526323 -1.41679e-05 6.5889e-25)
(0.00524472 -1.4934e-05 6.5455e-24)
(0.00522544 -1.55973e-05 -8.62673e-25)
(0.00520551 -1.61562e-05 -1.18159e-24)
(0.00518506 -1.66085e-05 8.19821e-25)
(0.00418289 -4.88676e-07 -5.01442e-25)
(0.00418023 -1.59355e-06 2.08156e-26)
(0.0041759 -2.61468e-06 3.94938e-24)
(0.00416987 -3.56587e-06 2.78803e-24)
(0.0041623 -4.45553e-06 -1.75742e-24)
(0.0041533 -5.29263e-06 -4.73789e-24)
(0.00414298 -6.07651e-06 2.02634e-24)
(0.00413144 -6.80521e-06 -8.77337e-24)
(0.00411878 -7.47687e-06 6.8048e-24)
(0.00410511 -8.08961e-06 3.82276e-24)
(0.00409054 -8.64195e-06 2.15493e-25)
(0.00407516 -9.13228e-06 -4.48363e-24)
(0.00405909 -9.55956e-06 9.06747e-25)
(0.00404243 -9.92216e-06 -7.88495e-25)
(0.00402529 -1.02181e-05 4.21459e-25)
(0.00309315 -1.54758e-07 -9.24254e-25)
(0.00309148 -7.76966e-07 1.73106e-27)
(0.00308843 -1.35079e-06 3.15787e-24)
(0.00308403 -1.88016e-06 -1.98104e-24)
(0.0030784 -2.37541e-06 8.56359e-24)
(0.00307162 -2.84316e-06 -1.57748e-23)
(0.00306378 -3.28264e-06 1.32337e-23)
(0.00305495 -3.69248e-06 -1.1394e-23)
(0.0030452 -4.07138e-06 8.47867e-24)
(0.00303462 -4.41803e-06 -5.68457e-24)
(0.00302329 -4.73143e-06 1.99372e-24)
(0.00301128 -5.01045e-06 3.08981e-25)
(0.00299869 -5.25443e-06 5.8963e-25)
(0.0029856 -5.46217e-06 -7.5292e-25)
(0.00297209 -5.63219e-06 1.74177e-25)
(0.00210204 -2.27179e-08 1.42339e-24)
(0.00210114 -3.24983e-07 1.59344e-24)
(0.00209922 -5.99424e-07 -6.77964e-24)
(0.00209631 -8.47928e-07 5.03025e-24)
(0.00209252 -1.07859e-06 -2.04197e-26)
(0.00208789 -1.2956e-06 1.41797e-24)
(0.00208248 -1.49883e-06 -1.66182e-24)
(0.00207634 -1.68781e-06 -3.73831e-24)
(0.00206951 -1.8621e-06 3.78774e-24)
(0.00206206 -2.02125e-06 4.82108e-25)
(0.00205405 -2.16498e-06 -3.37373e-24)
(0.00204553 -2.29289e-06 1.19842e-24)
(0.00203655 -2.40488e-06 8.20475e-25)
(0.00202719 -2.50016e-06 -8.83444e-26)
(0.0020175 -2.57659e-06 -1.17194e-25)
(0.00120307 1.64925e-08 -1.43912e-24)
(0.00120269 -8.05178e-08 4.45474e-24)
(0.00120168 -1.62595e-07 2.78703e-24)
(0.00120008 -2.3669e-07 -4.89067e-24)
(0.00119794 -3.0324e-07 -5.79479e-25)
(0.0011953 -3.65039e-07 -5.40546e-25)
(0.00119218 -4.23895e-07 1.72242e-24)
(0.00118861 -4.80146e-07 -2.96333e-24)
(0.00118462 -5.34074e-07 4.21383e-24)
(0.00118024 -5.85898e-07 -2.05562e-24)
(0.00117551 -6.35906e-07 -1.46713e-24)
(0.00117045 -6.84275e-07 9.27955e-25)
(0.00116511 -7.31354e-07 -1.27684e-24)
(0.00115952 -7.75915e-07 1.3358e-24)
(0.00115371 -8.11638e-07 -2.5422e-25)
(0.000389757 5.85131e-08 -1.03446e-26)
(0.000389629 1.33048e-07 8.76537e-25)
(0.000389293 1.91099e-07 1.04015e-24)
(0.000388762 2.30233e-07 -1.59807e-24)
(0.000388058 2.54274e-07 3.48845e-24)
(0.000387185 2.64042e-07 -3.77487e-24)
(0.000386152 2.59923e-07 2.62578e-25)
(0.000384966 2.43413e-07 2.28524e-24)
(0.000383636 2.15955e-07 -3.16871e-24)
(0.000382171 1.78924e-07 -6.5052e-25)
(0.000380582 1.33583e-07 2.43742e-24)
(0.000378879 8.11271e-08 -1.10186e-24)
(0.000377074 2.25996e-08 -4.81485e-25)
(0.000375179 -4.00599e-08 4.13554e-25)
(0.000373206 -1.01555e-07 -2.11482e-26)
(0.000898475 -0.000211866 5.45663e-26)
(0.00103449 -0.000113892 1.24016e-24)
(0.00126502 -1.63677e-05 -3.3367e-24)
(0.00150276 6.26558e-05 4.39403e-24)
(0.00173427 0.000125204 -1.64058e-24)
(0.00196406 0.000171942 -1.27086e-24)
(0.00219177 0.00020507 1.31648e-24)
(0.00241763 0.000226384 -2.32846e-24)
(0.00264195 0.000237414 2.34539e-25)
(0.00286493 0.000239508 1.34261e-24)
(0.00308679 0.000233851 -2.42859e-25)
(0.0033078 0.000221473 2.57483e-25)
(0.00352836 0.00020326 -2.59328e-26)
(0.0037489 0.000179988 1.53273e-25)
(0.00397006 0.000152393 -5.54326e-25)
(0.00419248 0.000121383 2.98752e-25)
(0.00441731 8.811e-05 -7.21947e-26)
(0.0046461 5.42513e-05 2.07119e-26)
(0.00488173 2.19049e-05 9.16708e-26)
(0.00512765 -6.40436e-06 -4.56457e-26)
(0.00538904 -2.96217e-05 -9.87587e-28)
(0.00567022 -4.84173e-05 1.90294e-27)
(0.0059489 -6.6269e-05 -7.76046e-27)
(0.0061912 -8.80014e-05 -4.05136e-26)
(0.00638667 -0.000115404 7.50402e-26)
(0.00653611 -0.000147876 1.0558e-25)
(0.00664238 -0.00018452 6.63618e-26)
(0.00670846 -0.000224507 -4.11383e-25)
(0.00673791 -0.000267088 -1.21204e-24)
(0.00673024 -0.000309792 2.52169e-24)
(0.00668835 -0.000352235 -4.05508e-24)
(0.00661202 -0.000390972 5.21426e-24)
(0.00650143 -0.000420146 -2.08204e-24)
(0.00635653 -0.000434027 -3.7948e-24)
(0.00617836 -0.000425495 3.79205e-24)
(0.00596817 -0.000386313 1.39927e-23)
(0.00572765 -0.000306972 -5.2617e-24)
(0.00545885 -0.000175947 1.82318e-24)
(0.0051644 2.17795e-05 4.27003e-25)
(0.00484815 0.000306024 -1.50577e-23)
(0.00451382 0.000699426 -1.70986e-25)
(0.0041657 0.00121311 5.42921e-24)
(0.00378529 0.00180231 1.35811e-24)
(0.0033936 0.00230143 -7.26624e-24)
(0.00316865 0.00227648 -3.31499e-25)
(0.0017095 -0.000293422 -1.52472e-24)
(0.00176899 -0.000232651 -1.84783e-24)
(0.00191606 -0.000139199 4.0309e-24)
(0.00210058 -5.37784e-05 1.48954e-24)
(0.00229861 1.85332e-05 -5.149e-24)
(0.00250513 7.54199e-05 5.00605e-24)
(0.00271583 0.000118 -1.72817e-24)
(0.00292866 0.000147906 1.10309e-24)
(0.00314261 0.000166692 -1.47644e-24)
(0.00335711 0.000175774 2.26917e-26)
(0.00357186 0.000176402 -6.90969e-25)
(0.00378679 0.000169666 1.36908e-24)
(0.00400202 0.000156509 -7.50515e-25)
(0.00421775 0.000137763 -6.5565e-25)
(0.00443437 0.000114219 -3.9008e-25)
(0.0046523 8.68249e-05 8.20358e-25)
(0.00487236 5.67459e-05 -4.85339e-26)
(0.00509568 2.56364e-05 2.98755e-25)
(0.00532463 -4.43482e-06 -9.73131e-27)
(0.00556195 -3.09732e-05 -5.78177e-26)
(0.00581209 -5.28928e-05 -5.30335e-27)
(0.00607877 -7.05972e-05 7.09015e-27)
(0.00634116 -8.71265e-05 -4.27201e-26)
(0.00656843 -0.000106909 -8.01428e-26)
(0.00675151 -0.000131634 3.65765e-26)
(0.00689136 -0.000160786 5.52027e-25)
(0.00699064 -0.000193535 -9.5582e-25)
(0.00705215 -0.000229066 9.85738e-25)
(0.00707896 -0.000266387 -3.59283e-25)
(0.0070705 -0.000302935 6.79469e-25)
(0.00703045 -0.000338325 -6.40829e-24)
(0.00695789 -0.000368847 1.17956e-23)
(0.00685359 -0.000388654 -1.07484e-23)
(0.00671793 -0.000392084 2.22086e-23)
(0.00655264 -0.000372145 -2.94718e-23)
(0.00635996 -0.000320735 7.41755e-24)
(0.00614297 -0.000228552 2.22098e-23)
(0.00590588 -8.44897e-05 -7.24825e-24)
(0.00565473 0.000125556 -1.55642e-23)
(0.00539923 0.000420171 -8.1316e-24)
(0.00515412 0.000820793 1.8494e-23)
(0.00494418 0.00133977 -1.67777e-23)
(0.00478763 0.00193489 -2.85965e-24)
(0.00473826 0.00242788 9.84638e-24)
(0.00478846 0.00236463 2.7385e-24)
(0.00267804 -0.000303547 -1.67593e-26)
(0.00268994 -0.000285955 -2.21817e-24)
(0.00275798 -0.000225726 4.13107e-24)
(0.0028788 -0.000151402 2.82033e-24)
(0.0030286 -8.00485e-05 -4.83281e-24)
(0.00319822 -1.89507e-05 1.25854e-25)
(0.00338044 2.98758e-05 3.74246e-25)
(0.00357075 6.66634e-05 3.45871e-24)
(0.00376648 9.23327e-05 -4.04865e-24)
(0.00396589 0.000108011 2.30333e-24)
(0.00416791 0.000114813 6.38573e-25)
(0.00437191 0.000113774 -3.67544e-24)
(0.00457758 0.000105832 1.32259e-24)
(0.00478476 9.18341e-05 5.18327e-25)
(0.00499352 7.26026e-05 -1.03331e-24)
(0.00520394 4.91092e-05 1.5866e-24)
(0.00541649 2.25235e-05 -1.02766e-24)
(0.00563181 -5.53446e-06 4.69853e-26)
(0.0058517 -3.30258e-05 1.04011e-25)
(0.00607812 -5.75028e-05 5.73742e-26)
(0.00631467 -7.78484e-05 1.59844e-26)
(0.00656435 -9.42124e-05 -4.24747e-27)
(0.00680787 -0.000109216 4.8197e-26)
(0.00701763 -0.000126896 -1.6566e-25)
(0.00718605 -0.000148819 3.46707e-25)
(0.00731427 -0.000174529 -2.14673e-25)
(0.00740478 -0.000203259 1.10784e-24)
(0.00746027 -0.000234188 -1.56188e-24)
(0.00748306 -0.00026602 2.77289e-24)
(0.00747292 -0.000296346 1.16756e-24)
(0.00743438 -0.000324504 2.4087e-24)
(0.00736523 -0.000346619 -1.36571e-23)
(0.00726723 -0.000356926 5.25293e-24)
(0.00714123 -0.000349898 1.13068e-23)
(0.00698965 -0.000318795 -2.45248e-23)
(0.00681574 -0.000255884 3.38922e-23)
(0.00662401 -0.000152472 -2.12721e-23)
(0.00642077 1.42662e-06 2.53869e-23)
(0.00621521 0.000217698 -4.67843e-23)
(0.0060217 0.000510824 1.74273e-23)
(0.00586236 0.000895567 5.58996e-24)
(0.00577208 0.00137573 7.89638e-24)
(0.00577897 0.00190352 -9.79119e-24)
(0.00593034 0.00231508 2.31059e-24)
(0.00609589 0.00225917 -1.35596e-24)
(0.00378586 -0.000289774 -6.09783e-25)
(0.00377237 -0.000298289 -8.41343e-25)
(0.003789 -0.000270872 -3.37398e-24)
(0.00384864 -0.000219862 1.27153e-24)
(0.00394505 -0.000159954 8.10739e-25)
(0.00406868 -0.000102562 2.23767e-24)
(0.00421248 -5.28285e-05 -3.8836e-24)
(0.00437088 -1.26237e-05 1.63337e-24)
(0.00453989 1.77308e-05 4.37007e-24)
(0.00471666 3.86358e-05 -1.18742e-24)
(0.00489926 5.0785e-05 -1.02384e-24)
(0.00508638 5.49779e-05 -1.58307e-25)
(0.00527717 5.20308e-05 5.11823e-25)
(0.00547102 4.27349e-05 -9.90273e-25)
(0.0056676 2.78911e-05 2.38247e-25)
(0.00586659 8.46288e-06 -5.17112e-26)
(0.00606802 -1.43992e-05 -3.20514e-25)
(0.00627202 -3.91291e-05 2.32168e-25)
(0.00647976 -6.37342e-05 3.93075e-25)
(0.00669232 -8.58199e-05 -8.62879e-26)
(0.00691241 -0.000104265 -2.34543e-26)
(0.00714216 -0.000118985 9.70366e-27)
(0.00736385 -0.000132211 9.13909e-26)
(0.0075533 -0.000147599 3.92127e-26)
(0.0077045 -0.000166578 4.29811e-25)
(0.00781877 -0.000188712 -6.27095e-25)
(0.00789845 -0.00021331 1.15162e-24)
(0.0079462 -0.000239464 -2.58518e-24)
(0.00796318 -0.000265632 3.37331e-24)
(0.00795054 -0.000289759 -2.69605e-25)
(0.00791284 -0.000310635 -2.78854e-24)
(0.00784656 -0.000324247 -3.39378e-25)
(0.00775468 -0.000325195 -3.39985e-25)
(0.00763852 -0.000308127 -2.7093e-24)
(0.0075012 -0.00026672 4.62406e-24)
(0.0073469 -0.000193899 -9.71891e-24)
(0.00718141 -8.20268e-05 4.14582e-23)
(0.00701277 7.70695e-05 -2.24043e-23)
(0.00685227 0.000292018 -1.47693e-24)