/*--------------------------------*- C++ -*----------------------------------*\
| =========                 |                                                 |
| \\      /  F ield         | OpenFOAM: The Open Source CFD Toolbox           |
|  \\    /   O peration     | Version:  2312                                  |
|   \\  /    A nd           | Website:  www.openfoam.com                      |
|    \\/     M anipulation  |                                                 |
\*---------------------------------------------------------------------------*/
FoamFile
{
    version     2.0;
    format      ascii;
    arch        "LSB;label=32;scalar=64";
    class       volScalarField;
    location    "147";
    object      p;
}
// * * * * * * * * * * * * * * * * * * * * * * * * * * * * * * * * * * * * * //

dimensions      [0 2 -2 0 0 0 0];

internalField   nonuniform List<scalar> 
4800
(
-2.75977e-13
-1.49571e-06
-2.68741e-06
-3.65313e-06
-4.44793e-06
-5.11202e-06
-5.67084e-06
-6.15545e-06
-6.57839e-06
-6.95049e-06
-7.28232e-06
-7.57722e-06
-7.83085e-06
-8.27352e-06
-9.82269e-06
1.88137e-08
-1.47461e-06
-2.66531e-06
-3.63099e-06
-4.42647e-06
-5.09243e-06
-5.65393e-06
-6.14284e-06
-6.57173e-06
-6.95304e-06
-7.30238e-06
-7.6361e-06
-7.96915e-06
-8.4078e-06
-9.19044e-06
3.85078e-08
-1.45245e-06
-2.64212e-06
-3.60785e-06
-4.40423e-06
-5.07196e-06
-5.63578e-06
-6.12715e-06
-6.56084e-06
-6.949e-06
-7.30826e-06
-7.65614e-06
-8.00158e-06
-8.35471e-06
-8.69571e-06
5.82465e-08
-1.4298e-06
-2.61808e-06
-3.58349e-06
-4.38038e-06
-5.04923e-06
-5.61523e-06
-6.10695e-06
-6.54264e-06
-6.93246e-06
-7.28973e-06
-7.6243e-06
-7.92962e-06
-8.17742e-06
-8.30273e-06
7.95721e-08
-1.4049e-06
-2.59128e-06
-3.55587e-06
-4.3527e-06
-5.02175e-06
-5.58922e-06
-6.07934e-06
-6.51262e-06
-6.89736e-06
-7.24069e-06
-7.54358e-06
-7.78915e-06
-7.94191e-06
-7.95064e-06
1.03849e-07
-1.37636e-06
-2.56022e-06
-3.52334e-06
-4.31929e-06
-4.9873e-06
-5.55384e-06
-6.04051e-06
-6.46619e-06
-6.83752e-06
-7.15603e-06
-7.41629e-06
-7.59965e-06
-7.67894e-06
-7.6283e-06
1.3315e-07
-1.34213e-06
-2.52277e-06
-3.48353e-06
-4.27739e-06
-4.94262e-06
-5.50508e-06
-5.9849e-06
-6.39753e-06
-6.74746e-06
-7.03308e-06
-7.24694e-06
-7.37509e-06
-7.40394e-06
-7.32746e-06
1.71261e-07
-1.29858e-06
-2.47518e-06
-3.43246e-06
-4.22255e-06
-4.88268e-06
-5.43769e-06
-5.90596e-06
-6.2999e-06
-6.62259e-06
-6.87177e-06
-7.04204e-06
-7.12698e-06
-7.12485e-06
-7.04074e-06
2.24295e-07
-1.23975e-06
-2.41144e-06
-3.36385e-06
-4.14813e-06
-4.80033e-06
-5.3442e-06
-5.79631e-06
-6.16706e-06
-6.45964e-06
-6.67348e-06
-6.80751e-06
-6.86244e-06
-6.84428e-06
-6.76276e-06
3.00828e-07
-1.15707e-06
-2.3228e-06
-3.26872e-06
-4.04484e-06
-4.68607e-06
-5.21524e-06
-5.64765e-06
-5.99301e-06
-6.25601e-06
-6.43939e-06
-6.5467e-06
-6.5838e-06
-6.56064e-06
-6.488e-06
4.11384e-07
-1.03949e-06
-2.19777e-06
-3.13524e-06
-3.90074e-06
-4.52818e-06
-5.03991e-06
-5.45096e-06
-5.7716e-06
-6.00866e-06
-6.16885e-06
-6.25932e-06
-6.2889e-06
-6.26882e-06
-6.20929e-06
5.67697e-07
-8.74088e-07
-2.02261e-06
-2.94922e-06
-3.70169e-06
-4.3132e-06
-4.80617e-06
-5.19639e-06
-5.49608e-06
-5.71301e-06
-5.85829e-06
-5.94112e-06
-5.97149e-06
-5.96047e-06
-5.91705e-06
7.82773e-07
-6.46124e-07
-1.78156e-06
-2.69444e-06
-3.43176e-06
-4.02631e-06
-4.50102e-06
-4.87278e-06
-5.15496e-06
-5.36123e-06
-5.50039e-06
-5.5837e-06
-5.62151e-06
-5.62404e-06
-5.59907e-06
1.07151e-06
-3.38321e-07
-1.45615e-06
-2.35213e-06
-3.07274e-06
-3.65073e-06
-4.10988e-06
-4.46846e-06
-4.74164e-06
-4.94287e-06
-5.08344e-06
-5.17422e-06
-5.2249e-06
-5.24462e-06
-5.24009e-06
1.45043e-06
6.91104e-08
-1.02499e-06
-1.90047e-06
-2.60337e-06
-3.16653e-06
-3.61425e-06
-3.96559e-06
-4.23631e-06
-4.44021e-06
-4.58915e-06
-4.69349e-06
-4.76188e-06
-4.80222e-06
-4.82037e-06
1.93603e-06
5.96764e-07
-4.6528e-07
-1.31578e-06
-2e-06
-2.55057e-06
-2.99171e-06
-3.34229e-06
-3.61759e-06
-3.83096e-06
-3.99395e-06
-4.11685e-06
-4.20725e-06
-4.27167e-06
-4.31519e-06
2.54181e-06
1.26276e-06
2.43787e-07
-5.75995e-07
-1.23984e-06
-1.77942e-06
-2.21818e-06
-2.57399e-06
-2.86087e-06
-3.09057e-06
-3.2728e-06
-3.41876e-06
-3.53528e-06
-3.62743e-06
-3.69945e-06
3.2744e-06
2.07804e-06
1.11597e-06
3.34269e-07
-3.06382e-07
-8.35204e-07
-1.27364e-06
-1.63803e-06
-1.94114e-06
-2.19214e-06
-2.40094e-06
-2.57542e-06
-2.72326e-06
-2.8482e-06
-2.95345e-06
4.12948e-06
3.04037e-06
2.15113e-06
1.41665e-06
8.03314e-07
2.86273e-07
-1.52475e-07
-5.2621e-07
-8.4551e-07
-1.12077e-06
-1.36004e-06
-1.56803e-06
-1.75037e-06
-1.91164e-06
-2.05506e-06
5.08549e-06
4.12574e-06
3.32432e-06
2.6464e-06
2.06562e-06
1.56231e-06
1.12237e-06
7.3689e-07
3.98943e-07
1.01367e-07
-1.63248e-07
-4.021e-07
-6.18658e-07
-8.16204e-07
-9.98224e-07
6.05349e-06
5.22895e-06
4.52054e-06
3.90354e-06
3.35875e-06
2.87219e-06
2.43456e-06
2.03783e-06
1.67555e-06
1.34794e-06
1.05267e-06
7.81584e-07
5.26854e-07
2.86564e-07
5.89561e-08
6.88243e-06
6.17465e-06
5.54815e-06
4.9863e-06
4.47636e-06
4.00919e-06
3.57803e-06
3.17952e-06
2.81015e-06
2.4608e-06
2.12759e-06
1.81494e-06
1.52394e-06
1.24694e-06
9.79074e-07
7.51837e-06
6.89658e-06
6.33012e-06
5.80855e-06
5.32357e-06
4.86949e-06
4.44203e-06
4.03738e-06
3.65226e-06
3.28414e-06
2.9343e-06
2.60095e-06
2.28153e-06
1.97203e-06
1.66996e-06
7.98367e-06
7.4252e-06
6.9034e-06
6.41232e-06
5.947e-06
5.5039e-06
5.08016e-06
4.6737e-06
4.28295e-06
3.90682e-06
3.54257e-06
3.18945e-06
2.84523e-06
2.5083e-06
2.17746e-06
8.31499e-06
7.80308e-06
7.31517e-06
6.84816e-06
6.39913e-06
5.96599e-06
5.5471e-06
5.14079e-06
4.74532e-06
4.35924e-06
3.98144e-06
3.61083e-06
3.24633e-06
2.88716e-06
2.53244e-06
8.5436e-06
8.06625e-06
7.60434e-06
7.15626e-06
6.72029e-06
6.29519e-06
5.87954e-06
5.47187e-06
5.07114e-06
4.67656e-06
4.28739e-06
3.90282e-06
3.52226e-06
3.14512e-06
2.77075e-06
8.69597e-06
8.2446e-06
7.80258e-06
7.36906e-06
6.943e-06
6.52361e-06
6.10984e-06
5.70074e-06
5.29568e-06
4.89449e-06
4.49624e-06
4.1005e-06
3.70687e-06
3.315e-06
2.92451e-06
8.79403e-06
8.36243e-06
7.93564e-06
7.51325e-06
7.09472e-06
6.67965e-06
6.26741e-06
5.85744e-06
5.44887e-06
5.04202e-06
4.63623e-06
4.23125e-06
3.82686e-06
3.42291e-06
3.01923e-06
8.85498e-06
8.43871e-06
8.02377e-06
7.6101e-06
7.19754e-06
6.78589e-06
6.37478e-06
5.96427e-06
5.55248e-06
5.14085e-06
4.72876e-06
4.31613e-06
3.90287e-06
3.48901e-06
3.0745e-06
8.89174e-06
8.48764e-06
8.08215e-06
7.6755e-06
7.26776e-06
6.85878e-06
6.44827e-06
6.03589e-06
5.62259e-06
5.20711e-06
4.78979e-06
4.37079e-06
3.95015e-06
3.52803e-06
3.10452e-06
8.91354e-06
8.51934e-06
8.12155e-06
7.72066e-06
7.31684e-06
6.91001e-06
6.50004e-06
6.08681e-06
5.67119e-06
5.25236e-06
4.83061e-06
4.40619e-06
3.9793e-06
3.5502e-06
3.11909e-06
8.92663e-06
8.54065e-06
8.14925e-06
7.75317e-06
7.35258e-06
6.94748e-06
6.53792e-06
6.12394e-06
5.70618e-06
5.28442e-06
4.85881e-06
4.42972e-06
3.99744e-06
3.56234e-06
3.12471e-06
8.93503e-06
8.556e-06
8.17e-06
7.77797e-06
7.38006e-06
6.97638e-06
6.56708e-06
6.15235e-06
5.7327e-06
5.30833e-06
4.87932e-06
4.44612e-06
4.00913e-06
3.56879e-06
3.12549e-06
8.94117e-06
8.5681e-06
8.18673e-06
7.79815e-06
7.40249e-06
6.99996e-06
6.59081e-06
6.17524e-06
5.75397e-06
5.32725e-06
4.89522e-06
4.45836e-06
4.01719e-06
3.57223e-06
3.12391e-06
8.94641e-06
8.57851e-06
8.20115e-06
7.81552e-06
7.42176e-06
7.02016e-06
6.61109e-06
6.19479e-06
5.77196e-06
5.34309e-06
4.90834e-06
4.4682e-06
4.0233e-06
3.57421e-06
3.12143e-06
8.95142e-06
8.58803e-06
8.21416e-06
7.83107e-06
7.43892e-06
7.03809e-06
6.62903e-06
6.21196e-06
5.78782e-06
5.35695e-06
4.91974e-06
4.47663e-06
4.02838e-06
3.57559e-06
3.11881e-06
8.95646e-06
8.59702e-06
8.22617e-06
7.84527e-06
7.45449e-06
7.05427e-06
6.64516e-06
6.22732e-06
5.80207e-06
5.36937e-06
4.92991e-06
4.48414e-06
4.03288e-06
3.57678e-06
3.11643e-06
8.96165e-06
8.6057e-06
8.2375e-06
7.85846e-06
7.46883e-06
7.06912e-06
6.65991e-06
6.24138e-06
5.815e-06
5.3807e-06
4.93919e-06
4.49104e-06
4.03709e-06
3.578e-06
3.11441e-06
8.9673e-06
8.6146e-06
8.24884e-06
7.8715e-06
7.4829e-06
7.08363e-06
6.67429e-06
6.2551e-06
5.82751e-06
5.39173e-06
4.94826e-06
4.49785e-06
4.04134e-06
3.5794e-06
3.1127e-06
8.97304e-06
8.6235e-06
8.26018e-06
7.88461e-06
7.49716e-06
7.09829e-06
6.6888e-06
6.26895e-06
5.84024e-06
5.40288e-06
4.95746e-06
4.50472e-06
4.04557e-06
3.58087e-06
3.11133e-06
-1.10637e-05
-8.8471e-06
-7.48768e-06
-6.57126e-06
-5.84022e-06
-5.28317e-06
-4.85853e-06
-4.53965e-06
-4.30957e-06
-4.15526e-06
-4.0662e-06
-4.03355e-06
-4.04974e-06
-4.10821e-06
-4.20345e-06
-4.33118e-06
-4.48901e-06
-4.67771e-06
-4.90262e-06
-5.17573e-06
-5.50958e-06
-5.90216e-06
-6.26184e-06
-6.43021e-06
-6.30721e-06
-5.85993e-06
-5.0919e-06
-4.01847e-06
-2.65984e-06
-1.04075e-06
8.11634e-07
2.86689e-06
5.0899e-06
7.44033e-06
9.87254e-06
1.23359e-05
1.47748e-05
1.71271e-05
1.93198e-05
2.12599e-05
2.28127e-05
2.37835e-05
2.37378e-05
2.22705e-05
1.7922e-05
-9.49772e-06
-8.33059e-06
-7.29208e-06
-6.47162e-06
-5.78454e-06
-5.24289e-06
-4.82437e-06
-4.50883e-06
-4.28153e-06
-4.13024e-06
-4.04466e-06
-4.01597e-06
-4.03656e-06
-4.09979e-06
-4.20007e-06
-4.33303e-06
-4.49616e-06
-4.68999e-06
-4.9193e-06
-5.19512e-06
-5.52833e-06
-5.91505e-06
-6.26356e-06
-6.41886e-06
-6.28349e-06
-5.82588e-06
-5.05042e-06
-3.97246e-06
-2.61224e-06
-9.95116e-07
8.50589e-07
2.89278e-06
5.09418e-06
7.41163e-06
9.79587e-06
1.21913e-05
1.45351e-05
1.67545e-05
1.87592e-05
2.04268e-05
2.15668e-05
2.18701e-05
2.07185e-05
1.73056e-05
1.05663e-05
-8.67403e-06
-7.92995e-06
-7.09202e-06
-6.35779e-06
-5.71939e-06
-5.19905e-06
-4.78982e-06
-4.47914e-06
-4.25526e-06
-4.10723e-06
-4.02521e-06
-4.00051e-06
-4.02554e-06
-4.09359e-06
-4.199e-06
-4.33731e-06
-4.50587e-06
-4.70493e-06
-4.93864e-06
-5.21694e-06
-5.54885e-06
-5.92838e-06
-6.26373e-06
-6.40393e-06
-6.25458e-06
-5.78567e-06
-5.00262e-06
-3.92093e-06
-2.56096e-06
-9.48912e-07
8.85378e-07
2.90772e-06
5.07807e-06
7.34975e-06
9.66897e-06
1.19741e-05
1.41938e-05
1.62432e-05
1.80149e-05
1.93616e-05
2.00616e-05
1.97781e-05
1.79778e-05
1.41244e-05
8.13972e-06
-8.15425e-06
-7.60379e-06
-6.92274e-06
-6.25599e-06
-5.66349e-06
-5.16553e-06
-4.7655e-06
-4.45889e-06
-4.23725e-06
-4.0912e-06
-4.01151e-06
-3.98977e-06
-4.01843e-06
-4.09072e-06
-4.20086e-06
-4.34427e-06
-4.51813e-06
-4.72231e-06
-4.96027e-06
-5.24071e-06
-5.57058e-06
-5.94149e-06
-6.26154e-06
-6.3842e-06
-6.21848e-06
-5.73614e-06
-4.94399e-06
-3.85782e-06
-2.49836e-06
-8.93023e-07
9.26373e-07
2.92298e-06
5.05329e-06
7.26633e-06
9.50293e-06
1.16946e-05
1.37614e-05
1.56072e-05
1.71114e-05
1.81153e-05
1.84012e-05
1.76819e-05
1.56074e-05
1.19372e-05
6.97056e-06
-7.75855e-06
-7.32305e-06
-6.76182e-06
-6.17654e-06
-5.62614e-06
-5.14998e-06
-4.75841e-06
-4.45449e-06
-4.23319e-06
-4.08701e-06
-4.00764e-06
-3.98709e-06
-4.01794e-06
-4.09331e-06
-4.2073e-06
-4.35515e-06
-4.53381e-06
-4.74272e-06
-4.98448e-06
-5.26643e-06
-5.59319e-06
-5.95371e-06
-6.25606e-06
-6.35882e-06
-6.17474e-06
-5.67765e-06
-4.87602e-06
-3.78614e-06
-2.42932e-06
-8.34556e-07
9.63962e-07
2.92628e-06
5.00494e-06
7.14422e-06
9.27933e-06
1.13352e-05
1.32242e-05
1.48428e-05
1.60656e-05
1.67397e-05
1.66802e-05
1.56858e-05
1.35826e-05
1.03476e-05
6.309e-06
-7.43453e-06
-7.08016e-06
-6.61014e-06
-6.10683e-06
-5.60626e-06
-5.15318e-06
-4.77193e-06
-4.47066e-06
-4.24821e-06
-4.09969e-06
-4.01819e-06
-3.9965e-06
-4.02747e-06
-4.10414e-06
-4.22052e-06
-4.37163e-06
-4.55412e-06
-4.76689e-06
-5.01159e-06
-5.29398e-06
-5.61614e-06
-5.96403e-06
-6.2459e-06
-6.32625e-06
-6.12196e-06
-5.60919e-06
-4.79848e-06
-3.70676e-06
-2.35617e-06
-7.77674e-07
9.91802e-07
2.90888e-06
4.92186e-06
6.9702e-06
8.98386e-06
1.08824e-05
1.25735e-05
1.39518e-05
1.48972e-05
1.52778e-05
1.49578e-05
1.3824e-05
1.18302e-05
9.06823e-06
5.83282e-06
-7.14892e-06
-6.85832e-06
-6.47159e-06
-6.03498e-06
-5.59066e-06
-5.17019e-06
-4.80487e-06
-4.50869e-06
-4.28529e-06
-4.13309e-06
-4.04724e-06
-4.02194e-06
-4.05057e-06
-4.12624e-06
-4.24296e-06
-4.39557e-06
-4.58032e-06
-4.79556e-06
-5.04178e-06
-5.32304e-06
-5.63856e-06
-5.97107e-06
-6.22927e-06
-6.2845e-06
-6.05817e-06
-5.52914e-06
-4.71039e-06
-3.61968e-06
-2.28025e-06
-7.25419e-07
1.00481e-06
2.86351e-06
4.79477e-06
6.73362e-06
8.6059e-06
1.03281e-05
1.18077e-05
1.29439e-05
1.36313e-05
1.37684e-05
1.32712e-05
1.20977e-05
1.02765e-05
7.93675e-06
5.31472e-06
-6.88265e-06
-6.64359e-06
-6.32776e-06
-5.95937e-06
-5.57076e-06
-5.19167e-06
-4.85045e-06
-4.56475e-06
-4.34327e-06
-4.18794e-06
-4.09668e-06
-4.06594e-06
-4.08995e-06
-4.16211e-06
-4.27673e-06
-4.42857e-06
-4.6135e-06
-4.82922e-06
-5.07496e-06
-5.35291e-06
-5.65918e-06
-5.97302e-06
-6.204e-06
-6.2313e-06
-5.98131e-06
-5.43604e-06
-4.61132e-06
-3.52583e-06
-2.20416e-06
-6.82459e-07
9.96001e-07
2.78098e-06
4.61281e-06
6.4231e-06
8.13557e-06
9.66702e-06
1.09292e-05
1.18331e-05
1.22933e-05
1.22423e-05
1.164e-05
1.04922e-05
8.8628e-06
6.87911e-06
4.72015e-06
-6.6263e-06
-6.43001e-06
-6.17374e-06
-5.86963e-06
-5.53906e-06
-5.20701e-06
-4.89779e-06
-4.62994e-06
-4.41601e-06
-4.26042e-06
-4.16458e-06
-4.12816e-06
-4.14615e-06
-4.21265e-06
-4.32275e-06
-4.47135e-06
-4.65399e-06
-4.86775e-06
-5.11048e-06
-5.38236e-06
-5.67623e-06
-5.96764e-06
-6.16763e-06
-6.16435e-06
-5.8896e-06
-5.32913e-06
-4.50213e-06
-3.42787e-06
-2.13263e-06
-6.55886e-07
9.55812e-07
2.64969e-06
4.36332e-06
6.0266e-06
7.56388e-06
8.89598e-06
9.94374e-06
1.06334e-05
1.09051e-05
1.07189e-05
1.00681e-05
8.98504e-06
7.5438e-06
5.85471e-06
4.0502e-06
-6.3734e-06
-6.21384e-06
-6.00803e-06
-5.76168e-06
-5.48808e-06
-5.20583e-06
-4.93481e-06
-4.69225e-06
-4.49298e-06
-4.34174e-06
-4.24451e-06
-4.20455e-06
-4.21655e-06
-4.27606e-06
-4.37976e-06
-4.52287e-06
-4.70073e-06
-4.90987e-06
-5.14671e-06
-5.40941e-06
-5.68735e-06
-5.95233e-06
-6.11772e-06
-6.08176e-06
-5.78209e-06
-5.20912e-06
-4.38573e-06
-3.331e-06
-2.07304e-06
-6.55601e-07
8.71925e-07
2.45581e-06
4.03248e-06
5.53237e-06
6.88355e-06
8.01467e-06
8.85922e-06
9.36134e-06
9.48242e-06
9.20699e-06
8.54839e-06
7.55007e-06
6.28279e-06
4.83629e-06
3.30785e-06
-6.11673e-06
-5.98987e-06
-5.8276e-06
-5.63242e-06
-5.41218e-06
-5.17994e-06
-4.95084e-06
-4.73993e-06
-4.56071e-06
-4.41897e-06
-4.32672e-06
-4.28759e-06
-4.29509e-06
-4.34734e-06
-4.44368e-06
-4.57977e-06
-4.75071e-06
-4.95273e-06
-5.18079e-06
-5.43114e-06
-5.68962e-06
-5.92444e-06
-6.05235e-06
-5.98277e-06
-5.65953e-06
-5.07956e-06
-4.2687e-06
-3.24413e-06
-2.03574e-06
-6.94649e-07
7.29282e-07
2.18376e-06
3.60605e-06
4.9297e-06
6.08952e-06
7.02481e-06
7.68343e-06
8.02668e-06
8.03393e-06
7.706e-06
7.06655e-06
6.16049e-06
5.04934e-06
3.8036e-06
2.49489e-06
-5.84688e-06
-5.75015e-06
-5.62641e-06
-5.47664e-06
-5.30536e-06
-5.12154e-06
-4.93606e-06
-4.76338e-06
-4.60821e-06
-4.48009e-06
-4.39985e-06
-4.36578e-06
-4.3718e-06
-4.41812e-06
-4.50755e-06
-4.63613e-06
-4.79886e-06
-4.99187e-06
-5.20872e-06
-5.44397e-06
-5.67998e-06
-5.88191e-06
-5.97104e-06
-5.86868e-06
-5.52555e-06
-4.94787e-06
-4.16458e-06
-3.17873e-06
-2.03455e-06
-7.89836e-07
5.10369e-07
1.81701e-06
3.07045e-06
4.2099e-06
5.17925e-06
5.9299e-06
6.42389e-06
6.63717e-06
6.56224e-06
6.20923e-06
5.60521e-06
4.7913e-06
3.81818e-06
2.74017e-06
1.61028e-06
-5.55178e-06
-5.48365e-06
-5.39496e-06
-5.28606e-06
-5.15946e-06
-5.02087e-06
-4.87794e-06
-4.74042e-06
-4.61632e-06
-4.51662e-06
-4.4525e-06
-4.42482e-06
-4.43197e-06
-4.47696e-06
-4.56193e-06
-4.68392e-06
-4.83837e-06
-5.02155e-06
-5.22574e-06
-5.44416e-06
-5.65604e-06
-5.8241e-06
-5.87618e-06
-5.74393e-06
-5.38651e-06
-4.8332e-06
-4.08673e-06
-3.14824e-06
-2.08904e-06
-9.62093e-07
1.95895e-07
1.33941e-06
2.41418e-06
3.36734e-06
4.15315e-06
4.73505e-06
5.08746e-06
5.19749e-06
5.06592e-06
4.70702e-06
4.14696e-06
3.4208e-06
2.56883e-06
1.63239e-06
6.50888e-07
-5.2164e-06
-5.17616e-06
-5.12026e-06
-5.04891e-06
-4.96349e-06
-4.86763e-06
-4.76693e-06
-4.66865e-06
-4.5807e-06
-4.51043e-06
-4.46493e-06
-4.44856e-06
-4.46355e-06
-4.51227e-06
-4.59618e-06
-4.7138e-06
-4.86134e-06
-5.0353e-06
-5.22705e-06
-5.42851e-06
-5.61705e-06
-5.75328e-06
-5.77381e-06
-5.61607e-06
-5.2653e-06
-4.74917e-06
-4.04145e-06
-3.17799e-06
-2.22756e-06
-1.23528e-06
-2.33564e-07
7.36691e-07
1.62913e-06
2.40039e-06
3.01499e-06
3.44701e-06
3.68071e-06
3.71072e-06
3.54214e-06
3.18989e-06
2.67699e-06
2.03189e-06
1.28581e-06
4.69888e-07
-3.86467e-07
-4.82159e-06
-4.80949e-06
-4.78546e-06
-4.74981e-06
-4.70342e-06
-4.64873e-06
-4.58975e-06
-4.53174e-06
-4.48049e-06
-4.44156e-06
-4.42076e-06
-4.42325e-06
-4.45238e-06
-4.51014e-06
-4.59785e-06
-4.71521e-06
-4.85931e-06
-5.02666e-06
-5.20849e-06
-5.39509e-06
-5.56466e-06
-5.67549e-06
-5.67323e-06
-5.50832e-06
-5.17775e-06
-4.69342e-06
-4.05809e-06
-3.30328e-06
-2.47925e-06
-1.63249e-06
-7.95212e-07
-1.85686e-09
7.11334e-07
1.31118e-06
1.77127e-06
2.07398e-06
2.21046e-06
2.17976e-06
1.98858e-06
1.6505e-06
1.1845e-06
6.12812e-07
-4.09572e-08
-7.53554e-07
-1.50305e-06
-4.34344e-06
-4.36088e-06
-4.36925e-06
-4.36902e-06
-4.36089e-06
-4.34657e-06
-4.32885e-06
-4.31142e-06
-4.29854e-06
-4.29472e-06
-4.30469e-06
-4.33281e-06
-4.38241e-06
-4.4556e-06
-4.55376e-06
-4.67721e-06
-4.82372e-06
-4.98995e-06
-5.16761e-06
-5.3449e-06
-5.50308e-06
-5.60065e-06
-5.59113e-06
-5.43867e-06
-5.13472e-06
-4.71418e-06
-4.17583e-06
-3.54502e-06
-2.86347e-06
-2.17112e-06
-1.50079e-06
-8.81111e-07
-3.38202e-07
1.04702e-07
4.29143e-07
6.23355e-07
6.82236e-07
6.06665e-07
4.03239e-07
8.34902e-08
-3.3764e-07
-8.43434e-07
-1.41651e-06
-2.03975e-06
-2.69683e-06
-3.75749e-06
-3.80671e-06
-3.84908e-06
-3.88524e-06
-3.91586e-06
-3.94224e-06
-3.96641e-06
-3.99106e-06
-4.01936e-06
-4.05479e-06
-4.10092e-06
-4.16117e-06
-4.23845e-06
-4.33494e-06
-4.45198e-06
-4.5901e-06
-4.74747e-06
-4.92089e-06
-5.10366e-06
-5.2833e-06
-5.44226e-06
-5.54333e-06
-5.54798e-06
-5.42448e-06
-5.1834e-06
-4.8448e-06
-4.41727e-06
-3.92246e-06
-3.39294e-06
-2.86121e-06
-2.35565e-06
-1.89947e-06
-1.5121e-06
-1.20942e-06
-1.00278e-06
-8.98762e-07
-9.008e-07
-1.00854e-06
-1.2167e-06
-1.51597e-06
-1.89494e-06
-2.34153e-06
-2.84338e-06
-3.38816e-06
-3.96381e-06
-3.04554e-06
-3.13003e-06
-3.20911e-06
-3.28371e-06
-3.35474e-06
-3.42339e-06
-3.49129e-06
-3.56045e-06
-3.63318e-06
-3.71205e-06
-3.79975e-06
-3.89888e-06
-4.01192e-06
-4.14069e-06
-4.28652e-06
-4.44971e-06
-4.62876e-06
-4.82121e-06
-5.01987e-06
-5.21566e-06
-5.3966e-06
-5.52558e-06
-5.56343e-06
-5.49951e-06
-5.34448e-06
-5.1071e-06
-4.80201e-06
-4.45312e-06
-4.0817e-06
-3.71056e-06
-3.36153e-06
-3.05272e-06
-2.7997e-06
-2.61626e-06
-2.51015e-06
-2.48117e-06
-2.5314e-06
-2.66194e-06
-2.86949e-06
-3.14717e-06
-3.48679e-06
-3.88001e-06
-4.31837e-06
-4.79315e-06
-5.29556e-06
-2.18691e-06
-2.31249e-06
-2.43366e-06
-2.55151e-06
-2.66727e-06
-2.78226e-06
-2.89792e-06
-3.01581e-06
-3.13766e-06
-3.26538e-06
-3.40103e-06
-3.54662e-06
-3.70415e-06
-3.87513e-06
-4.06049e-06
-4.26089e-06
-4.47455e-06
-4.69916e-06
-4.93194e-06
-5.15667e-06
-5.37035e-06
-5.56157e-06
-5.66881e-06
-5.69011e-06
-5.63657e-06
-5.5188e-06
-5.35152e-06
-5.15159e-06
-4.93447e-06
-4.71598e-06
-4.51214e-06
-4.33578e-06
-4.1966e-06
-4.10435e-06
-4.08192e-06
-4.11149e-06
-4.19767e-06
-4.34294e-06
-4.54493e-06
-4.79915e-06
-5.10065e-06
-5.44432e-06
-5.82448e-06
-6.23498e-06
-6.66952e-06
-1.17167e-06
-1.34169e-06
-1.50939e-06
-1.67551e-06
-1.84129e-06
-2.00814e-06
-2.1774e-06
-2.35034e-06
-2.52826e-06
-2.71262e-06
-2.90497e-06
-3.10689e-06
-3.31986e-06
-3.54509e-06
-3.78333e-06
-4.035e-06
-4.29905e-06
-4.57377e-06
-4.85722e-06
-5.13893e-06
-5.41191e-06
-5.67094e-06
-5.87475e-06
-6.00273e-06
-6.06961e-06
-6.08494e-06
-6.05841e-06
-6.00218e-06
-5.92894e-06
-5.85097e-06
-5.77885e-06
-5.72415e-06
-5.69692e-06
-5.69836e-06
-5.71613e-06
-5.77772e-06
-5.88593e-06
-6.03737e-06
-6.22819e-06
-6.45589e-06
-6.71871e-06
-7.0141e-06
-7.33843e-06
-7.68742e-06
-8.05673e-06
-1.61704e-07
-3.79932e-07
-5.96896e-07
-8.13643e-07
-1.03166e-06
-1.25234e-06
-1.47681e-06
-1.70611e-06
-1.94131e-06
-2.18359e-06
-2.43418e-06
-2.69432e-06
-2.96516e-06
-3.24771e-06
-3.54265e-06
-3.85032e-06
-4.17032e-06
-4.50148e-06
-4.84156e-06
-5.18554e-06
-5.52832e-06
-5.86356e-06
-6.16115e-06
-6.39904e-06
-6.58189e-06
-6.71713e-06
-6.81238e-06
-6.87725e-06
-6.92168e-06
-6.95495e-06
-6.98457e-06
-7.01753e-06
-7.06068e-06
-7.11831e-06
-7.19487e-06
-7.29518e-06
-7.42169e-06
-7.5741e-06
-7.7518e-06
-7.95479e-06
-8.18281e-06
-8.43449e-06
-8.70761e-06
-8.99966e-06
-9.30813e-06
7.15595e-07
4.52745e-07
1.89612e-07
-7.47978e-08
-3.41878e-07
-6.12793e-07
-8.88463e-07
-1.16975e-06
-1.45758e-06
-1.75293e-06
-2.05681e-06
-2.37019e-06
-2.69402e-06
-3.02912e-06
-3.37608e-06
-3.73524e-06
-4.10648e-06
-4.48893e-06
-4.88129e-06
-5.28072e-06
-5.68317e-06
-6.08445e-06
-6.459e-06
-6.78178e-06
-7.05207e-06
-7.27621e-06
-7.46086e-06
-7.61377e-06
-7.74265e-06
-7.8546e-06
-7.95671e-06
-8.0545e-06
-8.15224e-06
-8.2564e-06
-8.37087e-06
-8.49837e-06
-8.63875e-06
-8.79262e-06
-8.96168e-06
-9.14718e-06
-9.34919e-06
-9.56703e-06
-9.79975e-06
-1.00463e-05
-1.03056e-05
1.37119e-06
1.07172e-06
7.70336e-07
4.66179e-07
1.58214e-07
-1.54418e-07
-4.72439e-07
-7.96561e-07
-1.12754e-06
-1.46615e-06
-1.81318e-06
-2.16941e-06
-2.53556e-06
-2.9123e-06
-3.30012e-06
-3.69929e-06
-4.10977e-06
-4.53104e-06
-4.96217e-06
-5.40126e-06
-5.84568e-06
-6.29237e-06
-6.7172e-06
-7.09446e-06
-7.42183e-06
-7.70477e-06
-7.94906e-06
-8.161e-06
-8.347e-06
-8.51304e-06
-8.66462e-06
-8.80626e-06
-8.94187e-06
-9.07598e-06
-9.21247e-06
-9.35279e-06
-9.49799e-06
-9.65001e-06
-9.81081e-06
-9.98149e-06
-1.01624e-05
-1.03537e-05
-1.05553e-05
-1.07669e-05
-1.09881e-05
1.84878e-06
1.51809e-06
1.18417e-06
8.46489e-07
5.04354e-07
1.57142e-07
-1.95709e-07
-5.54743e-07
-9.20522e-07
-1.29362e-06
-1.67462e-06
-2.0641e-06
-2.4626e-06
-2.8706e-06
-3.28844e-06
-3.71632e-06
-4.15418e-06
-4.60165e-06
-5.05799e-06
-5.5219e-06
-5.99146e-06
-6.4641e-06
-6.91724e-06
-7.32623e-06
-7.68832e-06
-8.00823e-06
-8.29098e-06
-8.54184e-06
-8.76606e-06
-8.96846e-06
-9.15321e-06
-9.32409e-06
-9.48514e-06
-9.63996e-06
-9.79097e-06
-9.94017e-06
-1.00897e-05
-1.02416e-05
-1.03974e-05
-1.05581e-05
-1.07245e-05
-1.08974e-05
-1.10771e-05
-1.12639e-05
-1.14578e-05
2.17861e-06
1.82183e-06
1.46108e-06
1.09604e-06
7.26237e-07
3.51245e-07
-2.93179e-08
-4.15807e-07
-8.08593e-07
-1.20806e-06
-1.6146e-06
-2.02859e-06
-2.45039e-06
-2.88029e-06
-3.3185e-06
-3.76508e-06
-4.21994e-06
-4.68272e-06
-5.15282e-06
-5.62918e-06
-6.11027e-06
-6.59396e-06
-7.05962e-06
-7.48438e-06
-7.86553e-06
-8.20721e-06
-8.51371e-06
-8.78937e-06
-9.03841e-06
-9.26484e-06
-9.47219e-06
-9.66351e-06
-9.84215e-06
-1.00114e-05
-1.01734e-05
-1.03303e-05
-1.04843e-05
-1.0637e-05
-1.07899e-05
-1.09443e-05
-1.11013e-05
-1.12618e-05
-1.14266e-05
-1.15961e-05
-1.17708e-05
2.39617e-06
2.0181e-06
1.63567e-06
1.2487e-06
8.56897e-07
4.60032e-07
5.79136e-08
-3.49634e-07
-7.62806e-07
-1.18181e-06
-1.60687e-06
-2.03817e-06
-2.47591e-06
-2.92018e-06
-3.37107e-06
-3.82851e-06
-4.29234e-06
-4.76217e-06
-5.23745e-06
-5.71726e-06
-6.20036e-06
-6.68498e-06
-7.15252e-06
-7.58239e-06
-7.97214e-06
-8.32534e-06
-8.64555e-06
-8.93632e-06
-9.20113e-06
-9.44333e-06
-9.66601e-06
-9.8718e-06
-1.0063e-05
-1.02429e-05
-1.04135e-05
-1.05768e-05
-1.07346e-05
-1.08887e-05
-1.10406e-05
-1.11916e-05
-1.1343e-05
-1.14958e-05
-1.1651e-05
-1.18093e-05
-1.19714e-05
2.53297e-06
2.13762e-06
1.73776e-06
1.33332e-06
9.24183e-07
5.10309e-07
9.16721e-08
-3.31749e-07
-7.59999e-07
-1.19313e-06
-1.6312e-06
-2.07424e-06
-2.52227e-06
-2.97527e-06
-3.43316e-06
-3.89577e-06
-4.36286e-06
-4.83401e-06
-5.30869e-06
-5.78606e-06
-6.26509e-06
-6.74423e-06
-7.20702e-06
-7.63539e-06
-8.02712e-06
-8.38517e-06
-8.71245e-06
-9.01191e-06
-9.28645e-06
-9.53886e-06
-9.77174e-06
-9.98819e-06
-1.01882e-05
-1.03762e-05
-1.05534e-05
-1.0722e-05
-1.08835e-05
-1.10397e-05
-1.1192e-05
-1.13419e-05
-1.14906e-05
-1.16393e-05
-1.17891e-05
-1.19408e-05
-1.20954e-05
2.61386e-06
2.20452e-06
1.79067e-06
1.37237e-06
9.4966e-07
5.22652e-07
9.14594e-08
-3.43811e-07
-7.83071e-07
-1.22623e-06
-1.67322e-06
-2.12391e-06
-2.57821e-06
-3.03595e-06
-3.49695e-06
-3.96094e-06
-4.42761e-06
-4.89648e-06
-5.36704e-06
-5.83849e-06
-6.30996e-06
-6.78006e-06
-7.23444e-06
-7.65752e-06
-8.04725e-06
-8.40599e-06
-8.73612e-06
-9.0401e-06
-9.32035e-06
-9.57917e-06
-9.81862e-06
-1.00407e-05
-1.0249e-05
-1.04433e-05
-1.06261e-05
-1.07991e-05
-1.09643e-05
-1.1123e-05
-1.12767e-05
-1.1427e-05
-1.15751e-05
-1.17222e-05
-1.18695e-05
-1.20181e-05
-1.21688e-05
2.65779e-06
2.23706e-06
1.81195e-06
1.38261e-06
9.4923e-07
5.12037e-07
7.12594e-08
-3.72886e-07
-8.20194e-07
-1.27046e-06
-1.72348e-06
-2.17903e-06
-2.63689e-06
-3.09679e-06
-3.55844e-06
-4.02149e-06
-4.48557e-06
-4.95015e-06
-5.41473e-06
-5.87851e-06
-6.34078e-06
-6.80022e-06
-7.24451e-06
-7.66037e-06
-8.04585e-06
-8.40279e-06
-8.73318e-06
-9.03906e-06
-9.32244e-06
-9.58528e-06
-9.82941e-06
-1.00566e-05
-1.02694e-05
-1.04686e-05
-1.06558e-05
-1.08328e-05
-1.10012e-05
-1.11626e-05
-1.13183e-05
-1.14699e-05
-1.16186e-05
-1.17658e-05
-1.19126e-05
-1.20601e-05
-1.22096e-05
2.67842e-06
2.24832e-06
1.81403e-06
1.37578e-06
9.33883e-07
4.88664e-07
4.04465e-08
-4.10459e-07
-8.63748e-07
-1.31911e-06
-1.77625e-06
-2.23484e-06
-2.69455e-06
-3.15504e-06
-3.61592e-06
-4.07678e-06
-4.53718e-06
-4.99656e-06
-5.4544e-06
-5.90993e-06
-6.3625e-06
-6.81089e-06
-7.24462e-06
-7.65247e-06
-8.03258e-06
-8.38637e-06
-8.71551e-06
-9.02168e-06
-9.30656e-06
-9.57181e-06
-9.81906e-06
-1.00499e-05
-1.0266e-05
-1.04688e-05
-1.06596e-05
-1.08399e-05
-1.10113e-05
-1.11752e-05
-1.13332e-05
-1.14865e-05
-1.16366e-05
-1.17847e-05
-1.19322e-05
-1.20801e-05
-1.22298e-05
2.6851e-06
2.24717e-06
1.80525e-06
1.35967e-06
9.10821e-07
4.59126e-07
4.98065e-09
-4.51221e-07
-9.09089e-07
-1.36823e-06
-1.82826e-06
-2.28876e-06
-2.74933e-06
-3.20953e-06
-3.66894e-06
-4.12704e-06
-4.58337e-06
-5.03732e-06
-5.48835e-06
-5.9357e-06
-6.37879e-06
-6.81646e-06
-7.23986e-06
-7.63962e-06
-8.01397e-06
-8.36399e-06
-8.69107e-06
-8.99659e-06
-9.28194e-06
-9.54853e-06
-9.79774e-06
-1.0031e-05
-1.02498e-05
-1.04553e-05
-1.0649e-05
-1.0832e-05
-1.1006e-05
-1.11723e-05
-1.13324e-05
-1.14876e-05
-1.16393e-05
-1.17889e-05
-1.19376e-05
-1.20867e-05
-1.22375e-05
2.68397e-06
2.23936e-06
1.79097e-06
1.33922e-06
8.84564e-07
4.27496e-07
-3.15171e-08
-4.92011e-07
-9.53523e-07
-1.41559e-06
-1.87773e-06
-2.33949e-06
-2.80037e-06
-3.25989e-06
-3.71753e-06
-4.17275e-06
-4.62502e-06
-5.07371e-06
-5.51825e-06
-5.9579e-06
-6.39211e-06
-6.81976e-06
-7.23347e-06
-7.62547e-06
-7.99409e-06
-8.34017e-06
-8.66482e-06
-8.96919e-06
-9.25439e-06
-9.52161e-06
-9.77203e-06
-1.00066e-05
-1.02277e-05
-1.04354e-05
-1.06314e-05
-1.08167e-05
-1.09928e-05
-1.11611e-05
-1.13231e-05
-1.14801e-05
-1.16335e-05
-1.17847e-05
-1.19349e-05
-1.20856e-05
-1.22379e-05
2.67886e-06
2.22848e-06
1.7745e-06
1.31744e-06
8.57815e-07
3.96173e-07
-6.69584e-08
-5.31052e-07
-9.9558e-07
-1.46001e-06
-1.92382e-06
-2.38647e-06
-2.8474e-06
-3.30608e-06
-3.76194e-06
-4.21438e-06
-4.66283e-06
-5.10664e-06
-5.54523e-06
-5.97782e-06
-6.40392e-06
-6.82243e-06
-7.22726e-06
-7.61205e-06
-7.97524e-06
-8.31747e-06
-8.63961e-06
-8.94258e-06
-9.22728e-06
-9.49472e-06
-9.74592e-06
-9.98182e-06
-1.02041e-05
-1.04134e-05
-1.06113e-05
-1.07984e-05
-1.09762e-05
-1.11463e-05
-1.131e-05
-1.14686e-05
-1.16236e-05
-1.17762e-05
-1.1928e-05
-1.20801e-05
-1.2234e-05
2.67211e-06
2.21664e-06
1.75777e-06
1.29605e-06
8.32095e-07
3.66472e-07
-1.00231e-07
-5.67431e-07
-1.03454e-06
-1.50099e-06
-1.96618e-06
-2.42951e-06
-2.89041e-06
-3.34825e-06
-3.80244e-06
-4.25233e-06
-4.69732e-06
-5.13672e-06
-5.56994e-06
-5.9962e-06
-6.41501e-06
-6.82531e-06
-7.22212e-06
-7.60035e-06
-7.95855e-06
-8.29716e-06
-8.61686e-06
-8.91835e-06
-9.20238e-06
-9.46978e-06
-9.72145e-06
-9.95829e-06
-1.01815e-05
-1.03919e-05
-1.05914e-05
-1.07798e-05
-1.09591e-05
-1.11306e-05
-1.12957e-05
-1.14556e-05
-1.16119e-05
-1.17659e-05
-1.19191e-05
-1.20727e-05
-1.22281e-05
2.66502e-06
2.20502e-06
1.74181e-06
1.27598e-06
8.08179e-07
3.39035e-07
-1.30823e-07
-6.00762e-07
-1.07015e-06
-1.53836e-06
-2.00475e-06
-2.46869e-06
-2.92952e-06
-3.38661e-06
-3.83929e-06
-4.28691e-06
-4.72882e-06
-5.16431e-06
-5.59275e-06
-6.01339e-06
-6.42573e-06
-6.82873e-06
-7.21838e-06
-7.59071e-06
-7.94439e-06
-8.27968e-06
-8.5971e-06
-8.89715e-06
-9.18043e-06
-9.44764e-06
-9.69958e-06
-9.93705e-06
-1.01608e-05
-1.03724e-05
-1.05729e-05
-1.07625e-05
-1.09428e-05
-1.11155e-05
-1.12817e-05
-1.14427e-05
-1.16001e-05
-1.17553e-05
-1.19096e-05
-1.20645e-05
-1.22213e-05
2.65829e-06
2.19425e-06
1.72715e-06
1.25765e-06
7.86421e-07
3.14133e-07
-1.58541e-07
-6.30927e-07
-1.10235e-06
-1.57214e-06
-2.03962e-06
-2.5041e-06
-2.9649e-06
-3.42133e-06
-3.87271e-06
-4.31834e-06
-4.75754e-06
-5.18958e-06
-5.61383e-06
-6.02952e-06
-6.43615e-06
-6.83269e-06
-7.216e-06
-7.58308e-06
-7.93272e-06
-8.26503e-06
-8.58036e-06
-8.87906e-06
-9.1616e-06
-9.42854e-06
-9.68062e-06
-9.91848e-06
-1.01426e-05
-1.03552e-05
-1.05564e-05
-1.07469e-05
-1.09282e-05
-1.11017e-05
-1.12688e-05
-1.14307e-05
-1.1589e-05
-1.17451e-05
-1.19003e-05
-1.20562e-05
-1.22142e-05
2.65223e-06
2.18458e-06
1.71402e-06
1.24124e-06
7.66948e-07
2.91851e-07
-1.83343e-07
-6.57922e-07
-1.13118e-06
-1.60239e-06
-2.07086e-06
-2.53585e-06
-2.99666e-06
-3.45255e-06
-3.90281e-06
-4.34672e-06
-4.78357e-06
-5.21261e-06
-5.63321e-06
-6.04457e-06
-6.4462e-06
-6.83708e-06
-7.21479e-06
-7.57724e-06
-7.92331e-06
-8.25298e-06
-8.56643e-06
-8.86391e-06
-9.14574e-06
-9.4124e-06
-9.66452e-06
-9.90262e-06
-1.01272e-05
-1.03405e-05
-1.05423e-05
-1.07335e-05
-1.09154e-05
-1.10896e-05
-1.12573e-05
-1.14199e-05
-1.15789e-05
-1.17357e-05
-1.18917e-05
-1.20485e-05
-1.22074e-05
2.64688e-06
2.17598e-06
1.7023e-06
1.22657e-06
7.49522e-07
2.71895e-07
-2.0557e-07
-6.82129e-07
-1.15704e-06
-1.62956e-06
-2.09894e-06
-2.56442e-06
-3.02527e-06
-3.48073e-06
-3.93005e-06
-4.37247e-06
-4.80728e-06
-5.23372e-06
-5.65111e-06
-6.05869e-06
-6.45593e-06
-6.8418e-06
-7.21454e-06
-7.57286e-06
-7.91577e-06
-8.24309e-06
-8.55487e-06
-8.85124e-06
-9.13244e-06
-9.39882e-06
-9.65094e-06
-9.88924e-06
-1.01141e-05
-1.03279e-05
-1.05302e-05
-1.07219e-05
-1.09043e-05
-1.1079e-05
-1.12473e-05
-1.14104e-05
-1.15699e-05
-1.17272e-05
-1.18838e-05