/*--------------------------------*- C++ -*----------------------------------*\
| =========                 |                                                 |
| \\      /  F ield         | OpenFOAM: The Open Source CFD Toolbox           |
|  \\    /   O peration     | Version:  2312                                  |
|   \\  /    A nd           | Website:  www.openfoam.com                      |
|    \\/     M anipulation  |                                                 |
\*---------------------------------------------------------------------------*/
FoamFile
{
    version     2.0;
    format      ascii;
    arch        "LSB;label=32;scalar=64";
    class       volVectorField;
    location    "107.5";
    object      U;
}
// * * * * * * * * * * * * * * * * * * * * * * * * * * * * * * * * * * * * * //

dimensions      [0 1 -1 0 0 0 0];

internalField   nonuniform List<vector> 
4800
(
(0.000481286 4.31396e-07 -3.4254e-26)
(0.00046996 4.91062e-07 -2.39375e-25)
(0.000462219 5.19938e-07 3.07652e-25)
(0.000457001 5.21528e-07 1.38719e-25)
(0.000453647 4.96584e-07 2.03093e-24)
(0.000451762 4.46216e-07 -4.82694e-24)
(0.000451071 3.85483e-07 4.47693e-24)
(0.000451592 2.94665e-07 -6.4288e-24)
(0.000453167 1.62226e-07 2.07799e-24)
(0.000455959 -9.72139e-08 6.97172e-24)
(0.000460366 -6.2101e-07 -2.15225e-24)
(0.000467707 -2.03147e-06 -1.89291e-25)
(0.000485085 -7.18788e-06 -2.58756e-24)
(0.000530332 -2.80046e-05 1.18338e-24)
(0.000606006 -9.18699e-05 -9.36322e-25)
(0.00148455 2.28918e-06 -1.08771e-25)
(0.0014501 1.84089e-06 1.3554e-25)
(0.00142644 1.48252e-06 -1.23639e-24)
(0.00141034 1.15851e-06 9.27894e-25)
(0.00139982 8.30571e-07 2.9265e-24)
(0.00139364 4.69062e-07 -4.65179e-24)
(0.00139096 4.95851e-08 -1.28857e-24)
(0.00139174 -5.04912e-07 -2.78069e-25)
(0.0013954 -1.27022e-06 1.05875e-23)
(0.00140259 -2.56194e-06 -7.82549e-24)
(0.00141438 -5.03585e-06 8.52951e-25)
(0.00143356 -1.08852e-05 1.28392e-24)
(0.00146879 -2.77052e-05 -1.8814e-24)
(0.00153082 -7.88621e-05 -5.48109e-25)
(0.00159837 -0.000194659 2.43643e-24)
(0.00259024 7.35907e-06 -7.77134e-26)
(0.00253111 5.87598e-06 7.94444e-26)
(0.00249034 4.7184e-06 8.08794e-25)
(0.00246241 3.70282e-06 -1.9209e-24)
(0.00244389 2.71118e-06 1.87309e-24)
(0.00243266 1.64897e-06 1.73885e-24)
(0.00242722 3.57349e-07 -4.50084e-24)
(0.00242739 -1.33087e-06 -2.71374e-24)
(0.00243202 -3.58801e-06 6.52415e-24)
(0.00244204 -7.23632e-06 2.4509e-24)
(0.00245862 -1.374e-05 -8.55139e-24)
(0.00248374 -2.69892e-05 -1.26117e-24)
(0.00252152 -5.65372e-05 3.63466e-24)
(0.00257063 -0.000121444 5.68393e-24)
(0.00260625 -0.000229835 -2.93051e-24)
(0.00380493 1.64652e-05 2.86761e-26)
(0.00371998 1.32227e-05 -1.99384e-25)
(0.0036611 1.06966e-05 8.84507e-25)
(0.00362044 8.49442e-06 9.32361e-25)
(0.00359309 6.36801e-06 -9.40401e-25)
(0.00357596 4.12542e-06 -5.32337e-24)
(0.00356685 1.4505e-06 -3.56902e-24)
(0.00356517 -2.0129e-06 1.3293e-23)
(0.00356937 -6.42309e-06 5.37972e-24)
(0.00357996 -1.33482e-05 -7.90212e-24)
(0.0035976 -2.47725e-05 -3.17691e-24)
(0.00362228 -4.50469e-05 -2.39985e-24)
(0.00365331 -8.2217e-05 7.8565e-26)
(0.00368344 -0.000146217 1.76423e-24)
(0.00369442 -0.000232303 8.60263e-27)
(0.00513342 3.05152e-05 -5.25473e-26)
(0.00502234 2.4614e-05 -3.21078e-25)
(0.00494482 2.00175e-05 -1.99152e-25)
(0.00489079 1.6036e-05 5.47286e-25)
(0.00485388 1.2238e-05 -1.52729e-24)
(0.00483001 8.30274e-06 3.80375e-24)
(0.00481626 3.73497e-06 -6.76198e-25)
(0.00481124 -1.91064e-06 2.29642e-24)
(0.00481343 -9.16718e-06 -1.27198e-23)
(0.0048222 -1.96226e-05 2.4077e-23)
(0.00483722 -3.55524e-05 -2.3294e-23)
(0.00485677 -6.03985e-05 1.22304e-23)
(0.00487746 -9.90734e-05 -1.13032e-23)
(0.00489149 -0.000154646 1.06465e-23)
(0.00488842 -0.000219652 -4.24376e-24)
(0.00657714 5.05794e-05 6.93831e-26)
(0.00644117 4.10105e-05 2.48296e-25)
(0.0063454 3.3543e-05 -1.30478e-24)
(0.00627791 2.71117e-05 -8.11156e-25)
(0.00623103 2.10541e-05 2.19649e-24)
(0.00619974 1.48941e-05 7.76963e-25)
(0.00618043 7.97312e-06 -6.0461e-24)
(0.00617087 -2.73907e-07 1.43652e-23)
(0.00616918 -1.05516e-05 -1.85827e-23)
(0.00617399 -2.44566e-05 4.47019e-24)
(0.00618367 -4.37275e-05 1.34154e-23)
(0.00619561 -7.05103e-05 -1.85628e-23)
(0.00620586 -0.000106735 9.28686e-24)
(0.00620855 -0.000151896 9.50096e-24)
(0.0061988 -0.000199822 -7.23341e-24)
(0.00813179 7.75643e-05 5.74523e-26)
(0.00797478 6.3332e-05 -3.39568e-25)
(0.00786275 5.21625e-05 1.21047e-24)
(0.00778274 4.25758e-05 -1.67223e-24)
(0.00772617 3.36512e-05 -5.61148e-24)
(0.00768723 2.47427e-05 9.56039e-24)
(0.00766174 1.50738e-05 -5.75353e-24)
(0.00764674 3.95044e-06 1.94311e-23)
(0.00763981 -9.32116e-06 -1.32261e-23)
(0.00763894 -2.60522e-05 -6.13263e-24)
(0.00764179 -4.73669e-05 -1.19709e-23)
(0.00764549 -7.40801e-05 1.10162e-23)
(0.00764673 -0.0001062 3.08969e-24)
(0.00764186 -0.00014197 2.6431e-24)
(0.00762918 -0.000177252 -2.32623e-24)
(0.00978466 0.000111735 -8.32379e-26)
(0.00961425 9.21006e-05 1.12606e-24)
(0.00949046 7.65151e-05 -2.6114e-24)
(0.00940057 6.31312e-05 -2.10571e-24)
(0.00933577 5.07861e-05 8.18116e-25)
(0.00928983 3.86756e-05 1.5657e-24)
(0.00925821 2.59625e-05 5.50389e-24)
(0.00923742 1.19045e-05 -1.48753e-23)
(0.0092246 -4.13532e-06 -7.82198e-24)
(0.00921731 -2.29643e-05 2.17194e-23)
(0.009213 -4.51226e-05 -6.67664e-24)
(0.00920905 -7.05351e-05 2.28376e-23)
(0.00920312 -9.83536e-05 -1.20144e-23)
(0.00919311 -0.000126806 -3.83185e-24)
(0.00917887 -0.000153394 2.27028e-24)
(0.0115128 0.000152057 -1.1148e-26)
(0.0113413 0.00012693 6.24953e-25)
(0.0112135 0.000106589 -8.8833e-25)
(0.0111187 8.90053e-05 2.10221e-24)
(0.0110489 7.28674e-05 -1.24546e-23)
(0.0109979 5.72672e-05 1.31252e-23)
(0.0109613 4.13724e-05 -2.04465e-23)
(0.0109353 2.44895e-05 1.26127e-23)
(0.0109169 6.1146e-06 9.29985e-24)
(0.0109036 -1.41215e-05 2.00274e-23)
(0.0108929 -3.62816e-05 -2.61418e-23)
(0.0108826 -5.98757e-05 -4.81888e-24)
(0.0108713 -8.39152e-05 2.22133e-24)
(0.0108578 -0.000107077 1.59164e-23)
(0.0108425 -0.000127952 -6.48007e-24)
(0.0132856 0.000195519 6.28119e-26)
(0.0131286 0.000165895 -2.66622e-25)
(0.0130076 0.00014116 1.17192e-24)
(0.0129154 0.000119459 -4.07833e-24)
(0.0128457 9.95167e-05 6.14962e-24)
(0.0127933 8.04349e-05 -7.87725e-24)
(0.0127542 6.14659e-05 1.31097e-23)
(0.0127249 4.20417e-05 2.24014e-24)
(0.0127025 2.18564e-05 -1.79193e-23)
(0.0126845 7.9157e-07 2.54013e-23)
(0.012669 -2.09073e-05 -2.79856e-23)
(0.0126544 -4.26774e-05 -8.2259e-24)
(0.0126396 -6.37229e-05 1.45077e-23)
(0.0126239 -8.32177e-05 4.31077e-24)
(0.012608 -0.000100428 -1.885e-24)
(0.0150747 0.000237161 2.67181e-25)
(0.0149468 0.000205213 -2.10652e-24)
(0.0148439 0.000177353 -3.2683e-24)
(0.0147628 0.000152305 7.80385e-24)
(0.0146996 0.000129082 3.42321e-24)
(0.0146508 0.000106953 -2.14887e-23)
(0.0146129 8.53475e-05 6.66745e-24)
(0.0145832 6.38772e-05 4.76634e-24)
(0.0145593 4.24055e-05 -2.0286e-23)
(0.0145392 2.09996e-05 2.11813e-23)
(0.0145213 -3.38493e-08 -1.68739e-23)
(0.0145045 -2.02349e-05 4.33729e-23)
(0.0144883 -3.90787e-05 -2.0864e-23)
(0.0144719 -5.61247e-05 1.22954e-23)
(0.0144561 -7.10387e-05 -3.35998e-24)
(0.0168714 0.00027198 -1.20925e-25)
(0.0167787 0.000240252 1.46694e-24)
(0.0167006 0.000211108 -2.78648e-24)
(0.0166369 0.000184058 -1.36624e-24)
(0.0165857 0.000158594 1.53498e-23)
(0.0165448 0.00013429 -2.30144e-24)
(0.016512 0.000110825 -2.70003e-23)
(0.0164853 8.80164e-05 3.13545e-23)
(0.0164629 6.58617e-05 -7.05861e-24)
(0.0164433 4.45068e-05 -2.42502e-23)
(0.0164257 2.4211e-05 2.58467e-23)
(0.016409 5.2726e-06 1.39533e-23)
(0.0163932 -1.20171e-05 -1.1696e-23)
(0.0163776 -2.74862e-05 -2.03429e-23)
(0.0163629 -4.10197e-05 1.71062e-24)
(0.0186958 0.000298463 1.93094e-26)
(0.0186322 0.000268384 -1.68228e-24)
(0.0185769 0.000239372 7.68394e-24)
(0.0185307 0.000211599 3.69307e-25)
(0.0184927 0.000185026 4.15645e-24)
(0.0184615 0.000159562 -1.51492e-23)
(0.0184356 0.000135142 1.2803e-23)
(0.0184138 0.000111761 2.85956e-24)
(0.018395 8.95065e-05 2.61302e-23)
(0.0183781 6.85219e-05 -4.04316e-23)
(0.0183626 4.89854e-05 -1.82834e-23)
(0.0183478 3.10486e-05 -1.2112e-23)
(0.0183339 1.48323e-05 2.27792e-23)
(0.0183202 3.54596e-07 -6.62501e-25)
(0.0183076 -1.23903e-05 2.21762e-24)
(0.0205749 0.000319628 -9.11516e-27)
(0.0205285 0.000291134 1.793e-24)
(0.0204883 0.000262602 -2.59643e-24)
(0.0204544 0.000234667 1.5671e-26)
(0.0204262 0.000207642 3.12783e-24)
(0.0204027 0.000181695 7.85715e-24)
(0.0203828 0.00015695 -3.04591e-23)
(0.0203656 0.000133515 2.62627e-24)
(0.0203504 0.000111504 1.54112e-23)
(0.0203364 9.10216e-05 -7.07308e-24)
(0.0203236 7.21589e-05 1.93248e-23)
(0.0203113 5.49568e-05 1.35633e-23)
(0.0202997 3.94234e-05 -2.45998e-23)
(0.0202884 2.55028e-05 1.68977e-23)
(0.0202779 1.31221e-05 -1.4051e-23)
(0.0225009 0.00033876 -4.06198e-25)
(0.0224651 0.000311619 -1.30166e-25)
(0.0224339 0.000283537 3.18227e-24)
(0.0224075 0.000255575 -1.5235e-23)
(0.0223853 0.000228333 1.33309e-23)
(0.0223666 0.000202177 -9.41333e-24)
(0.0223505 0.000177348 6.79087e-24)
(0.0223363 0.000154004 -4.74402e-23)
(0.0223237 0.000132252 6.84862e-23)
(0.022312 0.000112142 -4.02696e-23)
(0.0223012 9.36933e-05 3.59702e-23)
(0.0222908 7.68715e-05 3.01576e-23)
(0.0222812 6.16217e-05 -5.27112e-23)
(0.0222717 4.78426e-05 1.71806e-23)
(0.0222631 3.54337e-05 -7.23656e-25)
(0.0244148 0.000355548 -1.5857e-26)
(0.0243889 0.000330204 -9.17895e-25)
(0.0243657 0.000303022 9.3141e-25)
(0.0243457 0.000275433 -4.24713e-25)
(0.0243285 0.000248322 5.54595e-24)
(0.0243136 0.000222229 -9.41643e-24)
(0.0243007 0.000197488 8.61683e-24)
(0.024289 0.00017428 -2.69975e-23)
(0.0242785 0.000152698 6.12669e-23)
(0.0242687 0.000132754 -7.83021e-23)
(0.0242597 0.00011442 6.41313e-23)
(0.024251 9.76225e-05 -2.16625e-23)
(0.0242429 8.22759e-05 1.1368e-24)
(0.024235 6.82643e-05 5.01478e-24)
(0.0242278 5.54782e-05 -9.59249e-24)
(0.0262236 0.000368405 -1.3564e-24)
(0.0262079 0.000345146 1.65081e-24)
(0.0261931 0.00031946 3.88376e-25)
(0.0261797 0.000292862 -2.66149e-24)
(0.026168 0.000266412 9.52029e-24)
(0.0261574 0.000240791 -9.42666e-24)
(0.026148 0.000216403 -8.0167e-24)
(0.0261394 0.000193456 -1.9099e-23)
(0.0261315 0.000172037 9.96183e-24)
(0.026124 0.000152147 4.6401e-23)
(0.026117 0.000133739 -2.4461e-23)
(0.0261102 0.00011673 1.45769e-23)
(0.0261039 0.000101026 -5.98844e-24)
(0.0260976 8.65143e-05 -1.78316e-23)
(0.026092 7.3091e-05 9.1358e-24)
(0.0278104 0.00037662 4.41573e-25)
(0.0278039 0.000355635 -7.10679e-25)
(0.0277969 0.000331701 9.68542e-25)
(0.02779 0.000306482 -4.36494e-24)
(0.0277835 0.000281107 -2.08807e-24)
(0.0277775 0.000256314 1.58026e-23)
(0.0277719 0.000232538 -1.20702e-23)
(0.0277666 0.00021 -7.20106e-24)
(0.0277616 0.000188794 6.71369e-24)
(0.0277567 0.000168924 -7.60936e-24)
(0.027752 0.00015035 1.77872e-23)
(0.0277474 0.000132994 8.94682e-24)
(0.0277431 0.000116772 -3.34427e-23)
(0.0277387 0.000101587 2.30987e-23)
(0.0277348 8.73443e-05 -4.71128e-24)
(0.0290155 0.000377663 1.32667e-24)
(0.0290176 0.000359491 1.78071e-24)
(0.029018 0.00033796 -4.17928e-24)
(0.0290173 0.000314744 1.25998e-24)
(0.0290161 0.000291001 -1.30053e-24)
(0.0290146 0.000267485 -5.76818e-24)
(0.029013 0.000244657 -6.88684e-24)
(0.0290112 0.000222765 1.71865e-23)
(0.0290094 0.000201924 1.70171e-23)
(0.0290073 0.000182162 -4.1042e-23)
(0.0290053 0.000163459 2.33241e-23)
(0.029003 0.000145762 -1.61003e-24)
(0.0290008 0.000129006 -1.31815e-24)
(0.0289985 0.000113116 1.77109e-24)
(0.0289964 9.80197e-05 -8.15227e-25)
(0.0296199 0.00036943 -3.50739e-24)
(0.0296299 0.000354081 -6.93921e-24)
(0.0296376 0.000334982 4.60628e-24)
(0.0296434 0.000313922 1.12181e-23)
(0.029648 0.000292057 -2.9136e-24)
(0.0296518 0.000270099 3.43842e-25)
(0.0296549 0.000248486 -5.46261e-25)
(0.0296575 0.000227472 -9.76902e-24)
(0.0296596 0.000207188 2.34596e-23)
(0.0296612 0.000187685 -9.92099e-24)
(0.0296624 0.000168971 4.74447e-24)
(0.0296633 0.000151024 -7.87905e-24)
(0.029664 0.000133807 -8.55132e-24)
(0.0296644 0.000117274 1.26919e-23)
(0.0296647 0.000101379 -5.50522e-24)
(0.0294204 0.000355911 5.52647e-24)
(0.0294351 0.000342659 -1.26323e-23)
(0.0294475 0.000325762 2.14246e-24)
(0.0294579 0.000306809 1.74971e-23)
(0.0294669 0.000286832 -1.6661e-23)
(0.0294748 0.000266468 5.43495e-24)
(0.0294817 0.000246117 2.32633e-24)
(0.0294879 0.00022602 -4.8894e-24)
(0.0294933 0.00020632 3.04e-24)
(0.0294981 0.000187089 -1.34278e-24)
(0.0295023 0.000168363 -2.12576e-24)
(0.029506 0.000150151 3.34109e-24)
(0.0295093 0.000132448 -3.8907e-24)
(0.0295123 0.000115234 2.50089e-24)
(0.0295149 9.84882e-05 -1.13904e-24)
(0.0284646 0.000334139 3.42148e-24)
(0.028488 0.000322442 -7.26084e-24)
(0.0285081 0.000307509 -5.13998e-24)
(0.0285254 0.000290604 2.41092e-23)
(0.0285403 0.000272594 -2.23188e-23)
(0.0285532 0.000254019 2.3513e-24)
(0.0285645 0.000235224 3.78704e-24)
(0.0285744 0.000216422 2.06245e-24)
(0.028583 0.00019775 1.61796e-24)
(0.0285905 0.000179292 -7.32011e-24)
(0.028597 0.000161104 4.72492e-24)
(0.0286027 0.000143215 7.52367e-25)
(0.0286075 0.000125644 -1.89232e-24)
(0.0286117 0.000108393 1.0236e-24)
(0.0286153 9.14641e-05 6.4668e-25)
(0.0268927 0.000305136 8.53068e-24)
(0.02692 0.000294616 -1.52913e-23)
(0.0269446 0.000281336 3.08595e-24)
(0.0269664 0.000266297 -8.02022e-24)
(0.0269859 0.000250195 -1.0877e-23)
(0.0270035 0.000233463 3.60421e-23)
(0.0270192 0.000216381 -1.42738e-23)
(0.0270334 0.000199128 4.15562e-24)
(0.0270462 0.000181831 -2.34577e-24)
(0.0270577 0.000164574 -6.0263e-24)
(0.027068 0.000147422 1.12866e-23)
(0.0270774 0.000130416 -6.07741e-24)
(0.0270857 0.000113589 8.61882e-25)
(0.0270932 9.69592e-05 6.47053e-25)
(0.0270998 8.05451e-05 -3.86953e-26)
(0.0250039 0.000276463 3.29137e-24)
(0.0250359 0.000266828 -1.74221e-23)
(0.025065 0.000254866 3.08923e-23)
(0.0250913 0.000241352 -2.41487e-23)
(0.0251152 0.000226828 2.52332e-23)
(0.0251369 0.000211632 -8.09866e-24)
(0.0251566 0.000195993 -5.84778e-24)
(0.0251745 0.000180068 -6.86297e-24)
(0.0251908 0.000163974 1.28419e-23)
(0.0252056 0.000147798 -2.70904e-26)
(0.025219 0.000131611 -1.27997e-23)
(0.0252311 0.000115462 -1.74925e-24)
(0.0252421 9.93939e-05 3.08261e-24)
(0.025252 8.34378e-05 -6.5962e-25)
(0.0252608 6.76197e-05 1.36473e-25)
(0.0229404 0.000245595 4.38919e-25)
(0.0229774 0.000236743 -6.61454e-24)
(0.0230115 0.000225937 -4.05624e-24)
(0.0230426 0.000213768 3.20142e-23)
(0.023071 0.000200652 -3.22153e-23)
(0.023097 0.000186859 9.5985e-24)
(0.0231207 0.000172582 1.70252e-24)
(0.0231423 0.000157963 -9.37819e-25)
(0.0231621 0.000143113 -4.70721e-24)
(0.0231801 0.000128119 2.1013e-23)
(0.0231964 0.000113051 -1.69799e-23)
(0.0232112 9.79632e-05 -8.88317e-25)
(0.0232245 8.29011e-05 1.5768e-24)
(0.0232365 6.78995e-05 1.4567e-24)
(0.0232471 5.29886e-05 -1.14461e-24)
(0.0208123 0.000212859 6.54361e-25)
(0.020854 0.000204792 6.20363e-24)
(0.0208925 0.000195101 -7.0829e-24)
(0.0209277 0.000184239 -5.25472e-24)
(0.0209601 0.000172522 3.45367e-23)
(0.0209898 0.000160169 -2.641e-23)
(0.0210169 0.000147343 -4.85144e-25)
(0.0210417 0.000134171 -6.0121e-24)
(0.0210643 0.000120752 -6.11749e-25)
(0.0210849 0.000107167 8.33433e-25)
(0.0211035 9.34797e-05 -3.91487e-24)
(0.0211203 7.97445e-05 2.93652e-24)
(0.0211352 6.60059e-05 1.00553e-24)
(0.0211485 5.23078e-05 9.90067e-25)
(0.0211601 3.86862e-05 1.30636e-24)
(0.018695 0.000179698 4.66881e-24)
(0.0187399 0.000172489 -7.23648e-24)
(0.0187815 0.000163953 -6.24336e-24)
(0.0188196 0.000154443 1.9138e-23)
(0.0188547 0.000144194 -6.83882e-24)
(0.0188868 0.000133377 -1.0415e-23)
(0.0189161 0.000122129 3.56651e-24)
(0.0189429 0.000110556 8.8109e-24)
(0.0189673 9.87442e-05 -1.46377e-23)
(0.0189892 8.67654e-05 1.50224e-23)
(0.019009 7.46791e-05 -8.38098e-24)
(0.0190266 6.25372e-05 3.79335e-24)
(0.019042 5.03896e-05 -5.41078e-24)
(0.0190555 3.82749e-05 5.56021e-24)
(0.0190669 2.62414e-05 -1.42054e-24)
(0.0166354 0.000147683 -9.06587e-25)
(0.0166818 0.000141426 -3.28789e-24)
(0.0167246 0.000134111 -1.08922e-23)
(0.016764 0.000126011 3.04802e-23)
(0.0168001 0.00011729 -5.21496e-24)
(0.0168332 0.00010808 -9.03284e-24)
(0.0168633 9.84897e-05 3.43886e-24)
(0.0168907 8.86104e-05 -4.93245e-24)
(0.0169153 7.85154e-05 -1.16054e-23)
(0.0169375 6.82671e-05 1.11174e-23)
(0.016957 5.7921e-05 5.36783e-25)
(0.0169742 4.75252e-05 -4.24138e-24)
(0.016989 3.71279e-05 4.81019e-24)
(0.0170015 2.67669e-05 3.53111e-25)
(0.0170116 1.64825e-05 -4.36523e-25)
(0.0146616 0.000118168 3.48872e-24)
(0.0147075 0.000112924 5.42853e-24)
(0.0147498 0.000106863 -4.79184e-24)
(0.0147888 0.000100185 -1.14009e-23)
(0.0148244 9.29954e-05 1.58929e-23)
(0.014857 8.53943e-05 -1.79841e-23)
(0.0148866 7.74716e-05 -1.09667e-24)
(0.0149132 6.93015e-05 7.27386e-24)
(0.0149371 6.09463e-05 2.6732e-24)
(0.0149582 5.24592e-05 -6.11652e-24)
(0.0149767 4.38899e-05 -3.70829e-25)
(0.0149925 3.52823e-05 1.36317e-23)
(0.0150057 2.66788e-05 -5.26613e-24)
(0.0150164 1.81204e-05 -1.46486e-24)
(0.0150246 9.64423e-06 -1.01623e-25)
(0.01279 9.20599e-05 -3.62293e-24)
(0.0128337 8.78309e-05 4.69336e-24)
(0.0128741 8.29962e-05 5.92502e-25)
(0.0129113 7.76843e-05 1.04852e-23)
(0.0129453 7.19556e-05 -8.36207e-24)
(0.0129762 6.58916e-05 8.8449e-25)
(0.0130042 5.95643e-05 -8.16639e-25)
(0.0130292 5.30334e-05 -2.93138e-24)
(0.0130514 4.63494e-05 2.91547e-24)
(0.0130708 3.95573e-05 -9.45033e-24)
(0.0130875 3.26997e-05 4.11931e-25)
(0.0131015 2.5814e-05 2.27808e-24)
(0.0131128 1.89403e-05 1.55093e-24)
(0.0131215 1.21117e-05 6.60739e-25)
(0.0131276 5.35461e-06 2.76844e-25)
(0.0110301 6.97807e-05 2.68247e-24)
(0.0110706 6.65074e-05 -2.10132e-24)
(0.011108 6.28071e-05 -9.92609e-24)
(0.0111424 5.87376e-05 9.33738e-24)
(0.0111739 5.43366e-05 1.39733e-23)
(0.0112024 4.96708e-05 -3.14897e-24)
(0.0112281 4.47964e-05 -7.35219e-24)
(0.011251 3.9759e-05 -1.12359e-23)
(0.0112711 3.4599e-05 8.64772e-24)
(0.0112885 2.93529e-05 6.13796e-25)
(0.0113032 2.40554e-05 -2.14436e-24)
(0.0113152 1.87387e-05 -6.76652e-25)
(0.0113246 1.34337e-05 1.36705e-24)
(0.0113314 8.17041e-06 -1.70235e-26)
(0.0113356 2.96603e-06 -3.15098e-25)
(0.00938752 5.13569e-05 -1.68752e-24)
(0.00942396 4.89328e-05 -1.29483e-24)
(0.0094577 4.6223e-05 1.45862e-24)
(0.00948876 4.32267e-05 -5.17152e-24)
(0.00951715 3.99753e-05 1.71325e-23)
(0.00954289 3.65219e-05 -2.35188e-23)
(0.00956599 3.29075e-05 2.38484e-23)
(0.00958648 2.91665e-05 -1.03147e-23)
(0.00960437 2.53296e-05 2.57487e-24)
(0.00961968 2.14258e-05 1.86907e-25)
(0.00963244 1.74816e-05 -2.04438e-24)
(0.00964268 1.35232e-05 8.77708e-25)
(0.00965041 9.57383e-06 -1.80577e-24)
(0.00965568 5.65973e-06 -2.75904e-25)
(0.00965851 1.79894e-06 1.46502e-25)
(0.00786485 3.65512e-05 -8.19646e-25)
(0.00789681 3.48407e-05 1.90679e-25)
(0.00792651 3.29484e-05 4.64606e-25)
(0.00795391 3.0835e-05 -2.33615e-24)
(0.00797897 2.85339e-05 -1.17739e-24)
(0.00800169 2.60841e-05 9.62234e-24)
(0.00802208 2.35138e-05 -5.73389e-24)
(0.00804011 2.0848e-05 8.96657e-25)
(0.0080558 1.81094e-05 -8.52715e-25)
(0.00806916 1.53197e-05 -1.01092e-24)
(0.00808018 1.24986e-05 -3.60806e-25)
(0.0080889 9.66595e-06 2.11147e-24)
(0.00809533 6.83931e-06 6.82861e-25)
(0.00809952 4.03707e-06 -1.38834e-24)
(0.00810147 1.27933e-06 -2.42466e-25)
(0.00646234 2.49817e-05 -2.97949e-25)
(0.00648964 2.38389e-05 -1.10739e-25)
(0.00651514 2.25853e-05 -5.11656e-24)
(0.00653872 2.11657e-05 1.211e-24)
(0.00656035 1.96157e-05 -4.07705e-24)
(0.00658 1.79604e-05 2.53206e-24)
(0.00659764 1.62183e-05 5.35969e-24)
(0.00661325 1.44067e-05 4.33746e-24)
(0.00662682 1.25418e-05 -6.24373e-24)
(0.00663836 1.06389e-05 1.89218e-24)
(0.00664785 8.71197e-06 1.77844e-24)
(0.00665531 6.77531e-06 -2.7234e-24)
(0.00666076 4.84144e-06 1.46403e-24)
(0.00666424 2.92195e-06 -1.65856e-25)
(0.00666574 1.03695e-06 4.52281e-25)
(0.00517821 1.62094e-05 -1.16652e-24)
(0.00520084 1.54934e-05 -1.68086e-24)
(0.0052221 1.4713e-05 -3.97988e-25)
(0.00524184 1.3815e-05 4.24878e-24)
(0.00526001 1.28322e-05 -3.15764e-24)
(0.00527657 1.17782e-05 -7.22701e-25)
(0.00529147 1.06648e-05 5.40784e-24)
(0.0053047 9.50334e-06 1.14788e-25)
(0.00531622 8.3044e-06 -1.10238e-24)
(0.00532604 7.0783e-06 -4.59926e-24)
(0.00533414 5.83441e-06 3.70354e-25)
(0.00534053 4.58254e-06 3.42809e-24)
(0.00534521 3.33108e-06 -4.51085e-25)
(0.00534822 2.08718e-06 -5.78196e-25)
(0.00534954 8.57035e-07 3.95834e-25)
(0.00400891 9.79043e-06 -2.54864e-25)
(0.00402696 9.37602e-06 8.02424e-27)
(0.00404404 8.92759e-06 2.01458e-24)
(0.00405996 8.4029e-06 1.45351e-24)
(0.00407468 7.82765e-06 -8.85582e-25)
(0.00408816 7.20739e-06 -2.46363e-24)
(0.00410034 6.54914e-06 1.06746e-24)
(0.00411119 5.85976e-06 -4.63886e-24)
(0.0041207 5.14569e-06 3.60107e-24)
(0.00412884 4.41338e-06 2.02112e-24)
(0.0041356 3.66865e-06 9.80336e-26)
(0.00414099 2.9178e-06 -2.34798e-24)
(0.00414499 2.16613e-06 4.63639e-25)
(0.00414765 1.41828e-06 -3.87941e-25)
(0.00414893 6.72785e-07 2.03172e-25)
(0.00294943 5.30421e-06 -4.69121e-25)
(0.00296305 5.08679e-06 -3.68947e-27)
(0.00297605 4.85603e-06 1.60553e-24)
(0.00298822 4.58265e-06 -1.00894e-24)
(0.00299953 4.28255e-06 4.44565e-24)
(0.00300994 3.95701e-06 -8.2147e-24)
(0.00301939 3.60979e-06 6.94123e-24)
(0.00302787 3.2446e-06 -6.0071e-24)
(0.00303534 2.86494e-06 4.48314e-24)
(0.00304179 2.47443e-06 -3.00563e-24)
(0.0030472 2.07629e-06 1.05399e-24)
(0.00305157 1.67415e-06 1.62006e-25)
(0.00305489 1.27104e-06 2.96628e-25)
(0.00305718 8.70056e-07 -3.74857e-25)
(0.00305843 4.6983e-07 8.38525e-26)
(0.00199362 2.38133e-06 7.11653e-25)
(0.00200303 2.28084e-06 8.11184e-25)
(0.00201209 2.18054e-06 -3.43595e-24)
(0.0020206 2.06188e-06 2.56617e-24)
(0.00202856 1.93176e-06 -4.87811e-27)
(0.00203592 1.79004e-06 7.45342e-25)
(0.00204265 1.63846e-06 -8.64209e-25)
(0.00204873 1.47871e-06 -1.97013e-24)
(0.00205413 1.3124e-06 1.99947e-24)
(0.00205883 1.14123e-06 2.53006e-25)
(0.00206281 9.66662e-07 -1.77204e-24)
(0.00206608 7.90467e-07 6.32084e-25)
(0.00206863 6.14028e-07 4.20337e-25)
(0.00207047 4.39263e-07 -4.68861e-26)
(0.00207158 2.64996e-07 -5.63584e-26)
(0.0011346 7.40459e-07 -7.18008e-25)
(0.00114004 7.11511e-07 2.23693e-24)
(0.00114531 6.86899e-07 1.43034e-24)
(0.00115029 6.55713e-07 -2.48018e-24)
(0.00115498 6.19612e-07 -2.95533e-25)
(0.00115934 5.78686e-07 -2.80303e-25)
(0.00116336 5.33721e-07 9.02834e-25)
(0.00116702 4.85454e-07 -1.55766e-24)
(0.0011703 4.34532e-07 2.22266e-24)
(0.00117317 3.81645e-07 -1.08569e-24)
(0.00117565 3.27354e-07 -7.69979e-25)
(0.00117771 2.72345e-07 4.83728e-25)
(0.00117935 2.17051e-07 -6.43512e-25)
(0.00118059 1.62461e-07 6.65075e-25)
(0.0011814 1.07525e-07 -1.22165e-25)
(0.000365063 1.34397e-07 -5.12525e-27)
(0.000366773 1.67936e-07 4.38375e-25)
(0.000368455 1.96268e-07 5.29324e-25)
(0.000370058 2.16425e-07 -8.05456e-25)
(0.000371585 2.29114e-07 1.79472e-24)
(0.000373022 2.3482e-07 -1.94047e-24)
(0.000374359 2.34068e-07 1.37018e-25)
(0.000375588 2.27302e-07 1.19794e-24)
(0.000376702 2.14893e-07 -1.66071e-24)
(0.000377693 1.97195e-07 -3.40287e-25)
(0.000378557 1.74516e-07 1.27273e-24)
(0.000379291 1.47193e-07 -5.73942e-25)
(0.000379892 1.15451e-07 -2.41712e-25)
(0.000380363 7.97812e-08 2.06155e-25)
(0.000380695 3.98943e-08 -1.01149e-26)
(0.000898162 -0.000243352 9.23355e-26)
(0.00102569 -0.000169133 2.42697e-24)
(0.00124052 -9.09336e-05 -7.06816e-24)
(0.00145968 -2.6116e-05 1.04524e-23)
(0.00166986 2.71984e-05 -3.92339e-24)
(0.00187627 6.98938e-05 -3.89669e-24)
(0.00207934 0.000104262 4.48505e-24)
(0.00228018 0.000132142 -9.00211e-24)
(0.00247985 0.00015497 5.0706e-25)
(0.00267914 0.000173871 5.76638e-24)
(0.00287867 0.000189749 -1.12339e-24)
(0.00307897 0.000203405 1.23658e-24)
(0.00328057 0.000215605 -1.08824e-25)
(0.00348416 0.000227012 8.37225e-25)
(0.00369088 0.00023819 -3.09179e-24)
(0.00390231 0.000249695 1.71703e-24)
(0.00412066 0.000261806 -5.87667e-25)
(0.00434907 0.000274298 1.72519e-26)
(0.00459207 0.000286132 1.49151e-24)
(0.00485535 0.000294976 -9.48314e-25)
(0.00514584 0.000295622 1.21223e-25)
(0.00546877 0.000279393 -1.05767e-25)
(0.00579817 0.000234721 1.92161e-25)
(0.0060907 0.000161627 7.03974e-25)
(0.00633177 6.77622e-05 -1.26689e-24)
(0.00652064 -4.04294e-05 -7.9691e-25)
(0.00665888 -0.0001584 6.76014e-26)
(0.0067495 -0.000282287 1.91427e-24)
(0.00679504 -0.000408139 2.42919e-24)
(0.00679718 -0.000532158 -4.7436e-24)
(0.00675712 -0.000650375 3.55842e-24)
(0.00667589 -0.000758232 -2.90477e-24)
(0.00655466 -0.000850436 5.91019e-25)
(0.00639487 -0.000920949 -1.0112e-24)
(0.00619831 -0.000963002 9.5321e-25)
(0.00596707 -0.000969028 8.00413e-24)
(0.00570339 -0.000930388 -2.02792e-24)
(0.00540966 -0.000836637 2.26151e-24)
(0.00508845 -0.000674158 1.27021e-24)
(0.00474305 -0.000424463 -1.24757e-23)
(0.0043766 -6.50626e-05 -1.53859e-25)
(0.00399347 0.000420415 5.40379e-24)
(0.00358158 0.00100669 1.84604e-24)
(0.00315745 0.00157826 -7.68706e-24)
(0.00291572 0.00176518 -3.93315e-25)
(0.00168797 -0.000320641 -2.745e-24)
(0.00173937 -0.0002792 -3.9803e-24)
(0.00186967 -0.00020358 8.28388e-24)
(0.00203439 -0.000131583 4.00586e-24)
(0.00220966 -6.83021e-05 -1.40312e-23)
(0.00239123 -1.55942e-05 1.51623e-23)
(0.00257559 2.77772e-05 -5.45938e-24)
(0.0027615 6.357e-05 4.48227e-24)
(0.00294875 9.3329e-05 -5.91808e-24)
(0.00313742 0.00011833 5.8099e-26)
(0.0033277 0.000139606 -3.28598e-24)
(0.00351989 0.000158054 6.55358e-24)
(0.00371438 0.000174499 -3.68949e-24)
(0.00391174 0.000189616 -3.51648e-24)
(0.00411303 0.000203972 -2.56524e-24)
(0.00431974 0.000218128 4.54128e-24)
(0.00453392 0.000232353 -6.68597e-25)
(0.00475849 0.000246388 2.68987e-24)
(0.00499773 0.000259184 5.011e-25)
(0.0052569 0.00026845 -8.5077e-25)
(0.00554253 0.000269174 -3.70633e-25)
(0.00585957 0.000253128 -2.21087e-25)
(0.00618281 0.000209412 1.04744e-24)
(0.00647033 0.000138464 1.18955e-24)
(0.00670807 4.78706e-05 -1.14267e-24)
(0.00689518 -5.60754e-05 -4.97584e-24)
(0.00703296 -0.000168977 6.53633e-24)
(0.0071242 -0.000287025 -4.37875e-24)
(0.00717132 -0.000406187 1.45198e-24)
(0.00717603 -0.000522547 -7.34001e-25)
(0.00713965 -0.000632054 5.12206e-24)
(0.0070635 -0.000730123 -5.87547e-24)
(0.00694909 -0.000811482 1.61151e-24)
(0.00679838 -0.000870158 4.83658e-24)
(0.00661384 -0.000899464 -9.71827e-24)
(0.00639848 -0.000891933 2.75741e-24)
(0.00615595 -0.00083905 1.46964e-23)
(0.00589068 -0.000730635 -3.91026e-24)
(0.00560855 -0.000553694 -1.20721e-23)
(0.00531839 -0.000290847 -7.43181e-24)
(0.00503354 7.91993e-05 1.6978e-23)
(0.00477679 0.000572856 -1.65918e-23)
(0.00457285 0.00116515 -4.07487e-24)
(0.00446247 0.00172878 1.09683e-23)
(0.00449541 0.00185513 3.82753e-24)
(0.00262044 -0.000326375 -3.14838e-26)
(0.00262514 -0.000323421 -4.50412e-24)
(0.0026777 -0.000278461 8.82887e-24)
(0.00277895 -0.000216455 7.69677e-24)
(0.00290577 -0.000153755 -1.24877e-23)
(0.00304982 -9.69514e-05 2.45942e-25)
(0.00320464 -4.78557e-05 1.23933e-24)
(0.00336668 -5.98707e-06 1.37401e-23)
(0.00353404 2.96664e-05 -1.63176e-23)
(0.00370573 6.01795e-05 1.02363e-23)
(0.00388128 8.65255e-05 3.26687e-24)
(0.00406058 0.000109588 -1.75882e-23)
(0.00424373 0.000130194 6.37589e-24)
(0.0044311 0.000148996 2.66219e-24)
(0.0046236 0.000166534 -5.81548e-24)
(0.00482258 0.000183369 9.72292e-24)
(0.0050299 0.00019975 -7.08728e-24)
(0.00524824 0.000215375 -2.4893e-25)
(0.00548156 0.000229181 5.32547e-25)
(0.00573469 0.000238924 6.47865e-25)
(0.00601369 0.000239786 8.53151e-26)
(0.00632315 0.000223987 3.9909e-25)
(0.00663865 0.000181306 -1.05057e-24)
(0.00691978 0.000112593 3.06619e-24)
(0.00715303 2.53864e-05 -4.67128e-24)
(0.00733741 -7.4153e-05 2.65474e-24)
(0.00747397 -0.000181777 -5.64983e-24)
(0.00756522 -0.000293741 7.57752e-24)
(0.0076135 -0.000405928 -6.34733e-24)
(0.00762054 -0.000514302 7.74363e-25)
(0.00758784 -0.000614734 8.4929e-25)
(0.00751697 -0.000702624 6.92958e-24)
(0.00740989 -0.000772752 -1.97526e-24)
(0.00726909 -0.000819269 2.58525e-24)
(0.00709776 -0.000835692 -9.00472e-24)
(0.00689994 -0.000814861 1.74495e-23)
(0.00668068 -0.000748768 -1.23818e-23)
(0.0064465 -0.000628167 1.93874e-23)
(0.00620635 -0.000441939 -3.73864e-23)
(0.0059737 -0.000176354 1.43105e-23)
(0.00576904 0.000183662 5.06583e-24)
(0.00562453 0.000645673 8.22273e-24)
(0.00557679 0.00117708 -1.0248e-23)
(0.00565039 0.00165139 3.19034e-24)
(0.0058208 0.00174709 -1.9929e-24)
(0.0036808 -0.000307094 -1.1807e-24)
(0.0036585 -0.000328178 -1.84043e-24)
(0.00366316 -0.000310641 -7.94822e-24)
(0.00370349 -0.000271215 2.04067e-24)
(0.00377758 -0.00021906 1.36444e-24)
(0.00387587 -0.000165792 6.46642e-24)
(0.00399203 -0.000116182 -1.39096e-23)
(0.00412144 -7.16725e-05 5.21478e-24)
(0.00426094 -3.23777e-05 1.8077e-23)
(0.00440851 2.15147e-06 -4.74713e-24)
(0.00456295 3.25538e-05 -4.58979e-24)
(0.00472361 5.95328e-05 -7.49923e-25)
(0.00489024 8.3817e-05 2.55472e-24)
(0.00506293 0.000105964 -5.10009e-24)
(0.00524241 0.000126436 1.13343e-24)
(0.00542983 0.000145776 -5.28302e-25)
(0.00562682 0.000164195 -2.94333e-24)
(0.0058358 0.000181329 9.22463e-25)
(0.00606039 0.000196095 5.32134e-24)
(0.00630495 0.000206292 -5.90747e-25)
(0.006575 0.000207302 -1.26386e-24)
(0.00687469 0.0001918 -3.46447e-25)
(0.0071804 0.000150254 -1.85409e-24)
(0.00745337 8.39142e-05 -1.75197e-26)
(0.00768057 2.71802e-07 -4.01718e-24)
(0.0078609 -9.46254e-05 7.10053e-24)
(0.00799509 -0.000196683 -5.6806e-24)
(0.00808545 -0.000302239 1.07628e-23)
(0.0081342 -0.000407098 -8.75165e-24)
(0.00814312 -0.00050711 2.13498e-24)
(0.00811388 -0.000598099 3.16911e-24)
(0.0080484 -0.00067549 -2.28078e-25)
(0.00794905 -0.000734186 -3.86242e-25)
(0.0078189 -0.00076857 -1.10575e-24)
(0.0076619 -0.000772538 1.17672e-24)
(0.00748306 -0.00073951 -5.60524e-24)
(0.00728874 -0.000662416 2.70471e-23)
(0.00708723 -0.000533616 -1.42945e-23)
(0.00688966 -0.000344907 -3.79193e-25)
(0.00671205 -8.78281e-05 -3.41995e-23)
(0.00657691 0.000244182 2.60097e-23)
(0.00651545 0.000648049 -9.92309e-24)
(0.00655969 0.00108862 1.95965e-24)
(0.00671689 0.00146737 1.33973e-23)
(0.00694643 0.00159231 -3.52415e-24)
(0.00486619 -0.000277372 -4.90541e-24)
(0.00483338 -0.000308786 1.00675e-23)
(0.00481019 -0.000309539 2.90349e-24)
(0.00481024 -0.000292189 1.2664e-23)
(0.00483496 -0.000257898 -3.12197e-23)
(0.0048866 -0.00021469 -9.5705e-25)
(0.00495949 -0.000170383 1.53023e-24)