/*--------------------------------*- C++ -*----------------------------------*\
| =========                 |                                                 |
| \\      /  F ield         | OpenFOAM: The Open Source CFD Toolbox           |
|  \\    /   O peration     | Version:  2312                                  |
|   \\  /    A nd           | Website:  www.openfoam.com                      |
|    \\/     M anipulation  |                                                 |
\*---------------------------------------------------------------------------*/
FoamFile
{
    version     2.0;
    format      ascii;
    arch        "LSB;label=32;scalar=64";
    class       volVectorField;
    location    "14.5";
    object      U;
}
// * * * * * * * * * * * * * * * * * * * * * * * * * * * * * * * * * * * * * //

dimensions      [0 1 -1 0 0 0 0];

internalField   nonuniform List<vector> 
4800
(
(0.00046522 3.14804e-07 -2.68976e-26)
(0.000457509 3.45275e-07 -1.89042e-25)
(0.000452858 3.56875e-07 2.4264e-25)
(0.000450247 3.4752e-07 1.10967e-25)
(0.000449072 3.29269e-07 1.63867e-24)
(0.000449077 2.96752e-07 -3.90244e-24)
(0.000450015 2.56826e-07 3.65525e-24)
(0.000451788 1.80363e-07 -5.30651e-24)
(0.000454478 2.43259e-08 1.70144e-24)
(0.000458266 -2.4124e-07 5.80582e-24)
(0.000463559 -7.54546e-07 -1.7891e-24)
(0.000471642 -2.16257e-06 -1.51499e-25)
(0.00048974 -7.34636e-06 -2.18313e-24)
(0.000535744 -2.8279e-05 1.01568e-24)
(0.000611774 -9.19138e-05 -8.07514e-25)
(0.00143851 1.64349e-06 -8.55738e-26)
(0.00141494 1.19019e-06 1.06656e-25)
(0.00140048 8.28854e-07 -9.83234e-25)
(0.0013921 5.01637e-07 7.34744e-25)
(0.00138799 1.8396e-07 2.3602e-24)
(0.00138735 -1.61149e-07 -3.74709e-24)
(0.00138936 -5.58136e-07 -1.07025e-24)
(0.00139377 -1.08515e-06 -2.56154e-25)
(0.00140081 -1.91221e-06 8.81559e-24)
(0.0014109 -3.2418e-06 -6.51366e-24)
(0.00142524 -5.71462e-06 7.09033e-25)
(0.00144657 -1.15751e-05 1.08146e-24)
(0.00148376 -2.84863e-05 -1.59975e-24)
(0.0015475 -7.99679e-05 -4.84479e-25)
(0.00161613 -0.000195921 2.09258e-24)
(0.00251435 5.28373e-06 -6.12628e-26)
(0.00247378 3.81984e-06 6.26001e-26)
(0.00244856 2.68323e-06 6.43582e-25)
(0.00243356 1.69612e-06 -1.53476e-24)
(0.00242577 7.18264e-07 1.50658e-24)
(0.00242369 -3.5027e-07 1.40434e-24)
(0.00242601 -1.58706e-06 -3.62842e-24)
(0.00243211 -3.219e-06 -2.27673e-24)
(0.00244246 -5.61148e-06 5.46855e-24)
(0.00245729 -9.31353e-06 2.06265e-24)
(0.00247797 -1.58238e-05 -7.17157e-24)
(0.00250669 -2.9126e-05 -1.08824e-24)
(0.00254755 -5.87557e-05 3.06391e-24)
(0.00259934 -0.000124016 4.84932e-24)
(0.00263694 -0.000232438 -2.50534e-24)
(0.00369877 1.18217e-05 2.26476e-26)
(0.0036404 8.65355e-06 -1.57694e-25)
(0.00360357 6.20236e-06 7.03288e-25)
(0.00358112 4.08811e-06 7.52862e-25)
(0.00356882 2.01298e-06 -7.47633e-25)
(0.00356433 -2.57718e-07 -4.24631e-24)
(0.00356603 -2.75397e-06 -2.87367e-24)
(0.00357258 -6.06791e-06 1.09935e-23)
(0.00358466 -1.0818e-05 4.58702e-24)
(0.00360189 -1.78205e-05 -6.58742e-24)
(0.0036251 -2.92338e-05 -2.65421e-24)
(0.00365471 -4.95936e-05 -2.02554e-24)
(0.00368998 -8.68915e-05 6.0699e-26)
(0.00372374 -0.000151086 1.49808e-24)
(0.00373774 -0.000237174 7.32167e-27)
(0.00499564 2.18875e-05 -4.15634e-26)
(0.00491939 1.61848e-05 -2.54195e-25)
(0.00487051 1.17807e-05 -1.60825e-25)
(0.00483997 8.00161e-06 4.34665e-25)
(0.00482239 4.35072e-06 -1.2365e-24)
(0.00481444 4.94822e-07 3.086e-24)
(0.00481444 -3.94891e-06 -5.38362e-25)
(0.00482012 -9.29709e-06 1.89322e-24)
(0.00483198 -1.68917e-05 -1.06184e-23)
(0.004849 -2.75267e-05 2.01626e-23)
(0.00487098 -4.34603e-05 -1.95086e-23)
(0.00489665 -6.84256e-05 1.02964e-23)
(0.00492264 -0.000107251 -9.55571e-24)
(0.00494126 -0.000162984 9.01423e-24)
(0.00494215 -0.000228042 -3.59429e-24)
(0.00640505 3.61885e-05 5.49152e-26)
(0.00631222 2.7041e-05 1.96588e-25)
(0.00625168 1.9982e-05 -1.03736e-24)
(0.00621289 1.3955e-05 -6.56973e-25)
(0.0061895 8.23122e-06 1.76217e-24)
(0.00617739 2.25233e-06 6.32654e-25)
(0.00617433 -4.36152e-06 -4.94624e-24)
(0.00617799 -1.23296e-05 1.18097e-23)
(0.00618771 -2.28701e-05 -1.53893e-23)
(0.0062021 -3.69075e-05 3.68929e-24)
(0.00621998 -5.62561e-05 1.123e-23)
(0.00623907 -8.31955e-05 -1.56009e-23)
(0.00625552 -0.000119607 7.81241e-24)
(0.00626361 -0.000164954 8.00615e-24)
(0.00625862 -0.000213021 -6.09399e-24)
(0.00792116 5.52296e-05 4.54122e-26)
(0.00781531 4.17562e-05 -2.68602e-25)
(0.00774494 3.13418e-05 9.61975e-25)
(0.00769869 2.24822e-05 -1.33466e-24)
(0.00766963 1.41974e-05 -4.5368e-24)
(0.00765306 5.69808e-06 7.73482e-24)
(0.00764617 -3.48886e-06 -4.69863e-24)
(0.00764655 -1.42057e-05 1.60005e-23)
(0.00765267 -2.75669e-05 -1.08821e-23)
(0.00766269 -4.43937e-05 -5.08837e-24)
(0.00767481 -6.57958e-05 -1.00121e-23)
(0.00768653 -9.2674e-05 9.20537e-24)
(0.00769472 -0.000125008 2.58926e-24)
(0.00769591 -0.00016101 2.21435e-24)
(0.00768856 -0.00019652 -1.94833e-24)
(0.00952994 7.89048e-05 -6.54473e-26)
(0.00941784 6.04599e-05 8.88813e-25)
(0.00934161 4.612e-05 -2.06921e-24)
(0.00929023 3.39344e-05 -1.69496e-24)
(0.00925671 2.26743e-05 6.34018e-25)
(0.0092362 1.13696e-05 1.24817e-24)
(0.00922547 -6.12214e-07 4.48339e-24)
(0.00922197 -1.40363e-05 -1.22184e-23)
(0.00922369 -2.98656e-05 -6.52404e-24)
(0.00922853 -4.8654e-05 1.79468e-23)
(0.00923448 -7.08338e-05 -5.56367e-24)
(0.00923932 -9.63614e-05 1.9024e-23)
(0.00924097 -0.000124373 -1.00149e-23)
(0.00923755 -0.00015307 -3.19062e-24)
(0.0092291 -0.000179935 1.88882e-24)
(0.0112081 0.000105955 -8.65173e-27)
(0.0111001 8.24467e-05 4.91283e-25)
(0.0110247 6.39498e-05 -6.99573e-25)
(0.0109725 4.81834e-05 1.67689e-24)
(0.0109373 3.37232e-05 -1.00019e-23)
(0.0109145 1.94913e-05 1.05611e-23)
(0.010901 4.74864e-06 -1.66498e-23)
(0.010894 -1.11647e-05 1.02347e-23)
(0.0108916 -2.89448e-05 7.61453e-24)
(0.0108915 -4.88535e-05 1.65319e-23)
(0.010892 -7.08375e-05 -2.15919e-23)
(0.0108912 -9.43931e-05 -3.99223e-24)
(0.0108881 -0.000118512 1.84446e-24)
(0.0108817 -0.000141843 1.31566e-23)
(0.0108725 -0.000162962 -5.34957e-24)
(0.0129259 0.000133458 4.73558e-26)
(0.0128349 0.00010569 -2.0611e-25)
(0.0127691 8.33936e-05 9.21982e-25)
(0.0127223 6.42148e-05 -3.2338e-24)
(0.0126898 4.66644e-05 4.90271e-24)
(0.0126678 2.96523e-05 -6.33144e-24)
(0.0126537 1.24346e-05 1.06008e-23)
(0.0126449 -5.53673e-06 1.85921e-24)
(0.0126396 -2.46472e-05 -1.46134e-23)
(0.0126359 -4.49359e-05 2.08098e-23)
(0.0126325 -6.61025e-05 -2.29486e-23)
(0.0126281 -8.75419e-05 -6.75196e-24)
(0.0126221 -0.000108424 1.19107e-23)
(0.0126139 -0.000127892 3.53081e-24)
(0.0126046 -0.00014519 -1.54188e-24)
(0.0146578 0.000156978 1.88358e-25)
(0.0145947 0.000126706 -1.60202e-24)
(0.0145471 0.000101687 -2.57888e-24)
(0.0145122 7.98173e-05 6.1123e-24)
(0.0144874 5.97323e-05 2.73362e-24)
(0.0144701 4.04488e-05 -1.71694e-23)
(0.0144583 2.13222e-05 5.28949e-24)
(0.0144503 1.94276e-06 3.80951e-24)
(0.0144444 -1.78243e-05 -1.64688e-23)
(0.0144394 -3.78857e-05 1.71565e-23)
(0.0144342 -5.78853e-05 -1.37206e-23)
(0.0144282 -7.73139e-05 3.52471e-23)
(0.0144212 -9.5604e-05 -1.69372e-23)
(0.0144128 -0.000112281 9.96526e-24)
(0.0144039 -0.000126982 -2.71831e-24)
(0.0163973 0.000172316 -6.95798e-26)
(0.016365 0.00014159 1.07992e-24)
(0.0163395 0.000115345 -2.12206e-24)
(0.0163204 9.19241e-05 -1.08074e-24)
(0.0163067 7.02416e-05 1.20708e-23)
(0.0162971 4.95277e-05 -1.75252e-24)
(0.0162905 2.93036e-05 -2.1468e-23)
(0.0162856 9.3293e-06 2.50393e-23)
(0.0162815 -1.04067e-05 -5.62666e-24)
(0.0162773 -2.97449e-05 -1.94618e-23)
(0.0162727 -4.83821e-05 2.07553e-23)
(0.0162672 -6.59718e-05 1.11823e-23)
(0.016261 -8.21811e-05 -9.41043e-24)
(0.0162536 -9.67894e-05 -1.62835e-23)
(0.0162461 -0.000109657 1.36596e-24)
(0.0181648 0.000178573 -2.54087e-27)
(0.0181553 0.000148546 -1.20005e-24)
(0.0181479 0.000122188 5.75154e-24)
(0.0181427 9.8243e-05 3.71082e-25)
(0.0181396 7.59119e-05 3.29637e-24)
(0.0181378 5.46631e-05 -1.17854e-23)
(0.0181369 3.41905e-05 1.00718e-23)
(0.018136 1.43859e-05 2.29322e-24)
(0.0181348 -4.71057e-06 2.07056e-23)
(0.018133 -2.29489e-05 -3.19914e-23)
(0.0181302 -4.01211e-05 -1.44747e-23)
(0.0181265 -5.60342e-05 -9.5607e-24)
(0.0181221 -7.05278e-05 1.80062e-23)
(0.0181166 -8.35343e-05 -5.17435e-25)
(0.0181112 -9.50338e-05 1.74388e-24)
(0.0199867 0.000179138 -1.77923e-26)
(0.0199875 0.000149701 1.22023e-24)
(0.019989 0.000123452 -1.77954e-24)
(0.0199913 9.93907e-05 -6.81017e-28)
(0.019994 7.69263e-05 2.38041e-24)
(0.0199969 5.57031e-05 6.06961e-24)
(0.0199994 3.55359e-05 -2.35376e-23)
(0.0200013 1.6374e-05 1.98506e-24)
(0.0200023 -1.74566e-06 1.19706e-23)
(0.0200022 -1.87335e-05 -5.5104e-24)
(0.0200012 -3.44844e-05 1.50475e-23)
(0.0199992 -4.8925e-05 1.05285e-23)
(0.0199965 -6.20098e-05 -1.91055e-23)
(0.0199929 -7.37569e-05 1.30615e-23)
(0.0199893 -8.42076e-05 -1.0857e-23)
(0.0218573 0.000178095 -5.28829e-25)
(0.0218604 0.000148941 2.76578e-25)
(0.0218639 0.000122672 2.11398e-24)
(0.0218676 9.85265e-05 -1.09852e-23)
(0.0218715 7.60719e-05 9.6857e-24)
(0.0218751 5.50669e-05 -7.09603e-24)
(0.0218782 3.53862e-05 5.08646e-24)
(0.0218804 1.69819e-05 -3.616e-23)
(0.0218817 -1.53553e-07 5.21923e-23)
(0.0218821 -1.6005e-05 -3.0756e-23)
(0.0218817 -3.05595e-05 2.74736e-23)
(0.0218803 -4.38298e-05 2.2971e-23)
(0.0218785 -5.58424e-05 -4.01308e-23)
(0.021876 -6.66616e-05 1.30548e-23)
(0.0218734 -7.63577e-05 -5.48328e-25)
(0.0237208 0.0001766 -1.8749e-26)
(0.0237248 0.000148034 -1.62053e-25)
(0.0237285 0.000122 1.23638e-25)
(0.0237319 9.80138e-05 -3.02649e-25)
(0.0237351 7.57937e-05 3.94466e-24)
(0.0237379 5.51804e-05 -6.78741e-24)
(0.02374 3.60785e-05 6.32224e-24)
(0.0237414 1.84221e-05 -2.00384e-23)
(0.0237421 2.15881e-06 4.56258e-23)
(0.023742 -1.27626e-05 -5.84359e-23)
(0.0237413 -2.63967e-05 4.78913e-23)
(0.0237399 -3.881e-05 -1.61778e-23)
(0.0237381 -5.00696e-05 8.4061e-25)
(0.0237358 -6.02618e-05 3.70954e-24)
(0.0237335 -6.94689e-05 -7.11682e-24)
(0.0254846 0.000173565 -1.55196e-24)
(0.0254906 0.000146281 2.79314e-24)
(0.0254952 0.000121094 -9.37088e-25)
(0.0254988 9.77967e-05 -1.5207e-24)
(0.0255018 7.62465e-05 6.20761e-24)
(0.025504 5.63439e-05 -6.32479e-24)
(0.0255055 3.80086e-05 -5.71805e-24)
(0.0255063 2.11608e-05 -1.38352e-23)
(0.0255065 5.71856e-06 7.04551e-24)
(0.025506 -8.4051e-06 3.3686e-23)
(0.025505 -2.13041e-05 -1.77953e-23)
(0.0255034 -3.30705e-05 1.0619e-23)
(0.0255017 -4.37885e-05 -4.37104e-24)
(0.0254994 -5.35516e-05 -1.2958e-23)
(0.0254972 -6.24428e-05 6.63349e-24)
(0.0270326 0.000167929 5.0948e-25)
(0.0270407 0.000142629 -8.84546e-25)
(0.0270466 0.000118956 -2.5952e-25)
(0.0270509 9.69358e-05 -7.41171e-25)
(0.0270541 7.65408e-05 -1.84283e-24)
(0.0270564 5.77131e-05 9.58111e-24)
(0.0270579 4.03851e-05 -7.71514e-24)
(0.0270586 2.44656e-05 -4.98223e-24)
(0.0270588 9.8648e-06 4.56472e-24)
(0.0270582 -3.5216e-06 -5.38923e-24)
(0.0270573 -1.57831e-05 1.2559e-23)
(0.0270558 -2.70177e-05 6.37512e-24)
(0.0270541 -3.73156e-05 -2.37957e-23)
(0.0270521 -4.67677e-05 1.64437e-23)
(0.02705 -5.54495e-05 -3.35408e-24)
(0.0282136 0.000159517 1.50498e-24)
(0.0282234 0.000136751 2.5366e-24)
(0.0282305 0.000115162 -5.65106e-24)
(0.0282357 9.49326e-05 -2.95531e-25)
(0.0282395 7.61222e-05 1.29191e-24)
(0.0282421 5.87054e-05 -2.9113e-24)
(0.0282439 4.26285e-05 -4.64205e-24)
(0.0282449 2.78032e-05 1.00598e-23)
(0.0282452 1.41434e-05 1.12394e-23)
(0.0282449 1.54625e-06 -2.73004e-23)
(0.0282442 -1.00706e-05 1.57478e-23)
(0.028243 -2.0802e-05 -1.10147e-24)
(0.0282417 -3.07284e-05 -9.18552e-25)
(0.0282399 -3.99268e-05 1.23898e-24)
(0.0282381 -4.84582e-05 -5.71772e-25)
(0.0288233 0.000146925 -3.94497e-24)
(0.0288348 0.000127122 -8.48347e-24)
(0.0288434 0.00010809 4.5743e-24)
(0.0288499 9.0098e-05 1.54474e-23)
(0.0288547 7.3251e-05 -4.31008e-24)
(0.0288584 5.75553e-05 -1.20169e-24)
(0.028861 4.29717e-05 5.55039e-25)
(0.0288628 2.94327e-05 -4.49679e-24)
(0.0288638 1.68651e-05 1.21866e-23)
(0.0288642 5.18891e-06 -5.3869e-24)
(0.028864 -5.67115e-06 3.23335e-24)
(0.0288633 -1.57932e-05 -5.11201e-24)
(0.0288622 -2.52364e-05 -5.85764e-24)
(0.0288608 -3.40602e-05 8.77494e-24)
(0.0288591 -4.23111e-05 -3.83678e-24)
(0.0286434 0.000132845 6.25017e-24)
(0.0286555 0.000115978 -1.43593e-23)
(0.0286648 9.95576e-05 2.35332e-24)
(0.028672 8.38762e-05 2.07015e-23)
(0.0286776 6.90559e-05 -2.00723e-23)
(0.028682 5.51258e-05 6.9776e-24)
(0.0286852 4.20585e-05 4.49446e-24)
(0.0286876 2.98097e-05 -1.01208e-23)
(0.0286893 1.83204e-05 2.37378e-24)
(0.0286902 7.54268e-06 1.12382e-24)
(0.0286906 -2.57667e-06 -1.01225e-24)
(0.0286905 -1.20673e-05 2.13476e-24)
(0.0286899 -2.09692e-05 -2.62143e-24)
(0.028689 -2.93345e-05 1.78143e-24)
(0.0286877 -3.72047e-05 -8.27139e-25)
(0.0277052 0.000117493 3.87605e-24)
(0.0277182 0.000103316 -8.17575e-24)
(0.0277283 8.93826e-05 -5.62573e-24)
(0.0277361 7.59571e-05 2.64349e-23)
(0.027742 6.3161e-05 -2.4258e-23)
(0.0277466 5.10236e-05 2.59159e-24)
(0.0277499 3.95356e-05 4.05038e-24)
(0.0277523 2.86622e-05 2.17473e-24)
(0.0277537 1.83733e-05 1.69565e-24)
(0.0277545 8.63271e-06 -7.73332e-24)
(0.0277546 -5.785e-07 4.97274e-24)
(0.0277543 -9.29322e-06 7.3351e-25)
(0.0277534 -1.75419e-05 -1.62761e-24)
(0.0277522 -2.53555e-05 8.998e-25)
(0.0277505 -3.2757e-05 5.88661e-25)
(0.0262118 0.000102161 9.64043e-24)
(0.0262251 9.03302e-05 -1.71176e-23)
(0.0262358 7.86182e-05 3.49489e-24)
(0.0262444 6.72481e-05 -8.29482e-24)
(0.0262513 5.63244e-05 -1.07125e-23)
(0.0262568 4.58767e-05 3.63441e-23)
(0.0262611 3.59059e-05 -1.4028e-23)
(0.0262645 2.63938e-05 3.91053e-24)
(0.0262669 1.73268e-05 -2.13906e-24)
(0.0262685 8.68038e-06 -4.96294e-24)
(0.0262694 4.37717e-07 9.02605e-24)
(0.0262698 -7.44239e-06 -4.44363e-24)
(0.0262695 -1.49712e-05 6.94555e-25)
(0.0262688 -2.21562e-05 2.31558e-25)
(0.0262675 -2.90005e-05 2.06991e-26)
(0.0243999 8.88229e-05 3.71156e-24)
(0.0244131 7.89083e-05 -1.9178e-23)
(0.0244241 6.90197e-05 3.32512e-23)
(0.0244331 5.93405e-05 -2.53619e-23)
(0.0244405 4.99558e-05 2.52882e-23)
(0.0244465 4.08998e-05 -8.40566e-24)
(0.0244513 3.2178e-05 -5.78908e-24)
(0.024455 2.37904e-05 -6.26386e-24)
(0.0244578 1.57247e-05 1.08259e-23)
(0.0244598 7.97514e-06 -6.07426e-25)
(0.024461 5.22246e-07 -1.00459e-23)
(0.0244616 -6.62953e-06 -1.07814e-24)
(0.0244615 -1.3484e-05 1.94808e-24)
(0.0244609 -2.0046e-05 -3.31657e-25)
(0.0244597 -2.63149e-05 4.8879e-26)
(0.0224061 7.64734e-05 4.93948e-25)
(0.0224195 6.81583e-05 -7.21768e-24)
(0.0224308 5.9805e-05 -4.03003e-24)
(0.0224403 5.15581e-05 3.29347e-23)
(0.0224481 4.34917e-05 -3.23594e-23)
(0.0224546 3.56409e-05 9.45062e-24)
(0.0224598 2.80226e-05 1.58963e-24)
(0.022464 2.06439e-05 -8.29694e-25)
(0.0224671 1.35078e-05 -3.85215e-24)
(0.0224695 6.61392e-06 1.65492e-23)
(0.022471 -3.41501e-08 -1.31154e-23)
(0.0224718 -6.43435e-06 -5.17092e-25)
(0.0224718 -1.25838e-05 1.05955e-24)
(0.0224714 -1.84817e-05 6.94925e-25)
(0.0224702 -2.41241e-05 -5.1568e-25)
(0.0203339 6.49752e-05 7.35209e-25)
(0.0203475 5.7993e-05 6.70857e-24)
(0.0203592 5.09391e-05 -7.69805e-24)
(0.0203691 4.39266e-05 -5.32397e-24)
(0.0203774 3.70185e-05 3.38572e-23)
(0.0203843 3.02499e-05 -2.58936e-23)
(0.02039 2.36446e-05 -5.95768e-25)
(0.0203946 1.72155e-05 -5.32243e-24)
(0.0203982 1.09741e-05 -4.05962e-25)
(0.0204008 4.92426e-06 7.77804e-25)
(0.0204026 -9.21464e-07 -2.71127e-24)
(0.0204037 -6.5648e-06 2.31078e-24)
(0.0204039 -1.1999e-05 8.32264e-25)
(0.0204035 -1.72182e-05 7.076e-25)
(0.0204024 -2.22148e-05 6.36092e-25)
(0.0182584 5.42703e-05 5.24036e-24)
(0.0182722 4.84107e-05 -8.03561e-24)
(0.0182842 4.24722e-05 -6.44936e-24)
(0.0182945 3.65408e-05 1.96699e-23)
(0.0183033 3.0666e-05 -7.04508e-24)
(0.0183107 2.48823e-05 -9.89662e-24)
(0.0183168 1.92147e-05 3.46335e-24)
(0.0183218 1.368e-05 7.70695e-24)
(0.0183257 8.29104e-06 -1.22146e-23)
(0.0183287 3.05458e-06 1.20388e-23)
(0.0183307 -2.0177e-06 -6.36439e-24)
(0.0183319 -6.92223e-06 2.67392e-24)
(0.0183323 -1.16495e-05 -3.32411e-24)
(0.0183319 -1.6191e-05 3.1971e-24)
(0.0183307 -2.05376e-05 -7.22049e-25)
(0.0162325 4.43276e-05 -1.01715e-24)
(0.0162465 3.94367e-05 -3.53047e-24)
(0.0162587 3.44766e-05 -1.12502e-23)
(0.0162693 2.95076e-05 3.14085e-23)
(0.0162783 2.45663e-05 -5.63196e-24)
(0.016286 1.96859e-05 -8.84822e-24)
(0.0162924 1.48891e-05 3.05717e-24)
(0.0162976 1.01959e-05 -4.43503e-24)
(0.0163017 5.61383e-06 -9.52897e-24)
(0.0163048 1.16231e-06 9.18089e-24)
(0.0163069 -3.16299e-06 4.38809e-25)
(0.0163081 -7.34737e-06 -2.83633e-24)
(0.0163083 -1.13774e-05 3.23912e-24)
(0.0163078 -1.52449e-05 1.78045e-25)
(0.0163064 -1.89406e-05 -2.28515e-25)
(0.0142913 3.52302e-05 3.91427e-24)
(0.0143051 3.11977e-05 5.75928e-24)
(0.0143172 2.71131e-05 -5.36885e-24)
(0.0143278 2.30118e-05 -1.17278e-23)
(0.0143368 1.89227e-05 1.57836e-23)
(0.0143444 1.48758e-05 -1.72728e-23)
(0.0143508 1.08926e-05 -6.66388e-25)
(0.0143559 6.98997e-06 6.69094e-24)
(0.0143599 3.1769e-06 2.32643e-24)
(0.0143628 -5.29916e-07 -4.7832e-24)
(0.0143646 -4.1328e-06 3.23365e-26)
(0.0143655 -7.61368e-06 9.66915e-24)
(0.0143654 -1.09603e-05 -3.69202e-24)
(0.0143644 -1.41655e-05 -9.12441e-25)
(0.0143625 -1.72202e-05 -5.43969e-26)
(0.0124557 2.71432e-05 -4.06593e-24)
(0.012469 2.38835e-05 5.23419e-24)
(0.0124806 2.0588e-05 5.89304e-25)
(0.0124906 1.72727e-05 1.05998e-23)
(0.0124992 1.39626e-05 -8.63971e-24)
(0.0125064 1.06845e-05 6.89956e-25)
(0.0125123 7.45713e-06 -9.27355e-25)
(0.012517 4.29232e-06 -2.71764e-24)
(0.0125205 1.20472e-06 2.36866e-24)
(0.0125229 -1.80636e-06 -7.64573e-24)
(0.0125242 -4.72065e-06 5.45347e-25)
(0.0125245 -7.52943e-06 1.82298e-24)
(0.0125238 -1.02247e-05 1.12785e-24)
(0.0125222 -1.27995e-05 4.35335e-25)
(0.0125196 -1.52446e-05 1.50798e-25)
(0.0107368 2.02215e-05 3.01148e-24)
(0.010749 1.76551e-05 -2.38233e-24)
(0.0107597 1.50653e-05 -1.04805e-23)
(0.0107689 1.24553e-05 9.84069e-24)
(0.0107766 9.84938e-06 1.37576e-23)
(0.0107831 7.26946e-06 -3.48465e-24)
(0.0107882 4.73004e-06 -7.11383e-24)
(0.0107921 2.2412e-06 -9.98366e-24)
(0.0107949 -1.85111e-07 7.52905e-24)
(0.0107965 -2.54996e-06 4.38711e-25)
(0.0107971 -4.83217e-06 -1.68744e-24)
(0.0107966 -7.02613e-06 -4.51609e-25)
(0.0107952 -9.12601e-06 9.29595e-25)
(0.0107928 -1.11251e-05 -3.5823e-26)
(0.0107894 -1.3015e-05 -1.73996e-25)
(0.00913888 1.45359e-05 -1.89502e-24)
(0.00914968 1.25788e-05 -1.35143e-24)
(0.00915909 1.06066e-05 1.64422e-24)
(0.00916711 8.61619e-06 -5.22508e-24)
(0.0091738 6.63143e-06 1.71511e-23)
(0.00917921 4.66822e-06 -2.2758e-23)
(0.00918339 2.73683e-06 2.23404e-23)
(0.00918641 8.47446e-07 -9.46648e-24)
(0.00918829 -9.96808e-07 2.15447e-24)
(0.00918909 -2.78654e-06 2.9094e-26)
(0.00918884 -4.51051e-06 -1.6817e-24)
(0.00918759 -6.16393e-06 5.59643e-25)
(0.00918538 -7.74148e-06 -1.27288e-24)
(0.00918226 -9.23722e-06 -1.64304e-25)
(0.00917825 -1.06442e-05 8.17532e-26)
(0.00766215 1.00518e-05 -9.20559e-25)
(0.00767137 8.61338e-06 2.35627e-25)
(0.00767934 7.16563e-06 5.12966e-25)
(0.00768604 5.70389e-06 -2.38412e-24)
(0.00769152 4.24971e-06 -1.07811e-24)
(0.00769582 2.81271e-06 9.3219e-24)
(0.00769899 1.40031e-06 -5.48237e-24)
(0.00770107 2.20741e-08 7.86231e-25)
(0.00770209 -1.3246e-06 -7.61086e-25)
(0.0077021 -2.62663e-06 -8.20304e-25)
(0.00770113 -3.87831e-06 -2.36048e-25)
(0.00769923 -5.07559e-06 1.54922e-24)
(0.00769643 -6.214e-06 3.79429e-25)
(0.00769279 -7.2886e-06 -9.10488e-25)
(0.00768832 -8.29413e-06 -1.36364e-25)
(0.00630425 6.65086e-06 -3.34629e-25)
(0.00631183 5.63771e-06 -1.10913e-25)
(0.00631832 4.62075e-06 -5.39945e-24)
(0.0063237 3.59487e-06 1.42652e-24)
(0.00632798 2.57761e-06 -3.8934e-24)
(0.00633122 1.57297e-06 2.71853e-24)
(0.00633344 5.86904e-07 5.15901e-24)
(0.00633468 -3.73474e-07 3.87105e-24)
(0.00633497 -1.3111e-06 -5.42773e-24)
(0.00633435 -2.21613e-06 1.63629e-24)
(0.00633285 -3.08406e-06 1.38841e-24)
(0.00633051 -3.91189e-06 -1.97882e-24)
(0.00632737 -4.69635e-06 1.05398e-24)
(0.00632347 -5.43353e-06 -7.1058e-26)
(0.00631885 -6.11958e-06 2.5577e-25)
(0.00506112 4.16868e-06 -1.30992e-24)
(0.00506712 3.49114e-06 -1.79601e-24)
(0.00507221 2.81558e-06 -3.27879e-25)
(0.00507634 2.13585e-06 4.4689e-24)
(0.00507953 1.46425e-06 -3.16603e-24)
(0.00508183 8.00713e-07 -6.16633e-25)
(0.00508325 1.51085e-07 5.10259e-24)
(0.00508382 -4.81202e-07 1.38469e-26)
(0.00508357 -1.09789e-06 -1.03431e-24)
(0.00508253 -1.6924e-06 -3.77658e-24)
(0.00508074 -2.26122e-06 4.26653e-25)
(0.00507822 -2.80228e-06 2.58035e-24)
(0.00507502 -3.31342e-06 -3.31745e-25)
(0.00507117 -3.79164e-06 -3.42798e-25)
(0.0050667 -4.2341e-06 2.24663e-25)
(0.00392755 2.42921e-06 -2.86116e-25)
(0.0039321 2.00558e-06 1.68708e-26)
(0.00393592 1.58958e-06 2.14213e-24)
(0.00393894 1.17291e-06 1.43527e-24)
(0.0039412 7.62674e-07 -9.87512e-25)
(0.00394272 3.56777e-07 -2.4463e-24)
(0.00394352 -3.91949e-08 9.90751e-25)
(0.00394362 -4.26359e-07 -4.15366e-24)
(0.00394305 -8.01132e-07 3.19883e-24)
(0.00394182 -1.16396e-06 1.63886e-24)
(0.00393997 -1.51012e-06 -1.49493e-26)
(0.00393753 -1.83854e-06 -1.77917e-24)
(0.00393452 -2.14788e-06 3.18369e-25)
(0.00393099 -2.43586e-06 -2.35494e-25)
(0.00392695 -2.70028e-06 1.15562e-25)
(0.00289754 1.26638e-06 -5.26453e-25)
(0.0029008 1.02304e-06 1.06826e-26)
(0.0029035 7.92463e-07 1.71638e-24)
(0.00290557 5.63794e-07 -1.07303e-24)
(0.00290706 3.40007e-07 4.41831e-24)
(0.00290799 1.19891e-07 -8.04996e-24)
(0.00290834 -9.83779e-08 6.51154e-24)
(0.00290817 -3.06467e-07 -5.42983e-24)
(0.00290747 -5.13711e-07 3.92304e-24)
(0.00290627 -7.10158e-07 -2.51043e-24)
(0.00290458 -8.97923e-07 8.62114e-25)
(0.00290243 -1.07559e-06 1.24242e-25)
(0.00289985 -1.24211e-06 1.93128e-25)
(0.00289686 -1.39587e-06 -2.36852e-25)
(0.00289349 -1.53499e-06 4.77427e-26)
(0.00196458 5.40644e-07 7.98279e-25)
(0.0019667 4.1322e-07 8.62952e-25)
(0.00196843 3.03189e-07 -3.68904e-24)
(0.00196972 1.97011e-07 2.69839e-24)
(0.00197061 9.50255e-08 -2.63488e-26)
(0.00197109 -1.1797e-09 6.94813e-25)
(0.00197118 -1.02002e-07 -8.47632e-25)
(0.00197089 -1.96621e-07 -1.7702e-24)
(0.00197023 -2.87741e-07 1.75959e-24)
(0.00196922 -3.73685e-07 1.81719e-25)
(0.00196786 -4.54883e-07 -1.39436e-24)
(0.00196619 -5.30387e-07 5.00528e-25)
(0.0019642 -6.00904e-07 2.93286e-25)
(0.00196194 -6.65608e-07 -3.50346e-26)
(0.0019594 -7.22961e-07 -3.20929e-26)
(0.00112186 1.59348e-07 -8.04996e-25)
(0.001123 1.12634e-07 2.46171e-24)
(0.0011239 8.23234e-08 1.46838e-24)
(0.00112455 5.27378e-08 -2.6432e-24)
(0.00112497 2.35476e-08 -3.09727e-25)
(0.00112516 -3.92177e-09 -2.74443e-25)
(0.00112511 -3.55347e-08 8.36564e-25)
(0.00112484 -6.47298e-08 -1.41747e-24)
(0.00112436 -9.27743e-08 1.92469e-24)
(0.00112367 -1.19754e-07 -9.42087e-25)
(0.00112277 -1.44048e-07 -6.07432e-25)
(0.00112169 -1.63811e-07 3.65179e-25)
(0.00112043 -1.85316e-07 -4.2479e-25)
(0.001119 -2.08803e-07 4.22539e-25)
(0.00111742 -2.32992e-07 -6.95252e-26)
(0.000362522 5.93246e-08 -5.74333e-27)
(0.000362798 1.13565e-07 4.77864e-25)
(0.000363007 1.5803e-07 5.46679e-25)
(0.000363141 1.87158e-07 -8.56748e-25)
(0.000363205 2.0294e-07 1.77973e-24)
(0.000363199 2.07439e-07 -1.93229e-24)
(0.00036312 2.02259e-07 1.26671e-25)
(0.000362974 1.89618e-07 1.0626e-24)
(0.000362759 1.70507e-07 -1.4686e-24)
(0.000362478 1.46243e-07 -2.63299e-25)
(0.000362133 1.18983e-07 1.00479e-24)
(0.000361727 9.07925e-08 -4.42e-25)
(0.000361263 5.78602e-08 -1.59989e-25)
(0.000360746 2.04924e-08 1.33161e-25)
(0.000360181 -2.02264e-08 -5.75027e-27)
(0.000907284 -0.000239215 8.02144e-26)
(0.00103959 -0.000159724 2.04351e-24)
(0.00126243 -7.81141e-05 -5.86048e-24)
(0.00149051 -1.24224e-05 8.48854e-24)
(0.00170997 3.89766e-05 -3.18382e-24)
(0.00192559 7.68312e-05 -3.04241e-24)
(0.00213731 0.000103598 3.44966e-24)
(0.0023457 0.000121311 -6.79561e-24)
(0.00255148 0.000131684 4.43943e-25)
(0.00275524 0.000136195 4.26897e-24)
(0.00295754 0.000136114 -8.1204e-25)
(0.00315888 0.000132575 8.75916e-25)
(0.0033598 0.00012663 -8.58562e-26)
(0.00356092 0.000119317 5.42542e-25)
(0.00376305 0.000111714 -1.99094e-24)
(0.00396729 0.000105009 1.08913e-24)
(0.00417536 0.000100497 -3.35978e-25)
(0.00438966 9.9587e-05 2.6208e-26)
(0.00461402 0.000103408 7.79856e-25)
(0.00485319 0.000112498 -4.87302e-25)
(0.00511363 0.000125088 5.97443e-26)
(0.00540032 0.000136302 -5.22133e-26)
(0.00569137 0.000135024 9.94847e-26)
(0.00594992 0.000113954 3.84456e-25)
(0.00616314 7.38642e-05 -6.90026e-25)
(0.00633084 1.75689e-05 -4.63111e-25)
(0.00645459 -5.18502e-05 2.57983e-26)
(0.00653662 -0.000131742 1.1258e-24)
(0.00657864 -0.000219594 1.42801e-24)
(0.00658165 -0.000312529 -2.76732e-24)
(0.00654598 -0.00040684 1.89337e-24)
(0.00647176 -0.000497759 -1.34609e-24)
(0.00635923 -0.000579443 1.60624e-25)
(0.00620906 -0.000645115 -1.15855e-24)
(0.0060224 -0.000687212 1.11582e-24)
(0.00580089 -0.000697431 7.425e-24)
(0.00554651 -0.000666501 -2.04036e-24)
(0.00526156 -0.000583465 1.91158e-24)
(0.00494874 -0.000434284 1.02634e-24)
(0.00461174 -0.000200247 -1.09745e-23)
(0.00425436 0.000140624 -1.33975e-25)
(0.0038816 0.000602 4.62791e-24)
(0.00348221 0.00115393 1.47801e-24)
(0.00307412 0.00167481 -6.48976e-24)
(0.00284309 0.00179852 -3.22144e-25)
(0.00170803 -0.000319271 -2.35084e-24)
(0.00176345 -0.000274291 -3.29235e-24)
(0.00190127 -0.00019576 6.91494e-24)
(0.00207457 -0.000122979 3.1936e-24)
(0.00225905 -6.14003e-05 -1.11631e-23)
(0.00244999 -1.31529e-05 1.18763e-23)
(0.00264329 2.31598e-05 -4.25225e-24)
(0.00283712 4.94059e-05 3.3633e-24)
(0.00303087 6.73391e-05 -4.44752e-24)
(0.00322433 7.85438e-05 5.14296e-26)
(0.00341755 8.43999e-05 -2.34801e-24)
(0.00361073 8.61321e-05 4.65291e-24)
(0.00380417 8.48669e-05 -2.56946e-24)
(0.00399832 8.16943e-05 -2.29992e-24)
(0.00419385 7.77269e-05 -1.51895e-24)
(0.00439169 7.41611e-05 2.91574e-24)
(0.0045934 7.22803e-05 -3.43694e-25)
(0.0048011 7.34569e-05 1.5055e-24)
(0.00501833 7.87818e-05 2.33096e-25)
(0.00524942 8.8781e-05 -4.44224e-25)
(0.00550044 0.000101794 -1.83734e-25)
(0.00577616 0.000113285 -1.10527e-25)
(0.00605604 0.000112702 5.386e-25)
(0.00630531 9.32428e-05 6.59205e-25)
(0.0065118 5.57373e-05 -5.931e-25)
(0.00667518 2.87949e-06 -2.82953e-24)
(0.00679669 -6.23214e-05 3.77056e-24)
(0.00687818 -0.000137184 -2.56496e-24)
(0.00692117 -0.00021908 8.56626e-25)
(0.00692651 -0.000304996 -4.07499e-25)
(0.00689465 -0.000391119 2.66181e-24)
(0.00682589 -0.000472634 -2.57762e-24)
(0.00672083 -0.00054372 -1.52959e-25)
(0.00658058 -0.000597671 5.97962e-24)
(0.00640695 -0.000627032 -1.02976e-23)
(0.00620248 -0.000623621 2.80783e-24)
(0.00597048 -0.00057833 1.32232e-23)
(0.00571522 -0.000480524 -3.63514e-24)
(0.00544255 -0.000316875 -1.06223e-23)
(0.00516149 -6.98729e-05 -6.39778e-24)
(0.00488562 0.000281121 1.4589e-23)
(0.00463766 0.00075024 -1.40285e-23)
(0.00444141 0.00130773 -3.06367e-24)
(0.00433691 0.00182104 9.15071e-24)
(0.00436678 0.00188706 2.89661e-24)
(0.00265372 -0.000327543 -2.6717e-26)
(0.00266214 -0.000322664 -3.76969e-24)
(0.00272113 -0.000275763 7.32474e-24)
(0.00283034 -0.000213248 6.13036e-24)
(0.00296594 -0.000152156 -1.00292e-23)
(0.00311919 -9.94758e-05 2.08201e-25)
(0.00328304 -5.68484e-05 9.59774e-25)
(0.0034532 -2.38176e-05 1.03556e-23)
(0.00362733 7.5055e-07 -1.22623e-23)
(0.00380408 1.81864e-05 7.51964e-24)
(0.00398274 2.97804e-05 2.25727e-24)
(0.00416296 3.6738e-05 -1.2475e-23)
(0.0043447 4.01947e-05 4.50347e-24)
(0.0045281 4.1255e-05 1.78852e-24)
(0.00471362 4.1041e-05 -3.70502e-24)
(0.00490195 4.07427e-05 5.9829e-24)
(0.00509443 4.16225e-05 -4.19741e-24)
(0.00529288 4.5007e-05 -7.29218e-26)
(0.0055005 5.19465e-05 3.25836e-25)
(0.00572115 6.29497e-05 3.4376e-25)
(0.00596047 7.64655e-05 4.48218e-26)
(0.0062229 8.82954e-05 1.94872e-25)
(0.00648938 8.84494e-05 -5.43706e-25)
(0.0067274 7.06373e-05 1.62011e-24)
(0.00692549 3.57629e-05 -2.55464e-24)
(0.00708316 -1.35867e-05 1.4689e-24)
(0.00720129 -7.44627e-05 -3.28568e-24)
(0.00728139 -0.000144151 4.40711e-24)
(0.00732469 -0.00021991 -3.70299e-24)
(0.00733199 -0.00029859 5.51435e-25)
(0.00730379 -0.000376278 7.65159e-25)
(0.00724063 -0.000448124 3.06065e-24)
(0.00714347 -0.000508357 -7.3516e-25)
(0.00701392 -0.000550406 3.10847e-24)
(0.0068545 -0.000567035 -9.17061e-24)
(0.00666868 -0.000550392 1.63196e-23)
(0.00646114 -0.000491901 -1.12977e-23)
(0.00623816 -0.000381895 1.69445e-23)
(0.00600856 -0.000208969 -3.24612e-23)
(0.00578571 4.07355e-05 1.23862e-23)
(0.00559006 0.000381698 4.31126e-24)
(0.00545327 0.000819851 6.73284e-24)
(0.00541003 0.00131879 -8.36339e-24)
(0.00548328 0.00174826 2.34218e-24)
(0.00564174 0.00179049 -1.41113e-24)
(0.00372726 -0.000311314 -9.96101e-25)
(0.00370938 -0.000331333 -1.51822e-24)
(0.00371932 -0.000313252 -6.48348e-24)
(0.00376696 -0.000273462 1.79213e-24)
(0.00384927 -0.000223072 1.18913e-24)
(0.0039564 -0.000173712 5.11096e-24)
(0.00408146 -0.000129998 -1.06609e-23)
(0.00421901 -9.35831e-05 4.07846e-24)
(0.00436542 -6.45533e-05 1.35157e-23)
(0.00451823 -4.22658e-05 -3.59843e-24)
(0.00467589 -2.58032e-05 -3.36437e-24)
(0.0048374 -1.41583e-05 -5.34071e-25)
(0.00500225 -6.30052e-06 1.74519e-24)
(0.00517021 -1.18378e-06 -3.40548e-24)
(0.00534142 2.27507e-06 7.88341e-25)
(0.00551631 5.22658e-06 -2.7457e-25)
(0.00569594 8.88826e-06 -1.61806e-24)
(0.00588179 1.45238e-05 6.27102e-25)
(0.00607666 2.31304e-05 2.79963e-24)
(0.00628392 3.51902e-05 -3.28859e-25)
(0.0065087 4.92543e-05 -6.2464e-25)
(0.00675506 6.1461e-05 -1.71434e-25)
(0.00700549 6.23831e-05 -9.58746e-25)
(0.00722992 4.6257e-05 -5.56087e-26)
(0.00741759 1.4073e-05 -2.267e-24)
(0.00756782 -3.16756e-05 3.91811e-24)
(0.00768113 -8.80953e-05 -3.28611e-24)
(0.00775866 -0.000152438 6.24117e-24)
(0.00780139 -0.000221851 -5.08726e-24)
(0.00781003 -0.000293068 1.28562e-24)
(0.00778516 -0.000362097 1.74318e-24)
(0.00772758 -0.000424099 -1.85845e-25)
(0.00763861 -0.000473421 -2.99674e-25)
(0.00752042 -0.000503731 -1.07674e-24)
(0.00737619 -0.000508183 1.34252e-24)
(0.00721035 -0.000479525 -5.07833e-24)
(0.00702882 -0.000410132 2.39771e-23)
(0.00683956 -0.000291959 -1.27203e-23)
(0.00665351 -0.00011653 -4.3666e-25)
(0.00648634 0.000124768 -2.88054e-23)
(0.0063604 0.000438169 2.18301e-23)
(0.00630627 0.000819665 -7.90192e-24)
(0.00635404 0.00123173 1.97352e-24)
(0.0065091 0.00157333 9.77617e-24)
(0.0067247 0.00165201 -2.32428e-24)
(0.00492383 -0.000285586 -4.11612e-24)
(0.00489563 -0.000316656 8.39561e-24)