/*--------------------------------*- C++ -*----------------------------------*\
| =========                 |                                                 |
| \\      /  F ield         | OpenFOAM: The Open Source CFD Toolbox           |
|  \\    /   O peration     | Version:  2312                                  |
|   \\  /    A nd           | Website:  www.openfoam.com                      |
|    \\/     M anipulation  |                                                 |
\*---------------------------------------------------------------------------*/
FoamFile
{
    version     2.0;
    format      ascii;
    arch        "LSB;label=32;scalar=64";
    class       volVectorField;
    location    "28";
    object      U;
}
// * * * * * * * * * * * * * * * * * * * * * * * * * * * * * * * * * * * * * //

dimensions      [0 1 -1 0 0 0 0];

internalField   nonuniform List<vector> 
4800
(
(0.000502676 4.86542e-07 -3.88472e-26)
(0.000489796 5.60723e-07 -2.71343e-25)
(0.000480831 5.97218e-07 3.48778e-25)
(0.000474673 6.01503e-07 1.57062e-25)
(0.000470611 5.75831e-07 2.29756e-24)
(0.000468215 5.18243e-07 -5.45939e-24)
(0.00046716 4.4975e-07 5.06074e-24)
(0.000467474 3.43787e-07 -7.26016e-24)
(0.000468965 2.0764e-07 2.3476e-24)
(0.000471773 -6.41647e-08 7.87136e-24)
(0.000476314 -6.17344e-07 -2.43011e-24)
(0.000483912 -2.07858e-06 -2.13816e-25)
(0.000501806 -7.38625e-06 -2.91964e-24)
(0.000548361 -2.88799e-05 1.32758e-24)
(0.000626558 -9.53328e-05 -1.04827e-24)
(0.00154876 2.57807e-06 -1.23355e-25)
(0.00150961 2.1111e-06 1.53711e-25)
(0.00148225 1.73098e-06 -1.40061e-24)
(0.00146331 1.38223e-06 1.05155e-24)
(0.00145062 1.02683e-06 3.31111e-24)
(0.00144285 6.30209e-07 -5.26117e-24)
(0.00143902 1.70237e-07 -1.45451e-24)
(0.00143909 -4.35969e-07 -3.11009e-25)
(0.00144239 -1.24716e-06 1.19146e-23)
(0.00144947 -2.60522e-06 -8.82764e-24)
(0.00146152 -5.19989e-06 9.63103e-25)
(0.00148126 -1.12438e-05 1.44814e-24)
(0.00151753 -2.85292e-05 -2.11869e-24)
(0.00158141 -8.12333e-05 -6.08537e-25)
(0.00165115 -0.000201364 2.73354e-24)
(0.00269985 8.28589e-06 -8.81326e-26)
(0.00263271 6.73174e-06 9.01051e-26)
(0.00258564 5.50101e-06 9.16167e-25)
(0.00255284 4.40689e-06 -2.17511e-24)
(0.00253059 3.33078e-06 2.11972e-24)
(0.00251658 2.17788e-06 1.96526e-24)
(0.00250911 7.84676e-07 -5.10875e-24)
(0.0025079 -1.05869e-06 -3.06249e-24)
(0.00251176 -3.44989e-06 7.31186e-24)
(0.00252138 -7.29447e-06 2.75983e-24)
(0.00253813 -1.41182e-05 -9.64728e-24)
(0.00256383 -2.78244e-05 -1.41778e-24)
(0.00260269 -5.82274e-05 4.09906e-24)
(0.00265329 -0.000125107 6.39572e-24)
(0.00269008 -0.000237669 -3.29533e-24)
(0.00396261 1.85315e-05 3.25214e-26)
(0.00386625 1.51326e-05 -2.26013e-25)
(0.00379839 1.24485e-05 1.00202e-24)
(0.00375076 1.00798e-05 1.05469e-24)
(0.00371802 7.777e-06 -1.06528e-24)
(0.00369681 5.34688e-06 -6.01881e-24)
(0.00368469 2.45658e-06 -4.03022e-24)
(0.00368076 -1.27224e-06 1.49883e-23)
(0.0036837 -5.99974e-06 6.04326e-24)
(0.0036934 -1.32643e-05 -8.8996e-24)
(0.00371088 -2.52767e-05 -3.58517e-24)
(0.00373585 -4.63111e-05 -2.70569e-24)
(0.00376757 -8.46495e-05 8.93549e-26)
(0.00379859 -0.000150707 1.98791e-24)
(0.00380999 -0.000240211 9.69153e-27)
(0.00534179 3.43233e-05 -5.96001e-26)
(0.00521598 2.8138e-05 -3.63867e-25)
(0.00512681 2.32579e-05 -2.25225e-25)
(0.00506367 1.8983e-05 6.20071e-25)
(0.00501966 1.488e-05 -1.72736e-24)
(0.00499031 1.06212e-05 4.30134e-24)
(0.00497245 5.69942e-06 -7.65175e-25)
(0.00496427 -3.29501e-07 2.60031e-24)
(0.00496441 -8.19502e-06 -1.43968e-23)
(0.00497172 -1.91561e-05 2.71457e-23)
(0.004986 -3.59188e-05 -2.62832e-23)
(0.00500528 -6.18018e-05 1.37955e-23)
(0.00502605 -0.000101856 -1.27488e-23)
(0.00504028 -0.000159383 1.2012e-23)
(0.00503706 -0.000227079 -4.78943e-24)
(0.00683838 5.68395e-05 7.87205e-26)
(0.00668467 4.68225e-05 2.8135e-25)
(0.00657475 3.89061e-05 -1.47823e-24)
(0.00649609 3.20161e-05 -9.17222e-25)
(0.00644041 2.54895e-05 2.48619e-24)
(0.00640223 1.8835e-05 8.78305e-25)
(0.00637762 1.13929e-05 -6.83182e-24)
(0.00636394 2.53583e-06 1.62271e-23)
(0.00635925 -8.47482e-06 -2.09838e-23)
(0.00636185 -2.31719e-05 5.04893e-24)
(0.00637003 -4.3488e-05 1.51404e-23)
(0.00638096 -7.15297e-05 -2.09498e-23)
(0.00639053 -0.000109267 1.04802e-23)
(0.00639268 -0.000156263 1.07382e-23)
(0.00638224 -0.000206372 -8.17628e-24)
(0.00844682 8.7052e-05 6.52355e-26)
(0.00826979 7.22003e-05 -3.85103e-25)
(0.00814156 6.03909e-05 1.37153e-24)
(0.00804857 5.01501e-05 -1.89378e-24)
(0.00798164 4.05638e-05 -6.34687e-24)
(0.00793447 3.09642e-05 1.0813e-23)
(0.0079025 2.0581e-05 -6.50251e-24)
(0.00788236 8.65166e-06 2.1949e-23)
(0.00787148 -5.5641e-06 -1.49411e-23)
(0.00786751 -2.33045e-05 -6.92489e-24)
(0.007868 -4.58448e-05 -1.35164e-23)
(0.00786985 -7.39708e-05 1.24375e-23)
(0.00786958 -0.000107674 3.48972e-24)
(0.00786338 -0.000145188 2.9916e-24)
(0.0078494 -0.00018234 -2.63287e-24)
(0.0101518 0.000125172 -9.46852e-26)
(0.00996044 0.000104809 1.27759e-24)
(0.00981922 8.84056e-05 -2.96041e-24)
(0.00971508 7.41664e-05 -2.38228e-24)
(0.00963872 6.09561e-05 9.29282e-25)
(0.00958344 4.79495e-05 1.77318e-24)
(0.00954428 3.43165e-05 6.22141e-24)
(0.00951741 1.92641e-05 -1.68055e-23)
(0.00949972 2.1111e-06 -8.83129e-24)
(0.00948845 -1.79297e-05 2.45325e-23)
(0.0094809 -4.1449e-05 -7.54402e-24)
(0.00947425 -6.83581e-05 2.58111e-23)
(0.00946597 -9.77733e-05 -1.3581e-23)
(0.00945386 -0.000127885 -4.33989e-24)
(0.00943767 -0.000156147 2.57208e-24)
(0.011926 0.000169893 -1.27318e-26)
(0.0117346 0.000144115 7.09655e-25)
(0.0115895 0.00012287 -1.00833e-24)
(0.0114801 0.000104276 2.38106e-24)
(0.0113982 8.70945e-05 -1.40957e-23)
(0.0113372 7.04142e-05 1.4852e-23)
(0.0112924 5.34117e-05 -2.31121e-23)
(0.0112596 3.53611e-05 1.42604e-23)
(0.0112356 1.57338e-05 1.05094e-23)
(0.0112175 -5.86616e-06 2.26316e-23)
(0.0112027 -2.94596e-05 -2.95445e-23)
(0.011189 -5.45643e-05 -5.4562e-24)
(0.0111747 -8.01577e-05 2.50247e-24)
(0.0111584 -0.000104878 1.80356e-23)
(0.0111405 -0.000127273 -7.34634e-24)
(0.0137326 0.000217615 7.23724e-26)
(0.0135593 0.000187779 -3.04399e-25)
(0.013423 0.000162271 1.33063e-24)
(0.0133172 0.000139539 -4.62386e-24)
(0.0132358 0.000118464 6.96666e-24)
(0.0131736 9.81877e-05 -8.91488e-24)
(0.0131261 7.7983e-05 1.48279e-23)
(0.0130896 5.72723e-05 2.52918e-24)
(0.0130612 3.57284e-05 -2.02577e-23)
(0.013038 1.32514e-05 2.87189e-23)
(0.013018 -9.89979e-06 -3.16467e-23)
(0.0129993 -3.31367e-05 -9.31787e-24)
(0.0129809 -5.5643e-05 1.64211e-23)
(0.0129619 -7.65681e-05 4.88723e-24)
(0.0129429 -9.51447e-05 -2.13772e-24)
(0.0155368 0.000262518 3.14331e-25)
(0.0153984 0.000231301 -2.41638e-24)
(0.015284 0.000203148 -3.70669e-24)
(0.0151919 0.000177291 8.871e-24)
(0.0151188 0.000153026 3.87689e-24)
(0.0150611 0.000129727 -2.43389e-23)
(0.0150156 0.000106875 7.55823e-24)
(0.0149791 8.4106e-05 5.39737e-24)
(0.0149493 6.12833e-05 -2.29463e-23)
(0.0149239 3.85114e-05 2.39593e-23)
(0.0149013 1.60901e-05 -1.91054e-23)
(0.0148802 -5.47862e-06 4.91038e-23)
(0.0148601 -2.56489e-05 -2.36398e-23)
(0.0148401 -4.39692e-05 1.39413e-23)
(0.0148209 -6.00804e-05 -3.81091e-24)
(0.0173257 0.000298798 -1.50785e-25)
(0.0172291 0.000269202 1.7012e-24)
(0.0171446 0.000240635 -3.19446e-24)
(0.0170736 0.000213315 -1.54889e-24)
(0.0170152 0.000187154 1.74375e-23)
(0.0169676 0.000161913 -2.63055e-24)
(0.0169285 0.000137369 -3.06093e-23)
(0.016896 0.000113401 3.55227e-23)
(0.0168684 9.00394e-05 -7.99792e-24)
(0.0168441 6.74615e-05 -2.74634e-23)
(0.0168221 4.59538e-05 2.92766e-23)
(0.0168014 2.58281e-05 1.58217e-23)
(0.0167818 7.40051e-06 -1.32451e-23)
(0.0167626 -9.1369e-06 -2.30715e-23)
(0.0167446 -2.36586e-05 1.94046e-24)
(0.0191193 0.000324645 3.21132e-26)
(0.0190574 0.0002983 -1.97466e-24)
(0.0190006 0.000270988 8.86734e-24)
(0.0189512 0.000243748 3.78446e-25)
(0.0189092 0.000217077 4.70814e-24)
(0.0188738 0.000191138 -1.72619e-23)
(0.0188437 0.00016601 1.45464e-23)
(0.0188177 0.000141788 3.23403e-24)
(0.0187949 0.00011862 2.96391e-23)
(0.0187741 9.66931e-05 -4.58786e-23)
(0.018755 7.62187e-05 -2.07425e-23)
(0.0187368 5.73699e-05 -1.37459e-23)
(0.0187196 4.0288e-05 2.58476e-23)
(0.0187028 2.50083e-05 -7.52884e-25)
(0.0186871 1.15321e-05 2.51714e-24)
(0.0209478 0.000343164 -3.53761e-27)
(0.0209071 0.000320007 2.14839e-24)
(0.020869 0.000294376 -3.10328e-24)
(0.0208354 0.00026791 2.56043e-26)
(0.0208062 0.000241548 3.5923e-24)
(0.0207809 0.000215761 8.97535e-24)
(0.0207588 0.000190852 -3.47905e-23)
(0.0207392 0.000167054 3.02571e-24)
(0.0207214 0.000144566 1.75702e-23)
(0.0207049 0.000123549 -8.04672e-24)
(0.0206894 0.000104132 2.19921e-23)
(0.0206745 8.63843e-05 1.54283e-23)
(0.0206603 7.03367e-05 -2.79843e-23)
(0.0206464 5.594e-05 1.92217e-23)
(0.0206335 4.31355e-05 -1.59785e-23)
(0.0228089 0.000357711 -3.10954e-25)
(0.0227812 0.0003374 -4.16469e-25)
(0.0227546 0.000313453 3.87482e-24)
(0.0227308 0.000287979 -1.79341e-23)
(0.0227099 0.000262255 1.56407e-23)
(0.0226914 0.000236993 -1.08686e-23)
(0.0226749 0.000212652 7.86428e-24)
(0.0226599 0.000189537 -5.44663e-23)
(0.022646 0.000167851 7.86324e-23)
(0.0226329 0.000147709 -4.61304e-23)
(0.0226205 0.000129176 4.11877e-23)
(0.0226085 0.000112247 3.44806e-23)
(0.0225971 9.6891e-05 -6.02639e-23)
(0.0225858 8.30214e-05 1.9635e-23)
(0.0225753 7.05494e-05 -8.2652e-25)
(0.0246519 0.000369168 -1.28265e-26)
(0.0246353 0.000351596 -1.48182e-24)
(0.0246179 0.000329409 1.54068e-24)
(0.0246017 0.000305253 -5.05873e-25)
(0.0245871 0.00028051 6.61175e-24)
(0.0245739 0.000256063 -1.11532e-23)
(0.0245618 0.000232494 1.01131e-23)
(0.0245505 0.000210149 -3.14694e-23)
(0.0245399 0.000189225 7.12305e-23)
(0.0245297 0.000169801 -9.08237e-23)
(0.0245199 0.0001519 7.42542e-23)
(0.0245104 0.000135481 -2.50579e-23)
(0.0245014 0.000120482 1.30765e-24)
(0.0244924 0.000106806 5.77497e-24)
(0.024484 9.43557e-05 -1.10536e-23)
(0.0263916 0.000373956 -1.01502e-24)
(0.0263856 0.000361806 5.59299e-25)
(0.026377 0.000341658 1.54149e-24)
(0.0263682 0.000319134 -3.54838e-24)
(0.0263598 0.000295698 1.20017e-23)
(0.0263517 0.000272342 -1.17209e-23)
(0.026344 0.000249728 -9.64347e-24)
(0.0263365 0.000228225 -2.27372e-23)
(0.0263293 0.000208022 1.20715e-23)
(0.0263222 0.000189183 5.50602e-23)
(0.0263153 0.000171712 -2.89568e-23)
(0.0263084 0.00015556 1.71566e-23)
(0.0263018 0.000140661 -7.0694e-24)
(0.0262952 0.000126921 -2.09175e-23)
(0.026289 0.000114249 1.07053e-23)
(0.0279199 0.000374954 3.21983e-25)
(0.0279201 0.000365472 -4.78993e-25)
(0.0279196 0.000347739 2.1794e-24)
(0.0279178 0.000327369 -7.85995e-24)
(0.0279151 0.000305783 -2.21601e-24)
(0.027912 0.000283988 2.1313e-23)
(0.0279087 0.000262659 -1.58499e-23)
(0.0279051 0.000242182 -9.02099e-24)
(0.0279015 0.000222758 8.51069e-24)
(0.0278976 0.000204467 -9.34361e-24)
(0.0278937 0.000187321 2.18905e-23)
(0.0278896 0.000171287 1.08619e-23)
(0.0278856 0.00015631 -4.06533e-23)
(0.0278815 0.000142318 2.80001e-23)
(0.0278776 0.000129235 -5.69358e-24)
(0.0290785 0.000371958 1.09315e-24)
(0.0290857 0.0003626 7.59312e-25)
(0.0290917 0.000347809 -2.15576e-24)
(0.0290957 0.000329826 3.20044e-24)
(0.0290984 0.000310282 -4.55919e-24)
(0.0291 0.000290237 -9.10153e-24)
(0.029101 0.000270351 -9.30055e-24)
(0.0291014 0.000251007 2.5245e-23)
(0.0291015 0.00023242 2.31702e-23)
(0.029101 0.00021469 -5.55529e-23)
(0.0291003 0.000197854 3.1193e-23)
(0.0290992 0.000181899 -2.1282e-24)
(0.029098 0.000166792 -1.70514e-24)
(0.0290965 0.000152485 2.27657e-24)
(0.0290951 0.000138923 -1.04328e-24)
(0.0296521 0.000358518 -2.7781e-24)
(0.0296665 0.000351049 -4.18521e-24)
(0.0296786 0.000338318 4.80172e-24)
(0.0296886 0.000322382 3.47223e-24)
(0.0296969 0.000304797 -3.27106e-25)
(0.0297039 0.000286526 3.18939e-24)
(0.0297099 0.000268148 -2.56789e-24)
(0.0297149 0.000250014 -1.89894e-23)
(0.0297193 0.000232334 4.28702e-23)
(0.0297229 0.000215223 -1.76932e-23)
(0.029726 0.000198736 7.05134e-24)
(0.0297286 0.000182888 -1.22897e-23)
(0.0297308 0.000167674 -1.25519e-23)
(0.0297326 0.000153069 1.83862e-23)
(0.0297341 0.000139044 -7.88131e-24)
(0.0294529 0.000340862 4.27846e-24)
(0.0294709 0.000334417 -9.28236e-24)
(0.0294868 0.000323301 2.02744e-24)
(0.0295008 0.000309226 8.38768e-24)
(0.0295131 0.000293454 -6.26517e-24)
(0.029524 0.000276798 1.69719e-25)
(0.0295337 0.000259776 -5.85895e-24)
(0.0295425 0.000242711 1.47468e-23)
(0.0295503 0.000225806 5.47217e-24)
(0.0295573 0.000209185 -1.06727e-23)
(0.0295636 0.000192924 -6.15343e-24)
(0.0295694 0.000177063 7.44785e-24)
(0.0295745 0.000161623 -8.07498e-24)
(0.0295793 0.000146606 4.73033e-24)
(0.0295836 0.000132007 -2.07372e-24)
(0.0285134 0.000316321 2.60241e-24)
(0.0285395 0.00031031 -5.33494e-24)
(0.0285628 0.000300342 -3.03817e-24)
(0.0285832 0.000287775 1.42357e-23)
(0.0286013 0.000273601 -1.17209e-23)
(0.0286174 0.000258485 1.75336e-24)
(0.0286317 0.000242861 1.45767e-24)
(0.0286446 0.000227008 5.26995e-26)
(0.028656 0.000211107 -1.49985e-24)
(0.0286663 0.000195279 1.11865e-23)
(0.0286755 0.000179609 -6.77853e-24)
(0.0286838 0.000164152 1.35139e-24)
(0.0286913 0.000148945 -1.29316e-23)
(0.028698 0.000134008 6.30371e-24)
(0.028704 0.000119354 2.20886e-24)
(0.0269883 0.000285773 6.41846e-24)
(0.0270173 0.000279926 -1.12642e-23)
(0.0270439 0.000270808 2.3512e-24)
(0.027068 0.000259497 -4.69532e-24)
(0.02709 0.00024677 -5.12714e-24)
(0.02711 0.000233142 1.87516e-23)
(0.0271282 0.00021896 -6.43941e-24)
(0.0271449 0.000204451 1.31387e-24)
(0.0271601 0.000189771 -4.88018e-25)
(0.0271741 0.000175035 1.09796e-24)
(0.0271868 0.000160326 -3.48261e-24)
(0.0271985 0.000145705 4.12608e-24)
(0.0272092 0.000131216 -1.51337e-25)
(0.0272191 0.000116892 -1.92484e-24)
(0.0272281 0.000102754 3.40632e-25)
(0.0251545 0.000256214 2.45996e-24)
(0.0251869 0.000250498 -1.2569e-23)
(0.0252169 0.000242089 2.14914e-23)
(0.0252444 0.000231823 -1.60829e-23)
(0.0252698 0.000220298 1.52254e-23)
(0.025293 0.000207911 -5.35695e-24)
(0.0253144 0.000194939 -3.46762e-24)
(0.025334 0.000181572 -3.11027e-24)
(0.0253521 0.000167953 3.89162e-24)
(0.0253687 0.00015419 -1.48778e-24)
(0.025384 0.000140366 -1.997e-24)
(0.025398 0.000126547 6.09812e-25)
(0.0254109 0.000112782 -9.4131e-25)
(0.0254228 9.91097e-05 4.92897e-25)
(0.0254336 8.55635e-05 -1.72809e-25)
(0.0231436 0.000225905 3.26749e-25)
(0.0231795 0.000220355 -4.75566e-24)
(0.0232129 0.000212591 -2.58628e-24)
(0.0232437 0.000203251 2.12782e-23)
(0.0232721 0.00019279 -2.06345e-23)
(0.0232984 0.000181523 5.95254e-24)
(0.0233226 0.000169677 9.50254e-25)
(0.0233449 0.000157419 -4.58661e-25)
(0.0233655 0.00014488 -1.79174e-24)
(0.0233844 0.000132159 6.76267e-24)
(0.0234018 0.000119339 -4.96929e-24)
(0.0234178 0.000106482 1.18152e-25)
(0.0234324 9.36422e-05 1.20786e-25)
(0.0234457 8.0861e-05 -6.24659e-25)
(0.0234578 6.81771e-05 5.72746e-25)
(0.0210559 0.000195176 4.8613e-25)
(0.0210946 0.000189874 4.4434e-24)
(0.0211309 0.000182764 -5.09831e-24)
(0.0211644 0.000174334 -3.49249e-24)
(0.0211955 0.000164933 2.19475e-23)
(0.0212242 0.000154811 -1.68023e-23)
(0.0212507 0.000144154 -4.4683e-25)
(0.0212752 0.000133108 -3.19895e-24)
(0.0212977 0.000121784 -1.35064e-25)
(0.0213185 0.000110276 5.19398e-25)
(0.0213374 9.86546e-05 -8.88211e-25)
(0.0213548 8.69815e-05 1.19087e-24)
(0.0213706 7.53078e-05 5.18729e-25)
(0.0213848 6.36771e-05 2.94738e-25)
(0.0213976 5.21285e-05 -2.98721e-25)
(0.018962 0.000164977 3.46564e-24)
(0.0190029 0.000160033 -5.32276e-24)
(0.0190411 0.000153637 -4.29465e-24)
(0.0190766 0.000146163 1.30721e-23)
(0.0191095 0.000137873 -4.69475e-24)
(0.0191399 0.00012896 -6.45577e-24)
(0.0191681 0.000119575 2.29181e-24)
(0.019194 0.000109839 4.76987e-24)
(0.0192177 9.98477e-05 -7.19666e-24)
(0.0192395 8.96803e-05 6.70643e-24)
(0.0192593 7.94019e-05 -3.21399e-24)
(0.0192773 6.90687e-05 1.1099e-24)
(0.0192935 5.87304e-05 -6.6089e-25)
(0.0193079 4.84308e-05 2.29369e-25)
(0.0193206 3.82104e-05 1.43133e-25)
(0.0169102 0.000136179 -6.72901e-25)
(0.0169521 0.000131719 -2.35575e-24)
(0.0169913 0.000126114 -7.53033e-24)
(0.0170277 0.000119654 2.09897e-23)
(0.0170614 0.000112523 -3.79424e-24)
(0.0170926 0.000104866 -5.89145e-24)
(0.0171214 9.68031e-05 1.96004e-24)
(0.0171478 8.84344e-05 -2.8579e-24)
(0.0171719 7.9841e-05 -5.68168e-24)
(0.0171939 7.10901e-05 5.5126e-24)
(0.0172137 6.22402e-05 2.63447e-25)
(0.0172315 5.3343e-05 -1.07616e-24)
(0.0172473 4.44455e-05 1.25743e-24)
(0.0172611 3.55894e-05 -2.56438e-26)
(0.0172729 2.68118e-05 1.45545e-26)
(0.014932 0.000109595 2.59029e-24)
(0.0149736 0.000105723 3.85974e-24)
(0.0150126 0.000100973 -3.56423e-24)
(0.0150487 9.55606e-05 -7.86082e-24)
(0.0150822 8.96024e-05 1.05665e-23)
(0.0151131 8.32085e-05 -1.1501e-23)
(0.0151415 7.64765e-05 -3.46443e-25)
(0.0151675 6.94873e-05 4.40621e-24)
(0.015191 6.23082e-05 1.48251e-24)
(0.0152123 5.49964e-05 -2.71782e-24)
(0.0152313 4.76031e-05 3.13188e-25)
(0.0152481 4.01741e-05 4.52133e-24)
(0.0152628 3.27519e-05 -1.6927e-24)
(0.0152753 2.53734e-05 -2.62755e-25)
(0.0152857 1.80742e-05 -3.78352e-28)
(0.0130472 8.58844e-05 -2.69132e-24)
(0.0130873 8.26598e-05 3.47001e-24)
(0.0131248 7.87888e-05 3.98683e-25)
(0.0131596 7.44103e-05 7.12294e-24)
(0.0131918 6.95931e-05 -5.80949e-24)
(0.0132214 6.44245e-05 4.39296e-25)
(0.0132485 5.89824e-05 -6.54113e-25)
(0.0132732 5.33313e-05 -1.8017e-24)
(0.0132954 4.75252e-05 1.42779e-24)
(0.0133153 4.16118e-05 -4.55909e-24)
(0.0133328 3.56343e-05 5.10331e-25)
(0.0133481 2.9632e-05 1.09957e-24)
(0.0133611 2.3642e-05 5.73985e-25)
(0.0133718 1.76947e-05 1.6652e-25)
(0.0133804 1.18249e-05 6.69891e-27)
(0.011268 6.54423e-05 1.99387e-24)
(0.0113055 6.28749e-05 -1.57366e-24)
(0.0113405 5.98537e-05 -7.02742e-24)
(0.011373 5.64441e-05 6.60066e-24)
(0.011403 5.26885e-05 9.23435e-24)
(0.0114306 4.86579e-05 -2.38522e-24)
(0.0114558 4.44123e-05 -4.77388e-24)
(0.0114785 4.00011e-05 -6.46956e-24)
(0.0114989 3.54668e-05 4.81669e-24)
(0.0115169 3.08484e-05 2.2133e-25)
(0.0115326 2.61807e-05 -9.70516e-25)
(0.011546 2.14962e-05 -1.78926e-25)
(0.0115572 1.68254e-05 3.85719e-25)
(0.0115661 1.2195e-05 -5.3453e-26)
(0.0115728 7.63133e-06 -1.11355e-26)
(0.00960193 4.83766e-05 -1.25509e-24)
(0.00963596 4.64283e-05 -9.11778e-25)
(0.00966775 4.4178e-05 1.09117e-24)
(0.00969729 4.16291e-05 -3.51693e-24)
(0.00972457 3.88153e-05 1.15258e-23)
(0.00974957 3.5793e-05 -1.52325e-23)
(0.0097723 3.2606e-05 1.48288e-23)
(0.00979276 2.92911e-05 -6.24066e-24)
(0.00981098 2.5881e-05 1.3333e-24)
(0.00982695 2.24061e-05 -6.73458e-26)
(0.0098407 1.88936e-05 -1.028e-24)
(0.00985226 1.53691e-05 1.87123e-25)
(0.00986164 1.1857e-05 -5.84916e-25)
(0.0098689 8.37913e-06 -3.21943e-26)
(0.00987404 4.95441e-06 6.05041e-27)
(0.00805303 3.45552e-05 -6.09973e-25)
(0.00808307 3.31522e-05 1.52628e-25)
(0.00811121 3.15581e-05 3.41717e-25)
(0.00813739 2.97351e-05 -1.60428e-24)
(0.00816156 2.77177e-05 -7.22433e-25)
(0.00818371 2.55474e-05 6.24181e-24)
(0.0082038 2.32546e-05 -3.66321e-24)
(0.00822184 2.08658e-05 5.05425e-25)
(0.00823782 1.84053e-05 -4.95133e-25)
(0.00825174 1.58957e-05 -4.88826e-25)
(0.00826361 1.33574e-05 -9.24735e-26)
(0.00827345 1.08099e-05 7.76333e-25)
(0.00828128 8.27187e-06 3.2514e-26)
(0.00828713 5.75924e-06 -3.2414e-25)
(0.00829104 3.28684e-06 -1.07923e-26)
(0.0066229 2.36896e-05 -2.21861e-25)
(0.00664868 2.27364e-05 -7.57389e-26)
(0.00667294 2.16677e-05 -3.62661e-24)
(0.00669555 2.04276e-05 9.50066e-25)
(0.00671645 1.90527e-05 -2.61466e-24)
(0.00673561 1.75697e-05 1.85037e-24)
(0.00675299 1.59987e-05 3.45469e-24)
(0.00676858 1.43583e-05 2.51244e-24)
(0.00678235 1.26655e-05 -3.45825e-24)
(0.0067943 1.09364e-05 1.04331e-24)
(0.00680443 9.18564e-06 7.80763e-25)
(0.00681275 7.42715e-06 -9.64399e-25)
(0.00681928 5.67493e-06 5.05861e-25)
(0.00682406 3.93968e-06 3.85242e-26)
(0.00682709 2.23219e-06 2.0981e-26)
(0.00531085 1.54119e-05 -8.69119e-25)
(0.00533229 1.48066e-05 -1.20666e-24)
(0.00535258 1.41349e-05 -2.31216e-25)
(0.00537154 1.33414e-05 3.00362e-24)
(0.00538912 1.24603e-05 -2.13092e-24)
(0.00540526 1.15064e-05 -4.04254e-25)
(0.00541992 1.04924e-05 3.39667e-24)
(0.00543307 9.4303e-06 -2.17942e-26)
(0.00544469 8.33147e-06 -6.96571e-25)
(0.00545477 7.20675e-06 -2.2768e-24)
(0.00546329 6.06599e-06 3.62462e-25)
(0.00547028 4.91881e-06 1.35723e-24)
(0.00547573 3.775e-06 -1.68061e-25)
(0.00547968 2.64167e-06 -5.74494e-26)
(0.00548213 1.52553e-06 1.88901e-26)
(0.00411415 9.33138e-06 -1.89992e-25)
(0.00413131 8.97705e-06 9.9058e-27)
(0.00414765 8.58791e-06 1.43911e-24)
(0.00416297 8.11968e-06 9.70755e-25)
(0.00417722 7.59918e-06 -6.66831e-25)
(0.00419034 7.03265e-06 -1.64734e-24)
(0.00420229 6.4276e-06 6.5661e-25)
(0.00421303 5.79144e-06 -2.71143e-24)
(0.00422255 5.13105e-06 2.07969e-24)
(0.00423082 4.45322e-06 9.74496e-25)
(0.00423783 3.76414e-06 -8.99878e-26)
(0.00424359 3.06996e-06 -9.48547e-25)
(0.0042481 2.37705e-06 1.30885e-25)
(0.00425137 1.69007e-06 -4.93128e-26)
(0.00425342 1.01338e-06 9.93648e-27)
(0.00302841 5.06708e-06 -3.49896e-25)
(0.0030414 4.87876e-06 4.63608e-27)
(0.00305387 4.67686e-06 1.15303e-24)
(0.00306559 4.43065e-06 -7.21748e-25)
(0.00307654 4.15682e-06 2.97898e-24)
(0.00308667 3.85695e-06 -5.4156e-24)
(0.00309592 3.53509e-06 4.37518e-24)
(0.00310428 3.19525e-06 -3.59438e-24)
(0.00311171 2.84117e-06 2.51704e-24)
(0.0031182 2.47669e-06 -1.54508e-24)
(0.00312373 2.10524e-06 5.19838e-25)
(0.00312829 1.73035e-06 6.79589e-26)
(0.0031319 1.35571e-06 6.43974e-26)
(0.00313456 9.84253e-07 -6.67217e-26)
(0.00313628 6.19485e-07 4.20179e-27)
(0.00204788 2.27981e-06 5.31059e-25)
(0.00205688 2.19057e-06 5.8197e-25)
(0.00206558 2.10156e-06 -2.47869e-24)
(0.00207379 1.99343e-06 1.81865e-24)
(0.0020815 1.87351e-06 -1.80048e-26)
(0.00208866 1.74176e-06 4.64575e-25)
(0.00209524 1.60005e-06 -5.74617e-25)
(0.00210121 1.45021e-06 -1.16243e-24)
(0.00210655 1.29394e-06 1.13566e-24)
(0.00211124 1.13306e-06 9.25767e-26)
(0.00211526 9.6913e-07 -7.95959e-25)
(0.00211862 8.03842e-07 2.9165e-25)
(0.0021213 6.38895e-07 1.27833e-25)
(0.00212332 4.75895e-07 -1.94663e-26)
(0.00212469 3.1754e-07 -2.8971e-27)
(0.0011659 7.11148e-07 -5.36076e-25)
(0.00117111 6.85391e-07 1.6472e-24)
(0.00117619 6.63868e-07 9.95944e-25)
(0.001181 6.35403e-07 -1.78119e-24)
(0.00118554 6.01846e-07 -2.09481e-25)
(0.00118979 5.63349e-07 -1.86139e-25)
(0.00119371 5.20776e-07 5.60222e-25)
(0.0011973 4.74927e-07 -9.34883e-25)
(0.00120052 4.26499e-07 1.23017e-24)
(0.00120337 3.76231e-07 -6.05519e-25)
(0.00120584 3.2471e-07 -3.4928e-25)
(0.00120792 2.72598e-07 1.94702e-25)
(0.00120961 2.20426e-07 -1.5238e-25)
(0.00121092 1.68795e-07 1.25162e-25)
(0.00121184 1.19111e-07 -6.46092e-27)
(0.000375266 1.3229e-07 -3.82849e-27)
(0.000376906 1.69577e-07 3.20985e-25)
(0.000378527 2.00801e-07 3.71225e-25)
(0.000380076 2.23009e-07 -5.7905e-25)
(0.000381556 2.37015e-07 1.20608e-24)
(0.000382953 2.43391e-07 -1.3081e-24)
(0.000384256 2.42754e-07 8.43928e-26)
(0.000385457 2.35643e-07 6.93493e-25)
(0.000386548 2.22525e-07 -9.554e-25)
(0.000387523 2.03857e-07 -1.49787e-25)
(0.000388377 1.8004e-07 5.80638e-25)
(0.000389107 1.51499e-07 -2.46324e-25)
(0.000389711 1.1858e-07 -5.86265e-26)
(0.00039019 8.16433e-08 4.38e-26)
(0.000390544 4.13123e-08 -5.51154e-28)
(0.000928491 -0.000255274 1.02923e-25)
(0.00105902 -0.000183866 2.7423e-24)
(0.001278 -0.000109415 -8.03966e-24)
(0.0015003 -4.93135e-05 1.19933e-23)
(0.00171193 -1.40225e-06 -4.50423e-24)
(0.00191835 3.55861e-05 -4.53679e-24)
(0.00212025 6.4459e-05 5.24079e-24)
(0.00231909 8.75072e-05 -1.05338e-23)
(0.00251643 0.000106593 6.14178e-25)
(0.00271357 0.000123218 6.72261e-24)
(0.00291166 0.000138666 -1.29565e-24)
(0.00311165 0.00015421 1.4107e-24)
(0.00331446 0.000171269 -1.31374e-25)
(0.00352117 0.000191496 9.16961e-25)
(0.00373313 0.000216702 -3.38809e-24)
(0.00395214 0.000248571 1.87344e-24)
(0.00418032 0.000288202 -6.40503e-25)
(0.00442036 0.000335423 8.31729e-27)
(0.00467491 0.000387494 1.69373e-24)
(0.00494809 0.000437273 -1.08973e-24)
(0.00524418 0.000472455 1.51756e-25)
(0.0055686 0.000472312 -1.35379e-25)
(0.0059006 0.000415417 2.63938e-25)
(0.00620012 0.00030854 1.00005e-24)
(0.00645285 0.000169464 -1.79576e-24)
(0.00665807 1.11436e-05 -1.16973e-24)
(0.00681519 -0.00015626 6.86024e-26)
(0.00692473 -0.000326229 2.867e-24)
(0.00698735 -0.000494442 3.87942e-24)
(0.00700345 -0.000656861 -7.62841e-24)
(0.0069735 -0.000808945 6.46061e-24)
(0.00689822 -0.000945738 -5.92385e-24)
(0.00677875 -0.00106194 1.55397e-24)
(0.0066167 -0.00115183 -1.42581e-25)
(0.00641419 -0.00120912 6.11438e-26)
(0.00617364 -0.00122677 6.60111e-24)
(0.00589766 -0.00119668 -1.0897e-24)
(0.00558886 -0.00110893 2.58876e-24)
(0.0052499 -0.00095041 1.65808e-24)
(0.00488397 -0.000702793 -1.25885e-23)
(0.0044943 -0.000342489 -1.60338e-25)
(0.0040858 0.000151439 5.83474e-24)
(0.00364806 0.000762031 2.1725e-24)
(0.00319909 0.00138742 -8.46746e-24)
(0.00294387 0.00166639 -4.47235e-25)
(0.00174364 -0.000334581 -3.07975e-24)
(0.00179558 -0.000296182 -4.53117e-24)
(0.00192705 -0.000223945 9.40217e-24)
(0.0020931 -0.000155974 4.63522e-24)
(0.0022686 -9.74426e-05 -1.62439e-23)
(0.00244928 -4.98967e-05 1.76461e-23)
(0.00263161 -1.16318e-05 -6.36721e-24)
(0.00281457 1.9537e-05 5.24389e-24)
(0.00299835 4.56041e-05 -6.92076e-24)
(0.00318347 6.82561e-05 7.32346e-26)
(0.00337063 8.89563e-05 -3.76204e-24)
(0.00356056 0.000109114 7.47488e-24)
(0.00375408 0.000130234 -4.16397e-24)
(0.00395223 0.000154009 -3.85729e-24)
(0.0041564 0.000182262 -2.74015e-24)
(0.00436844 0.00021667 4.949e-24)
(0.00459059 0.000258323 -7.32386e-25)
(0.00482568 0.00030706 2.9432e-24)
(0.00507643 0.00036013 6.0854e-25)
(0.00534685 0.000410421 -9.51334e-25)
(0.00564095 0.000445781 -4.44664e-25)
(0.00596371 0.000445753 -2.94361e-25)
(0.0062942 0.000389611 1.43466e-24)
(0.00659263 0.000284689 1.71226e-24)
(0.00684484 0.000148697 -1.58601e-24)
(0.00705015 -5.49388e-06 -7.24665e-24)
(0.00720788 -0.000167934 9.62471e-24)
(0.00731856 -0.000331929 -6.58049e-24)
(0.00738289 -0.000493121 2.19477e-24)
(0.00740144 -0.000647393 -1.2803e-24)
(0.00737492 -0.000790165 9.50304e-24)
(0.00730441 -0.000916475 -1.24203e-23)
(0.00719148 -0.00102106 5.97757e-24)
(0.00703831 -0.00109824 -7.13569e-25)
(0.00684769 -0.00114183 -3.74942e-24)
(0.00662299 -0.00114488 1.38799e-24)
(0.0063682 -0.00109938 1.33012e-23)
(0.00608803 -0.000995614 -3.08403e-24)
(0.00578845 -0.000820997 -1.18419e-23)
(0.00547824 -0.000558319 -7.79225e-24)
(0.0051709 -0.0001855 1.78383e-23)
(0.0048899 0.000317545 -1.79095e-23)
(0.00466249 0.000933743 -4.9057e-24)
(0.00453289 0.00154754 1.20885e-23)
(0.00456128 0.00175849 4.5276e-24)
(0.00270444 -0.000339889 -3.67132e-26)
(0.00270871 -0.000340503 -5.258e-24)
(0.00275991 -0.00029915 1.00363e-23)
(0.00286053 -0.000240997 8.91606e-24)
(0.0029861 -0.000182674 -1.44166e-23)
(0.00312806 -0.000130587 2.79651e-25)
(0.00327978 -8.62505e-05 1.4472e-24)
(0.00343774 -4.87917e-05 1.60694e-23)
(0.00360033 -1.67649e-05 -1.90691e-23)
(0.00376691 1.13325e-05 1.18715e-23)
(0.00393745 3.69421e-05 3.66708e-24)
(0.00411226 6.15004e-05 -2.00154e-23)
(0.0042919 8.6534e-05 7.23625e-24)
(0.00447731 0.000113741 2.94668e-24)
(0.00466981 0.000144931 -6.32165e-24)
(0.00487131 0.000181762 1.05115e-23)
(0.00508417 0.000225312 -7.65316e-24)
(0.00531138 0.000275443 -3.15347e-25)
(0.00555576 0.000329415 5.31138e-25)
(0.00582133 0.000380166 7.03174e-25)
(0.00611175 0.00041571 6.80724e-26)
(0.00643147 0.000415856 5.00742e-25)
(0.00675929 0.000360546 -1.45458e-24)
(0.00705559 0.000257676 4.29953e-24)
(0.00730638 0.000124886 -6.68432e-24)
(0.00751096 -2.5083e-05 3.82294e-24)
(0.0076686 -0.000182307 -8.44048e-24)
(0.00777985 -0.000340088 1.13479e-23)
(0.00784549 -0.000493965 -1.00208e-23)
(0.00786626 -0.000639746 7.07843e-25)
(0.00784314 -0.000772814 3.92059e-25)
(0.00777762 -0.000888214 1.45771e-23)
(0.00767176 -0.000980736 -4.61992e-24)
(0.00752833 -0.00104484 -1.92132e-25)
(0.00735088 -0.00107451 -4.41971e-24)
(0.0071438 -0.00106312 1.32271e-23)
(0.0069125 -0.00100312 -1.03356e-23)
(0.0066638 -0.000885693 1.88889e-23)
(0.00640682 -0.000700039 -3.71813e-23)
(0.00615501 -0.000432548 1.43974e-23)
(0.00592918 -6.75872e-05 5.30355e-24)
(0.00576225 0.000404825 9.05946e-24)
(0.00569374 0.000958388 -1.13184e-23)
(0.00575288 0.00147554 3.78743e-24)
(0.005925 0.00164285 -2.41398e-24)
(0.00379577 -0.000319288 -1.33582e-24)
(0.0037718 -0.000344468 -2.09852e-24)
(0.00377473 -0.000330057 -9.07324e-24)
(0.00381247 -0.000294734 2.25885e-24)
(0.00388391 -0.000246796 1.5274e-24)
(0.00397884 -0.000197934 7.51132e-24)
(0.00409069 -0.000152778 -1.6264e-23)
(0.00421479 -0.000112456 6.10335e-24)
(0.00434812 -7.66921e-05 2.10734e-23)
(0.00448891 -4.46119e-05 -5.57427e-24)
(0.0046363 -1.50847e-05 -5.31074e-24)
(0.00479004 1.31734e-05 -8.53743e-25)
(0.00495035 4.15996e-05 2.84235e-24)
(0.00511796 7.18227e-05 -5.61673e-24)
(0.00529407 0.000105594 1.26125e-24)
(0.00548061 0.000144514 -5.58966e-25)
(0.00568006 0.000189631 -3.18723e-24)
(0.0058956 0.000240831 9.26725e-25)
(0.00613023 0.000295406 5.94902e-24)
(0.00638803 0.000346378 -5.87559e-25)
(0.00667238 0.000381971 -1.50455e-24)
(0.0069871 0.000382276 -4.55015e-25)
(0.00731059 0.000327904 -2.57741e-24)
(0.00760332 0.000227271 -1.07829e-25)
(0.00785139 9.79115e-05 -5.87628e-24)
(0.00805406 -4.75644e-05 1.02579e-23)
(0.00821054 -0.000199251 -8.50923e-24)
(0.00832145 -0.000350452 1.62672e-23)
(0.00838769 -0.000496612 -1.36764e-23)
(0.00841018 -0.000633469 3.14859e-24)
(0.00839025 -0.000756402 5.49262e-24)
(0.0083298 -0.000860513 -2.0988e-25)
(0.00823143 -0.000940718 -4.34888e-25)
(0.00809854 -0.000991707 -6.46712e-25)
(0.00793545 -0.00100784 9.09844e-26)
(0.00774756 -0.000983046 -4.64926e-24)
(0.00754162 -0.000910719 2.42986e-23)
(0.00732623 -0.000783597 -1.26742e-23)
(0.00711283 -0.000593739 -2.80667e-26)
(0.0069175 -0.000332759 -3.55633e-23)
(0.00676303 6.19868e-06 2.72475e-23)
(0.00668149 0.000421427 -1.10293e-23)
(0.00670745 0.000881854 1.75554e-24)
(0.00685269 0.00129473 1.57447e-23)
(0.00708274 0.00147708 -4.43388e-24)
(0.00501394 -0.000288059 -5.56264e-24)
(0.00497927 -0.000323043 1.14466e-23)
(0.00495333 -0.0003275 3.35687e-24)
(0.0049509 -0.00031318 1.45491e-23)
(0.00497151 -0.000283452 -3.58742e-23)
(0.00501872 -0.000244384 -1.16929e-24)
(0.00508616 -0.000204253 1.7613e-24)