/*--------------------------------*- C++ -*----------------------------------*\
| =========                 |                                                 |
| \\      /  F ield         | OpenFOAM: The Open Source CFD Toolbox           |
|  \\    /   O peration     | Version:  2312                                  |
|   \\  /    A nd           | Website:  www.openfoam.com                      |
|    \\/     M anipulation  |                                                 |
\*---------------------------------------------------------------------------*/
FoamFile
{
    version     2.0;
    format      ascii;
    arch        "LSB;label=32;scalar=64";
    class       volVectorField;
    location    "188";
    object      U;
}
// * * * * * * * * * * * * * * * * * * * * * * * * * * * * * * * * * * * * * //

dimensions      [0 1 -1 0 0 0 0];

internalField   nonuniform List<vector> 
4800
(
(0.000490253 3.89349e-07 -3.41517e-26)
(0.000480274 4.54071e-07 -2.40711e-25)
(0.000473577 4.91117e-07 3.08782e-25)
(0.000469185 5.00871e-07 1.41702e-25)
(0.000466508 4.80752e-07 2.09632e-24)
(0.0004652 4.48675e-07 -4.99687e-24)
(0.000465062 3.91481e-07 4.66501e-24)
(0.000466067 3.06845e-07 -6.75271e-24)
(0.000468153 1.63303e-07 2.17137e-24)
(0.000471487 -1.1782e-07 7.38403e-24)
(0.000476497 -6.71698e-07 -2.2768e-24)
(0.000484515 -2.13926e-06 -1.94835e-25)
(0.000502826 -7.47893e-06 -2.76584e-24)
(0.000549967 -2.91347e-05 1.26632e-24)
(0.000629111 -9.62243e-05 -1.00158e-24)
(0.00151263 2.03639e-06 -1.08606e-25)
(0.00148193 1.61478e-06 1.35383e-25)
(0.00146108 1.27332e-06 -1.25376e-24)
(0.00144713 9.56908e-07 9.36319e-25)
(0.00143833 6.24856e-07 3.01404e-24)
(0.00143359 2.69303e-07 -4.81348e-24)
(0.00143229 -1.63872e-07 -1.3624e-24)
(0.00143423 -7.4542e-07 -3.1743e-25)
(0.00143919 -1.57243e-06 1.11941e-23)
(0.00144777 -2.96129e-06 -8.28152e-24)
(0.00146109 -5.57005e-06 9.02082e-25)
(0.00148201 -1.16541e-05 1.36907e-24)
(0.00151947 -2.90634e-05 -2.01436e-24)
(0.00158469 -8.21877e-05 -5.88572e-25)
(0.00165593 -0.000203455 2.61036e-24)
(0.00263934 6.58309e-06 -7.77007e-26)
(0.00258624 5.20478e-06 7.93698e-26)
(0.0025498 4.11906e-06 8.2017e-25)
(0.00252508 3.14779e-06 -1.95713e-24)
(0.00250904 2.1715e-06 1.92258e-24)
(0.00249986 1.08682e-06 1.813e-24)
(0.00249633 -2.47783e-07 -4.64073e-24)
(0.00249813 -2.00457e-06 -2.84238e-24)
(0.00250455 -4.45488e-06 6.90958e-24)
(0.00251657 -8.36222e-06 2.61314e-24)
(0.00253525 -1.5214e-05 -9.09006e-24)
(0.00256281 -2.90535e-05 -1.36169e-24)
(0.00260342 -5.97157e-05 3.87683e-24)
(0.00265587 -0.000127281 6.09391e-24)
(0.00269432 -0.000241043 -3.14376e-24)
(0.0038764 1.47883e-05 2.86983e-26)
(0.00379967 1.18148e-05 -2.00272e-25)
(0.00374645 9.47775e-06 8.95294e-25)
(0.00370979 7.39967e-06 9.61086e-25)
(0.0036854 5.33214e-06 -9.53036e-25)
(0.00367063 3.06092e-06 -5.5207e-24)
(0.00366359 3.33852e-07 -3.76234e-24)
(0.00366387 -3.3135e-06 1.397e-23)
(0.00366995 -8.04921e-06 5.74219e-24)
(0.00368278 -1.54673e-05 -8.35439e-24)
(0.00370274 -2.75196e-05 -3.36799e-24)
(0.00373006 -4.87897e-05 -2.56065e-24)
(0.00376396 -8.75667e-05 7.93471e-26)
(0.00379703 -0.000154398 1.88962e-24)
(0.00381018 -0.00024506 9.23418e-27)
(0.00522779 2.74782e-05 -5.26116e-26)
(0.00512713 2.21401e-05 -3.22936e-25)
(0.00505646 1.79438e-05 -2.05876e-25)
(0.00500701 1.42332e-05 5.53029e-25)
(0.00497328 1.05818e-05 -1.57665e-24)
(0.00495179 6.64706e-06 3.93461e-24)
(0.00494001 1.98589e-06 -6.93366e-25)
(0.00493691 -3.96107e-06 2.4134e-24)
(0.00494082 -1.15891e-05 -1.33659e-23)
(0.00495165 -2.28229e-05 2.5523e-23)
(0.00496883 -3.96951e-05 -2.4734e-23)
(0.00499075 -6.58975e-05 1.30358e-23)
(0.0050139 -0.000106493 -1.20901e-23)
(0.00503025 -0.000164831 1.14135e-23)
(0.0050288 -0.000233581 -4.55626e-24)
(0.00669368 4.55848e-05 6.94519e-26)
(0.00657057 3.70653e-05 2.49718e-25)
(0.00648285 3.03518e-05 -1.3188e-24)
(0.00642043 2.44439e-05 -8.38536e-25)
(0.00637679 1.86971e-05 2.24513e-24)
(0.0063477 1.26241e-05 8.06302e-25)
(0.00633003 5.6061e-06 -6.30866e-24)
(0.00632196 -2.9509e-06 1.50529e-23)
(0.00632168 -1.38249e-05 -1.95639e-23)
(0.00632803 -2.86504e-05 4.69296e-24)
(0.00633933 -4.9132e-05 1.42479e-23)
(0.00635302 -7.75341e-05 -1.97867e-23)
(0.006365 -0.000115843 9.90502e-24)
(0.00636921 -0.000163621 1.01913e-23)
(0.00636047 -0.000214663 -7.76364e-24)
(0.00826816 6.98056e-05 5.74435e-26)
(0.00812685 5.73789e-05 -3.40551e-25)
(0.00802434 4.75225e-05 1.22272e-24)
(0.00794998 3.8868e-05 -1.69855e-24)
(0.00789671 3.05376e-05 -5.78229e-24)
(0.00785973 2.18946e-05 9.85764e-24)
(0.00783545 1.22038e-05 -5.98646e-24)
(0.00782135 7.63561e-07 2.03665e-23)
(0.00781524 -1.31686e-05 -1.38535e-23)
(0.0078152 -3.09359e-05 -6.46989e-24)
(0.00781891 -5.36258e-05 -1.27266e-23)
(0.0078235 -8.20907e-05 1.16979e-23)
(0.00782556 -0.000116326 3.29347e-24)
(0.0078213 -0.000154535 2.83344e-24)
(0.0078089 -0.000192488 -2.49441e-24)
(0.00993655 0.000100109 -8.30435e-26)
(0.00978528 8.33877e-05 1.12812e-24)
(0.00967293 6.99531e-05 -2.62973e-24)
(0.00958962 5.81278e-05 -2.16191e-24)
(0.00952841 4.68334e-05 8.05654e-25)
(0.00948432 3.53055e-05 1.59102e-24)
(0.00945353 2.27665e-05 5.71561e-24)
(0.00943308 8.48639e-06 -1.55683e-23)
(0.0094204 -8.16172e-06 -8.30424e-24)
(0.00941316 -2.80342e-05 2.28572e-23)
(0.00940886 -5.15938e-05 -7.09603e-24)
(0.00940487 -7.87411e-05 2.42796e-23)
(0.00939879 -0.000108575 -1.27873e-23)
(0.00938847 -0.000139246 -4.09805e-24)
(0.00937372 -0.000168154 2.43029e-24)
(0.0116741 0.00013509 -1.10884e-26)
(0.0115255 0.00011439 6.25097e-25)
(0.0114117 9.73809e-05 -8.90228e-25)
(0.0113249 8.22641e-05 2.13851e-24)
(0.0112594 6.78659e-05 -1.27631e-23)
(0.0112106 5.33612e-05 1.34787e-23)
(0.0111746 3.80073e-05 -2.12541e-23)
(0.0111486 2.11571e-05 1.30655e-23)
(0.0111299 2.35482e-06 9.71999e-24)
(0.0111159 -1.8769e-05 2.11253e-23)
(0.0111044 -4.21844e-05 -2.76013e-23)
(0.0110933 -6.73372e-05 -5.13771e-24)
(0.011081 -9.31622e-05 2.3325e-24)
(0.0110663 -0.00011825 1.69722e-23)
(0.0110497 -0.000141105 -6.91893e-24)
(0.0134489 0.000171395 6.2298e-26)
(0.0133186 0.000148081 -2.65698e-25)
(0.0132144 0.000128224 1.1785e-24)
(0.0131322 0.000110221 -4.13411e-24)
(0.0130681 9.29902e-05 6.26967e-24)
(0.0130185 7.57661e-05 -8.10019e-24)
(0.0129805 5.79282e-05 1.35662e-23)
(0.0129511 3.90002e-05 2.38458e-24)
(0.0129281 1.87486e-05 -1.8717e-23)
(0.0129091 -2.85051e-06 2.66978e-23)
(0.0128923 -2.54684e-05 -2.94678e-23)
(0.0128761 -4.84548e-05 -8.73389e-24)
(0.0128597 -7.09238e-05 1.53564e-23)
(0.0128423 -9.19654e-05 4.5813e-24)
(0.0128245 -0.000110768 -2.00549e-24)
(0.0152331 0.00020397 2.65153e-25)
(0.0151345 0.000180406 -2.09842e-24)
(0.0150508 0.000159243 -3.30403e-24)
(0.0149817 0.000139419 7.85983e-24)
(0.0149258 0.000120168 3.51094e-24)
(0.0148809 0.000100934 -2.2057e-23)
(0.0148449 8.13096e-05 6.79061e-24)
(0.0148156 6.10471e-05 4.89022e-24)
(0.0147912 4.01302e-05 -2.12253e-23)
(0.01477 1.87481e-05 2.20774e-23)
(0.0147507 -2.67783e-06 -1.77889e-23)
(0.0147321 -2.35835e-05 4.56515e-23)
(0.0147138 -4.33477e-05 -2.20263e-23)
(0.0146953 -6.14531e-05 1.30054e-23)
(0.0146773 -7.74928e-05 -3.55845e-24)
(0.01702 0.00022816 -1.22026e-25)
(0.0169569 0.000206819 1.46459e-24)
(0.0168991 0.000186251 -2.7878e-24)
(0.0168488 0.000166107 -1.39367e-24)
(0.0168062 0.000146083 1.56212e-23)
(0.0167705 0.000125946 -2.27148e-24)
(0.0167405 0.000105561 -2.77707e-23)
(0.0167149 8.49177e-05 3.2413e-23)
(0.0166925 6.41757e-05 -7.26977e-24)
(0.0166722 4.36281e-05 -2.52759e-23)
(0.0166532 2.36666e-05 2.70225e-23)
(0.0166348 4.70856e-06 1.46809e-23)
(0.016617 -1.2855e-05 -1.22399e-23)
(0.0165991 -2.87682e-05 -2.14005e-23)
(0.0165821 -4.28514e-05 1.8019e-24)
(0.0188305 0.000242955 2.2458e-26)
(0.0187947 0.00022512 -1.69086e-24)
(0.0187593 0.000206477 7.72308e-24)
(0.0187268 0.000187265 4.13047e-25)
(0.018698 0.000167655 4.27977e-24)
(0.0186727 0.000147753 -1.54272e-23)
(0.0186503 0.000127677 1.31614e-23)
(0.0186303 0.000107608 3.00903e-24)
(0.018612 8.78128e-05 2.71505e-23)
(0.0185948 6.86031e-05 -4.18864e-23)
(0.0185782 5.03047e-05 -1.90341e-23)
(0.018562 3.31931e-05 -1.2672e-23)
(0.0185463 1.74939e-05 2.37885e-23)
(0.0185306 3.31024e-06 -6.95976e-25)
(0.0185157 -9.29833e-06 2.32247e-24)
(0.0206908 0.000251748 -5.79323e-27)
(0.0206695 0.000237143 1.82893e-24)
(0.0206473 0.000220725 -2.64937e-24)
(0.0206263 0.000202965 1.46239e-26)
(0.0206071 0.000184404 3.1849e-24)
(0.0205896 0.000165436 8.05332e-24)
(0.0205735 0.000146368 -3.12468e-23)
(0.0205583 0.000127491 2.63618e-24)
(0.020544 0.000109106 1.58734e-23)
(0.0205301 9.14909e-05 -7.34211e-24)
(0.0205165 7.4891e-05 2.00375e-23)
(0.020503 5.94763e-05 1.41137e-23)
(0.0204899 4.53645e-05 -2.55834e-23)
(0.0204767 3.25789e-05 1.76026e-23)
(0.0204642 2.11193e-05 -1.46372e-23)
(0.0225937 0.000258752 -3.07982e-25)
(0.0225794 0.000246613 -2.83085e-25)
(0.0225636 0.000232099 3.32161e-24)
(0.0225483 0.000215823 -1.56585e-23)
(0.022534 0.000198513 1.36838e-23)
(0.0225207 0.000180747 -9.67932e-24)
(0.0225081 0.000162948 6.97154e-24)
(0.0224959 0.000145452 -4.89825e-23)
(0.0224842 0.000128551 7.07155e-23)
(0.0224726 0.000112472 -4.16838e-23)
(0.0224612 9.73872e-05 3.7253e-23)
(0.0224498 8.33929e-05 3.12932e-23)
(0.0224388 7.05429e-05 -5.46973e-23)
(0.0224277 5.88214e-05 1.78346e-23)
(0.0224172 4.82021e-05 -7.51301e-25)
(0.0244823 0.000262894 -1.14301e-26)
(0.0244749 0.00025477 -1.17944e-24)
(0.0244638 0.000242228 1.24563e-24)
(0.0244523 0.000227552 -4.43531e-25)
(0.0244412 0.000211695 5.80992e-24)
(0.0244305 0.000195334 -9.83984e-24)
(0.0244202 0.000178932 8.9812e-24)
(0.02441 0.000162842 -2.81103e-23)
(0.0244 0.000147339 6.37802e-23)
(0.0243901 0.000132608 -8.15041e-23)
(0.0243804 0.000118773 6.67466e-23)
(0.0243706 0.000105887 -2.25444e-23)
(0.0243611 9.39708e-05 1.18106e-24)
(0.0243516 8.29946e-05 5.20994e-24)
(0.0243426 7.29247e-05 -9.96968e-24)
(0.0262712 0.000264772 -8.90534e-25)
(0.0262679 0.00025948 6.01746e-25)
(0.0262622 0.000250531 1.21036e-24)
(0.0262545 0.000237871 -3.08075e-24)
(0.0262466 0.000223822 1.05251e-23)
(0.0262386 0.000209118 -1.03116e-23)
(0.0262306 0.000194249 -8.57215e-24)
(0.0262225 0.00017958 -2.02874e-23)
(0.0262144 0.000165384 1.07026e-23)
(0.0262063 0.000151829 4.91835e-23)
(0.0261982 0.000139015 -2.58871e-23)
(0.0261901 0.000126979 1.53613e-23)
(0.0261822 0.00011573 -6.32759e-24)
(0.0261742 0.00010524 -1.87336e-23)
(0.0261666 9.5482e-05 9.58817e-24)
(0.0278446 0.000264457 2.93688e-25)
(0.0278437 0.000261557 -3.69284e-25)
(0.0278414 0.000255615 1.79277e-24)
(0.0278373 0.00024552 -6.84211e-24)
(0.0278326 0.00023361 -1.99485e-24)
(0.0278274 0.00022086 1.89294e-23)
(0.0278218 0.000207725 -1.4104e-23)
(0.027816 0.000194576 -8.05151e-24)
(0.0278101 0.000181688 7.59129e-24)
(0.0278039 0.000169233 -8.34411e-24)
(0.0277978 0.000157312 1.9546e-23)
(0.0277915 0.000145964 9.6915e-24)
(0.0277853 0.000135205 -3.627e-23)
(0.027779 0.000125022 2.49693e-23)
(0.027773 0.000115398 -5.07408e-24)
(0.0290349 0.000263987 9.42492e-25)
(0.0290382 0.000262365 5.69418e-25)
(0.0290389 0.000257822 -1.69698e-24)
(0.0290383 0.000249961 2.96161e-24)
(0.0290369 0.000240282 -4.25787e-24)
(0.0290348 0.000229476 -8.30178e-24)
(0.0290321 0.000218066 -8.39674e-24)
(0.0290289 0.000206426 2.29173e-23)
(0.0290255 0.000194825 2.08893e-23)
(0.0290218 0.000183428 -5.0044e-23)
(0.0290179 0.00017234 2.80573e-23)
(0.0290138 0.000161613 -1.91104e-24)
(0.0290096 0.000151277 -1.52408e-24)
(0.0290052 0.000141333 2.03116e-24)
(0.0290009 0.000131781 -9.2958e-25)
(0.0296203 0.000255068 -2.33513e-24)
(0.0296285 0.000256622 -3.20402e-24)
(0.0296339 0.000254053 4.25182e-24)
(0.0296377 0.000248555 1.77064e-24)
(0.0296404 0.000241022 1.38855e-25)
(0.0296421 0.000232149 3.25567e-24)
(0.029643 0.000222456 -2.57583e-24)
(0.0296433 0.000212315 -1.79628e-23)
(0.0296431 0.000201975 4.02453e-23)
(0.0296424 0.000191597 -1.65621e-23)
(0.0296415 0.000181289 6.40268e-24)
(0.0296402 0.000171118 -1.12628e-23)
(0.0296386 0.000161134 -1.13473e-23)
(0.0296368 0.000151357 1.65617e-23)
(0.0296349 0.000141801 -7.0752e-24)
(0.0294101 0.000243778 3.4881e-24)
(0.0294199 0.000247051 -7.37084e-24)
(0.0294277 0.000246328 1.76909e-24)
(0.0294339 0.000242736 5.07141e-24)
(0.0294391 0.000237056 -2.91348e-24)
(0.0294433 0.000229903 -1.10652e-24)
(0.0294468 0.00022176 -6.8849e-24)
(0.0294496 0.000212965 1.70608e-23)
(0.0294519 0.000203747 5.08815e-24)
(0.0294538 0.000194258 -1.11187e-23)
(0.0294552 0.000184611 -6.03898e-24)
(0.0294563 0.000174887 7.08058e-24)
(0.029457 0.000165149 -7.59102e-24)
(0.0294575 0.000155436 4.37163e-24)
(0.0294577 0.000145777 -1.90137e-24)
(0.0284175 0.000229472 2.06011e-24)
(0.0284334 0.000233358 -4.1226e-24)
(0.0284472 0.000233571 -1.98467e-24)
(0.028459 0.000231116 9.36189e-24)
(0.0284693 0.000226709 -6.96324e-24)
(0.0284783 0.000220873 1.3082e-24)
(0.0284862 0.000213998 5.72966e-25)
(0.0284932 0.00020636 -4.96469e-25)
(0.0284993 0.000198152 -2.0355e-24)
(0.0285046 0.00018952 1.38503e-23)
(0.0285092 0.000180572 -8.48221e-24)
(0.0285133 0.000171393 1.19813e-24)
(0.0285168 0.000162049 -1.30193e-23)
(0.0285199 0.000152588 6.31803e-24)
(0.0285224 0.000143046 2.12151e-24)
(0.0268379 0.000211553 4.97178e-24)
(0.0268548 0.000215337 -8.5708e-24)
(0.0268702 0.000215902 1.82424e-24)
(0.0268843 0.000214105 -2.93413e-24)
(0.0268971 0.000210562 -2.54171e-24)
(0.0269089 0.00020569 1.05279e-23)
(0.0269197 0.000199789 -3.06658e-24)
(0.0269297 0.00019308 2.88121e-25)
(0.0269388 0.000185734 1.04509e-25)
(0.0269472 0.000177881 2.68532e-24)
(0.0269549 0.000169624 -6.46756e-24)
(0.026962 0.000161044 5.74914e-24)
(0.0269685 0.000152205 -3.85047e-25)
(0.0269746 0.000143157 -2.09416e-24)
(0.02698 0.000133939 3.49474e-25)
(0.0249301 0.000194292 1.88049e-24)
(0.0249496 0.000197642 -9.28431e-24)
(0.024968 0.00019826 1.53572e-23)
(0.0249851 0.000196821 -1.1059e-23)
(0.0250012 0.000193811 9.62717e-24)
(0.0250162 0.000189558 -3.61213e-24)
(0.0250303 0.000184302 -2.14146e-24)
(0.0250434 0.000178232 -1.4839e-24)
(0.0250557 0.000171494 8.05284e-25)
(0.0250673 0.000164205 -1.46218e-24)
(0.025078 0.00015646 1.05595e-24)
(0.0250882 0.000148332 9.92828e-25)
(0.0250976 0.000139885 -1.62031e-24)
(0.0251065 0.000131168 6.2267e-25)
(0.0251147 0.000122224 -1.95611e-25)
(0.0228389 0.000175825 2.48107e-25)
(0.0228621 0.000178516 -3.48098e-24)
(0.0228844 0.000178927 -1.67377e-24)
(0.0229055 0.000177563 1.44943e-23)
(0.0229255 0.0001748 -1.36235e-23)
(0.0229444 0.000170901 3.82203e-24)
(0.0229623 0.000166065 5.60685e-25)
(0.0229793 0.000160448 -2.41141e-25)
(0.0229953 0.000154177 -7.02837e-25)
(0.0230105 0.000147353 1.95928e-24)
(0.0230247 0.000140061 -1.11136e-24)
(0.0230383 0.000132369 2.91394e-25)
(0.023051 0.000124336 -2.13783e-25)
(0.023063 0.000116012 -8.64162e-25)
(0.0230742 0.000107438 7.52906e-25)
(0.0206786 0.000155449 3.68446e-25)
(0.0207059 0.000157383 3.23349e-24)
(0.0207323 0.000157446 -3.73033e-24)
(0.0207576 0.000156012 -2.37364e-24)
(0.0207817 0.000153372 1.43883e-23)
(0.0208047 0.00014973 -1.10138e-23)
(0.0208266 0.000145249 -3.46976e-25)
(0.0208474 0.000140056 -1.83508e-24)
(0.0208672 0.000134257 -2.0983e-27)
(0.020886 0.000127938 3.21872e-25)
(0.0209037 0.000121172 -7.58283e-26)
(0.0209206 0.00011402 5.27696e-25)
(0.0209365 0.000106535 2.75157e-25)
(0.0209515 9.87635e-05 7.83226e-26)
(0.0209655 9.07461e-05 -4.95705e-25)
(0.0185307 0.000133618 2.63041e-24)
(0.0185618 0.000134835 -3.99852e-24)
(0.0185919 0.000134551 -3.00687e-24)
(0.0186208 0.000133047 9.11856e-24)
(0.0186485 0.000130532 -3.27784e-24)
(0.018675 0.000127165 -4.1746e-24)
(0.0187003 0.000123072 1.51177e-24)
(0.0187243 0.000118356 2.81132e-24)
(0.0187472 0.000113101 -3.96714e-24)
(0.018769 0.00010738 3.43741e-24)
(0.0187896 0.000101253 -1.43853e-24)
(0.0188091 9.47724e-05 3.45955e-25)
(0.0188274 8.79859e-05 3.04205e-25)
(0.0188446 8.09359e-05 -6.96699e-25)
(0.0188607 7.36617e-05 3.49518e-25)
(0.0164481 0.00011132 -5.12405e-25)
(0.0164818 0.000111961 -1.7214e-24)
(0.0165145 0.000111431 -5.31462e-24)
(0.0165459 0.000109934 1.47997e-23)
(0.016576 0.000107615 -2.77055e-24)
(0.0166048 0.000104591 -3.9723e-24)
(0.0166323 0.000100958 1.20717e-24)
(0.0166585 9.6797e-05 -1.78095e-24)
(0.0166834 9.21751e-05 -3.18526e-24)
(0.016707 8.71496e-05 3.11525e-24)
(0.0167292 8.17713e-05 1.47074e-25)
(0.0167502 7.60856e-05 -2.85279e-25)
(0.0167698 7.01348e-05 3.55486e-25)
(0.0167882 6.3957e-05 -7.29943e-26)
(0.0168051 5.75884e-05 7.58944e-26)
(0.0144618 8.975e-05 1.98052e-24)
(0.0144966 8.99938e-05 2.80341e-24)
(0.0145303 8.93509e-05 -2.71478e-24)
(0.0145627 8.79634e-05 -5.57295e-24)
(0.0145937 8.59225e-05 7.27564e-24)
(0.0146234 8.33132e-05 -7.70278e-24)
(0.0146518 8.0209e-05 -9.65775e-26)
(0.0146787 7.66716e-05 2.84314e-24)
(0.0147042 7.27528e-05 9.09256e-25)
(0.0147283 6.84989e-05 -1.46025e-24)
(0.014751 6.39517e-05 3.29259e-25)
(0.0147722 5.91499e-05 1.92555e-24)
(0.0147919 5.413e-05 -6.95088e-25)
(0.0148101 4.89255e-05 -1.87683e-26)
(0.0148267 4.35687e-05 1.34789e-26)
(0.0125887 6.99723e-05 -2.06638e-24)
(0.0126229 6.99842e-05 2.6497e-24)
(0.0126559 6.93501e-05 2.75159e-25)
(0.0126878 6.81555e-05 5.00599e-24)
(0.0127183 6.64528e-05 -4.15284e-24)
(0.0127475 6.43051e-05 2.38926e-25)
(0.0127752 6.17674e-05 -4.89649e-25)
(0.0128016 5.88858e-05 -1.18113e-24)
(0.0128265 5.56998e-05 8.24969e-25)
(0.0128499 5.2246e-05 -2.62014e-24)
(0.0128718 4.85579e-05 3.85141e-25)
(0.0128921 4.46678e-05 6.25718e-25)
(0.0129108 4.0606e-05 2.76132e-25)
(0.012928 3.64006e-05 5.21685e-26)
(0.0129435 3.20794e-05 -3.00488e-26)
(0.0108368 5.27122e-05 1.53681e-24)
(0.0108689 5.26194e-05 -1.22305e-24)
(0.0109 5.20774e-05 -5.14084e-24)
(0.01093 5.11198e-05 4.82095e-24)
(0.0109587 4.97773e-05 6.39191e-24)
(0.0109862 4.80977e-05 -1.78389e-24)
(0.0110123 4.61206e-05 -3.25782e-24)
(0.011037 4.38791e-05 -4.12803e-24)
(0.0110602 4.14028e-05 3.01909e-24)
(0.011082 3.87199e-05 1.05029e-25)
(0.0111023 3.58566e-05 -5.44919e-25)
(0.011121 3.28385e-05 -6.33398e-26)
(0.0111381 2.969e-05 1.49073e-25)
(0.0111536 2.64339e-05 -4.17321e-26)
(0.0111674 2.30932e-05 2.96999e-26)
(0.00920927 3.83064e-05 -9.70624e-25)
(0.0092383 3.81915e-05 -6.60647e-25)
(0.00926646 3.77797e-05 8.44314e-25)
(0.00929361 3.70633e-05 -2.49296e-24)
(0.00931966 3.60651e-05 8.11857e-24)
(0.00934454 3.48205e-05 -1.04556e-23)
(0.00936819 3.33561e-05 9.92962e-24)
(0.00939055 3.16953e-05 -4.11189e-24)
(0.00941155 2.98595e-05 8.10735e-25)
(0.00943115 2.78695e-05 -8.85503e-26)
(0.0094493 2.57452e-05 -6.14476e-25)
(0.00946596 2.35062e-05 4.69684e-26)
(0.00948109 2.11712e-05 -2.65346e-25)
(0.00949466 1.87582e-05 6.59928e-27)
(0.00950661 1.62852e-05 -1.25401e-26)
(0.00770656 2.67634e-05 -4.73023e-25)
(0.00773183 2.6669e-05 1.27638e-25)
(0.00775641 2.63883e-05 2.60912e-25)
(0.00778016 2.58879e-05 -1.1503e-24)
(0.00780298 2.51903e-05 -4.74013e-25)
(0.00782478 2.43191e-05 4.30458e-24)
(0.00784551 2.32914e-05 -2.50089e-24)
(0.0078651 2.21229e-05 3.22429e-25)
(0.00788347 2.08286e-05 -3.20503e-25)
(0.00790058 1.94235e-05 -2.89535e-25)
(0.00791638 1.79217e-05 -3.21052e-26)
(0.00793082 1.63377e-05 3.93692e-25)
(0.00794386 1.46852e-05 -5.41371e-26)
(0.00795547 1.29778e-05 -1.03115e-25)
(0.00796562 1.12291e-05 1.94197e-26)
(0.00632692 1.78667e-05 -1.72422e-25)
(0.00634813 1.7806e-05 -5.3057e-26)
(0.00636884 1.76346e-05 -2.67599e-24)
(0.0063889 1.73097e-05 7.57223e-25)
(0.00640822 1.68541e-05 -1.78499e-24)
(0.00642671 1.62815e-05 1.37233e-24)
(0.00644431 1.56019e-05 2.37758e-24)
(0.00646093 1.48258e-05 1.633e-24)
(0.00647654 1.39629e-05 -2.19969e-24)
(0.00649105 1.30235e-05 6.60435e-25)
(0.00650444 1.20172e-05 4.43239e-25)
(0.00651665 1.09541e-05 -4.81789e-25)
(0.00652764 9.84376e-06 2.47847e-25)
(0.00653739 8.69631e-06 5.03663e-26)
(0.00654586 7.52118e-06 -3.45095e-26)
(0.00506694 1.12747e-05 -6.76546e-25)
(0.00508405 1.12437e-05 -8.99917e-25)
(0.00510087 1.11516e-05 -1.32928e-25)
(0.0051172 1.0958e-05 2.21572e-24)
(0.00513296 1.06835e-05 -1.51578e-24)
(0.00514809 1.03339e-05 -2.51396e-25)
(0.00516252 9.91509e-06 2.31049e-24)
(0.00517617 9.43336e-06 -4.43309e-26)
(0.005189 8.89483e-06 -4.70569e-25)
(0.00520094 8.30601e-06 -1.37846e-24)
(0.00521195 7.67309e-06 2.66053e-25)
(0.005222 7.00284e-06 7.32379e-25)
(0.00523104 6.30141e-06 -8.71385e-26)
(0.00523905 5.57594e-06 1.81084e-26)
(0.005246 4.83288e-06 -2.90575e-26)
(0.00392175 6.59787e-06 -1.48067e-25)
(0.00393496 6.58537e-06 1.10978e-26)
(0.00394801 6.54381e-06 1.0724e-24)
(0.00396072 6.44085e-06 6.81986e-25)
(0.00397304 6.29178e-06 -5.11263e-25)
(0.0039849 6.09772e-06 -1.16542e-24)
(0.00399623 5.86191e-06 4.42182e-25)
(0.00400699 5.58787e-06 -1.77973e-24)
(0.00401712 5.27911e-06 1.35645e-24)
(0.00402658 4.93949e-06 5.84356e-25)
(0.00403531 4.57271e-06 -9.0588e-26)
(0.00404329 4.18292e-06 -5.20276e-25)
(0.00405048 3.77383e-06 5.55652e-26)
(0.00405686 3.35018e-06 2.83209e-27)
(0.00406241 2.91636e-06 -1.44221e-26)
(0.00288534 3.44938e-06 -2.72902e-25)
(0.00289493 3.44247e-06 9.97181e-27)
(0.00290447 3.42758e-06 8.64072e-25)
(0.00291379 3.38075e-06 -5.38465e-25)
(0.00292286 3.31078e-06 2.11201e-24)
(0.00293163 3.21674e-06 -3.80143e-24)
(0.00294004 3.10022e-06 2.99076e-24)
(0.00294805 2.96293e-06 -2.39091e-24)
(0.00295562 2.80668e-06 1.62386e-24)
(0.0029627 2.63349e-06 -9.57386e-25)
(0.00296927 2.44531e-06 3.15614e-25)
(0.00297528 2.24445e-06 3.81543e-26)
(0.00298073 2.03289e-06 1.98891e-26)
(0.00298558 1.81351e-06 -1.31993e-26)
(0.00298982 1.58942e-06 -5.77109e-27)
(0.00195084 1.48436e-06 4.14401e-25)
(0.00195717 1.47435e-06 4.34028e-25)
(0.00196352 1.46909e-06 -1.8658e-24)
(0.00196974 1.45163e-06 1.34672e-24)
(0.00197583 1.42514e-06 -2.06036e-26)
(0.00198174 1.38852e-06 3.14449e-25)
(0.00198743 1.34233e-06 -4.04391e-25)
(0.00199288 1.28719e-06 -7.68569e-25)
(0.00199804 1.22379e-06 7.37454e-25)
(0.0020029 1.153e-06 4.70372e-26)
(0.00200742 1.07558e-06 -4.64112e-25)
(0.00201158 9.92605e-07 1.7158e-25)
(0.00201536 9.04846e-07 5.86747e-26)
(0.00201876 8.13805e-07 -1.07305e-26)
(0.00202174 7.21612e-07 3.76511e-27)
(0.00111085 4.35769e-07 -4.18421e-25)
(0.00111432 4.33314e-07 1.26594e-24)
(0.00111782 4.36708e-07 7.23087e-25)
(0.00112127 4.35723e-07 -1.33335e-24)
(0.00112467 4.31151e-07 -1.54668e-25)
(0.00112799 4.22873e-07 -1.3135e-25)
(0.0011312 4.11241e-07 3.80021e-25)
(0.0011343 3.96547e-07 -6.23768e-25)
(0.00113724 3.79042e-07 7.90067e-25)
(0.00114003 3.59009e-07 -3.89401e-25)
(0.00114263 3.3666e-07 -2.04976e-25)
(0.00114505 3.12316e-07 1.07585e-25)
(0.00114726 2.86075e-07 -5.45478e-26)
(0.00114925 2.58376e-07 2.99894e-26)
(0.00115102 2.30289e-07 7.91389e-27)
(0.000357757 8.424e-08 -2.98852e-27)
(0.000358749 1.25213e-07 2.44982e-25)
(0.000359772 1.56677e-07 2.71422e-25)
(0.000360793 1.77389e-07 -4.3373e-25)
(0.000361814 1.89368e-07 8.57022e-25)
(0.000362823 1.9416e-07 -9.31661e-25)
(0.000363812 1.93042e-07 5.70093e-26)
(0.000364773 1.86987e-07 4.54444e-25)
(0.000365699 1.76733e-07 -6.24757e-25)
(0.000366581 1.62851e-07 -8.61898e-26)
(0.000367414 1.45739e-07 3.42067e-25)
(0.000368193 1.25716e-07 -1.40734e-25)
(0.000368912 1.02915e-07 -2.17577e-26)
(0.000369569 7.74785e-08 1.34731e-26)
(0.000370158 4.97516e-08 6.35262e-28)
(0.000933337 -0.000258405 9.89267e-26)
(0.00106562 -0.000187712 2.61853e-24)
(0.00128743 -0.000114034 -7.65329e-24)
(0.00151304 -5.51579e-05 1.13727e-23)
(0.00172807 -9.14026e-06 -4.27015e-24)
(0.0019377 2.50648e-05 -4.27483e-24)
(0.00214222 5.01864e-05 4.9285e-24)
(0.00234267 6.85107e-05 -9.885e-24)
(0.00254019 8.19237e-05 5.86068e-25)
(0.00273572 9.1979e-05 6.29528e-24)
(0.00293008 9.99656e-05 -1.2095e-24)
(0.00312397 0.000107022 1.31257e-24)
(0.00331807 0.000114227 -1.25058e-25)
(0.0035131 0.000122698 8.35533e-25)
(0.0037101 0.000133547 -3.07756e-24)
(0.00391058 0.000147937 1.6937e-24)
(0.00411671 0.000166981 -5.5285e-25)
(0.00433155 0.000191224 2.42769e-26)
(0.0045602 0.000220397 1.3737e-24)
(0.00480862 0.000253345 -8.71409e-25)
(0.00508425 0.000285343 1.13559e-25)
(0.00539256 0.000306979 -1.00165e-25)
(0.00571066 0.000301332 1.92898e-25)
(0.00599666 0.000262069 7.44556e-25)
(0.00623543 0.000193988 -1.33812e-24)
(0.00642623 0.000102871 -9.18021e-25)
(0.00657046 -5.91409e-06 1.49483e-26)
(0.00667001 -0.000127853 2.31612e-24)
(0.00672616 -0.000259128 3.34136e-24)
(0.00673951 -0.000395783 -6.58634e-24)
(0.00671017 -0.000533233 5.94872e-24)
(0.00663816 -0.000665998 -5.68905e-24)
(0.00652377 -0.000787693 1.59542e-24)
(0.00636778 -0.000891168 3.27109e-25)
(0.00617156 -0.000968659 -4.00711e-25)
(0.00593696 -0.00101182 4.34999e-24)
(0.00566617 -0.0010115 -3.16322e-25)
(0.00536155 -0.000957035 2.22664e-24)
(0.00502574 -0.000834823 1.54567e-24)
(0.00466218 -0.000626374 -9.94156e-24)
(0.00427475 -0.000308407 -1.29716e-25)
(0.00386926 0.000139017 4.81352e-24)
(0.00343767 0.000698656 1.83683e-24)
(0.00300182 0.00127609 -7.031e-24)
(0.00275619 0.00154006 -3.73494e-25)
(0.00175004 -0.000338752 -2.94885e-24)
(0.00180336 -0.000301513 -4.31058e-24)
(0.00193695 -0.000230313 8.95934e-24)
(0.00210568 -0.000163611 4.38234e-24)
(0.00228406 -0.000106867 -1.53541e-23)
(0.00246755 -6.18779e-05 1.66414e-23)
(0.00265227 -2.70233e-05 -5.99976e-24)
(0.00283679 -1.50005e-07 4.92035e-24)
(0.00302087 2.0716e-05 -6.4949e-24)
(0.00320464 3.72794e-05 7.00933e-26)
(0.00338847 5.09742e-05 -3.50832e-24)
(0.00357276 6.30561e-05 6.96245e-24)
(0.00375803 7.46883e-05 -3.86474e-24)
(0.0039449 8.7034e-05 -3.52672e-24)
(0.00413431 0.000101216 -2.42678e-24)
(0.0043277 0.000118388 4.50146e-24)
(0.00452713 0.000139647 -6.02559e-25)
(0.00473545 0.000165458 2.51029e-24)
(0.0049576 0.000195513 4.53295e-25)
(0.00519922 0.000228709 -7.78098e-25)
(0.00546748 0.000260506 -3.41482e-25)
(0.00576777 0.000281887 -2.14476e-25)
(0.00607843 0.000276627 1.04634e-24)
(0.00635914 0.000238962 1.28038e-24)
(0.00659503 0.000173659 -1.14603e-24)
(0.00678503 8.63074e-05 -5.58323e-24)
(0.00693008 -1.78004e-05 7.5461e-24)
(0.00703169 -0.000134179 -5.31256e-24)
(0.00709091 -0.000258816 1.78925e-24)
(0.00710829 -0.000387641 -1.16e-24)
(0.00708404 -0.000515971 8.815e-24)
(0.00701842 -0.000638291 -1.20451e-23)
(0.00691208 -0.000748245 6.49198e-24)
(0.00676633 -0.000838759 -3.33179e-24)
(0.00658319 -0.000902169 2.35955e-25)
(0.00636543 -0.000930232 3.25206e-25)
(0.00611653 -0.000913907 9.46701e-24)
(0.00584088 -0.000842757 -1.88744e-24)
(0.00554419 -0.000703765 -9.0384e-24)
(0.00523508 -0.000479609 -6.25385e-24)
(0.00492688 -0.000148619 1.43178e-23)
(0.00464245 0.000307855 -1.45297e-23)
(0.00440833 0.000872517 -3.96624e-24)
(0.00426965 0.00143644 9.88247e-24)
(0.00428496 0.00163268 3.62197e-24)
(0.00271012 -0.000344998 -3.50737e-26)
(0.00271577 -0.000347118 -5.00969e-24)
(0.00276853 -0.000306972 9.54766e-24)
(0.00287127 -0.000250242 8.43058e-24)
(0.00299916 -0.000193666 -1.36493e-23)
(0.00314348 -0.000143983 2.66728e-25)
(0.00329731 -0.000102737 1.3633e-24)
(0.00345671 -6.91579e-05 1.50927e-23)
(0.00361967 -4.18553e-05 -1.79049e-23)
(0.00378518 -1.93436e-05 1.1119e-23)
(0.00395284 -2.44035e-07 3.40606e-24)
(0.00412258 1.67062e-05 -1.86527e-23)
(0.00429462 3.26904e-05 6.74065e-24)
(0.00446935 4.88824e-05 2.71515e-24)
(0.00464758 6.63923e-05 -5.73574e-24)
(0.0048306 8.63521e-05 9.41327e-24)
(0.00502032 0.000109833 -6.74006e-24)
(0.00521938 0.000137213 -1.99687e-25)
(0.00543251 0.000168134 5.00228e-25)
(0.00566503 0.000201555 5.89414e-25)
(0.00592377 0.000233128 6.91829e-26)
(0.00621398 0.000254221 3.72327e-25)
(0.00651533 0.000249308 -1.05915e-24)
(0.00678918 0.000213218 3.15669e-24)
(0.00702095 0.000150708 -4.99496e-24)
(0.00720916 6.71792e-05 2.8747e-24)
(0.00735426 -3.21709e-05 -6.72816e-24)
(0.00745737 -0.000142811 9.06959e-24)
(0.00751933 -0.000260605 -8.47217e-24)
(0.00754059 -0.000381345 2.91226e-25)
(0.00752151 -0.000500255 -1.15331e-25)
(0.00746261 -0.000611793 1.40974e-23)
(0.00736496 -0.000709657 -4.62271e-24)
(0.00723041 -0.000786904 -1.57642e-24)
(0.00706171 -0.000836075 -8.90685e-25)
(0.00686259 -0.000849224 7.69189e-24)
(0.00663795 -0.000817783 -6.69816e-24)
(0.00639416 -0.000732171 1.41481e-23)
(0.00613993 -0.000581123 -2.83148e-23)
(0.00588829 -0.00035082 1.10739e-23)
(0.0056593 -2.58277e-05 4.18486e-24)
(0.00548465 0.000403205 7.23088e-24)
(0.00540192 0.000909976 -9.02372e-24)
(0.00544059 0.00138275 2.92538e-24)
(0.0055882 0.00153331 -1.85087e-24)
(0.00379741 -0.000325598 -1.27387e-24)
(0.00377485 -0.000352323 -1.99496e-24)
(0.00377918 -0.000339196 -8.60128e-24)
(0.00381853 -0.000305379 2.16585e-24)
(0.00389184 -0.00025921 1.46384e-24)
(0.00398869 -0.000212658 7.09617e-24)
(0.00410233 -0.000170329 -1.53085e-23)
(0.00422771 -0.000133513 5.75688e-24)
(0.00436144 -0.000102017 1.97851e-23)
(0.00450141 -7.5021e-05 -5.24203e-24)
(0.00464638 -5.1486e-05 -4.97562e-24)
(0.00479569 -3.03224e-05 -7.96621e-25)
(0.00494916 -1.04397e-05 2.63177e-24)
(0.0051069 9.2777e-06 -5.17217e-24)
(0.00526948 2.98796e-05 1.17752e-24)
(0.00543804 5.2442e-05 -4.70038e-25)
(0.00561428 7.79988e-05 -2.71207e-24)
(0.00580063 0.000106816 9.10398e-25)
(0.00600157 0.00013847 4.87528e-24)
(0.00622208 0.000171995 -5.31264e-25)
(0.00646861 0.000203235 -1.15797e-24)
(0.00674618 0.000223942 -3.32243e-25)
(0.00703591 0.000219304 -1.873e-24)
(0.00730096 0.000184768 -1.12035e-25)
(0.00752696 0.000125088 -4.47921e-24)
(0.007712 4.54864e-05 7.70786e-24)
(0.00785605 -4.89439e-05 -6.76567e-24)
(0.0079598 -0.00015362 1.30775e-23)
(0.00802384 -0.000264291 -1.13985e-23)
(0.00804861 -0.000376627 2.51994e-24)
(0.00803458 -0.00048578 4.91173e-24)
(0.00798259 -0.000586226 -1.21611e-25)
(0.00789413 -0.000671786 -3.22753e-25)
(0.00777165 -0.000735753 -2.17048e-25)
(0.00761862 -0.000771041 -5.11954e-25)
(0.00743977 -0.000770266 -2.9368e-24)
(0.00724127 -0.000725754 1.6664e-23)
(0.00703125 -0.000629439 -8.57677e-24)
(0.00682063 -0.000472807 1.77861e-25)
(0.00662491 -0.000247075 -2.74433e-23)
(0.00646617 5.48267e-05 2.11196e-23)
(0.00637525 0.000431457 -8.59163e-24)
(0.00638489 0.000852116 1.51998e-24)
(0.00650672 0.00122791 1.18848e-23)
(0.00671084 0.00138666 -3.17642e-24)
(0.00500716 -0.000295803 -5.29554e-24)
(0.00497385 -0.000332157 1.08893e-23)
(0.00494941 -0.000338111 3.17491e-24)
(0.00494838 -0.000325024 1.373e-23)
(0.00497038 -0.000297146 -3.3868e-23)
(0.0050192 -0.000260354 -1.0796e-24)