/*--------------------------------*- C++ -*----------------------------------*\
| =========                 |                                                 |
| \\      /  F ield         | OpenFOAM: The Open Source CFD Toolbox           |
|  \\    /   O peration     | Version:  2312                                  |
|   \\  /    A nd           | Website:  www.openfoam.com                      |
|    \\/     M anipulation  |                                                 |
\*---------------------------------------------------------------------------*/
FoamFile
{
    version     2.0;
    format      ascii;
    arch        "LSB;label=32;scalar=64";
    class       surfaceScalarField;
    location    "120.5";
    object      phi;
}
// * * * * * * * * * * * * * * * * * * * * * * * * * * * * * * * * * * * * * //

dimensions      [0 3 -1 0 0 0 0];

oriented        oriented;

internalField   nonuniform List<scalar> 
9445
(
5.80102e-10
9.13864e-12
5.75821e-10
4.28027e-12
5.74439e-10
1.38223e-12
5.74945e-10
-5.05871e-13
5.7662e-10
-1.67504e-12
5.79181e-10
-2.56104e-12
5.82577e-10
-3.39582e-12
5.86846e-10
-4.26872e-12
5.9213e-10
-5.28447e-12
5.98846e-10
-6.71558e-12
6.08136e-10
-9.29046e-12
6.23616e-10
-1.54794e-11
6.58032e-10
-3.44163e-11
7.56151e-10
-9.81192e-11
-2.52384e-10
1.00853e-09
2.03142e-09
3.99057e-11
2.0166e-09
1.90978e-11
2.01138e-09
6.61039e-12
2.01224e-09
-1.37117e-12
2.01692e-09
-6.35511e-12
2.02457e-09
-1.02065e-11
2.03487e-09
-1.36979e-11
2.04785e-09
-1.72513e-11
2.06397e-09
-2.14048e-11
2.08445e-09
-2.71926e-11
2.1122e-09
-3.70421e-11
2.15421e-09
-5.74892e-11
2.2239e-09
-1.04104e-10
2.3339e-09
-2.08124e-10
-3.66974e-10
2.44849e-09
4.01832e-09
9.84307e-11
3.98951e-09
4.79053e-11
3.9786e-09
1.75264e-11
3.97892e-09
-1.70098e-12
3.98631e-09
-1.37366e-11
3.99922e-09
-2.31163e-11
4.01691e-09
-3.13939e-11
4.03918e-09
-3.95184e-11
4.06663e-09
-4.8853e-11
4.10081e-09
-6.13776e-11
4.14472e-09
-8.0948e-11
4.20308e-09
-1.15848e-10
4.27861e-09
-1.79637e-10
4.35743e-09
-2.86941e-10
-4.12934e-10
4.40339e-09
6.68792e-09
1.91374e-10
6.64113e-09
9.46944e-11
6.62209e-09
3.6563e-11
6.62046e-09
-6.58322e-14
6.62974e-09
-2.30174e-11
6.64744e-09
-4.08195e-11
6.67226e-09
-5.62194e-11
6.7034e-09
-7.0654e-11
6.74122e-09
-8.66722e-11
6.7868e-09
-1.0696e-10
6.8415e-09
-1.35649e-10
6.90519e-09
-1.79538e-10
6.9715e-09
-2.4594e-10
7.02054e-09
-3.35988e-10
-4.2326e-10
7.03087e-09
1.02171e-08
3.24875e-10
1.01483e-08
1.63462e-10
1.01184e-08
6.6471e-11
1.01128e-08
5.48302e-12
1.01229e-08
-3.30245e-11
1.01442e-08
-6.21638e-11
1.0175e-08
-8.69922e-11
1.02134e-08
-1.09131e-10
1.02593e-08
-1.32482e-10
1.03123e-08
-1.59965e-10
1.03714e-08
-1.94829e-10
1.04326e-08
-2.40705e-10
1.04857e-08
-2.98981e-10
1.05141e-08
-3.6445e-10
-4.18017e-10
1.05089e-08
1.48129e-08
5.02257e-10
1.47195e-08
2.56873e-10
1.46764e-08
1.09599e-10
1.46651e-08
1.67767e-11
1.46745e-08
-4.24221e-11
1.4698e-08
-8.56523e-11
1.47327e-08
-1.21697e-10
1.4776e-08
-1.52473e-10
1.48264e-08
-1.82873e-10
1.48821e-08
-2.15683e-10
1.494e-08
-2.5276e-10
1.49941e-08
-2.94782e-10
1.50349e-08
-3.3974e-10
1.50521e-08
-3.81646e-10
-4.09783e-10
1.50438e-08
2.07098e-08
7.19903e-10
2.05929e-08
3.73736e-10
2.05367e-08
1.65807e-10
2.05189e-08
3.45313e-11
2.05266e-08
-5.00647e-11
2.05511e-08
-1.10169e-10
2.05876e-08
-1.58225e-10
2.0633e-08
-1.97861e-10
2.06843e-08
-2.34182e-10
2.07384e-08
-2.69738e-10
2.07909e-08
-3.05263e-10
2.08359e-08
-3.39846e-10
2.0867e-08
-3.70753e-10
2.08791e-08
-3.93838e-10
-4.04409e-10
2.08738e-08
2.81616e-08
9.61299e-10
2.80303e-08
5.05058e-10
2.79662e-08
2.29899e-10
2.79447e-08
5.59974e-11
2.79516e-08
-5.69064e-11
2.7977e-08
-1.35559e-10
2.80144e-08
-1.95619e-10
2.80598e-08
-2.43265e-10
2.81092e-08
-2.83648e-10
2.81587e-08
-3.19231e-10
2.82039e-08
-3.50396e-10
2.82402e-08
-3.76148e-10
2.82641e-08
-3.94685e-10
2.82744e-08
-4.04181e-10
-4.03417e-10
2.82734e-08
3.74325e-08
1.19128e-09
3.73079e-08
6.29633e-10
3.72494e-08
2.88391e-10
3.7233e-08
7.24089e-11
3.72444e-08
-6.83015e-11
3.72736e-08
-1.64744e-10
3.73133e-08
-2.35373e-10
3.73589e-08
-2.88883e-10
3.74061e-08
-3.3079e-10
3.74507e-08
-3.63862e-10
3.74893e-08
-3.88949e-10
3.75191e-08
-4.05951e-10
3.75389e-08
-4.14517e-10
3.75494e-08
-4.14652e-10
-4.06886e-10
3.75528e-08
4.87951e-08
1.35674e-09
4.87119e-08
7.12823e-10
4.86824e-08
3.17852e-10
4.86874e-08
6.73899e-11
4.87148e-08
-9.56426e-11
4.87556e-08
-2.05527e-10
4.88031e-08
-2.829e-10
4.88527e-08
-3.38537e-10
4.89006e-08
-3.78678e-10
4.89436e-08
-4.06817e-10
4.89794e-08
-4.2477e-10
4.90071e-08
-4.3363e-10
4.90269e-08
-4.34302e-10
4.90401e-08
-4.27918e-10
-4.15768e-10
4.9049e-08
6.25596e-08
1.40321e-09
6.25572e-08
7.15195e-10
6.25855e-08
2.89528e-10
6.26333e-08
1.96232e-11
6.26926e-08
-1.54915e-10
6.2757e-08
-2.69941e-10
6.28216e-08
-3.47502e-10
6.28829e-08
-3.99854e-10
6.29384e-08
-4.34144e-10
6.29863e-08
-4.54774e-10
6.30261e-08
-4.64573e-10
6.30581e-08
-4.65618e-10
6.30834e-08
-4.59612e-10
6.31037e-08
-4.48206e-10
-4.32908e-10
6.31209e-08
7.91492e-08
1.30819e-09
7.92498e-08
6.14618e-10
7.93549e-08
1.84443e-10
7.94614e-08
-8.68736e-11
7.95655e-08
-2.59093e-10
7.96644e-08
-3.68762e-10
7.97553e-08
-4.38417e-10
7.98367e-08
-4.81265e-10
7.99079e-08
-5.05313e-10
7.99689e-08
-5.15763e-10
8.00204e-08
-5.16165e-10
8.0064e-08
-5.09156e-10
8.01011e-08
-4.96774e-10
8.01337e-08
-4.80766e-10
-4.62557e-10
8.01634e-08
9.91863e-08
1.10482e-09
9.93724e-08
4.28492e-10
9.9545e-08
1.18565e-11
9.97056e-08
-2.47501e-10
9.98526e-08
-4.06056e-10
9.99855e-08
-5.01697e-10
1.00104e-07
-5.56827e-10
1.00208e-07
-5.85313e-10
1.00299e-07
-5.95871e-10
1.00377e-07
-5.94245e-10
1.00445e-07
-5.84338e-10
1.00505e-07
-5.68953e-10
1.00558e-07
-5.5013e-10
1.00607e-07
-5.29463e-10
-5.08149e-10
1.00653e-07
1.23471e-07
8.59922e-10
1.23692e-07
2.07853e-10
1.23896e-07
-1.91702e-10
1.2408e-07
-4.32404e-10
1.24248e-07
-5.73457e-10
1.24398e-07
-6.51837e-10
1.24531e-07
-6.90254e-10
1.24649e-07
-7.03163e-10
1.24753e-07
-6.99823e-10
1.24845e-07
-6.86282e-10
1.24927e-07
-6.6654e-10
1.25002e-07
-6.43336e-10
1.2507e-07
-6.1855e-10
1.25134e-07
-5.9353e-10
-5.69202e-10
1.25195e-07
1.52779e-07
6.23937e-10
1.5299e-07
-3.38324e-12
1.53183e-07
-3.84437e-10
1.53357e-07
-6.07119e-10
1.53516e-07
-7.31804e-10
1.53659e-07
-7.94681e-10
1.53787e-07
-8.18623e-10
1.53902e-07
-8.18517e-10
1.54006e-07
-8.03905e-10
1.54101e-07
-7.80953e-10
1.54188e-07
-7.53619e-10
1.54269e-07
-7.24498e-10
1.54346e-07
-6.95273e-10
1.5442e-07
-6.67056e-10
-6.40523e-10
1.54491e-07
1.87599e-07
4.07727e-10
1.87787e-07
-1.9081e-10
1.8795e-07
-5.47765e-10
1.88096e-07
-7.53089e-10
1.88228e-07
-8.63622e-10
1.88347e-07
-9.14321e-10
1.88457e-07
-9.27867e-10
1.88557e-07
-9.1894e-10
1.8865e-07
-8.97101e-10
1.88738e-07
-8.68389e-10
1.88821e-07
-8.36631e-10
1.889e-07
-8.04255e-10
1.88978e-07
-7.72761e-10
1.89054e-07
-7.43067e-10
-7.15649e-10
1.89129e-07
2.2799e-07
1.98375e-10
2.28156e-07
-3.57232e-10
2.28292e-07
-6.83882e-10
2.28409e-07
-8.70035e-10
2.28513e-07
-9.67307e-10
2.28607e-07
-1.00852e-09
2.28694e-07
-1.01519e-09
2.28777e-07
-1.00138e-09
2.28856e-07
-9.76112e-10
2.28933e-07
-9.45103e-10
2.29008e-07
-9.11936e-10
2.29083e-07
-8.78851e-10
2.29157e-07
-8.47178e-10
2.29232e-07
-8.1768e-10
-7.90705e-10
2.29307e-07
2.73446e-07
-1.50956e-11
2.73597e-07
-5.08038e-10
2.73713e-07
-7.99338e-10
2.73807e-07
-9.64265e-10
2.73888e-07
-1.04876e-09
2.73962e-07
-1.08255e-09
2.74032e-07
-1.08519e-09
2.741e-07
-1.06963e-09
2.74168e-07
-1.04399e-09
2.74237e-07
-1.01346e-09
2.74306e-07
-9.813e-10
2.74377e-07
-9.49522e-10
2.74449e-07
-9.19283e-10
2.74522e-07
-8.91222e-10
-8.65585e-10
2.74597e-07
3.22584e-07
-2.31157e-10
3.22726e-07
-6.49956e-10
3.22827e-07
-9.00404e-10
3.22904e-07
-1.04181e-09
3.22968e-07
-1.11282e-09
3.23026e-07
-1.13993e-09
3.23081e-07
-1.13998e-09
3.23135e-07
-1.12423e-09
3.23191e-07
-1.09985e-09
3.23249e-07
-1.07136e-09
3.23309e-07
-1.04156e-09
3.23372e-07
-1.01219e-09
3.23437e-07
-9.84219e-10
3.23504e-07
-9.58172e-10
-9.34161e-10
3.23572e-07
3.72506e-07
-4.26569e-10
3.7261e-07
-7.54202e-10
3.72662e-07
-9.52953e-10
3.72687e-07
-1.06651e-09
3.72698e-07
-1.12409e-09
3.72705e-07
-1.14634e-09
3.72712e-07
-1.14739e-09
3.72723e-07
-1.13526e-09
3.72739e-07
-1.11565e-09
3.7276e-07
-1.09241e-09
3.72786e-07
-1.06785e-09
3.72817e-07
-1.04338e-09
3.72853e-07
-1.01975e-09
3.72892e-07
-9.97379e-10
-9.7648e-10
3.72935e-07
3.70526e-07
-5.80422e-10
3.70601e-07
-8.28759e-10
3.7063e-07
-9.81966e-10
3.70634e-07
-1.07053e-09
3.70627e-07
-1.11675e-09
3.70616e-07
-1.13548e-09
3.70605e-07
-1.13687e-09
3.70598e-07
-1.12786e-09
3.70595e-07
-1.11268e-09
3.70597e-07
-1.09424e-09
3.70603e-07
-1.0743e-09
3.70614e-07
-1.05392e-09
3.70628e-07
-1.03373e-09
3.70644e-07
-1.01406e-09
-9.95029e-10
3.70663e-07
3.17617e-07
-6.39198e-10
3.17621e-07
-8.33154e-10
3.17595e-07
-9.5636e-10
3.17555e-07
-1.0298e-09
3.17508e-07
-1.07021e-09
3.17461e-07
-1.08872e-09
3.17417e-07
-1.09303e-09
3.17378e-07
-1.08833e-09
3.17343e-07
-1.07809e-09
3.17314e-07
-1.06452e-09
3.17288e-07
-1.04902e-09
3.17267e-07
-1.03244e-09
3.17248e-07
-1.01528e-09
3.17232e-07
-9.97801e-10
-9.80134e-10
3.17217e-07
2.66493e-07
-6.65452e-10
2.66474e-07
-8.13799e-10
2.66428e-07
-9.10461e-10
2.66369e-07
-9.70248e-10
2.66303e-07
-1.00481e-09
2.66237e-07
-1.02224e-09
2.66172e-07
-1.02826e-09
2.6611e-07
-1.02666e-09
2.66052e-07
-1.02004e-09
2.65998e-07
-1.0101e-09
2.65947e-07
-9.97881e-10
2.65898e-07
-9.84058e-10
2.65852e-07
-9.69012e-10
2.65807e-07
-9.52961e-10
-9.36007e-10
2.65763e-07
2.19944e-07
-6.54909e-10
2.19898e-07
-7.67718e-10
2.19831e-07
-8.43021e-10
2.19752e-07
-8.91238e-10
2.19667e-07
-9.20493e-10
2.19582e-07
-9.36529e-10
2.19497e-07
-9.43392e-10
2.19414e-07
-9.43846e-10
2.19334e-07
-9.39793e-10
2.19256e-07
-9.32467e-10
2.19181e-07
-9.22668e-10
2.19108e-07
-9.10898e-10
2.19036e-07
-8.97443e-10
2.18966e-07
-8.82466e-10
-8.66042e-10
2.18896e-07
1.79056e-07
-6.08816e-10
1.78983e-07
-6.94589e-10
1.78893e-07
-7.53451e-10
1.78795e-07
-7.92592e-10
1.78692e-07
-8.17649e-10
1.78588e-07
-8.32549e-10
1.78485e-07
-8.40074e-10
1.78383e-07
-8.42177e-10
1.78283e-07
-8.40208e-10
1.78186e-07
-8.35069e-10
1.78091e-07
-8.27345e-10
1.77997e-07
-8.17407e-10
1.77905e-07
-8.05469e-10
1.77814e-07
-7.91662e-10
-7.76046e-10
1.77724e-07
1.44012e-07
-5.34792e-10
1.43918e-07
-6.00856e-10
1.43812e-07
-6.4769e-10
1.437e-07
-6.80268e-10
1.43585e-07
-7.02408e-10
1.43469e-07
-7.16718e-10
1.43354e-07
-7.25057e-10
1.43241e-07
-7.28768e-10
1.43129e-07
-7.28799e-10
1.4302e-07
-7.25798e-10
1.42913e-07
-7.20186e-10
1.42808e-07
-7.12243e-10
1.42704e-07
-7.02136e-10
1.42603e-07
-6.89981e-10
-6.75836e-10
1.42502e-07
1.14544e-07
-4.46304e-10
1.14442e-07
-4.9833e-10
1.14331e-07
-5.36626e-10
1.14215e-07
-5.64658e-10
1.14097e-07
-5.84902e-10
1.1398e-07
-5.99032e-10
1.13863e-07
-6.0828e-10
1.13748e-07
-6.13568e-10
1.13635e-07
-6.15556e-10
1.13523e-07
-6.14702e-10
1.13415e-07
-6.1131e-10
1.13308e-07
-6.05591e-10
1.13203e-07
-5.97678e-10
1.13101e-07
-5.87676e-10
-5.75641e-10
1.13001e-07
9.01644e-08
-3.57038e-10
9.00649e-08
-3.98873e-10
8.99592e-08
-4.30908e-10
8.98501e-08
-4.55576e-10
8.97396e-08
-4.74383e-10
8.9629e-08
-4.88377e-10
8.95191e-08
-4.98374e-10
8.94105e-08
-5.04999e-10
8.93036e-08
-5.08705e-10
8.91987e-08
-5.09809e-10
8.9096e-08
-5.0853e-10
8.89954e-08
-5.05028e-10
8.88971e-08
-4.99412e-10
8.88012e-08
-4.91772e-10
-4.82161e-10
8.87077e-08
7.02717e-08
-2.76246e-10
7.0183e-08
-3.10192e-10
7.00893e-08
-3.37222e-10
6.99927e-08
-3.58996e-10
6.98947e-08
-3.76334e-10
6.97962e-08
-3.89884e-10
6.9698e-08
-4.00185e-10
6.96007e-08
-4.07652e-10
6.95045e-08
-4.12588e-10
6.94099e-08
-4.15209e-10
6.93171e-08
-4.15672e-10
6.92262e-08
-4.141e-10
6.91373e-08
-4.10577e-10
6.90507e-08
-4.05182e-10
-3.97955e-10
6.89665e-08
5.42245e-08
-2.07952e-10
5.41496e-08
-2.35347e-10
5.40704e-08
-2.57992e-10
5.39883e-08
-2.76909e-10
5.39045e-08
-2.92475e-10
5.38197e-08
-3.05091e-10
5.37346e-08
-3.15112e-10
5.36498e-08
-3.228e-10
5.35655e-08
-3.28351e-10
5.34822e-08
-3.31911e-10
5.34001e-08
-3.33593e-10
5.33195e-08
-3.33487e-10
5.32406e-08
-3.31656e-10
5.31636e-08
-3.28161e-10
-3.23028e-10
5.30887e-08
4.13987e-08
-1.52573e-10
4.13376e-08
-1.74289e-10
4.12725e-08
-1.92876e-10
4.12044e-08
-2.08832e-10
4.11343e-08
-2.22285e-10
4.10627e-08
-2.33493e-10
4.09902e-08
-2.42676e-10
4.09174e-08
-2.49993e-10
4.08446e-08
-2.55567e-10
4.07722e-08
-2.59492e-10
4.07005e-08
-2.61848e-10
4.06297e-08
-2.62698e-10
4.05601e-08
-2.62086e-10
4.0492e-08
-2.60053e-10
-2.56615e-10
4.04256e-08
3.12263e-08
-1.0883e-10
3.11776e-08
-1.25581e-10
3.11251e-08
-1.40374e-10
3.10696e-08
-1.53316e-10
3.10117e-08
-1.64432e-10
3.09521e-08
-1.7389e-10
3.08913e-08
-1.81818e-10
3.08296e-08
-1.88306e-10
3.07674e-08
-1.93427e-10
3.07052e-08
-1.97242e-10
3.06431e-08
-1.99802e-10
3.05816e-08
-2.01148e-10
3.05208e-08
-2.01308e-10
3.04611e-08
-2.00307e-10
-1.98149e-10
3.04026e-08
2.32138e-08
-7.49932e-11
2.31757e-08
-8.74692e-11
2.31341e-08
-9.87755e-11
2.30895e-08
-1.08789e-10
2.30426e-08
-1.17516e-10
2.29938e-08
-1.25066e-10
2.29435e-08
-1.31506e-10
2.2892e-08
-1.36883e-10
2.28399e-08
-1.41238e-10
2.27872e-08
-1.44605e-10
2.27344e-08
-1.47017e-10
2.26818e-08
-1.48496e-10
2.26295e-08
-1.49061e-10
2.2578e-08
-1.4872e-10
-1.47473e-10
2.25273e-08
1.69447e-08
-4.94164e-11
1.69155e-08
-5.83079e-11
1.68833e-08
-6.65135e-11
1.68483e-08
-7.38334e-11
1.68111e-08
-8.0292e-11
1.6772e-08
-8.59547e-11
1.67313e-08
-9.08536e-11
1.66894e-08
-9.50096e-11
1.66466e-08
-9.84424e-11
1.66032e-08
-1.01169e-10
1.65594e-08
-1.03208e-10
1.65155e-08
-1.04571e-10
1.64717e-08
-1.05267e-10
1.64283e-08
-1.05295e-10
-1.04652e-10
1.63854e-08
1.20741e-08
-3.06597e-11
1.20525e-08
-3.66433e-11
1.20282e-08
-4.22096e-11
1.20015e-08
-4.71951e-11
1.19729e-08
-5.1641e-11
1.19425e-08
-5.55842e-11
1.19107e-08
-5.90363e-11
1.18777e-08
-6.20037e-11
1.18437e-08
-6.44937e-11
1.18091e-08
-6.65131e-11
1.1774e-08
-6.80704e-11
1.17386e-08
-6.91701e-11
1.17031e-08
-6.98164e-11
1.16678e-08
-7.00048e-11
-6.9728e-11
1.16329e-08
8.31963e-09
-1.74679e-11
8.30417e-09
-2.11851e-11
8.28659e-09
-2.46252e-11
8.26711e-09
-2.77136e-11
8.24596e-09
-3.04948e-11
8.22336e-09
-3.29867e-11
8.19952e-09
-3.51914e-11
8.17462e-09
-3.71081e-11
8.14887e-09
-3.87376e-11
8.12244e-09
-4.00812e-11
8.09551e-09
-4.11421e-11
8.06826e-09
-4.19209e-11
8.04086e-09
-4.24193e-11
8.01349e-09
-4.26313e-11
-4.25475e-11
7.98631e-09
5.45133e-09
-8.72889e-12
5.44092e-09
-1.07721e-11
5.42891e-09
-1.26185e-11
5.41548e-09
-1.42797e-11
5.40077e-09
-1.57901e-11
5.38494e-09
-1.71565e-11
5.36813e-09
-1.83772e-11
5.35047e-09
-1.94492e-11
5.3321e-09
-2.03709e-11
5.31316e-09
-2.11413e-11
5.29378e-09
-2.1761e-11
5.27409e-09
-2.22292e-11
5.25422e-09
-2.25465e-11
5.23429e-09
-2.27076e-11
-2.27023e-11
5.21445e-09
3.28331e-09
-3.4537e-12
3.2769e-09
-4.36161e-12
3.26942e-09
-5.13302e-12
3.26097e-09
-5.8303e-12
3.25165e-09
-6.47182e-12
3.24155e-09
-7.05825e-12
3.23076e-09
-7.58718e-12
3.21937e-09
-8.05603e-12
3.20746e-09
-8.46312e-12
3.19513e-09
-8.80709e-12
3.18245e-09
-9.08775e-12
3.16953e-09
-9.30414e-12
3.15644e-09
-9.4566e-12
3.14327e-09
-9.54165e-12
-9.55033e-12
3.13012e-09
1.66578e-09
-7.86907e-13
1.66245e-09
-1.03508e-12
1.65853e-09
-1.2097e-12
1.65407e-09
-1.3712e-12
1.64912e-09
-1.52343e-12
1.64373e-09
-1.6649e-12
1.63794e-09
-1.79402e-12
1.63179e-09
-1.90945e-12
1.62534e-09
-2.01035e-12
1.61863e-09
-2.09608e-12
1.61171e-09
-2.16648e-12
1.60462e-09
-2.2212e-12
1.59743e-09
-2.26029e-12
1.59017e-09
-2.28245e-12
-2.28233e-12
1.5829e-09
4.78525e-10
4.7749e-10
4.7628e-10
4.74909e-10
4.73386e-10
4.71721e-10
4.69927e-10
4.68017e-10
4.66007e-10
4.63911e-10
4.61744e-10
4.59523e-10
4.57263e-10
4.5498e-10
4.52698e-10
1.20868e-09
-4.71246e-10
2.711e-10
1.497e-09
-3.79704e-10
9.13861e-11
1.78936e-09
-2.20585e-10
-7.17786e-11
2.07916e-09
-5.8759e-11
-2.31035e-10
2.36417e-09
9.96033e-11
-3.84613e-10
2.64494e-09
2.45312e-10
-5.26085e-10
2.92263e-09
3.74848e-10
-6.52535e-10
3.19808e-09
4.84831e-10
-7.6028e-10
3.47193e-09
5.71386e-10
-8.45243e-10
3.74468e-09
6.30204e-10
-9.02951e-10
4.01666e-09
6.56511e-10
-9.28495e-10
4.28811e-09
6.45084e-10
-9.16529e-10
4.55912e-09
5.90314e-10
-8.61328e-10
4.82973e-09
4.86843e-10
-7.57447e-10
5.09993e-09
3.30904e-10
-6.01104e-10
5.36998e-09
1.23106e-10
-3.93162e-10
5.64077e-09
-1.27773e-10
-1.43013e-10
5.9146e-09
-3.98743e-10
1.24914e-10
6.19591e-09
-6.50131e-10
3.68821e-10
6.49192e-09
-8.18692e-10
5.22681e-10
6.81188e-09
-8.41956e-10
5.21993e-10
7.16296e-09
-6.74267e-10
3.2319e-10
7.4901e-09
-3.4584e-10
1.87008e-11
7.76571e-09
-1.59971e-10
-1.15643e-10
7.98556e-09
-1.59713e-10
-6.01382e-11
8.14944e-09
-2.93825e-10
1.29946e-10
8.25958e-09
-5.12982e-10
4.0284e-10
8.31887e-09
-7.80932e-10
7.21647e-10
8.32951e-09
-1.06908e-09
1.05844e-09
8.29253e-09
-1.34839e-09
1.38537e-09
8.20928e-09
-1.59806e-09
1.68131e-09
8.08173e-09
-1.7944e-09
1.92195e-09
7.91154e-09
-1.90752e-09
2.07771e-09
7.70118e-09
-1.92039e-09
2.13074e-09
7.4537e-09
-1.82087e-09
2.06836e-09
7.1722e-09
-1.60252e-09
1.88402e-09
6.85962e-09
-1.26356e-09
1.57614e-09
6.5187e-09
-8.04021e-10
1.14494e-09
6.15228e-09
-2.21947e-10
5.88365e-10
5.76241e-09
4.89303e-10
-9.94328e-11
5.34772e-09
1.33459e-09
-9.19902e-10
4.89489e-09
2.28937e-09
-1.83654e-09
4.37733e-09
3.22882e-09
-2.71126e-09
3.7987e-09
3.84608e-09
-3.26745e-09
3.37818e-09
3.44915e-09
-3.02862e-09
2.52867e-09
-5.51427e-10
2.70308e-09
-5.54111e-10
2.94049e-09
-4.5799e-10
3.20674e-09
-3.25017e-10
3.48734e-09
-1.80993e-10
3.77464e-09
-4.19825e-11
4.06533e-09
8.41516e-11
4.35786e-09
1.92303e-10
4.65146e-09
2.77783e-10
4.94577e-09
3.35894e-10
5.24057e-09
3.61717e-10
5.53565e-09
3.50005e-10
5.83077e-09
2.95189e-10
6.12565e-09
1.91962e-10
6.41997e-09
3.65828e-11
6.71367e-09
-1.70587e-10
7.00725e-09
-4.21359e-10
7.30274e-09
-6.94235e-10
7.60439e-09
-9.51779e-10
7.91946e-09
-1.13376e-09
8.25766e-09
-1.18015e-09
8.62705e-09
-1.04366e-09
8.97129e-09
-6.90084e-10
9.2624e-09
-4.51077e-10
9.49601e-09
-3.93325e-10
9.67154e-09
-4.69351e-10
9.79082e-09
-6.3227e-10
9.85651e-09
-8.46621e-10
9.8707e-09
-1.08327e-09
9.8343e-09
-1.31199e-09
9.74893e-09
-1.51269e-09
9.61716e-09
-1.66263e-09
9.44117e-09
-1.73153e-09
9.22435e-09
-1.70358e-09
8.97102e-09
-1.56754e-09
8.68607e-09
-1.31757e-09
8.37498e-09
-9.52476e-10
8.04428e-09
-4.73312e-10
7.70287e-09
1.19463e-10
7.3639e-09
8.28268e-10
7.04647e-09
1.65202e-09
6.77444e-09
2.5614e-09
6.57765e-09
3.42561e-09
6.48816e-09
3.93556e-09
3.48111e-09
6.38523e-09
4.42076e-09
-5.68796e-10
4.50117e-09
-6.34527e-10
4.65686e-09
-6.13681e-10
4.86895e-09
-5.37105e-10
5.11711e-09
-4.29154e-10
5.38818e-09
-3.13051e-10
5.674e-09
-2.01671e-10
5.96957e-09
-1.03269e-10
6.27181e-09
-2.44548e-11
6.57878e-09
2.89231e-11
6.88916e-09
5.13373e-11
7.20192e-09
3.72423e-11
7.51618e-09
-1.90618e-11
7.83105e-09
-1.22917e-10
8.14572e-09
-2.78084e-10
8.45957e-09
-4.84438e-10
8.77259e-09
-7.34371e-10
9.08625e-09
-1.0079e-09
9.40442e-09
-1.26994e-09
9.73414e-09
-1.46348e-09
1.00854e-08
-1.53138e-09
1.0467e-08
-1.42528e-09
1.08226e-08
-1.04567e-09
1.11244e-08
-7.52865e-10
1.1368e-08
-6.36926e-10
1.15523e-08
-6.53726e-10
1.16788e-08
-7.58728e-10
1.17496e-08
-9.17444e-10
1.17667e-08
-1.10031e-09
1.17307e-08
-1.27605e-09
1.16437e-08
-1.42569e-09
1.15089e-08
-1.52785e-09
1.13292e-08
-1.5518e-09
1.11091e-08
-1.48343e-09
1.08544e-08
-1.31286e-09
1.05723e-08
-1.03546e-09
1.02713e-08
-6.51456e-10
9.96224e-09
-1.64297e-10
9.66065e-09
4.21053e-10
9.39018e-09
1.09874e-09
9.18623e-09
1.85597e-09
9.09473e-09
2.6529e-09
9.15227e-09
3.36807e-09
9.32316e-09
3.76468e-09
3.41957e-09
9.3847e-09
7.01389e-09
-5.51817e-10
7.03162e-09
-6.5226e-10
7.10654e-09
-6.88602e-10
7.24518e-09
-6.75743e-10
7.43621e-09
-6.20185e-10
7.66597e-09
-5.42803e-10
7.92412e-09
-4.59823e-10
8.20294e-09
-3.82093e-10
8.49692e-09
-3.18428e-10
8.80216e-09
-2.76319e-10
9.11581e-09
-2.62317e-10
9.43562e-09
-2.82569e-10
9.7597e-09
-3.43136e-10
1.00863e-08
-4.49537e-10
1.04139e-08
-6.05619e-10
1.07409e-08
-8.11513e-10
1.10667e-08
-1.06017e-09
1.1392e-08
-1.33315e-09
1.17198e-08
-1.59779e-09
1.20568e-08
-1.80047e-09
1.24128e-08
-1.8874e-09
1.27974e-08
-1.80985e-09
1.31556e-08
-1.40386e-09
1.34606e-08
-1.05789e-09
1.37081e-08
-8.8446e-10
1.38966e-08
-8.42218e-10
1.40267e-08
-8.88793e-10
1.41001e-08
-9.90871e-10
1.41183e-08
-1.11852e-09
1.40821e-08
-1.23984e-09
1.39937e-08
-1.33725e-09
1.38571e-08
-1.39122e-09
1.36758e-08
-1.37057e-09
1.34559e-08
-1.26353e-09
1.32051e-08
-1.062e-09
1.29328e-08
-7.63162e-10
1.26508e-08
-3.69504e-10
1.23744e-08
1.12137e-10
1.21243e-08
6.71165e-10
1.19305e-08
1.29253e-09
1.18344e-08
1.95205e-09
1.18828e-08
2.60449e-09
1.2098e-08
3.15282e-09
1.24268e-08
3.43592e-09
3.23073e-09
1.26156e-08
1.04787e-08
-5.2166e-10
1.04596e-08
-6.33167e-10
1.04755e-08
-7.04442e-10
1.05393e-08
-7.39571e-10
1.06591e-08
-7.39965e-10
1.08272e-08
-7.10983e-10
1.10349e-08
-6.6746e-10
1.12742e-08
-6.21416e-10
1.15385e-08
-5.82747e-10
1.18225e-08
-5.60273e-10
1.21217e-08
-5.61555e-10
1.24326e-08
-5.93452e-10
1.2752e-08
-6.62554e-10
1.30772e-08
-7.7468e-10
1.34054e-08
-9.33826e-10
1.37342e-08
-1.14039e-09
1.40619e-08
-1.38785e-09
1.43881e-08
-1.65931e-09
1.47149e-08
-1.92456e-09
1.50479e-08
-2.1335e-09
1.53966e-08
-2.23613e-09
1.57709e-08
-2.18411e-09
1.61192e-08
-1.75217e-09
1.64167e-08
-1.35537e-09
1.66591e-08
-1.12689e-09
1.68444e-08
-1.0275e-09
1.69723e-08
-1.01669e-09
1.70439e-08
-1.06252e-09
1.706e-08
-1.13464e-09
1.70218e-08
-1.20159e-09
1.69318e-08
-1.24728e-09
1.6794e-08
-1.25341e-09
1.66134e-08
-1.18997e-09
1.63975e-08
-1.04758e-09
1.61558e-08
-8.20303e-10
1.59002e-08
-5.07645e-10
1.56456e-08
-1.14897e-10
1.54103e-08
3.47428e-10
1.52181e-08
8.6339e-10
1.50997e-08
1.41097e-09
1.50923e-08
1.95943e-09
1.52316e-08
2.46514e-09
1.55247e-08
2.85976e-09
1.59096e-08
3.05106e-09
2.94237e-09
1.61979e-08
1.50141e-08
-4.91931e-10
1.49787e-08
-5.97709e-10
1.49608e-08
-6.86581e-10
1.49714e-08
-7.50193e-10
1.50225e-08
-7.91085e-10
1.51209e-08
-8.09294e-10
1.5263e-08
-8.09617e-10
1.54434e-08
-8.01822e-10
1.56567e-08
-7.96053e-10
1.58976e-08
-8.01176e-10
1.61611e-08
-8.25072e-10
1.64427e-08
-8.74967e-10
1.6738e-08
-9.57908e-10
1.70433e-08
-1.07998e-09
1.73548e-08
-1.2453e-09
1.76689e-08
-1.45449e-09
1.79825e-08
-1.70144e-09
1.82939e-08
-1.97078e-09
1.86041e-08
-2.23477e-09
1.89174e-08
-2.44674e-09
1.92422e-08
-2.56094e-09
1.95882e-08
-2.53015e-09
1.99099e-08
-2.07386e-09
2.01852e-08
-1.6306e-09
2.04099e-08
-1.35161e-09
2.05814e-08
-1.19903e-09
2.06986e-08
-1.13384e-09
2.07615e-08
-1.12542e-09
2.07704e-08
-1.14357e-09
2.07265e-08
-1.15774e-09
2.06341e-08
-1.15483e-09
2.04949e-08
-1.11425e-09
2.03164e-08
-1.01149e-09
2.01077e-08
-8.38808e-10
1.98799e-08
-5.92565e-10
1.96472e-08
-2.74899e-10
1.94262e-08
1.06057e-10
1.9237e-08
5.36622e-10
1.91032e-08
9.97248e-10
1.90513e-08
1.46284e-09
1.91085e-08
1.9022e-09
1.92948e-08
2.27892e-09
1.96044e-08
2.5501e-09
1.99841e-08
2.67135e-09
2.60878e-09
2.03177e-08
2.08515e-08
-4.69621e-10
2.08173e-08
-5.63537e-10
2.07846e-08
-6.5386e-10
2.07672e-08
-7.32857e-10
2.07729e-08
-7.96712e-10
2.08111e-08
-8.47571e-10
2.08871e-08
-8.85614e-10
2.10009e-08
-9.15597e-10
2.11496e-08
-9.44744e-10
2.133e-08
-9.81559e-10
2.1538e-08
-1.03305e-09
2.1769e-08
-1.10603e-09
2.20187e-08
-1.2076e-09
2.22825e-08
-1.3438e-09
2.25559e-08
-1.51864e-09
2.28342e-08
-1.73275e-09
2.3113e-08
-1.98024e-09
2.33893e-08
-2.24715e-09
2.36626e-08
-2.50808e-09
2.39355e-08
-2.71962e-09
2.42151e-08
-2.84053e-09
2.45103e-08
-2.82536e-09
2.47842e-08
-2.34778e-09
2.50185e-08
-1.86486e-09
2.52091e-08
-1.54221e-09
2.53528e-08
-1.34272e-09
2.54473e-08
-1.22838e-09
2.54908e-08
-1.16889e-09
2.54849e-08
-1.1377e-09
2.54315e-08
-1.10432e-09
2.5333e-08
-1.05638e-09
2.51908e-08
-9.71996e-10
2.50147e-08
-8.35353e-10
2.4815e-08
-6.39193e-10
2.46046e-08
-3.82143e-10
2.43986e-08
-6.88869e-11
2.42145e-08
2.90172e-10
2.40719e-08
6.79258e-10
2.39912e-08
1.07786e-09
2.39924e-08
1.46166e-09
2.40908e-08
1.80379e-09
2.42922e-08
2.07754e-09
2.45836e-08
2.25872e-09
2.49249e-08
2.32999e-09
2.28546e-09
2.52483e-08
2.82603e-08
-4.56481e-10
2.82354e-08
-5.38649e-10
2.8205e-08
-6.23424e-10
2.81777e-08
-7.05545e-10
2.81623e-08
-7.81336e-10
2.81648e-08
-8.50099e-10
2.8192e-08
-9.12805e-10
2.82472e-08
-9.70759e-10
2.83329e-08
-1.03043e-09
2.84477e-08
-1.09642e-09
2.85898e-08
-1.17513e-09
2.87559e-08
-1.2721e-09
2.89423e-08
-1.39406e-09
2.91449e-08
-1.54642e-09
2.9359e-08
-1.73265e-09
2.95792e-08
-1.95302e-09
2.98004e-08
-2.20145e-09
3.00185e-08
-2.46524e-09
3.02315e-08
-2.72101e-09
3.044e-08
-2.92819e-09
3.06496e-08
-3.05015e-09
3.08679e-08
-3.04363e-09
3.10697e-08
-2.54952e-09
3.1241e-08
-2.03621e-09
3.13778e-08
-1.67901e-09
3.14763e-08
-1.44123e-09
3.15328e-08
-1.28484e-09
3.15437e-08
-1.17981e-09
3.15129e-08
-1.10695e-09
3.14438e-08
-1.03515e-09
3.13324e-08
-9.44962e-10
3.11835e-08
-8.23099e-10
3.10082e-08
-6.6009e-10
3.08178e-08
-4.48806e-10
3.06257e-08
-1.90035e-10
3.04472e-08
1.0958e-10
3.02992e-08
4.38201e-10
3.01988e-08
7.79698e-10
3.01617e-08
1.11497e-09
3.02e-08
1.42328e-09
3.03195e-08
1.6843e-09
3.05164e-08
1.88068e-09
3.07747e-08
2.00045e-09
3.10651e-08
2.03951e-09
2.00247e-09
3.13481e-08
3.75481e-08
-4.51713e-10
3.7534e-08
-5.24579e-10
3.75131e-08
-6.02525e-10
3.749e-08
-6.82425e-10
3.74703e-08
-7.61663e-10
3.74592e-08
-8.39028e-10
3.74619e-08
-9.15415e-10
3.7481e-08
-9.89926e-10
3.75197e-08
-1.06907e-09
3.75807e-08
-1.15747e-09
3.76624e-08
-1.25684e-09
3.77632e-08
-1.37291e-09
3.78811e-08
-1.51196e-09
3.80128e-08
-1.67811e-09
3.81541e-08
-1.87389e-09
3.82999e-08
-2.09887e-09
3.84446e-08
-2.34616e-09
3.85838e-08
-2.60439e-09
3.87143e-08
-2.85154e-09
3.88354e-08
-3.04925e-09
3.89506e-08
-3.16538e-09
3.90659e-08
-3.15897e-09
3.91709e-08
-2.65446e-09
3.92567e-08
-2.12205e-09
3.93189e-08
-1.74117e-09
3.93523e-08
-1.47469e-09
3.93515e-08
-1.28403e-09
3.93202e-08
-1.14853e-09
3.92553e-08
-1.04197e-09
3.91539e-08
-9.33782e-10
3.90201e-08
-8.11141e-10
3.88603e-08
-6.63295e-10
3.86828e-08
-4.8261e-10
3.84994e-08
-2.65387e-10
3.83236e-08
-1.42673e-11
3.81697e-08
2.63435e-10
3.80527e-08
5.55261e-10
3.79857e-08
8.46663e-10
3.79792e-08
1.12151e-09
3.80385e-08
1.36395e-09
3.81626e-08
1.56018e-09
3.8343e-08
1.70029e-09
3.85639e-08
1.77961e-09
3.88037e-08
1.79966e-09
1.76757e-09
3.90386e-08
4.90524e-08
-4.55053e-10
4.90489e-08
-5.21124e-10
4.90395e-08
-5.93156e-10
4.90266e-08
-6.69471e-10
4.90133e-08
-7.48407e-10
4.90033e-08
-8.29e-10
4.89993e-08
-9.11443e-10
4.90058e-08
-9.96405e-10
4.90221e-08
-1.08533e-09
4.90495e-08
-1.18491e-09
4.90899e-08
-1.2972e-09
4.91419e-08
-1.42492e-09
4.9203e-08
-1.57307e-09
4.92708e-08
-1.74592e-09
4.93416e-08
-1.94464e-09
4.94108e-08
-2.16805e-09
4.94727e-08
-2.40808e-09
4.95232e-08
-2.65495e-09
4.95588e-08
-2.88713e-09
4.95774e-08
-3.06787e-09
4.95813e-08
-3.16928e-09
4.95747e-08
-3.15237e-09
4.9564e-08
-2.64369e-09
4.95461e-08
-2.10421e-09
4.9516e-08
-1.71108e-09
4.94691e-08
-1.42777e-09
4.94011e-08
-1.21605e-09
4.93083e-08
-1.05568e-09
4.91889e-08
-9.22586e-10
4.90467e-08
-7.9155e-10
4.88839e-08
-6.48385e-10
4.87058e-08
-4.85125e-10
4.85205e-08
-2.97406e-10
4.83395e-08
-8.43267e-11
4.81747e-08
1.50487e-10
4.80391e-08
3.99046e-10
4.79441e-08
6.50295e-10
4.78987e-08
8.92055e-10
4.79082e-08
1.11197e-09
4.79732e-08
1.299e-09
4.80887e-08
1.4447e-09
4.82447e-08
1.54423e-09
4.84275e-08
1.59688e-09
4.86211e-08
1.60605e-09
1.57846e-09
4.88102e-08
6.31342e-08
-4.68369e-10
6.31427e-08
-5.29606e-10
6.31465e-08
-5.97027e-10
6.31469e-08
-6.69864e-10
6.31457e-08
-7.47208e-10
6.31452e-08
-8.28417e-10
6.31472e-08
-9.13495e-10
6.3154e-08
-1.00321e-09
6.3167e-08
-1.09832e-09
6.31849e-08
-1.20278e-09
6.32068e-08
-1.31912e-09
6.32327e-08
-1.45084e-09
6.32605e-08
-1.6009e-09
6.32863e-08
-1.77174e-09
6.33058e-08
-1.96414e-09
6.33139e-08
-2.17613e-09
6.33059e-08
-2.40005e-09
6.32773e-08
-2.62634e-09
6.32232e-08
-2.83309e-09
6.31417e-08
-2.9863e-09
6.30341e-08
-3.06172e-09
6.2903e-08
-3.02131e-09
6.27719e-08
-2.51255e-09
6.26442e-08
-1.97652e-09
6.25141e-08
-1.58094e-09
6.2377e-08
-1.29072e-09
6.22299e-08
-1.06895e-09
6.20679e-08
-8.93665e-10
6.18897e-08
-7.4443e-10
6.16987e-08
-6.00473e-10
6.14986e-08
-4.48296e-10
6.12952e-08
-2.81723e-10
6.10962e-08
-9.83868e-11
6.09112e-08
1.00598e-10
6.07507e-08
3.11045e-10
6.06245e-08
5.25241e-10
6.05404e-08
7.34338e-10
6.05035e-08
9.28972e-10
6.0515e-08
1.10045e-09
6.05723e-08
1.24173e-09
6.06688e-08
1.34819e-09
6.0795e-08
1.41807e-09
6.09394e-08
1.45245e-09
6.10905e-08
1.455e-09
1.43119e-09
6.12377e-08
8.01903e-08
-4.95283e-10
8.02138e-08
-5.53182e-10
8.0234e-08
-6.1719e-10
8.02512e-08
-6.87085e-10
8.02665e-08
-7.62493e-10
8.02812e-08
-8.43094e-10
8.02966e-08
-9.28892e-10
8.03137e-08
-1.02035e-09
8.03338e-08
-1.11839e-09
8.03559e-08
-1.22486e-09
8.03784e-08
-1.34166e-09
8.03996e-08
-1.47204e-09
8.04166e-08
-1.61789e-09
8.04247e-08
-1.77983e-09
8.04188e-08
-1.95826e-09
8.03935e-08
-2.15085e-09
8.03433e-08
-2.3498e-09
8.02609e-08
-2.54394e-09
8.01421e-08
-2.71429e-09
7.99854e-08
-2.82957e-09
7.97893e-08
-2.86571e-09
7.95554e-08
-2.78741e-09
7.93212e-08
-2.27835e-09
7.90968e-08
-1.75205e-09
7.88762e-08
-1.36033e-09
7.86551e-08
-1.06964e-09
7.84315e-08
-8.45401e-10
7.82025e-08
-6.64654e-10
7.79672e-08
-5.09075e-10
7.77284e-08
-3.61663e-10
7.74907e-08
-2.1061e-10
7.72608e-08
-5.18738e-11
7.70453e-08
1.17124e-10
7.68524e-08
2.93535e-10
7.66902e-08
4.73217e-10
7.65653e-08
6.50118e-10
7.64822e-08
8.17494e-10
7.64424e-08
9.68782e-10
7.64445e-08
1.09833e-09
7.64842e-08
1.20202e-09
7.65547e-08
1.27768e-09
7.66476e-08
1.32517e-09
7.67539e-08
1.34618e-09
7.68649e-08
1.34396e-09
1.3227e-09
7.69734e-08
1.00696e-07
-5.38857e-10
1.00738e-07
-5.94552e-10
1.00777e-07
-6.56131e-10
1.00813e-07
-7.23679e-10
1.00848e-07
-7.97158e-10
1.00881e-07
-8.76502e-10
1.00914e-07
-9.61787e-10
1.00947e-07
-1.05328e-09
1.0098e-07
-1.15164e-09
1.01013e-07
-1.2578e-09
1.01045e-07
-1.37315e-09
1.01072e-07
-1.49914e-09
1.01091e-07
-1.63723e-09
1.01098e-07
-1.78665e-09
1.01087e-07
-1.94754e-09
1.01052e-07
-2.11591e-09
1.00986e-07
-2.28317e-09
1.00881e-07
-2.43894e-09
1.00732e-07
-2.56533e-09
1.00536e-07
-2.63379e-09
1.00291e-07
-2.62072e-09
9.99964e-08
-2.49293e-09
9.96979e-08
-1.97979e-09
9.94101e-08
-1.4643e-09
9.91281e-08