/*--------------------------------*- C++ -*----------------------------------*\
| =========                 |                                                 |
| \\      /  F ield         | OpenFOAM: The Open Source CFD Toolbox           |
|  \\    /   O peration     | Version:  2312                                  |
|   \\  /    A nd           | Website:  www.openfoam.com                      |
|    \\/     M anipulation  |                                                 |
\*---------------------------------------------------------------------------*/
FoamFile
{
    version     2.0;
    format      ascii;
    arch        "LSB;label=32;scalar=64";
    class       volVectorField;
    location    "120.5";
    object      U;
}
// * * * * * * * * * * * * * * * * * * * * * * * * * * * * * * * * * * * * * //

dimensions      [0 1 -1 0 0 0 0];

internalField   nonuniform List<vector> 
4800
(
(0.000465998 2.31876e-07 -1.87339e-26)
(0.000460973 2.17896e-07 -1.31225e-25)
(0.00045886 1.92781e-07 1.68541e-25)
(0.000458633 1.7543e-07 7.69711e-26)
(0.000459537 1.70687e-07 1.14526e-24)
(0.000461226 1.47892e-07 -2.74145e-24)
(0.000463604 9.30172e-08 2.5808e-24)
(0.000466631 -1.42077e-09 -3.77428e-24)
(0.000470389 -1.49923e-07 1.20094e-24)
(0.000475047 -3.95907e-07 4.18183e-24)
(0.000481049 -8.95169e-07 -1.28596e-24)
(0.000489713 -2.30084e-06 -1.03364e-25)
(0.000508484 -7.54625e-06 -1.60028e-24)
(0.000555275 -2.87201e-05 7.71157e-25)
(0.00063095 -9.16821e-05 -6.19642e-25)
(0.00144528 1.19867e-06 -5.92481e-26)
(0.00143015 6.72931e-07 7.38349e-26)
(0.00142354 2.53357e-07 -6.77408e-25)
(0.00142242 -9.40266e-08 5.03436e-25)
(0.00142452 -3.87886e-07 1.62805e-24)
(0.00142891 -7.11328e-07 -2.62406e-24)
(0.00143532 -1.12911e-06 -7.67484e-25)
(0.00144351 -1.69858e-06 -1.97611e-25)
(0.00145371 -2.51397e-06 6.27287e-24)
(0.0014664 -3.80888e-06 -4.65867e-24)
(0.00148284 -6.25482e-06 5.06622e-25)
(0.00150582 -1.21016e-05 7.86675e-25)
(0.00154443 -2.91273e-05 -1.18149e-24)
(0.00160898 -8.11202e-05 -3.84128e-25)
(0.00167683 -0.000196951 1.57924e-24)
(0.00253206 3.80487e-06 -4.23726e-26)
(0.00250632 2.14474e-06 4.33209e-26)
(0.00249472 8.68593e-07 4.42709e-25)
(0.00249215 -2.03372e-07 -1.04777e-24)
(0.00249488 -1.16561e-06 1.0283e-24)
(0.00250135 -2.20419e-06 9.9266e-25)
(0.00251119 -3.46656e-06 -2.58144e-24)
(0.00252376 -5.11711e-06 -1.62354e-24)
(0.00253935 -7.44701e-06 3.87665e-24)
(0.00255857 -1.10739e-05 1.48889e-24)
(0.00258281 -1.7494e-05 -5.17421e-24)
(0.00261431 -3.06854e-05 -8.16867e-25)
(0.00265723 -6.01888e-05 2.22804e-24)
(0.00271009 -0.000125419 3.59215e-24)
(0.00274748 -0.000232998 -1.86463e-24)
(0.00373239 8.4229e-06 1.56571e-26)
(0.00369579 4.84766e-06 -1.08642e-25)
(0.00367876 2.11616e-06 4.83284e-25)
(0.00367409 -1.57226e-07 5.11332e-25)
(0.00367683 -2.15995e-06 -5.00744e-25)
(0.00368452 -4.35833e-06 -2.99472e-24)
(0.0036969 -6.97008e-06 -2.09151e-24)
(0.00371269 -1.02758e-05 7.78788e-24)
(0.00373212 -1.48476e-05 3.28178e-24)
(0.00375556 -2.16948e-05 -4.67476e-24)
(0.00378382 -3.28979e-05 -1.90118e-24)
(0.00381743 -5.29435e-05 -1.47108e-24)
(0.0038557 -8.97309e-05 3.95833e-26)
(0.00389142 -0.000153165 1.09855e-24)
(0.00390647 -0.000237778 5.37827e-27)
(0.00504968 1.54276e-05 -2.87321e-26)
(0.00500256 9.03126e-06 -1.74587e-25)
(0.00497997 4.17371e-06 -1.09735e-25)
(0.00497256 1.00364e-07 2.91989e-25)
(0.00497471 -3.30187e-06 -8.27904e-25)
(0.00498277 -7.10025e-06 2.11959e-24)
(0.00499656 -1.15552e-05 -3.7231e-25)
(0.00501417 -1.69792e-05 1.35291e-24)
(0.00503557 -2.42454e-05 -7.52078e-24)
(0.00506062 -3.45975e-05 1.43722e-23)
(0.00508919 -5.01623e-05 -1.39774e-23)
(0.00512018 -7.45792e-05 7.42768e-24)
(0.00515039 -0.000112544 -6.926e-24)
(0.00517227 -0.000167018 6.539e-24)
(0.00517575 -0.000230301 -2.60483e-24)
(0.00648296 2.52029e-05 3.79432e-26)
(0.0064268 1.49936e-05 1.34669e-25)
(0.00639915 7.29352e-06 -7.10972e-25)
(0.00638875 9.85587e-07 -4.50644e-25)
(0.00638996 -4.63793e-06 1.20096e-24)
(0.00639775 -1.02766e-05 4.35438e-25)
(0.00641177 -1.69426e-05 -3.45244e-24)
(0.00642976 -2.48016e-05 8.28607e-24)
(0.00645124 -3.49062e-05 -1.08457e-23)
(0.00647551 -4.85048e-05 2.59211e-24)
(0.00650157 -6.73035e-05 8.01263e-24)
(0.0065274 -9.34833e-05 -1.11788e-23)
(0.00654942 -0.000128808 5.61308e-24)
(0.00656219 -0.000172683 5.72423e-24)
(0.00656127 -0.00021893 -4.3552e-24)
(0.00802483 3.79013e-05 3.12865e-26)
(0.007963 2.28959e-05 -1.84185e-25)
(0.00793195 1.1652e-05 6.57673e-25)
(0.00791943 2.42854e-06 -9.12221e-25)
(0.00791936 -5.61892e-06 -3.11196e-24)
(0.00792682 -1.36877e-05 5.3109e-24)
(0.00794021 -2.27539e-05 -3.25759e-24)
(0.00795743 -3.31729e-05 1.11783e-23)
(0.00797751 -4.59572e-05 -7.60203e-24)
(0.00799926 -6.21475e-05 -3.58345e-24)
(0.00802118 -8.28011e-05 -7.09916e-24)
(0.00804111 -0.000108741 6.53571e-24)
(0.00805627 -0.000139873 1.84109e-24)
(0.00806349 -0.000174391 1.55963e-24)
(0.00806153 -0.000208203 -1.37231e-24)
(0.0096596 5.30952e-05 -4.46649e-26)
(0.00959806 3.25032e-05 6.06222e-25)
(0.00956702 1.71154e-05 -1.40983e-24)
(0.00955448 4.5313e-06 -1.15552e-24)
(0.0095541 -6.40325e-06 4.25492e-25)
(0.00956142 -1.7115e-05 8.46531e-25)
(0.00957408 -2.86671e-05 3.09208e-24)
(0.00959001 -4.15536e-05 -8.48714e-24)
(0.00960791 -5.66052e-05 -4.58487e-24)
(0.00962635 -7.45281e-05 1.25418e-23)
(0.00964377 -9.57473e-05 -3.90334e-24)
(0.00965833 -0.000120177 1.33456e-23)
(0.00966834 -0.000146923 -7.03399e-24)
(0.00967223 -0.0001742 -2.21879e-24)
(0.00967032 -0.000199549 1.31002e-24)
(0.0113631 6.93293e-05 -5.75889e-27)
(0.0113106 4.28331e-05 3.32248e-25)
(0.011285 2.29703e-05 -4.73336e-25)
(0.011276 6.79527e-06 1.13609e-24)
(0.0112776 -7.27922e-06 -6.79724e-24)
(0.011286 -2.0702e-05 7.18734e-24)
(0.0112986 -3.46526e-05 -1.14306e-23)
(0.0113136 -4.96949e-05 7.0147e-24)
(0.0113295 -6.64256e-05 5.25429e-24)
(0.0113449 -8.52025e-05 1.14539e-23)
(0.0113586 -0.000105993 -1.49729e-23)
(0.0113691 -0.000128286 -2.74267e-24)
(0.0113757 -0.000151071 1.31292e-24)
(0.0113778 -0.000173025 9.01552e-24)
(0.0113763 -0.000192769 -3.64848e-24)
(0.0131071 8.3753e-05 2.95993e-26)
(0.0130735 5.18062e-05 -1.3503e-25)
(0.0130602 2.76216e-05 6.16805e-25)
(0.0130593 7.93061e-06 -2.17042e-24)
(0.0130663 -9.17379e-06 3.29911e-24)
(0.013078 -2.51732e-05 -4.28091e-24)
(0.0130923 -4.12295e-05 7.19766e-24)
(0.0131075 -5.79317e-05 1.27989e-24)
(0.0131225 -7.56647e-05 -9.97831e-24)
(0.0131361 -9.45199e-05 1.42201e-23)
(0.0131474 -0.000114233 -1.56836e-23)
(0.0131557 -0.000134217 -4.55895e-24)
(0.0131607 -0.000153657 8.1075e-24)
(0.0131623 -0.000171722 2.37443e-24)
(0.0131616 -0.00018769 -1.032e-24)
(0.01487 9.23973e-05 9.8059e-26)
(0.0148629 5.6286e-05 -1.00923e-24)
(0.0148673 2.85296e-05 -1.71398e-24)
(0.0148788 5.7968e-06 4.02851e-24)
(0.0148943 -1.38841e-05 1.82389e-24)
(0.0149118 -3.20133e-05 -1.14643e-23)
(0.0149298 -4.96641e-05 3.52084e-24)
(0.014947 -6.73922e-05 2.55119e-24)
(0.0149628 -8.5434e-05 -1.10678e-23)
(0.0149763 -0.000103741 1.15596e-23)
(0.0149871 -0.000122006 -9.14367e-24)
(0.014995 -0.000139752 2.35604e-23)
(0.0150001 -0.000156437 -1.12398e-23)
(0.0150024 -0.000171604 6.57046e-24)
(0.0150032 -0.000184917 -1.78038e-24)
(0.0166522 9.18884e-05 -9.87616e-27)
(0.016671 5.31946e-05 6.23789e-25)
(0.0166939 2.29494e-05 -1.32598e-24)
(0.0167187 -2.01342e-06 -7.09696e-25)
(0.0167439 -2.35742e-05 7.86631e-24)
(0.0167683 -4.31647e-05 -1.11675e-24)
(0.016791 -6.17416e-05 -1.41077e-23)
(0.0168114 -7.98024e-05 1.64894e-23)
(0.0168292 -9.75124e-05 -3.71844e-24)
(0.016844 -0.000114801 -1.27962e-23)
(0.0168559 -0.000131429 1.35998e-23)
(0.0168648 -0.000147094 7.2025e-24)
(0.0168713 -0.000161492 -6.20318e-24)
(0.0168753 -0.000174417 -1.04882e-23)
(0.016878 -0.000185749 8.71966e-25)
(0.0184796 8.2184e-05 -2.92823e-26)
(0.0185145 4.18247e-05 -6.24288e-25)
(0.0185495 9.79081e-06 3.40539e-24)
(0.0185834 -1.66254e-05 3.22013e-25)
(0.0186153 -3.93824e-05 2.14038e-24)
(0.0186446 -5.97805e-05 -7.47022e-24)
(0.0186708 -7.86558e-05 6.44837e-24)
(0.0186937 -9.64614e-05 1.47231e-24)
(0.0187133 -0.000113363 1.32354e-23)
(0.0187296 -0.000129346 -2.05175e-23)
(0.0187429 -0.000144293 -9.21109e-24)
(0.0187533 -0.000158063 -5.97661e-24)
(0.0187615 -0.000170534 1.13615e-23)
(0.0187674 -0.000181649 -3.11521e-25)
(0.0187721 -0.000191408 1.07911e-24)
(0.0203802 6.72476e-05 -2.95884e-26)
(0.020418 2.51664e-05 5.17608e-25)
(0.0204551 -8.47003e-06 -7.74256e-25)
(0.0204904 -3.61326e-05 -1.78642e-26)
(0.0205231 -5.97656e-05 1.42698e-24)
(0.0205527 -8.06029e-05 3.73012e-24)
(0.0205789 -9.94206e-05 -1.44607e-23)
(0.0206017 -0.000116671 1.20842e-24)
(0.0206212 -0.000132576 7.39979e-24)
(0.0206375 -0.000147219 -3.37521e-24)
(0.0206511 -0.000160608 9.23714e-24)
(0.020662 -0.000172737 6.35705e-24)
(0.020671 -0.000183606 -1.15833e-23)
(0.020678 -0.00019325 7.78501e-24)
(0.020684 -0.00020173 -6.46347e-24)
(0.0223454 5.16316e-05 -7.23656e-25)
(0.0223781 7.62213e-06 8.47097e-25)
(0.0224102 -2.74968e-05 7.4064e-25)
(0.0224407 -5.6395e-05 -5.53612e-24)
(0.0224691 -8.08394e-05 5.0131e-24)
(0.0224947 -0.000102023 -4.06248e-24)
(0.0225174 -0.000120713 2.8746e-24)
(0.022537 -0.000137404 -2.11334e-23)
(0.022554 -0.000152401 3.0508e-23)
(0.0225682 -0.000165894 -1.79717e-23)
(0.0225803 -0.000178004 1.60447e-23)
(0.0225901 -0.000188823 1.32351e-23)
(0.0225985 -0.000198434 -2.31087e-23)
(0.0226051 -0.000206927 7.46976e-24)
(0.022611 -0.000214394 -3.10637e-25)
(0.0243123 3.70659e-05 -2.42745e-26)
(0.024339 -8.28547e-06 9.27734e-25)
(0.0243647 -4.45718e-05 -1.04367e-24)
(0.0243888 -7.43699e-05 -1.40325e-25)
(0.024411 -9.93942e-05 1.80346e-24)
(0.024431 -0.000120779 -3.27132e-24)
(0.0244487 -0.000139291 3.24522e-24)
(0.0244639 -0.000155477 -1.06658e-23)
(0.0244771 -0.000169722 2.4523e-23)
(0.0244882 -0.000182303 -3.15901e-23)
(0.0244976 -0.000193423 2.59269e-23)
(0.0245053 -0.000203243 -8.76052e-24)
(0.0245119 -0.000211897 4.39803e-25)
(0.0245172 -0.000219508 1.94742e-24)
(0.0245219 -0.000226183 -3.77231e-24)
(0.0261782 2.26586e-05 -1.98266e-24)
(0.0262009 -2.27867e-05 4.82003e-24)
(0.0262217 -5.94069e-05 -3.09411e-24)
(0.0262406 -8.9503e-05 1.56047e-25)
(0.0262576 -0.000114647 1.45136e-24)
(0.0262727 -0.000135909 -1.90043e-24)
(0.0262859 -0.000154063 -2.48501e-24)
(0.0262972 -0.000169696 -6.46537e-24)
(0.0263068 -0.000183244 2.93368e-24)
(0.0263148 -0.00019504 1.59409e-23)
(0.0263216 -0.000205337 -8.51282e-24)
(0.0263271 -0.000214339 5.14219e-24)
(0.0263318 -0.000222208 -2.12438e-24)
(0.0263354 -0.000229084 -6.25773e-24)
(0.0263387 -0.000235081 3.1975e-24)
(0.0278162 7.39075e-06 6.54892e-25)
(0.0278365 -3.68355e-05 -1.27086e-24)
(0.0278542 -7.28408e-05 -2.40381e-24)
(0.0278694 -0.000102535 5.45601e-24)
(0.0278827 -0.000127263 -1.58155e-24)
(0.0278943 -0.000148026 -3.17708e-25)
(0.0279042 -0.000165596 -8.785e-25)
(0.0279126 -0.000180572 -1.60751e-24)
(0.0279197 -0.000193409 1.26555e-24)
(0.0279255 -0.000204462 -2.0863e-24)
(0.0279303 -0.000214007 4.76666e-24)
(0.0279341 -0.000222264 2.62288e-24)
(0.0279373 -0.00022941 -9.70281e-24)
(0.0279396 -0.000235591 6.77767e-24)
(0.0279416 -0.000240924 -1.3941e-24)
(0.029071 -8.92764e-06 1.96932e-24)
(0.0290897 -5.09332e-05 4.28569e-24)
(0.0291053 -8.55738e-05 -9.13049e-24)
(0.0291182 -0.000114249 -3.43488e-24)
(0.029129 -0.000138086 6.59805e-24)
(0.029138 -0.000158013 2.48708e-24)
(0.0291456 -0.000174776 -7.05562e-25)
(0.0291517 -0.000188961 -3.03346e-24)
(0.0291566 -0.000201019 1.13694e-24)
(0.0291604 -0.000211304 -3.41554e-24)
(0.0291633 -0.000220091 2.73836e-24)
(0.0291653 -0.000227602 -2.39878e-25)
(0.0291668 -0.00023401 -2.63162e-25)
(0.0291676 -0.000239459 3.76467e-25)
(0.029168 -0.000244061 -1.80222e-25)
(0.0297409 -2.63453e-05 -5.27955e-24)
(0.0297561 -6.46586e-05 -1.30186e-23)
(0.0297671 -9.65351e-05 4.6699e-24)
(0.0297751 -0.000123022 2.75205e-23)
(0.0297808 -0.000145052 -8.27159e-24)
(0.029785 -0.00016344 -5.3312e-24)
(0.0297878 -0.000178856 3.47206e-24)
(0.0297895 -0.000191831 8.47939e-24)
(0.0297903 -0.000202779 -1.50408e-23)
(0.0297903 -0.00021203 5.49405e-24)
(0.0297896 -0.000219837 3.55463e-26)
(0.0297884 -0.000226408 1.01666e-24)
(0.0297867 -0.000231901 -2.93405e-25)
(0.0297846 -0.000236452 8.43019e-25)
(0.0297822 -0.00024016 -5.20133e-25)
(0.0295846 -4.47818e-05 8.52868e-24)
(0.0295976 -7.82856e-05 -2.01345e-23)
(0.0296066 -0.000106294 2.81405e-24)
(0.0296128 -0.000129579 3.38309e-23)
(0.0296168 -0.000148933 -3.45636e-23)
(0.0296192 -0.000165062 1.38854e-23)
(0.0296203 -0.000178543 1.44273e-23)
(0.0296203 -0.000189832 -3.3895e-23)
(0.0296194 -0.000199285 -1.68795e-25)
(0.0296178 -0.000207186 1.20022e-23)
(0.0296155 -0.00021375 3.53352e-24)
(0.0296127 -0.000219155 -2.40086e-24)
(0.0296094 -0.000223536 1.9646e-24)
(0.0296057 -0.000227007 -6.36409e-25)
(0.0296016 -0.000229654 1.82257e-25)
(0.028631 -5.76961e-05 5.36168e-24)
(0.0286379 -8.65593e-05 -1.14762e-23)
(0.0286417 -0.000110776 -8.54512e-24)
(0.0286434 -0.000130979 4.01497e-23)
(0.0286434 -0.000147828 -3.81225e-23)
(0.028642 -0.000161897 3.6234e-24)
(0.0286397 -0.00017365 6.83271e-24)
(0.0286364 -0.000183458 4.31609e-24)
(0.0286325 -0.00019161 4.70634e-24)
(0.028628 -0.000198335 -2.52225e-23)
(0.0286229 -0.000203811 1.5865e-23)
(0.0286174 -0.000208182 3.10853e-25)
(0.0286114 -0.00021156 7.88191e-24)
(0.0286052 -0.000214042 -3.63021e-24)
(0.0285986 -0.000215701 -7.1361e-25)
(0.0271191 -6.45077e-05 1.34445e-23)
(0.0271235 -8.91517e-05 -2.40423e-23)
(0.0271247 -0.000109934 4.85936e-24)
(0.0271237 -0.000127379 -1.24716e-23)
(0.027121 -0.000141997 -1.69796e-23)
(0.0271169 -0.000154226 5.63126e-23)
(0.0271116 -0.000164425 -2.24494e-23)
(0.0271056 -0.000172888 6.67114e-24)
(0.0270988 -0.000179844 -3.84342e-24)
(0.0270914 -0.000185478 -1.07588e-23)
(0.0270835 -0.000189934 2.07811e-23)
(0.0270753 -0.000193332 -1.2194e-23)
(0.0270665 -0.000195765 1.50942e-24)
(0.0270576 -0.000197318 2.01694e-24)
(0.0270482 -0.000198053 -2.33429e-25)
(0.0252678 -6.90002e-05 5.20485e-24)
(0.0252686 -8.9506e-05 -2.7132e-23)
(0.0252664 -0.000106869 4.74593e-23)
(0.025262 -0.000121504 -3.65735e-23)
(0.0252558 -0.0001338 3.72871e-23)
(0.0252483 -0.000144084 -1.21439e-23)
(0.0252397 -0.000152627 -8.57044e-24)
(0.0252303 -0.000159655 -9.80022e-24)
(0.0252202 -0.000165347 1.80951e-23)
(0.0252095 -0.000169847 -5.7009e-26)
(0.0251984 -0.000173269 -1.80172e-23)
(0.0251868 -0.000175709 -2.54412e-24)
(0.0251749 -0.000177243 4.47829e-24)
(0.0251628 -0.00017794 -1.00694e-24)
(0.0251504 -0.000177853 2.21946e-25)
(0.0232234 -6.91236e-05 6.94662e-25)
(0.0232195 -8.58246e-05 -1.02133e-23)
(0.0232128 -0.000100045 -5.82142e-24)
(0.0232042 -0.000112083 4.72373e-23)
(0.0231939 -0.000122221 -4.67089e-23)
(0.0231824 -0.000130689 1.37178e-23)
(0.0231699 -0.000137686 2.34954e-24)
(0.0231568 -0.00014338 -1.2543e-24)
(0.0231429 -0.000147909 -6.06173e-24)
(0.0231287 -0.000151382 2.66796e-23)
(0.023114 -0.00015389 -2.14114e-23)
(0.023099 -0.000155508 -1.05394e-24)
(0.0230838 -0.000156297 1.91805e-24)
(0.0230684 -0.000156314 1.72578e-24)
(0.0230529 -0.000155601 -1.35339e-24)
(0.0210875 -6.49348e-05 1.03513e-24)
(0.0210787 -7.83431e-05 9.48681e-24)
(0.0210674 -8.98182e-05 -1.08816e-23)
(0.0210545 -9.95708e-05 -7.59582e-24)
(0.0210402 -0.000107802 4.85735e-23)
(0.0210249 -0.000114675 -3.71479e-23)
(0.0210088 -0.000120328 -8.1366e-25)
(0.0209921 -0.000124882 -7.8211e-24)
(0.0209749 -0.000128436 -6.64821e-25)
(0.0209574 -0.000131076 1.11257e-24)
(0.0209396 -0.00013287 -4.43981e-24)
(0.0209217 -0.000133879 3.52234e-24)
(0.0209036 -0.000134151 1.21425e-24)
(0.0208856 -0.000133729 1.12019e-24)
(0.0208675 -0.000132648 1.34919e-24)
(0.0189359 -5.74927e-05 7.37996e-24)
(0.0189231 -6.81619e-05 -1.13253e-23)
(0.0189083 -7.73401e-05 -9.13659e-24)
(0.0188921 -8.51819e-05 2.78854e-23)
(0.0188749 -9.18297e-05 -9.98402e-24)
(0.0188567 -9.73944e-05 -1.41523e-23)
(0.018838 -0.000101969 4.93399e-24)
(0.0188188 -0.000105636 1.11846e-23)
(0.0187993 -0.000108468 -1.79351e-23)
(0.0187796 -0.000110525 1.78946e-23)
(0.0187597 -0.000111859 -9.64465e-24)
(0.0187399 -0.000112513 4.18563e-24)
(0.0187201 -0.000112524 -5.60501e-24)
(0.0187005 -0.000111924 5.61994e-24)
(0.0186809 -0.000110742 -1.37949e-24)
(0.0168278 -4.839e-05 -1.43226e-24)
(0.0168126 -5.68485e-05 -4.98023e-24)
(0.0167958 -6.41739e-05 -1.58986e-23)
(0.0167779 -7.04943e-05 4.44031e-23)
(0.016759 -7.58998e-05 -7.93684e-24)
(0.0167394 -8.04548e-05 -1.25506e-23)
(0.0167194 -8.42153e-05 4.38356e-24)
(0.016699 -8.72364e-05 -6.35127e-24)
(0.0166783 -8.95684e-05 -1.38881e-23)
(0.0166576 -9.12541e-05 1.3362e-23)
(0.0166369 -9.23292e-05 6.38657e-25)
(0.0166162 -9.28253e-05 -4.45468e-24)
(0.0165957 -9.2769e-05 5.07276e-24)
(0.0165755 -9.21876e-05 3.2968e-25)
(0.0165555 -9.11034e-05 -4.1327e-25)
(0.0148059 -3.91121e-05 5.51078e-24)
(0.01479 -4.58119e-05 8.12008e-24)
(0.0147727 -5.16724e-05 -7.56004e-24)
(0.0147544 -5.67956e-05 -1.65563e-23)
(0.0147352 -6.1222e-05 2.23189e-23)
(0.0147153 -6.49825e-05 -2.44777e-23)
(0.014695 -6.81126e-05 -9.97579e-25)
(0.0146744 -7.06496e-05 9.51433e-24)
(0.0146536 -7.26267e-05 3.33336e-24)
(0.0146328 -7.40722e-05 -7.01626e-24)
(0.0146119 -7.50104e-05 -9.89272e-26)
(0.0145912 -7.54641e-05 1.46715e-23)
(0.0145707 -7.54532e-05 -5.61801e-24)
(0.0145505 -7.49987e-05 -1.46853e-24)
(0.0145306 -7.41167e-05 -9.55754e-26)
(0.0128975 -3.06167e-05 -5.72412e-24)
(0.0128819 -3.58997e-05 7.37015e-24)
(0.0128651 -4.05784e-05 8.31669e-25)
(0.0128473 -4.4725e-05 1.49602e-23)
(0.0128286 -4.83434e-05 -1.21851e-23)
(0.0128092 -5.14476e-05 9.9033e-25)
(0.0127894 -5.40603e-05 -1.29443e-24)
(0.0127692 -5.62046e-05 -3.8547e-24)
(0.0127488 -5.79005e-05 3.42843e-24)
(0.0127282 -5.91656e-05 -1.1091e-23)
(0.0127077 -6.00167e-05 7.00936e-25)
(0.0126872 -6.04699e-05 2.63675e-24)
(0.012667 -6.05394e-05 1.68336e-24)
(0.0126471 -6.02404e-05 6.77357e-25)
(0.0126275 -5.95833e-05 2.61091e-25)
(0.0111158 -2.3307e-05 4.24054e-24)
(0.0111013 -2.74207e-05 -3.35444e-24)
(0.0110856 -3.11194e-05 -1.47729e-23)
(0.0110687 -3.44395e-05 1.38726e-23)
(0.011051 -3.7363e-05 1.94348e-23)
(0.0110325 -3.98964e-05 -4.89303e-24)
(0.0110134 -4.20534e-05 -1.00555e-23)
(0.010994 -4.38463e-05 -1.42279e-23)
(0.0109742 -4.52867e-05 1.07599e-23)
(0.0109542 -4.63854e-05 6.55104e-25)
(0.0109342 -4.71537e-05 -2.46344e-24)
(0.0109142 -4.76026e-05 -6.99051e-25)
(0.0108944 -4.77416e-05 1.43068e-24)
(0.0108748 -4.75809e-05 -3.5134e-26)
(0.0108555 -4.71265e-05 -2.99181e-25)
(0.00946498 -1.72434e-05 -2.66978e-24)
(0.00945179 -2.03825e-05 -1.90564e-24)
(0.00943735 -2.32539e-05 2.31649e-24)
(0.00942177 -2.58566e-05 -7.3752e-24)
(0.0094052 -2.81658e-05 2.4221e-23)
(0.00938783 -3.01858e-05 -3.21904e-23)
(0.00936981 -3.19239e-05 3.16708e-23)
(0.00935126 -3.33857e-05 -1.34428e-23)
(0.00933232 -3.45774e-05 3.10062e-24)
(0.00931311 -3.55057e-05 8.22599e-26)
(0.00929376 -3.61778e-05 -2.42598e-24)
(0.00927438 -3.66007e-05 8.83468e-25)
(0.00925507 -3.67804e-05 -1.93053e-24)
(0.00923597 -3.67228e-05 -2.71352e-25)
(0.00921714 -3.64309e-05 1.40181e-25)
(0.00794304 -1.23406e-05 -1.298e-24)
(0.00793133 -1.46711e-05 3.31955e-25)
(0.00791836 -1.68392e-05 7.23472e-25)
(0.00790419 -1.88157e-05 -3.36687e-24)
(0.007889 -2.05804e-05 -1.52823e-24)
(0.00787295 -2.21374e-05 1.31939e-23)
(0.00785616 -2.34895e-05 -7.76501e-24)
(0.00783878 -2.46389e-05 1.12337e-24)
(0.00782093 -2.55885e-05 -1.0847e-24)
(0.00780273 -2.63419e-05 -1.19024e-24)
(0.00778432 -2.69036e-05 -3.6578e-25)
(0.0077658 -2.72777e-05 2.31946e-24)
(0.00774728 -2.74675e-05 6.47823e-25)
(0.00772889 -2.74759e-05 -1.42931e-24)
(0.0077107 -2.73039e-05 -2.33662e-25)
(0.00654509 -8.47185e-06 -4.72382e-25)
(0.00653495 -1.01411e-05 -1.56752e-25)
(0.00652356 -1.17152e-05 -7.628e-24)
(0.00651097 -1.3153e-05 2.01151e-24)
(0.00649735 -1.44441e-05 -5.51642e-24)
(0.00648284 -1.5592e-05 3.83237e-24)
(0.00646756 -1.65972e-05 7.31115e-24)
(0.00645164 -1.74599e-05 5.5254e-24)
(0.0064352 -1.81811e-05 -7.77784e-24)
(0.00641836 -1.87627e-05 2.34435e-24)
(0.00640124 -1.9207e-05 2.03913e-24)
(0.00638396 -1.9516e-05 -2.97926e-24)
(0.0063666 -1.96916e-05 1.59043e-24)
(0.00634931 -1.97346e-05 -1.44863e-25)
(0.00633215 -1.96447e-05 4.38408e-25)
(0.00526476 -5.5077e-06 -1.85193e-24)
(0.00525625 -6.64779e-06 -2.54031e-24)
(0.00524654 -7.73017e-06 -4.6536e-25)
(0.00523569 -8.71828e-06 6.32304e-24)
(0.00522385 -9.61047e-06 -4.48488e-24)
(0.00521114 -1.04094e-05 -8.80816e-25)
(0.00519766 -1.11144e-05 7.25224e-24)
(0.00518354 -1.17249e-05 3.44419e-26)
(0.00516889 -1.22408e-05 -1.46664e-24)
(0.00515381 -1.26627e-05 -5.4805e-24)
(0.00513841 -1.29919e-05 5.68174e-25)
(0.0051228 -1.32289e-05 3.84075e-24)
(0.00510707 -1.33747e-05 -4.96783e-25)
(0.00509134 -1.34288e-05 -5.73122e-25)
(0.00507569 -1.33904e-05 3.85387e-25)
(0.0040951 -3.32339e-06 -4.0523e-25)
(0.00408825 -4.0528e-06 2.3813e-26)
(0.0040803 -4.7427e-06 3.03552e-24)
(0.00407133 -5.37118e-06 2.03642e-24)
(0.00406146 -5.9419e-06 -1.39702e-24)
(0.00405079 -6.45649e-06 -3.47216e-24)
(0.00403941 -6.91402e-06 1.41217e-24)
(0.00402742 -7.31348e-06 -5.95334e-24)
(0.00401492 -7.65446e-06 4.58889e-24)
(0.004002 -7.93681e-06 2.38868e-24)
(0.00398875 -8.16093e-06 1.74331e-26)
(0.00397527 -8.32691e-06 -2.64628e-24)
(0.00396164 -8.43502e-06 4.93015e-25)
(0.00394796 -8.48442e-06 -3.89204e-25)
(0.00393432 -8.47391e-06 1.98428e-25)
(0.00302899 -1.79765e-06 -7.47163e-25)
(0.00302379 -2.22512e-06 1.5031e-26)
(0.00301766 -2.6206e-06 2.43691e-24)
(0.00301067 -2.97923e-06 -1.52355e-24)
(0.00300293 -3.30629e-06 6.28255e-24)
(0.00299449 -3.60267e-06 -1.14543e-23)
(0.00298545 -3.8676e-06 9.35065e-24)
(0.00297587 -4.10023e-06 -7.82389e-24)
(0.00296584 -4.30009e-06 5.64225e-24)
(0.00295543 -4.46684e-06 -3.64136e-24)
(0.00294472 -4.60058e-06 1.2555e-24)
(0.00293378 -4.70117e-06 1.8429e-25)
(0.00292268 -4.76872e-06 3.0725e-25)
(0.00291151 -4.80251e-06 -3.83196e-25)
(0.00290034 -4.8014e-06 8.2065e-26)
(0.0020594 -8.10465e-07 1.13551e-24)
(0.0020558 -1.03086e-06 1.22786e-24)
(0.00205148 -1.2244e-06 -5.24899e-24)
(0.00204652 -1.39773e-06 3.84028e-24)
(0.00204097 -1.55493e-06 -3.67322e-26)
(0.00203491 -1.69658e-06 9.9297e-25)
(0.00202837 -1.82251e-06 -1.2109e-24)
(0.00202141 -1.9325e-06 -2.5473e-24)
(0.00201409 -2.02654e-06 2.53322e-24)
(0.00200646 -2.10464e-06 2.73221e-25)
(0.00199858 -2.16703e-06 -2.0566e-24)
(0.00199051 -2.2138e-06 7.35153e-25)
(0.0019823 -2.24521e-06 4.52201e-25)
(0.00197401 -2.26061e-06 -5.17831e-26)
(0.0019657 -2.25828e-06 -5.5224e-26)
(0.00117945 -2.39887e-07 -1.14777e-24)
(0.00117734 -3.04503e-07 3.5102e-24)
(0.00117478 -3.59547e-07 2.09469e-24)
(0.00117182 -4.10453e-07 -3.7696e-24)
(0.0011685 -4.57592e-07 -4.41713e-25)
(0.00116484 -5.00843e-07 -3.93989e-25)
(0.00116088 -5.40285e-07 1.20486e-24)
(0.00115665 -5.76101e-07 -2.03618e-24)
(0.00115219 -6.08557e-07 2.78294e-24)
(0.00114752 -6.37899e-07 -1.36055e-24)
(0.00114268 -6.64435e-07 -8.96684e-25)
(0.00113771 -6.88351e-07 5.46484e-25)
(0.00113264 -7.09917e-07 -6.72933e-25)
(0.0011275 -7.27293e-07 6.83004e-25)
(0.00112233 -7.3586e-07 -1.19748e-25)
(0.000382499 2.29805e-08 -8.24256e-27)
(0.000381739 1.11173e-07 6.8627e-25)
(0.00038083 1.74684e-07 7.85943e-25)
(0.000379788 2.15235e-07 -1.23211e-24)
(0.000378625 2.36511e-07 2.56027e-24)
(0.000377348 2.41504e-07 -2.77654e-24)
(0.000375965 2.32733e-07 1.82752e-25)
(0.000374488 2.12427e-07 1.5397e-24)
(0.000372926 1.82592e-07 -2.1294e-24)
(0.00037129 1.45047e-07 -3.91799e-25)
(0.000369592 1.01418e-07 1.49126e-24)
(0.000367843 5.31913e-08 -6.60334e-25)
(0.000366055 1.65819e-09 -2.54394e-25)
(0.000364241 -5.06964e-08 2.14302e-25)
(0.000362411 -9.97839e-08 -9.95502e-27)
(0.000933577 -0.00022838 6.16106e-26)
(0.00107366 -0.000134722 1.44723e-24)
(0.00131035 -4.17461e-05 -3.97207e-24)
(0.00155368 3.19846e-05 5.39999e-24)
(0.00178933 8.84175e-05 -2.01892e-24)
(0.00202184 0.00012829 -1.69205e-24)
(0.00225074 0.000154083 1.81689e-24)
(0.00247616 0.000167902 -3.35094e-24)
(0.0026984 0.000171557 3.0485e-25)
(0.00291772 0.000166645 1.98256e-24)
(0.0031344 0.000154583 -3.56233e-25)
(0.00334879 0.000136636 3.68163e-25)
(0.00356126 0.000113946 -4.34991e-26)
(0.00377219 8.76309e-05 1.8384e-25)
(0.00398212 5.89144e-05 -6.58318e-25)
(0.00419166 2.93366e-05 3.42623e-25)
(0.00440206 9.08226e-07 -6.09548e-26)
(0.00461505 -2.37033e-05 2.92825e-26)
(0.00483416 -4.14896e-05 2.85782e-26)
(0.00506377 -4.90589e-05 -2.65186e-27)
(0.00531071 -4.48136e-05 -5.30469e-27)
(0.00558066 -2.94883e-05 4.84218e-27)
(0.00585382 -1.1399e-05 -4.09726e-27)
(0.00609643 -1.7071e-06 5.2438e-27)
(0.00629605 -3.9406e-06 -5.9572e-27)
(0.00645235 -1.79689e-05 -1.22635e-26)
(0.00656708 -4.29029e-05 1.97256e-26)
(0.00664279 -7.80474e-05 -2.75304e-26)
(0.00668165 -0.000122622 -3.55971e-25)
(0.00668423 -0.000174872 7.91872e-25)
(0.00665031 -0.000232809 -1.81586e-24)
(0.00657999 -0.000292749 2.60526e-24)
(0.00647288 -0.000348267 -1.14001e-24)
(0.00632852 -0.000392638 -2.52765e-24)
(0.00614759 -0.000417873 2.51101e-24)
(0.00593128 -0.000414967 1.0482e-23)
(0.0056813 -0.000373817 -3.63574e-24)
(0.00539988 -0.000282519 1.76658e-24)
(0.00508985 -0.00012591 6.7232e-25)
(0.0047553 0.000116236 -1.25489e-23)
(0.00440082 0.000466985 -1.46769e-25)
(0.00403246 0.00094081 4.82738e-24)
(0.00363662 0.00150164 1.33822e-24)
(0.00323364 0.00200552 -6.58549e-24)
(0.00300751 0.00204751 -3.10343e-25)
(0.00177051 -0.000312608 -1.74302e-24)
(0.00183104 -0.000256759 -2.20863e-24)
(0.00198065 -0.000167619 4.76185e-24)
(0.00216813 -8.69036e-05 1.90153e-24)
(0.00236842 -2.00461e-05 -6.59959e-24)
(0.00257622 3.06383e-05 6.64281e-24)
(0.00278694 6.65119e-05 -2.32734e-24)
(0.00299826 8.94912e-05 1.61461e-24)
(0.00320909 0.000101386 -2.1488e-24)
(0.00341882 0.000103853 3.33049e-26)
(0.0036272 9.83895e-05 -1.00096e-24)
(0.00383417 8.63429e-05 1.95958e-24)
(0.00403979 6.89324e-05 -1.0397e-24)
(0.00424419 4.73434e-05 -7.99337e-25)
(0.00444767 2.28556e-05 -3.63024e-25)
(0.00465056 -2.96767e-06 9.58574e-25)
(0.00485385 -2.81152e-05 -9.42139e-27)
(0.00505881 -4.99786e-05 2.26999e-25)
(0.00526854 -6.56206e-05 -4.17711e-26)
(0.00548677 -7.17201e-05 -1.78517e-26)
(0.00571979 -6.66535e-05 1.18471e-26)
(0.00597292 -5.08683e-05 9.19218e-27)
(0.00622835 -3.21641e-05 -2.72385e-26)
(0.00645557 -2.11437e-05 1.56248e-26)
(0.00664331 -2.11822e-05 1.62626e-26)
(0.00679119 -3.22443e-05 -4.92466e-26)
(0.00690051 -5.351e-05 2.2753e-26)
(0.00697334 -8.42504e-05 9.8255e-26)
(0.00701151 -0.000123528 -4.03627e-26)
(0.00701529 -0.000169324 2.81966e-25)
(0.00698452 -0.00021956 -2.96018e-24)
(0.00691945 -0.000270551 6.03112e-24)
(0.00682004 -0.000315721 -6.17734e-24)
(0.00668624 -0.000348445 1.45055e-23)
(0.00651935 -0.000360881 -2.00506e-23)
(0.00632149 -0.000344185 5.11258e-24)
(0.00609572 -0.00028847 1.71584e-23)
(0.00584628 -0.000182236 -5.31376e-24)
(0.00557926 -1.1195e-05 -1.25928e-23)
(0.00530419 0.000243317 -6.94829e-24)
(0.00503588 0.00060327 1.58202e-23)
(0.00479928 0.00108305 -1.46776e-23)
(0.00461658 0.00164796 -2.71257e-24)
(0.00453583 0.00214444 8.80128e-24)
(0.00457359 0.00213165 2.51517e-24)
(0.00276512 -0.000322852 -1.93291e-26)
(0.00277685 -0.000310573 -2.60751e-24)
(0.00284442 -0.000255299 4.92777e-24)
(0.00296564 -0.000185657 3.61995e-24)
(0.00311555 -0.000119447 -6.09407e-24)
(0.0032847 -6.40973e-05 1.4707e-25)
(0.00346546 -2.1446e-05 5.12203e-25)
(0.00365297 8.95183e-06 5.02455e-24)
(0.00384431 2.82144e-05 -5.89838e-24)
(0.00403768 3.76814e-05 3.40004e-24)
(0.00423199 3.87239e-05 8.87532e-25)
(0.00442653 3.26548e-05 -5.23176e-24)
(0.00462092 2.07006e-05 1.87188e-24)
(0.00481488 4.07166e-06 6.65904e-25)
(0.00500837 -1.5923e-05 -1.18384e-24)
(0.00520141 -3.77121e-05 1.67397e-24)
(0.00539459 -5.93049e-05 -9.7373e-25)
(0.00558873 -7.81576e-05 8.9536e-26)
(0.00578637 -9.14149e-05 9.68015e-26)
(0.00599057 -9.58342e-05 2.56796e-26)
(0.00620694 -8.97766e-05 5.63445e-27)
(0.00644034 -7.341e-05 -1.97824e-26)
(0.00667505 -5.40274e-05 2.47244e-26)
(0.00688411 -4.16612e-05 -4.14991e-26)
(0.00705753 -3.95048e-05 -8.35209e-28)
(0.00719489 -4.75907e-05 1.3426e-26)
(0.00729707 -6.51506e-05 8.18033e-26)
(0.00736562 -9.14224e-05 -1.44304e-25)
(0.00740206 -0.000125313 7.89454e-25)
(0.00740624 -0.000164504 7.22286e-25)
(0.00737824 -0.000206907 1.51109e-24)
(0.00731832 -0.00024882 -6.98034e-24)
(0.00722688 -0.000283524 2.78716e-24)
(0.00710426 -0.000304574 7.39114e-24)
(0.00695247 -0.000304395 -1.6852e-23)
(0.00677458 -0.000274518 2.45937e-23)
(0.00657501 -0.000205654 -1.583e-23)
(0.00636006 -8.73735e-05 2.02735e-23)
(0.00613877 9.25088e-05 -3.7881e-23)
(0.00592516 0.00034861 1.42374e-23)
(0.00574095 0.000696322 4.70702e-24)
(0.00562009 0.0011412 6.87879e-24)
(0.00559515 0.00164209 -8.53068e-24)
(0.00570158 0.00205482 2.10249e-24)
(0.00586068 0.00203177 -1.22571e-24)
(0.00389738 -0.000308404 -7.08449e-25)
(0.00388299 -0.000322767 -1.00832e-24)
(0.00389841 -0.000299579 -4.13158e-24)
(0.00395599 -0.000253762 1.40972e-24)
(0.00405055 -0.000198958 9.11203e-25)
(0.00417191 -0.000147076 2.92466e-24)
(0.00431267 -0.000103118 -5.45736e-24)
(0.00446678 -6.88244e-05 2.22137e-24)
(0.00462997 -4.44083e-05 6.3881e-24)
(0.00479928 -2.93049e-05 -1.74815e-24)
(0.00497267 -2.25617e-05 -1.50784e-24)
(0.00514871 -2.30873e-05 -2.25474e-25)
(0.0053264 -2.9772e-05 6.75618e-25)
(0.005505 -4.14609e-05 -1.24813e-24)
(0.00568402 -5.68699e-05 3.2112e-25)
(0.00586309 -7.44582e-05 -1.7685e-26)
(0.00604235 -9.22783e-05 -2.12198e-25)
(0.00622211 -0.000107879 2.64068e-25)
(0.00640431 -0.000118508 1.55052e-25)
(0.00659122 -0.00012102 -5.55209e-26)
(0.00678772 -0.000113783 3.95749e-26)
(0.00699805 -9.6702e-05 1.60847e-26)
(0.0072087 -7.65829e-05 4.7141e-26)
(0.00739648 -6.28688e-05 -4.06156e-26)
(0.00755278 -5.85403e-05 -2.38178e-26)
(0.00767717 -6.36663e-05 -3.54481e-27)
(0.00777013 -7.75081e-05 1.23459e-25)
(0.00783268 -9.92734e-05 -4.03805e-25)
(0.00786604 -0.000127706 9.06922e-25)
(0.00786948 -0.000160175 8.85963e-26)
(0.00784373 -0.000194712 -1.17859e-24)
(0.00778863 -0.000227544 -2.39579e-25)
(0.00770519 -0.00025189 -2.78279e-25)
(0.00759418 -0.000261613 -1.87014e-24)
(0.00745826 -0.000249574 3.03771e-24)
(0.00730144 -0.000207956 -7.16978e-24)
(0.0071294 -0.000128497 3.14703e-23)
(0.00695009 -2.50469e-06 -1.69109e-23)
(0.00677464 0.000179075 -9.55591e-25)