/*--------------------------------*- C++ -*----------------------------------*\
| =========                 |                                                 |
| \\      /  F ield         | OpenFOAM: The Open Source CFD Toolbox           |
|  \\    /   O peration     | Version:  2312                                  |
|   \\  /    A nd           | Website:  www.openfoam.com                      |
|    \\/     M anipulation  |                                                 |
\*---------------------------------------------------------------------------*/
FoamFile
{
    version     2.0;
    format      ascii;
    arch        "LSB;label=32;scalar=64";
    class       volVectorField;
    location    "9.5";
    object      U;
}
// * * * * * * * * * * * * * * * * * * * * * * * * * * * * * * * * * * * * * //

dimensions      [0 1 -1 0 0 0 0];

internalField   nonuniform List<vector> 
4800
(
(0.000463813 3.13613e-07 -2.68025e-26)
(0.000456135 3.4378e-07 -1.88373e-25)
(0.000451511 3.55171e-07 2.41781e-25)
(0.000448922 3.4565e-07 1.10574e-25)
(0.000447763 3.27524e-07 1.63288e-24)
(0.000447783 2.95038e-07 -3.88881e-24)
(0.00044873 2.55364e-07 3.64252e-24)
(0.00045051 1.78908e-07 -5.2879e-24)
(0.000453203 2.29376e-08 1.69546e-24)
(0.000456992 -2.41984e-07 5.78552e-24)
(0.000462282 -7.54179e-07 -1.78285e-24)
(0.000470356 -2.15984e-06 -1.50986e-25)
(0.00048843 -7.33498e-06 -2.17549e-24)
(0.000534368 -2.82294e-05 1.01222e-24)
(0.000610299 -9.17541e-05 -8.04798e-25)
(0.00143416 1.63722e-06 -8.52721e-26)
(0.0014107 1.1843e-06 1.0628e-25)
(0.00139633 8.23279e-07 -9.7976e-25)
(0.00138801 4.96359e-07 7.32146e-25)
(0.00138396 1.79115e-07 2.35187e-24)
(0.00138336 -1.65551e-07 -3.73395e-24)
(0.0013854 -5.61555e-07 -1.06658e-24)
(0.00138983 -1.08773e-06 -2.55298e-25)
(0.00139689 -1.91394e-06 8.78479e-24)
(0.00140699 -3.24113e-06 -6.49093e-24)
(0.00142132 -5.70973e-06 7.06557e-25)
(0.00144264 -1.15623e-05 1.07771e-24)
(0.0014798 -2.84501e-05 -1.59426e-24)
(0.00154348 -7.98475e-05 -4.82999e-25)
(0.00161206 -0.000195598 2.08559e-24)
(0.00250678 5.26352e-06 -6.10477e-26)
(0.00246638 3.80109e-06 6.23804e-26)
(0.0024413 2.66546e-06 6.41313e-25)
(0.00242642 1.67941e-06 -1.52935e-24)
(0.00241872 7.01864e-07 1.50127e-24)
(0.00241673 -3.65082e-07 1.39946e-24)
(0.00241909 -1.59983e-06 -3.61614e-24)
(0.00242525 -3.2294e-06 -2.26903e-24)
(0.00243563 -5.61858e-06 5.44946e-24)
(0.00245047 -9.31509e-06 2.0555e-24)
(0.00247117 -1.58162e-05 -7.1467e-24)
(0.00249987 -2.91033e-05 -1.08456e-24)
(0.00254072 -5.87007e-05 3.05328e-24)
(0.00259249 -0.000123873 4.83294e-24)
(0.00263011 -0.000232125 -2.49698e-24)
(0.00368766 1.17772e-05 2.25684e-26)
(0.00362953 8.61174e-06 -1.5714e-25)
(0.0035929 6.16233e-06 7.00813e-25)
(0.00357062 4.05012e-06 7.50217e-25)
(0.00355845 1.97525e-06 -7.45003e-25)
(0.00355409 -2.89604e-07 -4.23161e-24)
(0.00355586 -2.78397e-06 -2.86439e-24)
(0.00356249 -6.09555e-06 1.09574e-23)
(0.00357462 -1.08389e-05 4.57109e-24)
(0.00359189 -1.78318e-05 -6.56445e-24)
(0.00361513 -2.9231e-05 -2.645e-24)
(0.00364475 -4.95708e-05 -2.01858e-24)
(0.00368003 -8.68356e-05 6.04442e-26)
(0.00371381 -0.000150963 1.49299e-24)
(0.00372785 -0.000236939 7.29727e-27)
(0.00498068 2.18071e-05 -4.14186e-26)
(0.00490473 1.61083e-05 -2.53301e-25)
(0.00485611 1.17067e-05 -1.60259e-25)
(0.00482578 7.93069e-06 4.33136e-25)
(0.00480837 4.28023e-06 -1.23217e-24)
(0.00480058 4.33211e-07 3.07517e-24)
(0.0048007 -4.00655e-06 -5.36575e-25)
(0.00480647 -9.35167e-06 1.88743e-24)
(0.00481842 -1.69402e-05 -1.05833e-23)
(0.0048355 -2.756e-05 2.00927e-23)
(0.00485753 -4.3476e-05 -1.94412e-23)
(0.00488324 -6.84193e-05 1.02611e-23)
(0.00490926 -0.000107217 -9.52319e-24)
(0.00492792 -0.000162905 8.9838e-24)
(0.00492888 -0.000227899 -3.5823e-24)
(0.00638595 3.60604e-05 5.47249e-26)
(0.00629346 2.6917e-05 1.95898e-25)
(0.00623322 1.98607e-05 -1.03373e-24)
(0.00619468 1.38374e-05 -6.54671e-25)
(0.00617151 8.1145e-06 1.75598e-24)
(0.00615958 2.14332e-06 6.30438e-25)
(0.00615667 -4.46744e-06 -4.92795e-24)
(0.00616045 -1.24232e-05 1.17658e-23)
(0.00617029 -2.29572e-05 -1.53359e-23)
(0.00618476 -3.69792e-05 3.67642e-24)
(0.00620271 -5.63091e-05 1.11913e-23)
(0.00622187 -8.3227e-05 -1.55475e-23)
(0.00623838 -0.000119615 7.78568e-24)
(0.00624653 -0.000164935 7.97921e-24)
(0.0062416 -0.00021297 -6.07366e-24)
(0.00789768 5.50447e-05 4.52554e-26)
(0.00779217 4.1573e-05 -2.67666e-25)
(0.00772211 3.11598e-05 9.58609e-25)
(0.00767614 2.23033e-05 -1.32999e-24)
(0.00764732 1.40195e-05 -4.52092e-24)
(0.00763096 5.52655e-06 7.70774e-24)
(0.00762425 -3.65268e-06 -4.68223e-24)
(0.00762478 -1.43616e-05 1.59448e-23)
(0.00763103 -2.77135e-05 -1.08442e-23)
(0.00764116 -4.45245e-05 -5.07075e-24)
(0.00765337 -6.59085e-05 -9.97779e-24)
(0.00766518 -9.27673e-05 9.17372e-24)
(0.00767345 -0.000125083 2.58042e-24)
(0.00767471 -0.000161068 2.2069e-24)
(0.00766743 -0.000196562 -1.94183e-24)
(0.00950188 7.86613e-05 -6.52216e-26)
(0.00939008 6.02102e-05 8.85716e-25)
(0.00931415 4.58666e-05 -2.06198e-24)
(0.00926305 3.3681e-05 -1.68904e-24)
(0.00922978 2.24207e-05 6.3179e-25)
(0.00920948 1.11205e-05 1.24378e-24)
(0.00919895 -8.54345e-07 4.46775e-24)
(0.00919561 -1.42705e-05 -1.2176e-23)
(0.00919748 -3.00904e-05 -6.50168e-24)
(0.00920245 -4.88651e-05 1.78846e-23)
(0.00920851 -7.10292e-05 -5.54466e-24)
(0.00921345 -9.65409e-05 1.8959e-23)
(0.0092152 -0.000124538 -9.98071e-24)
(0.00921187 -0.000153223 -3.17985e-24)
(0.00920349 -0.000180079 1.88252e-24)
(0.0111753 0.000105665 -8.62167e-27)
(0.0110676 8.2134e-05 4.8957e-25)
(0.0109924 6.36224e-05 -6.97131e-25)
(0.0109405 4.78487e-05 1.67104e-24)
(0.0109055 3.33839e-05 -9.96693e-24)
(0.0108829 1.91527e-05 1.05242e-23)
(0.0108696 4.41399e-06 -1.65918e-23)
(0.0108628 -1.14932e-05 1.01989e-23)
(0.0108605 -2.92655e-05 7.58808e-24)
(0.0108605 -4.91639e-05 1.6475e-23)
(0.0108611 -7.11361e-05 -2.15176e-23)
(0.0108605 -9.46801e-05 -3.97874e-24)
(0.0108575 -0.000118789 1.83801e-24)
(0.0108511 -0.000142112 1.31121e-23)
(0.0108421 -0.000163225 -5.33173e-24)
(0.0128885 0.000133154 4.71854e-26)
(0.0127975 0.000105334 -2.05382e-25)
(0.0127319 8.30034e-05 9.18754e-25)
(0.0126852 6.38038e-05 -3.2225e-24)
(0.0126529 4.62394e-05 4.88557e-24)
(0.0126311 2.92209e-05 -6.30934e-24)
(0.0126171 1.20009e-05 1.05639e-23)
(0.0126085 -5.96636e-06 1.85287e-24)
(0.0126033 -2.5074e-05 -1.45627e-23)
(0.0125998 -4.53578e-05 2.07381e-23)
(0.0125965 -6.65178e-05 -2.28697e-23)
(0.0125922 -8.79506e-05 -6.72907e-24)
(0.0125862 -0.000108828 1.18701e-23)
(0.0125782 -0.000128291 3.51885e-24)
(0.0125689 -0.000145585 -1.53674e-24)
(0.0146154 0.000156705 1.87598e-25)
(0.0145522 0.000126343 -1.59619e-24)
(0.0145047 0.000101262 -2.56986e-24)
(0.0144699 7.93505e-05 6.09074e-24)
(0.0144452 5.92366e-05 2.72406e-24)
(0.014428 3.99348e-05 -1.71094e-23)
(0.0144164 2.07964e-05 5.27083e-24)
(0.0144084 1.41173e-06 3.79613e-24)
(0.0144027 -1.83592e-05 -1.64119e-23)
(0.0143977 -3.84215e-05 1.70969e-23)
(0.0143927 -5.84205e-05 -1.36737e-23)
(0.0143868 -7.7848e-05 3.51263e-23)
(0.0143799 -9.61373e-05 -1.68794e-23)
(0.0143716 -0.000112813 9.93142e-24)
(0.0143628 -0.000127515 -2.70924e-24)
(0.0163497 0.000172113 -6.91685e-26)
(0.0163172 0.000141258 1.07571e-24)
(0.0162917 0.00011492 -2.11426e-24)
(0.0162726 9.14325e-05 -1.07695e-24)
(0.016259 6.97023e-05 1.20281e-23)
(0.0162495 4.8954e-05 -1.74612e-24)
(0.0162429 2.87061e-05 -2.13926e-23)
(0.0162381 8.71272e-06 2.49516e-23)
(0.0162341 -1.10359e-05 -5.6068e-24)
(0.01623 -3.03829e-05 -1.93942e-23)
(0.0162255 -4.9027e-05 2.06836e-23)
(0.0162201 -6.66222e-05 1.11442e-23)
(0.0162139 -8.28362e-05 -9.37791e-24)
(0.0162066 -9.74488e-05 -1.6228e-23)
(0.0161992 -0.000110321 1.36138e-24)
(0.0181112 0.000178444 -2.68045e-27)
(0.0181016 0.000148259 -1.19495e-24)
(0.0180941 0.000121784 5.72942e-24)
(0.018089 9.77496e-05 3.70287e-25)
(0.0180859 7.5352e-05 3.28485e-24)
(0.0180842 5.40527e-05 -1.17429e-23)
(0.0180832 3.35426e-05 1.0036e-23)
(0.0180824 1.37098e-05 2.28535e-24)
(0.0180814 -5.40836e-06 2.06332e-23)
(0.0180795 -2.36654e-05 -3.18787e-23)
(0.0180769 -4.08543e-05 -1.44243e-23)
(0.0180732 -5.67813e-05 -9.52783e-24)
(0.0180688 -7.12865e-05 1.79439e-23)
(0.0180634 -8.43028e-05 -5.15687e-25)
(0.018058 -9.58111e-05 1.73801e-24)
(0.0199264 0.000179053 -1.78368e-26)
(0.0199271 0.000149442 1.21431e-24)
(0.0199286 0.000123058 -1.77101e-24)
(0.0199309 9.88924e-05 -7.91e-28)
(0.0199337 7.63474e-05 2.37144e-24)
(0.0199366 5.50599e-05 6.04747e-24)
(0.0199392 3.48443e-05 -2.34517e-23)
(0.0199411 1.56424e-05 1.97737e-24)
(0.0199421 -2.50226e-06 1.19274e-23)
(0.0199421 -1.95164e-05 -5.49084e-24)
(0.0199412 -3.52921e-05 1.49939e-23)
(0.0199392 -4.97538e-05 1.04916e-23)
(0.0199366 -6.28565e-05 -1.90383e-23)
(0.0199331 -7.4619e-05 1.30162e-23)
(0.0199295 -8.50835e-05 -1.082e-23)
(0.0217898 0.000178034 -5.29408e-25)
(0.0217928 0.00014869 2.79853e-25)
(0.0217963 0.000122271 2.10264e-24)
(0.0218001 9.80085e-05 -1.09373e-23)
(0.021804 7.54607e-05 9.64426e-24)
(0.0218077 5.43817e-05 -7.06858e-24)
(0.0218108 3.464e-05 5.06632e-24)
(0.0218131 1.61868e-05 -3.60266e-23)
(0.0218145 -9.92807e-07 5.19993e-23)
(0.0218149 -1.68794e-05 -3.06431e-23)
(0.0218145 -3.14606e-05 2.73728e-23)
(0.0218132 -4.47534e-05 2.28882e-23)
(0.0218115 -5.67861e-05 -3.99865e-23)
(0.0218089 -6.76234e-05 1.30082e-23)
(0.0218064 -7.73361e-05 -5.46415e-25)
(0.0236458 0.000176563 -1.87649e-26)
(0.0236499 0.00014779 -1.54581e-25)
(0.0236535 0.000121591 1.15685e-25)
(0.023657 9.74746e-05 -3.01255e-25)
(0.0236602 7.51486e-05 3.92637e-24)
(0.023663 5.44512e-05 -6.75715e-24)
(0.0236652 3.52775e-05 6.29554e-24)
(0.0236667 1.75629e-05 -1.99569e-23)
(0.0236674 1.24442e-06 4.54437e-23)
(0.0236673 -1.37177e-05 -5.82077e-23)
(0.0236667 -2.73835e-05 4.77078e-23)
(0.0236653 -3.98238e-05 -1.61165e-23)
(0.0236636 -5.11072e-05 8.3759e-25)
(0.0236613 -6.13211e-05 3.69609e-24)
(0.0236591 -7.05479e-05 -7.09116e-24)
(0.0254025 0.000173554 -1.55341e-24)
(0.0254085 0.00014605 2.80443e-24)
(0.025413 0.000120686 -9.51182e-25)
(0.0254167 9.72455e-05 -1.50767e-24)
(0.0254196 7.55793e-05 6.1692e-24)
(0.0254219 5.55809e-05 -6.28865e-24)
(0.0254235 3.7168e-05 -5.69114e-24)
(0.0254243 2.02542e-05 -1.37743e-23)
(0.0254245 4.76061e-06 7.01046e-24)
(0.0254241 -9.40953e-06 3.35419e-23)
(0.0254231 -2.23492e-05 -1.77207e-23)
(0.0254216 -3.41506e-05 1.05766e-23)
(0.0254198 -4.48992e-05 -4.35319e-24)
(0.0254176 -5.46893e-05 -1.29076e-23)
(0.0254154 -6.36048e-05 6.60818e-24)
(0.0269439 0.000167937 5.10066e-25)
(0.026952 0.000142412 -8.86524e-25)
(0.0269579 0.000118553 -2.74831e-25)
(0.0269622 9.63813e-05 -6.95899e-25)
(0.0269655 7.58611e-05 -1.83977e-24)
(0.0269678 5.69305e-05 9.50331e-24)
(0.0269693 3.95166e-05 -7.66091e-24)
(0.0269701 2.35264e-05 -4.95531e-24)
(0.0269702 8.86562e-06 4.53833e-24)
(0.0269697 -4.57077e-06 -5.36351e-24)
(0.0269687 -1.68769e-05 1.24983e-23)
(0.0269673 -2.81518e-05 6.34713e-24)
(0.0269657 -3.84856e-05 -2.36903e-23)
(0.0269636 -4.79693e-05 1.63723e-23)
(0.0269616 -5.66792e-05 -3.33997e-24)
(0.0281198 0.000159534 1.50717e-24)
(0.0281296 0.000136543 2.54786e-24)
(0.0281367 0.000114765 -5.6727e-24)
(0.0281419 9.43801e-05 -3.18929e-25)
(0.0281457 7.54396e-05 1.3308e-24)
(0.0281484 5.79141e-05 -2.86946e-24)
(0.0281502 4.17456e-05 -4.61098e-24)
(0.0281511 2.68427e-05 9.95784e-24)
(0.0281515 1.3116e-05 1.11618e-23)
(0.0281512 4.60964e-07 -2.7117e-23)
(0.0281505 -1.12081e-05 1.56481e-23)
(0.0281494 -2.19857e-05 -1.09487e-24)
(0.028148 -3.19527e-05 -9.13655e-25)
(0.0281463 -4.11867e-05 1.23263e-24)
(0.0281445 -4.97495e-05 -5.68941e-25)
(0.0287269 0.00014693 -3.95204e-24)
(0.0287384 0.00012691 -8.51268e-24)
(0.0287471 0.000107695 4.5706e-24)
(0.0287536 8.95482e-05 1.55311e-23)
(0.0287584 7.25708e-05 -4.33822e-24)
(0.0287621 5.67643e-05 -1.23313e-24)
(0.0287647 4.20864e-05 5.7741e-25)
(0.0287665 2.84657e-05 -4.39396e-24)
(0.0287675 1.58271e-05 1.19698e-23)
(0.0287679 4.0873e-06 -5.29991e-24)
(0.0287678 -6.82876e-06 3.20798e-24)
(0.0287671 -1.69992e-05 -5.06297e-24)
(0.028766 -2.64846e-05 -5.81446e-24)
(0.0287645 -3.53456e-05 8.71412e-24)
(0.0287628 -4.36297e-05 -3.81176e-24)
(0.028548 0.000132834 6.26347e-24)
(0.0285601 0.000115763 -1.43947e-23)
(0.0285695 9.91668e-05 2.3546e-24)
(0.0285767 8.33348e-05 2.07973e-23)
(0.0285823 6.83862e-05 -2.01808e-23)
(0.0285867 5.43447e-05 7.03156e-24)
(0.02859 4.11821e-05 4.57582e-24)
(0.0285924 2.88497e-05 -1.03157e-23)
(0.028594 1.72899e-05 2.35112e-24)
(0.028595 6.45088e-06 1.21484e-24)
(0.0285954 -3.71725e-06 -9.73545e-25)
(0.0285952 -1.32514e-05 2.09624e-24)
(0.0285946 -2.21936e-05 -2.58273e-24)
(0.0285937 -3.05958e-05 1.76135e-24)
(0.0285924 -3.84994e-05 -8.18851e-25)
(0.0276144 0.00011745 3.8854e-24)
(0.0276274 0.000103088 -8.19724e-24)
(0.0276375 8.89932e-05 -5.64804e-24)
(0.0276453 7.5429e-05 2.65391e-23)
(0.0276513 6.25117e-05 -2.43675e-23)
(0.0276558 5.02696e-05 2.59873e-24)
(0.0276591 3.86893e-05 4.07363e-24)
(0.0276615 2.77366e-05 2.19356e-24)
(0.0276629 1.73774e-05 1.7226e-24)
(0.0276637 7.57714e-06 -7.88872e-24)
(0.0276638 -1.68859e-06 5.06911e-24)
(0.0276634 -1.04511e-05 7.28945e-25)
(0.0276625 -1.87407e-05 -1.54002e-24)
(0.0276612 -2.65898e-05 8.57849e-25)
(0.0276595 -3.40226e-05 5.76631e-25)
(0.0261278 0.000102085 9.66551e-24)
(0.026141 9.00921e-05 -1.71642e-23)
(0.0261517 7.82364e-05 3.50371e-24)
(0.0261604 6.67422e-05 -8.32906e-24)
(0.0261673 5.57093e-05 -1.0768e-23)
(0.0261728 4.51665e-05 3.65149e-23)
(0.0261771 3.51112e-05 -1.41026e-23)
(0.0261804 2.55254e-05 3.93615e-24)
(0.0261828 1.63911e-05 -2.15528e-24)
(0.0261844 7.68469e-06 -5.02115e-24)
(0.0261853 -6.15981e-07 9.14469e-24)
(0.0261856 -8.54478e-06 -4.52259e-24)
(0.0261853 -1.61137e-05 7.02798e-25)
(0.0261846 -2.33321e-05 2.4989e-25)
(0.0261833 -3.02048e-05 1.80825e-26)
(0.0243236 8.87132e-05 3.72168e-24)
(0.024337 7.8656e-05 -1.92346e-23)
(0.024348 6.8641e-05 3.33572e-23)
(0.024357 5.88507e-05 -2.54497e-23)
(0.0243644 4.93684e-05 2.53899e-23)
(0.0243703 4.02253e-05 -8.43555e-24)
(0.0243751 3.14271e-05 -5.81309e-24)
(0.0243788 2.29699e-05 -6.29764e-24)
(0.0243816 1.48439e-05 1.09003e-23)
(0.0243835 7.03932e-06 -5.99212e-25)
(0.0243847 -4.57479e-07 -1.01307e-23)
(0.0243852 -7.64977e-06 -1.09455e-24)
(0.0243851 -1.4541e-05 1.9763e-24)
(0.0243845 -2.1135e-05 -3.39311e-25)
(0.0243832 -2.74307e-05 5.08594e-26)
(0.0223382 7.63297e-05 4.95335e-25)
(0.0223516 6.78918e-05 -7.23953e-24)
(0.022363 5.94287e-05 -4.04537e-24)
(0.0223724 5.1085e-05 3.30504e-23)
(0.0223802 4.29326e-05 -3.248e-23)
(0.0223867 3.50051e-05 9.4876e-24)
(0.0223918 2.73187e-05 1.59671e-24)
(0.022396 1.98793e-05 -8.33908e-25)
(0.0223991 1.26898e-05 -3.87568e-24)
(0.0224013 5.74919e-06 1.66598e-23)
(0.0224028 -9.39518e-07 -1.3207e-23)
(0.0224035 -7.37559e-06 -5.23662e-25)
(0.0224035 -1.35566e-05 1.06965e-24)
(0.022403 -1.94816e-05 7.07744e-25)
(0.0224018 -2.51462e-05 -5.26145e-25)
(0.0202741 6.48064e-05 7.37306e-25)
(0.0202878 5.7721e-05 6.72925e-24)
(0.0202994 5.05743e-05 -7.72154e-24)
(0.0203093 4.34797e-05 -5.34279e-24)
(0.0203176 3.64981e-05 3.39853e-23)
(0.0203245 2.96643e-05 -2.59916e-23)
(0.0203301 2.30008e-05 -5.97013e-25)
(0.0203347 1.65205e-05 -5.34729e-24)
(0.0203382 1.02334e-05 -4.09239e-25)
(0.0203408 4.14377e-06 7.80958e-25)
(0.0203425 -1.73801e-06 -2.73216e-24)
(0.0203434 -7.41165e-06 2.32437e-24)
(0.0203436 -1.28712e-05 8.36448e-25)
(0.0203431 -1.81113e-05 7.12588e-25)
(0.0203419 -2.31246e-05 6.45513e-25)
(0.0182064 5.40902e-05 5.25541e-24)
(0.0182203 4.81461e-05 -8.05908e-24)
(0.0182323 4.21314e-05 -6.47092e-24)
(0.0182425 3.61322e-05 1.97363e-23)
(0.0182512 3.01969e-05 -7.06876e-24)
(0.0182586 2.43593e-05 -9.93522e-24)
(0.0182646 1.86437e-05 3.4763e-24)
(0.0182695 1.30668e-05 7.74204e-24)
(0.0182734 7.64036e-06 -1.22755e-23)
(0.0182762 2.37139e-06 1.21036e-23)
(0.0182782 -2.729e-06 -6.40235e-24)
(0.0182793 -7.65766e-06 2.6923e-24)
(0.0182795 -1.24048e-05 -3.35365e-24)
(0.018279 -1.69622e-05 3.22912e-24)
(0.0182777 -2.13208e-05 -7.3098e-25)
(0.0161878 4.4151e-05 -1.02007e-24)
(0.0162017 3.91926e-05 -3.54139e-24)
(0.0162139 3.41718e-05 -1.12874e-23)
(0.0162244 2.91483e-05 3.15128e-23)
(0.0162334 2.41585e-05 -5.64917e-24)
(0.016241 1.92349e-05 -8.88027e-24)
(0.0162473 1.43996e-05 3.07025e-24)
(0.0162524 9.67277e-06 -4.45366e-24)
(0.0162564 5.0604e-06 -9.57603e-24)
(0.0162593 5.84839e-07 9.22577e-24)
(0.0162613 -3.76236e-06 4.40983e-25)
(0.0162624 -7.96568e-06 -2.85674e-24)
(0.0162625 -1.2011e-05 3.26216e-24)
(0.0162618 -1.58901e-05 1.80139e-25)
(0.0162603 -1.9594e-05 -2.31044e-25)
(0.0142531 3.50693e-05 3.92549e-24)
(0.0142669 3.09844e-05 5.77735e-24)
(0.0142789 2.68525e-05 -5.38425e-24)
(0.0142894 2.27087e-05 -1.17665e-23)
(0.0142983 1.85817e-05 1.58388e-23)
(0.0143058 1.4501e-05 -1.73366e-23)
(0.0143121 1.04881e-05 -6.71296e-25)
(0.0143171 6.5592e-06 6.71748e-24)
(0.0143209 2.72285e-06 2.33658e-24)
(0.0143237 -1.00357e-06 -4.80832e-24)
(0.0143254 -4.62307e-06 2.93348e-26)
(0.0143261 -8.11757e-06 9.72992e-24)
(0.0143259 -1.1475e-05 -3.71565e-24)
(0.0143248 -1.46882e-05 -9.19677e-25)
(0.0143228 -1.77481e-05 -5.49576e-26)
(0.0124234 2.7006e-05 -4.07754e-24)
(0.0124365 2.37066e-05 5.24926e-24)
(0.0124481 2.03752e-05 5.91338e-25)
(0.012458 1.70275e-05 1.06355e-23)
(0.0124665 1.36888e-05 -8.66783e-24)
(0.0124736 1.03847e-05 6.93413e-25)
(0.0124794 7.13517e-06 -9.29871e-25)
(0.012484 3.94983e-06 -2.72816e-24)
(0.0124873 8.48259e-07 2.38012e-24)
(0.0124896 -2.18014e-06 -7.68308e-24)
(0.0124908 -5.10712e-06 5.46068e-25)
(0.0124909 -7.92571e-06 1.83196e-24)
(0.01249 -1.06287e-05 1.13448e-24)
(0.0124883 -1.3209e-05 4.38395e-25)
(0.0124855 -1.56573e-05 1.52282e-25)
(0.0107096 2.01114e-05 3.02004e-24)
(0.0107218 1.75157e-05 -2.38899e-24)
(0.0107323 1.48994e-05 -1.05133e-23)
(0.0107414 1.22653e-05 9.87158e-24)
(0.0107491 9.63808e-06 1.38056e-23)
(0.0107554 7.03893e-06 -3.49468e-24)
(0.0107605 4.48299e-06 -7.13934e-24)
(0.0107643 1.97961e-06 -1.00248e-23)
(0.0107669 -4.58357e-07 7.56111e-24)
(0.0107684 -2.83511e-06 4.41327e-25)
(0.0107688 -5.12654e-06 -1.69601e-24)
(0.0107682 -7.32765e-06 -4.54686e-25)
(0.0107666 -9.43301e-06 9.35744e-25)
(0.010764 -1.14359e-05 -3.57463e-26)
(0.0107605 -1.33278e-05 -1.75656e-25)
(0.0091163 1.44524e-05 -1.90038e-24)
(0.00912704 1.24743e-05 -1.35571e-24)
(0.00913637 1.0483e-05 1.64884e-24)
(0.0091443 8.47529e-06 -5.24251e-24)
(0.00915089 6.47512e-06 1.72092e-23)
(0.00915619 4.49797e-06 -2.28392e-23)
(0.00916026 2.55445e-06 2.24244e-23)
(0.00916316 6.55386e-07 -9.50325e-24)
(0.00916492 -1.20113e-06 2.16424e-24)
(0.00916558 -2.99736e-06 3.02503e-26)
(0.0091652 -4.72711e-06 -1.68954e-24)
(0.00916382 -6.38555e-06 5.63738e-25)
(0.00916147 -7.96695e-06 -1.28072e-24)
(0.00915821 -9.46525e-06 -1.65677e-25)
(0.00915406 -1.08735e-05 8.25168e-26)
(0.00764363 9.99218e-06 -9.23153e-25)
(0.00765279 8.53912e-06 2.36194e-25)
(0.00766069 7.07804e-06 5.1445e-25)
(0.00766731 5.60414e-06 -2.39192e-24)
(0.0076727 4.13917e-06 -1.08227e-24)
(0.00767691 2.69223e-06 9.35497e-24)
(0.00767998 1.27134e-06 -5.50222e-24)
(0.00768195 -1.14263e-07 7.89507e-25)
(0.00768285 -1.46916e-06 -7.64164e-25)
(0.00768274 -2.77566e-06 -8.24215e-25)
(0.00768165 -4.03144e-06 -2.37672e-25)
(0.00767963 -5.23232e-06 1.55808e-24)
(0.0076767 -6.37348e-06 3.82947e-25)
(0.00767293 -7.44989e-06 -9.1686e-25)
(0.00766834 -8.45632e-06 -1.37619e-25)
(0.00628932 6.61079e-06 -3.35568e-25)
(0.00629685 5.58786e-06 -1.11284e-25)
(0.00630329 4.56193e-06 -5.41616e-24)
(0.00630859 3.52785e-06 1.43022e-24)
(0.0063128 2.50329e-06 -3.90745e-24)
(0.00631595 1.49174e-06 2.72668e-24)
(0.00631808 5.00159e-07 5.17742e-24)
(0.00631922 -4.65846e-07 3.88666e-24)
(0.00631941 -1.40873e-06 -5.45062e-24)
(0.00631869 -2.31675e-06 1.64324e-24)
(0.00631708 -3.18759e-06 1.39548e-24)
(0.00631464 -4.01794e-06 -1.99031e-24)
(0.00631138 -4.80435e-06 1.06019e-24)
(0.00630738 -5.54283e-06 -7.20556e-26)
(0.00630265 -6.22957e-06 2.581e-25)
(0.00504936 4.14362e-06 -1.31359e-24)
(0.00505532 3.45985e-06 -1.80144e-24)
(0.00506036 2.77856e-06 -3.29326e-25)
(0.00506443 2.09354e-06 4.48275e-24)
(0.00506756 1.41724e-06 -3.1766e-24)
(0.00506979 7.49082e-07 -6.19262e-25)
(0.00507113 9.65882e-08 5.12133e-24)
(0.00507162 -5.39516e-07 1.44846e-26)
(0.00507129 -1.16022e-06 -1.03812e-24)
(0.00507017 -1.75666e-06 -3.7941e-24)
(0.00506828 -2.32745e-06 4.27567e-25)
(0.00506568 -2.8702e-06 2.59435e-24)
(0.00506238 -3.38269e-06 -3.33614e-25)
(0.00505843 -3.86185e-06 -3.45672e-25)
(0.00505387 -4.30484e-06 2.26694e-25)
(0.00391859 2.41489e-06 -2.86915e-25)
(0.00392311 1.98757e-06 1.68832e-26)
(0.00392688 1.56814e-06 2.14864e-24)
(0.00392985 1.1483e-06 1.44015e-24)
(0.00393206 7.3521e-07 -9.90289e-25)
(0.00393353 3.26522e-07 -2.45456e-24)
(0.00393427 -7.12783e-08 9.94473e-25)
(0.00393431 -4.60105e-07 -4.17322e-24)
(0.00393367 -8.38386e-07 3.21407e-24)
(0.00393237 -1.20212e-06 1.6466e-24)
(0.00393045 -1.54947e-06 -1.41954e-26)
(0.00392794 -1.87896e-06 -1.78868e-24)
(0.00392486 -2.18917e-06 3.20409e-25)
(0.00392125 -2.47779e-06 -2.37384e-25)
(0.00391714 -2.7426e-06 1.16601e-25)
(0.00289103 1.25919e-06 -5.27921e-25)
(0.00289427 1.01389e-06 1.06472e-26)
(0.00289693 7.81462e-07 1.72154e-24)
(0.00289898 5.51077e-07 -1.07628e-24)
(0.00290043 3.25751e-07 4.43317e-24)
(0.00290131 1.04383e-07 -8.07763e-24)
(0.00290162 -1.15893e-07 6.53343e-24)
(0.00290141 -3.24395e-07 -5.4493e-24)
(0.00290066 -5.33171e-07 3.93924e-24)
(0.0028994 -7.3047e-07 -2.52166e-24)
(0.00289766 -9.18895e-07 8.66108e-25)
(0.00289545 -1.09716e-06 1.24889e-25)
(0.00289282 -1.26419e-06 1.94487e-25)
(0.00288977 -1.41832e-06 -2.38614e-25)
(0.00288635 -1.55771e-06 4.81698e-26)
(0.00196023 5.37726e-07 8.00501e-25)
(0.00196234 4.09442e-07 8.65559e-25)
(0.00196405 2.98576e-07 -3.70003e-24)
(0.00196532 1.91627e-07 2.70669e-24)
(0.00196618 8.89638e-08 -2.63277e-26)
(0.00196664 -7.76642e-09 6.97385e-25)
(0.00196669 -1.09705e-07 -8.5133e-25)
(0.00196638 -2.04606e-07 -1.77885e-24)
(0.00196568 -2.96242e-07 1.76677e-24)
(0.00196463 -3.82651e-07 1.82761e-25)
(0.00196324 -4.64095e-07 -1.40127e-24)
(0.00196153 -5.39902e-07 5.0297e-25)
(0.0019595 -6.10681e-07 2.95099e-25)
(0.0019572 -6.75585e-07 -3.52204e-26)
(0.00195463 -7.33078e-07 -3.23789e-26)
(0.00111941 1.58585e-07 -8.07233e-25)
(0.00112054 1.11663e-07 2.46875e-24)
(0.00112143 8.10978e-08 1.47305e-24)
(0.00112207 5.12783e-08 -2.65114e-24)
(0.00112248 2.18736e-08 -3.10681e-25)
(0.00112265 -5.83732e-09 -2.75393e-25)
(0.00112258 -3.77411e-08 8.39716e-25)
(0.0011223 -6.69659e-08 -1.42293e-24)
(0.0011218 -9.52361e-08 1.93273e-24)
(0.00112109 -1.2237e-07 -9.45999e-25)
(0.00112017 -1.46469e-07 -6.10418e-25)
(0.00111907 -1.66449e-07 3.67123e-25)
(0.00111778 -1.88156e-07 -4.27685e-25)
(0.00111633 -2.11811e-07 4.25628e-25)
(0.00111473 -2.36096e-07 -7.01428e-26)
(0.000361741 5.92818e-08 -5.75928e-27)
(0.000362015 1.13597e-07 4.79244e-25)
(0.000362222 1.58094e-07 5.48376e-25)
(0.000362353 1.87244e-07 -8.59297e-25)
(0.000362413 2.03032e-07 1.78568e-24)
(0.000362402 2.07524e-07 -1.93872e-24)
(0.000362319 2.02333e-07 1.27144e-25)
(0.000362167 1.89688e-07 1.06685e-24)
(0.000361946 1.70516e-07 -1.4745e-24)
(0.000361659 1.46202e-07 -2.64625e-25)
(0.000361307 1.19095e-07 1.0097e-24)
(0.000360894 9.07534e-08 -4.44258e-25)
(0.000360423 5.76688e-08 -1.61069e-25)
(0.000359899 2.01577e-08 1.34101e-25)
(0.000359326 -2.06648e-08 -5.80122e-27)
(0.000905194 -0.000238884 7.99766e-26)
(0.00103724 -0.000159599 2.03739e-24)
(0.00125963 -7.81347e-05 -5.84276e-24)
(0.00148728 -1.25207e-05 8.46249e-24)
(0.00170636 3.88453e-05 -3.17405e-24)
(0.00192163 7.66973e-05 -3.03275e-24)
(0.00213305 0.000103477 3.43858e-24)
(0.00234116 0.000121208 -6.77363e-24)
(0.00254668 0.000131594 4.42451e-25)
(0.0027502 0.000136107 4.25522e-24)
(0.00295226 0.000136013 -8.09474e-25)
(0.00315337 0.000132443 8.73202e-25)
(0.00335406 0.000126448 -8.55702e-26)
(0.00355494 0.000119063 5.40956e-25)
(0.00375683 0.000111368 -1.98508e-24)
(0.00396082 0.000104544 1.08593e-24)
(0.00416863 9.98858e-05 -3.34934e-25)
(0.00438265 9.87905e-05 2.62034e-26)
(0.00460669 0.000102395 7.76981e-25)
(0.00484549 0.000111224 -4.85422e-25)
(0.00510544 0.000123553 5.94349e-26)
(0.00539151 0.00013453 -5.19229e-26)
(0.00568187 0.000133154 9.88012e-26)
(0.00593979 0.000112136 3.81555e-25)
(0.00615251 7.22056e-05 -6.84843e-25)
(0.0063198 1.61372e-05 -4.59223e-25)
(0.00644321 -5.30058e-05 2.59658e-26)
(0.00652494 -0.000132567 1.11558e-24)
(0.00656671 -0.000220018 1.41178e-24)
(0.00656948 -0.000312466 -2.73513e-24)
(0.00653364 -0.000406195 1.8611e-24)
(0.00645932 -0.000496436 -1.31315e-24)
(0.00634679 -0.000577354 1.50488e-25)
(0.00619673 -0.000642189 -1.16463e-24)
(0.00601031 -0.000683401 1.12228e-24)
(0.00578919 -0.000692712 7.41726e-24)
(0.00553535 -0.00066088 -2.04542e-24)
(0.00525109 -0.000576974 1.89985e-24)
(0.00493911 -0.000426981 1.01611e-24)
(0.00460313 -0.000192244 -1.0932e-23)
(0.00424689 0.000149085 -1.33355e-25)
(0.00387534 0.00061043 4.60129e-24)
(0.00347712 0.00116138 1.4639e-24)
(0.0030701 0.00167994 -6.44725e-24)
(0.0028396 0.00180032 -3.19567e-25)
(0.00170384 -0.000318785 -2.34372e-24)
(0.00175919 -0.000273935 -3.2825e-24)
(0.00189677 -0.000195556 6.89381e-24)
(0.00206977 -0.000122878 3.18364e-24)
(0.00225395 -6.13643e-05 -1.11282e-23)
(0.0024446 -1.31489e-05 1.18387e-23)
(0.00263764 2.31525e-05 -4.23872e-24)
(0.00283124 4.93965e-05 3.35246e-24)
(0.00302476 6.73273e-05 -4.43321e-24)
(0.00321801 7.85218e-05 5.12448e-26)
(0.00341103 8.43553e-05 -2.34073e-24)
(0.003604 8.60491e-05 4.63858e-24)
(0.00379725 8.47279e-05 -2.56169e-24)
(0.00399119 8.14793e-05 -2.29323e-24)
(0.00418651 7.74155e-05 -1.51458e-24)
(0.00438414 7.37271e-05 2.9073e-24)
(0.00458561 7.16989e-05 -3.4254e-25)
(0.00479306 7.26896e-05 1.50072e-24)
(0.00500999 7.78012e-05 2.31977e-25)
(0.00524072 8.75438e-05 -4.42668e-25)
(0.00549128 0.000100304 -1.82907e-25)
(0.00576641 0.000111565 -1.09835e-25)
(0.00604561 0.000110887 5.34937e-25)
(0.00629426 9.14761e-05 6.54078e-25)
(0.00650023 5.41234e-05 -5.88955e-25)
(0.00666318 1.48654e-06 -2.80645e-24)
(0.00678432 -6.34434e-05 3.73854e-24)
(0.00686549 -0.00013798 -2.54147e-24)
(0.00690819 -0.000219482 8.48617e-25)
(0.00691329 -0.000304923 -4.01393e-25)
(0.00688123 -0.000390483 2.61357e-24)
(0.00681235 -0.000471345 -2.50727e-24)
(0.00670727 -0.0005417 -1.96631e-25)
(0.00656712 -0.000594857 6.02106e-24)
(0.00639372 -0.000623385 -1.03309e-23)
(0.00618962 -0.000619128 2.81445e-24)
(0.00595813 -0.000573006 1.31937e-23)
(0.00570353 -0.000474409 -3.63362e-24)
(0.00543167 -0.000310038 -1.05857e-23)
(0.00515157 -6.24103e-05 -6.36643e-24)
(0.00487678 0.000288976 1.4516e-23)
(0.00462994 0.000758035 -1.3945e-23)
(0.00443466 0.00131463 -3.02749e-24)
(0.00433084 0.00182583 9.08888e-24)
(0.00436066 0.00188884 2.86447e-24)
(0.00264694 -0.000327095 -2.66352e-26)
(0.00265541 -0.000322257 -3.75856e-24)
(0.00271437 -0.000275435 7.30257e-24)
(0.00282344 -0.000213007 6.11117e-24)
(0.00295885 -0.000151988 -9.99785e-24)
(0.00311192 -9.93551e-05 2.07569e-25)
(0.00327559 -5.67562e-05 9.56716e-25)
(0.00344557 -2.37431e-05 1.03224e-23)
(0.00361953 8.09484e-07 -1.2223e-23)
(0.00379613 1.82246e-05 7.49589e-24)
(0.00397462 2.97876e-05 2.25058e-24)
(0.00415469 3.67004e-05 -1.2437e-23)
(0.00433627 4.00962e-05 4.4898e-24)
(0.00451952 4.10765e-05 1.78329e-24)
(0.00470486 4.07632e-05 -3.69436e-24)
(0.00489302 4.03401e-05 5.96557e-24)
(0.0050853 4.10714e-05 -4.18501e-24)
(0.00528355 4.42708e-05 -7.23659e-26)
(0.0054909 5.10003e-05 3.25104e-25)
(0.00571123 6.1753e-05 3.4268e-25)
(0.00595011 7.50243e-05 4.48352e-26)
(0.00621199 8.66323e-05 1.93857e-25)
(0.00647781 8.66946e-05 -5.39906e-25)
(0.00671521 6.89287e-05 1.60836e-24)
(0.00691277 3.42014e-05 -2.53502e-24)
(0.00707 -1.49329e-05 1.45742e-24)
(0.00718773 -7.55423e-05 -3.25639e-24)
(0.00726748 -0.00014491 4.36745e-24)
(0.00731047 -0.000220281 -3.66279e-24)
(0.0073175 -0.000298497 5.52417e-25)
(0.00728908 -0.000375638 7.69455e-25)
(0.00722579 -0.000446857 2.97923e-24)
(0.00712858 -0.000506393 -7.07277e-25)
(0.00699912 -0.000547693 3.1282e-24)
(0.0068399 -0.000563543 -9.19079e-24)
(0.00665443 -0.000546118 1.63116e-23)
(0.00644737 -0.000486869 -1.12819e-23)
(0.00622502 -0.000376156 1.68856e-23)
(0.00599618 -0.000202602 -3.23354e-23)
(0.00577422 4.76323e-05 1.23357e-23)
(0.00557957 0.00038891 4.28931e-24)
(0.0054438 0.00082701 6.68527e-24)
(0.0054014 0.00132523 -8.30313e-24)
(0.00547511 0.00175301 2.31432e-24)
(0.00563323 0.00179279 -1.39198e-24)
(0.00371747 -0.000310975 -9.92919e-25)
(0.00369971 -0.000330977 -1.51364e-24)
(0.00370972 -0.000312923 -6.46447e-24)
(0.00375738 -0.000273167 1.78668e-24)
(0.00383965 -0.000222834 1.18549e-24)
(0.00394671 -0.000173519 5.0948e-24)
(0.00407168 -0.000129839 -1.06269e-23)
(0.00420914 -9.34487e-05 4.06543e-24)
(0.00435546 -6.44426e-05 1.34728e-23)
(0.00450819 -4.2183e-05 -3.58686e-24)
(0.00466575 -2.57571e-05 -3.35385e-24)
(0.00482718 -1.41616e-05 -5.3245e-25)
(0.00499193 -6.36796e-06 1.74009e-24)
(0.00515979 -1.33365e-06 -3.39566e-24)
(0.00533089 2.02423e-06 7.86066e-25)
(0.00550567 4.85005e-06 -2.73742e-25)
(0.00568514 8.36384e-06 -1.61302e-24)
(0.00587083 1.38166e-05 6.2571e-25)
(0.00606548 2.2218e-05 2.78979e-24)
(0.00627246 3.40346e-05 -3.28135e-25)
(0.00649685 4.78648e-05 -6.21887e-25)
(0.0067427 5.98591e-05 -1.70406e-25)
(0.00699251 6.06949e-05 -9.51993e-25)
(0.00721633 4.46139e-05 -5.45812e-26)
(0.00740346 1.25728e-05 -2.24853e-24)
(0.00755323 -3.29647e-05 3.88728e-24)
(0.00766612 -8.91214e-05 -3.25667e-24)
(0.00774327 -0.000153147 6.18332e-24)
(0.00778566 -0.00022218 -5.03418e-24)
(0.00779401 -0.000292943 1.2747e-24)
(0.00776891 -0.000361443 1.71785e-24)
(0.00771117 -0.000422845 -1.85725e-25)
(0.00762215 -0.000471506 -2.98509e-25)
(0.00750402 -0.000501112 -1.07825e-24)
(0.00735998 -0.000504842 1.34955e-24)
(0.00719445 -0.000475467 -5.07074e-24)
(0.00701338 -0.000405391 2.39184e-23)
(0.0068247 -0.000286596 -1.26921e-23)
(0.00663935 -0.000110636 -4.41093e-25)
(0.006473 0.000131076 -2.86572e-23)
(0.00634795 0.00044473 2.17134e-23)
(0.00629473 0.000826191 -7.84015e-24)
(0.00634326 0.00123774 1.97539e-24)
(0.00649874 0.00157814 9.66324e-24)
(0.00671399 0.00165497 -2.28768e-24)