/*--------------------------------*- C++ -*----------------------------------*\
| =========                 |                                                 |
| \\      /  F ield         | OpenFOAM: The Open Source CFD Toolbox           |
|  \\    /   O peration     | Version:  2312                                  |
|   \\  /    A nd           | Website:  www.openfoam.com                      |
|    \\/     M anipulation  |                                                 |
\*---------------------------------------------------------------------------*/
FoamFile
{
    version     2.0;
    format      ascii;
    arch        "LSB;label=32;scalar=64";
    class       volScalarField;
    location    "187";
    object      p;
}
// * * * * * * * * * * * * * * * * * * * * * * * * * * * * * * * * * * * * * //

dimensions      [0 2 -2 0 0 0 0];

internalField   nonuniform List<scalar> 
4800
(
5.40863e-13
-1.4653e-06
-2.63498e-06
-3.58553e-06
-4.37044e-06
-5.02823e-06
-5.58443e-06
-6.06807e-06
-6.49089e-06
-6.86397e-06
-7.19753e-06
-7.49446e-06
-7.75017e-06
-8.19557e-06
-9.75164e-06
1.82952e-08
-1.44483e-06
-2.61354e-06
-3.56402e-06
-4.34956e-06
-5.00922e-06
-5.56809e-06
-6.056e-06
-6.48472e-06
-6.867e-06
-7.21811e-06
-7.55399e-06
-7.88944e-06
-8.33068e-06
-9.11664e-06
3.74462e-08
-1.42331e-06
-2.59103e-06
-3.54154e-06
-4.32795e-06
-4.98943e-06
-5.55012e-06
-6.04077e-06
-6.47427e-06
-6.86335e-06
-7.22439e-06
-7.57442e-06
-7.92225e-06
-8.2776e-06
-8.62005e-06
5.66516e-08
-1.40127e-06
-2.56762e-06
-3.51777e-06
-4.30464e-06
-4.96728e-06
-5.52961e-06
-6.02089e-06
-6.45645e-06
-6.84702e-06
-7.206e-06
-7.5426e-06
-7.85001e-06
-8.09958e-06
-8.22559e-06
7.74364e-08
-1.377e-06
-2.54144e-06
-3.49071e-06
-4.27743e-06
-4.9402e-06
-5.50384e-06
-5.99323e-06
-6.42661e-06
-6.81193e-06
-7.15678e-06
-7.46146e-06
-7.70876e-06
-7.86278e-06
-7.87186e-06
1.01177e-07
-1.34905e-06
-2.51096e-06
-3.45867e-06
-4.24439e-06
-4.90596e-06
-5.4687e-06
-5.95412e-06
-6.37995e-06
-6.75176e-06
-7.07152e-06
-7.33324e-06
-7.51791e-06
-7.59807e-06
-7.54757e-06
1.29979e-07
-1.31538e-06
-2.47402e-06
-3.41926e-06
-4.20272e-06
-4.86132e-06
-5.41986e-06
-5.89811e-06
-6.3106e-06
-6.66088e-06
-6.94742e-06
-7.16236e-06
-7.29143e-06
-7.32081e-06
-7.24433e-06
1.67662e-07
-1.2723e-06
-2.42683e-06
-3.36843e-06
-4.14793e-06
-4.80119e-06
-5.35205e-06
-5.81839e-06
-6.21181e-06
-6.53461e-06
-6.78433e-06
-6.95527e-06
-7.04075e-06
-7.03886e-06
-6.95463e-06
2.20359e-07
-1.21385e-06
-2.36338e-06
-3.29993e-06
-4.07334e-06
-4.71839e-06
-5.25778e-06
-5.70751e-06
-6.07727e-06
-6.3696e-06
-6.58358e-06
-6.71785e-06
-6.77294e-06
-6.75474e-06
-6.67294e-06
2.96648e-07
-1.13148e-06
-2.27495e-06
-3.20478e-06
-3.96972e-06
-4.60343e-06
-5.12771e-06
-5.55722e-06
-5.90097e-06
-6.16328e-06
-6.34634e-06
-6.45345e-06
-6.49032e-06
-6.4668e-06
-6.39368e-06
4.07012e-07
-1.01422e-06
-2.15015e-06
-3.07128e-06
-3.82524e-06
-4.44473e-06
-4.95104e-06
-5.35848e-06
-5.67685e-06
-5.9128e-06
-6.07215e-06
-6.16192e-06
-6.19082e-06
-6.17004e-06
-6.10973e-06
5.63109e-07
-8.49306e-07
-1.97544e-06
-2.88548e-06
-3.62602e-06
-4.2291e-06
-4.71608e-06
-5.10201e-06
-5.3982e-06
-5.61388e-06
-5.75777e-06
-5.83933e-06
-5.86854e-06
-5.85639e-06
-5.81184e-06
7.77827e-07
-6.222e-07
-1.73535e-06
-2.63149e-06
-3.3565e-06
-3.94213e-06
-4.41039e-06
-4.7776e-06
-5.05693e-06
-5.25972e-06
-5.39651e-06
-5.47791e-06
-5.514e-06
-5.5149e-06
-5.48836e-06
1.0659e-06
-3.1594e-07
-1.41184e-06
-2.29104e-06
-2.99904e-06
-3.56766e-06
-4.01978e-06
-4.37303e-06
-4.64212e-06
-4.83966e-06
-4.97727e-06
-5.06553e-06
-5.11391e-06
-5.13147e-06
-5.12489e-06
1.44372e-06
8.88997e-08
-9.84065e-07
-1.84301e-06
-2.53319e-06
-3.08661e-06
-3.52677e-06
-3.87203e-06
-4.13769e-06
-4.33751e-06
-4.48301e-06
-4.58431e-06
-4.64983e-06
-4.68742e-06
-4.70297e-06
1.92766e-06
6.12547e-07
-4.29828e-07
-1.26459e-06
-1.93636e-06
-2.47711e-06
-2.91039e-06
-3.25437e-06
-3.52397e-06
-3.73257e-06
-3.89187e-06
-4.01142e-06
-4.09841e-06
-4.15944e-06
-4.19974e-06
2.53112e-06
1.27276e-06
2.71064e-07
-5.34542e-07
-1.18686e-06
-1.7171e-06
-2.14812e-06
-2.49713e-06
-2.77781e-06
-3.00217e-06
-3.18085e-06
-3.32327e-06
-3.43586e-06
-3.52394e-06
-3.59208e-06
3.26062e-06
2.08015e-06
1.13177e-06
3.61724e-07
-2.69165e-07
-7.89766e-07
-1.22129e-06
-1.57974e-06
-1.87749e-06
-2.12414e-06
-2.32774e-06
-2.49823e-06
-2.64146e-06
-2.76154e-06
-2.86222e-06
4.11161e-06
3.03222e-06
2.1518e-06
1.42526e-06
8.19089e-07
3.0845e-07
-1.24701e-07
-4.93416e-07
-8.08304e-07
-1.0797e-06
-1.31331e-06
-1.51688e-06
-1.6951e-06
-1.85174e-06
-1.99037e-06
5.06212e-06
4.10476e-06
3.30621e-06
2.63152e-06
2.05426e-06
1.55457e-06
1.11872e-06
7.37775e-07
4.04259e-07
1.11329e-07
-1.50679e-07
-3.86063e-07
-5.98698e-07
-7.9218e-07
-9.70039e-07
6.02254e-06
5.19296e-06
4.48128e-06
3.86243e-06
3.31687e-06
2.83084e-06
2.3944e-06
1.99897e-06
1.64022e-06
1.31611e-06
1.02414e-06
7.54816e-07
5.03394e-07
2.67106e-07
4.36613e-08
6.84334e-06
6.12453e-06
5.48955e-06
4.92143e-06
4.40726e-06
3.93722e-06
3.50481e-06
3.10662e-06
2.73608e-06
2.38655e-06
2.05518e-06
1.74823e-06
1.46086e-06
1.18641e-06
9.21823e-07
7.47088e-06
6.83406e-06
6.25563e-06
5.7247e-06
5.23265e-06
4.77332e-06
4.34201e-06
3.93477e-06
3.54841e-06
3.18173e-06
2.83376e-06
2.50312e-06
2.18608e-06
1.87904e-06
1.58026e-06
7.92931e-06
7.35342e-06
6.81745e-06
6.31501e-06
5.84076e-06
5.39071e-06
4.96175e-06
4.55162e-06
4.15848e-06
3.78214e-06
3.41897e-06
3.06723e-06
2.72493e-06
2.39062e-06
2.06324e-06
8.25544e-06
7.72482e-06
7.22148e-06
6.74188e-06
6.28277e-06
5.84183e-06
5.41704e-06
5.00639e-06
4.60837e-06
4.22006e-06
3.84188e-06
3.47195e-06
3.10912e-06
2.75255e-06
2.40133e-06
8.48042e-06
7.98386e-06
7.50587e-06
7.04449e-06
6.5977e-06
6.16403e-06
5.7418e-06
5.32916e-06
4.92459e-06
4.52773e-06
4.13766e-06
3.75344e-06
3.37436e-06
2.99974e-06
2.62887e-06
8.63055e-06
8.15991e-06
7.70158e-06
7.25437e-06
6.81702e-06
6.38844e-06
5.96751e-06
5.5539e-06
5.14424e-06
4.74026e-06
4.3407e-06
3.94503e-06
3.55272e-06
3.16331e-06
2.77636e-06
8.72743e-06
8.27678e-06
7.83368e-06
7.39747e-06
6.96738e-06
6.5427e-06
6.12249e-06
5.7058e-06
5.29438e-06
4.88489e-06
4.47768e-06
4.07266e-06
3.66951e-06
3.26801e-06
2.86795e-06
8.78795e-06
8.35298e-06
7.92189e-06
7.49441e-06
7.07021e-06
6.64883e-06
6.22963e-06
5.81218e-06
5.39697e-06
4.98262e-06
4.56908e-06
4.15634e-06
3.74428e-06
3.33288e-06
2.92207e-06
8.82473e-06
8.40233e-06
7.98091e-06
7.56056e-06
7.14118e-06
6.72247e-06
6.30401e-06
5.88559e-06
5.46742e-06
5.04895e-06
4.63008e-06
4.21091e-06
3.79144e-06
3.37182e-06
2.95206e-06
8.84674e-06
8.43465e-06
8.02119e-06
7.60674e-06
7.19131e-06
6.77473e-06
6.35679e-06
5.93742e-06
5.51682e-06
5.09482e-06
4.67141e-06
4.24677e-06
3.82104e-06
3.39446e-06
2.96717e-06
8.86009e-06
8.45661e-06
8.04979e-06
7.64027e-06
7.22811e-06
6.81326e-06
6.39567e-06
5.97541e-06
5.5527e-06
5.12764e-06
4.70029e-06
4.27093e-06
3.83981e-06
3.40725e-06
2.97351e-06
8.8687e-06
8.47252e-06
8.07134e-06
7.66599e-06
7.25656e-06
6.84312e-06
6.42574e-06
6.00461e-06
5.58002e-06
5.15229e-06
4.72146e-06
4.28796e-06
3.85212e-06
3.41435e-06
2.97499e-06
8.87495e-06
8.48504e-06
8.0887e-06
7.6869e-06
7.27976e-06
6.86747e-06
6.45021e-06
6.02824e-06
5.60192e-06
5.17182e-06
4.73788e-06
4.3007e-06
3.86069e-06
3.41832e-06
2.974e-06
8.88019e-06
8.49573e-06
8.10357e-06
7.70482e-06
7.29961e-06
6.88826e-06
6.47103e-06
6.04822e-06
5.62035e-06
5.18811e-06
4.75136e-06
4.3109e-06
3.86716e-06
3.42069e-06
2.97196e-06
8.88511e-06
8.5054e-06
8.11688e-06
7.72075e-06
7.31718e-06
6.90659e-06
6.48934e-06
6.06567e-06
5.63649e-06
5.20225e-06
4.76296e-06
4.31953e-06
3.87244e-06
3.4223e-06
2.96963e-06
8.88997e-06
8.51441e-06
8.12905e-06
7.73518e-06
7.333e-06
6.92303e-06
6.50568e-06
6.08122e-06
5.65089e-06
5.21476e-06
4.7732e-06
4.32711e-06
3.87703e-06
3.4236e-06
2.96741e-06
8.89493e-06
8.52303e-06
8.14042e-06
7.74847e-06
7.34747e-06
6.938e-06
6.52051e-06
6.09524e-06
5.6639e-06
5.22606e-06
4.78247e-06
4.33399e-06
3.88122e-06
3.42482e-06
2.96543e-06
8.90028e-06
8.53179e-06
8.15171e-06
7.76151e-06
7.36157e-06
6.95252e-06
6.53487e-06
6.10895e-06
5.67643e-06
5.23698e-06
4.79143e-06
4.34069e-06
3.88536e-06
3.42614e-06
2.96368e-06
8.9057e-06
8.54054e-06
8.16301e-06
7.77465e-06
7.37579e-06
6.96713e-06
6.54931e-06
6.12272e-06
5.689e-06
5.24796e-06
4.80045e-06
4.34732e-06
3.88939e-06
3.42746e-06
2.9622e-06
-1.0995e-05
-8.76585e-06
-7.39964e-06
-6.47928e-06
-5.74541e-06
-5.18624e-06
-4.75954e-06
-4.43801e-06
-4.20409e-06
-4.04417e-06
-3.94723e-06
-3.90389e-06
-3.90603e-06
-3.94662e-06
-4.0196e-06
-4.12039e-06
-4.24635e-06
-4.39895e-06
-4.58457e-06
-4.81834e-06
-5.11706e-06
-5.48566e-06
-5.84341e-06
-6.03089e-06
-5.9445e-06
-5.54853e-06
-4.84009e-06
-3.82997e-06
-2.53614e-06
-9.8135e-07
8.09309e-07
2.80701e-06
4.9779e-06
7.28245e-06
9.67536e-06
1.2106e-05
1.45184e-05
1.68501e-05
1.90275e-05
2.09572e-05
2.25048e-05
2.34759e-05
2.34386e-05
2.19924e-05
1.76856e-05
-9.42328e-06
-8.2489e-06
-7.20512e-06
-6.38104e-06
-5.69119e-06
-5.14735e-06
-4.72667e-06
-4.40834e-06
-4.17702e-06
-4.01994e-06
-3.92626e-06
-3.88662e-06
-3.89288e-06
-3.93792e-06
-4.01561e-06
-4.1213e-06
-4.25227e-06
-4.40973e-06
-4.59954e-06
-4.83587e-06
-5.13385e-06
-5.49655e-06
-5.84316e-06
-6.01759e-06
-5.91885e-06
-5.51278e-06
-4.79719e-06
-3.78277e-06
-2.48756e-06
-9.34985e-07
8.48688e-07
2.83296e-06
4.9818e-06
7.25287e-06
9.59729e-06
1.19595e-05
1.42764e-05
1.64749e-05
1.84643e-05
2.0122e-05
2.12579e-05
2.15638e-05
2.04252e-05
1.70408e-05
1.03474e-05
-8.59714e-06
-7.84823e-06
-7.00605e-06
-6.26854e-06
-5.62746e-06
-5.10487e-06
-4.69337e-06
-4.37973e-06
-4.15163e-06
-3.99758e-06
-3.90719e-06
-3.87125e-06
-3.88164e-06
-3.93115e-06
-4.01363e-06
-4.12432e-06
-4.2604e-06
-4.42284e-06
-4.61688e-06
-4.85559e-06
-5.15225e-06
-5.5078e-06
-5.84136e-06
-6.00072e-06
-5.88805e-06
-5.47088e-06
-4.74798e-06
-3.73e-06
-2.43519e-06
-8.87882e-07
8.84148e-07
2.84828e-06
4.96571e-06
7.19062e-06
9.46959e-06
1.17411e-05
1.39336e-05
1.5962e-05
1.77186e-05
1.90559e-05
1.97528e-05
1.94737e-05
1.76876e-05
1.38625e-05
7.9151e-06
-8.07603e-06
-7.52224e-06
-6.83763e-06
-6.16787e-06
-5.57283e-06
-5.07256e-06
-4.67015e-06
-4.36039e-06
-4.1343e-06
-3.98196e-06
-3.89364e-06
-3.86036e-06
-3.87405e-06
-3.92745e-06
-4.0143e-06
-4.12975e-06
-4.27083e-06
-4.43816e-06
-4.6363e-06
-4.87711e-06
-5.17176e-06
-5.51882e-06
-5.83727e-06
-5.97921e-06
-5.85027e-06
-5.41994e-06
-4.68823e-06
-3.66594e-06
-2.37174e-06
-8.31265e-07
9.25735e-07
2.86395e-06
4.94111e-06
7.10711e-06
9.30321e-06
1.14611e-05
1.35005e-05
1.53253e-05
1.68147e-05
1.781e-05
1.80937e-05
1.73796e-05
1.53189e-05
1.16724e-05
6.73526e-06
-7.67891e-06
-7.24124e-06
-6.677e-06
-6.08921e-06
-5.53641e-06
-5.05784e-06
-4.66378e-06
-4.35646e-06
-4.13044e-06
-3.9777e-06
-3.88941e-06
-3.85701e-06
-3.87256e-06
-3.9287e-06
-4.01906e-06
-4.13866e-06
-4.28428e-06
-4.45617e-06
-4.65806e-06
-4.90043e-06
-5.19213e-06
-5.52904e-06
-5.83008e-06
-5.9523e-06
-5.80512e-06
-5.36031e-06
-4.61942e-06
-3.59352e-06
-2.30198e-06
-7.72103e-07
9.63997e-07
2.86787e-06
4.89329e-06
6.9854e-06
9.0799e-06
1.11019e-05
1.29637e-05
1.45615e-05
1.57699e-05
1.64359e-05
1.63748e-05
1.53857e-05
1.32948e-05
1.00787e-05
6.0628e-06
-7.35311e-06
-6.99717e-06
-6.52489e-06
-6.01954e-06
-5.51676e-06
-5.06135e-06
-4.6774e-06
-4.37241e-06
-4.14494e-06
-3.98955e-06
-3.89884e-06
-3.865e-06
-3.88036e-06
-3.9375e-06
-4.02996e-06
-4.15257e-06
-4.30185e-06
-4.47754e-06
-4.68245e-06
-4.92548e-06
-5.21287e-06
-5.53756e-06
-5.81855e-06
-5.91859e-06
-5.75132e-06
-5.2911e-06
-4.54137e-06
-3.51365e-06
-2.22824e-06
-7.14508e-07
9.92686e-07
2.85143e-06
4.81125e-06
6.81248e-06
8.7856e-06
1.06503e-05
1.23145e-05
1.36724e-05
1.46039e-05
1.4977e-05
1.46557e-05
1.35267e-05
1.15433e-05
8.79638e-06
5.57856e-06
-7.06525e-06
-6.77349e-06
-6.38507e-06
-5.94651e-06
-5.50041e-06
-5.07773e-06
-4.70935e-06
-4.40918e-06
-4.18047e-06
-4.02111e-06
-3.92575e-06
-3.88801e-06
-3.90076e-06
-3.95666e-06
-4.04925e-06
-4.1732e-06
-4.32473e-06
-4.50297e-06
-4.70967e-06
-4.95198e-06
-5.23326e-06
-5.54319e-06
-5.80109e-06
-5.87631e-06
-5.68713e-06
-5.21088e-06
-4.45326e-06
-3.42642e-06
-2.15188e-06
-6.61528e-07
1.00677e-06
2.80749e-06
4.6859e-06
6.57793e-06
8.40998e-06
1.00988e-05
1.15517e-05
1.26679e-05
1.3342e-05
1.3472e-05
1.29735e-05
1.1804e-05
9.99139e-06
7.66358e-06
5.0552e-06
-6.79605e-06
-6.55608e-06
-6.23891e-06
-5.86886e-06
-5.47841e-06
-5.09696e-06
-4.75254e-06
-4.46267e-06
-4.23558e-06
-4.07281e-06
-3.97177e-06
-3.92833e-06
-3.93625e-06
-3.9885e-06
-4.07888e-06
-4.20205e-06
-4.35392e-06
-4.53294e-06
-4.7397e-06
-4.97937e-06
-5.25221e-06
-5.54436e-06
-5.77578e-06
-5.82346e-06
-5.61076e-06
-5.11842e-06
-4.35483e-06
-3.33286e-06
-2.07556e-06
-6.17812e-07
9.99363e-07
2.72701e-06
4.50658e-06
6.27062e-06
7.94344e-06
9.44203e-06
1.06781e-05
1.15623e-05
1.20099e-05
1.19518e-05
1.1348e-05
1.02032e-05
8.58066e-06
6.60635e-06
4.45807e-06
-6.53595e-06
-6.33882e-06
-6.08134e-06
-5.77566e-06
-5.44315e-06
-5.10855e-06
-4.79602e-06
-4.52378e-06
-4.3039e-06
-4.14064e-06
-4.03475e-06
-3.9854e-06
-3.98719e-06
-4.03374e-06
-4.11966e-06
-4.23979e-06
-4.38976e-06
-4.56741e-06
-4.772e-06
-5.00663e-06
-5.26821e-06
-5.53913e-06
-5.74051e-06
-5.75805e-06
-5.52072e-06
-5.0132e-06
-4.24706e-06
-3.23565e-06
-2.00396e-06
-5.90396e-07
9.61024e-07
2.59859e-06
4.2609e-06
5.87883e-06
7.37729e-06
8.67737e-06
9.69988e-06
1.0371e-05
1.06296e-05
1.04363e-05
9.78338e-06
8.70225e-06
7.2661e-06
5.58423e-06
3.78806e-06
-6.27841e-06
-6.11791e-06
-5.91084e-06
-5.66284e-06
-5.38713e-06
-5.10214e-06
-4.82764e-06
-4.58047e-06
-4.37481e-06
-4.21574e-06
-4.10813e-06
-4.05507e-06
-4.05091e-06
-4.09058e-06
-4.17033e-06
-4.28542e-06
-4.43131e-06
-4.60527e-06
-4.8052e-06
-5.03207e-06
-5.27925e-06
-5.52531e-06
-5.69322e-06
-5.67855e-06
-5.4164e-06
-4.89617e-06
-4.13295e-06
-3.13992e-06
-1.94439e-06
-5.89094e-07
8.79621e-07
2.40868e-06
3.93535e-06
5.3911e-06
6.70459e-06
7.80464e-06
8.62468e-06
9.10854e-06
9.217e-06
8.93419e-06
8.27269e-06
7.27511e-06
6.0113e-06
4.57014e-06
3.04811e-06
-6.01628e-06
-5.88827e-06
-5.72454e-06
-5.52748e-06
-5.30487e-06
-5.0696e-06
-4.83678e-06
-4.62124e-06
-4.43515e-06
-4.28531e-06
-4.18222e-06
-4.12989e-06
-4.1215e-06
-4.15423e-06
-4.22704e-06
-4.33581e-06
-4.47584e-06
-4.64399e-06
-4.83682e-06
-5.05319e-06
-5.28287e-06
-5.50069e-06
-5.63238e-06
-5.58456e-06
-5.29887e-06
-4.77118e-06
-4.01892e-06
-3.05416e-06
-1.90713e-06
-6.26836e-07
7.40327e-07
2.14199e-06
3.51604e-06
4.7971e-06
5.92058e-06
6.8259e-06
7.46078e-06
7.78617e-06
7.78091e-06
7.4452e-06
6.80199e-06
5.89541e-06
4.7862e-06
3.54412e-06
2.24014e-06
-5.74045e-06
-5.64226e-06
-5.51673e-06
-5.36476e-06
-5.1907e-06
-5.00339e-06
-4.81344e-06
-4.63466e-06
-4.47378e-06
-4.33775e-06
-4.24605e-06
-4.19886e-06
-4.1894e-06
-4.21675e-06
-4.28326e-06
-4.38552e-06
-4.51876e-06
-4.67962e-06
-4.86335e-06
-5.06694e-06
-5.2765e-06
-5.4637e-06
-5.5579e-06
-5.4776e-06
-5.17222e-06
-4.6457e-06
-3.91769e-06
-2.98983e-06
-1.90596e-06
-7.20024e-07
5.26035e-07
1.78239e-06
2.98979e-06
4.08853e-06
5.02313e-06
5.74504e-06
6.21608e-06
6.41186e-06
6.32434e-06
5.96304e-06
5.35434e-06
4.53867e-06
3.56605e-06
2.49016e-06
1.3635e-06
-5.43944e-06
-5.36946e-06
-5.27857e-06
-5.16706e-06
-5.0373e-06
-4.89491e-06
-4.74744e-06
-4.6044e-06
-4.47395e-06
-4.36487e-06
-4.2891e-06
-4.24885e-06
-4.24086e-06
-4.26731e-06
-4.33028e-06
-4.42725e-06
-4.55397e-06
-4.70714e-06
-4.88071e-06
-5.07022e-06
-5.25828e-06
-5.41416e-06
-5.47247e-06
-5.36198e-06
-5.04328e-06
-4.53806e-06
-3.84235e-06
-2.96092e-06
-1.96007e-06
-8.88711e-07
2.18153e-07
1.31425e-06
2.34558e-06
3.26024e-06
4.01308e-06
4.56758e-06
4.8979e-06
4.99076e-06
4.84647e-06
4.47871e-06
3.91305e-06
3.18394e-06
2.33111e-06
1.39537e-06
4.15725e-07
-5.0991e-06
-5.05656e-06
-4.99801e-06
-4.92359e-06
-4.83458e-06
-4.7345e-06
-4.6288e-06
-4.52446e-06
-4.42912e-06
-4.34983e-06
-4.29337e-06
-4.2644e-06
-4.2644e-06
-4.29531e-06
-4.35849e-06
-4.45268e-06
-4.57453e-06
-4.72095e-06
-4.8849e-06
-5.06056e-06
-5.22799e-06
-5.35471e-06
-5.38194e-06
-5.24526e-06
-4.93357e-06
-4.46241e-06
-3.80078e-06
-2.99144e-06
-2.09626e-06
-1.15609e-06
-2.02236e-07
7.23898e-07
1.57592e-06
2.3112e-06
2.89479e-06
3.30083e-06
3.51341e-06
3.5267e-06
3.34527e-06
2.98357e-06
2.46416e-06
1.815e-06
1.0668e-06
2.50299e-07
-6.05478e-07
-4.7016e-06
-4.68668e-06
-4.6595e-06
-4.62027e-06
-4.56979e-06
-4.51037e-06
-4.44587e-06
-4.38136e-06
-4.32246e-06
-4.27456e-06
-4.24308e-06
-4.233e-06
-4.24754e-06
-4.28844e-06
-4.35688e-06
-4.45259e-06
-4.57318e-06
-4.71566e-06
-4.87266e-06
-5.03674e-06
-5.18803e-06
-5.29135e-06
-5.29626e-06
-5.15216e-06
-4.85457e-06
-4.41722e-06
-3.82355e-06
-3.11596e-06
-2.34256e-06
-1.54431e-06
-7.5132e-07
1.54565e-09
6.7772e-07
1.24437e-06
1.67559e-06
1.95394e-06
2.07034e-06
2.02336e-06
1.81922e-06
1.47121e-06
9.97933e-07
4.21192e-07
-2.3581e-07
-9.50176e-07
-1.70028e-06
-4.22484e-06
-4.23893e-06
-4.24361e-06
-4.23926e-06
-4.22651e-06
-4.20696e-06
-4.18328e-06
-4.15902e-06
-4.13827e-06
-4.12535e-06
-4.12472e-06
-4.1406e-06
-4.17623e-06
-4.23357e-06
-4.31394e-06
-4.41759e-06
-4.54287e-06
-4.68693e-06
-4.84241e-06
-5.00025e-06
-5.14313e-06
-5.23434e-06
-5.2316e-06
-5.09682e-06
-4.82413e-06
-4.44584e-06
-3.945e-06
-3.35557e-06
-2.71852e-06
-2.06965e-06
-1.43972e-06
-8.56858e-07
-3.47209e-07
6.57756e-08
3.63822e-07
5.35402e-07
5.75289e-07
4.83922e-07
2.67602e-07
-6.23895e-08
-4.91427e-07
-1.00314e-06
-1.58047e-06
-2.20657e-06
-2.86539e-06
-3.64637e-06
-3.6917e-06
-3.72987e-06
-3.7614e-06
-3.78691e-06
-3.8076e-06
-3.82542e-06
-3.84292e-06
-3.86312e-06
-3.88934e-06
-3.92502e-06
-3.97343e-06
-4.03742e-06
-4.11901e-06
-4.21962e-06
-4.33969e-06
-4.47788e-06
-4.63186e-06
-4.79505e-06
-4.95741e-06
-5.10241e-06
-5.1982e-06
-5.20844e-06
-5.09985e-06
-4.88684e-06
-4.57902e-06
-4.18643e-06
-3.72744e-06
-3.2356e-06
-2.74147e-06
-2.27176e-06
-1.84865e-06
-1.49103e-06
-1.21471e-06
-1.03112e-06
-9.47285e-07
-9.67058e-07
-1.09004e-06
-1.3109e-06
-1.62053e-06
-2.00788e-06
-2.46114e-06
-2.9682e-06
-3.5169e-06
-4.09539e-06
-2.94992e-06
-3.03e-06
-3.10441e-06
-3.17395e-06
-3.23945e-06
-3.30205e-06
-3.36326e-06
-3.42499e-06
-3.48944e-06
-3.55909e-06
-3.63647e-06
-3.72413e-06
-3.82441e-06
-3.93908e-06
-4.06961e-06
-4.21607e-06
-4.37783e-06
-4.55241e-06
-4.73325e-06
-4.91627e-06
-5.08223e-06
-5.20248e-06
-5.24378e-06
-5.19287e-06
-5.05745e-06
-4.8421e-06
-4.56648e-06
-4.24763e-06
-3.90659e-06
-3.56616e-06
-3.24737e-06
-2.96739e-06
-2.74138e-06
-2.58175e-06
-2.4946e-06
-2.48248e-06
-2.54848e-06
-2.69333e-06
-2.91324e-06
-3.2013e-06
-3.54963e-06
-3.95018e-06
-4.39462e-06
-4.87435e-06
-5.38075e-06
-2.11751e-06
-2.23824e-06
-2.35426e-06
-2.46658e-06
-2.57636e-06
-2.68488e-06
-2.79347e-06
-2.90361e-06
-3.01694e-06
-3.13531e-06
-3.26064e-06
-3.39491e-06
-3.54002e-06
-3.69736e-06
-3.86818e-06
-4.05273e-06
-4.24966e-06
-4.45849e-06
-4.67281e-06
-4.884e-06
-5.08998e-06
-5.26586e-06
-5.36918e-06
-5.39781e-06
-5.35655e-06
-5.25471e-06
-5.10743e-06
-4.92914e-06
-4.73447e-06
-4.53912e-06
-4.35885e-06
-4.20606e-06
-4.0913e-06
-4.02464e-06
-4.01305e-06
-4.05603e-06
-4.15637e-06
-4.31479e-06
-4.52846e-06
-4.79294e-06
-5.1035e-06
-5.45514e-06
-5.84226e-06
-6.2588e-06
-6.69855e-06
-1.1391e-06
-1.30437e-06
-1.46692e-06
-1.62742e-06
-1.7871e-06
-1.94728e-06
-2.10922e-06
-2.27411e-06
-2.44323e-06
-2.61792e-06
-2.79971e-06
-2.99006e-06
-3.19043e-06
-3.40198e-06
-3.6255e-06
-3.86147e-06
-4.1088e-06
-4.36685e-06
-4.63261e-06
-4.89664e-06
-5.15851e-06
-5.40228e-06
-5.59616e-06
-5.72329e-06
-5.79433e-06
-5.81668e-06
-5.80045e-06
-5.75701e-06
-5.69807e-06
-5.63505e-06
-5.57778e-06
-5.53755e-06
-5.52228e-06
-5.53275e-06
-5.57177e-06
-5.65117e-06
-5.7743e-06
-5.93855e-06
-6.1407e-06
-6.3789e-06
-6.65149e-06
-6.95584e-06
-7.28829e-06
-7.64467e-06
-8.02074e-06
-1.72473e-07
-3.85744e-07
-5.9733e-07
-8.08234e-07
-1.01984e-06
-1.23344e-06
-1.45012e-06
-1.67086e-06
-1.89669e-06
-2.12871e-06
-2.3681e-06
-2.61604e-06
-2.87364e-06
-3.14185e-06
-3.42137e-06
-3.71255e-06
-4.01504e-06
-4.32809e-06
-4.64926e-06
-4.97423e-06
-5.29961e-06
-5.61698e-06
-5.89967e-06
-6.12871e-06
-6.30697e-06
-6.44072e-06
-6.53772e-06
-6.60714e-06
-6.65818e-06
-6.69916e-06
-6.73703e-06
-6.77916e-06
-6.83135e-06
-6.90102e-06
-6.98997e-06
-7.10276e-06
-7.24121e-06
-7.40482e-06
-7.59324e-06
-7.80668e-06
-8.04477e-06
-8.30608e-06
-8.5884e-06
-8.88925e-06
-9.20617e-06
6.62699e-07
4.05006e-07
1.47552e-07
-1.10647e-07
-3.70843e-07
-6.34101e-07
-9.01306e-07
-1.17329e-06
-1.45094e-06
-1.73515e-06
-2.02688e-06
-2.32707e-06
-2.63659e-06
-2.95625e-06
-3.2866e-06
-3.628e-06
-3.98032e-06
-4.3429e-06
-4.71445e-06
-5.09231e-06
-5.47345e-06
-5.85364e-06
-6.20876e-06
-6.51604e-06
-6.77488e-06
-6.99101e-06
-7.1709e-06
-7.32192e-06
-7.45128e-06
-7.56578e-06
-7.67213e-06
-7.77543e-06
-7.88107e-06
-7.99187e-06
-8.11489e-06
-8.25107e-06
-8.40017e-06
-8.56334e-06
-8.74221e-06
-8.93769e-06
-9.14971e-06
-9.37757e-06
-9.62033e-06
-9.87691e-06
-1.01461e-05
1.28578e-06
9.91416e-07
6.95811e-07
3.98146e-07
9.74892e-08
-2.06955e-07
-5.15884e-07
-8.29982e-07
-1.14996e-06
-1.47654e-06
-1.81046e-06
-2.15245e-06
-2.5032e-06
-2.86334e-06
-3.23332e-06
-3.61342e-06
-4.00358e-06
-4.40338e-06
-4.81194e-06
-5.22758e-06
-5.64819e-06
-6.07088e-06
-6.47289e-06
-6.83055e-06
-7.14203e-06
-7.41246e-06
-7.64737e-06
-7.85284e-06
-8.03493e-06
-8.1994e-06
-8.35148e-06
-8.49509e-06
-8.63429e-06
-8.77327e-06
-8.91572e-06
-9.06266e-06
-9.21535e-06
-9.37587e-06
-9.54594e-06
-9.72645e-06
-9.91763e-06
-1.01195e-05
-1.03321e-05
-1.05549e-05
-1.07875e-05
1.73889e-06
1.41337e-06
1.08546e-06
7.54669e-07
4.20346e-07
8.1903e-08
-2.61194e-07
-6.09457e-07
-9.63412e-07
-1.32359e-06
-1.69055e-06
-2.06482e-06
-2.4469e-06
-2.83725e-06
-3.23619e-06
-3.64389e-06
-4.06032e-06
-4.48514e-06
-4.91774e-06
-5.35694e-06
-5.80109e-06
-6.24793e-06
-6.67632e-06
-7.06338e-06
-7.40683e-06
-7.71128e-06
-7.98156e-06
-8.22281e-06
-8.44004e-06
-8.63787e-06
-8.82025e-06
-8.99064e-06
-9.1527e-06
-9.31029e-06
-9.46544e-06
-9.62008e-06
-9.77631e-06
-9.93602e-06
-1.01006e-05
-1.02709e-05
-1.04478e-05
-1.06318e-05
-1.08232e-05
-1.10222e-05
-1.12287e-05
2.05188e-06
1.70044e-06
1.346e-06
9.8824e-07
6.2673e-07
2.61058e-07
-1.09132e-07
-4.84169e-07
-8.64398e-07
-1.25017e-06
-1.64187e-06
-2.03983e-06
-2.4444e-06
-2.85584e-06
-3.27434e-06
-3.69998e-06
-4.13268e-06
-4.57213e-06
-5.01782e-06
-5.4688e-06
-5.92377e-06
-6.38092e-06
-6.82096e-06
-7.22259e-06
-7.58357e-06
-7.90802e-06
-8.20012e-06
-8.46409e-06
-8.70397e-06
-8.92364e-06
-9.1266e-06
-9.31663e-06
-9.49402e-06
-9.66435e-06
-9.82918e-06
-9.99057e-06
-1.01504e-05
-1.03104e-05
-1.04717e-05
-1.06356e-05
-1.08032e-05
-1.09752e-05
-1.11522e-05
-1.13347e-05
-1.1523e-05
2.25878e-06
1.88625e-06
1.51041e-06
1.13109e-06
7.48008e-07
3.60955e-07
-3.02457e-08
-4.25756e-07
-8.25757e-07
-1.23044e-06
-1.64002e-06
-2.05466e-06
-2.47455e-06
-2.8998e-06
-3.33046e-06
-3.7665e-06
-4.20779e-06
-4.65399e-06
-5.10464e-06
-5.55894e-06
-6.01585e-06
-6.47388e-06
-6.91565e-06
-7.322e-06
-7.69091e-06
-8.02597e-06
-8.33064e-06
-8.60842e-06
-8.86267e-06
-9.09644e-06
-9.31258e-06
-9.51365e-06
-9.70489e-06
-9.88532e-06
-1.00579e-05
-1.0225e-05
-1.03881e-05
-1.0549e-05
-1.0709e-05
-1.08695e-05
-1.10316e-05
-1.11962e-05
-1.13641e-05
-1.1536e-05
-1.17125e-05
2.38946e-06
1.99984e-06
1.60684e-06
1.21038e-06
8.1035e-07
4.06715e-07
-5.44417e-10
-4.11447e-07
-8.26032e-07
-1.24435e-06
-1.66645e-06
-2.09238e-06
-2.52216e-06
-2.95576e-06
-3.39314e-06
-3.83415e-06
-4.27859e-06
-4.72611e-06
-5.17627e-06
-5.62835e-06
-6.08152e-06
-6.53446e-06
-6.97181e-06
-7.37678e-06
-7.74753e-06
-8.08706e-06
-8.39825e-06
-8.684e-06
-8.94715e-06
-9.19032e-06
-9.416e-06
-9.62669e-06
-9.82538e-06
-1.00131e-05
-1.01918e-05
-1.03636e-05
-1.05299e-05
-1.06926e-05
-1.08529e-05
-1.10121e-05
-1.11716e-05
-1.13323e-05
-1.14951e-05
-1.16609e-05
-1.18305e-05
2.46735e-06
2.06393e-06
1.65718e-06
1.24715e-06
8.33876e-07
4.17464e-07
-1.97611e-09
-4.24342e-07
-8.49553e-07
-1.27753e-06
-1.7082e-06
-2.14147e-06
-2.57725e-06
-3.0154e-06
-3.45577e-06
-3.89813e-06
-4.34222e-06
-4.78765e-06
-5.234e-06
-5.68059e-06
-6.12675e-06
-6.57127e-06
-7.0008e-06
-7.40089e-06
-7.76981e-06
-8.10999e-06
-8.42381e-06
-8.71373e-06
-8.98215e-06
-9.23136e-06
-9.46346e-06
-9.68062e-06
-9.88509e-06
-1.00783e-05
-1.02619e-05
-1.04377e-05
-1.06073e-05
-1.07722e-05
-1.09337e-05
-1.10933e-05
-1.12522e-05
-1.14113e-05
-1.15719e-05
-1.17349e-05
-1.1901e-05
2.51025e-06
2.09562e-06
1.67782e-06
1.257e-06
8.3333e-07
4.07025e-07
-2.16941e-08
-4.52627e-07
-8.85586e-07
-1.32039e-06
-1.75684e-06
-2.19476e-06
-2.63393e-06
-3.07414e-06
-3.51515e-06
-3.95665e-06
-4.39833e-06
-4.83976e-06
-5.28053e-06
-5.71999e-06
-6.15756e-06
-6.59216e-06
-7.0123e-06
-7.40569e-06
-7.77069e-06
-8.10922e-06
-8.42328e-06
-8.71496e-06
-8.98628e-06
-9.2392e-06
-9.47558e-06
-9.69727e-06
-9.90611e-06
-1.01036e-05
-1.02912e-05
-1.04705e-05
-1.06431e-05
-1.08104e-05
-1.09738e-05
-1.11346e-05
-1.1294e-05
-1.14533e-05
-1.16136e-05
-1.17758e-05
-1.19409e-05
2.53098e-06
2.10713e-06
1.68034e-06
1.25082e-06
8.18862e-07
3.84779e-07
-5.11281e-08
-4.88571e-07
-9.2727e-07
-1.36695e-06
-1.80733e-06
-2.24813e-06
-2.68907e-06
-3.12983e-06
-3.57011e-06
-4.00954e-06
-4.44776e-06
-4.88431e-06
-5.31877e-06
-5.7505e-06
-6.17903e-06
-6.60332e-06
-7.01361e-06
-7.39955e-06
-7.75958e-06
-8.09519e-06
-8.4081e-06
-8.70004e-06
-8.97273e-06
-9.22786e-06
-9.46702e-06
-9.69187e-06
-9.90399e-06
-1.01048e-05
-1.02956e-05
-1.04779e-05
-1.06532e-05
-1.08229e-05
-1.09883e-05
-1.11508e-05
-1.13116e-05
-1.14719e-05
-1.16329e-05
-1.17957e-05
-1.19614e-05
2.53829e-06
2.10675e-06
1.67249e-06
1.23583e-06
7.97125e-07
3.56779e-07
-8.48382e-08
-5.27363e-07
-9.7044e-07
-1.41371e-06
-1.85683e-06
-2.29943e-06
-2.74115e-06
-3.18163e-06
-3.62048e-06
-4.05729e-06
-4.49166e-06
-4.92309e-06
-5.35115e-06
-5.77522e-06
-6.19487e-06
-6.60913e-06
-7.00977e-06
-7.38818e-06
-7.74284e-06
-8.07495e-06
-8.38594e-06
-8.67727e-06
-8.95038e-06
-9.20671e-06
-9.44765e-06
-9.6747e-06
-9.88923e-06
-1.00926e-05
-1.0286e-05
-1.04708e-05
-1.06485e-05
-1.08204e-05
-1.09878e-05
-1.11521e-05
-1.13145e-05
-1.14764e-05
-1.16387e-05
-1.18029e-05
-1.19698e-05
2.53797e-06
2.09988e-06
1.65931e-06
1.21663e-06
7.72304e-07
3.26777e-07
-1.19515e-07
-5.66143e-07
-1.01268e-06
-1.45872e-06
-1.90382e-06
-2.34758e-06
-2.78956e-06
-3.22934e-06
-3.66649e-06
-4.10054e-06
-4.53105e-06
-4.95751e-06
-5.37946e-06
-5.79628e-06
-6.20759e-06
-6.61245e-06
-7.00402e-06
-7.37517e-06
-7.72449e-06
-8.05291e-06
-8.36164e-06
-8.65188e-06
-8.92482e-06
-9.18171e-06
-9.42378e-06
-9.65234e-06
-9.86857e-06
-1.0074e-05
-1.02695e-05
-1.04563e-05
-1.0636e-05
-1.08098e-05
-1.09791e-05
-1.11451e-05
-1.13092e-05
-1.14727e-05
-1.16367e-05
-1.18024e-05
-1.1971e-05
2.53366e-06
2.0899e-06
1.64388e-06
1.19605e-06
7.46919e-07
2.96992e-07
-1.53241e-07
-6.03295e-07
-1.05269e-06
-1.50094e-06
-1.94759e-06
-2.39214e-06
-2.83412e-06
-3.27306e-06
-3.70846e-06
-4.13985e-06
-4.56672e-06
-4.98854e-06
-5.40485e-06
-5.81502e-06
-6.2187e-06
-6.61497e-06
-6.9982e-06
-7.3626e-06
-7.70684e-06
-8.03165e-06
-8.33801e-06
-8.62691e-06
-8.89935e-06
-9.15641e-06
-9.39918e-06
-9.62878e-06
-9.84615e-06
-1.00532e-05
-1.02503e-05
-1.04388e-05
-1.06201e-05
-1.07955e-05
-1.09664e-05
-1.1134e-05
-1.12997e-05
-1.14647e-05
-1.16303e-05
-1.17977e-05
-1.19681e-05
2.52758e-06
2.07884e-06
1.62805e-06
1.17572e-06
7.22402e-07
2.68655e-07
-1.84985e-07
-6.37984e-07
-1.08981e-06
-1.53994e-06
-1.98784e-06
-2.433e-06
-2.87488e-06
-3.31296e-06
-3.74673e-06
-4.17565e-06
-4.5992e-06
-5.01683e-06
-5.42805e-06
-5.83224e-06
-6.22904e-06
-6.61758e-06
-6.99327e-06
-7.3515e-06
-7.69103e-06
-8.01243e-06
-8.31648e-06
-8.60398e-06
-8.87574e-06
-9.13272e-06
-9.3759e-06
-9.60612e-06
-9.82442e-06
-1.00326e-05
-1.02311e-05
-1.04208e-05
-1.06034e-05
-1.07802e-05
-1.09525e-05
-1.11214e-05
-1.12885e-05
-1.14549e-05
-1.16219e-05
-1.17909e-05
-1.19629e-05
2.52101e-06
2.06785e-06
1.61283e-06
1.15651e-06
6.99498e-07
2.4238e-07
-2.14261e-07
-6.69849e-07
-1.12381e-06
-1.57557e-06
-2.02456e-06
-2.47022e-06
-2.91199e-06
-3.34929e-06
-3.78158e-06
-4.20829e-06
-4.62888e-06
-5.04276e-06
-5.44945e-06
-5.84831e-06
-6.23899e-06
-6.62063e-06
-6.98957e-06
-7.34224e-06
-7.67751e-06
-7.99577e-06
-8.29764e-06
-8.58375e-06
-8.85477e-06
-9.11152e-06
-9.3549e-06
-9.5854e-06
-9.8046e-06
-1.00136e-05
-1.02131e-05
-1.04038e-05
-1.05875e-05
-1.07653e-05
-1.09387e-05
-1.11087e-05
-1.12769e-05
-1.14445e-05
-1.16128e-05
-1.17831e-05
-1.19567e-05
2.51464e-06
2.05753e-06
1.59873e-06
1.13887e-06
6.78561e-07
2.1844e-07
-2.40876e-07
-6.98769e-07
-1.15463e-06
-1.60784e-06
-2.05781e-06
-2.50393e-06
-2.9456e-06
-3.38222e-06
-3.81322e-06
-4.23798e-06
-4.65595e-06
-5.06654e-06
-5.46923e-06
-5.86338e-06
-6.24866e-06
-6.62418e-06
-6.98712e-06
-7.33483e-06
-7.66628e-06
-7.98171e-06
-8.28158e-06
-8.56638e-06
-8.83665e-06
-9.09309e-06
-9.33652e-06
-9.56717e-06
-9.78712e-06
-9.99678e-06
-1.0197e-05
-1.03884e-05
-1.05729e-05
-1.07516e-05
-1.09258e-05
-1.10968e-05
-1.12659e-05
-1.14345e-05
-1.16038e-05
-1.17753e-05
-1.19502e-05
2.5088e-06
2.04817e-06
1.58602e-06
1.12298e-06
6.59737e-07
1.96935e-07
-2.64768e-07
-7.24723e-07
-1.18229e-06
-1.63681e-06
-2.08767e-06
-2.53421e-06
-2.97583e-06
-3.41187e-06
-3.84175e-06
-4.26482e-06
-4.68052e-06
-5.08822e-06
-5.48741e-06
-5.87745e-06
-6.25798e-06
-6.62814e-06
-6.98578e-06
-7.3291e-06
-7.65716e-06
-7.97007e-06
-8.26814e-06
-8.55173e-06
-8.82129e-06
-9.0774e-06
-9.32081e-06
-9.55162e-06
-9.77199e-06
-9.98219e-06
-1.01829e-05
-1.0375e-05
-1.05601e-05
-1.07394e-05
-1.09143e-05
-1.1086e-05
-1.12558e-05
-1.14251e-05
-1.15953e-05
-1.17678e-05
-1.19437e-05
2.50357e-06
2.03976e-06
1.57458e-06
1.1087e-06
6.42813e-07
1.77601e-07
-2.86252e-07
-7.48066e-07
-1.20717e-06
-1.66289e-06
-2.11456e-06
-2.56152e-06
-3.00311e-06
-3.43868e-06
-3.86759e-06
-4.28921e-06
-4.70293e-06
-5.10812e-06
-5.50424e-06
-5.89066e-06
-6.26702e-06
-6.63243e-06
-6.98535e-06
-7.32475e-06
-7.64979e-06
-7.96046e-06
-8.25692e-06
-8.53943e-06
-8.80833e-06
-9.06412e-06
-9.30748e-06
-9.53845e-06
-9.7591e-06
-9.96967e-06
-1.01707e-05
-1.03633e-05
-1.05489e-05
-1.07287e-05
-1.09041e-05
-1.10762e-05
-1.12466e-05
-1.14166e-05
-1.15875e-05
-1.17607e-05
-1.19375e-05