/*--------------------------------*- C++ -*----------------------------------*\
| =========                 |                                                 |
| \\      /  F ield         | OpenFOAM: The Open Source CFD Toolbox           |
|  \\    /   O peration     | Version:  2312                                  |
|   \\  /    A nd           | Website:  www.openfoam.com                      |
|    \\/     M anipulation  |                                                 |
\*---------------------------------------------------------------------------*/
FoamFile
{
    version     2.0;
    format      ascii;
    arch        "LSB;label=32;scalar=64";
    class       volScalarField;
    location    "121.25";
    object      p;
}
// * * * * * * * * * * * * * * * * * * * * * * * * * * * * * * * * * * * * * //

dimensions      [0 2 -2 0 0 0 0];

internalField   nonuniform List<scalar> 
4800
(
2.53282e-13
-1.30462e-06
-2.32657e-06
-3.14518e-06
-3.81498e-06
-4.36821e-06
-4.84233e-06
-5.25238e-06
-5.60965e-06
-5.92692e-06
-6.21245e-06
-6.46762e-06
-6.68732e-06
-7.10414e-06
-8.63281e-06
1.69359e-08
-1.28647e-06
-2.30824e-06
-3.12733e-06
-3.79834e-06
-4.35358e-06
-4.83057e-06
-5.24462e-06
-5.60738e-06
-5.93351e-06
-6.23605e-06
-6.52924e-06
-6.82681e-06
-7.2343e-06
-7.98637e-06
3.44573e-08
-1.2676e-06
-2.28917e-06
-3.10888e-06
-3.7813e-06
-4.33831e-06
-4.81688e-06
-5.23423e-06
-5.60149e-06
-5.93395e-06
-6.246e-06
-6.55262e-06
-6.86148e-06
-7.18103e-06
-7.48882e-06
5.17415e-08
-1.24852e-06
-2.26954e-06
-3.08953e-06
-3.76288e-06
-4.32173e-06
-4.80025e-06
-5.21958e-06
-5.58896e-06
-5.92239e-06
-6.23216e-06
-6.52513e-06
-6.79349e-06
-7.00769e-06
-7.10121e-06
7.02022e-08
-1.22772e-06
-2.24771e-06
-3.06752e-06
-3.74112e-06
-4.30164e-06
-4.77875e-06
-5.19744e-06
-5.5655e-06
-5.8933e-06
-6.18888e-06
-6.4502e-06
-6.65912e-06
-6.77922e-06
-6.75859e-06
9.11904e-08
-1.20382e-06
-2.22224e-06
-3.04128e-06
-3.71426e-06
-4.27513e-06
-4.75018e-06
-5.1644e-06
-5.52596e-06
-5.84061e-06
-6.11132e-06
-6.33037e-06
-6.47787e-06
-6.52595e-06
-6.44836e-06
1.16887e-07
-1.17472e-06
-2.19094e-06
-3.00839e-06
-3.6796e-06
-4.23808e-06
-4.70985e-06
-5.11592e-06
-5.46473e-06
-5.75874e-06
-5.99691e-06
-6.17023e-06
-6.26363e-06
-6.26287e-06
-6.16148e-06
1.51329e-07
-1.13659e-06
-2.14997e-06
-2.96478e-06
-3.63268e-06
-4.18658e-06
-4.65145e-06
-5.04547e-06
-5.37577e-06
-5.64333e-06
-5.84568e-06
-5.9763e-06
-6.02772e-06
-5.99747e-06
-5.89008e-06
2.01092e-07
-1.08315e-06
-2.0931e-06
-2.90404e-06
-3.56678e-06
-4.11356e-06
-4.56775e-06
-4.94542e-06
-5.25293e-06
-5.49123e-06
-5.65906e-06
-5.7544e-06
-5.77696e-06
-5.73192e-06
-5.6283e-06
2.75525e-07
-1.00528e-06
-2.01122e-06
-2.817e-06
-3.47251e-06
-4.00944e-06
-4.44961e-06
-4.80763e-06
-5.09025e-06
-5.29993e-06
-5.43819e-06
-5.5077e-06
-5.51335e-06
-5.46418e-06
-5.37017e-06
3.86321e-07
-8.91083e-07
-1.89227e-06
-2.69151e-06
-3.33778e-06
-3.86238e-06
-4.28624e-06
-4.62323e-06
-4.88167e-06
-5.06648e-06
-5.18241e-06
-5.23579e-06
-5.23448e-06
-5.18882e-06
-5.10813e-06
5.46909e-07
-7.26386e-07
-1.72164e-06
-2.51284e-06
-3.14811e-06
-3.65872e-06
-4.06543e-06
-4.3826e-06
-4.62037e-06
-4.78639e-06
-4.88818e-06
-4.93436e-06
-4.93404e-06
-4.89739e-06
-4.83254e-06
7.72748e-07
-4.94571e-07
-1.48217e-06
-2.26379e-06
-2.88694e-06
-3.38315e-06
-3.7739e-06
-4.07497e-06
-4.29789e-06
-4.45257e-06
-4.54843e-06
-4.59519e-06
-4.60214e-06
-4.5786e-06
-4.53149e-06
1.0824e-06
-1.75532e-07
-1.15323e-06
-1.92398e-06
-2.53485e-06
-3.01798e-06
-3.39627e-06
-3.68674e-06
-3.90229e-06
-4.05383e-06
-4.15161e-06
-4.20571e-06
-4.22509e-06
-4.21805e-06
-4.19045e-06
1.49771e-06
2.54817e-07
-7.10067e-07
-1.469e-06
-2.06864e-06
-2.54168e-06
-2.91247e-06
-3.19934e-06
-3.41587e-06
-3.5727e-06
-3.67995e-06
-3.74756e-06
-3.78407e-06
-3.79688e-06
-3.79102e-06
2.04197e-06
8.23045e-07
-1.24905e-07
-8.71317e-07
-1.46183e-06
-1.92924e-06
-2.29889e-06
-2.58971e-06
-2.81542e-06
-2.98563e-06
-3.10953e-06
-3.19658e-06
-3.25494e-06
-3.29133e-06
-3.31021e-06
2.73583e-06
1.55407e-06
6.29383e-07
-1.03331e-07
-6.87543e-07
-1.15497e-06
-1.53077e-06
-1.83351e-06
-2.07624e-06
-2.26736e-06
-2.4149e-06
-2.52754e-06
-2.61296e-06
-2.6773e-06
-2.72471e-06
3.59223e-06
2.46481e-06
1.5723e-06
8.56455e-07
2.76743e-07
-1.96393e-07
-5.86333e-07
-9.08464e-07
-1.17574e-06
-1.39517e-06
-1.5737e-06
-1.71925e-06
-1.83874e-06
-1.93752e-06
-2.01928e-06
4.61054e-06
3.55706e-06
2.7072e-06
2.01225e-06
1.4389e-06
9.59696e-07
5.5082e-07
2.01265e-07
-9.6722e-08
-3.49659e-07
-5.64991e-07
-7.50237e-07
-9.11309e-07
-1.05247e-06
-1.17678e-06
5.76572e-06
4.80537e-06
4.00856e-06
3.33827e-06
2.76924e-06
2.28202e-06
1.85917e-06
1.485e-06
1.15645e-06
8.68781e-07
6.14472e-07
3.86609e-07
1.80495e-07
-7.082e-09
-1.78921e-07
6.94533e-06
6.08479e-06
5.34825e-06
4.70755e-06
4.14059e-06
3.63747e-06
3.19008e-06
2.79002e-06
2.42932e-06
2.10216e-06
1.80191e-06
1.52379e-06
1.26508e-06
1.02358e-06
7.96819e-07
7.96106e-06
7.19031e-06
6.50813e-06
5.89853e-06
5.34901e-06
4.84126e-06
4.36509e-06
3.93151e-06
3.53984e-06
3.17731e-06
2.83559e-06
2.51209e-06
2.20581e-06
1.91521e-06
1.63794e-06
8.73092e-06
8.02664e-06
7.38559e-06
6.79572e-06
6.24663e-06
5.7309e-06
5.25389e-06
4.80945e-06
4.39416e-06
4.00109e-06
3.62556e-06
3.26582e-06
2.9208e-06
2.589e-06
2.26848e-06
9.28921e-06
8.63606e-06
8.0271e-06
7.45559e-06
6.91671e-06
6.40847e-06
5.92819e-06
5.4725e-06
5.0374e-06
4.61974e-06
4.21716e-06
3.82802e-06
3.45094e-06
3.08462e-06
2.72771e-06
9.68298e-06
9.07009e-06
8.4889e-06
7.93615e-06
7.40882e-06
6.90446e-06
6.42074e-06
5.9549e-06
5.50474e-06
5.06862e-06
4.64488e-06
4.23199e-06
3.82876e-06
3.43427e-06
3.04763e-06
9.95182e-06
9.37133e-06
8.81362e-06
8.27642e-06
7.75803e-06
7.25629e-06
6.7699e-06
6.29698e-06
5.83623e-06
5.38639e-06
4.94614e-06
4.51439e-06
4.09034e-06
3.67339e-06
3.26293e-06
1.01289e-05
9.57428e-06
9.03538e-06
8.51072e-06
7.99937e-06
7.5011e-06
7.01372e-06
6.53626e-06
6.06781e-06
5.60742e-06
5.15427e-06
4.7077e-06
4.2672e-06
3.83242e-06
3.40297e-06
1.0241e-05
9.70726e-06
9.18381e-06
8.67005e-06
8.16566e-06
7.67029e-06
7.18264e-06
6.70196e-06
6.22764e-06
5.75912e-06
5.29593e-06
4.83772e-06
4.38421e-06
3.93526e-06
3.49068e-06
1.03093e-05
9.79273e-06
9.28223e-06
8.77785e-06
8.27951e-06
7.78693e-06
7.29934e-06
6.81634e-06
6.33757e-06
5.86275e-06
5.39167e-06
4.92422e-06
4.46032e-06
4.00001e-06
3.5433e-06
1.03495e-05
9.84713e-06
9.34759e-06
8.85117e-06
8.35803e-06
7.868e-06
7.38073e-06
6.89604e-06
6.41381e-06
5.93398e-06
5.45656e-06
4.98162e-06
4.50927e-06
4.03972e-06
3.57313e-06
1.03723e-05
9.88196e-06
9.3917e-06
8.90211e-06
8.41345e-06
7.9257e-06
7.43881e-06
6.95281e-06
6.46777e-06
5.98382e-06
5.50116e-06
5.02001e-06
4.54064e-06
4.06341e-06
3.5886e-06
1.0385e-05
9.90496e-06
9.42261e-06
8.93889e-06
8.45405e-06
7.96826e-06
7.48174e-06
6.99463e-06
6.50721e-06
6.01977e-06
5.53265e-06
5.04622e-06
4.56088e-06
4.07712e-06
3.59532e-06
1.03924e-05
9.9211e-06
9.44557e-06
8.96684e-06
8.48523e-06
8.00112e-06
7.51489e-06
7.02679e-06
6.53728e-06
6.04679e-06
5.55577e-06
5.06475e-06
4.57423e-06
4.08479e-06
3.59695e-06
1.03972e-05
9.93347e-06
9.46381e-06
8.98934e-06
8.51048e-06
8.02774e-06
7.54172e-06
7.05268e-06
6.56128e-06
6.06805e-06
5.57358e-06
5.07849e-06
4.58338e-06
4.08894e-06
3.59577e-06
1.0401e-05
9.94384e-06
9.47924e-06
9.00844e-06
8.5319e-06
8.05026e-06
7.56438e-06
7.07442e-06
6.58127e-06
6.08556e-06
5.58798e-06
5.08923e-06
4.59003e-06
4.09113e-06
3.59321e-06
1.04046e-05
9.95317e-06
9.49295e-06
9.0253e-06
8.55067e-06
8.07e-06
7.58411e-06
7.09326e-06
6.59849e-06
6.10051e-06
5.6001e-06
5.09806e-06
4.59517e-06
4.09226e-06
3.59009e-06
1.04083e-05
9.96187e-06
9.50544e-06
9.04047e-06
8.56743e-06
8.08764e-06
7.60159e-06
7.10988e-06
6.61361e-06
6.11356e-06
5.6106e-06
5.10558e-06
4.59938e-06
4.09288e-06
3.5869e-06
1.04123e-05
9.97022e-06
9.51705e-06
9.05437e-06
8.58263e-06
8.1036e-06
7.61734e-06
7.12482e-06
6.62715e-06
6.12523e-06
5.61995e-06
5.11224e-06
4.60302e-06
4.09325e-06
3.58381e-06
1.04168e-05
9.97874e-06
9.52857e-06
9.06797e-06
8.5975e-06
8.11896e-06
7.63246e-06
7.13912e-06
6.64009e-06
6.13637e-06
5.62887e-06
5.11858e-06
4.60647e-06
4.09355e-06
3.58077e-06
1.04216e-05
9.98749e-06
9.54032e-06
9.08173e-06
8.61247e-06
8.13433e-06
7.64757e-06
7.15339e-06
6.65298e-06
6.14727e-06
5.63743e-06
5.12454e-06
4.60965e-06
4.09382e-06
3.57798e-06
-9.80206e-06
-7.54067e-06
-6.16204e-06
-5.23585e-06
-4.50101e-06
-3.94701e-06
-3.53035e-06
-3.2228e-06
-3.00543e-06
-2.86287e-06
-2.78214e-06
-2.75146e-06
-2.75969e-06
-2.79616e-06
-2.85009e-06
-2.91131e-06
-2.9701e-06
-3.01978e-06
-3.06005e-06
-3.09729e-06
-3.14989e-06
-3.22622e-06
-3.28736e-06
-3.2299e-06
-2.96725e-06
-2.45927e-06
-1.69009e-06
-6.67264e-07
5.93133e-07
2.07373e-06
3.75502e-06
5.61444e-06
7.62412e-06
9.74951e-06
1.19496e-05
1.41771e-05
1.63779e-05
1.84905e-05
2.04399e-05
2.21296e-05
2.34167e-05
2.40945e-05
2.3702e-05
2.18294e-05
1.68326e-05
-8.24483e-06
-7.03822e-06
-5.97875e-06
-5.14614e-06
-4.45556e-06
-3.91629e-06
-3.50536e-06
-3.2009e-06
-2.98608e-06
-2.84632e-06
-2.76878e-06
-2.74167e-06
-2.75372e-06
-2.79416e-06
-2.85213e-06
-2.91737e-06
-2.98012e-06
-3.03351e-06
-3.07681e-06
-3.11544e-06
-3.16628e-06
-3.23576e-06
-3.28466e-06
-3.21308e-06
-2.93756e-06
-2.41941e-06
-1.64293e-06
-6.15733e-07
6.45614e-07
2.12294e-06
3.79544e-06
5.63884e-06
7.623e-06
9.71052e-06
1.18567e-05
1.40091e-05
1.61065e-05
1.80762e-05
1.98261e-05
2.12291e-05
2.20862e-05
2.20739e-05
2.05422e-05
1.67273e-05
9.43644e-06
-7.42852e-06
-6.65284e-06
-5.79209e-06
-5.04569e-06
-4.4027e-06
-3.88377e-06
-3.4815e-06
-3.18144e-06
-2.96961e-06
-2.83267e-06
-2.75821e-06
-2.73447e-06
-2.75016e-06
-2.79439e-06
-2.85624e-06
-2.92539e-06
-2.99199e-06
-3.049e-06
-3.09524e-06
-3.13504e-06
-3.18359e-06
-3.24518e-06
-3.28023e-06
-3.19281e-06
-2.90308e-06
-2.37409e-06
-1.59035e-06
-5.59648e-07
7.00764e-07
2.17167e-06
3.83065e-06
5.65122e-06
7.60047e-06
9.63741e-06
1.17127e-05
1.3768e-05
1.57334e-05
1.75244e-05
1.90314e-05
2.01036e-05
2.05109e-05
1.9904e-05
1.77164e-05
1.3538e-05
7.17481e-06
-6.9209e-06
-6.34209e-06
-5.63841e-06
-4.95935e-06
-4.36127e-06
-3.86339e-06
-3.46946e-06
-3.1727e-06
-2.96236e-06
-2.82665e-06
-2.7538e-06
-2.7322e-06
-2.75051e-06
-2.79776e-06
-2.86292e-06
-2.93555e-06
-3.00572e-06
-3.06614e-06
-3.11509e-06
-3.15572e-06
-3.20136e-06
-3.25386e-06
-3.27319e-06
-3.16784e-06
-2.86197e-06
-2.32055e-06
-1.52844e-06
-4.93767e-07
7.65176e-07
2.2278e-06
3.86959e-06
5.66135e-06
7.56668e-06
9.54029e-06
1.15275e-05
1.34631e-05
1.52688e-05
1.68489e-05
1.80816e-05
1.88057e-05
1.87982e-05
1.77681e-05
1.53547e-05
1.13762e-05
6.11543e-06
-6.5391e-06
-6.07848e-06
-5.49644e-06
-4.8973e-06
-4.34e-06
-3.86275e-06
-3.47621e-06
-3.18095e-06
-2.96972e-06
-2.8327e-06
-2.75906e-06
-2.73749e-06
-2.75666e-06
-2.8055e-06
-2.87284e-06
-2.94813e-06
-3.02124e-06
-3.08462e-06
-3.13593e-06
-3.17698e-06
-3.21893e-06
-3.26105e-06
-3.26277e-06
-3.13758e-06
-2.81408e-06
-2.25942e-06
-1.45887e-06
-4.21149e-07
8.34088e-07
2.28454e-06
3.90322e-06
5.65774e-06
7.50779e-06
9.40339e-06
1.12843e-05
1.30788e-05
1.47015e-05
1.60496e-05
1.69976e-05
1.73917e-05
1.70458e-05
1.576e-05
1.33609e-05
9.8485e-06
5.5652e-06
-6.23032e-06
-5.85355e-06
-5.36469e-06
-4.84644e-06
-4.33781e-06
-3.88296e-06
-3.50504e-06
-3.21061e-06
-2.9964e-06
-2.85533e-06
-2.77801e-06
-2.7537e-06
-2.77123e-06
-2.81954e-06
-2.88733e-06
-2.96388e-06
-3.03887e-06
-3.10437e-06
-3.15736e-06
-3.19809e-06
-3.23544e-06
-3.26573e-06
-3.24783e-06
-3.10093e-06
-2.7586e-06
-2.19043e-06
-1.38216e-06
-3.43342e-07
9.04551e-07
2.33726e-06
3.92485e-06
5.63151e-06
7.41275e-06
9.21389e-06
1.09696e-05
1.2603e-05
1.40245e-05
1.51302e-05
1.58014e-05
1.59068e-05
1.53123e-05
1.39084e-05
1.16536e-05
8.65336e-06
5.2139e-06
-5.96096e-06
-5.64991e-06
-5.24519e-06
-4.79397e-06
-4.34191e-06
-3.91825e-06
-3.55412e-06
-3.26235e-06
-3.04468e-06
-2.89767e-06
-2.81401e-06
-2.78393e-06
-2.79686e-06
-2.84195e-06
-2.90785e-06
-2.98368e-06
-3.05896e-06
-3.12529e-06
-3.17889e-06
-3.2183e-06
-3.24983e-06
-3.26661e-06
-3.22693e-06
-3.05649e-06
-2.69444e-06
-2.11297e-06
-1.29839e-06
-2.61465e-07
9.74189e-07
2.38199e-06
3.92862e-06
5.57481e-06
7.27196e-06
8.96116e-06
1.05732e-05
1.20286e-05
1.32377e-05
1.41022e-05
1.45195e-05
1.439e-05
1.36329e-05
1.22106e-05
1.01575e-05
7.61099e-06
4.81386e-06
-5.71167e-06
-5.45369e-06
-5.12091e-06
-4.73863e-06
-4.3407e-06
-3.95764e-06
-3.61531e-06
-3.33126e-06
-3.1122e-06
-2.95944e-06
-2.86804e-06
-2.82972e-06
-2.83513e-06
-2.87408e-06
-2.93537e-06
-3.00808e-06
-3.08159e-06
-3.14703e-06
-3.19979e-06
-3.23651e-06
-3.26071e-06
-3.26217e-06
-3.19851e-06
-3.00292e-06
-2.62067e-06
-2.02699e-06
-1.20854e-06
-1.77937e-07
1.03926e-06
2.413e-06
3.9066e-06
5.47777e-06
7.07419e-06
8.63381e-06
1.00856e-05
1.13506e-05
1.23448e-05
1.29805e-05
1.3178e-05
1.28714e-05
1.20248e-05
1.06484e-05
8.81047e-06
6.64334e-06
4.32954e-06
-5.47265e-06
-5.25852e-06
-4.98607e-06
-4.66827e-06
-4.32751e-06
-3.98898e-06
-3.67651e-06
-3.40713e-06
-3.19131e-06
-3.03582e-06
-2.93739e-06
-2.88965e-06
-2.88541e-06
-2.91567e-06
-2.96968e-06
-3.03671e-06
-3.10615e-06
-3.16869e-06
-3.21886e-06
-3.25129e-06
-3.2665e-06
-3.25078e-06
-3.16109e-06
-2.9392e-06
-2.53709e-06
-1.93353e-06
-1.11551e-06
-9.70583e-08
1.09409e-06
2.42198e-06
3.84817e-06
5.32797e-06
6.80633e-06
8.21975e-06
9.49803e-06
1.05666e-05
1.13503e-05
1.17805e-05
1.17985e-05
1.13693e-05
1.04898e-05
9.1958e-06
7.56471e-06
5.70965e-06
3.76459e-06
-5.23698e-06
-5.0601e-06
-4.83834e-06
-4.57804e-06
-4.29309e-06
-4.00209e-06
-3.72495e-06
-3.47603e-06
-3.27063e-06
-3.1181e-06
-3.01545e-06
-2.95875e-06
-2.94406e-06
-2.96405e-06
-3.00873e-06
-3.06782e-06
-3.13102e-06
-3.18865e-06
-3.23444e-06
-3.26092e-06
-3.2655e-06
-3.23099e-06
-3.11379e-06
-2.86523e-06
-2.44519e-06
-1.83608e-06
-1.0255e-06
-2.3853e-08
1.13039e-06
2.39726e-06
3.73953e-06
5.11064e-06
6.454e-06
7.70697e-06
8.80338e-06
9.67682e-06
1.02651e-05
1.05166e-05
1.03957e-05
9.89073e-06
9.01824e-06
7.82448e-06
6.38237e-06
4.7831e-06
3.12434e-06
-4.99706e-06
-4.85283e-06
-4.67424e-06
-4.46435e-06
-4.23118e-06
-3.98862e-06
-3.7491e-06
-3.52518e-06
-3.3385e-06
-3.19541e-06
-3.09225e-06
-3.02861e-06
-3.00439e-06
-3.01397e-06
-3.04836e-06
-3.09808e-06
-3.15343e-06
-3.20453e-06
-3.24443e-06
-3.26362e-06
-3.25632e-06
-3.202e-06
-3.05674e-06
-2.78302e-06
-2.34851e-06
-1.74548e-06
-9.42956e-07
3.43689e-08
1.13481e-06
2.32287e-06
3.56388e-06
4.80908e-06
6.0023e-06
7.08451e-06
7.99642e-06
8.68257e-06
9.09503e-06
9.19905e-06
8.97717e-06
8.43339e-06
7.59409e-06
6.5062e-06
5.23259e-06
3.84436e-06
2.41295e-06
-4.7434e-06
-4.62867e-06
-4.48768e-06
-4.3217e-06
-4.13513e-06
-3.93692e-06
-3.73604e-06
-3.54633e-06
-3.38421e-06
-3.2536e-06
-3.15352e-06
-3.08771e-06
-3.05723e-06
-3.05804e-06
-3.0827e-06
-3.12288e-06
-3.16976e-06
-3.21356e-06
-3.24673e-06
-3.25805e-06
-3.23844e-06
-3.1649e-06
-2.99176e-06
-2.69639e-06
-2.26203e-06
-1.66697e-06
-8.72652e-07
6.05096e-08
1.08715e-06
2.17941e-06
3.30212e-06
4.40571e-06
5.43712e-06
6.34346e-06
7.07445e-06
7.58694e-06
7.84744e-06
7.83471e-06
7.54435e-06
6.98933e-06
6.19885e-06
5.2154e-06
4.09043e-06
2.8784e-06
1.63187e-06
-4.46432e-06
-4.37708e-06
-4.26974e-06
-4.14271e-06
-3.99847e-06
-3.84264e-06
-3.68338e-06
-3.53004e-06
-3.39276e-06
-3.27732e-06
-3.18687e-06
-3.12495e-06
-3.09277e-06
-3.08793e-06
-3.105e-06
-3.13704e-06
-3.17625e-06
-3.21325e-06
-3.24001e-06
-3.2442e-06
-3.21317e-06
-3.12355e-06
-2.92498e-06
-2.61792e-06
-2.19339e-06
-1.60033e-06
-8.40104e-07
2.73422e-08
9.63699e-07
1.9453e-06
2.93411e-06
3.88355e-06
4.74681e-06
5.47876e-06
6.03808e-06
6.39587e-06
6.52927e-06
6.42782e-06
6.09531e-06
5.54845e-06
4.81497e-06
3.93076e-06
2.93654e-06
1.87358e-06
7.80774e-07
-4.14571e-06
-4.085e-06
-4.00891e-06
-3.91762e-06
-3.81253e-06
-3.6973e-06
-3.57753e-06
-3.45969e-06
-3.35065e-06
-3.2565e-06
-3.18174e-06
-3.12945e-06
-3.10089e-06
-3.09506e-06
-3.10844e-06
-3.13555e-06
-3.16969e-06
-3.20216e-06
-3.2245e-06
-3.22407e-06
-3.18513e-06
-3.08411e-06
-2.8718e-06
-2.55675e-06
-2.1416e-06
-1.57796e-06
-8.776e-07
-9.08714e-08
7.42577e-07
1.59856e-06
2.44054e-06
3.2282e-06
3.9228e-06
4.49134e-06
4.89225e-06
5.11659e-06
5.14749e-06
4.98174e-06
4.62753e-06
4.10177e-06
3.42846e-06
2.63656e-06
1.75747e-06
8.22254e-07
-1.40182e-07
-3.77003e-06
-3.73608e-06
-3.69028e-06
-3.63288e-06
-3.56468e-06
-3.48793e-06
-3.4063e-06
-3.32439e-06
-3.24727e-06
-3.17998e-06
-3.1266e-06
-3.08996e-06
-3.0715e-06
-3.07112e-06
-3.08674e-06
-3.11425e-06
-3.14813e-06
-3.18058e-06
-3.20285e-06
-3.20258e-06
-3.16245e-06
-3.05798e-06
-2.8485e-06
-2.5357e-06
-2.14018e-06
-1.62567e-06
-1.00559e-06
-3.17409e-07
3.99577e-07
1.11764e-06
1.80571e-06
2.43009e-06
2.95918e-06
3.36628e-06
3.64206e-06
3.75772e-06
3.70926e-06
3.50012e-06
3.13986e-06
2.64347e-06
2.03046e-06
1.32337e-06
5.46021e-07
-2.78394e-07
-1.12834e-06
-3.31547e-06
-3.31003e-06
-3.2953e-06
-3.27172e-06
-3.23985e-06
-3.20112e-06
-3.15799e-06
-3.11371e-06
-3.07194e-06
-3.03638e-06
-3.0103e-06
-2.99623e-06
-2.9957e-06
-3.00904e-06
-3.03511e-06
-3.07075e-06
-3.11158e-06
-3.15114e-06
-3.18073e-06
-3.18859e-06
-3.15707e-06
-3.06211e-06
-2.87005e-06
-2.58235e-06
-2.22144e-06
-1.77245e-06
-1.24646e-06
-6.7386e-07
-8.82728e-08
4.84392e-07
1.01869e-06
1.48774e-06
1.86947e-06
2.14709e-06
2.30493e-06
2.33062e-06
2.22324e-06
1.98791e-06
1.63332e-06
1.1714e-06
6.17222e-07
-1.2132e-08
-6.98884e-07
-1.42586e-06
-2.17705e-06
-2.7597e-06
-2.78586e-06
-2.80471e-06
-2.81685e-06
-2.82283e-06
-2.8237e-06
-2.82113e-06
-2.81735e-06
-2.8149e-06
-2.81645e-06
-2.82444e-06
-2.841e-06
-2.86752e-06
-2.90451e-06
-2.95151e-06
-3.00609e-06
-3.06438e-06
-3.1204e-06
-3.1673e-06
-3.19497e-06
-3.18578e-06
-3.11724e-06
-2.96195e-06
-2.72175e-06
-2.41676e-06
-2.0505e-06
-1.63252e-06
-1.18575e-06
-7.37525e-07
-3.1053e-07
7.49734e-08
4.02729e-07
6.56203e-07
8.22271e-07
8.86036e-07
8.42924e-07
6.95504e-07
4.48703e-07
1.08893e-07
-3.15156e-07
-8.12201e-07
-1.36956e-06
-1.97421e-06
-2.61363e-06
-3.27603e-06
-2.08916e-06
-2.15137e-06
-2.20769e-06
-2.25898e-06
-2.30602e-06
-2.34967e-06
-2.39116e-06
-2.432e-06
-2.47394e-06
-2.5189e-06
-2.56861e-06
-2.62479e-06
-2.68837e-06
-2.76008e-06
-2.83969e-06
-2.92492e-06
-3.01588e-06
-3.10289e-06
-3.17905e-06
-3.23995e-06
-3.26988e-06
-3.24813e-06
-3.15181e-06
-2.98275e-06
-2.75856e-06
-2.4904e-06
-2.18933e-06
-1.87176e-06
-1.55697e-06
-1.26643e-06
-1.01728e-06
-8.16387e-07
-6.68983e-07
-5.94858e-07
-6.03759e-07
-6.952e-07
-8.65635e-07
-1.11191e-06
-1.43006e-06
-1.81385e-06
-2.25505e-06
-2.74453e-06
-3.27305e-06
-3.8317e-06
-4.41192e-06
-1.28968e-06
-1.39564e-06
-1.4965e-06
-1.59349e-06
-1.68766e-06
-1.77996e-06
-1.87138e-06
-1.96305e-06
-2.05622e-06
-2.15228e-06
-2.25248e-06
-2.35805e-06
-2.46988e-06
-2.58795e-06
-2.71303e-06
-2.84334e-06
-2.97418e-06
-3.10904e-06
-3.23823e-06
-3.34868e-06
-3.43457e-06
-3.481e-06
-3.46692e-06
-3.39172e-06
-3.26924e-06
-3.11194e-06
-2.93161e-06
-2.74124e-06
-2.55361e-06
-2.38369e-06
-2.24247e-06
-2.14128e-06
-2.08483e-06
-2.08529e-06
-2.14619e-06
-2.26607e-06
-2.44396e-06
-2.67923e-06
-2.96955e-06
-3.31035e-06
-3.69574e-06
-4.1195e-06
-4.57541e-06
-5.05731e-06
-5.55909e-06
-3.41442e-07
-4.99645e-07
-6.54742e-07
-8.07387e-07
-9.58548e-07
-1.10923e-06
-1.2604e-06
-1.41297e-06
-1.56789e-06
-1.72612e-06
-1.88861e-06
-2.05609e-06
-2.22937e-06
-2.40843e-06
-2.59346e-06
-2.78418e-06
-2.97622e-06
-3.17252e-06
-3.3654e-06
-3.5436e-06
-3.70411e-06
-3.83737e-06
-3.92418e-06
-3.95904e-06
-3.95096e-06
-3.91141e-06
-3.85017e-06
-3.77715e-06
-3.70713e-06
-3.6471e-06
-3.5968e-06
-3.56367e-06
-3.57119e-06
-3.62334e-06
-3.71575e-06
-3.84713e-06
-4.01959e-06
-4.23445e-06
-4.49035e-06
-4.78409e-06
-5.11189e-06
-5.46994e-06
-5.85441e-06
-6.26124e-06
-6.68619e-06
5.78572e-07
3.63758e-07
1.51042e-07
-6.03181e-08
-2.7135e-07
-4.83064e-07
-6.96348e-07
-9.11981e-07
-1.13069e-06
-1.35317e-06
-1.58013e-06
-1.81218e-06
-2.04984e-06
-2.29329e-06
-2.54258e-06
-2.79706e-06
-3.05509e-06
-3.31537e-06
-3.57386e-06
-3.82495e-06
-4.06447e-06
-4.28598e-06
-4.47121e-06
-4.60923e-06
-4.70484e-06
-4.76703e-06
-4.80401e-06
-4.82446e-06
-4.83815e-06
-4.84945e-06
-4.87001e-06
-4.90567e-06
-4.96468e-06
-5.04757e-06
-5.15366e-06
-5.28517e-06
-5.44513e-06
-5.63478e-06
-5.85344e-06
-6.09947e-06
-6.37106e-06
-6.66623e-06
-6.98277e-06
-7.31816e-06
-7.6697e-06
1.36786e-06
1.09969e-06
8.32229e-07
5.65034e-07
2.97266e-07
2.80357e-08
-2.43415e-07
-5.17706e-07
-7.95389e-07
-1.07699e-06
-1.36302e-06
-1.65393e-06
-1.95007e-06
-2.25157e-06
-2.55827e-06
-2.86965e-06
-3.1845e-06
-3.50128e-06
-3.81777e-06
-4.13037e-06
-4.43497e-06
-4.72688e-06
-4.9879e-06
-5.20332e-06
-5.37539e-06
-5.51113e-06
-5.61882e-06
-5.70685e-06
-5.78161e-06
-5.85141e-06
-5.91977e-06
-5.99802e-06
-6.08671e-06
-6.1859e-06
-6.29831e-06
-6.4273e-06
-6.57504e-06
-6.74235e-06
-6.92935e-06
-7.13581e-06
-7.36119e-06
-7.60466e-06
-7.86507e-06
-8.14106e-06
-8.43113e-06
1.95393e-06
1.64036e-06
1.32658e-06
1.01223e-06
6.96675e-07
3.7924e-07
5.93787e-08
-2.63344e-07
-5.89307e-07
-9.18867e-07
-1.25237e-06
-1.59008e-06
-1.93219e-06
-2.27868e-06
-2.62931e-06
-2.98358e-06
-3.34055e-06
-3.69895e-06
-4.05695e-06
-4.41172e-06
-4.75991e-06
-5.09796e-06
-5.40772e-06
-5.67273e-06
-5.89407e-06
-6.07841e-06
-6.23303e-06
-6.36481e-06
-6.4792e-06
-6.58353e-06
-6.68398e-06
-6.78459e-06
-6.88644e-06
-6.99218e-06
-7.10537e-06
-7.22871e-06
-7.36376e-06
-7.51164e-06
-7.6732e-06
-7.84895e-06
-8.03903e-06
-8.24324e-06
-8.46114e-06
-8.69212e-06
-8.93539e-06
2.37573e-06
2.0241e-06
1.6717e-06
1.31828e-06
9.63384e-07
6.06602e-07
2.47605e-07
-1.13849e-07
-4.77971e-07
-8.44948e-07
-1.21495e-06
-1.58807e-06
-1.96433e-06
-2.34359e-06
-2.72555e-06
-3.10968e-06
-3.49514e-06
-3.88073e-06
-4.26482e-06
-4.6452e-06
-5.01925e-06
-5.38397e-06
-5.72172e-06
-6.01605e-06
-6.2677e-06
-6.48276e-06
-6.66737e-06
-6.82725e-06
-6.96834e-06
-7.09646e-06
-7.21597e-06
-7.32947e-06
-7.43998e-06
-7.5508e-06
-7.66466e-06
-7.78364e-06
-7.90945e-06
-8.04356e-06
-8.18718e-06
-8.34116e-06
-8.50602e-06
-8.68206e-06
-8.86935e-06
-9.0678e-06
-9.27719e-06
2.66505e-06
2.28243e-06
1.8988e-06
1.51401e-06
1.12783e-06
7.40069e-07
3.50607e-07
-4.06148e-08
-4.33643e-07
-8.28501e-07
-1.22519e-06
-1.62366e-06
-2.02378e-06
-2.42529e-06
-2.8278e-06
-3.23073e-06
-3.63326e-06
-4.03428e-06
-4.43241e-06
-4.82583e-06
-5.2124e-06
-5.58947e-06
-5.94062e-06
-6.25038e-06
-6.51936e-06
-6.75307e-06
-6.9568e-06
-7.13551e-06
-7.29431e-06
-7.43796e-06
-7.56974e-06
-7.69285e-06
-7.81056e-06
-7.92558e-06
-8.04017e-06
-8.1564e-06
-8.27616e-06
-8.40107e-06
-8.53247e-06
-8.67142e-06
-8.81877e-06
-8.97516e-06
-9.14103e-06
-9.31667e-06
-9.50224e-06
2.85577e-06
2.44839e-06
2.03998e-06
1.63056e-06
1.22006e-06
8.0851e-07
3.95967e-07
-1.74671e-08
-4.31688e-07
-8.46572e-07
-1.26198e-06
-1.67771e-06
-2.0935e-06
-2.509e-06
-2.92374e-06
-3.33708e-06
-3.74825e-06
-4.15623e-06
-4.55983e-06
-4.95747e-06
-5.34738e-06
-5.7273e-06
-6.08235e-06
-6.39853e-06
-6.67643e-06
-6.92102e-06
-7.13691e-06
-7.32819e-06
-7.49811e-06
-7.65209e-06
-7.79293e-06
-7.92362e-06
-8.04696e-06
-8.16536e-06
-8.28107e-06
-8.39617e-06
-8.51256e-06
-8.63189e-06
-8.75558e-06
-8.8849e-06
-9.02088e-06
-9.16442e-06
-9.31621e-06
-9.47681e-06
-9.64668e-06
2.97622e-06
2.54923e-06
2.12141e-06
1.69288e-06
1.26376e-06
8.34248e-07
4.04551e-07
-2.50903e-08
-4.54443e-07
-8.83258e-07
-1.31127e-06
-1.73815e-06
-2.16355e-06
-2.58701e-06
-3.00803e-06
-3.42594e-06
-3.84e-06
-4.24927e-06
-4.65268e-06
-5.04888e-06
-5.43641e-06
-5.81335e-06
-6.16651e-06
-6.4836e-06
-6.76511e-06
-7.01528e-06
-7.23815e-06
-7.43887e-06
-7.61547e-06
-7.77666e-06
-7.92416e-06
-8.06058e-06
-8.18841e-06
-8.30996e-06
-8.4274e-06
-8.54275e-06
-8.65786e-06
-8.7744e-06
-8.89388e-06
-9.01766e-06
-9.14695e-06
-9.28277e-06
-9.42603e-06
-9.57751e-06
-9.73786e-06
3.04836e-06
2.6059e-06
2.16292e-06
1.71966e-06
1.27638e-06
8.33405e-07
3.91087e-07
-5.02308e-08
-4.90204e-07
-9.28478e-07
-1.36468e-06
-1.79839e-06
-2.22918e-06
-2.65653e-06
-3.07988e-06
-3.49858e-06
-3.9119e-06
-4.31895e-06
-4.71881e-06
-5.11029e-06
-5.49221e-06
-5.86292e-06
-6.21095e-06
-6.52573e-06
-6.80756e-06
-7.05979e-06
-7.28568e-06
-7.48779e-06
-7.67349e-06
-7.84053e-06
-7.99314e-06
-8.13411e-06
-8.26578e-06
-8.39036e-06
-8.50993e-06
-8.62644e-06
-8.74169e-06
-8.85738e-06
-8.97506e-06
-9.09618e-06
-9.22202e-06
-9.35376e-06
-9.49244e-06
-9.63899e-06
-9.79423e-06
3.08852e-06
2.63379e-06
2.1789e-06
1.7242e-06
1.27008e-06
8.16973e-07
3.65329e-07
-8.44154e-08
-5.31824e-07
-9.76452e-07
-1.41784e-06
-1.8555e-06
-2.28893e-06
-2.71758e-06
-3.14084e-06
-3.55807e-06
-3.96856e-06
-4.37148e-06
-4.76602e-06
-5.15112e-06
-5.52584e-06
-5.88874e-06
-6.23001e-06
-6.5407e-06
-6.82087e-06
-7.07334e-06
-7.30106e-06
-7.50672e-06
-7.69474e-06
-7.86566e-06
-8.02219e-06
-8.16679e-06
-8.30173e-06
-8.42911e-06
-8.55092e-06
-8.66904e-06
-8.78526e-06
-8.90129e-06
-9.0187e-06
-9.13899e-06
-9.26354e-06
-9.3936e-06
-9.53034e-06
-9.6748e-06
-9.82793e-06
3.10824e-06
2.64362e-06
2.17922e-06
1.71548e-06
1.25291e-06
7.9203e-07
3.33368e-07
-1.22561e-07
-5.75245e-07
-1.02416e-06
-1.46879e-06
-1.90858e-06
-2.34297e-06
-2.77138e-06
-3.19319e-06
-3.60774e-06
-4.01436e-06
-4.41227e-06
-4.80072e-06
-5.1788e-06
-5.54575e-06
-5.9003e-06
-6.23417e-06
-6.53986e-06
-6.81728e-06
-7.06878e-06
-7.29694e-06
-7.50438e-06
-7.69406e-06
-7.86761e-06
-8.02705e-06
-8.17449e-06
-8.31212e-06
-8.44194e-06
-8.56588e-06
-8.68575e-06
-8.80333e-06
-8.92032e-06
-9.03833e-06
-9.15889e-06
-9.28344e-06
-9.41332e-06
-9.54977e-06
-9.69393e-06
-9.84685e-06
3.11533e-06
2.64255e-06
2.17038e-06
1.69933e-06
1.23001e-06
7.62998e-07
2.98899e-07
-1.61708e-07
-6.18245e-07
-1.07013e-06
-1.51678e-06
-1.95761e-06
-2.392e-06
-2.81936e-06
-3.23904e-06
-3.65039e-06
-4.05275e-06
-4.44539e-06
-4.82765e-06
-5.19868e-06
-5.55789e-06
-5.90415e-06
-6.23057e-06
-6.53093e-06
-6.80502e-06
-7.05479e-06
-7.2825e-06
-7.49019e-06
-7.68142e-06
-7.85673e-06
-8.0183e-06
-8.16791e-06
-8.30769e-06
-8.43956e-06
-8.56537e-06
-8.68692e-06
-8.80594e-06
-8.92413e-06
-9.04314e-06
-9.16453e-06
-9.28978e-06
-9.4203e-06
-9.5574e-06
-9.7023e-06
-9.85611e-06
3.11495e-06
2.6353e-06
2.15661e-06
1.67949e-06
1.2046e-06
7.32595e-07
2.64133e-07
-2.00151e-07
-6.59623e-07
-1.11365e-06
-1.56161e-06
-2.00285e-06
-2.43676e-06
-2.86269e-06
-3.28e-06
-3.68804e-06
-4.08615e-06
-4.47366e-06
-4.84995e-06
-5.21426e-06
-5.5661e-06
-5.90448e-06
-6.22373e-06
-6.51878e-06
-6.78931e-06
-7.03701e-06
-7.26384e-06
-7.47167e-06
-7.66335e-06
-7.83968e-06
-8.00283e-06
-8.15406e-06
-8.29549e-06
-8.42901e-06
-8.55639e-06
-8.67938e-06
-8.79974e-06
-8.91914e-06
-9.03925e-06
-9.16166e-06
-9.28791e-06
-9.41945e-06
-9.55765e-06
-9.70379e-06
-9.85906e-06
3.11043e-06
2.62485e-06
2.14057e-06
1.65827e-06
1.17867e-06
7.02467e-07
2.30375e-07
-2.36921e-07
-6.98741e-07
-1.15441e-06
-1.60325e-06
-2.04461e-06
-2.47782e-06
-2.90223e-06
-3.31718e-06
-3.72202e-06
-4.11612e-06
-4.49883e-06
-4.86957e-06
-5.22765e-06
-5.57269e-06
-5.90379e-06
-6.21633e-06
-6.50627e-06
-6.77328e-06
-7.01876e-06
-7.24446e-06
-7.45208e-06
-7.6438e-06
-7.82057e-06
-7.9849e-06
-8.13729e-06
-8.27995e-06
-8.41473e-06
-8.54335e-06
-8.66754e-06
-8.78902e-06
-8.90949e-06
-9.03062e-06
-9.15405e-06
-9.28134e-06
-9.41399e-06
-9.55344e-06
-9.701e-06
-9.85791e-06
3.10385e-06
2.61308e-06
2.12391e-06
1.6371e-06
1.1534e-06
6.73575e-07
1.98368e-07
-2.7149e-07
-7.35276e-07
-1.19228e-06
-1.64179e-06
-2.08313e-06
-2.5156e-06
-2.93853e-06
-3.35127e-06
-3.75315e-06
-4.14358e-06
-4.52191e-06
-4.88761e-06
-5.24005e-06
-5.57891e-06
-5.90337e-06
-6.20977e-06
-6.49495e-06
-6.75856e-06
-7.00182e-06
-7.22626e-06
-7.43342e-06
-7.62481e-06
-7.80189e-06
-7.96699e-06
-8.12018e-06
-8.26371e-06
-8.39943e-06
-8.52898e-06
-8.65408e-06
-8.77645e-06
-8.89778e-06
-9.01977e-06
-9.14409e-06
-9.27232e-06
-9.40602e-06
-9.54666e-06
-9.69561e-06
-9.85415e-06
3.09648e-06
2.60109e-06
2.10759e-06
1.61678e-06
1.12947e-06
6.46448e-07
1.68503e-07
-3.03597e-07
-7.69094e-07
-1.22724e-06
-1.67731e-06
-2.11859e-06
-2.55036e-06
-2.97194e-06
-3.38267e-06
-3.7819e-06
-4.16902e-06
-4.54343e-06
-4.90462e-06
-5.25201e-06
-5.58532e-06
-5.90382e-06
-6.20464e-06
-6.48544e-06
-6.74589e-06
-6.987e-06
-7.21014e-06
-7.41664e-06
-7.6075e-06
-7.78499e-06
-7.95035e-06
-8.10413e-06
-8.24823e-06
-8.3846e-06
-8.51482e-06
-8.64058e-06
-8.76359e-06
-8.88557e-06
-9.00823e-06
-9.13325e-06
-9.26227e-06
-9.39687e-06
-9.53856e-06
-9.68876e-06
-9.8488e-06
3.08906e-06
2.58954e-06
2.09217e-06
1.59779e-06
1.10725e-06
6.21381e-07
1.40994e-07
-3.33106e-07
-8.00129e-07
-1.2593e-06
-1.70987e-06
-2.15109e-06
-2.58225e-06
-3.00263e-06
-3.41159e-06
-3.80846e-06
-4.19266e-06
-4.56359e-06
-4.92078e-06
-5.26368e-06
-5.59207e-06
-5.90525e-06
-6.20107e-06
-6.47791e-06
-6.73546e-06
-6.97456e-06
-7.1964e-06
-7.40213e-06
-7.59244e-06
-7.77021e-06
-7.9356e-06
-8.08975e-06
-8.23422e-06
-8.37101e-06
-8.50168e-06
-8.62788e-06
-8.75134e-06
-8.87377e-06
-8.9969e-06
-9.12244e-06
-9.25206e-06
-9.38738e-06
-9.52995e-06
-9.68121e-06
-9.84255e-06
3.08201e-06
2.57879e-06
2.07796e-06
1.58039e-06
1.08697e-06
5.98541e-07
1.15965e-07
-3.59931e-07
-8.2833e-07
-1.28843e-06
-1.73946e-06
-2.18066e-06
-2.6113e-06
-3.03065e-06
-3.43806e-06
-3.83288e-06
-4.21451e-06
-4.58239e-06
-4.93607e-06
-5.27503e-06
-5.59907e-06
-5.90755e-06
-6.19891e-06
-6.4722e-06
-6.72714e-06
-6.96439e-06
-7.18501e-06
-7.38994e-06
-7.57979e-06
-7.75758e-06
-7.92295e-06
-8.07726e-06
-8.22197e-06
-8.35901e-06
-8.48994e-06
-8.61642e-06
-8.74014e-06
-8.86284e-06
-8.98627e-06
-9.11216e-06
-9.24222e-06
-9.37808e-06
-9.52134e-06
-9.67348e-06
-9.83592e-06
3.07543e-06
2.56887e-06
2.06491e-06
1.56447e-06
1.06843e-06
5.777e-07
9.31434e-08
-3.8438e-07
-8.54033e-07
-1.31499e-06
-1.76647e-06
-2.20768e-06
-2.63788e-06
-3.05635e-06
-3.46242e-06
-3.85544e-06
-4.23482e-06
-4.60003e-06
-4.95061e-06
-5.28609e-06
-5.60629e-06
-5.9106e-06
-6.19797e-06
-6.46806e-06
-6.72062e-06
-6.95619e-06
-7.17566e-06
-7.37985e-06
-7.56932e-06
-7.74689e-06
-7.91223e-06
-8.06656e-06
-8.21139e-06
-8.34854e-06
-8.4796e-06
-8.60619e-06
-8.73003e-06
-8.85287e-06
-8.97645e-06
-9.10255e-06
-9.23288e-06
-9.36913e-06
-9.51291e-06
-9.66576e-06
-9.8291e-06
3.06904e-06
2.55928e-06
2.05233e-06
1.54913e-06
1.0506e-06
5.57663e-07
7.1208e-08