/*--------------------------------*- C++ -*----------------------------------*\
| =========                 |                                                 |
| \\      /  F ield         | OpenFOAM: The Open Source CFD Toolbox           |
|  \\    /   O peration     | Version:  2312                                  |
|   \\  /    A nd           | Website:  www.openfoam.com                      |
|    \\/     M anipulation  |                                                 |
\*---------------------------------------------------------------------------*/
FoamFile
{
    version     2.0;
    format      ascii;
    arch        "LSB;label=32;scalar=64";
    class       volScalarField;
    location    "15";
    object      p;
}
// * * * * * * * * * * * * * * * * * * * * * * * * * * * * * * * * * * * * * //

dimensions      [0 2 -2 0 0 0 0];

internalField   nonuniform List<scalar> 
4800
(
-2.11159e-11
-1.41036e-06
-2.58536e-06
-3.58121e-06
-4.436e-06
-5.17494e-06
-5.82231e-06
-6.39571e-06
-6.90363e-06
-7.35831e-06
-7.76841e-06
-8.13606e-06
-8.45494e-06
-8.956e-06
-1.05873e-05
1.54107e-08
-1.3923e-06
-2.56546e-06
-3.56014e-06
-4.41494e-06
-5.15494e-06
-5.80485e-06
-6.38226e-06
-6.89616e-06
-7.36057e-06
-7.78934e-06
-8.19804e-06
-8.60145e-06
-9.1063e-06
-9.96045e-06
3.18936e-08
-1.3729e-06
-2.54417e-06
-3.53787e-06
-4.39253e-06
-5.13341e-06
-5.78419e-06
-6.3646e-06
-6.88327e-06
-7.35473e-06
-7.79428e-06
-8.21828e-06
-8.63604e-06
-9.05683e-06
-9.4603e-06
4.89653e-08
-1.35231e-06
-2.52115e-06
-3.51335e-06
-4.36728e-06
-5.10904e-06
-5.759e-06
-6.34059e-06
-6.86138e-06
-7.33404e-06
-7.77162e-06
-8.18206e-06
-8.55841e-06
-8.87085e-06
-9.05143e-06
6.81301e-08
-1.32875e-06
-2.49439e-06
-3.48433e-06
-4.33664e-06
-5.07812e-06
-5.72692e-06
-6.30617e-06
-6.82496e-06
-7.29155e-06
-7.71409e-06
-8.09119e-06
-8.40476e-06
-8.61744e-06
-8.67534e-06
9.0864e-08
-1.30066e-06
-2.46217e-06
-3.44885e-06
-4.29838e-06
-5.03727e-06
-5.68401e-06
-6.25718e-06
-6.76781e-06
-7.21972e-06
-7.61524e-06
-7.94677e-06
-8.19403e-06
-8.3282e-06
-8.32174e-06
1.19346e-07
-1.26584e-06
-2.4221e-06
-3.40424e-06
-4.24934e-06
-4.9833e-06
-5.62432e-06
-6.18775e-06
-6.68311e-06
-7.11156e-06
-7.47103e-06
-7.7522e-06
-7.93956e-06
-8.01833e-06
-7.98176e-06
1.57233e-07
-1.22067e-06
-2.3704e-06
-3.34631e-06
-4.18475e-06
-4.9108e-06
-5.54163e-06
-6.09017e-06
-6.56347e-06
-6.96137e-06
-7.28026e-06
-7.51312e-06
-7.65228e-06
-7.69532e-06
-7.64728e-06
2.10036e-07
-1.15973e-06
-2.30143e-06
-3.26902e-06
-4.09797e-06
-4.8124e-06
-5.42823e-06
-5.95629e-06
-6.40188e-06
-6.76511e-06
-7.04363e-06
-7.23497e-06
-7.33898e-06
-7.36139e-06
-7.31229e-06
2.84996e-07
-1.07569e-06
-2.20757e-06
-3.16429e-06
-3.98043e-06
-4.67905e-06
-5.27505e-06
-5.77791e-06
-6.19232e-06
-6.52026e-06
-6.76247e-06
-6.92137e-06
-7.00227e-06
-7.01513e-06
-6.97128e-06
3.90343e-07
-9.59796e-07
-2.07951e-06
-3.02234e-06
-3.822e-06
-4.50066e-06
-5.0726e-06
-5.54705e-06
-5.92986e-06
-6.22524e-06
-6.43771e-06
-6.57363e-06
-6.64155e-06
-6.65288e-06
-6.61843e-06
5.34396e-07
-8.02673e-07
-1.9071e-06
-2.83248e-06
-3.6119e-06
-4.267e-06
-4.81217e-06
-5.25749e-06
-5.61079e-06
-5.87882e-06
-6.06926e-06
-6.19105e-06
-6.2541e-06
-6.26973e-06
-6.24752e-06
7.25283e-07
-5.94746e-07
-1.67984e-06
-2.58382e-06
-3.33955e-06
-3.96869e-06
-4.48641e-06
-4.90434e-06
-5.23236e-06
-5.47967e-06
-5.65592e-06
-5.77131e-06
-5.83591e-06
-5.86014e-06
-5.85228e-06
9.71125e-07
-3.2614e-07
-1.38698e-06
-2.26548e-06
-2.9948e-06
-3.59718e-06
-4.08891e-06
-4.48326e-06
-4.79185e-06
-5.02555e-06
-5.19498e-06
-5.31053e-06
-5.38179e-06
-5.41801e-06
-5.42624e-06
1.27984e-06
1.31096e-08
-1.01775e-06
-1.86682e-06
-2.56799e-06
-3.14436e-06
-3.61335e-06
-3.98939e-06
-4.28516e-06
-4.51224e-06
-4.68143e-06
-4.80271e-06
-4.88487e-06
-4.93597e-06
-4.96207e-06
1.6581e-06
4.31995e-07
-5.62403e-07
-1.37841e-06
-2.05061e-06
-2.60295e-06
-3.0535e-06
-3.41709e-06
-3.70659e-06
-3.93364e-06
-4.10841e-06
-4.24021e-06
-4.33696e-06
-4.4057e-06
-4.45165e-06
2.10923e-06
9.36303e-07
-1.43937e-08
-7.94001e-07
-1.43708e-06
-1.9679e-06
-2.40455e-06
-2.76151e-06
-3.05102e-06
-3.2838e-06
-3.46923e-06
-3.61588e-06
-3.73081e-06
-3.82008e-06
-3.88826e-06
2.63053e-06
1.52542e-06
6.26399e-07
-1.13562e-07
-7.2755e-07
-1.23912e-06
-1.66563e-06
-2.02064e-06
-2.31526e-06
-2.55894e-06
-2.75965e-06
-2.92528e-06
-3.0621e-06
-3.17527e-06
-3.26876e-06
3.21115e-06
2.1891e-06
1.35008e-06
6.53161e-07
6.85484e-08
-4.25304e-07
-8.44136e-07
-1.19996e-06
-1.50248e-06
-1.76007e-06
-1.97996e-06
-2.16805e-06
-2.32971e-06
-2.46957e-06
-2.59131e-06
3.82997e-06
2.9043e-06
2.13272e-06
1.48206e-06
9.27338e-07
4.50172e-07
3.70762e-08
-3.22031e-07
-6.35052e-07
-9.08561e-07
-1.14838e-06
-1.35964e-06
-1.54714e-06
-1.715e-06
-1.86657e-06
4.42431e-06
3.59781e-06
2.89485e-06
2.29024e-06
1.76451e-06
1.30302e-06
8.94838e-07
5.31718e-07
2.07192e-07
-8.39789e-08
-3.46116e-07
-5.83022e-07
-7.9899e-07
-9.97443e-07
-1.18118e-06
4.91137e-06
4.17088e-06
3.52752e-06
2.96284e-06
2.46229e-06
2.01469e-06
1.61153e-06
1.24626e-06
9.13507e-07
6.08661e-07
3.27386e-07
6.60449e-08
-1.76827e-07
-4.03331e-07
-6.15949e-07
5.27553e-06
4.60199e-06
4.00492e-06
3.47099e-06
2.98945e-06
2.55186e-06
2.1515e-06
1.78298e-06
1.44183e-06
1.12428e-06
8.27323e-07
5.4884e-07
2.86334e-07
3.79286e-08
-1.98221e-07
5.54138e-06
4.92006e-06
4.35945e-06
3.84995e-06
3.38372e-06
2.9543e-06
2.55637e-06
2.18555e-06
1.8382e-06
1.51132e-06
1.20247e-06
9.09546e-07
6.30619e-07
3.64067e-07
1.08348e-07
5.73334e-06
5.15286e-06
4.62127e-06
4.13155e-06
3.67788e-06
3.25525e-06
2.85941e-06
2.48676e-06
2.13432e-06
1.79962e-06
1.48055e-06
1.17522e-06
8.82228e-07
6.00256e-07
3.27999e-07
5.87064e-06
5.3223e-06
4.81387e-06
4.34009e-06
3.89655e-06
3.4793e-06
3.08491e-06
2.71041e-06
2.35335e-06
2.01168e-06
1.68365e-06
1.36782e-06
1.06297e-06
7.67994e-07
4.81841e-07
5.96802e-06
5.44517e-06
4.95523e-06
4.4942e-06
4.0587e-06
3.64558e-06
3.25202e-06
2.87563e-06
2.5144e-06
2.16664e-06
1.83092e-06
1.50618e-06
1.19131e-06
8.85403e-07
5.8759e-07
6.03659e-06
5.53418e-06
5.05907e-06
4.60827e-06
4.17916e-06
3.76916e-06
3.37601e-06
2.99776e-06
2.63281e-06
2.27982e-06
1.93753e-06
1.60516e-06
1.28175e-06
9.66591e-07
6.58951e-07
6.08463e-06
5.5988e-06
5.13574e-06
4.69325e-06
4.26925e-06
3.86165e-06
3.46861e-06
3.0886e-06
2.72031e-06
2.36263e-06
2.01481e-06
1.6759e-06
1.34519e-06
1.02215e-06
7.06183e-07
6.11822e-06
5.64608e-06
5.19295e-06
4.75729e-06
4.33743e-06
3.93167e-06
3.53857e-06
3.15692e-06
2.78569e-06
2.42401e-06
2.07124e-06
1.72663e-06
1.38966e-06
1.05989e-06
7.36845e-07
6.14183e-06
5.68113e-06
5.23632e-06
4.80636e-06
4.38989e-06
3.98557e-06
3.59229e-06
3.2091e-06
2.83522e-06
2.47004e-06
2.11294e-06
1.76341e-06
1.42103e-06
1.08548e-06
7.56369e-07
6.15863e-06
5.70766e-06
5.26991e-06
4.84475e-06
4.43108e-06
4.0279e-06
3.63437e-06
3.24978e-06
2.87356e-06
2.50524e-06
2.14434e-06
1.79051e-06
1.44344e-06
1.1029e-06
7.68551e-07
6.17088e-06
5.72825e-06
5.29655e-06
4.87547e-06
4.46416e-06
4.06189e-06
3.66806e-06
3.28218e-06
2.90387e-06
2.53276e-06
2.16852e-06
1.81093e-06
1.45977e-06
1.11486e-06
7.75974e-07
6.1801e-06
5.74469e-06
5.31822e-06
4.90063e-06
4.49131e-06
4.08978e-06
3.69564e-06
3.30858e-06
2.92839e-06
2.55479e-06
2.18761e-06
1.8267e-06
1.47194e-06
1.12321e-06
7.80348e-07
6.1873e-06
5.75819e-06
5.33626e-06
4.92168e-06
4.51406e-06
4.11312e-06
3.71867e-06
3.33053e-06
2.94863e-06
2.57283e-06
2.20302e-06
1.83918e-06
1.48123e-06
1.12914e-06
7.82787e-07
6.19313e-06
5.76954e-06
5.35156e-06
4.93959e-06
4.53341e-06
4.13297e-06
3.73819e-06
3.34906e-06
2.96564e-06
2.58786e-06
2.21572e-06
1.84927e-06
1.4885e-06
1.13344e-06
7.84004e-07
6.19799e-06
5.77923e-06
5.36468e-06
4.95496e-06
4.55003e-06
4.15e-06
3.75488e-06
3.36486e-06
2.98008e-06
2.60051e-06
2.22631e-06
1.85755e-06
1.49429e-06
1.1366e-06
7.8445e-07
6.20218e-06
5.78765e-06
5.3761e-06
4.96833e-06
4.56446e-06
4.16475e-06
3.76929e-06
3.37851e-06
2.99247e-06
2.61133e-06
2.23528e-06
1.86447e-06
1.499e-06
1.13897e-06
7.84395e-07
6.20605e-06
5.79544e-06
5.38666e-06
4.98069e-06
4.57778e-06
4.17828e-06
3.78258e-06
3.39102e-06
3.00379e-06
2.62115e-06
2.24336e-06
1.87064e-06
1.50308e-06
1.14085e-06
7.83978e-07
6.20965e-06
5.80296e-06
5.39687e-06
4.99262e-06
4.59064e-06
4.19143e-06
3.79539e-06
3.40303e-06
3.01463e-06
2.63052e-06
2.25098e-06
1.87627e-06
1.50666e-06
1.14234e-06
7.83377e-07
-1.19546e-05
-9.71216e-06
-8.33307e-06
-7.40753e-06
-6.66487e-06
-6.09154e-06
-5.64236e-06
-5.28635e-06
-5.00304e-06
-4.77651e-06
-4.59407e-06
-4.44533e-06
-4.32172e-06
-4.21669e-06
-4.12605e-06
-4.04977e-06
-3.99324e-06
-3.97187e-06
-4.01276e-06
-4.1606e-06
-4.47149e-06
-5.00027e-06
-5.69672e-06
-6.35357e-06
-6.81508e-06
-7.00491e-06
-6.88601e-06
-6.44699e-06
-5.68851e-06
-4.61841e-06
-3.25058e-06
-1.60649e-06
2.83542e-07
2.37985e-06
4.63417e-06
6.99111e-06
9.38938e-06
1.1762e-05
1.40335e-05
1.61132e-05
1.78757e-05
1.91578e-05
1.95881e-05
1.88462e-05
1.57211e-05
-1.03375e-05
-9.17631e-06
-8.13318e-06
-7.30857e-06
-6.61152e-06
-6.05385e-06
-5.61033e-06
-5.25662e-06
-4.97465e-06
-4.7494e-06
-4.56846e-06
-4.42149e-06
-4.29992e-06
-4.19724e-06
-4.1093e-06
-4.03614e-06
-3.98317e-06
-3.96564e-06
-4.01021e-06
-4.16058e-06
-4.47126e-06
-4.99521e-06
-5.68211e-06
-6.32771e-06
-6.7791e-06
-6.96117e-06
-6.83707e-06
-6.39535e-06
-5.63688e-06
-4.57011e-06
-3.21008e-06
-1.57982e-06
2.88351e-07
2.35233e-06
4.56073e-06
6.85389e-06
9.16437e-06
1.14157e-05
1.35171e-05
1.53517e-05
1.67443e-05
1.74244e-05
1.68639e-05
1.43114e-05
8.79618e-06
-9.48916e-06
-8.75768e-06
-7.92554e-06
-7.19211e-06
-6.54573e-06
-6.00972e-06
-5.57516e-06
-5.22531e-06
-4.94528e-06
-4.72148e-06
-4.54202e-06
-4.39675e-06
-4.2772e-06
-4.17689e-06
-4.09178e-06
-4.02197e-06
-3.97289e-06
-3.95964e-06
-4.00834e-06
-4.16155e-06
-4.47193e-06
-4.99021e-06
-5.66591e-06
-6.29825e-06
-6.73772e-06
-6.91067e-06
-6.7807e-06
-6.33642e-06
-5.57907e-06
-4.51795e-06
-3.16961e-06
-1.55912e-06
2.78652e-07
2.29844e-06
4.44487e-06
6.65291e-06
8.84761e-06
1.09416e-05
1.28281e-05
1.43666e-05
1.53534e-05
1.54832e-05
1.42821e-05
1.12299e-05
6.2324e-06
-8.94554e-06
-8.41467e-06
-7.74242e-06
-7.08188e-06
-6.48393e-06
-5.97087e-06
-5.54579e-06
-5.19937e-06
-4.92036e-06
-4.69695e-06
-4.51798e-06
-4.3736e-06
-4.25544e-06
-4.1571e-06
-4.07462e-06
-4.00814e-06
-3.96309e-06
-3.95435e-06
-4.00744e-06
-4.16365e-06
-4.47357e-06
-4.9854e-06
-5.64835e-06
-6.26542e-06
-6.69081e-06
-6.85256e-06
-6.71492e-06
-6.26677e-06
-5.50999e-06
-4.45517e-06
-3.12083e-06
-1.53471e-06
2.65029e-07
2.22917e-06
4.29747e-06
6.39876e-06
8.45006e-06
1.03537e-05
1.19903e-05
1.32074e-05
1.38012e-05
1.35047e-05
1.19949e-05
9.03073e-06
4.86414e-06
-8.52127e-06
-8.11087e-06
-7.56235e-06
-6.98522e-06
-6.43225e-06
-5.94208e-06
-5.52649e-06
-5.18246e-06
-4.90293e-06
-4.67823e-06
-4.49819e-06
-4.3534e-06
-4.23566e-06
-4.13865e-06
-4.05845e-06
-3.99524e-06
-3.9544e-06
-3.9505e-06
-4.00833e-06
-4.16769e-06
-4.47684e-06
-4.98111e-06
-5.62932e-06
-6.22882e-06
-6.63801e-06
-6.78689e-06
-6.64059e-06
-6.18851e-06
-5.43348e-06
-4.38773e-06
-3.07223e-06
-1.51786e-06
2.33412e-07
2.12794e-06
4.10029e-06
6.07321e-06
7.95673e-06
9.64586e-06
1.10162e-05
1.19183e-05
1.21752e-05
1.15931e-05
1.00021e-05
7.36022e-06
3.94325e-06
-8.16282e-06
-7.83495e-06
-7.38216e-06
-6.88726e-06
-6.38721e-06
-5.92296e-06
-5.51853e-06
-5.17682e-06
-4.89571e-06
-4.6681e-06
-4.48522e-06
-4.33839e-06
-4.21975e-06
-4.12312e-06
-4.04463e-06
-3.98447e-06
-3.94791e-06
-3.94911e-06
-4.01198e-06
-4.17454e-06
-4.48244e-06
-4.9777e-06
-5.60871e-06
-6.18799e-06
-6.57867e-06
-6.71305e-06
-6.55744e-06
-6.10206e-06
-5.35104e-06
-4.31863e-06
-3.02865e-06
-1.51555e-06
1.7459e-07
1.98355e-06
3.841e-06
5.66464e-06
7.36002e-06
8.81991e-06
9.92378e-06
1.05401e-05
1.05338e-05
9.78902e-06
8.24985e-06
5.98304e-06
3.24217e-06
-7.83538e-06
-7.57084e-06
-7.2028e-06
-6.7762e-06
-6.33409e-06
-5.90625e-06
-5.51744e-06
-5.18121e-06
-4.89941e-06
-4.6683e-06
-4.48128e-06
-4.33088e-06
-4.20991e-06
-4.11251e-06
-4.03497e-06
-3.97745e-06
-3.94509e-06
-3.95151e-06
-4.01958e-06
-4.18524e-06
-4.49115e-06
-4.97557e-06
-5.5865e-06
-6.14249e-06
-6.51209e-06
-6.63025e-06
-6.46484e-06
-6.00725e-06
-5.26333e-06
-4.24975e-06
-2.99355e-06
-1.53299e-06
8.1669e-08
1.78796e-06
3.51162e-06
5.16739e-06
6.66011e-06
7.88652e-06
8.73876e-06
9.11195e-06
8.91689e-06
8.10235e-06
6.68182e-06
4.76055e-06
2.54504e-06
-7.51869e-06
-7.30438e-06
-7.00743e-06
-6.65045e-06
-6.26473e-06
-5.87787e-06
-5.51458e-06
-5.18996e-06
-4.911e-06
-4.67785e-06
-4.48674e-06
-4.33205e-06
-4.20775e-06
-4.10861e-06
-4.03126e-06
-3.97593e-06
-3.94761e-06
-3.95928e-06
-4.03255e-06
-4.20099e-06
-4.50388e-06
-4.97524e-06
-5.56268e-06
-6.09193e-06
-6.43768e-06
-6.53792e-06
-6.36253e-06
-5.90455e-06
-5.17194e-06
-4.18417e-06
-2.97174e-06
-1.57676e-06
-5.33221e-08
1.53279e-06
3.10515e-06
4.57852e-06
5.86154e-06
6.86086e-06
7.48741e-06
7.66605e-06
7.34819e-06
6.52703e-06
5.25016e-06
3.62471e-06
1.80832e-06
-7.20256e-06
-7.02905e-06
-6.7906e-06
-6.49762e-06
-6.16973e-06
-5.82963e-06
-5.49893e-06
-5.19359e-06
-4.92342e-06
-4.69213e-06
-4.49904e-06
-4.34092e-06
-4.21335e-06
-4.1122e-06
-4.03471e-06
-3.98137e-06
-3.95704e-06
-3.97397e-06
-4.05237e-06
-4.22304e-06
-4.52156e-06
-4.97718e-06
-5.53726e-06
-6.03599e-06
-6.35505e-06
-6.43592e-06
-6.251e-06
-5.79546e-06
-5.07985e-06
-4.12669e-06
-2.96994e-06
-1.65519e-06
-2.3953e-07
1.20951e-06
2.61584e-06
3.89777e-06
4.97212e-06
5.75985e-06
6.19332e-06
6.22501e-06
5.83689e-06
5.04788e-06
3.9168e-06
2.53778e-06
1.02792e-06
-6.88048e-06
-6.74116e-06
-6.55116e-06
-6.3145e-06
-6.04259e-06
-5.75182e-06
-5.45961e-06
-5.18098e-06
-4.92681e-06
-4.70328e-06
-4.51251e-06
-4.35376e-06
-4.22461e-06
-4.12239e-06
-4.04532e-06
-3.99435e-06
-3.97433e-06
-3.99674e-06
-4.0802e-06
-4.25244e-06
-4.54496e-06
-4.9818e-06
-5.51022e-06
-5.97447e-06
-6.26421e-06
-6.32485e-06
-6.1318e-06
-5.68296e-06
-4.99182e-06
-4.08404e-06
-2.99666e-06
-1.77796e-06
-4.86565e-07
8.10401e-07
2.04009e-06
3.12783e-06
4.00203e-06
4.6001e-06
4.87502e-06
4.80157e-06
4.38152e-06
3.64554e-06
2.65112e-06
1.47523e-06
2.04053e-07
-6.54654e-06
-6.437e-06
-6.28791e-06
-6.10024e-06
-5.88006e-06
-5.63824e-06
-5.38793e-06
-5.14192e-06
-4.91074e-06
-4.70179e-06
-4.51919e-06
-4.36442e-06
-4.23711e-06
-4.13629e-06
-4.0614e-06
-4.0141e-06
-3.99935e-06
-4.02784e-06
-4.11647e-06
-4.28961e-06
-4.57438e-06
-4.98925e-06
-5.48161e-06
-5.9076e-06
-6.16598e-06
-6.20656e-06
-6.00817e-06
-5.57203e-06
-4.91484e-06
-4.0651e-06
-3.06218e-06
-1.95565e-06
-8.03736e-07
3.29361e-07
1.37693e-06
2.27409e-06
2.96263e-06
3.39624e-06
3.54531e-06
3.40044e-06
2.97421e-06
2.30008e-06
1.4285e-06
4.1994e-07
-6.62184e-07
-6.19466e-06
-6.11207e-06
-5.99849e-06
-5.85359e-06
-5.68027e-06
-5.48529e-06
-5.27802e-06
-5.06853e-06
-4.86613e-06
-4.67831e-06
-4.51034e-06
-4.36533e-06
-4.24473e-06
-4.14922e-06
-4.07961e-06
-4.03836e-06
-4.03064e-06
-4.06635e-06
-4.16057e-06
-4.3341e-06
-4.60944e-06
-4.99933e-06
-5.45174e-06
-5.83639e-06
-6.06256e-06
-6.08483e-06
-5.88571e-06
-5.47025e-06
-4.85845e-06
-4.08094e-06
-3.17807e-06
-2.19892e-06
-1.19901e-06
-2.37143e-07
6.28463e-07
1.34427e-06
1.86558e-06
2.16035e-06
2.21208e-06
2.02114e-06
1.60455e-06
9.9357e-07
2.29783e-07
-6.40375e-07
-1.57014e-06
-5.8187e-06
-5.76127e-06
-5.67944e-06
-5.57246e-06
-5.44147e-06
-5.2905e-06
-5.12586e-06
-4.95508e-06
-4.78578e-06
-4.62483e-06
-4.47778e-06
-4.34878e-06
-4.24062e-06
-4.15544e-06
-4.09529e-06
-4.06349e-06
-4.06539e-06
-4.1101e-06
-4.21073e-06
-4.38445e-06
-4.64901e-06
-5.01167e-06
-5.4215e-06
-5.76328e-06
-5.95832e-06
-5.96621e-06
-5.77297e-06
-5.38811e-06
-4.8347e-06
-4.14424e-06
-3.35627e-06
-2.51721e-06
-1.67769e-06
-8.89056e-07
-1.99696e-07
3.48408e-07
7.22761e-07
9.02651e-07
8.80336e-07
6.6127e-07
2.62866e-07
-2.88103e-07
-9.5873e-07
-1.71391e-06
-2.51911e-06
-5.4124e-06
-5.37915e-06
-5.32658e-06
-5.25397e-06
-5.1616e-06
-5.05174e-06
-4.92855e-06
-4.79741e-06
-4.66422e-06
-4.53481e-06
-4.41446e-06
-4.30767e-06
-4.21809e-06
-4.14893e-06
-4.10324e-06
-4.08508e-06
-4.09985e-06
-4.15595e-06
-4.26425e-06
-4.43849e-06
-4.69154e-06
-5.02589e-06
-5.3927e-06
-5.69282e-06
-5.8608e-06
-5.86064e-06
-5.68165e-06
-5.33878e-06
-4.85742e-06
-4.26807e-06
-3.60737e-06
-2.91702e-06
-2.24094e-06
-1.62183e-06
-1.09803e-06
-7.00978e-07
-4.53245e-07
-3.6713e-07
-4.45359e-07
-6.80636e-07
-1.05735e-06
-1.55388e-06
-2.14497e-06
-2.80445e-06
-3.5068e-06
-4.96882e-06
-4.95958e-06
-4.93495e-06
-4.89443e-06
-4.83797e-06
-4.76687e-06
-4.68379e-06
-4.5925e-06
-4.49741e-06
-4.40323e-06
-4.31456e-06
-4.23583e-06
-4.17098e-06
-4.12384e-06
-4.09813e-06
-4.09835e-06
-4.12983e-06
-4.20012e-06
-4.31794e-06
-4.49381e-06
-4.73559e-06
-5.04234e-06
-5.3684e-06
-5.63222e-06
-5.78128e-06
-5.78068e-06
-5.62547e-06
-5.33693e-06
-4.9407e-06
-4.46396e-06
-3.93862e-06
-3.40012e-06
-2.88461e-06
-2.42593e-06
-2.05315e-06
-1.78888e-06
-1.64818e-06
-1.63832e-06
-1.75905e-06
-2.00322e-06
-2.35805e-06
-2.80689e-06
-3.33091e-06
-3.91083e-06
-4.5279e-06
-4.48041e-06
-4.49585e-06
-4.49896e-06
-4.4895e-06
-4.46744e-06
-4.43355e-06
-4.38959e-06
-4.3382e-06
-4.28261e-06
-4.2265e-06
-4.17373e-06
-4.12824e-06
-4.09394e-06
-4.07475e-06
-4.07474e-06
-4.09836e-06
-4.15091e-06
-4.23852e-06
-4.36863e-06
-4.5481e-06
-4.78101e-06
-5.06295e-06
-5.35465e-06
-5.59271e-06
-5.73249e-06
-5.73808e-06
-5.61923e-06
-5.39835e-06
-5.09789e-06
-4.74064e-06
-4.35284e-06
-3.96297e-06
-3.59932e-06
-3.28756e-06
-3.04893e-06
-2.8991e-06
-2.84784e-06
-2.89957e-06
-3.05296e-06
-3.30195e-06
-3.63675e-06
-4.04507e-06
-4.51323e-06
-5.02729e-06
-5.57358e-06
-3.941e-06
-3.98256e-06
-4.01413e-06
-4.03579e-06
-4.04767e-06
-4.05037e-06
-4.04514e-06
-4.03385e-06
-4.01891e-06
-4.00313e-06
-3.98965e-06
-3.98182e-06
-3.98321e-06
-3.99748e-06
-4.02865e-06
-4.08081e-06
-4.15888e-06
-4.2677e-06
-4.41334e-06
-4.59978e-06
-4.82881e-06
-5.0945e-06
-5.36349e-06
-5.58379e-06
-5.71679e-06
-5.74518e-06
-5.67942e-06
-5.53825e-06
-5.33982e-06
-5.10292e-06
-4.84827e-06
-4.59763e-06
-4.37213e-06
-4.19055e-06
-4.06801e-06
-4.01513e-06
-4.03796e-06
-4.13956e-06
-4.31866e-06
-4.57061e-06
-4.88833e-06
-5.26312e-06
-5.68539e-06
-6.14525e-06
-6.63289e-06
-3.34824e-06
-3.41814e-06
-3.47979e-06
-3.53358e-06
-3.5799e-06
-3.61941e-06
-3.6531e-06
-3.68239e-06
-3.7091e-06
-3.73541e-06
-3.76383e-06
-3.79713e-06
-3.83835e-06
-3.89075e-06
-3.95783e-06
-4.04333e-06
-4.15124e-06
-4.28569e-06
-4.45062e-06
-4.64893e-06
-4.88061e-06
-5.14091e-06
-5.39793e-06
-5.60821e-06
-5.74984e-06
-5.81783e-06
-5.81858e-06
-5.76437e-06
-5.66905e-06
-5.54774e-06
-5.41637e-06
-5.29102e-06
-5.18677e-06
-5.11685e-06
-5.09181e-06
-5.11911e-06
-5.20321e-06
-5.34576e-06
-5.54576e-06
-5.80007e-06
-6.10401e-06
-6.45178e-06
-6.83687e-06
-7.2525e-06
-7.69173e-06
-2.70063e-06
-2.80191e-06
-2.89634e-06
-2.98445e-06
-3.06693e-06
-3.14456e-06
-3.21827e-06
-3.28924e-06
-3.35888e-06
-3.42892e-06
-3.50136e-06
-3.57845e-06
-3.66268e-06
-3.75678e-06
-3.86365e-06
-3.98639e-06
-4.12818e-06
-4.29217e-06
-4.48109e-06
-4.69678e-06
-4.93888e-06
-5.203e-06
-5.46109e-06
-5.67945e-06
-5.84808e-06
-5.96699e-06
-6.03958e-06
-6.07281e-06
-6.07643e-06
-6.06177e-06
-6.04069e-06
-6.02467e-06
-6.02416e-06
-6.04803e-06
-6.10345e-06
-6.19609e-06
-6.32976e-06
-6.50522e-06
-6.72191e-06
-6.9781e-06
-7.27103e-06
-7.5971e-06
-7.95213e-06
-8.3316e-06
-8.73078e-06
-2.00756e-06
-2.14224e-06
-2.27155e-06
-2.39601e-06
-2.51645e-06
-2.63375e-06
-2.74887e-06
-2.8628e-06
-2.9767e-06
-3.09196e-06
-3.21014e-06
-3.33303e-06
-3.46263e-06
-3.60107e-06
-3.75065e-06
-3.91376e-06
-4.09283e-06
-4.29016e-06
-4.50772e-06
-4.74674e-06
-5.007e-06
-5.28572e-06
-5.56034e-06
-5.80507e-06
-6.01435e-06
-6.18941e-06
-6.33243e-06
-6.44762e-06
-6.54135e-06
-6.6214e-06
-6.69602e-06
-6.77314e-06
-6.8599e-06
-6.96236e-06
-7.08524e-06
-7.23181e-06
-7.40468e-06
-7.60567e-06
-7.83527e-06
-8.09284e-06
-8.37696e-06
-8.68558e-06
-9.0162e-06
-9.36603e-06
-9.73197e-06
-1.35546e-06
-1.5244e-06
-1.68896e-06
-1.84975e-06
-2.00766e-06
-2.16362e-06
-2.31853e-06
-2.47328e-06
-2.62886e-06
-2.7864e-06
-2.94717e-06
-3.1126e-06
-3.28426e-06
-3.46385e-06
-3.65315e-06
-3.854e-06
-4.06824e-06
-4.29763e-06
-4.54374e-06
-4.8077e-06
-5.09e-06
-5.39022e-06
-5.69069e-06
-5.96899e-06
-6.22019e-06
-6.44571e-06
-6.64747e-06
-6.82851e-06
-6.99316e-06
-7.14662e-06
-7.29445e-06
-7.44196e-06
-7.59395e-06
-7.75442e-06
-7.92678e-06
-8.11398e-06
-8.31827e-06
-8.54085e-06
-8.78235e-06
-9.04282e-06
-9.32179e-06
-9.61835e-06
-9.93118e-06
-1.02587e-05
-1.0599e-05
-8.19792e-07
-1.0191e-06
-1.21496e-06
-1.40789e-06
-1.59869e-06
-1.7882e-06
-1.97724e-06
-2.16661e-06
-2.35718e-06
-2.54989e-06
-2.74581e-06
-2.94612e-06
-3.1521e-06
-3.36511e-06
-3.58659e-06
-3.81801e-06
-4.06089e-06
-4.31673e-06
-4.58695e-06
-4.87287e-06
-5.17573e-06
-5.49672e-06
-5.82058e-06
-6.12631e-06
-6.40929e-06
-6.67118e-06
-6.91392e-06
-7.14009e-06
-7.35289e-06
-7.55602e-06
-7.75329e-06
-7.94841e-06
-8.14476e-06
-8.34541e-06
-8.55311e-06
-8.77017e-06
-8.99811e-06
-9.23794e-06
-9.4903e-06
-9.75552e-06
-1.00336e-05
-1.03243e-05
-1.06269e-05
-1.09406e-05
-1.12644e-05
-4.26431e-07
-6.50615e-07
-8.719e-07
-1.09081e-06
-1.30805e-06
-1.52434e-06
-1.7404e-06
-1.95692e-06
-2.17464e-06
-2.39438e-06
-2.61706e-06
-2.84365e-06
-3.07524e-06
-3.31297e-06
-3.55803e-06
-3.8117e-06
-4.0753e-06
-4.35018e-06
-4.63778e-06
-4.93958e-06
-5.25721e-06
-5.59243e-06
-5.93135e-06
-6.25434e-06
-6.55729e-06
-6.84208e-06
-7.1107e-06
-7.36542e-06
-7.60883e-06
-7.8437e-06
-8.07281e-06
-8.29889e-06
-8.52445e-06
-8.75182e-06
-8.98302e-06
-9.21969e-06
-9.46323e-06
-9.71463e-06
-9.9746e-06
-1.02436e-05
-1.05218e-05
-1.08093e-05
-1.11058e-05
-1.14109e-05
-1.17239e-05
-1.40251e-07
-3.85233e-07
-6.27634e-07
-8.6793e-07
-1.10673e-06
-1.34466e-06
-1.5823e-06
-1.82026e-06
-2.05918e-06
-2.29977e-06
-2.54281e-06
-2.78914e-06
-3.0397e-06
-3.29545e-06
-3.55745e-06
-3.8268e-06
-4.10472e-06
-4.39248e-06
-4.69148e-06
-5.00323e-06
-5.32946e-06
-5.67203e-06
-6.01817e-06
-6.34997e-06
-6.66393e-06
-6.96206e-06
-7.24629e-06
-7.51865e-06
-7.78127e-06
-8.03633e-06
-8.28597e-06
-8.53227e-06
-8.77715e-06
-9.02238e-06
-9.26949e-06
-9.51988e-06
-9.77473e-06
-1.0035e-05
-1.03013e-05
-1.05742e-05
-1.0854e-05
-1.11409e-05
-1.14348e-05
-1.17355e-05
-1.20428e-05
6.22482e-08
-2.00095e-07
-4.59963e-07
-7.17776e-07
-9.7406e-07
-1.22933e-06
-1.48409e-06
-1.73885e-06
-1.99415e-06
-2.25063e-06
-2.50895e-06
-2.76985e-06
-3.03415e-06
-3.30268e-06
-3.5764e-06
-3.85628e-06
-4.14345e-06
-4.43907e-06
-4.74449e-06
-5.06116e-06
-5.39075e-06
-5.73502e-06
-6.08243e-06
-6.41696e-06
-6.73571e-06
-7.04066e-06
-7.3336e-06
-7.61631e-06
-7.89059e-06
-8.15823e-06
-8.42095e-06
-8.68039e-06
-8.93808e-06
-9.19543e-06
-9.45368e-06
-9.71393e-06
-9.97729e-06
-1.02446e-05
-1.05164e-05
-1.07933e-05
-1.10755e-05
-1.13634e-05
-1.1657e-05
-1.19562e-05
-1.2261e-05
2.01751e-07
-7.4981e-08
-3.49192e-07
-6.21258e-07
-8.91625e-07
-1.16072e-06
-1.42895e-06
-1.69676e-06
-1.96463e-06
-2.2331e-06
-2.50276e-06
-2.77426e-06
-3.04831e-06
-3.32566e-06
-3.60716e-06
-3.8937e-06
-4.18629e-06
-4.48601e-06
-4.79413e-06
-5.11196e-06
-5.44109e-06
-5.78313e-06
-6.12779e-06
-6.46103e-06
-6.78045e-06
-7.08788e-06
-7.38489e-06
-7.67307e-06
-7.95398e-06
-8.22915e-06
-8.49999e-06
-8.76784e-06
-9.03398e-06
-9.29959e-06
-9.56572e-06
-9.83321e-06
-1.01031e-05
-1.0376e-05
-1.06525e-05
-1.09332e-05
-1.12184e-05
-1.15083e-05
-1.18031e-05
-1.21028e-05
-1.24073e-05
2.95522e-07
6.86065e-09
-2.79136e-07
-5.62803e-07
-8.44513e-07
-1.12461e-06
-1.40344e-06
-1.68137e-06
-1.95884e-06
-2.23631e-06
-2.51432e-06
-2.79344e-06
-3.07429e-06
-3.35754e-06
-3.64396e-06
-3.93435e-06
-4.22964e-06
-4.53081e-06
-4.83902e-06
-5.15548e-06
-5.48166e-06
-5.81899e-06
-6.15843e-06
-6.48788e-06
-6.80534e-06
-7.11238e-06
-7.4104e-06
-7.70084e-06
-7.98507e-06
-8.26442e-06
-8.54009e-06
-8.81322e-06
-9.08487e-06
-9.35601e-06
-9.62755e-06
-9.90062e-06
-1.01756e-05
-1.04531e-05
-1.07337e-05
-1.1018e-05
-1.13063e-05
-1.15988e-05
-1.18958e-05
-1.21972e-05
-1.25032e-05
3.56835e-07
5.82453e-08
-2.37471e-07
-5.30611e-07
-8.21477e-07
-1.11035e-06
-1.39752e-06
-1.68331e-06
-1.96811e-06
-2.25233e-06
-2.53645e-06
-2.82097e-06
-3.10646e-06
-3.39351e-06
-3.68283e-06
-3.97513e-06
-4.27127e-06
-4.57212e-06
-4.87877e-06
-5.19227e-06
-5.51402e-06
-5.84526e-06
-6.17813e-06
-6.50236e-06
-6.81625e-06
-7.12111e-06
-7.41822e-06
-7.70886e-06
-7.99429e-06
-8.27565e-06
-8.554e-06
-8.83032e-06
-9.10554e-06
-9.38051e-06
-9.65604e-06
-9.93303e-06
-1.02119e-05
-1.04932e-05
-1.07774e-05
-1.10651e-05
-1.13566e-05
-1.16521e-05
-1.19518e-05
-1.22559e-05
-1.25643e-05
3.95603e-07
8.8716e-08
-2.15052e-07
-5.15959e-07
-8.14248e-07
-1.11015e-06
-1.40391e-06
-1.69582e-06
-1.98624e-06
-2.27552e-06
-2.5641e-06
-2.85242e-06
-3.14101e-06
-3.43041e-06
-3.72124e-06
-4.01416e-06
-4.30994e-06
-4.60939e-06
-4.91348e-06
-5.22317e-06
-5.53974e-06
-5.86424e-06
-6.18996e-06
-6.50829e-06
-6.81774e-06
-7.11941e-06
-7.41446e-06
-7.70409e-06
-7.9894e-06
-8.27141e-06
-8.55104e-06
-8.82918e-06
-9.10665e-06
-9.38422e-06
-9.66259e-06
-9.94253e-06
-1.02245e-05
-1.05089e-05
-1.07963e-05
-1.10872e-05
-1.13818e-05
-1.16804e-05
-1.19832e-05
-1.22904e-05
-1.26019e-05
4.19098e-07
1.05237e-07
-2.05242e-07
-5.12558e-07
-8.16905e-07
-1.11847e-06
-1.41749e-06
-1.71421e-06
-2.00896e-06
-2.30206e-06
-2.5939e-06
-2.8849e-06
-3.17552e-06
-3.46626e-06
-3.75769e-06
-4.05042e-06
-4.34513e-06
-4.64256e-06
-4.9436e-06
-5.24909e-06
-5.56023e-06
-5.87788e-06
-6.19638e-06
-6.50861e-06
-6.81326e-06
-7.11125e-06
-7.40366e-06
-7.69159e-06
-7.976e-06
-8.25782e-06
-8.53787e-06
-8.81694e-06
-9.09575e-06
-9.37501e-06
-9.65551e-06
-9.93774e-06
-1.02221e-05
-1.05092e-05
-1.07994e-05
-1.10932e-05
-1.13908e-05
-1.16925e-05
-1.19985e-05
-1.2309e-05
-1.26239e-05
4.32514e-07
1.12747e-07
-2.0337e-07
-5.16022e-07
-8.2536e-07
-1.13155e-06
-1.4348e-06
-1.73535e-06
-2.03348e-06
-2.3295e-06
-2.62376e-06
-2.91663e-06
-3.20856e-06
-3.5e-06
-3.79146e-06
-4.08351e-06
-4.37677e-06
-4.67189e-06
-4.9697e-06
-5.27094e-06
-5.5767e-06
-5.8877e-06
-6.19923e-06
-6.50549e-06
-6.80531e-06
-7.09949e-06
-7.38903e-06
-7.67491e-06
-7.95802e-06
-8.23916e-06
-8.51909e-06
-8.79854e-06
-9.07816e-06
-9.35856e-06
-9.64057e-06
-9.9246e-06
-1.0211e-05
-1.05003e-05
-1.0793e-05
-1.10894e-05
-1.13898e-05
-1.16945e-05
-1.20037e-05
-1.23174e-05
-1.26359e-05
4.39452e-07
1.14641e-07
-2.06258e-07
-5.23396e-07
-8.36896e-07
-1.14691e-06
-1.45362e-06
-1.75726e-06
-2.05807e-06
-2.35636e-06
-2.65243e-06
-2.94665e-06
-3.2394e-06
-3.53113e-06
-3.82229e-06
-4.1134e-06
-4.40504e-06
-4.69779e-06
-4.9924e-06
-5.28952e-06
-5.59016e-06
-5.89489e-06
-6.19988e-06
-6.50048e-06
-6.79564e-06
-7.08608e-06
-7.37274e-06
-7.65647e-06
-7.93807e-06
-8.21829e-06
-8.4978e-06
-8.77729e-06
-9.05736e-06
-9.33852e-06
-9.62162e-06
-9.90709e-06
-1.01952e-05
-1.04864e-05
-1.07812e-05
-1.108e-05
-1.1383e-05
-1.16905e-05
-1.20026e-05
-1.23196e-05
-1.26415e-05
4.42335e-07
1.1318e-07
-2.11813e-07
-5.32764e-07
-8.49778e-07
-1.16299e-06
-1.47258e-06
-1.77875e-06
-2.08174e-06
-2.38182e-06
-2.67929e-06
-2.97448e-06
-3.26776e-06
-3.55952e-06
-3.8502e-06
-4.14027e-06
-4.43026e-06
-4.72069e-06
-5.01225e-06
-5.3055e-06
-5.60138e-06
-5.90032e-06
-6.19928e-06
-6.49461e-06
-6.78541e-06
-7.07233e-06
-7.3562e-06
-7.6378e-06
-7.91785e-06
-8.19703e-06
-8.47597e-06
-8.75529e-06
-9.0355e-06
-9.31721e-06
-9.60114e-06
-9.88779e-06
-1.01773e-05
-1.04701e-05
-1.07668e-05
-1.10677e-05
-1.1373e-05
-1.16831e-05
-1.1998e-05
-1.2318e-05
-1.26431e-05
4.42753e-07
1.09825e-07
-2.18705e-07
-5.42932e-07
-8.62948e-07
-1.17888e-06
-1.4909e-06
-1.79918e-06
-2.10397e-06
-2.4055e-06
-2.70407e-06
-2.99998e-06
-3.29358e-06
-3.58523e-06
-3.87535e-06
-4.16437e-06
-4.45276e-06
-4.74101e-06
-5.02972e-06
-5.31941e-06
-5.61092e-06
-5.90458e-06
-6.19805e-06
-6.48856e-06
-6.77535e-06
-7.05899e-06
-7.34026e-06
-7.61983e-06
-7.89837e-06
-8.17649e-06
-8.45478e-06
-8.73384e-06
-9.01413e-06
-9.29603e-06
-9.58072e-06
-9.86832e-06
-1.01589e-05
-1.04532e-05
-1.07515e-05
-1.10542e-05
-1.13617e-05
-1.1674e-05
-1.19915e-05
-1.23143e-05
-1.26424e-05
4.4172e-07
1.05492e-07
-2.26116e-07
-5.53184e-07
-8.75793e-07
-1.19406e-06
-1.50815e-06
-1.81823e-06
-2.12452e-06
-2.42725e-06
-2.72671e-06
-3.02317e-06
-3.31697e-06
-3.60844e-06
-3.89798e-06
-4.18597e-06
-4.47286e-06
-4.75908e-06
-5.0452e-06
-5.33164e-06
-5.61918e-06
-5.90808e-06
-6.19659e-06
-6.48272e-06
-6.76585e-06
-7.04651e-06
-7.32537e-06
-7.60306e-06
-7.88015e-06
-8.15724e-06
-8.43487e-06
-8.71362e-06
-8.99378e-06
-9.27587e-06
-9.56126e-06
-9.84957e-06
-1.01411e-05
-1.04366e-05
-1.07363e-05
-1.10407e-05
-1.135e-05
-1.16644e-05
-1.19842e-05
-1.23095e-05
-1.26404e-05
4.39879e-07
1.00754e-07
-2.33549e-07
-5.63095e-07
-8.8796e-07
-1.20826e-06
-1.52413e-06
-1.83574e-06
-2.14331e-06
-2.44706e-06
-2.74724e-06
-3.04414e-06
-3.33806e-06
-3.62932e-06
-3.91828e-06
-4.20531e-06
-4.49081e-06
-4.77519e-06
-5.05895e-06
-5.34246e-06
-5.62645e-06
-5.91106e-06
-6.1951e-06
-6.4773e-06
-6.75714e-06
-7.03509e-06
-7.31177e-06
-7.58772e-06
-7.86348e-06
-8.1396e-06
-8.41657e-06
-8.69498e-06
-8.97486e-06
-9.25732e-06
-9.54315e-06
-9.83198e-06
-1.01243e-05
-1.04208e-05
-1.07218e-05
-1.10276e-05
-1.13385e-05
-1.16548e-05
-1.19767e-05
-1.23042e-05
-1.26376e-05
4.37634e-07
9.59645e-08
-2.40698e-07
-5.7241e-07
-8.99239e-07
-1.22129e-06
-1.53871e-06
-1.85165e-06
-2.16031e-06
-2.46492e-06
-2.76571e-06
-3.06295e-06
-3.35694e-06
-3.64798e-06
-3.9364e-06
-4.22255e-06
-4.5068e-06
-4.78952e-06
-5.07116e-06
-5.35206e-06
-5.63287e-06
-5.91366e-06
-6.19372e-06
-6.4724e-06
-6.7493e-06
-7.02483e-06
-7.29954e-06
-7.57392e-06
-7.84847e-06
-8.12369e-06
-8.40004e-06
-8.67804e-06
-8.95779e-06
-9.2405e-06
-9.52658e-06
-9.81586e-06
-1.01089e-05
-1.04063e-05
-1.07083e-05
-1.10154e-05
-1.13278e-05
-1.16457e-05
-1.19693e-05
-1.22989e-05
-1.26344e-05
4.35181e-07
9.12559e-08
-2.47489e-07
-5.81105e-07
-9.09657e-07
-1.23325e-06
-1.55201e-06
-1.8661e-06
-2.17571e-06
-2.48104e-06
-2.78235e-06
-3.07988e-06
-3.3739e-06
-3.66472e-06
-3.95264e-06
-4.23798e-06
-4.5211e-06
-4.80232e-06
-5.08208e-06
-5.36065e-06
-5.63862e-06
-5.91601e-06
-6.19247e-06
-6.46799e-06
-6.74227e-06
-7.01565e-06
-7.28859e-06
-7.56156e-06
-7.83501e-06
-8.1094e-06
-8.38519e-06
-8.66283e-06