/*--------------------------------*- C++ -*----------------------------------*\
| =========                 |                                                 |
| \\      /  F ield         | OpenFOAM: The Open Source CFD Toolbox           |
|  \\    /   O peration     | Version:  2312                                  |
|   \\  /    A nd           | Website:  www.openfoam.com                      |
|    \\/     M anipulation  |                                                 |
\*---------------------------------------------------------------------------*/
FoamFile
{
    version     2.0;
    format      ascii;
    arch        "LSB;label=32;scalar=64";
    class       volVectorField;
    location    "79.25";
    object      U;
}
// * * * * * * * * * * * * * * * * * * * * * * * * * * * * * * * * * * * * * //

dimensions      [0 1 -1 0 0 0 0];

internalField   nonuniform List<vector> 
4800
(
(0.000500821 3.49599e-07 -3.37749e-26)
(0.000492051 4.22993e-07 -2.40172e-25)
(0.000486203 4.70932e-07 3.07512e-25)
(0.00048243 4.87915e-07 1.43381e-25)
(0.000480264 4.77698e-07 2.13882e-24)
(0.000479394 4.54019e-07 -5.1022e-24)
(0.00047973 3.95098e-07 4.78924e-24)
(0.000481147 3.2081e-07 -6.98484e-24)
(0.00048366 1.6573e-07 2.23607e-24)
(0.000487469 -1.36811e-07 7.68059e-24)
(0.000493023 -7.18185e-07 -2.36684e-24)
(0.000501653 -2.23737e-06 -1.98541e-25)
(0.000520824 -7.74486e-06 -2.89891e-24)
(0.000569692 -3.01705e-05 1.32873e-24)
(0.000651865 -0.000100076 -1.05121e-24)
(0.00154558 1.8017e-06 -1.06775e-25)
(0.00151818 1.42059e-06 1.33153e-25)
(0.00149957 1.10875e-06 -1.25162e-24)
(0.00148722 8.01829e-07 9.30866e-25)
(0.00147971 4.72544e-07 3.04797e-24)
(0.00147607 1.09568e-07 -4.88556e-24)
(0.00147596 -3.58236e-07 -1.40619e-24)
(0.00147888 -9.4691e-07 -3.4511e-25)
(0.00148495 -1.83448e-06 1.15417e-23)
(0.00149474 -3.31691e-06 -8.55049e-24)
(0.00150943 -6.05136e-06 9.31778e-25)
(0.00153193 -1.23464e-05 1.42341e-24)
(0.00157137 -3.02855e-05 -2.10214e-24)
(0.00163939 -8.51973e-05 -6.15411e-25)
(0.00171374 -0.000211328 2.73029e-24)
(0.0026968 5.8676e-06 -7.626e-26)
(0.00264894 4.63824e-06 7.78355e-26)
(0.00261594 3.65662e-06 8.1638e-25)
(0.0025936 2.73246e-06 -1.95611e-24)
(0.00257943 1.76123e-06 1.93349e-24)
(0.00257179 6.38957e-07 1.84516e-24)
(0.00256994 -7.77088e-07 -4.71948e-24)
(0.00257306 -2.58498e-06 -2.92628e-24)
(0.00258106 -5.21516e-06 7.10815e-24)
(0.00259482 -9.36119e-06 2.7033e-24)
(0.00261541 -1.65387e-05 -9.39949e-24)
(0.00264514 -3.09017e-05 -1.42432e-24)
(0.00268823 -6.2536e-05 4.02623e-24)
(0.00274357 -0.000132432 6.35813e-24)
(0.00278443 -0.000250844 -3.28513e-24)
(0.00395997 1.32533e-05 2.81066e-26)
(0.00389034 1.06351e-05 -1.96944e-25)
(0.0038416 8.54247e-06 8.87055e-25)
(0.00380791 6.58502e-06 9.67292e-25)
(0.00378574 4.54545e-06 -9.46085e-25)
(0.00377276 2.21071e-06 -5.58117e-24)
(0.00376756 -7.00623e-07 -3.78446e-24)
(0.00376935 -4.33028e-06 1.39848e-23)
(0.00377714 -9.4705e-06 5.93239e-24)
(0.00379199 -1.73594e-05 -8.58198e-24)
(0.00381402 -2.99808e-05 -3.46772e-24)
(0.00384369 -5.21241e-05 -2.65084e-24)
(0.00388011 -9.22833e-05 7.91112e-26)
(0.00391572 -0.000161527 1.96639e-24)
(0.00393071 -0.000256056 9.63695e-27)
(0.00533815 2.47085e-05 -5.13966e-26)
(0.00524657 2.007e-05 -3.17166e-25)
(0.00518138 1.63516e-05 -2.07496e-25)
(0.00513536 1.28923e-05 5.45805e-25)
(0.00510402 9.32581e-06 -1.58406e-24)
(0.00508437 5.32123e-06 3.95987e-24)
(0.00507424 5.19588e-07 -6.93599e-25)
(0.00507274 -5.68735e-06 2.46397e-24)
(0.00507821 -1.37499e-05 -1.36642e-23)
(0.00509092 -2.56951e-05 2.62127e-23)
(0.00511002 -4.34011e-05 -2.54357e-23)
(0.00513407 -7.07864e-05 1.34555e-23)
(0.00515939 -0.000113022 -1.2526e-23)
(0.00517777 -0.000173685 1.1862e-23)
(0.00517772 -0.000245557 -4.74763e-24)
(0.00683025 4.10298e-05 6.76409e-26)
(0.00671848 3.37489e-05 2.44658e-25)
(0.00663738 2.78856e-05 -1.29808e-24)
(0.00657885 2.24527e-05 -8.4171e-25)
(0.00653768 1.69081e-05 2.23261e-24)
(0.00651032 1.0806e-05 8.11465e-25)
(0.00649403 3.60173e-06 -6.37623e-24)
(0.00648726 -5.24989e-06 1.52675e-23)
(0.00648829 -1.6732e-05 -1.99214e-23)
(0.00649607 -3.24137e-05 4.77296e-24)
(0.00650886 -5.39742e-05 1.4623e-23)
(0.00652413 -8.37877e-05 -2.03829e-23)
(0.00653767 -0.000123875 1.02223e-23)
(0.00654325 -0.000173843 1.05769e-23)
(0.00653545 -0.000227463 -8.0747e-24)
(0.0084286 6.2702e-05 5.57369e-26)
(0.00830147 5.23183e-05 -3.31775e-25)
(0.00820705 4.38844e-05 1.20016e-24)
(0.00813725 3.60702e-05 -1.67598e-24)
(0.00808662 2.81596e-05 -5.77428e-24)
(0.00805124 1.96085e-05 9.85105e-24)
(0.00802803 9.75763e-06 -6.02502e-24)
(0.00801481 -2.01255e-06 2.06162e-23)
(0.00800954 -1.66145e-05 -1.40256e-23)
(0.00801035 -3.53537e-05 -6.58935e-24)
(0.00801491 -5.9273e-05 -1.30447e-23)
(0.00802037 -8.92671e-05 1.19956e-23)
(0.00802323 -0.000125314 3.39144e-24)
(0.0080196 -0.000165574 2.93441e-24)
(0.00800754 -0.000205742 -2.58851e-24)
(0.0101164 8.93867e-05 -8.02159e-26)
(0.00998288 7.5852e-05 1.09587e-24)
(0.0098807 6.46843e-05 -2.56861e-24)
(0.00980304 5.42665e-05 -2.14908e-24)
(0.00974492 4.3761e-05 7.73643e-25)
(0.0097025 3.25646e-05 1.56933e-24)
(0.00967259 2.00052e-05 5.73314e-24)
(0.00965264 5.4311e-06 -1.57121e-23)
(0.00964029 -1.18606e-05 -8.47179e-24)
(0.00963329 -3.27106e-05 2.31953e-23)
(0.00962916 -5.75285e-05 -7.25871e-24)
(0.00962529 -8.61975e-05 2.48744e-23)
(0.00961923 -0.000117768 -1.31312e-23)
(0.00960879 -0.000150322 -4.23008e-24)
(0.00959373 -0.000181178 2.51505e-24)
(0.0118668 0.00011928 -1.06586e-26)
(0.0117402 0.000103304 6.05376e-25)
(0.0116392 8.97475e-05 -8.63971e-25)
(0.0115598 7.68708e-05 2.10569e-24)
(0.0114984 6.38405e-05 -1.26451e-23)
(0.0114517 5.0074e-05 1.33803e-23)
(0.0114168 3.49869e-05 -2.12981e-23)
(0.0113911 1.80243e-05 1.30672e-23)
(0.0113723 -1.27584e-06 9.79057e-24)
(0.0113581 -2.32451e-05 2.14364e-23)
(0.0113462 -4.78005e-05 -2.80579e-23)
(0.0113345 -7.43319e-05 -5.26538e-24)
(0.0113216 -0.000101709 2.3685e-24)
(0.0113061 -0.000128452 1.74549e-23)
(0.0112886 -0.000152992 -7.13614e-24)
(0.0136467 0.000148596 5.96489e-26)
(0.0135426 0.000131936 -2.55953e-25)
(0.0134544 0.0001171 1.14675e-24)
(0.0133817 0.00010248 -4.05335e-24)
(0.0133232 8.74567e-05 6.17834e-24)
(0.0132768 7.15929e-05 -8.03786e-24)
(0.0132403 5.4502e-05 1.35301e-23)
(0.0132116 3.58343e-05 2.4272e-24)
(0.0131885 1.54038e-05 -1.88162e-23)
(0.013169 -6.75088e-06 2.69821e-23)
(0.0131515 -3.02232e-05 -2.98529e-23)
(0.0131344 -5.42978e-05 -8.91143e-24)
(0.0131169 -7.80161e-05 1.56591e-23)
(0.0130982 -0.000100401 4.69302e-24)
(0.0130791 -0.000120578 -2.06e-24)
(0.0154289 0.00017211 2.53949e-25)
(0.0153594 0.000157333 -2.02e-24)
(0.0152946 0.000143081 -3.23129e-24)
(0.0152374 0.000128086 7.65647e-24)
(0.0151889 0.000112155 3.47287e-24)
(0.0151484 9.51416e-05 -2.18336e-23)
(0.0151149 7.69718e-05 6.68717e-24)
(0.0150869 5.75643e-05 4.84431e-24)
(0.0150629 3.69982e-05 -2.13344e-23)
(0.0150415 1.55444e-05 2.21519e-23)
(0.0150214 -6.27714e-06 -1.80108e-23)
(0.0150018 -2.7826e-05 4.62295e-23)
(0.0149823 -4.84062e-05 -2.23853e-23)
(0.0149623 -6.74377e-05 1.32572e-23)
(0.0149427 -8.44569e-05 -3.6375e-24)
(0.0172089 0.000186039 -1.16255e-25)
(0.0171757 0.000175106 1.40888e-24)
(0.0171387 0.000163362 -2.69622e-24)
(0.0171019 0.000149701 -1.37274e-24)
(0.0170681 0.000134297 1.53495e-23)
(0.0170381 0.000117409 -2.18331e-24)
(0.0170117 9.93892e-05 -2.75168e-23)
(0.0169882 8.04169e-05 3.22482e-23)
(0.0169668 6.07626e-05 -7.21943e-24)
(0.0169467 4.08292e-05 -2.53307e-23)
(0.0169273 2.11073e-05 2.71668e-23)
(0.0169081 2.10828e-06 1.48414e-23)
(0.0168891 -1.57006e-05 -1.2346e-23)
(0.0168699 -3.20024e-05 -2.16968e-23)
(0.0168514 -4.65641e-05 1.83189e-24)
(0.0190054 0.000187708 2.32703e-26)
(0.0190001 0.000182771 -1.52734e-24)
(0.0189884 0.000175582 7.34251e-24)
(0.0189698 0.000164622 4.38029e-25)
(0.0189504 0.000150969 4.23991e-24)
(0.0189314 0.000135344 -1.51685e-23)
(0.0189134 0.000118599 1.30277e-23)
(0.0188961 0.000101142 3.02577e-24)
(0.0188794 8.33301e-05 2.70991e-23)
(0.0188628 6.5571e-05 -4.1763e-23)
(0.0188463 4.82987e-05 -1.90584e-23)
(0.0188296 3.18853e-05 -1.2744e-23)
(0.018813 1.66366e-05 2.39268e-23)
(0.0187961 2.71751e-06 -7.03619e-25)
(0.0187798 -9.76069e-06 2.34763e-24)
(0.0208567 0.000185809 -2.58891e-27)
(0.0208582 0.000182663 1.72555e-24)
(0.0208563 0.000178477 -2.42311e-24)
(0.0208513 0.000172184 1.29298e-26)
(0.0208423 0.000161815 3.09064e-24)
(0.0208313 0.000148295 7.94923e-24)
(0.0208199 0.000133528 -3.08799e-23)
(0.0208079 0.000118206 2.57026e-24)
(0.0207954 0.000102764 1.57475e-23)
(0.0207824 8.75368e-05 -7.32317e-24)
(0.0207691 7.28535e-05 1.99924e-23)
(0.0207554 5.89765e-05 1.41256e-23)
(0.0207416 4.61072e-05 -2.56275e-23)
(0.0207275 3.43318e-05 1.76706e-23)
(0.0207138 2.37031e-05 -1.47176e-23)
(0.0227491 0.000182353 -2.1834e-25)
(0.0227527 0.000181642 -3.78665e-25)
(0.0227524 0.000179317 2.82025e-24)
(0.0227503 0.000174844 -1.43131e-23)
(0.0227459 0.000168096 1.32871e-23)
(0.0227389 0.000157697 -9.5837e-24)
(0.0227309 0.000145518 6.90238e-24)
(0.0227219 0.000132626 -4.8651e-23)
(0.0227122 0.000119671 7.02845e-23)
(0.0227016 0.000106978 -4.15099e-23)
(0.0226906 9.47794e-05 3.71381e-23)
(0.0226791 8.32457e-05 3.12436e-23)
(0.0226675 7.25108e-05 -5.46685e-23)
(0.0226556 6.26251e-05 1.78457e-23)
(0.0226439 5.36188e-05 -7.52752e-25)
(0.024629 0.000176951 -8.71281e-27)
(0.0246347 0.000180994 -1.28358e-24)
(0.0246346 0.000179813 1.18988e-24)
(0.024633 0.00017702 -3.75386e-25)
(0.0246295 0.000172464 5.43127e-24)
(0.024624 0.000165699 -9.71748e-24)
(0.0246169 0.00015644 8.99734e-24)
(0.0246093 0.000146199 -2.81108e-23)
(0.0246011 0.000135715 6.37991e-23)
(0.024592 0.00012539 -8.15576e-23)
(0.0245825 0.000115439 6.6812e-23)
(0.0245724 0.000105978 -2.25789e-23)
(0.0245623 9.70976e-05 1.17953e-24)
(0.0245519 8.88331e-05 5.21074e-24)
(0.0245417 8.12112e-05 -9.99204e-24)
(0.026411 0.000168477 -7.05878e-25)
(0.0264185 0.000179074 -3.26798e-25)
(0.0264192 0.000180673 1.72603e-24)
(0.0264178 0.000179236 -2.60504e-24)
(0.0264149 0.00017658 9.30952e-24)
(0.0264104 0.000172596 -1.00085e-23)
(0.0264042 0.000166664 -8.59232e-24)
(0.0263971 0.000159214 -2.05932e-23)
(0.0263898 0.000151238 1.0982e-23)
(0.026382 0.00014317 4.99402e-23)
(0.0263737 0.000135268 -2.62708e-23)
(0.0263649 0.000127655 1.55347e-23)
(0.0263561 0.000120408 -6.42295e-24)
(0.0263469 0.000113556 -1.89144e-23)
(0.0263379 0.000107131 9.68222e-24)
(0.0279775 0.000160828 2.12433e-25)
(0.027985 0.000172909 -1.85763e-25)
(0.0279868 0.000181188 2.33483e-24)
(0.0279858 0.000181756 -6.58578e-24)
(0.0279836 0.00018065 -1.35884e-24)
(0.0279801 0.000178633 1.76983e-23)
(0.0279752 0.000175593 -1.44489e-23)
(0.0279691 0.00017104 -8.36934e-24)
(0.0279626 0.000165545 8.1118e-24)
(0.0279559 0.000159684 -8.70371e-24)
(0.027949 0.000153719 2.04345e-23)
(0.0279415 0.000147808 1.00207e-23)
(0.027934 0.000142042 -3.75621e-23)
(0.0279261 0.00013646 2.5801e-23)
(0.0279183 0.0001311 -5.23097e-24)
(0.0291579 0.000153854 5.50602e-25)
(0.0291632 0.00016818 -5.46727e-25)
(0.0291669 0.000177469 5.70918e-25)
(0.0291675 0.000183842 4.44496e-24)
(0.0291653 0.000185261 -5.79275e-24)
(0.0291633 0.000184696 -7.66727e-24)
(0.0291604 0.000183406 -7.6948e-24)
(0.0291565 0.000181402 2.5747e-23)
(0.0291516 0.000178186 2.35979e-23)
(0.0291465 0.000174369 -5.63249e-23)
(0.0291414 0.000170186 3.13063e-23)
(0.0291358 0.000165815 -2.11463e-24)
(0.02913 0.00016137 -1.65621e-24)
(0.0291239 0.000156912 2.19478e-24)
(0.0291177 0.000152493 -1.00081e-24)
(0.0297247 0.000143615 -1.21612e-24)
(0.0297326 0.000160565 2.77859e-25)
(0.0297377 0.000172362 3.8361e-24)
(0.02974 0.000179952 -6.86939e-24)
(0.0297421 0.000185381 2.90786e-24)
(0.0297417 0.000187887 4.62671e-24)
(0.0297409 0.000187979 -3.07383e-24)
(0.0297394 0.000187458 -2.09199e-23)
(0.0297372 0.000186248 5.20362e-23)
(0.0297345 0.000184207 -2.19737e-23)
(0.0297316 0.000181638 7.66108e-24)
(0.0297284 0.000178664 -1.39057e-23)
(0.0297249 0.000175392 -1.34609e-23)
(0.0297211 0.000171909 1.94596e-23)
(0.0297172 0.000168287 -8.24119e-24)
(0.0295085 0.000134003 1.57736e-24)
(0.0295145 0.00015193 -2.47852e-24)
(0.0295186 0.000165022 1.39769e-24)
(0.0295215 0.000174955 -6.21357e-24)
(0.0295234 0.000181649 9.50707e-24)
(0.0295243 0.00018611 -6.95043e-24)
(0.0295247 0.000188886 -1.4962e-23)
(0.0295244 0.000190011 3.62738e-23)
(0.0295237 0.000190097 6.73294e-24)
(0.0295228 0.000189448 -1.95397e-23)
(0.0295216 0.000188151 -9.35156e-24)
(0.0295202 0.000186298 1.02032e-23)
(0.0295185 0.000183986 -1.06629e-23)
(0.0295166 0.000181286 5.90538e-24)
(0.0295145 0.00017827 -2.52278e-24)
(0.0284848 0.000126457 8.0305e-25)
(0.0284937 0.000144017 -1.23946e-24)
(0.0285016 0.000157554 8.72105e-25)
(0.0285085 0.000167781 -3.99442e-24)
(0.0285144 0.000175355 6.89615e-24)
(0.0285196 0.000180867 3.48775e-25)
(0.0285242 0.000184625 -2.31274e-24)
(0.0285282 0.000186987 -2.77084e-24)
(0.0285315 0.00018824 -5.24194e-24)
(0.0285344 0.000188527 3.18998e-23)
(0.0285369 0.000187992 -1.88933e-23)
(0.028539 0.0001869 1.49155e-24)
(0.0285409 0.000185136 -2.25797e-23)
(0.0285425 0.000182901 1.08678e-23)
(0.0285438 0.000180251 3.37724e-24)
(0.026892 0.000118489 1.71968e-24)
(0.0268993 0.000134905 -2.44331e-24)
(0.0269064 0.000147784 6.7218e-25)
(0.0269133 0.000157778 1.65712e-24)
(0.0269199 0.000165439 4.95537e-24)
(0.0269261 0.000171197 -1.24524e-23)
(0.0269321 0.000175353 7.00532e-24)
(0.0269377 0.000178138 -3.17293e-24)
(0.026943 0.000179791 2.29099e-24)
(0.026948 0.000180524 1.03991e-23)
(0.0269528 0.000180478 -2.21668e-23)
(0.0269575 0.000179718 1.61721e-23)
(0.0269619 0.000178317 -1.49072e-24)
(0.0269661 0.000176366 -4.49077e-24)
(0.0269701 0.000173927 6.87429e-25)
(0.024957 0.000111822 5.98157e-25)
(0.0249649 0.000126685 -1.90466e-24)
(0.0249732 0.000138545 1.29066e-24)
(0.0249818 0.000147921 7.7954e-25)
(0.0249904 0.000155239 -4.46271e-24)
(0.0249989 0.000160834 4.48343e-25)
(0.0250074 0.000164957 1.20617e-24)
(0.0250157 0.00016782 3.35312e-24)
(0.0250238 0.000169623 -9.9774e-24)
(0.0250318 0.000170518 -2.71759e-24)
(0.0250396 0.000170602 1.34352e-23)
(0.0250474 0.000169952 3.42602e-24)
(0.0250549 0.000168638 -5.79612e-24)
(0.0250623 0.000166734 1.757e-24)
(0.0250695 0.000164299 -4.88591e-25)
(0.0228301 0.000105087 7.52784e-26)
(0.0228401 0.000118018 -6.46194e-25)
(0.022851 0.000128456 4.7763e-25)
(0.0228625 0.000136784 -1.33649e-24)
(0.0228743 0.000143332 3.17053e-24)
(0.0228863 0.000148366 -1.39492e-24)
(0.0228983 0.0001521 -4.69499e-25)
(0.0229104 0.000154706 3.86646e-25)
(0.0229223 0.00015632 2.89848e-24)
(0.0229343 0.000157055 -1.51589e-23)
(0.0229461 0.000157002 1.31399e-23)
(0.0229578 0.000156236 1.34416e-24)
(0.0229693 0.000154819 -1.81646e-24)
(0.0229807 0.000152811 -2.92867e-24)
(0.022992 0.000150262 2.44021e-24)
(0.0206301 9.66089e-05 1.10101e-25)
(0.0206435 0.000107383 5.50926e-25)
(0.0206582 0.000116141 -7.02324e-25)
(0.0206736 0.00012316 2.28483e-25)
(0.0206895 0.000128693 -3.81017e-24)
(0.0207056 0.000132944 2.89349e-24)
(0.020722 0.000136074 -2.21452e-25)
(0.0207384 0.000138204 1.93617e-24)
(0.0207548 0.000139439 5.46453e-25)
(0.0207712 0.000139871 -1.41479e-25)
(0.0207875 0.000139578 3.37514e-24)
(0.0208036 0.000138623 -1.64548e-24)
(0.0208196 0.000137058 -3.86615e-25)
(0.0208355 0.000134932 -7.43359e-25)
(0.0208511 0.000132286 -2.1057e-24)
(0.018445 8.57974e-05 7.91708e-25)
(0.0184624 9.44301e-05 -1.07769e-24)
(0.0184812 0.000101484 -8.53407e-26)
(0.0185008 0.000107152 7.30335e-26)
(0.0185209 0.000111615 -6.30042e-26)
(0.0185413 0.000115017 1.4644e-24)
(0.0185619 0.00011747 -3.45119e-25)
(0.0185826 0.000119069 -2.61108e-24)
(0.0186033 0.000119895 5.67399e-24)
(0.018624 0.00012002 -7.02535e-24)
(0.0186444 0.000119503 4.82642e-24)
(0.0186648 0.000118395 -2.76079e-24)
(0.0186848 0.000116738 5.44078e-24)
(0.0187047 0.000114569 -6.31387e-24)
(0.0187241 0.000111925 1.93571e-24)
(0.0163331 7.30871e-05 -1.57263e-25)
(0.0163542 7.97751e-05 -3.08988e-25)
(0.0163764 8.52638e-05 -2.81282e-25)
(0.0163995 8.96801e-05 6.47692e-25)
(0.0164231 9.31426e-05 -5.66981e-25)
(0.016447 9.57495e-05 5.99988e-25)
(0.016471 9.75836e-05 -8.11411e-25)
(0.0164951 9.87144e-05 1.06951e-24)
(0.0165191 9.92008e-05 4.42963e-24)
(0.016543 9.90941e-05 -4.1226e-24)
(0.0165666 9.84384e-05 -2.05538e-25)
(0.01659 9.72716e-05 3.28188e-24)
(0.0166131 9.56283e-05 -3.66194e-24)
(0.0166358 9.35405e-05 -4.55377e-25)
(0.016658 9.10382e-05 5.36015e-25)
(0.0143284 5.95135e-05 6.22803e-25)
(0.0143518 6.45483e-05 4.36802e-25)
(0.0143762 6.86999e-05 -8.45455e-25)
(0.0144014 7.20457e-05 -3.13518e-25)
(0.014427 7.4659e-05 -5.08529e-25)
(0.0144529 7.66058e-05 1.59175e-24)
(0.0144789 7.79431e-05 8.10809e-25)
(0.0145049 7.87183e-05 -1.16584e-24)
(0.0145307 7.89714e-05 -6.87458e-25)
(0.0145564 7.87389e-05 2.75275e-24)
(0.0145817 7.80533e-05 9.58554e-25)
(0.0146067 7.69444e-05 -8.65159e-24)
(0.0146312 7.54399e-05 3.43531e-24)
(0.0146552 7.35658e-05 1.28501e-24)
(0.0146785 7.1347e-05 1.16986e-25)
(0.0124476 4.62606e-05 -6.65982e-25)
(0.0124716 4.9959e-05 8.10715e-25)
(0.0124966 5.30314e-05 -1.14811e-26)
(0.0125222 5.55173e-05 5.84816e-26)
(0.0125482 5.74573e-05 -3.54768e-25)
(0.0125744 5.88944e-05 -3.46897e-25)
(0.0126007 5.98651e-05 -1.95447e-25)
(0.012627 6.04003e-05 4.03038e-25)
(0.0126531 6.05268e-05 -1.0687e-24)
(0.0126789 6.02704e-05 3.56605e-24)
(0.0127043 5.96548e-05 3.58501e-25)
(0.0127293 5.87024e-05 -8.72075e-25)
(0.0127537 5.74349e-05 -8.77742e-25)
(0.0127775 5.58724e-05 -4.97718e-25)
(0.0128005 5.40353e-05 -3.06367e-25)
(0.0106972 3.42991e-05 5.06615e-25)
(0.0107203 3.69576e-05 -4.33711e-25)
(0.0107442 3.9193e-05 -8.26757e-25)
(0.0107687 4.10132e-05 7.48931e-25)
(0.0107936 4.24394e-05 -4.61095e-25)
(0.0108186 4.34988e-05 -5.55874e-25)
(0.0108438 4.42134e-05 4.45601e-25)
(0.0108688 4.46023e-05 2.31207e-24)
(0.0108937 4.4683e-05 -2.082e-24)
(0.0109182 4.4473e-05 -3.56007e-25)
(0.0109424 4.39889e-05 9.04673e-25)
(0.0109661 4.32472e-05 4.91415e-25)
(0.0109891 4.22637e-05 -9.52715e-25)
(0.0110115 4.10541e-05 -6.33371e-26)
(0.0110331 3.96345e-05 3.40528e-25)
(0.00907844 2.42185e-05 -3.26326e-25)
(0.0090993 2.60898e-05 -8.87892e-26)
(0.00912094 2.76898e-05 2.92508e-25)
(0.0091431 2.90035e-05 -7.35288e-26)
(0.00916561 3.00438e-05 -2.64694e-26)
(0.00918833 3.08267e-05 1.3632e-24)
(0.00921112 3.13642e-05 -2.67567e-24)
(0.00923386 3.16672e-05 1.50857e-24)
(0.00925643 3.17466e-05 -7.89676e-25)
(0.00927873 3.16137e-05 -3.38471e-25)
(0.00930064 3.12796e-05 6.83065e-25)
(0.00932208 3.07559e-05 -7.05019e-25)
(0.00934293 3.00539e-05 1.13052e-24)
(0.00936314 2.91853e-05 2.61867e-25)
(0.00938257 2.81622e-05 -1.56116e-25)
(0.00758941 1.62292e-05 -1.617e-25)
(0.00760724 1.75148e-05 7.14894e-26)
(0.00762579 1.86365e-05 7.77932e-26)
(0.00764484 1.95671e-05 -7.95121e-26)
(0.00766425 2.03171e-05 1.63867e-25)
(0.00768389 2.0894e-05 -5.08281e-25)
(0.00770364 2.13034e-05 4.26645e-25)
(0.00772337 2.1551e-05 -1.98704e-25)
(0.00774298 2.1643e-05 1.62369e-25)
(0.00776237 2.15864e-05 3.65542e-25)
(0.00778144 2.13881e-05 2.66196e-25)
(0.00780009 2.10558e-05 -1.16538e-24)
(0.00781822 2.05974e-05 -7.20919e-25)
(0.00783577 2.00213e-05 1.06186e-24)
(0.00785264 1.93359e-05 2.56231e-25)
(0.00622649 1.02524e-05 -5.9765e-26)
(0.00624092 1.11075e-05 -9.48181e-28)
(0.00625604 1.18706e-05 -4.76479e-25)
(0.00627163 1.25119e-05 3.52168e-25)
(0.00628758 1.30409e-05 2.91615e-25)
(0.00630379 1.34592e-05 3.2835e-25)
(0.00632014 1.37685e-05 -3.23295e-25)
(0.00633653 1.39715e-05 -8.22485e-25)
(0.00635286 1.40714e-05 1.47402e-24)
(0.00636904 1.4072e-05 -4.58797e-25)
(0.00638498 1.39774e-05 -7.70675e-25)
(0.0064006 1.37927e-05 1.55546e-24)
(0.0064158 1.35226e-05 -8.57544e-25)
(0.00643053 1.31731e-05 2.45827e-25)
(0.00644469 1.275e-05 -4.7556e-25)
(0.00498468 6.03274e-06 -2.37219e-25)
(0.00499573 6.57507e-06 -1.97007e-25)
(0.00500739 7.07177e-06 1.08504e-25)
(0.0050195 7.49607e-06 3.83477e-25)
(0.00503197 7.8555e-06 -3.14362e-26)
(0.00504471 8.14815e-06 1.77687e-25)
(0.00505762 8.37403e-06 -4.98505e-25)
(0.00507062 8.53404e-06 -1.90655e-25)
(0.00508363 8.6295e-06 1.0281e-25)
(0.00509657 8.66245e-06 1.55309e-24)
(0.00510935 8.63502e-06 1.71486e-25)
(0.00512192 8.55021e-06 -1.72206e-24)
(0.00513418 8.41082e-06 2.44296e-25)
(0.00514609 8.22092e-06 5.59856e-25)
(0.00515757 7.98418e-06 -4.14907e-25)
(0.00385784 3.23497e-06 -5.24158e-26)
(0.00386577 3.55436e-06 1.41202e-26)
(0.00387423 3.85722e-06 2.24341e-25)
(0.00388309 4.12129e-06 -1.62779e-26)
(0.00389229 4.35119e-06 -1.7599e-25)
(0.00390175 4.54373e-06 9.17154e-27)
(0.0039114 4.69838e-06 -1.2567e-25)
(0.00392118 4.81523e-06 8.20427e-25)
(0.00393103 4.89465e-06 -6.85491e-25)
(0.00394086 4.93759e-06 -7.25471e-25)
(0.00395063 4.94502e-06 -2.63229e-25)
(0.00396027 4.9186e-06 1.14678e-24)
(0.00396972 4.85977e-06 -3.16549e-25)
(0.00397894 4.77119e-06 3.58813e-25)
(0.00398786 4.65532e-06 -2.12537e-25)
(0.00283895 1.51303e-06 -9.73811e-26)
(0.00284419 1.67733e-06 2.27763e-26)
(0.00284986 1.84309e-06 1.97388e-25)
(0.00285586 1.99168e-06 -1.15234e-25)
(0.00286216 2.12466e-06 3.91968e-28)
(0.00286869 2.23914e-06 1.9603e-25)
(0.00287542 2.3346e-06 -5.95944e-25)
(0.00288228 2.4108e-06 8.98713e-25)
(0.00288924 2.46769e-06 -9.8147e-25)
(0.00289625 2.50562e-06 9.11564e-25)
(0.00290324 2.52493e-06 -3.58494e-25)
(0.00291019 2.52642e-06 -7.5019e-26)
(0.00291704 2.5107e-06 -2.3301e-25)
(0.00292376 2.47941e-06 3.17234e-25)
(0.0029303 2.43439e-06 -8.76052e-26)
(0.0019204 5.56588e-07 1.4887e-25)
(0.00192346 6.17716e-07 9.50105e-26)
(0.00192684 6.90584e-07 -4.55655e-25)
(0.00193046 7.59487e-07 2.49038e-25)
(0.00193431 8.23671e-07 -3.56995e-26)
(0.00193836 8.81132e-07 -7.73542e-26)
(0.00194257 9.3129e-07 1.21122e-26)
(0.00194692 9.73719e-07 3.26054e-25)
(0.00195136 1.00814e-06 -4.13536e-25)
(0.00195587 1.03454e-06 -1.41848e-25)
(0.00196042 1.05287e-06 7.32802e-25)
(0.00196496 1.06343e-06 -2.49887e-25)
(0.00196947 1.06633e-06 -2.72678e-25)
(0.00197393 1.06247e-06 2.24223e-26)
(0.00197831 1.0534e-06 5.88303e-26)
(0.00109433 1.23477e-07 -1.51187e-25)
(0.00109574 1.37144e-07 3.97478e-25)
(0.00109734 1.61549e-07 8.51504e-26)
(0.00109909 1.86164e-07 -3.03287e-25)
(0.001101 2.09825e-07 -2.78936e-26)
(0.00110304 2.3168e-07 3.58936e-27)
(0.00110519 2.51339e-07 -9.57102e-26)
(0.00110745 2.68489e-07 2.2731e-25)
(0.00110978 2.82913e-07 -5.19031e-25)
(0.00111218 2.94546e-07 2.46859e-25)
(0.00111462 3.03312e-07 3.13002e-25)
(0.00111709 3.09318e-07 -2.37568e-25)
(0.00111956 3.12524e-07 4.86539e-25)
(0.00112202 3.13318e-07 -5.53508e-25)
(0.00112446 3.12881e-07 1.27424e-25)
(0.000352858 3.4111e-08 -1.08929e-27)
(0.000353107 8.01456e-08 7.22079e-26)
(0.000353434 1.14247e-07 3.92137e-26)
(0.000353823 1.36155e-07 -1.00535e-25)
(0.000354275 1.48325e-07 8.27364e-27)
(0.000354784 1.52947e-07 -1.88836e-26)
(0.000355344 1.51822e-07 -1.59483e-26)
(0.00035595 1.46369e-07 -2.25803e-25)
(0.000356593 1.37706e-07 3.23257e-25)
(0.00035727 1.26709e-07 1.47994e-25)
(0.000357972 1.14003e-07 -5.14833e-25)
(0.000358695 1.0006e-07 2.58517e-25)
(0.000359432 8.51178e-08 1.81613e-25)
(0.000360177 6.93949e-08 -1.64736e-25)
(0.000360926 5.33567e-08 1.05876e-26)
(0.000967479 -0.000270841 1.03536e-25)
(0.00110477 -0.000201615 2.75248e-24)
(0.00133404 -0.000130714 -8.06071e-24)
(0.00156685 -7.61213e-05 1.20153e-23)
(0.0017877 -3.59199e-05 -4.51006e-24)
(0.00200175 -8.93105e-06 -4.54237e-24)
(0.00220909 7.9069e-06 5.24355e-24)
(0.00241063 1.72705e-05 -1.05138e-23)
(0.00260751 2.14526e-05 6.443e-25)
(0.00280078 2.24078e-05 6.66692e-24)
(0.0029914 2.18177e-05 -1.2672e-24)
(0.00318024 2.12399e-05 1.359e-24)
(0.00336811 2.20634e-05 -1.38005e-25)
(0.00355583 2.5853e-05 8.16907e-25)
(0.00374448 3.429e-05 -2.99987e-24)
(0.00393557 4.92321e-05 1.63545e-24)
(0.00413141 7.26092e-05 -5.05561e-25)
(0.00433533 0.000106045 3.17632e-26)
(0.00455264 0.000150569 1.22032e-24)
(0.00478893 0.000205634 -7.71395e-25)
(0.00505309 0.000265631 1.02319e-25)
(0.00535202 0.0003218 -9.12142e-26)
(0.00566338 0.000354151 1.85812e-25)
(0.00594511 0.00034874 7.51674e-25)
(0.00618234 0.00030745 -1.34933e-24)
(0.00637455 0.000235793 -9.91853e-25)
(0.006523 0.00013899 -3.39615e-26)
(0.00662924 2.13353e-05 2.59051e-24)
(0.0066939 -0.000113271 4.03756e-24)
(0.00671662 -0.00026052 -7.99798e-24)
(0.0066964 -0.00041518 7.86713e-24)
(0.00663217 -0.000570848 -7.96207e-24)
(0.00652327 -0.000720038 2.42885e-24)
(0.00636982 -0.000854449 1.48129e-24)
(0.00617277 -0.000965248 -1.5674e-24)
(0.00593382 -0.0010432 1.09552e-24)
(0.00565514 -0.00107854 1.17884e-24)
(0.00533917 -0.00106025 2.15987e-24)
(0.00498864 -0.000974674 1.76113e-24)
(0.00460712 -0.000803239 -7.57441e-24)
(0.00419908 -0.000521854 -1.06649e-25)
(0.00377217 -0.000107676 4.22279e-24)
(0.00332185 0.000431205 1.78904e-24)
(0.00287403 0.00101625 -6.34487e-24)
(0.00262402 0.00134837 -3.4959e-25)
(0.0018116 -0.00035435 -3.1028e-24)
(0.00186746 -0.000319389 -4.55684e-24)
(0.00200487 -0.000250947 9.4126e-24)
(0.00217844 -0.000187995 4.63934e-24)
(0.00236103 -0.000136361 -1.62502e-23)
(0.00254774 -9.78511e-05 1.76474e-23)
(0.00273434 -7.0573e-05 -6.36648e-24)
(0.00291911 -5.20197e-05 5.22027e-24)
(0.00310171 -3.9839e-05 -6.8871e-24)
(0.0032823 -3.19356e-05 7.92983e-26)
(0.00346133 -2.64697e-05 -3.64097e-24)
(0.00363932 -2.17437e-05 7.1944e-24)
(0.00381687 -1.6275e-05 -3.94498e-24)
(0.00399469 -8.43176e-06 -3.45585e-24)
(0.00417378 3.49167e-06 -2.233e-24)
(0.00435558 2.13397e-05 4.35793e-24)
(0.00454229 4.70008e-05 -5.19884e-25)
(0.00473712 8.20161e-05 2.2659e-24)
(0.00494523 0.000127394 3.90881e-25)
(0.00517196 0.000182562 -6.83638e-25)
(0.00542608 0.000242019 -3.0179e-25)
(0.00571471 0.00029748 -1.99229e-25)
(0.00601717 0.000329781 9.99994e-25)
(0.00629307 0.000325571 1.30757e-24)
(0.00652764 0.000286672 -1.09947e-24)
(0.00671979 0.000218413 -5.89437e-24)
(0.00687015 0.000125955 8.13953e-24)
(0.00697967 1.36936e-05 -5.93381e-24)
(0.00704865 -0.000114346 2.01952e-24)
(0.00707661 -0.000253621 -1.49425e-24)
(0.00706263 -0.000398773 1.17541e-23)
(0.00700589 -0.000543351 -1.70453e-23)
(0.00690612 -0.000679907 1.05418e-23)
(0.00676392 -0.000800242 -1.03167e-23)
(0.00658092 -0.000895652 8.84446e-24)
(0.00635967 -0.000957026 -1.78909e-24)
(0.00610362 -0.000974697 4.73661e-24)
(0.00581713 -0.000937863 -9.22132e-26)
(0.00550589 -0.000833394 -6.2279e-24)
(0.00517836 -0.000643942 -5.11136e-24)
(0.00484778 -0.000347325 1.1739e-23)
(0.00453754 7.74029e-05 -1.24656e-23)
(0.00427588 0.000619482 -3.77558e-24)
(0.00411155 0.00118612 8.75923e-24)
(0.00411108 0.00144391 3.36325e-24)
(0.00280156 -0.000360848 -3.67435e-26)
(0.0028079 -0.000366818 -5.24808e-24)
(0.00286168 -0.000329864 1.00121e-23)
(0.00296681 -0.00027693 8.91591e-24)
(0.0030969 -0.000225125 -1.44019e-23)
(0.00324287 -0.000181365 2.79259e-25)
(0.00339729 -0.000147054 1.44465e-24)
(0.00355584 -0.000121155 1.59815e-23)
(0.00371628 -0.000101962 -1.89386e-23)
(0.00387751 -8.76119e-05 1.16718e-23)
(0.00403915 -7.63262e-05 3.45771e-24)
(0.00420117 -6.64657e-05 -1.91975e-23)
(0.00436383 -5.64113e-05 6.91882e-24)
(0.0045276 -4.45332e-05 2.69743e-24)
(0.00469331 -2.91304e-05 -5.50971e-24)
(0.00486227 -8.3876e-06 8.86113e-24)
(0.00503655 1.95335e-05 -6.21483e-24)
(0.0052192 5.60827e-05 -1.40658e-25)
(0.00541525 0.000102246 4.55464e-25)
(0.00562968 0.000157438 5.13679e-25)
(0.0058712 0.000216241 5.28333e-26)
(0.00614708 0.000270847 3.31872e-25)
(0.00643847 0.000302963 -1.01767e-24)
(0.00670676 0.000299843 3.09216e-24)
(0.00693728 0.000263257 -5.05655e-24)
(0.00712835 0.000198364 2.94063e-24)
(0.00727985 0.000110275 -7.39655e-24)
(0.00739216 3.45108e-06 1.00057e-23)
(0.00746517 -0.000117854 -1.00049e-23)
(0.00749832 -0.00024896 -1.48227e-25)
(0.00749075 -0.000384362 -9.56438e-25)
(0.00744194 -0.000517563 1.98432e-23)
(0.00735202 -0.000641174 -6.76792e-24)
(0.00722215 -0.000747144 -5.1242e-24)
(0.00705467 -0.000826991 6.13678e-24)
(0.0068531 -0.000871912 -9.30148e-25)
(0.00662223 -0.000872687 -1.62146e-24)
(0.00636839 -0.000819313 9.28804e-24)
(0.00610016 -0.000700296 -1.98227e-23)
(0.00583027 -0.000501685 8.02773e-24)
(0.00557837 -0.000207589 3.3314e-24)
(0.00537598 0.000193253 6.21113e-24)
(0.00526177 0.000679732 -7.76772e-24)
(0.00526976 0.00115323 2.62149e-24)
(0.00539689 0.00135201 -1.68061e-24)
(0.00391859 -0.000341369 -1.33376e-24)
(0.00389578 -0.000372433 -2.0945e-24)
(0.00390021 -0.000362632 -9.01114e-24)
(0.00393947 -0.00033302 2.2318e-24)
(0.0040131 -0.000291615 1.51809e-24)
(0.00410991 -0.00025065 7.49144e-24)
(0.00422267 -0.000214732 -1.61977e-23)
(0.00434587 -0.000185004 6.09847e-24)
(0.00447583 -0.00016104 2.08419e-23)
(0.00461027 -0.000141683 -5.55676e-24)
(0.00474785 -0.000125526 -5.20133e-24)
(0.00488788 -0.000111097 -8.19024e-25)
(0.00503018 -9.68578e-05 2.63338e-24)
(0.00517486 -8.12306e-05 -5.09824e-24)
(0.00532253 -6.25647e-05 1.18819e-24)
(0.00547432 -3.91085e-05 -3.98061e-25)
(0.00563211 -9.09541e-06 -2.39816e-24)
(0.0057988 2.88107e-05 8.77819e-25)
(0.00597923 7.55694e-05 4.27003e-24)
(0.00617806 0.000130586 -4.56614e-25)
(0.00640383 0.0001885 -1.01131e-24)
(0.00666403 0.000241995 -3.0329e-25)
(0.00694169 0.00027371 -1.79722e-24)
(0.00720018 0.000271528 -1.92088e-25)
(0.00742489 0.000237166 -4.67496e-24)
(0.00761345 0.000175625 7.87549e-24)
(0.007765 9.19686e-05 -7.41506e-24)
(0.00787925 -9.26761e-06 1.45295e-23)
(0.00795574 -0.000123631 -1.32301e-23)
(0.00799375 -0.000246295 2.74925e-24)
(0.00799257 -0.000371641 6.23431e-24)
(0.00795193 -0.00049317 -2.46612e-26)
(0.00787246 -0.000603613 -2.56749e-25)
(0.0077559 -0.00069517 5.55354e-25)
(0.00760531 -0.000759746 -1.95096e-24)
(0.0074252 -0.000789102 -5.5481e-25)
(0.00722162 -0.000774884 7.25754e-24)
(0.00700263 -0.000708529 -3.41281e-24)
(0.006779 -0.000581159 6.55624e-25)
(0.00656598 -0.00038367 -2.09212e-23)
(0.00638525 -0.000108421 1.63792e-23)
(0.00626742 0.000244721 -7.22465e-24)
(0.00624603 0.000648895 1.11822e-24)
(0.00633732 0.00102376 1.02602e-23)
(0.00651729 0.00121381 -2.82538e-24)
(0.00515659 -0.000311509 -5.53821e-24)
(0.0051229 -0.000351788 1.1392e-23)
(0.00509766 -0.000361845 3.34707e-24)
(0.00509618 -0.000352116 1.43368e-23)
(0.0051165 -0.000329391 -3.53185e-23)
(0.00516388 -0.000298004 -1.16472e-24)