/*--------------------------------*- C++ -*----------------------------------*\
| =========                 |                                                 |
| \\      /  F ield         | OpenFOAM: The Open Source CFD Toolbox           |
|  \\    /   O peration     | Version:  2312                                  |
|   \\  /    A nd           | Website:  www.openfoam.com                      |
|    \\/     M anipulation  |                                                 |
\*---------------------------------------------------------------------------*/
FoamFile
{
    version     2.0;
    format      ascii;
    arch        "LSB;label=32;scalar=64";
    class       surfaceScalarField;
    location    "139";
    object      phi;
}
// * * * * * * * * * * * * * * * * * * * * * * * * * * * * * * * * * * * * * //

dimensions      [0 3 -1 0 0 0 0];

oriented        oriented;

internalField   nonuniform List<scalar> 
9445
(
5.72113e-10
1.13673e-11
5.66072e-10
6.04106e-12
5.63279e-10
2.79388e-12
5.62614e-10
6.64554e-13
5.63498e-10
-8.83759e-13
5.65333e-10
-1.83552e-12
5.68066e-10
-2.73234e-12
5.7173e-10
-3.66418e-12
5.76449e-10
-4.7188e-12
5.82587e-10
-6.13893e-12
5.91252e-10
-8.66442e-12
6.0599e-10
-1.47381e-11
6.39254e-10
-3.32642e-11
7.345e-10
-9.52458e-11
-2.44209e-10
9.78709e-10
2.00249e-09
4.93896e-11
1.9821e-09
2.64294e-11
1.97246e-09
1.24376e-11
1.9699e-09
3.2225e-12
1.9722e-09
-3.19165e-12
1.97768e-09
-7.30757e-12
1.98608e-09
-1.1135e-11
1.99734e-09
-1.49233e-11
2.01183e-09
-1.92091e-11
2.03064e-09
-2.49532e-11
2.0566e-09
-3.46176e-11
2.0965e-09
-5.46457e-11
2.16346e-09
-1.00224e-10
2.26963e-09
-2.0141e-10
-3.54511e-10
2.37993e-09
3.96028e-09
1.21397e-10
3.92136e-09
6.53456e-11
3.90258e-09
3.12155e-11
3.89709e-09
8.71855e-12
3.90043e-09
-6.53644e-12
3.90963e-09
-1.65077e-11
3.9242e-09
-2.57057e-11
3.94369e-09
-3.44127e-11
3.96851e-09
-4.40232e-11
4.00002e-09
-5.64692e-11
4.04108e-09
-7.56732e-11
4.09627e-09
-1.09835e-10
4.16823e-09
-1.72188e-10
4.2434e-09
-2.7658e-10
-3.97888e-10
4.28678e-09
6.59132e-09
2.35476e-10
6.52905e-09
1.27614e-10
6.49829e-09
6.19744e-11
6.48825e-09
1.87567e-11
6.49179e-09
-1.0077e-11
6.5043e-09
-2.90173e-11
6.52486e-09
-4.62664e-11
6.55235e-09
-6.19003e-11
6.58673e-09
-7.84027e-11
6.62888e-09
-9.8618e-11
6.68e-09
-1.26793e-10
6.7399e-09
-1.69735e-10
6.80233e-09
-2.34621e-10
6.848e-09
-3.22248e-10
-4.06259e-10
6.85637e-09
1.00717e-08
3.9952e-10
9.98105e-09
2.18256e-10
9.9351e-09
1.07921e-10
9.91838e-09
3.54724e-11
9.9207e-09
-1.23969e-11
9.93564e-09
-4.39479e-11
9.9612e-09
-7.1827e-11
9.99541e-09
-9.61123e-11
1.00373e-08
-1.20279e-10
1.00865e-08
-1.47796e-10
1.01418e-08
-1.82116e-10
1.01991e-08
-2.27006e-10
1.02484e-08
-2.83924e-10
1.02738e-08
-3.47637e-10
-3.99215e-10
1.02667e-08
1.46088e-08
6.19058e-10
1.44857e-08
3.41302e-10
1.44217e-08
1.71934e-10
1.4396e-08
6.12223e-11
1.43953e-08
-1.16994e-11
1.44115e-08
-6.01144e-11
1.44403e-08
-1.00697e-10
1.4479e-08
-1.34798e-10
1.45253e-08
-1.66591e-10
1.45772e-08
-1.99725e-10
1.46315e-08
-2.36413e-10
1.46821e-08
-2.77604e-10
1.47197e-08
-3.21508e-10
1.47344e-08
-3.62274e-10
-3.89349e-10
1.47245e-08
2.04389e-08
8.93177e-10
2.02828e-08
4.97405e-10
2.01997e-08
2.55068e-10
2.01634e-08
9.74663e-11
2.01583e-08
-6.51317e-12
2.01743e-08
-7.61337e-11
2.02046e-08
-1.30967e-10
2.0245e-08
-1.75293e-10
2.02924e-08
-2.13959e-10
2.03431e-08
-2.50409e-10
2.03926e-08
-2.8594e-10
2.04351e-08
-3.20043e-10
2.04638e-08
-3.50292e-10
2.04743e-08
-3.72748e-10
-3.82863e-10
2.04678e-08
2.78203e-08
1.20829e-09
2.76378e-08
6.79881e-10
2.75389e-08
3.53967e-10
2.74937e-08
1.4268e-10
2.74844e-08
2.83917e-12
2.74992e-08
-9.10111e-11
2.75295e-08
-1.61265e-10
2.75698e-08
-2.15583e-10
2.76156e-08
-2.59713e-10
2.76623e-08
-2.97135e-10
2.77054e-08
-3.28991e-10
2.77401e-08
-3.54815e-10
2.7763e-08
-3.73176e-10
2.77728e-08
-3.82486e-10
-3.81667e-10
2.77716e-08
3.70232e-08
1.53136e-09
3.68333e-08
8.69846e-10
3.67299e-08
4.57393e-10
3.66827e-08
1.8986e-10
3.6673e-08
1.24956e-11
3.66886e-08
-1.06573e-10
3.67194e-08
-1.92131e-10
3.67592e-08
-2.55294e-10
3.68025e-08
-3.03032e-10
3.68448e-08
-3.39411e-10
3.6882e-08
-3.66253e-10
3.69113e-08
-3.84126e-10
3.69313e-08
-3.93122e-10
3.69423e-08
-3.93526e-10
-3.86028e-10
3.69467e-08
4.83272e-08
1.80865e-09
4.81633e-08
1.03371e-09
4.8077e-08
5.43734e-10
4.80423e-08
2.24571e-10
4.80419e-08
1.28363e-11
4.80644e-08
-1.29039e-10
4.80998e-08
-2.27582e-10
4.81417e-08
-2.97118e-10
4.81847e-08
-3.46112e-10
4.82251e-08
-3.79734e-10
4.82598e-08
-4.01023e-10
4.82876e-08
-4.11904e-10
4.83083e-08
-4.13837e-10
4.83231e-08
-4.083e-10
-3.96796e-10
4.83339e-08
6.20457e-08
1.98046e-09
6.19495e-08
1.1299e-09
6.19091e-08
5.84084e-10
6.19073e-08
2.26386e-10
6.19311e-08
-1.099e-11
6.19711e-08
-1.68972e-10
6.2019e-08
-2.75488e-10
6.20692e-08
-3.47332e-10
6.21177e-08
-3.9458e-10
6.21617e-08
-4.23722e-10
6.21997e-08
-4.39091e-10
6.22316e-08
-4.43795e-10
6.2258e-08
-4.40233e-10
6.22802e-08
-4.30509e-10
-4.16426e-10
6.22998e-08
7.85999e-08
2.01503e-09
7.85995e-08
1.13027e-09
7.86276e-08
5.55932e-10
7.86762e-08
1.77845e-10
7.87378e-08
-7.2618e-11
7.88058e-08
-2.37008e-10
7.88749e-08
-3.44517e-10
7.89411e-08
-4.13557e-10
7.90022e-08
-4.55651e-10
7.90569e-08
-4.78476e-10
7.91052e-08
-4.87366e-10
7.91476e-08
-4.86207e-10
7.91853e-08
-4.77901e-10
7.92195e-08
-4.64774e-10
-4.4865e-10
7.92518e-08
9.8609e-08
1.93679e-09
9.86945e-08
1.04477e-09
9.87876e-08
4.62899e-10
9.8886e-08
7.93696e-11
9.89862e-08
-1.72761e-10
9.90839e-08
-3.34684e-10
9.91762e-08
-4.36893e-10
9.92615e-08
-4.98825e-10
9.9339e-08
-5.33119e-10
9.94088e-08
-5.48318e-10
9.94718e-08
-5.50358e-10
9.95291e-08
-5.435e-10
9.9582e-08
-5.30815e-10
9.96318e-08
-5.14615e-10
-4.96603e-10
9.96798e-08
1.22879e-07
1.8076e-09
1.23005e-07
9.1854e-10
1.2313e-07
3.38425e-10
1.23254e-07
-4.49537e-11
1.23374e-07
-2.92503e-10
1.23487e-07
-4.4793e-10
1.23592e-07
-5.42283e-10
1.2369e-07
-5.95869e-10
1.23779e-07
-6.22109e-10
1.2386e-07
-6.30089e-10
1.23936e-07
-6.26051e-10
1.24007e-07
-6.14373e-10
1.24074e-07
-5.9812e-10
1.24139e-07
-5.79484e-10
-5.59999e-10
1.24202e-07
1.52195e-07
1.67212e-09
1.5232e-07
7.93792e-10
1.52439e-07
2.19184e-10
1.52557e-07
-1.63205e-10
1.5267e-07
-4.05224e-10
1.52777e-07
-5.54597e-10
1.52877e-07
-6.42621e-10
1.52971e-07
-6.90024e-10
1.5306e-07
-7.10666e-10
1.53144e-07
-7.13923e-10
1.53224e-07
-7.0616e-10
1.53301e-07
-6.91756e-10
1.53377e-07
-6.73705e-10
1.53451e-07
-6.54064e-10
-6.34212e-10
1.53525e-07
1.87043e-07
1.53295e-09
1.87157e-07
6.79943e-10
1.87257e-07
1.19034e-10
1.87354e-07
-2.60357e-10
1.87445e-07
-4.96068e-10
1.87532e-07
-6.40921e-10
1.87614e-07
-7.25465e-10
1.87695e-07
-7.70155e-10
1.87773e-07
-7.88812e-10
1.8785e-07
-7.90808e-10
1.87926e-07
-7.82483e-10
1.88002e-07
-7.68143e-10
1.88079e-07
-7.50683e-10
1.88157e-07
-7.32037e-10
-7.13444e-10
1.88237e-07
2.27462e-07
1.37137e-09
2.27575e-07
5.66094e-10
2.27666e-07
2.86312e-11
2.27744e-07
-3.38958e-10
2.27814e-07
-5.65998e-10
2.2788e-07
-7.06609e-10
2.27944e-07
-7.89629e-10
2.28008e-07
-8.34441e-10
2.28074e-07
-8.5424e-10
2.28141e-07
-8.58077e-10
2.28211e-07
-8.52088e-10
2.28283e-07
-8.4042e-10
2.28358e-07
-8.25831e-10
2.28436e-07
-8.10145e-10
-7.94513e-10
2.28517e-07
2.72938e-07
1.17612e-09
2.73062e-07
4.42113e-10
2.73155e-07
-6.44463e-11
2.73221e-07
-4.0507e-10
2.73277e-07
-6.21484e-10
2.73328e-07
-7.57717e-10
2.73379e-07
-8.40441e-10
2.73431e-07
-8.87387e-10
2.73488e-07
-9.10738e-10
2.73549e-07
-9.18918e-10
2.73614e-07
-9.17661e-10
2.73685e-07
-9.10841e-10
2.7376e-07
-9.01027e-10
2.7384e-07
-8.89918e-10
-8.7859e-10
2.73924e-07
3.22097e-07
9.48233e-10
3.22236e-07
3.0319e-10
3.22331e-07
-1.59105e-10
3.22395e-07
-4.69507e-10
3.22446e-07
-6.7211e-10
3.22491e-07
-8.03048e-10
3.22536e-07
-8.85377e-10
3.22584e-07
-9.34986e-10
3.22636e-07
-9.62833e-10
3.22693e-07
-9.76493e-10
3.22757e-07
-9.81122e-10
3.22826e-07
-9.80227e-10
3.22901e-07
-9.7615e-10
3.22982e-07
-9.70449e-10
-9.63861e-10
3.23067e-07
3.72046e-07
6.89165e-10
3.72206e-07
1.43424e-10
3.72297e-07
-2.50487e-10
3.72344e-07
-5.16098e-10
3.72367e-07
-6.95821e-10
3.72381e-07
-8.16426e-10
3.72392e-07
-8.96421e-10
3.72405e-07
-9.48468e-10
3.72424e-07
-9.81627e-10
3.7245e-07
-1.00216e-09
3.72483e-07
-1.01432e-09
3.72524e-07
-1.02103e-09
3.72572e-07
-1.02426e-09
3.72627e-07
-1.02535e-09
-1.02524e-09
3.72688e-07
3.70145e-07
4.30326e-10
3.70302e-07
-1.3595e-11
3.70387e-07
-3.36093e-10
3.7043e-07
-5.59213e-10
3.70451e-07
-7.16464e-10
3.70461e-07
-8.26237e-10
3.70467e-07
-9.02535e-10
3.70474e-07
-9.55662e-10
3.70485e-07
-9.92711e-10
3.70502e-07
-1.01862e-09
3.70524e-07
-1.0368e-09
3.70553e-07
-1.0496e-09
3.70587e-07
-1.05868e-09
3.70627e-07
-1.06514e-09
-1.06967e-09
3.70671e-07
3.17601e-07
2.61347e-10
3.17685e-07
-9.6873e-11
3.17711e-07
-3.62952e-10
3.17708e-07
-5.55432e-10
3.17686e-07
-6.95122e-10
3.17657e-07
-7.96831e-10
3.17626e-07
-8.71259e-10
3.17596e-07
-9.26166e-10
3.1757e-07
-9.67075e-10
3.1755e-07
-9.979e-10
3.17534e-07
-1.02138e-09
3.17524e-07
-1.03947e-09
3.17519e-07
-1.05348e-09
3.17518e-07
-1.06435e-09
-1.07269e-09
3.17521e-07
2.6652e-07
1.10405e-10
2.66598e-07
-1.74757e-10
2.66625e-07
-3.8982e-10
2.6662e-07
-5.51113e-10
2.66597e-07
-6.71948e-10
2.66563e-07
-7.63065e-10
2.66525e-07
-8.32408e-10
2.66484e-07
-8.85757e-10
2.66444e-07
-9.27263e-10
2.66406e-07
-9.59918e-10
2.66371e-07
-9.85847e-10
2.66338e-07
-1.00656e-09
2.66307e-07
-1.02309e-09
2.66279e-07
-1.03616e-09
-1.04627e-09
2.66253e-07
2.2008e-07
-2.63467e-12
2.20133e-07
-2.27918e-10
2.20144e-07
-4.01337e-10
2.20128e-07
-5.34846e-10
2.20094e-07
-6.37875e-10
2.20049e-07
-7.17939e-10
2.19997e-07
-7.80801e-10
2.19942e-07
-8.30706e-10
2.19886e-07
-8.70714e-10
2.19829e-07
-9.03048e-10
2.19772e-07
-9.29296e-10
2.19716e-07
-9.50595e-10
2.19661e-07
-9.67723e-10
2.19606e-07
-9.81234e-10
-9.91493e-10
2.19551e-07
1.79332e-07
-7.6157e-11
1.79357e-07
-2.52906e-10
1.79348e-07
-3.91766e-10
1.79314e-07
-5.01134e-10
1.79264e-07
-5.87803e-10
1.79203e-07
-6.57006e-10
1.79135e-07
-7.12781e-10
1.79063e-07
-7.58144e-10
1.78987e-07
-7.95301e-10
1.7891e-07
-8.25859e-10
1.78832e-07
-8.50975e-10
1.78753e-07
-8.71484e-10
1.78673e-07
-8.87956e-10
1.78592e-07
-9.008e-10
-9.10284e-10
1.78511e-07
1.44429e-07
-1.12651e-10
1.44427e-07
-2.50395e-10
1.44396e-07
-3.60791e-10
1.44345e-07
-4.49711e-10
1.44279e-07
-5.21941e-10
1.44203e-07
-5.81043e-10
1.4412e-07
-6.29756e-10
1.44032e-07
-6.70163e-10
1.4394e-07
-7.03814e-10
1.43846e-07
-7.3185e-10
1.4375e-07
-7.55091e-10
1.43653e-07
-7.74132e-10
1.43554e-07
-7.89381e-10
1.43455e-07
-8.01132e-10
-8.09575e-10
1.43354e-07
1.15067e-07
-1.19923e-10
1.15043e-07
-2.26718e-10
1.14997e-07
-3.14101e-10
1.14933e-07
-3.86104e-10
1.14857e-07
-4.45964e-10
1.14772e-07
-4.96022e-10
1.1468e-07
-5.38091e-10
1.14584e-07
-5.73585e-10
1.14484e-07
-6.03571e-10
1.14381e-07
-6.28836e-10
1.14275e-07
-6.49945e-10
1.14169e-07
-6.67312e-10
1.1406e-07
-6.81216e-10
1.13951e-07
-6.91868e-10
-6.99399e-10
1.13841e-07
9.07342e-08
-1.08834e-10
9.06988e-08
-1.91368e-10
9.0645e-08
-2.60302e-10
9.05773e-08
-3.18397e-10
9.04991e-08
-3.67724e-10
9.04128e-08
-4.09769e-10
9.03204e-08
-4.45718e-10
9.02234e-08
-4.76514e-10
9.01227e-08
-5.02872e-10
9.00192e-08
-5.25317e-10
8.99134e-08
-5.44226e-10
8.9806e-08
-5.59878e-10
8.96972e-08
-5.72458e-10
8.95875e-08
-5.82114e-10
-5.88933e-10
8.9477e-08
7.08311e-08
-8.93957e-11
7.07925e-08
-1.52851e-10
7.07392e-08
-2.06928e-10
7.06742e-08
-2.53481e-10
7.06003e-08
-2.93742e-10
7.05191e-08
-3.28633e-10
7.04323e-08
-3.58925e-10
7.03411e-08
-3.85231e-10
7.02462e-08
-4.08013e-10
7.01485e-08
-4.27608e-10
7.00485e-08
-4.4426e-10
6.99468e-08
-4.58148e-10
6.98437e-08
-4.69391e-10
6.97397e-08
-4.78087e-10
-4.84291e-10
6.96351e-08
5.47319e-08
-6.8339e-11
5.46958e-08
-1.16674e-10
5.46475e-08
-1.58664e-10
5.45895e-08
-1.95495e-10
5.45236e-08
-2.27843e-10
5.44513e-08
-2.56279e-10
5.43736e-08
-2.81302e-10
5.42917e-08
-3.03294e-10
5.42062e-08
-3.22541e-10
5.41179e-08
-3.39251e-10
5.40272e-08
-3.53572e-10
5.39347e-08
-3.65614e-10
5.38407e-08
-3.75448e-10
5.37458e-08
-3.83137e-10
-3.88711e-10
5.36502e-08
4.18317e-08
-4.92023e-11
4.18005e-08
-8.54996e-11
4.17594e-08
-1.17574e-10
4.17101e-08
-1.46139e-10
4.16537e-08
-1.71542e-10
4.15916e-08
-1.94152e-10
4.15246e-08
-2.14282e-10
4.14535e-08
-2.3216e-10
4.13789e-08
-2.47953e-10
4.13014e-08
-2.61781e-10
4.12216e-08
-2.73728e-10
4.11398e-08
-2.83856e-10
4.10566e-08
-2.92203e-10
4.09722e-08
-2.98807e-10
-3.03681e-10
4.08872e-08
3.15777e-08
-3.33927e-11
3.15524e-08
-6.01402e-11
3.15188e-08
-8.40596e-11
3.14783e-08
-1.05607e-10
3.14317e-08
-1.24965e-10
3.138e-08
-1.42381e-10
3.13237e-08
-1.58047e-10
3.12636e-08
-1.72088e-10
3.12003e-08
-1.84595e-10
3.11341e-08
-1.95629e-10
3.10656e-08
-2.05236e-10
3.09952e-08
-2.13443e-10
3.09233e-08
-2.2027e-10
3.08502e-08
-2.25735e-10
-2.29838e-10
3.07764e-08
2.34867e-08
-2.12056e-11
2.3467e-08
-4.04287e-11
2.34406e-08
-5.76824e-11
2.34084e-08
-7.33571e-11
2.33709e-08
-8.7555e-11
2.3329e-08
-1.00453e-10
2.32831e-08
-1.12159e-10
2.32338e-08
-1.22735e-10
2.31814e-08
-1.32227e-10
2.31264e-08
-1.4066e-10
2.30693e-08
-1.48054e-10
2.30102e-08
-1.54419e-10
2.29497e-08
-1.5976e-10
2.28881e-08
-1.64083e-10
-1.67382e-10
2.28256e-08
1.71479e-08
-1.24684e-11
1.71332e-08
-2.57242e-11
1.71132e-08
-3.76449e-11
1.70884e-08
-4.85292e-11
1.70593e-08
-5.84508e-11
1.70264e-08
-6.75416e-11
1.69901e-08
-7.58584e-11
1.69507e-08
-8.3428e-11
1.69088e-08
-9.02672e-11
1.68645e-08
-9.63834e-11
1.68182e-08
-1.01782e-10
1.67703e-08
-1.06461e-10
1.67209e-08
-1.10422e-10
1.66705e-08
-1.1366e-10
-1.16169e-10
1.66193e-08
1.22189e-08
-6.66269e-12
1.22084e-08
-1.52638e-11
1.21938e-08
-2.30346e-11
1.21754e-08
-3.01375e-11
1.21536e-08
-3.66442e-11
1.21287e-08
-4.26528e-11
1.21011e-08
-4.81897e-11
1.20709e-08
-5.3263e-11
1.20385e-08
-5.78755e-11
1.20042e-08
-6.20255e-11
1.19681e-08
-6.57112e-11
1.19306e-08
-6.89277e-11
1.18918e-08
-7.16724e-11
1.18521e-08
-7.39378e-11
-7.57137e-11
1.18116e-08
8.41748e-09
-3.12566e-12
8.41046e-09
-8.25037e-12
8.40034e-09
-1.29073e-11
8.38735e-09
-1.71522e-11
8.37176e-09
-2.10574e-11
8.3538e-09
-2.46901e-11
8.33367e-09
-2.80604e-11
8.31158e-09
-3.11677e-11
8.28771e-09
-3.40095e-11
8.26227e-09
-3.65809e-11
8.23543e-09
-3.88782e-11
8.2074e-09
-4.08958e-11
8.17836e-09
-4.26307e-11
8.1485e-09
-4.40751e-11
-4.52171e-11
8.118e-09
5.51313e-09
-1.20365e-12
5.50877e-09
-3.8971e-12
5.5022e-09
-6.33972e-12
5.49361e-09
-8.55343e-12
5.48315e-09
-1.05993e-11
5.47097e-09
-1.25165e-11
5.45722e-09
-1.43068e-11
5.44202e-09
-1.59675e-11
5.42551e-09
-1.74949e-11
5.40781e-09
-1.88844e-11
5.38906e-09
-2.01327e-11
5.3694e-09
-2.12353e-11
5.34896e-09
-2.21904e-11
5.32788e-09
-2.29913e-11
-2.36263e-11
5.30629e-09
3.31857e-09
-3.29226e-13
3.31614e-09
-1.4725e-12
3.31228e-09
-2.47679e-12
3.30711e-09
-3.38031e-12
3.30073e-09
-4.22162e-12
3.29323e-09
-5.01662e-12
3.28469e-09
-5.76427e-12
3.27518e-09
-6.46197e-12
3.26479e-09
-7.10716e-12
3.25361e-09
-7.69697e-12
3.2417e-09
-8.22945e-12
3.22917e-09
-8.70196e-12
3.21609e-09
-9.11364e-12
3.20256e-09
-9.46031e-12
-9.73229e-12
3.18867e-09
1.6824e-09
-4.73553e-14
1.68127e-09
-3.43241e-13
1.67936e-09
-5.70558e-13
1.67676e-09
-7.73736e-13
1.6735e-09
-9.67311e-13
1.66964e-09
-1.15251e-12
1.6652e-09
-1.32832e-12
1.66023e-09
-1.49346e-12
1.65477e-09
-1.64686e-12
1.64887e-09
-1.78747e-12
1.64255e-09
-1.9147e-12
1.63588e-09
-2.02768e-12
1.62889e-09
-2.12631e-12
1.62164e-09
-2.20862e-12
-2.2694e-12
1.61417e-09
4.82782e-10
4.82439e-10
4.81869e-10
4.81095e-10
4.80128e-10
4.78975e-10
4.77647e-10
4.76153e-10
4.74506e-10
4.72719e-10
4.70804e-10
4.68777e-10
4.6665e-10
4.64442e-10
4.62172e-10
1.17302e-09
-4.5108e-10
2.56766e-10
1.45335e-09
-3.53358e-10
7.3027e-11
1.73794e-09
-1.87086e-10
-9.75e-11
2.02052e-09
-1.48078e-11
-2.67774e-10
2.29912e-09
1.58277e-10
-4.36871e-10
2.57442e-09
3.24116e-10
-5.99423e-10
2.84777e-09
4.79826e-10
-7.53172e-10
3.12017e-09
6.22586e-10
-8.94983e-10
3.39239e-09
7.48997e-10
-1.02122e-09
3.66501e-09
8.5522e-10
-1.12783e-09
3.93843e-09
9.36845e-10
-1.21027e-09
4.21303e-09
9.88693e-10
-1.26329e-09
4.4891e-09
1.0047e-09
-1.28077e-09
4.76695e-09
9.7808e-10
-1.25593e-09
5.04687e-09
9.02063e-10
-1.18198e-09
5.32934e-09
7.71562e-10
-1.05404e-09
5.61534e-09
5.85229e-10
-8.71221e-10
5.90683e-09
3.50806e-10
-6.42295e-10
6.20734e-09
8.62991e-11
-3.86816e-10
6.52248e-09
-1.76833e-10
-1.38302e-10
6.85899e-09
-4.12187e-10
7.56781e-11
7.22071e-09
-6.14365e-10
2.52637e-10
7.54949e-09
-7.35348e-10
4.06572e-10
7.8199e-09
-8.85618e-10
6.15214e-10
8.0303e-09
-1.09897e-09
8.88564e-10
8.18274e-09
-1.34902e-09
1.19659e-09
8.28089e-09
-1.60242e-09
1.50426e-09
8.32879e-09
-1.83933e-09
1.79143e-09
8.32939e-09
-2.04852e-09
2.04793e-09
8.28464e-09
-2.21192e-09
2.25667e-09
8.19696e-09
-2.32571e-09
2.4134e-09
8.06834e-09
-2.37498e-09
2.50359e-09
7.90073e-09
-2.34059e-09
2.5082e-09
7.69658e-09
-2.21231e-09
2.41645e-09
7.45867e-09
-1.98277e-09
2.22068e-09
7.18969e-09
-1.64847e-09
1.91745e-09
6.89213e-09
-1.20889e-09
1.50646e-09
6.56821e-09
-6.63932e-10
9.87851e-10
6.22015e-09
-1.06797e-11
3.58735e-10
5.84935e-09
7.58638e-10
-3.87835e-10
5.45238e-09
1.64871e-09
-1.25174e-09
5.01304e-09
2.63312e-09
-2.19378e-09
4.50077e-09
3.5792e-09
-3.06693e-09
3.92004e-09
4.15913e-09
-3.5784e-09
3.59484e-09
3.56097e-09
-3.23577e-09
2.45762e-09
-5.28767e-10
2.62772e-09
-5.23466e-10
2.85952e-09
-4.18881e-10
3.11995e-09
-2.75234e-10
3.39499e-09
-1.16764e-10
3.67745e-09
4.16553e-11
3.96438e-09
1.9289e-10
4.25452e-09
3.32447e-10
4.54734e-09
4.56179e-10
4.84262e-09
5.59937e-10
5.14029e-09
6.39183e-10
5.44032e-09
6.8866e-10
5.74276e-09
7.0226e-10
6.04765e-09
6.73187e-10
6.35503e-09
5.94681e-10
6.66509e-09
4.61501e-10
6.97846e-09
2.7186e-10
7.29676e-09
3.25044e-11
7.62318e-09
-2.40116e-10
7.96306e-09
-5.16714e-10
8.32314e-09
-7.72263e-10
8.70745e-09
-9.98675e-10
9.05545e-09
-1.08335e-09
9.34152e-09
-1.17169e-09
9.5644e-09
-1.32186e-09
9.72628e-09
-1.51089e-09
9.83089e-09
-1.70703e-09
9.88231e-09
-1.89075e-09
9.88351e-09
-2.04972e-09
9.83671e-09
-2.16512e-09
9.74481e-09
-2.23381e-09
9.6102e-09
-2.24037e-09
9.43547e-09
-2.16586e-09
9.22404e-09
-2.00087e-09
8.97998e-09
-1.73871e-09
8.70784e-09
-1.37632e-09
8.41264e-09
-9.1369e-10
8.10051e-09
-3.51803e-10
7.78001e-09
3.09818e-10
7.46397e-09
1.07468e-09
7.1705e-09
1.94218e-09
6.92194e-09
2.88168e-09
6.74563e-09
3.75551e-09
6.6723e-09
4.23246e-09
3.70547e-09
6.56167e-09
4.30321e-09
-5.45198e-10
4.38182e-09
-6.02073e-10
4.53472e-09
-5.71783e-10
4.74311e-09
-4.83621e-10
4.9874e-09
-3.61059e-10
5.255e-09
-2.25944e-10
5.53828e-09
-9.03942e-11
5.83271e-09
3.80225e-11
6.13556e-09
1.53328e-10
6.44516e-09
2.5034e-10
6.7604e-09
3.23939e-10
7.08055e-09
3.68505e-10
7.40509e-09
3.77723e-10
7.73358e-09
3.44701e-10
8.06559e-09
2.62667e-10
8.40085e-09
1.26248e-10
8.73945e-09
-6.67423e-11
9.08246e-09
-3.10505e-10
9.43245e-09
-5.90113e-10
9.79428e-09
-8.78536e-10
1.01743e-08
-1.15233e-09
1.05766e-08
-1.40098e-09
1.09392e-08
-1.44586e-09
1.12366e-08
-1.46916e-09
1.14683e-08
-1.55355e-09
1.16366e-08
-1.67917e-09
1.17453e-08
-1.8157e-09
1.17983e-08
-1.94381e-09
1.17987e-08
-2.0501e-09
1.17491e-08
-2.11552e-09
1.16529e-08
-2.13766e-09
1.15129e-08
-2.10037e-09
1.13325e-08
-1.98546e-09
1.11164e-08
-1.78473e-09
1.08702e-08
-1.49253e-09
1.06007e-08
-1.10683e-09
1.03161e-08
-6.2903e-10
1.00268e-08
-6.25622e-11
9.7483e-09
5.88353e-10
9.50409e-09
1.31888e-09
9.32958e-09
2.1167e-09
9.2704e-09
2.94085e-09
9.36212e-09
3.66379e-09
9.55284e-09
4.04174e-09
3.64495e-09
9.61336e-09
6.83907e-09
-5.27899e-10
6.85623e-09
-6.19232e-10
6.93029e-09
-6.45847e-10
7.06794e-09
-6.2127e-10
7.25732e-09
-5.50437e-10
7.48563e-09
-4.54259e-10
7.74318e-09
-3.47936e-10
8.0228e-09
-2.41597e-10
8.31948e-09
-1.43356e-10
8.62971e-09
-5.9888e-11
8.95096e-09
2.68917e-12
9.2814e-09
3.80641e-11
9.61963e-09
3.94933e-11
9.96447e-09
-1.35971e-13
1.03148e-08
-8.76569e-11
1.06696e-08
-2.28566e-10
1.10283e-08
-4.2541e-10
1.1391e-08
-6.73264e-10
1.17596e-08
-9.58641e-10
1.21378e-08
-1.25681e-09
1.25316e-08
-1.54608e-09
1.29445e-08
-1.81385e-09
1.33141e-08
-1.81547e-09
1.36163e-08
-1.77137e-09
1.3851e-08
-1.78826e-09
1.40208e-08
-1.84898e-09
1.41296e-08
-1.92445e-09
1.4181e-08
-1.99528e-09
1.41781e-08
-2.04722e-09
1.41243e-08
-2.06169e-09
1.40235e-08
-2.03686e-09
1.38785e-08
-1.95537e-09
1.3694e-08
-1.80092e-09
1.3476e-08
-1.56678e-09
1.32322e-08
-1.2487e-09
1.29717e-08
-8.46341e-10
1.2706e-08
-3.63289e-10
1.24498e-08
1.93555e-10
1.22241e-08
8.14102e-10
1.20588e-08
1.48419e-09
1.19954e-08
2.18003e-09
1.20802e-08
2.85607e-09
1.23322e-08
3.41183e-09
1.26906e-08
3.68337e-09
3.4429e-09
1.28926e-08
1.0236e-08
-4.97242e-10
1.02171e-08
-6.00303e-10
1.0233e-08
-6.6169e-10
1.02976e-08
-6.85947e-10
1.04184e-08
-6.71159e-10
1.05875e-08
-6.23387e-10
1.0797e-08
-5.57424e-10
1.10397e-08
-4.843e-10
1.13095e-08
-4.13207e-10
1.16016e-08
-3.51952e-10
1.1912e-08
-3.07689e-10
1.22376e-08
-2.87584e-10
1.25761e-08
-2.98962e-10
1.29252e-08
-3.49255e-10
1.32829e-08
-4.45399e-10
1.36474e-08
-5.92993e-10
1.40169e-08
-7.94904e-10
1.43906e-08
-1.04696e-09
1.47689e-08
-1.33699e-09
1.51546e-08
-1.64252e-09
1.55523e-08
-1.94376e-09
1.59647e-08
-2.22628e-09
1.63308e-08
-2.1815e-09
1.66281e-08
-2.06871e-09
1.68574e-08
-2.01754e-09
1.70215e-08
-2.01305e-09
1.71243e-08
-2.02726e-09
1.7169e-08
-2.04e-09
1.71589e-08
-2.03718e-09
1.70986e-08
-2.00137e-09
1.69922e-08
-1.93046e-09
1.6842e-08
-1.80517e-09
1.66546e-08
-1.61349e-09
1.64377e-08
-1.34984e-09
1.62007e-08
-1.01172e-09
1.59553e-08
-6.00947e-10
1.57158e-08
-1.23842e-10
1.55004e-08
4.08944e-10
1.53327e-08
9.81863e-10
1.52432e-08
1.57363e-09
1.52693e-08
2.15396e-09
1.54458e-08
2.67962e-09
1.57767e-08
3.08085e-09
1.61949e-08
3.26518e-09
3.1343e-09
1.65035e-08
1.46941e-08
-4.66838e-10
1.46589e-08
-5.6508e-10
1.46418e-08
-6.44615e-10
1.46536e-08
-6.97779e-10
1.47077e-08
-7.25226e-10
1.48098e-08
-7.25515e-10
1.49563e-08
-7.03923e-10
1.51431e-08
-6.71069e-10
1.53653e-08
-6.35458e-10
1.56182e-08
-6.04791e-10
1.58972e-08
-5.86678e-10
1.61985e-08
-5.88911e-10
1.65188e-08
-6.19286e-10
1.68551e-08
-6.85494e-10
1.72042e-08
-7.94522e-10
1.75632e-08
-9.51995e-10
1.79293e-08
-1.16101e-09
1.83003e-08
-1.41799e-09
1.86751e-08
-1.71182e-09
1.90548e-08
-2.02222e-09
1.94424e-08
-2.33129e-09
1.98391e-08
-2.62299e-09
2.0187e-08
-2.52938e-09
2.04664e-08
-2.34811e-09
2.06786e-08
-2.22982e-09
2.08269e-08
-2.1613e-09
2.09151e-08
-2.11543e-09
2.09453e-08
-2.07025e-09
2.09226e-08
-2.01449e-09
2.08529e-08
-1.93168e-09
2.07382e-08
-1.81575e-09
2.05816e-08
-1.64858e-09
2.03919e-08
-1.42376e-09
2.01783e-08
-1.1362e-09
1.99519e-08
-7.85394e-10
1.97266e-08
-3.75597e-10
1.95186e-08
8.41363e-11
1.93476e-08
5.79944e-10
1.92368e-08
1.09267e-09
1.92125e-08
1.5979e-09
1.93014e-08
2.06507e-09
1.95224e-08
2.4586e-09
1.98676e-08
2.73568e-09
2.02799e-08
2.85289e-09
2.77667e-09
2.06375e-08
2.04451e-08
-4.44111e-10
2.04114e-08
-5.31399e-10
2.03802e-08
-6.13419e-10
2.03649e-08
-6.82418e-10
2.03738e-08
-7.34144e-10
2.04177e-08
-7.69392e-10
2.05013e-08
-7.87531e-10
2.06244e-08
-7.94226e-10
2.07858e-08
-7.96844e-10
2.09824e-08
-8.01391e-10
2.12108e-08
-8.15059e-10
2.14675e-08
-8.45613e-10
2.1749e-08
-9.0083e-10
2.20519e-08
-9.88328e-10
2.23723e-08
-1.11489e-09
2.27062e-08
-1.28596e-09
2.30499e-08
-1.50468e-09
2.33997e-08
-1.76778e-09
2.37527e-08
-2.06488e-09
2.41082e-08
-2.37765e-09
2.44669e-08
-2.68999e-09
2.4828e-08
-2.98416e-09
2.51392e-08
-2.84054e-09
2.5384e-08
-2.59294e-09
2.55645e-08
-2.41025e-09
2.56837e-08
-2.28058e-09
2.57453e-08
-2.17699e-09
2.57518e-08
-2.07673e-09
2.57092e-08
-1.97188e-09
2.56247e-08
-1.84724e-09
2.54966e-08
-1.68765e-09
2.53314e-08
-1.48332e-09
2.51389e-08
-1.23123e-09
2.49296e-08
-9.2696e-10
2.47163e-08
-5.72058e-10
2.45138e-08
-1.73109e-10
2.43392e-08
2.58747e-10
2.42115e-08
7.076e-10
2.41508e-08
1.15338e-09
2.41762e-08
1.57253e-09
2.43023e-08
1.939e-09
2.45337e-08
2.2272e-09
2.48555e-08
2.41388e-09
2.52253e-08
2.48308e-09
2.4301e-09
2.55718e-08
2.77588e-08
-4.31342e-10
2.77351e-08
-5.07747e-10
2.7707e-08
-5.85296e-10
2.76831e-08
-6.58541e-10
2.76725e-08
-7.23516e-10
2.76817e-08
-7.78604e-10
2.77179e-08
-8.23686e-10
2.77866e-08
-8.62922e-10
2.78888e-08
-8.99052e-10
2.80243e-08
-9.36878e-10
2.8192e-08
-9.82763e-10
2.839e-08
-1.04368e-09
2.86159e-08
-1.1267e-09
2.88664e-08
-1.23884e-09
2.91378e-08
-1.38625e-09
2.94256e-08
-1.57379e-09
2.97253e-08
-1.80437e-09
3.00321e-08
-2.07457e-09
3.03415e-08
-2.37428e-09
3.06506e-08
-2.68675e-09
3.09579e-08
-2.99734e-09
3.12601e-08
-3.28632e-09
3.15128e-08
-3.09325e-09
3.17035e-08
-2.78367e-09
3.18346e-08
-2.54132e-09
3.1909e-08
-2.35496e-09
3.19279e-08
-2.1959e-09
3.1901e-08
-2.0499e-09
3.18333e-08
-1.90409e-09
3.17225e-08
-1.73646e-09
3.15733e-08
-1.53847e-09
3.13958e-08
-1.30577e-09
3.11985e-08
-1.034e-09
3.09931e-08
-7.21525e-10
3.07929e-08
-3.71816e-10
3.0613e-08
6.73326e-12
3.04697e-08
4.02062e-10
3.03795e-08
7.97782e-10
3.03574e-08
1.17545e-09
3.04148e-08
1.51521e-09
3.0556e-08
1.79772e-09
3.07763e-08
2.00691e-09
3.10582e-08
2.13206e-09
3.13707e-08
2.17052e-09
2.12831e-09
3.16725e-08
3.69434e-08
-4.28076e-10
3.69318e-08
-4.96117e-10
3.69145e-08
-5.68026e-10
3.68964e-08
-6.40482e-10
3.68834e-08
-7.1043e-10
3.68819e-08
-7.77129e-10
3.6895e-08
-8.36796e-10
3.69302e-08
-8.98151e-10
3.69903e-08
-9.59166e-10
3.70761e-08
-1.02263e-09
3.71887e-08
-1.09539e-09
3.73282e-08
-1.18318e-09
3.74934e-08
-1.2919e-09
3.76822e-08
-1.42765e-09
3.78915e-08
-1.59553e-09
3.81172e-08
-1.79945e-09
3.83545e-08
-2.04173e-09
3.85982e-08
-2.31827e-09
3.88426e-08
-2.61862e-09
3.9083e-08
-2.92721e-09
3.93159e-08
-3.23023e-09
3.95349e-08
-3.50526e-09
3.97068e-08
-3.26513e-09
3.98229e-08
-2.89986e-09
3.98864e-08
-2.60474e-09
3.98964e-08
-2.36501e-09
3.98643e-08
-2.16379e-09
3.9795e-08
-1.98055e-09
3.96827e-08
-1.79181e-09
3.95345e-08
-1.58831e-09
3.93592e-08
-1.36319e-09
3.9164e-08
-1.11056e-09
3.89584e-08
-8.28336e-10
3.8754e-08
-5.17176e-10
3.85644e-08
-1.82169e-10
3.84033e-08
1.67782e-10
3.82852e-08
5.2017e-10
3.82225e-08
8.60458e-10
3.82247e-08
1.17325e-09
3.82963e-08
1.44368e-09
3.84349e-08
1.65907e-09
3.8631e-08
1.81082e-09
3.88675e-08
1.89556e-09
3.91218e-08
1.91618e-09
1.88111e-09
3.9369e-08
4.83398e-08
-4.34052e-10
4.83402e-08
-4.96432e-10
4.8336e-08
-5.63846e-10
4.83299e-08
-6.34456e-10
4.83258e-08
-7.06279e-10
4.83274e-08
-7.78774e-10
4.83392e-08
-8.48534e-10
4.8363e-08
-9.21947e-10
4.84029e-08
-9.99073e-10
4.84611e-08
-1.08087e-09
4.85386e-08
-1.17283e-09
4.86356e-08
-1.28021e-09
4.87517e-08
-1.40801e-09
4.88855e-08
-1.56147e-09
4.90346e-08
-1.74461e-09
4.91954e-08
-1.96028e-09
4.93637e-08
-2.20996e-09
4.95339e-08
-2.48849e-09
4.96998e-08
-2.78454e-09
4.9856e-08
-3.08344e-09
4.9997e-08
-3.37123e-09
5.01138e-08
-3.62207e-09
5.01871e-08
-3.33835e-09
5.02099e-08
-2.92268e-09
5.01883e-08
-2.58321e-09
5.01328e-08
-2.30951e-09
5.00366e-08
-2.06756e-09
4.99003e-08
-1.84421e-09
4.97344e-08
-1.6259e-09
4.95442e-08
-1.39811e-09
4.93356e-08
-1.15463e-09
4.9117e-08
-8.9196e-10
4.88981e-08
-6.09473e-10
4.86905e-08
-3.09497e-10
4.85063e-08
1.97094e-12
4.83575e-08
3.16607e-10
4.82552e-08
6.22509e-10
4.82074e-08
9.08201e-10
4.82186e-08
1.16207e-09
4.82882e-08
1.37412e-09
4.84102e-08
1.53708e-09
4.85736e-08
1.64738e-09
4.87636e-08
1.70554e-09
4.89636e-08
1.71619e-09
1.68713e-09
4.91576e-08
6.23166e-08
-4.50817e-10
6.23299e-08
-5.09738e-10
6.23403e-08
-5.74233e-10
6.23493e-08
-6.43456e-10
6.23594e-08
-7.1634e-10
6.2373e-08
-7.92449e-10
6.23945e-08
-8.69992e-10
6.24227e-08
-9.50153e-10
6.24612e-08
-1.03754e-09
6.25131e-08
-1.13275e-09
6.25784e-08
-1.23815e-09
6.26564e-08
-1.35823e-09
6.27461e-08
-1.49771e-09
6.28457e-08
-1.66109e-09
6.29526e-08
-1.85147e-09
6.30631e-08
-2.07078e-09
6.31728e-08
-2.31966e-09
6.32761e-08
-2.59178e-09
6.33664e-08
-2.87488e-09
6.34381e-08
-3.15517e-09
6.34842e-08
-3.41725e-09
6.34938e-08
-3.63176e-09
6.34613e-08
-3.30584e-09
6.33903e-08
-2.85166e-09
6.32835e-08
-2.47637e-09
6.31415e-08
-2.16753e-09
6.2969e-08
-1.89501e-09
6.27689e-08
-1.64418e-09
6.25468e-08
-1.40376e-09
6.23093e-08
-1.16061e-09
6.20636e-08
-9.08924e-10
6.18181e-08
-6.46501e-10
6.15825e-08
-3.73871e-10
6.13675e-08
-9.44776e-11
6.11827e-08
1.86794e-10
6.10383e-08
4.60972e-10
6.09413e-08
7.19568e-10
6.08957e-08
9.53809e-10
6.09019e-08
1.15585e-09
6.09563e-08
1.31973e-09
6.10514e-08
1.44197e-09
6.11767e-08
1.52199e-09
6.13203e-08
1.56201e-09
6.14697e-08
1.56673e-09
1.54255e-09
6.16143e-08
7.92824e-08
-4.8151e-10
7.93114e-08
-5.38714e-10
7.93389e-08
-6.01748e-10
7.93658e-08
-6.7036e-10
7.93936e-08
-7.44068e-10
7.94236e-08
-8.22505e-10
7.94593e-08
-9.05639e-10
7.95029e-08
-9.93758e-10
7.95541e-08
-1.08877e-09
7.96138e-08
-1.19246e-09
7.96828e-08
-1.30714e-09
7.97604e-08
-1.43586e-09
7.98448e-08
-1.5821e-09
7.99332e-08
-1.74949e-09
8.0022e-08
-1.94023e-09
8.01066e-08
-2.15541e-09
8.01816e-08
-2.39465e-09
8.02403e-08
-2.65045e-09
8.02757e-08
-2.91031e-09
8.02818e-08
-3.16128e-09
8.02496e-08
-3.385e-09
8.01674e-08
-3.54963e-09
8.00431e-08
-3.18154e-09
7.98857e-08
-2.69419e-09
7.96983e-08
-2.28906e-09
7.94817e-08
-1.9509e-09
7.92413e-08
-1.65457e-09
7.89816e-08
-1.38454e-09
7.87078e-08
-1.12993e-09
7.84272e-08
-8.80063e-10
7.8148e-08
-6.29695e-10
7.78784e-08
-3.76913e-10
7.76277e-08
-1.2317e-10
7.74037e-08
1.29568e-10
7.72157e-08
3.74791e-10
7.70698e-08
6.06892e-10
7.69697e-08
8.19609e-10
7.69164e-08
1.00708e-09
7.69077e-08
1.1646e-09
7.69383e-08
1.28913e-09
7.70007e-08
1.37959e-09
7.70858e-08
1.43691e-09
7.7184e-08
1.4638e-09
7.72863e-08
1.46441e-09
1.4437e-09
7.73851e-08
9.97272e-08
-5.28912e-10
9.97743e-08
-5.85771e-10
9.98211e-08
-6.48576e-10
9.98682e-08
-7.17435e-10
9.99164e-08
-7.92321e-10
9.99672e-08
-8.73261e-10
1.00022e-07
-9.60458e-10
1.00083e-07
-1.05428e-09
1.00149e-07
-1.15572e-09
1.00223e-07
-1.26628e-09
1.00304e-07
-1.38782e-09
1.00391e-07
-1.52248e-09
1.00481e-07
-1.6726e-09
1.00572e-07
-1.84052e-09
1.00659e-07
-2.02758e-09
1.00738e-07
-2.23362e-09
1.008e-07
-2.45698e-09
1.00839e-07
-2.68904e-09
1.00847e-07
-2.91822e-09
1.00816e-07
-3.13058e-09
1.00735e-07
-3.30455e-09
1.00594e-07
-3.40795e-09
1.00408e-07
-2.99579e-09
1.00191e-07
-2.47743e-09
9.99477e-08
-2.04555e-09
9.96795e-08
-1.68277e-09
9.93925e-08
-1.36751e-09
9.9092e-08