/*--------------------------------*- C++ -*----------------------------------*\
| =========                 |                                                 |
| \\      /  F ield         | OpenFOAM: The Open Source CFD Toolbox           |
|  \\    /   O peration     | Version:  2312                                  |
|   \\  /    A nd           | Website:  www.openfoam.com                      |
|    \\/     M anipulation  |                                                 |
\*---------------------------------------------------------------------------*/
FoamFile
{
    version     2.0;
    format      ascii;
    arch        "LSB;label=32;scalar=64";
    class       surfaceScalarField;
    location    "109.75";
    object      phi;
}
// * * * * * * * * * * * * * * * * * * * * * * * * * * * * * * * * * * * * * //

dimensions      [0 3 -1 0 0 0 0];

oriented        oriented;

internalField   nonuniform List<scalar> 
9445
(
5.74571e-10
1.01254e-11
5.69573e-10
4.99813e-12
5.67685e-10
1.88755e-12
5.6783e-10
-1.44245e-13
5.69243e-10
-1.4138e-12
5.71572e-10
-2.32887e-12
5.74764e-10
-3.1916e-12
5.7884e-10
-4.07568e-12
5.83919e-10
-5.07972e-12
5.90401e-10
-6.48145e-12
5.99409e-10
-9.00867e-12
6.14524e-10
-1.51151e-11
6.48338e-10
-3.38133e-11
7.44886e-10
-9.65478e-11
-2.47644e-10
9.9253e-10
2.01209e-09
4.39591e-11
1.99512e-09
2.1972e-11
1.98843e-09
8.57094e-12
1.98834e-09
-5.40409e-14
1.99234e-09
-5.40889e-12
1.9994e-09
-9.38804e-12
2.0092e-09
-1.29975e-11
2.02171e-09
-1.65778e-11
2.0373e-09
-2.06743e-11
2.05715e-09
-2.63366e-11
2.08414e-09
-3.59931e-11
2.12515e-09
-5.61236e-11
2.19341e-09
-1.02079e-10
2.30127e-09
-2.04408e-10
-3.59706e-10
2.41334e-09
3.9805e-09
1.08018e-10
3.94796e-09
5.45138e-11
3.93464e-09
2.18897e-11
3.93352e-09
1.07452e-12
3.9399e-09
-1.17928e-11
3.95199e-09
-2.14826e-11
3.96904e-09
-3.00409e-11
3.99066e-09
-3.82029e-11
4.01739e-09
-4.73971e-11
4.05068e-09
-5.96341e-11
4.09347e-09
-7.8783e-11
4.15042e-09
-1.13067e-10
4.22418e-09
-1.75845e-10
4.30105e-09
-2.81276e-10
-4.04257e-10
4.3456e-09
6.62628e-09
2.09413e-10
6.57403e-09
1.06759e-10
6.55168e-09
4.42443e-11
6.5482e-09
4.55097e-12
6.55636e-09
-1.99478e-11
6.57322e-09
-3.83443e-11
6.59744e-09
-5.42626e-11
6.62798e-09
-6.87416e-11
6.66508e-09
-8.45009e-11
6.70974e-09
-1.0429e-10
6.76324e-09
-1.32283e-10
6.82543e-09
-1.75263e-10
6.89003e-09
-2.40444e-10
6.93751e-09
-3.28751e-10
-4.13764e-10
6.94702e-09
1.01258e-08
3.54883e-10
1.00497e-08
1.8291e-10
1.00156e-08
7.83882e-11
1.00079e-08
1.21797e-11
1.00169e-08
-2.88957e-11
1.00376e-08
-5.90897e-11
1.00681e-08
-8.47443e-11
1.01063e-08
-1.06943e-10
1.01517e-08
-1.29894e-10
1.0204e-08
-1.56642e-10
1.02623e-08
-1.90533e-10
1.03223e-08
-2.35252e-10
1.0374e-08
-2.92202e-10
1.04014e-08
-3.56154e-10
-4.08105e-10
1.03958e-08
1.46864e-08
5.48613e-10
1.45833e-08
2.86018e-10
1.4535e-08
1.26731e-10
1.45213e-08
2.58193e-11
1.45299e-08
-3.74406e-11
1.45533e-08
-8.25242e-11
1.45883e-08
-1.1976e-10
1.4632e-08
-1.5064e-10
1.46826e-08
-1.80499e-10
1.47383e-08
-2.12342e-10
1.4796e-08
-2.48195e-10
1.48496e-08
-2.88865e-10
1.48898e-08
-3.32442e-10
1.49067e-08
-3.73007e-10
-3.99939e-10
1.48985e-08
2.05432e-08
7.88219e-10
2.04136e-08
4.15592e-10
2.03508e-08
1.89549e-10
2.03303e-08
4.63329e-11
2.03373e-08
-4.44913e-11
2.03625e-08
-1.07663e-10
2.04001e-08
-1.57413e-10
2.04468e-08
-1.97284e-10
2.04993e-08
-2.3297e-10
2.05543e-08
-2.67365e-10
2.06075e-08
-3.01461e-10
2.06532e-08
-3.34541e-10
2.06848e-08
-3.64015e-10
2.06976e-08
-3.85837e-10
-3.95387e-10
2.06931e-08
2.79522e-08
1.05874e-09
2.78041e-08
5.63764e-10
2.77312e-08
2.62448e-10
2.7706e-08
7.15128e-11
2.77122e-08
-5.07346e-11
2.77388e-08
-1.34244e-10
2.77782e-08
-1.96763e-10
2.78258e-08
-2.44965e-10
2.78776e-08
-2.8474e-10
2.79293e-08
-3.19059e-10
2.79765e-08
-3.48657e-10
2.80148e-08
-3.72789e-10
2.80406e-08
-3.89825e-10
2.80528e-08
-3.98039e-10
-3.96268e-10
2.80536e-08
3.71808e-08
1.32645e-09
3.70338e-08
7.10751e-10
3.69631e-08
3.33146e-10
3.69411e-08
9.35409e-11
3.69512e-08
-6.07824e-11
3.69816e-08
-1.64631e-10
3.70238e-08
-2.39002e-10
3.70726e-08
-2.93727e-10
3.71231e-08
-3.35294e-10
3.71712e-08
-3.67165e-10
3.72132e-08
-3.90655e-10
3.72464e-08
-4.05973e-10
3.72695e-08
-4.12961e-10
3.72832e-08
-4.11731e-10
-4.02862e-10
3.72898e-08
4.85057e-08
1.53854e-09
4.83934e-08
8.23027e-10
4.8347e-08
3.79511e-10
4.83433e-08
9.72689e-11
4.83674e-08
-8.49032e-11
4.84085e-08
-2.05673e-10
4.84583e-08
-2.88813e-10
4.85114e-08
-3.46857e-10
4.85634e-08
-3.87323e-10
4.86109e-08
-4.14606e-10
4.86513e-08
-4.31122e-10
4.86837e-08
-4.38341e-10
4.87081e-08
-4.37404e-10
4.8726e-08
-4.29567e-10
-4.16182e-10
4.87393e-08
6.224e-08
1.6385e-09
6.22021e-08
8.60888e-10
6.22082e-08
3.7338e-10
6.22432e-08
6.2325e-11
6.22962e-08
-1.37977e-10
6.23589e-08
-2.68322e-10
6.24246e-08
-3.54522e-10
6.24889e-08
-4.11152e-10
6.25485e-08
-4.46967e-10
6.26014e-08
-4.67492e-10
6.26466e-08
-4.76305e-10
6.26842e-08
-4.75956e-10
6.27153e-08
-4.68441e-10
6.27413e-08
-4.55576e-10
-4.38959e-10
6.27641e-08
7.88079e-08
1.59941e-09
7.8869e-08
7.99846e-10
7.89476e-08
2.94776e-10
7.90373e-08
-2.74087e-11
7.91319e-08
-2.3258e-10
7.92263e-08
-3.62727e-10
7.93164e-08
-4.44623e-10
7.93996e-08
-4.94279e-10
7.94742e-08
-5.2162e-10
7.95399e-08
-5.33181e-10
7.9597e-08
-5.33416e-10
7.96466e-08
-5.25543e-10
7.96901e-08
-5.11971e-10
7.97292e-08
-4.94668e-10
-4.75194e-10
7.97654e-08
9.8833e-08
1.44995e-09
9.89789e-08
6.53898e-10
9.91232e-08
1.50459e-10
9.92646e-08
-1.68749e-10
9.93994e-08
-3.67377e-10
9.95255e-08
-4.88874e-10
9.96411e-08
-5.60263e-10
9.97454e-08
-5.98547e-10
9.98384e-08
-6.14616e-10
9.9921e-08
-6.1573e-10
9.99944e-08
-6.06833e-10
1.0006e-07
-5.91419e-10
1.0012e-07
-5.71986e-10
1.00176e-07
-5.50413e-10
-5.28083e-10
1.00229e-07
1.23121e-07
1.25468e-09
1.23304e-07
4.71509e-10
1.23479e-07
-2.47318e-11
1.23644e-07
-3.34001e-10
1.23798e-07
-5.21438e-10
1.2394e-07
-6.3081e-10
1.24069e-07
-6.89569e-10
1.24186e-07
-7.15475e-10
1.24292e-07
-7.20125e-10
1.24387e-07
-7.11234e-10
1.24474e-07
-6.9396e-10
1.24555e-07
-6.71833e-10
1.2463e-07
-6.47269e-10
1.24702e-07
-6.21969e-10
-5.97094e-10
1.24771e-07
1.52455e-07
1.06193e-09
1.5263e-07
2.96471e-10
1.52797e-07
-1.91594e-10
1.52952e-07
-4.8952e-10
1.53097e-07
-6.66222e-10
1.53231e-07
-7.64888e-10
1.53355e-07
-8.13152e-10
1.53469e-07
-8.29257e-10
1.53574e-07
-8.25235e-10
1.53672e-07
-8.09022e-10
1.53763e-07
-7.85826e-10
1.53851e-07
-7.59119e-10
1.53935e-07
-7.31185e-10
1.54016e-07
-7.03547e-10
-6.77161e-10
1.54096e-07
1.87324e-07
8.79112e-10
1.87479e-07
1.4131e-10
1.87621e-07
-3.33029e-10
1.87749e-07
-6.18145e-10
1.87868e-07
-7.85246e-10
1.8798e-07
-8.75927e-10
1.88084e-07
-9.17395e-10
1.88182e-07
-9.27796e-10
1.88276e-07
-9.19161e-10
1.88367e-07
-8.99397e-10
1.88454e-07
-8.73638e-10
1.88541e-07
-8.45241e-10
1.88626e-07
-8.16355e-10
1.88711e-07
-7.88355e-10
-7.62027e-10
1.88795e-07
2.27772e-07
6.9179e-10
2.27918e-07
-4.10788e-12
2.28037e-07
-4.51845e-10
2.28139e-07
-7.20678e-10
2.28232e-07
-8.77727e-10
2.28318e-07
-9.62247e-10
2.284e-07
-1.00002e-09
2.28481e-07
-1.0084e-09
2.28561e-07
-9.98899e-10
2.28641e-07
-9.79115e-10
2.28721e-07
-9.53965e-10
2.28802e-07
-9.26636e-10
2.28885e-07
-8.99139e-10
2.28969e-07
-8.72725e-10
-8.48086e-10
2.29055e-07
2.73288e-07
4.90114e-10
2.73431e-07
-1.47805e-10
2.73535e-07
-5.55426e-10
2.73618e-07
-8.0402e-10
2.73691e-07
-9.50287e-10
2.73758e-07
-1.02978e-09
2.73825e-07
-1.06611e-09
2.73892e-07
-1.07534e-09
2.73961e-07
-1.06802e-09
2.74033e-07
-1.05113e-09
2.74108e-07
-1.02922e-09
2.74186e-07
-1.00524e-09
2.74268e-07
-9.81052e-10
2.74353e-07
-9.57784e-10
-9.36053e-10
2.74441e-07
3.22487e-07
2.73901e-10
3.22632e-07
-2.93124e-10
3.2273e-07
-6.53509e-10
3.22804e-07
-8.77626e-10
3.22865e-07
-1.01127e-09
3.2292e-07
-1.08543e-09
3.22975e-07
-1.12105e-09
3.23032e-07
-1.13224e-09
3.23092e-07
-1.12844e-09
3.23157e-07
-1.11583e-09
3.23226e-07
-1.09846e-09
3.233e-07
-1.07898e-09
3.23378e-07
-1.05904e-09
3.2346e-07
-1.03966e-09
-1.02123e-09
3.23545e-07
3.72487e-07
3.96864e-11
3.72618e-07
-4.24225e-10
3.72686e-07
-7.21657e-10
3.72719e-07
-9.11245e-10
3.72736e-07
-1.02785e-09
3.72746e-07
-1.09563e-09
3.72757e-07
-1.13175e-09
3.72772e-07
-1.14708e-09
3.72793e-07
-1.14926e-09
3.7282e-07
-1.1435e-09
3.72855e-07
-1.13316e-09
3.72896e-07
-1.12045e-09
3.72944e-07
-1.10674e-09
3.72997e-07
-1.0929e-09
-1.07949e-09
3.73056e-07
3.70585e-07
-1.7458e-10
3.70694e-07
-5.33912e-10
3.70747e-07
-7.74522e-10
3.70768e-07
-9.32383e-10
3.70773e-07
-1.03278e-09
3.70772e-07
-1.09423e-09
3.7077e-07
-1.12967e-09
3.70771e-07
-1.14802e-09
3.70777e-07
-1.15517e-09
3.70788e-07
-1.15517e-09
3.70806e-07
-1.1507e-09
3.70829e-07
-1.14355e-09
3.70857e-07
-1.13484e-09
3.70889e-07
-1.1253e-09
-1.11529e-09
3.70925e-07
3.17864e-07
-2.79015e-10
3.17898e-07
-5.68079e-10
3.17891e-07
-7.67198e-10
3.17861e-07
-9.02123e-10
3.1782e-07
-9.92131e-10
3.17777e-07
-1.05087e-09
3.17735e-07
-1.08807e-09
3.17698e-07
-1.11061e-09
3.17666e-07
-1.12316e-09
3.1764e-07
-1.12893e-09
3.17619e-07
-1.13009e-09
3.17603e-07
-1.1281e-09
3.17592e-07
-1.12388e-09
3.17585e-07
-1.11802e-09
-1.11089e-09
3.17581e-07
2.66759e-07
-3.61628e-10
2.66779e-07
-5.88204e-10
2.66761e-07
-7.4911e-10
2.66721e-07
-8.61739e-10
2.66669e-07
-9.39892e-10
2.66611e-07
-9.93577e-10
2.66553e-07
-1.02998e-09
2.66497e-07
-1.05414e-09
2.66443e-07
-1.06961e-09
2.66393e-07
-1.07885e-09
2.66347e-07
-1.08353e-09
2.66303e-07
-1.08477e-09
2.66263e-07
-1.0833e-09
2.66224e-07
-1.07959e-09
-1.07394e-09
2.66187e-07
2.20252e-07
-4.06982e-10
2.20247e-07
-5.83548e-10
2.20211e-07
-7.12341e-10
2.20154e-07
-8.05233e-10
2.20086e-07
-8.72038e-10
2.20013e-07
-9.19937e-10
2.19937e-07
-9.54078e-10
2.19861e-07
-9.78123e-10
2.19786e-07
-9.94665e-10
2.19712e-07
-1.00554e-09
2.19641e-07
-1.01199e-09
2.19571e-07
-1.01488e-09
2.19502e-07
-1.01476e-09
2.19435e-07
-1.01199e-09
-1.00681e-09
2.19368e-07
1.79421e-07
-4.13669e-10
1.79388e-07
-5.50615e-10
1.79329e-07
-6.53019e-10
1.79253e-07
-7.29077e-10
1.79166e-07
-7.85653e-10
1.79074e-07
-8.27759e-10
1.78979e-07
-8.58993e-10
1.78883e-07
-8.8194e-10
1.78787e-07
-8.98457e-10
1.78691e-07
-9.09871e-10
1.78596e-07
-9.17099e-10
1.78502e-07
-9.20773e-10
1.78409e-07
-9.21303e-10
1.78316e-07
-9.18972e-10
-9.13949e-10
1.78223e-07
1.44429e-07
-3.86187e-10
1.44371e-07
-4.92322e-10
1.44292e-07
-5.73683e-10
1.44199e-07
-6.35965e-10
1.44097e-07
-6.83853e-10
1.4399e-07
-7.20726e-10
1.4388e-07
-7.49029e-10
1.43768e-07
-7.7055e-10
1.43657e-07
-7.86596e-10
1.43545e-07
-7.98106e-10
1.43433e-07
-8.05734e-10
1.43323e-07
-8.09936e-10
1.43212e-07
-8.11013e-10
1.43102e-07
-8.09178e-10
-8.0456e-10
1.42993e-07
1.14989e-07
-3.35558e-10
1.14915e-07
-4.18163e-10
1.14825e-07
-4.8313e-10
1.14723e-07
-5.3444e-10
1.14615e-07
-5.75176e-10
1.14501e-07
-6.07535e-10
1.14385e-07
-6.33144e-10
1.14268e-07
-6.53222e-10
1.1415e-07
-6.68672e-10
1.14032e-07
-6.80143e-10
1.13915e-07
-6.88091e-10
1.13798e-07
-6.92842e-10
1.13681e-07
-6.9461e-10
1.13565e-07
-6.9356e-10
-6.89789e-10
1.13451e-07
9.06047e-08
-2.75089e-10
9.05263e-08
-3.39715e-10
9.0435e-08
-3.91879e-10
9.03349e-08
-4.34373e-10
9.02289e-08
-4.69118e-10
9.01188e-08
-4.97495e-10
9.00063e-08
-5.20575e-10
8.98922e-08
-5.39177e-10
8.97775e-08
-5.53908e-10
8.96625e-08
-5.65205e-10
8.95478e-08
-5.73381e-10
8.94336e-08
-5.78662e-10
8.93202e-08
-5.81199e-10
8.92078e-08
-5.81117e-10
-5.78488e-10
8.90965e-08
7.06787e-08
-2.15375e-10
7.0605e-08
-2.65958e-10
7.0521e-08
-3.07853e-10
7.04296e-08
-3.42985e-10
7.03329e-08
-3.72451e-10
7.02325e-08
-3.971e-10
7.01296e-08
-4.17631e-10
7.0025e-08
-4.34579e-10
6.99194e-08
-4.48338e-10
6.98134e-08
-4.59196e-10
6.97074e-08
-4.67359e-10
6.96017e-08
-4.7298e-10
6.94966e-08
-4.76164e-10
6.93925e-08
-4.77002e-10
-4.75548e-10
6.92896e-08
5.45808e-08
-1.62417e-10
5.45166e-08
-2.01704e-10
5.44438e-08
-2.35084e-10
5.43646e-08
-2.63793e-10
5.42806e-08
-2.88382e-10
5.41928e-08
-3.09374e-10
5.41024e-08
-3.27214e-10
5.40101e-08
-3.42236e-10
5.39164e-08
-3.54689e-10
5.3822e-08
-3.6475e-10
5.37272e-08
-3.72554e-10
5.36324e-08
-3.78198e-10
5.3538e-08
-3.81754e-10
5.34443e-08
-3.83287e-10
-3.82833e-10
5.33516e-08
4.16973e-08
-1.1843e-10
4.1644e-08
-1.48446e-10
4.15835e-08
-1.74591e-10
4.15173e-08
-1.97546e-10
4.14465e-08
-2.17548e-10
4.1372e-08
-2.34918e-10
4.12947e-08
-2.49928e-10
4.12153e-08
-2.62776e-10
4.11342e-08
-2.73608e-10
4.1052e-08
-2.82531e-10
4.0969e-08
-2.89625e-10
4.08858e-08
-2.94952e-10
4.08026e-08
-2.98556e-10
4.07198e-08
-3.00482e-10
-3.00751e-10
4.06377e-08
3.14675e-08
-8.34387e-11
3.14249e-08
-1.05807e-10
3.13761e-08
-1.25758e-10
3.13221e-08
-1.43557e-10
3.12638e-08
-1.59286e-10
3.1202e-08
-1.73145e-10
3.11374e-08
-1.85286e-10
3.10704e-08
-1.9582e-10
3.10017e-08
-2.04826e-10
3.09315e-08
-2.12363e-10
3.08603e-08
-2.18477e-10
3.07886e-08
-2.23201e-10
3.07166e-08
-2.26564e-10
3.06447e-08
-2.28591e-10
-2.2929e-10
3.05732e-08
2.34023e-08
-5.64874e-11
2.33691e-08
-7.26342e-11
2.33307e-08
-8.7335e-11
2.32877e-08
-1.00597e-10
2.32409e-08
-1.12459e-10
2.31908e-08
-1.23038e-10
2.31379e-08
-1.32414e-10
2.30827e-08
-1.40642e-10
2.30257e-08
-1.4776e-10
2.29671e-08
-1.53797e-10
2.29074e-08
-1.58775e-10
2.28469e-08
-1.6271e-10
2.2786e-08
-1.65619e-10
2.27249e-08
-1.67511e-10
-1.68387e-10
2.2664e-08
1.70872e-08
-3.6351e-11
1.70621e-08
-4.75739e-11
1.70327e-08
-5.79221e-11
1.69994e-08
-6.73196e-11
1.69628e-08
-7.5811e-11
1.69232e-08
-8.34646e-11
1.68811e-08
-9.03163e-11
1.68368e-08
-9.63878e-11
1.67908e-08
-1.01695e-10
1.67432e-08
-1.06246e-10
1.66945e-08
-1.10052e-10
1.66449e-08
-1.13118e-10
1.65947e-08
-1.1545e-10
1.65443e-08
-1.1705e-10
-1.17914e-10
1.64938e-08
1.21779e-08
-2.18905e-11
1.21597e-08
-2.93032e-11
1.21379e-08
-3.61498e-11
1.21129e-08
-4.23862e-11
1.20852e-08
-4.80729e-11
1.2055e-08
-5.32464e-11
1.20226e-08
-5.7919e-11
1.19883e-08
-6.20958e-11
1.19524e-08
-6.57799e-11
1.19151e-08
-6.89712e-11
1.18767e-08
-7.16716e-11
1.18375e-08
-7.3881e-11
1.17976e-08
-7.56014e-11
1.17574e-08
-7.68289e-11
-7.75561e-11
1.17171e-08
8.39187e-09
-1.2029e-11
8.37915e-09
-1.65757e-11
8.36372e-09
-2.07214e-11
8.34583e-09
-2.45013e-11
8.32574e-09
-2.79771e-11
8.30366e-09
-3.11663e-11
8.27981e-09
-3.40702e-11
8.2544e-09
-3.66867e-11
8.22763e-09
-3.90134e-11
8.19971e-09
-4.10469e-11
8.17082e-09
-4.27856e-11
8.14117e-09
-4.42271e-11
8.11094e-09
-4.53715e-11
8.08032e-09
-4.6213e-11
-4.67416e-11
8.04951e-09
5.49865e-09
-5.75918e-12
5.49031e-09
-8.24067e-12
5.48002e-09
-1.04277e-11
5.46794e-09
-1.24231e-11
5.45424e-09
-1.42738e-11
5.43906e-09
-1.59858e-11
5.42254e-09
-1.75569e-11
5.40484e-09
-1.8983e-11
5.38609e-09
-2.02609e-11
5.36643e-09
-2.13865e-11
5.346e-09
-2.2358e-11
5.32495e-09
-2.31724e-11
5.3034e-09
-2.38295e-11
5.28151e-09
-2.4324e-11
-2.46451e-11
5.25942e-09
3.31152e-09
-2.17167e-12
3.30655e-09
-3.26552e-12
3.30029e-09
-4.16641e-12
3.29285e-09
-4.99054e-12
3.28434e-09
-5.76295e-12
3.27484e-09
-6.48407e-12
3.26444e-09
-7.15114e-12
3.25321e-09
-7.76111e-12
3.24126e-09
-8.31145e-12
3.22868e-09
-8.79958e-12
3.21554e-09
-9.22412e-12
3.20195e-09
-9.58311e-12
3.188e-09
-9.87639e-12
3.17378e-09
-1.01004e-11
-1.02459e-11
3.15938e-09
1.67981e-09
-4.70797e-13
1.67731e-09
-7.6426e-13
1.67411e-09
-9.66443e-13
1.67027e-09
-1.15464e-12
1.66584e-09
-1.33491e-12
1.66087e-09
-1.50571e-12
1.65538e-09
-1.66536e-12
1.64943e-09
-1.81242e-12
1.64307e-09
-1.94581e-12
1.63633e-09
-2.06456e-12
1.62928e-09
-2.16824e-12
1.62195e-09
-2.25616e-12
1.6144e-09
-2.32826e-12
1.60668e-09
-2.38303e-12
-2.41526e-12
1.59885e-09
4.82413e-10
4.81649e-10
4.80682e-10
4.79528e-10
4.78193e-10
4.76687e-10
4.75022e-10
4.73209e-10
4.71264e-10
4.69199e-10
4.67031e-10
4.64775e-10
4.62446e-10
4.60063e-10
4.57648e-10
1.18985e-09
-4.58173e-10
2.60848e-10
1.4745e-09
-3.61036e-10
7.63908e-11
1.7635e-09
-1.95726e-10
-9.32722e-11
2.05043e-09
-2.59729e-11
-2.60957e-10
2.33316e-09
1.42578e-10
-4.25307e-10
2.61229e-09
3.01237e-10
-5.8037e-10
2.88906e-09
4.46612e-10
-7.23384e-10
3.1644e-09
5.75401e-10
-8.50734e-10
3.43899e-09
6.83753e-10
-9.58347e-10
3.71333e-09
7.67406e-10
-1.04175e-09
3.98779e-09
8.21468e-10
-1.09592e-09
4.26261e-09
8.40251e-10
-1.11508e-09
4.53801e-09
8.173e-10
-1.0927e-09
4.8141e-09
7.45757e-10
-1.02185e-09
5.09096e-09
6.19446e-10
-8.96306e-10
5.36886e-09
4.34823e-10
-7.12725e-10
5.64855e-09
1.94395e-10
-4.74084e-10
5.93193e-09
-8.73351e-11
-1.96044e-10
6.22279e-09
-3.83143e-10
9.22853e-11
6.52737e-09
-6.45863e-10
3.41284e-10
6.85346e-09
-8.26753e-10
5.00668e-10
7.20654e-09
-8.94481e-10
5.41392e-10
7.53102e-09
-7.88223e-10
4.63747e-10
7.80104e-09
-7.3563e-10
4.65608e-10
8.01394e-09
-8.00778e-10
5.87875e-10
8.17073e-09
-9.49687e-10
7.92903e-10
8.27408e-09
-1.14109e-09
1.03773e-09
8.32753e-09
-1.35251e-09
1.29906e-09
8.33372e-09
-1.56651e-09
1.56032e-09
8.2937e-09
-1.75448e-09
1.79449e-09
8.20927e-09
-1.90825e-09
1.99267e-09
8.08262e-09
-2.01183e-09
2.13848e-09
7.91538e-09
-2.03582e-09
2.20306e-09
7.70991e-09
-1.96692e-09
2.17239e-09
7.46905e-09
-1.7949e-09
2.03576e-09
7.19566e-09
-1.51415e-09
1.78754e-09
6.8924e-09
-1.12294e-09
1.42619e-09
6.56177e-09
-6.20641e-10
9.51275e-10
6.20627e-09
-4.22479e-12
3.59722e-10
5.82774e-09
7.3401e-10
-3.55481e-10
5.42356e-09
1.59896e-09
-1.19477e-09
4.97869e-09
2.56479e-09
-2.11992e-09
4.46399e-09
3.5006e-09
-2.9859e-09
3.88412e-09
4.08316e-09
-3.50329e-09
3.54002e-09
3.5276e-09
-3.1835e-09
2.49244e-09
-5.37276e-10
2.66528e-09
-5.33874e-10
2.90068e-09
-4.31129e-10
3.16505e-09
-2.90344e-10
3.44409e-09
-1.36461e-10
3.73035e-09
1.49719e-11
4.02074e-09
1.56223e-10
4.31383e-09
2.82314e-10
4.60897e-09
3.88618e-10
4.90582e-09
4.70553e-10
5.2042e-09
5.23092e-10
5.50397e-09
5.40473e-10
5.80503e-09
5.16244e-10
6.10719e-09
4.43597e-10
6.41022e-09
3.16415e-10
6.71406e-09
1.30983e-10
7.01908e-09
-1.10627e-10
7.3268e-09
-3.95054e-10
7.64069e-09
-6.97031e-10
7.96686e-09
-9.72034e-10
8.31323e-09
-1.17313e-09
8.68581e-09
-1.26706e-09
9.02736e-09
-1.12978e-09
9.31192e-09
-1.02018e-09
9.53702e-09
-1.02588e-09
9.70361e-09
-1.11628e-09
9.81416e-09
-1.25164e-09
9.87215e-09
-1.4105e-09
9.88012e-09
-1.57447e-09
9.83922e-09
-1.71358e-09
9.75163e-09
-1.82065e-09
9.61993e-09
-1.88013e-09
9.44636e-09
-1.86225e-09
9.23422e-09
-1.75478e-09
8.98764e-09
-1.54832e-09
8.71129e-09
-1.23779e-09
8.41039e-09
-8.22034e-10
8.09126e-09
-3.01514e-10
7.76269e-09
3.24349e-10
7.4378e-09
1.0589e-09
7.1352e-09
1.90156e-09
6.87795e-09
2.82204e-09
6.69424e-09
3.6843e-09
6.61582e-09
4.16158e-09
3.64957e-09
6.50628e-09
4.3628e-09
-5.54474e-10
4.44297e-09
-6.14043e-10
4.59829e-09
-5.86455e-10
4.80982e-09
-5.01869e-10
5.05755e-09
-3.84191e-10
5.32859e-09
-2.56069e-10
5.61505e-09
-1.3024e-10
5.91218e-09
-1.48193e-11
6.21708e-09
8.3725e-11
6.52787e-09
1.59758e-10
6.84331e-09
2.0766e-10
7.16247e-09
2.21308e-10
7.48463e-09
1.94085e-10
7.80907e-09
1.19156e-10
8.13504e-09
-9.55663e-12
8.46195e-09
-1.95925e-10
8.78959e-09
-4.3827e-10
9.11888e-09
-7.24336e-10
9.4527e-09
-1.03086e-09
9.79679e-09
-1.31613e-09
1.01589e-08
-1.53526e-09
1.05454e-08
-1.65357e-09
1.08986e-08
-1.4829e-09
1.11928e-08
-1.31444e-09
1.14261e-08
-1.25916e-09
1.15993e-08
-1.28951e-09
1.17147e-08
-1.36697e-09
1.17754e-08
-1.47127e-09
1.17839e-08
-1.58294e-09
1.17416e-08
-1.67129e-09
1.16511e-08
-1.73012e-09
1.15152e-08
-1.74423e-09
1.1337e-08
-1.68406e-09
1.1121e-08
-1.5388e-09
1.0873e-08
-1.30028e-09
1.05997e-08
-9.64545e-10
1.03096e-08
-5.31879e-10
1.00133e-08
-5.22652e-12
9.72627e-09
6.11353e-10
9.47235e-09
1.31281e-09
9.28712e-09
2.08679e-09
9.21658e-09
2.89257e-09
9.29702e-09
3.60387e-09
9.47948e-09
3.97912e-09
3.59113e-09
9.53792e-09
6.93039e-09
-5.37843e-10
6.94859e-09
-6.32243e-10
7.02416e-09
-6.62026e-10
7.16389e-09
-6.41608e-10
7.35586e-09
-5.76154e-10
7.5869e-09
-4.87115e-10
7.84702e-09
-3.90356e-10
8.12879e-09
-2.9659e-10
8.42694e-09
-2.14424e-10
8.7377e-09
-1.50998e-10
9.0583e-09
-1.12944e-10
9.38669e-09
-1.07078e-10
9.72117e-09
-1.40401e-10
1.00602e-08
-2.19893e-10
1.04023e-08
-3.5164e-10
1.07461e-08
-5.3968e-10
1.10905e-08
-7.82678e-10
1.14355e-08
-1.06942e-09
1.17833e-08
-1.37865e-09
1.21388e-08
-1.67163e-09
1.25093e-08
-1.90573e-09
1.29011e-08
-2.04539e-09
1.32574e-08
-1.83919e-09
1.3554e-08
-1.611e-09
1.37892e-08
-1.49438e-09
1.3964e-08
-1.46426e-09
1.408e-08
-1.48303e-09
1.41404e-08
-1.53166e-09
1.4147e-08
-1.58954e-09
1.41021e-08
-1.62634e-09
1.40087e-08
-1.63674e-09
1.38692e-08
-1.60473e-09
1.36881e-08
-1.50303e-09
1.34715e-08
-1.32216e-09
1.32268e-08
-1.05556e-09
1.29633e-08
-7.01043e-10
1.26926e-08
-2.61171e-10
1.24297e-08
2.57701e-10
1.21954e-08
8.45587e-10
1.202e-08
1.48821e-09
1.19451e-08
2.16171e-09
1.20171e-08
2.82055e-09
1.2256e-08
3.36496e-09
1.26032e-08
3.63196e-09
3.39514e-09
1.27992e-08
1.03661e-08
-5.08156e-10
1.03482e-08
-6.14316e-10
1.03653e-08
-6.79104e-10
1.04312e-08
-7.07513e-10
1.05535e-08
-6.98498e-10
1.07245e-08
-6.5811e-10
1.09357e-08
-6.01561e-10
1.11797e-08
-5.40589e-10
1.14501e-08
-4.84842e-10
1.17417e-08
-4.42586e-10
1.20502e-08
-4.21485e-10
1.23724e-08
-4.29217e-10
1.27053e-08
-4.7331e-10
1.30464e-08
-5.60979e-10
1.33931e-08
-6.98359e-10
1.37431e-08
-8.8966e-10
1.40942e-08
-1.13383e-09
1.44454e-08
-1.42056e-09
1.47974e-08
-1.73065e-09
1.51541e-08
-2.02836e-09
1.55218e-08
-2.27346e-09
1.59066e-08
-2.43013e-09
1.62541e-08
-2.18675e-09
1.65424e-08
-1.89928e-09
1.67704e-08
-1.72237e-09
1.6939e-08
-1.63284e-09
1.70496e-08
-1.5936e-09
1.71043e-08
-1.58644e-09
1.71054e-08
-1.59058e-09
1.70554e-08
-1.57637e-09
1.69586e-08
-1.5399e-09
1.68156e-08
-1.46181e-09
1.66333e-08
-1.32073e-09
1.64192e-08
-1.10802e-09
1.61826e-08
-8.18991e-10
1.59353e-08
-4.53736e-10
1.56918e-08
-1.76537e-11
1.54703e-08
4.79229e-10
1.52945e-08
1.02138e-09
1.51952e-08
1.5875e-09
1.52097e-08
2.14717e-09
1.53733e-08
2.65702e-09
1.56908e-08
3.04748e-09
1.60965e-08
3.22624e-09
3.0954e-09
1.63962e-08
1.48695e-08
-4.79133e-10
1.48355e-08
-5.80306e-10
1.48198e-08
-6.63387e-10
1.48329e-08
-7.2063e-10
1.48878e-08
-7.53418e-10
1.49908e-08
-7.6112e-10
1.51382e-08
-7.4891e-10
1.53252e-08
-7.2764e-10
1.55469e-08
-7.06517e-10
1.5798e-08
-6.93641e-10
1.60736e-08
-6.97095e-10
1.63695e-08
-7.25178e-10
1.6682e-08
-7.85823e-10
1.70075e-08
-8.86403e-10
1.73422e-08
-1.03305e-09
1.76826e-08
-1.23011e-09
1.80255e-08
-1.47668e-09
1.83681e-08
-1.76318e-09
1.87098e-08
-2.0724e-09
1.90531e-08
-2.37162e-09
1.94026e-08
-2.62298e-09
1.97634e-08
-2.79094e-09
2.00862e-08
-2.50956e-09
2.0352e-08
-2.16502e-09
2.05602e-08
-1.93066e-09
2.07119e-08
-1.78449e-09
2.0808e-08
-1.68967e-09
2.0849e-08
-1.62743e-09
2.08387e-08
-1.58037e-09
2.07813e-08
-1.51892e-09
2.06784e-08
-1.43705e-09
2.05311e-08
-1.31451e-09
2.03484e-08
-1.13803e-09
2.01394e-08
-8.98971e-10
1.99151e-08
-5.94738e-10
1.96894e-08
-2.27991e-10
1.94786e-08
1.9313e-10
1.93026e-08
6.5519e-10
1.91848e-08
1.1392e-09
1.91517e-08
1.62067e-09
1.923e-08
2.06885e-09
1.94391e-08
2.44791e-09
1.97717e-08
2.71489e-09
2.01719e-08
2.82606e-09
2.74773e-09
2.05195e-08
2.06721e-08
-4.58125e-10
2.06399e-08
-5.48172e-10
2.06101e-08
-6.33601e-10
2.05963e-08
-7.06761e-10
2.06063e-08
-7.63478e-10
2.06504e-08
-8.05233e-10
2.07339e-08
-8.32361e-10
2.08564e-08
-8.50157e-10
2.1016e-08
-8.66108e-10
2.12094e-08
-8.86993e-10
2.14326e-08
-9.20313e-10
2.16817e-08
-9.74335e-10
2.19528e-08
-1.05689e-09
2.22415e-08
-1.17515e-09
2.25435e-08
-1.33501e-09
2.28541e-08
-1.54075e-09
2.31689e-08
-1.7914e-09
2.34835e-08
-2.07778e-09
2.37956e-08
-2.38458e-09
2.4106e-08
-2.682e-09
2.44172e-08
-2.93419e-09
2.47327e-08
-3.10641e-09
2.50107e-08
-2.78751e-09
2.52358e-08
-2.3902e-09
2.54084e-08
-2.10325e-09
2.5529e-08
-1.9051e-09
2.55981e-08
-1.75874e-09
2.56154e-08
-1.6447e-09
2.55858e-08
-1.55083e-09
2.5516e-08
-1.44907e-09
2.5402e-08
-1.32303e-09
2.52481e-08
-1.16067e-09
2.50648e-08
-9.54666e-10
2.48622e-08
-6.96402e-10
2.46529e-08
-3.85458e-10
2.44519e-08
-2.69574e-11
2.42762e-08
3.68789e-10
2.41453e-08
7.86163e-10
2.40791e-08
1.20532e-09
2.40973e-08
1.60255e-09
2.42145e-08
1.95159e-09
2.44359e-08
2.22651e-09
2.47471e-08
2.40369e-09
2.51065e-08
2.4667e-09
2.41042e-09
2.54438e-08
2.80428e-08
-4.47265e-10
2.80209e-08
-5.26278e-10
2.79943e-08
-6.07042e-10
2.79718e-08
-6.84226e-10
2.79624e-08
-7.541e-10
2.79722e-08
-8.14974e-10
2.80076e-08
-8.67819e-10
2.80746e-08
-9.17097e-10
2.81739e-08
-9.6542e-10
2.83047e-08
-1.0178e-09
2.84654e-08
-1.08101e-09
2.86536e-08
-1.16252e-09
2.88661e-08
-1.26938e-09
2.90989e-08
-1.40798e-09
2.93474e-08
-1.58355e-09
2.96067e-08
-1.80002e-09
2.98712e-08
-2.05587e-09
3.01353e-08
-2.34189e-09
3.03952e-08
-2.64451e-09
3.06498e-08
-2.93656e-09
3.08991e-08
-3.18349e-09
3.11444e-08
-3.35171e-09
3.13543e-08
-2.99739e-09
3.1518e-08
-2.55393e-09
3.16361e-08
-2.22139e-09
3.17085e-08
-1.97748e-09
3.17334e-08
-1.78358e-09
3.17176e-08
-1.62891e-09
3.16623e-08
-1.49554e-09
3.15666e-08
-1.35339e-09
3.14333e-08
-1.18972e-09
3.12699e-08
-9.9726e-10
3.10842e-08
-7.68978e-10
3.08877e-08
-4.99872e-10
3.06938e-08
-1.91594e-10
3.05174e-08
1.49433e-10
3.03752e-08
5.10994e-10
3.02838e-08
8.77576e-10
3.02585e-08
1.23067e-09
3.03107e-08
1.55027e-09
3.04456e-08
1.81675e-09
3.06585e-08
2.01364e-09
3.09323e-08
2.12979e-09
3.1237e-08
2.16205e-09
2.11592e-09
3.15315e-08
3.72886e-08
-4.46039e-10
3.72788e-08
-5.16511e-10
3.72632e-08
-5.91385e-10
3.72464e-08
-6.67443e-10
3.72342e-08
-7.41896e-10
3.72331e-08
-8.13858e-10
3.72458e-08
-8.80535e-10
3.72782e-08
-9.4957e-10
3.73342e-08
-1.02135e-09
3.74141e-08
-1.0977e-09
3.75179e-08
-1.18486e-09
3.76453e-08
-1.28987e-09
3.77942e-08
-1.41829e-09
3.79616e-08
-1.57544e-09
3.81436e-08
-1.76552e-09
3.83354e-08
-1.99179e-09
3.85311e-08
-2.25158e-09
3.87243e-08
-2.53517e-09
3.89104e-08
-2.83053e-09
3.90866e-08
-3.11277e-09
3.92503e-08
-3.34724e-09
3.94005e-08
-3.50191e-09
3.95189e-08
-3.11578e-09
3.95999e-08
-2.63496e-09
3.96439e-08
-2.2654e-09
3.96475e-08
-1.98105e-09
3.96177e-08
-1.75377e-09
3.95571e-08
-1.56828e-09
3.94574e-08
-1.39584e-09
3.93246e-08
-1.2206e-09
3.91659e-08
-1.03109e-09
3.89865e-08
-8.17849e-10
3.87944e-08
-5.76885e-10
3.8601e-08
-3.06442e-10
3.842e-08
-1.06258e-11
3.82647e-08
3.04765e-10
3.81499e-08
6.25768e-10
3.80884e-08
9.39135e-10
3.80897e-08
1.22929e-09
3.81589e-08
1.48116e-09
3.82938e-08
1.68176e-09
3.84854e-08
1.82204e-09
3.8717e-08
1.89821e-09
3.89664e-08
1.91265e-09
1.87334e-09
3.9209e-08
4.87476e-08
-4.543e-10
4.87499e-08
-5.18848e-10
4.87474e-08
-5.88876e-10
4.87426e-08
-6.62617e-10
4.8739e-08
-7.38324e-10
4.87402e-08
-8.15095e-10
4.87511e-08
-8.91422e-10
4.87725e-08
-9.7092e-10
4.88072e-08
-1.0561e-09
4.88578e-08
-1.14825e-09
4.89248e-08
-1.25186e-09
4.90075e-08
-1.37264e-09
4.91046e-08
-1.51537e-09
4.92136e-08
-1.68445e-09
4.93312e-08
-1.88308e-09
4.94531e-08
-2.11373e-09
4.95736e-08
-2.37201e-09
4.9686e-08
-2.64759e-09
4.97854e-08
-2.9299e-09
4.98683e-08
-3.19575e-09
4.99296e-08
-3.40851e-09
4.99662e-08
-3.53848e-09
4.99751e-08
-3.12467e-09
4.99567e-08
-2.61655e-09
4.99106e-08
-2.21933e-09
4.98366e-08
-1.90707e-09
4.97357e-08
-1.65287e-09
4.96074e-08
-1.43997e-09
4.94537e-08
-1.24216e-09
4.9278e-08
-1.04493e-09
4.90855e-08
-8.38516e-10
4.88828e-08
-6.15195e-10
4.86785e-08
-3.72572e-10
4.84835e-08
-1.11427e-10
4.8309e-08
1.63899e-10
4.81681e-08
4.4564e-10
4.80712e-08
7.22646e-10
4.80269e-08
9.8345e-10
4.80398e-08
1.21642e-09
4.81096e-08
1.41132e-09
4.82308e-08
1.56053e-09
4.83928e-08
1.66007e-09
4.8581e-08
1.71e-09
4.87792e-08
1.71452e-09
1.68103e-09
4.89715e-08
6.27836e-08
-4.7384e-10
6.27993e-08
-5.3456e-10
6.28116e-08
-6.01192e-10
6.28219e-08
-6.72917e-10
6.28324e-08
-7.48841e-10
6.28456e-08
-8.28265e-10
6.28651e-08
-9.10902e-10
6.28904e-08
-9.96228e-10
6.29232e-08
-1.08892e-09
6.29662e-08
-1.19123e-09
6.30195e-08
-1.30518e-09
6.30813e-08
-1.4344e-09
6.31495e-08
-1.58353e-09
6.32212e-08
-1.75624e-09
6.32931e-08
-1.95491e-09
6.33605e-08
-2.18115e-09
6.34171e-08
-2.42863e-09
6.34564e-08
-2.68693e-09
6.34739e-08
-2.94738e-09
6.34651e-08
-3.18692e-09
6.34226e-08
-3.36598e-09
6.33424e-08
-3.45828e-09
6.32373e-08
-3.01954e-09
6.3114e-08
-2.49328e-09
6.29717e-08
-2.07701e-09
6.28105e-08
-1.74589e-09
6.26312e-08
-1.47357e-09
6.24327e-08
-1.24151e-09
6.22188e-08
-1.0282e-09
6.19932e-08
-8.1939e-10
6.17614e-08
-6.06675e-10
6.15304e-08
-3.84221e-10
6.13088e-08
-1.50914e-10
6.11059e-08
9.14008e-11
6.09319e-08
3.37902e-10
6.07964e-08
5.81216e-10
6.07062e-08
8.12802e-10
6.06658e-08
1.02386e-09
6.06758e-08
1.20644e-09
6.07328e-08
1.3543e-09
6.08297e-08
1.46362e-09
6.09564e-08
1.53339e-09
6.1101e-08
1.56543e-09
6.12514e-08
1.56406e-09
1.53531e-09
6.13971e-08
7.97997e-08
-5.08049e-10
7.98317e-08
-5.66565e-10
7.98616e-08
-6.31126e-10
7.98902e-08
-7.01491e-10
7.99186e-08
-7.77282e-10
7.99485e-08
-8.58138e-10
7.99817e-08
-9.44077e-10
8.00209e-08
-1.03547e-09
8.0066e-08
-1.134e-09
8.01164e-08
-1.24163e-09
8.0172e-08
-1.3608e-09
8.02317e-08
-1.49405e-09
8.02925e-08
-1.64439e-09
8.03508e-08
-1.8145e-09
8.0402e-08
-2.00616e-09
8.04402e-08
-2.21929e-09
8.04577e-08
-2.44619e-09
8.04486e-08
-2.67776e-09
8.04092e-08
-2.90803e-09
8.03298e-08
-3.10749e-09
8.0203e-08
-3.23917e-09
8.00253e-08
-3.28064e-09
7.98224e-08
-2.81665e-09
7.96069e-08
-2.27778e-09
7.93787e-08
-1.84878e-09
7.91378e-08
-1.50498e-09
7.88855e-08
-1.22131e-09
7.86224e-08
-9.78321e-10
7.83521e-08
-7.57915e-10
7.80796e-08
-5.46881e-10
7.78108e-08
-3.37914e-10
7.75528e-08
-1.26222e-10
7.73131e-08
8.87455e-11
7.71003e-08
3.04284e-10
7.6922e-08
5.16126e-10
7.67846e-08
7.18691e-10
7.66917e-08
9.05703e-10
7.66443e-08
1.0712e-09
7.66405e-08
1.21027e-09
7.66752e-08
1.31955e-09
7.67412e-08
1.3976e-09
7.68297e-08
1.44497e-09
7.69311e-08
1.46397e-09
7.70368e-08
1.45842e-09
1.43295e-09
7.71391e-08
1.00281e-07
-5.59763e-10
1.00331e-07
-6.17316e-10
1.00381e-07
-6.80898e-10
1.0043e-07
-7.50604e-10
1.00479e-07
-8.26436e-10
1.0053e-07
-9.08362e-10
1.00582e-07
-9.96566e-10
1.00638e-07
-1.09148e-09
1.00698e-07
-1.19392e-09
1.00762e-07
-1.30522e-09
1.00828e-07
-1.42715e-09
1.00895e-07
-1.56149e-09
1.00961e-07
-1.71e-09
1.01021e-07
-1.87409e-09
1.01069e-07
-2.05439e-09
1.01098e-07
-2.24843e-09
1.01101e-07
-2.44941e-09
1.01073e-07
-2.64991e-09
1.01005e-07
-2.83997e-09
1.00885e-07
-2.98758e-09
1.00711e-07
-3.0647e-09
1.00474e-07
-3.04402e-09
1.00209e-07
-2.55179e-09
9.99333e-08
-2.00163e-09
9.96472e-08
-1.56267e-09
9.93517e-08
-1.20952e-09
9.90488e-08