/*--------------------------------*- C++ -*----------------------------------*\
| =========                 |                                                 |
| \\      /  F ield         | OpenFOAM: The Open Source CFD Toolbox           |
|  \\    /   O peration     | Version:  2312                                  |
|   \\  /    A nd           | Website:  www.openfoam.com                      |
|    \\/     M anipulation  |                                                 |
\*---------------------------------------------------------------------------*/
FoamFile
{
    version     2.0;
    format      ascii;
    arch        "LSB;label=32;scalar=64";
    class       surfaceScalarField;
    location    "57";
    object      phi;
}
// * * * * * * * * * * * * * * * * * * * * * * * * * * * * * * * * * * * * * //

dimensions      [0 3 -1 0 0 0 0];

oriented        oriented;

internalField   nonuniform List<scalar> 
9445
(
6.11171e-10
1.69752e-11
5.99613e-10
1.15588e-11
5.91689e-10
7.924e-12
5.8641e-10
5.27879e-12
5.83187e-10
3.22296e-12
5.81652e-10
1.5353e-12
5.81627e-10
2.51278e-14
5.83157e-10
-1.53013e-12
5.86191e-10
-3.0345e-12
5.91093e-10
-4.90205e-12
5.99068e-10
-7.9747e-12
6.137e-10
-1.46316e-11
6.47696e-10
-3.39966e-11
7.46208e-10
-9.8512e-11
-2.59749e-10
1.00596e-09
2.12714e-09
7.55334e-11
2.08684e-09
5.18605e-11
2.05886e-09
3.5902e-11
2.03985e-09
2.42865e-11
2.02778e-09
1.52945e-11
2.02135e-09
7.96162e-12
2.01993e-09
1.45114e-12
2.02335e-09
-4.94983e-12
2.03154e-09
-1.12305e-11
2.04571e-09
-1.90683e-11
2.06883e-09
-3.10977e-11
2.1078e-09
-5.35954e-11
2.17634e-09
-1.02539e-10
2.28803e-09
-2.10207e-10
-3.79482e-10
2.40777e-09
4.18805e-09
1.89092e-10
4.10923e-09
1.30678e-10
4.05397e-09
9.11646e-11
4.01585e-09
6.24096e-11
3.99091e-09
4.02357e-11
3.97658e-09
2.22897e-11
3.97153e-09
6.49706e-12
3.97504e-09
-8.4573e-12
3.98689e-09
-2.30808e-11
4.00858e-09
-4.07592e-11
4.04303e-09
-6.55421e-11
4.09478e-09
-1.05347e-10
4.16674e-09
-1.74502e-10
4.2452e-09
-2.8867e-10
-4.26116e-10
4.29184e-09
6.94198e-09
3.72939e-10
6.81314e-09
2.59522e-10
6.72183e-09
1.82478e-10
6.65784e-09
1.264e-10
6.61476e-09
8.3314e-11
6.58835e-09
4.86981e-11
6.57617e-09
1.86802e-11
6.57655e-09
-8.84662e-12
6.58888e-09
-3.54047e-11
6.61369e-09
-6.55684e-11
6.65211e-09
-1.0396e-10
6.70348e-09
-1.56725e-10
6.76115e-09
-2.3217e-10
6.80456e-09
-3.32079e-10
-4.30951e-10
6.80939e-09
1.05685e-08
6.42844e-10
1.03771e-08
4.50945e-10
1.02398e-08
3.19816e-10
1.01419e-08
2.24248e-10
1.00742e-08
1.51045e-10
1.00303e-08
9.26378e-11
1.0006e-08
4.29823e-11
9.99854e-09
-1.43461e-12
1.00064e-08
-4.32233e-11
1.00279e-08
-8.71237e-11
1.00615e-08
-1.37536e-10
1.01021e-08
-1.97342e-10
1.01388e-08
-2.68825e-10
1.01538e-08
-3.47108e-10
-4.13061e-10
1.01359e-08
1.52806e-08
1.01184e-09
1.50148e-08
7.16696e-10
1.48214e-08
5.13269e-10
1.46811e-08
3.64546e-10
1.45813e-08
2.5083e-10
1.45133e-08
1.60648e-10
1.44708e-08
8.54614e-11
1.44495e-08
1.99052e-11
1.4446e-08
-3.97221e-11
1.44568e-08
-9.79038e-11
1.4477e-08
-1.57812e-10
1.44997e-08
-2.19956e-10
1.45138e-08
-2.82945e-10
1.45077e-08
-3.41032e-10
-3.83363e-10
1.4478e-08
2.13222e-08
1.48422e-09
2.09749e-08
1.064e-09
2.07175e-08
7.70662e-10
2.05272e-08
5.54916e-10
2.03881e-08
3.89897e-10
2.02891e-08
2.59636e-10
2.02217e-08
1.52845e-10
2.01795e-08
6.20838e-11
2.01573e-08
-1.74521e-11
2.01493e-08
-8.99425e-11
2.01491e-08
-1.57562e-10
2.01489e-08
-2.19834e-10
2.01406e-08
-2.74632e-10
2.01178e-08
-3.18203e-10
-3.46008e-10
2.00804e-08
2.89603e-08
2.04648e-09
2.8535e-08
1.48935e-09
2.82124e-08
1.09328e-09
2.79683e-08
7.99001e-10
2.77851e-08
5.73122e-10
2.76495e-08
3.95232e-10
2.75511e-08
2.51258e-10
2.74814e-08
1.31704e-10
2.74334e-08
3.05649e-11
2.73998e-08
-5.63774e-11
2.73736e-08
-1.31297e-10
2.73478e-08
-1.94097e-10
2.73171e-08
-2.43893e-10
2.72785e-08
-2.79587e-10
-3.00526e-10
2.7233e-08
3.84709e-08
2.65753e-09
3.79896e-08
1.97067e-09
3.76131e-08
1.46981e-09
3.73202e-08
1.09185e-09
3.70939e-08
7.99474e-10
3.69201e-08
5.68982e-10
3.67874e-08
3.8397e-10
3.6686e-08
2.33139e-10
3.66074e-08
1.09134e-10
3.65438e-08
7.25724e-12
3.64884e-08
-7.59576e-11
3.64359e-08
-1.41535e-10
3.63826e-08
-1.90633e-10
3.63274e-08
-2.24432e-10
-2.44448e-10
3.62714e-08
5.01287e-08
3.24679e-09
4.96369e-08
2.46243e-09
4.92357e-08
1.87109e-09
4.89124e-08
1.41508e-09
4.86541e-08
1.05784e-09
4.84483e-08
7.74778e-10
4.82839e-08
5.48309e-10
4.81512e-08
3.65896e-10
4.80414e-08
2.18889e-10
4.79475e-08
1.01176e-10
4.78632e-08
8.34021e-12
4.77847e-08
-6.30628e-11
4.77097e-08
-1.15623e-10
4.76376e-08
-1.52269e-10
-1.7567e-10
4.75688e-08
6.42249e-08
3.73377e-09
6.37839e-08
2.90337e-09
6.34028e-08
2.25219e-09
6.30815e-08
1.73636e-09
6.28141e-08
1.32532e-09
6.25922e-08
9.96657e-10
6.24072e-08
7.33303e-10
6.22508e-08
5.22289e-10
6.21158e-08
3.53909e-10
6.19962e-08
2.20736e-10
6.18877e-08
1.16877e-10
6.17872e-08
3.74079e-11
6.16934e-08
-2.17745e-11
6.16056e-08
-6.45114e-11
-9.40955e-11
6.1524e-08
8.11396e-08
4.07127e-09
8.07985e-08
3.24446e-09
8.04809e-08
2.56974e-09
8.01974e-08
2.01992e-09
7.99493e-08
1.57343e-09
7.97336e-08
1.21232e-09
7.95454e-08
9.21459e-10
7.93795e-08
6.88255e-10
7.92309e-08
5.02473e-10
7.90959e-08
3.55719e-10
7.89718e-08
2.41043e-10
7.88566e-08
1.52533e-10
7.87496e-08
8.52394e-11
7.86503e-08
3.4814e-11
-2.324e-12
7.85585e-08
1.0144e-07
4.27744e-09
1.01204e-07
3.48044e-09
1.00966e-07
2.8084e-09
1.00738e-07
2.24729e-09
1.00528e-07
1.78383e-09
1.00335e-07
1.40485e-09
1.00159e-07
1.09753e-09
9.99974e-08
8.50047e-10
9.98477e-08
6.52111e-10
9.97086e-08
4.9489e-10
9.95787e-08
3.70942e-10
9.94573e-08
2.73903e-10
9.9344e-08
1.98501e-10
9.92386e-08
1.40224e-10
9.54578e-11
9.91408e-08
1.25872e-07
4.40115e-09
1.25709e-07
3.64287e-09
1.25532e-07
2.98603e-09
1.25352e-07
2.42722e-09
1.25176e-07
1.95948e-09
1.25007e-07
1.5735e-09
1.24847e-07
1.25837e-09
1.24694e-07
1.00302e-09
1.24548e-07
7.9735e-10
1.24411e-07
6.32548e-10
1.24281e-07
5.0111e-10
1.24158e-07
3.9663e-10
1.24043e-07
3.13824e-10
1.23935e-07
2.48224e-10
1.96267e-10
1.23834e-07
1.55158e-07
4.4674e-09
1.55045e-07
3.75574e-09
1.54908e-07
3.12312e-09
1.54759e-07
2.5759e-09
1.54606e-07
2.1125e-09
1.54453e-07
1.72686e-09
1.54301e-07
1.40968e-09
1.54154e-07
1.15064e-09
1.54011e-07
9.40151e-10
1.53874e-07
7.69725e-10
1.53743e-07
6.32107e-10
1.53618e-07
5.21087e-10
1.53501e-07
4.31534e-10
1.5339e-07
3.59141e-10
3.00465e-10
1.53286e-07
1.89781e-07
4.47578e-09
1.89717e-07
3.81958e-09
1.89619e-07
3.22146e-09
1.89499e-07
2.69561e-09
1.89366e-07
2.24509e-09
1.89227e-07
1.8667e-09
1.89084e-07
1.55266e-09
1.88941e-07
1.29372e-09
1.888e-07
1.08112e-09
1.88662e-07
9.0701e-10
1.8853e-07
7.64615e-10
1.88403e-07
6.48081e-10
1.88282e-07
5.52555e-10
1.88167e-07
4.73964e-10
4.09032e-10
1.88058e-07
2.29859e-07
4.42115e-09
2.29853e-07
3.82507e-09
2.29802e-07
3.27332e-09
2.29719e-07
2.77862e-09
2.29613e-07
2.35033e-09
2.29493e-07
1.98695e-09
2.29364e-07
1.68193e-09
2.2923e-07
1.42751e-09
2.29095e-07
1.21619e-09
2.28961e-07
1.04102e-09
2.2883e-07
8.95847e-10
2.28702e-07
7.75334e-10
2.2858e-07
6.75009e-10
2.28463e-07
5.91112e-10
5.20611e-10
2.28351e-07
2.74951e-07
4.30768e-09
2.75013e-07
3.76357e-09
2.7502e-07
3.26617e-09
2.74983e-07
2.81566e-09
2.74914e-07
2.41973e-09
2.7482e-07
2.08003e-09
2.74712e-07
1.79073e-09
2.74593e-07
1.54613e-09
2.74469e-07
1.34026e-09
2.74343e-07
1.16729e-09
2.74217e-07
1.02188e-09
2.74093e-07
8.99326e-10
2.73972e-07
7.95652e-10
2.73856e-07
7.07495e-10
6.32209e-10
2.73744e-07
3.2359e-07
4.09633e-09
3.23719e-07
3.63397e-09
3.23789e-07
3.19663e-09
3.23807e-07
2.79779e-09
3.23784e-07
2.4426e-09
3.2373e-07
2.13367e-09
3.23654e-07
1.86672e-09
3.23563e-07
1.63784e-09
3.2346e-07
1.44245e-09
3.23352e-07
1.27585e-09
3.2324e-07
1.13359e-09
3.23128e-07
1.0117e-09
3.23017e-07
9.06795e-10
3.22908e-07
8.15966e-10
7.36851e-10
3.22803e-07
3.72543e-07
3.77579e-09
3.72774e-07
3.40342e-09
3.72929e-07
3.04088e-09
3.73025e-07
2.70244e-09
3.73071e-07
2.39652e-09
3.73079e-07
2.12576e-09
3.73057e-07
1.88874e-09
3.73012e-07
1.68254e-09
3.72951e-07
1.50365e-09
3.72878e-07
1.34845e-09
3.72798e-07
1.21349e-09
3.72714e-07
1.09565e-09
3.72629e-07
9.92201e-10
3.72544e-07
9.00756e-10
8.19451e-10
3.72461e-07
3.69838e-07
3.43296e-09
3.70106e-07
3.13467e-09
3.70309e-07
2.83788e-09
3.70455e-07
2.55709e-09
3.70551e-07
2.29994e-09
3.70608e-07
2.06874e-09
3.70634e-07
1.86319e-09
3.70635e-07
1.68145e-09
3.70618e-07
1.52104e-09
3.70587e-07
1.37924e-09
3.70547e-07
1.25349e-09
3.70501e-07
1.14138e-09
3.70452e-07
1.04081e-09
3.70403e-07
9.49907e-10
8.6733e-10
3.70355e-07
3.16642e-07
3.03908e-09
3.16969e-07
2.8079e-09
3.17234e-07
2.5731e-09
3.17443e-07
2.34772e-09
3.17604e-07
2.13851e-09
3.17726e-07
1.94757e-09
3.17814e-07
1.77502e-09
3.17875e-07
1.61984e-09
3.17916e-07
1.48042e-09
3.1794e-07
1.35489e-09
3.17952e-07
1.24137e-09
3.17956e-07
1.13812e-09
3.17953e-07
1.04355e-09
3.17947e-07
9.5629e-10
8.75144e-10
3.17939e-07
2.64806e-07
2.68359e-09
2.65113e-07
2.50031e-09
2.65374e-07
2.31192e-09
2.65593e-07
2.12924e-09
2.65774e-07
1.95766e-09
2.65922e-07
1.7991e-09
2.66044e-07
1.65379e-09
2.66142e-07
1.52108e-09
2.66223e-07
1.39983e-09
2.66289e-07
1.28874e-09
2.66344e-07
1.18642e-09
2.66391e-07
1.0916e-09
2.66431e-07
1.0031e-09
2.66467e-07
9.19898e-10
8.41106e-10
2.66501e-07
2.17845e-07
2.34312e-09
2.18148e-07
2.19731e-09
2.18413e-07
2.04661e-09
2.18643e-07
1.89914e-09
2.18842e-07
1.75916e-09
2.19013e-07
1.62823e-09
2.1916e-07
1.50655e-09
2.19287e-07
1.39366e-09
2.19398e-07
1.28879e-09
2.19496e-07
1.19101e-09
2.19583e-07
1.09936e-09
2.19662e-07
1.0129e-09
2.19734e-07
9.30814e-10
2.19802e-07
8.52346e-10
7.76879e-10
2.19866e-07
1.76766e-07
2.00917e-09
1.7707e-07
1.89391e-09
1.77342e-07
1.77458e-09
1.77584e-07
1.65692e-09
1.77799e-07
1.54402e-09
1.7799e-07
1.43704e-09
1.78161e-07
1.33615e-09
1.78313e-07
1.24103e-09
1.78451e-07
1.15119e-09
1.78576e-07
1.066e-09
1.78691e-07
9.84786e-10
1.78797e-07
9.06928e-10
1.78896e-07
8.31856e-10
1.78989e-07
7.59075e-10
6.88161e-10
1.79078e-07
1.41789e-07
1.68357e-09
1.42089e-07
1.594e-09
1.42362e-07
1.50107e-09
1.4261e-07
1.40873e-09
1.42835e-07
1.31906e-09
1.43039e-07
1.23288e-09
1.43225e-07
1.15034e-09
1.43395e-07
1.07128e-09
1.43551e-07
9.9537e-10
1.43695e-07
9.22218e-10
1.43828e-07
8.51402e-10
1.43952e-07
7.82527e-10
1.44069e-07
7.15237e-10
1.44179e-07
6.49236e-10
5.84264e-10
1.44283e-07
1.12594e-07
1.37432e-09
1.12881e-07
1.30647e-09
1.13147e-07
1.23572e-09
1.13391e-07
1.16478e-09
1.13615e-07
1.09496e-09
1.13821e-07
1.02682e-09
1.14011e-07
9.60494e-10
1.14186e-07
8.95948e-10
1.14348e-07
8.33002e-10
1.14499e-07
7.71432e-10
1.1464e-07
7.11002e-10
1.14771e-07
6.51496e-10
1.14893e-07
5.92725e-10
1.15008e-07
5.34539e-10
4.76815e-10
1.15115e-07
8.85758e-08
1.0912e-09
8.88408e-08
1.0414e-09
8.90875e-08
9.89062e-10
8.93163e-08
9.35994e-10
8.95283e-08
8.82935e-10
8.97248e-08
8.30273e-10
8.99071e-08
7.78184e-10
9.00764e-08
7.26689e-10
9.02337e-08
6.75723e-10
9.03799e-08
6.25191e-10
9.05159e-08
5.7499e-10
9.06424e-08
5.25036e-10
9.07599e-08
4.75262e-10
9.08688e-08
4.25623e-10
3.76102e-10
9.09695e-08
6.90272e-08
8.42089e-10
6.92617e-08
8.06878e-10
6.94813e-08
7.69482e-10
6.96863e-08
7.31017e-10
6.98774e-08
6.91836e-10
7.00554e-08
6.52252e-10
7.02211e-08
6.12446e-10
7.03753e-08
5.72486e-10
7.05187e-08
5.3238e-10
7.06517e-08
4.9212e-10
7.0775e-08
4.51699e-10
7.08889e-08
4.11116e-10
7.09938e-08
3.70386e-10
7.10899e-08
3.29535e-10
2.88609e-10
7.11774e-08
5.32522e-08
6.31192e-10
5.34518e-08
6.07346e-10
5.36395e-08
5.81719e-10
5.38157e-08
5.54835e-10
5.39807e-08
5.2685e-10
5.41349e-08
4.98039e-10
5.42788e-08
4.68572e-10
5.44127e-08
4.38537e-10
5.45371e-08
4.07988e-10
5.46523e-08
3.76972e-10
5.47584e-08
3.45533e-10
5.48558e-08
3.13723e-10
5.49446e-08
2.81602e-10
5.50249e-08
2.49234e-10
2.167e-10
5.50968e-08
4.06198e-08
4.58925e-10
4.07836e-08
4.43577e-10
4.09384e-08
4.26866e-10
4.10844e-08
4.08842e-10
4.12217e-08
3.89603e-10
4.13503e-08
3.69393e-10
4.14705e-08
3.48354e-10
4.15825e-08
3.26579e-10
4.16863e-08
3.04142e-10
4.17822e-08
2.81115e-10
4.18702e-08
2.57567e-10
4.19503e-08
2.33573e-10
4.20227e-08
2.0921e-10
4.20874e-08
1.8456e-10
1.59711e-10
4.21444e-08
3.05803e-08
3.22795e-10
3.07104e-08
3.13514e-10
3.0834e-08
3.0325e-10
3.09511e-08
2.91728e-10
3.10616e-08
2.79076e-10
3.11655e-08
2.65486e-10
3.12628e-08
2.51069e-10
3.13535e-08
2.35913e-10
3.14375e-08
2.20092e-10
3.1515e-08
2.03682e-10
3.15858e-08
1.86757e-10
3.165e-08
1.69393e-10
3.17075e-08
1.51668e-10
3.17584e-08
1.33666e-10
1.15467e-10
3.18026e-08
2.26644e-08
2.1857e-10
2.27645e-08
2.13392e-10
2.28602e-08
2.07535e-10
2.29514e-08
2.00573e-10
2.30378e-08
1.92678e-10
2.31193e-08
1.83981e-10
2.31958e-08
1.74564e-10
2.32672e-08
1.64498e-10
2.33334e-08
1.53849e-10
2.33944e-08
1.42684e-10
2.34501e-08
1.31067e-10
2.35005e-08
1.19068e-10
2.35454e-08
1.06754e-10
2.35848e-08
9.41981e-11
8.14691e-11
2.36188e-08
1.64753e-08
1.41294e-10
1.655e-08
1.38704e-10
1.66218e-08
1.35666e-10
1.66907e-08
1.31744e-10
1.67562e-08
1.27125e-10
1.68183e-08
1.21884e-10
1.68768e-08
1.16078e-10
1.69316e-08
1.09758e-10
1.69824e-08
1.02975e-10
1.70293e-08
9.57829e-11
1.70722e-08
8.82312e-11
1.71109e-08
8.0375e-11
1.71453e-08
7.22666e-11
1.71756e-08
6.39651e-11
5.55241e-11
1.72015e-08
1.16801e-08
8.59857e-11
1.17339e-08
8.48841e-11
1.1786e-08
8.35081e-11
1.18363e-08
8.14948e-11
1.18844e-08
7.90112e-11
1.19302e-08
7.60877e-11
1.19735e-08
7.27602e-11
1.20142e-08
6.90645e-11
1.20521e-08
6.5035e-11
1.20872e-08
6.07088e-11
1.21193e-08
5.61218e-11
1.21484e-08
5.13132e-11
1.21743e-08
4.63197e-11
1.21971e-08
4.1185e-11
3.59487e-11
1.22167e-08
8.00118e-09
4.80625e-11
8.03836e-09
4.77064e-11
8.07466e-09
4.72079e-11
8.10985e-09
4.63062e-11
8.14374e-09
4.51203e-11
8.17617e-09
4.36547e-11
8.207e-09
4.19306e-11
8.2361e-09
3.99692e-11
8.26334e-09
3.77917e-11
8.28863e-09
3.54214e-11
8.31187e-09
3.28806e-11
8.33299e-09
3.01948e-11
8.35192e-09
2.73865e-11
8.36862e-09
2.44854e-11
2.15197e-11
8.38305e-09
5.20927e-09
2.35335e-11
5.2335e-09
2.34706e-11
5.25735e-09
2.33638e-11
5.28061e-09
2.30435e-11
5.30316e-09
2.25743e-11
5.32486e-09
2.19511e-11
5.3456e-09
2.11851e-11
5.36529e-09
2.02869e-11
5.38381e-09
1.92678e-11
5.40109e-09
1.81405e-11
5.41706e-09
1.69168e-11
5.43164e-09
1.5611e-11
5.44479e-09
1.4235e-11
5.45647e-09
1.28064e-11
1.1345e-11
5.46665e-09
3.11636e-09
9.05981e-12
3.13077e-09
9.05943e-12
3.14506e-09
9.07713e-12
3.15909e-09
9.01089e-12
3.17279e-09
8.88187e-12
3.18605e-09
8.68615e-12
3.19881e-09
8.42824e-12
3.21098e-09
8.11265e-12
3.22251e-09
7.74396e-12
3.23332e-09
7.32767e-12
3.24337e-09
6.86869e-12
3.2526e-09
6.37336e-12
3.26099e-09
5.84638e-12
3.2685e-09
5.29638e-12
4.73654e-12
3.27511e-09
1.56989e-09
1.9303e-12
1.57703e-09
1.91708e-12
1.58417e-09
1.94091e-12
1.59123e-09
1.94745e-12
1.59817e-09
1.93772e-12
1.60495e-09
1.91102e-12
1.61151e-09
1.8686e-12
1.61781e-09
1.81163e-12
1.62381e-09
1.74127e-12
1.62948e-09
1.65897e-12
1.63478e-09
1.56588e-12
1.63969e-09
1.4637e-12
1.64419e-09
1.35338e-12
1.64825e-09
1.23751e-12
1.12333e-12
1.65186e-09
4.47092e-10
4.49009e-10
4.5095e-10
4.52898e-10
4.54835e-10
4.56746e-10
4.58615e-10
4.60427e-10
4.62168e-10
4.63827e-10
4.65393e-10
4.66857e-10
4.6821e-10
4.69447e-10
4.70571e-10
1.19884e-09
-5.22393e-10
3.29505e-10
1.472e-09
-4.84406e-10
2.11248e-10
1.74412e-09
-3.82209e-10
1.10087e-10
2.0092e-09
-2.7617e-10
1.10936e-11
2.26581e-09
-1.70482e-10
-8.61238e-11
2.51507e-09
-6.95786e-11
-1.79681e-10
2.75891e-09
2.81521e-11
-2.71996e-10
2.99909e-09
1.25744e-10
-3.65921e-10
3.23709e-09
2.2697e-10
-4.64969e-10
3.47411e-09
3.36255e-10
-5.73276e-10
3.71109e-09
4.58896e-10
-6.95884e-10
3.94885e-09
6.01616e-10
-8.39372e-10
4.18821e-09
7.73432e-10
-1.0128e-09
4.43035e-09
9.86348e-10
-1.22848e-09
4.67699e-09
1.25651e-09
-1.50315e-09
4.93084e-09
1.60468e-09
-1.85853e-09
5.19624e-09
2.05296e-09
-2.31836e-09
5.47963e-09
2.62457e-09
-2.90795e-09
5.78931e-09
3.34077e-09
-3.65045e-09
6.13561e-09
4.19836e-09
-4.54466e-09
6.52867e-09
5.12668e-09
-5.51973e-09
6.97326e-09
5.94185e-09
-6.38643e-09
7.38916e-09
5.36904e-09
-5.78494e-09
7.73532e-09
4.01718e-09
-4.36335e-09
8.00661e-09
2.49173e-09
-2.76302e-09
8.20424e-09
9.60398e-10
-1.15803e-09
8.3323e-09
-4.65314e-10
3.37251e-10
8.39536e-09
-1.7242e-09
1.66114e-09
8.39774e-09
-2.78855e-09
2.78618e-09
8.34351e-09
-3.6464e-09
3.70063e-09
8.23663e-09
-4.29263e-09
4.39951e-09
8.0811e-09
-4.72701e-09
4.88254e-09
7.88108e-09
-4.95403e-09
5.15405e-09
7.64079e-09
-4.98272e-09
5.22302e-09
7.3643e-09
-4.82613e-09
5.10262e-09
7.05526e-09
-4.50001e-09
4.80906e-09
6.71659e-09
-4.0209e-09
4.35956e-09
6.35049e-09
-3.40354e-09
3.76965e-09
5.95857e-09
-2.65763e-09
3.04955e-09
5.54174e-09
-1.78495e-09
2.20178e-09
5.09823e-09
-7.83079e-10
1.22659e-09
4.61813e-09
3.35096e-10
1.45011e-10
4.08389e-09
1.48177e-09
-9.47535e-10
3.50318e-09
2.43374e-09
-1.85304e-09
2.53341e-09
3.16214e-09
-2.19237e-09
2.48192e-09
-5.96545e-10
2.63859e-09
-6.4108e-10
2.85107e-09
-5.94688e-10
3.08739e-09
-5.12488e-10
3.33364e-09
-4.16726e-10
3.58277e-09
-3.1871e-10
3.83244e-09
-2.21518e-10
4.08213e-09
-1.23945e-10
4.33208e-09
-2.29889e-11
4.58286e-09
8.54762e-11
4.83508e-09
2.06681e-10
5.0894e-09
3.47295e-10
5.34665e-09
5.16177e-10
5.60809e-09
7.24915e-10
5.87561e-09
9.8899e-10
6.15216e-09
1.32813e-09
6.44249e-09
1.76263e-09
6.75362e-09
2.31344e-09
7.09451e-09
2.99988e-09
7.47628e-09
3.81658e-09
7.91e-09
4.69296e-09
8.40126e-09
5.45059e-09
8.86242e-09
4.90789e-09
9.24842e-09
3.63118e-09
9.55329e-09
2.18686e-09
9.77791e-09
7.35781e-10
9.92636e-09
-6.13773e-10
1.00034e-08
-1.80123e-09
1.00137e-08
-2.79882e-09
9.96177e-09
-3.59451e-09
9.85236e-09
-4.18322e-09
9.6903e-09
-4.56495e-09
9.48075e-09
-4.74447e-09
9.22913e-09
-4.73111e-09
8.94099e-09
-4.538e-09
8.62184e-09
-4.18086e-09
8.27715e-09
-3.6762e-09
7.91273e-09
-3.03913e-09
7.53598e-09
-2.28089e-09
7.15792e-09
-1.40688e-09
6.7954e-09
-4.20566e-10
6.47232e-09
6.58175e-10
6.22231e-09
1.73179e-09
6.10067e-09
2.55539e-09
2.59615e-09
6.03793e-09
4.30078e-09
-6.05485e-10
4.36449e-09
-7.04794e-10
4.49261e-09
-7.22805e-10
4.67093e-09
-6.90807e-10
4.87957e-09
-6.25368e-10
5.10606e-09
-5.45202e-10
5.3435e-09
-4.58958e-10
5.58816e-09
-3.68602e-10
5.83818e-09
-2.73014e-10
6.09281e-09
-1.69156e-10
6.35191e-09
-5.2413e-11
6.6157e-09
8.34967e-11
6.88483e-09
2.47053e-10
7.16049e-09
4.4925e-10
7.44471e-09
7.04772e-10
7.74062e-09
1.03222e-09
8.05335e-09
1.44989e-09
8.39057e-09
1.97622e-09
8.76184e-09
2.62861e-09
9.17904e-09
3.39939e-09
9.65416e-09
4.21784e-09
1.01936e-08
4.91111e-09
1.07022e-08
4.39936e-09
1.11304e-08
3.20293e-09
1.14713e-08
1.84594e-09
1.17253e-08
4.81799e-10
1.18964e-08
-7.84832e-10
1.19894e-08
-1.89423e-09
1.20093e-08
-2.81875e-09
1.19614e-08
-3.54658e-09
1.18511e-08
-4.07292e-09
1.16843e-08
-4.39818e-09
1.14675e-08
-4.52767e-09
1.12076e-08
-4.47119e-09
1.09119e-08
-4.24235e-09
1.05884e-08
-3.85731e-09
1.02455e-08
-3.33332e-09
9.89348e-09
-2.68709e-09
9.54607e-09
-1.93348e-09
9.22425e-09
-1.08505e-09
8.96047e-09
-1.56793e-10
8.79982e-09
8.18829e-10
8.78682e-09
1.74479e-09
8.92471e-09
2.4175e-09
2.48966e-09
9.0312e-09
6.78077e-09
-5.76857e-10
6.77995e-09
-7.03978e-10
6.82735e-09
-7.70199e-10
6.92824e-09
-7.917e-10
7.07557e-09
-7.72702e-10
7.2548e-09
-7.24426e-10
7.4574e-09
-6.61561e-10
7.67708e-09
-5.88279e-10
7.90978e-09
-5.05715e-10
8.15311e-09
-4.1249e-10
8.40582e-09
-3.05122e-10
8.66745e-09
-1.78129e-10
8.93821e-09
-2.37062e-11
9.21916e-09
1.68299e-10
9.51234e-09
4.11591e-10
9.82101e-09
7.23548e-10
1.01507e-08
1.12019e-09
1.05097e-08
1.61719e-09
1.09082e-08
2.2301e-09
1.13588e-08
2.94886e-09
1.18742e-08
3.70238e-09
1.24618e-08
4.32352e-09
1.30185e-08
3.84265e-09
1.34904e-08
2.73107e-09
1.3869e-08
1.4673e-09
1.41541e-08
1.96719e-10
1.43495e-08
-9.80202e-10
1.44601e-08
-2.00483e-09
1.44913e-08
-2.84994e-09
1.4449e-08
-3.50427e-09
1.43396e-08
-3.96358e-09
1.41704e-08
-4.22898e-09
1.39493e-08
-4.30656e-09
1.3685e-08
-4.20691e-09
1.33871e-08
-3.94443e-09
1.30661e-08
-3.53626e-09
1.27338e-08
-3.00111e-09
1.2405e-08
-2.35828e-09
1.2099e-08
-1.62743e-09
1.18432e-08
-8.29302e-10
1.16768e-08
9.66436e-12
1.16473e-08
8.48301e-10
1.17885e-08
1.60363e-09
1.20716e-08
2.13438e-09
2.25877e-09
1.23025e-08
1.00888e-08
-5.29785e-10
1.00447e-08
-6.59844e-10
1.00302e-08
-7.55738e-10
1.00561e-08
-8.17551e-10
1.01265e-08
-8.43085e-10
1.02383e-08
-8.36297e-10
1.03835e-08
-8.0669e-10
1.05554e-08
-7.60223e-10
1.07491e-08
-6.99445e-10
1.09611e-08
-6.24432e-10
1.1189e-08
-5.32996e-10
1.14316e-08
-4.20732e-10
1.16886e-08
-2.80775e-10
1.1961e-08
-1.04079e-10
1.22507e-08
1.21862e-10
1.25612e-08
4.13121e-10
1.28982e-08
7.8312e-10
1.3271e-08
1.24445e-09
1.36901e-08
1.81101e-09
1.41686e-08
2.47029e-09
1.47205e-08
3.15056e-09
1.53534e-08
3.69062e-09
1.59568e-08
3.2392e-09
1.64719e-08
2.21597e-09
1.68885e-08
1.05069e-09
1.72053e-08
-1.20087e-10
1.74259e-08
-1.20077e-09
1.75552e-08
-2.13412e-09
1.7599e-08
-2.8937e-09
1.75639e-08
-3.46917e-09
1.74575e-08
-3.85726e-09
1.72886e-08
-4.06007e-09
1.70668e-08
-4.08475e-09
1.68029e-08
-3.943e-09
1.65088e-08
-3.65034e-09
1.61978e-08
-3.22528e-09
1.58852e-08
-2.68848e-09
1.55891e-08
-2.06221e-09
1.53324e-08
-1.37071e-09
1.51444e-08
-6.41264e-10
1.50611e-08
9.29282e-11
1.51203e-08
7.89071e-10
1.53387e-08
1.38527e-09
1.56754e-08
1.79765e-09
1.94228e-09
1.59919e-08
1.44237e-08
-4.7551e-10
1.43574e-08
-5.93523e-10
1.43003e-08
-6.98614e-10
1.42658e-08
-7.83059e-10
1.42639e-08
-8.41163e-10
1.42997e-08
-8.72166e-10
1.43716e-08
-8.78557e-10
1.44759e-08
-8.64564e-10
1.46089e-08
-8.32417e-10
1.47672e-08
-7.82689e-10
1.49482e-08
-7.14063e-10
1.51506e-08
-6.23126e-10
1.53739e-08
-5.04003e-10
1.56187e-08
-3.48949e-10
1.58874e-08
-1.46827e-10
1.61834e-08
1.17124e-10
1.65132e-08
4.53329e-10
1.68867e-08
8.70931e-10
1.73151e-08
1.38262e-09
1.78121e-08
1.97336e-09
1.83921e-08
2.57048e-09
1.90636e-08
3.01913e-09
1.97091e-08
2.59373e-09
2.02644e-08
1.66069e-09
2.0717e-08
5.981e-10
2.10642e-08
-4.67353e-10
2.13093e-08
-1.44586e-09
2.14572e-08
-2.28199e-09
2.15139e-08
-2.95046e-09
2.14872e-08
-3.44239e-09
2.13858e-08
-3.75586e-09
2.122e-08
-3.8943e-09
2.10015e-08
-3.86625e-09
2.07432e-08
-3.68474e-09
2.04595e-08
-3.36665e-09
2.01663e-08
-2.93205e-09
1.98814e-08
-2.40356e-09
1.96252e-08
-1.806e-09
1.94212e-08
-1.1667e-09
1.92959e-08
-5.16e-10
1.92769e-08
1.11911e-10
1.93868e-08
6.79193e-10
1.9628e-08
1.14409e-09
1.99621e-08
1.46349e-09
1.6061e-09
2.02983e-08
2.00236e-08
-4.18665e-10
1.99491e-08
-5.19063e-10
1.9869e-08
-6.18476e-10
1.97947e-08
-7.0875e-10
1.97372e-08
-7.8368e-10
1.97048e-08
-8.39731e-10
1.97018e-08
-8.75569e-10
1.97293e-08
-8.92041e-10
1.97866e-08
-8.89802e-10
1.98727e-08
-8.68732e-10
1.99862e-08
-8.27549e-10
2.01264e-08
-7.63352e-10
2.02934e-08
-6.70982e-10
2.04885e-08
-5.44025e-10
2.07144e-08
-3.72756e-10
2.0975e-08
-1.43535e-10
2.12778e-08
1.50576e-10
2.16338e-08
5.14877e-10
2.20549e-08
9.61594e-10
2.25551e-08
1.47316e-09
2.31499e-08
1.97561e-09
2.3848e-08
2.32111e-09
2.45261e-08
1.91563e-09
2.51145e-08
1.07225e-09
2.55977e-08
1.14863e-10
2.59714e-08
-8.40965e-10
2.62379e-08
-1.71243e-09
2.64023e-08
-2.44638e-09
2.64711e-08
-3.01921e-09
2.64527e-08
-3.42404e-09
2.63576e-08
-3.66071e-09
2.61976e-08
-3.73432e-09
2.59864e-08
-3.65507e-09
2.57391e-08
-3.43747e-09
2.54723e-08
-3.09981e-09
2.52038e-08
-2.66356e-09
2.4953e-08
-2.15278e-09
2.47407e-08
-1.59366e-09
2.45883e-08
-1.01433e-09
2.45168e-08
-4.44474e-10
2.45433e-08
8.54411e-11
2.46765e-08
5.45992e-10
2.49091e-08
9.11438e-10
2.52098e-08
1.16279e-09
1.2931e-09
2.55228e-08
2.71731e-08
-3.58731e-10
2.70956e-08
-4.41632e-10
2.70057e-08
-5.28505e-10
2.69104e-08
-6.13467e-10
2.6818e-08
-6.91319e-10
2.67364e-08
-7.58056e-10
2.66718e-08
-8.11009e-10
2.66286e-08
-8.4888e-10
2.66096e-08
-8.70791e-10
2.66165e-08
-8.75563e-10
2.66503e-08
-8.61416e-10
2.67125e-08
-8.25497e-10
2.68044e-08
-7.62931e-10
2.69289e-08
-6.68551e-10
2.70902e-08
-5.33973e-10
2.72928e-08
-3.46202e-10
2.75458e-08
-1.02401e-10
2.78622e-08
1.98433e-10
2.82545e-08
5.6938e-10
2.87374e-08
9.90238e-10
2.93276e-08
1.38534e-09
3.00338e-08
1.61497e-09
3.07292e-08
1.22017e-09
3.13388e-08
4.62708e-10
3.18428e-08
-3.89169e-10
3.22349e-08
-1.233e-09
3.25166e-08
-1.99415e-09
3.26927e-08
-2.62253e-09
3.27703e-08
-3.09681e-09
3.27589e-08
-3.41265e-09
3.26703e-08
-3.57205e-09
3.2518e-08
-3.58207e-09
3.23177e-08
-3.45471e-09
3.20862e-08
-3.20601e-09
3.18418e-08
-2.85542e-09
3.16035e-08
-2.42527e-09
3.13908e-08
-1.94007e-09
3.12229e-08
-1.42577e-09
3.11175e-08
-9.08923e-10
3.10888e-08
-4.15696e-10
3.11445e-08
2.96705e-11
3.12842e-08
4.06364e-10
3.14954e-08
7.00224e-10
3.17535e-08
9.04674e-10
1.02237e-09
3.20242e-08
3.6205e-08
-2.92365e-10
3.61235e-08
-3.60091e-10
3.60281e-08
-4.33157e-10
3.59225e-08
-5.0783e-10
3.58114e-08
-5.80254e-10
3.57004e-08
-6.47013e-10
3.55947e-08
-7.05392e-10
3.54993e-08
-7.53426e-10
3.54181e-08
-7.89577e-10
3.53546e-08
-8.12121e-10
3.53122e-08
-8.19013e-10
3.52943e-08
-8.07516e-10
3.53042e-08
-7.72866e-10
3.53469e-08
-7.11256e-10
3.54286e-08
-6.15654e-10
3.55554e-08
-4.73044e-10
3.57384e-08
-2.85414e-10
3.59938e-08
-5.68903e-11
3.63343e-08
2.2879e-10
3.67763e-08
5.48241e-10
3.7338e-08
8.2365e-10
3.8028e-08
9.25044e-10
3.87193e-08
5.28773e-10
3.9332e-08
-1.49989e-10
3.98419e-08
-8.9904e-10
4.02398e-08
-1.63088e-09
4.05264e-08
-2.28071e-09
4.07062e-08
-2.80233e-09
4.07867e-08
-3.17736e-09
4.07787e-08
-3.40466e-09
4.06952e-08
-3.48859e-09
4.05515e-08
-3.43828e-09
4.03644e-08
-3.26764e-09
4.01524e-08
-2.99401e-09
3.99344e-08
-2.63747e-09
3.97295e-08
-2.22038e-09
3.95559e-08
-1.76644e-09
3.94298e-08
-1.29967e-09
3.93642e-08
-8.43322e-10
3.93671e-08
-4.18565e-10
3.94395e-08
-4.2726e-11
3.95759e-08
2.69898e-10
3.97628e-08
5.13336e-10
3.99809e-08
6.86572e-10
7.95147e-10
4.02081e-08
4.74927e-08
-2.16322e-10
4.7404e-08
-2.71332e-10
4.73024e-08
-3.31601e-10
4.71895e-08
-3.94878e-10
4.70677e-08
-4.58464e-10
4.69404e-08
-5.19685e-10
4.68111e-08
-5.76179e-10
4.66837e-08
-6.25966e-10
4.65616e-08
-6.67453e-10
4.64483e-08
-6.98899e-10
4.63478e-08
-7.18477e-10
4.62643e-08
-7.24027e-10
4.62025e-08
-7.11093e-10
4.6169e-08
-6.7771e-10
4.61718e-08
-6.18502e-10
4.62187e-08
-5.19941e-10
4.63231e-08
-3.89814e-10
4.65044e-08
-2.38186e-10
4.67764e-08
-4.32254e-11
4.71568e-08
1.67841e-10
4.76662e-08
3.14288e-10
4.83131e-08
2.78125e-10
4.89748e-08
-1.32864e-10
4.95679e-08
-7.43098e-10
5.00637e-08
-1.39489e-09
5.04505e-08
-2.01761e-09
5.07277e-08
-2.5579e-09
5.08996e-08
-2.97425e-09
5.09744e-08
-3.25214e-09
5.09639e-08
-3.39423e-09
5.08825e-08
-3.40721e-09
5.07464e-08
-3.30216e-09
5.05736e-08
-3.09479e-09
5.03829e-08
-2.80334e-09
5.01932e-08
-2.44777e-09
5.00222e-08
-2.04939e-09
4.98857e-08
-1.62991e-09
4.97962e-08
-1.21019e-09
4.97621e-08
-8.0917e-10
4.97863e-08
-4.42777e-10
4.98666e-08
-1.22985e-10
4.99945e-08
1.41976e-10
5.0158e-08
3.49805e-10
5.03422e-08
5.02329e-10
6.0519e-10
5.05322e-08
6.14373e-08
-1.29575e-10
6.13398e-08
-1.73899e-10
6.12311e-08
-2.22892e-10
6.11115e-08
-2.75268e-10
6.09823e-08
-3.29242e-10
6.08455e-08
-3.82835e-10
6.07034e-08
-4.34128e-10
6.05588e-08
-4.81331e-10
6.04143e-08
-5.22998e-10
6.02729e-08
-5.5752e-10
6.01379e-08
-5.83469e-10
6.00134e-08
-5.99463e-10
5.99039e-08
-6.016e-10
5.98162e-08
-5.90075e-10
5.97592e-08
-5.61469e-10
5.97415e-08
-5.02286e-10
5.97779e-08
-4.26194e-10
5.98898e-08
-3.50052e-10
6.00908e-08
-2.44198e-10
6.04011e-08
-1.42504e-10
6.08434e-08
-1.27956e-10
6.14255e-08
-3.04056e-10
6.20331e-08
-7.40414e-10
6.25827e-08
-1.29276e-09
6.30425e-08
-1.85468e-09
6.33988e-08
-2.37386e-09
6.36501e-08
-2.80923e-09
6.38005e-08
-3.12462e-09
6.38589e-08
-3.31056e-09
6.38387e-08
-3.374e-09
6.37549e-08
-3.32345e-09
6.36243e-08
-3.17159e-09
6.34652e-08
-2.93561e-09
6.32959e-08
-2.63404e-09
6.31339e-08
-2.28581e-09
6.29948e-08
-1.91026e-09
6.2891e-08
-1.52618e-09
6.28315e-08
-1.15065e-09
6.28205e-08
-7.982e-10
6.28579e-08
-4.80188e-10
6.29393e-08
-2.04353e-10
6.30561e-08
2.51531e-11
6.31984e-08
2.07564e-10
6.33546e-08
3.46093e-10
4.45553e-10
6.35142e-08
7.8463e-08
-3.41015e-11
7.83587e-08
-6.95056e-11
7.82446e-08
-1.08845e-10
7.81208e-08
-1.51442e-10
7.79878e-08
-1.96223e-10
7.78468e-08
-2.41839e-10
7.76995e-08
-2.86866e-10
7.7548e-08
-3.29844e-10
7.73946e-08
-3.69595e-10
7.72418e-08
-4.04705e-10
7.70926e-08
-4.34227e-10
7.69503e-08
-4.57248e-10
7.68197e-08
-4.70934e-10
7.67066e-08
-4.77018e-10
7.66184e-08
-4.73295e-10
7.65667e-08
-4.50511e-10
7.6565e-08
-4.24558e-10
7.66288e-08
-4.13813e-10
7.67738e-08
-3.8923e-10
7.70258e-08
-3.94504e-10
7.74039e-08
-5.06047e-10
7.79143e-08
-8.14414e-10
7.8453e-08
-1.27917e-09
7.8941e-08
-1.78071e-09
7.93459e-08
-2.25956e-09
7.96543e-08
-2.68234e-09
7.98648e-08
-3.01969e-09
7.99809e-08
-3.24072e-09
8.00131e-08
-3.34271e-09
7.99762e-08
-3.33711e-09
7.98857e-08
-3.233e-09
7.97582e-08
-3.0441e-09
7.96113e-08
-2.78869e-09
7.9462e-08
-2.48476e-09
7.93256e-08
-2.14937e-09
7.92145e-08
-1.79917e-09
7.91379e-08
-1.44963e-09
7.91014e-08
-1.11407e-09
7.91063e-08
-8.03098e-10
7.91505e-08
-5.24437e-10
7.9229e-08
-2.82791e-10
7.93339e-08
-7.98328e-11
7.94572e-08
8.43186e-11
7.95901e-08
2.13133e-10
3.10608e-10
7.97251e-08
9.90406e-08
6.61633e-11
9.89331e-08
3.79411e-11
9.88178e-08
6.43667e-12
9.86943e-08
-2.79136e-11
9.85628e-08
-6.4694e-11
9.8424e-08
-1.03036e-10
9.82791e-08
-1.42014e-10
9.81299e-08
-1.80625e-10
9.79784e-08
-2.18085e-10
9.78269e-08
-2.53232e-10
9.76786e-08
-2.85949e-10
9.75364e-08
-3.15015e-10
9.74055e-08
-3.4003e-10
9.72914e-08
-3.62961e-10
9.7198e-08
-3.79844e-10
9.71442e-08
-3.96752e-10
9.71387e-08
-4.1905e-10
9.71806e-08
-4.55717e-10
9.72956e-08
-5.04232e-10
9.75162e-08
-6.15055e-10
9.78513e-08
-8.41197e-10
9.83005e-08
-1.26362e-09
9.87708e-08
-1.74946e-09
9.91904e-08
-2.20024e-09
9.95306e-08
-2.59976e-09
9.97815e-08
-2.93332e-09
9.99424e-08
-3.18051e-09
1.00017e-07
-3.31491e-09
1.00017e-07
-3.34313e-09
9.99602e-08
-3.28035e-09
9.98612e-08
-3.134e-09
9.97358e-08
-2.91867e-09
9.96003e-08
-2.65319e-09
9.94695e-08
-2.35402e-09
9.93558e-08
-2.03567e-09
9.92685e-08
-1.71186e-09
9.92137e-08
-1.39482e-09
9.91941e-08
-1.09449e-09
9.92093e-08
-8.18323e-10
9.92563e-08
-5.71348e-10
9.93298e-08
-3.56291e-10
9.94237e-08
-1.73758e-10
9.95303e-08
-2.22557e-11
9.96441e-08
9.92611e-11
1.95727e-10