/*--------------------------------*- C++ -*----------------------------------*\
| =========                 |                                                 |
| \\      /  F ield         | OpenFOAM: The Open Source CFD Toolbox           |
|  \\    /   O peration     | Version:  2312                                  |
|   \\  /    A nd           | Website:  www.openfoam.com                      |
|    \\/     M anipulation  |                                                 |
\*---------------------------------------------------------------------------*/
FoamFile
{
    version     2.0;
    format      ascii;
    arch        "LSB;label=32;scalar=64";
    class       volVectorField;
    location    "57";
    object      U;
}
// * * * * * * * * * * * * * * * * * * * * * * * * * * * * * * * * * * * * * //

dimensions      [0 1 -1 0 0 0 0];

internalField   nonuniform List<vector> 
4800
(
(0.000494071 4.27511e-07 -3.65881e-26)
(0.000482945 5.00818e-07 -2.57553e-25)
(0.000475271 5.44076e-07 3.30485e-25)
(0.00047005 5.57724e-07 1.51161e-25)
(0.000466674 5.40679e-07 2.23092e-24)
(0.000464785 4.98645e-07 -5.31379e-24)
(0.000464123 4.39361e-07 4.9517e-24)
(0.00046473 3.45026e-07 -7.14921e-24)
(0.000466474 2.04764e-07 2.30287e-24)
(0.000469509 -6.98771e-08 7.80052e-24)
(0.000474256 -6.27867e-07 -2.40633e-24)
(0.000482056 -2.09823e-06 -2.07893e-25)
(0.000500159 -7.42989e-06 -2.91249e-24)
(0.000547093 -2.90544e-05 1.32738e-24)
(0.000626303 -9.63759e-05 -1.04851e-24)
(0.00152319 2.24563e-06 -1.16293e-25)
(0.00148901 1.82108e-06 1.44958e-25)
(0.00146522 1.48084e-06 -1.3393e-24)
(0.0014488 1.16578e-06 1.00122e-24)
(0.00143792 8.35772e-07 3.20882e-24)
(0.00143146 4.68196e-07 -5.11867e-24)
(0.00142862 2.84758e-08 -1.44026e-24)
(0.00142942 -5.61485e-07 -3.27213e-25)
(0.00143334 -1.38471e-06 1.18026e-23)
(0.001441 -2.75469e-06 -8.74573e-24)
(0.00145357 -5.37037e-06 9.53392e-25)
(0.00147387 -1.14609e-05 1.44221e-24)
(0.00151079 -2.88547e-05 -2.11691e-24)
(0.00157562 -8.18983e-05 -6.12325e-25)
(0.00164682 -0.000203311 2.73626e-24)
(0.00265621 7.25723e-06 -8.31533e-26)
(0.00259713 5.86134e-06 8.49462e-26)
(0.00255569 4.77012e-06 8.75986e-25)
(0.00252679 3.79247e-06 -2.08832e-24)
(0.00250726 2.80776e-06 2.04818e-24)
(0.00249518 1.72238e-06 1.92401e-24)
(0.00248912 3.82463e-07 -4.9958e-24)
(0.00248898 -1.43001e-06 -3.03787e-24)
(0.00249368 -3.84135e-06 7.25039e-24)
(0.00250411 -7.71794e-06 2.74815e-24)
(0.00252159 -1.46023e-05 -9.58624e-24)
(0.00254809 -2.84578e-05 -1.42593e-24)
(0.00258787 -5.91549e-05 4.08285e-24)
(0.00263967 -0.000126695 6.39902e-24)
(0.00267778 -0.000240711 -3.29998e-24)
(0.00389931 1.63008e-05 3.06962e-26)
(0.00381395 1.32833e-05 -2.14182e-25)
(0.00375356 1.09252e-05 9.56365e-25)
(0.00371097 8.82455e-06 1.02297e-24)
(0.00368165 6.73154e-06 -1.01818e-24)
(0.00366279 4.45424e-06 -5.86575e-24)
(0.00365233 1.67481e-06 -3.98037e-24)
(0.00364966 -1.99206e-06 1.47235e-23)
(0.00365348 -6.71358e-06 6.00294e-24)
(0.00366409 -1.40604e-05 -8.80127e-24)
(0.00368237 -2.61922e-05 -3.55501e-24)
(0.00370821 -4.7502e-05 -2.69624e-24)
(0.0037409 -8.6346e-05 8.52936e-26)
(0.00377301 -0.000153289 1.98682e-24)
(0.00378541 -0.00024425 9.70514e-27)
(0.00525675 3.02989e-05 -5.62494e-26)
(0.0051447 2.48664e-05 -3.45304e-25)
(0.00506463 2.06142e-05 -2.19174e-25)
(0.00500745 1.68473e-05 5.9091e-25)
(0.00496735 1.3139e-05 -1.67702e-24)
(0.00494058 9.17102e-06 4.1828e-24)
(0.00492445 4.45256e-06 -7.38867e-25)
(0.0049175 -1.44534e-06 2.5689e-24)
(0.00491855 -9.29188e-06 -1.42207e-23)
(0.00492663 -2.03513e-05 2.69029e-23)
(0.00494164 -3.73021e-05 -2.60925e-23)
(0.00496166 -6.35668e-05 1.37349e-23)
(0.00498322 -0.000104263 -1.27264e-23)
(0.00499823 -0.000162766 1.20109e-23)
(0.00499562 -0.000231797 -4.79497e-24)
(0.00672916 5.03092e-05 7.4237e-26)
(0.00659181 4.16133e-05 2.67017e-25)
(0.00649243 3.47794e-05 -1.40873e-24)
(0.00642045 2.87534e-05 -8.91909e-25)
(0.00636899 2.2894e-05 2.39325e-24)
(0.00633344 1.67341e-05 8.56397e-25)
(0.00631048 9.6382e-06 -6.69085e-24)
(0.00629787 1.00865e-06 1.59459e-23)
(0.00629392 -9.93683e-06 -2.06958e-23)
(0.00629708 -2.47203e-05 4.96879e-24)
(0.00630575 -4.52671e-05 1.50329e-23)
(0.00631715 -7.3746e-05 -2.08578e-23)
(0.00632718 -0.000112168 1.04388e-23)
(0.00632969 -0.000160114 1.07388e-23)
(0.00631946 -0.00021139 -8.18189e-24)
(0.00831114 7.71707e-05 6.14169e-26)
(0.0081528 6.44513e-05 -3.64148e-25)
(0.00803635 5.4372e-05 1.30623e-24)
(0.00795062 4.54994e-05 -1.8128e-24)
(0.00788808 3.69655e-05 -6.15249e-24)
(0.00784348 2.81492e-05 1.04868e-23)
(0.00781297 1.83218e-05 -6.35397e-24)
(0.00779364 6.75827e-06 2.15744e-23)
(0.00778319 -7.29485e-06 -1.4678e-23)
(0.00777946 -2.5071e-05 -6.84117e-24)
(0.00778009 -4.78299e-05 -1.34316e-23)
(0.00778204 -7.63813e-05 1.23481e-23)
(0.00778181 -0.000110727 3.47445e-24)
(0.00777555 -0.000149079 2.99021e-24)
(0.00776135 -0.000187205 -2.63279e-24)
(0.0099885 0.000110986 -8.88964e-26)
(0.00981765 9.38322e-05 1.20694e-24)
(0.00968923 8.00329e-05 -2.81124e-24)
(0.00959279 6.7845e-05 -2.30293e-24)
(0.00952088 5.621e-05 8.66052e-25)
(0.00946804 4.43822e-05 1.69873e-24)
(0.00943008 3.15997e-05 6.07045e-24)
(0.00940368 1.71224e-05 -1.6502e-23)
(0.00938606 2.85338e-07 -8.77074e-24)
(0.00937465 -1.96797e-05 2.41939e-23)
(0.00936683 -4.33401e-05 -7.49652e-24)
(0.00935984 -7.05917e-05 2.56527e-23)
(0.00935116 -0.000100534 -1.35085e-23)
(0.00933857 -0.000131321 -4.33138e-24)
(0.0093218 -0.000160348 2.56948e-24)
(0.0117366 0.000150437 -1.19064e-26)
(0.0115665 0.000129178 6.69445e-25)
(0.0114348 0.00011164 -9.53025e-25)
(0.0113334 9.59756e-05 2.28291e-24)
(0.0112558 8.10501e-05 -1.36032e-23)
(0.0111971 6.60712e-05 1.4359e-23)
(0.0111532 5.0317e-05 -2.25769e-23)
(0.0111205 3.31405e-05 1.38901e-23)
(0.0110962 1.40574e-05 1.03115e-23)
(0.0110775 -7.28272e-06 2.23688e-23)
(0.0110621 -3.08627e-05 -2.92221e-23)
(0.0110476 -5.61591e-05 -5.43692e-24)
(0.0110325 -8.21111e-05 2.46532e-24)
(0.0110153 -0.000107311 1.79713e-23)
(0.0109964 -0.000130258 -7.32958e-24)
(0.0135232 0.000192146 6.73432e-26)
(0.0133705 0.000168233 -2.85651e-25)
(0.0132472 0.000147704 1.26219e-24)
(0.0131491 0.000128955 -4.41992e-24)
(0.0130719 0.000110974 6.69461e-24)
(0.0130117 9.30554e-05 -8.63235e-24)
(0.0129648 7.46125e-05 1.44365e-23)
(0.0129281 5.51772e-05 2.52208e-24)
(0.0128989 3.44976e-05 -1.98774e-23)
(0.0128748 1.25471e-05 2.83237e-23)
(0.0128537 -1.03511e-05 -3.12562e-23)
(0.0128338 -3.35638e-05 -9.26414e-24)
(0.0128142 -5.62161e-05 1.6286e-23)
(0.012794 -7.7404e-05 4.86229e-24)
(0.0127738 -9.63159e-05 -2.12947e-24)
(0.0153193 0.000230863 2.90823e-25)
(0.0151986 0.000206838 -2.26479e-24)
(0.0150957 0.000184962 -3.53768e-24)
(0.0150103 0.000164234 8.42858e-24)
(0.0149408 0.000144009 3.74808e-24)
(0.0148845 0.000123838 -2.35431e-23)
(0.0148391 0.00010337 7.26048e-24)
(0.014802 8.23791e-05 5.21911e-24)
(0.0147711 6.08373e-05 -2.25707e-23)
(0.0147443 3.89408e-05 2.34882e-23)
(0.0147203 1.70774e-05 -1.89125e-23)
(0.0146977 -4.18685e-06 4.85395e-23)
(0.014676 -2.42413e-05 -2.34284e-23)
(0.0146544 -4.25794e-05 1.38399e-23)
(0.0146338 -5.87979e-05 -3.78896e-24)
(0.017117 0.000261641 -1.38724e-25)
(0.0170333 0.000240157 1.59231e-24)
(0.0169573 0.000219003 -3.00904e-24)
(0.0168911 0.000197911 -1.49163e-24)
(0.016835 0.000176752 1.67405e-23)
(0.0167879 0.000155458 -2.45318e-24)
(0.0167484 0.000133989 -2.96823e-23)
(0.0167148 0.000112378 3.46085e-23)
(0.0166856 9.07871e-05 -7.76509e-24)
(0.0166595 6.95077e-05 -2.69583e-23)
(0.0166357 4.89239e-05 2.88188e-23)
(0.0166131 2.94368e-05 1.56678e-23)
(0.0165916 1.14299e-05 -1.30471e-23)
(0.0165706 -4.85131e-06 -2.28458e-23)
(0.0165508 -1.92331e-05 1.925e-24)
(0.0189365 0.000283463 2.94884e-26)
(0.0188823 0.000265758 -1.85049e-24)
(0.0188305 0.000246725 8.37148e-24)
(0.0187834 0.000226636 4.17182e-25)
(0.0187419 0.000205826 4.57834e-24)
(0.0187058 0.000184611 -1.65788e-23)
(0.0186744 0.00016325 1.41067e-23)
(0.0186466 0.000141992 3.21126e-24)
(0.0186217 0.000121123 2.90537e-23)
(0.0185987 0.000100959 -4.48355e-23)
(0.0185774 8.18242e-05 -2.03738e-23)
(0.0185569 6.39835e-05 -1.35759e-23)
(0.0185375 4.76528e-05 2.54748e-23)
(0.0185186 3.2924e-05 -7.47758e-25)
(0.0185008 1.98496e-05 2.49084e-24)
(0.0208039 0.000299403 -2.96861e-27)
(0.0207667 0.000285383 2.01961e-24)
(0.0207303 0.000268742 -2.92217e-24)
(0.0206966 0.000250187 1.98195e-26)
(0.0206662 0.000230401 3.44123e-24)
(0.020639 0.000210009 8.67092e-24)
(0.0206146 0.000189497 -3.36409e-23)
(0.0205924 0.00016924 2.85212e-24)
(0.020572 0.000149575 1.70695e-23)
(0.0205528 0.00013079 -7.8912e-24)
(0.0205346 0.000113135 2.15381e-23)
(0.0205172 9.67756e-05 1.51845e-23)
(0.0205006 8.18212e-05 -2.75202e-23)
(0.0204843 6.82833e-05 1.89595e-23)
(0.0204691 5.61538e-05 -1.57681e-23)
(0.0227109 0.000312492 -2.68947e-25)
(0.0226834 0.000301898 -4.25568e-25)
(0.0226562 0.000287598 3.68834e-24)
(0.0226305 0.000270736 -1.71262e-23)
(0.022607 0.000252246 1.49433e-23)
(0.0225855 0.000232992 -1.04828e-23)
(0.022566 0.000213624 7.56088e-24)
(0.0225478 0.000194588 -5.29205e-23)
(0.0225308 0.000176218 7.64036e-23)
(0.0225147 0.000158762 -4.50185e-23)
(0.0224993 0.000142403 4.02339e-23)
(0.0224845 0.000127239 3.38251e-23)
(0.0224704 0.000113318 -5.91304e-23)
(0.0224565 0.000100615 1.92903e-23)
(0.0224435 8.90949e-05 -8.13289e-25)
(0.0246034 0.000323675 -1.11136e-26)
(0.0245838 0.000316447 -1.47961e-24)
(0.0245638 0.000304504 1.53693e-24)
(0.0245443 0.000289473 -4.86441e-25)
(0.024526 0.000272512 6.37195e-24)
(0.024509 0.000254646 -1.07615e-23)
(0.0244933 0.000236601 9.78577e-24)
(0.0244784 0.000218849 -3.05562e-23)
(0.0244643 0.000201715 6.92833e-23)
(0.0244508 0.000185417 -8.85009e-23)
(0.0244379 0.000170099 7.24714e-23)
(0.0244253 0.000155819 -2.44789e-23)
(0.0244134 0.000142597 1.28609e-24)
(0.0244016 0.000130396 5.67233e-24)
(0.0243906 0.000119175 -1.08464e-23)
(0.0263935 0.000331298 -9.42405e-25)
(0.026382 0.000327778 1.68179e-25)
(0.0263686 0.000318695 1.75654e-24)
(0.0263549 0.000305845 -3.50047e-24)
(0.0263416 0.000290676 1.1722e-23)
(0.026329 0.000274416 -1.14266e-23)
(0.0263171 0.000257827 -9.3937e-24)
(0.0263055 0.000241379 -2.21681e-23)
(0.0262945 0.000225398 1.17467e-23)
(0.0262837 0.000210094 5.3721e-23)
(0.0262733 0.000195593 -2.82647e-23)
(0.0262631 0.000181941 1.67722e-23)
(0.0262535 0.000169147 -6.90406e-24)
(0.0262439 0.000157182 -2.04714e-23)
(0.0262348 0.000146009 1.04808e-23)
(0.0279643 0.000335715 2.87189e-25)
(0.0279593 0.000333824 -3.29467e-25)
(0.027953 0.000328381 2.33476e-24)
(0.027945 0.000318312 -8.33101e-24)
(0.0279366 0.000305422 -2.05316e-24)
(0.0279282 0.000291172 2.12667e-23)
(0.0279201 0.000276286 -1.5727e-23)
(0.027912 0.000261243 -8.8687e-24)
(0.027904 0.000246398 8.38594e-24)
(0.0278961 0.000231985 -9.15404e-24)
(0.0278884 0.000218141 2.14555e-23)
(0.0278807 0.000204919 1.06257e-23)
(0.0278734 0.000192339 -3.97764e-23)
(0.027866 0.000180384 2.7386e-23)
(0.0278591 0.000169036 -5.5666e-24)
(0.0291528 0.000337641 7.4149e-25)
(0.0291528 0.000336963 1.54327e-25)
(0.0291515 0.000333603 -8.37299e-25)
(0.0291489 0.000326805 3.46319e-24)
(0.0291452 0.000316051 -5.36959e-24)
(0.0291414 0.000303766 -9.44067e-24)
(0.0291374 0.000290575 -9.26152e-24)
(0.0291331 0.00027694 2.57225e-23)
(0.0291286 0.000263223 2.31073e-23)
(0.0291241 0.000249661 -5.53071e-23)
(0.0291196 0.000236401 3.09443e-23)
(0.0291149 0.000223514 -2.1039e-24)
(0.0291103 0.000211039 -1.67427e-24)
(0.0291056 0.000198983 2.2306e-24)
(0.029101 0.000187343 -1.02068e-24)
(0.0297289 0.000330947 -2.08491e-24)
(0.0297368 0.00033485 -2.35388e-24)
(0.0297415 0.000332691 4.18706e-24)
(0.0297444 0.000326647 -3.7505e-25)
(0.0297467 0.000318034 8.28181e-25)
(0.0297483 0.00030765 3.96708e-24)
(0.0297492 0.000296093 -3.07917e-24)
(0.0297496 0.000283843 -2.02552e-23)
(0.0297496 0.000271254 4.509e-23)
(0.0297492 0.000258548 -1.85009e-23)
(0.0297486 0.000245867 7.01195e-24)
(0.0297477 0.000233299 -1.24004e-23)
(0.0297465 0.000220903 -1.24252e-23)
(0.0297452 0.000208712 1.81183e-23)
(0.0297438 0.000196742 -7.73416e-24)
(0.0295119 0.000319726 3.07508e-24)
(0.0295225 0.000325019 -6.36779e-24)
(0.029531 0.000324752 1.65227e-24)
(0.0295381 0.000320774 3.141e-24)
(0.0295442 0.000314074 -8.49246e-25)
(0.0295495 0.000305368 -2.04322e-24)
(0.029554 0.00029527 -8.1686e-24)
(0.029558 0.000284251 2.01375e-23)
(0.0295614 0.000272632 5.41565e-24)
(0.0295644 0.000260621 -1.25131e-23)
(0.029567 0.000248361 -6.63376e-24)
(0.0295692 0.000235957 7.69331e-24)
(0.0295711 0.000223491 -8.22168e-24)
(0.0295728 0.000211013 4.71619e-24)
(0.0295742 0.000198562 -2.04809e-24)
(0.0285179 0.000303349 1.79729e-24)
(0.0285372 0.000308954 -3.57015e-24)
(0.0285542 0.000309613 -1.60617e-24)
(0.0285691 0.000306717 7.57433e-24)
(0.0285823 0.000301189 -5.3052e-24)
(0.028594 0.000293714 1.1477e-24)
(0.0286046 0.000284828 2.87025e-25)
(0.028614 0.000274916 -6.79792e-25)
(0.0286225 0.000264243 -2.25623e-24)
(0.0286301 0.000252996 1.51047e-23)
(0.0286369 0.000241314 -9.26039e-24)
(0.0286431 0.000229307 1.22613e-24)
(0.0286486 0.000217059 -1.36788e-23)
(0.0286536 0.000204632 6.63084e-24)
(0.0286581 0.000192072 2.21638e-24)
(0.0269207 0.000281166 4.31336e-24)
(0.0269422 0.00028625 -7.43307e-24)
(0.0269622 0.000286993 1.58405e-24)
(0.0269806 0.000284551 -2.51777e-24)
(0.0269976 0.000279779 -2.11271e-24)
(0.0270135 0.000273253 8.884e-24)
(0.0270282 0.000265374 -2.49998e-24)
(0.0270419 0.000256432 1.58347e-25)
(0.0270546 0.000246648 1.65535e-25)
(0.0270665 0.000236194 2.76651e-24)
(0.0270774 0.000225202 -6.5937e-24)
(0.0270877 0.000213775 5.77911e-24)
(0.0270973 0.000201996 -3.90806e-25)
(0.0271063 0.000189927 -2.08443e-24)
(0.0271146 0.000177621 3.47691e-25)
(0.0249972 0.00025895 1.62737e-24)
(0.0250228 0.000263123 -8.08712e-24)
(0.0250473 0.000263642 1.34658e-23)
(0.0250702 0.00026143 -9.77347e-24)
(0.0250919 0.00025716 8.65054e-24)
(0.0251123 0.000251269 -3.21527e-24)
(0.0251315 0.000244066 -1.93837e-24)
(0.0251496 0.000235792 -1.39407e-24)
(0.0251666 0.000226642 8.74446e-25)
(0.0251826 0.000216774 -1.31746e-24)
(0.0251977 0.000206308 8.022e-25)
(0.0252119 0.000195342 8.91525e-25)
(0.0252253 0.000183954 -1.45313e-24)
(0.025238 0.000172208 5.69326e-25)
(0.0252499 0.000160159 -1.80649e-25)
(0.0228931 0.000234333 2.14654e-25)
(0.0229242 0.00023747 -3.04958e-24)
(0.0229541 0.000237596 -1.53694e-24)
(0.0229826 0.000235386 1.30497e-23)
(0.0230096 0.000231348 -1.24197e-23)
(0.0230353 0.000225826 3.52421e-24)
(0.0230596 0.00021908 5.34892e-25)
(0.0230827 0.000211315 -2.4092e-25)
(0.0231046 0.0002027 -7.93999e-25)
(0.0231253 0.00019337 2.54981e-24)
(0.0231448 0.000183435 -1.66151e-24)
(0.0231634 0.000172982 2.1718e-25)
(0.0231809 0.000162087 -1.19502e-25)
(0.0231975 0.000150812 -7.05271e-25)
(0.0232131 0.000139212 6.20493e-25)
(0.0207248 0.000206824 3.19046e-25)
(0.0207616 0.000208944 2.85138e-24)
(0.0207972 0.000208601 -3.28131e-24)
(0.0208312 0.00020629 -2.16829e-24)
(0.0208636 0.000202399 1.34103e-23)
(0.0208945 0.000197204 -1.02656e-23)
(0.0209239 0.000190915 -2.94939e-25)
(0.0209518 0.000183702 -1.84832e-24)
(0.0209783 0.000175703 -4.53601e-26)
(0.0210035 0.000167033 3.12178e-25)
(0.0210274 0.000157787 -3.12002e-25)
(0.02105 0.000148044 6.24993e-25)
(0.0210713 0.000137872 2.98116e-25)
(0.0210914 0.00012733 1.33009e-25)
(0.0211102 0.000116472 -3.43184e-25)
(0.0185738 0.0001774 2.28062e-24)
(0.0186155 0.000178637 -3.4852e-24)
(0.0186558 0.000177893 -2.72603e-24)
(0.0186943 0.000175541 8.29083e-24)
(0.0187312 0.000171869 -2.97692e-24)
(0.0187664 0.000167085 -3.99263e-24)
(0.0187998 0.000161353 1.42539e-24)
(0.0188317 0.00015481 2.87401e-24)
(0.0188619 0.000147569 -4.25889e-24)
(0.0188906 0.000139724 3.89247e-24)
(0.0189177 0.000131355 -1.8008e-24)
(0.0189433 0.000122532 5.72105e-25)
(0.0189674 0.000113316 -1.61332e-25)
(0.0189899 0.000103763 -1.56065e-25)
(0.0190109 9.39243e-05 1.84732e-25)
(0.0164908 0.000147578 -4.44831e-25)
(0.0165357 0.000148157 -1.5297e-24)
(0.016579 0.000147179 -4.83013e-24)
(0.0166204 0.000144927 1.34686e-23)
(0.0166601 0.000141596 -2.4563e-24)
(0.016698 0.00013734 -3.73254e-24)
(0.016734 0.000132285 1.21914e-24)
(0.0167682 0.000126539 -1.78158e-24)
(0.0168007 0.000120192 -3.47973e-24)
(0.0168313 0.000113321 3.38075e-24)
(0.0168602 0.000105994 1.61441e-25)
(0.0168872 9.82715e-05 -5.91743e-25)
(0.0169125 9.02088e-05 6.96265e-25)
(0.016936 8.18565e-05 -3.06586e-26)
(0.0169576 7.32627e-05 2.5969e-26)
(0.0145044 0.000118982 1.72123e-24)
(0.0145503 0.000119142 2.51209e-24)
(0.0145945 0.000118113 -2.36101e-24)
(0.014637 0.0001161 -5.08594e-24)
(0.0146776 0.000113223 6.78776e-24)
(0.0147163 0.000109594 -7.34834e-24)
(0.0147531 0.000105309 -2.03566e-25)
(0.0147879 0.000100454 2.79874e-24)
(0.0148209 9.50982e-05 9.36506e-25)
(0.0148519 8.93047e-05 -1.69575e-24)
(0.0148809 8.31299e-05 2.14493e-25)
(0.014908 7.66258e-05 2.75675e-24)
(0.014933 6.98411e-05 -1.03015e-24)
(0.014956 6.28204e-05 -1.461e-25)
(0.014977 5.56072e-05 2.0626e-27)
(0.0126294 9.29397e-05 -1.79748e-24)
(0.0126743 9.28821e-05 2.3125e-24)
(0.0127176 9.19511e-05 2.56874e-25)
(0.0127591 9.02743e-05 4.62409e-24)
(0.0127988 8.79185e-05 -3.78523e-24)
(0.0128366 8.49666e-05 2.75438e-25)
(0.0128726 8.14936e-05 -4.26171e-25)
(0.0129065 7.75627e-05 -1.15725e-24)
(0.0129385 7.32287e-05 9.10601e-25)
(0.0129685 6.85414e-05 -2.90702e-24)
(0.0129964 6.35471e-05 3.31261e-25)
(0.0130222 5.82891e-05 7.02387e-25)
(0.0130459 5.28085e-05 3.63448e-25)
(0.0130674 4.71432e-05 1.0303e-25)
(0.0130867 4.13305e-05 4.68021e-28)
(0.0108734 7.02916e-05 1.33785e-24)
(0.0109155 7.01592e-05 -1.05927e-24)
(0.0109562 6.94145e-05 -4.62986e-24)
(0.0109953 6.81117e-05 4.34649e-24)
(0.0110327 6.62872e-05 6.01066e-24)
(0.0110683 6.4005e-05 -1.56853e-24)
(0.0111021 6.13202e-05 -3.09971e-24)
(0.011134 5.82792e-05 -4.18201e-24)
(0.0111639 5.49234e-05 3.1116e-24)
(0.0111918 5.12917e-05 1.42359e-25)
(0.0112177 4.74206e-05 -6.25668e-25)
(0.0112415 4.33451e-05 -1.13821e-25)
(0.0112631 3.90983e-05 2.45627e-25)
(0.0112826 3.47113e-05 -3.58717e-26)
(0.0112998 3.02149e-05 -4.41456e-27)
(0.00923987 5.13834e-05 -8.45542e-25)
(0.00927804 5.12609e-05 -5.9951e-25)
(0.00931495 5.07307e-05 7.34036e-25)
(0.00935049 4.97859e-05 -2.30755e-24)
(0.00938453 4.84526e-05 7.55801e-24)
(0.00941697 4.67795e-05 -9.95187e-24)
(0.00944774 4.48047e-05 9.66605e-24)
(0.00947676 4.25615e-05 -4.06346e-24)
(0.00950395 4.00801e-05 8.67147e-25)
(0.00952924 3.73899e-05 -4.36408e-26)
(0.00955259 3.45188e-05 -6.68799e-25)
(0.00957393 3.14936e-05 1.20583e-25)
(0.00959322 2.83401e-05 -3.7956e-25)
(0.00961042 2.5083e-05 -1.97941e-26)
(0.00962548 2.17464e-05 3.07519e-27)
(0.00772999 3.61736e-05 -4.12332e-25)
(0.00776339 3.60978e-05 1.06228e-25)
(0.00779583 3.57636e-05 2.29506e-25)
(0.00782713 3.51252e-05 -1.05877e-24)
(0.00785718 3.42094e-05 -4.69728e-25)
(0.00788587 3.30503e-05 4.09601e-24)
(0.0079131 3.16728e-05 -2.40107e-24)
(0.00793879 3.00999e-05 3.30458e-25)
(0.00796284 2.83531e-05 -3.23747e-25)
(0.0079852 2.64535e-05 -3.19951e-25)
(0.00800578 2.44213e-05 -6.08112e-26)
(0.00802455 2.22766e-05 5.0857e-25)
(0.00804143 2.00383e-05 1.95553e-26)
(0.00805641 1.77254e-05 -2.11488e-25)
(0.00806943 1.53558e-05 -6.10203e-27)
(0.00634293 2.43676e-05 -1.50394e-25)
(0.00637119 2.43418e-05 -4.94385e-26)
(0.00639879 2.41598e-05 -2.4156e-24)
(0.00642552 2.37606e-05 6.45091e-25)
(0.00645126 2.31736e-05 -1.7163e-24)
(0.00647588 2.24194e-05 1.22817e-24)
(0.00649931 2.15136e-05 2.27326e-24)
(0.00652143 2.04714e-05 1.64981e-24)
(0.00654217 1.93073e-05 -2.27129e-24)
(0.00656145 1.80356e-05 6.85123e-25)
(0.0065792 1.66705e-05 5.14129e-25)
(0.00659538 1.52259e-05 -6.35986e-25)
(0.00660991 1.37154e-05 3.33885e-25)
(0.00662279 1.21527e-05 2.64565e-26)
(0.00663394 1.05506e-05 1.26599e-26)
(0.00507613 1.55348e-05 -5.90483e-25)
(0.0050992 1.55444e-05 -8.06953e-25)
(0.00512187 1.54643e-05 -1.44029e-25)
(0.00514391 1.52371e-05 2.00491e-24)
(0.00516522 1.48907e-05 -1.4118e-24)
(0.00518568 1.44353e-05 -2.64025e-25)
(0.00520519 1.388e-05 2.24006e-24)
(0.00522367 1.32343e-05 -1.45495e-26)
(0.00524103 1.25073e-05 -4.58473e-25)
(0.00525721 1.17084e-05 -1.50315e-24)
(0.00527213 1.08466e-05 2.376e-25)
(0.00528574 9.93142e-06 8.99114e-25)
(0.005298 8.97159e-06 -1.11563e-25)
(0.00530886 7.97684e-06 -3.75759e-26)
(0.0053183 6.95589e-06 1.19755e-26)
(0.00392537 9.19389e-06 -1.29311e-25)
(0.00394339 9.21867e-06 7.83873e-27)
(0.00396124 9.19645e-06 9.64728e-25)
(0.00397866 9.08269e-06 6.41782e-25)
(0.00399558 8.8993e-06 -4.48412e-25)
(0.0040119 8.64952e-06 -1.09257e-24)
(0.00402752 8.33853e-06 4.33865e-25)
(0.00404236 7.97168e-06 -1.79142e-24)
(0.00405636 7.55429e-06 1.37401e-24)
(0.00406944 7.09198e-06 6.45946e-25)
(0.00408155 6.59019e-06 -5.79018e-26)
(0.00409264 6.05474e-06 -6.30961e-25)
(0.00410265 5.491e-06 8.74442e-26)
(0.00411157 4.90533e-06 -3.29401e-26)
(0.00411935 4.30357e-06 6.57003e-27)
(0.00288501 4.86767e-06 -2.38474e-25)
(0.00289829 4.88936e-06 5.21119e-27)
(0.00291154 4.89189e-06 7.75242e-25)
(0.00292454 4.84486e-06 -4.84537e-25)
(0.00293722 4.76169e-06 1.97956e-24)
(0.00294951 4.64231e-06 -3.5952e-24)
(0.00296134 4.48934e-06 2.8988e-24)
(0.00297262 4.30547e-06 -2.38018e-24)
(0.00298331 4.09345e-06 1.6678e-24)
(0.00299334 3.8563e-06 -1.02567e-24)
(0.00300267 3.59694e-06 3.45462e-25)
(0.00301124 3.3186e-06 4.53466e-26)
(0.00301904 3.02419e-06 4.34599e-26)
(0.00302602 2.71753e-06 -4.50849e-26)
(0.00303215 2.40253e-06 2.88371e-27)
(0.00194837 2.12762e-06 3.62332e-25)
(0.00195728 2.13606e-06 3.90624e-25)
(0.00196626 2.14276e-06 -1.67051e-24)
(0.0019751 2.12862e-06 1.22018e-24)
(0.00198378 2.09921e-06 -1.31658e-26)
(0.00199223 2.05366e-06 3.07791e-25)
(0.00200041 1.99307e-06 -3.81795e-25)
(0.00200825 1.91853e-06 -7.71314e-25)
(0.00201572 1.83122e-06 7.5396e-25)
(0.00202276 1.73247e-06 6.23174e-26)
(0.00202934 1.62357e-06 -5.31774e-25)
(0.00203543 1.50604e-06 1.94845e-25)
(0.002041 1.38113e-06 8.62508e-26)
(0.00204602 1.2508e-06 -1.31508e-26)
(0.00205048 1.11762e-06 -2.05632e-27)
(0.00110804 6.36628e-07 -3.66061e-25)
(0.00111302 6.41271e-07 1.11852e-24)
(0.00111808 6.49966e-07 6.64768e-25)
(0.00112309 6.5186e-07 -1.19921e-24)
(0.00112805 6.48158e-07 -1.40468e-25)
(0.00113291 6.38664e-07 -1.23978e-25)
(0.00113763 6.23854e-07 3.72285e-25)
(0.0011422 6.04145e-07 -6.21352e-25)
(0.00114656 5.7995e-07 8.18846e-25)
(0.00115071 5.51722e-07 -4.02912e-25)
(0.00115461 5.19851e-07 -2.33963e-25)
(0.00115824 4.84834e-07 1.30932e-25)
(0.00116158 4.46944e-07 -1.04088e-25)
(0.00116462 4.06817e-07 8.60395e-26)
(0.00116734 3.65777e-07 -4.73408e-27)
(0.000356278 1.08829e-07 -2.61599e-27)
(0.000357771 1.40619e-07 2.17566e-25)
(0.000359316 1.66491e-07 2.48488e-25)
(0.000360864 1.84519e-07 -3.90214e-25)
(0.000362415 1.96041e-07 8.04575e-25)
(0.000363953 2.01966e-07 -8.72937e-25)
(0.000365465 2.03052e-07 5.61488e-26)
(0.000366938 1.99813e-07 4.61799e-25)
(0.000368362 1.92596e-07 -6.36387e-25)
(0.000369726 1.81634e-07 -1.00737e-25)
(0.00037102 1.67043e-07 3.89852e-25)
(0.000372236 1.48912e-07 -1.65803e-25)
(0.000373366 1.27197e-07 -4.02612e-26)
(0.000374406 1.01919e-07 3.02339e-26)
(0.000375348 7.33899e-08 -4.15163e-28)
(0.00092929 -0.000261105 1.03445e-25)
(0.00105968 -0.000193427 2.76274e-24)
(0.00127822 -0.000121969 -8.10881e-24)
(0.00150014 -6.42605e-05 1.21156e-23)
(0.00171127 -1.83464e-05 -4.55014e-24)
(0.00191698 1.68936e-05 -4.59821e-24)
(0.00211774 4.41622e-05 5.31968e-24)
(0.00231479 6.56976e-05 -1.07148e-23)
(0.0025094 8.33001e-05 6.12942e-25)
(0.0027026 9.83988e-05 6.85425e-24)
(0.00289526 0.000112148 -1.32456e-24)
(0.00308805 0.000125555 1.44486e-24)
(0.00328164 0.00013959 -1.33842e-25)
(0.00347676 0.00015521 9.41656e-25)
(0.00367453 0.000173399 -3.47415e-24)
(0.00387643 0.000195099 1.91959e-24)
(0.0040848 0.000220785 -6.43166e-25)
(0.00430329 0.000250532 2.11818e-26)
(0.00453693 0.000283847 1.62918e-24)
(0.00479166 0.000318274 -1.03707e-24)
(0.00507533 0.000347511 1.35909e-25)
(0.00539387 0.000360823 -1.19701e-25)
(0.0057237 0.000341079 2.27275e-25)
(0.0060208 0.0002845 8.65409e-25)
(0.00626925 0.000197883 -1.55624e-24)
(0.00646827 8.81717e-05 -1.04915e-24)
(0.00661915 -3.81726e-05 2.74127e-26)
(0.0067235 -0.000175987 2.63279e-24)
(0.0067825 -0.000321132 3.76875e-24)
(0.00679691 -0.000469504 -7.43311e-24)
(0.00676717 -0.000616353 6.71731e-24)
(0.00669368 -0.000756124 -6.44517e-24)
(0.00657706 -0.000882501 1.82009e-24)
(0.0064184 -0.000988526 4.73177e-25)
(0.00621926 -0.00106671 -5.53246e-25)
(0.00598165 -0.00110903 4.29332e-24)
(0.00570785 -0.00110662 -1.93727e-25)
(0.00540027 -0.00104908 2.34072e-24)
(0.0050615 -0.000923063 1.64352e-24)
(0.00469486 -0.000710251 -1.02683e-23)
(0.00430398 -0.000387368 -1.34641e-25)
(0.00389459 6.60442e-05 5.02748e-24)
(0.00345838 0.000635072 1.95375e-24)
(0.00301682 0.00122772 -7.37546e-24)
(0.00276754 0.00151561 -3.95427e-25)
(0.00174032 -0.000340403 -3.09608e-24)
(0.00179214 -0.000305409 -4.56982e-24)
(0.00192268 -0.000236213 9.47319e-24)
(0.00208786 -0.000170611 4.69029e-24)
(0.00226234 -0.000114065 -1.64406e-23)
(0.00244183 -6.81845e-05 1.78856e-23)
(0.00262263 -3.13824e-05 -6.45684e-24)
(0.00280356 -1.52866e-06 5.34016e-24)
(0.00298452 2.32886e-05 -7.04669e-24)
(0.00316578 4.4671e-05 7.3081e-26)
(0.00334775 6.39236e-05 -3.85295e-24)
(0.00353088 8.21756e-05 7.6593e-24)
(0.00371567 0.000100476 -4.27298e-24)
(0.0039028 0.000119814 -3.96487e-24)
(0.00409333 0.000141187 -2.801e-24)
(0.00428865 0.00016552 5.08564e-24)
(0.004491 0.000193229 -7.18822e-25)
(0.00470392 0.000224338 2.93466e-24)
(0.00493223 0.000258373 5.49992e-25)
(0.00518153 0.000292899 -9.23585e-25)
(0.00545942 0.000321795 -4.09015e-25)
(0.00577173 0.000334764 -2.55099e-25)
(0.00609595 0.000315421 1.23488e-24)
(0.00638934 0.000260558 1.48253e-24)
(0.00663615 0.000176892 -1.34981e-24)
(0.00683529 7.11403e-05 -6.41646e-24)
(0.00698767 -5.03257e-05 8.63331e-24)
(0.00709456 -0.000182299 -6.04171e-24)
(0.00715694 -0.000320528 2.03039e-24)
(0.00717552 -0.000460813 -1.30782e-24)
(0.00715088 -0.000598332 9.96143e-24)
(0.00708369 -0.000727504 -1.36639e-23)
(0.00697496 -0.00084204 7.46562e-24)
(0.0068263 -0.00093505 -4.31055e-24)
(0.00663995 -0.000999134 1.14031e-24)
(0.00641884 -0.00102634 1.37191e-25)
(0.00616658 -0.00100792 9.60618e-24)
(0.00588757 -0.000933682 -1.8432e-24)
(0.00558756 -0.000790807 -9.31808e-24)
(0.00527507 -0.000562115 -6.51656e-24)
(0.00496328 -0.000225886 1.49285e-23)
(0.00467508 0.000237211 -1.52343e-23)
(0.00443714 0.000811272 -4.28873e-24)
(0.00429483 0.00139021 1.04036e-23)
(0.00430951 0.00160901 3.91433e-24)
(0.00269298 -0.000345773 -3.69067e-26)
(0.00269727 -0.000349459 -5.28652e-24)
(0.00274754 -0.00031082 1.01018e-23)
(0.00284704 -0.000255015 9.02458e-24)
(0.00297123 -0.000198673 -1.45804e-23)
(0.00311163 -0.000148211 2.81145e-25)
(0.00326151 -0.000105226 1.46898e-24)
(0.00341722 -6.89266e-05 1.63629e-23)
(0.00357692 -3.79501e-05 -1.94248e-23)
(0.00373975 -1.08924e-05 1.21273e-23)
(0.00390542 1.35094e-05 3.77209e-24)
(0.00407394 3.63981e-05 -2.05239e-23)
(0.00424554 5.88407e-05 7.42462e-24)
(0.00442072 8.18242e-05 3.03069e-24)
(0.00460043 0.000106333 -6.49341e-24)
(0.00478592 0.000133271 1.07548e-23)
(0.00497932 0.000162977 -7.77597e-24)
(0.00518401 0.000195413 -2.62209e-25)
(0.00540461 0.000230134 5.73284e-25)
(0.00564634 0.000264728 6.977e-25)
(0.00591649 0.000293248 8.30657e-26)
(0.00622074 0.000305833 4.46569e-25)
(0.00653771 0.000286853 -1.24754e-24)
(0.00682604 0.000233696 3.69839e-24)
(0.00707014 0.000153013 -5.80009e-24)
(0.00726854 5.12994e-05 3.3284e-24)
(0.00742176 -6.51678e-05 -7.67019e-24)
(0.00753074 -0.000191116 1.03359e-23)
(0.00759622 -0.00032219 -9.58309e-24)
(0.00761889 -0.000454095 3.41699e-25)
(0.00759949 -0.000581943 -1.48582e-25)
(0.00753896 -0.000700137 1.59924e-23)
(0.00743877 -0.000802442 -5.25351e-24)
(0.00730109 -0.000882088 -2.05423e-24)
(0.0071289 -0.000931864 -2.61277e-25)
(0.00692612 -0.000944106 7.39938e-24)
(0.00669776 -0.000910516 -6.67513e-24)
(0.00645027 -0.000821746 1.46146e-23)
(0.00619239 -0.000666708 -2.93531e-23)
(0.00593711 -0.0004317 1.15001e-23)
(0.00570445 -0.000101258 4.37661e-24)
(0.00552619 0.000334548 7.65658e-24)
(0.00544035 0.000850438 -9.56427e-24)
(0.00547716 0.00133681 3.18805e-24)
(0.00562631 0.00150714 -2.03397e-24)
(0.00377178 -0.000325488 -1.34269e-24)
(0.00374774 -0.000353268 -2.11639e-24)
(0.00375016 -0.000340967 -9.14067e-24)
(0.00378655 -0.000307932 2.25453e-24)
(0.00385648 -0.000261927 1.53024e-24)
(0.00394963 -0.000214631 7.60898e-24)
(0.00405941 -0.00017075 -1.65324e-23)
(0.00418109 -0.000131474 6.18828e-24)
(0.00431149 -9.66026e-05 2.14882e-23)
(0.00444867 -6.53747e-05 -5.67414e-24)
(0.00459155 -3.68444e-05 -5.42912e-24)
(0.00473959 -1.00329e-05 -8.75579e-25)
(0.00489268 1.60372e-05 2.92454e-24)
(0.00505106 4.22823e-05 -5.78253e-24)
(0.00521551 6.96306e-05 1.30218e-24)
(0.00538712 9.89377e-05 -5.60931e-25)
(0.00556785 0.000130439 -3.18593e-24)
(0.00576096 0.000164012 1.01684e-24)
(0.00597079 0.000199253 5.77754e-24)
(0.00620221 0.000233772 -6.23139e-25)
(0.00646213 0.00026179 -1.38862e-24)
(0.00675601 0.000273887 -3.96384e-25)
(0.00706366 0.000255209 -2.20612e-24)
(0.00734517 0.000203763 -1.03798e-25)
(0.00758509 0.00012614 -5.15789e-24)
(0.00778153 2.86068e-05 8.92715e-24)
(0.00793457 -8.26611e-05 -7.71968e-24)
(0.00804484 -0.000202319 1.48952e-23)
(0.00811285 -0.000325907 -1.29193e-23)
(0.00813929 -0.000449056 2.85736e-24)
(0.00812504 -0.000566841 5.55002e-24)
(0.0080714 -0.000673697 -1.29789e-25)
(0.00798028 -0.000763508 -3.4969e-25)
(0.00785447 -0.000829731 -1.65284e-25)
(0.00769772 -0.000865514 -6.89319e-25)
(0.00751494 -0.000863742 -2.93265e-24)
(0.00731244 -0.000816997 1.69961e-23)
(0.00709842 -0.000717434 -8.72159e-24)
(0.00688387 -0.000556701 2.33521e-25)
(0.00668432 -0.000326119 -2.87959e-23)
(0.0065219 -1.86057e-05 2.219e-23)
(0.00642754 0.000364692 -9.17528e-24)
(0.00643441 0.000793818 1.48498e-24)
(0.0065552 0.00118119 1.29899e-23)
(0.0067605 0.00135706 -3.58549e-24)
(0.0049728 -0.000294466 -5.5894e-24)
(0.00493797 -0.000331455 1.15138e-23)
(0.00491131 -0.00033814 3.4139e-24)
(0.00490791 -0.000325208 1.47435e-23)
(0.00492684 -0.000297534 -3.61728e-23)
(0.00497217 -0.00025993 -1.21044e-24)