/*--------------------------------*- C++ -*----------------------------------*\
| =========                 |                                                 |
| \\      /  F ield         | OpenFOAM: The Open Source CFD Toolbox           |
|  \\    /   O peration     | Version:  2312                                  |
|   \\  /    A nd           | Website:  www.openfoam.com                      |
|    \\/     M anipulation  |                                                 |
\*---------------------------------------------------------------------------*/
FoamFile
{
    version     2.0;
    format      ascii;
    arch        "LSB;label=32;scalar=64";
    class       surfaceScalarField;
    location    "75";
    object      phi;
}
// * * * * * * * * * * * * * * * * * * * * * * * * * * * * * * * * * * * * * //

dimensions      [0 3 -1 0 0 0 0];

oriented        oriented;

internalField   nonuniform List<scalar> 
9445
(
6.04553e-10
1.73018e-11
5.92756e-10
1.17973e-11
5.84666e-10
8.08992e-12
5.79265e-10
5.40093e-12
5.75939e-10
3.32575e-12
5.74301e-10
1.63772e-12
5.74165e-10
1.36616e-13
5.75558e-10
-1.39351e-12
5.78427e-10
-2.86854e-12
5.83126e-10
-4.69933e-12
5.90844e-10
-7.71751e-12
6.05131e-10
-1.42876e-11
6.3855e-10
-3.34188e-11
7.35551e-10
-9.7001e-11
-2.5521e-10
9.90761e-10
2.10442e-09
7.68218e-11
2.0635e-09
5.27166e-11
2.03515e-09
3.64388e-11
2.01591e-09
2.46415e-11
2.00365e-09
1.55791e-11
1.99704e-09
8.25276e-12
1.99538e-09
1.79439e-12
1.99849e-09
-4.50118e-12
2.00627e-09
-1.06483e-11
2.0199e-09
-1.83287e-11
2.04232e-09
-3.01372e-11
2.08033e-09
-5.23017e-11
2.14751e-09
-1.00592e-10
2.25711e-09
-2.06606e-10
-3.72461e-10
2.37436e-09
4.14405e-09
1.92036e-10
4.06431e-09
1.3245e-10
4.00862e-09
9.21319e-11
3.97032e-09
6.29393e-11
3.9453e-09
4.06079e-11
3.93086e-09
2.26922e-11
3.9256e-09
7.04801e-12
3.92876e-09
-7.65415e-12
3.94007e-09
-2.19619e-11
3.96101e-09
-3.9266e-11
3.99443e-09
-6.35614e-11
4.04484e-09
-1.02711e-10
4.11509e-09
-1.70842e-10
4.19163e-09
-2.83146e-10
-4.17652e-10
4.23682e-09
6.87061e-09
3.78343e-10
6.74065e-09
2.62413e-10
6.64904e-09
1.83741e-10
6.58517e-09
1.2681e-10
6.54234e-09
8.34331e-11
6.51614e-09
4.88937e-11
6.50401e-09
1.91839e-11
6.50422e-09
-7.87013e-12
6.5161e-09
-3.38434e-11
6.54017e-09
-6.33308e-11
6.5775e-09
-1.00897e-10
6.62747e-09
-1.52678e-10
6.68349e-09
-2.26856e-10
6.72534e-09
-3.25002e-10
-4.21628e-10
6.72932e-09
1.04629e-08
6.51771e-10
1.02702e-08
4.55114e-10
1.01329e-08
3.21037e-10
1.00357e-08
2.23966e-10
9.96888e-09
1.50261e-10
9.92578e-09
9.19937e-11
9.9021e-09
4.28639e-11
9.895e-09
-7.71961e-13
9.90277e-09
-4.16164e-11
9.92391e-09
-8.44715e-11
9.95671e-09
-1.33692e-10
9.99624e-09
-1.92206e-10
1.00317e-08
-2.62274e-10
1.00456e-08
-3.38976e-10
-4.03271e-10
1.00273e-08
1.51331e-08
1.02592e-09
1.48657e-08
7.22431e-10
1.46728e-08
5.13991e-10
1.4534e-08
3.62744e-10
1.44361e-08
2.48172e-10
1.43699e-08
1.58176e-10
1.4329e-08
8.37798e-11
1.43088e-08
1.93855e-11
1.43061e-08
-3.88624e-11
1.43172e-08
-9.55582e-11
1.43374e-08
-1.53907e-10
1.43597e-08
-2.14477e-10
1.43733e-08
-2.7593e-10
1.43669e-08
-3.32564e-10
-3.73602e-10
1.43372e-08
2.11252e-08
1.50615e-09
2.07755e-08
1.07207e-09
2.0519e-08
7.70545e-10
2.03311e-08
5.50659e-10
2.01951e-08
3.84152e-10
2.00992e-08
2.54028e-10
2.00347e-08
1.48294e-10
1.9995e-08
5.91169e-11
1.99747e-08
-1.85519e-11
1.99682e-08
-8.90643e-11
1.9969e-08
-1.54753e-10
1.99697e-08
-2.15172e-10
1.99621e-08
-2.6829e-10
1.99399e-08
-3.10419e-10
-3.37068e-10
1.99034e-08
2.8707e-08
2.08065e-09
2.82774e-08
1.50158e-09
2.79555e-08
1.09254e-09
2.77145e-08
7.91572e-10
2.75356e-08
5.63074e-10
2.74046e-08
3.85027e-10
2.73106e-08
2.42277e-10
2.72451e-08
1.24696e-10
2.72006e-08
2.59144e-11
2.717e-08
-5.8499e-11
2.71464e-08
-1.31153e-10
2.7123e-08
-1.91788e-10
2.70944e-08
-2.39694e-10
2.70579e-08
-2.7383e-10
-2.93557e-10
2.70143e-08
3.81564e-08
2.71043e-09
3.76675e-08
1.99053e-09
3.72902e-08
1.46982e-09
3.70005e-08
1.08127e-09
3.67792e-08
7.84331e-10
3.66113e-08
5.52908e-10
3.64846e-08
3.69016e-10
3.63889e-08
2.20387e-10
3.63158e-08
9.90664e-11
3.62568e-08
4.47528e-13
3.6206e-08
-8.03775e-11
3.61576e-08
-1.43387e-10
3.61083e-08
-1.90311e-10
3.60567e-08
-2.22318e-10
-2.40916e-10
3.60041e-08
4.97514e-08
3.32661e-09
4.92466e-08
2.49525e-09
4.88416e-08
1.87486e-09
4.85202e-08
1.40268e-09
4.82667e-08
1.03778e-09
4.80674e-08
7.52233e-10
4.79102e-08
5.2626e-10
4.77846e-08
3.45965e-10
4.76818e-08
2.01889e-10
4.75948e-08
8.74324e-11
4.75168e-08
-2.39096e-12
4.74444e-08
-7.0963e-11
4.73751e-08
-1.21031e-10
4.73084e-08
-1.55577e-10
-1.77263e-10
4.72447e-08
6.37861e-08
3.84861e-09
6.33257e-08
2.95564e-09
6.29363e-08
2.26428e-09
6.2614e-08
1.725e-09
6.23499e-08
1.30186e-09
6.2134e-08
9.68156e-10
6.19563e-08
7.03914e-10
6.18079e-08
4.94361e-10
6.16812e-08
3.2867e-10
6.15699e-08
1.98709e-10
6.14694e-08
9.81051e-11
6.13767e-08
2.17082e-11
6.12904e-08
-3.4706e-11
6.12098e-08
-7.50358e-11
-1.02577e-10
6.11352e-08
8.06425e-08
4.22666e-09
8.02763e-08
3.3219e-09
7.99454e-08
2.59513e-09
7.9657e-08
2.01343e-09
7.94096e-08
1.54926e-09
7.91982e-08
1.17954e-09
7.90166e-08
8.8554e-10
7.88585e-08
6.52428e-10
7.87186e-08
4.6855e-10
7.85927e-08
3.24611e-10
7.84777e-08
2.1307e-10
7.83718e-08
1.27675e-10
7.82738e-08
6.32899e-11
7.81833e-08
1.54499e-11
-1.93373e-11
7.81001e-08
1.00889e-07
4.47427e-09
1.00625e-07
3.58618e-09
1.00369e-07
2.85093e-09
1.00133e-07
2.24927e-09
9.99202e-08
1.76198e-09
9.97296e-08
1.37009e-09
9.95585e-08
1.05665e-09
9.94037e-08
8.07215e-10
9.92625e-08
6.09829e-10
9.91325e-08
4.54561e-10
9.90123e-08
3.33233e-10
9.8901e-08
2.39039e-10
9.87978e-08
1.66447e-10
9.87025e-08
1.1081e-10
6.8441e-11
9.86147e-08
1.25276e-07
4.64069e-09
1.25084e-07
3.77831e-09
1.24887e-07
3.04803e-09
1.24696e-07
2.44033e-09
1.24515e-07
1.94255e-09
1.24346e-07
1.53905e-09
1.24188e-07
1.21432e-09
1.24041e-07
9.54445e-10
1.23904e-07
7.47484e-10
1.23775e-07
5.83328e-10
1.23654e-07
4.53606e-10
1.23542e-07
3.51362e-10
1.23438e-07
2.70972e-10
1.23341e-07
2.07766e-10
1.58057e-10
1.23251e-07
1.54534e-07
4.74978e-09
1.54391e-07
3.92091e-09
1.54234e-07
3.20553e-09
1.54072e-07
2.60178e-09
1.53912e-07
2.10251e-09
1.53757e-07
1.69471e-09
1.53607e-07
1.36418e-09
1.53464e-07
1.09769e-09
1.53327e-07
8.8367e-10
1.53199e-07
7.12201e-10
1.53077e-07
5.75024e-10
1.52963e-07
4.65275e-10
1.52857e-07
3.7741e-10
1.52758e-07
3.06862e-10
2.50022e-10
1.52666e-07
1.89133e-07
4.79069e-09
1.89046e-07
4.00837e-09
1.8893e-07
3.32105e-09
1.88799e-07
2.73305e-09
1.88659e-07
2.24218e-09
1.88516e-07
1.8376e-09
1.88374e-07
1.50664e-09
1.88234e-07
1.23729e-09
1.88099e-07
1.01877e-09
1.8797e-07
8.41669e-10
1.87847e-07
6.98131e-10
1.8773e-07
5.81579e-10
1.87621e-07
4.86688e-10
1.87519e-07
4.09078e-10
3.45272e-10
1.87423e-07
2.29184e-07
4.75021e-09
2.29162e-07
4.02995e-09
2.29099e-07
3.38408e-09
2.29008e-07
2.82434e-09
2.28897e-07
2.35297e-09
2.28775e-07
1.95992e-09
2.28647e-07
1.63481e-09
2.28517e-07
1.3673e-09
2.28388e-07
1.14773e-09
2.28262e-07
9.67541e-10
2.28141e-07
8.19471e-10
2.28025e-07
6.97424e-10
2.27915e-07
5.96432e-10
2.27812e-07
5.1239e-10
4.42032e-10
2.27715e-07
2.74254e-07
4.61789e-09
2.7431e-07
3.97445e-09
2.74305e-07
3.38842e-09
2.74259e-07
2.87014e-09
2.74185e-07
2.4279e-09
2.7409e-07
2.0542e-09
2.73984e-07
1.74142e-09
2.7387e-07
1.48095e-09
2.73753e-07
1.26444e-09
2.73636e-07
1.08433e-09
2.73522e-07
9.34126e-10
2.73411e-07
8.0837e-10
2.73305e-07
7.02557e-10
2.73204e-07
6.12949e-10
5.36644e-10
2.7311e-07
3.22865e-07
4.4069e-09
3.23e-07
3.83997e-09
3.2307e-07
3.31837e-09
3.23087e-07
2.85252e-09
3.23065e-07
2.45006e-09
3.23014e-07
2.10566e-09
3.22942e-07
1.81347e-09
3.22856e-07
1.56678e-09
3.22761e-07
1.35871e-09
3.22663e-07
1.18294e-09
3.22563e-07
1.03398e-09
3.22464e-07
9.07102e-10
3.22368e-07
7.9839e-10
3.22277e-07
7.04551e-10
6.22996e-10
3.22191e-07
3.7185e-07
4.0723e-09
3.72096e-07
3.59383e-09
3.72263e-07
3.15127e-09
3.72365e-07
2.75097e-09
3.72416e-07
2.39907e-09
3.72427e-07
2.09396e-09
3.7241e-07
1.83136e-09
3.7237e-07
1.60594e-09
3.72317e-07
1.4125e-09
3.72253e-07
1.24611e-09
3.72185e-07
1.10241e-09
3.72115e-07
9.77584e-10
3.72045e-07
8.68407e-10
3.71977e-07
7.72132e-10
6.86634e-10
3.71913e-07
3.69233e-07
3.6944e-09
3.69527e-07
3.29968e-09
3.69746e-07
2.93167e-09
3.69902e-07
2.59534e-09
3.70006e-07
2.29503e-09
3.70069e-07
2.03067e-09
3.70101e-07
1.79953e-09
3.70109e-07
1.59781e-09
3.701e-07
1.42155e-09
3.70079e-07
1.26701e-09
3.70051e-07
1.13081e-09
3.70019e-07
1.00998e-09
3.69985e-07
9.01976e-10
3.69952e-07
8.04588e-10
7.16286e-10
3.69923e-07
3.16286e-07
3.26299e-09
3.16636e-07
2.94976e-09
3.16915e-07
2.65254e-09
3.17132e-07
2.37797e-09
3.17298e-07
2.12957e-09
3.17421e-07
1.90758e-09
3.1751e-07
1.71038e-09
3.17572e-07
1.53535e-09
3.17614e-07
1.37965e-09
3.17641e-07
1.24053e-09
3.17656e-07
1.1155e-09
3.17664e-07
1.00234e-09
3.17667e-07
8.9914e-10
3.17667e-07
8.04215e-10
7.16177e-10
3.17667e-07
2.64585e-07
2.86631e-09
2.64921e-07
2.61421e-09
2.65201e-07
2.37195e-09
2.65433e-07
2.14637e-09
2.65622e-07
1.94024e-09
2.65776e-07
1.75364e-09
2.65901e-07
1.58543e-09
2.66003e-07
1.43377e-09
2.66086e-07
1.29658e-09
2.66155e-07
1.17186e-09
2.66212e-07
1.05776e-09
2.66262e-07
9.52591e-10
2.66306e-07
8.54938e-10
2.66347e-07
7.63541e-10
6.77344e-10
2.66386e-07
2.17773e-07
2.48623e-09
2.18103e-07
2.28373e-09
2.18387e-07
2.08764e-09
2.1863e-07
1.90354e-09
2.18837e-07
1.73355e-09
2.19013e-07
1.57772e-09
2.19163e-07
1.43522e-09
2.19292e-07
1.30471e-09
2.19404e-07
1.18474e-09
2.19502e-07
1.07384e-09
2.19589e-07
9.70641e-10
2.19668e-07
8.73948e-10
2.1974e-07
7.82704e-10
2.19807e-07
6.96015e-10
6.1311e-10
2.19872e-07
1.76833e-07
2.11686e-09
1.77161e-07
1.95587e-09
1.77449e-07
1.79915e-09
1.77702e-07
1.65075e-09
1.77924e-07
1.51222e-09
1.78118e-07
1.38357e-09
1.78289e-07
1.26418e-09
1.7844e-07
1.15315e-09
1.78576e-07
1.04945e-09
1.78697e-07
9.52035e-10
1.78808e-07
8.59974e-10
1.7891e-07
7.72415e-10
1.79004e-07
6.88634e-10
1.79092e-07
6.08015e-10
5.30036e-10
1.79175e-07
1.41966e-07
1.76205e-09
1.42286e-07
1.63623e-09
1.42572e-07
1.51308e-09
1.42827e-07
1.39542e-09
1.43055e-07
1.28426e-09
1.43259e-07
1.17961e-09
1.43442e-07
1.08105e-09
1.43608e-07
9.87973e-10
1.43757e-07
8.99705e-10
1.43894e-07
8.15563e-10
1.44019e-07
7.34922e-10
1.44134e-07
6.57228e-10
1.44241e-07
5.82014e-10
1.4434e-07
5.08898e-10
4.37558e-10
1.44432e-07
1.12843e-07
1.43054e-09
1.13145e-07
1.33441e-09
1.13418e-07
1.23965e-09
1.13665e-07
1.14823e-09
1.13889e-07
1.06072e-09
1.14091e-07
9.77145e-10
1.14275e-07
8.97252e-10
1.14442e-07
8.2069e-10
1.14595e-07
7.47042e-10
1.14735e-07
6.75895e-10
1.14863e-07
6.06869e-10
1.1498e-07
5.39641e-10
1.15089e-07
4.73948e-10
1.15188e-07
4.09566e-10
3.46368e-10
1.15279e-07
8.88568e-08
1.13158e-09
8.91311e-08
1.06007e-09
8.93818e-08
9.88967e-10
8.96104e-08
9.19613e-10
8.98189e-08
8.5227e-10
9.0009e-08
7.86974e-10
9.01827e-08
7.23639e-10
9.03412e-08
6.62092e-10
9.04862e-08
6.02108e-10
9.06186e-08
5.43466e-10
9.07395e-08
4.85975e-10
9.08497e-08
4.29473e-10
9.09498e-08
3.73849e-10
9.10403e-08
3.19008e-10
2.64926e-10
9.11218e-08
6.93082e-08
8.71721e-10
6.95482e-08
8.20107e-10
6.97688e-08
7.68302e-10
6.99713e-08
7.17124e-10
7.0157e-08
6.66628e-10
7.0327e-08
6.16912e-10
7.04827e-08
5.67998e-10
7.06249e-08
5.19828e-10
7.07547e-08
4.72314e-10
7.08728e-08
4.2537e-10
7.09799e-08
3.78929e-10
7.10764e-08
3.32946e-10
7.11628e-08
2.87405e-10
7.12395e-08
2.42305e-10
1.97676e-10
7.13068e-08
5.35123e-08
6.5362e-10
5.37148e-08
6.17611e-10
5.3902e-08
5.81131e-10
5.40746e-08
5.44521e-10
5.42335e-08
5.07761e-10
5.43794e-08
4.71007e-10
5.4513e-08
4.34333e-10
5.46351e-08
3.97757e-10
5.47461e-08
3.61273e-10
5.48466e-08
3.24883e-10
5.4937e-08
2.88598e-10
5.50175e-08
2.52442e-10
5.50884e-08
2.16455e-10
5.515e-08
1.80688e-10
1.45203e-10
5.52025e-08
4.08478e-08
4.76356e-10
4.10132e-08
4.52185e-10
4.11668e-08
4.27484e-10
4.13092e-08
4.02191e-10
4.14406e-08
3.76313e-10
4.15616e-08
3.5003e-10
4.16725e-08
3.23436e-10
4.17736e-08
2.96583e-10
4.18654e-08
2.69515e-10
4.1948e-08
2.4228e-10
4.20217e-08
2.14927e-10
4.20866e-08
1.87517e-10
4.21429e-08
1.60116e-10
4.21908e-08
1.32798e-10
1.05637e-10
4.22304e-08
3.07718e-08
3.36482e-10
3.0903e-08
3.20971e-10
3.10255e-08
3.04986e-10
3.11395e-08
2.88185e-10
3.12452e-08
2.70653e-10
3.13427e-08
2.52557e-10
3.14321e-08
2.33984e-10
3.15137e-08
2.15003e-10
3.15875e-08
1.95674e-10
3.16538e-08
1.76063e-10
3.17125e-08
1.56233e-10
3.17637e-08
1.36255e-10
3.18076e-08
1.16201e-10
3.18443e-08
9.61518e-11
7.61755e-11
3.18737e-08
2.28195e-08
2.29194e-10
2.29207e-08
2.19764e-10
2.30158e-08
2.09952e-10
2.31047e-08
1.99288e-10
2.31874e-08
1.87933e-10
2.32639e-08
1.76012e-10
2.33343e-08
1.63596e-10
2.33986e-08
1.50751e-10
2.34567e-08
1.37539e-10
2.35087e-08
1.24023e-10
2.35547e-08
1.10264e-10
2.35946e-08
9.63296e-11
2.36286e-08
8.22849e-11
2.36565e-08
6.82037e-11
5.41431e-11
2.36785e-08
1.65966e-08
1.49262e-10
1.66725e-08
1.43898e-10
1.67442e-08
1.38246e-10
1.68116e-08
1.31842e-10
1.68747e-08
1.24881e-10
1.69333e-08
1.17436e-10
1.69873e-08
1.09563e-10
1.70367e-08
1.01315e-10
1.70815e-08
9.27421e-11
1.71217e-08
8.38985e-11
1.71571e-08
7.48353e-11
1.71878e-08
6.56065e-11
1.72138e-08
5.62654e-11
1.72352e-08
4.68728e-11
3.7473e-11
1.72518e-08
1.17714e-08
9.16263e-11
1.18264e-08
8.88195e-11
1.18789e-08
8.58165e-11
1.19285e-08
8.22374e-11
1.19751e-08
7.82607e-11
1.20186e-08
7.39198e-11
1.20589e-08
6.92528e-11
1.20959e-08
6.42978e-11
1.21296e-08
5.90918e-11
1.21598e-08
5.3674e-11
1.21866e-08
4.80821e-11
1.22098e-08
4.2356e-11
1.22295e-08
3.6534e-11
1.22458e-08
3.06622e-11
2.47737e-11
1.22585e-08
8.0668e-09
5.17201e-11
8.10522e-09
5.0402e-11
8.14206e-09
4.89737e-11
8.17713e-09
4.71649e-11
8.21029e-09
4.51058e-11
8.2414e-09
4.28038e-11
8.27037e-09
4.02828e-11
8.2971e-09
3.75668e-11
8.32152e-09
3.46795e-11
8.34354e-09
3.16466e-11
8.36313e-09
2.84923e-11
8.38025e-09
2.52429e-11
8.39486e-09
2.19229e-11
8.40696e-09
1.85639e-11
1.51904e-11
8.41654e-09
5.2536e-09
2.56036e-11
5.27894e-09
2.50658e-11
5.30342e-09
2.44933e-11
5.32687e-09
2.37128e-11
5.34918e-09
2.27964e-11
5.37024e-09
2.17411e-11
5.38997e-09
2.05598e-11
5.40827e-09
1.92656e-11
5.42508e-09
1.78714e-11
5.44033e-09
1.63917e-11
5.45398e-09
1.48398e-11
5.466e-09
1.32306e-11
5.47634e-09
1.15775e-11
5.48501e-09
9.89938e-12
8.21449e-12
5.49198e-09
3.14361e-09
9.9826e-12
3.15888e-09
9.79759e-12
3.17374e-09
9.63136e-12
3.18808e-09
9.38118e-12
3.2018e-09
9.07169e-12
3.21484e-09
8.69984e-12
3.22713e-09
8.27128e-12
3.2386e-09
7.79163e-12
3.24921e-09
7.2665e-12
3.2589e-09
6.70226e-12
3.26763e-09
6.10463e-12
3.27538e-09
5.48039e-12
3.28213e-09
4.83487e-12
3.28785e-09
4.17756e-12
3.52104e-12
3.29254e-09
1.58386e-09
2.16585e-12
1.59155e-09
2.11225e-12
1.59908e-09
2.09524e-12
1.6064e-09
2.06047e-12
1.61347e-09
2.00968e-12
1.62022e-09
1.94241e-12
1.62663e-09
1.86021e-12
1.63266e-09
1.76468e-12
1.63827e-09
1.65724e-12
1.64343e-09
1.53962e-12
1.64812e-09
1.41321e-12
1.65233e-09
1.27985e-12
1.65602e-09
1.14069e-12
1.6592e-09
9.98585e-13
8.60636e-13
1.66186e-09
4.5111e-10
4.53223e-10
4.55318e-10
4.57378e-10
4.59388e-10
4.61331e-10
4.63191e-10
4.64955e-10
4.66613e-10
4.68152e-10
4.69566e-10
4.70845e-10
4.71986e-10
4.72985e-10
4.73845e-10
1.18094e-09
-5.09785e-10
3.19609e-10
1.45055e-09
-4.65868e-10
1.96252e-10
1.71954e-09
-3.56737e-10
8.77463e-11
1.98207e-09
-2.41759e-10
-2.07639e-11
2.23681e-09
-1.24442e-10
-1.30299e-10
2.48491e-09
-8.95547e-12
-2.3915e-10
2.72839e-09
1.0628e-10
-3.49762e-10
2.96898e-09
2.24299e-10
-4.64884e-10
3.20815e-09
3.48471e-10
-5.87642e-10
3.44707e-09
4.82705e-10
-7.21626e-10
3.68666e-09
6.31517e-10
-8.71104e-10
3.92771e-09
8.00588e-10
-1.04164e-09
4.1711e-09
9.97295e-10
-1.24069e-09
4.418e-09
1.23165e-09
-1.47856e-09
4.67017e-09
1.51658e-09
-1.76875e-09
4.93047e-09
1.86641e-09
-2.1267e-09
5.20312e-09
2.29776e-09
-2.57041e-09
5.49392e-09
2.82909e-09
-3.11989e-09
5.81073e-09
3.46818e-09
-3.78499e-09
6.16335e-09
4.19739e-09
-4.55001e-09
6.56096e-09
4.93752e-09
-5.33512e-09
7.00708e-09
5.49877e-09
-5.94489e-09
7.42082e-09
4.74252e-09
-5.15626e-09
7.7624e-09
3.31653e-09
-3.65812e-09
8.02802e-09
1.78118e-09
-2.04679e-09
8.2195e-09
2.91816e-10
-4.83296e-10
8.34108e-09
-1.05575e-09
9.34169e-10
8.39784e-09
-2.21915e-09
2.16239e-09
8.39487e-09
-3.18138e-09
3.18435e-09
8.33685e-09
-3.93524e-09
3.99326e-09
8.22803e-09
-4.47968e-09
4.58849e-09
8.07253e-09
-4.81848e-09
4.97398e-09
7.87447e-09
-4.95931e-09
5.15738e-09
7.63794e-09
-4.91325e-09
5.14978e-09
7.36686e-09
-4.69414e-09
4.96522e-09
7.06469e-09
-4.31748e-09
4.61965e-09
6.73423e-09
-3.7988e-09
4.12926e-09
6.37755e-09
-3.15135e-09
3.50803e-09
5.99617e-09
-2.38315e-09
2.76453e-09
5.59074e-09
-1.49461e-09
1.90004e-09
5.15872e-09
-4.82953e-10
9.14969e-10
4.68864e-09
6.37059e-10
-1.66977e-10
4.16005e-09
1.77109e-09
-1.2425e-09
3.57855e-09
2.68309e-09
-2.10159e-09
2.69066e-09
3.23458e-09
-2.3467e-09
2.44742e-09
-5.82849e-10
2.6025e-09
-6.2094e-10
2.81315e-09
-5.67388e-10
3.04781e-09
-4.76423e-10
3.29287e-09
-3.69503e-10
3.54152e-09
-2.57602e-10
3.79149e-09
-1.43691e-10
4.04235e-09
-2.65621e-11
4.29438e-09
9.64413e-11
4.54811e-09
2.28979e-10
4.80414e-09
3.75485e-10
5.06314e-09
5.41583e-10
5.32599e-09
7.34446e-10
5.59393e-09
9.63721e-10
5.86884e-09
1.24166e-09
6.15387e-09
1.58138e-09
6.4536e-09
1.99803e-09
6.77427e-09
2.50842e-09
7.12428e-09
3.11817e-09
7.51413e-09
3.80754e-09
7.9537e-09
4.49795e-09
8.44705e-09
5.00542e-09
8.90563e-09
4.28394e-09
9.2859e-09
2.93626e-09
9.58358e-09
1.4835e-09
9.80038e-09
7.50138e-11
9.94061e-09
-1.19598e-09
1.00096e-08
-2.28812e-09
1.00129e-08
-3.18467e-09
9.95576e-09
-3.87814e-09
9.84329e-09
-4.36721e-09
9.68046e-09
-4.65564e-09
9.47238e-09
-4.75123e-09
9.22434e-09
-4.66521e-09
8.94171e-09
-4.41151e-09
8.62982e-09
-4.00559e-09
8.29401e-09
-3.463e-09
7.94006e-09
-2.7974e-09
7.5754e-09
-2.01849e-09
7.21105e-09
-1.13026e-09
6.86375e-09
-1.35655e-10
6.5565e-09
9.44309e-10
6.32115e-09
2.00644e-09
6.20972e-09
2.79452e-09
2.75663e-09
6.14375e-09
4.24552e-09
-5.91553e-10
4.30888e-09
-6.84292e-10
4.43665e-09
-6.95162e-10
4.61457e-09
-6.54343e-10
4.82309e-09
-5.78025e-10
5.05008e-09
-4.84593e-10
5.28883e-09
-3.82437e-10
5.53575e-09
-2.73484e-10
5.78906e-09
-1.56864e-10
6.04803e-09
-2.99967e-11
6.31254e-09
1.10979e-10
6.58283e-09
2.71295e-10
6.85958e-09
4.57696e-10
7.14398e-09
6.79312e-10
7.438e-09
9.47648e-10
7.74499e-09
1.27439e-09
8.06992e-09
1.6731e-09
8.41941e-09
2.15893e-09
8.80234e-09
2.73524e-09
9.22988e-09
3.38e-09
9.71257e-09
4.01527e-09
1.02549e-08
4.46307e-09
1.07605e-08
3.77839e-09
1.11816e-08
2.5151e-09
1.15135e-08
1.15161e-09
1.17577e-08
-1.69138e-10
1.19184e-08
-1.35667e-09
1.20011e-08
-2.37087e-09
1.2012e-08
-3.19556e-09
1.19571e-08
-3.82322e-09
1.18423e-08
-4.25241e-09
1.16737e-08
-4.48702e-09
1.14576e-08
-4.53516e-09
1.12008e-08
-4.40847e-09
1.09106e-08
-4.12128e-09
1.05945e-08
-3.68953e-09
1.02611e-08
-3.12954e-09
9.92041e-09
-2.45672e-09
9.58642e-09
-1.6845e-09
9.28033e-09
-8.24162e-10
9.03467e-09
1.10003e-10
8.89433e-09
1.08465e-09
8.90168e-09
1.99909e-09
9.05426e-09
2.64195e-09
2.65146e-09
9.15943e-09
6.70086e-09
-5.63093e-10
6.70046e-09
-6.83897e-10
6.74838e-09
-7.43083e-10
6.85049e-09
-7.56445e-10
6.99894e-09
-7.26482e-10
7.17996e-09
-6.65608e-10
7.38521e-09
-5.87691e-10
7.60859e-09
-4.96862e-10
7.84617e-09
-3.9444e-10
8.09564e-09
-2.79472e-10
8.3558e-09
-1.49184e-10
8.62622e-09
8.76311e-13
8.9072e-09
1.76719e-10
9.19975e-09
3.86759e-10
9.50579e-09
6.41613e-10
9.82887e-09
9.51315e-10
1.01743e-08
1.32764e-09
1.05491e-08
1.78417e-09
1.09625e-08
2.32185e-09
1.14262e-08
2.91622e-09
1.19515e-08
3.49003e-09
1.2543e-08
3.87152e-09
1.30963e-08
3.22508e-09
1.35595e-08
2.05193e-09
1.39269e-08
7.8424e-10
1.41997e-08
-4.41954e-10
1.43821e-08
-1.53911e-09
1.44799e-08
-2.4686e-09
1.44995e-08
-3.21521e-09
1.4448e-08
-3.77168e-09
1.43323e-08
-4.1367e-09
1.41597e-08
-4.3145e-09
1.39383e-08
-4.31373e-09
1.36765e-08
-4.14668e-09
1.33837e-08
-3.82843e-09
1.30701e-08
-3.37592e-09
1.27476e-08
-2.80703e-09
1.24307e-08
-2.13984e-09
1.21389e-08
-1.39274e-09
1.19001e-08
-5.8537e-10
1.17535e-08
2.56683e-10
1.17465e-08
1.09163e-09
1.19107e-08
1.83489e-09
1.22119e-08
2.34067e-09
2.4204e-09
1.2443e-08
9.98054e-09
-5.1636e-10
9.93753e-09
-6.40887e-10
9.92428e-09
-7.29836e-10
9.95212e-09
-7.84284e-10
1.00251e-08
-7.99508e-10
1.01403e-08
-7.80736e-10
1.02896e-08
-7.37065e-10
1.0467e-08
-6.74256e-10
1.06676e-08
-5.95e-10
1.08879e-08
-4.99763e-10
1.11257e-08
-3.87024e-10
1.138e-08
-2.53359e-10
1.16505e-08
-9.37746e-11
1.1938e-08
9.92234e-11
1.22444e-08
3.35239e-10
1.25734e-08
6.22333e-10
1.29307e-08
9.70331e-10
1.33235e-08
1.39137e-09
1.37615e-08
1.88386e-09
1.4257e-08
2.42073e-09
1.48214e-08
2.92561e-09
1.54597e-08
3.23317e-09
1.60595e-08
2.62534e-09
1.6564e-08
1.54734e-09
1.69668e-08
3.81518e-10
1.72684e-08
-7.43622e-10
1.7473e-08
-1.7437e-09
1.75863e-08
-2.58188e-09
1.76155e-08
-3.24438e-09
1.75684e-08
-3.72462e-09
1.74534e-08
-4.02167e-09
1.72793e-08
-4.14037e-09
1.70557e-08
-4.09015e-09
1.67932e-08
-3.8842e-09
1.65035e-08
-3.5387e-09
1.61996e-08
-3.072e-09
1.58965e-08
-2.50397e-09
1.56125e-08
-1.8558e-09
1.53703e-08
-1.15055e-09
1.51994e-08
-4.14483e-10
1.51361e-08
3.1998e-10
1.52175e-08
1.01018e-09
1.54586e-08
1.59384e-09
1.58138e-08
1.98543e-09
2.09924e-09
1.6135e-08
1.42836e-08
-4.6271e-10
1.42187e-08
-5.75949e-10
1.41638e-08
-6.74956e-10
1.41319e-08
-7.52361e-10
1.41337e-08
-8.01357e-10
1.41743e-08
-8.2135e-10
1.42521e-08
-8.14899e-10
1.43639e-08
-7.86013e-10
1.45059e-08
-7.37042e-10
1.46751e-08
-6.6894e-10
1.48691e-08
-5.81008e-10
1.50865e-08
-4.70739e-10
1.5327e-08
-3.34259e-10
1.55913e-08
-1.65081e-10
1.58812e-08
4.53457e-11
1.62008e-08
3.02733e-10
1.65563e-08
6.14792e-10
1.69552e-08
9.92517e-10
1.74074e-08
1.43162e-09
1.79258e-08
1.9023e-09
1.85221e-08
2.32936e-09
1.9201e-08
2.55425e-09
1.98426e-08
1.98378e-09
2.03853e-08
1.00462e-09
2.0821e-08
-5.41656e-11
2.11498e-08
-1.07245e-09
2.13754e-08
-1.96932e-09
2.15036e-08
-2.71009e-09
2.15423e-08
-3.28304e-09
2.15003e-08
-3.68263e-09
2.13874e-08
-3.90871e-09
2.1214e-08
-3.967e-09
2.09918e-08
-3.86795e-09
2.07334e-08
-3.62586e-09
2.0453e-08
-3.25822e-09
2.01659e-08
-2.78497e-09
1.98899e-08
-2.22798e-09
1.96452e-08
-1.61108e-09
1.94551e-08
-9.60483e-10
1.93462e-08
-3.05533e-10
1.93457e-08
3.20446e-10
1.94757e-08
8.80255e-10
1.97369e-08
1.33258e-09
2.0088e-08
1.63437e-09
1.75447e-09
2.04328e-08
1.98478e-08
-4.0713e-10
1.97753e-08
-5.03473e-10
1.96981e-08
-5.97698e-10
1.96274e-08
-6.81637e-10
1.95747e-08
-7.48675e-10
1.95484e-08
-7.95095e-10
1.95531e-08
-8.19602e-10
1.95901e-08
-8.22961e-10
1.9659e-08
-8.05918e-10
1.97588e-08
-7.68735e-10
1.98885e-08
-7.10712e-10
2.00475e-08
-6.29732e-10
2.02361e-08
-5.22878e-10
2.04555e-08
-3.84532e-10
2.07079e-08
-2.07037e-10
2.09981e-08
1.25376e-11
2.13332e-08
2.79697e-10
2.17208e-08
6.04883e-10
2.21716e-08
9.8088e-10
2.26988e-08
1.37506e-09
2.33142e-08
1.71392e-09
2.40223e-08
1.84621e-09
2.46966e-08
1.3095e-09
2.52703e-08
4.30844e-10
2.57333e-08
-5.17173e-10
2.60849e-08
-1.42397e-09
2.63281e-08
-2.21256e-09
2.64688e-08
-2.85082e-09
2.65155e-08
-3.32974e-09
2.64783e-08
-3.64538e-09
2.63682e-08
-3.79866e-09
2.61977e-08
-3.79652e-09
2.59804e-08
-3.65063e-09
2.57311e-08
-3.37651e-09
2.54658e-08
-2.99293e-09
2.52021e-08
-2.52125e-09
2.49589e-08
-1.98485e-09
2.47568e-08
-1.40894e-09
2.46169e-08
-8.20583e-10
2.45598e-08
-2.48406e-10
2.46021e-08
2.78092e-10
2.47519e-08
7.30441e-10
2.50008e-08
1.08374e-09
2.53153e-08
1.3198e-09
1.43244e-09
2.56374e-08
2.69568e-08
-3.49533e-10
2.68823e-08
-4.29069e-10
2.67963e-08
-5.11628e-10
2.67059e-08
-5.91226e-10
2.66197e-08
-6.62462e-10
2.65457e-08
-7.21146e-10
2.64907e-08
-7.6457e-10
2.64592e-08
-7.91442e-10
2.64542e-08
-8.00954e-10
2.64778e-08
-7.92329e-10
2.65314e-08
-7.64337e-10
2.66164e-08
-7.14706e-10
2.67347e-08
-6.41242e-10
2.68891e-08
-5.38877e-10
2.70825e-08
-4.00438e-10
2.73214e-08
-2.26321e-10
2.76143e-08
-1.3208e-11
2.79693e-08
2.49845e-10
2.83979e-08
5.52291e-10
2.89144e-08
8.58581e-10
2.95304e-08
1.09784e-09
3.02499e-08
1.12676e-09
3.0942e-08
6.17357e-10
3.15348e-08
-1.61929e-10
3.20152e-08
-9.97605e-10
3.23814e-08
-1.79009e-09
3.26357e-08
-2.4669e-09
3.2784e-08
-2.99909e-09
3.28354e-08
-3.38115e-09
3.28012e-08
-3.61114e-09
3.26939e-08
-3.69142e-09
3.25279e-08
-3.63046e-09
3.23185e-08
-3.44126e-09
3.20824e-08
-3.14046e-09
3.18374e-08
-2.74788e-09
3.16019e-08
-2.28571e-09
3.13948e-08
-1.77782e-09
3.12351e-08
-1.24917e-09
3.11397e-08
-7.25271e-10
3.11225e-08
-2.31182e-10
3.11908e-08
2.09848e-10
3.13429e-08
5.78316e-10
3.15658e-08
8.60801e-10
3.18338e-08
1.05179e-09
1.15484e-09
3.21114e-08
3.59415e-08
-2.86973e-10
3.58645e-08
-3.52069e-10
3.57747e-08
-4.21752e-10
3.56756e-08
-4.92182e-10
3.55725e-08
-5.59375e-10
3.54712e-08
-6.19792e-10
3.53773e-08
-6.70667e-10
3.52959e-08
-7.10092e-10
3.52316e-08
-7.3658e-10
3.51881e-08
-7.48863e-10
3.51692e-08
-7.45423e-10
3.51782e-08
-7.23773e-10
3.52196e-08
-6.82575e-10
3.52978e-08
-6.17098e-10
3.54175e-08
-5.20181e-10
3.55877e-08
-3.96441e-10
3.58188e-08
-2.44387e-10
3.61201e-08
-5.14138e-11
3.65042e-08
1.68195e-10
3.6987e-08
3.75743e-10
3.75805e-08
5.04379e-10
3.82877e-08
4.19538e-10
3.89768e-08
-7.17794e-11
3.95711e-08
-7.56162e-10
4.00542e-08
-1.48068e-09
4.04225e-08
-2.15844e-09
4.06778e-08
-2.72217e-09
4.08257e-08
-3.14698e-09
4.08761e-08
-3.43163e-09
4.08415e-08
-3.5765e-09
4.07357e-08
-3.58565e-09
4.05746e-08
-3.46937e-09
4.03754e-08
-3.242e-09
4.01559e-08
-2.92097e-09
3.99346e-08
-2.52657e-09
3.97298e-08
-2.08098e-09
3.95593e-08
-1.60724e-09
3.94385e-08
-1.12843e-09
3.93799e-08
-6.66674e-10
3.93908e-08
-2.42013e-10
3.94718e-08
1.28839e-10
3.96163e-08
4.33764e-10
3.98104e-08
6.66742e-10
4.00341e-08
8.28081e-10
9.24101e-10
4.02648e-08
4.71742e-08
-2.16479e-10
4.70919e-08
-2.69711e-10
4.69977e-08
-3.27648e-10
4.68935e-08
-3.87956e-10
4.6782e-08
-4.47853e-10
4.66668e-08
-5.04604e-10
4.6552e-08
-5.5581e-10
4.64415e-08
-5.99613e-10
4.63393e-08
-6.34443e-10
4.62496e-08
-6.59098e-10
4.61764e-08
-6.72295e-10
4.61243e-08
-6.71634e-10
4.60989e-08
-6.57191e-10
4.61065e-08
-6.24711e-10
4.61532e-08
-5.66806e-10
4.62503e-08
-4.93623e-10
4.64112e-08
-4.05202e-10
4.66453e-08
-2.85543e-10
4.69678e-08
-1.54303e-10
4.73967e-08
-5.31413e-11
4.79441e-08
-4.30055e-11
4.86127e-08
-2.49112e-10
4.92738e-08
-7.32894e-10
4.98474e-08
-1.32977e-09
5.0314e-08
-1.9473e-09
5.06683e-08
-2.51272e-09
5.09109e-08
-2.96473e-09
5.10475e-08
-3.28364e-09
5.10892e-08
-3.47333e-09
5.10491e-08
-3.53638e-09
5.09422e-08
-3.47871e-09
5.07855e-08
-3.3127e-09
5.05973e-08
-3.05383e-09
5.03962e-08
-2.7198e-09
5.02001e-08
-2.33055e-09
5.00263e-08
-1.90718e-09
4.98898e-08
-1.47072e-09
4.98024e-08
-1.04105e-09
4.97718e-08
-6.36019e-10
4.98002e-08
-2.70454e-10
4.98845e-08
4.45957e-11
5.00162e-08
3.01998e-10
5.01826e-08
5.00416e-10
5.03682e-08
6.42397e-10
7.34281e-10
5.05581e-08
6.10558e-08
-1.37138e-10
6.09668e-08
-1.80677e-10
6.08677e-08
-2.28544e-10
6.07591e-08
-2.79396e-10
6.06427e-08
-3.3141e-10
6.05207e-08
-3.82596e-10
6.03959e-08
-4.31023e-10
6.02714e-08
-4.75098e-10
6.01503e-08
-5.13358e-10
6.0036e-08
-5.44828e-10
5.99324e-08
-5.6866e-10
5.98435e-08
-5.82742e-10
5.97751e-08
-5.88775e-10
5.97337e-08
-5.83293e-10
5.97261e-08
-5.59254e-10
5.97652e-08
-5.32703e-10
5.98645e-08
-5.04492e-10
6.00344e-08
-4.55435e-10
6.02925e-08
-4.12407e-10
6.06586e-08
-4.19225e-10
6.11445e-08
-5.28911e-10
6.17527e-08
-8.57371e-10
6.23619e-08
-1.34205e-09
6.28919e-08
-1.8598e-09
6.33214e-08
-2.37682e-09
6.36436e-08
-2.8349e-09
6.38579e-08
-3.17905e-09
6.3971e-08
-3.39668e-09
6.39949e-08
-3.49727e-09
6.39434e-08
-3.48487e-09
6.3832e-08
-3.36727e-09
6.36784e-08
-3.15917e-09
6.35014e-08
-2.87679e-09
6.33189e-08
-2.5373e-09
6.31478e-08
-2.15943e-09
6.30029e-08
-1.76225e-09
6.28959e-08
-1.3638e-09
6.28351e-08
-9.80191e-10
6.2824e-08
-6.24911e-10
6.28618e-08
-3.08264e-10
6.29428e-08
-3.6428e-11
6.30595e-08
1.85322e-10
6.32004e-08
3.5944e-10
6.33543e-08
4.88581e-10
5.78311e-10
6.35102e-08
7.80138e-08
-5.08593e-11
7.79197e-08
-8.66157e-11
7.78173e-08
-1.26171e-10
7.77068e-08
-1.68858e-10
7.7589e-08
-2.13585e-10
7.74654e-08
-2.59037e-10
7.73382e-08
-3.03815e-10
7.72098e-08
-3.4671e-10
7.7083e-08
-3.86524e-10
7.69607e-08
-4.22565e-10
7.68464e-08
-4.54287e-10
7.67439e-08
-4.80331e-10
7.66582e-08
-5.0307e-10
7.65948e-08
-5.19799e-10
7.65633e-08
-5.27766e-10
7.65737e-08
-5.43127e-10
7.66336e-08
-5.6437e-10
7.67592e-08
-5.81067e-10
7.69697e-08
-6.2293e-10
7.72825e-08
-7.32014e-10
7.77077e-08
-9.54129e-10
7.82471e-08
-1.39674e-09
7.87892e-08
-1.88413e-09
7.92582e-08
-2.32887e-09
7.96338e-08
-2.75236e-09
7.99083e-08
-3.10942e-09
8.00805e-08
-3.35127e-09
8.0159e-08
-3.47516e-09
8.01577e-08
-3.49598e-09
8.00899e-08
-3.4171e-09
7.99713e-08
-3.24867e-09
7.982e-08
-3.00785e-09
7.96539e-08
-2.7107e-09
7.94897e-08
-2.37304e-09
7.93419e-08
-2.01163e-09
7.92224e-08
-1.64283e-09
7.91399e-08
-1.28127e-09
7.90989e-08
-9.39204e-10
7.91003e-08
-6.26266e-10
7.91412e-08
-3.49198e-10
7.92163e-08
-1.1152e-10
7.93173e-08
8.43192e-11
7.94358e-08
2.40972e-10
7.95629e-08
3.61428e-10
4.50197e-10
7.9691e-08
9.85252e-08
3.86655e-11
9.84298e-08
8.75709e-12
9.8328e-08
-2.43403e-11
9.82197e-08
-6.05771e-11
9.81054e-08
-9.93285e-11
9.79862e-08
-1.39861e-10
9.78638e-08
-1.81344e-10
9.77401e-08
-2.23024e-10
9.76177e-08
-2.64104e-10
9.74995e-08
-3.0439e-10
9.73885e-08
-3.43328e-10
9.72895e-08
-3.81253e-10
9.72062e-08
-4.19798e-10
9.71429e-08
-4.56509e-10
9.71151e-08
-4.99932e-10
9.71229e-08
-5.50994e-10
9.71685e-08
-6.09903e-10
9.72769e-08
-6.89466e-10
9.74684e-08
-8.14496e-10
9.7751e-08
-1.01464e-09
9.81316e-08
-1.33467e-09
9.86095e-08
-1.87466e-09
9.90828e-08
-2.35739e-09
9.94845e-08
-2.73056e-09
9.97983e-08
-3.06617e-09
1.00017e-07
-3.32798e-09
1.00139e-07
-3.4734e-09
1.00178e-07
-3.51374e-09
1.00148e-07
-3.4668e-09
1.00063e-07
-3.33152e-09
9.99369e-08
-3.12276e-09
9.97887e-08
-2.85962e-09
9.96343e-08
-2.55639e-09
9.94882e-08
-2.2269e-09
9.93621e-08
-1.88557e-09
9.9265e-08
-1.54574e-09
9.92024e-08
-1.21859e-09
9.91761e-08
-9.12974e-10
9.91853e-08
-6.35423e-10
9.92262e-08
-3.9013e-10
9.92937e-08
-1.79028e-10
9.93803e-08
-2.26085e-12
9.94797e-08
1.41573e-10
9.9585e-08
2.56112e-10
3.44724e-10
9.96905e-08