/*--------------------------------*- C++ -*----------------------------------*\
| =========                 |                                                 |
| \\      /  F ield         | OpenFOAM: The Open Source CFD Toolbox           |
|  \\    /   O peration     | Version:  2312                                  |
|   \\  /    A nd           | Website:  www.openfoam.com                      |
|    \\/     M anipulation  |                                                 |
\*---------------------------------------------------------------------------*/
FoamFile
{
    version     2.0;
    format      ascii;
    arch        "LSB;label=32;scalar=64";
    class       surfaceScalarField;
    location    "63";
    object      phi;
}
// * * * * * * * * * * * * * * * * * * * * * * * * * * * * * * * * * * * * * //

dimensions      [0 3 -1 0 0 0 0];

oriented        oriented;

internalField   nonuniform List<scalar> 
9445
(
5.67995e-10
1.40906e-11
5.59682e-10
8.31338e-12
5.54999e-10
4.68219e-12
5.52785e-10
2.21433e-12
5.5234e-10
4.45485e-13
5.53195e-10
-8.55571e-13
5.54988e-10
-1.79291e-12
5.57802e-10
-2.8141e-12
5.61749e-10
-3.94732e-12
5.67145e-10
-5.39531e-12
5.75049e-10
-7.90406e-12
5.88943e-10
-1.3894e-11
6.2098e-10
-3.20371e-11
7.1331e-10
-9.23297e-11
-2.3619e-10
9.49499e-10
1.98627e-09
6.11384e-11
1.95852e-09
3.60615e-11
1.94288e-09
2.03263e-11
1.93543e-09
9.66995e-12
1.93378e-09
2.0953e-12
1.93619e-09
-3.26551e-12
1.9417e-09
-7.3114e-12
1.95043e-09
-1.15427e-11
1.9626e-09
-1.61174e-11
1.97919e-09
-2.19787e-11
2.00288e-09
-3.15962e-11
2.04031e-09
-5.13267e-11
2.10425e-09
-9.59744e-11
2.20636e-09
-1.94446e-10
-3.42063e-10
2.31224e-09
3.92614e-09
1.5015e-10
3.87363e-09
8.85672e-11
3.84397e-09
4.99876e-11
3.82967e-09
2.39685e-11
3.82615e-09
5.61746e-12
3.82997e-09
-7.08925e-12
3.8395e-09
-1.68383e-11
3.85468e-09
-2.67236e-11
3.87555e-09
-3.69908e-11
3.90331e-09
-4.97336e-11
3.9406e-09
-6.88929e-11
3.99187e-09
-1.02595e-10
4.05965e-09
-1.63756e-10
4.13067e-09
-2.65467e-10
-3.82384e-10
4.171e-09
6.53259e-09
2.91188e-10
6.44921e-09
1.71949e-10
6.40187e-09
9.73263e-11
6.37859e-09
4.72515e-11
6.37203e-09
1.21825e-11
6.37673e-09
-1.1797e-11
6.38999e-09
-3.00991e-11
6.41137e-09
-4.81026e-11
6.44025e-09
-6.58655e-11
6.47722e-09
-8.67018e-11
6.52328e-09
-1.14957e-10
6.57814e-09
-1.57458e-10
6.63565e-09
-2.21263e-10
6.67703e-09
-3.06847e-10
-3.87958e-10
6.6826e-09
9.98159e-09
4.94491e-10
9.8608e-09
2.92738e-10
9.79166e-09
1.66464e-10
9.75672e-09
8.21922e-11
9.74533e-09
2.35686e-11
9.74981e-09
-1.62724e-11
9.76596e-09
-4.62489e-11
9.79233e-09
-7.44701e-11
9.82729e-09
-1.00828e-10
9.87011e-09
-1.2952e-10
9.91941e-09
-1.64263e-10
9.97094e-09
-2.08981e-10
1.00149e-08
-2.65223e-10
1.00358e-08
-3.27746e-10
-3.7779e-10
1.00256e-08
1.44816e-08
7.68359e-10
1.43175e-08
4.56786e-10
1.42226e-08
2.61416e-10
1.41731e-08
1.31689e-10
1.41546e-08
4.20433e-11
1.41571e-08
-1.87492e-11
1.41747e-08
-6.39031e-11
1.4204e-08
-1.03727e-10
1.42422e-08
-1.39023e-10
1.42869e-08
-1.74219e-10
1.43346e-08
-2.11972e-10
1.43792e-08
-2.53544e-10
1.44113e-08
-2.97399e-10
1.44214e-08
-3.37856e-10
-3.64543e-10
1.44082e-08
2.02718e-08
1.115e-09
2.00616e-08
6.66942e-10
1.99383e-08
3.84739e-10
1.9872e-08
1.97985e-10
1.98442e-08
6.98461e-11
1.98428e-08
-1.73193e-11
1.98599e-08
-8.10334e-11
1.98895e-08
-1.33307e-10
1.99277e-08
-1.77274e-10
1.99706e-08
-2.17083e-10
2.00133e-08
-2.54679e-10
2.00498e-08
-2.90014e-10
2.00734e-08
-3.21026e-10
2.00796e-08
-3.4403e-10
-3.54663e-10
2.00697e-08
2.76156e-08
1.52386e-09
2.73636e-08
9.18965e-10
2.72134e-08
5.34963e-10
2.71304e-08
2.80977e-10
2.70926e-08
1.07692e-10
2.70858e-08
-1.05992e-11
2.71003e-08
-9.54905e-11
2.7128e-08
-1.60987e-10
2.71636e-08
-2.12872e-10
2.7202e-08
-2.55484e-10
2.72381e-08
-2.90828e-10
2.72672e-08
-3.19048e-10
2.72853e-08
-3.39162e-10
2.72911e-08
-3.49887e-10
-3.50343e-10
2.72868e-08
3.67906e-08
1.96361e-09
3.65135e-08
1.19604e-09
3.63457e-08
7.02816e-10
3.62511e-08
3.75549e-10
3.62059e-08
1.52914e-10
3.61946e-08
6.3054e-13
3.62059e-08
-1.0678e-10
3.62306e-08
-1.85712e-10
3.62623e-08
-2.44561e-10
3.62955e-08
-2.88654e-10
3.63256e-08
-3.20921e-10
3.63493e-08
-3.42714e-10
3.63648e-08
-3.54674e-10
3.63723e-08
-3.5745e-10
-3.5197e-10
3.6374e-08
4.8083e-08
2.37898e-09
4.78142e-08
1.46486e-09
4.76492e-08
8.6781e-10
4.75559e-08
4.68834e-10
4.75115e-08
1.97319e-10
4.75007e-08
1.14741e-11
4.75116e-08
-1.17709e-10
4.7535e-08
-2.09091e-10
4.75641e-08
-2.73663e-10
4.75938e-08
-3.1838e-10
4.76206e-08
-3.47671e-10
4.76423e-08
-3.64452e-10
4.76585e-08
-3.70868e-10
4.76699e-08
-3.68855e-10
-3.60227e-10
4.76782e-08
6.18101e-08
2.70376e-09
6.15943e-08
1.68067e-09
6.14623e-08
9.99828e-10
6.13907e-08
5.40407e-10
6.13612e-08
2.26843e-10
6.13604e-08
1.22132e-11
6.13779e-08
-1.35181e-10
6.14052e-08
-2.36353e-10
6.14363e-08
-3.04801e-10
6.14673e-08
-3.49344e-10
6.14956e-08
-3.76018e-10
6.15203e-08
-3.89154e-10
6.15414e-08
-3.92006e-10
6.15599e-08
-3.87267e-10
-3.77149e-10
6.15768e-08
7.83912e-08
2.8962e-09
7.82636e-08
1.80825e-09
7.81916e-08
1.07183e-09
7.81618e-08
5.70165e-10
7.8162e-08
2.26643e-10
7.81826e-08
-8.42031e-12
7.82154e-08
-1.67942e-10
7.82539e-08
-2.74838e-10
7.82938e-08
-3.44696e-10
7.83325e-08
-3.88038e-10
7.83687e-08
-4.12219e-10
7.84021e-08
-4.22583e-10
7.84332e-08
-4.23076e-10
7.84627e-08
-4.16769e-10
-4.06016e-10
7.84916e-08
9.84453e-08
2.97199e-09
9.8404e-08
1.84951e-09
9.8395e-08
1.08089e-09
9.84112e-08
5.53898e-10
9.84453e-08
1.92618e-10
9.84912e-08
-5.43855e-11
9.85432e-08
-2.19917e-10
9.8597e-08
-3.28626e-10
9.865e-08
-3.97741e-10
9.87011e-08
-4.3907e-10
9.87497e-08
-4.6086e-10
9.87962e-08
-4.69048e-10
9.8841e-08
-4.67942e-10
9.8885e-08
-4.60753e-10
-4.49843e-10
9.89289e-08
1.22789e-07
2.98759e-09
1.22795e-07
1.84356e-09
1.22821e-07
1.05474e-09
1.22863e-07
5.11894e-10
1.22916e-07
1.39838e-10
1.22976e-07
-1.14842e-10
1.2304e-07
-2.83299e-10
1.23103e-07
-3.92381e-10
1.23166e-07
-4.60521e-10
1.23228e-07
-5.00386e-10
1.23287e-07
-5.20761e-10
1.23346e-07
-5.27899e-10
1.23405e-07
-5.26274e-10
1.23463e-07
-5.1912e-10
-5.08758e-10
1.23522e-07
1.52222e-07
2.98013e-09
1.52239e-07
1.82654e-09
1.52268e-07
1.02557e-09
1.52308e-07
4.72209e-10
1.52355e-07
9.2299e-11
1.52411e-07
-1.70388e-10
1.5247e-07
-3.42109e-10
1.5253e-07
-4.53145e-10
1.52592e-07
-5.22481e-10
1.52655e-07
-5.63268e-10
1.52719e-07
-5.84609e-10
1.52784e-07
-5.92916e-10
1.52851e-07
-5.92728e-10
1.52919e-07
-5.87275e-10
-5.78826e-10
1.52989e-07
1.87227e-07
2.93907e-09
1.87254e-07
1.79919e-09
1.87279e-07
1.00067e-09
1.87306e-07
4.44866e-10
1.87339e-07
5.97359e-11
1.87378e-07
-2.09821e-10
1.87423e-07
-3.86222e-10
1.87471e-07
-5.01518e-10
1.87523e-07
-5.74972e-10
1.8758e-07
-6.19784e-10
1.8764e-07
-6.45105e-10
1.87705e-07
-6.57379e-10
1.87773e-07
-6.61151e-10
1.87846e-07
-6.59619e-10
-6.54976e-10
1.87922e-07
2.27821e-07
2.83561e-09
2.2788e-07
1.7406e-09
2.27915e-07
9.65538e-10
2.27941e-07
4.18954e-10
2.27963e-07
3.76993e-11
2.27991e-07
-2.37452e-10
2.28022e-07
-4.17645e-10
2.28059e-07
-5.38197e-10
2.28102e-07
-6.17691e-10
2.28151e-07
-6.68881e-10
2.28206e-07
-7.0065e-10
2.28268e-07
-7.19307e-10
2.28336e-07
-7.2932e-10
2.2841e-07
-7.33827e-10
-7.3497e-10
2.2849e-07
2.73485e-07
2.65552e-09
2.73589e-07
1.6368e-09
2.73649e-07
9.06109e-10
2.73681e-07
3.86196e-10
2.73708e-07
1.13761e-11
2.7373e-07
-2.597e-10
2.73755e-07
-4.425e-10
2.73785e-07
-5.68711e-10
2.73823e-07
-6.55577e-10
2.73869e-07
-7.14901e-10
2.73924e-07
-7.55069e-10
2.73986e-07
-7.82112e-10
2.74057e-07
-8.0031e-10
2.74136e-07
-8.12669e-10
-8.21261e-10
2.74223e-07
3.22844e-07
2.399e-09
3.22995e-07
1.48538e-09
3.23082e-07
8.19966e-10
3.2313e-07
3.38115e-10
3.23162e-07
-2.12139e-11
3.23188e-07
-2.85537e-10
3.23215e-07
-4.69736e-10
3.23248e-07
-6.01311e-10
3.23288e-07
-6.9587e-10
3.23337e-07
-7.64079e-10
3.23396e-07
-8.13652e-10
3.23464e-07
-8.5022e-10
3.23542e-07
-8.77789e-10
3.23628e-07
-8.99178e-10
-9.15922e-10
3.23723e-07
3.72959e-07
2.05816e-09
3.73167e-07
1.27699e-09
3.73289e-07
6.977e-10
3.73362e-07
2.65269e-10
3.73405e-07
-6.45085e-11
3.73426e-07
-3.0591e-10
3.73439e-07
-4.8269e-10
3.73452e-07
-6.14154e-10
3.73469e-07
-7.13098e-10
3.73493e-07
-7.8858e-10
3.73527e-07
-8.47166e-10
3.7357e-07
-8.93622e-10
3.73624e-07
-9.31312e-10
3.73687e-07
-9.62658e-10
-9.89434e-10
3.73761e-07
3.71085e-07
1.68654e-09
3.71327e-07
1.0349e-09
3.71484e-07
5.41183e-10
3.71577e-07
1.72554e-10
3.71635e-07
-1.23039e-10
3.71669e-07
-3.4013e-10
3.71693e-07
-5.06334e-10
3.71714e-07
-6.35306e-10
3.71737e-07
-7.36267e-10
3.71765e-07
-8.1666e-10
3.718e-07
-8.82e-10
3.71843e-07
-9.36212e-10
3.71894e-07
-9.82056e-10
3.71953e-07
-1.02156e-09
-1.05598e-09
3.72019e-07
3.18727e-07
1.37698e-09
3.18915e-07
8.46789e-10
3.19021e-07
4.35038e-10
3.19081e-07
1.12872e-10
3.19099e-07
-1.41185e-10
3.19099e-07
-3.40507e-10
3.1909e-07
-4.97212e-10
3.19077e-07
-6.22435e-10
3.19065e-07
-7.24162e-10
3.19057e-07
-8.08195e-10
3.19053e-07
-8.78761e-10
3.19056e-07
-9.38972e-10
3.19065e-07
-9.91087e-10
3.1908e-07
-1.03679e-09
-1.07726e-09
3.19102e-07
2.67444e-07
1.08146e-09
2.6764e-07
6.50293e-10
2.67767e-07
3.08205e-10
2.6784e-07
3.9774e-11
2.67879e-07
-1.79763e-10
2.67893e-07
-3.54536e-10
2.67893e-07
-4.9693e-10
2.67884e-07
-6.14033e-10
2.67872e-07
-7.11773e-10
2.67858e-07
-7.94604e-10
2.67845e-07
-8.65761e-10
2.67834e-07
-9.27648e-10
2.67825e-07
-9.82026e-10
2.67818e-07
-1.03022e-09
-1.07317e-09
2.67814e-07
2.2091e-07
8.21617e-10
2.21085e-07
4.75441e-10
2.21196e-07
1.96698e-10
2.21264e-07
-2.81792e-11
2.21297e-07
-2.12843e-10
2.21308e-07
-3.65173e-10
2.21303e-07
-4.92134e-10
2.21288e-07
-5.99007e-10
2.21266e-07
-6.90064e-10
2.2124e-07
-7.68654e-10
2.21212e-07
-8.37246e-10
2.21182e-07
-8.97659e-10
2.21151e-07
-9.51208e-10
2.2112e-07
-9.98885e-10
-1.0414e-09
2.21088e-07
1.80134e-07
6.04769e-10
1.80279e-07
3.3051e-10
1.8037e-07
1.05579e-10
1.80421e-07
-7.91803e-11
1.80442e-07
-2.3392e-10
1.80441e-07
-3.64234e-10
1.80424e-07
-4.74989e-10
1.80395e-07
-5.70006e-10
1.80357e-07
-6.52335e-10
1.80313e-07
-7.24396e-10
1.80264e-07
-7.87988e-10
1.8021e-07
-8.44436e-10
1.80154e-07
-8.94689e-10
1.80095e-07
-9.39469e-10
-9.7929e-10
1.80032e-07
1.45242e-07
4.34303e-10
1.45353e-07
2.19281e-10
1.45418e-07
4.03866e-11
1.45448e-07
-1.09326e-10
1.45451e-07
-2.37055e-10
1.45434e-07
-3.46479e-10
1.454e-07
-4.41095e-10
1.45353e-07
-5.23569e-10
1.45297e-07
-5.96012e-10
1.45233e-07
-6.60098e-10
1.45162e-07
-7.17089e-10
1.45085e-07
-7.67919e-10
1.45004e-07
-8.13256e-10
1.44918e-07
-8.53608e-10
-8.8933e-10
1.44828e-07
1.15893e-07
3.0793e-10
1.1597e-07
1.41737e-10
1.16009e-07
1.4315e-12
1.16018e-07
-1.18405e-10
1.16003e-07
-2.22163e-10
1.15969e-07
-3.12555e-10
1.1592e-07
-3.91887e-10
1.15859e-07
-4.61955e-10
1.15787e-07
-5.24182e-10
1.15706e-07
-5.79696e-10
1.15619e-07
-6.29354e-10
1.15525e-07
-6.73794e-10
1.15425e-07
-7.13467e-10
1.1532e-07
-7.48719e-10
-7.79785e-10
1.1521e-07
9.15425e-08
2.18934e-10
9.15922e-08
9.19946e-11
9.16102e-08
-1.65687e-11
9.1603e-08
-1.11157e-10
9.15751e-08
-1.94265e-10
9.15303e-08
-2.6776e-10
9.14715e-08
-3.33103e-10
9.1401e-08
-3.91464e-10
9.13206e-08
-4.43779e-10
9.12317e-08
-4.90784e-10
9.11354e-08
-5.33041e-10
9.10325e-08
-5.70968e-10
9.09239e-08
-6.04859e-10
9.08102e-08
-6.34941e-10
-6.61361e-10
9.06917e-08
7.15808e-08
1.57588e-10
7.16107e-08
6.21108e-11
7.1615e-08
-2.08708e-11
7.15982e-08
-9.43875e-11
7.15639e-08
-1.59969e-10
7.15149e-08
-2.18725e-10
7.14534e-08
-2.71561e-10
7.13811e-08
-3.19215e-10
7.12996e-08
-3.62281e-10
7.12101e-08
-4.01222e-10
7.11134e-08
-4.36391e-10
7.10105e-08
-4.6805e-10
7.0902e-08
-4.96383e-10
7.07886e-08
-5.2153e-10
-5.43579e-10
7.06708e-08
5.53901e-08
1.15197e-10
5.54078e-08
4.44842e-11
5.54048e-08
-1.78562e-11
5.53844e-08
-7.40546e-11
5.53493e-08
-1.24882e-10
5.53016e-08
-1.70949e-10
5.52428e-08
-2.12792e-10
5.51744e-08
-2.50858e-10
5.50977e-08
-2.85508e-10
5.50135e-08
-3.1702e-10
5.49227e-08
-3.45607e-10
5.4826e-08
-3.71424e-10
5.47242e-08
-3.94577e-10
5.46179e-08
-4.15151e-10
-4.33189e-10
5.45075e-08
4.23813e-08
8.50817e-11
4.2392e-08
3.38296e-11
4.23862e-08
-1.2129e-11
4.23664e-08
-5.41791e-11
4.23342e-08
-9.27139e-11
4.22912e-08
-1.27989e-10
4.22387e-08
-1.60313e-10
4.21778e-08
-1.89946e-10
4.21094e-08
-2.17095e-10
4.20343e-08
-2.41918e-10
4.19532e-08
-2.64536e-10
4.18669e-08
-2.85034e-10
4.17757e-08
-3.03468e-10
4.16805e-08
-3.19882e-10
-3.34291e-10
4.15816e-08
3.20164e-08
6.28972e-11
3.20236e-08
2.66774e-11
3.20178e-08
-6.35636e-12
3.20006e-08
-3.69948e-11
3.19733e-08
-6.54165e-11
3.1937e-08
-9.16489e-11
3.18925e-08
-1.15876e-10
3.18408e-08
-1.3824e-10
3.17826e-08
-1.58851e-10
3.17185e-08
-1.77794e-10
3.16491e-08
-1.95129e-10
3.15749e-08
-2.10897e-10
3.14966e-08
-2.25123e-10
3.14145e-08
-2.37825e-10
-2.49003e-10
3.13292e-08
2.38224e-08
4.59329e-11
2.3828e-08
2.11184e-11
2.38235e-08
-1.85092e-12
2.38099e-08
-2.34206e-11
2.37882e-08
-4.36715e-11
2.3759e-08
-6.24787e-11
2.37231e-08
-7.99724e-11
2.36811e-08
-9.62224e-11
2.36335e-08
-1.11284e-10
2.35809e-08
-1.25193e-10
2.35238e-08
-1.37978e-10
2.34625e-08
-1.49652e-10
2.33976e-08
-1.60222e-10
2.33295e-08
-1.69689e-10
-1.78046e-10
2.32585e-08
1.73944e-08
3.2597e-11
1.73992e-08
1.62623e-11
1.73964e-08
9.6645e-13
1.73865e-08
-1.35355e-11
1.73702e-08
-2.7345e-11
1.73479e-08
-4.02132e-11
1.73202e-08
-5.22628e-11
1.72875e-08
-6.35225e-11
1.72503e-08
-7.40148e-11
1.72088e-08
-8.37509e-11
1.71636e-08
-9.27381e-11
1.71149e-08
-1.00976e-10
1.70631e-08
-1.08464e-10
1.70086e-08
-1.15193e-10
-1.21153e-10
1.69517e-08
1.23919e-08
2.20144e-11
1.23963e-08
1.18261e-11
1.23951e-08
2.2101e-12
1.23885e-08
-6.93714e-12
1.2377e-08
-1.5821e-11
1.23609e-08
-2.40978e-11
1.23405e-08
-3.18979e-11
1.23162e-08
-3.92285e-11
1.22883e-08
-4.60951e-11
1.2257e-08
-5.24963e-11
1.22227e-08
-5.84301e-11
1.21856e-08
-6.38904e-11
1.2146e-08
-6.88726e-11
1.21042e-08
-7.33667e-11
-7.7359e-11
1.20604e-08
8.53275e-09
1.3732e-11
8.53672e-09
7.85853e-12
8.53666e-09
2.27446e-12
8.53272e-09
-3.00016e-12
8.52513e-09
-8.23284e-12
8.51416e-09
-1.3124e-11
8.50001e-09
-1.77532e-11
8.48291e-09
-2.21272e-11
8.46306e-09
-2.62454e-11
8.44067e-09
-3.01022e-11
8.41593e-09
-3.36921e-11
8.38905e-09
-3.70082e-11
8.36022e-09
-4.0046e-11
8.32965e-09
-4.2796e-11
-4.52439e-11
8.29753e-09
5.5849e-09
7.51953e-12
5.58824e-09
4.52114e-12
5.58884e-09
1.67114e-12
5.58683e-09
-9.85649e-13
5.58227e-09
-3.67176e-12
5.57535e-09
-6.20505e-12
5.5662e-09
-8.60881e-12
5.55497e-09
-1.08911e-11
5.54177e-09
-1.30513e-11
5.52676e-09
-1.50838e-11
5.51005e-09
-1.69834e-11
5.49178e-09
-1.87445e-11
5.4721e-09
-2.03641e-11
5.45114e-09
-2.18349e-11
-2.31436e-11
5.42904e-09
3.35893e-09
3.24154e-12
3.36144e-09
2.0079e-12
3.36224e-09
8.66087e-13
3.36144e-09
-1.84298e-13
3.35904e-09
-1.26748e-12
3.35513e-09
-2.2987e-12
3.3498e-09
-3.28168e-12
3.34313e-09
-4.21878e-12
3.33519e-09
-5.11132e-12
3.32606e-09
-5.95487e-12
3.31583e-09
-6.7462e-12
3.30456e-09
-7.48212e-12
3.29236e-09
-8.1612e-12
3.2793e-09
-8.77882e-12
-9.32452e-12
3.26549e-09
1.70112e-09
7.79905e-13
1.70265e-09
4.75925e-13
1.7033e-09
2.21882e-13
1.70312e-09
-5.60946e-15
1.7021e-09
-2.49683e-13
1.70029e-09
-4.85012e-13
1.69771e-09
-7.10742e-13
1.69442e-09
-9.27012e-13
1.69045e-09
-1.13551e-12
1.68582e-09
-1.33236e-12
1.6806e-09
-1.51753e-12
1.6748e-09
-1.68992e-12
1.66849e-09
-1.8493e-12
1.66171e-09
-1.99327e-12
-2.11636e-12
1.6545e-09
4.8747e-10
4.87945e-10
4.88167e-10
4.88162e-10
4.87912e-10
4.87427e-10
4.86716e-10
4.85789e-10
4.84654e-10
4.83321e-10
4.81804e-10
4.80114e-10
4.78265e-10
4.76271e-10
4.74155e-10
1.13766e-09
-4.32185e-10
2.4402e-10
1.4094e-09
-3.29198e-10
5.74647e-11
1.68539e-09
-1.56549e-10
-1.19445e-10
1.95979e-09
2.59106e-11
-3.0031e-10
2.23084e-09
2.14101e-10
-4.85152e-10
2.49952e-09
4.00997e-10
-6.69675e-10
2.76735e-09
5.84757e-10
-8.52585e-10
3.0355e-09
7.63446e-10
-1.0316e-09
3.30488e-09
9.34447e-10
-1.20382e-09
3.57613e-09
1.09459e-09
-1.36584e-09
3.84979e-09
1.23995e-09
-1.51361e-09
4.12639e-09
1.36568e-09
-1.64228e-09
4.40651e-09
1.46583e-09
-1.74595e-09
4.69081e-09
1.53296e-09
-1.81726e-09
4.98005e-09
1.55799e-09
-1.84722e-09
5.27517e-09
1.53062e-09
-1.82574e-09
5.5775e-09
1.44026e-09
-1.74258e-09
5.88907e-09
1.2791e-09
-1.59066e-09
6.21305e-09
1.04037e-09
-1.36435e-09
6.55373e-09
7.2268e-10
-1.06335e-09
6.91526e-09
3.12549e-10
-6.74084e-10
7.29787e-09
-2.40739e-10
-1.41865e-10
7.63728e-09
-8.68152e-10
5.28735e-10
7.90895e-09
-1.43543e-09
1.16376e-09
8.11413e-09
-1.94306e-09
1.73788e-09
8.25694e-09
-2.37439e-09
2.23159e-09
8.34305e-09
-2.71743e-09
2.63132e-09
8.37798e-09
-2.97032e-09
2.93539e-09
8.36591e-09
-3.13543e-09
3.14749e-09
8.31063e-09
-3.21572e-09
3.271e-09
8.2154e-09
-3.21576e-09
3.31099e-09
8.08249e-09
-3.12998e-09
3.26288e-09
7.91427e-09
-2.95441e-09
3.12263e-09
7.71328e-09
-2.68578e-09
2.88678e-09
7.48207e-09
-2.32258e-09
2.55379e-09
7.223e-09
-1.86528e-09
2.12435e-09
6.9381e-09
-1.31547e-09
1.60037e-09
6.6291e-09
-6.7374e-10
9.82743e-10
6.29752e-09
6.30011e-11
2.68571e-10
5.9438e-09
9.03058e-10
-5.49338e-10
5.56277e-09
1.85118e-09
-1.47015e-09
5.13532e-09
2.87974e-09
-2.45229e-09
4.62701e-09
3.85071e-09
-3.3424e-09
4.04218e-09
4.41891e-09
-3.83409e-09
3.78359e-09
3.67468e-09
-3.41609e-09
2.38688e-09
-5.06823e-10
2.55178e-09
-4.94102e-10
2.77692e-09
-3.81695e-10
3.03025e-09
-2.27417e-10
3.29835e-09
-5.39983e-11
3.57456e-09
1.24784e-10
3.85632e-09
3.03e-10
4.14264e-09
4.77121e-10
4.43323e-09
6.43862e-10
4.72803e-09
7.99792e-10
5.02715e-09
9.40827e-10
5.33085e-09
1.06199e-09
5.63949e-09
1.15718e-09
5.95358e-09
1.21887e-09
6.27368e-09
1.23789e-09
6.60053e-09
1.20376e-09
6.93518e-09
1.10561e-09
7.2793e-09
9.34975e-10
7.63565e-09
6.84011e-10
8.00805e-09
3.50282e-10
8.40017e-09
-7.95664e-11
8.8117e-09
-6.52277e-10
9.17445e-09
-1.2309e-09
9.4636e-09
-1.72458e-09
9.68132e-09
-2.16079e-09
9.8323e-09
-2.52537e-09
9.92274e-09
-2.80787e-09
9.95848e-09
-3.00605e-09
9.94409e-09
-3.12104e-09
9.88398e-09
-3.15561e-09
9.78193e-09
-3.11371e-09
9.64074e-09
-2.98878e-09
9.46352e-09
-2.77719e-09
9.25383e-09
-2.4761e-09
9.0156e-09
-2.08434e-09
8.75302e-09
-1.6027e-09
8.47076e-09
-1.03321e-09
8.17453e-09
-3.77508e-10
7.87245e-09
3.65075e-10
7.57685e-09
1.19866e-09
7.30497e-09
2.12306e-09
7.07779e-09
3.10692e-09
6.9209e-09
4.0076e-09
6.86272e-09
4.4771e-09
3.898e-09
6.74831e-09
4.18571e-09
-5.21537e-10
4.26134e-09
-5.69734e-10
4.41025e-09
-5.30599e-10
4.61339e-09
-4.30565e-10
4.85213e-09
-2.92733e-10
5.11457e-09
-1.37652e-10
5.39361e-09
2.39516e-11
5.68519e-09
1.85546e-10
5.98693e-09
3.42125e-10
6.29743e-09
4.89288e-10
6.61591e-09
6.22347e-10
6.942e-09
7.35897e-10
7.27562e-09
8.23562e-10
7.61688e-09
8.77619e-10
7.96599e-09
8.88775e-10
8.32332e-09
8.46428e-10
8.68946e-09
7.39473e-10
9.06554e-09
5.58898e-10
9.45364e-09
2.95914e-10
9.8568e-09
-5.28806e-11
1.02778e-08
-5.00615e-10
1.07157e-08
-1.09008e-09
1.10985e-08
-1.61372e-09
1.14018e-08
-2.02787e-09
1.16289e-08
-2.38788e-09
1.17851e-08
-2.6816e-09
1.18773e-08
-2.90005e-09
1.19115e-08
-3.0403e-09
1.1893e-08
-3.10248e-09
1.18267e-08
-3.08938e-09
1.17172e-08
-3.00412e-09
1.15676e-08
-2.83924e-09
1.13822e-08
-2.5918e-09
1.11658e-08
-2.25969e-09
1.09239e-08
-1.84249e-09
1.06631e-08
-1.34189e-09
1.03912e-08
-7.61245e-10
1.01183e-08
-1.04669e-10
9.85967e-09
6.23737e-10
9.63867e-09
1.41965e-09
9.4906e-09
2.27114e-09
9.46085e-09
3.13667e-09
9.58386e-09
3.88459e-09
9.79792e-09
4.26304e-09
3.83249e-09
9.86342e-09
6.66392e-09
-5.02851e-10
6.67894e-09
-5.8476e-10
6.751e-09
-6.02657e-10
6.88576e-09
-5.6532e-10
7.07147e-09
-4.78441e-10
7.29633e-09
-3.62521e-10
7.55123e-09
-2.30948e-10
7.82962e-09
-9.28403e-11
8.12696e-09
4.47838e-11
8.44015e-09
1.76102e-10
8.76712e-09
2.95377e-10
9.10656e-09
3.96454e-10
9.45765e-09
4.7247e-10
9.81988e-09
5.15391e-10
1.01929e-08
5.1576e-10
1.05765e-08
4.62848e-10
1.09705e-08
3.45404e-10
1.13754e-08
1.54027e-10
1.17922e-08
-1.20876e-10
1.22228e-08
-4.83502e-10
1.26688e-08
-9.46586e-10
1.31277e-08
-1.549e-09
1.3525e-08
-2.01102e-09
1.3837e-08
-2.33988e-09
1.40684e-08
-2.61925e-09
1.42253e-08
-2.83849e-09
1.43151e-08
-2.98989e-09
1.43443e-08
-3.06951e-09
1.43188e-08
-3.07698e-09
1.42445e-08
-3.01507e-09
1.41261e-08
-2.88576e-09
1.39679e-08
-2.681e-09
1.37751e-08
-2.39901e-09
1.35541e-08
-2.03869e-09
1.33124e-08
-1.6008e-09
1.3059e-08
-1.08848e-09
1.2805e-08
-5.07265e-10
1.25651e-08
1.35274e-10
1.23598e-08
8.29014e-10
1.22193e-08
1.56016e-09
1.21853e-08
2.30519e-09
1.23036e-08
3.01838e-09
1.25912e-08
3.59692e-09
1.2981e-08
3.87322e-09
3.61381e-09
1.31997e-08
9.99291e-09
-4.7013e-10
9.9725e-09
-5.6435e-10
9.98683e-09
-6.16993e-10
1.00504e-08
-6.28922e-10
1.01697e-08
-5.97658e-10
1.03372e-08
-5.30085e-10
1.05461e-08
-4.39847e-10
1.07898e-08
-3.36525e-10
1.10627e-08
-2.28154e-10
1.13605e-08
-1.21682e-10
1.16799e-08
-2.39889e-11
1.20185e-08
5.78528e-11
1.23746e-08
1.16355e-10
1.27469e-08
1.43082e-10
1.31343e-08
1.28369e-10
1.35358e-08
6.13917e-11
1.39503e-08
-6.9157e-11
1.43772e-08
-2.72866e-10
1.48163e-08
-5.59918e-10
1.52678e-08
-9.35059e-10
1.57316e-08
-1.41036e-09
1.62033e-08
-2.02074e-09
1.66067e-08
-2.41434e-09
1.69194e-08
-2.6526e-09
1.71476e-08
-2.8475e-09
1.72985e-08
-2.98934e-09
1.738e-08
-3.07144e-09
1.7399e-08
-3.0885e-09
1.73626e-08
-3.04058e-09
1.72774e-08
-2.92986e-09
1.71483e-08
-2.75662e-09
1.69805e-08
-2.51318e-09
1.67807e-08
-2.1993e-09
1.65572e-08
-1.8151e-09
1.63192e-08
-1.36287e-09
1.60784e-08
-8.47682e-10
1.58489e-08
-2.77722e-10
1.56484e-08
3.35723e-10
1.55005e-08
9.76914e-10
1.54358e-08
1.62486e-09
1.54915e-08
2.24951e-09
1.5702e-08
2.80789e-09
1.60695e-08
3.22941e-09
1.6522e-08
3.42073e-09
3.28141e-09
1.68544e-08
1.43753e-08
-4.37259e-10
1.43385e-08
-5.27545e-10
1.43194e-08
-5.97906e-10
1.43302e-08
-6.39727e-10
1.43847e-08
-6.52104e-10
1.44873e-08
-6.32732e-10
1.46354e-08
-5.87945e-10
1.48258e-08
-5.26862e-10
1.50541e-08
-4.56439e-10
1.5316e-08
-3.83628e-10
1.5608e-08
-3.15988e-10
1.59271e-08
-2.61274e-10
1.6271e-08
-2.27475e-10
1.66374e-08
-2.23376e-10
1.70246e-08
-2.58796e-10
1.74305e-08
-3.4456e-10
1.78533e-08
-4.91898e-10
1.82907e-08
-7.10307e-10
1.87411e-08
-1.01028e-09
1.92028e-08
-1.39675e-09
1.96731e-08
-1.88072e-09
2.01454e-08
-2.49307e-09
2.05428e-08
-2.81175e-09
2.08453e-08
-2.95501e-09
2.10602e-08
-3.0625e-09
2.11959e-08
-3.12504e-09
2.1261e-08
-3.13645e-09
2.12627e-08
-3.09024e-09
2.12101e-08
-2.98803e-09
2.11102e-08
-2.82989e-09
2.09669e-08
-2.61339e-09
2.07877e-08
-2.33398e-09
2.05809e-08
-1.99246e-09
2.03561e-08
-1.5903e-09
2.01248e-08
-1.13155e-09
1.99005e-08
-6.23391e-10
1.96995e-08
-7.67165e-11
1.95409e-08
4.9428e-10
1.94479e-08
1.06996e-09
1.94464e-08
1.62632e-09
1.95628e-08
2.13313e-09
1.98153e-08
2.55541e-09
2.01942e-08
2.85055e-09
2.06392e-08
2.97569e-09
2.89729e-09
2.10233e-08
2.00442e-08
-4.11801e-10
2.00086e-08
-4.9187e-10
1.99757e-08
-5.65073e-10
1.99592e-08
-6.23143e-10
1.99686e-08
-6.61579e-10
2.00147e-08
-6.78799e-10
2.01019e-08
-6.75129e-10
2.02313e-08
-6.56277e-10
2.04019e-08
-6.27004e-10
2.06113e-08
-5.93094e-10
2.08573e-08
-5.61963e-10
2.11374e-08
-5.41366e-10
2.14492e-08
-5.39295e-10
2.17904e-08
-5.64566e-10
2.21585e-08
-6.26914e-10
2.25509e-08
-7.3693e-10
2.29645e-08
-9.05532e-10
2.33959e-08
-1.14173e-09
2.38416e-08
-1.45595e-09
2.42977e-08
-1.85282e-09
2.47587e-08
-2.34173e-09
2.52149e-08
-2.94924e-09
2.55906e-08
-3.18749e-09
2.58685e-08
-3.23285e-09
2.60572e-08
-3.25121e-09
2.61659e-08
-3.2338e-09
2.62038e-08
-3.17429e-09
2.61799e-08
-3.06636e-09
2.61046e-08
-2.91271e-09
2.5984e-08
-2.70934e-09
2.58221e-08
-2.45142e-09
2.56286e-08
-2.14047e-09
2.54134e-08
-1.77726e-09
2.51876e-08
-1.36459e-09
2.49644e-08
-9.08264e-10
2.47584e-08
-4.17438e-10
2.45865e-08
9.51897e-11
2.44675e-08
6.13311e-10
2.44208e-08
1.11661e-09
2.44652e-08
1.58196e-09
2.46144e-08
1.98386e-09
2.48723e-08
2.29755e-09
2.52223e-08
2.50057e-09
2.56199e-08
2.57809e-09
2.52639e-09
2.59908e-08
2.72715e-08
-3.96439e-10
2.72459e-08
-4.6626e-10
2.72165e-08
-5.35693e-10
2.71922e-08
-5.98839e-10
2.71823e-08
-6.51741e-10
2.71942e-08
-6.90653e-10
2.72362e-08
-7.1718e-10
2.73136e-08
-7.33666e-10
2.7428e-08
-7.41365e-10
2.75802e-08
-7.45279e-10
2.77703e-08
-7.52132e-10
2.79978e-08
-7.68862e-10
2.82614e-08
-8.02819e-10
2.85591e-08
-8.6235e-10
2.88889e-08
-9.56677e-10
2.92477e-08
-1.09575e-09
2.9632e-08
-1.28981e-09
3.00371e-08
-1.54687e-09
3.04579e-08
-1.87674e-09
3.08883e-08
-2.28313e-09
3.13196e-08
-2.77309e-09
3.17388e-08
-3.36843e-09
3.20738e-08
-3.52249e-09
3.231e-08
-3.46907e-09
3.2457e-08
-3.39819e-09
3.25246e-08
-3.30143e-09
3.2523e-08
-3.17263e-09
3.24654e-08
-3.00876e-09
3.23599e-08
-2.80725e-09
3.22095e-08
-2.55897e-09
3.20231e-08
-2.26496e-09
3.18114e-08
-1.92878e-09
3.15855e-08
-1.55139e-09
3.13577e-08
-1.13682e-09
3.11419e-08
-6.92417e-10
3.09531e-08
-2.28668e-10
3.08073e-08
2.41049e-10
3.07205e-08
7.00046e-10
3.07073e-08
1.12987e-09
3.0778e-08
1.51121e-09
3.09364e-08
1.82545e-09
3.11765e-08
2.0575e-09
3.14793e-08
2.19772e-09
3.18127e-08
2.24472e-09
2.20573e-09
3.21334e-08
3.63685e-08
-3.91005e-10
3.63554e-08
-4.53173e-10
3.63376e-08
-5.17879e-10
3.63201e-08
-5.81326e-10
3.63094e-08
-6.41071e-10
3.63109e-08
-6.92115e-10
3.63322e-08
-7.38518e-10
3.6379e-08
-7.80388e-10
3.64539e-08
-8.16306e-10
3.65602e-08
-8.51544e-10
3.67003e-08
-8.92257e-10
3.68754e-08
-9.44001e-10
3.70859e-08
-1.01327e-09
3.73312e-08
-1.10762e-09
3.76099e-08
-1.23537e-09
3.79195e-08
-1.4054e-09
3.82565e-08
-1.62686e-09
3.86158e-08
-1.90614e-09
3.8991e-08
-2.2519e-09
3.93739e-08
-2.66605e-09
3.97534e-08
-3.15258e-09
4.01129e-08
-3.72796e-09
4.03865e-08
-3.79605e-09
4.05628e-08
-3.64542e-09
4.06514e-08
-3.4867e-09
4.06622e-08
-3.31224e-09
4.06129e-08
-3.12339e-09
4.05144e-08
-2.91023e-09
4.03661e-08
-2.65894e-09
4.0177e-08
-2.36984e-09
3.99601e-08
-2.04808e-09
3.97259e-08
-1.69463e-09
3.94863e-08
-1.31176e-09
3.92541e-08
-9.04609e-10
3.90431e-08
-4.81377e-10
3.88675e-08
-5.31095e-11
3.87409e-08
3.67669e-10
3.86755e-08
7.65379e-10
3.86801e-08
1.12527e-09
3.87583e-08
1.43307e-09
3.89067e-08
1.677e-09
3.91148e-08
1.84948e-09
3.93642e-08
1.94831e-09
3.96313e-08
1.97756e-09
1.94686e-09
3.98902e-08
4.76824e-08
-3.952e-10
4.76818e-08
-4.5263e-10
4.7678e-08
-5.14017e-10
4.76738e-08
-5.77199e-10
4.76733e-08
-6.40503e-10
4.76814e-08
-7.0028e-10
4.7702e-08
-7.59107e-10
4.77392e-08
-8.17585e-10
4.77977e-08
-8.74768e-10
4.78808e-08
-9.34664e-10
4.79909e-08
-1.00232e-09
4.81297e-08
-1.0828e-09
4.82984e-08
-1.18204e-09
4.84976e-08
-1.30683e-09
4.87267e-08
-1.46449e-09
4.8984e-08
-1.66265e-09
4.92663e-08
-1.90915e-09
4.95684e-08
-2.20831e-09
4.98836e-08
-2.56706e-09
5.02023e-08
-2.98473e-09
5.05113e-08
-3.46161e-09
5.07918e-08
-4.00841e-09
5.09854e-08
-3.98966e-09
5.10852e-08
-3.74525e-09
5.10984e-08
-3.49992e-09
5.10483e-08
-3.26212e-09
5.09485e-08
-3.02363e-09
5.0793e-08
-2.75475e-09
5.05908e-08
-2.45672e-09
5.03586e-08
-2.1376e-09
5.0107e-08
-1.79651e-09
4.98472e-08
-1.4348e-09
4.95912e-08
-1.05574e-09
4.93517e-08
-6.65175e-10
4.91419e-08
-2.71546e-10
4.89732e-08
1.15604e-10
4.88568e-08
4.84012e-10
4.88003e-08
8.21918e-10
4.88072e-08
1.11838e-09
4.88761e-08
1.36417e-09
4.90001e-08
1.55298e-09
4.91673e-08
1.68229e-09
4.93619e-08
1.75373e-09
4.95664e-08
1.77303e-09
1.74902e-09
4.97642e-08
6.15918e-08
-4.10225e-10
6.16046e-08
-4.65388e-10
6.16159e-08
-5.25381e-10
6.16279e-08
-5.89157e-10
6.16431e-08
-6.557e-10
6.16659e-08
-7.23123e-10
6.16968e-08
-7.89947e-10
6.17405e-08
-8.61337e-10
6.18021e-08
-9.36344e-10
6.18836e-08
-1.01615e-09
6.19864e-08
-1.10512e-09
6.21119e-08
-1.2083e-09
6.2261e-08
-1.33119e-09
6.24341e-08
-1.4799e-09
6.26304e-08
-1.66081e-09
6.28482e-08
-1.88038e-09
6.30842e-08
-2.14517e-09
6.33333e-08
-2.45743e-09
6.35883e-08
-2.82201e-09
6.38386e-08
-3.23507e-09
6.40702e-08
-3.6932e-09
6.42627e-08
-4.20092e-09
6.43651e-08
-4.09208e-09
6.4375e-08
-3.75516e-09
6.43197e-08
-3.44463e-09
6.42145e-08
-3.15691e-09
6.40463e-08
-2.85541e-09
6.3825e-08
-2.53346e-09
6.35709e-08
-2.20265e-09
6.32952e-08
-1.86188e-09
6.30091e-08
-1.51038e-09
6.27239e-08
-1.14963e-09
6.24515e-08
-7.83321e-10
6.22036e-08
-4.17259e-10
6.19917e-08
-5.96937e-11
6.18243e-08
2.83031e-10
6.17093e-08
5.99052e-10
6.165e-08
8.81217e-10
6.16461e-08
1.12223e-09
6.16933e-08
1.31699e-09
6.17833e-08
1.46302e-09
6.19048e-08
1.56077e-09
6.2045e-08
1.61349e-09
6.21912e-08
1.62689e-09
1.60825e-09
6.23319e-08
7.85201e-08
-4.38801e-10
7.85485e-08
-4.93717e-10
7.85771e-08
-5.54027e-10
7.86073e-08
-6.1935e-10
7.86407e-08
-6.89102e-10
7.86807e-08
-7.63078e-10
7.87314e-08
-8.40677e-10
7.87931e-08
-9.23071e-10
7.88686e-08
-1.0118e-09
7.89609e-08
-1.1085e-09
7.90718e-08
-1.21603e-09
7.9202e-08
-1.33851e-09
7.93517e-08
-1.48083e-09
7.95201e-08
-1.64831e-09
7.97057e-08
-1.84638e-09
7.99056e-08
-2.08028e-09
8.01156e-08
-2.3552e-09
8.03298e-08
-2.67164e-09
8.05399e-08
-3.03212e-09
8.07342e-08
-3.42934e-09
8.08985e-08
-3.85749e-09
8.10086e-08
-4.31103e-09
8.10202e-08
-4.10364e-09
8.09626e-08
-3.69761e-09
8.08537e-08
-3.33576e-09
8.0679e-08
-2.98218e-09
8.04434e-08
-2.61984e-09
8.017e-08
-2.26003e-09
7.98722e-08
-1.90485e-09
7.95612e-08
-1.55088e-09
7.92482e-08
-1.19734e-09
7.89443e-08
-8.45768e-10
7.86608e-08
-4.99828e-10
7.8408e-08
-1.64423e-10
7.81931e-08
1.5519e-10
7.80248e-08
4.51365e-10
7.79056e-08
7.18169e-10
7.78363e-08
9.50527e-10
7.7814e-08
1.14452e-09
7.7833e-08
1.29806e-09
7.78849e-08
1.41105e-09
7.79603e-08
1.48544e-09
7.80489e-08
1.52487e-09
7.81414e-08
1.53439e-09
1.51975e-09
7.82299e-08
9.89737e-08
-4.8362e-10
9.90199e-08
-5.39979e-10
9.90681e-08
-6.02187e-10
9.91191e-08
-6.70357e-10
9.91745e-08
-7.44501e-10
9.92362e-08
-8.24767e-10
9.93068e-08
-9.1124e-10
9.93882e-08
-1.00453e-09
9.94825e-08
-1.10614e-09
9.95919e-08
-1.21783e-09
9.97177e-08
-1.34188e-09
9.98607e-08
-1.48148e-09
1.0002e-07
-1.64061e-09
1.00196e-07
-1.82364e-09
1.00384e-07
-2.03482e-09
1.00582e-07
-2.27795e-09
1.00783e-07
-2.55662e-09
1.00981e-07
-2.86969e-09
1.01166e-07
-3.21685e-09
1.01325e-07
-3.58816e-09
1.01442e-07
-3.97461e-09
1.01486e-07
-4.35465e-09
1.01444e-07
-4.06155e-09
1.01342e-07
-3.59646e-09
1.01177e-07
-3.17061e-09
1.00946e-07
-2.75064e-09
1.00669e-07
-2.34275e-09
1.00364e-07
-1.955e-09
1.00041e-07
-1.58253e-09
9.97129e-08
-1.22248e-09
9.93894e-08
-8.73883e-10
9.90814e-08
-5.37767e-10
9.87991e-08