/*--------------------------------*- C++ -*----------------------------------*\
| =========                 |                                                 |
| \\      /  F ield         | OpenFOAM: The Open Source CFD Toolbox           |
|  \\    /   O peration     | Version:  2312                                  |
|   \\  /    A nd           | Website:  www.openfoam.com                      |
|    \\/     M anipulation  |                                                 |
\*---------------------------------------------------------------------------*/
FoamFile
{
    version     2.0;
    format      ascii;
    arch        "LSB;label=32;scalar=64";
    class       volVectorField;
    location    "108.25";
    object      U;
}
// * * * * * * * * * * * * * * * * * * * * * * * * * * * * * * * * * * * * * //

dimensions      [0 1 -1 0 0 0 0];

internalField   nonuniform List<vector> 
4800
(
(0.000498379 3.6026e-07 -3.44402e-26)
(0.00048929 4.32971e-07 -2.4431e-25)
(0.000483206 4.78564e-07 3.12965e-25)
(0.000479274 4.9379e-07 1.45304e-25)
(0.000476984 4.80194e-07 2.16295e-24)
(0.000476015 4.55443e-07 -5.15687e-24)
(0.000476239 3.97364e-07 4.83411e-24)
(0.000477561 3.19471e-07 -7.04064e-24)
(0.000479979 1.66199e-07 2.25578e-24)
(0.000483685 -1.31502e-07 7.7304e-24)
(0.000489119 -7.07599e-07 -2.38197e-24)
(0.000497617 -2.21725e-06 -2.00593e-25)
(0.000516601 -7.69045e-06 -2.91042e-24)
(0.0005651 -2.99522e-05 1.33279e-24)
(0.000646657 -9.92913e-05 -1.05376e-24)
(0.00153789 1.86188e-06 -1.09642e-25)
(0.00150961 1.47441e-06 1.36711e-25)
(0.00149037 1.15405e-06 -1.27977e-24)
(0.00147761 8.42221e-07 9.52788e-25)
(0.00146977 5.0888e-07 3.10583e-24)
(0.00146587 1.47926e-07 -4.97349e-24)
(0.00146547 -3.10746e-07 -1.42491e-24)
(0.00146816 -9.00436e-07 -3.45701e-25)
(0.00147398 -1.77705e-06 1.17016e-23)
(0.0014835 -3.23873e-06 -8.66374e-24)
(0.00149788 -5.94747e-06 9.43636e-25)
(0.00152004 -1.22009e-05 1.43869e-24)
(0.00155906 -3.00313e-05 -2.12137e-24)
(0.0016265 -8.45654e-05 -6.2004e-25)
(0.00170025 -0.000209704 2.749e-24)
(0.00268328 6.05108e-06 -7.85169e-26)
(0.00263401 4.794e-06 8.01567e-26)
(0.00260004 3.782e-06 8.37187e-25)
(0.00257706 2.83818e-06 -2.00368e-24)
(0.00256241 1.86014e-06 1.9772e-24)
(0.00255439 7.45381e-07 1.88129e-24)
(0.00255211 -6.50174e-07 -4.81072e-24)
(0.00255491 -2.45109e-06 -2.97379e-24)
(0.00256253 -5.04411e-06 7.22546e-24)
(0.0025759 -9.13903e-06 2.7438e-24)
(0.00259605 -1.62492e-05 -9.53548e-24)
(0.00262531 -3.05075e-05 -1.44042e-24)
(0.00266788 -6.19478e-05 4.07467e-24)
(0.00272263 -0.000131369 6.42176e-24)
(0.00276303 -0.000248853 -3.31349e-24)
(0.00394016 1.36488e-05 2.90174e-26)
(0.00386861 1.09611e-05 -2.03071e-25)
(0.00381859 8.79913e-06 9.12716e-25)
(0.00378408 6.79697e-06 9.91085e-25)
(0.00376131 4.74147e-06 -9.72693e-25)
(0.00374786 2.42053e-06 -5.71156e-24)
(0.00374216 -4.5677e-07 -3.87222e-24)
(0.00374357 -4.08796e-06 1.4316e-23)
(0.00375093 -9.14264e-06 6.03521e-24)
(0.0037653 -1.69293e-05 -8.73942e-24)
(0.00378685 -2.94369e-05 -3.52785e-24)
(0.00381599 -5.1408e-05 -2.69166e-24)
(0.00385187 -9.12977e-05 8.08784e-26)
(0.00388695 -0.00016007 1.99037e-24)
(0.00390158 -0.000253851 9.73747e-27)
(0.00531181 2.54245e-05 -5.32071e-26)
(0.00521776 2.06453e-05 -3.27788e-25)
(0.00515099 1.67951e-05 -2.12941e-25)
(0.00510399 1.32512e-05 5.63264e-25)
(0.00507196 9.65099e-06 -1.62697e-24)
(0.00505178 5.66285e-06 4.06487e-24)
(0.00504117 8.85173e-07 -7.12786e-25)
(0.00503922 -5.26613e-06 2.51906e-24)
(0.00504427 -1.32343e-05 -1.39577e-23)
(0.00505649 -2.50264e-05 2.67442e-23)
(0.00507513 -4.25685e-05 -2.59307e-23)
(0.00509868 -6.97227e-05 1.36951e-23)
(0.00512351 -0.000111644 -1.27261e-23)
(0.00514145 -0.000171865 1.20291e-23)
(0.00514109 -0.000243149 -4.80577e-24)
(0.00679744 4.22088e-05 7.02146e-26)
(0.00668259 3.46746e-05 2.53487e-25)
(0.00659956 2.85836e-05 -1.34321e-24)
(0.00653988 2.30034e-05 -8.66324e-25)
(0.00649794 1.73932e-05 2.30336e-24)
(0.00647002 1.12994e-05 8.34554e-25)
(0.00645326 4.13933e-06 -6.54968e-24)
(0.00644607 -4.65578e-06 1.56654e-23)
(0.00644669 -1.60083e-05 -2.04137e-23)
(0.00645405 -3.15114e-05 4.88923e-24)
(0.00646644 -5.2858e-05 1.49395e-23)
(0.00648131 -8.23967e-05 -2.07891e-23)
(0.00649446 -0.000122145 1.04102e-23)
(0.00649971 -0.000171702 1.07457e-23)
(0.00649166 -0.000224845 -8.1884e-24)
(0.00838979 6.45385e-05 5.80161e-26)
(0.00825885 5.37344e-05 -3.44904e-25)
(0.00816207 4.49298e-05 1.24494e-24)
(0.00809088 3.68717e-05 -1.73584e-24)
(0.00803938 2.88403e-05 -5.96087e-24)
(0.0080034 2.02707e-05 1.01657e-23)
(0.00797974 1.04622e-05 -6.20542e-24)
(0.00796614 -1.24198e-06 2.11984e-23)
(0.00796051 -1.57032e-05 -1.4414e-23)
(0.007961 -3.42415e-05 -6.75892e-24)
(0.00796527 -5.79169e-05 -1.33521e-23)
(0.00797044 -8.76138e-05 1.22648e-23)
(0.00797304 -0.000123315 3.46055e-24)
(0.00796921 -0.000163191 2.98694e-24)
(0.00795699 -0.00020295 -2.62979e-24)
(0.0100726 9.21486e-05 -8.37283e-26)
(0.00993433 7.79593e-05 1.14187e-24)
(0.00982922 6.62139e-05 -2.67208e-24)
(0.00974983 5.54078e-05 -2.22457e-24)
(0.00969067 4.46905e-05 8.08109e-25)
(0.00964758 3.34235e-05 1.62703e-24)
(0.00961721 2.08796e-05 5.91827e-24)
(0.0095969 6.36889e-06 -1.61909e-23)
(0.00958427 -1.0789e-05 -8.7054e-24)
(0.00957703 -3.14394e-05 2.38454e-23)
(0.00957271 -5.60076e-05 -7.44385e-24)
(0.00956867 -8.43808e-05 2.54747e-23)
(0.00956249 -0.00011562 -1.34252e-23)
(0.00955197 -0.000147818 -4.31462e-24)
(0.00953687 -0.000178311 2.56e-24)
(0.0118194 0.000123332 -1.11563e-26)
(0.0116871 0.000106394 6.32178e-25)
(0.0115824 9.197e-05 -9.01605e-25)
(0.0115008 7.84969e-05 2.18817e-24)
(0.011438 6.51123e-05 -1.31165e-23)
(0.0113905 5.11876e-05 1.38689e-23)
(0.011355 3.60595e-05 -2.202e-23)
(0.011329 1.91274e-05 1.35101e-23)
(0.01131 -6.82862e-08 1.01011e-23)
(0.0112956 -2.18677e-05 2.20671e-23)
(0.0112835 -4.6198e-05 -2.88478e-23)
(0.0112718 -7.24619e-05 -5.3996e-24)
(0.0112589 -9.95418e-05 2.42966e-24)
(0.0112435 -0.000125971 1.78404e-23)
(0.011226 -0.000150194 -7.27804e-24)
(0.0135975 0.000154405 6.26013e-26)
(0.0134866 0.000136415 -2.68063e-25)
(0.0133939 0.000120327 1.19722e-24)
(0.0133185 0.000104826 -4.22185e-24)
(0.0132582 8.92365e-05 6.42491e-24)
(0.0132107 7.3079e-05 -8.34151e-24)
(0.0131735 5.58518e-05 1.40199e-23)
(0.0131443 3.71427e-05 2.50283e-24)
(0.0131209 1.67533e-05 -1.9444e-23)
(0.0131013 -5.2897e-06 2.7832e-23)
(0.0130837 -2.85967e-05 -3.07514e-23)
(0.0130666 -5.2463e-05 -9.15781e-24)
(0.0130491 -7.59437e-05 1.60734e-23)
(0.0130305 -9.8074e-05 4.80659e-24)
(0.0130115 -0.000117991 -2.10534e-24)
(0.0153794 0.000180124 2.67216e-25)
(0.0153024 0.000163668 -2.11906e-24)
(0.0152323 0.000147727 -3.3718e-24)
(0.0151718 0.000131496 7.99834e-24)
(0.015121 0.000114707 3.61077e-24)
(0.0150792 9.72104e-05 -2.26936e-23)
(0.0150448 7.87605e-05 6.95637e-24)
(0.0150161 5.91931e-05 5.02991e-24)
(0.0149917 3.85617e-05 -2.207e-23)
(0.01497 1.7123e-05 2.29074e-23)
(0.0149498 -4.62566e-06 -1.85761e-23)
(0.0149301 -2.60562e-05 4.76292e-23)
(0.0149107 -4.64857e-05 -2.30205e-23)
(0.0148908 -6.53455e-05 1.36078e-23)
(0.0148713 -8.21821e-05 -3.72579e-24)
(0.0171599 0.000196445 -1.23552e-25)
(0.0171192 0.000183658 1.48364e-24)
(0.0170763 0.000169845 -2.82746e-24)
(0.0170357 0.000154545 -1.42974e-24)
(0.0169994 0.00013793 1.60019e-23)
(0.0169677 0.000120349 -2.28834e-24)
(0.0169401 0.000101868 -2.86082e-23)
(0.0169157 8.25684e-05 3.34815e-23)
(0.0168938 6.2699e-05 -7.49399e-24)
(0.0168733 4.26418e-05 -2.62263e-23)
(0.0168537 2.28677e-05 2.80861e-23)
(0.0168344 3.86742e-06 1.53129e-23)
(0.0168155 -1.39052e-05 -1.2728e-23)
(0.0167963 -3.01432e-05 -2.23207e-23)
(0.0167779 -4.46226e-05 1.8807e-24)
(0.0189578 0.000201748 2.36023e-26)
(0.0189471 0.000194646 -1.66942e-24)
(0.0189271 0.000184324 7.8166e-24)
(0.0189045 0.000171148 4.40653e-25)
(0.0188823 0.000155885 4.41006e-24)
(0.0188615 0.000139372 -1.58179e-23)
(0.0188422 0.000122007 1.35581e-23)
(0.018824 0.000104048 3.13628e-24)
(0.0188066 8.58411e-05 2.81233e-23)
(0.0187895 6.77903e-05 -4.33211e-23)
(0.0187728 5.03096e-05 -1.97373e-23)
(0.0187559 3.37496e-05 -1.31752e-23)
(0.0187392 1.83995e-05 2.47088e-23)
(0.0187224 4.41392e-06 -7.25222e-25)
(0.0187062 -8.10405e-06 2.41585e-24)
(0.0208063 0.000200803 -3.23021e-27)
(0.0208047 0.00019696 1.71741e-24)
(0.0207994 0.000191176 -2.59674e-24)
(0.0207894 0.000181683 1.53618e-26)
(0.0207767 0.000168449 3.26985e-24)
(0.0207638 0.000153663 8.28862e-24)
(0.0207509 0.000138064 -3.2176e-23)
(0.0207378 0.000122078 2.68694e-24)
(0.0207246 0.000106058 1.63761e-23)
(0.0207111 9.03473e-05 -7.60211e-24)
(0.0206975 7.52719e-05 2.07365e-23)
(0.0206835 6.10774e-05 1.46307e-23)
(0.0206696 4.79466e-05 -2.65133e-23)
(0.0206555 3.59536e-05 1.82562e-23)
(0.0206418 2.51419e-05 -1.51794e-23)
(0.0226982 0.000199412 -2.23219e-25)
(0.0226981 0.000197517 -3.4994e-25)
(0.022696 0.000193615 3.15944e-24)
(0.0226913 0.000187417 -1.56337e-23)
(0.0226836 0.000177435 1.40474e-23)
(0.0226748 0.000164975 -9.99285e-24)
(0.0226654 0.000151494 7.19436e-24)
(0.0226553 0.000137681 -5.06479e-23)
(0.0226447 0.000123947 7.31208e-23)
(0.0226336 0.000110564 -4.3136e-23)
(0.0226223 9.77651e-05 3.85569e-23)
(0.0226105 8.57156e-05 3.24042e-23)
(0.0225988 7.45342e-05 -5.66384e-23)
(0.0225868 6.42571e-05 1.84681e-23)
(0.0225752 5.49035e-05 -7.7784e-25)
(0.024579 0.000197857 -8.7676e-27)
(0.0245795 0.000197678 -1.16334e-24)
(0.0245782 0.000195449 1.25283e-24)
(0.0245749 0.000191271 -4.22356e-25)
(0.0245695 0.000184642 5.947e-24)
(0.0245623 0.000175023 -1.02943e-23)
(0.0245546 0.00016404 9.35959e-24)
(0.0245462 0.000152535 -2.92515e-23)
(0.0245373 0.000141032 6.63435e-23)
(0.0245277 0.000129808 -8.47416e-23)
(0.0245179 0.000119046 6.93644e-23)
(0.0245077 0.000108857 -2.34215e-23)
(0.0244975 9.93244e-05 1.22353e-24)
(0.0244871 9.04746e-05 5.39912e-24)
(0.024477 8.23221e-05 -1.03365e-23)
(0.0263609 0.000193546 -7.98647e-25)
(0.0263637 0.000198153 -1.50571e-25)
(0.0263628 0.000197091 1.50681e-24)
(0.0263604 0.000194532 -2.87606e-24)
(0.0263563 0.000190303 1.06075e-23)
(0.0263505 0.000183951 -1.09573e-23)
(0.0263437 0.000175681 -9.0799e-24)
(0.0263365 0.000166662 -2.13912e-23)
(0.0263289 0.00015741 1.1373e-23)
(0.0263208 0.000148242 5.17913e-23)
(0.0263124 0.000139341 -2.72272e-23)
(0.0263036 0.000130805 1.60967e-23)
(0.0262948 0.000122704 -6.64583e-24)
(0.0262857 0.000115066 -1.95792e-23)
(0.026277 0.000107917 1.00122e-23)
(0.0279258 0.000185737 2.44347e-25)
(0.0279311 0.000196696 -2.41743e-25)
(0.0279309 0.000198733 2.30631e-24)
(0.0279293 0.000197514 -6.82366e-24)
(0.0279265 0.000195112 -1.57134e-24)
(0.0279222 0.000191464 2.0146e-23)
(0.0279166 0.000186014 -1.56355e-23)
(0.0279105 0.000179429 -8.77511e-24)
(0.0279042 0.000172352 8.33424e-24)
(0.0278976 0.000165109 -8.98701e-24)
(0.0278907 0.000157909 2.10783e-23)
(0.0278834 0.000150854 1.03448e-23)
(0.027876 0.000144019 -3.87486e-23)
(0.0278684 0.00013744 2.66111e-23)
(0.027861 0.000131155 -5.39303e-24)
(0.0291049 0.000179508 6.46898e-25)
(0.0291103 0.000191188 -3.50595e-25)
(0.0291133 0.000199228 1.55355e-25)
(0.029113 0.000200511 3.60644e-24)
(0.0291117 0.000199576 -4.79508e-24)
(0.0291095 0.000197722 -8.43899e-24)
(0.0291064 0.000194889 -8.92687e-24)
(0.0291022 0.000190652 2.71855e-23)
(0.0290977 0.000185567 2.40353e-23)
(0.0290929 0.000180085 -5.73787e-23)
(0.0290879 0.000174402 3.19309e-23)
(0.0290824 0.000168643 -2.15851e-24)
(0.0290768 0.000162903 -1.69395e-24)
(0.029071 0.000157237 2.24588e-24)
(0.0290652 0.000151687 -1.02405e-24)
(0.0296752 0.000170209 -1.47364e-24)
(0.0296829 0.00018447 -3.79901e-25)
(0.0296877 0.000193014 4.06772e-24)
(0.0296909 0.000198936 -5.51204e-24)
(0.0296928 0.000200641 2.01609e-24)
(0.0296928 0.000200225 3.88872e-24)
(0.0296921 0.000199067 -3.4411e-24)
(0.0296908 0.000196952 -2.33284e-23)
(0.0296889 0.000193741 5.33679e-23)
(0.0296868 0.000189906 -2.17516e-23)
(0.0296843 0.000185618 7.71466e-24)
(0.0296814 0.000181022 -1.3928e-23)
(0.0296782 0.000176242 -1.35558e-23)
(0.0296748 0.000171351 1.96204e-23)
(0.0296713 0.000166404 -8.31677e-24)
(0.0294596 0.00016043 1.99734e-24)
(0.0294663 0.000175354 -3.50072e-24)
(0.029471 0.000186016 1.51731e-24)
(0.0294748 0.000193023 -4.2714e-24)
(0.029477 0.000197225 7.45999e-24)
(0.029479 0.000199314 -5.54296e-24)
(0.0294797 0.000199188 -1.0329e-23)
(0.02948 0.00019858 2.54937e-23)
(0.0294801 0.000197215 6.26385e-24)
(0.0294799 0.00019472 -1.85935e-23)
(0.0294793 0.000191575 -9.04631e-24)
(0.0294783 0.000187941 9.96227e-24)
(0.0294772 0.000183941 -1.04452e-23)
(0.0294758 0.000179658 5.81692e-24)
(0.0294742 0.000175147 -2.49082e-24)
(0.0284426 0.000151356 1.07084e-24)
(0.0284531 0.000166269 -1.83448e-24)
(0.0284623 0.000177157 3.49782e-25)
(0.0284703 0.000184862 -1.55579e-24)
(0.0284773 0.000190019 4.46207e-24)
(0.0284835 0.000193137 5.47143e-25)
(0.0284888 0.000194738 -1.83852e-24)
(0.0284933 0.000195053 -2.4253e-24)
(0.0284973 0.000194291 -4.79391e-24)
(0.0285009 0.000192661 2.98561e-23)
(0.0285041 0.00019032 -1.84648e-23)
(0.0285068 0.000187391 1.54269e-24)
(0.0285091 0.000183974 -2.14796e-23)
(0.0285111 0.000180146 1.03445e-23)
(0.0285127 0.000175964 3.2453e-24)
(0.0268537 0.000141215 2.39846e-24)
(0.0268632 0.00015517 -3.6989e-24)
(0.0268721 0.00016561 9.14569e-25)
(0.0268807 0.00017325 8.22478e-25)
(0.0268887 0.000178632 3.66482e-24)
(0.0268963 0.000182159 -8.40415e-24)
(0.0269034 0.000184157 5.27599e-24)
(0.02691 0.000184943 -2.59923e-24)
(0.0269163 0.00018474 1.93638e-24)
(0.0269222 0.000183665 9.22393e-24)
(0.0269278 0.000181826 -1.98055e-23)
(0.0269332 0.000179335 1.46509e-23)
(0.0269381 0.000176285 -1.32177e-24)
(0.0269429 0.00017275 -4.16491e-24)
(0.0269474 0.000168788 6.43146e-25)
(0.024926 0.00013217 8.62468e-25)
(0.0249366 0.000144793 -3.38407e-24)
(0.0249472 0.000154415 4.04625e-24)
(0.0249579 0.000161603 -1.48874e-24)
(0.0249682 0.000166793 -1.85936e-24)
(0.0249783 0.000170311 -3.25272e-25)
(0.0249882 0.000172438 5.91035e-25)
(0.0249977 0.000173419 2.50804e-24)
(0.0250069 0.000173423 -8.16399e-24)
(0.0250159 0.000172561 -2.55391e-24)
(0.0250246 0.000170932 1.14094e-23)
(0.025033 0.000168628 3.05207e-24)
(0.0250411 0.00016573 -5.15097e-24)
(0.025049 0.000162305 1.5874e-24)
(0.0250566 0.000158405 -4.45836e-25)
(0.0228085 0.000122749 1.10654e-25)
(0.0228216 0.000133676 -1.21193e-24)
(0.0228352 0.000142098 7.21589e-26)
(0.022849 0.000148445 1.7007e-24)
(0.0228628 0.000153065 -8.54562e-27)
(0.0228766 0.000156229 -4.17266e-25)
(0.0228901 0.000158154 -2.81363e-25)
(0.0229035 0.000159013 2.74573e-25)
(0.0229166 0.000158942 2.27345e-24)
(0.0229295 0.000158043 -1.22251e-23)
(0.0229421 0.000156403 1.07104e-23)
(0.0229544 0.000154101 1.17569e-24)
(0.0229665 0.000151206 -1.55283e-24)
(0.0229783 0.000147777 -2.60719e-24)
(0.0229898 0.00014386 2.17859e-24)
(0.0206189 0.000111472 1.62818e-25)
(0.0206357 0.000120507 1.08489e-24)
(0.0206531 0.000127513 -1.30677e-24)
(0.020671 0.000132805 -2.72038e-25)
(0.020689 0.000136652 -3.60691e-25)
(0.020707 0.000139253 2.56282e-25)
(0.0207249 0.000140769 -2.51239e-25)
(0.0207426 0.00014133 1.24821e-24)
(0.0207601 0.000141046 4.5304e-25)
(0.0207773 0.000140008 -5.41923e-26)
(0.0207942 0.000138289 2.78711e-24)
(0.0208109 0.000135953 -1.2613e-24)
(0.0208271 0.000133059 -2.65977e-25)
(0.0208431 0.000129652 -6.01112e-25)
(0.0208587 0.000125777 -1.84671e-24)
(0.0184438 9.80107e-05 1.16654e-24)
(0.0184646 0.000105184 -1.66931e-24)
(0.0184862 0.000110762 -6.55938e-25)
(0.0185082 0.000114966 1.83547e-24)
(0.0185304 0.000117985 -6.90275e-25)
(0.0185525 0.000119964 3.98119e-25)
(0.0185745 0.000121022 9.20635e-27)
(0.0185964 0.000121262 -1.61252e-24)
(0.0186179 0.00012077 3.92262e-24)
(0.0186392 0.000119616 -5.14565e-24)
(0.0186601 0.000117859 3.71647e-24)
(0.0186806 0.000115549 -2.22008e-24)
(0.0187007 0.000112731 4.57127e-24)
(0.0187203 0.000109447 -5.37335e-24)
(0.0187394 0.000105733 1.67453e-24)
(0.0163403 8.29443e-05 -2.29659e-25)
(0.0163646 8.84439e-05 -5.9056e-25)
(0.0163895 9.27225e-05 -1.26823e-24)
(0.0164149 9.59289e-05 3.41956e-24)
(0.0164403 9.81906e-05 -1.00806e-24)
(0.0164657 9.96114e-05 -2.79405e-25)
(0.0164909 0.00010028 -4.3462e-25)
(0.0165159 0.00010027 5.35713e-25)
(0.0165406 9.96455e-05 3.03904e-24)
(0.0165648 9.84575e-05 -2.79842e-24)
(0.0165886 9.67509e-05 -1.41082e-25)
(0.0166119 9.45663e-05 2.6609e-24)
(0.0166346 9.19416e-05 -2.96149e-24)
(0.0166568 8.89112e-05 -3.9175e-25)
(0.0166782 8.55074e-05 4.59071e-25)
(0.0143416 6.7358e-05 8.99653e-25)
(0.0143679 7.14524e-05 9.07041e-25)
(0.0143949 7.46405e-05 -1.22627e-24)
(0.0144221 7.70182e-05 -1.34599e-24)
(0.0144494 7.8665e-05 1.00107e-24)
(0.0144766 7.96525e-05 -1.91751e-25)
(0.0145036 8.00419e-05 6.49968e-25)
(0.0145302 7.98853e-05 -4.0581e-25)
(0.0145565 7.9227e-05 -3.89414e-25)
(0.0145822 7.81058e-05 1.98761e-24)
(0.0146074 7.65565e-05 8.57732e-25)
(0.014632 7.46113e-05 -6.77365e-24)
(0.0146559 7.23009e-05 2.70308e-24)
(0.0146791 6.96536e-05 1.05928e-24)
(0.0147014 6.66967e-05 9.9485e-26)
(0.0124644 5.24262e-05 -9.51559e-25)
(0.0124911 5.54029e-05 1.18456e-24)
(0.0125183 5.77327e-05 4.4322e-26)
(0.0125458 5.94676e-05 1.02611e-24)
(0.0125733 6.06523e-05 -1.10319e-24)
(0.0126006 6.13345e-05 -2.38884e-25)
(0.0126277 6.15556e-05 -2.56761e-25)
(0.0126545 6.13512e-05 1.00908e-25)
(0.0126808 6.0752e-05 -7.19667e-25)
(0.0127065 5.97867e-05 2.42771e-24)
(0.0127316 5.84814e-05 3.72282e-25)
(0.012756 5.68608e-05 -5.96201e-25)
(0.0127797 5.49493e-05 -6.70212e-25)
(0.0128025 5.27695e-05 -4.00852e-25)
(0.0128243 5.03442e-05 -2.59238e-25)
(0.0107155 3.90786e-05 7.16609e-25)
(0.010741 4.1201e-05 -5.95363e-25)
(0.0107669 4.28827e-05 -1.68418e-24)
(0.0107931 4.41381e-05 1.55767e-24)
(0.0108193 4.49912e-05 8.70787e-25)
(0.0108453 4.54744e-05 -8.05764e-25)
(0.0108711 4.56141e-05 -2.7093e-25)
(0.0108966 4.54334e-05 1.09446e-24)
(0.0109215 4.49533e-05 -1.12235e-24)
(0.010946 4.4194e-05 -2.72818e-25)
(0.0109697 4.31745e-05 6.38513e-25)
(0.0109928 4.19134e-05 3.92979e-25)
(0.011015 4.04293e-05 -7.56681e-25)
(0.0110363 3.87398e-05 -6.06847e-26)
(0.0110566 3.68631e-05 2.87093e-25)
(0.0090964 2.78563e-05 -4.57509e-25)
(0.00911946 2.93432e-05 -2.02066e-25)
(0.00914295 3.05448e-05 4.0503e-25)
(0.00916664 3.14477e-05 -5.48014e-25)
(0.00919038 3.20675e-05 1.56643e-24)
(0.00921402 3.24249e-05 -9.2676e-25)
(0.00923745 3.25355e-05 -2.53698e-25)
(0.00926056 3.24137e-05 4.33986e-25)
(0.00928323 3.20731e-05 -4.9036e-25)
(0.00930538 3.15276e-05 -2.96101e-25)
(0.00932689 3.07902e-05 4.41139e-25)
(0.00934771 2.98747e-05 -5.71732e-25)
(0.00936771 2.87944e-05 8.78972e-25)
(0.00938686 2.75629e-05 2.17232e-25)
(0.00940503 2.61941e-05 -1.31235e-25)
(0.00760587 1.89284e-05 -2.24964e-25)
(0.00762569 1.99493e-05 8.35041e-26)
(0.00764595 2.07958e-05 1.14749e-25)
(0.00766643 2.14386e-05 -2.90253e-25)
(0.00768699 2.18914e-05 4.14065e-26)
(0.00770752 2.21656e-05 4.26141e-25)
(0.0077279 2.22694e-05 -1.39993e-25)
(0.00774801 2.22113e-05 -9.98262e-26)
(0.00776776 2.19998e-05 7.03701e-26)
(0.00778706 2.16438e-05 2.43378e-25)
(0.0078058 2.1152e-05 2.12583e-25)
(0.00782391 2.05339e-05 -8.80686e-25)
(0.00784131 1.9799e-05 -6.04231e-25)
(0.00785792 1.8957e-05 8.53369e-25)
(0.00787366 1.8018e-05 2.14833e-25)
(0.00624068 1.21852e-05 -8.25932e-26)
(0.00625691 1.28668e-05 -1.1166e-26)
(0.00627358 1.34485e-05 -9.13334e-25)
(0.0062905 1.3897e-05 4.35985e-25)
(0.00630755 1.42251e-05 -1.11219e-25)
(0.00632462 1.44372e-05 5.37228e-25)
(0.00634161 1.45371e-05 2.01284e-25)
(0.00635842 1.45295e-05 -3.53272e-25)
(0.00637496 1.44191e-05 7.75869e-25)
(0.00639114 1.42115e-05 -2.46181e-25)
(0.00640688 1.39121e-05 -5.44938e-25)
(0.00642209 1.35271e-05 1.18175e-24)
(0.00643671 1.30627e-05 -6.55e-25)
(0.00645067 1.2526e-05 2.12128e-25)
(0.00646389 1.19238e-05 -3.97701e-25)
(0.00499619 7.34991e-06 -3.25915e-25)
(0.00500883 7.78527e-06 -3.36903e-25)
(0.00502191 8.16914e-06 6.2378e-26)
(0.00503523 8.47121e-06 7.46693e-25)
(0.00504873 8.70225e-06 -3.22578e-25)
(0.0050623 8.8621e-06 9.5716e-26)
(0.00507586 8.95217e-06 4.58441e-26)
(0.00508932 8.9747e-06 -1.64495e-25)
(0.0051026 8.93223e-06 -8.42807e-27)
(0.00511564 8.82791e-06 9.99495e-25)
(0.00512834 8.66484e-06 1.93127e-25)
(0.00514065 8.44694e-06 -1.26572e-24)
(0.0051525 8.17793e-06 1.8286e-25)
(0.00516384 7.86272e-06 4.62696e-25)
(0.00517459 7.50574e-06 -3.46047e-25)
(0.00386659 4.0712e-06 -7.16407e-26)
(0.00387588 4.32984e-06 1.36553e-26)
(0.00388558 4.56766e-06 3.92611e-25)
(0.00389551 4.75984e-06 1.20448e-25)
(0.00390564 4.91365e-06 -2.43341e-25)
(0.00391588 5.02683e-06 -2.20942e-25)
(0.00392616 5.09974e-06 -1.5653e-26)
(0.00393642 5.1333e-06 3.19444e-25)
(0.00394658 5.12867e-06 -2.92526e-25)
(0.00395659 5.0875e-06 -4.77149e-25)
(0.00396639 5.01143e-06 -2.3303e-25)
(0.00397592 4.9027e-06 8.34136e-25)
(0.00398512 4.76338e-06 -2.4779e-25)
(0.00399395 4.59669e-06 2.94076e-25)
(0.00400235 4.4056e-06 -1.76756e-25)
(0.00284508 1.98952e-06 -1.32477e-25)
(0.00285142 2.12316e-06 2.04229e-26)
(0.00285811 2.25533e-06 3.29495e-25)
(0.00286502 2.36606e-06 -1.99029e-25)
(0.00287211 2.45872e-06 4.14402e-25)
(0.00287932 2.53079e-06 -5.86202e-25)
(0.00288662 2.58222e-06 1.02535e-25)
(0.00289394 2.61322e-06 2.61197e-25)
(0.00290123 2.62422e-06 -4.79206e-25)
(0.00290846 2.61597e-06 5.53529e-25)
(0.00291556 2.58919e-06 -2.29683e-25)
(0.0029225 2.54505e-06 -5.35853e-26)
(0.00292924 2.48451e-06 -1.86102e-25)
(0.00293573 2.40955e-06 2.56163e-25)
(0.00294194 2.32234e-06 -7.26357e-26)
(0.00192422 7.82543e-07 2.01662e-25)
(0.0019281 8.31694e-07 1.61966e-25)
(0.00193224 8.90412e-07 -7.3444e-25)
(0.00193656 9.42802e-07 4.65553e-25)
(0.00194103 9.89155e-07 -3.29174e-26)
(0.00194562 1.02762e-06 -9.33593e-28)
(0.0019503 1.05787e-06 -6.95338e-26)
(0.00195503 1.07974e-06 1.13378e-25)
(0.00195977 1.09318e-06 -1.9045e-25)
(0.0019645 1.09839e-06 -1.05917e-25)
(0.00196918 1.09552e-06 5.03656e-25)
(0.00197379 1.08505e-06 -1.69068e-25)
(0.00197828 1.06725e-06 -2.10084e-25)
(0.00198264 1.04319e-06 1.60823e-26)
(0.00198684 1.01457e-06 4.86232e-26)
(0.00109626 1.98868e-07 -2.03999e-25)
(0.00109817 2.11686e-07 5.68882e-25)
(0.00110025 2.32915e-07 2.10567e-25)
(0.00110245 2.52644e-07 -5.06185e-25)
(0.00110476 2.70538e-07 -5.2845e-26)
(0.00110715 2.86024e-07 -2.28753e-26)
(0.00110963 2.9894e-07 -2.70905e-27)
(0.00111215 3.09149e-07 6.11925e-26)
(0.0011147 3.16557e-07 -2.64435e-25)
(0.00111727 3.21177e-07 1.23051e-25)
(0.00111984 3.22985e-07 2.13051e-25)
(0.00112238 3.22124e-07 -1.71226e-25)
(0.00112487 3.18571e-07 3.83754e-25)
(0.00112732 3.12724e-07 -4.43018e-25)
(0.00112969 3.0576e-07 1.04972e-25)
(0.000353358 4.5928e-08 -1.45917e-27)
(0.000353788 9.16556e-08 1.05954e-25)
(0.000354288 1.25249e-07 8.46894e-26)
(0.000354838 1.46651e-07 -1.65636e-25)
(0.000355439 1.58499e-07 1.74824e-25)
(0.000356083 1.62936e-07 -1.97969e-25)
(0.000356765 1.61675e-07 -1.59696e-27)
(0.000357476 1.56052e-07 -9.19288e-26)
(0.00035821 1.47093e-07 1.36699e-25)
(0.000358961 1.35585e-07 1.0198e-25)
(0.000359722 1.2208e-07 -3.46495e-25)
(0.000360486 1.06987e-07 1.80129e-25)
(0.000361248 9.04935e-08 1.41925e-25)
(0.000362002 7.27828e-08 -1.29992e-25)
(0.000362744 5.42923e-08 8.65696e-27)
(0.00095977 -0.000268509 1.04081e-25)
(0.00109588 -0.00019942 2.76784e-24)
(0.00132326 -0.000128274 -8.10878e-24)
(0.00155422 -7.30377e-05 1.20889e-23)
(0.00177348 -3.18026e-05 -4.5398e-24)
(0.00198621 -3.40938e-06 -4.57066e-24)
(0.00219257 1.51401e-05 5.27716e-24)
(0.00239349 2.6435e-05 -1.05858e-23)
(0.00259013 3.26939e-05 6.44183e-25)
(0.00278352 3.57913e-05 6.7213e-24)
(0.00297462 3.73157e-05 -1.28057e-24)
(0.00316426 3.86898e-05 1.37702e-24)
(0.00335321 4.12905e-05 -1.37947e-25)
(0.00354227 4.65582e-05 8.38696e-25)
(0.00373252 5.60446e-05 -3.08242e-24)
(0.00392544 7.14665e-05 1.68431e-24)
(0.00412332 9.44917e-05 -5.27884e-25)
(0.00432954 0.000126572 3.04618e-26)
(0.00454905 0.000168554 1.28505e-24)
(0.00478759 0.000219212 -8.13314e-25)
(0.00505426 0.000273199 1.07479e-25)
(0.00535523 0.000322297 -9.55769e-26)
(0.00566783 0.000346454 1.92235e-25)
(0.00595043 0.000333205 7.69595e-25)
(0.00618819 0.000285333 -1.38184e-24)
(0.00638045 0.000208558 -1.00102e-24)
(0.0065284 0.00010821 -2.40867e-26)
(0.00663356 -1.13702e-05 2.59668e-24)
(0.0066967 -0.000146212 3.99016e-24)
(0.00671765 -0.000292072 -7.89743e-24)
(0.00669567 -0.000443806 7.66002e-24)
(0.00662991 -0.000595193 -7.68588e-24)
(0.00651992 -0.000738991 2.31673e-24)
(0.00636598 -0.000867168 1.28805e-24)
(0.00616913 -0.000971147 -1.37316e-24)
(0.00593111 -0.00104192 1.73679e-24)
(0.00565409 -0.00106987 9.12957e-25)
(0.00534051 -0.00104409 2.20832e-24)
(0.00499306 -0.000950953 1.74803e-24)
(0.00461529 -0.000771937 -8.14852e-24)
(0.00421154 -0.000483148 -1.12723e-25)
(0.00378908 -6.24021e-05 4.4e-24)
(0.00334266 0.000480572 1.82533e-24)
(0.00289734 0.00106407 -6.56662e-24)
(0.00264811 0.0013833 -3.58988e-25)
(0.00179732 -0.000351316 -3.12094e-24)
(0.00185257 -0.000316202 -4.58506e-24)
(0.00198891 -0.000247499 9.48815e-24)
(0.00216115 -0.00018401 4.6757e-24)
(0.00234249 -0.000131495 -1.63863e-23)
(0.00252815 -9.17423e-05 1.77989e-23)
(0.00271394 -6.29105e-05 -6.42301e-24)
(0.00289825 -4.25759e-05 5.26988e-24)
(0.00308077 -2.84476e-05 -6.95487e-24)
(0.00326166 -1.85074e-05 7.90003e-26)
(0.00344135 -1.10147e-05 -3.69533e-24)
(0.00362037 -4.41411e-06 7.30949e-24)
(0.00379929 2.77177e-06 -4.01915e-24)
(0.0039788 1.20429e-05 -3.55396e-24)
(0.00415991 2.4974e-05 -2.33184e-24)
(0.00434401 4.32684e-05 4.495e-24)
(0.00453328 6.85485e-05 -5.52399e-25)
(0.004731 0.000102202 2.37932e-24)
(0.00494193 0.000145053 4.16607e-25)
(0.00517154 0.000195825 -7.23545e-25)
(0.00542883 0.000249316 -3.19228e-25)
(0.00572012 0.000297814 -2.08302e-25)
(0.00602424 0.00032202 1.03887e-24)
(0.00630122 0.000310044 1.33867e-24)
(0.00653636 0.000264631 -1.14127e-24)
(0.00672848 0.000191325 -5.99201e-24)
(0.00687817 9.53906e-05 8.23795e-24)
(0.0069864 -1.87472e-05 -5.9643e-24)
(0.00705362 -0.000146997 2.02567e-24)
(0.00707958 -0.000284904 -1.46465e-24)
(0.0070636 -0.000427207 1.1459e-23)
(0.00700511 -0.000567637 -1.64692e-23)
(0.00690403 -0.000698988 9.99643e-24)
(0.00676114 -0.000813323 -9.19732e-24)
(0.00657812 -0.000902188 7.38027e-24)
(0.00635761 -0.000956688 -1.42058e-24)
(0.00610305 -0.000967317 5.73457e-24)
(0.0058188 -0.000923377 -4.38427e-25)
(0.00551057 -0.000811784 -6.88255e-24)
(0.00518682 -0.000615219 -5.42294e-24)
(0.0048608 -0.000311624 1.2441e-23)
(0.00455579 0.000119471 -1.30765e-23)
(0.00429963 0.000665982 -3.8792e-24)
(0.00414028 0.0012321 9.11511e-24)
(0.00414277 0.00147843 3.4667e-24)
(0.0027799 -0.000357744 -3.70545e-26)
(0.00278604 -0.00036315 -5.29453e-24)
(0.00283943 -0.000325776 1.01078e-23)
(0.00294379 -0.000272272 9.0032e-24)
(0.00307309 -0.000219652 -1.45557e-23)
(0.00321835 -0.000174769 2.82627e-25)
(0.00337225 -0.000139044 1.46079e-24)
(0.00353056 -0.000111511 1.61715e-23)
(0.00369113 -9.05118e-05 -1.91738e-23)
(0.00385287 -7.42644e-05 1.18392e-23)
(0.00401541 -6.10802e-05 3.53333e-24)
(0.00417873 -4.93887e-05 -1.95624e-23)
(0.00434309 -3.76784e-05 7.05525e-24)
(0.00450894 -2.4427e-05 2.77108e-24)
(0.00467713 -8.06152e-06 -5.70553e-24)
(0.00484891 1.30949e-05 9.22257e-24)
(0.00502634 4.0609e-05 -6.50257e-24)
(0.00521255 7.57957e-05 -1.5934e-25)
(0.0054121 0.000119464 4.77102e-25)
(0.00563015 0.00017028 5.45776e-25)
(0.00587561 0.000223172 5.8166e-26)
(0.00615487 0.000270951 3.51084e-25)
(0.00644842 0.000295094 -1.05846e-24)
(0.00671806 0.000284297 3.20221e-24)
(0.00694923 0.000241283 -5.19874e-24)
(0.0071402 0.000171432 3.01644e-24)
(0.00729087 7.99525e-05 -7.47554e-24)
(0.00740166 -2.86631e-05 1.01054e-23)
(0.00747268 -0.000150154 -9.97708e-24)
(0.00750357 -0.000279903 -6.19097e-26)
(0.00749376 -0.00041252 -8.13243e-25)
(0.00744295 -0.000541696 1.92345e-23)
(0.00735149 -0.00066028 -6.5222e-24)
(0.00722069 -0.000760478 -4.56441e-24)
(0.00705296 -0.000834056 4.93125e-24)
(0.0068519 -0.000872421 7.0132e-25)
(0.00662231 -0.000866521 -2.63042e-24)
(0.00637053 -0.000806464 1.04182e-23)
(0.00610515 -0.000680826 -2.18655e-23)
(0.00583895 -0.000475701 8.77575e-24)
(0.00559166 -0.00017531 3.56118e-24)
(0.0053948 0.000231242 6.52795e-24)
(0.00528678 0.000721778 -8.15528e-24)
(0.00530067 0.00119525 2.73068e-24)
(0.00543177 0.00138518 -1.7436e-24)
(0.00388933 -0.00033828 -1.34722e-24)
(0.00386652 -0.000368614 -2.1154e-24)
(0.00387082 -0.000358282 -9.10875e-24)
(0.00390988 -0.000327989 2.26382e-24)
(0.00398316 -0.000285751 1.54036e-24)
(0.00407966 -0.000243725 7.58954e-24)
(0.00419223 -0.000206503 -1.64159e-23)
(0.00431548 -0.000175277 6.18089e-24)
(0.00444583 -0.000149646 2.11604e-23)
(0.00458103 -0.000128524 -5.63588e-24)
(0.00471979 -0.000110579 -5.29233e-24)
(0.00486145 -9.44131e-05 -8.36487e-25)
(0.0050058 -7.85983e-05 2.70609e-24)
(0.00515299 -6.16638e-05 -5.25767e-24)
(0.00530364 -4.20901e-05 1.2188e-24)
(0.00545882 -1.82563e-05 -4.26682e-25)
(0.00562042 1.13224e-05 -2.5416e-24)
(0.00579141 4.78707e-05 9.09275e-25)
(0.00597612 9.21814e-05 4.54062e-24)
(0.00617938 0.000142855 -4.87406e-25)
(0.00640999 0.000194927 -1.07758e-24)
(0.00667437 0.000241769 -3.19806e-25)
(0.00695479 0.000265667 -1.87413e-24)
(0.00721496 0.000255923 -1.8051e-25)
(0.00744043 0.000215243 -4.78627e-24)
(0.00762886 0.000148856 8.09933e-24)
(0.00777942 6.19165e-05 -7.51649e-24)
(0.00789195 -4.10128e-05 1.4689e-23)
(0.00796619 -0.000155514 -1.3266e-23)
(0.00800167 -0.000276819 2.78745e-24)
(0.00799798 -0.000399437 6.1551e-24)
(0.0079551 -0.000517059 -4.4597e-26)
(0.00787383 -0.000622654 -2.76806e-25)
(0.00775607 -0.000708674 4.2086e-25)
(0.00760499 -0.000767267 -1.72444e-24)
(0.00742513 -0.000790404 -1.02598e-24)
(0.00722257 -0.000769901 9.23958e-24)
(0.00700538 -0.000697322 -4.48626e-24)
(0.00678437 -0.000563884 5.78734e-25)
(0.00657481 -0.00036056 -2.26467e-23)
(0.00639846 -7.98382e-05 1.765e-23)
(0.00628595 0.000278118 -7.64447e-24)
(0.00627064 0.000685677 1.2141e-24)
(0.00636779 0.0010609 1.07903e-23)
(0.00655263 0.00124527 -2.94868e-24)
(0.00511983 -0.000308411 -5.60341e-24)
(0.00508616 -0.000347994 1.15364e-23)
(0.00506098 -0.000357342 3.38617e-24)
(0.00505944 -0.000347024 1.45337e-23)
(0.00507988 -0.000323381 -3.58748e-23)
(0.00512727 -0.000290951 -1.17979e-24)