/*--------------------------------*- C++ -*----------------------------------*\
| =========                 |                                                 |
| \\      /  F ield         | OpenFOAM: The Open Source CFD Toolbox           |
|  \\    /   O peration     | Version:  2312                                  |
|   \\  /    A nd           | Website:  www.openfoam.com                      |
|    \\/     M anipulation  |                                                 |
\*---------------------------------------------------------------------------*/
FoamFile
{
    version     2.0;
    format      ascii;
    arch        "LSB;label=32;scalar=64";
    class       volVectorField;
    location    "22";
    object      U;
}
// * * * * * * * * * * * * * * * * * * * * * * * * * * * * * * * * * * * * * //

dimensions      [0 1 -1 0 0 0 0];

internalField   nonuniform List<vector> 
4800
(
(0.000466954 3.16251e-07 -2.69781e-26)
(0.000459201 3.46825e-07 -1.89585e-25)
(0.000454521 3.58432e-07 2.43343e-25)
(0.000451888 3.49091e-07 1.11262e-25)
(0.000450697 3.30712e-07 1.6447e-24)
(0.000450689 2.98001e-07 -3.91735e-24)
(0.00045162 2.57769e-07 3.66406e-24)
(0.000453385 1.81256e-07 -5.31909e-24)
(0.000456072 2.51286e-08 1.70554e-24)
(0.000459859 -2.40974e-07 5.81917e-24)
(0.000465155 -7.55289e-07 -1.79322e-24)
(0.000473246 -2.16578e-06 -1.51847e-25)
(0.000491368 -7.35928e-06 -2.18805e-24)
(0.000537444 -2.83341e-05 1.018e-24)
(0.000613563 -9.20721e-05 -8.09357e-25)
(0.00144387 1.65152e-06 -8.58276e-26)
(0.00142018 1.1969e-06 1.06972e-25)
(0.00140564 8.34678e-07 -9.85943e-25)
(0.0013972 5.06837e-07 7.36813e-25)
(0.00139304 1.88559e-07 2.36626e-24)
(0.00139236 -1.57106e-07 -3.75644e-24)
(0.00139435 -5.55012e-07 -1.07264e-24)
(0.00139873 -1.08274e-06 -2.56569e-25)
(0.00140576 -1.91057e-06 8.83615e-24)
(0.00141585 -3.24219e-06 -6.52868e-24)
(0.00143018 -5.71876e-06 7.10666e-25)
(0.00145153 -1.1587e-05 1.08389e-24)
(0.00148874 -2.85231e-05 -1.60328e-24)
(0.00155253 -8.00966e-05 -4.85457e-25)
(0.00162118 -0.000196253 2.09712e-24)
(0.00252374 5.30866e-06 -6.1443e-26)
(0.00248297 3.84062e-06 6.27851e-26)
(0.00245761 2.70117e-06 6.45354e-25)
(0.0024425 1.71187e-06 -1.53889e-24)
(0.00243463 7.32759e-07 1.5105e-24)
(0.00243249 -3.37571e-07 1.4077e-24)
(0.00243476 -1.57601e-06 -3.63685e-24)
(0.00244083 -3.20986e-06 -2.2818e-24)
(0.00245115 -5.60495e-06 5.48136e-24)
(0.00246596 -9.31136e-06 2.06729e-24)
(0.00248664 -1.58291e-05 -7.1878e-24)
(0.00251535 -2.91438e-05 -1.09055e-24)
(0.00255621 -5.88029e-05 3.07081e-24)
(0.00260801 -0.00012415 4.85971e-24)
(0.00264555 -0.00023273 -2.51057e-24)
(0.00371259 1.18756e-05 2.27138e-26)
(0.00365395 8.69871e-06 -1.58148e-25)
(0.00361692 6.24157e-06 7.0524e-25)
(0.00359433 4.12272e-06 7.54779e-25)
(0.00358192 2.04516e-06 -7.49686e-25)
(0.00357734 -2.30802e-07 -4.25661e-24)
(0.00357897 -2.72906e-06 -2.87966e-24)
(0.00358546 -6.04496e-06 1.10178e-23)
(0.0035975 -1.08e-05 4.59745e-24)
(0.0036147 -1.78094e-05 -6.60276e-24)
(0.00363789 -2.92327e-05 -2.66027e-24)
(0.00366748 -4.96063e-05 -2.03002e-24)
(0.00370272 -8.69275e-05 6.09114e-26)
(0.00373645 -0.000151176 1.50129e-24)
(0.00375036 -0.000237352 7.33653e-27)
(0.0050143 2.19834e-05 -4.16843e-26)
(0.00493772 1.62656e-05 -2.54921e-25)
(0.00488861 1.18512e-05 -1.61224e-25)
(0.00485788 8.06433e-06 4.35879e-25)
(0.00484015 4.40915e-06 -1.23964e-24)
(0.00483209 5.44893e-07 3.09377e-24)
(0.00483201 -3.90297e-06 -5.39687e-25)
(0.00483761 -9.25353e-06 1.89703e-24)
(0.00484941 -1.68523e-05 -1.06417e-23)
(0.00486638 -2.74971e-05 2.02086e-23)
(0.00488833 -4.34412e-05 -1.95526e-23)
(0.00491396 -6.84178e-05 1.03191e-23)
(0.0049399 -0.000107256 -9.57607e-24)
(0.00495846 -0.00016301 9.03281e-24)
(0.00495928 -0.000228102 -3.60139e-24)
(0.00642894 3.6339e-05 5.50745e-26)
(0.00633575 2.7169e-05 1.97149e-25)
(0.00627495 2.00947e-05 -1.04025e-24)
(0.00623594 1.40559e-05 -6.58616e-25)
(0.0062124 8.32531e-06 1.76683e-24)
(0.00620015 2.33687e-06 6.34223e-25)
(0.00619697 -4.28037e-06 -4.95903e-24)
(0.00620055 -1.22577e-05 1.184e-23)
(0.0062102 -2.28016e-05 -1.54251e-23)
(0.00622452 -3.68475e-05 3.69804e-24)
(0.00624234 -5.6205e-05 1.1255e-23)
(0.00626137 -8.31515e-05 -1.56347e-23)
(0.00627777 -0.000119566 7.8293e-24)
(0.00628581 -0.000164912 8.02203e-24)
(0.00628074 -0.00021298 -6.10572e-24)
(0.00795064 5.54445e-05 4.55436e-26)
(0.00784443 4.19414e-05 -2.69375e-25)
(0.00777378 3.15065e-05 9.64654e-25)
(0.00772732 2.26312e-05 -1.33829e-24)
(0.00769808 1.43364e-05 -4.54834e-24)
(0.00768137 5.82668e-06 7.75448e-24)
(0.00767436 -3.36803e-06 -4.71012e-24)
(0.00767464 -1.40905e-05 1.60383e-23)
(0.00768068 -2.74566e-05 -1.09079e-23)
(0.00769062 -4.42903e-05 -5.10003e-24)
(0.00770267 -6.56983e-05 -1.00338e-23)
(0.00771432 -9.2579e-05 9.22566e-24)
(0.00772245 -0.000124909 2.59475e-24)
(0.00772358 -0.000160901 2.21863e-24)
(0.00771617 -0.000196396 -1.95199e-24)
(0.00956525 7.91855e-05 -6.56355e-26)
(0.00945286 6.07064e-05 8.91365e-25)
(0.00937639 4.63421e-05 -2.07502e-24)
(0.00932481 3.41378e-05 -1.69931e-24)
(0.00929113 2.28652e-05 6.3597e-25)
(0.00927048 1.15495e-05 1.25154e-24)
(0.00925963 -4.40862e-07 4.49438e-24)
(0.00925603 -1.3871e-05 -1.22472e-23)
(0.00925766 -2.97043e-05 -6.5382e-24)
(0.00926242 -4.84969e-05 1.7988e-23)
(0.00926829 -7.06786e-05 -5.57547e-24)
(0.00927307 -9.62043e-05 1.90642e-23)
(0.00927465 -0.000124208 -1.00358e-23)
(0.00927118 -0.000152891 -3.19676e-24)
(0.00926267 -0.000179737 1.89229e-24)
(0.0112494 0.000106287 -8.67633e-27)
(0.0111413 8.27466e-05 4.92691e-25)
(0.0110657 6.42255e-05 -7.01565e-25)
(0.0110134 4.84399e-05 1.68136e-24)
(0.010978 3.39666e-05 -1.00276e-23)
(0.0109551 1.97239e-05 1.05881e-23)
(0.0109415 4.97339e-06 -1.669e-23)
(0.0109344 -1.09451e-05 1.026e-23)
(0.0109319 -2.87278e-05 7.63245e-24)
(0.0109318 -4.86373e-05 1.65684e-23)
(0.0109321 -7.06194e-05 -2.16392e-23)
(0.0109314 -9.41692e-05 -3.99998e-24)
(0.0109282 -0.000118278 1.84896e-24)
(0.0109217 -0.000141594 1.31817e-23)
(0.0109125 -0.000162695 -5.35921e-24)
(0.0129734 0.000133807 4.74873e-26)
(0.0128824 0.000106018 -2.06696e-25)
(0.0128165 8.37039e-05 9.24538e-25)
(0.0127697 6.45101e-05 -3.24246e-24)
(0.0127371 4.69491e-05 4.91551e-24)
(0.012715 2.99287e-05 -6.34734e-24)
(0.0127008 1.27058e-05 1.06266e-23)
(0.012692 -5.26986e-06 1.86298e-24)
(0.0126866 -2.43796e-05 -1.46471e-23)
(0.0126829 -4.46652e-05 2.08555e-23)
(0.0126794 -6.58261e-05 -2.29983e-23)
(0.012675 -8.72566e-05 -6.76502e-24)
(0.0126689 -0.000108127 1.1935e-23)
(0.0126607 -0.00012758 3.53746e-24)
(0.0126513 -0.00014486 -1.54461e-24)
(0.0147116 0.000157292 1.88858e-25)
(0.0146486 0.00012702 -1.60653e-24)
(0.0146011 0.000101997 -2.58578e-24)
(0.0145663 8.01213e-05 6.12896e-24)
(0.0145414 6.00323e-05 2.74044e-24)
(0.0145242 4.0746e-05 -1.72122e-23)
(0.0145124 2.16191e-05 5.30333e-24)
(0.0145043 2.24021e-06 3.81913e-24)
(0.0144984 -1.75223e-05 -1.6505e-23)
(0.0144933 -3.75769e-05 1.71958e-23)
(0.0144882 -5.75676e-05 -1.37482e-23)
(0.0144822 -7.69847e-05 3.53196e-23)
(0.0144751 -9.52612e-05 -1.69702e-23)
(0.0144667 -0.000111922 9.98393e-24)
(0.0144578 -0.000126608 -2.72305e-24)
(0.0164581 0.000172556 -6.97444e-26)
(0.0164259 0.00014185 1.08293e-24)
(0.0164006 0.000115614 -2.12796e-24)
(0.0163816 9.21993e-05 -1.08346e-24)
(0.016368 7.05216e-05 1.21017e-23)
(0.0163584 4.98126e-05 -1.75782e-24)
(0.0163518 2.95942e-05 -2.15198e-23)
(0.0163469 9.62816e-06 2.50977e-23)
(0.0163428 -1.00989e-05 -5.64033e-24)
(0.0163387 -2.94268e-05 -1.95041e-23)
(0.0163341 -4.80518e-05 2.07988e-23)
(0.0163286 -6.56277e-05 1.12033e-23)
(0.0163223 -8.18221e-05 -9.43019e-24)
(0.016315 -9.64148e-05 -1.63139e-23)
(0.0163075 -0.000109267 1.3683e-24)
(0.0182335 0.000178745 -2.5641e-27)
(0.0182242 0.000148742 -1.20339e-24)
(0.0182168 0.000122401 5.76724e-24)
(0.0182117 9.84686e-05 3.71513e-25)
(0.0182087 7.61482e-05 3.30404e-24)
(0.018207 5.49099e-05 -1.1815e-23)
(0.018206 3.44481e-05 1.00955e-23)
(0.0182052 1.46554e-05 2.29752e-24)
(0.0182041 -4.42811e-06 2.07496e-23)
(0.0182022 -2.26525e-05 -3.2062e-23)
(0.0181995 -3.98097e-05 -1.45045e-23)
(0.0181958 -5.5707e-05 -9.57841e-24)
(0.0181914 -7.01847e-05 1.80411e-23)
(0.0181859 -8.31751e-05 -5.18237e-25)
(0.0181805 -9.46588e-05 1.74681e-24)
(0.0200644 0.000179284 -1.78488e-26)
(0.0200653 0.000149867 1.22362e-24)
(0.0200668 0.000123631 -1.78444e-24)
(0.0200691 9.95819e-05 -6.33615e-28)
(0.0200719 7.71282e-05 2.38636e-24)
(0.0200747 5.59162e-05 6.08392e-24)
(0.0200773 3.57605e-05 -2.35927e-23)
(0.0200792 1.66114e-05 1.9909e-24)
(0.0200802 -1.49568e-06 1.19977e-23)
(0.0200801 -1.84689e-05 -5.5214e-24)
(0.0200792 -3.42041e-05 1.50781e-23)
(0.0200772 -4.86288e-05 1.05479e-23)
(0.0200745 -6.16979e-05 -1.91414e-23)
(0.0200709 -7.34296e-05 1.30841e-23)
(0.0200673 -8.38653e-05 -1.08749e-23)
(0.0219448 0.000178251 -5.30396e-25)
(0.0219478 0.000149112 2.7752e-25)
(0.0219513 0.000122853 2.1195e-24)
(0.021955 9.87166e-05 -1.1013e-23)
(0.0219589 7.62699e-05 9.71008e-24)
(0.0219625 5.52736e-05 -7.11247e-24)
(0.0219656 3.56025e-05 5.09867e-24)
(0.0219678 1.72091e-05 -3.62375e-23)
(0.0219691 8.55187e-08 5.23044e-23)
(0.0219695 -1.5753e-05 -3.08181e-23)
(0.0219691 -3.02942e-05 2.75283e-23)
(0.0219677 -4.35512e-05 2.30127e-23)
(0.021966 -5.55506e-05 -4.02032e-23)
(0.0219634 -6.63567e-05 1.30775e-23)
(0.0219608 -7.60401e-05 -5.49196e-25)
(0.0238181 0.000176769 -1.88032e-26)
(0.0238221 0.000148219 -1.62238e-25)
(0.0238258 0.000122196 1.23716e-25)
(0.0238292 9.8217e-05 -3.03354e-25)
(0.0238324 7.60039e-05 3.95368e-24)
(0.0238351 5.53974e-05 -6.80268e-24)
(0.0238373 3.63036e-05 6.33594e-24)
(0.0238387 1.86561e-05 -2.00798e-23)
(0.0238393 2.40361e-06 4.57173e-23)
(0.0238392 -1.25073e-05 -5.85489e-23)
(0.0238385 -2.61311e-05 4.79804e-23)
(0.0238371 -3.85341e-05 -1.62072e-23)
(0.0238354 -4.97833e-05 8.41797e-25)
(0.023833 -5.99653e-05 3.71501e-24)
(0.0238308 -6.91621e-05 -7.12733e-24)
(0.0255915 0.000173737 -1.55639e-24)
(0.0255975 0.000146471 2.80171e-24)
(0.025602 0.000121295 -9.40648e-25)
(0.0256056 9.80066e-05 -1.52356e-24)
(0.0256086 7.64631e-05 6.21983e-24)
(0.0256108 5.65672e-05 -6.33726e-24)
(0.0256124 3.82385e-05 -5.7288e-24)
(0.0256132 2.13981e-05 -1.38601e-23)
(0.0256134 5.96352e-06 7.05961e-24)
(0.0256128 -8.15166e-06 3.37442e-23)
(0.0256118 -2.10423e-05 -1.78253e-23)
(0.0256103 -3.28004e-05 1.06352e-23)
(0.0256085 -4.35101e-05 -4.37816e-24)
(0.0256062 -5.32649e-05 -1.29761e-23)
(0.025604 -6.2148e-05 6.64205e-24)
(0.0271481 0.000168097 5.10918e-25)
(0.0271562 0.000142816 -8.87174e-25)
(0.0271621 0.000119155 -2.621e-25)
(0.0271664 9.71427e-05 -7.37031e-25)
(0.0271696 7.67544e-05 -1.84653e-24)
(0.0271719 5.79324e-05 9.59273e-24)
(0.0271734 4.06102e-05 -7.72527e-24)
(0.0271741 2.46962e-05 -4.98907e-24)
(0.0271743 1.01012e-05 4.57103e-24)
(0.0271737 -3.27976e-06 -5.39612e-24)
(0.0271728 -1.55353e-05 1.25751e-23)
(0.0271713 -2.67633e-05 6.38227e-24)
(0.0271697 -3.70544e-05 -2.38225e-23)
(0.0271676 -4.64999e-05 1.64614e-23)
(0.0271655 -5.51753e-05 -3.35732e-24)
(0.0283359 0.000159679 1.50919e-24)
(0.0283457 0.000136931 2.54494e-24)
(0.0283528 0.000115352 -5.66931e-24)
(0.028358 9.51309e-05 -3.0104e-25)
(0.0283618 7.63263e-05 1.30303e-24)
(0.0283644 5.89143e-05 -2.90849e-24)
(0.0283662 4.2842e-05 -4.6445e-24)
(0.0283672 2.80209e-05 1.00582e-23)
(0.0283676 1.43654e-05 1.12434e-23)
(0.0283673 1.77236e-06 -2.73107e-23)
(0.0283666 -9.83977e-06 1.57545e-23)
(0.0283654 -2.05662e-05 -1.10198e-24)
(0.028364 -3.04877e-05 -9.18972e-25)
(0.0283623 -3.96814e-05 1.23952e-24)
(0.0283605 -4.82082e-05 -5.71981e-25)
(0.0289492 0.000147077 -3.95589e-24)
(0.0289608 0.000127291 -8.51065e-24)
(0.0289694 0.000108268 4.58386e-24)
(0.0289759 9.02825e-05 1.55059e-23)
(0.0289807 7.34399e-05 -4.32778e-24)
(0.0289844 5.77477e-05 -1.21416e-24)
(0.028987 4.31672e-05 5.63324e-25)
(0.0289888 2.96313e-05 -4.47159e-24)
(0.0289898 1.70669e-05 1.21381e-23)
(0.0289902 5.39421e-06 -5.36836e-24)
(0.0289901 -5.46252e-06 3.2301e-24)
(0.0289894 -1.55818e-05 -5.10441e-24)
(0.0289883 -2.50226e-05 -5.85187e-24)
(0.0289869 -3.38439e-05 8.76699e-24)
(0.0289852 -4.20924e-05 -3.83341e-24)
(0.0287685 0.000132982 6.26726e-24)
(0.0287806 0.000116129 -1.4401e-23)
(0.0287899 9.9716e-05 2.35842e-24)
(0.0287972 8.40398e-05 2.0779e-23)
(0.0288028 6.9223e-05 -2.01541e-23)
(0.0288071 5.52955e-05 7.01318e-24)
(0.0288104 4.22304e-05 4.53849e-24)
(0.0288128 2.99832e-05 -1.02253e-23)
(0.0288144 1.84956e-05 2.36696e-24)
(0.0288154 7.71908e-06 1.16713e-24)
(0.0288158 -2.39881e-06 -9.95872e-25)
(0.0288157 -1.18886e-05 2.11948e-24)
(0.0288151 -2.07897e-05 -2.60637e-24)
(0.0288142 -2.9154e-05 1.77384e-24)
(0.0288129 -3.70233e-05 -8.24018e-25)
(0.027825 0.000117613 3.88649e-24)
(0.027838 0.000103446 -8.19904e-24)
(0.0278481 8.95187e-05 -5.64546e-24)
(0.027856 7.60972e-05 2.65277e-23)
(0.0278619 6.33035e-05 -2.43507e-23)
(0.0278665 5.11679e-05 2.59882e-24)
(0.0278698 3.96807e-05 4.06861e-24)
(0.0278722 2.88083e-05 2.1883e-24)
(0.0278737 1.85192e-05 1.71398e-24)
(0.0278745 8.77871e-06 -7.83843e-24)
(0.0278746 -4.34053e-07 5.03821e-24)
(0.0278743 -9.14921e-06 7.31441e-25)
(0.0278734 -1.73971e-05 -1.57369e-24)
(0.0278722 -2.52093e-05 8.74165e-25)
(0.0278705 -3.26096e-05 5.81503e-25)
(0.0263235 0.00010226 9.66605e-24)
(0.0263368 9.04374e-05 -1.71652e-23)
(0.0263475 7.87297e-05 3.50414e-24)
(0.0263562 6.73625e-05 -8.32533e-24)
(0.0263631 5.64406e-05 -1.07598e-23)
(0.0263686 4.5994e-05 3.64923e-23)
(0.026373 3.60239e-05 -1.40914e-23)
(0.0263763 2.65121e-05 3.93178e-24)
(0.0263787 1.7445e-05 -2.15234e-24)
(0.0263804 8.79818e-06 -5.00929e-24)
(0.0263813 5.55085e-07 9.12003e-24)
(0.0263817 -7.32438e-06 -4.5056e-24)
(0.0263814 -1.48522e-05 7.01084e-25)
(0.0263807 -2.20362e-05 2.45729e-25)
(0.0263795 -2.88798e-05 1.86856e-26)
(0.024502 8.89045e-05 3.72128e-24)
(0.0245153 7.89966e-05 -1.92322e-23)
(0.0245263 6.91118e-05 3.3351e-23)
(0.0245354 5.94352e-05 -2.54432e-23)
(0.0245428 5.00521e-05 2.53806e-23)
(0.0245488 4.09971e-05 -8.43301e-24)
(0.0245535 3.22761e-05 -5.81072e-24)
(0.0245573 2.38886e-05 -6.29395e-24)
(0.0245601 1.58238e-05 1.08918e-23)
(0.0245621 8.07472e-06 -6.00172e-25)
(0.0245633 6.23894e-07 -1.0121e-23)
(0.0245639 -6.5272e-06 -1.09282e-24)
(0.0245639 -1.33822e-05 1.9733e-24)
(0.0245633 -1.99453e-05 -3.38553e-25)
(0.0245621 -2.6215e-05 5.06735e-26)
(0.0224981 7.65404e-05 4.95224e-25)
(0.0225116 6.82311e-05 -7.23792e-24)
(0.0225229 5.98812e-05 -4.04404e-24)
(0.0225324 5.16368e-05 3.30409e-23)
(0.0225402 4.3572e-05 -3.247e-23)
(0.0225467 3.57222e-05 9.48449e-24)
(0.0225519 2.81047e-05 1.59614e-24)
(0.0225561 2.07265e-05 -8.33598e-25)
(0.0225593 1.35911e-05 -3.87425e-24)
(0.0225616 6.69775e-06 1.6654e-23)
(0.0225631 4.99012e-08 -1.32025e-23)
(0.0225639 -6.35065e-06 -5.23568e-25)
(0.022564 -1.25009e-05 1.06935e-24)
(0.0225635 -1.83996e-05 7.07789e-25)
(0.0225624 -2.40424e-05 -5.26209e-25)
(0.0204157 6.50314e-05 7.37082e-25)
(0.0204294 5.80545e-05 6.72733e-24)
(0.0204411 5.10039e-05 -7.71932e-24)
(0.020451 4.39939e-05 -5.3412e-24)
(0.0204593 3.70874e-05 3.39753e-23)
(0.0204662 3.03199e-05 -2.59837e-23)
(0.0204719 2.37154e-05 -5.96744e-25)
(0.0204765 1.72868e-05 -5.34599e-24)
(0.0204801 1.10457e-05 -4.09302e-25)
(0.0204828 4.99612e-06 7.80682e-25)
(0.0204846 -8.49691e-07 -2.73258e-24)
(0.0204856 -6.49322e-06 2.32409e-24)
(0.0204859 -1.19276e-05 8.36243e-25)
(0.0204855 -1.71469e-05 7.12615e-25)
(0.0204844 -2.21435e-05 6.46267e-25)
(0.0183304 5.43209e-05 5.25355e-24)
(0.0183443 4.84661e-05 -8.05645e-24)
(0.0183563 4.25307e-05 -6.46892e-24)
(0.0183666 3.66016e-05 1.97303e-23)
(0.0183754 3.07284e-05 -7.06652e-24)
(0.0183828 2.49458e-05 -9.93272e-24)
(0.0183889 1.92788e-05 3.4753e-24)
(0.0183939 1.37446e-05 7.7409e-24)
(0.0183978 8.35585e-06 -1.22746e-23)
(0.0184008 3.11968e-06 1.21038e-23)
(0.0184028 -1.95261e-06 -6.40329e-24)
(0.018404 -6.85711e-06 2.69328e-24)
(0.0184044 -1.15843e-05 -3.35646e-24)
(0.018404 -1.61259e-05 3.23267e-24)
(0.0184029 -2.04726e-05 -7.32182e-25)
(0.0162953 4.43764e-05 -1.01968e-24)
(0.0163093 3.94896e-05 -3.54018e-24)
(0.0163215 3.45323e-05 -1.12838e-23)
(0.0163321 2.95653e-05 3.1503e-23)
(0.0163411 2.46254e-05 -5.64708e-24)
(0.0163488 1.97457e-05 -8.87789e-24)
(0.0163552 1.49494e-05 3.06989e-24)
(0.0163604 1.02564e-05 -4.45304e-24)
(0.0163645 5.67452e-06 -9.57656e-24)
(0.0163676 1.22243e-06 9.22611e-24)
(0.0163697 -3.10295e-06 4.41004e-25)
(0.0163709 -7.2873e-06 -2.85883e-24)
(0.0163711 -1.13175e-05 3.26445e-24)
(0.0163706 -1.51852e-05 1.80519e-25)
(0.0163692 -1.88812e-05 -2.31483e-25)
(0.0143455 3.52784e-05 3.92394e-24)
(0.0143593 3.12491e-05 5.77539e-24)
(0.0143714 2.71667e-05 -5.38216e-24)
(0.0143819 2.30669e-05 -1.17629e-23)
(0.014391 1.89787e-05 1.58346e-23)
(0.0143986 1.49323e-05 -1.73328e-23)
(0.0144049 1.09491e-05 -6.7186e-25)
(0.0144101 7.04635e-06 6.71646e-24)
(0.0144141 3.23298e-06 2.33651e-24)
(0.014417 -4.74507e-07 -4.80968e-24)
(0.0144188 -4.0778e-06 2.82852e-26)
(0.0144197 -7.55912e-06 9.73606e-24)
(0.0144196 -1.09063e-05 -3.71814e-24)
(0.0144186 -1.41122e-05 -9.20792e-25)
(0.0144168 -1.71676e-05 -5.50701e-26)
(0.012502 2.71897e-05 -4.07591e-24)
(0.0125153 2.39322e-05 5.24724e-24)
(0.0125269 2.06382e-05 5.91179e-25)
(0.0125369 1.73238e-05 1.06326e-23)
(0.0125455 1.40141e-05 -8.66511e-24)
(0.0125528 1.07359e-05 6.93562e-25)
(0.0125587 7.50822e-06 -9.29392e-25)
(0.0125634 4.34293e-06 -2.72778e-24)
(0.0125669 1.25443e-06 2.38061e-24)
(0.0125693 -1.75691e-06 -7.68481e-24)
(0.0125706 -4.6722e-06 5.45439e-25)
(0.0125709 -7.48205e-06 1.83239e-24)
(0.0125702 -1.01783e-05 1.13516e-24)
(0.0125686 -1.27541e-05 4.38857e-25)
(0.012566 -1.52003e-05 1.52608e-25)
(0.010776 2.02641e-05 3.01883e-24)
(0.0107882 1.76991e-05 -2.38803e-24)
(0.0107989 1.51101e-05 -1.05098e-23)
(0.0108081 1.25004e-05 9.86833e-24)
(0.0108158 9.8944e-06 1.38025e-23)
(0.0108223 7.31407e-06 -3.49315e-24)
(0.0108275 4.77397e-06 -7.13789e-24)
(0.0108314 2.28427e-06 -1.00247e-23)
(0.0108342 -1.42915e-07 7.5615e-24)
(0.0108358 -2.50864e-06 4.41638e-25)
(0.0108364 -4.79206e-06 -1.69664e-24)
(0.0108359 -6.98728e-06 -4.5518e-25)
(0.0108345 -9.08836e-06 9.36683e-25)
(0.0108321 -1.10887e-05 -3.56519e-26)
(0.0108288 -1.29799e-05 -1.76043e-25)
(0.00917165 1.45727e-05 -1.89962e-24)
(0.00918247 1.26164e-05 -1.35529e-24)
(0.0091919 1.06444e-05 1.64817e-24)
(0.00919993 8.65395e-06 -5.24113e-24)
(0.00920663 6.66875e-06 1.72049e-23)
(0.00921206 4.70489e-06 -2.2835e-23)
(0.00921626 2.77265e-06 2.24218e-23)
(0.00921929 8.82166e-07 -9.5026e-24)
(0.00922119 -9.62824e-07 2.16466e-24)
(0.00922201 -2.75379e-06 3.06898e-26)
(0.00922177 -4.47903e-06 -1.68994e-24)
(0.00922054 -6.13371e-06 5.6452e-25)
(0.00921835 -7.71251e-06 -1.28186e-24)
(0.00921525 -9.20951e-06 -1.65981e-25)
(0.00921125 -1.06177e-05 8.27025e-26)
(0.0076892 1.00818e-05 -9.22788e-25)
(0.00769844 8.64361e-06 2.36078e-25)
(0.00770643 7.19582e-06 5.14257e-25)
(0.00771315 5.73373e-06 -2.39128e-24)
(0.00771865 4.27896e-06 -1.08219e-24)
(0.00772297 2.84125e-06 9.35335e-24)
(0.00772616 1.42794e-06 -5.50142e-24)
(0.00772825 4.87869e-08 7.89564e-25)
(0.00772929 -1.29884e-06 -7.6418e-25)
(0.00772931 -2.60203e-06 -8.24486e-25)
(0.00772836 -3.85485e-06 -2.37972e-25)
(0.00772648 -5.05329e-06 1.55925e-24)
(0.0077237 -6.19285e-06 3.83835e-25)
(0.00772007 -7.26861e-06 -9.18067e-25)
(0.00771562 -8.27528e-06 -1.37934e-25)
(0.0063262 6.67375e-06 -3.35437e-25)
(0.0063338 5.66058e-06 -1.11256e-25)
(0.00634031 4.6434e-06 -5.41446e-24)
(0.0063457 3.61709e-06 1.42955e-24)
(0.00635001 2.59923e-06 -3.9069e-24)
(0.00635326 1.59395e-06 2.72568e-24)
(0.0063555 6.07038e-07 5.17664e-24)
(0.00635676 -3.54109e-07 3.88681e-24)
(0.00635707 -1.29258e-06 -5.45125e-24)
(0.00635646 -2.19861e-06 1.64345e-24)
(0.00635498 -3.06749e-06 1.39619e-24)
(0.00635266 -3.89628e-06 -1.99196e-24)
(0.00634953 -4.68171e-06 1.06111e-24)
(0.00634565 -5.41984e-06 -7.23812e-26)
(0.00634104 -6.10684e-06 2.58698e-25)
(0.00507852 4.18498e-06 -1.31308e-24)
(0.00508454 3.50729e-06 -1.80085e-24)
(0.00508965 2.83146e-06 -3.29351e-25)
(0.0050938 2.15133e-06 4.48139e-24)
(0.00509701 1.47923e-06 -3.17589e-24)
(0.00509932 8.15187e-07 -6.19343e-25)
(0.00510076 1.64823e-07 5.12084e-24)
(0.00510135 -4.68171e-07 1.4731e-26)
(0.00510111 -1.08537e-06 -1.03801e-24)
(0.00510009 -1.68064e-06 -3.79534e-24)
(0.00509831 -2.25019e-06 4.27215e-25)
(0.00509581 -2.79199e-06 2.59613e-24)
(0.00509262 -3.30386e-06 -3.33876e-25)
(0.00508878 -3.7828e-06 -3.4638e-25)
(0.00508432 -4.22597e-06 2.27226e-25)
(0.0039409 2.43986e-06 -2.86804e-25)
(0.00394548 2.01605e-06 1.68675e-26)
(0.00394931 1.59982e-06 2.14796e-24)
(0.00395234 1.18284e-06 1.43986e-24)
(0.00395462 7.72232e-07 -9.89888e-25)
(0.00395616 3.65968e-07 -2.45407e-24)
(0.00395697 -3.0478e-08 9.94427e-25)
(0.00395708 -4.18281e-07 -4.16976e-24)
(0.00395653 -7.93222e-07 3.21147e-24)
(0.00395531 -1.15664e-06 1.64724e-24)
(0.00395348 -1.50331e-06 -1.3815e-26)
(0.00395105 -1.83224e-06 -1.78988e-24)
(0.00394805 -2.14208e-06 3.20786e-25)
(0.00394453 -2.43055e-06 -2.37841e-25)
(0.0039405 -2.69546e-06 1.16878e-25)
(0.0029073 1.27257e-06 -5.27719e-25)
(0.00291057 1.02906e-06 1.06255e-26)
(0.00291328 7.98318e-07 1.72099e-24)
(0.00291537 5.69444e-07 -1.07594e-24)
(0.00291687 3.45422e-07 4.4323e-24)
(0.00291781 1.25005e-07 -8.07628e-24)
(0.00291818 -9.32763e-08 6.53666e-24)
(0.00291802 -3.01946e-07 -5.45253e-24)
(0.00291733 -5.09342e-07 3.93975e-24)
(0.00291613 -7.06078e-07 -2.52239e-24)
(0.00291445 -8.9415e-07 8.66424e-25)
(0.00291232 -1.07212e-06 1.24968e-25)
(0.00290974 -1.23896e-06 1.94779e-25)
(0.00290676 -1.393e-06 -2.39018e-25)
(0.0029034 -1.53242e-06 4.82854e-26)
(0.00197113 5.43607e-07 8.00196e-25)
(0.00197327 4.16053e-07 8.65287e-25)
(0.00197501 3.05928e-07 -3.69883e-24)
(0.00197631 1.99639e-07 2.7059e-24)
(0.0019772 9.75257e-08 -2.62814e-26)
(0.0019777 1.16323e-09 6.97348e-25)
(0.00197779 -9.96504e-08 -8.50114e-25)
(0.00197752 -1.94464e-07 -1.77669e-24)
(0.00197687 -2.85747e-07 1.76698e-24)
(0.00197586 -3.71819e-07 1.82925e-25)
(0.00197451 -4.53179e-07 -1.40202e-24)
(0.00197284 -5.2883e-07 5.03219e-25)
(0.00197086 -5.99488e-07 2.95429e-25)
(0.0019686 -6.64331e-07 -3.52452e-26)
(0.00196607 -7.21815e-07 -3.24574e-26)
(0.00112557 1.60339e-07 -8.06928e-25)
(0.00112671 1.13527e-07 2.46787e-24)
(0.00112763 8.31873e-08 1.47267e-24)
(0.00112829 5.35681e-08 -2.65031e-24)
(0.00112871 2.43389e-08 -3.10592e-25)
(0.0011289 -3.15661e-09 -2.75325e-25)
(0.00112886 -3.47811e-08 8.39617e-25)
(0.0011286 -6.4057e-08 -1.42296e-24)
(0.00112812 -9.21404e-08 1.93307e-24)
(0.00112743 -1.19161e-07 -9.46155e-25)
(0.00112654 -1.4358e-07 -6.10742e-25)
(0.00112546 -1.63355e-07 3.67391e-25)
(0.0011242 -1.84881e-07 -4.28305e-25)
(0.00112278 -2.08399e-07 4.26347e-25)
(0.0011212 -2.32632e-07 -7.03145e-26)
(0.00036371 5.95036e-08 -5.75711e-27)
(0.000363988 1.13721e-07 4.79086e-25)
(0.0003642 1.58208e-07 5.4826e-25)
(0.000364336 1.87359e-07 -8.5906e-25)
(0.000364402 2.0316e-07 1.78534e-24)
(0.000364397 2.07674e-07 -1.93835e-24)
(0.000364321 2.02503e-07 1.27142e-25)
(0.000364176 1.89856e-07 1.06696e-24)
(0.000363963 1.70743e-07 -1.47467e-24)
(0.000363683 1.46466e-07 -2.64786e-25)
(0.00036334 1.19131e-07 1.01025e-24)
(0.000362935 9.09437e-08 -4.44543e-25)
(0.000362472 5.79999e-08 -1.61302e-25)
(0.000361957 2.06076e-08 1.34315e-25)
(0.000361392 -2.01508e-08 -5.81555e-27)
(0.000909788 -0.000239407 8.03548e-26)
(0.00104245 -0.000159515 2.04621e-24)
(0.00126589 -7.75948e-05 -5.86702e-24)
(0.00149457 -1.16878e-05 8.49574e-24)
(0.00171459 3.9855e-05 -3.18647e-24)
(0.00193074 7.77997e-05 -3.04355e-24)
(0.00214296 0.000104616 3.45039e-24)
(0.00235183 0.000122351 -6.7959e-24)
(0.00255807 0.000132725 4.44338e-25)
(0.00276228 0.000137222 4.26861e-24)
(0.00296499 0.000137119 -8.11899e-25)
(0.00316674 0.000133552 8.75721e-25)
(0.00336805 0.000127578 -8.58518e-26)
(0.00356954 0.000120238 5.42339e-25)
(0.00377205 0.000112614 -1.99018e-24)
(0.00397665 0.000105899 1.08869e-24)
(0.00418511 0.000101391 -3.35821e-25)
(0.00439983 0.00010051 2.617e-26)
(0.00462469 0.000104381 7.79711e-25)
(0.00486446 0.000113546 -4.87264e-25)
(0.00512566 0.000126199 5.98071e-26)
(0.00541328 0.000137433 -5.22871e-26)
(0.00570533 0.000136066 9.9749e-26)
(0.00596473 0.000114813 3.85655e-25)
(0.0061786 7.44986e-05 -6.92137e-25)
(0.00634678 1.79738e-05 -4.64508e-25)
(0.00647089 -5.16684e-05 2.60112e-26)
(0.00655319 -0.000131789 1.12888e-24)
(0.00659545 -0.000219897 1.43057e-24)
(0.00659863 -0.000313143 -2.77193e-24)
(0.00656309 -0.000407841 1.89179e-24)
(0.00648892 -0.000499233 -1.34008e-24)
(0.00637636 -0.000581477 1.56815e-25)
(0.00622603 -0.000647781 -1.17154e-24)
(0.00603909 -0.000690561 1.1286e-24)
(0.00581715 -0.000701483 7.48903e-24)
(0.00556218 -0.000671243 -2.05975e-24)
(0.00527647 -0.000588851 1.92659e-24)
(0.00496272 -0.000440227 1.03503e-24)
(0.00462463 -0.000206589 -1.10648e-23)
(0.004266 0.000134212 -1.35103e-25)
(0.00389192 0.000596125 4.66971e-24)
(0.00349125 0.00114965 1.49551e-24)
(0.0030819 0.00167337 -6.55215e-24)
(0.00285025 0.00180008 -3.25609e-25)
(0.0017132 -0.000319661 -2.3547e-24)
(0.00176872 -0.000274395 -3.29575e-24)
(0.00190691 -0.00019555 6.92365e-24)
(0.00208067 -0.000122531 3.1955e-24)
(0.00226561 -6.07755e-05 -1.11696e-23)
(0.00245702 -1.24045e-05 1.18808e-23)
(0.00265078 2.39878e-05 -4.25358e-24)
(0.00284506 5.02807e-05 3.36315e-24)
(0.00303924 6.82366e-05 -4.44742e-24)
(0.00323311 7.94471e-05 5.14595e-26)
(0.00342673 8.52973e-05 -2.34746e-24)
(0.00362029 8.70162e-05 4.65179e-24)
(0.00381411 8.57341e-05 -2.56875e-24)
(0.00400862 8.25449e-05 -2.29906e-24)
(0.00420451 7.85643e-05 -1.51818e-24)
(0.00440271 7.49944e-05 2.91457e-24)
(0.00460479 7.31217e-05 -3.43533e-25)
(0.00481289 7.43272e-05 1.50486e-24)
(0.00503058 7.96992e-05 2.33217e-25)
(0.00526223 8.9766e-05 -4.44078e-25)
(0.00551396 0.000102835 -1.83819e-25)
(0.00579054 0.000114342 -1.10758e-25)
(0.00607134 0.00011367 5.39992e-25)
(0.00632141 9.40373e-05 6.61344e-25)
(0.00652853 5.63196e-05 -5.94843e-25)
(0.00669239 3.24315e-06 -2.83815e-24)
(0.00681425 -6.2172e-05 3.78168e-24)
(0.00689604 -0.000137255 -2.57188e-24)
(0.00693926 -0.000219401 8.58878e-25)
(0.0069448 -0.000305617 -4.07531e-25)
(0.00691307 -0.000392111 2.65777e-24)
(0.00684438 -0.000474075 -2.56152e-24)
(0.00673929 -0.000545686 -1.77358e-25)
(0.00659891 -0.000600226 6.05417e-24)
(0.00642502 -0.000630217 -1.04077e-23)
(0.00622014 -0.000627446 2.83637e-24)
(0.00598758 -0.000582773 1.33369e-23)
(0.00573162 -0.000485527 -3.66693e-24)
(0.0054581 -0.000322343 -1.07123e-23)
(0.00517604 -7.56571e-05 -6.45398e-24)
(0.00489906 0.000275312 1.47187e-23)
(0.00465001 0.000744978 -1.4162e-23)
(0.0044529 0.00130397 -3.10944e-24)
(0.00434793 0.00181992 9.24307e-24)
(0.00437812 0.00188859 2.93876e-24)
(0.00266226 -0.000327895 -2.67585e-26)
(0.00267063 -0.000322864 -3.77417e-24)
(0.00272973 -0.000275753 7.33305e-24)
(0.0028392 -0.000213025 6.13385e-24)
(0.00297512 -0.000151753 -1.00362e-23)
(0.00312872 -9.89325e-05 2.08473e-25)
(0.00329294 -5.62052e-05 9.59997e-25)
(0.00346348 -2.31071e-05 1.03553e-23)
(0.00363798 1.50328e-06 -1.22617e-23)
(0.0038151 1.89628e-05 7.51832e-24)
(0.00399411 3.05668e-05 2.25647e-24)
(0.00417468 3.75253e-05 -1.24717e-23)
(0.00435676 4.09773e-05 4.50221e-24)
(0.0045405 4.20312e-05 1.78789e-24)
(0.00472634 4.18124e-05 -3.70348e-24)
(0.00491501 4.15161e-05 5.98024e-24)
(0.00510783 4.24075e-05 -4.19548e-24)
(0.00530665 4.58213e-05 -7.30167e-26)
(0.0055147 5.28048e-05 3.25506e-25)
(0.00573585 6.38693e-05 3.43563e-25)
(0.00597581 7.74332e-05 4.46519e-26)
(0.00623903 8.9273e-05 1.9509e-25)
(0.00650635 8.93395e-05 -5.45192e-25)
(0.00674512 7.13622e-05 1.62478e-24)
(0.0069438 3.62865e-05 -2.56243e-24)
(0.00710193 -1.32714e-05 1.47344e-24)
(0.00722042 -7.43535e-05 -3.29484e-24)
(0.00730081 -0.000144257 4.41924e-24)
(0.00734436 -0.000220257 -3.71017e-24)
(0.00735186 -0.000299228 5.55881e-25)
(0.0073238 -0.000377269 7.73278e-25)
(0.00726072 -0.000449541 3.04128e-24)
(0.00716354 -0.000510266 -7.26116e-25)
(0.00703388 -0.000552861 3.14799e-24)
(0.00687421 -0.000570066 -9.26836e-24)
(0.00668801 -0.000554001 1.64746e-23)
(0.00647996 -0.000496055 -1.14012e-23)
(0.00625634 -0.000386527 1.70937e-23)
(0.00602595 -0.000213975 -3.27487e-23)
(0.00580222 3.54983e-05 1.24956e-23)
(0.00560563 0.000376481 4.35116e-24)
(0.00546794 0.000815108 6.80574e-24)
(0.0054241 0.00131527 -8.45522e-24)
(0.00549725 0.00174684 2.37983e-24)
(0.00565646 0.00179126 -1.43636e-24)
(0.00373977 -0.000311543 -9.97723e-25)
(0.00372176 -0.000331491 -1.51977e-24)
(0.00373166 -0.000313296 -6.48839e-24)
(0.00377937 -0.000273365 1.7959e-24)
(0.00386183 -0.000222821 1.19135e-24)
(0.00396917 -0.000173328 5.11344e-24)
(0.00409447 -0.000129511 -1.0662e-23)
(0.00423229 -9.30184e-05 4.07963e-24)
(0.00437898 -6.39341e-05 1.35142e-23)
(0.00453208 -4.16098e-05 -3.59821e-24)
(0.00469003 -2.51242e-05 -3.36367e-24)
(0.00485183 -1.34664e-05 -5.33921e-25)
(0.00501697 -5.60249e-06 1.74459e-24)
(0.00518521 -4.82636e-07 -3.40421e-24)
(0.00535671 2.97916e-06 7.88076e-25)
(0.0055319 5.93852e-06 -2.74415e-25)
(0.00571182 9.61527e-06 -1.61735e-24)
(0.005898 1.52802e-05 6.26614e-25)
(0.00609325 2.39281e-05 2.79905e-24)
(0.00630095 3.60429e-05 -3.28445e-25)
(0.0065263 5.01472e-05 -6.24911e-25)
(0.00677335 6.23582e-05 -1.71753e-25)
(0.00702454 6.31931e-05 -9.61391e-25)
(0.00724965 4.69094e-05 -5.61362e-26)
(0.00743786 1.45342e-05 -2.27403e-24)
(0.00758853 -3.14133e-05 3.9301e-24)
(0.00770219 -8.80319e-05 -3.29516e-24)
(0.00778001 -0.000152583 6.2575e-24)
(0.00782299 -0.000222232 -5.09788e-24)
(0.00783183 -0.000293729 1.28962e-24)
(0.00780711 -0.000363096 1.74316e-24)
(0.00774961 -0.0004255 -1.87382e-25)
(0.00766064 -0.000475281 -3.01761e-25)
(0.00754235 -0.000506094 -1.08813e-24)
(0.00739789 -0.000511068 1.35964e-24)
(0.00723171 -0.000482924 -5.12699e-24)
(0.00704971 -0.000414005 2.42015e-23)
(0.00685986 -0.000296231 -1.28387e-23)
(0.00667312 -0.000121094 -4.3943e-25)
(0.00650518 0.000120057 -2.90852e-23)
(0.00637843 0.000433505 2.20441e-23)
(0.00632356 0.000815373 -7.9966e-24)
(0.00637085 0.00122832 1.97809e-24)
(0.00652588 0.00157143 9.93475e-24)
(0.00674226 0.00165187 -2.3738e-24)