/*--------------------------------*- C++ -*----------------------------------*\
| =========                 |                                                 |
| \\      /  F ield         | OpenFOAM: The Open Source CFD Toolbox           |
|  \\    /   O peration     | Version:  2312                                  |
|   \\  /    A nd           | Website:  www.openfoam.com                      |
|    \\/     M anipulation  |                                                 |
\*---------------------------------------------------------------------------*/
FoamFile
{
    version     2.0;
    format      ascii;
    arch        "LSB;label=32;scalar=64";
    class       surfaceScalarField;
    location    "158";
    object      phi;
}
// * * * * * * * * * * * * * * * * * * * * * * * * * * * * * * * * * * * * * //

dimensions      [0 3 -1 0 0 0 0];

oriented        oriented;

internalField   nonuniform List<scalar> 
9445
(
5.7953e-10
1.62308e-11
5.68983e-10
1.05471e-11
5.62166e-10
6.8165e-12
5.57963e-10
4.20303e-12
5.55671e-10
2.29215e-12
5.54909e-10
7.62241e-13
5.55526e-10
-6.17747e-13
5.57283e-10
-1.7569e-12
5.6031e-10
-3.0264e-12
5.65016e-10
-4.70576e-12
5.72447e-10
-7.43194e-12
5.86068e-10
-1.36207e-11
6.18049e-10
-3.19807e-11
7.1084e-10
-9.27917e-11
-2.40289e-10
9.51129e-10
2.02165e-09
7.12653e-11
1.98577e-09
4.64214e-11
1.96248e-09
3.01129e-11
1.94795e-09
1.8729e-11
1.9398e-09
1.04467e-11
1.93672e-09
3.83332e-12
1.93798e-09
-1.87555e-12
1.94286e-09
-6.6384e-12
1.95182e-09
-1.19785e-11
1.96594e-09
-1.88269e-11
1.98788e-09
-2.93755e-11
2.02426e-09
-4.99995e-11
2.08802e-09
-9.57387e-11
2.19131e-09
-1.96081e-10
-3.48909e-10
2.29993e-09
3.98834e-09
1.76667e-10
3.91946e-09
1.15302e-10
3.87453e-09
7.50357e-11
3.84625e-09
4.70111e-11
3.82999e-09
2.67129e-11
3.8232e-09
1.06232e-11
3.82417e-09
-2.84482e-12
3.83165e-09
-1.41219e-11
3.84616e-09
-2.64878e-11
3.86895e-09
-4.16199e-11
3.90253e-09
-6.29538e-11
3.95133e-09
-9.88004e-11
4.01799e-09
-1.62402e-10
4.08929e-09
-2.67375e-10
-3.89761e-10
4.13014e-09
6.62444e-09
3.45591e-10
6.5136e-09
2.26145e-10
6.44088e-09
1.47754e-10
6.39456e-09
9.33323e-11
6.3672e-09
5.40739e-11
6.35451e-09
2.33157e-11
6.35351e-09
-1.84541e-12
6.36223e-09
-2.28394e-11
6.38054e-09
-4.47998e-11
6.40911e-09
-7.01885e-11
6.44858e-09
-1.02426e-10
6.49857e-09
-1.48792e-10
6.5528e-09
-2.16635e-10
6.59216e-09
-3.06735e-10
-3.93237e-10
6.59564e-09
1.01061e-08
5.91786e-10
9.94355e-09
3.88724e-10
9.83603e-09
2.55269e-10
9.76658e-09
1.62785e-10
9.72435e-09
9.63003e-11
9.70267e-09
4.49973e-11
9.69713e-09
3.69881e-12
9.70469e-09
-3.03981e-11
9.72377e-09
-6.38781e-11
9.75357e-09
-9.99906e-11
9.7923e-09
-1.41157e-10
9.83539e-09
-1.9188e-10
9.87269e-09
-2.53936e-10
9.88814e-09
-3.22189e-10
-3.77846e-10
9.87275e-09
1.46429e-08
9.27125e-10
1.44193e-08
6.12311e-10
1.42699e-08
4.04704e-10
1.41718e-08
2.60898e-10
1.41103e-08
1.57778e-10
1.40759e-08
7.93952e-11
1.40622e-08
1.73679e-11
1.4065e-08
-3.32066e-11
1.40808e-08
-7.97049e-11
1.41066e-08
-1.25762e-10
1.41385e-08
-1.73067e-10
1.41699e-08
-2.23232e-10
1.41909e-08
-2.74918e-10
1.41911e-08
-3.22473e-10
-3.55424e-10
1.41687e-08
2.04761e-08
1.35679e-09
2.01855e-08
9.02883e-10
1.99886e-08
6.01622e-10
1.98569e-08
3.92601e-10
1.97718e-08
2.42874e-10
1.97207e-08
1.30529e-10
1.96949e-08
4.31129e-11
1.96886e-08
-2.68917e-11
1.96963e-08
-8.74248e-11
1.97131e-08
-1.4248e-10
1.97335e-08
-1.93451e-10
1.97507e-08
-2.405e-10
1.97576e-08
-2.81755e-10
1.97487e-08
-3.13608e-10
-3.31704e-10
1.9725e-08
2.78722e-08
1.87151e-09
2.75169e-08
1.25823e-09
2.72717e-08
8.46851e-10
2.71042e-08
5.60099e-10
2.69926e-08
3.54472e-10
2.69215e-08
2.01646e-10
2.688e-08
8.45674e-11
2.68604e-08
-7.26534e-12
2.68555e-08
-8.25611e-11
2.6859e-08
-1.45978e-10
2.68649e-08
-1.99362e-10
2.68675e-08
-2.43088e-10
2.68622e-08
-2.76441e-10
2.68469e-08
-2.98342e-10
-3.08084e-10
2.68233e-08
3.71112e-08
2.43827e-09
3.67081e-08
1.66128e-09
3.64232e-08
1.13174e-09
3.62239e-08
7.59446e-10
3.60869e-08
4.91445e-10
3.59952e-08
2.93331e-10
3.59363e-08
1.43481e-10
3.59007e-08
2.8293e-11
3.58804e-08
-6.22479e-11
3.58684e-08
-1.33931e-10
3.58589e-08
-1.89866e-10
3.58476e-08
-2.31766e-10
3.58318e-08
-2.60692e-10
3.58111e-08
-2.77667e-10
-2.83958e-10
3.5787e-08
4.8478e-08
2.99641e-09
4.80642e-08
2.07511e-09
4.77623e-08
1.43361e-09
4.7545e-08
9.76738e-10
4.73909e-08
6.45532e-10
4.72833e-08
4.00982e-10
4.72091e-08
2.17637e-10
4.71585e-08
7.89516e-11
4.71229e-08
-2.6712e-11
4.70959e-08
-1.06932e-10
4.70725e-08
-1.66454e-10
4.70495e-08
-2.08786e-10
4.70255e-08
-2.36669e-10
4.70004e-08
-2.52601e-10
-2.58882e-10
4.69754e-08
6.22805e-08
3.47191e-09
6.19078e-08
2.44781e-09
6.16248e-08
1.71664e-09
6.14141e-08
1.18739e-09
6.12597e-08
7.99954e-10
6.11475e-08
5.13204e-10
6.10659e-08
2.99207e-10
6.10058e-08
1.39045e-10
6.09596e-08
1.94594e-11
6.0922e-08
-6.93302e-11
6.08891e-08
-1.33501e-10
6.08586e-08
-1.7833e-10
6.08298e-08
-2.07818e-10
6.08026e-08
-2.25391e-10
-2.33888e-10
6.07776e-08
7.89191e-08
3.81603e-09
7.86313e-08
2.73562e-09
7.84023e-08
1.94562e-09
7.82254e-08
1.36428e-09
7.80912e-08
9.34229e-10
7.79898e-08
6.14578e-10
7.79127e-08
3.7635e-10
7.78527e-08
1.99043e-10
7.78044e-08
6.77588e-11
7.77636e-08
-2.85752e-11
7.77279e-08
-9.78429e-11
7.7696e-08
-1.46395e-10
7.76673e-08
-1.79077e-10
7.76417e-08
-1.99834e-10
-2.11767e-10
7.76196e-08
9.89866e-08
4.03988e-09
9.87891e-08
2.93313e-09
9.86254e-08
2.10936e-09
9.84944e-08
1.49526e-09
9.83915e-08
1.0371e-09
9.83109e-08
6.95171e-10
9.82471e-08
4.40213e-10
9.81954e-08
2.50752e-10
9.81524e-08
1.10721e-10
9.81157e-08
8.12619e-12
9.80839e-08
-6.60171e-11
9.80562e-08
-1.18742e-10
9.80325e-08
-1.55336e-10
9.80126e-08
-1.79986e-10
-1.95901e-10
9.79968e-08
1.23269e-07
4.19338e-09
1.2313e-07
3.07248e-09
1.23011e-07
2.22824e-09
1.22913e-07
1.59322e-09
1.22834e-07
1.11663e-09
1.22769e-07
7.59781e-10
1.22716e-07
4.93215e-10
1.22672e-07
2.94782e-10
1.22635e-07
1.47746e-10
1.22604e-07
3.94294e-11
1.22577e-07
-3.96973e-11
1.22556e-07
-9.70573e-11
1.22538e-07
-1.38156e-10
1.22526e-07
-1.67257e-10
-1.87596e-10
1.22517e-07
1.52535e-07
4.30242e-09
1.52428e-07
3.17989e-09
1.5233e-07
2.32592e-09
1.52245e-07
1.6784e-09
1.52172e-07
1.18953e-09
1.5211e-07
8.218e-10
1.52057e-07
5.45928e-10
1.52013e-07
3.3942e-10
1.51975e-07
1.85238e-10
1.51944e-07
7.04923e-11
1.51919e-07
-1.46849e-11
1.519e-07
-7.78147e-11
1.51886e-07
-1.24504e-10
1.51878e-07
-1.59033e-10
-1.84619e-10
1.51875e-07
1.87252e-07
4.34865e-09
1.87185e-07
3.24712e-09
1.8711e-07
2.40058e-09
1.87036e-07
1.75254e-09
1.86966e-07
1.25936e-09
1.86902e-07
8.85417e-10
1.86846e-07
6.0256e-10
1.86796e-07
3.88885e-10
1.86754e-07
2.27421e-10
1.86719e-07
1.05343e-10
1.86692e-07
1.29601e-11
1.86671e-07
-5.73775e-11
1.86658e-07
-1.10956e-10
1.86651e-07
-1.52144e-10
-1.84094e-10
1.8665e-07
2.27464e-07
4.30493e-09
2.2746e-07
3.25197e-09
2.27426e-07
2.43453e-09
2.27376e-07
1.80178e-09
2.27321e-07
1.31512e-09
2.27264e-07
9.42064e-10
2.2721e-07
6.56687e-10
2.27161e-07
4.38163e-10
2.27117e-07
2.70538e-10
2.27081e-07
1.4154e-10
2.27053e-07
4.15354e-11
2.27032e-07
-3.67393e-11
2.27019e-07
-9.80946e-11
2.27014e-07
-1.46865e-10
-1.86177e-10
2.27016e-07
2.72702e-07
4.16033e-09
2.72772e-07
3.18248e-09
2.72791e-07
2.41525e-09
2.72779e-07
1.81414e-09
2.72748e-07
1.34605e-09
2.72707e-07
9.82336e-10
2.72664e-07
7.00037e-10
2.72622e-07
4.80253e-10
2.72584e-07
3.08752e-10
2.72551e-07
1.7378e-10
2.72526e-07
6.71825e-11
2.72509e-07
-1.97726e-11
2.725e-07
-8.94436e-11
2.725e-07
-1.46403e-10
-1.93799e-10
2.72507e-07
3.21591e-07
3.90885e-09
3.21742e-07
3.03137e-09
3.21823e-07
2.33421e-09
3.21856e-07
1.78073e-09
3.21859e-07
1.34354e-09
3.21842e-07
9.98706e-10
3.21816e-07
7.26329e-10
3.21786e-07
5.10045e-10
3.21758e-07
3.37262e-10
3.21733e-07
1.98795e-10
3.21713e-07
8.65474e-11
3.21703e-07
-9.57391e-12
3.21703e-07
-8.88928e-11
3.21711e-07
-1.55164e-10
-2.11647e-10
3.21729e-07
3.71101e-07
3.53564e-09
3.71351e-07
2.78182e-09
3.71511e-07
2.17403e-09
3.71608e-07
1.68394e-09
3.71661e-07
1.2901e-09
3.71686e-07
9.74028e-10
3.71693e-07
7.19106e-10
3.7169e-07
5.13153e-10
3.71683e-07
3.44413e-10
3.71676e-07
2.06249e-10
3.71672e-07
8.97281e-11
3.71674e-07
-1.15205e-11
3.71682e-07
-9.6767e-11
3.71697e-07
-1.7002e-10
-2.343e-10
3.7172e-07
3.6892e-07
3.11059e-09
3.69222e-07
2.48029e-09
3.69432e-07
1.96407e-09
3.69575e-07
1.54067e-09
3.69671e-07
1.1946e-09
3.69733e-07
9.11213e-10
3.69774e-07
6.78105e-10
3.69803e-07
4.84789e-10
3.69824e-07
3.22988e-10
3.69843e-07
1.87292e-10
3.6986e-07
7.30638e-11
3.6988e-07
-3.19489e-11
3.69905e-07
-1.21282e-10
3.69935e-07
-2.00252e-10
-2.71182e-10
3.69972e-07
3.16592e-07
2.68282e-09
3.16902e-07
2.1703e-09
3.17123e-07
1.74263e-09
3.17278e-07
1.38639e-09
3.17382e-07
1.08981e-09
3.17451e-07
8.42423e-10
3.17495e-07
6.34595e-10
3.17521e-07
4.58615e-10
3.17536e-07
3.08168e-10
3.17545e-07
1.77619e-10
3.17556e-07
6.25359e-11
3.17564e-07
-4.04687e-11
3.17575e-07
-1.32358e-10
3.1759e-07
-2.14885e-10
-2.90043e-10
3.17609e-07
2.65312e-07
2.27899e-09
2.6562e-07
1.86231e-09
2.65854e-07
1.50906e-09
2.66029e-07
1.21061e-09
2.66161e-07
9.58285e-10
2.66259e-07
7.43805e-10
2.66334e-07
5.60201e-10
2.66391e-07
4.01451e-10
2.66436e-07
2.63242e-10
2.66473e-07
1.40548e-10
2.66504e-07
3.18527e-11
2.6653e-07
-6.71826e-11
2.66555e-07
-1.56698e-10
2.66579e-07
-2.38911e-10
-3.14841e-10
2.66604e-07
2.18874e-07
1.90454e-09
2.19168e-07
1.56836e-09
2.19397e-07
1.27941e-09
2.19576e-07
1.03176e-09
2.19715e-07
8.19041e-10
2.19824e-07
6.35191e-10
2.19909e-07
4.75015e-10
2.19976e-07
3.34219e-10
2.2003e-07
2.09302e-10
2.20073e-07
9.75145e-11
2.20109e-07
-4.04981e-12
2.20139e-07
-9.69304e-11
2.20165e-07
-1.82549e-10
2.20188e-07
-2.61959e-10
-3.35965e-10
2.20209e-07
1.78235e-07
1.56082e-09
1.78511e-07
1.29287e-09
1.7873e-07
1.05959e-09
1.78905e-07
8.56815e-10
1.79044e-07
6.80006e-10
1.79155e-07
5.24704e-10
1.79242e-07
3.87348e-10
1.79312e-07
2.64556e-10
1.79367e-07
1.54181e-10
1.79412e-07
5.31867e-11
1.79446e-07
-3.8605e-11
1.79473e-07
-1.24034e-10
1.79494e-07
-2.03436e-10
1.7951e-07
-2.77596e-10
-3.47125e-10
1.79521e-07
1.43538e-07
1.25317e-09
1.43788e-07
1.04275e-09
1.4399e-07
8.5725e-10
1.44153e-07
6.93817e-10
1.44284e-07
5.49184e-10
1.44388e-07
4.20223e-10
1.44471e-07
3.04356e-10
1.44536e-07
1.99369e-10
1.44587e-07
1.03626e-10
1.44625e-07
1.49106e-11
1.44653e-07
-6.60873e-11
1.44671e-07
-1.42361e-10
1.44681e-07
-2.13711e-10
1.44685e-07
-2.80693e-10
-3.43717e-10
1.44681e-07
1.14435e-07
9.8653e-10
1.14654e-07
8.24007e-10
1.14832e-07
6.78937e-10
1.14976e-07
5.49433e-10
1.15092e-07
4.33119e-10
1.15185e-07
3.27942e-10
1.15257e-07
2.32084e-10
1.15312e-07
1.44153e-10
1.15353e-07
6.29128e-11
1.1538e-07
-1.22904e-11
1.15397e-07
-8.25097e-11
1.15403e-07
-1.48548e-10
1.154e-07
-2.10692e-10
1.15388e-07
-2.6924e-10
-3.24431e-10
1.15369e-07
9.03502e-08
7.62462e-10
9.05351e-08
6.39146e-10
9.06863e-08
5.27727e-10
9.08088e-08
4.26944e-10
9.09067e-08
3.3516e-10
9.09836e-08
2.51041e-10
9.10422e-08
1.73461e-10
9.10849e-08
1.01499e-10
9.11136e-08
3.41847e-11
9.11294e-08
-2.80972e-11
9.1134e-08
-8.70903e-11
9.11282e-08
-1.427e-10
9.11127e-08
-1.95216e-10
9.10882e-08
-2.44802e-10
-2.91578e-10
9.10554e-08
7.06346e-08
5.78953e-10
7.07865e-08
4.87182e-10
7.0911e-08
4.03293e-10
7.10115e-08
3.26411e-10
7.10912e-08
2.5544e-10
7.11526e-08
1.89604e-10
7.11979e-08
1.28212e-10
7.12286e-08
7.07454e-11
7.12463e-08
1.64857e-11
7.12522e-08
-3.39343e-11
7.12471e-08
-8.20328e-11
7.1232e-08
-1.27549e-10
7.12074e-08
-1.70626e-10
7.11739e-08
-2.11356e-10
-2.49786e-10
7.11321e-08
5.46483e-08
4.31717e-10
5.47706e-08
3.64884e-10
5.48708e-08
3.03118e-10
5.49514e-08
2.45747e-10
5.50148e-08
1.92101e-10
5.50626e-08
1.41775e-10
5.50964e-08
9.44158e-11
5.51175e-08
4.96786e-11
5.51269e-08
7.10706e-12
5.51255e-08
-3.25773e-11
5.51142e-08
-7.06896e-11
5.50935e-08
-1.06861e-10
5.5064e-08
-1.41156e-10
5.50263e-08
-1.73614e-10
-2.04242e-10
5.49807e-08
4.17981e-08
3.15543e-10
4.18949e-08
2.68066e-10
4.19743e-08
2.23732e-10
4.20381e-08
1.81978e-10
4.20877e-08
1.4246e-10
4.21245e-08
1.05014e-10
4.21494e-08
6.94484e-11
4.21635e-08
3.56088e-11
4.21673e-08
3.28653e-12
4.21619e-08
-2.71382e-11
4.21476e-08
-5.64086e-11
4.2125e-08
-8.42755e-11
4.20946e-08
-1.10738e-10
4.20568e-08
-1.35807e-10
-1.59466e-10
4.2012e-08
3.15535e-08
2.2522e-10
3.16291e-08
1.92461e-10
3.16912e-08
1.6157e-10
3.17411e-08
1.32056e-10
3.17798e-08
1.03814e-10
3.1808e-08
7.67994e-11
3.18265e-08
5.09336e-11
3.1836e-08
2.6156e-11
3.18369e-08
2.39112e-12
3.18298e-08
-2.01145e-11
3.18153e-08
-4.18812e-11
3.17937e-08
-6.26339e-11
3.17653e-08
-8.23662e-11
3.17306e-08
-1.0108e-10
-1.18749e-10
3.16899e-08
2.34521e-08
1.56017e-10
2.35104e-08
1.34194e-10
2.35585e-08
1.13424e-10
2.35973e-08
9.32874e-11
2.36273e-08
7.38291e-11
2.3649e-08
5.50538e-11
2.3663e-08
3.6935e-11
2.36697e-08
1.94754e-11
2.36694e-08
2.64624e-12
2.36626e-08
-1.33057e-11
2.36496e-08
-2.89105e-11
2.36308e-08
-4.37754e-11
2.36063e-08
-5.79207e-11
2.35766e-08
-7.13544e-11
-8.40479e-11
2.35419e-08
1.70985e-08
1.03886e-10
1.71427e-08
8.99725e-11
1.71795e-08
7.66172e-11
1.72093e-08
6.34815e-11
1.72325e-08
5.06782e-11
1.72493e-08
3.82228e-11
1.72601e-08
2.61112e-11
1.72653e-08
1.43591e-11
1.72649e-08
3.00784e-12
1.72593e-08
-7.74695e-12
1.72489e-08
-1.84355e-11
1.72337e-08
-2.85941e-11
1.7214e-08
-3.82582e-11
1.71901e-08
-4.74533e-11
-5.61511e-11
1.71622e-08
1.2159e-08
6.54797e-11
1.21918e-08
5.71036e-11
1.22194e-08
4.90091e-11
1.2242e-08
4.09379e-11
1.22596e-08
3.30113e-11
1.22726e-08
2.52395e-11
1.22811e-08
1.7627e-11
1.22853e-08
1.01928e-11
1.22853e-08
2.95931e-12
1.22814e-08
-3.81606e-12
1.22737e-08
-1.06982e-11
1.22623e-08
-1.72405e-11
1.22475e-08
-2.34443e-11
1.22294e-08
-2.93621e-11
-3.49662e-11
1.22082e-08
8.35493e-09
3.8077e-11
8.37861e-09
3.34204e-11
8.39871e-09
2.89099e-11
8.41529e-09
2.43569e-11
8.42845e-09
1.98545e-11
8.43828e-09
1.54061e-11
8.44489e-09
1.10188e-11
8.44837e-09
6.71119e-12
8.44887e-09
2.4599e-12
8.44651e-09
-1.45178e-12
8.44131e-09
-5.4958e-12
8.43343e-09
-9.36781e-12
8.42301e-09
-1.30239e-11
8.41017e-09
-1.65189e-11
-1.98307e-11
8.39503e-09
5.4561e-09
1.94716e-11
5.47235e-09
1.71776e-11
5.48628e-09
1.4975e-11
5.49791e-09
1.27293e-11
5.50727e-09
1.04926e-11
5.51441e-09
8.26584e-12
5.51938e-09
6.05416e-12
5.52222e-09
3.8714e-12
5.52299e-09
1.68201e-12
5.52185e-09
-3.03629e-13
5.51872e-09
-2.37291e-12
5.51373e-09
-4.37661e-12
5.50697e-09
-6.26633e-12
5.49853e-09
-8.07416e-12
-9.78508e-12
5.48848e-09
3.2736e-09
7.86648e-12
3.28382e-09
6.95141e-12
3.29269e-09
6.10724e-12
3.30018e-09
5.24043e-12
3.3063e-09
4.36901e-12
3.31108e-09
3.49393e-12
3.31451e-09
2.61735e-12
3.31664e-09
1.74785e-12
3.31746e-09
8.60322e-13
3.31709e-09
6.32144e-14
3.31549e-09
-7.66785e-13
3.31269e-09
-1.581e-12
3.30878e-09
-2.35205e-12
3.30379e-09
-3.08821e-12
-3.77959e-12
3.29778e-09
1.65374e-09
1.78343e-12
1.65914e-09
1.5577e-12
1.66386e-09
1.38201e-12
1.6679e-09
1.2e-12
1.67126e-09
1.01336e-12
1.67393e-09
8.22989e-13
1.67592e-09
6.28762e-13
1.67723e-09
4.36026e-13
1.67786e-09
2.32798e-13
1.67787e-09
5.51724e-14
1.67723e-09
-1.312e-13
1.67596e-09
-3.15144e-13
1.6741e-09
-4.9259e-13
1.67168e-09
-6.59941e-13
-8.10907e-13
1.66871e-09
4.72448e-10
4.74006e-10
4.75388e-10
4.76588e-10
4.77601e-10
4.78424e-10
4.79053e-10
4.79489e-10
4.79722e-10
4.79777e-10
4.79646e-10
4.7933e-10
4.78838e-10
4.78178e-10
4.77367e-10
1.13657e-09
-4.5705e-10
2.71608e-10
1.40233e-09
-3.78267e-10
1.12507e-10
1.67026e-09
-2.30544e-10
-3.73788e-11
1.93468e-09
-7.27342e-11
-1.9169e-10
2.19419e-09
9.21864e-11
-3.51696e-10
2.44992e-09
2.58876e-10
-5.1461e-10
2.70369e-09
4.27245e-10
-6.81016e-10
2.95698e-09
5.97739e-10
-8.5102e-10
3.21093e-09
7.70503e-10
-1.02446e-09
3.46645e-09
9.45449e-10
-1.20097e-09
3.72426e-09
1.12218e-09
-1.37999e-09
3.98508e-09
1.30019e-09
-1.56101e-09
4.24971e-09
1.47912e-09
-1.74375e-09
4.51918e-09
1.65842e-09
-1.92789e-09
4.79491e-09
1.837e-09
-2.11273e-09
5.07888e-09
2.013e-09
-2.29697e-09
5.37385e-09
2.18329e-09
-2.47826e-09
5.68369e-09
2.34282e-09
-2.65266e-09
6.01358e-09
2.48045e-09
-2.81034e-09
6.36974e-09
2.57289e-09
-2.92904e-09
6.75757e-09
2.55937e-09
-2.9472e-09
7.17705e-09
2.31018e-09
-2.72966e-09
7.55387e-09
1.40041e-09
-1.77723e-09
7.85668e-09
2.95126e-10
-5.97934e-10
8.08567e-09
-7.63379e-10
5.34385e-10
8.24496e-09
-1.70876e-09
1.54947e-09
8.34007e-09
-2.4988e-09
2.40369e-09
8.37694e-09
-3.12648e-09
3.08961e-09
8.36125e-09
-3.59825e-09
3.61394e-09
8.29781e-09
-3.91984e-09
3.98328e-09
8.1907e-09
-4.09628e-09
4.20339e-09
8.04359e-09
-4.13231e-09
4.27942e-09
7.86e-09
-4.03255e-09
4.21614e-09
7.64332e-09
-3.8024e-09
4.01908e-09
7.39671e-09
-3.44858e-09
3.6952e-09
7.12292e-09
-2.97893e-09
3.25272e-09
6.82416e-09
-2.40132e-09
2.70008e-09
6.50215e-09
-1.7217e-09
2.04371e-09
6.15819e-09
-9.4145e-10
1.28541e-09
5.79229e-09
-5.58709e-11
4.21769e-10
5.39977e-09
9.38479e-10
-5.4596e-10
4.96359e-09
2.01765e-09
-1.58147e-09
4.45401e-09
3.05994e-09
-2.55035e-09
3.86904e-09
3.77238e-09
-3.18742e-09
3.36832e-09
3.51342e-09
-3.0127e-09
2.37199e-09
-5.29112e-10
2.52945e-09
-5.35728e-10
2.74425e-09
-4.45345e-10
2.9851e-09
-3.13585e-10
3.23896e-09
-1.61668e-10
3.49927e-09
-1.44078e-12
3.76384e-09
1.62678e-10
4.032e-09
3.29581e-10
4.30376e-09
4.98744e-10
4.57936e-09
6.69841e-10
4.85921e-09
8.42332e-10
5.14383e-09
1.01557e-09
5.43392e-09
1.18903e-09
5.73047e-09
1.36186e-09
6.03491e-09
1.53256e-09
6.34922e-09
1.69868e-09
6.6762e-09
1.85631e-09
7.01974e-09
1.99929e-09
7.38503e-09
2.11516e-09
7.77824e-09
2.17967e-09
8.20467e-09
2.13294e-09
8.66393e-09
1.85091e-09
9.07548e-09
9.8887e-10
9.40603e-09
-3.54218e-11
9.65632e-09
-1.01368e-09
9.83098e-09
-1.88341e-09
9.93587e-09
-2.60369e-09
9.9774e-09
-3.16801e-09
9.96186e-09
-3.5827e-09
9.89473e-09
-3.85271e-09
9.7808e-09
-3.98235e-09
9.62454e-09
-3.97605e-09
9.4304e-09
-3.83841e-09
9.20289e-09
-3.57488e-09
8.94656e-09
-3.19226e-09
8.66606e-09
-2.69843e-09
8.36621e-09
-2.10148e-09
8.05262e-09
-1.40811e-09
7.73295e-09
-6.2178e-10
7.41865e-09
2.58423e-10
7.12613e-09
1.231e-09
6.87613e-09
2.26765e-09
6.69425e-09
3.24182e-09
6.61848e-09
3.84815e-09
3.45308e-09
6.53372e-09
4.14147e-09
-5.40442e-10
4.20974e-09
-6.03994e-10
4.34662e-09
-5.8223e-10
4.53545e-09
-5.02415e-10
4.75751e-09
-3.83728e-10
5.00116e-09
-2.45089e-10
5.25975e-09
-9.59139e-11
5.52961e-09
5.97249e-11
5.80873e-09
2.19619e-10
6.09612e-09
3.82453e-10
6.39139e-09
5.47064e-10
6.69459e-09
7.12371e-10
7.0061e-09
8.7752e-10
7.3267e-09
1.04126e-09
7.6577e-09
1.20157e-09
8.00099e-09
1.35539e-09
8.35929e-09
1.49801e-09
8.7364e-09
1.62218e-09
9.13734e-09
1.71421e-09
9.56806e-09
1.74895e-09
1.00335e-08
1.66752e-09
1.05326e-08
1.35176e-09
1.09787e-08
5.42846e-10
1.13365e-08
-3.93252e-10
1.16075e-08
-1.28472e-09
1.1797e-08
-2.07286e-09
1.19111e-08
-2.71778e-09
1.19567e-08
-3.21359e-09
1.19407e-08
-3.56674e-09
1.18695e-08
-3.78151e-09
1.17487e-08
-3.86153e-09
1.15837e-08
-3.81106e-09
1.13801e-08
-3.63484e-09
1.11438e-08
-3.33861e-09
1.08812e-08
-2.9296e-09
1.05991e-08
-2.41632e-09
1.03055e-08
-1.8079e-09
1.00106e-08
-1.11317e-09
9.72874e-09
-3.39952e-10
9.48228e-09
5.04878e-10
9.30486e-09
1.40842e-09
9.24017e-09
2.33235e-09
9.32273e-09
3.15926e-09
9.52645e-09
3.64443e-09
3.36672e-09
9.61282e-09
6.57171e-09
-5.16513e-10
6.57899e-09
-6.11278e-10
6.63854e-09
-6.4178e-10
6.75706e-09
-6.20929e-10
6.92403e-09
-5.50695e-10
7.12735e-09
-4.48412e-10
7.35858e-09
-3.27142e-10
7.61157e-09
-1.93266e-10
7.88224e-09
-5.10556e-11
8.16801e-09
9.66834e-11
8.46739e-09
2.47689e-10
8.77966e-09
4.001e-10
9.10465e-09
5.52531e-10
9.44274e-09
7.03164e-10
9.79496e-09
8.49355e-10
1.0163e-08
9.87352e-10
1.05493e-08
1.11167e-09
1.09575e-08
1.214e-09
1.13923e-08
1.27949e-09
1.18589e-08
1.28226e-09
1.23618e-08
1.16463e-09
1.2899e-08
8.14613e-10
1.33774e-08
6.43777e-11
1.37605e-08
-7.76329e-10
1.40504e-08
-1.57459e-09
1.42529e-08
-2.27535e-09
1.43746e-08
-2.83945e-09
1.44227e-08
-3.26176e-09
1.44052e-08
-3.54918e-09
1.43291e-08
-3.70544e-09
1.42011e-08
-3.73357e-09
1.40279e-08
-3.6378e-09
1.38162e-08
-3.42322e-09
1.35738e-08
-3.09616e-09
1.33089e-08
-2.66466e-09
1.30309e-08
-2.13839e-09
1.27513e-08
-1.52832e-09
1.24846e-08
-8.4643e-10
1.22508e-08
-1.06134e-10
1.20788e-08
6.7686e-10
1.20091e-08
1.47815e-09
1.20878e-08
2.25358e-09
1.23381e-08
2.90898e-09
1.27029e-08
3.27966e-09
3.14512e-09
1.29245e-08
9.83284e-09
-4.76597e-10
9.80153e-09
-5.79974e-10
9.80235e-09
-6.42594e-10
9.84893e-09
-6.67513e-10
9.94673e-09
-6.48499e-10
1.00902e-08
-5.91839e-10
1.02722e-08
-5.09227e-10
1.04868e-08
-4.07816e-10
1.07288e-08
-2.93085e-10
1.09946e-08
-1.69091e-10
1.12816e-08
-3.93384e-11
1.15884e-08
9.33417e-11
1.1914e-08
2.26899e-10
1.22584e-08
3.58791e-10
1.26221e-08
4.85615e-10
1.30066e-08
6.02893e-10
1.34139e-08
7.04342e-10
1.38472e-08
7.80699e-10
1.43106e-08
8.16091e-10
1.48087e-08
7.84143e-10
1.53447e-08
6.28619e-10
1.59153e-08
2.44089e-10
1.64217e-08
-4.42089e-10
1.68259e-08
-1.18055e-09
1.71309e-08
-1.87958e-09
1.73432e-08
-2.48761e-09
1.74696e-08
-2.96583e-09
1.75178e-08
-3.31002e-09
1.74967e-08
-3.52803e-09
1.74144e-08
-3.62317e-09
1.72787e-08
-3.59792e-09
1.70976e-08
-3.45668e-09
1.68795e-08
-3.2051e-09
1.66337e-08
-2.85038e-09
1.63708e-08
-2.40173e-09
1.61028e-08
-1.87041e-09
1.58442e-08
-1.26971e-09
1.56129e-08
-6.15116e-10
1.54319e-08
7.48701e-11
1.53313e-08
7.77467e-10
1.53477e-08
1.46175e-09
1.55164e-08
2.08487e-09
1.58446e-08
2.58078e-09
1.6268e-08
2.85626e-09
2.81554e-09
1.65976e-08
1.41251e-08
-4.33017e-10
1.40746e-08
-5.29389e-10
1.40389e-08
-6.06924e-10
1.40298e-08
-6.58467e-10
1.40611e-08
-6.79758e-10
1.41362e-08
-6.66951e-10
1.4254e-08
-6.26975e-10
1.44111e-08
-5.64976e-10
1.4604e-08
-4.85923e-10
1.4829e-08
-3.94124e-10
1.50836e-08
-2.9393e-10
1.53659e-08
-1.8894e-10
1.56745e-08
-8.17409e-11
1.6009e-08
2.43374e-11
1.63695e-08
1.25076e-10
1.67571e-08
2.15267e-10
1.71736e-08
2.87897e-10
1.76214e-08
3.32872e-10
1.8104e-08
3.33496e-10
1.86249e-08
2.63286e-10
1.91857e-08
6.78154e-11
1.97811e-08
-3.5133e-10
2.03078e-08
-9.68788e-10
2.07262e-08
-1.59901e-09
2.10402e-08
-2.19358e-09
2.1257e-08
-2.70434e-09
2.13834e-08
-3.09226e-09
2.14278e-08
-3.35442e-09
2.13999e-08
-3.50015e-09
2.13093e-08
-3.53253e-09
2.11649e-08
-3.45353e-09
2.0976e-08
-3.26783e-09
2.07529e-08
-2.98193e-09
2.05066e-08
-2.6041e-09
2.02498e-08
-2.14494e-09
1.99969e-08
-1.61751e-09
1.97646e-08
-1.03738e-09
1.95724e-08
-4.22955e-10
1.94434e-08
2.03919e-10
1.94036e-08
8.17215e-10
1.94796e-08
1.38573e-09
1.96908e-08
1.8737e-09
2.00316e-08
2.23995e-09
2.04473e-08
2.44056e-09
2.44279e-09
2.08201e-08
1.96844e-08
-3.92454e-10
1.9631e-08
-4.75935e-10
1.95776e-08
-5.53558e-10
1.95363e-08
-6.17146e-10
1.95181e-08
-6.61603e-10
1.95332e-08
-6.82049e-10
1.95857e-08
-6.79447e-10
1.9677e-08
-6.56334e-10
1.98069e-08
-6.15827e-10
1.9974e-08
-5.61221e-10
2.01771e-08
-4.96974e-10
2.04149e-08
-4.26785e-10
2.06865e-08
-3.53286e-10
2.09913e-08
-2.80472e-10
2.13297e-08
-2.133e-10
2.17025e-08
-1.57541e-10
2.21112e-08
-1.20796e-10
2.25578e-08
-1.13748e-10
2.30449e-08
-1.53628e-10
2.35747e-08
-2.66497e-10
2.4147e-08
-5.0448e-10
2.4754e-08
-9.58308e-10
2.5289e-08
-1.5038e-09
2.57113e-08
-2.02135e-09
2.60253e-08
-2.5076e-09
2.62388e-08
-2.91777e-09
2.63585e-08
-3.212e-09
2.63933e-08
-3.38919e-09
2.63542e-08
-3.46103e-09
2.6252e-08
-3.43039e-09
2.60971e-08
-3.29863e-09
2.59002e-08
-3.07096e-09
2.56732e-08
-2.75484e-09
2.54288e-08
-2.35977e-09
2.51816e-08
-1.89774e-09
2.49475e-08
-1.38339e-09
2.47442e-08
-8.34031e-10
2.45909e-08
-2.69666e-10
2.45077e-08
2.87095e-10
2.45139e-08
8.10992e-10
2.46243e-08
1.27531e-09
2.4844e-08
1.65407e-09
2.51595e-08
1.92445e-09
2.55297e-08
2.07033e-09
2.08719e-09
2.58853e-08
2.67875e-08
-3.56665e-10
2.67389e-08
-4.27274e-10
2.66834e-08
-4.98111e-10
2.66294e-08
-5.6317e-10
2.65855e-08
-6.17639e-10
2.65609e-08
-6.57522e-10
2.65627e-08
-6.8122e-10
2.65957e-08
-6.89341e-10
2.66631e-08
-6.832e-10
2.67665e-08
-6.64642e-10
2.69075e-08
-6.37916e-10
2.70866e-08
-6.0597e-10
2.73042e-08
-5.70823e-10
2.75607e-08
-5.36977e-10
2.78572e-08
-5.0985e-10
2.81951e-08
-4.95441e-10
2.8576e-08
-5.01637e-10
2.90016e-08
-5.39347e-10
2.94739e-08
-6.25933e-10
2.99937e-08
-7.8631e-10
3.05589e-08
-1.06969e-09
3.11588e-08
-1.55819e-09
3.16856e-08
-2.03062e-09
3.20977e-08
-2.43344e-09
3.23997e-08
-2.80955e-09
3.25994e-08
-3.11754e-09
3.27034e-08
-3.31598e-09
3.2721e-08
-3.40676e-09
3.26647e-08
-3.40478e-09
3.25469e-08
-3.31261e-09
3.23791e-08
-3.13079e-09
3.21734e-08
-2.86522e-09
3.1943e-08
-2.52445e-09
3.17023e-08
-2.11909e-09
3.14669e-08
-1.66231e-09
3.12532e-08
-1.16974e-09
3.10785e-08
-6.59356e-10
3.09599e-08
-1.51023e-10
3.09126e-08
3.34397e-10
3.09483e-08
7.75277e-10
3.1072e-08
1.15166e-09
3.1279e-08
1.44706e-09
3.15526e-08
1.6508e-09
3.18628e-08
1.76019e-09
1.78133e-09
3.21686e-08
3.57548e-08
-3.24452e-10
3.57122e-08
-3.84711e-10
3.56618e-08
-4.47673e-10
3.56081e-08
-5.09475e-10
3.55569e-08
-5.66447e-10
3.5515e-08
-6.15567e-10
3.54885e-08
-6.54798e-10
3.54833e-08
-6.84142e-10
3.55039e-08
-7.03789e-10
3.5554e-08
-7.14678e-10
3.56376e-08
-7.21548e-10
3.57574e-08
-7.25755e-10
3.59151e-08
-7.2857e-10
3.61134e-08
-7.352e-10
3.63547e-08
-7.51164e-10
3.66415e-08
-7.82282e-10
3.69762e-08
-8.36368e-10
3.7361e-08
-9.24111e-10
3.77976e-08
-1.06252e-09
3.82857e-08
-1.27446e-09
3.88216e-08
-1.60557e-09
3.93915e-08
-2.1281e-09
3.98897e-08
-2.52883e-09
4.02742e-08
-2.81789e-09
4.05494e-08
-3.08481e-09
4.0723e-08
-3.29113e-09
4.08003e-08
-3.39321e-09
4.07916e-08
-3.39807e-09
4.07115e-08
-3.32469e-09
4.05735e-08
-3.1746e-09
4.03899e-08
-2.94726e-09
4.01742e-08
-2.64948e-09
3.99406e-08
-2.29089e-09
3.97045e-08
-1.88295e-09
3.94816e-08
-1.43939e-09
3.92878e-08
-9.75994e-10
3.91385e-08
-5.1004e-10
3.90472e-08
-5.97058e-11
3.90237e-08
3.57871e-10
3.90732e-08
7.25856e-10
3.91936e-08
1.03117e-09
3.93758e-08
1.26487e-09
3.9603e-08
1.42359e-09
3.98529e-08
1.51033e-09
1.53372e-09
4.01005e-08
4.69453e-08
-2.94396e-10
4.69078e-08
-3.47159e-10
4.68637e-08
-4.03611e-10
4.68157e-08
-4.61445e-10
4.67673e-08
-5.18115e-10
4.67232e-08
-5.71478e-10
4.66881e-08
-6.1962e-10
4.66667e-08
-6.62777e-10
4.66633e-08
-7.00342e-10
4.66817e-08
-7.33109e-10
4.67273e-08
-7.67182e-10
4.68028e-08
-8.01183e-10
4.69111e-08
-8.36874e-10
4.70566e-08
-8.80736e-10
4.72434e-08
-9.37944e-10
4.74751e-08
-1.01402e-09
4.77553e-08
-1.11654e-09
4.80868e-08
-1.25562e-09
4.84718e-08
-1.44754e-09
4.89095e-08
-1.71211e-09
4.93948e-08
-2.09094e-09
4.99115e-08
-2.6448e-09
5.03596e-08
-2.97692e-09
5.06981e-08
-3.15633e-09
5.09313e-08
-3.31809e-09
5.10655e-08
-3.42529e-09
5.11041e-08
-3.43185e-09
5.106e-08
-3.35398e-09
5.095e-08
-3.21469e-09
5.0788e-08
-3.01255e-09
5.05867e-08
-2.74592e-09
5.03602e-08
-2.42303e-09
5.01237e-08
-2.05435e-09
4.98924e-08
-1.65166e-09
4.96815e-08
-1.22849e-09
4.95052e-08
-7.9974e-10
4.9376e-08
-3.80793e-10
4.93028e-08
1.34315e-11
4.92912e-08
3.6947e-10
4.9341e-08
6.76102e-10
4.94466e-08
9.25578e-10
4.95973e-08
1.11418e-09
4.97783e-08
1.24253e-09
4.99731e-08
1.31552e-09
1.34134e-09
5.01655e-08
6.07499e-08
-2.66704e-10
6.07172e-08
-3.14449e-10
6.06799e-08
-3.66337e-10
6.06396e-08
-4.21135e-10
6.05987e-08
-4.7723e-10
6.05605e-08
-5.33272e-10
6.05285e-08
-5.87634e-10
6.05065e-08
-6.40755e-10
6.04979e-08
-6.91725e-10
6.05072e-08
-7.42497e-10
6.05379e-08
-7.97827e-10
6.05918e-08
-8.55042e-10
6.06729e-08
-9.17984e-10
6.0786e-08
-9.93901e-10
6.09352e-08
-1.0871e-09
6.11244e-08
-1.20327e-09
6.13577e-08
-1.34985e-09
6.16385e-08
-1.53634e-09
6.19691e-08
-1.7782e-09
6.23483e-08
-2.09129e-09
6.27707e-08
-2.51338e-09
6.32176e-08
-3.0917e-09
6.35985e-08
-3.3578e-09
6.38762e-08
-3.434e-09
6.40554e-08
-3.49727e-09
6.41386e-08
-3.50848e-09
6.4128e-08
-3.42132e-09
6.40423e-08
-3.26827e-09
6.39e-08
-3.07236e-09
6.37128e-08
-2.82533e-09
6.34936e-08
-2.5268e-09
6.32574e-08
-2.18683e-09
6.30192e-08
-1.81606e-09
6.27934e-08
-1.42589e-09
6.25937e-08
-1.0288e-09
6.24318e-08
-6.37822e-10
6.23165e-08
-2.65553e-10
6.22533e-08
7.66462e-11
6.22435e-08
3.7934e-10
6.22838e-08
6.35758e-10
6.23673e-08
8.42105e-10
6.24836e-08
9.97811e-10
6.26208e-08
1.10536e-09
6.27665e-08
1.16987e-09
1.19826e-09
6.29096e-08
7.75965e-08
-2.43636e-10
7.75706e-08
-2.88505e-10
7.7542e-08
-3.37794e-10
7.75119e-08
-3.91003e-10
7.74819e-08
-4.47276e-10
7.74546e-08
-5.05959e-10
7.74332e-08
-5.66184e-10
7.74208e-08
-6.28369e-10
7.74202e-08
-6.911e-10
7.74346e-08
-7.56918e-10
7.74643e-08
-8.27497e-10
7.75156e-08
-9.06367e-10
7.75932e-08
-9.95574e-10
7.76984e-08
-1.09914e-09
7.78341e-08
-1.2228e-09
7.80039e-08
-1.37307e-09
7.82111e-08
-1.55705e-09
7.84584e-08
-1.78358e-09
7.87476e-08
-2.06747e-09
7.9076e-08
-2.41963e-09
7.94382e-08
-2.87559e-09
7.98122e-08
-3.46575e-09
8.01197e-08
-3.66524e-09
8.03314e-08
-3.64574e-09
8.04518e-08
-3.61767e-09
8.04761e-08
-3.53275e-09
8.04114e-08
-3.35659e-09
8.02874e-08
-3.14434e-09
8.01167e-08
-2.90161e-09
7.99073e-08
-2.61597e-09
7.96742e-08
-2.29373e-09
7.94324e-08
-1.945e-09
7.9196e-08
-1.57962e-09
7.8978e-08
-1.20791e-09
7.87898e-08
-8.40582e-10
7.86401e-08
-4.88097e-10
7.85344e-08
-1.59912e-10
7.8475e-08
1.36027e-10
7.84605e-08
3.93872e-10
7.84862e-08
6.10073e-10
7.85448e-08
7.83446e-10
7.86275e-08
9.15118e-10
7.87247e-08
1.00821e-09
7.88272e-08
1.06739e-09
1.09823e-09
7.89272e-08
9.79814e-08
-2.2828e-10
9.79651e-08
-2.72227e-10
9.79482e-08
-3.20832e-10
9.79312e-08
-3.74075e-10
9.79157e-08
-4.3173e-10
9.79033e-08
-4.93574e-10
9.78966e-08
-5.59505e-10
9.78976e-08
-6.29319e-10
9.79104e-08
-7.03885e-10
9.79381e-08
-7.84624e-10
9.7982e-08
-8.71379e-10
9.80452e-08
-9.69643e-10
9.81314e-08
-1.0817e-09
9.8243e-08
-1.21077e-09
9.83821e-08
-1.36194e-09
9.85512e-08
-1.54218e-09
9.87522e-08
-1.75804e-09
9.8986e-08
-2.01739e-09
9.92531e-08
-2.33454e-09
9.95474e-08
-2.71395e-09
9.98639e-08
-3.19203e-09
1.00175e-07
-3.77653e-09
1.00415e-07
-3.90544e-09
1.00568e-07
-3.79923e-09
1.00631e-07
-3.68008e-09
1.00594e-07
-3.49641e-09
1.00489e-07
-3.2512e-09
1.00341e-07
-2.99595e-09
1.00149e-07
-2.70982e-09
9.99257e-08
-2.39282e-09
9.96874e-08
-2.05541e-09
9.9448e-08
-1.70563e-09
9.92202e-08
-1.35181e-09
9.90149e-08
-1.0026e-09
9.88407e-08
-6.66452e-10
9.87036e-08
-3.50974e-10
9.86063e-08
-6.25587e-11
9.85486e-08
1.93684e-10
9.85277e-08
4.14808e-10
9.85383e-08