/*--------------------------------*- C++ -*----------------------------------*\
| =========                 |                                                 |
| \\      /  F ield         | OpenFOAM: The Open Source CFD Toolbox           |
|  \\    /   O peration     | Version:  2312                                  |
|   \\  /    A nd           | Website:  www.openfoam.com                      |
|    \\/     M anipulation  |                                                 |
\*---------------------------------------------------------------------------*/
FoamFile
{
    version     2.0;
    format      ascii;
    arch        "LSB;label=32;scalar=64";
    class       surfaceScalarField;
    location    "17.5";
    object      phi;
}
// * * * * * * * * * * * * * * * * * * * * * * * * * * * * * * * * * * * * * //

dimensions      [0 3 -1 0 0 0 0];

oriented        oriented;

internalField   nonuniform List<scalar> 
9445
(
5.78154e-10
1.24771e-11
5.70584e-10
7.57026e-12
5.66147e-10
4.4372e-12
5.63855e-10
2.29173e-12
5.63164e-10
6.91722e-13
5.63792e-10
-6.28606e-13
5.65535e-10
-1.74299e-12
5.6833e-10
-2.79482e-12
5.72407e-10
-4.07724e-12
5.78145e-10
-5.73776e-12
5.86628e-10
-8.48284e-12
6.01415e-10
-1.47869e-11
6.35017e-10
-3.3602e-11
7.31431e-10
-9.64141e-11
-2.50562e-10
9.81993e-10
2.01835e-09
5.52195e-11
1.992e-09
3.39185e-11
1.97616e-09
2.02703e-11
1.96754e-09
1.09195e-11
1.96427e-09
3.95752e-12
1.9653e-09
-1.66074e-12
1.96991e-09
-6.34552e-12
1.97796e-09
-1.08533e-11
1.99003e-09
-1.61465e-11
2.00721e-09
-2.29144e-11
2.0323e-09
-3.35749e-11
2.07219e-09
-5.46731e-11
2.14026e-09
-1.01674e-10
2.24944e-09
-2.0559e-10
-3.66011e-10
2.36488e-09
3.98315e-09
1.37663e-10
3.93169e-09
8.53763e-11
3.90017e-09
5.17973e-11
3.88229e-09
2.87917e-11
3.87452e-09
1.17281e-11
3.87469e-09
-1.83065e-12
3.88137e-09
-1.3025e-11
3.89426e-09
-2.37392e-11
3.91401e-09
-3.59009e-11
3.94187e-09
-5.07744e-11
3.98067e-09
-7.23765e-11
4.03509e-09
-1.09089e-10
4.10799e-09
-1.74571e-10
4.18588e-09
-2.8348e-10
-4.12299e-10
4.23217e-09
6.61607e-09
2.70441e-10
6.53207e-09
1.69377e-10
6.47956e-09
1.04309e-10
6.44864e-09
5.97078e-11
6.43356e-09
2.68119e-11
6.43075e-09
9.75383e-13
6.43789e-09
-2.01659e-11
6.45401e-09
-3.98613e-11
6.47954e-09
-6.14271e-11
6.51495e-09
-8.61842e-11
6.56137e-09
-1.18793e-10
6.61855e-09
-1.66271e-10
6.68015e-09
-2.36177e-10
6.72639e-09
-3.29716e-10
-4.20875e-10
6.73497e-09
1.00905e-08
4.64254e-10
9.96604e-09
2.93888e-10
9.88653e-09
1.83814e-10
9.83798e-09
1.08262e-10
9.81185e-09
5.29357e-11
9.80303e-09
9.8024e-12
9.80799e-09
-2.51322e-11
9.8246e-09
-5.64634e-11
9.85232e-09
-8.91501e-11
9.8903e-09
-1.2417e-10
9.93709e-09
-1.65582e-10
9.9882e-09
-2.1738e-10
1.00333e-08
-2.81254e-10
1.00556e-08
-3.52045e-10
-4.1061e-10
1.00453e-08
1.46113e-08
7.27289e-10
1.44392e-08
4.65926e-10
1.43269e-08
2.96159e-10
1.42558e-08
1.79334e-10
1.42145e-08
9.42764e-11
1.41957e-08
2.85744e-11
1.41947e-08
-2.41321e-11
1.4208e-08
-6.98177e-11
1.42332e-08
-1.14285e-10
1.42678e-08
-1.58789e-10
1.43081e-08
-2.05892e-10
1.43475e-08
-2.56747e-10
1.43759e-08
-3.09673e-10
1.43826e-08
-3.58758e-10
-3.93176e-10
1.43652e-08
2.04118e-08
1.06046e-09
2.01891e-08
6.88615e-10
2.00401e-08
4.45123e-10
1.99426e-08
2.76828e-10
1.98822e-08
1.54664e-10
1.98496e-08
6.12248e-11
1.98384e-08
-1.29079e-11
1.98437e-08
-7.51556e-11
1.98611e-08
-1.31665e-10
1.98865e-08
-1.84244e-10
1.99149e-08
-2.34215e-10
1.99393e-08
-2.81222e-10
1.99526e-08
-3.22909e-10
1.99491e-08
-3.55306e-10
-3.73761e-10
1.99297e-08
2.77471e-08
1.45022e-09
2.74794e-08
9.56374e-10
2.72954e-08
6.29092e-10
2.71709e-08
4.01294e-10
2.70897e-08
2.35886e-10
2.70405e-08
1.10431e-10
2.70155e-08
1.20711e-11
2.70085e-08
-6.8102e-11
2.70134e-08
-1.36602e-10
2.70251e-08
-1.95894e-10
2.70379e-08
-2.47006e-10
2.70462e-08
-2.89612e-10
2.70457e-08
-3.22411e-10
2.70344e-08
-3.43914e-10
-3.53153e-10
2.70137e-08
3.68822e-08
1.86087e-09
3.65896e-08
1.24899e-09
3.63821e-08
8.36545e-10
3.6237e-08
5.46449e-10
3.61379e-08
3.35006e-10
3.60728e-08
1.75465e-10
3.60331e-08
5.17879e-11
3.60114e-08
-4.64264e-11
3.60012e-08
-1.26397e-10
3.59967e-08
-1.91398e-10
3.59929e-08
-2.4317e-10
3.59857e-08
-2.82471e-10
3.5973e-08
-3.09652e-10
3.59543e-08
-3.25273e-10
-3.30322e-10
3.59315e-08
4.80848e-08
2.23322e-09
4.78055e-08
1.5283e-09
4.75995e-08
1.04252e-09
4.745e-08
6.95922e-10
4.73436e-08
4.41471e-10
4.72693e-08
2.49746e-10
4.72186e-08
1.02451e-10
4.71842e-08
-1.20097e-11
4.71599e-08
-1.02135e-10
4.71405e-08
-1.71954e-10
4.7122e-08
-2.24631e-10
4.71018e-08
-2.62353e-10
4.70792e-08
-2.86984e-10
4.70544e-08
-3.00459e-10
-3.04722e-10
4.70288e-08
6.16453e-08
2.50076e-09
6.14283e-08
1.74529e-09
6.12594e-08
1.21141e-09
6.11314e-08
8.2392e-10
6.10362e-08
5.36691e-10
6.0966e-08
3.19931e-10
6.0914e-08
1.54441e-10
6.08743e-08
2.76819e-11
6.08419e-08
-6.97432e-11
6.08131e-08
-1.43102e-10
6.07852e-08
-1.96781e-10
6.07572e-08
-2.34278e-10
6.07287e-08
-2.58516e-10
6.07004e-08
-2.72195e-10
-2.77672e-10
6.06734e-08
7.79453e-08
2.62625e-09
7.7827e-08
1.86357e-09
7.77265e-08
1.31192e-09
7.76455e-08
9.04921e-10
7.75819e-08
6.00317e-10
7.75319e-08
3.69898e-10
7.74917e-08
1.9469e-10
7.74577e-08
6.16537e-11
7.74268e-08
-3.89017e-11
7.73974e-08
-1.13703e-10
7.73684e-08
-1.67719e-10
7.73395e-08
-2.05369e-10
7.73111e-08
-2.30142e-10
7.7284e-08
-2.4505e-10
-2.52545e-10
7.72588e-08
9.7549e-08
2.63074e-09
9.75261e-08
1.88639e-09
9.74987e-08
1.33934e-09
9.74725e-08
9.31107e-10
9.74491e-08
6.23706e-10
9.7428e-08
3.91028e-10
9.7408e-08
2.14749e-10
9.73879e-08
8.1726e-11
9.73668e-08
-1.78176e-11
9.73447e-08
-9.16443e-11
9.73218e-08
-1.44826e-10
9.72987e-08
-1.82238e-10
9.72761e-08
-2.07542e-10
9.72548e-08
-2.2376e-10
-2.33268e-10
9.72355e-08
1.212e-07
2.57227e-09
1.21233e-07
1.85352e-09
1.21251e-07
1.32055e-09
1.21262e-07
9.20578e-10
1.21267e-07
6.18867e-10
1.21267e-07
3.90907e-10
1.21263e-07
2.18895e-10
1.21255e-07
8.96811e-11
1.21244e-07
-6.50747e-12
1.2123e-07
-7.80374e-11
1.21215e-07
-1.29767e-10
1.21199e-07
-1.66708e-10
1.21184e-07
-1.9246e-10
1.2117e-07
-2.09909e-10
-2.21269e-10
1.21158e-07
1.49631e-07
2.49083e-09
1.49683e-07
1.80173e-09
1.49716e-07
1.28738e-09
1.49737e-07
8.99932e-10
1.49748e-07
6.07438e-10
1.49752e-07
3.86726e-10
1.49751e-07
2.20499e-10
1.49745e-07
9.57387e-11
1.49735e-07
2.9782e-12
1.49724e-07
-6.6722e-11
1.49712e-07
-1.17552e-10
1.497e-07
-1.54612e-10
1.49689e-07
-1.81328e-10
1.49679e-07
-2.00388e-10
-2.13826e-10
1.49672e-07
1.83317e-07
2.38847e-09
1.8338e-07
1.73877e-09
1.83417e-07
1.25042e-09
1.83437e-07
8.80578e-10
1.83444e-07
6.00427e-10
1.83442e-07
3.88479e-10
1.83434e-07
2.28415e-10
1.83422e-07
1.07772e-10
1.83408e-07
1.71631e-11
1.83392e-07
-5.14505e-11
1.83377e-07
-1.02582e-10
1.83364e-07
-1.40791e-10
1.83352e-07
-1.69335e-10
1.83342e-07
-1.90715e-10
-2.06784e-10
1.83335e-07
2.22336e-07
2.25296e-09
2.22419e-07
1.6561e-09
2.22465e-07
1.2038e-09
2.22487e-07
8.58562e-10
2.22493e-07
5.95199e-10
2.22487e-07
3.94465e-10
2.22473e-07
2.41593e-10
2.22456e-07
1.25189e-10
2.22437e-07
3.66003e-11
2.22417e-07
-3.1509e-11
2.22398e-07
-8.37739e-11
2.22381e-07
-1.23836e-10
2.22366e-07
-1.54821e-10
2.22355e-07
-1.79052e-10
-1.98227e-10
2.22346e-07
2.66241e-07
2.07917e-09
2.66349e-07
1.54797e-09
2.66412e-07
1.14138e-09
2.66443e-07
8.27749e-10
2.66452e-07
5.85995e-10
2.66447e-07
3.99563e-10
2.66433e-07
2.55648e-10
2.66414e-07
1.44313e-10
2.66392e-07
5.80971e-11
2.66369e-07
-8.6955e-12
2.66348e-07
-6.30032e-11
2.6633e-07
-1.05146e-10
2.66314e-07
-1.38838e-10
2.66301e-07
-1.66202e-10
-1.88702e-10
2.66291e-07
3.13687e-07
1.86792e-09
3.13822e-07
1.4127e-09
3.13904e-07
1.05963e-09
3.13948e-07
7.83673e-10
3.13966e-07
5.68037e-10
3.13966e-07
3.99243e-10
3.13955e-07
2.66733e-10
3.13937e-07
1.62178e-10
3.13916e-07
7.91877e-11
3.13894e-07
1.31539e-11
3.13873e-07
-4.16278e-11
3.13854e-07
-8.6169e-11
3.13838e-07
-1.22826e-10
3.13825e-07
-1.53512e-10
-1.79477e-10
3.13816e-07
3.61765e-07
1.61512e-09
3.61934e-07
1.24393e-09
3.62043e-07
9.50687e-10
3.62109e-07
7.17576e-10
3.62145e-07
5.32247e-10
3.6216e-07
3.84486e-10
3.6216e-07
2.66114e-10
3.62152e-07
1.70695e-10
3.62138e-07
9.31825e-11
3.62121e-07
2.968e-11
3.62103e-07
-2.35636e-11
3.62086e-07
-6.86794e-11
3.6207e-07
-1.06856e-10
3.62056e-07
-1.39694e-10
-1.68345e-10
3.62045e-07
3.59507e-07
1.3653e-09
3.5968e-07
1.07108e-09
3.59797e-07
8.33553e-10
3.59874e-07
6.41195e-10
3.59921e-07
4.8535e-10
3.59947e-07
3.58561e-10
3.59958e-07
2.5473e-10
3.5996e-07
1.69019e-10
3.59955e-07
9.77298e-11
3.59946e-07
3.82259e-11
3.59935e-07
-1.22406e-11
3.59924e-07
-5.77992e-11
3.59914e-07
-9.64622e-11
3.59905e-07
-1.30497e-10
-1.60853e-10
3.59897e-07
3.08043e-07
1.14118e-09
3.08201e-07
9.12673e-10
3.08311e-07
7.23599e-10
3.08385e-07
5.67599e-10
3.08431e-07
4.38745e-10
3.08458e-07
3.31773e-10
3.08471e-07
2.42319e-10
3.08473e-07
1.66862e-10
3.08468e-07
1.02579e-10
3.08459e-07
4.70588e-11
3.08449e-07
-2.11941e-12
3.08436e-07
-4.46546e-11
3.08423e-07
-8.3154e-11
3.0841e-07
-1.17651e-10
-1.48873e-10
3.08398e-07
2.5817e-07
9.49658e-10
2.58312e-07
7.70847e-10
2.58416e-07
6.19871e-10
2.5849e-07
4.93173e-10
2.58542e-07
3.86619e-10
2.58578e-07
2.96489e-10
2.586e-07
2.19628e-10
2.58614e-07
1.5344e-10
2.58621e-07
9.58018e-11
2.58623e-07
4.50195e-11
2.5862e-07
2.22678e-13
2.58616e-07
-4.03853e-11
2.5861e-07
-7.69399e-11
2.58603e-07
-1.10349e-10
-1.41033e-10
2.58595e-07
2.12891e-07
7.85989e-10
2.13016e-07
6.45959e-10
2.1311e-07
5.25782e-10
2.1318e-07
4.232e-10
2.13231e-07
3.354e-10
2.13268e-07
2.59777e-10
2.13293e-07
1.94095e-10
2.1331e-07
1.36503e-10
2.1332e-07
8.55017e-11
2.13325e-07
3.9917e-11
2.13327e-07
-1.10527e-12
2.13325e-07
-3.85984e-11
2.13321e-07
-7.28946e-11
2.13315e-07
-1.04551e-10
-1.33909e-10
2.13308e-07
1.73181e-07
6.45064e-10
1.73291e-07
5.35592e-10
1.73377e-07
4.40302e-10
1.73442e-07
3.57638e-10
1.73492e-07
2.85677e-10
1.73529e-07
2.22617e-10
1.73557e-07
1.66918e-10
1.73576e-07
1.17277e-10
1.73589e-07
7.26597e-11
1.73596e-07
3.2186e-11
1.736e-07
-4.85729e-12
1.736e-07
-3.88592e-11
1.73598e-07
-7.04121e-11
1.73593e-07
-9.97725e-11
-1.2718e-10
1.73586e-07
1.39227e-07
5.23181e-10
1.39325e-07
4.37879e-10
1.39402e-07
3.62662e-10
1.39463e-07
2.96411e-10
1.39511e-07
2.37794e-10
1.39548e-07
1.85595e-10
1.39576e-07
1.38768e-10
1.39597e-07
9.6417e-11
1.39612e-07
5.7814e-11
1.39622e-07
2.23371e-11
1.39628e-07
-1.04476e-11
1.3963e-07
-4.08145e-11
1.39628e-07
-6.92356e-11
1.39624e-07
-9.58489e-11
-1.20804e-10
1.39618e-07
1.10748e-07
4.17414e-10
1.10835e-07
3.51322e-10
1.10905e-07
2.92337e-10
1.10962e-07
2.39626e-10
1.11008e-07
1.92266e-10
1.11044e-07
1.49467e-10
1.11072e-07
1.10529e-10
1.11094e-07
7.48689e-11
1.11109e-07
4.1938e-11
1.11121e-07
1.13129e-11
1.11127e-07
-1.70626e-11
1.1113e-07
-4.36765e-11
1.11129e-07
-6.86983e-11
1.11126e-07
-9.22232e-11
-1.14345e-10
1.11119e-07
8.72242e-08
3.25942e-10
8.73004e-08
2.75209e-10
8.73633e-08
2.29412e-10
8.7415e-08
1.87913e-10
8.74572e-08
1.50089e-10
8.74912e-08
1.15454e-10
8.75182e-08
8.35494e-11
8.7539e-08
5.40138e-11
8.75545e-08
2.64988e-11
8.75653e-08
4.89164e-13
8.75717e-08
-2.34343e-11
8.75742e-08
-4.62317e-11
8.75732e-08
-6.76845e-11
8.75689e-08
-8.79018e-11
-1.06936e-10
8.75615e-08
6.80297e-08
2.47992e-10
6.80953e-08
2.09579e-10
6.81502e-08
1.74526e-10
6.81958e-08
1.42326e-10
6.82333e-08
1.12598e-10
6.82637e-08
8.50552e-11
6.82878e-08
5.94205e-11
6.83064e-08
3.54426e-11
6.832e-08
1.28906e-11
6.83288e-08
-8.36438e-12
6.83337e-08
-2.82927e-11
6.83346e-08
-4.71834e-11
6.8332e-08
-6.50352e-11
6.8326e-08
-8.18763e-11
-9.7721e-11
6.83168e-08
5.25253e-08
1.83239e-10
5.25802e-08
1.54686e-10
5.26264e-08
1.2835e-10
5.26649e-08
1.03835e-10
5.26965e-08
8.09441e-11
5.27221e-08
5.95193e-11
5.27421e-08
3.94002e-11
5.27571e-08
2.04305e-11
5.27675e-08
2.4579e-12
5.27737e-08
-1.44828e-11
5.27759e-08
-3.05319e-11
5.27744e-08
-4.57215e-11
5.27695e-08
-6.00897e-11
5.27613e-08
-7.36422e-11
-8.63685e-11
5.27499e-08
4.01091e-08
1.31157e-10
4.01534e-08
1.10413e-10
4.01907e-08
9.10737e-11
4.02217e-08
7.28429e-11
4.0247e-08
5.56543e-11
4.0267e-08
3.94266e-11
4.02824e-08
2.40695e-11
4.02933e-08
9.49524e-12
4.03001e-08
-4.35473e-12
4.03031e-08
-1.74844e-11
4.03025e-08
-2.99489e-11
4.02986e-08
-4.17525e-11
4.02914e-08
-5.29122e-11
4.02812e-08
-6.34232e-11
-7.32655e-11
4.02681e-08
3.0243e-08
9.06996e-11
3.02773e-08
7.60349e-11
3.03062e-08
6.22184e-11
3.033e-08
4.90426e-11
3.03491e-08
3.65218e-11
3.03639e-08
2.4612e-11
3.03747e-08
1.32689e-11
3.03818e-08
2.45191e-12
3.03853e-08
-7.85531e-12
3.03855e-08
-1.76723e-11
3.03825e-08
-2.69956e-11
3.03766e-08
-3.58261e-11
3.03679e-08
-4.41654e-11
3.03564e-08
-5.20018e-11
-5.93135e-11
3.03425e-08
2.24616e-08
6.0349e-11
2.24874e-08
5.03126e-11
2.25088e-08
4.07676e-11
2.25263e-08
3.15745e-11
2.254e-08
2.27855e-11
2.25503e-08
1.43689e-11
2.25572e-08
6.31145e-12
2.25611e-08
-1.39438e-12
2.2562e-08
-8.76713e-12
2.25601e-08
-1.58058e-11
2.25556e-08
-2.24918e-11
2.25486e-08
-2.88215e-11
2.25392e-08
-3.47902e-11
2.25276e-08
-4.03828e-11
-4.55797e-11
2.25139e-08
1.63712e-08
3.83529e-11
1.63897e-08
3.17512e-11
1.64051e-08
2.54329e-11
1.64174e-08
1.93006e-11
1.64267e-08
1.34118e-11
1.64334e-08
7.73691e-12
1.64374e-08
2.28201e-12
1.64389e-08
-2.94186e-12
1.64381e-08
-7.96646e-12
1.64351e-08
-1.27683e-11
1.64299e-08
-1.73284e-11
1.64228e-08
-2.16421e-11
1.64137e-08
-2.5703e-11
1.64028e-08
-2.94958e-11
-3.30041e-11
1.63902e-08
1.16425e-08
2.29739e-11
1.16554e-08
1.88478e-11
1.1666e-08
1.48998e-11
1.16742e-08
1.10486e-11
1.16803e-08
7.33832e-12
1.16843e-08
3.74079e-12
1.16863e-08
2.71151e-13
1.16864e-08
-3.05232e-12
1.16847e-08
-6.26949e-12
1.16813e-08
-9.34411e-12
1.16762e-08
-1.22624e-11
1.16696e-08
-1.50203e-11
1.16615e-08
-1.76125e-11
1.1652e-08
-2.00253e-11
-2.22447e-11
1.16413e-08
8.00344e-09
1.26579e-11
8.01203e-09
1.02554e-11
8.01894e-09
7.9863e-12
8.02422e-09
5.76816e-12
8.02794e-09
3.62521e-12
8.03014e-09
1.53428e-12
8.0309e-09
-4.88361e-13
8.03028e-09
-2.42525e-12
8.02832e-09
-4.31612e-12
8.02509e-09
-6.11533e-12
8.02066e-09
-7.82757e-12
8.01508e-09
-9.44259e-12
8.00843e-09
-1.09585e-11
8.00077e-09
-1.23645e-11
-1.36482e-11
7.99217e-09
5.23044e-09
6.11132e-12
5.23584e-09
4.85561e-12
5.24011e-09
3.71436e-12
5.24328e-09
2.59952e-12
5.24538e-09
1.51891e-12
5.24646e-09
4.57661e-13
5.24655e-09
-5.7625e-13
5.24568e-09
-1.56148e-12
5.2439e-09
-2.53001e-12
5.24123e-09
-3.45211e-12
5.23774e-09
-4.33008e-12
5.23345e-09
-5.15657e-12
5.22842e-09
-5.93183e-12
5.22271e-09
-6.64778e-12
-7.29347e-12
5.21635e-09
3.14144e-09
2.30907e-12
3.14453e-09
1.76734e-12
3.14693e-09
1.31901e-12
3.14864e-09
8.82466e-13
3.14971e-09
4.56381e-13
3.15013e-09
3.33114e-14
3.14993e-09
-3.79692e-13
3.14915e-09
-7.74782e-13
3.14778e-09
-1.16286e-12
3.14586e-09
-1.5341e-12
3.14342e-09
-1.88716e-12
3.14048e-09
-2.21917e-12
3.13708e-09
-2.53036e-12
3.13325e-09
-2.81578e-12
-3.06596e-12
3.12902e-09
1.58908e-09
4.66202e-13
1.59053e-09
3.16866e-13
1.59163e-09
2.22599e-13
1.59238e-09
1.31165e-13
1.5928e-09
3.92658e-14
1.59288e-09
-5.295e-14
1.59265e-09
-1.45171e-13
1.59211e-09
-2.32506e-13
1.59126e-09
-3.18725e-13
1.59013e-09
-4.01193e-13
1.58872e-09
-4.79252e-13
1.58706e-09
-5.53255e-13
1.58515e-09
-6.21722e-13
1.58301e-09
-6.83648e-13
-7.3198e-13
1.58068e-09
4.54836e-10
4.55153e-10
4.55375e-10
4.55506e-10
4.55546e-10
4.55493e-10
4.55348e-10
4.55115e-10
4.54796e-10
4.54395e-10
4.53916e-10
4.53363e-10
4.52741e-10
4.52057e-10
4.51325e-10
1.17406e-09
-4.85712e-10
2.9365e-10
1.44877e-09
-4.20843e-10
1.46129e-10
1.72548e-09
-2.89952e-10
1.32438e-11
1.99784e-09
-1.54979e-10
-1.17384e-10
2.26413e-09
-2.1073e-11
-2.45219e-10
2.52516e-09
1.04506e-10
-3.65532e-10
2.78235e-09
2.20591e-10
-4.77786e-10
3.03694e-09
3.26463e-10
-5.81052e-10
3.28995e-09
4.21466e-10
-6.74473e-10
3.54218e-09
5.05102e-10
-7.57335e-10
3.79428e-09
5.77005e-10
-8.291e-10
4.04677e-09
6.37188e-10
-8.89677e-10
4.30016e-09
6.8646e-10
-9.3985e-10
4.55505e-09
7.27088e-10
-9.81983e-10
4.81232e-09
7.63773e-10
-1.02104e-09
5.07338e-09
8.05108e-10
-1.06616e-09
5.34055e-09
8.65073e-10
-1.13224e-09
5.61764e-09
9.64923e-10
-1.24202e-09
5.91038e-09
1.13094e-09
-1.42368e-09
6.22659e-09
1.39052e-09
-1.70672e-09
6.57467e-09
1.7446e-09
-2.09267e-09
6.95941e-09
2.13673e-09
-2.52148e-09
7.31575e-09
2.02761e-09
-2.38395e-09
7.61207e-09
1.52639e-09
-1.82271e-09
7.84466e-09
8.60049e-10
-1.09263e-09
8.01421e-09
1.23475e-10
-2.93023e-10
8.12386e-09
-6.11672e-10
5.0202e-10
8.17737e-09
-1.29944e-09
1.24593e-09
8.1781e-09
-1.9103e-09
1.90957e-09
8.12892e-09
-2.42354e-09
2.47272e-09
8.03248e-09
-2.82268e-09
2.91912e-09
7.89157e-09
-3.09446e-09
3.23538e-09
7.70926e-09
-3.22937e-09
3.41168e-09
7.48896e-09
-3.22261e-09
3.44291e-09
7.23414e-09
-3.07428e-09
3.3291e-09
6.94807e-09
-2.78872e-09
3.07479e-09
6.63357e-09
-2.37281e-09
2.68731e-09
6.293e-09
-1.83327e-09
2.17383e-09
5.92851e-09
-1.17331e-09
1.5378e-09
5.54145e-09
-3.90524e-10
7.77587e-10
5.12904e-09
5.16867e-10
-1.04459e-10
4.67913e-09
1.52579e-09
-1.07588e-09
4.16855e-09
2.52321e-09
-2.01263e-09
3.59999e-09
3.24593e-09
-2.67737e-09
2.98766e-09
3.25702e-09
-2.6447e-09
2.44099e-09
-5.61814e-10
2.60377e-09
-5.83623e-10
2.825e-09
-5.11184e-10
3.07228e-09
-4.02265e-10
3.33186e-09
-2.80648e-10
3.59658e-09
-1.60213e-10
3.86359e-09
-4.64167e-11
4.13181e-09
5.82367e-11
4.40099e-09
1.52287e-10
4.67118e-09
2.3491e-10
4.94258e-09
3.05611e-10
5.21543e-09
3.6434e-10
5.49006e-09
4.11828e-10
5.76696e-09
4.50184e-10
6.04693e-09
4.83804e-10
6.33135e-09
5.20693e-10
6.62255e-09
5.7387e-10
6.92444e-09
6.63028e-10
7.24296e-09
8.12423e-10
7.58628e-09
1.0472e-09
7.96339e-09
1.36749e-09
8.3797e-09
1.72041e-09
8.76583e-09
1.64149e-09
9.08816e-09
1.20406e-09
9.34266e-09
6.05553e-10
9.52976e-09
-6.36284e-11
9.6525e-09
-7.3441e-10
9.71466e-09
-1.36159e-09
9.71978e-09
-1.91543e-09
9.67104e-09
-2.3748e-09
9.57156e-09
-2.7232e-09
9.42474e-09
-2.94764e-09
9.23449e-09
-3.03913e-09
9.00525e-09
-2.99337e-09
8.74186e-09
-2.81088e-09
8.44937e-09
-2.49624e-09
8.13313e-09
-2.05656e-09
7.79917e-09
-1.49931e-09
7.45552e-09
-8.29665e-10
7.11404e-09
-4.904e-11
6.79142e-09
8.39479e-10
6.50977e-09
1.80745e-09
6.29673e-09
2.73625e-09
6.19542e-09
3.34724e-09
3.07211e-09
6.11097e-09
4.24649e-09
-5.76141e-10
4.31825e-09
-6.55379e-10
4.45899e-09
-6.51923e-10
4.65218e-09
-5.95452e-10
4.87824e-09
-5.06714e-10
5.12477e-09
-4.06745e-10
5.38425e-09
-3.05897e-10
5.65237e-09
-2.09885e-10
5.92671e-09
-1.22049e-10
6.2059e-09
-4.42845e-11
6.48922e-09
2.23e-11
6.77627e-09
7.72808e-11
7.06698e-09
1.21119e-10
7.36153e-09
1.55639e-10
7.66048e-09
1.84848e-10
7.96508e-09
2.16096e-10
8.27757e-09
2.61382e-10
8.60184e-09
3.38756e-10
8.94392e-09
4.70341e-10
9.31226e-09
6.78862e-10
9.71626e-09
9.63488e-10
1.0162e-08
1.2747e-09
1.05761e-08
1.22735e-09
1.09232e-08
8.56954e-10
1.11989e-08
3.29884e-10
1.14032e-08
-2.67937e-10
1.1539e-08
-8.70172e-10
1.16099e-08
-1.43256e-09
1.16198e-08
-1.92529e-09
1.15721e-08
-2.32709e-09
1.14704e-08
-2.62157e-09
1.13191e-08
-2.79627e-09
1.11229e-08
-2.84294e-09
1.08876e-08
-2.75811e-09
1.06198e-08
-2.54306e-09
1.03267e-08
-2.20314e-09
1.00167e-08
-1.74655e-09
9.70012e-09
-1.18275e-09
9.39148e-09
-5.21022e-10
9.11259e-09
2.29851e-10
8.89633e-09
1.05574e-09
8.7855e-09
1.91828e-09
8.81601e-09
2.70573e-09
8.97205e-09
3.19119e-09
2.99615e-09
9.04802e-09
6.71391e-09
-5.55089e-10
6.72408e-09
-6.6555e-10
6.78634e-09
-7.14179e-10
6.90662e-09
-7.15733e-10
7.07562e-09
-6.75711e-10
7.2799e-09
-6.11025e-10
7.50987e-09
-5.35872e-10
7.75872e-09
-4.58727e-10
8.02173e-09
-3.8506e-10
8.29577e-09
-3.18331e-10
8.5788e-09
-2.60724e-10
8.86947e-09
-2.13394e-10
9.167e-09
-1.7641e-10
9.47105e-09
-1.48408e-10
9.7818e-09
-1.25902e-10
1.01002e-08
-1.02284e-10
1.04282e-08
-6.66572e-11
1.07697e-08
-2.68943e-12
1.11305e-08
1.09512e-10
1.15192e-08
2.90115e-10
1.19456e-08
5.37115e-10
1.24161e-08
8.04183e-10
1.28544e-08
7.89112e-10
1.32232e-08
4.88088e-10
1.35179e-08
3.5272e-11
1.37378e-08
-4.87879e-10
1.38855e-08
-1.01792e-09
1.39647e-08
-1.51174e-09
1.39792e-08
-1.93972e-09
1.39327e-08
-2.28068e-09
1.38298e-08
-2.51863e-09
1.36754e-08
-2.6419e-09
1.34758e-08
-2.64327e-09
1.32381e-08
-2.52041e-09
1.29708e-08
-2.27579e-09
1.26838e-08
-1.91611e-09
1.23886e-08
-1.45139e-09
1.20999e-08
-8.94067e-10
1.18376e-08
-2.58662e-10
1.16298e-08
4.37633e-10
1.15158e-08
1.16971e-09
1.15408e-08
1.89332e-09
1.17293e-08
2.51724e-09
1.20344e-08
2.88608e-09
2.80054e-09
1.223e-08
1.00089e-08
-5.18662e-10
9.98006e-09
-6.36698e-10
9.98343e-09
-7.17542e-10
1.00307e-08
-7.62963e-10
1.01281e-08
-7.7313e-10
1.02704e-08
-7.5339e-10
1.04487e-08
-7.14168e-10
1.06562e-08
-6.66237e-10
1.08872e-08
-6.15965e-10
1.1137e-08
-5.68141e-10
1.14024e-08
-5.2612e-10
1.1681e-08
-4.91988e-10
1.19711e-08
-4.66547e-10
1.22718e-08
-4.49072e-10
1.25826e-08
-4.3673e-10
1.29041e-08
-4.23763e-10
1.32379e-08
-4.00458e-10
1.35874e-08
-3.5227e-10
1.39586e-08
-2.6162e-10
1.43597e-08
-1.10994e-10
1.48006e-08
9.62434e-11
1.5288e-08
3.16746e-10
1.57435e-08
3.33582e-10
1.61287e-08
1.02935e-10
1.64379e-08
-2.73978e-10
1.66702e-08
-7.20144e-10
1.68275e-08
-1.17521e-09
1.69132e-08
-1.59745e-09
1.69312e-08
-1.95777e-09
1.68859e-08
-2.23538e-09
1.67823e-08
-2.41503e-09
1.66266e-08
-2.48613e-09
1.64261e-08
-2.44284e-09
1.619e-08
-2.28431e-09
1.59288e-08
-2.01457e-09
1.56548e-08
-1.64212e-09
1.53827e-08
-1.17929e-09
1.51305e-08
-6.41834e-10
1.4921e-08
-4.92214e-11
1.47838e-08
5.74857e-10
1.47548e-08
1.19873e-09
1.48688e-08
1.77927e-09
1.5135e-08
2.2511e-09
1.5497e-08
2.52405e-09
2.51022e-09
1.57873e-08
1.43254e-08
-4.78898e-10
1.42775e-08
-5.88763e-10
1.42433e-08
-6.83393e-10
1.42354e-08
-7.55042e-10
1.42651e-08
-8.02814e-10
1.43361e-08
-8.24445e-10
1.44476e-08
-8.25634e-10
1.45946e-08
-8.13202e-10
1.47724e-08
-7.93752e-10
1.49766e-08
-7.7235e-10
1.52034e-08
-7.52983e-10
1.54499e-08
-7.3847e-10
1.57137e-08
-7.30323e-10
1.59931e-08
-7.28499e-10
1.62873e-08
-7.30895e-10
1.65962e-08
-7.32659e-10
1.6921e-08
-7.25333e-10
1.7265e-08
-6.96185e-10
1.76334e-08
-6.30009e-10
1.80343e-08
-5.11973e-10
1.84775e-08
-3.46941e-10
1.89697e-08
-1.75451e-10
1.9432e-08
-1.28668e-10
1.98247e-08
-2.89827e-10
2.01415e-08
-5.90792e-10
2.03804e-08
-9.5905e-10
2.05428e-08
-1.33757e-09
2.06317e-08
-1.68637e-09
2.06512e-08
-1.9772e-09
2.06058e-08
-2.19006e-09
2.05016e-08
-2.31081e-09
2.03458e-08
-2.3303e-09
2.01473e-08
-2.24435e-09
1.99169e-08
-2.0539e-09
1.96672e-08
-1.76483e-09
1.94127e-08
-1.38766e-09
1.91705e-08
-9.37059e-10
1.89602e-08
-4.31606e-10
1.8805e-08
1.06038e-10
1.87308e-08
6.49028e-10
1.87643e-08
1.16525e-09
1.89254e-08
1.61814e-09
1.92108e-08
1.96578e-09
1.9571e-08
2.16381e-09
2.18097e-09
1.99002e-08
1.98926e-08
-4.41755e-10
1.98414e-08
-5.37605e-10
1.97889e-08
-6.30882e-10
1.97475e-08
-7.13681e-10
1.97272e-08
-7.82464e-10
1.97363e-08
-8.3359e-10
1.97795e-08
-8.68834e-10
1.98572e-08
-8.90836e-10
1.99676e-08
-9.04244e-10
2.01085e-08
-9.13216e-10
2.0277e-08
-9.21466e-10
2.04705e-08
-9.31928e-10
2.06866e-08
-9.46467e-10
2.09236e-08
-9.65522e-10
2.11804e-08
-9.87629e-10
2.14565e-08
-1.00879e-09
2.1753e-08
-1.02179e-09
2.20724e-08
-1.01567e-09
2.242e-08
-9.77575e-10
2.28033e-08
-8.95298e-10
2.32316e-08
-7.75247e-10
2.37114e-08
-6.55238e-10
2.41653e-08
-5.82595e-10
2.45532e-08
-6.7765e-10
2.48671e-08
-9.04705e-10
2.5104e-08
-1.19593e-09
2.52644e-08
-1.49799e-09
2.5351e-08
-1.77299e-09
2.53678e-08
-1.99401e-09
2.532e-08
-2.14223e-09
2.52142e-08
-2.20502e-09
2.50589e-08
-2.17501e-09
2.48645e-08
-2.04997e-09
2.46434e-08
-1.83279e-09
2.44099e-08
-1.53132e-09
2.41802e-08
-1.15793e-09
2.39722e-08
-7.29128e-10
2.38057e-08
-2.65095e-10
2.37011e-08
2.10689e-10
2.36781e-08
6.7202e-10
2.37524e-08
1.09097e-09
2.39303e-08
1.44021e-09
2.42007e-08
1.69539e-09
2.4526e-08
1.83854e-09
1.86392e-09
2.4843e-08
2.69802e-08
-4.08184e-10
2.69326e-08
-4.90035e-10
2.68768e-08
-5.75034e-10
2.68208e-08
-6.57677e-10
2.67723e-08
-7.3402e-10
2.67397e-08
-8.01011e-10
2.6729e-08
-8.5811e-10
2.67442e-08
-9.06057e-10
2.67872e-08
-9.47222e-10
2.68583e-08
-9.8435e-10
2.69571e-08
-1.02021e-09
2.70824e-08
-1.05723e-09
2.7233e-08
-1.09709e-09
2.74078e-08
-1.14035e-09
2.76061e-08
-1.1859e-09
2.78277e-08
-1.2304e-09
2.80737e-08
-1.26774e-09
2.83466e-08
-1.28856e-09
2.86512e-08
-1.28226e-09
2.8995e-08
-1.23905e-09
2.93865e-08
-1.16679e-09
2.98318e-08
-1.1005e-09
3.02578e-08
-1.00858e-09
3.0624e-08
-1.0439e-09
3.09209e-08
-1.20156e-09
3.11438e-08
-1.4188e-09
3.12922e-08
-1.64647e-09
3.13685e-08
-1.84927e-09
3.13766e-08
-2.00203e-09
3.1322e-08
-2.08763e-09
3.12122e-08
-2.09529e-09
3.10569e-08
-2.01973e-09
3.08678e-08
-1.86083e-09
3.06585e-08
-1.62348e-09
3.04444e-08
-1.31724e-09
3.02424e-08
-9.55898e-10
3.007e-08
-5.56785e-10
2.9945e-08
-1.40052e-10
2.98834e-08
2.72307e-10
2.98978e-08
6.576e-10
2.99945e-08
9.94278e-10
3.01706e-08
1.26411e-09
3.04115e-08
1.45452e-09
3.06894e-08
1.56061e-09
1.58648e-09
3.09668e-08
3.58997e-08
-3.76367e-10
3.58562e-08
-4.46538e-10
3.58031e-08
-5.21899e-10
3.57445e-08
-5.9907e-10
3.56854e-08
-6.75005e-10
3.56318e-08
-7.47354e-10
3.55887e-08
-8.14989e-10
3.55606e-08
-8.77957e-10
3.55507e-08
-9.37397e-10
3.55614e-08
-9.95048e-10
3.55941e-08
-1.05285e-09
3.56494e-08
-1.11259e-09
3.57279e-08
-1.17558e-09
3.58298e-08
-1.24219e-09
3.59553e-08
-1.31145e-09
3.61053e-08
-1.38043e-09
3.62815e-08
-1.44392e-09
3.64869e-08
-1.49391e-09
3.67265e-08
-1.52186e-09
3.70074e-08
-1.52002e-09
3.73381e-08
-1.49744e-09
3.77237e-08
-1.48612e-09
3.80989e-08
-1.38373e-09
3.84237e-08
-1.36871e-09
3.86862e-08
-1.46411e-09
3.88802e-08
-1.61274e-09
3.9004e-08
-1.77033e-09
3.90595e-08
-1.90473e-09
3.90505e-08
-1.99302e-09
3.8983e-08
-2.02019e-09
3.88654e-08
-1.97769e-09
3.87082e-08
-1.86251e-09
3.8524e-08
-1.67663e-09
3.83273e-08
-1.42672e-09
3.81337e-08
-1.12363e-09
3.79595e-08
-7.8169e-10
3.78205e-08
-4.17855e-10
3.77311e-08
-5.06588e-11
3.77024e-08
3.01067e-10
3.77404e-08
6.19534e-10
3.7845e-08
8.89667e-10
3.80086e-08
1.1006e-09
3.82161e-08
1.24697e-09
3.84471e-08
1.32961e-09
1.35517e-09
3.86784e-08
4.6997e-08
-3.44625e-10
4.69561e-08
-4.05585e-10
4.69064e-08
-4.72223e-10
4.68499e-08
-5.42624e-10
4.67897e-08
-6.14727e-10
4.67291e-08
-6.86788e-10
4.66719e-08
-7.57743e-10
4.66213e-08
-8.27378e-10
4.65802e-08
-8.96306e-10
4.65509e-08
-9.65743e-10
4.65352e-08
-1.0372e-09
4.65348e-08
-1.11213e-09
4.65509e-08
-1.19166e-09
4.65848e-08
-1.27612e-09
4.6638e-08
-1.36469e-09
4.67124e-08
-1.45483e-09
4.68107e-08
-1.54217e-09
4.69366e-08
-1.61988e-09
4.7096e-08
-1.68125e-09
4.72963e-08
-1.72025e-09
4.75454e-08
-1.7466e-09
4.78483e-08
-1.78901e-09
4.81503e-08
-1.68575e-09
4.84135e-08
-1.63187e-09
4.86235e-08
-1.67418e-09
4.87724e-08
-1.76161e-09
4.88576e-08
-1.85556e-09
4.88805e-08
-1.92758e-09
4.88449e-08
-1.95749e-09
4.87575e-08
-1.93273e-09
4.8627e-08
-1.8472e-09
4.84647e-08
-1.7002e-09
4.82837e-08
-1.49562e-09
4.80984e-08
-1.24146e-09
4.79239e-08
-9.49109e-10
4.77747e-08
-6.32498e-10
4.76639e-08
-3.07049e-10
4.76017e-08
1.14829e-11
4.75946e-08
3.08198e-10
4.76438e-08
5.70295e-10
4.77454e-08
7.88102e-10
4.78901e-08
9.55916e-10
4.80647e-08
1.07239e-09
4.82538e-08
1.14049e-09
1.16663e-09
4.84423e-08
6.06421e-08
-3.13342e-10
6.06036e-08
-3.67087e-10
6.05578e-08
-4.26407e-10
6.05055e-08
-4.9033e-10
6.04484e-08
-5.57603e-10
6.03886e-08
-6.27024e-10
6.03286e-08
-6.9774e-10
6.02706e-08
-7.69434e-10
6.02168e-08
-8.42409e-10
6.01685e-08
-9.17503e-10
6.01272e-08
-9.95922e-10
6.0094e-08
-1.07893e-09
6.007e-08
-1.16764e-09
6.00564e-08
-1.26249e-09
6.00548e-08
-1.36309e-09
6.00674e-08
-1.46741e-09
6.00973e-08
-1.57215e-09
6.01492e-08
-1.67169e-09
6.0229e-08
-1.7611e-09
6.03446e-08
-1.83589e-09
6.05039e-08
-1.90588e-09
6.07113e-08
-1.99641e-09
6.09254e-08
-1.89978e-09
6.11118e-08
-1.81826e-09
6.12547e-08
-1.81715e-09
6.13449e-08
-1.85177e-09
6.13793e-08
-1.88992e-09
6.13591e-08
-1.9074e-09
6.12885e-08
-1.88696e-09
6.11745e-08
-1.81873e-09
6.10265e-08
-1.69914e-09
6.08559e-08
-1.52957e-09
6.06756e-08
-1.31541e-09
6.04995e-08
-1.06534e-09
6.03409e-08
-7.90445e-10
6.02117e-08
-5.0335e-10
6.01218e-08
-2.17111e-10
6.00774e-08
5.58245e-11
6.00812e-08
3.04442e-10
6.01313e-08
5.20207e-10
6.0222e-08
6.97425e-10
6.03443e-08
8.33614e-10
6.04872e-08
9.29415e-10
6.06395e-08
9.88247e-10
1.01548e-09
6.07906e-08
7.72308e-08
-2.85277e-10
7.71971e-08
-3.33429e-10
7.71575e-08
-3.86829e-10
7.71123e-08
-4.4509e-10
7.70623e-08
-5.07566e-10
7.70088e-08
-5.73539e-10
7.69535e-08
-6.42428e-10
7.6898e-08
-7.13942e-10
7.68438e-08
-7.88205e-10
7.6792e-08
-8.6573e-10
7.67435e-08
-9.47409e-10
7.66988e-08
-1.03423e-09
7.66583e-08
-1.1272e-09
7.66226e-08
-1.22681e-09
7.65927e-08
-1.33309e-09
7.65698e-08
-1.44456e-09
7.65568e-08
-1.55911e-09
7.65574e-08
-1.67236e-09
7.65775e-08
-1.78122e-09
7.66244e-08
-1.88279e-09
7.6705e-08
-1.9864e-09
7.68229e-08
-2.11433e-09
7.69495e-08
-2.0264e-09
7.70562e-08
-1.92495e-09
7.71271e-08
-1.88808e-09
7.71527e-08
-1.87734e-09
7.71305e-08
-1.86776e-09
7.70625e-08
-1.83933e-09
7.69531e-08
-1.77764e-09
7.68099e-08
-1.67553e-09
7.66426e-08
-1.5318e-09
7.64625e-08
-1.3495e-09
7.6282e-08
-1.13484e-09
7.6113e-08
-8.9639e-10
7.59667e-08
-6.44186e-10
7.58523e-08
-3.88869e-10
7.57759e-08
-1.40779e-10
7.57409e-08
9.09037e-11
7.57468e-08
2.98483e-10
7.57903e-08
4.76686e-10
7.58653e-08
6.22466e-10
7.59638e-08
7.35155e-10
7.6077e-08
8.16192e-10
7.61965e-08
8.68742e-10
8.97048e-10
7.63149e-08
9.72143e-08
-2.64005e-10
9.71888e-08
-3.07988e-10
9.71588e-08
-3.5682e-10
9.71242e-08
-4.10464e-10
9.70853e-08
-4.68694e-10
9.7043e-08
-5.31184e-10
9.69982e-08
-5.9764e-10
9.69521e-08
-6.6789e-10
9.69059e-08
-7.42017e-10
9.68605e-08
-8.20324e-10
9.68166e-08
-9.03452e-10
9.67744e-08
-9.92055e-10
9.67342e-08
-1.08702e-09
9.6696e-08
-1.18862e-09
9.66602e-08
-1.29723e-09
9.66272e-08
-1.41161e-09
9.65989e-08
-1.53077e-09
9.65777e-08
-1.65118e-09
9.65681e-08
-1.77161e-09
9.65758e-08
-1.89046e-09
9.66053e-08
-2.0159e-09
9.66587e-08
-2.16775e-09
9.67166e-08
-2.08427e-09
9.67568e-08
-1.96517e-09
9.67647e-08
-1.89601e-09
9.67319e-08
-1.84448e-09
9.66584e-08
-1.79428e-09
9.65473e-08
-1.72827e-09
9.64039e-08
-1.63422e-09
9.62361e-08
-1.50771e-09
9.60538e-08
-1.3495e-09
9.58679e-08
-1.16359e-09
9.56893e-08
-9.56271e-10
9.55282e-08
-7.35259e-10
9.53929e-08
-5.08945e-10
9.52897e-08
-2.85684e-10
9.52221e-08