/*--------------------------------*- C++ -*----------------------------------*\
| =========                 |                                                 |
| \\      /  F ield         | OpenFOAM: The Open Source CFD Toolbox           |
|  \\    /   O peration     | Version:  2312                                  |
|   \\  /    A nd           | Website:  www.openfoam.com                      |
|    \\/     M anipulation  |                                                 |
\*---------------------------------------------------------------------------*/
FoamFile
{
    version     2.0;
    format      ascii;
    arch        "LSB;label=32;scalar=64";
    class       surfaceScalarField;
    location    "198";
    object      phi;
}
// * * * * * * * * * * * * * * * * * * * * * * * * * * * * * * * * * * * * * //

dimensions      [0 3 -1 0 0 0 0];

oriented        oriented;

internalField   nonuniform List<scalar> 
9445
(
5.79438e-10
1.57652e-11
5.693e-10
1.01384e-11
5.6284e-10
6.4598e-12
5.58943e-10
3.89734e-12
5.56916e-10
2.0266e-12
5.56383e-10
5.33275e-13
5.57203e-10
-8.20227e-13
5.59123e-10
-1.9196e-12
5.62307e-10
-3.18376e-12
5.67154e-10
-4.84766e-12
5.74717e-10
-7.56221e-12
5.88467e-10
-1.37503e-11
6.20613e-10
-3.2146e-11
7.13767e-10
-9.31537e-11
-2.41098e-10
9.54865e-10
2.02182e-09
6.92036e-11
1.98733e-09
4.4633e-11
1.96522e-09
2.85678e-11
1.9517e-09
1.74155e-11
1.94442e-09
9.31175e-12
1.94209e-09
2.86071e-12
1.94399e-09
-2.7205e-12
1.94941e-09
-7.33888e-12
1.95887e-09
-1.26419e-11
1.97344e-09
-1.94161e-11
1.99579e-09
-2.99164e-11
2.03257e-09
-5.05274e-11
2.09674e-09
-9.63185e-11
2.20051e-09
-1.96921e-10
-3.50151e-10
2.30956e-09
3.98937e-09
1.71513e-10
3.92312e-09
1.10879e-10
3.88044e-09
7.12476e-11
3.85405e-09
4.38108e-11
3.83939e-09
2.39696e-11
3.83398e-09
8.27394e-12
3.83612e-09
-4.86533e-12
3.84459e-09
-1.58026e-11
3.86002e-09
-2.80762e-11
3.88362e-09
-4.30129e-11
3.91793e-09
-6.42289e-11
3.96741e-09
-1.00009e-10
4.03472e-09
-1.63621e-10
4.10657e-09
-2.68772e-10
-3.91401e-10
4.14782e-09
6.62704e-09
3.35406e-10
6.52043e-09
2.17497e-10
6.45126e-09
1.40412e-10
6.4079e-09
8.71692e-11
6.38304e-09
4.88357e-11
6.37248e-09
1.88272e-11
6.37329e-09
-5.66815e-12
6.38348e-09
-2.59916e-11
6.40319e-09
-4.77909e-11
6.43297e-09
-7.27919e-11
6.47353e-09
-1.0479e-10
6.52451e-09
-1.50986e-10
6.57962e-09
-2.18735e-10
6.6197e-09
-3.08849e-10
-3.95412e-10
6.62371e-09
1.0111e-08
5.74104e-10
9.95466e-09
3.73865e-10
9.8523e-09
2.42771e-10
9.78711e-09
1.52361e-10
9.74842e-09
8.75195e-11
9.72977e-09
3.74779e-11
9.72674e-09
-2.63174e-12
9.73637e-09
-3.56251e-11
9.75734e-09
-6.87559e-11
9.7888e-09
-1.04254e-10
9.82899e-09
-1.44987e-10
9.87339e-09
-1.95379e-10
9.91184e-09
-2.57183e-10
9.92825e-09
-3.25261e-10
-3.80788e-10
9.91362e-09
1.46506e-08
8.98877e-10
1.44357e-08
5.88797e-10
1.42934e-08
3.85107e-10
1.42011e-08
2.4466e-10
1.41444e-08
1.4422e-10
1.4114e-08
6.78704e-11
1.41036e-08
7.7107e-12
1.41093e-08
-4.12871e-11
1.41275e-08
-8.69669e-11
1.41554e-08
-1.32143e-10
1.41892e-08
-1.78752e-10
1.42222e-08
-2.28365e-10
1.42446e-08
-2.79598e-10
1.42461e-08
-3.26778e-10
-3.5941e-10
1.42247e-08
2.04868e-08
1.31428e-09
2.02078e-08
8.67765e-10
2.00204e-08
5.726e-10
1.98963e-08
3.68701e-10
1.98175e-08
2.23076e-10
1.97715e-08
1.13865e-10
1.975e-08
2.91747e-11
1.97473e-08
-3.86219e-11
1.97581e-08
-9.76954e-11
1.97774e-08
-1.51475e-10
1.98e-08
-2.01407e-10
1.98193e-08
-2.47615e-10
1.98279e-08
-2.88171e-10
1.98205e-08
-3.19432e-10
-3.37019e-10
1.97981e-08
2.78852e-08
1.81047e-09
2.75449e-08
1.20806e-09
2.73118e-08
8.05668e-10
2.71542e-08
5.26362e-10
2.70505e-08
3.26705e-10
2.69859e-08
1.78498e-10
2.69498e-08
6.5245e-11
2.69347e-08
-2.35264e-11
2.69336e-08
-9.65765e-11
2.69403e-08
-1.58164e-10
2.6949e-08
-2.10059e-10
2.69539e-08
-2.52576e-10
2.69507e-08
-2.84928e-10
2.69372e-08
-3.05987e-10
-3.15013e-10
2.69152e-08
3.71246e-08
2.35423e-09
3.67404e-08
1.59228e-09
3.64708e-08
1.07532e-09
3.62837e-08
7.13378e-10
3.61568e-08
4.53697e-10
3.60732e-08
2.62093e-10
3.60209e-08
1.17489e-10
3.59909e-08
6.47029e-12
3.59752e-08
-8.0878e-11
3.59671e-08
-1.50004e-10
3.59609e-08
-2.03875e-10
3.59524e-08
-2.44102e-10
3.59391e-08
-2.71654e-10
3.59206e-08
-2.87487e-10
-2.9282e-10
3.58984e-08
4.84895e-08
2.88534e-09
4.80982e-08
1.98358e-09
4.78147e-08
1.35875e-09
4.76124e-08
9.15662e-10
4.74706e-08
5.95577e-10
4.73728e-08
3.59813e-10
4.73069e-08
1.83474e-10
4.7263e-08
5.03686e-11
4.72331e-08
-5.1002e-11
4.72108e-08
-1.27734e-10
4.71914e-08
-1.84481e-10
4.71719e-08
-2.24569e-10
4.71509e-08
-2.50619e-10
4.71284e-08
-2.65042e-10
-2.70072e-10
4.71057e-08
6.22876e-08
3.33103e-09
6.19403e-08
2.33082e-09
6.16785e-08
1.62057e-09
6.14854e-08
1.1088e-09
6.13454e-08
7.35592e-10
6.1245e-08
4.60196e-10
6.11732e-08
2.55269e-10
6.11212e-08
1.02359e-10
6.10819e-08
-1.16868e-11
6.105e-08
-9.58394e-11
6.10219e-08
-1.56396e-10
6.09956e-08
-1.98293e-10
6.09704e-08
-2.25396e-10
6.09464e-08
-2.41015e-10
-2.47903e-10
6.09242e-08
7.89207e-08
3.64431e-09
7.86599e-08
2.59165e-09
7.84539e-08
1.82658e-09
7.82963e-08
1.26637e-09
7.81782e-08
8.53711e-10
7.80903e-08
5.48105e-10
7.80244e-08
3.21155e-10
7.79739e-08
1.52858e-10
7.79335e-08
2.87448e-11
7.78995e-08
-6.18752e-11
7.78697e-08
-1.26531e-10
7.78427e-08
-1.71361e-10
7.78184e-08
-2.01017e-10
7.77966e-08
-2.19298e-10
-2.29199e-10
7.77779e-08
9.89831e-08
3.83776e-09
9.88126e-08
2.76216e-09
9.86723e-08
1.9669e-09
9.85614e-08
1.37729e-09
9.84756e-08
9.39519e-10
9.84094e-08
6.14236e-10
9.83578e-08
3.72755e-10
9.83166e-08
1.94113e-10
9.82825e-08
6.28188e-11
9.82534e-08
-3.28104e-11
9.82282e-08
-1.01329e-10
9.82064e-08
-1.49478e-10
9.81877e-08
-1.82345e-10
9.81723e-08
-2.03943e-10
-2.17348e-10
9.81605e-08
1.23261e-07
3.9625e-09
1.23148e-07
2.87571e-09
1.23051e-07
2.06307e-09
1.22973e-07
1.45552e-09
1.22911e-07
1.00201e-09
1.22861e-07
6.64141e-10
1.2282e-07
4.13081e-10
1.22787e-07
2.27281e-10
1.2276e-07
9.03527e-11
1.22737e-07
-9.7047e-12
1.22717e-07
-8.22063e-11
1.22702e-07
-1.3414e-10
1.22691e-07
-1.70791e-10
1.22683e-07
-1.96236e-10
-2.13555e-10
1.22679e-07
1.52522e-07
4.04629e-09
1.52438e-07
2.96002e-09
1.52361e-07
2.14004e-09
1.52294e-07
1.52234e-09
1.52237e-07
1.0588e-09
1.5219e-07
7.11967e-10
1.52149e-07
4.53329e-10
1.52115e-07
2.61099e-10
1.52088e-07
1.18288e-10
1.52065e-07
1.2954e-11
1.52047e-07
-6.46818e-11
1.52035e-07
-1.21556e-10
1.52027e-07
-1.63097e-10
1.52024e-07
-1.93361e-10
-2.15404e-10
1.52026e-07
1.87236e-07
4.07299e-09
1.87187e-07
3.00886e-09
1.8713e-07
2.1976e-09
1.87071e-07
1.58085e-09
1.87016e-07
1.11444e-09
1.86965e-07
7.62836e-10
1.8692e-07
4.98621e-10
1.8688e-07
3.00288e-10
1.86847e-07
1.51446e-10
1.86821e-07
3.95919e-11
1.868e-07
-4.45455e-11
1.86787e-07
-1.07765e-10
1.86779e-07
-1.55537e-10
1.86778e-07
-1.91871e-10
-2.1976e-10
1.86782e-07
2.27449e-07
4.01669e-09
2.27457e-07
3.0013e-09
2.27435e-07
2.21934e-09
2.27398e-07
1.61837e-09
2.27353e-07
1.159e-09
2.27307e-07
8.0921e-10
2.27262e-07
5.42913e-10
2.27222e-07
3.40824e-10
2.27187e-07
1.8643e-10
2.27158e-07
6.86334e-11
2.27136e-07
-2.30272e-11
2.27122e-07
-9.34347e-11
2.27115e-07
-1.48335e-10
2.27115e-07
-1.91691e-10
-2.26448e-10
2.27121e-07
2.72691e-07
3.86684e-09
2.72766e-07
2.92587e-09
2.72792e-07
2.19334e-09
2.72787e-07
1.6235e-09
2.72763e-07
1.18251e-09
2.72731e-07
8.41956e-10
2.72694e-07
5.79026e-10
2.7266e-07
3.75519e-10
2.72628e-07
2.18031e-10
2.72602e-07
9.5211e-11
2.72582e-07
-3.73347e-12
2.72571e-07
-8.21163e-11
2.72567e-07
-1.44653e-10
2.72571e-07
-1.9574e-10
-2.38117e-10
2.72583e-07
3.21589e-07
3.61857e-09
3.21739e-07
2.77612e-09
3.2182e-07
2.11195e-09
3.21855e-07
1.58818e-09
3.21861e-07
1.1769e-09
3.21849e-07
8.54445e-10
3.21827e-07
6.00864e-10
3.21801e-07
4.00885e-10
3.21778e-07
2.41597e-10
3.21758e-07
1.15008e-10
3.21743e-07
1.09883e-11
3.21739e-07
-7.74765e-11
3.21743e-07
-1.48551e-10
3.21755e-07
-2.08328e-10
-2.59178e-10
3.21776e-07
3.71129e-07
3.25856e-09
3.71369e-07
2.5368e-09
3.71522e-07
1.95899e-09
3.71614e-07
1.49586e-09
3.71665e-07
1.12604e-09
3.71689e-07
8.30556e-10
3.71696e-07
5.93979e-10
3.71694e-07
4.02806e-10
3.71688e-07
2.47646e-10
3.71683e-07
1.19945e-10
3.71682e-07
1.17696e-11
3.71685e-07
-8.01578e-11
3.71693e-07
-1.5728e-10
3.71709e-07
-2.23761e-10
-2.82174e-10
3.71732e-07
3.68958e-07
2.85283e-09
3.69244e-07
2.25104e-09
3.69441e-07
1.76132e-09
3.69575e-07
1.362e-09
3.69664e-07
1.03731e-09
3.69722e-07
7.72686e-10
3.6976e-07
5.55859e-10
3.69786e-07
3.76734e-10
3.69806e-07
2.27889e-10
3.69821e-07
1.04369e-10
3.69837e-07
-4.34035e-12
3.69856e-07
-9.92219e-11
3.6988e-07
-1.80369e-10
3.69908e-07
-2.52573e-10
-3.17195e-10
3.69943e-07
3.16589e-07
2.45132e-09
3.16877e-07
1.96309e-09
3.1708e-07
1.5578e-09
3.1722e-07
1.22212e-09
3.17313e-07
9.44117e-10
3.17373e-07
7.12824e-10
3.1741e-07
5.19607e-10
3.1743e-07
3.56356e-10
3.17441e-07
2.17062e-10
3.17449e-07
9.60049e-11
3.17456e-07
-1.07806e-11
3.17462e-07
-1.05386e-10
3.17471e-07
-1.8926e-10
3.17483e-07
-2.64675e-10
-3.33407e-10
3.17499e-07
2.65328e-07
2.07424e-09
2.65613e-07
1.67791e-09
2.65827e-07
1.34368e-09
2.65987e-07
1.06282e-09
2.66105e-07
8.2603e-10
2.66192e-07
6.25597e-10
2.66257e-07
4.54801e-10
2.66306e-07
3.07131e-10
2.66344e-07
1.79013e-10
2.66374e-07
6.57836e-11
2.66399e-07
-3.54075e-11
2.6642e-07
-1.26026e-10
2.66439e-07
-2.08381e-10
2.66458e-07
-2.83754e-10
-3.53246e-10
2.66478e-07
2.18895e-07
1.72693e-09
2.19165e-07
1.40768e-09
2.19375e-07
1.1346e-09
2.19536e-07
9.01543e-10
2.1966e-07
7.02061e-10
2.19755e-07
5.30222e-10
2.19829e-07
3.80971e-10
2.19886e-07
2.5021e-10
2.19931e-07
1.34359e-10
2.19966e-07
3.08011e-11
2.19993e-07
-6.31807e-11
2.20016e-07
-1.48804e-10
2.20035e-07
-2.2755e-10
2.20052e-07
-3.00387e-10
-3.68115e-10
2.20067e-07
1.78251e-07
1.41047e-09
1.78502e-07
1.1563e-09
1.78701e-07
9.35954e-10
1.78857e-07
7.452e-10
1.7898e-07
5.79386e-10
1.79076e-07
4.34228e-10
1.79151e-07
3.06151e-10
1.79209e-07
1.92017e-10
1.79254e-07
8.93783e-11
1.79288e-07
-3.67122e-12
1.79314e-07
-8.90286e-11
1.79333e-07
-1.67792e-10
1.79346e-07
-2.40824e-10
1.79355e-07
-3.08855e-10
-3.72469e-10
1.79359e-07
1.43539e-07
1.12926e-09
1.43765e-07
9.2977e-10
1.43947e-07
7.54595e-10
1.44091e-07
6.00831e-10
1.44205e-07
4.65145e-10
1.44295e-07
3.44496e-10
1.44365e-07
2.36412e-10
1.44418e-07
1.38648e-10
1.44458e-07
4.95549e-11
1.44486e-07
-3.19446e-11
1.44505e-07
-1.07561e-10
1.44515e-07
-1.77882e-10
1.44517e-07
-2.43516e-10
1.44514e-07
-3.04969e-10
-3.62624e-10
1.44504e-07
1.14418e-07
8.87071e-10
1.14615e-07
7.32975e-10
1.14773e-07
5.95942e-10
1.149e-07
4.73999e-10
1.15e-07
3.64781e-10
1.15079e-07
2.66266e-10
1.15138e-07
1.76728e-10
1.15182e-07
9.47635e-11
1.15213e-07
1.93119e-11
1.15231e-07
-5.03584e-11
1.15239e-07
-1.1556e-10
1.15238e-07
-1.76566e-10
1.15228e-07
-2.33787e-10
1.1521e-07
-2.87536e-10
-3.38042e-10
1.15186e-07
9.03177e-08
6.84554e-10
9.04831e-08
5.67537e-10
9.06169e-08
4.62176e-10
9.07237e-08
3.67157e-10
9.08076e-08
2.80834e-10
9.0872e-08
2.01899e-10
9.09194e-08
1.29352e-10
9.09522e-08
6.1998e-11
9.09716e-08
-1.73119e-13
9.09797e-08
-5.83877e-11
9.09772e-08
-1.13089e-10
9.09652e-08
-1.64531e-10
9.09443e-08
-2.12948e-10
9.09153e-08
-2.58517e-10
-3.01358e-10
9.08786e-08
7.05934e-08
5.19255e-10
7.07289e-08
4.32038e-10
7.08385e-08
3.52574e-10
7.09257e-08
2.7994e-10
7.09935e-08
2.13056e-10
7.10442e-08
1.51153e-10
7.10799e-08
9.36165e-11
7.11022e-08
3.97055e-11
7.11125e-08
-1.04042e-11
7.11118e-08
-5.77301e-11
7.11011e-08
-1.02394e-10
7.10811e-08
-1.44554e-10
7.10525e-08
-1.84331e-10
7.10158e-08
-2.21817e-10
-2.57063e-10
7.09715e-08
5.46056e-08
3.8691e-10
5.47144e-08
3.23258e-10
5.48024e-08
2.64612e-10
5.4872e-08
2.10272e-10
5.49255e-08
1.59586e-10
5.49645e-08
1.12161e-10
5.49904e-08
6.76556e-11
5.50046e-08
2.55815e-11
5.50079e-08
-1.37513e-11
5.50013e-08
-5.11637e-11
5.49856e-08
-8.66135e-11
5.49612e-08
-1.20174e-10
5.49288e-08
-1.51899e-10
5.48888e-08
-1.81825e-10
-2.09961e-10
5.48417e-08
4.17593e-08
2.82629e-10
4.18453e-08
2.37292e-10
4.19148e-08
1.95072e-10
4.19697e-08
1.55405e-10
4.20113e-08
1.17964e-10
4.20409e-08
8.25747e-11
4.20595e-08
4.90695e-11
4.20679e-08
1.72147e-11
4.20669e-08
-1.28204e-11
4.20573e-08
-4.15081e-11
4.20395e-08
-6.88103e-11
4.2014e-08
-9.4713e-11
4.19814e-08
-1.1924e-10
4.19419e-08
-1.42398e-10
-1.6417e-10
4.18961e-08
3.15217e-08
2.01634e-10
3.15887e-08
1.70254e-10
3.1643e-08
1.40732e-10
3.16858e-08
1.12602e-10
3.1718e-08
8.57628e-11
3.17405e-08
6.01574e-11
3.17538e-08
3.57223e-11
3.17587e-08
1.23606e-11
3.17556e-08
-9.79771e-12
3.17452e-08
-3.10839e-11
3.17278e-08
-5.14239e-11
3.17039e-08
-7.07459e-11
3.16737e-08
-8.90727e-11
3.16377e-08
-1.06393e-10
-1.22682e-10
3.15962e-08
2.34282e-08
1.39631e-10
2.34798e-08
1.18651e-10
2.35218e-08
9.87224e-11
2.3555e-08
7.94633e-11
2.35798e-08
6.09129e-11
2.35969e-08
4.30621e-11
2.36067e-08
2.58965e-11
2.36097e-08
9.39993e-12
2.36062e-08
-6.29713e-12
2.35966e-08
-2.14924e-11
2.35813e-08
-3.60829e-11
2.35605e-08
-4.99368e-11
2.35345e-08
-6.31024e-11
2.35037e-08
-7.556e-11
-8.72817e-11
2.34683e-08
1.70821e-08
9.29583e-11
1.71212e-08
7.95254e-11
1.71533e-08
6.66555e-11
1.71787e-08
5.40468e-11
1.71978e-08
4.18018e-11
1.72109e-08
2.99221e-11
1.72184e-08
1.84089e-11
1.72205e-08
7.29456e-12
1.72175e-08
-3.29439e-12
1.72096e-08
-1.3624e-11
1.71972e-08
-2.36292e-11
1.71803e-08
-3.30922e-11
1.71593e-08
-4.21079e-11
1.71344e-08
-5.06516e-11
-5.86966e-11
1.71059e-08
1.21487e-08
5.85908e-11
1.21778e-08
5.0464e-11
1.22018e-08
4.26274e-11
1.2221e-08
3.48518e-11
1.22355e-08
2.72466e-11
1.22456e-08
1.98107e-11
1.22515e-08
1.25499e-11
1.22533e-08
5.49746e-12
1.22512e-08
-1.21488e-12
1.22454e-08
-7.79516e-12
1.2236e-08
-1.42609e-11
1.22233e-08
-2.03347e-11
1.22073e-08
-2.61383e-11
1.21883e-08
-3.16475e-11
-3.68388e-11
1.21664e-08
8.3493e-09
3.40748e-11
8.37023e-09
2.95312e-11
8.38771e-09
2.51433e-11
8.40183e-09
2.07407e-11
8.41266e-09
1.64075e-11
8.42034e-09
1.21385e-11
8.42495e-09
7.94094e-12
8.42661e-09
3.83567e-12
8.42548e-09
-8.77368e-14
8.4216e-09
-3.91562e-12
8.41508e-09
-7.74026e-12
8.40607e-09
-1.13231e-11
8.39468e-09
-1.47509e-11
8.38104e-09
-1.80105e-11
-2.10825e-11
8.36529e-09
5.45359e-09
1.74279e-11
5.46795e-09
1.51749e-11
5.48007e-09
1.30217e-11
5.48997e-09
1.08419e-11
5.4977e-09
8.68294e-12
5.50329e-09
6.53956e-12
5.50682e-09
4.41779e-12
5.50832e-09
2.32955e-12
5.50793e-09
3.06077e-13
5.50565e-09
-1.63218e-12
5.50151e-09
-3.60564e-12
5.49565e-09
-5.461e-12
5.48813e-09
-7.23367e-12
5.47904e-09
-8.92224e-12
-1.0511e-11
5.46847e-09
3.27291e-09
7.04094e-12
3.28195e-09
6.13544e-12
3.28967e-09
5.30608e-12
3.29605e-09
4.46139e-12
3.30112e-09
3.61822e-12
3.30488e-09
2.77276e-12
3.30737e-09
1.93013e-12
3.3086e-09
1.09483e-12
3.30864e-09
2.70913e-13
3.30751e-09
-5.00687e-13
3.3052e-09
-1.29937e-12
3.3018e-09
-2.05647e-12
3.29734e-09
-2.77907e-12
3.29189e-09
-3.46735e-12
-4.1096e-12
3.28549e-09
1.65387e-09
1.59435e-12
1.65864e-09
1.36912e-12
1.66275e-09
1.19562e-12
1.66619e-09
1.01755e-12
1.66897e-09
8.36938e-13
1.6711e-09
6.50981e-13
1.67256e-09
4.64653e-13
1.67338e-09
2.78159e-13
1.67356e-09
8.94599e-14
1.67314e-09
-8.14548e-14
1.6721e-09
-2.622e-13
1.67048e-09
-4.3444e-13
1.6683e-09
-6.00465e-13
1.66559e-09
-7.5657e-13
-8.96531e-13
1.66238e-09
4.72662e-10
4.74031e-10
4.75227e-10
4.76245e-10
4.77082e-10
4.77733e-10
4.78197e-10
4.78475e-10
4.78565e-10
4.78483e-10
4.78221e-10
4.77787e-10
4.77186e-10
4.7643e-10
4.75533e-10
1.14131e-09
-4.58003e-10
2.71562e-10
1.40859e-09
-3.78446e-10
1.11162e-10
1.67816e-09
-2.30133e-10
-3.94347e-11
1.94428e-09
-7.23791e-11
-1.93747e-10
2.20549e-09
9.16099e-11
-3.5282e-10
2.46288e-09
2.56247e-10
-5.13628e-10
2.71819e-09
4.21189e-10
-6.76508e-10
2.97288e-09
5.86642e-10
-8.41327e-10
3.22807e-09
7.52478e-10
-1.00767e-09
3.48462e-09
9.18363e-10
-1.17492e-09
3.74326e-09
1.08366e-09
-1.34229e-09
4.00466e-09
1.2476e-09
-1.509e-09
4.26958e-09
1.40953e-09
-1.67445e-09
4.539e-09
1.56868e-09
-1.8381e-09
4.81424e-09
1.72395e-09
-1.99918e-09
5.09714e-09
1.87381e-09
-2.15672e-09
5.39033e-09
2.01618e-09
-2.30937e-09
5.69756e-09
2.14814e-09
-2.45536e-09
6.0239e-09
2.26211e-09
-2.58845e-09
6.3756e-09
2.34118e-09
-2.69288e-09
6.75827e-09
2.33248e-09
-2.71514e-09
7.17227e-09
2.11921e-09
-2.53322e-09
7.5448e-09
1.29999e-09
-1.67252e-09
7.84495e-09
2.83776e-10
-5.83928e-10
8.0727e-09
-7.02766e-10
4.75023e-10
8.23173e-09
-1.59261e-09
1.43358e-09
8.32735e-09
-2.34552e-09
2.2499e-09
8.36543e-09
-2.95282e-09
2.91474e-09
8.35141e-09
-3.41654e-09
3.43055e-09
8.28984e-09
-3.73913e-09
3.80071e-09
8.18453e-09
-3.92343e-09
4.02874e-09
8.03899e-09
-3.97216e-09
4.11769e-09
7.85661e-09
-3.88816e-09
4.07054e-09
7.6407e-09
-3.67538e-09
3.89129e-09
7.39438e-09
-3.33943e-09
3.58575e-09
7.12041e-09
-2.8873e-09
3.16126e-09
6.82106e-09
-2.3263e-09
2.62566e-09
6.49807e-09
-1.66204e-09
1.98503e-09
6.15289e-09
-8.95741e-10
1.24092e-09
5.78554e-09
-2.23469e-11
3.89699e-10
5.39171e-09
9.61055e-10
-5.6723e-10
4.95459e-09
2.03102e-09
-1.5939e-09
4.44477e-09
3.06544e-09
-2.55562e-09
3.86044e-09
3.77152e-09
-3.18719e-09
3.36437e-09
3.50528e-09
-3.00921e-09
2.38221e-09
-5.30657e-10
2.54085e-09
-5.37085e-10
2.75719e-09
-4.46471e-10
2.99976e-09
-3.14949e-10
3.25541e-09
-1.64045e-10
3.51751e-09
-5.84444e-12
3.78377e-09
1.54926e-10
4.05346e-09
3.16947e-10
4.32656e-09
4.79381e-10
4.60327e-09
6.41651e-10
4.88395e-09
8.02981e-10
5.16909e-09
9.62458e-10
5.45934e-09
1.11928e-09
5.7556e-09
1.27242e-09
6.05916e-09
1.42038e-09
6.3719e-09
1.56107e-09
6.69642e-09
1.69166e-09
7.03648e-09
1.80808e-09
7.39715e-09
1.90144e-09
7.78465e-09
1.95368e-09
8.20448e-09
1.91264e-09
8.65677e-09
1.66693e-09
9.06276e-09
8.93996e-10
9.38976e-09
-4.32266e-11
9.63826e-09
-9.5126e-10
9.81234e-09
-1.76669e-09
9.91764e-09
-2.45081e-09
9.96044e-09
-2.99563e-09
9.94679e-09
-3.40288e-09
9.88182e-09
-3.67416e-09
9.77003e-09
-3.81165e-09
9.6157e-09
-3.81783e-09
9.42311e-09
-3.69557e-09
9.19669e-09
-3.44895e-09
8.94095e-09
-3.08369e-09
8.66053e-09
-2.60688e-09
8.36028e-09
-2.02605e-09
8.04585e-09
-1.34761e-09
7.72496e-09
-5.74845e-10
7.40926e-09
2.93352e-10
7.11511e-09
1.2552e-09
6.86356e-09
2.28257e-09
6.68033e-09
3.24867e-09
6.60342e-09
3.84843e-09
3.44986e-09
6.51793e-09
4.15962e-09
-5.42461e-10
4.22877e-09
-6.06237e-10
4.36696e-09
-5.84656e-10
4.55739e-09
-5.05377e-10
4.78121e-09
-3.87874e-10
5.0267e-09
-2.51331e-10
5.28705e-09
-1.05425e-10
5.55852e-09
4.54745e-11
5.83905e-09
1.98852e-10
6.12757e-09
3.53131e-10
6.42364e-09
5.06915e-10
6.72724e-09
6.58855e-10
7.03869e-09
8.07836e-10
7.35865e-09
9.5246e-10
7.68829e-09
1.09075e-09
8.02933e-09
1.22003e-09
8.3843e-09
1.33669e-09
8.75682e-09
1.43556e-09
9.15179e-09
1.50646e-09
9.57519e-09
1.53028e-09
1.00322e-08
1.45561e-09
1.05225e-08
1.17669e-09
1.09613e-08
4.55135e-10
1.13144e-08
-3.96341e-10
1.15829e-08
-1.21975e-09
1.17714e-08
-1.95512e-09
1.18856e-08
-2.56508e-09
1.19325e-08
-3.04249e-09
1.19186e-08
-3.38901e-09
1.18499e-08
-3.60543e-09
1.17316e-08
-3.69335e-09
1.15689e-08
-3.65516e-09
1.13673e-08
-3.49395e-09
1.11325e-08
-3.21416e-09
1.08708e-08
-2.82199e-09
1.05891e-08
-2.32518e-09
1.02954e-08
-1.73235e-09
9.99987e-09
-1.05206e-09
9.717e-09
-2.91971e-10
9.46913e-09
5.41221e-10
9.28993e-09
1.43441e-09
9.2232e-09
2.34929e-09
9.3035e-09
3.16837e-09
9.50486e-09
3.64707e-09
3.36522e-09
9.5895e-09
6.60033e-09
-5.19087e-10
6.60842e-09
-6.14321e-10
6.66905e-09
-6.45287e-10
6.78898e-09
-6.25307e-10
6.95761e-09
-5.56505e-10
7.16272e-09
-4.56445e-10
7.3957e-09
-3.38403e-10
7.65031e-09
-2.09138e-10
7.92239e-09
-7.32244e-11
8.20925e-09
6.62674e-11
8.50932e-09
2.06846e-10
8.8218e-09
3.46379e-10
9.1464e-09
4.83234e-10
9.48338e-09
6.15479e-10
9.83358e-09
7.40548e-10
1.01985e-08
8.55114e-10
1.05804e-08
9.54807e-10
1.09826e-08
1.03337e-09
1.14096e-08
1.07943e-09
1.1867e-08
1.07291e-09
1.23592e-08
9.63372e-10
1.2885e-08
6.50852e-10
1.33543e-08
-1.41245e-11
1.37312e-08
-7.73191e-10
1.40175e-08
-1.50606e-09
1.42183e-08
-2.15594e-09
1.43398e-08
-2.68658e-09
1.43892e-08
-3.09189e-09
1.43739e-08
-3.37372e-09
1.43006e-08
-3.53215e-09
1.41756e-08
-3.56831e-09
1.40051e-08
-3.48467e-09
1.37959e-08
-3.28475e-09
1.35554e-08
-2.97364e-09
1.32918e-08
-2.55843e-09
1.30147e-08
-2.04806e-09
1.27353e-08
-1.45302e-09
1.24683e-08
-7.84997e-10
1.22337e-08
-5.73845e-11
1.20604e-08
7.14516e-10
1.19889e-08
1.5059e-09
1.20654e-08
2.27275e-09
1.2313e-08
2.92078e-09
1.26748e-08
3.28534e-09
3.14631e-09
1.28937e-08
9.87446e-09
-4.79925e-10
9.84409e-09
-5.83954e-10
9.84603e-09
-6.47221e-10
9.89381e-09
-6.73092e-10
9.99317e-09
-6.5586e-10
1.01383e-08
-6.01584e-10
1.03221e-08
-5.22158e-10
1.05382e-08
-4.25246e-10
1.07815e-08
-3.16584e-10
1.10483e-08
-2.00491e-10
1.13358e-08
-8.06891e-11
1.16425e-08
3.97125e-11
1.19673e-08
1.58428e-10
1.23099e-08
2.72843e-10
1.26708e-08
3.79673e-10
1.3051e-08
4.7489e-10
1.34525e-08
5.53363e-10
1.3878e-08
6.07828e-10
1.43316e-08
6.25832e-10
1.48179e-08
5.86591e-10
1.53405e-08
4.40794e-10
1.58968e-08
9.46058e-11
1.63915e-08
-5.08829e-10
1.67875e-08
-1.16927e-09
1.70877e-08
-1.80618e-09
1.72974e-08
-2.36565e-09
1.7423e-08
-2.81225e-09
1.74723e-08
-3.1412e-09
1.74536e-08
-3.35495e-09
1.73744e-08
-3.45296e-09
1.7242e-08
-3.43597e-09
1.70641e-08
-3.30677e-09
1.68489e-08
-3.06953e-09
1.66056e-08
-2.73029e-09
1.63445e-08
-2.29736e-09
1.60778e-08
-1.78135e-09
1.58199e-08
-1.19509e-09
1.55887e-08
-5.53803e-10
1.54071e-08
1.24153e-10
1.53055e-08
8.16119e-10
1.53204e-08
1.49106e-09
1.5487e-08
2.10615e-09
1.58125e-08
2.59523e-09
1.62328e-08
2.86503e-09
2.81997e-09
1.65592e-08
1.41822e-08
-4.37372e-10
1.41327e-08
-5.34483e-10
1.40984e-08
-6.12891e-10
1.40907e-08
-6.65458e-10
1.41235e-08
-6.88604e-10
1.42002e-08
-6.7827e-10
1.43195e-08
-6.41513e-10
1.44781e-08
-5.83881e-10
1.46722e-08
-5.10636e-10
1.4898e-08
-4.26336e-10
1.51529e-08
-3.35524e-10
1.54347e-08
-2.42084e-10
1.57419e-08
-1.48824e-10
1.60739e-08
-5.90935e-11
1.64305e-08
2.3044e-11
1.68125e-08
9.28608e-11
1.72214e-08
1.44523e-10
1.76593e-08
1.69881e-10
1.81295e-08
1.55602e-10
1.86356e-08
8.05121e-11
1.91796e-08
-1.03237e-10
1.97572e-08
-4.82957e-10
2.0269e-08
-1.02065e-09
2.0677e-08
-1.5772e-09
2.09844e-08
-2.11364e-09
2.11974e-08
-2.57863e-09
2.13223e-08
-2.93718e-09
2.13674e-08
-3.18629e-09
2.13419e-08
-3.32946e-09
2.12546e-08
-3.36563e-09
2.11139e-08
-3.29524e-09
2.09287e-08
-3.12158e-09
2.07089e-08
-2.84974e-09
2.04656e-08
-2.48693e-09
2.02111e-08
-2.04295e-09
1.996e-08
-1.53021e-09
1.97288e-08
-9.63915e-10
1.95372e-08
-3.62192e-10
1.94081e-08
2.53276e-10
1.93677e-08
8.5649e-10
1.94425e-08
1.41624e-09
1.9652e-08
1.89672e-09
1.99905e-08
2.25666e-09
2.04035e-08
2.45207e-09
2.4502e-09
2.07733e-08
1.97589e-08
-3.98134e-10
1.97068e-08
-4.82433e-10
1.9655e-08
-5.6105e-10
1.96154e-08
-6.25863e-10
1.95989e-08
-6.72123e-10
1.96157e-08
-6.95005e-10
1.96697e-08
-6.95583e-10
1.97625e-08
-6.76658e-10
1.98935e-08
-6.41646e-10
2.00612e-08
-5.94057e-10
2.02642e-08
-5.38501e-10
2.05011e-08
-4.78983e-10
2.07706e-08
-4.18324e-10
2.1072e-08
-3.60477e-10
2.14052e-08
-3.10193e-10
2.17708e-08
-2.72756e-10
2.21699e-08
-2.54547e-10
2.26042e-08
-2.64377e-10
2.3076e-08
-3.16178e-10
2.35875e-08
-4.31021e-10
2.41391e-08
-6.54869e-10
2.47241e-08
-1.06791e-09
2.52405e-08
-1.53711e-09
2.56495e-08
-1.98616e-09
2.59549e-08
-2.41907e-09
2.61631e-08
-2.78677e-09
2.62802e-08
-3.05429e-09
2.63151e-08
-3.22118e-09
2.62782e-08
-3.29258e-09
2.61794e-08
-3.26687e-09
2.60284e-08
-3.14424e-09
2.58355e-08
-2.9287e-09
2.56122e-08
-2.62644e-09
2.53713e-08
-2.24597e-09
2.51269e-08
-1.79858e-09
2.48951e-08
-1.29834e-09
2.46933e-08
-7.62206e-10
2.45411e-08
-2.09933e-10
2.44583e-08
3.3604e-10
2.44644e-08
8.50429e-10
2.45741e-08
1.30654e-09
2.47925e-08
1.67831e-09
2.51063e-08
1.94285e-09
2.54744e-08
2.08393e-09
2.09694e-09
2.58277e-08
2.68811e-08
-3.63965e-10
2.68341e-08
-4.35476e-10
2.67805e-08
-5.07409e-10
2.67284e-08
-5.73828e-10
2.66864e-08
-6.30082e-10
2.66637e-08
-6.72322e-10
2.66672e-08
-6.99078e-10
2.67017e-08
-7.11125e-10
2.67701e-08
-7.10088e-10
2.6874e-08
-6.97951e-10
2.70146e-08
-6.79075e-10
2.71923e-08
-6.56749e-10
2.74071e-08
-6.33123e-10
2.76592e-08
-6.12572e-10
2.79493e-08
-6.00266e-10
2.82783e-08
-6.01711e-10
2.86472e-08
-6.23538e-10
2.90577e-08
-6.74867e-10
2.95114e-08
-7.69841e-10
3.00091e-08
-9.28739e-10
3.05493e-08
-1.1951e-09
3.11226e-08
-1.64112e-09
3.16267e-08
-2.04122e-09
3.20221e-08
-2.38159e-09
3.2313e-08
-2.71002e-09
3.25056e-08
-2.97931e-09
3.26055e-08
-3.1542e-09
3.26223e-08
-3.23801e-09
3.25679e-08
-3.23818e-09
3.24534e-08
-3.15232e-09
3.22894e-08
-2.98032e-09
3.20879e-08
-2.72711e-09
3.18615e-08
-2.40008e-09
3.16245e-08
-2.00899e-09
3.13923e-08
-1.56636e-09
3.11813e-08
-1.08734e-09
3.10087e-08
-5.89566e-10
3.08915e-08
-9.27744e-11
3.08451e-08
3.82477e-10
3.08811e-08
8.14384e-10
3.10046e-08
1.18306e-09
3.1211e-08
1.47193e-09
3.14836e-08
1.67021e-09
3.17924e-08
1.77512e-09
1.79263e-09
3.20967e-08
3.58681e-08
-3.33679e-10
3.58276e-08
-3.94916e-10
3.57792e-08
-4.5905e-10
3.57277e-08
-5.22282e-10
3.56786e-08
-5.81034e-10
3.56387e-08
-6.32425e-10
3.56142e-08
-6.74536e-10
3.56105e-08
-7.07475e-10
3.56322e-08
-7.31772e-10
3.56826e-08
-7.48347e-10
3.57656e-08
-7.62079e-10
3.58836e-08
-7.74687e-10
3.60379e-08
-7.87466e-10
3.62308e-08
-8.05411e-10
3.64642e-08
-8.33751e-10
3.67403e-08
-8.77816e-10
3.70609e-08
-9.44132e-10
3.74278e-08
-1.04169e-09
3.78423e-08
-1.18438e-09
3.83044e-08
-1.39082e-09
3.88108e-08
-1.70152e-09
3.93492e-08
-2.17952e-09
3.98203e-08
-2.51233e-09
4.01846e-08
-2.74586e-09
4.04462e-08
-2.97158e-09
4.06102e-08
-3.14337e-09
4.06816e-08
-3.22555e-09
4.0671e-08
-3.22748e-09
4.05921e-08
-3.15926e-09
4.04569e-08
-3.01706e-09
4.0277e-08
-2.80042e-09
4.00652e-08
-2.51539e-09
3.98357e-08
-2.17054e-09
3.96033e-08
-1.7766e-09
3.93837e-08
-1.34678e-09
3.91928e-08
-8.96457e-10
3.90459e-08
-4.42629e-10
3.89562e-08
-3.08263e-12
3.8934e-08
4.04656e-10
3.89842e-08
7.64205e-10
3.9105e-08
1.06225e-09
3.92872e-08
1.28979e-09
3.9514e-08
1.44338e-09
3.97633e-08
1.52587e-09
1.5458e-09
4.00101e-08
4.70779e-08
-3.05912e-10
4.70427e-08
-3.59698e-10
4.7001e-08
-4.17356e-10
4.69553e-08
-4.76634e-10
4.69093e-08
-5.35044e-10
4.68675e-08
-5.9056e-10
4.68343e-08
-6.41358e-10
4.68145e-08
-6.87711e-10
4.68122e-08
-7.29432e-10
4.68308e-08
-7.66991e-10
4.68756e-08
-8.06853e-10
4.69488e-08
-8.47873e-10
4.70531e-08
-8.91746e-10
4.71923e-08
-9.44658e-10
4.737e-08
-1.01144e-09
4.75893e-08
-1.09714e-09
4.78532e-08
-1.20802e-09
4.81642e-08
-1.35261e-09
4.85239e-08
-1.54415e-09
4.89318e-08
-1.79867e-09
4.93835e-08
-2.15322e-09
4.98641e-08
-2.66015e-09
5.02809e-08
-2.92915e-09
5.05958e-08
-3.06074e-09
5.08127e-08
-3.18845e-09
5.09347e-08
-3.26539e-09
5.09655e-08
-3.25634e-09
5.09184e-08
-3.18041e-09
5.08086e-08
-3.04948e-09
5.06484e-08
-2.85682e-09
5.04499e-08
-2.60196e-09
5.0227e-08
-2.2924e-09
4.9994e-08
-1.93761e-09
4.97662e-08
-1.54879e-09
4.95585e-08
-1.13905e-09
4.9385e-08
-7.22955e-10
4.9258e-08
-3.15638e-10
4.91868e-08
6.81314e-11
4.91766e-08
4.14856e-10
4.92273e-08
7.13422e-10
4.93336e-08
9.55979e-10
4.94847e-08
1.13871e-09
4.96659e-08
1.26215e-09
4.98607e-08
1.33106e-09
1.35353e-09
5.0053e-08
6.08993e-08
-2.80966e-10
6.08693e-08
-3.29737e-10
6.08347e-08
-3.82811e-10
6.07971e-08
-4.39002e-10
6.07588e-08
-4.96731e-10
6.0723e-08
-5.54732e-10
6.06931e-08
-6.11469e-10
6.06727e-08
-6.67313e-10
6.06651e-08
-7.21876e-10
6.06745e-08
-7.764e-10
6.0704e-08
-8.36292e-10
6.07551e-08
-8.99045e-10
6.08317e-08
-9.6826e-10
6.09377e-08
-1.05071e-09
6.10767e-08
-1.15038e-09
6.1252e-08
-1.27253e-09
6.14672e-08
-1.42323e-09
6.17252e-08
-1.61054e-09
6.2028e-08
-1.84693e-09
6.23743e-08
-2.14506e-09
6.27597e-08
-2.5386e-09
6.31669e-08
-3.06728e-09
6.35132e-08
-3.27553e-09
6.37646e-08
-3.31212e-09
6.39249e-08
-3.34871e-09
6.39932e-08
-3.33371e-09
6.39731e-08
-3.23629e-09
6.38837e-08
-3.09094e-09
6.37403e-08
-2.90608e-09
6.35534e-08
-2.66994e-09
6.3336e-08
-2.38453e-09
6.31022e-08
-2.05866e-09
6.28667e-08
-1.70208e-09
6.26437e-08
-1.32578e-09
6.24466e-08
-9.41937e-10
6.22869e-08
-5.63326e-10
6.21737e-08
-2.0237e-10
6.21121e-08
1.29679e-10
6.21036e-08
4.23413e-10
6.2145e-08
6.72038e-10
6.22292e-08
8.71695e-10
6.23462e-08
1.02172e-09
6.24839e-08
1.12448e-09
6.263e-08
1.18499e-09
1.21006e-09
6.27734e-08
7.77581e-08
-2.61184e-10
7.77354e-08
-3.07029e-10
7.77101e-08
-3.57423e-10
7.7683e-08
-4.11898e-10
7.76558e-08
-4.69622e-10
7.76311e-08
-5.29978e-10
7.76118e-08
-5.92157e-10
7.7601e-08
-6.56573e-10
7.76012e-08
-7.22002e-10
7.76155e-08
-7.90736e-10
7.76438e-08
-8.64629e-10
7.76921e-08
-9.47303e-10
7.77644e-08
-1.04054e-09
7.78616e-08
-1.14796e-09
7.79861e-08
-1.27489e-09
7.81409e-08
-1.4273e-09
7.83286e-08
-1.61095e-09
7.85515e-08
-1.83346e-09
7.88111e-08
-2.1065e-09
7.91048e-08
-2.43877e-09
7.94279e-08
-2.86172e-09
7.976e-08
-3.3993e-09
8.00315e-08
-3.54704e-09
8.02154e-08
-3.49608e-09
8.03146e-08
-3.44789e-09
8.03216e-08
-3.34066e-09
8.02474e-08
-3.16214e-09
8.01195e-08
-2.96304e-09
7.99456e-08
-2.73213e-09
7.9735e-08
-2.45934e-09
7.95022e-08
-2.15174e-09
7.92615e-08
-1.81792e-09
7.90265e-08
-1.46715e-09
7.88102e-08
-1.10946e-09
7.86236e-08
-7.55355e-10
7.84754e-08
-4.1511e-10
7.83711e-08
-9.80545e-11
7.83128e-08
1.87936e-10
7.82992e-08
4.37009e-10
7.83257e-08
6.45565e-10
7.8385e-08
8.12356e-10
7.84684e-08
9.3841e-10
7.85661e-08
1.02674e-09
7.86692e-08
1.08191e-09
1.1094e-09
7.87698e-08
9.8149e-08
-2.49656e-10
9.81364e-08
-2.94463e-10
9.8123e-08
-3.44022e-10
9.81094e-08
-3.98322e-10
9.80969e-08
-4.57153e-10
9.80873e-08
-5.203e-10
9.80828e-08
-5.87666e-10
9.80853e-08
-6.59127e-10
9.80987e-08
-7.35354e-10
9.81259e-08
-8.17988e-10
9.81681e-08
-9.06816e-10
9.82278e-08
-1.00697e-09
9.83079e-08
-1.12068e-09
9.84108e-08
-1.25086e-09
9.8538e-08
-1.40204e-09
9.86912e-08
-1.58053e-09
9.88718e-08
-1.79158e-09
9.90805e-08
-2.04216e-09
9.93171e-08
-2.34304e-09
9.95763e-08
-2.69803e-09
9.98534e-08
-3.13877e-09
1.00122e-07
-3.66749e-09
1.00327e-07
-3.75271e-09
1.00453e-07
-3.6215e-09
1.0049e-07
-3.48559e-09
1.00437e-07
-3.28779e-09
1.00327e-07
-3.05192e-09
1.00173e-07
-2.80839e-09
9.99754e-08
-2.53496e-09
9.97499e-08
-2.23381e-09
9.95105e-08
-1.91232e-09
9.92707e-08
-1.57817e-09
9.9043e-08
-1.23945e-09
9.88381e-08
-9.04571e-10
9.86646e-08
-5.81776e-10
9.8528e-08
-2.78537e-10
9.84312e-08
-1.24415e-12
9.8374e-08