/*--------------------------------*- C++ -*----------------------------------*\
| =========                 |                                                 |
| \\      /  F ield         | OpenFOAM: The Open Source CFD Toolbox           |
|  \\    /   O peration     | Version:  2312                                  |
|   \\  /    A nd           | Website:  www.openfoam.com                      |
|    \\/     M anipulation  |                                                 |
\*---------------------------------------------------------------------------*/
FoamFile
{
    version     2.0;
    format      ascii;
    arch        "LSB;label=32;scalar=64";
    class       volVectorField;
    location    "198";
    object      U;
}
// * * * * * * * * * * * * * * * * * * * * * * * * * * * * * * * * * * * * * //

dimensions      [0 1 -1 0 0 0 0];

internalField   nonuniform List<vector> 
4800
(
(0.000468143 3.89345e-07 -2.87652e-26)
(0.000458102 4.19812e-07 -1.99438e-25)
(0.000451619 4.24877e-07 2.56762e-25)
(0.000447563 4.08191e-07 1.14116e-25)
(0.000445248 3.70626e-07 1.65873e-24)
(0.000444209 3.23604e-07 -3.92978e-24)
(0.000444375 2.55897e-07 3.63372e-24)
(0.000445419 1.90682e-07 -5.2101e-24)
(0.000447403 4.98723e-08 1.68576e-24)
(0.000450487 -2.02029e-07 5.62183e-24)
(0.000455061 -6.9305e-07 -1.73575e-24)
(0.000462404 -2.05417e-06 -1.53627e-25)
(0.000479582 -7.09375e-06 -2.08204e-24)
(0.000523895 -2.73523e-05 9.65562e-25)
(0.000596632 -8.8081e-05 -7.6767e-25)
(0.00144654 2.07376e-06 -9.12953e-26)
(0.00141634 1.58643e-06 1.13724e-25)
(0.00139679 1.19892e-06 -1.02328e-24)
(0.00138447 8.54897e-07 7.70829e-25)
(0.00137731 5.19075e-07 2.39486e-24)
(0.00137391 1.63538e-07 -3.77271e-24)
(0.00137397 -2.58632e-07 -1.03404e-24)
(0.00137643 -7.35963e-07 -2.18877e-25)
(0.00138161 -1.49422e-06 8.59275e-24)
(0.00138989 -2.74587e-06 -6.32101e-24)
(0.00140234 -5.10502e-06 6.88218e-25)
(0.00142168 -1.07605e-05 1.03536e-24)
(0.00145647 -2.71724e-05 -1.52066e-24)
(0.00151695 -7.7032e-05 -4.56203e-25)
(0.00158155 -0.000188182 1.98426e-24)
(0.00252757 6.61921e-06 -6.52138e-26)
(0.0024762 5.01755e-06 6.6721e-26)
(0.00244286 3.77145e-06 6.69726e-25)
(0.00242173 2.69721e-06 -1.58482e-24)
(0.00240925 1.68794e-06 1.53706e-24)
(0.00240305 5.98017e-07 1.41229e-24)
(0.0024025 -6.84919e-07 -3.63521e-24)
(0.00240574 -2.17137e-06 -2.19212e-24)
(0.00241328 -4.40457e-06 5.33356e-24)
(0.0024255 -7.90135e-06 1.98138e-24)
(0.00244343 -1.40847e-05 -6.90096e-24)
(0.00246923 -2.68328e-05 -1.01964e-24)
(0.00250683 -5.54219e-05 2.93249e-24)
(0.00255485 -0.000118314 4.59782e-24)
(0.00258886 -0.000221812 -2.37133e-24)
(0.00371799 1.47234e-05 2.40704e-26)
(0.00364478 1.1208e-05 -1.66624e-25)
(0.00359709 8.48021e-06 7.33992e-25)
(0.00356663 6.14513e-06 7.6257e-25)
(0.00354832 3.97495e-06 -7.78611e-25)
(0.00353879 1.65746e-06 -4.34102e-24)
(0.00353684 -1.00621e-06 -2.83895e-24)
(0.00354004 -4.00972e-06 1.06875e-23)
(0.00354865 -8.44322e-06 4.40743e-24)
(0.00356286 -1.50868e-05 -6.42351e-24)
(0.00358285 -2.58799e-05 -2.56584e-24)
(0.00360911 -4.52686e-05 -1.93649e-24)
(0.00364083 -8.09841e-05 6.4038e-26)
(0.00367096 -0.000142448 1.42277e-24)
(0.00368194 -0.000224129 6.92429e-27)
(0.00502273 2.71439e-05 -4.41404e-26)
(0.00492771 2.07274e-05 -2.67992e-25)
(0.00486545 1.57571e-05 -1.6214e-25)
(0.00482531 1.15312e-05 4.54866e-25)
(0.00480068 7.64562e-06 -1.24952e-24)
(0.00478724 3.5866e-06 3.10831e-24)
(0.0047829 -9.30038e-07 -5.50937e-25)
(0.00478515 -6.03798e-06 1.83773e-24)
(0.00479335 -1.30861e-05 -1.03039e-23)
(0.00480725 -2.31883e-05 1.9528e-23)
(0.00482598 -3.81996e-05 -1.88077e-23)
(0.00484835 -6.18105e-05 9.86211e-24)
(0.00487103 -9.86763e-05 -9.09737e-24)
(0.00488653 -0.000151586 8.54815e-24)
(0.00488498 -0.000212835 -3.39882e-24)
(0.00644323 4.47756e-05 5.83437e-26)
(0.00632772 3.43264e-05 2.07254e-25)
(0.00625142 2.62364e-05 -1.08501e-24)
(0.00620164 1.94017e-05 -6.62253e-25)
(0.00617043 1.31863e-05 1.80979e-24)
(0.00615256 6.85835e-06 6.33802e-25)
(0.00614499 6.4314e-08 -4.91643e-24)
(0.00614508 -7.63808e-06 1.16547e-23)
(0.00615152 -1.75804e-05 -1.50453e-23)
(0.00616298 -3.0861e-05 3.62475e-24)
(0.00617795 -4.90364e-05 1.08218e-23)
(0.00619421 -7.4343e-05 -1.4941e-23)
(0.00620797 -0.000108591 7.47458e-24)
(0.00621368 -0.000151184 7.58576e-24)
(0.0062069 -0.000195961 -5.76647e-24)
(0.00797528 6.83643e-05 4.83497e-26)
(0.00784279 5.27089e-05 -2.84499e-25)
(0.00775428 4.05617e-05 1.00712e-24)
(0.00769571 3.03481e-05 -1.38478e-24)
(0.00765815 2.11541e-05 -4.59779e-24)
(0.00763565 1.20432e-05 7.8309e-24)
(0.00762434 2.48889e-06 -4.68607e-24)
(0.00762129 -8.03222e-06 1.57618e-23)
(0.00762457 -2.07889e-05 -1.07319e-23)
(0.00763216 -3.6735e-05 -4.95846e-24)
(0.00764199 -5.68253e-05 -9.63118e-24)
(0.00765162 -8.19433e-05 8.87329e-24)
(0.00765796 -0.00011208 2.47968e-24)
(0.00765764 -0.000145494 2.10038e-24)
(0.00764926 -0.000178139 -1.84663e-24)
(0.00960649 9.80864e-05 -6.99915e-26)
(0.00946378 7.62266e-05 9.43143e-25)
(0.00936696 5.91559e-05 -2.17717e-24)
(0.00930183 4.48288e-05 -1.72781e-24)
(0.00925907 3.20386e-05 6.91454e-25)
(0.00923237 1.9681e-05 1.29418e-24)
(0.00921733 7.0569e-06 4.48552e-24)
(0.00921067 -6.4086e-06 -1.20654e-23)
(0.00921004 -2.17582e-05 -6.28975e-24)
(0.00921305 -3.96792e-05 1.75601e-23)
(0.00921746 -6.05567e-05 -5.35426e-24)
(0.00922106 -8.43678e-05 1.82993e-23)
(0.00922176 -0.00011031 -9.61535e-24)
(0.00921773 -0.000136673 -3.03851e-24)
(0.00920904 -0.000161058 1.79521e-24)
(0.0113149 0.000132964 -9.32194e-27)
(0.0111727 0.000104441 5.22842e-25)
(0.0110742 8.18823e-05 -7.42149e-25)
(0.0110066 6.28995e-05 1.73552e-24)
(0.0109612 4.60418e-05 -1.02275e-23)
(0.0109318 3.00965e-05 1.07623e-23)
(0.0109139 1.42475e-05 -1.6628e-23)
(0.010904 -2.10501e-06 1.02815e-23)
(0.0108995 -1.97081e-05 7.53587e-24)
(0.0108982 -3.8957e-05 1.61112e-23)
(0.0108978 -5.98352e-05 -2.10094e-23)
(0.0108966 -8.18998e-05 -3.82089e-24)
(0.0108934 -0.000104231 1.81091e-24)
(0.0108871 -0.000125579 1.25897e-23)
(0.0108785 -0.000144621 -5.10551e-24)
(0.0130714 0.000170241 5.1613e-26)
(0.0129435 0.000135572 -2.21436e-25)
(0.0128524 0.000107574 9.72919e-25)
(0.0127886 8.38068e-05 -3.36699e-24)
(0.0127447 6.27198e-05 5.05623e-24)
(0.0127153 4.30835e-05 -6.43761e-24)
(0.0126964 2.40511e-05 1.06658e-23)
(0.0126846 5.04989e-06 1.78298e-24)
(0.0126775 -1.44006e-05 -1.44755e-23)
(0.0126729 -3.44668e-05 2.0399e-23)
(0.0126691 -5.49375e-05 -2.24274e-23)
(0.0126648 -7.53024e-05 -6.50587e-24)
(0.0126593 -9.48351e-05 1.15377e-23)
(0.012652 -0.000112777 3.39683e-24)
(0.0126437 -0.000128464 -1.47987e-24)
(0.01485 0.000205355 2.08968e-25)
(0.014749 0.000166213 -1.72827e-24)
(0.0146749 0.000133664 -2.69623e-24)
(0.0146217 0.000105601 6.43812e-24)
(0.0145844 8.05946e-05 2.79136e-24)
(0.0145588 5.75269e-05 -1.75109e-23)
(0.0145417 3.56206e-05 5.46605e-24)
(0.0145303 1.43834e-05 3.88862e-24)
(0.0145225 -6.47679e-06 -1.62622e-23)
(0.0145165 -2.6989e-05 1.7053e-23)
(0.0145112 -4.69232e-05 -1.33762e-23)
(0.0145056 -6.58881e-05 3.4459e-23)
(0.0144995 -8.34267e-05 -1.64729e-23)
(0.0144922 -9.91604e-05 9.65957e-24)
(0.0144848 -0.00011281 -2.62777e-24)
(0.0166439 0.000233631 -7.99878e-26)
(0.016575 0.000192216 1.17078e-24)
(0.0165231 0.000156618 -2.27165e-24)
(0.0164852 0.000125309 -1.11332e-24)
(0.0164584 9.71742e-05 1.24979e-23)
(0.0164399 7.13251e-05 -1.91201e-24)
(0.0164273 4.71366e-05 -2.18257e-23)
(0.0164186 2.42323e-05 2.52364e-23)
(0.0164122 2.43152e-06 -5.70751e-24)
(0.016407 -1.82491e-05 -1.934e-23)
(0.0164022 -3.76581e-05 2.05171e-23)
(0.0163971 -5.55801e-05 1.09319e-23)
(0.0163917 -7.17963e-05 -9.28779e-24)
(0.0163856 -8.61796e-05 -1.59223e-23)
(0.0163797 -9.86701e-05 1.3317e-24)
(0.0184747 0.000253641 -1.12672e-27)
(0.0184316 0.000211318 -1.29869e-24)
(0.0183991 0.000173922 6.13752e-24)
(0.0183758 0.000140444 3.17798e-25)
(0.0183597 0.000110107 3.34128e-24)
(0.0183488 8.22873e-05 -1.22056e-23)
(0.0183416 5.65303e-05 1.02542e-23)
(0.0183366 3.25662e-05 2.2382e-24)
(0.0183329 1.02642e-05 2.06826e-23)
(0.0183297 -1.03891e-05 -3.21276e-23)
(0.0183266 -2.93447e-05 -1.44096e-23)
(0.0183231 -4.65449e-05 -9.43105e-24)
(0.0183195 -6.19463e-05 1.78232e-23)
(0.0183152 -7.55743e-05 -5.06315e-25)
(0.0183113 -8.74886e-05 1.71581e-24)
(0.020371 0.000268558 -1.9483e-26)
(0.0203417 0.000225325 1.30771e-24)
(0.0203206 0.000186461 -1.90182e-24)
(0.0203062 0.0001513 4.57195e-27)
(0.0202968 0.00011931 2.47529e-24)
(0.0202909 9.0066e-05 6.22292e-24)
(0.0202874 6.32412e-05 -2.40957e-23)
(0.0202851 3.8613e-05 2.11944e-24)
(0.0202835 1.6047e-05 1.21589e-23)
(0.0202821 -4.54399e-06 -5.51341e-24)
(0.0202805 -2.32135e-05 1.50887e-23)
(0.0202786 -4.00166e-05 1.04823e-23)
(0.0202766 -5.50231e-05 -1.90437e-23)
(0.0202741 -6.83454e-05 1.29716e-23)
(0.0202719 -8.01063e-05 -1.07754e-23)
(0.0223253 0.000282155 -6.02834e-25)
(0.0223029 0.00023785 3.57603e-25)
(0.022287 0.000197504 2.19108e-24)
(0.0222763 0.000160765 -1.14091e-23)
(0.0222696 0.000127307 1.00577e-23)
(0.0222654 9.68322e-05 -7.27038e-24)
(0.022263 6.9096e-05 5.23585e-24)
(0.0222615 4.38792e-05 -3.66553e-23)
(0.0222605 2.10003e-05 5.29051e-23)
(0.0222595 2.94191e-07 -3.0987e-23)
(0.0222586 -1.83834e-05 2.76443e-23)
(0.0222574 -3.51717e-05 2.29997e-23)
(0.0222562 -5.02057e-05 -4.01752e-23)
(0.0222547 -6.36408e-05 1.30536e-23)
(0.0222534 -7.56314e-05 -5.47509e-25)
(0.0242743 0.000294495 -2.20027e-26)
(0.0242588 0.000249779 -6.66484e-27)
(0.0242474 0.000208472 -4.77236e-26)
(0.0242395 0.000170586 -3.06494e-25)
(0.0242343 0.000136005 3.97589e-24)
(0.024231 0.000104547 -6.84492e-24)
(0.0242289 7.60169e-05 6.36991e-24)
(0.0242274 5.02018e-05 -2.01378e-23)
(0.0242263 2.68803e-05 4.57808e-23)
(0.0242253 5.84043e-06 -5.85385e-23)
(0.0242243 -1.31369e-05 4.79122e-23)
(0.0242232 -3.02562e-05 -1.61734e-23)
(0.0242223 -4.56843e-05 8.38389e-25)
(0.024221 -5.95906e-05 3.70309e-24)
(0.0242201 -7.21418e-05 -7.10247e-24)
(0.0261176 0.000303163 -1.8707e-24)
(0.0261103 0.000259118 3.66997e-24)
(0.0261048 0.000217808 -1.59226e-24)
(0.0261007 0.00017959 -1.29302e-24)
(0.0260981 0.000144546 5.76259e-24)
(0.0260963 0.000112596 -5.96379e-24)
(0.0260953 8.35819e-05 -5.54302e-24)
(0.0260945 5.73079e-05 -1.3495e-23)
(0.0260939 3.35346e-05 6.803e-24)
(0.0260931 1.20422e-05 3.29034e-23)
(0.0260925 -7.40372e-06 -1.74019e-23)
(0.0260916 -2.50519e-05 1.0416e-23)
(0.0260909 -4.10838e-05 -4.27726e-24)
(0.02609 -5.56701e-05 -1.27442e-23)
(0.0260894 -6.89763e-05 6.52768e-24)
(0.0277349 0.000306413 6.30335e-25)
(0.0277353 0.00026403 -1.14058e-24)
(0.0277356 0.000223687 -1.03816e-24)
(0.0277358 0.000186 1.31454e-24)
(0.0277362 0.000151222 -1.98753e-24)
(0.0277367 0.000119363 7.37966e-24)
(0.0277373 9.02908e-05 -6.33252e-24)
(0.0277377 6.38202e-05 -4.4565e-24)
(0.0277381 3.973e-05 4.00495e-24)
(0.0277383 1.77654e-05 -4.96905e-24)
(0.0277384 -2.25304e-06 1.15412e-23)
(0.0277381 -2.05577e-05 5.97282e-24)
(0.027738 -3.73226e-05 -2.22613e-23)
(0.0277377 -5.27233e-05 1.54514e-23)
(0.0277376 -6.69195e-05 -3.16629e-24)
(0.0289721 0.000303858 1.91057e-24)
(0.0289792 0.000263925 3.69305e-24)
(0.0289846 0.000225409 -8.02068e-24)
(0.0289888 0.000189079 -1.83097e-24)
(0.0289923 0.000155274 3.98633e-24)
(0.0289952 0.000124079 -7.27307e-25)
(0.0289976 9.54295e-05 -3.40987e-24)
(0.0289996 6.91361e-05 5.20025e-24)
(0.0290012 4.5006e-05 8.06314e-24)
(0.0290024 2.28075e-05 -1.99538e-23)
(0.0290033 2.30946e-06 1.19258e-23)
(0.029004 -1.66231e-05 -8.61091e-25)
(0.0290047 -3.41596e-05 -7.58731e-25)
(0.0290053 -5.04682e-05 1.03981e-24)
(0.0290059 -6.56827e-05 -4.84968e-25)
(0.0296163 0.000291793 -5.13264e-24)
(0.0296298 0.000255083 -1.22137e-23)
(0.0296405 0.000219276 4.98055e-24)
(0.0296492 0.000185159 2.4793e-23)
(0.0296564 0.000153115 -7.31757e-24)
(0.0296624 0.00012326 -4.01287e-24)
(0.0296675 9.55868e-05 2.50961e-24)
(0.0296718 6.99562e-05 3.315e-24)
(0.0296752 4.61902e-05 -3.79626e-24)
(0.029678 2.41673e-05 9.30537e-25)
(0.0296802 3.68651e-06 1.66723e-24)
(0.0296819 -1.54481e-05 -1.90336e-24)
(0.0296832 -3.33904e-05 -3.23185e-24)
(0.029684 -5.02515e-05 5.15191e-24)
(0.0296846 -6.61222e-05 -2.37087e-24)
(0.0294412 0.000274684 8.32325e-24)
(0.0294589 0.000241348 -1.97087e-23)
(0.0294736 0.00020851 2.73524e-24)
(0.0294858 0.000176896 3.33103e-23)
(0.029496 0.000146904 -3.40199e-23)
(0.0295048 0.000118678 1.36107e-23)
(0.0295123 9.21922e-05 1.38358e-23)
(0.0295187 6.7356e-05 -3.23822e-23)
(0.0295241 4.41051e-05 3.08298e-25)
(0.0295289 2.22532e-05 1.10324e-23)
(0.0295327 1.71115e-06 2.95198e-24)
(0.0295355 -1.75307e-05 -1.66605e-24)
(0.0295379 -3.56019e-05 1.1453e-24)
(0.0295398 -5.26683e-05 -1.25081e-25)
(0.0295413 -6.88308e-05 -5.0124e-26)
(0.0285152 0.000250959 5.26266e-24)
(0.0285373 0.000221226 -1.13807e-23)
(0.0285552 0.000191768 -8.87474e-24)
(0.0285696 0.000163209 4.16282e-23)
(0.0285814 0.000135894 -4.01251e-23)
(0.0285909 0.000109934 3.65548e-24)
(0.0285986 8.53322e-05 7.38679e-24)
(0.0286049 6.20421e-05 4.84737e-24)
(0.0286097 3.99933e-05 5.53856e-24)
(0.0286132 1.90959e-05 -3.00317e-23)
(0.0286161 -6.67298e-07 1.8893e-23)
(0.0286185 -1.93392e-05 2.68128e-25)
(0.0286198 -3.70581e-05 1.00957e-23)
(0.0286205 -5.39219e-05 -4.67814e-24)
(0.0286206 -6.9983e-05 -9.69228e-25)
(0.0269753 0.000222647 1.32663e-23)
(0.027001 0.000196525 -2.39887e-23)
(0.0270226 0.000170591 4.77782e-24)
(0.0270408 0.000145345 -1.35967e-23)
(0.027056 0.000121037 -1.94751e-23)
(0.0270689 9.77683e-05 6.30754e-23)
(0.0270797 7.55597e-05 -2.58188e-23)
(0.0270887 5.43834e-05 8.00254e-24)
(0.0270962 3.41817e-05 -4.73946e-24)
(0.0271024 1.49698e-05 -1.42623e-23)
(0.0271073 -3.36981e-06 2.79983e-23)
(0.027111 -2.1045e-05 -1.71131e-23)
(0.0271135 -3.80269e-05 2.02381e-24)
(0.0271152 -5.42631e-05 3.18781e-24)
(0.027116 -6.97651e-05 -3.9924e-25)
(0.0251201 0.000195763 5.14821e-24)
(0.0251484 0.000172814 -2.75281e-23)
(0.0251727 0.000149967 4.92871e-23)
(0.0251933 0.00012761 -3.89535e-23)
(0.0252107 0.000105947 4.16524e-23)
(0.0252256 8.50467e-05 -1.30716e-23)
(0.025238 6.49284e-05 -9.68223e-24)
(0.0252485 4.55859e-05 -1.19861e-23)
(0.0252571 2.69656e-05 2.37392e-23)
(0.0252641 9.02267e-06 9.99682e-25)
(0.0252695 -8.24658e-06 -2.49959e-23)
(0.0252736 -2.48678e-05 -4.06998e-24)
(0.0252764 -4.08146e-05 7.07549e-24)
(0.0252781 -5.60737e-05 -1.73657e-24)
(0.0252787 -7.06659e-05 4.13902e-25)
(0.0230894 0.000168379 6.8818e-25)
(0.0231202 0.000148387 -1.04377e-23)
(0.0231466 0.000128421 -6.52904e-24)
(0.0231691 0.000108777 5.12016e-23)
(0.0231882 8.96122e-05 -5.18425e-23)
(0.0232044 7.09872e-05 1.55274e-23)
(0.023218 5.29358e-05 2.80227e-24)
(0.0232292 3.54513e-05 -1.57556e-24)
(0.0232383 1.85477e-05 -8.17923e-24)
(0.0232456 2.2567e-06 3.72148e-23)
(0.0232511 -1.34449e-05 -3.03548e-23)
(0.0232549 -2.85563e-05 -1.81813e-24)
(0.0232573 -4.30624e-05 3.02279e-24)
(0.0232582 -5.69701e-05 3.26598e-24)
(0.0232578 -7.02884e-05 -2.61965e-24)
(0.020987 0.000141428 1.02621e-24)
(0.0210191 0.000124255 9.76633e-24)
(0.0210467 0.000107047 -1.11447e-23)
(0.0210702 9.00413e-05 -8.33769e-24)
(0.0210901 7.33623e-05 5.50807e-23)
(0.0211068 5.70758e-05 -4.21086e-23)
(0.0211206 4.12242e-05 -7.23955e-25)
(0.0211319 2.58435e-05 -9.80121e-24)
(0.0211408 1.09703e-05 -1.07737e-24)
(0.0211476 -3.40325e-06 1.32029e-24)
(0.0211523 -1.72922e-05 -6.93138e-24)
(0.0211551 -3.06752e-05 4.93031e-24)
(0.0211562 -4.35417e-05 1.6212e-24)
(0.0211556 -5.58886e-05 1.7077e-24)
(0.0211533 -6.77046e-05 2.64446e-24)
(0.0188835 0.000116132 7.315e-24)
(0.0189156 0.000101649 -1.13433e-23)
(0.0189432 8.71007e-05 -9.81944e-24)
(0.0189665 7.26818e-05 3.01177e-23)
(0.0189862 5.84911e-05 -1.07548e-23)
(0.0190025 4.45921e-05 -1.6513e-23)
(0.0190157 3.104e-05 5.63143e-24)
(0.0190262 1.78621e-05 1.41577e-23)
(0.0190341 5.08217e-06 -2.37633e-23)
(0.0190396 -7.31863e-06 2.46393e-23)
(0.0190428 -1.9308e-05 -1.39586e-23)
(0.0190439 -3.08655e-05 6.46934e-24)
(0.019043 -4.19763e-05 -9.66922e-24)
(0.0190402 -5.26247e-05 1.0164e-23)
(0.0190355 -6.27925e-05 -2.70107e-24)
(0.0168258 9.33657e-05 -1.41833e-24)
(0.0168568 8.14183e-05 -5.14566e-24)
(0.0168832 6.93988e-05 -1.70584e-23)
(0.0169056 5.74642e-05 4.77503e-23)
(0.0169241 4.56822e-05 -8.14358e-24)
(0.0169393 3.4113e-05 -1.4182e-23)
(0.0169512 2.27975e-05 5.45199e-24)
(0.0169603 1.17734e-05 -7.81079e-24)
(0.0169666 1.04264e-06 -1.86704e-23)
(0.0169703 -9.37864e-06 1.78617e-23)
(0.0169717 -1.94467e-05 8.6205e-25)
(0.0169707 -2.9147e-05 -7.21688e-24)
(0.0169676 -3.84614e-05 8.16939e-24)
(0.0169624 -4.73721e-05 6.55863e-25)
(0.0169552 -5.58615e-05 -8.02449e-25)
(0.0148452 7.35798e-05 5.44914e-24)
(0.0148742 6.39621e-05 8.47427e-24)
(0.0148989 5.42792e-05 -7.48249e-24)
(0.0149196 4.46447e-05 -1.78047e-23)
(0.0149366 3.51008e-05 2.48424e-23)
(0.0149501 2.57008e-05 -2.81577e-23)
(0.0149605 1.64871e-05 -1.77779e-24)
(0.0149679 7.49872e-06 1.14199e-23)
(0.0149724 -1.27234e-06 4.22694e-24)
(0.0149744 -9.77863e-06 -9.87366e-24)
(0.0149738 -1.7996e-05 -7.72951e-25)
(0.0149709 -2.59103e-05 2.25905e-23)
(0.0149656 -3.35017e-05 -8.7423e-24)
(0.0149583 -4.07528e-05 -2.52283e-24)
(0.0149488 -4.7646e-05 -1.83427e-25)
(0.0129623 5.68498e-05 -5.64986e-24)
(0.0129889 4.93084e-05 7.31836e-24)
(0.0130115 4.17152e-05 9.22512e-25)
(0.0130302 3.4137e-05 1.63373e-23)
(0.0130453 2.66046e-05 -1.30233e-23)
(0.0130572 1.91675e-05 1.39407e-24)
(0.0130659 1.18681e-05 -1.25405e-24)
(0.0130717 4.73809e-06 -4.58369e-24)
(0.0130746 -2.22601e-06 4.64475e-24)
(0.013075 -8.97808e-06 -1.50873e-23)
(0.0130728 -1.55033e-05 5.47013e-25)
(0.0130682 -2.17851e-05 3.62519e-24)
(0.0130613 -2.78044e-05 2.533e-24)
(0.0130523 -3.35454e-05 1.11139e-24)
(0.0130412 -3.89914e-05 4.94935e-25)
(0.0111898 4.30101e-05 4.17721e-24)
(0.0112138 3.72644e-05 -3.27305e-24)
(0.011234 3.14805e-05 -1.54385e-23)
(0.0112507 2.56857e-05 1.45222e-23)
(0.0112641 1.9908e-05 2.17463e-23)
(0.0112743 1.4192e-05 -4.87208e-24)
(0.0112815 8.57461e-06 -1.14434e-23)
(0.0112859 3.0777e-06 -1.76244e-23)
(0.0112875 -2.28678e-06 1.35998e-23)
(0.0112867 -7.49477e-06 1.00055e-24)
(0.0112833 -1.25311e-05 -3.43696e-24)
(0.0112777 -1.73763e-05 -1.13272e-24)
(0.0112697 -2.20149e-05 2.2804e-24)
(0.0112597 -2.64335e-05 -5.87011e-27)
(0.0112477 -3.06178e-05 -5.60652e-25)
(0.00953458 3.17744e-05 -2.62445e-24)
(0.00955585 2.75347e-05 -2.01009e-24)
(0.00957377 2.32682e-05 2.26804e-24)
(0.00958848 1.89734e-05 -8.03133e-24)
(0.00960014 1.46797e-05 2.66165e-23)
(0.0096089 1.04238e-05 -3.65792e-23)
(0.00961488 6.23453e-06 3.71645e-23)
(0.0096182 2.12699e-06 -1.60981e-23)
(0.00961899 -1.87191e-06 4.06942e-24)
(0.00961735 -5.76517e-06 3.44702e-25)
(0.00961339 -9.5342e-06 -3.2374e-24)
(0.00960722 -1.31567e-05 1.48533e-24)
(0.00959893 -1.6623e-05 -2.97724e-24)
(0.00958863 -1.99221e-05 -4.80205e-25)
(0.00957642 -2.30424e-05 2.60094e-25)
(0.00799934 2.2812e-05 -1.27324e-24)
(0.00801792 1.97952e-05 2.96975e-25)
(0.00803359 1.67604e-05 7.21327e-25)
(0.00804644 1.36889e-05 -3.62384e-24)
(0.00805657 1.06117e-05 -1.82962e-24)
(0.00806408 7.55549e-06 1.49482e-23)
(0.00806909 4.54101e-06 -8.91221e-24)
(0.00807168 1.58731e-06 1.40526e-24)
(0.00807195 -1.28954e-06 -1.33309e-24)
(0.00806999 -4.10034e-06 -1.60697e-24)
(0.00806591 -6.8253e-06 -6.01818e-25)
(0.0080598 -9.43965e-06 3.44375e-24)
(0.00805173 -1.19411e-05 1.20637e-24)
(0.00804181 -1.4321e-05 -2.34049e-24)
(0.00803014 -1.65703e-05 -4.30008e-25)
(0.00658377 1.57932e-05 -4.62354e-25)
(0.00659973 1.37367e-05 -1.71361e-25)
(0.00661325 1.16691e-05 -7.92938e-24)
(0.00662434 9.5644e-06 1.87762e-24)
(0.00663307 7.45298e-06 -6.32497e-24)
(0.00663953 5.35152e-06 3.91181e-24)
(0.00664379 3.27366e-06 8.31883e-24)
(0.00664591 1.23776e-06 6.77878e-24)
(0.00664599 -7.40979e-07 -9.7949e-24)
(0.00664409 -2.68682e-06 2.96733e-24)
(0.00664029 -4.57798e-06 2.85186e-24)
(0.00663468 -6.38615e-06 -4.454e-24)
(0.00662732 -8.11737e-06 2.39799e-24)
(0.00661832 -9.76481e-06 -3.15436e-25)
(0.00660775 -1.13215e-05 8.01577e-25)
(0.00528543 1.04156e-05 -1.80851e-24)
(0.00529883 9.08644e-06 -2.60262e-24)
(0.00531027 7.75214e-06 -6.13909e-25)
(0.00531967 6.38655e-06 6.57857e-24)
(0.00532712 5.01561e-06 -4.89039e-24)
(0.00533264 3.64806e-06 -1.12613e-24)
(0.0053363 2.29174e-06 8.39897e-24)
(0.00533814 9.59203e-07 1.96237e-25)
(0.00533825 -3.27385e-07 -1.70306e-24)
(0.00533666 -1.60033e-06 -7.26842e-24)
(0.00533342 -2.84856e-06 5.24166e-25)
(0.00532863 -4.03376e-06 5.5475e-24)
(0.00532233 -5.17018e-06 -7.33248e-25)
(0.00531462 -6.25232e-06 -1.01017e-24)
(0.00530556 -7.2749e-06 7.01079e-25)
(0.00410029 6.41148e-06 -3.94797e-25)
(0.00411119 5.61085e-06 1.27168e-26)
(0.00412057 4.81095e-06 3.11693e-24)
(0.00412833 3.98874e-06 2.24797e-24)
(0.00413452 3.163e-06 -1.36809e-24)
(0.00413916 2.33705e-06 -3.8129e-24)
(0.00414229 1.51528e-06 1.65844e-24)
(0.00414394 7.03909e-07 -7.23359e-24)
(0.00414416 -7.5877e-08 5.57728e-24)
(0.00414303 -8.43593e-07 3.18245e-24)
(0.0041405 -1.61286e-06 2.03054e-25)
(0.0041367 -2.33622e-06 -3.78993e-24)
(0.00413166 -3.03062e-06 7.71256e-25)
(0.00412545 -3.69221e-06 -6.72429e-25)
(0.00411812 -4.31708e-06 3.59566e-25)
(0.00302315 3.54709e-06 -7.2615e-25)
(0.00303158 3.10896e-06 -5.15556e-27)
(0.00303891 2.67762e-06 2.48238e-24)
(0.00304501 2.2339e-06 -1.55974e-24)
(0.00304993 1.78861e-06 6.87446e-24)
(0.00305368 1.34182e-06 -1.27101e-23)
(0.00305627 8.9634e-07 1.07614e-23)
(0.00305772 4.55546e-07 -9.34416e-24)
(0.00305807 3.43686e-08 6.93164e-24)
(0.0030574 -3.84867e-07 -4.68467e-24)
(0.00305562 -8.07448e-07 1.66712e-24)
(0.00305286 -1.20328e-06 2.60344e-25)
(0.00304913 -1.58311e-06 5.01427e-25)
(0.00304449 -1.94441e-06 -6.40461e-25)
(0.00303897 -2.28433e-06 1.48259e-25)
(0.00204796 1.62845e-06 1.10083e-24)
(0.00205395 1.41985e-06 1.25296e-24)
(0.0020592 1.22199e-06 -5.30913e-24)
(0.00206362 1.01975e-06 3.96396e-24)
(0.00206722 8.1813e-07 -7.12515e-27)
(0.00207 6.17007e-07 1.15445e-24)
(0.00207199 4.17028e-07 -1.33487e-24)
(0.00207318 2.19961e-07 -3.06523e-24)
(0.00207359 3.31265e-08 3.08901e-24)
(0.00207329 -1.56422e-07 4.04993e-25)
(0.0020722 -3.44839e-07 -2.82492e-24)
(0.00207042 -5.2128e-07 1.00473e-24)
(0.00206795 -6.8883e-07 6.94308e-25)
(0.00206483 -8.48591e-07 -7.48783e-26)
(0.00206108 -9.98353e-07 -9.9536e-26)
(0.00116816 5.24326e-07 -1.10995e-24)
(0.00117172 4.59101e-07 3.45612e-24)
(0.00117487 3.99681e-07 2.20657e-24)
(0.00117754 3.36018e-07 -3.82882e-24)
(0.00117974 2.7171e-07 -4.55995e-25)
(0.00118148 2.12036e-07 -4.32928e-25)
(0.00118276 1.52109e-07 1.39867e-24)
(0.00118357 9.23162e-08 -2.41863e-24)
(0.00118393 3.34661e-08 3.45586e-24)
(0.00118386 -2.41468e-08 -1.68385e-24)
(0.00118334 -8.23401e-08 -1.22498e-24)
(0.0011824 -1.36431e-07 7.79331e-25)
(0.00118105 -1.84122e-07 -1.08057e-24)
(0.00117932 -2.36952e-07 1.13133e-24)
(0.00117721 -2.9264e-07 -2.15473e-25)
(0.000376869 1.17638e-07 -7.91844e-27)
(0.000378008 1.6534e-07 6.76725e-25)
(0.000379031 2.02237e-07 8.16175e-25)
(0.000379907 2.25562e-07 -1.24266e-24)
(0.000380643 2.37963e-07 2.76886e-24)
(0.000381235 2.44424e-07 -2.99362e-24)
(0.000381682 2.41741e-07 2.12188e-25)
(0.00038198 2.30663e-07 1.86327e-24)
(0.00038213 2.11072e-07 -2.58192e-24)
(0.000382141 1.86512e-07 -5.417e-25)
(0.000382007 1.55158e-07 2.02446e-24)
(0.000381734 1.19557e-07 -9.18007e-25)
(0.000381324 8.24323e-08 -4.04882e-25)
(0.000380784 3.58341e-08 3.48023e-25)
(0.000380121 -1.84501e-08 -1.78144e-26)
(0.000882973 -0.00022418 7.57337e-26)
(0.00101197 -0.000138942 1.90929e-24)
(0.00123024 -5.12029e-05 -5.44525e-24)
(0.00145419 2.14682e-05 7.82517e-24)
(0.00167087 8.09568e-05 -2.93355e-24)
(0.00188513 0.000127938 -2.7641e-24)
(0.00209712 0.000164518 3.12247e-24)
(0.0023076 0.000192405 -6.14817e-24)
(0.00251726 0.000212945 3.77919e-25)
(0.00272661 0.00022725 3.8915e-24)
(0.00293605 0.000236249 -7.55608e-25)
(0.00314601 0.000240756 8.33004e-25)
(0.003357 0.000241527 -7.2133e-26)
(0.00356969 0.000239222 5.69406e-25)
(0.00378501 0.000234383 -2.10015e-24)
(0.00400425 0.000227461 1.16667e-24)
(0.00422932 0.000218816 -3.93892e-25)
(0.00446272 0.000208731 1.72711e-26)
(0.00470824 0.000197115 9.68575e-25)
(0.00497046 0.000183337 -6.10896e-25)
(0.00525511 0.000164742 7.43528e-26)
(0.00556614 0.000136059 -6.4047e-26)
(0.00587782 9.07128e-05 1.10776e-25)
(0.00614974 2.91794e-05 3.8839e-25)
(0.00636962 -4.4838e-05 -6.98644e-25)
(0.00653859 -0.000127312 -3.90965e-25)
(0.0066589 -0.000214458 8.3686e-26)
(0.00673362 -0.000303924 8.40315e-25)
(0.00676589 -0.000393695 6.63171e-25)
(0.00675806 -0.000481238 -1.21346e-24)
(0.00671169 -0.000563374 -2.73942e-25)
(0.00662795 -0.000636082 1.2502e-24)
(0.00650793 -0.000694389 -8.0239e-25)
(0.00635284 -0.000732409 -2.54725e-24)
(0.00616417 -0.000743399 2.51632e-24)
(0.00594366 -0.000719713 1.15301e-23)
(0.00569328 -0.00065251 -3.85743e-24)
(0.00541521 -0.000531018 2.08736e-24)
(0.00511197 -0.00034116 8.37902e-25)
(0.00478686 -6.40496e-05 -1.42543e-23)
(0.00444301 0.000322273 -1.67578e-25)
(0.004084 0.000830423 5.56824e-24)
(0.00369474 0.00142426 1.63091e-24)
(0.00328786 0.00196384 -7.66556e-24)
(0.00305622 0.00203693 -3.71217e-25)
(0.00166917 -0.000301945 -2.21224e-24)
(0.00172314 -0.000251023 -3.05635e-24)
(0.00185898 -0.000166459 6.43936e-24)
(0.00203 -8.7177e-05 2.91773e-24)
(0.00221309 -1.80934e-05 -1.01937e-23)
(0.00240374 3.86532e-05 1.07844e-23)
(0.00259821 8.41745e-05 -3.85208e-24)
(0.00279498 0.000120034 3.04208e-24)
(0.00299349 0.000147662 -4.02495e-24)
(0.00319353 0.000168286 4.09188e-26)
(0.00339508 0.000182928 -2.2123e-24)
(0.00359828 0.00019247 4.41796e-24)
(0.00380345 0.00019772 -2.49384e-24)
(0.0040111 0.00019937 -2.39343e-24)
(0.00422202 0.000197986 -1.74777e-24)
(0.00443735 0.000194029 3.09424e-24)
(0.00465876 0.000187866 -4.41173e-25)
(0.00488848 0.000179767 1.79553e-24)
(0.00512993 0.000169638 3.09992e-25)
(0.00538713 0.000156881 -5.56679e-25)
(0.00566528 0.000138993 -2.3284e-25)
(0.00596783 0.000111083 -1.30732e-25)
(0.00626997 6.7129e-05 6.0522e-25)
(0.00653322 7.96426e-06 6.44103e-25)
(0.00674618 -6.27832e-05 -6.62373e-25)
(0.0069101 -0.000141222 -2.5323e-24)
(0.00702705 -0.000223628 3.16447e-24)
(0.00709987 -0.000307673 -1.89849e-24)
(0.00713157 -0.000391301 6.0762e-25)
(0.00712451 -0.000471874 -2.70091e-26)
(0.0070804 -0.000546118 -7.08473e-25)
(0.00700062 -0.000609963 3.20997e-24)
(0.00688661 -0.000658443 -4.91006e-24)
(0.00674009 -0.000685719 1.43909e-23)
(0.00656323 -0.000685129 -2.07781e-23)
(0.00635873 -0.00064913 5.39089e-24)
(0.00612996 -0.000569042 1.93241e-23)
(0.00588124 -0.000434424 -5.87865e-24)
(0.00561848 -0.000231923 -1.43923e-23)
(0.00535081 5.61779e-05 -8.05509e-24)
(0.005092 0.000450915 1.83527e-23)
(0.0048651 0.000965694 -1.72314e-23)
(0.00469323 0.00156623 -3.56315e-24)
(0.00461325 0.00210281 1.10243e-23)
(0.00466275 0.0021215 3.46467e-24)
(0.00260322 -0.00030929 -2.50813e-26)
(0.00261079 -0.000298498 -3.5233e-24)
(0.00266957 -0.000245401 6.81367e-24)
(0.00277816 -0.000176484 5.59047e-24)
(0.00291379 -0.000108262 -9.18109e-24)
(0.00306793 -4.75876e-05 1.93387e-25)
(0.00323395 3.65696e-06 8.67696e-25)
(0.00340797 4.5723e-05 9.35933e-24)
(0.00358781 7.94791e-05 -1.10983e-23)
(0.00377219 0.000105918 6.90293e-24)
(0.00396039 0.000125962 2.20473e-24)
(0.00415211 0.000140454 -1.18751e-23)
(0.00434733 0.000150196 4.30716e-24)
(0.00454628 0.000155877 1.81055e-24)
(0.00474956 0.000158058 -3.96512e-24)
(0.00495805 0.000157201 6.6168e-24)
(0.0051732 0.000153667 -4.8011e-24)
(0.0053969 0.000147711 -1.42988e-25)
(0.00563214 0.000139233 3.74518e-25)
(0.00588235 0.000127663 4.30864e-25)
(0.00615211 0.000110654 6.32584e-26)
(0.00644428 8.36944e-05 2.44705e-25)
(0.00673504 4.13054e-05 -6.01337e-25)
(0.0069879 -1.53212e-05 1.72349e-24)
(0.00719241 -8.26328e-05 -2.52674e-24)
(0.00734997 -0.000156854 1.41702e-24)
(0.00746244 -0.000234298 -2.55436e-24)
(0.00753244 -0.000312669 3.38053e-24)
(0.00756285 -0.000389877 -1.96604e-24)
(0.00755607 -0.00046318 1.07896e-24)
(0.00751394 -0.000529212 1.77574e-24)
(0.0074381 -0.000583872 -3.66017e-24)
(0.00733039 -0.000622233 1.78136e-24)
(0.00719305 -0.00063857 7.41011e-24)
(0.00702898 -0.000626428 -1.78035e-23)
(0.00684189 -0.000578594 2.71195e-23)
(0.0066366 -0.000486941 -1.77303e-23)
(0.00641952 -0.000342055 2.34103e-23)
(0.00619971 -0.00013261 -4.39312e-23)
(0.005991 0.000155329 1.65439e-23)
(0.00581451 0.000536272 5.53593e-24)
(0.005703 0.0010155 8.36211e-24)
(0.00569168 0.00155269 -1.0391e-23)
(0.00580033 0.00200371 2.93907e-24)
(0.00598713 0.00201044 -1.77628e-24)
(0.00366973 -0.000292396 -9.33108e-25)
(0.00365136 -0.000306304 -1.40824e-24)
(0.00366115 -0.00028296 -5.99675e-24)
(0.00370973 -0.000236656 1.71186e-24)
(0.00379321 -0.000179372 1.12254e-24)
(0.00390232 -0.000122415 4.64639e-24)
(0.00403051 -7.06687e-05 -9.62094e-24)
(0.00417286 -2.58087e-05 3.67084e-24)
(0.00432595 1.18612e-05 1.22747e-23)
(0.00448745 4.26758e-05 -3.22613e-24)
(0.00465588 6.71837e-05 -3.09727e-24)
(0.00483037 8.60178e-05 -5.07029e-25)
(0.0050105 9.98707e-05 1.73789e-24)
(0.00519616 0.000109358 -3.47769e-24)
(0.00538762 0.000114993 7.73163e-25)
(0.00558551 0.000117201 -3.56053e-25)
(0.00579098 0.000116322 -1.97263e-24)
(0.00600555 0.000112579 6.58874e-25)
(0.00623175 0.000105861 3.49263e-24)
(0.00647236 9.56222e-05 -4.10159e-25)
(0.00673128 7.96648e-05 -7.98076e-25)
(0.00701067 5.38552e-05 -2.0666e-25)
(0.00728772 1.32515e-05 -1.05706e-24)
(0.00752811 -4.0608e-05 3.63203e-26)
(0.00772231 -0.000104259 -2.05958e-24)
(0.00787186 -0.000174027 3.76159e-24)
(0.00797844 -0.000246236 -2.55151e-24)
(0.00804441 -0.00031863 4.58923e-24)
(0.00807257 -0.000389107 -2.97716e-24)
(0.00806537 -0.000454838 1.0306e-24)
(0.0080248 -0.000512383 1.97504e-25)
(0.00795277 -0.000557658 -3.05847e-25)
(0.00785154 -0.000585841 -3.86843e-25)
(0.0077239 -0.000591436 -2.03255e-24)
(0.00757345 -0.000568367 3.10018e-24)
(0.00740491 -0.000510033 -8.10112e-24)
(0.00722438 -0.000409303 3.61008e-23)
(0.00704003 -0.000258473 -1.9348e-23)
(0.00686313 -4.92746e-05 -9.99548e-25)
(0.00670986 0.000226632 -3.79912e-23)
(0.0066033 0.000575112 2.85871e-23)
(0.00657506 0.000991243 -1.00808e-23)
(0.00665573 0.00143434 2.44373e-24)
(0.00684817 0.00179459 1.27271e-23)
(0.00709488 0.00185873 -3.16222e-24)
(0.0048652 -0.000265716 -3.8542e-24)
(0.0048366 -0.000291584 7.83468e-24)