/*--------------------------------*- C++ -*----------------------------------*\
| =========                 |                                                 |
| \\      /  F ield         | OpenFOAM: The Open Source CFD Toolbox           |
|  \\    /   O peration     | Version:  2312                                  |
|   \\  /    A nd           | Website:  www.openfoam.com                      |
|    \\/     M anipulation  |                                                 |
\*---------------------------------------------------------------------------*/
FoamFile
{
    version     2.0;
    format      ascii;
    arch        "LSB;label=32;scalar=64";
    class       volScalarField;
    location    "3";
    object      p;
}
// * * * * * * * * * * * * * * * * * * * * * * * * * * * * * * * * * * * * * //

dimensions      [0 2 -2 0 0 0 0];

internalField   nonuniform List<scalar> 
4800
(
-4.36657e-13
-1.40231e-06
-2.57122e-06
-3.56227e-06
-4.41318e-06
-5.14888e-06
-5.79359e-06
-6.36472e-06
-6.87057e-06
-7.32342e-06
-7.73183e-06
-8.09782e-06
-8.41505e-06
-8.91335e-06
-1.05372e-05
1.53306e-08
-1.38438e-06
-2.55145e-06
-3.54134e-06
-4.39226e-06
-5.12902e-06
-5.77627e-06
-6.3514e-06
-6.86321e-06
-7.32578e-06
-7.75282e-06
-8.1598e-06
-8.56147e-06
-9.0643e-06
-9.91602e-06
3.17069e-08
-1.36512e-06
-2.53031e-06
-3.51922e-06
-4.37001e-06
-5.10763e-06
-5.75576e-06
-6.3339e-06
-6.85047e-06
-7.32009e-06
-7.75793e-06
-8.18029e-06
-8.5965e-06
-9.01618e-06
-9.41979e-06
4.86764e-08
-1.34465e-06
-2.50743e-06
-3.49486e-06
-4.34492e-06
-5.08337e-06
-5.73071e-06
-6.31008e-06
-6.82877e-06
-7.29963e-06
-7.7356e-06
-8.14461e-06
-8.51985e-06
-8.83194e-06
-9.01367e-06
6.77341e-08
-1.32124e-06
-2.48084e-06
-3.46601e-06
-4.31446e-06
-5.05273e-06
-5.69881e-06
-6.2759e-06
-6.79266e-06
-7.2575e-06
-7.67861e-06
-8.05459e-06
-8.36756e-06
-8.58051e-06
-8.63995e-06
9.03464e-08
-1.29331e-06
-2.4488e-06
-3.43074e-06
-4.27642e-06
-5.01212e-06
-5.65618e-06
-6.22719e-06
-6.73592e-06
-7.18622e-06
-7.58054e-06
-7.91132e-06
-8.15845e-06
-8.29331e-06
-8.28852e-06
1.18677e-07
-1.25868e-06
-2.40897e-06
-3.38638e-06
-4.22766e-06
-4.95846e-06
-5.59688e-06
-6.15816e-06
-6.65177e-06
-7.07882e-06
-7.43735e-06
-7.71813e-06
-7.90573e-06
-7.98545e-06
-7.95053e-06
1.5636e-07
-1.21377e-06
-2.35756e-06
-3.32878e-06
-4.16344e-06
-4.88639e-06
-5.51468e-06
-6.06118e-06
-6.53288e-06
-6.92962e-06
-7.24784e-06
-7.4806e-06
-7.62026e-06
-7.66437e-06
-7.61788e-06
2.08875e-07
-1.15318e-06
-2.28899e-06
-3.25193e-06
-4.07716e-06
-4.78855e-06
-5.40194e-06
-5.92809e-06
-6.37227e-06
-6.73457e-06
-7.01267e-06
-7.20414e-06
-7.30879e-06
-7.33228e-06
-7.28461e-06
2.83435e-07
-1.06961e-06
-2.19564e-06
-3.14779e-06
-3.96027e-06
-4.65597e-06
-5.24965e-06
-5.75074e-06
-6.16392e-06
-6.49114e-06
-6.73315e-06
-6.89231e-06
-6.9739e-06
-6.9878e-06
-6.94525e-06
3.88262e-07
-9.5432e-07
-2.06828e-06
-3.00661e-06
-3.80271e-06
-4.47856e-06
-5.04834e-06
-5.52121e-06
-5.90293e-06
-6.19776e-06
-6.41015e-06
-6.54642e-06
-6.61502e-06
-6.62731e-06
-6.59399e-06
5.31674e-07
-7.97957e-07
-1.89674e-06
-2.81773e-06
-3.5937e-06
-4.24614e-06
-4.78929e-06
-5.23316e-06
-5.58555e-06
-5.85317e-06
-6.0436e-06
-6.16575e-06
-6.22944e-06
-6.24592e-06
-6.2247e-06
7.21797e-07
-5.90958e-07
-1.67055e-06
-2.57028e-06
-3.32272e-06
-3.94934e-06
-4.46518e-06
-4.88181e-06
-5.20904e-06
-5.45601e-06
-5.63229e-06
-5.748e-06
-5.81317e-06
-5.83814e-06
-5.83112e-06
9.66725e-07
-3.23482e-07
-1.37901e-06
-2.25344e-06
-2.97964e-06
-3.57965e-06
-4.06965e-06
-4.46282e-06
-4.7707e-06
-5.00408e-06
-5.17351e-06
-5.28934e-06
-5.36107e-06
-5.39792e-06
-5.40688e-06
1.27432e-06
1.43728e-08
-1.01141e-06
-1.85663e-06
-2.55486e-06
-3.12902e-06
-3.59642e-06
-3.97138e-06
-4.26651e-06
-4.49322e-06
-4.66235e-06
-4.78385e-06
-4.86639e-06
-4.91801e-06
-4.94472e-06
1.6512e-06
4.31508e-07
-5.58104e-07
-1.3705e-06
-2.03996e-06
-2.59025e-06
-3.03929e-06
-3.40182e-06
-3.69064e-06
-3.91738e-06
-4.09208e-06
-4.22402e-06
-4.32106e-06
-4.3902e-06
-4.43663e-06
2.10062e-06
9.33627e-07
-1.26362e-08
-7.88913e-07
-1.42947e-06
-1.95838e-06
-2.3936e-06
-2.74954e-06
-3.03837e-06
-3.27078e-06
-3.45608e-06
-3.60277e-06
-3.71788e-06
-3.80743e-06
-3.87597e-06
2.61993e-06
1.52011e-06
6.25082e-07
-1.1187e-07
-7.23571e-07
-1.23339e-06
-1.65857e-06
-2.01258e-06
-2.30648e-06
-2.54969e-06
-2.75018e-06
-2.91575e-06
-3.05263e-06
-3.16596e-06
-3.25968e-06
3.19838e-06
2.18083e-06
1.34526e-06
6.50972e-07
6.83856e-08
-4.23888e-07
-8.41486e-07
-1.19636e-06
-1.49817e-06
-1.75526e-06
-1.97476e-06
-2.16264e-06
-2.32423e-06
-2.46413e-06
-2.58596e-06
3.81503e-06
2.89296e-06
2.1242e-06
1.47574e-06
9.22759e-07
4.46989e-07
3.50264e-08
-3.23153e-07
-6.3542e-07
-9.08332e-07
-1.14772e-06
-1.35869e-06
-1.54601e-06
-1.71378e-06
-1.86532e-06
4.40745e-06
3.58367e-06
2.88291e-06
2.28008e-06
1.75581e-06
1.29553e-06
8.8837e-07
5.2612e-07
2.02336e-07
-8.82066e-08
-3.49825e-07
-5.86349e-07
-8.02033e-07
-1.00028e-06
-1.18386e-06
4.89312e-06
4.15468e-06
3.51303e-06
2.94981e-06
2.4505e-06
2.00396e-06
1.60173e-06
1.23725e-06
9.05197e-07
6.00937e-07
3.20166e-07
5.93356e-08
-1.83117e-07
-4.09301e-07
-6.21674e-07
5.25632e-06
4.58438e-06
3.98873e-06
3.45604e-06
2.9756e-06
2.53898e-06
2.13948e-06
1.77174e-06
1.43128e-06
1.11436e-06
8.17968e-07
5.39951e-07
2.77864e-07
2.9828e-08
-2.06011e-07
5.52165e-06
4.90165e-06
4.34226e-06
3.83387e-06
3.36863e-06
2.94012e-06
2.54301e-06
2.17293e-06
1.82625e-06
1.49999e-06
1.19168e-06
8.99241e-07
6.20746e-07
3.54577e-07
9.91887e-08
5.71342e-06
5.13408e-06
4.60357e-06
4.11485e-06
3.6621e-06
3.24032e-06
2.84525e-06
2.47331e-06
2.12151e-06
1.7874e-06
1.46886e-06
1.16402e-06
8.71455e-07
5.8986e-07
3.17931e-07
5.85074e-06
5.30341e-06
4.79595e-06
4.32309e-06
3.88039e-06
3.46394e-06
3.07028e-06
2.69646e-06
2.34002e-06
1.99892e-06
1.67138e-06
1.35602e-06
1.05157e-06
7.56972e-07
4.71142e-07
5.94821e-06
5.42628e-06
4.93722e-06
4.47704e-06
4.04233e-06
3.62996e-06
3.23709e-06
2.86135e-06
2.50072e-06
2.15351e-06
1.81826e-06
1.49395e-06
1.17948e-06
8.7393e-07
5.76429e-07
6.01688e-06
5.51531e-06
5.04102e-06
4.59102e-06
4.16265e-06
3.75336e-06
3.36087e-06
2.98324e-06
2.61887e-06
2.26642e-06
1.92458e-06
1.59263e-06
1.2696e-06
9.54781e-07
6.47437e-07
6.06501e-06
5.57996e-06
5.11767e-06
4.67592e-06
4.25263e-06
3.84571e-06
3.45331e-06
3.07389e-06
2.70615e-06
2.34896e-06
2.00164e-06
1.66314e-06
1.3328e-06
1.01008e-06
6.94402e-07
6.09866e-06
5.62725e-06
5.17485e-06
4.7399e-06
4.32072e-06
3.91562e-06
3.52313e-06
3.14206e-06
2.77137e-06
2.41019e-06
2.05789e-06
1.7137e-06
1.37708e-06
1.04763e-06
7.24862e-07
6.1223e-06
5.6623e-06
5.21819e-06
4.78891e-06
4.3731e-06
3.96942e-06
3.57674e-06
3.19412e-06
2.82077e-06
2.4561e-06
2.09944e-06
1.75032e-06
1.4083e-06
1.07307e-06
7.44237e-07
6.13913e-06
5.68882e-06
5.25174e-06
4.82724e-06
4.41422e-06
4.01167e-06
3.61872e-06
3.2347e-06
2.85901e-06
2.49118e-06
2.13073e-06
1.77731e-06
1.43061e-06
1.09038e-06
7.56312e-07
6.15138e-06
5.7094e-06
5.27835e-06
4.85792e-06
4.44724e-06
4.04558e-06
3.65234e-06
3.26702e-06
2.88924e-06
2.51862e-06
2.15483e-06
1.79765e-06
1.44685e-06
1.10227e-06
7.63656e-07
6.16061e-06
5.72583e-06
5.3e-06
4.88304e-06
4.47434e-06
4.07342e-06
3.67986e-06
3.29336e-06
2.91369e-06
2.54058e-06
2.17385e-06
1.81336e-06
1.45896e-06
1.11056e-06
7.67973e-07
6.16781e-06
5.73933e-06
5.31802e-06
4.90406e-06
4.49705e-06
4.09672e-06
3.70284e-06
3.31526e-06
2.93389e-06
2.55857e-06
2.18922e-06
1.82579e-06
1.46821e-06
1.11644e-06
7.70369e-07
6.17365e-06
5.75066e-06
5.3333e-06
4.92194e-06
4.51637e-06
4.11653e-06
3.72233e-06
3.33374e-06
2.95086e-06
2.57356e-06
2.20188e-06
1.83584e-06
1.47544e-06
1.12071e-06
7.71554e-07
6.17851e-06
5.76034e-06
5.3464e-06
4.93729e-06
4.53296e-06
4.13353e-06
3.73898e-06
3.34952e-06
2.96525e-06
2.58618e-06
2.21243e-06
1.84409e-06
1.4812e-06
1.12384e-06
7.71977e-07
6.1827e-06
5.76875e-06
5.3578e-06
4.95064e-06
4.54737e-06
4.14824e-06
3.75336e-06
3.36314e-06
2.97762e-06
2.59697e-06
2.22138e-06
1.85099e-06
1.48589e-06
1.1262e-06
7.71904e-07
6.18656e-06
5.77653e-06
5.36835e-06
4.96298e-06
4.56066e-06
4.16176e-06
3.76662e-06
3.37562e-06
2.98892e-06
2.60677e-06
2.22944e-06
1.85714e-06
1.48996e-06
1.12806e-06
7.71473e-07
6.19016e-06
5.78405e-06
5.37854e-06
4.97489e-06
4.57351e-06
4.17489e-06
3.77941e-06
3.38761e-06
2.99974e-06
2.61612e-06
2.23704e-06
1.86276e-06
1.49352e-06
1.12953e-06
7.70861e-07
-1.19058e-05
-9.67982e-06
-8.31015e-06
-7.39043e-06
-6.65215e-06
-6.08194e-06
-5.63495e-06
-5.28045e-06
-4.99812e-06
-4.77216e-06
-4.58998e-06
-4.44128e-06
-4.31753e-06
-4.2123e-06
-4.12153e-06
-4.04536e-06
-3.9894e-06
-3.96927e-06
-4.01222e-06
-4.16269e-06
-4.47603e-06
-5.00504e-06
-5.69765e-06
-6.34701e-06
-6.80032e-06
-6.98323e-06
-6.86003e-06
-6.4198e-06
-5.66345e-06
-4.5989e-06
-3.24022e-06
-1.60897e-06
2.64415e-07
2.34036e-06
4.57082e-06
6.9008e-06
9.26955e-06
1.16107e-05
1.38494e-05
1.5896e-05
1.76256e-05
1.88757e-05
1.92784e-05
1.85184e-05
1.53921e-05
-1.02963e-05
-9.14566e-06
-8.11058e-06
-7.29165e-06
-6.59894e-06
-6.04441e-06
-5.6031e-06
-5.2509e-06
-4.9699e-06
-4.7452e-06
-4.56448e-06
-4.41749e-06
-4.29576e-06
-4.19285e-06
-4.10478e-06
-4.03174e-06
-3.97938e-06
-3.96314e-06
-4.00981e-06
-4.16284e-06
-4.47597e-06
-5.00015e-06
-5.68326e-06
-6.32147e-06
-6.76478e-06
-6.94002e-06
-6.81167e-06
-6.3688e-06
-5.61252e-06
-4.55138e-06
-3.2006e-06
-1.5833e-06
2.68133e-07
2.31169e-06
4.49625e-06
6.76259e-06
9.04382e-06
1.12642e-05
1.33337e-05
1.51369e-05
1.64979e-05
1.71497e-05
1.65675e-05
1.4008e-05
8.50846e-06
-9.45226e-06
-8.72822e-06
-7.90321e-06
-7.17531e-06
-6.5332e-06
-6.00034e-06
-5.56804e-06
-5.21972e-06
-4.94066e-06
-4.71739e-06
-4.53812e-06
-4.39281e-06
-4.27305e-06
-4.1725e-06
-4.08725e-06
-4.01759e-06
-3.96916e-06
-3.95725e-06
-4.0081e-06
-4.16399e-06
-4.47682e-06
-4.99533e-06
-5.66728e-06
-6.29237e-06
-6.72389e-06
-6.89013e-06
-6.75599e-06
-6.31063e-06
-5.55553e-06
-4.50015e-06
-3.16117e-06
-1.56374e-06
2.5722e-07
2.25659e-06
4.37927e-06
6.56075e-06
8.7267e-06
1.07906e-05
1.26464e-05
1.41543e-05
1.51135e-05
1.52194e-05
1.40023e-05
1.09486e-05
5.96611e-06
-8.91128e-06
-8.38623e-06
-7.72007e-06
-7.06497e-06
-6.47121e-06
-5.96135e-06
-5.53861e-06
-5.19379e-06
-4.91578e-06
-4.6929e-06
-4.51411e-06
-4.36967e-06
-4.25129e-06
-4.1527e-06
-4.07008e-06
-4.00377e-06
-3.95942e-06
-3.95208e-06
-4.00737e-06
-4.16628e-06
-4.47864e-06
-4.99071e-06
-5.64997e-06
-6.25992e-06
-6.67752e-06
-6.83269e-06
-6.69101e-06
-6.24188e-06
-5.48747e-06
-4.43851e-06
-3.11366e-06
-1.54073e-06
2.4213e-07
2.18588e-06
4.23063e-06
6.30577e-06
8.32904e-06
1.02036e-05
1.18113e-05
1.30007e-05
1.357e-05
1.32539e-05
1.17325e-05
8.7686e-06
4.61378e-06
-8.48904e-06
-8.08341e-06
-7.54009e-06
-6.96797e-06
-6.41903e-06
-5.93217e-06
-5.51903e-06
-5.1767e-06
-4.89825e-06
-4.67413e-06
-4.49429e-06
-4.34943e-06
-4.23148e-06
-4.13422e-06
-4.05391e-06
-3.9909e-06
-3.9508e-06
-3.94836e-06
-4.00844e-06
-4.17051e-06
-4.48209e-06
-4.9866e-06
-5.63118e-06
-6.22374e-06
-6.62533e-06
-6.76781e-06
-6.6176e-06
-6.16468e-06
-5.41215e-06
-4.37241e-06
-3.06653e-06
-1.52546e-06
2.08911e-07
2.08316e-06
4.03229e-06
5.97967e-06
7.83615e-06
9.49773e-06
1.08413e-05
1.17185e-05
1.19542e-05
1.13563e-05
9.7569e-06
7.11581e-06
3.70865e-06
-8.13233e-06
-7.80834e-06
-7.36005e-06
-6.86951e-06
-6.37338e-06
-5.91251e-06
-5.51058e-06
-5.17068e-06
-4.89074e-06
-4.66378e-06
-4.48117e-06
-4.33431e-06
-4.21549e-06
-4.11864e-06
-4.04008e-06
-3.98017e-06
-3.94441e-06
-3.94712e-06
-4.01228e-06
-4.17756e-06
-4.48787e-06
-4.98335e-06
-5.61083e-06
-6.18336e-06
-6.56667e-06
-6.69487e-06
-6.53553e-06
-6.07947e-06
-5.33111e-06
-4.30486e-06
-3.02464e-06
-1.5249e-06
1.48394e-07
1.93732e-06
3.77205e-06
5.57099e-06
7.24057e-06
8.67464e-06
9.75382e-06
1.03483e-05
1.0324e-05
9.56667e-06
8.02141e-06
5.75568e-06
3.02243e-06
-7.80649e-06
-7.54511e-06
-7.1808e-06
-6.75801e-06
-6.31972e-06
-5.89508e-06
-5.5088e-06
-5.17449e-06
-4.89396e-06
-4.66361e-06
-4.47694e-06
-4.32659e-06
-4.20551e-06
-4.10795e-06
-4.03039e-06
-3.97319e-06
-3.9417e-06
-3.94969e-06
-4.02008e-06
-4.18846e-06
-4.49674e-06
-4.98138e-06
-5.58888e-06
-6.13837e-06
-6.50088e-06
-6.61311e-06
-6.4442e-06
-5.98613e-06
-5.24505e-06
-4.23779e-06
-2.99145e-06
-1.54426e-06
5.37062e-08
1.74035e-06
3.44199e-06
5.07413e-06
6.54257e-06
7.74516e-06
8.57526e-06
8.92928e-06
8.71911e-06
7.89447e-06
6.46941e-06
4.54915e-06
2.3394e-06
-7.49133e-06
-7.27964e-06
-6.98579e-06
-6.63214e-06
-6.24978e-06
-5.86588e-06
-5.50516e-06
-5.18248e-06
-4.90488e-06
-4.67262e-06
-4.48198e-06
-4.32746e-06
-4.20314e-06
-4.10393e-06
-4.02665e-06
-3.97173e-06
-3.94435e-06
-3.95764e-06
-4.03327e-06
-4.20438e-06
-4.50959e-06
-4.98117e-06
-5.56532e-06
-6.08837e-06
-6.42736e-06
-6.522e-06
-6.34338e-06
-5.88515e-06
-5.15559e-06
-4.17431e-06
-2.97181e-06
-1.59012e-06
-8.30889e-08
1.48394e-06
3.03519e-06
4.48624e-06
5.74673e-06
6.72438e-06
7.33126e-06
7.49327e-06
7.16271e-06
6.33334e-06
5.05292e-06
3.42824e-06
1.61618e-06
-7.17666e-06
-7.00535e-06
-6.76949e-06
-6.47935e-06
-6.15435e-06
-5.81697e-06
-5.48868e-06
-5.18528e-06
-4.91655e-06
-4.68625e-06
-4.49377e-06
-4.33594e-06
-4.20849e-06
-4.10739e-06
-4.03009e-06
-3.97725e-06
-3.95395e-06
-3.97255e-06
-4.0533e-06
-4.22659e-06
-4.52735e-06
-4.98318e-06
-5.54014e-06
-6.03303e-06
-6.34573e-06
-6.4214e-06
-6.23359e-06
-5.77809e-06
-5.06576e-06
-4.11923e-06
-2.97241e-06
-1.67078e-06
-2.71083e-07
1.15964e-06
2.546e-06
3.80714e-06
4.86086e-06
5.62914e-06
6.04529e-06
6.06266e-06
5.66382e-06
4.868e-06
3.73397e-06
2.35542e-06
8.48774e-07
-6.85598e-06
-6.71853e-06
-6.53069e-06
-6.29642e-06
-6.027e-06
-5.73865e-06
-5.44865e-06
-5.17189e-06
-4.91918e-06
-4.69674e-06
-4.50669e-06
-4.34838e-06
-4.21948e-06
-4.11746e-06
-4.04072e-06
-3.99036e-06
-3.97146e-06
-3.99556e-06
-4.08134e-06
-4.2561e-06
-4.55077e-06
-4.98782e-06
-5.51333e-06
-5.97218e-06
-6.25605e-06
-6.31197e-06
-6.11642e-06
-5.66795e-06
-4.98034e-06
-4.07928e-06
-3.00177e-06
-1.79587e-06
-5.19814e-07
7.59811e-07
1.97088e-06
3.03955e-06
3.89514e-06
4.47595e-06
4.73577e-06
4.65003e-06
4.22087e-06
3.47911e-06
2.48208e-06
1.30634e-06
3.74901e-08
-6.52343e-06
-6.41548e-06
-6.2682e-06
-6.08254e-06
-5.86447e-06
-5.62476e-06
-5.37644e-06
-5.13219e-06
-4.90246e-06
-4.69465e-06
-4.51288e-06
-4.35869e-06
-4.23179e-06
-4.13132e-06
-4.05691e-06
-4.01034e-06
-3.99678e-06
-4.02695e-06
-4.11785e-06
-4.29337e-06
-4.58015e-06
-4.99521e-06
-5.48495e-06
-5.90606e-06
-6.15916e-06
-6.19556e-06
-5.99515e-06
-5.55974e-06
-4.90631e-06
-4.06336e-06
-3.07012e-06
-1.9759e-06
-8.38504e-07
2.78439e-07
1.30893e-06
2.18887e-06
2.86087e-06
3.27936e-06
3.41536e-06
3.25993e-06
2.82591e-06
2.14679e-06
1.2728e-06
2.6408e-07
-8.16432e-07
-6.17298e-06
-6.09173e-06
-5.97967e-06
-5.83645e-06
-5.66491e-06
-5.47176e-06
-5.26625e-06
-5.05838e-06
-4.85739e-06
-4.67073e-06
-4.50367e-06
-4.35937e-06
-4.23933e-06
-4.14433e-06
-4.07534e-06
-4.03493e-06
-4.02846e-06
-4.06583e-06
-4.16221e-06
-4.33794e-06
-4.61511e-06
-5.00519e-06
-5.45531e-06
-5.83568e-06
-6.05725e-06
-6.07601e-06
-5.87539e-06
-5.46104e-06
-4.85321e-06
-4.08247e-06
-3.18896e-06
-2.22145e-06
-1.23503e-06
-2.8793e-07
5.62288e-07
1.26281e-06
1.76964e-06
2.05131e-06
2.0918e-06
1.89181e-06
1.46851e-06
8.53141e-07
8.70887e-08
-7.83502e-07
-1.71223e-06
-5.79852e-06
-5.74223e-06
-5.66168e-06
-5.5561e-06
-5.42662e-06
-5.2772e-06
-5.11411e-06
-4.9448e-06
-4.77684e-06
-4.61704e-06
-4.47097e-06
-4.34277e-06
-4.23531e-06
-4.1508e-06
-4.09141e-06
-4.06054e-06
-4.06373e-06
-4.11005e-06
-4.2127e-06
-4.3884e-06
-4.65457e-06
-5.01738e-06
-5.42534e-06
-5.76354e-06
-5.95474e-06
-5.95984e-06
-5.76565e-06
-5.38229e-06
-4.83301e-06
-4.1492e-06
-3.37011e-06
-2.54183e-06
-1.71458e-06
-9.39177e-07
-2.63426e-07
2.71314e-07
6.33148e-07
8.01859e-07
7.69979e-07
5.43176e-07
1.38972e-07
-4.15895e-07
-1.08868e-06
-1.84451e-06
-2.64914e-06
-5.39387e-06
-5.36158e-06
-5.3101e-06
-5.23866e-06
-5.14755e-06
-5.03903e-06
-4.91718e-06
-4.78736e-06
-4.6554e-06
-4.52712e-06
-4.40777e-06
-4.30188e-06
-4.21312e-06
-4.14475e-06
-4.09994e-06
-4.08278e-06
-4.09885e-06
-4.15647e-06
-4.26662e-06
-4.4426e-06
-4.69701e-06
-5.0315e-06
-5.39684e-06
-5.6942e-06
-5.8592e-06
-5.85698e-06
-5.67758e-06
-5.33652e-06
-4.85939e-06
-4.27647e-06
-3.62403e-06
-2.94343e-06
-2.27824e-06
-1.67071e-06
-1.15869e-06
-7.73127e-07
-5.36141e-07
-4.59439e-07
-5.45752e-07
-7.87612e-07
-1.16933e-06
-1.66931e-06
-2.26244e-06
-2.92272e-06
-3.62487e-06
-4.95216e-06
-4.94373e-06
-4.92001e-06
-4.88048e-06
-4.82509e-06
-4.75511e-06
-4.67318e-06
-4.58306e-06
-4.48911e-06
-4.396e-06
-4.30835e-06
-4.23055e-06
-4.1666e-06
-4.12035e-06
-4.09559e-06
-4.09687e-06
-4.12961e-06
-4.20131e-06
-4.32079e-06
-4.49821e-06
-4.74107e-06
-5.04803e-06
-5.37294e-06
-5.63486e-06
-5.78192e-06
-5.77995e-06
-5.6248e-06
-5.3383e-06
-4.94626e-06
-4.47558e-06
-3.95774e-06
-3.42784e-06
-2.92176e-06
-2.47298e-06
-2.11017e-06
-1.85546e-06
-1.7236e-06
-1.72188e-06
-1.84952e-06
-2.09926e-06
-2.45837e-06
-2.91025e-06
-3.43617e-06
-4.017e-06
-4.63412e-06
-4.46596e-06
-4.48207e-06
-4.48592e-06
-4.47729e-06
-4.45611e-06
-4.42316e-06
-4.3802e-06
-4.32982e-06
-4.27526e-06
-4.22015e-06
-4.16835e-06
-4.12381e-06
-4.09044e-06
-4.07219e-06
-4.07317e-06
-4.09787e-06
-4.15161e-06
-4.24055e-06
-4.37205e-06
-4.55288e-06
-4.78664e-06
-5.06899e-06
-5.35987e-06
-5.59683e-06
-5.73538e-06
-5.74031e-06
-5.62203e-06
-5.40336e-06
-5.10689e-06
-4.75515e-06
-4.37394e-06
-3.99144e-06
-3.63574e-06
-3.33226e-06
-3.10191e-06
-2.96005e-06
-2.91613e-06
-2.97445e-06
-3.13353e-06
-3.38719e-06
-3.72563e-06
-4.13661e-06
-4.60653e-06
-5.12154e-06
-5.66809e-06
-3.92915e-06
-3.97122e-06
-4.0034e-06
-4.02573e-06
-4.03834e-06
-4.04182e-06
-4.03742e-06
-4.027e-06
-4.01295e-06
-3.99807e-06
-3.9855e-06
-3.97858e-06
-3.98089e-06
-3.9961e-06
-4.02824e-06
-4.08144e-06
-4.16061e-06
-4.27067e-06
-4.41743e-06
-4.60498e-06
-4.83486e-06
-5.10102e-06
-5.36966e-06
-5.58929e-06
-5.72187e-06
-5.75038e-06
-5.68569e-06
-5.54682e-06
-5.35201e-06
-5.11985e-06
-4.87075e-06
-4.62622e-06
-4.40721e-06
-4.23234e-06
-4.11656e-06
-4.07021e-06
-4.09894e-06
-4.20583e-06
-4.38953e-06
-4.64532e-06
-4.96609e-06
-5.34318e-06
-5.76703e-06
-6.22784e-06
-6.71585e-06
-3.33946e-06
-3.40973e-06
-3.47184e-06
-3.52613e-06
-3.57303e-06
-3.61316e-06
-3.64752e-06
-3.67752e-06
-3.70499e-06
-3.73208e-06
-3.7613e-06
-3.79543e-06
-3.8375e-06
-3.89077e-06
-3.95876e-06
-4.04521e-06
-4.1541e-06
-4.2896e-06
-4.45551e-06
-4.65482e-06
-4.88731e-06
-5.14813e-06
-5.40527e-06
-5.61549e-06
-5.7573e-06
-5.82599e-06
-5.82813e-06
-5.77613e-06
-5.68389e-06
-5.56642e-06
-5.43949e-06
-5.31899e-06
-5.21988e-06
-5.1552e-06
-5.13534e-06
-5.16763e-06
-5.25663e-06
-5.40356e-06
-5.60727e-06
-5.86468e-06
-6.17111e-06
-6.5208e-06
-6.90728e-06
-7.32379e-06
-7.76346e-06
-2.69545e-06
-2.79695e-06
-2.89167e-06
-2.98014e-06
-3.06302e-06
-3.14111e-06
-3.21532e-06
-3.28683e-06
-3.35706e-06
-3.42773e-06
-3.50083e-06
-3.5786e-06
-3.66356e-06
-3.7584e-06
-3.86606e-06
-3.98962e-06
-4.13226e-06
-4.29713e-06
-4.48693e-06
-4.70349e-06
-4.94637e-06
-5.21114e-06
-5.46978e-06
-5.68866e-06
-5.85796e-06
-5.97791e-06
-6.05198e-06
-6.08717e-06
-6.09322e-06
-6.08149e-06
-6.06378e-06
-6.05148e-06
-6.05489e-06
-6.08277e-06
-6.14219e-06
-6.23873e-06
-6.37599e-06
-6.55471e-06
-6.77427e-06
-7.03291e-06
-7.32785e-06
-7.6555e-06
-8.01171e-06
-8.39198e-06
-8.7916e-06
-2.00634e-06
-2.14109e-06
-2.27054e-06
-2.3952e-06
-2.51587e-06
-2.63346e-06
-2.7489e-06
-2.8632e-06
-2.97752e-06
-3.09322e-06
-3.21189e-06
-3.3353e-06
-3.46544e-06
-3.60447e-06
-3.75467e-06
-3.91845e-06
-4.09821e-06
-4.29628e-06
-4.5146e-06
-4.75438e-06
-5.01542e-06
-5.29495e-06
-5.57049e-06
-5.81617e-06
-6.02646e-06
-6.20267e-06
-6.34706e-06
-6.46386e-06
-6.55946e-06
-6.6417e-06
-6.71882e-06
-6.79868e-06
-6.88832e-06
-6.99369e-06
-7.1194e-06
-7.26865e-06
-7.44406e-06
-7.64741e-06
-7.87914e-06
-8.13858e-06
-8.42426e-06
-8.73414e-06
-9.06573e-06
-9.41623e-06
-9.78258e-06
-1.35803e-06
-1.5269e-06
-1.69145e-06
-1.85228e-06
-2.01027e-06
-2.16636e-06
-2.32143e-06
-2.47639e-06
-2.63221e-06
-2.79003e-06
-2.95112e-06
-3.11691e-06
-3.28897e-06
-3.46899e-06
-3.65876e-06
-3.86013e-06
-4.07494e-06
-4.30496e-06
-4.55175e-06
-4.81645e-06
-5.09959e-06
-5.40079e-06
-5.70235e-06
-5.98175e-06
-6.23402e-06
-6.46063e-06
-6.66354e-06
-6.84587e-06
-7.01196e-06
-7.16706e-06
-7.31668e-06
-7.46612e-06
-7.62009e-06
-7.78256e-06
-7.95687e-06
-8.14597e-06
-8.35204e-06
-8.57628e-06
-8.81928e-06
-9.08108e-06
-9.36121e-06
-9.6587e-06
-9.97227e-06
-1.03003e-05
-1.0641e-05
-8.25317e-07
-1.02447e-06
-1.22021e-06
-1.41307e-06
-1.60384e-06
-1.79336e-06
-1.98245e-06
-2.1719e-06
-2.3626e-06
-2.55547e-06
-2.75159e-06
-2.95215e-06
-3.15841e-06
-3.37175e-06
-3.59361e-06
-3.82547e-06
-4.06885e-06
-4.32525e-06
-4.59612e-06
-4.88279e-06
-5.18651e-06
-5.5085e-06
-5.83345e-06
-6.14023e-06
-6.42421e-06
-6.68708e-06
-6.93082e-06
-7.15804e-06
-7.37199e-06
-7.57635e-06
-7.77493e-06
-7.97142e-06
-8.16917e-06
-8.37123e-06
-8.58032e-06
-8.79871e-06
-9.02792e-06
-9.26891e-06
-9.52232e-06
-9.78848e-06
-1.00674e-05
-1.03587e-05
-1.06619e-05
-1.0976e-05
-1.13e-05
-4.33963e-07
-6.57933e-07
-8.79043e-07
-1.09782e-06
-1.31496e-06
-1.53121e-06
-1.74725e-06
-1.96379e-06
-2.18157e-06
-2.40142e-06
-2.62424e-06
-2.85102e-06
-3.08285e-06
-3.32086e-06
-3.56628e-06
-3.82035e-06
-4.08442e-06
-4.35985e-06
-4.64808e-06
-4.95061e-06
-5.26907e-06
-5.60523e-06
-5.94513e-06
-6.26907e-06
-6.57292e-06
-6.85858e-06
-7.12805e-06
-7.38365e-06
-7.62798e-06
-7.86378e-06
-8.09387e-06
-8.32095e-06
-8.54753e-06
-8.77591e-06
-9.0081e-06
-9.24571e-06
-9.49014e-06
-9.74238e-06
-1.00031e-05
-1.02728e-05
-1.05516e-05
-1.08396e-05
-1.11365e-05
-1.14419e-05
-1.17552e-05
-1.49128e-07
-3.9387e-07
-6.36071e-07
-8.76206e-07
-1.11489e-06
-1.35273e-06
-1.59034e-06
-1.8283e-06
-2.06727e-06
-2.30794e-06
-2.55111e-06
-2.79763e-06
-3.04841e-06
-3.30444e-06
-3.56678e-06
-3.83654e-06
-4.11492e-06
-4.40321e-06
-4.70281e-06
-5.01525e-06
-5.34224e-06
-5.68563e-06
-6.03263e-06
-6.36526e-06
-6.68e-06
-6.97887e-06
-7.26383e-06
-7.53692e-06
-7.80028e-06
-8.05608e-06
-8.30647e-06
-8.55353e-06
-8.79917e-06
-9.04515e-06
-9.29302e-06
-9.54411e-06
-9.79965e-06
-1.00605e-05
-1.03274e-05
-1.06009e-05
-1.08812e-05
-1.11685e-05
-1.14627e-05
-1.17637e-05
-1.20712e-05
5.24643e-08
-2.09635e-07
-4.693e-07
-7.26951e-07
-9.83116e-07
-1.23831e-06
-1.49304e-06
-1.7478e-06
-2.00316e-06
-2.25973e-06
-2.5182e-06
-2.77929e-06
-3.04382e-06
-3.31265e-06
-3.5867e-06
-3.86697e-06
-4.15458e-06
-4.4507e-06
-4.75668e-06
-5.07396e-06
-5.40421e-06
-5.74919e-06
-6.09734e-06
-6.43257e-06
-6.75199e-06
-7.05759e-06
-7.35116e-06
-7.63449e-06
-7.90938e-06
-8.17764e-06
-8.44096e-06
-8.70101e-06
-8.9593e-06
-9.21725e-06
-9.47611e-06
-9.73696e-06
-1.00009e-05
-1.02687e-05
-1.0541e-05
-1.08183e-05
-1.11009e-05
-1.13892e-05
-1.16831e-05
-1.19826e-05
-1.22876e-05
1.91331e-07
-8.5168e-08
-3.59189e-07
-6.31109e-07
-9.01373e-07
-1.17041e-06
-1.43863e-06
-1.70646e-06
-1.9744e-06
-2.24298e-06
-2.5128e-06
-2.7845e-06
-3.05879e-06
-3.33643e-06
-3.61825e-06
-3.90516e-06
-4.19816e-06
-4.49834e-06
-4.80695e-06
-5.12531e-06
-5.45502e-06
-5.79767e-06
-6.14296e-06
-6.47681e-06
-6.79682e-06
-7.10481e-06
-7.40238e-06
-7.6911e-06
-7.97255e-06
-8.24824e-06
-8.5196e-06
-8.78798e-06
-9.05463e-06
-9.32071e-06
-9.58731e-06
-9.85539e-06
-1.01258e-05
-1.03991e-05
-1.06761e-05
-1.09572e-05
-1.12427e-05
-1.15329e-05
-1.1828e-05
-1.2128e-05
-1.24327e-05
2.84625e-07
-3.81989e-09
-2.89645e-07
-5.73183e-07
-8.54807e-07
-1.13486e-06
-1.41369e-06
-1.69166e-06
-1.96921e-06
-2.24681e-06
-2.52498e-06
-2.8043e-06
-3.08538e-06
-3.36891e-06
-3.65564e-06
-3.94638e-06
-4.24204e-06
-4.54362e-06
-4.85228e-06
-5.1692e-06
-5.49589e-06
-5.83375e-06
-6.17375e-06
-6.50374e-06
-6.82172e-06
-7.12927e-06
-7.42779e-06
-7.71871e-06
-8.00343e-06
-8.28326e-06
-8.55941e-06
-8.83301e-06
-9.10513e-06
-9.37675e-06
-9.64878e-06
-9.92225e-06
-1.01976e-05
-1.04756e-05
-1.07566e-05
-1.10413e-05
-1.13299e-05
-1.16228e-05
-1.192e-05
-1.22217e-05
-1.25279e-05
3.4557e-07
4.71835e-08
-2.48374e-07
-5.41398e-07
-8.32191e-07
-1.12103e-06
-1.40821e-06
-1.69405e-06
-1.97894e-06
-2.26329e-06
-2.54757e-06
-2.83229e-06
-3.118e-06
-3.40532e-06
-3.69493e-06
-3.98755e-06
-4.28403e-06
-4.58526e-06
-4.8923e-06
-5.20623e-06
-5.52843e-06
-5.86015e-06
-6.19352e-06
-6.51823e-06
-6.8326e-06
-7.13794e-06
-7.4355e-06
-7.7266e-06
-8.01249e-06
-8.2943e-06
-8.5731e-06
-8.84986e-06
-9.12553e-06
-9.40094e-06
-9.67689e-06
-9.95428e-06
-1.02335e-05
-1.05152e-05
-1.07999e-05
-1.10879e-05
-1.13797e-05
-1.16756e-05
-1.19756e-05
-1.22799e-05
-1.25885e-05
3.84061e-07
7.73676e-08
-2.2625e-07
-5.27049e-07
-8.25272e-07
-1.12115e-06
-1.41492e-06
-1.70689e-06
-1.9974e-06
-2.28681e-06
-2.57554e-06
-2.86406e-06
-3.15286e-06
-3.44251e-06
-3.73361e-06
-4.02683e-06
-4.32294e-06
-4.62274e-06
-4.92719e-06
-5.23728e-06
-5.55426e-06
-5.87921e-06
-6.20539e-06
-6.52416e-06
-6.83406e-06
-7.13618e-06
-7.43167e-06
-7.72173e-06
-8.00747e-06
-8.28991e-06
-8.56997e-06
-8.84853e-06
-9.12643e-06
-9.40443e-06
-9.6832e-06
-9.96354e-06
-1.02459e-05
-1.05307e-05
-1.08185e-05
-1.11097e-05
-1.14046e-05
-1.17036e-05
-1.20066e-05
-1.2314e-05
-1.26258e-05
4.0735e-07
9.36777e-08
-2.16655e-07
-5.23867e-07
-8.28152e-07
-1.1297e-06
-1.42873e-06
-1.72551e-06
-2.02034e-06
-2.31357e-06
-2.60557e-06
-2.89675e-06
-3.18758e-06
-3.47856e-06
-3.77026e-06
-4.06327e-06
-4.35829e-06
-4.65605e-06
-4.95743e-06
-5.26329e-06
-5.57482e-06
-5.89289e-06
-6.21182e-06
-6.52448e-06
-6.82955e-06
-7.12797e-06
-7.4208e-06
-7.70914e-06
-7.99397e-06
-8.27621e-06
-8.55667e-06
-8.83615e-06
-9.11538e-06
-9.39503e-06
-9.67595e-06
-9.95858e-06
-1.02434e-05
-1.05308e-05
-1.08214e-05
-1.11155e-05
-1.14134e-05
-1.17154e-05
-1.20217e-05
-1.23324e-05
-1.26475e-05
4.20615e-07
1.01036e-07
-2.14936e-07
-5.27485e-07
-8.36763e-07
-1.14293e-06
-1.4462e-06
-1.74681e-06
-2.04502e-06
-2.34116e-06
-2.63557e-06
-2.92863e-06
-3.22077e-06
-3.51244e-06
-3.80416e-06
-4.09648e-06
-4.39003e-06
-4.68548e-06
-4.98362e-06
-5.28521e-06
-5.59135e-06
-5.90274e-06
-6.21468e-06
-6.52135e-06
-6.82157e-06
-7.11616e-06
-7.40611e-06
-7.6924e-06
-7.97591e-06
-8.25746e-06
-8.5378e-06
-8.81766e-06
-9.09768e-06
-9.37848e-06
-9.66089e-06
-9.94531e-06
-1.02321e-05
-1.05218e-05
-1.08148e-05
-1.11116e-05
-1.14123e-05
-1.17173e-05
-1.20267e-05
-1.23407e-05
-1.26593e-05
4.27445e-07
1.02822e-07
-2.17932e-07
-5.34968e-07
-8.48408e-07
-1.1584e-06
-1.46513e-06
-1.76882e-06
-2.06973e-06
-2.36813e-06
-2.66435e-06
-2.95875e-06
-3.25171e-06
-3.54366e-06
-3.83507e-06
-4.12645e-06
-4.41838e-06
-4.71144e-06
-5.00638e-06
-5.30383e-06
-5.60484e-06
-5.90995e-06
-6.21534e-06
-6.51632e-06
-6.81188e-06
-7.10272e-06
-7.38977e-06
-7.67391e-06
-7.95591e-06
-8.23652e-06
-8.51644e-06
-8.79633e-06
-9.0768e-06
-9.35835e-06
-9.64184e-06
-9.9277e-06
-1.02162e-05
-1.05078e-05
-1.08029e-05
-1.1102e-05
-1.14053e-05
-1.17131e-05
-1.20255e-05
-1.23427e-05
-1.26648e-05
4.3025e-07
1.01284e-07
-2.23564e-07
-5.44413e-07
-8.61366e-07
-1.17456e-06
-1.48417e-06
-1.79039e-06
-2.09347e-06
-2.39367e-06
-2.69129e-06
-2.98666e-06
-3.28013e-06
-3.57212e-06
-3.86305e-06
-4.15338e-06
-4.44366e-06
-4.73439e-06
-5.02627e-06
-5.31985e-06
-5.61608e-06
-5.91539e-06
-6.21474e-06
-6.51045e-06
-6.80163e-06
-7.08894e-06
-7.3732e-06
-7.65519e-06
-7.93564e-06
-8.21521e-06
-8.49454e-06
-8.77426e-06
-9.05486e-06
-9.33697e-06
-9.6213e-06
-9.90833e-06
-1.01982e-05
-1.04914e-05
-1.07884e-05
-1.10896e-05
-1.13953e-05
-1.17056e-05
-1.20208e-05
-1.2341e-05
-1.26664e-05
4.30611e-07
9.78731e-08
-2.30511e-07
-5.54635e-07
-8.74592e-07
-1.19051e-06
-1.50254e-06
-1.81088e-06
-2.11575e-06
-2.41741e-06
-2.71612e-06
-3.01221e-06
-3.30601e-06
-3.59789e-06
-3.88825e-06
-4.17753e-06
-4.4662e-06
-4.75474e-06
-5.04377e-06
-5.33378e-06
-5.62564e-06
-5.91966e-06
-6.21351e-06
-6.50439e-06
-6.79155e-06
-7.07558e-06
-7.35723e-06
-7.63719e-06
-7.91611e-06
-8.19462e-06
-8.4733e-06
-8.75275e-06
-9.03344e-06
-9.31573e-06
-9.60082e-06
-9.8888e-06
-1.01798e-05
-1.04744e-05
-1.07731e-05
-1.10761e-05
-1.13839e-05
-1.16965e-05
-1.20143e-05
-1.23373e-05
-1.26656e-05
4.29537e-07
9.35001e-08
-2.37962e-07
-5.64928e-07
-8.87477e-07
-1.20573e-06
-1.51983e-06
-1.82997e-06
-2.13634e-06
-2.4392e-06
-2.7388e-06
-3.03544e-06
-3.32944e-06
-3.62114e-06
-3.91092e-06
-4.19917e-06
-4.48633e-06
-4.77285e-06
-5.05927e-06
-5.34604e-06
-5.63392e-06
-5.92317e-06
-6.21204e-06
-6.49854e-06
-6.78204e-06
-7.06307e-06
-7.34231e-06
-7.62038e-06
-7.89786e-06
-8.17533e-06
-8.45335e-06
-8.73249e-06
-9.01303e-06
-9.29553e-06
-9.58131e-06
-9.86999e-06
-1.01619e-05
-1.04577e-05
-1.07578e-05
-1.10625e-05
-1.13721e-05
-1.16869e-05
-1.20069e-05
-1.23324e-05
-1.26635e-05
4.27666e-07
8.87323e-08
-2.45425e-07
-5.74869e-07
-8.99673e-07
-1.21995e-06
-1.53584e-06
-1.84751e-06
-2.15517e-06
-2.45904e-06
-2.75937e-06
-3.05645e-06
-3.35056e-06
-3.64205e-06
-3.93125e-06
-4.21854e-06
-4.50432e-06
-4.78899e-06
-5.07305e-06
-5.35688e-06
-5.64119e-06
-5.92616e-06
-6.21056e-06
-6.49311e-06
-6.77331e-06
-7.05163e-06
-7.32868e-06
-7.60501e-06
-7.88115e-06
-8.15765e-06
-8.43501e-06
-8.7138e-06
-8.99407e-06
-9.27695e-06
-9.56316e-06
-9.85235e-06
-1.01451e-05
-1.04419e-05
-1.07433e-05
-1.10494e-05
-1.13607e-05
-1.16772e-05
-1.19994e-05
-1.23271e-05
-1.26607e-05
4.25398e-07
8.39206e-08
-2.52595e-07
-5.84205e-07
-9.10974e-07
-1.23301e-06
-1.55045e-06
-1.86344e-06
-2.1722e-06
-2.47693e-06
-2.77787e-06
-3.07529e-06
-3.36948e-06
-3.66074e-06
-3.9494e-06
-4.2358e-06
-4.52032e-06
-4.80333e-06
-5.08527e-06
-5.36649e-06
-5.64762e-06
-5.92876e-06
-6.20917e-06
-6.4882e-06
-6.76546e-06
-7.04136e-06
-7.31643e-06
-7.59119e-06
-7.86611e-06
-8.14171e-06
-8.41845e-06
-8.69684e-06
-8.97697e-06
-9.26009e-06
-9.54655e-06
-9.83621e-06
-1.01296e-05
-1.04274e-05
-1.07298e-05
-1.10372e-05
-1.13499e-05
-1.16681e-05
-1.1992e-05
-1.23218e-05
-1.26575e-05
4.22928e-07
7.91957e-08
-2.59402e-07
-5.92916e-07
-9.2141e-07
-1.24498e-06
-1.56376e-06
-1.87791e-06
-2.18761e-06
-2.49307e-06
-2.79453e-06
-3.09223e-06
-3.38646e-06
-3.6775e-06
-3.96566e-06
-4.25125e-06
-4.53464e-06
-4.81616e-06
-5.09621e-06
-5.37509e-06
-5.65339e-06
-5.93111e-06
-6.20792e-06
-6.48379e-06
-6.75842e-06
-7.03216e-06
-7.30546e-06
-7.5788e-06
-7.85262e-06
-8.1274e-06