/*--------------------------------*- C++ -*----------------------------------*\
| =========                 |                                                 |
| \\      /  F ield         | OpenFOAM: The Open Source CFD Toolbox           |
|  \\    /   O peration     | Version:  2312                                  |
|   \\  /    A nd           | Website:  www.openfoam.com                      |
|    \\/     M anipulation  |                                                 |
\*---------------------------------------------------------------------------*/
FoamFile
{
    version     2.0;
    format      ascii;
    arch        "LSB;label=32;scalar=64";
    class       volVectorField;
    location    "3";
    object      U;
}
// * * * * * * * * * * * * * * * * * * * * * * * * * * * * * * * * * * * * * //

dimensions      [0 1 -1 0 0 0 0];

internalField   nonuniform List<vector> 
4800
(
(0.000462137 3.12215e-07 -2.67423e-26)
(0.000454496 3.42456e-07 -1.87989e-25)
(0.000449899 3.53951e-07 2.41277e-25)
(0.000447327 3.44499e-07 1.10385e-25)
(0.000446183 3.26693e-07 1.6304e-24)
(0.000446214 2.94313e-07 -3.88319e-24)
(0.000447169 2.54873e-07 3.63765e-24)
(0.000448955 1.78411e-07 -5.2813e-24)
(0.000451654 2.24527e-08 1.69323e-24)
(0.000455446 -2.42154e-07 5.77899e-24)
(0.000460737 -7.53657e-07 -1.78083e-24)
(0.000468808 -2.15734e-06 -1.50794e-25)
(0.000486863 -7.32397e-06 -2.17322e-24)
(0.000532744 -2.81819e-05 1.01106e-24)
(0.000608617 -9.16327e-05 -8.03858e-25)
(0.00142896 1.62968e-06 -8.5083e-26)
(0.0014056 1.17826e-06 1.06045e-25)
(0.0013913 8.18192e-07 -9.77938e-25)
(0.00138304 4.91867e-07 7.30711e-25)
(0.00137903 1.75269e-07 2.34819e-24)
(0.00137846 -1.69198e-07 -3.72849e-24)
(0.00138052 -5.64641e-07 -1.06543e-24)
(0.00138498 -1.09064e-06 -2.55275e-25)
(0.00139205 -1.91666e-06 8.77435e-24)
(0.00140217 -3.24281e-06 -6.48348e-24)
(0.00141651 -5.70908e-06 7.05749e-25)
(0.00143783 -1.1556e-05 1.07658e-24)
(0.00147497 -2.84234e-05 -1.59265e-24)
(0.00153863 -7.97425e-05 -4.82541e-25)
(0.00160724 -0.000195336 2.08349e-24)
(0.00249766 5.24068e-06 -6.09134e-26)
(0.00245744 3.78289e-06 6.22417e-26)
(0.00243247 2.65033e-06 6.40119e-25)
(0.00241767 1.66641e-06 -1.52665e-24)
(0.00241004 6.89947e-07 1.49883e-24)
(0.0024081 -3.76009e-07 1.39762e-24)
(0.0024105 -1.61006e-06 -3.61154e-24)
(0.00241669 -3.23928e-06 -2.26653e-24)
(0.0024271 -5.62777e-06 5.44286e-24)
(0.00244197 -9.32263e-06 2.05331e-24)
(0.00246268 -1.58202e-05 -7.13896e-24)
(0.0024914 -2.91007e-05 -1.08359e-24)
(0.00253226 -5.86789e-05 3.05004e-24)
(0.00258407 -0.000123786 4.82839e-24)
(0.00262177 -0.000231927 -2.49478e-24)
(0.00367422 1.17287e-05 2.2519e-26)
(0.00361631 8.57309e-06 -1.56813e-25)
(0.00357984 6.13022e-06 6.99477e-25)
(0.00355767 4.02256e-06 7.49065e-25)
(0.00354558 1.94984e-06 -7.43619e-25)
(0.00354129 -3.10164e-07 -4.22576e-24)
(0.00354311 -2.80558e-06 -2.86158e-24)
(0.00354979 -6.11796e-06 1.09447e-23)
(0.00356196 -1.08602e-05 4.56605e-24)
(0.00357927 -1.78516e-05 -6.55665e-24)
(0.00360254 -2.92482e-05 -2.64205e-24)
(0.00363219 -4.95848e-05 -2.01653e-24)
(0.00366751 -8.68423e-05 6.0285e-26)
(0.00370135 -0.000150942 1.49161e-24)
(0.0037155 -0.000236874 7.29148e-27)
(0.00496248 2.17224e-05 -4.13277e-26)
(0.0048868 1.60406e-05 -2.52784e-25)
(0.00483836 1.16505e-05 -1.6003e-25)
(0.00480817 7.88239e-06 4.32297e-25)
(0.00479086 4.23578e-06 -1.23029e-24)
(0.00478315 3.96115e-07 3.07058e-24)
(0.00478333 -4.04431e-06 -5.35757e-25)
(0.00478916 -9.39137e-06 1.88563e-24)
(0.00480116 -1.69812e-05 -1.05717e-23)
(0.00481828 -2.76e-05 2.00702e-23)
(0.00484036 -4.35166e-05 -1.94203e-23)
(0.00486612 -6.84637e-05 1.02508e-23)
(0.00489219 -0.000107269 -9.51452e-24)
(0.00491092 -0.000162965 8.97644e-24)
(0.00491197 -0.000227964 -3.57975e-24)
(0.00636258 3.59297e-05 5.46039e-26)
(0.00627037 2.68124e-05 1.955e-25)
(0.00621033 1.97737e-05 -1.03172e-24)
(0.00617193 1.37624e-05 -6.53707e-25)
(0.00614887 8.04572e-06 1.75299e-24)
(0.00613703 2.08071e-06 6.29534e-25)
(0.00613419 -4.53007e-06 -4.92081e-24)
(0.00613803 -1.24846e-05 1.17493e-23)
(0.00614792 -2.30225e-05 -1.53175e-23)
(0.00616245 -3.70474e-05 3.67178e-24)
(0.00618046 -5.6383e-05 1.11796e-23)
(0.00619967 -8.33123e-05 -1.55326e-23)
(0.00621624 -0.000119721 7.77825e-24)
(0.00622445 -0.000165071 7.97354e-24)
(0.00621959 -0.00021314 -6.06977e-24)
(0.00786874 5.48618e-05 4.51544e-26)
(0.00776349 4.14258e-05 -2.67098e-25)
(0.00769362 3.1037e-05 9.56747e-25)
(0.00764778 2.21972e-05 -1.32756e-24)
(0.00761906 1.39225e-05 -4.51392e-24)
(0.00760279 5.43602e-06 7.69586e-24)
(0.00759615 -3.74081e-06 -4.67574e-24)
(0.00759674 -1.44521e-05 1.59247e-23)
(0.00760305 -2.78095e-05 -1.08303e-23)
(0.00761324 -4.46274e-05 -5.06492e-24)
(0.0076255 -6.60227e-05 -9.96803e-24)
(0.00763736 -9.28999e-05 9.16436e-24)
(0.00764569 -0.000125244 2.57809e-24)
(0.00764701 -0.000161267 2.20548e-24)
(0.00763978 -0.000196807 -1.9407e-24)
(0.00946704 7.84289e-05 -6.50746e-26)
(0.00935543 6.00216e-05 8.83838e-25)
(0.00927964 4.57085e-05 -2.05786e-24)
(0.00922864 3.35438e-05 -1.68635e-24)
(0.00919545 2.22955e-05 6.30264e-25)
(0.00917522 1.10023e-05 1.24155e-24)
(0.00916474 -9.70473e-07 4.46147e-24)
(0.00916146 -1.43899e-05 -1.21606e-23)
(0.00916337 -3.0218e-05 -6.49527e-24)
(0.00916839 -4.90042e-05 1.78637e-23)
(0.0091745 -7.1185e-05 -5.53957e-24)
(0.00917949 -9.67204e-05 1.89419e-23)
(0.00918127 -0.00012475 -9.97202e-24)
(0.00917798 -0.000153475 -3.1778e-24)
(0.00916964 -0.000180378 1.88152e-24)
(0.0111343 0.000105401 -8.60219e-27)
(0.0110266 8.1917e-05 4.88532e-25)
(0.0109515 6.34394e-05 -6.95681e-25)
(0.0108996 4.7689e-05 1.6681e-24)
(0.0108646 3.32379e-05 -9.9508e-24)
(0.0108421 1.90137e-05 1.05076e-23)
(0.0108288 4.27589e-06 -1.65693e-23)
(0.010822 -1.16362e-05 1.01843e-23)
(0.0108197 -2.94193e-05 7.57849e-24)
(0.0108198 -4.93331e-05 1.64577e-23)
(0.0108204 -7.13262e-05 -2.14955e-23)
(0.0108199 -9.48974e-05 -3.97604e-24)
(0.0108169 -0.000119039 1.8355e-24)
(0.0108105 -0.000142402 1.31037e-23)
(0.0108015 -0.000163557 -5.32906e-24)
(0.012841 0.000132896 4.70809e-26)
(0.0127499 0.000105119 -2.04941e-25)
(0.0126842 8.28212e-05 9.16955e-25)
(0.0126375 6.36442e-05 -3.21671e-24)
(0.0126051 4.60928e-05 4.87735e-24)
(0.0125833 2.90798e-05 -6.29974e-24)
(0.0125693 1.18585e-05 1.05491e-23)
(0.0125606 -6.1157e-06 1.85138e-24)
(0.0125555 -2.52369e-05 -1.4545e-23)
(0.0125519 -4.55395e-05 2.07161e-23)
(0.0125486 -6.67234e-05 -2.28466e-23)
(0.0125443 -8.8185e-05 -6.72444e-24)
(0.0125384 -0.000109095 1.18603e-23)
(0.0125304 -0.000128595 3.51668e-24)
(0.0125211 -0.000145927 -1.536e-24)
(0.014561 0.000156505 1.87214e-25)
(0.0144976 0.000126177 -1.59285e-24)
(0.0144498 0.000101123 -2.56525e-24)
(0.0144149 7.92297e-05 6.07927e-24)
(0.01439 5.91254e-05 2.71993e-24)
(0.0143728 3.98258e-05 -1.70836e-23)
(0.0143611 2.06827e-05 5.26194e-24)
(0.014353 1.28761e-06 3.79025e-24)
(0.0143472 -1.84996e-05 -1.63942e-23)
(0.0143423 -3.85832e-05 1.70765e-23)
(0.0143372 -5.86078e-05 -1.36626e-23)
(0.0143313 -7.80644e-05 3.50956e-23)
(0.0143243 -9.63856e-05 -1.6867e-23)
(0.0143159 -0.000113095 9.92521e-24)
(0.0143071 -0.00012783 -2.70797e-24)
(0.0162874 0.000172009 -6.90746e-26)
(0.0162547 0.000141185 1.07357e-24)
(0.0162288 0.000114869 -2.11009e-24)
(0.0162096 9.13973e-05 -1.07527e-24)
(0.0161958 6.96731e-05 1.20087e-23)
(0.0161861 4.89233e-05 -1.74209e-24)
(0.0161794 2.86669e-05 -2.13627e-23)
(0.0161745 8.65918e-06 2.49196e-23)
(0.0161703 -1.1108e-05 -5.59891e-24)
(0.0161662 -3.04777e-05 -1.93738e-23)
(0.0161616 -4.91478e-05 2.06641e-23)
(0.0161561 -6.67715e-05 1.11369e-23)
(0.0161499 -8.30157e-05 -9.36899e-24)
(0.0161425 -9.76589e-05 -1.62176e-23)
(0.0161351 -0.000110561 1.36076e-24)
(0.0180396 0.000178425 -2.61962e-27)
(0.0180299 0.000148286 -1.19276e-24)
(0.0180222 0.000121843 5.71893e-24)
(0.0180168 9.78289e-05 3.70374e-25)
(0.0180135 7.544e-05 3.28063e-24)
(0.0180116 5.41403e-05 -1.17248e-23)
(0.0180106 3.36214e-05 1.00228e-23)
(0.0180096 1.37736e-05 2.28388e-24)
(0.0180084 -5.36459e-06 2.06127e-23)
(0.0180065 -2.3644e-05 -3.18435e-23)
(0.0180037 -4.0857e-05 -1.44112e-23)
(0.018 -5.68101e-05 -9.52173e-24)
(0.0179955 -7.13425e-05 1.79305e-23)
(0.0179901 -8.43862e-05 -5.15558e-25)
(0.0179846 -9.59212e-05 1.73725e-24)
(0.0198438 0.000179056 -1.77547e-26)
(0.0198446 0.000149526 1.21244e-24)
(0.019846 0.0001232 -1.76832e-24)
(0.0198481 9.90728e-05 -8.27802e-28)
(0.0198508 7.65505e-05 2.36793e-24)
(0.0198536 5.52736e-05 6.03957e-24)
(0.019856 3.50571e-05 -2.34216e-23)
(0.0198578 1.58476e-05 1.97324e-24)
(0.0198587 -2.31535e-06 1.19134e-23)
(0.0198586 -1.93476e-05 -5.48638e-24)
(0.0198576 -3.51424e-05 1.49809e-23)
(0.0198555 -4.9625e-05 1.0485e-23)
(0.0198528 -6.27497e-05 -1.90256e-23)
(0.0198492 -7.45346e-05 1.30099e-23)
(0.0198455 -8.50209e-05 -1.08157e-23)
(0.0216949 0.000177986 -5.27145e-25)
(0.021698 0.000148763 2.77211e-25)
(0.0217015 0.000122437 2.1006e-24)
(0.0217053 9.82419e-05 -1.09236e-23)
(0.0217092 7.57412e-05 9.63188e-24)
(0.0217128 5.46923e-05 -7.0604e-24)
(0.0217158 3.49685e-05 5.06007e-24)
(0.0217179 1.6522e-05 -3.59905e-23)
(0.0217193 -6.556e-07 5.19473e-23)
(0.0217196 -1.65481e-05 -3.06181e-23)
(0.0217191 -3.11415e-05 2.73517e-23)
(0.0217177 -4.4449e-05 2.28755e-23)
(0.0217159 -5.64971e-05 -3.99649e-23)
(0.0217133 -6.73502e-05 1.30022e-23)
(0.0217107 -7.70784e-05 -5.46259e-25)
(0.0235379 0.000176413 -1.86816e-26)
(0.0235421 0.000147796 -1.58166e-25)
(0.0235459 0.000121725 1.19661e-25)
(0.0235494 9.77074e-05 -3.01014e-25)
(0.0235526 7.54579e-05 3.92357e-24)
(0.0235554 5.4816e-05 -6.75211e-24)
(0.0235575 3.56839e-05 6.29088e-24)
(0.0235589 1.7997e-05 -1.99437e-23)
(0.0235596 1.70035e-06 4.54157e-23)
(0.0235594 -1.32522e-05 -5.81749e-23)
(0.0235587 -2.69157e-05 4.76838e-23)
(0.0235573 -3.93575e-05 -1.6109e-23)
(0.0235555 -5.06446e-05 8.37591e-25)
(0.0235531 -6.08636e-05 3.69583e-24)
(0.0235508 -7.00964e-05 -7.09061e-24)
(0.0252818 0.000173281 -1.54597e-24)
(0.025288 0.000145953 2.78502e-24)
(0.0252927 0.000120742 -9.3759e-25)
(0.0252964 9.74299e-05 -1.51113e-24)
(0.0252994 7.58674e-05 6.17387e-24)
(0.0253016 5.59526e-05 -6.29162e-24)
(0.0253032 3.76044e-05 -5.69125e-24)
(0.025304 2.07417e-05 -1.37738e-23)
(0.0253042 5.28423e-06 7.01055e-24)
(0.0253037 -8.85676e-06 3.35412e-23)
(0.0253027 -2.17733e-05 -1.77205e-23)
(0.0253011 -3.35572e-05 1.05776e-23)
(0.0252993 -4.42926e-05 -4.35318e-24)
(0.025297 -5.4073e-05 -1.29105e-23)
(0.0252947 -6.29812e-05 6.61041e-24)
(0.0268121 0.000167559 5.07412e-25)
(0.0268203 0.000142209 -8.81082e-25)
(0.0268263 0.000118515 -2.60747e-25)
(0.0268306 9.64869e-05 -7.32036e-25)
(0.0268339 7.60902e-05 -1.83591e-24)
(0.0268362 5.72633e-05 9.53575e-24)
(0.0268378 3.9936e-05 -7.68029e-24)
(0.0268385 2.4017e-05 -4.96199e-24)
(0.0268387 9.41515e-06 4.54552e-24)
(0.0268381 -3.97267e-06 -5.3692e-24)
(0.0268372 -1.62376e-05 1.25121e-23)
(0.0268357 -2.74774e-05 6.35365e-24)
(0.026834 -3.77812e-05 -2.37152e-23)
(0.0268319 -4.72397e-05 1.63897e-23)
(0.0268299 -5.59278e-05 -3.34381e-24)
(0.02798 0.000159107 1.49869e-24)
(0.0279898 0.000136278 2.52612e-24)
(0.0279969 0.000114659 -5.62729e-24)
(0.0280021 9.44197e-05 -2.93337e-25)
(0.028006 7.56093e-05 1.28501e-24)
(0.0280086 5.81979e-05 -2.90335e-24)
(0.0280104 4.21286e-05 -4.62834e-24)
(0.0280114 2.73117e-05 1.00313e-23)
(0.0280118 1.36599e-05 1.12084e-23)
(0.0280115 1.07016e-06 -2.72257e-23)
(0.0280108 -1.05411e-05 1.57053e-23)
(0.0280096 -2.12679e-05 -1.09854e-24)
(0.0280082 -3.11901e-05 -9.16291e-25)
(0.0280065 -4.03849e-05 1.23605e-24)
(0.0280047 -4.8913e-05 -5.70508e-25)
(0.0285835 0.000146519 -3.92824e-24)
(0.028595 0.000126646 -8.44462e-24)
(0.0286036 0.000107577 4.55714e-24)
(0.0286101 8.95704e-05 1.5369e-23)
(0.028615 7.2721e-05 -4.28712e-24)
(0.0286186 5.70302e-05 -1.18866e-24)
(0.0286212 4.24558e-05 5.46787e-25)
(0.028623 2.89277e-05 -4.51201e-24)
(0.028624 1.63719e-05 1.22105e-23)
(0.0286244 4.70671e-06 -5.39485e-24)
(0.0286242 -6.14236e-06 3.23172e-24)
(0.0286235 -1.62532e-05 -5.1113e-24)
(0.0286224 -2.56855e-05 -5.85509e-24)
(0.0286209 -3.4499e-05 8.77092e-24)
(0.0286192 -4.27401e-05 -3.83523e-24)
(0.0284063 0.000132451 6.22361e-24)
(0.0284184 0.000115525 -1.4295e-23)
(0.0284277 9.90734e-05 2.3448e-24)
(0.0284348 8.33809e-05 2.05887e-23)
(0.0284404 6.85617e-05 -1.99551e-23)
(0.0284447 5.46397e-05 6.92834e-24)
(0.0284479 4.15852e-05 4.43741e-24)
(0.0284503 2.9351e-05 -9.98594e-24)
(0.0284518 1.78786e-05 2.37967e-24)
(0.0284528 7.118e-06 1.07082e-24)
(0.0284531 -2.98213e-06 -1.03083e-24)
(0.028453 -1.24555e-05 2.151e-24)
(0.0284523 -2.13423e-05 -2.63704e-24)
(0.0284514 -2.96939e-05 1.78902e-24)
(0.02845 -3.75512e-05 -8.30226e-25)
(0.027479 0.000117132 3.85971e-24)
(0.0274919 0.000102923 -8.13944e-24)
(0.0275019 8.89798e-05 -5.59578e-24)
(0.0275096 7.55577e-05 2.6294e-23)
(0.0275155 6.27726e-05 -2.41188e-23)
(0.02752 5.06508e-05 2.58028e-24)
(0.0275232 3.91802e-05 4.0235e-24)
(0.0275255 2.83258e-05 2.15521e-24)
(0.0275269 1.80553e-05 1.66974e-24)
(0.0275276 8.33358e-06 -7.58504e-24)
(0.0275276 -8.61086e-07 4.87992e-24)
(0.0275272 -9.56015e-06 7.35343e-25)
(0.0275263 -1.77938e-05 -1.6984e-24)
(0.027525 -2.55936e-05 9.33232e-25)
(0.0275233 -3.29831e-05 5.97851e-25)
(0.0260022 0.00010191 9.6002e-24)
(0.0260153 9.00717e-05 -1.70429e-23)
(0.0260259 7.83641e-05 3.4803e-24)
(0.0260344 6.70043e-05 -8.2483e-24)
(0.0260412 5.6094e-05 -1.06416e-23)
(0.0260466 4.56607e-05 3.61203e-23)
(0.0260508 3.5704e-05 -1.3933e-23)
(0.0260541 2.62053e-05 3.87919e-24)
(0.0260564 1.71494e-05 -2.11969e-24)
(0.026058 8.51249e-06 -4.89743e-24)
(0.0260589 2.75731e-07 8.89342e-24)
(0.0260592 -7.59776e-06 -4.35637e-24)
(0.0260589 -1.51201e-05 6.85295e-25)
(0.0260581 -2.23001e-05 2.11622e-25)
(0.0260568 -2.91417e-05 2.35146e-26)
(0.0242097 8.87097e-05 3.69632e-24)
(0.0242229 7.87942e-05 -1.90935e-23)
(0.0242337 6.89098e-05 3.30965e-23)
(0.0242427 5.92359e-05 -2.52367e-23)
(0.02425 4.98564e-05 2.51478e-23)
(0.0242559 4.08047e-05 -8.36362e-24)
(0.0242606 3.20856e-05 -5.75626e-24)
(0.0242643 2.36985e-05 -6.21917e-24)
(0.024267 1.5632e-05 1.07295e-23)
(0.024269 7.87924e-06 -6.17417e-25)
(0.0242702 4.23225e-07 -9.93704e-24)
(0.0242708 -6.73454e-06 -1.05693e-24)
(0.0242707 -1.35975e-05 1.91166e-24)
(0.0242701 -2.01698e-05 -3.21733e-25)
(0.0242689 -2.64503e-05 4.63055e-26)
(0.0222366 7.64705e-05 4.91963e-25)
(0.0222499 6.81485e-05 -7.18638e-24)
(0.0222612 5.97894e-05 -4.00882e-24)
(0.0222706 5.1536e-05 3.27727e-23)
(0.0222784 4.34618e-05 -3.21919e-23)
(0.0222848 3.56017e-05 9.39955e-24)
(0.02229 2.79722e-05 1.57991e-24)
(0.0222941 2.05805e-05 -8.23929e-25)
(0.0222973 1.34299e-05 -3.81982e-24)
(0.0222996 6.52004e-06 1.63964e-23)
(0.0223012 -1.45212e-07 -1.29886e-23)
(0.022302 -6.56382e-06 -5.07735e-25)
(0.0223021 -1.2733e-05 1.04534e-24)
(0.0223016 -1.86515e-05 6.76352e-25)
(0.0223005 -2.43149e-05 -5.00482e-25)
(0.0201848 6.50275e-05 7.32318e-25)
(0.0201984 5.80285e-05 6.67986e-24)
(0.02021 5.09575e-05 -7.66546e-24)
(0.0202199 4.39269e-05 -5.29803e-24)
(0.0202282 3.69995e-05 3.36807e-23)
(0.0202352 3.02102e-05 -2.57589e-23)
(0.0202409 2.35834e-05 -5.94183e-25)
(0.0202455 1.71313e-05 -5.28781e-24)
(0.0202491 1.08664e-05 -4.01153e-25)
(0.0202518 4.7919e-06 7.73562e-25)
(0.0202536 -1.07841e-06 -2.6804e-24)
(0.0202547 -6.7459e-06 2.29146e-24)
(0.020255 -1.22039e-05 8.26508e-25)
(0.0202546 -1.74467e-05 7.00358e-25)
(0.0202536 -2.24665e-05 6.21331e-25)
(0.0181287 5.43285e-05 5.22017e-24)
(0.0181425 4.84447e-05 -8.00379e-24)
(0.0181545 4.24816e-05 -6.42001e-24)
(0.0181649 3.65251e-05 1.95794e-23)
(0.0181737 3.06247e-05 -7.01293e-24)
(0.0181811 2.48149e-05 -9.84332e-24)
(0.0181873 1.91212e-05 3.44564e-24)
(0.0181923 1.35601e-05 7.6574e-24)
(0.0181962 8.14548e-06 -1.21274e-23)
(0.0181992 2.88242e-06 1.19446e-23)
(0.0182013 -2.2149e-06 -6.30802e-24)
(0.0182025 -7.14342e-06 2.64586e-24)
(0.0182029 -1.18936e-05 -3.27711e-24)
(0.0182025 -1.64567e-05 3.14537e-24)
(0.0182014 -2.08232e-05 -7.07278e-25)
(0.0161207 4.43639e-05 -1.01329e-24)
(0.0161347 3.94464e-05 -3.51584e-24)
(0.016147 3.44598e-05 -1.12e-23)
(0.0161576 2.94644e-05 3.12676e-23)
(0.0161667 2.44968e-05 -5.60918e-24)
(0.0161744 1.95909e-05 -8.80441e-24)
(0.0161808 1.47682e-05 3.03863e-24)
(0.016186 1.00515e-05 -4.40877e-24)
(0.0161902 5.445e-06 -9.46004e-24)
(0.0161932 9.73931e-07 9.11538e-24)
(0.0161953 -3.37237e-06 4.35637e-25)
(0.0161965 -7.57783e-06 -2.80364e-24)
(0.0161968 -1.16273e-05 3.20234e-24)
(0.0161962 -1.55116e-05 1.74419e-25)
(0.0161948 -1.92215e-05 -2.24168e-25)
(0.0141957 3.52381e-05 3.89964e-24)
(0.0142096 3.1181e-05 5.73521e-24)
(0.0142217 2.70723e-05 -5.3487e-24)
(0.0142323 2.29476e-05 -1.16757e-23)
(0.0142413 1.88355e-05 1.57084e-23)
(0.014249 1.47667e-05 -1.71847e-23)
(0.0142553 1.07621e-05 -6.58599e-25)
(0.0142605 6.83993e-06 6.65372e-24)
(0.0142644 3.0079e-06 2.3118e-24)
(0.0142673 -7.14573e-07 -4.74478e-24)
(0.0142691 -4.3337e-06 3.82265e-26)
(0.01427 -7.83006e-06 9.57193e-24)
(0.0142698 -1.11903e-05 -3.65408e-24)
(0.0142688 -1.44064e-05 -9.00239e-25)
(0.0142669 -1.74696e-05 -5.34066e-26)
(0.0123747 2.71289e-05 -4.05088e-24)
(0.0123879 2.38491e-05 5.21451e-24)
(0.0123996 2.05343e-05 5.86544e-25)
(0.0124096 1.72002e-05 1.05515e-23)
(0.0124182 1.38723e-05 -8.60207e-24)
(0.0124254 1.05771e-05 6.84776e-25)
(0.0124313 7.33391e-06 -9.24296e-25)
(0.012436 4.15382e-06 -2.70286e-24)
(0.0124395 1.05376e-06 2.35133e-24)
(0.0124418 -1.97274e-06 -7.58901e-24)
(0.0124431 -4.8978e-06 5.4526e-25)
(0.0124433 -7.71532e-06 1.80938e-24)
(0.0124425 -1.04183e-05 1.11723e-24)
(0.0124408 -1.29992e-05 4.30189e-25)
(0.0124382 -1.54486e-05 1.48125e-25)
(0.0106687 2.0195e-05 3.00041e-24)
(0.0106809 1.76137e-05 -2.37373e-24)
(0.0106915 1.50097e-05 -1.04369e-23)
(0.0107007 1.2386e-05 9.79963e-24)
(0.0107085 9.76729e-06 1.36917e-23)
(0.0107149 7.17521e-06 -3.47193e-24)
(0.01072 4.62469e-06 -7.07858e-24)
(0.0107239 2.12536e-06 -9.92388e-24)
(0.0107266 -3.10187e-07 7.48186e-24)
(0.0107282 -2.68479e-06 4.34455e-25)
(0.0107287 -4.97383e-06 -1.67405e-24)
(0.0107281 -7.17284e-06 -4.46378e-25)
(0.0107266 -9.27713e-06 9.19214e-25)
(0.0107241 -1.12797e-05 -3.60969e-26)
(0.0107207 -1.31715e-05 -1.70964e-25)
(0.00908212 1.45059e-05 -1.88809e-24)
(0.00909292 1.25387e-05 -1.34572e-24)
(0.00910232 1.05567e-05 1.63826e-24)
(0.00911032 8.5571e-06 -5.20142e-24)
(0.00911697 6.56381e-06 1.70719e-23)
(0.00912235 4.59248e-06 -2.2645e-23)
(0.0091265 2.65376e-06 2.22215e-23)
(0.00912946 7.57847e-07 -9.4138e-24)
(0.00913129 -1.09348e-06 2.13966e-24)
(0.00913203 -2.88846e-06 2.67581e-26)
(0.00913172 -4.61646e-06 -1.66971e-24)
(0.00913041 -6.27285e-06 5.52467e-25)
(0.00912813 -7.85288e-06 -1.25973e-24)
(0.00912494 -9.35035e-06 -1.61822e-25)
(0.00912086 -1.07579e-05 8.0343e-26)
(0.00761546 1.00242e-05 -9.17204e-25)
(0.00762467 8.57924e-06 2.34928e-25)
(0.00763262 7.1253e-06 5.11031e-25)
(0.00763929 5.65773e-06 -2.37356e-24)
(0.00764474 4.19824e-06 -1.07217e-24)
(0.007649 2.75611e-06 9.27578e-24)
(0.00765213 1.33924e-06 -5.45449e-24)
(0.00765416 -4.32397e-08 7.81375e-25)
(0.00765513 -1.39401e-06 -7.56577e-25)
(0.00765508 -2.6991e-06 -8.14209e-25)
(0.00765405 -3.95323e-06 -2.33224e-25)
(0.00765209 -5.1522e-06 1.53454e-24)
(0.00764923 -6.29188e-06 3.72881e-25)
(0.00764552 -7.36726e-06 -8.99313e-25)
(0.00764099 -8.37285e-06 -1.34027e-25)
(0.00626646 6.62832e-06 -3.33413e-25)
(0.00627403 5.61133e-06 -1.10408e-25)
(0.0062805 4.59071e-06 -5.37717e-24)
(0.00628584 3.56142e-06 1.42192e-24)
(0.0062901 2.54108e-06 -3.87365e-24)
(0.0062933 1.53337e-06 2.70791e-24)
(0.00629548 5.4483e-07 5.13317e-24)
(0.00629667 -4.18169e-07 3.84804e-24)
(0.00629691 -1.35808e-06 -5.39342e-24)
(0.00629624 -2.26481e-06 1.62587e-24)
(0.00629469 -3.13415e-06 1.37704e-24)
(0.0062923 -3.96285e-06 -1.95955e-24)
(0.0062891 -4.74792e-06 1.04352e-24)
(0.00628515 -5.48541e-06 -6.90668e-26)
(0.00628047 -6.17134e-06 2.51405e-25)
(0.00503122 4.15205e-06 -1.30517e-24)
(0.0050372 3.47244e-06 -1.78881e-24)
(0.00504227 2.79491e-06 -3.25763e-25)
(0.00504637 2.11334e-06 4.45035e-24)
(0.00504953 1.4401e-06 -3.15151e-24)
(0.00505179 7.74824e-07 -6.12698e-25)
(0.00505318 1.24087e-07 5.07586e-24)
(0.00505371 -5.09506e-07 1.25765e-26)
(0.00505342 -1.12773e-06 -1.02891e-24)
(0.00505234 -1.7231e-06 -3.74919e-24)
(0.0050505 -2.29266e-06 4.25881e-25)
(0.00504794 -2.83413e-06 2.55721e-24)
(0.00504469 -3.34555e-06 -3.28618e-25)
(0.00504079 -3.82388e-06 -3.37464e-25)
(0.00503628 -4.2662e-06 2.20838e-25)
(0.00390463 2.41811e-06 -2.8508e-25)
(0.00390917 1.99351e-06 1.68692e-26)
(0.00391296 1.57655e-06 2.13345e-24)
(0.00391596 1.15899e-06 1.42851e-24)
(0.00391819 7.47964e-07 -9.83948e-25)
(0.00391969 3.41206e-07 -2.43486e-24)
(0.00392045 -5.53057e-08 9.85372e-25)
(0.00392052 -4.42796e-07 -4.13048e-24)
(0.00391992 -8.188e-07 3.18065e-24)
(0.00391866 -1.18189e-06 1.62661e-24)
(0.00391678 -1.52839e-06 -1.66445e-26)
(0.0039143 -1.85697e-06 -1.76346e-24)
(0.00391126 -2.16641e-06 3.14801e-25)
(0.00390769 -2.45442e-06 -2.32001e-25)
(0.00390362 -2.71874e-06 1.13598e-25)
(0.00288082 1.25986e-06 -5.24549e-25)
(0.00288406 1.01616e-06 1.07562e-26)
(0.00288673 7.85186e-07 1.70952e-24)
(0.00288879 5.56148e-07 -1.0687e-24)
(0.00289026 3.32045e-07 4.39772e-24)
(0.00289117 1.11688e-07 -8.01125e-24)
(0.0028915 -1.07245e-07 6.47536e-24)
(0.00289131 -3.15137e-07 -5.39716e-24)
(0.00289058 -5.22869e-07 3.89862e-24)
(0.00288935 -7.19526e-07 -2.49295e-24)
(0.00288764 -9.0742e-07 8.55813e-25)
(0.00288546 -1.08512e-06 1.23178e-25)
(0.00288285 -1.25167e-06 1.90681e-25)
(0.00287984 -1.40542e-06 -2.33635e-25)
(0.00287645 -1.54449e-06 4.69317e-26)
(0.00195334 5.37496e-07 7.95394e-25)
(0.00195545 4.10024e-07 8.59478e-25)
(0.00195717 2.99876e-07 -3.67444e-24)
(0.00195845 1.93586e-07 2.68724e-24)
(0.00195932 9.15182e-08 -2.64353e-26)
(0.00195979 -4.7329e-09 6.91103e-25)
(0.00195986 -1.05888e-07 -8.44005e-25)
(0.00195956 -2.00476e-07 -1.76076e-24)
(0.00195888 -2.91665e-07 1.7488e-24)
(0.00195785 -3.77708e-07 1.79952e-25)
(0.00195648 -4.58917e-07 -1.38313e-24)
(0.00195479 -5.34434e-07 4.9659e-25)
(0.00195279 -6.04961e-07 2.90122e-25)
(0.0019505 -6.69668e-07 -3.47267e-26)
(0.00194795 -7.27005e-07 -3.15479e-26)
(0.0011155 1.58291e-07 -8.02089e-25)
(0.00111663 1.11654e-07 2.45246e-24)
(0.00111752 8.13167e-08 1.46203e-24)
(0.00111817 5.17039e-08 -2.6326e-24)
(0.00111858 2.24939e-08 -3.08443e-25)
(0.00111876 -5.01793e-09 -2.73146e-25)
(0.0011187 -3.66993e-08 8.32094e-25)
(0.00111842 -6.58421e-08 -1.40945e-24)
(0.00111793 -9.39193e-08 1.91244e-24)
(0.00111723 -1.20923e-07 -9.36142e-25)
(0.00111633 -1.45065e-07 -6.02579e-25)
(0.00111523 -1.64893e-07 3.6193e-25)
(0.00111396 -1.86452e-07 -4.19579e-25)
(0.00111253 -2.09979e-07 4.1688e-25)
(0.00111094 -2.34174e-07 -6.83444e-26)
(0.000360484 5.91195e-08 -5.7226e-27)
(0.000360758 1.13362e-07 4.76041e-25)
(0.000360965 1.57775e-07 5.44349e-25)
(0.000361096 1.86856e-07 -8.53317e-25)
(0.000361158 2.02601e-07 1.77146e-24)
(0.000361149 2.07074e-07 -1.92337e-24)
(0.000361068 2.01884e-07 1.25981e-25)
(0.000360919 1.89256e-07 1.05624e-24)
(0.000360701 1.70149e-07 -1.45973e-24)
(0.000360417 1.45905e-07 -2.61119e-25)
(0.000360069 1.18782e-07 9.96792e-25)
(0.00035966 9.05727e-08 -4.38269e-25)
(0.000359194 5.76343e-08 -1.58043e-25)
(0.000358674 2.02742e-08 1.31449e-25)
(0.000358106 -2.04119e-08 -5.65259e-27)
(0.000902866 -0.00023886 7.99277e-26)
(0.00103457 -0.000160069 2.03752e-24)
(0.00125636 -7.90044e-05 -5.84506e-24)
(0.00148339 -1.36953e-05 8.46951e-24)
(0.00170189 3.7437e-05 -3.17677e-24)
(0.0019166 7.51099e-05 -3.03762e-24)
(0.00212745 0.000101755 3.44495e-24)
(0.00233502 0.00011939 -6.78766e-24)
(0.00254001 0.000129715 4.4318e-25)
(0.002743 0.000134199 4.26436e-24)
(0.00294455 0.000134112 -8.11128e-25)
(0.00314514 0.000130587 8.74843e-25)
(0.00334531 0.000124682 -8.58058e-26)
(0.00354565 0.000117441 5.41585e-25)
(0.00374697 0.000109953 -1.98743e-24)
(0.00395035 0.00010341 1.08713e-24)
(0.00415755 9.91064e-05 -3.35329e-25)
(0.00437096 9.84425e-05 2.60927e-26)
(0.00459449 0.000102509 7.78762e-25)
(0.00483293 0.000111795 -4.86698e-25)
(0.00509277 0.000124426 5.97183e-26)
(0.00537891 0.000135471 -5.21924e-26)
(0.00566937 0.000133822 9.93647e-26)
(0.0059271 0.0001124 3.83535e-25)
(0.00613941 7.2107e-05 -6.88409e-25)
(0.0063062 1.58059e-05 -4.61384e-25)
(0.00642911 -5.34441e-05 2.59342e-26)
(0.0065104 -0.000133008 1.12144e-24)
(0.0065518 -0.000220377 1.42293e-24)
(0.00655429 -0.000312663 -2.75796e-24)
(0.00651823 -0.000406149 1.89191e-24)
(0.00644376 -0.000496063 -1.35072e-24)
(0.00633117 -0.000576575 1.64858e-25)
(0.00618116 -0.000640936 -1.13996e-24)
(0.0059949 -0.000681628 1.09762e-24)
(0.00577407 -0.000690403 7.32627e-24)
(0.00552067 -0.000658051 -2.01206e-24)
(0.00523697 -0.000573676 1.88616e-24)
(0.0049257 -0.000423308 1.01072e-24)
(0.00459058 -0.000188363 -1.0828e-23)
(0.00423534 0.000152864 -1.3212e-25)
(0.00386483 0.000613518 4.5581e-24)
(0.00346765 0.00116285 1.44777e-24)
(0.00306169 0.00167887 -6.38463e-24)
(0.0028317 0.00179707 -3.16219e-25)
(0.00169892 -0.000318574 -2.34278e-24)
(0.00175417 -0.000274093 -3.28414e-24)
(0.00189135 -0.000196115 6.89518e-24)
(0.00206388 -0.000123758 3.18762e-24)
(0.00224755 -6.25064e-05 -1.11424e-23)
(0.00243769 -1.44997e-05 1.18574e-23)
(0.00263021 2.16409e-05 -4.24593e-24)
(0.00282329 4.77654e-05 3.35969e-24)
(0.00301629 6.56141e-05 -4.44264e-24)
(0.00320903 7.67633e-05 5.13827e-26)
(0.00340153 8.25894e-05 -2.34528e-24)
(0.003594 8.43178e-05 4.64731e-24)
(0.00378673 8.30789e-05 -2.56605e-24)
(0.00398014 7.99688e-05 -2.29597e-24)
(0.00417491 7.61075e-05 -1.51566e-24)
(0.00437195 7.2695e-05 2.91044e-24)
(0.00457284 7.1013e-05 -3.43054e-25)
(0.0047797 7.24203e-05 1.50273e-24)
(0.00499614 7.79715e-05 2.33033e-25)
(0.00522651 8.81451e-05 -4.43562e-25)
(0.00547694 0.000101182 -1.8361e-25)
(0.00575211 0.0001125 -1.10467e-25)
(0.00603142 0.000111559 5.38004e-25)
(0.00627991 9.17674e-05 6.57388e-25)
(0.00648555 5.40715e-05 -5.9234e-25)
(0.00664807 1.21074e-06 -2.82013e-24)
(0.00676877 -6.38263e-05 3.757e-24)
(0.00684956 -0.000138371 -2.55515e-24)
(0.00689192 -0.0002198 8.5325e-25)
(0.00689675 -0.00030509 -4.06747e-25)
(0.00686449 -0.000390422 2.66202e-24)
(0.00679548 -0.00047098 -2.59235e-24)
(0.00669034 -0.000540955 -1.22788e-25)
(0.00655024 -0.000593674 5.87387e-24)
(0.00637699 -0.000621726 -1.01365e-23)
(0.00617316 -0.000616982 2.76582e-24)
(0.00594207 -0.000570398 1.30443e-23)
(0.00568799 -0.000471399 -3.58672e-24)
(0.00541677 -0.000306724 -1.04777e-23)
(0.00513744 -5.89397e-05 -6.30525e-24)
(0.00486348 0.000292298 1.43753e-23)
(0.00461743 0.000760677 -1.38057e-23)
(0.00442272 0.00131575 -2.98467e-24)
(0.0043191 0.00182455 8.99533e-24)
(0.00434847 0.00188566 2.82412e-24)
(0.0026387 -0.000326922 -2.66287e-26)
(0.0026472 -0.00032231 -3.75941e-24)
(0.00270602 -0.000275779 7.30524e-24)
(0.0028148 -0.000213643 6.1191e-24)
(0.00294985 -0.000152886 -1.00088e-23)
(0.0031025 -0.000100475 2.07608e-25)
(0.00326573 -5.80538e-05 9.58448e-25)
(0.00343525 -2.51786e-05 1.03444e-23)
(0.00360874 -7.25941e-07 -1.22492e-23)
(0.00378485 1.66273e-05 7.51181e-24)
(0.00396287 2.81685e-05 2.2543e-24)
(0.00414245 3.5104e-05 -1.246e-23)
(0.00432354 3.85729e-05 4.4979e-24)
(0.00450627 3.96848e-05 1.78572e-24)
(0.0046911 3.95681e-05 -3.69825e-24)
(0.00487871 3.94142e-05 5.97142e-24)
(0.00507044 4.04823e-05 -4.18921e-24)
(0.00526813 4.4083e-05 -7.30869e-26)
(0.00547502 5.12301e-05 3.24943e-25)
(0.00569499 6.23867e-05 3.43163e-25)
(0.00593373 7.59097e-05 4.47075e-26)
(0.00619562 8.75615e-05 1.94818e-25)
(0.00646156 8.73702e-05 -5.43015e-25)
(0.00669886 6.92458e-05 1.61726e-24)
(0.00689616 3.4194e-05 -2.54818e-24)
(0.00705302 -1.51546e-05 1.46479e-24)
(0.00717039 -7.58698e-05 -3.27337e-24)
(0.0072498 -0.000145249 4.39063e-24)
(0.0072925 -0.000220555 -3.69011e-24)
(0.0072993 -0.000298631 5.46248e-25)
(0.0072707 -0.000375558 7.54655e-25)
(0.00720729 -0.000446492 3.07906e-24)
(0.00711004 -0.000505676 -7.44801e-25)
(0.00698062 -0.000546571 3.05194e-24)
(0.00682155 -0.000561987 -9.02578e-24)
(0.00663633 -0.000544126 1.60823e-23)
(0.00642965 -0.000484472 -1.11371e-23)
(0.00620777 -0.000373419 1.67047e-23)
(0.00597951 -0.00019963 -3.19958e-23)
(0.00575819 5.07078e-05 1.22084e-23)
(0.00556422 0.000391821 4.24548e-24)
(0.00542904 0.000829342 6.6104e-24)
(0.00538692 0.00132633 -8.20902e-24)
(0.00546044 0.0017522 2.27771e-24)
(0.00561768 0.00179041 -1.36772e-24)
(0.00370525 -0.000310923 -9.92654e-25)
(0.0036876 -0.000331067 -1.51445e-24)
(0.00369763 -0.000313191 -6.47008e-24)
(0.00374518 -0.000273654 1.78473e-24)
(0.00382725 -0.00022355 1.18469e-24)
(0.00393403 -0.000174445 5.10211e-24)
(0.00405868 -0.000130943 -1.06479e-23)
(0.00419577 -9.46971e-05 4.0727e-24)
(0.00434169 -6.58011e-05 1.35016e-23)
(0.00449401 -4.3615e-05 -3.59484e-24)
(0.00465114 -2.72224e-05 -3.3609e-24)
(0.00481212 -1.56144e-05 -5.33438e-25)
(0.00497641 -7.75652e-06 1.74263e-24)
(0.0051438 -2.598e-06 -3.40001e-24)
(0.00531442 9.49709e-07 7.87183e-25)
(0.00548869 4.03703e-06 -2.73944e-25)
(0.00566767 7.87678e-06 -1.61502e-24)
(0.00585286 1.37146e-05 6.2542e-25)
(0.00604709 2.2511e-05 2.79559e-24)
(0.00625374 3.47037e-05 -3.28054e-25)
(0.00647799 4.87596e-05 -6.2424e-25)
(0.00672383 6.07828e-05 -1.7136e-25)
(0.00697375 6.13711e-05 -9.57509e-25)
(0.00719752 4.49519e-05 -5.44669e-26)
(0.00738447 1.26043e-05 -2.2596e-24)
(0.00753396 -3.31375e-05 3.90722e-24)
(0.00764656 -8.93975e-05 -3.27407e-24)
(0.00772344 -0.000153438 6.21832e-24)
(0.00776559 -0.00022241 -5.06956e-24)
(0.00777374 -0.000293042 1.27969e-24)
(0.00774848 -0.000361342 1.74068e-24)
(0.00769065 -0.000422478 -1.83614e-25)
(0.0076016 -0.000470813 -2.96408e-25)
(0.00748352 -0.00050005 -1.05974e-24)
(0.00733963 -0.000503386 1.31774e-24)
(0.00717434 -0.000473624 -5.00268e-24)
(0.0069936 -0.000403197 2.3623e-23)
(0.00680535 -0.000284121 -1.25342e-23)
(0.00662051 -0.000107985 -4.33647e-25)
(0.0064547 0.000133767 -2.83452e-23)
(0.0063302 0.000447278 2.14772e-23)
(0.00627744 0.0008283 -7.74263e-24)
(0.00632614 0.00123897 1.96756e-24)
(0.00648137 0.00157802 9.50591e-24)
(0.0066957 0.00165349 -2.23934e-24)
(0.00489385 -0.000285467 -4.10199e-24)
(0.0048659 -0.000316578 8.36866e-24)