/*--------------------------------*- C++ -*----------------------------------*\
| =========                 |                                                 |
| \\      /  F ield         | OpenFOAM: The Open Source CFD Toolbox           |
|  \\    /   O peration     | Version:  2312                                  |
|   \\  /    A nd           | Website:  www.openfoam.com                      |
|    \\/     M anipulation  |                                                 |
\*---------------------------------------------------------------------------*/
FoamFile
{
    version     2.0;
    format      ascii;
    arch        "LSB;label=32;scalar=64";
    class       volVectorField;
    location    "94";
    object      U;
}
// * * * * * * * * * * * * * * * * * * * * * * * * * * * * * * * * * * * * * //

dimensions      [0 1 -1 0 0 0 0];

internalField   nonuniform List<vector> 
4800
(
(0.000498667 3.01171e-07 -3.08389e-26)
(0.000491382 3.6328e-07 -2.20075e-25)
(0.000486797 4.03296e-07 2.81546e-25)
(0.000484079 4.15885e-07 1.32454e-25)
(0.000482766 4.2117e-07 1.98739e-24)
(0.000482578 4.02944e-07 -4.74903e-24)
(0.000483481 3.55567e-07 4.47702e-24)
(0.000485332 2.82557e-07 -6.55941e-24)
(0.000488207 1.22512e-07 2.09234e-24)
(0.000492326 -1.81942e-07 7.24381e-24)
(0.000498159 -7.61525e-07 -2.23069e-24)
(0.000507029 -2.28461e-06 -1.84094e-25)
(0.000526476 -7.82071e-06 -2.74861e-24)
(0.000575695 -3.03548e-05 1.26715e-24)
(0.000657976 -0.000100228 -1.00404e-24)
(0.00154054 1.53412e-06 -9.75841e-26)
(0.00151759 1.15525e-06 1.21709e-25)
(0.00150272 8.40848e-07 -1.15178e-24)
(0.00149344 5.36699e-07 8.54263e-25)
(0.00148839 2.38106e-07 2.829e-24)
(0.00148671 -1.03682e-07 -4.51855e-24)
(0.00148822 -5.6013e-07 -1.32162e-24)
(0.00149239 -1.14273e-06 -3.39704e-25)
(0.00149955 -2.0363e-06 1.087e-23)
(0.00151024 -3.52818e-06 -8.0597e-24)
(0.00152573 -6.26693e-06 8.78102e-25)
(0.00154889 -1.25744e-05 1.34835e-24)
(0.00158896 -3.05815e-05 -1.99805e-24)
(0.00165748 -8.57368e-05 -5.92268e-25)
(0.00173192 -0.000212097 2.60362e-24)
(0.00269001 5.01308e-06 -6.97599e-26)
(0.00264972 3.80363e-06 7.11804e-26)
(0.00262299 2.83557e-06 7.51379e-25)
(0.00260574 1.94589e-06 -1.80497e-24)
(0.00259564 1.02452e-06 1.7914e-24)
(0.0025912 -6.18937e-08 1.70399e-24)
(0.00259208 -1.42883e-06 -4.37623e-24)
(0.00259716 -3.22088e-06 -2.78423e-24)
(0.00260703 -5.85665e-06 6.70435e-24)
(0.00262226 -1.00024e-05 2.55762e-24)
(0.00264414 -1.71893e-05 -8.88825e-24)
(0.00267497 -3.15672e-05 -1.36109e-24)
(0.00271896 -6.32405e-05 3.81457e-24)
(0.00277496 -0.000133283 6.04854e-24)
(0.00281608 -0.000251738 -3.12751e-24)
(0.00395233 1.1348e-05 2.57301e-26)
(0.00389351 8.78614e-06 -1.80503e-25)
(0.00385362 6.74254e-06 8.15842e-25)
(0.00382705 4.87469e-06 8.98157e-25)
(0.00381054 2.94493e-06 -8.70161e-25)
(0.00380197 6.89006e-07 -5.20198e-24)
(0.00380067 -2.17154e-06 -3.56584e-24)
(0.00380504 -5.67363e-06 1.31808e-23)
(0.00381544 -1.08746e-05 5.63022e-24)
(0.00383238 -1.87461e-05 -8.08092e-24)
(0.00385617 -3.13633e-05 -3.27392e-24)
(0.00388733 -5.35034e-05 -2.51262e-24)
(0.00392497 -9.36438e-05 7.25216e-26)
(0.00396151 -0.000162861 1.86792e-24)
(0.00397714 -0.000257238 9.16063e-27)
(0.00533013 2.11785e-05 -4.70736e-26)
(0.00525269 1.66675e-05 -2.90842e-25)
(0.00519897 1.30686e-05 -1.92639e-25)
(0.00516211 9.79116e-06 5.01511e-25)
(0.00513802 6.43724e-06 -1.47272e-24)
(0.00512401 2.5663e-06 3.68582e-24)
(0.0051187 -2.14339e-06 -6.37808e-25)
(0.0051208 -8.06919e-06 2.30731e-24)
(0.00512937 -1.62298e-05 -1.29065e-23)
(0.00514478 -2.81843e-05 2.47586e-23)
(0.00516608 -4.58525e-05 -2.40362e-23)
(0.005192 -7.32069e-05 1.27415e-23)
(0.00521889 -0.000115369 -1.18801e-23)
(0.00523856 -0.000175897 1.12568e-23)
(0.00523957 -0.000247532 -4.50571e-24)
(0.00682164 3.51538e-05 6.19508e-26)
(0.00672738 2.81183e-05 2.24345e-25)
(0.00666041 2.2493e-05 -1.19328e-24)
(0.00661311 1.73865e-05 -7.82732e-25)
(0.0065808 1.22038e-05 2.06418e-24)
(0.00656037 6.34561e-06 7.56782e-25)
(0.00654975 -6.13876e-07 -5.96514e-24)
(0.00654752 -9.24736e-06 1.43187e-23)
(0.00655233 -2.07035e-05 -1.87341e-23)
(0.00656326 -3.63639e-05 4.48189e-24)
(0.00657869 -5.78805e-05 1.38163e-23)
(0.00659621 -8.76404e-05 -1.92901e-23)
(0.00661167 -0.000127627 9.67795e-24)
(0.0066189 -0.000177423 1.00218e-23)
(0.00661253 -0.000230799 -7.65006e-24)
(0.0084183 5.35905e-05 5.09996e-26)
(0.00831202 4.36217e-05 -3.03908e-25)
(0.0082344 3.55997e-05 1.10287e-24)
(0.00817795 2.83215e-05 -1.54439e-24)
(0.00813783 2.09787e-05 -5.36321e-24)
(0.00811071 1.28536e-05 9.15334e-24)
(0.00809411 3.35515e-06 -5.62758e-24)
(0.00808627 -8.08909e-06 1.93371e-23)
(0.00808544 -2.25715e-05 -1.31506e-23)
(0.00808993 -4.12447e-05 -6.20271e-24)
(0.00809757 -6.50913e-05 -1.23233e-23)
(0.00810564 -9.50069e-05 1.13278e-23)
(0.00811075 -0.000130943 3.20674e-24)
(0.00810908 -0.000171044 2.7753e-24)
(0.00809876 -0.000211008 -2.44778e-24)
(0.0101025 7.59828e-05 -7.32049e-26)
(0.00999287 6.30731e-05 1.00278e-24)
(0.00991008 5.2541e-05 -2.35628e-24)
(0.00984792 4.29411e-05 -1.99103e-24)
(0.00980201 3.32797e-05 6.99181e-25)
(0.00976922 2.27682e-05 1.44546e-24)
(0.00974697 1.07399e-05 5.34842e-24)
(0.00973321 -3.38364e-06 -1.47222e-23)
(0.00972597 -2.04113e-05 -7.99729e-24)
(0.0097232 -4.11043e-05 2.17983e-23)
(0.0097226 -6.57942e-05 -6.84952e-24)
(0.00972172 -9.43486e-05 2.34698e-23)
(0.00971824 -0.0001258 -1.23939e-23)
(0.00971006 -0.000158216 -3.99275e-24)
(0.009697 -0.000188922 2.37328e-24)
(0.0118469 0.000100422 -9.67152e-27)
(0.0117465 8.52581e-05 5.52974e-25)
(0.0116673 7.25806e-05 -7.90014e-25)
(0.0116054 6.08692e-05 1.94059e-24)
(0.0115578 4.90372e-05 -1.17027e-23)
(0.0115221 3.6297e-05 1.23981e-23)
(0.011496 2.20141e-05 -1.98736e-23)
(0.0114774 5.68567e-06 1.21701e-23)
(0.0114644 -1.31742e-05 9.16319e-24)
(0.011455 -3.48439e-05 2.01491e-23)
(0.0114471 -5.91724e-05 -2.6382e-23)
(0.0114389 -8.55235e-05 -4.9619e-24)
(0.0114289 -0.000112748 2.22987e-24)
(0.0114159 -0.000139355 1.64367e-23)
(0.0114007 -0.000163776 -6.71735e-24)
(0.0136188 0.00012324 5.3487e-26)
(0.0135421 0.000107368 -2.32125e-25)
(0.013477 9.35823e-05 1.04893e-24)
(0.0134235 8.05019e-05 -3.72482e-24)
(0.0133804 6.70923e-05 5.6967e-24)
(0.0133463 5.26784e-05 -7.44891e-24)
(0.0133197 3.67593e-05 1.25848e-23)
(0.0132989 1.9007e-05 2.29134e-24)
(0.0132823 -7.5839e-07 -1.75894e-23)
(0.0132683 -2.2409e-05 2.52915e-23)
(0.0132553 -4.55095e-05 -2.80002e-23)
(0.0132421 -6.92975e-05 -8.37184e-24)
(0.0132279 -9.27906e-05 1.47054e-23)
(0.013212 -0.000114998 4.40635e-24)
(0.0131954 -0.00013504 -1.93344e-24)
(0.0153925 0.000139506 2.22215e-25)
(0.0153499 0.000125186 -1.82122e-24)
(0.0153084 0.000111941 -2.96161e-24)
(0.0152711 9.87695e-05 6.99511e-24)
(0.015239 8.48486e-05 3.20974e-24)
(0.0152118 6.97476e-05 -2.01891e-23)
(0.0151891 5.31951e-05 6.15505e-24)
(0.0151699 3.5074e-05 4.47995e-24)
(0.015153 1.54928e-05 -1.9931e-23)
(0.0151375 -5.20682e-06 2.06615e-23)
(0.0151225 -2.64494e-05 -1.68596e-23)
(0.0151072 -4.75498e-05 4.32536e-23)
(0.0150913 -6.77802e-05 -2.0949e-23)
(0.0150745 -8.65397e-05 1.24047e-23)
(0.0150577 -0.000103354 -3.40207e-24)
(0.0171655 0.00014485 -9.77851e-26)
(0.0171576 0.000134737 1.25516e-24)
(0.017142 0.00012374 -2.43582e-24)
(0.0171245 0.000111929 -1.26265e-24)
(0.0171072 9.87846e-05 1.40854e-23)
(0.0170909 8.42315e-05 -1.95998e-24)
(0.0170758 6.82683e-05 -2.54291e-23)
(0.0170615 5.09971e-05 2.98898e-23)
(0.0170477 3.27111e-05 -6.68077e-24)
(0.017034 1.38461e-05 -2.35695e-23)
(0.01702 -5.02781e-06 2.53029e-23)
(0.0170054 -2.33571e-05 1.38354e-23)
(0.0169904 -4.06348e-05 -1.15089e-23)
(0.0169747 -5.65126e-05 -2.02183e-23)
(0.0169591 -7.07405e-05 1.70617e-24)
(0.018965 0.000140723 1.57164e-26)
(0.0189777 0.000133929 -1.45262e-24)
(0.0189815 0.000126462 6.75065e-24)
(0.0189804 0.000117225 4.42104e-25)
(0.0189765 0.000106032 3.91712e-24)
(0.0189709 9.32006e-05 -1.38767e-23)
(0.018964 7.89825e-05 1.20021e-23)
(0.0189561 6.36524e-05 2.82618e-24)
(0.0189471 4.76016e-05 2.51138e-23)
(0.018937 3.12881e-05 -3.86486e-23)
(0.0189261 1.51864e-05 -1.76678e-23)
(0.0189141 -2.79006e-07 -1.18218e-23)
(0.0189016 -1.47591e-05 2.21924e-23)
(0.0188884 -2.80484e-05 -6.51495e-25)
(0.0188752 -4.00098e-05 2.17582e-24)
(0.0208151 0.000129999 -6.2391e-27)
(0.0208363 0.000127407 1.577e-24)
(0.0208485 0.000122979 -2.29136e-24)
(0.0208548 0.000116015 6.85264e-27)
(0.0208577 0.000106941 2.84551e-24)
(0.0208581 9.63047e-05 7.27744e-24)
(0.0208566 8.44704e-05 -2.82795e-23)
(0.0208531 7.17295e-05 2.31557e-24)
(0.020848 5.8448e-05 1.4467e-23)
(0.0208413 4.50333e-05 -6.75672e-24)
(0.0208334 3.188e-05 1.84341e-23)
(0.0208243 1.92906e-05 1.30314e-23)
(0.0208146 7.49882e-06 -2.36407e-23)
(0.0208041 -3.37082e-06 1.62901e-23)
(0.0207935 -1.32333e-05 -1.35655e-23)
(0.0227093 0.000117461 -2.73518e-25)
(0.0227302 0.000118152 -2.50853e-25)
(0.0227438 0.000116429 2.92837e-24)
(0.0227518 0.000112099 -1.39283e-23)
(0.022756 0.000105345 1.21887e-23)
(0.0227576 9.69257e-05 -8.71782e-24)
(0.0227572 8.74975e-05 6.26214e-24)
(0.022755 7.7377e-05 -4.44767e-23)
(0.0227512 6.68163e-05 6.42552e-23)
(0.022746 5.61372e-05 -3.80357e-23)
(0.0227397 4.56907e-05 3.40439e-23)
(0.0227324 3.57133e-05 2.86596e-23)
(0.0227245 2.63533e-05 -5.01419e-23)
(0.0227158 1.76731e-05 1.63639e-23)
(0.0227071 9.72417e-06 -6.89813e-25)
(0.0245957 0.000104536 -1.00547e-26)
(0.0246132 0.00010832 -1.12727e-24)
(0.0246253 0.000109408 1.16558e-24)
(0.0246327 0.000107706 -4.01534e-25)
(0.0246364 0.0001033 5.26454e-24)
(0.0246375 9.72623e-05 -8.92168e-24)
(0.0246366 9.04256e-05 8.15279e-24)
(0.024634 8.30624e-05 -2.55601e-23)
(0.02463 7.51977e-05 5.80618e-23)
(0.0246249 6.70367e-05 -7.42859e-23)
(0.0246191 5.89455e-05 6.0901e-23)
(0.0246124 5.11828e-05 -2.05909e-23)
(0.0246053 4.38795e-05 1.07509e-24)
(0.0245976 3.70697e-05 4.74655e-24)
(0.0245898 3.07806e-05 -9.10686e-24)
(0.0263867 9.21182e-05 -7.9764e-25)
(0.0264009 9.80874e-05 1.78667e-25)
(0.0264102 0.00010227 1.4277e-24)
(0.0264165 0.000103408 -2.92775e-24)
(0.0264195 0.000101316 9.86466e-24)
(0.0264199 9.76706e-05 -9.63169e-24)
(0.0264185 9.3472e-05 -7.93925e-24)
(0.0264156 8.902e-05 -1.86707e-23)
(0.0264114 8.40543e-05 9.9444e-24)
(0.0264061 7.84384e-05 4.53213e-23)
(0.0264005 7.26179e-05 -2.38365e-23)
(0.0263943 6.68778e-05 1.4108e-23)
(0.0263878 6.13853e-05 -5.8328e-24)
(0.0263807 5.62039e-05 -1.71742e-23)
(0.0263735 5.13685e-05 8.78876e-24)
(0.0279617 7.96401e-05 2.41553e-25)
(0.0279736 8.90345e-05 -2.68952e-25)
(0.0279802 9.46588e-05 2.20259e-24)
(0.0279847 9.91813e-05 -7.54848e-24)
(0.0279864 9.99366e-05 -1.45856e-24)
(0.0279859 9.8925e-05 1.27202e-23)
(0.0279844 9.73385e-05 -9.61028e-24)
(0.0279817 9.52604e-05 -5.99479e-24)
(0.0279779 9.26073e-05 6.52538e-24)
(0.027973 8.94002e-05 -7.64244e-24)
(0.0279675 8.5735e-05 1.85149e-23)
(0.0279618 8.19947e-05 9.0862e-24)
(0.0279559 7.82975e-05 -3.40547e-23)
(0.0279494 7.47152e-05 2.3397e-23)
(0.0279428 7.12995e-05 -4.743e-24)
(0.0291494 6.80382e-05 6.40128e-25)
(0.0291593 7.97987e-05 -1.82655e-25)
(0.0291647 8.92231e-05 -1.46561e-25)
(0.0291673 9.50766e-05 3.76644e-24)
(0.0291693 9.94082e-05 -5.72297e-24)
(0.0291677 0.000102164 -7.81262e-24)
(0.0291659 0.000102386 -6.17881e-24)
(0.0291636 0.000101925 1.79924e-23)
(0.0291605 0.000101049 1.78963e-23)
(0.0291567 9.9851e-05 -4.81088e-23)
(0.0291521 9.82347e-05 2.81556e-23)
(0.029147 9.63762e-05 -1.92357e-24)
(0.0291419 9.43908e-05 -1.50822e-24)
(0.0291364 9.23351e-05 1.99937e-24)
(0.0291306 9.02764e-05 -9.11851e-25)
(0.0297264 5.66605e-05 -1.46598e-24)
(0.0297349 7.0538e-05 -5.48271e-25)
(0.0297404 8.15523e-05 3.89251e-24)
(0.0297441 9.0124e-05 -4.74753e-24)
(0.0297458 9.65426e-05 2.22413e-24)
(0.0297462 0.000101364 5.0901e-24)
(0.0297459 0.000104654 -3.84013e-24)
(0.0297445 0.000106656 -2.2603e-23)
(0.0297421 0.000107788 4.94496e-23)
(0.029739 0.000108356 -2.01597e-23)
(0.0297358 0.000108523 7.076e-24)
(0.0297322 0.000108343 -1.2821e-23)
(0.0297285 0.000107858 -1.2441e-23)
(0.0297244 0.000107126 1.79929e-23)
(0.0297201 0.00010623 -7.62247e-24)
(0.0295184 4.65199e-05 2.00156e-24)
(0.0295235 6.18451e-05 -3.50304e-24)
(0.0295268 7.45628e-05 1.52255e-24)
(0.0295288 8.48214e-05 -4.29778e-24)
(0.0295295 9.30262e-05 7.48017e-24)
(0.0295294 9.96265e-05 -6.05476e-24)
(0.0295286 0.000104751 -1.37789e-23)
(0.0295272 0.000108646 3.34537e-23)
(0.0295254 0.000111675 6.47681e-24)
(0.0295232 0.000114045 -1.83082e-23)
(0.0295207 0.000115813 -8.83523e-24)
(0.0295179 0.000117069 9.67238e-24)
(0.0295149 0.0001179 -1.01173e-23)
(0.0295117 0.000118365 5.60892e-24)
(0.0295083 0.000118509 -2.39685e-24)
(0.0284944 4.11516e-05 1.07623e-24)
(0.0284993 5.68384e-05 -1.80971e-24)
(0.0285033 6.99671e-05 4.99548e-25)
(0.0285067 8.09116e-05 -2.2394e-24)
(0.0285093 8.99728e-05 5.31002e-24)
(0.0285114 9.75054e-05 5.12851e-25)
(0.0285129 0.00010369 -2.0524e-24)
(0.0285141 0.000108776 -2.61922e-24)
(0.0285148 0.000112943 -5.08923e-24)
(0.0285153 0.000116353 3.15347e-23)
(0.0285153 0.00011902 -1.95284e-23)
(0.0285153 0.000121154 1.55113e-24)
(0.0285149 0.000122845 -2.22098e-23)
(0.0285143 0.000124044 1.06934e-23)
(0.0285135 0.000124898 3.32334e-24)
(0.0269136 3.79528e-05 2.41036e-24)
(0.0269157 5.29525e-05 -3.63021e-24)
(0.0269176 6.57342e-05 9.2544e-25)
(0.0269196 7.65942e-05 1.26011e-24)
(0.0269214 8.57761e-05 4.59548e-24)
(0.026923 9.35394e-05 -1.09738e-23)
(0.0269246 0.000100102 6.53781e-24)
(0.026926 0.000105635 -3.09253e-24)
(0.0269274 0.000110247 2.26754e-24)
(0.0269286 0.000114061 1.04998e-23)
(0.0269297 0.000117243 -2.24265e-23)
(0.0269308 0.000119763 1.64201e-23)
(0.0269317 0.000121766 -1.51177e-24)
(0.0269326 0.00012331 -4.57414e-24)
(0.0269334 0.000124461 7.00327e-25)
(0.0249857 3.69713e-05 8.65775e-25)
(0.0249865 5.0928e-05 -3.15721e-24)
(0.0249878 6.29681e-05 3.24277e-24)
(0.0249897 7.33195e-05 -5.19333e-25)
(0.0249919 8.21946e-05 -3.54753e-24)
(0.0249943 8.98052e-05 4.86961e-26)
(0.0249969 9.63194e-05 1.0204e-24)
(0.0249996 0.000101863 3.32856e-24)
(0.0250025 0.000106549 -1.02527e-23)
(0.0250054 0.000110476 -2.91976e-24)
(0.0250084 0.000113729 1.39684e-23)
(0.0250114 0.000116383 3.59707e-24)
(0.0250145 0.000118505 -6.08142e-24)
(0.0250176 0.00012013 1.84566e-24)
(0.0250207 0.000121307 -5.13263e-25)
(0.0228617 3.7364e-05 1.10934e-25)
(0.0228625 4.98115e-05 -1.10095e-24)
(0.0228644 6.06346e-05 3.45944e-25)
(0.0228673 7.00174e-05 1.19058e-25)
(0.022871 7.8135e-05 2.00112e-24)
(0.0228752 8.51441e-05 -1.11885e-24)
(0.0228799 9.11742e-05 -4.53421e-25)
(0.0228849 9.63335e-05 3.95096e-25)
(0.0228903 0.000100712 3.05728e-24)
(0.0228959 0.000104387 -1.61056e-23)
(0.0229017 0.000107429 1.39996e-23)
(0.0229077 0.00010989 1.44979e-24)
(0.0229139 0.000111809 -1.95355e-24)
(0.0229202 0.000113226 -3.1543e-24)
(0.0229265 0.000114184 2.62807e-24)
(0.0206589 3.72771e-05 1.63115e-25)
(0.0206612 4.78555e-05 9.56036e-25)
(0.0206651 5.71155e-05 -1.17942e-24)
(0.0206704 6.51902e-05 2.1826e-26)
(0.0206767 7.22131e-05 -2.88842e-24)
(0.0206838 7.82997e-05 2.18738e-24)
(0.0206915 8.35507e-05 -2.8057e-25)
(0.0206998 8.8049e-05 1.99554e-24)
(0.0207085 9.18611e-05 6.0418e-25)
(0.0207176 9.50417e-05 -1.34856e-25)
(0.020727 9.76384e-05 3.69853e-24)
(0.0207367 9.96924e-05 -1.78579e-24)
(0.0207466 0.000101242 -4.20526e-25)
(0.0207568 0.000102324 -8.17949e-25)
(0.0207671 0.000102966 -2.31044e-24)
(0.0184663 3.54164e-05 1.16918e-24)
(0.0184714 4.40075e-05 -1.63028e-24)
(0.0184783 5.15789e-05 -3.78215e-25)
(0.0184867 5.82123e-05 9.31543e-25)
(0.0184962 6.4004e-05 -3.76342e-25)
(0.0185067 6.90367e-05 1.31037e-24)
(0.0185179 7.33816e-05 -2.63481e-25)
(0.0185297 7.70953e-05 -2.7394e-24)
(0.0185421 8.02232e-05 6.11499e-24)
(0.0185549 8.28043e-05 -7.66889e-24)
(0.0185681 8.48746e-05 5.31968e-24)
(0.0185816 8.64678e-05 -3.06192e-24)
(0.0185953 8.76125e-05 6.05195e-24)
(0.0186092 8.83324e-05 -7.02199e-24)
(0.0186233 8.86484e-05 2.15111e-24)
(0.0163452 3.1511e-05 -2.30528e-25)
(0.0163533 3.82127e-05 -5.1475e-25)
(0.0163633 4.41606e-05 -7.91468e-25)
(0.0163747 4.93951e-05 2.0454e-24)
(0.0163873 5.39809e-05 -9.0701e-25)
(0.0164009 5.79733e-05 3.64503e-25)
(0.0164152 6.14182e-05 -8.43603e-25)
(0.0164301 6.43526e-05 1.09612e-24)
(0.0164456 6.68072e-05 4.84509e-24)
(0.0164615 6.88094e-05 -4.50043e-24)
(0.0164778 7.03844e-05 -2.25591e-25)
(0.0164943 7.15546e-05 3.67984e-24)
(0.0165111 7.23395e-05 -4.10488e-24)
(0.016528 7.27564e-05 -5.09914e-25)
(0.016545 7.28222e-05 6.00367e-25)
(0.0143324 2.60957e-05 9.04991e-25)
(0.0143429 3.11415e-05 7.50084e-25)
(0.0143552 3.56532e-05 -1.23114e-24)
(0.0143688 3.96431e-05 -8.27946e-25)
(0.0143835 4.31525e-05 -1.16809e-26)
(0.0143991 4.62158e-05 1.25971e-24)
(0.0144154 4.88608e-05 9.4246e-25)
(0.0144323 5.11098e-05 -1.14757e-24)
(0.0144498 5.29818e-05 -7.32708e-25)
(0.0144676 5.44937e-05 3.0661e-24)
(0.0144857 5.5661e-05 1.10119e-24)
(0.0145041 5.64985e-05 -9.72857e-24)
(0.0145226 5.70204e-05 3.86836e-24)
(0.0145412 5.72392e-05 1.44834e-24)
(0.0145598 5.7168e-05 1.31597e-25)
(0.0124465 2.0071e-05 -9.59474e-25)
(0.0124582 2.37515e-05 1.17843e-24)
(0.0124715 2.70705e-05 7.48923e-27)
(0.0124859 3.00238e-05 4.58623e-25)
(0.0125014 3.26366e-05 -7.46693e-25)
(0.0125177 3.49289e-05 -3.93368e-25)
(0.0125347 3.69149e-05 -2.66704e-25)
(0.0125522 3.86061e-05 3.87752e-25)
(0.0125701 4.00123e-05 -1.1845e-24)
(0.0125885 4.11432e-05 3.95349e-24)
(0.012607 4.20082e-05 4.23171e-25)
(0.0126258 4.26167e-05 -9.74024e-25)
(0.0126446 4.29785e-05 -9.90512e-25)
(0.0126634 4.31023e-05 -5.62815e-25)
(0.0126821 4.29979e-05 -3.4531e-25)
(0.0106944 1.42989e-05 7.24268e-25)
(0.010706 1.69057e-05 -6.13109e-25)
(0.010719 1.92805e-05 -1.37832e-24)
(0.010733 2.14109e-05 1.26081e-24)
(0.0107479 2.33122e-05 -7.34681e-26)
(0.0107636 2.4994e-05 -7.94431e-25)
(0.0107798 2.64612e-05 2.9074e-25)
(0.0107966 2.77182e-05 2.42516e-24)
(0.0108138 2.87692e-05 -2.22993e-24)
(0.0108313 2.96192e-05 -4.03807e-25)
(0.010849 3.02731e-05 1.01139e-24)
(0.0108668 3.07367e-05 5.56003e-25)
(0.0108846 3.1016e-05 -1.07655e-24)
(0.0109024 3.11168e-05 -7.07452e-26)
(0.0109201 3.10463e-05 3.84042e-25)
(0.00907677 9.37391e-06 -4.63426e-25)
(0.00908717 1.11665e-05 -1.54883e-25)
(0.00909875 1.28197e-05 4.13677e-25)
(0.00911126 1.43181e-05 -2.69029e-25)
(0.00912457 1.56719e-05 5.58431e-25)
(0.00913855 1.68831e-05 8.69508e-25)
(0.00915309 1.79513e-05 -2.46539e-24)
(0.0091681 1.8877e-05 1.49496e-24)
(0.00918348 1.96609e-05 -8.6833e-25)
(0.00919913 2.03051e-05 -3.93801e-25)
(0.00921497 2.08112e-05 7.56958e-25)
(0.00923092 2.11826e-05 -7.98935e-25)
(0.00924688 2.14226e-05 1.27748e-24)
(0.00926281 2.1535e-05 2.9559e-25)
(0.00927858 2.15246e-05 -1.76053e-25)
(0.00759066 5.57261e-06 -2.28345e-25)
(0.00759919 6.76481e-06 9.519e-26)
(0.00760872 7.88054e-06 1.12232e-25)
(0.00761907 8.90515e-06 -1.76968e-25)
(0.00763011 9.84556e-06 1.63229e-25)
(0.00764177 1.06992e-05 -3.02807e-25)
(0.00765394 1.14629e-05 3.32792e-25)
(0.00766655 1.21354e-05 -2.12092e-25)
(0.0076795 1.27156e-05 1.69835e-25)
(0.00769272 1.32035e-05 4.06531e-25)
(0.00770612 1.35992e-05 3.02768e-25)
(0.00771965 1.39041e-05 -1.31429e-24)
(0.0077332 1.41199e-05 -8.1492e-25)
(0.00774674 1.42491e-05 1.2008e-24)
(0.00776015 1.42944e-05 2.88876e-25)
(0.00623134 2.9102e-06 -8.39997e-26)
(0.00623772 3.66986e-06 -4.81145e-27)
(0.00624494 4.39476e-06 -7.59228e-25)
(0.00625284 5.07151e-06 4.77091e-25)
(0.00626136 5.7044e-06 2.26833e-25)
(0.00627043 6.28841e-06 4.87094e-25)
(0.00627996 6.81994e-06 -2.22363e-25)
(0.0062899 7.29678e-06 -8.61014e-25)
(0.00630018 7.71716e-06 1.58649e-24)
(0.00631072 8.08021e-06 -4.96359e-25)
(0.00632145 8.38519e-06 -8.64286e-25)
(0.00633233 8.63256e-06 1.75541e-24)
(0.00634328 8.82268e-06 -9.68883e-25)
(0.00635424 8.95722e-06 2.76421e-25)
(0.00636514 9.03778e-06 -5.36031e-25)
(0.00499282 1.23557e-06 -3.32104e-25)
(0.0049971 1.69171e-06 -2.98698e-25)
(0.00500206 2.14038e-06 1.22211e-25)
(0.00500758 2.56752e-06 6.12494e-25)
(0.00501363 2.97519e-06 -1.40737e-25)
(0.00502016 3.358e-06 1.95377e-25)
(0.00502711 3.7128e-06 -4.37721e-25)
(0.00503443 4.03739e-06 -2.26772e-25)
(0.00504206 4.33002e-06 9.28216e-26)
(0.00504996 4.58958e-06 1.72362e-24)
(0.00505807 4.81507e-06 2.05287e-25)
(0.00506635 5.00643e-06 -1.9402e-24)
(0.00507472 5.1634e-06 2.76053e-25)
(0.00508317 5.28713e-06 6.31458e-25)
(0.00509161 5.37851e-06 -4.67642e-25)
(0.00386821 3.2118e-07 -7.31436e-26)
(0.00387067 5.71686e-07 1.77919e-26)
(0.00387367 8.31392e-07 3.42057e-25)
(0.00387711 1.0843e-06 2.54494e-26)
(0.00388098 1.33083e-06 -2.45939e-25)
(0.00388525 1.56627e-06 -6.66528e-26)
(0.00388988 1.78848e-06 -1.20274e-25)
(0.00389484 1.99567e-06 8.54264e-25)
(0.00390009 2.18651e-06 -7.2193e-25)
(0.00390559 2.36002e-06 -8.08903e-25)
(0.00391131 2.51526e-06 -3.04013e-25)
(0.0039172 2.65198e-06 1.29217e-24)
(0.00392323 2.76971e-06 -3.57844e-25)
(0.00392936 2.86937e-06 4.04944e-25)
(0.00393555 2.95167e-06 -2.39585e-25)
(0.00285005 -7.12179e-08 -1.34771e-25)
(0.0028511 4.43317e-08 2.80201e-26)
(0.00285256 1.77873e-07 2.94849e-25)
(0.00285435 3.13038e-07 -1.74363e-25)
(0.00285647 4.47395e-07 1.38787e-25)
(0.0028589 5.78332e-07 -1.4283e-26)
(0.00286163 7.04415e-07 -5.15655e-25)
(0.00286464 8.24276e-07 9.11532e-25)
(0.00286789 9.37067e-07 -1.05374e-24)
(0.00287137 1.04207e-06 1.00735e-24)
(0.00287505 1.13851e-06 -3.99292e-25)
(0.00287891 1.22607e-06 -8.45183e-26)
(0.00288291 1.30417e-06 -2.63526e-25)
(0.00288703 1.37379e-06 3.58488e-25)
(0.00289124 1.4358e-06 -9.8786e-26)
(0.0019305 -1.57483e-07 2.03079e-25)
(0.00193065 -1.23902e-07 1.40276e-25)
(0.00193105 -7.06756e-08 -6.6265e-25)
(0.00193168 -1.06465e-08 3.8623e-25)
(0.00193254 4.81629e-08 -4.43859e-26)
(0.00193364 1.0894e-07 -7.24526e-26)
(0.00193495 1.69579e-07 -1.12191e-26)
(0.00193647 2.28895e-07 3.37795e-25)
(0.00193819 2.86297e-07 -4.42069e-25)
(0.00194008 3.41226e-07 -1.61655e-25)
(0.00194215 3.93097e-07 8.23298e-25)
(0.00194436 4.41836e-07 -2.81012e-25)
(0.00194671 4.8679e-07 -3.08625e-25)
(0.00194918 5.28227e-07 2.5579e-26)
(0.00195174 5.67273e-07 6.63705e-26)
(0.00110169 -9.53684e-08 -2.09529e-25)
(0.0011014 -9.15682e-08 5.61332e-25)
(0.00110124 -7.26816e-08 1.4786e-25)
(0.00110122 -5.1467e-08 -4.47166e-25)
(0.00110133 -3.32022e-08 -4.31131e-26)
(0.00110159 -1.37053e-08 -4.01244e-27)
(0.00110198 5.7758e-09 -9.01562e-26)
(0.00110251 2.49192e-08 2.31048e-25)
(0.00110317 4.36938e-08 -5.63529e-25)
(0.00110394 6.19633e-08 2.6786e-25)
(0.00110483 7.95249e-08 3.51905e-25)
(0.00110583 9.73323e-08 -2.68435e-25)
(0.00110693 1.15853e-07 5.51046e-25)
(0.00110811 1.31897e-07 -6.26402e-25)
(0.00110938 1.46773e-07 1.43847e-25)
(0.000355884 9.88382e-09 -1.50798e-27)
(0.000355575 6.65076e-08 1.02948e-25)
(0.000355317 1.08312e-07 6.44423e-26)
(0.000355108 1.33959e-07 -1.48913e-25)
(0.000354953 1.46138e-07 6.36829e-26)
(0.000354852 1.4836e-07 -8.11764e-26)
(0.000354805 1.43139e-07 -1.54718e-26)
(0.000354809 1.32731e-07 -2.3938e-25)
(0.000354864 1.18925e-07 3.43918e-25)
(0.000354968 1.0308e-07 1.67239e-25)
(0.000355119 8.6192e-08 -5.79242e-25)
(0.000355315 6.97212e-08 2.92022e-25)
(0.000355553 5.49848e-08 2.05867e-25)
(0.000355832 3.9623e-08 -1.86684e-25)
(0.000356149 2.44957e-08 1.19607e-26)
(0.000976134 -0.000268563 9.89977e-26)
(0.0011159 -0.000195466 2.60519e-24)
(0.00134969 -0.000121466 -7.59337e-24)
(0.00158751 -6.49702e-05 1.12501e-23)
(0.00181361 -2.40167e-05 -4.22141e-24)
(0.00203294 2.38037e-06 -4.20946e-24)
(0.00224543 1.7307e-05 4.84218e-24)
(0.00245174 2.34877e-05 -9.6681e-24)
(0.0026528 2.32695e-05 6.1339e-25)
(0.00284955 1.87207e-05 6.10203e-24)
(0.00304286 1.16463e-05 -1.15179e-24)
(0.00323355 3.68234e-06 1.22676e-24)
(0.00342241 -3.56956e-06 -1.29343e-25)
(0.00361022 -8.41843e-06 7.09723e-25)
(0.00379805 -8.95352e-06 -2.59811e-24)
(0.00398724 -2.98962e-06 1.40585e-24)
(0.00418017 1.18166e-05 -4.11249e-25)
(0.00437991 3.80247e-05 3.62747e-26)
(0.0045916 7.72716e-05 9.477e-25)
(0.00482176 0.000130207 -5.93983e-25)
(0.00507829 0.000194153 7.82247e-26)
(0.00536728 0.00026002 -7.01743e-26)
(0.00566913 0.00030685 1.48709e-25)
(0.00594308 0.000320694 6.20528e-25)
(0.0061731 0.000300932 -1.11279e-24)
(0.00635877 0.000251108 -8.48735e-25)
(0.00650176 0.000175291 -4.6818e-26)
(0.00660393 7.6902e-05 2.24375e-24)
(0.00666606 -4.08259e-05 3.56648e-24)
(0.00668775 -0.000174096 -7.06425e-24)
(0.00666774 -0.000317947 7.01267e-24)
(0.00660463 -0.00046601 -7.116e-24)
(0.0064974 -0.000610624 2.17494e-24)
(0.00634585 -0.000743149 1.3027e-24)
(0.00615069 -0.000854324 -1.38189e-24)
(0.00591346 -0.000934469 1.24166e-24)
(0.00563626 -0.00097338 1.01773e-24)
(0.00532152 -0.000959688 2.05272e-24)
(0.00497205 -0.000879373 1.6634e-24)
(0.00459161 -0.00071354 -7.32858e-24)
(0.00418501 -0.000437876 -1.02636e-25)
(0.00376028 -2.98032e-05 4.03829e-24)
(0.00331324 0.000501079 1.67847e-24)
(0.00287003 0.0010728 -6.03837e-24)
(0.00262347 0.00138162 -3.29186e-25)
(0.0018307 -0.000353395 -2.94854e-24)
(0.00188803 -0.00031565 -4.28263e-24)
(0.00202929 -0.000244384 8.88646e-24)
(0.00220745 -0.000179558 4.32204e-24)
(0.00239509 -0.000127075 -1.51326e-23)
(0.00258705 -8.89829e-05 1.63695e-23)
(0.00277887 -6.3373e-05 -5.89725e-24)
(0.00296856 -4.77152e-05 4.7949e-24)
(0.00315554 -3.96355e-05 -6.32791e-24)
(0.00333983 -3.69413e-05 7.58009e-26)
(0.00352171 -3.76855e-05 -3.2981e-24)
(0.00370165 -4.01016e-05 6.50096e-24)
(0.0038802 -4.24813e-05 -3.53878e-24)
(0.00405797 -4.30637e-05 -3.01567e-24)
(0.00423591 -3.99036e-05 -1.84909e-24)
(0.00441524 -3.08291e-05 3.76844e-24)
(0.00459824 -1.35377e-05 -3.96227e-25)
(0.00478778 1.44572e-05 1.82193e-24)
(0.00498883 5.47101e-05 2.85888e-25)
(0.00520772 0.000107859 -5.29061e-25)
(0.0054522 0.000171409 -2.29109e-25)
(0.00572848 0.000236596 -1.55696e-25)
(0.0060191 0.000283209 7.9717e-25)
(0.00628532 0.000298084 1.08821e-24)
(0.00651122 0.000280572 -8.79768e-25)
(0.00669575 0.000233974 -4.98868e-24)
(0.0068399 0.000162291 6.95514e-24)
(0.00694488 6.9046e-05 -5.13662e-24)
(0.00701108 -4.23268e-05 1.75554e-24)
(0.00703792 -0.000167826 -1.33062e-24)
(0.00702421 -0.000302314 1.048e-23)
(0.00696875 -0.000439363 -1.52336e-23)
(0.00687089 -0.000571348 9.43401e-24)
(0.00673094 -0.000689741 -9.1398e-24)
(0.00655023 -0.000785426 7.7043e-24)
(0.00633117 -0.000848863 -1.54481e-24)
(0.00607713 -0.000869981 4.72769e-24)
(0.00579243 -0.00083763 -1.82029e-25)
(0.0054828 -0.00073838 -6.03248e-24)
(0.00515684 -0.000554629 -4.89057e-24)
(0.00482807 -0.000264053 1.12238e-23)
(0.00452016 0.000154035 -1.18479e-23)
(0.00426147 0.000687557 -3.46731e-24)
(0.00410057 0.00124067 8.29138e-24)
(0.00410152 0.00147594 3.08309e-24)
(0.0028337 -0.000360722 -3.48849e-26)
(0.00284127 -0.000364731 -4.96472e-24)
(0.00289781 -0.000325783 9.44399e-24)
(0.00300682 -0.000271256 8.30525e-24)
(0.00314146 -0.000218602 -1.34465e-23)
(0.00329235 -0.000175152 2.64258e-25)
(0.00345186 -0.000142278 1.3367e-24)
(0.00361532 -0.000118969 1.4697e-23)
(0.00378021 -0.000103543 -1.74042e-23)
(0.00394525 -9.40791e-05 1.06642e-23)
(0.00410988 -8.87028e-05 3.09737e-24)
(0.00427394 -8.56369e-05 -1.7342e-23)
(0.00443757 -8.31364e-05 6.24154e-24)
(0.00460113 -7.94114e-05 2.38318e-24)
(0.00476534 -7.25084e-05 -4.74612e-24)
(0.00493122 -6.02843e-05 7.49785e-24)
(0.00510091 -4.04908e-05 -5.15171e-24)
(0.00527707 -1.07187e-05 -7.02877e-26)
(0.00546445 3.04977e-05 3.81672e-25)
(0.00566916 8.37812e-05 3.99582e-25)
(0.00589876 0.000146837 3.77284e-26)
(0.00615957 0.000211209 2.52348e-25)
(0.00643643 0.00025743 -8.15217e-25)
(0.00669287 0.000273196 2.50875e-24)
(0.00691303 0.000257838 -4.18639e-24)
(0.00709519 0.000214413 2.44984e-24)
(0.00723959 0.000146863 -6.36945e-24)
(0.00734677 5.88098e-05 8.62464e-24)
(0.00741668 -4.61133e-05 -8.78583e-24)
(0.00744855 -0.000163679 -1.98655e-25)
(0.00744126 -0.0002886 -9.10361e-25)
(0.00739386 -0.000414389 1.77254e-23)
(0.0073061 -0.000533477 -6.05986e-24)
(0.00717881 -0.000637494 -4.54746e-24)
(0.00701403 -0.000717564 5.3198e-24)
(0.00681513 -0.00076447 -4.13381e-25)
(0.00658678 -0.000768611 -1.77628e-24)
(0.00633527 -0.000719655 8.95775e-24)
(0.00606919 -0.000605844 -1.90302e-23)
(0.00580135 -0.000413026 7.69143e-24)
(0.0055516 -0.000125233 3.16763e-24)
(0.00535159 0.0002686 5.82419e-24)
(0.00523982 0.00074629 -7.27468e-24)
(0.00524963 0.00120701 2.37014e-24)
(0.00537626 0.00138569 -1.50243e-24)
(0.00396568 -0.000341902 -1.26388e-24)
(0.00394415 -0.000371701 -1.96996e-24)
(0.00395047 -0.000360793 -8.46066e-24)
(0.00399298 -0.000329927 2.14319e-24)
(0.00407051 -0.000287834 1.45011e-24)
(0.00417173 -0.000247205 6.96711e-24)
(0.00428925 -0.000212553 -1.49556e-23)
(0.00441716 -0.000185132 5.65675e-24)
(0.0045515 -0.000164599 1.91334e-23)
(0.00468975 -0.000149762 -5.12083e-24)
(0.00483037 -0.000139133 -4.7504e-24)
(0.00497248 -0.000131124 -7.40975e-25)
(0.00511569 -0.000124078 2.34374e-24)
(0.00525996 -0.000116257 -4.49179e-24)
(0.00540574 -0.000105753 1.06608e-24)
(0.0055538 -9.0486e-05 -3.03396e-25)
(0.00570608 -6.82923e-05 -1.90421e-24)
(0.00586496 -3.68569e-05 7.76111e-25)
(0.00603498 5.17831e-06 3.3186e-24)
(0.00622201 5.84127e-05 -3.61758e-25)
(0.00643336 0.00012077 -7.64413e-25)
(0.00667542 0.000184081 -2.34928e-25)
(0.00693553 0.000229635 -1.43989e-24)
(0.0071797 0.00024609 -1.98648e-25)
(0.00739209 0.000232762 -3.94022e-24)
(0.00757027 0.000192453 6.55864e-24)
(0.00771365 0.000129052 -6.37647e-24)
(0.00782208 4.6283e-05 1.2548e-23)
(0.00789504 -5.20255e-05 -1.15653e-23)
(0.00793158 -0.000161441 2.38161e-24)
(0.00793064 -0.000276544 5.52969e-24)
(0.00789153 -0.000390828 -1.7414e-26)
(0.00781444 -0.000496846 -2.29514e-25)
(0.00770076 -0.000586487 4.84429e-25)
(0.00755327 -0.000651277 -1.7345e-24)
(0.00737626 -0.000682582 -6.18756e-25)
(0.00717569 -0.000671683 7.16426e-24)
(0.00695953 -0.000609707 -3.39746e-24)
(0.00673855 -0.000487538 5.89992e-25)
(0.00652799 -0.000295896 -1.97594e-23)
(0.00634969 -2.70452e-05 1.54499e-23)
(0.00623425 0.000318862 -6.68384e-24)
(0.00621497 0.00071439 1.1679e-24)
(0.00630704 0.00107781 9.19937e-24)
(0.00648723 0.00125017 -2.41483e-24)
(0.00521946 -0.000313042 -5.23963e-24)
(0.00518711 -0.000352587 1.07568e-23)
(0.00516403 -0.00036178 3.11706e-24)
(0.00516487 -0.000351546 1.33949e-23)
(0.00518862 -0.000328194 -3.3052e-23)