/*--------------------------------*- C++ -*----------------------------------*\
| =========                 |                                                 |
| \\      /  F ield         | OpenFOAM: The Open Source CFD Toolbox           |
|  \\    /   O peration     | Version:  2312                                  |
|   \\  /    A nd           | Website:  www.openfoam.com                      |
|    \\/     M anipulation  |                                                 |
\*---------------------------------------------------------------------------*/
FoamFile
{
    version     2.0;
    format      ascii;
    arch        "LSB;label=32;scalar=64";
    class       surfaceScalarField;
    location    "146";
    object      phi;
}
// * * * * * * * * * * * * * * * * * * * * * * * * * * * * * * * * * * * * * //

dimensions      [0 3 -1 0 0 0 0];

oriented        oriented;

internalField   nonuniform List<scalar> 
9445
(
5.79529e-10
9.53335e-12
5.74911e-10
4.61806e-12
5.73233e-10
1.67769e-12
5.73465e-10
-2.31489e-13
5.74964e-10
-1.49974e-12
5.77356e-10
-2.39187e-12
5.80604e-10
-3.24789e-12
5.84744e-10
-4.1397e-12
5.89913e-10
-5.16899e-12
5.96522e-10
-6.60887e-12
6.05709e-10
-9.18701e-12
6.21079e-10
-1.53705e-11
6.55343e-10
-3.42636e-11
7.53105e-10
-9.77624e-11
-2.51495e-10
1.0046e-09
2.02903e-09
4.16379e-11
2.01309e-09
2.0553e-11
2.00688e-09
7.89263e-12
2.0069e-09
-2.58572e-13
2.01101e-09
-5.60543e-12
2.01811e-09
-9.49084e-12
2.02795e-09
-1.3089e-11
2.04053e-09
-1.67181e-11
2.05629e-09
-2.093e-11
2.07644e-09
-2.67564e-11
2.10388e-09
-3.66254e-11
2.14557e-09
-5.70612e-11
2.21489e-09
-1.03592e-10
2.32446e-09
-2.07331e-10
-3.6567e-10
2.43864e-09
4.01307e-09
1.02724e-10
3.98216e-09
5.1466e-11
3.96939e-09
2.0657e-11
3.96823e-09
9.07017e-13
3.97456e-09
-1.19345e-11
3.98646e-09
-2.13956e-11
4.00333e-09
-2.99599e-11
4.02488e-09
-3.82656e-11
4.05169e-09
-4.77429e-11
4.0853e-09
-6.03653e-11
4.12867e-09
-7.9993e-11
4.18651e-09
-1.14901e-10
4.26154e-09
-1.78622e-10
4.33991e-09
-2.85706e-10
-4.11346e-10
4.38559e-09
6.67858e-09
1.99783e-10
6.62845e-09
1.01597e-10
6.60652e-09
4.25828e-11
6.60262e-09
4.81176e-12
6.61029e-09
-1.96078e-11
6.62645e-09
-3.7557e-11
6.65003e-09
-5.35424e-11
6.6801e-09
-6.83326e-11
6.71699e-09
-8.4628e-11
6.76173e-09
-1.05113e-10
6.81567e-09
-1.33931e-10
6.87866e-09
-1.77887e-10
6.94432e-09
-2.4429e-10
6.99286e-09
-3.34245e-10
-4.21353e-10
7.00287e-09
1.02023e-08
3.39339e-10
1.01287e-08
1.75232e-10
1.00946e-08
7.66346e-11
1.00859e-08
1.3487e-11
1.00936e-08
-2.72843e-11
1.01128e-08
-5.67784e-11
1.01419e-08
-8.25962e-11
1.01789e-08
-1.05361e-10
1.02235e-08
-1.29188e-10
1.02754e-08
-1.57021e-10
1.03336e-08
-1.92131e-10
1.03939e-08
-2.38175e-10
1.04461e-08
-2.96561e-10
1.0474e-08
-3.62084e-10
-4.15664e-10
1.04683e-08
1.47914e-08
5.2515e-10
1.46912e-08
2.75387e-10
1.46426e-08
1.25227e-10
1.46271e-08
2.90524e-11
1.46331e-08
-3.32949e-11
1.46539e-08
-7.76069e-11
1.46864e-08
-1.15066e-10
1.47279e-08
-1.46841e-10
1.47767e-08
-1.77995e-10
1.4831e-08
-2.11372e-10
1.48877e-08
-2.48869e-10
1.49408e-08
-2.91207e-10
1.49806e-08
-3.36413e-10
1.49971e-08
-3.78518e-10
-4.06823e-10
1.49882e-08
2.06805e-08
7.54058e-10
2.05546e-08
4.01255e-10
2.04914e-08
1.88511e-10
2.0468e-08
5.24519e-11
2.04711e-08
-3.64223e-11
2.04922e-08
-9.87296e-11
2.05259e-08
-1.48749e-10
2.05689e-08
-1.89894e-10
2.06183e-08
-2.27353e-10
2.06707e-08
-2.63773e-10
2.07218e-08
-2.99958e-10
2.07656e-08
-3.35055e-10
2.07956e-08
-3.66378e-10
2.08069e-08
-3.89813e-10
-4.00687e-10
2.08008e-08
2.81244e-08
1.00994e-09
2.79814e-08
5.44214e-10
2.79083e-08
2.6166e-10
2.78796e-08
8.11389e-11
2.78806e-08
-3.7463e-11
2.79016e-08
-1.197e-10
2.79354e-08
-1.82575e-10
2.79779e-08
-2.32393e-10
2.8025e-08
-2.74425e-10
2.80725e-08
-3.11269e-10
2.81159e-08
-3.43411e-10
2.81508e-08
-3.69933e-10
2.81735e-08
-3.89094e-10
2.81828e-08
-3.99109e-10
-3.98788e-10
2.81809e-08
3.73878e-08
1.25778e-09
3.72487e-08
6.833e-10
3.71789e-08
3.31524e-10
3.71534e-08
1.06607e-10
3.71575e-08
-4.15618e-11
3.7181e-08
-1.4323e-10
3.72163e-08
-2.17821e-10
3.72583e-08
-2.74371e-10
3.73024e-08
-3.18598e-10
3.73446e-08
-3.53453e-10
3.73811e-08
-3.79928e-10
3.74092e-08
-3.98027e-10
3.74276e-08
-4.07477e-10
3.74368e-08
-4.08335e-10
-4.01173e-10
3.74392e-08
4.87444e-08
1.44408e-09
4.86439e-08
7.83779e-10
4.86007e-08
3.74792e-10
4.85946e-08
1.12665e-10
4.8613e-08
-5.99222e-11
4.86467e-08
-1.76936e-10
4.86885e-08
-2.59689e-10
4.87336e-08
-3.19454e-10
4.87778e-08
-3.62767e-10
4.88177e-08
-3.93355e-10
4.8851e-08
-4.1322e-10
4.88765e-08
-4.23589e-10
4.88945e-08
-4.2547e-10
4.89063e-08
-4.20066e-10
-4.0872e-10
4.89138e-08
6.25041e-08
1.51331e-09
6.24823e-08
8.05551e-10
6.24948e-08
3.62379e-10
6.25295e-08
7.78963e-11
6.25781e-08
-1.08538e-10
6.2634e-08
-2.32791e-10
6.26917e-08
-3.17362e-10
6.27473e-08
-3.75125e-10
6.27982e-08
-4.13608e-10
6.28423e-08
-4.37496e-10
6.28789e-08
-4.49847e-10
6.29083e-08
-4.52911e-10
6.29313e-08
-4.48516e-10
6.29497e-08
-4.38411e-10
-4.2417e-10
6.29651e-08
7.90887e-08
1.44146e-09
7.91689e-08
7.253e-10
7.9257e-08
2.74313e-10
7.9349e-08
-1.40496e-11
7.94413e-08
-2.00869e-10
7.95303e-08
-3.21785e-10
7.96131e-08
-4.00187e-10
7.96878e-08
-4.49851e-10
7.97535e-08
-4.79226e-10
7.98098e-08
-4.93851e-10
7.98575e-08
-4.97542e-10
7.98977e-08
-4.93144e-10
7.99321e-08
-4.8285e-10
7.99622e-08
-4.68526e-10
-4.51684e-10
7.99897e-08
9.91185e-08
1.26032e-09
9.92846e-08
5.59169e-10
9.94401e-08
1.18884e-10
9.95859e-08
-1.59859e-10
9.97203e-08
-3.35337e-10
9.98427e-08
-4.44198e-10
9.99523e-08
-5.09748e-10
1.00049e-07
-5.46454e-10
1.00133e-07
-5.635e-10
1.00206e-07
-5.67005e-10
1.0027e-07
-5.61173e-10
1.00326e-07
-5.4904e-10
1.00376e-07
-5.3283e-10
1.00422e-07
-5.14277e-10
-4.94684e-10
1.00465e-07
1.23393e-07
1.03586e-09
1.23595e-07
3.56991e-10
1.23782e-07
-6.75958e-11
1.23953e-07
-3.30916e-10
1.24108e-07
-4.90482e-10
1.24247e-07
-5.83764e-10
1.24372e-07
-6.34112e-10
1.24482e-07
-6.5654e-10
1.24579e-07
-6.60785e-10
1.24665e-07
-6.53299e-10
1.24743e-07
-6.38403e-10
1.24813e-07
-6.19097e-10
1.24877e-07
-5.97463e-10
1.24938e-07
-5.75008e-10
-5.5278e-10
1.24996e-07
1.52686e-07
8.16591e-10
1.52879e-07
1.63829e-10
1.53058e-07
-2.46073e-10
1.5322e-07
-4.92791e-10
1.53367e-07
-6.37364e-10
1.53499e-07
-7.16534e-10
1.53619e-07
-7.53707e-10
1.53727e-07
-7.64244e-10
1.53824e-07
-7.58188e-10
1.53913e-07
-7.42124e-10
1.53995e-07
-7.2035e-10
1.54072e-07
-6.95737e-10
1.54144e-07
-6.70186e-10
1.54214e-07
-6.4498e-10
-6.20933e-10
1.54282e-07
1.87486e-07
6.13548e-10
1.87659e-07
-8.88198e-12
1.87811e-07
-3.97912e-10
1.87946e-07
-6.28001e-10
1.88068e-07
-7.5919e-10
1.88178e-07
-8.2717e-10
1.8828e-07
-8.54865e-10
1.88373e-07
-8.57471e-10
1.8846e-07
-8.44967e-10
1.88541e-07
-8.23847e-10
1.88619e-07
-7.98276e-10
1.88694e-07
-7.70965e-10
1.88768e-07
-7.43639e-10
1.8884e-07
-7.17392e-10
-6.92846e-10
1.88912e-07
2.27849e-07
4.13827e-10
2.28007e-07
-1.67352e-10
2.28135e-07
-5.2522e-10
2.28243e-07
-7.36316e-10
2.28339e-07
-8.54754e-10
2.28425e-07
-9.13804e-10
2.28506e-07
-9.35223e-10
2.28582e-07
-9.33497e-10
2.28655e-07
-9.18112e-10
2.28726e-07
-8.95219e-10
2.28797e-07
-8.68745e-10
2.28867e-07
-8.41201e-10
2.28937e-07
-8.1414e-10
2.29008e-07
-7.88507e-10
-7.64795e-10
2.2908e-07
2.73273e-07
2.0825e-10
2.73422e-07
-3.15825e-10
2.73532e-07
-6.35267e-10
2.7362e-07
-8.24911e-10
2.73696e-07
-9.30231e-10
2.73764e-07
-9.81758e-10
2.73828e-07
-9.99275e-10
2.73891e-07
-9.96057e-10
2.73953e-07
-9.80669e-10
2.74017e-07
-9.58658e-10
2.74081e-07
-9.33605e-10
2.74148e-07
-9.07786e-10
2.74216e-07
-8.82579e-10
2.74287e-07
-8.58795e-10
-8.3683e-10
2.74359e-07
3.22379e-07
-5.87348e-12
3.22522e-07
-4.5806e-10
3.22621e-07
-7.3458e-10
3.22695e-07
-8.99538e-10
3.22756e-07
-9.91124e-10
3.2281e-07
-1.03558e-09
3.22861e-07
-1.05025e-09
3.22912e-07
-1.04688e-09
3.22964e-07
-1.03291e-09
3.23019e-07
-1.01319e-09
3.23076e-07
-9.90801e-10
3.23136e-07
-9.6773e-10
3.23199e-07
-9.45171e-10
3.23264e-07
-9.23813e-10
-9.03875e-10
3.23331e-07
3.72281e-07
-2.17267e-10
3.72394e-07
-5.71382e-10
3.72454e-07
-7.94371e-10
3.72483e-07
-9.29061e-10
3.72498e-07
-1.00527e-09
3.72505e-07
-1.04352e-09
3.72513e-07
-1.0581e-09
3.72524e-07
-1.05744e-09
3.72539e-07
-1.04773e-09
3.72559e-07
-1.03299e-09
3.72583e-07
-1.01577e-09
3.72613e-07
-9.97661e-10
3.72648e-07
-9.79609e-10
3.72686e-07
-9.62166e-10
-9.45669e-10
3.72728e-07
3.70293e-07
-3.89423e-10
3.70382e-07
-6.59674e-10
3.70421e-07
-8.33738e-10
3.70433e-07
-9.41103e-10
3.70432e-07
-1.00379e-09
3.70425e-07
-1.03669e-09
3.70417e-07
-1.05038e-09
3.70412e-07
-1.05202e-09
3.7041e-07
-1.04615e-09
3.70413e-07
-1.03581e-09
3.7042e-07
-1.02299e-09
3.70431e-07
-1.00895e-09
3.70446e-07
-9.94434e-10
3.70464e-07
-9.79886e-10
-9.65518e-10
3.70484e-07
3.1743e-07
-4.65127e-10
3.17449e-07
-6.78134e-10
3.17434e-07
-8.18994e-10
3.17401e-07
-9.08764e-10
3.17361e-07
-9.63664e-10
3.1732e-07
-9.94922e-10
3.1728e-07
-1.01041e-09
3.17243e-07
-1.01557e-09
3.17211e-07
-1.01402e-09
3.17183e-07
-1.00815e-09
3.1716e-07
-9.99557e-10
3.1714e-07
-9.8923e-10
3.17124e-07
-9.77777e-10
3.17109e-07
-9.65561e-10
-9.52788e-10
3.17096e-07
2.66329e-07
-5.11604e-10
2.66327e-07
-6.75904e-10
2.66295e-07
-7.87409e-10
2.66247e-07
-8.60855e-10
2.66191e-07
-9.07791e-10
2.66133e-07
-9.36314e-10
2.66074e-07
-9.52216e-10
2.66018e-07
-9.59464e-10
2.65965e-07
-9.6077e-10
2.65915e-07
-9.57975e-10
2.65868e-07
-9.52278e-10
2.65823e-07
-9.44457e-10
2.6578e-07
-9.34988e-10
2.65739e-07
-9.24163e-10
-9.12145e-10
2.65698e-07
2.19812e-07
-5.21953e-10
2.19784e-07
-6.47889e-10
2.19732e-07
-7.35499e-10
2.19666e-07
-7.95091e-10
2.19593e-07
-8.34791e-10
2.19517e-07
-8.6033e-10
2.19441e-07
-8.75818e-10
2.19365e-07
-8.841e-10
2.19292e-07
-8.87154e-10
2.1922e-07
-8.86331e-10
2.1915e-07
-8.82529e-10
2.19082e-07
-8.76342e-10
2.19015e-07
-8.68133e-10
2.18949e-07
-8.5814e-10
-8.46486e-10
2.18884e-07
1.78959e-07
-4.9695e-10
1.78905e-07
-5.93344e-10
1.78831e-07
-6.62202e-10
1.78747e-07
-7.10619e-10
1.78656e-07
-7.44271e-10
1.78563e-07
-7.67128e-10
1.78469e-07
-7.82004e-10
1.78376e-07
-7.90878e-10
1.78284e-07
-7.95153e-10
1.78194e-07
-7.95796e-10
1.78105e-07
-7.93462e-10
1.78017e-07
-7.88595e-10
1.7793e-07
-7.81474e-10
1.77844e-07
-7.72287e-10
-7.61137e-10
1.77759e-07
1.43951e-07
-4.43389e-10
1.43876e-07
-5.17808e-10
1.43786e-07
-5.72547e-10
1.43688e-07
-6.12502e-10
1.43585e-07
-6.41533e-10
1.4348e-07
-6.62304e-10
1.43375e-07
-6.76701e-10
1.4327e-07
-6.86083e-10
1.43166e-07
-6.91424e-10
1.43064e-07
-6.93407e-10
1.42963e-07
-6.92499e-10
1.42864e-07
-6.89027e-10
1.42765e-07
-6.83204e-10
1.42668e-07
-6.75185e-10
-6.65062e-10
1.42572e-07
1.14516e-07
-3.73689e-10
1.1443e-07
-4.32057e-10
1.14334e-07
-4.76387e-10
1.14231e-07
-5.10095e-10
1.14125e-07
-5.357e-10
1.14018e-07
-5.54922e-10
1.1391e-07
-5.69013e-10
1.13803e-07
-5.78898e-10
1.13697e-07
-5.85249e-10
1.13592e-07
-5.88541e-10
1.13489e-07
-5.89106e-10
1.13387e-07
-5.87184e-10
1.13287e-07
-5.8294e-10
1.13188e-07
-5.76504e-10
-5.67957e-10
1.13091e-07
9.01598e-08
-3.00728e-10
9.00749e-08
-3.47195e-10
8.99822e-08
-3.83672e-10
8.98847e-08
-4.12561e-10
8.97844e-08
-4.35406e-10
8.96828e-08
-4.53288e-10
8.95808e-08
-4.67032e-10
8.94791e-08
-4.77262e-10
8.93783e-08
-4.84433e-10
8.92786e-08
-4.88871e-10
8.91803e-08
-4.90808e-10
8.90836e-08
-4.90423e-10
8.89885e-08
-4.87841e-10
8.88952e-08
-4.83173e-10
-4.76486e-10
8.88037e-08
7.02816e-08
-2.33475e-10
7.0205e-08
-2.70678e-10
7.01222e-08
-3.00855e-10
7.00353e-08
-3.25654e-10
6.99458e-08
-3.45933e-10
6.98549e-08
-3.62356e-10
6.97633e-08
-3.75466e-10
6.96718e-08
-3.85673e-10
6.95806e-08
-3.93277e-10
6.94902e-08
-3.98496e-10
6.94009e-08
-4.01492e-10
6.93129e-08
-4.02396e-10
6.92263e-08
-4.01302e-10
6.91415e-08
-3.98302e-10
-3.93448e-10
6.90584e-08
5.42407e-08
-1.76086e-10
5.41757e-08
-2.05679e-10
5.41053e-08
-2.30463e-10
5.40311e-08
-2.51468e-10
5.39543e-08
-2.69101e-10
5.38757e-08
-2.83773e-10
5.37961e-08
-2.95834e-10
5.37159e-08
-3.05541e-10
5.36358e-08
-3.13085e-10
5.35559e-08
-3.18608e-10
5.34766e-08
-3.22222e-10
5.33982e-08
-3.24019e-10
5.3321e-08
-3.24071e-10
5.32451e-08
-3.22447e-10
-3.19183e-10
5.31709e-08
4.14156e-08
-1.29317e-10
4.13624e-08
-1.52448e-10
4.13043e-08
-1.72421e-10
4.12426e-08
-1.8976e-10
4.11781e-08
-2.04614e-10
4.11116e-08
-2.17242e-10
4.10436e-08
-2.27858e-10
4.09747e-08
-2.36616e-10
4.09052e-08
-2.43631e-10
4.08356e-08
-2.48991e-10
4.07662e-08
-2.52773e-10
4.06972e-08
-2.55038e-10
4.0629e-08
-2.55838e-10
4.05617e-08
-2.55221e-10
-2.53208e-10
4.04958e-08
3.12407e-08
-9.22729e-11
3.11982e-08
-1.09882e-10
3.11513e-08
-1.25523e-10
3.11009e-08
-1.39339e-10
3.10476e-08
-1.51365e-10
3.09921e-08
-1.61766e-10
3.09349e-08
-1.70664e-10
3.08765e-08
-1.78144e-10
3.08171e-08
-1.84271e-10
3.07572e-08
-1.89098e-10
3.06971e-08
-1.92672e-10
3.06371e-08
-1.95034e-10
3.05775e-08
-1.96216e-10
3.05185e-08
-1.96248e-10
-1.95141e-10
3.04604e-08
2.32245e-08
-6.35662e-11
2.31911e-08
-7.65274e-11
2.31539e-08
-8.83156e-11
2.31134e-08
-9.88502e-11
2.30702e-08
-1.08141e-10
2.30247e-08
-1.16289e-10
2.29774e-08
-1.23358e-10
2.29287e-08
-1.2939e-10
2.28788e-08
-1.34419e-10
2.28282e-08
-1.38471e-10
2.27771e-08
-1.41575e-10
2.27258e-08
-1.43754e-10
2.26746e-08
-1.45028e-10
2.26238e-08
-1.45412e-10
-1.44908e-10
2.25735e-08
1.69516e-08
-4.18419e-11
1.69261e-08
-5.09869e-11
1.68972e-08
-5.94419e-11
1.68654e-08
-6.70525e-11
1.68311e-08
-7.38383e-11
1.67947e-08
-7.986e-11
1.67565e-08
-8.51464e-11
1.67168e-08
-8.97133e-11
1.66759e-08
-9.3575e-11
1.66342e-08
-9.67431e-11
1.65919e-08
-9.92322e-11
1.65492e-08
-1.01053e-10
1.65064e-08
-1.02217e-10
1.64637e-08
-1.02729e-10
-1.02587e-10
1.64214e-08
1.20779e-08
-2.59135e-11
1.2059e-08
-3.20136e-11
1.20372e-08
-3.76931e-11
1.2013e-08
-4.28264e-11
1.19866e-08
-4.7448e-11
1.19583e-08
-5.15914e-11
1.19284e-08
-5.5266e-11
1.18972e-08
-5.84748e-11
1.18649e-08
-6.12209e-11
1.18316e-08
-6.35068e-11
1.17977e-08
-6.53386e-11
1.17634e-08
-6.672e-11
1.17288e-08
-6.7657e-11
1.16942e-08
-6.81477e-11
-6.81868e-11
1.16598e-08
8.32112e-09
-1.47208e-11
8.3076e-09
-1.84874e-11
8.29187e-09
-2.19698e-11
8.27417e-09
-2.5124e-11
8.25471e-09
-2.79893e-11
8.2337e-09
-3.05822e-11
8.21134e-09
-3.29029e-11
8.18782e-09
-3.4949e-11
8.16331e-09
-3.67183e-11
8.13802e-09
-3.82095e-11
8.1121e-09
-3.94237e-11
8.08574e-09
-4.03611e-11
8.05911e-09
-4.10245e-11
8.03237e-09
-4.14096e-11
-4.15082e-11
8.00569e-09
5.45141e-09
-7.32567e-12
5.44231e-09
-9.39082e-12
5.43159e-09
-1.1248e-11
5.4194e-09
-1.29327e-11
5.40589e-09
-1.44769e-11
5.39119e-09
-1.58868e-11
5.37545e-09
-1.71598e-11
5.35879e-09
-1.8292e-11
5.34136e-09
-1.92803e-11
5.32327e-09
-2.01221e-11
5.30466e-09
-2.08167e-11
5.28566e-09
-2.13631e-11
5.2664e-09
-2.17623e-11
5.247e-09
-2.20099e-11
-2.20965e-11
5.22759e-09
3.28274e-09
-2.88537e-12
3.27715e-09
-3.80262e-12
3.27048e-09
-4.57423e-12
3.26282e-09
-5.27688e-12
3.25427e-09
-5.92819e-12
3.24492e-09
-6.52872e-12
3.23483e-09
-7.07579e-12
3.22411e-09
-7.56643e-12
3.21282e-09
-7.99832e-12
3.20107e-09
-8.36941e-12
3.18893e-09
-8.67892e-12
3.1765e-09
-8.92563e-12
3.16384e-09
-9.11006e-12
3.15106e-09
-9.22911e-12
-9.27417e-12
3.13824e-09
1.66514e-09
-6.56213e-13
1.66224e-09
-9.07087e-13
1.65875e-09
-1.08072e-12
1.65471e-09
-1.24235e-12
1.65018e-09
-1.39575e-12
1.64519e-09
-1.53946e-12
1.63979e-09
-1.67186e-12
1.63401e-09
-1.79155e-12
1.62791e-09
-1.89754e-12
1.62153e-09
-1.989e-12
1.61492e-09
-2.06562e-12
1.60812e-09
-2.12692e-12
1.60118e-09
-2.17305e-12
1.59416e-09
-2.20264e-12
-2.21056e-12
1.58709e-09
4.7821e-10
4.77303e-10
4.76222e-10
4.74979e-10
4.73584e-10
4.72044e-10
4.70372e-10
4.68581e-10
4.66683e-10
4.64694e-10
4.62629e-10
4.60502e-10
4.58329e-10
4.56126e-10
4.53916e-10
1.20385e-09
-4.69779e-10
2.70526e-10
1.49084e-09
-3.78612e-10
9.16275e-11
1.7818e-09
-2.1983e-10
-7.1131e-11
2.07017e-09
-5.79575e-11
-2.30414e-10
2.35378e-09
1.00986e-10
-3.84593e-10
2.6332e-09
2.48005e-10
-5.27426e-10
2.90961e-09
3.79757e-10
-6.56173e-10
3.1839e-09
4.93035e-10
-7.67325e-10
3.45674e-09
5.84159e-10
-8.56999e-10
3.72864e-09
6.49037e-10
-9.20932e-10
3.99996e-09
6.83108e-10
-9.5443e-10
4.27096e-09
6.81384e-10
-9.52387e-10
4.54179e-09
6.38506e-10
-9.09335e-10
4.81253e-09
5.49314e-10
-8.20048e-10
5.08324e-09
4.1009e-10
-6.80806e-10
5.35428e-09
2.21241e-10
-4.92276e-10
5.62658e-09
-9.28963e-12
-2.63013e-10
5.90249e-09
-2.60091e-10
-1.5822e-11
6.18643e-09
-4.94493e-10
2.10555e-10
6.48546e-09
-6.53961e-10
3.5493e-10
6.80852e-09
-6.82403e-10
3.5935e-10
7.16228e-09
-5.42999e-10
1.89239e-10
7.49089e-09
-2.80509e-10
-4.81022e-11
7.76682e-09
-1.60155e-10
-1.15779e-10
7.98618e-09
-2.11993e-10
-7.36172e-12
8.14902e-09
-3.84876e-10
2.22031e-10
8.25784e-09
-6.30751e-10
5.21933e-10
8.31562e-09
-9.13946e-10
8.56168e-10
8.32468e-09
-1.20758e-09
1.19851e-09
8.28626e-09
-1.48541e-09
1.52383e-09
8.20194e-09
-1.72825e-09
1.81258e-09
8.07365e-09
-1.91259e-09
2.04087e-09
7.90316e-09
-2.0115e-09
2.18199e-09
7.693e-09
-2.00907e-09
2.21924e-09
7.44616e-09
-1.89413e-09
2.14096e-09
7.16574e-09
-1.66101e-09
1.94143e-09
6.8546e-09
-1.30843e-09
1.61957e-09
6.51541e-09
-8.36663e-10
1.17585e-09
6.15094e-09
-2.43895e-10
6.08371e-10
5.76305e-09
4.76458e-10
-8.85751e-11
5.35023e-09
1.3292e-09
-9.16384e-10
4.89885e-09
2.28964e-09
-1.83825e-09
4.38204e-09
3.23282e-09
-2.71601e-09
3.80332e-09
3.85178e-09
-3.27306e-09
3.38284e-09
3.45339e-09
-3.03291e-09
2.51839e-09
-5.49529e-10
2.69189e-09
-5.52119e-10
2.92809e-09
-4.56021e-10
3.19299e-09
-3.22861e-10
3.47217e-09
-1.782e-10
3.75807e-09
-3.7885e-11
4.04742e-09
9.04051e-11
4.33871e-09
2.0174e-10
4.63124e-09
2.91635e-10
4.92465e-09
3.55618e-10
5.21879e-09
3.88977e-10
5.51347e-09
3.86698e-10
5.80853e-09
3.43449e-10
6.10373e-09
2.54111e-10
6.39886e-09
1.14961e-10
6.69394e-09
-7.38331e-11
6.98958e-09
-3.04933e-10
7.28784e-09
-5.58348e-10
7.59294e-09
-7.99596e-10
7.91199e-09
-9.73011e-10
8.25432e-09
-1.02473e-09
8.62742e-09
-9.16106e-10
8.97392e-09
-6.27003e-10
9.26582e-09
-4.52054e-10
9.49915e-09
-4.45323e-10
9.67366e-09
-5.59385e-10
9.79152e-09
-7.4861e-10
9.85549e-09
-9.77926e-10
9.86783e-09
-1.21992e-09
9.82969e-09
-1.44727e-09
9.74299e-09
-1.64155e-09
9.61021e-09
-1.77981e-09
9.43369e-09
-1.83498e-09
9.21685e-09
-1.79224e-09
8.96402e-09
-1.64129e-09
8.68004e-09
-1.37703e-09
8.37034e-09
-9.98725e-10
8.04136e-09
-5.07687e-10
7.70196e-09
9.55034e-11
7.36516e-09
8.13263e-10
7.04991e-09
1.64445e-09
6.77985e-09
2.55969e-09
6.58463e-09
3.42805e-09
6.496e-09
3.94041e-09
3.48561e-09
6.39323e-09
4.40271e-09
-5.66647e-10
4.48257e-09
-6.3198e-10
4.63736e-09
-6.10811e-10
4.8483e-09
-5.338e-10
5.09517e-09
-4.25067e-10
5.36488e-09
-3.07603e-10
5.64937e-09
-1.94085e-10
5.94371e-09
-9.25907e-11
6.24486e-09
-9.51712e-12
6.55095e-09
4.95263e-11
6.86072e-09
7.92104e-11
7.17319e-09
7.42229e-11
7.48755e-09
2.90868e-11
7.80303e-09
-6.13667e-11
8.11889e-09
-2.00902e-10
8.43465e-09
-3.89594e-10
8.75041e-09
-6.20692e-10
9.06772e-09
-8.7565e-10
9.39039e-09
-1.12227e-09
9.72531e-09
-1.30794e-09
1.0082e-08
-1.38143e-09
1.04687e-08
-1.30281e-09
1.08276e-08
-9.85905e-10
1.11309e-08
-7.55318e-10
1.13746e-08
-6.89001e-10
1.1558e-08
-7.42841e-10
1.1683e-08
-8.73575e-10
1.17519e-08
-1.04684e-09
1.17668e-08
-1.23482e-09
1.17288e-08
-1.40925e-09
1.16401e-08
-1.55289e-09
1.1504e-08
-1.6437e-09
1.13234e-08
-1.6544e-09
1.1103e-08
-1.57181e-09
1.08486e-08
-1.38688e-09
1.05673e-08
-1.09571e-09
1.02675e-08
-6.98963e-10
9.96017e-09
-2.0034e-10
9.66058e-09
3.95096e-10
9.39238e-09
1.08147e-09
9.19085e-09
1.84598e-09
9.10174e-09
2.6488e-09
9.16142e-09
3.36838e-09
9.33416e-09
3.76766e-09
3.42316e-09
9.39661e-09
6.98565e-09
-5.49423e-10
7.00298e-09
-6.49309e-10
7.07726e-09
-6.85091e-10
7.21502e-09
-6.71563e-10
7.40497e-09
-6.15016e-10
7.63353e-09
-5.36163e-10
7.89046e-09
-4.51015e-10
8.16813e-09
-3.70259e-10
8.46109e-09
-3.02482e-10
8.76554e-09
-2.54925e-10
9.07871e-09
-2.33957e-10
9.39842e-09
-2.45489e-10
9.72288e-09
-2.95368e-10
1.00505e-08
-3.88967e-10
1.03797e-08
-5.30153e-10
1.07094e-08
-7.19259e-10
1.10388e-08
-9.50118e-10
1.13688e-08
-1.20563e-09
1.17025e-08
-1.45594e-09
1.20462e-08
-1.65167e-09
1.24094e-08
-1.74463e-09
1.28008e-08
-1.69423e-09
1.31637e-08
-1.34882e-09
1.34712e-08
-1.06278e-09
1.37194e-08
-9.37166e-10
1.39072e-08
-9.30634e-10
1.40357e-08
-1.00216e-09
1.41071e-08
-1.11817e-09
1.41229e-08
-1.25062e-09
1.40842e-08
-1.37057e-09
1.39937e-08
-1.46241e-09
1.38554e-08
-1.50534e-09
1.36729e-08
-1.47196e-09
1.34524e-08
-1.35128e-09
1.32015e-08
-1.13599e-09
1.29297e-08
-8.23947e-10
1.26488e-08
-4.1806e-10
1.23739e-08
7.45847e-11
1.21257e-08
6.43307e-10
1.19342e-08
1.27301e-09
1.18406e-08
1.93955e-09
1.18917e-08
2.59772e-09
1.21096e-08
3.15046e-09
1.24407e-08
3.43653e-09
3.23282e-09
1.26311e-08
1.04378e-08
-5.18901e-10
1.04182e-08
-6.29782e-10
1.04335e-08
-7.00372e-10
1.04967e-08
-7.34729e-10
1.06156e-08
-7.33944e-10
1.07828e-08
-7.03362e-10
1.09894e-08
-6.57618e-10
1.12277e-08
-6.08598e-10
1.14912e-08
-5.65961e-10
1.17746e-08
-5.38266e-10
1.20735e-08
-5.32927e-10
1.23846e-08
-5.56563e-10
1.27048e-08
-6.15553e-10
1.30314e-08
-7.15599e-10
1.3362e-08
-8.60746e-10
1.36944e-08
-1.05159e-09
1.40268e-08
-1.28252e-09
1.4359e-08
-1.53786e-09
1.46932e-08
-1.79018e-09
1.50349e-08
-1.99336e-09
1.5393e-08
-2.10267e-09
1.57763e-08
-2.07756e-09
1.61312e-08
-1.70373e-09
1.64324e-08
-1.36402e-09
1.66763e-08
-1.18105e-09
1.68613e-08
-1.11561e-09
1.69878e-08
-1.12871e-09
1.70573e-08
-1.18761e-09
1.70708e-08
-1.26414e-09
1.70297e-08
-1.32945e-09
1.69371e-08
-1.36985e-09
1.67972e-08
-1.36541e-09
1.66149e-08
-1.28973e-09
1.6398e-08
-1.1343e-09
1.61558e-08
-8.9387e-10
1.59005e-08
-5.68611e-10
1.56466e-08
-1.64201e-10
1.54126e-08
3.0864e-10
1.52221e-08
8.33839e-10
1.51057e-08
1.38937e-09
1.51007e-08
1.9445e-09
1.52428e-08
2.45569e-09
1.55386e-08
2.8546e-09
1.59261e-08
3.04903e-09
2.94231e-09
1.62166e-08
1.49579e-08
-4.88625e-10
1.49219e-08
-5.93767e-10
1.49034e-08
-6.8187e-10
1.49134e-08
-7.44648e-10
1.49638e-08
-7.84411e-10
1.50614e-08
-8.00903e-10
1.52027e-08
-7.98921e-10
1.53823e-08
-7.88236e-10
1.5595e-08
-7.78662e-10
1.58356e-08
-7.78815e-10
1.60991e-08
-7.96493e-10
1.63812e-08
-8.38667e-10
1.66779e-08
-9.12182e-10
1.69853e-08
-1.02304e-09
1.73e-08
-1.17544e-09
1.76186e-08
-1.37019e-09
1.79382e-08
-1.60217e-09
1.82574e-08
-1.85704e-09
1.8577e-08
-2.1098e-09
1.89012e-08
-2.31756e-09
1.92379e-08
-2.43938e-09
1.95958e-08
-2.43542e-09
1.99264e-08
-2.03435e-09
2.02072e-08
-1.64476e-09
2.04345e-08
-1.40841e-09
2.06064e-08
-1.2875e-09
2.07226e-08
-1.24484e-09
2.07832e-08
-1.24829e-09
2.07894e-08
-1.27025e-09
2.07424e-08
-1.28253e-09
2.06468e-08
-1.27419e-09
2.0505e-08
-1.22364e-09
2.03244e-08
-1.10916e-09
2.01141e-08
-9.24004e-10
1.98855e-08
-6.65241e-10
1.96525e-08
-3.35592e-10
1.94319e-08
5.63996e-11
1.92436e-08
4.9698e-10
1.91111e-08
9.66343e-10
1.9061e-08
1.43945e-09
1.91203e-08
1.88513e-09
1.9309e-08
2.26703e-09
1.96213e-08
2.54233e-09
2.00036e-08
2.66671e-09
2.60638e-09
2.03395e-08
2.07777e-08
-4.65591e-10
2.07428e-08
-5.58868e-10
2.07094e-08
-6.4841e-10
2.06912e-08
-7.26457e-10
2.0696e-08
-7.89216e-10
2.07337e-08
-8.38582e-10
2.0809e-08
-8.7423e-10
2.09222e-08
-9.01422e-10
2.10705e-08
-9.26985e-10
2.12508e-08
-9.5913e-10
2.14592e-08
-1.00491e-09
2.16914e-08
-1.07081e-09
2.19429e-08
-1.16377e-09
2.22097e-08
-1.28979e-09
2.24872e-08
-1.45299e-09
2.27712e-08
-1.65418e-09
2.30576e-08
-1.88858e-09
2.33436e-08
-2.14299e-09
2.36286e-08
-2.39479e-09
2.39151e-08
-2.60407e-09
2.42096e-08
-2.73388e-09
2.45199e-08
-2.74573e-09
2.48057e-08
-2.32011e-09
2.50477e-08
-1.88678e-09
2.52425e-08
-1.60327e-09
2.53876e-08
-1.43255e-09
2.54817e-08
-1.33896e-09
2.55233e-08
-1.28984e-09
2.55146e-08
-1.26154e-09
2.54577e-08
-1.22565e-09
2.53555e-08
-1.17207e-09
2.52102e-08
-1.07832e-09
2.50315e-08
-9.30458e-10
2.48299e-08
-7.22368e-10
2.46181e-08
-4.53406e-10
2.44113e-08
-1.28819e-10
2.4227e-08
2.40708e-10
2.40847e-08
6.39223e-10
2.4005e-08
1.04606e-09
2.40075e-08
1.43694e-09
2.41076e-08
1.78502e-09
2.4311e-08
2.06366e-09
2.46046e-08
2.24877e-09
2.49482e-08
2.32311e-09
2.2809e-09
2.52737e-08
2.81669e-08
-4.51568e-10
2.81411e-08
-5.3309e-10
2.81098e-08
-6.17081e-10
2.80816e-08
-6.98244e-10
2.80652e-08
-7.72851e-10
2.80669e-08
-8.4028e-10
2.80935e-08
-9.00786e-10
2.81483e-08
-9.56223e-10
2.82337e-08
-1.01245e-09
2.83488e-08
-1.07419e-09
2.84917e-08
-1.14782e-09
2.86594e-08
-1.23848e-09
2.88484e-08
-1.3528e-09
2.90548e-08
-1.49619e-09
2.92741e-08
-1.6723e-09
2.95014e-08
-1.88153e-09
2.9732e-08
-2.11911e-09
2.99617e-08
-2.37271e-09
3.01888e-08
-2.62188e-09
3.04139e-08
-2.82922e-09
3.06418e-08
-2.96178e-09
3.08789e-08
-2.98281e-09
3.10959e-08
-2.53709e-09
3.12778e-08
-2.06865e-09
3.14209e-08
-1.74645e-09
3.15222e-08
-1.53384e-09
3.15793e-08
-1.39598e-09
3.15888e-08
-1.29935e-09
3.15553e-08
-1.22809e-09
3.14825e-08
-1.15285e-09
3.13673e-08
-1.05681e-09
3.12149e-08
-9.25998e-10
3.10366e-08
-7.52166e-10
3.08437e-08
-5.29461e-10
3.06496e-08
-2.5932e-10
3.04699e-08
5.09229e-11
3.03211e-08
3.89497e-10
3.02205e-08
7.39825e-10
3.01837e-08
1.08283e-09
3.02229e-08
1.39779e-09
3.03435e-08
1.66439e-09
3.05418e-08
1.86538e-09
3.08017e-08
1.9889e-09
3.10938e-08
2.03094e-09
1.99622e-09
3.13785e-08
3.74334e-08
-4.4575e-10
3.74183e-08
-5.17967e-10
3.73963e-08
-5.95137e-10
3.73722e-08
-6.741e-10
3.73515e-08
-7.52192e-10
3.73395e-08
-8.28198e-10
3.73413e-08
-9.02606e-10
3.73601e-08
-9.75021e-10
3.73987e-08
-1.05109e-09
3.74602e-08
-1.13566e-09
3.7543e-08
-1.23067e-09
3.76459e-08
-1.34137e-09
3.77671e-08
-1.47392e-09
3.79034e-08
-1.63252e-09
3.8051e-08
-1.81995e-09
3.82053e-08
-2.03581e-09
3.83611e-08
-2.27492e-09
3.8514e-08
-2.52557e-09
3.86612e-08
-2.76911e-09
3.88019e-08
-2.96992e-09
3.89389e-08
-3.0988e-09
3.9077e-08
-3.1209e-09
3.92009e-08
-2.66098e-09
3.93004e-08
-2.16815e-09
3.93715e-08
-1.81759e-09
3.94098e-08
-1.57213e-09
3.94104e-08
-1.3966e-09
3.93784e-08
-1.26736e-09
3.93115e-08
-1.16116e-09
3.92073e-08
-1.04863e-09
3.90697e-08
-9.19218e-10
3.89061e-08
-7.62386e-10
3.87252e-08
-5.71263e-10
3.85389e-08
-3.4313e-10
3.83607e-08
-8.11117e-11
3.8205e-08
2.06619e-10
3.80866e-08
5.07812e-10
3.8019e-08
8.07518e-10
3.80122e-08
1.08962e-09
3.80717e-08
1.33829e-09
3.81963e-08
1.53977e-09
3.83774e-08
1.68424e-09
3.85992e-08
1.76713e-09
3.88401e-08
1.79006e-09
1.76027e-09
3.9076e-08
4.89159e-08
-4.47811e-10
4.89112e-08
-5.13249e-10
4.89006e-08
-5.84535e-10
4.88864e-08
-6.59963e-10
4.88721e-08
-7.37828e-10
4.8861e-08
-8.17136e-10
4.88563e-08
-8.97887e-10
4.88622e-08
-9.80926e-10
4.88784e-08
-1.06736e-09
4.89067e-08
-1.16389e-09
4.89485e-08
-1.27252e-09
4.9003e-08
-1.39582e-09
4.90678e-08
-1.53879e-09
4.9141e-08
-1.70569e-09
4.92192e-08
-1.89814e-09
4.92981e-08
-2.11465e-09
4.93728e-08
-2.34964e-09
4.9439e-08
-2.59174e-09
4.94936e-08
-2.82375e-09
4.95347e-08
-3.01103e-09
4.95637e-08
-3.12778e-09
4.95836e-08
-3.1408e-09
4.95954e-08
-2.67282e-09
4.95945e-08
-2.16723e-09
4.95762e-08
-1.79925e-09
4.95365e-08
-1.53251e-09
4.94715e-08
-1.3316e-09
4.93792e-08
-1.17502e-09
4.92588e-08
-1.04078e-09
4.91145e-08
-9.0426e-10
4.89485e-08
-7.5325e-10
4.87667e-08
-5.80592e-10
4.8578e-08
-3.82586e-10
4.83938e-08
-1.58951e-10
4.82265e-08
8.62152e-11
4.80887e-08
3.44473e-10
4.7992e-08
6.04513e-10
4.79454e-08
8.54108e-10
4.79541e-08
1.08086e-09
4.80187e-08
1.27375e-09
4.8134e-08
1.42441e-09
4.82902e-08
1.52808e-09
4.84732e-08
1.58414e-09
4.86671e-08
1.5961e-09
1.57077e-09
4.88566e-08
6.29768e-08
-4.59522e-10
6.29837e-08
-5.20169e-10
6.29861e-08
-5.86907e-10
6.29851e-08
-6.58947e-10
6.29826e-08
-7.35348e-10
6.29809e-08
-8.15448e-10
6.29822e-08
-8.99157e-10
6.29885e-08
-9.87252e-10
6.30017e-08
-1.0805e-09
6.30201e-08
-1.18237e-09
6.30437e-08
-1.29603e-09
6.30724e-08
-1.42456e-09
6.31044e-08
-1.57081e-09
6.31362e-08
-1.73751e-09
6.31641e-08
-1.92599e-09
6.31831e-08
-2.13362e-09
6.3189e-08
-2.35559e-09
6.31774e-08
-2.58015e-09
6.31444e-08
-2.79069e-09
6.30877e-08
-2.95439e-09
6.30079e-08
-3.04793e-09
6.29064e-08
-3.03931e-09
6.28009e-08
-2.56733e-09
6.2693e-08
-2.05939e-09
6.25774e-08
-1.6836e-09
6.24501e-08
-1.40522e-09
6.23081e-08
-1.18961e-09
6.21482e-08
-1.01508e-09
6.19701e-08
-8.62743e-10
6.17778e-08
-7.11933e-10
6.15754e-08
-5.50865e-10
6.13691e-08
-3.74209e-10
6.1167e-08
-1.80488e-10
6.09794e-08
2.85896e-11
6.08162e-08
2.49451e-10
6.06878e-08
4.72878e-10
6.06019e-08
6.90372e-10
6.05636e-08
8.92473e-10
6.0574e-08
1.07045e-09
6.06304e-08
1.21732e-09
6.07263e-08
1.32851e-09
6.0852e-08
1.40236e-09
6.09961e-08
1.44003e-09
6.11469e-08
1.44531e-09
1.42374e-09
6.12939e-08
8.00146e-08
-4.84421e-10
8.00362e-08
-5.41805e-10
8.00546e-08
-6.05231e-10
8.00701e-08
-6.74464e-10
8.00838e-08
-7.49113e-10
8.00972e-08
-8.2885e-10
8.01117e-08
-9.13638e-10
8.01284e-08
-1.00395e-09
8.01485e-08
-1.10063e-09
8.01713e-08
-1.20511e-09
8.01956e-08
-1.32037e-09
8.02197e-08
-1.44868e-09
8.02413e-08
-1.59232e-09
8.02562e-08
-1.75245e-09
8.02589e-08
-1.92868e-09
8.02451e-08
-2.11985e-09
8.02099e-08
-2.32037e-09
8.01462e-08
-2.51651e-09
8.00497e-08
-2.6941e-09
7.99186e-08
-2.82331e-09
7.97519e-08
-2.88121e-09
7.95493e-08
-2.83675e-09
7.93426e-08
-2.36061e-09
7.91399e-08
-1.85672e-09
7.89358e-08
-1.47943e-09
7.87264e-08
-1.19588e-09
7.85101e-08
-9.73285e-10
7.8285e-08
-7.90011e-10
7.80511e-08
-6.28859e-10
7.78121e-08
-4.72863e-10
7.75735e-08
-3.12249e-10
7.73414e-08
-1.42108e-10
7.71242e-08
3.66651e-11
7.69288e-08
2.2401e-10
7.67646e-08
4.13635e-10
7.66379e-08
5.996e-10
7.65531e-08
7.75129e-10
7.6512e-08
9.33637e-10
7.65129e-08
1.06947e-09
7.65517e-08
1.17857e-09
7.66214e-08
1.25883e-09
7.67135e-08
1.3102e-09
7.68191e-08
1.33446e-09
7.69294e-08
1.33496e-09
1.31595e-09
7.70372e-08
1.00506e-07
-5.25561e-10
1.00545e-07
-5.80856e-10
1.00582e-07
-6.41997e-10
1.00616e-07
-7.09067e-10
1.00649e-07
-7.82019e-10
1.00681e-07
-8.60796e-10
1.00713e-07
-9.4545e-10
1.00745e-07
-1.03627e-09
1.00778e-07
-1.13389e-09
1.00812e-07
-1.23919e-09
1.00846e-07
-1.35377e-09
1.00876e-07
-1.47904e-09
1.009e-07
-1.61656e-09
1.00914e-07
-1.76621e-09
1.00912e-07
-1.92665e-09
1.00889e-07
-2.09715e-09
1.00838e-07
-2.26922e-09
1.00752e-07
-2.43032e-09
1.00626e-07
-2.56768e-09
1.00456e-07
-2.65351e-09
1.0024e-07
-2.66558e-09
9.99772e-08
-2.57364e-09
9.97062e-08
-2.0896e-09
9.94405e-08
-1.59107e-09
9.91756e-08
-1.21452e-09