/*--------------------------------*- C++ -*----------------------------------*\
| =========                 |                                                 |
| \\      /  F ield         | OpenFOAM: The Open Source CFD Toolbox           |
|  \\    /   O peration     | Version:  2312                                  |
|   \\  /    A nd           | Website:  www.openfoam.com                      |
|    \\/     M anipulation  |                                                 |
\*---------------------------------------------------------------------------*/
FoamFile
{
    version     2.0;
    format      ascii;
    arch        "LSB;label=32;scalar=64";
    class       volScalarField;
    location    "129";
    object      p;
}
// * * * * * * * * * * * * * * * * * * * * * * * * * * * * * * * * * * * * * //

dimensions      [0 2 -2 0 0 0 0];

internalField   nonuniform List<scalar> 
4800
(
9.27929e-14
-1.62098e-06
-2.92583e-06
-3.99153e-06
-4.87346e-06
-5.6127e-06
-6.238e-06
-6.77624e-06
-7.24756e-06
-7.66168e-06
-8.02962e-06
-8.35589e-06
-8.63653e-06
-9.10077e-06
-1.06707e-05
1.99819e-08
-1.59802e-06
-2.90129e-06
-3.96654e-06
-4.84893e-06
-5.58964e-06
-6.21775e-06
-6.76034e-06
-7.23787e-06
-7.66154e-06
-8.04738e-06
-8.41319e-06
-8.77468e-06
-9.23889e-06
-1.00472e-05
4.10346e-08
-1.57378e-06
-2.87543e-06
-3.94031e-06
-4.8233e-06
-5.56556e-06
-6.19621e-06
-6.74118e-06
-7.22343e-06
-7.65434e-06
-8.05048e-06
-8.43099e-06
-8.8057e-06
-9.18585e-06
-9.55311e-06
6.23213e-08
-1.54881e-06
-2.84846e-06
-3.9126e-06
-4.79579e-06
-5.53898e-06
-6.17206e-06
-6.71749e-06
-7.20125e-06
-7.63403e-06
-8.02846e-06
-8.39582e-06
-8.73049e-06
-9.00484e-06
-9.15466e-06
8.54703e-08
-1.52124e-06
-2.81832e-06
-3.88117e-06
-4.76394e-06
-5.50719e-06
-6.14086e-06
-6.68623e-06
-7.16678e-06
-7.59431e-06
-7.97484e-06
-8.31029e-06
-8.58467e-06
-8.76285e-06
-8.79385e-06
1.1186e-07
-1.48964e-06
-2.78344e-06
-3.8443e-06
-4.72578e-06
-5.46785e-06
-6.09971e-06
-6.64259e-06
-7.11521e-06
-7.52892e-06
-7.88429e-06
-8.17656e-06
-8.38775e-06
-8.49103e-06
-8.46064e-06
1.43498e-07
-1.452e-06
-2.7417e-06
-3.79962e-06
-4.67853e-06
-5.41758e-06
-6.04491e-06
-6.58067e-06
-7.04041e-06
-7.4321e-06
-7.75396e-06
-7.99898e-06
-8.15379e-06
-8.20512e-06
-8.14719e-06
1.84005e-07
-1.40478e-06
-2.68944e-06
-3.74315e-06
-4.61774e-06
-5.35131e-06
-5.9707e-06
-6.49442e-06
-6.93538e-06
-7.29909e-06
-7.58366e-06
-7.78407e-06
-7.89442e-06
-7.91339e-06
-7.84645e-06
2.39159e-07
-1.34229e-06
-2.6208e-06
-3.66872e-06
-4.5368e-06
-5.26186e-06
-5.86941e-06
-6.37639e-06
-6.7938e-06
-7.12652e-06
-7.37475e-06
-7.53784e-06
-7.617e-06
-7.61877e-06
-7.55339e-06
3.16963e-07
-1.25635e-06
-2.52732e-06
-3.56751e-06
-4.42651e-06
-5.13978e-06
-5.73168e-06
-6.21816e-06
-6.60953e-06
-6.91181e-06
-7.12853e-06
-7.26384e-06
-7.32417e-06
-7.32006e-06
-7.26289e-06
4.27045e-07
-1.1366e-06
-2.39801e-06
-3.42804e-06
-4.2751e-06
-4.97345e-06
-5.5467e-06
-6.01065e-06
-6.37632e-06
-6.65196e-06
-6.84452e-06
-6.96206e-06
-7.0141e-06
-7.01252e-06
-6.96811e-06
5.79835e-07
-9.71123e-07
-2.2199e-06
-3.23669e-06
-4.06883e-06
-4.74967e-06
-5.30266e-06
-5.74438e-06
-6.08739e-06
-6.34238e-06
-6.51929e-06
-6.62852e-06
-6.68088e-06
-6.6881e-06
-6.6598e-06
7.86445e-07
-7.46659e-07
-1.97836e-06
-2.97814e-06
-3.79246e-06
-4.45416e-06
-4.98707e-06
-5.40909e-06
-5.73459e-06
-5.97627e-06
-6.1459e-06
-6.25512e-06
-6.31471e-06
-6.33551e-06
-6.32592e-06
1.05894e-06
-4.48221e-07
-1.65676e-06
-2.63507e-06
-3.42894e-06
-4.07106e-06
-4.58587e-06
-4.99254e-06
-5.30689e-06
-5.54289e-06
-5.71309e-06
-5.82915e-06
-5.90154e-06
-5.93979e-06
-5.95114e-06
1.40986e-06
-5.94358e-08
-1.23654e-06
-2.188e-06
-2.95889e-06
-3.58188e-06
-4.08183e-06
-4.47856e-06
-4.78851e-06
-5.026e-06
-5.20354e-06
-5.33234e-06
-5.42188e-06
-5.48084e-06
-5.5154e-06
1.85072e-06
4.35814e-07
-6.98867e-07
-1.61673e-06
-2.36169e-06
-2.96602e-06
-3.45442e-06
-3.84656e-06
-4.15849e-06
-4.40388e-06
-4.59446e-06
-4.74061e-06
-4.85112e-06
-4.93353e-06
-4.9936e-06
2.38965e-06
1.05059e-06
-2.75158e-08
-9.03243e-07
-1.61829e-06
-2.20354e-06
-2.68261e-06
-3.07409e-06
-3.39293e-06
-3.65156e-06
-3.86042e-06
-4.02849e-06
-4.16332e-06
-4.272e-06
-4.35977e-06
3.02844e-06
1.79093e-06
7.86655e-07
-3.62256e-08
-7.15632e-07
-1.27978e-06
-1.74995e-06
-2.14259e-06
-2.47082e-06
-2.74553e-06
-2.97605e-06
-3.17034e-06
-3.33432e-06
-3.47328e-06
-3.59163e-06
3.75992e-06
2.65126e-06
1.73982e-06
9.82311e-07
3.46229e-07
-1.92611e-07
-6.52071e-07
-1.04554e-06
-1.38345e-06
-1.67438e-06
-1.92607e-06
-2.14582e-06
-2.33979e-06
-2.51321e-06
-2.66581e-06
4.56508e-06
3.60908e-06
2.80761e-06
2.12731e-06
1.54256e-06
1.03436e-06
5.89027e-07
1.96549e-07
-1.50671e-07
-4.58811e-07
-7.32865e-07
-9.77133e-07
-1.19666e-06
-1.39674e-06
-1.58605e-06
5.37173e-06
4.5735e-06
3.88678e-06
3.28785e-06
2.75822e-06
2.28448e-06
1.85723e-06
1.46971e-06
1.11659e-06
7.93519e-07
4.96101e-07
2.19895e-07
-3.61924e-08
-2.72908e-07
-4.94214e-07
6.05802e-06
5.39417e-06
4.80656e-06
4.27943e-06
3.80028e-06
3.36026e-06
2.95327e-06
2.57507e-06
2.22225e-06
1.89162e-06
1.58079e-06
1.28754e-06
1.00655e-06
7.33833e-07
4.68468e-07
6.58984e-06
6.02441e-06
5.50927e-06
5.03436e-06
4.59177e-06
4.17606e-06
3.78351e-06
3.41135e-06
3.05714e-06
2.71844e-06
2.39243e-06
2.07677e-06
1.76966e-06
1.4749e-06
1.1872e-06
6.98216e-06
6.48774e-06
6.0251e-06
5.58858e-06
5.1735e-06
4.77667e-06
4.39573e-06
4.02874e-06
3.67385e-06
3.32942e-06
2.99423e-06
2.66742e-06
2.3484e-06
2.03144e-06
1.72082e-06
7.26435e-06
6.82064e-06
6.39639e-06
5.98863e-06
5.59463e-06
5.21253e-06
4.84076e-06
4.47792e-06
4.12275e-06
3.7742e-06
3.43125e-06
3.09274e-06
2.75764e-06
2.42497e-06
2.09479e-06
7.46161e-06
7.05411e-06
6.65795e-06
6.27157e-06
5.89331e-06
5.52207e-06
5.15682e-06
4.79654e-06
4.44031e-06
4.08721e-06
3.7363e-06
3.387e-06
3.03912e-06
2.69211e-06
2.34543e-06
7.59506e-06
7.21361e-06
6.83795e-06
6.46721e-06
6.10036e-06
5.73677e-06
5.37571e-06
5.01643e-06
4.65832e-06
4.30078e-06
3.94328e-06
3.58491e-06
3.2265e-06
2.86726e-06
2.50681e-06
7.68246e-06
7.31996e-06
6.9593e-06
6.59995e-06
6.24131e-06
5.88304e-06
5.52459e-06
5.16545e-06
4.80526e-06
4.4438e-06
4.08171e-06
3.71506e-06
3.34747e-06
2.97778e-06
2.60569e-06
7.738e-06
7.38957e-06
7.04003e-06
6.68909e-06
6.33649e-06
5.982e-06
5.62523e-06
5.26582e-06
4.90347e-06
4.53781e-06
4.16802e-06
3.79786e-06
3.42297e-06
3.04452e-06
2.66268e-06
7.77251e-06
7.43483e-06
7.09373e-06
6.74918e-06
6.40114e-06
6.04941e-06
5.6937e-06
5.33377e-06
4.96947e-06
4.60066e-06
4.22724e-06
3.85053e-06
3.46904e-06
3.08315e-06
2.69303e-06
7.79386e-06
7.46462e-06
7.13013e-06
6.79062e-06
6.44611e-06
6.09642e-06
5.74135e-06
5.38078e-06
5.01469e-06
4.64307e-06
4.26597e-06
3.88402e-06
3.49683e-06
3.10452e-06
2.70732e-06
7.80745e-06
7.48508e-06
7.15592e-06
6.82048e-06
6.47878e-06
6.13063e-06
5.77593e-06
5.41468e-06
5.04692e-06
4.67273e-06
4.29223e-06
3.9059e-06
3.51374e-06
3.11585e-06
2.71252e-06
7.81682e-06
7.50015e-06
7.17543e-06
6.84338e-06
6.50394e-06
6.15699e-06
5.80251e-06
5.44056e-06
5.07125e-06
4.69472e-06
4.31117e-06
3.921e-06
3.52452e-06
3.12172e-06
2.71301e-06
7.82409e-06
7.51229e-06
7.19135e-06
6.86216e-06
6.52459e-06
6.1786e-06
5.82423e-06
5.46158e-06
5.09085e-06
4.71221e-06
4.32591e-06
3.93229e-06
3.53203e-06
3.12488e-06
2.71142e-06
7.83047e-06
7.52289e-06
7.20522e-06
6.87848e-06
6.5425e-06
6.19728e-06
5.84294e-06
5.47963e-06
5.10758e-06
4.72705e-06
4.33819e-06
3.94159e-06
3.53794e-06
3.12689e-06
2.70919e-06
7.83653e-06
7.53265e-06
7.21785e-06
6.89323e-06
6.55859e-06
6.21403e-06
5.85967e-06
5.49572e-06
5.12247e-06
4.7402e-06
4.34897e-06
3.94989e-06
3.54309e-06
3.12856e-06
2.70707e-06
7.84249e-06
7.54187e-06
7.22959e-06
6.9068e-06
6.57332e-06
6.22929e-06
5.87489e-06
5.51034e-06
5.13599e-06
4.75213e-06
4.3588e-06
3.95753e-06
3.54785e-06
3.13025e-06
2.70537e-06
7.84849e-06
7.55077e-06
7.24071e-06
6.91952e-06
6.58703e-06
6.24344e-06
5.88895e-06
5.52384e-06
5.14847e-06
4.76317e-06
4.368e-06
3.96467e-06
3.55245e-06
3.13209e-06
2.70417e-06
7.85486e-06
7.55988e-06
7.2519e-06
6.93217e-06
6.60059e-06
6.25738e-06
5.90278e-06
5.53711e-06
5.16077e-06
4.77409e-06
4.37723e-06
3.97181e-06
3.55723e-06
3.13426e-06
2.70344e-06
7.86122e-06
7.56888e-06
7.26294e-06
6.94469e-06
6.61408e-06
6.27135e-06
5.91675e-06
5.5506e-06
5.17329e-06
4.78526e-06
4.3867e-06
3.97922e-06
3.56231e-06
3.13665e-06
2.70307e-06
-1.19689e-05
-9.77631e-06
-8.42572e-06
-7.51389e-06
-6.78262e-06
-6.22117e-06
-5.78866e-06
-5.45938e-06
-5.21751e-06
-5.05143e-06
-4.95252e-06
-4.91385e-06
-4.93e-06
-4.99739e-06
-5.11403e-06
-5.28009e-06
-5.49818e-06
-5.77499e-06
-6.12155e-06
-6.55353e-06
-7.08478e-06
-7.7092e-06
-8.29675e-06
-8.64894e-06
-8.66385e-06
-8.29965e-06
-7.55863e-06
-6.46875e-06
-5.06019e-06
-3.36281e-06
-1.40797e-06
7.70115e-07
3.13265e-06
5.63575e-06
8.23059e-06
1.0864e-05
1.34785e-05
1.60113e-05
1.83898e-05
2.05239e-05
2.22829e-05
2.34828e-05
2.37124e-05
2.25576e-05
1.8663e-05
-1.03913e-05
-9.24833e-06
-8.22112e-06
-7.40637e-06
-6.71972e-06
-6.17412e-06
-5.74795e-06
-5.42212e-06
-5.18309e-06
-5.02009e-06
-4.92478e-06
-4.89027e-06
-4.91113e-06
-4.98373e-06
-5.10604e-06
-5.27812e-06
-5.50243e-06
-5.78536e-06
-6.13734e-06
-6.57296e-06
-7.10443e-06
-7.72383e-06
-8.30078e-06
-8.64031e-06
-8.64374e-06
-8.26985e-06
-7.5211e-06
-6.42592e-06
-5.01482e-06
-3.31825e-06
-1.36863e-06
7.98287e-07
3.14167e-06
5.61494e-06
8.16573e-06
1.0736e-05
1.32612e-05
1.56679e-05
1.78668e-05
1.97384e-05
2.10975e-05
2.16476e-05
2.08052e-05
1.7717e-05
1.13728e-05
-9.55975e-06
-8.83556e-06
-8.01118e-06
-7.28312e-06
-6.64585e-06
-6.12218e-06
-5.70565e-06
-5.38493e-06
-5.14952e-06
-4.98997e-06
-4.89849e-06
-4.86832e-06
-4.89406e-06
-4.9721e-06
-5.10034e-06
-5.27874e-06
-5.50956e-06
-5.79886e-06
-6.15637e-06
-6.59542e-06
-7.12641e-06
-7.7393e-06
-8.30341e-06
-8.62798e-06
-8.61813e-06
-8.23343e-06
-7.47663e-06
-6.37674e-06
-4.96479e-06
-3.27205e-06
-1.33233e-06
8.16658e-07
3.13144e-06
5.56202e-06
8.05157e-06
1.0536e-05
1.29424e-05
1.51853e-05
1.71578e-05
1.87151e-05
1.96413e-05
1.96063e-05
1.80918e-05
1.45223e-05
8.84559e-06
-9.02926e-06
-8.49727e-06
-7.83004e-06
-7.16996e-06
-6.57954e-06
-6.07907e-06
-5.67227e-06
-5.35611e-06
-5.12336e-06
-4.96616e-06
-4.87747e-06
-4.85077e-06
-4.88072e-06
-4.96375e-06
-5.09766e-06
-5.28226e-06
-5.51957e-06
-5.81525e-06
-6.17822e-06
-6.62039e-06
-7.15012e-06
-7.75498e-06
-8.30385e-06
-8.61075e-06
-8.585e-06
-8.18712e-06
-7.42037e-06
-6.31465e-06
-4.90181e-06
-3.21426e-06
-1.28773e-06
8.3752e-07
3.11472e-06
5.48964e-06
7.90015e-06
1.02753e-05
1.25334e-05
1.45774e-05
1.62871e-05
1.75053e-05
1.80174e-05
1.75384e-05
1.57223e-05
1.23117e-05
7.60386e-06
-8.62155e-06
-8.20289e-06
-7.65481e-06
-7.07702e-06
-6.5303e-06
-6.0523e-06
-5.65469e-06
-5.34205e-06
-5.11038e-06
-4.95375e-06
-4.86613e-06
-4.84138e-06
-4.8743e-06
-4.96138e-06
-5.10026e-06
-5.29056e-06
-5.53399e-06
-5.83572e-06
-6.20372e-06
-6.64829e-06
-7.17553e-06
-7.77029e-06
-8.30114e-06
-8.5876e-06
-8.54371e-06
-8.13108e-06
-7.35366e-06
-6.24259e-06
-4.83077e-06
-3.15214e-06
-1.24476e-06
8.48117e-07
3.07592e-06
5.37974e-06
7.69179e-06
9.93443e-06
1.20182e-05
1.38382e-05
1.52688e-05
1.61566e-05
1.63179e-05
1.55502e-05
1.3678e-05
1.0666e-05
6.82889e-06
-8.28442e-06
-7.94549e-06
-7.48788e-06
-6.99278e-06
-6.49638e-06
-6.04209e-06
-5.65623e-06
-5.34756e-06
-5.11589e-06
-4.958e-06
-4.86941e-06
-4.84458e-06
-4.87867e-06
-4.96831e-06
-5.11096e-06
-5.30594e-06
-5.55465e-06
-5.86161e-06
-6.23371e-06
-6.67942e-06
-7.20233e-06
-7.7843e-06
-8.29377e-06
-8.55671e-06
-8.49248e-06
-8.06384e-06
-7.27575e-06
-6.16089e-06
-4.75352e-06
-3.08943e-06
-1.20942e-06
8.39896e-07
3.00388e-06
5.21885e-06
7.41168e-06
9.49918e-06
1.13869e-05
1.29676e-05
1.41201e-05
1.47105e-05
1.46021e-05
1.36785e-05
1.18888e-05
9.31534e-06
6.24277e-06
-7.98456e-06
-7.70822e-06
-7.33351e-06
-6.90581e-06
-6.46433e-06
-6.04442e-06
-5.67627e-06
-5.37433e-06
-5.14322e-06
-4.98317e-06
-4.89187e-06
-4.86483e-06
-4.89795e-06
-4.98821e-06
-5.13284e-06
-5.33093e-06
-5.58346e-06
-5.89425e-06
-6.2689e-06
-6.71384e-06
-7.22992e-06
-7.79568e-06
-8.27974e-06
-8.51569e-06
-8.42879e-06
-7.98311e-06
-7.18486e-06
-6.06876e-06
-4.67063e-06
-3.02844e-06
-1.18616e-06
8.06081e-07
2.88963e-06
4.99639e-06
7.049e-06
8.96101e-06
1.06371e-05
1.19743e-05
1.2865e-05
1.32055e-05
1.29084e-05
1.19279e-05
1.0288e-05
8.1111e-06
5.62755e-06
-7.70302e-06
-7.47717e-06
-7.17265e-06
-6.81276e-06
-6.42861e-06
-6.05128e-06
-5.70869e-06
-5.41908e-06
-5.19173e-06
-5.03063e-06
-4.93613e-06
-4.9053e-06
-4.93551e-06
-5.02434e-06
-5.16886e-06
-5.36798e-06
-5.62227e-06
-5.93481e-06
-6.30976e-06
-6.75126e-06
-7.25719e-06
-7.80253e-06
-8.25653e-06
-8.46173e-06
-8.3499e-06
-7.88651e-06
-7.07951e-06
-5.96613e-06
-4.58382e-06
-2.97304e-06
-1.18124e-06
7.38031e-07
2.72261e-06
4.70105e-06
6.59367e-06
8.31402e-06
9.77081e-06
1.08717e-05
1.15297e-05
1.1673e-05
1.12583e-05
1.02877e-05
8.82097e-06
6.98116e-06
4.94403e-06
-7.43068e-06
-7.24685e-06
-7.00145e-06
-6.70594e-06
-6.38116e-06
-6.05213e-06
-5.74319e-06
-5.47364e-06
-5.25582e-06
-5.09735e-06
-5.00119e-06
-4.96633e-06
-4.99261e-06
-5.07849e-06
-5.22077e-06
-5.41856e-06
-5.67219e-06
-5.98383e-06
-6.35614e-06
-6.79074e-06
-7.28241e-06
-7.80233e-06
-8.22107e-06
-8.39169e-06
-8.25304e-06
-7.77207e-06
-6.95908e-06
-5.8544e-06
-4.49682e-06
-2.92941e-06
-1.20345e-06
6.2471e-07
2.49052e-06
4.32091e-06
6.03658e-06
7.55488e-06
8.79333e-06
9.67499e-06
1.01358e-05
1.01336e-05
9.65803e-06
8.73789e-06
7.44424e-06
5.88482e-06
4.19044e-06
-7.1615e-06
-7.014e-06
-6.81897e-06
-6.58163e-06
-6.31489e-06
-6.03714e-06
-5.76844e-06
-5.52682e-06
-5.32576e-06
-5.17573e-06
-5.08135e-06
-5.04396e-06
-5.06716e-06
-5.1497e-06
-5.28806e-06
-5.48231e-06
-5.73269e-06
-6.04046e-06
-6.40665e-06
-6.83027e-06
-7.30291e-06
-7.79183e-06
-8.1699e-06
-8.30249e-06
-8.136e-06
-7.63883e-06
-6.82455e-06
-5.73723e-06
-4.416e-06
-2.90654e-06
-1.26425e-06
4.52921e-07
2.17993e-06
3.84439e-06
5.37049e-06
6.68311e-06
7.71223e-06
8.3985e-06
8.69978e-06
8.59758e-06
8.10213e-06
7.25415e-06
6.12223e-06
4.79456e-06
3.36784e-06
-6.88861e-06
-6.77376e-06
-6.6225e-06
-6.43694e-06
-6.22471e-06
-5.99854e-06
-5.77412e-06
-5.56684e-06
-5.38971e-06
-5.25496e-06
-5.16611e-06
-5.12951e-06
-5.15303e-06
-5.23362e-06
-5.36702e-06
-5.556e-06
-5.80084e-06
-6.10174e-06
-6.45815e-06
-6.86638e-06
-7.31494e-06
-7.7672e-06
-8.09954e-06
-8.19177e-06
-7.99798e-06
-7.48789e-06
-6.67968e-06
-5.62186e-06
-4.35127e-06
-2.91662e-06
-1.37785e-06
2.07683e-07
1.777e-06
3.26109e-06
4.59056e-06
5.70075e-06
6.53597e-06
7.05415e-06
7.23146e-06
7.06569e-06
6.57793e-06
5.81104e-06
4.82504e-06
3.68959e-06
2.47622e-06
-6.60285e-06
-6.51845e-06
-6.40625e-06
-6.26701e-06
-6.1051e-06
-5.92895e-06
-5.75053e-06
-5.58179e-06
-5.43549e-06
-5.3216e-06
-5.24352e-06
-5.21243e-06
-5.2414e-06
-5.32219e-06
-5.45033e-06
-5.63317e-06
-5.87082e-06
-6.16228e-06
-6.50546e-06
-6.89406e-06
-7.31382e-06
-7.72438e-06
-8.00728e-06
-8.05888e-06
-7.84068e-06
-7.32367e-06
-6.53268e-06
-5.52068e-06
-4.31656e-06
-2.97511e-06
-1.56082e-06
-1.2689e-07
1.26864e-06
2.56269e-06
3.69464e-06
4.61178e-06
5.27277e-06
5.65041e-06
5.73452e-06
5.53244e-06
5.0692e-06
4.38434e-06
3.52752e-06
2.55265e-06
1.51287e-06
-6.29229e-06
-6.23711e-06
-6.16079e-06
-6.06358e-06
-5.94799e-06
-5.81953e-06
-5.68684e-06
-5.55914e-06
-5.44737e-06
-5.35829e-06
-5.29892e-06
-5.28288e-06
-5.31916e-06
-5.40084e-06
-5.52611e-06
-5.70394e-06
-5.93392e-06
-6.21426e-06
-6.5416e-06
-6.90713e-06
-7.29455e-06
-7.66e-06
-7.8924e-06
-7.90622e-06
-7.66942e-06
-7.15472e-06
-6.3985e-06
-5.45118e-06
-4.3293e-06
-3.10063e-06
-1.83131e-06
-5.66263e-07
6.43836e-07
1.74394e-06
2.6835e-06
3.4218e-06
3.93013e-06
4.19281e-06
4.20847e-06
3.98912e-06
3.55925e-06
2.95261e-06
2.20883e-06
1.36907e-06
4.72988e-07
-5.94179e-06
-5.91533e-06
-5.87284e-06
-5.81454e-06
-5.74188e-06
-5.65852e-06
-5.57033e-06
-5.48455e-06
-5.40886e-06
-5.35199e-06
-5.32015e-06
-5.32319e-06
-5.36749e-06
-5.45309e-06
-5.58081e-06
-5.75624e-06
-5.97921e-06
-6.24798e-06
-6.55828e-06
-6.89883e-06
-7.25255e-06
-7.57246e-06
-7.75725e-06
-7.741e-06
-7.49322e-06
-6.99534e-06
-6.30166e-06
-5.4301e-06
-4.40879e-06
-3.31621e-06
-2.20892e-06
-1.1244e-06
-1.05307e-07
8.0301e-07
1.56062e-06
2.13748e-06
2.51476e-06
2.6849e-06
2.65107e-06
2.42667e-06
2.03326e-06
1.49829e-06
8.52504e-07
1.26994e-07
-6.48595e-07
-5.53171e-06
-5.53424e-06
-5.52464e-06
-5.5033e-06
-5.47117e-06
-5.43073e-06
-5.38611e-06
-5.3427e-06
-5.30676e-06
-5.28529e-06
-5.28428e-06
-5.31022e-06
-5.36931e-06
-5.46523e-06
-5.59958e-06
-5.77564e-06
-5.9938e-06
-6.25232e-06
-6.54654e-06
-6.86301e-06
-7.1844e-06
-7.46298e-06
-7.60872e-06
-7.57326e-06
-7.3262e-06
-6.87758e-06
-6.25839e-06
-5.46991e-06
-4.57971e-06
-3.64577e-06
-2.71204e-06
-1.81253e-06
-9.83106e-07
-2.58769e-07
3.31082e-07
7.65336e-07
1.03205e-06
1.12832e-06
1.05915e-06
8.36922e-07
4.79532e-07
8.45692e-09
-5.53028e-07
-1.18168e-06
-1.85537e-06
-5.03748e-06
-5.07019e-06
-5.09369e-06
-5.1086e-06
-5.11582e-06
-5.11715e-06
-5.11557e-06
-5.11507e-06
-5.12041e-06
-5.13683e-06
-5.16951e-06
-5.22381e-06
-5.30516e-06
-5.41777e-06
-5.56373e-06
-5.74529e-06
-5.96316e-06
-6.21543e-06
-6.4971e-06
-6.79454e-06
-7.08929e-06
-7.33722e-06
-7.45803e-06
-7.41696e-06
-7.20429e-06
-6.81626e-06
-6.27268e-06
-5.60645e-06
-4.87358e-06
-4.10988e-06
-3.35345e-06
-2.6366e-06
-1.98899e-06
-1.43601e-06
-9.9781e-07
-6.88205e-07
-5.14335e-07
-4.76951e-07
-5.71455e-07
-7.87508e-07
-1.11114e-06
-1.52619e-06
-2.01538e-06
-2.56153e-06
-3.14824e-06
-4.43346e-06
-4.4983e-06
-4.55604e-06
-4.60751e-06
-4.65384e-06
-4.69659e-06
-4.73796e-06
-4.78085e-06
-4.82878e-06
-4.8858e-06
-4.95619e-06
-5.04435e-06
-5.15456e-06
-5.29047e-06
-5.45458e-06
-5.64862e-06
-5.87326e-06
-6.12633e-06
-6.40277e-06
-6.68937e-06
-6.96935e-06
-7.20387e-06
-7.32296e-06
-7.30664e-06
-7.13663e-06
-6.82291e-06
-6.39471e-06
-5.87733e-06
-5.30689e-06
-4.71688e-06
-4.13786e-06
-3.59754e-06
-3.119e-06
-2.72051e-06
-2.41612e-06
-2.2149e-06
-2.12093e-06
-2.1317e-06
-2.24509e-06
-2.45337e-06
-2.74662e-06
-3.11316e-06
-3.54037e-06
-4.01573e-06
-4.52722e-06
-3.69815e-06
-3.79801e-06
-3.89223e-06
-3.98168e-06
-4.06792e-06
-4.15263e-06
-4.23756e-06
-4.32486e-06
-4.4172e-06
-4.51772e-06
-4.62976e-06
-4.75675e-06
-4.90204e-06
-5.06853e-06
-5.25882e-06
-5.47408e-06
-5.7149e-06
-5.97914e-06
-6.26111e-06
-6.55155e-06
-6.83057e-06
-7.07108e-06
-7.22717e-06
-7.25895e-06
-7.15188e-06
-6.94868e-06
-6.65261e-06
-6.29044e-06
-5.88702e-06
-5.47089e-06
-5.06603e-06
-4.69278e-06
-4.36812e-06
-4.1055e-06
-3.91487e-06
-3.80342e-06
-3.77474e-06
-3.82871e-06
-3.95851e-06
-4.15974e-06
-4.42676e-06
-4.75181e-06
-5.12594e-06
-5.54021e-06
-5.98601e-06
-2.80891e-06
-2.94713e-06
-3.08119e-06
-3.21204e-06
-3.34134e-06
-3.47079e-06
-3.60194e-06
-3.73648e-06
-3.87649e-06
-4.02439e-06
-4.18276e-06
-4.35421e-06
-4.54143e-06
-4.74672e-06
-4.97231e-06
-5.21924e-06
-5.48734e-06
-5.7761e-06
-6.07859e-06
-6.38944e-06
-6.69413e-06
-6.96414e-06
-7.17835e-06
-7.28712e-06
-7.28937e-06
-7.20266e-06
-7.05061e-06
-6.84774e-06
-6.61477e-06
-6.3704e-06
-6.13157e-06
-5.91311e-06
-5.72785e-06
-5.58608e-06
-5.49435e-06
-5.45825e-06
-5.48258e-06
-5.56692e-06
-5.70709e-06
-5.90058e-06
-6.14398e-06
-6.4321e-06
-6.75898e-06
-7.11869e-06
-7.50528e-06
-1.76674e-06
-1.94366e-06
-2.11825e-06
-2.29173e-06
-2.46579e-06
-2.64202e-06
-2.82182e-06
-3.00666e-06
-3.19819e-06
-3.39823e-06
-3.60876e-06
-3.83183e-06
-4.06949e-06
-4.32361e-06
-4.59587e-06
-4.88715e-06
-5.1975e-06
-5.52614e-06
-5.86927e-06
-6.22188e-06
-6.57793e-06
-6.91775e-06
-7.20023e-06
-7.40566e-06
-7.52991e-06
-7.58286e-06
-7.58319e-06
-7.54335e-06
-7.4751e-06
-7.39105e-06
-7.30393e-06
-7.22561e-06
-7.16568e-06
-7.13152e-06
-7.13006e-06
-7.1634e-06
-7.22981e-06
-7.33264e-06
-7.47695e-06
-7.66176e-06
-7.88293e-06
-8.13652e-06
-8.41931e-06
-8.72812e-06
-9.05917e-06
-7.11562e-07
-9.2967e-07
-1.14801e-06
-1.36677e-06
-1.58749e-06
-1.81184e-06
-2.04134e-06
-2.27733e-06
-2.52111e-06
-2.77409e-06
-3.03783e-06
-3.31399e-06
-3.60422e-06
-3.91008e-06
-4.23286e-06
-4.5735e-06
-4.93226e-06
-5.30887e-06
-5.70144e-06
-6.10675e-06
-6.51929e-06
-6.92693e-06
-7.29842e-06
-7.60854e-06
-7.85263e-06
-8.03761e-06
-8.17437e-06
-8.27222e-06
-8.34001e-06
-8.38761e-06
-8.42466e-06
-8.45963e-06
-8.49944e-06
-8.54889e-06
-8.61273e-06
-8.69568e-06
-8.80191e-06
-8.9314e-06
-9.08503e-06
-9.26323e-06
-9.46509e-06
-9.68926e-06
-9.93438e-06
-1.01987e-05
-1.04799e-05
2.11591e-07
-4.36635e-08
-3.01441e-07
-5.62484e-07
-8.27031e-07
-1.0962e-06
-1.37156e-06
-1.65446e-06
-1.94598e-06
-2.24724e-06
-2.55953e-06
-2.88426e-06
-3.22281e-06
-3.57648e-06
-3.9464e-06
-4.33348e-06
-4.73818e-06
-5.16053e-06
-5.59965e-06
-6.05323e-06
-6.5182e-06
-6.98887e-06
-7.43566e-06
-7.82945e-06
-8.16595e-06
-8.44967e-06
-8.68703e-06
-8.88559e-06
-9.05308e-06
-9.19707e-06
-9.32474e-06
-9.44214e-06
-9.5548e-06
-9.66804e-06
-9.7856e-06
-9.91143e-06
-1.00482e-05
-1.01986e-05
-1.03626e-05
-1.05396e-05
-1.073e-05
-1.09344e-05
-1.11525e-05
-1.13834e-05
-1.16259e-05
9.03013e-07
6.16871e-07
3.26503e-07
3.16095e-08
-2.68199e-07
-5.73965e-07
-8.86965e-07
-1.20824e-06
-1.53867e-06
-1.87918e-06
-2.23086e-06
-2.59486e-06
-2.97232e-06
-3.36432e-06
-3.77182e-06
-4.19566e-06
-4.6364e-06
-5.09419e-06
-5.56868e-06
-6.05865e-06
-6.56229e-06
-7.07615e-06
-7.57276e-06
-8.02218e-06
-8.41929e-06
-8.76757e-06
-9.07205e-06
-9.33895e-06
-9.57451e-06
-9.78459e-06
-9.97466e-06
-1.01497e-05
-1.03143e-05
-1.04726e-05
-1.06276e-05
-1.07823e-05
-1.09393e-05
-1.11012e-05
-1.12685e-05
-1.14418e-05
-1.16222e-05
-1.18105e-05
-1.20069e-05
-1.22111e-05
-1.24229e-05
1.41128e-06
1.09796e-06
7.79633e-07
4.55932e-07
1.26168e-07
-2.1053e-07
-5.55022e-07
-9.08059e-07
-1.27036e-06
-1.64271e-06
-2.02598e-06
-2.42108e-06
-2.82891e-06
-3.25033e-06
-3.68615e-06
-4.13707e-06
-4.60359e-06
-5.08592e-06
-5.58399e-06
-6.09707e-06
-6.62391e-06
-7.16232e-06
-7.68697e-06
-8.16855e-06
-8.60185e-06
-8.99029e-06
-9.33806e-06
-9.65004e-06
-9.93111e-06
-1.01859e-05
-1.04188e-05
-1.06337e-05
-1.08341e-05
-1.10233e-05
-1.1204e-05
-1.13792e-05
-1.15513e-05
-1.17221e-05
-1.18928e-05
-1.20649e-05
-1.22394e-05
-1.24172e-05
-1.25988e-05
-1.27845e-05
-1.29745e-05
1.76363e-06
1.42779e-06
1.0862e-06
7.38404e-07
3.838e-07
2.18034e-08
-3.48146e-07
-7.26596e-07
-1.11412e-06
-1.51131e-06
-1.91883e-06
-2.33736e-06
-2.76757e-06
-3.21012e-06
-3.66563e-06
-4.13461e-06
-4.61747e-06
-5.11439e-06
-5.62535e-06
-6.14983e-06
-6.68695e-06
-7.2351e-06
-7.77117e-06
-8.26792e-06
-8.72058e-06
-9.13228e-06
-9.50645e-06
-9.8469e-06
-1.01575e-05
-1.04418e-05
-1.07034e-05
-1.09453e-05
-1.11705e-05
-1.13816e-05
-1.15813e-05
-1.17717e-05
-1.19555e-05
-1.2134e-05
-1.23089e-05
-1.24815e-05
-1.26529e-05
-1.28241e-05
-1.29959e-05
-1.31691e-05
-1.33441e-05
1.99646e-06
1.64206e-06
1.28125e-06
9.13678e-07
5.38959e-07
1.56724e-07
-2.33386e-07
-6.31738e-07
-1.03873e-06
-1.45477e-06
-1.88031e-06
-2.31582e-06
-2.76177e-06
-3.2186e-06
-3.68674e-06
-4.16652e-06
-4.65822e-06
-5.16192e-06
-5.67757e-06
-6.20475e-06
-6.74275e-06
-7.29024e-06
-7.82654e-06
-8.3272e-06
-8.78789e-06
-9.21128e-06
-9.60017e-06
-9.95754e-06
-1.02864e-05
-1.05898e-05
-1.08703e-05
-1.11305e-05
-1.1373e-05
-1.15998e-05
-1.18134e-05
-1.20157e-05
-1.22087e-05
-1.23938e-05
-1.25727e-05
-1.27467e-05
-1.29169e-05
-1.30845e-05
-1.32505e-05
-1.34158e-05
-1.3581e-05
2.14299e-06
1.77314e-06
1.39648e-06
1.01282e-06
6.21927e-07
2.23606e-07
-1.82326e-07
-5.96066e-07
-1.01784e-06
-1.44788e-06
-1.88647e-06
-2.33388e-06
-2.79038e-06
-3.25622e-06
-3.73167e-06
-4.21687e-06
-4.71196e-06
-5.2169e-06
-5.7316e-06
-6.25561e-06
-6.78836e-06
-7.32866e-06
-7.85829e-06
-8.35575e-06
-8.81715e-06
-9.24466e-06
-9.64052e-06
-1.00071e-05
-1.03468e-05
-1.0662e-05
-1.09549e-05
-1.12276e-05
-1.1482e-05
-1.172e-05
-1.19437e-05
-1.21553e-05
-1.23557e-05
-1.25466e-05
-1.27293e-05
-1.29054e-05
-1.30761e-05
-1.32425e-05
-1.34056e-05
-1.35665e-05
-1.37261e-05
2.22942e-06
1.84675e-06
1.45711e-06
1.0604e-06
6.56544e-07
2.45503e-07
-1.72755e-07
-5.98282e-07
-1.03115e-06
-1.47145e-06
-1.9193e-06
-2.37479e-06
-2.83803e-06
-3.30911e-06
-3.78811e-06
-4.27505e-06
-4.76992e-06
-5.27256e-06
-5.7828e-06
-6.30017e-06
-6.82416e-06
-7.35367e-06
-7.87282e-06
-8.36303e-06
-8.82078e-06
-9.24776e-06
-9.64571e-06
-1.00166e-05
-1.03622e-05
-1.06846e-05
-1.09854e-05
-1.12664e-05
-1.15292e-05
-1.17755e-05
-1.20069e-05
-1.22253e-05
-1.24317e-05
-1.26275e-05
-1.28141e-05
-1.29928e-05
-1.3165e-05
-1.33317e-05
-1.34942e-05
-1.36534e-05
-1.38104e-05
2.276e-06
1.88272e-06
1.48241e-06
1.0751e-06
6.60832e-07
2.39712e-07
-1.88173e-07
-6.2275e-07
-1.06397e-06
-1.51178e-06
-1.96614e-06
-2.42703e-06
-2.8944e-06
-3.36819e-06
-3.84834e-06
-4.33473e-06
-4.82722e-06
-5.32556e-06
-5.8295e-06
-6.33851e-06
-6.85212e-06
-7.36927e-06
-7.87626e-06
-8.35724e-06
-8.809e-06
-9.23274e-06
-9.62987e-06
-1.00019e-05
-1.03504e-05
-1.06769e-05
-1.09826e-05
-1.12692e-05
-1.1538e-05
-1.17903e-05
-1.20275e-05
-1.22512e-05
-1.24625e-05
-1.26625e-05
-1.28527e-05
-1.30344e-05
-1.32086e-05
-1.33767e-05
-1.35399e-05
-1.36991e-05
-1.38555e-05
2.29759e-06
1.89543e-06
1.48628e-06
1.07026e-06
6.4755e-07
2.18341e-07
-2.1717e-07
-6.58805e-07
-1.1064e-06
-1.55979e-06
-2.01881e-06
-2.48331e-06
-2.95312e-06
-3.42806e-06
-3.90794e-06
-4.39252e-06
-4.88155e-06
-5.37468e-06
-5.87159e-06
-6.37169e-06
-6.87453e-06
-7.37905e-06
-7.87355e-06
-8.34464e-06
-8.78933e-06
-9.20847e-06
-9.60318e-06
-9.97466e-06
-1.03241e-05
-1.06527e-05
-1.09615e-05
-1.12518e-05
-1.15247e-05
-1.17814e-05
-1.20231e-05
-1.2251e-05
-1.24662e-05
-1.267e-05
-1.28635e-05
-1.30479e-05
-1.32245e-05
-1.33945e-05
-1.35591e-05
-1.37193e-05
-1.38765e-05
2.30441e-06
1.89474e-06
1.47816e-06
1.05488e-06
6.25184e-07
1.89349e-07
-2.52343e-07
-6.99622e-07
-1.15222e-06
-1.60988e-06
-2.07234e-06
-2.53932e-06
-3.01056e-06
-3.48577e-06
-3.96463e-06
-4.44683e-06
-4.932e-06
-5.41972e-06
-5.90957e-06
-6.40092e-06
-6.89333e-06
-7.3857e-06
-7.86816e-06
-8.32946e-06
-8.76683e-06
-9.18083e-06
-9.57235e-06
-9.9423e-06
-1.02916e-05
-1.06211e-05
-1.09317e-05
-1.12244e-05
-1.15003e-05
-1.17602e-05
-1.20052e-05
-1.22365e-05
-1.24551e-05
-1.2662e-05
-1.28583e-05
-1.30454e-05
-1.32244e-05
-1.33964e-05
-1.35628e-05
-1.37246e-05
-1.38831e-05
2.30317e-06
1.88704e-06
1.46411e-06
1.03467e-06
5.99079e-07
1.57688e-07
-2.89147e-07
-7.41074e-07
-1.19775e-06
-1.65881e-06
-2.12391e-06
-2.5927e-06
-3.06479e-06
-3.53981e-06
-4.01737e-06
-4.49703e-06
-4.97837e-06
-5.46085e-06
-5.94402e-06
-6.42719e-06
-6.90988e-06
-7.39101e-06
-7.86227e-06
-8.31432e-06
-8.74459e-06
-9.15344e-06
-9.54151e-06
-9.90946e-06
-1.0258e-05
-1.05877e-05
-1.08993e-05
-1.11937e-05
-1.14716e-05
-1.1734e-05
-1.19816e-05
-1.22155e-05
-1.24368e-05
-1.26463e-05
-1.28452e-05
-1.30346e-05
-1.32157e-05
-1.33898e-05
-1.3558e-05
-1.37216e-05
-1.38818e-05
2.29803e-06
1.87629e-06
1.44785e-06
1.01308e-06
5.72411e-07
1.26254e-07
-3.24969e-07
-7.80838e-07
-1.24093e-06
-1.70482e-06
-2.17207e-06
-2.64225e-06
-3.1149e-06
-3.58957e-06
-4.06576e-06
-4.54299e-06
-5.02072e-06
-5.49839e-06
-5.97544e-06
-6.45115e-06
-6.92503e-06
-7.39597e-06
-7.85706e-06
-8.30061e-06
-8.72428e-06
-9.12823e-06
-9.51289e-06
-9.87871e-06
-1.02261e-05
-1.05557e-05
-1.08679e-05
-1.11634e-05
-1.14428e-05
-1.1707e-05
-1.19567e-05
-1.21925e-05
-1.24161e-05
-1.26279e-05
-1.28288e-05
-1.30202e-05
-1.32033e-05
-1.33792e-05
-1.35492e-05
-1.37145e-05
-1.38763e-05
2.29147e-06
1.86477e-06
1.43148e-06
9.92047e-07
5.4693e-07
9.66087e-08
-3.58439e-07
-8.17733e-07
-1.28078e-06
-1.7471e-06
-2.21619e-06
-2.68752e-06
-3.1606e-06
-3.63487e-06
-4.10979e-06
-4.58478e-06
-5.05927e-06
-5.53259e-06
-6.00417e-06
-6.47323e-06
-6.93923e-06
-7.40105e-06
-7.85303e-06
-8.28892e-06
-8.7066e-06
-9.10604e-06
-9.48751e-06
-9.85124e-06
-1.01975e-05
-1.05267e-05
-1.08391e-05
-1.11354e-05
-1.1416e-05
-1.16816e-05
-1.19327e-05
-1.21703e-05
-1.23957e-05
-1.26094e-05
-1.2812e-05
-1.30051e-05
-1.31899e-05
-1.33674e-05
-1.35389e-05
-1.37057e-05
-1.38691e-05
2.28482e-06
1.85371e-06
1.41613e-06
9.72546e-07
5.23488e-07
6.94779e-08
-3.88956e-07
-8.51278e-07
-1.31695e-06
-1.78541e-06
-2.2561e-06
-2.72846e-06
-3.2019e-06
-3.67582e-06
-4.14961e-06
-4.62263e-06
-5.09423e-06
-5.56372e-06
-6.03046e-06
-6.49362e-06
-6.95266e-06
-7.40641e-06
-7.8503e-06
-8.27936e-06
-8.69167e-06
-9.08706e-06
-9.46561e-06
-9.82739e-06
-1.01725e-05
-1.05012e-05
-1.08138e-05
-1.11106e-05
-1.1392e-05
-1.16588e-05
-1.19111e-05
-1.21503e-05
-1.2377e-05
-1.25922e-05
-1.27963e-05
-1.29908e-05
-1.31769e-05
-1.33557e-05
-1.35286e-05
-1.36967e-05
-1.38614e-05
2.27875e-06
1.84371e-06
1.40229e-06
9.55005e-07
5.0243e-07
4.51274e-08
-4.1633e-07
-8.81358e-07
-1.34937e-06
-1.81975e-06
-2.2919e-06
-2.76519e-06
-3.23898e-06
-3.71261e-06
-4.18542e-06
-4.65672e-06
-5.12581e-06
-5.59195e-06
-6.05444e-06
-6.51244e-06
-6.96534e-06
-7.412e-06
-7.84874e-06
-8.27177e-06
-8.67933e-06
-9.07112e-06
-9.44706e-06
-9.80708e-06
-1.01512e-05
-1.04794e-05
-1.0792e-05
-1.10892e-05
-1.13713e-05
-1.1639e-05
-1.18922e-05
-1.21327e-05
-1.23606e-05
-1.2577e-05
-1.27822e-05
-1.29779e-05
-1.31651e-05
-1.3345e-05
-1.3519e-05
-1.36882e-05
-1.3854e-05
2.27353e-06
1.83498e-06
1.39013e-06
9.39552e-07
4.83839e-07
2.35957e-08
-4.40563e-07
-9.08013e-07
-1.37812e-06
-1.85024e-06
-2.3237e-06
-2.79785e-06
-3.27198e-06
-3.74541e-06
-4.2174e-06
-4.68723e-06
-5.15415e-06
-5.61738e-06
-6.07618e-06
-6.52967e-06
-6.97723e-06
-7.41767e-06
-7.84814e-06
-8.26588e-06
-8.66927e-06
-9.05791e-06
-9.43155e-06
-9.79001e-06
-1.01332e-05
-1.0461e-05
-1.07736e-05
-1.10711e-05
-1.13538e-05
-1.16222e-05
-1.18762e-05
-1.21176e-05
-1.23467e-05
-1.25639e-05
-1.27701e-05
-1.29667e-05
-1.31548e-05
-1.33356e-05
-1.35104e-05
-1.36805e-05
-1.38473e-05
2.26914e-06
1.82744e-06
1.37952e-06
9.25978e-07
4.67447e-07
4.56179e-09
-4.62028e-07
-9.31661e-07
-1.40366e-06
-1.87735e-06
-2.35203e-06
-2.82697e-06
-3.30146e-06
-3.77474e-06
-4.24606e-06
-4.71464e-06
-5.17969e-06
-5.6404e-06
-6.09599e-06
-6.54555e-06
-6.98842e-06
-7.42339e-06
-7.84831e-06
-8.26134e-06
-8.66107e-06
-9.04692e-06
-9.41854e-06
-9.77563e-06
-1.0118e-05
-1.04454e-05
-1.0758e-05
-1.10558e-05
-1.1339e-05
-1.1608e-05
-1.18628e-05
-1.21049e-05
-1.23348e-05
-1.25528e-05
-1.27598e-05
-1.29571e-05