/*--------------------------------*- C++ -*----------------------------------*\
| =========                 |                                                 |
| \\      /  F ield         | OpenFOAM: The Open Source CFD Toolbox           |
|  \\    /   O peration     | Version:  2312                                  |
|   \\  /    A nd           | Website:  www.openfoam.com                      |
|    \\/     M anipulation  |                                                 |
\*---------------------------------------------------------------------------*/
FoamFile
{
    version     2.0;
    format      ascii;
    arch        "LSB;label=32;scalar=64";
    class       surfaceScalarField;
    location    "165.25";
    object      phi;
}
// * * * * * * * * * * * * * * * * * * * * * * * * * * * * * * * * * * * * * //

dimensions      [0 3 -1 0 0 0 0];

oriented        oriented;

internalField   nonuniform List<scalar> 
9445
(
5.78881e-10
1.60696e-11
5.68486e-10
1.03953e-11
5.61809e-10
6.67657e-12
5.5773e-10
4.07925e-12
5.55547e-10
2.18287e-12
5.54878e-10
6.68743e-13
5.55583e-10
-7.04603e-13
5.574e-10
-1.81673e-12
5.60482e-10
-3.08252e-12
5.65233e-10
-4.75094e-12
5.72699e-10
-7.46585e-12
5.86344e-10
-1.36448e-11
6.1834e-10
-3.19959e-11
7.11136e-10
-9.27965e-11
-2.4015e-10
9.51286e-10
2.01965e-09
7.05265e-11
1.98432e-09
4.57325e-11
1.96151e-09
2.94828e-11
1.94742e-09
1.81746e-11
1.93964e-09
9.95916e-12
1.93689e-09
3.41329e-12
1.93844e-09
-2.24887e-12
1.94354e-09
-6.91623e-12
1.95269e-09
-1.22315e-11
1.96696e-09
-1.9028e-11
1.98903e-09
-2.95292e-11
2.02549e-09
-5.01091e-11
2.08929e-09
-9.5797e-11
2.19257e-09
-1.96071e-10
-3.48677e-10
2.3011e-09
3.98482e-09
1.74774e-10
3.917e-09
1.1355e-10
3.87304e-09
7.34443e-11
3.8456e-09
4.56159e-11
3.83007e-09
2.54921e-11
3.82392e-09
9.56364e-12
3.82543e-09
-3.76255e-12
3.83334e-09
-1.4826e-11
3.84824e-09
-2.71304e-11
3.87134e-09
-4.21282e-11
3.90516e-09
-6.33508e-11
3.95414e-09
-9.90887e-11
4.02092e-09
-1.62573e-10
4.09225e-09
-2.67406e-10
-3.89546e-10
4.13312e-09
6.61921e-09
3.41775e-10
6.51012e-09
2.22636e-10
6.43898e-09
1.44586e-10
6.39403e-09
9.05642e-11
6.36786e-09
5.1664e-11
6.35621e-09
2.12158e-11
6.35609e-09
-3.64367e-12
6.3655e-09
-2.42307e-11
6.38444e-09
-4.60777e-11
6.41352e-09
-7.12074e-11
6.45341e-09
-1.03237e-10
6.50372e-09
-1.49404e-10
6.5582e-09
-2.17046e-10
6.59772e-09
-3.06933e-10
-3.93181e-10
6.60136e-09
1.00989e-08
5.85052e-10
9.93901e-09
3.82569e-10
9.83385e-09
2.49745e-10
9.76644e-09
1.57971e-10
9.72598e-09
9.21304e-11
9.70583e-09
4.13572e-11
9.70158e-09
6.09983e-13
9.71018e-09
-3.28338e-11
9.73018e-09
-6.60761e-11
9.76076e-09
-1.01784e-10
9.80013e-09
-1.42606e-10
9.84374e-09
-1.93015e-10
9.88147e-09
-2.54773e-10
9.89728e-09
-3.22742e-10
-3.78123e-10
9.88222e-09
1.46334e-08
9.16246e-10
1.44136e-08
6.02409e-10
1.42674e-08
3.95863e-10
1.41722e-08
2.53211e-10
1.41132e-08
1.51148e-10
1.40809e-08
7.36279e-11
1.4069e-08
1.24973e-11
1.40734e-08
-3.7182e-11
1.40905e-08
-8.31643e-11
1.41173e-08
-1.28645e-10
1.41502e-08
-1.75435e-10
1.41823e-08
-2.25146e-10
1.42039e-08
-2.76423e-10
1.42048e-08
-3.23612e-10
-3.56242e-10
1.41829e-08
2.04638e-08
1.34033e-09
2.01783e-08
8.87929e-10
1.99858e-08
5.88323e-10
1.9858e-08
3.81053e-10
1.97762e-08
2.32942e-10
1.97279e-08
1.21942e-10
1.97045e-08
3.58453e-11
1.97003e-08
-3.29443e-11
1.97097e-08
-9.25999e-11
1.97279e-08
-1.46836e-10
1.97495e-08
-1.97085e-10
1.97679e-08
-2.43508e-10
1.97757e-08
-2.84219e-10
1.97677e-08
-3.15605e-10
-3.33306e-10
1.97448e-08
2.78563e-08
1.84792e-09
2.75074e-08
1.23676e-09
2.7268e-08
8.27798e-10
2.71055e-08
5.43558e-10
2.69981e-08
3.40262e-10
2.69307e-08
1.89425e-10
2.68923e-08
7.41873e-11
2.68754e-08
-1.60089e-11
2.68728e-08
-8.99974e-11
2.68782e-08
-1.52278e-10
2.68858e-08
-2.04679e-10
2.68899e-08
-2.47567e-10
2.68859e-08
-2.80209e-10
2.68718e-08
-3.0151e-10
-3.10752e-10
2.68492e-08
3.70905e-08
2.40606e-09
3.66954e-08
1.63182e-09
3.64177e-08
1.10557e-09
3.62245e-08
7.3669e-10
3.60929e-08
4.71881e-10
3.60058e-08
2.76547e-10
3.59508e-08
1.29188e-10
3.59186e-08
1.61589e-11
3.59012e-08
-7.25751e-11
3.58916e-08
-1.42729e-10
3.58843e-08
-1.97361e-10
3.58749e-08
-2.38164e-10
3.58609e-08
-2.66168e-10
3.58417e-08
-2.82374e-10
-2.88025e-10
3.5819e-08
4.84514e-08
2.95441e-09
4.80469e-08
2.03634e-09
4.77535e-08
1.39904e-09
4.75436e-08
9.46573e-10
4.73959e-08
6.19525e-10
4.72938e-08
3.78654e-10
4.72245e-08
1.98555e-10
4.71779e-08
6.26937e-11
4.7146e-08
-4.06451e-11
4.71221e-08
-1.18852e-10
4.71014e-08
-1.76695e-10
4.70809e-08
-2.17619e-10
4.70591e-08
-2.44325e-10
4.7036e-08
-2.59276e-10
-2.64742e-10
4.70127e-08
6.22473e-08
3.41948e-09
6.18848e-08
2.39886e-09
6.16112e-08
1.67271e-09
6.14089e-08
1.14883e-09
6.12619e-08
7.6655e-10
6.11561e-08
4.84419e-10
6.10802e-08
2.74497e-10
6.10249e-08
1.1791e-10
6.09831e-08
1.18604e-12
6.09493e-08
-8.50239e-11
6.09197e-08
-1.47099e-10
6.08922e-08
-1.90163e-10
6.08661e-08
-2.18176e-10
6.08413e-08
-2.34519e-10
-2.41991e-10
6.08186e-08
7.88795e-08
3.75306e-09
7.86022e-08
2.67619e-09
7.83831e-08
1.89184e-09
7.82151e-08
1.31675e-09
7.80889e-08
8.92782e-10
7.79947e-08
5.78671e-10
7.79238e-08
3.4534e-10
7.78694e-08
1.72271e-10
7.7826e-08
4.46285e-11
7.77897e-08
-4.86996e-11
7.7758e-08
-1.15392e-10
7.77296e-08
-1.61795e-10
7.77041e-08
-1.92678e-10
7.76815e-08
-2.11928e-10
-2.22602e-10
7.76621e-08
9.89419e-08
3.96664e-09
9.87546e-08
2.86341e-09
9.86007e-08
2.04579e-09
9.84788e-08
1.43866e-09
9.83842e-08
9.87391e-10
9.8311e-08
6.5182e-10
9.82538e-08
4.02514e-10
9.82082e-08
2.17957e-10
9.81706e-08
8.21492e-11
9.81388e-08
-1.68684e-11
9.81114e-08
-8.80158e-11
9.80878e-08
-1.38203e-10
9.80678e-08
-1.72667e-10
9.80514e-08
-1.95527e-10
-2.09939e-10
9.80388e-08
1.23222e-07
4.1106e-09
1.23092e-07
2.99314e-09
1.22982e-07
2.15539e-09
1.22893e-07
1.52792e-09
1.22822e-07
1.05887e-09
1.22765e-07
7.09036e-10
1.22718e-07
4.4874e-10
1.2268e-07
2.55803e-10
1.22649e-07
1.13524e-10
1.22623e-07
9.2468e-12
1.22601e-07
-6.6462e-11
1.22584e-07
-1.20944e-10
1.22571e-07
-1.59604e-10
1.22562e-07
-1.86644e-10
-2.05245e-10
1.22557e-07
1.52488e-07
4.21155e-09
1.52389e-07
3.09223e-09
1.523e-07
2.24488e-09
1.52223e-07
1.60521e-09
1.52157e-07
1.12433e-09
1.52102e-07
7.64084e-10
1.52056e-07
4.94904e-10
1.52017e-07
2.94381e-10
1.51985e-07
1.45414e-10
1.5196e-07
3.50897e-11
1.5194e-07
-4.63895e-11
1.51925e-07
-1.06345e-10
1.51916e-07
-1.50326e-10
1.51912e-07
-1.82552e-10
-2.06186e-10
1.51912e-07
1.8721e-07
4.25169e-09
1.8715e-07
3.15304e-09
1.87082e-07
2.31301e-09
1.87014e-07
1.67284e-09
1.8695e-07
1.18778e-09
1.86893e-07
8.21551e-10
1.86842e-07
5.45556e-10
1.86798e-07
3.3834e-10
1.86762e-07
1.82159e-10
1.86732e-07
6.50794e-11
1.86709e-07
-2.37963e-11
1.86693e-07
-9.05472e-11
1.86684e-07
-1.41232e-10
1.86682e-07
-1.79934e-10
-2.09757e-10
1.86685e-07
2.27431e-07
4.20385e-09
2.27431e-07
3.1536e-09
2.27401e-07
2.34227e-09
2.27357e-07
1.71721e-09
2.27306e-07
1.2386e-09
2.27255e-07
8.73174e-10
2.27205e-07
5.94736e-10
2.27161e-07
3.82561e-10
2.27123e-07
2.20806e-10
2.27091e-07
9.64136e-11
2.27067e-07
2.65678e-13
2.27051e-07
-7.44934e-11
2.27043e-07
-1.32791e-10
2.27042e-07
-1.78908e-10
-2.15957e-10
2.27048e-07
2.72679e-07
4.05696e-09
2.7275e-07
3.08175e-09
2.72772e-07
2.3203e-09
2.72763e-07
1.72654e-09
2.72736e-07
1.26604e-09
2.72699e-07
9.0969e-10
2.7266e-07
6.34157e-10
2.72622e-07
4.20582e-10
2.72588e-07
2.54495e-10
2.7256e-07
1.2435e-10
2.72537e-07
2.30855e-11
2.72525e-07
-6.22652e-11
2.72521e-07
-1.28483e-10
2.72524e-07
-1.82665e-10
-2.27682e-10
2.72536e-07
3.2158e-07
3.80551e-09
3.21732e-07
2.93058e-09
3.21813e-07
2.23894e-09
3.21847e-07
1.69214e-09
3.21851e-07
1.26196e-09
3.21837e-07
9.23958e-10
3.21813e-07
6.57816e-10
3.21786e-07
4.47664e-10
3.21761e-07
2.80031e-10
3.21739e-07
1.45898e-10
3.21724e-07
3.80138e-11
3.21719e-07
-5.66168e-11
3.21722e-07
-1.32042e-10
3.21735e-07
-1.95484e-10
-2.49503e-10
3.21757e-07
3.71115e-07
3.43523e-09
3.71362e-07
2.68405e-09
3.7152e-07
2.08106e-09
3.71615e-07
1.59682e-09
3.71668e-07
1.20911e-09
3.71693e-07
8.99208e-10
3.717e-07
6.50277e-10
3.71698e-07
4.4959e-10
3.71692e-07
2.86402e-10
3.71687e-07
1.51059e-10
3.71687e-07
3.77605e-11
3.7169e-07
-6.00594e-11
3.717e-07
-1.4193e-10
3.71717e-07
-2.12375e-10
-2.74277e-10
3.71742e-07
3.68949e-07
3.01481e-09
3.69246e-07
2.38703e-09
3.69452e-07
1.87504e-09
3.69592e-07
1.45676e-09
3.69685e-07
1.11606e-09
3.69747e-07
8.37962e-10
3.69787e-07
6.09811e-10
3.69816e-07
4.21054e-10
3.69838e-07
2.63795e-10
3.69857e-07
1.32307e-10
3.69872e-07
2.30466e-11
3.69894e-07
-8.19143e-11
3.69919e-07
-1.67556e-10
3.69951e-07
-2.43917e-10
-3.12351e-10
3.69989e-07
3.16623e-07
2.59538e-09
3.16925e-07
2.08492e-09
3.17139e-07
1.66079e-09
3.17287e-07
1.30877e-09
3.17387e-07
1.01664e-09
3.17451e-07
7.73519e-10
3.17491e-07
5.70051e-10
3.17514e-07
3.98003e-10
3.17527e-07
2.51058e-10
3.17536e-07
1.23616e-10
3.17547e-07
1.12843e-11
3.17555e-07
-8.91601e-11
3.17565e-07
-1.7813e-10
3.17579e-07
-2.58034e-10
-3.30858e-10
3.17598e-07
2.65356e-07
2.19963e-09
2.65656e-07
1.78485e-09
2.65883e-07
1.43454e-09
2.66052e-07
1.13954e-09
2.66178e-07
8.90887e-10
2.66271e-07
6.79907e-10
2.66341e-07
5e-10
2.66395e-07
3.44545e-10
2.66437e-07
2.0888e-10
2.66471e-07
8.98138e-11
2.66499e-07
-1.70958e-11
2.66523e-07
-1.12994e-10
2.66545e-07
-2.00187e-10
2.66567e-07
-2.80042e-10
-3.53709e-10
2.6659e-07
2.18925e-07
1.83373e-09
2.19211e-07
1.49923e-09
2.19433e-07
1.2127e-09
2.19604e-07
9.67866e-10
2.19737e-07
7.58113e-10
2.1984e-07
5.77239e-10
2.1992e-07
4.19968e-10
2.19982e-07
2.81915e-10
2.20031e-07
1.59955e-10
2.20071e-07
5.04038e-11
2.20102e-07
-4.87538e-11
2.20129e-07
-1.39312e-10
2.20151e-07
-2.22699e-10
2.20171e-07
-2.99889e-10
-3.71711e-10
2.20189e-07
1.78289e-07
1.49911e-09
1.78556e-07
1.23257e-09
1.78767e-07
1.00127e-09
1.78934e-07
8.00758e-10
1.79066e-07
6.26336e-10
1.7917e-07
4.73477e-10
1.79251e-07
3.38509e-10
1.79315e-07
2.18196e-10
1.79365e-07
1.09768e-10
1.79404e-07
1.15825e-11
1.79434e-07
-7.85876e-11
1.79457e-07
-1.61895e-10
1.79473e-07
-2.39209e-10
1.79484e-07
-3.11298e-10
-3.78766e-10
1.79491e-07
1.43589e-07
1.20088e-09
1.4383e-07
9.91609e-10
1.44023e-07
8.07667e-10
1.44178e-07
6.46015e-10
1.44301e-07
5.03295e-10
1.44398e-07
3.7624e-10
1.44475e-07
2.62368e-10
1.44534e-07
1.59269e-10
1.44578e-07
6.52119e-11
1.4461e-07
-2.07645e-11
1.44632e-07
-1.00647e-10
1.44646e-07
-1.75002e-10
1.44651e-07
-2.44467e-10
1.44649e-07
-3.09569e-10
-3.70707e-10
1.44641e-07
1.14479e-07
9.43552e-10
1.14689e-07
7.81902e-10
1.14858e-07
6.38006e-10
1.14995e-07
5.09856e-10
1.15103e-07
3.94999e-10
1.15188e-07
2.91331e-10
1.15253e-07
1.97002e-10
1.15302e-07
1.10617e-10
1.15336e-07
3.10174e-11
1.15358e-07
-4.24652e-11
1.15368e-07
-1.11294e-10
1.15369e-07
-1.75764e-10
1.15361e-07
-2.3629e-10
1.15345e-07
-2.93198e-10
-3.46724e-10
1.15321e-07
9.03852e-08
7.28194e-10
9.05616e-08
6.05488e-10
9.07047e-08
4.94905e-10
9.08194e-08
3.95107e-10
9.091e-08
3.04388e-10
9.098e-08
2.21353e-10
9.1032e-08
1.44989e-10
9.10684e-08
7.42778e-11
9.1091e-08
8.38405e-12
9.11013e-08
-5.27453e-11
9.11005e-08
-1.10482e-10
9.10895e-08
-1.64805e-10
9.10692e-08
-2.15975e-10
9.10402e-08
-2.64177e-10
-3.09541e-10
9.1003e-08
7.06611e-08
5.52416e-10
7.08055e-08
4.61027e-10
7.09227e-08
3.7769e-10
7.10164e-08
3.01474e-10
7.10895e-08
2.31249e-10
7.11447e-08
1.66197e-10
7.11839e-08
1.05708e-10
7.12091e-08
4.91348e-11
7.12213e-08
-3.83065e-12
7.12221e-08
-5.35681e-11
7.12123e-08
-1.00633e-10
7.11926e-08
-1.45106e-10
7.11637e-08
-1.87101e-10
7.11262e-08
-2.26713e-10
-2.63997e-10
7.10807e-08
5.46682e-08
4.11737e-10
5.47841e-08
3.45108e-10
5.48782e-08
2.83671e-10
5.49529e-08
2.26713e-10
5.50106e-08
1.73561e-10
5.5053e-08
1.23794e-10
5.50817e-08
7.70333e-11
5.50979e-08
3.29431e-11
5.51026e-08
-8.54894e-12
5.50969e-08
-4.78582e-11
5.50814e-08
-8.51681e-11
5.50569e-08
-1.2053e-10
5.50237e-08
-1.53988e-10
5.49826e-08
-1.85581e-10
-2.15316e-10
5.49339e-08
4.18135e-08
3.00925e-10
4.19051e-08
2.53524e-10
4.19794e-08
2.09353e-10
4.20383e-08
1.6783e-10
4.20832e-08
1.28619e-10
4.21155e-08
9.15295e-11
4.21361e-08
5.63782e-11
4.21461e-08
2.30048e-11
4.21461e-08
-8.59837e-12
4.2137e-08
-3.87207e-11
4.21192e-08
-6.74311e-11
4.20934e-08
-9.46966e-11
4.206e-08
-1.20539e-10
4.20193e-08
-1.44964e-10
-1.67956e-10
4.1972e-08
3.15659e-08
2.14851e-10
3.16373e-08
1.82087e-10
3.16954e-08
1.51248e-10
3.17414e-08
1.21844e-10
3.17763e-08
9.37726e-11
3.18008e-08
6.69748e-11
3.18158e-08
4.13706e-11
3.18219e-08
1.69125e-11
3.18197e-08
-6.36237e-12
3.18097e-08
-2.86826e-11
3.17923e-08
-5.00625e-11
3.1768e-08
-7.03839e-11
3.17371e-08
-8.96769e-11
3.17001e-08
-1.07932e-10
-1.25121e-10
3.16573e-08
2.34626e-08
1.48922e-10
2.35176e-08
1.27051e-10
2.35626e-08
1.06268e-10
2.35983e-08
8.6167e-11
2.36253e-08
6.67912e-11
2.36441e-08
4.81343e-11
2.36553e-08
3.01714e-11
2.36593e-08
1.29095e-11
2.36565e-08
-3.5593e-12
2.36473e-08
-1.94561e-11
2.3632e-08
-3.47963e-11
2.3611e-08
-4.93569e-11
2.35845e-08
-6.32061e-11
2.35529e-08
-7.63276e-11
-8.86922e-11
2.35165e-08
1.71075e-08
9.92435e-11
1.71493e-08
8.52663e-11
1.71837e-08
7.18698e-11
1.72111e-08
5.87296e-11
1.72319e-08
4.59564e-11
1.72465e-08
3.35575e-11
1.72552e-08
2.15252e-11
1.72582e-08
9.90118e-12
1.72558e-08
-1.20861e-12
1.72483e-08
-1.19715e-11
1.7236e-08
-2.25034e-11
1.72191e-08
-3.24445e-11
1.71978e-08
-4.19217e-11
1.71724e-08
-5.09161e-11
-5.93999e-11
1.71431e-08
1.21666e-08
6.2617e-11
1.21977e-08
5.41796e-11
1.22235e-08
4.60385e-11
1.22443e-08
3.79471e-11
1.22602e-08
3.00237e-11
1.22715e-08
2.2273e-11
1.22783e-08
1.46949e-11
1.22809e-08
7.32903e-12
1.22794e-08
2.68121e-13
1.2274e-08
-6.55074e-12
1.22648e-08
-1.33598e-11
1.22521e-08
-1.97436e-11
1.22361e-08
-2.58402e-11
1.22168e-08
-3.16376e-11
-3.71112e-11
1.21945e-08
8.36116e-09
3.64536e-11
8.3836e-09
3.1749e-11
8.40243e-09
2.71999e-11
8.41776e-09
2.26253e-11
8.42966e-09
1.81158e-11
8.43827e-09
1.36717e-11
8.44366e-09
9.2958e-12
8.44598e-09
5.01744e-12
8.44537e-09
8.74524e-13
8.44189e-09
-3.07155e-12
8.43563e-09
-7.09511e-12
8.42675e-09
-1.08671e-11
8.41537e-09
-1.44651e-11
8.40163e-09
-1.7894e-11
-2.1133e-11
8.38565e-09
5.46091e-09
1.86639e-11
5.47632e-09
1.63389e-11
5.48941e-09
1.41111e-11
5.50018e-09
1.18494e-11
5.50869e-09
9.60472e-12
5.51499e-09
7.37619e-12
5.51912e-09
5.16631e-12
5.52114e-09
2.99521e-12
5.52116e-09
8.53814e-13
5.51923e-09
-1.14108e-12
5.51535e-09
-3.21095e-12
5.50965e-09
-5.16713e-12
5.50221e-09
-7.02711e-12
5.49312e-09
-8.80305e-12
-1.04785e-11
5.48246e-09
3.27696e-09
7.54937e-12
3.28668e-09
6.61905e-12
3.29502e-09
5.76263e-12
3.30199e-09
4.8873e-12
3.30758e-09
4.01111e-12
3.31182e-09
3.13343e-12
3.31473e-09
2.25621e-12
3.31634e-09
1.38981e-12
3.31668e-09
5.17227e-13
3.31581e-09
-2.7682e-13
3.31371e-09
-1.11326e-12
3.31046e-09
-1.91093e-12
3.3061e-09
-2.66946e-12
3.30069e-09
-3.39341e-12
-4.07119e-12
3.29428e-09
1.6557e-09
1.71336e-12
1.66083e-09
1.48348e-12
1.66529e-09
1.30454e-12
1.66906e-09
1.11998e-12
1.67214e-09
9.32327e-13
1.67453e-09
7.39982e-13
1.67624e-09
5.45701e-13
1.67728e-09
3.52993e-13
1.67764e-09
1.52474e-13
1.67739e-09
-2.27952e-14
1.67649e-09
-2.12571e-13
1.67497e-09
-3.93271e-13
1.67287e-09
-5.68103e-13
1.67021e-09
-7.32433e-13
-8.80568e-13
1.66702e-09
4.73096e-10
4.7458e-10
4.75884e-10
4.77004e-10
4.77937e-10
4.78677e-10
4.79222e-10
4.79575e-10
4.79728e-10
4.79705e-10
4.79492e-10
4.79099e-10
4.78531e-10
4.77799e-10
4.76918e-10
1.13693e-09
-4.55929e-10
2.70282e-10
1.40309e-09
-3.75948e-10
1.09788e-10
1.67153e-09
-2.27014e-10
-4.14224e-11
1.93656e-09
-6.80758e-11
-1.96958e-10
2.19676e-09
9.77995e-11
-3.57993e-10
2.45324e-09
2.65162e-10
-5.21643e-10
2.70779e-09
4.33833e-10
-6.88387e-10
2.96188e-09
6.04087e-10
-8.58171e-10
3.21664e-09
7.7592e-10
-1.03068e-09
3.47295e-09
9.49064e-10
-1.20538e-09
3.73154e-09
1.12291e-09
-1.3815e-09
3.99311e-09
1.29675e-09
-1.55832e-09
4.25844e-09
1.46995e-09
-1.73528e-09
4.52854e-09
1.64158e-09
-1.91168e-09
4.80479e-09
1.8102e-09
-2.08645e-09
5.08911e-09
1.97358e-09
-2.2579e-09
5.38418e-09
2.1284e-09
-2.42346e-09
5.69377e-09
2.26968e-09
-2.57927e-09
6.02295e-09
2.38696e-09
-2.71614e-09
6.37785e-09
2.45873e-09
-2.81363e-09
6.76383e-09
2.42707e-09
-2.81304e-09
7.18088e-09
2.16803e-09
-2.58509e-09
7.55536e-09
1.28255e-09
-1.65702e-09
7.85631e-09
2.12676e-10
-5.1363e-10
8.084e-09
-8.11687e-10
5.83999e-10
8.24239e-09
-1.72518e-09
1.56679e-09
8.33694e-09
-2.48863e-09
2.39408e-09
8.37365e-09
-3.09633e-09
3.05962e-09
8.35817e-09
-3.55351e-09
3.56899e-09
8.29524e-09
-3.86468e-09
3.92761e-09
8.18882e-09
-4.03422e-09
4.14064e-09
8.04252e-09
-4.06632e-09
4.21262e-09
7.85979e-09
-3.96502e-09
4.14775e-09
7.64395e-09
-3.73517e-09
3.95101e-09
7.39814e-09
-3.38303e-09
3.62885e-09
7.12508e-09
-2.91602e-09
3.18907e-09
6.827e-09
-2.34166e-09
2.63974e-09
6.5056e-09
-1.66562e-09
1.98702e-09
6.16223e-09
-8.89058e-10
1.23243e-09
5.7969e-09
-7.10589e-12
3.72435e-10
5.40491e-09
9.83688e-10
-5.91702e-10
4.96923e-09
2.05922e-09
-1.62354e-09
4.45989e-09
3.09691e-09
-2.58757e-09
3.87484e-09
3.802e-09
-3.21695e-09
3.38578e-09
3.51896e-09
-3.0299e-09
2.37333e-09
-5.28167e-10
2.53125e-09
-5.33863e-10
2.74667e-09
-4.42433e-10
2.98825e-09
-3.09659e-10
3.24293e-09
-1.56876e-10
3.50415e-09
3.94161e-12
3.76966e-09
1.68323e-10
4.03879e-09
3.34958e-10
4.31152e-09
5.03187e-10
4.58809e-09
6.72497e-10
4.86887e-09
8.42131e-10
5.15438e-09
1.01124e-09
5.44529e-09
1.17904e-09
5.74256e-09
1.34431e-09
6.04756e-09
1.5052e-09
6.36222e-09
1.65892e-09
6.68923e-09
1.8014e-09
7.03236e-09
1.92655e-09
7.39667e-09
2.02265e-09
7.78823e-09
2.06717e-09
8.21227e-09
2.00302e-09
8.66845e-09
1.71186e-09
9.07697e-09
8.74027e-10
9.40509e-09
-1.15442e-10
9.65363e-09
-1.06022e-09
9.82702e-09
-1.89857e-09
9.93107e-09
-2.59268e-09
9.97224e-09
-3.13751e-09
9.9568e-09
-3.53807e-09
9.89015e-09
-3.79802e-09
9.77694e-09
-3.92101e-09
9.62156e-09
-3.91094e-09
9.42838e-09
-3.77183e-09
9.20183e-09
-3.50863e-09
8.94646e-09
-3.12766e-09
8.66688e-09
-2.63643e-09
8.36789e-09
-2.04268e-09
8.05513e-09
-1.35285e-09
7.73628e-09
-5.7021e-10
7.42283e-09
3.06342e-10
7.13123e-09
1.27529e-09
6.88229e-09
2.30816e-09
6.70168e-09
3.27752e-09
6.62618e-09
3.87751e-09
3.4719e-09
6.54006e-09
4.14466e-09
-5.39711e-10
4.21337e-09
-6.02571e-10
4.35094e-09
-5.80002e-10
4.54059e-09
-4.99303e-10
4.76359e-09
-3.79884e-10
5.00828e-09
-2.40746e-10
5.26799e-09
-9.13823e-11
5.53899e-09
6.39546e-11
5.81927e-09
2.22905e-10
6.1078e-09
3.83965e-10
6.40418e-09
5.45752e-10
6.70843e-09
7.06994e-10
7.0209e-09
8.66573e-10
7.34232e-09
1.02289e-09
7.67393e-09
1.17359e-09
8.01756e-09
1.31529e-09
8.37578e-09
1.44317e-09
8.75227e-09
1.55006e-09
9.1519e-09
1.62302e-09
9.58047e-09
1.6386e-09
1.00428e-08
1.54064e-09
1.05381e-08
1.21665e-09
1.09802e-08
4.31872e-10
1.13349e-08
-4.70106e-10
1.16036e-08
-1.32892e-09
1.17913e-08
-2.08628e-09
1.19041e-08
-2.70553e-09
1.19491e-08
-3.18244e-09
1.1933e-08
-3.52206e-09
1.18622e-08
-3.72722e-09
1.17421e-08
-3.80091e-09
1.15781e-08
-3.74688e-09
1.13756e-08
-3.56931e-09
1.11404e-08
-3.27346e-09
1.08789e-08
-2.86613e-09
1.05979e-08
-2.35543e-09
1.03054e-08
-1.75017e-09
1.00115e-08
-1.05897e-09
9.73074e-09
-2.8947e-10
9.48543e-09
5.51653e-10
9.30928e-09
1.45143e-09
9.24599e-09
2.37145e-09
9.32983e-09
3.19368e-09
9.53423e-09
3.6731e-09
3.38655e-09
9.61959e-09
6.57774e-09
-5.16095e-10
6.5855e-09
-6.10324e-10
6.64574e-09
-6.40242e-10
6.76515e-09
-6.18713e-10
6.93316e-09
-5.47902e-10
7.13767e-09
-4.45249e-10
7.37016e-09
-3.23881e-10
7.62448e-09
-1.90364e-10
7.89651e-09
-4.91184e-11
8.18362e-09
9.68555e-11
8.4843e-09
2.4507e-10
8.7978e-09
3.93494e-10
9.12389e-09
5.40484e-10
9.4629e-09
6.83875e-10
9.81578e-09
8.20711e-10
1.01841e-08
9.46962e-10
1.05702e-08
1.05704e-09
1.09775e-08
1.14276e-09
1.14105e-08
1.19005e-09
1.18744e-08
1.17469e-09
1.23734e-08
1.04164e-09
1.29056e-08
6.84485e-10
1.33791e-08
-4.1668e-11
1.37581e-08
-8.49087e-10
1.40449e-08
-1.6157e-09
1.4245e-08
-2.2864e-09
1.43649e-08
-2.82544e-09
1.44121e-08
-3.22958e-09
1.43942e-08
-3.50419e-09
1.43184e-08
-3.65141e-09
1.41911e-08
-3.67363e-09
1.40188e-08
-3.57458e-09
1.38083e-08
-3.35883e-09
1.35671e-08
-3.03224e-09
1.33034e-08
-2.60246e-09
1.30268e-08
-2.07878e-09
1.27485e-08
-1.47188e-09
1.2483e-08
-7.93517e-10
1.22506e-08
-5.7013e-11
1.208e-08
7.22234e-10
1.20118e-08
1.51963e-09
1.20922e-08
2.29107e-09
1.23439e-08
2.94193e-09
1.27096e-08
3.30739e-09
3.16593e-09
1.29303e-08
9.84274e-09
-4.76613e-10
9.81205e-09
-5.79639e-10
9.81362e-09
-6.41809e-10
9.8611e-09
-6.66201e-10
9.9601e-09
-6.46898e-10
1.01048e-08
-5.89986e-10
1.02883e-08
-5.07386e-10
1.05044e-08
-4.06422e-10
1.0748e-08
-2.92695e-10
1.10153e-08
-1.70466e-10
1.13038e-08
-4.34736e-11
1.1612e-08
8.53151e-11
1.19389e-08
2.13597e-10
1.22843e-08
3.38476e-10
1.26487e-08
4.56279e-10
1.30334e-08
5.62272e-10
1.34403e-08
6.50122e-10
1.38724e-08
7.10697e-10
1.43335e-08
7.28944e-10
1.48281e-08
6.80119e-10
1.53592e-08
5.10533e-10
1.59234e-08
1.20227e-10
1.64237e-08
-5.41904e-10
1.68227e-08
-1.24806e-09
1.71236e-08
-1.91666e-09
1.73327e-08
-2.49551e-09
1.74567e-08
-2.94938e-09
1.75034e-08
-3.27628e-09
1.74816e-08
-3.48238e-09
1.73993e-08
-3.56919e-09
1.72643e-08
-3.53855e-09
1.70841e-08
-3.39439e-09
1.68671e-08
-3.14188e-09
1.66227e-08
-2.78779e-09
1.63611e-08
-2.34093e-09
1.60946e-08
-1.81225e-09
1.58375e-08
-1.21476e-09
1.56077e-08
-5.63729e-10
1.54282e-08
1.22475e-10
1.53292e-08
8.21204e-10
1.53473e-08
1.50152e-09
1.55178e-08
2.12061e-09
1.58476e-08
2.61217e-09
1.6272e-08
2.88298e-09
2.83695e-09
1.6601e-08
1.414e-08
-4.33646e-10
1.40901e-08
-5.29814e-10
1.40554e-08
-6.07082e-10
1.40474e-08
-6.58237e-10
1.408e-08
-6.79435e-10
1.41565e-08
-6.66547e-10
1.42759e-08
-6.2673e-10
1.44348e-08
-5.65285e-10
1.46293e-08
-4.87286e-10
1.48561e-08
-3.97264e-10
1.51125e-08
-2.99808e-10
1.53964e-08
-1.9859e-10
1.57064e-08
-9.64592e-11
1.6042e-08
2.89306e-12
1.64033e-08
9.50235e-11
1.6791e-08
1.74508e-10
1.72068e-08
2.34327e-10
1.7653e-08
2.64537e-10
1.81326e-08
2.49307e-10
1.8649e-08
1.63741e-10
1.92037e-08
-4.41461e-11
1.97913e-08
-4.674e-10
2.03102e-08
-1.06081e-09
2.07221e-08
-1.6599e-09
2.10309e-08
-2.22549e-09
2.12435e-08
-2.70811e-09
2.13666e-08
-3.0725e-09
2.14088e-08
-3.31844e-09
2.13798e-08
-3.45337e-09
2.12889e-08
-3.4783e-09
2.11449e-08
-3.39454e-09
2.09569e-08
-3.20639e-09
2.07349e-08
-2.91987e-09
2.04899e-08
-2.54286e-09
2.02346e-08
-2.08563e-09
1.99833e-08
-1.56091e-09
1.97526e-08
-9.84041e-10
1.95621e-08
-3.73232e-10
1.94347e-08
2.49834e-10
1.93967e-08
8.59207e-10
1.94745e-08
1.42373e-09
1.96874e-08
1.9077e-09
2.00298e-08
2.26983e-09
2.04465e-08
2.46627e-09
2.46419e-09
2.08192e-08
1.9705e-08
-3.93928e-10
1.96526e-08
-4.77336e-10
1.96003e-08
-5.54849e-10
1.95604e-08
-6.18288e-10
1.95437e-08
-6.62749e-10
1.95604e-08
-6.83296e-10
1.96147e-08
-6.81006e-10
1.9708e-08
-6.58576e-10
1.98399e-08
-6.19178e-10
2.0009e-08
-5.66371e-10
2.02141e-08
-5.04848e-10
2.04537e-08
-4.38279e-10
2.07269e-08
-3.69593e-10
2.10329e-08
-3.03156e-10
2.1372e-08
-2.44083e-10
2.17449e-08
-1.98322e-10
2.21526e-08
-1.73424e-10
2.25971e-08
-1.79912e-10
2.30805e-08
-2.3409e-10
2.36047e-08
-3.60483e-10
2.41694e-08
-6.08909e-10
2.47669e-08
-1.06483e-09
2.52923e-08
-1.58623e-09
2.57064e-08
-2.074e-09
2.60139e-08
-2.53303e-09
2.6222e-08
-2.91623e-09
2.63374e-08
-3.18785e-09
2.63691e-08
-3.35013e-09
2.63282e-08
-3.41253e-09
2.62254e-08
-3.37548e-09
2.60706e-08
-3.23973e-09
2.58744e-08
-3.01016e-09
2.56483e-08
-2.69382e-09
2.54053e-08
-2.29983e-09
2.51596e-08
-1.83989e-09
2.4927e-08
-1.32837e-09
2.47253e-08
-7.82354e-10
2.45738e-08
-2.21662e-10
2.44923e-08
3.31274e-10
2.45003e-08
8.51238e-10
2.46124e-08
1.31161e-09
2.48337e-08
1.68645e-09
2.51505e-08
1.95296e-09
2.55217e-08
2.09507e-09
2.10825e-09
2.58777e-08
2.68145e-08
-3.59259e-10
2.67671e-08
-4.29929e-10
2.67131e-08
-5.00818e-10
2.66607e-08
-5.65935e-10
2.66185e-08
-6.2055e-10
2.6596e-08
-6.60704e-10
2.65998e-08
-6.84868e-10
2.66351e-08
-6.93811e-10
2.67047e-08
-6.88818e-10
2.68104e-08
-6.72097e-10
2.69537e-08
-6.48091e-10
2.71349e-08
-6.19553e-10
2.73543e-08
-5.8891e-10
2.76121e-08
-5.6103e-10
2.79094e-08
-5.41389e-10
2.82472e-08
-5.36123e-10
2.86268e-08
-5.53007e-10
2.90497e-08
-6.02786e-10
2.95174e-08
-7.01823e-10
3.00305e-08
-8.73554e-10
3.05866e-08
-1.16505e-09
3.1175e-08
-1.65324e-09
3.16903e-08
-2.10146e-09
3.20923e-08
-2.47606e-09
3.23863e-08
-2.82703e-09
3.25794e-08
-3.10932e-09
3.26777e-08
-3.28615e-09
3.26912e-08
-3.36358e-09
3.26325e-08
-3.35382e-09
3.25135e-08
-3.25647e-09
3.23453e-08
-3.07156e-09
3.21399e-08
-2.80475e-09
3.19103e-08
-2.46422e-09
3.16707e-08
-2.06027e-09
3.14366e-08
-1.60579e-09
3.12245e-08
-1.1162e-09
3.10514e-08
-6.09248e-10
3.09343e-08
-1.04635e-10
3.08887e-08
3.76936e-10
3.0926e-08
8.13907e-10
3.10512e-08
1.18642e-09
3.12596e-08
1.47805e-09
3.15344e-08
1.67814e-09
3.18454e-08
1.78407e-09
1.80197e-09
3.21517e-08
3.57882e-08
-3.28494e-10
3.57473e-08
-3.8895e-10
3.56986e-08
-4.52123e-10
3.56468e-08
-5.14166e-10
3.55977e-08
-5.71459e-10
3.5558e-08
-6.21021e-10
3.5534e-08
-6.60871e-10
3.55314e-08
-6.91203e-10
3.55546e-08
-7.11991e-10
3.56073e-08
-7.24808e-10
3.56936e-08
-7.34386e-10
3.58157e-08
-7.41682e-10
3.59755e-08
-7.48661e-10
3.61752e-08
-7.60793e-10
3.64174e-08
-7.83516e-10
3.6704e-08
-8.22767e-10
3.70372e-08
-8.86177e-10
3.74187e-08
-9.84277e-10
3.78498e-08
-1.13299e-09
3.83301e-08
-1.35376e-09
3.88553e-08
-1.69029e-09
3.94118e-08
-2.20972e-09
3.98963e-08
-2.58604e-09
4.0269e-08
-2.84867e-09
4.05347e-08
-3.09281e-09
4.07001e-08
-3.2747e-09
4.07702e-08
-3.35623e-09
4.07563e-08
-3.34969e-09
4.0673e-08
-3.27047e-09
4.05331e-08
-3.11658e-09
4.03487e-08
-2.88714e-09
4.01328e-08
-2.58887e-09
3.98996e-08
-2.23106e-09
3.96642e-08
-1.82489e-09
3.94423e-08
-1.3839e-09
3.92498e-08
-9.23665e-10
3.91018e-08
-4.61281e-10
3.90118e-08
-1.45862e-11
3.89897e-08
3.99002e-10
3.90405e-08
7.63152e-10
3.91622e-08
1.06469e-09
3.93455e-08
1.29476e-09
3.95736e-08
1.45005e-09
3.98241e-08
1.53358e-09
1.55403e-09
4.0072e-08
4.69845e-08
-3.0027e-10
4.69489e-08
-3.53363e-10
4.69069e-08
-4.1018e-10
4.68612e-08
-4.68425e-10
4.68153e-08
-5.25593e-10
4.67739e-08
-5.7957e-10
4.67415e-08
-6.28473e-10
4.67231e-08
-6.72818e-10
4.67226e-08
-7.1148e-10
4.67441e-08
-7.46382e-10
4.67928e-08
-7.83012e-10
4.68707e-08
-8.19659e-10
4.69813e-08
-8.59246e-10
4.71286e-08
-9.08086e-10
4.73163e-08
-9.71212e-10
4.75478e-08
-1.05426e-09
4.78262e-08
-1.16454e-09
4.81539e-08
-1.31204e-09
4.85328e-08
-1.51181e-09
4.89614e-08
-1.78239e-09
4.94347e-08
-2.1636e-09
4.99362e-08
-2.71117e-09
5.03687e-08
-3.01863e-09
5.06937e-08
-3.17366e-09
5.09161e-08
-3.3152e-09
5.10404e-08
-3.39902e-09
5.10704e-08
-3.3862e-09
5.10202e-08
-3.29948e-09
5.09063e-08
-3.15653e-09
5.07416e-08
-2.95193e-09
5.05387e-08
-2.68422e-09
5.03115e-08
-2.36166e-09
5.00747e-08
-1.99434e-09
4.98437e-08
-1.59383e-09
4.96333e-08
-1.17352e-09
4.94578e-08
-7.48124e-10
4.93293e-08
-3.32847e-10
4.92572e-08
5.75677e-11
4.92465e-08
4.09687e-10
4.92971e-08
7.12498e-10
4.94035e-08
9.58289e-10
4.95549e-08
1.14339e-09
4.97365e-08
1.26847e-09
4.99316e-08
1.33844e-09
1.36152e-09
5.01241e-08
6.07932e-08
-2.74851e-10
6.07628e-08
-3.23055e-10
6.07281e-08
-3.75451e-10
6.06905e-08
-4.30821e-10
6.06525e-08
-4.87572e-10
6.06173e-08
-5.44398e-10
6.05885e-08
-5.99647e-10
6.05697e-08
-6.54035e-10
6.05646e-08
-7.06375e-10
6.05776e-08
-7.59322e-10
6.06112e-08
-8.16625e-10
6.06679e-08
-8.76347e-10
6.07516e-08
-9.42978e-10
6.08667e-08
-1.02323e-09
6.10169e-08
-1.12138e-09
6.12059e-08
-1.24325e-09
6.14372e-08
-1.39585e-09
6.17138e-08
-1.58864e-09
6.20377e-08
-1.83566e-09
6.2407e-08
-2.15171e-09
6.28163e-08
-2.57292e-09
6.32465e-08
-3.14138e-09
6.36105e-08
-3.38266e-09
6.38737e-08
-3.43681e-09
6.40408e-08
-3.4823e-09
6.41124e-08
-3.4706e-09
6.40918e-08
-3.36563e-09
6.39997e-08
-3.20741e-09
6.38532e-08
-3.00998e-09
6.36625e-08
-2.76127e-09
6.3441e-08
-2.46272e-09
6.32033e-08
-2.12392e-09
6.29641e-08
-1.75512e-09
6.27378e-08
-1.36758e-09
6.2538e-08
-9.73676e-10
6.23761e-08
-5.86275e-10
6.22611e-08
-2.17831e-10
6.21982e-08
1.20439e-10
6.21887e-08
4.19221e-10
6.22294e-08
6.71831e-10
6.23131e-08
8.74546e-10
6.24297e-08
1.02684e-09
6.25669e-08
1.13123e-09
6.27125e-08
1.19285e-09
1.21862e-09
6.28554e-08
7.76418e-08
-2.54532e-10
7.76187e-08
-2.99978e-10
7.75932e-08
-3.49904e-10
7.75662e-08
-4.03827e-10
7.75395e-08
-4.60894e-10
7.75156e-08
-5.20529e-10
7.74978e-08
-5.81805e-10
7.7489e-08
-6.4524e-10
7.74922e-08
-7.09563e-10
7.75098e-08
-7.76928e-10
7.75429e-08
-8.49676e-10
7.75976e-08
-9.31101e-10
7.7678e-08
-1.0234e-09
7.77853e-08
-1.13049e-09
7.7922e-08
-1.25809e-09
7.80914e-08
-1.4127e-09
7.82965e-08
-1.60086e-09
7.85393e-08
-1.83151e-09
7.88213e-08
-2.11768e-09
7.91393e-08
-2.46973e-09
7.94878e-08
-2.92141e-09
7.98442e-08
-3.49779e-09
8.01344e-08
-3.67283e-09
8.03314e-08
-3.63379e-09
8.04385e-08
-3.58938e-09
8.0449e-08
-3.48116e-09
8.03747e-08
-3.29132e-09
8.02457e-08
-3.07837e-09
8.00699e-08
-2.83417e-09
7.98563e-08
-2.54774e-09
7.96201e-08
-2.22651e-09
7.93759e-08
-1.87973e-09
7.91377e-08
-1.51692e-09
7.89185e-08
-1.14832e-09
7.87293e-08
-7.84536e-10
7.8579e-08
-4.35897e-10
7.84728e-08
-1.11715e-10
7.84131e-08
1.80185e-10
7.83983e-08
4.34066e-10
7.84236e-08
6.46447e-10
7.8482e-08
8.1621e-10
7.85643e-08
9.44518e-10
7.8661e-08
1.03451e-09
7.8763e-08
1.09086e-09
1.11916e-09
7.88625e-08
9.80266e-08
-2.42383e-10
9.80136e-08
-2.87007e-10
9.80001e-08
-3.36355e-10
9.79867e-08
-3.90425e-10
9.79748e-08
-4.48984e-10
9.79661e-08
-5.1187e-10
9.79632e-08
-5.78912e-10
9.7968e-08
-6.49983e-10
9.79846e-08
-7.26199e-10
9.8016e-08
-8.08302e-10
9.80635e-08
-8.97185e-10
9.81303e-08
-9.97893e-10
9.82191e-08
-1.1122e-09
9.83326e-08
-1.24399e-09
9.84725e-08
-1.39805e-09
9.86411e-08
-1.58126e-09
9.88397e-08
-1.79941e-09
9.90689e-08
-2.06072e-09
9.93284e-08
-2.37716e-09
9.96122e-08
-2.75358e-09
9.99148e-08
-3.22403e-09
1.00207e-07
-3.79041e-09
1.00431e-07
-3.89679e-09
1.0057e-07
-3.77285e-09
1.00616e-07
-3.63508e-09
1.00567e-07
-3.43185e-09
1.00457e-07
-3.18155e-09
1.00303e-07
-2.92421e-09
1.00105e-07
-2.63608e-09
9.9877e-08
-2.31994e-09
9.9635e-08
-1.98449e-09
9.93926e-08
-1.6373e-09
9.91623e-08
-1.28663e-09
9.8955e-08
-9.41034e-10
9.87793e-08
-6.08831e-10
9.86409e-08
-2.97469e-10
9.85425e-08
-1.32931e-11