/*--------------------------------*- C++ -*----------------------------------*\
| =========                 |                                                 |
| \\      /  F ield         | OpenFOAM: The Open Source CFD Toolbox           |
|  \\    /   O peration     | Version:  2312                                  |
|   \\  /    A nd           | Website:  www.openfoam.com                      |
|    \\/     M anipulation  |                                                 |
\*---------------------------------------------------------------------------*/
FoamFile
{
    version     2.0;
    format      ascii;
    arch        "LSB;label=32;scalar=64";
    class       surfaceScalarField;
    location    "62.25";
    object      phi;
}
// * * * * * * * * * * * * * * * * * * * * * * * * * * * * * * * * * * * * * //

dimensions      [0 3 -1 0 0 0 0];

oriented        oriented;

internalField   nonuniform List<scalar> 
9445
(
5.85774e-10
7.95314e-12
5.82436e-10
3.33808e-12
5.81789e-10
6.47854e-13
5.82924e-10
-1.13572e-12
5.85018e-10
-2.09353e-12
5.8796e-10
-2.94213e-12
5.91698e-10
-3.73847e-12
5.96273e-10
-4.57447e-12
6.01852e-10
-5.57893e-12
6.0887e-10
-7.01779e-12
6.1849e-10
-9.62053e-12
6.34364e-10
-1.5874e-11
6.69404e-10
-3.50401e-11
7.6912e-10
-9.9716e-11
-2.56865e-10
1.02599e-09
2.0519e-09
3.48579e-11
2.04006e-09
1.51825e-11
2.03713e-09
3.57112e-12
2.03982e-09
-3.82706e-12
2.04577e-09
-8.04025e-12
2.05455e-09
-1.17202e-11
2.06583e-09
-1.50157e-11
2.07969e-09
-1.84368e-11
2.09665e-09
-2.25441e-11
2.118e-09
-2.83608e-11
2.14669e-09
-3.83095e-11
2.18979e-09
-5.89802e-11
2.2609e-09
-1.06151e-10
2.3729e-09
-2.11709e-10
-3.73604e-10
2.48963e-09
4.05939e-09
8.61998e-11
4.03597e-09
3.86074e-11
4.02918e-09
1.03535e-11
4.0326e-09
-7.24705e-12
4.04214e-09
-1.75762e-11
4.05698e-09
-2.65641e-11
4.07627e-09
-3.43045e-11
4.09997e-09
-4.21358e-11
4.12878e-09
-5.13559e-11
4.16435e-09
-6.39291e-11
4.20973e-09
-8.36885e-11
4.26972e-09
-1.18967e-10
4.34706e-09
-1.83494e-10
4.42767e-09
-2.92314e-10
-4.20724e-10
4.47479e-09
6.75645e-09
1.67869e-10
6.7179e-09
7.71565e-11
6.70509e-09
2.31681e-11
6.70789e-09
-1.00504e-11
6.7202e-09
-2.98856e-11
6.74064e-09
-4.70035e-11
6.76763e-09
-6.1293e-11
6.80067e-09
-7.51755e-11
6.84027e-09
-9.09587e-11
6.88763e-09
-1.11285e-10
6.94416e-09
-1.40227e-10
7.00978e-09
-1.84582e-10
7.07801e-09
-2.51728e-10
7.12868e-09
-3.42977e-10
-4.31875e-10
7.13983e-09
1.03208e-08
2.85049e-10
1.02637e-08
1.34254e-10
1.02424e-08
4.4496e-11
1.02428e-08
-1.04662e-11
1.02567e-08
-4.38073e-11
1.02815e-08
-7.18231e-11
1.03149e-08
-9.47242e-11
1.03557e-08
-1.15906e-10
1.04035e-08
-1.38819e-10
1.04585e-08
-1.66264e-10
1.05197e-08
-2.01377e-10
1.05828e-08
-2.47715e-10
1.06377e-08
-3.06622e-10
1.06676e-08
-3.72909e-10
-4.27409e-10
1.06632e-08
1.49598e-08
4.39835e-10
1.48823e-08
2.11781e-10
1.48505e-08
7.62937e-11
1.48469e-08
-6.87656e-12
1.48614e-08
-5.83276e-11
1.4889e-08
-9.93796e-11
1.49267e-08
-1.32504e-10
1.49726e-08
-1.61718e-10
1.50251e-08
-1.91352e-10
1.50828e-08
-2.23946e-10
1.51426e-08
-2.61167e-10
1.51984e-08
-3.03546e-10
1.52407e-08
-3.48958e-10
1.52592e-08
-3.91346e-10
-4.19929e-10
1.52517e-08
2.09072e-08
6.27079e-10
2.08116e-08
3.07447e-10
2.077e-08
1.17888e-10
2.07621e-08
9.80562e-13
2.07768e-08
-7.29625e-11
2.08059e-08
-1.28553e-10
2.08459e-08
-1.72474e-10
2.08939e-08
-2.09721e-10
2.09473e-08
-2.44771e-10
2.10032e-08
-2.79785e-10
2.10572e-08
-3.15221e-10
2.11036e-08
-3.49956e-10
2.11358e-08
-3.81096e-10
2.11488e-08
-4.04397e-10
-4.15102e-10
2.1144e-08
2.84152e-08
8.28573e-10
2.83118e-08
4.10867e-10
2.82667e-08
1.6297e-10
2.82582e-08
9.47321e-12
2.82742e-08
-8.88998e-11
2.83053e-08
-1.59703e-10
2.83468e-08
-2.13954e-10
2.83951e-08
-2.58007e-10
2.84466e-08
-2.96333e-10
2.84977e-08
-3.30838e-10
2.8544e-08
-3.6152e-10
2.85811e-08
-3.87111e-10
2.86057e-08
-4.05616e-10
2.86164e-08
-4.15095e-10
-4.14262e-10
2.86155e-08
3.77447e-08
1.00786e-09
3.76562e-08
4.9943e-10
3.76225e-08
1.96647e-10
3.76232e-08
8.73771e-12
3.76466e-08
-1.12241e-10
3.76835e-08
-1.96598e-10
3.77285e-08
-2.5897e-10
3.77776e-08
-3.07166e-10
3.78271e-08
-3.45825e-10
3.78733e-08
-3.76982e-10
3.79127e-08
-4.00976e-10
3.7943e-08
-4.17362e-10
3.79629e-08
-4.25556e-10
3.79733e-08
-4.25424e-10
-4.17415e-10
3.79764e-08
4.91655e-08
1.11201e-09
4.91272e-08
5.37813e-10
4.91295e-08
1.94333e-10
4.91569e-08
-1.87273e-11
4.92001e-08
-1.55435e-10
4.92516e-08
-2.48045e-10
4.93064e-08
-3.13778e-10
4.93609e-08
-3.61703e-10
4.9412e-08
-3.96873e-10
4.94568e-08
-4.21852e-10
4.94937e-08
-4.37806e-10
4.95217e-08
-4.45388e-10
4.95414e-08
-4.45213e-10
4.95542e-08
-4.38229e-10
-4.25615e-10
4.95624e-08
6.29872e-08
1.08944e-09
6.30373e-08
4.87684e-10
6.31043e-08
1.2737e-10
6.31803e-08
-9.48074e-11
6.32601e-08
-2.35191e-10
6.3339e-08
-3.26917e-10
6.34137e-08
-3.88535e-10
6.3482e-08
-4.30033e-10
6.35422e-08
-4.5702e-10
6.35931e-08
-4.72762e-10
6.36346e-08
-4.79282e-10
6.36673e-08
-4.78107e-10
6.36927e-08
-4.70567e-10
6.37125e-08
-4.58071e-10
-4.41966e-10
6.37288e-08
7.96364e-08
9.22882e-10
7.97938e-08
3.30271e-10
7.99424e-08
-2.12599e-11
8.0082e-08
-2.34448e-10
8.0211e-08
-3.64178e-10
8.03282e-08
-4.44046e-10
8.04324e-08
-4.92796e-10
8.05234e-08
-5.21028e-10
8.06013e-08
-5.349e-10
8.06668e-08
-5.38269e-10
8.07212e-08
-5.33724e-10
8.07664e-08
-5.23234e-10
8.08042e-08
-5.08372e-10
8.08367e-08
-4.90571e-10
-4.71037e-10
8.08657e-08
9.97412e-08
6.50591e-10
9.99838e-08
8.76909e-11
1.00202e-07
-2.39659e-10
1.00398e-07
-4.30164e-10
1.00572e-07
-5.38686e-10
1.00726e-07
-5.98044e-10
1.00861e-07
-6.27088e-10
1.00977e-07
-6.36892e-10
1.01076e-07
-6.3408e-10
1.0116e-07
-6.22867e-10
1.01233e-07
-6.06054e-10
1.01295e-07
-5.85657e-10
1.0135e-07
-5.63163e-10
1.01399e-07
-5.39779e-10
-5.16426e-10
1.01444e-07
1.24104e-07
3.42884e-10
1.24379e-07
-1.87405e-10
1.24626e-07
-4.86223e-10
1.24846e-07
-6.50198e-10
1.25041e-07
-7.34208e-10
1.25213e-07
-7.70286e-10
1.25364e-07
-7.77672e-10
1.25495e-07
-7.67854e-10
1.25609e-07
-7.47869e-10
1.25708e-07
-7.22108e-10
1.25795e-07
-6.93348e-10
1.25873e-07
-6.63441e-10
1.25944e-07
-6.33625e-10
1.26009e-07
-6.0479e-10
-5.77527e-10
1.2607e-07
1.53499e-07
5.18286e-11
1.53759e-07
-4.47087e-10
1.53991e-07
-7.18047e-10
1.54199e-07
-8.57839e-10
1.54384e-07
-9.19462e-10
1.54549e-07
-9.3489e-10
1.54694e-07
-9.2331e-10
1.54823e-07
-8.9669e-10
1.54937e-07
-8.62271e-10
1.5504e-07
-8.24463e-10
1.55132e-07
-7.85927e-10
1.55217e-07
-7.48306e-10
1.55296e-07
-7.12573e-10
1.55371e-07
-6.79314e-10
-6.48814e-10
1.55442e-07
1.88424e-07
-2.12072e-10
1.88647e-07
-6.70678e-10
1.88844e-07
-9.14777e-10
1.89019e-07
-1.03275e-09
1.89175e-07
-1.07561e-09
1.89315e-07
-1.07474e-09
1.89441e-07
-1.04898e-09
1.89554e-07
-1.01022e-09
1.89658e-07
-9.65664e-10
1.89753e-07
-9.19592e-10
1.89841e-07
-8.74461e-10
1.89925e-07
-8.31712e-10
1.90004e-07
-7.92097e-10
1.90081e-07
-7.55971e-10
-7.23392e-10
1.90156e-07
2.28936e-07
-4.51988e-10
2.29127e-07
-8.61876e-10
2.29289e-07
-1.07617e-09
2.29429e-07
-1.17267e-09
2.29553e-07
-1.19979e-09
2.29665e-07
-1.18657e-09
2.29767e-07
-1.15114e-09
2.29861e-07
-1.10469e-09
2.2995e-07
-1.05415e-09
2.30034e-07
-1.00348e-09
2.30114e-07
-9.54845e-10
2.30192e-07
-9.09502e-10
2.30268e-07
-8.68019e-10
2.30342e-07
-8.3057e-10
-7.97022e-10
2.30416e-07
2.74536e-07
-6.74535e-10
2.74702e-07
-1.02782e-09
2.74834e-07
-1.20828e-09
2.74945e-07
-1.28369e-09
2.75042e-07
-1.29723e-09
2.75131e-07
-1.27514e-09
2.75214e-07
-1.23407e-09
2.75292e-07
-1.18342e-09
2.75368e-07
-1.13024e-09
2.75443e-07
-1.07783e-09
2.75516e-07
-1.02808e-09
2.75589e-07
-9.82014e-10
2.75661e-07
-9.4002e-10
2.75732e-07
-9.02276e-10
-8.68557e-10
2.75804e-07
3.23831e-07
-8.8406e-10
3.23976e-07
-1.1725e-09
3.24082e-07
-1.31496e-09
3.24166e-07
-1.36783e-09
3.24237e-07
-1.36832e-09
3.24301e-07
-1.33893e-09
3.24361e-07
-1.29398e-09
3.2442e-07
-1.24219e-09
3.24478e-07
-1.1887e-09
3.24537e-07
-1.1366e-09
3.24597e-07
-1.08755e-09
3.24657e-07
-1.04226e-09
3.24718e-07
-1.00092e-09
3.24779e-07
-9.63346e-10
-9.29357e-10
3.2484e-07
3.73846e-07
-1.0288e-09
3.73915e-07
-1.24125e-09
3.73944e-07
-1.34411e-09
3.73955e-07
-1.37849e-09
3.73958e-07
-1.37138e-09
3.7396e-07
-1.34125e-09
3.73966e-07
-1.30002e-09
3.73977e-07
-1.25327e-09
3.73993e-07
-1.20476e-09
3.74014e-07
-1.15733e-09
3.74039e-07
-1.11243e-09
3.74067e-07
-1.07065e-09
3.74099e-07
-1.03215e-09
3.74132e-07
-9.96836e-10
-9.64552e-10
3.74167e-07
3.71834e-07
-1.12317e-09
3.71864e-07
-1.27124e-09
3.7186e-07
-1.34058e-09
3.71842e-07
-1.36026e-09
3.71819e-07
-1.3489e-09
3.71798e-07
-1.3196e-09
3.71779e-07
-1.28136e-09
3.71765e-07
-1.23908e-09
3.71756e-07
-1.19574e-09
3.71752e-07
-1.15323e-09
3.71752e-07
-1.11254e-09
3.71755e-07
-1.07405e-09
3.71761e-07
-1.03782e-09
3.71768e-07
-1.00374e-09
-9.71732e-10
3.71775e-07
3.18636e-07
-1.12919e-09
3.18602e-07
-1.2368e-09
3.18548e-07
-1.2863e-09
3.18486e-07
-1.29827e-09
3.18424e-07
-1.28691e-09
3.18366e-07
-1.26161e-09
3.18313e-07
-1.22866e-09
3.18266e-07
-1.19211e-09
3.18225e-07
-1.15433e-09
3.18188e-07
-1.11672e-09
3.18155e-07
-1.07999e-09
3.18126e-07
-1.04453e-09
3.18099e-07
-1.01042e-09
3.18072e-07
-9.77627e-10
-9.46026e-10
3.18047e-07
2.67306e-07
-1.09159e-09
2.67237e-07
-1.16775e-09
2.67153e-07
-1.20236e-09
2.67064e-07
-1.20914e-09
2.66976e-07
-1.19847e-09
2.66891e-07
-1.17696e-09
2.66812e-07
-1.14918e-09
2.66738e-07
-1.11811e-09
2.66669e-07
-1.08553e-09
2.66605e-07
-1.05247e-09
2.66544e-07
-1.01955e-09
2.66487e-07
-9.8706e-10
2.66431e-07
-9.55032e-10
2.66377e-07
-9.23401e-10
-8.92019e-10
2.66323e-07
2.20543e-07
-1.01512e-09
2.20444e-07
-1.06836e-09
2.20333e-07
-1.09194e-09
2.2022e-07
-1.09542e-09
2.20107e-07
-1.08603e-09
2.19999e-07
-1.06842e-09
2.19895e-07
-1.0457e-09
2.19797e-07
-1.0199e-09
2.19704e-07
-9.92283e-10
2.19615e-07
-9.63616e-10
2.1953e-07
-9.34336e-10
2.19447e-07
-9.04667e-10
2.19367e-07
-8.74651e-10
2.19288e-07
-8.44267e-10
-8.13444e-10
2.19209e-07
1.79447e-07
-9.0403e-10
1.79321e-07
-9.41897e-10
1.79187e-07
-9.5864e-10
1.79053e-07
-9.60934e-10
1.78921e-07
-9.53738e-10
1.78792e-07
-9.40209e-10
1.78669e-07
-9.22418e-10
1.78551e-07
-9.01702e-10
1.78438e-07
-8.78934e-10
1.78329e-07
-8.5466e-10
1.78223e-07
-8.29209e-10
1.78122e-07
-8.02769e-10
1.78022e-07
-7.75411e-10
1.77925e-07
-7.47155e-10
-7.1797e-10
1.7783e-07
1.44217e-07
-7.69552e-10
1.44073e-07
-7.98185e-10
1.43926e-07
-8.11766e-10
1.4378e-07
-8.14912e-10
1.43638e-07
-8.10901e-10
1.43499e-07
-8.01802e-10
1.43366e-07
-7.88981e-10
1.43237e-07
-7.73351e-10
1.43114e-07
-7.55532e-10
1.42995e-07
-7.35919e-10
1.42881e-07
-7.1477e-10
1.4277e-07
-6.92242e-10
1.42663e-07
-6.68411e-10
1.42559e-07
-6.43316e-10
-6.16955e-10
1.42458e-07
1.14603e-07
-6.28549e-10
1.14457e-07
-6.52219e-10
1.1431e-07
-6.65006e-10
1.14165e-07
-6.70163e-10
1.14024e-07
-6.69781e-10
1.13888e-07
-6.65177e-10
1.13756e-07
-6.57251e-10
1.13629e-07
-6.46637e-10
1.13507e-07
-6.33775e-10
1.13391e-07
-6.18963e-10
1.13278e-07
-6.02403e-10
1.1317e-07
-5.8423e-10
1.13066e-07
-5.64519e-10
1.12966e-07
-5.43326e-10
-5.20674e-10
1.1287e-07
9.01253e-08
-4.96156e-10
8.99901e-08
-5.17097e-10
8.98552e-08
-5.30103e-10
8.97226e-08
-5.37493e-10
8.95933e-08
-5.40491e-10
8.9468e-08
-5.39906e-10
8.93471e-08
-5.36341e-10
8.92307e-08
-5.30243e-10
8.91189e-08
-5.21933e-10
8.90115e-08
-5.11638e-10
8.89086e-08
-4.99519e-10
8.88101e-08
-4.85693e-10
8.87158e-08
-4.70232e-10
8.86257e-08
-4.53197e-10
-4.34622e-10
8.85396e-08
7.01795e-08
-3.8122e-10
7.00626e-08
-4.00194e-10
6.99459e-08
-4.13424e-10
6.98309e-08
-4.22497e-10
6.97184e-08
-4.28029e-10
6.9609e-08
-4.30518e-10
6.95031e-08
-4.3038e-10
6.94008e-08
-4.27928e-10
6.93022e-08
-4.23395e-10
6.92075e-08
-4.16954e-10
6.91168e-08
-4.08735e-10
6.90299e-08
-3.98836e-10
6.8947e-08
-3.87317e-10
6.8868e-08
-3.74236e-10
-3.59628e-10
6.8793e-08
5.41131e-08
-2.86383e-10
5.40163e-08
-3.03347e-10
5.39191e-08
-3.16263e-10
5.38227e-08
-3.26089e-10
5.37277e-08
-3.33063e-10
5.36347e-08
-3.37503e-10
5.3544e-08
-3.39695e-10
5.3456e-08
-3.39851e-10
5.33707e-08
-3.38139e-10
5.32884e-08
-3.3469e-10
5.32093e-08
-3.29608e-10
5.31334e-08
-3.22964e-10
5.30609e-08
-3.14804e-10
5.29919e-08
-3.05177e-10
-2.94114e-10
5.29263e-08
4.12897e-08
-2.10459e-10
4.12115e-08
-2.25122e-10
4.11323e-08
-2.37059e-10
4.10529e-08
-2.46694e-10
4.09739e-08
-2.54068e-10
4.08958e-08
-2.594e-10
4.0819e-08
-2.62875e-10
4.07438e-08
-2.64634e-10
4.06704e-08
-2.64797e-10
4.05992e-08
-2.6346e-10
4.05303e-08
-2.60698e-10
4.04639e-08
-2.56559e-10
4.04002e-08
-2.51075e-10
4.03393e-08
-2.44281e-10
-2.36205e-10
4.02814e-08
3.11313e-08
-1.50785e-10
3.10692e-08
-1.62935e-10
3.10054e-08
-1.73342e-10
3.09408e-08
-1.8203e-10
3.08757e-08
-1.88983e-10
3.08106e-08
-1.94352e-10
3.0746e-08
-1.98252e-10
3.06822e-08
-2.00772e-10
3.06194e-08
-2.01995e-10
3.05579e-08
-2.01988e-10
3.0498e-08
-2.008e-10
3.04399e-08
-1.98459e-10
3.03838e-08
-1.94986e-10
3.03299e-08
-1.90405e-10
-1.84735e-10
3.02784e-08
2.31374e-08
-1.04597e-10
2.30887e-08
-1.14201e-10
2.30381e-08
-1.22734e-10
2.2986e-08
-1.29995e-10
2.2933e-08
-1.35981e-10
2.28795e-08
-1.40794e-10
2.28257e-08
-1.445e-10
2.27721e-08
-1.47154e-10
2.27189e-08
-1.48809e-10
2.26664e-08
-1.49507e-10
2.26149e-08
-1.49278e-10
2.25646e-08
-1.48137e-10
2.25157e-08
-1.46094e-10
2.24684e-08
-1.43162e-10
-1.39356e-10
2.24231e-08
1.68873e-08
-6.95134e-11
1.68498e-08
-7.67092e-11
1.68103e-08
-8.32518e-11
1.67692e-08
-8.88755e-11
1.67268e-08
-9.36138e-11
1.66835e-08
-9.75321e-11
1.66397e-08
-1.00664e-10
1.65956e-08
-1.03041e-10
1.65515e-08
-1.04692e-10
1.65076e-08
-1.05642e-10
1.64642e-08
-1.05908e-10
1.64216e-08
-1.05494e-10
1.63799e-08
-1.04407e-10
1.63394e-08
-1.02649e-10
-1.0023e-10
1.63003e-08
1.20337e-08
-4.35681e-11
1.20056e-08
-4.86208e-11
1.19756e-08
-5.3255e-11
1.1944e-08
-5.72597e-11
1.1911e-08
-6.06936e-11
1.18771e-08
-6.35937e-11
1.18424e-08
-6.59745e-11
1.18072e-08
-6.78499e-11
1.17718e-08
-6.92359e-11
1.17363e-08
-7.01444e-11
1.17009e-08
-7.05832e-11
1.1666e-08
-7.05525e-11
1.16317e-08
-7.00543e-11
1.15981e-08
-6.90869e-11
-6.76525e-11
1.15655e-08
8.29304e-09
-2.51084e-11
8.27278e-09
-2.83639e-11
8.25086e-09
-3.1328e-11
8.2275e-09
-3.38979e-11
8.20294e-09
-3.61349e-11
8.1774e-09
-3.80565e-11
8.15109e-09
-3.96667e-11
8.12421e-09
-4.09699e-11
8.09695e-09
-4.19726e-11
8.06948e-09
-4.26797e-11
8.04199e-09
-4.30941e-11
8.01466e-09
-4.3214e-11
7.98764e-09
-4.30395e-11
7.96112e-09
-4.25665e-11
-4.17916e-11
7.93526e-09
5.43534e-09
-1.27013e-11
5.42152e-09
-1.45494e-11
5.40638e-09
-1.61848e-11
5.39009e-09
-1.76075e-11
5.37282e-09
-1.88631e-11
5.35472e-09
-1.99578e-11
5.33594e-09
-2.08906e-11
5.31663e-09
-2.16615e-11
5.29693e-09
-2.22722e-11
5.27698e-09
-2.27236e-11
5.2569e-09
-2.30165e-11
5.23684e-09
-2.31488e-11
5.21692e-09
-2.31204e-11
5.19728e-09
-2.29266e-11
-2.25605e-11
5.17804e-09
3.27484e-09
-5.08749e-12
3.26623e-09
-5.93283e-12
3.25667e-09
-6.63138e-12
3.24631e-09
-7.24337e-12
3.23524e-09
-7.79194e-12
3.22356e-09
-8.27714e-12
3.21136e-09
-8.69691e-12
3.19875e-09
-9.04978e-12
3.18582e-09
-9.33545e-12
3.17265e-09
-9.55361e-12
3.15933e-09
-9.70424e-12
3.14597e-09
-9.78588e-12
3.13265e-09
-9.79846e-12
3.11946e-09
-9.73879e-12
-9.59929e-12
3.1065e-09
1.66222e-09
-1.16896e-12
1.65769e-09
-1.40694e-12
1.65263e-09
-1.56771e-12
1.6471e-09
-1.71274e-12
1.64115e-09
-1.8465e-12
1.63484e-09
-1.96728e-12
1.62822e-09
-2.0735e-12
1.62134e-09
-2.16406e-12
1.61424e-09
-2.23845e-12
1.60698e-09
-2.29633e-12
1.59961e-09
-2.33765e-12
1.59219e-09
-2.36194e-12
1.58476e-09
-2.3691e-12
1.57738e-09
-2.35818e-12
-2.3238e-12
1.5701e-09
4.77798e-10
4.76391e-10
4.74824e-10
4.73111e-10
4.71264e-10
4.69297e-10
4.67224e-10
4.65059e-10
4.62821e-10
4.60525e-10
4.58187e-10
4.55825e-10
4.53456e-10
4.51098e-10
4.48774e-10
1.22952e-09
-4.81512e-10
2.77974e-10
1.52259e-09
-3.92143e-10
9.90764e-11
1.81963e-09
-2.35536e-10
-6.1504e-11
2.11383e-09
-7.78474e-11
-2.16349e-10
2.40286e-09
7.41987e-11
-3.63228e-10
2.68718e-09
2.10837e-10
-4.95162e-10
2.96784e-09
3.2825e-10
-6.08907e-10
3.24558e-09
4.22641e-10
-7.00388e-10
3.52101e-09
4.89716e-10
-7.65143e-10
3.79455e-09
5.24857e-10
-7.98397e-10
4.06649e-09
5.23053e-10
-7.94991e-10
4.33698e-09
4.78868e-10
-7.4936e-10
4.60603e-09
3.86739e-10
-6.55786e-10
4.87352e-09
2.41819e-10
-5.09313e-10
5.1393e-09
4.16631e-11
-3.07445e-10
5.40357e-09
-2.1045e-10
-5.3811e-11
5.66716e-09
-5.00504e-10
2.36908e-10
5.93261e-09
-7.97372e-10
5.31926e-10
6.20487e-09
-1.04965e-09
7.77383e-10
6.4921e-09
-1.17715e-09
8.89916e-10
6.80494e-09
-1.09806e-09
7.85215e-10
7.15225e-09
-7.45183e-10
3.97881e-10
7.48017e-09
-1.81658e-10
-1.46262e-10
7.7597e-09
1.85586e-10
-4.65114e-10
7.98504e-09
3.06507e-10
-5.31856e-10
8.15498e-09
2.40773e-10
-4.10713e-10
8.27123e-09
4.5812e-11
-1.62057e-10
8.33627e-09
-2.33355e-10
1.68313e-10
8.35192e-09
-5.58958e-10
5.43308e-10
8.31893e-09
-8.96265e-10
9.29257e-10
8.23803e-09
-1.21481e-09
1.29571e-09
8.11084e-09
-1.48581e-09
1.61299e-09
7.939e-09
-1.67573e-09
1.84758e-09
7.72499e-09
-1.76265e-09
1.97666e-09
7.47198e-09
-1.73154e-09
1.98456e-09
7.18331e-09
-1.57416e-09
1.86283e-09
6.86219e-09
-1.28791e-09
1.60903e-09
6.51159e-09
-8.72789e-10
1.22338e-09
6.13477e-09
-3.27507e-10
7.04331e-10
5.7341e-09
3.54611e-10
4.60625e-11
5.30916e-09
1.17785e-09
-7.52918e-10
4.84839e-09
2.11914e-09
-1.65837e-09
4.32778e-09
3.05723e-09
-2.53663e-09
3.74902e-09
3.69936e-09
-3.12059e-09
3.28321e-09
3.40179e-09
-2.93599e-09
2.57117e-09
-5.6305e-10
2.74818e-09
-5.69147e-10
2.98904e-09
-4.76401e-10
3.25897e-09
-3.47774e-10
3.54316e-09
-2.09991e-10
3.83373e-09
-7.97379e-11
4.12717e-09
3.48145e-11
4.42174e-09
1.28074e-10
4.71658e-09
1.94874e-10
5.01123e-09
2.30207e-10
5.30536e-09
2.28921e-10
5.59867e-09
1.85557e-10
5.89078e-09
9.46302e-11
6.18122e-09
-4.86171e-11
6.46951e-09
-2.46635e-10
6.75544e-09
-4.96374e-10
7.03953e-09
-7.84595e-10
7.32401e-09
-1.08186e-09
7.61375e-09
-1.33939e-09
7.9171e-09
-1.48049e-09
8.2454e-09
-1.42636e-09
8.6088e-09
-1.10858e-09
8.95273e-09
-5.25591e-10
9.2477e-09
-1.09381e-10
9.48748e-09
6.67268e-11
9.67016e-09
5.80878e-11
9.79688e-09
-8.09027e-11
9.86972e-09
-3.06202e-10
9.89031e-09
-5.79541e-10
9.85923e-09
-8.65193e-10
9.77733e-09
-1.13291e-09
9.64682e-09
-1.35529e-09
9.46984e-09
-1.49875e-09
9.24976e-09
-1.54256e-09
8.991e-09
-1.47279e-09
8.69872e-09
-1.28188e-09
8.37862e-09
-9.6781e-10
8.03738e-09
-5.31544e-10
7.68443e-09
2.54442e-11
7.33266e-09
7.06372e-10
7.00193e-09
1.50859e-09
6.71675e-09
2.40432e-09
6.50669e-09
3.26729e-09
6.41178e-09
3.79427e-09
3.37682e-09
6.31817e-09
4.49255e-09
-5.80811e-10
4.57401e-09
-6.5061e-10
4.73152e-09
-6.33907e-10
4.94604e-09
-5.62294e-10
5.19685e-09
-4.60805e-10
5.47049e-09
-3.53372e-10
5.75843e-09
-2.53132e-10
6.05544e-09
-1.68938e-10
6.35828e-09
-1.07962e-10
6.66484e-09
-7.63565e-11
6.97364e-09
-7.98743e-11
7.28349e-09
-1.24294e-10
7.5933e-09
-2.15183e-10
7.90199e-09
-3.57306e-10
8.20851e-09
-5.53157e-10
8.51208e-09
-7.99945e-10
8.81265e-09
-1.08516e-09
9.11196e-09
-1.38116e-09
9.41454e-09
-1.64197e-09
9.72871e-09
-1.79467e-09
1.00664e-08
-1.76403e-09
1.04389e-08
-1.48113e-09
1.07925e-08
-8.79169e-10
1.10978e-08
-4.14662e-10
1.13482e-08
-1.83641e-10
1.15409e-08
-1.34639e-10
1.16763e-08
-2.16316e-10
1.17559e-08
-3.85846e-10
1.17811e-08
-6.0469e-10
1.17522e-08
-8.36257e-10
1.167e-08
-1.05078e-09
1.15377e-08
-1.22296e-09
1.13579e-08
-1.31899e-09
1.11352e-08
-1.31982e-09
1.08755e-08
-1.21307e-09
1.05861e-08
-9.92489e-10
1.02758e-08
-6.57531e-10
9.95582e-09
-2.11562e-10
9.64133e-09
3.39935e-10
9.35659e-09
9.91114e-10
9.13679e-09
1.72838e-09
9.02829e-09
2.51283e-09
9.06907e-09
3.22651e-09
9.23162e-09
3.63173e-09
3.31472e-09
9.29372e-09
7.12285e-09
-5.63833e-10
7.14083e-09
-6.68592e-10
7.21636e-09
-7.09441e-10
7.35584e-09
-7.01771e-10
7.54824e-09
-6.53207e-10
7.77943e-09
-5.84559e-10
8.03864e-09
-5.12349e-10
8.31788e-09
-4.48177e-10
8.61142e-09
-4.01494e-10
8.91511e-09
-3.8005e-10
9.22585e-09
-3.90612e-10
9.54117e-09
-4.39615e-10
9.85891e-09
-5.32927e-10
1.01771e-08
-6.75459e-10
1.04937e-08
-8.69824e-10
1.08073e-08
-1.11354e-09
1.1117e-08
-1.39479e-09
1.14236e-08
-1.68781e-09
1.17312e-08
-1.94959e-09
1.20478e-08
-2.11123e-09
1.23855e-08
-2.10173e-09
1.27569e-08
-1.8525e-09
1.31105e-08
-1.23284e-09
1.34182e-08
-7.22345e-10
1.36729e-08
-4.38365e-10
1.3871e-08
-3.32716e-10
1.40117e-08
-3.57045e-10
1.40959e-08
-4.7003e-10
1.41243e-08
-6.33093e-10
1.40972e-08
-8.09088e-10
1.40153e-08
-9.68891e-10
1.38827e-08
-1.09034e-09
1.37027e-08
-1.13909e-09
1.34813e-08
-1.09836e-09
1.32261e-08
-9.5788e-10
1.29469e-08
-7.1332e-10
1.26558e-08
-3.66393e-10
1.23681e-08
7.61521e-11
1.21046e-08
6.03466e-10
1.18955e-08
1.20019e-09
1.17821e-08
1.84172e-09
1.1812e-08
2.48295e-09
1.20096e-08
3.02889e-09
1.23236e-08
3.31772e-09
3.13128e-09
1.25071e-08
1.06331e-08
-5.33771e-10
1.06138e-08
-6.49308e-10
1.06297e-08
-7.25291e-10
1.06932e-08
-7.65357e-10
1.08129e-08
-7.72862e-10
1.09811e-08
-7.52806e-10
1.11884e-08
-7.19633e-10
1.14267e-08
-6.86483e-10
1.16892e-08
-6.63915e-10
1.197e-08
-6.60874e-10
1.22645e-08
-6.85127e-10
1.25688e-08
-7.43926e-10
1.28795e-08
-8.43573e-10
1.31932e-08
-9.89243e-10
1.35072e-08
-1.18376e-09
1.38186e-08
-1.42494e-09
1.41255e-08
-1.70169e-09
1.44278e-08
-1.99014e-09
1.47286e-08
-2.25039e-09
1.50351e-08
-2.41773e-09
1.53595e-08
-2.42609e-09
1.57151e-08
-2.20811e-09
1.60553e-08
-1.57308e-09
1.63539e-08
-1.02093e-09
1.66036e-08
-6.88052e-10
1.67996e-08
-5.28725e-10
1.694e-08
-4.97418e-10
1.70246e-08
-5.54648e-10
1.70534e-08
-6.61904e-10
1.70266e-08
-7.82302e-10
1.69449e-08
-8.87226e-10
1.68132e-08
-9.5862e-10
1.66358e-08
-9.61634e-10
1.64197e-08
-8.82356e-10
1.61749e-08
-7.13024e-10
1.59133e-08
-4.51776e-10
1.56501e-08
-1.03139e-10
1.54037e-08
3.22511e-10
1.51982e-08
8.09031e-10
1.50643e-08
1.3341e-09
1.50394e-08
1.86654e-09
1.51599e-08
2.36247e-09
1.54344e-08
2.75442e-09
1.58029e-08
2.9492e-09
2.85185e-09
1.60823e-08
1.52222e-08
-5.04296e-10
1.51866e-08
-6.13667e-10
1.51683e-08
-7.06978e-10
1.51783e-08
-7.75435e-10
1.52282e-08
-8.22689e-10
1.5325e-08
-8.49663e-10
1.54653e-08
-8.59955e-10
1.56431e-08
-8.64198e-10
1.58527e-08
-8.7355e-10
1.60885e-08
-8.96666e-10
1.6345e-08
-9.41628e-10
1.66173e-08
-1.01626e-09
1.69009e-08
-1.12713e-09
1.71913e-08
-1.27964e-09
1.74843e-08
-1.47681e-09
1.77761e-08
-1.71675e-09
1.80634e-08
-1.98894e-09
1.83447e-08
-2.27147e-09
1.8622e-08
-2.52768e-09
1.89013e-08
-2.697e-09
1.91942e-08
-2.71901e-09
1.95146e-08
-2.5285e-09
1.98233e-08
-1.88176e-09
2.00971e-08
-1.29475e-09
2.03285e-08
-9.19503e-10
2.05117e-08
-7.11849e-10
2.0643e-08
-6.28791e-10
2.07214e-08
-6.33035e-10
2.07456e-08
-6.86062e-10
2.07159e-08
-7.52647e-10
2.0634e-08
-8.05271e-10
2.05034e-08
-8.28054e-10
2.03303e-08
-7.88561e-10
2.01235e-08
-6.75509e-10
1.98943e-08
-4.83831e-10
1.96569e-08
-2.14415e-10
1.94285e-08
1.25333e-10
1.92291e-08
5.21857e-10
1.90827e-08
9.55433e-10
1.90162e-08
1.40063e-09
1.90569e-08
1.8258e-09
1.92254e-08
2.19401e-09
1.95175e-08
2.46234e-09
1.98812e-08
2.58545e-09
2.52963e-09
2.02034e-08
2.11219e-08
-4.82184e-10
2.10874e-08
-5.79243e-10
2.1054e-08
-6.73487e-10
2.10357e-08
-7.5716e-10
2.10397e-08
-8.26727e-10
2.10758e-08
-8.85727e-10
2.1148e-08
-9.32196e-10
2.12575e-08
-9.7364e-10
2.14006e-08
-1.0167e-09
2.15736e-08
-1.06969e-09
2.17719e-08
-1.1399e-09
2.19907e-08
-1.2351e-09
2.22251e-08
-1.36147e-09
2.24699e-08
-1.52441e-09
2.272e-08
-1.72692e-09
2.29703e-08
-1.96712e-09
2.32164e-08
-2.23496e-09
2.34553e-08
-2.51037e-09
2.36876e-08
-2.75997e-09
2.39177e-08
-2.92711e-09
2.41563e-08
-2.95767e-09
2.44172e-08
-2.7894e-09
2.46716e-08
-2.13617e-09
2.49007e-08
-1.52377e-09
2.50965e-08
-1.11538e-09
2.52521e-08
-8.67413e-10
2.53623e-08
-7.39003e-10
2.54244e-08
-6.95154e-10
2.54364e-08
-6.98073e-10
2.5398e-08
-7.14155e-10
2.53137e-08
-7.21049e-10
2.51833e-08
-6.97651e-10
2.50151e-08
-6.20321e-10
2.48198e-08
-4.80267e-10
2.46102e-08
-2.74205e-10
2.44016e-08
-5.83698e-12
2.42118e-08
3.15147e-10
2.40607e-08
6.72951e-10
2.39692e-08
1.04692e-09
2.39575e-08
1.41233e-09
2.40415e-08
1.74182e-09
2.42275e-08
2.008e-09
2.45037e-08
2.18621e-09
2.48309e-08
2.25824e-09
2.21767e-09
2.51428e-08
2.86022e-08
-4.68914e-10
2.85768e-08
-5.53812e-10
2.85453e-08
-6.41997e-10
2.85165e-08
-7.2829e-10
2.84988e-08
-8.09093e-10
2.84984e-08
-8.85307e-10
2.85211e-08
-9.54871e-10
2.857e-08
-1.02259e-09
2.86484e-08
-1.09509e-09
2.87535e-08
-1.17475e-09
2.8883e-08
-1.26938e-09
2.90335e-08
-1.38567e-09
2.92007e-08
-1.52867e-09
2.93797e-08
-1.70341e-09
2.95652e-08
-1.91239e-09
2.97514e-08
-2.15333e-09
2.99327e-08
-2.41624e-09
3.01052e-08
-2.68285e-09
3.02681e-08
-2.92288e-09
3.0424e-08
-3.083e-09
3.05823e-08
-3.11602e-09
3.07561e-08
-2.96313e-09
3.09301e-08
-2.31024e-09
3.10908e-08
-1.68448e-09
3.12302e-08
-1.25474e-09
3.13399e-08
-9.77115e-10
3.14131e-08
-8.12252e-10
3.1444e-08
-7.26008e-10
3.14338e-08
-6.87836e-10
3.13824e-08
-6.62747e-10
3.12883e-08
-6.26946e-10
3.11537e-08
-5.63107e-10
3.09894e-08
-4.56026e-10
3.08063e-08
-2.97126e-10
3.06177e-08
-8.56469e-11
3.04393e-08
1.7262e-10
3.02881e-08
4.66321e-10
3.01817e-08
7.79353e-10
3.01363e-08
1.09234e-09
3.01645e-08
1.38412e-09
3.02725e-08
1.63377e-09
3.04573e-08
1.82325e-09
3.07035e-08
1.93993e-09
3.09829e-08
1.9789e-09
1.94407e-09
3.12565e-08
3.7971e-08
-4.63538e-10
3.79559e-08
-5.38694e-10
3.79334e-08
-6.19497e-10
3.79081e-08
-7.02932e-10
3.78854e-08
-7.86488e-10
3.78698e-08
-8.69627e-10
3.78672e-08
-9.52324e-10
3.78792e-08
-1.03461e-09
3.79084e-08
-1.12425e-09
3.79564e-08
-1.22277e-09
3.80233e-08
-1.33625e-09
3.81055e-08
-1.46783e-09
3.82001e-08
-1.62328e-09
3.83035e-08
-1.8068e-09
3.84107e-08
-2.01963e-09
3.8516e-08
-2.25866e-09
3.86135e-08
-2.5137e-09
3.86986e-08
-2.76795e-09
3.87697e-08
-2.99401e-09
3.88276e-08
-3.14091e-09
3.88805e-08
-3.16886e-09
3.894e-08
-3.02264e-09
3.90076e-08
-2.3779e-09
3.90758e-08
-1.75264e-09
3.91362e-08
-1.31513e-09
3.91798e-08
-1.02071e-09
3.91957e-08
-8.28204e-10
3.9183e-08
-7.13305e-10
3.91395e-08
-6.44297e-10
3.90603e-08
-5.83568e-10
3.89468e-08
-5.13392e-10
3.88038e-08
-4.20117e-10
3.86399e-08
-2.92121e-10
3.84666e-08
-1.23823e-10
3.82972e-08
8.37037e-11
3.81464e-08
3.23432e-10
3.80292e-08
5.83473e-10
3.79595e-08
8.49125e-10
3.79479e-08
1.10391e-09
3.80005e-08
1.33148e-09
3.81169e-08
1.51741e-09
3.82891e-08
1.6511e-09
3.85018e-08
1.72719e-09
3.87342e-08
1.74648e-09
1.71545e-09
3.89628e-08
4.95646e-08
-4.65829e-10
4.95596e-08
-5.33657e-10
4.9548e-08
-6.07883e-10
4.9532e-08
-6.86925e-10
4.95147e-08
-7.69189e-10
4.9499e-08
-8.5398e-10
4.94881e-08
-9.41333e-10
4.94854e-08
-1.03194e-09
4.94912e-08
-1.13008e-09
4.95053e-08
-1.23686e-09
4.9527e-08
-1.35793e-09
4.95561e-08
-1.49701e-09
4.95904e-08
-1.65757e-09
4.96257e-08
-1.84202e-09
4.96572e-08
-2.05118e-09
4.96796e-08
-2.28103e-09
4.96874e-08
-2.52154e-09
4.96762e-08
-2.75668e-09
4.9643e-08
-2.96082e-09
4.95884e-08
-3.08634e-09
4.9519e-08
-3.09945e-09
4.94452e-08
-2.94883e-09
4.93869e-08
-2.31968e-09
4.93431e-08
-1.70885e-09
4.93053e-08
-1.27724e-09
4.92637e-08
-9.79163e-10
4.92103e-08
-7.74762e-10
4.91378e-08
-6.40813e-10
4.90407e-08
-5.47249e-10
4.89211e-08
-4.6391e-10
4.87801e-08
-3.72384e-10
4.86209e-08
-2.6093e-10
4.84515e-08
-1.2275e-10
4.82831e-08
4.4583e-11
4.81275e-08
2.39303e-10
4.79979e-08
4.5305e-10
4.7906e-08
6.75407e-10
4.78612e-08
8.93888e-10
4.78694e-08
1.09572e-09
4.79316e-08
1.2693e-09
4.80434e-08
1.40559e-09
4.81954e-08
1.49907e-09
4.83742e-08
1.54837e-09
4.85644e-08
1.55629e-09
1.52896e-09
4.87509e-08
6.37409e-08
-4.77882e-10
6.37475e-08
-5.4022e-10
6.37486e-08
-6.09028e-10
6.37453e-08
-6.83604e-10
6.37392e-08
-7.6308e-10
6.37321e-08
-8.46937e-10
6.3726e-08
-9.35198e-10
6.37226e-08
-1.02852e-09
6.37215e-08
-1.129e-09
6.37233e-08
-1.23863e-09
6.37261e-08
-1.3608e-09
6.37277e-08
-1.49855e-09
6.37248e-08
-1.65466e-09
6.37135e-08
-1.83073e-09
6.36888e-08
-2.02649e-09
6.3645e-08
-2.23718e-09
6.35769e-08
-2.45353e-09
6.34794e-08
-2.65911e-09
6.33487e-08
-2.83012e-09
6.31861e-08
-2.92379e-09
6.29961e-08
-2.9094e-09
6.27879e-08
-2.74068e-09
6.26001e-08
-2.13182e-09
6.2438e-08
-1.54674e-09
6.22928e-08
-1.13207e-09
6.21562e-08
-8.4252e-10
6.20202e-08
-6.3886e-10
6.18762e-08
-4.96789e-10
6.17191e-08
-3.90116e-10
6.15503e-08
-2.95134e-10
6.1372e-08
-1.94091e-10
6.11882e-08
-7.71533e-11
6.10066e-08
5.8946e-11
6.08355e-08
2.15635e-10
6.06862e-08
3.88603e-10
6.05684e-08
5.70883e-10
6.04902e-08
7.53574e-10
6.04571e-08
9.2701e-10
6.04708e-08
1.08203e-09
6.05291e-08
1.21101e-09
6.06259e-08
1.30874e-09
6.07522e-08
1.37282e-09
6.08968e-08
1.40374e-09
6.10484e-08
1.40465e-09
1.38052e-09
6.11969e-08
8.08915e-08
-5.03613e-10
8.09131e-08
-5.61834e-10
8.09304e-08
-6.26288e-10
8.09435e-08
-6.96783e-10
8.09534e-08
-7.72962e-10
8.0961e-08
-8.54545e-10
8.09674e-08
-9.4155e-10
8.09732e-08
-1.03438e-09
8.09784e-08
-1.1342e-09
8.09823e-08
-1.2425e-09
8.09829e-08
-1.36136e-09
8.09771e-08
-1.4928e-09
8.0961e-08
-1.63854e-09
8.09294e-08
-1.7991e-09
8.08763e-08
-1.97343e-09
8.07953e-08
-2.15618e-09
8.06803e-08
-2.33854e-09
8.0525e-08
-2.50382e-09
8.03254e-08
-2.63054e-09
8.00821e-08
-2.68044e-09
7.97976e-08
-2.62497e-09
7.94802e-08
-2.42319e-09
7.91829e-08
-1.83458e-09
7.89174e-08
-1.28119e-09
7.86749e-08
-8.89621e-10
7.84485e-08
-6.16102e-10
7.82315e-08
-4.21908e-10
7.80167e-08
-2.81955e-10
7.77993e-08
-1.7274e-10
7.75803e-08
-7.60988e-11
7.73629e-08
2.33127e-11
7.71514e-08
1.34301e-10
7.69523e-08
2.58042e-10
7.67737e-08
3.94274e-10
7.66234e-08
5.38937e-10
7.65081e-08
6.86195e-10
7.64325e-08
8.29119e-10
7.63987e-08
9.60791e-10
7.64057e-08
1.07505e-09
7.64495e-08
1.16723e-09
7.65237e-08
1.23456e-09
7.66202e-08
1.27632e-09
7.67302e-08
1.2937e-09
7.68454e-08
1.28947e-09
1.2674e-09
7.69585e-08
1.01487e-07
-5.4624e-10
1.01527e-07
-6.01355e-10
1.01563e-07
-6.62315e-10
1.01595e-07
-7.29191e-10
1.01624e-07
-8.01932e-10
1.0165e-07
-8.80446e-10
1.01673e-07
-9.64777e-10
1.01694e-07
-1.05509e-09
1.01712e-07
-1.15202e-09
1.01725e-07
-1.25631e-09
1.01733e-07
-1.36914e-09
1.01732e-07
-1.49136e-09
1.01717e-07
-1.62345e-09
1.01682e-07
-1.76483e-09
1.01623e-07
-1.91352e-09
1.0153e-07
-2.06347e-09
1.01397e-07
-2.20594e-09
1.01218e-07
-2.32455e-09
1.00987e-07
-2.39956e-09
1.00704e-07
-2.3973e-09
1.0037e-07
-2.29081e-09
9.99905e-08
-2.04398e-09
9.96274e-08
-1.47152e-09
9.92961e-08
-9.49858e-10
9.89881e-08