/*--------------------------------*- C++ -*----------------------------------*\
| =========                 |                                                 |
| \\      /  F ield         | OpenFOAM: The Open Source CFD Toolbox           |
|  \\    /   O peration     | Version:  2312                                  |
|   \\  /    A nd           | Website:  www.openfoam.com                      |
|    \\/     M anipulation  |                                                 |
\*---------------------------------------------------------------------------*/
FoamFile
{
    version     2.0;
    format      ascii;
    arch        "LSB;label=32;scalar=64";
    class       surfaceScalarField;
    location    "81.5";
    object      phi;
}
// * * * * * * * * * * * * * * * * * * * * * * * * * * * * * * * * * * * * * //

dimensions      [0 3 -1 0 0 0 0];

oriented        oriented;

internalField   nonuniform List<scalar> 
9445
(
5.74445e-10
1.63669e-11
5.63892e-10
1.0553e-11
5.57156e-10
6.73646e-12
5.53061e-10
4.09522e-12
5.50893e-10
2.16747e-12
5.50249e-10
6.44172e-13
5.50955e-10
-7.06347e-13
5.52735e-10
-1.78008e-12
5.55761e-10
-3.02578e-12
5.60409e-10
-4.64764e-12
5.67711e-10
-7.3021e-12
5.8111e-10
-1.33989e-11
6.12664e-10
-3.15544e-11
7.04268e-10
-9.16034e-11
-2.36138e-10
9.40406e-10
2.00485e-09
7.16067e-11
1.96922e-09
4.61811e-11
1.94644e-09
2.95201e-11
1.9325e-09
1.80351e-11
1.92497e-09
9.70124e-12
1.92248e-09
3.13556e-12
1.92418e-09
-2.40845e-12
1.92932e-09
-6.92205e-12
1.93842e-09
-1.2127e-11
1.95249e-09
-1.87143e-11
1.97415e-09
-2.89608e-11
2.00995e-09
-4.91976e-11
2.07265e-09
-9.42576e-11
2.17408e-09
-1.93034e-10
-3.42249e-10
2.28019e-09
3.9569e-09
1.77024e-10
3.88888e-09
1.142e-10
3.8453e-09
7.31006e-11
3.81847e-09
4.48625e-11
3.80369e-09
2.44844e-11
3.79828e-09
8.54392e-12
3.80035e-09
-4.48053e-12
3.8086e-09
-1.5168e-11
3.82365e-09
-2.71816e-11
3.8466e-09
-4.16679e-11
3.87996e-09
-6.23121e-11
3.92808e-09
-9.73186e-11
3.99353e-09
-1.59715e-10
4.06318e-09
-2.6268e-10
-3.81748e-10
4.10268e-09
6.57515e-09
3.45454e-10
6.46625e-09
2.23102e-10
6.39621e-09
1.43137e-10
6.35272e-09
8.83519e-11
6.32818e-09
4.90332e-11
6.31812e-09
1.86022e-11
6.31929e-09
-5.64997e-12
6.32961e-09
-2.54875e-11
6.34921e-09
-4.67845e-11
6.37849e-09
-7.09504e-11
6.41815e-09
-1.01969e-10
6.46779e-09
-1.46959e-10
6.5212e-09
-2.1313e-10
6.55957e-09
-3.01048e-10
-3.8478e-10
6.5626e-09
1.00356e-08
5.90326e-10
9.87655e-09
3.8214e-10
9.77365e-09
2.46039e-10
9.70901e-09
1.52988e-10
9.67149e-09
8.65613e-11
9.65424e-09
3.58524e-11
9.6524e-09
-3.81344e-12
9.66291e-09
-3.59949e-11
9.68441e-09
-6.82891e-11
9.71594e-09
-1.02478e-10
9.75574e-09
-1.41766e-10
9.79931e-09
-1.90537e-10
9.8367e-09
-2.50513e-10
9.85217e-09
-3.1652e-10
-3.69857e-10
9.83725e-09
1.45476e-08
9.23336e-10
1.43297e-08
6.00112e-10
1.41874e-08
3.88336e-10
1.40967e-08
2.43654e-10
1.40424e-08
1.4084e-10
1.40147e-08
6.35339e-11
1.40069e-08
3.99e-12
1.40147e-08
-4.37889e-11
1.40346e-08
-8.81222e-11
1.40636e-08
-1.31491e-10
1.4098e-08
-1.76157e-10
1.41312e-08
-2.23758e-10
1.41536e-08
-2.72965e-10
1.41553e-08
-3.18176e-10
-3.49023e-10
1.41345e-08
2.03528e-08
1.34983e-09
2.00702e-08
8.82738e-10
1.98834e-08
5.75138e-10
1.97623e-08
3.6471e-10
1.96875e-08
2.15639e-10
1.9646e-08
1.05107e-10
1.96288e-08
2.11387e-11
1.963e-08
-4.49898e-11
1.9644e-08
-1.02101e-10
1.9666e-08
-1.53522e-10
1.96909e-08
-2.00999e-10
1.97119e-08
-2.44803e-10
1.97221e-08
-2.83116e-10
1.97163e-08
-3.1239e-10
-3.28334e-10
1.96956e-08
2.77182e-08
1.86122e-09
2.73729e-08
1.228e-09
2.71409e-08
8.07169e-10
2.69875e-08
5.18059e-10
2.68897e-08
3.13419e-10
2.68315e-08
1.63351e-10
2.68018e-08
5.08237e-11
2.67927e-08
-3.58824e-11
2.67969e-08
-1.06335e-10
2.68084e-08
-1.64971e-10
2.68213e-08
-2.13873e-10
2.683e-08
-2.53562e-10
2.68303e-08
-2.83381e-10
2.68202e-08
-3.02281e-10
-3.0957e-10
2.68014e-08
3.6925e-08
2.42578e-09
3.65334e-08
1.61965e-09
3.62643e-08
1.07625e-09
3.60824e-08
6.99949e-10
3.59628e-08
4.33015e-10
3.58875e-08
2.38647e-10
3.58438e-08
9.45613e-11
3.5822e-08
-1.41638e-11
3.58141e-08
-9.83534e-11
3.5813e-08
-1.63955e-10
3.58135e-08
-2.14287e-10
3.58111e-08
-2.51217e-10
3.58036e-08
-2.75849e-10
3.57905e-08
-2.89205e-10
-2.92521e-10
3.57735e-08
4.82611e-08
2.98422e-09
4.78586e-08
2.02214e-09
4.7574e-08
1.36081e-09
4.73766e-08
8.97318e-10
4.72429e-08
5.66716e-10
4.71549e-08
3.26661e-10
4.70993e-08
1.50212e-10
4.70657e-08
1.93811e-11
4.70459e-08
-7.85287e-11
4.70332e-08
-1.5126e-10
4.70229e-08
-2.03974e-10
4.7012e-08
-2.40282e-10
4.69991e-08
-2.6296e-10
4.69843e-08
-2.74479e-10
-2.77085e-10
4.69689e-08
6.20382e-08
3.46307e-09
6.16754e-08
2.38494e-09
6.14096e-08
1.62656e-09
6.122e-08
1.08698e-09
6.10878e-08
6.98904e-10
6.09976e-08
4.16849e-10
6.09372e-08
2.10574e-10
6.08971e-08
5.94672e-11
6.08698e-08
-5.11877e-11
6.08496e-08
-1.31075e-10
6.08329e-08
-1.87258e-10
6.08176e-08
-2.24963e-10
6.08029e-08
-2.4825e-10
6.07889e-08
-2.60511e-10
-2.64521e-10
6.07763e-08
7.86625e-08
3.81268e-09
7.83826e-08
2.66486e-09
7.81696e-08
1.83953e-09
7.80133e-08
1.24331e-09
7.79016e-08
8.10543e-10
7.78234e-08
4.95074e-10
7.77691e-08
2.6485e-10
7.77313e-08
9.72911e-11
7.77041e-08
-2.39594e-11
7.76834e-08
-1.10396e-10
7.76667e-08
-1.70601e-10
7.76528e-08
-2.11e-10
7.7641e-08
-2.36508e-10
7.76316e-08
-2.5105e-10
-2.57666e-10
7.76247e-08
9.87357e-08
4.04301e-09
9.85442e-08
2.85639e-09
9.83945e-08
1.98921e-09
9.82826e-08
1.35523e-09
9.82015e-08
8.91631e-10
9.81439e-08
5.52673e-10
9.81034e-08
3.05359e-10
9.80749e-08
1.25801e-10
9.80544e-08
-3.54655e-12
9.80396e-08
-9.55902e-11
9.80289e-08
-1.59899e-10
9.80216e-08
-2.03643e-10
9.80173e-08
-2.32243e-10
9.80161e-08
-2.49891e-10
-2.59749e-10
9.80182e-08
1.23058e-07
4.20447e-09
1.22923e-07
2.99215e-09
1.22815e-07
2.09666e-09
1.22734e-07
1.43655e-09
1.22674e-07
9.51287e-10
1.22631e-07
5.95521e-10
1.22601e-07
3.35588e-10
1.2258e-07
1.46655e-10
1.22566e-07
1.03422e-11
1.22558e-07
-8.71866e-11
1.22554e-07
-1.56093e-10
1.22554e-07
-2.03968e-10
1.22559e-07
-2.36514e-10
1.22567e-07
-2.58049e-10
-2.71784e-10
1.22579e-07
1.52414e-07
4.32359e-09
1.52307e-07
3.09934e-09
1.52217e-07
2.18666e-09
1.52145e-07
1.50868e-09
1.52089e-07
1.00744e-09
1.52046e-07
6.38205e-10
1.52014e-07
3.6724e-10
1.51992e-07
1.69225e-10
1.51977e-07
2.51264e-11
1.51969e-07
-7.92907e-11
1.51967e-07
-1.54287e-10
1.51971e-07
-2.07818e-10
1.5198e-07
-2.45751e-10
1.51995e-07
-2.72459e-10
-2.91169e-10
1.52014e-07
1.87273e-07
4.37932e-09
1.87204e-07
3.16868e-09
1.87133e-07
2.25739e-09
1.87068e-07
1.57377e-09
1.87011e-07
1.06418e-09
1.86964e-07
6.85976e-10
1.86926e-07
4.05395e-10
1.86896e-07
1.98833e-10
1.86875e-07
4.63776e-11
1.86863e-07
-6.72298e-11
1.86858e-07
-1.49917e-10
1.86861e-07
-2.10893e-10
1.86872e-07
-2.5595e-10
1.86889e-07
-2.89458e-10
-3.14608e-10
1.86912e-07
2.27663e-07
4.33971e-09
2.27657e-07
3.17492e-09
2.27626e-07
2.28868e-09
2.27583e-07
1.61673e-09
2.27537e-07
1.11005e-09
2.27493e-07
7.29747e-10
2.27454e-07
4.44554e-10
2.27422e-07
2.30467e-10
2.27398e-07
6.99927e-11
2.27384e-07
-5.26769e-11
2.27378e-07
-1.44241e-10
2.27381e-07
-2.13764e-10
2.27392e-07
-2.67193e-10
2.27412e-07
-3.08852e-10
-3.41863e-10
2.27439e-07
2.73093e-07
4.19107e-09
2.73165e-07
3.10341e-09
2.73187e-07
2.26685e-09
2.73179e-07
1.62436e-09
2.73156e-07
1.1334e-09
2.73126e-07
7.59211e-10
2.73096e-07
4.74619e-10
2.73069e-07
2.57597e-10
2.73048e-07
9.07502e-11
2.73037e-07
-4.09666e-11
2.73034e-07
-1.41577e-10
2.73041e-07
-2.20387e-10
2.73057e-07
-2.83206e-10
2.73082e-07
-3.34109e-10
-3.76081e-10
2.73116e-07
3.22192e-07
3.92775e-09
3.22348e-07
2.94723e-09
3.22431e-07
2.18335e-09
3.22468e-07
1.58789e-09
3.22475e-07
1.12632e-09
3.22465e-07
7.68897e-10
3.22449e-07
4.9117e-10
3.22432e-07
2.74668e-10
3.22418e-07
1.04012e-10
3.22413e-07
-3.61143e-11
3.22419e-07
-1.46903e-10
3.22434e-07
-2.35972e-10
3.2246e-07
-3.0932e-10
3.22497e-07
-3.70786e-10
-4.22767e-10
3.22544e-07
3.71944e-07
3.53544e-09
3.72202e-07
2.68944e-09
3.72365e-07
2.01977e-09
3.72463e-07
1.48996e-09
3.72518e-07
1.07137e-09
3.72546e-07
7.41187e-10
3.72557e-07
4.79715e-10
3.72562e-07
2.70341e-10
3.72566e-07
9.98716e-11
3.72572e-07
-4.20778e-11
3.72583e-07
-1.5763e-10
3.726e-07
-2.5331e-10
3.72625e-07
-3.34451e-10
3.72659e-07
-4.04629e-10
-4.66282e-10
3.72702e-07
3.69878e-07
3.08612e-09
3.70192e-07
2.37597e-09
3.70407e-07
1.80496e-09
3.70552e-07
1.34473e-09
3.70649e-07
9.74534e-10
3.70714e-07
6.75754e-10
3.70761e-07
4.33342e-10
3.70795e-07
2.35817e-10
3.7082e-07
7.45758e-11
3.70847e-07
-6.85495e-11
3.70875e-07
-1.85431e-10
3.70907e-07
-2.86037e-10
3.70947e-07
-3.73916e-10
3.70994e-07
-4.51548e-10
-5.20854e-10
3.71048e-07
3.17611e-07
2.64592e-09
3.17921e-07
2.06584e-09
3.18135e-07
1.59077e-09
3.18279e-07
1.20119e-09
3.18372e-07
8.81638e-10
3.18429e-07
6.18855e-10
3.18461e-07
4.00627e-10
3.1848e-07
2.17009e-10
3.18495e-07
5.96437e-11
3.18504e-07
-7.70366e-11
3.18513e-07
-1.94972e-10
3.18525e-07
-2.97979e-10
3.18541e-07
-3.89523e-10
3.18561e-07
-4.72066e-10
-5.47218e-10
3.18588e-07
2.66277e-07
2.22607e-09
2.66589e-07
1.75359e-09
2.6682e-07
1.35986e-09
2.66988e-07
1.03248e-09
2.67111e-07
7.58687e-10
2.67201e-07
5.28935e-10
2.67269e-07
3.33406e-10
2.67318e-07
1.67092e-10
2.67355e-07
2.2624e-11
2.67385e-07
-1.06064e-10
2.67408e-07
-2.18632e-10
2.6743e-07
-3.19532e-10
2.67451e-07
-4.10713e-10
2.67473e-07
-4.93984e-10
-5.70623e-10
2.67496e-07
2.19783e-07
1.83847e-09
2.2008e-07
1.45682e-09
2.20305e-07
1.13413e-09
2.20477e-07
8.61247e-10
2.20606e-07
6.29549e-10
2.20703e-07
4.31403e-10
2.20776e-07
2.60514e-10
2.20831e-07
1.11768e-10
2.20874e-07
-1.96576e-11
2.20905e-07
-1.37298e-10
2.20929e-07
-2.43115e-10
2.20949e-07
-3.39141e-10
2.20965e-07
-4.26937e-10
2.20979e-07
-5.07814e-10
-5.82766e-10
2.20991e-07
1.79096e-07
1.48682e-09
1.79371e-07
1.18245e-09
1.79583e-07
9.21497e-10
1.79747e-07
6.97368e-10
1.79872e-07
5.04335e-10
1.79967e-07
3.3648e-10
1.80039e-07
1.88869e-10
1.80092e-07
5.85563e-11
1.80131e-07
-5.83395e-11
1.80158e-07
-1.64305e-10
1.80176e-07
-2.60867e-10
1.80186e-07
-3.49391e-10
1.8019e-07
-4.31018e-10
1.80189e-07
-5.06685e-10
-5.77098e-10
1.80183e-07
1.44345e-07
1.17761e-09
1.44589e-07
9.38535e-10
1.4478e-07
7.30716e-10
1.44927e-07
5.49804e-10
1.4504e-07
3.91394e-10
1.45125e-07
2.51321e-10
1.45188e-07
1.26586e-10
1.45232e-07
1.45045e-11
1.4526e-07
-8.68924e-11
1.45276e-07
-1.79928e-10
1.45281e-07
-2.6549e-10
1.45276e-07
-3.4457e-10
1.45263e-07
-4.17938e-10
1.45242e-07
-4.86215e-10
-5.49862e-10
1.45215e-07
1.15172e-07
9.15586e-10
1.1538e-07
7.30837e-10
1.15542e-07
5.68063e-10
1.15668e-07
4.24426e-10
1.15762e-07
2.96591e-10
1.15832e-07
1.82038e-10
1.1588e-07
7.85877e-11
1.15909e-07
-1.52292e-11
1.15924e-07
-1.01329e-10
1.15925e-07
-1.80864e-10
1.15914e-07
-2.54586e-10
1.15892e-07
-3.23127e-10
1.15861e-07
-3.86972e-10
1.15822e-07
-4.46514e-10
-5.02038e-10
1.15774e-07
9.10003e-08
7.00725e-10
9.11707e-08
5.60379e-10
9.13037e-08
4.35107e-10
9.14051e-08
3.23037e-10
9.14798e-08
2.21893e-10
9.15318e-08
1.30006e-10
9.15643e-08
4.60534e-11
9.15799e-08
-3.07536e-11
9.15806e-08
-1.02034e-10
9.1568e-08
-1.68315e-10
9.15435e-08
-2.30117e-10
9.15082e-08
-2.87824e-10
9.1463e-08
-3.41724e-10
9.14085e-08
-3.92053e-10
-4.38973e-10
9.13455e-08
7.11897e-08
5.28804e-10
7.1326e-08
4.24121e-10
7.14316e-08
3.29537e-10
7.15109e-08
2.43743e-10
7.15674e-08
1.65303e-10
7.16042e-08
9.32019e-11
7.16238e-08
2.65062e-11
7.16279e-08
-3.48895e-11
7.16183e-08
-9.24376e-11
7.15963e-08
-1.46272e-10
7.15629e-08
-1.96697e-10
7.1519e-08
-2.43941e-10
7.14654e-08
-2.88162e-10
7.14029e-08
-3.29489e-10
-3.68e-10
7.13319e-08
5.51099e-08
3.93466e-10
5.52171e-08
3.16969e-10
5.52996e-08
2.47038e-10
5.53606e-08
1.8275e-10
5.54026e-08
1.23238e-10
5.54279e-08
6.79575e-11
5.54382e-08
1.61791e-11
5.54349e-08
-3.16084e-11
5.54194e-08
-7.6896e-11
5.53926e-08
-1.19464e-10
5.53554e-08
-1.59493e-10
5.53085e-08
-1.97103e-10
5.52528e-08
-2.32372e-10
5.51886e-08
-2.65359e-10
-2.96091e-10
5.51167e-08
4.2174e-08
2.88061e-10
4.22575e-08
2.33462e-10
4.23215e-08
1.82991e-10
4.23683e-08
1.35961e-10
4.23996e-08
9.19214e-11
4.2417e-08
5.06034e-11
4.24216e-08
1.16036e-11
4.24146e-08
-2.47e-11
4.23971e-08
-5.93122e-11
4.23696e-08
-9.20183e-11
4.2333e-08
-1.22873e-10
4.22878e-08
-1.51941e-10
4.22347e-08
-1.79248e-10
4.21742e-08
-2.04814e-10
-2.28636e-10
4.21067e-08
3.18541e-08
2.06623e-10
3.19189e-08
1.68725e-10
3.19685e-08
1.33322e-10
3.20046e-08
9.98795e-11
3.20283e-08
6.82365e-11
3.20406e-08
3.82768e-11
3.20424e-08
9.81246e-12
3.20346e-08
-1.69027e-11
3.20178e-08
-4.25298e-11
3.19927e-08
-6.68618e-11
3.19597e-08
-8.98753e-11
3.19194e-08
-1.11612e-10
3.18722e-08
-1.32074e-10
3.18186e-08
-1.51255e-10
-1.6914e-10
3.17591e-08
2.36884e-08
1.44218e-10
2.37384e-08
1.18793e-10
2.37769e-08
9.48039e-11
2.38049e-08
7.18391e-11
2.38233e-08
4.9902e-11
2.38326e-08
2.89499e-11
2.38335e-08
8.93834e-12
2.38265e-08
-9.96856e-12
2.38123e-08
-2.82476e-11
2.37911e-08
-4.56858e-11
2.37634e-08
-6.21997e-11
2.37296e-08
-7.78412e-11
2.36902e-08
-9.25992e-11
2.36454e-08
-1.06455e-10
-1.19388e-10
2.35956e-08
1.72805e-08
9.69388e-11
1.73187e-08
8.05991e-11
1.73485e-08
6.5043e-11
1.73703e-08
4.99574e-11
1.73848e-08
3.54252e-11
1.73923e-08
2.14257e-11
1.73933e-08
7.97952e-12
1.73881e-08
-4.75248e-12
1.7377e-08
-1.71933e-11
1.73605e-08
-2.91397e-11
1.73387e-08
-4.0437e-11
1.73121e-08
-5.1172e-11
1.72808e-08
-6.13277e-11
1.72452e-08
-7.08807e-11
-7.98084e-11
1.72056e-08
1.22954e-08
6.17559e-11
1.23242e-08
5.1834e-11
1.23469e-08
4.23203e-11
1.23639e-08
3.29825e-11
1.23754e-08
2.39219e-11
1.23817e-08
1.51203e-11
1.23831e-08
6.59873e-12
1.23798e-08
-1.44837e-12
1.2372e-08
-9.38824e-12
1.23599e-08
-1.71108e-11
1.23439e-08
-2.43739e-11
1.2324e-08
-3.13011e-11
1.23005e-08
-3.78742e-11
1.22737e-08
-4.40704e-11
-4.98682e-11
1.22438e-08
8.45353e-09
3.63224e-11
8.4746e-09
3.07585e-11
8.49152e-09
2.54071e-11
8.5044e-09
2.00981e-11
8.51341e-09
1.49144e-11
8.51869e-09
9.83949e-12
8.52041e-09
4.88072e-12
8.51877e-09
1.90991e-13
8.51381e-09
-4.43392e-12
8.50571e-09
-9.00771e-12
8.49464e-09
-1.33005e-11
8.48074e-09
-1.74019e-11
8.46417e-09
-2.13063e-11
8.4451e-09
-2.49952e-11
-2.84493e-11
8.42368e-09
5.52357e-09
1.87946e-11
5.5383e-09
1.60327e-11
5.55031e-09
1.33934e-11
5.55966e-09
1.0752e-11
5.56642e-09
8.15759e-12
5.57066e-09
5.59836e-12
5.57246e-09
3.07557e-12
5.57199e-09
6.64753e-13
5.56924e-09
-1.6819e-12
5.56427e-09
-4.04434e-12
5.55725e-09
-6.27305e-12
5.54824e-09
-8.39887e-12
5.53737e-09
-1.04303e-11
5.52473e-09
-1.23536e-11
-1.41527e-11
5.51043e-09
3.31585e-09
7.68701e-12
3.3253e-09
6.581e-12
3.33313e-09
5.55799e-12
3.33936e-09
4.52777e-12
3.34401e-09
3.50848e-12
3.34711e-09
2.49453e-12
3.3487e-09
1.48396e-12
3.34886e-09
5.06884e-13
3.34761e-09
-4.30835e-13
3.34495e-09
-1.38865e-12
3.34098e-09
-2.30052e-12
3.33575e-09
-3.16907e-12
3.32932e-09
-4.00203e-12
3.32176e-09
-4.79122e-12
-5.52458e-12
3.31313e-09
1.67594e-09
1.76869e-12
1.68102e-09
1.49872e-12
1.68529e-09
1.28172e-12
1.68876e-09
1.06183e-12
1.69143e-09
8.40679e-13
1.69331e-09
6.16494e-13
1.6944e-09
3.89842e-13
1.69474e-09
1.67543e-13
1.69435e-09
-4.19063e-14
1.69322e-09
-2.60067e-13
1.69139e-09
-4.68225e-13
1.68889e-09
-6.68549e-13
1.68575e-09
-8.59942e-13
1.682e-09
-1.04063e-12
-1.20296e-12
1.67767e-09
4.79054e-10
4.80553e-10
4.81834e-10
4.82896e-10
4.83737e-10
4.84353e-10
4.84743e-10
4.84911e-10
4.84869e-10
4.84609e-10
4.84141e-10
4.83472e-10
4.82612e-10
4.81571e-10
4.80368e-10
1.12451e-09
-4.42386e-10
2.58279e-10
1.38913e-09
-3.53871e-10
8.92523e-11
1.65663e-09
-1.95547e-10
-7.19488e-11
1.92137e-09
-2.56035e-11
-2.3914e-10
2.18196e-09
1.52905e-10
-4.1349e-10
2.43956e-09
3.34478e-10
-5.92085e-10
2.69598e-09
5.18779e-10
-7.7519e-10
2.95261e-09
7.0573e-10
-9.62369e-10
3.21058e-09
8.94771e-10
-1.15274e-09
3.47073e-09
1.08484e-09
-1.34498e-09
3.73376e-09
1.27448e-09
-1.53751e-09
4.00035e-09
1.46193e-09
-1.72852e-09
4.27132e-09
1.64481e-09
-1.91578e-09
4.54772e-09
1.81987e-09
-2.09627e-09
4.83092e-09
1.98245e-09
-2.26564e-09
5.12274e-09
2.12599e-09
-2.41781e-09
5.42564e-09
2.24149e-09
-2.54439e-09
5.74299e-09
2.31706e-09
-2.63441e-09
6.07922e-09
2.33575e-09
-2.67199e-09
6.43958e-09
2.26822e-09
-2.62858e-09
6.82834e-09
2.0561e-09
-2.44486e-09
7.24423e-09
1.57794e-09
-1.99383e-09
7.61388e-09
5.82692e-10
-9.5234e-10
7.90838e-09
-4.90303e-10
1.95802e-10
8.12903e-09
-1.46436e-09
1.2437e-09
8.28013e-09
-2.29055e-09
2.13946e-09
8.36774e-09
-2.95174e-09
2.86413e-09
8.39875e-09
-3.45652e-09
3.42551e-09
8.37931e-09
-3.81343e-09
3.83287e-09
8.31428e-09
-4.02815e-09
4.09318e-09
8.20765e-09
-4.10791e-09
4.21454e-09
8.06295e-09
-4.05905e-09
4.20375e-09
7.88346e-09
-3.88692e-09
4.06641e-09
7.67232e-09
-3.5969e-09
3.80804e-09
7.43244e-09
-3.19502e-09
3.4349e-09
7.16636e-09
-2.68798e-09
2.95405e-09
6.87611e-09
-2.08221e-09
2.37246e-09
6.56326e-09
-1.38211e-09
1.69496e-09
6.2292e-09
-5.87557e-10
9.21623e-10
5.87291e-09
3.07116e-10
4.91712e-11
5.49007e-09
1.30696e-09
-9.24119e-10
5.06125e-09
2.38523e-09
-1.95641e-09
4.55324e-09
3.41384e-09
-2.90583e-09
3.9665e-09
4.07384e-09
-3.48711e-09
3.56379e-09
3.60746e-09
-3.20475e-09
2.35193e-09
-5.14121e-10
2.5099e-09
-5.11844e-10
2.72565e-09
-4.113e-10
2.96799e-09
-2.6794e-10
3.22397e-09
-1.0308e-10
3.48725e-09
7.12013e-11
3.75559e-09
2.50433e-10
4.02834e-09
4.32984e-10
4.30545e-09
6.17664e-10
4.58715e-09
8.03135e-10
4.87379e-09
9.87831e-10
5.16587e-09
1.16985e-09
5.46407e-09
1.3466e-09
5.7694e-09
1.51454e-09
6.0832e-09
1.66865e-09
6.40726e-09
1.80194e-09
6.74399e-09
1.90476e-09
7.09665e-09
1.96439e-09
7.46954e-09
1.96286e-09
7.86764e-09
1.87012e-09
8.29488e-09
1.62887e-09
8.74931e-09
1.12351e-09
9.15153e-09
1.80477e-10
9.47126e-09
-8.10038e-10
9.71065e-09
-1.70374e-09
9.8745e-09
-2.45441e-09
9.96936e-09
-3.0466e-09
1.00028e-08
-3.48995e-09
9.98167e-09
-3.79232e-09
9.91157e-09
-3.95805e-09
9.79716e-09
-3.9935e-09
9.64273e-09
-3.90462e-09
9.45247e-09
-3.69667e-09
9.23062e-09
-3.37504e-09
8.9815e-09
-2.9459e-09
8.70952e-09
-2.416e-09
8.41937e-09
-1.79206e-09
8.11659e-09
-1.07933e-09
7.80893e-09
-2.79893e-10
7.50759e-09
6.08452e-10
7.22963e-09
1.58492e-09
6.9954e-09
2.61947e-09
6.83168e-09
3.57756e-09
6.76381e-09
4.14171e-09
3.6629e-09
6.66471e-09
4.11438e-09
-5.25822e-10
4.18394e-09
-5.814e-10
4.32319e-09
-5.50556e-10
4.5147e-09
-4.59444e-10
4.74014e-09
-3.28521e-10
4.98804e-09
-1.76703e-10
5.25181e-09
-1.3339e-11
5.52775e-09
1.57041e-10
5.81386e-09
3.31557e-10
6.10914e-09
5.07857e-10
6.41316e-09
6.83809e-10
6.7259e-09
8.57118e-10
7.04772e-09
1.02478e-09
7.3794e-09
1.18286e-09
7.72211e-09
1.32594e-09
8.0775e-09
1.44655e-09
8.44779e-09
1.53447e-09
8.83602e-09
1.57616e-09
9.24612e-09
1.55276e-09
9.68259e-09
1.43365e-09
1.01487e-08
1.16277e-09
1.06415e-08
6.30703e-10
1.10755e-08
-2.53575e-10
1.14195e-08
-1.15396e-09
1.16764e-08
-1.96069e-09
1.18518e-08
-2.62977e-09
1.19526e-08
-3.1474e-09
1.19871e-08
-3.52451e-09
1.19632e-08
-3.7684e-09
1.18872e-08
-3.88202e-09
1.17645e-08
-3.87082e-09
1.16004e-08
-3.74053e-09
1.14002e-08
-3.49647e-09
1.11695e-08
-3.14433e-09
1.09143e-08
-2.69072e-09
1.06414e-08
-2.14308e-09
1.03586e-08
-1.50926e-09
1.0076e-08
-7.96752e-10
9.8083e-09
-1.2168e-11
9.57796e-09
8.38792e-10
9.41936e-09
1.74352e-09
9.37646e-09
2.66237e-09
9.48229e-09
3.47173e-09
9.69858e-09
3.92542e-09
3.58012e-09
9.78135e-09
6.53972e-09
-5.02933e-10
6.54877e-09
-5.90454e-10
6.61142e-09
-6.13202e-10
6.73397e-09
-5.82002e-10
6.90564e-09
-5.00189e-10
7.11472e-09
-3.85776e-10
7.35273e-09
-2.51352e-10
7.61357e-09
-1.03797e-10
7.89316e-09
5.1962e-11
8.18898e-09
2.12039e-10
8.49948e-09
3.73315e-10
8.82381e-09
5.32785e-10
9.16178e-09
6.86806e-10
9.51376e-09
8.30884e-10
9.88057e-09
9.59122e-10
1.02636e-08
1.06356e-09
1.06646e-08
1.13341e-09
1.10864e-08
1.15443e-09
1.15321e-08
1.107e-09
1.20056e-08
9.60179e-10
1.2509e-08
6.5938e-10
1.3038e-08
1.01723e-10
1.35012e-08
-7.1685e-10
1.38666e-08
-1.51934e-09
1.41385e-08
-2.23252e-09
1.43228e-08
-2.81409e-09
1.44271e-08
-3.2517e-09
1.44605e-08
-3.55796e-09
1.4432e-08
-3.73981e-09
1.43486e-08
-3.79867e-09
1.42169e-08
-3.73913e-09
1.40432e-08
-3.56681e-09
1.3834e-08
-3.28732e-09
1.35967e-08
-2.90697e-09
1.33392e-08
-2.43321e-09
1.30708e-08
-1.87472e-09
1.28028e-08
-1.24128e-09
1.25498e-08
-5.43677e-10
1.23317e-08
2.05885e-10
1.21782e-08
9.92314e-10
1.213e-08
1.79172e-09
1.22331e-08
2.55928e-09
1.25077e-08
3.19713e-09
1.28933e-08
3.53979e-09
3.35536e-09
1.31181e-08
9.79885e-09
-4.64535e-10
9.77029e-09
-5.61893e-10
9.77459e-09
-6.175e-10
9.82604e-09
-6.33456e-10
9.93025e-09
-6.04398e-10
1.00809e-08
-5.36445e-10
1.02715e-08
-4.41959e-10
1.04959e-08
-3.28165e-10
1.07491e-08
-2.012e-10
1.10274e-08
-6.62986e-11
1.13283e-08
7.23879e-11
1.16501e-08
2.10988e-10
1.19919e-08
3.4501e-10
1.23535e-08
4.69281e-10
1.27353e-08
5.7734e-10
1.31381e-08
6.60712e-10
1.35635e-08
7.08104e-10
1.40132e-08
7.04673e-10
1.44899e-08
6.30316e-10
1.4996e-08
4.54033e-10
1.55324e-08
1.23056e-10
1.60926e-08
-4.58478e-10
1.658e-08
-1.2043e-09
1.6962e-08
-1.90136e-09
1.72443e-08
-2.51478e-09
1.74334e-08
-3.00323e-09
1.75374e-08
-3.35565e-09
1.75663e-08
-3.5869e-09
1.75303e-08
-3.7038e-09
1.74376e-08
-3.70602e-09
1.72958e-08
-3.59727e-09
1.71123e-08
-3.38329e-09
1.68952e-08
-3.07025e-09
1.66535e-08
-2.66531e-09
1.63975e-08
-2.17718e-09
1.6139e-08
-1.61621e-09
1.58923e-08
-9.94593e-10
1.56754e-08
-3.26715e-10
1.55112e-08
3.70035e-10
1.54302e-08
1.07333e-09
1.54691e-08
1.75278e-09
1.56629e-08
2.36554e-09
1.60163e-08
2.84369e-09
1.64618e-08
3.09432e-09
3.01767e-09
1.67995e-08
1.40933e-08
-4.23327e-10
1.40462e-08
-5.14849e-10
1.40151e-08
-5.86406e-10
1.40119e-08
-6.30224e-10
1.40506e-08
-6.43144e-10
1.41347e-08
-6.20512e-10
1.42629e-08
-5.70163e-10
1.4432e-08
-4.97302e-10
1.46385e-08
-4.07624e-10
1.48789e-08
-3.06753e-10
1.51506e-08
-1.9928e-10
1.54513e-08
-8.97275e-11
1.57798e-08
1.6542e-11
1.61353e-08
1.13705e-10
1.6518e-08
1.9473e-10
1.6928e-08
2.50674e-10
1.73663e-08
2.69845e-10
1.78339e-08
2.36982e-10
1.83325e-08
1.31802e-10
1.88628e-08
-7.63204e-11
1.94238e-08
-4.37887e-10
2.00064e-08
-1.04112e-09
2.05097e-08
-1.70757e-09
2.09007e-08
-2.29241e-09
2.11865e-08
-2.80059e-09
2.13743e-08
-3.19096e-09
2.14722e-08
-3.45355e-09
2.14917e-08
-3.60641e-09
2.14443e-08
-3.65646e-09
2.13395e-08
-3.60122e-09
2.11858e-08
-3.44352e-09
2.0992e-08
-3.18947e-09
2.07677e-08
-2.84603e-09
2.0524e-08
-2.42153e-09
2.02729e-08
-1.92612e-09
2.00287e-08
-1.37199e-09
1.98078e-08
-7.73728e-10
1.96299e-08
-1.488e-10
1.95177e-08
4.82248e-10
1.94974e-08
1.09365e-09
1.95952e-08
1.65491e-09
1.98301e-08
2.13069e-09
2.01944e-08
2.47939e-09
2.06308e-08
2.65789e-09
2.63263e-09
2.10159e-08
1.96587e-08
-3.86406e-10
1.96099e-08
-4.66087e-10
1.95624e-08
-5.38866e-10
1.95285e-08
-5.96371e-10
1.95192e-08
-6.33881e-10
1.9545e-08
-6.46309e-10
1.961e-08
-6.35175e-10
1.97157e-08
-6.02985e-10
1.98619e-08
-5.53816e-10
2.00477e-08
-4.92498e-10
2.02713e-08
-4.22948e-10
2.05314e-08
-3.49775e-10
2.08268e-08
-2.78908e-10
2.11572e-08
-2.16644e-10
2.15222e-08
-1.70289e-10
2.1922e-08
-1.4913e-10
2.23569e-08
-1.65029e-10
2.28273e-08
-2.334e-10
2.33333e-08
-3.74261e-10
2.38743e-08
-6.17319e-10
2.44466e-08
-1.0102e-09
2.50382e-08
-1.63264e-09
2.55449e-08
-2.2143e-09
2.59341e-08
-2.68161e-09
2.62139e-08
-3.08038e-09
2.63916e-08
-3.36866e-09
2.64757e-08
-3.53761e-09
2.64791e-08
-3.60986e-09
2.64153e-08
-3.59263e-09
2.62946e-08
-3.48051e-09
2.61265e-08
-3.27546e-09
2.59213e-08
-2.98431e-09
2.56903e-08
-2.61505e-09
2.54461e-08
-2.17726e-09
2.52026e-08
-1.68259e-09
2.49754e-08
-1.14489e-09
2.47822e-08
-5.80477e-10
2.46418e-08
-8.41914e-12
2.45742e-08
5.49888e-10
2.45982e-08
1.06963e-09
2.47282e-08
1.52492e-09
2.49684e-08
1.89046e-09
2.5304e-08
2.14383e-09
2.56921e-08
2.26981e-09
2.26433e-09
2.60604e-08
2.6771e-08
-3.56006e-10
2.67288e-08
-4.23858e-10
2.6681e-08
-4.91108e-10
2.66363e-08
-5.51686e-10
2.66033e-08
-6.00836e-10
2.65916e-08
-6.34645e-10
2.66084e-08
-6.51955e-10
2.66584e-08
-6.52937e-10
2.67451e-08
-6.40538e-10
2.68709e-08
-6.18283e-10
2.70363e-08
-5.88401e-10
2.72418e-08
-5.552e-10
2.74877e-08
-5.24835e-10
2.77746e-08
-5.03545e-10
2.81028e-08
-4.9853e-10
2.84728e-08
-5.19089e-10
2.88846e-08
-5.76883e-10
2.93383e-08
-6.87092e-10
2.98329e-08
-8.68871e-10
3.0366e-08
-1.15034e-09
3.09312e-08
-1.57547e-09
3.1513e-08
-2.21436e-09
3.20065e-08
-2.70785e-09
3.23796e-08
-3.0547e-09
3.2641e-08
-3.34179e-09
3.27976e-08
-3.52527e-09
3.2858e-08
-3.59798e-09
3.28373e-08
-3.5892e-09
3.27509e-08
-3.50617e-09
3.26097e-08
-3.33938e-09
3.24244e-08
-3.0901e-09
3.22063e-08
-2.76627e-09
3.19684e-08
-2.37709e-09
3.17244e-08
-1.93333e-09
3.14897e-08
-1.44783e-09
3.12803e-08
-9.35504e-10
3.11131e-08
-4.13324e-10
3.10047e-08
9.99933e-11
3.09703e-08
5.84353e-10
3.10207e-08
1.0192e-09
3.11603e-08
1.38534e-09
3.13836e-08
1.66712e-09
3.16728e-08
1.85459e-09
3.19967e-08
1.94597e-09
1.94811e-09
3.23129e-08
3.57488e-08
-3.31391e-10
3.5715e-08
-3.9e-10
3.56746e-08
-4.50715e-10
3.56326e-08
-5.0966e-10
3.55948e-08
-5.63124e-10
3.55685e-08
-6.08265e-10
3.55601e-08
-6.43542e-10
3.55747e-08
-6.67576e-10
3.56183e-08
-6.84115e-10
3.5695e-08
-6.95039e-10
3.58072e-08
-7.00584e-10
3.59575e-08
-7.0545e-10
3.61485e-08
-7.15839e-10
3.63823e-08
-7.37411e-10
3.66607e-08
-7.76944e-10
3.6985e-08
-8.43388e-10
3.73559e-08
-9.47772e-10
3.77734e-08
-1.10458e-09
3.82359e-08
-1.33139e-09
3.87396e-08
-1.654e-09
3.92759e-08
-2.11175e-09
3.98252e-08
-2.76366e-09
4.02855e-08
-3.16818e-09
4.06256e-08
-3.39483e-09
4.08542e-08
-3.57039e-09
4.09768e-08
-3.64781e-09
4.10023e-08
-3.62348e-09
4.0949e-08
-3.53592e-09
4.08338e-08
-3.39096e-09
4.06677e-08
-3.1733e-09
4.04619e-08
-2.88434e-09
4.02293e-08
-2.53365e-09
3.99838e-08
-2.13157e-09
3.97402e-08
-1.68973e-09
3.9514e-08
-1.22158e-09
3.93206e-08
-7.42164e-10
3.9175e-08
-2.67731e-10
3.90901e-08
1.84958e-10
3.90753e-08
5.991e-10
3.9135e-08
9.59516e-10
3.92666e-08
1.25376e-09
3.94599e-08
1.47378e-09
3.96975e-08
1.61704e-09
3.99561e-08
1.68732e-09
1.69398e-09
4.02102e-08
4.6949e-08
-3.11521e-10
4.69229e-08
-3.63837e-10
4.68916e-08
-4.19482e-10
4.68582e-08
-4.76177e-10
4.68263e-08
-5.31272e-10
4.68009e-08
-5.8288e-10
4.67872e-08
-6.29849e-10
4.67889e-08
-6.69207e-10
4.6813e-08
-7.08247e-10
4.68626e-08
-7.44675e-10
4.69403e-08
-7.78297e-10
4.70507e-08
-8.1579e-10
4.71976e-08
-8.62724e-10
4.73843e-08
-9.24095e-10
4.76137e-08
-1.00637e-09
4.78884e-08
-1.11806e-09
4.82099e-08
-1.26928e-09
4.85788e-08
-1.47353e-09
4.89934e-08
-1.74603e-09
4.94492e-08
-2.10974e-09
4.99357e-08
-2.5983e-09
5.04299e-08
-3.25787e-09
5.08368e-08
-3.57502e-09
5.1127e-08
-3.6851e-09
5.13082e-08
-3.75156e-09
5.13831e-08
-3.72268e-09
5.13629e-08
-3.60327e-09
5.12706e-08
-3.44367e-09
5.11224e-08
-3.24275e-09
5.0928e-08
-2.97885e-09
5.06996e-08
-2.65598e-09
5.04514e-08
-2.28544e-09
5.0198e-08
-1.8782e-09
4.99545e-08
-1.44619e-09
4.97356e-08
-1.00264e-09
4.9555e-08
-5.61596e-10
4.94246e-08
-1.37344e-10
4.93531e-08
2.5647e-10
4.9345e-08
6.07224e-10
4.93995e-08
9.04946e-10
4.95105e-08
1.14275e-09
4.96666e-08
1.31776e-09
4.98523e-08
1.43134e-09
5.00505e-08
1.48907e-09
1.49974e-09
5.02448e-08
6.07617e-08
-2.96858e-10
6.07433e-08
-3.4546e-10
6.07219e-08
-3.98107e-10
6.06993e-08
-4.53546e-10
6.06783e-08
-5.10302e-10
6.06623e-08
-5.66845e-10
6.06552e-08
-6.22816e-10
6.06615e-08
-6.75504e-10
6.06839e-08
-7.30618e-10
6.0726e-08
-7.86734e-10
6.07924e-08
-8.44688e-10
6.08867e-08
-9.10174e-10
6.10121e-08
-9.88051e-10
6.11716e-08
-1.08361e-09
6.13685e-08
-1.20327e-09
6.16056e-08
-1.35521e-09
6.18849e-08
-1.54856e-09
6.22074e-08
-1.79596e-09
6.2571e-08
-2.10965e-09
6.29709e-08
-2.50967e-09
6.33957e-08
-3.02306e-09
6.38189e-08
-3.68113e-09
6.41575e-08
-3.91362e-09
6.43855e-08
-3.91309e-09
6.4507e-08
-3.87308e-09
6.45219e-08
-3.73749e-09
6.445e-08
-3.53145e-09
6.43202e-08
-3.31386e-09
6.41383e-08
-3.06087e-09
6.39144e-08
-2.75488e-09
6.36636e-08
-2.4052e-09
6.34008e-08
-2.02271e-09
6.31409e-08
-1.61826e-09
6.28981e-08
-1.20336e-09
6.26855e-08
-7.90069e-10
6.25144e-08
-3.90479e-10
6.23929e-08
-1.5833e-11
6.23259e-08
3.23477e-10
6.23139e-08
6.19213e-10
6.23532e-08
8.65637e-10
6.24361e-08
1.05985e-09
6.25518e-08
1.20204e-09
6.26878e-08
1.29535e-09
6.28314e-08
1.34548e-09
1.35978e-09
6.29714e-08
7.76176e-08
-2.89716e-10
7.7609e-08
-3.36834e-10
7.75994e-08
-3.88531e-10
7.75901e-08
-4.44246e-10
7.75833e-08
-5.03509e-10
7.75816e-08
-5.65121e-10
7.75884e-08
-6.2961e-10
7.76077e-08
-6.94839e-10
7.76389e-08
-7.61797e-10
7.76882e-08
-8.36108e-10
7.77611e-08
-9.1752e-10
7.7859e-08
-1.00807e-09
7.7984e-08
-1.11305e-09
7.81387e-08
-1.23832e-09
7.83256e-08
-1.39018e-09
7.85467e-08
-1.57636e-09
7.88031e-08
-1.80492e-09
7.9095e-08
-2.0879e-09
7.94194e-08
-2.434e-09
7.97706e-08
-2.86085e-09
8.0136e-08
-3.38851e-09
8.04856e-08
-4.03074e-09
8.07531e-08
-4.18109e-09
8.09155e-08
-4.07554e-09
8.09672e-08
-3.92473e-09
8.09189e-08
-3.6892e-09
8.08089e-08
-3.42141e-09
8.06461e-08
-3.15114e-09
8.0432e-08
-2.8467e-09
8.01827e-08
-2.50557e-09
7.99145e-08
-2.13699e-09
7.96424e-08
-1.75061e-09
7.93805e-08
-1.35639e-09
7.91417e-08
-9.64543e-10
7.89367e-08
-5.85074e-10
7.87735e-08
-2.2736e-10
7.86572e-08
1.00545e-10
7.85892e-08
3.91498e-10
7.85674e-08
6.40981e-10
7.85866e-08
8.46373e-10
7.86392e-08
1.00729e-09
7.87157e-08
1.12555e-09
7.88062e-08
1.20481e-09
7.89015e-08
1.25023e-09
1.26772e-09
7.89935e-08
9.80215e-08
-2.93031e-10
9.80254e-08
-3.40668e-10
9.80302e-08
-3.93322e-10
9.80369e-08
-4.50973e-10
9.8047e-08
-5.13586e-10
9.80626e-08
-5.80784e-10
9.80859e-08
-6.52856e-10
9.81212e-08
-7.30151e-10
9.81722e-08
-8.12835e-10
9.82394e-08
-9.0331e-10
9.83263e-08
-1.00438e-09
9.84365e-08
-1.11827e-09
9.85723e-08
-1.24884e-09
9.87355e-08
-1.4015e-09
9.89275e-08
-1.5822e-09
9.91493e-08
-1.79819e-09
9.94004e-08
-2.05596e-09
9.96794e-08
-2.36697e-09
9.99814e-08
-2.73601e-09
1.00299e-07
-3.17827e-09
1.00618e-07
-3.7074e-09
1.00903e-07
-4.3164e-09
1.01109e-07
-4.38704e-09
1.01207e-07
-4.17347e-09
1.01194e-07
-3.91128e-09
1.01105e-07
-3.60032e-09
1.00969e-07
-3.28498e-09
1.00778e-07
-2.96053e-09
1.00541e-07
-2.61001e-09
1.00277e-07
-2.24177e-09
1.00003e-07
-1.8624e-09
9.97319e-08
-1.4797e-09
9.94773e-08
-1.10182e-09
9.92497e-08
-7.36916e-10
9.9057e-08
-3.92374e-10
9.89041e-08
-7.44277e-11
9.87933e-08
2.11323e-10
9.87237e-08