/*--------------------------------*- C++ -*----------------------------------*\
| =========                 |                                                 |
| \\      /  F ield         | OpenFOAM: The Open Source CFD Toolbox           |
|  \\    /   O peration     | Version:  2312                                  |
|   \\  /    A nd           | Website:  www.openfoam.com                      |
|    \\/     M anipulation  |                                                 |
\*---------------------------------------------------------------------------*/
FoamFile
{
    version     2.0;
    format      ascii;
    arch        "LSB;label=32;scalar=64";
    class       surfaceScalarField;
    location    "18";
    object      phi;
}
// * * * * * * * * * * * * * * * * * * * * * * * * * * * * * * * * * * * * * //

dimensions      [0 3 -1 0 0 0 0];

oriented        oriented;

internalField   nonuniform List<scalar> 
9445
(
5.7835e-10
1.24811e-11
5.70773e-10
7.57671e-12
5.6633e-10
4.44304e-12
5.64034e-10
2.29668e-12
5.63338e-10
6.95989e-13
5.63963e-10
-6.2548e-13
5.65703e-10
-1.74055e-12
5.68497e-10
-2.79345e-12
5.72573e-10
-4.0764e-12
5.78311e-10
-5.73784e-12
5.86795e-10
-8.48403e-12
6.01585e-10
-1.47896e-11
6.35193e-10
-3.36083e-11
7.31628e-10
-9.64346e-11
-2.50625e-10
9.82253e-10
2.01902e-09
5.52499e-11
1.99265e-09
3.39489e-11
1.97679e-09
2.02974e-11
1.96815e-09
1.09425e-11
1.96487e-09
3.97759e-12
1.96589e-09
-1.64545e-12
1.97048e-09
-6.3339e-12
1.97853e-09
-1.08453e-11
1.9906e-09
-1.61414e-11
2.00777e-09
-2.29129e-11
2.03286e-09
-3.35778e-11
2.07276e-09
-5.46812e-11
2.14084e-09
-1.01691e-10
2.25003e-09
-2.0563e-10
-3.66097e-10
2.36551e-09
3.98446e-09
1.37746e-10
3.93296e-09
8.54542e-11
3.90139e-09
5.18668e-11
3.88348e-09
2.8851e-11
3.87568e-09
1.17802e-11
3.87582e-09
-1.79067e-12
3.88248e-09
-1.29939e-11
3.89535e-09
-2.37161e-11
3.9151e-09
-3.58852e-11
3.94295e-09
-5.07672e-11
3.98175e-09
-7.23785e-11
4.03617e-09
-1.09101e-10
4.10908e-09
-1.74597e-10
4.18698e-09
-2.83531e-10
-4.12387e-10
4.23327e-09
6.61823e-09
2.70608e-10
6.53415e-09
1.69533e-10
6.48157e-09
1.04449e-10
6.45059e-09
5.98275e-11
6.43545e-09
2.69173e-11
6.43261e-09
1.05776e-12
6.43971e-09
-2.01006e-11
6.45581e-09
-3.98105e-11
6.48131e-09
-6.13905e-11
6.51671e-09
-8.61631e-11
6.56312e-09
-1.18787e-10
6.6203e-09
-1.66281e-10
6.6819e-09
-2.36203e-10
6.72814e-09
-3.29764e-10
-4.20951e-10
6.7367e-09
1.00938e-08
4.64541e-10
9.96918e-09
2.94158e-10
9.88957e-09
1.84058e-10
9.84092e-09
1.08473e-10
9.81472e-09
5.31205e-11
9.80583e-09
9.95097e-12
9.81074e-09
-2.50119e-11
9.8273e-09
-5.63684e-11
9.85498e-09
-8.90771e-11
9.89294e-09
-1.24122e-10
9.93971e-09
-1.65556e-10
9.99081e-09
-2.17376e-10
1.00359e-08
-2.81269e-10
1.00582e-08
-3.52081e-10
-4.10667e-10
1.00479e-08
1.46159e-08
7.27735e-10
1.44437e-08
4.66351e-10
1.43312e-08
2.96546e-10
1.426e-08
1.79672e-10
1.42186e-08
9.4572e-11
1.41997e-08
2.88193e-11
1.41986e-08
-2.39308e-11
1.42119e-08
-6.96574e-11
1.4237e-08
-1.14157e-10
1.42716e-08
-1.58697e-10
1.43118e-08
-2.05831e-10
1.43512e-08
-2.56713e-10
1.43796e-08
-3.09663e-10
1.43863e-08
-3.58769e-10
-3.93205e-10
1.43688e-08
2.04182e-08
1.0611e-09
2.01953e-08
6.89234e-10
2.00462e-08
4.45695e-10
1.99485e-08
2.77334e-10
1.9888e-08
1.55106e-10
1.98552e-08
6.15992e-11
1.98439e-08
-1.25959e-11
1.98491e-08
-7.49012e-11
1.98664e-08
-1.31459e-10
1.98918e-08
-1.84084e-10
1.99201e-08
-2.34096e-10
1.99445e-08
-2.81138e-10
1.99577e-08
-3.22855e-10
1.99542e-08
-3.55276e-10
-3.73751e-10
1.99347e-08
2.77558e-08
1.45105e-09
2.74878e-08
9.57212e-10
2.73036e-08
6.29882e-10
2.71789e-08
4.02005e-10
2.70975e-08
2.36513e-10
2.70481e-08
1.10969e-10
2.7023e-08
1.25265e-11
2.70158e-08
-6.77223e-11
2.70207e-08
-1.36289e-10
2.70322e-08
-1.95641e-10
2.70449e-08
-2.46804e-10
2.70533e-08
-2.89455e-10
2.70527e-08
-3.22291e-10
2.70412e-08
-3.43824e-10
-3.53088e-10
2.70206e-08
3.68935e-08
1.86186e-09
3.66007e-08
1.25005e-09
3.6393e-08
8.37573e-10
3.62476e-08
5.47392e-10
3.61482e-08
3.35848e-10
3.6083e-08
1.76198e-10
3.60431e-08
5.24176e-11
3.60213e-08
-4.58899e-11
3.6011e-08
-1.25947e-10
3.60063e-08
-1.91023e-10
3.60024e-08
-2.42859e-10
3.59952e-08
-2.82216e-10
3.59823e-08
-3.09442e-10
3.59636e-08
-3.25102e-10
-3.30182e-10
3.59407e-08
4.80993e-08
2.2343e-09
4.78198e-08
1.52954e-09
4.76136e-08
1.04378e-09
4.74639e-08
6.97104e-10
4.73572e-08
4.42544e-10
4.72827e-08
2.50695e-10
4.72318e-08
1.03277e-10
4.71972e-08
-1.12887e-11
4.71728e-08
-1.01523e-10
4.71532e-08
-1.7143e-10
4.71345e-08
-2.24186e-10
4.71143e-08
-2.61975e-10
4.70915e-08
-2.86662e-10
4.70666e-08
-3.00183e-10
-3.04486e-10
4.70409e-08
6.16636e-08
2.50183e-09
6.14465e-08
1.74666e-09
6.12774e-08
1.21286e-09
6.11492e-08
8.25322e-10
6.10537e-08
5.37989e-10
6.09833e-08
3.21102e-10
6.09311e-08
1.55482e-10
6.08912e-08
2.85906e-11
6.08586e-08
-6.89449e-11
6.08296e-08
-1.4241e-10
6.08016e-08
-1.9618e-10
6.07734e-08
-2.33755e-10
6.07448e-08
-2.58058e-10
6.07164e-08
-2.71793e-10
-2.77318e-10
6.06892e-08
7.79681e-08
2.62726e-09
7.78498e-08
1.86501e-09
7.77491e-08
1.31351e-09
7.7668e-08
9.06508e-10
7.76041e-08
6.01819e-10
7.75539e-08
3.71278e-10
7.75135e-08
1.95934e-10
7.74793e-08
6.27604e-11
7.74483e-08
-3.79092e-11
7.74187e-08
-1.12831e-10
7.73895e-08
-1.66948e-10
7.73604e-08
-2.04685e-10
7.73319e-08
-2.29534e-10
7.73046e-08
-2.44505e-10
-2.52055e-10
7.72793e-08
9.75774e-08
2.63167e-09
9.75545e-08
1.88787e-09
9.7527e-08
1.34103e-09
9.75007e-08
9.32846e-10
9.74771e-08
6.25385e-10
9.74558e-08
3.92598e-10
9.74355e-08
2.16183e-10
9.74153e-08
8.30247e-11
9.7394e-08
-1.66273e-11
9.73717e-08
-9.05899e-11
9.73487e-08
-1.43878e-10
9.73254e-08
-1.81383e-10
9.73026e-08
-2.06768e-10
9.72812e-08
-2.23057e-10
-2.32626e-10
9.72617e-08
1.21235e-07
2.57314e-09
1.21268e-07
1.85501e-09
1.21287e-07
1.32233e-09
1.21297e-07
9.22445e-10
1.21302e-07
6.20703e-10
1.21302e-07
3.92651e-10
1.21297e-07
2.20512e-10
1.21289e-07
9.11543e-11
1.21278e-07
-5.11824e-12
1.21264e-07
-7.68054e-11
1.21249e-07
-1.28635e-10
1.21233e-07
-1.65673e-10
1.21218e-07
-1.91512e-10
1.21204e-07
-2.09037e-10
-2.20461e-10
1.21192e-07
1.49675e-07
2.49163e-09
1.49727e-07
1.80322e-09
1.4976e-07
1.28922e-09
1.4978e-07
9.019e-10
1.49792e-07
6.09405e-10
1.49796e-07
3.88623e-10
1.49794e-07
2.22296e-10
1.49788e-07
9.74272e-11
1.49778e-07
4.46641e-12
1.49766e-07
-6.52808e-11
1.49754e-07
-1.16233e-10
1.49742e-07
-1.53394e-10
1.4973e-07
-1.80197e-10
1.49721e-07
-1.99334e-10
-2.12839e-10
1.49713e-07
1.83371e-07
2.38919e-09
1.83434e-07
1.74024e-09
1.8347e-07
1.25228e-09
1.8349e-07
8.82611e-10
1.83497e-07
6.02494e-10
1.83495e-07
3.90502e-10
1.83487e-07
2.30351e-10
1.83475e-07
1.09595e-10
1.8346e-07
1.88518e-11
1.83445e-07
-4.98407e-11
1.8343e-07
-1.01078e-10
1.83416e-07
-1.39385e-10
1.83403e-07
-1.68017e-10
1.83394e-07
-1.89472e-10
-2.05607e-10
1.83386e-07
2.22401e-07
2.25362e-09
2.22484e-07
1.65753e-09
2.2253e-07
1.20566e-09
2.22552e-07
8.60631e-10
2.22557e-07
5.97332e-10
2.22551e-07
3.96577e-10
2.22538e-07
2.43636e-10
2.2252e-07
1.27144e-10
2.22501e-07
3.84527e-11
2.22481e-07
-2.97144e-11
2.22462e-07
-8.2093e-11
2.22445e-07
-1.2225e-10
2.2243e-07
-1.53316e-10
2.22418e-07
-1.77618e-10
-1.96854e-10
2.22409e-07
2.66319e-07
2.07981e-09
2.66427e-07
1.54937e-09
2.6649e-07
1.14323e-09
2.66521e-07
8.2983e-10
2.6653e-07
5.88171e-10
2.66525e-07
4.01746e-10
2.6651e-07
2.57786e-10
2.66491e-07
1.46368e-10
2.6647e-07
6.00459e-11
2.66447e-07
-6.65168e-12
2.66426e-07
-6.11737e-11
2.66407e-07
-1.03386e-10
2.66391e-07
-1.37142e-10
2.66378e-07
-1.64569e-10
-1.87125e-10
2.66368e-07
3.13779e-07
1.86858e-09
3.13914e-07
1.41409e-09
3.13996e-07
1.06146e-09
3.1404e-07
7.85742e-10
3.14058e-07
5.7022e-10
3.14058e-07
4.01462e-10
3.14047e-07
2.68944e-10
3.14029e-07
1.64363e-10
3.14008e-07
8.13273e-11
3.13986e-07
1.51649e-11
3.13964e-07
-3.95822e-11
3.13945e-07
-8.42079e-11
3.13929e-07
-1.20931e-10
3.13916e-07
-1.51672e-10
-1.77685e-10
3.13907e-07
3.61871e-07
1.61584e-09
3.6204e-07
1.2453e-09
3.62148e-07
9.5247e-10
3.62215e-07
7.19607e-10
3.6225e-07
5.34409e-10
3.62265e-07
3.86708e-10
3.62266e-07
2.68343e-10
3.62257e-07
1.72904e-10
3.62243e-07
9.53535e-11
3.62227e-07
3.18066e-11
3.62208e-07
-2.14082e-11
3.62191e-07
-6.65957e-11
3.62175e-07
-1.04825e-10
3.62161e-07
-1.37705e-10
-1.6639e-10
3.62149e-07
3.59611e-07
1.36611e-09
3.59784e-07
1.07246e-09
3.59901e-07
8.3531e-10
3.59978e-07
6.43186e-10
3.60025e-07
4.87481e-10
3.6005e-07
3.60767e-10
3.60062e-07
2.56965e-10
3.60063e-07
1.71246e-10
3.60059e-07
9.99127e-11
3.6005e-07
4.03307e-11
3.60039e-07
-9.91805e-12
3.60028e-07
-5.56535e-11
3.60017e-07
-9.43356e-11
3.60008e-07
-1.28388e-10
-1.5877e-10
3.60001e-07
3.0813e-07
1.142e-09
3.08288e-07
9.13978e-10
3.08398e-07
7.25237e-10
3.08472e-07
5.69452e-10
3.08519e-07
4.40738e-10
3.08546e-07
3.33849e-10
3.08558e-07
2.44449e-10
3.0856e-07
1.69027e-10
3.08556e-07
1.0479e-10
3.08547e-07
4.93176e-11
3.08537e-07
-2.08769e-13
3.08524e-07
-4.24173e-11
3.0851e-07
-8.09731e-11
3.08497e-07
-1.15507e-10
-1.46747e-10
3.08485e-07
2.58241e-07
9.50535e-10
2.58383e-07
7.72124e-10
2.58487e-07
6.21431e-10
2.58561e-07
4.94927e-10
2.58614e-07
3.88505e-10
2.58649e-07
2.98464e-10
2.58672e-07
2.21666e-10
2.58685e-07
1.55522e-10
2.58692e-07
9.79151e-11
2.58694e-07
4.71464e-11
2.58692e-07
2.21066e-12
2.58688e-07
-3.82496e-11
2.58682e-07
-7.48123e-11
2.58674e-07
-1.08232e-10
-1.38927e-10
2.58667e-07
2.12947e-07
7.86906e-10
2.13072e-07
6.47203e-10
2.13166e-07
5.27262e-10
2.13236e-07
4.24849e-10
2.13288e-07
3.37168e-10
2.13324e-07
2.61633e-10
2.1335e-07
1.96012e-10
2.13367e-07
1.38463e-10
2.13378e-07
8.74797e-11
2.13383e-07
4.18968e-11
2.13384e-07
9.12603e-13
2.13382e-07
-3.65905e-11
2.13378e-07
-7.08656e-11
2.13373e-07
-1.02521e-10
-1.31887e-10
2.13366e-07
1.73225e-07
6.45989e-10
1.73335e-07
5.36776e-10
1.73421e-07
4.41681e-10
1.73487e-07
3.59158e-10
1.73536e-07
2.87302e-10
1.73574e-07
2.24321e-10
1.73601e-07
1.68678e-10
1.7362e-07
1.1908e-10
1.73633e-07
7.44898e-11
1.73641e-07
3.40443e-11
1.73645e-07
-3.00808e-12
1.73646e-07
-3.69813e-11
1.73643e-07
-6.85331e-11
1.73639e-07
-9.78928e-11
-1.25306e-10
1.73632e-07
1.3926e-07
5.24067e-10
1.39358e-07
4.38968e-10
1.39436e-07
3.63906e-10
1.39497e-07
2.97772e-10
1.39545e-07
2.39244e-10
1.39582e-07
1.87113e-10
1.39611e-07
1.40337e-10
1.39632e-07
9.80284e-11
1.39647e-07
5.94582e-11
1.39657e-07
2.40052e-11
1.39663e-07
-8.78636e-12
1.39665e-07
-3.91365e-11
1.39664e-07
-6.75531e-11
1.3966e-07
-9.41664e-11
-1.19128e-10
1.39654e-07
1.10774e-07
4.18216e-10
1.1086e-07
3.52281e-10
1.10931e-07
2.93418e-10
1.10988e-07
2.40802e-10
1.11034e-07
1.93517e-10
1.1107e-07
1.50774e-10
1.11098e-07
1.11881e-10
1.1112e-07
7.62519e-11
1.11136e-07
4.33587e-11
1.11147e-07
1.27751e-11
1.11154e-07
-1.56286e-11
1.11157e-07
-4.22306e-11
1.11157e-07
-6.72448e-11
1.11154e-07
-9.07709e-11
-1.129e-10
1.11147e-07
8.72431e-08
3.26629e-10
8.73193e-08
2.76015e-10
8.73824e-08
2.30314e-10
8.74344e-08
1.8889e-10
8.74767e-08
1.51128e-10
8.7511e-08
1.1654e-10
8.75382e-08
8.46755e-11
8.75593e-08
5.51619e-11
8.7575e-08
2.76563e-11
8.7586e-08
1.76171e-12
8.75926e-08
-2.22574e-11
8.75954e-08
-4.5025e-11
8.75946e-08
-6.64724e-11
8.75906e-08
-8.66927e-11
-1.05735e-10
8.75834e-08
6.80437e-08
2.48549e-10
6.81094e-08
2.10227e-10
6.81645e-08
1.75248e-10
6.82103e-08
1.43108e-10
6.8248e-08
1.13429e-10
6.82786e-08
8.59257e-11
6.8303e-08
6.03222e-11
6.83217e-08
3.63695e-11
6.83356e-08
1.38449e-11
6.83447e-08
-7.38165e-12
6.83498e-08
-2.73221e-11
6.8351e-08
-4.62122e-11
6.83485e-08
-6.40597e-11
6.83427e-08
-8.09018e-11
-9.67532e-11
6.83338e-08
5.25356e-08
1.83669e-10
5.25907e-08
1.55185e-10
5.2637e-08
1.28905e-10
5.26757e-08
1.04438e-10
5.27075e-08
8.15854e-11
5.27333e-08
6.01929e-11
5.27535e-08
4.0099e-11
5.27687e-08
2.11517e-11
5.27793e-08
3.20349e-12
5.27857e-08
-1.37272e-11
5.27881e-08
-2.97705e-11
5.27869e-08
-4.49619e-11
5.27822e-08
-5.93286e-11
5.27741e-08
-7.28815e-11
-8.56129e-11
5.2763e-08
4.01166e-08
1.31474e-10
4.0161e-08
1.10781e-10
4.01985e-08
9.14839e-11
4.02296e-08
7.32895e-11
4.02551e-08
5.61309e-11
4.02753e-08
3.99292e-11
4.02908e-08
2.45925e-11
4.0302e-08
1.00382e-11
4.0309e-08
-3.79856e-12
4.03121e-08
-1.69148e-11
4.03117e-08
-2.9374e-11
4.0308e-08
-4.11778e-11
4.0301e-08
-5.23368e-11
4.02909e-08
-6.28479e-11
-7.26937e-11
4.0278e-08
3.02484e-08
9.0922e-11
3.02829e-08
7.62941e-11
3.03119e-08
6.25091e-11
3.03358e-08
4.93605e-11
3.03551e-08
3.68625e-11
3.037e-08
2.49731e-11
3.0381e-08
1.36457e-11
3.03881e-08
2.84392e-12
3.03918e-08
-7.45217e-12
3.03921e-08
-1.72586e-11
3.03893e-08
-2.65768e-11
3.03836e-08
-3.54065e-11
3.0375e-08
-4.3745e-11
3.03637e-08
-5.1581e-11
-5.88948e-11
3.03499e-08
2.24655e-08
6.04974e-11
2.24913e-08
5.04869e-11
2.25128e-08
4.09644e-11
2.25304e-08
3.17911e-11
2.25443e-08
2.30187e-11
2.25546e-08
1.46177e-11
2.25617e-08
6.57203e-12
2.25657e-08
-1.12403e-12
2.25667e-08
-8.48556e-12
2.25649e-08
-1.55172e-11
2.25606e-08
-2.21987e-11
2.25537e-08
-2.85271e-11
2.25444e-08
-3.44947e-11
2.25329e-08
-4.00865e-11
-4.52844e-11
2.25193e-08
1.63739e-08
3.84463e-11
1.63925e-08
3.1862e-11
1.64079e-08
2.55591e-11
1.64203e-08
1.94406e-11
1.64297e-08
1.35634e-11
1.64364e-08
7.89988e-12
1.64405e-08
2.45308e-12
1.64422e-08
-2.764e-12
1.64415e-08
-7.77929e-12
1.64385e-08
-1.25764e-11
1.64335e-08
-1.71329e-11
1.64264e-08
-2.14451e-11
1.64174e-08
-2.55049e-11
1.64066e-08
-2.92967e-11
-3.28051e-11
1.63941e-08
1.16444e-08
2.30285e-11
1.16573e-08
1.89135e-11
1.16679e-08
1.49754e-11
1.16762e-08
1.11333e-11
1.16823e-08
7.43073e-12
1.16864e-08
3.84093e-12
1.16885e-08
3.76709e-13
1.16887e-08
-2.9428e-12
1.1687e-08
-6.15251e-12
1.16837e-08
-9.22423e-12
1.16787e-08
-1.21398e-11
1.16721e-08
-1.48965e-11
1.16641e-08
-1.74875e-11
1.16547e-08
-1.98993e-11
-2.21186e-11
1.1644e-08
8.00464e-09
1.26869e-11
8.01326e-09
1.02909e-11
8.02021e-09
8.02767e-12
8.02553e-09
5.81492e-12
8.02928e-09
3.6767e-12
8.03153e-09
1.59059e-12
8.03234e-09
-4.28495e-13
8.03176e-09
-2.36361e-12
8.02986e-09
-4.24943e-12
8.02668e-09
-6.04641e-12
8.02229e-09
-7.75702e-12
8.01677e-09
-9.37112e-12
8.01017e-09
-1.08862e-11
8.00256e-09
-1.22914e-11
-1.35747e-11
7.99402e-09
5.23119e-09
6.1246e-12
5.2366e-09
4.87221e-12
5.2409e-09
3.73402e-12
5.24409e-09
2.62201e-12
5.24622e-09
1.54393e-12
5.24733e-09
4.85092e-13
5.24745e-09
-5.46506e-13
5.24661e-09
-1.53077e-12
5.24486e-09
-2.49698e-12
5.24223e-09
-3.41746e-12
5.23877e-09
-4.29454e-12
5.23452e-09
-5.12044e-12
5.22953e-09
-5.89513e-12
5.22385e-09
-6.61054e-12
-7.25591e-12
5.21753e-09
3.14187e-09
2.31376e-12
3.14497e-09
1.77335e-12
3.14738e-09
1.32628e-12
3.14911e-09
8.909e-13
3.15019e-09
4.6594e-13
3.15063e-09
4.37847e-14
3.15045e-09
-3.68146e-13
3.14968e-09
-7.62811e-13
3.14834e-09
-1.14992e-12
3.14644e-09
-1.52039e-12
3.14402e-09
-1.87305e-12
3.1411e-09
-2.20477e-12
3.13772e-09
-2.51567e-12
3.13391e-09
-2.80082e-12
-3.05082e-12
3.12971e-09
1.58929e-09
4.67077e-13
1.59074e-09
3.18029e-13
1.59185e-09
2.24058e-13
1.5926e-09
1.32908e-13
1.59303e-09
4.12834e-14
1.59312e-09
-5.07153e-14
1.5929e-09
-1.42637e-13
1.59237e-09
-2.29904e-13
1.59153e-09
-3.15873e-13
1.59041e-09
-3.98153e-13
1.58901e-09
-4.76091e-13
1.58736e-09
-5.50038e-13
1.58546e-09
-6.18418e-13
1.58334e-09
-6.8026e-13
-7.28532e-13
1.58102e-09
4.54892e-10
4.5521e-10
4.55434e-10
4.55567e-10
4.55608e-10
4.55558e-10
4.55415e-10
4.55185e-10
4.54869e-10
4.54471e-10
4.53995e-10
4.53445e-10
4.52826e-10
4.52146e-10
4.51418e-10
1.17436e-09
-4.85865e-10
2.93761e-10
1.44912e-09
-4.21034e-10
1.46267e-10
1.72588e-09
-2.90186e-10
1.34342e-11
1.99828e-09
-1.55271e-10
-1.17129e-10
2.26459e-09
-2.14361e-11
-2.44883e-10
2.52564e-09
1.04059e-10
-3.65103e-10
2.78284e-09
2.20051e-10
-4.77255e-10
3.03743e-09
3.25829e-10
-5.8042e-10
3.29044e-09
4.20743e-10
-6.73748e-10
3.54267e-09
5.04307e-10
-7.56534e-10
3.79475e-09
5.76167e-10
-8.28253e-10
4.04723e-09
6.36353e-10
-8.88831e-10
4.30061e-09
6.85695e-10
-9.39071e-10
4.55549e-09
7.26486e-10
-9.81368e-10
4.81274e-09
7.63463e-10
-1.02072e-09
5.07379e-09
8.05273e-10
-1.06632e-09
5.34096e-09
8.65936e-10
-1.13311e-09
5.61808e-09
9.66795e-10
-1.24391e-09
5.91086e-09
1.13413e-09
-1.42691e-09
6.22714e-09
1.39543e-09
-1.71171e-09
6.57535e-09
1.75146e-09
-2.09966e-09
6.96026e-09
2.14569e-09
-2.53061e-09
7.31678e-09
2.03674e-09
-2.39325e-09
7.61325e-09
1.53442e-09
-1.8309e-09
7.84595e-09
8.66621e-10
-1.09932e-09
8.01559e-09
1.28463e-10
-2.98098e-10
8.1253e-09
-6.08241e-10
4.98531e-10
8.17884e-09
-1.29746e-09
1.24392e-09
8.17958e-09
-1.90966e-09
1.90892e-09
8.13039e-09
-2.42407e-09
2.47326e-09
8.03392e-09
-2.82423e-09
2.9207e-09
7.89295e-09
-3.09686e-09
3.23783e-09
7.71058e-09
-3.23247e-09
3.41485e-09
7.49019e-09
-3.22625e-09
3.44664e-09
7.23526e-09
-3.07832e-09
3.33325e-09
6.94907e-09
-2.79305e-09
3.07924e-09
6.63444e-09
-2.3773e-09
2.69194e-09
6.29373e-09
-1.83783e-09
2.17854e-09
5.92908e-09
-1.17786e-09
1.54251e-09
5.54185e-09
-3.9499e-10
7.82219e-10
5.12927e-09
5.12557e-10
-9.99754e-11
4.67921e-09
1.52178e-09
-1.07172e-09
4.16851e-09
2.51971e-09
-2.00902e-09
3.59988e-09
3.24328e-09
-2.67465e-09
2.98626e-09
3.25693e-09
-2.64331e-09
2.44162e-09
-5.61974e-10
2.60441e-09
-5.83832e-10
2.82567e-09
-5.11442e-10
3.07298e-09
-4.02579e-10
3.33257e-09
-2.81027e-10
3.5973e-09
-1.60669e-10
3.8643e-09
-4.69577e-11
4.13253e-09
5.76077e-11
4.40169e-09
1.51575e-10
4.67187e-09
2.34131e-10
4.94324e-09
3.04793e-10
5.21607e-09
3.63527e-10
5.49068e-09
4.11086e-10
5.76756e-09
4.49606e-10
6.0475e-09
4.83516e-10
6.3319e-09
5.20874e-10
6.6231e-09
5.74739e-10
6.92501e-09
6.64885e-10
7.24357e-09
8.15568e-10
7.58698e-09
1.05202e-09
7.96423e-09
1.37422e-09
8.38074e-09
1.72918e-09
8.76707e-09
1.6504e-09
9.08958e-09
1.21191e-09
9.34422e-09
6.11979e-10
9.53144e-09
-5.87523e-11
9.65426e-09
-7.3106e-10
9.71647e-09
-1.35967e-09
9.72161e-09
-1.91481e-09
9.67287e-09
-2.37533e-09
9.57336e-09
-2.72472e-09
9.42649e-09
-2.94999e-09
9.23617e-09
-3.04215e-09
9.00683e-09
-2.99692e-09
8.74332e-09
-2.81481e-09
8.45071e-09
-2.50043e-09
8.13431e-09
-2.06091e-09
7.80019e-09
-1.50371e-09
7.45637e-09
-8.34039e-10
7.11469e-09
-5.33123e-11
6.79188e-09
8.3537e-10
6.51003e-09
1.80363e-09
6.29684e-09
2.7329e-09
6.19547e-09
3.34465e-09
3.07062e-09
6.11112e-09
4.24758e-09
-5.76288e-10
4.31933e-09
-6.5558e-10
4.46007e-09
-6.52177e-10
4.65325e-09
-5.95767e-10
4.87932e-09
-5.07091e-10
5.12584e-09
-4.07194e-10
5.38531e-09
-3.06424e-10
5.65341e-09
-2.10494e-10
5.92772e-09
-1.22735e-10
6.20688e-09
-4.50329e-11
6.49016e-09
2.15167e-11
6.77718e-09
7.65062e-11
7.06785e-09
1.20416e-10
7.36236e-09
1.55101e-10
7.66128e-09
1.84597e-10
7.96584e-09
2.16307e-10
8.27831e-09
2.62267e-10
8.60259e-09
3.40606e-10
8.94472e-09
4.73443e-10
9.31315e-09
6.83595e-10
9.71731e-09
9.70054e-10
1.01632e-08
1.28325e-09
1.05776e-08
1.23603e-09
1.09249e-08
8.6459e-10
1.12008e-08
3.3613e-10
1.14052e-08
-2.63205e-10
1.15411e-08
-8.6693e-10
1.16122e-08
-1.43071e-09
1.16221e-08
-1.92471e-09
1.15743e-08
-2.32762e-09
1.14727e-08
-2.62307e-09
1.13213e-08
-2.79857e-09
1.1125e-08
-2.84589e-09
1.08897e-08
-2.76156e-09
1.06217e-08
-2.54687e-09
1.03285e-08
-2.20719e-09
1.00183e-08
-1.75074e-09
9.70156e-09
-1.18697e-09
9.39272e-09
-5.25197e-10
9.11361e-09
2.25791e-10
8.89712e-09
1.05186e-09
8.78607e-09
1.91467e-09
8.81642e-09
2.70256e-09
8.97241e-09
3.18866e-09
2.99452e-09
9.04851e-09
6.71562e-09
-5.55211e-10
6.72577e-09
-6.65725e-10
6.788e-09
-7.14406e-10
6.90825e-09
-7.16021e-10
7.07722e-09
-6.76062e-10
7.28147e-09
-6.11444e-10
7.51142e-09
-5.36365e-10
7.76022e-09
-4.59296e-10
8.02318e-09
-3.857e-10
8.29718e-09
-3.19027e-10
8.58014e-09
-2.61451e-10
8.87076e-09
-2.14109e-10
9.16823e-09
-1.77051e-10
9.47221e-09
-1.48885e-10
9.7829e-09
-1.26096e-10
1.01012e-08
-1.02025e-10
1.04292e-08
-6.57418e-11
1.07707e-08
-8.34687e-13
1.11316e-08
1.12574e-10
1.15204e-08
2.94751e-10
1.19469e-08
5.43507e-10
1.24177e-08
8.12473e-10
1.28562e-08
7.97506e-10
1.32254e-08
4.95464e-10
1.35202e-08
4.1295e-11
1.37403e-08
-4.83329e-10
1.38882e-08
-1.01482e-09
1.39675e-08
-1.50999e-09
1.3982e-08
-1.9392e-09
1.39356e-08
-2.28124e-09
1.38327e-08
-2.52012e-09
1.36782e-08
-2.64415e-09
1.34785e-08
-2.64614e-09
1.32407e-08
-2.52376e-09
1.29733e-08
-2.27948e-09
1.26861e-08
-1.92001e-09
1.23908e-08
-1.4554e-09
1.21019e-08
-8.98095e-10
1.18394e-08
-2.62625e-10
1.16313e-08
4.33801e-10
1.15171e-08
1.16607e-09
1.15418e-08
1.88996e-09
1.17301e-08
2.51426e-09
1.20352e-08
2.88362e-09
2.79878e-09
1.22309e-08
1.00114e-08
-5.18752e-10
9.98255e-09
-6.36832e-10
9.98587e-09
-7.17727e-10
1.00331e-08
-7.63208e-10
1.01304e-08
-7.73425e-10
1.02727e-08
-7.53755e-10
1.0451e-08
-7.146e-10
1.06584e-08
-6.66738e-10
1.08892e-08
-6.16531e-10
1.1139e-08
-5.68756e-10
1.14043e-08
-5.2676e-10
1.16828e-08
-4.92611e-10
1.19728e-08
-4.67095e-10
1.22734e-08
-4.49456e-10
1.25841e-08
-4.36837e-10
1.29055e-08
-4.23427e-10
1.32393e-08
-3.99487e-10
1.35888e-08
-3.50393e-10
1.396e-08
-2.58585e-10
1.43612e-08
-1.06453e-10
1.48023e-08
1.02448e-10
1.529e-08
3.2475e-10
1.57458e-08
3.4165e-10
1.61313e-08
1.10003e-10
1.64408e-08
-2.68226e-10
1.66733e-08
-7.15823e-10
1.68308e-08
-1.17229e-09
1.69166e-08
-1.59584e-09
1.69348e-08
-1.95734e-09
1.68895e-08
-2.23599e-09
1.67859e-08
-2.41652e-09
1.66301e-08
-2.48836e-09
1.64296e-08
-2.44565e-09
1.61934e-08
-2.28755e-09
1.59321e-08
-2.01812e-09
1.56579e-08
-1.64586e-09
1.53856e-08
-1.18312e-09
1.51332e-08
-6.45661e-10
1.49236e-08
-5.29613e-11
1.47861e-08
5.71262e-10
1.47568e-08
1.19535e-09
1.48706e-08
1.77615e-09
1.51366e-08
2.24832e-09
1.54985e-08
2.52169e-09
2.50837e-09
1.57889e-08
1.4329e-08
-4.78951e-10
1.4281e-08
-5.88849e-10
1.42468e-08
-6.83518e-10
1.42388e-08
-7.55224e-10
1.42684e-08
-8.03034e-10
1.43394e-08
-8.2473e-10
1.44508e-08
-8.25975e-10
1.45977e-08
-8.13605e-10
1.47753e-08
-7.9421e-10
1.49794e-08
-7.72849e-10
1.52062e-08
-7.53499e-10
1.54525e-08
-7.38963e-10
1.57162e-08
-7.30738e-10
1.59955e-08
-7.2875e-10
1.62895e-08
-7.30874e-10
1.65983e-08
-7.32208e-10
1.69231e-08
-7.24272e-10
1.72669e-08
-6.94257e-10
1.76353e-08
-6.26984e-10
1.80364e-08
-5.0752e-10
1.84798e-08
-3.40934e-10
1.89723e-08
-1.67763e-10
1.94349e-08
-1.20972e-10
1.9828e-08
-2.83121e-10
2.01452e-08
-5.85368e-10
2.03844e-08
-9.55011e-10
2.0547e-08
-1.33489e-09
2.06361e-08
-1.68494e-09
2.06556e-08
-1.9769e-09
2.06104e-08
-2.19075e-09
2.05062e-08
-2.31234e-09
2.03504e-08
-2.33251e-09
2.01518e-08
-2.24711e-09
1.99213e-08
-2.05705e-09
1.96714e-08
-1.76826e-09
1.94168e-08
-1.39125e-09
1.91744e-08
-9.40708e-10
1.8964e-08
-4.35228e-10
1.88085e-08
1.02515e-10
1.87341e-08
6.45667e-10
1.87674e-08
1.1621e-09
1.89282e-08
1.61526e-09
1.92134e-08
1.9632e-09
1.95735e-08
2.16157e-09
2.17912e-09
1.99027e-08
1.98975e-08
-4.41762e-10
1.98463e-08
-5.37635e-10
1.97937e-08
-6.30941e-10
1.97523e-08
-7.13778e-10
1.97319e-08
-7.82596e-10
1.97409e-08
-8.33771e-10
1.9784e-08
-8.69058e-10
1.98615e-08
-8.91109e-10
1.99718e-08
-9.04559e-10
2.01126e-08
-9.13561e-10
2.02809e-08
-9.21816e-10
2.04742e-08
-9.32247e-10
2.06901e-08
-9.46701e-10
2.0927e-08
-9.65591e-10
2.11835e-08
-9.87432e-10
2.14595e-08
-1.00818e-09
2.17558e-08
-1.0206e-09
2.20752e-08
-1.01365e-09
2.24228e-08
-9.74532e-10
2.28061e-08
-8.90916e-10
2.32347e-08
-7.69443e-10
2.37148e-08
-6.47892e-10
2.41691e-08
-5.75318e-10
2.45574e-08
-6.7136e-10
2.48717e-08
-8.99667e-10
2.51089e-08
-1.19223e-09
2.52696e-08
-1.49559e-09
2.53565e-08
-1.7718e-09
2.53734e-08
-1.99388e-09
2.53257e-08
-2.14304e-09
2.522e-08
-2.20661e-09
2.50647e-08
-2.17723e-09
2.48703e-08
-2.05269e-09
2.46491e-08
-1.83587e-09
2.44155e-08
-1.53463e-09
2.41856e-08
-1.16137e-09
2.39775e-08
-7.32603e-10
2.38108e-08
-2.68523e-10
2.37059e-08
2.07376e-10
2.36827e-08
6.68877e-10
2.37568e-08
1.08804e-09
2.39345e-08
1.43753e-09
2.42047e-08
1.69298e-09
2.45299e-08
1.83643e-09
1.86211e-09
2.48469e-08
2.69869e-08
-4.08131e-10
2.69393e-08
-4.89996e-10
2.68834e-08
-5.75012e-10
2.68273e-08
-6.57679e-10
2.67787e-08
-7.34045e-10
2.6746e-08
-8.01068e-10
2.67352e-08
-8.58196e-10
2.67502e-08
-9.06173e-10
2.6793e-08
-9.47362e-10
2.6864e-08
-9.84501e-10
2.69625e-08
-1.02035e-09
2.70876e-08
-1.05732e-09
2.7238e-08
-1.0971e-09
2.74126e-08
-1.14018e-09
2.76106e-08
-1.18547e-09
2.7832e-08
-1.22957e-09
2.80778e-08
-1.26636e-09
2.83505e-08
-1.2864e-09
2.86551e-08
-1.27916e-09
2.89989e-08
-1.23471e-09
2.93907e-08
-1.16118e-09
2.98363e-08
-1.09351e-09
3.02627e-08
-1.00176e-09
3.06295e-08
-1.03808e-09
3.09268e-08
-1.19697e-09
3.115e-08
-1.41551e-09
3.12989e-08
-1.64443e-09
3.13754e-08
-1.84836e-09
3.13837e-08
-2.00213e-09
3.13292e-08
-2.08859e-09
3.12196e-08
-2.09697e-09
3.10644e-08
-2.02199e-09
3.08752e-08
-1.86353e-09
3.06658e-08
-1.62649e-09
3.04517e-08
-1.32046e-09
3.02495e-08
-9.59207e-10
3.0077e-08
-5.60102e-10
2.99518e-08
-1.43304e-10
2.989e-08
2.69181e-10
2.99042e-08
6.54648e-10
3.00007e-08
9.91536e-10
3.01766e-08
1.2616e-09
3.04174e-08
1.45226e-09
3.06952e-08
1.55861e-09
1.58473e-09
3.09726e-08
3.59088e-08
-3.76236e-10
3.58652e-08
-4.46411e-10
3.5812e-08
-5.21779e-10
3.57532e-08
-5.98959e-10
3.56941e-08
-6.74905e-10
3.56403e-08
-7.47266e-10
3.5597e-08
-8.14913e-10
3.55687e-08
-8.7789e-10
3.55587e-08
-9.37333e-10
3.55692e-08
-9.94974e-10
3.56016e-08
-1.05274e-09
3.56567e-08
-1.11242e-09
3.57349e-08
-1.1753e-09
3.58364e-08
-1.24173e-09
3.59617e-08
-1.31074e-09
3.61114e-08
-1.37932e-09
3.62874e-08
-1.44229e-09
3.64925e-08
-1.49155e-09
3.6732e-08
-1.51865e-09
3.7013e-08
-1.51569e-09
3.73438e-08
-1.49202e-09
3.77298e-08
-1.4795e-09
3.81055e-08
-1.37741e-09
3.84308e-08
-1.36341e-09
3.86938e-08
-1.46003e-09
3.88882e-08
-1.60991e-09
3.90125e-08
-1.7687e-09
3.90683e-08
-1.90416e-09
3.90596e-08
-1.99339e-09
3.89923e-08
-2.02136e-09
3.88749e-08
-1.97952e-09
3.87177e-08
-1.86484e-09
3.85335e-08
-1.67935e-09
3.83368e-08
-1.42971e-09
3.81431e-08
-1.12678e-09
3.79688e-08
-7.84895e-10
3.78297e-08
-4.21043e-10
3.77402e-08
-5.37634e-11
3.77113e-08
2.98096e-10
3.77492e-08
6.16737e-10
3.78536e-08
8.87072e-10
3.8017e-08
1.09823e-09
3.82244e-08
1.24482e-09
3.84554e-08
1.32769e-09
1.35347e-09
3.86866e-08
4.7009e-08
-3.44394e-10
4.6968e-08
-4.05349e-10
4.69182e-08
-4.71981e-10
4.68616e-08
-5.42378e-10
4.68012e-08
-6.14478e-10
4.67404e-08
-6.86534e-10
4.6683e-08
-7.57482e-10
4.66322e-08
-8.27105e-10
4.65909e-08
-8.96012e-10
4.65613e-08
-9.65414e-10
4.65454e-08
-1.03681e-09
4.65447e-08
-1.11166e-09
4.65604e-08
-1.19107e-09
4.6594e-08
-1.27532e-09
4.66469e-08
-1.36364e-09
4.6721e-08
-1.45338e-09
4.68189e-08
-1.54024e-09
4.69447e-08
-1.61728e-09
4.71039e-08
-1.67789e-09
4.73041e-08
-1.71588e-09
4.75534e-08
-1.74133e-09
4.78566e-08
-1.78273e-09
4.81592e-08
-1.67993e-09
4.84229e-08
-1.62712e-09
4.86335e-08
-1.67064e-09
4.87829e-08
-1.7593e-09
4.88685e-08
-1.85438e-09
4.88918e-08
-1.9274e-09
4.88566e-08
-1.95817e-09
4.87693e-08
-1.93413e-09
4.8639e-08
-1.8492e-09
4.84768e-08
-1.70264e-09
4.82959e-08
-1.49839e-09
4.81106e-08
-1.24445e-09
4.7936e-08
-9.52213e-10
4.77868e-08
-6.35632e-10
4.76759e-08
-3.10143e-10
4.76136e-08
8.48658e-12
4.76064e-08
3.05341e-10
4.76555e-08
5.67609e-10
4.7757e-08
7.85609e-10
4.79016e-08
9.53626e-10
4.80761e-08
1.07031e-09
4.82652e-08
1.13861e-09
1.16494e-09
4.84537e-08
6.06578e-08
-3.1299e-10
6.06192e-08
-3.66719e-10
6.05732e-08
-4.26022e-10
6.05208e-08
-4.89927e-10
6.04635e-08
-5.57181e-10
6.04035e-08
-6.2658e-10
6.03433e-08
-6.97269e-10
6.02852e-08
-7.68929e-10
6.0231e-08
-8.41861e-10
6.01825e-08
-9.16894e-10
6.01409e-08
-9.95235e-10
6.01074e-08
-1.07813e-09
6.0083e-08
-1.16669e-09
6.0069e-08
-1.26132e-09
6.0067e-08
-1.36166e-09
6.00792e-08
-1.46559e-09
6.01089e-08
-1.5699e-09
6.01604e-08
-1.6688e-09
6.02401e-08
-1.75756e-09
6.03557e-08
-1.83144e-09
6.05151e-08
-1.90076e-09
6.07228e-08
-1.99046e-09
6.09374e-08
-1.89447e-09
6.11243e-08
-1.81405e-09
6.12678e-08
-1.81417e-09
6.13585e-08
-1.85001e-09
6.13934e-08
-1.88924e-09
6.13736e-08
-1.90764e-09
6.13035e-08
-1.88799e-09
6.11897e-08
-1.82041e-09
6.10419e-08
-1.70133e-09
6.08714e-08
-1.53215e-09
6.06913e-08
-1.31827e-09
6.05152e-08
-1.06836e-09
6.03565e-08
-7.93544e-10
6.02273e-08
-5.06451e-10
6.01373e-08
-2.20152e-10
6.00929e-08
5.28937e-11
6.00966e-08
3.01653e-10
6.01466e-08
5.17587e-10
6.02372e-08
6.94988e-10
6.03595e-08
8.31366e-10
6.05025e-08
9.27357e-10
6.06547e-08
9.86373e-10
1.01378e-09
6.08059e-08
7.72511e-08
-2.84784e-10
7.72173e-08
-3.32909e-10
7.71776e-08
-3.8628e-10
7.71322e-08
-4.44509e-10
7.70819e-08
-5.0695e-10
7.70282e-08
-5.72883e-10
7.69727e-08
-6.41726e-10
7.69169e-08
-7.13185e-10
7.68625e-08
-7.87382e-10
7.68104e-08
-8.64822e-10
7.67616e-08
-9.464e-10
7.67165e-08
-1.03308e-09
7.66757e-08
-1.12589e-09
7.66396e-08
-1.22526e-09
7.66092e-08
-1.33128e-09
7.6586e-08
-1.44236e-09
7.65726e-08
-1.55651e-09
7.6573e-08
-1.66917e-09
7.65929e-08
-1.77749e-09
7.66397e-08
-1.87825e-09
7.67204e-08
-1.98142e-09
7.68386e-08
-2.10868e-09
7.69658e-08
-2.02162e-09
7.7073e-08
-1.92126e-09
7.71444e-08
-1.88566e-09
7.71706e-08
-1.87614e-09
7.71489e-08
-1.86757e-09
7.70813e-08
-1.83999e-09
7.69723e-08
-1.77901e-09
7.68294e-08
-1.67749e-09
7.66622e-08
-1.53421e-09
7.64823e-08
-1.35224e-09
7.63019e-08
-1.1378e-09
7.6133e-08
-8.99472e-10
7.59867e-08
-6.4731e-10
7.58723e-08
-3.91971e-10
7.57959e-08
-1.43806e-10
7.57608e-08
8.79963e-11
7.57667e-08
2.95719e-10
7.58102e-08
4.74085e-10
7.58852e-08
6.2004e-10
7.59837e-08
7.32905e-10
7.60969e-08
8.14118e-10
7.62164e-08
8.66838e-10
8.95304e-10
7.63349e-08
9.72403e-08
-2.63354e-10
9.72147e-08
-3.073e-10
9.71845e-08
-3.56091e-10
9.71497e-08
-4.09689e-10
9.71106e-08
-4.67869e-10
9.7068e-08
-5.30301e-10
9.7023e-08
-5.96693e-10
9.69767e-08
-6.66867e-10
9.69302e-08
-7.40907e-10
9.68845e-08
-8.19104e-10
9.68402e-08
-9.02111e-10
9.67977e-08
-9.90549e-10
9.67571e-08
-1.08534e-09
9.67185e-08
-1.18668e-09
9.66823e-08
-1.29505e-09
9.6649e-08
-1.40902e-09
9.66203e-08
-1.52786e-09
9.65988e-08
-1.6477e-09
9.65891e-08
-1.76772e-09
9.65966e-08
-1.88583e-09
9.66263e-08
-2.01111e-09
9.668e-08
-2.16236e-09
9.67384e-08
-2.08004e-09
9.67791e-08
-1.96191e-09
9.67876e-08
-1.89416e-09
9.67553e-08
-1.84383e-09
9.66823e-08
-1.79456e-09
9.65716e-08
-1.72932e-09
9.64285e-08
-1.63592e-09
9.62609e-08
-1.50994e-09
9.60788e-08
-1.35212e-09
9.58931e-08
-1.16648e-09
9.57146e-08
-9.59336e-10
9.55536e-08
-7.3841e-10
9.54184e-08
-5.12111e-10
9.53152e-08