/*--------------------------------*- C++ -*----------------------------------*\
| =========                 |                                                 |
| \\      /  F ield         | OpenFOAM: The Open Source CFD Toolbox           |
|  \\    /   O peration     | Version:  2312                                  |
|   \\  /    A nd           | Website:  www.openfoam.com                      |
|    \\/     M anipulation  |                                                 |
\*---------------------------------------------------------------------------*/
FoamFile
{
    version     2.0;
    format      ascii;
    arch        "LSB;label=32;scalar=64";
    class       volScalarField;
    location    "25.25";
    object      p;
}
// * * * * * * * * * * * * * * * * * * * * * * * * * * * * * * * * * * * * * //

dimensions      [0 2 -2 0 0 0 0];

internalField   nonuniform List<scalar> 
4800
(
-6.57668e-13
-2.84286e-06
-5.25583e-06
-7.32537e-06
-9.11549e-06
-1.06706e-05
-1.20383e-05
-1.32439e-05
-1.43109e-05
-1.52639e-05
-1.61205e-05
-1.68917e-05
-1.75744e-05
-1.84035e-05
-2.04383e-05
1.87854e-08
-2.81525e-06
-5.22129e-06
-7.28658e-06
-9.07462e-06
-1.06295e-05
-1.19997e-05
-1.32105e-05
-1.42856e-05
-1.52511e-05
-1.61308e-05
-1.69505e-05
-1.77334e-05
-1.85943e-05
-1.98247e-05
3.90064e-08
-2.78572e-06
-5.18505e-06
-7.24563e-06
-9.0313e-06
-1.05847e-05
-1.19554e-05
-1.31694e-05
-1.425e-05
-1.52243e-05
-1.61172e-05
-1.69548e-05
-1.77549e-05
-1.85312e-05
-1.92699e-05
6.03121e-08
-2.7539e-06
-5.14541e-06
-7.2003e-06
-8.98244e-06
-1.05341e-05
-1.19025e-05
-1.31175e-05
-1.41996e-05
-1.51746e-05
-1.60645e-05
-1.68849e-05
-1.76343e-05
-1.82828e-05
-1.87573e-05
8.45575e-08
-2.71717e-06
-5.09909e-06
-7.14675e-06
-8.9234e-06
-1.04729e-05
-1.18358e-05
-1.30475e-05
-1.41258e-05
-1.50918e-05
-1.59619e-05
-1.67402e-05
-1.74113e-05
-1.79363e-05
-1.8256e-05
1.13491e-07
-2.67348e-06
-5.04373e-06
-7.08217e-06
-8.85105e-06
-1.03952e-05
-1.17508e-05
-1.29531e-05
-1.40197e-05
-1.49656e-05
-1.58003e-05
-1.65205e-05
-1.71076e-05
-1.75317e-05
-1.77635e-05
1.49598e-07
-2.62012e-06
-4.97628e-06
-7.00294e-06
-8.76119e-06
-1.02954e-05
-1.16406e-05
-1.28269e-05
-1.38722e-05
-1.47865e-05
-1.55741e-05
-1.62294e-05
-1.67389e-05
-1.70887e-05
-1.7274e-05
1.96945e-07
-2.55283e-06
-4.89201e-06
-6.9037e-06
-8.6476e-06
-1.01671e-05
-1.14956e-05
-1.26591e-05
-1.36737e-05
-1.4547e-05
-1.52812e-05
-1.58733e-05
-1.63187e-05
-1.66183e-05
-1.67812e-05
2.61576e-07
-2.46532e-06
-4.78414e-06
-6.77695e-06
-8.50191e-06
-1.00011e-05
-1.13059e-05
-1.2439e-05
-1.34152e-05
-1.42418e-05
-1.49223e-05
-1.5459e-05
-1.58563e-05
-1.61248e-05
-1.62801e-05
3.51393e-07
-2.34925e-06
-4.6437e-06
-6.61297e-06
-8.3136e-06
-9.78614e-06
-1.10599e-05
-1.21564e-05
-1.30892e-05
-1.38678e-05
-1.44993e-05
-1.49917e-05
-1.53562e-05
-1.56085e-05
-1.57661e-05
4.75415e-07
-2.19469e-06
-4.45987e-06
-6.40017e-06
-8.07051e-06
-9.51012e-06
-1.07472e-05
-1.18022e-05
-1.26903e-05
-1.34239e-05
-1.40144e-05
-1.44746e-05
-1.48195e-05
-1.5067e-05
-1.52339e-05
6.42894e-07
-1.99093e-06
-4.22079e-06
-6.12593e-06
-7.75987e-06
-9.16087e-06
-1.03569e-05
-1.13693e-05
-1.22149e-05
-1.29099e-05
-1.34692e-05
-1.39087e-05
-1.42453e-05
-1.44966e-05
-1.46782e-05
8.63062e-07
-1.72688e-06
-3.91421e-06
-5.77746e-06
-7.36929e-06
-8.72748e-06
-9.88053e-06
-1.0852e-05
-1.1661e-05
-1.23259e-05
-1.28641e-05
-1.32934e-05
-1.36309e-05
-1.3893e-05
-1.40936e-05
1.14533e-06
-1.39104e-06
-3.52751e-06
-5.34207e-06
-6.88704e-06
-8.20041e-06
-9.31186e-06
-1.02466e-05
-1.10262e-05
-1.16703e-05
-1.21976e-05
-1.26262e-05
-1.29724e-05
-1.32512e-05
-1.34748e-05
1.49903e-06
-9.7172e-07
-3.04815e-06
-4.80748e-06
-6.30228e-06
-7.5711e-06
-8.6447e-06
-9.54921e-06
-1.03076e-05
-1.09403e-05
-1.14661e-05
-1.19024e-05
-1.22641e-05
-1.25649e-05
-1.28153e-05
1.93226e-06
-4.58328e-07
-2.46483e-06
-4.16302e-06
-5.60576e-06
-6.83204e-06
-7.87303e-06
-8.75509e-06
-9.50117e-06
-1.01315e-05
-1.06642e-05
-1.11155e-05
-1.1499e-05
-1.18268e-05
-1.21083e-05
2.44947e-06
1.56135e-07
-1.77e-06
-3.40179e-06
-4.79173e-06
-5.9785e-06
-6.99289e-06
-7.86054e-06
-8.60296e-06
-9.23907e-06
-9.78646e-06
-1.02599e-05
-1.06713e-05
-1.10315e-05
-1.13487e-05
3.0485e-06
8.71543e-07
-9.63341e-07
-2.52398e-06
-3.86088e-06
-5.01119e-06
-6.00441e-06
-6.86477e-06
-7.61258e-06
-8.26138e-06
-8.83079e-06
-9.3329e-06
-9.7783e-06
-1.01765e-05
-1.05352e-05
3.71806e-06
1.67708e-06
-5.56802e-08
-1.54063e-06
-2.82424e-06
-3.94038e-06
-4.91552e-06
-5.7715e-06
-6.5267e-06
-7.19925e-06
-7.79783e-06
-8.33452e-06
-8.81975e-06
-9.26196e-06
-9.66788e-06
4.43523e-06
2.54773e-06
9.26817e-07
-4.78459e-07
-1.70867e-06
-2.79331e-06
-3.75528e-06
-4.61354e-06
-5.38354e-06
-6.07797e-06
-6.70746e-06
-7.28261e-06
-7.8121e-06
-8.30279e-06
-8.76051e-06
5.12802e-06
3.39726e-06
1.88875e-06
5.61611e-07
-6.17771e-07
-1.67366e-06
-2.62515e-06
-3.48842e-06
-4.27656e-06
-4.99997e-06
-5.66396e-06
-6.2816e-06
-6.85909e-06
-7.40185e-06
-7.91507e-06
5.6999e-06
4.10687e-06
2.69667e-06
1.43717e-06
3.015e-07
-7.29638e-07
-1.6716e-06
-2.53757e-06
-3.33874e-06
-4.0848e-06
-4.78755e-06
-5.44691e-06
-6.06925e-06
-6.66031e-06
-7.22468e-06
6.13109e-06
4.64906e-06
3.31774e-06
2.11191e-06
1.01034e-06
-2.40151e-09
-9.39067e-07
-1.81091e-06
-2.62745e-06
-3.39644e-06
-4.12412e-06
-4.8154e-06
-5.47482e-06
-6.10654e-06
-6.71427e-06
6.44973e-06
5.05773e-06
3.79062e-06
2.62854e-06
1.55485e-06
5.57118e-07
-3.75316e-07
-1.25188e-06
-2.0804e-06
-2.86722e-06
-3.61771e-06
-4.33644e-06
-5.02727e-06
-5.69357e-06
-6.33841e-06
6.68322e-06
5.36468e-06
4.15042e-06
3.02464e-06
1.97423e-06
9.89014e-07
6.00142e-08
-8.20664e-07
-1.65956e-06
-2.46207e-06
-3.23276e-06
-3.97545e-06
-4.69345e-06
-5.38959e-06
-6.06644e-06
6.85332e-06
5.59517e-06
4.42465e-06
3.32907e-06
2.29799e-06
1.32295e-06
3.96367e-07
-4.88341e-07
-1.33663e-06
-2.15306e-06
-2.94154e-06
-3.70514e-06
-4.44669e-06
-5.16858e-06
-5.87297e-06
6.97672e-06
5.76863e-06
4.63446e-06
3.56402e-06
2.54891e-06
1.58202e-06
6.56981e-07
-2.3168e-07
-1.08849e-06
-1.91729e-06
-2.72119e-06
-3.50294e-06
-4.26487e-06
-5.00896e-06
-5.73705e-06
7.0661e-06
5.89985e-06
4.79608e-06
3.74667e-06
2.7448e-06
1.78446e-06
8.60332e-07
-3.20758e-08
-8.96531e-07
-1.73618e-06
-2.55357e-06
-3.35111e-06
-4.13075e-06
-4.89408e-06
-5.64263e-06
7.13092e-06
5.99994e-06
4.92184e-06
3.89018e-06
2.89934e-06
1.9443e-06
1.02066e-06
1.24757e-07
-7.46485e-07
-1.59571e-06
-2.42502e-06
-3.23638e-06
-4.03142e-06
-4.81144e-06
-5.57771e-06
7.17817e-06
6.07723e-06
5.02101e-06
4.00444e-06
3.02288e-06
2.07216e-06
1.14871e-06
2.49553e-07
-6.27861e-07
-1.48548e-06
-2.32528e-06
-3.14876e-06
-3.95724e-06
-4.75179e-06
-5.53344e-06
7.21298e-06
6.13785e-06
5.10044e-06
4.09679e-06
3.12309e-06
2.17593e-06
1.25248e-06
3.50339e-07
-5.32512e-07
-1.39768e-06
-2.24674e-06
-3.08088e-06
-3.90114e-06
-4.70838e-06
-5.50344e-06
7.23907e-06
6.18628e-06
5.16515e-06
4.17263e-06
3.20563e-06
2.26144e-06
1.33784e-06
4.32951e-07
-4.54751e-07
-1.32664e-06
-2.18388e-06
-3.0274e-06
-3.85801e-06
-4.67637e-06
-5.48317e-06
7.25906e-06
6.22574e-06
5.21877e-06
4.23588e-06
3.27462e-06
2.33293e-06
1.4091e-06
5.01725e-07
-3.90364e-07
-1.26823e-06
-2.13272e-06
-2.98452e-06
-3.82425e-06
-4.6524e-06
-5.4695e-06
7.27481e-06
6.2585e-06
5.2639e-06
4.28938e-06
3.33308e-06
2.3935e-06
1.46938e-06
5.59739e-07
-3.36299e-07
-1.21949e-06
-2.0904e-06
-2.94953e-06
-3.79733e-06
-4.63411e-06
-5.46029e-06
7.28755e-06
6.28618e-06
5.30241e-06
4.33518e-06
3.38319e-06
2.44539e-06
1.52094e-06
6.09233e-07
-2.90347e-07
-1.17828e-06
-2.05491e-06
-2.92056e-06
-3.77549e-06
-4.61991e-06
-5.45411e-06
7.2981e-06
6.30987e-06
5.3356e-06
4.37474e-06
3.42649e-06
2.49022e-06
1.56542e-06
6.51812e-07
-2.50944e-07
-1.14311e-06
-2.02483e-06
-2.89626e-06
-3.75753e-06
-4.60871e-06
-5.45e-06
7.307e-06
6.3303e-06
5.36432e-06
4.40902e-06
3.46404e-06
2.52907e-06
1.60388e-06
6.88561e-07
-2.17038e-07
-1.11297e-06
-1.99921e-06
-2.87576e-06
-3.74262e-06
-4.59978e-06
-5.44732e-06
7.31466e-06
6.34811e-06
5.38941e-06
4.43896e-06
3.49678e-06
2.56281e-06
1.63737e-06
7.20523e-07
-1.87621e-07
-1.08691e-06
-1.97717e-06
-2.85827e-06
-3.73009e-06
-4.59254e-06
-5.44564e-06
7.32168e-06
6.36458e-06
5.41264e-06
4.46668e-06
3.52701e-06
2.59414e-06
1.66834e-06
7.50001e-07
-1.60555e-07
-1.06301e-06
-1.95706e-06
-2.84245e-06
-3.71891e-06
-4.58631e-06
-5.44466e-06
7.32835e-06
6.38042e-06
5.43502e-06
4.49343e-06
3.55631e-06
2.62437e-06
1.69818e-06
7.78367e-07
-1.3456e-07
-1.04013e-06
-1.93789e-06
-2.82746e-06
-3.70859e-06
-4.58091e-06
-5.44415e-06
-2.25293e-05
-2.03766e-05
-1.90187e-05
-1.81383e-05
-1.74443e-05
-1.69349e-05
-1.65677e-05
-1.63132e-05
-1.61523e-05
-1.60704e-05
-1.60565e-05
-1.61026e-05
-1.62028e-05
-1.63538e-05
-1.65551e-05
-1.68111e-05
-1.71321e-05
-1.75393e-05
-1.80665e-05
-1.87662e-05
-1.97035e-05
-2.09432e-05
-2.23863e-05
-2.37478e-05
-2.4853e-05
-2.56312e-05
-2.60508e-05
-2.6106e-05
-2.58023e-05
-2.51519e-05
-2.41725e-05
-2.28885e-05
-2.13334e-05
-1.95496e-05
-1.75882e-05
-1.55074e-05
-1.3372e-05
-1.12526e-05
-9.2296e-06
-7.40033e-06
-5.89916e-06
-4.91085e-06
-4.83786e-06
-6.07042e-06
-9.97872e-06
-2.06349e-05
-1.96463e-05
-1.86784e-05
-1.7925e-05
-1.72937e-05
-1.68117e-05
-1.64592e-05
-1.62148e-05
-1.60621e-05
-1.59878e-05
-1.59814e-05
-1.60349e-05
-1.61424e-05
-1.63008e-05
-1.65095e-05
-1.67731e-05
-1.71019e-05
-1.75169e-05
-1.80514e-05
-1.8757e-05
-1.9697e-05
-2.09346e-05
-2.23708e-05
-2.37237e-05
-2.48217e-05
-2.55954e-05
-2.60135e-05
-2.607e-05
-2.5771e-05
-2.51292e-05
-2.41634e-05
-2.28999e-05
-2.13742e-05
-1.96314e-05
-1.77259e-05
-1.57207e-05
-1.36869e-05
-1.17055e-05
-9.87327e-06
-8.31557e-06
-7.21969e-06
-6.88022e-06
-7.86691e-06
-1.10045e-05
-1.73203e-05
-1.96095e-05
-1.90577e-05
-1.83358e-05
-1.76871e-05
-1.71227e-05
-1.6675e-05
-1.63413e-05
-1.61091e-05
-1.59659e-05
-1.59e-05
-1.59016e-05
-1.5963e-05
-1.60784e-05
-1.62446e-05
-1.64615e-05
-1.67333e-05
-1.70706e-05
-1.74941e-05
-1.80366e-05
-1.87485e-05
-1.96913e-05
-2.0926e-05
-2.23536e-05
-2.36959e-05
-2.4785e-05
-2.5553e-05
-2.59692e-05
-2.60277e-05
-2.57348e-05
-2.51043e-05
-2.41567e-05
-2.29203e-05
-2.14333e-05
-1.97442e-05
-1.79117e-05
-1.60044e-05
-1.41013e-05
-1.2295e-05
-1.06987e-05
-9.46233e-06
-8.80359e-06
-9.04848e-06
-1.07037e-05
-1.43274e-05
-2.00003e-05
-1.89016e-05
-1.85536e-05
-1.80094e-05
-1.74515e-05
-1.69494e-05
-1.65368e-05
-1.62225e-05
-1.60024e-05
-1.58681e-05
-1.58099e-05
-1.58189e-05
-1.58878e-05
-1.60109e-05
-1.61851e-05
-1.64103e-05
-1.66908e-05
-1.70372e-05
-1.747e-05
-1.80212e-05
-1.87401e-05
-1.96861e-05
-2.09175e-05
-2.23354e-05
-2.36657e-05
-2.47442e-05
-2.55051e-05
-2.59181e-05
-2.59777e-05
-2.5691e-05
-2.50732e-05
-2.41467e-05
-2.29428e-05
-2.1503e-05
-1.98799e-05
-1.81373e-05
-1.63502e-05
-1.46062e-05
-1.30083e-05
-1.16824e-05
-1.07908e-05
-1.05486e-05
-1.12382e-05
-1.31997e-05
-1.66844e-05
-2.14217e-05
-1.83204e-05
-1.80875e-05
-1.76803e-05
-1.72242e-05
-1.67811e-05
-1.64032e-05
-1.61081e-05
-1.58993e-05
-1.57727e-05
-1.57209e-05
-1.57362e-05
-1.58115e-05
-1.59418e-05
-1.61238e-05
-1.63574e-05
-1.66471e-05
-1.70031e-05
-1.74459e-05
-1.80067e-05
-1.8733e-05
-1.96822e-05
-2.09097e-05
-2.23163e-05
-2.36325e-05
-2.46987e-05
-2.54512e-05
-2.58605e-05
-2.59217e-05
-2.5643e-05
-2.50413e-05
-2.41414e-05
-2.29779e-05
-2.15963e-05
-2.00539e-05
-1.84197e-05
-1.67751e-05
-1.52147e-05
-1.38489e-05
-1.28088e-05
-1.22505e-05
-1.23607e-05
-1.33414e-05
-1.53676e-05
-1.84766e-05
-2.23709e-05
-1.78048e-05
-1.7652e-05
-1.73506e-05
-1.69861e-05
-1.66129e-05
-1.62729e-05
-1.59997e-05
-1.58028e-05
-1.56832e-05
-1.56365e-05
-1.56566e-05
-1.57373e-05
-1.58737e-05
-1.60629e-05
-1.63047e-05
-1.66037e-05
-1.697e-05
-1.74234e-05
-1.79943e-05
-1.87286e-05
-1.96807e-05
-2.0903e-05
-2.22961e-05
-2.35959e-05
-2.46479e-05
-2.53907e-05
-2.57961e-05
-2.58601e-05
-2.55922e-05
-2.50113e-05
-2.41453e-05
-2.30324e-05
-2.17224e-05
-2.02772e-05
-1.87708e-05
-1.72897e-05
-1.59328e-05
-1.48124e-05
-1.40546e-05
-1.37964e-05
-1.41781e-05
-1.53183e-05
-1.72714e-05
-1.99616e-05
-2.31172e-05
-1.73171e-05
-1.7226e-05
-1.70168e-05
-1.67354e-05
-1.64278e-05
-1.61383e-05
-1.58931e-05
-1.57118e-05
-1.56007e-05
-1.5559e-05
-1.55829e-05
-1.56677e-05
-1.58093e-05
-1.60049e-05
-1.62546e-05
-1.65629e-05
-1.69396e-05
-1.74041e-05
-1.79858e-05
-1.87281e-05
-1.96828e-05
-2.08983e-05
-2.22751e-05
-2.35558e-05
-2.45913e-05
-2.53231e-05
-2.57246e-05
-2.57929e-05
-2.55394e-05
-2.49854e-05
-2.41622e-05
-2.31118e-05
-2.18882e-05
-2.05576e-05
-1.9198e-05
-1.78987e-05
-1.67589e-05
-1.58863e-05
-1.53928e-05
-1.53868e-05
-1.59595e-05
-1.71615e-05
-1.89747e-05
-2.1285e-05
-2.38731e-05
-1.68359e-05
-1.67946e-05
-1.66621e-05
-1.64608e-05
-1.6224e-05
-1.5988e-05
-1.578e-05
-1.56213e-05
-1.55228e-05
-1.54881e-05
-1.55163e-05
-1.56049e-05
-1.57509e-05
-1.59523e-05
-1.62095e-05
-1.65269e-05
-1.69144e-05
-1.73903e-05
-1.79829e-05
-1.87333e-05
-1.96897e-05
-2.08964e-05
-2.22538e-05
-2.35121e-05
-2.45286e-05
-2.52482e-05
-2.56461e-05
-2.57209e-05
-2.54865e-05
-2.49669e-05
-2.4197e-05
-2.32225e-05
-2.21014e-05
-2.0903e-05
-1.97075e-05
-1.86038e-05
-1.76867e-05
-1.7053e-05
-1.67943e-05
-1.69876e-05
-1.76812e-05
-1.88795e-05
-2.05298e-05
-2.25176e-05
-2.4677e-05
-1.6351e-05
-1.63515e-05
-1.6283e-05
-1.61552e-05
-1.59895e-05
-1.58126e-05
-1.56498e-05
-1.5522e-05
-1.54428e-05
-1.54196e-05
-1.54549e-05
-1.55487e-05
-1.56996e-05
-1.59069e-05
-1.61716e-05
-1.64982e-05
-1.68966e-05
-1.73843e-05
-1.7988e-05
-1.87461e-05
-1.9703e-05
-2.08983e-05
-2.22327e-05
-2.34649e-05
-2.44599e-05
-2.51663e-05
-2.55613e-05
-2.5646e-05
-2.54367e-05
-2.49608e-05
-2.42564e-05
-2.33727e-05
-2.23707e-05
-2.13212e-05
-2.03039e-05
-1.94035e-05
-1.87061e-05
-1.8293e-05
-1.82333e-05
-1.85748e-05
-1.93343e-05
-2.04898e-05
-2.1978e-05
-2.36994e-05
-2.55315e-05
-1.58559e-05
-1.58931e-05
-1.58789e-05
-1.58166e-05
-1.57185e-05
-1.56034e-05
-1.54921e-05
-1.54032e-05
-1.53514e-05
-1.53465e-05
-1.5394e-05
-1.54963e-05
-1.56543e-05
-1.58689e-05
-1.61419e-05
-1.64785e-05
-1.68883e-05
-1.73882e-05
-1.80032e-05
-1.87684e-05
-1.97244e-05
-2.09053e-05
-2.22122e-05
-2.34146e-05
-2.43857e-05
-2.50783e-05
-2.54723e-05
-2.55712e-05
-2.53948e-05
-2.49737e-05
-2.43486e-05
-2.35716e-05
-2.27049e-05
-2.18188e-05
-2.09891e-05
-2.02932e-05
-1.98047e-05
-1.95877e-05
-1.96897e-05
-2.01354e-05
-2.09213e-05
-2.20139e-05
-2.33523e-05
-2.48558e-05
-2.64351e-05
-1.53449e-05
-1.54161e-05
-1.54492e-05
-1.54448e-05
-1.54095e-05
-1.53557e-05
-1.52992e-05
-1.52556e-05
-1.5239e-05
-1.52601e-05
-1.53264e-05
-1.54426e-05
-1.56118e-05
-1.58366e-05
-1.61201e-05
-1.64683e-05
-1.68908e-05
-1.74037e-05
-1.80301e-05
-1.88019e-05
-1.97551e-05
-2.09183e-05
-2.21933e-05
-2.33621e-05
-2.43072e-05
-2.49866e-05
-2.53824e-05
-2.55016e-05
-2.53678e-05
-2.50141e-05
-2.44834e-05
-2.38289e-05
-2.3112e-05
-2.24001e-05
-2.17622e-05
-2.12653e-05
-2.09691e-05
-2.09206e-05
-2.11496e-05
-2.16644e-05
-2.24508e-05
-2.34732e-05
-2.46787e-05
-2.60046e-05
-2.73855e-05
-1.48126e-05
-1.49164e-05
-1.49923e-05
-1.50398e-05
-1.50621e-05
-1.50674e-05
-1.50668e-05
-1.50729e-05
-1.50978e-05
-1.51522e-05
-1.52445e-05
-1.53812e-05
-1.55672e-05
-1.58067e-05
-1.61043e-05
-1.64668e-05
-1.6904e-05
-1.74311e-05
-1.80696e-05
-1.88474e-05
-1.9796e-05
-2.09382e-05
-2.2177e-05
-2.33089e-05
-2.4227e-05
-2.48953e-05
-2.52976e-05
-2.54447e-05
-2.53647e-05
-2.50924e-05
-2.46713e-05
-2.41538e-05
-2.35985e-05
-2.30667e-05
-2.26188e-05
-2.23098e-05
-2.21854e-05
-2.22781e-05
-2.2604e-05
-2.31621e-05
-2.39339e-05
-2.48866e-05
-2.59772e-05
-2.71579e-05
-2.8381e-05
-1.42536e-05
-1.43898e-05
-1.45058e-05
-1.46008e-05
-1.46765e-05
-1.47379e-05
-1.47928e-05
-1.48509e-05
-1.49221e-05
-1.50162e-05
-1.51417e-05
-1.5306e-05
-1.55152e-05
-1.57751e-05
-1.60915e-05
-1.6472e-05
-1.69268e-05
-1.74701e-05
-1.81213e-05
-1.89048e-05
-1.98472e-05
-2.09656e-05
-2.21651e-05
-2.3258e-05
-2.41497e-05
-2.48116e-05
-2.52264e-05
-2.54104e-05
-2.53968e-05
-2.52203e-05
-2.49229e-05
-2.45541e-05
-2.41674e-05
-2.38162e-05
-2.35508e-05
-2.34142e-05
-2.34398e-05
-2.36484e-05
-2.40474e-05
-2.46309e-05
-2.53807e-05
-2.62689e-05
-2.72619e-05
-2.83239e-05
-2.94201e-05
-1.36626e-05
-1.38319e-05
-1.39867e-05
-1.41266e-05
-1.42523e-05
-1.43672e-05
-1.44767e-05
-1.45879e-05
-1.47088e-05
-1.48478e-05
-1.50129e-05
-1.52117e-05
-1.5451e-05
-1.57375e-05
-1.60783e-05
-1.64815e-05
-1.69573e-05
-1.75191e-05
-1.81844e-05
-1.89736e-05
-1.99086e-05
-2.10012e-05
-2.216e-05
-2.32144e-05
-2.40849e-05
-2.47448e-05
-2.51783e-05
-2.54098e-05
-2.54759e-05
-2.54088e-05
-2.52465e-05
-2.50338e-05
-2.48171e-05
-2.46413e-05
-2.45461e-05
-2.45637e-05
-2.47174e-05
-2.50202e-05
-2.54744e-05
-2.60722e-05
-2.67978e-05
-2.76291e-05
-2.85406e-05
-2.95059e-05
-3.04997e-05
-1.30339e-05
-1.32378e-05
-1.34315e-05
-1.3615e-05
-1.3789e-05
-1.39555e-05
-1.41186e-05
-1.42835e-05
-1.44565e-05
-1.46445e-05
-1.48548e-05
-1.50945e-05
-1.53706e-05
-1.56905e-05
-1.60616e-05
-1.64925e-05
-1.69933e-05
-1.75766e-05
-1.82574e-05
-1.9053e-05
-1.99802e-05
-2.10471e-05
-2.21642e-05
-2.31862e-05
-2.40445e-05
-2.47058e-05
-2.51656e-05
-2.54575e-05
-2.56146e-05
-2.56668e-05
-2.56464e-05
-2.55913e-05
-2.55403e-05
-2.55292e-05
-2.55883e-05
-2.57413e-05
-2.60027e-05
-2.63816e-05
-2.68777e-05
-2.74837e-05
-2.81867e-05
-2.897e-05
-2.98149e-05
-3.07023e-05
-3.16136e-05
-1.23611e-05
-1.26021e-05
-1.28362e-05
-1.30639e-05
-1.32856e-05
-1.35032e-05
-1.37195e-05
-1.39387e-05
-1.41656e-05
-1.4406e-05
-1.46661e-05
-1.49524e-05
-1.52718e-05
-1.56314e-05
-1.60389e-05
-1.65029e-05
-1.7033e-05
-1.76408e-05
-1.83392e-05
-1.91425e-05
-2.0063e-05
-2.11074e-05
-2.21885e-05
-2.31827e-05
-2.40322e-05
-2.47034e-05
-2.52055e-05
-2.55696e-05
-2.58262e-05
-2.60014e-05
-2.61226e-05
-2.62201e-05
-2.63243e-05
-2.64626e-05
-2.66576e-05
-2.69257e-05
-2.72786e-05
-2.77198e-05
-2.82489e-05
-2.88603e-05
-2.95444e-05
-3.0289e-05
-3.10809e-05
-3.19064e-05
-3.27523e-05
-1.164e-05
-1.19216e-05
-1.21988e-05
-1.24722e-05
-1.27427e-05
-1.30118e-05
-1.32819e-05
-1.35563e-05
-1.3839e-05
-1.41346e-05
-1.44484e-05
-1.47862e-05
-1.51543e-05
-1.55594e-05
-1.6009e-05
-1.65111e-05
-1.70748e-05
-1.77105e-05
-1.8429e-05
-1.9242e-05
-2.01591e-05
-2.11855e-05
-2.22415e-05
-2.32109e-05
-2.40518e-05
-2.47487e-05
-2.53089e-05
-2.57554e-05
-2.61154e-05
-2.64123e-05
-2.66686e-05
-2.69076e-05
-2.71522e-05
-2.74227e-05
-2.77352e-05
-2.81011e-05
-2.85291e-05
-2.9022e-05
-2.95786e-05
-3.0195e-05
-3.08649e-05
-3.15801e-05
-3.23312e-05
-3.3109e-05
-3.3904e-05
-1.08701e-05
-1.1197e-05
-1.15209e-05
-1.1843e-05
-1.21645e-05
-1.24869e-05
-1.28123e-05
-1.31434e-05
-1.34836e-05
-1.38368e-05
-1.42074e-05
-1.46006e-05
-1.50218e-05
-1.54772e-05
-1.59735e-05
-1.65182e-05
-1.71194e-05
-1.77861e-05
-1.85275e-05
-1.93531e-05
-2.02712e-05
-2.12855e-05
-2.23236e-05
-2.32801e-05
-2.41244e-05
-2.48557e-05
-2.54806e-05
-2.60148e-05
-2.64785e-05
-2.68911e-05
-2.72709e-05
-2.76358e-05
-2.80027e-05
-2.83867e-05
-2.87998e-05
-2.92464e-05
-2.97369e-05
-3.02729e-05
-3.08536e-05
-3.14767e-05
-3.21381e-05
-3.28326e-05
-3.35542e-05
-3.42966e-05
-3.50534e-05
-1.00524e-05
-1.04302e-05
-1.08062e-05
-1.11815e-05
-1.15577e-05
-1.19364e-05
-1.23196e-05
-1.27099e-05
-1.31099e-05
-1.35231e-05
-1.39532e-05
-1.44046e-05
-1.48821e-05
-1.53912e-05
-1.59378e-05
-1.65284e-05
-1.717e-05
-1.78703e-05
-1.86372e-05
-1.94787e-05
-2.04018e-05
-2.14106e-05
-2.24396e-05
-2.3396e-05
-2.42581e-05
-2.50313e-05
-2.57225e-05
-2.63417e-05
-2.69025e-05
-2.74199e-05
-2.79085e-05
-2.83815e-05
-2.88511e-05
-2.93278e-05
-2.98202e-05
-3.0339e-05
-3.08833e-05
-3.14563e-05
-3.20592e-05
-3.26907e-05
-3.33489e-05
-3.40306e-05
-3.47323e-05
-3.545e-05
-3.61796e-05
-9.19932e-06
-9.63307e-06
-1.00659e-05
-1.0499e-05
-1.0934e-05
-1.13727e-05
-1.1817e-05
-1.22691e-05
-1.27315e-05
-1.3207e-05
-1.3699e-05
-1.42109e-05
-1.47472e-05
-1.53122e-05
-1.59111e-05
-1.65495e-05
-1.72333e-05
-1.7969e-05
-1.87633e-05
-1.96231e-05
-2.05549e-05
-2.15639e-05
-2.25927e-05
-2.35603e-05
-2.44496e-05
-2.52673e-05
-2.60198e-05
-2.67144e-05
-2.73605e-05
-2.79689e-05
-2.85503e-05
-2.9115e-05
-2.96718e-05
-3.02284e-05
-3.07908e-05
-3.13639e-05
-3.19516e-05
-3.25568e-05
-3.31805e-05
-3.38226e-05
-3.44822e-05
-3.51582e-05
-3.58485e-05
-3.65511e-05
-3.72631e-05
-8.41139e-06
-8.90335e-06
-9.3947e-06
-9.88674e-06
-1.03811e-05
-1.08795e-05
-1.13837e-05
-1.18959e-05
-1.2418e-05
-1.29527e-05
-1.35026e-05
-1.40711e-05
-1.46615e-05
-1.52778e-05
-1.59243e-05
-1.66056e-05
-1.73269e-05
-1.80937e-05
-1.89118e-05
-1.97875e-05
-2.07272e-05
-2.17377e-05
-2.27691e-05
-2.37494e-05
-2.46629e-05
-2.55162e-05
-2.6315e-05
-2.70658e-05
-2.77754e-05
-2.84519e-05
-2.91032e-05
-2.97366e-05
-3.03586e-05
-3.09748e-05
-3.15902e-05
-3.22091e-05
-3.28347e-05
-3.3469e-05
-3.41134e-05
-3.47688e-05
-3.54354e-05
-3.61129e-05
-3.68005e-05
-3.7497e-05
-3.8201e-05
-7.77361e-06
-8.31863e-06
-8.86323e-06
-9.40858e-06
-9.95616e-06
-1.05076e-05
-1.10644e-05
-1.16286e-05
-1.22019e-05
-1.27866e-05
-1.33851e-05
-1.4e-05
-1.46346e-05
-1.52921e-05
-1.59761e-05
-1.66908e-05
-1.74406e-05
-1.82302e-05
-1.9065e-05
-1.99508e-05
-2.08941e-05
-2.19023e-05
-2.29312e-05
-2.39155e-05
-2.48413e-05
-2.57145e-05
-2.65409e-05
-2.73261e-05
-2.80759e-05
-2.87964e-05
-2.94936e-05
-3.01731e-05
-3.084e-05
-3.14989e-05
-3.21539e-05
-3.28082e-05
-3.34641e-05
-3.41236e-05
-3.47885e-05
-3.54597e-05
-3.6138e-05
-3.68233e-05
-3.75157e-05
-3.82147e-05
-3.89196e-05
-7.30787e-06
-7.89773e-06
-8.48709e-06
-9.07702e-06
-9.66882e-06
-1.02639e-05
-1.08637e-05
-1.14699e-05
-1.2084e-05
-1.27081e-05
-1.33443e-05
-1.39949e-05
-1.46626e-05
-1.53503e-05
-1.60613e-05
-1.67991e-05
-1.75676e-05
-1.83711e-05
-1.92145e-05
-2.01033e-05
-2.10437e-05
-2.20428e-05
-2.3061e-05
-2.40395e-05
-2.49659e-05
-2.58461e-05
-2.66854e-05
-2.74889e-05
-2.82616e-05
-2.90085e-05
-2.97344e-05
-3.04436e-05
-3.11404e-05
-3.18282e-05
-3.25104e-05
-3.31896e-05
-3.3868e-05
-3.45475e-05
-3.52296e-05
-3.59154e-05
-3.66058e-05
-3.7301e-05
-3.80015e-05
-3.87069e-05
-3.94173e-05
-6.97034e-06
-7.59858e-06
-8.22602e-06
-8.85361e-06
-9.48248e-06
-1.01139e-05
-1.0749e-05
-1.13893e-05
-1.20362e-05
-1.26915e-05
-1.3357e-05
-1.40349e-05
-1.47274e-05
-1.54371e-05
-1.61669e-05
-1.69199e-05
-1.76996e-05
-1.851e-05
-1.93556e-05
-2.02412e-05
-2.11726e-05
-2.21565e-05
-2.31572e-05
-2.41224e-05
-2.50415e-05
-2.59199e-05
-2.67626e-05
-2.75741e-05
-2.83589e-05
-2.91211e-05
-2.98646e-05
-3.05931e-05
-3.13099e-05
-3.20179e-05
-3.27199e-05
-3.34182e-05
-3.41146e-05
-3.48109e-05
-3.55084e-05
-3.62083e-05
-3.69113e-05
-3.76181e-05
-3.8329e-05
-3.90441e-05
-3.97634e-05
-6.73138e-06
-7.39248e-06
-8.05229e-06
-8.71162e-06
-9.37149e-06
-1.00329e-05
-1.06971e-05
-1.1365e-05
-1.20382e-05
-1.27181e-05
-1.34064e-05
-1.41048e-05
-1.48156e-05
-1.55409e-05
-1.62833e-05
-1.70455e-05
-1.78309e-05
-1.86428e-05
-1.94854e-05
-2.03631e-05
-2.12811e-05
-2.22453e-05
-2.3224e-05
-2.41713e-05
-2.5078e-05
-2.59491e-05
-2.67892e-05
-2.76023e-05
-2.83922e-05
-2.91625e-05
-2.99166e-05
-3.06575e-05
-3.13879e-05
-3.21104e-05
-3.28272e-05
-3.35404e-05
-3.42516e-05
-3.49623e-05
-3.56737e-05
-3.63869e-05
-3.71028e-05
-3.78218e-05
-3.85444e-05
-3.92707e-05
-4.0001e-05
-6.56622e-06
-7.25533e-06
-7.94254e-06
-8.62858e-06
-9.31431e-06
-1.00006e-05
-1.06885e-05
-1.13789e-05
-1.20731e-05
-1.27723e-05
-1.34781e-05
-1.41921e-05
-1.49161e-05
-1.56522e-05
-1.64025e-05
-1.71697e-05
-1.79566e-05
-1.87663e-05
-1.96025e-05
-2.04691e-05
-2.13708e-05
-2.23128e-05
-2.32674e-05
-2.41943e-05
-2.50858e-05
-2.59464e-05
-2.67802e-05
-2.75906e-05
-2.83812e-05
-2.91551e-05
-2.99151e-05
-3.06638e-05
-3.14035e-05
-3.21365e-05
-3.28646e-05
-3.35897e-05
-3.43132e-05
-3.50364e-05
-3.57603e-05
-3.6486e-05
-3.72142e-05
-3.79454e-05
-3.86802e-05
-3.94186e-05
-4.01609e-05
-6.45459e-06
-7.16761e-06
-7.87807e-06
-8.58661e-06
-9.29396e-06
-1.00009e-05
-1.07082e-05
-1.14168e-05
-1.21278e-05
-1.28423e-05
-1.35617e-05
-1.42873e-05
-1.50209e-05
-1.57641e-05
-1.65192e-05
-1.72883e-05
-1.80739e-05
-1.88788e-05
-1.97064e-05
-2.05602e-05
-2.14443e-05
-2.23633e-05
-2.3293e-05
-2.41986e-05
-2.50737e-05
-2.59221e-05
-2.67474e-05
-2.75528e-05
-2.83414e-05
-2.91158e-05
-2.98786e-05
-3.06321e-05
-3.13782e-05
-3.21189e-05
-3.28558e-05
-3.35905e-05
-3.43243e-05
-3.50583e-05
-3.57934e-05
-3.65306e-05
-3.72706e-05
-3.80138e-05
-3.87606e-05
-3.95113e-05
-4.02662e-05
-6.38106e-06
-7.11456e-06
-7.8448e-06
-8.57236e-06
-9.29785e-06
-1.00219e-05
-1.07453e-05
-1.14688e-05
-1.21933e-05
-1.29198e-05
-1.36497e-05
-1.4384e-05
-1.51244e-05
-1.58724e-05
-1.66298e-05
-1.73987e-05
-1.81813e-05
-1.89801e-05
-1.9798e-05
-2.06383e-05
-2.15045e-05
-2.24006e-05
-2.33058e-05
-2.41904e-05
-2.50488e-05
-2.58843e-05
-2.67001e-05
-2.74991e-05
-2.8284e-05
-2.90572e-05
-2.98209e-05
-3.0577e-05
-3.13275e-05
-3.20738e-05
-3.28178e-05
-3.35604e-05
-3.43029e-05
-3.50463e-05
-3.57915e-05
-3.65392e-05
-3.72901e-05
-3.80447e-05
-3.88033e-05
-3.95662e-05
-4.03335e-05
-6.33418e-06
-7.08526e-06
-7.83241e-06
-8.57611e-06
-9.31689e-06
-1.00553e-05
-1.0792e-05
-1.15276e-05
-1.22631e-05
-1.29992e-05
-1.37372e-05
-1.44782e-05
-1.52233e-05
-1.59742e-05
-1.67325e-05
-1.74998e-05
-1.82784e-05
-1.90703e-05
-1.98783e-05
-2.0705e-05
-2.15538e-05
-2.2428e-05
-2.33099e-05
-2.41743e-05
-2.50163e-05
-2.58389e-05
-2.66449e-05
-2.74369e-05
-2.82173e-05
-2.89882e-05
-2.97516e-05
-3.05091e-05
-3.12626e-05
-3.20133e-05
-3.27627e-05
-3.35118e-05
-3.42618e-05
-3.50134e-05
-3.57675e-05
-3.65248e-05
-3.72859e-05
-3.80512e-05
-3.8821e-05
-3.95955e-05
-4.03749e-05
-6.30553e-06
-7.07178e-06
-7.83343e-06
-8.5909e-06
-9.34462e-06
-1.00951e-05
-1.08429e-05
-1.15886e-05
-1.23329e-05
-1.30769e-05
-1.38213e-05
-1.45672e-05
-1.53157e-05
-1.60683e-05
-1.68264e-05
-1.75915e-05
-1.83655e-05
-1.91504e-05
-1.99485e-05
-2.07621e-05
-2.15944e-05
-2.24481e-05
-2.33082e-05
-2.41536e-05
-2.49801e-05
-2.57903e-05
-2.65867e-05
-2.73715e-05
-2.81471e-05
-2.89151e-05
-2.96775e-05
-3.04356e-05
-3.11911e-05
-3.19451e-05
-3.2699e-05
-3.34536e-05
-3.42099e-05
-3.49687e-05
-3.57308e-05
-3.64968e-05
-3.72672e-05
-3.80424e-05
-3.88227e-05
-3.96082e-05
-4.03991e-05
-6.28911e-06
-7.06848e-06
-7.84263e-06
-8.61191e-06
-9.37668e-06
-1.01374e-05
-1.08945e-05
-1.16486e-05
-1.24003e-05
-1.31505e-05
-1.39e-05
-1.46497e-05
-1.54007e-05
-1.61542e-05
-1.69115e-05
-1.76739e-05
-1.84433e-05
-1.92212e-05
-2.00099e-05
-2.08113e-05
-2.16282e-05
-2.24629e-05
-2.3303e-05
-2.41308e-05
-2.49429e-05
-2.57414e-05
-2.65286e-05
-2.73066e-05
-2.80773e-05
-2.88423e-05
-2.96032e-05
-3.03613e-05
-3.11181e-05
-3.18747e-05
-3.26322e-05
-3.33915e-05
-3.41533e-05
-3.49185e-05
-3.56877e-05
-3.64615e-05
-3.72403e-05
-3.80246e-05
-3.88145e-05
-3.96103e-05
-4.0412e-05
-6.28069e-06
-7.07149e-06
-7.85647e-06
-8.63593e-06
-9.41018e-06
-1.01796e-05
-1.09446e-05
-1.17058e-05
-1.24637e-05
-1.32191e-05
-1.39727e-05
-1.47254e-05
-1.54781e-05
-1.62319e-05
-1.6988e-05
-1.77477e-05
-1.85125e-05
-1.92839e-05
-2.00637e-05
-2.08538e-05
-2.16566e-05
-2.2474e-05
-2.32958e-05
-2.41076e-05
-2.49064e-05
-2.56941e-05
-2.64728e-05
-2.72443e-05
-2.80103e-05
-2.87722e-05
-2.95315e-05
-3.02894e-05
-3.10471e-05
-3.18057e-05
-3.25662e-05
-3.33294e-05
-3.4096e-05
-3.48668e-05
-3.56423e-05
-3.64231e-05
-3.72096e-05
-3.80021e-05
-3.88008e-05
-3.9606e-05
-4.04176e-05
-6.2774e-06
-7.07818e-06
-7.8726e-06
-8.66089e-06
-9.44334e-06
-1.02203e-05
-1.09921e-05
-1.17593e-05
-1.25224e-05
-1.32821e-05
-1.40391e-05
-1.47941e-05
-1.55481e-05
-1.63019e-05
-1.70567e-05
-1.78137e-05
-1.85741e-05
-1.93394e-05
-2.01111e-05
-2.08908e-05
-2.16808e-05
-2.24826e-05
-2.32879e-05
-2.40851e-05
-2.48718e-05
-2.56497e-05
-2.64206e-05
-2.71861e-05
-2.79476e-05
-2.87065e-05
-2.94641e-05
-3.02216e-05
-3.09799e-05
-3.17401e-05
-3.25032e-05
-3.32697e-05
-3.40405e-05
-3.48161e-05
-3.55972e-05
-3.63842e-05
-3.71776e-05
-3.79775e-05
-3.87843e-05
-3.9598e-05
-4.04187e-05
-6.27732e-06
-7.08686e-06
-7.88953e-06
-8.68554e-06
-9.4751e-06
-1.02585e-05
-1.10362e-05
-1.18086e-05
-1.25761e-05
-1.33395e-05
-1.40993e-05
-1.48562e-05
-1.56111e-05
-1.63647e-05
-1.71182e-05
-1.78726e-05
-1.86289e-05
-1.93886e-05
-2.01529e-05
-2.09233e-05
-2.17016e-05
-2.24893e-05
-2.32798e-05
-2.40639e-05
-2.48397e-05
-2.56087e-05
-2.63725e-05
-2.71324e-05
-2.78898e-05
-2.8646e-05
-2.9402e-05
-3.01588e-05
-3.09175e-05
-3.1679e-05
-3.24443e-05
-3.32138e-05
-3.39881e-05
-3.4768e-05
-3.55541e-05
-3.63466e-05
-3.71461e-05
-3.79527e-05
-3.87666e-05
-3.95881e-05
-4.04169e-05
-6.27919e-06
-7.09645e-06
-7.90637e-06
-8.70913e-06
-9.50493e-06
-1.0294e-05
-1.10768e-05
-1.18536e-05
-1.2625e-05
-1.33915e-05
-1.41536e-05
-1.49121e-05
-1.56676e-05
-1.64211e-05
-1.71732e-05
-1.79251e-05
-1.86777e-05
-1.94322e-05
-2.01899e-05
-2.09518e-05
-2.17198e-05
-2.24948e-05
-2.3272e-05
-2.40444e-05
-2.48104e-05
-2.55714e-05
-2.63287e-05
-2.70836e-05
-2.78373e-05
-2.85908e-05
-2.93453e-05
-3.01015e-05
-3.08603e-05
-3.16231e-05
-3.23902e-05
-3.31621e-05
-3.39396e-05
-3.47233e-05
-3.55136e-05
-3.63111e-05
-3.7116e-05
-3.79286e-05
-3.8749e-05
-3.95773e-05
-4.04136e-05
-6.2822e-06
-7.10626e-06
-7.92257e-06
-8.73126e-06
-9.53251e-06
-1.03266e-05
-1.11138e-05
-1.18945e-05
-1.26692e-05
-1.34383e-05
-1.42025e-05
-1.49623e-05
-1.57183e-05
-1.64714e-05
-1.72223e-05
-1.79719e-05
-1.87212e-05
-1.94711e-05
-2.02227e-05
-2.09771e-05
-2.17357e-05
-2.24995e-05
-2.32648e-05
-2.40266e-05
-2.47839e-05
-2.55377e-05
-2.62892e-05
-2.70396e-05
-2.77898e-05
-2.8541e-05
-2.92941e-05
-3.00495e-05
-3.08085e-05
-3.15724e-05
-3.2341e-05
-3.3115e-05
-3.38952e-05
-3.46822e-05
-3.54764e-05
-3.62782e-05
-3.70879e-05
-3.79058e-05
-3.87319e-05
-3.95664e-05
-4.04093e-05
-6.28579e-06
-7.11584e-06
-7.93775e-06
-8.75165e-06
-9.55769e-06
-1.03561e-05
-1.11472e-05
-1.19313e-05
-1.27088e-05
-1.34803e-05
-1.42461e-05
-1.5007e-05
-1.57634e-05
-1.65162e-05
-1.72659e-05
-1.80135e-05
-1.87597e-05
-1.95055e-05
-2.02517e-05
-2.09994e-05
-2.17497e-05
-2.25035e-05
-2.32582e-05
-2.40107e-05
-2.47602e-05
-2.55075e-05
-2.62539e-05
-2.70002e-05
-2.77474e-05
-2.84964e-05
-2.9248e-05
-3.00029e-05
-3.07623e-05
-3.15268e-05
-3.22967e-05
-3.30725e-05
-3.38552e-05
-3.4645e-05
-3.54426e-05
-3.62482e-05
-3.70621e-05
-3.78847e-05
-3.87159e-05
-3.95559e-05
-4.04046e-05
-6.2897e-06
-7.12504e-06
-7.9519e-06
-8.77038e-06