/*--------------------------------*- C++ -*----------------------------------*\
| =========                 |                                                 |
| \\      /  F ield         | OpenFOAM: The Open Source CFD Toolbox           |
|  \\    /   O peration     | Version:  2312                                  |
|   \\  /    A nd           | Website:  www.openfoam.com                      |
|    \\/     M anipulation  |                                                 |
\*---------------------------------------------------------------------------*/
FoamFile
{
    version     2.0;
    format      ascii;
    arch        "LSB;label=32;scalar=64";
    class       surfaceScalarField;
    location    "114";
    object      phi;
}
// * * * * * * * * * * * * * * * * * * * * * * * * * * * * * * * * * * * * * //

dimensions      [0 3 -1 0 0 0 0];

oriented        oriented;

internalField   nonuniform List<scalar> 
9445
(
5.70487e-10
1.49114e-11
5.61311e-10
9.17506e-12
5.55829e-10
5.48279e-12
5.52832e-10
2.9966e-12
5.51659e-10
1.17273e-12
5.51951e-10
-2.91638e-13
5.53291e-10
-1.34044e-12
5.55663e-10
-2.37167e-12
5.59238e-10
-3.57484e-12
5.6435e-10
-5.11227e-12
5.72035e-10
-7.68451e-12
5.85763e-10
-1.37283e-11
6.17658e-10
-3.18952e-11
7.0983e-10
-9.21724e-11
-2.3669e-10
9.4652e-10
1.9932e-09
6.49968e-11
1.96236e-09
4.00148e-11
1.94388e-09
2.39639e-11
1.93368e-09
1.31981e-11
1.92956e-09
5.29856e-12
1.93006e-09
-7.95801e-13
1.93393e-09
-5.21043e-12
1.94114e-09
-9.57753e-12
1.95206e-09
-1.44963e-11
1.96765e-09
-2.07065e-11
1.99058e-09
-3.06133e-11
2.02745e-09
-5.06004e-11
2.09105e-09
-9.54955e-11
2.19318e-09
-1.94301e-10
-3.43069e-10
2.29956e-09
3.93711e-09
1.60205e-10
3.87843e-09
9.86901e-11
3.84316e-09
5.92372e-11
3.82351e-09
3.28506e-11
3.81523e-09
1.35764e-11
3.81536e-09
-9.21701e-13
3.82162e-09
-1.14694e-11
3.83383e-09
-2.17947e-11
3.85232e-09
-3.29855e-11
3.87813e-09
-4.65186e-11
3.9139e-09
-6.63776e-11
3.96403e-09
-1.00728e-10
4.03109e-09
-1.62559e-10
4.10187e-09
-2.65077e-10
-3.8335e-10
4.14215e-09
6.54682e-09
3.1174e-10
6.45317e-09
1.92336e-10
6.39656e-09
1.15847e-10
6.36461e-09
6.48073e-11
6.35038e-09
2.78043e-11
6.34898e-09
4.71454e-13
6.35697e-09
-1.94498e-11
6.37353e-09
-3.83587e-11
6.39855e-09
-5.80106e-11
6.43233e-09
-8.02977e-11
6.47582e-09
-1.09863e-10
6.52867e-09
-1.53584e-10
6.58472e-09
-2.18605e-10
6.62512e-09
-3.05477e-10
-3.88075e-10
6.62985e-09
9.998e-09
5.31146e-10
9.86169e-09
3.28648e-10
9.7786e-09
1.98937e-10
9.73089e-09
1.12515e-10
9.7082e-09
5.04923e-11
9.70346e-09
5.2093e-12
9.71188e-09
-2.78676e-11
9.7312e-09
-5.76739e-11
9.76042e-09
-8.72376e-11
9.79846e-09
-1.1833e-10
9.8438e-09
-1.5521e-10
9.89211e-09
-2.01885e-10
9.93348e-09
-2.59979e-10
9.95229e-09
-3.24287e-10
-3.76061e-10
9.94028e-09
1.44991e-08
8.28089e-10
1.43131e-08
5.1472e-10
1.41984e-08
3.13642e-10
1.41312e-08
1.79703e-10
1.40971e-08
8.46237e-11
1.40864e-08
1.58144e-11
1.40931e-08
-3.45497e-11
1.41129e-08
-7.74104e-11
1.4143e-08
-1.17349e-10
1.41809e-08
-1.56238e-10
1.42229e-08
-1.97204e-10
1.42626e-08
-2.4164e-10
1.42907e-08
-2.88078e-10
1.42973e-08
-3.30862e-10
-3.59602e-10
1.42808e-08
2.029e-08
1.206e-09
2.00501e-08
7.54578e-10
1.99001e-08
4.63634e-10
1.98103e-08
2.69518e-10
1.97619e-08
1.3303e-10
1.97427e-08
3.49931e-11
1.97448e-08
-3.66073e-11
1.97619e-08
-9.4528e-11
1.97893e-08
-1.44739e-10
1.98229e-08
-1.89871e-10
1.98578e-08
-2.32032e-10
1.98875e-08
-2.71336e-10
1.99052e-08
-3.05801e-10
1.99061e-08
-3.31783e-10
-3.44935e-10
1.98914e-08
2.76349e-08
1.65503e-09
2.73446e-08
1.04483e-09
2.71599e-08
6.48358e-10
2.70467e-08
3.82706e-10
2.69826e-08
1.97135e-10
2.69529e-08
6.47172e-11
2.69477e-08
-3.14295e-11
2.69591e-08
-1.05893e-10
2.69806e-08
-1.66221e-10
2.70068e-08
-2.16136e-10
2.70325e-08
-2.577e-10
2.70524e-08
-2.91233e-10
2.70625e-08
-3.15868e-10
2.70611e-08
-3.30406e-10
-3.34038e-10
2.70502e-08
3.68122e-08
2.14357e-09
3.64882e-08
1.36878e-09
3.62777e-08
8.58912e-10
3.61457e-08
5.14698e-10
3.60679e-08
2.74862e-10
3.60281e-08
1.04598e-10
3.60147e-08
-1.80937e-11
3.60186e-08
-1.09807e-10
3.60324e-08
-1.79955e-10
3.605e-08
-2.33754e-10
3.60665e-08
-2.74238e-10
3.60783e-08
-3.02971e-10
3.60832e-08
-3.20769e-10
3.60812e-08
-3.28425e-10
-3.26994e-10
3.60741e-08
4.81078e-08
2.61468e-09
4.77846e-08
1.69205e-09
4.75693e-08
1.0742e-09
4.74315e-08
6.52464e-10
4.73482e-08
3.58144e-10
4.7303e-08
1.4981e-10
4.72841e-08
8.37333e-13
4.72819e-08
-1.07567e-10
4.72887e-08
-1.86831e-10
4.7299e-08
-2.44069e-10
4.73087e-08
-2.83921e-10
4.73153e-08
-3.09573e-10
4.7318e-08
-3.23414e-10
4.73171e-08
-3.27596e-10
-3.2411e-10
4.73143e-08
6.18355e-08
2.99931e-09
6.15601e-08
1.96746e-09
6.13721e-08
1.26219e-09
6.12503e-08
7.74291e-10
6.11763e-08
4.32139e-10
6.1136e-08
1.9012e-10
6.11186e-08
1.82391e-11
6.11155e-08
-1.04542e-10
6.11201e-08
-1.9141e-10
6.11276e-08
-2.51599e-10
6.11352e-08
-2.91456e-10
6.11413e-08
-3.15656e-10
6.11456e-08
-3.27766e-10
6.11488e-08
-3.30757e-10
-3.27076e-10
6.11517e-08
7.84069e-08
3.25272e-09
7.82178e-08
2.15655e-09
7.80871e-08
1.39287e-09
7.80038e-08
8.57641e-10
7.79558e-08
4.80096e-10
7.79329e-08
2.13009e-10
7.79269e-08
2.42762e-11
7.79312e-08
-1.08819e-10
7.79407e-08
-2.00919e-10
7.79522e-08
-2.63147e-10
7.7964e-08
-3.03267e-10
7.79754e-08
-3.27037e-10
7.79864e-08
-3.38774e-10
7.79975e-08
-3.41883e-10
-3.39002e-10
7.80095e-08
9.84304e-08
3.38837e-09
9.83287e-08
2.2582e-09
9.82615e-08
1.4601e-09
9.82237e-08
8.95393e-10
9.82085e-08
4.95373e-10
9.8209e-08
2.12506e-10
9.822e-08
1.32332e-11
9.8237e-08
-1.25839e-10
9.8257e-08
-2.20845e-10
9.8278e-08
-2.84178e-10
9.82993e-08
-3.24595e-10
9.83208e-08
-3.48509e-10
9.83427e-08
-3.60645e-10
9.83654e-08
-3.6459e-10
-3.63028e-10
9.83894e-08
1.22711e-07
3.46018e-09
1.2266e-07
2.30883e-09
1.22632e-07
1.48871e-09
1.22622e-07
9.04981e-10
1.22627e-07
4.90424e-10
1.22642e-07
1.97431e-10
1.22664e-07
-9.0095e-12
1.22691e-07
-1.51934e-10
1.22719e-07
-2.49169e-10
1.22749e-07
-3.13811e-10
1.22779e-07
-3.55236e-10
1.22811e-07
-3.80226e-10
1.22844e-07
-3.93702e-10
1.22879e-07
-3.99302e-10
-3.99697e-10
1.22915e-07
1.52038e-07
3.501e-09
1.52006e-07
2.34083e-09
1.51986e-07
1.50799e-09
1.5198e-07
9.11486e-10
1.51984e-07
4.86555e-10
1.51996e-07
1.85134e-10
1.52015e-07
-2.82251e-11
1.52039e-07
-1.75885e-10
1.52067e-07
-2.76786e-10
1.52097e-07
-3.44562e-10
1.52131e-07
-3.88935e-10
1.52168e-07
-4.16876e-10
1.52207e-07
-4.33384e-10
1.5225e-07
-4.42099e-10
-4.4566e-10
1.52296e-07
1.86886e-07
3.49673e-09
1.86876e-07
2.35108e-09
1.86863e-07
1.52118e-09
1.86852e-07
9.22174e-10
1.86847e-07
4.91518e-10
1.86848e-07
1.84381e-10
1.86856e-07
-3.62738e-11
1.8687e-07
-1.90255e-10
1.8689e-07
-2.96749e-10
1.86916e-07
-3.69925e-10
1.86946e-07
-4.19619e-10
1.86982e-07
-4.5281e-10
1.87023e-07
-4.74474e-10
1.8707e-07
-4.88214e-10
-4.96599e-10
1.87121e-07
2.27282e-07
3.41785e-09
2.27315e-07
2.3178e-09
2.27324e-07
1.51223e-09
2.27322e-07
9.24041e-10
2.27317e-07
4.97179e-10
2.27311e-07
1.90049e-10
2.27312e-07
-3.70086e-11
2.27318e-07
-1.97064e-10
2.27332e-07
-3.10054e-10
2.27352e-07
-3.90126e-10
2.27379e-07
-4.46892e-10
2.27414e-07
-4.87148e-10
2.27455e-07
-5.15754e-10
2.27503e-07
-5.36241e-10
-5.51124e-10
2.27557e-07
2.72722e-07
3.25052e-09
2.72813e-07
2.22678e-09
2.72857e-07
1.46804e-09
2.72875e-07
9.06316e-10
2.72878e-07
4.93401e-10
2.72877e-07
1.9164e-10
2.72877e-07
-3.72601e-11
2.72882e-07
-2.02337e-10
2.72894e-07
-3.21723e-10
2.72913e-07
-4.09514e-10
2.72941e-07
-4.74598e-10
2.72977e-07
-5.23324e-10
2.73022e-07
-5.60316e-10
2.73075e-07
-5.8897e-10
-6.11729e-10
2.73135e-07
3.21842e-07
2.99271e-09
3.21995e-07
2.07372e-09
3.2208e-07
1.38345e-09
3.22122e-07
8.63539e-10
3.22141e-07
4.75312e-10
3.22148e-07
1.83848e-10
3.22153e-07
-4.21438e-11
3.22163e-07
-2.12078e-10
3.22179e-07
-3.3817e-10
3.22204e-07
-4.34151e-10
3.22238e-07
-5.08331e-10
3.22281e-07
-5.66529e-10
3.22334e-07
-6.13025e-10
3.22396e-07
-6.51018e-10
-6.82405e-10
3.22466e-07
3.71685e-07
2.63617e-09
3.71912e-07
1.8469e-09
3.72052e-07
1.24354e-09
3.72133e-07
7.82001e-10
3.72179e-07
4.30201e-10
3.72204e-07
1.58166e-10
3.72219e-07
-5.65905e-11
3.72228e-07
-2.20874e-10
3.72237e-07
-3.47943e-10
3.72252e-07
-4.48389e-10
3.72272e-07
-5.29248e-10
3.72301e-07
-5.9551e-10
3.72339e-07
-6.50849e-10
3.72386e-07
-6.98025e-10
-7.39053e-10
3.72443e-07
3.69716e-07
2.23858e-09
3.69983e-07
1.58012e-09
3.70159e-07
1.06698e-09
3.70275e-07
6.66064e-10
3.70351e-07
3.54159e-10
3.70397e-07
1.12152e-10
3.7043e-07
-8.95233e-11
3.70454e-07
-2.44801e-10
3.70476e-07
-3.70197e-10
3.70501e-07
-4.73212e-10
3.70531e-07
-5.58798e-10
3.70567e-07
-6.31163e-10
3.70609e-07
-6.93519e-10
3.70659e-07
-7.48199e-10
-7.96626e-10
3.70717e-07
3.17473e-07
1.87917e-09
3.17711e-07
1.34312e-09
3.17861e-07
9.1652e-10
3.1795e-07
5.76889e-10
3.17999e-07
3.05019e-10
3.18027e-07
8.47008e-11
3.18034e-07
-9.69918e-11
3.18035e-07
-2.45617e-10
3.18033e-07
-3.68367e-10
3.18032e-07
-4.7158e-10
3.18033e-07
-5.59861e-10
3.18038e-07
-6.36546e-10
3.18049e-07
-7.04051e-10
3.18065e-07
-7.64201e-10
-8.18304e-10
3.18086e-07
2.66283e-07
1.53794e-09
2.66524e-07
1.10265e-09
2.6669e-07
7.50383e-10
2.66804e-07
4.62976e-10
2.6688e-07
2.28643e-10
2.66928e-07
3.65908e-11
2.66957e-07
-1.25314e-10
2.66972e-07
-2.60718e-10
2.66979e-07
-3.76055e-10
2.66983e-07
-4.75357e-10
2.66985e-07
-5.62034e-10
2.66987e-07
-6.38683e-10
2.66991e-07
-7.07176e-10
2.66995e-07
-7.6893e-10
-8.24966e-10
2.67002e-07
2.19874e-07
1.23126e-09
2.20096e-07
8.80946e-10
2.20254e-07
5.92064e-10
2.20364e-07
3.53141e-10
2.20438e-07
1.54762e-10
2.20486e-07
-1.16163e-11
2.20514e-07
-1.5336e-10
2.20529e-07
-2.75314e-10
2.20534e-07
-3.8126e-10
2.20533e-07
-4.74153e-10
2.20527e-07
-5.56458e-10
2.20519e-07
-6.30144e-10
2.20508e-07
-6.96652e-10
2.20496e-07
-7.5705e-10
-8.1211e-10
2.20483e-07
1.79228e-07
9.63474e-10
1.79424e-07
6.84973e-10
1.79565e-07
4.51784e-10
1.79662e-07
2.55822e-10
1.79727e-07
8.96702e-11
1.79767e-07
-5.16507e-11
1.79788e-07
-1.74566e-10
1.79795e-07
-2.82091e-10
1.79791e-07
-3.76934e-10
1.79778e-07
-4.61287e-10
1.79758e-07
-5.3692e-10
1.79733e-07
-6.05252e-10
1.79704e-07
-6.67325e-10
1.79671e-07
-7.23908e-10
-7.75553e-10
1.79634e-07
1.44473e-07
7.39005e-10
1.44637e-07
5.20801e-10
1.44754e-07
3.35124e-10
1.44833e-07
1.7658e-10
1.44884e-07
3.93198e-11
1.4491e-07
-7.84216e-11
1.44919e-07
-1.83014e-10
1.44912e-07
-2.75672e-10
1.44894e-07
-3.58467e-10
1.44866e-07
-4.32957e-10
1.44829e-07
-5.0036e-10
1.44785e-07
-5.61645e-10
1.44736e-07
-6.17528e-10
1.4468e-07
-6.68544e-10
-7.1507e-10
1.4462e-07
1.15264e-07
5.58695e-10
1.15395e-07
3.9005e-10
1.15486e-07
2.44358e-10
1.15545e-07
1.17657e-10
1.15577e-07
7.17805e-12
1.15589e-07
-9.0096e-11
1.15583e-07
-1.77119e-10
1.15562e-07
-2.5527e-10
1.1553e-07
-3.25873e-10
1.15487e-07
-3.89969e-10
1.15435e-07
-4.48364e-10
1.15375e-07
-5.01698e-10
1.15308e-07
-5.50445e-10
1.15234e-07
-5.94962e-10
-6.35494e-10
1.15155e-07
9.10475e-08
4.18528e-10
9.11475e-08
2.9004e-10
9.12145e-08
1.7739e-10
9.12541e-08
7.80334e-11
9.12711e-08
-9.81991e-12
9.12695e-08
-8.85025e-11
9.1252e-08
-1.59602e-10
9.12209e-08
-2.24156e-10
9.1178e-08
-2.83009e-10
9.11249e-08
-3.36827e-10
9.10626e-08
-3.86125e-10
9.09922e-08
-4.31309e-10
9.09145e-08
-4.72677e-10
9.083e-08
-5.10456e-10
-5.44794e-10
9.07393e-08
7.12003e-08
3.11578e-10
7.12752e-08
2.1521e-10
7.13229e-08
1.29611e-10
7.13481e-08
5.2851e-11
7.1354e-08
-1.5746e-11
7.13437e-08
-7.81484e-11
7.13192e-08
-1.35094e-10
7.12823e-08
-1.87283e-10
7.12345e-08
-2.35235e-10
7.11771e-08
-2.79354e-10
7.11109e-08
-3.19953e-10
7.10369e-08
-3.57276e-10
7.09557e-08
-3.91498e-10
7.0868e-08
-4.22755e-10
-4.51128e-10
7.07743e-08
5.51002e-08
2.3047e-10
5.51559e-08
1.59484e-10
5.51899e-08
9.55958e-11
5.52052e-08
3.75508e-11
5.52045e-08
-1.50959e-11
5.51899e-08
-6.34825e-11
5.51629e-08
-1.081e-10
5.51249e-08
-1.4932e-10
5.50771e-08
-1.8745e-10
5.50205e-08
-2.22721e-10
5.49559e-08
-2.5531e-10
5.48839e-08
-2.85351e-10
5.48054e-08
-3.1294e-10
5.47208e-08
-3.38152e-10
-3.61024e-10
5.46307e-08
4.2159e-08
1.68873e-10
4.22007e-08
1.17693e-10
4.22253e-08
7.10572e-11
4.22347e-08
2.81143e-11
4.22309e-08
-1.13183e-11
4.22154e-08
-4.793e-11
4.21893e-08
-8.20093e-11
4.21537e-08
-1.13715e-10
4.21095e-08
-1.43218e-10
4.20574e-08
-1.70641e-10
4.19981e-08
-1.96073e-10
4.19324e-08
-2.19581e-10
4.18606e-08
-2.41209e-10
4.17835e-08
-2.60993e-10
-2.78943e-10
4.17014e-08
3.18437e-08
1.21907e-10
3.18755e-08
8.59608e-11
3.18937e-08
5.28115e-11
3.18999e-08
2.1889e-11
3.18954e-08
-6.79073e-12
3.18812e-08
-3.36874e-11
3.18581e-08
-5.89523e-11
3.1827e-08
-8.25903e-11
3.17885e-08
-1.04705e-10
3.17432e-08
-1.25351e-10
3.16917e-08
-1.44568e-10
3.16345e-08
-1.62381e-10
3.15721e-08
-1.78804e-10
3.15049e-08
-1.93849e-10
-2.0751e-10
3.14335e-08
2.36868e-08
8.60035e-11
2.37112e-08
6.15603e-11
2.37253e-08
3.87609e-11
2.37299e-08
1.72538e-11
2.3726e-08
-2.88169e-12
2.37142e-08
-2.19201e-11
2.36953e-08
-3.99912e-11
2.36696e-08
-5.69608e-11
2.36378e-08
-7.29168e-11
2.36004e-08
-8.78772e-11
2.35576e-08
-1.01852e-10
2.35101e-08
-1.14844e-10
2.34582e-08
-1.26851e-10
2.34022e-08
-1.3787e-10
-1.47889e-10
2.33426e-08
1.72875e-08
5.86146e-11
1.73064e-08
4.26662e-11
1.73176e-08
2.76432e-11
1.73215e-08
1.33208e-11
1.73188e-08
-1.79834e-13
1.73099e-08
-1.30253e-11
1.72953e-08
-2.53913e-11
1.72753e-08
-3.70097e-11
1.72504e-08
-4.79883e-11
1.72209e-08
-5.83255e-11
1.7187e-08
-6.80176e-11
1.71492e-08
-7.70549e-11
1.71078e-08
-8.54299e-11
1.70631e-08
-9.31314e-11
-1.00145e-10
1.70153e-08
1.23087e-08
3.79389e-11
1.23233e-08
2.8091e-11
1.23321e-08
1.87511e-11
1.23357e-08
9.75866e-12
1.23343e-08
1.22854e-12
1.23282e-08
-6.88911e-12
1.23176e-08
-1.48716e-11
1.2303e-08
-2.2349e-11
1.22844e-08
-2.94483e-11
1.22623e-08
-3.61612e-11
1.22367e-08
-4.24791e-11
1.22081e-08
-4.83888e-11
1.21765e-08
-5.3881e-11
1.21423e-08
-5.89428e-11
-6.35591e-11
1.21058e-08
8.4697e-09
2.26955e-11
8.48072e-09
1.7071e-11
8.48774e-09
1.17315e-11
8.49094e-09
6.55197e-12
8.49059e-09
1.5815e-12
8.48681e-09
-3.10895e-12
8.47976e-09
-7.823e-12
8.46966e-09
-1.22469e-11
8.45667e-09
-1.64567e-11
8.44096e-09
-2.04535e-11
8.42271e-09
-2.42303e-11
8.4021e-09
-2.77744e-11
8.37929e-09
-3.10781e-11
8.35448e-09
-3.41299e-11
-3.69149e-11
8.32784e-09
5.53946e-09
1.19469e-11
5.54743e-09
9.09911e-12
5.55274e-09
6.42427e-12
5.55547e-09
3.81838e-12
5.55578e-09
1.2714e-12
5.55377e-09
-1.09636e-12
5.54947e-09
-3.52182e-12
5.54304e-09
-5.81736e-12
5.53458e-09
-8.00244e-12
5.52421e-09
-1.00843e-11
5.51204e-09
-1.20604e-11
5.49819e-09
-1.39209e-11
5.48277e-09
-1.56602e-11
5.46591e-09
-1.72703e-11
-1.87376e-11
5.44773e-09
3.32891e-09
4.9676e-12
3.33421e-09
3.80389e-12
3.33788e-09
2.75203e-12
3.33997e-09
1.72382e-12
3.34055e-09
6.97663e-13
3.33969e-09
-2.43117e-13
3.3374e-09
-1.22407e-12
3.33374e-09
-2.16108e-12
3.32879e-09
-3.05433e-12
3.32262e-09
-3.90829e-12
3.31528e-09
-4.72291e-12
3.30685e-09
-5.49193e-12
3.2974e-09
-6.21283e-12
3.28701e-09
-6.88058e-12
-7.48444e-12
3.27576e-09
1.68448e-09
1.15862e-12
1.68742e-09
8.70267e-13
1.68952e-09
6.44704e-13
1.69083e-09
4.21035e-13
1.69133e-09
1.89584e-13
1.69111e-09
-1.7725e-14
1.69013e-09
-2.40692e-13
1.68842e-09
-4.55471e-13
1.68603e-09
-6.5987e-13
1.68297e-09
-8.57473e-13
1.6793e-09
-1.04625e-12
1.67503e-09
-1.22432e-12
1.67021e-09
-1.39156e-12
1.66487e-09
-1.54561e-12
-1.68009e-12
1.65907e-09
4.82198e-10
4.83069e-10
4.83713e-10
4.84134e-10
4.84324e-10
4.84306e-10
4.84066e-10
4.8361e-10
4.8295e-10
4.82093e-10
4.81046e-10
4.79822e-10
4.78431e-10
4.76885e-10
4.75205e-10
1.13308e-09
-4.38586e-10
2.52026e-10
1.40188e-09
-3.43414e-10
7.46187e-11
1.6743e-09
-1.78689e-10
-9.37398e-11
1.94443e-09
-3.48064e-12
-2.66648e-10
2.21086e-09
1.77961e-10
-4.44389e-10
2.4745e-09
3.59756e-10
-6.23398e-10
2.73702e-09
5.40458e-10
-8.02974e-10
2.99968e-09
7.19e-10
-9.81661e-10
3.26347e-09
8.93662e-10
-1.15745e-09
3.52914e-09
1.06221e-09
-1.32788e-09
3.79731e-09
1.2219e-09
-1.49007e-09
4.06855e-09
1.36937e-09
-1.64062e-09
4.34355e-09
1.50039e-09
-1.77539e-09
4.62313e-09
1.60968e-09
-1.88925e-09
4.90827e-09
1.69056e-09
-1.9757e-09
5.20032e-09
1.73513e-09
-2.02718e-09
5.50109e-09
1.73439e-09
-2.03516e-09
5.81322e-09
1.68027e-09
-1.9924e-09
6.14049e-09
1.56336e-09
-1.89063e-09
6.48768e-09
1.37185e-09
-1.71904e-09
6.85916e-09
1.0756e-09
-1.44709e-09
7.25467e-09
5.93209e-10
-9.88718e-10
7.60649e-09
-1.58408e-10
-1.93408e-10
7.88795e-09
-9.24704e-10
6.43239e-10
8.09988e-09
-1.62155e-09
1.40962e-09
8.24642e-09
-2.22199e-09
2.07545e-09
8.33361e-09
-2.71221e-09
2.62503e-09
8.36747e-09
-3.08814e-09
3.05428e-09
8.35293e-09
-3.35153e-09
3.36607e-09
8.29401e-09
-3.5058e-09
3.56472e-09
8.19407e-09
-3.5547e-09
3.65464e-09
8.05602e-09
-3.49871e-09
3.63676e-09
7.88268e-09
-3.33768e-09
3.51102e-09
7.67688e-09
-3.0718e-09
3.2776e-09
7.44137e-09
-2.70259e-09
2.93811e-09
7.1786e-09
-2.23311e-09
2.49587e-09
6.89064e-09
-1.66707e-09
1.95503e-09
6.57915e-09
-1.00686e-09
1.31834e-09
6.24559e-09
-2.50821e-10
5.8438e-10
5.89008e-09
6.08097e-10
-2.52585e-10
5.50749e-09
1.57412e-09
-1.19153e-09
5.07909e-09
2.62041e-09
-2.19201e-09
4.57136e-09
3.61387e-09
-3.10613e-09
3.98685e-09
4.22404e-09
-3.63953e-09
3.65464e-09
3.62443e-09
-3.29222e-09
2.37307e-09
-5.12095e-10
2.53499e-09
-5.05335e-10
2.75598e-09
-3.9968e-10
3.00447e-09
-2.51968e-10
3.26704e-09
-8.46136e-11
3.53728e-09
8.95166e-11
3.81272e-09
2.65019e-10
4.0925e-09
4.39229e-10
4.37641e-09
6.0975e-10
4.66454e-09
7.74072e-10
4.95712e-09
9.2933e-10
5.25447e-09
1.07202e-09
5.55712e-09
1.19775e-09
5.86575e-09
1.30105e-09
6.18125e-09
1.37506e-09
6.50482e-09
1.41156e-09
6.83811e-09
1.4011e-09
7.18354e-09
1.33485e-09
7.54459e-09
1.2023e-09
7.92571e-09
9.90737e-10
8.33088e-09
6.70432e-10
8.7593e-09
1.64786e-10
9.13849e-09
-5.37593e-10
9.44097e-09
-1.22718e-09
9.66831e-09
-1.8489e-09
9.8252e-09
-2.37888e-09
9.9182e-09
-2.80522e-09
9.95387e-09
-3.12381e-09
9.93761e-09
-3.33527e-09
9.87399e-09
-3.44218e-09
9.76697e-09
-3.44767e-09
9.62012e-09
-3.35187e-09
9.4371e-09
-3.15466e-09
9.22177e-09
-2.85648e-09
8.97826e-09
-2.45908e-09
8.71088e-09
-1.96573e-09
8.42434e-09
-1.38052e-09
8.12425e-09
-7.06773e-10
7.8186e-09
5.48336e-11
7.51928e-09
9.07414e-10
7.24322e-09
1.85018e-09
7.01121e-09
2.85241e-09
6.84937e-09
3.7757e-09
6.78472e-09
4.28869e-09
3.76164e-09
6.67772e-09
4.15566e-09
-5.25608e-10
4.2287e-09
-5.78379e-10
4.37322e-09
-5.44198e-10
4.5711e-09
-4.49842e-10
4.8037e-09
-3.17216e-10
5.05933e-09
-1.66118e-10
5.3311e-09
-6.75085e-12
5.61505e-09
1.55284e-10
5.90896e-09
3.15842e-10
6.21162e-09
4.71408e-10
6.52239e-09
6.18554e-10
6.84105e-09
7.53359e-10
7.16769e-09
8.71106e-10
7.5027e-09
9.66047e-10
7.84669e-09
1.03106e-09
8.20059e-09
1.05767e-09
8.56572e-09
1.03596e-09
8.94411e-09
9.56465e-10
9.33873e-09
8.0768e-10
9.75341e-09
5.76053e-10
1.01914e-08
2.32408e-10
1.06511e-08
-2.94924e-10
1.10556e-08
-9.42013e-10
1.13768e-08
-1.54839e-09
1.16173e-08
-2.08941e-09
1.17824e-08
-2.54397e-09
1.18793e-08
-2.90209e-09
1.1915e-08
-3.15955e-09
1.18956e-08
-3.31584e-09
1.18262e-08
-3.37283e-09
1.17115e-08
-3.33299e-09
1.15559e-08
-3.19628e-09
1.13641e-08
-2.96282e-09
1.11412e-08
-2.63357e-09
1.0893e-08
-2.21092e-09
1.06262e-08
-1.69891e-09
1.03486e-08
-1.10289e-09
1.00703e-08
-4.2852e-10
9.80626e-09
3.18891e-10
9.57947e-09
1.13421e-09
9.42456e-09
2.00509e-09
9.38616e-09
2.89081e-09
9.49803e-09
3.66383e-09
9.70978e-09
4.07695e-09
3.68916e-09
9.78225e-09
6.6094e-09
-5.05163e-10
6.62197e-09
-5.90954e-10
6.68966e-09
-6.1188e-10
6.81874e-09
-5.78922e-10
6.99791e-09
-4.96393e-10
7.21531e-09
-3.83518e-10
7.46209e-09
-2.53525e-10
7.73181e-09
-1.14437e-10
8.02016e-09
2.74965e-11
8.32429e-09
1.67278e-10
8.64234e-09
3.00501e-10
8.97319e-09
4.22509e-10
9.31628e-09
5.28019e-10
9.67145e-09
6.10878e-10
1.00389e-08
6.63655e-10
1.0419e-08
6.77565e-10
1.08126e-08
6.42337e-10
1.12211e-08
5.47924e-10
1.16468e-08
3.82019e-10
1.20925e-08
1.30376e-10
1.25603e-08
-2.35433e-10
1.30474e-08
-7.81997e-10
1.34728e-08
-1.36739e-09
1.38085e-08
-1.88415e-09
1.40582e-08
-2.33913e-09
1.42279e-08
-2.7136e-09
1.43253e-08
-2.99955e-09
1.43583e-08
-3.19251e-09
1.43334e-08
-3.29095e-09
1.42567e-08
-3.29609e-09
1.41334e-08
-3.20972e-09
1.3969e-08
-3.03185e-09
1.37693e-08
-2.76313e-09
1.3541e-08
-2.40533e-09
1.3292e-08
-1.9619e-09
1.30314e-08
-1.43825e-09
1.27703e-08
-8.41773e-10
1.25233e-08
-1.81523e-10
1.23107e-08
5.31413e-10
1.21624e-08
1.28252e-09
1.21195e-08
2.04805e-09
1.22276e-08
2.78269e-09
1.25053e-08
3.38616e-09
1.28894e-08
3.69277e-09
3.47006e-09
1.31085e-08
9.90523e-09
-4.70116e-10
9.88113e-09
-5.66857e-10
9.89081e-09
-6.21555e-10
9.94871e-09
-6.36826e-10
1.00609e-08
-6.08589e-10
1.02204e-08
-5.43052e-10
1.04205e-08
-4.53553e-10
1.06545e-08
-3.4847e-10
1.09173e-08
-2.35301e-10
1.12048e-08
-1.20244e-10
1.1514e-08
-8.72353e-12
1.18429e-08
9.36806e-11
1.21899e-08
1.8095e-10
1.25544e-08
2.46421e-10
1.29358e-08
2.82287e-10
1.33339e-08
2.79467e-10
1.37488e-08
2.27384e-10
1.41812e-08
1.15575e-10
1.4632e-08
-6.88475e-11
1.5103e-08
-3.406e-10
1.55946e-08
-7.27055e-10
1.61022e-08
-1.28953e-09
1.65416e-08
-1.80679e-09
1.68853e-08
-2.22792e-09
1.71382e-08
-2.59202e-09
1.73069e-08
-2.88226e-09
1.74e-08
-3.09269e-09
1.7426e-08
-3.21851e-09
1.73923e-08
-3.25726e-09
1.73058e-08
-3.20953e-09
1.71724e-08
-3.07635e-09
1.69987e-08
-2.85815e-09
1.67919e-08
-2.55639e-09
1.65606e-08
-2.17398e-09
1.63145e-08
-1.71579e-09
1.60653e-08
-1.18907e-09
1.58272e-08
-6.03706e-10
1.56182e-08
2.75418e-11
1.54613e-08
6.88253e-10
1.53872e-08
1.35669e-09
1.54326e-08
2.00264e-09
1.56321e-08
2.5832e-09
1.59892e-08
3.02906e-09
1.64346e-08
3.24739e-09
3.13827e-09
1.67663e-08
1.42443e-08
-4.33594e-10
1.42028e-08
-5.25342e-10
1.41784e-08
-5.9712e-10
1.41826e-08
-6.41081e-10
1.42296e-08
-6.55534e-10
1.43233e-08
-6.36823e-10
1.44617e-08
-5.91922e-10
1.46413e-08
-5.28077e-10
1.48583e-08
-4.52259e-10
1.51088e-08
-3.70729e-10
1.53894e-08
-2.89364e-10
1.56976e-08
-2.14493e-10
1.60313e-08
-1.52806e-10
1.63892e-08
-1.11441e-10
1.677e-08
-9.85518e-11
1.7173e-08
-1.23447e-10
1.75972e-08
-1.96903e-10
1.80424e-08
-3.29583e-10
1.85082e-08
-5.34641e-10
1.89945e-08
-8.26953e-10
1.94999e-08
-1.23237e-09
2.0017e-08
-1.80667e-09
2.046e-08
-2.24983e-09
2.08024e-08
-2.57024e-09
2.10498e-08
-2.83943e-09
2.12096e-08
-3.0421e-09
2.12915e-08
-3.17452e-09
2.13046e-08
-3.23165e-09
2.12574e-08
-3.21011e-09
2.11576e-08
-3.10968e-09
2.10118e-08
-2.93057e-09
2.08278e-08
-2.67413e-09
2.06144e-08
-2.34296e-09
2.03817e-08
-1.94135e-09
2.01417e-08
-1.47581e-09
1.99082e-08
-9.55584e-10
1.96976e-08
-3.93068e-10
1.95292e-08
1.95991e-10
1.94259e-08
7.91531e-10
1.94138e-08
1.36877e-09
1.95192e-08
1.89727e-09
1.97605e-08
2.34186e-09
2.01292e-08
2.66039e-09
2.05667e-08
2.80988e-09
2.75681e-09
2.09482e-08
1.98608e-08
-4.02974e-10
1.98191e-08
-4.83636e-10
1.97795e-08
-5.57539e-10
1.97549e-08
-6.16491e-10
1.97554e-08
-6.55969e-10
1.97918e-08
-6.7327e-10
1.9868e-08
-6.68147e-10
1.99853e-08
-6.45301e-10
2.01431e-08
-6.10115e-10
2.03399e-08
-5.6745e-10
2.05732e-08
-5.22691e-10
2.08411e-08
-4.82391e-10
2.11418e-08
-4.53499e-10
2.14736e-08
-4.43316e-10
2.18352e-08
-4.60138e-10
2.22251e-08
-5.13291e-10
2.26417e-08
-6.13542e-10
2.30836e-08
-7.71437e-10
2.35489e-08
-9.99972e-10
2.40357e-08
-1.31376e-09
2.45398e-08
-1.73647e-09
2.50511e-08
-2.31798e-09
2.54835e-08
-2.68225e-09
2.58117e-08
-2.8984e-09
2.60422e-08
-3.06991e-09
2.61828e-08
-3.18272e-09
2.62441e-08
-3.23581e-09
2.62367e-08
-3.22429e-09
2.61701e-08
-3.1435e-09
2.60523e-08
-2.99191e-09
2.58908e-08
-2.76902e-09
2.56945e-08
-2.47787e-09
2.5474e-08
-2.12244e-09
2.52411e-08
-1.70841e-09
2.50092e-08
-1.24394e-09
2.47937e-08
-7.40088e-10
2.46118e-08
-2.11144e-10
2.44821e-08
3.25659e-10
2.44245e-08
8.49098e-10
2.44578e-08
1.3355e-09
2.4596e-08
1.75906e-09
2.48432e-08
2.09469e-09
2.51837e-08
2.3199e-09
2.5574e-08
2.41957e-09
2.38971e-09
2.59411e-08
2.70279e-08
-3.80699e-10
2.69946e-08
-4.50296e-10
2.69566e-08
-5.19552e-10
2.69227e-08
-5.82601e-10
2.69016e-08
-6.34851e-10
2.69022e-08
-6.73897e-10
2.69317e-08
-6.97619e-10
2.69947e-08
-7.08352e-10
2.70947e-08
-7.10115e-10
2.72326e-08
-7.05372e-10
2.74086e-08
-6.98647e-10
2.76224e-08
-6.96216e-10
2.78736e-08
-7.04674e-10
2.81612e-08
-7.30967e-10
2.84843e-08
-7.83148e-10
2.88411e-08
-8.70178e-10
2.92301e-08
-1.00247e-09
2.96486e-08
-1.19e-09
3.00937e-08
-1.44505e-09
3.05614e-08
-1.78144e-09
3.10446e-08
-2.21969e-09
3.15301e-08
-2.80342e-09
3.19339e-08
-3.08605e-09
3.22321e-08
-3.19664e-09
3.24315e-08
-3.26932e-09
3.25401e-08
-3.2913e-09
3.25697e-08
-3.2654e-09
3.2533e-08
-3.1876e-09
3.244e-08
-3.05052e-09
3.22985e-08
-2.85041e-09
3.21168e-08
-2.5873e-09
3.19055e-08
-2.26657e-09
3.16765e-08
-1.89348e-09
3.14431e-08
-1.47496e-09
3.12197e-08
-1.02051e-09
3.10219e-08
-5.42334e-10
3.08664e-08
-5.56343e-11
3.07692e-08
4.22863e-10
3.07452e-08
8.73081e-10
3.08052e-08
1.27548e-09
3.09532e-08
1.61105e-09
3.11836e-08
1.86434e-09
3.1478e-08
2.02546e-09
3.18049e-08
2.0927e-09
2.073e-09
3.21216e-08
3.60597e-08
-3.66298e-10
3.60369e-08
-4.27414e-10
3.60083e-08
-4.90991e-10
3.5979e-08
-5.53358e-10
3.59551e-08
-6.10911e-10
3.59432e-08
-6.62002e-10
3.59492e-08
-7.03598e-10
3.59792e-08
-7.38332e-10
3.60381e-08
-7.69017e-10
3.61282e-08
-7.95451e-10
3.6252e-08
-8.22446e-10
3.64115e-08
-8.55751e-10
3.6608e-08
-9.01186e-10
3.6842e-08
-9.64992e-10
3.71135e-08
-1.05465e-09
3.74217e-08
-1.17834e-09
3.77649e-08
-1.34571e-09
3.81406e-08
-1.56568e-09
3.85447e-08
-1.84911e-09
3.89717e-08
-2.20844e-09
3.94117e-08
-2.65977e-09
3.98485e-08
-3.2402e-09
4.02034e-08
-3.44097e-09
4.04541e-08
-3.44731e-09
4.06067e-08
-3.4219e-09
4.0669e-08
-3.35357e-09
4.06552e-08
-3.25163e-09
4.0581e-08
-3.11337e-09
4.04548e-08
-2.92441e-09
4.02828e-08
-2.67835e-09
4.00759e-08
-2.38037e-09
3.98462e-08
-2.03689e-09
3.96067e-08
-1.65404e-09
3.93715e-08
-1.23967e-09
3.9155e-08
-8.04023e-10
3.89722e-08
-3.59605e-10
3.88372e-08
7.93869e-11
3.87628e-08
4.97235e-10
3.87581e-08
8.77872e-10
3.88268e-08
1.20668e-09
3.89664e-08
1.47149e-09
3.91664e-08
1.66438e-09
3.9409e-08
1.78287e-09
3.96709e-08
1.83078e-09
1.81747e-09
3.99264e-08
4.73071e-08
-3.59103e-10
4.72943e-08
-4.14646e-10
4.72773e-08
-4.73942e-10
4.72588e-08
-5.34912e-10
4.72428e-08
-5.94908e-10
4.7234e-08
-6.53196e-10
4.72367e-08
-7.06322e-10
4.72565e-08
-7.58128e-10
4.7297e-08
-8.09524e-10
4.73611e-08
-8.59511e-10
4.7452e-08
-9.13384e-10
4.75729e-08
-9.76619e-10
4.77258e-08
-1.05408e-09
4.79123e-08
-1.1515e-09
4.81334e-08
-1.2758e-09
4.83893e-08
-1.43419e-09
4.86789e-08
-1.63534e-09
4.89999e-08
-1.88669e-09
4.9348e-08
-2.19715e-09
4.97167e-08
-2.57719e-09
5.00939e-08
-3.03699e-09
5.04611e-08
-3.6074e-09
5.07484e-08
-3.72826e-09
5.09347e-08
-3.63363e-09
5.10249e-08
-3.5121e-09
5.10273e-08
-3.35597e-09
5.09632e-08
-3.18745e-09
5.08466e-08
-2.99677e-09
5.06796e-08
-2.75741e-09
5.0471e-08
-2.46981e-09
5.02348e-08
-2.14414e-09
4.99841e-08
-1.7862e-09
4.97324e-08
-1.40237e-09
4.94936e-08
-1.00084e-09
4.92814e-08
-5.91824e-10
4.91089e-08
-1.87136e-10
4.89869e-08
2.01402e-10
4.8924e-08
5.60169e-10
4.89241e-08
8.77788e-10
4.89862e-08
1.14458e-09
4.91038e-08
1.35388e-09
4.92653e-08
1.50288e-09
4.94552e-08
1.59296e-09
4.96563e-08
1.62966e-09
1.62168e-09
4.98521e-08
6.11526e-08
-3.59979e-10
6.11504e-08
-4.12442e-10
6.11459e-08
-4.69403e-10
6.11408e-08
-5.29878e-10
6.11382e-08
-5.92292e-10
6.11413e-08
-6.56311e-10
6.11538e-08
-7.18835e-10
6.11778e-08
-7.82052e-10
6.12168e-08
-8.48598e-10
6.1276e-08
-9.18716e-10
6.13579e-08
-9.95188e-10
6.14636e-08
-1.0824e-09
6.15952e-08
-1.18563e-09
6.17541e-08
-1.31043e-09
6.19415e-08
-1.4632e-09
6.21576e-08
-1.65025e-09
6.24016e-08
-1.87931e-09
6.26711e-08
-2.15625e-09
6.29617e-08
-2.48778e-09
6.32667e-08
-2.88212e-09
6.35716e-08
-3.34193e-09
6.38577e-08
-3.89352e-09
6.40659e-08
-3.93639e-09
6.41757e-08
-3.74344e-09
6.41902e-08
-3.52665e-09
6.41305e-08
-3.29627e-09
6.40203e-08
-3.07719e-09
6.38555e-08
-2.832e-09
6.36414e-08
-2.54332e-09
6.33944e-08
-2.22286e-09
6.31286e-08
-1.8783e-09
6.28573e-08
-1.51493e-09
6.25939e-08
-1.13891e-09
6.23512e-08
-7.58132e-10
6.21411e-08
-3.81779e-10
6.19745e-08
-2.0475e-11
6.18578e-08
3.18095e-10
6.1796e-08
6.21941e-10
6.17892e-08
8.84621e-10
6.18332e-08
1.10052e-09
6.19203e-08
1.26683e-09
6.20394e-08
1.38378e-09
6.21779e-08
1.45445e-09
6.23231e-08
1.48442e-09
1.48091e-09
6.24639e-08
7.8021e-08
-3.71494e-10
7.80315e-08
-4.22969e-10
7.80416e-08
-4.7948e-10
7.80524e-08
-5.40679e-10
7.8066e-08
-6.05881e-10
7.80842e-08
-6.74502e-10
7.81117e-08
-7.46385e-10
7.81505e-08
-8.20877e-10
7.82028e-08
-9.00845e-10
7.82718e-08
-9.87752e-10
7.83599e-08
-1.0833e-09
7.84688e-08
-1.19125e-09
7.85995e-08
-1.31634e-09
7.87527e-08
-1.46369e-09
7.89288e-08
-1.63922e-09
7.91268e-08
-1.84827e-09
7.93451e-08
-2.09766e-09
7.95806e-08
-2.39172e-09
7.98279e-08
-2.73503e-09
8.00792e-08
-3.13352e-09
8.03184e-08
-3.58105e-09
8.05275e-08
-4.10265e-09
8.06573e-08
-4.06617e-09
8.06826e-08
-3.76875e-09
8.06311e-08
-3.47512e-09
8.05284e-08
-3.19357e-09
8.03692e-08
-2.91806e-09
8.0153e-08
-2.61575e-09
7.98967e-08
-2.28708e-09
7.96172e-08
-1.94336e-09
7.93282e-08
-1.58924e-09
7.90424e-08
-1.22918e-09
7.87723e-08
-8.6876e-10
7.8529e-08
-5.14846e-10
7.83224e-08
-1.75177e-10
7.81581e-08
1.43787e-10
7.80426e-08
4.33643e-10
7.79756e-08
6.88877e-10
7.7955e-08
9.05225e-10
7.79753e-08
1.08022e-09
7.80286e-08
1.21353e-09
7.81055e-08
1.30692e-09
7.8196e-08
1.36397e-09
7.82908e-08
1.38964e-09
1.38969e-09
7.8382e-08
9.84144e-08
-3.96474e-10
9.84402e-08
-4.48754e-10
9.84672e-08
-5.06494e-10
9.84963e-08
-5.6977e-10
9.85289e-08
-6.38499e-10
9.8567e-08
-7.12624e-10
9.86131e-08
-7.92506e-10
9.86705e-08
-8.78208e-10
9.87405e-08
-9.70904e-10
9.88254e-08
-1.07264e-09
9.89277e-08
-1.18555e-09
9.90488e-08
-1.31238e-09
9.91895e-08
-1.45709e-09
9.93499e-08
-1.6241e-09
9.95293e-08
-1.81857e-09
9.97258e-08
-2.04479e-09
9.99365e-08
-2.30832e-09
1.00157e-07
-2.61185e-09
1.00379e-07
-2.95787e-09
1.00595e-07
-3.34948e-09
1.00787e-07
-3.77282e-09
1.00935e-07
-4.2509e-09
1.00995e-07
-4.12594e-09
1.00961e-07
-3.73454e-09
1.00869e-07
-3.38276e-09
1.00726e-07
-3.05101e-09
1.00523e-07
-2.71492e-09
1.00269e-07
-2.36193e-09
9.99866e-08
-2.0046e-09
9.96901e-08
-1.64682e-09
9.93923e-08
-1.29148e-09
9.91051e-08
-9.41978e-10
9.88393e-08
-6.02921e-10
9.86039e-08