/*--------------------------------*- C++ -*----------------------------------*\
| =========                 |                                                 |
| \\      /  F ield         | OpenFOAM: The Open Source CFD Toolbox           |
|  \\    /   O peration     | Version:  2312                                  |
|   \\  /    A nd           | Website:  www.openfoam.com                      |
|    \\/     M anipulation  |                                                 |
\*---------------------------------------------------------------------------*/
FoamFile
{
    version     2.0;
    format      ascii;
    arch        "LSB;label=32;scalar=64";
    class       volVectorField;
    location    "144.25";
    object      U;
}
// * * * * * * * * * * * * * * * * * * * * * * * * * * * * * * * * * * * * * //

dimensions      [0 1 -1 0 0 0 0];

internalField   nonuniform List<vector> 
4800
(
(0.000490472 4.0441e-07 -3.49516e-26)
(0.000480028 4.71766e-07 -2.46122e-25)
(0.000472944 5.10343e-07 3.15789e-25)
(0.000468227 5.21036e-07 1.44614e-25)
(0.000465276 5.01978e-07 2.13646e-24)
(0.000463737 4.65271e-07 -5.09044e-24)
(0.000463392 4.07487e-07 4.74715e-24)
(0.000464236 3.19489e-07 -6.86287e-24)
(0.000466172 1.77201e-07 2.20906e-24)
(0.000469373 -1.00289e-07 7.49611e-24)
(0.000474255 -6.53337e-07 -2.31188e-24)
(0.000482155 -2.11773e-06 -1.98804e-25)
(0.000500332 -7.44079e-06 -2.80331e-24)
(0.000547268 -2.90236e-05 1.28131e-24)
(0.000626207 -9.59745e-05 -1.01299e-24)
(0.00151286 2.12105e-06 -1.11119e-25)
(0.00148077 1.69707e-06 1.3851e-25)
(0.00145877 1.3548e-06 -1.28063e-24)
(0.00144388 1.03872e-06 9.56974e-25)
(0.00143427 7.08255e-07 3.07252e-24)
(0.00142887 3.48575e-07 -4.90368e-24)
(0.00142697 -7.92931e-08 -1.38358e-24)
(0.00142846 -6.66952e-07 -3.18458e-25)
(0.00143298 -1.49067e-06 1.13617e-23)
(0.00144117 -2.86706e-06 -8.4084e-24)
(0.00145414 -5.46821e-06 9.1599e-25)
(0.00147474 -1.15384e-05 1.38798e-24)
(0.00151187 -2.89002e-05 -2.04005e-24)
(0.00157676 -8.18535e-05 -5.93904e-25)
(0.00164777 -0.000202791 2.6412e-24)
(0.0026392 6.85446e-06 -7.94752e-26)
(0.00258374 5.46383e-06 8.11879e-26)
(0.00254537 4.37164e-06 8.37697e-25)
(0.00251906 3.3963e-06 -1.99779e-24)
(0.00250171 2.41723e-06 1.96067e-24)
(0.00249142 1.33535e-06 1.84496e-24)
(0.00248692 -4.23345e-09 -4.72355e-24)
(0.00248798 -1.75736e-06 -2.88199e-24)
(0.00249371 -4.19437e-06 7.00064e-24)
(0.00250507 -8.0757e-06 2.64788e-24)
(0.00252321 -1.49148e-05 -9.2207e-24)
(0.00255026 -2.87218e-05 -1.37675e-24)
(0.00259042 -5.93221e-05 3.92995e-24)
(0.00264246 -0.000126699 6.16956e-24)
(0.00268065 -0.000240192 -3.18233e-24)
(0.00387559 1.53937e-05 2.93465e-26)
(0.00379547 1.2389e-05 -2.04749e-25)
(0.00373952 1.00333e-05 9.14561e-25)
(0.00370064 7.94177e-06 9.79607e-25)
(0.00367441 5.86381e-06 -9.73523e-25)
(0.00365812 3.59501e-06 -5.62186e-24)
(0.0036498 8.45417e-07 -3.82224e-24)
(0.00364898 -2.79171e-06 1.41713e-23)
(0.00365417 -7.49412e-06 5.80369e-24)
(0.00366611 -1.48624e-05 -8.47395e-24)
(0.00368537 -2.69021e-05 -3.41794e-24)
(0.00371203 -4.81239e-05 -2.59554e-24)
(0.00374536 -8.68242e-05 8.12346e-26)
(0.00377794 -0.000153516 1.91404e-24)
(0.00379073 -0.000243994 9.3514e-27)
(0.00522616 2.86027e-05 -5.379e-26)
(0.00512105 2.3199e-05 -3.30111e-25)
(0.00504682 1.89599e-05 -2.09822e-25)
(0.0049945 1.5217e-05 5.65028e-25)
(0.00495844 1.15401e-05 -1.60652e-24)
(0.00493502 7.59808e-06 4.00798e-24)
(0.00492165 2.91803e-06 -7.07213e-25)
(0.00491713 -2.99603e-06 2.45569e-24)
(0.00491999 -1.06568e-05 -1.35946e-23)
(0.00492974 -2.17892e-05 2.58846e-23)
(0.00494607 -3.86347e-05 -2.50937e-23)
(0.00496721 -6.4777e-05 1.32172e-23)
(0.00498968 -0.000105293 -1.22522e-23)
(0.00500546 -0.000163525 1.15642e-23)
(0.00500353 -0.00023215 -4.61627e-24)
(0.00669132 4.74649e-05 7.10031e-26)
(0.00656264 3.88236e-05 2.55267e-25)
(0.00647052 3.20248e-05 -1.34726e-24)
(0.00640457 2.60502e-05 -8.54359e-25)
(0.0063581 2.02503e-05 2.29057e-24)
(0.00632669 1.41477e-05 8.20944e-25)
(0.00630713 7.1068e-06 -6.41816e-24)
(0.00629743 -1.45391e-06 1.53044e-23)
(0.00629583 -1.23074e-05 -1.98763e-23)
(0.006301 -2.70659e-05 4.77e-24)
(0.00631132 -4.75001e-05 1.44559e-23)
(0.00632413 -7.58335e-05 -2.00655e-23)
(0.00633535 -0.000114062 1.00434e-23)
(0.00633891 -0.000161749 1.03306e-23)
(0.00632962 -0.000212696 -7.87001e-24)
(0.00826544 7.274e-05 5.8737e-26)
(0.00811743 6.01075e-05 -3.48171e-25)
(0.00800965 5.00985e-05 1.24918e-24)
(0.00793111 4.13209e-05 -1.73422e-24)
(0.0078745 3.2891e-05 -5.89308e-24)
(0.00783481 2.4179e-05 1.00455e-23)
(0.00780834 1.44429e-05 -6.09286e-24)
(0.00779241 2.98045e-06 2.07065e-23)
(0.00778477 -1.09439e-05 -1.40862e-23)
(0.00778343 -2.86554e-05 -6.57152e-24)
(0.00778605 -5.12902e-05 -1.29131e-23)
(0.00778969 -7.96841e-05 1.18707e-23)
(0.00779093 -0.000113838 3.34082e-24)
(0.00778596 -0.000151962 2.87383e-24)
(0.00777294 -0.000189828 -2.53009e-24)
(0.00993417 0.000104463 -8.49652e-26)
(0.00977511 8.74224e-05 1.15365e-24)
(0.00965662 7.37375e-05 -2.68771e-24)
(0.00956845 6.17048e-05 -2.20461e-24)
(0.00950339 5.02388e-05 8.25968e-25)
(0.0094562 3.85807e-05 1.62461e-24)
(0.00942291 2.59497e-05 5.8191e-24)
(0.00940041 1.16158e-05 -1.5833e-23)
(0.00938603 -5.0658e-06 -8.42879e-24)
(0.00937736 -2.49036e-05 2.32279e-23)
(0.00937187 -4.84139e-05 -7.20275e-24)
(0.00936686 -7.54976e-05 2.46454e-23)
(0.00935991 -0.000105257 -1.29786e-23)
(0.00934884 -0.000135846 -4.15921e-24)
(0.00933343 -0.00016467 2.46678e-24)
(0.0116729 0.000141286 -1.13605e-26)
(0.0115157 0.000120131 6.39518e-25)
(0.0113949 0.000102745 -9.10544e-25)
(0.0113026 8.73069e-05 2.18341e-24)
(0.0112327 7.26344e-05 -1.30189e-23)
(0.0111804 5.79105e-05 1.37451e-23)
(0.0111417 4.23904e-05 -2.16389e-23)
(0.0111134 2.54283e-05 1.33083e-23)
(0.0110927 6.54678e-06 9.88862e-24)
(0.0110772 -1.45927e-05 2.14683e-23)
(0.0110644 -3.79908e-05 -2.80469e-23)
(0.0110521 -6.31052e-05 -5.21749e-24)
(0.0110389 -8.88755e-05 2.36929e-24)
(0.0110235 -0.000113897 1.72393e-23)
(0.0110062 -0.000136678 -7.02871e-24)
(0.0134498 0.000179875 6.40024e-26)
(0.0133102 0.000155974 -2.72282e-25)
(0.0131984 0.000135599 1.20533e-24)
(0.0131102 0.000117136 -4.22388e-24)
(0.0130412 9.94985e-05 6.4011e-24)
(0.0129878 8.19357e-05 -8.2608e-24)
(0.0129467 6.38285e-05 1.38238e-23)
(0.0129148 4.47e-05 2.42129e-24)
(0.0128896 2.43111e-05 -1.905e-23)
(0.0128689 2.62147e-06 2.7155e-23)
(0.0128507 -2.00436e-05 -2.99677e-23)
(0.0128334 -4.30429e-05 -8.87877e-24)
(0.012816 -6.5499e-05 1.56123e-23)
(0.0127977 -8.65089e-05 4.65808e-24)
(0.0127791 -0.000105265 -2.03938e-24)
(0.0152365 0.000215122 2.73934e-25)
(0.0151285 0.00019088 -2.15339e-24)
(0.015037 0.000169075 -3.37783e-24)
(0.0149616 0.000148649 8.04146e-24)
(0.0149005 0.000128844 3.58322e-24)
(0.0148515 0.000109128 -2.25089e-23)
(0.0148121 8.91039e-05 6.9365e-24)
(0.01478 6.85234e-05 4.99028e-24)
(0.0147534 4.73622e-05 -2.16117e-23)
(0.0147303 2.57993e-05 2.24871e-23)
(0.0147094 4.24186e-06 -1.81051e-23)
(0.0146895 -1.67519e-05 4.64679e-23)
(0.0146702 -3.65688e-05 -2.24201e-23)
(0.0146507 -5.47002e-05 1.32391e-23)
(0.0146319 -7.07435e-05 -3.62304e-24)
(0.0170256 0.000242239 -1.27749e-25)
(0.0169536 0.000220192 1.5067e-24)
(0.0168883 0.000198915 -2.85966e-24)
(0.0168317 0.00017806 -1.42402e-24)
(0.0167839 0.000157345 1.59702e-23)
(0.0167439 0.000136579 -2.33198e-24)
(0.0167104 0.000115649 -2.83507e-23)
(0.016682 9.45496e-05 3.30701e-23)
(0.0166572 7.34337e-05 -7.41937e-24)
(0.0166349 5.25843e-05 -2.57685e-23)
(0.0166143 3.23849e-05 2.75445e-23)
(0.0165945 1.32407e-05 1.49641e-23)
(0.0165755 -4.46567e-06 -1.24735e-23)
(0.0165567 -2.04861e-05 -2.18158e-23)
(0.0165389 -3.46469e-05 1.8373e-24)
(0.0188375 0.00026012 2.4803e-26)
(0.0187937 0.000241569 -1.74258e-24)
(0.0187515 0.000222192 7.93142e-24)
(0.0187132 0.000202211 4.12278e-25)
(0.0186794 0.00018181 4.37045e-24)
(0.01865 0.000161152 -1.57866e-23)
(0.0186243 0.000140394 1.34499e-23)
(0.0186015 0.000119728 3.06716e-24)
(0.0185808 9.94218e-05 2.77168e-23)
(0.0185616 7.97788e-05 -4.27697e-23)
(0.0185434 6.11169e-05 -1.94313e-23)
(0.0185258 4.37021e-05 -1.29378e-23)
(0.0185089 2.775e-05 2.42858e-23)
(0.0184921 1.33561e-05 -7.11206e-25)
(0.0184764 5.73102e-07 2.37211e-24)
(0.0206988 0.00027224 -4.96206e-27)
(0.0206703 0.00025688 1.88833e-24)
(0.0206423 0.000239645 -2.73445e-24)
(0.0206161 0.000221045 1.62965e-26)
(0.0205925 0.000201608 3.26514e-24)
(0.0205713 0.000181776 8.24403e-24)
(0.0205521 0.000161904 -3.19846e-23)
(0.0205344 0.000142298 2.70553e-24)
(0.0205179 0.000123267 1.62388e-23)
(0.0205021 0.000105084 -7.50743e-24)
(0.0204869 8.79892e-05 2.04903e-23)
(0.0204721 7.21434e-05 1.44355e-23)
(0.0204578 5.76559e-05 -2.61658e-23)
(0.0204437 4.45412e-05 1.80108e-23)
(0.0204303 3.2793e-05 -1.49778e-23)
(0.0226019 0.000282015 -2.99355e-25)
(0.0225814 0.000269465 -3.22158e-25)
(0.0225606 0.000254196 3.43182e-24)
(0.0225411 0.000237041 -1.61095e-23)
(0.0225232 0.000218784 1.40718e-23)
(0.0225067 0.000200059 -9.92686e-24)
(0.0224915 0.00018134 7.15361e-24)
(0.0224771 0.00016299 -5.01863e-23)
(0.0224635 0.000145311 7.24542e-23)
(0.0224503 0.000128529 -4.26998e-23)
(0.0224375 0.000112813 3.81608e-23)
(0.022425 9.82527e-05 3.20642e-23)
(0.022413 8.48937e-05 -5.60477e-23)
(0.022401 7.27125e-05 1.82784e-23)
(0.0223897 6.16762e-05 -7.70255e-25)
(0.02449 0.000288999 -1.14768e-26)
(0.0244774 0.000280452 -1.2572e-24)
(0.0244622 0.000267204 1.32314e-24)
(0.0244474 0.000251628 -4.56374e-25)
(0.0244335 0.000234777 5.97785e-24)
(0.0244204 0.000217387 -1.01167e-23)
(0.024408 0.000199975 9.22411e-24)
(0.0243961 0.000182924 -2.885e-23)
(0.0243846 0.000166524 6.54459e-23)
(0.0243734 0.000150964 -8.36249e-23)
(0.0243626 0.000136367 6.84848e-23)
(0.0243519 0.000122781 -2.31324e-23)
(0.0243417 0.000110219 1.2134e-24)
(0.0243314 9.8647e-05 5.35218e-24)
(0.0243218 8.8023e-05 -1.02389e-23)
(0.0262765 0.000292909 -8.78313e-25)
(0.0262705 0.000287862 5.03616e-25)
(0.0262617 0.000278134 1.33704e-24)
(0.0262515 0.000264549 -3.19145e-24)
(0.0262415 0.000249424 1.08565e-23)
(0.0262317 0.000233595 -1.06251e-23)
(0.0262222 0.000217611 -8.8105e-24)
(0.0262129 0.000201865 -2.08384e-23)
(0.0262037 0.000186646 1.10025e-23)
(0.0261946 0.000172131 5.05208e-23)
(0.0261858 0.000158419 -2.65905e-23)
(0.026177 0.000145544 1.57836e-23)
(0.0261686 0.000133507 -6.49876e-24)
(0.0261601 0.000122278 -1.92585e-23)
(0.0261521 0.00011182 9.85878e-24)
(0.0278473 0.000294439 2.59949e-25)
(0.0278452 0.000291403 -3.57954e-25)
(0.0278412 0.000285112 1.90731e-24)
(0.0278355 0.00027419 -7.1909e-24)
(0.0278293 0.000261261 -2.02363e-24)
(0.0278229 0.00024736 1.95204e-23)
(0.0278165 0.000233039 -1.4523e-23)
(0.0278098 0.000218712 -8.27205e-24)
(0.0278032 0.000204682 7.80269e-24)
(0.0277966 0.000191134 -8.57013e-24)
(0.02779 0.000178171 2.0077e-23)
(0.0277833 0.000165832 9.95885e-24)
(0.0277768 0.000154129 -3.72714e-23)
(0.0277703 0.000143043 2.56646e-23)
(0.027764 0.000132553 -5.21708e-24)
(0.029037 0.000294812 8.49181e-25)
(0.0290381 0.000293133 4.5519e-25)
(0.0290379 0.00028873 -1.51506e-24)
(0.0290367 0.000280582 3.02313e-24)
(0.0290346 0.000269618 -4.45364e-24)
(0.0290319 0.000257498 -8.53486e-24)
(0.0290288 0.000244772 -8.59453e-24)
(0.0290254 0.000231836 2.35169e-23)
(0.0290217 0.000218975 2.1402e-23)
(0.0290178 0.000206362 -5.12726e-23)
(0.0290138 0.000194102 2.87442e-23)
(0.0290096 0.000182242 -1.95787e-24)
(0.0290054 0.000170811 -1.56225e-24)
(0.029001 0.000159807 2.08266e-24)
(0.0289968 0.000149223 -9.53392e-25)
(0.0296187 0.000287483 -2.31426e-24)
(0.0296266 0.000288966 -3.1393e-24)
(0.0296317 0.000285755 4.24148e-24)
(0.0296355 0.000279285 1.60873e-24)
(0.0296382 0.000270629 1.90243e-25)
(0.0296401 0.00026052 3.32731e-24)
(0.0296411 0.000249525 -2.62834e-24)
(0.0296415 0.000238056 -1.82559e-23)
(0.0296415 0.000226391 4.08961e-23)
(0.0296411 0.000214703 -1.6827e-23)
(0.0296404 0.000203105 6.51115e-24)
(0.0296393 0.000191669 -1.14487e-23)
(0.029638 0.000180442 -1.1547e-23)
(0.0296365 0.000169448 1.686e-23)
(0.0296349 0.000158697 -7.20554e-24)
(0.0294067 0.000276191 3.46014e-24)
(0.029417 0.000279281 -7.32318e-24)
(0.0294252 0.000277949 1.74831e-24)
(0.029432 0.000273467 5.12307e-24)
(0.0294377 0.000266654 -2.99514e-24)
(0.0294426 0.000258213 -1.05157e-24)
(0.0294466 0.000248702 -6.79033e-24)
(0.02945 0.000238505 1.68417e-23)
(0.0294529 0.000227872 5.07995e-24)
(0.0294553 0.000216964 -1.10274e-23)
(0.0294573 0.000205904 -6.01441e-24)
(0.0294589 0.000194778 7.07173e-24)
(0.0294602 0.000183649 -7.59036e-24)
(0.0294612 0.000172559 4.37989e-24)
(0.029462 0.000161536 -1.90688e-24)
(0.0284169 0.000260836 2.04532e-24)
(0.0284344 0.000264471 -4.1073e-24)
(0.0284496 0.000264036 -2.03339e-24)
(0.0284628 0.000260649 9.5824e-24)
(0.0284743 0.000255104 -7.26578e-24)
(0.0284845 0.000247998 1.31221e-24)
(0.0284936 0.000239773 6.57607e-25)
(0.0285016 0.000230736 -4.13489e-25)
(0.0285086 0.0002211 -1.90227e-24)
(0.0285149 0.00021102 1.30692e-23)
(0.0285204 0.000200615 -7.99349e-24)
(0.0285253 0.000189975 1.18191e-24)
(0.0285295 0.000179169 -1.26069e-23)
(0.0285334 0.000168247 6.12143e-24)
(0.0285366 0.000157249 2.0693e-24)
(0.0268339 0.000240846 4.94288e-24)
(0.026853 0.000244278 -8.55311e-24)
(0.0268705 0.000244142 1.81137e-24)
(0.0268865 0.00024141 -3.07747e-24)
(0.0269011 0.000236769 -2.86391e-24)
(0.0269146 0.000230683 1.13994e-23)
(0.0269271 0.000223486 -3.50309e-24)
(0.0269386 0.000215423 4.61694e-25)
(0.0269492 0.000206685 -1.29012e-26)
(0.0269589 0.000197412 2.22023e-24)
(0.0269679 0.000187716 -5.50592e-24)
(0.0269763 0.000177683 5.08956e-24)
(0.0269839 0.000167381 -3.16455e-25)
(0.0269911 0.000156865 -1.93534e-24)
(0.0269976 0.000146176 3.26835e-25)
(0.0249247 0.00022124 1.87179e-24)
(0.024947 0.000224154 -9.32517e-24)
(0.024968 0.000224051 1.55721e-23)
(0.0249877 0.000221695 -1.13472e-23)
(0.0250061 0.000217626 1.01638e-23)
(0.0250234 0.000212208 -3.72618e-24)
(0.0250395 0.000205706 -2.27885e-24)
(0.0250547 0.000198328 -1.7545e-24)
(0.0250688 0.000190238 1.50478e-24)
(0.0250821 0.000181565 -1.33138e-24)
(0.0250945 0.00017241 1.90238e-25)
(0.0251062 0.000162854 8.03747e-25)
(0.0251171 0.000152964 -1.2983e-24)
(0.0251273 0.000142795 5.32165e-25)
(0.0251369 0.000132391 -1.71772e-25)
(0.0228337 0.000199966 2.47188e-25)
(0.0228604 0.000202177 -3.50657e-24)
(0.022886 0.000201875 -1.75935e-24)
(0.0229102 0.000199628 1.49722e-23)
(0.0229331 0.000195858 -1.42447e-23)
(0.0229548 0.000190854 4.04143e-24)
(0.0229752 0.000184837 6.15508e-25)
(0.0229946 0.00017798 -2.79964e-25)
(0.0230128 0.000170423 -9.57997e-25)
(0.02303 0.000162279 3.22767e-24)
(0.0230463 0.00015364 -2.18793e-24)
(0.0230616 0.000144581 1.9983e-25)
(0.023076 0.000135165 -8.11588e-26)
(0.0230897 0.000125446 -6.79579e-25)
(0.0231024 0.000115471 6.01127e-25)
(0.0206757 0.00017644 3.673e-25)
(0.0207071 0.000177888 3.26674e-24)
(0.0207373 0.000177273 -3.76176e-24)
(0.0207662 0.000175019 -2.46301e-24)
(0.0207936 0.000171449 1.51716e-23)
(0.0208197 0.000166791 -1.16121e-23)
(0.0208445 0.000161225 -3.36678e-25)
(0.020868 0.000154892 -2.07216e-24)
(0.0208903 0.000147909 -5.0988e-26)
(0.0209114 0.000140373 3.46999e-25)
(0.0209313 0.000132364 -3.71136e-25)
(0.0209502 0.000123948 6.95429e-25)
(0.0209679 0.000115185 3.23773e-25)
(0.0209846 0.000106122 1.47987e-25)
(0.0210002 9.68081e-05 -3.42746e-25)
(0.0185315 0.000151349 2.62296e-24)
(0.0185671 0.000152108 -4.00124e-24)
(0.0186013 0.000151212 -3.08965e-24)
(0.0186341 0.000148975 9.38924e-24)
(0.0186654 0.000145636 -3.37171e-24)
(0.0186952 0.000141369 -4.45836e-24)
(0.0187236 0.000136315 1.59607e-24)
(0.0187505 0.000130587 3.16622e-24)
(0.018776 0.000124282 -4.6606e-24)
(0.0188002 0.000117478 4.23804e-24)
(0.018823 0.000110243 -1.94923e-24)
(0.0188445 0.000102636 6.155e-25)
(0.0188646 9.47083e-05 -1.73828e-25)
(0.0188835 8.6508e-05 -1.62704e-25)
(0.018901 7.8078e-05 1.94389e-25)
(0.016453 0.000125903 -5.10971e-25)
(0.0164913 0.000126143 -1.74215e-24)
(0.0165282 0.000125085 -5.45676e-24)
(0.0165636 0.000122965 1.52101e-23)
(0.0165973 0.000119945 -2.79768e-24)
(0.0166295 0.000116154 -4.17022e-24)
(0.0166601 0.0001117 1.33508e-24)
(0.0166892 0.000106675 -1.95597e-24)
(0.0167167 0.000101152 -3.75391e-24)
(0.0167426 9.5198e-05 3.65073e-24)
(0.016767 8.88683e-05 1.73649e-25)
(0.0167899 8.22142e-05 -6.10378e-25)
(0.0168112 7.52828e-05 7.20076e-25)
(0.0168311 6.8117e-05 -3.47785e-26)
(0.0168493 6.07571e-05 3.0275e-26)
(0.0144701 0.000101454 1.97474e-24)
(0.0145094 0.000101367 2.84839e-24)
(0.0145472 0.000100295 -2.70793e-24)
(0.0145834 9.84009e-05 -5.7279e-24)
(0.0146181 9.57883e-05 7.58482e-24)
(0.0146511 9.25515e-05 -8.15018e-24)
(0.0146824 8.87734e-05 -1.88902e-25)
(0.0147121 8.45238e-05 3.07333e-24)
(0.0147401 7.98618e-05 1.0164e-24)
(0.0147664 7.48396e-05 -1.79947e-24)
(0.014791 6.95046e-05 2.50924e-25)
(0.014814 6.39005e-05 2.86072e-24)
(0.0148352 5.80684e-05 -1.06388e-24)
(0.0148547 5.20458e-05 -1.42763e-25)
(0.0148723 4.58693e-05 3.17073e-27)
(0.0125989 7.91516e-05 -2.05993e-24)
(0.0126374 7.89076e-05 2.64668e-24)
(0.0126744 7.79414e-05 2.86421e-25)
(0.0127099 7.63546e-05 5.1777e-24)
(0.0127438 7.42053e-05 -4.25917e-24)
(0.012776 7.15642e-05 2.87262e-25)
(0.0128067 6.84942e-05 -4.85864e-25)
(0.0128356 6.50479e-05 -1.26982e-24)
(0.0128628 6.12708e-05 9.70258e-25)
(0.0128883 5.72044e-05 -3.09727e-24)
(0.0129119 5.28873e-05 3.68076e-25)
(0.0129338 4.83559e-05 7.43667e-25)
(0.0129539 4.36445e-05 3.76821e-25)
(0.0129721 3.87851e-05 1.03389e-25)
(0.0129884 3.38092e-05 -2.55351e-27)
(0.0108474 5.97446e-05 1.53169e-24)
(0.0108835 5.94648e-05 -1.21525e-24)
(0.0109183 5.86804e-05 -5.22959e-24)
(0.0109516 5.74333e-05 4.90741e-24)
(0.0109835 5.57565e-05 6.6801e-24)
(0.0110139 5.37046e-05 -1.7852e-24)
(0.0110426 5.13233e-05 -3.42994e-24)
(0.0110697 4.86509e-05 -4.54008e-24)
(0.0110951 4.57216e-05 3.36255e-24)
(0.0111188 4.25678e-05 1.46055e-25)
(0.0111407 3.92198e-05 -6.61283e-25)
(0.0111608 3.57068e-05 -1.14672e-25)
(0.0111791 3.20565e-05 2.49741e-25)
(0.0111955 2.82949e-05 -3.83557e-26)
(0.0112099 2.4448e-05 -1.12009e-27)
(0.00921907 4.35551e-05 -9.67216e-25)
(0.00925168 4.33121e-05 -6.74666e-25)
(0.00928318 4.27343e-05 8.40323e-25)
(0.00931346 4.18143e-05 -2.57728e-24)
(0.00934242 4.05771e-05 8.42417e-24)
(0.00936997 3.90632e-05 -1.10049e-23)
(0.00939606 3.73042e-05 1.0609e-23)
(0.00942063 3.53272e-05 -4.43845e-24)
(0.00944361 3.31573e-05 9.27806e-25)
(0.00946495 3.08187e-05 -5.7836e-26)
(0.00948461 2.83343e-05 -7.12333e-25)
(0.00950254 2.57267e-05 1.18281e-25)
(0.0095187 2.30173e-05 -3.89923e-25)
(0.00953307 2.02266e-05 -1.81132e-26)
(0.0095456 1.73751e-05 1.631e-27)
(0.00771463 3.05608e-05 -4.71301e-25)
(0.00774309 3.03852e-05 1.23757e-25)
(0.00777068 2.99984e-05 2.61365e-25)
(0.00779725 2.93623e-05 -1.18437e-24)
(0.0078227 2.85017e-05 -5.1145e-25)
(0.00784694 2.74446e-05 4.52694e-24)
(0.00786991 2.62113e-05 -2.64538e-24)
(0.00789153 2.48205e-05 3.5697e-25)
(0.00791173 2.32898e-05 -3.5107e-25)
(0.00793045 2.16367e-05 -3.39931e-25)
(0.00794765 1.98778e-05 -6.01771e-26)
(0.00796327 1.80296e-05 5.283e-25)
(0.00797728 1.61081e-05 1.1985e-26)
(0.00798966 1.41289e-05 -2.11524e-25)
(0.00800035 1.21071e-05 -3.84555e-27)
(0.00633282 2.05084e-05 -1.71782e-25)
(0.00635681 2.04013e-05 -5.50002e-26)
(0.00638017 2.01674e-05 -2.72131e-24)
(0.00640274 1.97572e-05 7.43708e-25)
(0.00642441 1.91966e-05 -1.88813e-24)
(0.00644509 1.85021e-05 1.38682e-24)
(0.00646471 1.76862e-05 2.50663e-24)
(0.00648319 1.67611e-05 1.78843e-24)
(0.00650046 1.57387e-05 -2.44812e-24)
(0.00651647 1.46309e-05 7.37097e-25)
(0.00653116 1.34491e-05 5.41532e-25)
(0.00654448 1.2205e-05 -6.58902e-25)
(0.0065564 1.09097e-05 3.44759e-25)
(0.00656689 9.57469e-06 3.01905e-26)
(0.0065759 8.21081e-06 8.63836e-27)
(0.00507062 1.30201e-05 -6.7402e-25)
(0.00509011 1.29662e-05 -9.11098e-25)
(0.0051092 1.28409e-05 -1.51405e-25)
(0.00512769 1.25974e-05 2.25558e-24)
(0.00514551 1.22596e-05 -1.5708e-24)
(0.00516257 1.18351e-05 -2.81824e-25)
(0.00517878 1.13311e-05 2.45759e-24)
(0.00519409 1.07554e-05 -2.5264e-26)
(0.00520842 1.01153e-05 -5.0136e-25)
(0.00522171 9.41849e-06 -1.59962e-24)
(0.00523392 8.67236e-06 2.62038e-25)
(0.005245 7.88474e-06 9.38939e-25)
(0.00525491 7.06284e-06 -1.15685e-25)
(0.00526364 6.21485e-06 -3.40266e-26)
(0.00527114 5.34807e-06 8.55386e-27)
(0.0039235 7.67129e-06 -1.47518e-25)
(0.00393864 7.64999e-06 9.80676e-27)
(0.00395357 7.59307e-06 1.08744e-24)
(0.00396809 7.46353e-06 7.10817e-25)
(0.00398214 7.27951e-06 -5.10322e-25)
(0.00399563 7.04304e-06 -1.21214e-24)
(0.0040085 6.75822e-06 4.73912e-25)
(0.00402068 6.42935e-06 -1.94195e-24)
(0.00403212 6.06073e-06 1.48669e-24)
(0.00404276 5.65695e-06 6.85066e-25)
(0.00405255 5.22244e-06 -6.89043e-26)
(0.00406146 4.76203e-06 -6.59511e-25)
(0.00406946 4.2801e-06 8.91119e-26)
(0.00407652 3.78205e-06 -3.10867e-26)
(0.0040826 3.27283e-06 4.83139e-27)
(0.00288562 4.04168e-06 -2.71904e-25)
(0.00289671 4.03331e-06 7.57898e-27)
(0.00290772 4.01274e-06 8.74499e-25)
(0.00291847 3.95359e-06 -5.4592e-25)
(0.00292892 3.86661e-06 2.19549e-24)
(0.002939 3.75127e-06 -3.97456e-24)
(0.00294865 3.6096e-06 3.17765e-24)
(0.00295782 3.44377e-06 -2.5873e-24)
(0.00296646 3.25597e-06 1.7972e-24)
(0.00297453 3.04867e-06 -1.09424e-24)
(0.00298199 2.82421e-06 3.6675e-25)
(0.00298881 2.5853e-06 4.74835e-26)
(0.00299494 2.33427e-06 4.33078e-26)
(0.00300039 2.07441e-06 -4.41737e-26)
(0.00300512 1.80912e-06 2.162e-27)
(0.00195024 1.75597e-06 4.1292e-25)
(0.00195763 1.74749e-06 4.39944e-25)
(0.00196504 1.74125e-06 -1.88541e-24)
(0.00197229 1.71948e-06 1.3706e-24)
(0.00197938 1.6864e-06 -1.71717e-26)
(0.00198625 1.64101e-06 3.35997e-25)
(0.00199286 1.58413e-06 -4.22047e-25)
(0.00199917 1.51658e-06 -8.36e-25)
(0.00200515 1.43927e-06 8.12971e-25)
(0.00201075 1.35327e-06 6.36959e-26)
(0.00201596 1.25958e-06 -5.59782e-25)
(0.00202074 1.15944e-06 2.05074e-25)
(0.00202507 1.05382e-06 8.81743e-26)
(0.00202894 9.44422e-07 -1.3565e-26)
(0.00203234 8.33529e-07 -1.5621e-27)
(0.00111 5.21929e-07 -4.16969e-25)
(0.00111409 5.20681e-07 1.2689e-24)
(0.00111823 5.24549e-07 7.42127e-25)
(0.00112231 5.23041e-07 -1.3506e-24)
(0.00112632 5.17128e-07 -1.57571e-25)
(0.00113023 5.06689e-07 -1.37052e-25)
(0.00113401 4.92148e-07 4.06285e-25)
(0.00113764 4.73868e-07 -6.74612e-25)
(0.0011411 4.52181e-07 8.79254e-25)
(0.00114436 4.27461e-07 -4.32586e-25)
(0.00114741 4.00001e-07 -2.46222e-25)
(0.00115023 3.70196e-07 1.36436e-25)
(0.0011528 3.38225e-07 -1.04176e-25)
(0.00115511 3.04602e-07 8.44038e-26)
(0.00115716 2.70485e-07 -3.63016e-27)
(0.000357269 9.55166e-08 -2.97847e-27)
(0.000358473 1.33054e-07 2.46241e-25)
(0.000359713 1.62537e-07 2.7779e-25)
(0.000360949 1.82377e-07 -4.39308e-25)
(0.000362181 1.94284e-07 8.90835e-25)
(0.000363396 1.99537e-07 -9.67246e-25)
(0.000364586 1.99197e-07 6.11398e-26)
(0.000365739 1.94058e-07 4.98117e-25)
(0.000366847 1.84706e-07 -6.86085e-25)
(0.000367903 1.71586e-07 -1.0526e-25)
(0.000368897 1.54998e-07 4.10018e-25)
(0.000369825 1.35177e-07 -1.73337e-25)
(0.00037068 1.12202e-07 -4.02927e-26)
(0.000371459 8.61759e-08 2.98988e-26)
(0.000372157 5.74336e-08 -3.20556e-28)
(0.000929075 -0.000258415 1.00022e-25)
(0.00106031 -0.000188702 2.65523e-24)
(0.00128038 -0.000115654 -7.77102e-24)
(0.00150414 -5.69387e-05 1.15678e-23)
(0.00171734 -1.06104e-05 -4.34372e-24)
(0.00192523 2.43852e-05 -4.36169e-24)
(0.00212818 5.07417e-05 5.03451e-24)
(0.00232728 7.07013e-05 -1.01134e-23)
(0.00252373 8.60945e-05 5.90575e-25)
(0.0027185 9.84032e-05 6.45289e-24)
(0.00291241 0.000108851 -1.24325e-24)
(0.00310614 0.000118505 1.35271e-24)
(0.00330035 0.000128393 -1.27061e-25)
(0.00349577 0.000139546 8.71448e-25)
(0.0036935 0.000152991 -3.21226e-24)
(0.003895 0.000169823 1.77134e-24)
(0.00410244 0.00019083 -5.8555e-25)
(0.00431919 0.000216259 2.28198e-26)
(0.00455031 0.000245889 1.46731e-24)
(0.00480157 0.000278075 -9.32145e-25)
(0.00508048 0.000307381 1.21612e-25)
(0.00539272 0.000323969 -1.07141e-25)
(0.00571508 0.000311207 2.04541e-25)
(0.00600488 0.000264072 7.83281e-25)
(0.00624676 0.000188123 -1.40814e-24)
(0.00644003 8.95373e-05 -9.55639e-25)
(0.00658607 -2.58854e-05 2.22132e-26)
(0.00668667 -0.00015342 2.40068e-24)
(0.00674312 -0.000289124 3.43463e-24)
(0.00675612 -0.000429027 -6.76925e-24)
(0.00672596 -0.00056853 6.07541e-24)
(0.00665286 -0.000702179 -5.79031e-24)
(0.00653731 -0.000823671 1.61601e-24)
(0.00638023 -0.000925981 3.0469e-25)
(0.00618311 -0.0010015 -3.79531e-25)
(0.00594785 -0.00104205 4.51883e-24)
(0.00567668 -0.00103861 -3.66078e-25)
(0.00537198 -0.000980646 2.26269e-24)
(0.00503635 -0.000854654 1.56051e-24)
(0.00467319 -0.000642226 -1.01687e-23)
(0.00428631 -0.000320155 -1.32404e-25)
(0.00388117 0.000131582 4.90618e-24)
(0.00344951 0.000695217 1.87317e-24)
(0.00301292 0.0012767 -7.16682e-24)
(0.00276654 0.00154358 -3.81079e-25)
(0.00174138 -0.00033816 -2.98538e-24)
(0.00179403 -0.000301552 -4.37785e-24)
(0.00192625 -0.00023091 9.09087e-24)
(0.00209336 -0.00016439 4.46386e-24)
(0.00227005 -0.000107423 -1.56421e-23)
(0.00245187 -6.17478e-05 1.69741e-23)
(0.00263504 -2.57777e-05 -6.12225e-24)
(0.00281822 2.60589e-06 5.03641e-24)
(0.00300122 2.53275e-05 -6.64737e-24)
(0.00318424 4.40402e-05 7.04117e-26)
(0.00336763 6.01003e-05 -3.61146e-24)
(0.00355183 7.46977e-05 7.17337e-24)
(0.00373732 8.894e-05 -3.99206e-24)
(0.00392475 0.000103899 -3.67396e-24)
(0.00411513 0.000120612 -2.56137e-24)
(0.00430986 0.00014017 4.70085e-24)
(0.00451097 0.000163319 -6.46054e-25)
(0.00472169 0.000190234 2.66485e-24)
(0.00494688 0.000220696 4.88906e-25)
(0.005192 0.000253101 -8.31681e-25)
(0.00546425 0.000282182 -3.66145e-25)
(0.00576924 0.000298511 -2.28684e-25)
(0.0060849 0.000286172 1.11051e-24)
(0.00637 0.000240707 1.34384e-24)
(0.00660943 0.000167622 -1.21505e-24)
(0.00680216 7.28881e-05 -5.83162e-24)
(0.00694918 -3.77856e-05 7.85771e-24)
(0.00705193 -0.000159641 -5.50684e-24)
(0.00711147 -0.000288609 1.85185e-24)
(0.00712846 -0.000420604 -1.18619e-24)
(0.00710331 -0.000550942 8.99725e-24)
(0.00703649 -0.000674139 -1.22511e-23)
(0.00692887 -0.00078392 6.55366e-24)
(0.00678188 -0.000873335 -3.22332e-24)
(0.00659766 -0.000934867 1.13802e-26)
(0.00637905 -0.000960426 3.90834e-25)
(0.00612959 -0.000941113 9.77676e-24)
(0.00585366 -0.000866604 -1.97772e-24)
(0.005557 -0.00072397 -9.27828e-24)
(0.00524819 -0.000495959 -6.39287e-24)
(0.00494056 -0.000160968 1.46365e-23)
(0.00465677 0.000299653 -1.48451e-23)
(0.00442331 0.000868716 -4.06979e-24)
(0.00428525 0.00143701 1.00938e-23)
(0.00430131 0.00163629 3.72126e-24)
(0.00269616 -0.000344094 -3.55308e-26)
(0.00270133 -0.00034651 -5.08075e-24)
(0.00275317 -0.000306687 9.69109e-24)
(0.0028546 -0.00025007 8.58739e-24)
(0.00298104 -0.000193306 -1.38939e-23)
(0.00312384 -0.000143013 2.70313e-25)
(0.00327622 -0.000100768 1.39169e-24)
(0.00343434 -6.58108e-05 1.54423e-23)
(0.00359627 -3.67874e-05 -1.8325e-23)
(0.00376106 -1.22519e-05 1.14075e-23)
(0.00392833 9.09852e-06 3.52119e-24)
(0.00409805 2.84626e-05 -1.9221e-23)
(0.00427045 4.69675e-05 6.94975e-24)
(0.00444593 6.56888e-05 2.81844e-24)
(0.00462539 8.56492e-05 -5.99616e-24)
(0.00481009 0.000107927 9.88503e-24)
(0.00500191 0.000133218 -7.11143e-24)
(0.00520391 0.000161607 -2.2373e-25)
(0.00542074 0.000192882 5.26923e-25)
(0.00565748 0.000225487 6.295e-25)
(0.00592102 0.00025432 7.48053e-26)
(0.00621679 0.00027036 3.99161e-25)
(0.00652399 0.000258411 -1.1227e-24)
(0.00680293 0.000214605 3.33562e-24)
(0.00703871 0.000144412 -5.25009e-24)
(0.00722996 5.36011e-05 3.01634e-24)
(0.00737723 -5.22126e-05 -6.98657e-24)
(0.00748161 -0.000168216 9.41455e-24)
(0.00754392 -0.000290227 -8.72872e-24)
(0.00756479 -0.000414041 3.34851e-25)
(0.00754475 -0.000534894 -7.40731e-26)
(0.00748455 -0.000647284 1.43419e-23)
(0.00738548 -0.00074499 -4.68997e-24)
(0.00724953 -0.000821187 -1.51456e-24)
(0.00707957 -0.000868557 -1.10796e-24)
(0.00687942 -0.000879303 8.09984e-24)
(0.00665402 -0.000844993 -6.98188e-24)
(0.00640977 -0.000756161 1.45589e-23)
(0.00615539 -0.000601624 -2.90956e-23)
(0.00590391 -0.000367627 1.13692e-23)
(0.00567542 -3.87591e-05 4.28817e-24)
(0.00550158 0.000394223 7.41019e-24)
(0.00541997 0.000905198 -9.24971e-24)
(0.00546005 0.00138212 3.01909e-24)
(0.00560934 0.00153577 -1.91423e-24)
(0.00377766 -0.000324432 -1.29115e-24)
(0.00375465 -0.000351231 -2.02654e-24)
(0.00375834 -0.000338171 -8.74478e-24)
(0.0037967 -0.000304372 2.1875e-24)
(0.00386882 -0.000257985 1.47978e-24)
(0.00396439 -0.000210854 7.23188e-24)
(0.00407673 -0.000167623 -1.56396e-23)
(0.00420094 -0.000129555 5.87065e-24)
(0.00433373 -9.64723e-05 2.02599e-23)
(0.00447304 -6.75981e-05 -5.35898e-24)
(0.0046177 -4.19465e-05 -5.10599e-24)
(0.0047671 -1.84931e-05 -8.205e-25)
(0.00492107 3.79847e-06 2.72594e-24)
(0.00507976 2.59384e-05 -5.37377e-24)
(0.00524387 4.88872e-05 1.21694e-24)
(0.00541449 7.3685e-05 -5.04411e-25)
(0.00559329 0.000100955 -2.88676e-24)
(0.00578316 0.000130665 9.47393e-25)
(0.00598851 0.000162612 5.20748e-24)
(0.00621405 0.000195297 -5.6572e-25)
(0.00646627 0.000223776 -1.24256e-24)
(0.0067504 0.000239433 -3.54902e-25)
(0.00704693 0.000227815 -1.98516e-24)
(0.00731782 0.000185666 -1.0379e-25)
(0.00754839 0.000118426 -4.68364e-24)
(0.00773686 3.16639e-05 8.08774e-24)
(0.00788331 -6.91076e-05 -7.02791e-24)
(0.00798846 -0.000179016 1.35631e-23)
(0.00805294 -0.000293768 -1.17646e-23)
(0.00807731 -0.000409059 2.61224e-24)
(0.00806227 -0.00052007 5.0305e-24)
(0.00800889 -0.000621323 -1.30005e-25)
(0.00791888 -0.000706723 -3.34926e-25)
(0.00779484 -0.000769675 -2.46491e-25)
(0.00764039 -0.000803229 -4.81561e-25)
(0.00746033 -0.000800147 -3.07229e-24)
(0.00726088 -0.000752885 1.7299e-23)
(0.00705021 -0.000653492 -8.91512e-24)
(0.00683925 -0.000493541 1.65876e-25)
(0.00664355 -0.000264312 -2.8201e-23)
(0.00648517 4.12364e-05 2.16953e-23)
(0.00639499 0.000421532 -8.83767e-24)
(0.00640584 0.000845963 1.53105e-24)
(0.00652932 0.00122546 1.23011e-23)
(0.00673526 0.00138761 -3.31737e-24)
(0.00498149 -0.000294264 -5.36987e-24)
(0.00494773 -0.000330568 1.10483e-23)
(0.00492261 -0.000336476 3.2345e-24)
(0.00492085 -0.000323278 1.39886e-23)
(0.00494192 -0.000295142 -3.44865e-23)
(0.00498966 -0.000257752 -1.11704e-24)