/*--------------------------------*- C++ -*----------------------------------*\
| =========                 |                                                 |
| \\      /  F ield         | OpenFOAM: The Open Source CFD Toolbox           |
|  \\    /   O peration     | Version:  2312                                  |
|   \\  /    A nd           | Website:  www.openfoam.com                      |
|    \\/     M anipulation  |                                                 |
\*---------------------------------------------------------------------------*/
FoamFile
{
    version     2.0;
    format      ascii;
    arch        "LSB;label=32;scalar=64";
    class       volScalarField;
    location    "84";
    object      p;
}
// * * * * * * * * * * * * * * * * * * * * * * * * * * * * * * * * * * * * * //

dimensions      [0 2 -2 0 0 0 0];

internalField   nonuniform List<scalar> 
4800
(
-7.15844e-13
-9.83812e-07
-1.81691e-06
-2.53803e-06
-3.1871e-06
-3.77081e-06
-4.29639e-06
-4.77318e-06
-5.20876e-06
-5.6082e-06
-5.97553e-06
-6.31091e-06
-6.60528e-06
-7.1013e-06
-8.77481e-06
1.00142e-08
-9.73117e-07
-1.80549e-06
-2.52627e-06
-3.17569e-06
-3.76038e-06
-4.2878e-06
-4.76774e-06
-5.20864e-06
-5.61751e-06
-6.00317e-06
-6.37937e-06
-6.75809e-06
-7.24669e-06
-8.0897e-06
2.05707e-08
-9.61614e-07
-1.79332e-06
-2.5134e-06
-3.16212e-06
-3.7473e-06
-4.27596e-06
-4.75825e-06
-5.20319e-06
-5.61856e-06
-6.01429e-06
-6.4044e-06
-6.79496e-06
-7.18978e-06
-7.5579e-06
3.14434e-08
-9.49087e-07
-1.77941e-06
-2.49864e-06
-3.1454e-06
-3.73047e-06
-4.25947e-06
-4.74233e-06
-5.18819e-06
-5.60393e-06
-5.99655e-06
-6.3709e-06
-6.71617e-06
-6.99639e-06
-7.13527e-06
4.38912e-08
-9.34128e-07
-1.7621e-06
-2.48063e-06
-3.12336e-06
-3.70714e-06
-4.2352e-06
-4.71612e-06
-5.15846e-06
-5.56673e-06
-5.94267e-06
-6.28103e-06
-6.55969e-06
-6.73633e-06
-6.75217e-06
5.94737e-08
-9.15123e-07
-1.73963e-06
-2.45676e-06
-3.09435e-06
-3.67433e-06
-4.19906e-06
-4.67446e-06
-5.10738e-06
-5.49913e-06
-5.84596e-06
-6.13602e-06
-6.34528e-06
-6.44151e-06
-6.39478e-06
8.07214e-08
-8.89578e-07
-1.70945e-06
-2.4229e-06
-3.05543e-06
-3.62857e-06
-4.14593e-06
-4.61089e-06
-5.02742e-06
-5.39366e-06
-5.70215e-06
-5.93938e-06
-6.08667e-06
-6.127e-06
-6.05252e-06
1.11849e-07
-8.53491e-07
-1.66756e-06
-2.37495e-06
-3.001e-06
-3.56423e-06
-4.06929e-06
-4.5179e-06
-4.91093e-06
-5.24441e-06
-5.51001e-06
-5.69694e-06
-5.79483e-06
-5.79973e-06
-5.71597e-06
1.59137e-07
-8.00966e-07
-1.60805e-06
-2.3074e-06
-2.92387e-06
-3.47354e-06
-3.96121e-06
-4.38742e-06
-4.75097e-06
-5.04749e-06
-5.27053e-06
-5.41431e-06
-5.47638e-06
-5.46115e-06
-5.37805e-06
2.30827e-07
-7.24175e-07
-1.52316e-06
-2.2123e-06
-2.81578e-06
-3.34783e-06
-3.81312e-06
-4.21177e-06
-4.54207e-06
-4.80102e-06
-4.98568e-06
-5.09555e-06
-5.13389e-06
-5.10936e-06
-5.0325e-06
3.36465e-07
-6.1381e-07
-1.40361e-06
-2.08021e-06
-2.66739e-06
-3.17799e-06
-3.61682e-06
-3.98463e-06
-4.28079e-06
-4.50485e-06
-4.6577e-06
-4.74304e-06
-4.76746e-06
-4.74102e-06
-4.67358e-06
4.8632e-07
-4.59601e-07
-1.23918e-06
-1.90097e-06
-2.46906e-06
-2.95539e-06
-3.36551e-06
-3.70181e-06
-3.96588e-06
-4.16018e-06
-4.28881e-06
-4.35815e-06
-4.3762e-06
-4.35284e-06
-4.29662e-06
6.91678e-07
-2.50217e-07
-1.01853e-06
-1.66433e-06
-2.21149e-06
-2.67248e-06
-3.0542e-06
-3.36126e-06
-3.59783e-06
-3.76902e-06
-3.8811e-06
-3.94178e-06
-3.95926e-06
-3.94249e-06
-3.89863e-06
9.657e-07
2.73604e-08
-7.30198e-07
-1.35938e-06
-1.88556e-06
-2.32254e-06
-2.67903e-06
-2.96187e-06
-3.17757e-06
-3.33313e-06
-3.43605e-06
-3.49439e-06
-3.51594e-06
-3.50853e-06
-3.47807e-06
1.32409e-06
3.88008e-07
-3.60371e-07
-9.74407e-07
-1.48202e-06
-1.89907e-06
-2.23618e-06
-2.5021e-06
-2.70498e-06
-2.85295e-06
-2.95394e-06
-3.01579e-06
-3.04562e-06
-3.0502e-06
-3.0345e-06
1.78385e-06
8.47689e-07
1.0526e-07
-4.97561e-07
-9.91787e-07
-1.39572e-06
-1.72175e-06
-1.97984e-06
-2.17898e-06
-2.32778e-06
-2.43419e-06
-2.5056e-06
-2.54838e-06
-2.56833e-06
-2.56968e-06
2.35851e-06
1.42094e-06
6.79933e-07
8.15139e-08
-4.0759e-07
-8.07853e-07
-1.13305e-06
-1.39376e-06
-1.59919e-06
-1.75784e-06
-1.87743e-06
-1.96489e-06
-2.02605e-06
-2.06598e-06
-2.08835e-06
3.05278e-06
2.11479e-06
1.37045e-06
7.67792e-07
2.73105e-07
-1.35078e-07
-4.71101e-07
-7.45806e-07
-9.68362e-07
-1.14689e-06
-1.2886e-06
-1.39982e-06
-1.48591e-06
-1.55144e-06
-1.59982e-06
3.8627e-06
2.92742e-06
2.17496e-06
1.55873e-06
1.04698e-06
6.185e-07
2.59137e-07
-4.16628e-08
-2.92684e-07
-5.01643e-07
-6.75239e-07
-8.19228e-07
-9.38691e-07
-1.0377e-06
-1.11909e-06
4.76927e-06
3.84292e-06
3.07982e-06
2.44212e-06
1.90296e-06
1.44297e-06
1.04856e-06
7.09918e-07
4.18907e-07
1.68399e-07
-4.77028e-08
-2.34698e-07
-3.97136e-07
-5.38961e-07
-6.63409e-07
5.65669e-06
4.74215e-06
3.96757e-06
3.30464e-06
2.73211e-06
2.23373e-06
1.79738e-06
1.4141e-06
1.07656e-06
7.78232e-07
5.1333e-07
2.77056e-07
6.55209e-08
-1.24458e-07
-2.95616e-07
6.38991e-06
5.49089e-06
4.71109e-06
4.02914e-06
3.42856e-06
2.89622e-06
2.42183e-06
1.99751e-06
1.61669e-06
1.27347e-06
9.6277e-07
6.80452e-07
4.23056e-07
1.87571e-07
-2.8804e-08
6.93348e-06
6.05535e-06
5.27794e-06
4.58581e-06
3.96625e-06
3.40867e-06
2.90463e-06
2.44738e-06
2.03102e-06
1.65031e-06
1.30074e-06
9.78638e-07
6.80961e-07
4.05196e-07
1.49118e-07
7.3261e-06
6.47163e-06
5.70293e-06
5.00832e-06
4.37788e-06
3.80324e-06
3.27754e-06
2.79494e-06
2.35026e-06
1.93898e-06
1.55737e-06
1.20248e-06
8.71874e-07
5.63504e-07
2.75454e-07
7.60182e-06
6.77323e-06
6.01777e-06
5.32638e-06
4.69153e-06
4.10664e-06
3.56601e-06
3.06465e-06
2.59825e-06
2.16321e-06
1.75661e-06
1.37606e-06
1.01948e-06
6.85058e-07
3.71106e-07
7.79272e-06
6.99063e-06
6.25073e-06
5.56612e-06
4.93129e-06
4.34102e-06
3.79056e-06
3.27581e-06
2.79338e-06
2.34046e-06
1.9147e-06
1.5141e-06
1.13692e-06
7.81676e-07
4.46985e-07
7.92363e-06
7.14703e-06
6.4233e-06
5.74752e-06
5.11564e-06
4.52335e-06
3.96681e-06
3.44282e-06
2.94874e-06
2.48238e-06
2.04187e-06
1.62561e-06
1.23222e-06
8.60566e-07
5.09561e-07
8.01256e-06
7.2597e-06
6.55198e-06
5.88597e-06
5.25856e-06
4.66628e-06
4.10617e-06
3.5758e-06
3.07318e-06
2.59662e-06
2.1447e-06
1.7162e-06
1.31009e-06
9.25506e-07
5.61614e-07
8.07259e-06
7.34136e-06
6.64872e-06
5.9924e-06
5.37001e-06
4.77887e-06
4.21677e-06
3.68197e-06
3.17298e-06
2.68859e-06
2.22774e-06
1.78957e-06
1.37333e-06
9.78418e-07
6.04214e-07
8.1128e-06
7.40083e-06
6.72193e-06
6.07473e-06
5.45739e-06
4.86791e-06
4.30479e-06
3.7668e-06
3.25293e-06
2.76236e-06
2.29436e-06
1.84839e-06
1.42394e-06
1.02064e-06
6.38072e-07
8.1394e-06
7.44439e-06
6.77781e-06
6.1389e-06
5.52628e-06
4.93862e-06
4.37497e-06
3.83457e-06
3.31681e-06
2.8212e-06
2.34734e-06
1.89493e-06
1.4637e-06
1.05348e-06
6.64022e-07
8.15677e-06
7.47661e-06
6.82092e-06
6.18935e-06
5.58097e-06
4.99504e-06
4.43108e-06
3.88874e-06
3.36774e-06
2.86791e-06
2.38911e-06
1.93128e-06
1.49434e-06
1.0783e-06
6.83073e-07
8.16798e-06
7.50079e-06
6.85461e-06
6.22941e-06
5.62473e-06
5.04034e-06
4.47615e-06
3.93214e-06
3.40835e-06
2.90487e-06
2.42181e-06
1.95931e-06
1.51747e-06
1.09646e-06
6.96325e-07
8.17516e-06
7.51925e-06
6.88133e-06
6.26162e-06
5.66012e-06
5.07702e-06
4.51257e-06
3.96705e-06
3.44077e-06
2.93407e-06
2.44727e-06
1.98068e-06
1.53457e-06
1.10925e-06
7.0487e-07
8.17975e-06
7.53365e-06
6.90286e-06
6.28786e-06
5.68906e-06
5.107e-06
4.54223e-06
3.99529e-06
3.46676e-06
2.95717e-06
2.46702e-06
1.9968e-06
1.54693e-06
1.11781e-06
7.09716e-07
8.18272e-06
7.54514e-06
6.92048e-06
6.3095e-06
5.71297e-06
5.13172e-06
4.56656e-06
4.01829e-06
3.48768e-06
2.97546e-06
2.4823e-06
2.00883e-06
1.5556e-06
1.12312e-06
7.11754e-07
8.18468e-06
7.55448e-06
6.93508e-06
6.32752e-06
5.73287e-06
5.15222e-06
4.58662e-06
4.03709e-06
3.50456e-06
2.98995e-06
2.49408e-06
2.0177e-06
1.56147e-06
1.12601e-06
7.11737e-07
8.18603e-06
7.5623e-06
6.94744e-06
6.34279e-06
5.74971e-06
5.1695e-06
4.60342e-06
4.05267e-06
3.51837e-06
3.00157e-06
2.50322e-06
2.02419e-06
1.56524e-06
1.12707e-06
7.10193e-07
8.18704e-06
7.56928e-06
6.95856e-06
6.35655e-06
5.76483e-06
5.18495e-06
4.61833e-06
4.06636e-06
3.53032e-06
3.01138e-06
2.51063e-06
2.02905e-06
1.56748e-06
1.12671e-06
7.07349e-07
8.18779e-06
7.57547e-06
6.96861e-06
6.36905e-06
5.77857e-06
5.19889e-06
4.63166e-06
4.07843e-06
3.54065e-06
3.01963e-06
2.51658e-06
2.0326e-06
1.56863e-06
1.12551e-06
7.03845e-07
-1.00568e-05
-7.62063e-06
-6.14318e-06
-5.16081e-06
-4.38602e-06
-3.8009e-06
-3.35386e-06
-3.00769e-06
-2.73541e-06
-2.51404e-06
-2.3234e-06
-2.14487e-06
-1.96064e-06
-1.75398e-06
-1.50917e-06
-1.21295e-06
-8.60145e-07
-4.57871e-07
-3.21571e-08
3.57935e-07
6.24093e-07
6.5543e-07
3.85916e-07
-4.40803e-08
-4.59192e-07
-7.53638e-07
-8.62811e-07
-7.48672e-07
-3.8808e-07
2.34761e-07
1.13111e-06
2.30201e-06
3.72932e-06
5.388e-06
7.23722e-06
9.22452e-06
1.12876e-05
1.3355e-05
1.53438e-05
1.71526e-05
1.8644e-05
1.96263e-05
1.96959e-05
1.84692e-05
1.4592e-05
-8.38627e-06
-7.09182e-06
-5.96098e-06
-5.08077e-06
-4.35156e-06
-3.78114e-06
-3.33889e-06
-2.99426e-06
-2.72259e-06
-2.5017e-06
-2.31158e-06
-2.13353e-06
-1.94969e-06
-1.74329e-06
-1.49811e-06
-1.20284e-06
-8.50723e-07
-4.49403e-07
-2.45385e-08
3.65698e-07
6.3488e-07
6.74317e-07
4.17903e-07
2.40563e-09
-4.00195e-07
-6.85723e-07
-7.89932e-07
-6.74538e-07
-3.16419e-07
2.9919e-07
1.18264e-06
2.33349e-06
3.73044e-06
5.34611e-06
7.13651e-06
9.04475e-06
1.10022e-05
1.29279e-05
1.4723e-05
1.6259e-05
1.73459e-05
1.76863e-05
1.67125e-05
1.36285e-05
7.41325e-06
-7.51515e-06
-6.68668e-06
-5.77313e-06
-4.98647e-06
-4.30784e-06
-3.7578e-06
-3.32314e-06
-2.98111e-06
-2.71008e-06
-2.48928e-06
-2.29914e-06
-2.12101e-06
-1.93704e-06
-1.73048e-06
-1.48536e-06
-1.19011e-06
-8.38688e-07
-4.38602e-07
-1.50758e-08
3.74734e-07
6.46588e-07
6.94415e-07
4.52218e-07
5.28617e-08
-3.3562e-07
-6.11003e-07
-7.09627e-07
-5.93035e-07
-2.38448e-07
3.67623e-07
1.23437e-06
2.3595e-06
3.71763e-06
5.27848e-06
6.99403e-06
8.80193e-06
1.06261e-05
1.23744e-05
1.39322e-05
1.51481e-05
1.58021e-05
1.55679e-05
1.39412e-05
1.04073e-05
4.85317e-06
-6.96801e-06
-6.35913e-06
-5.61456e-06
-4.90229e-06
-4.27177e-06
-3.74286e-06
-3.31558e-06
-2.9749e-06
-2.70281e-06
-2.48035e-06
-2.28862e-06
-2.10912e-06
-1.92403e-06
-1.7166e-06
-1.47104e-06
-1.17568e-06
-8.24989e-07
-4.26388e-07
-4.5776e-09
3.84407e-07
6.58736e-07
7.15262e-07
4.88277e-07
1.06502e-07
-2.66282e-07
-5.30018e-07
-6.21821e-07
-5.0319e-07
-1.51998e-07
4.43648e-07
1.29121e-06
2.38647e-06
3.69847e-06
5.19344e-06
6.81855e-06
8.50521e-06
1.01694e-05
1.17091e-05
1.29973e-05
1.38721e-05
1.41168e-05
1.34506e-05
1.15378e-05
8.14664e-06
3.53044e-06
-6.54549e-06
-6.07218e-06
-5.4611e-06
-4.83466e-06
-4.24808e-06
-3.74024e-06
-3.31962e-06
-2.97832e-06
-2.70257e-06
-2.47576e-06
-2.28003e-06
-2.09715e-06
-1.90941e-06
-1.70005e-06
-1.45336e-06
-1.15782e-06
-8.08165e-07
-4.11718e-07
7.48401e-09
3.94719e-07
6.70923e-07
7.36322e-07
5.25706e-07
1.63159e-07
-1.92289e-07
-4.43053e-07
-5.27302e-07
-4.06726e-07
-6.00661e-08
5.22263e-07
1.34587e-06
2.40467e-06
3.66059e-06
5.07631e-06
6.59399e-06
8.13897e-06
9.6205e-06
1.09297e-05
1.19362e-05
1.24829e-05
1.23842e-05
1.14395e-05
9.47631e-06
6.46301e-06
2.69301e-06
-6.19049e-06
-5.81075e-06
-5.3059e-06
-4.76483e-06
-4.23247e-06
-3.74841e-06
-3.3353e-06
-2.99239e-06
-2.71066e-06
-2.47667e-06
-2.27416e-06
-2.08538e-06
-1.89299e-06
-1.68027e-06
-1.43161e-06
-1.13566e-06
-7.87409e-07
-3.94023e-07
2.13273e-08
4.05481e-07
6.82584e-07
7.568e-07
5.63688e-07
2.22084e-07
-1.14347e-07
-3.5087e-07
-4.27057e-07
-3.05104e-07
3.52905e-08
5.98523e-07
1.39414e-06
2.4075e-06
3.59543e-06
4.917e-06
6.30974e-06
7.69402e-06
8.9752e-06
1.0043e-05
1.07727e-05
1.1027e-05
1.06666e-05
9.57367e-06
7.6944e-06
5.10564e-06
2.07558e-06
-5.86641e-06
-5.55805e-06
-5.14504e-06
-4.67682e-06
-4.20704e-06
-3.75723e-06
-3.35672e-06
-3.01408e-06
-2.72573e-06
-2.48275e-06
-2.27112e-06
-2.07399e-06
-1.87481e-06
-1.65708e-06
-1.40545e-06
-1.10882e-06
-7.62442e-07
-3.73215e-07
3.67664e-08
4.16135e-07
6.928e-07
7.75496e-07
6.00906e-07
2.81914e-07
-3.38494e-08
-2.54913e-07
-3.22691e-07
-2.00091e-07
1.30864e-07
6.67997e-07
1.43255e-06
2.38952e-06
3.49615e-06
4.70815e-06
5.95921e-06
7.16693e-06
8.23649e-06
9.06312e-06
9.53588e-06
9.54676e-06
9.00501e-06
7.85982e-06
6.12815e-06
3.92254e-06
1.45818e-06
-5.55183e-06
-5.29966e-06
-4.96394e-06
-4.5705e-06
-4.15491e-06
-3.74934e-06
-3.3705e-06
-3.03432e-06
-2.74178e-06
-2.49039e-06
-2.26876e-06
-2.06161e-06
-1.85405e-06
-1.62987e-06
-1.37438e-06
-1.07695e-06
-7.33182e-07
-3.49568e-07
5.32545e-08
4.25666e-07
7.00119e-07
7.90615e-07
6.35397e-07
3.40573e-07
4.70021e-08
-1.57547e-07
-2.16814e-07
-9.49282e-08
2.17674e-07
7.31549e-07
1.45572e-06
2.343e-06
3.35431e-06
4.44204e-06
5.53696e-06
6.557e-06
7.41218e-06
8.00844e-06
8.25517e-06
8.07596e-06
7.4221e-06
6.288e-06
4.72416e-06
2.84205e-06
8.03752e-07
-5.23565e-06
-5.02834e-06
-4.75562e-06
-4.42997e-06
-4.07346e-06
-3.71115e-06
-3.36094e-06
-3.03922e-06
-2.74946e-06
-2.49368e-06
-2.26214e-06
-2.04474e-06
-1.8285e-06
-1.5972e-06
-1.33755e-06
-1.03965e-06
-6.99587e-07
-3.23726e-07
6.94987e-08
4.32389e-07
7.02362e-07
7.99554e-07
6.64342e-07
3.95064e-07
1.24966e-07
-6.24166e-08
-1.13175e-07
2.29622e-09
2.94584e-07
7.8531e-07
1.45222e-06
2.25691e-06
3.16061e-06
4.11073e-06
5.03864e-06
5.86609e-06
6.51222e-06
6.89808e-06
6.95565e-06
6.63727e-06
5.92527e-06
4.83964e-06
3.44098e-06
1.82546e-06
1.11783e-07
-4.91065e-06
-4.73984e-06
-4.51805e-06
-4.25054e-06
-3.94997e-06
-3.63358e-06
-3.31767e-06
-3.01548e-06
-2.73826e-06
-2.48251e-06
-2.24371e-06
-2.01842e-06
-1.79476e-06
-1.55676e-06
-1.29378e-06
-9.96849e-07
-6.6226e-07
-2.96049e-07
8.31053e-08
4.33616e-07
6.96385e-07
7.98667e-07
6.83794e-07
4.41193e-07
1.95465e-07
2.53296e-08
-1.95386e-08
8.70782e-08
3.62579e-07
8.11031e-07
1.4089e-06
2.12112e-06
2.90523e-06
3.70683e-06
4.46126e-06
5.09838e-06
5.54839e-06
5.74983e-06
5.6562e-06
5.24258e-06
4.51105e-06
3.49285e-06
2.24612e-06
8.48287e-07
-6.14533e-07
-4.57102e-06
-4.43068e-06
-4.25046e-06
-4.03193e-06
-3.78174e-06
-3.51106e-06
-3.23245e-06
-2.95723e-06
-2.6939e-06
-2.44354e-06
-2.20645e-06
-1.97724e-06
-1.74758e-06
-1.50578e-06
-1.24207e-06
-9.48722e-07
-6.2271e-07
-2.69525e-07
9.15914e-08
4.25848e-07
6.77933e-07
7.83062e-07
6.88417e-07
4.73273e-07
2.52277e-07
9.888e-08
5.79903e-08
1.54693e-07
4.02764e-07
7.98162e-07
1.31728e-06
1.92533e-06
2.5794e-06
3.22477e-06
3.80554e-06
4.26015e-06
4.53278e-06
4.57881e-06
4.36945e-06
3.89567e-06
3.17017e-06
2.22641e-06
1.11462e-06
-1.052e-07
-1.37063e-06
-4.21223e-06
-4.09806e-06
-3.95242e-06
-3.77517e-06
-3.56932e-06
-3.34158e-06
-3.10062e-06
-2.8551e-06
-2.61184e-06
-2.37435e-06
-2.14329e-06
-1.91541e-06
-1.68478e-06
-1.44323e-06
-1.18267e-06
-8.96716e-07
-5.83467e-07
-2.48679e-07
9.12056e-08
4.04227e-07
6.41464e-07
7.46492e-07
6.71267e-07
4.83855e-07
2.87284e-07
1.49135e-07
1.09453e-07
1.90995e-07
4.02393e-07
7.35148e-07
1.16561e-06
1.65893e-06
2.17334e-06
2.66299e-06
3.07486e-06
3.3605e-06
3.47827e-06
3.39783e-06
3.10352e-06
2.59602e-06
1.89221e-06
1.0229e-06
2.89424e-08
-1.04425e-06
-2.15128e-06
-3.83151e-06
-3.74046e-06
-3.62429e-06
-3.48217e-06
-3.31504e-06
-3.12655e-06
-2.92221e-06
-2.70811e-06
-2.48959e-06
-2.27018e-06
-2.05108e-06
-1.83084e-06
-1.60567e-06
-1.36994e-06
-1.11777e-06
-8.44508e-07
-5.49243e-07
-2.37713e-07
7.55865e-08
3.62136e-07
5.80056e-07
6.81363e-07
6.23723e-07
4.63502e-07
2.90347e-07
1.64951e-07
1.21887e-07
1.8174e-07
3.48098e-07
6.09075e-07
9.41645e-07
1.31442e-06
1.68886e-06
2.02384e-06
2.2774e-06
2.41236e-06
2.39931e-06
2.21926e-06
1.86536e-06
1.34322e-06
6.6985e-07
-1.28698e-07
-1.0205e-06
-1.97172e-06
-2.9493e-06
-3.42787e-06
-3.358e-06
-3.26783e-06
-3.15634e-06
-3.02339e-06
-2.87069e-06
-2.70145e-06
-2.51965e-06
-2.32906e-06
-2.13258e-06
-1.93166e-06
-1.72588e-06
-1.51319e-06
-1.29005e-06
-1.05274e-06
-7.98383e-07
-5.26988e-07
-2.44473e-07
3.65154e-08
2.91474e-07
4.8537e-07
5.78782e-07
5.35617e-07
4.00734e-07
2.4895e-07
1.33435e-07
8.07997e-08
1.11494e-07
2.25086e-07
4.08623e-07
6.39219e-07
8.88924e-07
1.12554e-06
1.31553e-06
1.42689e-06
1.43259e-06
1.31305e-06
1.05748e-06
6.643e-07
1.40846e-07
-4.97831e-07
-1.23096e-06
-2.03436e-06
-2.88312e-06
-3.75316e-06
-3.00164e-06
-2.95235e-06
-2.88643e-06
-2.8029e-06
-2.70114e-06
-2.58174e-06
-2.44641e-06
-2.2975e-06
-2.13748e-06
-1.96844e-06
-1.79169e-06
-1.6074e-06
-1.41475e-06
-1.21186e-06
-9.96763e-07
-7.68296e-07
-5.27299e-07
-2.7977e-07
-3.65156e-08
1.8208e-07
3.47351e-07
4.28377e-07
3.95381e-07
2.82351e-07
1.48474e-07
3.50309e-08
-2.81006e-08
-3.25736e-08
2.26564e-08
1.25071e-07
2.53872e-07
3.85041e-07
4.93305e-07
5.53611e-07
5.42933e-07
4.42643e-07
2.40329e-07
-6.95571e-08
-4.8585e-07
-1.00133e-06
-1.60373e-06
-2.27724e-06
-3.00399e-06
-3.76588e-06
-4.54544e-06
-2.55566e-06
-2.5277e-06
-2.48595e-06
-2.42966e-06
-2.35801e-06
-2.27094e-06
-2.16925e-06
-2.05426e-06
-1.92745e-06
-1.79016e-06
-1.64344e-06
-1.48768e-06
-1.32283e-06
-1.14824e-06
-9.63209e-07
-7.6801e-07
-5.64133e-07
-3.57355e-07
-1.56911e-07
2.12133e-08
1.53983e-07
2.18109e-07
1.90151e-07
9.4588e-08
-2.56429e-08
-1.35681e-07
-2.17314e-07
-2.61643e-07
-2.67544e-07
-2.44917e-07
-2.11487e-07
-1.87143e-07
-1.90856e-07
-2.39981e-07
-3.49805e-07
-5.32359e-07
-7.95185e-07
-1.14087e-06
-1.56725e-06
-2.0681e-06
-2.63399e-06
-3.2533e-06
-3.91319e-06
-4.60066e-06
-5.3031e-06
-2.09653e-06
-2.09248e-06
-2.07663e-06
-2.04861e-06
-2.0078e-06
-1.95389e-06
-1.88708e-06
-1.80796e-06
-1.71741e-06
-1.61626e-06
-1.50526e-06
-1.38488e-06
-1.2554e-06
-1.11702e-06
-9.69788e-07
-8.14926e-07
-6.54405e-07
-4.93288e-07
-3.39756e-07
-2.05512e-07
-1.08319e-07
-6.56908e-08
-9.31959e-08
-1.77807e-07
-2.86552e-07
-3.98655e-07
-4.99634e-07
-5.82401e-07
-6.45764e-07
-6.9601e-07
-7.46033e-07
-8.11082e-07
-9.05111e-07
-1.03969e-06
-1.22421e-06
-1.46581e-06
-1.76881e-06
-2.13426e-06
-2.56001e-06
-3.04118e-06
-3.57083e-06
-4.14067e-06
-4.74163e-06
-5.36455e-06
-6.00039e-06
-1.63502e-06
-1.65959e-06
-1.67385e-06
-1.67734e-06
-1.66986e-06
-1.65151e-06
-1.6223e-06
-1.58219e-06
-1.53157e-06
-1.47104e-06
-1.4012e-06
-1.32252e-06
-1.23533e-06
-1.14022e-06
-1.03771e-06
-9.293e-07
-8.1719e-07
-7.05268e-07
-6.00311e-07
-5.10812e-07
-4.51138e-07
-4.34205e-07
-4.67245e-07
-5.42094e-07
-6.45897e-07
-7.62464e-07
-8.80441e-07
-9.95488e-07
-1.10644e-06
-1.21603e-06
-1.33198e-06
-1.46492e-06
-1.6249e-06
-1.81948e-06
-2.05405e-06
-2.33244e-06
-2.65697e-06
-3.02802e-06
-3.44387e-06
-3.90096e-06
-4.39436e-06
-4.9183e-06
-5.46648e-06
-6.03253e-06
-6.61005e-06
-1.18739e-06
-1.24621e-06
-1.29622e-06
-1.3368e-06
-1.3677e-06
-1.3893e-06
-1.40179e-06
-1.40492e-06
-1.39864e-06
-1.38342e-06
-1.35979e-06
-1.32818e-06
-1.28893e-06
-1.24259e-06
-1.18991e-06
-1.13224e-06
-1.0716e-06
-1.01101e-06
-9.55037e-07
-9.08708e-07
-8.83197e-07
-8.89082e-07
-9.30489e-07
-1.00378e-06
-1.10471e-06
-1.22331e-06
-1.35261e-06
-1.49002e-06
-1.63416e-06
-1.78495e-06
-1.94566e-06
-2.12279e-06
-2.32348e-06
-2.55313e-06
-2.81482e-06
-3.10999e-06
-3.43946e-06
-3.80342e-06
-4.2009e-06
-4.62954e-06
-5.08593e-06
-5.56603e-06
-6.06555e-06
-6.58012e-06
-7.10533e-06
-7.75181e-07
-8.77393e-07
-9.70466e-07
-1.05465e-06
-1.13047e-06
-1.19816e-06
-1.25756e-06
-1.30844e-06
-1.35085e-06
-1.38514e-06
-1.41168e-06
-1.43078e-06
-1.44272e-06
-1.44789e-06
-1.44703e-06
-1.44103e-06
-1.43153e-06
-1.42061e-06
-1.41165e-06
-1.40869e-06
-1.4145e-06
-1.43536e-06
-1.48153e-06
-1.55537e-06
-1.65185e-06
-1.76705e-06
-1.89785e-06
-2.04258e-06
-2.20054e-06
-2.37108e-06
-2.55462e-06
-2.75356e-06
-2.97172e-06
-3.21331e-06
-3.48123e-06
-3.77621e-06
-4.09755e-06
-4.44459e-06
-4.81691e-06
-5.21351e-06
-5.63224e-06
-6.07028e-06
-6.52462e-06
-6.99232e-06
-7.47041e-06
-4.52981e-07
-6.00696e-07
-7.39913e-07
-8.70883e-07
-9.93589e-07
-1.10792e-06
-1.21393e-06
-1.31172e-06
-1.40139e-06
-1.48305e-06
-1.55684e-06
-1.62291e-06
-1.68147e-06
-1.73268e-06
-1.77705e-06
-1.81522e-06
-1.84771e-06
-1.87619e-06
-1.90335e-06
-1.92872e-06
-1.95625e-06
-1.99363e-06
-2.04985e-06
-2.12361e-06
-2.21367e-06
-2.32112e-06
-2.44517e-06
-2.58411e-06
-2.73708e-06
-2.90426e-06
-3.08666e-06
-3.28561e-06
-3.50287e-06
-3.73962e-06
-3.99714e-06
-4.27716e-06
-4.57972e-06
-4.90351e-06
-5.24775e-06
-5.61204e-06
-5.99525e-06
-6.39546e-06
-6.81054e-06
-7.2385e-06
-7.67734e-06
-2.31171e-07
-4.23603e-07
-6.06778e-07
-7.80613e-07
-9.4521e-07
-1.10077e-06
-1.24749e-06
-1.38541e-06
-1.51451e-06
-1.63474e-06
-1.74615e-06
-1.84882e-06
-1.94284e-06
-2.02832e-06
-2.10543e-06
-2.17446e-06
-2.23637e-06
-2.29133e-06
-2.33938e-06
-2.38498e-06
-2.43071e-06
-2.4825e-06
-2.54312e-06
-2.61351e-06
-2.69571e-06
-2.79206e-06
-2.90324e-06
-3.02903e-06
-3.16946e-06
-3.32464e-06
-3.49478e-06
-3.68104e-06
-3.88508e-06
-4.10792e-06
-4.34989e-06
-4.61105e-06
-4.89124e-06
-5.19026e-06
-5.50797e-06
-5.8439e-06
-6.19709e-06
-6.56627e-06
-6.95004e-06
-7.34698e-06
-7.75561e-06
-9.17654e-08
-3.21297e-07
-5.40281e-07
-7.48869e-07
-9.47318e-07
-1.13579e-06
-1.31432e-06
-1.48284e-06
-1.64128e-06
-1.78956e-06
-1.92768e-06
-2.05569e-06
-2.17362e-06
-2.28154e-06
-2.3795e-06
-2.46778e-06
-2.54687e-06
-2.61686e-06
-2.67869e-06
-2.73569e-06
-2.79062e-06
-2.84666e-06
-2.90625e-06
-2.97156e-06
-3.04596e-06
-3.13221e-06
-3.23137e-06
-3.34394e-06
-3.47064e-06
-3.61247e-06
-3.7704e-06
-3.94502e-06
-4.13657e-06
-4.3452e-06
-4.57119e-06
-4.81508e-06
-5.07728e-06
-5.35778e-06
-5.65616e-06
-5.97185e-06
-6.30422e-06
-6.65244e-06
-7.01552e-06
-7.39236e-06
-7.78185e-06
3.51612e-09
-2.56048e-07
-5.04078e-07
-7.40675e-07
-9.65948e-07
-1.17991e-06
-1.38251e-06
-1.57364e-06
-1.75324e-06
-1.92126e-06
-2.0777e-06
-2.22256e-06
-2.35592e-06
-2.47785e-06
-2.5885e-06
-2.68799e-06
-2.77667e-06
-2.8553e-06
-2.92547e-06
-2.98895e-06
-3.04773e-06
-3.10522e-06
-3.16404e-06
-3.22634e-06
-3.29529e-06
-3.37375e-06
-3.46367e-06
-3.56651e-06
-3.68346e-06
-3.81541e-06
-3.96278e-06
-4.12581e-06
-4.30497e-06
-4.50093e-06
-4.71431e-06
-4.9455e-06
-5.19457e-06
-5.46137e-06
-5.74562e-06
-6.04702e-06
-6.36514e-06
-6.69937e-06
-7.04897e-06
-7.41307e-06
-7.7908e-06
7.38528e-08
-2.10027e-07
-4.81193e-07
-7.39628e-07
-9.85346e-07
-1.21832e-06
-1.43847e-06
-1.64574e-06
-1.84009e-06
-2.02151e-06
-2.19004e-06
-2.34571e-06
-2.48861e-06
-2.6189e-06
-2.73686e-06
-2.84279e-06
-2.93725e-06
-3.02118e-06
-3.0958e-06
-3.16255e-06
-3.22376e-06
-3.28272e-06
-3.34147e-06
-3.40192e-06
-3.46738e-06
-3.5411e-06
-3.62536e-06
-3.72167e-06
-3.83116e-06
-3.95473e-06
-4.09316e-06
-4.24717e-06
-4.41744e-06
-4.60456e-06
-4.80891e-06
-5.03071e-06
-5.27011e-06
-5.52713e-06
-5.80172e-06
-6.09369e-06
-6.40271e-06
-6.72834e-06
-7.06997e-06
-7.42695e-06
-7.79852e-06
1.29623e-07
-1.73268e-07
-4.62213e-07
-7.37158e-07
-9.98095e-07
-1.24498e-06
-1.47776e-06
-1.69639e-06
-1.90086e-06
-2.09121e-06
-2.26754e-06
-2.43001e-06
-2.57874e-06
-2.71401e-06
-2.83617e-06
-2.94577e-06
-3.04357e-06
-3.13038e-06
-3.20747e-06
-3.27647e-06
-3.3397e-06
-3.40005e-06
-3.45912e-06
-3.51899e-06
-3.58305e-06
-3.65439e-06
-3.73516e-06
-3.82701e-06
-3.93131e-06
-4.04923e-06
-4.18178e-06
-4.32976e-06
-4.49383e-06
-4.67453e-06
-4.87231e-06
-5.08752e-06
-5.32044e-06
-5.57119e-06
-5.83978e-06
-6.12612e-06
-6.42998e-06
-6.751e-06
-7.08874e-06
-7.44264e-06
-7.81206e-06
1.76463e-07
-1.4116e-07
-4.43732e-07
-7.31185e-07
-1.00349e-06
-1.26059e-06
-1.50243e-06
-1.729e-06
-1.94035e-06
-2.1366e-06
-2.31791e-06
-2.48452e-06
-2.63677e-06
-2.77505e-06
-2.89934e-06
-3.01094e-06
-3.11052e-06
-3.199e-06
-3.27777e-06
-3.34847e-06
-3.41334e-06
-3.475e-06
-3.53489e-06
-3.59519e-06
-3.65912e-06
-3.72947e-06
-3.80838e-06
-3.89766e-06
-3.99883e-06
-4.11319e-06
-4.24183e-06
-4.38563e-06
-4.54536e-06
-4.72167e-06
-4.91511e-06
-5.12611e-06
-5.355e-06
-5.60199e-06
-5.86717e-06
-6.15053e-06
-6.45192e-06
-6.7711e-06
-7.10769e-06
-7.46123e-06
-7.83117e-06
2.16116e-07
-1.13018e-07
-4.26118e-07
-7.23102e-07
-1.00392e-06
-1.2685e-06
-1.51683e-06
-1.74894e-06
-1.96494e-06
-2.16502e-06
-2.34942e-06
-2.51851e-06
-2.67275e-06
-2.81289e-06
-2.93793e-06
-3.0505e-06
-3.15103e-06
-3.24052e-06
-3.32042e-06
-3.39236e-06
-3.45855e-06
-3.52145e-06
-3.58237e-06
-3.64356e-06
-3.70797e-06
-3.77814e-06
-3.85622e-06
-3.94408e-06
-4.04335e-06
-4.15541e-06
-4.28145e-06
-4.42247e-06
-4.57933e-06
-4.75277e-06
-4.94343e-06
-5.15181e-06
-5.37833e-06
-5.62326e-06
-5.88678e-06
-6.16895e-06
-6.46971e-06
-6.78887e-06
-7.12615e-06
-7.48112e-06
-7.8533e-06
2.48835e-07
-8.93782e-08
-4.10678e-07
-7.14973e-07
-1.0022e-06
-1.2723e-06
-1.52528e-06
-1.76125e-06
-1.98035e-06
-2.18285e-06
-2.36908e-06
-2.53944e-06
-2.69443e-06
-2.83458e-06
-2.96069e-06
-3.07377e-06
-3.17473e-06
-3.26472e-06
-3.34528e-06
-3.41805e-06
-3.48525e-06
-3.54913e-06
-3.61101e-06
-3.67313e-06
-3.73817e-06
-3.80849e-06
-3.8862e-06
-3.97327e-06
-4.07136e-06
-4.18193e-06
-4.30624e-06
-4.44538e-06
-4.60032e-06
-4.77188e-06
-4.96077e-06
-5.16758e-06
-5.3928e-06
-5.63679e-06
-5.8998e-06
-6.18194e-06
-6.48322e-06
-6.80352e-06
-7.1426e-06
-7.50009e-06
-7.87554e-06
2.74723e-07
-7.07376e-08
-3.985e-07
-7.08466e-07
-1.00056e-06
-1.27475e-06
-1.53108e-06
-1.7697e-06
-1.99083e-06
-2.19477e-06
-2.38194e-06
-2.55279e-06
-2.7078e-06
-2.84722e-06
-2.97415e-06
-3.08724e-06
-3.18816e-06
-3.27824e-06
-3.35906e-06
-3.43228e-06
-3.5001e-06
-3.56463e-06
-3.62718e-06
-3.69003e-06
-3.7556e-06
-3.82608e-06
-3.90362e-06
-3.99017e-06
-4.08746e-06
-4.19698e-06
-4.32005e-06
-4.45786e-06
-4.61144e-06
-4.78171e-06
-4.96945e-06
-5.17535e-06
-5.39994e-06
-5.64367e-06
-5.90684e-06
-6.18964e-06
-6.49213e-06
-6.81423e-06
-7.15575e-06
-7.51636e-06
-7.89563e-06
2.94148e-07
-5.71853e-08
-3.90115e-07
-7.04534e-07
-1.00037e-06
-1.27761e-06
-1.53634e-06
-1.77676e-06
-1.99913e-06
-2.20384e-06
-2.39134e-06
-2.56218e-06
-2.71698e-06
-2.85652e-06
-2.98253e-06
-3.0951e-06
-3.19562e-06
-3.28545e-06
-3.36618e-06
-3.43947e-06
-3.50754e-06
-3.57233e-06
-3.63522e-06
-3.6985e-06
-3.76435e-06
-3.83488e-06
-3.91223e-06
-3.99836e-06
-4.09498e-06
-4.20364e-06
-4.32572e-06
-4.46248e-06
-4.61502e-06
-4.78434e-06
-4.9713e-06
-5.17664e-06
-5.40099e-06
-5.64483e-06
-5.90855e-06
-6.19237e-06
-6.49642e-06
-6.82066e-06
-7.16494e-06
-7.52894e-06
-7.91228e-06
3.0777e-07
-4.84006e-08
-3.85526e-07
-7.03493e-07
-1.00223e-06
-1.28176e-06
-1.54221e-06
-1.78381e-06
-2.00688e-06
-2.21187e-06
-2.39929e-06
-2.56978e-06
-2.72408e-06
-2.8631e-06
-2.98817e-06
-3.09998e-06
-3.19983e-06
-3.28912e-06
-3.36947e-06
-3.44253e-06
-3.51049e-06
-3.57519e-06
-3.63808e-06
-3.70146e-06
-3.76733e-06
-3.83774e-06
-3.9148e-06
-4.00045e-06
-4.09641e-06
-4.20428e-06
-4.32548e-06
-4.46132e-06
-4.61298e-06
-4.78152e-06
-4.96787e-06
-5.17285e-06
-5.39713e-06
-5.64128e-06
-5.90571e-06
-6.19074e-06
-6.49649e-06
-6.823e-06
-7.17013e-06
-7.5376e-06
-7.92502e-06
3.16432e-07
-4.37898e-08
-3.84379e-07
-7.05215e-07
-1.00624e-06
-1.28751e-06
-1.54918e-06
-1.79152e-06
-2.01492e-06
-2.21985e-06
-2.40691e-06
-2.57681e-06
-2.73036e-06
-2.86856e-06
-2.9926e-06
-3.10347e-06
-3.20246e-06
-3.291e-06
-3.37073e-06
-3.44331e-06
-3.51088e-06
-3.57519e-06
-3.63779e-06
-3.70098e-06
-3.76662e-06
-3.83671e-06
-3.91335e-06
-3.99843e-06
-4.09369e-06
-4.20075e-06
-4.32109e-06
-4.45606e-06
-4.60691e-06
-4.77474e-06
-4.96057e-06
-5.16526e-06
-5.38955e-06
-5.63406e-06
-5.89927e-06
-6.18551e-06
-6.49299e-06
-6.82175e-06
-7.17168e-06
-7.54253e-06
-7.93392e-06
3.21034e-07
-4.26337e-08
-3.86127e-07
-7.09326e-07
-1.01219e-06
-1.29479e-06
-1.55733e-06
-1.80011e-06
-2.02357e-06
-2.22822e-06
-2.41474e-06
-2.58388e-06
-2.73653e-06
-2.87374e-06
-2.99669e-06
-3.1065e-06
-3.20449e-06
-3.29215e-06
-3.37109e-06
-3.44299e-06
-3.50995e-06
-3.57365e-06
-3.63572e-06
-3.69848e-06
-3.76368e-06
-3.83329e-06
-3.90937e-06
-3.99378e-06
-4.08828e-06
-4.1945e-06
-4.31396e-06
-4.44807e-06
-4.59811e-06
-4.76527e-06
-4.95059e-06
-5.155e-06
-5.3793e-06
-5.62417e-06
-5.89012e-06
-6.17755e-06
-6.48667e-06
-6.81758e-06
-7.17018e-06
-7.54425e-06
-7.93939e-06
3.22448e-07
-4.41932e-08
-3.90161e-07
-7.15337e-07
-1.0197e-06
-1.30334e-06
-1.5665e-06
-1.80951e-06
-2.03285e-06
-2.2371e-06
-2.42295e-06
-2.59124e-06
-2.74291e-06
-2.87905e-06
-3.00087e-06
-3.10955e-06
-3.20646e-06
-3.29314e-06
-3.37119e-06
-3.44227e-06
-3.50847e-06
-3.5714e-06
-3.63276e-06
-3.69492e-06
-3.75952e-06
-3.82852e-06
-3.90392e-06
-3.98757e-06
-4.08125e-06
-4.18659e-06
-4.30516e-06
-4.43839e-06
-4.58763e-06
-4.7541e-06
-4.93891e-06
-5.14303e-06
-5.36732e-06
-5.61249e-06
-5.87912e-06
-6.16763e-06
-6.47828e-06
-6.81118e-06
-7.16627e-06
-7.54333e-06
-7.94198e-06
3.21471e-07
-4.77614e-08
-3.95862e-07
-7.22717e-07
-1.02832e-06
-1.31279e-06
-1.57639e-06
-1.8195e-06
-2.04262e-06
-2.24637e-06
-2.43151e-06
-2.5989e-06
-2.74956e-06
-2.8846e-06
-3.00528e-06
-3.11282e-06
-3.20861e-06
-3.29427e-06
-3.37136e-06
-3.44156e-06
-3.5069e-06
-3.56895e-06
-3.62949e-06
-3.69092e-06
-3.75482e-06
-3.82311e-06
-3.89776e-06
-3.9806e-06
-4.07341e-06
-4.17785e-06
-4.29551e-06
-4.42786e-06
-4.57629e-06
-4.74207e-06
-4.92634e-06
-5.13014e-06
-5.35437e-06
-5.59979e-06
-5.867e-06
-6.15648e-06
-6.46851e-06
-6.80323e-06
-7.16059e-06
-7.54039e-06
-7.94226e-06
3.18796e-07
-5.27062e-08
-4.02658e-07
-7.30951e-07
-1.03759e-06
-1.32274e-06
-1.58665e-06
-1.82976e-06
-2.05259e-06
-2.25581e-06
-2.44022e-06
-2.60672e-06
-2.75637e-06
-2.89034e-06
-3.00988e-06
-3.11628e-06
-3.21102e-06
-3.29564e-06
-3.37175e-06
-3.44102e-06
-3.50547e-06
-3.5666e-06
-3.62625e-06
-3.68687e-06
-3.75001e-06
-3.81754e-06
-3.8914e-06
-3.9734e-06
-4.06533e-06
-4.16887e-06
-4.28562e-06
-4.4171e-06
-4.56472e-06
-4.7298e-06
-4.91354e-06
-5.11699e-06
-5.34112e-06
-5.58671e-06
-5.85441e-06
-6.14473e-06
-6.45799e-06
-6.79433e-06
-7.15374e-06
-7.53602e-06
-7.9408e-06
3.14875e-07
-5.86428e-08
-4.10222e-07
-7.39763e-07
-1.04729e-06
-1.33298e-06
-1.59712e-06
-1.84016e-06
-2.06266e-06
-2.26534e-06
-2.44901e-06
-2.61464e-06
-2.7633e-06
-2.89621e-06
-3.01465e-06
-3.11993e-06
-3.21368e-06
-3.29724e-06
-3.37239e-06
-3.44074e-06
-3.50427e-06
-3.56445e-06
-3.62317e-06
-3.68294e-06
-3.74529e-06
-3.81203e-06
-3.88506e-06
-3.96621e-06
-4.05726e-06
-4.15989e-06
-4.27574e-06
-4.40635e-06
-4.55318e-06
-4.71757e-06
-4.90075e-06
-5.10384e-06
-5.32782e-06
-5.57352e-06
-5.84164e-06
-6.13268e-06
-6.44702e-06
-6.78481e-06
-7.14606e-06
-7.53058e-06
-7.938e-06
3.09774e-07
-6.56432e-08