/*--------------------------------*- C++ -*----------------------------------*\
| =========                 |                                                 |
| \\      /  F ield         | OpenFOAM: The Open Source CFD Toolbox           |
|  \\    /   O peration     | Version:  2312                                  |
|   \\  /    A nd           | Website:  www.openfoam.com                      |
|    \\/     M anipulation  |                                                 |
\*---------------------------------------------------------------------------*/
FoamFile
{
    version     2.0;
    format      ascii;
    arch        "LSB;label=32;scalar=64";
    class       surfaceScalarField;
    location    "84";
    object      phi;
}
// * * * * * * * * * * * * * * * * * * * * * * * * * * * * * * * * * * * * * //

dimensions      [0 3 -1 0 0 0 0];

oriented        oriented;

internalField   nonuniform List<scalar> 
9445
(
5.86337e-10
8.03902e-12
5.82881e-10
3.45642e-12
5.821e-10
7.80586e-13
5.83067e-10
-9.6678e-13
5.85066e-10
-1.99919e-12
5.87916e-10
-2.84975e-12
5.91565e-10
-3.64904e-12
5.96068e-10
-4.50277e-12
6.01593e-10
-5.52523e-12
6.08574e-10
-6.9814e-12
6.18175e-10
-9.60069e-12
6.34046e-10
-1.58713e-11
6.69104e-10
-3.50576e-11
7.6889e-10
-9.97866e-11
-2.5727e-10
1.02616e-09
2.05346e-09
3.5311e-11
2.04115e-09
1.57576e-11
2.03772e-09
4.21757e-12
2.03986e-09
-3.10381e-12
2.04544e-09
-7.58146e-12
2.05387e-09
-1.1279e-11
2.06483e-09
-1.461e-11
2.07843e-09
-1.81054e-11
2.0952e-09
-2.22921e-11
2.1164e-09
-2.81844e-11
2.14501e-09
-3.82073e-11
2.18809e-09
-5.89557e-11
2.25926e-09
-1.06225e-10
2.37144e-09
-2.11963e-10
-3.74333e-10
2.4885e-09
4.06181e-09
8.74632e-11
4.03743e-09
4.01336e-11
4.02958e-09
1.20694e-11
4.03195e-09
-5.47078e-12
4.04074e-09
-1.63787e-11
4.05486e-09
-2.53932e-11
4.07352e-09
-3.32696e-11
4.09669e-09
-4.12822e-11
4.1251e-09
-5.06959e-11
4.16037e-09
-6.34525e-11
4.20555e-09
-8.33901e-11
4.26545e-09
-1.18853e-10
4.34282e-09
-1.83598e-10
4.42358e-09
-2.92722e-10
-4.21625e-10
4.47087e-09
6.75944e-09
1.70574e-10
6.71925e-09
8.03245e-11
6.70461e-09
2.67084e-11
6.70572e-09
-6.58706e-12
6.71681e-09
-2.74625e-11
6.73599e-09
-4.45746e-11
6.76192e-09
-5.92029e-11
6.79408e-09
-7.34448e-11
6.83299e-09
-8.95985e-11
6.87981e-09
-1.10272e-10
6.93596e-09
-1.39544e-10
7.00134e-09
-1.84229e-10
7.06947e-09
-2.51729e-10
7.12013e-09
-3.43382e-10
-4.3276e-10
7.13126e-09
1.03239e-08
2.90023e-10
1.02642e-08
1.39976e-10
1.02401e-08
5.08057e-11
1.02381e-08
-4.51016e-12
1.02501e-08
-3.95078e-11
1.0273e-08
-6.74657e-11
1.03048e-08
-9.10202e-11
1.03442e-08
-1.12834e-10
1.0391e-08
-1.36366e-10
1.04451e-08
-1.64385e-10
1.05056e-08
-2.00029e-10
1.05682e-08
-2.46871e-10
1.06227e-08
-3.06274e-10
1.06524e-08
-3.73056e-10
-4.28037e-10
1.06477e-08
1.49624e-08
4.48075e-10
1.48812e-08
2.21188e-10
1.48455e-08
8.64855e-11
1.48384e-08
2.53203e-12
1.48502e-08
-5.1216e-11
1.4875e-08
-9.23147e-11
1.49105e-08
-1.26489e-10
1.49544e-08
-1.56719e-10
1.50053e-08
-1.87301e-10
1.50617e-08
-2.20758e-10
1.51204e-08
-2.5876e-10
1.51754e-08
-3.01849e-10
1.5217e-08
-3.47912e-10
1.52348e-08
-3.90893e-10
-4.19994e-10
1.52268e-08
2.09085e-08
6.39669e-10
2.08078e-08
3.21845e-10
2.07612e-08
1.33081e-10
2.07488e-08
1.49883e-11
2.07592e-08
-6.16358e-11
2.07848e-08
-1.17932e-10
2.08217e-08
-1.63365e-10
2.08671e-08
-2.02084e-10
2.09182e-08
-2.38489e-10
2.09722e-08
-2.74721e-10
2.10247e-08
-3.11239e-10
2.10698e-08
-3.46928e-10
2.11008e-08
-3.78904e-10
2.11128e-08
-4.02924e-10
-4.1423e-10
2.1107e-08
2.84141e-08
8.46532e-10
2.83044e-08
4.31598e-10
2.82531e-08
1.84399e-10
2.82387e-08
2.93733e-11
2.8249e-08
-7.20075e-11
2.82756e-08
-1.44463e-10
2.8313e-08
-2.00795e-10
2.83578e-08
-2.46878e-10
2.84064e-08
-2.87051e-10
2.84548e-08
-3.232e-10
2.84989e-08
-3.55323e-10
2.85341e-08
-3.82158e-10
2.8557e-08
-4.01726e-10
2.85661e-08
-4.12097e-10
-4.11998e-10
2.85639e-08
3.77399e-08
1.03193e-09
3.76438e-08
5.27647e-10
3.76027e-08
2.25542e-10
3.75962e-08
3.58172e-11
3.76128e-08
-8.85313e-11
3.76438e-08
-1.75547e-10
3.76838e-08
-2.40698e-10
3.77284e-08
-2.91572e-10
3.7774e-08
-3.32654e-10
3.78168e-08
-3.6595e-10
3.78533e-08
-3.91801e-10
3.78809e-08
-4.09776e-10
3.78985e-08
-4.19313e-10
3.79067e-08
-4.20301e-10
-4.13213e-10
3.79079e-08
4.91546e-08
1.14251e-09
4.9108e-08
5.74226e-10
4.91019e-08
2.31672e-10
4.91211e-08
1.66157e-11
4.91564e-08
-1.23836e-10
4.92009e-08
-2.20046e-10
4.92496e-08
-2.89328e-10
4.92986e-08
-3.40632e-10
4.93448e-08
-3.78858e-10
4.93854e-08
-4.06527e-10
4.94184e-08
-4.24807e-10
4.9443e-08
-4.34373e-10
4.94596e-08
-4.35871e-10
4.94695e-08
-4.30287e-10
-4.18832e-10
4.94752e-08
6.29662e-08
1.12618e-09
6.3008e-08
5.32417e-10
6.30662e-08
1.73538e-10
6.31332e-08
-5.04554e-11
6.32044e-08
-1.95026e-10
6.32755e-08
-2.9109e-10
6.33431e-08
-3.57008e-10
6.34051e-08
-4.02578e-10
6.34595e-08
-4.3326e-10
6.35052e-08
-4.5226e-10
6.3542e-08
-4.616e-10
6.35705e-08
-4.62835e-10
6.35919e-08
-4.57337e-10
6.36082e-08
-4.46558e-10
-4.31888e-10
6.36213e-08
7.95987e-08
9.65375e-10
7.97482e-08
3.82933e-10
7.98882e-08
3.35643e-11
8.00188e-08
-1.8109e-10
8.0139e-08
-3.15221e-10
8.02479e-08
-3.99969e-10
8.03445e-08
-4.53634e-10
8.04285e-08
-4.86551e-10
8.04999e-08
-5.04698e-10
8.05595e-08
-5.11857e-10
8.06086e-08
-5.10609e-10
8.06487e-08
-5.02952e-10
8.06818e-08
-4.90504e-10
8.071e-08
-4.74747e-10
-4.56936e-10
8.07351e-08
9.96767e-08
6.983e-10
9.99123e-08
1.4732e-10
1.00122e-07
-1.76486e-10
1.0031e-07
-3.68514e-10
1.00476e-07
-4.81252e-10
1.00622e-07
-5.45781e-10
1.00748e-07
-5.80198e-10
1.00857e-07
-5.95146e-10
1.00949e-07
-5.97067e-10
1.01027e-07
-5.90082e-10
1.01094e-07
-5.76974e-10
1.01151e-07
-5.59785e-10
1.012e-07
-5.40042e-10
1.01244e-07
-5.19006e-10
-4.97646e-10
1.01285e-07
1.23999e-07
3.94992e-10
1.24267e-07
-1.21259e-10
1.24507e-07
-4.15991e-10
1.2472e-07
-5.81088e-10
1.24907e-07
-6.69031e-10
1.25072e-07
-7.10381e-10
1.25215e-07
-7.23335e-10
1.25339e-07
-7.18946e-10
1.25446e-07
-7.03997e-10
1.25538e-07
-6.82773e-10
1.2562e-07
-6.58021e-10
1.25691e-07
-6.3161e-10
1.25756e-07
-6.04816e-10
1.25816e-07
-5.78577e-10
-5.53534e-10
1.25872e-07
1.53336e-07
1.07814e-10
1.53591e-07
-3.75882e-10
1.53817e-07
-6.41984e-10
1.54018e-07
-7.82339e-10
1.54197e-07
-8.47611e-10
1.54354e-07
-8.68087e-10
1.54493e-07
-8.62085e-10
1.54615e-07
-8.40977e-10
1.54723e-07
-8.11728e-10
1.54819e-07
-7.78625e-10
1.54905e-07
-7.44276e-10
1.54984e-07
-7.10331e-10
1.55057e-07
-6.77795e-10
1.55125e-07
-6.47302e-10
-6.19184e-10
1.55191e-07
1.88185e-07
-1.5288e-10
1.88405e-07
-5.96079e-10
1.88597e-07
-8.34472e-10
1.88767e-07
-9.52172e-10
1.88918e-07
-9.98232e-10
1.89052e-07
-1.00203e-09
1.89171e-07
-9.81592e-10
1.89278e-07
-9.48223e-10
1.89375e-07
-9.08788e-10
1.89464e-07
-8.67427e-10
1.89546e-07
-8.26528e-10
1.89624e-07
-7.87523e-10
1.89697e-07
-7.51182e-10
1.89768e-07
-7.17902e-10
-6.87792e-10
1.89836e-07
2.28606e-07
-3.91051e-10
2.28795e-07
-7.8514e-10
2.28954e-07
-9.92869e-10
2.2909e-07
-1.0886e-09
2.2921e-07
-1.11816e-09
2.29317e-07
-1.10892e-09
2.29414e-07
-1.07841e-09
2.29502e-07
-1.03701e-09
2.29585e-07
-9.91356e-10
2.29663e-07
-9.45216e-10
2.29737e-07
-9.00701e-10
2.29809e-07
-8.59042e-10
2.29878e-07
-8.20805e-10
2.29946e-07
-7.86194e-10
-7.55135e-10
2.30014e-07
2.74103e-07
-6.12287e-10
2.74268e-07
-9.49872e-10
2.74398e-07
-1.12328e-09
2.74507e-07
-1.19719e-09
2.74601e-07
-1.21229e-09
2.74686e-07
-1.19359e-09
2.74764e-07
-1.15647e-09
2.74837e-07
-1.1104e-09
2.74908e-07
-1.06173e-09
2.74976e-07
-1.01352e-09
2.75043e-07
-9.67632e-10
2.75109e-07
-9.25068e-10
2.75174e-07
-8.86214e-10
2.75239e-07
-8.51231e-10
-8.19934e-10
2.75304e-07
3.23287e-07
-8.2015e-10
3.23431e-07
-1.09294e-09
3.23536e-07
-1.2284e-09
3.23618e-07
-1.2795e-09
3.23687e-07
-1.28091e-09
3.23747e-07
-1.25406e-09
3.23803e-07
-1.21279e-09
3.23858e-07
-1.16485e-09
3.23911e-07
-1.11525e-09
3.23965e-07
-1.06695e-09
3.24019e-07
-1.02143e-09
3.24073e-07
-9.79345e-10
3.24128e-07
-9.40891e-10
3.24182e-07
-9.05921e-10
-8.74267e-10
3.24237e-07
3.73188e-07
-9.64065e-10
3.73258e-07
-1.16344e-09
3.7329e-07
-1.25999e-09
3.73302e-07
-1.29173e-09
3.73307e-07
-1.2855e-09
3.7331e-07
-1.25691e-09
3.73315e-07
-1.21818e-09
3.73325e-07
-1.17452e-09
3.73339e-07
-1.12911e-09
3.73356e-07
-1.08475e-09
3.73378e-07
-1.04277e-09
3.73402e-07
-1.00367e-09
3.73429e-07
-9.67668e-10
3.73458e-07
-9.34647e-10
-9.04427e-10
3.73488e-07
3.71148e-07
-1.05743e-09
3.7118e-07
-1.19492e-09
3.71179e-07
-1.2589e-09
3.71163e-07
-1.27606e-09
3.71142e-07
-1.26455e-09
3.71122e-07
-1.23632e-09
3.71103e-07
-1.19994e-09
3.71089e-07
-1.15991e-09
3.71079e-07
-1.11891e-09
3.71073e-07
-1.07882e-09
3.7107e-07
-1.0405e-09
3.71071e-07
-1.00426e-09
3.71074e-07
-9.70186e-10
3.71077e-07
-9.3815e-10
-9.08037e-10
3.71081e-07
3.18011e-07
-1.06688e-09
3.17982e-07
-1.16523e-09
3.17932e-07
-1.20948e-09
3.17875e-07
-1.21906e-09
3.17817e-07
-1.20682e-09
3.17763e-07
-1.18177e-09
3.17713e-07
-1.1499e-09
3.17668e-07
-1.11475e-09
3.17627e-07
-1.07866e-09
3.17591e-07
-1.04285e-09
3.17559e-07
-1.00797e-09
3.17529e-07
-9.74351e-10
3.17501e-07
-9.42054e-10
3.17474e-07
-9.11018e-10
-8.81123e-10
3.17447e-07
2.66758e-07
-1.03255e-09
2.66694e-07
-1.101e-09
2.66616e-07
-1.13101e-09
2.66532e-07
-1.13536e-09
2.66449e-07
-1.12353e-09
2.66369e-07
-1.10186e-09
2.66293e-07
-1.07458e-09
2.66223e-07
-1.04433e-09
2.66157e-07
-1.01288e-09
2.66096e-07
-9.81093e-10
2.66037e-07
-9.4958e-10
2.65981e-07
-9.18582e-10
2.65927e-07
-8.88077e-10
2.65874e-07
-8.58002e-10
-8.28194e-10
2.65821e-07
2.20068e-07
-9.59769e-10
2.19974e-07
-1.00668e-09
2.1987e-07
-1.0264e-09
2.19762e-07
-1.02774e-09
2.19656e-07
-1.01721e-09
2.19553e-07
-9.99213e-10
2.19455e-07
-9.76643e-10
2.19362e-07
-9.51306e-10
2.19274e-07
-9.24413e-10
2.19189e-07
-8.96666e-10
2.19108e-07
-8.68462e-10
2.19029e-07
-8.39992e-10
2.18953e-07
-8.11278e-10
2.18877e-07
-7.82275e-10
-7.5291e-10
2.18802e-07
1.79039e-07
-8.53494e-10
1.78918e-07
-8.8639e-10
1.78792e-07
-8.9997e-10
1.78664e-07
-9.00363e-10
1.78539e-07
-8.92096e-10
1.78418e-07
-8.78088e-10
1.78302e-07
-8.60239e-10
1.7819e-07
-8.39775e-10
1.78083e-07
-8.17484e-10
1.77981e-07
-7.93883e-10
1.77881e-07
-7.69271e-10
1.77785e-07
-7.43816e-10
1.77691e-07
-7.17574e-10
1.776e-07
-6.90551e-10
-6.62709e-10
1.7751e-07
1.4387e-07
-7.25164e-10
1.43733e-07
-7.49966e-10
1.43594e-07
-7.61003e-10
1.43457e-07
-7.62516e-10
1.43322e-07
-7.57507e-10
1.43192e-07
-7.47872e-10
1.43066e-07
-7.34861e-10
1.42946e-07
-7.1931e-10
1.4283e-07
-7.01777e-10
1.42719e-07
-6.8264e-10
1.42612e-07
-6.62135e-10
1.42508e-07
-6.40409e-10
1.42408e-07
-6.17524e-10
1.42311e-07
-5.93511e-10
-5.68357e-10
1.42217e-07
1.14314e-07
-5.91293e-10
1.14176e-07
-6.1201e-10
1.14038e-07
-6.2274e-10
1.13902e-07
-6.26489e-10
1.13769e-07
-6.25173e-10
1.13642e-07
-6.19991e-10
1.13518e-07
-6.11767e-10
1.134e-07
-6.01083e-10
1.13287e-07
-5.88342e-10
1.13178e-07
-5.73828e-10
1.13074e-07
-5.57733e-10
1.12973e-07
-5.40182e-10
1.12877e-07
-5.21236e-10
1.12784e-07
-5.0095e-10
-4.79328e-10
1.12695e-07
8.98901e-08
-4.66273e-10
8.9763e-08
-4.84912e-10
8.96365e-08
-4.96233e-10
8.95124e-08
-5.02394e-10
8.93917e-08
-5.0451e-10
8.9275e-08
-5.03317e-10
8.91626e-08
-4.99367e-10
8.90546e-08
-4.93076e-10
8.8951e-08
-4.84743e-10
8.88518e-08
-4.74587e-10
8.87568e-08
-4.62763e-10
8.8666e-08
-4.4938e-10
8.85793e-08
-4.345e-10
8.84965e-08
-4.18178e-10
-4.00438e-10
8.84176e-08
6.99915e-08
-3.58246e-10
6.9882e-08
-3.75409e-10
6.9773e-08
-3.87247e-10
6.96659e-08
-3.95243e-10
6.95613e-08
-3.9995e-10
6.94598e-08
-4.01822e-10
6.93617e-08
-4.01243e-10
6.92671e-08
-3.98507e-10
6.91762e-08
-3.93837e-10
6.9089e-08
-3.87403e-10
6.90056e-08
-3.79332e-10
6.89259e-08
-3.69714e-10
6.885e-08
-3.58601e-10
6.87779e-08
-3.46044e-10
-3.32071e-10
6.87095e-08
5.39647e-08
-2.69409e-10
5.38743e-08
-2.84948e-10
5.37837e-08
-2.96715e-10
5.36941e-08
-3.0561e-10
5.3606e-08
-3.11833e-10
5.35198e-08
-3.15677e-10
5.3436e-08
-3.17408e-10
5.33547e-08
-3.17229e-10
5.32762e-08
-3.15306e-10
5.32006e-08
-3.1177e-10
5.3128e-08
-3.0672e-10
5.30585e-08
-3.00223e-10
5.29922e-08
-2.92318e-10
5.29292e-08
-2.83045e-10
-2.72433e-10
5.28695e-08
4.11735e-08
-1.98392e-10
4.11005e-08
-2.11948e-10
4.10268e-08
-2.22954e-10
4.0953e-08
-2.31804e-10
4.08797e-08
-2.38523e-10
4.08073e-08
-2.43309e-10
4.07362e-08
-2.4634e-10
4.06668e-08
-2.47755e-10
4.05991e-08
-2.47672e-10
4.05335e-08
-2.4619e-10
4.04702e-08
-2.43381e-10
4.04093e-08
-2.39289e-10
4.03509e-08
-2.33939e-10
4.02952e-08
-2.27361e-10
-2.19582e-10
4.02424e-08
3.1041e-08
-1.42544e-10
3.09829e-08
-1.53854e-10
3.09234e-08
-1.63527e-10
3.08632e-08
-1.71581e-10
3.08027e-08
-1.77987e-10
3.07423e-08
-1.82886e-10
3.06823e-08
-1.86388e-10
3.06231e-08
-1.88586e-10
3.0565e-08
-1.89564e-10
3.05082e-08
-1.89388e-10
3.0453e-08
-1.88108e-10
3.03994e-08
-1.85748e-10
3.03478e-08
-1.82324e-10
3.02983e-08
-1.77856e-10
-1.72364e-10
3.02511e-08
2.30677e-08
-9.92141e-11
2.30221e-08
-1.08202e-10
2.29747e-08
-1.1618e-10
2.29261e-08
-1.22952e-10
2.28766e-08
-1.28506e-10
2.28266e-08
-1.32937e-10
2.27766e-08
-1.36314e-10
2.27267e-08
-1.38691e-10
2.26772e-08
-1.40124e-10
2.26285e-08
-1.40658e-10
2.25807e-08
-1.40321e-10
2.25341e-08
-1.39124e-10
2.24888e-08
-1.37077e-10
2.24452e-08
-1.3419e-10
-1.30477e-10
2.24033e-08
1.68342e-08
-6.61787e-11
1.6799e-08
-7.29427e-11
1.67619e-08
-7.9087e-11
1.67233e-08
-8.4355e-11
1.66836e-08
-8.87729e-11
1.6643e-08
-9.24027e-11
1.6602e-08
-9.52795e-11
1.65607e-08
-9.74359e-11
1.65195e-08
-9.89053e-11
1.64786e-08
-9.9713e-11
1.64381e-08
-9.98752e-11
1.63984e-08
-9.93956e-11
1.63596e-08
-9.82775e-11
1.63219e-08
-9.65237e-11
-9.41432e-11
1.62856e-08
1.19942e-08
-4.1637e-11
1.19677e-08
-4.6405e-11
1.19393e-08
-5.07721e-11
1.19095e-08
-5.45361e-11
1.18785e-08
-5.77495e-11
1.18465e-08
-6.04477e-11
1.18139e-08
-6.26466e-11
1.17808e-08
-6.43621e-11
1.17475e-08
-6.56122e-11
1.17142e-08
-6.64099e-11
1.16811e-08
-6.67632e-11
1.16484e-08
-6.66716e-11
1.16163e-08
-6.61355e-11
1.15849e-08
-6.5153e-11
-6.37265e-11
1.15545e-08
8.2646e-09
-2.40892e-11
8.24537e-09
-2.71723e-11
8.22457e-09
-2.99733e-11
8.20243e-09
-3.23952e-11
8.17918e-09
-3.44945e-11
8.15502e-09
-3.62883e-11
8.13015e-09
-3.77815e-11
8.10477e-09
-3.898e-11
8.07905e-09
-3.98917e-11
8.05316e-09
-4.05224e-11
8.02727e-09
-4.08753e-11
8.00155e-09
-4.09482e-11
7.97616e-09
-4.07408e-11
7.95125e-09
-4.02483e-11
-3.9468e-11
7.92699e-09
5.41587e-09
-1.22342e-11
5.40269e-09
-1.3991e-11
5.38826e-09
-1.55399e-11
5.37275e-09
-1.68833e-11
5.35632e-09
-1.80644e-11
5.33912e-09
-1.90888e-11
5.32129e-09
-1.99566e-11
5.30298e-09
-2.06683e-11
5.28432e-09
-2.12265e-11
5.26543e-09
-2.16328e-11
5.24644e-09
-2.18883e-11
5.22748e-09
-2.19907e-11
5.20868e-09
-2.19397e-11
5.19016e-09
-2.17304e-11
-2.13563e-11
5.17205e-09
3.26263e-09
-4.92124e-12
3.25436e-09
-5.72836e-12
3.24521e-09
-6.39095e-12
3.2353e-09
-6.96966e-12
3.22472e-09
-7.48654e-12
3.21358e-09
-7.94156e-12
3.20195e-09
-8.33297e-12
3.18994e-09
-8.65966e-12
3.17764e-09
-8.92172e-12
3.16512e-09
-9.1192e-12
3.15249e-09
-9.25222e-12
3.13982e-09
-9.31936e-12
3.1272e-09
-9.32045e-12
3.11472e-09
-9.25224e-12
-9.10722e-12
3.10247e-09
1.65577e-09
-1.1371e-12
1.65141e-09
-1.36595e-12
1.64654e-09
-1.51837e-12
1.64122e-09
-1.65549e-12
1.63552e-09
-1.78164e-12
1.62947e-09
-1.89504e-12
1.62313e-09
-1.99423e-12
1.61655e-09
-2.07821e-12
1.60978e-09
-2.14656e-12
1.60286e-09
-2.19905e-12
1.59584e-09
-2.23568e-12
1.58878e-09
-2.25602e-12
1.58172e-09
-2.25997e-12
1.57471e-09
-2.24648e-12
-2.21025e-12
1.56781e-09
4.75865e-10
4.74499e-10
4.72981e-10
4.71325e-10
4.69544e-10
4.67649e-10
4.65654e-10
4.63576e-10
4.6143e-10
4.59231e-10
4.56995e-10
4.54739e-10
4.52479e-10
4.50232e-10
4.48022e-10
1.22953e-09
-4.83773e-10
2.80403e-10
1.52221e-09
-3.96548e-10
1.03872e-10
1.81871e-09
-2.42241e-10
-5.4257e-11
2.1122e-09
-8.69915e-11
-2.06503e-10
2.40039e-09
6.2441e-11
-3.50631e-10
2.68374e-09
1.96347e-10
-4.79696e-10
2.96328e-09
3.11019e-10
-5.90561e-10
3.23979e-09
4.02729e-10
-6.79241e-10
3.51388e-09
4.67377e-10
-7.41463e-10
3.78599e-09
5.00547e-10
-7.72653e-10
4.05642e-09
4.97476e-10
-7.67909e-10
4.32535e-09
4.53117e-10
-7.22045e-10
4.59279e-09
3.62381e-10
-6.29825e-10
4.85867e-09
2.21105e-10
-4.8698e-10
5.12287e-09
2.76812e-11
-2.91881e-10
5.38564e-09
-2.13472e-10
-4.9304e-11
5.64797e-09
-4.87355e-10
2.25029e-10
5.91249e-09
-7.61677e-10
4.9715e-10
6.18431e-09
-9.83901e-10
7.12081e-10
6.47174e-09
-1.07444e-09
7.87017e-10
6.7855e-09
-9.52878e-10
6.39121e-10
7.13444e-09
-5.55852e-10
2.0691e-10
7.46422e-09
1.23876e-11
-3.42168e-10
7.74541e-09
3.58879e-10
-6.40065e-10
7.97205e-09
4.51663e-10
-6.78303e-10
8.14289e-09
3.53548e-10
-5.2439e-10
8.25969e-09
1.24795e-10
-2.41595e-10
8.32495e-09
-1.86609e-10
1.21352e-10
8.34039e-09
-5.41048e-10
5.256e-10
8.30694e-09
-9.04465e-10
9.3792e-10
8.22545e-09
-1.24539e-09
1.32687e-09
8.09738e-09
-1.53289e-09
1.66097e-09
7.92444e-09
-1.73582e-09
1.90876e-09
7.70925e-09
-1.83247e-09
2.04767e-09
7.45502e-09
-1.80808e-09
2.06231e-09
7.16516e-09
-1.65491e-09
1.94477e-09
6.84288e-09
-1.37088e-09
1.69317e-09
6.49117e-09
-9.56506e-10
1.30821e-09
6.11314e-09
-4.10758e-10
7.88794e-10
5.71143e-09
2.72058e-10
1.29651e-10
5.28546e-09
1.09642e-09
-6.70454e-10
4.82401e-09
2.03931e-09
-1.57786e-09
4.30375e-09
2.98074e-09
-2.46048e-09
3.72596e-09
3.63346e-09
-3.05567e-09
3.24038e-09
3.37927e-09
-2.89369e-09
2.56991e-09
-5.65188e-10
2.74641e-09
-5.7305e-10
2.98656e-09
-4.82389e-10
3.25559e-09
-3.56022e-10
3.53874e-09
-2.20702e-10
3.82811e-09
-9.30278e-11
4.12018e-09
1.8952e-11
4.41324e-09
1.09667e-10
4.70644e-09
1.74175e-10
4.99934e-09
2.07653e-10
5.29162e-09
2.05192e-10
5.58301e-09
1.61724e-10
5.87316e-09
7.22379e-11
6.16162e-09
-6.73544e-11
6.44798e-09
-2.58684e-10
6.73211e-09
-4.97605e-10
7.01469e-09
-7.69931e-10
7.29811e-09
-1.0451e-09
7.5874e-09
-1.27319e-09
7.89111e-09
-1.37816e-09
8.22073e-09
-1.2825e-09
8.58641e-09
-9.21533e-10
8.93296e-09
-3.34162e-10
9.23032e-09
6.15165e-11
9.47204e-09
2.09943e-10
9.65616e-09
1.69426e-10
9.78386e-09
-2.90346e-12
9.85726e-09
-2.60004e-10
9.87785e-09
-5.6164e-10
9.84644e-09
-8.73056e-10
9.76406e-09
-1.16301e-09
9.63265e-09
-1.40148e-09
9.45449e-09
-1.55766e-09
9.23309e-09
-1.61107e-09
8.97293e-09
-1.54793e-09
8.6792e-09
-1.36118e-09
8.35764e-09
-1.04932e-09
8.01496e-09
-6.13826e-10
7.66023e-09
-5.60327e-11
7.30682e-09
6.25466e-10
6.97405e-09
1.42919e-09
6.6865e-09
2.32687e-09
6.4736e-09
3.19364e-09
6.37688e-09
3.73017e-09
3.33157e-09
6.28569e-09
4.48847e-09
-5.82791e-10
4.56946e-09
-6.54042e-10
4.72615e-09
-6.39077e-10
4.93964e-09
-5.69508e-10
5.18923e-09
-4.70295e-10
5.46145e-09
-3.65247e-10
5.74778e-09
-2.67377e-10
6.04299e-09
-1.85548e-10
6.34386e-09
-1.26696e-10
6.64831e-09
-9.67943e-11
6.95487e-09
-1.01368e-10
7.26239e-09
-1.45797e-10
7.56982e-09
-2.35187e-10
7.87611e-09
-3.73642e-10
8.18029e-09
-5.62869e-10
8.4817e-09
-7.99013e-10
8.78046e-09
-1.06869e-09
9.07853e-09
-1.34317e-09
9.38065e-09
-1.5753e-09
9.6954e-09
-1.69291e-09
1.00349e-08
-1.62198e-09
1.04105e-08
-1.2972e-09
1.07677e-08
-6.91327e-10
1.10764e-08
-2.47123e-10
1.13295e-08
-4.32305e-11
1.15244e-08
-2.54636e-11
1.16614e-08
-1.39893e-10
1.17421e-08
-3.40669e-10
1.17676e-08
-5.87124e-10
1.17385e-08
-8.43985e-10
1.16561e-08
-1.08059e-09
1.15229e-08
-1.2683e-09
1.13419e-08
-1.37667e-09
1.11177e-08
-1.38688e-09
1.08564e-08
-1.28662e-09
1.05653e-08
-1.07009e-09
1.02532e-08
-7.37235e-10
9.93123e-09
-2.91837e-10
9.61482e-09
2.60372e-10
9.3276e-09
9.12695e-10
9.10485e-09
1.65193e-09
8.99254e-09
2.43918e-09
9.02848e-09
3.15771e-09
9.18919e-09
3.56946e-09
3.26768e-09
9.25308e-09
7.11401e-09
-5.65537e-10
7.13151e-09
-6.71541e-10
7.20625e-09
-7.13821e-10
7.34454e-09
-7.07796e-10
7.53559e-09
-6.61349e-10
7.76518e-09
-5.94833e-10
8.02253e-09
-5.24725e-10
8.29969e-09
-4.62707e-10
8.59092e-09
-4.17924e-10
8.8921e-09
-3.97982e-10
9.20018e-09
-4.09443e-10
9.51271e-09
-4.5833e-10
9.82759e-09
-5.50064e-10
1.01429e-08
-6.88907e-10
1.04567e-08
-8.76732e-10
1.07677e-08
-1.11001e-09
1.10752e-08
-1.37617e-09
1.13804e-08
-1.6484e-09
1.16876e-08
-1.88246e-09
1.2005e-08
-2.01032e-09
1.23451e-08
-1.96212e-09
1.27206e-08
-1.6727e-09
1.30791e-08
-1.04981e-09
1.33914e-08
-5.59403e-10
1.36501e-08
-3.01896e-10
1.38513e-08
-2.26672e-10
1.39944e-08
-2.83e-10
1.40802e-08
-4.26531e-10
1.41095e-08
-6.16357e-10
1.40825e-08
-8.16978e-10
1.40006e-08
-9.98694e-10
1.38672e-08
-1.13494e-09
1.36861e-08
-1.19554e-09
1.34631e-08
-1.16389e-09
1.32061e-08
-1.02968e-09
1.2925e-08
-7.88977e-10
1.26318e-08
-4.43978e-10
1.23417e-08
-1.78843e-12
1.20757e-08
5.26386e-10
1.18636e-08
1.12479e-09
1.17467e-08
1.76884e-09
1.17724e-08
2.4135e-09
1.19657e-08
2.96441e-09
1.22755e-08
3.25967e-09
3.08458e-09
1.24586e-08
1.06172e-08
-5.35055e-10
1.05972e-08
-6.51565e-10
1.06123e-08
-7.28831e-10
1.06746e-08
-7.70177e-10
1.07928e-08
-7.79486e-10
1.09592e-08
-7.61295e-10
1.11644e-08
-7.29894e-10
1.14004e-08
-6.98669e-10
1.16601e-08
-6.777e-10
1.1938e-08
-6.75894e-10
1.22294e-08
-7.00842e-10
1.25305e-08
-7.59361e-10
1.28377e-08
-8.57319e-10
1.31481e-08
-9.99264e-10
1.34587e-08
-1.18733e-09
1.3767e-08
-1.41834e-09
1.40714e-08
-1.68053e-09
1.43721e-08
-1.94908e-09
1.46724e-08
-2.18278e-09
1.49801e-08
-2.318e-09
1.53076e-08
-2.28964e-09
1.56686e-08
-2.03366e-09
1.60151e-08
-1.39636e-09
1.63198e-08
-8.64141e-10
1.65749e-08
-5.5698e-10
1.67753e-08
-4.27077e-10
1.69191e-08
-4.26815e-10
1.70063e-08
-5.13716e-10
1.70367e-08
-6.4678e-10
1.70106e-08
-7.90794e-10
1.69292e-08
-9.1729e-10
1.6797e-08
-1.00274e-09
1.66184e-08
-1.01699e-09
1.64009e-08
-9.46364e-10
1.61542e-08
-7.82978e-10
1.58905e-08
-5.25298e-10
1.56249e-08
-1.78345e-10
1.53759e-08
2.47219e-10
1.51674e-08
7.34893e-10
1.50301e-08
1.26207e-09
1.50014e-08
1.79754e-09
1.51175e-08
2.29738e-09
1.53875e-08
2.69443e-09
1.57518e-08
2.89535e-09
2.80647e-09
1.60299e-08
1.51967e-08
-5.04905e-10
1.51601e-08
-6.15033e-10
1.51406e-08
-7.0934e-10
1.51494e-08
-7.78915e-10
1.51976e-08
-8.27717e-10
1.52923e-08
-8.56032e-10
1.54303e-08
-8.67844e-10
1.56054e-08
-8.73786e-10
1.5812e-08
-8.84322e-10
1.60445e-08
-9.08345e-10
1.62974e-08
-9.53752e-10
1.65659e-08
-1.0279e-09
1.68455e-08
-1.13692e-09
1.71319e-08
-1.28565e-09
1.74211e-08
-1.47649e-09
1.77093e-08
-1.70654e-09
1.79936e-08
-1.96483e-09
1.8273e-08
-2.22853e-09
1.85498e-08
-2.45958e-09
1.88306e-08
-2.59879e-09
1.91276e-08
-2.58658e-09
1.94547e-08
-2.36084e-09
1.97715e-08
-1.71312e-09
2.00534e-08
-1.14599e-09
2.0292e-08
-7.9564e-10
2.04811e-08
-6.16206e-10
2.06173e-08
-5.63001e-10
2.06995e-08
-5.9588e-10
2.07264e-08
-6.73685e-10
2.06982e-08
-7.62591e-10
2.06164e-08
-8.35492e-10
2.04858e-08
-8.72158e-10
2.0312e-08
-8.43199e-10
2.01038e-08
-7.3817e-10
1.98728e-08
-5.51976e-10
1.96332e-08
-2.85701e-10
1.94023e-08
5.26282e-11
1.92e-08
4.49456e-10
1.90504e-08
8.84485e-10
1.89803e-08
1.33216e-09
1.90172e-08
1.76073e-09
1.91814e-08
2.13314e-09
1.94693e-08
2.40654e-09
1.98293e-08
2.53536e-09
2.48629e-09
2.01494e-08
2.10839e-08
-4.8176e-10
2.10482e-08
-5.79372e-10
2.10132e-08
-6.74345e-10
2.09932e-08
-7.58847e-10
2.09952e-08
-8.29776e-10
2.10291e-08
-8.89881e-10
2.10985e-08
-9.37243e-10
2.1205e-08
-9.80319e-10
2.13447e-08
-1.02398e-09
2.15139e-08
-1.07755e-09
2.1708e-08
-1.14791e-09
2.19225e-08
-1.24238e-09
2.21523e-08
-1.36673e-09
2.23924e-08
-1.52579e-09
2.2638e-08
-1.72209e-09
2.28842e-08
-1.95274e-09
2.31268e-08
-2.20743e-09
2.33636e-08
-2.46531e-09
2.35954e-08
-2.69135e-09
2.38274e-08
-2.83081e-09
2.4071e-08
-2.83019e-09
2.43403e-08
-2.63011e-09
2.46048e-08
-1.97762e-09
2.4844e-08
-1.38523e-09
2.50493e-08
-1.0009e-09
2.52128e-08
-7.79744e-10
2.53295e-08
-6.79708e-10
2.53972e-08
-6.63532e-10
2.5413e-08
-6.8953e-10
2.53775e-08
-7.27022e-10
2.52934e-08
-7.51455e-10
2.51634e-08
-7.4209e-10
2.4995e-08
-6.74892e-10
2.47989e-08
-5.41985e-10
2.45877e-08
-3.40786e-10
2.4377e-08
-7.50184e-11
2.41846e-08
2.4501e-10
2.40306e-08
6.03441e-10
2.39359e-08
9.79189e-10
2.39207e-08
1.34737e-09
2.4001e-08
1.68046e-09
2.41832e-08
1.95094e-09
2.44557e-08
2.13404e-09
2.47797e-08
2.21135e-09
2.17644e-09
2.50895e-08
2.85492e-08
-4.67011e-10
2.8522e-08
-5.52255e-10
2.84886e-08
-6.40926e-10
2.84576e-08
-7.2782e-10
2.84373e-08
-8.0948e-10
2.84341e-08
-8.86649e-10
2.84534e-08
-9.56593e-10
2.8499e-08
-1.02592e-09
2.85733e-08
-1.09825e-09
2.8674e-08
-1.17826e-09
2.87987e-08
-1.2726e-09
2.89443e-08
-1.388e-09
2.91063e-08
-1.52875e-09
2.928e-08
-1.69948e-09
2.94603e-08
-1.90239e-09
2.96417e-08
-2.13413e-09
2.98191e-08
-2.38479e-09
2.99892e-08
-2.6354e-09
3.01515e-08
-2.85367e-09
3.03097e-08
-2.98898e-09
3.04739e-08
-2.99442e-09
3.06576e-08
-2.81386e-09
3.08439e-08
-2.16388e-09
3.10172e-08
-1.55853e-09
3.11684e-08
-1.15211e-09
3.12884e-08
-8.99709e-10
3.13701e-08
-7.61466e-10
3.14096e-08
-7.02986e-10
3.14042e-08
-6.84188e-10
3.13551e-08
-6.77926e-10
3.12631e-08
-6.59439e-10
3.11301e-08
-6.0907e-10
3.09663e-08
-5.11064e-10
3.07827e-08
-3.58419e-10
3.0593e-08
-1.51117e-10
3.04129e-08
1.0516e-10
3.02593e-08
3.98527e-10
3.01503e-08
7.12518e-10
3.01019e-08
1.02759e-09
3.01269e-08
1.32235e-09
3.02317e-08
1.57569e-09
3.04132e-08
1.7694e-09
3.06565e-08
1.89071e-09
3.09334e-08
1.93451e-09
1.90458e-09
3.12052e-08
3.79005e-08
-4.59613e-10
3.78831e-08
-5.34899e-10
3.78582e-08
-6.15928e-10
3.783e-08
-6.99676e-10
3.78042e-08
-7.8366e-10
3.77849e-08
-8.67318e-10
3.77783e-08
-9.50011e-10
3.77861e-08
-1.03372e-09
3.7811e-08
-1.12312e-09
3.78538e-08
-1.22108e-09
3.79149e-08
-1.33371e-09
3.79914e-08
-1.46452e-09
3.808e-08
-1.61735e-09
3.81773e-08
-1.79674e-09
3.82786e-08
-2.00374e-09
3.83785e-08
-2.23397e-09
3.84714e-08
-2.47777e-09
3.85538e-08
-2.71776e-09
3.86241e-08
-2.92401e-09
3.86846e-08
-3.04946e-09
3.87442e-08
-3.05396e-09
3.88152e-08
-2.88491e-09
3.88971e-08
-2.24576e-09
3.89802e-08
-1.64164e-09
3.9055e-08
-1.22697e-09
3.91113e-08
-9.55946e-10
3.91389e-08
-7.89031e-10
3.91346e-08
-6.98771e-10
3.90978e-08
-6.47367e-10
3.90248e-08
-6.04886e-10
3.8915e-08
-5.49665e-10
3.87739e-08
-4.67936e-10
3.86111e-08
-3.48282e-10
3.84379e-08
-1.85281e-10
3.82684e-08
1.84563e-11
3.81163e-08
2.57278e-10
3.79973e-08
5.17434e-10
3.79254e-08
7.84453e-10
3.79114e-08
1.0416e-09
3.79615e-08
1.27229e-09
3.80752e-08
1.46192e-09
3.82449e-08
1.5997e-09
3.84555e-08
1.68012e-09
3.86862e-08
1.70382e-09
1.67712e-09
3.89137e-08
4.94748e-08
-4.5924e-10
4.94669e-08
-5.26962e-10
4.94521e-08
-6.01134e-10
4.94325e-08
-6.80168e-10
4.94114e-08
-7.62469e-10
4.93914e-08
-8.47348e-10
4.9376e-08
-9.34601e-10
4.93678e-08
-1.02552e-09
4.93677e-08
-1.12305e-09
4.93762e-08
-1.22955e-09
4.9392e-08
-1.34957e-09
4.94141e-08
-1.48657e-09
4.94412e-08
-1.64447e-09
4.94695e-08
-1.82505e-09
4.94943e-08
-2.02853e-09
4.95105e-08
-2.25014e-09
4.95132e-08
-2.48053e-09
4.94985e-08
-2.70305e-09
4.94644e-08
-2.88989e-09
4.94125e-08
-2.99759e-09
4.93504e-08
-2.99184e-09
4.92894e-08
-2.82387e-09
4.9247e-08
-2.20342e-09
4.92201e-08
-1.61475e-09
4.91991e-08
-1.20594e-09
4.91724e-08
-9.29254e-10
4.91315e-08
-7.4813e-10
4.90703e-08
-6.37532e-10
4.89838e-08
-5.60918e-10
4.88715e-08
-4.92555e-10
4.87355e-08
-4.13677e-10
4.85797e-08
-3.12149e-10
4.84126e-08
-1.81207e-10
4.82455e-08
-1.81132e-11
4.80901e-08
1.73857e-10
4.79602e-08
3.87177e-10
4.78674e-08
6.10256e-10
4.78213e-08
8.30525e-10
4.78279e-08
1.03498e-09
4.78884e-08
1.21182e-09
4.79985e-08
1.35178e-09
4.8149e-08
1.44921e-09
4.83266e-08
1.50257e-09
4.85158e-08
1.51453e-09
1.49111e-09
4.87019e-08
6.36299e-08
-4.6791e-10
6.36329e-08
-5.2989e-10
6.36301e-08
-5.9835e-10
6.36225e-08
-6.72584e-10
6.36117e-08
-7.51719e-10
6.35996e-08
-8.35235e-10
6.35881e-08
-9.23033e-10
6.35785e-08
-1.01591e-09
6.3571e-08
-1.11563e-09
6.35658e-08
-1.22429e-09
6.35612e-08
-1.345e-09
6.35552e-08
-1.48054e-09
6.35444e-08
-1.6337e-09
6.35251e-08
-1.80576e-09
6.34927e-08
-1.99608e-09
6.34419e-08
-2.19935e-09
6.3368e-08
-2.40668e-09
6.32662e-08
-2.60124e-09
6.31344e-08
-2.7581e-09
6.29744e-08
-2.83754e-09
6.27918e-08
-2.80924e-09
6.25971e-08
-2.62918e-09
6.24262e-08
-2.0325e-09
6.22822e-08
-1.47082e-09
6.21554e-08
-1.0791e-09
6.20362e-08
-8.10027e-10
6.19153e-08
-6.2724e-10
6.17836e-08
-5.0584e-10
6.16379e-08
-4.15231e-10
6.14783e-08
-3.32969e-10
6.1307e-08
-2.42341e-10
6.11283e-08
-1.33476e-10
6.09502e-08
-3.14479e-12
6.07817e-08
1.50398e-10
6.06338e-08
3.2183e-10
6.05167e-08
5.04236e-10
6.04387e-08
6.88226e-10
6.04054e-08
8.63873e-10
6.04186e-08
1.02178e-09
6.04763e-08
1.15413e-09
6.05725e-08
1.25552e-09
6.06983e-08
1.32342e-09
6.08427e-08
1.3582e-09
6.09943e-08
1.36288e-09
1.34236e-09
6.11431e-08
8.07567e-08
-4.89526e-10
8.07739e-08
-5.47128e-10
8.07865e-08
-6.10933e-10
8.07947e-08
-6.80745e-10
8.07992e-08
-7.56198e-10
8.08009e-08
-8.37001e-10
8.0801e-08
-9.23112e-10
8.08001e-08
-1.01497e-09
8.0798e-08
-1.11359e-09
8.07941e-08
-1.22038e-09
8.07865e-08
-1.33734e-09
8.07722e-08
-1.46627e-09
8.07473e-08
-1.60885e-09
8.07069e-08
-1.76535e-09
8.06453e-08
-1.9345e-09
8.05566e-08
-2.11065e-09
8.04351e-08
-2.28513e-09
8.02751e-08
-2.44121e-09
8.0074e-08
-2.55699e-09
7.98328e-08
-2.59637e-09
7.95556e-08
-2.53204e-09
7.92516e-08
-2.32521e-09
7.89716e-08
-1.75249e-09
7.87245e-08
-1.22371e-09
7.85008e-08
-8.55442e-10
7.82929e-08
-6.02119e-10
7.80924e-08
-4.26749e-10
7.78911e-08
-3.04521e-10
7.76859e-08
-2.10007e-10
7.74771e-08
-1.24137e-10
7.72678e-08
-3.30673e-11
7.70631e-08
7.11751e-11
7.68688e-08
1.91147e-10
7.66939e-08
3.25316e-10
7.65462e-08
4.6951e-10
7.64329e-08
6.17605e-10
7.63587e-08
7.62387e-10
7.63259e-08
8.96662e-10
7.63337e-08
1.01406e-09
7.63781e-08
1.10972e-09
7.64529e-08
1.18072e-09
7.655e-08
1.22623e-09
7.66609e-08
1.24733e-09
7.67771e-08
1.24669e-09
1.22803e-09
7.68914e-08
1.01323e-07
-5.27379e-10
1.01357e-07
-5.81614e-10
1.01388e-07
-6.41629e-10
1.01415e-07
-7.07489e-10
1.01438e-07
-7.79131e-10
1.01457e-07
-8.56452e-10
1.01474e-07
-9.39457e-10
1.01487e-07
-1.02833e-09
1.01497e-07
-1.1236e-09
1.01503e-07
-1.22595e-09
1.01502e-07
-1.33643e-09
1.01491e-07
-1.45577e-09
1.01467e-07
-1.58457e-09
1.01423e-07
-1.7219e-09
1.01355e-07
-1.86573e-09
1.01254e-07
-2.00988e-09
1.01114e-07
-2.1457e-09
1.0093e-07
-2.25706e-09
1.00697e-07
-2.32421e-09
1.00416e-07
-2.31522e-09
1.00089e-07
-2.20475e-09
9.97229e-08
-1.95902e-09
9.93766e-08
-1.40619e-09
9.90631e-08
-9.1026e-10
9.87733e-08
-5.656e-10
9.85009e-08
-3.29744e-10