/*--------------------------------*- C++ -*----------------------------------*\
| =========                 |                                                 |
| \\      /  F ield         | OpenFOAM: The Open Source CFD Toolbox           |
|  \\    /   O peration     | Version:  2312                                  |
|   \\  /    A nd           | Website:  www.openfoam.com                      |
|    \\/     M anipulation  |                                                 |
\*---------------------------------------------------------------------------*/
FoamFile
{
    version     2.0;
    format      ascii;
    arch        "LSB;label=32;scalar=64";
    class       volScalarField;
    location    "43.75";
    object      p;
}
// * * * * * * * * * * * * * * * * * * * * * * * * * * * * * * * * * * * * * //

dimensions      [0 2 -2 0 0 0 0];

internalField   nonuniform List<scalar> 
4800
(
2.49568e-14
-1.18119e-06
-2.22361e-06
-3.15787e-06
-3.99756e-06
-4.76114e-06
-5.45272e-06
-6.07694e-06
-6.64348e-06
-7.15983e-06
-7.63146e-06
-8.0601e-06
-8.43699e-06
-9.00693e-06
-1.07771e-05
1.04097e-08
-1.16845e-06
-2.20846e-06
-3.14111e-06
-3.98005e-06
-4.74418e-06
-5.4375e-06
-6.06512e-06
-6.63748e-06
-7.16405e-06
-7.65535e-06
-8.12715e-06
-8.59315e-06
-9.16253e-06
-1.00891e-05
2.18681e-08
-1.15433e-06
-2.19198e-06
-3.123e-06
-3.9601e-06
-4.72368e-06
-5.41804e-06
-6.04804e-06
-6.62474e-06
-7.15846e-06
-7.66076e-06
-8.14762e-06
-8.62686e-06
-9.10244e-06
-9.54266e-06
3.43817e-08
-1.13835e-06
-2.17289e-06
-3.10141e-06
-3.93676e-06
-4.69802e-06
-5.3925e-06
-6.02319e-06
-6.60079e-06
-7.13501e-06
-7.63424e-06
-8.1048e-06
-8.53678e-06
-8.89329e-06
-9.09536e-06
4.9368e-08
-1.1188e-06
-2.14918e-06
-3.07398e-06
-3.90777e-06
-4.66419e-06
-5.35666e-06
-5.98562e-06
-6.55939e-06
-7.08561e-06
-7.56717e-06
-7.99967e-06
-8.36119e-06
-8.60829e-06
-8.68006e-06
6.84939e-08
-1.09391e-06
-2.1189e-06
-3.03853e-06
-3.86892e-06
-4.61992e-06
-5.30624e-06
-5.92926e-06
-6.49293e-06
-7.00131e-06
-7.45167e-06
-7.83258e-06
-8.11994e-06
-8.2808e-06
-8.28436e-06
9.4247e-08
-1.06116e-06
-2.07929e-06
-2.99206e-06
-3.81587e-06
-4.5603e-06
-5.23626e-06
-5.84705e-06
-6.39288e-06
-6.87354e-06
-7.28246e-06
-7.60642e-06
-7.82675e-06
-7.92642e-06
-7.89783e-06
1.30475e-07
-1.01677e-06
-2.02632e-06
-2.93008e-06
-3.74426e-06
-4.47794e-06
-5.1393e-06
-5.7308e-06
-6.25064e-06
-6.69541e-06
-7.05751e-06
-7.32655e-06
-7.49257e-06
-7.5522e-06
-7.51082e-06
1.82514e-07
-9.55522e-07
-1.95454e-06
-2.84659e-06
-3.64758e-06
-4.36542e-06
-5.00643e-06
-5.57174e-06
-6.0585e-06
-6.46232e-06
-6.77734e-06
-6.99847e-06
-7.12406e-06
-7.15964e-06
-7.11603e-06
2.56778e-07
-8.71042e-07
-1.85728e-06
-2.73437e-06
-3.51794e-06
-4.21439e-06
-4.82894e-06
-5.36198e-06
-5.8108e-06
-6.17227e-06
-6.44403e-06
-6.62654e-06
-6.72421e-06
-6.7471e-06
-6.70735e-06
3.59845e-07
-7.56501e-07
-1.7273e-06
-2.58567e-06
-3.34734e-06
-4.01637e-06
-4.59928e-06
-5.09581e-06
-5.50484e-06
-5.82599e-06
-6.06083e-06
-6.21423e-06
-6.29415e-06
-6.31221e-06
-6.2799e-06
4.97623e-07
-6.05472e-07
-1.55767e-06
-2.39296e-06
-3.12892e-06
-3.76514e-06
-4.31272e-06
-4.77101e-06
-5.14141e-06
-5.42682e-06
-5.63217e-06
-5.76513e-06
-5.83515e-06
-5.85372e-06
-5.83096e-06
6.75296e-07
-4.12331e-07
-1.34229e-06
-2.14966e-06
-2.84944e-06
-3.45679e-06
-3.96817e-06
-4.38928e-06
-4.72479e-06
-4.98055e-06
-5.1639e-06
-5.28383e-06
-5.34996e-06
-5.37274e-06
-5.3608e-06
8.9798e-07
-1.71772e-07
-1.07561e-06
-1.85354e-06
-2.5223e-06
-3.09255e-06
-3.56818e-06
-3.95565e-06
-4.26186e-06
-4.49481e-06
-4.66311e-06
-4.77613e-06
-4.84301e-06
-4.87284e-06
-4.87276e-06
1.17099e-06
1.21073e-07
-7.56899e-07
-1.50354e-06
-2.13881e-06
-2.67426e-06
-3.11784e-06
-3.47723e-06
-3.76101e-06
-3.97834e-06
-4.13804e-06
-4.24925e-06
-4.32053e-06
-4.35971e-06
-4.37262e-06
1.49707e-06
4.67985e-07
-3.83566e-07
-1.09937e-06
-1.70252e-06
-2.20765e-06
-2.62501e-06
-2.9633e-06
-3.2321e-06
-3.44118e-06
-3.59867e-06
-3.71324e-06
-3.79259e-06
-3.84297e-06
-3.86977e-06
1.87647e-06
8.69997e-07
4.39562e-08
-6.44641e-07
-1.22097e-06
-1.70206e-06
-2.10065e-06
-2.42589e-06
-2.68803e-06
-2.89626e-06
-3.05692e-06
-3.18109e-06
-3.27473e-06
-3.33955e-06
-3.38081e-06
2.30399e-06
1.3217e-06
5.1821e-07
-1.48963e-07
-7.06257e-07
-1.17153e-06
-1.55897e-06
-1.87845e-06
-2.14386e-06
-2.35924e-06
-2.52763e-06
-2.66547e-06
-2.78265e-06
-2.87243e-06
-2.92693e-06
2.76599e-06
1.8088e-06
1.02337e-06
3.70063e-07
-1.78068e-07
-6.38168e-07
-1.02283e-06
-1.34421e-06
-1.61277e-06
-1.84213e-06
-2.04427e-06
-2.20976e-06
-2.33627e-06
-2.43192e-06
-2.5085e-06
3.24561e-06
2.31484e-06
1.54261e-06
8.93734e-07
3.45723e-07
-1.21053e-07
-5.18931e-07
-8.60091e-07
-1.15163e-06
-1.39981e-06
-1.61067e-06
-1.789e-06
-1.93941e-06
-2.06753e-06
-2.1787e-06
3.67366e-06
2.77104e-06
2.00954e-06
1.36163e-06
8.05525e-07
3.26561e-07
-8.70519e-08
-4.45374e-07
-7.56078e-07
-1.0258e-06
-1.26124e-06
-1.46835e-06
-1.65131e-06
-1.81293e-06
-1.95568e-06
4.00063e-06
3.12877e-06
2.37855e-06
1.7289e-06
1.16426e-06
6.73752e-07
2.44133e-07
-1.33616e-07
-4.67022e-07
-7.62619e-07
-1.02596e-06
-1.26132e-06
-1.47186e-06
-1.66008e-06
-1.82852e-06
4.23293e-06
3.38951e-06
2.65246e-06
2.00508e-06
1.43619e-06
9.34986e-07
4.90904e-07
9.53875e-08
-2.58356e-07
-5.75827e-07
-8.61552e-07
-1.11915e-06
-1.3517e-06
-1.56181e-06
-1.75197e-06
4.39839e-06
3.58458e-06
2.86187e-06
2.22063e-06
1.65095e-06
1.14279e-06
6.87344e-07
2.77407e-07
-9.28016e-08
-4.27966e-07
-7.3199e-07
-1.00817e-06
-1.25942e-06
-1.48823e-06
-1.69676e-06
4.52081e-06
3.73255e-06
3.02736e-06
2.39521e-06
1.82718e-06
1.31492e-06
8.51268e-07
4.3027e-07
4.70588e-08
-3.02379e-07
-6.21504e-07
-9.13256e-07
-1.18016e-06
-1.42432e-06
-1.64768e-06
4.61104e-06
3.85105e-06
3.16412e-06
2.54162e-06
1.97669e-06
1.46258e-06
9.93367e-07
5.64081e-07
1.70638e-07
-1.90382e-07
-5.21928e-07
-8.26469e-07
-1.10619e-06
-1.36298e-06
-1.59855e-06
4.68316e-06
3.94915e-06
3.2791e-06
2.66643e-06
2.10574e-06
1.59137e-06
1.1184e-06
6.82794e-07
2.81168e-07
-8.93218e-08
-4.31092e-07
-7.46204e-07
-1.03661e-06
-1.30395e-06
-1.54975e-06
4.74123e-06
4.03062e-06
3.37627e-06
2.77326e-06
2.21721e-06
1.70341e-06
1.22785e-06
7.87294e-07
3.79043e-07
8.04264e-10
-3.49437e-07
-6.73455e-07
-9.72871e-07
-1.24909e-06
-1.50348e-06
4.78773e-06
4.09801e-06
3.45793e-06
2.86396e-06
2.31248e-06
1.79964e-06
1.32227e-06
8.77802e-07
4.64136e-07
7.94495e-08
-2.7793e-07
-6.09474e-07
-9.16506e-07
-1.20025e-06
-1.46192e-06
4.82433e-06
4.15306e-06
3.52577e-06
2.94001e-06
2.39279e-06
1.88106e-06
1.40237e-06
9.54766e-07
5.36602e-07
1.46465e-07
-2.16968e-07
-5.5488e-07
-8.68395e-07
-1.15855e-06
-1.42643e-06
4.85246e-06
4.19735e-06
3.58144e-06
3.00298e-06
2.45958e-06
1.94897e-06
1.4693e-06
1.0191e-06
5.97137e-07
2.02368e-07
-1.6622e-07
-5.0957e-07
-8.28628e-07
-1.12426e-06
-1.39743e-06
4.87349e-06
4.23254e-06
3.62664e-06
3.05457e-06
2.51456e-06
2.00498e-06
1.52452e-06
1.07211e-06
6.46908e-07
2.4817e-07
-1.24844e-07
-4.72869e-07
-7.96677e-07
-1.09699e-06
-1.37465e-06
4.8888e-06
4.26021e-06
3.66306e-06
3.09655e-06
2.55948e-06
2.0508e-06
1.56964e-06
1.11532e-06
6.87317e-07
2.85143e-07
-9.17026e-08
-4.43764e-07
-7.71655e-07
-1.07597e-06
-1.35744e-06
4.89963e-06
4.28183e-06
3.69228e-06
3.13056e-06
2.59602e-06
2.08809e-06
1.6063e-06
1.15029e-06
7.19812e-07
3.14632e-07
-6.55549e-08
-4.21121e-07
-7.52538e-07
-1.06029e-06
-1.34503e-06
4.90706e-06
4.29866e-06
3.71569e-06
3.1581e-06
2.62571e-06
2.11838e-06
1.63597e-06
1.17843e-06
7.45762e-07
3.37925e-07
-4.51966e-08
-4.03826e-07
-7.38307e-07
-1.04903e-06
-1.33656e-06
4.91197e-06
4.31173e-06
3.73445e-06
3.1804e-06
2.64983e-06
2.14296e-06
1.65995e-06
1.20101e-06
7.66368e-07
3.56169e-07
-2.95451e-08
-3.90863e-07
-7.28017e-07
-1.04131e-06
-1.33124e-06
4.91505e-06
4.3219e-06
3.7495e-06
3.19847e-06
2.66943e-06
2.16288e-06
1.67928e-06
1.21906e-06
7.82642e-07
3.70337e-07
-1.76715e-08
-3.81354e-07
-7.20844e-07
-1.03637e-06
-1.32837e-06
4.91681e-06
4.32987e-06
3.76171e-06
3.21327e-06
2.6855e-06
2.17918e-06
1.69499e-06
1.23359e-06
7.95548e-07
3.81344e-07
-8.72122e-09
-3.74513e-07
-7.16076e-07
-1.03357e-06
-1.32739e-06
4.91761e-06
4.33644e-06
3.77214e-06
3.22605e-06
2.6994e-06
2.19323e-06
1.70843e-06
1.24586e-06
8.06254e-07
3.90233e-07
-1.78558e-09
-3.6957e-07
-7.13086e-07
-1.03243e-06
-1.32792e-06
4.9178e-06
4.34179e-06
3.78105e-06
3.23716e-06
2.71154e-06
2.20546e-06
1.72003e-06
1.25629e-06
8.1516e-07
3.97393e-07
3.5275e-09
-3.66106e-07
-7.11393e-07
-1.03238e-06
-1.32939e-06
-1.21998e-05
-9.739e-06
-8.24032e-06
-7.247e-06
-6.45742e-06
-5.85295e-06
-5.37921e-06
-4.9965e-06
-4.67649e-06
-4.3954e-06
-4.13309e-06
-3.87197e-06
-3.59574e-06
-3.29153e-06
-2.94907e-06
-2.56607e-06
-2.14858e-06
-1.72488e-06
-1.34503e-06
-1.09568e-06
-1.10051e-06
-1.49271e-06
-2.3074e-06
-3.32386e-06
-4.30258e-06
-5.10204e-06
-5.64769e-06
-5.89743e-06
-5.82308e-06
-5.40419e-06
-4.62831e-06
-3.49469e-06
-2.01813e-06
-2.30358e-07
1.82084e-06
4.07445e-06
6.45943e-06
8.89706e-06
1.13002e-05
1.35689e-05
1.5573e-05
1.71467e-05
1.79339e-05
1.76389e-05
1.51014e-05
-1.04653e-05
-9.1797e-06
-8.04276e-06
-7.15682e-06
-6.41488e-06
-5.82574e-06
-5.35683e-06
-4.97525e-06
-4.6552e-06
-4.37378e-06
-4.11105e-06
-3.84921e-06
-3.57263e-06
-3.26778e-06
-2.92491e-06
-2.54191e-06
-2.12499e-06
-1.70252e-06
-1.3241e-06
-1.07521e-06
-1.07785e-06
-1.46271e-06
-2.26495e-06
-3.26861e-06
-4.23754e-06
-5.03049e-06
-5.57286e-06
-5.8222e-06
-5.75042e-06
-5.33766e-06
-4.57268e-06
-3.45675e-06
-2.0068e-06
-2.56998e-07
1.74195e-06
3.92516e-06
6.21594e-06
8.52675e-06
1.0756e-05
1.27786e-05
1.4415e-05
1.53984e-05
1.52153e-05
1.31272e-05
8.13244e-06
-9.55807e-06
-8.74529e-06
-7.83653e-06
-7.04864e-06
-6.3595e-06
-5.79176e-06
-5.33065e-06
-4.95139e-06
-4.63147e-06
-4.34946e-06
-4.08594e-06
-3.82332e-06
-3.54561e-06
-3.23981e-06
-2.89644e-06
-2.51353e-06
-2.09757e-06
-1.67698e-06
-1.30086e-06
-1.05326e-06
-1.05421e-06
-1.4314e-06
-2.21969e-06
-3.20849e-06
-4.16569e-06
-4.95054e-06
-5.48859e-06
-5.73715e-06
-5.66834e-06
-5.26326e-06
-4.51247e-06
-3.41955e-06
-2.00424e-06
-3.03931e-07
1.62684e-06
3.71816e-06
5.88627e-06
8.03316e-06
1.00417e-05
1.17648e-05
1.29886e-05
1.34152e-05
1.25735e-05
9.93484e-06
5.35218e-06
-8.97567e-06
-8.38943e-06
-7.65408e-06
-6.94528e-06
-6.30683e-06
-5.76172e-06
-5.30863e-06
-4.93082e-06
-4.60973e-06
-4.32575e-06
-4.06021e-06
-3.79574e-06
-3.51628e-06
-3.20916e-06
-2.86514e-06
-2.48246e-06
-2.06779e-06
-1.64962e-06
-1.27645e-06
-1.03076e-06
-1.03037e-06
-1.39966e-06
-2.17288e-06
-3.14521e-06
-4.08897e-06
-4.86391e-06
-5.39589e-06
-5.64214e-06
-5.57526e-06
-5.1777e-06
-4.44235e-06
-3.37587e-06
-2.00165e-06
-3.61226e-07
1.48603e-06
3.46426e-06
5.482e-06
7.4311e-06
9.1816e-06
1.05711e-05
1.13932e-05
1.13729e-05
1.01829e-05
7.56419e-06
3.73295e-06
-8.51519e-06
-8.06841e-06
-7.47161e-06
-6.85142e-06
-6.25953e-06
-5.73802e-06
-5.29262e-06
-4.91469e-06
-4.59039e-06
-4.30233e-06
-4.03293e-06
-3.76506e-06
-3.48301e-06
-3.1741e-06
-2.82946e-06
-2.44744e-06
-2.03493e-06
-1.62033e-06
-1.25144e-06
-1.00877e-06
-1.0077e-06
-1.36871e-06
-2.12521e-06
-3.07887e-06
-4.00713e-06
-4.77034e-06
-5.29494e-06
-5.53826e-06
-5.47374e-06
-5.08559e-06
-4.36954e-06
-3.33594e-06
-2.01244e-06
-4.45284e-07
1.30092e-06
3.14436e-06
4.98675e-06
6.71271e-06
8.18695e-06
9.24967e-06
9.71596e-06
9.38179e-06
8.06606e-06
5.70614e-06
2.54562e-06
-8.11849e-06
-7.76682e-06
-7.2793e-06
-6.74729e-06
-6.21206e-06
-5.71837e-06
-5.28125e-06
-4.90291e-06
-4.57366e-06
-4.27947e-06
-4.00418e-06
-3.7312e-06
-3.44536e-06
-3.13402e-06
-2.78882e-06
-2.40811e-06
-1.99894e-06
-1.58951e-06
-1.22671e-06
-9.88672e-07
-9.87832e-07
-1.34027e-06
-2.0781e-06
-3.01037e-06
-3.92066e-06
-4.67007e-06
-5.18594e-06
-5.42601e-06
-5.36496e-06
-4.98924e-06
-4.29791e-06
-3.30551e-06
-2.04438e-06
-5.6569e-07
1.06091e-06
2.74859e-06
4.39467e-06
5.88146e-06
7.07702e-06
7.83848e-06
8.01943e-06
7.49178e-06
6.18552e-06
4.14854e-06
1.61157e-06
-7.74762e-06
-7.46757e-06
-7.07438e-06
-6.61725e-06
-6.14675e-06
-5.68927e-06
-5.26635e-06
-4.89199e-06
-4.55751e-06
-4.25629e-06
-3.9737e-06
-3.69413e-06
-3.40334e-06
-3.08892e-06
-2.74339e-06
-2.36483e-06
-1.96051e-06
-1.55825e-06
-1.20381e-06
-9.7237e-07
-9.72988e-07
-1.31666e-06
-2.03368e-06
-2.94146e-06
-3.83092e-06
-4.56407e-06
-5.06965e-06
-5.30614e-06
-5.25e-06
-4.89041e-06
-4.23024e-06
-3.28859e-06
-2.1027e-06
-7.28434e-07
7.60388e-07
2.27391e-06
3.7087e-06
4.9509e-06
5.88072e-06
6.38088e-06
6.34943e-06
5.72165e-06
4.49683e-06
2.76485e-06
7.16955e-07
-7.38044e-06
-7.15605e-06
-6.84132e-06
-6.46094e-06
-6.04917e-06
-5.63196e-06
-5.23693e-06
-4.87054e-06
-4.53579e-06
-4.22925e-06
-3.93925e-06
-3.65258e-06
-3.35632e-06
-3.03864e-06
-2.6935e-06
-2.31834e-06
-1.92086e-06
-1.52826e-06
-1.18499e-06
-9.62579e-07
-9.66172e-07
-1.301e-06
-1.99484e-06
-2.8746e-06
-3.73992e-06
-4.45399e-06
-4.94757e-06
-5.18022e-06
-5.1309e-06
-4.79196e-06
-4.17049e-06
-3.29034e-06
-2.19342e-06
-9.39537e-07
3.95005e-07
1.7202e-06
2.93631e-06
3.93919e-06
4.62772e-06
4.91365e-06
4.73515e-06
4.07207e-06
2.95902e-06
1.49082e-06
-1.85349e-07
-7.00551e-06
-6.82505e-06
-6.57345e-06
-6.26164e-06
-5.91008e-06
-5.54121e-06
-5.17656e-06
-4.82642e-06
-4.49916e-06
-4.19101e-06
-3.89579e-06
-3.60353e-06
-3.30213e-06
-2.98309e-06
-2.63955e-06
-2.26969e-06
-1.88177e-06
-1.502e-06
-1.17333e-06
-9.62898e-07
-9.71281e-07
-1.29731e-06
-1.96534e-06
-2.81299e-06
-3.65032e-06
-4.34196e-06
-4.82206e-06
-5.05086e-06
-5.01088e-06
-4.69816e-06
-4.12412e-06
-3.31722e-06
-2.32336e-06
-1.20485e-06
-3.80718e-08
1.09028e-06
2.08853e-06
2.8668e-06
3.34541e-06
3.46377e-06
3.1909e-06
2.53333e-06
1.53849e-06
2.90676e-07
-1.10053e-06
-6.61577e-06
-6.47077e-06
-6.26983e-06
-6.01675e-06
-5.72273e-06
-5.40358e-06
-5.07547e-06
-4.75026e-06
-4.4357e-06
-4.13236e-06
-3.8369e-06
-3.54225e-06
-3.23909e-06
-2.9215e-06
-2.58143e-06
-2.22022e-06
-1.84557e-06
-1.48263e-06
-1.17273e-06
-9.77773e-07
-9.93026e-07
-1.31036e-06
-1.94966e-06
-2.76055e-06
-3.56565e-06
-4.23083e-06
-4.69594e-06
-4.92175e-06
-4.8946e-06
-4.61471e-06
-4.09787e-06
-3.37652e-06
-2.49931e-06
-1.52898e-06
-5.3919e-07
3.90161e-07
1.179e-06
1.7541e-06
2.05653e-06
2.04874e-06
1.72043e-06
1.09114e-06
2.08624e-07
-8.58089e-07
-2.0285e-06
-6.20629e-06
-6.09086e-06
-5.93118e-06
-5.72759e-06
-5.48543e-06
-5.2145e-06
-4.92644e-06
-4.63152e-06
-4.33689e-06
-4.0454e-06
-3.75607e-06
-3.46465e-06
-3.16486e-06
-2.85178e-06
-2.51994e-06
-2.17184e-06
-1.81523e-06
-1.47399e-06
-1.1877e-06
-1.01225e-06
-1.03665e-06
-1.34534e-06
-1.95278e-06
-2.72157e-06
-3.48994e-06
-4.12648e-06
-4.57128e-06
-4.79673e-06
-4.7875e-06
-4.54845e-06
-4.09929e-06
-3.4756e-06
-2.72705e-06
-1.91433e-06
-1.10548e-06
-3.70897e-07
2.23075e-07
6.19997e-07
7.78752e-07
6.78604e-07
3.21419e-07
-2.69087e-07
-1.05075e-06
-1.96955e-06
-2.96665e-06
-5.77442e-06
-5.68444e-06
-5.55904e-06
-5.39712e-06
-5.20054e-06
-4.97475e-06
-4.72743e-06
-4.46632e-06
-4.1976e-06
-3.92482e-06
-3.64867e-06
-3.36727e-06
-3.07683e-06
-2.77428e-06
-2.45644e-06
-2.12708e-06
-1.7943e-06
-1.48039e-06
-1.22306e-06
-1.07152e-06
-1.1074e-06
-1.40739e-06
-1.97976e-06
-2.7006e-06
-3.42636e-06
-4.03377e-06
-4.45623e-06
-4.68058e-06
-4.69531e-06
-4.50623e-06
-4.13549e-06
-3.62049e-06
-3.0099e-06
-2.35982e-06
-1.73023e-06
-1.18027e-06
-7.62338e-07
-5.1805e-07
-4.74287e-07
-6.40809e-07
-1.01e-06
-1.55894e-06
-2.25301e-06
-3.05116e-06
-3.91041e-06
-5.32058e-06
-5.25305e-06
-5.15684e-06
-5.03034e-06
-4.87357e-06
-4.68911e-06
-4.48156e-06
-4.25617e-06
-4.01779e-06
-3.7698e-06
-3.51383e-06
-3.2497e-06
-2.97565e-06
-2.69073e-06
-2.39368e-06
-2.08958e-06
-1.78708e-06
-1.50654e-06
-1.28354e-06
-1.16036e-06
-1.20981e-06
-1.50095e-06
-2.03507e-06
-2.70398e-06
-3.37987e-06
-3.95259e-06
-4.35668e-06
-4.58159e-06
-4.62565e-06
-4.49491e-06
-4.21202e-06
-3.81415e-06
-3.34679e-06
-2.85917e-06
-2.4017e-06
-2.02162e-06
-1.75858e-06
-1.64242e-06
-1.6898e-06
-1.90385e-06
-2.27528e-06
-2.78439e-06
-3.4041e-06
-4.10385e-06
-4.85235e-06
-4.84837e-06
-4.80124e-06
-4.73059e-06
-4.63483e-06
-4.51311e-06
-4.36626e-06
-4.19672e-06
-4.00775e-06
-3.80279e-06
-3.58469e-06
-3.35532e-06
-3.11568e-06
-2.8655e-06
-2.6057e-06
-2.33674e-06
-2.06472e-06
-1.79898e-06
-1.55759e-06
-1.37372e-06
-1.28278e-06
-1.34735e-06
-1.62907e-06
-2.12178e-06
-2.73174e-06
-3.35521e-06
-3.89018e-06
-4.27567e-06
-4.50653e-06
-4.5862e-06
-4.52075e-06
-4.33171e-06
-4.05477e-06
-3.73041e-06
-3.39965e-06
-3.10199e-06
-2.87348e-06
-2.74416e-06
-2.7341e-06
-2.85315e-06
-3.1014e-06
-3.47012e-06
-3.9436e-06
-4.50142e-06
-5.1212e-06
-5.7803e-06
-4.36421e-06
-4.33648e-06
-4.2892e-06
-4.22106e-06
-4.13094e-06
-4.01869e-06
-3.88537e-06
-3.73283e-06
-3.56335e-06
-3.37915e-06
-3.18198e-06
-2.97347e-06
-2.75442e-06
-2.52707e-06
-2.29339e-06
-2.05997e-06
-1.83682e-06
-1.63948e-06
-1.49811e-06
-1.44204e-06
-1.52227e-06
-1.79276e-06
-2.2416e-06
-2.78958e-06
-3.3556e-06
-3.85089e-06
-4.22082e-06
-4.46169e-06
-4.58067e-06
-4.58497e-06
-4.49275e-06
-4.33478e-06
-4.14581e-06
-3.95912e-06
-3.80499e-06
-3.70954e-06
-3.6934e-06
-3.77013e-06
-3.94578e-06
-4.21927e-06
-4.58347e-06
-5.02662e-06
-5.53388e-06
-6.08919e-06
-6.67631e-06
-3.87786e-06
-3.86956e-06
-3.84496e-06
-3.80302e-06
-3.74255e-06
-3.66294e-06
-3.56448e-06
-3.44821e-06
-3.31562e-06
-3.16838e-06
-3.00796e-06
-2.83622e-06
-2.65461e-06
-2.46618e-06
-2.27407e-06
-2.08482e-06
-1.90871e-06
-1.75868e-06
-1.66116e-06
-1.64057e-06
-1.73524e-06
-1.99148e-06
-2.39596e-06
-2.88049e-06
-3.3847e-06
-3.83983e-06
-4.19722e-06
-4.4507e-06
-4.61002e-06
-4.68373e-06
-4.68546e-06
-4.63907e-06
-4.57302e-06
-4.51384e-06
-4.48378e-06
-4.50045e-06
-4.57762e-06
-4.72448e-06
-4.94498e-06
-5.23797e-06
-5.59801e-06
-6.01666e-06
-6.48362e-06
-6.98774e-06
-7.51756e-06
-3.40505e-06
-3.41637e-06
-3.41504e-06
-3.39951e-06
-3.36815e-06
-3.32017e-06
-3.25571e-06
-3.17555e-06
-3.08077e-06
-2.97261e-06
-2.85225e-06
-2.72148e-06
-2.58214e-06
-2.43747e-06
-2.29138e-06
-2.14992e-06
-2.02322e-06
-1.92169e-06
-1.86672e-06
-1.87889e-06
-1.98503e-06
-2.22398e-06
-2.58419e-06
-3.00555e-06
-3.44635e-06
-3.86054e-06
-4.20658e-06
-4.47363e-06
-4.67068e-06
-4.80766e-06
-4.89484e-06
-4.94831e-06
-4.98933e-06
-5.03799e-06
-5.11012e-06
-5.21731e-06
-5.36918e-06
-5.57177e-06
-5.82755e-06
-6.13574e-06
-6.49262e-06
-6.89246e-06
-7.32836e-06
-7.79284e-06
-8.27798e-06
-2.9649e-06
-2.99697e-06
-3.02089e-06
-3.03302e-06
-3.03111e-06
-3.01459e-06
-2.98386e-06
-2.9398e-06
-2.88329e-06
-2.81524e-06
-2.7366e-06
-2.64901e-06
-2.55458e-06
-2.45648e-06
-2.35875e-06
-2.26603e-06
-2.18745e-06
-2.13207e-06
-2.11554e-06
-2.15434e-06
-2.26845e-06
-2.48721e-06
-2.80213e-06
-3.16272e-06
-3.54222e-06
-3.91431e-06
-4.24699e-06
-4.525e-06
-4.75344e-06
-4.94201e-06
-5.0994e-06
-5.2361e-06
-5.36527e-06
-5.50105e-06
-5.65402e-06
-5.83229e-06
-6.04271e-06
-6.28905e-06
-6.57279e-06
-6.89351e-06
-7.2489e-06
-7.63527e-06
-8.04827e-06
-8.48305e-06
-8.93434e-06
-2.57594e-06
-2.6361e-06
-2.68733e-06
-2.7274e-06
-2.75528e-06
-2.7708e-06
-2.7743e-06
-2.76657e-06
-2.74834e-06
-2.7203e-06
-2.68327e-06
-2.63857e-06
-2.58824e-06
-2.53552e-06
-2.48442e-06
-2.43912e-06
-2.40553e-06
-2.3898e-06
-2.40304e-06
-2.46178e-06
-2.57874e-06
-2.77277e-06
-3.0409e-06
-3.34509e-06
-3.66829e-06
-3.99773e-06
-4.31128e-06
-4.59317e-06
-4.84359e-06
-5.0698e-06
-5.27896e-06
-5.47757e-06
-5.67267e-06
-5.87281e-06
-6.08552e-06
-6.31739e-06
-6.57215e-06
-6.85199e-06
-7.15823e-06
-7.49051e-06
-7.8472e-06
-8.22604e-06
-8.62439e-06
-9.03931e-06
-9.46744e-06
-2.2782e-06
-2.36786e-06
-2.44709e-06
-2.51555e-06
-2.57341e-06
-2.62086e-06
-2.65812e-06
-2.68559e-06
-2.70397e-06
-2.7139e-06
-2.71635e-06
-2.71187e-06
-2.70165e-06
-2.69172e-06
-2.6799e-06
-2.67045e-06
-2.6685e-06
-2.68228e-06
-2.71908e-06
-2.78891e-06
-2.9002e-06
-3.06544e-06
-3.2857e-06
-3.53776e-06
-3.81089e-06
-4.09822e-06
-4.38554e-06
-4.65981e-06
-4.92015e-06
-5.16967e-06
-5.41238e-06
-5.65176e-06
-5.89159e-06
-6.13688e-06
-6.39232e-06
-6.66143e-06
-6.94678e-06
-7.25017e-06
-7.57216e-06
-7.91285e-06
-8.27178e-06
-8.64764e-06
-9.03823e-06
-9.44134e-06
-9.85495e-06
-2.08384e-06
-2.20069e-06
-2.30697e-06
-2.40295e-06
-2.48901e-06
-2.56547e-06
-2.63235e-06
-2.68942e-06
-2.73748e-06
-2.77619e-06
-2.81353e-06
-2.84204e-06
-2.86526e-06
-2.88177e-06
-2.89798e-06
-2.91605e-06
-2.93964e-06
-2.97324e-06
-3.02167e-06
-3.09193e-06
-3.19187e-06
-3.33131e-06
-3.50889e-06
-3.70981e-06
-3.93921e-06
-4.18987e-06
-4.44793e-06
-4.70321e-06
-4.9582e-06
-5.21323e-06
-5.46942e-06
-5.72905e-06
-5.99423e-06
-6.26686e-06
-6.549e-06
-6.84235e-06
-7.14869e-06
-7.4692e-06
-7.80412e-06
-8.15337e-06
-8.51687e-06
-8.89439e-06
-9.28527e-06
-9.68737e-06
-1.00993e-05
-1.98167e-06
-2.12306e-06
-2.25361e-06
-2.3737e-06
-2.4836e-06
-2.58351e-06
-2.67389e-06
-2.75538e-06
-2.82821e-06
-2.89428e-06
-2.9459e-06
-2.99297e-06
-3.03481e-06
-3.07154e-06
-3.10554e-06
-3.13895e-06
-3.17446e-06
-3.21497e-06
-3.26511e-06
-3.33005e-06
-3.41534e-06
-3.53404e-06
-3.68381e-06
-3.84802e-06
-4.03934e-06
-4.25392e-06
-4.48311e-06
-4.72082e-06
-4.96206e-06
-5.21027e-06
-5.46597e-06
-5.72998e-06
-6.00317e-06
-6.28618e-06
-6.5798e-06
-6.88518e-06
-7.20301e-06
-7.53383e-06
-7.87814e-06
-8.23594e-06
-8.60647e-06
-8.98865e-06
-9.37972e-06
-9.78158e-06
-1.01926e-05
-1.92637e-06
-2.08817e-06
-2.23812e-06
-2.37657e-06
-2.5039e-06
-2.62018e-06
-2.72616e-06
-2.82182e-06
-2.90757e-06
-2.98384e-06
-3.05078e-06
-3.11035e-06
-3.1632e-06
-3.21026e-06
-3.25307e-06
-3.29345e-06
-3.33367e-06
-3.37645e-06
-3.42547e-06
-3.48518e-06
-3.56127e-06
-3.66154e-06
-3.78814e-06
-3.93986e-06
-4.10991e-06
-4.29617e-06
-4.49816e-06
-4.71753e-06
-4.94815e-06
-5.18976e-06
-5.44264e-06
-5.70686e-06
-5.98258e-06
-6.27007e-06
-6.56974e-06
-6.88198e-06
-7.20717e-06
-7.54573e-06
-7.89718e-06
-8.26106e-06
-8.63672e-06
-9.02404e-06
-9.42464e-06
-9.83545e-06
-1.02562e-05
-1.8886e-06
-2.06668e-06
-2.23177e-06
-2.38402e-06
-2.5243e-06
-2.65262e-06
-2.769e-06
-2.87449e-06
-2.96936e-06
-3.05409e-06
-3.12924e-06
-3.19575e-06
-3.25462e-06
-3.30698e-06
-3.3542e-06
-3.39795e-06
-3.44037e-06
-3.48396e-06
-3.53199e-06
-3.58868e-06
-3.65909e-06
-3.75019e-06
-3.86507e-06
-3.99978e-06
-4.15179e-06
-4.32215e-06
-4.51069e-06
-4.71613e-06
-4.93613e-06
-5.16995e-06
-5.41739e-06
-5.67832e-06
-5.95277e-06
-6.24079e-06
-6.54254e-06
-6.85821e-06
-7.18773e-06
-7.53085e-06
-7.88766e-06
-8.25743e-06
-8.64053e-06
-9.03617e-06
-9.44382e-06
-9.86281e-06
-1.02923e-05
-1.8535e-06
-2.04451e-06
-2.22144e-06
-2.38469e-06
-2.53422e-06
-2.67103e-06
-2.79543e-06
-2.90787e-06
-3.00884e-06
-3.09897e-06
-3.17896e-06
-3.24973e-06
-3.31233e-06
-3.36792e-06
-3.41791e-06
-3.46395e-06
-3.50809e-06
-3.55275e-06
-3.60103e-06
-3.65677e-06
-3.72458e-06
-3.81011e-06
-3.91602e-06
-4.04032e-06
-4.18229e-06
-4.34226e-06
-4.51997e-06
-4.71488e-06
-4.92606e-06
-5.15291e-06
-5.39519e-06
-5.65274e-06
-5.92542e-06
-6.21316e-06
-6.51592e-06
-6.83372e-06
-7.16639e-06
-7.51365e-06
-7.87523e-06
-8.25112e-06
-8.64062e-06
-9.04328e-06
-9.45864e-06
-9.88604e-06
-1.03247e-05
-1.81587e-06
-2.01735e-06
-2.20368e-06
-2.37526e-06
-2.5325e-06
-2.67596e-06
-2.80614e-06
-2.92358e-06
-3.02891e-06
-3.12286e-06
-3.20625e-06
-3.28005e-06
-3.34537e-06
-3.40343e-06
-3.45569e-06
-3.50383e-06
-3.54988e-06
-3.59619e-06
-3.64568e-06
-3.70181e-06
-3.76878e-06
-3.85153e-06
-3.95262e-06
-4.07094e-06
-4.20621e-06
-4.35885e-06
-4.52902e-06
-4.71666e-06
-4.9214e-06
-5.14289e-06
-5.38094e-06
-5.63543e-06
-5.90621e-06
-6.19317e-06
-6.49621e-06
-6.81523e-06
-7.15008e-06
-7.50059e-06
-7.86636e-06
-8.24706e-06
-8.64231e-06
-9.05159e-06
-9.47429e-06
-9.90974e-06
-1.03572e-05
-1.7767e-06
-1.98675e-06
-2.18076e-06
-2.35915e-06
-2.52241e-06
-2.6711e-06
-2.80579e-06
-2.92714e-06
-3.03587e-06
-3.1328e-06
-3.21886e-06
-3.2951e-06
-3.36268e-06
-3.42292e-06
-3.47734e-06
-3.52763e-06
-3.57581e-06
-3.62417e-06
-3.67548e-06
-3.73293e-06
-3.8004e-06
-3.88231e-06
-3.98088e-06
-4.09558e-06
-4.22655e-06
-4.37437e-06
-4.53939e-06
-4.7218e-06
-4.92161e-06
-5.13875e-06
-5.37318e-06
-5.62486e-06
-5.89374e-06
-6.17971e-06
-6.48266e-06
-6.80245e-06
-7.13877e-06
-7.49212e-06
-7.86138e-06
-8.24639e-06
-8.64677e-06
-9.06197e-06
-9.49137e-06
-9.93426e-06
-1.03899e-05
-1.7384e-06
-1.95569e-06
-2.15608e-06
-2.34009e-06
-2.50827e-06
-2.66121e-06
-2.79957e-06
-2.92408e-06
-3.03555e-06
-3.13491e-06
-3.22317e-06
-3.30146e-06
-3.37103e-06
-3.43326e-06
-3.48972e-06
-3.54214e-06
-3.59251e-06
-3.64308e-06
-3.69649e-06
-3.75571e-06
-3.82436e-06
-3.90633e-06
-4.00361e-06
-4.11613e-06
-4.24428e-06
-4.38868e-06
-4.54985e-06
-4.72824e-06
-4.92414e-06
-5.13774e-06
-5.36912e-06
-5.61836e-06
-5.88549e-06
-6.17045e-06
-6.47318e-06
-6.79361e-06
-7.13167e-06
-7.48667e-06
-7.85876e-06
-8.24747e-06
-8.65233e-06
-9.0728e-06
-9.50821e-06
-9.95784e-06
-1.04209e-05
-1.70354e-06
-1.92696e-06
-2.13269e-06
-2.32137e-06
-2.4936e-06
-2.65002e-06
-2.79135e-06
-2.91841e-06
-3.0321e-06
-3.13343e-06
-3.22349e-06
-3.3035e-06
-3.37478e-06
-3.43876e-06
-3.49706e-06
-3.55143e-06
-3.60387e-06
-3.65655e-06
-3.71201e-06
-3.77304e-06
-3.84299e-06
-3.92533e-06
-4.02188e-06
-4.13294e-06
-4.25899e-06
-4.40072e-06
-4.55886e-06
-4.73406e-06
-4.92682e-06
-5.13748e-06
-5.36625e-06
-5.61332e-06
-5.8788e-06
-6.16273e-06
-6.46509e-06
-6.78583e-06
-7.12496e-06
-7.48164e-06
-7.85621e-06
-8.24813e-06
-8.65696e-06
-9.08211e-06
-9.52292e-06
-9.97863e-06
-1.04484e-05
-1.67383e-06
-1.90228e-06
-2.11249e-06
-2.30503e-06
-2.48056e-06
-2.63979e-06
-2.7835e-06
-2.91257e-06
-3.02801e-06
-3.13088e-06
-3.22236e-06
-3.30374e-06
-3.37639e-06
-3.44181e-06
-3.50166e-06
-3.5577e-06
-3.61191e-06
-3.66642e-06
-3.72367e-06
-3.78628e-06
-3.85738e-06
-3.94006e-06
-4.03603e-06
-4.14588e-06
-4.27019e-06
-4.40971e-06
-4.56535e-06
-4.7379e-06
-4.92799e-06
-5.13609e-06
-5.36257e-06
-5.60768e-06
-5.87161e-06
-6.15451e-06
-6.45641e-06
-6.7773e-06
-7.11707e-06
-7.47538e-06
-7.85207e-06
-8.24684e-06
-8.65923e-06
-9.0886e-06
-9.5343e-06
-9.99556e-06
-1.04715e-05
-1.6497e-06
-1.8824e-06
-2.0963e-06
-2.29201e-06
-2.4702e-06
-2.63165e-06
-2.77719e-06
-2.90781e-06
-3.02454e-06
-3.12855e-06
-3.22107e-06
-3.30345e-06
-3.37712e-06
-3.44365e-06
-3.5047e-06
-3.56205e-06
-3.61768e-06
-3.67364e-06
-3.73232e-06
-3.79616e-06
-3.86811e-06
-3.95094e-06
-4.04628e-06
-4.15501e-06
-4.27773e-06
-4.41531e-06
-4.56875e-06
-4.73897e-06
-4.92671e-06
-5.13256e-06
-5.35696e-06
-5.60027e-06
-5.86278e-06
-6.14469e-06
-6.4461e-06
-6.76703e-06
-7.10741e-06
-7.46702e-06
-7.84567e-06
-8.2429e-06
-8.65855e-06
-9.09178e-06
-9.54197e-06
-1.00083e-05
-1.049e-05
-1.63101e-06
-1.86729e-06
-2.08422e-06
-2.28249e-06
-2.4628e-06
-2.62595e-06
-2.77288e-06
-2.9046e-06
-3.02224e-06
-3.127e-06
-3.2202e-06
-3.30323e-06
-3.3776e-06
-3.44488e-06
-3.50677e-06
-3.56508e-06
-3.62175e-06
-3.6788e-06
-3.73853e-06
-3.80323e-06
-3.8757e-06
-3.95843e-06
-4.05304e-06
-4.16063e-06
-4.28182e-06
-4.41758e-06
-4.56903e-06
-4.73715e-06
-4.92277e-06
-5.12656e-06
-5.34907e-06
-5.59075e-06
-5.85194e-06
-6.13292e-06
-6.43384e-06
-6.75477e-06
-7.09569e-06
-7.45645e-06
-7.83684e-06
-8.23661e-06
-8.65498e-06
-9.09173e-06
-9.54607e-06
-1.00172e-05
-1.05042e-05
-1.61727e-06
-1.85653e-06
-2.07597e-06
-2.27627e-06
-2.45821e-06
-2.62265e-06
-2.77056e-06
-2.90302e-06
-3.02122e-06
-3.12642e-06
-3.21999e-06
-3.30337e-06
-3.37811e-06
-3.44584e-06
-3.50827e-06
-3.5672e-06
-3.62457e-06
-3.68235e-06
-3.74277e-06
-3.808e-06
-3.88069e-06
-3.96309e-06
-4.05684e-06
-4.16322e-06
-4.28291e-06
-4.41696e-06
-4.56655e-06
-4.73274e-06
-4.91641e-06
-5.11832e-06
-5.3391e-06
-5.57926e-06
-5.83923e-06
-6.11934e-06
-6.41979e-06
-6.74072e-06
-7.08212e-06
-7.4439e-06
-7.82586e-06
-8.2277e-06
-8.64885e-06
-9.08888e-06
-9.54706e-06
-1.00226e-05
-1.05145e-05
-1.60778e-06
-1.84952e-06
-2.071e-06
-2.27293e-06
-2.45612e-06
-2.62149e-06
-2.77005e-06
-2.90296e-06
-3.02143e-06
-3.1268e-06
-3.22048e-06
-3.30396e-06
-3.37882e-06
-3.44673e-06
-3.50942e-06
-3.56869e-06
-3.62646e-06
-3.68468e-06
-3.74549e-06
-3.81097e-06
-3.88362e-06
-3.9655e-06
-4.05828e-06
-4.16341e-06
-4.28161e-06
-4.41402e-06
-4.56187e-06
-4.72625e-06
-4.90811e-06
-5.10829e-06
-5.32746e-06
-5.56623e-06
-5.82507e-06
-6.10437e-06
-6.40439e-06
-6.72529e-06
-7.06713e-06
-7.42983e-06
-7.81322e-06
-8.217e-06
-8.64067e-06
-9.08374e-06
-9.54549e-06
-1.00251e-05
-1.05216e-05
-1.6018e-06
-1.84561e-06
-2.06875e-06
-2.27197e-06
-2.4561e-06
-2.62212e-06
-2.77108e-06
-2.9042e-06
-3.02272e-06
-3.12805e-06
-3.22164e-06
-3.30501e-06
-3.37979e-06
-3.44767e-06
-3.5104e-06
-3.56978e-06
-3.62772e-06
-3.68613e-06
-3.7471e-06
-3.81259e-06
-3.885e-06
-3.96622e-06
-4.05794e-06
-4.1618e-06
-4.27855e-06
-4.40938e-06
-4.55557e-06
-4.71826e-06
-4.89845e-06
-5.09701e-06
-5.3147e-06
-5.55218e-06
-5.80998e-06
-6.08852e-06
-6.38813e-06
-6.709e-06
-7.05123e-06
-7.41478e-06
-7.79947e-06
-8.20504e-06
-8.63102e-06
-9.07689e-06
-9.54193e-06
-1.00253e-05
-1.05261e-05
-1.5986e-06
-1.84415e-06
-2.06865e-06
-2.27288e-06
-2.45771e-06
-2.62415e-06
-2.77334e-06
-2.90649e-06
-3.02489e-06
-3.13002e-06
-3.22336e-06
-3.30648e-06
-3.38103e-06
-3.44872e-06
-3.51132e-06
-3.57063e-06
-3.62856e-06
-3.68697e-06
-3.7479e-06
-3.81325e-06
-3.88528e-06
-3.96573e-06
-4.05637e-06
-4.15894e-06
-4.27428e-06
-4.40361e-06
-4.54825e-06
-4.70935e-06
-4.88797e-06
-5.08504e-06
-5.30137e-06
-5.53765e-06
-5.79447e-06
-6.07231e-06
-6.37153e-06
-6.69237e-06
-7.03495e-06
-7.39925e-06
-7.78514e-06
-8.19235e-06
-8.62044e-06
-9.06886e-06
-9.53693e-06
-1.00238e-05
-1.05285e-05
-1.59754e-06
-1.84454e-06
-2.07015e-06
-2.27517e-06
-2.46052e-06
-2.62722e-06
-2.77649e-06
-2.90952e-06
-3.02771e-06
-3.13253e-06
-3.22552e-06
-3.30828e-06
-3.38248e-06
-3.44987e-06
-3.51223e-06
-3.57135e-06
-3.62913e-06
-3.68741e-06
-3.74817e-06
-3.81325e-06
-3.88481e-06
-3.96445e-06
-4.05398e-06
-4.1553e-06
-4.26929e-06
-4.39721e-06
-4.54039e-06
-4.70002e-06
-4.8772e-06
-5.07289e-06
-5.28796e-06
-5.52314e-06
-5.77907e-06
-6.05627e-06
-6.35512e-06
-6.67592e-06
-7.0188e-06
-7.38378e-06
-7.77075e-06
-8.17943e-06
-8.60942e-06
-9.06017e-06
-9.53098e-06
-1.0021e-05
-1.05292e-05
-1.59811e-06
-1.84635e-06
-2.07287e-06
-2.27851e-06
-2.46422e-06
-2.63105e-06
-2.78027e-06
-2.91309e-06
-3.03099e-06
-3.13543e-06
-3.22801e-06
-3.31034e-06
-3.38414e-06
-3.45115e-06
-3.51317e-06
-3.57201e-06
-3.62954e-06
-3.68758e-06