/*--------------------------------*- C++ -*----------------------------------*\
| =========                 |                                                 |
| \\      /  F ield         | OpenFOAM: The Open Source CFD Toolbox           |
|  \\    /   O peration     | Version:  2312                                  |
|   \\  /    A nd           | Website:  www.openfoam.com                      |
|    \\/     M anipulation  |                                                 |
\*---------------------------------------------------------------------------*/
FoamFile
{
    version     2.0;
    format      ascii;
    arch        "LSB;label=32;scalar=64";
    class       surfaceScalarField;
    location    "71.25";
    object      phi;
}
// * * * * * * * * * * * * * * * * * * * * * * * * * * * * * * * * * * * * * //

dimensions      [0 3 -1 0 0 0 0];

oriented        oriented;

internalField   nonuniform List<scalar> 
9445
(
5.99726e-10
1.76301e-11
5.87713e-10
1.20123e-11
5.79481e-10
8.23257e-12
5.73976e-10
5.50473e-12
5.70564e-10
3.41257e-12
5.68839e-10
1.72422e-12
5.68609e-10
2.30781e-13
5.69888e-10
-1.27983e-12
5.72618e-10
-2.72976e-12
5.77147e-10
-4.5294e-12
5.84648e-10
-7.50057e-12
5.98646e-10
-1.39984e-11
6.31584e-10
-3.29379e-11
7.2734e-10
-9.57558e-11
-2.51387e-10
9.78727e-10
2.08793e-09
7.81062e-11
2.04645e-09
5.3488e-11
2.01779e-09
3.68966e-11
1.99836e-09
2.49382e-11
1.98595e-09
1.58135e-11
1.97919e-09
8.49302e-12
1.97734e-09
2.07875e-12
1.98019e-09
-4.13254e-12
1.98763e-09
-1.01652e-11
2.00081e-09
-1.77096e-11
2.02263e-09
-2.93245e-11
2.05984e-09
-5.12038e-11
2.12584e-09
-9.89387e-11
2.23364e-09
-2.03563e-10
-3.6649e-10
2.34875e-09
4.11229e-09
1.94944e-10
4.03173e-09
1.3404e-10
3.97569e-09
9.29446e-11
3.93726e-09
6.33653e-11
3.91218e-09
4.08949e-11
3.89766e-09
2.30063e-11
3.89225e-09
7.48782e-12
3.89513e-09
-7.00963e-12
3.90601e-09
-2.10439e-11
3.92632e-09
-3.80219e-11
3.95888e-09
-6.18844e-11
4.00814e-09
-1.0046e-10
4.0769e-09
-1.677e-10
4.15171e-09
-2.78371e-10
-4.10209e-10
4.19543e-09
6.8194e-09
3.83619e-10
6.68846e-09
2.64984e-10
6.59663e-09
1.84767e-10
6.53291e-09
1.27086e-10
6.49035e-09
8.34537e-11
6.46438e-09
4.89839e-11
6.45233e-09
1.95367e-11
6.45245e-09
-7.12692e-12
6.46399e-09
-3.259e-11
6.48746e-09
-6.14859e-11
6.52388e-09
-9.83111e-11
6.57264e-09
-1.49217e-10
6.62721e-09
-2.22271e-10
6.66768e-09
-3.18846e-10
-4.13461e-10
6.67094e-09
1.03876e-08
6.60347e-10
1.01938e-08
4.58761e-10
1.00566e-08
3.21933e-10
9.96014e-09
2.23552e-10
9.89418e-09
1.49414e-10
9.85189e-09
9.12757e-11
9.82883e-09
4.25999e-11
9.82208e-09
-3.81577e-13
9.82989e-09
-4.03973e-11
9.85074e-09
-8.23356e-11
9.8829e-09
-1.30475e-10
9.92151e-09
-1.87827e-10
9.95586e-09
-2.56618e-10
9.9689e-09
-3.31887e-10
-3.94667e-10
9.95011e-09
1.50288e-08
1.03915e-09
1.47602e-08
7.27302e-10
1.45679e-08
5.14267e-10
1.44306e-08
3.60846e-10
1.43345e-08
2.45549e-10
1.427e-08
1.55736e-10
1.42306e-08
8.2035e-11
1.42115e-08
1.86314e-11
1.42096e-08
-3.84024e-11
1.4221e-08
-9.37964e-11
1.42413e-08
-1.50716e-10
1.42633e-08
-2.09852e-10
1.42766e-08
-2.69907e-10
1.42699e-08
-3.25205e-10
-3.65044e-10
1.42403e-08
2.09871e-08
1.52622e-09
2.06358e-08
1.07864e-09
2.03803e-08
7.69734e-10
2.01949e-08
5.46332e-10
2.00618e-08
3.78597e-10
1.99689e-08
2.48643e-10
1.99071e-08
1.43862e-10
1.98696e-08
5.60676e-11
1.98512e-08
-1.99548e-11
1.98461e-08
-8.87524e-11
1.98481e-08
-1.52636e-10
1.98496e-08
-2.11353e-10
1.98426e-08
-2.62934e-10
1.98211e-08
-3.03733e-10
-3.29305e-10
1.97854e-08
2.85314e-08
2.11105e-09
2.80989e-08
1.51109e-09
2.77781e-08
1.09054e-09
2.75405e-08
7.83971e-10
2.73657e-08
5.5336e-10
2.72391e-08
3.75288e-10
2.71493e-08
2.3369e-10
2.70874e-08
1.17893e-10
2.70463e-08
2.12139e-11
2.70186e-08
-6.11265e-11
2.69975e-08
-1.31513e-10
2.69763e-08
-1.90163e-10
2.69497e-08
-2.36344e-10
2.6915e-08
-2.69045e-10
-2.87646e-10
2.68734e-08
3.79414e-08
2.75636e-09
3.7447e-08
2.00548e-09
3.70702e-08
1.46737e-09
3.67841e-08
1.07007e-09
3.65679e-08
7.695e-10
3.64057e-08
5.37491e-10
3.62847e-08
3.54745e-10
3.61943e-08
2.08212e-10
3.61261e-08
8.94842e-11
3.60719e-08
-6.98131e-12
3.60253e-08
-8.48387e-11
3.59807e-08
-1.45603e-10
3.59349e-08
-1.90548e-10
3.58868e-08
-2.20911e-10
-2.382e-10
3.58373e-08
4.94979e-08
3.39463e-09
4.89837e-08
2.51962e-09
4.85771e-08
1.87398e-09
4.82587e-08
1.38853e-09
4.80106e-08
1.01759e-09
4.78178e-08
7.30298e-10
4.76674e-08
5.05074e-10
4.75488e-08
3.26887e-10
4.74527e-08
1.8555e-10
4.73718e-08
7.39668e-11
4.72999e-08
-1.29457e-11
4.72331e-08
-7.88075e-11
4.71691e-08
-1.26593e-10
4.71074e-08
-1.59203e-10
-1.79301e-10
4.70485e-08
6.34985e-08
3.9453e-09
6.30237e-08
2.99439e-09
6.26295e-08
2.26826e-09
6.23082e-08
1.7098e-09
6.20487e-08
1.27713e-09
6.18392e-08
9.39725e-10
6.16691e-08
6.75236e-10
6.15286e-08
4.67378e-10
6.14098e-08
3.04379e-10
6.13062e-08
1.77487e-10
6.12133e-08
7.99819e-11
6.1128e-08
6.50316e-12
6.10487e-08
-4.73008e-11
6.09749e-08
-8.53806e-11
-1.11019e-10
6.09066e-08
8.03282e-08
4.35682e-09
7.99429e-08
3.37971e-09
7.96034e-08
2.60778e-09
7.93131e-08
2.00001e-09
7.90684e-08
1.52186e-09
7.88625e-08
1.14562e-09
7.86881e-08
8.49675e-10
7.85382e-08
6.17299e-10
7.84069e-08
4.3563e-10
7.82898e-08
2.94579e-10
7.81837e-08
1.86136e-10
7.80864e-08
1.03765e-10
7.79969e-08
4.21616e-11
7.79147e-08
-3.16545e-12
-3.57833e-11
7.78395e-08
1.00559e-07
4.64002e-09
1.00272e-07
3.66629e-09
1.00005e-07
2.8756e-09
9.9764e-08
2.24061e-09
9.95516e-08
1.73428e-09
9.93648e-08
1.33239e-09
9.91999e-08
1.01464e-09
9.90528e-08
7.64406e-10
9.89201e-08
5.6826e-10
9.87994e-08
4.15306e-10
9.86888e-08
2.96765e-10
9.85871e-08
2.05472e-10
9.84935e-08
1.35681e-10
9.84077e-08
8.2635e-11
4.25752e-11
9.83294e-08
1.24948e-07
4.84208e-09
1.24732e-07
3.88226e-09
1.24521e-07
3.08708e-09
1.24323e-07
2.43901e-09
1.2414e-07
1.91693e-09
1.23973e-07
1.49948e-09
1.2382e-07
1.16759e-09
1.23679e-07
9.04881e-10
1.2355e-07
6.97744e-10
1.2343e-07
5.34933e-10
1.2332e-07
4.07352e-10
1.23218e-07
3.07594e-10
1.23124e-07
2.29755e-10
1.23037e-07
1.69005e-10
1.21567e-10
1.22958e-07
1.54234e-07
4.98452e-09
1.54067e-07
4.04853e-09
1.53894e-07
3.26021e-09
1.53724e-07
2.60981e-09
1.53559e-07
2.08107e-09
1.53404e-07
1.65515e-09
1.53257e-07
1.31424e-09
1.53119e-07
1.04251e-09
1.52991e-07
8.26511e-10
1.52871e-07
6.55047e-10
1.52759e-07
5.19021e-10
1.52655e-07
4.11033e-10
1.5256e-07
3.2519e-10
1.52472e-07
2.56712e-10
2.01857e-10
1.52392e-07
1.88882e-07
5.0514e-09
1.88774e-07
4.15606e-09
1.88644e-07
3.39026e-09
1.88503e-07
2.75101e-09
1.88358e-07
2.22601e-09
1.88214e-07
1.79926e-09
1.88073e-07
1.45464e-09
1.87938e-07
1.17745e-09
1.8781e-07
9.54867e-10
1.87689e-07
7.76134e-10
1.87576e-07
6.32445e-10
1.8747e-07
5.16624e-10
1.87372e-07
4.22937e-10
1.87282e-07
3.4674e-10
2.84385e-10
1.872e-07
2.28987e-07
5.02649e-09
2.28952e-07
4.19095e-09
2.28879e-07
3.46348e-09
2.2878e-07
2.85049e-09
2.28665e-07
2.34105e-09
2.28541e-07
1.92234e-09
2.28415e-07
1.58066e-09
2.2829e-07
1.30281e-09
2.28168e-07
1.07708e-09
2.28051e-07
8.93465e-10
2.27939e-07
7.43743e-10
2.27835e-07
6.21176e-10
2.27737e-07
5.20322e-10
2.27647e-07
4.36781e-10
3.6709e-10
2.27565e-07
2.74114e-07
4.90419e-09
2.74159e-07
4.14549e-09
2.7415e-07
3.47253e-09
2.74101e-07
2.89912e-09
2.74026e-07
2.41645e-09
2.73933e-07
2.01507e-09
2.7383e-07
1.68372e-09
2.73722e-07
1.41091e-09
2.73613e-07
1.1863e-09
2.73505e-07
1.00101e-09
2.73402e-07
8.47603e-10
2.73303e-07
7.19928e-10
2.7321e-07
6.13008e-10
2.73124e-07
5.22774e-10
4.46133e-10
2.73045e-07
3.22798e-07
4.67931e-09
3.22939e-07
4.0046e-09
3.2301e-07
3.40085e-09
3.23029e-07
2.88033e-09
3.23008e-07
2.43742e-09
3.22959e-07
2.06447e-09
3.2289e-07
1.75225e-09
3.2281e-07
1.49146e-09
3.22722e-07
1.27346e-09
3.22633e-07
1.09071e-09
3.22544e-07
9.36764e-10
3.22457e-07
8.06326e-10
3.22375e-07
6.94978e-10
3.22299e-07
5.99131e-10
5.15987e-10
3.22229e-07
3.71903e-07
4.31792e-09
3.72163e-07
3.74382e-09
3.72336e-07
3.22829e-09
3.72441e-07
2.77503e-09
3.72494e-07
2.38415e-09
3.72509e-07
2.05028e-09
3.72494e-07
1.7664e-09
3.72461e-07
1.52527e-09
3.72414e-07
1.3201e-09
3.7236e-07
1.14487e-09
3.72302e-07
9.9437e-10
3.72244e-07
8.64209e-10
3.72189e-07
7.50703e-10
3.72137e-07
6.5081e-10
5.62187e-10
3.72091e-07
3.6936e-07
3.90604e-09
3.69675e-07
3.42882e-09
3.69906e-07
2.99661e-09
3.7007e-07
2.61118e-09
3.7018e-07
2.27398e-09
3.70249e-07
1.98169e-09
3.70286e-07
1.72915e-09
3.70301e-07
1.51087e-09
3.70299e-07
1.32164e-09
3.70287e-07
1.15679e-09
3.70269e-07
1.01224e-09
3.70249e-07
8.84501e-10
3.70229e-07
7.7064e-10
3.70212e-07
6.68189e-10
5.75418e-10
3.70198e-07
3.16541e-07
3.44259e-09
3.16911e-07
3.05884e-09
3.17201e-07
2.70628e-09
3.17424e-07
2.3883e-09
3.17592e-07
2.10627e-09
3.17715e-07
1.85811e-09
3.17804e-07
1.64019e-09
3.17867e-07
1.44852e-09
3.17909e-07
1.27926e-09
3.17937e-07
1.12894e-09
3.17955e-07
9.94514e-10
3.17966e-07
8.73326e-10
3.17973e-07
7.63135e-10
3.1798e-07
6.62047e-10
5.685e-10
3.17986e-07
2.64869e-07
3.01056e-09
2.65229e-07
2.69912e-09
2.65525e-07
2.4099e-09
2.65766e-07
2.14697e-09
2.65962e-07
1.91103e-09
2.66119e-07
1.70059e-09
2.66246e-07
1.51299e-09
2.66349e-07
1.34538e-09
2.66434e-07
1.19483e-09
2.66504e-07
1.05879e-09
2.66564e-07
9.34929e-10
2.66616e-07
8.21329e-10
2.66663e-07
7.16174e-10
2.66707e-07
6.18122e-10
5.25986e-10
2.66749e-07
2.181e-07
2.59703e-09
2.18454e-07
2.34561e-09
2.18753e-07
2.11027e-09
2.19006e-07
1.89438e-09
2.19218e-07
1.69848e-09
2.19397e-07
1.52141e-09
2.19549e-07
1.36126e-09
2.19679e-07
1.2159e-09
2.1979e-07
1.08324e-09
2.19888e-07
9.61372e-10
2.19974e-07
8.48604e-10
2.20052e-07
7.43471e-10
2.20123e-07
6.44714e-10
2.2019e-07
5.5128e-10
4.62335e-10
2.20254e-07
1.77206e-07
2.19822e-09
1.77554e-07
1.9977e-09
1.77856e-07
1.8087e-09
1.78116e-07
1.63371e-09
1.78342e-07
1.47308e-09
1.78537e-07
1.32592e-09
1.78708e-07
1.19086e-09
1.78857e-07
1.06639e-09
1.78989e-07
9.51018e-10
1.79107e-07
8.43391e-10
1.79214e-07
7.42308e-10
1.7931e-07
6.4672e-10
1.79399e-07
5.55787e-10
1.79482e-07
4.68748e-10
3.85052e-10
1.79559e-07
1.42372e-07
1.8195e-09
1.42707e-07
1.66231e-09
1.43003e-07
1.51308e-09
1.43263e-07
1.37355e-09
1.43492e-07
1.24391e-09
1.43695e-07
1.12348e-09
1.43874e-07
1.01133e-09
1.44034e-07
9.06419e-10
1.44177e-07
8.07763e-10
1.44306e-07
7.14436e-10
1.44423e-07
6.25629e-10
1.44529e-07
5.40648e-10
1.44626e-07
4.58946e-10
1.44715e-07
3.80047e-10
3.03568e-10
1.44796e-07
1.13257e-07
1.47019e-09
1.1357e-07
1.34958e-09
1.13849e-07
1.23409e-09
1.14098e-07
1.125e-09
1.14319e-07
1.02232e-09
1.14517e-07
9.25563e-10
1.14694e-07
8.34158e-10
1.14853e-07
7.47458e-10
1.14996e-07
6.64831e-10
1.15125e-07
5.85696e-10
1.15241e-07
5.09548e-10
1.15346e-07
4.35969e-10
1.1544e-07
3.6462e-10
1.15525e-07
2.95259e-10
2.27626e-10
1.15601e-07
8.92552e-08
1.15902e-09
8.95361e-08
1.06869e-09
8.97888e-08
9.81384e-10
9.00158e-08
8.98009e-10
9.02197e-08
8.18418e-10
9.04029e-08
7.42348e-10
9.05675e-08
6.69486e-10
9.07155e-08
5.99472e-10
9.08484e-08
5.31939e-10
9.09676e-08
4.66555e-10
9.10741e-08
4.03043e-10
9.11689e-08
3.41182e-10
9.12527e-08
2.80811e-10
9.13261e-08
2.21808e-10
1.64082e-10
9.13897e-08
6.96713e-08
8.913e-10
6.99145e-08
8.2546e-10
7.01347e-08
7.61209e-10
7.03336e-08
6.99093e-10
7.05131e-08
6.38904e-10
7.06749e-08
5.8056e-10
7.08204e-08
5.23937e-10
7.09511e-08
4.68865e-10
7.10678e-08
4.15163e-10
7.11717e-08
3.62676e-10
7.12635e-08
3.11283e-10
7.13438e-08
2.609e-10
7.14131e-08
2.11481e-10
7.14719e-08
1.63001e-10
1.15416e-10
7.15206e-08
5.3829e-08
6.68295e-10
5.40327e-08
6.21724e-10
5.42181e-08
5.75864e-10
5.43863e-08
5.30887e-10
5.45386e-08
4.86616e-10
5.4676e-08
4.431e-10
5.47996e-08
4.00333e-10
5.49102e-08
3.58263e-10
5.50086e-08
3.1683e-10
5.50952e-08
2.75994e-10
5.51708e-08
2.35733e-10
5.52356e-08
1.96047e-10
5.52902e-08
1.56957e-10
5.53347e-08
1.18489e-10
8.06941e-11
5.53694e-08
4.11142e-08
4.8787e-10
4.12799e-08
4.56026e-10
4.14314e-08
4.24412e-10
4.15694e-08
3.92864e-10
4.16947e-08
3.61302e-10
4.1808e-08
3.2985e-10
4.19097e-08
2.98558e-10
4.20006e-08
2.67443e-10
4.20809e-08
2.36516e-10
4.21511e-08
2.05803e-10
4.22115e-08
1.75333e-10
4.22624e-08
1.45154e-10
4.2304e-08
1.15319e-10
4.23366e-08
8.58904e-11
5.69251e-11
4.23604e-08
3.09893e-08
3.4573e-10
3.11205e-08
3.24792e-10
3.12411e-08
3.03849e-10
3.13515e-08
2.82499e-10
3.1452e-08
2.60785e-10
3.1543e-08
2.38851e-10
3.16248e-08
2.16762e-10
3.16977e-08
1.94568e-10
3.17619e-08
1.72316e-10
3.18176e-08
1.50059e-10
3.18651e-08
1.27851e-10
3.19045e-08
1.05755e-10
3.1936e-08
8.38377e-11
3.19597e-08
6.21666e-11
4.07904e-11
3.19758e-08
2.2992e-08
2.36576e-10
2.30934e-08
2.23434e-10
2.31871e-08
2.10186e-10
2.32732e-08
1.96327e-10
2.3352e-08
1.82002e-10
2.34235e-08
1.6733e-10
2.34879e-08
1.52374e-10
2.35453e-08
1.37193e-10
2.35958e-08
1.21843e-10
2.36394e-08
1.06382e-10
2.36764e-08
9.08684e-11
2.37068e-08
7.53643e-11
2.37307e-08
5.99344e-11
2.37482e-08
4.46414e-11
2.95192e-11
2.37595e-08
1.67294e-08
1.54954e-10
1.68057e-08
1.4716e-10
1.68767e-08
1.39231e-10
1.69423e-08
1.30681e-10
1.70026e-08
1.21703e-10
1.70576e-08
1.12374e-10
1.71072e-08
1.02748e-10
1.71515e-08
9.28754e-11
1.71906e-08
8.2808e-11
1.72243e-08
7.25975e-11
1.72529e-08
6.2294e-11
1.72763e-08
5.19506e-11
1.72946e-08
4.16219e-11
1.73079e-08
3.13598e-11
2.11845e-11
1.73163e-08
1.18702e-08
9.57567e-11
1.19259e-08
9.14512e-11
1.19781e-08
8.70268e-11
1.20267e-08
8.20891e-11
1.20716e-08
7.68242e-11
1.21127e-08
7.12686e-11
1.215e-08
6.5462e-11
1.21834e-08
5.94443e-11
1.2213e-08
5.32538e-11
1.22386e-08
4.69306e-11
1.22604e-08
4.05126e-11
1.22783e-08
3.40399e-11
1.22924e-08
2.75534e-11
1.23027e-08
2.10933e-11
1.46746e-11
1.23092e-08
8.1373e-09
5.44559e-11
8.17647e-09
5.2289e-11
8.21345e-09
5.00454e-11
8.24809e-09
4.7447e-11
8.28028e-09
4.46323e-11
8.30994e-09
4.16113e-11
8.33699e-09
3.84106e-11
8.36138e-09
3.50561e-11
8.38306e-09
3.15736e-11
8.402e-09
2.79898e-11
8.41818e-09
2.433e-11
8.4316e-09
2.0621e-11
8.44227e-09
1.68899e-11
8.45019e-09
1.31655e-11
9.46038e-12
8.45541e-09
5.30102e-09
2.71802e-11
5.32709e-09
2.62213e-11
5.35189e-09
2.52388e-11
5.37528e-09
2.40564e-11
5.39716e-09
2.27518e-11
5.41745e-09
2.13237e-11
5.43607e-09
1.97872e-11
5.45297e-09
1.8157e-11
5.4681e-09
1.64474e-11
5.48142e-09
1.4674e-11
5.49289e-09
1.28509e-11
5.50252e-09
1.09938e-11
5.51029e-09
9.11757e-12
5.51622e-09
7.2405e-12
5.37452e-12
5.52031e-09
3.17269e-09
1.06965e-11
3.18857e-09
1.03468e-11
3.20379e-09
1.0018e-11
3.21824e-09
9.60656e-12
3.23185e-09
9.13979e-12
3.24456e-09
8.61554e-12
3.2563e-09
8.04049e-12
3.26704e-09
7.42122e-12
3.27672e-09
6.76413e-12
3.28532e-09
6.07625e-12
3.29281e-09
5.36377e-12
3.29917e-09
4.63384e-12
3.30439e-09
3.89274e-12
3.30848e-09
3.14967e-12
2.41566e-12
3.31144e-09
1.59877e-09
2.35091e-12
1.60686e-09
2.261e-12
1.61467e-09
2.20773e-12
1.62214e-09
2.13659e-12
1.62923e-09
2.04983e-12
1.63589e-09
1.9473e-12
1.6421e-09
1.83085e-12
1.64782e-09
1.70235e-12
1.65302e-09
1.56351e-12
1.65768e-09
1.41626e-12
1.66179e-09
1.26216e-12
1.66532e-09
1.10317e-12
1.66827e-09
9.4071e-13
1.67064e-09
7.77544e-13
6.20791e-13
1.67243e-09
4.55408e-10
4.57669e-10
4.59877e-10
4.62013e-10
4.64063e-10
4.6601e-10
4.67841e-10
4.69543e-10
4.71107e-10
4.72523e-10
4.73785e-10
4.74889e-10
4.75829e-10
4.76607e-10
4.77228e-10
1.16675e-09
-4.98554e-10
3.10531e-10
1.43373e-09
-4.48945e-10
1.8196e-10
1.70048e-09
-3.32982e-10
6.62386e-11
1.96125e-09
-2.09393e-10
-5.13822e-11
2.21483e-09
-8.12785e-11
-1.723e-10
2.46243e-09
4.73705e-11
-2.94972e-10
2.70606e-09
1.78238e-10
-4.21865e-10
2.94747e-09
3.14072e-10
-5.55479e-10
3.1881e-09
4.57955e-10
-6.98591e-10
3.4291e-09
6.13253e-10
-8.5425e-10
3.67135e-09
7.83787e-10
-1.02604e-09
3.91565e-09
9.74214e-10
-1.21852e-09
4.16289e-09
1.19074e-09
-1.43797e-09
4.41427e-09
1.44132e-09
-1.6927e-09
4.6717e-09
1.73504e-09
-1.99247e-09
4.938e-09
2.08306e-09
-2.34937e-09
5.21709e-09
2.4982e-09
-2.7773e-09
5.5146e-09
2.9898e-09
-3.28731e-09
5.83809e-09
3.55557e-09
-3.87906e-09
6.19671e-09
4.16968e-09
-4.52829e-09
6.59875e-09
4.74446e-09
-5.1465e-09
7.04651e-09
5.08867e-09
-5.53644e-09
7.45856e-09
4.18153e-09
-4.59357e-09
7.79647e-09
2.69678e-09
-3.0347e-09
8.05731e-09
1.16374e-09
-1.42458e-09
8.2431e-09
-2.7693e-10
9.11407e-11
8.35861e-09
-1.55307e-09
1.43755e-09
8.40987e-09
-2.6356e-09
2.58435e-09
8.40259e-09
-3.51031e-09
3.51759e-09
8.34166e-09
-4.1733e-09
4.23423e-09
8.23142e-09
-4.62865e-09
4.73889e-09
8.07599e-09
-4.88463e-09
5.04006e-09
7.87947e-09
-4.9519e-09
5.14841e-09
7.6459e-09
-4.84298e-09
5.07655e-09
7.37911e-09
-4.57196e-09
4.83875e-09
7.08247e-09
-4.15369e-09
4.45034e-09
6.75866e-09
-3.60253e-09
3.92634e-09
6.40967e-09
-2.93031e-09
3.2793e-09
6.03692e-09
-2.1436e-09
2.51634e-09
5.64084e-09
-1.24161e-09
1.63769e-09
5.21817e-09
-2.21254e-10
6.43923e-10
4.75614e-09
9.01073e-10
-4.39046e-10
4.23175e-09
2.0255e-09
-1.50111e-09
3.6488e-09
2.90438e-09
-2.32143e-09
2.83167e-09
3.3021e-09
-2.48497e-09
2.42074e-09
-5.7055e-10
2.5748e-09
-6.03008e-10
2.78431e-09
-5.42484e-10
3.01801e-09
-4.431e-10
3.26257e-09
-3.25834e-10
3.5113e-09
-2.01358e-10
3.76207e-09
-7.25386e-11
4.01449e-09
6.16544e-11
4.26883e-09
2.03617e-10
4.52561e-09
3.56473e-10
4.78542e-09
5.23977e-10
5.04894e-09
7.10691e-10
5.31704e-09
9.22644e-10
5.59097e-09
1.16739e-09
5.87283e-09
1.45318e-09
6.16567e-09
1.79022e-09
6.47369e-09
2.19019e-09
6.80287e-09
2.66061e-09
7.1613e-09
3.19714e-09
7.55865e-09
3.77233e-09
8.00374e-09
4.29937e-09
8.49912e-09
4.59329e-09
8.95552e-09
3.72513e-09
9.33108e-09
2.32122e-09
9.62267e-09
8.72151e-10
9.83225e-09
-4.86509e-10
9.96474e-09
-1.68556e-09
1.00266e-08
-2.69745e-09
1.00241e-08
-3.50786e-09
9.96295e-09
-4.11212e-09
9.84815e-09
-4.51385e-09
9.68472e-09
-4.72121e-09
9.47775e-09
-4.74493e-09
9.23247e-09
-4.5977e-09
8.95416e-09
-4.29366e-09
8.64807e-09
-3.84761e-09
8.31947e-09
-3.27393e-09
7.97411e-09
-2.58494e-09
7.61943e-09
-1.78892e-09
7.26651e-09
-8.88686e-10
6.93186e-09
1.13389e-10
6.63798e-09
1.19496e-09
6.41514e-09
2.24835e-09
6.31259e-09
3.00692e-09
2.90048e-09
6.24379e-09
4.20446e-09
-5.79578e-10
4.26727e-09
-6.65822e-10
4.395e-09
-6.70212e-10
4.57302e-09
-6.21126e-10
4.78196e-09
-5.34771e-10
5.00992e-09
-4.29316e-10
5.25038e-09
-3.13001e-10
5.49985e-09
-1.87809e-10
5.75658e-09
-5.31176e-11
6.01988e-09
9.31747e-11
6.2896e-09
2.54255e-10
6.56603e-09
4.34258e-10
6.84983e-09
6.38845e-10
7.1422e-09
8.75019e-10
7.44531e-09
1.15007e-09
7.76244e-09
1.4731e-09
8.09799e-09
1.85463e-09
8.4583e-09
2.30031e-09
8.85186e-09
2.80358e-09
9.28883e-09
3.33536e-09
9.77843e-09
3.80977e-09
1.03234e-08
4.04836e-09
1.08262e-08
3.2223e-09
1.12414e-08
1.90602e-09
1.15656e-08
5.47943e-10
1.18007e-08
-7.21576e-10
1.19516e-08
-1.83646e-09
1.20252e-08
-2.77107e-09
1.20286e-08
-3.51123e-09
1.19681e-08
-4.05162e-09
1.18497e-08
-4.3955e-09
1.16796e-08
-4.55107e-09
1.1464e-08
-4.52932e-09
1.12096e-08
-4.34333e-09
1.09236e-08
-4.00761e-09
1.06134e-08
-3.53746e-09
1.02876e-08
-2.94809e-09
9.95621e-09
-2.25357e-09
9.63336e-09
-1.46607e-09
9.34045e-09
-5.95775e-10
9.11023e-09
3.43612e-10
8.98733e-09
1.31786e-09
9.0125e-09
2.22318e-09
9.17827e-09
2.84115e-09
2.79665e-09
9.2821e-09
6.64233e-09
-5.50975e-10
6.64246e-09
-6.65952e-10
6.69109e-09
-7.1884e-10
6.79456e-09
-7.24595e-10
6.94446e-09
-6.84673e-10
7.12755e-09
-6.12407e-10
7.33569e-09
-5.21139e-10
7.56289e-09
-4.15004e-10
7.80531e-09
-2.95542e-10
8.06071e-09
-1.62229e-10
8.32791e-09
-1.29392e-11
8.60653e-09
1.5564e-10
8.89683e-09
3.48542e-10
9.19981e-09
5.72038e-10
9.51768e-09
8.32199e-10
9.85384e-09
1.13693e-09
1.02129e-08
1.49561e-09
1.06013e-08
1.91183e-09
1.10282e-08
2.37677e-09
1.15038e-08
2.85972e-09
1.20377e-08
3.27584e-09
1.26326e-08
3.45348e-09
1.31826e-08
2.67231e-09
1.36383e-08
1.45029e-09
1.39961e-08
1.90163e-10
1.42576e-08
-9.83055e-10
1.44277e-08
-2.0066e-09
1.45138e-08
-2.85718e-09
1.45237e-08
-3.52112e-09
1.44647e-08
-3.9926e-09
1.43439e-08
-4.2747e-09
1.41687e-08
-4.37582e-09
1.39468e-08
-4.30745e-09
1.36867e-08
-4.08326e-09
1.33977e-08
-3.71858e-09
1.30899e-08
-3.22968e-09
1.27752e-08
-2.63336e-09
1.24681e-08
-1.94647e-09
1.21882e-08
-1.18622e-09
1.19637e-08
-3.71295e-10
1.1834e-08
4.73286e-10
1.18465e-08
1.30538e-09
1.2031e-08
2.03871e-09
1.23486e-08
2.52357e-09
2.56456e-09
1.25807e-08
9.90362e-09
-5.04488e-10
9.86167e-09
-6.24e-10
9.84961e-09
-7.06781e-10
9.87941e-09
-7.54391e-10
9.95515e-09
-7.60415e-10
1.00736e-08
-7.30824e-10
1.02272e-08
-6.74757e-10
1.04099e-08
-5.97731e-10
1.0617e-08
-5.02656e-10
1.08452e-08
-3.90385e-10
1.10923e-08
-2.60017e-10
1.13572e-08
-1.09302e-10
1.16398e-08
6.59252e-11
1.19408e-08
2.71041e-10
1.22624e-08
5.10602e-10
1.26081e-08
7.91195e-10
1.29827e-08
1.12108e-09
1.33928e-08
1.50172e-09
1.38477e-08
1.92186e-09
1.43581e-08
2.34931e-09
1.49335e-08
2.70046e-09
1.55762e-08
2.8108e-09
1.61719e-08
2.07655e-09
1.66673e-08
9.54893e-10
1.70582e-08
-2.00722e-10
1.73459e-08
-1.27074e-09
1.75352e-08
-2.19591e-09
1.76339e-08
-2.95586e-09
1.76506e-08
-3.53783e-09
1.75937e-08
-3.93572e-09
1.74716e-08
-4.15261e-09
1.72932e-08
-4.19737e-09
1.70679e-08
-4.08215e-09
1.68062e-08
-3.82155e-09
1.65196e-08
-3.43198e-09
1.6221e-08
-2.93115e-09
1.59256e-08
-2.3379e-09
1.56513e-08
-1.67222e-09
1.54212e-08
-9.5612e-10
1.52649e-08
-2.14974e-10
1.52187e-08
5.19468e-10
1.53195e-08
1.20457e-09
1.55807e-08
1.77758e-09
1.59528e-08
2.15148e-09
2.23855e-09
1.62788e-08
1.41872e-08
-4.51418e-10
1.41236e-08
-5.60363e-10
1.40707e-08
-6.53936e-10
1.40413e-08
-7.24947e-10
1.40467e-08
-7.65887e-10
1.40919e-08
-7.75999e-10
1.41754e-08
-7.58288e-10
1.42942e-08
-7.16497e-10
1.44447e-08
-6.53188e-10
1.4624e-08
-5.6966e-10
1.48298e-08
-4.65798e-10
1.50608e-08
-3.40347e-10
1.53168e-08
-1.89999e-10
1.55981e-08
-1.03258e-11
1.59073e-08
2.0139e-10
1.62482e-08
4.50363e-10
1.66253e-08
7.43919e-10
1.70459e-08
1.08119e-09
1.75193e-08
1.44842e-09
1.80564e-08
1.81221e-09
1.86664e-08
2.09045e-09
1.9351e-08
2.12621e-09
1.9988e-08
1.43961e-09
2.05195e-08
4.23329e-10
2.09408e-08
-6.22012e-10
2.12526e-08
-1.58254e-09
2.14595e-08
-2.40281e-09
2.15696e-08
-3.066e-09
2.15926e-08
-3.56079e-09
2.15379e-08
-3.88105e-09
2.14155e-08
-4.03016e-09
2.12358e-08
-4.01766e-09
2.10102e-08
-3.85659e-09
2.07513e-08
-3.56265e-09
2.04729e-08
-3.15357e-09
2.01904e-08
-2.64867e-09
1.99214e-08
-2.06885e-09
1.96859e-08
-1.43675e-09
1.95074e-08
-7.77587e-10
1.94122e-08
-1.19817e-10
1.94276e-08
5.04052e-10
1.9575e-08
1.05715e-09
1.98541e-08
1.49851e-09
2.02205e-08
1.78507e-09
1.88555e-09
2.05735e-08
1.9731e-08
-3.97036e-10
1.96604e-08
-4.89753e-10
1.95858e-08
-5.79349e-10
1.95185e-08
-6.57616e-10
1.94703e-08
-7.17678e-10
1.94498e-08
-7.55563e-10
1.94617e-08
-7.70179e-10
1.95075e-08
-7.62232e-10
1.95869e-08
-7.32654e-10
1.96993e-08
-6.82016e-10
1.98436e-08
-6.10141e-10
2.00196e-08
-5.16345e-10
2.02274e-08
-3.97832e-10
2.04681e-08
-2.50934e-10
2.07445e-08
-7.50946e-11
2.10612e-08
1.33652e-10
2.14231e-08
3.82067e-10
2.18375e-08
6.66762e-10
2.23146e-08
9.71381e-10
2.2865e-08
1.26178e-09
2.34976e-08
1.45781e-09
2.42131e-08
1.41073e-09
2.48822e-08
7.70543e-10
2.54427e-08
-1.37143e-10
2.58885e-08
-1.06784e-09
2.62197e-08
-1.91372e-09
2.64403e-08
-2.62347e-09
2.65591e-08
-3.18473e-09
2.65864e-08
-3.58815e-09
2.65332e-08
-3.82781e-09
2.64108e-08
-3.90773e-09
2.62315e-08
-3.8384e-09
2.60088e-08
-3.63386e-09
2.57571e-08
-3.31099e-09
2.54924e-08
-2.88884e-09
2.52319e-08
-2.38819e-09
2.49945e-08
-1.83144e-09
2.48004e-08
-1.24266e-09
2.46707e-08
-6.47856e-10
2.46256e-08
-7.47121e-11
2.46815e-08
4.48133e-10
2.48458e-08
8.92887e-10
2.51089e-08
1.23535e-09
2.5436e-08
1.45796e-09
1.55507e-09
2.57665e-08
2.6818e-08
-3.41635e-10
2.67464e-08
-4.18185e-10
2.6664e-08
-4.9692e-10
2.65781e-08
-5.71766e-10
2.64976e-08
-6.37177e-10
2.64309e-08
-6.88803e-10
2.63847e-08
-7.23974e-10
2.63638e-08
-7.41416e-10
2.63717e-08
-7.40538e-10
2.64105e-08
-7.2082e-10
2.64819e-08
-6.8146e-10
2.65875e-08
-6.21962e-10
2.67292e-08
-5.39527e-10
2.69091e-08
-4.30861e-10
2.7132e-08
-2.97959e-10
2.74033e-08
-1.37723e-10
2.77287e-08
5.67351e-11
2.81163e-08
2.7916e-10
2.85771e-08
5.10584e-10
2.9122e-08
7.16881e-10
2.97593e-08
8.20463e-10
3.04885e-08
6.81567e-10
3.1175e-08
8.40089e-11
3.17523e-08
-7.14479e-10
3.22128e-08
-1.52827e-09
3.25551e-08
-2.25604e-09
3.27828e-08
-2.85124e-09
3.2905e-08
-3.30693e-09
3.29332e-08
-3.61631e-09
3.28793e-08
-3.77393e-09
3.27564e-08
-3.78484e-09
3.25788e-08
-3.66073e-09
3.23615e-08
-3.41664e-09
3.21211e-08
-3.0705e-09
3.18747e-08
-2.64244e-09
3.16406e-08
-2.1541e-09
3.14375e-08
-1.62836e-09
3.12839e-08
-1.08904e-09
3.11966e-08
-5.60561e-10
3.11888e-08
-6.69294e-11
3.12675e-08
3.69431e-10
3.14304e-08
7.29994e-10
3.16636e-08
1.00211e-09
3.19405e-08
1.18105e-09
1.27109e-09
3.22245e-08
3.57783e-08
-2.82614e-10
3.57055e-08
-3.45408e-10
3.56207e-08
-4.12129e-10
3.55278e-08
-4.78847e-10
3.54321e-08
-5.41485e-10
3.53397e-08
-5.96412e-10
3.52566e-08
-6.40871e-10
3.51882e-08
-6.72975e-10
3.51392e-08
-6.91522e-10
3.51138e-08
-6.95442e-10
3.51158e-08
-6.83483e-10
3.51494e-08
-6.55534e-10
3.52184e-08
-6.08505e-10
3.53267e-08
-5.39196e-10
3.54817e-08
-4.5294e-10
3.56907e-08
-3.46769e-10
3.59602e-08
-2.12766e-10
3.63001e-08
-6.0763e-11
3.6723e-08
8.77812e-11
3.724e-08
1.99848e-10
3.78593e-08
2.01161e-10
3.8579e-08
-3.81546e-11
3.92625e-08
-5.99447e-10
3.98394e-08
-1.29139e-09
4.02999e-08
-1.98876e-09
4.06411e-08
-2.5973e-09
4.0866e-08
-3.0761e-09
4.0984e-08
-3.4249e-09
4.10074e-08
-3.63977e-09
4.09494e-08
-3.71592e-09
4.08245e-08
-3.65995e-09
4.06488e-08
-3.48497e-09
4.04389e-08
-3.20683e-09
4.02126e-08
-2.84414e-09
3.99877e-08
-2.41752e-09
3.97822e-08
-1.94862e-09
3.96133e-08
-1.45948e-09
3.94963e-08
-9.72007e-10
3.94429e-08
-5.07229e-10
3.946e-08
-8.40118e-11
3.95479e-08
2.81527e-10
3.96993e-08
5.78636e-10
3.98995e-08
8.01894e-10
4.01282e-08
9.52379e-10
1.03708e-09
4.03622e-08
4.69832e-08
-2.17264e-10
4.69067e-08
-2.68975e-10
4.68195e-08
-3.24917e-10
4.67233e-08
-3.82683e-10
4.66213e-08
-4.39437e-10
4.65173e-08
-4.92394e-10
4.64156e-08
-5.39198e-10
4.63206e-08
-5.77991e-10
4.62367e-08
-6.07575e-10
4.61682e-08
-6.26914e-10
4.61194e-08
-6.34723e-10
4.60958e-08
-6.31906e-10
4.61024e-08
-6.15148e-10
4.61446e-08
-5.81399e-10
4.62324e-08
-5.40716e-10
4.63748e-08
-4.89189e-10
4.65793e-08
-4.17273e-10
4.68583e-08
-3.39737e-10
4.72262e-08
-2.80094e-10
4.76952e-08
-2.69149e-10
4.82732e-08
-3.76844e-10
4.89575e-08
-7.225e-10
4.96134e-08
-1.2553e-09
5.01684e-08
-1.84643e-09
5.06105e-08
-2.43088e-09
5.0935e-08
-2.92174e-09
5.11439e-08
-3.28507e-09
5.12478e-08
-3.52871e-09
5.12594e-08
-3.6514e-09
5.11925e-08
-3.64908e-09
5.10632e-08
-3.53061e-09
5.08889e-08
-3.31065e-09
5.06875e-08
-3.00542e-09
5.04769e-08
-2.63359e-09
5.02749e-08
-2.21549e-09
5.00979e-08
-1.77168e-09
4.99606e-08
-1.32212e-09
4.98741e-08
-8.85566e-10
4.98457e-08
-4.78753e-10
4.98769e-08
-1.15264e-10
4.99644e-08
1.94042e-10
5.0099e-08
4.44037e-10
5.02675e-08
6.33433e-10
5.04543e-08
7.65577e-10
8.47389e-10
5.0644e-08
6.08341e-08
-1.44793e-10
6.07529e-08
-1.87716e-10
6.06626e-08
-2.34681e-10
6.05643e-08
-2.84308e-10
6.04596e-08
-3.34746e-10
6.03512e-08
-3.83993e-10
6.02422e-08
-4.30209e-10
6.0136e-08
-4.71788e-10
6.00361e-08
-5.07697e-10
5.99463e-08
-5.37163e-10
5.98706e-08
-5.59009e-10
5.9814e-08
-5.75296e-10
5.97818e-08
-5.8295e-10
5.97799e-08
-5.79429e-10
5.98189e-08
-5.79781e-10
5.99078e-08
-5.78076e-10
6.00552e-08
-5.64654e-10
6.02759e-08
-5.6046e-10
6.05857e-08
-5.89852e-10
6.09971e-08
-6.80613e-10
6.1518e-08
-8.97759e-10
6.21451e-08
-1.34958e-09
6.27499e-08
-1.86011e-09
6.32612e-08
-2.35772e-09
6.36654e-08
-2.83509e-09
6.39558e-08
-3.21213e-09
6.41347e-08
-3.46393e-09
6.42137e-08
-3.60776e-09
6.4206e-08
-3.64367e-09
6.41253e-08
-3.5684e-09
6.39889e-08
-3.39418e-09
6.38153e-08
-3.13705e-09
6.36227e-08
-2.81282e-09
6.34286e-08
-2.43948e-09
6.32493e-08
-2.03617e-09
6.30989e-08
-1.62133e-09
6.29887e-08
-1.21193e-09
6.29261e-08
-8.22949e-10
6.29142e-08
-4.6678e-10
6.29514e-08
-1.52503e-10
6.30324e-08
1.1306e-10
6.31482e-08
3.28245e-10
6.32876e-08
4.93972e-10
6.3439e-08
6.14163e-10
6.94807e-10
6.35916e-08
7.77618e-08
-6.70792e-11
7.76773e-08
-1.03232e-10
7.75857e-08
-1.43113e-10
7.74874e-08
-1.86027e-10
7.73836e-08
-2.30889e-10
7.7276e-08
-2.7641e-10
7.71671e-08
-3.21304e-10
7.70597e-08
-3.64425e-10
7.6957e-08
-4.04919e-10
7.68622e-08
-4.42398e-10
7.67793e-08
-4.76138e-10
7.67121e-08
-5.08074e-10
7.66657e-08
-5.3657e-10
7.66491e-08
-5.62779e-10
7.66669e-08
-5.97562e-10
7.67249e-08
-6.36159e-10
7.68387e-08
-6.78406e-10
7.7022e-08
-7.43792e-10
7.72884e-08
-8.56207e-10
7.76498e-08
-1.04203e-09
7.81129e-08
-1.36091e-09
7.86732e-08
-1.90987e-09
7.92121e-08
-2.39894e-09
7.96636e-08
-2.80924e-09
8.00142e-08
-3.18568e-09
8.02558e-08
-3.45372e-09
8.03925e-08
-3.60068e-09
8.04386e-08
-3.65383e-09
8.04058e-08
-3.61088e-09
8.03076e-08
-3.47027e-09
8.01628e-08
-3.24937e-09
7.99902e-08
-2.96445e-09
7.98072e-08
-2.6298e-09
7.96299e-08
-2.26214e-09
7.94723e-08
-1.87862e-09
7.93458e-08
-1.4948e-09
7.92581e-08
-1.12419e-09
7.92131e-08
-7.78009e-10
7.92112e-08
-4.64836e-10
7.9249e-08
-1.90376e-10
7.93204e-08
4.16902e-11
7.94177e-08
2.30979e-10
7.95316e-08
3.8001e-10
7.96535e-08
4.92349e-10
5.72896e-10
7.97754e-08
9.825e-08
1.23037e-11
9.81658e-08
-1.90293e-11
9.80765e-08
-5.38483e-11
9.79823e-08
-9.18387e-11
9.7884e-08
-1.32523e-10
9.77828e-08
-1.75242e-10
9.76808e-08
-2.19247e-10
9.75803e-08
-2.63968e-10
9.74843e-08
-3.08877e-10
9.73958e-08
-3.53971e-10
9.73192e-08
-3.99527e-10
9.72576e-08
-4.46467e-10
9.72166e-08
-4.95543e-10
9.72059e-08
-5.52083e-10
9.72232e-08
-6.14908e-10
9.72749e-08
-6.87831e-10
9.73812e-08
-7.84678e-10
9.75546e-08
-9.17237e-10
9.78016e-08
-1.1032e-09
9.81324e-08
-1.37277e-09
9.8551e-08
-1.77957e-09
9.90494e-08
-2.40823e-09
9.95199e-08
-2.86952e-09
9.99066e-08
-3.1959e-09
1.00196e-07
-3.47529e-09
1.00381e-07
-3.6385e-09
1.0047e-07
-3.69014e-09
1.00481e-07
-3.66471e-09
1.00422e-07
-3.55115e-09
1.00306e-07
-3.35429e-09
1.00155e-07
-3.09827e-09
9.99857e-08
-2.79558e-09
9.98144e-08
-2.45859e-09
9.9655e-08
-2.1027e-09
9.95187e-08
-1.74235e-09
9.94137e-08
-1.38982e-09
9.93447e-08
-1.0552e-09
9.93131e-08
-7.46396e-10
9.93174e-08
-4.69095e-10
9.93537e-08
-2.26639e-10
9.94143e-08
-1.89941e-11
9.94953e-08
1.50029e-10
9.95879e-08
2.87391e-10
9.96856e-08
3.9467e-10
4.75884e-10
9.97826e-08
1.22879e-07
9.10577e-11