/*--------------------------------*- C++ -*----------------------------------*\
| =========                 |                                                 |
| \\      /  F ield         | OpenFOAM: The Open Source CFD Toolbox           |
|  \\    /   O peration     | Version:  2312                                  |
|   \\  /    A nd           | Website:  www.openfoam.com                      |
|    \\/     M anipulation  |                                                 |
\*---------------------------------------------------------------------------*/
FoamFile
{
    version     2.0;
    format      ascii;
    arch        "LSB;label=32;scalar=64";
    class       volScalarField;
    location    "154.75";
    object      p;
}
// * * * * * * * * * * * * * * * * * * * * * * * * * * * * * * * * * * * * * //

dimensions      [0 2 -2 0 0 0 0];

internalField   nonuniform List<scalar> 
4800
(
-3.99211e-14
-1.74076e-06
-3.16625e-06
-4.34915e-06
-5.34156e-06
-6.18274e-06
-6.90253e-06
-7.52353e-06
-8.07035e-06
-8.55378e-06
-8.98327e-06
-9.36437e-06
-9.69328e-06
-1.01992e-05
-1.1822e-05
2.04885e-08
-1.71649e-06
-3.13964e-06
-4.32142e-06
-5.31378e-06
-6.15603e-06
-6.87854e-06
-7.50396e-06
-8.0573e-06
-8.55081e-06
-8.99903e-06
-9.42116e-06
-9.83412e-06
-1.03459e-05
-1.12043e-05
4.22818e-08
-1.69065e-06
-3.11136e-06
-4.29208e-06
-5.28453e-06
-6.1279e-06
-6.85298e-06
-7.4808e-06
-8.03862e-06
-8.53976e-06
-8.99899e-06
-9.43666e-06
-9.86411e-06
-1.0293e-05
-1.07057e-05
6.46248e-08
-1.66368e-06
-3.08151e-06
-4.26072e-06
-5.25276e-06
-6.09659e-06
-6.82316e-06
-7.45276e-06
-8.01133e-06
-8.51411e-06
-8.97196e-06
-9.39634e-06
-9.783e-06
-1.0104e-05
-1.02942e-05
8.92356e-08
-1.63356e-06
-3.04779e-06
-4.22482e-06
-5.21572e-06
-6.05906e-06
-6.78532e-06
-7.41553e-06
-7.97056e-06
-8.46692e-06
-8.91052e-06
-9.30206e-06
-9.62641e-06
-9.848e-06
-9.91473e-06
1.17544e-07
-1.59874e-06
-3.0085e-06
-4.18247e-06
-5.17118e-06
-6.01262e-06
-6.73635e-06
-7.36332e-06
-7.91049e-06
-8.39172e-06
-8.80877e-06
-9.15536e-06
-9.41381e-06
-9.55698e-06
-9.55851e-06
1.51535e-07
-1.55722e-06
-2.96145e-06
-4.13116e-06
-5.11618e-06
-5.95365e-06
-6.67185e-06
-7.29054e-06
-7.82409e-06
-8.28202e-06
-8.66337e-06
-8.96024e-06
-9.15921e-06
-9.24701e-06
-9.21785e-06
1.94641e-07
-1.50554e-06
-2.90298e-06
-4.06688e-06
-5.04615e-06
-5.87682e-06
-6.58562e-06
-7.19073e-06
-7.70414e-06
-8.13219e-06
-8.47358e-06
-8.72292e-06
-8.87427e-06
-8.92659e-06
-8.88579e-06
2.52162e-07
-1.43834e-06
-2.82747e-06
-3.98352e-06
-4.9544e-06
-5.77479e-06
-6.46979e-06
-7.05606e-06
-7.54389e-06
-7.93853e-06
-8.24055e-06
-8.44942e-06
-8.56654e-06
-8.5989e-06
-8.55746e-06
3.31158e-07
-1.3482e-06
-2.72699e-06
-3.87266e-06
-4.83195e-06
-5.63816e-06
-6.31495e-06
-6.87797e-06
-7.33705e-06
-7.6984e-06
-7.96571e-06
-8.14365e-06
-8.23908e-06
-8.26316e-06
-8.22811e-06
4.39677e-07
-1.22603e-06
-2.59163e-06
-3.72366e-06
-4.6677e-06
-5.45581e-06
-6.11065e-06
-6.64775e-06
-7.07775e-06
-7.40903e-06
-7.64916e-06
-7.80635e-06
-7.8909e-06
-7.91546e-06
-7.89171e-06
5.85783e-07
-1.06198e-06
-2.41015e-06
-3.52442e-06
-4.44918e-06
-5.21565e-06
-5.84614e-06
-6.35691e-06
-6.7604e-06
-7.06747e-06
-7.28851e-06
-7.43463e-06
-7.51727e-06
-7.549e-06
-7.54026e-06
7.77138e-07
-8.45855e-07
-2.17066e-06
-3.26204e-06
-4.16339e-06
-4.90547e-06
-5.51092e-06
-5.99726e-06
-6.37891e-06
-6.66886e-06
-6.87938e-06
-7.0227e-06
-7.11044e-06
-7.15432e-06
-7.16351e-06
1.0207e-06
-5.67269e-07
-1.86068e-06
-2.92303e-06
-3.79684e-06
-4.5128e-06
-5.09419e-06
-5.55977e-06
-5.9255e-06
-6.20567e-06
-6.41339e-06
-6.561e-06
-6.65959e-06
-6.71955e-06
-6.74885e-06
1.32187e-06
-2.16414e-07
-1.46781e-06
-2.49368e-06
-3.3357e-06
-4.02448e-06
-4.58376e-06
-5.03306e-06
-5.38899e-06
-5.66623e-06
-5.87777e-06
-6.03538e-06
-6.14921e-06
-6.22845e-06
-6.27999e-06
1.68392e-06
2.1449e-07
-9.8123e-07
-1.96157e-06
-2.76686e-06
-3.42724e-06
-3.96629e-06
-4.40337e-06
-4.75478e-06
-5.03466e-06
-5.25523e-06
-5.42727e-06
-5.55984e-06
-5.66094e-06
-5.73664e-06
2.10771e-06
7.2969e-07
-3.93892e-07
-1.31767e-06
-2.07999e-06
-2.70967e-06
-3.22914e-06
-3.65657e-06
-4.00702e-06
-4.29333e-06
-4.52649e-06
-4.71608e-06
-4.87008e-06
-4.99541e-06
-5.09735e-06
2.59068e-06
1.32783e-06
2.94246e-07
-5.60077e-07
-1.2713e-06
-1.86591e-06
-2.36415e-06
-2.78207e-06
-3.13271e-06
-3.42705e-06
-3.67444e-06
-3.88307e-06
-4.05986e-06
-4.2108e-06
-4.34062e-06
3.11407e-06
1.99542e-06
1.0721e-06
3.01406e-07
-3.48843e-07
-9.01736e-07
-1.37441e-06
-1.78006e-06
-2.12915e-06
-2.43041e-06
-2.69134e-06
-2.91856e-06
-3.11776e-06
-3.29391e-06
-3.45121e-06
3.65654e-06
2.71e-06
1.9157e-06
1.24145e-06
6.61709e-07
1.57816e-07
-2.8368e-07
-6.72686e-07
-1.01685e-06
-1.32251e-06
-1.59525e-06
-1.8401e-06
-2.06152e-06
-2.26342e-06
-2.44908e-06
4.1783e-06
3.40605e-06
2.74397e-06
2.16923e-06
1.66326e-06
1.21224e-06
8.06483e-07
4.39142e-07
1.0504e-07
-2.00139e-07
-4.80287e-07
-7.38986e-07
-9.79521e-07
-1.20495e-06
-1.41806e-06
4.60958e-06
3.98346e-06
3.43355e-06
2.94438e-06
2.50306e-06
2.1001e-06
1.72893e-06
1.38504e-06
1.06495e-06
7.65668e-07
4.84412e-07
2.18603e-07
-3.41313e-08
-2.75754e-07
-5.0815e-07
4.94782e-06
4.42869e-06
3.9612e-06
3.5348e-06
3.14088e-06
2.77326e-06
2.42765e-06
2.10103e-06
1.79097e-06
1.49534e-06
1.21212e-06
9.39493e-07
6.7571e-07
4.19238e-07
1.68446e-07
5.20147e-06
4.75889e-06
4.35038e-06
3.96921e-06
3.60989e-06
3.26851e-06
2.94222e-06
2.62888e-06
2.32667e-06
2.03395e-06
1.74922e-06
1.4711e-06
1.19832e-06
9.29758e-07
6.64375e-07
5.38884e-06
5.00002e-06
4.6335e-06
4.28509e-06
3.95121e-06
3.62931e-06
3.31736e-06
3.01372e-06
2.7169e-06
2.42565e-06
2.13883e-06
1.85546e-06
1.57466e-06
1.29575e-06
1.01797e-06
5.52496e-06
5.1736e-06
4.83681e-06
4.51182e-06
4.19615e-06
3.88801e-06
3.58586e-06
3.28837e-06
2.99438e-06
2.70292e-06
2.41316e-06
2.12442e-06
1.83604e-06
1.54747e-06
1.25806e-06
5.62167e-06
5.29639e-06
4.98048e-06
4.67191e-06
4.36882e-06
4.06992e-06
3.77399e-06
3.47994e-06
3.18688e-06
2.89404e-06
2.60081e-06
2.30666e-06
2.01108e-06
1.71362e-06
1.41377e-06
5.68894e-06
5.38194e-06
5.08063e-06
4.78341e-06
4.48887e-06
4.19602e-06
3.90384e-06
3.61144e-06
3.31809e-06
3.0232e-06
2.72627e-06
2.42689e-06
2.12468e-06
1.81936e-06
1.51056e-06
5.73495e-06
5.441e-06
5.15e-06
4.86067e-06
4.57196e-06
4.28304e-06
3.993e-06
3.70111e-06
3.40677e-06
3.10949e-06
2.80888e-06
2.50464e-06
2.19644e-06
1.88406e-06
1.56747e-06
5.76626e-06
5.48189e-06
5.19833e-06
4.91462e-06
4.62996e-06
4.34358e-06
4.05468e-06
3.76262e-06
3.46692e-06
3.16717e-06
2.86305e-06
2.55431e-06
2.24075e-06
1.92218e-06
1.59856e-06
5.78785e-06
5.51076e-06
5.23275e-06
4.95321e-06
4.67146e-06
4.38675e-06
4.09836e-06
3.80577e-06
3.50857e-06
3.2064e-06
2.89902e-06
2.58622e-06
2.26787e-06
1.94388e-06
1.61417e-06
5.80329e-06
5.53197e-06
5.2583e-06
4.98199e-06
4.7024e-06
4.41881e-06
4.13059e-06
3.83731e-06
3.53859e-06
3.23416e-06
2.9238e-06
2.60736e-06
2.28476e-06
1.95599e-06
1.62091e-06
5.81502e-06
5.54844e-06
5.2783e-06
5.00461e-06
4.72671e-06
4.4439e-06
4.15568e-06
3.86165e-06
3.56149e-06
3.25498e-06
2.94193e-06
2.62225e-06
2.29589e-06
1.96285e-06
1.62305e-06
5.82459e-06
5.56203e-06
5.29488e-06
5.02339e-06
4.74685e-06
4.46464e-06
4.17633e-06
3.88157e-06
3.58009e-06
3.27168e-06
2.95623e-06
2.63365e-06
2.30395e-06
1.96714e-06
1.62315e-06
5.8329e-06
5.57383e-06
5.3093e-06
5.03971e-06
4.76431e-06
4.48259e-06
4.19416e-06
3.89872e-06
3.59603e-06
3.28593e-06
2.96832e-06
2.64316e-06
2.31048e-06
1.97033e-06
1.62254e-06
5.84043e-06
5.58446e-06
5.32224e-06
5.0543e-06
4.7799e-06
4.4986e-06
4.21006e-06
3.914e-06
3.61022e-06
3.2986e-06
2.97907e-06
2.65161e-06
2.31629e-06
1.97314e-06
1.62194e-06
5.8474e-06
5.59419e-06
5.33403e-06
5.06755e-06
4.79402e-06
4.51309e-06
4.22444e-06
3.92783e-06
3.62309e-06
3.31012e-06
2.98888e-06
2.65938e-06
2.32172e-06
1.97589e-06
1.62175e-06
5.854e-06
5.60328e-06
5.34497e-06
5.07978e-06
4.80704e-06
4.52644e-06
4.23768e-06
3.94057e-06
3.63497e-06
3.3208e-06
2.99803e-06
2.66671e-06
2.32694e-06
1.97873e-06
1.62201e-06
5.86064e-06
5.61229e-06
5.35574e-06
5.09177e-06
4.81978e-06
4.53948e-06
4.25064e-06
3.95306e-06
3.64665e-06
3.33134e-06
3.00713e-06
2.67408e-06
2.33234e-06
1.98188e-06
1.62275e-06
5.86701e-06
5.62096e-06
5.36613e-06
5.10339e-06
4.83217e-06
4.55224e-06
4.26337e-06
3.9654e-06
3.65825e-06
3.34189e-06
3.01632e-06
2.68163e-06
2.33797e-06
1.98535e-06
1.62385e-06
-1.32165e-05
-1.1024e-05
-9.66694e-06
-8.75018e-06
-8.00906e-06
-7.43292e-06
-6.98017e-06
-6.62431e-06
-6.34991e-06
-6.14599e-06
-6.00507e-06
-5.922e-06
-5.89413e-06
-5.92103e-06
-6.00431e-06
-6.15051e-06
-6.3711e-06
-6.68388e-06
-7.11212e-06
-7.68829e-06
-8.43928e-06
-9.36988e-06
-1.03329e-05
-1.10527e-05
-1.13925e-05
-1.13164e-05
-1.08176e-05
-9.91037e-06
-8.62262e-06
-6.9877e-06
-5.04143e-06
-2.82279e-06
-3.75177e-07
2.25285e-06
5.00779e-06
7.83188e-06
1.06637e-05
1.34376e-05
1.60802e-05
1.85038e-05
2.05848e-05
2.21567e-05
2.28399e-05
2.22818e-05
1.92412e-05
-1.16042e-05
-1.04766e-05
-9.45115e-06
-8.63467e-06
-7.93921e-06
-7.37933e-06
-6.93297e-06
-6.58013e-06
-6.30811e-06
-6.10674e-06
-5.96886e-06
-5.88943e-06
-5.8659e-06
-5.89781e-06
-5.9867e-06
-6.13909e-06
-6.36644e-06
-6.68617e-06
-7.12086e-06
-7.70186e-06
-8.45427e-06
-9.38096e-06
-1.03349e-05
-1.10433e-05
-1.13722e-05
-1.12873e-05
-1.0782e-05
-9.87001e-06
-8.57938e-06
-6.9441e-06
-5.00112e-06
-2.79106e-06
-3.5935e-07
2.2429e-06
4.95881e-06
7.72605e-06
1.04765e-05
1.31345e-05
1.56104e-05
1.77883e-05
1.94929e-05
2.04467e-05
2.01023e-05
1.76521e-05
1.20827e-05
-1.07529e-05
-1.00447e-05
-9.22844e-06
-8.50078e-06
-7.85595e-06
-7.31857e-06
-6.88161e-06
-6.53406e-06
-6.26533e-06
-6.06699e-06
-5.93247e-06
-5.85697e-06
-5.83809e-06
-5.87542e-06
-5.97035e-06
-6.12946e-06
-6.36413e-06
-6.69134e-06
-7.13285e-06
-7.71871e-06
-8.47194e-06
-9.3932e-06
-1.03357e-05
-1.10302e-05
-1.13459e-05
-1.12508e-05
-1.07383e-05
-9.82188e-06
-8.52974e-06
-6.89675e-06
-4.96138e-06
-2.76633e-06
-3.59681e-07
2.20413e-06
4.86392e-06
7.55154e-06
1.01907e-05
1.26941e-05
1.49547e-05
1.68318e-05
1.81161e-05
1.84952e-05
1.74718e-05
1.44795e-05
9.41614e-06
-1.02015e-05
-9.68786e-06
-9.03044e-06
-8.37338e-06
-7.7769e-06
-7.26367e-06
-6.83703e-06
-6.49408e-06
-6.22795e-06
-6.03179e-06
-5.89983e-06
-5.82759e-06
-5.81292e-06
-5.8554e-06
-5.95627e-06
-6.12215e-06
-6.36436e-06
-6.69929e-06
-7.14778e-06
-7.73841e-06
-8.49186e-06
-9.40624e-06
-1.03349e-05
-1.10126e-05
-1.13122e-05
-1.1204e-05
-1.06821e-05
-9.75961e-06
-8.46533e-06
-6.83538e-06
-4.91028e-06
-2.73546e-06
-3.6238e-07
2.15034e-06
4.73631e-06
7.32065e-06
9.81835e-06
1.21305e-05
1.41365e-05
1.56825e-05
1.65549e-05
1.64807e-05
1.51183e-05
1.22006e-05
7.98529e-06
-9.77062e-06
-9.37138e-06
-8.83474e-06
-8.26101e-06
-7.71059e-06
-7.22115e-06
-6.80462e-06
-6.4657e-06
-6.20105e-06
-6.00574e-06
-5.87504e-06
-5.80494e-06
-5.79363e-06
-5.84068e-06
-5.9471e-06
-6.11959e-06
-6.36931e-06
-6.71196e-06
-7.16726e-06
-7.76211e-06
-8.51461e-06
-9.41992e-06
-1.03317e-05
-1.09895e-05
-1.12702e-05
-1.11468e-05
-1.06143e-05
-9.6858e-06
-8.39079e-06
-6.76712e-06
-4.8578e-06
-2.71151e-06
-3.83654e-07
2.06246e-06
4.55482e-06
7.01185e-06
9.34069e-06
1.1434e-05
1.31645e-05
1.43787e-05
1.48963e-05
1.45117e-05
1.30457e-05
1.04466e-05
6.99459e-06
-9.40758e-06
-9.08805e-06
-8.64338e-06
-8.15207e-06
-7.65416e-06
-7.19029e-06
-6.787e-06
-6.45311e-06
-6.18941e-06
-5.99372e-06
-5.8628e-06
-5.79339e-06
-5.78422e-06
-5.83487e-06
-5.94606e-06
-6.12461e-06
-6.38149e-06
-6.73144e-06
-7.19292e-06
-7.7909e-06
-8.54057e-06
-9.43381e-06
-1.03248e-05
-1.09591e-05
-1.12178e-05
-1.10773e-05
-1.05336e-05
-9.60002e-06
-8.30715e-06
-6.69487e-06
-4.80915e-06
-2.70232e-06
-4.34111e-07
1.92733e-06
4.3046e-06
6.61043e-06
8.74665e-06
1.06028e-05
1.2055e-05
1.29671e-05
1.31999e-05
1.26311e-05
1.12006e-05
8.97375e-06
6.21147e-06
-9.07823e-06
-8.8204e-06
-8.45885e-06
-8.03733e-06
-7.59399e-06
-7.16686e-06
-6.78307e-06
-6.45758e-06
-6.19608e-06
-5.99979e-06
-5.86763e-06
-5.79753e-06
-5.7891e-06
-5.84204e-06
-5.95678e-06
-6.1404e-06
-6.40363e-06
-6.75995e-06
-7.22638e-06
-7.82573e-06
-8.56992e-06
-9.44718e-06
-1.03126e-05
-1.0919e-05
-1.11524e-05
-1.09926e-05
-1.04374e-05
-9.50048e-06
-8.2138e-06
-6.61974e-06
-4.76753e-06
-2.7135e-06
-5.21718e-07
1.73514e-06
3.97527e-06
6.10784e-06
8.03335e-06
9.64477e-06
1.08306e-05
1.14821e-05
1.15069e-05
1.08513e-05
9.52882e-06
7.64835e-06
5.4254e-06
-8.7634e-06
-8.55492e-06
-8.26329e-06
-7.91048e-06
-7.52644e-06
-7.14309e-06
-6.78683e-06
-6.4759e-06
-6.22043e-06
-6.02539e-06
-5.89235e-06
-5.82094e-06
-5.81222e-06
-5.86614e-06
-5.98293e-06
-6.17034e-06
-6.43865e-06
-6.79981e-06
-7.26924e-06
-7.86734e-06
-8.60247e-06
-9.45879e-06
-1.02944e-05
-1.08664e-05
-1.10706e-05
-1.08897e-05
-1.03232e-05
-9.3857e-06
-8.11093e-06
-6.54404e-06
-4.73771e-06
-2.75231e-06
-6.5586e-07
1.47541e-06
3.55719e-06
5.49824e-06
7.20252e-06
8.57278e-06
9.51671e-06
9.95653e-06
9.84234e-06
9.16768e-06
7.98315e-06
6.40183e-06
4.59042e-06
-8.45413e-06
-8.28656e-06
-8.05365e-06
-7.76572e-06
-7.44262e-06
-7.109e-06
-6.78855e-06
-6.50032e-06
-6.25735e-06
-6.06794e-06
-5.93648e-06
-5.86473e-06
-5.85575e-06
-5.9098e-06
-6.02722e-06
-6.21708e-06
-6.489e-06
-6.85292e-06
-7.32265e-06
-7.91596e-06
-8.63739e-06
-9.46663e-06
-1.02641e-05
-1.07976e-05
-1.09689e-05
-1.07654e-05
-1.01889e-05
-9.25517e-06
-8.0002e-06
-6.472e-06
-4.72665e-06
-2.82813e-06
-8.47521e-07
1.13718e-06
3.04182e-06
4.77855e-06
6.2595e-06
7.40213e-06
8.13638e-06
8.41358e-06
8.21613e-06
7.56525e-06
6.52437e-06
5.19424e-06
3.7003e-06
-8.14476e-06
-8.01255e-06
-7.82962e-06
-7.60022e-06
-7.33631e-06
-7.05566e-06
-6.77779e-06
-6.52054e-06
-6.29796e-06
-6.12067e-06
-5.99541e-06
-5.92622e-06
-5.91874e-06
-5.97294e-06
-6.09003e-06
-6.28153e-06
-6.55561e-06
-6.91972e-06
-7.38641e-06
-7.9706e-06
-8.67268e-06
-9.46767e-06
-1.02194e-05
-1.07086e-05
-1.08437e-05
-1.06172e-05
-1.00335e-05
-9.10994e-06
-7.88533e-06
-6.41023e-06
-4.7436e-06
-2.95223e-06
-1.1086e-06
7.0997e-07
2.42269e-06
3.94882e-06
5.21244e-06
6.14819e-06
6.7077e-06
6.86597e-06
6.62657e-06
6.02359e-06
5.11969e-06
3.99832e-06
2.75296e-06
-7.82919e-06
-7.72888e-06
-7.58941e-06
-7.41214e-06
-7.20381e-06
-6.97655e-06
-6.74544e-06
-6.52586e-06
-6.33137e-06
-6.17356e-06
-6.06068e-06
-5.9987e-06
-5.99594e-06
-6.05129e-06
-6.16804e-06
-6.36181e-06
-6.63697e-06
-6.99827e-06
-7.45816e-06
-8.02827e-06
-8.70467e-06
-9.45766e-06
-1.01559e-05
-1.05951e-05
-1.06919e-05
-1.04437e-05
-9.85773e-06
-8.95357e-06
-7.77294e-06
-6.36825e-06
-4.80029e-06
-3.13738e-06
-1.45119e-06
1.84649e-07
1.69592e-06
3.01195e-06
4.07084e-06
4.8244e-06
5.24272e-06
5.31768e-06
5.06451e-06
4.52054e-06
3.74135e-06
2.79336e-06
1.74617e-06
-7.49954e-06
-7.42917e-06
-7.32863e-06
-7.1981e-06
-7.04122e-06
-6.86593e-06
-6.68339e-06
-6.506e-06
-6.34596e-06
-6.21464e-06
-6.12075e-06
-6.07275e-06
-6.07812e-06
-6.13536e-06
-6.25406e-06
-6.45279e-06
-6.72829e-06
-7.08345e-06
-7.53262e-06
-8.08353e-06
-8.72764e-06
-9.4311e-06
-1.00686e-05
-1.04533e-05
-1.05118e-05
-1.02463e-05
-9.6659e-06
-8.79327e-06
-7.67352e-06
-6.35895e-06
-4.91069e-06
-3.3972e-06
-1.88662e-06
-4.45723e-07
8.60498e-07
1.97315e-06
2.84442e-06
3.44125e-06
3.74779e-06
3.76635e-06
3.51695e-06
3.03469e-06
2.36596e-06
1.56238e-06
6.75943e-07
-7.14572e-06
-7.10436e-06
-7.03974e-06
-6.95179e-06
-6.84246e-06
-6.71685e-06
-6.58295e-06
-6.45036e-06
-6.32936e-06
-6.23045e-06
-6.16176e-06
-6.13445e-06
-6.15332e-06
-6.21527e-06
-6.34126e-06
-6.54444e-06
-6.8185e-06
-7.16603e-06
-7.60128e-06
-8.12826e-06
-8.73405e-06
-9.38169e-06
-9.95305e-06
-1.02811e-05
-1.0305e-05
-1.00302e-05
-9.46634e-06
-8.64082e-06
-7.60188e-06
-6.39845e-06
-5.09042e-06
-3.74505e-06
-2.42415e-06
-1.18491e-06
-8.14092e-08
8.39431e-07
1.54242e-06
2.00643e-06
2.22511e-06
2.20618e-06
1.97007e-06
1.54704e-06
9.7422e-07
2.9121e-07
-4.63099e-07
-6.75499e-06
-6.74234e-06
-6.71181e-06
-6.66341e-06
-6.5983e-06
-6.51982e-06
-6.43359e-06
-6.34688e-06
-6.26796e-06
-6.20572e-06
-6.16814e-06
-6.16402e-06
-6.20056e-06
-6.27981e-06
-6.41675e-06
-6.62223e-06
-6.89274e-06
-7.23327e-06
-7.65267e-06
-8.15212e-06
-8.71507e-06
-9.30333e-06
-9.80653e-06
-1.00795e-05
-1.0077e-05
-9.80516e-06
-9.27233e-06
-8.51307e-06
-7.5771e-06
-6.50444e-06
-5.355e-06
-4.19274e-06
-3.06987e-06
-2.03275e-06
-1.1244e-06
-3.80708e-07
1.73503e-07
5.25606e-07
6.74763e-07
6.30539e-07
4.11468e-07
4.20395e-08
-4.48911e-07
-1.0314e-06
-1.6763e-06
-6.31115e-06
-6.32723e-06
-6.32982e-06
-6.31902e-06
-6.2956e-06
-6.26189e-06
-6.22189e-06
-6.18107e-06
-6.14585e-06
-6.12344e-06
-6.12091e-06
-6.14608e-06
-6.20652e-06
-6.30762e-06
-6.4577e-06
-6.66702e-06
-6.93702e-06
-7.27099e-06
-7.67318e-06
-8.14313e-06
-8.66132e-06
-9.19092e-06
-9.62911e-06
-9.85351e-06
-9.83783e-06
-9.58484e-06
-9.10035e-06
-8.43526e-06
-7.61968e-06
-6.69211e-06
-5.71758e-06
-4.74893e-06
-3.8259e-06
-2.98516e-06
-2.26028e-06
-1.67772e-06
-1.25431e-06
-9.97113e-07
-9.04294e-07
-9.66639e-07
-1.16863e-06
-1.49184e-06
-1.91425e-06
-2.41338e-06
-2.96752e-06
-5.7943e-06
-5.83978e-06
-5.87502e-06
-5.90051e-06
-5.917e-06
-5.92617e-06
-5.93096e-06
-5.93548e-06
-5.94467e-06
-5.9643e-06
-6.00047e-06
-6.05986e-06
-6.14934e-06
-6.27426e-06
-6.44181e-06
-6.65995e-06
-6.93247e-06
-7.26108e-06
-7.64689e-06
-8.08831e-06
-8.5639e-06
-9.04041e-06
-9.42345e-06
-9.61492e-06
-9.60324e-06
-9.38191e-06
-8.98105e-06
-8.4317e-06
-7.74139e-06
-6.97634e-06
-6.18967e-06
-5.41796e-06
-4.69e-06
-4.03509e-06
-3.4793e-06
-3.04163e-06
-2.7332e-06
-2.558e-06
-2.51354e-06
-2.59242e-06
-2.77884e-06
-3.06359e-06
-3.42966e-06
-3.86014e-06
-4.33904e-06
-5.18322e-06
-5.25912e-06
-5.32717e-06
-5.3882e-06
-5.44319e-06
-5.49379e-06
-5.54218e-06
-5.59136e-06
-5.64513e-06
-5.70808e-06
-5.78528e-06
-5.88209e-06
-6.00428e-06
-6.15706e-06
-6.34665e-06
-6.57887e-06
-6.85759e-06
-7.18432e-06
-7.55775e-06
-7.97541e-06
-8.41659e-06
-8.8503e-06
-9.19537e-06
-9.37954e-06
-9.38499e-06
-9.23522e-06
-8.94487e-06
-8.49752e-06
-7.95385e-06
-7.37237e-06
-6.78094e-06
-6.20098e-06
-5.65734e-06
-5.17452e-06
-4.77212e-06
-4.4633e-06
-4.2554e-06
-4.15074e-06
-4.14733e-06
-4.23907e-06
-4.42099e-06
-4.67802e-06
-4.99979e-06
-5.375e-06
-5.79213e-06
-4.45652e-06
-4.56455e-06
-4.66664e-06
-4.76351e-06
-4.85641e-06
-4.94746e-06
-5.03882e-06
-5.13233e-06
-5.23062e-06
-5.33744e-06
-5.45697e-06
-5.59355e-06
-5.75186e-06
-5.93655e-06
-6.15255e-06
-6.40405e-06
-6.69454e-06
-7.02498e-06
-7.39391e-06
-7.79643e-06
-8.21694e-06
-8.62723e-06
-8.95921e-06
-9.15807e-06
-9.21804e-06
-9.16641e-06
-8.96821e-06
-8.65601e-06
-8.28713e-06
-7.8925e-06
-7.48807e-06
-7.08964e-06
-6.71867e-06
-6.39448e-06
-6.13094e-06
-5.93695e-06
-5.81786e-06
-5.77617e-06
-5.81139e-06
-5.92059e-06
-6.09844e-06
-6.33556e-06
-6.62352e-06
-6.95467e-06
-7.32136e-06
-3.59691e-06
-3.73699e-06
-3.87338e-06
-4.00678e-06
-4.13868e-06
-4.27045e-06
-4.4046e-06
-4.54241e-06
-4.68564e-06
-4.83734e-06
-5.00091e-06
-5.1798e-06
-5.37773e-06
-5.59837e-06
-5.84572e-06
-6.12267e-06
-6.43229e-06
-6.77515e-06
-7.14951e-06
-7.55172e-06
-7.96785e-06
-8.37939e-06
-8.7349e-06
-8.97632e-06
-9.11675e-06
-9.14879e-06
-9.07648e-06
-8.92895e-06
-8.73918e-06
-8.5244e-06
-8.29597e-06
-8.06904e-06
-7.86008e-06
-7.68259e-06
-7.5463e-06
-7.45765e-06
-7.4208e-06
-7.4378e-06
-7.50846e-06
-7.63292e-06
-7.81035e-06
-8.03267e-06
-8.29357e-06
-8.58886e-06
-8.91365e-06
-2.62508e-06
-2.79635e-06
-2.96424e-06
-3.1306e-06
-3.29763e-06
-3.46799e-06
-3.6419e-06
-3.82057e-06
-4.00643e-06
-4.20209e-06
-4.40997e-06
-4.63259e-06
-4.87278e-06
-5.13348e-06
-5.41764e-06
-5.7277e-06
-6.06572e-06
-6.43259e-06
-6.82701e-06
-7.24606e-06
-7.68214e-06
-8.12088e-06
-8.52139e-06
-8.84296e-06
-9.07151e-06
-9.20834e-06
-9.27875e-06
-9.30133e-06
-9.28463e-06
-9.23944e-06
-9.17778e-06
-9.11189e-06
-9.05279e-06
-9.00966e-06
-8.98971e-06
-8.99864e-06
-9.04029e-06
-9.11679e-06
-9.22941e-06
-9.3752e-06
-9.55016e-06
-9.75683e-06
-9.99526e-06
-1.02615e-05
-1.05508e-05
-1.62475e-06
-1.83015e-06
-2.03478e-06
-2.23776e-06
-2.43666e-06
-2.64246e-06
-2.85595e-06
-3.07653e-06
-3.30528e-06
-3.54432e-06
-3.79585e-06
-4.06192e-06
-4.34472e-06
-4.64654e-06
-4.96975e-06
-5.3164e-06
-5.68817e-06
-6.08612e-06
-6.50983e-06
-6.95831e-06
-7.427e-06
-7.90889e-06
-8.36877e-06
-8.763e-06
-9.08454e-06
-9.34598e-06
-9.55728e-06
-9.72248e-06
-9.84801e-06
-9.9443e-06
-1.00215e-05
-1.0088e-05
-1.01511e-05
-1.02176e-05
-1.02932e-05
-1.03821e-05
-1.04875e-05
-1.0611e-05
-1.07543e-05
-1.09193e-05
-1.11078e-05
-1.13161e-05
-1.15429e-05
-1.17878e-05
-1.20492e-05
-7.36274e-07
-9.63941e-07
-1.1933e-06
-1.42731e-06
-1.67212e-06
-1.91838e-06
-2.16832e-06
-2.42603e-06
-2.69342e-06
-2.97157e-06
-3.26207e-06
-3.5669e-06
-3.88798e-06
-4.22723e-06
-4.58661e-06
-4.96795e-06
-5.37286e-06
-5.80252e-06
-6.2575e-06
-6.73751e-06
-7.2409e-06
-7.76382e-06
-8.27371e-06
-8.73439e-06
-9.14098e-06
-9.49757e-06
-9.80689e-06
-1.00731e-05
-1.0303e-05
-1.05043e-05
-1.06841e-05
-1.08486e-05
-1.10031e-05
-1.11527e-05
-1.13016e-05
-1.14534e-05
-1.16111e-05
-1.17776e-05
-1.19545e-05
-1.21432e-05
-1.23434e-05
-1.25563e-05
-1.27807e-05
-1.30157e-05
-1.32604e-05
-8.12665e-08
-3.33997e-07
-5.91198e-07
-8.49819e-07
-1.11521e-06
-1.38615e-06
-1.664e-06
-1.951e-06
-2.24833e-06
-2.5569e-06
-2.87812e-06
-3.21368e-06
-3.56519e-06
-3.93427e-06
-4.32257e-06
-4.73177e-06
-5.16336e-06
-5.61863e-06
-6.09851e-06
-6.60337e-06
-7.13279e-06
-7.68493e-06
-8.23206e-06
-8.74021e-06
-9.20135e-06
-9.617e-06
-9.99016e-06
-1.03251e-05
-1.0627e-05
-1.09011e-05
-1.11525e-05
-1.13858e-05
-1.16052e-05
-1.18144e-05
-1.20168e-05
-1.22156e-05
-1.24133e-05
-1.26121e-05
-1.28136e-05
-1.30187e-05
-1.32279e-05
-1.3443e-05
-1.36636e-05
-1.38892e-05
-1.41198e-05
3.99009e-07
1.30349e-07
-1.42464e-07
-4.24537e-07
-7.1141e-07
-1.00515e-06
-1.30743e-06
-1.61927e-06
-1.94155e-06
-2.27532e-06
-2.62182e-06
-2.98237e-06
-3.3583e-06
-3.751e-06
-4.16189e-06
-4.59241e-06
-5.04394e-06
-5.51771e-06
-6.01479e-06
-6.53585e-06
-7.08115e-06
-7.65032e-06
-8.21821e-06
-8.75211e-06
-9.24402e-06
-9.69579e-06
-1.01101e-05
-1.04904e-05
-1.08401e-05
-1.11633e-05
-1.14637e-05
-1.17447e-05
-1.20094e-05
-1.22609e-05
-1.25017e-05
-1.27344e-05
-1.2961e-05
-1.31833e-05
-1.34027e-05
-1.36206e-05
-1.38385e-05
-1.40569e-05
-1.42761e-05
-1.44965e-05
-1.47183e-05
7.38361e-07
4.53601e-07
1.62548e-07
-1.35583e-07
-4.40863e-07
-7.54315e-07
-1.07676e-06
-1.40891e-06
-1.75158e-06
-2.10569e-06
-2.47224e-06
-2.85225e-06
-3.24685e-06
-3.65718e-06
-4.08443e-06
-4.52981e-06
-4.99451e-06
-5.47963e-06
-5.9862e-06
-6.515e-06
-7.06658e-06
-7.64097e-06
-8.21527e-06
-8.7596e-06
-9.26695e-06
-9.73902e-06
-1.01779e-05
-1.05862e-05
-1.09665e-05
-1.13218e-05
-1.16547e-05
-1.19679e-05
-1.22638e-05
-1.25447e-05
-1.28127e-05
-1.30698e-05
-1.33176e-05
-1.35577e-05
-1.37915e-05
-1.40204e-05
-1.42458e-05
-1.44681e-05
-1.4688e-05
-1.49059e-05
-1.51225e-05
9.65326e-07
6.6655e-07
3.60993e-07
4.79357e-08
-2.73186e-07
-6.02888e-07
-9.41723e-07
-1.2903e-06
-1.64928e-06
-2.01939e-06
-2.40139e-06
-2.79611e-06
-3.20444e-06
-3.62729e-06
-4.06562e-06
-4.5204e-06
-4.99262e-06
-5.48318e-06
-5.99301e-06
-6.52279e-06
-7.07312e-06
-7.64407e-06
-8.21526e-06
-8.76015e-06
-9.27252e-06
-9.75379e-06
-1.02056e-05
-1.06298e-05
-1.10285e-05
-1.14038e-05
-1.17577e-05
-1.20922e-05
-1.24092e-05
-1.27104e-05
-1.29976e-05
-1.32722e-05
-1.35358e-05
-1.37895e-05
-1.4035e-05
-1.4273e-05
-1.45049e-05
-1.47311e-05
-1.49526e-05
-1.51699e-05
-1.53837e-05
1.10973e-06
7.99236e-07
4.81273e-07
1.55282e-07
-1.79058e-07
-5.22115e-07
-8.74324e-07
-1.23613e-06
-1.60804e-06
-1.99057e-06
-2.38432e-06
-2.78992e-06
-3.20804e-06
-3.63937e-06
-4.08466e-06
-4.54465e-06
-5.02012e-06
-5.51177e-06
-6.02035e-06
-6.5464e-06
-7.09045e-06
-7.65256e-06
-8.21481e-06
-8.75398e-06
-9.2646e-06
-9.74774e-06
-1.02046e-05
-1.06367e-05
-1.10455e-05
-1.14327e-05
-1.17997e-05
-1.2148e-05
-1.2479e-05
-1.27942e-05
-1.30949e-05
-1.33822e-05
-1.36574e-05
-1.39215e-05
-1.41757e-05
-1.44215e-05
-1.46591e-05
-1.48893e-05
-1.5113e-05
-1.53311e-05
-1.55441e-05
1.19667e-06
8.75892e-07
5.4721e-07
2.10297e-07
-1.35066e-07
-4.89142e-07
-8.52223e-07
-1.22462e-06
-1.60667e-06
-1.99877e-06
-2.40134e-06
-2.81482e-06
-3.2397e-06
-3.67648e-06
-4.12571e-06
-4.58792e-06
-5.06368e-06
-5.5535e-06
-6.05796e-06
-6.57743e-06
-7.11234e-06
-7.66265e-06
-8.21277e-06
-8.74268e-06
-9.24754e-06
-9.72807e-06
-1.01852e-05
-1.062e-05
-1.10337e-05
-1.14273e-05
-1.18021e-05
-1.21592e-05
-1.24995e-05
-1.28242e-05
-1.31344e-05
-1.34309e-05
-1.37148e-05
-1.39869e-05
-1.42483e-05
-1.45001e-05
-1.47426e-05
-1.49767e-05
-1.52033e-05
-1.54231e-05
-1.56369e-05
1.2451e-06
9.1531e-07
5.77419e-07
2.31299e-07
-1.23243e-07
-4.86376e-07
-8.5827e-07
-1.23912e-06
-1.62915e-06
-2.0286e-06
-2.43776e-06
-2.85691e-06
-3.28637e-06
-3.72648e-06
-4.17759e-06
-4.64007e-06
-5.1143e-06
-5.6006e-06
-6.09938e-06
-6.61085e-06
-7.13532e-06
-7.67264e-06
-8.20935e-06
-8.72838e-06
-9.22542e-06
-9.70088e-06
-1.01554e-05
-1.05899e-05
-1.10051e-05
-1.14019e-05
-1.17812e-05
-1.21436e-05
-1.249e-05
-1.28213e-05
-1.31381e-05
-1.34413e-05
-1.37318e-05
-1.40102e-05
-1.42773e-05
-1.4534e-05
-1.4781e-05
-1.50189e-05
-1.52486e-05
-1.54707e-05
-1.56861e-05
1.26881e-06
9.31309e-07
5.85653e-07
2.31767e-07
-1.30448e-07
-5.01065e-07
-8.80159e-07
-1.26783e-06
-1.66419e-06
-2.06936e-06
-2.4835e-06
-2.90676e-06
-3.33933e-06
-3.78137e-06
-4.2331e-06
-4.69471e-06
-5.16643e-06
-5.64841e-06
-6.1409e-06
-6.64394e-06
-7.15776e-06
-7.68204e-06
-8.20528e-06
-8.71306e-06
-9.2015e-06
-9.67075e-06
-1.01213e-05
-1.05538e-05
-1.09687e-05
-1.13666e-05
-1.17481e-05
-1.21138e-05
-1.24642e-05
-1.27999e-05
-1.31215e-05
-1.34297e-05
-1.37251e-05
-1.40084e-05
-1.42802e-05
-1.45412e-05
-1.47922e-05
-1.50336e-05
-1.52663e-05
-1.54911e-05
-1.57086e-05
1.27784e-06
9.33729e-07
5.81438e-07
2.20951e-07
-1.47733e-07
-5.24607e-07
-9.09671e-07
-1.30293e-06
-1.70441e-06
-2.11414e-06
-2.53215e-06
-2.95848e-06
-3.39318e-06
-3.83631e-06
-4.28795e-06
-4.74813e-06
-5.21694e-06
-5.69439e-06
-6.18058e-06
-6.6754e-06
-7.17898e-06
-7.69086e-06
-8.20129e-06
-8.69818e-06
-9.17801e-06
-9.64078e-06
-1.00868e-05
-1.05164e-05
-1.093e-05
-1.13278e-05
-1.17104e-05
-1.20779e-05
-1.24309e-05
-1.27698e-05
-1.3095e-05
-1.34069e-05
-1.37062e-05
-1.39933e-05
-1.42689e-05
-1.45336e-05
-1.4788e-05
-1.50326e-05
-1.52682e-05
-1.54956e-05
-1.57156e-05
1.27887e-06
9.29028e-07
5.70994e-07
2.04835e-07
-1.69373e-07
-5.5156e-07
-9.4166e-07
-1.33961e-06
-1.74533e-06
-2.15878e-06
-2.57989e-06
-3.00861e-06
-3.44487e-06
-3.88862e-06
-4.3398e-06
-4.79836e-06
-5.26422e-06
-5.73729e-06
-6.21752e-06
-6.70467e-06
-7.19877e-06
-7.69923e-06
-8.19786e-06
-8.68461e-06
-9.1563e-06
-9.61277e-06
-1.00542e-05
-1.04807e-05
-1.08925e-05
-1.12897e-05
-1.16725e-05
-1.20412e-05
-1.23959e-05
-1.2737e-05
-1.30648e-05
-1.33797e-05
-1.3682e-05
-1.39722e-05
-1.4251e-05
-1.45187e-05
-1.47761e-05
-1.50236e-05
-1.52619e-05
-1.54918e-05
-1.57141e-05
1.27599e-06
9.21181e-07
5.58132e-07
1.87047e-07
-1.9194e-07
-5.7871e-07
-9.73136e-07
-1.37508e-06
-1.78442e-06
-2.20101e-06
-2.6247e-06
-3.05535e-06
-3.49282e-06
-3.93694e-06
-4.38756e-06
-4.8445e-06
-5.30759e-06
-5.7766e-06
-6.25137e-06
-6.73156e-06
-7.21709e-06
-7.70724e-06
-8.19522e-06
-8.67276e-06
-9.13697e-06
-9.5876e-06
-1.00246e-05
-1.04481e-05
-1.0858e-05
-1.12542e-05
-1.1637e-05
-1.20063e-05
-1.23622e-05
-1.2705e-05
-1.30349e-05
-1.3352e-05
-1.36568e-05
-1.39496e-05
-1.4231e-05
-1.45011e-05
-1.47613e-05
-1.50112e-05
-1.52519e-05
-1.54841e-05
-1.57087e-05
1.27163e-06
9.12497e-07
5.45026e-07
1.69619e-07
-2.13554e-07
-6.04329e-07
-1.00253e-06
-1.40796e-06
-1.82043e-06
-2.23972e-06
-2.66563e-06
-3.09794e-06
-3.5364e-06
-3.98078e-06
-4.43083e-06
-4.88627e-06
-5.34684e-06
-5.81221e-06
-6.2821e-06
-6.75607e-06
-7.23395e-06
-7.71493e-06
-8.19341e-06
-8.66269e-06
-9.12019e-06
-9.56554e-06
-9.99859e-06
-1.04192e-05
-1.08272e-05
-1.12225e-05
-1.1605e-05
-1.19747e-05
-1.23315e-05
-1.26756e-05
-1.30071e-05
-1.33261e-05
-1.36329e-05
-1.39279e-05
-1.42114e-05
-1.44837e-05
-1.47461e-05
-1.49982e-05
-1.5241e-05
-1.54753e-05
-1.57018e-05
1.26718e-06
9.04203e-07
5.32797e-07
1.53566e-07
-2.33307e-07
-6.2762e-07
-1.02915e-06
-1.43765e-06
-1.85288e-06
-2.27456e-06
-2.70242e-06
-3.13617e-06
-3.57551e-06
-4.02011e-06
-4.46964e-06
-4.92376e-06
-5.38209e-06
-5.84423e-06
-6.3098e-06
-6.77829e-06
-7.2494e-06
-7.72226e-06
-8.19233e-06
-8.65429e-06
-9.10583e-06
-9.54648e-06
-9.97595e-06
-1.0394e-05
-1.08003e-05
-1.11946e-05
-1.15768e-05
-1.19467e-05
-1.23043e-05
-1.26494e-05
-1.29822e-05
-1.33028e-05
-1.36114e-05
-1.39082e-05
-1.41933e-05
-1.44677e-05
-1.4732e-05
-1.49859e-05
-1.52305e-05
-1.54666e-05
-1.56948e-05
1.26333e-06
8.96815e-07
5.21932e-07
1.39305e-07
-2.50855e-07
-6.48311e-07
-1.0528e-06
-1.46403e-06
-1.88171e-06
-2.30552e-06
-2.73512e-06
-3.17016e-06
-3.61028e-06
-4.0551e-06
-4.5042e-06
-4.95716e-06
-5.41354e-06
-5.87284e-06
-6.33464e-06
-6.7983e-06
-7.26347e-06
-7.72919e-06
-8.19185e-06
-8.64736e-06
-9.09366e-06
-9.53016e-06
-9.95648e-06
-1.03722e-05
-1.0777e-05
-1.11705e-05
-1.15524e-05
-1.19225e-05
-1.22806e-05
-1.26267e-05
-1.29606e-05
-1.32825e-05
-1.35925e-05
-1.38909e-05
-1.41773e-05
-1.44537e-05
-1.47195e-05
-1.49751e-05
-1.52211e-05
-1.54587e-05
-1.56885e-05
1.26021e-06
8.90521e-07
5.12581e-07
1.26939e-07
-2.66137e-07
-6.66384e-07
-1.0735e-06
-1.48716e-06
-1.90702e-06
-2.33272e-06
-2.76388e-06
-3.20009e-06
-3.64093e-06
-4.08596e-06
-4.53471e-06
-4.98669e-06
-5.44138e-06
-5.89824e-06
-6.35673e-06
-6.81619e-06
-7.27617e-06
-7.73564e-06
-8.19181e-06
-8.64168e-06
-9.08339e-06
-9.51628e-06
-9.93986e-06
-1.03536e-05
-1.07571e-05
-1.11498e-05
-1.15315e-05
-1.19018e-05
-1.22604e-05
-1.26072e-05
-1.29422e-05
-1.32652e-05
-1.35764e-05
-1.38761e-05
-1.41638e-05
-1.44417e-05
-1.47089e-05
-1.49658e-05
-1.52131e-05
-1.5452e-05
-1.56831e-05
1.25779e-06
8.8529e-07
5.04628e-07
1.163e-07
-2.79379e-07
-6.82119e-07
-1.09159e-06
-1.50742e-06
-1.92924e-06
-2.35665e-06
-2.78921e-06
-3.22648e-06
-3.668e-06
-4.11325e-06
-4.56173e-06
-5.01288e-06
-5.46613e-06
-5.92086e-06
-6.37649e-06
-6.83228e-06
-7.28772e-06
-7.74169e-06
-8.1921e-06
-8.63697e-06
-9.07465e-06
-9.50437e-06
-9.92555e-06
-1.03376e-05
-1.07399e-05
-1.1132e-05
-1.15135e-05
-1.1884e-05
-1.22431e-05
-1.25906e-05
-1.29264e-05
-1.32504e-05
-1.35628e-05