/*--------------------------------*- C++ -*----------------------------------*\
| =========                 |                                                 |
| \\      /  F ield         | OpenFOAM: The Open Source CFD Toolbox           |
|  \\    /   O peration     | Version:  2312                                  |
|   \\  /    A nd           | Website:  www.openfoam.com                      |
|    \\/     M anipulation  |                                                 |
\*---------------------------------------------------------------------------*/
FoamFile
{
    version     2.0;
    format      ascii;
    arch        "LSB;label=32;scalar=64";
    class       surfaceScalarField;
    location    "154.75";
    object      phi;
}
// * * * * * * * * * * * * * * * * * * * * * * * * * * * * * * * * * * * * * //

dimensions      [0 3 -1 0 0 0 0];

oriented        oriented;

internalField   nonuniform List<scalar> 
9445
(
5.92556e-10
1.6879e-11
5.81255e-10
1.13002e-11
5.73668e-10
7.58777e-12
5.68731e-10
4.93685e-12
5.658e-10
2.93055e-12
5.64483e-10
1.31721e-12
5.64592e-10
-1.08888e-13
5.66112e-10
-1.52042e-12
5.68993e-10
-2.88075e-12
5.73639e-10
-4.64556e-12
5.81171e-10
-7.53242e-12
5.95102e-10
-1.39307e-11
6.27799e-10
-3.26972e-11
7.22738e-10
-9.49394e-11
-2.4817e-10
9.70909e-10
2.06443e-09
7.46049e-11
2.02554e-09
5.01906e-11
1.99921e-09
3.39189e-11
1.98182e-09
2.23199e-11
1.97117e-09
1.35821e-11
1.96588e-09
6.60593e-12
1.96526e-09
5.15401e-13
1.96902e-09
-5.27736e-12
1.97712e-09
-1.09878e-11
1.99079e-09
-1.83111e-11
2.01281e-09
-2.95569e-11
2.04992e-09
-5.10387e-11
2.11539e-09
-9.8165e-11
2.22198e-09
-2.01532e-10
-3.61449e-10
2.33526e-09
4.06832e-09
1.85878e-10
3.99297e-09
1.25534e-10
3.94161e-09
8.52787e-11
3.9073e-09
5.66296e-11
3.88575e-09
3.51413e-11
3.87423e-09
1.81232e-11
3.87127e-09
3.47514e-12
3.87609e-09
-1.01022e-11
3.88844e-09
-2.33373e-11
3.90987e-09
-3.97358e-11
3.94304e-09
-6.27262e-11
3.99243e-09
-1.00433e-10
4.06081e-09
-1.66548e-10
4.13479e-09
-2.75508e-10
-4.04496e-10
4.17784e-09
6.75008e-09
3.65209e-10
6.62787e-09
2.47742e-10
6.5439e-09
1.69246e-10
6.48708e-09
1.13453e-10
6.45044e-09
7.17799e-11
6.42948e-09
3.90813e-11
6.42161e-09
1.13465e-11
6.4252e-09
-1.36884e-11
6.43931e-09
-3.74498e-11
6.46486e-09
-6.52866e-11
6.50268e-09
-1.00544e-10
6.55223e-09
-1.49984e-10
6.60708e-09
-2.21395e-10
6.64754e-09
-3.15975e-10
-4.08103e-10
6.65115e-09
1.0287e-08
6.27768e-10
1.01065e-08
4.28225e-10
9.98134e-09
2.94451e-10
9.89538e-09
1.99411e-10
9.83847e-09
1.28684e-10
9.80386e-09
7.36934e-11
9.78731e-09
2.78979e-11
9.78597e-09
-1.23514e-11
9.798e-09
-4.94706e-11
9.82227e-09
-8.95632e-11
9.85708e-09
-1.35353e-10
9.89762e-09
-1.90527e-10
9.93338e-09
-2.5715e-10
9.9476e-09
-3.30196e-10
-3.90734e-10
9.93023e-09
1.48899e-08
9.86607e-10
1.46403e-08
6.7786e-10
1.4465e-08
4.69708e-10
1.43428e-08
3.21671e-10
1.42597e-08
2.11809e-10
1.42063e-08
1.27076e-10
1.41763e-08
5.79038e-11
1.41651e-08
-1.22351e-12
1.41697e-08
-5.40637e-11
1.41865e-08
-1.06287e-10
1.42111e-08
-1.59961e-10
1.42367e-08
-2.16113e-10
1.42529e-08
-2.73421e-10
1.42489e-08
-3.262e-10
-3.63804e-10
1.4222e-08
2.08014e-08
1.44731e-09
2.04755e-08
1.00379e-09
2.02432e-08
7.02038e-10
2.00782e-08
4.8669e-10
1.99629e-08
3.27051e-10
1.98853e-08
2.04713e-10
1.98365e-08
1.06706e-10
1.98101e-08
2.51677e-11
1.98011e-08
-4.50484e-11
1.98038e-08
-1.09037e-10
1.98124e-08
-1.68514e-10
1.98196e-08
-2.23298e-10
1.98176e-08
-2.71432e-10
1.98006e-08
-3.09257e-10
-3.3234e-10
1.97692e-08
2.82887e-08
1.99956e-09
2.78886e-08
1.40394e-09
2.75976e-08
9.93003e-10
2.73866e-08
6.97703e-10
2.72352e-08
4.7848e-10
2.71287e-08
3.11171e-10
2.70562e-08
1.79208e-10
2.70092e-08
7.21222e-11
2.69809e-08
-1.67055e-11
2.69642e-08
-9.2355e-11
2.69526e-08
-1.56861e-10
2.69397e-08
-2.1042e-10
2.69205e-08
-2.52255e-10
2.68926e-08
-2.81306e-10
-2.96909e-10
2.68571e-08
3.76307e-08
2.60743e-09
3.7175e-08
1.85968e-09
3.68347e-08
1.33333e-09
3.65816e-08
9.50753e-10
3.63948e-08
6.65345e-10
3.62582e-08
4.4777e-10
3.61593e-08
2.78054e-10
3.60883e-08
1.43162e-10
3.60368e-08
3.48119e-11
3.59973e-08
-5.28423e-11
3.59634e-08
-1.23026e-10
3.59303e-08
-1.77283e-10
3.58948e-08
-2.16732e-10
3.5856e-08
-2.42517e-10
-2.56045e-10
3.58151e-08
4.91088e-08
3.20596e-09
4.86379e-08
2.33057e-09
4.82734e-08
1.69784e-09
4.79938e-08
1.23032e-09
4.77807e-08
8.7843e-10
4.76189e-08
6.09531e-10
4.74959e-08
4.01088e-10
4.74012e-08
2.37855e-10
4.73264e-08
1.09661e-10
4.72639e-08
9.59067e-12
4.72087e-08
-6.78244e-11
4.71569e-08
-1.25423e-10
4.71065e-08
-1.66308e-10
4.70571e-08
-1.9316e-10
-2.08496e-10
4.70095e-08
6.30229e-08
3.71748e-09
6.25932e-08
2.76024e-09
6.22444e-08
2.04661e-09
6.19663e-08
1.50846e-09
6.17463e-08
1.09837e-09
6.15727e-08
7.83203e-10
6.14345e-08
5.39284e-10
6.13225e-08
3.49849e-10
6.12291e-08
2.03056e-10
6.11485e-08
9.01754e-11
6.10761e-08
4.57106e-12
6.10095e-08
-5.87979e-11
6.09472e-08
-1.04057e-10
6.08891e-08
-1.34986e-10
-1.54679e-10
6.08352e-08
7.97621e-08
4.09229e-09
7.9421e-08
3.10132e-09
7.91276e-08
2.34001e-09
7.88823e-08
1.75376e-09
7.86798e-08
1.30089e-09
7.85128e-08
9.50189e-10
7.83738e-08
6.78256e-10
7.82561e-08
4.67585e-10
7.81541e-08
3.0507e-10
7.80636e-08
1.80651e-10
7.79817e-08
8.64684e-11
7.79068e-08
1.60942e-11
7.78379e-08
-3.5144e-11
7.77747e-08
-7.1804e-11
-9.71917e-11
7.77173e-08
9.99034e-08
4.34196e-09
9.96582e-08
3.34646e-09
9.94347e-08
2.56353e-09
9.92383e-08
1.95017e-09
9.90684e-08
1.4708e-09
9.89217e-08
1.09691e-09
9.8794e-08
8.05952e-10
9.86814e-08
5.80206e-10
9.85806e-08
4.05831e-10
9.84893e-08
2.719e-10
9.8406e-08
1.69766e-10
9.83296e-08
9.24978e-11
9.82599e-08
3.4602e-11
9.81964e-08
-8.27267e-12
-3.97763e-11
9.8139e-08
1.2421e-07
4.5146e-09
1.24031e-07
3.52543e-09
1.2386e-07
2.73461e-09
1.23703e-07
2.1073e-09
1.23561e-07
1.61279e-09
1.23433e-07
1.22483e-09
1.23317e-07
9.21644e-10
1.23212e-07
6.85501e-10
1.23116e-07
5.02194e-10
1.23027e-07
3.60361e-10
1.22946e-07
2.50998e-10
1.22872e-07
1.66915e-10
1.22804e-07
1.02502e-10
1.22742e-07
5.32094e-11
1.54215e-11
1.22687e-07
1.53427e-07
4.6341e-09
1.53291e-07
3.66145e-09
1.53152e-07
2.87358e-09
1.53017e-07
2.24199e-09
1.5289e-07
1.74023e-09
1.5277e-07
1.34415e-09
1.52659e-07
1.03285e-09
1.52556e-07
7.88877e-10
1.5246e-07
5.98022e-10
1.52371e-07
4.48876e-10
1.5229e-07
3.32371e-10
1.52216e-07
2.41299e-10
1.52148e-07
1.70015e-10
1.52087e-07
1.14019e-10
6.98438e-11
1.52033e-07
1.88021e-07
4.68599e-09
1.87935e-07
3.74717e-09
1.87831e-07
2.97769e-09
1.87719e-07
2.35414e-09
1.87605e-07
1.85434e-09
1.87492e-07
1.45656e-09
1.87384e-07
1.14135e-09
1.87281e-07
8.9207e-10
1.87184e-07
6.95058e-10
1.87093e-07
5.39212e-10
1.8701e-07
4.15709e-10
1.86934e-07
3.17511e-10
1.86865e-07
2.39081e-10
1.86803e-07
1.76049e-10
1.25011e-10
1.86747e-07
2.28071e-07
4.651e-09
2.28052e-07
3.76547e-09
2.27998e-07
3.03236e-09
2.27921e-07
2.43139e-09
2.2783e-07
1.94465e-09
2.27734e-07
1.55328e-09
2.27635e-07
1.23986e-09
2.27538e-07
9.89175e-10
2.27444e-07
7.88538e-10
2.27356e-07
6.27613e-10
2.27274e-07
4.98032e-10
2.27198e-07
3.93172e-10
2.27129e-07
3.07773e-10
2.27068e-07
2.37673e-10
1.79621e-10
2.27013e-07
2.73133e-07
4.52091e-09
2.73191e-07
3.70751e-09
2.73196e-07
3.02775e-09
2.73163e-07
2.46368e-09
2.73107e-07
2.00143e-09
2.73035e-07
1.62525e-09
2.72954e-07
1.32023e-09
2.72871e-07
1.07297e-09
2.72787e-07
8.72237e-10
2.72706e-07
7.08682e-10
2.72629e-07
5.74706e-10
2.72558e-07
4.64244e-10
2.72493e-07
3.72426e-10
2.72436e-07
2.95425e-10
2.30353e-10
2.72385e-07
3.21796e-07
4.28542e-09
3.2194e-07
3.56374e-09
3.22014e-07
2.95306e-09
3.22038e-07
2.43997e-09
3.22026e-07
2.01394e-09
3.21988e-07
1.6625e-09
3.21935e-07
1.37336e-09
3.21873e-07
1.13534e-09
3.21806e-07
9.38918e-10
3.21739e-07
7.76011e-10
3.21674e-07
6.40066e-10
3.21612e-07
5.25742e-10
3.21556e-07
4.28701e-10
3.21506e-07
3.45501e-10
2.73449e-10
3.21463e-07
3.70951e-07
3.92752e-09
3.712e-07
3.31493e-09
3.71364e-07
2.78873e-09
3.71464e-07
2.34021e-09
3.71516e-07
1.96227e-09
3.71533e-07
1.64564e-09
3.71525e-07
1.38074e-09
3.71502e-07
1.15881e-09
3.71469e-07
9.721e-10
3.7143e-07
8.14137e-10
3.71391e-07
6.79492e-10
3.71353e-07
5.63744e-10
3.71318e-07
4.63321e-10
3.71289e-07
3.75384e-10
2.97528e-10
3.71264e-07
3.68521e-07
3.52225e-09
3.68822e-07
3.01404e-09
3.6904e-07
2.57104e-09
3.69192e-07
2.18796e-09
3.69294e-07
1.86041e-09
3.69358e-07
1.58154e-09
3.69394e-07
1.34416e-09
3.69412e-07
1.14149e-09
3.69416e-07
9.67577e-10
3.69413e-07
8.17312e-10
3.69406e-07
6.86442e-10
3.69398e-07
5.71421e-10
3.69392e-07
4.6931e-10
3.6939e-07
3.77712e-10
2.94935e-10
3.69393e-07
3.15925e-07
3.08301e-09
3.16266e-07
2.67386e-09
3.16526e-07
2.31111e-09
3.1672e-07
1.9933e-09
3.16863e-07
1.7175e-09
3.16966e-07
1.47892e-09
3.17038e-07
1.27223e-09
3.17087e-07
1.09247e-09
3.17119e-07
9.35211e-10
3.1714e-07
7.96589e-10
3.17153e-07
6.73403e-10
3.17161e-07
5.62943e-10
3.17168e-07
4.62992e-10
3.17174e-07
3.71715e-10
2.87554e-10
3.17181e-07
2.64491e-07
2.67404e-09
2.64822e-07
2.34249e-09
2.65089e-07
2.04468e-09
2.65301e-07
1.78094e-09
2.65469e-07
1.5491e-09
2.65603e-07
1.34555e-09
2.65709e-07
1.16641e-09
2.65793e-07
1.00798e-09
2.65861e-07
8.66992e-10
2.65917e-07
7.40454e-10
2.65965e-07
6.26011e-10
2.66006e-07
5.21616e-10
2.66044e-07
4.25492e-10
2.66079e-07
3.36145e-10
2.52618e-10
2.66114e-07
2.17926e-07
2.28767e-09
2.18248e-07
2.0204e-09
2.18515e-07
1.77788e-09
2.18735e-07
1.56072e-09
2.18917e-07
1.36738e-09
2.19067e-07
1.1952e-09
2.19192e-07
1.04136e-09
2.19297e-07
9.03121e-10
2.19386e-07
7.78028e-10
2.19462e-07
6.6397e-10
2.19529e-07
5.59119e-10
2.19589e-07
4.61949e-10
2.19643e-07
3.71132e-10
2.19694e-07
2.85727e-10
2.05023e-10
2.19741e-07
1.77193e-07
1.92107e-09
1.77506e-07
1.70808e-09
1.7777e-07
1.51306e-09
1.77995e-07
1.3365e-09
1.78185e-07
1.17728e-09
1.78346e-07
1.03347e-09
1.78485e-07
9.03043e-10
1.78604e-07
7.84023e-10
1.78707e-07
6.74674e-10
1.78798e-07
5.73457e-10
1.78878e-07
4.79067e-10
1.78949e-07
3.90452e-10
1.79014e-07
3.06693e-10
1.79072e-07
2.27125e-10
1.51112e-10
1.79126e-07
1.42464e-07
1.57884e-09
1.4276e-07
1.41175e-09
1.43016e-07
1.25737e-09
1.43236e-07
1.11606e-09
1.43427e-07
9.86954e-10
1.43592e-07
8.68677e-10
1.43735e-07
7.59819e-10
1.4386e-07
6.59047e-10
1.43969e-07
5.65154e-10
1.44066e-07
4.77082e-10
1.44151e-07
3.93967e-10
1.44226e-07
3.15075e-10
1.44293e-07
2.39819e-10
1.44352e-07
1.67707e-10
9.81782e-11
1.44405e-07
1.13401e-07
1.26823e-09
1.13674e-07
1.13962e-09
1.13911e-07
1.01964e-09
1.14119e-07
9.08586e-10
1.143e-07
8.05751e-10
1.14458e-07
7.10211e-10
1.14597e-07
6.21051e-10
1.14719e-07
5.37404e-10
1.14826e-07
4.58486e-10
1.14919e-07
3.83616e-10
1.15001e-07
3.12217e-10
1.15072e-07
2.43859e-10
1.15134e-07
1.78142e-10
1.15187e-07
1.14751e-10
5.34901e-11
1.15231e-07
8.94125e-08
9.95317e-10
8.96537e-08
8.98428e-10
8.98662e-08
8.07133e-10
9.00531e-08
7.2165e-10
9.02175e-08
6.41399e-10
9.03619e-08
5.65812e-10
9.04886e-08
4.94348e-10
9.05995e-08
4.26484e-10
9.06962e-08
3.61742e-10
9.07801e-08
2.9972e-10
9.08523e-08
2.40056e-10
9.09136e-08
1.82536e-10
9.09648e-08
1.26955e-10
9.10064e-08
7.3126e-11
2.07283e-11
9.10392e-08
6.98211e-08
7.63088e-10
7.00277e-08
6.91814e-10
7.02108e-08
6.23989e-10
7.03728e-08
5.59702e-10
7.05157e-08
4.98496e-10
7.06414e-08
4.40085e-10
7.07516e-08
3.84186e-10
7.08475e-08
3.30516e-10
7.09305e-08
2.78805e-10
7.10013e-08
2.28848e-10
7.10609e-08
1.80468e-10
7.11099e-08
1.33531e-10
7.11489e-08
8.79994e-11
7.11783e-08
4.37084e-11
8.40855e-13
7.11982e-08
5.39636e-08
5.71217e-10
5.41352e-08
5.20154e-10
5.42881e-08
4.71114e-10
5.44238e-08
4.24002e-10
5.45438e-08
3.78507e-10
5.46493e-08
3.34543e-10
5.47415e-08
2.91992e-10
5.48213e-08
2.50721e-10
5.48895e-08
2.10607e-10
5.49468e-08
1.71568e-10
5.49937e-08
1.33536e-10
5.50308e-08
9.64765e-11
5.50584e-08
6.04176e-11
5.50769e-08
2.5175e-11
-8.74347e-12
5.50865e-08
4.12327e-08
4.16847e-10
4.13715e-08
3.81339e-10
4.14957e-08
3.46954e-10
4.16063e-08
3.13411e-10
4.17042e-08
2.80562e-10
4.17903e-08
2.48437e-10
4.18653e-08
2.17011e-10
4.19298e-08
1.86244e-10
4.19843e-08
1.56103e-10
4.20293e-08
1.26575e-10
4.20652e-08
9.76571e-11
4.20923e-08
6.93767e-11
4.21109e-08
4.17728e-11
4.21213e-08
1.47757e-11
-1.12186e-11
4.21238e-08
3.1093e-08
2.95637e-10
3.12026e-08
2.7178e-10
3.1301e-08
2.48502e-10
3.1389e-08
2.25391e-10
3.14671e-08
2.02449e-10
3.15358e-08
1.79755e-10
3.15955e-08
1.57326e-10
3.16466e-08
1.35176e-10
3.16894e-08
1.13316e-10
3.17242e-08
9.17718e-11
3.17513e-08
7.05734e-11
3.17709e-08
4.97615e-11
3.17832e-08
2.93998e-11
3.17885e-08
9.49431e-12
-9.70103e-12
3.1787e-08
2.30821e-08
2.02676e-10
2.31666e-08
1.87287e-10
2.3243e-08
1.72159e-10
2.33115e-08
1.56838e-10
2.33725e-08
1.41434e-10
2.34263e-08
1.26025e-10
2.34729e-08
1.10647e-10
2.35128e-08
9.53316e-11
2.3546e-08
8.01124e-11
2.35727e-08
6.50274e-11
2.35932e-08
5.01164e-11
2.36075e-08
3.54227e-11
2.36159e-08
2.10089e-11
2.36185e-08
6.91783e-12
-6.63747e-12
2.36154e-08
1.68064e-08
1.33124e-10
1.687e-08
1.23677e-10
1.69279e-08
1.1432e-10
1.69801e-08
1.04634e-10
1.70267e-08
9.47828e-11
1.70679e-08
8.48183e-11
1.71038e-08
7.47768e-11
1.71344e-08
6.46954e-11
1.716e-08
5.46093e-11
1.71804e-08
4.45566e-11
1.7196e-08
3.45753e-11
1.72067e-08
2.47027e-11
1.72127e-08
1.49858e-11
1.72142e-08
5.47358e-12
-3.60402e-12
1.72111e-08
1.19341e-08
8.2565e-11
1.19807e-08
7.71178e-11
1.20233e-08
7.16854e-11
1.2062e-08
6.59336e-11
1.20968e-08
6.00202e-11
1.21276e-08
5.3971e-11
1.21546e-08
4.78161e-11
1.21777e-08
4.15867e-11
1.2197e-08
3.53123e-11
1.22125e-08
2.90241e-11
1.22244e-08
2.27526e-11
1.22325e-08
1.65264e-11
1.22371e-08
1.03806e-11
1.22383e-08
4.33412e-12
-1.38062e-12
1.2236e-08
8.1881e-09
4.71568e-11
8.22095e-09
4.42679e-11
8.25126e-09
4.13799e-11
8.27894e-09
3.82532e-11
8.30395e-09
3.50057e-11
8.32628e-09
3.1644e-11
8.34591e-09
2.81894e-11
8.36283e-09
2.46641e-11
8.37705e-09
2.10887e-11
8.38859e-09
1.74852e-11
8.39747e-09
1.38749e-11
8.40372e-09
1.02776e-11
8.40738e-09
6.7179e-12
8.40852e-09
3.19058e-12
-1.24686e-13
8.40727e-09
5.33894e-09
2.36522e-11
5.36092e-09
2.22946e-11
5.38134e-09
2.09553e-11
5.40012e-09
1.94759e-11
5.4172e-09
1.79221e-11
5.43255e-09
1.62923e-11
5.44614e-09
1.45997e-11
5.45795e-09
1.2857e-11
5.46796e-09
1.10767e-11
5.47618e-09
9.27172e-12
5.4826e-09
7.45459e-12
5.48724e-09
5.63714e-12
5.49012e-09
3.83435e-12
5.49128e-09
2.03677e-12
3.44459e-13
5.49081e-09
3.19839e-09
9.35843e-12
3.21185e-09
8.83543e-12
3.22445e-09
8.35224e-12
3.23612e-09
7.80986e-12
3.24681e-09
7.23086e-12
3.25649e-09
6.61363e-12
3.26512e-09
5.96433e-12
3.27269e-09
5.28898e-12
3.27917e-09
4.5934e-12
3.28456e-09
3.88351e-12
3.28885e-09
3.16503e-12
3.29204e-09
2.44342e-12
3.29415e-09
1.72651e-12
3.29518e-09
1.00657e-12
3.2866e-13
3.2952e-09
1.61328e-09
2.06946e-12
1.62018e-09
1.93689e-12
1.62668e-09
1.84611e-12
1.63275e-09
1.74212e-12
1.63836e-09
1.6265e-12
1.64347e-09
1.49944e-12
1.64807e-09
1.36282e-12
1.65214e-09
1.21845e-12
1.65567e-09
1.068e-12
1.65864e-09
9.13119e-13
1.66105e-09
7.55328e-13
1.66289e-09
5.96009e-13
1.66418e-09
4.37884e-13
1.66491e-09
2.7779e-13
1.29251e-13
1.66511e-09
4.60073e-10
4.6201e-10
4.63857e-10
4.65599e-10
4.67225e-10
4.68725e-10
4.70087e-10
4.71306e-10
4.72374e-10
4.73287e-10
4.74042e-10
4.74638e-10
4.75076e-10
4.75354e-10
4.75483e-10
1.15838e-09
-4.86081e-10
2.98607e-10
1.42538e-09
-4.27419e-10
1.6042e-10
1.69296e-09
-3.01676e-10
3.40925e-11
1.95538e-09
-1.67865e-10
-9.45458e-11
2.21128e-09
-2.90596e-11
-2.26848e-10
2.46186e-09
1.1008e-10
-3.60654e-10
2.709e-09
2.50532e-10
-4.97678e-10
2.95438e-09
3.94092e-10
-6.39469e-10
3.19933e-09
5.42808e-10
-7.87755e-10
3.44489e-09
6.98814e-10
-9.44373e-10
3.69189e-09
8.64459e-10
-1.11147e-09
3.94109e-09
1.04274e-09
-1.29194e-09
4.19331e-09
1.23768e-09
-1.4899e-09
4.44973e-09
1.4541e-09
-1.71052e-09
4.71208e-09
1.69814e-09
-1.96049e-09
4.98278e-09
1.97802e-09
-2.24872e-09
5.26532e-09
2.30179e-09
-2.58433e-09
5.56479e-09
2.67527e-09
-2.97474e-09
5.88797e-09
3.09577e-09
-3.41895e-09
6.2431e-09
3.54201e-09
-3.89714e-09
6.63766e-09
3.93846e-09
-4.33302e-09
7.07329e-09
4.12338e-09
-4.55901e-09
7.47174e-09
3.26776e-09
-3.6662e-09
7.79715e-09
1.95036e-09
-2.27577e-09
8.04694e-09
6.1183e-10
-8.61618e-10
8.22348e-09
-6.39786e-10
4.63246e-10
8.33221e-09
-1.74819e-09
1.63945e-09
8.37926e-09
-2.6825e-09
2.63545e-09
8.36998e-09
-3.42867e-09
3.43795e-09
8.30893e-09
-3.98574e-09
4.04679e-09
8.20023e-09
-4.35841e-09
4.46711e-09
8.04778e-09
-4.55328e-09
4.70573e-09
7.85549e-09
-4.57831e-09
4.7706e-09
7.62722e-09
-4.44286e-09
4.67113e-09
7.36662e-09
-4.15785e-09
4.41845e-09
7.07692e-09
-3.73527e-09
4.02498e-09
6.76069e-09
-3.18701e-09
3.50324e-09
6.41987e-09
-2.5228e-09
2.86362e-09
6.05592e-09
-1.74749e-09
2.11145e-09
5.66922e-09
-8.59109e-10
1.2458e-09
5.25603e-09
1.45487e-10
2.67704e-10
4.80261e-09
1.24732e-09
-7.93892e-10
4.28395e-09
2.33945e-09
-1.8208e-09
3.70217e-09
3.1611e-09
-2.57933e-09
2.98513e-09
3.35371e-09
-2.63666e-09
2.40748e-09
-5.58299e-10
2.56294e-09
-5.82878e-10
2.77455e-09
-5.13287e-10
3.011e-09
-4.04318e-10
3.25897e-09
-2.77028e-10
3.51179e-09
-1.42738e-10
3.76725e-09
-4.93176e-12
4.02488e-09
1.36466e-10
4.28481e-09
2.82873e-10
4.54747e-09
4.36152e-10
4.81338e-09
5.98558e-10
5.08311e-09
7.73005e-10
5.35745e-09
9.63342e-10
5.63761e-09
1.17393e-09
5.92544e-09
1.41031e-09
6.22349e-09
1.67997e-09
6.53545e-09
1.98983e-09
6.86668e-09
2.34404e-09
7.2243e-09
2.73814e-09
7.61694e-09
3.14938e-09
8.05242e-09
3.50297e-09
8.53247e-09
3.64334e-09
8.97168e-09
2.82855e-09
9.33132e-09
1.59071e-09
9.6087e-09
3.34451e-10
9.8062e-09
-8.37292e-10
9.92959e-09
-1.87157e-09
9.98546e-09
-2.73837e-09
9.97972e-09
-3.42294e-09
9.91756e-09
-3.92358e-09
9.80379e-09
-4.24463e-09
9.64314e-09
-4.39264e-09
9.4405e-09
-4.37566e-09
9.20088e-09
-4.20324e-09
8.92939e-09
-3.88636e-09
8.63112e-09
-3.437e-09
8.31123e-09
-2.86712e-09
7.97547e-09
-2.18704e-09
7.63138e-09
-1.40341e-09
7.29021e-09
-5.17938e-10
6.96833e-09
4.67365e-10
6.68779e-09
1.52786e-09
6.47722e-09
2.55002e-09
6.38241e-09
3.25591e-09
3.05909e-09
6.30844e-09
4.1878e-09
-5.68263e-10
4.25262e-09
-6.47701e-10
4.38363e-09
-6.4429e-10
4.56556e-09
-5.86249e-10
4.77911e-09
-4.90579e-10
5.01245e-09
-3.76075e-10
5.259e-09
-2.51489e-10
5.51514e-09
-1.19671e-10
5.77903e-09
1.8986e-11
6.04982e-09
1.65357e-10
6.32728e-09
3.21098e-10
6.61156e-09
4.88728e-10
6.90316e-09
6.71737e-10
7.20323e-09
8.73866e-10
7.51362e-09
1.09992e-09
7.83695e-09
1.35664e-09
8.17704e-09
1.64974e-09
8.53945e-09
1.98163e-09
8.93158e-09
2.34601e-09
9.36229e-09
2.71867e-09
9.83964e-09
3.02562e-09
1.03653e-08
3.11772e-09
1.08464e-08
2.3474e-09
1.12414e-08
1.19571e-09
1.15475e-08
2.84041e-11
1.17669e-08
-1.05671e-09
1.19057e-08
-2.01038e-09
1.1971e-08
-2.8037e-09
1.19694e-08
-3.4213e-09
1.19067e-08
-3.86088e-09
1.17886e-08
-4.12652e-09
1.16208e-08
-4.22488e-09
1.14095e-08
-4.16431e-09
1.1161e-08
-3.95476e-09
1.08823e-08
-3.60765e-09
1.05807e-08
-3.13548e-09
1.02647e-08
-2.55109e-09
9.94433e-09
-1.86666e-09
9.63378e-09
-1.09286e-09
9.35483e-09
-2.3898e-10
9.14027e-09
6.81922e-10
9.03437e-09
1.63376e-09
9.07571e-09
2.50868e-09
9.2511e-09
3.08052e-09
2.96148e-09
9.34871e-09
6.62429e-09
-5.41398e-10
6.62698e-09
-6.504e-10
6.67942e-09
-6.96722e-10
6.78815e-09
-6.94986e-10
6.94386e-09
-6.4629e-10
7.13378e-09
-5.65989e-10
7.34958e-09
-4.67294e-10
7.58517e-09
-3.55254e-10
7.83657e-09
-2.32421e-10
8.1014e-09
-9.94657e-11
8.37831e-09
4.418e-11
8.66676e-09
2.0028e-10
8.96678e-09
3.71719e-10
9.27927e-09
5.61376e-10
9.60602e-09
7.73171e-10
9.94958e-09
1.01308e-09
1.03138e-08
1.2855e-09
1.07044e-08
1.591e-09
1.1129e-08
1.92146e-09
1.15964e-08
2.25124e-09
1.21148e-08
2.50724e-09
1.26855e-08
2.54707e-09
1.32082e-08
1.82465e-09
1.36384e-08
7.65466e-10
1.39732e-08
-3.06299e-10
1.42145e-08
-1.29805e-09
1.43687e-08
-2.16463e-09
1.44436e-08
-2.87855e-09
1.44462e-08
-3.42393e-09
1.43833e-08
-3.798e-09
1.42616e-08
-4.00482e-09
1.40881e-08
-4.0513e-09
1.38701e-08
-3.94635e-09
1.3616e-08
-3.7006e-09
1.33346e-08
-3.32629e-09
1.30361e-08
-2.83695e-09
1.27321e-08
-2.24708e-09
1.24371e-08
-1.57172e-09
1.21709e-08
-8.26694e-10
1.19622e-08
-3.01957e-11
1.185e-08
7.94104e-10
1.18815e-08
1.60225e-09
1.20842e-08
2.30599e-09
1.24137e-08
2.75104e-09
2.73496e-09
1.26402e-08
9.88615e-09
-4.97321e-10
9.84794e-09
-6.12181e-10
9.84034e-09
-6.89128e-10
9.87602e-09
-7.30665e-10
9.95901e-09
-7.29276e-10
1.00858e-08
-6.92798e-10
1.02488e-08
-6.3029e-10
1.04418e-08
-5.48274e-10
1.066e-08
-4.50598e-10
1.08998e-08
-3.39268e-10
1.11589e-08
-2.14951e-10
1.14361e-08
-7.68578e-11
1.17307e-08
7.71059e-11
1.20434e-08
2.4868e-10
1.23758e-08
4.40742e-10
1.27304e-08
6.585e-10
1.31109e-08
9.04954e-10
1.35232e-08
1.1787e-09
1.39749e-08
1.46984e-09
1.44747e-08
1.75145e-09
1.50305e-08
1.95144e-09
1.56429e-08
1.93461e-09
1.62047e-08
1.2629e-09
1.66681e-08
3.01994e-10
1.70299e-08
-6.68103e-10
1.7292e-08
-1.56006e-09
1.74607e-08
-2.33335e-09
1.75443e-08
-2.96221e-09
1.75509e-08
-3.43045e-09
1.74879e-08
-3.73503e-09
1.73633e-08
-3.88022e-09
1.71854e-08
-3.87342e-09
1.69634e-08
-3.72431e-09
1.67073e-08
-3.44451e-09
1.64284e-08
-3.04739e-09
1.61394e-08
-2.54799e-09
1.58553e-08
-1.96291e-09
1.5594e-08
-1.31043e-09
1.53786e-08
-6.11286e-10
1.52384e-08
1.09917e-10
1.52105e-08
8.22069e-10
1.53306e-08
1.48212e-09
1.56102e-08
2.0264e-09
1.59953e-08
2.36593e-09
2.41096e-09
1.63193e-08
1.41723e-08
-4.47657e-10
1.41132e-08
-5.53087e-10
1.40663e-08
-6.42171e-10
1.40438e-08
-7.08212e-10
1.40579e-08
-7.43328e-10
1.4113e-08
-7.47867e-10
1.42077e-08
-7.25027e-10
1.43388e-08
-6.79408e-10
1.45027e-08
-6.14498e-10
1.46961e-08
-5.32688e-10
1.49167e-08
-4.35456e-10
1.51626e-08
-3.22836e-10
1.54332e-08
-1.93475e-10
1.57289e-08
-4.69953e-11
1.60513e-08
1.18347e-10
1.64027e-08
3.07123e-10
1.67868e-08
5.20808e-10
1.72096e-08
7.55947e-10
1.76785e-08
1.00092e-09
1.82021e-08
1.22785e-09
1.87877e-08
1.36579e-09
1.9435e-08
1.28736e-09
2.00299e-08
6.68011e-10
2.05218e-08
-1.89977e-10
2.09069e-08
-1.05315e-09
2.11864e-08
-1.83954e-09
2.13669e-08
-2.51392e-09
2.14574e-08
-3.05271e-09
2.14665e-08
-3.43955e-09
2.14029e-08
-3.67142e-09
2.12758e-08
-3.75309e-09
2.1095e-08
-3.69268e-09
2.08716e-08
-3.50087e-09
2.06176e-08
-3.19047e-09
2.03464e-08
-2.77627e-09
2.00734e-08
-2.27494e-09
1.98157e-08
-1.7052e-09
1.95933e-08
-1.08806e-09
1.94295e-08
-4.47479e-10
1.93505e-08
1.88956e-10
1.93833e-08
7.89178e-10
1.95488e-08
1.31669e-09
1.98448e-08
1.73041e-09
2.02237e-08
1.98695e-09
2.05472e-09
2.058e-08
1.97196e-08
-3.98116e-10
1.96549e-08
-4.88397e-10
1.95876e-08
-5.74834e-10
1.95288e-08
-6.49407e-10
1.94908e-08
-7.0531e-10
1.9482e-08
-7.39106e-10
1.95071e-08
-7.5012e-10
1.95675e-08
-7.39771e-10
1.96628e-08
-7.09857e-10
1.97921e-08
-6.61941e-10
1.99541e-08
-5.9751e-10
2.01482e-08
-5.16858e-10
2.03737e-08
-4.18972e-10
2.06316e-08
-3.0496e-10
2.09241e-08
-1.74106e-10
2.12533e-08
-2.21203e-11
2.16233e-08
1.50829e-10
2.20401e-08
3.39161e-10
2.25112e-08
5.29755e-10
2.30449e-08
6.94201e-10
2.36477e-08
7.6299e-10
2.43176e-08
6.17411e-10
2.49354e-08
5.02796e-11
2.54474e-08
-7.02048e-10
2.58488e-08
-1.45445e-09
2.61398e-08
-2.13063e-09
2.63275e-08
-2.70156e-09
2.64211e-08
-3.1463e-09
2.64301e-08
-3.44853e-09
2.63643e-08
-3.60563e-09
2.62344e-08
-3.62318e-09
2.60519e-08
-3.51023e-09
2.58296e-08
-3.27857e-09
2.55815e-08
-2.94238e-09
2.53231e-08
-2.51784e-09
2.50713e-08
-2.0231e-09
2.48445e-08
-1.47846e-09
2.46628e-08
-9.06362e-10
2.45469e-08
-3.31589e-10
2.45168e-08
2.191e-10
2.45883e-08
7.17671e-10
2.47681e-08
1.13692e-09
2.50455e-08
1.45301e-09
2.53837e-08
1.64875e-09
1.71881e-09
2.57196e-08
2.68084e-08
-3.49432e-10
2.67447e-08
-4.24601e-10
2.66713e-08
-5.01467e-10
2.65959e-08
-5.74049e-10
2.65276e-08
-6.3695e-10
2.64746e-08
-6.86155e-10
2.64439e-08
-7.19425e-10
2.64403e-08
-7.36118e-10
2.64668e-08
-7.36421e-10
2.65255e-08
-7.2065e-10
2.66179e-08
-6.89822e-10
2.67449e-08
-6.43897e-10
2.69075e-08
-5.81613e-10
2.71083e-08
-5.05731e-10
2.73504e-08
-4.16177e-10
2.76365e-08
-3.08264e-10
2.79714e-08
-1.84012e-10
2.83616e-08
-5.11152e-11
2.88152e-08
7.61693e-11
2.93398e-08
1.69589e-10
2.99414e-08
1.61401e-10
3.06161e-08
-5.72978e-11
3.12411e-08
-5.74675e-10
3.17604e-08
-1.22139e-09
3.21672e-08
-1.86124e-09
3.24608e-08
-2.42425e-09
3.26481e-08
-2.8888e-09
3.27389e-08
-3.23711e-09
3.27434e-08
-3.45305e-09
3.26726e-08
-3.53486e-09
3.25388e-08
-3.48935e-09
3.23552e-08
-3.32659e-09
3.21361e-08
-3.0595e-09
3.18972e-08
-2.70353e-09
3.16554e-08
-2.27603e-09
3.14284e-08
-1.7961e-09
3.12345e-08
-1.28452e-09
3.10916e-08
-7.63514e-10
3.10163e-08
-2.56252e-10
3.10212e-08
2.14174e-10
3.11127e-08
6.26163e-10
3.12879e-08
9.6176e-10
3.1532e-08
1.20888e-09
3.18175e-08
1.36333e-09
1.42985e-09
3.21064e-08
3.57651e-08
-2.99443e-10
3.57024e-08
-3.61928e-10
3.56291e-08
-4.2807e-10
3.5549e-08
-4.94011e-10
3.54679e-08
-5.55809e-10
3.53918e-08
-6.10103e-10
3.53269e-08
-6.54498e-10
3.52785e-08
-6.87685e-10
3.52512e-08
-7.09145e-10
3.52489e-08
-7.18411e-10
3.52755e-08
-7.16367e-10
3.53341e-08
-7.02498e-10
3.54274e-08
-6.74956e-10
3.55605e-08
-6.38803e-10
3.57383e-08
-5.93943e-10
3.59645e-08
-5.34444e-10
3.62451e-08
-4.64676e-10
3.65884e-08
-3.94368e-10
3.70029e-08
-3.38312e-10
3.74962e-08
-3.23781e-10
3.80739e-08
-4.16288e-10
3.87301e-08
-7.13503e-10
3.93416e-08
-1.18618e-09
3.98508e-08
-1.73053e-09
4.02482e-08
-2.25871e-09
4.05319e-08
-2.70787e-09
4.07085e-08
-3.06544e-09
4.07885e-08
-3.31709e-09
4.07824e-08
-3.44703e-09
4.07026e-08
-3.45501e-09
4.05628e-08
-3.34951e-09
4.03777e-08
-3.14152e-09
4.01632e-08
-2.84496e-09
3.99359e-08
-2.47624e-09
3.97132e-08
-2.05333e-09
3.95124e-08
-1.59536e-09
3.93503e-08
-1.12236e-09
3.92414e-08
-6.54644e-10
3.91971e-08
-2.11998e-10
3.92238e-08
1.87537e-10
3.9321e-08
5.28971e-10
3.94808e-08
8.01886e-10
3.96882e-08
1.00149e-09
3.99222e-08
1.12936e-09
1.19289e-09
4.01591e-08
4.6956e-08
-2.45868e-10
4.68924e-08
-2.98376e-10
4.68194e-08
-3.55049e-10
4.67389e-08
-4.13545e-10
4.66543e-08
-4.71151e-10
4.65695e-08
-5.2532e-10
4.6489e-08
-5.73975e-10
4.64171e-08
-6.15797e-10
4.63581e-08
-6.50176e-10
4.63161e-08
-6.76356e-10
4.62954e-08
-6.95741e-10
4.63005e-08
-7.07526e-10
4.63348e-08
-7.09283e-10
4.64059e-08
-7.09893e-10
4.652e-08
-7.0802e-10
4.66817e-08
-6.96181e-10
4.68993e-08
-6.82259e-10
4.71826e-08
-6.77736e-10
4.75416e-08
-6.97239e-10
4.7984e-08
-7.66242e-10
4.85153e-08
-9.47578e-10
4.9128e-08
-1.32615e-09
4.97025e-08
-1.76066e-09
5.01809e-08
-2.209e-09
5.05512e-08
-2.62904e-09
5.08097e-08
-2.96633e-09
5.09635e-08
-3.21922e-09
5.10231e-08
-3.37668e-09
5.09993e-08
-3.42322e-09
5.09054e-08
-3.36114e-09
5.07568e-08
-3.20093e-09
5.05695e-08
-2.95425e-09
5.03601e-08
-2.63557e-09
5.01456e-08
-2.26173e-09
4.99429e-08
-1.85055e-09
4.97677e-08
-1.42016e-09
4.96339e-08
-9.88555e-10
4.95522e-08
-5.72979e-10
4.95291e-08
-1.88924e-10
4.9566e-08
1.50606e-10
4.96588e-08
4.36239e-10
4.97978e-08
6.62867e-10
4.99695e-08
8.29816e-10
5.0158e-08
9.40817e-10
1.00308e-09
5.03478e-08
6.07776e-08
-1.88271e-10
6.07124e-08
-2.33128e-10
6.06395e-08
-2.82148e-10
6.056e-08
-3.34014e-10
6.04758e-08
-3.86994e-10
6.03898e-08
-4.39291e-10
6.03051e-08
-4.89294e-10
6.02252e-08
-5.35857e-10
6.01535e-08
-5.78486e-10
6.00935e-08
-6.16341e-10
6.00491e-08
-6.5135e-10
6.00245e-08
-6.82977e-10
6.00234e-08
-7.08133e-10
6.0054e-08
-7.40533e-10
6.01215e-08
-7.75475e-10
6.02314e-08
-8.06154e-10
6.03942e-08
-8.44984e-10
6.06206e-08
-9.04159e-10
6.09211e-08
-9.97766e-10
6.1304e-08
-1.14915e-09
6.17745e-08
-1.41803e-09
6.23237e-08
-1.87538e-09
6.28402e-08
-2.27716e-09
6.32685e-08
-2.63726e-09
6.35938e-08
-2.95441e-09
6.38118e-08
-3.1843e-09
6.39307e-08
-3.33814e-09
6.39606e-08
-3.40658e-09
6.3912e-08
-3.37461e-09
6.37995e-08
-3.24865e-09
6.36399e-08
-3.0413e-09
6.34498e-08
-2.76418e-09
6.3246e-08
-2.43173e-09
6.30448e-08
-2.06053e-09
6.28616e-08
-1.66732e-09
6.27096e-08
-1.26821e-09
6.25994e-08
-8.78354e-10
6.25377e-08
-5.1131e-10
6.25271e-08
-1.78264e-10
6.25657e-08
1.11976e-10
6.26477e-08
3.54287e-10
6.27636e-08
5.46904e-10
6.29023e-08
6.91188e-10
6.30517e-08
7.91357e-10
8.53595e-10
6.32012e-08
7.76577e-08
-1.28693e-10
7.75925e-08
-1.6793e-10
7.75215e-08
-2.11182e-10
7.74453e-08
-2.5781e-10
7.73652e-08
-3.06862e-10
7.72831e-08
-3.57186e-10
7.72015e-08
-4.07773e-10
7.71234e-08
-4.57725e-10
7.70516e-08
-5.0672e-10
7.69898e-08
-5.54498e-10
7.69403e-08
-6.01866e-10
7.69077e-08
-6.50339e-10
7.6898e-08
-6.98489e-10
7.69133e-08
-7.55836e-10
7.69571e-08
-8.19205e-10
7.70402e-08
-8.89312e-10
7.71723e-08
-9.77021e-10
7.73616e-08
-1.09352e-09
7.76181e-08
-1.25427e-09
7.79496e-08
-1.48063e-09
7.83601e-08
-1.82849e-09
7.88391e-08
-2.35442e-09
7.92867e-08
-2.72473e-09
7.96522e-08
-3.00281e-09
7.99196e-08
-3.22179e-09
8.0086e-08
-3.35063e-09
8.0162e-08
-3.41415e-09
8.01559e-08
-3.40055e-09
8.0078e-08
-3.29667e-09
7.99449e-08
-3.11554e-09
7.97742e-08
-2.87062e-09
7.95824e-08
-2.57238e-09
7.93855e-08
-2.23481e-09
7.91984e-08
-1.87343e-09
7.90341e-08
-1.50302e-09
7.89028e-08
-1.13696e-09
7.88116e-08
-7.87151e-10
7.87639e-08
-4.63553e-10
7.87593e-08
-1.73634e-10
7.87943e-08
7.6942e-11
7.88626e-08
2.85969e-10
7.89559e-08
4.53601e-10
7.90651e-08
5.82002e-10
7.91813e-08
6.75143e-10
7.38073e-10
7.92968e-08
9.80808e-08
-7.05733e-11
9.8019e-08
-1.06127e-10
9.79534e-08
-1.45546e-10
9.78842e-08
-1.88644e-10
9.78124e-08
-2.35057e-10
9.77394e-08
-2.84181e-10
9.76673e-08
-3.35615e-10
9.75984e-08
-3.88825e-10
9.75354e-08
-4.43761e-10
9.7482e-08
-5.01057e-10
9.74405e-08
-5.60423e-10
9.74152e-08
-6.24978e-10
9.74123e-08
-6.95628e-10
9.74295e-08
-7.72992e-10
9.74719e-08
-8.61634e-10
9.75525e-08
-9.69956e-10
9.76792e-08
-1.10367e-09
9.78561e-08
-1.2705e-09
9.80912e-08
-1.4893e-09
9.83907e-08
-1.78014e-09
9.87553e-08
-2.19306e-09
9.91717e-08
-2.77089e-09
9.9553e-08
-3.10597e-09
9.98541e-08
-3.30397e-09
1.00059e-07
-3.4269e-09
1.00172e-07
-3.463e-09
1.00204e-07
-3.44697e-09
1.00161e-07
-3.35764e-09
1.00054e-07
-3.18963e-09
9.99039e-08
-2.96501e-09
9.97265e-08
-2.69322e-09
9.95373e-08
-2.38314e-09
9.93509e-08
-2.04841e-09
9.91801e-08
-1.70269e-09
9.90351e-08
-1.35804e-09
9.89231e-08
-1.02488e-09
9.88478e-08
-7.11923e-10
9.88103e-08
-4.25977e-10
9.88083e-08
-1.71716e-10
9.88378e-08
4.74507e-11
9.88927e-08
2.31083e-10
9.89659e-08
3.80391e-10
9.90503e-08
4.97666e-10
9.91391e-08
5.86356e-10