/*--------------------------------*- C++ -*----------------------------------*\
| =========                 |                                                 |
| \\      /  F ield         | OpenFOAM: The Open Source CFD Toolbox           |
|  \\    /   O peration     | Version:  2312                                  |
|   \\  /    A nd           | Website:  www.openfoam.com                      |
|    \\/     M anipulation  |                                                 |
\*---------------------------------------------------------------------------*/
FoamFile
{
    version     2.0;
    format      ascii;
    arch        "LSB;label=32;scalar=64";
    class       surfaceScalarField;
    location    "159.75";
    object      phi;
}
// * * * * * * * * * * * * * * * * * * * * * * * * * * * * * * * * * * * * * //

dimensions      [0 3 -1 0 0 0 0];

oriented        oriented;

internalField   nonuniform List<scalar> 
9445
(
6.09429e-10
9.78613e-12
6.03842e-10
5.58761e-12
6.0087e-10
2.97228e-12
5.99694e-10
1.17603e-12
5.99888e-10
-1.94292e-13
6.01285e-10
-1.39685e-12
6.03728e-10
-2.44335e-12
6.07229e-10
-3.50121e-12
6.12065e-10
-4.83546e-12
6.18656e-10
-6.59092e-12
6.28153e-10
-9.49772e-12
6.44252e-10
-1.60989e-11
6.80096e-10
-3.58441e-11
7.8255e-10
-1.02453e-10
-2.6772e-10
1.05027e-09
2.1281e-09
4.40293e-11
2.10776e-09
2.59354e-11
2.09618e-09
1.45472e-11
2.09067e-09
6.68976e-12
2.0898e-09
6.76582e-13
2.09283e-09
-4.43245e-12
2.09928e-09
-8.89361e-12
2.10924e-09
-1.34577e-11
2.12335e-09
-1.89483e-11
2.14287e-09
-2.61089e-11
2.17075e-09
-3.73781e-11
2.21416e-09
-5.95106e-11
2.28711e-09
-1.08792e-10
2.4034e-09
-2.18746e-10
-3.90881e-10
2.52656e-09
4.19945e-09
1.10966e-10
4.15851e-09
6.68739e-11
4.13414e-09
3.8922e-11
4.12125e-09
1.95793e-11
4.11719e-09
4.73264e-12
4.1203e-09
-7.53908e-12
4.12966e-09
-1.82542e-11
4.14537e-09
-2.91686e-11
4.16817e-09
-4.17485e-11
4.19954e-09
-5.74826e-11
4.2425e-09
-8.03356e-11
4.30189e-09
-1.18902e-10
4.38062e-09
-1.87521e-10
4.46437e-09
-3.02498e-10
-4.40821e-10
4.51431e-09
6.97272e-09
2.19622e-10
6.90441e-09
1.35186e-10
6.86204e-09
8.12904e-11
6.83777e-09
4.38521e-11
6.82734e-09
1.51616e-11
6.82796e-09
-8.15769e-12
6.83811e-09
-2.84054e-11
6.85744e-09
-4.84959e-11
6.88647e-09
-7.07803e-11
6.92594e-09
-9.69487e-11
6.97711e-09
-1.31507e-10
7.03973e-09
-1.81521e-10
7.10705e-09
-2.54843e-10
7.15797e-09
-3.53424e-10
-4.51158e-10
7.16831e-09
1.06269e-08
3.78318e-10
1.05244e-08
2.37758e-10
1.04583e-08
1.47358e-10
1.04179e-08
8.42554e-11
1.03968e-08
3.62014e-11
1.03915e-08
-2.77294e-12
1.03992e-08
-3.61379e-11
1.04186e-08
-6.78638e-11
1.04494e-08
-1.01671e-10
1.04911e-08
-1.38646e-10
1.05423e-08
-1.82644e-10
1.05982e-08
-2.37459e-10
1.06481e-08
-3.04705e-10
1.0674e-08
-3.79376e-10
-4.42139e-10
1.0665e-08
1.53711e-08
5.91553e-10
1.52292e-08
3.79627e-10
1.51345e-08
2.4208e-10
1.50733e-08
1.45457e-10
1.50373e-08
7.22161e-11
1.50214e-08
1.30996e-11
1.50223e-08
-3.70001e-11
1.50372e-08
-8.27812e-11
1.50642e-08
-1.28688e-10
1.51012e-08
-1.7563e-10
1.51444e-08
-2.25802e-10
1.51869e-08
-2.79966e-10
1.52183e-08
-3.36132e-10
1.52272e-08
-3.88255e-10
-4.25356e-10
1.52104e-08
2.14407e-08
8.54709e-10
2.12599e-08
5.60439e-10
2.11348e-08
3.67181e-10
2.105e-08
2.30294e-10
2.09956e-08
1.26622e-10
2.09652e-08
4.34402e-11
2.09545e-08
-2.62744e-11
2.09596e-08
-8.78985e-11
2.09768e-08
-1.45861e-10
2.10023e-08
-2.01161e-10
2.1031e-08
-2.54485e-10
2.1056e-08
-3.0494e-10
2.10696e-08
-3.49765e-10
2.10661e-08
-3.84774e-10
-4.05199e-10
2.1046e-08
2.90886e-08
1.14685e-09
2.88798e-08
7.69202e-10
2.87297e-08
5.17256e-10
2.86232e-08
3.36774e-10
2.85503e-08
1.9961e-10
2.85037e-08
9.00413e-11
2.84782e-08
-7.77431e-13
2.8469e-08
-7.87384e-11
2.84713e-08
-1.48155e-10
2.84802e-08
-2.10045e-10
2.84902e-08
-2.64516e-10
2.84958e-08
-3.10565e-10
2.84925e-08
-3.46445e-10
2.84782e-08
-3.70441e-10
-3.81486e-10
2.84545e-08
3.85728e-08
1.42467e-09
3.83631e-08
9.78851e-10
3.82052e-08
6.75169e-10
3.80877e-08
4.54244e-10
3.80024e-08
2.84977e-10
3.79426e-08
1.49847e-10
3.79029e-08
3.88673e-11
3.78782e-08
-5.40008e-11
3.78634e-08
-1.33408e-10
3.78535e-08
-2.00153e-10
3.78439e-08
-2.54828e-10
3.78306e-08
-2.97327e-10
3.78117e-08
-3.27485e-10
3.77868e-08
-3.45606e-10
-3.52565e-10
3.77579e-08
5.01534e-08
1.62533e-09
4.99868e-08
1.14543e-09
4.98521e-08
8.09874e-10
4.97456e-08
5.60757e-10
4.96631e-08
3.67422e-10
4.96005e-08
2.12454e-10
4.95536e-08
8.57836e-11
4.95175e-08
-1.78651e-11
4.94885e-08
-1.0443e-10
4.94623e-08
-1.73996e-10
4.94358e-08
-2.28333e-10
4.9407e-08
-2.6851e-10
4.93753e-08
-2.9574e-10
4.93413e-08
-3.1161e-10
-3.17884e-10
4.93066e-08
6.41207e-08
1.68832e-09
6.40463e-08
1.21988e-09
6.39735e-08
8.82649e-10
6.39081e-08
6.26185e-10
6.38518e-08
4.23759e-10
6.3804e-08
2.60242e-10
6.3763e-08
1.26792e-10
6.37268e-08
1.82783e-11
6.3692e-08
-6.96442e-11
6.36575e-08
-1.3946e-10
6.36215e-08
-1.92353e-10
6.35837e-08
-2.30708e-10
6.35445e-08
-2.56573e-10
6.35051e-08
-2.72129e-10
-2.79424e-10
6.34666e-08
8.0874e-08
1.59323e-09
8.09189e-08
1.17496e-09
8.09355e-08
8.66077e-10
8.09361e-08
6.25543e-10
8.09276e-08
4.32311e-10
8.09131e-08
2.74713e-10
8.08941e-08
1.45805e-10
8.0871e-08
4.13557e-11
8.08432e-08
-4.18408e-11
8.08116e-08
-1.07807e-10
8.07765e-08
-1.57259e-10
8.07388e-08
-1.93037e-10
8.06998e-08
-2.17563e-10
8.06608e-08
-2.33112e-10
-2.41657e-10
8.0623e-08
1.01008e-07
1.38025e-09
1.01154e-07
1.02899e-09
1.01254e-07
7.65965e-10
1.01322e-07
5.57752e-10
1.01366e-07
3.88294e-10
1.01392e-07
2.49089e-10
1.01403e-07
1.35088e-10
1.01401e-07
4.28256e-11
1.0139e-07
-3.02531e-11
1.0137e-07
-8.81215e-11
1.01344e-07
-1.31641e-10
1.01315e-07
-1.63308e-10
1.01282e-07
-1.85516e-10
1.0125e-07
-2.00305e-10
-2.09369e-10
1.01217e-07
1.25291e-07
1.1197e-09
1.25486e-07
8.34124e-10
1.25631e-07
6.20171e-10
1.25739e-07
4.49872e-10
1.25817e-07
3.10562e-10
1.2587e-07
1.95976e-10
1.25903e-07
1.02316e-10
1.25919e-07
2.66719e-11
1.25922e-07
-3.32911e-11
1.25915e-07
-8.075e-11
1.259e-07
-1.16586e-10
1.25879e-07
-1.43057e-10
1.25856e-07
-1.6203e-10
1.25831e-07
-1.75191e-10
-1.83879e-10
1.25805e-07
1.54465e-07
8.60845e-10
1.54664e-07
6.35676e-10
1.54815e-07
4.68497e-10
1.54929e-07
3.35618e-10
1.55013e-07
2.26853e-10
1.55072e-07
1.37565e-10
1.55109e-07
6.47627e-11
1.5513e-07
6.07422e-12
1.55137e-07
-4.06438e-11
1.55134e-07
-7.76658e-11
1.55123e-07
-1.05827e-10
1.55107e-07
-1.26943e-10
1.55088e-07
-1.42474e-10
1.55066e-07
-1.53673e-10
-1.61516e-10
1.55044e-07
1.89029e-07
6.18749e-10
1.89214e-07
4.51254e-10
1.89353e-07
3.29441e-10
1.89455e-07
2.33006e-10
1.89529e-07
1.53593e-10
1.89578e-07
8.84584e-11
1.89607e-07
3.51617e-11
1.89621e-07
-8.10859e-12
1.89624e-07
-4.30331e-11
1.89617e-07
-7.06778e-11
1.89603e-07
-9.20436e-11
1.89584e-07
-1.08389e-10
1.89563e-07
-1.20763e-10
1.89539e-07
-1.30052e-10
-1.36902e-10
1.89515e-07
2.29096e-07
3.94067e-10
2.29265e-07
2.82947e-10
2.29389e-07
2.05502e-10
2.29477e-07
1.44683e-10
2.29537e-07
9.38346e-11
2.29573e-07
5.17806e-11
2.29592e-07
1.65304e-11
2.29597e-07
-1.29064e-11
2.29591e-07
-3.70048e-11
2.29576e-07
-5.62109e-11
2.29556e-07
-7.15326e-11
2.29531e-07
-8.36872e-11
2.29503e-07
-9.32174e-11
2.29474e-07
-1.00644e-10
-1.06346e-10
2.29443e-07
2.74215e-07
1.90883e-10
2.74364e-07
1.34067e-10
2.7447e-07
9.8993e-11
2.74545e-07
7.05472e-11
2.74592e-07
4.60202e-11
2.74618e-07
2.6471e-11
2.74627e-07
7.7406e-12
2.74622e-07
-8.79853e-12
2.74609e-07
-2.31671e-11
2.74586e-07
-3.38426e-11
2.74558e-07
-4.32342e-11
2.74526e-07
-5.15132e-11
2.74491e-07
-5.82289e-11
2.74454e-07
-6.35569e-11
-6.77e-11
2.74415e-07
3.22913e-07
1.63796e-11
3.23035e-07
1.23188e-11
3.23119e-07
1.49832e-11
3.23175e-07
1.44109e-11
3.23207e-07
1.37713e-11
3.23222e-07
1.1337e-11
3.23222e-07
8.06023e-12
3.23211e-07
2.70922e-12
3.2319e-07
-2.59788e-12
3.23164e-07
-7.55289e-12
3.23132e-07
-1.12002e-11
3.23094e-07
-1.36722e-11
3.23052e-07
-1.67917e-11
3.23007e-07
-1.85457e-11
-2.02415e-11
3.2296e-07
3.72046e-07
-1.33383e-10
3.72151e-07
-9.30914e-11
3.72226e-07
-5.96574e-11
3.72277e-07
-3.63832e-11
3.72304e-07
-1.35003e-11
3.72316e-07
-3.21483e-13
3.72315e-07
8.17047e-12
3.72305e-07
1.35068e-11
3.72284e-07
1.81229e-11
3.72254e-07
2.27197e-11
3.72216e-07
2.6013e-11
3.72175e-07
2.80311e-11
3.72128e-07
2.96631e-11
3.72079e-07
3.11981e-11
3.2704e-11
3.72026e-07
3.69589e-07
-2.19237e-10
3.69649e-07
-1.53768e-10
3.69692e-07
-1.02118e-10
3.69716e-07
-6.04603e-11
3.69731e-07
-2.82782e-11
3.69729e-07
1.32004e-12
3.69716e-07
2.08522e-11
3.69694e-07
3.61721e-11
3.69663e-07
4.82786e-11
3.69628e-07
5.79985e-11
3.69588e-07
6.61113e-11
3.69543e-07
7.30318e-11
3.69494e-07
7.91231e-11
3.6944e-07
8.46367e-11
8.96798e-11
3.69383e-07
3.16192e-07
-2.50689e-10
3.16215e-07
-1.76034e-10
3.16229e-07
-1.16982e-10
3.16237e-07
-6.81111e-11
3.16239e-07
-3.01472e-11
3.16237e-07
3.60207e-12
3.16229e-07
2.90279e-11
3.16215e-07
4.97187e-11
3.16197e-07
6.66891e-11
3.16174e-07
8.09612e-11
3.16146e-07
9.33309e-11
3.16115e-07
1.04315e-10
3.1608e-07
1.14226e-10
3.16041e-07
1.23288e-10
1.3165e-10
3.15999e-07
2.64777e-07
-2.41999e-10
2.64768e-07
-1.6789e-10
2.64759e-07
-1.07281e-10
2.64749e-07
-5.85648e-11
2.64736e-07
-1.68913e-11
2.64722e-07
1.74975e-11
2.64706e-07
4.53382e-11
2.64687e-07
6.86263e-11
2.64665e-07
8.83613e-11
2.64641e-07
1.05471e-10
2.64613e-07
1.20562e-10
2.64584e-07
1.34089e-10
2.64551e-07
1.46399e-10
2.64517e-07
1.57723e-10
1.68283e-10
2.6448e-07
2.17962e-07
-2.07483e-10
2.17933e-07
-1.38828e-10
2.17909e-07
-8.28323e-11
2.17886e-07
-3.61482e-11
2.17866e-07
3.29348e-12
2.17847e-07
3.62564e-11
2.17829e-07
6.39925e-11
2.1781e-07
8.77467e-11
2.1779e-07
1.0838e-10
2.17769e-07
1.26579e-10
2.17746e-07
1.42834e-10
2.17723e-07
1.57508e-10
2.17698e-07
1.70918e-10
2.17673e-07
1.83291e-10
1.94789e-10
2.17646e-07
1.76864e-07
-1.58104e-10
1.76825e-07
-9.97585e-11
1.76793e-07
-5.13591e-11
1.76768e-07
-1.04976e-11
1.76747e-07
2.43232e-11
1.76729e-07
5.40718e-11
1.76713e-07
7.96699e-11
1.76699e-07
1.01992e-10
1.76686e-07
1.21707e-10
1.76673e-07
1.39309e-10
1.7666e-07
1.55178e-10
1.76648e-07
1.69604e-10
1.76636e-07
1.82833e-10
1.76625e-07
1.95038e-10
2.06339e-10
1.76613e-07
1.41733e-07
-1.087e-10
1.41696e-07
-6.24623e-11
1.41668e-07
-2.34061e-11
1.41647e-07
1.00367e-11
1.41632e-07
3.9097e-11
1.41622e-07
6.43988e-11
1.41615e-07
8.65048e-11
1.41611e-07
1.06065e-10
1.41609e-07
1.23568e-10
1.41609e-07
1.39362e-10
1.41611e-07
1.53718e-10
1.41613e-07
1.66841e-10
1.41617e-07
1.78897e-10
1.41622e-07
1.90001e-10
2.00234e-10
1.41628e-07
1.12333e-07
-7.00314e-11
1.12306e-07
-3.53697e-11
1.12288e-07
-5.83247e-12
1.12278e-07
1.99893e-11
1.12274e-07
4.31136e-11
1.12275e-07
6.36379e-11
1.1228e-07
8.17169e-11
1.12288e-07
9.79189e-11
1.12299e-07
1.12598e-10
1.12312e-07
1.25976e-10
1.12328e-07
1.38226e-10
1.12345e-07
1.49473e-10
1.12364e-07
1.5982e-10
1.12385e-07
1.69333e-10
1.78063e-10
1.12407e-07
8.81454e-08
-4.56032e-11
8.81309e-08
-2.09274e-11
8.8125e-08
1.00172e-13
8.8126e-08
1.90411e-11
8.81323e-08
3.67434e-11
8.81431e-08
5.28622e-11
8.81578e-08
6.69934e-11
8.81759e-08
7.98299e-11
8.81969e-08
9.16121e-11
8.82204e-08
1.02464e-10
8.82462e-08
1.12478e-10
8.82739e-08
1.21724e-10
8.83035e-08
1.30255e-10
8.83347e-08
1.38104e-10
1.45298e-10
8.83675e-08
6.85105e-08
-3.32875e-11
6.85063e-08
-1.67455e-11
6.85091e-08
-2.72666e-12
6.85171e-08
1.11012e-11
6.85295e-08
2.42681e-11
6.85463e-08
3.60743e-11
6.85666e-08
4.67553e-11
6.85897e-08
5.66464e-11
6.86155e-08
6.58208e-11
6.86436e-08
7.43635e-11
6.86738e-08
8.23237e-11
6.87058e-08
8.97314e-11
6.87394e-08
9.66117e-11
6.87745e-08
1.02975e-10
1.08832e-10
6.8811e-08
5.27359e-08
-2.87795e-11
5.27374e-08
-1.81829e-11
5.27434e-08
-8.77916e-12
5.27539e-08
5.91988e-13
5.27684e-08
9.74103e-12
5.27863e-08
1.81861e-11
5.2807e-08
2.61134e-11
5.28301e-08
3.35335e-11
5.28554e-08
4.05044e-11
5.28827e-08
4.70843e-11
5.29117e-08
5.32927e-11
5.29423e-08
5.91384e-11
5.29743e-08
6.46289e-11
5.30075e-08
6.97616e-11
7.45403e-11
5.30418e-08
4.01672e-08
-2.7469e-11
4.01698e-08
-2.07625e-11
4.01758e-08
-1.47948e-11
4.01854e-08
-9.00858e-12
4.0198e-08
-2.89934e-12
4.02131e-08
3.08751e-12
4.02304e-08
8.79527e-12
4.02497e-08
1.42178e-11
4.02709e-08
1.9394e-11
4.02936e-08
2.43643e-11
4.03177e-08
2.91302e-11
4.03432e-08
3.36883e-11
4.03698e-08
3.80359e-11
4.03974e-08
4.21661e-11
4.60772e-11
4.04258e-08
3.02245e-08
-2.63413e-11
3.02259e-08
-2.2137e-11
3.02297e-08
-1.86093e-11
3.0236e-08
-1.53563e-11
3.02447e-08
-1.15258e-11
3.02551e-08
-7.38731e-12
3.02673e-08
-3.37942e-12
3.0281e-08
4.81098e-13
3.02962e-08
4.22634e-12
3.03127e-08
7.8989e-12
3.03303e-08
1.14894e-11
3.0349e-08
1.49865e-11
3.03687e-08
1.83832e-11
3.03892e-08
2.16738e-11
2.48529e-11
3.04104e-08
2.24126e-08
-2.39132e-11
2.24119e-08
-2.14706e-11
2.24128e-08
-1.95691e-11
2.24153e-08
-1.78315e-11
2.24194e-08
-1.56192e-11
2.2425e-08
-1.29608e-11
2.24318e-08
-1.02239e-11
2.24399e-08
-7.54451e-12
2.2449e-08
-4.92121e-12
2.24592e-08
-2.28468e-12
2.24703e-08
3.48951e-13
2.24824e-08
2.96282e-12
2.24952e-08
5.54985e-12
2.25087e-08
8.10959e-12
1.0634e-11
2.2523e-08
1.63172e-08
-2.00431e-11
1.63146e-08
-1.87958e-11
1.63129e-08
-1.79475e-11
1.63123e-08
-1.71524e-11
1.63126e-08
-1.59178e-11
1.63139e-08
-1.42804e-11
1.63162e-08
-1.2549e-11
1.63194e-08
-1.07843e-11
1.63235e-08
-9.01534e-12
1.63284e-08
-7.19447e-12
1.63341e-08
-5.3356e-12
1.63405e-08
-3.45855e-12
1.63477e-08
-1.56859e-12
1.63554e-08
3.42323e-13
2.2649e-12
1.63638e-08
1.15964e-08
-1.53129e-11
1.15924e-08
-1.48075e-11
1.1589e-08
-1.45465e-11
1.15861e-08
-1.42716e-11
1.15838e-08
-1.36528e-11
1.15823e-08
-1.27257e-11
1.15814e-08
-1.16845e-11
1.15812e-08
-1.05868e-11
1.15817e-08
-9.46333e-12
1.15827e-08
-8.27819e-12
1.15845e-08
-7.04748e-12
1.15868e-08
-5.77277e-12
1.15897e-08
-4.47449e-12
1.15932e-08
-3.13285e-12
-1.75674e-12
1.15972e-08
7.96964e-09
-1.04614e-11
7.96519e-09
-1.03618e-11
7.96101e-09
-1.03687e-11
7.95708e-09
-1.03416e-11
7.95351e-09
-1.00772e-11
7.95038e-09
-9.59834e-12
7.94772e-09
-9.0249e-12
7.94553e-09
-8.39862e-12
7.94381e-09
-7.74162e-12
7.94257e-09
-7.03453e-12
7.9418e-09
-6.28451e-12
7.94153e-09
-5.49499e-12
7.94173e-09
-4.67466e-12
7.9424e-09
-3.81018e-12
-2.91276e-12
7.94356e-09
5.20899e-09
-6.14685e-12
5.20485e-09
-6.22065e-12
5.20078e-09
-6.29946e-12
5.19679e-09
-6.3527e-12
5.19298e-09
-6.26739e-12
5.18944e-09
-6.05221e-12
5.18619e-09
-5.77485e-12
5.18325e-09
-5.46043e-12
5.18063e-09
-5.12293e-12
5.17835e-09
-4.75217e-12
5.17641e-09
-4.35118e-12
5.17484e-09
-3.92169e-12
5.17364e-09
-3.46894e-12
5.17281e-09
-2.98452e-12
-2.47085e-12
5.17237e-09
3.13005e-09
-2.83091e-12
3.12677e-09
-2.93425e-12
3.12346e-09
-2.98948e-12
3.12014e-09
-3.03612e-12
3.11689e-09
-3.02166e-12
3.11379e-09
-2.94543e-12
3.11085e-09
-2.83836e-12
3.1081e-09
-2.71199e-12
3.10555e-09
-2.57391e-12
3.10322e-09
-2.41897e-12
3.10112e-09
-2.24836e-12
3.09926e-09
-2.06274e-12
3.09766e-09
-1.8649e-12
3.09632e-09
-1.64952e-12
-1.41389e-12
3.09526e-09
1.58461e-09
-7.61475e-13
1.58249e-09
-8.22351e-13
1.58034e-09
-8.33496e-13
1.57815e-09
-8.47586e-13
1.57598e-09
-8.48188e-13
1.57386e-09
-8.32114e-13
1.57183e-09
-8.07556e-13
1.5699e-09
-7.77248e-13
1.56807e-09
-7.43817e-13
1.56635e-09
-7.05375e-13
1.56477e-09
-6.62325e-13
1.56332e-09
-6.14767e-13
1.56202e-09
-5.63887e-13
1.56088e-09
-5.07524e-13
-4.41073e-13
1.5599e-09
4.54167e-10
4.53345e-10
4.52511e-10
4.51664e-10
4.50815e-10
4.49983e-10
4.49176e-10
4.48398e-10
4.47655e-10
4.46949e-10
4.46287e-10
4.45672e-10
4.45108e-10
4.44601e-10
4.4416e-10
1.2553e-09
-5.24889e-10
3.19854e-10
1.54794e-09
-4.67743e-10
1.75108e-10
1.84197e-09
-3.46799e-10
5.27693e-11
2.13043e-09
-2.2836e-10
-6.00996e-11
2.41097e-09
-1.19334e-10
-1.61204e-10
2.68405e-09
-2.90755e-11
-2.44008e-10
2.95085e-09
3.98925e-11
-3.0669e-10
3.2124e-09
8.56727e-11
-3.47229e-10
3.46962e-09
1.06921e-10
-3.64136e-10
3.72322e-09
1.02892e-10
-3.56488e-10
3.97376e-09
7.34302e-11
-3.2397e-10
4.22165e-09
1.95261e-11
-2.67415e-10
4.46721e-09
-5.58357e-11
-1.89729e-10
4.7108e-09
-1.45896e-10
-9.76902e-11
4.95304e-09
-2.37784e-10
-4.46073e-12
5.19532e-09
-3.09261e-10
6.69792e-11
5.4403e-09
-3.24172e-10
7.91906e-11
5.69292e-09
-2.30465e-10
-2.21496e-11
5.9608e-09
4.28539e-11
-3.10738e-10
6.25515e-09
5.77386e-10
-8.71734e-10
6.58874e-09
1.42692e-09
-1.76051e-09
6.9703e-09
2.6098e-09
-2.99137e-09
7.33589e-09
3.30499e-09
-3.67057e-09
7.64938e-09
3.30731e-09
-3.6208e-09
7.90291e-09
2.91336e-09
-3.16689e-09
8.09461e-09
2.26983e-09
-2.46154e-09
8.22614e-09
1.4875e-09
-1.61903e-09
8.29982e-09
6.46274e-10
-7.19953e-10
8.31749e-09
-1.95655e-10
1.77976e-10
8.28049e-09
-9.91651e-10
1.02866e-09
8.1901e-09
-1.70145e-09
1.79183e-09
8.04819e-09
-2.29062e-09
2.43253e-09
7.85745e-09
-2.73215e-09
2.92289e-09
7.6214e-09
-3.00811e-09
3.24416e-09
7.34405e-09
-3.11015e-09
3.38751e-09
7.02941e-09
-3.03851e-09
3.35315e-09
6.6811e-09
-2.79955e-09
3.14785e-09
6.30223e-09
-2.40216e-09
2.78103e-09
5.89567e-09
-1.85318e-09
2.25975e-09
5.46415e-09
-1.15341e-09
1.58493e-09
5.00843e-09
-3.00845e-10
7.56562e-10
4.52179e-09
6.88915e-10
-2.02269e-10
3.98954e-09
1.72161e-09
-1.18936e-09
3.41979e-09
2.56633e-09
-1.99659e-09
2.56915e-09
3.08676e-09
-2.23612e-09
2.6076e-09
-6.05924e-10
2.77972e-09
-6.39863e-10
3.01341e-09
-5.80494e-10
3.27393e-09
-4.88879e-10
3.54596e-09
-3.91362e-10
3.82147e-09
-3.04583e-10
4.09692e-09
-2.35563e-10
4.37083e-09
-1.88234e-10
4.6426e-09
-1.64851e-10
4.91205e-09
-1.6656e-10
5.17917e-09
-1.93689e-10
5.444e-09
-2.45303e-10
5.70658e-09
-3.18412e-10
5.96708e-09
-4.06397e-10
6.22602e-09
-4.9672e-10
6.48473e-09
-5.67972e-10
6.74595e-09
-5.85399e-10
7.01492e-09
-4.99426e-10
7.29981e-09
-2.42037e-10
7.61278e-09
2.64412e-10
7.96811e-09
1.07159e-09
8.37623e-09
2.20169e-09
8.77009e-09
2.91113e-09
9.11114e-09
2.96627e-09
9.39017e-09
2.63432e-09
9.6042e-09
2.05581e-09
9.75412e-09
1.33758e-09
9.84183e-09
5.58559e-10
9.86897e-09
-2.22797e-10
9.8369e-09
-9.59575e-10
9.74717e-09
-1.61173e-09
9.60215e-09
-2.1456e-09
9.40527e-09
-2.53528e-09
9.16107e-09
-2.76391e-09
8.87491e-09
-2.82399e-09
8.5526e-09
-2.7162e-09
8.20025e-09
-2.4472e-09
7.82449e-09
-2.02641e-09
7.43378e-09
-1.46247e-09
7.04047e-09
-7.60112e-10
6.66342e-09
7.62114e-11
6.32816e-09
1.02417e-09
6.0694e-09
1.98037e-09
5.94042e-09
2.69531e-09
2.64126e-09
5.8683e-09
4.52869e-09
-6.20301e-10
4.60424e-09
-7.15412e-10
4.75103e-09
-7.27282e-10
4.9525e-09
-6.90356e-10
5.18719e-09
-6.26049e-10
5.44148e-09
-5.58877e-10
5.70675e-09
-5.00832e-10
5.97796e-09
-4.59438e-10
6.25206e-09
-4.38953e-10
6.52722e-09
-4.41722e-10
6.80231e-09
-4.68779e-10
7.07658e-09
-5.19575e-10
7.34952e-09
-5.91351e-10
7.62089e-09
-6.77765e-10
7.89091e-09
-7.66741e-10
8.16076e-09
-8.37817e-10
8.43313e-09
-8.57777e-10
8.71347e-09
-7.79763e-10
9.01046e-09
-5.39027e-10
9.33719e-09
-6.23124e-11
9.70954e-09
6.99235e-10
1.01398e-08
1.77141e-09
1.05588e-08
2.49212e-09
1.09258e-08
2.59933e-09
1.12298e-08
2.33027e-09
1.14665e-08
1.8191e-09
1.16358e-08
1.16833e-09
1.17388e-08
4.55523e-10
1.17769e-08
-2.60927e-10
1.17515e-08
-9.34158e-10
1.16644e-08
-1.52465e-09
1.15187e-08
-1.99982e-09
1.13186e-08
-2.33519e-09
1.107e-08
-2.51532e-09
1.07799e-08
-2.53393e-09
1.04565e-08
-2.39273e-09
1.01087e-08
-2.09942e-09
9.74753e-09
-1.66524e-09
9.3876e-09
-1.10254e-09
9.05091e-09
-4.23421e-10
8.77067e-09
3.56454e-10
8.59289e-09
1.20195e-09
8.56104e-09
2.01221e-09
8.67598e-09
2.58038e-09
2.55626e-09
8.76099e-09
7.14624e-09
-5.98232e-10
7.15593e-09
-7.25103e-10
7.21928e-09
-7.9063e-10
7.34173e-09
-8.12801e-10
7.51405e-09
-7.98373e-10
7.72142e-09
-7.66244e-10
7.95282e-09
-7.32236e-10
8.20053e-09
-7.07142e-10
8.45891e-09
-6.97338e-10
8.72408e-09
-7.06887e-10
8.99332e-09
-7.38025e-10
9.26472e-09
-7.90972e-10
9.53687e-09
-8.63507e-10
9.80888e-09
-9.49767e-10
1.00804e-08
-1.03831e-09
1.03524e-08
-1.10979e-09
1.06273e-08
-1.1327e-09
1.09107e-08
-1.06315e-09
1.12117e-08
-8.39989e-10
1.15442e-08
-3.94779e-10
1.19257e-08
3.17665e-10
1.23707e-08
1.32642e-09
1.28091e-08
2.05373e-09
1.31982e-08
2.21025e-09
1.35251e-08
2.0033e-09
1.37837e-08
1.56058e-09
1.39723e-08
9.79714e-10
1.40913e-08
3.3649e-10
1.41416e-08
-3.11221e-10
1.41245e-08
-9.17031e-10
1.40422e-08
-1.44235e-09
1.38984e-08
-1.85608e-09
1.36988e-08
-2.13551e-09
1.34505e-08
-2.26702e-09
1.31625e-08
-2.24601e-09
1.28456e-08
-2.07578e-09
1.2512e-08
-1.76589e-09
1.21771e-08
-1.33029e-09
1.18608e-08
-7.86212e-10
1.15913e-08
-1.53977e-10
1.1408e-08
5.3978e-10
1.13586e-08
1.25132e-09
1.14757e-08
1.89517e-09
1.1729e-08
2.32706e-09
2.36291e-09
1.19223e-08
1.06272e-08
-5.60448e-10
1.05956e-08
-6.93508e-10
1.05971e-08
-7.92045e-10
1.06426e-08
-8.58305e-10
1.07367e-08
-8.92483e-10
1.08767e-08
-9.06251e-10
1.10506e-08
-9.062e-10
1.12512e-08
-9.07744e-10
1.14715e-08
-9.17555e-10
1.17058e-08
-9.41223e-10
1.195e-08
-9.82248e-10
1.22009e-08
-1.04182e-09
1.24558e-08
-1.11849e-09
1.27132e-08
-1.20709e-09
1.29719e-08
-1.297e-09
1.32322e-08
-1.37019e-09
1.34966e-08
-1.397e-09
1.37703e-08
-1.33687e-09
1.40628e-08
-1.13254e-09
1.43889e-08
-7.20809e-10
1.47678e-08
-6.12201e-11
1.52159e-08
8.78286e-10
1.56642e-08
1.60538e-09
1.60687e-08
1.80581e-09
1.6414e-08
1.65799e-09
1.66915e-08
1.28311e-09
1.6898e-08
7.73232e-10
1.70326e-08
2.01893e-10
1.70955e-08
-3.74127e-10
1.70879e-08
-9.09459e-10
1.70125e-08
-1.36695e-09
1.68738e-08
-1.71743e-09
1.66787e-08
-1.94039e-09
1.64361e-08
-2.02444e-09
1.61572e-08
-1.9671e-09
1.58552e-08
-1.77375e-09
1.55456e-08
-1.4563e-09
1.52472e-08
-1.03188e-09
1.49832e-08
-5.22245e-10
1.47837e-08
4.55532e-11
1.46847e-08
6.38807e-10
1.47237e-08
1.21228e-09
1.49165e-08
1.7024e-09
1.52207e-08
2.02284e-09
2.08924e-09
1.54944e-08
1.51694e-08
-5.19403e-10
1.51182e-08
-6.42389e-10
1.50794e-08
-7.5325e-10
1.50669e-08
-8.45765e-10
1.50895e-08
-9.15086e-10
1.51521e-08
-9.68887e-10
1.5253e-08
-1.00705e-09
1.53863e-08
-1.04106e-09
1.5546e-08
-1.0772e-09
1.57265e-08
-1.12175e-09
1.5923e-08
-1.17872e-09
1.61312e-08
-1.25005e-09
1.63477e-08
-1.33504e-09
1.657e-08
-1.42931e-09
1.67961e-08
-1.52315e-09
1.7026e-08
-1.60006e-09
1.72613e-08
-1.63235e-09
1.75075e-08
-1.58309e-09
1.77743e-08
-1.39925e-09
1.80766e-08
-1.02319e-09
1.84359e-08
-4.2052e-10
1.88706e-08
4.43644e-10
1.93149e-08
1.16108e-09
1.9724e-08
1.39665e-09
2.00798e-08
1.30221e-09
2.03706e-08
9.92315e-10
2.05912e-08
5.52679e-10
2.07391e-08
5.39919e-11
2.08136e-08
-4.48717e-10
2.0816e-08
-9.11764e-10
2.0749e-08
-1.30002e-09
2.06184e-08
-1.58676e-09
2.04321e-08
-1.75412e-09
2.0201e-08
-1.79332e-09
1.99382e-08
-1.70434e-09
1.96594e-08
-1.49493e-09
1.93825e-08
-1.17944e-09
1.91284e-08
-7.77789e-10
1.89211e-08
-3.14907e-10
1.87872e-08
1.79507e-10
1.87548e-08
6.71148e-10
1.88463e-08
1.1208e-09
1.90635e-08
1.48515e-09
1.93672e-08
1.71916e-09
1.79071e-09
1.96658e-08
2.10068e-08
-4.80217e-10
2.09518e-08
-5.8739e-10
2.08935e-08
-6.94994e-10
2.08438e-08
-7.96011e-10
2.08143e-08
-8.85587e-10
2.08105e-08
-9.65103e-10
2.08373e-08
-1.03385e-09
2.08941e-08
-1.09788e-09
2.09784e-08
-1.16148e-09
2.10863e-08
-1.22968e-09
2.12138e-08
-1.3062e-09
2.13568e-08
-1.39304e-09
2.15117e-08
-1.48988e-09
2.16753e-08
-1.59291e-09
2.18454e-08
-1.69329e-09
2.20214e-08
-1.7761e-09
2.22048e-08
-1.81567e-09
2.24007e-08
-1.77904e-09
2.2619e-08
-1.61758e-09
2.28753e-08
-1.27945e-09
2.31927e-08
-7.37925e-10
2.35915e-08
4.47988e-11
2.40125e-08
7.40132e-10
2.4411e-08
9.98154e-10
2.47651e-08
9.4807e-10
2.50599e-08
6.97572e-10
2.52875e-08
3.25054e-10
2.54438e-08
-1.02263e-10
2.55269e-08
-5.31891e-10
2.55378e-08
-9.22596e-10
2.54797e-08
-1.24194e-09
2.53591e-08
-1.46616e-09
2.51854e-08
-1.58047e-09
2.49711e-08
-1.579e-09
2.47311e-08
-1.46436e-09
2.44828e-08
-1.24659e-09
2.42454e-08
-9.42086e-10
2.40401e-08
-5.72435e-10
2.38886e-08
-1.63469e-10
2.38123e-08
2.55847e-10
2.38287e-08
6.54697e-10
2.39469e-08
1.00269e-09
2.41594e-08
1.27259e-09
2.44349e-08
1.44371e-09
1.5077e-09
2.47179e-08
2.84168e-08
-4.42555e-10
2.83635e-08
-5.3406e-10
2.82998e-08
-6.31299e-10
2.82331e-08
-7.2938e-10
2.8172e-08
-8.24463e-10
2.81223e-08
-9.15397e-10
2.80902e-08
-1.00176e-09
2.80782e-08
-1.08581e-09
2.8087e-08
-1.17028e-09
2.81156e-08
-1.25837e-09
2.81622e-08
-1.35271e-09
2.82238e-08
-1.45471e-09
2.82978e-08
-1.56384e-09
2.83814e-08
-1.67649e-09
2.84725e-08
-1.78442e-09
2.85706e-08
-1.87423e-09
2.8677e-08
-1.92209e-09
2.87973e-08
-1.8993e-09
2.89414e-08
-1.76171e-09
2.91252e-08
-1.46325e-09
2.9374e-08
-9.86708e-10
2.97097e-08
-2.9091e-10
3.00828e-08
3.67033e-10
3.04504e-08
6.30624e-10
3.07861e-08
6.12355e-10
3.1071e-08
4.12659e-10
3.12947e-08
1.01346e-10
3.14508e-08
-2.58413e-10
3.15365e-08
-6.17555e-10
3.1552e-08
-9.38133e-10
3.15012e-08
-1.19108e-09
3.13911e-08
-1.35613e-09
3.12325e-08
-1.42187e-09
3.1039e-08
-1.38551e-09
3.08269e-08
-1.25217e-09
3.06141e-08
-1.03382e-09
3.042e-08
-7.47971e-10
3.02639e-08
-4.1635e-10
3.01639e-08
-6.34395e-11
3.01345e-08
2.85172e-10
3.01845e-08
6.04769e-10
3.03133e-08
8.73838e-10
3.05094e-08
1.07648e-09
3.07486e-08
1.20456e-09
1.25914e-09
3.09971e-08
3.7719e-08
-4.03647e-10
3.76666e-08
-4.81673e-10
3.76023e-08
-5.67019e-10
3.75297e-08
-6.56791e-10
3.74536e-08
-7.483e-10
3.73783e-08
-8.40097e-10
3.73082e-08
-9.31729e-10
3.72464e-08
-1.02398e-09
3.71947e-08
-1.11853e-09
3.71536e-08
-1.2173e-09
3.71229e-08
-1.32199e-09
3.71014e-08
-1.43323e-09
3.70876e-08
-1.55007e-09
3.708e-08
-1.66885e-09
3.70772e-08
-1.78166e-09
3.70795e-08
-1.87654e-09
3.70886e-08
-1.9312e-09
3.71108e-08
-1.92144e-09
3.71566e-08
-1.8075e-09
3.7242e-08
-1.54869e-09
3.73946e-08
-1.13934e-09
3.76379e-08
-5.34193e-10
3.79356e-08
6.93078e-11
3.82482e-08
3.1811e-10
3.85444e-08
3.161e-10
3.88014e-08
1.55707e-10
3.9006e-08
-1.03251e-10
3.91496e-08
-4.02082e-10
3.92282e-08
-6.96085e-10
3.92415e-08
-9.51457e-10
3.91935e-08
-1.14314e-09
3.90922e-08
-1.25475e-09
3.89488e-08
-1.27849e-09
3.87778e-08
-1.21454e-09
3.85958e-08
-1.07017e-09
3.84205e-08
-8.58502e-10
3.82696e-08
-5.97065e-10
3.81594e-08
-3.06176e-10
3.81033e-08
-7.26393e-12
3.81096e-08
2.7878e-10
3.81807e-08
5.3373e-10
3.83111e-08
7.43445e-10
3.84882e-08
8.99323e-10
3.86937e-08
9.99134e-10
1.04675e-09
3.89061e-08
4.92645e-08
-3.61586e-10
4.92111e-08
-4.28248e-10
4.91463e-08
-5.02225e-10
4.90715e-08
-5.81966e-10
4.89889e-08
-6.65748e-10
4.89012e-08
-7.52344e-10
4.88107e-08
-8.41218e-10
4.87193e-08
-9.32593e-10
4.86282e-08
-1.02743e-09
4.85378e-08
-1.12691e-09
4.84479e-08
-1.23212e-09
4.83579e-08
-1.34322e-09
4.82669e-08
-1.45903e-09
4.8174e-08
-1.57598e-09
4.80788e-08
-1.68649e-09
4.79825e-08
-1.78024e-09
4.78875e-08
-1.83617e-09
4.7801e-08
-1.83495e-09
4.77346e-08
-1.74104e-09
4.77044e-08
-1.51854e-09
4.774e-08
-1.17496e-09
4.78664e-08
-6.60552e-10
4.80637e-08
-1.28054e-10
4.82973e-08
8.45396e-11
4.85313e-08
8.21338e-11
4.87395e-08
-5.2473e-11
4.89067e-08
-2.70533e-10
4.90223e-08
-5.17675e-10
4.90809e-08
-7.54673e-10
4.90821e-08
-9.52617e-10
4.90299e-08
-1.09092e-09
4.89325e-08
-1.15736e-09
4.88017e-08
-1.14767e-09
4.86518e-08
-1.06468e-09
4.84988e-08
-9.17198e-10
4.83589e-08
-7.18601e-10
4.82472e-08
-4.853e-10
4.81761e-08
-2.35083e-10
4.8154e-08
1.47523e-11
4.81852e-08
2.47648e-10
4.82675e-08
4.51417e-10
4.83938e-08
6.17128e-10
4.85526e-08
7.40498e-10
4.873e-08
8.21804e-10
8.65111e-10
4.89116e-08
6.34223e-08
-3.17285e-10
6.33682e-08
-3.74127e-10
6.33036e-08
-4.37622e-10
6.32287e-08
-5.07046e-10
6.31443e-08
-5.81386e-10
6.30517e-08
-6.59722e-10
6.29519e-08
-7.41489e-10
6.28459e-08
-8.26569e-10
6.27338e-08
-9.1535e-10
6.26153e-08
-1.00837e-09
6.24894e-08
-1.10624e-09
6.23549e-08
-1.20868e-09
6.22103e-08
-1.31448e-09
6.20546e-08
-1.4203e-09
6.18873e-08
-1.51912e-09
6.17096e-08
-1.60259e-09
6.15243e-08
-1.65087e-09
6.13393e-08
-1.6499e-09
6.11665e-08
-1.56826e-09
6.10227e-08
-1.37475e-09
6.09375e-08
-1.08979e-09
6.09378e-08
-6.60815e-10
6.10221e-08
-2.12339e-10
6.11603e-08
-5.36472e-11
6.13124e-08
-7.00108e-11
6.14525e-08
-1.92562e-10
6.15649e-08
-3.82922e-10
6.16364e-08
-5.8916e-10
6.16612e-08
-7.79449e-10
6.16387e-08
-9.30193e-10
6.15733e-08
-1.02545e-09
6.1473e-08
-1.05711e-09
6.13495e-08
-1.02414e-09
6.12162e-08
-9.31454e-10
6.10876e-08
-7.88592e-10
6.09773e-08
-6.08307e-10
6.08971e-08
-4.05057e-10
6.08556e-08
-1.93543e-10
6.08572e-08
1.30959e-11
6.09027e-08
2.0214e-10
6.09883e-08
3.65841e-10
6.11066e-08
4.9885e-10
6.12479e-08
5.99172e-10
6.14018e-08
6.67934e-10
7.08562e-10
6.15583e-08
8.05802e-08
-2.74518e-10
8.05288e-08
-3.22705e-10
8.04678e-08
-3.7661e-10
8.03967e-08
-4.35964e-10
8.03156e-08
-5.00233e-10
8.02246e-08
-5.68785e-10
8.01243e-08
-6.41105e-10
8.00145e-08
-7.16847e-10
7.98952e-08
-7.95979e-10
7.97652e-08
-8.78435e-10
7.96233e-08
-9.64325e-10
7.94675e-08
-1.05285e-09
7.92957e-08
-1.14271e-09
7.91061e-08
-1.23069e-09
7.88974e-08
-1.31039e-09
7.86703e-08
-1.37547e-09
7.84268e-08
-1.40744e-09
7.81746e-08
-1.39764e-09
7.79247e-08
-1.31839e-09
7.76946e-08
-1.14465e-09
7.75104e-08
-9.0557e-10
7.74001e-08
-5.50523e-10
7.73828e-08
-1.95059e-10
7.7424e-08
-9.48448e-11
7.74859e-08
-1.31891e-10
7.75487e-08
-2.55361e-10
7.75956e-08
-4.29802e-10
7.76118e-08
-6.05429e-10
7.75924e-08
-7.59991e-10
7.75372e-08
-8.75003e-10
7.74506e-08
-9.38909e-10
7.73409e-08
-9.47335e-10
7.72186e-08
-9.01889e-10
7.70959e-08
-8.08785e-10
7.69849e-08
-6.77504e-10
7.6896e-08
-5.19476e-10
7.68377e-08
-3.46778e-10
7.68152e-08
-1.70979e-10
7.68303e-08
-1.98932e-12
7.6881e-08
1.51455e-10
7.69633e-08
2.83544e-10
7.70704e-08
3.91739e-10
7.71945e-08
4.75052e-10
7.73277e-08
5.34684e-10
5.7326e-10
7.7463e-08
1.01181e-07
-2.37683e-10
1.01136e-07
-2.78213e-10
1.01083e-07
-3.23433e-10
1.0102e-07
-3.73292e-10
1.00948e-07
-4.27529e-10
1.00864e-07
-4.85724e-10
1.00771e-07
-5.47442e-10
1.00666e-07
-6.12211e-10
1.0055e-07
-6.7973e-10
1.00421e-07
-7.49451e-10
1.00278e-07
-8.21071e-10
1.00118e-07
-8.93237e-10
9.99399e-08
-9.64554e-10
9.9741e-08
-1.03174e-09
9.95196e-08
-1.08905e-09
9.92758e-08
-1.13169e-09
9.90112e-08
-1.14277e-09
9.87323e-08
-1.11873e-09
9.8448e-08
-1.03409e-09
9.81768e-08
-8.73509e-10
9.79383e-08
-6.67035e-10
9.77557e-08
-3.67932e-10
9.76639e-08
-1.03254e-10
9.76326e-08
-6.35992e-11
9.76251e-08
-1.24392e-10
9.76192e-08
-2.49388e-10
9.7602e-08
-4.12665e-10
9.75628e-08
-5.66157e-10
9.74976e-08
-6.94818e-10
9.74076e-08
-7.85027e-10
9.72977e-08
-8.29022e-10
9.71758e-08
-8.25372e-10
9.70513e-08
-7.77477e-10
9.69346e-08