/*--------------------------------*- C++ -*----------------------------------*\
| =========                 |                                                 |
| \\      /  F ield         | OpenFOAM: The Open Source CFD Toolbox           |
|  \\    /   O peration     | Version:  2312                                  |
|   \\  /    A nd           | Website:  www.openfoam.com                      |
|    \\/     M anipulation  |                                                 |
\*---------------------------------------------------------------------------*/
FoamFile
{
    version     2.0;
    format      ascii;
    arch        "LSB;label=32;scalar=64";
    class       surfaceScalarField;
    location    "166.25";
    object      phi;
}
// * * * * * * * * * * * * * * * * * * * * * * * * * * * * * * * * * * * * * //

dimensions      [0 3 -1 0 0 0 0];

oriented        oriented;

internalField   nonuniform List<scalar> 
9445
(
6.10292e-10
1.51217e-11
6.00229e-10
1.00627e-11
5.93561e-10
6.66851e-12
5.89343e-10
4.21732e-12
5.87016e-10
2.32776e-12
5.86255e-10
7.60673e-13
5.86908e-10
-6.52686e-13
5.89004e-10
-2.09683e-12
5.92523e-10
-3.51834e-12
5.97917e-10
-5.3942e-12
6.06345e-10
-8.42821e-12
6.21419e-10
-1.50736e-11
6.55968e-10
-3.45489e-11
7.55655e-10
-9.96876e-11
-2.62293e-10
1.01795e-09
2.12563e-09
6.74182e-11
2.09035e-09
4.53454e-11
2.06654e-09
3.04851e-11
2.051e-09
1.97477e-11
2.04185e-09
1.14792e-11
2.03793e-09
4.68347e-12
2.03865e-09
-1.36996e-12
2.04387e-09
-7.32091e-12
2.0537e-09
-1.33418e-11
2.06941e-09
-2.11091e-11
2.09393e-09
-3.29506e-11
2.13425e-09
-5.53891e-11
2.20418e-09
-1.0448e-10
2.31744e-09
-2.12947e-10
-3.83399e-10
2.43855e-09
4.18714e-09
1.68956e-10
4.11787e-09
1.14609e-10
4.07045e-09
7.7913e-11
4.03881e-09
5.13873e-11
4.01926e-09
3.10203e-11
4.00954e-09
1.44058e-11
4.00836e-09
-1.91866e-13
4.0152e-09
-1.4155e-11
4.03004e-09
-2.81796e-11
4.05451e-09
-4.55834e-11
4.09142e-09
-6.98614e-11
4.14547e-09
-1.09443e-10
4.2196e-09
-1.78605e-10
4.29993e-09
-2.93278e-10
-4.31376e-10
4.34791e-09
6.9429e-09
3.33371e-10
6.82936e-09
2.28145e-10
6.75046e-09
1.5682e-10
6.69662e-09
1.0522e-10
6.66193e-09
6.5711e-11
6.64257e-09
3.37701e-11
6.63632e-09
6.0529e-12
6.64193e-09
-1.97571e-11
6.65864e-09
-4.48913e-11
6.68758e-09
-7.4526e-11
6.72965e-09
-1.11933e-10
6.78436e-09
-1.64149e-10
6.84502e-09
-2.39266e-10
6.89089e-09
-3.39154e-10
-4.38113e-10
6.89763e-09
1.0572e-08
5.74428e-10
1.04031e-08
3.97033e-10
1.02838e-08
2.76105e-10
1.02006e-08
1.88454e-10
1.01448e-08
1.21484e-10
1.01108e-08
6.7818e-11
1.00949e-08
2.19665e-11
1.00947e-08
-1.9558e-11
1.01085e-08
-5.87668e-11
1.01356e-08
-1.01566e-10
1.01741e-08
-1.50446e-10
1.02191e-08
-2.09175e-10
1.02597e-08
-2.79831e-10
1.0278e-08
-3.57496e-10
-4.22947e-10
1.02629e-08
1.5286e-08
9.02805e-10
1.50517e-08
6.31251e-10
1.48833e-08
4.44557e-10
1.4763e-08
3.08726e-10
1.46795e-08
2.05051e-10
1.46247e-08
1.22567e-10
1.45933e-08
5.3334e-11
1.45814e-08
-7.61328e-12
1.4586e-08
-6.33972e-11
1.46037e-08
-1.19255e-10
1.46302e-08
-1.76935e-10
1.46583e-08
-2.37297e-10
1.46773e-08
-2.98822e-10
1.46755e-08
-3.55668e-10
-3.96916e-10
1.46495e-08
2.1326e-08
1.32026e-09
2.10213e-08
9.35968e-10
2.07975e-08
6.68414e-10
2.06337e-08
4.72461e-10
2.0516e-08
3.22755e-10
2.04343e-08
2.04246e-10
2.03812e-08
1.06439e-10
2.0351e-08
2.26162e-11
2.0339e-08
-5.13814e-11
2.03397e-08
-1.19937e-10
2.0347e-08
-1.84261e-10
2.03535e-08
-2.43829e-10
2.03511e-08
-2.9638e-10
2.03334e-08
-3.38031e-10
-3.64166e-10
2.03007e-08
2.89549e-08
1.81103e-09
2.85853e-08
1.30556e-09
2.83065e-08
9.47151e-10
2.80972e-08
6.81829e-10
2.79416e-08
4.78322e-10
2.78282e-08
3.17593e-10
2.7748e-08
1.8672e-10
2.76934e-08
7.72201e-11
2.7658e-08
-1.6011e-11
2.76351e-08
-9.70539e-11
2.7618e-08
-1.67152e-10
2.76002e-08
-2.26048e-10
2.75765e-08
-2.72618e-10
2.7544e-08
-3.05597e-10
-3.24216e-10
2.75041e-08
3.84429e-08
2.33302e-09
3.80321e-08
1.71638e-09
3.77115e-08
1.26776e-09
3.7463e-08
9.30287e-10
3.7272e-08
6.69343e-10
3.71266e-08
4.63016e-10
3.70168e-08
2.96492e-10
3.69342e-08
1.59849e-10
3.68712e-08
4.69229e-11
3.68208e-08
-4.65905e-11
3.67766e-08
-1.22935e-10
3.67336e-08
-1.83059e-10
3.66886e-08
-2.27693e-10
3.66408e-08
-2.57791e-10
-2.74702e-10
3.65913e-08
5.00596e-08
2.81728e-09
4.96531e-08
2.12288e-09
4.93207e-08
1.60022e-09
4.90527e-08
1.19826e-09
4.88386e-08
8.83426e-10
4.86685e-08
6.33192e-10
4.8533e-08
4.31988e-10
4.84238e-08
2.69025e-10
4.83336e-08
1.37117e-10
4.82558e-08
3.12042e-11
4.81853e-08
-5.24208e-11
4.81185e-08
-1.16291e-10
4.80536e-08
-1.62818e-10
4.79904e-08
-1.94514e-10
-2.13821e-10
4.79295e-08
6.40938e-08
3.18822e-09
6.37501e-08
2.46655e-09
6.34496e-08
1.90075e-09
6.31943e-08
1.45355e-09
6.29805e-08
1.09721e-09
6.28023e-08
8.11421e-10
6.26529e-08
5.81366e-10
6.25257e-08
3.96176e-10
6.24149e-08
2.47936e-10
6.23156e-08
1.30547e-10
6.2224e-08
3.91416e-11
6.21381e-08
-3.03572e-11
6.20567e-08
-8.15011e-11
6.19799e-08
-1.17706e-10
-1.41937e-10
6.19081e-08
8.09264e-08
3.40521e-09
8.06894e-08
2.70356e-09
8.04605e-08
2.12959e-09
8.02514e-08
1.66265e-09
8.00652e-08
1.28347e-09
7.99006e-08
9.75934e-10
7.97548e-08
7.27199e-10
7.9624e-08
5.27013e-10
7.95047e-08
3.67168e-10
7.93944e-08
2.40867e-10
7.92911e-08
1.42415e-10
7.91939e-08
6.68717e-11
7.91024e-08
1.00174e-11
7.90166e-08
-3.19352e-11
-6.21318e-11
7.89368e-08
1.01127e-07
3.48952e-09
1.00996e-07
2.83463e-09
1.00849e-07
2.27648e-09
1.007e-07
1.81119e-09
1.00557e-07
1.42693e-09
1.00421e-07
1.11199e-09
1.00292e-07
8.5572e-10
1.0017e-07
6.48714e-10
1.00055e-07
4.82872e-10
9.99444e-08
3.51163e-10
9.98393e-08
2.47576e-10
9.97393e-08
1.66879e-10
9.96446e-08
1.0467e-10
9.95556e-08
5.71108e-11
2.10948e-11
9.94723e-08
1.25439e-07
3.49427e-09
1.25378e-07
2.89539e-09
1.2529e-07
2.36485e-09
1.25188e-07
1.91285e-09
1.2508e-07
1.53469e-09
1.2497e-07
1.22222e-09
1.2486e-07
9.66439e-10
1.2475e-07
7.58683e-10
1.24641e-07
5.91142e-10
1.24536e-07
4.56904e-10
1.24433e-07
3.50041e-10
1.24335e-07
2.65407e-10
1.24241e-07
1.98704e-10
1.24151e-07
1.46243e-10
1.05067e-10
1.24067e-07
1.54589e-07
3.45535e-09
1.54572e-07
2.91285e-09
1.54515e-07
2.42128e-09
1.54439e-07
1.98938e-09
1.5435e-07
1.62393e-09
1.54252e-07
1.3195e-09
1.5415e-07
1.06861e-09
1.54045e-07
8.63332e-10
1.5394e-07
6.96333e-10
1.53836e-07
5.61084e-10
1.53734e-07
4.51982e-10
1.53635e-07
3.64162e-10
1.53541e-07
2.93574e-10
1.5345e-07
2.36764e-10
1.90969e-10
1.53364e-07
1.8906e-07
3.38539e-09
1.89078e-07
2.89471e-09
1.89051e-07
2.44805e-09
1.88994e-07
2.04673e-09
1.88917e-07
1.7006e-09
1.88827e-07
1.40932e-09
1.88729e-07
1.16692e-09
1.88626e-07
9.66585e-10
1.8852e-07
8.01801e-10
1.88415e-07
6.66701e-10
1.88311e-07
5.56193e-10
1.88209e-07
4.65827e-10
1.88111e-07
3.9188e-10
1.88016e-07
3.31183e-10
2.81184e-10
1.87926e-07
2.28982e-07
3.28649e-09
2.29031e-07
2.84482e-09
2.29036e-07
2.44359e-09
2.29003e-07
2.07993e-09
2.28943e-07
1.76005e-09
2.28865e-07
1.48764e-09
2.28774e-07
1.25785e-09
2.28675e-07
1.0655e-09
2.28572e-07
9.05235e-10
2.28466e-07
7.72061e-10
2.28361e-07
6.61536e-10
2.28257e-07
5.69727e-10
2.28156e-07
4.93314e-10
2.28057e-07
4.29459e-10
3.75874e-10
2.27963e-07
2.73929e-07
3.14778e-09
2.74008e-07
2.76552e-09
2.74042e-07
2.40991e-09
2.74035e-07
2.08683e-09
2.73997e-07
1.79871e-09
2.73934e-07
1.54973e-09
2.73856e-07
1.33658e-09
2.73766e-07
1.15551e-09
2.73668e-07
1.0025e-09
2.73567e-07
8.7353e-10
2.73464e-07
7.64859e-10
2.7336e-07
6.7313e-10
2.73258e-07
5.95477e-10
2.73158e-07
5.29434e-10
4.73052e-10
2.73061e-07
3.22398e-07
2.94866e-09
3.22527e-07
2.63601e-09
3.22599e-07
2.33754e-09
3.22627e-07
2.05922e-09
3.22618e-07
1.80762e-09
3.22582e-07
1.58631e-09
3.22524e-07
1.39412e-09
3.22451e-07
1.22833e-09
3.22368e-07
1.08605e-09
3.22277e-07
9.64191e-10
3.22182e-07
8.59821e-10
3.22085e-07
7.70211e-10
3.21987e-07
6.92998e-10
3.21891e-07
6.26114e-10
5.67858e-10
3.21796e-07
3.71223e-07
2.67862e-09
3.71418e-07
2.44166e-09
3.71552e-07
2.20356e-09
3.71634e-07
1.97657e-09
3.71675e-07
1.76736e-09
3.71681e-07
1.57946e-09
3.71662e-07
1.41327e-09
3.71623e-07
1.26749e-09
3.71569e-07
1.14019e-09
3.71504e-07
1.02918e-09
3.71432e-07
9.32303e-10
3.71354e-07
8.47496e-10
3.71274e-07
7.72937e-10
3.71193e-07
7.06996e-10
6.48406e-10
3.71113e-07
3.68562e-07
2.41217e-09
3.68769e-07
2.23484e-09
3.68924e-07
2.04818e-09
3.69035e-07
1.86611e-09
3.69107e-07
1.69569e-09
3.69146e-07
1.53988e-09
3.6916e-07
1.39955e-09
3.69153e-07
1.27424e-09
3.6913e-07
1.1628e-09
3.69096e-07
1.06376e-09
3.69053e-07
9.75566e-10
3.69003e-07
8.96732e-10
3.6895e-07
8.25892e-10
3.68896e-07
7.61812e-10
7.03591e-10
3.6884e-07
3.15431e-07
2.12175e-09
3.15672e-07
1.99287e-09
3.15869e-07
1.85185e-09
3.16024e-07
1.71072e-09
3.16144e-07
1.57629e-09
3.16232e-07
1.45136e-09
3.16295e-07
1.33683e-09
3.16336e-07
1.23266e-09
3.16361e-07
1.13825e-09
3.16372e-07
1.05271e-09
3.16373e-07
9.74997e-10
3.16365e-07
9.04076e-10
3.16352e-07
8.38972e-10
3.16335e-07
7.78791e-10
7.22769e-10
3.16316e-07
2.6387e-07
1.87281e-09
2.64087e-07
1.77557e-09
2.64273e-07
1.66662e-09
2.64428e-07
1.55578e-09
2.64555e-07
1.44849e-09
2.64659e-07
1.34726e-09
2.64743e-07
1.25303e-09
2.6481e-07
1.1659e-09
2.64863e-07
1.08553e-09
2.64904e-07
1.01134e-09
2.64936e-07
9.42643e-10
2.64962e-07
8.78692e-10
2.64982e-07
8.18795e-10
2.64998e-07
7.62309e-10
7.08668e-10
2.65013e-07
2.17098e-07
1.64086e-09
2.17308e-07
1.56635e-09
2.17492e-07
1.4819e-09
2.17653e-07
1.39483e-09
2.17792e-07
1.30934e-09
2.17912e-07
1.22751e-09
2.18015e-07
1.15017e-09
2.18103e-07
1.07747e-09
2.1818e-07
1.00921e-09
2.18246e-07
9.45016e-10
2.18304e-07
8.84418e-10
2.18356e-07
8.2692e-10
2.18403e-07
7.72039e-10
2.18446e-07
7.19326e-10
6.68399e-10
2.18486e-07
1.76143e-07
1.41571e-09
1.76351e-07
1.35818e-09
1.7654e-07
1.29283e-09
1.7671e-07
1.22479e-09
1.76863e-07
1.15715e-09
1.76999e-07
1.09146e-09
1.7712e-07
1.02837e-09
1.7723e-07
9.68055e-10
1.77329e-07
9.10397e-10
1.77419e-07
8.55165e-10
1.77501e-07
8.02061e-10
1.77577e-07
7.50758e-10
1.77648e-07
7.00942e-10
1.77715e-07
6.5232e-10
6.04638e-10
1.77779e-07
1.41234e-07
1.19468e-09
1.41442e-07
1.15055e-09
1.41634e-07
1.10046e-09
1.41811e-07
1.0479e-09
1.41973e-07
9.94984e-10
1.42122e-07
9.42797e-10
1.42259e-07
8.91841e-10
1.42384e-07
8.42267e-10
1.42501e-07
7.94037e-10
1.42609e-07
7.47016e-10
1.4271e-07
7.01024e-10
1.42805e-07
6.55867e-10
1.42894e-07
6.11359e-10
1.42979e-07
5.6733e-10
5.23631e-10
1.4306e-07
1.12079e-07
9.81112e-10
1.12281e-07
9.47975e-10
1.12472e-07
9.10319e-10
1.12649e-07
8.70468e-10
1.12814e-07
8.29776e-10
1.12968e-07
7.88974e-10
1.13111e-07
7.48441e-10
1.13245e-07
7.08319e-10
1.13371e-07
6.6861e-10
1.13489e-07
6.29253e-10
1.13599e-07
5.90159e-10
1.13704e-07
5.5123e-10
1.13803e-07
5.1238e-10
1.13897e-07
4.73529e-10
4.34615e-10
1.13986e-07
8.80964e-08
7.81704e-10
8.82867e-08
7.57648e-10
8.84669e-08
7.30163e-10
8.86366e-08
7.00743e-10
8.87962e-08
6.70186e-10
8.89462e-08
6.3899e-10
8.90872e-08
6.07443e-10
8.92198e-08
5.75672e-10
8.93447e-08
5.43708e-10
8.94624e-08
5.11543e-10
8.95734e-08
4.79154e-10
8.96782e-08
4.46515e-10
8.97769e-08
4.13608e-10
8.987e-08
3.80419e-10
3.4695e-10
8.99577e-08
6.85939e-08
6.03287e-10
6.87649e-08
5.86579e-10
6.89278e-08
5.67292e-10
6.90822e-08
5.46302e-10
6.92284e-08
5.24042e-10
6.93665e-08
5.00864e-10
6.9497e-08
4.76989e-10
6.96201e-08
4.52527e-10
6.97363e-08
4.27528e-10
6.98458e-08
4.02021e-10
6.99489e-08
3.76025e-10
7.00459e-08
3.49561e-10
7.01368e-08
3.22656e-10
7.02219e-08
2.95341e-10
2.67654e-10
7.03012e-08
5.28777e-08
4.50525e-10
5.30247e-08
4.39541e-10
5.31653e-08
4.26663e-10
5.32993e-08
4.12294e-10
5.34267e-08
3.96661e-10
5.35475e-08
3.80029e-10
5.3662e-08
3.62561e-10
5.37701e-08
3.44351e-10
5.38722e-08
3.25458e-10
5.39683e-08
3.05931e-10
5.40585e-08
2.85814e-10
5.41429e-08
2.65153e-10
5.42216e-08
2.44002e-10
5.42945e-08
2.2241e-10
2.0044e-10
5.43617e-08
4.03118e-08
3.25133e-10
4.04329e-08
3.1839e-10
4.05493e-08
3.10309e-10
4.06606e-08
3.0094e-10
4.07668e-08
2.90426e-10
4.08679e-08
2.78967e-10
4.09638e-08
2.6668e-10
4.10545e-08
2.53641e-10
4.114e-08
2.39911e-10
4.12204e-08
2.25544e-10
4.12957e-08
2.10594e-10
4.13657e-08
1.95117e-10
4.14305e-08
1.79173e-10
4.14901e-08
1.62821e-10
1.46128e-10
4.15444e-08
3.03395e-08
2.26198e-10
3.04355e-08
2.22415e-10
3.05281e-08
2.17728e-10
3.06171e-08
2.1196e-10
3.07023e-08
2.05242e-10
3.07835e-08
1.97713e-10
3.08607e-08
1.89453e-10
3.09339e-08
1.80523e-10
3.10028e-08
1.70975e-10
3.10675e-08
1.60862e-10
3.11278e-08
1.50235e-10
3.11838e-08
1.3915e-10
3.12353e-08
1.27662e-10
3.12823e-08
1.15828e-10
1.03712e-10
3.13247e-08
2.24857e-08
1.51021e-10
2.2559e-08
1.49157e-10
2.263e-08
1.4671e-10
2.26985e-08
1.434e-10
2.27644e-08
1.39365e-10
2.28274e-08
1.34688e-10
2.28875e-08
1.29422e-10
2.29444e-08
1.23612e-10
2.29981e-08
1.17299e-10
2.30484e-08
1.10529e-10
2.30953e-08
1.03342e-10
2.31387e-08
9.57869e-11
2.31784e-08
8.79101e-11
2.32145e-08
7.97623e-11
7.13938e-11
2.32468e-08
1.63498e-08
9.59976e-11
1.64037e-08
9.52597e-11
1.64562e-08
9.4168e-11
1.65072e-08
9.24355e-11
1.65564e-08
9.01945e-11
1.66036e-08
8.74836e-11
1.66487e-08
8.43346e-11
1.66915e-08
8.07795e-11
1.67319e-08
7.68482e-11
1.67699e-08
7.25738e-11
1.68052e-08
6.79879e-11
1.68379e-08
6.31274e-11
1.68678e-08
5.80272e-11
1.68948e-08
5.27282e-11
4.72688e-11
1.69189e-08
1.15972e-08
5.73054e-11
1.16353e-08
5.71347e-11
1.16727e-08
5.67749e-11
1.17091e-08
5.59815e-11
1.17445e-08
5.48626e-11
1.17785e-08
5.34266e-11
1.18112e-08
5.16921e-11
1.18423e-08
4.96792e-11
1.18717e-08
4.74074e-11
1.18994e-08
4.48992e-11
1.19252e-08
4.21762e-11
1.19491e-08
3.92641e-11
1.19709e-08
3.61866e-11
1.19907e-08
3.29741e-11
2.96548e-11
1.20083e-08
7.9504e-09
3.13463e-11
7.97615e-09
3.13889e-11
8.00156e-09
3.13599e-11
8.02647e-09
3.10719e-11
8.05074e-09
3.05966e-11
8.07424e-09
2.99274e-11
8.09686e-09
2.90746e-11
8.11848e-09
2.80495e-11
8.13903e-09
2.68634e-11
8.1584e-09
2.55302e-11
8.17651e-09
2.40626e-11
8.1933e-09
2.24772e-11
8.2087e-09
2.0788e-11
8.22266e-09
1.90157e-11
1.7181e-11
8.23513e-09
5.18114e-09
1.49784e-11
5.19748e-09
1.50448e-11
5.21373e-09
1.51179e-11
5.22974e-09
1.50617e-11
5.24542e-09
1.49114e-11
5.26069e-09
1.4658e-11
5.27546e-09
1.43066e-11
5.28965e-09
1.38625e-11
5.30318e-09
1.33316e-11
5.31599e-09
1.27212e-11
5.32801e-09
1.20379e-11
5.3392e-09
1.12906e-11
5.3495e-09
1.04867e-11
5.35888e-09
9.63852e-12
8.76146e-12
5.3673e-09
3.10301e-09
5.59943e-12
3.11244e-09
5.62029e-12
3.12187e-09
5.68739e-12
3.13122e-09
5.70681e-12
3.14045e-09
5.68767e-12
3.14948e-09
5.62503e-12
3.15827e-09
5.52099e-12
3.16675e-09
5.37781e-12
3.17489e-09
5.19779e-12
3.18262e-09
4.98403e-12
3.18992e-09
4.73913e-12
3.19675e-09
4.46711e-12
3.20306e-09
4.17053e-12
3.20884e-09
3.85581e-12
3.53399e-12
3.21407e-09
1.56518e-09
1.13762e-12
1.56967e-09
1.12176e-12
1.57421e-09
1.15136e-12
1.57875e-09
1.17151e-12
1.58325e-09
1.18139e-12
1.5877e-09
1.18029e-12
1.59205e-09
1.16897e-12
1.59628e-09
1.14813e-12
1.60036e-09
1.11835e-12
1.60426e-09
1.08046e-12
1.60797e-09
1.03501e-12
1.61145e-09
9.83083e-13
1.6147e-09
9.25075e-13
1.61769e-09
8.63021e-13
8.03497e-13
1.62042e-09
4.46507e-10
4.47629e-10
4.4878e-10
4.49952e-10
4.51133e-10
4.52314e-10
4.53483e-10
4.54631e-10
4.55749e-10
4.5683e-10
4.57865e-10
4.58848e-10
4.59773e-10
4.60636e-10
4.61439e-10
1.21417e-09
-5.24995e-10
3.2877e-10
1.49252e-09
-4.83758e-10
2.05409e-10
1.77038e-09
-3.79032e-10
1.0118e-10
2.04154e-09
-2.72739e-10
1.57248e-12
2.30411e-09
-1.70196e-10
-9.23742e-11
2.55915e-09
-7.70753e-11
-1.77966e-10
2.80834e-09
7.04685e-12
-2.56236e-10
3.05324e-09
8.39351e-11
-3.28837e-10
3.2952e-09
1.56165e-10
-3.98122e-10
3.53532e-09
2.27018e-10
-4.67133e-10
3.77447e-09
3.00689e-10
-5.39842e-10
4.01339e-09
3.82867e-10
-6.2179e-10
4.25281e-09
4.81549e-10
-7.20971e-10
4.49368e-09
6.08273e-10
-8.49141e-10
4.73746e-09
7.79433e-10
-1.02321e-09
4.98659e-09
1.017e-09
-1.26613e-09
5.24481e-09
1.35045e-09
-1.60866e-09
5.51786e-09
1.81479e-09
-2.08785e-09
5.81425e-09
2.43922e-09
-2.73561e-09
6.14481e-09
3.24392e-09
-3.57447e-09
6.51987e-09
4.20334e-09
-4.57841e-09
6.94509e-09
5.1875e-09
-5.61273e-09
7.34521e-09
5.00406e-09
-5.40417e-09
7.68086e-09
4.03406e-09
-4.36971e-09
7.94624e-09
2.81012e-09
-3.07551e-09
8.14157e-09
1.50109e-09
-1.69642e-09
8.27012e-09
2.21205e-10
-3.49752e-10
8.3359e-09
-9.59427e-10
8.93648e-10
8.34256e-09
-1.9991e-09
1.99244e-09
8.29328e-09
-2.87267e-09
2.92194e-09
8.19116e-09
-3.5642e-09
3.66631e-09
8.03954e-09
-4.0641e-09
4.21572e-09
7.84212e-09
-4.36859e-09
4.56601e-09
7.60294e-09
-4.47987e-09
4.71904e-09
7.32608e-09
-4.40563e-09
4.68249e-09
7.01529e-09
-4.15792e-09
4.4687e-09
6.67371e-09
-3.75102e-09
4.0926e-09
6.30375e-09
-3.19859e-09
3.56855e-09
5.90736e-09
-2.51006e-09
2.90646e-09
5.4859e-09
-1.68742e-09
2.10887e-09
5.03839e-09
-7.28703e-10
1.17622e-09
4.55608e-09
3.52483e-10
1.29827e-10
4.0229e-09
1.46805e-09
-9.34876e-10
3.44722e-09
2.39675e-09
-1.82107e-09
2.49228e-09
3.10974e-09
-2.1548e-09
2.51471e-09
-6.01164e-10
2.67556e-09
-6.44609e-10
2.89352e-09
-5.96991e-10
3.13603e-09
-5.15243e-10
3.38865e-09
-4.22813e-10
3.6441e-09
-3.32528e-10
3.8997e-09
-2.48555e-10
4.15464e-09
-1.71002e-10
4.40896e-09
-9.8157e-11
4.66304e-09
-2.70645e-11
4.91738e-09
4.63531e-11
5.1725e-09
1.27741e-10
5.42908e-09
2.24969e-10
5.68808e-09
3.49272e-10
5.95107e-09
5.16442e-10
6.22071e-09
7.47372e-10
6.50103e-09
1.07013e-09
6.79826e-09
1.51757e-09
7.12161e-09
2.11586e-09
7.48289e-09
2.88264e-09
7.89342e-09
3.7928e-09
8.35987e-09
4.72105e-09
8.80075e-09
4.56318e-09
9.17306e-09
3.66175e-09
9.47007e-09
2.51311e-09
9.69136e-09
1.2798e-09
9.83995e-09
7.26157e-11
9.91989e-09
-1.03936e-09
9.93503e-09
-2.01425e-09
9.88898e-09
-2.82661e-09
9.78538e-09
-3.4606e-09
9.62829e-09
-3.90701e-09
9.42236e-09
-4.16267e-09
9.17277e-09
-4.23027e-09
8.88502e-09
-4.11788e-09
8.56471e-09
-3.83761e-09
8.21749e-09
-3.40379e-09
7.84936e-09
-2.83047e-09
7.46795e-09
-2.12865e-09
7.08452e-09
-1.30399e-09
6.71631e-09
-3.6049e-10
6.38762e-09
6.81169e-10
6.13244e-09
1.72323e-09
6.00608e-09
2.52312e-09
2.5572e-09
5.94116e-09
4.35855e-09
-6.11804e-10
4.42553e-09
-7.11595e-10
4.55848e-09
-7.29934e-10
4.74266e-09
-6.99426e-10
4.95768e-09
-6.37836e-10
5.19077e-09
-5.65618e-10
5.43453e-09
-4.92311e-10
5.68483e-09
-4.213e-10
5.93951e-09
-3.52837e-10
6.19755e-09
-2.85111e-10
6.45859e-09
-2.14683e-10
6.72264e-09
-1.36308e-10
6.99007e-09
-4.2469e-11
7.26175e-09
7.75959e-11
7.53924e-09
2.38952e-10
7.82536e-09
4.61249e-10
8.12446e-09
7.71028e-10
8.44315e-09
1.19888e-09
8.79141e-09
1.7676e-09
9.18203e-09
2.49203e-09
9.62732e-09
3.34751e-09
1.0135e-08
4.21336e-09
1.06175e-08
4.08073e-09
1.10279e-08
3.25134e-09
1.13583e-08
2.18266e-09
1.16076e-08
1.03057e-09
1.17782e-08
-9.7986e-11
1.18741e-08
-1.13533e-09
1.18995e-08
-2.03966e-09
1.18584e-08
-2.7855e-09
1.17551e-08
-3.3573e-09
1.15946e-08
-3.74649e-09
1.13827e-08
-3.95073e-09
1.11259e-08
-3.97352e-09
1.08316e-08
-3.8236e-09
1.05077e-08
-3.51372e-09
1.01629e-08
-3.05899e-09
9.80754e-09
-2.47508e-09
9.45548e-09
-1.77659e-09
9.12779e-09
-9.76291e-10
8.85696e-09
-8.9664e-11
8.68791e-09
8.50216e-10
8.66504e-09
1.74611e-09
8.79216e-09
2.39599e-09
2.45701e-09
8.89235e-09
6.87104e-09
-5.85217e-10
6.8732e-09
-7.13752e-10
6.9248e-09
-7.81535e-10
7.03112e-09
-8.0574e-10
7.18451e-09
-7.91231e-10
7.37038e-09
-7.51485e-10
7.57943e-09
-7.01365e-10
7.80493e-09
-6.46796e-10
8.0424e-09
-5.90312e-10
8.28909e-09
-5.31793e-10
8.54336e-09
-4.6896e-10
8.80443e-09
-3.97373e-10
9.07214e-09
-3.10181e-10
9.34707e-09
-1.97328e-10
9.63067e-09
-4.46546e-11
9.92589e-09
1.66036e-10
1.02373e-08
4.59612e-10
1.05719e-08
8.64281e-10
1.09404e-08
1.39909e-09
1.13566e-08
2.07581e-09
1.18338e-08
2.87033e-09
1.23807e-08
3.66642e-09
1.2904e-08
3.55751e-09
1.33527e-08
2.80265e-09
1.37174e-08
1.81792e-09
1.39958e-08
7.52175e-10
1.41898e-08
-2.92025e-10
1.43033e-08
-1.24883e-09
1.43406e-08
-2.07691e-09
1.43061e-08
-2.75106e-09
1.42051e-08
-3.2563e-09
1.40437e-08
-3.58502e-09
1.38289e-08
-3.73596e-09
1.35692e-08
-3.71378e-09
1.32739e-08
-3.52829e-09
1.29535e-08
-3.19336e-09
1.26202e-08
-2.72567e-09
1.22886e-08
-2.14349e-09
1.19782e-08
-1.46615e-09
1.17165e-08
-7.14567e-10
1.15422e-08
8.4594e-11
1.15029e-08
8.89461e-10
1.16321e-08
1.61693e-09
1.1902e-08
2.12617e-09
2.23755e-09
1.21214e-08
1.02185e-08
-5.40894e-10
1.01779e-08
-6.73069e-10
1.01677e-08
-7.71371e-10
1.01986e-08
-8.36643e-10
1.02745e-08
-8.67154e-10
1.03931e-08
-8.70039e-10
1.05446e-08
-8.52861e-10
1.07223e-08
-8.24536e-10
1.09207e-08
-7.88744e-10
1.11358e-08
-7.46825e-10
1.13646e-08
-6.9781e-10
1.16056e-08
-6.38326e-10
1.18579e-08
-5.62465e-10
1.21217e-08
-4.61122e-10
1.23982e-08
-3.21245e-10
1.26906e-08
-1.26347e-10
1.30036e-08
1.46604e-10
1.33445e-08
5.2337e-10
1.37249e-08
1.01874e-09
1.41595e-08
1.6412e-09
1.46625e-08
2.36737e-09
1.52436e-08
3.0853e-09
1.58042e-08
2.99691e-09
1.62893e-08
2.31755e-09
1.66876e-08
1.41966e-09
1.69951e-08
4.44635e-10
1.7213e-08
-5.0997e-10
1.73449e-08
-1.38071e-09
1.73952e-08
-2.1272e-09
1.7369e-08
-2.7249e-09
1.72725e-08
-3.15978e-09
1.7113e-08
-3.42549e-09
1.68992e-08
-3.52222e-09
1.66415e-08
-3.45607e-09
1.63515e-08
-3.2383e-09
1.60426e-08
-2.88438e-09
1.57299e-08
-2.41303e-09
1.54319e-08
-1.84549e-09
1.51714e-08
-1.20564e-09
1.49777e-08
-5.20838e-10
1.48868e-08
1.75495e-10
1.49361e-08
8.40095e-10
1.51424e-08
1.4107e-09
1.54653e-08
1.80325e-09
1.93456e-09
1.57683e-08
1.45989e-08
-4.9031e-10
1.45366e-08
-6.10847e-10
1.44843e-08
-7.19058e-10
1.44554e-08
-8.07741e-10
1.44594e-08
-8.7112e-10
1.45015e-08
-9.12137e-10
1.45796e-08
-9.3101e-10
1.46897e-08
-9.3456e-10
1.48271e-08
-9.26202e-10
1.4988e-08
-9.07744e-10
1.51693e-08
-8.79059e-10
1.53687e-08
-8.37713e-10
1.5585e-08
-7.78811e-10
1.58183e-08
-6.94345e-10
1.60695e-08
-5.72502e-10
1.6342e-08
-3.98796e-10
1.66407e-08
-1.52166e-10
1.69734e-08
1.90722e-10
1.73524e-08
6.39764e-10
1.77936e-08
1.19997e-09
1.83118e-08
1.84911e-09
1.89178e-08
2.47931e-09
1.95088e-08
2.40592e-09
2.00255e-08
1.80089e-09
2.0454e-08
9.91131e-10
2.07886e-08
1.10024e-10
2.10293e-08
-7.50625e-10
2.11791e-08
-1.53051e-09
2.12426e-08
-2.19077e-09
2.12258e-08
-2.70805e-09
2.11357e-08
-3.06966e-09
2.09811e-08
-3.27088e-09
2.07725e-08
-3.31365e-09
2.05223e-08
-3.20585e-09
2.02444e-08
-2.96044e-09
1.99547e-08
-2.59471e-09
1.96711e-08
-2.12944e-09
1.94141e-08
-1.58848e-09
1.92073e-08
-9.98769e-10
1.90771e-08
-3.90681e-10
1.90512e-08
2.01359e-10
1.91522e-08
7.3912e-10
1.93826e-08
1.18034e-09
1.97044e-08
1.48141e-09
1.6109e-09
2.00281e-08
2.02485e-08
-4.38141e-10
2.01791e-08
-5.41441e-10
2.01045e-08
-6.44479e-10
2.00363e-08
-7.39468e-10
1.99857e-08
-8.20524e-10
1.99596e-08
-8.86039e-10
1.99629e-08
-9.34329e-10
1.9996e-08
-9.67639e-10
2.00576e-08
-9.87827e-10
2.01458e-08
-9.9594e-10
2.02585e-08
-9.918e-10
2.03942e-08
-9.73376e-10
2.05519e-08
-9.36541e-10
2.07319e-08
-8.74308e-10
2.09355e-08
-7.76071e-10
2.11663e-08
-6.29612e-10
2.143e-08
-4.15899e-10
2.17346e-08
-1.13839e-10
2.20936e-08
2.80751e-10
2.25243e-08
7.69298e-10
2.30419e-08
1.33146e-09
2.3658e-08
1.86322e-09
2.42676e-08
1.79635e-09
2.48069e-08
1.26159e-09
2.52589e-08
5.39064e-10
2.56155e-08
-2.46584e-10
2.58752e-08
-1.01029e-09
2.60404e-08
-1.69571e-09
2.61159e-08
-2.26628e-09
2.61082e-08
-2.70036e-09
2.60257e-08
-2.9871e-09
2.58786e-08
-3.12376e-09
2.56792e-08
-3.11432e-09
2.5442e-08
-2.96858e-09
2.51828e-08
-2.70132e-09
2.49196e-08
-2.33151e-09
2.46717e-08
-1.88155e-09
2.446e-08
-1.37672e-09
2.4306e-08
-8.44793e-10
2.42308e-08
-3.15485e-10
2.42517e-08
1.80455e-10
2.43776e-08
6.13204e-10
2.46015e-08
9.56431e-10
2.48924e-08
1.19051e-09
1.30795e-09
2.51954e-08
2.74497e-08
-3.83818e-10
2.73783e-08
-4.69991e-10
2.72947e-08
-5.60906e-10
2.72063e-08
-6.50999e-10
2.71212e-08
-7.3548e-10
2.70465e-08
-8.11317e-10
2.69885e-08
-8.76349e-10
2.6951e-08
-9.30144e-10
2.69361e-08
-9.72869e-10
2.69445e-08
-1.0044e-09
2.69767e-08
-1.02394e-09
2.70326e-08
-1.0293e-09
2.71128e-08
-1.01673e-09
2.72185e-08
-9.80035e-10
2.7352e-08
-9.09578e-10
2.7518e-08
-7.95652e-10
2.77233e-08
-6.21182e-10
2.79764e-08
-3.66869e-10
2.82924e-08
-3.53086e-11
2.86904e-08
3.71345e-10
2.91859e-08
8.359e-10
2.97913e-08
1.25786e-09
3.04019e-08
1.18572e-09
3.09498e-08
7.13675e-10
3.14142e-08
7.47132e-11
3.17838e-08
-6.16175e-10
3.20553e-08
-1.28184e-09
3.22306e-08
-1.87095e-09
3.23143e-08
-2.35006e-09
3.23139e-08
-2.69991e-09
3.22388e-08
-2.91197e-09
3.21008e-08
-2.98579e-09
3.1914e-08
-2.92753e-09
3.16944e-08
-2.74896e-09
3.14596e-08
-2.4665e-09
3.12283e-08
-2.10029e-09
3.10202e-08
-1.6734e-09
3.08544e-08
-1.21097e-09
3.07489e-08
-7.39275e-10
3.0718e-08
-2.84582e-10
3.077e-08
1.28496e-10
3.09043e-08
4.78867e-10
3.11092e-08
7.51557e-10
3.13603e-08
9.39397e-10
1.0444e-09
3.16239e-08
3.65315e-08
-3.24032e-10
3.64569e-08
-3.95337e-10
3.63687e-08
-4.7276e-10
3.62706e-08
-5.52843e-10
3.61672e-08
-6.32088e-10
3.60636e-08
-7.07695e-10
3.59648e-08
-7.77549e-10
3.5875e-08
-8.40378e-10
3.57976e-08
-8.95464e-10
3.57352e-08
-9.42004e-10
3.569e-08
-9.78761e-10
3.56641e-08
-1.00334e-09
3.56596e-08
-1.01232e-09
3.56798e-08
-1.00021e-09
3.57283e-08
-9.58056e-10
3.58116e-08
-8.78994e-10
3.59382e-08
-7.4779e-10
3.61176e-08
-5.46184e-10
3.63672e-08
-2.84917e-10
3.67082e-08
3.03404e-11
3.71565e-08
3.87533e-10
3.77253e-08
6.89104e-10
3.8314e-08
5.97012e-10
3.88512e-08
1.76468e-10
3.93115e-08
-3.85586e-10
3.96805e-08
-9.85205e-10
3.99529e-08
-1.55415e-09
4.01293e-08
-2.0474e-09
4.02148e-08
-2.43554e-09
4.02173e-08
-2.70241e-09
4.01475e-08
-2.84222e-09
4.00188e-08
-2.85702e-09
3.98464e-08
-2.75517e-09
3.96476e-08
-2.55019e-09
3.94408e-08
-2.25963e-09
3.92445e-08
-1.90403e-09
3.9077e-08
-1.50589e-09
3.89546e-08
-1.0886e-09
3.88905e-08
-6.75202e-10
3.8893e-08
-2.86998e-10
3.89635e-08
5.79449e-11
3.90968e-08
3.45549e-10
3.92798e-08
5.68561e-10
3.94936e-08
7.25603e-10
8.21529e-10
3.97165e-08
4.78612e-08
-2.55772e-10
4.77804e-08
-3.14534e-10
4.7687e-08
-3.793e-10
4.75822e-08
-4.48046e-10
4.74684e-08
-5.18371e-10
4.73488e-08
-5.88036e-10
4.72264e-08
-6.55166e-10
4.71044e-08
-7.18362e-10
4.69855e-08
-7.76616e-10
4.68725e-08
-8.28931e-10
4.67678e-08
-8.74107e-10
4.66744e-08
-9.09889e-10
4.65955e-08
-9.33461e-10
4.65357e-08
-9.40381e-10
4.64999e-08
-9.22316e-10
4.64967e-08
-8.75797e-10
4.65364e-08
-7.87501e-10
4.66296e-08
-6.39353e-10
4.67966e-08
-4.51863e-10
4.70609e-08
-2.34046e-10
4.74388e-08
9.64378e-12
4.79444e-08
1.8356e-10
4.84855e-08
5.58717e-11
4.89888e-08
-3.26831e-10
4.94247e-08
-8.21482e-10
4.97754e-08
-1.33593e-09
5.00335e-08
-1.81226e-09
5.0199e-08
-2.21285e-09
5.02767e-08
-2.51326e-09
5.02754e-08
-2.7011e-09
5.02069e-08
-2.77368e-09
5.00855e-08
-2.73561e-09
4.99275e-08
-2.5972e-09
4.97506e-08
-2.37328e-09
4.95727e-08
-2.08179e-09
4.94114e-08
-1.74265e-09
4.92821e-08
-1.37663e-09
4.91976e-08
-1.00414e-09
4.91666e-08
-6.44113e-10
4.91923e-08
-3.1272e-10
4.9272e-08
-2.17504e-11
4.9399e-08
2.18497e-10
4.9561e-08
4.06625e-10
4.97434e-08
5.43195e-10
6.33358e-10
4.99315e-08
6.18307e-08
-1.78428e-10
6.17427e-08
-2.26496e-10
6.16433e-08
-2.799e-10
6.15328e-08
-3.37535e-10
6.14122e-08
-3.97845e-10
6.12834e-08
-4.59161e-10
6.11481e-08
-5.19914e-10
6.10085e-08
-5.78772e-10
6.08665e-08
-6.34642e-10
6.07241e-08
-6.86476e-10
6.05832e-08
-7.33261e-10
6.04464e-08
-7.73067e-10
6.03168e-08
-8.03853e-10
6.0199e-08
-8.22609e-10
6.00985e-08
-8.21748e-10
6.00244e-08
-8.01674e-10
5.99882e-08
-7.51395e-10
6.00017e-08
-6.52773e-10
6.00867e-08
-5.36932e-10
6.0269e-08
-4.16301e-10
6.05635e-08
-2.84911e-10
6.09872e-08
-2.40049e-10
6.14585e-08
-4.1546e-10
6.19058e-08
-7.74185e-10
6.22961e-08
-1.2117e-09
6.26091e-08
-1.64897e-09
6.28361e-08
-2.03924e-09
6.29764e-08
-2.35319e-09
6.30352e-08
-2.57202e-09
6.30217e-08
-2.68762e-09
6.29487e-08
-2.70065e-09
6.28311e-08
-2.61806e-09
6.26856e-08
-2.45168e-09
6.25293e-08
-2.21693e-09
6.23788e-08
-1.93131e-09
6.22493e-08
-1.61314e-09
6.21532e-08
-1.28052e-09
6.20993e-08
-9.503e-10
6.20923e-08
-6.37096e-10
6.21321e-08
-3.52534e-10
6.22151e-08
-1.04785e-10
6.23326e-08
1.01031e-10
6.24752e-08
2.63996e-10
6.26318e-08
3.86675e-10
4.7333e-10
6.27918e-08
7.88528e-08
-9.44424e-11
7.87597e-08
-1.3336e-10
7.86566e-08
-1.76765e-10
7.85431e-08
-2.24116e-10
7.84198e-08
-2.74483e-10
7.82873e-08
-3.2672e-10
7.8147e-08
-3.79618e-10
7.80003e-08
-4.32043e-10
7.78486e-08
-4.82946e-10
7.76935e-08
-5.3132e-10
7.75365e-08
-5.76273e-10
7.73797e-08
-6.16273e-10
7.72257e-08
-6.49852e-10
7.70785e-08
-6.75414e-10
7.69433e-08
-6.86508e-10
7.68282e-08
-6.86657e-10
7.67444e-08
-6.67557e-10
7.67056e-08
-6.13932e-10
7.67318e-08
-5.63164e-10
7.68453e-08
-5.2981e-10
7.70629e-08
-5.02555e-10
7.7403e-08
-5.80144e-10
7.77958e-08
-8.08234e-10
7.81733e-08
-1.15166e-09
7.85019e-08
-1.54028e-09
7.87612e-08
-1.9083e-09
7.89424e-08
-2.22042e-09
7.9045e-08
-2.45586e-09
7.90747e-08
-2.60173e-09
7.90415e-08
-2.65438e-09
7.89586e-08
-2.61773e-09
7.88412e-08
-2.50065e-09
7.87053e-08
-2.31579e-09
7.85667e-08
-2.07837e-09
7.844e-08
-1.80457e-09
7.83372e-08
-1.5104e-09
7.82676e-08
-1.21084e-09
7.82364e-08
-9.19118e-10
7.82454e-08
-6.46098e-10
7.82928e-08
-3.99983e-10
7.8374e-08
-1.85987e-10
7.848e-08
-4.95929e-12
7.86053e-08
1.38756e-10
7.87401e-08
2.51847e-10
3.36282e-10
7.88771e-08
9.93859e-08
-7.9784e-12
9.92917e-08
-3.92321e-11
9.91891e-08
-7.41297e-11
9.90774e-08
-1.12445e-10
9.89566e-08
-1.5368e-10
9.8827e-08
-1.97135e-10
9.86894e-08
-2.41975e-10
9.85447e-08
-2.87365e-10
9.83942e-08
-3.32413e-10
9.82392e-08
-3.76357e-10
9.80813e-08
-4.18336e-10
9.79224e-08
-4.5742e-10
9.77652e-08
-4.92585e-10
9.76127e-08
-5.22967e-10
9.74709e-08
-5.44688e-10
9.73462e-08
-5.61986e-10
9.72464e-08
-5.67739e-10
9.71926e-08
-5.60078e-10
9.71986e-08
-5.69244e-10
9.72684e-08
-5.99615e-10
9.74302e-08
-6.64282e-10
9.77084e-08
-8.58409e-10
9.80324e-08
-1.13216e-09
9.83408e-08
-1.46009e-09
9.86034e-08
-1.80287e-09
9.88022e-08
-2.10711e-09
9.89304e-08
-2.34862e-09
9.89891e-08
-2.51456e-09
9.89849e-08
-2.5975e-09
9.89285e-08
-2.59799e-09
9.88335e-08
-2.52271e-09
9.87146e-08
-2.38174e-09
9.85866e-08
-2.18778e-09
9.84632e-08
-1.95502e-09
9.83563e-08
-1.6977e-09
9.8275e-08
-1.4291e-09
9.82253e-08
-1.16109e-09
9.82098e-08
-9.03641e-10
9.82283e-08
-6.64606e-10
9.82778e-08
-4.49507e-10
9.83534e-08
-2.61549e-10
9.84503e-08
-1.01859e-10
9.85594e-08
2.9633e-11
9.86759e-08
1.35384e-10
2.18283e-10
9.87939e-08