/*--------------------------------*- C++ -*----------------------------------*\
| =========                 |                                                 |
| \\      /  F ield         | OpenFOAM: The Open Source CFD Toolbox           |
|  \\    /   O peration     | Version:  2312                                  |
|   \\  /    A nd           | Website:  www.openfoam.com                      |
|    \\/     M anipulation  |                                                 |
\*---------------------------------------------------------------------------*/
FoamFile
{
    version     2.0;
    format      ascii;
    arch        "LSB;label=32;scalar=64";
    class       volScalarField;
    location    "95.75";
    object      p;
}
// * * * * * * * * * * * * * * * * * * * * * * * * * * * * * * * * * * * * * //

dimensions      [0 2 -2 0 0 0 0];

internalField   nonuniform List<scalar> 
4800
(
6.24639e-13
-1.2638e-06
-2.248e-06
-3.03253e-06
-3.67217e-06
-4.19873e-06
-4.65108e-06
-5.04135e-06
-5.3816e-06
-5.68445e-06
-5.95741e-06
-6.20169e-06
-6.412e-06
-6.82153e-06
-8.3437e-06
1.66063e-08
-1.24624e-06
-2.23045e-06
-3.01565e-06
-3.65666e-06
-4.18524e-06
-4.64049e-06
-5.03472e-06
-5.38036e-06
-5.69199e-06
-5.98182e-06
-6.26388e-06
-6.55159e-06
-6.95039e-06
-7.69379e-06
3.37249e-08
-1.22804e-06
-2.21227e-06
-2.99827e-06
-3.6408e-06
-4.1711e-06
-4.62803e-06
-5.0256e-06
-5.37564e-06
-5.69351e-06
-5.99273e-06
-6.28803e-06
-6.58675e-06
-6.89697e-06
-7.19564e-06
5.05251e-08
-1.20973e-06
-2.19361e-06
-2.98009e-06
-3.62366e-06
-4.15566e-06
-4.6128e-06
-5.01241e-06
-5.36442e-06
-5.68319e-06
-5.98007e-06
-6.26164e-06
-6.51979e-06
-6.72469e-06
-6.80954e-06
6.83922e-08
-1.18982e-06
-2.1729e-06
-2.95942e-06
-3.60336e-06
-4.13705e-06
-4.59267e-06
-4.99198e-06
-5.34255e-06
-5.65562e-06
-5.93832e-06
-6.18827e-06
-6.38711e-06
-6.49822e-06
-6.46959e-06
8.86716e-08
-1.16697e-06
-2.14872e-06
-2.93472e-06
-3.57812e-06
-4.11218e-06
-4.56555e-06
-4.96079e-06
-5.30493e-06
-5.60481e-06
-5.8627e-06
-6.07054e-06
-6.20821e-06
-6.24775e-06
-6.16282e-06
1.13566e-07
-1.13906e-06
-2.11889e-06
-2.90356e-06
-3.54532e-06
-4.07738e-06
-4.52715e-06
-4.91435e-06
-5.24595e-06
-5.52524e-06
-5.75073e-06
-5.91308e-06
-5.99701e-06
-5.98818e-06
-5.88003e-06
1.47172e-07
-1.10222e-06
-2.07953e-06
-2.86185e-06
-3.50052e-06
-4.0283e-06
-4.47108e-06
-4.84624e-06
-5.15962e-06
-5.4126e-06
-5.6025e-06
-5.72246e-06
-5.76479e-06
-5.72693e-06
-5.61324e-06
1.9619e-07
-1.05008e-06
-2.02436e-06
-2.80316e-06
-3.43698e-06
-3.95791e-06
-4.39006e-06
-4.74894e-06
-5.03985e-06
-5.26382e-06
-5.41946e-06
-5.50447e-06
-5.51834e-06
-5.46605e-06
-5.3565e-06
2.70175e-07
-9.73369e-07
-1.94416e-06
-2.71823e-06
-3.34528e-06
-3.85672e-06
-4.27497e-06
-4.61436e-06
-4.88074e-06
-5.07639e-06
-5.20275e-06
-5.26225e-06
-5.25954e-06
-5.20343e-06
-5.10374e-06
3.81144e-07
-8.59937e-07
-1.82672e-06
-2.59479e-06
-3.21321e-06
-3.71289e-06
-4.11501e-06
-4.43364e-06
-4.67621e-06
-4.84734e-06
-4.95167e-06
-4.99532e-06
-4.98591e-06
-4.93352e-06
-4.84728e-06
5.43e-07
-6.95227e-07
-1.65713e-06
-2.41793e-06
-3.02614e-06
-3.51266e-06
-3.89811e-06
-4.19721e-06
-4.41945e-06
-4.57213e-06
-4.66261e-06
-4.69928e-06
-4.69103e-06
-4.64774e-06
-4.57737e-06
7.71888e-07
-4.62047e-07
-1.41776e-06
-2.17012e-06
-2.76724e-06
-3.24051e-06
-3.61079e-06
-3.89419e-06
-4.10194e-06
-4.24358e-06
-4.32835e-06
-4.3658e-06
-4.36491e-06
-4.33475e-06
-4.28203e-06
1.08738e-06
-1.39418e-07
-1.08723e-06
-1.83033e-06
-2.41669e-06
-2.87862e-06
-3.23694e-06
-3.51061e-06
-3.71151e-06
-3.85025e-06
-3.93714e-06
-3.98209e-06
-3.99371e-06
-3.98004e-06
-3.94671e-06
1.51275e-06
2.97965e-07
-6.39675e-07
-1.37298e-06
-1.94997e-06
-2.40557e-06
-2.75614e-06
-3.02746e-06
-3.23009e-06
-3.37439e-06
-3.47092e-06
-3.52957e-06
-3.55847e-06
-3.56468e-06
-3.55299e-06
2.07316e-06
8.78364e-07
-4.59494e-08
-7.69141e-07
-1.33786e-06
-1.78635e-06
-2.14206e-06
-2.42027e-06
-2.63349e-06
-2.79181e-06
-2.90536e-06
-2.98379e-06
-3.03484e-06
-3.06479e-06
-3.07786e-06
2.79124e-06
1.62874e-06
7.23092e-07
9.66335e-09
-5.55956e-07
-1.00812e-06
-1.37168e-06
-1.66412e-06
-1.89609e-06
-2.07639e-06
-2.21436e-06
-2.31908e-06
-2.39775e-06
-2.45604e-06
-2.49784e-06
3.68153e-06
2.56757e-06
1.6889e-06
9.8746e-07
4.21059e-07
-4.22364e-08
-4.21901e-07
-7.3634e-07
-9.94698e-07
-1.20478e-06
-1.37521e-06
-1.51416e-06
-1.62795e-06
-1.72141e-06
-1.79809e-06
4.74432e-06
3.69759e-06
2.8552e-06
2.17011e-06
1.60615e-06
1.13076e-06
7.25582e-07
3.81064e-07
8.98353e-08
-1.56392e-07
-3.6637e-07
-5.47392e-07
-7.04569e-07
-8.41742e-07
-9.62053e-07
5.95392e-06
4.99244e-06
4.19576e-06
3.52883e-06
2.96576e-06
2.48285e-06
2.05539e-06
1.68116e-06
1.35578e-06
1.07103e-06
8.18268e-07
5.91339e-07
3.86428e-07
2.0052e-07
3.05297e-08
7.19124e-06
6.32327e-06
5.57988e-06
4.93167e-06
4.36103e-06
3.85579e-06
3.40688e-06
3.00441e-06
2.64203e-06
2.31228e-06
2.00894e-06
1.72836e-06
1.46806e-06
1.2255e-06
9.97835e-07
8.25938e-06
7.47451e-06
6.78046e-06
6.1616e-06
5.59693e-06
5.07445e-06
4.59352e-06
4.16063e-06
3.76461e-06
3.39442e-06
3.04555e-06
2.71666e-06
2.40619e-06
2.11178e-06
1.8308e-06
9.06688e-06
8.34532e-06
7.68785e-06
7.08145e-06
6.51541e-06
5.99143e-06
5.50458e-06
5.05247e-06
4.6278e-06
4.22439e-06
3.8395e-06
3.47186e-06
3.11985e-06
2.78147e-06
2.4547e-06
9.65167e-06
8.97891e-06
8.35121e-06
7.76236e-06
7.20977e-06
6.68632e-06
6.19307e-06
5.72469e-06
5.27719e-06
4.84775e-06
4.43424e-06
4.03502e-06
3.64856e-06
3.27345e-06
2.90831e-06
1.00635e-05
9.42985e-06
8.8294e-06
8.25843e-06
7.71416e-06
7.19347e-06
6.69418e-06
6.21351e-06
5.74955e-06
5.30041e-06
4.86422e-06
4.43954e-06
4.02523e-06
3.62038e-06
3.22403e-06
1.03442e-05
9.74266e-06
9.16497e-06
8.60866e-06
8.0718e-06
7.55275e-06
7.0496e-06
6.56091e-06
6.08528e-06
5.62117e-06
5.16725e-06
4.72253e-06
4.28626e-06
3.85781e-06
3.43653e-06
1.05285e-05
9.95275e-06
9.39339e-06
8.8498e-06
8.31998e-06
7.80325e-06
7.2983e-06
6.80429e-06
6.32003e-06
5.8445e-06
5.37688e-06
4.91656e-06
4.46304e-06
4.01596e-06
3.57491e-06
1.06447e-05
1.00899e-05
9.54605e-06
9.01285e-06
8.49009e-06
7.97618e-06
7.47066e-06
6.97293e-06
6.48226e-06
5.99807e-06
5.51989e-06
5.04739e-06
4.58031e-06
4.1185e-06
3.6618e-06
1.07151e-05
1.01778e-05
9.64725e-06
9.1234e-06
8.60639e-06
8.09532e-06
7.5898e-06
7.0895e-06
6.59408e-06
6.10326e-06
5.61684e-06
5.13473e-06
4.65687e-06
4.18334e-06
3.71415e-06
1.07561e-05
1.02336e-05
9.71423e-06
9.19847e-06
8.68661e-06
8.17818e-06
7.67296e-06
7.17086e-06
6.6718e-06
6.17576e-06
5.68276e-06
5.19292e-06
4.70636e-06
4.22333e-06
3.74401e-06
1.07791e-05
1.02691e-05
9.75929e-06
9.25055e-06
8.74323e-06
8.23717e-06
7.73235e-06
7.22889e-06
6.72692e-06
6.22662e-06
5.72822e-06
5.23198e-06
4.73822e-06
4.24733e-06
3.75962e-06
1.07917e-05
1.02923e-05
9.79077e-06
9.28809e-06
8.78469e-06
8.2807e-06
7.77626e-06
7.27168e-06
6.76726e-06
6.26337e-06
5.76038e-06
5.25873e-06
4.75886e-06
4.26129e-06
3.76646e-06
1.07987e-05
1.03085e-05
9.81404e-06
9.31656e-06
8.81651e-06
8.3143e-06
7.81015e-06
7.30457e-06
6.79801e-06
6.29098e-06
5.78401e-06
5.27765e-06
4.77247e-06
4.26911e-06
3.76812e-06
1.08031e-05
1.03208e-05
9.83245e-06
9.33943e-06
8.84221e-06
8.34151e-06
7.83754e-06
7.33101e-06
6.82252e-06
6.31269e-06
5.80217e-06
5.29165e-06
4.78178e-06
4.27331e-06
3.76689e-06
1.08066e-05
1.0331e-05
9.84801e-06
9.35881e-06
8.86397e-06
8.36452e-06
7.86062e-06
7.35317e-06
6.84289e-06
6.33052e-06
5.8168e-06
5.30253e-06
4.78847e-06
4.27544e-06
3.76418e-06
1.08098e-05
1.03403e-05
9.86182e-06
9.37581e-06
8.88312e-06
8.38461e-06
7.88069e-06
7.37233e-06
6.86039e-06
6.34568e-06
5.82906e-06
5.31141e-06
4.79357e-06
4.27645e-06
3.76086e-06
1.08132e-05
1.03489e-05
9.87438e-06
9.39106e-06
8.90032e-06
8.40246e-06
7.89844e-06
7.38921e-06
6.87571e-06
6.35888e-06
5.83963e-06
5.31892e-06
4.79768e-06
4.27688e-06
3.7574e-06
1.0817e-05
1.03571e-05
9.88605e-06
9.40506e-06
8.91591e-06
8.4186e-06
7.91441e-06
7.40434e-06
6.88942e-06
6.37064e-06
5.849e-06
5.32552e-06
4.80119e-06
4.27704e-06
3.75402e-06
1.08213e-05
1.03656e-05
9.89763e-06
9.41881e-06
8.93096e-06
8.43415e-06
7.92974e-06
7.41881e-06
6.9025e-06
6.38186e-06
5.85792e-06
5.33177e-06
4.80446e-06
4.27708e-06
3.75065e-06
1.08259e-05
1.03744e-05
9.90947e-06
9.43272e-06
8.94609e-06
8.44972e-06
7.94504e-06
7.43322e-06
6.91541e-06
6.39272e-06
5.8664e-06
5.3376e-06
4.80744e-06
4.27708e-06
3.74752e-06
-9.4936e-06
-7.22204e-06
-5.83924e-06
-4.91027e-06
-4.17528e-06
-3.62218e-06
-3.20783e-06
-2.90367e-06
-2.6904e-06
-2.55223e-06
-2.47561e-06
-2.44811e-06
-2.45787e-06
-2.49327e-06
-2.54235e-06
-2.59342e-06
-2.63487e-06
-2.65817e-06
-2.66086e-06
-2.64782e-06
-2.63751e-06
-2.63899e-06
-2.62582e-06
-2.50842e-06
-2.20175e-06
-1.66278e-06
-8.76302e-07
1.50337e-07
1.40293e-06
2.86615e-06
4.52144e-06
6.34761e-06
8.31878e-06
1.04015e-05
1.25558e-05
1.47351e-05
1.68857e-05
1.89462e-05
2.08412e-05
2.24735e-05
2.36966e-05
2.43019e-05
2.38196e-05
2.18355e-05
1.66537e-05
-7.93934e-06
-6.72322e-06
-5.65889e-06
-4.82387e-06
-4.13209e-06
-3.59354e-06
-3.18485e-06
-2.88375e-06
-2.67302e-06
-2.53763e-06
-2.46419e-06
-2.44022e-06
-2.45371e-06
-2.49296e-06
-2.5459e-06
-2.60079e-06
-2.64592e-06
-2.67264e-06
-2.67808e-06
-2.66614e-06
-2.65381e-06
-2.64814e-06
-2.62246e-06
-2.49077e-06
-2.17111e-06
-1.62178e-06
-8.27796e-07
2.0322e-07
1.45658e-06
2.91624e-06
4.56232e-06
6.37177e-06
8.31651e-06
1.03602e-05
1.24592e-05
1.45615e-05
1.66066e-05
1.85216e-05
2.02138e-05
2.1555e-05
2.23437e-05
2.22519e-05
2.06203e-05
1.66915e-05
9.23766e-06
-7.12517e-06
-6.3417e-06
-5.47535e-06
-4.72611e-06
-4.08197e-06
-3.56356e-06
-3.16342e-06
-2.86664e-06
-2.65884e-06
-2.52622e-06
-2.45578e-06
-2.43508e-06
-2.45208e-06
-2.49495e-06
-2.55154e-06
-2.61005e-06
-2.65871e-06
-2.68872e-06
-2.69677e-06
-2.68572e-06
-2.67088e-06
-2.65705e-06
-2.6173e-06
-2.46969e-06
-2.1358e-06
-1.57548e-06
-7.74049e-07
2.60448e-07
1.51263e-06
2.96556e-06
4.59767e-06
6.38359e-06
8.29248e-06
1.02845e-05
1.23111e-05
1.43146e-05
1.62256e-05
1.79596e-05
1.94063e-05
2.04135e-05
2.07492e-05
2.00599e-05
1.77703e-05
1.34957e-05
7.02053e-06
-6.62078e-06
-6.03481e-06
-5.32546e-06
-4.64339e-06
-4.04404e-06
-3.54627e-06
-3.15426e-06
-2.86063e-06
-2.65418e-06
-2.52267e-06
-2.4537e-06
-2.43498e-06
-2.45442e-06
-2.50009e-06
-2.55971e-06
-2.62139e-06
-2.67325e-06
-2.7063e-06
-2.71673e-06
-2.7062e-06
-2.68823e-06
-2.66506e-06
-2.60944e-06
-2.44391e-06
-2.09396e-06
-1.52114e-06
-7.11195e-07
3.27158e-07
1.57752e-06
3.02175e-06
4.63618e-06
6.39251e-06
8.25652e-06
1.0184e-05
1.21211e-05
1.40033e-05
1.57527e-05
1.72738e-05
1.84439e-05
1.91013e-05
1.90213e-05
1.79113e-05
1.5407e-05
1.13391e-05
5.99367e-06
-6.24277e-06
-5.77562e-06
-5.18842e-06
-4.58572e-06
-4.02681e-06
-3.54926e-06
-3.16443e-06
-2.87204e-06
-2.66442e-06
-2.53138e-06
-2.4614e-06
-2.44245e-06
-2.46248e-06
-2.50944e-06
-2.57091e-06
-2.63485e-06
-2.68926e-06
-2.72487e-06
-2.7373e-06
-2.72689e-06
-2.70511e-06
-2.6714e-06
-2.59812e-06
-2.41289e-06
-2.04553e-06
-1.45949e-06
-6.4097e-07
4.00296e-07
1.64647e-06
3.07806e-06
4.6689e-06
6.3872e-06
8.19499e-06
1.00433e-05
1.18728e-05
1.36125e-05
1.51772e-05
1.64645e-05
1.7349e-05
1.76759e-05
1.72586e-05
1.58975e-05
1.34188e-05
9.82808e-06
5.47412e-06
-5.93829e-06
-5.55566e-06
-5.06202e-06
-4.53988e-06
-4.02909e-06
-3.57376e-06
-3.19727e-06
-2.90525e-06
-2.69425e-06
-2.55684e-06
-2.48282e-06
-2.46071e-06
-2.47872e-06
-2.52477e-06
-2.58626e-06
-2.65101e-06
-2.70684e-06
-2.74416e-06
-2.75792e-06
-2.74699e-06
-2.72057e-06
-2.67499e-06
-2.58219e-06
-2.37557e-06
-1.9898e-06
-1.39039e-06
-5.63975e-07
4.78153e-07
1.71631e-06
3.12974e-06
4.68904e-06
6.35871e-06
8.0968e-06
9.8497e-06
1.15529e-05
1.31303e-05
1.44928e-05
1.55369e-05
1.61441e-05
1.6183e-05
1.55198e-05
1.40459e-05
1.1721e-05
8.65423e-06
5.15587e-06
-5.67361e-06
-5.35716e-06
-4.94778e-06
-4.49287e-06
-4.03836e-06
-3.61401e-06
-3.25091e-06
-2.96084e-06
-2.74582e-06
-2.60207e-06
-2.52117e-06
-2.49274e-06
-2.50563e-06
-2.54795e-06
-2.60702e-06
-2.67054e-06
-2.72614e-06
-2.76387e-06
-2.77796e-06
-2.76558e-06
-2.73344e-06
-2.67454e-06
-2.56027e-06
-2.33069e-06
-1.92588e-06
-1.3134e-06
-4.80516e-07
5.5921e-07
1.78442e-06
3.1727e-06
4.69053e-06
6.29899e-06
7.95223e-06
9.59242e-06
1.11512e-05
1.25497e-05
1.36993e-05
1.45022e-05
1.4856e-05
1.46618e-05
1.38395e-05
1.23528e-05
1.02376e-05
7.63369e-06
4.78648e-06
-5.42936e-06
-5.16635e-06
-4.8291e-06
-4.44319e-06
-4.04263e-06
-3.65878e-06
-3.31691e-06
-3.03354e-06
-2.81657e-06
-2.66667e-06
-2.57728e-06
-2.53983e-06
-2.54456e-06
-2.58011e-06
-2.63393e-06
-2.69372e-06
-2.74701e-06
-2.78343e-06
-2.79645e-06
-2.78141e-06
-2.74231e-06
-2.66851e-06
-2.53087e-06
-2.27702e-06
-1.85309e-06
-1.22872e-06
-3.92059e-07
6.40714e-07
1.8469e-06
3.20109e-06
4.66512e-06
6.19792e-06
7.74986e-06
9.26002e-06
1.06581e-05
1.18661e-05
1.28003e-05
1.33754e-05
1.35109e-05
1.31422e-05
1.22343e-05
1.07986e-05
8.90513e-06
6.6876e-06
4.33004e-06
-5.19571e-06
-4.97683e-06
-4.70009e-06
-4.37872e-06
-4.03525e-06
-3.69522e-06
-3.38284e-06
-3.11258e-06
-2.89872e-06
-2.74579e-06
-2.64821e-06
-2.60034e-06
-2.59464e-06
-2.62074e-06
-2.66652e-06
-2.71994e-06
-2.76861e-06
-2.80176e-06
-2.81209e-06
-2.79299e-06
-2.74556e-06
-2.65538e-06
-2.49268e-06
-2.21383e-06
-1.77136e-06
-1.13839e-06
-3.01466e-07
7.17781e-07
1.89825e-06
3.20615e-06
4.60162e-06
6.0427e-06
7.47637e-06
8.84027e-06
1.00651e-05
1.10771e-05
1.18025e-05
1.21725e-05
1.21304e-05
1.16421e-05
1.07052e-05
9.35678e-06
7.67537e-06
5.77513e-06
3.79084e-06
-4.96564e-06
-4.78421e-06
-4.55832e-06
-4.29447e-06
-4.0066e-06
-3.71341e-06
-3.43409e-06
-3.18393e-06
-2.98171e-06
-2.83105e-06
-2.72711e-06
-2.66904e-06
-2.65205e-06
-2.66697e-06
-2.70253e-06
-2.74728e-06
-2.78916e-06
-2.81711e-06
-2.82312e-06
-2.79859e-06
-2.7416e-06
-2.63389e-06
-2.44512e-06
-2.14138e-06
-1.68322e-06
-1.04571e-06
-2.16015e-07
7.8629e-07
1.92977e-06
3.1749e-06
4.48584e-06
5.81824e-06
7.11708e-06
8.32104e-06
9.36479e-06
1.01825e-05
1.07135e-05
1.09072e-05
1.07289e-05
1.0168e-05
9.24203e-06
7.99808e-06
6.50996e-06
4.86952e-06
3.17484e-06
-4.73139e-06
-4.58267e-06
-4.40004e-06
-4.18661e-06
-3.95082e-06
-3.70572e-06
-3.45953e-06
-3.23569e-06
-3.05392e-06
-2.91018e-06
-2.80319e-06
-2.73729e-06
-2.70996e-06
-2.71348e-06
-2.73778e-06
-2.77238e-06
-2.80588e-06
-2.82715e-06
-2.82755e-06
-2.79661e-06
-2.7293e-06
-2.60361e-06
-2.38895e-06
-2.06171e-06
-1.59659e-06
-9.59528e-07
-1.38147e-07
8.39047e-07
1.9254e-06
3.0907e-06
4.3007e-06
5.50751e-06
6.65677e-06
7.69116e-06
8.55223e-06
9.18344e-06
9.54094e-06
9.58976e-06
9.31352e-06
8.71725e-06
7.82814e-06
6.69383e-06
5.37781e-06
3.95157e-06
2.48676e-06
-4.48336e-06
-4.36404e-06
-4.21873e-06
-4.04862e-06
-3.85804e-06
-3.65566e-06
-3.45174e-06
-3.26341e-06
-3.10157e-06
-2.96684e-06
-2.86299e-06
-2.7942e-06
-2.75945e-06
-2.75303e-06
-2.76657e-06
-2.79086e-06
-2.81546e-06
-2.82944e-06
-2.82371e-06
-2.78619e-06
-2.70874e-06
-2.5663e-06
-2.32618e-06
-1.98389e-06
-1.52084e-06
-8.83856e-07
-7.38909e-08
8.53386e-07
1.86364e-06
2.93446e-06
4.02691e-06
5.09258e-06
6.08075e-06
6.94083e-06
7.62609e-06
8.08397e-06
8.29165e-06
8.2267e-06
7.88532e-06
7.28134e-06
6.44461e-06
5.41816e-06
4.25388e-06
3.00648e-06
1.7286e-06
-4.20983e-06
-4.11781e-06
-4.00586e-06
-3.8744e-06
-3.72601e-06
-3.56665e-06
-3.40461e-06
-3.24935e-06
-3.10929e-06
-2.98975e-06
-2.8953e-06
-2.82909e-06
-2.79107e-06
-2.77773e-06
-2.78266e-06
-2.79807e-06
-2.81473e-06
-2.82215e-06
-2.81098e-06
-2.76809e-06
-2.68201e-06
-2.52715e-06
-2.26544e-06
-1.91699e-06
-1.45634e-06
-8.28048e-07
-5.83596e-08
8.02625e-07
1.72433e-06
2.68495e-06
3.64405e-06
4.55648e-06
5.37695e-06
6.06216e-06
6.57271e-06
6.88651e-06
6.97166e-06
6.82167e-06
6.44194e-06
5.84983e-06
5.07361e-06
4.14963e-06
3.11893e-06
2.02294e-06
9.0059e-07
-3.89678e-06
-3.83109e-06
-3.75018e-06
-3.65428e-06
-3.54483e-06
-3.42554e-06
-3.30185e-06
-3.18013e-06
-3.06713e-06
-2.96869e-06
-2.8891e-06
-2.83104e-06
-2.79516e-06
-2.77965e-06
-2.78003e-06
-2.78994e-06
-2.80146e-06
-2.80489e-06
-2.79067e-06
-2.74553e-06
-2.65475e-06
-2.49337e-06
-2.22395e-06
-1.86613e-06
-1.41893e-06
-8.25668e-07
-1.15372e-07
6.63521e-07
1.48397e-06
2.31919e-06
3.13263e-06
3.8852e-06
4.53891e-06
5.06047e-06
5.42221e-06
5.60316e-06
5.58894e-06
5.37857e-06
4.98106e-06
4.41379e-06
3.70121e-06
2.87266e-06
1.9598e-06
9.93793e-07
3.53854e-09
-3.52665e-06
-3.48752e-06
-3.43667e-06
-3.37436e-06
-3.30134e-06
-3.21985e-06
-3.1335e-06
-3.04688e-06
-2.96499e-06
-2.89255e-06
-2.83326e-06
-2.78962e-06
-2.76264e-06
-2.7516e-06
-2.75355e-06
-2.7636e-06
-2.77515e-06
-2.77945e-06
-2.76698e-06
-2.72493e-06
-2.63665e-06
-2.47738e-06
-2.21536e-06
-1.86391e-06
-1.43675e-06
-8.99523e-07
-2.67878e-07
4.14118e-07
1.11749e-06
1.81542e-06
2.47704e-06
3.06986e-06
3.56474e-06
3.9381e-06
4.16873e-06
4.24137e-06
4.15114e-06
3.9014e-06
3.50183e-06
2.96767e-06
2.31884e-06
1.57822e-06
7.69816e-07
-8.31307e-08
-9.59112e-07
-3.07767e-06
-3.06691e-06
-3.04696e-06
-3.01823e-06
-2.98122e-06
-2.93734e-06
-2.88904e-06
-2.83947e-06
-2.79218e-06
-2.75062e-06
-2.71777e-06
-2.69588e-06
-2.68604e-06
-2.68809e-06
-2.70005e-06
-2.7182e-06
-2.73752e-06
-2.75044e-06
-2.74758e-06
-2.71698e-06
-2.64159e-06
-2.49765e-06
-2.25824e-06
-1.93559e-06
-1.54525e-06
-1.07613e-06
-5.41054e-07
2.70865e-08
6.00537e-07
1.15535e-06
1.66558e-06
2.10822e-06
2.45895e-06
2.70337e-06
2.82303e-06
2.81043e-06
2.66619e-06
2.39504e-06
2.0054e-06
1.50959e-06
9.23184e-07
2.63568e-07
-4.51391e-07
-1.2045e-06
-1.97978e-06
-2.52751e-06
-2.54845e-06
-2.56215e-06
-2.56917e-06
-2.56999e-06
-2.56561e-06
-2.55766e-06
-2.54828e-06
-2.53991e-06
-2.535e-06
-2.53582e-06
-2.5442e-06
-2.56113e-06
-2.58682e-06
-2.61994e-06
-2.65736e-06
-2.69454e-06
-2.72618e-06
-2.74401e-06
-2.73703e-06
-2.68854e-06
-2.57694e-06
-2.37955e-06
-2.10681e-06
-1.77683e-06
-1.39246e-06
-9.65508e-07
-5.20733e-07
-8.23715e-08
3.28274e-07
6.92308e-07
9.96137e-07
1.22788e-06
1.36387e-06
1.39449e-06
1.31936e-06
1.14111e-06
8.63594e-07
4.93192e-07
3.94026e-08
-4.85957e-07
-1.07002e-06
-1.69979e-06
-2.36273e-06
-3.04702e-06
-1.86308e-06
-1.92052e-06
-1.97213e-06
-2.01871e-06
-2.06094e-06
-2.09965e-06
-2.13599e-06
-2.17139e-06
-2.20755e-06
-2.24612e-06
-2.28882e-06
-2.33689e-06
-2.39116e-06
-2.45221e-06
-2.51836e-06
-2.58942e-06
-2.66001e-06
-2.72363e-06
-2.77383e-06
-2.80535e-06
-2.80102e-06
-2.74172e-06
-2.60868e-06
-2.4101e-06
-2.16349e-06
-1.87883e-06
-1.56771e-06
-1.24658e-06
-9.36959e-07
-6.60949e-07
-4.29078e-07
-2.41089e-07
-1.14976e-07
-6.83006e-08
-1.04204e-07
-2.20578e-07
-4.15739e-07
-6.87546e-07
-1.03142e-06
-1.44021e-06
-1.90528e-06
-2.41748e-06
-2.96764e-06
-3.54679e-06
-4.1463e-06
-1.07104e-06
-1.17316e-06
-1.27025e-06
-1.36342e-06
-1.45364e-06
-1.5418e-06
-1.62885e-06
-1.71584e-06
-1.80395e-06
-1.89439e-06
-1.98825e-06
-2.08667e-06
-2.1898e-06
-2.29826e-06
-2.41217e-06
-2.5255e-06
-2.64197e-06
-2.76092e-06
-2.86433e-06
-2.94804e-06
-3.0057e-06
-3.02001e-06
-2.97409e-06
-2.87217e-06
-2.72861e-06
-2.55547e-06
-2.36455e-06
-2.16651e-06
-1.97404e-06
-1.79649e-06
-1.68108e-06
-1.59267e-06
-1.55382e-06
-1.5741e-06
-1.65317e-06
-1.79083e-06
-1.98786e-06
-2.24342e-06
-2.55402e-06
-2.91445e-06
-3.31877e-06
-3.76087e-06
-4.23453e-06
-4.73345e-06
-5.25142e-06
-1.30218e-07
-2.86741e-07
-4.40132e-07
-5.90912e-07
-7.3998e-07
-8.88314e-07
-1.03683e-06
-1.1864e-06
-1.33785e-06
-1.49206e-06
-1.6497e-06
-1.81156e-06
-1.97794e-06
-2.14879e-06
-2.32469e-06
-2.50232e-06
-2.6829e-06
-2.86371e-06
-3.03585e-06
-3.19145e-06
-3.32799e-06
-3.43373e-06
-3.49246e-06
-3.50245e-06
-3.47417e-06
-3.41823e-06
-3.34445e-06
-3.26846e-06
-3.20242e-06
-3.14631e-06
-3.07306e-06
-3.04565e-06
-3.06626e-06
-3.12789e-06
-3.22828e-06
-3.36992e-06
-3.55532e-06
-3.78425e-06
-4.05414e-06
-4.36158e-06
-4.703e-06
-5.07468e-06
-5.47262e-06
-5.89259e-06
-6.33023e-06
7.78713e-07
5.6312e-07
3.49825e-07
1.38143e-07
-7.29338e-08
-2.84395e-07
-4.97084e-07
-7.11701e-07
-9.28877e-07
-1.14922e-06
-1.37329e-06
-1.6016e-06
-1.83445e-06
-2.07195e-06
-2.3139e-06
-2.55906e-06
-2.8063e-06
-3.05315e-06
-3.29497e-06
-3.5273e-06
-3.74573e-06
-3.9428e-06
-4.10227e-06
-4.21628e-06
-4.29071e-06
-4.33401e-06
-4.35473e-06
-4.36353e-06
-4.36556e-06
-4.37264e-06
-4.3861e-06
-4.42128e-06
-4.48113e-06
-4.56391e-06
-4.67122e-06
-4.80676e-06
-4.97281e-06
-5.16941e-06
-5.39536e-06
-5.64911e-06
-5.92892e-06
-6.23273e-06
-6.55812e-06
-6.90243e-06
-7.26289e-06
1.5572e-06
1.28578e-06
1.01538e-06
7.45569e-07
4.75498e-07
2.04319e-07
-6.86597e-08
-3.43981e-07
-6.22109e-07
-9.03482e-07
-1.1885e-06
-1.4775e-06
-1.77068e-06
-2.06796e-06
-2.36902e-06
-2.67295e-06
-2.97846e-06
-3.2839e-06
-3.58641e-06
-3.88224e-06
-4.16721e-06
-4.43635e-06
-4.67286e-06
-4.8642e-06
-5.01336e-06
-5.12827e-06
-5.21811e-06
-5.29002e-06
-5.35135e-06
-5.40505e-06
-5.46675e-06
-5.53864e-06
-5.61994e-06
-5.713e-06
-5.82172e-06
-5.94901e-06
-6.09632e-06
-6.2642e-06
-6.45274e-06
-6.66168e-06
-6.89036e-06
-7.13779e-06
-7.40269e-06
-7.68364e-06
-7.97905e-06
2.13427e-06
1.81521e-06
1.49633e-06
1.17727e-06
8.57393e-07
5.36088e-07
2.12879e-07
-1.12597e-07
-4.40638e-07
-7.71516e-07
-1.10546e-06
-1.44263e-06
-1.78303e-06
-2.1265e-06
-2.47262e-06
-2.82063e-06
-3.16946e-06
-3.51759e-06
-3.86267e-06
-4.20164e-06
-4.53114e-06
-4.84735e-06
-5.13305e-06
-5.37372e-06
-5.57138e-06
-5.73331e-06
-5.86698e-06
-5.97872e-06
-6.07554e-06
-6.16456e-06
-6.25234e-06
-6.34013e-06
-6.43014e-06
-6.52624e-06
-6.63174e-06
-6.74874e-06
-6.87869e-06
-7.02278e-06
-7.1818e-06
-7.35614e-06
-7.54578e-06
-7.75043e-06
-7.9696e-06
-8.20259e-06
-8.44855e-06
2.54861e-06
2.18969e-06
1.83045e-06
1.47064e-06
1.10986e-06
7.47746e-07
3.8404e-07
1.8572e-08
-3.48789e-07
-7.18139e-07
-1.08954e-06
-1.46297e-06
-1.8383e-06
-2.21525e-06
-2.59334e-06
-2.97183e-06
-3.34967e-06
-3.72539e-06
-4.09707e-06
-4.46227e-06
-4.81821e-06
-5.16158e-06
-5.47559e-06
-5.74552e-06
-5.97292e-06
-6.16431e-06
-6.32593e-06
-6.46411e-06
-6.58582e-06
-6.69643e-06
-6.79894e-06
-6.8965e-06
-6.99282e-06
-7.09113e-06
-7.19389e-06
-7.30311e-06
-7.42056e-06
-7.54772e-06
-7.6857e-06
-7.83524e-06
-7.9968e-06
-8.17062e-06
-8.35673e-06
-8.55496e-06
-8.76503e-06
2.8323e-06
2.44103e-06
2.04925e-06
1.65686e-06
1.26367e-06
8.6955e-07
4.74449e-07
7.83795e-08
-3.18624e-07
-7.16497e-07
-1.11514e-06
-1.51437e-06
-1.91395e-06
-2.31345e-06
-2.71233e-06
-3.10981e-06
-3.50487e-06
-3.8962e-06
-4.28219e-06
-4.66076e-06
-5.02956e-06
-5.38572e-06
-5.71354e-06
-5.99904e-06
-6.24358e-06
-6.45302e-06
-6.63297e-06
-6.78933e-06
-6.92748e-06
-7.0512e-06
-7.164e-06
-7.26958e-06
-7.37113e-06
-7.47125e-06
-7.57229e-06
-7.6764e-06
-7.78545e-06
-7.90103e-06
-8.02445e-06
-8.15673e-06
-8.29867e-06
-8.45089e-06
-8.61377e-06
-8.78755e-06
-8.97234e-06
3.01918e-06
2.60215e-06
2.18468e-06
1.76682e-06
1.34856e-06
9.29988e-07
5.11228e-07
9.24555e-08
-3.26145e-07
-7.44361e-07
-1.16195e-06
-1.57861e-06
-1.99395e-06
-2.40748e-06
-2.81857e-06
-3.22645e-06
-3.63015e-06
-4.02849e-06
-4.42005e-06
-4.80305e-06
-5.17552e-06
-5.535e-06
-5.86727e-06
-6.15963e-06
-6.41338e-06
-6.63367e-06
-6.82543e-06
-6.99355e-06
-7.14237e-06
-7.27538e-06
-7.3962e-06
-7.50807e-06
-7.61371e-06
-7.71562e-06
-7.81618e-06
-7.91751e-06
-8.0215e-06
-8.12981e-06
-8.24388e-06
-8.36494e-06
-8.49403e-06
-8.632e-06
-8.77952e-06
-8.93712e-06
-9.1052e-06
3.13723e-06
2.69992e-06
2.26243e-06
1.82492e-06
1.38759e-06
9.50661e-07
5.14436e-07
7.9219e-08
-3.54676e-07
-7.86914e-07
-1.21713e-06
-1.64491e-06
-2.06978e-06
-2.49116e-06
-2.90841e-06
-3.32073e-06
-3.72724e-06
-4.12683e-06
-4.51826e-06
-4.90001e-06
-5.27044e-06
-5.62749e-06
-5.95853e-06
-6.25244e-06
-6.51036e-06
-6.73674e-06
-6.93573e-06
-7.1113e-06
-7.26747e-06
-7.40744e-06
-7.53437e-06
-7.65112e-06
-7.76032e-06
-7.8644e-06
-7.96563e-06
-8.06608e-06
-8.16764e-06
-8.272e-06
-8.38072e-06
-8.49515e-06
-8.61648e-06
-8.74576e-06
-8.88387e-06
-9.03155e-06
-9.18944e-06
3.20806e-06
2.75485e-06
2.30181e-06
1.84925e-06
1.39749e-06
9.46908e-07
4.9793e-07
5.09678e-08
-3.93557e-07
-8.35207e-07
-1.27352e-06
-1.70799e-06
-2.13808e-06
-2.56316e-06
-2.98257e-06
-3.39552e-06
-3.80117e-06
-4.1985e-06
-4.58643e-06
-4.96365e-06
-5.32884e-06
-5.68023e-06
-6.00687e-06
-6.29919e-06
-6.55806e-06
-6.78725e-06
-6.99046e-06
-7.17093e-06
-7.33225e-06
-7.47728e-06
-7.60887e-06
-7.72967e-06
-7.84216e-06
-7.94865e-06
-8.05132e-06
-8.15217e-06
-8.25308e-06
-8.35581e-06
-8.46194e-06
-8.57293e-06
-8.6901e-06
-8.81462e-06
-8.94753e-06
-9.08975e-06
-9.24209e-06
3.24763e-06
2.78187e-06
2.31669e-06
1.85251e-06
1.38977e-06
9.28985e-07
4.70657e-07
1.52974e-08
-4.36586e-07
-8.8447e-07
-1.32782e-06
-1.76605e-06
-2.19858e-06
-2.62474e-06
-3.04387e-06
-3.45518e-06
-3.85788e-06
-4.25103e-06
-4.6337e-06
-5.00473e-06
-5.36308e-06
-5.70722e-06
-6.02781e-06
-6.31674e-06
-6.5746e-06
-6.80457e-06
-7.00973e-06
-7.19343e-06
-7.35833e-06
-7.50712e-06
-7.64235e-06
-7.76652e-06
-7.88195e-06
-7.99086e-06
-8.0953e-06
-8.19727e-06
-8.29864e-06
-8.40116e-06
-8.50647e-06
-8.61611e-06
-8.73148e-06
-8.85386e-06
-8.98443e-06
-9.1242e-06
-9.27413e-06
3.26716e-06
2.79132e-06
2.31649e-06
1.84318e-06
1.37194e-06
9.03373e-07
4.38065e-07
-2.34e-08
-4.80439e-07
-9.3246e-07
-1.37886e-06
-1.81902e-06
-2.25229e-06
-2.67801e-06
-3.09548e-06
-3.50395e-06
-3.90266e-06
-4.29075e-06
-4.6674e-06
-5.03159e-06
-5.3825e-06
-5.71881e-06
-6.03266e-06
-6.31724e-06
-6.57294e-06
-6.80241e-06
-7.00827e-06
-7.19385e-06
-7.36116e-06
-7.51271e-06
-7.65075e-06
-7.77764e-06
-7.89559e-06
-8.0067e-06
-8.11299e-06
-8.21638e-06
-8.31875e-06
-8.42186e-06
-8.5274e-06
-8.63694e-06
-8.75196e-06
-8.87384e-06
-9.00383e-06
-9.14308e-06
-9.29262e-06
3.27422e-06
2.79011e-06
2.30742e-06
1.82675e-06
1.34874e-06
8.74077e-07
4.03399e-07
-6.26411e-08
-5.23397e-07
-9.7822e-07
-1.42646e-06
-1.86744e-06
-2.30051e-06
-2.72497e-06
-3.14012e-06
-3.54522e-06
-3.93957e-06
-4.32234e-06
-4.69283e-06
-5.05013e-06
-5.39361e-06
-5.7221e-06
-6.02907e-06
-6.30891e-06
-6.56181e-06
-6.79002e-06
-6.99598e-06
-7.18238e-06
-7.35116e-06
-7.50469e-06
-7.64484e-06
-7.77385e-06
-7.89386e-06
-8.00688e-06
-8.11486e-06
-8.2197e-06
-8.32326e-06
-8.42732e-06
-8.53358e-06
-8.64368e-06
-8.75917e-06
-8.88146e-06
-9.01192e-06
-9.15174e-06
-9.30206e-06
3.27384e-06
2.78276e-06
2.2935e-06
1.80672e-06
1.32317e-06
8.43555e-07
3.68592e-07
-1.01016e-07
-5.64569e-07
-1.02137e-06
-1.47073e-06
-1.91194e-06
-2.34432e-06
-2.76715e-06
-3.17974e-06
-3.58138e-06
-3.97137e-06
-4.34896e-06
-4.71351e-06
-5.06423e-06
-5.40059e-06
-5.72161e-06
-6.02192e-06
-6.29696e-06
-6.54678e-06
-6.77333e-06
-6.97882e-06
-7.16546e-06
-7.33498e-06
-7.48993e-06
-7.63163e-06
-7.76224e-06
-7.88387e-06
-7.99845e-06
-8.10786e-06
-8.21401e-06
-8.31871e-06
-8.42378e-06
-8.53095e-06
-8.64189e-06
-8.75819e-06
-8.88134e-06
-9.01276e-06
-9.15373e-06
-9.30544e-06
3.26926e-06
2.77218e-06
2.27729e-06
1.78532e-06
1.29707e-06
8.1331e-07
3.34796e-07
-1.37717e-07
-6.03485e-07
-1.06177e-06
-1.51185e-06
-1.95299e-06
-2.38448e-06
-2.8056e-06
-3.21566e-06
-3.61396e-06
-3.99982e-06
-4.37256e-06
-4.73159e-06
-5.07619e-06
-5.40596e-06
-5.72004e-06
-6.01408e-06
-6.28446e-06
-6.53115e-06
-6.75586e-06
-6.96052e-06
-7.14703e-06
-7.31674e-06
-7.4727e-06
-7.61551e-06
-7.74728e-06
-7.87013e-06
-7.9859e-06
-8.09646e-06
-8.20367e-06
-8.30936e-06
-8.41534e-06
-8.52338e-06
-8.63518e-06
-8.75238e-06
-8.87654e-06
-9.0091e-06
-9.15142e-06
-9.30474e-06
3.26254e-06
2.7602e-06
2.26039e-06
1.7639e-06
1.27158e-06
7.84239e-07
3.02684e-07
-1.72291e-07
-6.39904e-07
-1.09938e-06
-1.54997e-06
-1.99092e-06
-2.42149e-06
-2.84097e-06
-3.24866e-06
-3.64386e-06
-4.02595e-06
-4.39427e-06
-4.74826e-06
-5.08731e-06
-5.41108e-06
-5.71882e-06
-6.00707e-06
-6.27306e-06
-6.51671e-06
-6.73951e-06
-6.94317e-06
-7.12917e-06
-7.299e-06
-7.45548e-06
-7.59907e-06
-7.73162e-06
-7.85534e-06
-7.97199e-06
-8.0834e-06
-8.19141e-06
-8.29787e-06
-8.40459e-06
-8.51336e-06
-8.62592e-06
-8.74396e-06
-8.86906e-06
-9.00275e-06
-9.14641e-06
-9.30134e-06
3.25495e-06
2.74794e-06
2.24376e-06
1.74327e-06
1.24735e-06
7.56855e-07
2.72629e-07
-2.045e-07
-6.73714e-07
-1.13421e-06
-1.58521e-06
-2.02594e-06
-2.45566e-06
-2.87363e-06
-3.27917e-06
-3.6716e-06
-4.05029e-06
-4.41462e-06
-4.76411e-06
-5.09817e-06
-5.41655e-06
-5.71857e-06
-6.00155e-06
-6.26348e-06
-6.50426e-06
-6.72517e-06
-6.92771e-06
-7.1128e-06
-7.28299e-06
-7.4396e-06
-7.58369e-06
-7.71673e-06
-7.84102e-06
-7.95827e-06
-8.07027e-06
-8.17884e-06
-8.28584e-06
-8.3931e-06
-8.50242e-06
-8.61558e-06
-8.7343e-06
-8.86023e-06
-8.99491e-06
-9.13979e-06
-9.29621e-06
3.24725e-06
2.73605e-06
2.22797e-06
1.72391e-06
1.22477e-06
7.3146e-07
2.44848e-07
-2.34201e-07
-7.04845e-07
-1.16625e-06
-1.61762e-06
-2.05816e-06
-2.48712e-06
-2.90376e-06
-3.3074e-06
-3.69735e-06
-4.07303e-06
-4.43384e-06
-4.77932e-06
-5.10895e-06
-5.42252e-06
-5.71943e-06
-5.99767e-06
-6.25591e-06
-6.49403e-06
-6.71313e-06
-6.91452e-06
-7.09883e-06
-7.2691e-06
-7.42567e-06
-7.56997e-06
-7.70331e-06
-7.82795e-06
-7.94557e-06
-8.05794e-06
-8.16687e-06
-8.27421e-06
-8.3818e-06
-8.49149e-06
-8.60508e-06
-8.72432e-06
-8.85089e-06
-8.9864e-06
-9.13232e-06
-9.29004e-06
3.23987e-06
2.72493e-06
2.21335e-06
1.70609e-06
1.20408e-06
7.08239e-07
2.19487e-07
-2.61291e-07
-7.33225e-07
-1.19546e-06
-1.64718e-06
-2.08758e-06
-2.51589e-06
-2.93138e-06
-3.33335e-06
-3.72114e-06
-4.09418e-06
-4.45189e-06
-4.79385e-06
-5.11957e-06
-5.42891e-06
-5.72129e-06
-5.9953e-06
-6.25021e-06
-6.48591e-06
-6.70334e-06
-6.90362e-06
-7.08724e-06
-7.25731e-06
-7.41381e-06
-7.55812e-06
-7.69164e-06
-7.81646e-06
-7.93428e-06
-8.04683e-06
-8.15594e-06
-8.26345e-06
-8.37122e-06
-8.48112e-06
-8.59497e-06
-8.71456e-06
-8.84161e-06
-8.97777e-06
-9.12455e-06
-9.28337e-06
3.23294e-06
2.7146e-06
2.19987e-06
1.68971e-06
1.18509e-06
6.86976e-07
1.96285e-07
-2.86064e-07
-7.59178e-07
-1.22219e-06
-1.67425e-06
-2.11455e-06
-2.54232e-06
-2.95681e-06
-3.35734e-06
-3.74324e-06
-4.11396e-06
-4.46895e-06
-4.8078e-06
-5.13008e-06
-5.43566e-06
-5.72401e-06
-5.99421e-06
-6.24611e-06
-6.47961e-06
-6.6955e-06
-6.89475e-06
-7.07778e-06
-7.24751e-06
-7.40384e-06
-7.54805e-06
-7.68164e-06
-7.8065e-06
-7.92437e-06
-8.03697e-06
-8.14612e-06
-8.25365e-06
-8.36146e-06
-8.47142e-06
-8.58539e-06
-8.70519e-06
-8.83257e-06
-8.96921e-06
-9.11667e-06
-9.2764e-06
3.22615e-06
2.70456e-06
2.18681e-06
1.67388e-06
1.16677e-06