/*--------------------------------*- C++ -*----------------------------------*\
| =========                 |                                                 |
| \\      /  F ield         | OpenFOAM: The Open Source CFD Toolbox           |
|  \\    /   O peration     | Version:  2312                                  |
|   \\  /    A nd           | Website:  www.openfoam.com                      |
|    \\/     M anipulation  |                                                 |
\*---------------------------------------------------------------------------*/
FoamFile
{
    version     2.0;
    format      ascii;
    arch        "LSB;label=32;scalar=64";
    class       surfaceScalarField;
    location    "183.25";
    object      phi;
}
// * * * * * * * * * * * * * * * * * * * * * * * * * * * * * * * * * * * * * //

dimensions      [0 3 -1 0 0 0 0];

oriented        oriented;

internalField   nonuniform List<scalar> 
9445
(
5.74918e-10
1.50909e-11
5.65463e-10
9.45471e-12
5.59666e-10
5.79704e-12
5.56358e-10
3.30819e-12
5.54878e-10
1.4798e-12
5.54855e-10
2.29195e-14
5.56021e-10
-1.1655e-12
5.58227e-10
-2.20626e-12
5.61681e-10
-3.45384e-12
5.66729e-10
-5.04792e-12
5.74412e-10
-7.68301e-12
5.88213e-10
-1.38006e-11
6.20313e-10
-3.21006e-11
7.13161e-10
-9.28478e-11
-2.39347e-10
9.52508e-10
2.00755e-09
6.60243e-11
1.97556e-09
4.14531e-11
1.95583e-09
2.55233e-11
1.94442e-09
1.47204e-11
1.93909e-09
6.80869e-12
1.9385e-09
6.13276e-13
1.94164e-09
-4.30684e-12
1.94817e-09
-8.73194e-12
1.95859e-09
-1.38748e-11
1.97387e-09
-2.03304e-11
1.9967e-09
-3.05094e-11
2.03371e-09
-5.08118e-11
2.0978e-09
-9.61911e-11
2.201e-09
-1.96055e-10
-3.47323e-10
2.30898e-09
3.96358e-09
1.63207e-10
3.90238e-09
1.02657e-10
3.86445e-09
6.34452e-11
3.84226e-09
3.69178e-11
3.83146e-09
1.76063e-11
3.8294e-09
2.67374e-12
3.83408e-09
-8.98452e-12
3.84481e-09
-1.94641e-11
3.86218e-09
-3.12497e-11
3.88723e-09
-4.53735e-11
3.92258e-09
-6.58679e-11
3.9727e-09
-1.00926e-10
4.04019e-09
-1.63685e-10
4.1118e-09
-2.6766e-10
-3.88304e-10
4.15278e-09
6.5878e-09
3.18396e-10
6.48965e-09
2.00802e-10
6.42841e-09
1.2469e-10
6.39204e-09
7.32917e-11
6.37349e-09
3.61569e-11
6.3684e-09
7.76192e-12
6.37357e-09
-1.41536e-11
6.3875e-09
-3.33976e-11
6.41047e-09
-5.42245e-11
6.44274e-09
-7.7639e-11
6.48522e-09
-1.08347e-10
6.53757e-09
-1.53274e-10
6.59355e-09
-2.1967e-10
6.63413e-09
-3.08239e-10
-3.92925e-10
6.63875e-09
1.00561e-08
5.43737e-10
9.91265e-09
3.44256e-10
9.82227e-09
2.15069e-10
9.76765e-09
1.27908e-10
9.73835e-09
6.54554e-11
9.72788e-09
1.82287e-11
9.73164e-09
-1.79071e-11
9.7469e-09
-4.8656e-11
9.77276e-09
-8.00891e-11
9.80816e-09
-1.13037e-10
9.85152e-09
-1.5171e-10
9.89841e-09
-2.00167e-10
9.93882e-09
-2.60075e-10
9.95685e-09
-3.26266e-10
-3.79931e-10
9.94385e-09
1.45773e-08
8.49429e-10
1.43807e-08
5.40777e-10
1.42554e-08
3.40412e-10
1.41781e-08
2.05165e-10
1.41346e-08
1.08997e-10
1.41157e-08
3.71343e-11
1.41152e-08
-1.74211e-11
1.4129e-08
-6.24571e-11
1.4154e-08
-1.05119e-10
1.41878e-08
-1.46763e-10
1.42264e-08
-1.90317e-10
1.42634e-08
-2.37187e-10
1.42892e-08
-2.85908e-10
1.42938e-08
-3.30804e-10
-3.61419e-10
1.42752e-08
2.03913e-08
1.23918e-09
2.01372e-08
7.94886e-10
1.99726e-08
5.04992e-10
1.98689e-08
3.08833e-10
1.98078e-08
1.70141e-10
1.97772e-08
6.77217e-11
1.97691e-08
-9.36055e-12
1.97778e-08
-7.1084e-11
1.97979e-08
-1.25256e-10
1.98254e-08
-1.74226e-10
1.9855e-08
-2.19912e-10
1.98802e-08
-2.62404e-10
1.9894e-08
-2.99706e-10
1.98913e-08
-3.28154e-10
-3.43372e-10
1.98733e-08
2.77628e-08
1.70289e-09
2.74544e-08
1.1033e-09
2.72508e-08
7.08563e-10
2.71195e-08
4.40087e-10
2.70389e-08
2.50776e-10
2.69942e-08
1.12409e-10
2.69756e-08
9.24614e-12
2.69754e-08
-7.09249e-11
2.6987e-08
-1.36779e-10
2.70046e-08
-1.91858e-10
2.70227e-08
-2.3806e-10
2.7036e-08
-2.75679e-10
2.70402e-08
-3.03847e-10
2.70334e-08
-3.21375e-10
-3.27471e-10
2.70175e-08
3.69697e-08
2.20809e-09
3.66242e-08
1.44881e-09
3.63908e-08
9.42013e-10
3.62365e-08
5.94371e-10
3.61382e-08
3.49031e-10
3.60796e-08
1.71001e-10
3.60493e-08
3.95755e-11
3.60383e-08
-5.99592e-11
3.6039e-08
-1.37448e-10
3.60451e-08
-1.97964e-10
3.60515e-08
-2.44393e-10
3.60541e-08
-2.78286e-10
3.60507e-08
-3.00491e-10
3.60412e-08
-3.1185e-10
-3.13476e-10
3.60272e-08
4.82969e-08
2.6964e-09
4.79498e-08
1.79585e-09
4.77085e-08
1.18333e-09
4.75449e-08
7.58036e-10
4.74373e-08
4.56545e-10
4.73698e-08
2.38544e-10
4.73304e-08
7.89783e-11
4.73098e-08
-3.93968e-11
4.73004e-08
-1.27985e-10
4.72961e-08
-1.93658e-10
4.72926e-08
-2.40926e-10
4.72873e-08
-2.7298e-10
4.72791e-08
-2.92275e-10
4.72683e-08
-3.01049e-10
-3.01385e-10
4.72562e-08
6.20548e-08
3.09759e-09
6.1755e-08
2.09564e-09
6.15394e-08
1.39898e-09
6.13893e-08
9.0808e-10
6.12884e-08
5.57533e-10
6.12228e-08
3.04137e-10
6.11819e-08
1.19845e-10
6.11574e-08
-1.48868e-11
6.11425e-08
-1.13124e-10
6.11324e-08
-1.83517e-10
6.11238e-08
-2.32345e-10
6.11151e-08
-2.64296e-10
6.11059e-08
-2.83027e-10
6.10964e-08
-2.91628e-10
-2.92658e-10
6.10877e-08
7.86507e-08
3.36667e-09
7.84379e-08
2.30846e-09
7.82795e-08
1.55732e-09
7.81673e-08
1.02032e-09
7.8091e-08
6.33824e-10
7.8041e-08
3.54074e-10
7.80095e-08
1.51432e-10
7.79898e-08
4.78457e-12
7.79773e-08
-1.00662e-10
7.79686e-08
-1.74762e-10
7.79616e-08
-2.25364e-10
7.79555e-08
-2.58236e-10
7.79503e-08
-2.77789e-10
7.79462e-08
-2.87568e-10
-2.90334e-10
7.79439e-08
9.86858e-08
3.51739e-09
9.85618e-08
2.43252e-09
9.84681e-08
1.65096e-09
9.84023e-08
1.08615e-09
9.83589e-08
6.7727e-10
9.83319e-08
3.81057e-10
9.83164e-08
1.6688e-10
9.8308e-08
1.31711e-11
9.83043e-08
-9.69519e-11
9.83031e-08
-1.73565e-10
9.83036e-08
-2.25798e-10
9.83054e-08
-2.60032e-10
9.83087e-08
-2.81091e-10
9.83138e-08
-2.92705e-10
-2.97689e-10
9.83212e-08
1.22955e-07
3.60276e-09
1.22885e-07
2.50321e-09
1.22832e-07
1.70363e-09
1.22796e-07
1.12173e-09
1.22775e-07
6.98978e-10
1.22763e-07
3.92638e-10
1.22759e-07
1.71211e-10
1.22759e-07
1.24291e-11
1.22763e-07
-1.00761e-10
1.22769e-07
-1.79832e-10
1.22778e-07
-2.34123e-10
1.22788e-07
-2.70412e-10
1.22801e-07
-2.93721e-10
1.22816e-07
-3.07829e-10
-3.15538e-10
1.22834e-07
1.52236e-07
3.65379e-09
1.52188e-07
2.55116e-09
1.52149e-07
1.74284e-09
1.5212e-07
1.15065e-09
1.521e-07
7.18724e-10
1.52088e-07
4.04755e-10
1.52082e-07
1.77268e-10
1.52081e-07
1.34653e-11
1.52084e-07
-1.04202e-10
1.52091e-07
-1.87007e-10
1.52102e-07
-2.44869e-10
1.52116e-07
-2.84727e-10
1.52134e-07
-3.11674e-10
1.52156e-07
-3.29482e-10
-3.40913e-10
1.52181e-07
1.87001e-07
3.65626e-09
1.86979e-07
2.5726e-09
1.86951e-07
1.77077e-09
1.86923e-07
1.17848e-09
1.86899e-07
7.43109e-10
1.86879e-07
4.24368e-10
1.86865e-07
1.9213e-10
1.86855e-07
2.29418e-11
1.86852e-07
-1.01331e-10
1.86855e-07
-1.89527e-10
1.86863e-07
-2.52807e-10
1.86876e-07
-2.98066e-10
1.86895e-07
-3.30381e-10
1.86919e-07
-3.53467e-10
-3.7e-10
1.86948e-07
2.27286e-07
3.5832e-09
2.27312e-07
2.54664e-09
2.27311e-07
1.77183e-09
2.27296e-07
1.19324e-09
2.27276e-07
7.63507e-10
2.27255e-07
4.45334e-10
2.27236e-07
2.11314e-10
2.27221e-07
3.71476e-11
2.27214e-07
-9.36088e-11
2.27212e-07
-1.88272e-10
2.27218e-07
-2.5813e-10
2.2723e-07
-3.10116e-10
2.27249e-07
-3.49171e-10
2.27274e-07
-3.78892e-10
-4.01876e-10
2.27306e-07
2.72607e-07
3.42258e-09
2.72692e-07
2.46099e-09
2.7273e-07
1.73375e-09
2.7274e-07
1.18385e-09
2.72733e-07
7.69818e-10
2.7272e-07
4.59029e-10
2.72705e-07
2.26275e-10
2.7269e-07
5.21357e-11
2.72683e-07
-8.6663e-11
2.72682e-07
-1.87542e-10
2.72689e-07
-2.64573e-10
2.72703e-07
-3.24218e-10
2.72725e-07
-3.71046e-10
2.72754e-07
-4.08458e-10
-4.38932e-10
2.72791e-07
3.216e-07
3.17159e-09
3.2175e-07
2.31048e-09
3.21834e-07
1.65013e-09
3.21874e-07
1.14383e-09
3.21887e-07
7.56729e-10
3.21886e-07
4.60178e-10
3.21878e-07
2.34337e-10
3.2187e-07
5.95546e-11
3.21867e-07
-8.36111e-11
3.21871e-07
-1.91865e-10
3.21884e-07
-2.76839e-10
3.21904e-07
-3.44978e-10
3.21934e-07
-4.00571e-10
3.21972e-07
-4.46755e-10
-4.85493e-10
3.22019e-07
3.71289e-07
2.81976e-09
3.71517e-07
2.08184e-09
3.71661e-07
1.50708e-09
3.71746e-07
1.05846e-09
3.71794e-07
7.0877e-10
3.71817e-07
4.3672e-10
3.71829e-07
2.22917e-10
3.71834e-07
5.43485e-11
3.71837e-07
-8.70305e-11
3.71843e-07
-1.97268e-10
3.71853e-07
-2.86707e-10
3.71869e-07
-3.60911e-10
3.71892e-07
-4.23612e-10
3.71922e-07
-4.7752e-10
-5.24653e-10
3.71962e-07
3.6922e-07
2.42753e-09
3.69488e-07
1.81314e-09
3.6967e-07
1.32573e-09
3.6979e-07
9.37957e-10
3.69869e-07
6.29683e-10
3.69922e-07
3.84002e-10
3.69957e-07
1.8732e-10
3.69979e-07
3.30128e-11
3.69999e-07
-1.07661e-10
3.70019e-07
-2.16403e-10
3.7004e-07
-3.08459e-10
3.70067e-07
-3.87274e-10
3.70099e-07
-4.55585e-10
3.70137e-07
-5.15752e-10
-5.6934e-10
3.70182e-07
3.16904e-07
2.05948e-09
3.17157e-07
1.5605e-09
3.17326e-07
1.15638e-09
3.17434e-07
8.29329e-10
3.175e-07
5.64144e-10
3.17536e-07
3.47811e-10
3.17555e-07
1.68517e-10
3.17569e-07
1.89208e-11
3.17571e-07
-1.09272e-10
3.17572e-07
-2.17685e-10
3.17574e-07
-3.10653e-10
3.17579e-07
-3.91846e-10
3.17587e-07
-4.63822e-10
3.176e-07
-5.2842e-10
-5.86933e-10
3.17617e-07
2.65705e-07
1.71308e-09
2.65957e-07
1.30863e-09
2.66138e-07
9.75065e-10
2.66267e-07
7.00492e-10
2.66358e-07
4.73391e-10
2.66421e-07
2.84142e-10
2.66466e-07
1.24274e-10
2.66496e-07
-1.16601e-11
2.66516e-07
-1.28812e-10
2.66529e-07
-2.30966e-10
2.66539e-07
-3.20851e-10
2.66548e-07
-4.00798e-10
2.66557e-07
-4.72735e-10
2.66567e-07
-5.38115e-10
-5.97938e-10
2.66578e-07
2.19304e-07
1.39913e-09
2.19539e-07
1.07369e-09
2.19713e-07
8.01066e-10
2.1984e-07
5.7282e-10
2.19933e-07
3.80597e-10
2.2e-07
2.17574e-10
2.20046e-07
7.78735e-11
2.20078e-07
-4.34011e-11
2.20099e-07
-1.49804e-10
2.20112e-07
-2.4428e-10
2.2012e-07
-3.28813e-10
2.20124e-07
-4.05054e-10
2.20126e-07
-4.74384e-10
2.20126e-07
-5.37901e-10
-5.96393e-10
2.20124e-07
1.78671e-07
1.11994e-09
1.78884e-07
8.61174e-10
1.79043e-07
6.41252e-10
1.79162e-07
4.54047e-10
1.79249e-07
2.93897e-10
1.79311e-07
1.55727e-10
1.79354e-07
3.4825e-11
1.79382e-07
-7.1141e-11
1.79398e-07
-1.66073e-10
1.79405e-07
-2.51375e-10
1.79405e-07
-3.2861e-10
1.79399e-07
-3.98996e-10
1.79388e-07
-4.63507e-10
1.79373e-07
-5.22928e-10
-5.77826e-10
1.79354e-07
1.43943e-07
8.79441e-10
1.44128e-07
6.76506e-10
1.44267e-07
5.01606e-10
1.44371e-07
3.50404e-10
1.44446e-07
2.18776e-10
1.44499e-07
1.03363e-10
1.44532e-07
1.1905e-12
1.44551e-07
-9.01335e-11
1.44558e-07
-1.727e-10
1.44554e-07
-2.47735e-10
1.44542e-07
-3.16324e-10
1.44522e-07
-3.79322e-10
1.44496e-07
-4.37385e-10
1.44464e-07
-4.91037e-10
-5.40654e-10
1.44427e-07
1.14781e-07
6.79365e-10
1.14935e-07
5.2256e-10
1.15051e-07
3.85451e-10
1.15136e-07
2.6513e-10
1.15196e-07
1.58784e-10
1.15235e-07
6.39858e-11
1.15257e-07
-2.07278e-11
1.15265e-07
-9.76629e-11
1.1526e-07
-1.67861e-10
1.15245e-07
-2.32248e-10
1.1522e-07
-2.91549e-10
1.15187e-07
-3.46322e-10
1.15146e-07
-3.96987e-10
1.15099e-07
-4.43881e-10
-4.8724e-10
1.15046e-07
9.06248e-08
5.17672e-10
9.0749e-08
3.98318e-10
9.08419e-08
2.92538e-10
9.09087e-08
1.98354e-10
9.09537e-08
1.13825e-10
9.09801e-08
3.75136e-11
9.09909e-08
-3.1472e-11
9.0988e-08
-9.48382e-11
9.09734e-08
-1.53177e-10
9.09482e-08
-2.07093e-10
9.09137e-08
-2.57039e-10
9.08707e-08
-3.03363e-10
9.08201e-08
-3.46322e-10
9.07623e-08
-3.86121e-10
-4.22894e-10
9.0698e-08
7.08435e-08
3.8955e-10
7.09416e-08
3.00213e-10
7.10142e-08
2.19986e-10
7.1065e-08
1.47559e-10
7.10971e-08
8.16745e-11
7.11133e-08
2.1348e-11
7.11154e-08
-3.35983e-11
7.11052e-08
-8.46388e-11
7.1084e-08
-1.31993e-10
7.1053e-08
-1.76026e-10
7.10129e-08
-2.17012e-10
7.09647e-08
-2.55154e-10
7.0909e-08
-2.90595e-10
7.08463e-08
-3.23448e-10
-3.53779e-10
7.07772e-08
5.48061e-08
2.89284e-10
5.48826e-08
2.23679e-10
5.49386e-08
1.64022e-10
5.49768e-08
1.0942e-10
5.49993e-08
5.91455e-11
5.50082e-08
1.24578e-11
5.50048e-08
-3.02454e-11
5.49906e-08
-7.03852e-11
5.49664e-08
-1.07859e-10
5.49333e-08
-1.42891e-10
5.48919e-08
-1.75631e-10
5.48429e-08
-2.06186e-10
5.4787e-08
-2.34625e-10
5.47245e-08
-2.61002e-10
-2.85339e-10
5.46561e-08
4.19202e-08
2.11468e-10
4.19795e-08
1.64363e-10
4.20225e-08
1.21007e-10
4.20512e-08
8.07811e-11
4.2067e-08
4.33081e-11
4.20712e-08
8.23416e-12
4.20652e-08
-2.42176e-11
4.20497e-08
-5.49011e-11
4.20256e-08
-8.3736e-11
4.19935e-08
-1.10814e-10
4.19541e-08
-1.36213e-10
4.19079e-08
-1.59979e-10
4.18554e-08
-1.82135e-10
4.17971e-08
-2.02698e-10
-2.21665e-10
4.17334e-08
3.16519e-08
1.515e-10
3.16977e-08
1.18578e-10
3.17307e-08
8.79234e-11
3.17524e-08
5.91012e-11
3.17637e-08
3.19845e-11
3.17656e-08
6.40221e-12
3.17588e-08
-1.74762e-11
3.17442e-08
-4.02213e-11
3.17221e-08
-6.17063e-11
3.16933e-08
-8.19612e-11
3.16581e-08
-1.01026e-10
3.1617e-08
-1.18908e-10
3.15705e-08
-1.35609e-10
3.15189e-08
-1.51122e-10
-1.65435e-10
3.14627e-08
2.35343e-08
1.0565e-10
2.35695e-08
8.33899e-11
2.35949e-08
6.24383e-11
2.36116e-08
4.24888e-11
2.362e-08
2.355e-11
2.36208e-08
5.56888e-12
2.36147e-08
-1.13403e-11
2.36021e-08
-2.75892e-11
2.35834e-08
-4.30025e-11
2.3559e-08
-5.75774e-11
2.35293e-08
-7.13416e-11
2.34947e-08
-8.4286e-11
2.34555e-08
-9.6398e-11
2.3412e-08
-1.07662e-10
-1.18061e-10
2.33646e-08
1.71681e-08
7.09813e-11
1.7195e-08
5.65486e-11
1.72146e-08
4.28373e-11
1.72274e-08
2.96284e-11
1.7234e-08
1.6985e-11
1.72347e-08
4.90914e-12
1.72298e-08
-6.48958e-12
1.72198e-08
-1.75772e-11
1.72049e-08
-2.8133e-11
1.71855e-08
-3.81295e-11
1.71617e-08
-4.76034e-11
1.7134e-08
-5.65377e-11
1.71025e-08
-6.49158e-11
1.70676e-08
-7.27184e-11
-7.99264e-11
1.70294e-08
1.22173e-08
4.52188e-11
1.22375e-08
3.63664e-11
1.22525e-08
2.79017e-11
1.22624e-08
1.96633e-11
1.22677e-08
1.17171e-11
1.22685e-08
4.07293e-12
1.22652e-08
-3.1325e-12
1.22578e-08
-1.02446e-11
1.22468e-08
-1.70545e-11
1.22321e-08
-2.34951e-11
1.22142e-08
-2.96233e-11
1.2193e-08
-3.54198e-11
1.2169e-08
-4.08685e-11
1.21422e-08
-4.59511e-11
-5.06494e-11
1.21129e-08
8.40227e-09
2.66058e-11
8.41705e-09
2.15842e-11
8.42817e-09
1.67776e-11
8.43577e-09
1.20608e-11
8.44001e-09
7.48191e-12
8.44105e-09
3.02955e-12
8.43907e-09
-1.14999e-12
8.43415e-09
-5.32041e-12
8.42644e-09
-9.35288e-12
8.41611e-09
-1.31607e-11
8.40328e-09
-1.67958e-11
8.38811e-09
-2.02451e-11
8.37074e-09
-2.34962e-11
8.35132e-09
-2.65338e-11
-2.93417e-11
8.33001e-09
5.49228e-09
1.37739e-11
5.50261e-09
1.12476e-11
5.51054e-09
8.8548e-12
5.5161e-09
6.49347e-12
5.5194e-09
4.18714e-12
5.52051e-09
1.91679e-12
5.51958e-09
-2.14738e-13
5.5166e-09
-2.34555e-12
5.51168e-09
-4.4318e-12
5.50492e-09
-6.40534e-12
5.49642e-09
-8.29244e-12
5.48627e-09
-1.00893e-11
5.47456e-09
-1.17877e-11
5.4614e-09
-1.33769e-11
-1.48429e-11
5.4469e-09
3.2987e-09
5.63325e-12
3.30535e-09
4.60526e-12
3.31053e-09
3.67013e-12
3.31428e-09
2.74398e-12
3.31664e-09
1.83238e-12
3.31763e-09
9.22938e-13
3.31735e-09
6.25429e-14
3.3158e-09
-7.90474e-13
3.313e-09
-1.63859e-12
3.30904e-09
-2.44484e-12
3.30397e-09
-3.21622e-12
3.29783e-09
-3.95348e-12
3.2907e-09
-4.65213e-12
3.28263e-09
-5.30592e-12
-5.90386e-12
3.27369e-09
1.66826e-09
1.29102e-12
1.67183e-09
1.03478e-12
1.67467e-09
8.36228e-13
1.67677e-09
6.36908e-13
1.67817e-09
4.37309e-13
1.67886e-09
2.33748e-13
1.67888e-09
3.93569e-14
1.67824e-09
-1.51725e-13
1.67695e-09
-3.44804e-13
1.67503e-09
-5.29013e-13
1.67252e-09
-7.06442e-13
1.66944e-09
-8.76075e-13
1.66583e-09
-1.0367e-12
1.66171e-09
-1.18636e-12
-1.31788e-12
1.65712e-09
4.77245e-10
4.78279e-10
4.79116e-10
4.79752e-10
4.8019e-10
4.80424e-10
4.80463e-10
4.80311e-10
4.79966e-10
4.79437e-10
4.78731e-10
4.77855e-10
4.76818e-10
4.75632e-10
4.74314e-10
1.13946e-09
-4.49119e-10
2.62171e-10
1.40815e-09
-3.61732e-10
9.30345e-11
1.67983e-09
-2.05277e-10
-6.64035e-11
1.9487e-09
-3.92783e-11
-2.29588e-10
2.2132e-09
1.32677e-10
-3.97173e-10
2.47435e-09
3.04536e-10
-5.65693e-10
2.73384e-09
4.75395e-10
-7.34881e-10
2.993e-09
6.44644e-10
-9.03804e-10
3.25287e-09
8.11309e-10
-1.07118e-09
3.51426e-09
9.73982e-10
-1.23537e-09
3.77782e-09
1.13085e-09
-1.39442e-09
4.04417e-09
1.27986e-09
-1.54621e-09
4.31399e-09
1.4185e-09
-1.68832e-09
4.58815e-09
1.54362e-09
-1.81778e-09
4.86777e-09
1.65137e-09
-1.931e-09
5.1544e-09
1.73733e-09
-2.02396e-09
5.45021e-09
1.79665e-09
-2.09245e-09
5.75836e-09
1.82471e-09
-2.13286e-09
6.08324e-09
1.81532e-09
-2.14021e-09
6.43045e-09
1.75658e-09
-2.10378e-09
6.80506e-09
1.61058e-09
-1.9852e-09
7.20735e-09
1.28575e-09
-1.68803e-09
7.56773e-09
5.42436e-10
-9.02823e-10
7.85765e-09
-3.09469e-10
1.95548e-11
8.07724e-09
-1.11825e-09
8.98658e-10
8.23001e-09
-1.83748e-09
1.68471e-09
8.3216e-09
-2.44354e-09
2.35195e-09
8.35806e-09
-2.92917e-09
2.89271e-09
8.34454e-09
-3.29246e-09
3.30597e-09
8.28513e-09
-3.5343e-09
3.59371e-09
8.18324e-09
-3.6569e-09
3.75879e-09
8.04201e-09
-3.66127e-09
3.80249e-09
7.86452e-09
-3.54793e-09
3.72542e-09
7.65381e-09
-3.31828e-09
3.529e-09
7.41281e-09
-2.9754e-09
3.2164e-09
7.14416e-09
-2.52394e-09
2.79259e-09
6.85003e-09
-1.96915e-09
2.26328e-09
6.53219e-09
-1.31485e-09
1.63269e-09
6.19221e-09
-5.60798e-10
9.00775e-10
5.82989e-09
2.98821e-10
6.35005e-11
5.4411e-09
1.2684e-09
-8.79608e-10
5.00793e-09
2.322e-09
-1.88883e-09
4.49876e-09
3.33279e-09
-2.82362e-09
3.91462e-09
3.9875e-09
-3.40337e-09
3.49713e-09
3.55834e-09
-3.14085e-09
2.38232e-09
-5.22461e-10
2.54308e-09
-5.22486e-10
2.76237e-09
-4.2457e-10
3.00854e-09
-2.85451e-10
3.26838e-09
-1.27158e-10
3.53522e-09
3.76937e-11
3.80666e-09
2.03951e-10
4.08191e-09
3.69401e-10
4.3608e-09
5.32416e-10
4.64348e-09
6.91302e-10
4.93023e-09
8.44107e-10
5.22142e-09
9.88669e-10
5.51759e-09
1.12233e-09
5.81951e-09
1.24169e-09
6.12824e-09
1.34264e-09
6.44525e-09
1.42033e-09
6.7726e-09
1.4693e-09
7.11335e-09
1.48396e-09
7.47175e-09
1.45692e-09
7.85321e-09
1.37511e-09
8.2626e-09
1.20119e-09
8.69982e-09
8.48525e-10
9.09012e-09
1.52143e-10
9.40366e-09
-6.23012e-10
9.64121e-09
-1.3558e-09
9.80662e-09
-2.00289e-09
9.90594e-09
-2.54286e-09
9.94574e-09
-2.96897e-09
9.93169e-09
-3.2784e-09
9.8684e-09
-3.47101e-09
9.75991e-09
-3.54842e-09
9.61007e-09
-3.51143e-09
9.42279e-09
-3.36065e-09
9.20219e-09
-3.09769e-09
8.95259e-09
-2.72581e-09
8.67849e-09
-2.24983e-09
8.38467e-09
-1.67533e-09
8.07682e-09
-1.007e-09
7.76282e-09
-2.46803e-10
7.4543e-09
6.07346e-10
7.16837e-09
1.55433e-09
6.92603e-09
2.56434e-09
6.75461e-09
3.50421e-09
6.6809e-09
4.06122e-09
3.59637e-09
6.58166e-09
4.16564e-09
-5.35317e-10
4.23708e-09
-5.93926e-10
4.37891e-09
-5.66403e-10
4.57364e-09
-4.80181e-10
4.80254e-09
-3.56061e-10
5.05374e-09
-2.13507e-10
5.3204e-09
-6.27028e-11
5.59861e-09
9.11896e-11
5.88619e-09
2.44833e-10
6.18199e-09
3.95501e-10
6.48546e-09
5.40637e-10
6.79642e-09
6.7771e-10
7.11502e-09
8.03735e-10
7.44175e-09
9.14965e-10
7.77745e-09
1.00694e-09
8.12338e-09
1.07439e-09
8.48139e-09
1.11129e-09
8.85427e-09
1.11108e-09
9.24591e-09
1.06528e-09
9.66135e-09
9.5968e-10
1.01049e-08
7.57598e-10
1.05759e-08
3.77519e-10
1.09946e-08
-2.66533e-10
1.13302e-08
-9.58575e-10
1.15841e-08
-1.60976e-09
1.17607e-08
-2.17948e-09
1.18664e-08
-2.64855e-09
1.19083e-08
-3.0109e-09
1.18928e-08
-3.26282e-09
1.18249e-08
-3.40317e-09
1.17096e-08
-3.43306e-09
1.15514e-08
-3.35326e-09
1.13554e-08
-3.16465e-09
1.1127e-08
-2.8693e-09
1.08723e-08
-2.47106e-09
1.05979e-08
-1.97548e-09
1.03119e-08
-1.38931e-09
1.00244e-08
-7.19525e-10
9.75014e-09
2.74732e-11
9.51178e-09
8.45708e-10
9.34357e-09
1.72253e-09
9.28959e-09
2.61832e-09
9.38328e-09
3.41052e-09
9.58877e-09
3.85573e-09
3.51756e-09
9.66758e-09
6.61706e-09
-5.13628e-10
6.62769e-09
-6.04557e-10
6.69222e-09
-6.30926e-10
6.81719e-09
-6.05158e-10
6.99172e-09
-5.30589e-10
7.20355e-09
-4.2534e-10
7.44397e-09
-3.03118e-10
7.7066e-09
-1.7144e-10
7.98711e-09
-3.56808e-11
8.28274e-09
9.98767e-11
8.59174e-09
2.3163e-10
8.91308e-09
3.56378e-10
9.24624e-09
4.70573e-10
9.59125e-09
5.69955e-10
9.94854e-09
6.49649e-10
1.0319e-08
7.03921e-10
1.07041e-08
7.26189e-10
1.11062e-08
7.09014e-10
1.15285e-08
6.42935e-10
1.19755e-08
5.12726e-10
1.24506e-08
2.82523e-10
1.2952e-08
-1.23919e-10
1.33955e-08
-7.10036e-10
1.37497e-08
-1.31275e-09
1.40169e-08
-1.87699e-09
1.42018e-08
-2.36439e-09
1.43113e-08
-2.75806e-09
1.43532e-08
-3.05276e-09
1.43343e-08
-3.24397e-09
1.42607e-08
-3.32957e-09
1.4138e-08
-3.31028e-09
1.39717e-08
-3.18701e-09
1.37683e-08
-2.96117e-09
1.35346e-08
-2.6356e-09
1.32786e-08
-2.21514e-09
1.30098e-08
-1.70665e-09
1.27394e-08
-1.11885e-09
1.24818e-08
-4.62006e-10
1.22574e-08
2.51875e-10
1.20956e-08
1.00756e-09
1.2037e-08
1.78113e-09
1.21276e-08
2.52775e-09
1.2388e-08
3.15009e-09
1.27598e-08
3.48396e-09
3.30095e-09
1.29764e-08
9.90704e-09
-4.76818e-10
9.88015e-09
-5.77669e-10
9.88634e-09
-6.37115e-10
9.9395e-09
-6.5831e-10
1.00459e-08
-6.36952e-10
1.01987e-08
-5.7816e-10
1.0391e-08
-4.95476e-10
1.06165e-08
-3.96904e-10
1.08698e-08
-2.88954e-10
1.11469e-08
-1.77266e-10
1.14451e-08
-6.6557e-11
1.17623e-08
3.91687e-11
1.20973e-08
1.35616e-10
1.24494e-08
2.17859e-10
1.28185e-08
2.80528e-10
1.3205e-08
3.17404e-10
1.36098e-08
3.21395e-10
1.40346e-08
2.84258e-10
1.44817e-08
1.95757e-10
1.49546e-08
3.98191e-11
1.54555e-08
-2.18346e-10
1.59811e-08
-6.49483e-10
1.64432e-08
-1.17219e-09
1.68103e-08
-1.67985e-09
1.70857e-08
-2.15238e-09
1.72744e-08
-2.55305e-09
1.73836e-08
-2.86732e-09
1.7422e-08
-3.09113e-09
1.73972e-08
-3.21915e-09
1.73159e-08
-3.24831e-09
1.71847e-08
-3.17908e-09
1.70104e-08
-3.01274e-09
1.68007e-08
-2.75147e-09
1.65643e-08
-2.39922e-09
1.63114e-08
-1.96218e-09
1.60537e-08
-1.44897e-09
1.58056e-08
-8.70778e-10
1.55851e-08
-2.41482e-10
1.54152e-08
4.21761e-10
1.53263e-08
1.09652e-09
1.5355e-08
1.7524e-09
1.55363e-08
2.34643e-09
1.58756e-08
2.81083e-09
1.63066e-08
3.05293e-09
2.97435e-09
1.66332e-08
1.42361e-08
-4.37657e-10
1.4191e-08
-5.32554e-10
1.4162e-08
-6.08194e-10
1.41608e-08
-6.57018e-10
1.42011e-08
-6.77345e-10
1.42867e-08
-6.63726e-10
1.4416e-08
-6.24745e-10
1.45854e-08
-5.66335e-10
1.4791e-08
-4.94499e-10
1.5029e-08
-4.15276e-10
1.52964e-08
-3.33941e-10
1.55905e-08
-2.55022e-10
1.59097e-08
-1.83542e-10
1.62527e-08
-1.25122e-10
1.66188e-08
-8.56182e-11
1.70079e-08
-7.16943e-11
1.74202e-08
-9.08667e-11
1.78565e-08
-1.5204e-10
1.83182e-08
-2.65947e-10
1.88073e-08
-4.49246e-10
1.93242e-08
-7.35269e-10
1.98636e-08
-1.18893e-09
2.03348e-08
-1.64338e-09
2.07063e-08
-2.0513e-09
2.09822e-08
-2.42828e-09
2.11677e-08
-2.73861e-09
2.12707e-08
-2.97031e-09
2.13005e-08
-3.1209e-09
2.12657e-08
-3.18436e-09
2.11739e-08
-3.15652e-09
2.10326e-08
-3.03775e-09
2.08499e-08
-2.83001e-09
2.06349e-08
-2.53651e-09
2.03982e-08
-2.16254e-09
2.0152e-08
-1.7159e-09
1.99102e-08
-1.20719e-09
1.96894e-08
-6.4997e-10
1.95092e-08
-6.13078e-11
1.93924e-08
5.38563e-10
1.93652e-08
1.1237e-09
1.9454e-08
1.66357e-09
1.96778e-08
2.12264e-09
2.00295e-08
2.45912e-09
2.04528e-08
2.62964e-09
2.6008e-09
2.08264e-08
1.98388e-08
-4.03189e-10
1.97924e-08
-4.86137e-10
1.97472e-08
-5.62965e-10
1.97156e-08
-6.2549e-10
1.97081e-08
-6.69758e-10
1.9735e-08
-6.90709e-10
1.98006e-08
-6.90262e-10
1.99058e-08
-6.71557e-10
2.005e-08
-6.3876e-10
2.02319e-08
-5.97179e-10
2.04496e-08
-5.51589e-10
2.07009e-08
-5.06326e-10
2.09842e-08
-4.66861e-10
2.12984e-08
-4.39301e-10
2.16425e-08
-4.2977e-10
2.20161e-08
-4.45217e-10
2.24186e-08
-4.93387e-10
2.28502e-08
-5.83618e-10
2.3311e-08
-7.26746e-10
2.38014e-08
-9.39633e-10
2.43197e-08
-1.25362e-09
2.4858e-08
-1.72726e-09
2.53246e-08
-2.10996e-09
2.56885e-08
-2.41514e-09
2.59543e-08
-2.69416e-09
2.61274e-08
-2.91168e-09
2.62158e-08
-3.05873e-09
2.62301e-08
-3.13515e-09
2.61799e-08
-3.13417e-09
2.60736e-08
-3.05019e-09
2.59195e-08
-2.88374e-09
2.57273e-08
-2.63774e-09
2.55074e-08
-2.31667e-09
2.52722e-08
-1.92729e-09
2.50353e-08
-1.47906e-09
2.48125e-08
-9.84351e-10
2.46211e-08
-4.58584e-10
2.44801e-08
7.97265e-11
2.44096e-08
6.09072e-10
2.44285e-08
1.10478e-09
2.45514e-08
1.54069e-09
2.47828e-08
1.8912e-09
2.51084e-08
2.13356e-09
2.54859e-08
2.25208e-09
2.24233e-09
2.58444e-08
2.69898e-08
-3.75503e-10
2.69502e-08
-4.46532e-10
2.69049e-08
-5.17712e-10
2.68626e-08
-5.83152e-10
2.68314e-08
-6.38522e-10
2.68208e-08
-6.80108e-10
2.68377e-08
-7.07179e-10
2.68866e-08
-7.20444e-10
2.69703e-08
-7.22517e-10
2.70908e-08
-7.17691e-10
2.72485e-08
-7.09253e-10
2.74428e-08
-7.00672e-10
2.76736e-08
-6.97589e-10
2.79404e-08
-7.0615e-10
2.8243e-08
-7.32328e-10
2.85808e-08
-7.83024e-10
2.89533e-08
-8.65885e-10
2.936e-08
-9.90333e-10
2.98e-08
-1.16676e-09
3.02721e-08
-1.41174e-09
3.07724e-08
-1.7539e-09
3.12898e-08
-2.24464e-09
3.1734e-08
-2.55419e-09
3.20749e-08
-2.75609e-09
3.23174e-08
-2.93664e-09
3.24661e-08
-3.06032e-09
3.25294e-08
-3.12207e-09
3.25195e-08
-3.12522e-09
3.24472e-08
-3.06186e-09
3.23213e-08
-2.92428e-09
3.21511e-08
-2.7136e-09
3.19474e-08
-2.43404e-09
3.17223e-08
-2.09151e-09
3.14891e-08
-1.69416e-09
3.12629e-08
-1.25285e-09
3.10597e-08
-7.81142e-10
3.08963e-08
-2.95197e-10
3.07893e-08
1.86698e-10
3.07541e-08
6.44367e-10
3.08016e-08
1.05721e-09
3.09366e-08
1.40571e-09
3.1154e-08
1.67384e-09
3.14363e-08
1.85121e-09
3.17529e-08
1.93551e-09
1.93312e-09
3.20621e-08
3.60054e-08
-3.53764e-10
3.59743e-08
-4.15414e-10
3.59365e-08
-4.79854e-10
3.58967e-08
-5.43337e-10
3.58606e-08
-6.02514e-10
3.5835e-08
-6.54497e-10
3.58264e-08
-6.98507e-10
3.58393e-08
-7.33411e-10
3.58788e-08
-7.61979e-10
3.59489e-08
-7.87769e-10
3.60516e-08
-8.11976e-10
3.61884e-08
-8.37465e-10
3.6361e-08
-8.70243e-10
3.65709e-08
-9.15991e-10
3.68187e-08
-9.80108e-10
3.71048e-08
-1.06913e-09
3.74291e-08
-1.19019e-09
3.77911e-08
-1.3524e-09
3.81894e-08
-1.56505e-09
3.86215e-08
-1.84382e-09
3.90813e-08
-2.21369e-09
3.95546e-08
-2.71796e-09
3.99559e-08
-2.95542e-09
4.02563e-08
-3.05657e-09
4.04601e-08
-3.14036e-09
4.05704e-08
-3.17068e-09
4.05968e-08
-3.14843e-09
4.05533e-08
-3.08174e-09
4.04518e-08
-2.96031e-09
4.03008e-08
-2.77332e-09
4.01106e-08
-2.52342e-09
3.98931e-08
-2.21654e-09
3.96615e-08
-1.85987e-09
3.943e-08
-1.46271e-09
3.92139e-08
-1.03669e-09
3.90284e-08
-5.95666e-10
3.88885e-08
-1.55267e-10
3.8807e-08
2.68213e-10
3.87936e-08
6.57697e-10
3.8853e-08
9.97877e-10
3.89827e-08
1.27595e-09
3.91731e-08
1.48342e-09
3.94071e-08
1.61726e-09
3.96618e-08
1.68076e-09
1.68277e-09
3.99122e-08
4.72394e-08
-3.36973e-10
4.72161e-08
-3.92089e-10
4.71873e-08
-4.5112e-10
4.71559e-08
-5.1186e-10
4.71254e-08
-5.72057e-10
4.71003e-08
-6.29373e-10
4.70857e-08
-6.83961e-10
4.70848e-08
-7.32471e-10
4.71033e-08
-7.80516e-10
4.71451e-08
-8.29523e-10
4.72117e-08
-8.78568e-10
4.7306e-08
-9.31779e-10
4.74314e-08
-9.95636e-10
4.75902e-08
-1.07478e-09
4.77842e-08
-1.17414e-09
4.80149e-08
-1.29982e-09
4.82829e-08
-1.45825e-09
4.85884e-08
-1.65791e-09
4.89298e-08
-1.90636e-09
4.93038e-08
-2.21791e-09
4.9703e-08
-2.61283e-09
5.01103e-08
-3.12524e-09
5.04486e-08
-3.29373e-09
5.06915e-08
-3.29946e-09
5.08412e-08
-3.29008e-09
5.08992e-08
-3.22868e-09
5.08776e-08
-3.1268e-09
5.0793e-08
-2.99718e-09
5.06564e-08
-2.82369e-09
5.04756e-08
-2.59254e-09
5.0262e-08
-2.30984e-09
5.00286e-08
-1.98313e-09
4.97893e-08
-1.62053e-09
4.95584e-08
-1.23183e-09
4.93504e-08
-8.28683e-10
4.91788e-08
-4.24107e-10
4.90555e-08
-3.19403e-11
4.89891e-08
3.3456e-10
4.89845e-08
6.62363e-10
4.90411e-08
9.41303e-10
4.91529e-08
1.16409e-09
4.9309e-08
1.32736e-09
4.94942e-08
1.43203e-09
4.96918e-08
1.48318e-09
1.48913e-09
4.98854e-08
6.10765e-08
-3.25756e-10
6.10612e-08
-3.76781e-10
6.10424e-08
-4.32291e-10
6.10216e-08
-4.91143e-10
6.10015e-08
-5.51961e-10
6.09855e-08
-6.13296e-10
6.09765e-08
-6.74999e-10
6.0979e-08
-7.3493e-10
6.09954e-08
-7.96917e-10
6.10281e-08
-8.62272e-10
6.10808e-08
-9.31204e-10
6.11565e-08
-1.00751e-09
6.12574e-08
-1.09653e-09
6.13854e-08
-1.20284e-09
6.15427e-08
-1.33135e-09
6.17307e-08
-1.4879e-09
6.19507e-08
-1.67819e-09
6.22029e-08
-1.91011e-09
6.24856e-08
-2.18908e-09
6.27956e-08
-2.52795e-09
6.31239e-08
-2.94113e-09
6.34516e-08
-3.45294e-09
6.37141e-08
-3.5562e-09
6.38874e-08
-3.47272e-09
6.39709e-08
-3.37357e-09
6.39652e-08
-3.22305e-09
6.38908e-08
-3.05243e-09
6.37643e-08
-2.87059e-09
6.35893e-08
-2.64878e-09
6.33763e-08
-2.37952e-09
6.31382e-08
-2.07174e-09
6.28888e-08
-1.73366e-09
6.26418e-08
-1.37359e-09
6.24111e-08
-1.00109e-09
6.22093e-08
-6.26884e-10
6.20474e-08
-2.62217e-10
6.19334e-08
8.19974e-11
6.18726e-08
3.9537e-10
6.18655e-08
6.69474e-10
6.19086e-08
8.98193e-10
6.19945e-08
1.07819e-09
6.21127e-08
1.20919e-09
6.22508e-08
1.29388e-09
6.23965e-08
1.33748e-09
1.34696e-09
6.25387e-08
7.79408e-08
-3.2261e-10
7.79356e-08
-3.7161e-10
7.79288e-08
-4.25472e-10
7.79214e-08
-4.83749e-10
7.79152e-08
-5.45812e-10
7.7913e-08
-6.11076e-10
7.79171e-08
-6.79113e-10
7.79318e-08
-7.49588e-10
7.79564e-08
-8.21555e-10
7.79945e-08
-9.0038e-10
7.80509e-08
-9.876e-10
7.81279e-08
-1.08446e-09
7.82259e-08
-1.19452e-09
7.8346e-08
-1.32302e-09
7.84897e-08
-1.47502e-09
7.86578e-08
-1.65596e-09
7.88504e-08
-1.87083e-09
7.90673e-08
-2.12697e-09
7.93056e-08
-2.42746e-09
7.95618e-08
-2.78415e-09
7.9825e-08
-3.20429e-09
8.00747e-08
-3.70261e-09
8.02618e-08
-3.74333e-09
8.03627e-08
-3.57361e-09
8.03716e-08
-3.38246e-09
8.03046e-08
-3.15606e-09
8.0189e-08
-2.93686e-09
8.00232e-08
-2.7048e-09
7.98113e-08
-2.43687e-09
7.95687e-08
-2.13686e-09
7.93097e-08
-1.8128e-09
7.90482e-08
-1.4721e-09
7.87971e-08
-1.12252e-09
7.85686e-08
-7.72608e-10
7.83731e-08
-4.31356e-10
7.82183e-08
-1.07417e-10
7.81091e-08
1.91173e-10
7.80473e-08
4.57207e-10
7.80308e-08
6.85921e-10
7.80548e-08
8.74265e-10
7.81115e-08
1.02141e-09
7.8192e-08
1.1287e-09
7.82865e-08
1.19937e-09
7.83859e-08
1.23815e-09
1.25058e-09
7.84822e-08
9.8329e-08
-3.30498e-10
9.83367e-08
-3.79294e-10
9.83445e-08
-4.33241e-10
9.83531e-08
-4.92356e-10
9.83638e-08
-5.56529e-10
9.83784e-08
-6.25621e-10
9.83987e-08
-6.99403e-10
9.84277e-08
-7.78655e-10
9.84697e-08
-8.63495e-10
9.85248e-08
-9.55477e-10
9.85946e-08
-1.05741e-09
9.86818e-08
-1.17165e-09
9.87881e-08
-1.30086e-09
9.89142e-08
-1.44914e-09
9.90604e-08
-1.62124e-09
9.92265e-08
-1.82206e-09
9.94114e-08
-2.05566e-09
9.96131e-08
-2.32868e-09
9.98272e-08
-2.6416e-09
1.00049e-07
-3.00556e-09
1.00264e-07
-3.41958e-09
1.00451e-07
-3.8897e-09
1.00576e-07
-3.86859e-09
1.00605e-07
-3.6026e-09
1.00555e-07
-3.33234e-09
1.00455e-07
-3.05558e-09
1.00305e-07
-2.78766e-09
1.00105e-07
-2.50399e-09
9.98654e-08
-2.19761e-09
9.96044e-08
-1.87584e-09
9.93358e-08
-1.54424e-09
9.90725e-08
-1.20881e-09
9.88261e-08
-8.76073e-10
9.86064e-08
-5.52908e-10
9.84211e-08
-2.46098e-10
9.82746e-08
3.90589e-11