/*--------------------------------*- C++ -*----------------------------------*\
| =========                 |                                                 |
| \\      /  F ield         | OpenFOAM: The Open Source CFD Toolbox           |
|  \\    /   O peration     | Version:  2312                                  |
|   \\  /    A nd           | Website:  www.openfoam.com                      |
|    \\/     M anipulation  |                                                 |
\*---------------------------------------------------------------------------*/
FoamFile
{
    version     2.0;
    format      ascii;
    arch        "LSB;label=32;scalar=64";
    class       volVectorField;
    location    "183.25";
    object      U;
}
// * * * * * * * * * * * * * * * * * * * * * * * * * * * * * * * * * * * * * //

dimensions      [0 1 -1 0 0 0 0];

internalField   nonuniform List<vector> 
4800
(
(0.000464239 3.71887e-07 -2.66968e-26)
(0.000454747 3.90871e-07 -1.84449e-25)
(0.000448812 3.86398e-07 2.37643e-25)
(0.000445271 3.63431e-07 1.04997e-25)
(0.000443381 3.18519e-07 1.52181e-24)
(0.00044282 2.73835e-07 -3.60347e-24)
(0.000443293 2.20331e-07 3.32979e-24)
(0.000444591 1.46788e-07 -4.7702e-24)
(0.000446808 -8.60098e-10 1.5434e-24)
(0.000450077 -2.45988e-07 5.14057e-24)
(0.000454783 -7.25801e-07 -1.58701e-24)
(0.000462196 -2.07527e-06 -1.40385e-25)
(0.000479402 -7.09095e-06 -1.90422e-24)
(0.000523571 -2.72313e-05 8.89567e-25)
(0.000595593 -8.71424e-05 -7.08939e-25)
(0.00143549 1.98233e-06 -8.47189e-26)
(0.00140708 1.47736e-06 1.05516e-25)
(0.00138929 1.07466e-06 -9.43782e-25)
(0.0013786 7.24455e-07 7.11965e-25)
(0.00137279 3.73346e-07 2.19902e-24)
(0.00137086 2.19178e-08 -3.46062e-24)
(0.00137186 -3.72641e-07 -9.48201e-25)
(0.00137517 -8.58659e-07 -1.98985e-25)
(0.00138112 -1.62949e-06 7.8681e-24)
(0.00138997 -2.86323e-06 -5.78236e-24)
(0.00140285 -5.18801e-06 6.29372e-25)
(0.00142244 -1.07977e-05 9.47652e-25)
(0.00145731 -2.71218e-05 -1.3943e-24)
(0.00151755 -7.67094e-05 -4.24731e-25)
(0.00158147 -0.000186724 1.82673e-24)
(0.00250968 6.30774e-06 -6.05167e-26)
(0.00246154 4.65376e-06 6.19386e-26)
(0.00243134 3.36377e-06 6.17861e-25)
(0.00241309 2.27349e-06 -1.46002e-24)
(0.00240302 1.22479e-06 1.41303e-24)
(0.00239933 1.18918e-07 1.27885e-24)
(0.00240045 -1.08547e-06 -3.30592e-24)
(0.00240518 -2.6027e-06 -2.02382e-24)
(0.00241415 -4.83845e-06 4.89508e-24)
(0.00242736 -8.27742e-06 1.81317e-24)
(0.00244609 -1.4378e-05 -6.31618e-24)
(0.0024724 -2.70026e-05 -9.36263e-25)
(0.00251025 -5.53571e-05 2.68481e-24)
(0.00255823 -0.000117781 4.21841e-24)
(0.00259196 -0.000220046 -2.17642e-24)
(0.00369362 1.39942e-05 2.23418e-26)
(0.00362527 1.03629e-05 -1.54338e-25)
(0.00358223 7.54043e-06 6.77803e-25)
(0.00355601 5.16975e-06 7.00188e-25)
(0.00354128 2.92086e-06 -7.1831e-25)
(0.00353527 5.51937e-07 -3.93372e-24)
(0.00353593 -1.9184e-06 -2.5802e-24)
(0.00354127 -5.01052e-06 9.90638e-24)
(0.00355204 -9.45658e-06 4.05015e-24)
(0.00356769 -1.59623e-05 -5.87999e-24)
(0.00358891 -2.66072e-05 -2.34839e-24)
(0.00361606 -4.57718e-05 -1.77329e-24)
(0.00364837 -8.11167e-05 5.84813e-26)
(0.00367883 -0.000141938 1.30321e-24)
(0.00369005 -0.000222474 6.33826e-27)
(0.00499223 2.57374e-05 -4.09888e-26)
(0.00490381 1.91106e-05 -2.4809e-25)
(0.00484783 1.39735e-05 -1.48486e-25)
(0.00481336 9.68256e-06 4.20293e-25)
(0.00479358 5.67316e-06 -1.14758e-24)
(0.00478463 1.58502e-06 2.85347e-24)
(0.004784 -2.80105e-06 -5.05619e-25)
(0.00478904 -7.86974e-06 1.68743e-24)
(0.00480011 -1.50028e-05 -9.47957e-24)
(0.004816 -2.48794e-05 1.78761e-23)
(0.00483645 -3.96706e-05 -1.72149e-23)
(0.00486017 -6.29659e-05 9.02608e-24)
(0.00488388 -9.93589e-05 -8.32237e-24)
(0.00490019 -0.000151567 7.81278e-24)
(0.0048994 -0.000211817 -3.10308e-24)
(0.00640685 4.23573e-05 5.42085e-26)
(0.00629975 3.15649e-05 1.9186e-25)
(0.00623138 2.32117e-05 -1.00291e-24)
(0.00618874 1.62691e-05 -6.07663e-25)
(0.00616367 9.89006e-06 1.66665e-24)
(0.0061513 3.49838e-06 5.81479e-25)
(0.0061484 -3.14478e-06 -4.49973e-24)
(0.00615225 -1.07726e-05 1.06611e-23)
(0.00616206 -2.07223e-05 -1.37806e-23)
(0.00617616 -3.37729e-05 3.32052e-24)
(0.00619337 -5.16689e-05 9.90093e-24)
(0.00621149 -7.65949e-05 -1.36612e-23)
(0.00622679 -0.000110322 6.83477e-24)
(0.00623382 -0.000152227 6.91314e-24)
(0.00622827 -0.000196156 -5.25146e-24)
(0.00793317 6.45254e-05 4.49407e-26)
(0.00781079 4.8342e-05 -2.63848e-25)
(0.00773179 3.5806e-05 9.31106e-25)
(0.00768178 2.54219e-05 -1.27777e-24)
(0.00765165 1.60342e-05 -4.22513e-24)
(0.00763564 6.82116e-06 7.19543e-24)
(0.00762987 -2.54792e-06 -4.29737e-24)
(0.00763152 -1.29916e-05 1.44384e-23)
(0.0076388 -2.56892e-05 -9.83195e-24)
(0.00764966 -4.13841e-05 -4.53799e-24)
(0.00766229 -6.11477e-05 -8.80063e-24)
(0.00767428 -8.58483e-05 8.11158e-24)
(0.00768267 -0.000115459 2.26377e-24)
(0.00768415 -0.00014824 1.90909e-24)
(0.00767744 -0.000180173 -1.67759e-24)
(0.00955874 9.23639e-05 -6.50286e-26)
(0.00942755 6.97181e-05 8.74468e-25)
(0.00934163 5.20939e-05 -2.01451e-24)
(0.00928631 3.75051e-05 -1.58833e-24)
(0.00925215 2.4494e-05 6.4281e-25)
(0.00923291 1.20111e-05 1.1931e-24)
(0.00922421 -4.52631e-07 4.11377e-24)
(0.00922305 -1.37908e-05 -1.10494e-23)
(0.00922707 -2.90173e-05 -5.74408e-24)
(0.00923398 -4.66707e-05 1.60653e-23)
(0.00924173 -6.71951e-05 -4.88377e-24)
(0.00924821 -9.05778e-05 1.66848e-23)
(0.00925143 -0.000116017 -8.76285e-24)
(0.00924964 -0.000141818 -2.75747e-24)
(0.009243 -0.000165609 1.62697e-24)
(0.0112617 0.000124887 -8.63733e-27)
(0.0111319 9.52156e-05 4.84447e-25)
(0.0110453 7.18818e-05 -6.87224e-25)
(0.0109885 5.25045e-05 1.59905e-24)
(0.0109527 3.53848e-05 -9.40398e-24)
(0.0109315 1.93001e-05 9.89028e-24)
(0.0109207 3.57036e-06 -1.52346e-23)
(0.0109169 -1.26192e-05 9.42721e-24)
(0.0109177 -3.00407e-05 6.89624e-24)
(0.0109208 -4.90017e-05 1.47044e-23)
(0.0109243 -6.95129e-05 -1.91673e-23)
(0.0109265 -9.11535e-05 -3.46552e-24)
(0.0109262 -0.000113016 1.66321e-24)
(0.0109226 -0.00013387 1.14042e-23)
(0.0109163 -0.000152414 -4.61587e-24)
(0.0130136 0.000159404 4.74178e-26)
(0.0128982 0.000123083 -2.04446e-25)
(0.0128194 9.40037e-05 8.98183e-25)
(0.0127669 6.96488e-05 -3.10126e-24)
(0.0127331 4.82212e-05 4.64972e-24)
(0.0127126 2.84201e-05 -5.90634e-24)
(0.0127012 9.46011e-06 9.76914e-24)
(0.012696 -9.36144e-06 1.61993e-24)
(0.0126946 -2.85932e-05 -1.32238e-23)
(0.012695 -4.8355e-05 1.85915e-23)
(0.0126955 -6.84538e-05 -2.04221e-23)
(0.0126949 -8.84056e-05 -5.88891e-24)
(0.0126927 -0.000107503 1.04702e-23)
(0.0126884 -0.000125005 3.06896e-24)
(0.0126828 -0.000140265 -1.33456e-24)
(0.014789 0.000191485 1.87289e-25)
(0.0147001 0.000150032 -1.58604e-24)
(0.0146379 0.000115985 -2.48136e-24)
(0.0145958 8.70591e-05 5.92509e-24)
(0.0145687 6.15694e-05 2.55734e-24)
(0.0145521 3.82737e-05 -1.60388e-23)
(0.0145428 1.63787e-05 5.01811e-24)
(0.0145382 -4.6956e-06 3.5635e-24)
(0.0145364 -2.53232e-05 -1.4798e-23)
(0.0145357 -4.55265e-05 1.55458e-23)
(0.014535 -6.50945e-05 -1.21104e-23)
(0.0145334 -8.36621e-05 3.12293e-23)
(0.0145308 -0.000100794 -1.48843e-23)
(0.0145267 -0.000116127 8.70665e-24)
(0.0145222 -0.000129397 -2.36307e-24)
(0.0165821 0.000216593 -6.49779e-26)
(0.0165242 0.000172094 1.05986e-24)
(0.0164833 0.000134477 -2.07795e-24)
(0.016456 0.00010194 -1.01885e-24)
(0.0164388 7.30961e-05 1.14331e-23)
(0.0164289 4.68934e-05 -1.76245e-24)
(0.016424 2.2618e-05 -1.9911e-23)
(0.016422 -1.83701e-07 2.29821e-23)
(0.0164216 -2.17742e-05 -5.20846e-24)
(0.0164216 -4.21626e-05 -1.75413e-23)
(0.0164214 -6.12241e-05 1.85688e-23)
(0.0164205 -7.87701e-05 9.8307e-24)
(0.0164188 -9.46048e-05 -8.40834e-24)
(0.016416 -0.000108615 -1.43106e-23)
(0.0164132 -0.000120755 1.19355e-24)
(0.0184152 0.000233362 -8.41807e-27)
(0.0183818 0.000187165 -1.1558e-24)
(0.0183592 0.000147178 5.55729e-24)
(0.0183453 0.000112045 2.98986e-25)
(0.0183379 8.07052e-05 3.03862e-24)
(0.0183349 5.23338e-05 -1.1105e-23)
(0.0183347 2.63472e-05 9.30895e-24)
(0.0183361 2.35931e-06 2.01111e-24)
(0.018338 -1.97938e-05 1.86734e-23)
(0.0183398 -4.0197e-05 -2.9061e-23)
(0.0183412 -5.88392e-05 -1.29831e-23)
(0.0183417 -7.56923e-05 -8.44596e-24)
(0.0183417 -9.07378e-05 1.60009e-23)
(0.0183407 -0.000104015 -4.48878e-25)
(0.0183398 -0.000115595 1.53128e-24)
(0.0203174 0.000245019 -2.30545e-26)
(0.0202964 0.000197158 1.12873e-24)
(0.0202838 0.000155139 -1.64541e-24)
(0.0202774 0.000117885 5.75954e-28)
(0.0202756 8.45729e-05 2.23102e-24)
(0.0202766 5.45379e-05 5.61258e-24)
(0.0202793 2.73051e-05 -2.17193e-23)
(0.0202826 2.5223e-06 1.92707e-24)
(0.0202861 -2.0017e-05 1.09465e-23)
(0.0202892 -4.04476e-05 -4.93579e-24)
(0.0202918 -5.88583e-05 1.35184e-23)
(0.0202936 -7.535e-05 9.34152e-24)
(0.0202949 -9.00265e-05 -1.69861e-23)
(0.0202955 -0.000103016 1.1517e-23)
(0.0202961 -0.000114451 -9.56156e-24)
(0.0222813 0.000255538 -6.6831e-25)
(0.0222656 0.000205872 5.27e-25)
(0.0222566 0.00016181 1.82844e-24)
(0.0222526 0.000122536 -9.98986e-24)
(0.0222521 8.74277e-05 8.8415e-24)
(0.0222537 5.59199e-05 -6.47088e-24)
(0.0222565 2.75885e-05 4.65581e-24)
(0.0222597 2.09423e-06 -3.26307e-23)
(0.022263 -2.09089e-05 4.70913e-23)
(0.022266 -4.15705e-05 -2.75297e-23)
(0.0222687 -6.00639e-05 2.45455e-23)
(0.0222707 -7.65835e-05 2.0338e-23)
(0.0222725 -9.13105e-05 -3.55125e-23)
(0.0222737 -0.000104424 1.15176e-23)
(0.0222749 -0.000116088 -4.81877e-25)
(0.0242428 0.000265211 -2.39961e-26)
(0.0242323 0.000214453 3.11588e-25)
(0.0242262 0.000168881 -3.8927e-25)
(0.0242235 0.000128018 -2.62924e-25)
(0.0242232 9.14245e-05 3.39809e-24)
(0.0242243 5.86688e-05 -5.89591e-24)
(0.0242264 2.93463e-05 5.53736e-24)
(0.0242286 3.08108e-06 -1.75856e-23)
(0.024231 -2.04557e-05 4.00106e-23)
(0.0242332 -4.15407e-05 -5.11789e-23)
(0.0242352 -6.04121e-05 4.18837e-23)
(0.0242369 -7.73061e-05 -1.41356e-23)
(0.0242384 -9.24448e-05 7.26825e-25)
(0.0242394 -0.000106032 3.21324e-24)
(0.0242406 -0.000118246 -6.17398e-24)
(0.0260987 0.000271586 -2.03395e-24)
(0.0260953 0.00022098 4.34395e-24)
(0.0260936 0.000174942 -2.26792e-24)
(0.0260934 0.000133359 -8.06977e-25)
(0.0260944 9.59659e-05 4.40962e-24)
(0.026096 6.24314e-05 -4.71105e-24)
(0.026098 3.23928e-05 -4.62792e-24)
(0.0261 5.54129e-06 -1.14052e-23)
(0.0261019 -1.85152e-05 5.63034e-24)
(0.0261037 -4.0108e-05 2.78943e-23)
(0.0261054 -5.95027e-05 -1.47863e-23)
(0.0261067 -7.69569e-05 8.88127e-24)
(0.0261079 -9.27071e-05 -3.64843e-24)
(0.0261088 -0.000106961 -1.086e-23)
(0.0261098 -0.000119902 5.56005e-24)
(0.0277268 0.000272733 6.86938e-25)
(0.0277302 0.00022349 -1.28095e-24)
(0.0277333 0.000178124 -1.7223e-24)
(0.0277363 0.000136799 3.2657e-24)
(0.0277392 9.94171e-05 -1.93547e-24)
(0.0277421 6.57478e-05 4.40481e-24)
(0.027745 3.54484e-05 -4.29383e-24)
(0.0277474 8.17193e-06 -3.46244e-24)
(0.0277496 -1.63569e-05 3.02983e-24)
(0.0277515 -3.84416e-05 -4.0057e-24)
(0.0277533 -5.83966e-05 9.2669e-24)
(0.0277548 -7.65e-05 4.89486e-24)
(0.0277561 -9.29744e-05 -1.81963e-23)
(0.0277571 -0.000108013 1.26634e-23)
(0.0277582 -0.000121784 -2.60057e-24)
(0.028974 0.000268249 2.09206e-24)
(0.0289831 0.000221431 4.31698e-24)
(0.0289905 0.000177758 -9.27376e-24)
(0.0289965 0.000137657 -2.87077e-24)
(0.0290016 0.000101127 5.7585e-24)
(0.029006 6.79982e-05 1.00557e-24)
(0.0290097 3.80216e-05 -2.17959e-24)
(0.0290128 1.07802e-05 1.03875e-24)
(0.0290157 -1.3946e-05 4.93104e-24)
(0.0290183 -3.64303e-05 -1.25656e-23)
(0.0290206 -5.69585e-05 7.92363e-24)
(0.0290226 -7.57813e-05 -5.97879e-25)
(0.0290244 -9.30917e-05 -5.61135e-25)
(0.0290258 -0.000109056 7.80346e-25)
(0.0290273 -0.000123818 -3.67362e-25)
(0.0296304 0.000254676 -5.65217e-24)
(0.0296451 0.000211372 -1.39037e-23)
(0.0296569 0.000170519 5.08943e-24)
(0.0296664 0.000132658 2.91708e-23)
(0.0296743 9.79027e-05 -8.74091e-24)
(0.0296809 6.60792e-05 -5.43798e-24)
(0.0296863 3.70708e-05 3.51105e-24)
(0.0296908 1.06587e-05 7.70955e-24)
(0.0296944 -1.36192e-05 -1.29836e-23)
(0.0296972 -3.59618e-05 4.60284e-24)
(0.0296994 -5.65805e-05 6.26726e-25)
(0.0297009 -7.56688e-05 1.14456e-25)
(0.029702 -9.3374e-05 -1.41874e-24)
(0.0297026 -0.000109833 2.57554e-24)
(0.029703 -0.000125166 -1.2973e-24)
(0.0294638 0.000236397 9.2123e-24)
(0.0294823 0.000196904 -2.1955e-23)
(0.0294974 0.00015935 2.92542e-24)
(0.0295098 0.000124158 3.8312e-23)
(0.0295202 9.14657e-05 -3.95071e-23)
(0.0295289 6.13035e-05 1.61846e-23)
(0.0295365 3.34472e-05 1.73897e-23)
(0.0295427 7.62051e-06 -4.09334e-23)
(0.0295475 -1.60481e-05 -6.76077e-25)
(0.0295513 -3.78655e-05 1.49821e-23)
(0.0295544 -5.81385e-05 4.61707e-24)
(0.0295568 -7.70403e-05 -3.31094e-24)
(0.0295585 -9.46799e-05 2.79686e-24)
(0.0295599 -0.000111166 -9.85579e-25)
(0.0295607 -0.000126601 3.06946e-25)
(0.0285463 0.000212607 5.84576e-24)
(0.0285672 0.000177432 -1.26816e-23)
(0.0285837 0.000143753 -1.00419e-23)
(0.0285965 0.000111947 4.71081e-23)
(0.0286067 8.21907e-05 -4.56883e-23)
(0.0286146 5.4457e-05 4.05498e-24)
(0.0286204 2.85745e-05 8.51298e-24)
(0.0286252 4.48452e-06 5.72311e-24)
(0.0286291 -1.7823e-05 6.71321e-24)
(0.0286317 -3.86825e-05 -3.68464e-23)
(0.028633 -5.82456e-05 2.31128e-23)
(0.0286336 -7.65975e-05 8.69251e-26)
(0.0286336 -9.38225e-05 1.38566e-23)
(0.0286331 -0.000110016 -6.47227e-24)
(0.028632 -0.000125259 -1.4781e-24)
(0.0270163 0.000185524 1.47597e-23)
(0.0270406 0.000154777 -2.67226e-23)
(0.0270605 0.000125234 5.31163e-24)
(0.0270767 9.7236e-05 -1.53136e-23)
(0.0270899 7.0895e-05 -2.20992e-23)
(0.0271007 4.61352e-05 7.13539e-23)
(0.0271094 2.29792e-05 -2.93335e-23)
(0.0271164 1.34133e-06 9.16047e-24)
(0.0271216 -1.92962e-05 -5.45589e-24)
(0.0271253 -3.8901e-05 -1.67384e-23)
(0.0271276 -5.7391e-05 3.30432e-23)
(0.0271289 -7.47913e-05 -2.04685e-23)
(0.0271292 -9.11858e-05 2.37865e-24)
(0.0271287 -0.000106664 3.96331e-24)
(0.0271273 -0.000121277 -5.09171e-25)
(0.02517 0.000160175 5.73237e-24)
(0.0251961 0.000133345 -3.06835e-23)
(0.0252178 0.000107472 5.49927e-23)
(0.0252356 8.2788e-05 -4.35147e-23)
(0.0252502 5.93768e-05 4.66513e-23)
(0.0252621 3.72007e-05 -1.45991e-23)
(0.0252715 1.61412e-05 -1.08444e-23)
(0.0252788 -3.86442e-06 -1.35205e-23)
(0.0252842 -2.29106e-05 2.69906e-23)
(0.0252879 -4.09849e-05 1.30333e-24)
(0.0252902 -5.80609e-05 -2.8631e-23)
(0.0252911 -7.418e-05 -4.75816e-24)
(0.0252908 -8.94118e-05 8.25996e-24)
(0.0252894 -0.000103814 -2.05515e-24)
(0.0252869 -0.000117413 4.95872e-25)
(0.0231474 0.000134978 7.66483e-25)
(0.0231748 0.0001118 -1.16275e-23)
(0.0231975 8.93252e-05 -7.27974e-24)
(0.0232161 6.77496e-05 5.70787e-23)
(0.0232312 4.71136e-05 -5.78203e-23)
(0.0232433 2.73854e-05 1.73251e-23)
(0.0232527 8.58236e-06 3.13243e-24)
(0.0232597 -9.33674e-06 -1.76545e-24)
(0.0232646 -2.63851e-05 -9.20383e-24)
(0.0232676 -4.25643e-05 4.19805e-23)
(0.0232689 -5.78991e-05 -3.4283e-23)
(0.0232686 -7.24282e-05 -2.08774e-24)
(0.0232668 -8.61814e-05 3.44408e-24)
(0.0232636 -9.91818e-05 3.7897e-24)
(0.0232592 -0.000111439 -3.0464e-24)
(0.0210501 0.000111052 1.14297e-24)
(0.0210776 9.13178e-05 1.08725e-23)
(0.0211003 7.20997e-05 -1.24076e-23)
(0.0211187 5.35397e-05 -9.27895e-24)
(0.0211333 3.57014e-05 6.13052e-23)
(0.0211448 1.86201e-05 -4.68652e-23)
(0.0211533 2.30312e-06 -8.01242e-25)
(0.0211593 -1.33044e-05 -1.09258e-23)
(0.0211629 -2.81809e-05 -1.21115e-24)
(0.0211644 -4.23411e-05 1.46586e-24)
(0.0211638 -5.58055e-05 -7.80311e-24)
(0.0211615 -6.8582e-05 5.51224e-24)
(0.0211574 -8.06711e-05 1.8015e-24)
(0.0211517 -9.20796e-05 1.91523e-24)
(0.0211445 -0.00010281 3.02671e-24)
(0.0189478 8.94871e-05 8.14593e-24)
(0.0189741 7.30066e-05 -1.26288e-23)
(0.0189956 5.68964e-05 -1.09167e-23)
(0.0190128 4.12946e-05 3.34825e-23)
(0.0190262 2.62581e-05 -1.19556e-23)
(0.0190362 1.18144e-05 -1.83463e-23)
(0.0190432 -2.06281e-06 6.25498e-24)
(0.0190474 -1.53516e-05 1.57392e-23)
(0.0190491 -2.80518e-05 -2.64425e-23)
(0.0190484 -4.01683e-05 2.74471e-23)
(0.0190455 -5.16961e-05 -1.55768e-23)
(0.0190407 -6.26272e-05 7.24016e-24)
(0.0190339 -7.29556e-05 -1.08849e-23)
(0.0190253 -8.26825e-05 1.14746e-23)
(0.0190151 -9.18047e-05 -3.06412e-24)
(0.0168876 7.08666e-05 -1.57907e-24)
(0.016912 5.73973e-05 -5.72185e-24)
(0.0169316 4.41998e-05 -1.89509e-23)
(0.016947 3.13838e-05 5.30477e-23)
(0.0169586 1.89865e-05 -9.053e-24)
(0.0169668 7.01978e-06 -1.57413e-23)
(0.0169719 -4.50954e-06 6.04908e-24)
(0.016974 -1.5568e-05 -8.66641e-24)
(0.0169736 -2.61511e-05 -2.07383e-23)
(0.0169706 -3.62531e-05 1.98375e-23)
(0.0169654 -4.58613e-05 9.57148e-25)
(0.0169581 -5.4966e-05 -8.06779e-24)
(0.0169486 -6.35587e-05 9.1306e-24)
(0.0169374 -7.16345e-05 7.41294e-25)
(0.0169243 -7.91847e-05 -9.05835e-25)
(0.0149024 5.52776e-05 6.06525e-24)
(0.0149244 4.45171e-05 9.41603e-24)
(0.0149419 3.39508e-05 -8.32752e-24)
(0.0149554 2.36534e-05 -1.97688e-23)
(0.0149651 1.36559e-05 2.7563e-23)
(0.0149714 3.97052e-06 -3.12257e-23)
(0.0149746 -5.3718e-06 -1.96801e-24)
(0.0149749 -1.43471e-05 1.26581e-23)
(0.0149725 -2.29469e-05 4.68614e-24)
(0.0149676 -3.11602e-05 -1.09648e-23)
(0.0149604 -3.8973e-05 -8.79908e-25)
(0.0149509 -4.63733e-05 2.51629e-23)
(0.0149394 -5.33493e-05 -9.73908e-24)
(0.014926 -5.98921e-05 -2.82356e-24)
(0.0149107 -6.59912e-05 -2.06521e-25)
(0.0130142 4.24804e-05 -6.28722e-24)
(0.0130339 3.40868e-05 8.14227e-24)
(0.0130493 2.5828e-05 1.02284e-24)
(0.0130609 1.77505e-05 1.81248e-23)
(0.0130688 9.87758e-06 -1.44551e-23)
(0.0130735 2.25225e-06 1.54121e-24)
(0.0130752 -5.13785e-06 -1.39164e-24)
(0.013074 -1.22463e-05 -5.07812e-24)
(0.0130702 -1.90639e-05 5.14975e-24)
(0.0130638 -2.55791e-05 -1.67326e-23)
(0.0130551 -3.17777e-05 5.93049e-25)
(0.0130443 -3.76466e-05 4.01736e-24)
(0.0130313 -4.31729e-05 2.81553e-24)
(0.0130164 -4.83472e-05 1.23991e-24)
(0.0129997 -5.31589e-05 5.56545e-25)
(0.0112369 3.21098e-05 4.64747e-24)
(0.0112542 2.57325e-05 -3.64278e-24)
(0.0112677 1.94459e-05 -1.71423e-23)
(0.0112776 1.32717e-05 1.6124e-23)
(0.0112842 7.23733e-06 2.41058e-23)
(0.0112876 1.38174e-06 -5.41097e-24)
(0.0112881 -4.30329e-06 -1.268e-23)
(0.0112859 -9.7839e-06 -1.95202e-23)
(0.0112812 -1.50475e-05 1.50636e-23)
(0.011274 -2.00806e-05 1.11152e-24)
(0.0112645 -2.48705e-05 -3.81275e-24)
(0.0112529 -2.94046e-05 -1.26297e-24)
(0.0112393 -3.3671e-05 2.54173e-24)
(0.0112238 -3.76609e-05 -3.13615e-27)
(0.0112065 -4.13644e-05 -6.30101e-25)
(0.00957749 2.37913e-05 -2.91934e-24)
(0.00959271 1.90875e-05 -2.23043e-24)
(0.00960448 1.44417e-05 2.52302e-24)
(0.00961299 9.85788e-06 -8.90519e-24)
(0.00961842 5.366e-06 2.9508e-23)
(0.00962096 9.90953e-07 -4.05281e-23)
(0.00962078 -3.24245e-06 4.1161e-23)
(0.00961805 -7.34352e-06 -1.78261e-23)
(0.00961289 -1.12886e-05 4.50817e-24)
(0.00960545 -1.50632e-05 3.8671e-25)
(0.00959583 -1.86573e-05 -3.58656e-24)
(0.00958418 -2.20599e-05 1.65828e-24)
(0.00957061 -2.5261e-05 -3.31358e-24)
(0.00955527 -2.82525e-05 -5.38217e-25)
(0.00953825 -3.1026e-05 2.92258e-25)
(0.00803857 1.71851e-05 -1.41605e-24)
(0.00805183 1.3832e-05 3.31447e-25)
(0.00806208 1.05141e-05 8.01735e-25)
(0.00806942 7.22463e-06 -4.01844e-24)
(0.00807401 3.99438e-06 -2.02422e-24)
(0.00807599 8.46291e-07 1.65593e-23)
(0.00807548 -2.20369e-06 -9.87061e-24)
(0.00807264 -5.17143e-06 1.55585e-24)
(0.00806757 -8.02881e-06 -1.47581e-24)
(0.00806039 -1.07638e-05 -1.78112e-24)
(0.00805121 -1.33701e-05 -6.70453e-25)
(0.00804014 -1.5839e-05 3.82796e-24)
(0.00802729 -1.81622e-05 1.35445e-24)
(0.0080128 -2.03329e-05 -2.61239e-24)
(0.00799677 -2.23442e-05 -4.83164e-25)
(0.00661946 1.20005e-05 -5.14129e-25)
(0.0066309 9.70572e-06 -1.89823e-25)
(0.00663978 7.43209e-06 -8.79926e-24)
(0.00664614 5.16774e-06 2.09031e-24)
(0.00665009 2.94001e-06 -7.0025e-24)
(0.00665175 7.68652e-07 4.34024e-24)
(0.00665122 -1.33581e-06 9.21261e-24)
(0.0066486 -3.39696e-06 7.50421e-24)
(0.006644 -5.38274e-06 -1.08449e-23)
(0.0066375 -7.283e-06 3.2849e-24)
(0.00662921 -9.09625e-06 3.16379e-24)
(0.00661922 -1.08155e-05 -4.95268e-24)
(0.00660763 -1.24346e-05 2.6668e-24)
(0.00659456 -1.39478e-05 -3.57511e-25)
(0.0065801 -1.53497e-05 9.0065e-25)
(0.00531733 7.99765e-06 -2.01071e-24)
(0.00532703 6.50607e-06 -2.88867e-24)
(0.00533463 5.02862e-06 -6.76504e-25)
(0.00534011 3.55159e-06 7.29853e-24)
(0.00534357 2.09568e-06 -5.4191e-24)
(0.00534506 6.74912e-07 -1.24471e-24)
(0.0053447 -6.96954e-07 9.29835e-24)
(0.00534252 -2.05577e-06 2.17146e-25)
(0.00533864 -3.36519e-06 -1.88837e-24)
(0.00533312 -4.61649e-06 -8.07149e-24)
(0.00532604 -5.81285e-06 5.73121e-25)
(0.00531749 -6.94889e-06 6.16055e-24)
(0.00530754 -8.02006e-06 -8.14628e-25)
(0.00529631 -9.02188e-06 -1.13296e-24)
(0.00528387 -9.95021e-06 7.87694e-25)
(0.00412786 4.98149e-06 -4.38874e-25)
(0.00413588 4.07671e-06 1.45628e-26)
(0.00414222 3.18428e-06 3.45865e-24)
(0.00414686 2.28963e-06 2.48939e-24)
(0.00414985 1.40634e-06 -1.51958e-24)
(0.00415123 5.37347e-07 -4.22361e-24)
(0.00415112 -2.87685e-07 1.82958e-24)
(0.00414952 -1.11875e-06 -7.97962e-24)
(0.00414649 -1.92462e-06 6.2196e-24)
(0.0041421 -2.69096e-06 3.55333e-24)
(0.00413642 -3.42551e-06 2.30746e-25)
(0.00412951 -4.12427e-06 -4.20731e-24)
(0.00412144 -4.78405e-06 8.59461e-25)
(0.00411229 -5.4015e-06 -7.53393e-25)
(0.00410213 -5.97347e-06 4.0395e-25)
(0.00304573 2.79057e-06 -8.0711e-25)
(0.00305203 2.29184e-06 -4.92399e-27)
(0.0030571 1.80698e-06 2.75463e-24)
(0.00306085 1.32091e-06 -1.7305e-24)
(0.00306336 8.40872e-07 7.61398e-24)
(0.00306462 3.65982e-07 -1.40741e-23)
(0.00306473 -8.1191e-08 1.18376e-23)
(0.00306371 -5.35871e-07 -1.02764e-23)
(0.00306154 -9.80281e-07 7.75682e-24)
(0.00305833 -1.40085e-06 -5.24538e-24)
(0.0030541 -1.80479e-06 1.84646e-24)
(0.00304891 -2.18947e-06 2.88845e-25)
(0.0030428 -2.55267e-06 5.59918e-25)
(0.00303584 -2.89208e-06 -7.16195e-25)
(0.00302808 -3.20542e-06 1.66537e-25)
(0.00206486 1.29721e-06 1.2234e-24)
(0.00206942 1.05777e-06 1.3899e-24)
(0.00207313 8.32906e-07 -5.89147e-24)
(0.00207593 6.10583e-07 4.39595e-24)
(0.00207786 3.92552e-07 -8.72858e-27)
(0.00207893 1.77301e-07 1.27707e-24)
(0.00207918 -2.28663e-08 -1.46706e-24)
(0.00207864 -2.30601e-07 -3.36676e-24)
(0.00207728 -4.31722e-07 3.45272e-24)
(0.00207517 -6.21066e-07 4.54375e-25)
(0.00207234 -8.01021e-07 -3.13464e-24)
(0.00206882 -9.72252e-07 1.11316e-24)
(0.00206464 -1.13415e-06 7.72948e-25)
(0.00205985 -1.28551e-06 -8.29482e-26)
(0.00205447 -1.4242e-06 -1.11787e-25)
(0.00117875 4.25596e-07 -1.23338e-24)
(0.0011815 3.48124e-07 3.8379e-24)
(0.00118377 2.76121e-07 2.44483e-24)
(0.00118552 2.08907e-07 -4.24717e-24)
(0.00118676 1.44745e-07 -5.05537e-25)
(0.0011875 7.99187e-08 -4.79281e-25)
(0.00118776 2.03125e-08 1.53937e-24)
(0.00118756 -4.45711e-08 -2.66179e-24)
(0.00118687 -1.06782e-07 3.84336e-24)
(0.00118574 -1.66234e-07 -1.87458e-24)
(0.00118417 -2.17191e-07 -1.35926e-24)
(0.00118219 -2.67461e-07 8.64842e-25)
(0.00117981 -3.20333e-07 -1.20546e-24)
(0.00117707 -3.7556e-07 1.26425e-24)
(0.00117397 -4.29526e-07 -2.41939e-25)
(0.000380654 1.07871e-07 -8.79799e-27)
(0.00038154 1.59935e-07 7.5117e-25)
(0.000382284 1.98236e-07 9.04412e-25)
(0.000382863 2.26456e-07 -1.3783e-24)
(0.000383288 2.44477e-07 3.06533e-24)
(0.000383551 2.50662e-07 -3.31439e-24)
(0.00038366 2.46981e-07 2.34629e-25)
(0.00038362 2.33857e-07 2.06029e-24)
(0.000383424 2.12593e-07 -2.859e-24)
(0.00038308 1.84071e-07 -6.00849e-25)
(0.000382591 1.53708e-07 2.24306e-24)
(0.000381964 1.16853e-07 -1.01771e-24)
(0.000381203 7.15769e-08 -4.51504e-25)
(0.000380317 1.85743e-08 3.88493e-25)
(0.000379313 -3.93039e-08 -1.99976e-26)
(0.00088106 -0.000218693 6.99848e-26)
(0.00101111 -0.000129809 1.72848e-24)
(0.00123136 -3.90661e-05 -4.87657e-24)
(0.00145775 3.59136e-05 6.90111e-24)
(0.00167732 9.7004e-05 -2.5855e-24)
(0.00189485 0.000144846 -2.36282e-24)
(0.00211036 0.000181531 2.63798e-24)
(0.00232448 0.00020874 -5.12755e-24)
(0.0025378 0.00022783 3.35708e-25)
(0.00275074 0.000239926 3.21571e-24)
(0.00296365 0.000245991 -6.2152e-25)
(0.00317692 0.000246893 6.84464e-25)
(0.00339101 0.000243386 -5.92252e-26)
(0.00360656 0.000236105 4.67554e-25)
(0.00382447 0.000225593 -1.72267e-24)
(0.0040459 0.000212337 9.56278e-25)
(0.00427258 0.000196802 -3.18562e-25)
(0.00450679 0.000179496 1.74227e-26)
(0.00475198 0.000160774 7.65352e-25)
(0.00501242 0.000140593 -4.79939e-25)
(0.00529349 0.000117323 5.6531e-26)
(0.0055988 8.6894e-05 -4.83045e-26)
(0.00590297 4.39757e-05 8.1128e-26)
(0.00616734 -1.14823e-05 2.76373e-25)
(0.00638029 -7.64794e-05 -4.96896e-25)
(0.00654271 -0.000148055 -2.52943e-25)
(0.00665721 -0.000223711 8.53966e-26)
(0.00672754 -0.000301491 4.8097e-25)
(0.00675689 -0.000379341 8.71222e-26)
(0.00674746 -0.000454906 -6.28268e-26)
(0.00670068 -0.00052533 -1.5035e-24)
(0.00661759 -0.000586823 2.57392e-24)
(0.00649914 -0.00063456 -1.24296e-24)
(0.00634639 -0.000662725 -3.02293e-24)
(0.00616071 -0.000664577 3.00064e-24)
(0.00594373 -0.000632417 1.26012e-23)
(0.00569734 -0.000557309 -4.41853e-24)
(0.00542367 -0.000428332 2.02885e-24)
(0.00512524 -0.000231207 7.02763e-25)
(0.00480541 5.33578e-05 -1.47764e-23)
(0.00446729 0.000446524 -1.71492e-25)
(0.0041146 0.000960813 5.60665e-24)
(0.00372978 0.00155657 1.56393e-24)
(0.00332885 0.00208378 -7.64497e-24)
(0.00310006 0.00212175 -3.63786e-25)
(0.00166884 -0.000296964 -2.0268e-24)
(0.00172399 -0.000243 -2.73105e-24)
(0.00186215 -0.000155679 5.79173e-24)
(0.00203595 -7.42132e-05 2.53394e-24)
(0.00222224 -3.58569e-06 -8.83906e-24)
(0.00241646 5.40227e-05 9.23398e-24)
(0.00261477 9.96717e-05 -3.28232e-24)
(0.00281551 0.000134924 2.52564e-24)
(0.00301804 0.000161202 -3.3463e-24)
(0.00322204 0.000179727 3.53674e-26)
(0.00342742 0.000191547 -1.81818e-24)
(0.00363429 0.000197598 3.63174e-24)
(0.0038429 0.000198681 -2.04993e-24)
(0.0040537 0.000195465 -1.96702e-24)
(0.00426742 0.000188523 -1.42918e-24)
(0.00448506 0.000178363 2.54165e-24)
(0.0047081 0.000165462 -3.51647e-25)
(0.00493851 0.000150319 1.44706e-24)
(0.00517932 0.000133285 2.36195e-25)
(0.00543421 0.000114335 -4.41816e-25)
(0.00570797 9.19778e-05 -1.79789e-25)
(0.00600365 6.2497e-05 -9.71868e-26)
(0.00629688 2.10615e-05 4.43736e-25)
(0.00655114 -3.20418e-05 4.52077e-25)
(0.00675586 -9.38268e-05 -4.87128e-25)
(0.00691203 -0.000161442 -1.69084e-24)
(0.0070221 -0.000232504 2.01772e-24)
(0.00708964 -0.000305091 -1.06905e-24)
(0.00711772 -0.000377058 3.26717e-25)
(0.00710852 -0.000445921 2.00608e-25)
(0.00706358 -0.000508726 -2.57721e-24)
(0.00698418 -0.000561629 6.10216e-24)
(0.00687158 -0.000599806 -6.96523e-24)
(0.00672736 -0.000617491 1.73575e-23)
(0.00655356 -0.000608028 -2.4192e-23)
(0.00635278 -0.000563826 6.20101e-24)
(0.00612832 -0.000476124 2.07155e-23)
(0.00588446 -0.000334358 -6.47615e-24)
(0.00562718 -0.000125027 -1.50778e-23)
(0.00536563 0.000169769 -8.2289e-24)
(0.00511387 0.000570963 1.87341e-23)
(0.00489566 0.00109139 -1.73783e-23)
(0.0047311 0.0016936 -3.39241e-24)
(0.00466499 0.00221849 1.0376e-23)
(0.00471192 0.00220545 3.15129e-24)
(0.00260657 -0.000304976 -2.28464e-26)
(0.00261527 -0.00029182 -3.17535e-24)
(0.00267638 -0.000236277 6.0989e-24)
(0.00278784 -0.000165331 4.84743e-24)
(0.00292683 -9.56359e-05 -8.016e-24)
(0.00308472 -3.4097e-05 1.75242e-25)
(0.00325481 1.73247e-05 7.35673e-25)
(0.00343308 5.88773e-05 7.78922e-24)
(0.00361725 9.14092e-05 -9.22524e-24)
(0.00380592 0.000115886 5.69408e-24)
(0.00399833 0.00013325 1.80792e-24)
(0.00419408 0.0001444 -9.76762e-24)
(0.00439307 0.000150123 3.54225e-24)
(0.00459547 0.000151082 1.48955e-24)
(0.00480177 0.000147858 -3.25646e-24)
(0.00501272 0.000140966 5.41805e-24)
(0.00522952 0.000130886 -3.91319e-24)
(0.00545377 0.000118101 -1.01219e-25)
(0.00568804 0.000102958 3.11911e-25)
(0.00593537 8.5444e-05 3.45491e-25)
(0.00619987 6.42082e-05 5.35864e-26)
(0.00648394 3.58866e-05 1.85922e-25)
(0.00676424 -3.8671e-06 -4.38169e-25)
(0.00700654 -5.44359e-05 1.24066e-24)
(0.00720136 -0.000112834 -1.76997e-24)
(0.00734982 -0.000176293 9.82979e-25)
(0.00745419 -0.000242545 -1.51379e-24)
(0.00751788 -0.000309703 1.97152e-24)
(0.00754384 -0.000375531 -5.28976e-25)
(0.00753426 -0.000437417 1.16221e-24)
(0.00749081 -0.00049231 2.05492e-24)
(0.007415 -0.000536333 -7.03411e-24)
(0.00730846 -0.000564697 2.97322e-24)
(0.00717331 -0.000571755 8.90746e-24)
(0.0070123 -0.000551062 -2.05127e-23)
(0.00682904 -0.00049537 3.0065e-23)
(0.00662829 -0.000396491 -1.93491e-23)
(0.00641645 -0.000244922 2.4597e-23)
(0.00620262 -2.92235e-05 -4.58455e-23)
(0.00600074 0.000264511 1.7193e-23)
(0.00583222 0.000650934 5.66645e-24)
(0.00573057 0.00113442 8.37316e-24)
(0.00572774 0.0016716 -1.03965e-23)
(0.00585293 0.00211377 2.80163e-24)
(0.00603518 0.00209494 -1.67794e-24)
(0.00367845 -0.000288946 -8.46636e-25)
(0.0036615 -0.000300789 -1.25636e-24)
(0.00367315 -0.000275814 -5.29946e-24)
(0.00372468 -0.000227536 1.59637e-24)
(0.00381154 -0.000168919 1.03983e-24)
(0.00392447 -0.000111136 4.0026e-24)
(0.00405686 -5.9157e-05 -8.09121e-24)
(0.00420366 -1.47122e-05 3.12465e-24)
(0.00436131 2.18715e-05 1.01846e-23)
(0.00452739 5.08773e-05 -2.68238e-24)
(0.00470036 7.28718e-05 -2.55451e-24)
(0.00487924 8.8549e-05 -4.17431e-25)
(0.00506347 9.85712e-05 1.43123e-24)
(0.00525285 0.000103524 -2.86375e-24)
(0.00544757 0.00010395 6.38362e-25)
(0.00564806 0.000100341 -2.87465e-25)
(0.00585519 9.31592e-05 -1.5919e-24)
(0.00607016 8.28577e-05 5.56319e-25)
(0.00629502 6.977e-05 2.77843e-24)
(0.00653214 5.38894e-05 -3.37579e-25)
(0.00678486 3.39994e-05 -6.18195e-25)
(0.00705481 7.08458e-06 -1.54426e-25)
(0.00731976 -3.0735e-05 -7.67954e-25)
(0.00754788 -7.85303e-05 4.89079e-26)
(0.00773081 -0.000133314 -1.38255e-24)
(0.00786978 -0.000192372 2.59192e-24)
(0.00796689 -0.000253551 -1.49947e-24)
(0.0080254 -0.00031501 2.52461e-24)
(0.00804817 -0.000374429 -1.07466e-24)
(0.00803743 -0.000429075 6.6108e-25)
(0.00799496 -0.000475826 -7.62367e-25)
(0.00792251 -0.000510815 -3.28185e-25)
(0.00782213 -0.000529359 -3.84225e-25)
(0.00769646 -0.000526043 -2.31654e-24)
(0.00754897 -0.000494814 3.6962e-24)
(0.00738427 -0.000429047 -8.85584e-24)
(0.0072084 -0.000321571 3.88137e-23)
(0.00702951 -0.000164633 -2.08645e-23)
(0.00685887 5.00808e-05 -1.19002e-24)
(0.00671281 0.000330889 -3.90496e-23)
(0.00661456 0.000683553 2.92971e-23)
(0.00659622 0.00110242 -1.00892e-23)
(0.0066862 0.00154451 2.58753e-24)
(0.00689037 0.00189946 1.24614e-23)
(0.00714065 0.00194608 -3.03417e-24)