/*--------------------------------*- C++ -*----------------------------------*\
| =========                 |                                                 |
| \\      /  F ield         | OpenFOAM: The Open Source CFD Toolbox           |
|  \\    /   O peration     | Version:  2312                                  |
|   \\  /    A nd           | Website:  www.openfoam.com                      |
|    \\/     M anipulation  |                                                 |
\*---------------------------------------------------------------------------*/
FoamFile
{
    version     2.0;
    format      ascii;
    arch        "LSB;label=32;scalar=64";
    class       surfaceScalarField;
    location    "127";
    object      phi;
}
// * * * * * * * * * * * * * * * * * * * * * * * * * * * * * * * * * * * * * //

dimensions      [0 3 -1 0 0 0 0];

oriented        oriented;

internalField   nonuniform List<scalar> 
9445
(
6.11297e-10
9.52519e-12
6.05893e-10
5.40423e-12
6.03048e-10
2.84463e-12
6.01967e-10
1.08136e-12
6.02235e-10
-2.68022e-13
6.03697e-10
-1.4624e-12
6.06198e-10
-2.50118e-12
6.09758e-10
-3.55974e-12
6.14655e-10
-4.89706e-12
6.21314e-10
-6.6594e-12
6.30893e-10
-9.57847e-12
6.47095e-10
-1.62016e-11
6.83107e-10
-3.60124e-11
7.85996e-10
-1.02889e-10
-2.68969e-10
1.05497e-09
2.13465e-09
4.29465e-11
2.11486e-09
2.51978e-11
2.10366e-09
1.40476e-11
2.09841e-09
6.33072e-12
2.09773e-09
4.02926e-13
2.10094e-09
-4.66766e-12
2.10755e-09
-9.10617e-12
2.11766e-09
-1.36719e-11
2.13194e-09
-1.91756e-11
2.15164e-09
-2.63653e-11
2.17974e-09
-3.76814e-11
2.22344e-09
-5.9893e-11
2.29677e-09
-1.09342e-10
2.41361e-09
-2.19732e-10
-3.92741e-10
2.53738e-09
4.21231e-09
1.08389e-10
4.17234e-09
6.51651e-11
4.14859e-09
3.77963e-11
4.13613e-09
1.87957e-11
4.13238e-09
4.15039e-12
4.13574e-09
-8.02529e-12
4.14532e-09
-1.86918e-11
4.16127e-09
-2.96128e-11
4.18431e-09
-4.22205e-11
4.21597e-09
-5.80204e-11
4.25926e-09
-8.09716e-11
4.31905e-09
-1.19684e-10
4.39825e-09
-1.88543e-10
4.48249e-09
-3.03973e-10
-4.43009e-10
4.53276e-09
6.9938e-09
2.14733e-10
6.92693e-09
1.32029e-10
6.88546e-09
7.92724e-11
6.86175e-09
4.24999e-11
6.85172e-09
1.41866e-11
6.85262e-09
-8.93258e-12
6.86302e-09
-2.909e-11
6.88261e-09
-4.92027e-11
6.91192e-09
-7.15319e-11
6.95171e-09
-9.781e-11
7.00326e-09
-1.32523e-10
7.06632e-09
-1.82742e-10
7.13411e-09
-2.56336e-10
7.18545e-09
-3.55308e-10
-4.53548e-10
7.19599e-09
1.06583e-08
3.70093e-10
1.05578e-08
2.32575e-10
1.04929e-08
1.44151e-10
1.04532e-08
8.21997e-11
1.04326e-08
3.47889e-11
1.04275e-08
-3.83175e-12
1.04354e-08
-3.70483e-11
1.0455e-08
-6.87942e-11
1.04862e-08
-1.02672e-10
1.05282e-08
-1.398e-10
1.05796e-08
-1.84006e-10
1.0636e-08
-2.39069e-10
1.06862e-08
-3.06593e-10
1.07125e-08
-3.81579e-10
-4.44677e-10
1.07036e-08
1.54149e-08
5.78656e-10
1.52759e-08
3.71671e-10
1.51827e-08
2.37304e-10
1.51224e-08
1.42541e-10
1.50868e-08
7.03422e-11
1.50712e-08
1.17937e-11
1.50722e-08
-3.80625e-11
1.50872e-08
-8.38304e-11
1.51144e-08
-1.2983e-10
1.51516e-08
-1.76963e-10
1.51949e-08
-2.27385e-10
1.52377e-08
-2.81823e-10
1.52694e-08
-3.38264e-10
1.52784e-08
-3.90645e-10
-4.27972e-10
1.52617e-08
2.14989e-08
8.35357e-10
2.13219e-08
5.48668e-10
2.1199e-08
3.60282e-10
2.11152e-08
2.26263e-10
2.10614e-08
1.24218e-10
2.10312e-08
4.19278e-11
2.10205e-08
-2.738e-11
2.10256e-08
-8.89198e-11
2.10428e-08
-1.46971e-10
2.10683e-08
-2.02482e-10
2.1097e-08
-2.56081e-10
2.1122e-08
-3.06824e-10
2.11356e-08
-3.5192e-10
2.11322e-08
-3.87157e-10
-4.07757e-10
2.11119e-08
2.91624e-08
1.1187e-09
2.8959e-08
7.5214e-10
2.88119e-08
5.07362e-10
2.8707e-08
3.31159e-10
2.86347e-08
1.96466e-10
2.85884e-08
8.82799e-11
2.85629e-08
-1.85291e-12
2.85535e-08
-7.95872e-11
2.85556e-08
-1.49038e-10
2.85642e-08
-2.11123e-10
2.8574e-08
-2.65868e-10
2.85794e-08
-3.12206e-10
2.85758e-08
-3.48352e-10
2.85612e-08
-3.72567e-10
-3.83777e-10
2.85373e-08
3.86625e-08
1.38481e-09
3.84602e-08
9.54497e-10
3.83066e-08
6.60958e-10
3.81915e-08
4.4621e-10
3.81074e-08
2.80607e-10
3.80481e-08
1.47595e-10
3.80085e-08
3.77472e-11
3.79835e-08
-5.46276e-11
3.79684e-08
-1.33919e-10
3.79581e-08
-2.00783e-10
3.79479e-08
-2.5569e-10
3.79341e-08
-2.98454e-10
3.79147e-08
-3.28866e-10
3.78893e-08
-3.47205e-10
-3.54335e-10
3.78598e-08
5.0258e-08
1.57066e-09
5.01012e-08
1.11138e-09
4.99726e-08
7.89552e-10
4.98698e-08
5.49024e-10
4.97894e-08
3.60948e-10
4.97279e-08
2.09148e-10
4.96813e-08
8.43035e-11
4.96451e-08
-1.84594e-11
4.96158e-08
-1.04563e-10
4.95891e-08
-1.74098e-10
4.9562e-08
-2.28552e-10
4.95324e-08
-2.68923e-10
4.94999e-08
-2.96368e-10
4.94652e-08
-3.12442e-10
-3.18892e-10
4.94297e-08
6.42384e-08
1.61628e-09
6.41761e-08
1.17374e-09
6.41114e-08
8.54185e-10
6.40513e-08
6.09127e-10
6.39983e-08
4.13943e-10
6.39525e-08
2.5497e-10
6.39125e-08
1.24276e-10
6.38767e-08
1.73486e-11
6.38418e-08
-6.96613e-11
6.38069e-08
-1.3916e-10
6.37703e-08
-1.91952e-10
6.37317e-08
-2.30355e-10
6.36917e-08
-2.56345e-10
6.36513e-08
-2.72051e-10
-2.79497e-10
6.36119e-08
8.1003e-08
1.50249e-09
8.10617e-08
1.11506e-09
8.10881e-08
8.27724e-10
8.10957e-08
6.01577e-10
8.10918e-08
4.17815e-10
8.10804e-08
2.66396e-10
8.10632e-08
1.41446e-10
8.10411e-08
3.94602e-11
8.10137e-08
-4.22051e-11
8.09819e-08
-1.07433e-10
8.09464e-08
-1.56432e-10
8.09081e-08
-1.92032e-10
8.08683e-08
-2.1652e-10
8.08283e-08
-2.32108e-10
-2.40731e-10
8.07896e-08
1.01148e-07
1.27083e-09
1.01308e-07
9.54606e-10
1.01419e-07
7.16712e-10
1.01495e-07
5.25789e-10
1.01545e-07
3.68084e-10
1.01574e-07
2.36809e-10
1.01588e-07
1.28117e-10
1.01588e-07
3.93808e-11
1.01577e-07
-3.15283e-11
1.01558e-07
-8.80188e-11
1.01532e-07
-1.30634e-10
1.01502e-07
-1.61827e-10
1.01469e-07
-1.83765e-10
1.01435e-07
-1.98424e-10
-2.07442e-10
1.01402e-07
1.2544e-07
9.92735e-10
1.25649e-07
7.45558e-10
1.25806e-07
5.59795e-10
1.25922e-07
4.09386e-10
1.26006e-07
2.84017e-10
1.26064e-07
1.79108e-10
1.261e-07
9.21465e-11
1.26118e-07
2.11428e-11
1.26122e-07
-3.57423e-11
1.26115e-07
-8.1124e-11
1.261e-07
-1.15635e-10
1.2608e-07
-1.41202e-10
1.26056e-07
-1.59597e-10
1.2603e-07
-1.72402e-10
-1.8088e-10
1.26003e-07
1.54624e-07
7.18376e-10
1.54835e-07
5.34196e-10
1.54997e-07
3.97615e-10
1.5512e-07
2.86817e-10
1.5521e-07
1.93875e-10
1.55273e-07
1.15785e-10
1.55314e-07
5.09974e-11
1.55337e-07
-1.80274e-12
1.55346e-07
-4.46712e-11
1.55344e-07
-7.87178e-11
1.55333e-07
-1.05068e-10
1.55317e-07
-1.2477e-10
1.55297e-07
-1.39314e-10
1.55274e-07
-1.49855e-10
-1.5726e-10
1.5525e-07
1.89199e-07
4.63791e-10
1.89394e-07
3.39174e-10
1.89542e-07
2.49223e-10
1.89652e-07
1.76704e-10
1.89731e-07
1.14824e-10
1.89785e-07
6.20278e-11
1.89818e-07
1.78058e-11
1.89834e-07
-1.80977e-11
1.89839e-07
-4.88717e-11
1.89833e-07
-7.27307e-11
1.89819e-07
-9.14785e-11
1.898e-07
-1.05787e-10
1.89777e-07
-1.16722e-10
1.89753e-07
-1.25021e-10
-1.31155e-10
1.89726e-07
2.2928e-07
2.31291e-10
2.29456e-07
1.63554e-10
2.29587e-07
1.18091e-10
2.29681e-07
8.20558e-11
2.29746e-07
4.97103e-11
2.29787e-07
2.13204e-11
2.29808e-07
-3.44243e-12
2.29815e-07
-2.50726e-11
2.29811e-07
-4.4348e-11
2.29797e-07
-5.90377e-11
2.29777e-07
-7.10457e-11
2.29751e-07
-7.98407e-11
2.29722e-07
-8.79042e-11
2.29691e-07
-9.38893e-11
-9.87475e-11
2.29658e-07
2.74418e-07
2.49743e-11
2.74568e-07
1.30479e-11
2.74679e-07
7.91112e-12
2.74756e-07
5.04029e-12
2.74807e-07
-2.01291e-12
2.74836e-07
-7.20283e-12
2.74848e-07
-1.52632e-11
2.74845e-07
-2.26196e-11
2.74831e-07
-3.01461e-11
2.74808e-07
-3.60308e-11
2.7478e-07
-4.26552e-11
2.74747e-07
-4.73191e-11
2.74711e-07
-5.19477e-11
2.74672e-07
-5.51196e-11
-5.76381e-11
2.74631e-07
3.23127e-07
-1.45617e-10
3.23247e-07
-1.06979e-10
3.23332e-07
-7.78e-11
3.23387e-07
-5.00586e-11
3.23421e-07
-3.52161e-11
3.23435e-07
-2.11278e-11
3.23435e-07
-1.57397e-11
3.23425e-07
-1.2692e-11
3.23406e-07
-1.14382e-11
3.23381e-07
-1.06251e-11
3.23348e-07
-9.72333e-12
3.23309e-07
-8.43003e-12
3.23265e-07
-7.62809e-12
3.23217e-07
-7.38244e-12
-7.19781e-12
3.23167e-07
3.72235e-07
-2.85655e-10
3.72338e-07
-2.098e-10
3.72411e-07
-1.50637e-10
3.72462e-07
-1.01608e-10
3.72493e-07
-6.60111e-11
3.72509e-07
-3.68172e-11
3.72509e-07
-1.61591e-11
3.72496e-07
1.13295e-13
3.72472e-07
1.27192e-11
3.72439e-07
2.21669e-11
3.724e-07
2.9543e-11
3.72356e-07
3.56033e-11
3.72308e-07
4.07025e-11
3.72255e-07
4.51415e-11
4.91964e-11
3.72199e-07
3.69768e-07
-3.57933e-10
3.69821e-07
-2.63547e-10
3.69857e-07
-1.86563e-10
3.69878e-07
-1.22402e-10
3.69887e-07
-7.47054e-11
3.69886e-07
-3.64635e-11
3.69872e-07
-1.5329e-12
3.69849e-07
2.33391e-11
3.69818e-07
4.31398e-11
3.69781e-07
5.90369e-11
3.69739e-07
7.21223e-11
3.69691e-07
8.32831e-11
3.69639e-07
9.31634e-11
3.69582e-07
1.02144e-10
1.10331e-10
3.6952e-07
3.1633e-07
-3.71552e-10
3.1634e-07
-2.73192e-10
3.16344e-07
-1.9027e-10
3.16346e-07
-1.24806e-10
3.16342e-07
-7.09693e-11
3.16334e-07
-2.85957e-11
3.16324e-07
9.29377e-12
3.16308e-07
3.84603e-11
3.16289e-07
6.26704e-11
3.16265e-07
8.31252e-11
3.16236e-07
1.00771e-10
3.16203e-07
1.16358e-10
3.16166e-07
1.30423e-10
3.16125e-07
1.4327e-10
1.55091e-10
3.1608e-07
2.6487e-07
-3.46378e-10
2.64848e-07
-2.51332e-10
2.64829e-07
-1.71441e-10
2.64811e-07
-1.0652e-10
2.64794e-07
-5.42029e-11
2.64774e-07
-8.48527e-12
2.64754e-07
2.88993e-11
2.64733e-07
6.01286e-11
2.64709e-07
8.67602e-11
2.64682e-07
1.09877e-10
2.64652e-07
1.3025e-10
2.6462e-07
1.48475e-10
2.64586e-07
1.64988e-10
2.64549e-07
1.80136e-10
1.94206e-10
2.6451e-07
2.18009e-07
-2.94488e-10
2.17966e-07
-2.08072e-10
2.17932e-07
-1.37165e-10
2.17902e-07
-7.72696e-11
2.17876e-07
-2.75743e-11
2.17852e-07
1.56168e-11
2.17829e-07
5.15415e-11
2.17807e-07
8.24602e-11
2.17784e-07
1.09403e-10
2.17761e-07
1.33201e-10
2.17736e-07
1.5446e-10
2.17711e-07
1.73672e-10
2.17685e-07
1.91216e-10
2.17658e-07
2.07377e-10
2.22396e-10
2.1763e-07
1.76867e-07
-2.28679e-10
1.76815e-07
-1.56101e-10
1.76773e-07
-9.55759e-11
1.7674e-07
-4.37802e-11
1.76712e-07
2.11014e-13
1.7669e-07
3.81588e-11
1.7667e-07
7.09019e-11
1.76653e-07
9.95444e-11
1.76638e-07
1.24904e-10
1.76623e-07
1.47595e-10
1.7661e-07
1.68089e-10
1.76597e-07
1.86757e-10
1.76584e-07
2.03886e-10
1.76572e-07
2.19692e-10
2.34346e-10
1.7656e-07
1.41699e-07
-1.64611e-10
1.4165e-07
-1.07093e-10
1.41613e-07
-5.81638e-11
1.41585e-07
-1.61147e-11
1.41565e-07
2.05148e-11
1.41551e-07
5.25513e-11
1.41541e-07
8.06992e-11
1.41535e-07
1.05699e-10
1.41531e-07
1.28131e-10
1.41531e-07
1.48427e-10
1.41532e-07
1.66918e-10
1.41535e-07
1.83859e-10
1.41539e-07
1.99452e-10
1.41545e-07
2.1384e-10
2.27135e-10
1.41552e-07
1.12274e-07
-1.13502e-10
1.12237e-07
-7.0198e-11
1.12212e-07
-3.27469e-11
1.12196e-07
-3.37104e-13
1.12188e-07
2.88819e-11
1.12185e-07
5.48169e-11
1.12188e-07
7.78893e-11
1.12195e-07
9.86687e-11
1.12206e-07
1.17545e-10
1.12219e-07
1.34795e-10
1.12236e-07
1.50631e-10
1.12254e-07
1.65215e-10
1.12275e-07
1.7867e-10
1.12298e-07
1.91082e-10
2.02517e-10
1.12323e-07
8.80737e-08
-7.90755e-11
8.80513e-08
-4.78234e-11
8.80394e-08
-2.08154e-11
8.80359e-08
3.16496e-12
8.8039e-08
2.57256e-11
8.80478e-08
4.60568e-11
8.80614e-08
6.424e-11
8.80792e-08
8.08395e-11
8.81007e-08
9.61084e-11
8.81253e-08
1.10206e-10
8.81527e-08
1.23252e-10
8.81825e-08
1.35335e-10
8.82147e-08
1.46522e-10
8.82489e-08
1.56857e-10
1.66373e-10
8.8285e-08
6.84366e-08
-5.90225e-11
6.8426e-08
-3.72499e-11
6.84238e-08
-1.86755e-11
6.84289e-08
-1.93963e-12
6.84396e-08
1.51184e-11
6.84549e-08
3.07237e-11
6.84746e-08
4.45581e-11
6.8498e-08
5.73965e-11
6.85248e-08
6.93697e-11
6.85544e-08
8.05553e-11
6.85866e-08
9.10073e-11
6.86212e-08
1.00763e-10
6.86579e-08
1.09852e-10
6.86965e-08
1.18288e-10
1.26086e-10
6.87367e-08
5.26668e-08
-4.83945e-11
5.26633e-08
-3.3733e-11
5.26661e-08
-2.14312e-11
5.2674e-08
-9.91505e-12
5.26869e-08
2.23862e-12
5.2704e-08
1.36674e-11
5.27245e-08
2.40283e-11
5.27481e-08
3.37451e-11
5.27746e-08
4.29134e-11
5.28036e-08
5.15899e-11
5.28348e-08
5.97923e-11
5.2868e-08
6.75286e-11
5.29031e-08
7.48074e-11
5.29397e-08
8.16247e-11
8.79822e-11
5.29778e-08
4.0107e-08
-4.2317e-11
4.01059e-08
-3.26122e-11
4.01091e-08
-2.46923e-11
4.01165e-08
-1.72459e-11
4.01278e-08
-9.09446e-12
4.01424e-08
-9.08975e-13
4.01597e-08
6.68598e-12
4.01796e-08
1.38666e-11
4.02018e-08
2.07265e-11
4.02261e-08
2.73153e-11
4.02522e-08
3.36321e-11
4.02801e-08
3.96684e-11
4.03095e-08
4.54232e-11
4.03402e-08
5.08846e-11
5.60456e-11
4.03721e-08
3.01747e-08
-3.73187e-11
3.01732e-08
-3.11752e-11
3.01747e-08
-2.62041e-11
3.01791e-08
-2.1648e-11
3.01866e-08
-1.65483e-11
3.01966e-08
-1.09261e-11
3.02088e-08
-5.46889e-12
3.02229e-08
-2.946e-13
3.0239e-08
4.70448e-12
3.02567e-08
9.58745e-12
3.0276e-08
1.43457e-11
3.02967e-08
1.89596e-11
3.03187e-08
2.34291e-11
3.03418e-08
2.77397e-11
3.18775e-11
3.0366e-08
2.23732e-08
-3.17954e-11
2.23702e-08
-2.81615e-11
2.23692e-08
-2.52833e-11
2.23702e-08
-2.26171e-11
2.23732e-08
-1.94967e-11
2.23781e-08
-1.5914e-11
2.23849e-08
-1.21943e-11
2.23931e-08
-8.54479e-12
2.24028e-08
-5.01659e-12
2.24139e-08
-1.50773e-12
2.24263e-08
1.97301e-12
2.24399e-08
5.39551e-12
2.24545e-08
8.77063e-12
2.24702e-08
1.20847e-11
1.53163e-11
2.24868e-08
1.62875e-08
-2.55119e-11
1.62828e-08
-2.35305e-11
1.62796e-08
-2.2041e-11
1.62776e-08
-2.06498e-11
1.6277e-08
-1.88462e-11
1.62777e-08
-1.66159e-11
1.62797e-08
-1.42117e-11
1.6283e-08
-1.18023e-11
1.62874e-08
-9.42207e-12
1.62928e-08
-6.99401e-12
1.62994e-08
-4.54652e-12
1.63069e-08
-2.11594e-12
1.63153e-08
3.27796e-13
1.63246e-08
2.77341e-12
5.19128e-12
1.63348e-08
1.15748e-08
-1.89023e-11
1.15693e-08
-1.79658e-11
1.15646e-08
-1.73118e-11
1.15606e-08
-1.66806e-11
1.15575e-08
-1.57264e-11
1.15553e-08
-1.44318e-11
1.1554e-08
-1.29749e-11
1.15537e-08
-1.14737e-11
1.15542e-08
-9.95363e-12
1.15556e-08
-8.37581e-12
1.15578e-08
-6.76096e-12
1.15609e-08
-5.13384e-12
1.15647e-08
-3.46813e-12
1.15692e-08
-1.76712e-12
-6.8291e-14
1.15745e-08
7.95487e-09
-1.26312e-11
7.9492e-09
-1.22974e-11
7.94397e-09
-1.20829e-11
7.93915e-09
-1.18606e-11
7.93484e-09
-1.14164e-11
7.93114e-09
-1.07319e-11
7.92809e-09
-9.92096e-12
7.92568e-09
-9.06048e-12
7.92389e-09
-8.17028e-12
7.92275e-09
-7.23196e-12
7.92225e-09
-6.25808e-12
7.92237e-09
-5.2537e-12
7.92311e-09
-4.20872e-12
7.92447e-09
-3.12895e-12
-2.03768e-12
7.92644e-09
5.19953e-09
-7.29934e-12
5.19449e-09
-7.26055e-12
5.18964e-09
-7.22906e-12
5.18496e-09
-7.18814e-12
5.18057e-09
-7.01963e-12
5.17654e-09
-6.70569e-12
5.17293e-09
-6.30933e-12
5.16974e-09
-5.87592e-12
5.16699e-09
-5.41902e-12
5.16469e-09
-4.92908e-12
5.16284e-09
-4.41196e-12
5.16146e-09
-3.86995e-12
5.16055e-09
-3.29736e-12
5.16012e-09
-2.70085e-12
-2.08558e-12
5.16017e-09
3.12457e-09
-3.31564e-12
3.12069e-09
-3.3758e-12
3.11684e-09
-3.38697e-12
3.11305e-09
-3.39738e-12
3.10939e-09
-3.35337e-12
3.10592e-09
-3.24079e-12
3.1027e-09
-3.08676e-12
3.09974e-09
-2.91291e-12
3.09704e-09
-2.72673e-12
3.09464e-09
-2.52329e-12
3.09253e-09
-2.30521e-12
3.09074e-09
-2.07344e-12
3.08926e-09
-1.82525e-12
3.08813e-09
-1.56308e-12
-1.28529e-12
3.08732e-09
1.58198e-09
-8.77837e-13
1.57953e-09
-9.29409e-13
1.57708e-09
-9.30373e-13
1.57462e-09
-9.36374e-13
1.57219e-09
-9.31395e-13
1.56986e-09
-9.08371e-13
1.56765e-09
-8.73377e-13
1.56557e-09
-8.32437e-13
1.56363e-09
-7.88095e-13
1.56184e-09
-7.38461e-13
1.56022e-09
-6.84393e-13
1.55878e-09
-6.26308e-13
1.55751e-09
-5.63252e-13
1.55645e-09
-4.9589e-13
-4.19817e-13
1.55558e-09
4.5348e-10
4.52551e-10
4.5162e-10
4.50684e-10
4.49753e-10
4.48844e-10
4.47971e-10
4.47138e-10
4.4635e-10
4.45612e-10
4.44927e-10
4.44301e-10
4.43738e-10
4.43242e-10
4.42822e-10
1.26088e-09
-5.27934e-10
3.22014e-10
1.55475e-09
-4.71637e-10
1.77772e-10
1.84997e-09
-3.517e-10
5.64806e-11
2.13953e-09
-2.3475e-10
-5.48062e-11
2.42102e-09
-1.27863e-10
-1.53631e-10
2.6949e-09
-4.06047e-11
-2.33271e-10
2.96229e-09
2.4394e-11
-2.91785e-10
3.22423e-09
6.50535e-11
-3.26998e-10
3.48161e-09
7.99859e-11
-3.37361e-10
3.73512e-09
6.83864e-11
-3.21904e-10
3.98534e-09
3.00742e-11
-2.80285e-10
4.23265e-09
-3.39472e-11
-2.13367e-10
4.47737e-09
-1.20497e-10
-1.2422e-10
4.71982e-09
-2.22493e-10
-1.99576e-11
4.96063e-09
-3.26377e-10
8.55681e-11
5.20117e-09
-4.08767e-10
1.68227e-10
5.44413e-09
-4.31594e-10
1.88628e-10
5.69455e-09
-3.40107e-10
8.96889e-11
5.96021e-09
-5.95033e-11
-2.06159e-10
6.25258e-09
4.96794e-10
-7.89156e-10
6.58477e-09
1.38717e-09
-1.71937e-09
6.96584e-09
2.6365e-09
-3.01757e-09
7.33191e-09
3.40406e-09
-3.77012e-09
7.64655e-09
3.4531e-09
-3.76774e-09
7.90165e-09
3.08533e-09
-3.34042e-09
8.09506e-09
2.45291e-09
-2.64632e-09
8.22827e-09
1.66921e-09
-1.80242e-09
8.30351e-09
8.16682e-10
-8.91916e-10
8.3225e-09
-4.39515e-11
2.4953e-11
8.2864e-09
-8.63652e-10
8.99752e-10
8.19643e-09
-1.59991e-09
1.68989e-09
8.05435e-09
-2.21629e-09
2.35836e-09
7.86285e-09
-2.6841e-09
2.8756e-09
7.62547e-09
-2.98421e-09
3.2216e-09
7.34627e-09
-3.10754e-09
3.38674e-09
7.02936e-09
-3.05397e-09
3.37088e-09
6.67843e-09
-2.82988e-09
3.18081e-09
6.29664e-09
-2.44439e-09
2.82619e-09
5.88691e-09
-1.90472e-09
2.31445e-09
5.45207e-09
-1.21201e-09
1.64685e-09
4.99334e-09
-3.6471e-10
8.23444e-10
4.50395e-09
6.22859e-10
-1.33476e-10
3.97034e-09
1.65713e-09
-1.12351e-09
3.40099e-09
2.51014e-09
-1.94079e-09
2.53332e-09
3.069e-09
-2.20133e-09
2.61875e-09
-6.09305e-10
2.79152e-09
-6.4441e-10
3.02605e-09
-5.86228e-10
3.28745e-09
-4.96148e-10
3.56029e-09
-4.00706e-10
3.83648e-09
-3.16795e-10
4.11244e-09
-2.51562e-10
4.38662e-09
-2.0913e-10
4.65842e-09
-1.91807e-10
4.92761e-09
-2.00803e-10
5.19417e-09
-2.3649e-10
5.45812e-09
-2.97894e-10
5.71948e-09
-3.81861e-10
5.9784e-09
-4.81416e-10
6.23538e-09
-5.83353e-10
6.49175e-09
-6.65135e-10
6.75028e-09
-6.90131e-10
7.01632e-09
-6.06143e-10
7.29823e-09
-3.41419e-10
7.6085e-09
1.86529e-10
7.96182e-09
1.03385e-09
8.36903e-09
2.22929e-09
8.76325e-09
3.00985e-09
9.10557e-09
3.11077e-09
9.38646e-09
2.80443e-09
9.60258e-09
2.2368e-09
9.75462e-09
1.51716e-09
9.84433e-09
7.26968e-10
9.87318e-09
-7.28003e-11
9.84237e-09
-8.32838e-10
9.75334e-09
-1.51088e-09
9.60835e-09
-2.0713e-09
9.41084e-09
-2.48659e-09
9.16535e-09
-2.73873e-09
8.87731e-09
-2.8195e-09
8.55262e-09
-2.72928e-09
8.19743e-09
-2.4747e-09
7.81846e-09
-2.06542e-09
7.42417e-09
-1.51042e-09
7.02683e-09
-8.14672e-10
6.64595e-09
1.61632e-11
6.30639e-09
9.6242e-10
6.04398e-09
1.91954e-09
5.91256e-09
2.64156e-09
2.60464e-09
5.84124e-09
4.5472e-09
-6.23749e-10
4.62298e-09
-7.2019e-10
4.77015e-09
-7.33402e-10
4.97217e-09
-6.98165e-10
5.2074e-09
-6.35931e-10
5.46215e-09
-5.71551e-10
5.72772e-09
-5.17128e-10
5.999e-09
-4.80413e-10
6.2729e-09
-4.65708e-10
6.54754e-09
-4.7544e-10
6.82175e-09
-5.10698e-10
7.09474e-09
-5.7089e-10
7.36599e-09
-6.53103e-10
7.6352e-09
-7.50631e-10
7.90259e-09
-8.50739e-10
8.16931e-09
-9.3186e-10
8.43813e-09
-9.58949e-10
8.7146e-09
-8.82608e-10
9.00763e-09
-6.34455e-10
9.33069e-09
-1.36529e-10
9.7002e-09
6.64339e-10
1.0129e-08
1.80052e-09
1.05481e-08
2.59073e-09
1.09164e-08
2.74247e-09
1.12226e-08
2.49818e-09
1.14619e-08
1.99754e-09
1.16338e-08
1.34527e-09
1.17394e-08
6.21408e-10
1.17797e-08
-1.13136e-10
1.1756e-08
-8.09131e-10
1.167e-08
-1.42486e-09
1.15245e-08
-1.92586e-09
1.1324e-08
-2.28607e-09
1.10742e-08
-2.48896e-09
1.07823e-08
-2.52758e-09
1.04564e-08
-2.40334e-09
1.01056e-08
-2.12394e-09
9.74101e-09
-1.70079e-09
9.37716e-09
-1.14657e-09
9.03617e-09
-4.73685e-10
8.75065e-09
3.0168e-10
8.56769e-09
1.14539e-09
8.53065e-09
1.95658e-09
8.64183e-09
2.53038e-09
2.51945e-09
8.72702e-09
7.17388e-09
-6.01643e-10
7.18356e-09
-7.29867e-10
7.24697e-09
-7.96816e-10
7.36954e-09
-8.20735e-10
7.54203e-09
-8.08417e-10
7.74953e-09
-7.79053e-10
7.98092e-09
-7.48512e-10
8.2284e-09
-7.27894e-10
8.48625e-09
-7.23564e-10
8.75052e-09
-7.39705e-10
9.01844e-09
-7.78622e-10
9.28805e-09
-8.40495e-10
9.55788e-09
-9.22939e-10
9.827e-09
-1.01975e-09
1.00951e-08
-1.11881e-09
1.03629e-08
-1.19973e-09
1.06332e-08
-1.2292e-09
1.09115e-08
-1.16092e-09
1.12073e-08
-9.30204e-10
1.15348e-08
-4.64087e-10
1.19124e-08
2.86724e-10
1.23551e-08
1.35786e-09
1.27932e-08
2.15262e-09
1.31837e-08
2.352e-09
1.35132e-08
2.16866e-09
1.37748e-08
1.73593e-09
1.39667e-08
1.15339e-09
1.40889e-08
4.99211e-10
1.4142e-08
-1.66255e-10
1.41271e-08
-7.94272e-10
1.40464e-08
-1.34411e-09
1.39034e-08
-1.78283e-09
1.37035e-08
-2.08624e-09
1.34542e-08
-2.23968e-09
1.31646e-08
-2.23791e-09
1.28452e-08
-2.08395e-09
1.25086e-08
-1.78734e-09
1.217e-08
-1.36222e-09
1.18495e-08
-8.26064e-10
1.15753e-08
-1.99449e-10
1.13864e-08
4.90578e-10
1.13311e-08
1.20067e-09
1.14422e-08
1.8455e-09
1.16908e-08
2.28176e-09
2.32686e-09
1.18834e-08
1.06658e-08
-5.6381e-10
1.0634e-08
-6.98096e-10
1.06353e-08
-7.98096e-10
1.06807e-08
-8.66136e-10
1.07745e-08
-9.02206e-10
1.09143e-08
-9.18823e-10
1.10878e-08
-9.22041e-10
1.12878e-08
-9.27873e-10
1.1507e-08
-9.42808e-10
1.174e-08
-9.7265e-10
1.19823e-08
-1.02096e-09
1.22307e-08
-1.08889e-09
1.24826e-08
-1.17482e-09
1.27361e-08
-1.27327e-09
1.29902e-08
-1.37294e-09
1.32453e-08
-1.4548e-09
1.35036e-08
-1.48748e-09
1.37707e-08
-1.42807e-09
1.40565e-08
-1.21596e-09
1.4376e-08
-7.83615e-10
1.47495e-08
-8.67516e-11
1.51941e-08
9.13176e-10
1.56416e-08
1.70515e-09
1.60474e-08
1.94623e-09
1.63956e-08
1.82045e-09
1.66768e-08
1.45477e-09
1.68872e-08
9.42936e-10
1.70257e-08
3.6069e-10
1.70922e-08
-2.32732e-10
1.70876e-08
-7.89659e-10
1.70144e-08
-1.27087e-09
1.68769e-08
-1.64541e-09
1.66821e-08
-1.89139e-09
1.64389e-08
-1.99644e-09
1.61584e-08
-1.95746e-09
1.5854e-08
-1.7796e-09
1.55414e-08
-1.47473e-09
1.52394e-08
-1.06014e-09
1.49711e-08
-5.57847e-10
1.47666e-08
5.05669e-12
1.46621e-08
5.95149e-10
1.46951e-08
1.16766e-09
1.48818e-08
1.65881e-09
1.51809e-08
1.98259e-09
2.05504e-09
1.54528e-08
1.52206e-08
-5.22702e-10
1.51693e-08
-6.46769e-10
1.51302e-08
-7.5898e-10
1.51173e-08
-8.53256e-10
1.51393e-08
-9.2423e-10
1.52013e-08
-9.80795e-10
1.53013e-08
-1.02201e-09
1.54335e-08
-1.06009e-09
1.55916e-08
-1.10093e-09
1.57701e-08
-1.15118e-09
1.5964e-08
-1.21485e-09
1.6169e-08
-1.29386e-09
1.63815e-08
-1.38734e-09
1.65988e-08
-1.49058e-09
1.68191e-08
-1.59326e-09
1.70422e-08
-1.67788e-09
1.72699e-08
-1.71512e-09
1.75077e-08
-1.66588e-09
1.77656e-08
-1.47392e-09
1.80595e-08
-1.0775e-09
1.84116e-08
-4.38777e-10
1.88412e-08
4.83499e-10
1.92838e-08
1.26261e-09
1.9694e-08
1.53599e-09
2.0053e-08
1.46147e-09
2.03481e-08
1.15968e-09
2.05734e-08
7.17614e-10
2.07261e-08
2.07995e-10
2.08051e-08
-3.11767e-10
2.08112e-08
-7.95753e-10
2.07472e-08
-1.20685e-09
2.06184e-08
-1.51664e-09
2.0433e-08
-1.70595e-09
2.02017e-08
-1.76511e-09
1.99377e-08
-1.69353e-09
1.96569e-08
-1.49873e-09
1.93772e-08
-1.19505e-09
1.91196e-08
-8.02531e-10
1.8908e-08
-3.46316e-10
1.87694e-08
1.4366e-10
1.87318e-08
6.32793e-10
1.88177e-08
1.08178e-09
1.90293e-08
1.44713e-09
1.93282e-08
1.68371e-09
1.75933e-09
1.96239e-08
2.10726e-08
-4.83362e-10
2.10173e-08
-5.91478e-10
2.09586e-08
-7.00281e-10
2.09082e-08
-8.02816e-10
2.0878e-08
-8.94083e-10
2.08732e-08
-9.76016e-10
2.08987e-08
-1.04748e-09
2.09538e-08
-1.11521e-09
2.1036e-08
-1.18311e-09
2.11413e-08
-1.25643e-09
2.12654e-08
-1.33896e-09
2.14042e-08
-1.43267e-09
2.15539e-08
-1.53705e-09
2.17113e-08
-1.64801e-09
2.18741e-08
-1.75608e-09
2.20417e-08
-1.84542e-09
2.22154e-08
-1.88882e-09
2.24008e-08
-1.85126e-09
2.2608e-08
-1.68119e-09
2.28534e-08
-1.32286e-09
2.31612e-08
-7.46588e-10
2.35531e-08
9.15644e-11
2.3971e-08
8.44696e-10
2.43701e-08
1.13689e-09
2.47277e-08
1.10391e-09
2.50273e-08
8.6004e-10
2.52606e-08
4.84393e-10
2.54226e-08
4.59956e-11
2.55112e-08
-4.00367e-10
2.55267e-08
-8.11329e-10
2.54724e-08
-1.15257e-09
2.53545e-08
-1.39874e-09
2.51824e-08
-1.53384e-09
2.49685e-08
-1.5512e-09
2.47279e-08
-1.45289e-09
2.44779e-08
-1.24879e-09
2.42382e-08
-9.55259e-10
2.40296e-08
-5.94021e-10
2.38744e-08
-1.91116e-10
2.37939e-08
2.24247e-10
2.38056e-08
6.20999e-10
2.39189e-08
9.68498e-10
2.41268e-08
1.23927e-09
2.43981e-08
1.41238e-09
1.47924e-09
2.46782e-08
2.84992e-08
-4.45353e-10
2.84454e-08
-5.37665e-10
2.83811e-08
-6.35932e-10
2.83136e-08
-7.35306e-10
2.82514e-08
-8.31953e-10
2.82003e-08
-9.24918e-10
2.81666e-08
-1.01372e-09
2.81523e-08
-1.10091e-09
2.81583e-08
-1.18914e-09
2.81836e-08
-1.28168e-09
2.82258e-08
-1.38122e-09
2.82823e-08
-1.48912e-09
2.83499e-08
-1.60468e-09
2.84259e-08
-1.72401e-09
2.85081e-08
-1.83826e-09
2.85958e-08
-1.93317e-09
2.86905e-08
-1.98345e-09
2.87978e-08
-1.95855e-09
2.89282e-08
-1.81164e-09
2.90983e-08
-1.49297e-09
2.93347e-08
-9.8301e-10
2.96611e-08
-2.34832e-10
3.00295e-08
4.76328e-10
3.03968e-08
7.69603e-10
3.07359e-08
7.64801e-10
3.10262e-08
5.69767e-10
3.12563e-08
2.54311e-10
3.14191e-08
-1.16851e-10
3.15112e-08
-4.92488e-10
3.15325e-08
-8.32644e-10
3.14865e-08
-1.1065e-09
3.13801e-08
-1.29233e-09
3.12239e-08
-1.37763e-09
3.10315e-08
-1.35888e-09
3.08194e-08
-1.24077e-09
3.06057e-08
-1.03507e-09
3.04098e-08
-7.59324e-10
3.02511e-08
-4.35397e-10
3.0148e-08
-8.79811e-11
3.01151e-08
2.57107e-10
3.01613e-08
5.74852e-10
3.02863e-08
8.43464e-10
3.04788e-08
1.04678e-09
3.07148e-08
1.17638e-09
1.23307e-09
3.0961e-08
3.78203e-08
-4.05839e-10
3.77672e-08
-4.84521e-10
3.7702e-08
-5.70705e-10
3.76282e-08
-6.61537e-10
3.75506e-08
-7.54359e-10
3.74735e-08
-8.47817e-10
3.74013e-08
-9.41498e-10
3.73367e-08
-1.0363e-09
3.72814e-08
-1.13393e-09
3.72361e-08
-1.23637e-09
3.72002e-08
-1.3453e-09
3.71724e-08
-1.46131e-09
3.7151e-08
-1.5833e-09
3.71343e-08
-1.7073e-09
3.71209e-08
-1.82482e-09
3.71108e-08
-1.92313e-09
3.71059e-08
-1.97853e-09
3.71125e-08
-1.96518e-09
3.71419e-08
-1.84095e-09
3.72106e-08
-1.56169e-09
3.73478e-08
-1.12019e-09
3.75789e-08
-4.65987e-10
3.78698e-08
1.85445e-10
3.81808e-08
4.58581e-10
3.84801e-08
4.65479e-10
3.87426e-08
3.07262e-10
3.89542e-08
4.27455e-11
3.91054e-08
-2.68045e-10
3.91914e-08
-5.7844e-10
3.92115e-08
-8.52761e-10
3.91693e-08
-1.06436e-09
3.90726e-08
-1.19557e-09
3.89325e-08
-1.23759e-09
3.87636e-08
-1.18999e-09
3.85825e-08
-1.05966e-09
3.84071e-08
-8.59617e-10
3.82552e-08
-6.07411e-10
3.81433e-08
-3.23519e-10
3.80849e-08
-2.96064e-11
3.80887e-08
2.53294e-10
3.8157e-08
5.06538e-10
3.82847e-08
7.15756e-10
3.84594e-08
8.72081e-10
3.86628e-08
9.73022e-10
1.02221e-09
3.88737e-08
4.93868e-08
-3.62909e-10
4.93323e-08
-4.30042e-10
4.92662e-08
-5.04631e-10
4.91899e-08
-5.85156e-10
4.91054e-08
-6.69926e-10
4.90154e-08
-7.57771e-10
4.89221e-08
-8.48195e-10
4.88273e-08
-9.41483e-10
4.8732e-08
-1.03864e-09
4.86365e-08
-1.14086e-09
4.85404e-08
-1.24923e-09
4.84429e-08
-1.36383e-09
4.8343e-08
-1.48333e-09
4.82395e-08
-1.60385e-09
4.8132e-08
-1.71727e-09
4.80214e-08
-1.81253e-09
4.79101e-08
-1.86728e-09
4.78056e-08
-1.86072e-09
4.772e-08
-1.75528e-09
4.76701e-08
-1.51182e-09
4.7687e-08
-1.13713e-09
4.77983e-08
-5.77215e-10
4.79864e-08
-2.71386e-12
4.82169e-08
2.28133e-10
4.84531e-08
2.29246e-10
4.86666e-08
9.37605e-11
4.88411e-08
-1.31701e-10
4.89647e-08
-3.91717e-10
4.90315e-08
-6.45172e-10
4.90402e-08
-8.61548e-10
4.89947e-08
-1.01884e-09
4.89029e-08
-1.1037e-09
4.87763e-08
-1.11102e-09
4.86294e-08
-1.04311e-09
4.84783e-08
-9.08512e-10
4.83392e-08
-7.20511e-10
4.82273e-08
-4.95582e-10
4.81555e-08
-2.51684e-10
4.81324e-08
-6.55009e-12
4.81621e-08
2.23667e-10
4.82428e-08
4.25783e-10
4.83676e-08
5.90922e-10
4.85252e-08
7.14522e-10
4.87016e-08
7.96631e-10
8.41115e-10
4.88827e-08
6.35665e-08
-3.17534e-10
6.35111e-08
-3.74626e-10
6.34449e-08
-4.38463e-10
6.33681e-08
-5.08343e-10
6.32815e-08
-5.83279e-10
6.31861e-08
-6.6238e-10
6.3083e-08
-7.45112e-10
6.29729e-08
-8.31389e-10
6.28559e-08
-9.21624e-10
6.27314e-08
-1.01636e-09
6.25983e-08
-1.11617e-09
6.24552e-08
-1.2207e-09
6.23005e-08
-1.32858e-09
6.21328e-08
-1.43617e-09
6.19514e-08
-1.53592e-09
6.17577e-08
-1.61882e-09
6.15542e-08
-1.6638e-09
6.1349e-08
-1.65553e-09
6.11547e-08
-1.56091e-09
6.09886e-08
-1.34573e-09
6.08819e-08
-1.0304e-09
6.08641e-08
-5.59407e-10
6.09371e-08
-7.57204e-11
6.10704e-08
9.48218e-11
6.12234e-08
7.62223e-11
6.13679e-08
-5.07506e-11
6.14872e-08
-2.50959e-10
6.15668e-08
-4.71356e-10
6.16e-08
-6.78373e-10
6.15857e-08
-8.47199e-10
6.15274e-08
-9.60636e-10
6.14334e-08
-1.00962e-09
6.13148e-08
-9.92457e-10
6.11853e-08
-9.13657e-10
6.10594e-08
-7.8257e-10
6.09508e-08
-6.11921e-10
6.08715e-08
-4.16257e-10
6.08303e-08
-2.10449e-10
6.08319e-08
-8.20814e-12
6.08771e-08
1.78475e-10
6.09623e-08
3.40581e-10
6.10803e-08
4.72921e-10
6.12216e-08
5.7328e-10
6.13756e-08
6.4258e-10
6.84078e-10
6.15326e-08
8.07456e-08
-2.73594e-10
8.06928e-08
-3.21775e-10
8.063e-08
-3.75714e-10
8.05568e-08
-4.35153e-10
8.04731e-08
-4.99568e-10
8.03791e-08
-5.6834e-10
8.02749e-08
-6.40965e-10
8.01606e-08
-7.17106e-10
8.00358e-08
-7.96733e-10
7.98992e-08
-8.79764e-10
7.97493e-08
-9.66262e-10
7.95839e-08
-1.05535e-09
7.94009e-08
-1.14554e-09
7.91981e-08
-1.23337e-09
7.8974e-08
-1.31191e-09
7.87295e-08
-1.37424e-09
7.84664e-08
-1.4007e-09
7.81924e-08
-1.38158e-09
7.79192e-08
-1.28774e-09
7.76651e-08
-1.09161e-09
7.74575e-08
-8.22759e-10
7.73266e-08
-4.28539e-10
7.72969e-08
-4.59673e-11
7.73316e-08
6.0127e-11
7.73922e-08
1.56245e-11
7.74579e-08
-1.16465e-10
7.75113e-08
-3.04419e-10
7.75353e-08
-4.95285e-10
7.75239e-08
-6.67017e-10
7.74767e-08
-7.99954e-10
7.73974e-08
-8.81404e-10
7.7294e-08
-9.06213e-10
7.71771e-08
-8.75505e-10
7.70586e-08
-7.95217e-10
7.69508e-08
-6.74729e-10
7.68644e-08
-5.25499e-10
7.68078e-08
-3.59736e-10
7.67866e-08
-1.89189e-10
7.68025e-08
-2.41094e-11
7.68539e-08
1.2705e-10
7.6937e-08
2.57543e-10
7.70449e-08
3.64973e-10
7.717e-08
4.48163e-10
7.73045e-08
5.08115e-10
5.47313e-10
7.74412e-08
1.01364e-07
-2.35554e-10
1.01318e-07
-2.75799e-10
1.01263e-07
-3.2072e-10
1.01198e-07
-3.70264e-10
1.01123e-07
-4.24166e-10
1.01036e-07
-4.82002e-10
1.00939e-07
-5.43325e-10
1.00829e-07
-6.07647e-10
1.00707e-07
-6.74646e-10
1.00571e-07
-7.43735e-10
1.00419e-07
-8.14555e-10
1.0025e-07
-8.8566e-10
1.0006e-07
-9.55486e-10
9.98467e-08
-1.02053e-09
9.96094e-08
-1.07452e-09
9.93474e-08
-1.11224e-09
9.90622e-08
-1.11559e-09
9.8761e-08
-1.08031e-09
9.84528e-08
-9.79537e-10
9.8157e-08
-7.95873e-10
9.78948e-08
-5.60548e-10
9.7691e-08
-2.24725e-10
9.75845e-08
6.05007e-11
9.75469e-08
9.77321e-11
9.75383e-08
2.42207e-11
9.75342e-08
-1.12361e-10
9.75217e-08
-2.91832e-10
9.74887e-08
-4.62342e-10
9.74306e-08
-6.08926e-10
9.73478e-08
-7.17103e-10
9.72446e-08
-7.78202e-10
9.71285e-08
-7.90199e-10
9.70092e-08
-7.56169e-10
9.68967e-08