/*--------------------------------*- C++ -*----------------------------------*\
| =========                 |                                                 |
| \\      /  F ield         | OpenFOAM: The Open Source CFD Toolbox           |
|  \\    /   O peration     | Version:  2312                                  |
|   \\  /    A nd           | Website:  www.openfoam.com                      |
|    \\/     M anipulation  |                                                 |
\*---------------------------------------------------------------------------*/
FoamFile
{
    version     2.0;
    format      ascii;
    arch        "LSB;label=32;scalar=64";
    class       volVectorField;
    location    "127";
    object      U;
}
// * * * * * * * * * * * * * * * * * * * * * * * * * * * * * * * * * * * * * //

dimensions      [0 1 -1 0 0 0 0];

internalField   nonuniform List<vector> 
4800
(
(0.000491273 2.51241e-07 -2.65321e-26)
(0.000485556 2.915e-07 -1.89884e-25)
(0.000482375 3.16459e-07 2.42764e-25)
(0.000480851 3.29789e-07 1.14977e-25)
(0.000480521 3.35352e-07 1.73057e-24)
(0.000481227 3.14745e-07 -4.14633e-24)
(0.000482775 2.88555e-07 3.92831e-24)
(0.000485157 2.07904e-07 -5.7699e-24)
(0.000488464 3.84068e-08 1.83516e-24)
(0.000492939 -2.54885e-07 6.40279e-24)
(0.000499024 -8.17378e-07 -1.97006e-24)
(0.000508045 -2.32417e-06 -1.59564e-25)
(0.000527594 -7.83537e-06 -2.44397e-24)
(0.000576695 -3.02366e-05 1.1382e-24)
(0.000658048 -9.90331e-05 -9.04534e-25)
(0.00151989 1.2668e-06 -8.40283e-26)
(0.00150179 8.62912e-07 1.04814e-25)
(0.0014912 5.38437e-07 -9.97107e-25)
(0.00148556 2.45793e-07 7.38009e-25)
(0.00148351 -4.47746e-08 2.45177e-24)
(0.00148452 -3.92511e-07 -3.93586e-24)
(0.00148792 -8.0302e-07 -1.17502e-24)
(0.00149379 -1.37963e-06 -3.10575e-25)
(0.0015023 -2.2874e-06 9.58704e-24)
(0.00151405 -3.74936e-06 -7.1211e-24)
(0.00153032 -6.4341e-06 7.75507e-25)
(0.00155397 -1.26749e-05 1.19808e-24)
(0.00159428 -3.05777e-05 -1.78363e-24)
(0.00166257 -8.54168e-05 -5.40395e-25)
(0.00173607 -0.000210321 2.33789e-24)
(0.00265691 4.13791e-06 -6.01259e-26)
(0.00262501 2.86681e-06 6.13349e-26)
(0.00260565 1.88499e-06 6.5069e-25)
(0.00259464 1.00622e-06 -1.56612e-24)
(0.00258968 9.33e-08 1.55905e-24)
(0.00258988 -9.73856e-07 1.49848e-24)
(0.0025939 -2.26443e-06 -3.87285e-24)
(0.00260197 -4.03729e-06 -2.47766e-24)
(0.00261423 -6.64081e-06 5.9156e-24)
(0.00263127 -1.06928e-05 2.26933e-24)
(0.00265455 -1.77436e-05 -7.88264e-24)
(0.00268631 -3.19358e-05 -1.22312e-24)
(0.00273081 -6.32961e-05 3.39021e-24)
(0.0027868 -0.000132691 5.40642e-24)
(0.00282753 -0.000249511 -2.79882e-24)
(0.00390755 9.36418e-06 2.21964e-26)
(0.00386088 6.67593e-06 -1.55859e-25)
(0.00383162 4.60711e-06 7.06288e-25)
(0.00381402 2.7629e-06 7.83138e-25)
(0.00380493 8.40286e-07 -7.53422e-25)
(0.0038029 -1.37819e-06 -4.46046e-24)
(0.00380626 -3.94906e-06 -3.11154e-24)
(0.00381479 -7.53782e-06 1.17892e-23)
(0.00382882 -1.26707e-05 5.00664e-24)
(0.00384833 -2.03096e-05 -7.13096e-24)
(0.0038742 -3.26731e-05 -2.89828e-24)
(0.00390688 -5.44608e-05 -2.23469e-24)
(0.00394552 -9.40489e-05 6.19021e-26)
(0.00398262 -0.000162334 1.66557e-24)
(0.00399861 -0.000255084 8.17277e-27)
(0.00527423 1.74605e-05 -4.06377e-26)
(0.00521281 1.27338e-05 -2.5129e-25)
(0.00517306 9.09729e-06 -1.6795e-25)
(0.00514799 5.86905e-06 4.33939e-25)
(0.0051337 2.54457e-06 -1.28556e-24)
(0.00512794 -1.16867e-06 3.19749e-24)
(0.00512943 -5.65185e-06 -5.49758e-25)
(0.0051366 -1.14039e-05 2.04789e-24)
(0.00515003 -1.958e-05 -1.14587e-23)
(0.00516889 -3.11366e-05 2.19044e-23)
(0.00519306 -4.84127e-05 -2.12996e-23)
(0.0052212 -7.52484e-05 1.13161e-23)
(0.00524977 -0.00011667 -1.05673e-23)
(0.00527072 -0.000176126 1.00148e-23)
(0.00527286 -0.000246267 -4.00708e-24)
(0.00675481 2.89256e-05 5.34919e-26)
(0.00668039 2.155e-05 1.93858e-25)
(0.00663072 1.58739e-05 -1.03306e-24)
(0.00659804 1.08511e-05 -6.8343e-25)
(0.00657796 5.76173e-06 1.79463e-24)
(0.0065676 1.41518e-07 6.62313e-25)
(0.00656553 -6.52274e-06 -5.22179e-24)
(0.00656998 -1.48892e-05 1.25585e-23)
(0.00658052 -2.61727e-05 -1.65205e-23)
(0.00659595 -4.13693e-05 3.94646e-24)
(0.00661511 -6.23579e-05 1.22377e-23)
(0.00663565 -9.14579e-05 -1.71113e-23)
(0.00665356 -0.000130586 8.58861e-24)
(0.00666285 -0.000179282 8.88717e-24)
(0.00665835 -0.00023132 -6.78116e-24)
(0.00834035 4.39316e-05 4.39908e-26)
(0.00825736 3.34362e-05 -2.62396e-25)
(0.0082002 2.534e-05 9.54561e-25)
(0.00816111 1.8185e-05 -1.33947e-24)
(0.00813556 1.10355e-05 -4.67916e-24)
(0.00812047 3.20943e-06 7.9884e-24)
(0.008114 -5.81818e-06 -4.93183e-24)
(0.00811441 -1.68985e-05 1.70085e-23)
(0.00812043 -3.10518e-05 -1.15634e-23)
(0.00813048 -4.91581e-05 -5.47288e-24)
(0.00814275 -7.23446e-05 -1.09055e-23)
(0.0081547 -0.000101488 1.00224e-23)
(0.00816307 -0.000136507 2.8392e-24)
(0.00816424 -0.000175538 2.45252e-24)
(0.0081565 -0.000214316 -2.16232e-24)
(0.010013 6.18818e-05 -6.29114e-26)
(0.00992938 4.81436e-05 8.64699e-25)
(0.00986971 3.74776e-05 -2.03617e-24)
(0.00982735 2.80327e-05 -1.73357e-24)
(0.00979818 1.86763e-05 5.97381e-25)
(0.00977932 8.58129e-06 1.25293e-24)
(0.00976876 -2.8765e-06 4.68156e-24)
(0.00976469 -1.6423e-05 -1.29328e-23)
(0.00976552 -3.29417e-05 -7.06746e-24)
(0.00976942 -5.29619e-05 1.91951e-23)
(0.00977442 -7.68794e-05 -6.04777e-24)
(0.0097783 -0.000104576 2.07161e-23)
(0.00977891 -0.000135083 -1.09411e-23)
(0.00977431 -0.000166483 -3.51736e-24)
(0.00976449 -0.000196134 2.08883e-24)
(0.0117457 8.08874e-05 -8.235e-27)
(0.0116728 6.44046e-05 4.75624e-25)
(0.0116185 5.14401e-05 -6.80235e-25)
(0.0115782 3.98717e-05 1.68223e-24)
(0.0115492 2.84361e-05 -1.0177e-23)
(0.0115291 1.62472e-05 1.07916e-23)
(0.0115161 2.65055e-06 -1.73897e-23)
(0.0115085 -1.29157e-05 1.06337e-23)
(0.0115047 -3.10454e-05 8.03609e-24)
(0.0115031 -5.1908e-05 1.7721e-23)
(0.0115018 -7.53604e-05 -2.3206e-23)
(0.0114992 -0.000100784 -4.36154e-24)
(0.0114941 -0.000127045 1.97126e-24)
(0.0114855 -0.000152677 1.4427e-23)
(0.0114741 -0.000176138 -5.88838e-24)
(0.013507 9.743e-05 4.45906e-26)
(0.0134575 7.95308e-05 -1.97294e-25)
(0.0134178 6.51312e-05 9.02377e-25)
(0.0133868 5.20671e-05 -3.21823e-24)
(0.0133632 3.90741e-05 4.93546e-24)
(0.0133458 2.53045e-05 -6.47855e-24)
(0.0133335 1.01874e-05 1.09748e-23)
(0.0133247 -6.70467e-06 2.01806e-24)
(0.0133184 -2.55091e-05 -1.53907e-23)
(0.0133131 -4.61839e-05 2.21602e-23)
(0.0133076 -6.8291e-05 -2.45373e-23)
(0.0133009 -9.10772e-05 -7.32583e-24)
(0.0132923 -0.000113577 1.28798e-23)
(0.0132815 -0.000134821 3.84976e-24)
(0.0132694 -0.000153951 -1.6871e-24)
(0.0152733 0.000106912 1.76121e-25)
(0.0152556 8.95824e-05 -1.53056e-24)
(0.0152384 7.51691e-05 -2.5527e-24)
(0.0152232 6.17121e-05 6.00017e-24)
(0.0152105 4.81011e-05 2.7821e-24)
(0.0152003 3.36446e-05 -1.75022e-23)
(0.0151922 1.79319e-05 5.31878e-24)
(0.0151856 7.51601e-07 3.88577e-24)
(0.0151797 -1.77405e-05 -1.7387e-23)
(0.0151736 -3.73285e-05 1.80154e-23)
(0.0151667 -5.74645e-05 -1.46965e-23)
(0.0151585 -7.7479e-05 3.77052e-23)
(0.015149 -9.66664e-05 -1.82373e-23)
(0.0151378 -0.00011444 1.07835e-23)
(0.015126 -0.000130343 -2.95286e-24)
(0.017044 0.000105845 -6.64867e-26)
(0.0170571 9.08752e-05 1.03471e-24)
(0.0170635 7.79408e-05 -2.05047e-24)
(0.0170664 6.53792e-05 -1.08913e-24)
(0.0170673 5.23164e-05 1.21045e-23)
(0.0170671 3.82915e-05 -1.654e-24)
(0.0170661 2.30974e-05 -2.19779e-23)
(0.0170643 6.80051e-06 2.58833e-23)
(0.0170614 -1.04191e-05 -5.78344e-24)
(0.0170572 -2.81333e-05 -2.04404e-23)
(0.0170516 -4.58278e-05 2.19372e-23)
(0.0170445 -6.30013e-05 1.19644e-23)
(0.0170361 -7.91802e-05 -9.9879e-24)
(0.0170263 -9.40286e-05 -1.74723e-23)
(0.0170161 -0.000107311 1.47163e-24)
(0.0188453 9.47076e-05 8.13348e-28)
(0.0188772 8.26528e-05 -1.16606e-24)
(0.0189001 7.19462e-05 5.61359e-24)
(0.0189167 6.11562e-05 4.32292e-25)
(0.0189288 4.95931e-05 3.38353e-24)
(0.0189374 3.69796e-05 -1.18453e-23)
(0.0189433 2.33123e-05 1.03095e-23)
(0.0189466 8.78677e-06 2.448e-24)
(0.0189477 -6.31341e-06 2.16351e-23)
(0.0189467 -2.15364e-05 -3.3282e-23)
(0.0189438 -3.64786e-05 -1.52071e-23)
(0.0189391 -5.07826e-05 -1.01481e-23)
(0.0189331 -6.41389e-05 1.90732e-23)
(0.0189258 -7.63623e-05 -5.55345e-25)
(0.018918 -8.73351e-05 1.86288e-24)
(0.0207043 7.7883e-05 -1.31302e-26)
(0.0207406 6.81862e-05 1.2234e-24)
(0.0207688 5.9495e-05 -1.78691e-24)
(0.0207907 5.05687e-05 -3.26213e-27)
(0.0208076 4.08557e-05 2.39382e-24)
(0.0208204 3.01808e-05 6.18439e-24)
(0.0208298 1.86244e-05 -2.40339e-23)
(0.020836 6.41797e-06 1.94355e-24)
(0.0208397 -6.11862e-06 1.23319e-23)
(0.0208409 -1.86167e-05 -5.76576e-24)
(0.0208402 -3.07615e-05 1.57274e-23)
(0.0208376 -4.22977e-05 1.10935e-23)
(0.0208338 -5.30286e-05 -2.01325e-23)
(0.0208286 -6.28562e-05 1.38315e-23)
(0.0208231 -7.17226e-05 -1.15133e-23)
(0.0226134 5.97945e-05 -3.92073e-25)
(0.0226458 5.19656e-05 6.58911e-26)
(0.0226714 4.49444e-05 2.23539e-24)
(0.0226917 3.76322e-05 -1.12627e-23)
(0.0227076 2.96473e-05 9.91051e-24)
(0.0227198 2.09523e-05 -7.28843e-24)
(0.0227289 1.16568e-05 5.21095e-24)
(0.022735 1.93522e-06 -3.74738e-23)
(0.0227388 -7.98764e-06 5.4132e-23)
(0.0227404 -1.78189e-05 -3.20889e-23)
(0.0227402 -2.73127e-05 2.87231e-23)
(0.0227385 -3.63005e-05 2.41462e-23)
(0.0227356 -4.46642e-05 -4.22342e-23)
(0.0227316 -5.23483e-05 1.37687e-23)
(0.0227272 -5.93179e-05 -5.79413e-25)
(0.0245173 4.2303e-05 -1.34802e-26)
(0.024544 3.62649e-05 -5.43811e-25)
(0.0245649 3.09602e-05 5.39572e-25)
(0.0245811 2.53977e-05 -3.21253e-25)
(0.0245937 1.91993e-05 4.21333e-24)
(0.0246032 1.24331e-05 -7.21329e-24)
(0.02461 5.31341e-06 6.68456e-24)
(0.0246143 -2.03594e-06 -2.11516e-23)
(0.0246167 -9.45008e-06 4.81781e-23)
(0.0246173 -1.67692e-05 -6.17567e-23)
(0.0246166 -2.38298e-05 5.06706e-23)
(0.0246146 -3.05118e-05 -1.71358e-23)
(0.0246118 -3.67562e-05 8.90795e-25)
(0.0246079 -4.25235e-05 3.93332e-24)
(0.0246038 -4.77838e-05 -7.55555e-24)
(0.0263248 2.53711e-05 -1.06873e-24)
(0.0263465 2.13609e-05 1.34245e-24)
(0.0263631 1.7968e-05 2.39308e-25)
(0.0263756 1.44548e-05 -2.05612e-24)
(0.0263849 1.03771e-05 7.44516e-24)
(0.0263915 5.75656e-06 -7.40192e-24)
(0.026396 8.24578e-07 -6.36455e-24)
(0.0263984 -4.24763e-06 -1.52057e-23)
(0.0263993 -9.31313e-06 7.91728e-24)
(0.0263987 -1.43054e-05 3.69502e-23)
(0.0263971 -1.91119e-05 -1.9481e-23)
(0.0263944 -2.36944e-05 1.15551e-23)
(0.0263912 -2.80155e-05 -4.78108e-24)
(0.0263871 -3.20229e-05 -1.40537e-23)
(0.0263828 -3.57071e-05 7.18898e-24)
(0.027915 8.84859e-06 3.33387e-25)
(0.0279323 7.07591e-06 -5.0139e-25)
(0.027945 5.85338e-06 1.03002e-24)
(0.0279542 4.62428e-06 -4.20403e-24)
(0.0279607 2.86463e-06 -1.6752e-24)
(0.0279649 6.38397e-07 1.36591e-23)
(0.0279674 -2.00471e-06 -1.035e-23)
(0.0279684 -4.72607e-06 -6.07484e-24)
(0.0279679 -7.83513e-06 5.38826e-24)
(0.0279664 -1.05249e-05 -5.96057e-24)
(0.0279637 -1.34621e-05 1.33337e-23)
(0.0279608 -1.57799e-05 6.54976e-24)
(0.0279569 -1.83853e-05 -2.6394e-23)
(0.0279528 -2.06146e-05 1.81094e-23)
(0.0279483 -2.27986e-05 -3.82228e-24)
(0.0291213 -5.88648e-06 9.30395e-25)
(0.0291342 -5.00019e-06 8.46232e-25)
(0.0291433 -4.18438e-06 -2.20514e-24)
(0.0291496 -3.14745e-06 2.0088e-24)
(0.0291534 -2.7158e-06 -2.73983e-24)
(0.0291559 -2.32687e-06 -6.2868e-24)
(0.0291563 -2.79074e-06 -5.22599e-24)
(0.0291557 -3.26048e-06 1.11433e-23)
(0.0291544 -3.9008e-06 1.01283e-23)
(0.0291525 -4.55615e-06 -2.57156e-23)
(0.02915 -5.30687e-06 1.72264e-23)
(0.0291467 -6.15244e-06 -1.3547e-24)
(0.0291428 -7.0034e-06 -1.14699e-24)
(0.0291383 -7.82677e-06 1.58359e-24)
(0.0291338 -8.49757e-06 -7.23312e-25)
(0.0297203 -1.92307e-05 -2.29227e-24)
(0.0297304 -1.60145e-05 -3.25271e-24)
(0.0297375 -1.284e-05 4.07106e-24)
(0.0297423 -9.83508e-06 2.22505e-24)
(0.0297452 -7.07413e-06 -3.69049e-26)
(0.0297467 -4.77478e-06 2.82323e-24)
(0.029747 -2.68824e-06 -2.24589e-24)
(0.0297464 -9.24924e-07 -1.57877e-23)
(0.0297448 3.90514e-07 3.53058e-23)
(0.0297426 1.35437e-06 -1.45409e-23)
(0.0297396 2.15554e-06 5.48521e-24)
(0.0297362 2.9107e-06 -9.7421e-24)
(0.0297324 3.67029e-06 -9.66585e-24)
(0.0297285 4.45113e-06 1.40509e-23)
(0.0297243 5.2377e-06 -5.98086e-24)
(0.029526 -3.05071e-05 3.40894e-24)
(0.0295319 -2.51356e-05 -7.05107e-24)
(0.0295356 -1.98213e-05 1.82798e-24)
(0.0295377 -1.47891e-05 3.5497e-24)
(0.0295384 -1.01471e-05 -1.12514e-24)
(0.0295382 -5.92964e-06 -2.00982e-24)
(0.0295372 -2.22154e-06 -8.17273e-24)
(0.0295353 1.05813e-06 2.00502e-23)
(0.0295327 4.00964e-06 5.16542e-24)
(0.0295297 6.70929e-06 -1.23e-23)
(0.0295264 9.23323e-06 -6.38039e-24)
(0.0295228 1.16354e-05 7.26834e-24)
(0.0295189 1.39413e-05 -7.70572e-24)
(0.0295148 1.61452e-05 4.35494e-24)
(0.0295105 1.8253e-05 -1.87695e-24)
(0.0285155 -3.57454e-05 1.99851e-24)
(0.0285176 -2.89799e-05 -3.85865e-24)
(0.0285184 -2.24152e-05 -1.30319e-24)
(0.0285184 -1.61953e-05 6.20831e-24)
(0.0285178 -1.03999e-05 -3.1736e-24)
(0.0285167 -5.009e-06 1.16362e-24)
(0.0285151 -1.59174e-07 -3.75896e-25)
(0.0285133 4.32884e-06 -1.34599e-24)
(0.0285113 8.53405e-06 -3.33159e-24)
(0.028509 1.24783e-05 2.14037e-23)
(0.0285064 1.61841e-05 -1.32104e-23)
(0.0285037 1.96674e-05 1.34212e-24)
(0.0285007 2.29497e-05 -1.69262e-23)
(0.0284976 2.60565e-05 8.18038e-24)
(0.0284943 2.90156e-05 2.61525e-24)
(0.0269547 -3.64738e-05 4.77216e-24)
(0.0269534 -2.91532e-05 -7.9364e-24)
(0.0269515 -2.2177e-05 1.7733e-24)
(0.0269493 -1.55392e-05 -1.34625e-24)
(0.0269469 -9.27073e-06 7.26306e-25)
(0.0269443 -3.39811e-06 1.39754e-24)
(0.0269415 2.12221e-06 1.33762e-24)
(0.0269387 7.30368e-06 -1.39425e-24)
(0.0269358 1.21591e-05 1.22376e-24)
(0.0269329 1.67109e-05 7.00544e-24)
(0.0269298 2.09805e-05 -1.5371e-23)
(0.0269268 2.49939e-05 1.18129e-23)
(0.0269237 2.8783e-05 -1.02038e-24)
(0.0269206 3.23801e-05 -3.53715e-24)
(0.0269174 3.58122e-05 5.54403e-25)
(0.0250459 -3.40598e-05 1.79126e-24)
(0.0250415 -2.6613e-05 -8.11404e-24)
(0.0250371 -1.94323e-05 1.21323e-23)
(0.0250331 -1.25744e-05 -7.55847e-24)
(0.0250292 -6.08386e-06 4.0099e-24)
(0.0250255 -4.71894e-08 -2.30715e-24)
(0.025022 5.6902e-06 -7.28851e-25)
(0.0250187 1.10951e-05 1.1043e-24)
(0.0250156 1.61731e-05 -5.696e-24)
(0.0250126 2.09504e-05 -2.59361e-24)
(0.0250098 2.54491e-05 8.99783e-24)
(0.0250071 2.96983e-05 2.69687e-24)
(0.0250045 3.37209e-05 -4.52652e-24)
(0.0250021 3.75317e-05 1.43471e-24)
(0.0249997 4.11483e-05 -4.08787e-25)
(0.0229386 -2.86982e-05 2.35158e-25)
(0.0229318 -2.16007e-05 -2.96846e-24)
(0.0229256 -1.47441e-05 -7.91017e-25)
(0.0229204 -8.19448e-06 9.12009e-24)
(0.0229157 -2.01682e-06 -7.05333e-24)
(0.0229117 3.83832e-06 1.57924e-24)
(0.0229082 9.39099e-06 2.99157e-26)
(0.0229052 1.46232e-05 1.24102e-25)
(0.0229025 1.95521e-05 1.64358e-24)
(0.0229003 2.42004e-05 -9.62565e-24)
(0.0228985 2.85851e-05 8.69427e-24)
(0.022897 3.27224e-05 1.10901e-24)
(0.0228957 3.66259e-05 -1.40641e-24)
(0.0228948 4.0307e-05 -2.50577e-24)
(0.0228942 4.37778e-05 2.10192e-24)
(0.0207459 -2.19982e-05 3.48485e-25)
(0.0207382 -1.56788e-05 2.68923e-24)
(0.0207317 -9.61361e-06 -3.16225e-24)
(0.0207265 -3.82182e-06 -1.41314e-24)
(0.0207224 1.7173e-06 6.45399e-24)
(0.0207191 7.00859e-06 -4.95495e-24)
(0.0207166 1.20007e-05 -4.14438e-25)
(0.0207149 1.67112e-05 3.8876e-25)
(0.0207138 2.11602e-05 4.34088e-25)
(0.0207133 2.53595e-05 8.00811e-26)
(0.0207134 2.93189e-05 2.57338e-24)
(0.0207139 3.30477e-05 -9.97961e-25)
(0.0207149 3.65548e-05 -1.706e-25)
(0.0207164 3.98467e-05 -5.48076e-25)
(0.0207183 4.29297e-05 -1.85025e-24)
(0.0185554 -1.57656e-05 2.48914e-24)
(0.0185485 -1.05247e-05 -3.6648e-24)
(0.0185431 -5.51631e-06 -2.06918e-24)
(0.0185394 -6.80885e-07 6.10259e-24)
(0.0185368 3.98494e-06 -2.22557e-24)
(0.0185353 8.43146e-06 -1.40573e-24)
(0.0185348 1.26384e-05 6.7175e-25)
(0.0185351 1.66232e-05 -4.9253e-25)
(0.0185363 2.0395e-05 2.39854e-24)
(0.0185382 2.39584e-05 -3.85018e-24)
(0.0185407 2.73176e-05 3.17242e-24)
(0.0185439 3.04766e-05 -2.06928e-24)
(0.0185476 3.34393e-05 4.5523e-24)
(0.0185519 3.62083e-05 -5.43035e-24)
(0.0185566 3.8787e-05 1.72014e-24)
(0.0164305 -1.10948e-05 -4.86026e-25)
(0.0164254 -7.02198e-06 -1.41724e-24)
(0.016422 -3.13814e-06 -3.71194e-24)
(0.0164203 6.40471e-07 1.02074e-23)
(0.0164198 4.35348e-06 -2.3424e-24)
(0.0164204 7.90674e-06 -1.98382e-24)
(0.0164221 1.12692e-05 1.20397e-26)
(0.0164246 1.44654e-05 -1.37271e-25)
(0.0164281 1.75004e-05 2.00363e-24)
(0.0164323 2.03741e-05 -1.77719e-24)
(0.0164372 2.30865e-05 -9.51453e-26)
(0.0164428 2.56377e-05 2.61085e-24)
(0.016449 2.80281e-05 -2.89419e-24)
(0.0164557 3.02573e-05 -4.09887e-25)
(0.016463 3.2325e-05 4.78462e-25)
(0.0144113 -8.17599e-06 1.88491e-24)
(0.0144082 -5.19516e-06 2.22058e-24)
(0.0144067 -2.3958e-06 -2.57625e-24)
(0.0144068 3.92155e-07 -3.85592e-24)
(0.0144081 3.24979e-06 4.11594e-24)
(0.0144105 5.9663e-06 -3.31815e-24)
(0.0144138 8.52497e-06 7.13667e-25)
(0.0144181 1.09746e-05 6.60265e-25)
(0.0144232 1.33159e-05 -8.21876e-26)
(0.0144291 1.55446e-05 1.60429e-24)
(0.0144356 1.76573e-05 1.00696e-24)
(0.0144429 1.96505e-05 -6.43251e-24)
(0.0144507 2.1522e-05 2.59773e-24)
(0.014459 2.32686e-05 1.08069e-24)
(0.0144679 2.48884e-05 1.04414e-25)
(0.0125188 -6.61412e-06 -1.97392e-24)
(0.0125172 -4.50986e-06 2.48712e-24)
(0.0125171 -2.55827e-06 1.55856e-25)
(0.0125182 -7.44662e-07 3.0148e-24)
(0.0125204 1.31379e-06 -2.88296e-24)
(0.0125238 3.37144e-06 -1.95443e-25)
(0.012528 5.26233e-06 -4.92161e-25)
(0.012533 7.08183e-06 -3.37428e-25)
(0.0125389 8.83391e-06 -4.94832e-25)
(0.0125454 1.05155e-05 1.71182e-24)
(0.0125526 1.21216e-05 5.1893e-25)
(0.0125603 1.36469e-05 -4.42588e-25)
(0.0125687 1.5088e-05 -6.25262e-25)
(0.0125775 1.64402e-05 -4.03165e-25)
(0.0125868 1.77012e-05 -2.72706e-25)
(0.0107613 -5.80754e-06 1.47363e-24)
(0.0107606 -4.39747e-06 -1.15972e-24)
(0.0107608 -3.22732e-06 -3.68019e-24)
(0.0107621 -1.98099e-06 3.47179e-24)
(0.0107645 -5.31192e-07 3.41198e-24)
(0.0107679 8.91924e-07 -1.66039e-24)
(0.010772 2.24742e-06 -1.56357e-24)
(0.0107768 3.56499e-06 -2.92351e-25)
(0.0107823 4.84576e-06 -1.54625e-25)
(0.0107885 6.08925e-06 -2.61489e-25)
(0.0107953 7.29e-06 5.06655e-25)
(0.0108026 8.44246e-06 3.93466e-25)
(0.0108104 9.54295e-06 -7.47921e-25)
(0.0108186 1.05867e-05 -7.0416e-26)
(0.0108273 1.15708e-05 3.01976e-25)
(0.00913956 -5.29671e-06 -9.34153e-25)
(0.00913875 -4.41026e-06 -4.70135e-25)
(0.00913882 -3.66277e-06 7.30638e-25)
(0.00913964 -2.89193e-06 -1.46989e-24)
(0.0091414 -1.99444e-06 4.81871e-24)
(0.00914399 -1.01078e-06 -5.05501e-24)
(0.00914721 -5.52436e-08 3.43131e-24)
(0.00915108 8.77476e-07 -1.02774e-24)
(0.00915555 1.79366e-06 -2.59315e-25)
(0.0091606 2.69662e-06 -3.55272e-25)
(0.00916617 3.58128e-06 2.76627e-25)
(0.00917224 4.44196e-06 -5.86654e-25)
(0.00917876 5.27582e-06 8.48276e-25)
(0.0091857 6.0785e-06 2.25672e-25)
(0.00919301 6.84672e-06 -1.3792e-25)
(0.00764999 -4.74664e-06 -4.56706e-25)
(0.00764868 -4.20768e-06 1.51949e-25)
(0.00764811 -3.73798e-06 2.28685e-25)
(0.00764814 -3.31306e-06 -7.12321e-25)
(0.00764877 -2.79947e-06 -1.13251e-25)
(0.00765008 -2.16009e-06 2.07533e-24)
(0.00765201 -1.4928e-06 -1.09839e-24)
(0.00765448 -8.45564e-07 2.57868e-27)
(0.00765747 -2.05629e-07 -3.56341e-26)
(0.00766096 4.3621e-07 1.68572e-25)
(0.00766493 1.07586e-06 2.1781e-25)
(0.00766934 1.70738e-06 -8.14851e-25)
(0.00767417 2.32978e-06 -6.39872e-25)
(0.0076794 2.93946e-06 8.63048e-25)
(0.00768497 3.53252e-06 2.25649e-25)
(0.00628708 -4.02043e-06 -1.66932e-25)
(0.00628512 -3.72067e-06 -3.33521e-26)
(0.00628371 -3.48148e-06 -2.12324e-24)
(0.00628275 -3.24917e-06 8.27131e-25)
(0.00628224 -2.93806e-06 -7.55832e-25)
(0.00628222 -2.56264e-06 1.0834e-24)
(0.00628268 -2.14095e-06 1.07099e-24)
(0.00628365 -1.6999e-06 1.82748e-25)
(0.00628506 -1.26059e-06 9.53122e-26)
(0.00628691 -8.15848e-07 -4.64893e-26)
(0.00628917 -3.6645e-07 -4.4605e-25)
(0.00629184 8.35051e-08 1.10923e-24)
(0.0062949 5.35389e-07 -6.22039e-25)
(0.00629833 9.86208e-07 2.28739e-25)
(0.0063021 1.43144e-06 -4.17828e-25)
(0.00504409 -3.16051e-06 -6.56648e-25)
(0.00504157 -3.01393e-06 -7.50732e-25)
(0.00503943 -2.91264e-06 3.25364e-26)
(0.00503758 -2.80936e-06 1.7418e-24)
(0.00503604 -2.64399e-06 -9.52099e-25)
(0.00503486 -2.40864e-06 2.75063e-26)
(0.00503408 -2.14232e-06 9.00377e-25)
(0.0050337 -1.86826e-06 -2.03257e-25)
(0.00503369 -1.59349e-06 -1.68642e-25)
(0.00503405 -1.29878e-06 6.28268e-25)
(0.00503479 -9.93705e-07 2.91901e-25)
(0.00503589 -6.86011e-07 -1.13157e-24)
(0.00503735 -3.71994e-07 1.69899e-25)
(0.00503915 -5.37633e-08 4.82927e-25)
(0.00504128 2.6502e-07 -3.64021e-25)
(0.00391363 -2.26305e-06 -1.4405e-25)
(0.00391081 -2.20772e-06 2.13757e-26)
(0.0039082 -2.17627e-06 8.81671e-25)
(0.00390576 -2.14043e-06 3.94706e-25)
(0.00390352 -2.05973e-06 -4.91199e-25)
(0.00390154 -1.93119e-06 -6.95422e-25)
(0.00389986 -1.77793e-06 1.41428e-25)
(0.00389848 -1.6144e-06 -2.65401e-25)
(0.00389742 -1.44091e-06 1.44108e-25)
(0.00389666 -1.25886e-06 -3.33512e-25)
(0.00389621 -1.06968e-06 -2.74452e-25)
(0.00389609 -8.77838e-07 7.11852e-25)
(0.00389626 -6.74757e-07 -2.41957e-25)
(0.00389676 -4.64052e-07 3.05956e-25)
(0.00389757 -2.50818e-07 -1.86358e-25)
(0.00288798 -1.43107e-06 -2.66097e-25)
(0.00288518 -1.42624e-06 2.97235e-26)
(0.00288248 -1.42574e-06 7.26794e-25)
(0.00287986 -1.421e-06 -4.44786e-25)
(0.00287734 -1.3883e-06 1.27432e-24)
(0.002875 -1.32508e-06 -2.09368e-24)
(0.00287286 -1.24424e-06 1.20295e-24)
(0.00287096 -1.15487e-06 -5.47928e-25)
(0.00286929 -1.05991e-06 1.85098e-26)
(0.00286786 -9.5819e-07 2.97072e-25)
(0.00286668 -8.50639e-07 -1.51469e-25)
(0.00286576 -7.36348e-07 -4.64301e-26)
(0.00286509 -6.16884e-07 -1.90529e-25)
(0.00286471 -4.91686e-07 2.60869e-25)
(0.00286459 -3.65841e-07 -7.52395e-26)
(0.00195933 -7.48645e-07 4.0495e-25)
(0.00195691 -7.67963e-07 3.60578e-25)
(0.00195451 -7.79227e-07 -1.59886e-24)
(0.00195213 -7.86689e-07 1.07026e-24)
(0.00194979 -7.78657e-07 -4.94972e-26)
(0.00194755 -7.52902e-07 1.10359e-25)
(0.00194545 -7.16152e-07 -2.30234e-25)
(0.0019435 -6.73724e-07 -1.38675e-25)
(0.00194171 -6.27697e-07 3.70672e-26)
(0.0019401 -5.77124e-07 -1.03344e-25)
(0.00193867 -5.22788e-07 4.067e-25)
(0.00193743 -4.65133e-07 -1.33385e-25)
(0.00193639 -4.04176e-07 -2.07705e-25)
(0.00193556 -3.4069e-07 1.49309e-26)
(0.00193494 -2.73577e-07 5.16183e-26)
(0.00111998 -2.66916e-07 -4.09717e-25)
(0.00111826 -2.68184e-07 1.1769e-24)
(0.00111654 -2.69204e-07 5.23035e-25)
(0.0011148 -2.72641e-07 -1.11838e-24)
(0.00111307 -2.72291e-07 -1.21971e-25)
(0.00111138 -2.65999e-07 -7.52544e-26)
(0.00110977 -2.5558e-07 1.31641e-25)
(0.00110824 -2.42985e-07 -1.47492e-25)
(0.00110682 -2.29164e-07 -3.38252e-26)
(0.00110549 -2.13861e-07 9.59518e-27)
(0.00110428 -1.97561e-07 1.71014e-25)
(0.00110319 -1.80626e-07 -1.54516e-25)
(0.00110223 -1.62876e-07 3.93777e-25)
(0.0011014 -1.44863e-07 -4.61138e-25)
(0.00110071 -1.2608e-07 1.11925e-25)
(0.000362499 -4.304e-09 -2.94437e-27)
(0.000361749 7.33638e-08 2.23469e-25)
(0.000361001 1.24483e-07 2.04463e-25)
(0.000360248 1.53406e-07 -3.66665e-25)
(0.000359495 1.66057e-07 5.24515e-25)
(0.000358757 1.66791e-07 -5.80524e-25)
(0.000358046 1.58691e-07 1.81901e-26)
(0.000357367 1.4405e-07 4.89083e-26)
(0.000356724 1.24637e-07 -5.55982e-26)
(0.000356118 1.02244e-07 8.79094e-26)
(0.000355553 7.81498e-08 -2.7949e-25)
(0.000355033 5.33602e-08 1.56987e-25)
(0.000354559 2.87867e-08 1.46738e-25)
(0.000354138 4.89074e-09 -1.35793e-25)
(0.000353769 -1.77227e-08 9.31254e-27)
(0.000975602 -0.000260839 8.94034e-26)
(0.00111706 -0.000181893 2.30336e-24)
(0.00135441 -0.000102662 -6.64487e-24)
(0.00159657 -4.19051e-05 9.71063e-24)
(0.00182788 2.32223e-06 -3.64144e-24)
(0.00205311 3.09007e-05 -3.54442e-24)
(0.00227193 4.67854e-05 4.04257e-24)
(0.00248476 5.25103e-05 -7.99571e-24)
(0.00269232 5.03448e-05 5.36371e-25)
(0.00289529 4.23258e-05 5.00545e-24)
(0.00309437 3.02329e-05 -9.36765e-25)
(0.00329024 1.57119e-05 9.90348e-25)
(0.00348357 3.40528e-07 -1.08451e-25)
(0.00367506 -1.41909e-05 5.48936e-25)
(0.00386558 -2.59485e-05 -2.00034e-24)
(0.00405639 -3.26463e-05 1.07214e-24)
(0.00424947 -3.15477e-05 -2.88658e-25)
(0.0044478 -1.97568e-05 3.86588e-26)
(0.00465636 5.61168e-06 6.06786e-25)
(0.00488078 4.64619e-05 -3.73055e-25)
(0.00513035 0.000101096 4.73713e-26)
(0.00541078 0.000165283 -4.28021e-26)
(0.00570117 0.000219315 9.69931e-26)
(0.00596402 0.000245223 4.24974e-25)
(0.00618482 0.000242318 -7.60367e-25)
(0.00636216 0.000213419 -6.0526e-25)
(0.00649748 0.000161105 -4.30458e-26)
(0.00659287 8.76058e-05 1.60974e-24)
(0.00664944 -4.92576e-06 2.55611e-24)
(0.00666704 -0.000113575 -5.04755e-24)
(0.00664457 -0.000234168 4.8802e-24)
(0.00658061 -0.000360853 -4.83412e-24)
(0.00647407 -0.000486281 1.42122e-24)
(0.00632458 -0.000601917 5.14905e-25)
(0.00613271 -0.000698429 -5.78148e-25)
(0.00589982 -0.000765931 2.93081e-24)
(0.00562793 -0.000793918 1.01138e-25)
(0.00531943 -0.000770629 1.92322e-24)
(0.0049772 -0.000681565 1.42107e-24)
(0.00460521 -0.000507346 -8.03701e-24)
(0.00420863 -0.000223671 -1.07205e-25)
(0.00379528 0.000190676 4.0384e-24)
(0.00335978 0.000719977 1.5429e-24)
(0.00292714 0.00127043 -5.9111e-24)
(0.00268677 0.00151687 -3.11354e-25)
(0.0018348 -0.000346425 -2.62969e-24)
(0.00189342 -0.000304026 -3.73013e-24)
(0.00203867 -0.000227892 7.80969e-24)
(0.00222144 -0.000159094 3.68396e-24)
(0.00241463 -0.000103432 -1.2884e-23)
(0.00261284 -6.31794e-05 1.3804e-23)
(0.00281141 -3.65355e-05 -4.95553e-24)
(0.00300811 -2.11978e-05 3.95357e-24)
(0.00320215 -1.48749e-05 -5.22214e-24)
(0.00339328 -1.54249e-05 6.56851e-26)
(0.0035816 -2.09503e-05 -2.67181e-24)
(0.00376738 -2.96829e-05 5.25382e-24)
(0.00395101 -3.99469e-05 -2.83827e-24)
(0.00413298 -4.99785e-05 -2.34547e-24)
(0.004314 -5.77981e-05 -1.34221e-24)
(0.00449513 -6.11271e-05 2.89859e-24)
(0.0046782 -5.72623e-05 -2.47574e-25)
(0.00486594 -4.3397e-05 1.25327e-24)
(0.00506308 -1.67073e-05 1.58335e-25)
(0.00527491 2.46335e-05 -3.3759e-25)
(0.00551063 7.90448e-05 -1.38652e-25)
(0.00577602 0.00014275 -9.72403e-26)
(0.00605237 0.000196692 5.16221e-25)
(0.00630476 0.000223524 7.53756e-25)
(0.0065191 0.000222678 -5.76303e-25)
(0.00669336 0.000196824 -3.51205e-24)
(0.00682827 0.000148433 4.93826e-24)
(0.00692525 7.98177e-05 -3.67644e-24)
(0.00698497 -6.62945e-06 1.26068e-24)
(0.00700706 -0.000107885 -9.35655e-25)
(0.00699045 -0.000219481 7.25164e-24)
(0.00693391 -0.000335523 -1.02691e-23)
(0.0068367 -0.00044869 5.94731e-24)
(0.00669891 -0.000550559 -4.22172e-24)
(0.00652173 -0.00063195 2.10833e-24)
(0.00630742 -0.000683137 -2.23695e-25)
(0.00605922 -0.000693779 6.84661e-24)
(0.00578146 -0.00065239 -1.12714e-24)
(0.00547994 -0.00054514 -7.00777e-24)
(0.00516351 -0.000354004 -5.07991e-24)
(0.0048463 -5.64684e-05 1.16305e-23)
(0.0045522 0.000366385 -1.18807e-23)
(0.00430892 0.000898164 -3.1197e-24)
(0.00416364 0.00143168 8.12642e-24)
(0.00417336 0.00160835 2.81116e-24)
(0.00284545 -0.00035489 -3.10229e-26)
(0.00285459 -0.000354822 -4.37779e-24)
(0.00291464 -0.000311948 8.27362e-24)
(0.00302818 -0.000253806 7.07158e-24)
(0.00316841 -0.000198132 -1.15127e-23)
(0.00332567 -0.000152566 2.33479e-25)
(0.00349218 -0.000118568 1.11948e-24)
(0.00366298 -9.54407e-05 1.21426e-23)
(0.0038354 -8.15535e-05 -1.43628e-23)
(0.00400785 -7.50598e-05 8.72526e-24)
(0.00417954 -7.416e-05 2.47859e-24)
(0.00435009 -7.71078e-05 -1.40135e-23)
(0.00451945 -8.21881e-05 5.03663e-24)
(0.00468776 -8.76026e-05 1.88065e-24)
(0.00485547 -9.13593e-05 -3.63275e-24)
(0.0050234 -9.12032e-05 5.60151e-24)
(0.00519312 -8.44772e-05 -3.73387e-24)
(0.00536708 -6.84762e-05 6.3428e-27)
(0.00554974 -4.04421e-05 2.84676e-25)
(0.00574596 1.3705e-06 2.59098e-25)
(0.00596483 5.54926e-05 2.33739e-26)
(0.00621218 0.000118616 1.5097e-25)
(0.00647163 0.000172341 -5.32279e-25)
(0.00671113 0.000199953 1.67107e-24)
(0.00691706 0.000201049 -2.86941e-24)
(0.00708674 0.000178175 1.69338e-24)
(0.00722009 0.000133694 -4.54043e-24)
(0.00731785 6.99962e-05 6.14835e-24)
(0.00738019 -1.03426e-05 -6.27238e-24)
(0.00740652 -0.000104019 -7.07956e-26)
(0.00739579 -0.000206444 -4.56418e-25)
(0.007347 -0.000311638 1.19475e-23)
(0.00725974 -0.000412326 -4.02595e-24)
(0.00713465 -0.000500246 -2.0767e-24)
(0.0069736 -0.00056647 9.18077e-25)
(0.00677977 -0.000601621 4.25099e-24)
(0.00655773 -0.000595861 -4.29662e-24)
(0.00631374 -0.000538585 1.06457e-23)
(0.0060565 -0.000417743 -2.16605e-23)
(0.00579914 -0.000218889 8.5594e-24)
(0.00556175 7.40887e-05 3.30771e-24)
(0.00537653 0.000470545 5.72199e-24)
(0.00528159 0.000945064 -7.12934e-24)
(0.00530747 0.00138779 2.15521e-24)
(0.005442 0.001517 -1.33308e-24)
(0.00398796 -0.00033711 -1.11918e-24)
(0.0039684 -0.000363578 -1.71736e-24)
(0.00397736 -0.000349907 -7.33645e-24)
(0.00402442 -0.000315721 1.95589e-24)
(0.00410736 -0.000270886 1.30941e-24)
(0.00421484 -0.000228277 5.90394e-24)
(0.0043394 -0.000192456 -1.24552e-23)
(0.00447482 -0.000165108 4.75541e-24)
(0.00461701 -0.000145891 1.57604e-23)
(0.00476312 -0.00013373 -4.23653e-24)
(0.00491134 -0.000127238 -3.88446e-24)
(0.00506054 -0.00012488 -5.99834e-25)
(0.0052101 -0.000125035 1.86533e-24)
(0.0053597 -0.000125958 -3.53495e-24)
(0.00550942 -0.000125699 8.57566e-25)
(0.0056598 -0.000122064 -1.91887e-25)
(0.00581208 -0.000112473 -1.28709e-24)
(0.00596841 -9.43458e-05 6.25256e-25)
(0.00613287 -6.50088e-05 2.13885e-24)
(0.0063099 -2.28082e-05 -2.46328e-25)
(0.00650842 3.08724e-05 -4.60228e-25)
(0.00673419 9.32234e-05 -1.44545e-25)
(0.00697342 0.000146519 -9.40067e-25)
(0.00719717 0.000174693 -1.76243e-25)
(0.00739234 0.000177567 -2.75886e-24)
(0.00755552 0.000157582 4.52437e-24)
(0.00768579 0.000116992 -4.53086e-24)
(0.00778317 5.82636e-05 8.92789e-24)
(0.00784729 -1.58409e-05 -8.23941e-24)
(0.00787736 -0.000101785 1.72801e-24)
(0.00787231 -0.000194852 3.86983e-24)
(0.00783138 -0.000289025 -5.07139e-26)
(0.00775457 -0.000377142 -2.18322e-25)
(0.00764304 -0.000451202 2.83555e-26)
(0.00749937 -0.000502692 -7.56873e-25)
(0.00732765 -0.000522843 -1.78772e-24)
(0.00713371 -0.000502739 1.12541e-23)
(0.00692548 -0.000433298 -5.69894e-24)
(0.00671378 -0.000305215 2.76256e-25)
(0.00651411 -0.000109112 -2.09528e-23)
(0.0063484 0.000162559 1.61968e-23)
(0.00624765 0.000509058 -6.51644e-24)
(0.00624468 0.000900013 1.40405e-24)
(0.00635161 0.00124794 8.4404e-24)