/*--------------------------------*- C++ -*----------------------------------*\
| =========                 |                                                 |
| \\      /  F ield         | OpenFOAM: The Open Source CFD Toolbox           |
|  \\    /   O peration     | Version:  2312                                  |
|   \\  /    A nd           | Website:  www.openfoam.com                      |
|    \\/     M anipulation  |                                                 |
\*---------------------------------------------------------------------------*/
FoamFile
{
    version     2.0;
    format      ascii;
    arch        "LSB;label=32;scalar=64";
    class       volScalarField;
    location    "200";
    object      p;
}
// * * * * * * * * * * * * * * * * * * * * * * * * * * * * * * * * * * * * * //

dimensions      [0 2 -2 0 0 0 0];

internalField   nonuniform List<scalar> 
4800
(
6.78525e-13
-1.84838e-07
-3.49236e-07
-4.95128e-07
-6.2521e-07
-7.41374e-07
-8.45182e-07
-9.37718e-07
-1.01952e-06
-1.09057e-06
-1.15076e-06
-1.20277e-06
-1.25609e-06
-1.32158e-06
-1.65701e-06
1.47681e-09
-1.83232e-07
-3.47525e-07
-4.93429e-07
-6.23684e-07
-7.40235e-07
-8.44737e-07
-9.38463e-07
-1.02235e-06
-1.09724e-06
-1.16462e-06
-1.22901e-06
-1.30071e-06
-1.40323e-06
-1.66763e-06
3.35145e-09
-1.81284e-07
-3.45519e-07
-4.91484e-07
-6.21977e-07
-7.39011e-07
-8.44351e-07
-9.39486e-07
-1.02579e-06
-1.10491e-06
-1.1796e-06
-1.25542e-06
-1.34175e-06
-1.45193e-06
-1.62265e-06
5.51529e-09
-1.79026e-07
-3.43176e-07
-4.89163e-07
-6.19849e-07
-7.37311e-07
-8.43413e-07
-9.39824e-07
-1.02822e-06
-1.11062e-06
-1.18994e-06
-1.27055e-06
-1.35758e-06
-1.45387e-06
-1.562e-06
8.07918e-09
-1.76307e-07
-3.40307e-07
-4.86238e-07
-6.17024e-07
-7.34798e-07
-8.41493e-07
-9.3888e-07
-1.02873e-06
-1.11302e-06
-1.19397e-06
-1.27384e-06
-1.35369e-06
-1.43116e-06
-1.50036e-06
1.1202e-08
-1.72951e-07
-3.36713e-07
-4.82471e-07
-6.13214e-07
-7.31112e-07
-8.38111e-07
-9.35981e-07
-1.02639e-06
-1.11088e-06
-1.19066e-06
-1.26609e-06
-1.33578e-06
-1.39596e-06
-1.44095e-06
1.50937e-08
-1.68726e-07
-3.32128e-07
-4.7755e-07
-6.08032e-07
-7.25754e-07
-8.32608e-07
-9.3024e-07
-1.02003e-06
-1.10294e-06
-1.1792e-06
-1.24795e-06
-1.30701e-06
-1.35324e-06
-1.3834e-06
2.00756e-08
-1.63285e-07
-3.26159e-07
-4.71012e-07
-6.00919e-07
-7.1803e-07
-8.24111e-07
-9.20584e-07
-1.00845e-06
-1.0881e-06
-1.15913e-06
-1.22024e-06
-1.26958e-06
-1.3054e-06
-1.32661e-06
2.66452e-08
-1.56099e-07
-3.18222e-07
-4.62191e-07
-5.91091e-07
-7.07013e-07
-8.11535e-07
-9.05808e-07
-9.90468e-07
-1.06553e-06
-1.13036e-06
-1.18389e-06
-1.22507e-06
-1.25351e-06
-1.26938e-06
3.55637e-08
-1.46377e-07
-3.07458e-07
-4.50142e-07
-5.77492e-07
-6.91517e-07
-7.93594e-07
-8.84624e-07
-9.65001e-07
-1.03462e-06
-1.09302e-06
-1.13967e-06
-1.17442e-06
-1.1978e-06
-1.21059e-06
4.7956e-08
-1.3297e-07
-2.92649e-07
-4.33566e-07
-5.58728e-07
-6.70076e-07
-7.68821e-07
-8.55707e-07
-9.31067e-07
-9.94932e-07
-1.04723e-06
-1.08807e-06
-1.118e-06
-1.13807e-06
-1.14922e-06
6.54105e-08
-1.14272e-07
-2.72128e-07
-4.10742e-07
-5.33045e-07
-6.40951e-07
-7.356e-07
-8.17718e-07
-8.87762e-07
-9.46062e-07
-9.93014e-07
-1.02925e-06
-1.05576e-06
-1.07382e-06
-1.08433e-06
9.00197e-08
-8.8178e-08
-2.43739e-07
-3.79505e-07
-4.9833e-07
-6.02165e-07
-6.9221e-07
-7.69321e-07
-8.342e-07
-8.87538e-07
-9.30137e-07
-9.62991e-07
-9.87304e-07
-1.00438e-06
-1.015e-06
1.24285e-07
-5.21472e-08
-2.04917e-07
-3.37337e-07
-4.52216e-07
-5.51609e-07
-6.36905e-07
-7.09193e-07
-7.69472e-07
-8.18756e-07
-8.58134e-07
-8.88792e-07
-9.11986e-07
-9.28949e-07
-9.40317e-07
1.70818e-07
-3.46298e-09
-1.52949e-07
-2.81618e-07
-3.92315e-07
-4.8724e-07
-5.68049e-07
-6.36108e-07
-6.92683e-07
-7.39021e-07
-7.76369e-07
-8.0597e-07
-8.29032e-07
-8.46671e-07
-8.59407e-07
2.31873e-07
6.03312e-08
-8.54107e-08
-2.10061e-07
-3.16604e-07
-4.07398e-07
-4.84361e-07
-5.49111e-07
-6.03107e-07
-6.47718e-07
-6.84238e-07
-7.13878e-07
-7.37751e-07
-7.56841e-07
-7.71588e-07
3.08896e-07
1.40962e-07
-6.30027e-10
-1.21172e-07
-2.23852e-07
-3.11163e-07
-3.85212e-07
-4.47785e-07
-5.00442e-07
-5.44579e-07
-5.81457e-07
-6.12202e-07
-6.37811e-07
-6.59143e-07
-6.76595e-07
4.02211e-07
2.39062e-07
1.01987e-07
-1.45473e-08
-1.13882e-07
-1.98576e-07
-2.70817e-07
-3.32449e-07
-3.85038e-07
-4.29936e-07
-4.6832e-07
-5.01209e-07
-5.2948e-07
-5.53881e-07
-5.74791e-07
5.10713e-07
3.53797e-07
2.21625e-07
1.08881e-07
1.22501e-08
-7.07899e-08
-1.42383e-07
-2.04322e-07
-2.58095e-07
-3.04956e-07
-3.45966e-07
-3.8203e-07
-4.13911e-07
-4.42253e-07
-4.6745e-07
6.31347e-07
4.82249e-07
3.5542e-07
2.46258e-07
1.5173e-07
6.94788e-08
-2.49686e-09
-6.58546e-08
-1.21938e-07
-1.71856e-07
-2.16539e-07
-2.56771e-07
-2.93207e-07
-3.26399e-07
-3.56779e-07
7.50713e-07
6.1032e-07
4.88924e-07
3.83001e-07
2.89991e-07
2.07793e-07
1.34638e-07
6.90843e-08
9.96832e-09
-4.36687e-08
-9.26275e-08
-1.37578e-07
-1.79082e-07
-2.17611e-07
-2.53639e-07
8.49635e-07
7.17285e-07
6.00773e-07
4.97601e-07
4.05693e-07
3.23217e-07
2.48665e-07
1.80832e-07
1.18728e-07
6.1532e-08
8.55693e-09
-4.077e-08
-8.69305e-08
-1.30329e-07
-1.7142e-07
9.23659e-07
7.98202e-07
6.85954e-07
5.85207e-07
4.94285e-07
4.11611e-07
3.35907e-07
2.66159e-07
2.01534e-07
1.41326e-07
8.49492e-08
3.19106e-08
-1.82045e-08
-6.57448e-08
-1.1112e-07
9.77749e-07
8.58153e-07
7.49637e-07
6.51055e-07
5.6105e-07
4.78274e-07
4.01648e-07
3.30326e-07
2.636e-07
2.00872e-07
1.41638e-07
8.54753e-08
3.2026e-08
-1.9011e-08
-6.79968e-08
1.01652e-06
9.01888e-07
7.96633e-07
6.99988e-07
6.10843e-07
5.28051e-07
4.50709e-07
3.78106e-07
3.09646e-07
2.44817e-07
1.8319e-07
1.24401e-07
6.81438e-08
1.41586e-08
-3.78687e-08
1.0439e-06
9.3349e-07
8.31085e-07
7.36171e-07
6.47822e-07
5.65071e-07
4.87167e-07
4.13516e-07
3.43611e-07
2.77019e-07
2.13375e-07
1.52371e-07
9.37419e-08
3.72666e-08
-1.73259e-08
1.06303e-06
9.56234e-07
8.5632e-07
7.6294e-07
6.75316e-07
5.92638e-07
5.14285e-07
4.3976e-07
3.68639e-07
3.00556e-07
2.35202e-07
1.72317e-07
1.11675e-07
5.30895e-08
-3.67297e-09
1.07631e-06
9.72631e-07
8.74894e-07
7.82867e-07
6.95892e-07
6.13297e-07
5.34575e-07
4.59313e-07
3.87155e-07
3.17797e-07
2.50981e-07
1.86487e-07
1.24127e-07
6.37428e-08
5.13563e-09
1.08553e-06
9.84546e-07
8.88711e-07
7.97872e-07
7.11468e-07
6.28955e-07
5.4992e-07
4.74024e-07
4.00972e-07
3.30513e-07
2.62435e-07
1.96555e-07
1.32717e-07
7.07891e-08
1.06036e-08
1.09197e-06
9.93326e-07
8.99153e-07
8.09348e-07
7.23444e-07
6.41003e-07
5.61695e-07
4.85244e-07
4.11412e-07
3.39994e-07
2.70817e-07
2.03734e-07
1.38614e-07
7.5352e-08
1.38064e-08
1.09652e-06
9.9992e-07
9.07196e-07
8.18292e-07
7.32819e-07
6.50436e-07
5.70884e-07
4.93943e-07
4.19423e-07
3.47161e-07
2.77021e-07
2.08884e-07
1.42646e-07
7.82228e-08
1.54965e-08
1.0998e-06
1.00498e-06
9.13526e-07
8.25402e-07
7.40299e-07
6.5796e-07
5.78186e-07
5.00806e-07
4.25674e-07
3.52666e-07
2.81676e-07
2.12611e-07
1.45391e-07
7.99493e-08
1.61913e-08
1.10222e-06
1.00897e-06
9.18612e-07
8.31164e-07
7.46378e-07
6.64068e-07
5.84089e-07
5.06314e-07
4.30635e-07
3.56963e-07
2.85218e-07
2.15332e-07
1.47244e-07
8.09069e-08
1.62423e-08
1.10405e-06
1.01218e-06
9.2278e-07
8.35916e-07
7.514e-07
6.69107e-07
5.88937e-07
5.10804e-07
4.34636e-07
3.6037e-07
2.87953e-07
2.17338e-07
1.48482e-07
8.13513e-08
1.58866e-08
1.10548e-06
1.01481e-06
9.26252e-07
8.39894e-07
7.55606e-07
6.73319e-07
5.92972e-07
5.14516e-07
4.37907e-07
3.63109e-07
2.90092e-07
2.18829e-07
1.49289e-07
8.14563e-08
1.52831e-08
1.10662e-06
1.01701e-06
9.29181e-07
8.43259e-07
7.59166e-07
6.76876e-07
5.96365e-07
5.17615e-07
4.4061e-07
3.65337e-07
2.91785e-07
2.19943e-07
1.49796e-07
8.134e-08
1.4539e-08
1.10755e-06
1.01887e-06
9.31674e-07
8.46131e-07
7.62201e-07
6.79902e-07
5.99239e-07
5.20222e-07
4.42861e-07
3.67162e-07
2.93132e-07
2.20775e-07
1.50089e-07
8.10792e-08
1.37213e-08
1.10833e-06
1.02047e-06
9.33837e-07
8.48623e-07
7.64834e-07
6.82519e-07
6.01714e-07
5.22453e-07
4.44767e-07
3.68682e-07
2.9422e-07
2.21398e-07
1.50227e-07
8.07189e-08
1.28606e-08
1.10901e-06
1.02191e-06
9.35796e-07
8.50884e-07
7.67222e-07
6.8489e-07
6.0395e-07
5.2446e-07
4.4647e-07
3.70024e-07
2.95158e-07
2.21903e-07
1.50279e-07
8.03081e-08
1.19839e-08
1.10957e-06
1.02317e-06
9.37513e-07
8.52878e-07
7.69339e-07
6.87001e-07
6.0595e-07
5.26264e-07
4.48012e-07
3.71253e-07
2.96036e-07
2.22403e-07
1.50383e-07
8.00069e-08
1.12742e-08
-2.42259e-06
-2.0841e-06
-1.82574e-06
-1.63915e-06
-1.48415e-06
-1.35526e-06
-1.24636e-06
-1.15301e-06
-1.07241e-06
-1.00264e-06
-9.42338e-07
-8.90466e-07
-8.46181e-07
-8.0874e-07
-7.77431e-07
-7.51544e-07
-7.30319e-07
-7.12961e-07
-6.9849e-07
-6.8578e-07
-6.72735e-07
-6.563e-07
-6.30798e-07
-5.9106e-07
-5.35979e-07
-4.64707e-07
-3.78036e-07
-2.7838e-07
-1.69087e-07
-5.40784e-08
6.25007e-08
1.76498e-07
2.83854e-07
3.80678e-07
4.63346e-07
5.28532e-07
5.73329e-07
5.95425e-07
5.93357e-07
5.66764e-07
5.1652e-07
4.42164e-07
3.30629e-07
1.70176e-07
-1.99298e-07
-2.01444e-06
-1.89779e-06
-1.74162e-06
-1.59509e-06
-1.45987e-06
-1.34081e-06
-1.23701e-06
-1.14645e-06
-1.06746e-06
-9.98667e-07
-9.38989e-07
-8.87544e-07
-8.43574e-07
-8.06386e-07
-7.75299e-07
-7.4962e-07
-7.28597e-07
-7.11438e-07
-6.97157e-07
-6.84613e-07
-6.71693e-07
-6.55343e-07
-6.29906e-07
-5.90315e-07
-5.35592e-07
-4.64978e-07
-3.7931e-07
-2.81025e-07
-1.73485e-07
-6.0632e-08
5.33503e-08
1.64229e-07
2.67802e-07
3.59912e-07
4.36429e-07
4.93191e-07
5.25922e-07
5.30135e-07
5.0093e-07
4.3241e-07
3.16123e-07
1.36427e-07
-1.42057e-07
-5.89561e-07
-1.34785e-06
-1.78899e-06
-1.75108e-06
-1.65419e-06
-1.54177e-06
-1.42741e-06
-1.32033e-06
-1.22337e-06
-1.13686e-06
-1.06036e-06
-9.93161e-07
-9.34558e-07
-8.83871e-07
-8.40462e-07
-8.03707e-07
-7.72968e-07
-7.47579e-07
-7.26808e-07
-7.09871e-07
-6.95783e-07
-6.83392e-07
-6.70574e-07
-6.54276e-07
-6.28876e-07
-5.89441e-07
-5.35164e-07
-4.65422e-07
-3.81138e-07
-2.84811e-07
-1.79856e-07
-7.02681e-08
3.96912e-08
1.4567e-07
2.43286e-07
3.28095e-07
3.95503e-07
4.40616e-07
4.58006e-07
4.41409e-07
3.83246e-07
2.73767e-07
9.95692e-08
-1.5887e-07
-5.30464e-07
-1.05184e-06
-1.75746e-06
-1.64735e-06
-1.63568e-06
-1.5725e-06
-1.48625e-06
-1.39093e-06
-1.29624e-06
-1.20706e-06
-1.12542e-06
-1.05201e-06
-9.86829e-07
-9.29582e-07
-8.7984e-07
-8.37115e-07
-8.00871e-07
-7.70528e-07
-7.45457e-07
-7.2495e-07
-7.08236e-07
-6.94337e-07
-6.8209e-07
-6.69362e-07
-6.53101e-07
-6.27729e-07
-5.88476e-07
-5.34731e-07
-4.66043e-07
-3.83451e-07
-2.89544e-07
-1.87821e-07
-8.23569e-08
2.2481e-08
1.22194e-07
2.12188e-07
2.87717e-07
3.43757e-07
3.74789e-07
3.74498e-07
3.35402e-07
2.48394e-07
1.0223e-07
-1.16762e-07
-4.24043e-07
-8.33644e-07
-1.34996e-06
-1.95759e-06
-1.54558e-06
-1.5413e-06
-1.49825e-06
-1.43161e-06
-1.35254e-06
-1.2697e-06
-1.18864e-06
-1.1124e-06
-1.04256e-06
-9.79744e-07
-9.24094e-07
-8.75454e-07
-8.33509e-07
-7.97835e-07
-7.67924e-07
-7.43191e-07
-7.22962e-07
-7.0648e-07
-6.92777e-07
-6.8068e-07
-6.68051e-07
-6.51841e-07
-6.26535e-07
-5.87555e-07
-5.34503e-07
-4.67121e-07
-3.86585e-07
-2.95587e-07
-1.97719e-07
-9.71497e-08
1.64093e-09
9.40008e-08
1.7513e-07
2.40003e-07
2.83233e-07
2.98832e-07
2.79926e-07
2.18476e-07
1.05105e-07
-7.07151e-08
-3.19606e-07
-6.49608e-07
-1.06113e-06
-1.53997e-06
-2.05216e-06
-1.46566e-06
-1.46235e-06
-1.43128e-06
-1.37908e-06
-1.31348e-06
-1.24152e-06
-1.16852e-06
-1.09799e-06
-1.03208e-06
-9.71942e-07
-9.18119e-07
-8.70737e-07
-8.29673e-07
-7.94631e-07
-7.65186e-07
-7.40812e-07
-7.20873e-07
-7.04633e-07
-6.91137e-07
-6.79199e-07
-6.66687e-07
-6.50556e-07
-6.25382e-07
-5.86812e-07
-5.34674e-07
-4.68931e-07
-3.90905e-07
-3.03403e-07
-2.10115e-07
-1.15306e-07
-2.35674e-08
6.0308e-08
1.3134e-07
1.84291e-07
2.13537e-07
2.12867e-07
1.75302e-07
9.30287e-08
-4.23605e-08
-2.39009e-07
-5.02907e-07
-8.34697e-07
-1.22549e-06
-1.65328e-06
-2.08305e-06
-1.39753e-06
-1.39387e-06
-1.37023e-06
-1.32879e-06
-1.27433e-06
-1.21219e-06
-1.14701e-06
-1.08235e-06
-1.02066e-06
-9.63492e-07
-9.11726e-07
-8.65767e-07
-8.2569e-07
-7.91343e-07
-7.62402e-07
-7.38406e-07
-7.18768e-07
-7.02777e-07
-6.89495e-07
-6.77728e-07
-6.65353e-07
-6.49342e-07
-6.24395e-07
-5.86419e-07
-5.3548e-07
-4.71786e-07
-3.96822e-07
-3.13513e-07
-2.25653e-07
-1.37594e-07
-5.40273e-08
2.01494e-08
7.98335e-08
1.19687e-07
1.34046e-07
1.16807e-07
6.1414e-08
-3.89559e-08
-1.90791e-07
-3.99015e-07
-6.64978e-07
-9.83867e-07
-1.34234e-06
-1.718e-06
-2.08227e-06
-1.33528e-06
-1.33159e-06
-1.31315e-06
-1.28005e-06
-1.23498e-06
-1.18174e-06
-1.12414e-06
-1.06547e-06
-1.00829e-06
-9.54394e-07
-9.04943e-07
-8.60597e-07
-8.21637e-07
-7.88067e-07
-7.59674e-07
-7.36081e-07
-7.16755e-07
-7.0102e-07
-6.87961e-07
-6.76381e-07
-6.64179e-07
-6.48349e-07
-6.23763e-07
-5.86628e-07
-5.37251e-07
-4.7611e-07
-4.04867e-07
-3.26564e-07
-2.4509e-07
-1.64871e-07
-9.06586e-08
-2.73961e-08
1.97897e-08
4.56236e-08
4.46489e-08
1.12411e-08
-6.02409e-08
-1.75056e-07
-3.37304e-07
-5.48694e-07
-8.06947e-07
-1.10425e-06
-1.42655e-06
-1.75467e-06
-2.06764e-06
-1.27536e-06
-1.27228e-06
-1.258e-06
-1.2317e-06
-1.19476e-06
-1.14972e-06
-1.09953e-06
-1.04704e-06
-9.9471e-07
-9.44459e-07
-8.97658e-07
-8.55188e-07
-8.17535e-07
-7.84866e-07
-7.571e-07
-7.33954e-07
-7.14967e-07
-6.99507e-07
-6.86692e-07
-6.75327e-07
-6.63353e-07
-6.47803e-07
-6.2377e-07
-5.87806e-07
-5.40453e-07
-4.82482e-07
-4.15737e-07
-3.43369e-07
-2.6934e-07
-1.98113e-07
-1.34437e-07
-8.32135e-08
-4.94505e-08
-3.81644e-08
-5.43336e-08
-1.02768e-07
-1.87833e-07
-3.12953e-07
-4.79866e-07
-6.87662e-07
-9.31809e-07
-1.20356e-06
-1.49028e-06
-1.777e-06
-2.04904e-06
-1.21547e-06
-1.21354e-06
-1.20293e-06
-1.18246e-06
-1.15274e-06
-1.11536e-06
-1.07246e-06
-1.02638e-06
-9.79332e-07
-9.3322e-07
-8.8953e-07
-8.49324e-07
-8.13275e-07
-7.81722e-07
-7.5473e-07
-7.32131e-07
-7.1355e-07
-6.98417e-07
-6.85893e-07
-6.74805e-07
-6.63152e-07
-6.48035e-07
-6.2483e-07
-5.90473e-07
-5.45732e-07
-4.91677e-07
-4.30332e-07
-3.64936e-07
-2.99484e-07
-2.38413e-07
-1.86384e-07
-1.48131e-07
-1.28376e-07
-1.31667e-07
-1.62262e-07
-2.23915e-07
-3.19554e-07
-4.50815e-07
-6.1747e-07
-8.16851e-07
-1.04344e-06
-1.28893e-06
-1.54291e-06
-1.79429e-06
-2.03296e-06
-1.15398e-06
-1.15358e-06
-1.14638e-06
-1.1311e-06
-1.10788e-06
-1.07769e-06
-1.04199e-06
-1.00256e-06
-9.61272e-07
-9.19895e-07
-8.79924e-07
-8.4253e-07
-8.08542e-07
-7.78466e-07
-7.5252e-07
-7.30667e-07
-7.12642e-07
-6.97953e-07
-6.85829e-07
-6.75137e-07
-6.63965e-07
-6.49519e-07
-6.2753e-07
-5.95354e-07
-5.53957e-07
-5.04705e-07
-4.49787e-07
-3.92487e-07
-3.36769e-07
-2.86963e-07
-2.47521e-07
-2.22868e-07
-2.17266e-07
-2.34608e-07
-2.78258e-07
-3.50818e-07
-4.53826e-07
-5.87419e-07
-7.49991e-07
-9.37964e-07
-1.14577e-06
-1.36621e-06
-1.59117e-06
-1.81266e-06
-2.02369e-06
-1.08962e-06
-1.09103e-06
-1.08709e-06
-1.07652e-06
-1.05924e-06
-1.03579e-06
-1.00712e-06
-9.74514e-07
-9.39451e-07
-9.03451e-07
-8.6792e-07
-8.3405e-07
-8.02768e-07
-7.74717e-07
-7.50264e-07
-7.29516e-07
-7.12333e-07
-6.98327e-07
-6.86817e-07
-6.76742e-07
-6.66318e-07
-6.52913e-07
-6.32682e-07
-6.03427e-07
-5.66274e-07
-5.22856e-07
-4.75497e-07
-4.27458e-07
-3.82591e-07
-3.45005e-07
-3.18816e-07
-3.07993e-07
-3.16181e-07
-3.4649e-07
-4.01327e-07
-4.82187e-07
-5.89445e-07
-7.22158e-07
-8.77947e-07
-1.053e-06
-1.24226e-06
-1.43984e-06
-1.63963e-06
-1.83591e-06
-2.02382e-06
-1.02132e-06
-1.02476e-06
-1.02401e-06
-1.01782e-06
-1.006e-06
-9.88869e-07
-9.6701e-07
-9.41284e-07
-9.12794e-07
-8.82768e-07
-8.5243e-07
-8.22906e-07
-7.95141e-07
-7.69867e-07
-7.47571e-07
-7.28497e-07
-7.12639e-07
-6.99735e-07
-6.89219e-07
-6.80145e-07
-6.70903e-07
-6.59094e-07
-6.41367e-07
-6.15966e-07
-5.84133e-07
-5.47713e-07
-5.09107e-07
-4.71472e-07
-4.38436e-07
-4.13771e-07
-4.01123e-07
-4.03881e-07
-4.2497e-07
-4.66674e-07
-5.30486e-07
-6.16974e-07
-7.25662e-07
-8.54976e-07
-1.00227e-06
-1.16394e-06
-1.33571e-06
-1.51295e-06
-1.69111e-06
-1.86615e-06
-2.03456e-06
-9.48116e-07
-9.53821e-07
-9.56255e-07
-9.54225e-07
-9.47522e-07
-9.36338e-07
-9.21021e-07
-9.02122e-07
-8.80419e-07
-8.56846e-07
-8.32401e-07
-8.08068e-07
-7.84738e-07
-7.6316e-07
-7.43896e-07
-7.27298e-07
-7.13491e-07
-7.02346e-07
-6.93441e-07
-6.85983e-07
-6.78591e-07
-6.69188e-07
-6.54959e-07
-6.34557e-07
-6.09289e-07
-5.81126e-07
-5.52461e-07
-5.26249e-07
-5.05783e-07
-4.94374e-07
-4.95097e-07
-5.10679e-07
-5.43298e-07
-5.94454e-07
-6.64875e-07
-7.54443e-07
-8.62173e-07
-9.86243e-07
-1.12409e-06
-1.2726e-06
-1.42828e-06
-1.58761e-06
-1.74725e-06
-1.90428e-06
-2.05615e-06
-8.69147e-07
-8.77388e-07
-8.83085e-07
-8.85129e-07
-8.83326e-07
-8.77811e-07
-8.68792e-07
-8.56609e-07
-8.4179e-07
-8.25011e-07
-8.07042e-07
-7.88687e-07
-7.70725e-07
-7.53859e-07
-7.38668e-07
-7.25569e-07
-7.14792e-07
-7.06338e-07
-6.99944e-07
-6.95007e-07
-6.90429e-07
-6.84551e-07
-6.75097e-07
-6.61049e-07
-6.43715e-07
-6.25087e-07
-6.07445e-07
-5.93442e-07
-5.85925e-07
-5.87655e-07
-6.01078e-07
-6.28245e-07
-6.70637e-07
-7.29095e-07
-8.03778e-07
-8.94151e-07
-9.99016e-07
-1.11659e-06
-1.24461e-06
-1.38051e-06
-1.52159e-06
-1.66519e-06
-1.80886e-06
-1.95051e-06
-2.08821e-06
-7.83779e-07
-7.94888e-07
-8.04016e-07
-8.1017e-07
-8.13189e-07
-8.13187e-07
-8.10296e-07
-8.04727e-07
-7.96828e-07
-7.87076e-07
-7.7604e-07
-7.64343e-07
-7.52625e-07
-7.41498e-07
-7.31507e-07
-7.23088e-07
-7.16538e-07
-7.11972e-07
-7.09283e-07
-7.08089e-07
-7.07619e-07
-7.06707e-07
-7.03574e-07
-6.9739e-07
-6.89397e-07
-6.81487e-07
-6.75715e-07
-6.74342e-07
-6.79698e-07
-6.93947e-07
-7.18915e-07
-7.5603e-07
-8.06195e-07
-8.69761e-07
-9.46536e-07
-1.0358e-06
-1.13637e-06
-1.24666e-06
-1.36483e-06
-1.48887e-06
-1.61672e-06
-1.74643e-06
-1.87621e-06
-2.00454e-06
-2.12994e-06
-6.91811e-07
-7.06191e-07
-7.19005e-07
-7.2942e-07
-7.37317e-07
-7.42806e-07
-7.45982e-07
-7.46981e-07
-7.46039e-07
-7.43489e-07
-7.39742e-07
-7.35268e-07
-7.30567e-07
-7.26144e-07
-7.22477e-07
-7.19985e-07
-7.18995e-07
-7.19709e-07
-7.22168e-07
-7.26213e-07
-7.31428e-07
-7.37181e-07
-7.42088e-07
-7.45321e-07
-7.47963e-07
-7.51699e-07
-7.58261e-07
-7.69463e-07
-7.87098e-07
-8.12757e-07
-8.4771e-07
-8.92876e-07
-9.48732e-07
-1.01533e-06
-1.09231e-06
-1.17896e-06
-1.27423e-06
-1.37686e-06
-1.48541e-06
-1.59837e-06
-1.71424e-06
-1.83159e-06
-1.94912e-06
-2.06573e-06
-2.18028e-06
-5.9368e-07
-6.11806e-07
-6.28651e-07
-6.43588e-07
-6.56551e-07
-6.67643e-07
-6.76947e-07
-6.84562e-07
-6.90658e-07
-6.95476e-07
-6.99319e-07
-7.02533e-07
-7.05504e-07
-7.08636e-07
-7.12331e-07
-7.1697e-07
-7.22884e-07
-7.30338e-07
-7.39498e-07
-7.50422e-07
-7.63036e-07
-7.77225e-07
-7.91851e-07
-8.05886e-07
-8.20141e-07
-8.36008e-07
-8.54844e-07
-8.7802e-07
-9.06833e-07
-9.42379e-07
-9.85493e-07
-1.03672e-06
-1.09628e-06
-1.16408e-06
-1.23975e-06
-1.32268e-06
-1.41206e-06
-1.50693e-06
-1.60626e-06
-1.70895e-06
-1.81393e-06
-1.92019e-06
-2.0268e-06
-2.13294e-06
-2.23777e-06
-4.90741e-07
-5.13172e-07
-5.34484e-07
-5.54316e-07
-5.72658e-07
-5.89599e-07
-6.05214e-07
-6.19594e-07
-6.32878e-07
-6.45252e-07
-6.56946e-07
-6.68227e-07
-6.79394e-07
-6.9077e-07
-7.02691e-07
-7.15496e-07
-7.29511e-07
-7.45039e-07
-7.62351e-07
-7.81686e-07
-8.03269e-07
-8.27409e-07
-8.53057e-07
-8.7881e-07
-9.05098e-07
-9.32959e-07
-9.63386e-07
-9.9737e-07
-1.03581e-06
-1.07944e-06
-1.12878e-06
-1.18417e-06
-1.24569e-06
-1.31322e-06
-1.38649e-06
-1.46503e-06
-1.54829e-06
-1.63559e-06
-1.72624e-06
-1.81949e-06
-1.91461e-06
-2.01088e-06
-2.10767e-06
-2.20438e-06
-2.3004e-06
-3.85289e-07
-4.12677e-07
-4.38996e-07
-4.64218e-07
-4.88385e-07
-5.11554e-07
-5.33794e-07
-5.552e-07
-5.75898e-07
-5.96045e-07
-6.15829e-07
-6.35466e-07
-6.55199e-07
-6.75295e-07
-6.96042e-07
-7.17742e-07
-7.40713e-07
-7.65283e-07
-7.91795e-07
-8.20621e-07
-8.52203e-07
-8.87113e-07
-9.24277e-07
-9.6187e-07
-9.99843e-07
-1.03884e-06
-1.07957e-06
-1.12274e-06
-1.16897e-06
-1.21874e-06
-1.27243e-06
-1.33027e-06
-1.39231e-06
-1.45851e-06
-1.52867e-06
-1.60253e-06
-1.67974e-06
-1.7599e-06
-1.84255e-06
-1.92723e-06
-2.01347e-06
-2.10079e-06
-2.18875e-06
-2.27695e-06
-2.36499e-06
-2.87798e-07
-3.2054e-07
-3.52209e-07
-3.83076e-07
-4.13226e-07
-4.4268e-07
-4.71496e-07
-4.99776e-07
-5.27644e-07
-5.55242e-07
-5.82734e-07
-6.10308e-07
-6.38174e-07
-6.66565e-07
-6.95737e-07
-7.25969e-07
-7.57569e-07
-7.90871e-07
-8.26255e-07
-8.64156e-07
-9.0512e-07
-9.4978e-07
-9.96993e-07
-1.04466e-06
-1.09227e-06
-1.14011e-06
-1.18871e-06
-1.23863e-06
-1.29035e-06
-1.34423e-06
-1.40054e-06
-1.45948e-06
-1.52113e-06
-1.58551e-06
-1.65256e-06
-1.72214e-06
-1.79407e-06
-1.86815e-06
-1.9441e-06
-2.02166e-06
-2.10053e-06
-2.18043e-06
-2.26106e-06
-2.34214e-06
-2.42347e-06
-2.10678e-07
-2.48459e-07
-2.85228e-07
-3.21362e-07
-3.56959e-07
-3.92025e-07
-4.26617e-07
-4.6084e-07
-4.94816e-07
-5.28675e-07
-5.6257e-07
-5.96668e-07
-6.31162e-07
-6.66263e-07
-7.02205e-07
-7.3925e-07
-7.7769e-07
-8.17856e-07
-8.60127e-07
-9.04947e-07
-9.5288e-07
-1.00451e-06
-1.05863e-06
-1.11307e-06
-1.16702e-06
-1.22052e-06
-1.27403e-06
-1.32805e-06
-1.38298e-06
-1.43912e-06
-1.49669e-06
-1.55587e-06
-1.61678e-06
-1.67949e-06
-1.74401e-06
-1.81031e-06
-1.87831e-06
-1.94792e-06
-2.01899e-06
-2.09138e-06
-2.1649e-06
-2.23939e-06
-2.31463e-06
-2.39046e-06
-2.46674e-06
-1.54738e-07
-1.96929e-07
-2.38173e-07
-2.78844e-07
-3.19036e-07
-3.58758e-07
-3.98071e-07
-4.37075e-07
-4.75888e-07
-5.14632e-07
-5.53447e-07
-5.9249e-07
-6.31937e-07
-6.71982e-07
-7.12844e-07
-7.54767e-07
-7.98027e-07
-8.42937e-07
-8.89864e-07
-9.39233e-07
-9.91581e-07
-1.0474e-06
-1.10551e-06
-1.16378e-06
-1.22126e-06
-1.27788e-06
-1.33402e-06
-1.39018e-06
-1.44671e-06
-1.50385e-06
-1.56183e-06
-1.62082e-06
-1.68096e-06
-1.74234e-06
-1.80502e-06
-1.86903e-06
-1.93435e-06
-2.00094e-06
-2.06875e-06
-2.1377e-06
-2.20767e-06
-2.27856e-06
-2.35023e-06
-2.42256e-06
-2.49548e-06
-1.15303e-07
-1.61261e-07
-2.06314e-07
-2.50794e-07
-2.94783e-07
-3.38298e-07
-3.814e-07
-4.24188e-07
-4.66769e-07
-5.09258e-07
-5.51785e-07
-5.94495e-07
-6.37551e-07
-6.81133e-07
-7.25444e-07
-7.70711e-07
-8.17192e-07
-8.6518e-07
-9.1502e-07
-9.67107e-07
-1.02194e-06
-1.07992e-06
-1.13992e-06
-1.19996e-06
-1.25906e-06
-1.31709e-06
-1.37442e-06
-1.4315e-06
-1.48864e-06
-1.54609e-06
-1.60405e-06
-1.66268e-06
-1.72213e-06
-1.78252e-06
-1.84391e-06
-1.90637e-06
-1.96993e-06
-2.03457e-06
-2.10028e-06
-2.16703e-06
-2.23475e-06
-2.30338e-06
-2.37281e-06
-2.44298e-06
-2.51382e-06
-8.82852e-08
-1.37419e-07
-1.85663e-07
-2.33293e-07
-2.8038e-07
-3.26944e-07
-3.73052e-07
-4.18792e-07
-4.64266e-07
-5.0958e-07
-5.54856e-07
-6.00227e-07
-6.45845e-07
-6.91877e-07
-7.38511e-07
-7.85958e-07
-8.34458e-07
-8.84285e-07
-9.35757e-07
-9.89238e-07
-1.04518e-06
-1.10392e-06
-1.16441e-06
-1.22487e-06
-1.28433e-06
-1.34268e-06
-1.40026e-06
-1.45751e-06
-1.51469e-06
-1.57203e-06
-1.62973e-06
-1.68794e-06
-1.74681e-06
-1.80646e-06
-1.86699e-06
-1.92844e-06
-1.99088e-06
-2.05433e-06
-2.11878e-06
-2.18423e-06
-2.25064e-06
-2.31798e-06
-2.38617e-06
-2.45515e-06
-2.5249e-06
-7.03593e-08
-1.22151e-07
-1.73042e-07
-2.23253e-07
-2.72841e-07
-3.21836e-07
-3.70302e-07
-4.18323e-07
-4.65991e-07
-5.13406e-07
-5.60682e-07
-6.07944e-07
-6.55332e-07
-7.03002e-07
-7.51129e-07
-7.9991e-07
-8.49567e-07
-9.00355e-07
-9.52567e-07
-1.00654e-06
-1.06268e-06
-1.12127e-06
-1.18136e-06
-1.24137e-06
-1.30042e-06
-1.35842e-06
-1.41571e-06
-1.47267e-06
-1.52955e-06
-1.58655e-06
-1.64386e-06
-1.70165e-06
-1.76004e-06
-1.81916e-06
-1.8791e-06
-1.93994e-06
-2.00173e-06
-2.0645e-06
-2.12828e-06
-2.19306e-06
-2.25884e-06
-2.32558e-06
-2.39323e-06
-2.46175e-06
-2.53112e-06
-5.89102e-08
-1.12923e-07
-1.66e-07
-2.18315e-07
-2.69919e-07
-3.20843e-07
-3.71152e-07
-4.20923e-07
-4.70243e-07
-5.19207e-07
-5.67919e-07
-6.16499e-07
-6.65077e-07
-7.13799e-07
-7.62829e-07
-8.12351e-07
-8.62572e-07
-9.13727e-07
-9.66089e-07
-1.01996e-06
-1.07573e-06
-1.13361e-06
-1.19278e-06
-1.25186e-06
-1.31006e-06
-1.36733e-06
-1.42401e-06
-1.48042e-06
-1.5368e-06
-1.59334e-06
-1.65022e-06
-1.70759e-06
-1.76558e-06
-1.82431e-06
-1.88388e-06
-1.94435e-06
-2.0058e-06
-2.06826e-06
-2.13176e-06
-2.1963e-06
-2.2619e-06
-2.32851e-06
-2.39612e-06
-2.46468e-06
-2.53416e-06
-5.19648e-08
-1.07836e-07
-1.62721e-07
-2.16756e-07
-2.69985e-07
-3.22443e-07
-3.74193e-07
-4.25309e-07
-4.75871e-07
-5.25969e-07
-5.75704e-07
-6.25188e-07
-6.74543e-07
-7.23907e-07
-7.73436e-07
-8.23299e-07
-8.73692e-07
-9.24834e-07
-9.76974e-07
-1.0304e-06
-1.08545e-06
-1.14232e-06
-1.20029e-06
-1.25817e-06
-1.3153e-06
-1.37165e-06
-1.42755e-06
-1.48329e-06
-1.53909e-06
-1.59511e-06
-1.65154e-06
-1.70851e-06
-1.76616e-06
-1.8246e-06
-1.88392e-06
-1.94421e-06
-2.00551e-06
-2.06788e-06
-2.13136e-06
-2.19595e-06
-2.26165e-06
-2.32846e-06
-2.39634e-06
-2.46525e-06
-2.53517e-06
-4.80811e-08
-1.05515e-07
-1.61903e-07
-2.17352e-07
-2.71899e-07
-3.25585e-07
-3.7847e-07
-4.30624e-07
-4.82123e-07
-5.33055e-07
-5.83515e-07
-6.33609e-07
-6.83455e-07
-7.33185e-07
-7.82942e-07
-8.32889e-07
-8.83208e-07
-9.34103e-07
-9.85806e-07
-1.03858e-06
-1.09274e-06
-1.14846e-06
-1.20511e-06
-1.2617e-06
-1.31766e-06
-1.37303e-06
-1.42809e-06
-1.48311e-06
-1.53827e-06
-1.59377e-06
-1.64974e-06
-1.70634e-06
-1.7637e-06
-1.82191e-06
-1.88107e-06
-1.94126e-06
-2.00255e-06
-2.06497e-06
-2.12858e-06
-2.19337e-06
-2.25937e-06
-2.32655e-06
-2.39489e-06
-2.46435e-06
-2.53491e-06
-4.62352e-08
-1.04994e-07
-1.62641e-07
-2.19261e-07
-2.74888e-07
-3.29567e-07
-3.83354e-07
-4.36318e-07
-4.88532e-07
-5.4008e-07
-5.91054e-07
-6.41557e-07
-6.91701e-07
-7.41611e-07
-7.91425e-07
-8.41296e-07
-8.91395e-07
-9.41913e-07
-9.93065e-07
-1.04509e-06
-1.09829e-06
-1.15281e-06
-1.20813e-06
-1.26342e-06
-1.31823e-06
-1.3726e-06
-1.42681e-06
-1.4811e-06
-1.53565e-06
-1.59061e-06
-1.64615e-06
-1.7024e-06
-1.75949e-06
-1.81751e-06
-1.87656e-06
-1.93672e-06
-1.99806e-06
-2.06061e-06
-2.12443e-06
-2.18952e-06
-2.2559e-06
-2.32355e-06
-2.39245e-06
-2.46257e-06
-2.53387e-06
-4.5716e-08
-1.05606e-07
-1.64317e-07
-2.21918e-07
-2.78441e-07
-3.33932e-07
-3.88446e-07
-4.42051e-07
-4.94816e-07
-5.46825e-07
-5.98167e-07
-6.4894e-07
-6.99253e-07
-7.49227e-07
-7.98992e-07
-8.48694e-07
-8.98494e-07
-9.4857e-07
-9.99124e-07
-1.05037e-06
-1.10261e-06
-1.15595e-06
-1.20997e-06
-1.26402e-06
-1.31771e-06
-1.37113e-06
-1.42453e-06
-1.47811e-06
-1.53205e-06
-1.58651e-06
-1.64164e-06
-1.69756e-06
-1.7544e-06
-1.81225e-06
-1.87122e-06
-1.93138e-06
-1.99279e-06
-2.05551e-06
-2.11958e-06
-2.18501e-06
-2.25181e-06
-2.31997e-06
-2.38948e-06
-2.46028e-06
-2.53235e-06
-4.60388e-08
-1.06903e-07
-1.66522e-07
-2.24953e-07
-2.82227e-07
-3.38391e-07
-3.935e-07
-4.47619e-07
-5.00817e-07
-5.53176e-07
-6.04782e-07
-6.55732e-07
-7.06131e-07
-7.56095e-07
-8.0575e-07
-8.55233e-07
-9.04699e-07
-9.54312e-07
-1.00426e-06
-1.05475e-06
-1.10605e-06
-1.15826e-06
-1.21107e-06
-1.26395e-06
-1.3166e-06
-1.36912e-06
-1.42175e-06
-1.47467e-06
-1.52804e-06
-1.58202e-06
-1.63676e-06
-1.69237e-06
-1.74897e-06
-1.80668e-06
-1.86558e-06
-1.92574e-06
-1.98725e-06
-2.05014e-06
-2.11446e-06
-2.18023e-06
-2.24745e-06
-2.31613e-06
-2.38624e-06
-2.45773e-06
-2.53057e-06
-4.68776e-08
-1.08587e-07
-1.68988e-07
-2.28127e-07
-2.86038e-07
-3.42767e-07
-3.98369e-07
-4.52907e-07
-5.06451e-07
-5.59079e-07
-6.10878e-07
-6.61942e-07
-7.12373e-07
-7.62284e-07
-8.11795e-07
-8.61039e-07
-9.10161e-07
-9.59316e-07
-1.00868e-06
-1.05845e-06
-1.10886e-06
-1.16002e-06
-1.2117e-06
-1.2635e-06
-1.31519e-06
-1.36689e-06
-1.4188e-06
-1.4711e-06
-1.52395e-06
-1.57748e-06
-1.63185e-06
-1.68717e-06
-1.74356e-06
-1.80112e-06
-1.85995e-06
-1.92013e-06
-1.98172e-06
-2.04477e-06
-2.10934e-06
-2.17543e-06
-2.24307e-06
-2.31224e-06
-2.38292e-06
-2.45507e-06
-2.52864e-06
-4.80156e-08
-1.10462e-07
-1.7154e-07
-2.3129e-07
-2.89746e-07
-3.46955e-07
-4.0297e-07
-4.57855e-07
-5.11679e-07
-5.64519e-07
-6.1646e-07
-6.67595e-07
-7.18025e-07
-7.67858e-07
-8.17211e-07
-8.66212e-07
-9.14996e-07
-9.63714e-07
-1.01253e-06
-1.06161e-06
-1.11121e-06
-1.1614e-06
-1.21204e-06
-1.26286e-06
-1.31368e-06
-1.36462e-06
-1.41588e-06
-1.46761e-06
-1.51997e-06
-1.57309e-06
-1.62711e-06
-1.68216e-06
-1.73835e-06
-1.79578e-06
-1.85454e-06
-1.91472e-06
-1.97639e-06
-2.03959e-06
-2.10438e-06
-2.17078e-06
-2.2388e-06
-2.30843e-06
-2.37964e-06
-2.4524e-06
-2.52666e-06
-4.93091e-08
-1.12402e-07
-1.74071e-07
-2.3435e-07
-2.93276e-07
-3.50895e-07
-4.07261e-07
-4.62436e-07
-5.16489e-07
-5.69498e-07
-6.21546e-07
-6.72724e-07
-7.23132e-07
-7.72875e-07
-8.22067e-07
-8.70829e-07
-9.19294e-07
-9.676e-07
-1.01591e-06
-1.06437e-06
-1.11321e-06
-1.16252e-06
-1.21222e-06
-1.26215e-06
-1.31217e-06
-1.36243e-06
-1.41309e-06
-1.4643e-06
-1.51621e-06
-1.56895e-06
-1.62266e-06
-1.67746e-06
-1.73345e-06
-1.79075e-06
-1.84945e-06
-1.90963e-06
-1.97136e-06
-2.0347e-06
-2.09969e-06
-2.16636e-06
-2.23472e-06
-2.30477e-06
-2.37648e-06
-2.4498e-06
-2.52469e-06
-5.06631e-08
-1.14325e-07
-1.76509e-07
-2.3725e-07
-2.96583e-07
-3.54555e-07
-4.1122e-07
-4.6664e-07
-5.20884e-07
-5.74028e-07
-6.26157e-07
-6.77359e-07
-7.27733e-07
-7.77381e-07
-8.26415e-07
-8.74952e-07
-9.23118e-07
-9.71046e-07
-1.01888e-06
-1.06677e-06
-1.11493e-06
-1.16344e-06
-1.21228e-06
-1.26141e-06
-1.31074e-06
-1.36037e-06
-1.41049e-06
-1.46123e-06
-1.51273e-06
-1.56513e-06
-1.61855e-06
-1.67311e-06
-1.72893e-06
-1.7861e-06
-1.84473e-06
-1.90491e-06
-1.96669e-06
-2.03014e-06
-2.09531e-06
-2.16222e-06
-2.23089e-06
-2.30132e-06
-2.37347e-06
-2.4473e-06
-2.52277e-06
-5.20205e-08
-1.16182e-07
-1.78819e-07
-2.39963e-07
-2.99651e-07
-3.57928e-07
-4.1485e-07
-4.70478e-07
-5.24881e-07
-5.78136e-07
-6.30325e-07
-6.81539e-07
-7.31871e-07
-7.81426e-07
-8.30309e-07
-8.78636e-07
-9.26526e-07
-9.74108e-07
-1.02152e-06
-1.0689e-06
-1.11644e-06
-1.16422e-06
-1.21229e-06
-1.26071e-06
-1.30939e-06
-1.35848e-06
-1.40811e-06
-1.45842e-06
-1.50956e-06
-1.56164e-06
-1.61479e-06
-1.66914e-06
-1.72479e-06
-1.78185e-06
-1.84041e-06
-1.90057e-06
-1.96239e-06
-2.02594e-06
-2.09126e-06
-2.15839e-06
-2.22734e-06
-2.2981e-06
-2.37065e-06
-2.44494e-06
-2.52092e-06
-5.33652e-08
-1.17974e-07
-1.81013e-07
-2.42514e-07
-3.02515e-07
-3.6106e-07
-4.18206e-07
-4.74014e-07
-5.28553e-07
-5.81899e-07
-6.34135e-07
-6.8535e-07
-7.35638e-07
-7.85099e-07
-8.33839e-07
-8.81969e-07
-9.29605e-07
-9.76868e-07
-1.02389e-06
-1.0708e-06
-1.11778e-06
-1.1649e-06