/*--------------------------------*- C++ -*----------------------------------*\
| =========                 |                                                 |
| \\      /  F ield         | OpenFOAM: The Open Source CFD Toolbox           |
|  \\    /   O peration     | Version:  2312                                  |
|   \\  /    A nd           | Website:  www.openfoam.com                      |
|    \\/     M anipulation  |                                                 |
\*---------------------------------------------------------------------------*/
FoamFile
{
    version     2.0;
    format      ascii;
    arch        "LSB;label=32;scalar=64";
    class       surfaceScalarField;
    location    "200";
    object      phi;
}
// * * * * * * * * * * * * * * * * * * * * * * * * * * * * * * * * * * * * * //

dimensions      [0 3 -1 0 0 0 0];

oriented        oriented;

internalField   nonuniform List<scalar> 
9445
(
1.04331e-10
1.17803e-12
1.03996e-10
3.35161e-13
1.04181e-10
-1.85174e-13
1.04739e-10
-5.58067e-13
1.05585e-10
-8.46188e-13
1.06677e-10
-1.09118e-12
1.08005e-10
-1.32792e-12
1.09604e-10
-1.59949e-12
1.1159e-10
-1.98626e-12
1.14256e-10
-2.66593e-12
1.18327e-10
-4.07038e-12
1.25645e-10
-7.31823e-12
1.40355e-10
-1.47099e-11
1.72627e-10
-3.2272e-11
-8.63957e-11
2.59023e-10
3.65471e-10
5.49403e-12
3.64092e-10
1.71381e-12
3.64522e-10
-6.15096e-13
3.66232e-10
-2.26818e-12
3.68928e-10
-3.54226e-12
3.7246e-10
-4.62337e-12
3.76804e-10
-5.67132e-12
3.82084e-10
-6.87966e-12
3.88681e-10
-8.5836e-12
3.97455e-10
-1.14401e-11
4.10151e-10
-1.67654e-11
4.2995e-10
-2.71175e-11
4.61961e-10
-4.67206e-11
5.12094e-10
-8.24058e-11
-1.4303e-10
5.68728e-10
7.23638e-10
1.43123e-11
7.20575e-10
4.77742e-12
7.21064e-10
-1.104e-12
7.24042e-10
-5.24648e-12
7.28926e-10
-8.42618e-12
7.35416e-10
-1.1113e-11
7.43452e-10
-1.37079e-11
7.5325e-10
-1.66774e-11
7.65431e-10
-2.07646e-11
7.81252e-10
-2.72609e-11
8.02808e-10
-3.83221e-11
8.32837e-10
-5.71463e-11
8.73391e-10
-8.72743e-11
9.21428e-10
-1.30443e-10
-1.82068e-10
9.60466e-10
1.20672e-09
2.94799e-11
1.20103e-09
1.04703e-11
1.2012e-09
-1.26927e-12
1.20543e-09
-9.47691e-12
1.21274e-09
-1.57383e-11
1.22262e-09
-2.09901e-11
1.23491e-09
-2.60071e-11
1.24987e-09
-3.16344e-11
1.26819e-09
-3.90811e-11
1.2911e-09
-5.01699e-11
1.32015e-09
-6.73717e-11
1.35627e-09
-9.32649e-11
1.39784e-09
-1.28852e-10
1.43835e-09
-1.7095e-10
-2.10309e-10
1.46659e-09
1.84947e-09
5.34175e-11
1.8398e-09
2.01438e-11
1.83896e-09
-4.37846e-13
1.84421e-09
-1.47188e-11
1.85399e-09
-2.55237e-11
1.86749e-09
-3.44842e-11
1.88436e-09
-4.28853e-11
1.90474e-09
-5.20096e-11
1.92912e-09
-6.34586e-11
1.95821e-09
-7.92615e-11
1.99236e-09
-1.01523e-10
2.03046e-09
-1.31361e-10
2.0688e-09
-1.67194e-10
2.10128e-09
-2.03436e-10
-2.31404e-10
2.12238e-09
2.69478e-09
8.9225e-11
2.67926e-09
3.56666e-11
2.67635e-09
2.47079e-12
2.68202e-09
-2.03856e-11
2.69399e-09
-3.74999e-11
2.71098e-09
-5.14733e-11
2.73233e-09
-6.42316e-11
2.75782e-09
-7.74963e-11
2.78744e-09
-9.30866e-11
2.82103e-09
-1.12853e-10
2.85758e-09
-1.38066e-10
2.89454e-09
-1.68327e-10
2.92788e-09
-2.00534e-10
2.95348e-09
-2.29032e-10
-2.47642e-10
2.96972e-09
3.79504e-09
1.40673e-10
3.7712e-09
5.95114e-11
3.7646e-09
9.06554e-12
3.76962e-09
-2.54044e-11
3.78302e-09
-5.09e-11
3.80286e-09
-7.13122e-11
3.82796e-09
-8.93324e-11
3.85755e-09
-1.0709e-10
3.8909e-09
-1.26435e-10
3.92684e-09
-1.48785e-10
3.96329e-09
-1.74522e-10
3.99723e-09
-2.02266e-10
4.02536e-09
-2.28666e-10
4.04564e-09
-2.4931e-10
-2.60584e-10
4.05858e-09
5.21322e-09
2.12031e-10
5.17798e-09
9.47508e-11
5.16548e-09
2.15686e-11
5.16816e-09
-2.80881e-11
5.18158e-09
-6.43202e-11
5.20294e-09
-9.26724e-11
5.23035e-09
-1.16739e-10
5.26231e-09
-1.39046e-10
5.29726e-09
-1.61388e-10
5.33322e-09
-1.84743e-10
5.36761e-09
-2.08911e-10
5.39762e-09
-2.32283e-10
5.42112e-09
-2.5216e-10
5.43756e-09
-2.65754e-10
-2.71386e-10
5.44836e-09
7.02344e-09
3.07488e-10
6.97335e-09
1.44837e-10
6.95214e-09
4.27777e-11
6.95013e-09
-2.6081e-11
6.96144e-09
-7.56259e-11
6.98222e-09
-1.1345e-10
7.0097e-09
-1.44227e-10
7.04161e-09
-1.7095e-10
7.07566e-09
-1.95442e-10
7.10939e-09
-2.18476e-10
7.14024e-09
-2.39758e-10
7.16603e-09
-2.58072e-10
7.18564e-09
-2.71773e-10
7.19942e-09
-2.7953e-10
-2.80919e-10
7.20895e-09
9.31025e-09
4.29949e-10
9.24211e-09
2.12974e-10
9.20913e-09
7.57645e-11
9.19953e-09
-1.64892e-11
9.20592e-09
-8.20064e-11
9.22328e-09
-1.30814e-10
9.24795e-09
-1.68898e-10
9.2769e-09
-1.99901e-10
9.30738e-09
-2.25921e-10
9.33681e-09
-2.47903e-10
9.36297e-09
-2.65916e-10
9.38438e-09
-2.79487e-10
9.40066e-09
-2.88048e-10
9.41249e-09
-2.91361e-10
-2.89739e-10
9.42131e-09
1.21659e-08
5.78921e-10
1.2078e-08
3.00842e-10
1.20307e-08
1.23105e-10
1.20106e-08
3.63922e-12
1.20089e-08
-8.03131e-11
1.20196e-08
-1.41503e-10
1.20381e-08
-1.87483e-10
1.20611e-08
-2.22817e-10
1.20853e-08
-2.50206e-10
1.21086e-08
-2.71142e-10
1.2129e-08
-2.86362e-10
1.21458e-08
-2.9624e-10
1.21588e-08
-3.01104e-10
1.21689e-08
-3.01448e-10
-2.97988e-10
1.21772e-08
1.56843e-08
7.47551e-10
1.55786e-08
4.06543e-10
1.55163e-08
1.85458e-10
1.54836e-08
3.6306e-11
1.54711e-08
-6.7829e-11
1.54721e-08
-1.42464e-10
1.54815e-08
-1.96901e-10
1.54956e-08
-2.36886e-10
1.55114e-08
-2.66017e-10
1.55268e-08
-2.86588e-10
1.55406e-08
-3.00137e-10
1.55522e-08
-3.07814e-10
1.55617e-08
-3.10614e-10
1.55697e-08
-3.09491e-10
-3.05359e-10
1.55771e-08
1.99519e-08
9.19756e-10
1.98363e-08
5.22095e-10
1.97622e-08
2.59566e-10
1.97175e-08
8.09766e-11
1.96932e-08
-4.35556e-11
1.96827e-08
-1.31917e-10
1.96809e-08
-1.95128e-10
1.96843e-08
-2.40224e-10
1.96901e-08
-2.71843e-10
1.96967e-08
-2.93167e-10
1.9703e-08
-3.06504e-10
1.97089e-08
-3.13634e-10
1.97143e-08
-3.16016e-10
1.97196e-08
-3.14874e-10
-3.11209e-10
1.97255e-08
2.50365e-08
1.07004e-09
2.49267e-08
6.3197e-10
2.48498e-08
3.36456e-10
2.47979e-08
1.32844e-10
2.47641e-08
-9.76599e-12
2.47429e-08
-1.10693e-10
2.47301e-08
-1.82288e-10
2.47226e-08
-2.32716e-10
2.47183e-08
-2.67566e-10
2.47159e-08
-2.90809e-10
2.47148e-08
-3.05375e-10
2.47147e-08
-3.13501e-10
2.47156e-08
-3.16939e-10
2.47178e-08
-3.17062e-10
-3.14903e-10
2.47215e-08
3.09817e-08
1.16957e-09
3.08983e-08
7.15393e-10
3.08329e-08
4.01827e-10
3.07835e-08
1.82297e-10
3.07466e-08
2.71013e-11
3.07191e-08
-8.31973e-11
3.06984e-08
-1.61539e-10
3.06824e-08
-2.16764e-10
3.06699e-08
-2.55093e-10
3.06602e-08
-2.8102e-10
3.06527e-08
-2.9787e-10
3.06473e-08
-3.08148e-10
3.06441e-08
-3.13755e-10
3.06432e-08
-3.16126e-10
-3.16291e-10
3.06446e-08
3.78098e-08
1.1989e-09
3.77707e-08
7.54466e-10
3.77317e-08
4.40868e-10
3.76964e-08
2.17632e-10
3.76656e-08
5.78843e-11
3.76391e-08
-5.66889e-11
3.76163e-08
-1.38745e-10
3.75967e-08
-1.97183e-10
3.758e-08
-2.38392e-10
3.7566e-08
-2.67037e-10
3.75547e-08
-2.8657e-10
3.75461e-08
-2.99564e-10
3.75403e-08
-3.0794e-10
3.75373e-08
-3.13121e-10
-3.161e-10
3.75371e-08
4.55283e-08
1.15917e-09
4.55383e-08
7.44457e-10
4.55326e-08
4.4654e-10
4.55189e-08
2.31315e-10
4.55015e-08
7.53466e-11
4.54826e-08
-3.78236e-11
4.54638e-08
-1.19893e-10
4.54458e-08
-1.79269e-10
4.54295e-08
-2.2207e-10
4.54153e-08
-2.52793e-10
4.54035e-08
-2.74767e-10
4.53944e-08
-2.90458e-10
4.53881e-08
-3.01695e-10
4.53848e-08
-3.09819e-10
-3.15753e-10
4.53845e-08
5.41029e-08
1.06909e-09
5.41514e-08
6.95982e-10
5.41739e-08
4.24023e-10
5.41802e-08
2.25052e-10
5.41765e-08
7.90812e-11
5.41669e-08
-2.82237e-11
5.41542e-08
-1.07232e-10
5.41404e-08
-1.65501e-10
5.41269e-08
-2.08581e-10
5.41147e-08
-2.40564e-10
5.41044e-08
-2.6448e-10
5.40965e-08
-2.82568e-10
5.40913e-08
-2.96482e-10
5.40889e-08
-3.07431e-10
-3.16239e-10
5.40894e-08
6.33572e-08
9.48558e-10
6.34289e-08
6.24372e-10
6.34682e-08
3.84666e-10
6.34863e-08
2.0695e-10
6.34907e-08
7.4737e-11
6.34864e-08
-2.40043e-11
6.34773e-08
-9.8083e-11
6.34658e-08
-1.53986e-10
6.34537e-08
-1.9651e-10
6.34423e-08
-2.29205e-10
6.34326e-08
-2.54701e-10
6.34249e-08
-2.7494e-10
6.34198e-08
-2.91357e-10
6.34174e-08
-3.05e-10
-3.16573e-10
6.34177e-08
7.2803e-08
8.06511e-10
7.28897e-08
5.3767e-10
7.29389e-08
3.35473e-10
7.29629e-08
1.82997e-10
7.29702e-08
6.74519e-11
7.29668e-08
-2.06514e-11
7.29571e-08
-8.8357e-11
7.2944e-08
-1.40909e-10
7.29297e-08
-1.8221e-10
7.29157e-08
-2.15162e-10
7.29029e-08
-2.4192e-10
7.2892e-08
-2.64083e-10
7.28835e-08
-2.82832e-10
7.28775e-08
-2.99035e-10
-3.13266e-10
7.28742e-08
7.21863e-08
6.62421e-10
7.22761e-08
4.47859e-10
7.23283e-08
2.83348e-10
7.23545e-08
1.5677e-10
7.23632e-08
5.87299e-11
7.23604e-08
-1.78526e-11
7.23504e-08
-7.8311e-11
7.23361e-08
-1.26664e-10
7.23198e-08
-1.65923e-10
7.2303e-08
-1.98343e-10
7.22867e-08
-2.25606e-10
7.22716e-08
-2.48967e-10
7.22581e-08
-2.69359e-10
7.22466e-08
-2.8747e-10
-3.03758e-10
7.2237e-08
6.1743e-08
5.34063e-10
6.18257e-08
3.65129e-10
6.18759e-08
2.33145e-10
6.19032e-08
1.29516e-10
6.19144e-08
4.74703e-11
6.19148e-08
-1.81608e-11
6.19078e-08
-7.13139e-11
6.18961e-08
-1.14985e-10
6.18816e-08
-1.51443e-10
6.18656e-08
-1.82393e-10
6.18492e-08
-2.09119e-10
6.18328e-08
-2.32584e-10
6.18169e-08
-2.53505e-10
6.18019e-08
-2.72413e-10
-2.89666e-10
6.17878e-08
5.17811e-08
4.20945e-10
5.18567e-08
2.8953e-10
5.19049e-08
1.84987e-10
5.19332e-08
1.01268e-10
5.19471e-08
3.35718e-11
5.19507e-08
-2.18017e-11
5.19471e-08
-6.77051e-11
5.19384e-08
-1.06326e-10
5.19263e-08
-1.39331e-10
5.19119e-08
-1.67982e-10
5.1896e-08
-1.93231e-10
5.18792e-08
-2.15797e-10
5.18619e-08
-2.36215e-10
5.18444e-08
-2.54884e-10
-2.72069e-10
5.18268e-08
4.27617e-08
3.23466e-10
4.28288e-08
2.22428e-10
4.28732e-08
1.40637e-10
4.29006e-08
7.38764e-11
4.29153e-08
1.88032e-11
4.29207e-08
-2.71824e-11
4.29191e-08
-6.61081e-11
4.29123e-08
-9.95394e-11
4.29017e-08
-1.28673e-10
4.28881e-08
-1.54419e-10
4.28723e-08
-1.77466e-10
4.28549e-08
-1.98336e-10
4.28361e-08
-2.17416e-10
4.28162e-08
-2.34993e-10
-2.51256e-10
4.27954e-08
3.48671e-08
2.41919e-10
3.49243e-08
1.65178e-10
3.4963e-08
1.01988e-10
3.49874e-08
4.94459e-11
3.50009e-08
5.27789e-12
3.50061e-08
-3.23043e-11
3.50047e-08
-6.47134e-11
3.49982e-08
-9.30448e-11
3.49876e-08
-1.18137e-10
3.49738e-08
-1.4063e-10
3.49574e-08
-1.61009e-10
3.49387e-08
-1.79638e-10
3.49181e-08
-1.96791e-10
3.48957e-08
-2.12667e-10
-2.27393e-10
3.48719e-08
2.81162e-08
1.76005e-10
2.81629e-08
1.18462e-10
2.81946e-08
7.02674e-11
2.82146e-08
2.94666e-11
2.82253e-08
-5.4449e-12
2.82287e-08
-3.5666e-11
2.82261e-08
-6.2158e-11
2.82187e-08
-8.5669e-11
2.82074e-08
-1.06771e-10
2.81926e-08
-1.25902e-10
2.8175e-08
-1.43392e-10
2.81549e-08
-1.5949e-10
2.81325e-08
-1.74381e-10
2.8108e-08
-1.88198e-10
-2.01022e-10
2.80816e-08
2.24411e-08
1.2462e-10
2.24775e-08
8.20407e-11
2.2502e-08
4.57639e-11
2.2517e-08
1.4509e-11
2.25242e-08
-1.26802e-11
2.25251e-08
-3.65849e-11
2.25208e-08
-5.78427e-11
2.25121e-08
-7.69506e-11
2.24996e-08
-9.42881e-11
2.24838e-08
-1.10145e-10
2.24652e-08
-1.2474e-10
2.24439e-08
-1.38237e-10
2.24203e-08
-1.50757e-10
2.23945e-08
-1.62385e-10
-1.73169e-10
2.23666e-08
1.77338e-08
8.59519e-11
1.7761e-08
5.48732e-11
1.77788e-08
2.7932e-11
1.7789e-08
4.32351e-12
1.77929e-08
-1.65284e-11
1.77914e-08
-3.51171e-11
1.77854e-08
-5.18544e-11
1.77755e-08
-6.70605e-11
1.77622e-08
-8.09792e-11
1.77459e-08
-9.37964e-11
1.77268e-08
-1.05652e-10
1.77052e-08
-1.16651e-10
1.76813e-08
-1.26868e-10
1.76553e-08
-1.36357e-10
-1.4514e-10
1.76273e-08
1.3873e-08
5.7796e-11
1.38925e-08
3.54343e-11
1.39047e-08
1.57077e-11
1.39109e-08
-1.8599e-12
1.39119e-08
-1.75902e-11
1.39086e-08
-3.17851e-11
1.39014e-08
-4.47032e-11
1.38909e-08
-5.65441e-11
1.38774e-08
-6.74592e-11
1.38612e-08
-7.75637e-11
1.38425e-08
-8.69439e-11
1.38215e-08
-9.56633e-11
1.37984e-08
-1.03767e-10
1.37733e-08
-1.11287e-10
-1.18231e-10
1.37464e-08
1.07377e-08
3.79003e-11
1.07511e-08
2.20589e-11
1.0759e-08
7.83872e-12
1.07621e-08
-5.01611e-12
1.07612e-08
-1.66662e-11
1.07567e-08
-2.72911e-11
1.07491e-08
-3.70486e-11
1.07386e-08
-4.60583e-11
1.07255e-08
-5.44108e-11
1.07102e-08
-6.21746e-11
1.06926e-08
-6.94003e-11
1.06731e-08
-7.61249e-11
1.06517e-08
-8.23742e-11
1.06286e-08
-8.81647e-11
-9.34994e-11
1.06038e-08
8.21495e-09
2.42192e-11
8.22381e-09
1.31945e-11
8.22852e-09
3.12879e-12
8.2296e-09
-6.09372e-12
8.22747e-09
-1.4539e-11
8.2225e-09
-2.23122e-11
8.21495e-09
-2.95059e-11
8.20508e-09
-3.61889e-11
8.19309e-09
-4.24128e-11
8.17913e-09
-4.82163e-11
8.16335e-09
-5.36274e-11
8.1459e-09
-5.86663e-11
8.12687e-09
-6.33466e-11
8.10638e-09
-6.76765e-11
-7.1655e-11
8.08454e-09
6.20261e-09
1.50461e-11
6.20827e-09
7.53594e-12
6.21083e-09
5.68938e-13
6.21062e-09
-5.88936e-12
6.20794e-09
-1.18552e-11
6.20302e-09
-1.73903e-11
6.19606e-09
-2.25462e-11
6.18723e-09
-2.73605e-11
6.17668e-09
-3.18608e-11
6.16453e-09
-3.60675e-11
6.1509e-09
-3.99949e-11
6.13588e-09
-4.36529e-11
6.11958e-09
-4.7048e-11
6.10209e-09
-5.01835e-11
-5.30572e-11
6.08349e-09
4.61103e-09
9.04417e-12
4.6145e-09
4.06503e-12
4.61569e-09
-6.2026e-13
4.61481e-09
-5.00569e-12
4.61204e-09
-9.08625e-12
4.60755e-09
-1.28985e-11
4.60147e-09
-1.64694e-11
4.59393e-09
-1.98181e-11
4.58502e-09
-2.29581e-11
4.57486e-09
-2.58989e-11
4.56351e-09
-2.86469e-11
4.55106e-09
-3.12065e-11
4.53759e-09
-3.35801e-11
4.52318e-09
-3.57682e-11
-3.77686e-11
4.50789e-09
3.36289e-09
5.21563e-12
3.36492e-09
2.03089e-12
3.3653e-09
-1.00069e-12
3.36416e-09
-3.85996e-12
3.36161e-09
-6.53649e-12
3.35776e-09
-9.05234e-12
3.35271e-09
-1.14204e-11
3.34654e-09
-1.36491e-11
3.33933e-09
-1.57444e-11
3.33114e-09
-1.77098e-11
3.32204e-09
-1.95477e-11
3.3121e-09
-2.12593e-11
3.30136e-09
-2.2845e-11
3.2899e-09
-2.43042e-11
-2.56348e-11
3.27776e-09
2.39259e-09
2.84306e-12
2.39372e-09
9.04932e-13
2.39367e-09
-9.53585e-13
2.39253e-09
-2.71625e-12
2.39037e-09
-4.3746e-12
2.38726e-09
-5.942e-12
2.38326e-09
-7.42351e-12
2.37843e-09
-8.82236e-12
2.37283e-09
-1.01403e-11
2.3665e-09
-1.13783e-11
2.35949e-09
-1.25365e-11
2.35184e-09
-1.36149e-11
2.34361e-09
-1.4613e-11
2.33484e-09
-1.55299e-11
-1.63636e-11
2.32557e-09
1.64526e-09
1.42599e-12
1.64583e-09
3.29455e-13
1.6456e-09
-7.22461e-13
1.64461e-09
-1.72367e-12
1.64291e-09
-2.66985e-12
1.64053e-09
-3.56868e-12
1.63753e-09
-4.42147e-12
1.63394e-09
-5.22901e-12
1.62979e-09
-5.99135e-12
1.62512e-09
-6.70825e-12
1.61996e-09
-7.37916e-12
1.61435e-09
-8.00373e-12
1.60832e-09
-8.58134e-12
1.6019e-09
-9.11083e-12
-9.5906e-12
1.59513e-09
1.07548e-09
6.23721e-13
1.07574e-09
7.11367e-14
1.07547e-09
-4.52399e-13
1.0747e-09
-9.51502e-13
1.07345e-09
-1.42531e-12
1.07176e-09
-1.87761e-12
1.06965e-09
-2.30831e-12
1.06714e-09
-2.71723e-12
1.06425e-09
-3.10397e-12
1.06101e-09
-3.46801e-12
1.05744e-09
-3.8088e-12
1.05356e-09
-4.12596e-12
1.0494e-09
-4.41906e-12
1.04498e-09
-4.68712e-12
-4.92857e-12
1.04031e-09
6.46086e-10
2.09016e-13
6.46174e-10
-1.68541e-14
6.45943e-10
-2.22029e-13
6.4541e-10
-4.17629e-13
6.44589e-10
-6.04462e-13
6.43495e-10
-7.83784e-13
6.42142e-10
-9.55196e-13
6.40543e-10
-1.11838e-12
6.38712e-10
-1.27296e-12
6.36662e-10
-1.41859e-12
6.34409e-10
-1.55494e-12
6.31964e-10
-1.68175e-12
6.29344e-10
-1.79885e-12
6.26563e-10
-1.9056e-12
-2.00053e-12
6.23635e-10
3.26892e-10
3.28946e-14
3.26899e-10
-2.35216e-14
3.26744e-10
-6.76053e-14
3.26436e-10
-1.09763e-13
3.25982e-10
-1.50617e-13
3.25389e-10
-1.90194e-13
3.24662e-10
-2.28256e-13
3.23808e-10
-2.64614e-13
3.22834e-10
-2.99107e-13
3.21747e-10
-3.31606e-13
3.20554e-10
-3.62003e-13
3.19263e-10
-3.90214e-13
3.1788e-10
-4.16223e-13
3.16414e-10
-4.39773e-13
-4.59779e-13
3.14874e-10
9.35906e-11
9.35671e-11
9.34995e-11
9.33897e-11
9.32391e-11
9.30489e-11
9.28206e-11
9.2556e-11
9.22569e-11
9.19253e-11
9.15633e-11
9.11731e-11
9.07569e-11
9.03171e-11
8.98573e-11
3.12759e-10
-2.13706e-10
1.59969e-10
3.87379e-10
-2.49367e-10
1.74746e-10
4.66436e-10
-2.55054e-10
1.75998e-10
5.46523e-10
-2.50995e-10
1.70907e-10
6.26853e-10
-2.41889e-10
1.61559e-10
7.07524e-10
-2.30254e-10
1.49582e-10
7.88902e-10
-2.17408e-10
1.3603e-10
8.71361e-10
-2.04395e-10
1.21936e-10
9.55226e-10
-1.92299e-10
1.08435e-10
1.04076e-09
-1.82365e-10
9.68325e-11
1.12815e-09
-1.76055e-10
8.86638e-11
1.21751e-09
-1.75084e-10
8.57182e-11
1.30889e-09
-1.81425e-10
9.00503e-11
1.40222e-09
-1.97294e-10
1.0396e-10
1.49738e-09
-2.25092e-10
1.29937e-10
1.59412e-09
-2.6733e-10
1.70588e-10
1.69211e-09
-3.2655e-10
2.28558e-10
1.7909e-09
-4.05359e-10
3.06578e-10
1.8898e-09
-5.06692e-10
4.07786e-10
1.98781e-09
-6.34763e-10
5.36758e-10
2.08309e-09
-7.96982e-10
7.01699e-10
2.17231e-09
-1.00703e-09
9.17818e-10
2.23984e-09
-1.09649e-09
1.02896e-09
2.28325e-09
-1.11496e-09
1.07155e-09
2.3054e-09
-1.11453e-09
1.09238e-09
2.30896e-09
-1.08614e-09
1.08258e-09
2.29657e-09
-1.02293e-09
1.03531e-09
2.27085e-09
-9.21499e-10
9.47224e-10
2.23429e-09
-7.8192e-10
8.18483e-10
2.1892e-09
-6.06967e-10
6.52055e-10
2.13764e-09
-4.01168e-10
4.52728e-10
2.08132e-09
-1.69978e-10
2.26296e-10
2.02153e-09
8.06729e-11
-2.08824e-11
1.95898e-09
3.44345e-10
-2.81794e-10
1.89364e-09
6.13661e-10
-5.48317e-10
1.82455e-09
8.79756e-10
-8.10669e-10
1.74978e-09
1.13186e-09
-1.05709e-09
1.66654e-09
1.3573e-09
-1.27406e-09
1.5715e-09
1.54208e-09
-1.44704e-09
1.46141e-09
1.67183e-09
-1.56174e-09
1.33392e-09
1.73273e-09
-1.60524e-09
1.18873e-09
1.71167e-09
-1.56647e-09
1.02925e-09
1.59444e-09
-1.43496e-09
8.66825e-10
1.36203e-09
-1.19961e-09
9.6484e-10
7.2583e-10
-8.23845e-10
5.98762e-10
-2.43739e-10
6.47895e-10
-2.985e-10
7.12968e-10
-3.20128e-10
7.87135e-10
-3.25162e-10
8.66571e-10
-3.21325e-10
9.49418e-10
-3.13101e-10
1.03491e-09
-3.029e-10
1.12279e-09
-2.92273e-10
1.21302e-09
-2.82528e-10
1.30564e-09
-2.74991e-10
1.40072e-09
-2.71136e-10
1.49829e-09
-2.72647e-10
1.5983e-09
-2.81441e-10
1.70067e-09
-2.99662e-10
1.8052e-09
-3.29623e-10
1.91161e-09
-3.73741e-10
2.0195e-09
-4.34444e-10
2.12834e-09
-5.14199e-10
2.23736e-09
-6.15714e-10
2.3454e-09
-7.42796e-10
2.4504e-09
-9.01985e-10
2.54867e-09
-1.1053e-09
2.6231e-09
-1.17092e-09
2.67106e-09
-1.16291e-09
2.69575e-09
-1.13922e-09
2.70016e-09
-1.09055e-09
2.68724e-09
-1.01e-09
2.65991e-09
-8.9417e-10
2.62098e-09
-7.42997e-10
2.57309e-09
-5.59069e-10
2.51857e-09
-3.46652e-10
2.45947e-09
-1.10874e-10
2.3974e-09
1.42741e-10
2.33347e-09
4.08276e-10
2.26809e-09
6.79043e-10
2.20082e-09
9.47023e-10
2.13033e-09
1.20234e-09
2.05456e-09
1.43307e-09
1.97118e-09
1.62546e-09
1.87846e-09
1.76455e-09
1.77656e-09
1.83463e-09
1.66911e-09
1.81912e-09
1.56418e-09
1.69936e-09
1.47158e-09
1.45463e-09
1.06775e-09
1.36868e-09
9.80398e-10
-2.6367e-10
1.01192e-09
-3.30022e-10
1.06076e-09
-3.68971e-10
1.12391e-09
-3.88308e-10
1.19745e-09
-3.94865e-10
1.27839e-09
-3.94041e-10
1.36487e-09
-3.89375e-10
1.45582e-09
-3.83224e-10
1.55067e-09
-3.77379e-10
1.64911e-09
-3.73431e-10
1.75095e-09
-3.72981e-10
1.85606e-09
-3.77759e-10
1.9643e-09
-3.89672e-10
2.07545e-09
-4.10816e-10
2.18926e-09
-4.43431e-10
2.30536e-09
-4.8984e-10
2.42327e-09
-5.52356e-10
2.54236e-09
-6.3329e-10
2.66174e-09
-7.35098e-10
2.78008e-09
-8.61137e-10
2.89509e-09
-1.01699e-09
3.00266e-09
-1.21288e-09
3.08418e-09
-1.25244e-09
3.13684e-09
-1.21557e-09
3.16418e-09
-1.16657e-09
3.16954e-09
-1.09591e-09
3.15621e-09
-9.96673e-10
3.12746e-09
-8.65419e-10
3.08645e-09
-7.01987e-10
3.03614e-09
-5.08765e-10
2.97925e-09
-2.89762e-10
2.91818e-09
-4.97991e-11
2.85496e-09
2.05964e-10
2.79117e-09
4.72061e-10
2.72782e-09
7.42394e-10
2.66518e-09
1.00966e-09
2.60278e-09
1.26474e-09
2.53959e-09
1.49626e-09
2.47454e-09
1.69052e-09
2.40738e-09
1.83171e-09
2.33969e-09
1.90232e-09
2.27523e-09
1.88357e-09
2.21761e-09
1.75698e-09
2.16169e-09
1.51055e-09
1.15407e-09
2.07537e-09
1.48139e-09
-2.78473e-10
1.50128e-09
-3.49911e-10
1.53526e-09
-4.02953e-10
1.58486e-09
-4.37906e-10
1.64831e-09
-4.58318e-10
1.72297e-09
-4.68693e-10
1.8065e-09
-4.72911e-10
1.89723e-09
-4.73955e-10
1.99402e-09
-4.74168e-10
2.09612e-09
-4.75525e-10
2.203e-09
-4.79868e-10
2.3143e-09
-4.89056e-10
2.42967e-09
-5.05046e-10
2.54878e-09
-5.29925e-10
2.67124e-09
-5.65885e-10
2.79656e-09
-6.15164e-10
2.92416e-09
-6.79959e-10
3.05329e-09
-7.62414e-10
3.1829e-09
-8.64707e-10
3.31146e-09
-9.89697e-10
3.4364e-09
-1.14193e-09
3.55319e-09
-1.32967e-09
3.64176e-09
-1.34101e-09
3.69908e-09
-1.2729e-09
3.72908e-09
-1.19657e-09
3.73545e-09
-1.10228e-09
3.72185e-09
-9.83069e-10
3.69192e-09
-8.3549e-10
3.6492e-09
-6.59273e-10
3.59706e-09
-4.56617e-10
3.53858e-09
-2.31284e-10
3.4766e-09
1.2183e-11
3.41363e-09
2.68927e-10
3.35185e-09
5.33843e-10
3.29296e-09
8.01288e-10
3.2381e-09
1.06452e-09
3.18783e-09
1.31501e-09
3.14227e-09
1.54182e-09
3.10148e-09
1.73131e-09
3.06593e-09
1.86726e-09
3.0367e-09
1.93156e-09
3.01425e-09
1.90601e-09
2.99462e-09
1.77661e-09
2.96303e-09
1.54214e-09
1.22667e-09
2.89044e-09
2.13404e-09
-2.90133e-10
2.14639e-09
-3.6226e-10
2.16815e-09
-4.2472e-10
2.20384e-09
-4.73591e-10
2.25443e-09
-5.08908e-10
2.3188e-09
-5.3307e-10
2.39512e-09
-5.49227e-10
2.48157e-09
-5.60402e-10
2.57665e-09
-5.69255e-10
2.67924e-09
-5.78111e-10
2.78846e-09
-5.8909e-10
2.90364e-09
-6.04238e-10
3.02422e-09
-6.25616e-10
3.14964e-09
-6.55347e-10
3.27935e-09
-6.956e-10
3.41274e-09
-7.48547e-10
3.54905e-09
-8.16269e-10
3.68737e-09
-9.00735e-10
3.82648e-09
-1.00382e-09
3.96462e-09
-1.12784e-09
4.09891e-09
-1.27621e-09
4.22436e-09
-1.45513e-09
4.31952e-09
-1.43616e-09
4.38122e-09
-1.33459e-09
4.41371e-09
-1.22906e-09
4.42106e-09
-1.10962e-09
4.40731e-09
-9.69319e-10
4.37651e-09
-8.0469e-10
4.33261e-09
-6.15372e-10
4.27937e-09
-4.03384e-10
4.22035e-09
-1.72258e-10
4.15882e-09
7.37055e-11
4.09786e-09
3.29888e-10
4.04027e-09
5.9144e-10
3.98851e-09
8.5304e-10
3.94468e-09
1.10836e-09
3.91036e-09
1.34933e-09
3.88666e-09
1.56551e-09
3.87427e-09
1.7437e-09
3.87331e-09
1.86821e-09
3.88268e-09
1.92218e-09
3.89815e-09
1.89055e-09
3.90934e-09
1.76542e-09
3.89786e-09
1.55362e-09
1.28309e-09
3.84143e-09
2.979e-09
-2.99413e-10
2.98644e-09
-3.69706e-10
2.99887e-09
-4.37147e-10
3.02182e-09
-4.96543e-10
3.05844e-09
-5.45527e-10
3.10959e-09
-5.84221e-10
3.17467e-09
-6.14304e-10
3.25241e-09
-6.3814e-10
3.3414e-09
-6.58245e-10
3.44034e-09
-6.77052e-10
3.54812e-09
-6.96867e-10
3.66379e-09
-7.19907e-10
3.78653e-09
-7.48355e-10
3.91557e-09
-7.84392e-10
4.05016e-09
-8.30189e-10
4.18948e-09
-8.87864e-10
4.3326e-09
-9.59391e-10
4.47841e-09
-1.04655e-09
4.62548e-09
-1.15089e-09
4.77177e-09
-1.27413e-09
4.91406e-09
-1.41849e-09
5.04688e-09
-1.58795e-09
5.14762e-09
-1.5369e-09
5.21297e-09
-1.39995e-09
5.24751e-09
-1.2636e-09
5.25565e-09
-1.11776e-09
5.24183e-09
-9.55499e-10
5.21051e-09
-7.73371e-10
5.16607e-09
-5.70932e-10
5.11272e-09
-3.50029e-10
5.05444e-09
-1.13984e-10
4.99504e-09
1.33109e-10
4.93811e-09
3.86813e-10
4.8871e-09
6.42451e-10
4.84523e-09
8.94915e-10
4.8154e-09
1.13819e-09
4.80003e-09
1.3647e-09
4.80084e-09
1.56471e-09
4.81842e-09
1.72612e-09
4.85163e-09
1.835e-09
4.89646e-09
1.87736e-09
4.94442e-09
1.84259e-09
4.98151e-09
1.72832e-09
4.98983e-09
1.54531e-09
1.31899e-09
4.95392e-09
4.06601e-09
-3.06842e-10
4.07026e-09
-3.73955e-10
4.07597e-09
-4.42857e-10
4.08829e-09
-5.08868e-10
4.11142e-09
-5.68657e-10
4.14789e-09
-6.20692e-10
4.19866e-09
-6.65072e-10
4.26356e-09
-7.03033e-10
4.34176e-09
-7.36454e-10
4.43222e-09
-7.67506e-10
4.5338e-09
-7.98444e-10
4.64542e-09
-8.31533e-10
4.76609e-09
-8.69019e-10
4.89482e-09
-9.13124e-10
5.03065e-09
-9.66019e-10
5.17255e-09
-1.02977e-09
5.31939e-09
-1.10623e-09
5.46983e-09
-1.19699e-09
5.62218e-09
-1.30324e-09
5.7741e-09
-1.42605e-09
5.92197e-09
-1.56637e-09
6.05987e-09
-1.72584e-09
6.16436e-09
-1.64139e-09
6.23208e-09
-1.46767e-09
6.26782e-09
-1.29934e-09
6.27631e-09
-1.12625e-09
6.26238e-09
-9.41571e-10
6.2309e-09
-7.41888e-10
6.18666e-09
-5.26697e-10
6.13432e-09
-2.97689e-10
6.07833e-09
-5.79855e-11
6.02293e-09
1.88505e-10
5.97224e-09
4.37499e-10
5.93024e-09
6.8445e-10
5.90073e-09
9.24427e-10
5.88718e-09
1.15174e-09
5.89243e-09
1.35944e-09
5.91823e-09
1.53892e-09
5.96448e-09
1.67987e-09
6.02836e-09
1.77112e-09
6.10321e-09
1.80251e-09
6.17789e-09
1.7679e-09
6.23749e-09
1.66872e-09
6.26649e-09
1.51632e-09
1.33109e-09
6.25439e-09
5.45454e-09
-3.13016e-10
5.45684e-09
-3.76262e-10
5.4581e-09
-4.4411e-10
5.46233e-09
-5.13103e-10
5.47374e-09
-5.80059e-10
5.49576e-09
-6.42713e-10
5.53068e-09
-7.00001e-10
5.57964e-09
-7.51992e-10
5.64283e-09
-7.99643e-10
5.71983e-09
-8.44507e-10
5.80988e-09
-8.88487e-10
5.91201e-09
-9.33669e-10
6.02521e-09
-9.82219e-10
6.1484e-09
-1.03631e-09
6.28045e-09
-1.09807e-09
6.42016e-09
-1.16947e-09
6.56616e-09
-1.25224e-09
6.7169e-09
-1.34772e-09
6.8704e-09
-1.45674e-09
7.02399e-09
-1.57964e-09
7.17367e-09
-1.71605e-09
7.31299e-09
-1.86517e-09
7.41834e-09
-1.74674e-09
7.48631e-09
-1.53565e-09
7.52183e-09
-1.33485e-09
7.52986e-09
-1.13429e-09
7.51558e-09
-9.27287e-10
7.48421e-09
-7.1052e-10
7.44096e-09
-4.83446e-10
7.39087e-09
-2.47602e-10
7.3388e-09
-5.91246e-12
7.28939e-09
2.37913e-10
7.24713e-09
4.79761e-10
7.21633e-09
7.1525e-10
7.20107e-09
9.39685e-10
7.20498e-09
1.14783e-09
7.23081e-09
1.33362e-09
7.27979e-09
1.48993e-09
7.35081e-09
1.60885e-09
7.43949e-09
1.68245e-09
7.53754e-09
1.70446e-09
7.633e-09
1.67244e-09
7.71189e-09
1.58984e-09
7.76148e-09
1.46672e-09
1.31826e-09
7.77431e-09
7.2145e-09
-3.1856e-10
7.21589e-09
-3.77658e-10
7.2146e-09
-4.42821e-10
7.21337e-09
-5.11866e-10
7.21565e-09
-5.82346e-10
7.225e-09
-6.52055e-10
7.24441e-09
-7.19415e-10
7.27609e-09
-7.83669e-10
7.32133e-09
-8.44886e-10
7.38066e-09
-9.03839e-10
7.45401e-09
-9.61832e-10
7.54087e-09
-1.02053e-09
7.64046e-09
-1.08181e-09
7.7518e-09
-1.14766e-09
7.87375e-09
-1.22002e-09
8.005e-09
-1.30072e-09
8.14403e-09
-1.39127e-09
8.28907e-09
-1.49276e-09
8.43788e-09
-1.60554e-09
8.58746e-09
-1.72922e-09
8.73342e-09
-1.86201e-09
8.86885e-09
-2.0006e-09
8.97075e-09
-1.84865e-09
9.03584e-09
-1.60074e-09
9.06895e-09
-1.36795e-09
9.07519e-09
-1.14053e-09
9.05996e-09
-9.12063e-10
9.02881e-09
-6.79366e-10
8.98724e-09
-4.41877e-10
8.94062e-09
-2.00982e-10
8.89409e-09
4.06198e-11
8.85253e-09
2.79468e-10
8.8206e-09
5.11698e-10
8.80264e-09
7.33208e-10
8.80262e-09
9.39704e-10
8.82384e-09
1.12662e-09
8.86846e-09
1.289e-09
8.93686e-09
1.42154e-09
9.02685e-09
1.51886e-09
9.13306e-09
1.57624e-09
9.24677e-09
1.59074e-09
9.35668e-09
1.56253e-09
9.45073e-09
1.49579e-09
9.51879e-09
1.39866e-09
1.28193e-09
9.55513e-09
9.42671e-09
-3.23963e-10
9.42798e-09
-3.78932e-10
9.42567e-09
-4.40509e-10
9.42135e-09
-5.0754e-10
9.41746e-09
-5.78462e-10
9.41699e-09
-6.51582e-10
9.42296e-09
-7.25389e-10
9.43809e-09
-7.98801e-10
9.46452e-09
-8.71307e-10
9.50368e-09
-9.43001e-10
9.55637e-09
-1.01453e-09
9.62281e-09
-1.08697e-09
9.70274e-09
-1.16174e-09
9.79553e-09
-1.24044e-09
9.90022e-09
-1.32471e-09
1.00156e-08
-1.41608e-09
1.01401e-08
-1.51576e-09
1.02718e-08
-1.62446e-09
1.04083e-08
-1.74203e-09
1.05462e-08
-1.86721e-09
1.0681e-08
-1.99678e-09
1.08053e-08
-2.12486e-09
1.08978e-08
-1.94119e-09
1.09556e-08
-1.65854e-09
1.09832e-08
-1.39552e-09
1.09856e-08
-1.14296e-09
1.09684e-08
-8.94844e-10
1.09372e-08
-6.48197e-10
1.08978e-08
-4.02453e-10
1.08557e-08
-1.58829e-10
1.0816e-08
8.02567e-11
1.07838e-08
3.11689e-10
1.07635e-08
5.3199e-10
1.07592e-08
7.37523e-10
1.07743e-08
9.24611e-10
1.08113e-08
1.08958e-09
1.08715e-08
1.22879e-09
1.09543e-08
1.3388e-09
1.10565e-08
1.4166e-09
1.11726e-08
1.46015e-09
1.12944e-08
1.46899e-09
1.1412e-08
1.44485e-09
1.15159e-08
1.39193e-09
1.1598e-08
1.31653e-09
1.22612e-09
1.16538e-08
1.21826e-08
-3.29386e-10
1.21841e-08
-3.80482e-10
1.21818e-08
-4.38154e-10
1.21762e-08
-5.01962e-10
1.21689e-08
-5.71106e-10
1.21618e-08
-6.44542e-10
1.21576e-08
-7.21164e-10
1.21588e-08
-7.99993e-10
1.21678e-08
-8.80344e-10
1.21867e-08
-9.61918e-10
1.22171e-08
-1.04485e-09
1.22598e-08
-1.12967e-09
1.23153e-08
-1.21725e-09
1.23835e-08
-1.30869e-09
1.2464e-08
-1.40517e-09
1.25557e-08
-1.50779e-09
1.26572e-08
-1.61734e-09
1.27668e-08
-1.73403e-09
1.28819e-08
-1.85709e-09
1.2999e-08
-1.98432e-09
1.31132e-08
-2.11103e-09
1.32171e-08
-2.22875e-09
1.32927e-08
-2.01676e-09
1.33374e-08
-1.70329e-09
1.33553e-08
-1.4134e-09
1.33511e-08
-1.13878e-09
1.33303e-08
-8.73981e-10
1.32984e-08
-6.16317e-10
1.32612e-08
-3.65225e-10
1.3224e-08
-1.21711e-10
1.31921e-08
1.12169e-10
1.317e-08
3.33775e-10
1.31618e-08
5.4019e-10
1.31709e-08
7.28451e-10
1.31998e-08
8.95713e-10
1.325e-08
1.03936e-09
1.33217e-08
1.15713e-09
1.34132e-08
1.24726e-09
1.35212e-08
1.30868e-09
1.364e-08
1.3413e-09
1.37628e-08
1.34623e-09
1.38816e-08
1.326e-09
1.39891e-08
1.28444e-09
1.40793e-08
1.22636e-09
1.15697e-09
1.41484e-08
1.55823e-08
-3.34555e-10
1.5584e-08
-3.82195e-10
1.55819e-08
-4.36064e-10
1.55761e-08
-4.96157e-10
1.55672e-08
-5.62221e-10
1.55564e-08
-6.33781e-10
1.55455e-08
-7.10221e-10
1.55364e-08
-7.90899e-10
1.55313e-08
-8.75261e-10
1.55323e-08
-9.62942e-10
1.55413e-08
-1.05383e-09
1.55597e-08
-1.14808e-09
1.55886e-08
-1.24611e-09
1.56284e-08
-1.34853e-09
1.56793e-08
-1.45601e-09
1.57406e-08
-1.56912e-09
1.58114e-08
-1.68812e-09
1.589e-08
-1.81261e-09
1.5974e-08
-1.94108e-09
1.606e-08
-2.07034e-09
1.61431e-08
-2.19416e-09
1.62159e-08
-2.30159e-09
1.62656e-08
-2.06638e-09
1.62904e-08
-1.72811e-09
1.62935e-08
-1.41651e-09
1.62791e-08
-1.12444e-09
1.62524e-08
-8.47215e-10
1.62185e-08
-5.82482e-10
1.6183e-08
-3.29681e-10
1.61508e-08
-8.95573e-11
1.61267e-08
1.36298e-10
1.61146e-08
3.45854e-10
1.61179e-08
5.36927e-10
1.6139e-08
7.07398e-10
1.61793e-08
8.55393e-10
1.62392e-08
9.79418e-10
1.63179e-08
1.07847e-09
1.6413e-08
1.15216e-09
1.65209e-08
1.2008e-09
1.66366e-08
1.22551e-09
1.67546e-08
1.22824e-09
1.68689e-08
1.21172e-09
1.6974e-08
1.17931e-09
1.70657e-08
1.13472e-09
1.08162e-09
1.7141e-08
1.97298e-08
-3.38829e-10
1.97311e-08
-3.83501e-10
1.97289e-08
-4.33915e-10
1.97231e-08
-4.90301e-10
1.97136e-08
-5.52741e-10
1.9701e-08
-6.21165e-10
1.96861e-08
-6.95375e-10
1.96703e-08
-7.75096e-10
1.96551e-08
-8.60046e-10
1.96422e-08
-9.49997e-10
1.96332e-08
-1.04483e-09
1.96296e-08
-1.14455e-09
1.96329e-08
-1.24932e-09
1.96437e-08
-1.35937e-09
1.96626e-08
-1.47492e-09
1.96895e-08
-1.59605e-09
1.97239e-08
-1.72243e-09
1.97643e-08
-1.85302e-09
1.98087e-08
-1.98552e-09
1.9854e-08
-2.11566e-09
1.98956e-08
-2.23576e-09
1.99266e-08
-2.33255e-09
1.99409e-08
-2.0807e-09
1.99384e-08
-1.72566e-09
1.99213e-08
-1.39933e-09
1.98928e-08
-1.096e-09
1.98575e-08
-8.11872e-10
1.982e-08
-5.44977e-10
1.9785e-08
-2.94738e-10
1.97571e-08
-6.15791e-11
1.97399e-08
1.53463e-10