/*--------------------------------*- C++ -*----------------------------------*\
| =========                 |                                                 |
| \\      /  F ield         | OpenFOAM: The Open Source CFD Toolbox           |
|  \\    /   O peration     | Version:  2312                                  |
|   \\  /    A nd           | Website:  www.openfoam.com                      |
|    \\/     M anipulation  |                                                 |
\*---------------------------------------------------------------------------*/
FoamFile
{
    version     2.0;
    format      ascii;
    arch        "LSB;label=32;scalar=64";
    class       volVectorField;
    location    "200";
    object      U;
}
// * * * * * * * * * * * * * * * * * * * * * * * * * * * * * * * * * * * * * //

dimensions      [0 1 -1 0 0 0 0];

internalField   nonuniform List<vector> 
4800
(
(8.3608e-05 1.69141e-08 -4.68567e-27)
(8.30648e-05 2.31847e-08 -3.3722e-26)
(8.30287e-05 2.80476e-08 4.30298e-26)
(8.33332e-05 3.0317e-08 2.05078e-26)
(8.38969e-05 2.98599e-08 3.09518e-25)
(8.46677e-05 2.60211e-08 -7.40788e-25)
(8.56248e-05 1.78842e-08 6.99709e-25)
(8.67732e-05 3.53445e-09 -1.02385e-24)
(8.816e-05 -2.17535e-08 3.2518e-25)
(8.99192e-05 -7.12848e-08 1.11763e-24)
(9.2396e-05 -1.90223e-07 -3.42209e-25)
(9.64115e-05 -5.40038e-07 -2.80342e-26)
(0.000103948 -1.55586e-06 -4.07894e-25)
(0.00012245 -6.50654e-06 1.90402e-25)
(0.000154459 -3.50388e-05 -1.50121e-25)
(0.00025952 1.60677e-07 -1.93107e-26)
(0.000257699 5.82444e-08 2.40491e-26)
(0.000257449 -2.69322e-08 -2.29992e-25)
(0.000258245 -1.12847e-07 1.6945e-25)
(0.00025983 -2.07502e-07 5.66726e-25)
(0.000262042 -3.19682e-07 -9.08653e-25)
(0.000264819 -4.62758e-07 -2.6831e-25)
(0.000268184 -6.62052e-07 -6.98976e-26)
(0.00027229 -9.76089e-07 2.12983e-24)
(0.000277529 -1.55219e-06 -1.55398e-24)
(0.000284758 -2.77826e-06 1.65717e-25)
(0.000295636 -5.69093e-06 2.48104e-25)
(0.000313126 -1.27848e-05 -3.61866e-25)
(0.000343024 -2.98758e-05 -1.29295e-25)
(0.000380089 -7.09261e-05 4.62835e-25)
(0.000455305 5.38325e-07 -1.56281e-26)
(0.00045191 2.01359e-07 1.58863e-26)
(0.000451267 -7.69168e-08 1.69342e-25)
(0.000452441 -3.52174e-07 -4.06173e-25)
(0.000454972 -6.5157e-07 4.02602e-25)
(0.000458579 -1.00304e-06 3.8882e-25)
(0.000463149 -1.44936e-06 -9.95875e-25)
(0.00046872 -2.06991e-06 -6.23053e-25)
(0.000475529 -3.03692e-06 1.45762e-24)
(0.000484146 -4.73953e-06 5.47534e-25)
(0.00049564 -8.04378e-06 -1.84747e-24)
(0.000511639 -1.47756e-05 -2.87984e-25)
(0.000533956 -2.82749e-05 7.28763e-25)
(0.000563515 -5.35561e-05 1.17547e-24)
(0.000591675 -9.56059e-05 -5.96574e-25)
(0.000672748 1.25371e-06 6.60258e-27)
(0.000667428 5.0302e-07 -4.63265e-26)
(0.000666153 -1.14257e-07 2.09655e-25)
(0.000667533 -7.17717e-07 2.32179e-25)
(0.000670871 -1.36931e-06 -2.20031e-25)
(0.00067575 -2.1299e-06 -1.32228e-24)
(0.000681991 -3.0909e-06 -9.1935e-25)
(0.000689615 -4.41595e-06 3.3317e-24)
(0.000698883 -6.43641e-06 1.38146e-24)
(0.000710364 -9.82729e-06 -1.89739e-24)
(0.000724937 -1.58781e-05 -7.44688e-25)
(0.000743483 -2.67677e-05 -5.57659e-25)
(0.000765999 -4.53993e-05 5.92991e-27)
(0.000790277 -7.40717e-05 3.80812e-25)
(0.000809098 -0.000111516 1.84665e-27)
(0.000913605 2.43899e-06 -1.39931e-26)
(0.000905948 1.04195e-06 -8.65093e-26)
(0.000903742 -1.0191e-07 -5.81044e-26)
(0.000905085 -1.20648e-06 1.46956e-25)
(0.000909013 -2.38773e-06 -4.32637e-25)
(0.000914948 -3.75429e-06 1.06598e-24)
(0.000922616 -5.46275e-06 -1.79794e-25)
(0.000931976 -7.77833e-06 6.56388e-25)
(0.000943208 -1.11951e-05 -3.52422e-24)
(0.000956689 -1.66105e-05 6.49657e-24)
(0.000972805 -2.54857e-05 -6.04194e-24)
(0.000991469 -3.9771e-05 3.06801e-24)
(0.00101135 -6.11827e-05 -2.74296e-24)
(0.00102942 -8.96326e-05 2.47554e-24)
(0.00104126 -0.000121593 -9.53904e-25)
(0.0011795 4.27427e-06 2.15389e-26)
(0.00116906 1.93764e-06 7.79348e-26)
(0.00116556 3.29673e-08 -4.11135e-25)
(0.00116655 -1.78173e-06 -2.7021e-25)
(0.00117076 -3.69859e-06 6.93276e-25)
(0.00117742 -5.88821e-06 2.51374e-25)
(0.00118614 -8.58123e-06 -1.93455e-24)
(0.00119674 -1.21403e-05 4.50049e-24)
(0.00120923 -1.71763e-05 -5.67264e-24)
(0.00122364 -2.46652e-05 1.27432e-24)
(0.00123979 -3.59389e-05 3.8142e-24)
(0.00125684 -5.2338e-05 -5.04898e-24)
(0.00127296 -7.43692e-05 2.34996e-24)
(0.00128563 -0.000100662 2.34851e-24)
(0.00129275 -0.000127659 -1.6955e-24)
(0.00147179 6.99376e-06 2.08949e-26)
(0.0014581 3.35769e-06 -1.23509e-25)
(0.0014529 4.07115e-07 4.44171e-25)
(0.00145314 -2.36336e-06 -6.11876e-25)
(0.00145724 -5.24571e-06 -2.09425e-24)
(0.0014642 -8.48357e-06 3.4632e-24)
(0.00147345 -1.2379e-05 -2.06689e-24)
(0.00148464 -1.73633e-05 6.84354e-24)
(0.00149753 -2.40817e-05 -4.39024e-24)
(0.00151179 -3.34237e-05 -1.96977e-24)
(0.00152676 -4.63759e-05 -3.73013e-24)
(0.00154126 -6.35898e-05 3.14364e-24)
(0.0015536 -8.47417e-05 8.32137e-25)
(0.00156213 -0.000108108 6.84406e-25)
(0.00156618 -0.000130899 -5.66511e-25)
(0.0017913 1.08847e-05 -3.55234e-26)
(0.00177397 5.52354e-06 4.80188e-25)
(0.00176664 1.19142e-06 -1.10894e-24)
(0.00176571 -2.81363e-06 -9.24807e-25)
(0.00176921 -6.90589e-06 3.01649e-25)
(0.00177594 -1.14079e-05 6.14847e-25)
(0.00178509 -1.6678e-05 2.21606e-24)
(0.00179613 -2.31695e-05 -5.81762e-24)
(0.00180853 -3.14697e-05 -3.04319e-24)
(0.00182169 -4.22569e-05 7.52897e-24)
(0.00183469 -5.60985e-05 -2.24745e-24)
(0.00184635 -7.30938e-05 7.05123e-24)
(0.0018554 -9.25293e-05 -3.40484e-24)
(0.00186097 -0.000112851 -1.02511e-24)
(0.00186307 -0.000132125 5.72316e-25)
(0.00213799 1.62728e-05 -5.56989e-27)
(0.00211682 8.7092e-06 3.11505e-25)
(0.00210701 2.61853e-06 -4.32865e-25)
(0.00210445 -2.92338e-06 1.03661e-24)
(0.00210685 -8.47031e-06 -6.01351e-24)
(0.00211275 -1.44236e-05 6.0501e-24)
(0.00212114 -2.11738e-05 -9.24907e-24)
(0.00213125 -2.91459e-05 5.23495e-24)
(0.00214237 -3.87994e-05 3.69466e-24)
(0.00215371 -5.05508e-05 7.61709e-24)
(0.00216432 -6.45989e-05 -9.09803e-24)
(0.00217323 -8.07096e-05 -1.61385e-24)
(0.00217961 -9.81054e-05 6.0737e-25)
(0.0021831 -0.000115596 4.39022e-24)
(0.00218398 -0.000131938 -1.68464e-24)
(0.00251044 2.34765e-05 3.64435e-26)
(0.00248561 1.32195e-05 -1.52892e-25)
(0.00247315 4.97632e-06 6.68195e-25)
(0.00246861 -2.40903e-06 -2.2774e-24)
(0.00246944 -9.63688e-06 3.30585e-24)
(0.00247393 -1.71816e-05 -4.08234e-24)
(0.0024809 -2.54407e-05 6.45095e-24)
(0.00248941 -3.47736e-05 1.13579e-24)
(0.00249862 -4.5484e-05 -7.68873e-24)
(0.00250768 -5.77508e-05 1.0185e-23)
(0.00251578 -7.15219e-05 -1.02278e-23)
(0.00252219 -8.64296e-05 -2.84415e-24)
(0.00252644 -0.000101807 4.44005e-24)
(0.00252843 -0.000116835 1.22416e-24)
(0.00252852 -0.000130755 -5.03496e-25)
(0.00290523 3.27085e-05 1.76322e-25)
(0.00287753 1.93285e-05 -1.38376e-24)
(0.00286261 8.57066e-06 -2.16597e-24)
(0.00285598 -9.35406e-07 4.81405e-24)
(0.00285489 -1.00271e-05 2.09411e-24)
(0.00285754 -1.92412e-05 -1.21963e-23)
(0.00286258 -2.89643e-05 3.35857e-24)
(0.00286899 -3.94766e-05 2.23942e-24)
(0.00287587 -5.09427e-05 -9.3883e-24)
(0.00288246 -6.33754e-05 8.65098e-24)
(0.00288809 -7.65995e-05 -6.56638e-24)
(0.00289229 -9.02502e-05 1.50204e-23)
(0.0028948 -0.000103832 -6.61847e-24)
(0.00289564 -0.000116825 3.56843e-24)
(0.00289513 -0.000128791 -9.18952e-25)
(0.00331619 4.3904e-05 -8.50111e-26)
(0.00328728 2.71551e-05 1.07612e-24)
(0.00327069 1.36345e-05 -1.97443e-24)
(0.00326222 1.81476e-06 -9.74665e-25)
(0.00325921 -9.24657e-06 9.99765e-24)
(0.00325981 -2.0132e-05 -1.20912e-24)
(0.00326266 -3.12102e-05 -1.51444e-23)
(0.00326672 -4.26943e-05 1.61725e-23)
(0.00327115 -5.46557e-05 -3.20145e-24)
(0.00327529 -6.7026e-05 -1.04194e-23)
(0.00327864 -7.96088e-05 1.00903e-23)
(0.00328089 -9.21134e-05 5.05967e-24)
(0.00328193 -0.000104212 -3.69592e-24)
(0.0032818 -0.000115602 -6.01154e-24)
(0.00328077 -0.000126048 4.77703e-25)
(0.00373397 5.64817e-05 7.38732e-27)
(0.00370646 3.64648e-05 -1.34229e-24)
(0.00368969 2.0165e-05 5.94526e-24)
(0.00368023 6.00298e-06 4.24979e-25)
(0.00367572 -7.00842e-06 3.03311e-24)
(0.00367448 -1.94724e-05 -9.52138e-24)
(0.00367524 -3.17401e-05 7.5212e-24)
(0.00367705 -4.39845e-05 1.66713e-24)
(0.00367918 -5.62385e-05 1.2874e-23)
(0.00368111 -6.84243e-05 -1.75009e-23)
(0.00368247 -8.03869e-05 -7.25848e-24)
(0.00368307 -9.19342e-05 -4.44097e-24)
(0.00368286 -0.000102878 7.45059e-24)
(0.00368188 -0.000113061 -2.04812e-25)
(0.00368033 -0.000122372 6.31122e-25)
(0.00414634 6.91324e-05 -1.71478e-26)
(0.00412345 4.64426e-05 1.49244e-24)
(0.00410865 2.77049e-05 -2.00466e-24)
(0.00409962 1.14316e-05 -5.90059e-27)
(0.00409456 -3.32439e-06 2.23796e-24)
(0.00409215 -1.7149e-05 5.22641e-24)
(0.00409135 -3.03761e-05 -1.81379e-23)
(0.00409138 -4.31649e-05 1.22428e-24)
(0.00409167 -5.55535e-05 7.42122e-24)
(0.00409184 -6.74991e-05 -3.17684e-24)
(0.00409164 -7.89155e-05 7.71708e-24)
(0.00409096 -8.97049e-05 4.99077e-24)
(0.00408976 -9.97837e-05 -8.16564e-24)
(0.00408806 -0.000109093 5.18942e-24)
(0.00408605 -0.000117591 -4.07279e-24)
(0.00453991 7.98764e-05 -6.49308e-25)
(0.00452449 5.56048e-05 2.35762e-25)
(0.00451389 3.51828e-05 2.51731e-24)
(0.00450699 1.73522e-05 -1.18152e-23)
(0.00450271 1.29421e-06 9.33649e-24)
(0.00450018 -1.35155e-05 -6.26259e-24)
(0.00449871 -2.73848e-05 3.9407e-24)
(0.00449775 -4.04737e-05 -2.58653e-23)
(0.00449693 -5.28466e-05 3.32398e-23)
(0.00449599 -6.4512e-05 -1.78519e-23)
(0.0044948 -7.54522e-05 1.43899e-23)
(0.00449328 -8.56464e-05 1.11286e-23)
(0.00449144 -9.50837e-05 -1.77269e-23)
(0.00448927 -0.000103766 5.33327e-24)
(0.00448693 -0.000111695 -2.1394e-25)
(0.00490279 8.6687e-05 -2.6117e-26)
(0.00489592 6.21415e-05 -2.60372e-25)
(0.00489087 4.10664e-05 1.89662e-25)
(0.0048874 2.24987e-05 -3.3579e-25)
(0.0048851 5.79713e-06 3.92978e-24)
(0.00488355 -9.46754e-06 -6.04017e-24)
(0.00488239 -2.35652e-05 5.0588e-24)
(0.00488135 -3.6656e-05 -1.44918e-23)
(0.00488024 -4.88314e-05 2.97203e-23)
(0.00487894 -6.01446e-05 -3.4501e-23)
(0.00487738 -7.06314e-05 2.57757e-23)
(0.00487556 -8.03237e-05 -7.96334e-24)
(0.00487348 -8.92564e-05 3.96828e-25)
(0.00487116 -9.74673e-05 1.60485e-24)
(0.00486873 -0.000104982 -2.90544e-24)
(0.00522587 8.85752e-05 -2.34443e-24)
(0.00522619 6.48093e-05 3.813e-24)
(0.00522629 4.40506e-05 -1.16925e-24)
(0.0052264 2.55987e-05 -1.692e-24)
(0.0052265 8.97469e-06 6.23297e-24)
(0.00522649 -6.15653e-06 -5.66717e-24)
(0.00522629 -2.00241e-05 -4.66916e-24)
(0.00522583 -3.27834e-05 -1.02313e-23)
(0.00522507 -4.45433e-05 4.52875e-24)
(0.00522399 -5.53859e-05 2.03665e-23)
(0.00522259 -6.53795e-05 -9.83907e-24)
(0.00522091 -7.4586e-05 5.47962e-24)
(0.00521898 -8.30645e-05 -2.05761e-24)
(0.00521681 -9.08703e-05 -5.8256e-24)
(0.00521452 -9.80398e-05 2.86101e-24)
(0.00549932 8.6187e-05 8.10094e-25)
(0.00550392 6.37591e-05 -1.25906e-24)
(0.00550732 4.39406e-05 -4.00736e-25)
(0.0055099 2.62232e-05 -7.15245e-25)
(0.0055118 1.02395e-05 -1.92866e-24)
(0.00551309 -4.28026e-06 8.72213e-24)
(0.00551382 -1.75356e-05 -6.32182e-24)
(0.00551404 -2.96767e-05 -3.75259e-24)
(0.00551379 -4.08213e-05 3.07909e-24)
(0.00551313 -5.10665e-05 -3.40665e-24)
(0.00551209 -6.04959e-05 7.26624e-24)
(0.00551073 -6.91846e-05 3.48003e-24)
(0.0055091 -7.72004e-05 -1.2078e-23)
(0.00550721 -8.46039e-05 7.87214e-24)
(0.00550518 -9.14339e-05 -1.55129e-24)
(0.00570446 8.10029e-05 2.46508e-24)
(0.00571083 6.02151e-05 3.76835e-24)
(0.00571562 4.16931e-05 -7.38927e-24)
(0.00571923 2.50756e-05 -3.79274e-25)
(0.00572189 1.00717e-05 1.38768e-24)
(0.00572372 -3.54686e-06 -2.76325e-24)
(0.00572485 -1.59593e-05 -4.02641e-24)
(0.00572538 -2.731e-05 7.84177e-24)
(0.00572538 -3.77186e-05 8.11944e-24)
(0.00572492 -4.72869e-05 -1.81594e-23)
(0.00572408 -5.6103e-05 9.73791e-24)
(0.0057229 -6.42439e-05 -6.38561e-25)
(0.00572143 -7.17775e-05 -5.07688e-25)
(0.00571971 -7.87625e-05 6.51084e-25)
(0.0057178 -8.52343e-05 -2.91037e-25)
(0.00580685 7.39037e-05 -6.54181e-24)
(0.00581388 5.51521e-05 -1.25472e-23)
(0.0058191 3.83032e-05 5.98766e-24)
(0.00582294 2.31187e-05 1.80728e-23)
(0.00582568 9.3739e-06 -4.5166e-24)
(0.00582751 -3.12007e-06 -1.03819e-24)
(0.00582857 -1.45197e-05 4.03942e-25)
(0.00582899 -2.49569e-05 -4.10746e-24)
(0.00582887 -3.45445e-05 1.00707e-23)
(0.0058283 -4.33794e-05 -4.09758e-24)
(0.00582734 -5.15446e-05 2.27375e-24)
(0.00582604 -5.91118e-05 -3.3836e-24)
(0.00582444 -6.61423e-05 -3.69661e-24)
(0.0058226 -7.26882e-05 5.29317e-24)
(0.00582054 -7.87781e-05 -2.24928e-24)
(0.00575775 6.52327e-05 1.01641e-23)
(0.0057652 4.89186e-05 -2.07728e-23)
(0.00577066 3.41281e-05 3.1002e-24)
(0.00577459 2.07107e-05 2.38178e-23)
(0.0057773 8.50096e-06 -2.07471e-23)
(0.00577901 -2.64781e-06 6.38586e-24)
(0.00577991 -1.28632e-05 3.22676e-24)
(0.00578014 -2.22574e-05 -6.5706e-24)
(0.0057798 -3.09278e-05 2.18066e-24)
(0.00577899 -3.89576e-05 -5.88995e-26)
(0.00577777 -4.64175e-05 -1.11515e-24)
(0.00577621 -5.33678e-05 1.85908e-24)
(0.00577433 -5.98591e-05 -2.11667e-24)
(0.0057722 -6.59336e-05 1.33964e-24)
(0.0057698 -7.16137e-05 -5.99543e-25)
(0.00555921 5.59582e-05 6.03326e-24)
(0.00556707 4.21308e-05 -1.14248e-23)
(0.00557288 2.94816e-05 -6.96761e-24)
(0.00557706 1.79141e-05 2.98463e-23)
(0.00557993 7.3101e-06 -2.48081e-23)
(0.00558173 -2.43872e-06 2.55656e-24)
(0.00558267 -1.14301e-05 3.44824e-24)
(0.00558289 -1.97521e-05 1.59325e-24)
(0.00558249 -2.74816e-05 8.95201e-25)
(0.00558158 -3.46841e-05 -3.13618e-24)
(0.00558022 -4.14149e-05 1.98954e-24)
(0.00557847 -4.77205e-05 6.43716e-25)
(0.00557637 -5.364e-05 -2.85487e-24)
(0.00557396 -5.92053e-05 1.4066e-24)
(0.00557124 -6.44332e-05 6.31705e-25)
(0.00526281 4.68752e-05 1.43487e-23)
(0.00527102 3.52924e-05 -2.31427e-23)
(0.00527717 2.46073e-05 4.37213e-24)
(0.00528166 1.4756e-05 -9.0907e-24)
(0.00528478 5.6558e-06 -1.04784e-23)
(0.00528678 -2.77102e-06 3.37969e-23)
(0.00528786 -1.05964e-05 -1.19539e-23)
(0.00528815 -1.7886e-05 2.99021e-24)
(0.00528778 -2.4697e-05 -1.48552e-24)
(0.00528683 -3.10783e-05 -2.67234e-24)
(0.00528538 -3.70711e-05 4.28453e-24)
(0.00528347 -4.27094e-05 -1.42787e-24)
(0.00528116 -4.80217e-05 3.35247e-25)
(0.00527848 -5.30305e-05 -3.33788e-25)
(0.00527543 -5.77475e-05 8.94242e-26)
(0.00490597 3.81821e-05 5.28398e-24)
(0.00491428 2.85819e-05 -2.49557e-23)
(0.0049206 1.96606e-05 3.97955e-23)
(0.00492524 1.13737e-05 -2.79932e-23)
(0.0049285 3.66465e-06 2.54983e-23)
(0.00493061 -3.52056e-06 -8.19005e-24)
(0.00493175 -1.02338e-05 -5.19451e-24)
(0.00493205 -1.65228e-05 -5.01222e-24)
(0.00493163 -2.24288e-05 7.6142e-24)
(0.00493058 -2.79869e-05 -9.43278e-25)
(0.00492895 -3.3226e-05 -5.94363e-24)
(0.00492682 -3.81702e-05 -3.1495e-25)
(0.00492421 -4.28388e-05 6.14811e-25)
(0.00492118 -4.72469e-05 1.11818e-26)
(0.00491771 -5.14015e-05 -3.50538e-26)
(0.00451561 3.01769e-05 6.70004e-25)
(0.00452371 2.23163e-05 -9.02945e-24)
(0.0045299 1.49645e-05 -4.52598e-24)
(0.00453446 8.089e-06 3.55076e-23)
(0.00453763 1.65293e-06 -3.26562e-23)
(0.00453965 -4.3798e-06 8.97985e-24)
(0.00454066 -1.00456e-05 1.39499e-24)
(0.00454081 -1.5378e-05 -6.70685e-25)
(0.00454019 -2.04057e-05 -2.78433e-24)
(0.00453888 -2.51524e-05 1.10736e-23)
(0.00453695 -2.96378e-05 -8.33439e-24)
(0.00453445 -3.38777e-05 -1.64875e-25)
(0.00453143 -3.78849e-05 5.0551e-25)
(0.00452792 -4.16685e-05 9.55017e-27)
(0.00452393 -4.52317e-05 4.09813e-26)
(0.00411055 2.31184e-05 9.43485e-25)
(0.00411811 1.6775e-05 8.00291e-24)
(0.00412388 1.08073e-05 -8.73732e-24)
(0.00412807 5.19182e-06 -5.56554e-24)
(0.00413092 -9.33747e-08 3.32555e-23)
(0.00413262 -5.07086e-06 -2.44386e-23)
(0.00413332 -9.76538e-06 -6.14647e-25)
(0.00413313 -1.41996e-05 -4.37378e-24)
(0.00413215 -1.83924e-05 -2.30466e-25)
(0.00413045 -2.23592e-05 6.39799e-25)
(0.00412808 -2.61128e-05 -1.5367e-24)
(0.00412511 -2.96629e-05 1.55749e-24)
(0.00412157 -3.30171e-05 5.96153e-25)
(0.0041175 -3.61808e-05 4.1156e-25)
(0.00411292 -3.91544e-05 6.53318e-26)
(0.00370377 1.71715e-05 6.30134e-24)
(0.00371052 1.21374e-05 -9.18374e-24)
(0.00371561 7.37492e-06 -6.83275e-24)
(0.00371923 2.86774e-06 1.99891e-23)
(0.00372156 -1.39424e-06 -6.92126e-24)
(0.00372278 -5.42389e-06 -8.98429e-24)
(0.00372302 -9.23723e-06 3.10172e-24)
(0.00372237 -1.28488e-05 6.24426e-24)
(0.00372093 -1.62703e-05 -9.28836e-24)
(0.00371874 -1.95114e-05 8.62394e-24)
(0.00371588 -2.25795e-05 -4.21127e-24)
(0.00371239 -2.54803e-05 1.56713e-24)
(0.00370831 -2.82181e-05 -1.4469e-24)
(0.00370367 -3.07954e-05 1.12432e-24)
(0.0036985 -3.32109e-05 -1.338e-25)
(0.00330422 1.23786e-05 -1.13288e-24)
(0.00331001 8.45641e-06 -3.71737e-24)
(0.00331428 4.72461e-06 -1.12382e-23)
(0.0033172 1.17378e-06 3.03861e-23)
(0.00331891 -2.19737e-06 -5.43101e-24)
(0.00331958 -5.39499e-06 -7.89349e-24)
(0.00331929 -8.4289e-06 2.4971e-24)
(0.00331815 -1.13078e-05 -3.5841e-24)
(0.00331621 -1.40385e-05 -6.99564e-24)
(0.00331355 -1.66264e-05 6.68503e-24)
(0.00331022 -1.90756e-05 3.13356e-25)
(0.00330625 -2.13891e-05 -1.50325e-24)
(0.00330168 -2.35688e-05 1.72376e-24)
(0.00329656 -2.56156e-05 3.10417e-26)
(0.0032909 -2.75276e-05 -5.15609e-26)
(0.00291817 8.67108e-06 3.98741e-24)
(0.00292294 5.6746e-06 5.55917e-24)
(0.00292636 2.80641e-06 -5.18074e-24)
(0.00292855 6.33741e-08 -1.06039e-23)
(0.00292964 -2.54953e-06 1.36966e-23)
(0.00292974 -5.03431e-06 -1.44094e-23)
(0.00292896 -7.39661e-06 -3.34382e-25)
(0.00292735 -9.64119e-06 5.25943e-24)
(0.00292499 -1.17716e-05 1.72902e-24)
(0.00292193 -1.37905e-05 -3.1574e-24)
(0.00291821 -1.56998e-05 2.79235e-25)
(0.00291388 -1.75009e-05 5.4758e-24)
(0.00290896 -1.91944e-05 -2.04288e-24)
(0.00290351 -2.07802e-05 -3.91464e-25)
(0.00289753 -2.22561e-05 -1.31366e-26)
(0.00254994 5.90734e-06 -3.74025e-24)
(0.00255374 3.66516e-06 4.70131e-24)
(0.00255635 1.50537e-06 4.90089e-25)
(0.00255786 -5.69845e-07 8.73486e-24)
(0.00255838 -2.55178e-06 -7.09304e-24)
(0.002558 -4.44031e-06 4.54497e-25)
(0.0025568 -6.23846e-06 -7.85203e-25)
(0.00255483 -7.94848e-06 -2.0125e-24)
(0.00255216 -9.57192e-06 1.54716e-24)
(0.00254882 -1.11099e-05 -4.92858e-24)
(0.00254486 -1.2563e-05 5.07665e-25)
(0.00254033 -1.39315e-05 1.15498e-24)
(0.00253524 -1.52154e-05 6.25316e-25)
(0.00252964 -1.64142e-05 2.00629e-25)
(0.00252356 -1.75257e-05 3.63526e-26)
(0.00220242 3.91404e-06 2.47227e-24)
(0.00220534 2.27345e-06 -1.93488e-24)
(0.00220724 6.82842e-07 -8.11289e-24)
(0.00220817 -8.51642e-07 7.51459e-24)
(0.00220823 -2.3199e-06 9.99347e-24)
(0.00220747 -3.72113e-06 -2.68176e-24)
(0.00220597 -5.05682e-06 -5.02072e-24)
(0.00220377 -6.32777e-06 -6.56447e-24)
(0.00220092 -7.53438e-06 4.8357e-24)
(0.00219747 -8.67684e-06 2.21887e-25)
(0.00219344 -9.75507e-06 -9.65382e-25)
(0.00218887 -1.07689e-05 -1.97103e-25)
(0.0021838 -1.17178e-05 4.18997e-25)
(0.00217826 -1.26013e-05 -3.95781e-26)
(0.00217227 -1.34175e-05 -3.99585e-26)
(0.00187735 2.51867e-06 -1.37472e-24)
(0.00187954 1.34789e-06 -9.35872e-25)
(0.00188085 2.05568e-07 1.17137e-24)
(0.00188132 -8.99927e-07 -3.48564e-24)
(0.00188103 -1.95893e-06 1.12876e-23)
(0.00188002 -2.97084e-06 -1.45606e-23)
(0.00187835 -3.93628e-06 1.3895e-23)
(0.00187605 -4.85525e-06 -5.7716e-24)
(0.00187318 -5.72762e-06 1.2041e-24)
(0.00186975 -6.55309e-06 -5.93003e-26)
(0.00186581 -7.33128e-06 -9.18933e-25)
(0.00186139 -8.06174e-06 1.97814e-25)
(0.00185651 -8.74395e-06 -5.54807e-25)
(0.00185121 -9.37732e-06 -4.60844e-26)
(0.00184552 -9.96044e-06 1.72884e-26)
(0.00157559 1.5687e-06 -5.8589e-25)
(0.00157717 7.57233e-07 1.5527e-25)
(0.00157802 -3.89928e-08 3.19479e-25)
(0.00157816 -8.11164e-07 -1.41563e-24)
(0.00157763 -1.55124e-06 -5.93676e-25)
(0.00157649 -2.25917e-06 5.30574e-24)
(0.00157477 -2.93506e-06 -3.08154e-24)
(0.00157251 -3.5786e-06 4.11184e-25)
(0.00156974 -4.1894e-06 -4.03441e-25)
(0.00156648 -4.76702e-06 -3.93922e-25)
(0.00156278 -5.31094e-06 -7.99184e-26)
(0.00155864 -5.8207e-06 6.44286e-25)
(0.00155411 -6.29579e-06 7.00278e-26)
(0.00154922 -6.73568e-06 -3.01796e-25)
(0.00154397 -7.13934e-06 -2.59095e-26)
(0.00129726 9.39491e-07 -1.86101e-25)
(0.00129837 3.96913e-07 -5.78583e-26)
(0.00129888 -1.37718e-07 -2.88414e-24)
(0.00129879 -6.56666e-07 8.02358e-25)
(0.00129814 -1.15406e-06 -1.94272e-24)
(0.00129697 -1.63032e-06 1.4551e-24)
(0.00129532 -2.08532e-06 2.57311e-24)
(0.00129319 -2.51865e-06 1.81609e-24)
(0.00129063 -2.92988e-06 -2.48181e-24)
(0.00128766 -3.31855e-06 7.44479e-25)
(0.0012843 -3.68416e-06 5.59946e-25)
(0.00128058 -4.02631e-06 -7.13614e-25)
(0.00127652 -4.34457e-06 3.74434e-25)
(0.00127214 -4.63848e-06 8.31665e-27)
(0.00126747 -4.90737e-06 4.29448e-26)
(0.00104195 5.34771e-07 -6.36158e-25)
(0.00104271 1.88563e-07 -8.48459e-25)
(0.00104297 -1.53116e-07 -1.30186e-25)
(0.00104275 -4.84657e-07 2.082e-24)
(0.00104207 -8.02345e-07 -1.43116e-24)
(0.00104096 -1.10686e-06 -2.46833e-25)
(0.00103945 -1.39795e-06 2.20578e-24)
(0.00103756 -1.67528e-06 -2.62201e-26)
(0.0010353 -1.93845e-06 -4.45827e-25)
(0.0010327 -2.18705e-06 -1.42874e-24)
(0.00102977 -2.42069e-06 2.18564e-25)
(0.00102655 -2.63905e-06 8.66446e-25)
(0.00102304 -2.8418e-06 -1.0755e-25)
(0.00101927 -3.02858e-06 -6.20007e-26)
(0.00101526 -3.19892e-06 3.30169e-26)
(0.000808862 2.83225e-07 -1.21653e-25)
(0.000809348 7.6089e-08 8.77248e-27)
(0.000809451 -1.27669e-07 8.82996e-25)
(0.000809172 -3.25031e-07 5.65789e-25)
(0.000808534 -5.14071e-07 -4.17013e-25)
(0.000807556 -6.95476e-07 -9.64813e-25)
(0.000806255 -8.69001e-07 3.7197e-25)
(0.000804647 -1.03438e-06 -1.51721e-24)
(0.00080275 -1.19131e-06 1.15987e-24)
(0.000800579 -1.33949e-06 5.371e-25)
(0.000798151 -1.47863e-06 -4.44649e-26)
(0.000795482 -1.60853e-06 -5.30328e-25)
(0.000792588 -1.72893e-06 7.88641e-26)
(0.000789488 -1.83957e-06 -4.06614e-26)
(0.000786195 -1.94013e-06 1.48133e-26)
(0.000596899 1.3372e-07 -1.97061e-25)
(0.000597192 2.0846e-08 6.68813e-27)
(0.0005972 -8.87077e-08 6.25569e-25)
(0.000596921 -1.94384e-07 -3.89695e-25)
(0.000596375 -2.95515e-07 1.54014e-24)
(0.000595572 -3.92628e-07 -2.778e-24)
(0.000594527 -4.85538e-07 2.20315e-24)
(0.00059325 -5.7408e-07 -1.78263e-24)
(0.000591753 -6.58063e-07 1.23364e-24)
(0.00059005 -7.37304e-07 -7.51701e-25)
(0.000588152 -8.11624e-07 2.52094e-25)
(0.000586072 -8.80896e-07 3.32797e-26)
(0.000583822 -9.44987e-07 3.68568e-26)
(0.000581417 -1.0037e-06 -4.12495e-26)
(0.000578867 -1.05676e-06 5.34608e-27)
(0.000404804 5.11726e-08 2.65163e-25)
(0.000404959 -1.42196e-09 2.78882e-25)
(0.000404921 -5.07276e-08 -1.1971e-24)
(0.000404685 -9.79424e-08 8.65294e-25)
(0.000404266 -1.43073e-07 -1.24353e-26)
(0.000403671 -1.86408e-07 2.05685e-25)
(0.000402908 -2.27841e-07 -2.61464e-25)
(0.000401986 -2.67289e-07 -5.09778e-25)
(0.000400911 -3.04656e-07 4.94553e-25)
(0.000399693 -3.39853e-07 3.934e-26)
(0.000398341 -3.72796e-07 -3.44066e-25)
(0.000396862 -4.03425e-07 1.24967e-25)
(0.000395266 -4.31688e-07 5.87079e-26)
(0.000393563 -4.5746e-07 -8.13856e-27)
(0.00039176 -4.80494e-07 -3.15583e-27)
(0.000231215 1.34938e-08 -2.39612e-25)
(0.000231276 -1.60744e-09 7.25807e-25)
(0.000231226 -1.49228e-08 4.16795e-25)
(0.000231063 -2.8127e-08 -7.65958e-25)
(0.000230795 -4.12822e-08 -8.89281e-26)
(0.000230425 -5.43676e-08 -7.60982e-26)
(0.000229959 -6.72462e-08 2.22739e-25)
(0.0002294 -7.98077e-08 -3.68411e-25)
(0.000228753 -9.19522e-08 4.77525e-25)
(0.000228023 -1.03594e-07 -2.34473e-25)
(0.000227215 -1.1466e-07 -1.34843e-25)
(0.000226334 -1.25092e-07 7.58859e-26)
(0.000225384 -1.34847e-07 -6.65926e-26)
(0.000224373 -1.43837e-07 5.91632e-26)
(0.000223304 -1.51829e-07 -6.0535e-27)
(7.47376e-05 7.25161e-09 -1.34761e-27)
(7.47344e-05 1.86654e-08 1.1061e-25)
(7.46969e-05 2.74811e-08 1.22889e-25)
(7.46243e-05 3.31029e-08 -1.95988e-25)
(7.45194e-05 3.59521e-08 3.89276e-25)
(7.43827e-05 3.65215e-08 -4.22998e-25)
(7.42155e-05 3.52256e-08 2.62152e-26)
(7.4019e-05 3.24282e-08 2.11812e-25)
(7.37943e-05 2.84423e-08 -2.91757e-25)
(7.35431e-05 2.35374e-08 -4.44948e-26)
(7.32667e-05 1.79423e-08 1.74195e-25)
(7.29667e-05 1.18552e-08 -7.3874e-26)
(7.26449e-05 5.4324e-09 -1.93453e-26)
(7.23031e-05 -1.167e-09 1.49714e-26)
(7.19429e-05 -7.71875e-09 -3.60008e-28)
(0.00023908 -0.000114625 2.18297e-26)
(0.000275558 -0.000114251 5.88959e-25)
(0.000335322 -0.000102783 -1.73626e-24)
(0.000398525 -8.95837e-05 2.58213e-24)
(0.00046211 -7.65446e-05 -9.85169e-25)
(0.000526375 -6.44971e-05 -9.54398e-25)
(0.000591422 -5.37537e-05 1.0866e-24)
(0.000657417 -4.44679e-05 -2.12509e-24)
(0.000724523 -3.67198e-05 1.65468e-25)
(0.000792864 -3.05442e-05 1.32101e-24)
(0.000862533 -2.59432e-05 -2.44472e-25)
(0.000933585 -2.28919e-05 2.58661e-25)
(0.00100604 -2.13389e-05 -2.74307e-26)
(0.00107989 -2.12058e-05 1.51303e-25)
(0.00115509 -2.23846e-05 -5.57402e-25)
(0.00123155 -2.47374e-05 3.03626e-25)
(0.00130916 -2.81004e-05 -9.08203e-26)
(0.00138772 -3.23007e-05 8.95444e-27)
(0.00146699 -3.71887e-05 2.00602e-25)
(0.00154647 -4.27035e-05 -1.23472e-25)
(0.00162537 -4.89663e-05 1.29714e-26)
(0.00170199 -5.6372e-05 -1.06971e-26)
(0.00176798 -6.50225e-05 1.54082e-26)
(0.00181588 -7.42687e-05 4.68697e-26)
(0.00184581 -8.32262e-05 -8.49405e-26)
(0.00185961 -9.07945e-05 -3.87388e-26)
(0.00185891 -9.56468e-05 1.39817e-26)
(0.00184534 -9.63709e-05 7.45411e-26)
(0.00182046 -9.15596e-05 3.3281e-26)
(0.00178584 -7.98528e-05 -5.72417e-26)
(0.00174295 -5.99383e-05 -9.37056e-26)
(0.00169321 -3.05414e-05 1.83555e-25)
(0.0016379 9.55976e-06 -9.23929e-26)
(0.0015781 6.14383e-05 -2.10198e-25)
(0.00151465 0.000125804 2.07677e-25)
(0.001448 0.000202663 7.45656e-25)
(0.00137813 0.000290881 -3.02756e-25)
(0.00130454 0.000387725 4.47635e-26)
(0.00122628 0.000488474 -3.89907e-26)
(0.00114211 0.00058617 -6.01882e-25)
(0.00105083 0.000671468 -5.77483e-27)
(0.00095171 0.000732351 1.34335e-25)
(0.000844733 0.000753079 -1.34763e-26)
(0.000735176 0.000712137 -1.32892e-25)
(0.000670759 0.000566465 -7.35661e-28)
(0.000415498 -0.000134209 -6.58345e-25)
(0.000433771 -0.000143727 -1.021e-24)
(0.000472188 -0.000134972 2.10511e-24)
(0.000520775 -0.000120929 1.0374e-24)
(0.000574642 -0.000105836 -3.68927e-24)
(0.000632026 -9.14973e-05 4.00441e-24)
(0.000691919 -7.8561e-05 -1.45791e-24)
(0.000753849 -6.72629e-05 1.13725e-24)
(0.000817608 -5.76862e-05 -1.52269e-24)
(0.000883096 -4.98457e-05 2.13522e-26)
(0.00095026 -4.37198e-05 -7.65818e-25)
(0.00101906 -3.92612e-05 1.5194e-24)
(0.00108947 -3.64e-05 -8.2821e-25)
(0.00116141 -3.50427e-05 -7.1428e-25)
(0.00123483 -3.50695e-05 -4.53819e-25)
(0.0013096 -3.63337e-05 9.05384e-25)
(0.0013856 -3.86645e-05 -9.92339e-26)
(0.00146261 -4.18826e-05 4.48447e-25)
(0.00154037 -4.58276e-05 5.95937e-26)
(0.00161837 -5.04208e-05 -1.29226e-25)
(0.00169581 -5.57444e-05 -4.82625e-26)
(0.00177098 -6.21279e-05 -2.22131e-26)
(0.0018357 -6.96372e-05 9.46079e-26)
(0.00188268 -7.76324e-05 8.18934e-26)
(0.00191208 -8.52331e-05 -9.84337e-26)
(0.00192573 -9.13413e-05 -2.99443e-25)
(0.00192528 -9.46526e-05 3.51644e-25)
(0.00191235 -9.37881e-05 -1.88893e-25)
(0.00188853 -8.73772e-05 5.73193e-26)
(0.00185541 -7.40967e-05 1.00089e-26)
(0.00181451 -5.26693e-05 -1.66473e-25)
(0.0017673 -2.18485e-05 4.48749e-25)
(0.00171517 1.95777e-05 -5.33456e-25)
(0.00165937 7.27115e-05 1.26845e-24)
(0.00160096 0.000138361 -1.68806e-24)
(0.00154075 0.000216734 4.27647e-25)
(0.00147919 0.000307017 1.13013e-24)
(0.00141643 0.000406894 -4.1802e-25)
(0.00135237 0.000512083 -6.60339e-25)
(0.00128698 0.000615937 -2.13095e-25)
(0.00122079 0.000709016 4.43883e-25)
(0.00115566 0.00077833 -1.58377e-25)
(0.00109541 0.00080561 3.46034e-25)
(0.00104595 0.000764862 -2.10022e-26)
(0.0010179 0.000617344 -3.26368e-25)
(0.000608292 -0.000143336 -7.70439e-27)
(0.000616707 -0.000160326 -1.2044e-24)
(0.000638161 -0.000158525 2.37636e-24)
(0.000671478 -0.00014765 2.10634e-24)
(0.000713378 -0.000133174 -3.49859e-24)
(0.000761525 -0.000118111 7.43015e-26)
(0.00081421 -0.000103859 3.54184e-25)
(0.000870373 -9.1027e-05 3.82847e-24)
(0.00092938 -7.98703e-05 -4.58934e-24)
(0.000990842 -7.048e-05 2.77413e-24)
(0.00105451 -6.28648e-05 7.78026e-25)
(0.00112022 -5.69872e-05 -4.5109e-24)
(0.00118782 -5.27776e-05 1.63177e-24)
(0.0012572 -5.0139e-05 6.29137e-25)
(0.00132824 -4.89473e-05 -1.27764e-24)
(0.00140079 -4.90513e-05 2.04811e-24)
(0.00147468 -5.02756e-05 -1.42457e-24)
(0.00154969 -5.24351e-05 -1.41801e-26)
(0.00162552 -5.53588e-05 1.1747e-25)
(0.00170164 -5.89484e-05 1.15644e-25)
(0.00177723 -6.32446e-05 2.0922e-26)
(0.0018506 -6.8508e-05 5.24311e-26)
(0.00191375 -7.47693e-05 -1.02177e-25)
(0.00195959 -8.14017e-05 2.78222e-25)
(0.00198831 -8.75279e-05 -3.73109e-25)
(0.00200173 -9.20495e-05 2.01923e-25)
(0.00200149 -9.36823e-05 -3.0141e-25)
(0.00198924 -9.10797e-05 3.94002e-25)
(0.00196659 -8.29086e-05 -1.75838e-25)
(0.00193513 -6.78864e-05 1.36752e-25)
(0.00189645 -4.47783e-05 2.01851e-25)
(0.00185208 -1.23801e-05 -5.06434e-25)
(0.00180352 3.04833e-05 2.26934e-25)
(0.00175219 8.48971e-05 6.59032e-25)
(0.00169943 0.000151698 -1.42213e-24)
(0.00164642 0.000231192 1.88087e-24)
(0.00159415 0.000322739 -1.12421e-24)
(0.00154345 0.000424243 1.03386e-24)
(0.00149514 0.000531588 -1.65643e-24)
(0.00145027 0.000638044 5.72477e-25)
(0.00141053 0.000733569 9.00153e-26)
(0.00137849 0.000803837 -2.10419e-25)
(0.00135684 0.000829109 2.88108e-25)
(0.001345 0.000784943 -3.88932e-25)
(0.0013329 0.000649663 3.27111e-25)
(0.000817625 -0.000148515 -2.84303e-25)
(0.000820761 -0.000168868 -5.08727e-25)
(0.000830757 -0.000173767 -2.3349e-24)
(0.00085083 -0.00016812 5.64713e-25)
(0.000880387 -0.000156596 4.05226e-25)
(0.000917891 -0.000142652 1.97085e-24)
(0.000961684 -0.000128353 -4.24214e-24)
(0.00101044 -0.000114812 1.68237e-24)
(0.00106321 -0.000102596 5.51711e-24)
(0.00111934 -9.19774e-05 -1.52073e-24)
(0.00117836 -8.30631e-05 -1.38886e-24)
(0.00123995 -7.58698e-05 -2.16426e-25)
(0.00130386 -7.03569e-05 6.90285e-25)
(0.00136987 -6.64427e-05 -1.34208e-24)
(0.0014378 -6.40105e-05 3.17633e-25)
(0.00150746 -6.29128e-05 -9.93704e-26)
(0.00157864 -6.2975e-05 -6.04496e-25)
(0.00165107 -6.40095e-05 2.56428e-25)
(0.00172443 -6.58365e-05 1.02156e-24)
(0.00179818 -6.83387e-05 -1.36162e-25)
(0.00187145 -7.15131e-05 -2.09892e-25)
(0.00194257 -7.55478e-05 -4.58907e-26)
(0.00200377 -8.04386e-05 -2.02159e-25)
(0.00204818 -8.55783e-05 2.86354e-26)
(0.00207601 -9.00968e-05 -3.14317e-25)
(0.00208908 -9.28983e-05 6.07474e-25)
(0.00208903 -9.27234e-05 -3.48223e-25)