/*--------------------------------*- C++ -*----------------------------------*\
| =========                 |                                                 |
| \\      /  F ield         | OpenFOAM: The Open Source CFD Toolbox           |
|  \\    /   O peration     | Version:  2312                                  |
|   \\  /    A nd           | Website:  www.openfoam.com                      |
|    \\/     M anipulation  |                                                 |
\*---------------------------------------------------------------------------*/
FoamFile
{
    version     2.0;
    format      ascii;
    arch        "LSB;label=32;scalar=64";
    class       volScalarField;
    location    "500";
    object      p;
}
// * * * * * * * * * * * * * * * * * * * * * * * * * * * * * * * * * * * * * //

dimensions      [0 2 -2 0 0 0 0];

internalField   nonuniform List<scalar> 
4800
(
2.64876e-12
-1.3819e-06
-2.53668e-06
-3.51264e-06
-4.34969e-06
-5.07515e-06
-5.70954e-06
-6.26901e-06
-6.76671e-06
-7.21347e-06
-7.61881e-06
-7.99656e-06
-8.37735e-06
-8.83242e-06
-1.01587e-05
1.28896e-08
-1.36629e-06
-2.5192e-06
-3.49416e-06
-4.33101e-06
-5.05712e-06
-5.69314e-06
-6.25552e-06
-6.75803e-06
-7.21291e-06
-7.63239e-06
-8.03241e-06
-8.43933e-06
-8.91748e-06
-9.78402e-06
2.86381e-08
-1.34765e-06
-2.49861e-06
-3.47249e-06
-4.30914e-06
-5.03595e-06
-5.67366e-06
-6.23898e-06
-6.74615e-06
-7.20827e-06
-7.63878e-06
-8.05274e-06
-8.46539e-06
-8.88106e-06
-9.31997e-06
4.55564e-08
-1.32735e-06
-2.47597e-06
-3.44839e-06
-4.28437e-06
-5.01129e-06
-5.64984e-06
-6.21667e-06
-6.72583e-06
-7.18975e-06
-7.61952e-06
-8.02284e-06
-8.39677e-06
-8.71044e-06
-8.91002e-06
6.44273e-08
-1.3043e-06
-2.44991e-06
-3.42014e-06
-4.25466e-06
-4.98068e-06
-5.6186e-06
-6.18453e-06
-6.69151e-06
-7.14972e-06
-7.56549e-06
-7.93744e-06
-8.24984e-06
-8.46542e-06
-8.53527e-06
8.65973e-08
-1.27695e-06
-2.41865e-06
-3.38575e-06
-4.21763e-06
-4.94121e-06
-5.57623e-06
-6.13778e-06
-6.637e-06
-7.08086e-06
-7.47046e-06
-7.79808e-06
-8.04446e-06
-8.18088e-06
-8.18046e-06
1.14076e-07
-1.24316e-06
-2.37981e-06
-3.3425e-06
-4.17009e-06
-4.88899e-06
-5.51792e-06
-6.07043e-06
-6.55529e-06
-6.97614e-06
-7.33035e-06
-7.60821e-06
-7.79424e-06
-7.8731e-06
-7.83713e-06
1.50138e-07
-1.19954e-06
-2.32964e-06
-3.28627e-06
-4.10736e-06
-4.81856e-06
-5.43729e-06
-5.97527e-06
-6.43898e-06
-6.82967e-06
-7.1435e-06
-7.3728e-06
-7.50933e-06
-7.54986e-06
-7.49837e-06
1.99811e-07
-1.14095e-06
-2.26262e-06
-3.2111e-06
-4.02291e-06
-4.72269e-06
-5.32646e-06
-5.84424e-06
-6.28093e-06
-6.63707e-06
-6.9101e-06
-7.09677e-06
-7.19626e-06
-7.21367e-06
-7.15816e-06
2.70046e-07
-1.06035e-06
-2.17123e-06
-3.10897e-06
-3.90821e-06
-4.5924e-06
-5.17634e-06
-5.66897e-06
-6.0748e-06
-6.39534e-06
-6.63102e-06
-6.78352e-06
-6.85773e-06
-6.86333e-06
-6.81066e-06
3.69295e-07
-9.49038e-07
-2.04624e-06
-2.97004e-06
-3.75307e-06
-4.41747e-06
-4.97739e-06
-5.44155e-06
-5.81533e-06
-6.10244e-06
-6.30686e-06
-6.43437e-06
-6.4934e-06
-6.4954e-06
-6.44996e-06
5.06518e-07
-7.97428e-07
-1.87759e-06
-2.78366e-06
-3.54664e-06
-4.18759e-06
-4.72061e-06
-5.15523e-06
-5.49854e-06
-5.75696e-06
-5.93754e-06
-6.04885e-06
-6.10092e-06
-6.10531e-06
-6.07012e-06
6.90401e-07
-5.95699e-07
-1.65501e-06
-2.5393e-06
-3.27867e-06
-3.89354e-06
-4.39863e-06
-4.80499e-06
-5.12179e-06
-5.35781e-06
-5.52227e-06
-5.62517e-06
-5.67684e-06
-5.68809e-06
-5.66547e-06
9.29229e-07
-3.33808e-07
-1.36784e-06
-2.2264e-06
-2.93945e-06
-3.52725e-06
-4.00551e-06
-4.38701e-06
-4.68285e-06
-4.90348e-06
-5.05922e-06
-5.16046e-06
-5.21703e-06
-5.2387e-06
-5.23064e-06
1.23102e-06
-1.59095e-09
-1.005e-06
-1.83415e-06
-2.51929e-06
-3.08075e-06
-3.53518e-06
-3.89685e-06
-4.17818e-06
-4.3905e-06
-4.54439e-06
-4.64988e-06
-4.71597e-06
-4.75134e-06
-4.76003e-06
1.60341e-06
4.10767e-07
-5.5599e-07
-1.35247e-06
-2.00919e-06
-2.54645e-06
-2.9814e-06
-3.32915e-06
-3.60274e-06
-3.81364e-06
-3.97208e-06
-4.08734e-06
-4.16745e-06
-4.22005e-06
-4.24839e-06
2.05188e-06
9.10882e-07
-1.2841e-08
-7.73963e-07
-1.40271e-06
-1.91887e-06
-2.33944e-06
-2.67957e-06
-2.9522e-06
-3.16833e-06
-3.33748e-06
-3.468e-06
-3.56693e-06
-3.64096e-06
-3.69283e-06
2.57692e-06
1.50095e-06
6.26708e-07
-9.68873e-08
-6.98609e-07
-1.19715e-06
-1.60862e-06
-1.9474e-06
-2.22567e-06
-2.45354e-06
-2.63956e-06
-2.79105e-06
-2.91413e-06
-3.01455e-06
-3.09482e-06
3.1715e-06
2.17437e-06
1.35553e-06
6.71152e-07
9.54971e-08
-3.88538e-07
-7.9558e-07
-1.13858e-06
-1.4284e-06
-1.67395e-06
-1.88269e-06
-2.06089e-06
-2.21373e-06
-2.34599e-06
-2.46022e-06
3.81948e-06
2.91349e-06
2.15433e-06
1.5099e-06
9.5931e-07
4.87249e-07
8.07974e-08
-2.71017e-07
-5.77243e-07
-8.45352e-07
-1.08163e-06
-1.29136e-06
-1.47891e-06
-1.64801e-06
-1.80149e-06
4.45036e-06
3.6383e-06
2.93759e-06
2.33092e-06
1.80346e-06
1.34154e-06
9.33788e-07
5.71338e-07
2.47071e-07
-4.49695e-08
-3.09875e-07
-5.51968e-07
-7.74916e-07
-9.81601e-07
-1.17526e-06
4.96174e-06
4.22973e-06
3.57893e-06
3.00451e-06
2.4969e-06
2.04388e-06
1.63549e-06
1.26476e-06
9.26244e-07
6.1522e-07
3.27596e-07
5.99266e-08
-1.90803e-07
-4.2686e-07
-6.51363e-07
5.33534e-06
4.66682e-06
4.05749e-06
3.51063e-06
3.02041e-06
2.57598e-06
2.16871e-06
1.79308e-06
1.44494e-06
1.12051e-06
8.16425e-07
5.29873e-07
2.58362e-07
6.8879e-11
-2.47761e-07
5.6022e-06
4.98385e-06
4.40918e-06
3.88602e-06
3.41096e-06
2.9745e-06
2.56924e-06
2.19084e-06
1.83605e-06
1.50182e-06
1.18538e-06
8.84385e-07
5.96802e-07
3.21138e-07
5.50578e-08
5.78906e-06
5.2103e-06
4.66464e-06
4.16185e-06
3.6999e-06
3.27058e-06
2.86766e-06
2.48769e-06
2.1281e-06
1.78639e-06
1.46028e-06
1.14783e-06
8.47374e-07
5.57686e-07
2.76823e-07
5.91801e-06
5.3707e-06
4.84937e-06
4.36398e-06
3.91319e-06
3.48998e-06
3.08921e-06
2.70816e-06
2.34477e-06
1.99699e-06
1.66293e-06
1.34102e-06
1.02991e-06
7.28565e-07
4.35412e-07
6.006e-06
5.48394e-06
4.98298e-06
4.51229e-06
4.07079e-06
3.65258e-06
3.25354e-06
2.87153e-06
2.50489e-06
2.15192e-06
1.81111e-06
1.48117e-06
1.16102e-06
8.49818e-07
5.4628e-07
6.06559e-06
5.56403e-06
5.08011e-06
4.62173e-06
4.18784e-06
3.7736e-06
3.37582e-06
2.99281e-06
2.62322e-06
2.26569e-06
1.91898e-06
1.58211e-06
1.25417e-06
9.34524e-07
6.22113e-07
6.10586e-06
5.62116e-06
5.15148e-06
4.7033e-06
4.27558e-06
3.86444e-06
3.46746e-06
3.08336e-06
2.71104e-06
2.34941e-06
1.99751e-06
1.65456e-06
1.31988e-06
9.92924e-07
6.72876e-07
6.1332e-06
5.66255e-06
5.20475e-06
4.765e-06
4.34223e-06
3.93348e-06
3.53696e-06
3.1517e-06
2.77682e-06
2.41149e-06
2.05498e-06
1.7067e-06
1.3661e-06
1.0328e-06
7.06143e-07
6.15203e-06
5.69322e-06
5.24536e-06
4.81254e-06
4.39377e-06
3.98684e-06
3.59051e-06
3.20405e-06
2.82681e-06
2.45814e-06
2.09752e-06
1.74452e-06
1.39874e-06
1.0599e-06
7.27484e-07
6.16539e-06
5.71664e-06
5.2771e-06
4.84998e-06
4.43443e-06
4.02891e-06
3.63259e-06
3.24495e-06
2.86551e-06
2.49383e-06
2.12955e-06
1.77237e-06
1.42202e-06
1.07832e-06
7.40869e-07
6.17524e-06
5.73511e-06
5.30256e-06
4.88015e-06
4.46724e-06
4.06281e-06
3.66637e-06
3.27758e-06
2.89612e-06
2.52174e-06
2.15419e-06
1.79331e-06
1.43891e-06
1.09092e-06
7.49044e-07
6.18287e-06
5.75018e-06
5.32351e-06
4.90502e-06
4.49428e-06
4.09072e-06
3.69408e-06
3.30419e-06
2.9209e-06
2.54407e-06
2.1736e-06
1.80942e-06
1.45144e-06
1.09965e-06
7.5386e-07
6.18906e-06
5.76282e-06
5.34114e-06
4.92593e-06
4.51701e-06
4.11413e-06
3.71724e-06
3.32633e-06
2.94136e-06
2.56233e-06
2.18925e-06
1.82212e-06
1.46095e-06
1.10579e-06
7.56534e-07
6.1943e-06
5.77367e-06
5.35623e-06
4.9438e-06
4.53641e-06
4.13407e-06
3.73691e-06
3.34503e-06
2.95854e-06
2.57754e-06
2.20211e-06
1.83236e-06
1.46835e-06
1.1102e-06
7.57853e-07
6.19886e-06
5.78313e-06
5.36932e-06
4.95926e-06
4.55315e-06
4.15125e-06
3.7538e-06
3.36103e-06
2.97316e-06
2.59038e-06
2.21286e-06
1.84076e-06
1.47422e-06
1.1134e-06
7.58313e-07
6.20297e-06
5.79158e-06
5.38093e-06
4.9729e-06
4.56791e-06
4.16635e-06
3.7686e-06
3.37501e-06
2.98587e-06
2.60146e-06
2.22204e-06
1.84782e-06
1.479e-06
1.11578e-06
7.58213e-07
6.2068e-06
5.79944e-06
5.39165e-06
4.98548e-06
4.58148e-06
4.18021e-06
3.78216e-06
3.38777e-06
2.99743e-06
2.6115e-06
2.23029e-06
1.85409e-06
1.48312e-06
1.11766e-06
7.57777e-07
6.21008e-06
5.80627e-06
5.40102e-06
4.99647e-06
4.59338e-06
4.19238e-06
3.79408e-06
3.399e-06
3.00761e-06
2.62033e-06
2.23755e-06
1.8596e-06
1.48676e-06
1.11931e-06
7.57385e-07
-1.17342e-05
-9.61939e-06
-8.19983e-06
-7.2702e-06
-6.54314e-06
-5.97892e-06
-5.53765e-06
-5.18794e-06
-4.90937e-06
-4.68647e-06
-4.50688e-06
-4.36047e-06
-4.23891e-06
-4.13573e-06
-4.04692e-06
-3.9722e-06
-3.9171e-06
-3.89595e-06
-3.93558e-06
-4.07758e-06
-4.37577e-06
-4.87901e-06
-5.53667e-06
-6.15148e-06
-6.57881e-06
-6.7472e-06
-6.6209e-06
-6.18798e-06
-5.44905e-06
-4.41211e-06
-3.0921e-06
-1.51147e-06
2.98789e-07
2.29916e-06
4.44249e-06
6.67544e-06
8.93965e-06
1.11717e-05
1.33011e-05
1.52431e-05
1.6887e-05
1.80668e-05
1.84859e-05
1.7614e-05
1.4266e-05
-1.02963e-05
-9.09481e-06
-8.01261e-06
-7.18267e-06
-6.49586e-06
-5.94532e-06
-5.50851e-06
-5.1604e-06
-4.8827e-06
-4.66074e-06
-4.4824e-06
-4.33756e-06
-4.2179e-06
-4.11696e-06
-4.03077e-06
-3.95911e-06
-3.90751e-06
-3.89015e-06
-3.93341e-06
-4.07791e-06
-4.37596e-06
-4.87467e-06
-5.52316e-06
-6.12723e-06
-6.54495e-06
-6.706e-06
-6.57502e-06
-6.14005e-06
-5.4019e-06
-4.36916e-06
-3.05781e-06
-1.49171e-06
2.96426e-07
2.2649e-06
4.36378e-06
6.53582e-06
8.71696e-06
1.08349e-05
1.28042e-05
1.45139e-05
1.58044e-05
1.64097e-05
1.58558e-05
1.3283e-05
7.92154e-06
-9.40657e-06
-8.65728e-06
-7.80836e-06
-7.07108e-06
-6.43287e-06
-5.9034e-06
-5.47506e-06
-5.13062e-06
-4.85478e-06
-4.63421e-06
-4.45727e-06
-4.31406e-06
-4.19631e-06
-4.09765e-06
-4.01417e-06
-3.94574e-06
-3.89789e-06
-3.88468e-06
-3.93195e-06
-4.07924e-06
-4.37708e-06
-4.8705e-06
-5.50825e-06
-6.0996e-06
-6.50575e-06
-6.65782e-06
-6.52101e-06
-6.08348e-06
-5.34642e-06
-4.31935e-06
-3.01965e-06
-1.47315e-06
2.85e-07
2.21011e-06
4.24841e-06
6.33755e-06
8.40624e-06
1.03717e-05
1.2133e-05
1.3557e-05
1.44542e-05
1.45325e-05
1.33631e-05
1.03973e-05
5.51673e-06
-8.83346e-06
-8.3054e-06
-7.62034e-06
-6.96416e-06
-6.37293e-06
-5.86602e-06
-5.44678e-06
-5.1057e-06
-4.83092e-06
-4.61076e-06
-4.43432e-06
-4.29198e-06
-4.17559e-06
-4.07883e-06
-3.9979e-06
-3.9327e-06
-3.88877e-06
-3.87996e-06
-3.93151e-06
-4.08175e-06
-4.37923e-06
-4.86659e-06
-5.49208e-06
-6.0688e-06
-6.46139e-06
-6.60263e-06
-6.45845e-06
-6.01736e-06
-5.28119e-06
-4.26076e-06
-2.97534e-06
-1.45327e-06
2.67205e-07
2.13768e-06
4.0998e-06
6.08535e-06
8.01541e-06
9.79733e-06
1.13179e-05
1.24332e-05
1.29509e-05
1.26164e-05
1.11349e-05
8.26428e-06
4.14598e-06
-8.39937e-06
-7.99828e-06
-7.44421e-06
-6.86631e-06
-6.32138e-06
-5.83801e-06
-5.42808e-06
-5.08948e-06
-4.81432e-06
-4.59296e-06
-4.41552e-06
-4.27281e-06
-4.15684e-06
-4.06137e-06
-3.98266e-06
-3.92064e-06
-3.88079e-06
-3.8767e-06
-3.93286e-06
-4.08619e-06
-4.38298e-06
-4.8632e-06
-5.47451e-06
-6.03446e-06
-6.41152e-06
-6.54036e-06
-6.38795e-06
-5.94338e-06
-5.20941e-06
-4.19849e-06
-2.93222e-06
-1.44189e-06
2.30711e-07
2.03302e-06
3.90179e-06
5.76306e-06
7.53126e-06
9.10671e-06
1.03712e-05
1.1184e-05
1.13759e-05
1.07607e-05
9.17783e-06
6.58168e-06
3.21247e-06
-8.03149e-06
-7.71528e-06
-7.26921e-06
-6.76993e-06
-6.27472e-06
-5.81863e-06
-5.42023e-06
-5.08436e-06
-4.80781e-06
-4.58366e-06
-4.40349e-06
-4.25881e-06
-4.14198e-06
-4.04688e-06
-3.96983e-06
-3.91076e-06
-3.87506e-06
-3.87591e-06
-3.93694e-06
-4.0934e-06
-4.38902e-06
-4.86068e-06
-5.45549e-06
-5.99619e-06
-6.35554e-06
-6.47046e-06
-6.30924e-06
-5.86186e-06
-5.13236e-06
-4.13515e-06
-2.89454e-06
-1.44517e-06
1.67328e-07
1.88614e-06
3.6434e-06
5.3604e-06
6.94726e-06
8.30215e-06
9.31077e-06
9.8484e-06
9.78477e-06
9.0072e-06
7.4603e-06
5.20526e-06
2.48701e-06
-7.69504e-06
-7.44176e-06
-7.08454e-06
-6.66287e-06
-6.22306e-06
-5.80108e-06
-5.41966e-06
-5.08946e-06
-4.8123e-06
-4.58473e-06
-4.40051e-06
-4.25236e-06
-4.13325e-06
-4.03739e-06
-3.96122e-06
-3.9047e-06
-3.87304e-06
-3.87894e-06
-3.94496e-06
-4.10442e-06
-4.39812e-06
-4.85948e-06
-5.43505e-06
-5.95365e-06
-6.29288e-06
-6.39226e-06
-6.22185e-06
-5.77284e-06
-5.05089e-06
-4.07279e-06
-2.86588e-06
-1.46838e-06
7.02074e-08
1.68912e-06
3.31683e-06
4.87183e-06
6.2636e-06
7.39398e-06
8.16094e-06
8.46423e-06
8.21734e-06
7.36953e-06
5.93308e-06
4.01086e-06
1.80837e-06
-7.37067e-06
-7.16693e-06
-6.88262e-06
-6.53427e-06
-6.15416e-06
-5.77409e-06
-5.41761e-06
-5.09909e-06
-4.82486e-06
-4.59535e-06
-4.40713e-06
-4.25477e-06
-4.13237e-06
-4.03477e-06
-3.95872e-06
-3.90427e-06
-3.87646e-06
-3.88739e-06
-3.95834e-06
-4.12045e-06
-4.41119e-06
-4.8601e-06
-5.41325e-06
-5.90656e-06
-6.22308e-06
-6.30538e-06
-6.12574e-06
-5.67699e-06
-4.9668e-06
-4.01466e-06
-2.85117e-06
-1.51812e-06
-6.85412e-08
1.43374e-06
2.91524e-06
4.29453e-06
5.4847e-06
6.39696e-06
6.94724e-06
7.06319e-06
6.69761e-06
5.84354e-06
4.54797e-06
2.91804e-06
1.11205e-06
-7.04725e-06
-6.88414e-06
-6.65984e-06
-6.3777e-06
-6.05794e-06
-5.72571e-06
-5.40243e-06
-5.10354e-06
-4.83842e-06
-4.61101e-06
-4.42098e-06
-4.26527e-06
-4.13963e-06
-4.03998e-06
-3.96368e-06
-3.91105e-06
-3.88696e-06
-3.90286e-06
-3.9786e-06
-4.14278e-06
-4.4292e-06
-4.86311e-06
-5.39025e-06
-5.85479e-06
-6.14593e-06
-6.20985e-06
-6.02155e-06
-5.57601e-06
-4.88322e-06
-3.96561e-06
-2.85703e-06
-1.60251e-06
-2.57773e-07
1.11182e-06
2.43321e-06
3.6284e-06
4.61823e-06
5.32756e-06
5.69264e-06
5.6676e-06
5.2353e-06
4.41485e-06
3.26526e-06
1.88136e-06
3.8059e-07
-6.71724e-06
-6.58875e-06
-6.41456e-06
-6.19061e-06
-5.92849e-06
-5.64673e-06
-5.36297e-06
-5.0916e-06
-4.84315e-06
-4.62399e-06
-4.43657e-06
-4.28037e-06
-4.15318e-06
-4.05237e-06
-3.97632e-06
-3.92579e-06
-3.90565e-06
-3.92664e-06
-4.00699e-06
-4.17251e-06
-4.45297e-06
-4.86903e-06
-5.36629e-06
-5.7984e-06
-6.06168e-06
-6.10646e-06
-5.91107e-06
-5.47303e-06
-4.80501e-06
-3.93234e-06
-2.89183e-06
-1.73095e-06
-5.06737e-07
7.16e-07
1.86739e-06
2.87612e-06
3.67406e-06
4.20185e-06
4.41527e-06
4.2903e-06
3.82962e-06
3.06458e-06
2.05327e-06
8.73135e-07
-3.89889e-07
-6.37428e-06
-6.27643e-06
-6.14515e-06
-5.97205e-06
-5.76308e-06
-5.53148e-06
-5.29083e-06
-5.05319e-06
-4.8287e-06
-4.62487e-06
-4.44612e-06
-4.29416e-06
-4.16886e-06
-4.06935e-06
-3.99522e-06
-3.94799e-06
-3.93262e-06
-3.95916e-06
-4.0441e-06
-4.21023e-06
-4.48297e-06
-4.87821e-06
-5.34176e-06
-5.73795e-06
-5.97138e-06
-5.99725e-06
-5.79767e-06
-5.37319e-06
-4.73918e-06
-3.92366e-06
-2.96563e-06
-1.91372e-06
-8.24423e-07
2.40405e-07
1.21681e-06
2.04283e-06
2.6631e-06
3.03391e-06
3.12772e-06
2.93629e-06
2.47331e-06
1.77319e-06
8.86946e-07
-1.24908e-07
-1.19957e-06
-6.01245e-06
-5.94263e-06
-5.84916e-06
-5.7209e-06
-5.56029e-06
-5.37681e-06
-5.18048e-06
-4.98066e-06
-4.78613e-06
-4.60441e-06
-4.44099e-06
-4.29922e-06
-4.18078e-06
-4.08647e-06
-4.0173e-06
-3.97563e-06
-3.96665e-06
-3.99973e-06
-4.08954e-06
-4.25568e-06
-4.51905e-06
-4.89078e-06
-5.3173e-06
-5.67477e-06
-5.87742e-06
-5.88608e-06
-5.68706e-06
-5.28415e-06
-4.69529e-06
-3.95048e-06
-3.08977e-06
-2.16123e-06
-1.21863e-06
-3.1851e-07
4.8333e-07
1.13578e-06
1.59641e-06
1.83537e-06
1.8378e-06
1.60537e-06
1.15631e-06
5.22814e-07
-2.53163e-07
-1.12558e-06
-2.04833e-06
-5.6262e-06
-5.58276e-06
-5.52352e-06
-5.43546e-06
-5.31884e-06
-5.18071e-06
-5.02836e-06
-4.86862e-06
-4.70847e-06
-4.55473e-06
-4.41311e-06
-4.28793e-06
-4.18219e-06
-4.09816e-06
-4.03812e-06
-4.00532e-06
-4.00517e-06
-4.0464e-06
-4.14178e-06
-4.30768e-06
-4.56044e-06
-4.90672e-06
-5.29412e-06
-5.61151e-06
-5.78417e-06
-5.77938e-06
-5.58785e-06
-5.21651e-06
-4.68536e-06
-4.02535e-06
-3.27595e-06
-2.48273e-06
-1.69463e-06
-9.60923e-07
-3.27923e-07
1.64387e-07
4.85338e-07
6.16065e-07
5.50388e-07
2.95127e-07
-1.31182e-07
-7.01001e-07
-1.3813e-06
-2.13768e-06
-2.93613e-06
-5.21041e-06
-5.19243e-06
-5.16496e-06
-5.11362e-06
-5.03737e-06
-4.94176e-06
-4.8322e-06
-4.71341e-06
-4.59063e-06
-4.46954e-06
-4.35555e-06
-4.25326e-06
-4.16646e-06
-4.09845e-06
-4.05255e-06
-4.03275e-06
-4.04463e-06
-4.0962e-06
-4.19838e-06
-4.36432e-06
-4.60602e-06
-4.92622e-06
-5.27437e-06
-5.5527e-06
-5.69867e-06
-5.68669e-06
-5.5118e-06
-5.18358e-06
-4.72321e-06
-4.16115e-06
-3.53456e-06
-2.88459e-06
-2.25365e-06
-1.68259e-06
-1.20795e-06
-8.59452e-07
-6.58015e-07
-6.14605e-07
-7.30247e-07
-9.9634e-07
-1.39634e-06
-1.90811e-06
-2.50649e-06
-3.16618e-06
-3.86198e-06
-4.75999e-06
-4.76721e-06
-4.76992e-06
-4.75286e-06
-4.7142e-06
-4.65867e-06
-4.59042e-06
-4.51263e-06
-4.42903e-06
-4.34414e-06
-4.26267e-06
-4.18906e-06
-4.12737e-06
-4.08143e-06
-4.05521e-06
-4.05316e-06
-4.08087e-06
-4.14558e-06
-4.25637e-06
-4.4234e-06
-4.65478e-06
-4.95006e-06
-5.26156e-06
-5.50504e-06
-5.63074e-06
-5.62048e-06
-5.47321e-06
-5.20028e-06
-4.8228e-06
-4.36924e-06
-3.87279e-06
-3.36868e-06
-2.89181e-06
-2.47437e-06
-2.14383e-06
-1.92127e-06
-1.82027e-06
-1.84667e-06
-1.99888e-06
-2.26863e-06
-2.64239e-06
-3.10323e-06
-3.63251e-06
-4.2119e-06
-4.82278e-06
-4.27048e-06
-4.30321e-06
-4.33508e-06
-4.35059e-06
-4.34756e-06
-4.33021e-06
-4.30191e-06
-4.26478e-06
-4.22138e-06
-4.17521e-06
-4.13019e-06
-4.09027e-06
-4.05937e-06
-4.04143e-06
-4.0406e-06
-4.06146e-06
-4.10935e-06
-4.19063e-06
-4.31264e-06
-4.48288e-06
-4.70625e-06
-4.98016e-06
-5.26079e-06
-5.47726e-06
-5.59233e-06
-5.59493e-06
-5.48715e-06
-5.2809e-06
-4.9959e-06
-4.65724e-06
-4.29288e-06
-3.9314e-06
-3.60003e-06
-3.32294e-06
-3.11987e-06
-3.00522e-06
-2.98752e-06
-3.06959e-06
-3.24901e-06
-3.51888e-06
-3.8689e-06
-4.28667e-06
-4.75876e-06
-5.27212e-06
-5.81308e-06
-3.73989e-06
-3.79882e-06
-3.85897e-06
-3.90573e-06
-3.93694e-06
-3.95639e-06
-3.96691e-06
-3.96993e-06
-3.96724e-06
-3.96147e-06
-3.95582e-06
-3.95365e-06
-3.95843e-06
-3.97386e-06
-4.0039e-06
-4.05288e-06
-4.12562e-06
-4.22752e-06
-4.36429e-06
-4.54122e-06
-4.76086e-06
-5.01965e-06
-5.27856e-06
-5.47936e-06
-5.59616e-06
-5.62405e-06
-5.56712e-06
-5.43668e-06
-5.24985e-06
-5.02737e-06
-4.79145e-06
-4.56399e-06
-4.36518e-06
-4.21235e-06
-4.11924e-06
-4.0954e-06
-4.14614e-06
-4.27284e-06
-4.47326e-06
-4.74224e-06
-5.07243e-06
-5.45513e-06
-5.88097e-06
-6.34085e-06
-6.8249e-06
-3.17043e-06
-3.25632e-06
-3.34377e-06
-3.42054e-06
-3.48491e-06
-3.5401e-06
-3.58844e-06
-3.63099e-06
-3.66904e-06
-3.70464e-06
-3.74031e-06
-3.77881e-06
-3.82306e-06
-3.87629e-06
-3.94198e-06
-4.02392e-06
-4.12621e-06
-4.2532e-06
-4.40917e-06
-4.59772e-06
-4.81992e-06
-5.07242e-06
-5.32166e-06
-5.52088e-06
-5.65341e-06
-5.71887e-06
-5.72217e-06
-5.6731e-06
-5.58546e-06
-5.47533e-06
-5.35925e-06
-5.25312e-06
-5.17121e-06
-5.12552e-06
-5.12535e-06
-5.17701e-06
-5.28396e-06
-5.447e-06
-5.6646e-06
-5.93329e-06
-6.24819e-06
-6.60351e-06
-6.99295e-06
-7.41034e-06
-7.84875e-06
-2.5685e-06
-2.68223e-06
-2.79595e-06
-2.90171e-06
-2.99856e-06
-3.08882e-06
-3.17424e-06
-3.25572e-06
-3.33433e-06
-3.41167e-06
-3.48972e-06
-3.57068e-06
-3.65693e-06
-3.7511e-06
-3.85605e-06
-3.9749e-06
-4.1109e-06
-4.26737e-06
-4.44744e-06
-4.65349e-06
-4.88599e-06
-5.1425e-06
-5.39557e-06
-5.6085e-06
-5.77081e-06
-5.88429e-06
-5.95373e-06
-5.98706e-06
-5.99474e-06
-5.98836e-06
-5.97959e-06
-5.97935e-06
-5.99736e-06
-6.04172e-06
-6.11869e-06
-6.23257e-06
-6.38581e-06
-6.57916e-06
-6.81183e-06
-7.08183e-06
-7.38618e-06
-7.72131e-06
-8.08319e-06
-8.46781e-06
-8.87055e-06
-1.94635e-06
-2.08851e-06
-2.22736e-06
-2.3612e-06
-2.49014e-06
-2.61518e-06
-2.73724e-06
-2.8572e-06
-2.97605e-06
-3.09509e-06
-3.21584e-06
-3.34e-06
-3.46945e-06
-3.60624e-06
-3.7526e-06
-3.91093e-06
-4.08367e-06
-4.27327e-06
-4.48195e-06
-4.71131e-06
-4.96183e-06
-5.23201e-06
-5.50116e-06
-5.74193e-06
-5.9462e-06
-6.115e-06
-6.25235e-06
-6.36472e-06
-6.45974e-06
-6.54529e-06
-6.6291e-06
-6.7184e-06
-6.81959e-06
-6.93806e-06
-7.07802e-06
-7.24258e-06
-7.43378e-06
-7.65255e-06
-7.89879e-06
-8.1716e-06
-8.46947e-06
-8.79041e-06
-9.1321e-06
-9.49208e-06
-9.86765e-06
-1.35746e-06
-1.52833e-06
-1.69217e-06
-1.85359e-06
-2.01375e-06
-2.17227e-06
-2.32927e-06
-2.48558e-06
-2.64222e-06
-2.80024e-06
-2.96079e-06
-3.1252e-06
-3.29493e-06
-3.47157e-06
-3.65685e-06
-3.85257e-06
-4.06056e-06
-4.28262e-06
-4.52039e-06
-4.77503e-06
-5.04723e-06
-5.33578e-06
-5.62676e-06
-5.90157e-06
-6.15111e-06
-6.37308e-06
-6.57053e-06
-6.74926e-06
-6.91509e-06
-7.07329e-06
-7.2289e-06
-7.38673e-06
-7.55111e-06
-7.72575e-06
-7.91362e-06
-8.11706e-06
-8.33784e-06
-8.57698e-06
-8.83486e-06
-9.11137e-06
-9.40596e-06
-9.71776e-06
-1.00457e-05
-1.03883e-05
-1.07445e-05
-8.63494e-07
-1.06126e-06
-1.25105e-06
-1.4399e-06
-1.62929e-06
-1.81818e-06
-2.00635e-06
-2.19457e-06
-2.38381e-06
-2.57494e-06
-2.76886e-06
-2.96662e-06
-3.16941e-06
-3.37851e-06
-3.59528e-06
-3.82113e-06
-4.05752e-06
-4.30587e-06
-4.56749e-06
-4.84334e-06
-5.13437e-06
-5.43951e-06
-5.75004e-06
-6.05356e-06
-6.33913e-06
-6.6013e-06
-6.84242e-06
-7.0681e-06
-7.28311e-06
-7.4911e-06
-7.69546e-06
-7.89957e-06
-8.10656e-06
-8.31914e-06
-8.53958e-06
-8.76971e-06
-9.01095e-06
-9.26431e-06
-9.53045e-06
-9.80966e-06
-1.01019e-05
-1.0407e-05
-1.07244e-05
-1.10534e-05
-1.13937e-05
-4.83757e-07
-7.05694e-07
-9.20059e-07
-1.13395e-06
-1.34878e-06
-1.56345e-06
-1.77767e-06
-1.99214e-06
-2.20772e-06
-2.42515e-06
-2.64518e-06
-2.86867e-06
-3.09661e-06
-3.33006e-06
-3.57016e-06
-3.81807e-06
-4.07501e-06
-4.34218e-06
-4.62075e-06
-4.91159e-06
-5.21585e-06
-5.53255e-06
-5.85631e-06
-6.17863e-06
-6.48754e-06
-6.77574e-06
-7.04511e-06
-7.30106e-06
-7.54762e-06
-7.78746e-06
-8.023e-06
-8.25677e-06
-8.49116e-06
-8.72824e-06
-8.96982e-06
-9.2174e-06
-9.47218e-06
-9.73516e-06
-1.00071e-05
-1.02884e-05
-1.05793e-05
-1.08799e-05
-1.11901e-05
-1.15095e-05
-1.18381e-05
-2.00277e-07
-4.43123e-07
-6.79279e-07
-9.14927e-07
-1.15127e-06
-1.38736e-06
-1.62296e-06
-1.85869e-06
-2.09529e-06
-2.33338e-06
-2.5736e-06
-2.81668e-06
-3.06348e-06
-3.31489e-06
-3.57189e-06
-3.83547e-06
-4.10671e-06
-4.38666e-06
-4.67642e-06
-4.97681e-06
-5.2891e-06
-5.61242e-06
-5.94336e-06
-6.27582e-06
-6.5977e-06
-6.90107e-06
-7.18754e-06
-7.46215e-06
-7.72837e-06
-7.98824e-06
-8.24359e-06
-8.49643e-06
-8.74863e-06
-9.00188e-06
-9.25762e-06
-9.51711e-06
-9.7814e-06
-1.00514e-05
-1.03278e-05
-1.06111e-05
-1.09018e-05
-1.11999e-05
-1.15056e-05
-1.18186e-05
-1.21392e-05
5.51669e-09
-2.55145e-07
-5.10014e-07
-7.64094e-07
-1.01833e-06
-1.27197e-06
-1.52488e-06
-1.77758e-06
-2.03071e-06
-2.2848e-06
-2.5404e-06
-2.79817e-06
-3.05882e-06
-3.32315e-06
-3.592e-06
-3.86627e-06
-4.14692e-06
-4.43491e-06
-4.73127e-06
-5.03683e-06
-5.3529e-06
-5.6787e-06
-6.0119e-06
-6.34782e-06
-6.67496e-06
-6.98564e-06
-7.28134e-06
-7.56666e-06
-7.84454e-06
-8.11659e-06
-8.3843e-06
-8.64928e-06
-8.91309e-06
-9.17708e-06
-9.44247e-06
-9.7103e-06
-9.9815e-06
-1.02569e-05
-1.05371e-05
-1.08226e-05
-1.11138e-05
-1.14111e-05
-1.17145e-05
-1.2024e-05
-1.23398e-05
1.50751e-07
-1.24916e-07
-3.95508e-07
-6.64892e-07
-9.33769e-07
-1.20159e-06
-1.46829e-06
-1.73435e-06
-2.00029e-06
-2.26658e-06
-2.53371e-06
-2.80225e-06
-3.07285e-06
-3.34621e-06
-3.62307e-06
-3.90426e-06
-4.19064e-06
-4.48311e-06
-4.78266e-06
-5.0901e-06
-5.40675e-06
-5.73191e-06
-6.0638e-06
-6.39853e-06
-6.72566e-06
-7.03834e-06
-7.33803e-06
-7.62877e-06
-7.91303e-06
-8.19213e-06
-8.46731e-06
-8.73992e-06
-9.01126e-06
-9.28245e-06
-9.55453e-06
-9.82838e-06
-1.01048e-05
-1.03845e-05
-1.06681e-05
-1.09561e-05
-1.12488e-05
-1.15465e-05
-1.18494e-05
-1.21576e-05
-1.24713e-05
2.50374e-07
-3.78464e-08
-3.21477e-07
-6.03419e-07
-8.84168e-07
-1.16334e-06
-1.44096e-06
-1.71743e-06
-1.99321e-06
-2.2687e-06
-2.54435e-06
-2.82068e-06
-3.09825e-06
-3.37771e-06
-3.65973e-06
-3.94506e-06
-4.23449e-06
-4.52889e-06
-4.82917e-06
-5.13614e-06
-5.45111e-06
-5.77345e-06
-6.10163e-06
-6.43221e-06
-6.75604e-06
-7.06738e-06
-7.3677e-06
-7.66046e-06
-7.94768e-06
-8.23048e-06
-8.50994e-06
-8.78721e-06
-9.06338e-06
-9.33942e-06
-9.6162e-06
-9.89449e-06
-1.0175e-05
-1.04584e-05
-1.07451e-05
-1.10356e-05
-1.13304e-05
-1.16295e-05
-1.19334e-05
-1.22419e-05
-1.25554e-05
3.16683e-07
1.79845e-08
-2.76395e-07
-5.68583e-07
-8.58917e-07
-1.14715e-06
-1.43336e-06
-1.71792e-06
-2.0012e-06
-2.28358e-06
-2.56546e-06
-2.84732e-06
-3.12968e-06
-3.4131e-06
-3.69822e-06
-3.98571e-06
-4.27633e-06
-4.57087e-06
-4.87021e-06
-5.17516e-06
-5.48695e-06
-5.80507e-06
-6.12806e-06
-6.45281e-06
-6.77151e-06
-7.07958e-06
-7.37852e-06
-7.67118e-06
-7.95922e-06
-8.24361e-06
-8.5253e-06
-8.8053e-06
-9.08453e-06
-9.36383e-06
-9.64397e-06
-9.92561e-06
-1.02094e-05
-1.04959e-05
-1.07855e-05
-1.10788e-05
-1.13759e-05
-1.16772e-05
-1.19829e-05
-1.2293e-05
-1.26078e-05
3.59339e-07
5.18896e-08
-2.5134e-07
-5.51879e-07
-8.49952e-07
-1.14542e-06
-1.43841e-06
-1.72924e-06
-2.01825e-06
-2.30577e-06
-2.59219e-06
-2.87793e-06
-3.16348e-06
-3.44935e-06
-3.73613e-06
-4.02445e-06
-4.315e-06
-4.60852e-06
-4.90586e-06
-5.2078e-06
-5.51552e-06
-5.82862e-06
-6.14566e-06
-6.4638e-06
-6.77653e-06
-7.08039e-06
-7.37682e-06
-7.66817e-06
-7.95576e-06
-8.24044e-06
-8.52307e-06
-8.80455e-06
-9.08566e-06
-9.36717e-06
-9.64973e-06
-9.93396e-06
-1.02204e-05
-1.05096e-05
-1.0802e-05
-1.10979e-05
-1.13976e-05
-1.17015e-05
-1.20096e-05
-1.23221e-05
-1.26392e-05
3.85671e-07
7.08865e-08
-2.39648e-07
-5.47016e-07
-8.51367e-07
-1.15265e-06
-1.45101e-06
-1.74674e-06
-2.04014e-06
-2.33152e-06
-2.62123e-06
-2.90968e-06
-3.19731e-06
-3.4846e-06
-3.77208e-06
-4.06034e-06
-4.35003e-06
-4.64184e-06
-4.93657e-06
-5.23496e-06
-5.53818e-06
-5.84586e-06
-6.15667e-06
-6.46803e-06
-6.77462e-06
-7.07394e-06
-7.36736e-06
-7.65674e-06
-7.94315e-06
-8.22737e-06
-8.51017e-06
-8.79233e-06
-9.07458e-06
-9.35757e-06
-9.64192e-06
-9.92818e-06
-1.02169e-05
-1.05084e-05
-1.08033e-05
-1.11018e-05
-1.14042e-05
-1.17108e-05
-1.20217e-05
-1.2337e-05
-1.26569e-05
4.01046e-07
8.00765e-08
-2.36524e-07
-5.49515e-07
-8.59001e-07
-1.16499e-06
-1.46766e-06
-1.76726e-06
-2.06406e-06
-2.35836e-06
-2.6505e-06
-2.94083e-06
-3.22978e-06
-3.51779e-06
-3.80536e-06
-4.09304e-06
-4.38142e-06
-4.67115e-06
-4.96298e-06
-5.25762e-06
-5.55617e-06
-5.85838e-06
-6.163e-06
-6.46778e-06
-6.76845e-06
-7.06329e-06
-7.35355e-06
-7.64068e-06
-7.92556e-06
-8.20889e-06
-8.4914e-06
-8.77376e-06
-9.05665e-06
-9.34065e-06
-9.62633e-06
-9.9142e-06
-1.02047e-05
-1.04984e-05
-1.07955e-05
-1.10965e-05
-1.14015e-05
-1.17109e-05
-1.20247e-05
-1.2343e-05
-1.2666e-05
4.09265e-07
8.30436e-08
-2.38635e-07
-5.56301e-07
-8.70037e-07
-1.1799e-06
-1.48606e-06
-1.78876e-06
-2.08825e-06
-2.3848e-06
-2.67874e-06
-2.9704e-06
-3.26017e-06
-3.54847e-06
-3.83577e-06
-4.12256e-06
-4.4094e-06
-4.69691e-06
-4.98577e-06
-5.27665e-06
-5.57062e-06
-5.86747e-06
-6.16614e-06
-6.46477e-06
-6.75996e-06
-7.05058e-06
-7.33773e-06
-7.62254e-06
-7.90575e-06
-8.18801e-06
-8.46996e-06
-8.75224e-06
-9.03545e-06
-9.32013e-06
-9.60682e-06
-9.896e-06
-1.01881e-05
-1.04836e-05
-1.07828e-05
-1.1086e-05
-1.13935e-05
-1.17055e-05
-1.20222e-05
-1.23436e-05
-1.26698e-05
4.1294e-07
8.22207e-08
-2.43752e-07
-5.6535e-07
-8.8265e-07
-1.19574e-06
-1.50479e-06
-1.81002e-06
-2.11167e-06
-2.40999e-06
-2.70529e-06
-2.9979e-06
-3.28817e-06
-3.5765e-06
-3.86331e-06
-4.14909e-06
-4.43433e-06
-4.71962e-06
-5.00558e-06
-5.29284e-06
-5.58242e-06
-5.87417e-06
-6.16726e-06
-6.46025e-06
-6.75047e-06
-7.03722e-06
-7.32143e-06
-7.60398e-06
-7.88552e-06
-8.16662e-06
-8.4479e-06
-8.72993e-06
-9.01325e-06
-9.2984e-06
-9.58586e-06
-9.87611e-06
-1.01696e-05
-1.04666e-05
-1.07676e-05
-1.10729e-05
-1.13827e-05
-1.16973e-05
-1.20167e-05
-1.2341e-05
-1.26703e-05
4.1381e-07
7.92071e-08
-2.50433e-07
-5.75379e-07
-8.95708e-07
-1.21152e-06
-1.523e-06
-1.83033e-06
-2.13375e-06
-2.4335e-06
-2.72987e-06
-3.02317e-06
-3.31373e-06
-3.60193e-06
-3.88817e-06
-4.17289e-06
-4.45657e-06
-4.73972e-06
-5.02294e-06
-5.30679e-06
-5.59226e-06
-5.87924e-06
-6.16715e-06
-6.45505e-06
-6.74084e-06
-7.02409e-06
-7.30558e-06
-7.586e-06
-7.86592e-06
-8.14589e-06
-8.42644e-06
-8.70813e-06
-8.99145e-06
-9.2769e-06
-9.56497e-06
-9.85608e-06
-1.01507e-05
-1.04491e-05
-1.07518e-05
-1.10589e-05
-1.13708e-05
-1.16876e-05
-1.20096e-05
-1.23366e-05
-1.26689e-05
4.13007e-07
7.50249e-08
-2.57779e-07
-5.85607e-07
-9.0854e-07
-1.22669e-06
-1.54023e-06
-1.84933e-06
-2.15423e-06
-2.45515e-06
-2.75238e-06
-3.04619e-06
-3.33693e-06
-3.62492e-06
-3.91056e-06
-4.19425e-06
-4.47643e-06
-4.75758e-06
-5.03826e-06
-5.31897e-06
-5.60064e-06
-5.8832e-06
-6.16637e-06
-6.44972e-06
-6.73158e-06
-7.01169e-06
-7.29069e-06
-7.56915e-06
-7.84756e-06
-8.12643e-06
-8.40626e-06
-8.68755e-06
-8.9708e-06
-9.25646e-06
-9.54499e-06
-9.83683e-06
-1.01324e-05
-1.0432e-05
-1.07361e-05
-1.10449e-05
-1.13587e-05
-1.16776e-05
-1.20018e-05
-1.23314e-05
-1.26664e-05
4.11251e-07
7.03142e-08
-2.65237e-07
-5.95567e-07
-9.20758e-07
-1.24093e-06
-1.55623e-06
-1.86685e-06
-2.173e-06
-2.47491e-06
-2.77283e-06
-3.06705e-06
-3.35787e-06
-3.64562e-06
-3.93067e-06
-4.21338e-06
-4.49417e-06
-4.77349e-06
-5.05185e-06
-5.32969e-06
-5.6079e-06
-5.88641e-06
-6.16529e-06
-6.44457e-06
-6.72296e-06
-7.00027e-06
-7.27702e-06
-7.55368e-06
-7.8307e-06
-8.10855e-06
-8.38769e-06
-8.66859e-06
-8.95171e-06
-9.2375e-06
-9.5264e-06
-9.81884e-06
-1.01152e-05
-1.04159e-05
-1.07212e-05
-1.10314e-05
-1.13469e-05
-1.16677e-05
-1.1994e-05
-1.23259e-05
-1.26634e-05
4.08985e-07
6.54532e-08
-2.725e-07
-6.05013e-07
-9.32174e-07
-1.2541e-06
-1.57094e-06
-1.88286e-06
-2.19009e-06
-2.49282e-06
-2.79133e-06
-3.08586e-06
-3.37673e-06
-3.66423e-06
-3.9487e-06
-4.23051e-06
-4.51004e-06
-4.7877e-06
-5.06395e-06
-5.33921e-06
-5.61428e-06
-5.88912e-06
-6.1641e-06
-6.43978e-06
-6.7151e-06
-6.98992e-06
-7.26465e-06
-7.53969e-06
-7.81545e-06
-8.09236e-06
-8.37085e-06
-8.65136e-06
-8.93433e-06
-9.2202e-06
-9.50939e-06
-9.80232e-06
-1.00994e-05
-1.04009e-05
-1.07073e-05
-1.10189e-05
-1.13358e-05
-1.16582e-05
-1.19864e-05
-1.23204e-05
-1.26601e-05
4.06433e-07
6.05854e-08
-2.795e-07
-6.13953e-07
-9.4286e-07
-1.26634e-06
-1.58453e-06
-1.8976e-06
-2.20576e-06
-2.50922e-06
-2.80822e-06
-3.10301e-06
-3.39388e-06
-3.68113e-06
-3.96508e-06
-4.24605e-06
-4.52442e-06
-4.80055e-06
-5.07489e-06
-5.3478e-06
-5.62003e-06
-5.89149e-06
-6.16291e-06
-6.43535e-06
-6.70794e-06
-6.98052e-06
-7.25342e-06
-7.52699e-06
-7.80159e-06
-8.07763e-06
-8.3555e-06
-8.63564e-06
-8.91845e-06
-9.20436e-06