/*--------------------------------*- C++ -*----------------------------------*\
| =========                 |                                                 |
| \\      /  F ield         | OpenFOAM: The Open Source CFD Toolbox           |
|  \\    /   O peration     | Version:  2312                                  |
|   \\  /    A nd           | Website:  www.openfoam.com                      |
|    \\/     M anipulation  |                                                 |
\*---------------------------------------------------------------------------*/
FoamFile
{
    version     2.0;
    format      ascii;
    arch        "LSB;label=32;scalar=64";
    class       surfaceScalarField;
    location    "500";
    object      phi;
}
// * * * * * * * * * * * * * * * * * * * * * * * * * * * * * * * * * * * * * //

dimensions      [0 3 -1 0 0 0 0];

oriented        oriented;

internalField   nonuniform List<scalar> 
9445
(
5.61791e-10
1.20016e-11
5.54527e-10
7.26492e-12
5.50243e-10
4.28419e-12
5.48071e-10
2.17161e-12
5.47485e-10
5.86408e-13
5.48173e-10
-6.88284e-13
5.49995e-10
-1.82166e-12
5.52953e-10
-2.95832e-12
5.5723e-10
-4.27736e-12
5.63369e-10
-6.13898e-12
5.72946e-10
-9.57637e-12
5.90646e-10
-1.77007e-11
6.28334e-10
-3.76874e-11
7.17921e-10
-8.95873e-11
-2.44095e-10
9.62016e-10
1.96116e-09
5.33342e-11
1.93581e-09
3.26145e-11
1.92055e-09
1.95471e-11
1.91235e-09
1.03738e-11
1.90941e-09
3.51866e-12
1.91068e-09
-1.95307e-12
1.91561e-09
-6.75464e-12
1.92414e-09
-1.1489e-11
1.93672e-09
-1.68594e-11
1.95468e-09
-2.40971e-11
1.98116e-09
-3.60528e-11
2.02286e-09
-5.94019e-11
2.09217e-09
-1.07001e-10
2.2028e-09
-2.00215e-10
-3.57331e-10
2.31604e-09
3.87014e-09
1.33354e-10
3.82049e-09
8.22681e-11
3.79011e-09
4.99257e-11
3.77311e-09
2.73825e-11
3.76601e-09
1.06176e-11
3.76672e-09
-2.66641e-12
3.77413e-09
-1.41648e-11
3.78791e-09
-2.52727e-11
3.80855e-09
-3.74943e-11
3.83755e-09
-5.30975e-11
3.87785e-09
-7.63552e-11
3.93363e-09
-1.15178e-10
4.00746e-09
-1.80836e-10
4.0886e-09
-2.81354e-10
-4.04243e-10
4.13551e-09
6.4283e-09
2.62756e-10
6.34696e-09
1.63608e-10
6.29633e-09
1.0055e-10
6.26687e-09
5.6842e-11
6.25296e-09
2.45263e-11
6.25116e-09
-8.64833e-13
6.25949e-09
-2.24888e-11
6.27705e-09
-4.28325e-11
6.30386e-09
-6.43087e-11
6.34071e-09
-8.99432e-11
6.38857e-09
-1.2422e-10
6.44678e-09
-1.73389e-10
6.50895e-09
-2.43007e-10
6.55801e-09
-3.30411e-10
-4.16197e-10
6.56996e-09
9.80445e-09
4.52489e-10
9.68336e-09
2.84705e-10
9.60657e-09
1.77337e-10
9.5602e-09
1.03212e-10
9.53598e-09
4.87487e-11
9.52875e-09
6.36132e-12
9.53533e-09
-2.90713e-11
9.55386e-09
-6.1361e-11
9.58332e-09
-9.37678e-11
9.62294e-09
-1.29561e-10
9.67101e-09
-1.72291e-10
9.72278e-09
-2.25161e-10
9.76828e-09
-2.88505e-10
9.79335e-09
-3.55481e-10
-4.10572e-10
9.78773e-09
1.41982e-08
7.11337e-10
1.40299e-08
4.52945e-10
1.3921e-08
2.86236e-10
1.38529e-08
1.71339e-10
1.38142e-08
8.74165e-11
1.37978e-08
2.27577e-11
1.3799e-08
-3.02184e-11
1.38145e-08
-7.68191e-11
1.38417e-08
-1.21026e-10
1.38781e-08
-1.6595e-10
1.39196e-08
-2.13786e-10
1.39596e-08
-2.65119e-10
1.39886e-08
-3.17597e-10
1.39979e-08
-3.64768e-10
-3.97401e-10
1.39848e-08
1.98378e-08
1.04127e-09
1.96185e-08
6.72232e-10
1.94732e-08
4.315e-10
1.93792e-08
2.65353e-10
1.93221e-08
1.4454e-10
1.92925e-08
5.23662e-11
1.92839e-08
-2.16458e-11
1.92915e-08
-8.44384e-11
1.93112e-08
-1.40668e-10
1.93385e-08
-1.93247e-10
1.93681e-08
-2.43407e-10
1.93935e-08
-2.90512e-10
1.94078e-08
-3.31954e-10
1.94067e-08
-3.63602e-10
-3.81339e-10
1.93906e-08
2.69731e-08
1.43028e-09
2.67071e-08
9.38215e-10
2.65261e-08
6.12498e-10
2.64049e-08
3.86476e-10
2.63271e-08
2.22425e-10
2.62811e-08
9.83022e-11
2.6259e-08
4.77172e-13
2.62543e-08
-7.97442e-11
2.62615e-08
-1.47811e-10
2.6275e-08
-2.06781e-10
2.62893e-08
-2.57768e-10
2.62992e-08
-3.00335e-10
2.63003e-08
-3.33059e-10
2.6291e-08
-3.54346e-10
-3.63349e-10
2.6273e-08
3.5863e-08
1.84428e-09
3.55692e-08
1.23212e-09
3.53625e-08
8.19129e-10
3.52194e-08
5.29626e-10
3.51227e-08
3.19089e-10
3.50603e-08
1.60675e-10
3.50231e-08
3.77517e-11
3.50035e-08
-6.01623e-11
3.49952e-08
-1.39546e-10
3.49926e-08
-2.04123e-10
3.49905e-08
-2.5572e-10
3.49852e-08
-2.95007e-10
3.49743e-08
-3.22218e-10
3.49578e-08
-3.37791e-10
-3.42723e-10
3.49372e-08
4.67665e-08
2.22436e-09
4.64821e-08
1.5165e-09
4.62736e-08
1.02763e-09
4.61234e-08
6.79766e-10
4.60173e-08
4.25186e-10
4.5944e-08
2.3398e-10
4.58945e-08
8.72555e-11
4.58614e-08
-2.70488e-11
4.58385e-08
-1.16598e-10
4.58205e-08
-1.86192e-10
4.58037e-08
-2.3886e-10
4.57853e-08
-2.7668e-10
4.57645e-08
-3.01407e-10
4.57416e-08
-3.14864e-10
-3.18997e-10
4.57179e-08
5.99554e-08
2.50152e-09
5.97308e-08
1.74101e-09
5.95564e-08
1.20206e-09
5.94247e-08
8.11477e-10
5.93271e-08
5.22777e-10
5.92556e-08
3.05542e-10
5.92029e-08
1.39905e-10
5.91631e-08
1.27761e-11
5.91311e-08
-8.45785e-11
5.9103e-08
-1.58115e-10
5.90762e-08
-2.12102e-10
5.90494e-08
-2.49869e-10
5.90223e-08
-2.74279e-10
5.89954e-08
-2.8797e-10
-2.93307e-10
5.89697e-08
7.57789e-08
2.63418e-09
7.56542e-08
1.86569e-09
7.55479e-08
1.30844e-09
7.54619e-08
8.97456e-10
7.53943e-08
5.90411e-10
7.53413e-08
3.58517e-10
7.5299e-08
1.82218e-10
7.52636e-08
4.81072e-11
7.52323e-08
-5.32331e-11
7.52028e-08
-1.28642e-10
7.5174e-08
-1.83319e-10
7.51456e-08
-2.21432e-10
7.51178e-08
-2.46478e-10
7.50913e-08
-2.61461e-10
-2.68855e-10
7.50668e-08
9.47601e-08
2.64102e-09
9.47348e-08
1.89104e-09
9.47044e-08
1.33883e-09
9.4675e-08
9.26771e-10
9.46488e-08
6.16706e-10
9.46253e-08
3.82012e-10
9.46035e-08
2.03986e-10
9.45823e-08
6.93266e-11
9.45607e-08
-3.16777e-11
9.45384e-08
-1.06349e-10
9.45155e-08
-1.60388e-10
9.44924e-08
-1.98359e-10
9.44699e-08
-2.23982e-10
9.44488e-08
-2.40317e-10
-2.49755e-10
9.44297e-08
1.17607e-07
2.58148e-09
1.17641e-07
1.85743e-09
1.1766e-07
1.31954e-09
1.17671e-07
9.1602e-10
1.17676e-07
6.11713e-10
1.17676e-07
3.81591e-10
1.17672e-07
2.07612e-10
1.17665e-07
7.66075e-11
1.17655e-07
-2.12541e-11
1.17642e-07
-9.34946e-11
1.17627e-07
-1.45984e-10
1.17612e-07
-1.83365e-10
1.17598e-07
-2.09326e-10
1.17584e-07
-2.26807e-10
-2.38027e-10
1.17573e-07
1.45031e-07
2.49841e-09
1.45085e-07
1.80408e-09
1.4512e-07
1.28422e-09
1.45143e-07
8.92834e-10
1.45157e-07
5.9748e-10
1.45164e-07
3.74451e-10
1.45166e-07
2.06259e-10
1.45162e-07
7.98935e-11
1.45156e-07
-1.44706e-11
1.45147e-07
-8.43666e-11
1.45136e-07
-1.35631e-10
1.45126e-07
-1.72812e-10
1.45116e-07
-1.99446e-10
1.45107e-07
-2.18289e-10
-2.31373e-10
1.45101e-07
1.77493e-07
2.39521e-09
1.77557e-07
1.74004e-09
1.77597e-07
1.2448e-09
1.7762e-07
8.69975e-10
1.77631e-07
5.86308e-10
1.77633e-07
3.71771e-10
1.7763e-07
2.09758e-10
1.77622e-07
8.77226e-11
1.77612e-07
-3.88768e-12
1.776e-07
-7.23909e-11
1.77587e-07
-1.23414e-10
1.77576e-07
-1.61291e-10
1.77566e-07
-1.89343e-10
1.77558e-07
-2.10127e-10
-2.25489e-10
1.77552e-07
2.15062e-07
2.25859e-09
2.15146e-07
1.65568e-09
2.15196e-07
1.19489e-09
2.15223e-07
8.43492e-10
2.15233e-07
5.75937e-10
2.15232e-07
3.72434e-10
2.15224e-07
2.17789e-10
2.15212e-07
1.00368e-10
2.15196e-07
1.12526e-11
2.1518e-07
-5.63936e-11
2.15165e-07
-1.07808e-10
2.15151e-07
-1.46997e-10
2.15138e-07
-1.77008e-10
2.15128e-07
-2.00179e-10
-2.18169e-10
2.15121e-07
2.57308e-07
2.081e-09
2.57421e-07
1.54301e-09
2.57489e-07
1.12685e-09
2.57526e-07
8.06428e-10
2.57542e-07
5.60218e-10
2.57543e-07
3.71142e-10
2.57535e-07
2.25905e-10
2.57521e-07
1.14211e-10
2.57504e-07
2.811e-11
2.57486e-07
-3.85121e-11
2.57469e-07
-9.03384e-11
2.57453e-07
-1.30947e-10
2.57439e-07
-1.63053e-10
2.57427e-07
-1.88743e-10
-2.0948e-10
2.57419e-07
3.03007e-07
1.86301e-09
3.03149e-07
1.40034e-09
3.03239e-07
1.03778e-09
3.0329e-07
7.55318e-10
3.03314e-07
5.35564e-10
3.03321e-07
3.64502e-10
3.03316e-07
2.31107e-10
3.03303e-07
1.26742e-10
3.03287e-07
4.46819e-11
3.03268e-07
-2.0277e-11
3.0325e-07
-7.21282e-11
3.03233e-07
-1.1393e-10
3.03218e-07
-1.48008e-10
3.03206e-07
-1.76167e-10
-1.99648e-10
3.03196e-07
3.49544e-07
1.6077e-09
3.49716e-07
1.22864e-09
3.49826e-07
9.27237e-10
3.49893e-07
6.88902e-10
3.49928e-07
5.00392e-10
3.49941e-07
3.50969e-10
3.4994e-07
2.32112e-10
3.4993e-07
1.37058e-10
3.49914e-07
6.04807e-11
3.49896e-07
-1.77482e-12
3.49876e-07
-5.29209e-11
3.49858e-07
-9.54322e-11
3.49841e-07
-1.31198e-10
3.49827e-07
-1.61698e-10
-1.87942e-10
3.49815e-07
3.47442e-07
1.352e-09
3.47617e-07
1.05331e-09
3.47732e-07
8.11701e-10
3.47804e-07
6.17149e-10
3.47844e-07
4.60198e-10
3.47862e-07
3.33099e-10
3.47865e-07
2.29632e-10
3.47857e-07
1.44786e-10
3.47843e-07
7.45633e-11
3.47825e-07
1.58198e-11
3.47806e-07
-3.38989e-11
3.47787e-07
-7.65046e-11
3.4777e-07
-1.13474e-10
3.47754e-07
-1.45965e-10
-1.748e-10
3.47741e-07
2.97589e-07
1.12985e-09
2.97745e-07
8.97026e-10
2.97851e-07
7.05332e-10
2.97921e-07
5.47955e-10
2.97962e-07
4.18349e-10
2.97984e-07
3.11089e-10
2.97992e-07
2.21741e-10
2.9799e-07
1.4667e-10
2.97982e-07
8.29368e-11
2.9797e-07
2.82121e-11
2.97955e-07
-1.93371e-11
2.9794e-07
-6.11479e-11
2.97925e-07
-9.83465e-11
2.9791e-07
-1.31819e-10
-1.62221e-10
2.97898e-07
2.49684e-07
9.39009e-10
2.49822e-07
7.58826e-10
2.49919e-07
6.07763e-10
2.49986e-07
4.81194e-10
2.5003e-07
3.74734e-10
2.50056e-07
2.8471e-10
2.5007e-07
2.08036e-10
2.50074e-07
1.4212e-10
2.50072e-07
8.48465e-11
2.50066e-07
3.45242e-11
2.50057e-07
-1.01873e-11
2.50046e-07
-5.03463e-11
2.50035e-07
-8.67926e-11
2.50023e-07
-1.20184e-10
-1.51032e-10
2.50012e-07
2.06091e-07
7.75681e-10
2.06213e-07
6.37066e-10
2.06302e-07
5.1865e-10
2.06366e-07
4.17297e-10
2.06411e-07
3.30206e-10
2.0644e-07
2.54997e-10
2.06459e-07
1.89576e-10
2.06469e-07
1.32131e-10
2.06472e-07
8.1166e-11
2.06472e-07
3.5484e-11
2.06467e-07
-5.87227e-12
2.06461e-07
-4.36648e-11
2.06452e-07
-7.85042e-11
2.06443e-07
-1.10867e-10
-1.41138e-10
2.06433e-07
1.67808e-07
6.35671e-10
1.67916e-07
5.29661e-10
1.67997e-07
4.37297e-10
1.68058e-07
3.56463e-10
1.68103e-07
2.855e-10
1.68135e-07
2.22968e-10
1.68157e-07
1.6749e-10
1.68171e-07
1.17823e-10
1.68179e-07
7.2939e-11
1.68183e-07
3.20124e-11
1.68183e-07
-5.62109e-12
1.68179e-07
-4.04947e-11
1.68174e-07
-7.3041e-11
1.68167e-07
-1.03593e-10
-1.32434e-10
1.68158e-07
1.3503e-07
5.15054e-10
1.35125e-07
4.34534e-10
1.35199e-07
3.62895e-10
1.35257e-07
2.98721e-10
1.35301e-07
2.41176e-10
1.35335e-07
1.89486e-10
1.35359e-07
1.42785e-10
1.35377e-07
1.00243e-10
1.35389e-07
6.11748e-11
1.35396e-07
2.50329e-11
1.35399e-07
-8.62745e-12
1.35398e-07
-4.01677e-11
1.35395e-07
-6.98834e-11
1.3539e-07
-9.7999e-11
-1.24716e-10
1.35382e-07
1.075e-07
4.10717e-10
1.07585e-07
3.5012e-10
1.07652e-07
2.94968e-10
1.07707e-07
2.44345e-10
1.0775e-07
1.97997e-10
1.07784e-07
1.55617e-10
1.0781e-07
1.1669e-10
1.0783e-07
8.06817e-11
1.07844e-07
4.71587e-11
1.07853e-07
1.57763e-11
1.07858e-07
-1.37501e-11
1.07859e-07
-4.16545e-11
1.07858e-07
-6.81311e-11
1.07853e-07
-9.33231e-11
-1.1737e-10
1.07846e-07
8.47303e-08
3.20797e-10
8.48046e-08
2.75775e-10
8.48659e-08
2.33754e-10
8.4916e-08
1.94183e-10
8.49568e-08
1.57221e-10
8.49895e-08
1.22869e-10
8.50154e-08
9.08493e-11
8.50352e-08
6.08387e-11
8.50498e-08
3.25818e-11
8.50597e-08
5.87893e-12
8.50654e-08
-1.94403e-11
8.50672e-08
-4.35191e-11
8.50656e-08
-6.64778e-11
8.50607e-08
-8.84026e-11
-1.09389e-10
8.50527e-08
6.61288e-08
2.44476e-10
6.6193e-08
2.11597e-10
6.62467e-08
1.80015e-10
6.62914e-08
1.49459e-10
6.63283e-08
1.20373e-10
6.63582e-08
9.29464e-11
6.6382e-08
6.70556e-11
6.64003e-08
4.25229e-11
6.64137e-08
1.92175e-11
6.64225e-08
-2.96268e-12
6.64272e-08
-2.41108e-11
6.6428e-08
-4.43072e-11
6.64251e-08
-6.36218e-11
6.64188e-08
-8.21031e-11
-9.98176e-11
6.64093e-08
5.10868e-08
1.81313e-10
5.11406e-08
1.57812e-10
5.11862e-08
1.34461e-10
5.12244e-08
1.11222e-10
5.12561e-08
8.87151e-11
5.12818e-08
6.72289e-11
5.13021e-08
4.67323e-11
5.13175e-08
2.71444e-11
5.13283e-08
8.41456e-12
5.13348e-08
-9.49929e-12
5.13374e-08
-2.66417e-11
5.13361e-08
-4.30519e-11
5.13313e-08
-5.87679e-11
5.1323e-08
-7.38159e-11
-8.82454e-11
5.13114e-08
3.90291e-08
1.30614e-10
3.90727e-08
1.14229e-10
3.91099e-08
9.72799e-11
3.91412e-08
7.99214e-11
3.9167e-08
6.28621e-11
3.91878e-08
4.64186e-11
3.92039e-08
3.06066e-11
3.92157e-08
1.54028e-11
3.92233e-08
8.00807e-13
3.9227e-08
-1.32089e-11
3.9227e-08
-2.6643e-11
3.92235e-08
-3.95168e-11
3.92166e-08
-5.18496e-11
3.92064e-08
-6.36553e-11
-7.49751e-11
3.91931e-08
2.94398e-08
9.11865e-11
2.9474e-08
8.00717e-11
2.95032e-08
6.80203e-11
2.95278e-08
5.53363e-11
2.9548e-08
4.27397e-11
2.95639e-08
3.0518e-11
2.95758e-08
1.87007e-11
2.95839e-08
7.29219e-12
2.95884e-08
-3.69542e-12
2.95894e-08
-1.42569e-11
2.95872e-08
-2.43937e-11
2.95818e-08
-3.41094e-11
2.95733e-08
-4.34127e-11
2.9562e-08
-5.23119e-11
-6.08435e-11
2.95478e-08
2.18718e-08
6.14458e-11
2.18978e-08
5.41266e-11
2.192e-08
4.57647e-11
2.19386e-08
3.6761e-11
2.19536e-08
2.77717e-11
2.19651e-08
1.90186e-11
2.19732e-08
1.05255e-11
2.19782e-08
2.30524e-12
2.19802e-08
-5.62549e-12
2.19792e-08
-1.32565e-11
2.19754e-08
-2.05826e-11
2.19688e-08
-2.76019e-11
2.19598e-08
-3.43177e-11
2.19482e-08
-4.07354e-11
-4.68884e-11
2.19342e-08
1.59453e-08
3.96629e-11
1.59644e-08
3.50004e-11
1.59808e-08
2.93869e-11
1.59943e-08
2.32477e-11
1.60049e-08
1.71184e-11
1.60128e-08
1.11417e-11
1.6018e-08
5.32925e-12
1.60206e-08
-3.06165e-13
1.60207e-08
-5.74949e-12
1.60185e-08
-1.09902e-11
1.60139e-08
-1.6021e-11
1.60071e-08
-2.08383e-11
1.59983e-08
-2.54427e-11
1.59874e-08
-2.9838e-11
-3.4053e-11
1.59745e-08
1.1342e-08
2.41909e-11
1.13556e-08
2.13402e-11
1.13673e-08
1.77512e-11
1.13767e-08
1.38004e-11
1.1384e-08
9.87301e-12
1.13891e-08
6.04163e-12
1.13921e-08
2.30901e-12
1.13931e-08
-1.31508e-12
1.13922e-08
-4.81893e-12
1.13894e-08
-8.19356e-12
1.13848e-08
-1.14324e-11
1.13785e-08
-1.45317e-11
1.13705e-08
-1.74911e-11
1.1361e-08
-2.03126e-11
-2.30191e-11
1.135e-08
7.79821e-09
1.35979e-11
7.8076e-09
1.19525e-11
7.81552e-09
9.82745e-12
7.82183e-09
7.49416e-12
7.82651e-09
5.1906e-12
7.82961e-09
2.94215e-12
7.83117e-09
7.47766e-13
7.83124e-09
-1.38582e-12
7.82987e-09
-3.45049e-12
7.82712e-09
-5.43968e-12
7.82303e-09
-7.3484e-12
7.81767e-09
-9.17371e-12
7.8111e-09
-1.09151e-11
7.80336e-09
-1.25729e-11
-1.41623e-11
7.7945e-09
5.09712e-09
6.71068e-12
5.10323e-09
5.84398e-12
5.10832e-09
4.73713e-12
5.11228e-09
3.53486e-12
5.11511e-09
2.3566e-12
5.11685e-09
1.20471e-12
5.11752e-09
7.80542e-14
5.11715e-09
-1.01917e-12
5.11578e-09
-2.08203e-12
5.11345e-09
-3.10642e-12
5.11019e-09
-4.08919e-12
5.10605e-09
-5.02841e-12
5.10105e-09
-5.92378e-12
5.09526e-09
-6.77452e-12
-7.58737e-12
5.08868e-09
3.06182e-09
2.6008e-12
3.06545e-09
2.21432e-12
3.06843e-09
1.76173e-12
3.07068e-09
1.27883e-12
3.07223e-09
8.077e-13
3.07309e-09
3.45305e-13
3.07328e-09
-1.08461e-13
3.07281e-09
-5.51328e-13
3.07171e-09
-9.80815e-13
3.07e-09
-1.39488e-12
3.0677e-09
-1.792e-12
3.06484e-09
-2.17113e-12
3.06145e-09
-2.53233e-12
3.05755e-09
-2.8743e-12
-3.19711e-12
3.05316e-09
1.54902e-09
5.47155e-13
1.55081e-09
4.30106e-13
1.55224e-09
3.30408e-13
1.55329e-09
2.25783e-13
1.55398e-09
1.22828e-13
1.5543e-09
2.04932e-14
1.55427e-09
-8.07294e-14
1.5539e-09
-1.7992e-13
1.5532e-09
-2.76235e-13
1.55217e-09
-3.69033e-13
1.55084e-09
-4.57876e-13
1.54921e-09
-5.42414e-13
1.5473e-09
-6.22811e-13
1.54512e-09
-6.98266e-13
-7.65628e-13
1.54269e-09
4.43445e-10
4.43875e-10
4.44205e-10
4.44431e-10
4.44554e-10
4.44575e-10
4.44494e-10
4.44314e-10
4.44038e-10
4.43669e-10
4.43211e-10
4.42668e-10
4.42045e-10
4.41347e-10
4.40582e-10
1.14461e-09
-5.02789e-10
3.20193e-10
1.40875e-09
-4.45086e-10
1.80947e-10
1.68144e-09
-3.14816e-10
4.21283e-11
1.95094e-09
-1.7852e-10
-9.09753e-11
2.2143e-09
-4.64134e-11
-2.16956e-10
2.47216e-09
7.64749e-11
-3.34327e-10
2.72605e-09
1.89227e-10
-4.43118e-10
2.97731e-09
2.91531e-10
-5.42791e-10
3.227e-09
3.82921e-10
-6.3261e-10
3.47593e-09
4.62933e-10
-7.11868e-10
3.72474e-09
5.31198e-10
-7.80007e-10
3.97393e-09
5.87718e-10
-8.3691e-10
4.22399e-09
6.33308e-10
-8.83362e-10
4.47547e-09
6.70276e-10
-9.21758e-10
4.72921e-09
7.03429e-10
-9.57172e-10
4.98658e-09
7.4145e-10
-9.98824e-10
5.24988e-09
7.98464e-10
-1.06176e-09
5.52283e-09
8.95111e-10
-1.16805e-09
5.81099e-09
1.05706e-09
-1.34523e-09
6.12175e-09
1.30711e-09
-1.61787e-09
6.46277e-09
1.64341e-09
-1.98444e-09
6.83789e-09
1.99603e-09
-2.37114e-09
7.18341e-09
1.8682e-09
-2.21372e-09
7.46992e-09
1.38514e-09
-1.67166e-09
7.69454e-09
7.49591e-10
-9.74206e-10
7.85782e-09
4.55215e-11
-2.08796e-10
7.96241e-09
-6.59797e-10
5.55201e-10
8.01169e-09
-1.32018e-09
1.27091e-09
8.00888e-09
-1.90467e-09
1.90747e-09
7.95699e-09
-2.39107e-09
2.44297e-09
7.85891e-09
-2.76265e-09
2.86072e-09
7.71769e-09
-3.00686e-09
3.14808e-09
7.53664e-09
-3.11568e-09
3.29673e-09
7.31924e-09
-3.08589e-09
3.30329e-09
7.06896e-09
-2.91902e-09
3.1693e-09
6.789e-09
-2.6203e-09
2.90026e-09
6.48206e-09
-2.19694e-09
2.50388e-09
6.15028e-09
-1.65579e-09
1.98757e-09
5.79505e-09
-1.00093e-09
1.35616e-09
5.41645e-09
-2.33494e-10
6.121e-10
5.01128e-09
6.42124e-10
-2.36954e-10
4.57105e-09
1.59787e-09
-1.15764e-09
4.08565e-09
2.53823e-09
-2.05283e-09
3.58053e-09
3.22775e-09
-2.72263e-09
3.10742e-09
3.19356e-09
-2.72045e-09
2.38057e-09
-5.67326e-10
2.53687e-09
-6.01387e-10
2.75245e-09
-5.30387e-10
2.99671e-09
-4.22785e-10
3.25357e-09
-3.03272e-10
3.51545e-09
-1.85407e-10
3.77946e-09
-7.47786e-11
4.04457e-09
2.64197e-11
4.31055e-09
1.16939e-10
4.57749e-09
1.95994e-10
4.84558e-09
2.63108e-10
5.11506e-09
3.18236e-10
5.38624e-09
3.62127e-10
5.65958e-09
3.96942e-10
5.93583e-09
4.27179e-10
6.21633e-09
4.60945e-10
6.50341e-09
5.11385e-10
6.80088e-09
5.97641e-10
7.11454e-09
7.43407e-10
7.45214e-09
9.69502e-10
7.82186e-09
1.27369e-09
8.22811e-09
1.58978e-09
8.60275e-09
1.49356e-09
8.91445e-09
1.07344e-09
9.16013e-09
5.03905e-10
9.34015e-09
-1.345e-10
9.4571e-09
-7.76747e-10
9.51438e-09
-1.37746e-09
9.5154e-09
-1.90569e-09
9.4635e-09
-2.33917e-09
9.36204e-09
-2.6612e-09
9.21474e-09
-2.85956e-09
9.02571e-09
-2.92665e-09
8.79949e-09
-2.85967e-09
8.5409e-09
-2.66043e-09
8.25492e-09
-2.33432e-09
7.94677e-09
-1.88879e-09
7.62228e-09
-1.3313e-09
7.28886e-09
-6.67505e-10
6.95699e-09
9.83684e-11
6.64208e-09
9.57031e-10
6.36718e-09
1.87277e-09
6.16773e-09
2.73768e-09
6.08863e-09
3.30685e-09
3.18039e-09
6.01566e-09
4.14234e-09
-5.74157e-10
4.20904e-09
-6.68085e-10
4.34623e-09
-6.67575e-10
4.53549e-09
-6.12042e-10
4.75877e-09
-5.26558e-10
5.00287e-09
-4.29504e-10
5.25989e-09
-3.31802e-10
5.52542e-09
-2.39106e-10
5.79699e-09
-1.54635e-10
6.07327e-09
-8.02867e-11
6.35353e-09
-1.7149e-11
6.63739e-09
3.43747e-11
6.92474e-09
7.47742e-11
7.21575e-09
1.05939e-10
7.51095e-09
1.31973e-10
7.81156e-09
1.60341e-10
8.1198e-09
2.03145e-10
8.43949e-09
2.77946e-10
8.77655e-09
4.06349e-10
9.139e-09
6.07056e-10
9.53543e-09
8.77252e-10
9.9708e-09
1.15441e-09
1.03729e-08
1.09146e-09
1.07086e-08
7.37702e-10
1.09747e-08
2.3789e-10
1.1171e-08
-3.30881e-10
1.13002e-08
-9.0592e-10
1.13656e-08
-1.44281e-09
1.13707e-08
-1.91082e-09
1.13193e-08
-2.28777e-09
1.12153e-08
-2.55724e-09
1.10633e-08
-2.70753e-09
1.08683e-08
-2.73169e-09
1.06363e-08
-2.62764e-09
1.03737e-08
-2.39782e-09
1.00877e-08
-2.04834e-09
9.7866e-09
-1.58767e-09
9.48053e-09
-1.02523e-09
9.18347e-09
-3.70443e-10
8.91597e-09
3.65869e-10
8.70797e-09
1.16503e-09
8.59922e-09
1.98152e-09
8.62745e-09
2.70946e-09
8.78356e-09
3.15074e-09
3.06023e-09
8.90373e-09
6.5482e-09
-5.52396e-10
6.55269e-09
-6.7257e-10
6.61346e-09
-7.28344e-10
6.73154e-09
-7.30123e-10
6.89768e-09
-6.92701e-10
7.09991e-09
-6.31734e-10
7.32815e-09
-5.60038e-10
7.57521e-09
-4.86164e-10
7.83624e-09
-4.15671e-10
8.10809e-09
-3.52129e-10
8.38867e-09
-2.97734e-10
8.67667e-09
-2.5362e-10
8.97126e-09
-2.19818e-10
9.27209e-09
-1.94896e-10
9.57933e-09
-1.75268e-10
9.89388e-09
-1.5421e-10
1.02178e-08
-1.20745e-10
1.05547e-08
-5.89733e-11
1.09105e-08
5.05147e-11
1.12934e-08
2.2417e-10
1.17122e-08
4.58429e-10
1.21724e-08
6.94283e-10
1.25982e-08
6.65569e-10
1.29551e-08
3.808e-10
1.32394e-08
-4.63143e-11
1.34506e-08
-5.421e-10
1.3591e-08
-1.04631e-09
1.36638e-08
-1.51567e-09
1.36729e-08
-1.91992e-09
1.36224e-08
-2.23722e-09
1.35168e-08
-2.45167e-09
1.33617e-08
-2.55237e-09
1.31633e-08
-2.53332e-09
1.29291e-08
-2.39344e-09
1.26675e-08
-2.13623e-09
1.23882e-08
-1.76906e-09
1.21028e-08
-1.30221e-09
1.18255e-08
-7.4802e-10
1.1576e-08
-1.20919e-10
1.13811e-08
5.60783e-10
1.12764e-08
1.2697e-09
1.13015e-08
1.95647e-09
1.14784e-08
2.53254e-09
1.17661e-08
2.86306e-09
2.81734e-09
1.2009e-08
9.75421e-09
-5.18884e-10
9.723e-09
-6.41351e-10
9.72418e-09
-7.29531e-10
9.7718e-09
-7.77737e-10
9.86839e-09
-7.893e-10
1.00092e-08
-7.7253e-10
1.01866e-08
-7.37471e-10
1.03934e-08
-6.92919e-10
1.06234e-08
-6.45706e-10
1.08721e-08
-6.00834e-10
1.11361e-08
-5.6173e-10
1.1413e-08
-5.30481e-10
1.1701e-08
-5.07862e-10
1.19992e-08
-4.93077e-10
1.23071e-08
-4.83208e-10
1.26253e-08
-4.72378e-10
1.29554e-08
-4.50821e-10
1.33008e-08
-4.04383e-10
1.36672e-08
-3.15931e-10
1.40628e-08
-1.71378e-10
1.44964e-08
2.48036e-11
1.49737e-08
2.16975e-10
1.54169e-08
2.22435e-10
1.57897e-08
7.98037e-12
1.60879e-08
-3.44565e-10
1.63108e-08
-7.64962e-10
1.646e-08
-1.19554e-09
1.65388e-08
-1.59442e-09
1.6551e-08
-1.9321e-09
1.65011e-08
-2.18739e-09
1.63947e-08
-2.34523e-09
1.62381e-08
-2.39581e-09
1.60392e-08
-2.33437e-09
1.58069e-08
-2.16119e-09
1.55519e-08
-1.88121e-09
1.52863e-08
-1.5035e-09
1.50247e-08
-1.04055e-09
1.47847e-08
-5.08007e-10
1.45888e-08
7.49887e-11
1.44651e-08
6.84477e-10
1.44463e-08
1.28848e-09
1.45617e-08
1.8411e-09
1.48165e-08
2.27773e-09
1.51598e-08
2.51972e-09
2.50923e-09
1.54679e-08
1.39492e-08
-4.83293e-10
1.39032e-08
-5.95373e-10
1.3868e-08
-6.94344e-10
1.38606e-08
-7.70298e-10
1.38911e-08
-8.19836e-10
1.3963e-08
-8.44473e-10
1.40748e-08
-8.49204e-10
1.42222e-08
-8.40326e-10
1.44004e-08
-8.23956e-10
1.4605e-08
-8.05353e-10
1.48318e-08
-7.88622e-10
1.5078e-08
-7.76622e-10
1.5341e-08
-7.70858e-10
1.56191e-08
-7.71238e-10
1.59115e-08
-7.75585e-10
1.62181e-08
-7.7895e-10
1.65401e-08
-7.72842e-10
1.68806e-08
-7.44904e-10
1.7245e-08
-6.80331e-10
1.76411e-08
-5.67466e-10
1.80777e-08
-4.11804e-10
1.85604e-08
-2.65733e-10
1.90106e-08
-2.27735e-10
1.9391e-08
-3.72401e-10
1.96965e-08
-6.50063e-10
1.99255e-08
-9.93998e-10
2.00793e-08
-1.34934e-09
2.01608e-08
-1.67591e-09
2.0174e-08
-1.94529e-09
2.01239e-08
-2.13731e-09
2.00168e-08
-2.23812e-09
1.98603e-08
-2.2393e-09
1.96636e-08
-2.13767e-09
1.94375e-08
-1.93512e-09
1.91946e-08
-1.63829e-09
1.89492e-08
-1.25812e-09
1.8718e-08
-8.09349e-10
1.85203e-08
-3.10299e-10
1.83785e-08
2.16793e-10
1.83173e-08
7.45645e-10
1.83611e-08
1.24473e-09
1.85255e-08
1.67665e-09
1.88037e-08
1.99958e-09
1.91489e-08
2.17446e-09
2.18274e-09
1.94754e-08
1.93574e-08
-4.50052e-10
1.93097e-08
-5.47657e-10
1.92591e-08
-6.43756e-10
1.92188e-08
-7.30061e-10
1.92004e-08
-8.01426e-10
1.92118e-08
-8.55869e-10
1.9257e-08
-8.94336e-10
1.93365e-08
-9.19832e-10
1.94489e-08
-9.36358e-10
1.95916e-08
-9.48086e-10
1.97618e-08
-9.58789e-10
1.99566e-08
-9.71446e-10
2.01737e-08
-9.87929e-10
2.04111e-08
-1.00866e-09
2.06676e-08
-1.03212e-09
2.09429e-08
-1.05425e-09
2.12379e-08
-1.06783e-09
2.15553e-08
-1.06227e-09
2.19e-08
-1.02509e-09
2.22796e-08
-9.47028e-10
2.27024e-08
-8.34641e-10
2.31738e-08
-7.37077e-10
2.36163e-08
-6.70301e-10
2.39921e-08
-7.48202e-10
2.42948e-08
-9.52705e-10
2.45217e-08
-1.22088e-09
2.46733e-08
-1.50098e-09
2.47523e-08
-1.7549e-09
2.47627e-08
-1.95573e-09
2.47102e-08
-2.08475e-09
2.46017e-08
-2.12964e-09
2.44461e-08
-2.08372e-09
2.4254e-08
-1.9456e-09
2.40379e-08
-1.71897e-09
2.38118e-08
-1.41223e-09
2.35917e-08
-1.038e-09
2.3395e-08
-6.12687e-10
2.32408e-08
-1.5606e-10
2.31486e-08
3.08973e-10
2.31371e-08
7.57159e-10
2.32205e-08
1.16136e-09
2.34028e-08
1.49436e-09
2.36703e-08
1.73206e-09
2.39861e-08
1.85867e-09
1.87376e-09
2.42951e-08
2.62426e-08
-4.19598e-10
2.61984e-08
-5.03442e-10
2.61455e-08
-5.90888e-10
2.60919e-08
-6.76453e-10
2.60462e-08
-7.55771e-10
2.60165e-08
-8.26126e-10
2.60088e-08
-8.86634e-10
2.6027e-08
-9.38091e-10
2.60732e-08
-9.82491e-10
2.61476e-08
-1.02246e-09
2.62495e-08
-1.06076e-09
2.63779e-08
-1.0998e-09
2.65312e-08
-1.14129e-09
2.67083e-08
-1.18576e-09
2.69083e-08
-1.23209e-09
2.7131e-08
-1.27691e-09
2.73773e-08
-1.31413e-09
2.76498e-08
-1.33481e-09
2.79534e-08
-1.32864e-09
2.8295e-08
-1.28863e-09
2.86826e-08
-1.22229e-09
2.91209e-08
-1.17535e-09
2.95367e-08
-1.08606e-09
2.98917e-08
-1.10323e-09
3.01778e-08
-1.2388e-09
3.0391e-08
-1.43408e-09
3.05309e-08
-1.64093e-09
3.05998e-08
-1.82379e-09
3.06018e-08
-1.95773e-09
3.05429e-08
-2.02587e-09
3.04311e-08
-2.01782e-09
3.02763e-08
-1.92886e-09
3.00902e-08
-1.75956e-09
2.98866e-08
-1.51536e-09
2.96806e-08
-1.20619e-09
2.94884e-08
-8.45859e-10
2.93271e-08
-4.51404e-10
2.92135e-08
-4.2452e-11
2.91628e-08
3.59686e-10
2.91867e-08
7.33243e-10
2.92908e-08
1.05733e-09
2.9471e-08
1.31413e-09
2.97116e-08
1.49149e-09
2.99847e-08
1.58556e-09
1.60255e-09
3.02559e-08
3.49078e-08
-3.90265e-10
3.48671e-08
-4.62736e-10
3.48168e-08
-5.40608e-10
3.4761e-08
-6.20597e-10
3.47048e-08
-6.99633e-10
3.46541e-08
-7.75416e-10
3.46142e-08
-8.46693e-10
3.45895e-08
-9.13357e-10
3.45833e-08
-9.76296e-10
3.45979e-08
-1.03706e-09
3.46346e-08
-1.0975e-09
3.46941e-08
-1.15935e-09
3.47767e-08
-1.22388e-09
3.48825e-08
-1.29147e-09
3.50115e-08
-1.36111e-09
3.51645e-08
-1.4299e-09
3.5343e-08
-1.49264e-09
3.555e-08
-1.54183e-09
3.57904e-08
-1.56909e-09
3.60712e-08
-1.56941e-09
3.63999e-08
-1.55097e-09
3.67803e-08
-1.55571e-09
3.71467e-08
-1.45245e-09
3.74615e-08
-1.41806e-09
3.77143e-08
-1.49156e-09
3.78994e-08
-1.61923e-09
3.80156e-08
-1.75709e-09
3.80645e-08
-1.87269e-09
3.80503e-08
-1.94357e-09
3.79796e-08
-1.95515e-09
3.7861e-08
-1.89922e-09
3.77053e-08
-1.77319e-09
3.75253e-08
-1.5795e-09
3.73351e-08
-1.32516e-09
3.715e-08
-1.0211e-09
3.69856e-08
-6.81495e-10
3.68571e-08
-3.22882e-10
3.67779e-08
3.67644e-11
3.67583e-08
3.79287e-10
3.68039e-08
6.87575e-10
3.69142e-08
9.47042e-10
3.70811e-08
1.14723e-09
3.72893e-08
1.28325e-09
3.75183e-08
1.35657e-09
1.37476e-09
3.77461e-08
4.56881e-08
-3.60518e-10
4.56494e-08
-4.23978e-10
4.5602e-08
-4.93262e-10
4.55479e-08
-5.66503e-10
4.549e-08
-6.41732e-10
4.54319e-08
-7.17262e-10
4.53772e-08
-7.91971e-10
4.53293e-08
-8.65486e-10
4.52912e-08
-9.38204e-10
4.52653e-08
-1.01113e-09
4.52534e-08
-1.08561e-09
4.5257e-08
-1.16299e-09
4.52774e-08
-1.2443e-09
4.53158e-08
-1.32983e-09
4.53734e-08
-1.41871e-09
4.5452e-08
-1.50846e-09
4.5554e-08
-1.59468e-09
4.56833e-08
-1.67116e-09
4.58454e-08
-1.73117e-09
4.60473e-08
-1.77133e-09
4.62965e-08
-1.8001e-09
4.65958e-08
-1.85504e-09
4.68906e-08
-1.74729e-09
4.71453e-08
-1.67274e-09
4.7347e-08
-1.69325e-09
4.74885e-08
-1.76075e-09
4.75675e-08
-1.83608e-09
4.75853e-08
-1.89046e-09
4.75461e-08
-1.90444e-09
4.7457e-08
-1.86601e-09
4.73271e-08
-1.76936e-09
4.71679e-08
-1.61394e-09
4.69923e-08
-1.40389e-09
4.68144e-08
-1.14726e-09
4.66486e-08
-8.55352e-10
4.65089e-08
-5.41784e-10
4.64076e-08
-2.21529e-10
4.63542e-08
9.0128e-11
4.63546e-08
3.78848e-10
4.641e-08
6.32246e-10
4.6516e-08
8.41017e-10
4.66634e-08
9.99813e-10
4.6839e-08
1.10772e-09
4.70274e-08
1.16814e-09
1.188e-09
4.72141e-08
5.89398e-08
-3.30633e-10
5.89028e-08
-3.8696e-10
5.88585e-08
-4.49005e-10
5.88078e-08
-5.15783e-10
5.87522e-08
-5.86136e-10
5.86939e-08
-6.58951e-10
5.86353e-08
-7.33361e-10
5.85788e-08
-8.08945e-10
5.85264e-08
-8.85833e-10
5.84799e-08
-9.64674e-10
5.84408e-08
-1.04647e-09
5.84102e-08
-1.13236e-09
5.83891e-08
-1.22325e-09
5.83789e-08
-1.31956e-09
5.83809e-08
-1.42074e-09
5.83973e-08
-1.52489e-09
5.84312e-08
-1.62855e-09
5.84868e-08
-1.7268e-09
5.85702e-08
-1.81451e-09
5.86885e-08
-1.88967e-09
5.8849e-08
-1.96061e-09
5.90539e-08
-2.05998e-09
5.92621e-08
-1.95541e-09
5.94414e-08
-1.85212e-09
5.95776e-08
-1.82942e-09
5.96623e-08
-1.84542e-09
5.96924e-08
-1.86624e-09
5.96693e-08
-1.8673e-09
5.95973e-08
-1.83246e-09
5.94838e-08
-1.75251e-09
5.93384e-08
-1.62397e-09
5.91726e-08
-1.44815e-09
5.89991e-08
-1.23038e-09
5.88311e-08
-9.79205e-10
5.86812e-08
-7.05495e-10
5.85609e-08
-4.2153e-10
5.84794e-08
-1.40004e-10
5.84426e-08
1.26951e-10
5.84527e-08
3.68762e-10
5.85078e-08
5.77124e-10
5.86022e-08
7.46645e-10
5.87268e-08
8.75161e-10
5.88709e-08
9.63689e-10
5.9023e-08
1.01598e-09
1.03774e-09
5.91733e-08
7.50394e-08
-3.03218e-10
7.50064e-08
-3.53919e-10
7.49674e-08
-4.10023e-10
7.49227e-08
-4.71089e-10
7.48731e-08
-5.36533e-10
7.48199e-08
-6.05727e-10
7.47646e-08
-6.78108e-10
7.4709e-08
-7.53327e-10
7.46546e-08
-8.31385e-10
7.46026e-08
-9.12661e-10
7.45539e-08
-9.97843e-10
7.45093e-08
-1.08778e-09
7.44694e-08
-1.18327e-09
7.44346e-08
-1.28476e-09
7.44058e-08
-1.39201e-09
7.43847e-08
-1.50377e-09
7.43737e-08
-1.61757e-09
7.43768e-08
-1.72985e-09
7.43994e-08
-1.83708e-09
7.44482e-08
-1.93849e-09
7.45296e-08
-2.04199e-09
7.46446e-08
-2.17506e-09
7.47657e-08
-2.07649e-09
7.48663e-08
-1.95273e-09
7.49319e-08
-1.89497e-09
7.49541e-08
-1.86762e-09
7.49301e-08
-1.84225e-09
7.48615e-08
-1.79868e-09
7.47532e-08
-1.72418e-09
7.46129e-08
-1.61226e-09
7.44505e-08
-1.4615e-09
7.42769e-08
-1.27463e-09
7.41041e-08
-1.0576e-09
7.39437e-08
-8.18734e-10
7.3806e-08
-5.67834e-10
7.36998e-08
-3.15275e-10
7.36309e-08
-7.11611e-11
7.36024e-08
1.55473e-10
7.36138e-08
3.57324e-10
7.36617e-08
5.29227e-10
7.374e-08
6.6842e-10
7.38406e-08
7.74533e-10
7.39549e-08
8.49329e-10
7.40747e-08
8.96231e-10
9.19718e-10
7.41927e-08
9.44085e-08
-2.82028e-10
9.4383e-08
-3.28409e-10
9.43528e-08
-3.79801e-10
9.43178e-08
-4.36094e-10
9.42783e-08
-4.97088e-10
9.42351e-08
-5.62533e-10
9.41892e-08
-6.3216e-10
9.41416e-08
-7.05777e-10
9.40936e-08
-7.83378e-10
9.40461e-08
-8.65192e-10
9.4e-08
-9.51666e-10
9.39556e-08
-1.04338e-09
9.39132e-08
-1.14092e-09
9.38731e-08
-1.24464e-09
9.38355e-08
-1.35444e-09
9.38013e-08
-1.46953e-09
9.37719e-08
-1.58823e-09
9.37503e-08
-1.70816e-09
9.37403e-08
-1.82713e-09
9.37472e-08
-1.94535e-09
9.37752e-08
-2.07001e-09
9.38235e-08
-2.22334e-09
9.38748e-08
-2.1278e-09
9.39087e-08
-1.98667e-09
9.39123e-08
-1.89852e-09
9.38785e-08
-1.83384e-09
9.38057e-08
-1.76946e-09
9.36964e-08
-1.68941e-09
9.35564e-08
-1.58418e-09
9.33938e-08
-1.44962e-09
9.32182e-08
-1.2859e-09
9.30401e-08
-1.09653e-09
9.28699e-08
-8.87422e-10
9.27172e-08
-6.66079e-10
9.25902e-08
-4.40739e-10
9.24945e-08
-2.19624e-10
9.24336e-08