/*--------------------------------*- C++ -*----------------------------------*\
| =========                 |                                                 |
| \\      /  F ield         | OpenFOAM: The Open Source CFD Toolbox           |
|  \\    /   O peration     | Version:  2312                                  |
|   \\  /    A nd           | Website:  www.openfoam.com                      |
|    \\/     M anipulation  |                                                 |
\*---------------------------------------------------------------------------*/
FoamFile
{
    version     2.0;
    format      ascii;
    arch        "LSB;label=32;scalar=64";
    class       volVectorField;
    location    "500";
    object      U;
}
// * * * * * * * * * * * * * * * * * * * * * * * * * * * * * * * * * * * * * //

dimensions      [0 1 -1 0 0 0 0];

internalField   nonuniform List<vector> 
4800
(
(0.000452633 1.60613e-07 -3.49764e-26)
(0.000445232 2.22443e-07 -2.4592e-25)
(0.000440753 2.64703e-07 3.15285e-25)
(0.000438223 2.87669e-07 1.4401e-25)
(0.000437148 2.94954e-07 2.12529e-24)
(0.000437191 2.86021e-07 -5.0554e-24)
(0.000438178 2.58265e-07 4.71491e-24)
(0.000440048 2.06147e-07 -6.80842e-24)
(0.000442856 1.17316e-07 2.17104e-24)
(0.000446831 -4.16006e-08 7.35965e-24)
(0.000452633 -3.91088e-07 -2.24489e-24)
(0.000462165 -1.3891e-06 -1.77055e-25)
(0.00048103 -4.47759e-06 -2.69408e-24)
(0.000530194 -2.01193e-05 1.21424e-24)
(0.000607593 -0.000101624 -9.39689e-25)
(0.0013996 1.61251e-06 -1.42016e-25)
(0.00137688 1.17233e-06 1.76483e-25)
(0.00136295 8.36528e-07 -1.6192e-24)
(0.00135486 5.26681e-07 1.20466e-24)
(0.00135105 2.09916e-07 3.84268e-24)
(0.00135053 -1.45064e-07 -6.08925e-24)
(0.00135274 -5.83762e-07 -1.72274e-24)
(0.00135746 -1.1755e-06 -4.02476e-25)
(0.00136481 -2.04893e-06 1.36902e-23)
(0.00137531 -3.50507e-06 -9.91502e-24)
(0.00139036 -6.41444e-06 1.05289e-24)
(0.00141317 -1.34376e-05 1.55937e-24)
(0.0014505 -3.16718e-05 -2.22989e-24)
(0.00151638 -7.82289e-05 -6.47764e-25)
(0.00158879 -0.000187997 2.66077e-24)
(0.00244638 5.15179e-06 -1.13372e-25)
(0.0024071 3.7139e-06 1.15257e-25)
(0.00238278 2.62277e-06 1.17499e-24)
(0.00236832 1.64552e-06 -2.77828e-24)
(0.00236105 6.6981e-07 2.69835e-24)
(0.00235925 -3.99003e-07 2.5115e-24)
(0.00236193 -1.69012e-06 -6.41634e-24)
(0.00236865 -3.39596e-06 -3.89149e-24)
(0.00237945 -5.85645e-06 9.09033e-24)
(0.0023949 -9.78535e-06 3.32786e-24)
(0.00241641 -1.69009e-05 -1.11646e-23)
(0.00244638 -3.13868e-05 -1.62478e-24)
(0.00248762 -6.20156e-05 4.35286e-24)
(0.00254083 -0.000122952 6.52992e-24)
(0.00258166 -0.000226039 -3.21126e-24)
(0.00359892 1.14939e-05 4.70313e-26)
(0.00354214 8.36618e-06 -3.24223e-25)
(0.00350658 5.99203e-06 1.43008e-24)
(0.00348497 3.89792e-06 1.50915e-24)
(0.00347341 1.83363e-06 -1.4758e-24)
(0.00346946 -3.97982e-07 -8.36891e-24)
(0.00347163 -3.04847e-06 -5.57641e-24)
(0.00347915 -6.47893e-06 2.02892e-23)
(0.0034918 -1.12879e-05 8.10574e-24)
(0.00350984 -1.86002e-05 -1.11684e-23)
(0.00353392 -3.06974e-05 -4.28926e-24)
(0.00356452 -5.20479e-05 -3.10024e-24)
(0.00360013 -8.98058e-05 8.61141e-26)
(0.00363465 -0.000150962 2.02384e-24)
(0.00365112 -0.000233403 9.3707e-27)
(0.00486116 2.13304e-05 -9.72143e-26)
(0.0047866 1.56749e-05 -5.85456e-25)
(0.00473928 1.13738e-05 -3.64206e-25)
(0.00470987 7.63145e-06 9.65578e-25)
(0.00469325 3.99556e-06 -2.67784e-24)
(0.00468622 1.26072e-07 6.49279e-24)
(0.00468674 -4.37504e-06 -1.10307e-24)
(0.00469363 -1.00461e-05 3.72544e-24)
(0.00470621 -1.77061e-05 -1.97346e-23)
(0.00472415 -2.87068e-05 3.54707e-23)
(0.004747 -4.53318e-05 -3.22929e-23)
(0.0047734 -7.11241e-05 1.59473e-23)
(0.00479962 -0.000110209 -1.37928e-23)
(0.00481871 -0.000164086 1.21037e-23)
(0.00482147 -0.000226764 -4.54902e-24)
(0.00623344 3.53846e-05 1.44545e-25)
(0.00614215 2.62734e-05 5.0592e-25)
(0.00608327 1.93166e-05 -2.60722e-24)
(0.00604585 1.33352e-05 -1.60195e-24)
(0.00602363 7.61581e-06 4.15534e-24)
(0.00601268 1.63936e-06 1.43244e-24)
(0.00601045 -5.1436e-06 -1.06946e-23)
(0.00601523 -1.34155e-05 2.4182e-23)
(0.00602583 -2.41065e-05 -2.95891e-23)
(0.00604118 -3.85321e-05 6.62688e-24)
(0.00605988 -5.84913e-05 1.8751e-23)
(0.00607955 -8.60759e-05 -2.41093e-23)
(0.00609622 -0.000122724 1.11469e-23)
(0.00610471 -0.000167236 1.05626e-23)
(0.00610098 -0.000214184 -7.55206e-24)
(0.00771047 5.41986e-05 1.33695e-25)
(0.00760565 4.07248e-05 -7.6677e-25)
(0.00753678 3.0367e-05 2.65345e-24)
(0.00749195 2.15392e-05 -3.53682e-24)
(0.00746415 1.32323e-05 -1.14696e-23)
(0.00744886 4.72547e-06 1.85456e-23)
(0.00744303 -4.66698e-06 -1.06011e-23)
(0.0074445 -1.57065e-05 3.3706e-23)
(0.00745154 -2.92956e-05 -2.12698e-23)
(0.00746249 -4.64899e-05 -9.17672e-24)
(0.00747537 -6.83832e-05 -1.65989e-23)
(0.00748763 -9.57477e-05 1.39933e-23)
(0.00749611 -0.000128365 3.61078e-24)
(0.00749769 -0.000164252 2.8404e-24)
(0.00749114 -0.000199589 -2.34364e-24)
(0.0092789 7.77428e-05 -2.13119e-25)
(0.00916699 5.92307e-05 2.77213e-24)
(0.00909174 4.48456e-05 -6.16455e-24)
(0.00904155 3.26351e-05 -4.78518e-24)
(0.00900918 2.13085e-05 1.69057e-24)
(0.00898986 9.94797e-06 3.10673e-24)
(0.00898023 -2.23419e-06 1.03584e-23)
(0.00897777 -1.60007e-05 -2.60022e-23)
(0.00898038 -3.21078e-05 -1.27209e-23)
(0.00898605 -5.12381e-05 3.1946e-23)
(0.0089927 -7.38226e-05 -9.02292e-24)
(0.00899808 -9.97593e-05 2.81042e-23)
(0.00900008 -0.000128131 -1.35097e-23)
(0.0089971 -0.000157112 -3.94651e-24)
(0.00898918 -0.00018431 2.19037e-24)
(0.010916 0.000104859 -3.0699e-26)
(0.0108072 8.11854e-05 1.64312e-24)
(0.0107319 6.24904e-05 -2.20636e-24)
(0.0106803 4.65859e-05 4.94406e-24)
(0.0106459 3.19843e-05 -2.73878e-23)
(0.010624 1.76208e-05 2.6683e-23)
(0.0106113 2.66056e-06 -3.85648e-23)
(0.0106052 -1.35908e-05 2.15886e-23)
(0.0106035 -3.16794e-05 1.45645e-23)
(0.0106041 -5.19246e-05 2.86189e-23)
(0.0106052 -7.42885e-05 -3.38364e-23)
(0.010605 -9.82564e-05 -5.67122e-24)
(0.0106022 -0.000122819 2.39365e-24)
(0.0105962 -0.000146626 1.56027e-23)
(0.0105875 -0.000168282 -5.95343e-24)
(0.0125917 0.000132706 1.80134e-25)
(0.012499 0.000104649 -7.26338e-25)
(0.0124325 8.19803e-05 3.00819e-24)
(0.0123854 6.25038e-05 -9.73217e-24)
(0.012353 4.46974e-05 1.35219e-23)
(0.0123314 2.74548e-05 -1.59067e-23)
(0.0123177 9.96906e-06 2.41467e-23)
(0.0123095 -8.33406e-06 3.81928e-24)
(0.0123047 -2.7788e-05 -2.70322e-23)
(0.0123015 -4.84418e-05 3.46368e-23)
(0.0122985 -7.00166e-05 -3.44468e-23)
(0.0122944 -9.19148e-05 -9.16331e-24)
(0.0122887 -0.000113315 1.47353e-23)
(0.0122809 -0.000133345 4.00172e-24)
(0.0122719 -0.000151242 -1.64332e-24)
(0.0142783 0.000156803 7.57779e-25)
(0.0142133 0.000126133 -5.8039e-24)
(0.0141644 0.000100601 -8.50714e-24)
(0.0141287 7.8276e-05 1.83958e-23)
(0.0141034 5.78014e-05 7.44114e-24)
(0.014086 3.81749e-05 -4.21509e-23)
(0.0140742 1.87036e-05 1.16776e-23)
(0.0140662 -1.03341e-06 7.5423e-24)
(0.0140605 -2.11946e-05 -2.91598e-23)
(0.0140556 -4.16769e-05 2.72732e-23)
(0.0140506 -6.21424e-05 -1.96035e-23)
(0.0140448 -8.20862e-05 4.56308e-23)
(0.0140379 -0.000100946 -1.99738e-23)
(0.0140297 -0.00011822 1.0794e-23)
(0.014021 -0.000133527 -2.77573e-24)
(0.0159658 0.000172703 -2.97905e-25)
(0.0159324 0.000141535 3.9474e-24)
(0.0159059 0.000114733 -6.97732e-24)
(0.0158859 9.07782e-05 -3.18706e-24)
(0.0158716 6.86172e-05 3.19588e-23)
(0.0158616 4.74702e-05 -4.16171e-24)
(0.0158546 2.68266e-05 -4.5383e-23)
(0.0158495 6.42772e-06 4.72672e-23)
(0.0158453 -1.37606e-05 -9.50165e-24)
(0.0158411 -3.35819e-05 -2.94053e-23)
(0.0158364 -5.27442e-05 2.82424e-23)
(0.0158309 -7.08946e-05 1.37597e-23)
(0.0158245 -8.77001e-05 -1.06336e-23)
(0.0158173 -0.000102913 -1.68976e-23)
(0.0158098 -0.00011637 1.33995e-24)
(0.0176719 0.000179216 9.44546e-28)
(0.0176625 0.000148743 -4.32814e-24)
(0.0176548 0.000121872 1.84601e-23)
(0.0176494 9.74196e-05 1.03738e-24)
(0.017646 7.46159e-05 8.36806e-24)
(0.017644 5.2917e-05 -2.66637e-23)
(0.0176429 3.19943e-05 2.02562e-23)
(0.0176419 1.17201e-05 4.09338e-24)
(0.0176406 -7.87211e-06 3.31139e-23)
(0.0176386 -2.66362e-05 -4.59884e-23)
(0.0176358 -4.43678e-05 -1.87579e-23)
(0.017632 -6.08593e-05 -1.1231e-23)
(0.0176274 -7.59465e-05 1.94532e-23)
(0.0176219 -8.9539e-05 -5.12335e-25)
(0.0176164 -0.000101593 1.65064e-24)
(0.0194237 0.000179684 -6.44602e-26)
(0.0194252 0.000149768 4.26637e-24)
(0.0194273 0.000123028 -5.52884e-24)
(0.01943 9.85076e-05 7.65881e-28)
(0.019433 7.56221e-05 5.76199e-24)
(0.0194361 5.39871e-05 1.30161e-23)
(0.0194388 3.3389e-05 -4.48679e-23)
(0.0194408 1.37621e-05 3.40488e-24)
(0.0194419 -4.85516e-06 1.82187e-23)
(0.019442 -2.23676e-05 -7.51562e-24)
(0.019441 -3.86651e-05 1.8632e-23)
(0.019439 -5.36566e-05 1.18618e-23)
(0.0194363 -6.7291e-05 -1.98672e-23)
(0.0194328 -7.95693e-05 1.25774e-23)
(0.0194291 -9.05101e-05 -9.9696e-24)
(0.0212188 0.000178343 -1.91483e-24)
(0.0212227 0.000148623 8.21267e-25)
(0.0212269 0.000121816 6.22025e-24)
(0.0212315 9.71978e-05 -2.8434e-23)
(0.021236 7.43325e-05 2.21856e-23)
(0.0212402 5.29349e-05 -1.4376e-23)
(0.0212437 3.28424e-05 9.18588e-24)
(0.0212463 1.3992e-05 -5.81335e-23)
(0.021248 -3.61694e-06 7.54575e-23)
(0.0212487 -1.99585e-05 -4.00998e-23)
(0.0212484 -3.50085e-05 3.2632e-23)
(0.0212473 -4.87617e-05 2.49439e-23)
(0.0212456 -6.12398e-05 -4.03834e-23)
(0.0212431 -7.24955e-05 1.2255e-23)
(0.0212407 -8.25788e-05 -4.91462e-25)
(0.0230047 0.000176501 -6.53949e-26)
(0.0230096 0.000147231 -5.63288e-25)
(0.023014 0.000120558 3.96688e-25)
(0.0230183 9.60274e-05 -7.3569e-25)
(0.0230223 7.33509e-05 8.49196e-24)
(0.0230257 5.23213e-05 -1.29779e-23)
(0.0230285 3.28016e-05 1.07738e-23)
(0.0230304 1.47115e-05 -3.05798e-23)
(0.0230314 -1.99667e-06 6.28255e-23)
(0.0230317 -1.73595e-05 -7.30603e-23)
(0.0230312 -3.1417e-05 5.47944e-23)
(0.0230301 -4.42209e-05 -1.70941e-23)
(0.0230285 -5.58354e-05 8.1556e-25)
(0.0230264 -6.63408e-05 3.3899e-24)
(0.0230242 -7.57997e-05 -6.27276e-24)
(0.0246924 0.00017313 -5.14469e-24)
(0.0246992 0.000144949 8.09992e-24)
(0.0247047 0.000118984 -2.39271e-24)
(0.0247092 9.50396e-05 -3.46638e-24)
(0.024713 7.2955e-05 1.25625e-23)
(0.024716 5.25877e-05 -1.1419e-23)
(0.0247181 3.38202e-05 -9.22215e-24)
(0.0247195 1.65583e-05 -2.00798e-23)
(0.02472 7.20726e-07 9.3824e-24)
(0.0247199 -1.37702e-05 4.0647e-23)
(0.0247192 -2.69931e-05 -1.97999e-23)
(0.0247179 -3.90305e-05 1.0934e-23)
(0.0247162 -4.99671e-05 -4.24246e-24)
(0.0247141 -5.98943e-05 -1.17765e-23)
(0.024712 -6.88755e-05 5.80863e-24)
(0.0261707 0.000167147 1.59789e-24)
(0.0261799 0.000140705 -2.43452e-24)
(0.0261868 0.000116082 -6.96877e-25)
(0.0261923 9.32912e-05 -1.43901e-24)
(0.0261965 7.22672e-05 -3.54121e-24)
(0.0261996 5.29159e-05 1.63335e-23)
(0.0262017 3.51386e-05 -1.18839e-23)
(0.026203 1.88384e-05 -6.94847e-24)
(0.0262035 3.91861e-06 5.84856e-24)
(0.0262033 -9.71681e-06 -6.32334e-24)
(0.0262026 -2.21625e-05 1.37186e-23)
(0.0262013 -3.35119e-05 6.48865e-24)
(0.0261997 -4.38536e-05 -2.28868e-23)
(0.0261977 -5.32796e-05 1.50159e-23)
(0.0261957 -6.18473e-05 -2.96066e-24)
(0.0273012 0.000158121 4.47284e-24)
(0.0273122 0.00013397 6.69669e-24)
(0.0273204 0.000111264 -1.32224e-23)
(0.0273267 9.01543e-05 -7.52727e-25)
(0.0273315 7.06354e-05 2.61372e-24)
(0.0273349 5.26461e-05 -4.65722e-24)
(0.0273373 3.61086e-05 -6.87518e-24)
(0.0273387 2.0934e-05 1.35572e-23)
(0.0273393 7.0268e-06 1.40445e-23)
(0.0273393 -5.71034e-06 -3.17566e-23)
(0.0273387 -1.73717e-05 1.71784e-23)
(0.0273376 -2.80471e-05 -1.13466e-24)
(0.0273362 -3.78185e-05 -8.98892e-25)
(0.0273343 -4.67699e-05 1.15984e-24)
(0.0273324 -5.49475e-05 -5.20257e-25)
(0.0278999 0.000145979 -1.1195e-23)
(0.027912 0.000124603 -2.14422e-23)
(0.0279211 0.000104326 1.01544e-23)
(0.0279281 8.53741e-05 3.1652e-23)
(0.0279333 6.77664e-05 -8.03036e-24)
(0.0279371 5.14653e-05 -2.19292e-24)
(0.0279396 3.64153e-05 9.77964e-25)
(0.0279412 2.25452e-05 -5.68632e-24)
(0.027942 9.77255e-06 1.47019e-23)
(0.027942 -1.98828e-06 -6.14754e-24)
(0.0279416 -1.28198e-05 3.6272e-24)
(0.0279406 -2.27993e-05 -5.41308e-24)
(0.0279393 -3.19955e-05 -6.01529e-24)
(0.0279376 -4.04788e-05 8.70268e-24)
(0.0279357 -4.82811e-05 -3.72261e-24)
(0.0277324 0.000131232 1.70973e-23)
(0.027745 0.00011302 -3.50443e-23)
(0.0277546 9.55911e-05 5.1588e-24)
(0.0277619 7.91781e-05 4.17483e-23)
(0.0277673 6.38097e-05 -3.71195e-23)
(0.0277712 4.94686e-05 1.19753e-23)
(0.0277738 3.61224e-05 7.40683e-24)
(0.0277754 2.37205e-05 -1.5656e-23)
(0.0277762 1.21996e-05 3.14552e-24)
(0.0277763 1.49289e-06 1.86032e-24)
(0.0277758 -8.46401e-06 -1.10264e-24)
(0.0277749 -1.7732e-05 2.41499e-24)
(0.0277735 -2.63652e-05 -2.8998e-24)
(0.0277719 -3.44181e-05 1.94097e-24)
(0.0277699 -4.19152e-05 -8.8813e-25)
(0.0268137 0.000115826 1.03494e-23)
(0.0268264 0.00010077 -1.96589e-23)
(0.0268364 8.62131e-05 -1.2348e-23)
(0.0268441 7.23553e-05 5.32773e-23)
(0.0268499 5.92347e-05 -4.52013e-23)
(0.026854 4.68567e-05 4.49591e-24)
(0.026857 3.52108e-05 6.59186e-24)
(0.0268589 2.4266e-05 3.33977e-24)
(0.0268599 1.3979e-05 2.46389e-24)
(0.0268602 4.30347e-06 -1.0699e-23)
(0.02686 -4.80542e-06 6.61554e-24)
(0.0268592 -1.33901e-05 9.67197e-25)
(0.026858 -2.14892e-05 -2.18621e-24)
(0.0268565 -2.91401e-05 1.16642e-24)
(0.0268545 -3.63639e-05 7.39019e-25)
(0.0253958 0.00010141 2.55385e-23)
(0.0254086 8.90829e-05 -4.12472e-23)
(0.0254189 7.70179e-05 7.77398e-24)
(0.025427 6.53777e-05 -1.7024e-23)
(0.0254332 5.42133e-05 -2.04916e-23)
(0.0254379 4.35525e-05 6.54091e-23)
(0.0254413 3.34037e-05 -2.38545e-23)
(0.0254436 2.37532e-05 6.31085e-24)
(0.0254451 1.45762e-05 -3.29574e-24)
(0.0254459 5.845e-06 -7.27195e-24)
(0.025446 -2.4671e-06 1.27257e-23)
(0.0254455 -1.03853e-05 -5.98205e-24)
(0.0254446 -1.79335e-05 9.34803e-25)
(0.0254433 -2.5134e-05 2.22073e-25)
(0.0254415 -3.20017e-05 4.2273e-26)
(0.0236624 8.79806e-05 9.89116e-24)
(0.0236753 7.79391e-05 -4.69682e-23)
(0.0236859 6.79816e-05 7.56646e-23)
(0.0236944 5.82323e-05 -5.39396e-23)
(0.0237011 4.87536e-05 5.0547e-23)
(0.0237063 3.95923e-05 -1.59481e-23)
(0.0237102 3.07708e-05 -1.04548e-23)
(0.0237132 2.2289e-05 -1.07928e-23)
(0.0237152 1.41371e-05 1.78589e-23)
(0.0237164 6.30332e-06 -1.06553e-24)
(0.0237169 -1.22436e-06 -1.54776e-23)
(0.0237168 -8.45777e-06 -1.55824e-24)
(0.0237162 -1.54092e-05 2.76734e-24)
(0.0237151 -2.20894e-05 -4.37349e-25)
(0.0237134 -2.85076e-05 5.60085e-26)
(0.0217489 7.55678e-05 1.3368e-24)
(0.0217619 6.7425e-05 -1.81295e-23)
(0.0217728 5.9235e-05 -9.44685e-24)
(0.0217818 5.10863e-05 7.3052e-23)
(0.021789 4.30521e-05 -6.80822e-23)
(0.0217947 3.51953e-05 1.89728e-23)
(0.0217993 2.75488e-05 3.05645e-24)
(0.0218028 2.0123e-05 -1.53415e-24)
(0.0218053 1.29199e-05 -6.86294e-24)
(0.021807 5.94011e-06 2.85883e-23)
(0.021808 -8.17118e-07 -2.20836e-23)
(0.0218082 -7.3536e-06 -8.2109e-25)
(0.0218079 -1.36729e-05 1.68828e-24)
(0.021807 -1.97776e-05 1.0213e-24)
(0.0218054 -2.56717e-05 -7.38708e-25)
(0.0197549 6.40953e-05 2.0326e-24)
(0.019768 5.75133e-05 1.73808e-23)
(0.0197793 5.07908e-05 -1.88775e-23)
(0.0197887 4.39877e-05 -1.23808e-23)
(0.0197965 3.71886e-05 7.52336e-23)
(0.0198029 3.04689e-05 -5.53223e-23)
(0.019808 2.38687e-05 -1.24121e-24)
(0.0198121 1.74048e-05 -1.06085e-23)
(0.0198152 1.10878e-05 -7.71999e-25)
(0.0198174 4.92716e-06 1.48183e-24)
(0.0198188 -1.07017e-06 -4.94803e-24)
(0.0198194 -6.89929e-06 4.19526e-24)
(0.0198193 -1.2558e-05 1.49796e-24)
(0.0198186 -1.80432e-05 1.24099e-24)
(0.0198172 -2.33557e-05 1.04353e-24)
(0.017753 5.34628e-05 1.48329e-23)
(0.0177663 4.8164e-05 -2.15253e-23)
(0.017778 4.26627e-05 -1.64415e-23)
(0.0177879 3.6998e-05 4.80733e-23)
(0.0177962 3.12651e-05 -1.65839e-23)
(0.0178031 2.55484e-05 -2.24838e-23)
(0.0178089 1.98909e-05 7.65119e-24)
(0.0178135 1.43132e-05 1.65283e-23)
(0.0178171 8.83137e-06 -2.55658e-23)
(0.0178197 3.46057e-06 2.46678e-23)
(0.0178215 -1.78745e-06 -1.27828e-23)
(0.0178224 -6.90389e-06 5.26319e-24)
(0.0178225 -1.1883e-05 -6.37671e-24)
(0.0178219 -1.67184e-05 6.0214e-24)
(0.0178205 -2.14089e-05 -1.32696e-24)
(0.0157949 4.36382e-05 -2.94253e-24)
(0.0158083 3.94038e-05 -9.75044e-24)
(0.0158202 3.49287e-05 -2.98212e-23)
(0.0158305 3.02396e-05 8.03872e-23)
(0.0158392 2.54415e-05 -1.39874e-23)
(0.0158465 2.06232e-05 -2.1334e-23)
(0.0158526 1.58275e-05 7.175e-24)
(0.0158576 1.10763e-05 -1.02004e-23)
(0.0158615 6.38921e-06 -2.14419e-23)
(0.0158644 1.78417e-06 2.03509e-23)
(0.0158663 -2.72477e-06 9.59462e-25)
(0.0158673 -7.12703e-06 -6.04735e-24)
(0.0158674 -1.14151e-05 6.84097e-24)
(0.0158667 -1.55813e-05 3.61846e-25)
(0.0158651 -1.96236e-05 -4.63482e-25)
(0.013915 3.47008e-05 1.15048e-23)
(0.0139283 3.13616e-05 1.62995e-23)
(0.0139401 2.77614e-05 -1.47299e-23)
(0.0139504 2.3922e-05 -3.11977e-23)
(0.0139592 1.99568e-05 4.09113e-23)
(0.0139666 1.59545e-05 -4.37633e-23)
(0.0139728 1.19552e-05 -1.62793e-24)
(0.0139778 7.98078e-06 1.63409e-23)
(0.0139817 4.052e-06 5.59072e-24)
(0.0139846 1.87642e-07 -1.13011e-23)
(0.0139864 -3.59796e-06 1.16936e-25)
(0.0139872 -7.294e-06 2.2263e-23)
(0.013987 -1.08927e-05 -8.4283e-24)
(0.0139859 -1.43863e-05 -2.05052e-24)
(0.0139839 -1.77731e-05 -1.19898e-25)
(0.0121344 2.68008e-05 -1.20191e-23)
(0.0121471 2.42202e-05 1.5022e-23)
(0.0121585 2.13709e-05 1.64552e-24)
(0.0121684 1.82774e-05 2.89521e-23)
(0.0121769 1.50585e-05 -2.31446e-23)
(0.0121841 1.17992e-05 1.80502e-24)
(0.01219 8.53485e-06 -2.41252e-24)
(0.0121947 5.28635e-06 -6.94552e-24)
(0.0121983 2.07402e-06 5.95981e-24)
(0.0122007 -1.08449e-06 -1.90515e-23)
(0.0122021 -4.17608e-06 1.37334e-24)
(0.0122024 -7.19078e-06 4.47246e-24)
(0.0122017 -1.01215e-05 2.73628e-24)
(0.0122 -1.29617e-05 1.04413e-24)
(0.0121973 -1.57105e-05 3.54658e-25)
(0.0104645 2.00675e-05 8.82912e-24)
(0.0104763 1.81246e-05 -6.82932e-24)
(0.0104868 1.59156e-05 -2.94533e-23)
(0.010496 1.34732e-05 2.71836e-23)
(0.0105038 1.09186e-05 3.74009e-23)
(0.0105104 8.32913e-06 -9.37087e-24)
(0.0105157 5.73437e-06 -1.88729e-23)
(0.0105198 3.15299e-06 -2.61762e-23)
(0.0105227 6.03301e-07 1.95689e-23)
(0.0105245 -1.89967e-06 1.12273e-24)
(0.0105253 -4.34504e-06 -4.31072e-24)
(0.0105249 -6.72445e-06 -1.13742e-24)
(0.0105235 -9.03216e-06 2.33336e-24)
(0.0105211 -1.12633e-05 -9.36853e-26)
(0.0105176 -1.34184e-05 -4.27212e-25)
(0.0089103 1.45438e-05 -5.4184e-24)
(0.00892079 1.31245e-05 -3.80232e-24)
(0.00893021 1.14515e-05 4.56135e-24)
(0.00893838 9.56955e-06 -1.43001e-23)
(0.00894528 7.59779e-06 4.64237e-23)
(0.00895097 5.60166e-06 -6.09914e-23)
(0.00895546 3.60411e-06 5.93549e-23)
(0.00895877 1.62051e-06 -2.49691e-23)
(0.00896094 -3.34311e-07 5.63368e-24)
(0.00896199 -2.24875e-06 6.27299e-26)
(0.00896195 -4.11444e-06 -4.35382e-24)
(0.00896085 -5.92496e-06 1.42442e-24)
(0.00895873 -7.67611e-06 -3.24892e-24)
(0.00895562 -9.3647e-06 -4.1365e-25)
(0.00895153 -1.09928e-05 2.04385e-25)
(0.00747261 1.01745e-05 -2.52083e-24)
(0.00748167 9.17054e-06 6.37563e-25)
(0.00748981 7.93668e-06 1.3754e-24)
(0.00749682 6.52974e-06 -6.33395e-24)
(0.00750266 5.05969e-06 -2.83893e-24)
(0.00750736 3.57705e-06 2.44039e-23)
(0.00751093 2.09748e-06 -1.42712e-23)
(0.00751339 6.32371e-07 2.03289e-24)
(0.00751476 -8.07472e-07 -1.96123e-24)
(0.00751506 -2.21379e-06 -2.09961e-24)
(0.00751433 -3.58052e-06 -5.96238e-25)
(0.0075126 -4.90308e-06 3.92645e-24)
(0.0075099 -6.17867e-06 9.42881e-25)
(0.00750627 -7.40549e-06 -2.28462e-24)
(0.00750171 -8.5867e-06 -3.38011e-25)
(0.00614966 6.83301e-06 -8.6226e-25)
(0.00615725 6.14689e-06 -2.83949e-25)
(0.00616407 5.26639e-06 -1.37212e-23)
(0.00616987 4.25532e-06 3.60657e-24)
(0.00617462 3.20691e-06 -9.77928e-24)
(0.00617832 2.15531e-06 6.8109e-24)
(0.00618099 1.10953e-06 1.28586e-23)
(0.00618264 7.71773e-08 9.6033e-24)
(0.00618329 -9.34533e-07 -1.34204e-23)
(0.00618297 -1.92008e-06 4.03698e-24)
(0.00618171 -2.8753e-06 3.4057e-24)
(0.00617954 -3.79713e-06 -4.83021e-24)
(0.00617649 -4.68381e-06 2.56864e-24)
(0.00617259 -5.53451e-06 -1.66148e-25)
(0.00616787 -6.35286e-06 6.12503e-25)
(0.0049379 4.35964e-06 -3.12831e-24)
(0.00494406 3.90897e-06 -4.27138e-24)
(0.00494957 3.30863e-06 -7.76431e-25)
(0.0049542 2.62029e-06 1.05441e-23)
(0.0049579 1.91479e-06 -7.44457e-24)
(0.00496067 1.21134e-06 -1.44245e-24)
(0.00496254 5.14164e-07 1.19306e-23)
(0.00496351 -1.72114e-07 2.67644e-26)
(0.0049636 -8.42994e-07 -2.41104e-24)
(0.00496285 -1.49497e-06 -8.75465e-24)
(0.00496127 -2.12532e-06 1.00005e-24)
(0.0049589 -2.73215e-06 5.94864e-24)
(0.00495576 -3.3144e-06 -7.63517e-25)
(0.0049519 -3.87177e-06 -7.78022e-25)
(0.00494732 -4.40765e-06 5.08081e-25)
(0.0038325 2.59198e-06 -6.26158e-25)
(0.00383732 2.31048e-06 3.66315e-26)
(0.0038416 1.92764e-06 4.66561e-24)
(0.00384513 1.49335e-06 3.11853e-24)
(0.00384787 1.0545e-06 -2.14384e-24)
(0.00384983 6.19312e-07 -5.29719e-24)
(0.00385104 1.89263e-07 2.14025e-24)
(0.00385149 -2.33046e-07 -8.97268e-24)
(0.00385122 -6.44998e-07 6.90321e-24)
(0.00385024 -1.0445e-06 3.51676e-24)
(0.00384857 -1.42989e-06 -4.06347e-26)
(0.00384625 -1.80008e-06 -3.80327e-24)
(0.00384329 -2.1545e-06 6.76818e-25)
(0.00383973 -2.49301e-06 -4.96582e-25)
(0.00383558 -2.81824e-06 2.42501e-25)
(0.00282779 1.38299e-06 -1.04877e-24)
(0.00283136 1.21807e-06 2.08983e-26)
(0.0028345 9.9709e-07 3.411e-24)
(0.00283703 7.51787e-07 -2.13006e-24)
(0.00283893 5.0794e-07 8.75832e-24)
(0.00284023 2.6746e-07 -1.59414e-23)
(0.00284093 3.06207e-08 1.2969e-23)
(0.00284104 -2.01285e-07 -1.08004e-23)
(0.00284059 -4.26908e-07 7.73725e-24)
(0.00283957 -6.45137e-07 -4.94209e-24)
(0.00283803 -8.55105e-07 1.69559e-24)
(0.00283597 -1.05625e-06 2.43647e-25)
(0.00283341 -1.24833e-06 3.75295e-25)
(0.0028304 -1.43123e-06 -4.59323e-25)
(0.00282692 -1.60648e-06 9.19013e-26)
(0.00191751 6.12247e-07 1.4447e-24)
(0.00191993 5.25786e-07 1.5617e-24)
(0.00192203 4.18397e-07 -6.66959e-24)
(0.00192367 3.03116e-07 4.87574e-24)
(0.00192487 1.90572e-07 -4.79263e-26)
(0.00192564 8.02656e-08 1.25271e-24)
(0.00192598 -2.78494e-08 -1.53316e-24)
(0.00192591 -1.33244e-07 -3.19514e-24)
(0.00192542 -2.3535e-07 3.1651e-24)
(0.00192455 -3.33693e-07 3.24306e-25)
(0.00192329 -4.27919e-07 -2.49739e-24)
(0.00192167 -5.17803e-07 8.96831e-25)
(0.0019197 -6.03319e-07 5.22107e-25)
(0.00191741 -6.84315e-07 -6.2632e-26)
(0.00191479 -7.612e-07 -5.63647e-26)
(0.00109511 1.92191e-07 -1.32621e-24)
(0.00109646 1.69964e-07 4.0553e-24)
(0.00109761 1.43302e-07 2.41902e-24)
(0.00109849 1.12582e-07 -4.35271e-24)
(0.00109911 8.07098e-08 -5.09961e-25)
(0.00109947 4.74707e-08 -4.53719e-25)
(0.00109958 1.32223e-08 1.38155e-24)
(0.00109944 -2.15392e-08 -2.32806e-24)
(0.00109906 -5.63538e-08 3.15649e-24)
(0.00109845 -9.08377e-08 -1.54523e-24)
(0.00109762 -1.24686e-07 -9.92676e-25)
(0.00109657 -1.57656e-07 5.9559e-25)
(0.00109531 -1.89637e-07 -6.87677e-25)
(0.00109386 -2.20362e-07 6.82368e-25)
(0.00109222 -2.49361e-07 -1.11406e-25)
(0.000353927 4.46042e-08 -7.57268e-27)
(0.00035429 1.01511e-07 6.30456e-25)
(0.000354594 1.4611e-07 7.21698e-25)
(0.000354809 1.76241e-07 -1.13136e-24)
(0.000354943 1.93566e-07 2.34638e-24)
(0.000354998 1.99982e-07 -2.54451e-24)
(0.000354975 1.97221e-07 1.66538e-25)
(0.000354873 1.86834e-07 1.39524e-24)
(0.000354694 1.7019e-07 -1.92799e-24)
(0.00035444 1.48484e-07 -3.43818e-25)
(0.000354114 1.2275e-07 1.31301e-24)
(0.000353719 9.39001e-08 -5.76903e-25)
(0.000353256 6.26577e-08 -2.06943e-25)
(0.000352731 2.97893e-08 1.71951e-25)
(0.000352144 -3.70692e-09 -7.35184e-27)
(0.000877758 -0.000259448 1.00666e-25)
(0.00101346 -0.000177314 2.60983e-24)
(0.00122962 -9.11978e-05 -7.60097e-24)
(0.00145446 -2.27373e-05 1.11468e-23)
(0.00167228 2.93693e-05 -4.23165e-24)
(0.00188541 6.74612e-05 -4.08302e-24)
(0.00209455 9.43197e-05 4.66767e-24)
(0.00230037 0.000112151 -9.26507e-24)
(0.0025036 0.000122709 6.10871e-25)
(0.00270488 0.000127458 5.90078e-24)
(0.00290474 0.000127655 -1.12915e-24)
(0.00310368 0.000124415 1.22482e-24)
(0.00330221 0.000118783 -1.208e-25)
(0.00350093 0.000111792 7.66124e-25)
(0.0037006 0.000104527 -2.82429e-24)
(0.00390233 9.81743e-05 1.55129e-24)
(0.00410774 9.40329e-05 -4.80085e-25)
(0.0043193 9.34409e-05 3.76693e-26)
(0.00454056 9.74872e-05 1.11995e-24)
(0.00477637 0.000106382 -7.00998e-25)
(0.00503237 0.000118292 8.58847e-26)
(0.00531331 0.000127688 -7.50302e-26)
(0.00559685 0.0001247 1.41754e-25)
(0.00584753 0.000103656 5.4348e-25)
(0.00605399 6.47739e-05 -9.72518e-25)
(0.00621615 1.02816e-05 -6.48369e-25)
(0.00633534 -5.70445e-05 3.72015e-26)
(0.00641338 -0.000134536 1.5395e-24)
(0.00645178 -0.000219507 1.92001e-24)
(0.00645151 -0.000308837 -3.66922e-24)
(0.00641307 -0.000398655 2.46118e-24)
(0.00633682 -0.000484152 -1.71434e-24)
(0.00622328 -0.000559599 1.95583e-25)
(0.00607334 -0.000618454 -1.46249e-24)
(0.00588831 -0.000653471 1.39262e-24)
(0.00566991 -0.000656689 9.09482e-24)
(0.00542013 -0.000619159 -2.49467e-24)
(0.00514124 -0.000530301 2.28128e-24)
(0.00483575 -0.000376857 1.20761e-24)
(0.00450659 -0.000142132 -1.31256e-23)
(0.00415701 0.000192208 -1.57894e-25)
(0.00378974 0.000637075 5.27737e-24)
(0.00340642 0.00117097 1.60212e-24)
(0.00301653 0.00169177 -6.93501e-24)
(0.00282404 0.00187818 -3.43943e-25)
(0.00166758 -0.000319274 -3.08786e-24)
(0.0017204 -0.000283172 -4.39449e-24)
(0.00185299 -0.000205709 9.32224e-24)
(0.00202337 -0.000131693 4.38246e-24)
(0.00220643 -6.97378e-05 -1.56616e-23)
(0.00239543 -2.1362e-05 1.69545e-23)
(0.00258668 1.49361e-05 -6.16225e-24)
(0.00277842 4.11772e-05 4.93541e-24)
(0.00297002 5.91756e-05 -6.59811e-24)
(0.00316133 7.05125e-05 7.72653e-26)
(0.00335241 7.65545e-05 -3.5483e-24)
(0.00354343 7.85112e-05 7.09132e-24)
(0.00373471 7.74992e-05 -3.94612e-24)
(0.00392666 7.46038e-05 -3.55614e-24)
(0.00411991 7.09395e-05 -2.36288e-24)
(0.00431541 6.76997e-05 4.56448e-24)
(0.00451462 6.6169e-05 -5.4037e-25)
(0.00471974 6.76504e-05 2.37852e-24)
(0.00493405 7.3196e-05 3.69095e-25)
(0.00516201 8.30187e-05 -7.06381e-25)
(0.00540891 9.54088e-05 -2.92488e-25)
(0.00567933 0.000105179 -1.75398e-25)
(0.00595221 0.000102996 8.48732e-25)
(0.00619398 8.35928e-05 1.02723e-24)
(0.00639389 4.72628e-05 -9.23626e-25)
(0.00655175 -3.83159e-06 -4.35789e-24)
(0.00666863 -6.69578e-05 5.72467e-24)
(0.00674605 -0.000139418 -3.83132e-24)
(0.00678533 -0.000218438 1.25887e-24)
(0.00678734 -0.000300798 -5.8521e-25)
(0.00675264 -0.000382551 3.75052e-24)
(0.00668181 -0.000458869 -3.54957e-24)
(0.00657569 -0.000524054 -2.43174e-25)
(0.00643561 -0.000571641 8.09433e-24)
(0.00626352 -0.000594486 -1.36914e-23)
(0.00606201 -0.000584745 3.68168e-24)
(0.00583441 -0.000533634 1.70281e-23)
(0.00558496 -0.000430858 -4.65341e-24)
(0.00531935 -0.0002637 -1.34169e-23)
(0.00504591 -1.63671e-05 -8.00408e-24)
(0.00477745 0.000328426 1.7669e-23)
(0.00453407 0.000779842 -1.62798e-23)
(0.00434652 0.00131099 -3.32644e-24)
(0.00424787 0.00180216 9.738e-24)
(0.00431647 0.00194513 3.11096e-24)
(0.00259361 -0.000326212 -3.58854e-26)
(0.00259681 -0.000330173 -5.32506e-24)
(0.00265513 -0.00028267 1.03397e-23)
(0.00276078 -0.000220508 8.69862e-24)
(0.00289481 -0.000159507 -1.46594e-23)
(0.00304652 -0.000106824 3.12891e-25)
(0.00320887 -6.42567e-05 1.47333e-24)
(0.00337751 -3.12724e-05 1.62234e-23)
(0.00355004 -6.68482e-06 -1.95504e-23)
(0.00372512 1.08308e-05 1.21761e-23)
(0.00390206 2.25571e-05 3.70442e-24)
(0.00408051 2.96889e-05 -2.07392e-23)
(0.00426042 3.33535e-05 7.57065e-24)
(0.00444193 3.46513e-05 3.03633e-24)
(0.00462544 3.4705e-05 -6.34679e-24)
(0.0048117 3.47015e-05 1.03335e-23)
(0.00500191 3.59012e-05 -7.30261e-24)
(0.00519804 3.95674e-05 -1.27136e-25)
(0.00540298 4.67133e-05 5.74024e-25)
(0.00562079 5.75553e-05 6.0797e-25)
(0.00585634 7.05109e-05 8.01406e-26)
(0.006114 8.07291e-05 3.45745e-25)
(0.00637407 7.94115e-05 -9.52811e-25)
(0.00660504 6.16912e-05 2.81238e-24)
(0.00679678 2.79365e-05 -4.39255e-24)
(0.00694901 -1.97388e-05 2.49821e-24)
(0.0070625 -7.86339e-05 -5.47812e-24)
(0.00713847 -0.000146012 7.21683e-24)
(0.00717801 -0.000219004 -5.9326e-24)
(0.00718193 -0.000294284 8.77393e-25)
(0.00715088 -0.000367825 1.19125e-24)
(0.00708564 -0.000434779 4.56176e-24)
(0.0069874 -0.000489495 -1.06523e-24)
(0.006858 -0.000525629 4.51172e-24)
(0.00670006 -0.000536237 -1.30186e-23)
(0.00651712 -0.00051379 2.26982e-23)
(0.00631387 -0.000450022 -1.54441e-23)
(0.00609655 -0.000335581 2.27422e-23)
(0.00587383 -0.000159545 -4.29819e-23)
(0.00565855 9.05138e-05 1.6069e-23)
(0.00547024 0.000426109 5.33772e-24)
(0.00533741 0.000847637 7.90725e-24)
(0.00529649 0.00131851 -9.33066e-24)
(0.00536984 0.00172147 2.44934e-24)
(0.00554752 0.00183697 -1.53072e-24)
(0.00364047 -0.000309444 -1.29502e-24)
(0.0036198 -0.000336074 -2.146e-24)
(0.00362776 -0.00031943 -9.62989e-24)
(0.00367507 -0.000279 2.65428e-24)
(0.00375557 -0.000229382 1.79843e-24)
(0.00386142 -0.00018033 7.96953e-24)
(0.00398545 -0.000136798 -1.71392e-23)
(0.00412208 -0.00010047 6.75031e-24)
(0.0042675 -7.14425e-05 2.29427e-23)
(0.00441924 -4.90979e-05 -6.25552e-24)
(0.00457573 -3.25283e-05 -5.97083e-24)
(0.00473599 -2.07341e-05 -9.65229e-25)
(0.00489948 -1.26914e-05 3.20558e-24)
(0.00506598 -7.35714e-06 -6.34882e-24)
(0.00523559 -3.64847e-06 1.49004e-24)
(0.00540877 -4.17427e-07 -5.24628e-25)
(0.00558648 3.54866e-06 -3.12691e-24)
(0.00577033 9.45534e-06 1.22503e-24)
(0.00596286 1.82631e-05 5.50934e-24)
(0.00616765 3.01812e-05 -6.52632e-25)
(0.00638911 4.37484e-05 -1.24354e-24)
(0.00663128 5.44498e-05 -3.41335e-25)
(0.00687598 5.40397e-05 -1.88656e-24)
(0.00709388 3.80636e-05 -1.01454e-25)
(0.00727552 6.97789e-06 -4.34107e-24)
(0.00742045 -3.71403e-05 7.3905e-24)
(0.00752916 -9.1615e-05 -6.05573e-24)
(0.00760256 -0.000153669 1.12501e-23)
(0.00764153 -0.000220346 -8.94706e-24)
(0.00764679 -0.000288233 2.21128e-24)
(0.00761909 -0.00035326 2.90986e-24)
(0.00755946 -0.000410608 -3.04267e-25)
(0.00746945 -0.000454754 -4.76446e-25)
(0.0073514 -0.000479596 -1.6706e-24)
(0.00720864 -0.000478576 2.03885e-24)
(0.00704562 -0.000444757 -7.49295e-24)
(0.00686826 -0.000370829 3.45689e-23)
(0.00668448 -0.000249064 -1.79824e-23)
(0.00650508 -7.13915e-05 -6.26281e-25)
(0.00634532 0.000169752 -3.82002e-23)
(0.00622666 0.000478479 2.75096e-23)
(0.00617687 0.000846476 -9.35994e-24)
(0.00622449 0.00123525 2.27278e-24)
(0.00637636 0.00155411 1.0236e-23)
(0.00659062 0.00167181 -2.46387e-24)
(0.00480452 -0.000284439 -5.3117e-24)
(0.00477633 -0.000318528 1.13218e-23)