/*--------------------------------*- C++ -*----------------------------------*\
| =========                 |                                                 |
| \\      /  F ield         | OpenFOAM: The Open Source CFD Toolbox           |
|  \\    /   O peration     | Version:  2312                                  |
|   \\  /    A nd           | Website:  www.openfoam.com                      |
|    \\/     M anipulation  |                                                 |
\*---------------------------------------------------------------------------*/
FoamFile
{
    version     2.0;
    format      ascii;
    arch        "LSB;label=32;scalar=64";
    class       volScalarField;
    location    "51.25";
    object      p;
}
// * * * * * * * * * * * * * * * * * * * * * * * * * * * * * * * * * * * * * //

dimensions      [0 2 -2 0 0 0 0];

internalField   nonuniform List<scalar> 
4800
(
1.42958e-13
-1.00017e-06
-1.86304e-06
-2.62212e-06
-3.31035e-06
-3.93421e-06
-4.49858e-06
-5.01187e-06
-5.48117e-06
-5.91151e-06
-6.30707e-06
-6.66826e-06
-6.98582e-06
-7.50387e-06
-9.20996e-06
9.56989e-09
-9.89602e-07
-1.8514e-06
-2.60976e-06
-3.29809e-06
-3.92268e-06
-4.48875e-06
-5.00521e-06
-5.4799e-06
-5.91988e-06
-6.33415e-06
-6.73684e-06
-7.1402e-06
-7.65213e-06
-8.51973e-06
1.97924e-08
-9.78094e-07
-1.8388e-06
-2.59606e-06
-3.28341e-06
-3.90821e-06
-4.47536e-06
-4.99411e-06
-5.47288e-06
-5.91951e-06
-6.34405e-06
-6.7609e-06
-7.17634e-06
-7.59378e-06
-7.98123e-06
3.05385e-08
-9.65308e-07
-1.82417e-06
-2.58023e-06
-3.2652e-06
-3.88962e-06
-4.4569e-06
-4.97611e-06
-5.45574e-06
-5.90269e-06
-6.32405e-06
-6.7248e-06
-7.09406e-06
-7.39507e-06
-7.5501e-06
4.30897e-08
-9.49784e-07
-1.80578e-06
-2.56069e-06
-3.24123e-06
-3.86396e-06
-4.43003e-06
-4.94708e-06
-5.423e-06
-5.86221e-06
-6.26644e-06
-6.63036e-06
-6.93154e-06
-7.12692e-06
-7.15666e-06
5.90458e-08
-9.29853e-07
-1.78179e-06
-2.53441e-06
-3.20996e-06
-3.82816e-06
-4.39046e-06
-4.90161e-06
-5.36771e-06
-5.78985e-06
-6.16417e-06
-6.47856e-06
-6.70865e-06
-6.8217e-06
-6.78728e-06
8.09552e-08
-9.02991e-07
-1.74963e-06
-2.49753e-06
-3.16795e-06
-3.77859e-06
-4.33288e-06
-4.83298e-06
-5.28201e-06
-5.67779e-06
-6.01263e-06
-6.27274e-06
-6.43915e-06
-6.49463e-06
-6.4313e-06
1.12967e-07
-8.65236e-07
-1.70526e-06
-2.44622e-06
-3.10928e-06
-3.70934e-06
-4.25053e-06
-4.7334e-06
-5.15796e-06
-5.51981e-06
-5.81037e-06
-6.01859e-06
-6.13401e-06
-6.15268e-06
-6.07917e-06
1.61138e-07
-8.10877e-07
-1.64289e-06
-2.37474e-06
-3.02705e-06
-3.61266e-06
-4.13536e-06
-4.59462e-06
-4.98839e-06
-5.31184e-06
-5.55826e-06
-5.72176e-06
-5.79989e-06
-5.79727e-06
-5.72368e-06
2.33234e-07
-7.32515e-07
-1.5551e-06
-2.27533e-06
-2.91324e-06
-3.47996e-06
-3.97883e-06
-4.40897e-06
-4.76787e-06
-5.05207e-06
-5.25843e-06
-5.38645e-06
-5.43953e-06
-5.42659e-06
-5.35858e-06
3.38008e-07
-6.21588e-07
-1.43333e-06
-2.13916e-06
-2.75896e-06
-3.30251e-06
-3.77309e-06
-4.17046e-06
-4.4933e-06
-4.74075e-06
-4.91356e-06
-5.01552e-06
-5.05342e-06
-5.03765e-06
-4.97846e-06
4.84593e-07
-4.68912e-07
-1.26836e-06
-1.95716e-06
-2.55557e-06
-3.07258e-06
-3.51218e-06
-3.87575e-06
-4.16429e-06
-4.37996e-06
-4.52677e-06
-4.6112e-06
-4.64153e-06
-4.62796e-06
-4.57941e-06
6.82825e-07
-2.64708e-07
-1.05025e-06
-1.72064e-06
-2.2952e-06
-2.78404e-06
-3.19252e-06
-3.52422e-06
-3.78282e-06
-3.97321e-06
-4.10163e-06
-4.1759e-06
-4.20445e-06
-4.19657e-06
-4.15973e-06
9.44063e-07
3.09666e-09
-7.70084e-07
-1.42054e-06
-1.97068e-06
-2.43224e-06
-2.81236e-06
-3.11692e-06
-3.35196e-06
-3.52434e-06
-3.64163e-06
-3.71203e-06
-3.7435e-06
-3.74407e-06
-3.71993e-06
1.28119e-06
3.43924e-07
-4.16404e-07
-1.04787e-06
-1.57566e-06
-2.01355e-06
-2.37078e-06
-2.65528e-06
-2.87467e-06
-3.03688e-06
-3.14994e-06
-3.22197e-06
-3.26035e-06
-3.272e-06
-3.26198e-06
1.70695e-06
7.72361e-07
2.20165e-08
-5.94414e-07
-1.10485e-06
-1.52553e-06
-1.86769e-06
-2.14081e-06
-2.35356e-06
-2.51417e-06
-2.63044e-06
-2.70982e-06
-2.75898e-06
-2.78425e-06
-2.79025e-06
2.23148e-06
1.29878e-06
5.53861e-07
-5.40925e-08
-5.55163e-07
-9.67935e-07
-1.30493e-06
-1.57659e-06
-1.79203e-06
-1.95965e-06
-2.08727e-06
-2.18141e-06
-2.24729e-06
-2.29025e-06
-2.31481e-06
2.85926e-06
1.92777e-06
1.18212e-06
5.73651e-07
7.13553e-08
-3.4482e-07
-6.8835e-07
-9.69998e-07
-1.1984e-06
-1.38162e-06
-1.52772e-06
-1.64322e-06
-1.73291e-06
-1.80195e-06
-1.85203e-06
3.58431e-06
2.65422e-06
1.90155e-06
1.28253e-06
7.66791e-07
3.34788e-07
-2.76264e-08
-3.31457e-07
-5.84523e-07
-7.94325e-07
-9.68743e-07
-1.11139e-06
-1.22659e-06
-1.32779e-06
-1.41427e-06
4.38879e-06
3.46255e-06
2.69848e-06
2.05981e-06
1.5191e-06
1.0584e-06
6.64536e-07
3.26855e-07
3.80787e-08
-2.0884e-07
-4.2178e-07
-6.07347e-07
-7.69185e-07
-9.06935e-07
-1.02291e-06
5.16309e-06
4.24408e-06
3.46758e-06
2.80492e-06
2.23343e-06
1.73718e-06
1.30478e-06
9.26697e-07
5.94827e-07
3.02904e-07
4.58586e-08
-1.80888e-07
-3.81475e-07
-5.59986e-07
-7.20715e-07
5.79491e-06
4.88968e-06
4.10673e-06
3.42492e-06
2.82649e-06
2.29821e-06
1.83047e-06
1.41496e-06
1.04435e-06
7.12584e-07
4.14336e-07
1.44765e-07
-1.00223e-07
-3.23608e-07
-5.27611e-07
6.26057e-06
5.37384e-06
4.59249e-06
3.90037e-06
3.28371e-06
2.73184e-06
2.23647e-06
1.79018e-06
1.38613e-06
1.01851e-06
6.82729e-07
3.75197e-07
9.29754e-08
-1.66311e-07
-4.04839e-07
6.5954e-06
5.73155e-06
4.95849e-06
4.26354e-06
3.63622e-06
3.0681e-06
2.55197e-06
2.08125e-06
1.65004e-06
1.25361e-06
8.88289e-07
5.51107e-07
2.39443e-07
-4.89729e-08
-3.16235e-07
6.83148e-06
5.99355e-06
5.23351e-06
4.54142e-06
3.90966e-06
3.33152e-06
2.8008e-06
2.31191e-06
1.86012e-06
1.44159e-06
1.05321e-06
6.92362e-07
3.56741e-07
4.43883e-08
-2.46481e-07
6.99752e-06
6.18589e-06
5.44092e-06
4.75542e-06
4.1238e-06
3.54042e-06
3.00006e-06
2.49823e-06
2.03115e-06
1.59571e-06
1.18927e-06
8.09632e-07
4.54884e-07
1.23427e-07
-1.86214e-07
7.11358e-06
6.32732e-06
5.59864e-06
4.9222e-06
4.29359e-06
3.70815e-06
3.16172e-06
2.65079e-06
2.17238e-06
1.72399e-06
1.30347e-06
9.0905e-07
5.39189e-07
1.92616e-07
-1.31886e-07
7.19474e-06
6.43259e-06
5.72012e-06
5.05344e-06
4.42916e-06
3.8436e-06
3.29352e-06
2.77622e-06
2.28939e-06
1.83105e-06
1.39953e-06
9.9345e-07
6.11591e-07
2.52968e-07
-8.34047e-08
7.25169e-06
6.51145e-06
5.8141e-06
5.15706e-06
4.53772e-06
3.95317e-06
3.401e-06
2.87918e-06
2.38597e-06
1.91989e-06
1.47966e-06
1.06424e-06
6.7273e-07
3.04381e-07
-4.15764e-08
7.29133e-06
6.57059e-06
5.88707e-06
5.23915e-06
4.62476e-06
4.04174e-06
3.48838e-06
2.96325e-06
2.46509e-06
1.99283e-06
1.54556e-06
1.12255e-06
7.23147e-07
3.46847e-07
-6.93769e-09
7.31858e-06
6.61505e-06
5.94395e-06
5.30431e-06
4.69455e-06
4.1132e-06
3.55916e-06
3.03149e-06
2.52934e-06
2.05202e-06
1.59893e-06
1.16963e-06
7.63686e-07
3.80796e-07
2.05389e-08
7.33703e-06
6.6486e-06
5.9885e-06
5.35617e-06
4.75056e-06
4.17082e-06
3.61634e-06
3.0866e-06
2.58112e-06
2.09954e-06
1.64155e-06
1.20693e-06
7.95483e-07
4.07052e-07
4.13695e-08
7.34933e-06
6.67408e-06
6.02359e-06
5.39763e-06
4.79564e-06
4.21734e-06
3.6625e-06
3.13098e-06
2.62264e-06
2.13739e-06
1.67517e-06
1.23599e-06
8.19823e-07
4.26662e-07
5.63713e-08
7.35738e-06
6.69361e-06
6.05146e-06
5.43098e-06
4.83213e-06
4.25502e-06
3.69983e-06
3.16671e-06
2.65582e-06
2.16734e-06
1.70143e-06
1.25827e-06
8.37995e-07
4.40744e-07
6.64872e-08
7.36257e-06
6.70879e-06
6.07384e-06
5.45806e-06
4.86185e-06
4.28571e-06
3.73012e-06
3.19552e-06
2.68233e-06
2.19096e-06
1.72176e-06
1.27508e-06
8.51201e-07
4.5037e-07
7.26611e-08
7.36585e-06
6.72075e-06
6.09199e-06
5.48022e-06
4.88624e-06
4.31084e-06
3.7548e-06
3.21881e-06
2.70352e-06
2.20953e-06
1.73738e-06
1.28757e-06
8.60495e-07
4.56508e-07
7.57711e-08
7.36789e-06
6.7303e-06
6.10685e-06
5.49849e-06
4.90635e-06
4.33151e-06
3.77497e-06
3.23767e-06
2.72045e-06
2.2241e-06
1.7493e-06
1.29669e-06
8.66769e-07
4.59988e-07
7.65856e-08
7.36913e-06
6.73811e-06
6.11924e-06
5.5138e-06
4.92319e-06
4.34873e-06
3.79167e-06
3.25313e-06
2.73413e-06
2.23561e-06
1.7584e-06
1.30324e-06
8.70749e-07
4.61453e-07
7.56666e-08
7.36984e-06
6.74491e-06
6.13022e-06
5.5274e-06
4.93812e-06
4.36394e-06
3.8063e-06
3.26651e-06
2.74577e-06
2.24515e-06
1.76561e-06
1.308e-06
8.73039e-07
4.61341e-07
7.32916e-08
7.37021e-06
6.75077e-06
6.13994e-06
5.53955e-06
4.95147e-06
4.37747e-06
3.81918e-06
3.27813e-06
2.75566e-06
2.253e-06
1.77124e-06
1.31136e-06
8.74145e-07
4.60266e-07
7.01283e-08
-1.05288e-05
-8.0706e-06
-6.57931e-06
-5.58928e-06
-4.80776e-06
-4.21616e-06
-3.76175e-06
-3.40604e-06
-3.1211e-06
-2.8832e-06
-2.67147e-06
-2.46706e-06
-2.25172e-06
-2.00894e-06
-1.72314e-06
-1.38392e-06
-9.87722e-07
-5.47032e-07
-9.58542e-08
2.97647e-07
5.33069e-07
4.85342e-07
8.94101e-08
-4.90997e-07
-1.06559e-06
-1.51938e-06
-1.779e-06
-1.80033e-06
-1.55773e-06
-1.03251e-06
-2.11192e-07
9.06865e-07
2.30807e-06
3.9654e-06
5.83686e-06
7.8679e-06
9.99373e-06
1.21406e-05
1.42242e-05
1.6143e-05
1.77603e-05
1.88916e-05
1.91448e-05
1.81569e-05
1.46234e-05
-8.83466e-06
-7.53304e-06
-6.39373e-06
-5.50754e-06
-4.77218e-06
-4.19548e-06
-3.74583e-06
-3.3915e-06
-3.10694e-06
-2.86922e-06
-2.65767e-06
-2.45339e-06
-2.23806e-06
-1.99509e-06
-1.70924e-06
-1.37007e-06
-9.74301e-07
-5.34408e-07
-8.4063e-08
3.09606e-07
5.48114e-07
5.0854e-07
1.25742e-07
-4.40156e-07
-1.00252e-06
-1.44802e-06
-1.70342e-06
-1.72394e-06
-1.4842e-06
-9.66124e-07
-1.57508e-07
9.40469e-07
2.31169e-06
3.92664e-06
5.74016e-06
7.69345e-06
9.71562e-06
1.17235e-05
1.36173e-05
1.52687e-05
1.64904e-05
1.69921e-05
1.62206e-05
1.33872e-05
7.48511e-06
-7.95087e-06
-7.11998e-06
-6.20173e-06
-5.41075e-06
-4.7266e-06
-4.17047e-06
-3.72841e-06
-3.37649e-06
-3.09236e-06
-2.85443e-06
-2.6425e-06
-2.4378e-06
-2.22198e-06
-1.97859e-06
-1.69218e-06
-1.35294e-06
-9.57717e-07
-5.19006e-07
-7.0107e-08
3.2305e-07
5.64221e-07
5.33062e-07
1.64566e-07
-3.85066e-07
-9.33455e-07
-1.36931e-06
-1.61979e-06
-1.63947e-06
-1.40333e-06
-8.94581e-07
-1.02282e-07
9.70004e-07
2.30293e-06
3.86378e-06
5.60337e-06
7.4576e-06
9.34818e-06
1.11812e-05
1.28409e-05
1.41759e-05
1.49691e-05
1.49001e-05
1.34757e-05
1.0159e-05
4.85394e-06
-7.39275e-06
-6.78493e-06
-6.03782e-06
-5.32287e-06
-4.68742e-06
-4.15273e-06
-3.71816e-06
-3.36746e-06
-3.0821e-06
-2.84225e-06
-2.62844e-06
-2.4221e-06
-2.20487e-06
-1.9603e-06
-1.67304e-06
-1.33363e-06
-9.39094e-07
-5.01907e-07
-5.49432e-08
3.37213e-07
5.80778e-07
5.58286e-07
2.05054e-07
-3.26837e-07
-8.59617e-07
-1.28425e-06
-1.52853e-06
-1.5464e-06
-1.31346e-06
-8.14687e-07
-4.07262e-08
1.00182e-06
2.28941e-06
3.78538e-06
5.43559e-06
7.16985e-06
8.90203e-06
1.05281e-05
1.19202e-05
1.29159e-05
1.32997e-05
1.27931e-05
1.10626e-05
7.86253e-06
3.44652e-06
-6.95881e-06
-6.48891e-06
-5.87764e-06
-5.24964e-06
-4.65856e-06
-4.14566e-06
-3.71805e-06
-3.36656e-06
-3.07745e-06
-2.83308e-06
-2.61506e-06
-2.40523e-06
-2.18513e-06
-1.93836e-06
-1.64991e-06
-1.31038e-06
-9.17012e-07
-4.82192e-07
-3.82503e-08
3.51839e-07
5.97119e-07
5.83454e-07
2.46693e-07
-2.65665e-07
-7.81045e-07
-1.19297e-06
-1.43024e-06
-1.44621e-06
-1.21744e-06
-7.31191e-07
2.00303e-08
1.02617e-06
2.25862e-06
3.67641e-06
5.22019e-06
6.81378e-06
8.36437e-06
9.76118e-06
1.08718e-05
1.15386e-05
1.1575e-05
1.07796e-05
8.9775e-06
6.1272e-06
2.51129e-06
-6.59134e-06
-6.21635e-06
-5.71311e-06
-5.1712e-06
-4.63555e-06
-4.14768e-06
-3.72768e-06
-3.37422e-06
-3.07926e-06
-2.82765e-06
-2.60277e-06
-2.38715e-06
-2.16235e-06
-1.91213e-06
-1.62191e-06
-1.28227e-06
-8.90732e-07
-4.59445e-07
-2.00412e-08
3.6645e-07
6.12364e-07
6.07467e-07
2.88413e-07
-2.02481e-07
-6.98227e-07
-1.09615e-06
-1.3258e-06
-1.3402e-06
-1.11724e-06
-6.47305e-07
7.51365e-08
1.03657e-06
2.20223e-06
3.52702e-06
4.94671e-06
6.38023e-06
7.73075e-06
8.8859e-06
9.71869e-06
1.00899e-05
9.85793e-06
8.90197e-06
7.1639e-06
4.71236e-06
1.80623e-06
-6.25319e-06
-5.95022e-06
-5.53994e-06
-5.07177e-06
-4.60091e-06
-4.14763e-06
-3.74013e-06
-3.38663e-06
-3.08604e-06
-2.82526e-06
-2.59133e-06
-2.36784e-06
-2.13637e-06
-1.88135e-06
-1.58865e-06
-1.24899e-06
-8.60098e-07
-4.33799e-07
-8.24426e-10
3.80125e-07
6.25199e-07
6.2874e-07
3.28541e-07
-1.38939e-07
-6.13251e-07
-9.9526e-07
-1.21676e-06
-1.23014e-06
-1.01492e-06
-5.66446e-07
1.2038e-07
1.02777e-06
2.11382e-06
3.33028e-06
4.60901e-06
5.86612e-06
7.00455e-06
7.91706e-06
8.49011e-06
8.61272e-06
8.19093e-06
7.17002e-06
5.56211e-06
3.47346e-06
1.113e-06
-5.92269e-06
-5.67623e-06
-5.34414e-06
-4.95218e-06
-4.53626e-06
-4.12631e-06
-3.74143e-06
-3.39464e-06
-3.09234e-06
-2.82192e-06
-2.57845e-06
-2.34595e-06
-2.10624e-06
-1.8453e-06
-1.54968e-06
-1.21033e-06
-8.25241e-07
-4.05796e-07
1.83888e-08
3.9136e-07
6.33666e-07
6.44992e-07
3.64677e-07
-7.74673e-08
-5.28247e-07
-8.92641e-07
-1.10575e-06
-1.11893e-06
-9.142e-07
-4.9467e-07
1.51631e-07
9.93392e-07
1.986e-06
3.07905e-06
4.20199e-06
5.27115e-06
6.19367e-06
6.87317e-06
7.21586e-06
7.14182e-06
6.59862e-06
5.57657e-06
4.12172e-06
2.3409e-06
3.92065e-07
-5.5886e-06
-5.38706e-06
-5.11841e-06
-4.79482e-06
-4.43806e-06
-4.07231e-06
-3.71583e-06
-3.38711e-06
-3.08559e-06
-2.81035e-06
-2.56002e-06
-2.31828e-06
-2.06971e-06
-1.80262e-06
-1.50431e-06
-1.1662e-06
-7.86644e-07
-3.76516e-07
3.59207e-08
3.97892e-07
6.34975e-07
6.53064e-07
3.93524e-07
-2.14353e-08
-4.46651e-07
-7.91621e-07
-9.96626e-07
-1.01128e-06
-8.2454e-07
-4.33843e-07
1.6272e-07
9.24501e-07
1.81018e-06
2.7661e-06
3.7218e-06
4.59712e-06
5.30854e-06
5.7739e-06
5.92185e-06
5.70112e-06
5.09024e-06
4.10535e-06
2.80327e-06
1.27678e-06
-3.58109e-07
-5.2437e-06
-5.07853e-06
-4.86092e-06
-4.59576e-06
-4.29538e-06
-3.97668e-06
-3.65585e-06
-3.34706e-06
-3.05426e-06
-2.78342e-06
-2.5281e-06
-2.27841e-06
-2.02313e-06
-1.75132e-06
-1.45176e-06
-1.11677e-06
-7.45351e-07
-3.4779e-07
4.92214e-08
3.96511e-07
6.25341e-07
6.48742e-07
4.10703e-07
2.46531e-08
-3.73227e-07
-6.97093e-07
-8.93225e-07
-9.15953e-07
-7.49328e-07
-3.89961e-07
1.40322e-07
8.10123e-07
1.57729e-06
2.38499e-06
3.16651e-06
3.84947e-06
4.36154e-06
4.63777e-06
4.62809e-06
4.30405e-06
3.66422e-06
2.73643e-06
1.57577e-06
2.57154e-07
-1.13506e-06
-4.8825e-06
-4.74759e-06
-4.57151e-06
-4.35552e-06
-4.10592e-06
-3.83354e-06
-3.55055e-06
-3.26797e-06
-2.99271e-06
-2.72906e-06
-2.47392e-06
-2.22141e-06
-1.96306e-06
-1.68955e-06
-1.39164e-06
-1.06294e-06
-7.03287e-07
-3.22456e-07
5.46818e-08
3.82937e-07
5.99896e-07
6.26674e-07
4.10618e-07
5.50306e-08
-3.1411e-07
-6.1765e-07
-8.04632e-07
-8.35618e-07
-6.92313e-07
-3.81571e-07
7.30451e-08
6.40827e-07
1.27949e-06
1.93106e-06
2.53755e-06
3.0354e-06
3.36596e-06
3.4811e-06
3.34859e-06
2.95608e-06
2.31316e-06
1.45038e-06
4.15557e-07
-7.3319e-07
-1.93464e-06
-4.50123e-06
-4.39222e-06
-4.25057e-06
-4.07588e-06
-3.87082e-06
-3.64173e-06
-3.39689e-06
-3.14469e-06
-2.89149e-06
-2.64095e-06
-2.39271e-06
-2.14342e-06
-1.88707e-06
-1.6165e-06
-1.32471e-06
-1.00681e-06
-6.6368e-07
-3.04652e-07
4.74686e-08
3.51765e-07
5.52746e-07
5.80431e-07
3.86437e-07
6.25771e-08
-2.76909e-07
-5.59285e-07
-7.39788e-07
-7.80283e-07
-6.69066e-07
-4.16925e-07
-4.78211e-08
4.07872e-07
9.07324e-07
1.4033e-06
1.83946e-06
2.16522e-06
2.33592e-06
2.31813e-06
2.0931e-06
1.6585e-06
1.02848e-06
2.31452e-07
-6.93645e-07
-1.70283e-06
-2.75159e-06
-4.09838e-06
-4.01214e-06
-3.89972e-06
-3.76004e-06
-3.59375e-06
-3.40418e-06
-3.19648e-06
-2.97646e-06
-2.74906e-06
-2.51761e-06
-2.28291e-06
-2.04341e-06
-1.79534e-06
-1.53374e-06
-1.25388e-06
-9.52491e-07
-6.31587e-07
-3.00147e-07
2.13719e-08
2.96471e-07
4.77093e-07
5.02736e-07
3.30196e-07
3.88351e-08
-2.70822e-07
-5.31336e-07
-7.09075e-07
-7.64434e-07
-6.93632e-07
-5.09173e-07
-2.31873e-07
1.0613e-07
4.66541e-07
8.06637e-07
1.08199e-06
1.25289e-06
1.28709e-06
1.16279e-06
8.70357e-07
4.1276e-07
-1.95288e-07
-9.2969e-07
-1.76007e-06
-2.65369e-06
-3.57819e-06
-3.6749e-06
-3.60936e-06
-3.52255e-06
-3.41326e-06
-3.28107e-06
-3.12741e-06
-2.95519e-06
-2.76809e-06
-2.56957e-06
-2.36232e-06
-2.1475e-06
-1.92471e-06
-1.69203e-06
-1.4464e-06
-1.18527e-06
-9.06987e-07
-6.14555e-07
-3.16784e-07
-3.14642e-08
2.09342e-07
3.65279e-07
3.85676e-07
2.33044e-07
-2.57854e-08
-3.06558e-07
-5.56682e-07
-7.25931e-07
-8.01119e-07
-7.75909e-07
-6.63298e-07
-4.84339e-07
-2.66685e-07
-4.31712e-08
1.50666e-07
2.80524e-07
3.17143e-07
2.38547e-07
3.1404e-08
-3.08314e-07
-7.75528e-07
-1.35711e-06
-2.03388e-06
-2.78289e-06
-3.58012e-06
-4.40208e-06
-3.23371e-06
-3.1881e-06
-3.12493e-06
-3.04313e-06
-2.94188e-06
-2.82147e-06
-2.68332e-06
-2.52956e-06
-2.36241e-06
-2.18377e-06
-1.99481e-06
-1.79573e-06
-1.58593e-06
-1.3639e-06
-1.12889e-06
-8.80774e-07
-6.23194e-07
-3.64929e-07
-1.20938e-07
8.12443e-08
2.08618e-07
2.20555e-07
8.56014e-08
-1.41612e-07
-3.934e-07
-6.25366e-07
-8.00474e-07
-9.01526e-07
-9.26174e-07
-8.87986e-07
-8.06925e-07
-7.05782e-07
-6.10258e-07
-5.47628e-07
-5.43419e-07
-6.18309e-07
-7.86574e-07
-1.05576e-06
-1.42677e-06
-1.89431e-06
-2.44775e-06
-3.07253e-06
-3.75181e-06
-4.46819e-06
-5.2047e-06
-2.78021e-06
-2.75536e-06
-2.71568e-06
-2.66039e-06
-2.58865e-06
-2.50025e-06
-2.3957e-06
-2.27604e-06
-2.14258e-06
-1.99658e-06
-1.83906e-06
-1.67045e-06
-1.49097e-06
-1.30028e-06
-1.09886e-06
-8.8796e-07
-6.71371e-07
-4.57685e-07
-2.59159e-07
-9.85071e-08
-2.6908e-09
-1.87146e-09
-1.21446e-07
-3.19616e-07
-5.44158e-07
-7.61216e-07
-9.4338e-07
-1.07388e-06
-1.15031e-06
-1.18441e-06
-1.19422e-06
-1.19835e-06
-1.21547e-06
-1.26462e-06
-1.36359e-06
-1.52649e-06
-1.76243e-06
-2.07541e-06
-2.46483e-06
-2.92606e-06
-3.45106e-06
-4.02928e-06
-4.64867e-06
-5.29683e-06
-5.96159e-06
-2.32491e-06
-2.32262e-06
-2.30809e-06
-2.28042e-06
-2.23867e-06
-2.18257e-06
-2.11229e-06
-2.02821e-06
-1.93099e-06
-1.82146e-06
-1.70049e-06
-1.56857e-06
-1.42628e-06
-1.27407e-06
-1.11309e-06
-9.45624e-07
-7.75307e-07
-6.10156e-07
-4.59873e-07
-3.41929e-07
-2.79025e-07
-2.90089e-07
-3.97715e-07
-5.70517e-07
-7.71426e-07
-9.74661e-07
-1.16239e-06
-1.32132e-06
-1.44689e-06
-1.54633e-06
-1.63425e-06
-1.72591e-06
-1.83468e-06
-1.97273e-06
-2.15119e-06
-2.37915e-06
-2.66246e-06
-3.00333e-06
-3.40066e-06
-3.85071e-06
-4.34767e-06
-4.88414e-06
-5.45176e-06
-6.04186e-06
-6.64581e-06
-1.88572e-06
-1.90792e-06
-1.92101e-06
-1.92384e-06
-1.91463e-06
-1.89284e-06
-1.8587e-06
-1.81239e-06
-1.75425e-06
-1.68487e-06
-1.60495e-06
-1.51496e-06
-1.41554e-06
-1.30759e-06
-1.19242e-06
-1.07266e-06
-9.51696e-07
-8.36294e-07
-7.34825e-07
-6.59909e-07
-6.29482e-07
-6.56268e-07
-7.50042e-07
-9.01304e-07
-1.08149e-06
-1.27188e-06
-1.46152e-06
-1.64175e-06
-1.80698e-06
-1.9595e-06
-2.10873e-06
-2.26623e-06
-2.442e-06
-2.64372e-06
-2.87759e-06
-3.14882e-06
-3.46106e-06
-3.8157e-06
-4.21183e-06
-4.64664e-06
-5.116e-06
-5.61482e-06
-6.13743e-06
-6.67788e-06
-7.23011e-06
-1.47986e-06
-1.53275e-06
-1.57791e-06
-1.61493e-06
-1.64186e-06
-1.65788e-06
-1.66297e-06
-1.65732e-06
-1.64138e-06
-1.61565e-06
-1.58055e-06
-1.53649e-06
-1.48404e-06
-1.42427e-06
-1.35845e-06
-1.28883e-06
-1.21832e-06
-1.15079e-06
-1.09348e-06
-1.05617e-06
-1.0541e-06
-1.09034e-06
-1.17798e-06
-1.31021e-06
-1.47039e-06
-1.64771e-06
-1.83482e-06
-2.02561e-06
-2.21491e-06
-2.4022e-06
-2.59248e-06
-2.79326e-06
-3.01142e-06
-3.25177e-06
-3.5178e-06
-3.81229e-06
-4.13705e-06
-4.49289e-06
-4.87938e-06
-5.29469e-06
-5.73594e-06
-6.19968e-06
-6.68211e-06
-7.17923e-06
-7.68688e-06
-1.12507e-06
-1.21891e-06
-1.30489e-06
-1.38214e-06
-1.45009e-06
-1.50833e-06
-1.55666e-06
-1.59529e-06
-1.62469e-06
-1.64525e-06
-1.65718e-06
-1.66078e-06
-1.65654e-06
-1.6454e-06
-1.6286e-06
-1.60807e-06
-1.58617e-06
-1.56556e-06
-1.55021e-06
-1.54413e-06
-1.55152e-06
-1.5931e-06
-1.67401e-06
-1.78703e-06
-1.92499e-06
-2.08364e-06
-2.25941e-06
-2.44829e-06
-2.64509e-06
-2.84663e-06
-3.05475e-06
-3.27491e-06
-3.51318e-06
-3.77179e-06
-4.05067e-06
-4.35104e-06
-4.67453e-06
-5.02171e-06
-5.39223e-06
-5.78488e-06
-6.19776e-06
-6.62859e-06
-7.07488e-06
-7.53395e-06
-8.00303e-06
-8.68867e-07
-1.00727e-06
-1.13589e-06
-1.25473e-06
-1.36407e-06
-1.464e-06
-1.55452e-06
-1.63575e-06
-1.70788e-06
-1.77108e-06
-1.82547e-06
-1.87133e-06
-1.90906e-06
-1.93921e-06
-1.96241e-06
-1.98048e-06
-1.99544e-06
-2.00639e-06
-2.01674e-06
-2.03028e-06
-2.0556e-06
-2.10269e-06
-2.175e-06
-2.2706e-06
-2.38837e-06
-2.52572e-06
-2.67985e-06
-2.85001e-06
-3.03504e-06
-3.23291e-06
-3.4417e-06
-3.66117e-06
-3.89406e-06
-4.15089e-06
-4.43024e-06
-4.72408e-06
-5.03524e-06
-5.36661e-06
-5.71782e-06
-6.0875e-06
-6.47435e-06
-6.87692e-06
-7.29357e-06
-7.72246e-06
-8.16164e-06
-7.16513e-07
-8.93859e-07
-1.06039e-06
-1.21639e-06
-1.36225e-06
-1.49821e-06
-1.62429e-06
-1.74044e-06
-1.84671e-06
-1.9432e-06
-2.03008e-06
-2.10748e-06
-2.17565e-06
-2.23502e-06
-2.28635e-06
-2.32955e-06
-2.36539e-06
-2.39718e-06
-2.42674e-06
-2.45769e-06
-2.49293e-06
-2.53866e-06
-2.60058e-06
-2.68004e-06
-2.77849e-06
-2.89571e-06
-3.02985e-06
-3.17931e-06
-3.34292e-06
-3.52155e-06
-3.71681e-06
-3.92887e-06
-4.15695e-06
-4.4014e-06
-4.6624e-06
-4.94032e-06
-5.23627e-06
-5.55052e-06
-5.88258e-06
-6.23166e-06
-6.59689e-06
-6.9772e-06
-7.37135e-06
-7.778e-06
-8.19577e-06
-6.27049e-07
-8.36741e-07
-1.0348e-06
-1.22144e-06
-1.39692e-06
-1.56133e-06
-1.71466e-06
-1.85683e-06
-1.98782e-06
-2.10773e-06
-2.2168e-06
-2.31515e-06
-2.40292e-06
-2.48044e-06
-2.54799e-06
-2.60611e-06
-2.65515e-06
-2.6982e-06
-2.73699e-06
-2.77321e-06
-2.80988e-06
-2.85274e-06
-2.90727e-06
-2.97563e-06
-3.05916e-06
-3.15849e-06
-3.27359e-06
-3.40514e-06
-3.55408e-06
-3.72042e-06
-3.90313e-06
-4.10124e-06
-4.31494e-06
-4.54546e-06
-4.79376e-06
-5.05983e-06
-5.34341e-06
-5.64441e-06
-5.96261e-06
-6.29754e-06
-6.64851e-06
-7.01469e-06
-7.39512e-06
-7.78875e-06
-8.1945e-06
-5.66464e-07
-8.03159e-07
-1.02706e-06
-1.23823e-06
-1.43679e-06
-1.62279e-06
-1.79621e-06
-1.95706e-06
-2.1054e-06
-2.24131e-06
-2.36494e-06
-2.47649e-06
-2.57617e-06
-2.66426e-06
-2.74128e-06
-2.80769e-06
-2.86492e-06
-2.91424e-06
-2.95699e-06
-2.99545e-06
-3.033e-06
-3.07454e-06
-3.12441e-06
-3.18462e-06
-3.25736e-06
-3.34478e-06
-3.448e-06
-3.56769e-06
-3.70408e-06
-3.85698e-06
-4.0263e-06
-4.21225e-06
-4.41528e-06
-4.6358e-06
-4.87403e-06
-5.12993e-06
-5.40339e-06
-5.69434e-06
-6.00261e-06
-6.32779e-06
-6.66935e-06
-7.02664e-06
-7.39887e-06
-7.78521e-06
-8.18475e-06
-5.1949e-07
-7.7772e-07
-1.02178e-06
-1.25169e-06
-1.46755e-06
-1.6694e-06
-1.85729e-06
-2.0313e-06
-2.19151e-06
-2.33799e-06
-2.47098e-06
-2.59076e-06
-2.69771e-06
-2.79223e-06
-2.8749e-06
-2.94644e-06
-3.00786e-06
-3.06035e-06
-3.10562e-06
-3.14606e-06
-3.1848e-06
-3.22596e-06
-3.27306e-06
-3.32856e-06
-3.39517e-06
-3.47516e-06
-3.56987e-06
-3.68018e-06
-3.80676e-06
-3.95e-06
-4.11016e-06
-4.28744e-06
-4.48206e-06
-4.6943e-06
-4.9244e-06
-5.1725e-06
-5.43859e-06
-5.72259e-06
-6.02432e-06
-6.34346e-06
-6.67957e-06
-7.03212e-06
-7.40047e-06
-7.78389e-06
-8.18158e-06
-4.77183e-07
-7.52168e-07
-1.0117e-06
-1.25581e-06
-1.4846e-06
-1.69811e-06
-1.89642e-06
-2.07967e-06
-2.24802e-06
-2.4016e-06
-2.54075e-06
-2.66563e-06
-2.77703e-06
-2.8754e-06
-2.96136e-06
-3.03573e-06
-3.09962e-06
-3.15438e-06
-3.20181e-06
-3.24415e-06
-3.28434e-06
-3.32603e-06
-3.37226e-06
-3.42565e-06
-3.48897e-06
-3.56455e-06
-3.65398e-06
-3.75837e-06
-3.87855e-06
-4.01514e-06
-4.16859e-06
-4.33929e-06
-4.52759e-06
-4.73383e-06
-4.95828e-06
-5.2011e-06
-5.46235e-06
-5.74199e-06
-6.03987e-06
-6.35576e-06
-6.68931e-06
-7.04005e-06
-7.40743e-06
-7.7908e-06
-8.18944e-06
-4.37024e-07
-7.25114e-07
-9.96617e-07
-1.25158e-06
-1.49008e-06
-1.7122e-06
-1.91803e-06
-2.10776e-06
-2.28166e-06
-2.44007e-06
-2.58369e-06
-2.71122e-06
-2.82531e-06
-2.926e-06
-3.01397e-06
-3.09019e-06
-3.1559e-06
-3.2125e-06
-3.26181e-06
-3.30601e-06
-3.34791e-06
-3.39084e-06
-3.43746e-06
-3.49043e-06
-3.55252e-06
-3.62597e-06
-3.71235e-06
-3.81296e-06
-3.92883e-06
-4.06084e-06
-4.20963e-06
-4.37576e-06
-4.55967e-06
-4.76177e-06
-4.98237e-06
-5.2217e-06
-5.47989e-06
-5.75698e-06
-6.05289e-06
-6.36743e-06
-6.70032e-06
-7.05117e-06
-7.41948e-06
-7.80465e-06
-8.20602e-06
-3.99825e-07
-6.98255e-07
-9.79089e-07
-1.24238e-06
-1.48822e-06
-1.71671e-06
-1.928e-06
-2.12228e-06
-2.29987e-06
-2.46111e-06
-2.60606e-06
-2.73705e-06
-2.85302e-06
-2.95514e-06
-3.04443e-06
-3.12195e-06
-3.189e-06
-3.24708e-06
-3.29804e-06
-3.344e-06
-3.38772e-06
-3.4322e-06
-3.47986e-06
-3.53336e-06
-3.5953e-06
-3.66773e-06
-3.75233e-06
-3.85055e-06
-3.96363e-06
-4.09256e-06
-4.23815e-06
-4.40107e-06
-4.58189e-06
-4.7811e-06
-4.99912e-06
-5.23623e-06
-5.49263e-06
-5.76844e-06
-6.06364e-06
-6.3781e-06
-6.7116e-06
-7.06378e-06
-7.43421e-06
-7.82233e-06
-8.22749e-06
-3.67063e-07
-6.73716e-07
-9.61882e-07
-1.23163e-06
-1.48306e-06
-1.7163e-06
-1.93153e-06
-2.12905e-06
-2.30923e-06
-2.47253e-06
-2.61956e-06
-2.75134e-06
-2.86824e-06
-2.97119e-06
-3.06125e-06
-3.13959e-06
-3.2076e-06
-3.26682e-06
-3.31916e-06
-3.36668e-06
-3.41205e-06
-3.45806e-06
-3.50689e-06
-3.56119e-06
-3.62337e-06
-3.69535e-06
-3.77891e-06
-3.87561e-06
-3.98679e-06
-4.11356e-06
-4.25685e-06
-4.41746e-06
-4.59607e-06
-4.79328e-06
-5.00955e-06
-5.24529e-06
-5.50074e-06
-5.77609e-06
-6.07138e-06
-6.38653e-06
-6.72138e-06
-7.07562e-06
-7.44884e-06
-7.84052e-06
-8.25004e-06
-3.39785e-07
-6.53048e-07
-9.4704e-07
-1.22184e-06
-1.47755e-06
-1.71433e-06
-1.93243e-06
-2.13222e-06
-2.31414e-06
-2.47871e-06
-2.62656e-06
-2.75904e-06
-2.87637e-06
-2.97966e-06
-3.07007e-06
-3.14885e-06
-3.21747e-06
-3.2775e-06
-3.33086e-06
-3.3796e-06
-3.42632e-06
-3.47355e-06
-3.52338e-06
-3.57843e-06
-3.64089e-06
-3.71264e-06
-3.7955e-06
-3.89111e-06
-4.00089e-06
-4.12603e-06
-4.26759e-06
-4.42645e-06
-4.60342e-06
-4.79916e-06
-5.01424e-06
-5.24911e-06
-5.50411e-06
-5.77948e-06
-6.07532e-06
-6.39161e-06
-6.72823e-06
-7.0849e-06
-7.46125e-06
-7.85679e-06
-8.27091e-06
-3.18358e-07
-6.37e-07
-9.35668e-07
-1.21445e-06
-1.47345e-06
-1.71288e-06
-1.93304e-06
-2.13436e-06
-2.31736e-06
-2.48266e-06
-2.63102e-06
-2.76354e-06
-2.88086e-06
-2.9841e-06
-3.07451e-06
-3.15339e-06
-3.22227e-06
-3.28275e-06
-3.33679e-06
-3.38636e-06
-3.43402e-06
-3.48211e-06
-3.53263e-06
-3.5882e-06
-3.65081e-06
-3.72233e-06
-3.8046e-06
-3.89931e-06
-4.00794e-06
-4.13175e-06
-4.27188e-06
-4.42933e-06
-4.60497e-06
-4.79957e-06
-5.01376e-06
-5.24806e-06
-5.5029e-06
-5.77856e-06
-6.0752e-06
-6.39285e-06
-6.73143e-06
-7.0907e-06
-7.47031e-06
-7.86978e-06
-8.28853e-06
-3.02564e-07
-6.25637e-07
-9.28097e-07
-1.21003e-06
-1.47158e-06
-1.71298e-06
-1.9346e-06
-2.13691e-06
-2.3205e-06
-2.48608e-06
-2.63449e-06
-2.76674e-06
-2.88374e-06
-2.98665e-06
-3.07677e-06
-3.15546e-06
-3.22429e-06
-3.28491e-06
-3.33926e-06
-3.3893e-06
-3.43751e-06
-3.48606e-06
-3.53695e-06
-3.59275e-06
-3.65532e-06
-3.72649e-06
-3.80816e-06
-3.90202e-06
-4.00959e-06
-4.13221e-06
-4.27109e-06
-4.4273e-06
-4.60181e-06
-4.79544e-06
-5.00891e-06
-5.24282e-06
-5.49764e-06
-5.77372e-06
-6.07126e-06
-6.39035e-06
-6.73094e-06
-7.09283e-06
-7.47569e-06
-7.87904e-06
-8.3023e-06
-2.91811e-07
-6.18578e-07
-9.24146e-07
-1.20861e-06
-1.47213e-06
-1.71499e-06
-1.93761e-06
-2.1405e-06
-2.32433e-06
-2.48986e-06
-2.63799e-06
-2.76975e-06
-2.88622e-06
-2.98856e-06
-3.07815e-06
-3.15642e-06
-3.22495e-06
-3.28543e-06
-3.3398e-06
-3.38997e-06
-3.43838e-06
-3.48706e-06
-3.538e-06
-3.59375e-06
-3.65606e-06
-3.72676e-06
-3.80775e-06
-3.90074e-06
-4.00728e-06
-4.12877e-06
-4.26648e-06
-4.42155e-06
-4.59502e-06
-4.78779e-06
-5.00064e-06
-5.23422e-06
-5.48908e-06
-5.76561e-06
-6.06408e-06
-6.3846e-06
-6.72716e-06
-7.09159e-06
-7.47758e-06
-7.88466e-06
-8.31225e-06
-2.85325e-07
-6.15212e-07
-9.23361e-07
-1.20987e-06
-1.47494e-06
-1.71888e-06
-1.94216e-06
-2.14534e-06
-2.32915e-06
-2.49439e-06
-2.64203e-06
-2.77316e-06
-2.88891e-06
-2.99049e-06
-3.0794e-06
-3.15706e-06
-3.2251e-06
-3.28523e-06
-3.33937e-06
-3.38941e-06
-3.43774e-06
-3.48625e-06
-3.53697e-06
-3.59243e-06
-3.6543e-06
-3.7244e-06
-3.80463e-06
-3.89671e-06
-4.00221e-06
-4.12259e-06
-4.25917e-06
-4.41316e-06
-4.58565e-06
-4.7776e-06
-4.98986e-06
-5.22315e-06
-5.47805e-06
-5.75502e-06
-6.05437e-06
-6.37625e-06
-6.72068e-06
-7.08752e-06
-7.47646e-06
-7.88706e-06
-8.31873e-06
-2.8229e-07
-6.14844e-07
-9.25162e-07
-1.21336e-06
-1.47965e-06
-1.72439e-06
-1.94808e-06
-2.15135e-06
-2.33494e-06
-2.49974e-06
-2.64676e-06
-2.77714e-06
-2.89206e-06
-2.99279e-06
-3.08089e-06
-3.15782e-06
-3.22522e-06
-3.28482e-06
-3.33855e-06
-3.38827e-06
-3.43629e-06
-3.48443e-06
-3.53473e-06
-3.58971e-06
-3.65098e-06
-3.72038e-06
-3.79978e-06
-3.8909e-06
-3.99536e-06
-4.11463e-06
-4.25011e-06
-4.40305e-06
-4.57458e-06
-4.76575e-06
-4.97744e-06
-5.21043e-06
-5.46535e-06
-5.74272e-06
-6.04287e-06
-6.36601e-06
-6.71217e-06
-7.08124e-06
-7.47294e-06
-7.88681e-06
-8.32226e-06
-2.81916e-07
-6.16773e-07
-9.28935e-07
-1.21853e-06
-1.4858e-06
-1.73114e-06
-1.95507e-06
-2.15827e-06
-2.34154e-06
-2.5058e-06
-2.65212e-06
-2.78167e-06
-2.89568e-06
-2.99556e-06
-3.08275e-06
-3.15888e-06
-3.22554e-06
-3.28451e-06
-3.3377e-06
-3.38695e-06
-3.43451e-06
-3.48212e-06
-3.53184e-06
-3.58621e-06
-3.64679e-06
-3.71541e-06
-3.79393e-06
-3.88407e-06
-3.98748e-06
-4.10567e-06
-4.24007e-06
-4.39198e-06
-4.56259e-06
-4.75298e-06
-4.96411e-06
-5.19678e-06
-5.4517e-06
-5.7294e-06
-6.03027e-06
-6.35454e-06
-6.70229e-06
-7.0734e-06
-7.46761e-06
-7.88449e-06
-8.32343e-06
-2.83498e-07
-6.20352e-07
-9.34091e-07
-1.22486e-06
-1.49292e-06
-1.7387e-06
-1.96275e-06
-2.1658e-06
-2.34867e-06
-2.51234e-06
-2.65792e-06
-2.78663e-06
-2.89971e-06
-2.99871e-06
-3.08499e-06
-3.16026e-06
-3.22613e-06
-3.2844e-06
-3.33698e-06
-3.38567e-06
-3.43268e-06
-3.47966e-06
-3.52871e-06
-3.58238e-06
-3.64222e-06
-3.71001e-06
-3.78763e-06
-3.8768e-06
-3.97918e-06
-4.09632e-06
-4.22967e-06
-4.38058e-06
-4.5503e-06
-4.73995e-06
-4.95051e-06
-5.18286e-06
-5.43774e-06
-5.71571e-06
-6.0172e-06
-6.34248e-06
-6.69163e-06
-7.06458e-06
-7.46108e-06
-7.88067e-06
-8.32278e-06
-2.86545e-07
-6.25156e-07
-9.40261e-07
-1.23202e-06
-1.50073e-06
-1.74683e-06
-1.97092e-06
-2.17374e-06
-2.35617e-06
-2.51923e-06
-2.66405e-06
-2.7919e-06
-2.90407e-06
-3.00212e-06
-3.08755e-06
-3.16193e-06
-3.22701e-06
-3.28455e-06
-3.33645e-06
-3.38452e-06
-3.43092e-06
-3.47721e-06
-3.52551e-06
-3.57843e-06
-3.63749e-06
-3.70444e-06
-3.78115e-06
-3.86935e-06
-3.97072e-06
-4.08683e-06
-4.21917e-06
-4.36913e-06
-4.53799e-06
-4.7269e-06
-4.93691e-06
-5.16893e-06
-5.42372e-06
-5.70191e-06