/*--------------------------------*- C++ -*----------------------------------*\
| =========                 |                                                 |
| \\      /  F ield         | OpenFOAM: The Open Source CFD Toolbox           |
|  \\    /   O peration     | Version:  2312                                  |
|   \\  /    A nd           | Website:  www.openfoam.com                      |
|    \\/     M anipulation  |                                                 |
\*---------------------------------------------------------------------------*/
FoamFile
{
    version     2.0;
    format      ascii;
    arch        "LSB;label=32;scalar=64";
    class       volVectorField;
    location    "33.25";
    object      U;
}
// * * * * * * * * * * * * * * * * * * * * * * * * * * * * * * * * * * * * * //

dimensions      [0 1 -1 0 0 0 0];

internalField   nonuniform List<vector> 
4800
(
(0.000475761 1.92835e-07 -1.73719e-26)
(0.000471979 1.74664e-07 -1.23161e-25)
(0.000470844 1.56595e-07 1.57635e-25)
(0.000471457 1.51252e-07 7.38166e-26)
(0.000472956 1.55204e-07 1.11658e-24)
(0.000475161 1.32494e-07 -2.68085e-24)
(0.000477968 7.87645e-08 2.54581e-24)
(0.000481398 -1.36097e-08 -3.76114e-24)
(0.000485522 -1.65226e-07 1.18843e-24)
(0.000490548 -4.20078e-07 4.21531e-24)
(0.000496942 -9.36979e-07 -1.29422e-24)
(0.000506041 -2.38163e-06 -9.99182e-26)
(0.000525452 -7.76354e-06 -1.63208e-24)
(0.000573552 -2.95509e-05 7.90292e-25)
(0.000651349 -9.45648e-05 -6.35428e-25)
(0.00147658 9.77878e-07 -5.50413e-26)
(0.00146499 4.58343e-07 6.86281e-26)
(0.0014611 5.72979e-08 -6.40492e-25)
(0.00146225 -2.74707e-07 4.73478e-25)
(0.00146588 -5.45503e-07 1.5866e-24)
(0.00147167 -8.78073e-07 -2.56633e-24)
(0.00147917 -1.30687e-06 -7.71872e-25)
(0.00148838 -1.88772e-06 -2.15122e-25)
(0.0014995 -2.73009e-06 6.28697e-24)
(0.00151312 -4.0732e-06 -4.68814e-24)
(0.00153055 -6.59919e-06 5.0968e-25)
(0.00155461 -1.25946e-05 7.99858e-25)
(0.00159459 -3.00249e-05 -1.20804e-24)
(0.00166103 -8.34118e-05 -3.96372e-25)
(0.00173078 -0.000202875 1.61919e-24)
(0.00258793 3.11733e-06 -3.94308e-26)
(0.00256797 1.50143e-06 4.02646e-26)
(0.00256068 2.69192e-07 4.1706e-25)
(0.00256171 -7.53997e-07 -9.96486e-25)
(0.00256663 -1.64773e-06 9.99942e-25)
(0.0025753 -2.69607e-06 9.82428e-25)
(0.0025867 -3.96849e-06 -2.54477e-24)
(0.00260074 -5.65223e-06 -1.62916e-24)
(0.00261767 -8.05303e-06 3.87735e-24)
(0.00263819 -1.18049e-05 1.50996e-24)
(0.00266381 -1.84249e-05 -5.24082e-24)
(0.00269677 -3.19543e-05 -8.43695e-25)
(0.00274132 -6.21298e-05 2.26584e-24)
(0.00279594 -0.00012901 3.67772e-24)
(0.00283457 -0.000239912 -1.91106e-24)
(0.00381554 6.92392e-06 1.45866e-26)
(0.0037869 3.47703e-06 -1.01826e-25)
(0.00377563 8.65664e-07 4.57627e-25)
(0.0037758 -1.29832e-06 4.99007e-25)
(0.00378113 -3.14305e-06 -4.78206e-25)
(0.00379166 -5.35142e-06 -2.94648e-24)
(0.00380592 -7.94564e-06 -2.09534e-24)
(0.00382345 -1.13079e-05 7.73546e-24)
(0.00384443 -1.60039e-05 3.31443e-24)
(0.00386936 -2.30711e-05 -4.68635e-24)
(0.00389914 -3.46158e-05 -1.91873e-24)
(0.00393431 -5.51858e-05 -1.49687e-24)
(0.00397417 -9.28258e-05 3.72257e-26)
(0.00401136 -0.000157815 1.12278e-24)
(0.00402724 -0.000244965 5.50765e-27)
(0.00516211 1.2701e-05 -2.67775e-26)
(0.00512514 6.59152e-06 -1.6402e-25)
(0.00510968 1.97104e-06 -1.06686e-25)
(0.0051082 -1.80422e-06 2.77033e-25)
(0.00511326 -4.95116e-06 -8.14453e-25)
(0.00512458 -8.76331e-06 2.08e-24)
(0.00514045 -1.31339e-05 -3.59272e-25)
(0.0051599 -1.86214e-05 1.35668e-24)
(0.00518289 -2.60571e-05 -7.53669e-24)
(0.00520942 -3.67151e-05 1.4481e-23)
(0.00523943 -5.27462e-05 -1.41316e-23)
(0.00527185 -7.78269e-05 7.54408e-24)
(0.0053034 -0.00011672 -7.06149e-24)
(0.00532643 -0.000172539 6.68055e-24)
(0.00533054 -0.000237673 -2.66406e-24)
(0.00662555 2.07226e-05 3.53298e-26)
(0.0065818 1.10643e-05 1.26542e-25)
(0.00656272 3.80732e-06 -6.71941e-25)
(0.00655913 -2.07331e-06 -4.33397e-25)
(0.00656372 -6.96919e-06 1.13712e-24)
(0.00657502 -1.27279e-05 4.28554e-25)
(0.00659123 -1.92301e-05 -3.4125e-24)
(0.00661102 -2.71232e-05 8.23621e-24)
(0.00663401 -3.74131e-05 -1.08459e-23)
(0.00665959 -5.13685e-05 2.58288e-24)
(0.00668686 -7.07097e-05 8.09958e-24)
(0.0067138 -9.76256e-05 -1.13462e-23)
(0.00673682 -0.000133882 5.70148e-24)
(0.00675038 -0.000178908 5.84188e-24)
(0.0067499 -0.000226522 -4.44614e-24)
(0.00819688 3.09911e-05 2.9042e-26)
(0.00814987 1.69383e-05 -1.7211e-25)
(0.00812902 6.47064e-06 6.21029e-25)
(0.0081239 -1.84827e-06 -8.66873e-25)
(0.0081283 -9.16642e-06 -3.02251e-24)
(0.00813936 -1.70684e-05 5.17195e-24)
(0.008155 -2.58397e-05 -3.20753e-24)
(0.00817394 -3.62068e-05 1.11125e-23)
(0.00819536 -4.91402e-05 -7.55096e-24)
(0.00821819 -6.568e-05 -3.59168e-24)
(0.00824102 -8.68809e-05 -7.17904e-24)
(0.00826169 -0.00011355 6.60133e-24)
(0.00827744 -0.000145558 1.86683e-24)
(0.00828507 -0.000181066 1.58821e-24)
(0.0082833 -0.000215941 -1.39752e-24)
(0.00985844 4.28867e-05 -4.11817e-26)
(0.00981432 2.38115e-05 5.65181e-25)
(0.00979533 9.71855e-06 -1.32486e-24)
(0.00979112 -1.52327e-06 -1.11591e-24)
(0.00979622 -1.1379e-05 3.85095e-25)
(0.00980743 -2.15697e-05 8.05737e-25)
(0.00982255 -3.26538e-05 3.03596e-24)
(0.00984021 -4.53325e-05 -8.41824e-24)
(0.00985934 -6.04222e-05 -4.62783e-24)
(0.00987866 -7.86088e-05 1.25263e-23)
(0.0098967 -0.000100295 -3.94166e-24)
(0.00991168 -0.00012536 1.34781e-23)
(0.00992192 -0.000152863 -7.11181e-24)
(0.00992587 -0.000180968 -2.25126e-24)
(0.00992387 -0.000207169 1.32975e-24)
(0.0115842 5.47419e-05 -5.23911e-27)
(0.0115517 3.04951e-05 3.0854e-25)
(0.0115401 1.2636e-05 -4.40977e-25)
(0.0115407 -1.64579e-06 1.0826e-24)
(0.0115489 -1.41248e-05 -6.54819e-24)
(0.0115618 -2.65684e-05 6.9453e-24)
(0.0115773 -3.97507e-05 -1.12327e-23)
(0.0115942 -5.43282e-05 6.86219e-24)
(0.0116114 -7.0886e-05 5.19983e-24)
(0.0116276 -8.97431e-05 1.14595e-23)
(0.0116417 -0.000110826 -1.49956e-23)
(0.0116524 -0.000133574 -2.77226e-24)
(0.0116591 -0.000156927 1.31165e-24)
(0.011661 -0.000179513 9.10749e-24)
(0.0116591 -0.000199909 -3.68791e-24)
(0.0133449 6.35528e-05 2.61844e-26)
(0.0133333 3.47129e-05 -1.23277e-25)
(0.0133358 1.33951e-05 5.76661e-25)
(0.013346 -3.69426e-06 -2.05534e-24)
(0.0133606 -1.85813e-05 3.15178e-24)
(0.0133776 -3.29948e-05 -4.14185e-24)
(0.0133955 -4.78385e-05 7.02537e-24)
(0.0134131 -6.36978e-05 1.29445e-24)
(0.0134296 -8.09284e-05 -9.85764e-24)
(0.0134442 -9.95681e-05 1.41508e-23)
(0.013456 -0.000119295 -1.56378e-23)
(0.0134644 -0.000139467 -4.58088e-24)
(0.0134694 -0.000159216 8.12482e-24)
(0.0134707 -0.000177663 2.38623e-24)
(0.0134696 -0.000194051 -1.03759e-24)
(0.0151195 6.54104e-05 8.00914e-26)
(0.0151351 3.32727e-05 -9.10806e-25)
(0.0151563 9.2964e-06 -1.61664e-24)
(0.0151799 -9.98664e-06 3.76593e-24)
(0.0152041 -2.67274e-05 1.75631e-24)
(0.0152277 -4.25633e-05 -1.105e-23)
(0.0152499 -5.84224e-05 3.35638e-24)
(0.0152701 -7.48039e-05 2.45912e-24)
(0.0152878 -9.18917e-05 -1.09411e-23)
(0.0153025 -0.000109572 1.13766e-23)
(0.0153141 -0.000127469 -9.10857e-24)
(0.0153223 -0.000145045 2.34296e-23)
(0.0153274 -0.000161702 -1.12054e-23)
(0.0153295 -0.00017694 6.55912e-24)
(0.0153299 -0.000190388 -1.77821e-24)
(0.0169105 5.73428e-05 1.39579e-27)
(0.0169508 2.33475e-05 5.48905e-25)
(0.0169901 -2.27458e-06 -1.2079e-24)
(0.0170272 -2.29285e-05 -6.77579e-25)
(0.0170613 -4.07755e-05 7.46402e-24)
(0.0170922 -5.73207e-05 -1.00508e-24)
(0.0171196 -7.34377e-05 -1.36118e-23)
(0.0171434 -8.95503e-05 1.6024e-23)
(0.0171635 -0.000105754 -3.59743e-24)
(0.0171799 -0.000121905 -1.25644e-23)
(0.0171927 -0.000137691 1.33981e-23)
(0.0172022 -0.000152744 7.13718e-24)
(0.0172089 -0.000166706 -6.12108e-24)
(0.0172128 -0.000179325 -1.03878e-23)
(0.0172153 -0.000190445 8.64053e-25)
(0.0187447 3.98692e-05 -3.32381e-26)
(0.0187985 4.74359e-06 -5.36869e-25)
(0.0188483 -2.18553e-05 3.08351e-24)
(0.0188934 -4.32655e-05 3.55299e-25)
(0.0189338 -6.1593e-05 2.07002e-24)
(0.0189693 -7.82216e-05 -7.06462e-24)
(0.0190002 -9.39514e-05 6.19831e-24)
(0.0190265 -0.000109166 1.46369e-24)
(0.0190485 -0.000123958 1.29146e-23)
(0.0190664 -0.000138237 -1.99429e-23)
(0.0190808 -0.000151809 -9.00468e-24)
(0.0190919 -0.00016447 -5.87052e-24)
(0.0191004 -0.000176038 1.11411e-23)
(0.0191063 -0.000186415 -3.06481e-25)
(0.0191109 -0.000195562 1.0598e-24)
(0.0206487 1.71819e-05 -3.04053e-26)
(0.0207024 -1.91078e-05 4.28155e-25)
(0.020752 -4.65996e-05 -6.48643e-25)
(0.0207969 -6.86052e-05 -2.22037e-26)
(0.0208369 -8.71618e-05 1.33462e-24)
(0.0208719 -0.000103566 3.54861e-24)
(0.0209023 -0.000118581 -1.37743e-23)
(0.020928 -0.000132603 1.10579e-24)
(0.0209496 -0.000145783 7.10243e-24)
(0.0209674 -0.000158135 -3.27665e-24)
(0.0209819 -0.000169595 8.95265e-24)
(0.0209935 -0.000180091 6.18479e-24)
(0.0210027 -0.000189566 -1.12625e-23)
(0.0210097 -0.000198008 7.57634e-24)
(0.0210155 -0.000205439 -6.28878e-24)
(0.0226108 -5.91082e-06 -7.17072e-25)
(0.0226567 -4.34698e-05 8.67725e-25)
(0.0226991 -7.19678e-05 6.16956e-25)
(0.0227374 -9.46003e-05 -5.03844e-24)
(0.0227717 -0.000113345 4.58682e-24)
(0.0228017 -0.000129454 -3.83457e-24)
(0.0228277 -0.000143699 2.69535e-24)
(0.0228497 -0.000156528 -2.02095e-23)
(0.0228684 -0.00016818 2.91742e-23)
(0.0228837 -0.000178778 -1.72788e-23)
(0.0228965 -0.000188375 1.54412e-23)
(0.0229067 -0.000197006 1.27718e-23)
(0.0229151 -0.000204699 -2.22986e-23)
(0.0229216 -0.0002115 7.20964e-24)
(0.0229272 -0.000217457 -2.997e-25)
(0.0245675 -2.73703e-05 -2.34827e-26)
(0.0246046 -6.57015e-05 9.38059e-25)
(0.0246382 -9.49554e-05 -1.05308e-24)
(0.0246684 -0.000118008 -1.30036e-25)
(0.0246952 -0.000136768 1.67711e-24)
(0.0247185 -0.000152468 -3.06634e-24)
(0.0247387 -0.00016592 3.0744e-24)
(0.0247558 -0.000177629 -1.0184e-23)
(0.0247702 -0.000187917 2.34826e-23)
(0.024782 -0.000197006 -3.03211e-23)
(0.0247918 -0.000205024 2.49213e-23)
(0.0247996 -0.00021207 -8.42623e-24)
(0.0248061 -0.000218233 4.22402e-25)
(0.0248111 -0.000223603 1.86939e-24)
(0.0248154 -0.000228249 -3.62338e-24)
(0.0264172 -4.76675e-05 -1.8865e-24)
(0.0264474 -8.57857e-05 4.59359e-24)
(0.026474 -0.000115066 -2.95392e-24)
(0.0264972 -0.000138002 1.50195e-25)
(0.0265176 -0.000156386 1.4005e-24)
(0.026535 -0.000171415 -1.83653e-24)
(0.02655 -0.000183949 -2.41392e-24)
(0.0265624 -0.000194508 -6.29047e-24)
(0.0265728 -0.000203498 2.8472e-24)
(0.0265812 -0.000211217 1.55122e-23)
(0.0265881 -0.000217846 -8.2846e-24)
(0.0265935 -0.000223513 4.99828e-24)
(0.0265979 -0.000228341 -2.06981e-24)
(0.026601 -0.000232424 -6.06456e-24)
(0.0266036 -0.00023582 3.09463e-24)
(0.0280349 -6.78489e-05 6.14609e-25)
(0.0280606 -0.000104777 -1.18796e-24)
(0.0280822 -0.000133214 -2.18442e-24)
(0.0281006 -0.000155392 4.89155e-24)
(0.0281162 -0.000172919 -1.52328e-24)
(0.0281294 -0.000186913 1.9602e-25)
(0.0281404 -0.000198346 -1.18407e-24)
(0.0281494 -0.000207637 -1.70095e-24)
(0.0281567 -0.000215282 1.37397e-24)
(0.0281624 -0.000221628 -2.1414e-24)
(0.0281669 -0.000226891 4.90637e-24)
(0.0281702 -0.000231164 2.65381e-24)
(0.0281728 -0.0002347 -9.82986e-24)
(0.0281744 -0.000237597 6.84104e-24)
(0.0281756 -0.000239785 -1.40118e-24)
(0.0292695 -8.91533e-05 1.82244e-24)
(0.0292915 -0.000123961 3.87547e-24)
(0.0293093 -0.000150716 -8.28807e-24)
(0.0293235 -0.000171475 -2.89546e-24)
(0.029335 -0.000187584 5.65068e-24)
(0.0293442 -0.000200207 1.72423e-24)
(0.0293515 -0.000210179 -1.12458e-24)
(0.029357 -0.000218027 -1.35007e-24)
(0.0293612 -0.000224152 2.20804e-24)
(0.029364 -0.000229011 -5.88135e-24)
(0.0293658 -0.000232874 4.00801e-24)
(0.0293668 -0.000235522 -3.18746e-25)
(0.0293669 -0.000237657 -3.06334e-25)
(0.029366 -0.000239137 4.27341e-25)
(0.0293653 -0.000239739 -2.05164e-25)
(0.0299162 -0.000108465 -4.83682e-24)
(0.0299298 -0.000139363 -1.15915e-23)
(0.0299395 -0.000163228 4.55544e-24)
(0.0299462 -0.000181559 2.38802e-23)
(0.0299509 -0.000195604 -7.09214e-24)
(0.029954 -0.000206408 -4.19297e-24)
(0.0299558 -0.000214652 2.67731e-24)
(0.0299565 -0.000220863 5.24959e-24)
(0.0299563 -0.000225455 -8.43122e-24)
(0.0299553 -0.000228784 2.87639e-24)
(0.0299537 -0.000231037 6.73073e-25)
(0.0299516 -0.000232409 -2.97834e-25)
(0.0299491 -0.000232937 -1.36758e-24)
(0.0299462 -0.00023275 2.31965e-24)
(0.0299427 -0.000232053 -1.11411e-24)
(0.0297585 -0.00012471 7.73885e-24)
(0.0297689 -0.000150658 -1.8059e-23)
(0.0297756 -0.000170741 2.69925e-24)
(0.0297796 -0.000186048 2.8619e-23)
(0.0297816 -0.000197637 -2.87301e-23)
(0.0297822 -0.000206318 1.105e-23)
(0.0297815 -0.000212687 1.03218e-23)
(0.0297799 -0.000217232 -2.41047e-23)
(0.0297774 -0.000220304 7.9091e-25)
(0.0297743 -0.000222158 7.5844e-24)
(0.0297705 -0.000222982 1.75418e-24)
(0.0297662 -0.000222946 -7.01943e-25)
(0.0297614 -0.000222196 2.87434e-25)
(0.0297563 -0.000220819 2.05227e-25)
(0.0297508 -0.000218831 -1.59128e-25)
(0.0288052 -0.000134717 4.82425e-24)
(0.0288096 -0.000156275 -1.02111e-23)
(0.028811 -0.000172941 -7.17622e-24)
(0.0288104 -0.00018557 3.37564e-23)
(0.0288082 -0.000194957 -3.13407e-23)
(0.0288049 -0.000201759 3.19713e-24)
(0.0288005 -0.000206488 5.37296e-24)
(0.0287954 -0.00020954 3.11932e-24)
(0.0287896 -0.000211229 2.96233e-24)
(0.0287832 -0.000211785 -1.5085e-23)
(0.0287764 -0.000211358 9.53793e-24)
(0.0287693 -0.000210059 5.32148e-25)
(0.0287619 -0.000207974 2.49516e-24)
(0.0287543 -0.00020518 -1.06499e-24)
(0.0287465 -0.000201748 2.13169e-27)
(0.0273057 -0.000137892 1.20326e-23)
(0.027305 -0.000155586 -2.13245e-23)
(0.0273016 -0.00016918 4.36373e-24)
(0.0272965 -0.000179343 -1.0178e-23)
(0.02729 -0.000186697 -1.30713e-23)
(0.0272825 -0.00019178 4.45313e-23)
(0.0272742 -0.000195024 -1.71768e-23)
(0.0272654 -0.000196756 4.80897e-24)
(0.0272561 -0.000197216 -2.64945e-24)
(0.0272464 -0.000196579 -6.41824e-24)
(0.0272365 -0.00019498 1.19004e-23)
(0.0272264 -0.000192536 -6.23175e-24)
(0.027216 -0.000189349 8.84305e-25)
(0.0272055 -0.000185504 6.17178e-25)
(0.0271948 -0.000181061 -3.44564e-26)
(0.025459 -0.000135937 4.64104e-24)
(0.0254523 -0.000149901 -2.37516e-23)
(0.0254433 -0.000160573 4.08039e-23)
(0.0254328 -0.000168445 -3.08032e-23)
(0.0254213 -0.000173973 3.00994e-23)
(0.0254092 -0.000177556 -1.01466e-23)
(0.0253964 -0.000179521 -6.84705e-24)
(0.0253834 -0.000180116 -7.17364e-24)
(0.02537 -0.000179534 1.2048e-23)
(0.0253565 -0.000177935 -8.65982e-25)
(0.0253428 -0.000175454 -1.09411e-23)
(0.0253291 -0.000172197 -1.11028e-24)
(0.0253153 -0.000168242 2.02302e-24)
(0.0253015 -0.000163652 -3.32478e-25)
(0.0252877 -0.000158472 4.65264e-26)
(0.0234057 -0.00012804 6.18104e-25)
(0.0233921 -0.000138777 -8.89887e-24)
(0.0233768 -0.000146916 -4.72418e-24)
(0.0233605 -0.000152801 3.93829e-23)
(0.0233436 -0.000156762 -3.81917e-23)
(0.0233262 -0.000159088 1.10284e-23)
(0.0233087 -0.000160017 1.79861e-24)
(0.023291 -0.000159739 -9.0891e-25)
(0.0232734 -0.00015841 -4.02078e-24)
(0.0232558 -0.00015617 1.68725e-23)
(0.0232384 -0.000153126 -1.32074e-23)
(0.0232212 -0.000149366 -4.24501e-25)
(0.0232041 -0.000144953 9.73078e-25)
(0.0231874 -0.000139945 4.80802e-25)
(0.0231708 -0.000134388 -3.33997e-25)
(0.0212469 -0.000114939 9.20319e-25)
(0.021227 -0.000123072 8.23024e-24)
(0.0212059 -0.000129121 -9.47176e-24)
(0.0211845 -0.00013338 -6.28956e-24)
(0.0211628 -0.000136114 3.91837e-23)
(0.0211411 -0.000137525 -2.99727e-23)
(0.0211195 -0.000137772 -7.7545e-25)
(0.0210982 -0.000136992 -5.74981e-24)
(0.0210772 -0.000135303 -3.38265e-25)
(0.0210566 -0.000132814 8.65381e-25)
(0.0210365 -0.000129609 -2.40504e-24)
(0.0210168 -0.000125761 2.27411e-24)
(0.0209977 -0.000121325 8.38751e-25)
(0.0209791 -0.000116354 6.36925e-25)
(0.020961 -0.00011089 3.71832e-25)
(0.0190642 -9.84609e-05 6.56167e-24)
(0.0190398 -0.000104608 -1.00051e-23)
(0.019015 -0.000109163 -7.69964e-24)
(0.0189902 -0.000112357 2.3412e-23)
(0.0189656 -0.000114352 -8.39832e-24)
(0.0189413 -0.000115271 -1.11832e-23)
(0.0189175 -0.000115221 3.97151e-24)
(0.0188942 -0.000114307 8.19357e-24)
(0.0188715 -0.000112624 -1.25104e-23)
(0.0188495 -0.000110252 1.19244e-23)
(0.0188282 -0.000107258 -6.01517e-24)
(0.0188077 -0.0001037 2.35717e-24)
(0.0187879 -9.96245e-05 -2.52493e-24)
(0.018769 -9.50758e-05 2.23197e-24)
(0.0187508 -9.00917e-05 -4.15201e-25)
(0.0169237 -8.10973e-05 -1.2742e-24)
(0.0168974 -8.5904e-05 -4.31462e-24)
(0.0168711 -8.94986e-05 -1.34269e-23)
(0.0168452 -9.20482e-05 3.74334e-23)
(0.0168197 -9.36488e-05 -6.90864e-24)
(0.0167947 -9.43809e-05 -1.01992e-23)
(0.0167703 -9.43236e-05 3.28033e-24)
(0.0167467 -9.35528e-05 -4.80236e-24)
(0.0167238 -9.21375e-05 -9.58122e-24)
(0.0167018 -9.01372e-05 9.27672e-24)
(0.0166807 -8.76022e-05 4.38818e-25)
(0.0166605 -8.45764e-05 -2.33638e-24)
(0.0166412 -8.10976e-05 2.68968e-24)
(0.016623 -7.72023e-05 9.68865e-26)
(0.0166058 -7.29225e-05 -1.3376e-25)
(0.0148737 -6.48287e-05 4.90698e-24)
(0.0148476 -6.87034e-05 6.99127e-24)
(0.0148217 -7.16544e-05 -6.72819e-24)
(0.0147962 -7.3819e-05 -1.39648e-23)
(0.0147712 -7.5245e-05 1.8363e-23)
(0.0147468 -7.5978e-05 -1.9633e-23)
(0.014723 -7.60704e-05 -4.46798e-25)
(0.0147 -7.55759e-05 7.36587e-24)
(0.0146779 -7.45448e-05 2.45239e-24)
(0.0146566 -7.30205e-05 -4.5973e-24)
(0.0146363 -7.104e-05 3.09254e-25)
(0.014617 -6.86361e-05 8.45672e-24)
(0.0145987 -6.58374e-05 -3.18489e-24)
(0.0145815 -6.2674e-05 -6.87702e-25)
(0.0145654 -5.91727e-05 -3.28154e-26)
(0.0129433 -5.05996e-05 -5.10179e-24)
(0.0129187 -5.37708e-05 6.54543e-24)
(0.0128942 -5.62652e-05 6.86591e-25)
(0.0128701 -5.81808e-05 1.24852e-23)
(0.0128463 -5.95206e-05 -1.03232e-23)
(0.0128231 -6.03073e-05 6.54046e-25)
(0.0128004 -6.05776e-05 -1.16966e-24)
(0.0127784 -6.03709e-05 -3.01023e-24)
(0.0127572 -5.97232e-05 2.35497e-24)
(0.0127369 -5.86653e-05 -7.57963e-24)
(0.0127174 -5.72228e-05 7.17887e-25)
(0.0126989 -5.5419e-05 1.78256e-24)
(0.0126815 -5.32753e-05 1.00874e-24)
(0.0126651 -5.08158e-05 3.5043e-25)
(0.0126499 -4.80623e-05 9.39351e-26)
(0.0111461 -3.86389e-05 3.78282e-24)
(0.0111235 -4.12345e-05 -3.00903e-24)
(0.0111009 -4.33593e-05 -1.27031e-23)
(0.0110784 -4.50579e-05 1.1915e-23)
(0.0110562 -4.63069e-05 1.59302e-23)
(0.0110342 -4.71209e-05 -4.34213e-24)
(0.0110127 -4.75267e-05 -8.13687e-24)
(0.0109917 -4.75518e-05 -1.07135e-23)
(0.0109714 -4.72213e-05 7.94868e-24)
(0.0109518 -4.65558e-05 3.84606e-25)
(0.0109331 -4.55723e-05 -1.63374e-24)
(0.0109152 -4.42864e-05 -3.70209e-25)
(0.0108982 -4.27137e-05 7.7972e-25)
(0.0108823 -4.0873e-05 -5.01652e-26)
(0.0108675 -3.87816e-05 -1.11587e-25)
(0.00948504 -2.88085e-05 -2.38335e-24)
(0.00946461 -3.09003e-05 -1.62824e-24)
(0.00944401 -3.26825e-05 2.07294e-24)
(0.00942326 -3.41481e-05 -6.16345e-24)
(0.00940251 -3.52682e-05 2.01081e-23)
(0.00938189 -3.60549e-05 -2.60631e-23)
(0.00936152 -3.65269e-05 2.49917e-23)
(0.00934152 -3.67029e-05 -1.04279e-23)
(0.009322 -3.65994e-05 2.2036e-24)
(0.00930306 -3.62295e-05 -7.81503e-26)
(0.00928478 -3.56038e-05 -1.69393e-24)
(0.00926728 -3.47321e-05 4.35144e-25)
(0.0092506 -3.36256e-05 -1.11118e-24)
(0.00923487 -3.22983e-05 -1.18387e-25)
(0.00922013 -3.07634e-05 5.37128e-26)
(0.00795697 -2.08516e-05 -1.15941e-24)
(0.00793875 -2.24912e-05 3.1178e-25)
(0.00792015 -2.39378e-05 6.4e-25)
(0.00790119 -2.51479e-05 -2.83459e-24)
(0.00788203 -2.61003e-05 -1.18594e-24)
(0.00786281 -2.6806e-05 1.06984e-23)
(0.00784365 -2.72769e-05 -6.23316e-24)
(0.00782469 -2.75251e-05 8.36939e-25)
(0.00780603 -2.75613e-05 -8.21578e-25)
(0.00778779 -2.73931e-05 -8.18941e-25)
(0.00777006 -2.70265e-05 -1.88346e-25)
(0.00775296 -2.64674e-05 1.41186e-24)
(0.00773656 -2.57233e-05 2.45853e-25)
(0.00772098 -2.48041e-05 -7.38419e-25)
(0.00770628 -2.37192e-05 -9.12961e-26)
(0.00655569 -1.4518e-05 -4.22117e-25)
(0.00653974 -1.57551e-05 -1.30497e-25)
(0.00652322 -1.6875e-05 -6.56789e-24)
(0.00650618 -1.78197e-05 1.84726e-24)
(0.00648877 -1.8581e-05 -4.42827e-24)
(0.00647115 -1.91673e-05 3.34076e-24)
(0.00645343 -1.9586e-05 5.9026e-24)
(0.00643574 -1.98445e-05 4.18611e-24)
(0.00641821 -1.99491e-05 -5.74903e-24)
(0.00640093 -1.9904e-05 1.72477e-24)
(0.00638402 -1.97121e-05 1.34279e-24)
(0.00636759 -1.93764e-05 -1.79106e-24)
(0.00635173 -1.89021e-05 9.44382e-25)
(0.00633655 -1.82952e-05 -2.59035e-26)
(0.00632212 -1.7562e-05 1.73629e-25)
(0.00527373 -9.59489e-06 -1.65533e-24)
(0.00526013 -1.04819e-05 -2.20548e-24)
(0.00524583 -1.12957e-05 -3.30237e-25)
(0.00523091 -1.19844e-05 5.43476e-24)
(0.00521553 -1.25504e-05 -3.73288e-24)
(0.00519981 -1.29995e-05 -6.41956e-25)
(0.00518388 -1.33356e-05 5.76534e-24)
(0.00516786 -1.35629e-05 -6.06089e-26)
(0.00515185 -1.36849e-05 -1.16217e-24)
(0.00513597 -1.37035e-05 -3.82356e-24)
(0.00512032 -1.36198e-05 5.32507e-25)
(0.00510502 -1.34353e-05 2.41941e-24)
(0.00509014 -1.31528e-05 -3.03792e-25)
(0.00507581 -1.27756e-05 -2.49233e-25)
(0.0050621 -1.23077e-05 1.53984e-25)
(0.00410324 -5.89685e-06 -3.62273e-25)
(0.00409208 -6.49099e-06 2.68993e-26)
(0.00408017 -7.03454e-06 2.628e-24)
(0.00406762 -7.49482e-06 1.67796e-24)
(0.00405456 -7.87981e-06 -1.24594e-24)
(0.0040411 -8.19258e-06 -2.87117e-24)
(0.00402736 -8.43489e-06 1.10806e-24)
(0.00401345 -8.6089e-06 -4.53494e-24)
(0.00399945 -8.71631e-06 3.47065e-24)
(0.00398549 -8.75758e-06 1.64456e-24)
(0.00397164 -8.73304e-06 -9.38897e-26)
(0.00395801 -8.64303e-06 -1.68182e-24)
(0.00394468 -8.48914e-06 2.739e-25)
(0.00393177 -8.27283e-06 -1.76852e-25)
(0.00391934 -7.99588e-06 7.96964e-26)
(0.00303643 -3.25151e-06 -6.68016e-25)
(0.00302777 -3.61646e-06 2.40358e-26)
(0.0030184 -3.94148e-06 2.11744e-24)
(0.00300843 -4.21607e-06 -1.31963e-24)
(0.00299798 -4.44882e-06 5.20032e-24)
(0.00298713 -4.64109e-06 -9.38354e-24)
(0.00297598 -4.79358e-06 7.44625e-24)
(0.00296461 -4.90723e-06 -6.03975e-24)
(0.00295311 -4.98281e-06 4.20207e-24)
(0.00294157 -5.02033e-06 -2.58893e-24)
(0.00293006 -5.01979e-06 8.73149e-25)
(0.00291867 -4.98115e-06 1.18941e-25)
(0.00290748 -4.90521e-06 1.57311e-25)
(0.00289658 -4.79262e-06 -1.86752e-25)
(0.00288603 -4.64377e-06 3.30415e-26)
(0.00206575 -1.49336e-06 1.01525e-24)
(0.00205961 -1.69012e-06 1.06418e-24)
(0.00205287 -1.85557e-06 -4.5743e-24)
(0.00204566 -1.99436e-06 3.30347e-24)
(0.00203804 -2.11215e-06 -4.84812e-26)
(0.00203007 -2.20951e-06 7.82914e-25)
(0.00202184 -2.28689e-06 -9.95249e-25)
(0.0020134 -2.34491e-06 -1.94937e-24)
(0.00200481 -2.38421e-06 1.89752e-24)
(0.00199615 -2.40497e-06 1.62359e-25)
(0.00198747 -2.40742e-06 -1.36929e-24)
(0.00197884 -2.39162e-06 4.93405e-25)
(0.00197032 -2.35811e-06 2.57366e-25)
(0.00196197 -2.3067e-06 -3.24407e-26)
(0.00195386 -2.23669e-06 -2.22429e-26)
(0.00118401 -4.63403e-07 -1.02619e-24)
(0.00118034 -5.1441e-07 3.10521e-24)
(0.00117628 -5.58284e-07 1.77499e-24)
(0.00117189 -5.98777e-07 -3.2713e-24)
(0.00116724 -6.35527e-07 -3.79356e-25)
(0.00116235 -6.67662e-07 -3.23953e-25)
(0.00115726 -6.94999e-07 9.49025e-25)
(0.00115202 -7.177e-07 -1.57277e-24)
(0.00114667 -7.36066e-07 2.05366e-24)
(0.00114125 -7.50218e-07 -1.00636e-24)
(0.00113579 -7.60313e-07 -5.99098e-25)
(0.00113033 -7.66334e-07 3.46129e-25)
(0.00112492 -7.68339e-07 -3.52408e-25)
(0.00111961 -7.63538e-07 3.3612e-25)
(0.00111441 -7.4952e-07 -4.81674e-26)
(0.000384394 -9.37251e-09 -7.36908e-27)
(0.000383091 9.26674e-08 6.04074e-25)
(0.000381648 1.63412e-07 6.69376e-25)
(0.000380096 2.06437e-07 -1.06946e-24)
(0.000378447 2.27036e-07 2.11957e-24)
(0.000376712 2.29453e-07 -2.30366e-24)
(0.000374904 2.17151e-07 1.43141e-25)
(0.000373037 1.93101e-07 1.16288e-24)
(0.000371123 1.59894e-07 -1.60356e-24)
(0.000369177 1.19879e-07 -2.56147e-25)
(0.000367211 7.51253e-08 9.9761e-25)
(0.000365241 2.75291e-08 -4.28953e-25)
(0.000363279 -2.12139e-08 -1.33847e-25)
(0.000361342 -6.76859e-08 1.08425e-25)
(0.000359443 -1.09189e-07 -3.99496e-27)
(0.000963485 -0.000236351 6.32177e-26)
(0.00110776 -0.000141898 1.4827e-24)
(0.00135132 -4.88148e-05 -4.067e-24)
(0.00160144 2.39848e-05 5.52568e-24)
(0.00184313 7.85371e-05 -2.06573e-24)
(0.00208101 0.000115686 -1.73015e-24)
(0.0023145 0.000138132 1.85636e-24)
(0.00254363 0.000148139 -3.41415e-24)
(0.00276867 0.000147677 3.22049e-25)
(0.00298988 0.000138506 2.00503e-24)
(0.00320759 0.000122183 -3.54116e-25)
(0.00342216 0.000100092 3.58753e-25)
(0.00363396 7.34875e-05 -4.6407e-26)
(0.00384335 4.36147e-05 1.56143e-25)
(0.00405079 1.18727e-05 -5.51227e-25)
(0.00425681 -1.99196e-05 2.76309e-25)
(0.0044626 -4.93928e-05 -2.43356e-26)
(0.00466982 -7.33632e-05 3.36892e-26)
(0.00488211 -8.8199e-05 -8.75659e-26)
(0.00510401 -8.97617e-05 7.36229e-26)
(0.00534294 -7.55747e-05 -1.52811e-26)
(0.00560555 -4.55007e-05 1.33185e-26)
(0.00587409 -8.54207e-06 -1.61286e-26)
(0.00611634 2.10141e-05 -2.4917e-26)
(0.0063193 3.74475e-05 4.88022e-26)
(0.00648143 3.97843e-05 -6.88155e-27)
(0.00660344 2.79309e-05 -3.94905e-27)
(0.00668735 2.0308e-06 -8.33056e-28)
(0.00673467 -3.73958e-05 -1.8908e-25)
(0.00674573 -8.89216e-05 4.49563e-25)
(0.00671941 -0.000150038 -1.26047e-24)
(0.00665495 -0.00021726 1.91654e-24)
(0.00655171 -0.000283959 -8.78324e-25)
(0.0064089 -0.000342514 -2.14979e-24)
(0.00622682 -0.000384338 2.1291e-24)
(0.00600663 -0.000399767 9.44074e-24)
(0.00575012 -0.00037809 -3.1376e-24)
(0.00545961 -0.00030694 1.77791e-24)
(0.00513811 -0.000170778 7.7704e-25)
(0.00478995 5.10992e-05 -1.18936e-23)
(0.0044204 0.000383224 -1.41062e-25)
(0.00403666 0.000842543 4.71687e-24)
(0.00362894 0.00139792 1.361e-24)
(0.00321575 0.00191453 -6.48601e-24)
(0.0029859 0.00198888 -3.08895e-25)
(0.00182733 -0.000323105 -1.78691e-24)
(0.00188931 -0.000267536 -2.2599e-24)
(0.0020428 -0.000178294 4.87857e-24)
(0.00223506 -9.81518e-05 1.94593e-24)
(0.00244002 -3.27122e-05 -6.75391e-24)
(0.0026522 1.57351e-05 6.79603e-24)
(0.00286674 4.87426e-05 -2.38106e-24)
(0.00308111 6.83554e-05 1.64306e-24)
(0.00329414 7.65219e-05 -2.18668e-24)
(0.00350518 7.50637e-05 3.60995e-26)
(0.00371396 6.56217e-05 -9.83868e-25)
(0.00392041 4.96695e-05 1.91246e-24)
(0.00412458 2.85532e-05 -9.92332e-25)
(0.00432652 3.59462e-06 -6.91122e-25)
(0.00452646 -2.37455e-05 -2.19055e-25)
(0.00472465 -5.1623e-05 7.95862e-25)
(0.00492196 -7.76714e-05 4.639e-26)
(0.00511967 -9.87806e-05 4.81386e-26)
(0.00532093 -0.000111404 -8.91806e-26)
(0.0055297 -0.000111499 4.93766e-26)
(0.00575291 -9.65984e-05 4.3031e-26)
(0.00599693 -6.6314e-05 2.55397e-26)
(0.00624624 -2.91421e-05 -9.45421e-26)
(0.00647203 1.2704e-06 -2.75341e-26)
(0.00666248 1.94604e-05 8.87413e-26)
(0.0068159 2.44154e-05 4.38859e-26)
(0.00693251 1.59775e-05 -2.12704e-26)
(0.00701376 -5.67057e-06 3.60684e-26)
(0.00706076 -3.98462e-05 -9.43752e-27)
(0.00707359 -8.48506e-05 1.87209e-25)
(0.00705101 -0.000137942 -2.09801e-24)
(0.00699243 -0.000195707 4.50402e-24)
(0.00689761 -0.000251406 -4.89e-24)
(0.00676615 -0.000297467 1.22247e-23)
(0.00659894 -0.000325489 -1.72365e-23)
(0.00639805 -0.000326003 4.41814e-24)
(0.00616658 -0.000288529 1.56795e-23)
(0.00590887 -0.0002011 -4.72539e-24)
(0.00563109 -4.90363e-05 -1.17636e-23)
(0.00534294 0.000186683 -6.6608e-24)
(0.00505953 0.000529004 1.51758e-23)
(0.00480637 0.000994384 -1.42372e-23)
(0.00461006 0.00155259 -2.7317e-24)
(0.00451305 0.00205909 9.11652e-24)
(0.00455224 0.00207327 2.63704e-24)
(0.00285278 -0.00033349 -1.98027e-26)
(0.00286458 -0.00032253 -2.66584e-24)
(0.0029332 -0.000268116 5.04196e-24)
(0.00305691 -0.000199247 3.70614e-24)
(0.00320966 -0.000134342 -6.24002e-24)
(0.00338174 -8.09364e-05 1.50794e-25)
(0.00356515 -4.07581e-05 5.23916e-25)
(0.00375472 -1.33211e-05 5.11717e-24)
(0.00394739 2.59303e-06 -5.99984e-24)
(0.00414124 8.4766e-06 3.41731e-24)
(0.00433512 5.84048e-06 8.40577e-25)
(0.00452827 -3.87414e-06 -5.09383e-24)
(0.00472024 -1.93031e-05 1.81446e-24)
(0.00491066 -3.90913e-05 6.03091e-25)
(0.00509941 -6.17459e-05 -9.63123e-25)
(0.00528637 -8.54224e-05 1.22173e-24)
(0.00547204 -0.000107764 -5.82261e-25)
(0.00565721 -0.00012575 1.28157e-25)
(0.00584452 -0.000135932 6.8672e-26)
(0.00603725 -0.000134372 -2.46718e-26)
(0.00624172 -0.000118625 -2.62208e-27)
(0.00646392 -8.80599e-05 -5.31623e-26)
(0.0066907 -5.06743e-05 8.90468e-26)
(0.00689698 -1.94591e-05 -2.05403e-25)
(0.00707227 4.1742e-07 1.80892e-25)
(0.00721474 7.9392e-06 -7.65219e-26)
(0.00732412 2.89655e-06 4.98831e-26)
(0.00740126 -1.44917e-05 -8.62991e-26)
(0.00744685 -4.33783e-05 4.54077e-25)
(0.00746069 -8.17827e-05 5.39602e-25)
(0.00744143 -0.000126723 1.20072e-24)
(0.00738869 -0.00017494 -5.22817e-24)
(0.00730261 -0.000219562 2.11863e-24)
(0.00718322 -0.000253114 6.23229e-24)
(0.00703203 -0.000267514 -1.45563e-23)
(0.00685207 -0.000253697 2.18045e-23)
(0.00664781 -0.000201788 -1.42025e-23)
(0.00642558 -0.000100878 1.88115e-23)
(0.0061945 6.16282e-05 -3.53833e-23)
(0.00596867 0.000300692 1.33534e-23)
(0.00576997 0.000632426 4.47984e-24)
(0.00563253 0.0010641 6.66066e-24)
(0.00559353 0.00155856 -8.26037e-24)
(0.00567949 0.00197661 2.09664e-24)
(0.00584349 0.00197184 -1.21953e-24)
(0.00401811 -0.000318467 -7.26258e-25)
(0.0040031 -0.000334832 -1.0314e-24)
(0.0040184 -0.000312902 -4.21945e-24)
(0.00407625 -0.000268486 1.4426e-24)
(0.00417179 -0.000215188 9.34338e-25)
(0.00429441 -0.000165198 2.99423e-24)
(0.00443635 -0.000123466 -5.57554e-24)
(0.00459124 -9.18228e-05 2.27882e-24)
(0.0047546 -7.04244e-05 6.47785e-24)
(0.00492332 -5.85779e-05 -1.78856e-24)
(0.00509522 -5.52077e-05 -1.51159e-24)
(0.00526878 -5.91029e-05 -2.201e-25)
(0.00544291 -6.90085e-05 6.26368e-25)
(0.0056167 -8.3623e-05 -1.11691e-24)
(0.00578959 -0.000101478 3.04643e-25)
(0.00596101 -0.000120763 2.65534e-26)
(0.00613105 -0.000139168 -3.7136e-27)
(0.00629992 -0.000153786 2.38715e-25)
(0.00646968 -0.00016129 -2.57225e-25)
(0.00664287 -0.000157872 -1.22037e-26)
(0.0068251 -0.000141135 1.47015e-25)
(0.00702184 -0.000110226 4.26895e-26)
(0.00722241 -7.26557e-05 1.59566e-25)
(0.00740579 -4.07316e-05 -7.2882e-26)
(0.00756288 -1.9286e-05 6.72712e-26)
(0.00769179 -9.29575e-06 -2.40468e-25)
(0.00779172 -1.10038e-05 9.6587e-26)
(0.00786293 -2.41517e-05 -2.66087e-25)
(0.00790569 -4.77519e-05 5.46297e-25)
(0.00791947 -7.94953e-05 1.00188e-25)
(0.00790289 -0.00011625 -8.1344e-25)
(0.00785569 -0.000154957 -2.03616e-25)
(0.00777842 -0.00018864 -2.52501e-25)
(0.00767157 -0.000210026 -1.61496e-24)
(0.00753728 -0.000211539 2.5671e-24)
(0.00737948 -0.000184793 -6.40324e-24)
(0.00720387 -0.000120948 2.8494e-23)
(0.00701847 -1.0813e-05 -1.52646e-23)