/*--------------------------------*- C++ -*----------------------------------*\
| =========                 |                                                 |
| \\      /  F ield         | OpenFOAM: The Open Source CFD Toolbox           |
|  \\    /   O peration     | Version:  2312                                  |
|   \\  /    A nd           | Website:  www.openfoam.com                      |
|    \\/     M anipulation  |                                                 |
\*---------------------------------------------------------------------------*/
FoamFile
{
    version     2.0;
    format      ascii;
    arch        "LSB;label=32;scalar=64";
    class       volScalarField;
    location    "66.75";
    object      p;
}
// * * * * * * * * * * * * * * * * * * * * * * * * * * * * * * * * * * * * * //

dimensions      [0 2 -2 0 0 0 0];

internalField   nonuniform List<scalar> 
4800
(
3.57846e-13
-1.29495e-06
-2.3001e-06
-3.09786e-06
-3.74471e-06
-4.2745e-06
-4.72644e-06
-5.11525e-06
-5.4528e-06
-5.752e-06
-6.02106e-06
-6.26134e-06
-6.46789e-06
-6.87337e-06
-8.38757e-06
1.71808e-08
-1.27672e-06
-2.28189e-06
-3.08037e-06
-3.7286e-06
-4.26053e-06
-4.71537e-06
-5.1082e-06
-5.45118e-06
-5.75912e-06
-6.04497e-06
-6.32283e-06
-6.60631e-06
-7.00081e-06
-7.7391e-06
3.48945e-08
-1.25784e-06
-2.26303e-06
-3.06234e-06
-3.7122e-06
-4.24602e-06
-4.70254e-06
-5.09873e-06
-5.44619e-06
-5.76036e-06
-6.05555e-06
-6.34659e-06
-6.64097e-06
-6.94707e-06
-7.24226e-06
5.22656e-08
-1.23889e-06
-2.24375e-06
-3.04361e-06
-3.69462e-06
-4.23039e-06
-4.68702e-06
-5.08528e-06
-5.43487e-06
-5.74999e-06
-6.04287e-06
-6.32028e-06
-6.5743e-06
-6.77553e-06
-6.8577e-06
7.06969e-08
-1.21838e-06
-2.22248e-06
-3.02246e-06
-3.67399e-06
-4.2116e-06
-4.66694e-06
-5.06476e-06
-5.4131e-06
-5.72269e-06
-6.00151e-06
-6.24752e-06
-6.44261e-06
-6.55056e-06
-6.51976e-06
9.15192e-08
-1.19496e-06
-2.19781e-06
-2.99738e-06
-3.64861e-06
-4.18703e-06
-4.64027e-06
-5.03387e-06
-5.37591e-06
-5.67256e-06
-5.92683e-06
-6.13105e-06
-6.26543e-06
-6.30228e-06
-6.21555e-06
1.16905e-07
-1.16655e-06
-2.16759e-06
-2.96599e-06
-3.61583e-06
-4.15217e-06
-4.60245e-06
-4.98821e-06
-5.31784e-06
-5.59423e-06
-5.81646e-06
-5.97562e-06
-6.05671e-06
-6.04563e-06
-5.93596e-06
1.50929e-07
-1.12931e-06
-2.12797e-06
-2.92421e-06
-3.57124e-06
-4.10343e-06
-4.54723e-06
-4.92138e-06
-5.23302e-06
-5.48352e-06
-5.6706e-06
-5.78784e-06
-5.82782e-06
-5.7881e-06
-5.67313e-06
2.00287e-07
-1.07687e-06
-2.07266e-06
-2.86563e-06
-3.50812e-06
-4.03379e-06
-4.46747e-06
-4.82587e-06
-5.11541e-06
-5.33739e-06
-5.49076e-06
-5.57358e-06
-5.58556e-06
-5.53182e-06
-5.42125e-06
2.74579e-07
-9.99875e-07
-1.99238e-06
-2.78089e-06
-3.41697e-06
-3.93358e-06
-4.35398e-06
-4.69352e-06
-4.95907e-06
-5.15333e-06
-5.27804e-06
-5.33592e-06
-5.33183e-06
-5.27467e-06
-5.17426e-06
3.85918e-07
-8.86055e-07
-1.87474e-06
-2.65757e-06
-3.2854e-06
-3.79077e-06
-4.19579e-06
-4.51533e-06
-4.75775e-06
-4.92818e-06
-5.03156e-06
-5.07421e-06
-5.06396e-06
-5.01095e-06
-4.92435e-06
5.48361e-07
-7.20619e-07
-1.70456e-06
-2.48043e-06
-3.09847e-06
-3.59121e-06
-3.98041e-06
-4.28129e-06
-4.50421e-06
-4.657e-06
-4.74728e-06
-4.78365e-06
-4.77514e-06
-4.73174e-06
-4.66141e-06
7.78279e-07
-4.86052e-07
-1.46382e-06
-2.2315e-06
-2.83882e-06
-3.31877e-06
-3.69373e-06
-3.97988e-06
-4.18927e-06
-4.33193e-06
-4.41735e-06
-4.45522e-06
-4.45471e-06
-4.42498e-06
-4.37278e-06
1.09556e-06
-1.60919e-07
-1.1306e-06
-1.88913e-06
-2.48589e-06
-2.95453e-06
-3.31878e-06
-3.59618e-06
-3.7998e-06
-3.94061e-06
-4.02904e-06
-4.07518e-06
-4.08785e-06
-4.0752e-06
-4.04291e-06
1.52388e-06
2.80699e-07
-6.78313e-07
-1.42712e-06
-2.01458e-06
-2.47506e-06
-2.83391e-06
-3.10989e-06
-3.31636e-06
-3.46391e-06
-3.56294e-06
-3.62356e-06
-3.65419e-06
-3.66204e-06
-3.65197e-06
2.0888e-06
8.67755e-07
-7.67957e-08
-8.15655e-07
-1.39603e-06
-1.85297e-06
-2.21314e-06
-2.49568e-06
-2.71339e-06
-2.87588e-06
-2.99284e-06
-3.074e-06
-3.12743e-06
-3.15964e-06
-3.17492e-06
2.8134e-06
1.62788e-06
7.04085e-07
-2.40524e-08
-6.01233e-07
-1.06063e-06
-1.42933e-06
-1.72606e-06
-1.96313e-06
-2.14847e-06
-2.29065e-06
-2.39877e-06
-2.48042e-06
-2.54155e-06
-2.58614e-06
3.71278e-06
2.58026e-06
1.68645e-06
9.72394e-07
3.96386e-07
-7.28685e-08
-4.589e-07
-7.77664e-07
-1.04112e-06
-1.25652e-06
-1.43157e-06
-1.5744e-06
-1.69171e-06
-1.7886e-06
-1.86865e-06
4.78769e-06
3.72826e-06
2.87498e-06
2.1795e-06
1.60719e-06
1.12685e-06
7.17396e-07
3.68665e-07
7.27913e-08
-1.78028e-07
-3.92158e-07
-5.77039e-07
-7.38079e-07
-8.79215e-07
-1.0035e-06
6.01273e-06
5.04615e-06
4.24392e-06
3.56974e-06
2.99799e-06
2.50746e-06
2.08191e-06
1.70603e-06
1.37729e-06
1.08935e-06
8.33695e-07
6.03697e-07
3.95264e-07
2.05483e-07
3.14735e-08
7.26888e-06
6.40303e-06
5.66093e-06
5.01244e-06
4.43607e-06
3.91934e-06
3.47538e-06
3.0735e-06
2.7099e-06
2.37864e-06
2.07328e-06
1.78981e-06
1.52584e-06
1.27917e-06
1.04717e-06
8.35488e-06
7.57959e-06
6.89232e-06
6.27859e-06
5.72398e-06
5.21326e-06
4.72069e-06
4.27921e-06
3.87979e-06
3.50831e-06
3.1575e-06
2.82537e-06
2.51088e-06
2.21213e-06
1.92655e-06
9.17847e-06
8.47019e-06
7.82402e-06
7.22811e-06
6.67173e-06
6.14923e-06
5.65949e-06
5.20469e-06
4.77891e-06
4.37459e-06
3.98774e-06
3.617e-06
3.26118e-06
2.9185e-06
2.58692e-06
9.77548e-06
9.11831e-06
8.50353e-06
7.92454e-06
7.37733e-06
6.86014e-06
6.36933e-06
5.90198e-06
5.45467e-06
5.02444e-06
4.60912e-06
4.20716e-06
3.81715e-06
3.43773e-06
3.06754e-06
1.0196e-05
9.57903e-06
8.99186e-06
8.4316e-06
7.89595e-06
7.3813e-06
6.88611e-06
6.40776e-06
5.94457e-06
5.49501e-06
5.05738e-06
4.63026e-06
4.21252e-06
3.80329e-06
3.40168e-06
1.04825e-05
9.89797e-06
9.33419e-06
8.78913e-06
8.26085e-06
7.7491e-06
7.25094e-06
6.76528e-06
6.29106e-06
5.82707e-06
5.37206e-06
4.92508e-06
4.48542e-06
4.05254e-06
3.62583e-06
1.06703e-05
1.01118e-05
9.56675e-06
9.03426e-06
8.5135e-06
8.00425e-06
7.50484e-06
7.01438e-06
6.53204e-06
6.05699e-06
5.58849e-06
5.12602e-06
4.66914e-06
4.21755e-06
3.77092e-06
1.07885e-05
1.02508e-05
9.72126e-06
9.19974e-06
8.68584e-06
8.17949e-06
7.6797e-06
7.18584e-06
6.69738e-06
6.21387e-06
5.73495e-06
5.26038e-06
4.78995e-06
4.32357e-06
3.86113e-06
1.08597e-05
1.03391e-05
9.8227e-06
9.31063e-06
8.80281e-06
8.29931e-06
7.79959e-06
7.30333e-06
6.81028e-06
6.32029e-06
5.83324e-06
5.34911e-06
4.8679e-06
4.38973e-06
3.91468e-06
1.09008e-05
1.03946e-05
9.88915e-06
9.38512e-06
8.88267e-06
8.38185e-06
7.88248e-06
7.38452e-06
6.88796e-06
6.39285e-06
5.8993e-06
5.40747e-06
4.91754e-06
4.42983e-06
3.94454e-06
1.09236e-05
1.04295e-05
9.93337e-06
9.43607e-06
8.9384e-06
8.44002e-06
7.94112e-06
7.44188e-06
6.9425e-06
6.44321e-06
5.94431e-06
5.44611e-06
4.94897e-06
4.45333e-06
3.95956e-06
1.09359e-05
1.04521e-05
9.96397e-06
9.47261e-06
8.97886e-06
8.48259e-06
7.98414e-06
7.48384e-06
6.98208e-06
6.47927e-06
5.97583e-06
5.47223e-06
4.96896e-06
4.4666e-06
3.96561e-06
1.09427e-05
1.04677e-05
9.98647e-06
9.50028e-06
9.00982e-06
8.5153e-06
8.01721e-06
7.51596e-06
7.01212e-06
6.50622e-06
5.99882e-06
5.49053e-06
4.98194e-06
4.47373e-06
3.9665e-06
1.09469e-05
1.04795e-05
1.00043e-05
9.52251e-06
9.03484e-06
8.54175e-06
8.04393e-06
7.54178e-06
7.03605e-06
6.52739e-06
6.01647e-06
5.50402e-06
4.99072e-06
4.47736e-06
3.96462e-06
1.09503e-05
1.04895e-05
1.00194e-05
9.54139e-06
9.0561e-06
8.56417e-06
8.06652e-06
7.56348e-06
7.05601e-06
6.54484e-06
6.03075e-06
5.51455e-06
4.99704e-06
4.47907e-06
3.96142e-06
1.09536e-05
1.04986e-05
1.00329e-05
9.55813e-06
9.07482e-06
8.58388e-06
8.08628e-06
7.58236e-06
7.07325e-06
6.55978e-06
6.04281e-06
5.52323e-06
5.00192e-06
4.47981e-06
3.95776e-06
1.09572e-05
1.05071e-05
1.00453e-05
9.57327e-06
9.09164e-06
8.60158e-06
8.10386e-06
7.59909e-06
7.08847e-06
6.57289e-06
6.0533e-06
5.53066e-06
5.00593e-06
4.48011e-06
3.9541e-06
1.09611e-05
1.05155e-05
1.0057e-05
9.58723e-06
9.10684e-06
8.61767e-06
8.11977e-06
7.61419e-06
7.10217e-06
6.58468e-06
6.06271e-06
5.5373e-06
5.00945e-06
4.48024e-06
3.95064e-06
1.09657e-05
1.05241e-05
1.00686e-05
9.60098e-06
9.12191e-06
8.63325e-06
8.13512e-06
7.62873e-06
7.11532e-06
6.596e-06
6.07175e-06
5.54367e-06
5.01283e-06
4.48035e-06
3.94728e-06
1.09706e-05
1.0533e-05
1.00805e-05
9.61495e-06
9.13714e-06
8.64889e-06
8.15051e-06
7.64327e-06
7.12846e-06
6.60708e-06
6.08044e-06
5.5497e-06
5.01599e-06
4.48049e-06
3.94423e-06
-9.53032e-06
-7.26838e-06
-5.89116e-06
-4.96515e-06
-4.23265e-06
-3.68156e-06
-3.26947e-06
-2.96838e-06
-2.75948e-06
-2.62752e-06
-2.55942e-06
-2.54324e-06
-2.56757e-06
-2.62129e-06
-2.69281e-06
-2.77069e-06
-2.84334e-06
-2.90132e-06
-2.94091e-06
-2.9638e-06
-2.98306e-06
-3.00174e-06
-2.98163e-06
-2.83391e-06
-2.48181e-06
-1.88679e-06
-1.0361e-06
6.07193e-08
1.38505e-06
2.91816e-06
4.63973e-06
6.52727e-06
8.5533e-06
1.06838e-05
1.28785e-05
1.50909e-05
1.72678e-05
1.9348e-05
2.12568e-05
2.28968e-05
2.41212e-05
2.47197e-05
2.42181e-05
2.21941e-05
1.69364e-05
-7.9821e-06
-6.77068e-06
-5.71021e-06
-4.87793e-06
-4.18834e-06
-3.6518e-06
-3.24547e-06
-2.94758e-06
-2.7414e-06
-2.61242e-06
-2.54771e-06
-2.53531e-06
-2.56367e-06
-2.62155e-06
-2.69724e-06
-2.77924e-06
-2.85586e-06
-2.91749e-06
-2.96001e-06
-2.98412e-06
-3.00141e-06
-3.01298e-06
-2.98027e-06
-2.81808e-06
-2.45284e-06
-1.84743e-06
-9.89214e-07
1.12218e-07
1.43766e-06
2.96752e-06
4.68019e-06
6.55141e-06
8.55144e-06
1.06433e-05
1.2783e-05
1.49188e-05
1.69902e-05
1.89249e-05
2.06302e-05
2.19778e-05
2.27654e-05
2.26628e-05
2.10043e-05
1.70248e-05
9.49188e-06
-7.17055e-06
-6.38988e-06
-5.52619e-06
-4.77925e-06
-4.13723e-06
-3.62083e-06
-3.22315e-06
-2.92975e-06
-2.72669e-06
-2.6007e-06
-2.53925e-06
-2.53041e-06
-2.56259e-06
-2.62442e-06
-2.70411e-06
-2.79004e-06
-2.87047e-06
-2.9356e-06
-2.98086e-06
-3.00591e-06
-3.02067e-06
-3.02404e-06
-2.9771e-06
-2.79877e-06
-2.41915e-06
-1.80276e-06
-9.37137e-07
1.67947e-07
1.49252e-06
3.01588e-06
4.7148e-06
6.5628e-06
8.5273e-06
1.05677e-05
1.26354e-05
1.46725e-05
1.66099e-05
1.8363e-05
1.98221e-05
2.08344e-05
2.11669e-05
2.0464e-05
1.81456e-05
1.38224e-05
7.28466e-06
-6.66797e-06
-6.08349e-06
-5.37617e-06
-4.69605e-06
-4.09863e-06
-3.6028e-06
-3.21339e-06
-2.92331e-06
-2.7218e-06
-2.59715e-06
-2.53743e-06
-2.53085e-06
-2.56579e-06
-2.63075e-06
-2.7138e-06
-2.8032e-06
-2.88709e-06
-2.95544e-06
-3.00317e-06
-3.02874e-06
-3.04026e-06
-3.03419e-06
-2.97112e-06
-2.77455e-06
-2.37865e-06
-1.74977e-06
-8.75714e-07
2.33373e-07
1.5564e-06
3.07125e-06
4.7526e-06
6.5712e-06
8.491e-06
1.04671e-05
1.24453e-05
1.4361e-05
1.61365e-05
1.76763e-05
1.88579e-05
1.9519e-05
1.94341e-05
1.83092e-05
1.57775e-05
1.16683e-05
6.27346e-06
-6.292e-06
-5.82533e-06
-5.23974e-06
-4.63857e-06
-4.08124e-06
-3.60559e-06
-3.22352e-06
-2.93486e-06
-2.7324e-06
-2.60644e-06
-2.54596e-06
-2.53943e-06
-2.57526e-06
-2.64182e-06
-2.72701e-06
-2.81894e-06
-2.90558e-06
-2.97658e-06
-3.02631e-06
-3.05188e-06
-3.05938e-06
-3.04255e-06
-2.96148e-06
-2.74481e-06
-2.33123e-06
-1.68917e-06
-8.06742e-07
3.05325e-07
1.62443e-06
3.12675e-06
4.78446e-06
6.56509e-06
8.4287e-06
1.03256e-05
1.21962e-05
1.39691e-05
1.55595e-05
1.6865e-05
1.77597e-05
1.80892e-05
1.7666e-05
1.629e-05
1.37867e-05
1.01625e-05
5.76993e-06
-5.99011e-06
-5.60753e-06
-5.11477e-06
-4.5937e-06
-4.08405e-06
-3.63084e-06
-3.25721e-06
-2.96909e-06
-2.76345e-06
-2.63333e-06
-2.56904e-06
-2.55961e-06
-2.59369e-06
-2.65959e-06
-2.74504e-06
-2.83796e-06
-2.92611e-06
-2.9988e-06
-3.04971e-06
-3.07449e-06
-3.07697e-06
-3.0479e-06
-2.94687e-06
-2.70835e-06
-2.27606e-06
-1.62072e-06
-7.30791e-07
3.82087e-07
1.69345e-06
3.17753e-06
4.80345e-06
6.53535e-06
8.3291e-06
1.01304e-05
1.18743e-05
1.34846e-05
1.48722e-05
1.59336e-05
1.65502e-05
1.65907e-05
1.59212e-05
1.44332e-05
1.20869e-05
8.99287e-06
5.46434e-06
-5.72867e-06
-5.41198e-06
-5.00299e-06
-4.54891e-06
-4.09541e-06
-3.67301e-06
-3.31281e-06
-3.02684e-06
-2.81741e-06
-2.68113e-06
-2.61015e-06
-2.59461e-06
-2.62378e-06
-2.68614e-06
-2.7693e-06
-2.86103e-06
-2.94891e-06
-3.02181e-06
-3.07269e-06
-3.09552e-06
-3.09171e-06
-3.04876e-06
-2.9257e-06
-2.66368e-06
-2.212e-06
-1.54383e-06
-6.48064e-07
4.6233e-07
1.76096e-06
3.21937e-06
4.8034e-06
6.47378e-06
8.18227e-06
9.87032e-06
1.14692e-05
1.29001e-05
1.40739e-05
1.48932e-05
1.52557e-05
1.50626e-05
1.42342e-05
1.27347e-05
1.06011e-05
7.97494e-06
5.1038e-06
-5.48847e-06
-5.22511e-06
-4.88801e-06
-4.50277e-06
-4.10336e-06
-3.7212e-06
-3.3823e-06
-3.10314e-06
-2.89197e-06
-2.74969e-06
-2.67037e-06
-2.64596e-06
-2.66709e-06
-2.72274e-06
-2.80064e-06
-2.88852e-06
-2.97384e-06
-3.045e-06
-3.09419e-06
-3.11359e-06
-3.10196e-06
-3.04335e-06
-2.89622e-06
-2.60931e-06
-2.13811e-06
-1.45848e-06
-5.59798e-07
5.43546e-07
1.82291e-06
3.2462e-06
4.776e-06
6.37008e-06
7.97652e-06
9.5337e-06
1.09711e-05
1.22106e-05
1.31683e-05
1.3759e-05
1.39025e-05
1.35347e-05
1.26212e-05
1.11744e-05
9.26539e-06
7.02957e-06
4.65268e-06
-5.25982e-06
-5.04065e-06
-4.76402e-06
-4.44328e-06
-4.10092e-06
-3.7628e-06
-3.45338e-06
-3.18745e-06
-2.9796e-06
-2.83438e-06
-2.74694e-06
-2.71218e-06
-2.7229e-06
-2.76901e-06
-2.83868e-06
-2.91984e-06
-3.00002e-06
-3.06719e-06
-3.11274e-06
-3.12697e-06
-3.10581e-06
-3.02981e-06
-2.85679e-06
-2.54424e-06
-2.05417e-06
-1.36619e-06
-4.68953e-07
6.21102e-07
1.87329e-06
3.24927e-06
4.71004e-06
6.21128e-06
7.69823e-06
9.10792e-06
1.03709e-05
1.14134e-05
1.21614e-05
1.25463e-05
1.25119e-05
1.20247e-05
1.10831e-05
9.72529e-06
8.03101e-06
6.11576e-06
4.11567e-06
-5.03574e-06
-4.85419e-06
-4.62854e-06
-4.36542e-06
-4.07881e-06
-3.78769e-06
-3.51129e-06
-3.26572e-06
-3.0697e-06
-2.92678e-06
-2.83304e-06
-2.78807e-06
-2.78737e-06
-2.82206e-06
-2.88108e-06
-2.95295e-06
-3.02551e-06
-3.08642e-06
-3.1263e-06
-3.1336e-06
-3.10131e-06
-3.00647e-06
-2.80649e-06
-2.46842e-06
-1.96224e-06
-1.2703e-06
-3.82248e-07
6.89729e-07
1.90335e-06
3.21602e-06
4.59101e-06
5.98191e-06
7.33236e-06
8.58042e-06
9.66077e-06
1.05079e-05
1.10607e-05
1.12687e-05
1.10981e-05
1.05388e-05
9.6093e-06
8.35781e-06
6.85925e-06
5.20658e-06
3.49895e-06
-4.80834e-06
-4.65976e-06
-4.47763e-06
-4.26514e-06
-4.03099e-06
-3.78808e-06
-3.54452e-06
-3.32585e-06
-3.15067e-06
-3.01462e-06
-2.91772e-06
-2.86478e-06
-2.85349e-06
-2.87632e-06
-2.92341e-06
-2.98422e-06
-3.04722e-06
-3.1e-06
-3.13252e-06
-3.13146e-06
-3.08689e-06
-2.97249e-06
-2.74557e-06
-2.38403e-06
-1.86627e-06
-1.18276e-06
-3.03986e-07
7.41852e-07
1.89827e-06
3.12954e-06
4.40135e-06
5.66454e-06
6.86332e-06
7.93956e-06
8.83506e-06
9.49519e-06
9.87355e-06
9.93635e-06
9.6679e-06
9.07399e-06
8.18274e-06
7.04278e-06
5.71856e-06
4.28255e-06
2.80718e-06
-4.56763e-06
-4.44879e-06
-4.3043e-06
-4.13542e-06
-3.94666e-06
-3.74674e-06
-3.54638e-06
-3.36325e-06
-3.20782e-06
-3.08082e-06
-2.98702e-06
-2.931e-06
-2.91187e-06
-2.9241e-06
-2.95952e-06
-3.00878e-06
-3.06133e-06
-3.10498e-06
-3.12918e-06
-3.11917e-06
-3.06213e-06
-2.92923e-06
-2.67586e-06
-2.29561e-06
-1.78192e-06
-1.10866e-06
-2.39235e-07
7.57773e-07
1.83631e-06
2.96967e-06
4.12107e-06
5.24065e-06
6.27613e-06
7.17572e-06
7.89065e-06
8.37833e-06
8.60644e-06
8.55531e-06
8.2221e-06
7.62141e-06
6.78398e-06
5.75372e-06
4.58336e-06
3.32837e-06
2.04205e-06
-4.30123e-06
-4.2101e-06
-4.09937e-06
-3.96955e-06
-3.82338e-06
-3.667e-06
-3.50888e-06
-3.35869e-06
-3.22503e-06
-3.11347e-06
-3.02906e-06
-2.97528e-06
-2.95231e-06
-2.95677e-06
-2.98243e-06
-3.0213e-06
-3.06399e-06
-3.09888e-06
-3.11507e-06
-3.09699e-06
-3.02866e-06
-2.88119e-06
-2.60485e-06
-2.21617e-06
-1.71537e-06
-1.04791e-06
-2.19423e-07
7.08478e-07
1.69438e-06
2.71416e-06
3.72899e-06
4.69242e-06
5.55816e-06
6.28242e-06
6.82731e-06
7.16231e-06
7.26577e-06
7.12916e-06
6.75787e-06
6.16999e-06
5.39449e-06
4.46847e-06
3.43364e-06
2.33206e-06
1.20318e-06
-3.99412e-06
-3.9298e-06
-3.85059e-06
-3.7568e-06
-3.65002e-06
-3.53408e-06
-3.41459e-06
-3.29813e-06
-3.1917e-06
-3.10137e-06
-3.03169e-06
-2.98563e-06
-2.96407e-06
-2.96534e-06
-2.98509e-06
-3.01675e-06
-3.05212e-06
-3.08054e-06
-3.09084e-06
-3.06753e-06
-2.99188e-06
-2.83514e-06
-2.55011e-06
-2.15576e-06
-1.67002e-06
-1.03752e-06
-2.73484e-07
5.68819e-07
1.44862e-06
2.33933e-06
3.20479e-06
4.00508e-06
4.7012e-06
5.25825e-06
5.64973e-06
5.85386e-06
5.85767e-06
5.66047e-06
5.27186e-06
4.70982e-06
3.99938e-06
3.17045e-06
2.25527e-06
1.2855e-06
2.9049e-07
-3.62729e-06
-3.59006e-06
-3.54143e-06
-3.48172e-06
-3.41182e-06
-3.33409e-06
-3.25231e-06
-3.17124e-06
-3.0961e-06
-3.03178e-06
-2.98219e-06
-2.95006e-06
-2.93662e-06
-2.94125e-06
-2.96108e-06
-2.99098e-06
-3.02408e-06
-3.05081e-06
-3.05999e-06
-3.03673e-06
-2.96111e-06
-2.80411e-06
-2.52717e-06
-2.14202e-06
-1.67993e-06
-1.10352e-06
-4.23876e-07
3.15044e-07
1.07335e-06
1.82247e-06
2.53175e-06
3.1684e-06
3.70404e-06
4.10746e-06
4.36562e-06
4.46118e-06
4.38868e-06
4.15217e-06
3.76208e-06
3.23419e-06
2.58885e-06
1.84942e-06
1.04037e-06
1.85382e-07
-6.93699e-07
-3.17699e-06
-3.16869e-06
-3.15151e-06
-3.12591e-06
-3.09251e-06
-3.05287e-06
-3.00954e-06
-2.96583e-06
-2.92543e-06
-2.89198e-06
-2.86862e-06
-2.85777e-06
-2.86071e-06
-2.87732e-06
-2.90576e-06
-2.94194e-06
-2.98035e-06
-3.01308e-06
-3.02931e-06
-3.01492e-06
-2.94999e-06
-2.80706e-06
-2.55395e-06
-2.20245e-06
-1.77963e-06
-1.27456e-06
-6.9622e-07
-7.86906e-08
5.43473e-07
1.14405e-06
1.69684e-06
2.17545e-06
2.5593e-06
2.83674e-06
2.98366e-06
2.99297e-06
2.86588e-06
2.60803e-06
2.2285e-06
1.73995e-06
1.15828e-06
5.01304e-07
-2.12725e-07
-9.66263e-07
-1.74305e-06
-2.61864e-06
-2.64261e-06
-2.65964e-06
-2.67033e-06
-2.6753e-06
-2.67563e-06
-2.67308e-06
-2.66988e-06
-2.66861e-06
-2.67186e-06
-2.68203e-06
-2.70105e-06
-2.73009e-06
-2.76922e-06
-2.81735e-06
-2.87143e-06
-2.92641e-06
-2.97532e-06
-3.00956e-06
-3.01682e-06
-2.97762e-06
-2.8669e-06
-2.65844e-06
-2.36253e-06
-2.00383e-06
-1.58777e-06
-1.1242e-06
-6.38184e-07
-1.57874e-07
2.93537e-07
6.95581e-07
1.03334e-06
1.29332e-06
1.45763e-06
1.51259e-06
1.45719e-06
1.29504e-06
1.03078e-06
6.71023e-07
2.25386e-07
-2.94068e-07
-8.74123e-07
-1.50144e-06
-2.1632e-06
-2.84738e-06
-1.93704e-06
-1.99807e-06
-2.05354e-06
-2.10432e-06
-2.15121e-06
-2.19513e-06
-2.23731e-06
-2.27928e-06
-2.32283e-06
-2.36976e-06
-2.42179e-06
-2.48041e-06
-2.54637e-06
-2.62008e-06
-2.70052e-06
-2.78525e-06
-2.87266e-06
-2.95382e-06
-3.01981e-06
-3.06339e-06
-3.06793e-06
-3.01101e-06
-2.87076e-06
-2.65536e-06
-2.38614e-06
-2.07561e-06
-1.7356e-06
-1.38337e-06
-1.0403e-06
-7.28655e-07
-4.59495e-07
-2.48425e-07
-9.61581e-08
-2.36242e-08
-3.78539e-08
-1.36484e-07
-3.16464e-07
-5.7515e-07
-9.08042e-07
-1.308e-06
-1.76615e-06
-2.27303e-06
-2.81922e-06
-3.39556e-06
-3.99326e-06
-1.1165e-06
-1.22281e-06
-1.32434e-06
-1.42232e-06
-1.51779e-06
-1.61174e-06
-1.70518e-06
-1.79926e-06
-1.89522e-06
-1.99439e-06
-2.09791e-06
-2.20691e-06
-2.3221e-06
-2.44309e-06
-2.5704e-06
-2.70233e-06
-2.83215e-06
-2.96118e-06
-3.0831e-06
-3.18189e-06
-3.24882e-06
-3.26844e-06
-3.22074e-06
-3.1094e-06
-2.95093e-06
-2.75907e-06
-2.54662e-06
-2.327e-06
-2.11483e-06
-1.92758e-06
-1.77533e-06
-1.65625e-06
-1.59145e-06
-1.58903e-06
-1.64926e-06
-1.77063e-06
-1.95294e-06
-2.19543e-06
-2.49486e-06
-2.84589e-06
-3.24231e-06
-3.67777e-06
-4.14589e-06
-4.64028e-06
-5.15461e-06
-1.33475e-07
-2.94522e-07
-4.52849e-07
-6.09033e-07
-7.6403e-07
-9.18881e-07
-1.07457e-06
-1.23204e-06
-1.39218e-06
-1.55595e-06
-1.72413e-06
-1.89747e-06
-2.07653e-06
-2.26108e-06
-2.45137e-06
-2.64579e-06
-2.83976e-06
-3.03505e-06
-3.22522e-06
-3.39757e-06
-3.54685e-06
-3.6628e-06
-3.72659e-06
-3.73541e-06
-3.70049e-06
-3.63414e-06
-3.54637e-06
-3.44961e-06
-3.35861e-06
-3.27413e-06
-3.2055e-06
-3.16119e-06
-3.16228e-06
-3.20814e-06
-3.29434e-06
-3.42184e-06
-3.59349e-06
-3.8098e-06
-4.06847e-06
-4.36591e-06
-4.69832e-06
-5.06187e-06
-5.45252e-06
-5.86601e-06
-6.29788e-06
8.23399e-07
6.02708e-07
3.8379e-07
1.65926e-07
-5.19333e-08
-2.70836e-07
-4.91689e-07
-7.15264e-07
-9.4225e-07
-1.17331e-06
-1.40907e-06
-1.65007e-06
-1.89667e-06
-2.1489e-06
-2.40652e-06
-2.66848e-06
-2.93284e-06
-3.19772e-06
-3.45872e-06
-3.70966e-06
-3.94527e-06
-4.15805e-06
-4.32955e-06
-4.45037e-06
-4.52678e-06
-4.56837e-06
-4.58426e-06
-4.58508e-06
-4.58037e-06
-4.5745e-06
-4.57347e-06
-4.59479e-06
-4.642e-06
-4.71314e-06
-4.80853e-06
-4.93158e-06
-5.08519e-06
-5.26992e-06
-5.48466e-06
-5.72775e-06
-5.99739e-06
-6.29153e-06
-6.60776e-06
-6.94342e-06
-7.29569e-06
1.64787e-06
1.37074e-06
1.09397e-06
8.17124e-07
5.3932e-07
2.59647e-07
-2.26481e-08
-3.08169e-07
-5.97428e-07
-8.90909e-07
-1.18907e-06
-1.49226e-06
-1.80075e-06
-2.11445e-06
-2.43305e-06
-2.75574e-06
-3.08094e-06
-3.40672e-06
-3.7305e-06
-4.04807e-06
-4.35444e-06
-4.64406e-06
-4.89819e-06
-5.10286e-06
-5.26106e-06
-5.38078e-06
-5.47126e-06
-5.54057e-06
-5.59595e-06
-5.6478e-06
-5.70112e-06
-5.76404e-06
-5.8371e-06
-5.92129e-06
-6.01999e-06
-6.13659e-06
-6.27294e-06
-6.42976e-06
-6.60717e-06
-6.80497e-06
-7.02257e-06
-7.25902e-06
-7.5131e-06
-7.78341e-06
-8.06838e-06
2.26104e-06
1.93575e-06
1.60987e-06
1.28302e-06
9.54533e-07
6.23743e-07
2.90119e-07
-4.6747e-08
-3.87197e-07
-7.31541e-07
-1.08006e-06
-1.43293e-06
-1.79023e-06
-2.15179e-06
-2.51719e-06
-2.88569e-06
-3.25606e-06
-3.6267e-06
-3.99531e-06
-4.35849e-06
-4.71223e-06
-5.05216e-06
-5.35939e-06
-5.61772e-06
-5.82895e-06
-6.00047e-06
-6.14018e-06
-6.2554e-06
-6.35237e-06
-6.43927e-06
-6.52295e-06
-6.60617e-06
-6.69039e-06
-6.77909e-06
-6.87595e-06
-6.98344e-06
-7.10319e-06
-7.23645e-06
-7.38415e-06
-7.54677e-06
-7.72441e-06
-7.91686e-06
-8.12367e-06
-8.3442e-06
-8.57766e-06
2.702e-06
2.33639e-06
1.96956e-06
1.60126e-06
1.23104e-06
8.58516e-07
4.83378e-07
1.05421e-07
-2.75518e-07
-6.59569e-07
-1.04683e-06
-1.4373e-06
-1.83088e-06
-2.2273e-06
-2.62607e-06
-3.02644e-06
-3.42731e-06
-3.82712e-06
-4.22384e-06
-4.61474e-06
-4.99663e-06
-5.36573e-06
-5.7036e-06
-5.99386e-06
-6.23783e-06
-6.44214e-06
-6.61352e-06
-6.75839e-06
-6.88322e-06
-6.99432e-06
-7.09589e-06
-7.1909e-06
-7.28284e-06
-7.37513e-06
-7.47051e-06
-7.57114e-06
-7.67892e-06
-7.79545e-06
-7.92199e-06
-8.0594e-06
-8.20827e-06
-8.3689e-06
-8.54141e-06
-8.72572e-06
-8.92163e-06
3.00379e-06
2.60541e-06
2.20552e-06
1.804e-06
1.40066e-06
9.95315e-07
5.87906e-07
1.78411e-07
-2.33155e-07
-6.46749e-07
-1.06229e-06
-1.47962e-06
-1.89849e-06
-2.3185e-06
-2.73909e-06
-3.15944e-06
-3.57848e-06
-3.99478e-06
-4.40659e-06
-4.81164e-06
-5.20721e-06
-5.59002e-06
-5.94284e-06
-6.25013e-06
-6.51296e-06
-6.73734e-06
-6.9292e-06
-7.09416e-06
-7.23753e-06
-7.36426e-06
-7.47793e-06
-7.58227e-06
-7.6807e-06
-7.776e-06
-7.87062e-06
-7.96681e-06
-8.06661e-06
-8.17176e-06
-8.28368e-06
-8.40353e-06
-8.53223e-06
-8.67049e-06
-8.81879e-06
-8.9775e-06
-9.14679e-06
3.20204e-06
2.77753e-06
2.3515e-06
1.92397e-06
1.49495e-06
1.06448e-06
6.32684e-07
1.99727e-07
-2.3422e-07
-6.68956e-07
-1.10424e-06
-1.53978e-06
-1.97517e-06
-2.40991e-06
-2.84335e-06
-3.27466e-06
-3.70281e-06
-4.12648e-06
-4.54414e-06
-4.9538e-06
-5.35318e-06
-5.73947e-06
-6.09703e-06
-6.41175e-06
-6.68459e-06
-6.92084e-06
-7.12553e-06
-7.30395e-06
-7.45943e-06
-7.59692e-06
-7.71982e-06
-7.83159e-06
-7.93517e-06
-8.03315e-06
-8.12798e-06
-8.22194e-06
-8.31705e-06
-8.41509e-06
-8.51765e-06
-8.62607e-06
-8.74151e-06
-8.86495e-06
-8.99716e-06
-9.13879e-06
-9.29035e-06
3.32656e-06
2.88144e-06
2.43499e-06
1.98737e-06
1.53876e-06
1.08939e-06
6.39559e-07
1.89564e-07
-2.60279e-07
-7.09631e-07
-1.15812e-06
-1.60531e-06
-2.05072e-06
-2.49373e-06
-2.93366e-06
-3.36965e-06
-3.80073e-06
-4.22566e-06
-4.64309e-06
-5.05127e-06
-5.44832e-06
-5.8318e-06
-6.18789e-06
-6.50416e-06
-6.78145e-06
-7.02414e-06
-7.23638e-06
-7.42246e-06
-7.58713e-06
-7.73269e-06
-7.86269e-06
-7.98027e-06
-8.08818e-06
-8.18899e-06
-8.28506e-06
-8.37858e-06
-8.47156e-06
-8.56583e-06
-8.66305e-06
-8.76472e-06
-8.87215e-06
-8.9865e-06
-9.10877e-06
-9.23983e-06
-9.38043e-06
3.40049e-06
2.9392e-06
2.47687e-06
2.01383e-06
1.55039e-06
1.08694e-06
6.23902e-07
1.61709e-07
-2.9921e-07
-7.584e-07
-1.21538e-06
-1.66961e-06
-2.12053e-06
-2.56745e-06
-3.00966e-06
-3.44629e-06
-3.87641e-06
-4.29888e-06
-4.71247e-06
-5.11567e-06
-5.50691e-06
-5.88411e-06
-6.23524e-06
-6.54961e-06
-6.8278e-06
-7.0735e-06
-7.29024e-06
-7.48177e-06
-7.65199e-06
-7.80332e-06
-7.93871e-06
-8.061e-06
-8.1728e-06
-8.27655e-06
-8.37451e-06
-8.4688e-06
-8.56142e-06
-8.65422e-06
-8.74891e-06
-8.84709e-06
-8.95019e-06
-9.05951e-06
-9.17621e-06
-9.30134e-06
-9.43584e-06
3.44108e-06
2.967e-06
2.49227e-06
2.0173e-06
1.54256e-06
1.06856e-06
5.95824e-07
1.24888e-07
-3.43721e-07
-8.09452e-07
-1.27173e-06
-1.72995e-06
-2.18346e-06
-2.63155e-06
-3.07347e-06
-3.50835e-06
-3.93531e-06
-4.35326e-06
-4.76114e-06
-5.15758e-06
-5.54132e-06
-5.91054e-06
-6.25495e-06
-6.56546e-06
-6.84241e-06
-7.08887e-06
-7.30798e-06
-7.50293e-06
-7.6769e-06
-7.83235e-06
-7.97189e-06
-8.09803e-06
-8.21324e-06
-8.31982e-06
-8.41993e-06
-8.51565e-06
-8.60895e-06
-8.70171e-06
-8.79567e-06
-8.89248e-06
-8.99368e-06
-9.10068e-06
-9.21477e-06
-9.33712e-06
-9.4688e-06
3.46044e-06
2.97609e-06
2.49148e-06
2.00714e-06
1.52362e-06
1.04157e-06
5.61573e-07
8.42576e-08
-3.89764e-07
-8.59863e-07
-1.32539e-06
-1.78567e-06
-2.24002e-06
-2.68767e-06
-3.12786e-06
-3.55974e-06
-3.98244e-06
-4.39496e-06
-4.79633e-06
-5.18535e-06
-5.56097e-06
-5.9216e-06
-6.25856e-06
-6.56422e-06
-6.83868e-06
-7.08453e-06
-7.30455e-06
-7.50145e-06
-7.67793e-06
-7.83637e-06
-7.97908e-06
-8.10831e-06
-8.22639e-06
-8.33551e-06
-8.43776e-06
-8.53516e-06
-8.62967e-06
-8.72316e-06
-8.81742e-06
-8.91414e-06
-9.01494e-06
-9.1213e-06
-9.23463e-06
-9.3562e-06
-9.48718e-06
3.46679e-06
2.97399e-06
2.48133e-06
1.9894e-06
1.4989e-06
1.0105e-06
5.24901e-07
4.2783e-08
-4.35167e-07
-9.08253e-07
-1.37577e-06
-1.83699e-06
-2.29117e-06
-2.73754e-06
-3.17531e-06
-3.60365e-06
-4.02171e-06
-4.42856e-06
-4.8233e-06
-5.20487e-06
-5.5724e-06
-5.9245e-06
-6.25391e-06
-6.55432e-06
-6.82564e-06
-7.07007e-06
-7.29e-06
-7.48785e-06
-7.66598e-06
-7.82654e-06
-7.97165e-06
-8.10328e-06
-8.22369e-06
-8.33498e-06
-8.43917e-06
-8.53823e-06
-8.6341e-06
-8.72865e-06
-8.82371e-06
-8.92102e-06
-9.02223e-06
-9.12892e-06
-9.24255e-06
-9.3645e-06
-9.49602e-06
3.4655e-06
2.96558e-06
2.46617e-06
1.96795e-06
1.47169e-06
9.78138e-07
4.88045e-07
2.15847e-09
-4.78774e-07
-9.53999e-07
-1.42276e-06
-1.88429e-06
-2.33782e-06
-2.78254e-06
-3.21767e-06
-3.64237e-06
-4.05582e-06
-4.45715e-06
-4.84553e-06
-5.22e-06
-5.57984e-06
-5.92381e-06
-6.24595e-06
-6.54107e-06
-6.80898e-06
-7.05153e-06
-7.27081e-06
-7.4689e-06
-7.64806e-06
-7.81002e-06
-7.95695e-06
-8.0904e-06
-8.21265e-06
-8.32571e-06
-8.43153e-06
-8.53206e-06
-8.62921e-06
-8.72488e-06
-8.82089e-06
-8.91904e-06
-9.02103e-06
-9.1285e-06
-9.24298e-06
-9.3659e-06
-9.49861e-06
3.46003e-06
2.95398e-06
2.44878e-06
1.94519e-06
1.44405e-06
9.46158e-07
4.52323e-07
-3.66525e-08
-5.19969e-07
-9.96827e-07
-1.46643e-06
-1.92796e-06
-2.38063e-06
-2.82363e-06
-3.25615e-06
-3.67736e-06
-4.08648e-06
-4.48265e-06
-4.86514e-06
-5.23305e-06
-5.58578e-06
-5.92223e-06
-6.23755e-06
-6.52758e-06
-6.79205e-06
-7.03254e-06
-7.25087e-06
-7.44882e-06
-7.62849e-06
-7.79121e-06
-7.93955e-06
-8.07433e-06
-8.19796e-06
-8.3124e-06
-8.41952e-06
-8.52125e-06
-8.6195e-06
-8.71615e-06
-8.81308e-06
-8.91209e-06
-9.01495e-06
-9.12333e-06
-9.23884e-06
-9.36296e-06
-9.4971e-06
3.45256e-06
2.94112e-06
2.43084e-06
1.92258e-06
1.41719e-06
9.15539e-07
4.18486e-07
-7.31225e-08
-5.58442e-07
-1.03663e-06
-1.50686e-06
-1.96828e-06
-2.42008e-06
-2.86142e-06
-3.2915e-06
-3.70951e-06
-4.11466e-06
-4.50616e-06
-4.8833e-06
-5.24526e-06
-5.59154e-06
-5.92116e-06
-6.23022e-06
-6.51547e-06
-6.77663e-06
-7.01502e-06
-7.23226e-06
-7.4299e-06
-7.60953e-06
-7.77276e-06
-7.9221e-06
-8.05782e-06
-8.18245e-06
-8.29789e-06
-8.40599e-06
-8.50864e-06
-8.60774e-06
-8.70519e-06
-8.80287e-06
-8.90264e-06
-9.00629e-06
-9.11554e-06
-9.23206e-06
-9.35738e-06
-9.49296e-06
3.44437e-06
2.92814e-06
2.41336e-06
1.90094e-06
1.39179e-06
8.86825e-07
3.86934e-07
-1.06989e-07
-5.94059e-07
-1.0734e-06
-1.54415e-06
-2.00544e-06
-2.45642e-06
-2.89627e-06
-3.32416e-06
-3.73929e-06
-4.14089e-06
-4.5282e-06
-4.90056e-06
-5.25721e-06
-5.59771e-06
-5.92118e-06
-6.22457e-06
-6.50543e-06
-6.76349e-06
-6.99984e-06
-7.21591e-06
-7.41303e-06
-7.59235e-06
-7.75612e-06
-7.90593e-06
-8.04234e-06
-8.16764e-06
-8.2838e-06
-8.39259e-06
-8.49589e-06
-8.5956e-06
-8.69362e-06
-8.79187e-06
-8.89221e-06
-8.99649e-06
-9.10649e-06
-9.22389e-06
-9.35029e-06
-9.4872e-06
3.43624e-06
2.91571e-06
2.3969e-06
1.88077e-06
1.36825e-06
8.60315e-07
3.57884e-07
-1.38111e-07
-6.26753e-07
-1.10713e-06
-1.57836e-06
-2.03954e-06
-2.48982e-06
-2.92835e-06
-3.3543e-06
-3.76689e-06
-4.16536e-06
-4.54897e-06
-4.91709e-06
-5.26903e-06
-5.60441e-06
-5.92241e-06
-6.2207e-06
-6.49758e-06
-6.75279e-06
-6.98721e-06
-7.20212e-06
-7.39857e-06
-7.57751e-06
-7.74172e-06
-7.89167e-06
-8.02856e-06
-8.1543e-06
-8.27092e-06
-8.38017e-06
-8.48389e-06
-8.58399e-06
-8.68238e-06
-8.781e-06
-8.88174e-06
-8.98648e-06
-9.09704e-06
-9.21515e-06
-9.34246e-06
-9.48052e-06
3.42858e-06
2.9042e-06
2.38178e-06
1.86231e-06
1.34679e-06
8.3618e-07
3.31464e-07
-1.664e-07
-6.56465e-07
-1.1378e-06
-1.60947e-06
-2.0706e-06
-2.52028e-06
-2.95768e-06
-3.38196e-06
-3.79233e-06
-4.18806e-06
-4.56843e-06
-4.93284e-06
-5.28065e-06
-5.61151e-06
-5.92468e-06
-6.21843e-06
-6.49176e-06
-6.74439e-06
-6.97704e-06
-7.19081e-06
-7.38656e-06
-7.56519e-06
-7.72954e-06
-7.87954e-06
-8.01669e-06
-8.14271e-06
-8.25961e-06
-8.36912e-06
-8.47308e-06
-8.57339e-06
-8.67198e-06
-8.77078e-06
-8.87175e-06
-8.97679e-06
-9.08774e-06
-9.2064e-06
-9.33443e-06
-9.47344e-06
3.42148e-06
2.89361e-06
2.36793e-06
1.84545e-06
1.32719e-06
8.14172e-07
3.07384e-07
-1.92181e-07
-6.83551e-07
-1.16577e-06
-1.63789e-06
-2.09899e-06
-2.5482e-06
-2.98462e-06
-3.40746e-06
-3.8159e-06
-4.20924e-06
-4.58677e-06
-4.94792e-06
-5.29208e-06
-5.61896e-06
-5.92783e-06
-6.21753e-06
-6.48765e-06
-6.73794e-06
-6.96896e-06
-7.18167e-06
-7.37676e-06
-7.55512e-06
-7.71936e-06
-7.86938e-06
-8.00664e-06
-8.1328e-06
-8.24982e-06
-8.35944e-06
-8.46349e-06
-8.56386e-06
-8.66248e-06
-8.76134e-06
-8.86239e-06
-8.96757e-06
-9.07877e-06
-9.1978e-06
-9.32639e-06
-9.46616e-06
3.41463e-06
2.88342e-06
2.35461e-06
1.82924e-06
1.30837e-06
7.93029e-07
2.84249e-07
-2.1696e-07
-7.09598e-07