/*--------------------------------*- C++ -*----------------------------------*\
| =========                 |                                                 |
| \\      /  F ield         | OpenFOAM: The Open Source CFD Toolbox           |
|  \\    /   O peration     | Version:  2312                                  |
|   \\  /    A nd           | Website:  www.openfoam.com                      |
|    \\/     M anipulation  |                                                 |
\*---------------------------------------------------------------------------*/
FoamFile
{
    version     2.0;
    format      ascii;
    arch        "LSB;label=32;scalar=64";
    class       surfaceScalarField;
    location    "66.75";
    object      phi;
}
// * * * * * * * * * * * * * * * * * * * * * * * * * * * * * * * * * * * * * //

dimensions      [0 3 -1 0 0 0 0];

oriented        oriented;

internalField   nonuniform List<scalar> 
9445
(
5.69272e-10
1.50476e-11
5.60046e-10
9.22563e-12
5.54557e-10
5.4894e-12
5.51588e-10
2.96891e-12
5.50459e-10
1.1289e-12
5.50802e-10
-3.4309e-13
5.5216e-10
-1.35756e-12
5.54548e-10
-2.38868e-12
5.58124e-10
-3.57613e-12
5.63214e-10
-5.08966e-12
5.70849e-10
-7.63535e-12
5.84494e-10
-1.36443e-11
6.16232e-10
-3.17387e-11
7.07977e-10
-9.17444e-11
-2.35146e-10
9.43123e-10
1.98935e-09
6.54658e-11
1.95847e-09
4.01132e-11
1.94007e-09
2.38812e-11
1.93007e-09
1.29758e-11
1.92619e-09
5.01094e-12
1.92691e-09
-1.0707e-12
1.93092e-09
-5.36843e-12
1.93826e-09
-9.72088e-12
1.94924e-09
-1.45592e-11
1.96482e-09
-2.06673e-11
1.98764e-09
-3.04566e-11
2.02429e-09
-5.02923e-11
2.08748e-09
-9.49308e-11
2.18888e-09
-1.93147e-10
-3.40523e-10
2.29426e-09
3.93021e-09
1.61123e-10
3.87163e-09
9.86986e-11
3.83669e-09
5.88165e-11
3.81756e-09
3.21083e-11
3.80989e-09
1.26852e-11
3.81053e-09
-1.71897e-12
3.81718e-09
-1.20171e-11
3.82975e-09
-2.22914e-11
3.84846e-09
-3.32652e-11
3.87435e-09
-4.65567e-11
3.91003e-09
-6.61394e-11
3.95989e-09
-1.00155e-10
4.02647e-09
-1.61512e-10
4.09657e-09
-2.63244e-10
-3.80218e-10
4.13627e-09
6.53658e-09
3.13114e-10
6.44334e-09
1.91939e-10
6.38752e-09
1.14637e-10
6.35661e-09
6.30195e-11
6.34355e-09
2.57508e-11
6.34316e-09
-1.32882e-12
6.35193e-09
-2.07926e-11
6.36923e-09
-3.95919e-11
6.39477e-09
-5.88031e-11
6.42886e-09
-8.06421e-11
6.47243e-09
-1.09712e-10
6.52515e-09
-1.52875e-10
6.58086e-09
-2.1722e-10
6.62083e-09
-3.03215e-10
-3.84705e-10
6.62532e-09
9.98434e-09
5.32869e-10
9.84895e-09
3.27324e-10
9.76734e-09
1.96245e-10
9.72144e-09
1.08922e-10
9.7007e-09
4.64924e-11
9.69768e-09
1.69203e-12
9.7075e-09
-3.06194e-11
9.72811e-09
-6.01987e-11
9.75833e-09
-8.90261e-11
9.79708e-09
-1.19391e-10
9.84288e-09
-1.55507e-10
9.89138e-09
-2.01381e-10
9.93278e-09
-2.58619e-10
9.95157e-09
-3.22003e-10
-3.72822e-10
9.93969e-09
1.44823e-08
8.29983e-10
1.42978e-08
5.11761e-10
1.41855e-08
3.08525e-10
1.41212e-08
1.73304e-10
1.409e-08
7.76872e-11
1.4082e-08
9.61918e-12
1.40911e-08
-3.96525e-11
1.41128e-08
-8.19497e-11
1.41446e-08
-1.20824e-10
1.41839e-08
-1.5864e-10
1.42269e-08
-1.98531e-10
1.42674e-08
-2.41907e-10
1.42961e-08
-2.87314e-10
1.43032e-08
-3.29118e-10
-3.56978e-10
1.42874e-08
2.02705e-08
1.20792e-09
2.00331e-08
7.49165e-10
1.98867e-08
4.54947e-10
1.98009e-08
2.59087e-10
1.97566e-08
1.21976e-10
1.97413e-08
2.49137e-11
1.97469e-08
-4.52318e-11
1.9767e-08
-1.02065e-10
1.9797e-08
-1.50817e-10
1.98328e-08
-1.94467e-10
1.98695e-08
-2.352e-10
1.99007e-08
-2.7316e-10
1.99198e-08
-3.06397e-10
1.9922e-08
-3.31299e-10
-3.43548e-10
1.99086e-08
2.7614e-08
1.65704e-09
2.73269e-08
1.0362e-09
2.7147e-08
6.34885e-10
2.70392e-08
3.66888e-10
2.69805e-08
1.80635e-10
2.69561e-08
4.93991e-11
2.69558e-08
-4.49183e-11
2.69713e-08
-1.17662e-10
2.69966e-08
-1.76038e-10
2.70261e-08
-2.24004e-10
2.70546e-08
-2.63736e-10
2.70771e-08
-2.956e-10
2.70894e-08
-3.18763e-10
2.70902e-08
-3.32047e-10
-3.34653e-10
2.70813e-08
3.6792e-08
2.14609e-09
3.64718e-08
1.35643e-09
3.62671e-08
8.39584e-10
3.61418e-08
4.92189e-10
3.60709e-08
2.51573e-10
3.60376e-08
8.26405e-11
3.60306e-08
-3.78471e-11
3.60401e-08
-1.27189e-10
3.60589e-08
-1.94817e-10
3.6081e-08
-2.46147e-10
3.61016e-08
-2.84346e-10
3.61171e-08
-3.11033e-10
3.61253e-08
-3.27051e-10
3.61265e-08
-3.33201e-10
-3.30531e-10
3.61224e-08
4.80922e-08
2.61848e-09
4.77727e-08
1.67594e-09
4.75639e-08
1.04834e-09
4.74338e-08
6.22255e-10
4.73585e-08
3.26893e-10
4.73212e-08
1.19951e-10
4.73099e-08
-2.65134e-11
4.73146e-08
-1.31929e-10
4.73279e-08
-2.08092e-10
4.73441e-08
-2.6232e-10
4.73591e-08
-2.994e-10
4.73707e-08
-3.22583e-10
4.73779e-08
-3.3428e-10
4.73813e-08
-3.36636e-10
-3.31627e-10
4.73824e-08
6.18301e-08
3.00521e-09
6.15581e-08
1.94793e-09
6.13768e-08
1.22967e-09
6.12632e-08
7.35878e-10
6.11979e-08
3.92159e-10
6.11664e-08
1.51441e-10
6.11577e-08
-1.78264e-11
6.11629e-08
-1.37052e-10
6.11751e-08
-2.20305e-10
6.11897e-08
-2.76974e-10
6.12039e-08
-3.1358e-10
6.12162e-08
-3.34872e-10
6.12263e-08
-3.44439e-10
6.1235e-08
-3.45246e-10
-3.39716e-10
6.1243e-08
7.84211e-08
3.26109e-09
7.82349e-08
2.13409e-09
7.81106e-08
1.35401e-09
7.80354e-08
8.11068e-10
7.79964e-08
4.31133e-10
7.79828e-08
1.65062e-10
7.79862e-08
-2.11906e-11
7.79994e-08
-1.50319e-10
7.80176e-08
-2.38416e-10
7.80373e-08
-2.967e-10
7.80568e-08
-3.33145e-10
7.80756e-08
-3.53599e-10
7.80935e-08
-3.62407e-10
7.81113e-08
-3.62972e-10
-3.57908e-10
7.81295e-08
9.84788e-08
3.39918e-09
9.83796e-08
2.23329e-09
9.83182e-08
1.41543e-09
9.82881e-08
8.41119e-10
9.82816e-08
4.37686e-10
9.82914e-08
1.55197e-10
9.8312e-08
-4.17413e-11
9.83385e-08
-1.76803e-10
9.83676e-08
-2.67558e-10
9.83975e-08
-3.26653e-10
9.84275e-08
-3.63079e-10
9.84572e-08
-3.83349e-10
9.84871e-08
-3.92232e-10
9.85174e-08
-3.93318e-10
-3.89276e-10
9.85488e-08
1.22816e-07
3.47364e-09
1.22767e-07
2.28215e-09
1.22744e-07
1.43913e-09
1.22741e-07
8.4381e-10
1.22754e-07
4.24617e-10
1.22778e-07
1.31283e-10
1.22809e-07
-7.32956e-11
1.22845e-07
-2.12455e-10
1.22883e-07
-3.05351e-10
1.22922e-07
-3.65623e-10
1.22962e-07
-4.02888e-10
1.23002e-07
-4.24035e-10
1.23044e-07
-4.34039e-10
1.23087e-07
-4.36554e-10
-4.3425e-10
1.23132e-07
1.5223e-07
3.5177e-09
1.52198e-07
2.31359e-09
1.52183e-07
1.45487e-09
1.52182e-07
8.44692e-10
1.52193e-07
4.13542e-10
1.52212e-07
1.11661e-10
1.52241e-07
-1.01543e-10
1.52274e-07
-2.45603e-10
1.52311e-07
-3.42336e-10
1.52351e-07
-4.05821e-10
1.52394e-07
-4.46044e-10
1.5244e-07
-4.701e-10
1.52489e-07
-4.83057e-10
1.52541e-07
-4.88589e-10
-4.89342e-10
1.52596e-07
1.87198e-07
3.51633e-09
1.87188e-07
2.32422e-09
1.87177e-07
1.46609e-09
1.8717e-07
8.50995e-10
1.8717e-07
4.13922e-10
1.87178e-07
1.0367e-10
1.87194e-07
-1.17495e-10
1.87217e-07
-2.68303e-10
1.87245e-07
-3.71093e-10
1.8728e-07
-4.40347e-10
1.8732e-07
-4.8615e-10
1.87365e-07
-5.1562e-10
1.87416e-07
-5.33837e-10
1.87472e-07
-5.44456e-10
-5.50065e-10
1.87533e-07
2.2774e-07
3.43849e-09
2.27773e-07
2.29072e-09
2.27784e-07
1.45576e-09
2.27783e-07
8.51097e-10
2.27782e-07
4.14856e-10
2.27782e-07
1.04406e-10
2.2779e-07
-1.25295e-10
2.27804e-07
-2.82671e-10
2.27825e-07
-3.92584e-10
2.27854e-07
-4.69289e-10
2.27891e-07
-5.22617e-10
2.27935e-07
-5.59516e-10
2.27986e-07
-5.8497e-10
2.28044e-07
-6.02579e-10
-6.14885e-10
2.28109e-07
2.73342e-07
3.26913e-09
2.73434e-07
2.19896e-09
2.73479e-07
1.41051e-09
2.735e-07
8.30696e-10
2.73506e-07
4.0819e-10
2.73508e-07
1.0263e-10
2.73515e-07
-1.3186e-10
2.73527e-07
-2.94574e-10
2.73546e-07
-4.11884e-10
2.73574e-07
-4.9715e-10
2.73611e-07
-5.59471e-10
2.73656e-07
-6.05407e-10
2.73711e-07
-6.3974e-10
2.73775e-07
-6.65945e-10
-6.86497e-10
2.73846e-07
3.22635e-07
3.00616e-09
3.22789e-07
2.04441e-09
3.22875e-07
1.32493e-09
3.22919e-07
7.86717e-10
3.22939e-07
3.88373e-10
3.2295e-07
9.12632e-11
3.22961e-07
-1.42916e-10
3.22978e-07
-3.11035e-10
3.23002e-07
-4.35957e-10
3.23035e-07
-5.3036e-10
3.23078e-07
-6.02579e-10
3.23131e-07
-6.5866e-10
3.23195e-07
-7.03086e-10
3.23268e-07
-7.39146e-10
-7.6874e-10
3.2335e-07
3.72654e-07
2.64242e-09
3.72884e-07
1.81384e-09
3.73025e-07
1.18396e-09
3.73105e-07
7.06374e-10
3.73151e-07
3.43012e-10
3.73179e-07
6.31522e-11
3.73193e-07
-1.571e-10
3.73204e-07
-3.2192e-10
3.73217e-07
-4.49037e-10
3.73236e-07
-5.49019e-10
3.73262e-07
-6.29014e-10
3.73298e-07
-6.94218e-10
3.73343e-07
-7.48447e-10
3.73398e-07
-7.94523e-10
-8.34507e-10
3.73464e-07
3.7073e-07
2.23442e-09
3.71002e-07
1.54222e-09
3.7118e-07
1.00552e-09
3.71298e-07
5.88771e-10
3.71373e-07
2.67746e-10
3.7142e-07
1.69067e-11
3.71452e-07
-1.90079e-10
3.71478e-07
-3.47207e-10
3.71503e-07
-4.74131e-10
3.71531e-07
-5.77598e-10
3.71566e-07
-6.6318e-10
3.71607e-07
-7.35373e-10
3.71656e-07
-7.97446e-10
3.71713e-07
-8.51749e-10
-8.99726e-10
3.71778e-07
3.18431e-07
1.86997e-09
3.18668e-07
1.30519e-09
3.18814e-07
8.58624e-10
3.18899e-07
5.04452e-10
3.18945e-07
2.21634e-10
3.18969e-07
-7.16006e-12
3.18973e-07
-1.94161e-10
3.18972e-07
-3.45816e-10
3.18968e-07
-4.70689e-10
3.18966e-07
-5.75423e-10
3.18968e-07
-6.64745e-10
3.18974e-07
-7.42109e-10
3.18987e-07
-8.10029e-10
3.19006e-07
-8.70398e-10
-9.24574e-10
3.1903e-07
2.67127e-07
1.52149e-09
2.67369e-07
1.06289e-09
2.67535e-07
6.92924e-10
2.67647e-07
3.92332e-10
2.67719e-07
1.49217e-10
2.67764e-07
-5.14075e-11
2.67787e-07
-2.17538e-10
2.67798e-07
-3.56983e-10
2.67803e-07
-4.75096e-10
2.67804e-07
-5.76482e-10
2.67804e-07
-6.64765e-10
2.67804e-07
-7.42626e-10
2.67806e-07
-8.12007e-10
2.6781e-07
-8.7439e-10
-9.30841e-10
2.67816e-07
2.20609e-07
1.20869e-09
2.20833e-07
8.39096e-10
2.20991e-07
5.35584e-10
2.21097e-07
2.85759e-10
2.21167e-07
7.92942e-11
2.2121e-07
-9.39254e-11
2.21233e-07
-2.40709e-10
2.21242e-07
-3.66604e-10
2.21243e-07
-4.75505e-10
2.21237e-07
-5.70682e-10
2.21227e-07
-6.5481e-10
2.21214e-07
-7.2994e-10
2.212e-07
-7.97553e-10
2.21184e-07
-8.58754e-10
-9.14351e-10
2.21168e-07
1.79871e-07
9.36759e-10
1.80067e-07
6.42883e-10
1.80205e-07
3.97775e-10
1.80298e-07
1.92679e-10
1.80357e-07
1.96974e-11
1.80391e-07
-1.27776e-10
1.80406e-07
-2.55348e-10
1.80406e-07
-3.66514e-10
1.80394e-07
-4.6422e-10
1.80375e-07
-5.50845e-10
1.80348e-07
-6.28307e-10
1.80316e-07
-6.98094e-10
1.8028e-07
-7.61276e-10
1.8024e-07
-8.18649e-10
-8.70789e-10
1.80196e-07
1.45032e-07
7.10846e-10
1.45195e-07
4.80609e-10
1.45307e-07
2.85317e-10
1.45381e-07
1.19096e-10
1.45424e-07
-2.31201e-11
1.45443e-07
-1.46805e-10
1.45442e-07
-2.55282e-10
1.45427e-07
-3.51169e-10
1.45399e-07
-4.36573e-10
1.45362e-07
-5.13159e-10
1.45316e-07
-5.82241e-10
1.45262e-07
-6.44844e-10
1.45203e-07
-7.0171e-10
1.45138e-07
-7.53395e-10
-8.00295e-10
1.45067e-07
1.15745e-07
5.31796e-10
1.15872e-07
3.53826e-10
1.15957e-07
2.0061e-10
1.16008e-07
6.79476e-11
1.16032e-07
-4.70688e-11
1.16034e-07
-1.48834e-10
1.16018e-07
-2.3927e-10
1.15987e-07
-3.20213e-10
1.15943e-07
-3.9309e-10
1.15889e-07
-4.59019e-10
1.15826e-07
-5.18871e-10
1.15754e-07
-5.73333e-10
1.15675e-07
-6.22901e-10
1.1559e-07
-6.67949e-10
-7.08735e-10
1.15498e-07
9.14525e-08
3.94942e-10
9.15469e-08
2.59395e-10
9.16065e-08
1.40962e-10
9.16377e-08
3.68291e-11
9.16453e-08
-5.47375e-11
9.16334e-08
-1.36944e-10
9.16051e-08
-2.10907e-10
9.15627e-08
-2.77815e-10
9.15082e-08
-3.38594e-10
9.14431e-08
-3.9397e-10
9.13688e-08
-4.44505e-10
9.12861e-08
-4.90638e-10
9.11959e-08
-5.32687e-10
9.10988e-08
-5.70891e-10
-6.05409e-10
9.09955e-08
7.15341e-08
2.92429e-10
7.16027e-08
1.90779e-10
7.16429e-08
1.00754e-10
7.16595e-08
2.02987e-11
7.1656e-08
-5.13068e-11
7.16356e-08
-1.16494e-10
7.16005e-08
-1.75785e-10
7.15526e-08
-2.2992e-10
7.14934e-08
-2.79477e-10
7.14244e-08
-3.24902e-10
7.13464e-08
-3.66542e-10
7.12604e-08
-4.04666e-10
7.11672e-08
-4.39465e-10
7.10674e-08
-4.71085e-10
-4.99615e-10
7.09616e-08
5.537e-08
2.15953e-10
5.54197e-08
1.4107e-10
5.54466e-08
7.38578e-11
5.54539e-08
1.29409e-11
5.54447e-08
-4.20482e-11
5.54208e-08
-9.26532e-11
5.53842e-08
-1.39151e-10
5.53362e-08
-1.81954e-10
5.52781e-08
-2.21402e-10
5.5211e-08
-2.57756e-10
5.51357e-08
-2.91217e-10
5.50529e-08
-3.21939e-10
5.49635e-08
-3.50029e-10
5.4868e-08
-3.75571e-10
-3.98608e-10
5.4767e-08
4.23735e-08
1.5855e-10
4.241e-08
1.04545e-10
4.24284e-08
5.54537e-11
4.2431e-08
1.03277e-11
4.24199e-08
-3.09082e-11
4.23965e-08
-6.9263e-11
4.23622e-08
-1.0482e-10
4.2318e-08
-1.37785e-10
4.22649e-08
-1.68351e-10
4.22038e-08
-1.96657e-10
4.21354e-08
-2.22812e-10
4.20604e-08
-2.46896e-10
4.19793e-08
-2.68962e-10
4.18928e-08
-2.89053e-10
-3.07183e-10
4.18014e-08
3.20118e-08
1.15022e-10
3.20393e-08
7.7074e-11
3.20526e-08
4.21518e-11
3.20533e-08
9.60279e-12
3.20428e-08
-2.04196e-11
3.20222e-08
-4.86692e-11
3.19924e-08
-7.50575e-11
3.19543e-08
-9.9672e-11
3.19086e-08
-1.22621e-10
3.18559e-08
-1.43971e-10
3.17969e-08
-1.63774e-10
3.1732e-08
-1.82064e-10
3.16619e-08
-1.98864e-10
3.15871e-08
-2.14187e-10
-2.28033e-10
3.15079e-08
2.38164e-08
8.172e-11
2.38376e-08
5.58967e-11
2.38479e-08
3.18493e-11
2.38483e-08
9.19248e-12
2.38398e-08
-1.19232e-11
2.38231e-08
-3.19886e-11
2.37989e-08
-5.08738e-11
2.37678e-08
-6.85729e-11
2.37304e-08
-8.51613e-11
2.36871e-08
-1.00663e-10
2.36384e-08
-1.15097e-10
2.35848e-08
-1.28471e-10
2.35267e-08
-1.40789e-10
2.34646e-08
-1.5205e-10
-1.62244e-10
2.33988e-08
1.73856e-08
5.61585e-11
1.74022e-08
3.9295e-11
1.74106e-08
2.34247e-11
1.74115e-08
8.32779e-12
1.74054e-08
-5.8405e-12
1.73929e-08
-1.94561e-11
1.73744e-08
-3.23726e-11
1.73503e-08
-4.45106e-11
1.73211e-08
-5.59471e-11
1.72871e-08
-6.6682e-11
1.72487e-08
-7.67161e-11
1.72063e-08
-8.6044e-11
1.71602e-08
-9.46614e-11
1.71107e-08
-1.02559e-10
-1.09724e-10
1.70582e-08
1.2381e-08
3.66705e-11
1.2394e-08
2.62481e-11
1.24011e-08
1.63639e-11
1.24026e-08
6.8708e-12
1.23988e-08
-2.05774e-12
1.23901e-08
-1.07393e-11
1.23768e-08
-1.90682e-11
1.23591e-08
-2.68896e-11
1.23375e-08
-3.43005e-11
1.23121e-08
-4.12876e-11
1.22832e-08
-4.78443e-11
1.22511e-08
-5.39601e-11
1.22161e-08
-5.9628e-11
1.21784e-08
-6.48364e-11
-6.95707e-11
1.21382e-08
8.52118e-09
2.21309e-11
8.53125e-09
1.61734e-11
8.5371e-09
1.05144e-11
8.53894e-09
5.02673e-12
8.53703e-09
-1.47772e-13
8.5315e-09
-5.206e-12
8.52257e-09
-1.01347e-11
8.51044e-09
-1.47606e-11
8.4953e-09
-1.91645e-11
8.47735e-09
-2.33343e-11
8.45677e-09
-2.72633e-11
8.43375e-09
-3.09406e-11
8.40848e-09
-3.43597e-11
8.38115e-09
-3.75101e-11
-4.03772e-11
8.35196e-09
5.57421e-09
1.17495e-11
5.58165e-09
8.73188e-12
5.58627e-09
5.89342e-12
5.58818e-09
3.12136e-12
5.58755e-09
4.79175e-13
5.58443e-09
-2.08569e-12
5.57893e-09
-4.63267e-12
5.5712e-09
-7.03213e-12
5.56136e-09
-9.32225e-12
5.54952e-09
-1.14997e-11
5.53582e-09
-1.35604e-11
5.52038e-09
-1.54955e-11
5.50332e-09
-1.73006e-11
5.48477e-09
-1.8968e-11
-2.0484e-11
5.46488e-09
3.35041e-09
4.92638e-12
3.35545e-09
3.69396e-12
3.35877e-09
2.57654e-12
3.36041e-09
1.4777e-12
3.36047e-09
4.14892e-13
3.359e-09
-6.07321e-13
3.356e-09
-1.63988e-12
3.35159e-09
-2.62204e-12
3.34583e-09
-3.55908e-12
3.33879e-09
-4.45497e-12
3.33053e-09
-5.30651e-12
3.32114e-09
-6.10838e-12
3.3107e-09
-6.85858e-12
3.29929e-09
-7.55221e-12
-8.17856e-12
3.28698e-09
1.69565e-09
1.15978e-12
1.69849e-09
8.55729e-13
1.70045e-09
6.15491e-13
1.70156e-09
3.74222e-13
1.70184e-09
1.35999e-13
1.70132e-09
-9.12286e-14
1.70001e-09
-3.26305e-13
1.69794e-09
-5.5243e-13
1.69514e-09
-7.66907e-13
1.69167e-09
-9.75668e-13
1.68753e-09
-1.17316e-12
1.68278e-09
-1.35948e-12
1.67746e-09
-1.53412e-12
1.6716e-09
-1.69468e-12
-1.83507e-12
1.66526e-09
4.85487e-10
4.86342e-10
4.86958e-10
4.87332e-10
4.87468e-10
4.87377e-10
4.87051e-10
4.86498e-10
4.85731e-10
4.84756e-10
4.83582e-10
4.82223e-10
4.80689e-10
4.78994e-10
4.77159e-10
1.12934e-09
-4.3274e-10
2.4652e-10
1.39796e-09
-3.33309e-10
6.46959e-11
1.67044e-09
-1.63975e-10
-1.08509e-10
1.94102e-09
1.62092e-11
-2.86792e-10
2.2081e-09
2.03492e-10
-4.70568e-10
2.47274e-09
3.91393e-10
-6.56033e-10
2.73656e-09
5.78625e-10
-8.42446e-10
3.00082e-09
7.6388e-10
-1.02814e-09
3.26649e-09
9.45145e-10
-1.21082e-09
3.5343e-09
1.11991e-09
-1.38772e-09
3.80484e-09
1.28505e-09
-1.55559e-09
4.0787e-09
1.43666e-09
-1.71052e-09
4.35656e-09
1.5698e-09
-1.84766e-09
4.63924e-09
1.67815e-09
-1.96083e-09
4.92773e-09
1.75359e-09
-2.04208e-09
5.2233e-09
1.78637e-09
-2.08194e-09
5.52765e-09
1.76514e-09
-2.06949e-09
5.84321e-09
1.67935e-09
-1.99491e-09
6.17346e-09
1.5169e-09
-1.84716e-09
6.52283e-09
1.26378e-09
-1.61315e-09
6.89519e-09
8.90199e-10
-1.26256e-09
7.28991e-09
3.17459e-10
-7.12181e-10
7.63942e-09
-4.72326e-10
1.22816e-10
7.91781e-09
-1.22805e-09
9.49669e-10
8.12649e-09
-1.89653e-09
1.68785e-09
8.26997e-09
-2.45852e-09
2.31503e-09
8.35466e-09
-2.90514e-09
2.82045e-09
8.38672e-09
-3.23513e-09
3.20307e-09
8.37104e-09
-3.452e-09
3.46767e-09
8.3117e-09
-3.56195e-09
3.62129e-09
8.21211e-09
-3.57139e-09
3.67098e-09
8.07512e-09
-3.48098e-09
3.61796e-09
7.90345e-09
-3.2906e-09
3.46227e-09
7.69982e-09
-3.00022e-09
3.20386e-09
7.46687e-09
-2.61107e-09
2.84402e-09
7.20697e-09
-2.12577e-09
2.38567e-09
6.92209e-09
-1.54753e-09
1.8324e-09
6.61385e-09
-8.78147e-10
1.18639e-09
6.2836e-09
-1.1533e-10
4.45572e-10
5.93151e-09
7.48537e-10
-3.96445e-10
5.55201e-09
1.71786e-09
-1.33835e-09
5.12581e-09
2.76547e-09
-2.33927e-09
4.6183e-09
3.75543e-09
-3.24792e-09
4.03264e-09
4.3482e-09
-3.76254e-09
3.74053e-09
3.6667e-09
-3.37459e-09
2.36768e-09
-5.06163e-10
2.52997e-09
-4.95602e-10
2.75159e-09
-3.85596e-10
3.00086e-09
-2.33054e-10
3.26458e-09
-6.02271e-11
3.53627e-09
1.19703e-10
3.81349e-09
3.01404e-10
4.09537e-09
4.81997e-10
4.38173e-09
6.5879e-10
4.67262e-09
8.29017e-10
4.96823e-09
9.89431e-10
5.26891e-09
1.13597e-09
5.57518e-09
1.26353e-09
5.8877e-09
1.36563e-09
6.20736e-09
1.43394e-09
6.53526e-09
1.45846e-09
6.87292e-09
1.42749e-09
7.22249e-09
1.32978e-09
7.58709e-09
1.1523e-09
7.97072e-09
8.80149e-10
8.37676e-09
4.84163e-10
8.80395e-09
-1.09729e-10
9.17999e-09
-8.48369e-10
9.47835e-09
-1.52642e-09
9.70135e-09
-2.11953e-09
9.8541e-09
-2.61126e-09
9.94364e-09
-2.99468e-09
9.97665e-09
-3.26814e-09
9.95854e-09
-3.43389e-09
9.89398e-09
-3.49739e-09
9.78695e-09
-3.46436e-09
9.64096e-09
-3.33498e-09
9.45952e-09
-3.10916e-09
9.24641e-09
-2.78712e-09
9.00566e-09
-2.37031e-09
8.74149e-09
-1.8616e-09
8.45852e-09
-1.26456e-09
8.16237e-09
-5.81991e-10
7.861e-09
1.8604e-10
7.56639e-09
1.04314e-09
7.29548e-09
1.98877e-09
7.06896e-09
2.99199e-09
6.91248e-09
3.91191e-09
6.85309e-09
4.40758e-09
3.85088e-09
6.74274e-09
4.1499e-09
-5.19796e-10
4.22351e-09
-5.69211e-10
4.36913e-09
-5.31221e-10
4.56825e-09
-4.32171e-10
4.80244e-09
-2.94419e-10
5.06005e-09
-1.37901e-10
5.33415e-09
2.72982e-11
5.62082e-09
1.95334e-10
5.91784e-09
3.61763e-10
6.224e-09
5.22861e-10
6.53862e-09
6.74813e-10
6.86146e-09
8.13126e-10
7.19264e-09
9.3236e-10
7.53251e-09
1.02576e-09
7.88164e-09
1.0848e-09
8.24087e-09
1.09924e-09
8.61133e-09
1.05702e-09
8.99472e-09
9.46387e-10
9.39357e-09
7.53446e-10
9.81118e-09
4.62545e-10
1.025e-08
4.52993e-11
1.0708e-08
-5.67648e-10
1.11082e-08
-1.24861e-09
1.1424e-08
-1.84222e-09
1.16588e-08
-2.35431e-09
1.18183e-08
-2.77083e-09
1.19105e-08
-3.08682e-09
1.19425e-08
-3.3001e-09
1.19202e-08
-3.41167e-09
1.18492e-08
-3.42638e-09
1.1734e-08
-3.34916e-09
1.15789e-08
-3.17988e-09
1.13885e-08
-2.9187e-09
1.11677e-08
-2.56639e-09
1.09224e-08
-2.12502e-09
1.06591e-08
-1.59826e-09
1.03855e-08
-9.90976e-10
1.01119e-08
-3.08344e-10
9.85303e-09
4.44869e-10
9.63224e-09
1.26393e-09
9.48439e-09
2.13663e-09
9.45444e-09
3.02195e-09
9.57631e-09
3.79003e-09
9.79337e-09
4.19052e-09
3.77999e-09
9.86426e-09
6.60523e-09
-4.99706e-10
6.61847e-09
-5.82457e-10
6.68748e-09
-6.00226e-10
6.81833e-09
-5.6302e-10
6.99954e-09
-4.7563e-10
7.21946e-09
-3.57825e-10
7.46917e-09
-2.22415e-10
7.7423e-09
-7.77924e-11
8.03455e-09
6.95175e-11
8.34303e-09
2.14373e-10
8.66587e-09
3.51974e-10
9.00193e-09
4.77063e-10
9.35065e-09
5.83647e-10
9.71183e-09
6.64579e-10
1.00856e-08
7.11058e-10
1.04722e-08
7.1261e-10
1.08723e-08
6.56924e-10
1.12869e-08
5.31807e-10
1.17176e-08
3.22741e-10
1.21666e-08
1.34755e-11
1.26353e-08
-4.2334e-10
1.31199e-08
-1.05225e-09
1.35398e-08
-1.66854e-09
1.38686e-08
-2.17097e-09
1.41108e-08
-2.59656e-09
1.42732e-08
-2.93322e-09
1.43644e-08
-3.17796e-09
1.43921e-08
-3.32783e-09
1.43632e-08
-3.38278e-09
1.42839e-08
-3.34706e-09
1.41593e-08
-3.22462e-09
1.39948e-08
-3.01536e-09
1.37961e-08
-2.71999e-09
1.35698e-08
-2.34011e-09
1.33237e-08
-1.87885e-09
1.30667e-08
-1.34126e-09
1.281e-08
-7.34267e-10
1.25682e-08
-6.65489e-11
1.23617e-08
6.51378e-10
1.22204e-08
1.40518e-09
1.21858e-08
2.17123e-09
1.23037e-08
2.90409e-09
1.25916e-08
3.50208e-09
1.2984e-08
3.79816e-09
3.55784e-09
1.32061e-08
9.90517e-09
-4.65193e-10
9.88213e-09
-5.59416e-10
9.89323e-09
-6.11326e-10
9.95325e-09
-6.23038e-10
1.0068e-08
-5.90417e-10
1.02306e-08
-5.2042e-10
1.04342e-08
-4.26002e-10
1.06724e-08
-3.15976e-10
1.094e-08
-1.98054e-10
1.12328e-08
-7.84786e-11
1.15479e-08
3.68916e-11
1.18831e-08
1.41844e-10
1.22371e-08
2.29681e-10
1.26089e-08
2.92765e-10
1.2998e-08
3.2196e-10
1.3404e-08
3.06586e-10
1.38268e-08
2.34147e-10
1.42664e-08
9.22082e-11
1.47233e-08
-1.34124e-10
1.51982e-08
-4.61446e-10
1.56906e-08
-9.1571e-10
1.61948e-08
-1.55652e-09
1.66273e-08
-2.10098e-09
1.69621e-08
-2.50582e-09
1.72054e-08
-2.83987e-09
1.73647e-08
-3.0925e-09
1.74495e-08
-3.26278e-09
1.74685e-08
-3.34676e-09
1.74292e-08
-3.34358e-09
1.73389e-08
-3.25672e-09
1.72032e-08
-3.08896e-09
1.70286e-08
-2.84072e-09
1.68222e-08
-2.51358e-09
1.65924e-08
-2.11028e-09
1.63489e-08
-1.63536e-09
1.61033e-08
-1.0957e-09
1.58699e-08
-5.0081e-10
1.56663e-08
1.37012e-10
1.5516e-08
8.01648e-10
1.54495e-08
1.47166e-09
1.55039e-08
2.1169e-09
1.57135e-08
2.69448e-09
1.60811e-08
3.13446e-09
1.65356e-08
3.34366e-09
3.22132e-09
1.68721e-08
1.42518e-08
-4.29601e-10
1.42117e-08
-5.19326e-10
1.41891e-08
-5.88703e-10
1.41957e-08
-6.29681e-10
1.42457e-08
-6.40374e-10
1.43432e-08
-6.17897e-10
1.44858e-08
-5.68608e-10
1.46703e-08
-5.00558e-10
1.4893e-08
-4.2076e-10
1.51499e-08
-3.35363e-10
1.54376e-08
-2.50792e-10
1.57535e-08
-1.74039e-10
1.60956e-08
-1.12412e-10
1.64623e-08
-7.39878e-11
1.68525e-08
-6.82049e-11
1.7265e-08
-1.05862e-10
1.76986e-08
-1.99513e-10
1.81524e-08
-3.61588e-10
1.86253e-08
-6.07012e-10
1.91162e-08
-9.52378e-10
1.96222e-08
-1.42172e-09
2.01352e-08
-2.0695e-09
2.05696e-08
-2.53534e-09
2.09008e-08
-2.837e-09
2.11361e-08
-3.07522e-09
2.1284e-08
-3.24043e-09
2.13551e-08
-3.33386e-09
2.1359e-08
-3.35066e-09
2.13046e-08
-3.28913e-09
2.11995e-08
-3.1516e-09
2.105e-08
-2.93948e-09
2.08638e-08
-2.65453e-09
2.06497e-08
-2.29948e-09
2.04178e-08
-1.87839e-09
2.01799e-08
-1.39744e-09
1.99497e-08
-8.65521e-10
1.97435e-08
-2.94629e-10
1.95806e-08
2.99898e-10
1.9484e-08
8.98257e-10
1.94797e-08
1.47597e-09
1.95939e-08
2.00272e-09
1.98449e-08
2.44348e-09
2.02234e-08
2.75596e-09
2.06697e-08
2.89734e-09
2.83398e-09
2.10571e-08
1.98794e-08
-4.00468e-10
1.98396e-08
-4.79551e-10
1.98024e-08
-5.51495e-10
1.97808e-08
-6.08036e-10
1.97849e-08
-6.44496e-10
1.98257e-08
-6.58659e-10
1.99069e-08
-6.49817e-10
2.00301e-08
-6.23729e-10
2.01948e-08
-5.85467e-10
2.0399e-08
-5.39644e-10
2.06407e-08
-4.92453e-10
2.09178e-08
-4.51099e-10
2.12284e-08
-4.23034e-10
2.15709e-08
-4.16461e-10
2.19436e-08
-4.409e-10
2.23447e-08
-5.07037e-10
2.27725e-08
-6.27254e-10
2.32245e-08
-8.13633e-10
2.36982e-08
-1.08067e-09
2.41903e-08
-1.44448e-09
2.4695e-08
-1.92648e-09
2.52012e-08
-2.5757e-09
2.56231e-08
-2.95723e-09
2.59377e-08
-3.15157e-09
2.61533e-08
-3.29077e-09
2.6279e-08
-3.36622e-09
2.63268e-08
-3.3816e-09
2.63078e-08
-3.3317e-09
2.6232e-08
-3.21329e-09
2.61071e-08
-3.02669e-09
2.59399e-08
-2.77235e-09
2.57398e-08
-2.45443e-09
2.55172e-08
-2.07687e-09
2.52839e-08
-1.64504e-09
2.50532e-08
-1.16673e-09
2.48403e-08
-6.52607e-10
2.46622e-08
-1.16602e-10
2.45377e-08
4.24435e-10
2.44864e-08
9.49576e-10
2.45269e-08
1.43546e-09
2.46731e-08
1.85647e-09
2.49288e-08
2.18776e-09
2.52778e-08
2.407e-09
2.56758e-08
2.49935e-09
2.46109e-09
2.60487e-08
2.70613e-08
-3.80417e-10
2.70306e-08
-4.48867e-10
2.69957e-08
-5.16663e-10
2.69655e-08
-5.77851e-10
2.6949e-08
-6.27993e-10
2.69549e-08
-6.64485e-10
2.69902e-08
-6.85143e-10
2.70605e-08
-6.93993e-10
2.71686e-08
-6.93578e-10
2.73153e-08
-6.86372e-10
2.7501e-08
-6.78171e-10
2.77256e-08
-6.75703e-10
2.79885e-08
-6.859e-10
2.82886e-08
-7.1659e-10
2.86247e-08
-7.76975e-10
2.89949e-08
-8.77215e-10
2.93968e-08
-1.02917e-09
2.98272e-08
-1.24408e-09
3.0282e-08
-1.53545e-09
3.07558e-08
-1.91826e-09
3.12397e-08
-2.4104e-09
3.17192e-08
-3.05514e-09
3.21105e-08
-3.34861e-09
3.23926e-08
-3.43364e-09
3.2574e-08
-3.47216e-09
3.26646e-08
-3.45679e-09
3.26777e-08
-3.3947e-09
3.26273e-08
-3.28131e-09
3.25231e-08
-3.10914e-09
3.2372e-08
-2.87554e-09
3.21822e-08
-2.58261e-09
3.19649e-08
-2.23714e-09
3.1732e-08
-1.84397e-09
3.14966e-08
-1.4096e-09
3.1273e-08
-9.43105e-10
3.10767e-08
-4.56316e-10
3.09239e-08
3.61795e-11
3.08309e-08
5.17448e-10
3.08121e-08
9.6833e-10
3.08782e-08
1.36934e-09
3.10329e-08
1.70179e-09
3.12702e-08
1.95049e-09
3.15714e-08
2.10584e-09
3.19042e-08
2.16647e-09
2.13964e-09
3.22257e-08
3.61111e-08
-3.69156e-10
3.60918e-08
-4.29578e-10
3.60674e-08
-4.92248e-10
3.60429e-08
-5.53341e-10
3.60246e-08
-6.09707e-10
3.60191e-08
-6.58942e-10
3.60321e-08
-6.98137e-10
3.6071e-08
-7.32925e-10
3.61393e-08
-7.61831e-10
3.62394e-08
-7.86571e-10
3.63747e-08
-8.13399e-10
3.65468e-08
-8.47859e-10
3.6757e-08
-8.96063e-10
3.70056e-08
-9.65157e-10
3.72922e-08
-1.06366e-09
3.76158e-08
-1.20077e-09
3.7974e-08
-1.3874e-09
3.83634e-08
-1.63343e-09
3.87786e-08
-1.95069e-09
3.92126e-08
-2.35225e-09
3.96536e-08
-2.85135e-09
4.00837e-08
-3.48525e-09
4.04244e-08
-3.68939e-09
4.06564e-08
-3.66562e-09
4.07877e-08
-3.60345e-09
4.08288e-08
-3.49783e-09
4.07965e-08
-3.36249e-09
4.07073e-08
-3.19209e-09
4.05674e-08
-2.96919e-09
4.03823e-08
-2.69048e-09
4.01646e-08
-2.3649e-09
3.99265e-08
-1.99906e-09
3.9681e-08
-1.59846e-09
3.94418e-08
-1.17039e-09
3.92233e-08
-7.24649e-10
3.90403e-08
-2.73306e-10
3.89067e-08
1.69837e-10
3.88349e-08
5.89267e-10
3.88337e-08
9.69517e-10
3.89068e-08
1.2962e-09
3.90512e-08
1.55745e-09
3.9256e-08
1.74565e-09
3.95032e-08
1.85864e-09
3.97691e-08
1.90053e-09
1.88097e-09
4.00278e-08
4.73794e-08
-3.66173e-10
4.73714e-08
-4.21521e-10
4.73596e-08
-4.80505e-10
4.73472e-08
-5.40904e-10
4.73379e-08
-6.0039e-10
4.7337e-08
-6.58031e-10
4.73489e-08
-7.10032e-10
4.73785e-08
-7.62521e-10
4.74293e-08
-8.12676e-10
4.75052e-08
-8.62432e-10
4.76096e-08
-9.17857e-10
4.77452e-08
-9.83397e-10
4.79138e-08
-1.06472e-09
4.81171e-08
-1.1684e-09
4.83556e-08
-1.3022e-09
4.8629e-08
-1.47418e-09
4.89357e-08
-1.69408e-09
4.92722e-08
-1.96996e-09
4.9633e-08
-2.31148e-09
5.00098e-08
-2.72898e-09
5.03882e-08
-3.22982e-09
5.07485e-08
-3.84555e-09
5.10203e-08
-3.96117e-09
5.11854e-08
-3.83066e-09
5.1251e-08
-3.66908e-09
5.12305e-08
-3.47736e-09
5.11494e-08
-3.28133e-09
5.10155e-08
-3.05827e-09
5.08301e-08
-2.78375e-09
5.06054e-08
-2.4658e-09
5.03558e-08
-2.11533e-09
5.00944e-08
-1.73767e-09
4.98345e-08
-1.33853e-09
4.95897e-08
-9.25594e-10
4.93736e-08
-5.085e-10
4.91988e-08
-9.85453e-11
4.90761e-08
2.92493e-10
4.90137e-08
6.51665e-10
4.90153e-08
9.67959e-10
4.90795e-08
1.23199e-09
4.91996e-08
1.43738e-09
4.93636e-08
1.58165e-09
4.95558e-08
1.66645e-09
4.97587e-08
1.69758e-09
1.68398e-09
4.99557e-08
6.12493e-08
-3.72425e-10
6.1253e-08
-4.25244e-10
6.12551e-08
-4.82565e-10
6.12575e-08
-5.4336e-10
6.12635e-08
-6.06346e-10
6.12757e-08
-6.70288e-10
6.12978e-08
-7.32079e-10
6.13318e-08
-7.96512e-10
6.13839e-08
-8.64758e-10
6.14577e-08
-9.36303e-10
6.15547e-08
-1.01484e-09
6.16769e-08
-1.10557e-09
6.18262e-08
-1.21399e-09
6.20039e-08
-1.34613e-09
6.22108e-08
-1.50909e-09
6.24465e-08
-1.70987e-09
6.27095e-08
-1.95706e-09
6.29963e-08
-2.2568e-09
6.33012e-08
-2.61643e-09
6.36151e-08
-3.04287e-09
6.3922e-08
-3.53668e-09
6.42015e-08
-4.1251e-09
6.4393e-08
-4.15264e-09
6.44781e-08
-3.91574e-09
6.44669e-08
-3.65783e-09
6.43898e-08
-3.40034e-09
6.42616e-08
-3.15312e-09
6.40745e-08
-2.87117e-09
6.38389e-08
-2.54816e-09
6.35737e-08
-2.20056e-09
6.32926e-08
-1.83427e-09
6.30088e-08
-1.45387e-09
6.27353e-08
-1.06501e-09
6.24848e-08
-6.75076e-10
6.22691e-08
-2.92764e-10
6.20976e-08
7.29573e-11
6.19782e-08
4.11827e-10
6.19148e-08
7.15141e-10
6.1907e-08
9.75694e-10
6.19507e-08
1.18829e-09
6.20377e-08
1.35043e-09
6.21567e-08
1.4626e-09
6.2295e-08
1.52815e-09
6.24397e-08
1.55287e-09
1.54415e-09
6.25796e-08
7.81475e-08
-3.90482e-10
7.81652e-08
-4.42888e-10
7.8183e-08
-5.00395e-10
7.82023e-08
-5.62633e-10
7.82248e-08
-6.28841e-10
7.82532e-08
-6.98755e-10
7.82929e-08
-7.71792e-10
7.8345e-08
-8.48591e-10
7.84113e-08
-9.31014e-10
7.84954e-08
-1.02048e-09
7.86002e-08
-1.11963e-09
7.87271e-08
-1.23245e-09
7.88771e-08
-1.36403e-09
7.90508e-08
-1.51982e-09
7.9248e-08
-1.70621e-09
7.94672e-08
-1.9291e-09
7.9706e-08
-2.19589e-09
7.99601e-08
-2.51085e-09
8.02229e-08
-2.87922e-09
8.0484e-08
-3.30401e-09
8.07259e-08
-3.77856e-09
8.09293e-08
-4.32855e-09
8.10391e-08
-4.2624e-09
8.10418e-08
-3.91844e-09
8.09718e-08
-3.58783e-09
8.08514e-08
-3.27993e-09
8.06678e-08
-2.96959e-09
8.04266e-08
-2.62988e-09
8.01493e-08
-2.27087e-09
7.98514e-08
-1.90271e-09
7.95466e-08
-1.52947e-09
7.92475e-08
-1.15478e-09
7.89662e-08
-7.83732e-10
7.87139e-08
-4.227e-10
7.84995e-08
-7.83901e-11
7.83297e-08
2.42738e-10
7.82092e-08
5.32377e-10
7.81383e-08
7.86022e-10
7.81144e-08
9.9955e-10
7.81319e-08
1.17079e-09
7.81826e-08
1.2997e-09
7.8257e-08
1.38829e-09
7.83448e-08
1.44032e-09
7.84367e-08
1.46094e-09
1.45604e-09
7.85248e-08
9.85814e-08
-4.23097e-10
9.86154e-08
-4.76891e-10
9.86513e-08
-5.3628e-10
9.869e-08
-6.01356e-10
9.87332e-08
-6.72065e-10
9.8783e-08
-7.48544e-10
9.88421e-08
-8.30913e-10
9.89131e-08
-9.19529e-10
9.89979e-08
-1.01586e-09
9.90993e-08
-1.12183e-09
9.92193e-08
-1.23971e-09
9.93596e-08
-1.37267e-09
9.95206e-08
-1.52502e-09
9.97022e-08
-1.70142e-09
9.99033e-08
-1.90734e-09
1.00122e-07
-2.1474e-09
1.00353e-07
-2.42746e-09
1.00592e-07
-2.74992e-09
1.00831e-07
-3.11777e-09
1.01057e-07
-3.52986e-09
1.01252e-07
-3.97383e-09
1.01393e-07
-4.46991e-09
1.01434e-07
-4.30281e-09
1.01382e-07
-3.86697e-09
1.01275e-07
-3.48078e-09
1.01111e-07
-3.1159e-09
1.00882e-07
-2.74023e-09
1.00605e-07
-2.35272e-09
1.00302e-07
-1.96838e-09
9.99884e-08
-1.58901e-09
9.96758e-08
-1.21683e-09
9.93757e-08
-8.54724e-10
9.90986e-08
-5.06655e-10
9.88537e-08