/*--------------------------------*- C++ -*----------------------------------*\
| =========                 |                                                 |
| \\      /  F ield         | OpenFOAM: The Open Source CFD Toolbox           |
|  \\    /   O peration     | Version:  2312                                  |
|   \\  /    A nd           | Website:  www.openfoam.com                      |
|    \\/     M anipulation  |                                                 |
\*---------------------------------------------------------------------------*/
FoamFile
{
    version     2.0;
    format      ascii;
    arch        "LSB;label=32;scalar=64";
    class       volScalarField;
    location    "172.25";
    object      p;
}
// * * * * * * * * * * * * * * * * * * * * * * * * * * * * * * * * * * * * * //

dimensions      [0 2 -2 0 0 0 0];

internalField   nonuniform List<scalar> 
4800
(
4.20673e-13
-1.35004e-06
-2.41762e-06
-3.27999e-06
-3.99031e-06
-4.58193e-06
-5.08748e-06
-5.52709e-06
-5.91065e-06
-6.25102e-06
-6.55703e-06
-6.83032e-06
-7.06584e-06
-7.49584e-06
-9.03961e-06
1.71462e-08
-1.33136e-06
-2.39846e-06
-3.26105e-06
-3.97232e-06
-4.56588e-06
-5.07426e-06
-5.51791e-06
-5.90709e-06
-6.25645e-06
-6.57972e-06
-6.89148e-06
-7.20581e-06
-7.6285e-06
-8.39624e-06
3.49735e-08
-1.31183e-06
-2.37843e-06
-3.24137e-06
-3.95381e-06
-4.54913e-06
-5.05895e-06
-5.50584e-06
-5.89963e-06
-6.25545e-06
-6.58842e-06
-6.9139e-06
-7.23997e-06
-7.57533e-06
-7.89804e-06
5.26905e-08
-1.29195e-06
-2.35768e-06
-3.2206e-06
-3.93372e-06
-4.53103e-06
-5.04056e-06
-5.48923e-06
-5.88522e-06
-6.24208e-06
-6.57283e-06
-6.88469e-06
-7.17011e-06
-7.39969e-06
-7.50683e-06
7.17449e-08
-1.27014e-06
-2.33449e-06
-3.19689e-06
-3.91e-06
-4.50837e-06
-5.01738e-06
-5.46478e-06
-5.85937e-06
-6.21061e-06
-6.52706e-06
-6.80702e-06
-7.03252e-06
-7.16714e-06
-7.15879e-06
9.3506e-08
-1.24498e-06
-2.30736e-06
-3.16859e-06
-3.88085e-06
-4.47842e-06
-4.98658e-06
-5.429e-06
-5.81682e-06
-6.15476e-06
-6.44605e-06
-6.68327e-06
-6.84662e-06
-6.90824e-06
-6.84176e-06
1.20143e-07
-1.21438e-06
-2.27411e-06
-3.1333e-06
-3.84349e-06
-4.43836e-06
-4.94286e-06
-5.37711e-06
-5.75181e-06
-6.06878e-06
-6.32706e-06
-6.5179e-06
-6.62633e-06
-6.63813e-06
-6.54689e-06
1.55623e-07
-1.17455e-06
-2.23089e-06
-3.08693e-06
-3.79341e-06
-4.3833e-06
-4.88039e-06
-5.30247e-06
-5.65815e-06
-5.94816e-06
-6.17001e-06
-6.31738e-06
-6.38295e-06
-6.36439e-06
-6.26637e-06
2.06358e-07
-1.11933e-06
-2.17156e-06
-3.02314e-06
-3.72391e-06
-4.30608e-06
-4.79194e-06
-5.19734e-06
-5.52957e-06
-5.78964e-06
-5.97624e-06
-6.08752e-06
-6.1234e-06
-6.08926e-06
-5.99439e-06
2.81379e-07
-1.03985e-06
-2.0872e-06
-2.93286e-06
-3.62569e-06
-4.19718e-06
-4.66835e-06
-5.05351e-06
-5.36008e-06
-5.5907e-06
-5.74693e-06
-5.83157e-06
-5.84978e-06
-5.81086e-06
-5.72509e-06
3.91866e-07
-9.24645e-07
-1.96609e-06
-2.80423e-06
-3.48687e-06
-4.04498e-06
-4.49882e-06
-4.8622e-06
-5.14366e-06
-5.34851e-06
-5.48157e-06
-5.54931e-06
-5.55989e-06
-5.52395e-06
-5.45114e-06
5.50487e-07
-7.6021e-07
-1.79416e-06
-2.62294e-06
-3.29341e-06
-3.8362e-06
-4.27165e-06
-4.61407e-06
-4.87379e-06
-5.05887e-06
-5.17694e-06
-5.23678e-06
-5.24778e-06
-5.22045e-06
-5.16323e-06
7.71597e-07
-5.30913e-07
-1.55511e-06
-2.37254e-06
-3.02939e-06
-3.55621e-06
-3.97417e-06
-4.29887e-06
-4.54251e-06
-4.71524e-06
-4.82655e-06
-4.88631e-06
-4.90409e-06
-4.88955e-06
-4.84992e-06
1.07213e-06
-2.18108e-07
-1.22966e-06
-2.03379e-06
-2.67647e-06
-3.18836e-06
-3.59179e-06
-3.90399e-06
-4.13866e-06
-4.30711e-06
-4.41956e-06
-4.48607e-06
-4.51582e-06
-4.51748e-06
-4.49724e-06
1.47166e-06
2.00221e-07
-7.94943e-07
-1.58406e-06
-2.21298e-06
-2.71272e-06
-3.10642e-06
-3.41244e-06
-3.64583e-06
-3.81818e-06
-3.93928e-06
-4.01872e-06
-4.06511e-06
-4.08626e-06
-4.08756e-06
1.99057e-06
7.47838e-07
-2.25761e-07
-9.98207e-07
-1.61474e-06
-2.1062e-06
-2.49604e-06
-2.80316e-06
-3.04298e-06
-3.22685e-06
-3.36353e-06
-3.46164e-06
-3.52921e-06
-3.57337e-06
-3.59903e-06
2.64656e-06
1.44648e-06
5.01664e-07
-2.5168e-07
-8.57389e-07
-1.34531e-06
-1.73795e-06
-2.05374e-06
-2.3074e-06
-2.50986e-06
-2.66869e-06
-2.79125e-06
-2.88482e-06
-2.95603e-06
-3.00954e-06
3.44996e-06
2.31046e-06
1.40381e-06
6.73266e-07
7.80457e-08
-4.10201e-07
-8.12156e-07
-1.14376e-06
-1.41828e-06
-1.64625e-06
-1.83391e-06
-1.9874e-06
-2.11327e-06
-2.21747e-06
-2.30423e-06
4.39848e-06
3.33982e-06
2.48281e-06
1.77949e-06
1.19516e-06
7.06681e-07
2.94324e-07
-5.85904e-08
-3.60822e-07
-6.19645e-07
-8.40814e-07
-1.03056e-06
-1.195e-06
-1.33915e-06
-1.46654e-06
5.46802e-06
4.50963e-06
3.71375e-06
3.04262e-06
2.46923e-06
1.97609e-06
1.55089e-06
1.18157e-06
8.54383e-07
5.6525e-07
3.09846e-07
8.21649e-08
-1.23259e-07
-3.10409e-07
-4.82233e-07
6.55536e-06
5.70409e-06
4.97463e-06
4.34099e-06
3.78103e-06
3.27843e-06
2.824e-06
2.43706e-06
2.08406e-06
1.76265e-06
1.46841e-06
1.19622e-06
9.42597e-07
7.05273e-07
4.822e-07
7.48812e-06
6.7316e-06
6.06426e-06
5.46756e-06
4.93046e-06
4.44421e-06
3.99728e-06
3.55945e-06
3.16591e-06
2.80922e-06
2.47748e-06
2.16388e-06
1.86595e-06
1.58274e-06
1.3127e-06
8.19608e-06
7.5102e-06
6.88774e-06
6.31716e-06
5.78929e-06
5.29653e-06
4.83346e-06
4.39724e-06
3.99027e-06
3.60872e-06
3.24639e-06
2.89929e-06
2.5658e-06
2.24497e-06
1.9353e-06
8.71035e-06
8.07802e-06
7.49043e-06
6.94062e-06
6.42287e-06
5.93352e-06
5.47054e-06
5.03041e-06
4.6107e-06
4.20857e-06
3.82142e-06
3.4473e-06
3.08477e-06
2.73263e-06
2.38961e-06
9.07386e-06
8.4829e-06
7.92391e-06
7.39317e-06
6.88729e-06
6.40366e-06
5.93966e-06
5.49308e-06
5.06147e-06
4.64318e-06
4.23692e-06
3.84133e-06
3.45508e-06
3.07717e-06
2.70668e-06
9.32285e-06
8.76449e-06
8.22914e-06
7.71458e-06
7.21836e-06
6.73861e-06
6.27359e-06
5.8215e-06
5.38086e-06
4.95061e-06
4.52968e-06
4.11702e-06
3.71168e-06
3.31301e-06
2.92038e-06
9.48766e-06
8.95517e-06
8.43882e-06
7.93717e-06
7.44874e-06
6.97239e-06
6.50715e-06
6.05137e-06
5.60415e-06
5.16468e-06
4.73215e-06
4.30588e-06
3.88529e-06
3.47001e-06
3.05963e-06
9.59295e-06
9.08108e-06
8.58005e-06
8.08911e-06
7.60749e-06
7.13449e-06
6.66935e-06
6.21094e-06
5.75862e-06
5.31183e-06
4.87007e-06
4.43298e-06
4.00023e-06
3.57165e-06
3.147e-06
9.65787e-06
9.16275e-06
8.67434e-06
8.19248e-06
7.7167e-06
7.24667e-06
6.78183e-06
6.32143e-06
5.86508e-06
5.41248e-06
4.96337e-06
4.51759e-06
4.07504e-06
3.6357e-06
3.19952e-06
9.69663e-06
9.21534e-06
8.73747e-06
8.26328e-06
7.7925e-06
7.32506e-06
6.86058e-06
6.39864e-06
5.93907e-06
5.48176e-06
5.02667e-06
4.5738e-06
4.1232e-06
3.67504e-06
3.22941e-06
9.71923e-06
9.24952e-06
8.78053e-06
8.31284e-06
7.84639e-06
7.38117e-06
6.91701e-06
6.45381e-06
5.99157e-06
5.53035e-06
5.07024e-06
4.61144e-06
4.15413e-06
3.6986e-06
3.24506e-06
9.73236e-06
9.27246e-06
8.81103e-06
8.34889e-06
7.88613e-06
7.42277e-06
6.95887e-06
6.49459e-06
6.03005e-06
5.56547e-06
5.10109e-06
4.63721e-06
4.17416e-06
3.71234e-06
3.25208e-06
9.74034e-06
9.28883e-06
8.83387e-06
8.37648e-06
7.9168e-06
7.45498e-06
6.99129e-06
6.52604e-06
6.05947e-06
5.59194e-06
5.12381e-06
4.65552e-06
4.18747e-06
3.72018e-06
3.25408e-06
9.74577e-06
9.3015e-06
8.85212e-06
8.39879e-06
7.94168e-06
7.48114e-06
7.01756e-06
6.55143e-06
6.08301e-06
5.61283e-06
5.14138e-06
4.66916e-06
4.1967e-06
3.72459e-06
3.25334e-06
9.75013e-06
9.31215e-06
8.86759e-06
8.41773e-06
7.9628e-06
7.50331e-06
7.03975e-06
6.57278e-06
6.10265e-06
5.63008e-06
5.15563e-06
4.6799e-06
4.2035e-06
3.72709e-06
3.25126e-06
9.75419e-06
9.32169e-06
8.88131e-06
8.43443e-06
7.98135e-06
7.52268e-06
7.0591e-06
6.5913e-06
6.11959e-06
5.64484e-06
5.16767e-06
4.68877e-06
4.20882e-06
3.72856e-06
3.24864e-06
9.75826e-06
9.33053e-06
8.89377e-06
8.44944e-06
7.99792e-06
7.5399e-06
7.07628e-06
6.60764e-06
6.13448e-06
5.65774e-06
5.17811e-06
4.69636e-06
4.21323e-06
3.72952e-06
3.24593e-06
9.7625e-06
9.33894e-06
8.9053e-06
8.46316e-06
8.01294e-06
7.55543e-06
7.09175e-06
6.6223e-06
6.1478e-06
5.66925e-06
5.18741e-06
4.70309e-06
4.21708e-06
3.73023e-06
3.24332e-06
9.76717e-06
9.34748e-06
8.91668e-06
8.47654e-06
8.0275e-06
7.57037e-06
7.10658e-06
6.63633e-06
6.16053e-06
5.68025e-06
5.1963e-06
4.70951e-06
4.22074e-06
3.73088e-06
3.24077e-06
9.772e-06
9.35613e-06
8.92826e-06
8.49003e-06
8.04211e-06
7.58544e-06
7.12139e-06
6.65031e-06
6.1732e-06
5.6911e-06
5.20488e-06
4.71559e-06
4.22414e-06
3.73148e-06
3.23844e-06
-1.02402e-05
-7.98478e-06
-6.60729e-06
-5.68091e-06
-4.94525e-06
-4.3881e-06
-3.96635e-06
-3.65175e-06
-3.42562e-06
-3.27292e-06
-3.18113e-06
-3.13916e-06
-3.13676e-06
-3.16431e-06
-3.21262e-06
-3.27349e-06
-3.34004e-06
-3.40902e-06
-3.48365e-06
-3.57562e-06
-3.70466e-06
-3.8836e-06
-4.06081e-06
-4.11037e-06
-3.9402e-06
-3.50847e-06
-2.79946e-06
-1.81945e-06
-5.8464e-07
8.86432e-07
2.57347e-06
4.45249e-06
6.49397e-06
8.66196e-06
1.0914e-05
1.32014e-05
1.54693e-05
1.76555e-05
1.96853e-05
2.14622e-05
2.28505e-05
2.36453e-05
2.34001e-05
2.17133e-05
1.7024e-05
-8.67388e-06
-7.47619e-06
-6.42012e-06
-5.58918e-06
-4.89712e-06
-4.35493e-06
-3.93897e-06
-3.62742e-06
-3.40377e-06
-3.25376e-06
-3.16506e-06
-3.12658e-06
-3.12796e-06
-3.1595e-06
-3.21193e-06
-3.27698e-06
-3.34772e-06
-3.4207e-06
-3.49871e-06
-3.59244e-06
-3.72004e-06
-3.8925e-06
-4.05792e-06
-4.09366e-06
-3.91087e-06
-3.46922e-06
-2.75318e-06
-1.76892e-06
-5.33107e-07
9.34953e-07
2.61374e-06
4.47753e-06
6.4946e-06
8.62617e-06
1.08261e-05
1.30408e-05
1.52082e-05
1.72552e-05
1.90903e-05
2.05875e-05
2.1553e-05
2.16691e-05
2.03025e-05
1.66796e-05
9.66126e-06
-7.85221e-06
-7.08464e-06
-6.22902e-06
-5.48444e-06
-4.84068e-06
-4.31925e-06
-3.91208e-06
-3.60493e-06
-3.38425e-06
-3.23701e-06
-3.15131e-06
-3.11619e-06
-3.12122e-06
-3.15663e-06
-3.2131e-06
-3.28229e-06
-3.35721e-06
-3.4342e-06
-3.51554e-06
-3.61087e-06
-3.73652e-06
-3.90144e-06
-4.05336e-06
-4.07347e-06
-3.8766e-06
-3.42425e-06
-2.70114e-06
-1.71343e-06
-4.784e-07
9.83581e-07
2.64944e-06
4.4913e-06
6.47464e-06
8.55714e-06
1.06882e-05
1.2808e-05
1.48463e-05
1.67181e-05
1.83144e-05
1.94858e-05
2.00062e-05
1.95323e-05
1.75132e-05
1.34968e-05
7.32394e-06
-7.3384e-06
-6.76787e-06
-6.06991e-06
-5.39291e-06
-4.79464e-06
-4.29484e-06
-3.89621e-06
-3.59247e-06
-3.37337e-06
-3.22739e-06
-3.14332e-06
-3.11038e-06
-3.11814e-06
-3.15671e-06
-3.21671e-06
-3.2897e-06
-3.36858e-06
-3.44943e-06
-3.53396e-06
-3.63058e-06
-3.75366e-06
-3.90984e-06
-4.04638e-06
-4.04868e-06
-3.83568e-06
-3.37091e-06
-2.63948e-06
-1.64773e-06
-4.13855e-07
1.04033e-06
2.68979e-06
4.50387e-06
6.4446e-06
8.46537e-06
1.05102e-05
1.25128e-05
1.4394e-05
1.60578e-05
1.73829e-05
1.82091e-05
1.83159e-05
1.74149e-05
1.51509e-05
1.13219e-05
6.20736e-06
-6.94962e-06
-6.49713e-06
-5.92059e-06
-5.32462e-06
-4.76778e-06
-4.28916e-06
-3.89812e-06
-3.5961e-06
-3.37636e-06
-3.22925e-06
-3.14455e-06
-3.11184e-06
-3.12067e-06
-3.1611e-06
-3.22362e-06
-3.29968e-06
-3.38202e-06
-3.46635e-06
-3.55377e-06
-3.65126e-06
-3.77101e-06
-3.91708e-06
-4.03625e-06
-4.01867e-06
-3.78789e-06
-3.30971e-06
-2.5698e-06
-1.57477e-06
-3.44167e-07
1.09844e-06
2.72564e-06
4.5036e-06
6.3904e-06
8.33473e-06
1.02751e-05
1.21386e-05
1.3839e-05
1.52732e-05
1.63153e-05
1.68123e-05
1.65786e-05
1.54143e-05
1.3146e-05
9.76455e-06
5.60216e-06
-6.63295e-06
-6.26377e-06
-5.78037e-06
-5.26619e-06
-4.75885e-06
-4.30291e-06
-3.92083e-06
-3.6201e-06
-3.39786e-06
-3.24704e-06
-3.15899e-06
-3.12393e-06
-3.13154e-06
-3.17187e-06
-3.23534e-06
-3.31322e-06
-3.39805e-06
-3.48514e-06
-3.57482e-06
-3.67249e-06
-3.78791e-06
-3.92227e-06
-4.02187e-06
-3.98232e-06
-3.7323e-06
-3.24022e-06
-2.49237e-06
-1.49589e-06
-2.72021e-07
1.15349e-06
2.75055e-06
4.48182e-06
6.30114e-06
8.15249e-06
9.96924e-06
1.16733e-05
1.31741e-05
1.43671e-05
1.51329e-05
1.53398e-05
1.48531e-05
1.35618e-05
1.14219e-05
8.53263e-06
5.19305e-06
-6.35481e-06
-6.05097e-06
-5.65194e-06
-5.20479e-06
-4.75452e-06
-4.33005e-06
-3.96232e-06
-3.66506e-06
-3.44015e-06
-3.2839e-06
-3.19002e-06
-3.14987e-06
-3.15353e-06
-3.19127e-06
-3.25354e-06
-3.33145e-06
-3.41734e-06
-3.506e-06
-3.59694e-06
-3.69374e-06
-3.80348e-06
-3.92425e-06
-4.00187e-06
-3.9382e-06
-3.66767e-06
-3.16164e-06
-2.40704e-06
-1.41182e-06
-1.99415e-07
1.20187e-06
2.75902e-06
4.43102e-06
6.16751e-06
7.90821e-06
9.58255e-06
1.11097e-05
1.23988e-05
1.33507e-05
1.38617e-05
1.38308e-05
1.31757e-05
1.18566e-05
9.90493e-06
7.45342e-06
4.74054e-06
-6.09578e-06
-5.84465e-06
-5.51753e-06
-5.13938e-06
-4.74367e-06
-4.35987e-06
-4.01473e-06
-3.72629e-06
-3.50113e-06
-3.33962e-06
-3.23873e-06
-3.19137e-06
-3.18844e-06
-3.22089e-06
-3.27948e-06
-3.35522e-06
-3.44029e-06
-3.52891e-06
-3.61968e-06
-3.7142e-06
-3.81659e-06
-3.92163e-06
-3.97471e-06
-3.88484e-06
-3.59294e-06
-3.07356e-06
-2.31441e-06
-1.32442e-06
-1.2972e-07
1.23825e-06
2.74361e-06
4.34176e-06
5.97866e-06
7.59079e-06
9.10567e-06
1.04429e-05
1.15166e-05
1.22389e-05
1.25277e-05
1.23155e-05
1.15645e-05
1.02823e-05
8.53458e-06
6.45044e-06
4.20965e-06
-5.84606e-06
-5.63842e-06
-5.37144e-06
-5.05775e-06
-4.71934e-06
-4.38109e-06
-4.06634e-06
-3.79414e-06
-3.57344e-06
-3.40929e-06
-3.3025e-06
-3.24729e-06
-3.23592e-06
-3.26079e-06
-3.31329e-06
-3.38454e-06
-3.46666e-06
-3.55333e-06
-3.6422e-06
-3.73272e-06
-3.82582e-06
-3.91283e-06
-3.93886e-06
-3.82098e-06
-3.50757e-06
-2.97657e-06
-2.21662e-06
-1.2373e-06
-6.8423e-08
1.25483e-06
2.69423e-06
4.20219e-06
5.72192e-06
7.18843e-06
8.53006e-06
9.67071e-06
1.05338e-05
1.10474e-05
1.1153e-05
1.08132e-05
1.00225e-05
8.81453e-06
7.26441e-06
5.48309e-06
3.60287e-06
-5.59885e-06
-5.42814e-06
-5.21171e-06
-4.95548e-06
-4.67322e-06
-4.38318e-06
-4.10481e-06
-3.85629e-06
-3.64513e-06
-3.48355e-06
-3.37485e-06
-3.31304e-06
-3.29264e-06
-3.3086e-06
-3.35324e-06
-3.41799e-06
-3.49515e-06
-3.57796e-06
-3.66308e-06
-3.74776e-06
-3.82955e-06
-3.89631e-06
-3.89318e-06
-3.74618e-06
-3.41206e-06
-2.87367e-06
-2.11785e-06
-1.15645e-06
-2.35644e-08
1.2409e-06
2.59799e-06
3.99821e-06
5.38344e-06
6.68956e-06
7.84879e-06
8.79287e-06
9.45788e-06
9.79036e-06
9.75279e-06
9.33156e-06
8.54123e-06
7.4261e-06
6.05732e-06
4.52457e-06
2.92453e-06
-5.34677e-06
-5.20851e-06
-5.03522e-06
-4.82942e-06
-4.59949e-06
-4.35769e-06
-4.12027e-06
-3.89846e-06
-3.70273e-06
-3.55233e-06
-3.44725e-06
-3.38096e-06
-3.35228e-06
-3.35933e-06
-3.39541e-06
-3.45246e-06
-3.52318e-06
-3.60052e-06
-3.68028e-06
-3.75749e-06
-3.82621e-06
-3.87101e-06
-3.83734e-06
-3.66152e-06
-3.30996e-06
-2.7708e-06
-2.0261e-06
-1.08963e-06
-6.25866e-09
1.18235e-06
2.43911e-06
3.71389e-06
4.94895e-06
6.08363e-06
7.05703e-06
7.8116e-06
8.29771e-06
8.47868e-06
8.33515e-06
7.86929e-06
7.10572e-06
6.08978e-06
4.88299e-06
3.55545e-06
2.17797e-06
-5.08066e-06
-4.97186e-06
-4.83625e-06
-4.67473e-06
-4.49212e-06
-4.29633e-06
-4.09984e-06
-3.90828e-06
-3.73726e-06
-3.60488e-06
-3.50649e-06
-3.43882e-06
-3.40538e-06
-3.40557e-06
-3.4339e-06
-3.48326e-06
-3.54701e-06
-3.61808e-06
-3.69145e-06
-3.76019e-06
-3.81477e-06
-3.83718e-06
-3.77295e-06
-3.56947e-06
-3.21156e-06
-2.67923e-06
-1.94793e-06
-1.04772e-06
-3.32183e-08
1.06081e-06
2.19933e-06
3.33237e-06
4.40488e-06
5.36224e-06
6.15263e-06
6.73055e-06
7.06044e-06
7.11986e-06
6.90243e-06
6.41935e-06
5.69837e-06
4.78073e-06
3.71689e-06
2.56059e-06
1.36402e-06
-4.78927e-06
-4.70804e-06
-4.60621e-06
-4.48405e-06
-4.34403e-06
-4.19143e-06
-4.03403e-06
-3.88058e-06
-3.74122e-06
-3.62597e-06
-3.5368e-06
-3.47451e-06
-3.44181e-06
-3.43875e-06
-3.46164e-06
-3.50477e-06
-3.56236e-06
-3.62753e-06
-3.69453e-06
-3.75499e-06
-3.79561e-06
-3.79744e-06
-3.70416e-06
-3.481e-06
-3.12875e-06
-2.60498e-06
-1.89406e-06
-1.05394e-06
-1.28463e-07
8.5454e-07
1.85916e-06
2.83744e-06
3.73992e-06
4.52013e-06
5.13653e-06
5.55544e-06
5.75354e-06
5.71895e-06
5.45353e-06
4.97248e-06
4.30239e-06
3.47824e-06
2.53995e-06
1.52828e-06
4.81896e-07
-4.45903e-06
-4.40439e-06
-4.33392e-06
-4.24771e-06
-4.14705e-06
-4.03542e-06
-3.9183e-06
-3.80252e-06
-3.69488e-06
-3.60201e-06
-3.52873e-06
-3.47792e-06
-3.45155e-06
-3.45001e-06
-3.47128e-06
-3.51127e-06
-3.56507e-06
-3.6263e-06
-3.68854e-06
-3.74248e-06
-3.77182e-06
-3.7568e-06
-3.64206e-06
-3.41052e-06
-3.0603e-06
-2.55793e-06
-1.9006e-06
-1.13907e-06
-3.15932e-07
5.42456e-07
1.40056e-06
2.21597e-06
2.94714e-06
3.55659e-06
4.0133e-06
4.29446e-06
4.38495e-06
4.28012e-06
3.9866e-06
3.52028e-06
2.90434e-06
2.16691e-06
1.33881e-06
4.50682e-07
-4.68727e-07
-4.07306e-06
-4.04522e-06
-4.00515e-06
-3.95303e-06
-3.88963e-06
-3.81716e-06
-3.73931e-06
-3.66075e-06
-3.58652e-06
-3.52175e-06
-3.47111e-06
-3.43786e-06
-3.42394e-06
-3.43008e-06
-3.45545e-06
-3.49735e-06
-3.55178e-06
-3.61304e-06
-3.67431e-06
-3.72559e-06
-3.74963e-06
-3.72419e-06
-3.60304e-06
-3.36734e-06
-3.03362e-06
-2.5737e-06
-1.9909e-06
-1.32623e-06
-6.18029e-07
1.03959e-07
8.07801e-07
1.45909e-06
2.02466e-06
2.47668e-06
2.79216e-06
2.95725e-06
2.96228e-06
2.80733e-06
2.50089e-06
2.0574e-06
1.49568e-06
8.37547e-07
1.06267e-07
-6.75272e-07
-1.48566e-06
-3.61056e-06
-3.61113e-06
-3.60213e-06
-3.58393e-06
-3.5571e-06
-3.52308e-06
-3.48435e-06
-3.44415e-06
-3.40621e-06
-3.37443e-06
-3.35249e-06
-3.34335e-06
-3.34902e-06
-3.37052e-06
-3.40771e-06
-3.45889e-06
-3.52066e-06
-3.58828e-06
-3.65508e-06
-3.7107e-06
-3.73823e-06
-3.71446e-06
-3.6017e-06
-3.38166e-06
-3.07854e-06
-2.67948e-06
-2.18714e-06
-1.63389e-06
-1.05436e-06
-4.77737e-07
7.01327e-08
5.62713e-07
9.74541e-07
1.28567e-06
1.48334e-06
1.55407e-06
1.49359e-06
1.30517e-06
9.97256e-07
5.81617e-07
7.26292e-08
-5.13372e-07
-1.1591e-06
-1.84758e-06
-2.5629e-06
-3.0503e-06
-3.08206e-06
-3.10629e-06
-3.12354e-06
-3.13439e-06
-3.13992e-06
-3.14185e-06
-3.14244e-06
-3.14435e-06
-3.15042e-06
-3.16343e-06
-3.18577e-06
-3.21937e-06
-3.2653e-06
-3.32384e-06
-3.39407e-06
-3.47297e-06
-3.55631e-06
-3.63755e-06
-3.7075e-06
-3.75107e-06
-3.74534e-06
-3.65868e-06
-3.47948e-06
-3.22556e-06
-2.90166e-06
-2.5143e-06
-2.08526e-06
-1.64271e-06
-1.2121e-06
-8.1474e-07
-4.70463e-07
-1.95155e-07
-1.376e-09
9.81609e-08
9.40524e-08
-1.45106e-08
-2.2268e-07
-5.23317e-07
-9.07875e-07
-1.36605e-06
-1.88597e-06
-2.45499e-06
-3.06066e-06
-3.69125e-06
-2.37898e-06
-2.44597e-06
-2.50685e-06
-2.56245e-06
-2.61362e-06
-2.66132e-06
-2.7068e-06
-2.75166e-06
-2.79776e-06
-2.84713e-06
-2.90185e-06
-2.96372e-06
-3.03447e-06
-3.11483e-06
-3.20554e-06
-3.30581e-06
-3.41305e-06
-3.52659e-06
-3.63584e-06
-3.73146e-06
-3.806e-06
-3.83815e-06
-3.8001e-06
-3.68399e-06
-3.50409e-06
-3.27259e-06
-2.99906e-06
-2.69924e-06
-2.39322e-06
-2.10013e-06
-1.83953e-06
-1.62658e-06
-1.46914e-06
-1.37346e-06
-1.3526e-06
-1.41328e-06
-1.55403e-06
-1.77017e-06
-2.05675e-06
-2.40821e-06
-2.81748e-06
-3.27608e-06
-3.77495e-06
-4.30518e-06
-4.85827e-06
-1.58264e-06
-1.69176e-06
-1.79561e-06
-1.89537e-06
-1.99221e-06
-2.08717e-06
-2.18127e-06
-2.27573e-06
-2.37188e-06
-2.47123e-06
-2.57533e-06
-2.68552e-06
-2.8032e-06
-2.92896e-06
-3.06305e-06
-3.20616e-06
-3.3523e-06
-3.5037e-06
-3.66184e-06
-3.80535e-06
-3.92652e-06
-4.01647e-06
-4.05032e-06
-4.01974e-06
-3.93564e-06
-3.81079e-06
-3.65604e-06
-3.48364e-06
-3.30769e-06
-3.1414e-06
-2.99942e-06
-2.89253e-06
-2.82789e-06
-2.81138e-06
-2.85177e-06
-2.9518e-06
-3.10964e-06
-3.32287e-06
-3.58926e-06
-3.9055e-06
-4.26669e-06
-4.66686e-06
-5.09973e-06
-5.55919e-06
-6.03925e-06
-6.44852e-07
-8.03002e-07
-9.57852e-07
-1.11016e-06
-1.26101e-06
-1.41148e-06
-1.56256e-06
-1.71521e-06
-1.87047e-06
-2.02942e-06
-2.1932e-06
-2.36285e-06
-2.5392e-06
-2.72304e-06
-2.91418e-06
-3.11285e-06
-3.31785e-06
-3.52611e-06
-3.73866e-06
-3.94502e-06
-4.13381e-06
-4.30077e-06
-4.4257e-06
-4.49764e-06
-4.52309e-06
-4.51236e-06
-4.47622e-06
-4.42414e-06
-4.36556e-06
-4.31415e-06
-4.27657e-06
-4.25366e-06
-4.25334e-06
-4.29306e-06
-4.37636e-06
-4.49988e-06
-4.66185e-06
-4.8629e-06
-5.10326e-06
-5.38117e-06
-5.69327e-06
-6.03559e-06
-6.40419e-06
-6.79518e-06
-7.20455e-06
2.67604e-07
5.65667e-08
-1.52318e-07
-3.59904e-07
-5.67269e-07
-7.75438e-07
-9.8532e-07
-1.19775e-06
-1.41356e-06
-1.63356e-06
-1.85862e-06
-2.08952e-06
-2.32696e-06
-2.57146e-06
-2.82318e-06
-3.08211e-06
-3.3473e-06
-3.61709e-06
-3.88969e-06
-4.15975e-06
-4.42122e-06
-4.66944e-06
-4.88558e-06
-5.05503e-06
-5.18066e-06
-5.27066e-06
-5.33375e-06
-5.37769e-06
-5.41051e-06
-5.44111e-06
-5.47381e-06
-5.51704e-06
-5.57768e-06
-5.66227e-06
-5.77122e-06
-5.90383e-06
-6.06152e-06
-6.2464e-06
-6.45917e-06
-6.69884e-06
-6.96349e-06
-7.25103e-06
-7.55932e-06
-7.88607e-06
-8.2288e-06
1.05005e-06
7.89414e-07
5.29441e-07
2.69597e-07
9.05013e-09
-2.53083e-07
-5.17609e-07
-7.85234e-07
-1.05661e-06
-1.33237e-06
-1.61317e-06
-1.8996e-06
-2.19221e-06
-2.49137e-06
-2.79722e-06
-3.10959e-06
-3.42786e-06
-3.7507e-06
-4.0764e-06
-4.40223e-06
-4.72425e-06
-5.03829e-06
-5.32546e-06
-5.56862e-06
-5.76869e-06
-5.93231e-06
-6.06645e-06
-6.1787e-06
-6.27655e-06
-6.36528e-06
-6.45213e-06
-6.54181e-06
-6.64215e-06
-6.75379e-06
-6.87686e-06
-7.01357e-06
-7.16674e-06
-7.3381e-06
-7.52808e-06
-7.73643e-06
-7.96258e-06
-8.2058e-06
-8.46512e-06
-8.73933e-06
-9.02702e-06
1.63164e-06
1.32894e-06
1.02592e-06
7.22173e-07
4.17059e-07
1.09886e-07
-1.99967e-07
-5.13026e-07
-8.29771e-07
-1.15067e-06
-1.47618e-06
-1.80675e-06
-2.14273e-06
-2.48436e-06
-2.83167e-06
-3.18445e-06
-3.54218e-06
-3.9039e-06
-4.2683e-06
-4.63333e-06
-4.99606e-06
-5.35322e-06
-5.68625e-06
-5.97693e-06
-6.22513e-06
-6.43676e-06
-6.61812e-06
-6.77596e-06
-6.91618e-06
-7.04337e-06
-7.16367e-06
-7.28277e-06
-7.40363e-06
-7.52719e-06
-7.65574e-06
-7.79236e-06
-7.93932e-06
-8.09785e-06
-8.26868e-06
-8.4523e-06
-8.64898e-06
-8.85867e-06
-9.08102e-06
-9.31547e-06
-9.56131e-06
2.05132e-06
1.71327e-06
1.37432e-06
1.03415e-06
6.92302e-07
3.48293e-07
1.71528e-09
-3.47768e-07
-7.00466e-07
-1.05668e-06
-1.4167e-06
-1.7808e-06
-2.14916e-06
-2.52188e-06
-2.8989e-06
-3.27996e-06
-3.6646e-06
-4.052e-06
-4.44103e-06
-4.82998e-06
-5.21671e-06
-5.59866e-06
-5.95795e-06
-6.2765e-06
-6.55399e-06
-6.79593e-06
-7.00787e-06
-7.19518e-06
-7.36273e-06
-7.51565e-06
-7.65877e-06
-7.79571e-06
-7.92866e-06
-8.06024e-06
-8.19333e-06
-8.33027e-06
-8.47275e-06
-8.62214e-06
-8.77958e-06
-8.94599e-06
-9.12201e-06
-9.30796e-06
-9.50395e-06
-9.70991e-06
-9.92567e-06
2.33996e-06
1.97305e-06
1.60495e-06
1.23545e-06
8.64264e-07
4.91119e-07
1.15818e-07
-2.61797e-07
-6.41875e-07
-1.02456e-06
-1.40998e-06
-1.79825e-06
-2.1894e-06
-2.5834e-06
-2.98008e-06
-3.37915e-06
-3.78012e-06
-4.18224e-06
-4.58452e-06
-4.9856e-06
-5.3838e-06
-5.77698e-06
-6.14843e-06
-6.48129e-06
-6.77528e-06
-7.03536e-06
-7.26635e-06
-7.47278e-06
-7.65882e-06
-7.82881e-06
-7.98677e-06
-8.13544e-06
-8.27757e-06
-8.41597e-06
-8.55295e-06
-8.69044e-06
-8.83014e-06
-8.97363e-06
-9.12226e-06
-9.27711e-06
-9.43901e-06
-9.60859e-06
-9.7863e-06
-9.97245e-06
-1.01672e-05
2.53074e-06
2.14066e-06
1.74932e-06
1.35664e-06
9.62506e-07
5.66844e-07
1.69634e-07
-2.29124e-07
-6.29434e-07
-1.03129e-06
-1.4347e-06
-1.8396e-06
-2.24591e-06
-2.65347e-06
-3.06205e-06
-3.47127e-06
-3.88064e-06
-4.28947e-06
-4.69691e-06
-5.10179e-06
-5.50276e-06
-5.898e-06
-6.27239e-06
-6.61075e-06
-6.91283e-06
-7.18301e-06
-7.4255e-06
-7.64429e-06
-7.84283e-06
-8.02376e-06
-8.19171e-06
-8.34909e-06
-8.49846e-06
-8.6422e-06
-8.78235e-06
-8.92083e-06
-9.05941e-06
-9.19969e-06
-9.34307e-06
-9.49071e-06
-9.64365e-06
-9.80271e-06
-9.96859e-06
-1.01419e-05
-1.03229e-05
2.65159e-06
2.24304e-06
1.83334e-06
1.42255e-06
1.01071e-06
5.97906e-07
1.84271e-07
-2.30064e-07
-6.44975e-07
-1.06033e-06
-1.47601e-06
-1.89184e-06
-2.30762e-06
-2.72309e-06
-3.13796e-06
-3.55179e-06
-3.96412e-06
-4.37426e-06
-4.78148e-06
-5.18476e-06
-5.58301e-06
-5.97466e-06
-6.34635e-06
-6.68475e-06
-6.98965e-06
-7.26473e-06
-7.51356e-06
-7.7397e-06
-7.94763e-06
-8.13529e-06
-8.31031e-06
-8.47412e-06
-8.62898e-06
-8.77698e-06
-8.92011e-06
-9.06023e-06
-9.19906e-06
-9.33818e-06
-9.47899e-06
-9.62278e-06
-9.77068e-06
-9.92366e-06
-1.00826e-05
-1.02482e-05
-1.04212e-05
2.72422e-06
2.30098e-06
1.87684e-06
1.45197e-06
1.02653e-06
6.00767e-07
1.74922e-07
-2.50762e-07
-6.76055e-07
-1.10072e-06
-1.52453e-06
-1.9472e-06
-2.36846e-06
-2.78798e-06
-3.20538e-06
-3.62023e-06
-4.03202e-06
-4.44013e-06
-4.84389e-06
-5.24241e-06
-5.6348e-06
-6.01974e-06
-6.38557e-06
-6.72087e-06
-7.02534e-06
-7.302e-06
-7.55374e-06
-7.78338e-06
-7.99313e-06
-8.18961e-06
-8.37039e-06
-8.53918e-06
-8.6984e-06
-8.85008e-06
-8.99611e-06
-9.13828e-06
-9.27825e-06
-9.41758e-06
-9.55772e-06
-9.69998e-06
-9.84557e-06
-9.9956e-06
-1.0151e-05
-1.03127e-05
-1.04815e-05
2.76487e-06
2.32989e-06
1.89431e-06
1.45841e-06
1.02248e-06
5.86865e-07
1.51902e-07
-2.82075e-07
-7.14744e-07
-1.14578e-06
-1.57486e-06
-2.00164e-06
-2.42576e-06
-2.84683e-06
-3.26444e-06
-3.67811e-06
-4.08737e-06
-4.49158e-06
-4.89016e-06
-5.28231e-06
-5.66733e-06
-6.04405e-06
-6.40249e-06
-6.73296e-06
-7.03508e-06
-7.31127e-06
-7.56407e-06
-7.79607e-06
-8.00961e-06
-8.20855e-06
-8.39317e-06
-8.56577e-06
-8.7285e-06
-8.88331e-06
-9.03204e-06
-9.17638e-06
-9.31796e-06
-9.45832e-06
-9.59893e-06
-9.74114e-06
-9.88622e-06
-1.00353e-05
-1.01896e-05
-1.03499e-05
-1.05172e-05
2.78505e-06
2.34054e-06
1.89578e-06
1.45112e-06
1.00695e-06
5.63706e-07
1.21814e-07
-3.18323e-07
-7.56307e-07
-1.19174e-06
-1.62422e-06
-2.05334e-06
-2.47869e-06
-2.89983e-06
-3.31631e-06
-3.72764e-06
-4.13333e-06
-4.53277e-06
-4.92545e-06
-5.31062e-06
-5.68775e-06
-6.05577e-06
-6.40625e-06
-6.73109e-06
-7.02978e-06
-7.30433e-06
-7.55697e-06
-7.79e-06
-8.00559e-06
-8.20632e-06
-8.39358e-06
-8.56903e-06
-8.73452e-06
-8.89194e-06
-9.04304e-06
-9.18947e-06
-9.33281e-06
-9.4746e-06
-9.6163e-06
-9.75931e-06
-9.90492e-06
-1.00544e-05
-1.02088e-05
-1.03693e-05
-1.05368e-05
2.79262e-06
2.34023e-06
1.88792e-06
1.43613e-06
9.85335e-07
5.36044e-07
8.87391e-08
-3.56107e-07
-7.98031e-07
-1.23657e-06
-1.67127e-06
-2.10167e-06
-2.52731e-06
-2.9477e-06
-3.36238e-06
-3.77083e-06
-4.17256e-06
-4.567e-06
-4.95365e-06
-5.33183e-06
-5.70113e-06
-6.06058e-06
-6.40313e-06
-6.72208e-06
-7.01686e-06
-7.28912e-06
-7.54082e-06
-7.77394e-06
-7.99057e-06
-8.19256e-06
-8.3816e-06
-8.55917e-06
-8.72679e-06
-8.88631e-06
-9.03942e-06
-9.18772e-06
-9.33277e-06
-9.47608e-06
-9.61913e-06
-9.76332e-06
-9.91001e-06
-1.00605e-05
-1.02159e-05
-1.03775e-05
-1.05462e-05
2.79277e-06
2.33372e-06
1.87506e-06
1.41732e-06
9.61055e-07
5.06814e-07
5.51401e-08
-3.93438e-07
-8.38402e-07
-1.27924e-06
-1.71544e-06
-2.1465e-06
-2.57192e-06
-2.99118e-06
-3.4038e-06
-3.80924e-06
-4.20702e-06
-4.59656e-06
-4.97741e-06
-5.34894e-06
-5.71082e-06
-6.06215e-06
-6.39713e-06
-6.71029e-06
-7.00103e-06
-7.27071e-06
-7.52104e-06
-7.75369e-06
-7.97009e-06
-8.17342e-06
-8.36365e-06
-8.54282e-06
-8.71204e-06
-8.87321e-06
-9.02797e-06
-9.17786e-06
-9.32442e-06
-9.46917e-06
-9.61356e-06
-9.75905e-06
-9.90702e-06
-1.00588e-05
-1.02156e-05
-1.03786e-05
-1.05489e-05
2.78883e-06
2.32402e-06
1.85992e-06
1.39711e-06
9.36194e-07
4.77782e-07
2.24623e-08
-4.29188e-07
-8.76603e-07
-1.31922e-06
-1.7565e-06
-2.1879e-06
-2.61287e-06
-3.03089e-06
-3.44143e-06
-3.84396e-06
-4.23798e-06
-4.62295e-06
-4.99841e-06
-5.3638e-06
-5.71882e-06
-6.06267e-06
-6.39063e-06
-6.69829e-06
-6.98506e-06
-7.2521e-06
-7.50087e-06
-7.73284e-06
-7.94944e-06
-8.15287e-06
-8.34369e-06
-8.52409e-06
-8.69449e-06
-8.85691e-06
-9.01297e-06
-9.16415e-06
-9.31199e-06
-9.45797e-06
-9.60359e-06
-9.75031e-06
-9.89953e-06
-1.00526e-05
-1.02109e-05
-1.03755e-05
-1.05476e-05
2.78287e-06
2.31302e-06
1.84416e-06
1.37693e-06
9.11978e-07
4.49963e-07
-8.48672e-09
-4.62753e-07
-9.12229e-07
-1.35632e-06
-1.79444e-06
-2.22601e-06
-2.65047e-06
-3.06726e-06
-3.47584e-06
-3.87567e-06
-4.26625e-06
-4.64704e-06
-5.01762e-06
-5.37744e-06
-5.72626e-06
-6.06332e-06
-6.38485e-06
-6.68742e-06
-6.97044e-06
-7.23491e-06
-7.48204e-06
-7.71319e-06
-7.92964e-06
-8.13288e-06
-8.32414e-06
-8.5054e-06
-8.67663e-06
-8.83997e-06
-8.99701e-06
-9.1492e-06
-9.29804e-06
-9.44504e-06
-9.59169e-06
-9.73948e-06
-9.88982e-06
-1.00441e-05
-1.02037e-05
-1.03699e-05
-1.05437e-05
2.77614e-06
2.30182e-06
1.82874e-06
1.3576e-06
8.89091e-07
4.23904e-07
-3.72947e-08
-4.93849e-07
-9.45117e-07
-1.39047e-06
-1.82929e-06
-2.26097e-06
-2.68494e-06
-3.10059e-06
-3.5074e-06
-3.9048e-06
-4.29228e-06
-4.66934e-06
-5.03554e-06
-5.39038e-06
-5.73363e-06
-6.0646e-06
-6.38034e-06
-6.67825e-06
-6.95782e-06
-7.21984e-06
-7.46537e-06
-7.69559e-06
-7.91167e-06
-8.11456e-06
-8.30632e-06
-8.48796e-06
-8.65981e-06
-8.82379e-06
-8.98155e-06
-9.13449e-06
-9.2841e-06
-9.43189e-06
-9.57936e-06
-9.72801e-06
-9.8793e-06
-1.00347e-05
-1.01954e-05
-1.0363e-05
-1.05384e-05
2.76937e-06
2.29104e-06
1.81421e-06
1.33958e-06
8.67903e-07
3.9989e-07
-6.37555e-08
-5.22345e-07
-9.75206e-07
-1.42168e-06
-1.86112e-06
-2.29291e-06
-2.71643e-06
-3.13109e-06
-3.53631e-06
-3.93155e-06
-4.3163e-06
-4.69004e-06
-5.05237e-06
-5.40278e-06
-5.7411e-06
-6.06665e-06
-6.37718e-06
-6.67091e-06
-6.94733e-06
-7.20709e-06
-7.45109e-06
-7.68038e-06
-7.89594e-06
-8.09848e-06
-8.29058e-06
-8.47236e-06
-8.64466e-06
-8.80908e-06
-8.96733e-06
-9.12081e-06
-9.27097e-06
-9.41935e-06
-9.56744e-06
-9.71676e-06
-9.86881e-06
-1.0025e-05
-1.01868e-05
-1.03555e-05
-1.05323e-05
2.76295e-06
2.28105e-06
1.80085e-06
1.32312e-06
8.48607e-07
3.78071e-07
-8.77609e-08
-5.48172e-07
-1.00246e-06
-1.44995e-06
-1.88996e-06
-2.32186e-06
-2.745e-06
-3.15879e-06
-3.56265e-06
-3.956e-06
-4.33835e-06
-4.70919e-06
-5.0681e-06
-5.41463e-06
-5.74859e-06
-6.06935e-06
-6.37528e-06
-6.66526e-06
-6.93886e-06
-7.19658e-06
-7.43915e-06
-7.66753e-06
-7.88253e-06
-8.08478e-06
-8.27699e-06
-8.45883e-06
-8.63139e-06
-8.7961e-06
-8.95469e-06
-9.10853e-06
-9.25908e-06
-9.40786e-06
-9.5564e-06
-9.70622e-06
-9.85883e-06
-1.00157e-05
-1.01783e-05
-1.0348e-05
-1.0526e-05
2.75698e-06
2.27185e-06
1.78863e-06
1.30809e-06
8.31031e-07
3.58221e-07
-1.09581e-07
-5.71637e-07
-1.02722e-06
-1.47563e-06
-1.91618e-06
-2.3482e-06
-2.77104e-06
-3.18409e-06
-3.58675e-06
-3.97846e-06
-4.35871e-06
-4.72699e-06
-5.08291e-06
-5.42601e-06
-5.75613e-06
-6.07264e-06
-6.37443e-06
-6.66105e-06
-6.9321e-06
-7.18797e-06
-7.42924e-06
-7.65677e-06
-7.87124e-06
-8.07324e-06
-8.26537e-06
-8.44723e-06
-8.6199e-06
-8.78481e-06
-8.94359e-06
-9.09764e-06
-9.24843e-06
-9.39746e-06
-9.54629e-06
-9.69645e-06
-9.84948e-06
-1.00069e-05
-1.01701e-05
-1.03406e-05
-1.05196e-05
2.7512e-06