/*--------------------------------*- C++ -*----------------------------------*\
| =========                 |                                                 |
| \\      /  F ield         | OpenFOAM: The Open Source CFD Toolbox           |
|  \\    /   O peration     | Version:  2312                                  |
|   \\  /    A nd           | Website:  www.openfoam.com                      |
|    \\/     M anipulation  |                                                 |
\*---------------------------------------------------------------------------*/
FoamFile
{
    version     2.0;
    format      ascii;
    arch        "LSB;label=32;scalar=64";
    class       volScalarField;
    location    "100";
    object      p;
}
// * * * * * * * * * * * * * * * * * * * * * * * * * * * * * * * * * * * * * //

dimensions      [0 2 -2 0 0 0 0];

internalField   nonuniform List<scalar> 
4800
(
-3.65269e-13
-1.52944e-07
-2.92023e-07
-4.17668e-07
-5.3138e-07
-6.34243e-07
-7.27191e-07
-8.10817e-07
-8.85285e-07
-9.5033e-07
-1.00564e-06
-1.05337e-06
-1.10145e-06
-1.15612e-06
-1.44703e-06
8.15511e-10
-1.52031e-07
-2.91029e-07
-4.16695e-07
-5.30576e-07
-6.33809e-07
-7.27422e-07
-8.12189e-07
-8.88658e-07
-9.57351e-07
-1.01946e-06
-1.07894e-06
-1.14488e-06
-1.23755e-06
-1.47576e-06
1.83656e-09
-1.50969e-07
-2.89929e-07
-4.15663e-07
-5.29775e-07
-6.3347e-07
-7.27886e-07
-8.14008e-07
-8.92799e-07
-9.65547e-07
-1.03465e-06
-1.10512e-06
-1.18565e-06
-1.28892e-06
-1.44996e-06
3.12319e-09
-1.49622e-07
-2.88519e-07
-4.14283e-07
-5.28583e-07
-6.32689e-07
-7.2784e-07
-8.15204e-07
-8.96039e-07
-9.72026e-07
-1.04577e-06
-1.12138e-06
-1.20393e-06
-1.29692e-06
-1.40412e-06
4.75109e-09
-1.47886e-07
-2.86662e-07
-4.12384e-07
-5.26785e-07
-6.31196e-07
-7.26932e-07
-8.15276e-07
-8.97613e-07
-9.75611e-07
-1.05134e-06
-1.12711e-06
-1.20437e-06
-1.28178e-06
-1.35473e-06
6.84265e-09
-1.45624e-07
-2.84201e-07
-4.09777e-07
-5.24149e-07
-6.28694e-07
-7.24761e-07
-8.13655e-07
-8.967e-07
-9.75238e-07
-1.05047e-06
-1.12299e-06
-1.19204e-06
-1.25471e-06
-1.30606e-06
9.58284e-09
-1.42633e-07
-2.80907e-07
-4.06189e-07
-5.20337e-07
-6.2475e-07
-7.20751e-07
-8.09568e-07
-8.923e-07
-9.69799e-07
-1.04241e-06
-1.10961e-06
-1.16977e-06
-1.22034e-06
-1.2583e-06
1.32491e-08
-1.38615e-07
-2.7644e-07
-4.01222e-07
-5.14865e-07
-6.18763e-07
-7.1415e-07
-8.02086e-07
-8.8336e-07
-9.58337e-07
-1.02677e-06
-1.08768e-06
-1.13959e-06
-1.18103e-06
-1.21083e-06
1.82601e-08
-1.33126e-07
-2.70309e-07
-3.94313e-07
-5.07073e-07
-6.09948e-07
-7.04036e-07
-7.9018e-07
-8.68868e-07
-9.40126e-07
-1.00347e-06
-1.05804e-06
-1.10297e-06
-1.1379e-06
-1.1628e-06
2.52467e-08
-1.2551e-07
-2.61806e-07
-3.84678e-07
-4.96076e-07
-5.97312e-07
-6.89327e-07
-7.72765e-07
-8.47908e-07
-9.14662e-07
-9.72643e-07
-1.02141e-06
-1.06081e-06
-1.09129e-06
-1.11337e-06
3.51407e-08
-1.1482e-07
-2.49929e-07
-3.71247e-07
-4.80727e-07
-5.79642e-07
-6.68808e-07
-7.48741e-07
-8.1967e-07
-8.81596e-07
-9.34444e-07
-9.7828e-07
-1.01354e-06
-1.04112e-06
-1.06175e-06
4.92715e-08
-9.97218e-08
-2.33303e-07
-3.52605e-07
-4.5958e-07
-5.55506e-07
-6.41149e-07
-7.17017e-07
-7.83432e-07
-8.40643e-07
-8.88953e-07
-9.28872e-07
-9.61215e-07
-9.87081e-07
-1.00718e-06
6.9437e-08
-7.84304e-08
-2.10123e-07
-3.26956e-07
-4.3089e-07
-5.23278e-07
-6.04948e-07
-6.76515e-07
-7.38511e-07
-7.91483e-07
-8.36081e-07
-8.7312e-07
-9.03604e-07
-9.28661e-07
-9.48907e-07
9.78828e-08
-4.87138e-08
-1.78173e-07
-2.92156e-07
-3.92664e-07
-4.81201e-07
-5.58766e-07
-6.26174e-07
-6.84211e-07
-7.337e-07
-7.75537e-07
-8.10703e-07
-8.40251e-07
-8.65242e-07
-8.86173e-07
1.37109e-07
-8.05649e-09
-1.34986e-07
-2.45876e-07
-3.42816e-07
-4.27514e-07
-5.01217e-07
-5.64981e-07
-6.19826e-07
-6.66775e-07
-7.06864e-07
-7.41122e-07
-7.70562e-07
-7.96133e-07
-8.18228e-07
1.89465e-07
4.59742e-08
-7.82036e-08
-1.85939e-07
-2.79461e-07
-3.60691e-07
-4.31141e-07
-4.92092e-07
-5.44733e-07
-5.90201e-07
-6.2957e-07
-6.63845e-07
-6.93947e-07
-7.20706e-07
-7.44437e-07
2.56621e-07
1.15213e-07
-6.07996e-09
-1.10794e-07
-2.0133e-07
-2.79782e-07
-3.47878e-07
-4.07062e-07
-4.58616e-07
-5.03703e-07
-5.43371e-07
-5.78551e-07
-6.10062e-07
-6.38612e-07
-6.64473e-07
3.39117e-07
2.0041e-07
8.20504e-08
-1.99578e-08
-1.08162e-07
-1.84747e-07
-2.5156e-07
-3.10126e-07
-3.61741e-07
-4.07534e-07
-4.48482e-07
-4.85424e-07
-5.19073e-07
-5.50034e-07
-5.78563e-07
4.36034e-07
3.00858e-07
1.85444e-07
8.57049e-08
-9.41426e-10
-7.66702e-08
-1.43334e-07
-2.02442e-07
-2.5524e-07
-3.02779e-07
-3.45944e-07
-3.85478e-07
-4.21995e-07
-4.56014e-07
-4.87801e-07
5.44586e-07
4.13926e-07
3.01521e-07
2.03622e-07
1.17802e-07
4.19941e-08
-2.55585e-08
-8.62643e-08
-1.41262e-07
-1.91494e-07
-2.37745e-07
-2.8066e-07
-3.20768e-07
-3.58512e-07
-3.94197e-07
6.52721e-07
5.27215e-07
4.17752e-07
3.2126e-07
2.35627e-07
1.59e-07
8.98018e-08
2.67804e-08
-3.10697e-08
-8.45764e-08
-1.34423e-07
-1.81169e-07
-2.25273e-07
-2.67119e-07
-3.07055e-07
7.42937e-07
6.22332e-07
5.15512e-07
4.20124e-07
3.34402e-07
2.5673e-07
1.85746e-07
1.20362e-07
5.9702e-08
3.04557e-09
-5.02029e-08
-1.00531e-07
-1.4834e-07
-1.93967e-07
-2.37757e-07
8.10902e-07
6.94688e-07
5.90305e-07
4.95995e-07
4.10287e-07
3.31783e-07
2.59304e-07
1.91917e-07
1.28864e-07
6.95165e-08
1.33547e-08
-4.0049e-08
-9.10484e-08
-1.39941e-07
-1.87049e-07
8.60865e-07
7.48577e-07
6.4648e-07
5.53266e-07
4.6771e-07
3.88598e-07
3.14925e-07
2.45888e-07
1.80834e-07
1.19216e-07
6.05803e-08
4.55107e-09
-4.9184e-08
-1.00888e-07
-1.50854e-07
8.96862e-07
7.88084e-07
6.88133e-07
5.96034e-07
5.10751e-07
4.31238e-07
3.56637e-07
2.86262e-07
2.19549e-07
1.56022e-07
9.52868e-08
3.70141e-08
-1.90707e-08
-7.31992e-08
-1.25634e-07
9.22388e-07
8.16761e-07
7.18818e-07
6.27829e-07
5.42907e-07
4.63152e-07
3.87834e-07
3.1637e-07
2.48273e-07
1.83131e-07
1.20604e-07
6.04042e-08
2.29216e-09
-5.39345e-08
-1.08508e-07
9.40278e-07
8.37485e-07
7.4141e-07
6.51498e-07
5.66984e-07
4.87098e-07
4.11224e-07
3.38863e-07
2.696e-07
2.03082e-07
1.39013e-07
7.71482e-08
1.72782e-08
-4.07714e-08
-9.72036e-08
9.52721e-07
8.52481e-07
7.58128e-07
6.69239e-07
5.85149e-07
5.05205e-07
4.28889e-07
3.5578e-07
2.85524e-07
2.17819e-07
1.52416e-07
8.91015e-08
2.76987e-08
-3.19419e-08
-8.9996e-08
9.61355e-07
8.6341e-07
7.70631e-07
6.82693e-07
5.99019e-07
5.1906e-07
4.42386e-07
3.68642e-07
2.97529e-07
2.28794e-07
1.62224e-07
9.76419e-08
3.48953e-08
-2.61403e-08
-8.56158e-08
9.67362e-07
8.71475e-07
7.80124e-07
6.93055e-07
6.09773e-07
5.29823e-07
4.5285e-07
3.78559e-07
3.067e-07
2.37061e-07
1.69467e-07
1.03768e-07
3.98377e-08
-2.24265e-08
-8.31527e-08
9.71575e-07
8.7753e-07
7.87462e-07
7.01178e-07
6.18255e-07
5.38324e-07
4.61096e-07
3.86326e-07
3.13811e-07
2.43376e-07
1.74876e-07
1.0819e-07
4.32131e-08
-2.0137e-08
-8.19677e-08
9.74569e-07
8.82167e-07
7.93244e-07
7.07662e-07
6.25062e-07
5.45153e-07
4.67701e-07
3.92509e-07
3.19412e-07
2.48271e-07
1.78968e-07
1.11407e-07
4.55021e-08
-1.88107e-08
-8.16197e-08
9.76731e-07
8.85791e-07
7.97888e-07
7.12927e-07
6.30615e-07
5.50725e-07
4.73074e-07
3.97507e-07
3.23893e-07
2.52123e-07
1.82107e-07
1.13767e-07
4.70375e-08
-1.81303e-08
-8.18076e-08
9.78323e-07
8.88682e-07
8.01681e-07
7.17269e-07
6.35211e-07
5.55336e-07
4.77506e-07
4.01603e-07
3.27527e-07
2.55198e-07
1.84545e-07
1.15512e-07
4.80493e-08
-1.7879e-08
-8.23283e-08
9.79518e-07
8.91028e-07
8.04826e-07
7.20897e-07
6.3906e-07
5.59196e-07
4.81204e-07
4.04999e-07
3.30511e-07
2.57682e-07
1.86462e-07
1.16813e-07
4.86964e-08
-1.79084e-08
-8.30447e-08
9.8043e-07
8.92961e-07
8.07461e-07
7.23956e-07
6.42313e-07
5.62455e-07
4.84317e-07
4.07842e-07
3.32985e-07
2.5971e-07
1.87985e-07
1.17786e-07
4.90891e-08
-1.81172e-08
-8.38643e-08
9.81138e-07
8.94572e-07
8.0969e-07
7.26556e-07
6.45081e-07
5.65226e-07
4.86954e-07
4.10236e-07
3.3505e-07
2.61378e-07
1.89203e-07
1.18515e-07
4.93013e-08
-1.84396e-08
-8.47296e-08
9.81696e-07
8.95937e-07
8.11605e-07
7.288e-07
6.47471e-07
5.67615e-07
4.8922e-07
4.12283e-07
3.36799e-07
2.62767e-07
1.90187e-07
1.19059e-07
4.93801e-08
-1.88416e-08
-8.56203e-08
9.8215e-07
8.97144e-07
8.1332e-07
7.30819e-07
6.49627e-07
5.69769e-07
4.9126e-07
4.14117e-07
3.38355e-07
2.63989e-07
1.91031e-07
1.19493e-07
4.93822e-08
-1.92869e-08
-8.65211e-08
9.82541e-07
8.98212e-07
8.14847e-07
7.32626e-07
6.51564e-07
5.71712e-07
4.9311e-07
4.15792e-07
3.3979e-07
2.65134e-07
1.91846e-07
1.1995e-07
4.94604e-08
-1.96008e-08
-8.72343e-08
-2.16931e-06
-1.91028e-06
-1.70459e-06
-1.55452e-06
-1.42949e-06
-1.32518e-06
-1.23686e-06
-1.16107e-06
-1.09562e-06
-1.03905e-06
-9.90362e-07
-9.48798e-07
-9.13724e-07
-8.84515e-07
-8.60445e-07
-8.40607e-07
-8.23774e-07
-8.08349e-07
-7.92115e-07
-7.7233e-07
-7.45045e-07
-7.06006e-07
-6.52566e-07
-5.88827e-07
-5.2052e-07
-4.50422e-07
-3.81232e-07
-3.15554e-07
-2.55856e-07
-2.04361e-07
-1.63344e-07
-1.35013e-07
-1.21197e-07
-1.23373e-07
-1.42707e-07
-1.79986e-07
-2.35537e-07
-3.09115e-07
-3.99762e-07
-5.0575e-07
-6.2469e-07
-7.56607e-07
-9.13676e-07
-1.11927e-06
-1.52665e-06
-1.81185e-06
-1.74106e-06
-1.62512e-06
-1.51168e-06
-1.40519e-06
-1.31046e-06
-1.22733e-06
-1.15451e-06
-1.09085e-06
-1.03542e-06
-9.87489e-07
-9.46467e-07
-9.11818e-07
-8.82981e-07
-8.59275e-07
-8.3982e-07
-8.23415e-07
-8.0847e-07
-7.92775e-07
-7.73576e-07
-7.46907e-07
-7.08482e-07
-6.55543e-07
-5.92124e-07
-5.2396e-07
-4.53837e-07
-3.84458e-07
-3.18449e-07
-2.58332e-07
-2.06415e-07
-1.65132e-07
-1.36971e-07
-1.24138e-07
-1.28643e-07
-1.52358e-07
-1.97014e-07
-2.64224e-07
-3.5555e-07
-4.72695e-07
-6.18103e-07
-7.96418e-07
-1.01896e-06
-1.31376e-06
-1.74345e-06
-2.43868e-06
-1.61823e-06
-1.60932e-06
-1.5443e-06
-1.46146e-06
-1.37407e-06
-1.29061e-06
-1.21415e-06
-1.1454e-06
-1.08433e-06
-1.03061e-06
-9.83861e-07
-9.43699e-07
-9.09705e-07
-8.81393e-07
-8.58131e-07
-8.39074e-07
-8.23047e-07
-8.08481e-07
-7.93184e-07
-7.74415e-07
-7.48229e-07
-7.10355e-07
-6.57998e-07
-5.9516e-07
-5.27584e-07
-4.58081e-07
-3.89374e-07
-3.24132e-07
-2.64942e-07
-2.14208e-07
-1.745e-07
-1.48513e-07
-1.38731e-07
-1.47566e-07
-1.77444e-07
-2.30864e-07
-3.1051e-07
-4.19461e-07
-5.61541e-07
-7.42056e-07
-9.69075e-07
-1.2558e-06
-1.62295e-06
-2.09988e-06
-2.71986e-06
-1.49666e-06
-1.5064e-06
-1.46955e-06
-1.40975e-06
-1.33952e-06
-1.26757e-06
-1.19854e-06
-1.1346e-06
-1.07667e-06
-1.02508e-06
-9.79802e-07
-9.40695e-07
-9.07482e-07
-8.79765e-07
-8.56972e-07
-8.38297e-07
-8.22599e-07
-8.08335e-07
-7.93344e-07
-7.74911e-07
-7.49135e-07
-7.11793e-07
-6.60096e-07
-5.98042e-07
-5.31382e-07
-4.62964e-07
-3.95539e-07
-3.3184e-07
-2.74529e-07
-2.26118e-07
-1.8932e-07
-1.67002e-07
-1.61865e-07
-1.76641e-07
-2.14181e-07
-2.77565e-07
-3.70267e-07
-4.96384e-07
-6.60941e-07
-8.70257e-07
-1.13218e-06
-1.45584e-06
-1.84913e-06
-2.3137e-06
-2.8388e-06
-1.40955e-06
-1.42289e-06
-1.40213e-06
-1.35916e-06
-1.30337e-06
-1.24229e-06
-1.18093e-06
-1.12225e-06
-1.06791e-06
-1.01877e-06
-9.75212e-07
-9.37317e-07
-9.04979e-07
-8.77903e-07
-8.5559e-07
-8.37283e-07
-8.21881e-07
-8.07876e-07
-7.93146e-07
-7.75013e-07
-7.49643e-07
-7.1288e-07
-6.61971e-07
-6.00912e-07
-5.35454e-07
-4.68484e-07
-4.02789e-07
-3.41163e-07
-2.86353e-07
-2.40983e-07
-2.07903e-07
-1.90131e-07
-1.9056e-07
-2.1218e-07
-2.58177e-07
-3.32043e-07
-4.37726e-07
-5.79771e-07
-7.63356e-07
-9.94066e-07
-1.27704e-06
-1.61508e-06
-2.00508e-06
-2.4337e-06
-2.87442e-06
-1.34135e-06
-1.35355e-06
-1.34181e-06
-1.31085e-06
-1.2668e-06
-1.21554e-06
-1.16171e-06
-1.10853e-06
-1.05811e-06
-1.01173e-06
-9.70104e-07
-9.33576e-07
-9.02204e-07
-8.75814e-07
-8.53988e-07
-8.3603e-07
-8.20889e-07
-8.07099e-07
-7.92593e-07
-7.74743e-07
-7.49802e-07
-7.13703e-07
-6.63762e-07
-6.03974e-07
-5.40067e-07
-4.74976e-07
-4.11516e-07
-3.52548e-07
-3.00895e-07
-2.59298e-07
-2.30724e-07
-2.18314e-07
-2.25108e-07
-2.54279e-07
-3.09208e-07
-3.9357e-07
-5.11391e-07
-6.67016e-07
-8.64803e-07
-1.10837e-06
-1.39913e-06
-1.73406e-06
-2.10296e-06
-2.48668e-06
-2.85795e-06
-1.28333e-06
-1.29382e-06
-1.28732e-06
-1.265e-06
-1.23043e-06
-1.18786e-06
-1.14122e-06
-1.09361e-06
-1.04735e-06
-1.00398e-06
-9.64519e-07
-9.29517e-07
-8.99214e-07
-8.73561e-07
-8.52233e-07
-8.34606e-07
-8.1969e-07
-8.06073e-07
-7.91757e-07
-7.74179e-07
-7.49708e-07
-7.14388e-07
-6.65645e-07
-6.0747e-07
-5.4555e-07
-4.82863e-07
-4.22254e-07
-3.66645e-07
-3.18931e-07
-2.81955e-07
-2.58778e-07
-2.52607e-07
-2.66565e-07
-3.03886e-07
-3.67962e-07
-4.62355e-07
-5.90738e-07
-7.56654e-07
-9.62956e-07
-1.21079e-06
-1.49812e-06
-1.81797e-06
-2.15721e-06
-2.49687e-06
-2.81503e-06
-1.23043e-06
-1.23992e-06
-1.23692e-06
-1.22107e-06
-1.19427e-06
-1.15941e-06
-1.11956e-06
-1.07754e-06
-1.03562e-06
-9.95524e-07
-9.58446e-07
-9.2515e-07
-8.96036e-07
-8.71188e-07
-8.50382e-07
-8.33078e-07
-8.1836e-07
-8.04884e-07
-7.90736e-07
-7.73437e-07
-7.49501e-07
-7.15114e-07
-6.67855e-07
-6.11714e-07
-5.523e-07
-4.92639e-07
-4.35599e-07
-3.84155e-07
-3.41256e-07
-3.09828e-07
-2.9298e-07
-2.93917e-07
-3.15744e-07
-3.61609e-07
-4.34693e-07
-5.38142e-07
-6.74888e-07
-8.47262e-07
-1.05633e-06
-1.30094e-06
-1.57657e-06
-1.87448e-06
-2.1816e-06
-2.48199e-06
-2.75979e-06
-1.17965e-06
-1.18901e-06
-1.18879e-06
-1.17813e-06
-1.15789e-06
-1.12994e-06
-1.09656e-06
-1.06013e-06
-1.02276e-06
-9.862e-07
-9.51777e-07
-9.20408e-07
-8.92645e-07
-8.68704e-07
-8.48475e-07
-8.31512e-07
-8.16987e-07
-8.03641e-07
-7.89662e-07
-7.72678e-07
-7.49385e-07
-7.16136e-07
-6.70722e-07
-6.17124e-07
-5.60835e-07
-5.04924e-07
-4.52271e-07
-4.05886e-07
-3.68749e-07
-3.43829e-07
-3.34221e-07
-3.43038e-07
-3.73249e-07
-4.27745e-07
-5.09283e-07
-6.20331e-07
-7.62821e-07
-9.37716e-07
-1.14441e-06
-1.38001e-06
-1.63874e-06
-1.91171e-06
-2.18757e-06
-2.45403e-06
-2.70014e-06
-1.12905e-06
-1.13896e-06
-1.14131e-06
-1.13508e-06
-1.12057e-06
-1.09892e-06
-1.07176e-06
-1.04095e-06
-1.00837e-06
-9.75677e-07
-9.44246e-07
-9.15101e-07
-8.88924e-07
-8.66061e-07
-8.4652e-07
-8.29964e-07
-8.1567e-07
-8.02483e-07
-7.88717e-07
-7.72134e-07
-7.49646e-07
-7.17816e-07
-6.74701e-07
-6.24266e-07
-5.71835e-07
-5.20507e-07
-4.73161e-07
-4.32805e-07
-4.02419e-07
-3.8495e-07
-3.83402e-07
-4.00696e-07
-4.3953e-07
-5.0238e-07
-5.91393e-07
-7.08201e-07
-8.53647e-07
-1.02742e-06
-1.2276e-06
-1.45031e-06
-1.6895e-06
-1.93718e-06
-2.1842e-06
-2.4216e-06
-2.64188e-06
-1.07723e-06
-1.08821e-06
-1.09308e-06
-1.09081e-06
-1.08145e-06
-1.06564e-06
-1.04448e-06
-1.01935e-06
-9.91823e-07
-9.63387e-07
-9.35374e-07
-9.08857e-07
-8.84613e-07
-8.63102e-07
-8.44458e-07
-8.28462e-07
-8.14515e-07
-8.0159e-07
-7.88151e-07
-7.72129e-07
-7.50694e-07
-7.2066e-07
-6.80418e-07
-6.33891e-07
-5.86177e-07
-5.40377e-07
-4.9934e-07
-4.66033e-07
-4.43377e-07
-4.3422e-07
-4.41386e-07
-4.67493e-07
-5.14842e-07
-5.85364e-07
-6.80493e-07
-8.00982e-07
-9.4667e-07
-1.11624e-06
-1.30696e-06
-1.51463e-06
-1.73359e-06
-1.95718e-06
-2.17842e-06
-2.39091e-06
-2.58953e-06
-1.02311e-06
-1.0355e-06
-1.0429e-06
-1.04432e-06
-1.03968e-06
-1.02932e-06
-1.01395e-06
-9.94544e-07
-9.72326e-07
-9.48564e-07
-9.24471e-07
-9.01096e-07
-8.79264e-07
-8.59526e-07
-8.42128e-07
-8.26979e-07
-8.1362e-07
-8.01175e-07
-7.88292e-07
-7.73106e-07
-7.5309e-07
-7.25366e-07
-6.88712e-07
-6.46981e-07
-6.04969e-07
-5.65737e-07
-5.32066e-07
-5.06822e-07
-4.92796e-07
-4.92647e-07
-5.08919e-07
-5.43832e-07
-5.99188e-07
-6.76307e-07
-7.75894e-07
-8.97905e-07
-1.04139e-06
-1.20438e-06
-1.38382e-06
-1.57565e-06
-1.77497e-06
-1.97652e-06
-2.17511e-06
-2.36624e-06
-2.54633e-06
-9.65753e-07
-9.79831e-07
-9.89789e-07
-9.94701e-07
-9.94451e-07
-9.89221e-07
-9.79422e-07
-9.65726e-07
-9.49026e-07
-9.30337e-07
-9.10696e-07
-8.91065e-07
-8.72257e-07
-8.54871e-07
-8.39244e-07
-8.2541e-07
-8.13057e-07
-8.01486e-07
-7.89554e-07
-7.75646e-07
-7.57583e-07
-7.32857e-07
-7.00677e-07
-6.64775e-07
-6.29566e-07
-5.98005e-07
-5.72755e-07
-5.56509e-07
-5.51844e-07
-5.61138e-07
-5.86566e-07
-6.29876e-07
-6.92326e-07
-7.74623e-07
-8.76828e-07
-9.98274e-07
-1.1375e-06
-1.29225e-06
-1.4595e-06
-1.63564e-06
-1.81666e-06
-1.9985e-06
-2.17739e-06
-2.35016e-06
-2.51426e-06
-9.04314e-07
-9.20294e-07
-9.32861e-07
-9.41159e-07
-9.4507e-07
-9.44694e-07
-9.40263e-07
-9.32208e-07
-9.21156e-07
-9.07875e-07
-8.93197e-07
-8.77947e-07
-8.62871e-07
-8.48565e-07
-8.35423e-07
-8.23584e-07
-8.12882e-07
-8.02805e-07
-7.92448e-07
-7.80484e-07
-7.65127e-07
-7.44309e-07
-7.1768e-07
-6.88774e-07
-6.61551e-07
-6.38776e-07
-6.22924e-07
-6.16439e-07
-6.21602e-07
-6.40428e-07
-6.74658e-07
-7.2554e-07
-7.93804e-07
-8.79622e-07
-9.82559e-07
-1.10155e-06
-1.2349e-06
-1.38036e-06
-1.53519e-06
-1.69635e-06
-1.86068e-06
-2.02512e-06
-2.18694e-06
-2.34389e-06
-2.4941e-06
-8.38011e-07
-8.56107e-07
-8.7137e-07
-8.83016e-07
-8.9095e-07
-8.95234e-07
-8.95994e-07
-8.93495e-07
-8.88161e-07
-8.80546e-07
-8.71283e-07
-8.61037e-07
-8.50445e-07
-8.40057e-07
-8.30281e-07
-8.2133e-07
-8.1317e-07
-8.05475e-07
-7.97592e-07
-7.88513e-07
-7.76883e-07
-7.61135e-07
-7.41324e-07
-7.20687e-07
-7.02655e-07
-6.89709e-07
-6.84058e-07
-6.87828e-07
-7.02932e-07
-7.30975e-07
-7.73238e-07
-8.30496e-07
-9.03026e-07
-9.90597e-07
-1.09246e-06
-1.20739e-06
-1.33368e-06
-1.46928e-06
-1.61188e-06
-1.75903e-06
-1.9083e-06
-2.05741e-06
-2.20439e-06
-2.34761e-06
-2.48567e-06
-7.66216e-07
-7.86662e-07
-8.04752e-07
-8.19786e-07
-8.31701e-07
-8.40543e-07
-8.46381e-07
-8.49376e-07
-8.49807e-07
-8.48062e-07
-8.44602e-07
-8.39936e-07
-8.34577e-07
-8.29e-07
-8.23592e-07
-8.18604e-07
-8.14107e-07
-8.09952e-07
-8.05732e-07
-8.00776e-07
-7.94176e-07
-7.84908e-07
-7.73341e-07
-7.62281e-07
-7.54572e-07
-7.52321e-07
-7.57397e-07
-7.71555e-07
-7.96304e-07
-8.3283e-07
-8.81983e-07
-9.44144e-07
-1.01926e-06
-1.10685e-06
-1.20604e-06
-1.31562e-06
-1.43405e-06
-1.5596e-06
-1.6904e-06
-1.82455e-06
-1.96023e-06
-2.09577e-06
-2.2297e-06
-2.36086e-06
-2.48815e-06
-6.88642e-07
-7.1171e-07
-7.32807e-07
-7.51345e-07
-7.6729e-07
-7.80688e-07
-7.91579e-07
-8.00062e-07
-8.06325e-07
-8.10633e-07
-8.13319e-07
-8.14757e-07
-8.15347e-07
-8.15476e-07
-8.1549e-07
-8.15654e-07
-8.16116e-07
-8.16875e-07
-8.17758e-07
-8.18418e-07
-8.18386e-07
-8.17189e-07
-8.15353e-07
-8.15098e-07
-8.18644e-07
-8.27655e-07
-8.43604e-07
-8.67858e-07
-9.01533e-07
-9.45438e-07
-1.00007e-06
-1.06552e-06
-1.14155e-06
-1.22759e-06
-1.32279e-06
-1.42608e-06
-1.53619e-06
-1.65173e-06
-1.77128e-06
-1.8934e-06
-2.01676e-06
-2.14012e-06
-2.26242e-06
-2.38279e-06
-2.50036e-06
-6.05564e-07
-6.31578e-07
-6.55922e-07
-6.78153e-07
-6.9827e-07
-7.16321e-07
-7.32333e-07
-7.46376e-07
-7.58582e-07
-7.69143e-07
-7.78295e-07
-7.86318e-07
-7.93516e-07
-8.00202e-07
-8.06677e-07
-8.13203e-07
-8.19981e-07
-8.27133e-07
-8.34685e-07
-8.42585e-07
-8.50759e-07
-8.59229e-07
-8.68493e-07
-8.8002e-07
-8.95392e-07
-9.158e-07
-9.42312e-07
-9.75933e-07
-1.01744e-06
-1.06736e-06
-1.12592e-06
-1.19307e-06
-1.26851e-06
-1.3517e-06
-1.44193e-06
-1.53833e-06
-1.63994e-06
-1.74572e-06
-1.8546e-06
-1.96558e-06
-2.07766e-06
-2.18995e-06
-2.30169e-06
-2.4122e-06
-2.52083e-06
-5.18139e-07
-5.47483e-07
-5.75378e-07
-6.01568e-07
-6.26087e-07
-6.48979e-07
-6.70271e-07
-6.90023e-07
-7.08342e-07
-7.25374e-07
-7.41301e-07
-7.56338e-07
-7.70724e-07
-7.84718e-07
-7.98582e-07
-8.12575e-07
-8.26935e-07
-8.41875e-07
-8.57584e-07
-8.74245e-07
-8.92102e-07
-9.1156e-07
-9.32893e-07
-9.56704e-07
-9.83935e-07
-1.01533e-06
-1.0516e-06
-1.09345e-06
-1.14142e-06
-1.19585e-06
-1.25683e-06
-1.32427e-06
-1.3979e-06
-1.4773e-06
-1.56195e-06
-1.65122e-06
-1.74442e-06
-1.84082e-06
-1.93969e-06
-2.04032e-06
-2.14202e-06
-2.24414e-06
-2.34613e-06
-2.44749e-06
-2.54772e-06
-4.28442e-07
-4.61573e-07
-4.93405e-07
-5.23909e-07
-5.53155e-07
-5.81176e-07
-6.07998e-07
-6.33688e-07
-6.58343e-07
-6.82089e-07
-7.05079e-07
-7.2749e-07
-7.49523e-07
-7.71403e-07
-7.9337e-07
-8.15677e-07
-8.3859e-07
-8.62386e-07
-8.87366e-07
-9.13873e-07
-9.42366e-07
-9.73466e-07
-1.00709e-06
-1.04296e-06
-1.08142e-06
-1.12281e-06
-1.16757e-06
-1.21621e-06
-1.26912e-06
-1.32655e-06
-1.38859e-06
-1.45517e-06
-1.52611e-06
-1.60116e-06
-1.67997e-06
-1.76216e-06
-1.84727e-06
-1.93485e-06
-2.02442e-06
-2.11549e-06
-2.20762e-06
-2.30036e-06
-2.3933e-06
-2.48609e-06
-2.57837e-06
-3.45525e-07
-3.82724e-07
-4.18729e-07
-4.53717e-07
-4.87788e-07
-5.20958e-07
-5.53258e-07
-5.84761e-07
-6.15569e-07
-6.45797e-07
-6.75586e-07
-7.05095e-07
-7.34508e-07
-7.64029e-07
-7.93886e-07
-8.24328e-07
-8.55633e-07
-8.88109e-07
-9.22112e-07
-9.58061e-07
-9.96505e-07
-1.03809e-06
-1.08236e-06
-1.12836e-06
-1.17592e-06
-1.22514e-06
-1.27628e-06
-1.32978e-06
-1.38597e-06
-1.44506e-06
-1.50714e-06
-1.57224e-06
-1.64027e-06
-1.71112e-06
-1.78461e-06
-1.86053e-06
-1.93863e-06
-2.01863e-06
-2.10025e-06
-2.18319e-06
-2.26714e-06
-2.35182e-06
-2.43695e-06
-2.52226e-06
-2.60755e-06
-2.80073e-07
-3.21106e-07
-3.61071e-07
-4.00231e-07
-4.38686e-07
-4.76448e-07
-5.13558e-07
-5.50094e-07
-5.86159e-07
-6.21867e-07
-6.57348e-07
-6.92754e-07
-7.28256e-07
-7.64047e-07
-8.00344e-07
-8.37387e-07
-8.75451e-07
-9.14847e-07
-9.55941e-07
-9.99161e-07
-1.04506e-06
-1.0942e-06
-1.14586e-06
-1.1987e-06
-1.25223e-06
-1.3064e-06
-1.36144e-06
-1.41777e-06
-1.47568e-06
-1.53537e-06
-1.59696e-06
-1.66051e-06
-1.72604e-06
-1.79353e-06
-1.86291e-06
-1.93408e-06
-2.00692e-06
-2.08128e-06
-2.15698e-06
-2.23385e-06
-2.3117e-06
-2.39033e-06
-2.46954e-06
-2.54915e-06
-2.62902e-06
-2.32708e-07
-2.77137e-07
-3.20607e-07
-3.63385e-07
-4.05564e-07
-4.4716e-07
-4.88221e-07
-5.28828e-07
-5.69082e-07
-6.0909e-07
-6.48979e-07
-6.88891e-07
-7.28987e-07
-7.69448e-07
-8.10477e-07
-8.52305e-07
-8.95191e-07
-9.39436e-07
-9.85389e-07
-1.03346e-06
-1.08417e-06
-1.13798e-06
-1.19403e-06
-1.25081e-06
-1.30768e-06
-1.36452e-06
-1.42157e-06
-1.47922e-06
-1.53776e-06
-1.5974e-06
-1.65825e-06
-1.72044e-06
-1.78402e-06
-1.84904e-06
-1.91548e-06
-1.98333e-06
-2.05252e-06
-2.123e-06
-2.19465e-06
-2.26737e-06
-2.34104e-06
-2.41553e-06
-2.49069e-06
-2.56639e-06
-2.64254e-06
-1.99404e-07
-2.4679e-07
-2.93291e-07
-3.39149e-07
-3.84444e-07
-4.29197e-07
-4.73461e-07
-5.17316e-07
-5.60856e-07
-6.04186e-07
-6.47424e-07
-6.90701e-07
-7.34169e-07
-7.77995e-07
-8.2237e-07
-8.67508e-07
-9.13652e-07
-9.61085e-07
-1.01013e-06
-1.06117e-06
-1.11468e-06
-1.17104e-06
-1.22932e-06
-1.28803e-06
-1.34644e-06
-1.40443e-06
-1.46227e-06
-1.52032e-06
-1.57887e-06
-1.63811e-06
-1.69819e-06
-1.75924e-06
-1.82134e-06
-1.88457e-06
-1.94896e-06
-2.01453e-06
-2.08127e-06
-2.14914e-06
-2.2181e-06
-2.28809e-06
-2.35902e-06
-2.43081e-06
-2.50335e-06
-2.57653e-06
-2.6503e-06
-1.76686e-07
-2.26626e-07
-2.75719e-07
-3.24172e-07
-3.7205e-07
-4.1938e-07
-4.66215e-07
-5.12633e-07
-5.58721e-07
-6.04577e-07
-6.5031e-07
-6.96044e-07
-7.41917e-07
-7.88087e-07
-8.34728e-07
-8.8204e-07
-9.30249e-07
-9.79614e-07
-1.03044e-06
-1.08307e-06
-1.13794e-06
-1.19535e-06
-1.25441e-06
-1.31368e-06
-1.37245e-06
-1.43062e-06
-1.48847e-06
-1.54636e-06
-1.60454e-06
-1.66322e-06
-1.72254e-06
-1.78263e-06
-1.84361e-06
-1.90557e-06
-1.96855e-06
-2.03259e-06
-2.09772e-06
-2.16393e-06
-2.23119e-06
-2.29948e-06
-2.36875e-06
-2.43892e-06
-2.50991e-06
-2.58166e-06
-2.65409e-06
-1.61725e-07
-2.13859e-07
-2.65155e-07
-3.1578e-07
-3.65787e-07
-4.15207e-07
-4.64092e-07
-5.12516e-07
-5.60558e-07
-6.08309e-07
-6.55872e-07
-7.0336e-07
-7.50903e-07
-7.98645e-07
-8.46748e-07
-8.95397e-07
-9.448e-07
-9.95199e-07
-1.04687e-06
-1.10014e-06
-1.15539e-06
-1.21287e-06
-1.27176e-06
-1.33073e-06
-1.38911e-06
-1.44686e-06
-1.50426e-06
-1.56164e-06
-1.61926e-06
-1.67728e-06
-1.73588e-06
-1.79518e-06
-1.85531e-06
-1.91635e-06
-1.97838e-06
-2.04144e-06
-2.10556e-06
-2.17077e-06
-2.23705e-06
-2.30439e-06
-2.37276e-06
-2.44209e-06
-2.51234e-06
-2.58344e-06
-2.65532e-06
-1.52296e-07
-2.06315e-07
-2.59478e-07
-3.11918e-07
-3.63679e-07
-4.14792e-07
-4.65308e-07
-5.15295e-07
-5.64828e-07
-6.13991e-07
-6.62878e-07
-7.11595e-07
-7.60263e-07
-8.09016e-07
-8.58004e-07
-9.07398e-07
-9.57392e-07
-1.00821e-06
-1.0601e-06
-1.11337e-06
-1.16837e-06
-1.22532e-06
-1.28346e-06
-1.34161e-06
-1.39917e-06
-1.45615e-06
-1.51283e-06
-1.56952e-06
-1.62646e-06
-1.68381e-06
-1.74173e-06
-1.80037e-06
-1.85983e-06
-1.92022e-06
-1.98161e-06
-2.04405e-06
-2.1076e-06
-2.17226e-06
-2.23805e-06
-2.30496e-06
-2.37296e-06
-2.44201e-06
-2.51207e-06
-2.58307e-06
-2.65497e-06
-1.46718e-07
-2.02359e-07
-2.57108e-07
-3.11068e-07
-3.64277e-07
-4.16765e-07
-4.68583e-07
-5.19792e-07
-5.70462e-07
-6.20672e-07
-6.7051e-07
-7.20075e-07
-7.69479e-07
-8.18847e-07
-8.6832e-07
-9.18058e-07
-9.6824e-07
-1.01907e-06
-1.0708e-06
-1.12368e-06
-1.17805e-06
-1.2341e-06
-1.29116e-06
-1.34821e-06
-1.40472e-06
-1.46075e-06
-1.51659e-06
-1.5725e-06
-1.62871e-06
-1.68539e-06
-1.7427e-06
-1.80076e-06
-1.8597e-06
-1.91961e-06
-1.98057e-06
-2.04264e-06
-2.10588e-06
-2.1703e-06
-2.23592e-06
-2.30273e-06
-2.37073e-06
-2.43987e-06
-2.51011e-06
-2.58139e-06
-2.65366e-06
-1.4376e-07
-2.00801e-07
-2.56902e-07
-3.12143e-07
-3.66554e-07
-4.20167e-07
-4.73031e-07
-5.25201e-07
-5.76745e-07
-6.27734e-07
-6.78252e-07
-7.28393e-07
-7.78262e-07
-8.27977e-07
-8.7767e-07
-9.2749e-07
-9.77604e-07
-1.02821e-06
-1.07952e-06
-1.13178e-06
-1.18532e-06
-1.24029e-06
-1.29612e-06
-1.35194e-06
-1.40731e-06
-1.46233e-06
-1.51727e-06
-1.57238e-06
-1.62786e-06
-1.68389e-06
-1.74062e-06
-1.79818e-06
-1.85669e-06
-1.91623e-06
-1.9769e-06
-2.03876e-06
-2.10186e-06
-2.16623e-06
-2.23188e-06
-2.29882e-06
-2.36704e-06
-2.43649e-06
-2.50715e-06
-2.57894e-06
-2.65181e-06
-1.42542e-07
-2.00798e-07
-2.58058e-07
-3.14385e-07
-3.69804e-07
-4.24347e-07
-4.78059e-07
-5.30994e-07
-5.83214e-07
-6.34788e-07
-6.85795e-07
-7.36324e-07
-7.86475e-07
-8.36359e-07
-8.861e-07
-9.35839e-07
-9.85734e-07
-1.03596e-06
-1.08673e-06
-1.13827e-06
-1.19088e-06
-1.2447e-06
-1.29925e-06
-1.35381e-06
-1.40803e-06
-1.46203e-06
-1.51607e-06
-1.57039e-06
-1.62517e-06
-1.68059e-06
-1.73678e-06
-1.79389e-06
-1.85203e-06
-1.91128e-06
-1.97175e-06
-2.03349e-06
-2.09655e-06
-2.16098e-06
-2.22678e-06
-2.29397e-06
-2.36252e-06
-2.43242e-06
-2.50362e-06
-2.57605e-06
-2.64966e-06
-1.42453e-07
-2.01768e-07
-2.60028e-07
-3.17282e-07
-3.73553e-07
-4.28872e-07
-4.83282e-07
-5.36834e-07
-5.89586e-07
-6.41604e-07
-6.92965e-07
-7.43753e-07
-7.94063e-07
-8.44001e-07
-8.93686e-07
-9.4325e-07
-9.92841e-07
-1.04263e-06
-1.0928e-06
-1.14357e-06
-1.19522e-06
-1.24789e-06
-1.30118e-06
-1.35452e-06
-1.40763e-06
-1.46064e-06
-1.51382e-06
-1.56738e-06
-1.6215e-06
-1.67633e-06
-1.73203e-06
-1.78873e-06
-1.84654e-06
-1.90555e-06
-1.96586e-06
-2.02753e-06
-2.09062e-06
-2.15516e-06
-2.22117e-06
-2.28867e-06
-2.35763e-06
-2.42803e-06
-2.49982e-06
-2.57295e-06
-2.64735e-06
-1.43071e-07
-2.03313e-07
-2.62442e-07
-3.20495e-07
-3.77493e-07
-4.33468e-07
-4.88458e-07
-5.42514e-07
-5.95691e-07
-6.48053e-07
-6.99672e-07
-7.50632e-07
-8.01022e-07
-8.50944e-07
-9.00512e-07
-9.4985e-07
-9.991e-07
-1.04842e-06
-1.09798e-06
-1.14799e-06
-1.19871e-06
-1.25026e-06
-1.30235e-06
-1.35453e-06
-1.40659e-06
-1.45868e-06
-1.51105e-06
-1.56389e-06
-1.61738e-06
-1.67167e-06
-1.72692e-06
-1.78324e-06
-1.84075e-06
-1.89955e-06
-1.95973e-06
-2.02136e-06
-2.0845e-06
-2.14917e-06
-2.21542e-06
-2.28324e-06
-2.35262e-06
-2.42354e-06
-2.49594e-06
-2.56978e-06
-2.64496e-06
-1.44114e-07
-2.05172e-07
-2.65058e-07
-3.23804e-07
-3.81428e-07
-4.37961e-07
-4.9344e-07
-5.47914e-07
-6.01435e-07
-6.54067e-07
-7.05879e-07
-7.56951e-07
-8.07371e-07
-8.57236e-07
-9.06654e-07
-9.55746e-07
-1.00464e-06
-1.05349e-06
-1.10247e-06
-1.15175e-06
-1.20158e-06
-1.25208e-06
-1.30304e-06
-1.35414e-06
-1.40523e-06
-1.45647e-06
-1.50809e-06
-1.56026e-06
-1.61317e-06
-1.66696e-06
-1.72178e-06
-1.77775e-06
-1.83499e-06
-1.8936e-06
-1.95367e-06
-2.01527e-06
-2.07846e-06
-2.14327e-06
-2.20975e-06
-2.27789e-06
-2.34768e-06
-2.4191e-06
-2.4921e-06
-2.56662e-06
-2.64257e-06
-1.45394e-07
-2.07169e-07
-2.6772e-07
-3.2707e-07
-3.85236e-07
-4.42249e-07
-4.98145e-07
-5.52969e-07
-6.06775e-07
-6.59622e-07
-7.11579e-07
-7.62724e-07
-8.13142e-07
-8.62926e-07
-9.12182e-07
-9.61023e-07
-1.00958e-06
-1.05798e-06
-1.10639e-06
-1.15498e-06
-1.20399e-06
-1.25351e-06
-1.30344e-06
-1.35355e-06
-1.40375e-06
-1.45421e-06
-1.50513e-06
-1.55669e-06
-1.60906e-06
-1.66239e-06
-1.71681e-06
-1.77246e-06
-1.82945e-06
-1.88789e-06
-1.94785e-06
-2.00942e-06
-2.07266e-06
-2.13761e-06
-2.2043e-06
-2.27274e-06
-2.34292e-06
-2.41482e-06
-2.48838e-06
-2.56354e-06
-2.64022e-06
-1.46784e-07
-2.09194e-07
-2.7033e-07
-3.30208e-07
-3.88847e-07
-4.46275e-07
-5.02528e-07
-5.5765e-07
-6.11692e-07
-6.64714e-07
-7.16783e-07
-7.67974e-07
-8.1837e-07
-8.68063e-07
-9.17153e-07
-9.65751e-07
-1.01398e-06
-1.06196e-06
-1.10985e-06
-1.15781e-06
-1.20605e-06
-1.25469e-06
-1.30366e-06
-1.35287e-06
-1.40227e-06
-1.45201e-06
-1.50229e-06
-1.5533e-06
-1.60517e-06
-1.65808e-06
-1.71214e-06
-1.76749e-06
-1.82425e-06
-1.88252e-06
-1.94238e-06
-2.00392e-06
-2.0672e-06
-2.13227e-06
-2.19916e-06
-2.26787e-06
-2.33841e-06
-2.41074e-06
-2.48482e-06
-2.56058e-06
-2.63793e-06
-1.48201e-07
-2.11173e-07
-2.72823e-07
-3.33165e-07
-3.92217e-07
-4.50006e-07
-5.06567e-07
-5.61943e-07
-6.16185e-07
-6.6935e-07
-7.21506e-07
-7.72725e-07
-8.23089e-07
-8.72687e-07
-9.21617e-07
-9.69983e-07
-1.0179e-06
-1.0655e-06
-1.11292e-06
-1.16029e-06
-1.20784e-06
-1.25567e-06
-1.30377e-06
-1.35217e-06
-1.40084e-06
-1.44993e-06
-1.49965e-06
-1.55014e-06
-1.60157e-06
-1.65408e-06
-1.70782e-06
-1.7629e-06
-1.81944e-06
-1.87755e-06
-1.93731e-06
-1.99882e-06
-2.06214e-06
-2.12731e-06
-2.19437e-06
-2.26333e-06
-2.33419e-06
-2.40692e-06
-2.48147e-06
-2.55777e-06
-2.63574e-06
-1.49598e-07
-2.13067e-07
-2.7517e-07
-3.3592e-07
-3.95334e-07
-4.53438e-07
-5.10266e-07
-5.6586e-07
-6.20271e-07
-6.73555e-07
-7.25779e-07
-7.77014e-07
-8.2734e-07
-8.76844e-07
-9.25621e-07
-9.73773e-07
-1.02141e-06
-1.06865e-06
-1.11564e-06
-1.16249e-06
-1.20941e-06
-1.2565e-06
-1.30383e-06
-1.35149e-06
-1.3995e-06
-1.44802e-06
-1.49721e-06
-1.54725e-06
-1.59827e-06
-1.65043e-06
-1.70386e-06
-1.75869e-06
-1.81503e-06
-1.87299e-06
-1.93267e-06
-1.99414e-06
-2.05748e-06
-2.12274e-06
-2.18995e-06
-2.25913e-06
-2.33028e-06
-2.40336e-06
-2.47834e-06
-2.55513e-06
-2.63365e-06
-1.50966e-07
-2.1488e-07
-2.77388e-07
-3.38502e-07
-3.98238e-07
-4.56621e-07
-5.13684e-07
-5.69469e-07
-6.24026e-07
-6.77411e-07
-7.29688e-07
-7.8093e-07
-8.31215e-07