/*--------------------------------*- C++ -*----------------------------------*\
| =========                 |                                                 |
| \\      /  F ield         | OpenFOAM: The Open Source CFD Toolbox           |
|  \\    /   O peration     | Version:  2312                                  |
|   \\  /    A nd           | Website:  www.openfoam.com                      |
|    \\/     M anipulation  |                                                 |
\*---------------------------------------------------------------------------*/
FoamFile
{
    version     2.0;
    format      ascii;
    arch        "LSB;label=32;scalar=64";
    class       surfaceScalarField;
    location    "100";
    object      phi;
}
// * * * * * * * * * * * * * * * * * * * * * * * * * * * * * * * * * * * * * //

dimensions      [0 3 -1 0 0 0 0];

oriented        oriented;

internalField   nonuniform List<scalar> 
9445
(
8.32168e-11
4.55558e-13
8.34125e-11
-1.95747e-13
8.40035e-11
-5.91057e-13
8.48807e-11
-8.77221e-13
8.5983e-11
-1.1023e-12
8.72815e-11
-1.29851e-12
8.87762e-11
-1.49464e-12
9.05058e-11
-1.72966e-12
9.25833e-11
-2.07743e-12
9.5281e-11
-2.69774e-12
9.92555e-11
-3.97447e-12
1.06168e-10
-6.91215e-12
1.19757e-10
-1.35894e-11
1.49228e-10
-2.9471e-11
-7.94827e-11
2.28711e-10
2.91588e-10
2.26284e-12
2.92037e-10
-6.44644e-13
2.93867e-10
-2.42062e-12
2.9668e-10
-3.69079e-12
3.00264e-10
-4.68614e-12
3.04518e-10
-5.55211e-12
3.09445e-10
-6.42207e-12
3.15187e-10
-7.47128e-12
3.22118e-10
-9.00849e-12
3.31049e-10
-1.1629e-11
3.43588e-10
-1.65139e-11
3.62651e-10
-2.59742e-11
3.92947e-10
-4.38854e-11
4.40146e-10
-7.66702e-11
-1.33398e-10
4.94061e-10
5.77496e-10
6.21771e-12
5.77988e-10
-1.13615e-12
5.81201e-10
-5.63401e-12
5.86331e-10
-8.82032e-12
5.92948e-10
-1.13036e-11
6.0085e-10
-1.34543e-11
6.10037e-10
-1.56089e-11
6.20755e-10
-1.81896e-11
6.33629e-10
-2.18827e-11
6.49865e-10
-2.78646e-11
6.7143e-10
-3.80792e-11
7.00883e-10
-5.54268e-11
7.40203e-10
-8.32053e-11
7.86792e-10
-1.23259e-10
-1.72001e-10
8.25396e-10
9.63549e-10
1.34727e-11
9.63653e-10
-1.23973e-12
9.68266e-10
-1.0247e-11
9.76014e-10
-1.65684e-11
9.86166e-10
-2.14563e-11
9.98366e-10
-2.56538e-11
1.01257e-09
-2.98126e-11
1.02908e-09
-3.46957e-11
1.04861e-09
-4.14212e-11
1.0724e-09
-5.16547e-11
1.10195e-09
-6.76234e-11
1.13817e-09
-9.16507e-11
1.17966e-09
-1.24692e-10
1.2204e-09
-1.64e-10
-2.01347e-10
1.24975e-09
1.47801e-09
2.56746e-11
1.47697e-09
-2.01521e-13
1.48278e-09
-1.60536e-11
1.49328e-09
-2.70713e-11
1.50733e-09
-3.55008e-11
1.52432e-09
-4.26442e-11
1.54408e-09
-4.95811e-11
1.56685e-09
-5.74626e-11
1.5932e-09
-6.77669e-11
1.62389e-09
-8.23461e-11
1.65934e-09
-1.03073e-10
1.69858e-09
-1.30891e-10
1.73819e-09
-1.64305e-10
1.77241e-09
-1.98221e-10
-2.24721e-10
1.79579e-09
2.156e-09
4.50842e-11
2.15261e-09
3.18872e-12
2.15905e-09
-2.2498e-11
2.17215e-09
-4.01701e-11
2.19016e-09
-5.35118e-11
2.21213e-09
-6.46097e-11
2.23762e-09
-7.50743e-11
2.26659e-09
-8.64339e-11
2.29918e-09
-1.00354e-10
2.33534e-09
-1.18505e-10
2.37422e-09
-1.41957e-10
2.41352e-09
-1.70193e-10
2.44944e-09
-2.00226e-10
2.47801e-09
-2.26787e-10
-2.44177e-10
2.49746e-09
3.04072e-09
7.47027e-11
3.03316e-09
1.07433e-11
3.03918e-09
-2.85173e-11
3.05426e-09
-5.52467e-11
3.07585e-09
-7.51076e-11
3.10248e-09
-9.12375e-11
3.13328e-09
-1.05874e-10
3.16772e-09
-1.20872e-10
3.20526e-09
-1.37896e-10
3.24494e-09
-1.58179e-10
3.2849e-09
-1.81924e-10
3.32236e-09
-2.0765e-10
3.3542e-09
-2.32069e-10
3.37842e-09
-2.50999e-10
-2.61093e-10
3.39533e-09
4.18465e-09
1.18277e-10
4.1704e-09
2.49933e-11
4.17426e-09
-3.23795e-11
4.19006e-09
-7.10408e-11
4.2142e-09
-9.92554e-11
4.24449e-09
-1.21524e-10
4.27943e-09
-1.40817e-10
4.31785e-09
-1.59286e-10
4.35844e-09
-1.78485e-10
4.39945e-09
-1.99194e-10
4.43856e-09
-2.21034e-10
4.47318e-09
-2.42274e-10
4.50132e-09
-2.602e-10
4.52243e-09
-2.72117e-10
-2.76469e-10
4.53781e-09
5.65041e-09
1.80103e-10
5.6262e-09
4.91986e-11
5.62539e-09
-3.157e-11
5.63984e-09
-8.54892e-11
5.66468e-09
-1.24097e-10
5.69678e-09
-1.53618e-10
5.73386e-09
-1.77903e-10
5.77403e-09
-1.99448e-10
5.8153e-09
-2.19759e-10
5.85548e-09
-2.39374e-10
5.89224e-09
-2.57795e-10
5.92362e-09
-2.73652e-10
5.94864e-09
-2.85218e-10
5.96767e-09
-2.91151e-10
-2.9106e-10
5.98226e-09
7.51084e-09
2.64364e-10
7.47294e-09
8.70948e-11
7.46421e-09
-2.2834e-11
7.47439e-09
-9.56709e-11
7.49716e-09
-1.46863e-10
7.5283e-09
-1.84758e-10
7.5647e-09
-2.14308e-10
7.60377e-09
-2.3852e-10
7.64309e-09
-2.59078e-10
7.68035e-09
-2.76632e-10
7.71357e-09
-2.91014e-10
7.74148e-09
-3.01564e-10
7.76384e-09
-3.07582e-10
7.78145e-09
-3.08754e-10
-3.05362e-10
7.79575e-09
9.84756e-09
3.73752e-10
9.7925e-09
1.42163e-10
9.77221e-09
-2.54817e-12
9.77453e-09
-9.79935e-11
9.79166e-09
-1.63994e-10
9.8183e-09
-2.11399e-10
9.85055e-09
-2.46555e-10
9.88529e-09
-2.73254e-10
9.91989e-09
-2.93684e-10
9.95223e-09
-3.0897e-10
9.98079e-09
-3.19577e-10
1.00049e-08
-3.25659e-10
1.00247e-08
-3.27381e-10
1.00411e-08
-3.25122e-10
-3.19519e-10
1.00552e-08
1.27469e-08
5.07114e-10
1.26729e-08
2.16159e-10
1.2638e-08
3.23526e-11
1.26289e-08
-8.88118e-11
1.26365e-08
-1.716e-10
1.26547e-08
-2.2962e-10
1.2679e-08
-2.70896e-10
1.27061e-08
-3.00312e-10
1.27333e-08
-3.20878e-10
1.27588e-08
-3.34464e-10
1.27815e-08
-3.42295e-10
1.28011e-08
-3.45279e-10
1.2818e-08
-3.44224e-10
1.28328e-08
-3.39942e-10
-3.33234e-10
1.28465e-08
1.62924e-08
6.56387e-10
1.62017e-08
3.06856e-10
1.61514e-08
8.27293e-11
1.61282e-08
-6.56608e-11
1.6123e-08
-1.66439e-10
1.61293e-08
-2.35919e-10
1.61424e-08
-2.83955e-10
1.61588e-08
-3.1674e-10
1.61763e-08
-3.383e-10
1.61932e-08
-3.51372e-10
1.62088e-08
-3.57925e-10
1.6223e-08
-3.59482e-10
1.62361e-08
-3.57299e-10
1.62486e-08
-3.52437e-10
-3.45766e-10
1.62611e-08
2.05535e-08
8.04161e-10
2.04548e-08
4.05566e-10
2.03924e-08
1.45082e-10
2.03558e-08
-2.90512e-11
2.03368e-08
-1.47398e-10
2.03293e-08
-2.28437e-10
2.0329e-08
-2.837e-10
2.0333e-08
-3.20675e-10
2.03391e-08
-3.44414e-10
2.03462e-08
-3.5847e-10
2.03537e-08
-3.65444e-10
2.03615e-08
-3.67318e-10
2.03699e-08
-3.65635e-10
2.0379e-08
-3.61598e-10
-3.56095e-10
2.03894e-08
2.55736e-08
9.249e-10
2.54829e-08
4.96331e-10
2.5418e-08
2.09997e-10
2.53731e-08
1.58273e-11
2.53428e-08
-1.17104e-10
2.53227e-08
-2.08354e-10
2.53096e-08
-2.70578e-10
2.53011e-08
-3.12242e-10
2.52959e-08
-3.39203e-10
2.52931e-08
-3.55634e-10
2.52922e-08
-3.64584e-10
2.52933e-08
-3.6833e-10
2.52962e-08
-3.68581e-10
2.53012e-08
-3.66608e-10
-3.63298e-10
2.53084e-08
3.13643e-08
9.92802e-10
3.13011e-08
5.59582e-10
3.12476e-08
2.63431e-10
3.12043e-08
5.91418e-11
3.11697e-08
-8.24533e-11
3.11419e-08
-1.80612e-10
3.11196e-08
-2.48245e-10
3.11016e-08
-2.94223e-10
3.10872e-08
-3.24791e-10
3.1076e-08
-3.44432e-10
3.10678e-08
-3.56411e-10
3.10626e-08
-3.6313e-10
3.10604e-08
-3.66355e-10
3.10611e-08
-3.67369e-10
-3.67039e-10
3.10649e-08
3.79065e-08
9.9429e-10
3.78852e-08
5.80962e-10
3.78561e-08
2.92479e-10
3.78252e-08
9.0019e-11
3.77952e-08
-5.24125e-11
3.77672e-08
-1.52584e-10
3.77417e-08
-2.22777e-10
3.77191e-08
-2.71613e-10
3.76995e-08
-3.05244e-10
3.76832e-08
-3.2811e-10
3.76703e-08
-3.43443e-10
3.76607e-08
-3.536e-10
3.76547e-08
-3.60301e-10
3.76521e-08
-3.64781e-10
-3.67865e-10
3.76529e-08
4.51455e-08
9.3498e-10
4.5167e-08
5.5944e-10
4.51667e-08
2.92778e-10
4.5154e-08
1.02695e-10
4.51347e-08
-3.31019e-11
4.51124e-08
-1.30215e-10
4.50893e-08
-1.99664e-10
4.50669e-08
-2.49304e-10
4.50465e-08
-2.84792e-10
4.50286e-08
-3.10229e-10
4.50138e-08
-3.28601e-10
4.50023e-08
-3.42081e-10
4.49942e-08
-3.52251e-10
4.49897e-08
-3.60242e-10
-3.66806e-10
4.49886e-08
5.29383e-08
8.32313e-10
5.29922e-08
5.05532e-10
5.3015e-08
2.69923e-10
5.30183e-08
9.94632e-11
5.30095e-08
-2.43024e-11
5.29937e-08
-1.14489e-10
5.29746e-08
-1.80489e-10
5.29543e-08
-2.29077e-10
5.29347e-08
-2.65164e-10
5.29168e-08
-2.9232e-10
5.29014e-08
-3.13148e-10
5.28888e-08
-3.29544e-10
5.28795e-08
-3.42887e-10
5.28734e-08
-3.54167e-10
-3.64035e-10
5.28706e-08
6.09262e-08
7.01105e-10
6.10012e-08
4.30504e-10
6.1039e-08
2.32164e-10
6.10522e-08
8.62077e-11
6.10497e-08
-2.18193e-11
6.10376e-08
-1.02335e-10
6.102e-08
-1.62888e-10
6.09999e-08
-2.08971e-10
6.09793e-08
-2.44585e-10
6.09596e-08
-2.72653e-10
6.09418e-08
-2.95313e-10
6.09264e-08
-3.14128e-10
6.09137e-08
-3.30236e-10
6.0904e-08
-3.44463e-10
-3.57341e-10
6.08973e-08
6.05683e-08
5.65666e-10
6.06487e-08
3.50108e-10
6.06916e-08
1.89234e-10
6.07093e-08
6.85215e-11
6.07103e-08
-2.2803e-11
6.07005e-08
-9.26103e-11
6.06843e-08
-1.46668e-10
6.06646e-08
-1.89208e-10
6.06433e-08
-2.23334e-10
6.0622e-08
-2.51327e-10
6.06015e-08
-2.74863e-10
6.05826e-08
-2.95176e-10
6.05655e-08
-3.13171e-10
6.05506e-08
-3.29506e-10
-3.44609e-10
6.05378e-08
5.199e-08
4.45027e-10
5.20643e-08
2.758e-10
5.21062e-08
1.47269e-10
5.21258e-08
4.89269e-11
5.21302e-08
-2.71205e-11
5.21242e-08
-8.66882e-11
5.21116e-08
-1.34078e-10
5.20949e-08
-1.72476e-10
5.20758e-08
-2.0424e-10
5.20556e-08
-2.3111e-10
5.20351e-08
-2.54376e-10
5.20149e-08
-2.7499e-10
5.19954e-08
-2.93656e-10
5.19768e-08
-3.10887e-10
-3.27021e-10
5.19592e-08
4.37772e-08
3.39455e-10
4.38445e-08
2.08448e-10
4.38845e-08
1.07272e-10
4.39051e-08
2.83858e-11
4.39119e-08
-3.39058e-11
4.3909e-08
-8.38241e-11
4.38994e-08
-1.24517e-10
4.38853e-08
-1.58335e-10
4.38681e-08
-1.87027e-10
4.38489e-08
-2.11894e-10
4.38284e-08
-2.33902e-10
4.38072e-08
-2.53772e-10
4.37856e-08
-2.72035e-10
4.37637e-08
-2.89084e-10
-3.05174e-10
4.37419e-08
3.63041e-08
2.49931e-10
3.63626e-08
1.49919e-10
3.63985e-08
7.14418e-11
3.64177e-08
9.13518e-12
3.64249e-08
-4.10453e-11
3.64231e-08
-8.21108e-11
3.64149e-08
-1.16323e-10
3.6402e-08
-1.45381e-10
3.63855e-08
-1.70557e-10
3.63664e-08
-1.928e-10
3.63453e-08
-2.12818e-10
3.63227e-08
-2.31143e-10
3.62988e-08
-2.48168e-10
3.62739e-08
-2.64182e-10
-2.7937e-10
3.62481e-08
2.97246e-08
1.77038e-10
2.97727e-08
1.01768e-10
2.98024e-08
4.17878e-11
2.98182e-08
-6.67578e-12
2.98236e-08
-4.64425e-11
2.98211e-08
-7.9618e-11
2.98126e-08
-1.07797e-10
2.97994e-08
-1.32184e-10
2.97825e-08
-1.53683e-10
2.97627e-08
-1.72971e-10
2.97404e-08
-1.90557e-10
2.97161e-08
-2.06821e-10
2.969e-08
-2.2205e-10
2.96622e-08
-2.3645e-10
-2.5015e-10
2.9633e-08
2.40628e-08
1.20334e-10
2.41001e-08
6.4493e-11
2.41226e-08
1.93097e-11
2.41337e-08
-1.78302e-11
2.41361e-08
-4.88489e-11
2.41317e-08
-7.5187e-11
2.41219e-08
-9.79467e-11
2.41076e-08
-1.17963e-10
2.40898e-08
-1.35866e-10
2.4069e-08
-1.52126e-10
2.40455e-08
-1.67101e-10
2.40198e-08
-1.8106e-10
2.39919e-08
-1.94202e-10
2.39621e-08
-2.06675e-10
-2.18563e-10
2.39306e-08
1.92735e-08
7.82658e-11
1.93006e-08
3.74236e-11
1.93161e-08
3.86255e-12
1.93224e-08
-2.41947e-11
1.93216e-08
-4.80226e-11
1.9315e-08
-6.8584e-11
1.93037e-08
-8.66247e-11
1.92884e-08
-1.02711e-10
1.92698e-08
-1.17271e-10
1.92483e-08
-1.30628e-10
1.92242e-08
-1.43025e-10
1.91978e-08
-1.54648e-10
1.91693e-08
-1.65636e-10
1.91387e-08
-1.76089e-10
-1.86064e-10
1.91062e-08
1.52777e-08
4.85044e-11
1.52961e-08
1.90501e-11
1.53055e-08
-5.53884e-12
1.53078e-08
-2.64402e-11
1.53042e-08
-4.44699e-11
1.52959e-08
-6.02568e-11
1.52836e-08
-7.42952e-11
1.52678e-08
-8.69611e-11
1.52491e-08
-9.85381e-11
1.52277e-08
-1.09242e-10
1.52039e-08
-1.19238e-10
1.51779e-08
-1.28652e-10
1.51498e-08
-1.37576e-10
1.51198e-08
-1.46081e-10
-1.54201e-10
1.5088e-08
1.19833e-08
2.84273e-11
1.19949e-08
7.48598e-12
1.19996e-08
-1.02813e-11
1.19988e-08
-2.56298e-11
1.19934e-08
-3.90601e-11
1.19841e-08
-5.09745e-11
1.19715e-08
-6.16939e-11
1.1956e-08
-7.14616e-11
1.19379e-08
-8.0462e-11
1.19175e-08
-8.88367e-11
1.1895e-08
-9.66941e-11
1.18704e-08
-1.04117e-10
1.1844e-08
-1.11171e-10
1.18159e-08
-1.179e-10
-1.24325e-10
1.1786e-08
9.29595e-09
1.55325e-11
9.30257e-09
8.66658e-13
9.30407e-09
-1.17813e-11
9.30131e-09
-2.28757e-11
9.29496e-09
-3.27089e-11
9.28552e-09
-4.15339e-11
9.27338e-09
-4.95542e-11
9.25884e-09
-5.69234e-11
9.24214e-09
-6.37589e-11
9.22346e-09
-7.01512e-11
9.20293e-09
-7.61705e-11
9.18069e-09
-8.18714e-11
9.15681e-09
-8.7296e-11
9.13139e-09
-9.24754e-11
-9.7422e-11
9.10448e-09
7.1254e-09
7.68616e-12
7.12868e-09
-2.41119e-12
7.12816e-09
-1.12611e-11
7.12442e-09
-1.91334e-11
7.1179e-09
-2.61899e-11
7.10895e-09
-3.25875e-11
7.09785e-09
-3.84522e-11
7.08481e-09
-4.38786e-11
7.06999e-09
-4.89393e-11
7.05353e-09
-5.36909e-11
7.03553e-09
-5.81778e-11
7.0161e-09
-6.24351e-11
6.99529e-09
-6.64905e-11
6.97318e-09
-7.03648e-11
-7.40653e-11
6.94983e-09
5.38862e-09
3.21316e-12
5.38981e-09
-3.59744e-12
5.38821e-09
-9.65931e-12
5.38419e-09
-1.51191e-11
5.37806e-09
-2.00605e-11
5.37006e-09
-2.45807e-11
5.36036e-09
-2.87549e-11
5.34912e-09
-3.26397e-11
5.33646e-09
-3.62789e-11
5.32247e-09
-3.97069e-11
5.30725e-09
-4.29509e-11
5.29085e-09
-4.60332e-11
5.27333e-09
-4.89715e-11
5.25474e-09
-5.17796e-11
-5.44623e-11
5.23514e-09
4.01143e-09
8.81342e-13
4.01143e-09
-3.59362e-12
4.0094e-09
-7.63256e-12
4.00559e-09
-1.13091e-11
4.00019e-09
-1.46639e-11
3.99337e-09
-1.77567e-11
3.98524e-09
-2.06308e-11
3.97592e-09
-2.33188e-11
3.96549e-09
-2.58461e-11
3.95402e-09
-2.8233e-11
3.94156e-09
-3.04955e-11
3.92818e-09
-3.26474e-11
3.9139e-09
-3.46999e-11
3.89879e-09
-3.6662e-11
-3.85367e-11
3.88286e-09
2.92909e-09
-1.67928e-13
2.92851e-09
-3.00718e-12
2.92647e-09
-5.59933e-12
2.92314e-09
-7.97933e-12
2.91865e-09
-1.0166e-11
2.91309e-09
-1.21958e-11
2.90655e-09
-1.40922e-11
2.8991e-09
-1.58733e-11
2.89081e-09
-1.75531e-11
2.88172e-09
-1.91428e-11
2.87188e-09
-2.06517e-11
2.86132e-09
-2.2088e-11
2.85007e-09
-2.34584e-11
2.83818e-09
-2.47686e-11
-2.60206e-11
2.82566e-09
2.08617e-09
-5.04696e-13
2.08539e-09
-2.22016e-12
2.08358e-09
-3.79801e-12
2.08086e-09
-5.25631e-12
2.0773e-09
-6.60396e-12
2.07297e-09
-7.8626e-12
2.06792e-09
-9.04408e-12
2.0622e-09
-1.01577e-11
2.05586e-09
-1.12107e-11
2.04893e-09
-1.2209e-11
2.04143e-09
-1.31575e-11
2.03341e-09
-1.40609e-11
2.02487e-09
-1.49231e-11
2.01585e-09
-1.57473e-11
-1.65348e-11
2.00636e-09
1.43593e-09
-4.89581e-13
1.43516e-09
-1.45391e-12
1.43371e-09
-2.34141e-12
1.43162e-09
-3.1654e-12
1.42894e-09
-3.9308e-12
1.42573e-09
-4.64965e-12
1.42201e-09
-5.32725e-12
1.41782e-09
-5.96797e-12
1.41319e-09
-6.57517e-12
1.40813e-09
-7.15167e-12
1.40267e-09
-7.6999e-12
1.39684e-09
-8.2223e-12
1.39063e-09
-8.72098e-12
1.38408e-09
-9.19755e-12
-9.65237e-12
1.3772e-09
9.3949e-10
-3.38714e-13
9.38858e-10
-8.21829e-13
9.37778e-10
-1.26105e-12
9.36282e-10
-1.66988e-12
9.34403e-10
-2.0516e-12
9.32166e-10
-2.41203e-12
9.29591e-10
-2.7531e-12
9.267e-10
-3.07655e-12
9.23509e-10
-3.3837e-12
9.20033e-10
-3.6757e-12
9.16286e-10
-3.95356e-12
9.12282e-10
-4.21842e-12
9.08033e-10
-4.47131e-12
9.03548e-10
-4.71281e-12
-4.94256e-12
8.98838e-10
5.64878e-10
-1.72813e-13
5.64425e-10
-3.69156e-13
5.63705e-10
-5.4031e-13
5.62734e-10
-6.99757e-13
5.61533e-10
-8.49661e-13
5.60113e-10
-9.92036e-13
5.58487e-10
-1.12732e-12
5.56666e-10
-1.25598e-12
5.54661e-10
-1.37839e-12
5.5248e-10
-1.49487e-12
5.50132e-10
-1.60576e-12
5.47625e-10
-1.71146e-12
5.44966e-10
-1.81241e-12
5.42162e-10
-1.90865e-12
-1.99937e-12
5.39219e-10
2.86052e-10
-5.2253e-14
2.85784e-10
-1.00931e-13
2.85381e-10
-1.37348e-13
2.84853e-10
-1.71438e-13
2.84207e-10
-2.04003e-13
2.8345e-10
-2.35245e-13
2.82588e-10
-2.65123e-13
2.81626e-10
-2.93642e-13
2.80568e-10
-3.20816e-13
2.7942e-10
-3.46683e-13
2.78185e-10
-3.71295e-13
2.76869e-10
-3.94722e-13
2.75473e-10
-4.1709e-13
2.74003e-10
-4.38326e-13
-4.57614e-13
2.72461e-10
8.19818e-11
8.18809e-11
8.17435e-11
8.15721e-11
8.13681e-11
8.11329e-11
8.08677e-11
8.05741e-11
8.02533e-11
7.99066e-11
7.95353e-11
7.91406e-11
7.87235e-11
7.82852e-11
7.78276e-11
2.76395e-10
-2.03695e-10
1.56011e-10
3.41748e-10
-2.49254e-10
1.83901e-10
4.1092e-10
-2.68679e-10
1.99507e-10
4.80982e-10
-2.79639e-10
2.09578e-10
5.51257e-10
-2.86389e-10
2.16113e-10
6.21818e-10
-2.91175e-10
2.20614e-10
6.9297e-10
-2.95201e-10
2.24049e-10
7.65031e-10
-2.99442e-10
2.2738e-10
8.3828e-10
-3.0499e-10
2.31741e-10
9.12928e-10
-3.13216e-10
2.38568e-10
9.89107e-10
-3.25922e-10
2.49744e-10
1.06684e-09
-3.45481e-10
2.67743e-10
1.14604e-09
-3.74989e-10
2.95793e-10
1.22643e-09
-4.1843e-10
3.38042e-10
1.30753e-09
-4.80817e-10
3.99714e-10
1.3886e-09
-5.68309e-10
4.87236e-10
1.46856e-09
-6.88216e-10
6.08259e-10
1.54588e-09
-8.4885e-10
7.71528e-10
1.6185e-09
-1.05894e-09
9.86328e-10
1.68364e-09
-1.32649e-09
1.26135e-09
1.73764e-09
-1.65602e-09
1.60202e-09
1.77577e-09
-2.04346e-09
2.00532e-09
1.79189e-09
-2.10762e-09
2.09151e-09
1.79008e-09
-1.9692e-09
1.97101e-09
1.77586e-09
-1.76511e-09
1.77933e-09
1.75362e-09
-1.50891e-09
1.53115e-09
1.72693e-09
-1.21267e-09
1.23936e-09
1.69867e-09
-8.86264e-10
9.14522e-10
1.6711e-09
-5.38047e-10
5.65613e-10
1.64579e-09
-1.75594e-10
2.00905e-10
1.62351e-09
1.93606e-10
-1.71325e-10
1.60414e-09
5.60913e-10
-5.41546e-10
1.58656e-09
9.16032e-10
-8.98451e-10
1.56863e-09
1.24771e-09
-1.22978e-09
1.54738e-09
1.54442e-09
-1.52316e-09
1.51926e-09
1.79515e-09
-1.76703e-09
1.48055e-09
1.99015e-09
-1.95144e-09
1.42775e-09
2.12151e-09
-2.06871e-09
1.35798e-09
2.1835e-09
-2.11372e-09
1.26936e-09
2.17253e-09
-2.08391e-09
1.16144e-09
2.08684e-09
-1.97892e-09
1.03578e-09
1.92538e-09
-1.79972e-09
8.96822e-10
1.68537e-09
-1.54642e-09
7.54727e-10
1.35867e-09
-1.21657e-09
9.1194e-10
6.26048e-10
-7.83261e-10
5.21951e-10
-2.31585e-10
5.65227e-10
-2.9253e-10
6.22031e-10
-3.25484e-10
6.86676e-10
-3.44284e-10
7.55916e-10
-3.55628e-10
8.28147e-10
-3.63406e-10
9.02698e-10
-3.69751e-10
9.79335e-10
-3.7608e-10
1.05802e-09
-3.83675e-10
1.13878e-09
-3.93972e-10
1.22161e-09
-4.08759e-10
1.30647e-09
-4.30339e-10
1.39318e-09
-4.61698e-10
1.48141e-09
-5.06653e-10
1.57058e-09
-5.69996e-10
1.65987e-09
-6.57597e-10
1.74805e-09
-7.76392e-10
1.83342e-09
-9.34218e-10
1.91367e-09
-1.13919e-09
1.98573e-09
-1.39856e-09
2.04553e-09
-1.71582e-09
2.08781e-09
-2.08574e-09
2.10576e-09
-2.12557e-09
2.10384e-09
-1.96728e-09
2.08806e-09
-1.74933e-09
2.06327e-09
-1.48412e-09
2.03342e-09
-1.18282e-09
2.00177e-09
-8.54607e-10
1.97091e-09
-5.07187e-10
1.94275e-09
-1.47439e-10
1.91843e-09
2.1793e-10
1.89816e-09
5.8118e-10
1.88113e-09
9.33069e-10
1.86542e-09
1.26341e-09
1.84826e-09
1.56159e-09
1.82621e-09
1.81719e-09
1.79569e-09
2.02067e-09
1.7534e-09
2.1638e-09
1.69697e-09
2.23993e-09
1.62558e-09
2.24392e-09
1.54077e-09
2.17165e-09
1.44729e-09
2.01886e-09
1.35311e-09
1.77955e-09
1.266e-09
1.44577e-09
1.01405e-09
1.16389e-09
8.45407e-10
-2.51597e-10
8.74133e-10
-3.21256e-10
9.17185e-10
-3.68535e-10
9.72364e-10
-3.99462e-10
1.03647e-09
-4.19734e-10
1.10699e-09
-4.33927e-10
1.18234e-09
-4.45101e-10
1.26161e-09
-4.55353e-10
1.34431e-09
-4.66371e-10
1.43014e-09
-4.79807e-10
1.51892e-09
-4.97531e-10
1.61042e-09
-5.21843e-10
1.70436e-09
-5.55643e-10
1.80031e-09
-6.02597e-10
1.89759e-09
-6.67275e-10
1.99523e-09
-7.5524e-10
2.09187e-09
-8.73024e-10
2.18559e-09
-1.02795e-09
2.27385e-09
-1.22745e-09
2.35322e-09
-1.47793e-09
2.41919e-09
-1.78179e-09
2.46595e-09
-2.1325e-09
2.48595e-09
-2.14557e-09
2.484e-09
-1.96533e-09
2.46666e-09
-1.73199e-09
2.43923e-09
-1.45669e-09
2.40608e-09
-1.14967e-09
2.37084e-09
-8.19371e-10
2.33652e-09
-4.72862e-10
2.30541e-09
-1.1633e-10
2.27906e-09
2.44274e-10
2.25814e-09
6.021e-10
2.24224e-09
9.48974e-10
2.22985e-09
1.2758e-09
2.21852e-09
1.57292e-09
2.20516e-09
1.83055e-09
2.1865e-09
2.03933e-09
2.15968e-09
2.19062e-09
2.12291e-09
2.2767e-09
2.07621e-09
2.29062e-09
2.02192e-09
2.22594e-09
1.96448e-09
2.0763e-09
1.90765e-09
1.83639e-09
1.84662e-09
1.5068e-09
1.10703e-09
1.75364e-09
1.26608e-09
-2.67929e-10
1.28565e-09
-3.40827e-10
1.31656e-09
-3.99444e-10
1.36049e-09
-4.43398e-10
1.41618e-09
-4.75418e-10
1.48146e-09
-4.99214e-10
1.55443e-09
-5.18069e-10
1.63366e-09
-5.34588e-10
1.7182e-09
-5.50908e-10
1.80739e-09
-5.68992e-10
1.90074e-09
-5.90885e-10
1.99784e-09
-6.18945e-10
2.09824e-09
-6.56036e-10
2.20133e-09
-7.05696e-10
2.30633e-09
-7.72273e-10
2.41211e-09
-8.61016e-10
2.51711e-09
-9.78025e-10
2.61922e-09
-1.13005e-09
2.71558e-09
-1.32381e-09
2.80243e-09
-1.56478e-09
2.87478e-09
-1.85413e-09
2.92621e-09
-2.18394e-09
2.94841e-09
-2.16777e-09
2.94652e-09
-1.96344e-09
2.92764e-09
-1.71311e-09
2.89754e-09
-1.42658e-09
2.861e-09
-1.11313e-09
2.82208e-09
-7.80453e-10
2.7842e-09
-4.34977e-10
2.7501e-09
-8.22306e-11
2.72182e-09
2.7255e-10
2.70056e-09
6.23363e-10
2.68645e-09
9.63087e-10
2.67854e-09
1.28372e-09
2.67491e-09
1.57654e-09
2.67299e-09
1.83247e-09
2.66999e-09
2.04233e-09
2.66349e-09
2.19711e-09
2.6521e-09
2.28809e-09
2.63582e-09
2.30691e-09
2.61599e-09
2.24577e-09
2.59376e-09
2.09853e-09
2.56635e-09
1.8638e-09
2.52162e-09
1.55153e-09
1.19222e-09
2.43643e-09
1.81008e-09
-2.82219e-10
1.82407e-09
-3.54817e-10
1.84537e-09
-4.20743e-10
1.8781e-09
-4.76127e-10
1.92333e-09
-5.2065e-10
1.98027e-09
-5.5616e-10
2.04746e-09
-5.85257e-10
2.12341e-09
-6.10536e-10
2.20688e-09
-6.34379e-10
2.2969e-09
-6.59014e-10
2.39271e-09
-6.86689e-10
2.49363e-09
-7.19864e-10
2.59899e-09
-7.61403e-10
2.70804e-09
-8.14741e-10
2.81979e-09
-8.84019e-10
2.93293e-09
-9.74158e-10
3.04571e-09
-1.09081e-09
3.15577e-09
-1.24012e-09
3.25996e-09
-1.428e-09
3.3541e-09
-1.65892e-09
3.43271e-09
-1.93274e-09
3.48875e-09
-2.23998e-09
3.51316e-09
-2.19218e-09
3.51138e-09
-1.96166e-09
3.491e-09
-1.69273e-09
3.45826e-09
-1.39384e-09
3.41838e-09
-1.07325e-09
3.37583e-09
-7.37907e-10
3.33447e-09
-3.93618e-10
3.29753e-09
-4.5287e-11
3.26759e-09
3.02495e-10
3.24643e-09
6.44516e-10
3.23487e-09
9.74648e-10
3.23265e-09
1.28594e-09
3.23855e-09
1.57065e-09
3.25063e-09
1.82039e-09
3.26665e-09
2.02631e-09
3.2845e-09
2.17926e-09
3.30261e-09
2.26998e-09
3.31998e-09
2.28954e-09
3.33538e-09
2.23036e-09
3.34553e-09
2.08837e-09
3.34235e-09
1.86698e-09
3.3116e-09
1.58228e-09
1.26656e-09
3.23727e-09
2.51029e-09
-2.95049e-10
2.52093e-09
-3.65454e-10
2.53519e-09
-4.35003e-10
2.55796e-09
-4.98894e-10
2.5921e-09
-5.54787e-10
2.6385e-09
-6.02566e-10
2.69679e-09
-6.43544e-10
2.76597e-09
-6.79714e-10
2.84489e-09
-7.13303e-10
2.93248e-09
-7.46601e-10
3.02775e-09
-7.81967e-10
3.12984e-09
-8.21947e-10
3.23784e-09
-8.69408e-10
3.3508e-09
-9.27695e-10
3.46752e-09
-1.00075e-09
3.58652e-09
-1.09315e-09
3.70579e-09
-1.21008e-09
3.82272e-09
-1.35704e-09
3.93381e-09
-1.53909e-09
4.03449e-09
-1.7596e-09
4.11877e-09
-2.01701e-09
4.17895e-09
-2.30016e-09
4.20531e-09
-2.21854e-09
4.20355e-09
-1.95991e-09
4.18172e-09
-1.6709e-09
4.14647e-09
-1.3586e-09
4.10346e-09
-1.03024e-09
4.05757e-09
-6.92014e-10
4.01308e-09
-3.49132e-10
3.97372e-09
-5.92381e-12
3.94262e-09
3.33589e-10
3.92224e-09
6.64901e-10
3.91409e-09
9.82798e-10
3.9187e-09
1.28132e-09
3.93565e-09
1.5537e-09
3.96368e-09
1.79235e-09
4.00101e-09
1.98898e-09
4.04554e-09
2.13473e-09
4.09494e-09
2.22058e-09
4.1463e-09
2.23818e-09
4.19523e-09
2.18144e-09
4.23444e-09
2.04916e-09
4.25294e-09
1.84847e-09
4.23768e-09
1.59754e-09
1.32508e-09
4.17915e-09
3.40709e-09
-3.06802e-10
3.41573e-09
-3.74099e-10
3.42517e-09
-4.44439e-10
3.43985e-09
-5.13579e-10
3.46348e-09
-5.78417e-10
3.49835e-09
-6.37438e-10
3.5454e-09
-6.90592e-10
3.60458e-09
-7.3889e-10
3.67526e-09
-7.8399e-10
3.75659e-09
-8.27924e-10
3.84759e-09
-8.72965e-10
3.94727e-09
-9.21629e-10
4.0546e-09
-9.76736e-10
4.16842e-09
-1.04152e-09
4.28736e-09
-1.11969e-09
4.4097e-09
-1.21549e-09
4.53321e-09
-1.3336e-09
4.655e-09
-1.47882e-09
4.77122e-09
-1.65532e-09
4.87689e-09
-1.86527e-09
4.96548e-09
-2.1056e-09
5.02869e-09
-2.36337e-09
5.05632e-09
-2.24616e-09
5.05428e-09
-1.95787e-09
5.03097e-09
-1.64758e-09
4.99342e-09
-1.32106e-09
4.94768e-09
-9.84489e-10
4.89899e-09
-6.43331e-10
4.85207e-09
-3.02205e-10
4.81107e-09
3.5072e-11
4.77968e-09
3.64973e-10
4.76097e-09
6.83616e-10
4.75717e-09
9.86602e-10
4.76958e-09
1.26891e-09
4.79854e-09
1.52474e-09
4.84341e-09
1.74749e-09
4.90266e-09
1.92974e-09
4.97385e-09
2.06354e-09
5.05346e-09
2.14097e-09
5.13641e-09
2.15523e-09
5.2154e-09
2.10245e-09
5.28049e-09
1.98407e-09
5.31998e-09
1.80899e-09
5.32316e-09
1.59436e-09
1.36328e-09
5.28497e-09
4.54893e-09
-3.1792e-10
4.55653e-09
-3.81702e-10
4.56295e-09
-4.50858e-10
4.57165e-09
-5.22281e-10
4.58629e-09
-5.93053e-10
4.60991e-09
-6.61058e-10
4.64457e-09
-7.25253e-10
4.69132e-09
-7.85642e-10
4.75041e-09
-8.43075e-10
4.82151e-09
-8.99027e-10
4.90397e-09
-9.55429e-10
4.99692e-09
-1.01457e-09
5.0993e-09
-1.07911e-09
5.20986e-09
-1.15208e-09
5.32709e-09
-1.23692e-09
5.44909e-09
-1.33749e-09
5.5734e-09
-1.45791e-09
5.69684e-09
-1.60226e-09
5.81525e-09
-1.77373e-09
5.92322e-09
-1.97324e-09
6.01375e-09
-2.19613e-09
6.07796e-09
-2.42758e-09
6.10551e-09
-2.27371e-09
6.10249e-09
-1.95485e-09
6.07751e-09
-1.6226e-09
6.0379e-09
-1.28145e-09
5.98999e-09
-9.3658e-10
5.93938e-09
-5.92714e-10
5.89108e-09
-2.53906e-10
5.84965e-09
7.6495e-11
5.81923e-09
3.95402e-10
5.80336e-09
6.99482e-10
5.80489e-09
9.85073e-10
5.82576e-09
1.24803e-09
5.8669e-09
1.4836e-09
5.92807e-09
1.68631e-09
6.00778e-09
1.85003e-09
6.103e-09
1.96832e-09
6.20893e-09
2.03503e-09
6.31863e-09
2.04553e-09
6.42284e-09
1.99824e-09
6.51056e-09
1.89635e-09
6.57067e-09
1.74887e-09
6.59477e-09
1.57026e-09
1.37797e-09
6.58008e-09
5.99323e-09
-3.28885e-10
6.00054e-09
-3.89018e-10
6.00541e-09
-4.55727e-10
6.01019e-09
-5.27056e-10
6.0179e-09
-6.0077e-10
6.03167e-09
-6.74828e-10
6.05418e-09
-7.47753e-10
6.08736e-09
-8.18831e-10
6.13242e-09
-8.88135e-10
6.18984e-09
-9.56444e-10
6.25955e-09
-1.02513e-09
6.34104e-09
-1.09607e-09
6.43349e-09
-1.17156e-09
6.5357e-09
-1.2543e-09
6.64615e-09
-1.34737e-09
6.76282e-09
-1.45416e-09
6.8831e-09
-1.57819e-09
7.00356e-09
-1.72273e-09
7.11977e-09
-1.88993e-09
7.22593e-09
-2.07941e-09
7.31465e-09
-2.28485e-09
7.37655e-09
-2.48948e-09
7.40174e-09
-2.2989e-09
7.39646e-09
-1.94957e-09
7.36932e-09
-1.59547e-09
7.3278e-09
-1.23993e-09
7.27843e-09
-8.87203e-10
7.227e-09
-5.41289e-10
7.17877e-09
-2.05678e-10
7.13854e-09
1.16724e-10
7.1107e-09
4.23242e-10
7.09912e-09
7.11067e-10
7.10697e-09
9.77218e-10
7.13658e-09
1.21843e-09
7.18917e-09
1.43101e-09
7.26464e-09
1.61084e-09
7.36128e-09
1.75339e-09
7.47548e-09
1.85412e-09
7.60144e-09
1.90907e-09
7.7311e-09
1.91588e-09
7.85448e-09
1.87487e-09
7.96075e-09
1.79008e-09
8.04005e-09
1.66957e-09
8.0857e-09
1.52461e-09
1.36784e-09
8.09583e-09
7.80695e-09
-3.40086e-10
7.81456e-09
-3.96626e-10
7.81901e-09
-4.60179e-10
7.82167e-09
-5.2972e-10
7.82472e-09
-6.03821e-10
7.83081e-09
-6.80913e-10
7.84264e-09
-7.59586e-10
7.86264e-09
-8.38836e-10
7.89273e-09
-9.18217e-10
7.93417e-09
-9.97891e-10
7.98766e-09
-1.07862e-09
8.05329e-09
-1.1617e-09
8.13066e-09
-1.24893e-09
8.21888e-09
-1.34252e-09
8.31658e-09
-1.44506e-09
8.42178e-09
-1.55936e-09
8.53183e-09
-1.68823e-09
8.64316e-09
-1.83407e-09
8.75115e-09
-1.99792e-09
8.84973e-09
-2.17799e-09
8.93121e-09
-2.36632e-09
8.98593e-09
-2.5442e-09
9.00526e-09
-2.31824e-09
8.99561e-09
-1.93992e-09
8.96531e-09
-1.56517e-09
8.9218e-09
-1.19642e-09
8.87164e-09
-8.37038e-10
8.82068e-09
-4.90332e-10
8.77423e-09
-1.59228e-10
8.73714e-09
1.53821e-10
8.7138e-09
4.46576e-10
8.7081e-09
7.16765e-10
8.72323e-09
9.62092e-10
8.76148e-09
1.18018e-09
8.82402e-09
1.36848e-09
8.91057e-09
1.52429e-09
9.0191e-09
1.64486e-09
9.14554e-09
1.72768e-09
9.28365e-09
1.77096e-09
9.42519e-09
1.77434e-09
9.56055e-09
1.7395e-09
9.67996e-09
1.67067e-09
9.77503e-09
1.5745e-09
9.84029e-09
1.45935e-09
1.33408e-09
9.87405e-09
1.00668e-08
-3.51654e-10
1.0075e-08
-4.04806e-10
1.00797e-08
-4.64925e-10
1.00816e-08
-5.31642e-10
1.0082e-08
-6.04232e-10
1.00829e-08
-6.81727e-10
1.00864e-08
-7.63085e-10
1.00949e-08
-8.47394e-10
1.01107e-08
-9.34032e-10
1.01356e-08
-1.02279e-09
1.01709e-08
-1.11392e-09
1.02174e-08
-1.20818e-09
1.02752e-08
-1.30677e-09
1.03441e-08
-1.41133e-09
1.04228e-08
-1.5238e-09
1.05097e-08
-1.64629e-09
1.06023e-08
-1.78082e-09
1.06971e-08
-1.92881e-09
1.07893e-08
-2.09011e-09
1.08728e-08
-2.2615e-09
1.09398e-08
-2.43336e-09
1.09807e-08
-2.5851e-09
1.09892e-08
-2.32679e-09
1.09721e-08
-1.92272e-09
1.09369e-08
-1.53002e-09
1.08909e-08
-1.15042e-09
1.08404e-08
-7.86553e-10
1.07911e-08
-4.41067e-10
1.07482e-08
-1.1631e-10
1.07163e-08
1.85766e-10
1.06994e-08
4.63423e-10
1.07012e-08
7.14987e-10
1.07244e-08
9.38896e-10
1.07709e-08
1.13368e-09
1.08414e-08
1.29797e-09
1.09352e-08
1.43047e-09
1.105e-08
1.53012e-09
1.11814e-08
1.59627e-09
1.13234e-08
1.62898e-09
1.14683e-08
1.62938e-09
1.16078e-08
1.60001e-09
1.17336e-08
1.54486e-09
1.18389e-08
1.46923e-09
1.19191e-08
1.37914e-09
1.28067e-09
1.19725e-08
1.28581e-08
-3.63313e-10
1.28667e-08
-4.13394e-10
1.28719e-08
-4.70118e-10
1.28738e-08
-5.3353e-10
1.2873e-08
-6.0342e-10
1.28706e-08
-6.79356e-10
1.28683e-08
-7.6076e-10
1.28679e-08
-8.47027e-10
1.28716e-08
-9.37646e-10
1.28811e-08
-1.03231e-09
1.28982e-08
-1.13102e-09
1.29241e-08
-1.2341e-09
1.29596e-08
-1.34225e-09
1.30048e-08
-1.4565e-09
1.30591e-08
-1.57811e-09
1.31212e-08
-1.70841e-09
1.31889e-08
-1.84854e-09
1.32589e-08
-1.99884e-09
1.33268e-08
-2.15794e-09
1.33864e-08
-2.32113e-09
1.34303e-08
-2.47722e-09
1.34491e-08
-2.60391e-09
1.34405e-08
-2.31819e-09
1.34115e-08
-1.89371e-09
1.33689e-08
-1.48747e-09
1.33193e-08
-1.10081e-09
1.32685e-08
-7.35769e-10
1.32218e-08
-3.9438e-10
1.31839e-08
-7.83891e-11
1.31588e-08
2.10822e-10
1.31502e-08
4.72103e-10
1.31607e-08
7.04468e-10
1.31924e-08
9.07151e-10
1.32465e-08
1.07962e-09
1.33229e-08
1.22159e-09
1.34203e-08
1.33307e-09
1.3536e-08
1.41441e-09
1.36658e-08
1.4664e-09
1.38044e-08
1.49046e-09
1.39451e-08
1.48867e-09
1.40811e-08
1.46395e-09
1.42061e-08
1.41992e-09
1.43146e-08
1.36073e-09
1.4403e-08
1.29073e-09
1.21405e-09
1.44696e-08
1.62721e-08
-3.74333e-10
1.62804e-08
-4.21715e-10
1.62856e-08
-4.75285e-10
1.62874e-08
-5.35314e-10
1.62859e-08
-6.01921e-10
1.62816e-08
-6.75069e-10
1.62754e-08
-7.54585e-10
1.62686e-08
-8.40218e-10
1.62627e-08
-9.3171e-10
1.62592e-08
-1.02887e-09
1.62599e-08
-1.13164e-09
1.62659e-08
-1.24016e-09
1.62784e-08
-1.35475e-09
1.62979e-08
-1.47596e-09
1.63242e-08
-1.60441e-09
1.63564e-08
-1.74069e-09
1.63929e-08
-1.88499e-09
1.64307e-08
-2.0366e-09
1.64656e-08
-2.19289e-09
1.64922e-08
-2.34773e-09
1.65035e-08
-2.48848e-09
1.6491e-08
-2.59142e-09
1.64579e-08
-2.28514e-09
1.6412e-08
-1.84774e-09
1.63587e-08
-1.43422e-09
1.63037e-08
-1.04581e-09
1.6252e-08
-6.8409e-10
1.62082e-08
-3.50537e-10
1.61761e-08
-4.62767e-11
1.61589e-08
2.27949e-10