/*--------------------------------*- C++ -*----------------------------------*\
| =========                 |                                                 |
| \\      /  F ield         | OpenFOAM: The Open Source CFD Toolbox           |
|  \\    /   O peration     | Version:  2312                                  |
|   \\  /    A nd           | Website:  www.openfoam.com                      |
|    \\/     M anipulation  |                                                 |
\*---------------------------------------------------------------------------*/
FoamFile
{
    version     2.0;
    format      ascii;
    arch        "LSB;label=32;scalar=64";
    class       volVectorField;
    location    "100";
    object      U;
}
// * * * * * * * * * * * * * * * * * * * * * * * * * * * * * * * * * * * * * //

dimensions      [0 1 -1 0 0 0 0];

internalField   nonuniform List<vector> 
4800
(
(6.64822e-05 1.11572e-08 -3.88399e-27)
(6.6429e-05 1.64341e-08 -2.81871e-26)
(6.67613e-05 2.07497e-08 3.59033e-26)
(6.73526e-05 2.27667e-08 1.73814e-26)
(6.81445e-05 2.22509e-08 2.64601e-25)
(6.90999e-05 1.85445e-08 -6.3485e-25)
(7.02063e-05 1.07363e-08 6.02812e-25)
(7.1474e-05 -3.05722e-09 -8.87539e-25)
(7.29518e-05 -2.73493e-08 2.80744e-25)
(7.4768e-05 -7.43805e-08 9.7565e-25)
(7.72391e-05 -1.84774e-07 -2.98583e-25)
(8.11031e-05 -5.04194e-07 -2.41195e-26)
(8.81203e-05 -1.4195e-06 -3.58253e-25)
(0.000105089 -5.88479e-06 1.66914e-25)
(0.000134897 -3.22284e-05 -1.31583e-25)
(0.00020645 6.33173e-08 -1.66489e-26)
(0.000206124 -2.46546e-08 2.07388e-26)
(0.000206999 -1.0088e-07 -2.0021e-25)
(0.000208673 -1.8082e-07 1.47e-25)
(0.000210956 -2.71362e-07 4.98665e-25)
(0.000213736 -3.80289e-07 -8.02161e-25)
(0.000216974 -5.19916e-07 -2.40348e-25)
(0.000220711 -7.14285e-07 -6.5248e-26)
(0.000225103 -1.01843e-06 1.90534e-24)
(0.00023053 -1.56756e-06 -1.39341e-24)
(0.00023779 -2.71194e-06 1.48597e-25)
(0.000248401 -5.38785e-06 2.23762e-25)
(0.000265065 -1.1865e-05 -3.2736e-25)
(0.000293204 -2.75011e-05 -1.17772e-25)
(0.000328561 -6.57237e-05 4.19849e-25)
(0.000362339 2.27293e-07 -1.35563e-26)
(0.000361526 -6.3611e-08 1.37826e-26)
(0.000362824 -3.14028e-07 1.47689e-25)
(0.000365514 -5.70953e-07 -3.55413e-25)
(0.000369254 -8.57861e-07 3.54079e-25)
(0.000373843 -1.19972e-06 3.45626e-25)
(0.000379215 -1.63623e-06 -8.8477e-25)
(0.000385434 -2.24306e-06 -5.58882e-25)
(0.000392752 -3.18322e-06 1.30561e-24)
(0.000401725 -4.81767e-06 4.94556e-25)
(0.000413365 -7.93837e-06 -1.66814e-24)
(0.000429191 -1.42123e-05 -2.63914e-25)
(0.0004509 -2.67168e-05 6.59698e-25)
(0.000479444 -5.01707e-05 1.07344e-24)
(0.00050707 -8.96658e-05 -5.46266e-25)
(0.000535763 5.56577e-07 5.76434e-27)
(0.000534177 -9.35362e-08 -4.03126e-26)
(0.000535712 -6.49852e-07 1.8307e-25)
(0.000539287 -1.21335e-06 2.05087e-25)
(0.00054438 -1.83764e-06 -1.92276e-25)
(0.000550687 -2.57738e-06 -1.17395e-24)
(0.000558098 -3.51784e-06 -8.2571e-25)
(0.000566676 -4.81555e-06 2.98058e-24)
(0.000576709 -6.78598e-06 1.24834e-24)
(0.000588768 -1.00606e-05 -1.70754e-24)
(0.000603705 -1.58291e-05 -6.73334e-25)
(0.000622372 -2.60968e-05 -5.07911e-25)
(0.000644803 -4.35679e-05 3.86941e-27)
(0.000668997 -7.049e-05 3.49095e-25)
(0.000688249 -0.000106011 1.70325e-27)
(0.000728317 1.13823e-06 -1.23047e-26)
(0.000725596 -7.43627e-08 -7.53647e-26)
(0.00072711 -1.10564e-06 -5.13853e-26)
(0.000731362 -2.13661e-06 1.28596e-25)
(0.000737619 -3.26765e-06 -3.83869e-25)
(0.000745454 -4.5965e-06 9.4773e-25)
(0.000754684 -6.26968e-06 -1.58845e-25)
(0.000765332 -8.54189e-06 5.92518e-25)
(0.000777621 -1.18867e-05 -3.18306e-24)
(0.000791955 -1.71511e-05 5.89316e-24)
(0.000808739 -2.56937e-05 -5.49868e-24)
(0.000827929 -3.9318e-05 2.80616e-24)
(0.000848313 -5.96322e-05 -2.52386e-24)
(0.000867055 -8.66387e-05 2.28911e-24)
(0.000879947 -0.000117229 -8.85732e-25)
(0.000941551 2.09781e-06 1.90998e-26)
(0.00093726 6.46974e-08 6.80032e-26)
(0.000938407 -1.65276e-06 -3.61209e-25)
(0.000943037 -3.34529e-06 -2.40472e-25)
(0.00095017 -5.17911e-06 6.13701e-25)
(0.000959225 -7.30772e-06 2.24894e-25)
(0.000969915 -9.94731e-06 -1.73903e-24)
(0.000982159 -1.34474e-05 4.06228e-24)
(0.000996022 -1.8398e-05 -5.14413e-24)
(0.0010116 -2.57282e-05 1.15256e-24)
(0.00102876 -3.66842e-05 3.49391e-24)
(0.00104674 -5.25032e-05 -4.65024e-24)
(0.00106385 -7.36495e-05 2.16583e-24)
(0.00107769 -9.88731e-05 2.19123e-24)
(0.00108619 -0.000124926 -1.58504e-24)
(0.00117687 3.6091e-06 1.87155e-26)
(0.0011705 4.35204e-07 -1.09149e-25)
(0.00117086 -2.22643e-06 3.92082e-25)
(0.00117547 -4.80825e-06 -5.41991e-25)
(0.00118308 -7.56292e-06 -1.8727e-24)
(0.00119292 -1.07092e-05 3.10216e-24)
(0.00120456 -1.453e-05 -1.86515e-24)
(0.00121776 -1.94422e-05 6.21728e-24)
(0.00123235 -2.60732e-05 -3.98967e-24)
(0.00124809 -3.52772e-05 -1.8034e-24)
(0.0012644 -4.798e-05 -3.44834e-24)
(0.00128018 -6.4768e-05 2.90165e-24)
(0.00129383 -8.53045e-05 7.7284e-25)
(0.00130379 -0.00010796 6.4373e-25)
(0.00130937 -0.000130135 -5.33412e-25)
(0.00143535 5.90348e-06 -3.22162e-26)
(0.00142639 1.20255e-06 4.26502e-25)
(0.00142546 -2.70952e-06 -9.84408e-25)
(0.00142956 -6.43919e-06 -8.28719e-25)
(0.00143714 -1.03455e-05 2.636e-25)
(0.00144721 -1.47169e-05 5.4914e-25)
(0.00145916 -1.98877e-05 2.01198e-24)
(0.00147255 -2.62958e-05 -5.32138e-24)
(0.00148698 -3.45155e-05 -2.82311e-24)
(0.0015019 -4.52027e-05 6.93537e-24)
(0.0015165 -5.88871e-05 -2.0975e-24)
(0.00152967 -7.56284e-05 6.58944e-24)
(0.00154022 -9.47058e-05 -3.1867e-24)
(0.00154731 -0.000114619 -9.69973e-25)
(0.00155094 -0.000133538 5.43076e-25)
(0.00171753 9.27139e-06 -5.13387e-27)
(0.00170551 2.59633e-06 2.78572e-25)
(0.00170275 -2.91633e-06 -3.87235e-25)
(0.0017058 -8.07557e-06 9.32257e-25)
(0.00171275 -1.33638e-05 -5.44136e-24)
(0.0017224 -1.91377e-05 5.49216e-24)
(0.00173393 -2.57586e-05 -8.48239e-24)
(0.00174671 -3.36343e-05 4.79335e-24)
(0.00176012 -4.32144e-05 3.41299e-24)
(0.00177345 -5.49032e-05 7.11367e-24)
(0.00178585 -6.88776e-05 -8.51125e-24)
(0.0017964 -8.48788e-05 -1.5358e-24)
(0.00180435 -0.000102119 5.56179e-25)
(0.00180935 -0.000119431 4.18458e-24)
(0.00181169 -0.000135618 -1.61221e-24)
(0.002023 1.40459e-05 3.43683e-26)
(0.00200762 4.9099e-06 -1.3981e-25)
(0.00200259 -2.58255e-06 6.04022e-25)
(0.00200402 -9.46213e-06 -2.06542e-24)
(0.00200972 -1.63452e-05 3.01401e-24)
(0.00201825 -2.36512e-05 -3.74957e-24)
(0.00202862 -3.17426e-05 5.96351e-24)
(0.00204001 -4.09584e-05 1.07646e-24)
(0.00205168 -5.15926e-05 -7.18561e-24)
(0.0020629 -6.38161e-05 9.59572e-24)
(0.00207289 -7.75641e-05 -9.66207e-24)
(0.00208099 -9.24529e-05 -2.72973e-24)
(0.00208681 -0.000107805 4.22925e-24)
(0.00209025 -0.000122803 1.17811e-24)
(0.00209168 -0.000136711 -4.86362e-25)
(0.00234991 2.05494e-05 1.72562e-25)
(0.00233125 8.47478e-06 -1.2794e-24)
(0.00232368 -1.37357e-06 -1.97923e-24)
(0.00232303 -1.02494e-05 4.40831e-24)
(0.00232691 -1.89035e-05 1.93876e-24)
(0.00233369 -2.78107e-05 -1.13316e-23)
(0.00234221 -3.73172e-05 3.10444e-24)
(0.00235158 -4.76789e-05 2.08195e-24)
(0.002361 -5.90476e-05 -8.9195e-24)
(0.00236979 -7.14283e-05 8.17651e-24)
(0.00237733 -8.46373e-05 -6.32479e-24)
(0.00238321 -9.82998e-05 1.44173e-23)
(0.00238723 -0.000111912 -6.39546e-24)
(0.00238944 -0.000124951 3.46519e-24)
(0.00239015 -0.000136987 -8.96799e-25)
(0.00269428 2.89792e-05 -9.02536e-26)
(0.00267307 1.35877e-05 1.01398e-24)
(0.00266306 1.06924e-06 -1.83858e-24)
(0.00266014 -1.00252e-05 -9.08279e-25)
(0.0026618 -2.05664e-05 9.34664e-24)
(0.00266635 -3.10765e-05 -1.10505e-24)
(0.00267255 -4.18816e-05 -1.4321e-23)
(0.00267947 -5.31679e-05 1.53823e-23)
(0.00268635 -6.49907e-05 -3.02675e-24)
(0.0026926 -7.72723e-05 -1.00203e-23)
(0.00269778 -8.98097e-05 9.75313e-24)
(0.00270163 -0.000102307 4.96851e-24)
(0.00270408 -0.000114433 -3.55557e-24)
(0.0027052 -0.000125884 -5.89349e-24)
(0.00270526 -0.000136426 4.71431e-25)
(0.00304938 3.92141e-05 1.44393e-26)
(0.00302717 2.03661e-05 -1.28372e-24)
(0.00301544 5.01855e-06 5.6275e-24)
(0.00301047 -8.40362e-06 4.04199e-25)
(0.00300988 -2.08553e-05 2.89354e-24)
(0.00301203 -3.28952e-05 -9.0534e-24)
(0.0030157 -4.48386e-05 7.21757e-24)
(0.00302002 -5.6833e-05 1.64411e-24)
(0.00302432 -6.8895e-05 1.25464e-23)
(0.00302811 -8.09373e-05 -1.69542e-23)
(0.00303109 -9.28006e-05 -7.1018e-24)
(0.0030331 -0.000104291 -4.41281e-24)
(0.00303413 -0.000115223 7.33796e-24)
(0.00303425 -0.000125442 -2.08883e-25)
(0.00303365 -0.000134838 6.3052e-25)
(0.00340536 5.0564e-05 -1.19782e-26)
(0.00338457 2.85286e-05 1.45458e-24)
(0.00337253 1.0472e-05 -1.95913e-24)
(0.00336632 -5.19061e-06 -4.94181e-27)
(0.00336393 -1.94366e-05 2.15429e-24)
(0.00336393 -3.28428e-05 5.06619e-24)
(0.00336527 -4.57249e-05 -1.76194e-23)
(0.00336718 -5.82272e-05 1.1393e-24)
(0.00336911 -7.03767e-05 7.24024e-24)
(0.00337071 -8.21251e-05 -3.1558e-24)
(0.00337177 -9.33852e-05 7.63373e-24)
(0.00337218 -0.000104063 5.01091e-24)
(0.00337195 -0.00011408 -8.1588e-24)
(0.00337112 -0.000123384 5.25321e-24)
(0.00336985 -0.000131939 -4.12442e-24)
(0.0037498 6.16005e-05 -5.44227e-25)
(0.00373326 3.71742e-05 1.13329e-25)
(0.00372287 1.69209e-05 2.50246e-24)
(0.00371678 -6.09881e-07 -1.16019e-23)
(0.00371356 -1.63378e-05 9.13553e-24)
(0.00371215 -3.08255e-05 -6.1566e-24)
(0.00371175 -4.43926e-05 3.85963e-24)
(0.00371179 -5.72025e-05 -2.56721e-23)
(0.00371187 -6.93215e-05 3.29599e-23)
(0.00371175 -8.07607e-05 -1.78581e-23)
(0.00371127 -9.15084e-05 1.44074e-23)
(0.0037104 -0.000101552 1.13061e-23)
(0.00370914 -0.00011089 -1.79945e-23)
(0.00370749 -0.000119536 5.43894e-24)
(0.0037056 -0.000127498 -2.19978e-25)
(0.00406957 7.0343e-05 -2.32183e-26)
(0.00405948 4.4774e-05 -3.83871e-25)
(0.00405262 2.32345e-05 3.12865e-25)
(0.00404818 4.52626e-06 -3.3505e-25)
(0.00404538 -1.214e-05 3.92553e-24)
(0.00404362 -2.72744e-05 -6.03065e-24)
(0.00404241 -4.11899e-05 5.06414e-24)
(0.0040414 -5.40722e-05 -1.45864e-23)
(0.00404036 -6.60307e-05 3.00119e-23)
(0.00403914 -7.71334e-05 -3.49903e-23)
(0.00403769 -8.74303e-05 2.62625e-23)
(0.00403597 -9.69677e-05 -8.12906e-24)
(0.00403399 -0.000105795 4.22669e-25)
(0.00403177 -0.000113963 1.69715e-24)
(0.00402941 -0.000121508 -3.0407e-24)
(0.00435297 7.50244e-05 -2.15815e-24)
(0.00434978 4.96552e-05 3.39533e-24)
(0.00434734 2.79355e-05 -9.03434e-25)
(0.00434557 8.94731e-06 -1.78062e-24)
(0.00434423 -7.9388e-06 6.41004e-24)
(0.00434311 -2.31565e-05 -5.79789e-24)
(0.00434202 -3.69969e-05 -4.78335e-24)
(0.00434082 -4.96571e-05 -1.05405e-23)
(0.00433944 -6.1277e-05 4.57142e-24)
(0.00433783 -7.19639e-05 2.10575e-23)
(0.00433597 -8.18078e-05 -1.01943e-23)
(0.00433389 -9.08906e-05 5.76456e-24)
(0.0043316 -9.92896e-05 -2.12832e-24)
(0.00432912 -0.000107076 -6.20329e-24)
(0.00432652 -0.000114297 3.05925e-24)
(0.00458972 7.50696e-05 7.64677e-25)
(0.00459191 5.09102e-05 -1.17995e-24)
(0.00459329 2.99647e-05 -1.8923e-25)
(0.00459414 1.15436e-05 -1.23994e-24)
(0.00459454 -4.84885e-06 -1.94193e-24)
(0.00459451 -1.95744e-05 9.32555e-24)
(0.00459407 -3.28968e-05 -6.70295e-24)
(0.00459325 -4.50132e-05 -3.97551e-24)
(0.00459207 -5.60773e-05 3.24384e-24)
(0.00459056 -6.62159e-05 -3.64841e-24)
(0.00458876 -7.5538e-05 7.76047e-24)
(0.0045867 -8.41408e-05 3.78865e-24)
(0.00458442 -9.2112e-05 -1.31141e-23)
(0.00458195 -9.95287e-05 8.59099e-24)
(0.00457934 -0.000106443 -1.70581e-24)
(0.0047664 7.12641e-05 2.37121e-24)
(0.00477162 4.89022e-05 3.5425e-24)
(0.00477531 2.93547e-05 -6.96835e-24)
(0.00477786 1.2098e-05 -6.13813e-26)
(0.00477947 -3.27188e-06 9.03185e-25)
(0.00478029 -1.70641e-05 -3.2652e-24)
(0.00478046 -2.9518e-05 -4.44867e-24)
(0.00478007 -4.08239e-05 8.9195e-24)
(0.0047792 -5.11377e-05 9.08168e-24)
(0.00477793 -6.05908e-05 -2.03018e-23)
(0.00477631 -6.92962e-05 1.08826e-23)
(0.00477441 -7.73527e-05 -7.1454e-25)
(0.00477225 -8.48472e-05 -5.75547e-25)
(0.00476988 -9.1854e-05 7.41785e-25)
(0.00476733 -9.84213e-05 -3.32929e-25)
(0.00485918 6.47101e-05 -6.37383e-24)
(0.00486574 4.45963e-05 -1.20288e-23)
(0.00487043 2.68985e-05 6.03945e-24)
(0.0048737 1.12245e-05 1.67827e-23)
(0.00487581 -2.7569e-06 -4.11945e-24)
(0.00487697 -1.53112e-05 -5.64168e-25)
(0.00487735 -2.6653e-05 9.11065e-26)
(0.00487711 -3.69594e-05 -5.71435e-24)
(0.00487633 -4.63786e-05 1.33445e-23)
(0.00487511 -5.50358e-05 -5.32257e-24)
(0.00487352 -6.3038e-05 2.75918e-24)
(0.00487161 -7.0477e-05 -4.14555e-24)
(0.00486943 -7.74318e-05 -4.4971e-24)
(0.00486702 -8.39685e-05 6.43769e-24)
(0.00486438 -9.01281e-05 -2.73741e-24)
(0.00483064 5.63038e-05 9.94203e-24)
(0.00483778 3.88191e-05 -2.02177e-23)
(0.00484287 2.33348e-05 3.11534e-24)
(0.00484637 9.56048e-06 2.22248e-23)
(0.00484858 -2.76903e-06 -1.89699e-23)
(0.00484977 -1.38744e-05 5.45537e-24)
(0.00485013 -2.39406e-05 1.6439e-24)
(0.0048498 -3.3123e-05 -2.99273e-24)
(0.00484892 -4.15526e-05 2.80887e-24)
(0.00484757 -4.93397e-05 -1.72047e-24)
(0.00484582 -5.65775e-05 -1.89586e-24)
(0.00484373 -6.33453e-05 2.70891e-24)
(0.00484135 -6.971e-05 -2.98584e-24)
(0.00483871 -7.57272e-05 1.82542e-24)
(0.00483581 -8.14303e-05 -8.06936e-25)
(0.00468068 4.72872e-05 5.8803e-24)
(0.00468822 3.2472e-05 -1.10856e-23)
(0.00469361 1.92661e-05 -6.54973e-24)
(0.00469732 7.44943e-06 2.79978e-23)
(0.00469967 -3.18638e-06 -2.28243e-23)
(0.00470093 -1.2818e-05 2.49639e-24)
(0.0047013 -2.1596e-05 3.02806e-24)
(0.00470095 -2.96489e-05 1.19875e-24)
(0.0047 -3.70849e-05 2.30902e-25)
(0.00469853 -4.39953e-05 7.62685e-25)
(0.00469662 -5.04567e-05 -3.03214e-25)
(0.00469433 -5.65338e-05 8.34342e-25)
(0.0046917 -6.22806e-05 -5.3498e-24)
(0.00468877 -6.77416e-05 2.56781e-24)
(0.00468552 -7.29438e-05 9.97838e-25)
(0.00444902 3.84931e-05 1.38926e-23)
(0.00445681 2.61083e-05 -2.23319e-23)
(0.00446244 1.50025e-05 4.24637e-24)
(0.00446633 5.00428e-06 -8.35971e-24)
(0.00446882 -4.04919e-06 -9.15951e-24)
(0.00447016 -1.22961e-05 3.01495e-23)
(0.00447056 -1.98555e-05 -1.03095e-23)
(0.00447019 -2.68296e-05 2.37766e-24)
(0.00446915 -3.33054e-05 -1.08531e-24)
(0.00446755 -3.93554e-05 -1.03539e-24)
(0.00446546 -4.50408e-05 9.4028e-25)
(0.00446292 -5.04125e-05 9.15344e-25)
(0.00445999 -5.5513e-05 1.29203e-25)
(0.0044567 -6.03766e-05 -9.52802e-25)
(0.00445304 -6.50242e-05 1.83367e-25)
(0.00416493 3.01832e-05 5.07411e-24)
(0.00417265 1.99699e-05 -2.37845e-23)
(0.00417826 1.07657e-05 3.75894e-23)
(0.00418214 2.43377e-06 -2.61376e-23)
(0.00418459 -5.15241e-06 2.31264e-23)
(0.00418587 -1.21001e-05 -7.61804e-24)
(0.00418618 -1.85022e-05 -4.68138e-24)
(0.00418566 -2.44389e-05 -4.14263e-24)
(0.00418443 -2.9978e-05 5.45813e-24)
(0.00418259 -3.5176e-05 -1.394e-24)
(0.00418019 -4.00801e-05 -3.37304e-24)
(0.0041773 -4.47297e-05 2.91108e-25)
(0.00417396 -4.9157e-05 -3.89232e-25)
(0.0041702 -5.3388e-05 3.0668e-25)
(0.00416601 -5.74378e-05 -1.15836e-25)
(0.00384962 2.2712e-05 6.37489e-25)
(0.0038569 1.44185e-05 -8.51492e-24)
(0.00386215 6.91356e-06 -4.10973e-24)
(0.00386572 8.65033e-08 3.2696e-23)
(0.00386789 -6.1602e-06 -2.96661e-23)
(0.00386888 -1.19085e-05 8.06373e-24)
(0.0038689 -1.72298e-05 1.20491e-24)
(0.00386806 -2.21858e-05 -5.48883e-25)
(0.00386648 -2.68281e-05 -2.02794e-24)
(0.00386424 -3.11996e-05 7.39463e-24)
(0.00386142 -3.53362e-05 -5.28016e-24)
(0.00385805 -3.92672e-05 1.11259e-25)
(0.00385418 -4.30171e-05 1.28172e-25)
(0.00384984 -4.66049e-05 -5.62983e-25)
(0.00384503 -5.00412e-05 5.11043e-25)
(0.00351816 1.63551e-05 8.89032e-25)
(0.00352465 9.73687e-06 7.45916e-24)
(0.00352925 3.7265e-06 -8.16067e-24)
(0.00353225 -1.7657e-06 -5.05449e-24)
(0.0035339 -6.81327e-06 2.96622e-23)
(0.00353441 -1.14774e-05 -2.18076e-23)
(0.00353396 -1.58122e-05 -6.14378e-25)
(0.00353265 -1.98638e-05 -3.6127e-24)
(0.00353059 -2.3671e-05 -9.26469e-26)
(0.00352786 -2.72655e-05 5.65084e-25)
(0.00352451 -3.06739e-05 -6.92802e-25)
(0.00352059 -3.39181e-05 1.10522e-24)
(0.00351614 -3.70159e-05 4.80421e-25)
(0.00351119 -3.99812e-05 2.3102e-25)
(0.00350574 -4.2821e-05 -3.90095e-25)
(0.00318136 1.12436e-05 5.88008e-24)
(0.00318682 6.06161e-06 -8.5507e-24)
(0.00319056 1.33934e-06 -6.20828e-24)
(0.00319282 -2.9947e-06 1.8109e-23)
(0.00319381 -6.99407e-06 -6.27868e-24)
(0.00319373 -1.07033e-05 -7.81455e-24)
(0.00319272 -1.41622e-05 2.73962e-24)
(0.00319088 -1.74049e-05 5.0891e-24)
(0.0031883 -2.04595e-05 -7.17906e-24)
(0.00318504 -2.33492e-05 6.28354e-24)
(0.00318117 -2.60934e-05 -2.75879e-24)
(0.00317671 -2.87078e-05 8.08872e-25)
(0.00317171 -3.12056e-05 -8.29279e-26)
(0.0031662 -3.35966e-05 -4.07189e-25)
(0.00316019 -3.58852e-05 3.19125e-25)
(0.00284711 7.35551e-06 -1.04726e-24)
(0.00285145 3.37814e-06 -3.39273e-24)
(0.00285425 -2.59947e-07 -1.01151e-23)
(0.00285571 -3.61378e-06 2.73006e-23)
(0.00285602 -6.72029e-06 -4.9813e-24)
(0.00285534 -9.61088e-06 -6.93131e-24)
(0.00285377 -1.23145e-05 2.05383e-24)
(0.00285143 -1.48554e-05 -2.97516e-24)
(0.00284837 -1.72537e-05 -5.27117e-24)
(0.00284465 -1.95259e-05 5.07882e-24)
(0.00284033 -2.16858e-05 2.36104e-25)
(0.00283545 -2.37448e-05 -5.89975e-25)
(0.00283002 -2.57123e-05 7.0843e-25)
(0.00282409 -2.75953e-05 -7.9616e-26)
(0.00281765 -2.93965e-05 7.92181e-26)
(0.00252127 4.55332e-06 3.65403e-24)
(0.00252453 1.56234e-06 5.00792e-24)
(0.00252643 -1.18524e-06 -4.75329e-24)
(0.00252715 -3.72973e-06 -9.43359e-24)
(0.00252683 -6.09467e-06 1.19956e-23)
(0.00252561 -8.30173e-06 -1.23997e-23)
(0.00252359 -1.03714e-05 -1.14778e-25)
(0.00252083 -1.23207e-05 4.40775e-24)
(0.0025174 -1.41635e-05 1.38216e-24)
(0.00251336 -1.59113e-05 -2.18093e-24)
(0.00250874 -1.7574e-05 4.76208e-25)
(0.00250358 -1.91594e-05 2.89202e-24)
(0.0024979 -2.06743e-05 -1.03616e-24)
(0.00249174 -2.21239e-05 -5.21148e-26)
(0.00248509 -2.35095e-05 1.55832e-26)
(0.00220819 2.63868e-06 -3.40097e-24)
(0.00221048 4.3639e-07 4.26943e-24)
(0.00221161 -1.59665e-06 4.26676e-25)
(0.0022117 -3.48805e-06 7.64882e-24)
(0.00221087 -5.25129e-06 -6.27495e-24)
(0.00220924 -6.90118e-06 3.2595e-25)
(0.00220688 -8.45194e-06 -7.29921e-25)
(0.00220386 -9.91511e-06 -1.68109e-24)
(0.00220022 -1.13001e-05 1.12784e-24)
(0.00219601 -1.2615e-05 -3.5609e-24)
(0.00219127 -1.38662e-05 5.31102e-25)
(0.00218602 -1.50596e-05 8.30669e-25)
(0.00218029 -1.61998e-05 3.59271e-25)
(0.0021741 -1.72905e-05 6.67528e-26)
(0.00216746 -1.83326e-05 -3.68442e-26)
(0.00191095 1.40123e-06 2.23304e-24)
(0.00191244 -1.84615e-07 -1.7537e-24)
(0.00191294 -1.65656e-06 -7.17999e-24)
(0.00191255 -3.03187e-06 6.64709e-24)
(0.00191137 -4.31727e-06 8.57545e-24)
(0.00190947 -5.5229e-06 -2.43212e-24)
(0.00190693 -6.6584e-06 -4.27287e-24)
(0.0019038 -7.73142e-06 -5.24809e-24)
(0.00190011 -8.74823e-06 3.79266e-24)
(0.0018959 -9.71414e-06 1.20186e-25)
(0.00189121 -1.06337e-05 -6.57478e-25)
(0.00188606 -1.15107e-05 -6.96404e-26)
(0.00188046 -1.23486e-05 1.67914e-25)
(0.00187445 -1.31499e-05 -4.8557e-26)
(0.00186803 -1.39152e-05 3.68988e-26)
(0.00163159 6.50131e-07 -1.23486e-24)
(0.00163245 -4.64084e-07 -8.20235e-25)
(0.00163249 -1.50412e-06 1.05424e-24)
(0.00163177 -2.47956e-06 -3.0104e-24)
(0.00163038 -3.39308e-06 9.70452e-24)
(0.00162837 -4.25177e-06 -1.22948e-23)
(0.00162579 -5.06198e-06 1.14957e-23)
(0.00162269 -5.82864e-06 -4.70658e-24)
(0.00161911 -6.55581e-06 8.94712e-25)
(0.00161506 -7.24695e-06 -1.15546e-25)
(0.00161058 -7.90505e-06 -6.68862e-25)
(0.00160569 -8.53276e-06 3.64343e-26)
(0.00160041 -9.13234e-06 -2.66358e-25)
(0.00159475 -9.70569e-06 1.04949e-26)
(0.00158873 -1.02531e-05 -1.51768e-26)
(0.00137125 2.29038e-07 -5.23968e-25)
(0.00137166 -5.31722e-07 1.42691e-25)
(0.00137139 -1.24564e-06 2.84245e-25)
(0.00137049 -1.91723e-06 -1.22202e-24)
(0.00136902 -2.54714e-06 -4.83082e-25)
(0.00136702 -3.14045e-06 4.45919e-24)
(0.00136453 -3.70117e-06 -2.57026e-24)
(0.0013616 -4.23239e-06 3.2017e-25)
(0.00135824 -4.73667e-06 -3.1964e-25)
(0.00135448 -5.21618e-06 -2.77395e-25)
(0.00135035 -5.67284e-06 -2.32753e-26)
(0.00134586 -6.1084e-06 3.56264e-25)
(0.00134102 -6.52439e-06 -6.49878e-26)
(0.00133586 -6.92214e-06 -7.72978e-26)
(0.00133039 -7.30192e-06 2.22437e-26)
(0.0011304 1.91329e-08 -1.65866e-25)
(0.0011305 -4.82302e-07 -4.94677e-26)
(0.00113005 -9.54868e-07 -2.51551e-24)
(0.00112908 -1.40033e-06 7.27725e-25)
(0.00112763 -1.8186e-06 -1.61456e-24)
(0.00112575 -2.21334e-06 1.28312e-24)
(0.00112346 -2.58696e-06 2.14635e-24)
(0.0011208 -2.94133e-06 1.43051e-24)
(0.00111777 -3.27797e-06 -1.90387e-24)
(0.00111441 -3.59822e-06 5.69046e-25)
(0.00111072 -3.90323e-06 3.63687e-25)
(0.00110673 -4.19416e-06 -3.7551e-25)
(0.00110245 -4.47198e-06 1.90822e-25)
(0.00109789 -4.7376e-06 4.54671e-26)
(0.00109306 -4.99123e-06 -3.67377e-26)
(0.000908913 -6.46051e-08 -5.65544e-25)
(0.000908823 -3.80231e-07 -7.41769e-25)
(0.000908297 -6.78268e-07 -9.88434e-26)
(0.000907352 -9.59484e-07 1.80873e-24)
(0.000906024 -1.22374e-06 -1.21696e-24)
(0.000904341 -1.47362e-06 -1.87996e-25)
(0.000902327 -1.71049e-06 1.81007e-24)
(0.0009 -1.9354e-06 -4.6533e-26)
(0.000897379 -2.14922e-06 -3.66235e-25)
(0.000894479 -2.35272e-06 -1.01348e-24)
(0.000891314 -2.54656e-06 2.10221e-25)
(0.000887898 -2.73144e-06 5.0972e-25)
(0.000884241 -2.90799e-06 -5.91797e-26)
(0.000880355 -3.07674e-06 2.33764e-26)
(0.000876247 -3.23788e-06 -2.8488e-26)
(0.000706274 -7.98108e-08 -1.07949e-25)
(0.000706087 -2.66221e-07 8.72917e-27)
(0.000705564 -4.41782e-07 7.68934e-25)
(0.000704715 -6.07368e-07 4.77033e-25)
(0.000703567 -7.63062e-07 -3.7049e-25)
(0.000702141 -9.10594e-07 -8.14835e-25)
(0.000700453 -1.05064e-06 3.01071e-25)
(0.000698519 -1.18377e-06 -1.19371e-24)
(0.000696351 -1.31042e-06 9.06104e-25)
(0.000693962 -1.43101e-06 3.72301e-25)
(0.000691362 -1.54588e-06 -6.91916e-26)
(0.000688563 -1.65545e-06 -3.165e-25)
(0.000685571 -1.76007e-06 2.9507e-26)
(0.000682398 -1.86003e-06 8.45199e-27)
(0.000679048 -1.95542e-06 -1.29897e-26)
(0.000521669 -6.35411e-08 -1.74632e-25)
(0.000521454 -1.63895e-07 7.49683e-27)
(0.000520992 -2.57227e-07 5.45191e-25)
(0.000520288 -3.45008e-07 -3.38997e-25)
(0.000519364 -4.27548e-07 1.29967e-24)
(0.000518232 -5.0588e-07 -2.32598e-24)
(0.000516904 -5.80302e-07 1.80311e-24)
(0.000515391 -6.5109e-07 -1.41842e-24)
(0.000513703 -7.18453e-07 9.45693e-25)
(0.000511849 -7.82582e-07 -5.44222e-25)
(0.000509836 -8.43652e-07 1.77106e-25)
(0.000507672 -9.01873e-07 2.04785e-26)
(0.000505363 -9.57433e-07 6.71873e-27)
(0.000502918 -1.01047e-06 -1.47631e-27)
(0.00050034 -1.06096e-06 -4.78645e-27)
(0.000354093 -3.81745e-08 2.34767e-25)
(0.000353899 -8.439e-08 2.42499e-25)
(0.000353537 -1.25938e-07 -1.04414e-24)
(0.000353011 -1.64777e-07 7.487e-25)
(0.000352336 -2.01287e-07 -1.33218e-26)
(0.000351518 -2.35961e-07 1.6693e-25)
(0.000350567 -2.68905e-07 -2.19412e-25)
(0.000349489 -3.0023e-07 -4.01735e-25)
(0.000348289 -3.30017e-07 3.81092e-25)
(0.000346975 -3.58343e-07 2.03361e-26)
(0.000345552 -3.85281e-07 -2.24255e-25)
(0.000344025 -4.10922e-07 8.30381e-26)
(0.000342398 -4.35357e-07 2.43556e-26)
(0.000340676 -4.58622e-07 -4.84731e-27)
(0.000338863 -4.80607e-07 2.89371e-27)
(0.000202428 -1.47928e-08 -2.1201e-25)
(0.000202287 -2.75992e-08 6.38308e-25)
(0.000202051 -3.83986e-08 3.57091e-25)
(0.000201722 -4.89306e-08 -6.66028e-25)
(0.000201308 -5.93391e-08 -7.68467e-26)
(0.000200812 -6.9663e-08 -6.37867e-26)
(0.00020024 -7.98337e-08 1.80276e-25)
(0.000199595 -8.98038e-08 -2.92777e-25)
(0.00019888 -9.95315e-08 3.61568e-25)
(0.000198099 -1.08986e-07 -1.78256e-25)
(0.000197255 -1.18144e-07 -8.83621e-26)
(0.00019635 -1.26996e-07 4.45732e-26)
(0.000195388 -1.35549e-07 -1.5507e-26)
(0.000194371 -1.43769e-07 3.43488e-27)
(0.000193301 -1.51491e-07 5.69361e-27)
(6.55e-05 5.40056e-09 -1.18864e-27)
(6.54321e-05 1.68122e-08 9.66737e-26)
(6.53358e-05 2.55361e-08 1.05217e-25)
(6.52107e-05 3.11355e-08 -1.69838e-25)
(6.50598e-05 3.40504e-08 3.26589e-25)
(6.48838e-05 3.47653e-08 -3.55446e-25)
(6.46839e-05 3.36822e-08 2.09978e-26)
(6.44611e-05 3.11476e-08 1.63548e-25)
(6.42163e-05 2.74565e-08 -2.24461e-25)
(6.39504e-05 2.286e-08 -2.77601e-26)
(6.36644e-05 1.75699e-08 1.12827e-25)
(6.33591e-05 1.17678e-08 -4.51673e-26)
(6.30354e-05 5.59725e-09 -4.08003e-27)
(6.26941e-05 -7.97138e-10 1.50626e-27)
(6.23356e-05 -7.21647e-09 4.17455e-28)
(0.00021155 -0.000110086 2.01762e-26)
(0.000242874 -0.000116118 5.55287e-25)
(0.00029443 -0.00011115 -1.65292e-24)
(0.00034887 -0.000103482 2.49099e-24)
(0.000403671 -9.50053e-05 -9.50395e-25)
(0.000459078 -8.66116e-05 -9.46254e-25)
(0.000515215 -7.87088e-05 1.09e-24)
(0.000572249 -7.15482e-05 -2.16489e-24)
(0.000630334 -6.53165e-05 1.53177e-25)
(0.000689576 -6.01692e-05 1.36689e-24)
(0.000750031 -5.62476e-05 -2.56974e-25)
(0.00081169 -5.36868e-05 2.74702e-25)
(0.000874472 -5.26191e-05 -2.82559e-26)
(0.000938203 -5.31719e-05 1.6523e-25)
(0.0010026 -5.54615e-05 -6.08511e-25)
(0.00106724 -5.95831e-05 3.32454e-25)
(0.00113152 -6.55918e-05 -1.00826e-25)
(0.00119462 -7.34808e-05 9.5814e-27)
(0.00125543 -8.31383e-05 2.23594e-25)
(0.00131241 -9.42951e-05 -1.37587e-25)
(0.00136356 -0.000106416 1.42534e-26)
(0.00140597 -0.00011854 -1.16694e-26)
(0.00143363 -0.00012842 1.61834e-26)
(0.00144473 -0.000133779 4.79982e-26)
(0.00144257 -0.000133588 -8.75474e-26)
(0.00143043 -0.000127171 -4.17013e-26)
(0.00141101 -0.000113816 1.03113e-26)
(0.00138654 -9.26987e-05 9.13559e-26)
(0.00135886 -6.2905e-05 9.86375e-26)
(0.00132948 -2.35018e-05 -1.95265e-25)
(0.00129947 2.63561e-05 1.50032e-25)
(0.00126947 8.71673e-05 -1.37191e-25)
(0.00123968 0.000158807 3.79923e-26)
(0.00120972 0.000240383 3.36071e-26)
(0.00117871 0.000330106 -3.31815e-26)
(0.00114535 0.000425212 -1.37033e-25)
(0.0011081 0.000521935 2.61159e-26)
(0.00106533 0.000615524 -6.42701e-26)
(0.0010155 0.000700277 -6.31376e-26)
(0.000957339 0.000769562 2.86463e-25)
(0.000889988 0.000815773 4.23398e-27)
(0.000813223 0.00083001 -1.9544e-25)
(0.000727589 0.000801046 -1.35516e-25)
(0.000637396 0.000713477 3.343e-25)
(0.000582829 0.000535442 2.6595e-26)
(0.000361857 -0.000127418 -6.11366e-25)
(0.000377892 -0.000141647 -9.73727e-25)
(0.00041077 -0.00013896 1.99405e-24)
(0.000452286 -0.000130557 1.01406e-24)
(0.000498402 -0.000120314 -3.61228e-24)
(0.000547616 -0.000109948 3.96631e-24)
(0.000599092 -0.000100159 -1.44989e-24)
(0.000652444 -9.12708e-05 1.16673e-24)
(0.000707502 -8.3471e-05 -1.55964e-24)
(0.000764178 -7.68958e-05 2.00604e-26)
(0.000822401 -7.1662e-05 -8.11604e-25)
(0.000882084 -6.78804e-05 1.61372e-24)
(0.00094309 -6.56609e-05 -8.86522e-25)
(0.00100521 -6.51104e-05 -7.78494e-25)
(0.00106815 -6.63269e-05 -5.0485e-25)
(0.00113145 -6.93884e-05 9.9015e-25)
(0.00119453 -7.43343e-05 -1.11818e-25)
(0.00125655 -8.11427e-05 4.98827e-25)
(0.00131641 -8.96863e-05 6.67233e-26)
(0.00137259 -9.96815e-05 -1.44444e-25)
(0.00142309 -0.000110575 -5.36178e-26)
(0.00146502 -0.000121391 -2.39047e-26)
(0.00149244 -0.00012996 1.00103e-25)
(0.00150349 -0.000134121 8.35199e-26)
(0.00150137 -0.000132888 -1.02134e-25)
(0.00148931 -0.000125595 -3.17667e-25)
(0.00146995 -0.000111552 3.87712e-25)
(0.00144553 -8.99656e-05 -2.34395e-25)
(0.00141793 -5.99496e-05 7.4378e-26)
(0.00138874 -2.05843e-05 -3.34951e-26)
(0.00135917 2.89941e-05 2.52388e-25)
(0.00133005 8.93531e-05 -3.37558e-25)
(0.00130182 0.000160513 1.98405e-25)
(0.00127441 0.000241805 -2.66496e-25)
(0.00124724 0.000331734 3.33856e-25)
(0.00121938 0.000427869 -7.45952e-26)
(0.00118969 0.000526791 -3.67335e-25)
(0.00115697 0.000624054 5.77347e-26)
(0.00112027 0.000714159 3.55308e-25)
(0.00107915 0.000790479 3.20069e-25)
(0.00103402 0.000845043 -7.53206e-25)
(0.000986651 0.000867903 9.66963e-25)
(0.000940463 0.00084569 6.73403e-25)
(0.000899936 0.000759708 -7.29146e-25)
(0.00087187 0.000583532 -6.62805e-25)
(0.000523804 -0.000136263 -7.19523e-27)
(0.000531827 -0.000156207 -1.14062e-24)
(0.000550312 -0.000159235 2.26562e-24)
(0.000578693 -0.000153499 2.06462e-24)
(0.000614412 -0.000143797 -3.40814e-24)
(0.000655552 -0.000132841 6.93248e-26)
(0.000700705 -0.000121955 3.54774e-25)
(0.00074899 -0.00011178 3.92287e-24)
(0.000799877 -0.00010265 -4.71223e-24)
(0.000853032 -9.47649e-05 2.89705e-24)
(0.00090822 -8.82625e-05 8.43572e-25)
(0.00096524 -8.32569e-05 -4.80069e-24)
(0.00102388 -7.98521e-05 1.74109e-24)
(0.00108388 -7.81446e-05 6.81644e-25)
(0.00114489 -7.82204e-05 -1.40023e-24)
(0.00120647 -8.01444e-05 2.25678e-24)
(0.001268 -8.39428e-05 -1.57755e-24)
(0.00132865 -8.95801e-05 -1.77781e-26)
(0.00138732 -9.69138e-05 1.30791e-25)
(0.0014425 -0.000105645 1.29632e-25)
(0.00149221 -0.000115201 2.40683e-26)
(0.00153359 -0.00012459 5.78548e-26)
(0.00156076 -0.000131717 -1.07876e-25)
(0.00157179 -0.000134543 2.92026e-25)
(0.00156977 -0.000132127 -3.89919e-25)
(0.00155787 -0.000123812 2.10971e-25)
(0.00153867 -0.000108929 -3.5526e-25)
(0.0015144 -8.6715e-05 4.72747e-25)
(0.00148698 -5.63214e-05 -3.51009e-25)
(0.00145808 -1.68518e-05 4.19196e-26)
(0.00142902 3.25546e-05 1.09906e-26)
(0.00140088 9.25035e-05 4.89073e-25)
(0.00137432 0.000163123 -1.55637e-25)
(0.00134961 0.000243923 -1.93824e-25)
(0.00132654 0.000333645 4.14004e-25)
(0.00130461 0.000430133 -6.34757e-25)
(0.00128311 0.00053023 4.2816e-25)
(0.00126138 0.000629685 -8.14155e-25)
(0.00123907 0.000723026 1.68948e-24)
(0.00121643 0.000803353 -6.43757e-25)
(0.00119456 0.000861957 -3.04501e-25)
(0.00117549 0.000887644 -8.34903e-25)
(0.00116122 0.000866006 1.0551e-24)
(0.00115047 0.000780394 -6.78928e-25)
(0.00113316 0.000619288 5.3496e-25)
(0.000697793 -0.000142193 -2.66964e-25)
(0.000701634 -0.000164192 -4.869e-25)
(0.000710633 -0.00017253 -2.25807e-24)
(0.000727866 -0.000171111 5.1182e-25)
(0.000753085 -0.000163904 3.69254e-25)
(0.000785118 -0.000153924 1.94872e-24)
(0.000822633 -0.000143034 -4.3011e-24)
(0.000864547 -0.000132292 1.67698e-24)
(0.000910074 -0.000122294 5.70544e-24)
(0.000958657 -0.000113386 -1.55915e-24)
(0.00100989 -0.000105787 -1.45662e-24)
(0.00106343 -9.96536e-05 -2.30402e-25)
(0.00111898 -9.51056e-05 7.4615e-25)
(0.00117622 -9.22454e-05 -1.45887e-24)
(0.00123476 -9.11565e-05 3.42978e-25)
(0.00129411 -9.1897e-05 -1.12994e-25)
(0.00135364 -9.44838e-05 -6.76655e-25)
(0.00141253 -9.88697e-05 2.82215e-25)
(0.00146967 -0.000104898 1.14339e-24)
(0.00152357 -0.000112257 -1.53371e-25)
(0.00157228 -0.000120349 -2.34268e-25)
(0.00161295 -0.000128167 -5.00074e-26)
(0.00163977 -0.0001337 -2.14108e-25)
(0.00165078 -0.000135043 3.3721e-26)
(0.00164893 -0.000131305 -3.32176e-25)
(0.00163727 -0.000121837 6.41394e-25)