/*--------------------------------*- C++ -*----------------------------------*\
| =========                 |                                                 |
| \\      /  F ield         | OpenFOAM: The Open Source CFD Toolbox           |
|  \\    /   O peration     | Version:  2312                                  |
|   \\  /    A nd           | Website:  www.openfoam.com                      |
|    \\/     M anipulation  |                                                 |
\*---------------------------------------------------------------------------*/
FoamFile
{
    version     2.0;
    format      ascii;
    arch        "LSB;label=32;scalar=64";
    class       volVectorField;
    location    "99.5";
    object      U;
}
// * * * * * * * * * * * * * * * * * * * * * * * * * * * * * * * * * * * * * //

dimensions      [0 1 -1 0 0 0 0];

internalField   nonuniform List<vector> 
4800
(
(0.000460987 3.74736e-07 -2.57391e-26)
(0.000451402 3.8664e-07 -1.76926e-25)
(0.000445465 3.75221e-07 2.28208e-25)
(0.000441958 3.46596e-07 9.98205e-26)
(0.000440117 2.96154e-07 1.43834e-24)
(0.000439664 2.464e-07 -3.40075e-24)
(0.000440173 1.96794e-07 3.13242e-24)
(0.000441505 1.19503e-07 -4.47133e-24)
(0.000443726 -2.77904e-08 1.44991e-24)
(0.000446974 -2.65453e-07 4.79926e-24)
(0.000451622 -7.34139e-07 -1.48223e-24)
(0.000458933 -2.06554e-06 -1.32431e-25)
(0.000475964 -7.03094e-06 -1.77155e-24)
(0.00051966 -2.69307e-05 8.31342e-25)
(0.000590521 -8.5677e-05 -6.63683e-25)
(0.00142584 2.00488e-06 -8.16329e-26)
(0.00139731 1.48337e-06 1.01651e-25)
(0.00137966 1.06839e-06 -9.01043e-25)
(0.00136921 7.10589e-07 6.81541e-25)
(0.00136367 3.49445e-07 2.08135e-24)
(0.00136216 -9.30971e-09 -3.26734e-24)
(0.00136335 -3.86552e-07 -8.86081e-25)
(0.00136686 -8.7233e-07 -1.7895e-25)
(0.00137292 -1.63267e-06 7.36187e-24)
(0.00138179 -2.83965e-06 -5.40296e-24)
(0.00139457 -5.12089e-06 5.87979e-25)
(0.00141393 -1.06573e-05 8.82971e-25)
(0.00144838 -2.68113e-05 -1.29859e-24)
(0.00150781 -7.58352e-05 -3.99133e-25)
(0.00157051 -0.000184034 1.70537e-24)
(0.00249349 6.3607e-06 -5.82867e-26)
(0.00244536 4.65073e-06 5.96863e-26)
(0.00241559 3.31954e-06 5.89978e-25)
(0.00239792 2.20154e-06 -1.3905e-24)
(0.00238849 1.1165e-06 1.3402e-24)
(0.00238566 4.77353e-09 1.2028e-24)
(0.00238718 -1.17078e-06 -3.11459e-24)
(0.00239241 -2.68055e-06 -1.89514e-24)
(0.00240168 -4.87426e-06 4.58491e-24)
(0.00241505 -8.24348e-06 1.69057e-24)
(0.00243376 -1.42279e-05 -5.89222e-24)
(0.00245984 -2.66615e-05 -8.6987e-25)
(0.00249723 -5.46498e-05 2.50172e-24)
(0.00254446 -0.000116238 3.92816e-24)
(0.00257739 -0.000216643 -2.02659e-24)
(0.00367092 1.4077e-05 2.15152e-26)
(0.00360283 1.03129e-05 -1.48243e-25)
(0.00356066 7.39335e-06 6.48038e-25)
(0.0035355 4.95554e-06 6.62536e-25)
(0.00352189 2.62088e-06 -6.86131e-25)
(0.00351727 2.31231e-07 -3.68634e-24)
(0.00351868 -2.15525e-06 -2.39979e-24)
(0.00352489 -5.26536e-06 9.32416e-24)
(0.00353629 -9.6295e-06 3.78436e-24)
(0.00355233 -1.59985e-05 -5.50303e-24)
(0.00357373 -2.64299e-05 -2.19317e-24)
(0.00360081 -4.52605e-05 -1.65233e-24)
(0.00363285 -8.0051e-05 5.55752e-26)
(0.00366285 -0.000139893 1.21266e-24)
(0.00367372 -0.000218781 5.88956e-27)
(0.00496318 2.58351e-05 -3.94783e-26)
(0.00487539 1.895e-05 -2.38093e-25)
(0.00482082 1.36259e-05 -1.40107e-25)
(0.004788 9.20419e-06 4.02229e-25)
(0.00476995 5.03772e-06 -1.08532e-24)
(0.00476291 9.03851e-07 2.69583e-24)
(0.00476362 -3.35905e-06 -4.80083e-25)
(0.00476994 -8.45384e-06 1.58274e-24)
(0.00478204 -1.54714e-05 -8.88284e-24)
(0.00479866 -2.51371e-05 1.6704e-23)
(0.0048196 -3.96155e-05 -1.60676e-23)
(0.00484358 -6.24491e-05 8.41105e-24)
(0.00486735 -9.81609e-05 -7.74173e-24)
(0.00488363 -0.000149364 7.25627e-24)
(0.00488291 -0.000208221 -2.87798e-24)
(0.00637185 4.24442e-05 5.22363e-26)
(0.00626575 3.1202e-05 1.84126e-25)
(0.00619938 2.25249e-05 -9.5994e-25)
(0.00615904 1.53547e-05 -5.74109e-25)
(0.00613638 8.72458e-06 1.58506e-24)
(0.00612646 2.2594e-06 5.48439e-25)
(0.00612557 -4.30874e-06 -4.22396e-24)
(0.0061312 -1.18886e-05 9.98481e-24)
(0.0061425 -2.17131e-05 -1.29096e-23)
(0.00615777 -3.44978e-05 3.1147e-24)
(0.00617589 -5.19997e-05 9.23732e-24)
(0.00619468 -7.63751e-05 -1.27213e-23)
(0.00621049 -0.000109361 6.36336e-24)
(0.00621795 -0.000150307 6.40622e-24)
(0.0062129 -0.000193069 -4.86252e-24)
(0.00789284 6.45763e-05 4.33387e-26)
(0.00777176 4.76632e-05 -2.53777e-25)
(0.00769531 3.46029e-05 8.91533e-25)
(0.00764825 2.38491e-05 -1.21954e-24)
(0.00762118 1.40927e-05 -4.00019e-24)
(0.00760819 4.73117e-06 6.81032e-24)
(0.00760503 -4.57176e-06 -4.04798e-24)
(0.00760908 -1.49938e-05 1.35518e-23)
(0.00761835 -2.75342e-05 -9.23129e-24)
(0.00763086 -4.29236e-05 -4.2459e-24)
(0.00764487 -6.22443e-05 -8.2002e-24)
(0.00765801 -8.6355e-05 7.56406e-24)
(0.00766738 -0.000115226 2.10573e-24)
(0.00766977 -0.000147129 1.76622e-24)
(0.00766397 -0.000178083 -1.55123e-24)
(0.00951402 9.2377e-05 -6.27575e-26)
(0.00938425 6.86079e-05 8.41302e-25)
(0.00930123 5.01748e-05 -1.93204e-24)
(0.00924939 3.50133e-05 -1.50631e-24)
(0.00921889 2.14862e-05 6.23248e-25)
(0.00920316 8.73845e-06 1.13789e-24)
(0.00919764 -3.73959e-06 3.87801e-24)
(0.0091994 -1.70562e-05 -1.03747e-23)
(0.00920595 -3.21256e-05 -5.35275e-24)
(0.009215 -4.94671e-05 1.50417e-23)
(0.00922462 -6.95417e-05 -4.54526e-24)
(0.00923272 -9.23455e-05 1.55223e-23)
(0.0092374 -0.000117093 -8.14592e-24)
(0.00923696 -0.000142118 -2.55067e-24)
(0.00923161 -0.000165089 1.50283e-24)
(0.0112139 0.000124916 -8.33539e-27)
(0.0110854 9.35899e-05 4.66173e-25)
(0.0110018 6.90576e-05 -6.60586e-25)
(0.0109487 4.88245e-05 1.52389e-24)
(0.0109169 3.09962e-05 -8.92511e-24)
(0.0108997 1.44896e-05 9.37564e-24)
(0.0108924 -1.3847e-06 -1.43456e-23)
(0.010892 -1.7604e-05 8.89344e-24)
(0.0108958 -3.49e-05 6.47515e-24)
(0.0109015 -5.35783e-05 1.37316e-23)
(0.0109073 -7.36751e-05 -1.78876e-23)
(0.0109115 -9.47916e-05 -3.20813e-24)
(0.0109131 -0.000116047 1.56264e-24)
(0.0109112 -0.00013624 1.05471e-23)
(0.0109066 -0.000154105 -4.26048e-24)
(0.0129643 0.000159579 4.56315e-26)
(0.0128498 0.000120928 -1.96711e-25)
(0.0127738 9.01419e-05 8.60705e-25)
(0.012725 6.45519e-05 -2.95875e-24)
(0.0126954 4.21566e-05 4.42185e-24)
(0.0126789 2.17228e-05 -5.58973e-24)
(0.0126715 2.44271e-06 9.21246e-24)
(0.0126699 -1.65241e-05 1.50223e-24)
(0.0126718 -3.57138e-05 -1.24036e-23)
(0.0126751 -5.52692e-05 1.73679e-23)
(0.0126782 -7.50334e-05 -1.90525e-23)
(0.0126801 -9.45545e-05 -5.45236e-24)
(0.0126801 -0.000113156 9.72407e-24)
(0.0126778 -0.000130124 2.83657e-24)
(0.0126741 -0.000144842 -1.23121e-24)
(0.0147402 0.000191995 1.78087e-25)
(0.0146516 0.000147422 -1.5215e-24)
(0.0145918 0.00011105 -2.36804e-24)
(0.0145532 8.04108e-05 5.66404e-24)
(0.01453 5.36125e-05 2.42019e-24)
(0.0145175 2.94052e-05 -1.51714e-23)
(0.0145121 6.95205e-06 4.76822e-24)
(0.0145111 -1.4441e-05 3.3719e-24)
(0.0145127 -3.51671e-05 -1.38325e-23)
(0.0145151 -5.52959e-05 1.45715e-23)
(0.0145172 -7.46581e-05 -1.12455e-23)
(0.0145183 -9.29263e-05 2.90388e-23)
(0.0145181 -0.000109699 -1.37937e-23)
(0.0145163 -0.000124638 8.04798e-24)
(0.0145139 -0.000137507 -2.17936e-24)
(0.016536 0.000217597 -5.81444e-26)
(0.016478 0.00016915 1.00887e-24)
(0.0164391 0.000128524 -1.98569e-24)
(0.0164147 9.37236e-05 -9.65457e-25)
(0.0164011 6.31549e-05 1.08433e-23)
(0.016395 3.56919e-05 -1.70011e-24)
(0.0163937 1.05571e-05 -1.87659e-23)
(0.0163952 -1.28012e-05 2.15906e-23)
(0.0163981 -3.46882e-05 -4.90637e-24)
(0.0164013 -5.51866e-05 -1.63822e-23)
(0.016404 -7.42186e-05 1.72942e-23)
(0.0164057 -9.16353e-05 9.09001e-24)
(0.0164065 -0.000107275 -7.82987e-24)
(0.0164061 -0.000121049 -1.32278e-23)
(0.0164054 -0.000132936 1.10029e-24)
(0.0183743 0.000234912 -1.22915e-26)
(0.0183407 0.000183979 -1.08732e-24)
(0.0183196 0.000140297 5.27134e-24)
(0.0183083 0.000102325 2.75284e-25)
(0.0183039 6.88e-05 2.85524e-24)
(0.0183042 3.87763e-05 -1.04931e-23)
(0.0183074 1.15786e-05 8.74513e-24)
(0.018312 -1.32539e-05 1.85785e-24)
(0.018317 -3.59716e-05 1.74062e-23)
(0.0183218 -5.67158e-05 -2.71538e-23)
(0.0183259 -7.55408e-05 -1.20731e-23)
(0.018329 -9.24658e-05 -7.80255e-24)
(0.0183314 -0.000107505 1.48205e-23)
(0.0183328 -0.000120722 -4.10812e-25)
(0.018334 -0.00013221 1.41029e-24)
(0.020285 0.000247131 -2.5355e-26)
(0.0202638 0.000193796 1.037e-24)
(0.0202524 0.000147427 -1.51321e-24)
(0.0202482 0.000106772 -6.2881e-28)
(0.020249 7.07926e-05 2.09664e-24)
(0.0202528 3.86922e-05 5.25867e-24)
(0.0202584 9.88967e-06 -2.03367e-23)
(0.0202646 -1.61054e-05 1.83174e-24)
(0.0202709 -3.95111e-05 1.02236e-23)
(0.0202766 -6.05371e-05 -4.57443e-24)
(0.0202817 -7.93648e-05 1.25423e-23)
(0.0202859 -9.61493e-05 8.61789e-24)
(0.0202895 -0.000111025 -1.5685e-23)
(0.0202922 -0.000124142 1.05895e-23)
(0.0202949 -0.000135657 -8.78711e-24)
(0.0222617 0.00025835 -7.1838e-25)
(0.0222456 0.000202485 6.39724e-25)
(0.0222374 0.000153435 1.62405e-24)
(0.0222351 0.000110217 -9.19957e-24)
(0.0222366 7.19663e-05 8.16449e-24)
(0.0222405 3.79698e-05 -6.00392e-24)
(0.0222457 7.65058e-06 4.32217e-24)
(0.0222514 -1.94458e-05 -3.02125e-23)
(0.0222571 -4.36116e-05 4.35982e-23)
(0.0222625 -6.51367e-05 -2.5423e-23)
(0.0222674 -8.42979e-05 2.26495e-23)
(0.0222715 -0.000101344 1.86816e-23)
(0.0222753 -0.000116486 -3.26103e-23)
(0.0222784 -0.000129925 1.05587e-23)
(0.0222816 -0.000141847 -4.4082e-25)
(0.0242383 0.000268867 -2.57216e-26)
(0.0242275 0.00021127 5.2821e-25)
(0.024222 0.000160101 -6.22468e-25)
(0.0242205 0.000114741 -2.37022e-25)
(0.0242218 7.45458e-05 3.04901e-24)
(0.0242247 3.89016e-05 -5.32013e-24)
(0.0242286 7.24534e-06 5.02669e-24)
(0.0242329 -2.09307e-05 -1.60151e-23)
(0.0242374 -4.59832e-05 3.64723e-23)
(0.0242416 -6.82506e-05 -4.66641e-23)
(0.0242455 -8.80681e-05 3.81655e-23)
(0.0242489 -0.000105739 -1.28731e-23)
(0.0242521 -0.000121522 6.56955e-25)
(0.0242548 -0.000135641 2.90785e-24)
(0.0242577 -0.000148301 -5.59487e-24)
(0.026109 0.000275947 -2.18689e-24)
(0.0261055 0.000218036 4.90184e-24)
(0.0261045 0.000165937 -2.78972e-24)
(0.0261054 0.000119381 -4.7263e-25)
(0.0261077 7.79175e-05 3.5075e-24)
(0.0261108 4.10801e-05 -3.88264e-24)
(0.0261142 8.41687e-06 -4.0389e-24)
(0.0261177 -2.06482e-05 -1.00773e-23)
(0.0261214 -4.65115e-05 4.87446e-24)
(0.0261249 -6.95642e-05 2.47056e-23)
(0.0261281 -9.01698e-05 -1.31212e-23)
(0.0261308 -0.000108646 7.8953e-24)
(0.0261335 -0.000125259 -3.24341e-24)
(0.0261357 -0.000140245 -9.65375e-24)
(0.0261381 -0.000153812 4.94194e-24)
(0.0277494 0.000277378 7.42545e-25)
(0.0277533 0.000220575 -1.4114e-24)
(0.0277572 0.000168851 -2.27766e-24)
(0.0277612 0.000122223 4.82042e-24)
(0.0277654 8.04571e-05 -1.92781e-24)
(0.0277695 4.30949e-05 2.19153e-24)
(0.0277735 9.71346e-06 -2.7968e-24)
(0.0277772 -2.00108e-05 -2.76202e-24)
(0.0277809 -4.65341e-05 2.33218e-24)
(0.0277842 -7.03189e-05 -3.34535e-24)
(0.0277873 -9.17414e-05 7.69941e-24)
(0.0277899 -0.000111099 4.15188e-24)
(0.0277924 -0.000128642 -1.54037e-23)
(0.0277946 -0.000144594 1.07575e-23)
(0.0277968 -0.000159155 -2.21673e-24)
(0.0290066 0.000272687 2.27548e-24)
(0.0290167 0.000218262 4.90739e-24)
(0.029025 0.000168172 -1.0467e-23)
(0.0290319 0.000122596 -3.78644e-24)
(0.0290381 8.14739e-05 7.33325e-24)
(0.0290433 4.45092e-05 2.47146e-24)
(0.029048 1.11273e-05 -1.22145e-24)
(0.0290525 -1.88641e-05 -2.37839e-24)
(0.0290567 -4.58763e-05 2.45471e-24)
(0.0290605 -7.03484e-05 -6.74198e-24)
(0.0290639 -9.26207e-05 4.78941e-24)
(0.0290669 -0.00011295 -3.92768e-25)
(0.0290698 -0.000131556 -4.0991e-25)
(0.0290723 -0.000148638 5.83754e-25)
(0.0290747 -0.000164375 -2.78956e-25)
(0.0296717 0.00025813 -6.18601e-24)
(0.0296875 0.000207429 -1.562e-23)
(0.0297003 0.000160319 5.23046e-24)
(0.0297108 0.000117057 3.35571e-23)
(0.0297196 7.7621e-05 -1.01595e-23)
(0.0297267 4.19572e-05 -6.8374e-24)
(0.0297328 9.71815e-06 4.49254e-24)
(0.029738 -1.96145e-05 1.18469e-23)
(0.0297422 -4.63967e-05 -2.15433e-23)
(0.0297454 -7.09375e-05 7.99657e-24)
(0.0297478 -9.34794e-05 -3.08622e-25)
(0.0297496 -0.000114225 1.94981e-24)
(0.029751 -0.000133359 1.81989e-25)
(0.0297519 -0.000151061 3.22423e-25)
(0.0297526 -0.000167484 -3.67248e-25)
(0.029512 0.000238484 1.01381e-23)
(0.029532 0.000192047 -2.4314e-23)
(0.0295485 0.00014838 3.11141e-24)
(0.029562 0.000107893 4.36931e-23)
(0.0295733 7.074e-05 -4.54257e-23)
(0.0295831 3.65993e-05 1.89736e-23)
(0.0295912 5.33191e-06 2.14054e-23)
(0.0295976 -2.31253e-05 -5.05166e-23)
(0.0296027 -4.91947e-05 -1.60888e-24)
(0.0296068 -7.32481e-05 1.93083e-23)
(0.0296101 -9.54896e-05 6.37749e-24)
(0.0296127 -0.00011608 -5.02226e-24)
(0.0296146 -0.000135175 4.50513e-24)
(0.0296161 -0.000152936 -1.86524e-24)
(0.029617 -0.000169494 6.69434e-25)
(0.0286083 0.000213233 6.46057e-24)
(0.0286302 0.000171695 -1.40735e-23)
(0.0286472 0.000132401 -1.13564e-23)
(0.0286604 9.57344e-05 5.32745e-23)
(0.0286705 6.1733e-05 -5.20327e-23)
(0.0286781 3.02192e-05 4.50887e-24)
(0.0286842 1.16769e-06 9.82958e-24)
(0.0286893 -2.55544e-05 6.72131e-24)
(0.0286926 -5.03715e-05 8.15666e-24)
(0.0286945 -7.34776e-05 -4.52508e-23)
(0.0286955 -9.49796e-05 2.83639e-23)
(0.0286958 -0.000115012 -9.47779e-26)
(0.0286954 -0.000133714 1.83242e-23)
(0.0286945 -0.000151211 -8.59705e-24)
(0.0286929 -0.000167591 -2.07775e-24)
(0.0270835 0.000184513 1.63521e-23)
(0.0271091 0.000148185 -2.96793e-23)
(0.02713 0.000113763 5.87874e-24)
(0.0271467 8.14392e-05 -1.73438e-23)
(0.0271602 5.12575e-05 -2.53059e-23)
(0.0271711 2.32988e-05 8.13198e-23)
(0.0271797 -2.71117e-06 -3.36343e-23)
(0.0271862 -2.73548e-05 1.0619e-23)
(0.0271907 -5.05795e-05 -6.37585e-24)
(0.0271935 -7.23057e-05 -1.99997e-23)
(0.0271951 -9.2601e-05 3.96788e-23)
(0.0271956 -0.000111607 -2.48759e-23)
(0.027195 -0.000129439 2.84177e-24)
(0.0271935 -0.000146178 4.98434e-24)
(0.0271911 -0.000161871 -6.54248e-25)
(0.0252424 0.000157637 6.35945e-24)
(0.02527 0.00012595 -3.41763e-23)
(0.0252925 9.57553e-05 6.14753e-23)
(0.0253108 6.72484e-05 -4.88332e-23)
(0.0253255 4.04158e-05 5.27398e-23)
(0.0253371 1.51113e-05 -1.63952e-23)
(0.0253459 -8.79575e-06 -1.2275e-23)
(0.0253524 -3.14147e-05 -1.55222e-23)
(0.0253567 -5.27045e-05 3.13818e-23)
(0.0253593 -7.2666e-05 1.78398e-24)
(0.0253603 -9.1389e-05 -3.3631e-23)
(0.0253599 -0.000108983 -5.73321e-24)
(0.0253581 -0.00012552 9.9344e-24)
(0.0253552 -0.000141044 -2.51041e-24)
(0.025351 -0.000155586 6.13684e-25)
(0.0232262 0.000131018 8.50936e-25)
(0.0232547 0.000103652 -1.29592e-23)
(0.023278 7.74388e-05 -8.20446e-24)
(0.0232966 5.24833e-05 6.40842e-23)
(0.0233113 2.87537e-05 -6.51111e-23)
(0.0233226 6.27947e-06 1.95577e-23)
(0.0233309 -1.49927e-05 3.56024e-24)
(0.0233366 -3.50873e-05 -2.02037e-24)
(0.0233399 -5.40298e-05 -1.06343e-23)
(0.0233412 -7.18764e-05 4.87328e-23)
(0.0233405 -8.86862e-05 -3.98865e-23)
(0.0233381 -0.000104509 -2.49414e-24)
(0.023334 -0.000119377 4.06627e-24)
(0.0233285 -0.000133319 4.58689e-24)
(0.0233216 -0.000146353 -3.6976e-24)
(0.0211352 0.000106091 1.26928e-24)
(0.0211633 8.28334e-05 1.21238e-23)
(0.0211859 6.04352e-05 -1.38282e-23)
(0.0212036 3.90026e-05 -1.04185e-23)
(0.0212172 1.86165e-05 6.90734e-23)
(0.0212272 -7.57481e-07 -5.28002e-23)
(0.0212339 -1.91626e-05 -8.72569e-25)
(0.0212377 -3.65959e-05 -1.24474e-23)
(0.021239 -5.30971e-05 -1.41768e-24)
(0.0212378 -6.86979e-05 1.65581e-24)
(0.0212345 -8.34115e-05 -9.12085e-24)
(0.0212291 -9.72548e-05 6.35563e-24)
(0.0212219 -0.000110245 2.05876e-24)
(0.021213 -0.000122401 2.22804e-24)
(0.0212024 -0.000133729 3.6332e-24)
(0.0190371 8.41172e-05 9.04636e-24)
(0.0190632 6.47575e-05 -1.40397e-23)
(0.0190839 4.60501e-05 -1.22203e-23)
(0.0190997 2.81284e-05 3.75004e-23)
(0.0191112 1.10145e-05 -1.33859e-23)
(0.0191189 -5.33811e-06 -2.07041e-23)
(0.0191233 -2.09129e-05 7.04181e-24)
(0.0191245 -3.57158e-05 1.79094e-23)
(0.019123 -4.97586e-05 -3.02328e-23)
(0.0191188 -6.30418e-05 3.15108e-23)
(0.0191123 -7.55646e-05 -1.79798e-23)
(0.0191036 -8.73353e-05 8.41751e-24)
(0.0190928 -9.8362e-05 -1.28076e-23)
(0.0190802 -0.000108651 1.35704e-23)
(0.0190657 -0.000118202 -3.6537e-24)
(0.0169779 6.56853e-05 -1.75334e-24)
(0.0170013 4.99373e-05 -6.37866e-24)
(0.0170194 3.46836e-05 -2.11997e-23)
(0.0170326 2.00211e-05 5.93583e-23)
(0.0170416 5.93266e-06 -1.00826e-23)
(0.0170468 -7.55686e-06 -1.76945e-23)
(0.0170485 -2.04281e-05 6.86156e-24)
(0.0170471 -3.26862e-05 -9.8204e-24)
(0.0170427 -4.43257e-05 -2.3707e-23)
(0.0170356 -5.53387e-05 2.26641e-23)
(0.0170261 -6.57211e-05 1.0942e-24)
(0.0170142 -7.5473e-05 -9.40307e-24)
(0.0170002 -8.45921e-05 1.06356e-23)
(0.0169841 -9.3077e-05 8.82328e-25)
(0.0169662 -0.000100922 -1.07572e-24)
(0.0149904 5.07313e-05 6.73293e-24)
(0.0150109 3.82078e-05 1.05036e-23)
(0.0150263 2.60438e-05 -9.24464e-24)
(0.015037 1.43142e-05 -2.21132e-23)
(0.0150436 3.00171e-06 3.09277e-23)
(0.0150465 -7.86224e-06 -3.51422e-23)
(0.0150459 -1.8251e-05 -2.29062e-24)
(0.0150421 -2.81604e-05 1.43001e-23)
(0.0150354 -3.75798e-05 5.32184e-24)
(0.015026 -4.64985e-05 -1.25808e-23)
(0.015014 -5.49074e-05 -1.09463e-24)
(0.0149997 -6.27996e-05 2.91419e-23)
(0.0149832 -7.01674e-05 -1.12888e-23)
(0.0149646 -7.70063e-05 -3.30704e-24)
(0.0149441 -8.33093e-05 -2.44634e-25)
(0.0130976 3.87991e-05 -6.9774e-24)
(0.0131153 2.90691e-05 9.04109e-24)
(0.0131283 1.96002e-05 1.14674e-24)
(0.0131369 1.04357e-05 2.02969e-23)
(0.0131415 1.57468e-06 -1.6156e-23)
(0.0131426 -6.9678e-06 1.76219e-24)
(0.0131403 -1.51543e-05 -1.53778e-24)
(0.0131348 -2.29771e-05 -5.7298e-24)
(0.0131265 -3.0423e-05 5.88313e-24)
(0.0131156 -3.74785e-05 -1.91268e-23)
(0.0131021 -4.41316e-05 6.22084e-25)
(0.0130862 -5.03727e-05 4.59326e-24)
(0.0130682 -5.61929e-05 3.25004e-24)
(0.0130482 -6.15864e-05 1.44433e-24)
(0.0130263 -6.65456e-05 6.58223e-25)
(0.0113139 2.93364e-05 5.15624e-24)
(0.0113292 2.19692e-05 -4.03811e-24)
(0.0113402 1.47875e-05 -1.91188e-23)
(0.0113472 7.80135e-06 1.79858e-23)
(0.0113504 1.0389e-06 2.70472e-23)
(0.0113503 -5.50688e-06 -6.00216e-24)
(0.0113469 -1.17967e-05 -1.42479e-23)
(0.0113406 -1.78187e-05 -2.2108e-23)
(0.0113315 -2.35578e-05 1.70931e-23)
(0.0113198 -2.90006e-05 1.28403e-24)
(0.0113057 -3.41352e-05 -4.36882e-24)
(0.0112894 -3.89519e-05 -1.46942e-24)
(0.0112709 -4.34417e-05 2.95308e-24)
(0.0112504 -4.75989e-05 4.07125e-27)
(0.0112282 -5.14156e-05 -7.44496e-25)
(0.00964723 2.18423e-05 -3.23812e-24)
(0.00966053 1.64232e-05 -2.48919e-24)
(0.00966996 1.11287e-05 2.79739e-24)
(0.00967575 5.95526e-06 -9.96627e-24)
(0.00967812 9.25882e-07 3.30525e-23)
(0.00967733 -3.93617e-06 -4.55334e-23)
(0.00967358 -8.63272e-06 4.63808e-23)
(0.00966705 -1.31385e-05 -2.01238e-23)
(0.0096579 -1.74375e-05 5.13398e-24)
(0.00964629 -2.1519e-05 4.70924e-25)
(0.00963237 -2.53727e-05 -4.09043e-24)
(0.00961632 -2.89895e-05 1.93634e-24)
(0.00959826 -3.23616e-05 -3.83674e-24)
(0.00957837 -3.54833e-05 -6.32479e-25)
(0.00955677 -3.83478e-05 3.45107e-25)
(0.00810049 1.5911e-05 -1.57034e-24)
(0.00811208 1.20555e-05 3.64384e-25)
(0.00812029 8.27965e-06 8.90371e-25)
(0.00812525 4.57207e-06 -4.4927e-24)
(0.00812716 9.5816e-07 -2.28369e-24)
(0.0081262 -2.5329e-06 1.85992e-23)
(0.00812255 -5.92563e-06 -1.10994e-23)
(0.00811635 -9.1863e-06 1.76364e-24)
(0.00810774 -1.23001e-05 -1.67004e-24)
(0.00809685 -1.52605e-05 -2.03441e-24)
(0.00808384 -1.80592e-05 -7.80518e-25)
(0.00806884 -2.06884e-05 4.41598e-24)
(0.00805199 -2.31417e-05 1.59886e-24)
(0.00803344 -2.54138e-05 -3.04491e-24)
(0.00801331 -2.7499e-05 -5.70306e-25)
(0.00667323 1.12332e-05 -5.7004e-25)
(0.00668331 8.5977e-06 -2.12457e-25)
(0.00669052 6.01164e-06 -9.80816e-24)
(0.00669491 3.45946e-06 2.30667e-24)
(0.00669663 9.73032e-07 -7.8722e-24)
(0.00669584 -1.43377e-06 4.82699e-24)
(0.00669264 -3.78728e-06 1.03515e-23)
(0.00668718 -6.0529e-06 8.49156e-24)
(0.00667955 -8.21681e-06 -1.2303e-23)
(0.00666989 -1.0278e-05 3.72775e-24)
(0.00665831 -1.22298e-05 3.62747e-24)
(0.00664494 -1.4066e-05 -5.71886e-24)
(0.0066299 -1.57816e-05 3.08161e-24)
(0.00661332 -1.7372e-05 -4.2868e-25)
(0.00659531 -1.88326e-05 1.06279e-24)
(0.00536273 7.58064e-06 -2.22903e-24)
(0.00537142 5.86834e-06 -3.21584e-24)
(0.00537773 4.18761e-06 -7.67958e-25)
(0.00538167 2.52128e-06 8.13642e-24)
(0.00538335 8.96554e-07 -6.06624e-24)
(0.0053829 -6.71164e-07 -1.41239e-24)
(0.00538038 -2.22121e-06 1.04658e-23)
(0.0053759 -3.71563e-06 2.63677e-25)
(0.00536955 -5.1413e-06 -2.12533e-24)
(0.00536143 -6.50275e-06 -9.20717e-24)
(0.00535164 -7.79467e-06 6.21577e-25)
(0.00534029 -9.01234e-06 7.08857e-24)
(0.00532747 -1.0152e-05 -9.39219e-25)
(0.00531331 -1.121e-05 -1.33226e-24)
(0.00529789 -1.21826e-05 9.29309e-25)
(0.00416478 4.78499e-06 -4.86462e-25)
(0.00417209 3.74641e-06 1.498e-26)
(0.00417751 2.73054e-06 3.85154e-24)
(0.00418102 1.71985e-06 2.78945e-24)
(0.00418268 7.27772e-07 -1.68435e-24)
(0.00418261 -2.15295e-07 -4.71481e-24)
(0.00418085 -1.16211e-06 2.06153e-24)
(0.00417745 -2.08254e-06 -9.05211e-24)
(0.00417251 -2.95625e-06 7.0379e-24)
(0.00416609 -3.79314e-06 4.05777e-24)
(0.00415828 -4.58931e-06 2.88115e-25)
(0.00414915 -5.3412e-06 -4.83742e-24)
(0.0041388 -6.04624e-06 9.97752e-25)
(0.00412732 -6.7016e-06 -8.84229e-25)
(0.00411477 -7.30442e-06 4.76495e-25)
(0.00307413 2.71717e-06 -8.94531e-25)
(0.00308001 2.14509e-06 -7.64426e-27)
(0.00308447 1.59287e-06 3.06572e-24)
(0.00308746 1.04286e-06 -1.92676e-24)
(0.00308903 5.01669e-07 8.5272e-24)
(0.00308928 -9.74454e-09 -1.56684e-23)
(0.00308824 -5.27801e-07 1.33035e-23)
(0.00308589 -1.03652e-06 -1.1674e-23)
(0.00308234 -1.51689e-06 8.79079e-24)
(0.00307763 -1.97784e-06 -5.97189e-24)
(0.00307183 -2.41748e-06 2.10636e-24)
(0.00306499 -2.83299e-06 3.31652e-25)
(0.00305717 -3.22271e-06 6.53088e-25)
(0.00304846 -3.58472e-06 -8.37642e-25)
(0.0030389 -3.91696e-06 1.96417e-25)
(0.00208485 1.28081e-06 1.35579e-24)
(0.00208919 1.00719e-06 1.54723e-24)
(0.00209255 7.51228e-07 -6.55356e-24)
(0.0020949 4.99857e-07 4.89867e-24)
(0.00209625 2.53355e-07 -6.25124e-27)
(0.00209667 2.29738e-08 1.42433e-24)
(0.00209619 -2.14168e-07 -1.64018e-24)
(0.00209477 -4.45949e-07 -3.83211e-24)
(0.0020925 -6.63852e-07 3.91023e-24)
(0.0020894 -8.71098e-07 5.24275e-25)
(0.00208551 -1.06804e-06 -3.58971e-24)
(0.00208087 -1.25431e-06 1.27351e-24)
(0.00207553 -1.4292e-06 8.95737e-25)
(0.00206953 -1.59174e-06 -9.53089e-26)
(0.00206292 -1.73971e-06 -1.31828e-25)
(0.00119055 4.27739e-07 -1.36675e-24)
(0.00119322 3.38766e-07 4.25969e-24)
(0.00119534 2.55541e-07 2.7294e-24)
(0.00119686 1.82077e-07 -4.72676e-24)
(0.00119781 1.0871e-07 -5.63395e-25)
(0.00119821 3.93558e-08 -5.34337e-25)
(0.00119808 -3.30585e-08 1.73321e-24)
(0.00119741 -1.04022e-07 -3.01907e-24)
(0.00119622 -1.72264e-07 4.35877e-24)
(0.00119453 -2.33714e-07 -2.12519e-24)
(0.00119237 -2.89515e-07 -1.55593e-24)
(0.00118976 -3.47126e-07 9.94336e-25)
(0.00118673 -4.06522e-07 -1.40394e-24)
(0.00118329 -4.67563e-07 1.47749e-24)
(0.00117948 -5.25504e-07 -2.8528e-25)
(0.000384596 1.11878e-07 -9.74872e-27)
(0.000385476 1.65218e-07 8.3426e-25)
(0.000386187 2.03995e-07 1.00894e-24)
(0.000386713 2.35861e-07 -1.53376e-24)
(0.000387057 2.54547e-07 3.43188e-24)
(0.000387225 2.61068e-07 -3.70546e-24)
(0.000387222 2.57288e-07 2.64143e-25)
(0.000387043 2.43383e-07 2.33114e-24)
(0.000386694 2.2042e-07 -3.23525e-24)
(0.00038618 1.92533e-07 -6.88673e-25)
(0.000385507 1.60296e-07 2.56692e-24)
(0.000384682 1.18667e-07 -1.16743e-24)
(0.000383711 6.84453e-08 -5.25613e-25)
(0.000382605 1.03424e-08 4.53243e-25)
(0.000381371 -5.18818e-08 -2.35774e-26)
(0.00087307 -0.000212159 6.54691e-26)
(0.00100288 -0.000120188 1.5891e-24)
(0.00122305 -2.66279e-05 -4.44144e-24)
(0.00144973 5.09703e-05 6.19952e-24)
(0.00167014 0.00011455 -2.32135e-24)
(0.00188905 0.000164554 -2.06164e-24)
(0.00210644 0.000203045 2.27666e-24)
(0.00232286 0.000231643 -4.37566e-24)
(0.00253884 0.000251622 2.9686e-25)
(0.00275472 0.000264051 2.72805e-24)
(0.00297081 0.00026987 -5.28253e-25)
(0.00318743 0.000269898 5.84764e-25)
(0.00340505 0.000264837 -4.87536e-26)
(0.00362431 0.000255262 4.09355e-25)
(0.00384611 0.000241618 -1.50866e-24)
(0.00407156 0.000224284 8.39977e-25)
(0.00430229 0.000203603 -2.82232e-25)
(0.00454051 0.000180058 1.59982e-26)
(0.00478933 0.000154029 6.72619e-25)
(0.00505293 0.000125628 -4.20439e-25)
(0.00533589 9.38563e-05 4.79489e-26)
(0.00564189 5.50557e-05 -4.05067e-26)
(0.00594457 5.96651e-06 6.42978e-26)
(0.00620608 -5.25414e-05 2.05791e-25)
(0.00641517 -0.000117802 -3.70074e-25)
(0.00657314 -0.000187301 -1.52189e-25)
(0.00668309 -0.000258992 9.69354e-26)
(0.00674923 -0.000331136 2.01119e-25)
(0.00677484 -0.000401824 -4.15644e-25)
(0.00676226 -0.000468857 9.45764e-25)
(0.00671317 -0.000529665 -2.66884e-24)
(0.00662876 -0.000580687 3.87341e-24)
(0.00651 -0.000617334 -1.69228e-24)
(0.00635797 -0.000633982 -3.56636e-24)
(0.00617401 -0.000624027 3.5517e-24)
(0.00595974 -0.000579851 1.3983e-23)
(0.00571699 -0.000492556 -5.08981e-24)
(0.00544784 -0.000351205 2.01519e-24)
(0.00515477 -0.000141421 5.78625e-25)
(0.00484119 0.000155973 -1.56478e-23)
(0.00451002 0.00056259 -1.7937e-25)
(0.00416448 0.00108934 5.77433e-24)
(0.00378537 0.00169309 1.53436e-24)
(0.00338965 0.00221426 -7.80167e-24)
(0.00316198 0.0022203 -3.64903e-25)
(0.0016568 -0.000290148 -1.88282e-24)
(0.00171237 -0.000233345 -2.48225e-24)
(0.00185132 -0.000143406 5.29399e-24)
(0.00202614 -5.95217e-05 2.24314e-24)
(0.00221384 1.34419e-05 -7.81414e-24)
(0.00240986 7.30553e-05 8.06725e-24)
(0.00261046 0.000120389 -2.85409e-24)
(0.00281392 0.000156954 2.14676e-24)
(0.00301953 0.000184077 -2.84823e-24)
(0.00322692 0.00020292 2.99489e-26)
(0.00343597 0.000214499 -1.54978e-24)
(0.0036467 0.000219691 3.10281e-24)
(0.00385936 0.000219237 -1.76168e-24)
(0.00407442 0.000213747 -1.72002e-24)
(0.00429259 0.000203702 -1.27301e-24)
(0.00451479 0.000189506 2.23181e-24)
(0.00474241 0.00017152 -3.13472e-25)
(0.0049773 0.000150228 1.28279e-24)
(0.00522213 0.000126009 2.03707e-25)
(0.00548045 9.90009e-05 -3.90511e-25)
(0.00575617 6.83332e-05 -1.55369e-25)
(0.00605236 3.0691e-05 -7.95563e-26)
(0.00634357 -1.6717e-05 3.53017e-25)
(0.00659426 -7.27286e-05 3.27183e-25)
(0.00679425 -0.000134676 -3.8793e-25)
(0.00694506 -0.000200168 -1.10242e-24)
(0.00704968 -0.000267289 1.17955e-24)
(0.00711221 -0.000334319 -4.21844e-25)
(0.00713578 -0.000399244 1.03328e-25)
(0.00712276 -0.000459756 4.12811e-25)
(0.00707495 -0.000513186 -4.36126e-24)
(0.00699375 -0.000555909 8.96066e-24)
(0.00688045 -0.00058333 -9.10552e-24)
(0.00673664 -0.000589872 2.07048e-23)
(0.00656435 -0.000569015 -2.81755e-23)
(0.00636617 -0.000513256 7.16233e-24)
(0.00614538 -0.000413876 2.26326e-23)
(0.00590626 -0.000260306 -7.24106e-24)
(0.00565477 -3.89335e-05 -1.61409e-23)
(0.00540027 0.000268162 -8.60473e-24)
(0.00515687 0.000681858 1.95774e-23)
(0.00494844 0.00121431 -1.79682e-23)
(0.00479354 0.00182493 -3.34345e-24)
(0.00474022 0.00234357 1.0623e-23)
(0.00479156 0.00230586 3.14658e-24)
(0.00259176 -0.000298446 -2.1122e-26)
(0.00260106 -0.000282792 -2.90858e-24)
(0.00266356 -0.000224694 5.55115e-24)
(0.00277658 -0.000151356 4.2842e-24)
(0.00291746 -7.94876e-05 -7.13097e-24)
(0.0030776 -1.60844e-05 1.61025e-25)
(0.0032504 3.69229e-05 6.36674e-25)
(0.00343181 7.97304e-05 6.63371e-24)
(0.00361949 0.000113077 -7.85161e-24)
(0.00381203 0.000137866 4.83363e-24)
(0.0040086 0.000155008 1.55352e-24)
(0.00420874 0.00016533 -8.35594e-24)
(0.00441236 0.000169549 3.03389e-24)
(0.00461962 0.000168275 1.29501e-24)
(0.00483096 0.000161997 -2.86475e-24)
(0.00504707 0.000151136 4.7898e-24)
(0.00526903 0.000136057 -3.4714e-24)
(0.0054983 0.000117246 -8.74861e-26)
(0.00573702 9.50713e-05 2.8217e-25)
(0.0059881 6.96992e-05 3.08112e-25)
(0.00625466 4.03849e-05 5.10537e-26)
(0.00653909 4.15507e-06 1.57898e-25)
(0.00681683 -4.13315e-05 -3.44628e-25)
(0.00705481 -9.46305e-05 9.51938e-25)
(0.007244 -0.000153057 -1.28372e-24)
(0.00738611 -0.00021432 6.97805e-25)
(0.00748404 -0.000276639 -7.20498e-25)
(0.00754182 -0.000338309 8.90977e-25)
(0.00756241 -0.000397207 6.95113e-25)
(0.00754827 -0.000450921 1.30725e-24)
(0.0075013 -0.000496687 2.40853e-24)
(0.00742313 -0.00053083 -1.03631e-23)
(0.00731541 -0.000548787 4.17349e-24)
(0.00718028 -0.000545104 1.06059e-23)
(0.00702048 -0.000513475 -2.37252e-23)
(0.00683964 -0.000446747 3.37869e-23)
(0.00664249 -0.000336792 -2.14744e-23)
(0.00643548 -0.000174138 2.64297e-23)
(0.00622772 5.27388e-05 -4.8961e-23)
(0.00603337 0.000357723 1.82908e-23)
(0.00587412 0.000755254 5.94629e-24)
(0.00578398 0.00124914 8.62625e-24)
(0.00579279 0.0017932 -1.07052e-23)
(0.00593702 0.00223076 2.77143e-24)
(0.00611788 0.00219413 -1.65669e-24)
(0.00366228 -0.000282946 -7.80007e-25)
(0.00364625 -0.000292383 -1.14034e-24)
(0.00365913 -0.000265502 -4.76883e-24)
(0.00371275 -0.000214763 1.50517e-24)
(0.00380186 -0.000154058 9.74401e-25)
(0.00391741 -9.45248e-05 3.51586e-24)
(0.00405291 -4.10404e-05 -6.95094e-24)
(0.00420325 4.61289e-06 2.70982e-24)
(0.00436482 4.19845e-05 8.66371e-24)
(0.00453524 7.13018e-05 -2.27732e-24)
(0.00471288 9.31041e-05 -2.17022e-24)
(0.0048967 0.000107995 -3.57162e-25)
(0.00508615 0.000116561 1.24037e-24)
(0.00528101 0.000119339 -2.49721e-24)
(0.00548141 0.000116785 5.5237e-25)
(0.00568769 0.000109301 -2.59506e-25)
(0.0059006 9.724e-05 -1.41909e-24)
(0.00612116 8.10733e-05 4.99021e-25)
(0.00635096 6.11543e-05 2.45795e-24)
(0.00659218 3.76655e-05 -3.07451e-25)
(0.00684708 9.98508e-06 -5.36614e-25)
(0.00711726 -2.45252e-05 -1.27692e-25)
(0.00737909 -6.77822e-05 -6.01431e-25)
(0.00760213 -0.000118084 7.32878e-26)
(0.00777848 -0.000172718 -9.1549e-25)
(0.00791005 -0.000229475 1.82059e-24)
(0.00799966 -0.000286717 -6.98388e-25)
(0.00805127 -0.000342752 9.15069e-25)
(0.00806774 -0.000395354 5.1258e-25)
(0.00805164 -0.000442022 3.79568e-25)
(0.00800495 -0.00047991 -1.64672e-24)
(0.0079295 -0.000505344 -3.63047e-25)
(0.00782739 -0.000513862 -3.97158e-25)
(0.00770125 -0.000500247 -2.6618e-24)
(0.00755459 -0.000458595 4.3796e-24)
(0.00739199 -0.000382386 -9.85061e-24)
(0.0072195 -0.000264528 4.25903e-23)
(0.00704536 -9.73484e-05 -2.2953e-23)
(0.00688084 0.000127489 -1.41139e-24)
(0.00674244 0.000418198 -4.12123e-23)
(0.00665363 0.000780245 3.08391e-23)
(0.00664695 0.00120735 -1.04272e-23)
(0.00674912 0.00165424 2.76238e-24)
(0.00696786 0.00200798 1.27243e-23)