/*--------------------------------*- C++ -*----------------------------------*\
| =========                 |                                                 |
| \\      /  F ield         | OpenFOAM: The Open Source CFD Toolbox           |
|  \\    /   O peration     | Version:  2312                                  |
|   \\  /    A nd           | Website:  www.openfoam.com                      |
|    \\/     M anipulation  |                                                 |
\*---------------------------------------------------------------------------*/
FoamFile
{
    version     2.0;
    format      ascii;
    arch        "LSB;label=32;scalar=64";
    class       volVectorField;
    location    "78.5";
    object      U;
}
// * * * * * * * * * * * * * * * * * * * * * * * * * * * * * * * * * * * * * //

dimensions      [0 1 -1 0 0 0 0];

internalField   nonuniform List<vector> 
4800
(
(0.000484501 4.37658e-07 -3.52136e-26)
(0.000472989 5.02385e-07 -2.4641e-25)
(0.000465064 5.35419e-07 3.16601e-25)
(0.000459678 5.40161e-07 1.4311e-25)
(0.000456175 5.17276e-07 2.09797e-24)
(0.00045417 4.66935e-07 -4.98796e-24)
(0.000453376 4.06013e-07 4.62964e-24)
(0.000453824 3.12287e-07 -6.65251e-24)
(0.00045536 1.79307e-07 2.14928e-24)
(0.000458135 -8.168e-08 7.22103e-24)
(0.000462553 -6.12774e-07 -2.22905e-24)
(0.000469936 -2.03521e-06 -1.95638e-25)
(0.000487406 -7.2238e-06 -2.68194e-24)
(0.000532936 -2.81917e-05 1.22439e-24)
(0.000609321 -9.2789e-05 -9.6814e-25)
(0.00149406 2.32011e-06 -1.11831e-25)
(0.00145897 1.87828e-06 1.39362e-25)
(0.00143469 1.52412e-06 -1.2742e-24)
(0.00141804 1.20237e-06 9.5564e-25)
(0.00140701 8.74512e-07 3.0221e-24)
(0.00140042 5.10155e-07 -4.80645e-24)
(0.00139739 8.63712e-08 -1.33455e-24)
(0.00139791 -4.76487e-07 -2.89809e-25)
(0.00140141 -1.2529e-06 1.09482e-23)
(0.00140849 -2.55543e-06 -8.10136e-24)
(0.00142027 -5.05761e-06 8.8333e-25)
(0.00143953 -1.09541e-05 1.33023e-24)
(0.00147497 -2.78818e-05 -1.94902e-24)
(0.00153746 -7.93902e-05 -5.65682e-25)
(0.00160572 -0.000196325 2.52158e-24)
(0.00260623 7.46734e-06 -7.99059e-26)
(0.00254593 6.00454e-06 8.16748e-26)
(0.00250401 4.86028e-06 8.33473e-25)
(0.00247504 3.8521e-06 -1.98078e-24)
(0.0024556 2.86133e-06 1.93334e-24)
(0.0024436 1.79529e-06 1.79814e-24)
(0.00243751 5.01126e-07 -4.67293e-24)
(0.00243717 -1.22528e-06 -2.81782e-24)
(0.00244146 -3.50674e-06 6.73446e-24)
(0.00245122 -7.19161e-06 2.53728e-24)
(0.00246771 -1.37739e-05 -8.85777e-24)
(0.00249286 -2.71423e-05 -1.30697e-24)
(0.00253085 -5.69208e-05 3.76554e-24)
(0.00258033 -0.000122337 5.88796e-24)
(0.00261638 -0.000231891 -3.03566e-24)
(0.00382753 1.67231e-05 2.94849e-26)
(0.00374078 1.35289e-05 -2.05154e-25)
(0.00368015 1.10346e-05 9.11185e-25)
(0.0036379 8.85082e-06 9.62901e-25)
(0.00360915 6.7288e-06 -9.69065e-25)
(0.00359083 4.48004e-06 -5.50109e-24)
(0.00358074 1.78625e-06 -3.69506e-24)
(0.0035782 -1.71591e-06 1.37323e-23)
(0.00358184 -6.19697e-06 5.55764e-24)
(0.00359196 -1.31829e-05 -8.17153e-24)
(0.00360935 -2.47563e-05 -3.29e-24)
(0.00363393 -4.52375e-05 -2.48628e-24)
(0.00366501 -8.27471e-05 8.10994e-26)
(0.00369531 -0.000147346 1.82821e-24)
(0.00370641 -0.000234451 8.91753e-27)
(0.00516271 3.10176e-05 -5.40249e-26)
(0.00504917 2.52108e-05 -3.30439e-25)
(0.00496924 2.06761e-05 -2.05816e-25)
(0.00491301 1.67309e-05 5.63645e-25)
(0.00487416 1.29448e-05 -1.57739e-24)
(0.00484861 9.00087e-06 3.92936e-24)
(0.00483348 4.40616e-06 -6.97859e-25)
(0.00482724 -1.25691e-06 2.38424e-24)
(0.00482859 -8.70718e-06 -1.32076e-23)
(0.00483663 -1.92314e-05 2.49245e-23)
(0.00485116 -3.53642e-05 -2.41258e-23)
(0.00487038 -6.04948e-05 1.26713e-23)
(0.00489088 -9.95836e-05 -1.17153e-23)
(0.0049048 -0.000155765 1.1039e-23)
(0.00490156 -0.000221622 -4.40187e-24)
(0.00661315 5.1445e-05 7.13232e-26)
(0.00647405 4.20437e-05 2.55534e-25)
(0.00637519 3.46848e-05 -1.3437e-24)
(0.00630487 2.8318e-05 -8.38002e-25)
(0.00625547 2.22862e-05 2.26562e-24)
(0.00622199 1.6117e-05 8.02895e-25)
(0.00620085 9.16456e-06 -6.25166e-24)
(0.00618971 8.41403e-07 1.48604e-23)
(0.00618679 -9.59281e-06 -1.92323e-23)
(0.00619057 -2.36491e-05 4.62527e-24)
(0.00619947 -4.31709e-05 1.38962e-23)
(0.0062108 -7.02938e-05 -1.92364e-23)
(0.00622056 -0.000106967 9.62411e-24)
(0.00622284 -0.000152707 9.8583e-24)
(0.00621265 -0.000201338 -7.50702e-24)
(0.00817444 7.89292e-05 5.90498e-26)
(0.00801372 6.49786e-05 -3.49257e-25)
(0.00789798 5.39894e-05 1.24647e-24)
(0.00781451 4.4511e-05 -1.72334e-24)
(0.00775486 3.56363e-05 -5.79398e-24)
(0.00771322 2.67242e-05 9.87194e-24)
(0.00768542 1.70201e-05 -5.94729e-24)
(0.00766845 5.80329e-06 2.01019e-23)
(0.0076599 -7.65203e-06 -1.36818e-23)
(0.00765766 -2.45757e-05 -6.34878e-24)
(0.00765939 -4.61732e-05 -1.24043e-23)
(0.00766216 -7.32532e-05 1.14128e-23)
(0.00766261 -0.000105823 3.20291e-24)
(0.00765701 -0.000142123 2.74398e-24)
(0.00764364 -0.000177993 -2.41534e-24)
(0.00983368 0.000113733 -8.5555e-26)
(0.00965919 9.45555e-05 1.1582e-24)
(0.0095312 7.92602e-05 -2.68804e-24)
(0.00943732 6.60522e-05 -2.17345e-24)
(0.00936891 5.37971e-05 8.39918e-25)
(0.0093198 4.17004e-05 1.61397e-24)
(0.00928542 2.89518e-05 5.68836e-24)
(0.00926226 1.4796e-05 -1.53878e-23)
(0.00924745 -1.42247e-06 -8.10532e-24)
(0.00923844 -2.04866e-05 2.24823e-23)
(0.00923268 -4.29481e-05 -6.92094e-24)
(0.00922748 -6.87291e-05 2.36761e-23)
(0.00922043 -9.69745e-05 -1.24579e-23)
(0.00920941 -0.000125899 -3.97863e-24)
(0.00919423 -0.00015298 2.35812e-24)
(0.0115677 0.00015479 -1.14657e-26)
(0.011392 0.000130381 6.42853e-25)
(0.0112597 0.000110495 -9.14003e-25)
(0.0111606 9.31914e-05 2.16742e-24)
(0.0110867 7.7208e-05 -1.28532e-23)
(0.0110322 6.16586e-05 1.35489e-23)
(0.0109925 4.57406e-05 -2.1138e-23)
(0.0109638 2.87627e-05 1.30336e-23)
(0.0109431 1.0219e-05 9.62086e-24)
(0.0109277 -1.02675e-05 2.07453e-23)
(0.0109152 -3.27258e-05 -2.70832e-23)
(0.0109034 -5.66676e-05 -5.00269e-24)
(0.0108907 -8.10935e-05 2.2967e-24)
(0.0108759 -0.000104664 1.65284e-23)
(0.0108594 -0.000125952 -6.73274e-24)
(0.0133454 0.000199018 6.47479e-26)
(0.0131845 0.000170479 -2.74495e-25)
(0.0130591 0.000146441 1.20693e-24)
(0.0129624 0.000125178 -4.20431e-24)
(0.0128885 0.000105492 6.3442e-24)
(0.0128324 8.65273e-05 -8.1353e-24)
(0.0127899 6.75713e-05 1.355e-23)
(0.0127576 4.80729e-05 2.32415e-24)
(0.0127326 2.77228e-05 -1.8544e-23)
(0.0127123 6.43873e-06 2.63125e-23)
(0.0126948 -1.55288e-05 -2.89993e-23)
(0.0126783 -3.7609e-05 -8.54048e-24)
(0.012662 -5.89902e-05 1.50506e-23)
(0.0126448 -7.88315e-05 4.47778e-24)
(0.0126275 -9.63826e-05 -1.95895e-24)
(0.0151381 0.000241371 2.77209e-25)
(0.0150069 0.000210984 -2.1723e-24)
(0.0148999 0.00018415 -3.36927e-24)
(0.0148145 0.000159763 8.04407e-24)
(0.0147473 0.000136951 3.53596e-24)
(0.0146946 0.000115047 -2.2199e-23)
(0.0146534 9.35264e-05 6.88078e-24)
(0.0146206 7.2034e-05 4.92312e-24)
(0.0145939 5.04478e-05 -2.1014e-23)
(0.0145713 2.88684e-05 2.19267e-23)
(0.0145513 7.60904e-06 -1.75085e-23)
(0.0145325 -1.28509e-05 4.49893e-23)
(0.0145144 -3.19706e-05 -2.16604e-23)
(0.0144964 -4.9301e-05 1.27732e-23)
(0.0144791 -6.44912e-05 -3.49254e-24)
(0.0169371 0.000276799 -1.28018e-25)
(0.0168417 0.000247175 1.51847e-24)
(0.0167601 0.000219458 -2.87637e-24)
(0.0166925 0.000193361 -1.41105e-24)
(0.0166375 0.000168519 1.58543e-23)
(0.016593 0.000144598 -2.36863e-24)
(0.0165569 0.000121335 -2.79229e-23)
(0.0165271 9.8594e-05 3.24488e-23)
(0.016502 7.64058e-05 -7.29986e-24)
(0.01648 5.49435e-05 -2.51321e-23)
(0.0164601 3.44888e-05 2.68049e-23)
(0.0164414 1.53584e-05 1.4497e-23)
(0.0164237 -2.14172e-06 -1.21298e-23)
(0.0164063 -1.78237e-05 -2.11374e-23)
(0.0163901 -3.15654e-05 1.77857e-24)
(0.0187621 0.000303796 2.29277e-26)
(0.0186963 0.000276381 -1.74941e-24)
(0.0186382 0.000249231 7.95463e-24)
(0.0185886 0.000222742 3.79132e-25)
(0.0185473 0.000197051 4.30135e-24)
(0.0185128 0.000172172 -1.56688e-23)
(0.018484 0.000148114 1.32554e-23)
(0.0184594 0.00012493 2.97096e-24)
(0.0184379 0.000102753 2.71014e-23)
(0.0184186 8.17587e-05 -4.19108e-23)
(0.018401 6.21538e-05 -1.89738e-23)
(0.0183842 4.41091e-05 -1.2589e-23)
(0.0183685 2.77618e-05 2.36616e-23)
(0.0183531 1.31453e-05 -6.9019e-25)
(0.0183389 2.60087e-07 2.30671e-24)
(0.0206401 0.000325411 -7.22082e-27)
(0.0205921 0.000300118 1.87883e-24)
(0.0205495 0.000273875 -2.71925e-24)
(0.0205129 0.000247568 1.76275e-26)
(0.0204818 0.000221707 3.2427e-24)
(0.0204555 0.000196577 8.14576e-24)
(0.020433 0.000172385 -3.15831e-23)
(0.0204133 0.000149306 2.71534e-24)
(0.0203958 0.00012751 1.59865e-23)
(0.0203797 0.000107141 -7.34894e-24)
(0.0203649 8.83188e-05 2.0074e-23)
(0.0203507 7.11078e-05 1.4107e-23)
(0.0203374 5.55349e-05 -2.55807e-23)
(0.0203245 4.15516e-05 1.7589e-23)
(0.0203126 2.90988e-05 -1.46271e-23)
(0.0225633 0.00034483 -3.68901e-25)
(0.0225263 0.000321443 -2.20483e-25)
(0.0224932 0.000296083 3.35943e-24)
(0.0224646 0.000270091 -1.59118e-23)
(0.0224402 0.000244298 1.39092e-23)
(0.0224191 0.000219199 -9.79169e-24)
(0.0224008 0.000195128 7.06554e-24)
(0.0223846 0.000172319 -4.9342e-23)
(0.0223699 0.000150936 7.12337e-23)
(0.0223564 0.000131075 -4.19034e-23)
(0.0223439 0.000112786 3.74348e-23)
(0.0223319 9.60617e-05 3.14127e-23)
(0.0223207 8.08646e-05 -5.49086e-23)
(0.0223098 6.71064e-05 1.79029e-23)
(0.0222999 5.46989e-05 -7.54404e-25)
(0.0244728 0.000361648 -1.46587e-26)
(0.0244463 0.000340515 -1.08887e-24)
(0.0244217 0.000316505 1.11542e-24)
(0.0244 0.000291279 -4.45723e-25)
(0.0243811 0.00026593 5.82599e-24)
(0.0243644 0.000241146 -9.87435e-24)
(0.0243497 0.000217374 9.01583e-24)
(0.0243363 0.000194884 -2.82113e-23)
(0.0243242 0.000173832 6.4001e-23)
(0.0243129 0.000154279 -8.17824e-23)
(0.0243024 0.000136231 6.69802e-23)
(0.0242923 0.000119642 -2.26252e-23)
(0.024283 0.000104445 1.18853e-24)
(0.0242738 9.05379e-05 5.24248e-24)
(0.0242655 7.78241e-05 -1.00254e-23)
(0.026278 0.000374706 -1.25358e-24)
(0.0262618 0.000355879 1.25596e-24)
(0.0262457 0.000333623 7.69893e-25)
(0.026231 0.000309733 -2.91372e-24)
(0.0262178 0.000285353 1.02048e-23)
(0.0262058 0.000261285 -1.00553e-23)
(0.026195 0.000238072 -8.46089e-24)
(0.0261851 0.000216021 -2.00996e-23)
(0.0261758 0.000195291 1.05322e-23)
(0.0261671 0.000175929 4.88018e-23)
(0.026159 0.000157929 -2.57134e-23)
(0.0261511 0.000141234 1.53088e-23)
(0.0261437 0.000125773 -6.29099e-24)
(0.0261365 0.000111448 -1.87209e-23)
(0.0261299 9.81672e-05 9.59062e-24)
(0.0278618 0.000381984 3.90923e-25)
(0.0278549 0.000367202 -6.14287e-25)
(0.0278465 0.000346828 1.35088e-24)
(0.0278384 0.000324524 -5.44276e-24)
(0.0278307 0.000301404 -2.09943e-24)
(0.0278235 0.000278317 1.73657e-23)
(0.0278169 0.000255849 -1.31293e-23)
(0.0278105 0.00023433 -7.7013e-24)
(0.0278045 0.000213925 7.20936e-24)
(0.0277987 0.000194687 -8.08569e-24)
(0.0277931 0.000176612 1.8915e-23)
(0.0277877 0.000159652 9.4769e-24)
(0.0277825 0.000143745 -3.54383e-23)
(0.0277774 0.00012881 2.44592e-23)
(0.0277727 0.000114765 -4.98502e-24)
(0.0290627 0.00038418 1.14008e-24)
(0.0290633 0.000371822 1.38286e-24)
(0.0290629 0.000353763 -3.43318e-24)
(0.0290615 0.000333469 1.85936e-24)
(0.0290596 0.000312061 -2.32474e-24)
(0.0290573 0.000290385 -6.72639e-24)
(0.029055 0.000269015 -7.53485e-24)
(0.0290525 0.000248286 1.94496e-23)
(0.02905 0.000228379 1.86876e-23)
(0.0290473 0.000209365 -4.49705e-23)
(0.0290446 0.000191264 2.54407e-23)
(0.0290418 0.000174049 -1.74854e-24)
(0.0290391 0.000157679 -1.42064e-24)
(0.0290363 0.000142096 1.90468e-24)
(0.0290336 0.000127241 -8.75421e-25)
(0.0296598 0.00037725 -3.18239e-24)
(0.0296687 0.000366457 -5.91023e-24)
(0.0296759 0.000351125 4.54434e-24)
(0.0296814 0.000333062 8.52725e-24)
(0.0296855 0.000313588 -2.03684e-24)
(0.0296888 0.000293555 1.20249e-24)
(0.0296915 0.000273498 -1.14728e-24)
(0.0296937 0.00025374 -1.2312e-23)
(0.0296954 0.00023447 2.87383e-23)
(0.0296967 0.000215788 -1.20207e-23)
(0.0296976 0.000197737 5.32317e-24)
(0.0296982 0.000180321 -9.01438e-24)
(0.0296986 0.000163527 -9.54941e-24)
(0.0296988 0.000147324 1.41019e-23)
(0.0296989 0.000131678 -6.08942e-24)
(0.0294555 0.000364506 4.96405e-24)
(0.0294694 0.000355628 -1.12092e-23)
(0.0294812 0.00034231 2.02679e-24)
(0.0294913 0.000326214 1.42933e-23)
(0.0294999 0.000308565 -1.31409e-23)
(0.0295074 0.000290121 3.77828e-24)
(0.0295141 0.000271353 4.51518e-27)
(0.0295201 0.000252554 6.55118e-25)
(0.0295254 0.000233915 3.58305e-24)
(0.02953 0.000215549 -3.8315e-24)
(0.0295342 0.000197525 -3.14042e-24)
(0.0295379 0.000179877 4.33175e-24)
(0.0295411 0.000162616 -4.88247e-24)
(0.0295441 0.000145741 3.01438e-24)
(0.0295468 0.000129243 -1.35124e-24)
(0.0284919 0.000343619 3.0493e-24)
(0.0285151 0.00033575 -6.42585e-24)
(0.0285353 0.000324024 -4.37474e-24)
(0.0285527 0.00030977 2.05193e-23)
(0.0285679 0.00029396 -1.86587e-23)
(0.0285813 0.000277218 2.0845e-24)
(0.028593 0.000259949 3.04416e-24)
(0.0286033 0.000242411 1.48726e-24)
(0.0286124 0.000224781 8.10013e-25)
(0.0286205 0.000207175 -2.6427e-24)
(0.0286275 0.000189675 1.80904e-24)
(0.0286337 0.000172332 8.53914e-25)
(0.0286392 0.000155182 -4.3663e-24)
(0.028644 0.000138241 2.20066e-24)
(0.0286481 0.000121522 9.78799e-25)
(0.0269116 0.000315086 7.57065e-24)
(0.0269387 0.000307875 -1.35225e-23)
(0.0269633 0.000297416 2.74325e-24)
(0.0269854 0.000284745 -6.86119e-24)
(0.0270053 0.000270619 -9.07466e-24)
(0.0270234 0.00025554 3.03981e-23)
(0.0270398 0.00023984 -1.18551e-23)
(0.0270547 0.000223738 3.34628e-24)
(0.0270683 0.000207389 -1.84099e-24)
(0.0270806 0.000190905 -4.28052e-24)
(0.0270917 0.000174371 7.74185e-24)
(0.0271019 0.000157845 -3.73403e-24)
(0.0271111 0.000141376 6.14424e-25)
(0.0271195 0.00012499 1.08425e-25)
(0.0271271 0.000108716 3.75708e-26)
(0.0250131 0.000286642 2.91433e-24)
(0.025045 0.000279873 -1.53544e-23)
(0.0250745 0.000270361 2.71044e-23)
(0.0251013 0.000258921 -2.10806e-23)
(0.025126 0.000246142 2.17953e-23)
(0.0251486 0.000232415 -7.06468e-24)
(0.0251693 0.00021801 -5.04281e-24)
(0.0251883 0.000203114 -5.77477e-24)
(0.0252057 0.000187866 1.05102e-23)
(0.0252217 0.000172375 -2.54285e-25)
(0.0252363 0.000156727 -1.01805e-23)
(0.0252498 0.000140986 -1.24933e-24)
(0.025262 0.000125206 2.22279e-24)
(0.0252733 0.000109425 -4.27852e-25)
(0.0252835 9.36819e-05 7.68306e-26)
(0.0229392 0.000255737 3.88252e-25)
(0.0229767 0.000249315 -5.83015e-24)
(0.0230116 0.000240594 -3.53685e-24)
(0.0230437 0.000230202 2.80173e-23)
(0.0230733 0.000218593 -2.81049e-23)
(0.0231007 0.000206073 8.35165e-24)
(0.0231258 0.000192863 1.46908e-24)
(0.0231491 0.000179129 -8.0144e-25)
(0.0231704 0.000165002 -3.95894e-24)
(0.0231901 0.000150583 1.75119e-23)
(0.0232082 0.000135955 -1.40862e-23)
(0.0232249 0.000121186 -6.85579e-25)
(0.02324 0.00010633 1.26231e-24)
(0.0232539 9.1433e-05 1.06222e-24)
(0.0232664 7.65332e-05 -8.22957e-25)
(0.0208019 0.000222554 5.78739e-25)
(0.0208446 0.000216504 5.47096e-24)
(0.0208845 0.000208552 -6.24875e-24)
(0.0209213 0.000199177 -4.61028e-24)
(0.0209554 0.000188725 3.02119e-23)
(0.020987 0.00017744 -2.3105e-23)
(0.0210161 0.000165506 -4.37711e-25)
(0.021043 0.000153066 -5.20046e-24)
(0.0210679 0.000140237 -5.09271e-25)
(0.0210907 0.000127111 7.29771e-25)
(0.0211116 0.000113763 -3.2548e-24)
(0.0211307 0.000100256 2.5033e-24)
(0.0211481 8.66452e-05 8.71903e-25)
(0.0211638 7.29762e-05 8.32915e-25)
(0.0211779 5.9293e-05 1.01168e-24)
(0.0186777 0.000188549 4.13065e-24)
(0.0187242 0.000182979 -6.39868e-24)
(0.0187676 0.00017586 -5.49937e-24)
(0.0188079 0.000167565 1.68512e-23)
(0.0188452 0.000158351 -6.02352e-24)
(0.0188797 0.000148405 -9.12332e-24)
(0.0189117 0.000137879 3.13084e-24)
(0.0189411 0.000126894 7.66235e-24)
(0.0189681 0.000115547 -1.2665e-23)
(0.0189929 0.000103919 1.29339e-23)
(0.0190155 9.20782e-05 -7.16368e-24)
(0.0190359 8.00821e-05 3.20639e-24)
(0.0190543 6.79867e-05 -4.47155e-24)
(0.0190707 5.58372e-05 4.5433e-24)
(0.019085 4.36827e-05 -1.13718e-24)
(0.0166138 0.000155392 -8.0254e-25)
(0.0166622 0.000150439 -2.90539e-24)
(0.0167073 0.000144254 -9.60969e-24)
(0.0167492 0.000137126 2.68868e-23)
(0.0167881 0.000129232 -4.61241e-24)
(0.016824 0.000120717 -7.94884e-24)
(0.0168571 0.0001117 3.00724e-24)
(0.0168875 0.000102281 -4.31652e-24)
(0.0169153 9.2542e-05 -1.00738e-23)
(0.0169406 8.25522e-05 9.65628e-24)
(0.0169635 7.23737e-05 4.66195e-25)
(0.0169839 6.20601e-05 -3.58578e-24)
(0.0170019 5.16633e-05 4.07033e-24)
(0.0170176 4.12296e-05 2.85935e-25)
(0.017031 3.07993e-05 -3.55378e-25)
(0.0146378 0.000124577 3.0903e-24)
(0.014686 0.000120352 4.79955e-24)
(0.014731 0.000115176 -4.2446e-24)
(0.0147727 0.000109262 -1.00683e-23)
(0.0148114 0.000102723 1.40152e-23)
(0.0148471 9.56664e-05 -1.58341e-23)
(0.0148799 8.819e-05 -9.43214e-25)
(0.0149098 8.0375e-05 6.39015e-24)
(0.0149371 7.22887e-05 2.33895e-24)
(0.0149616 6.39906e-05 -5.29746e-24)
(0.0149835 5.55341e-05 -2.77947e-25)
(0.0150027 4.69686e-05 1.16634e-23)
(0.0150194 3.83395e-05 -4.50158e-24)
(0.0150336 2.96895e-05 -1.23093e-24)
(0.0150452 2.10589e-05 -8.34729e-26)
(0.0127655 9.71553e-05 -3.21117e-24)
(0.0128117 9.3707e-05 4.15914e-24)
(0.0128549 8.95542e-05 5.2325e-25)
(0.0128949 8.48334e-05 9.26262e-24)
(0.012932 7.96092e-05 -7.39328e-24)
(0.0129661 7.3967e-05 7.7274e-25)
(0.0129974 6.79843e-05 -7.27707e-25)
(0.0130258 6.17255e-05 -2.57976e-24)
(0.0130514 5.52449e-05 2.54e-24)
(0.0130743 4.85922e-05 -8.22614e-24)
(0.0130944 4.18124e-05 3.8614e-25)
(0.0131119 3.49477e-05 1.98487e-24)
(0.0131266 2.80382e-05 1.3354e-24)
(0.0131388 2.1121e-05 5.61285e-25)
(0.0131482 1.42317e-05 2.28467e-25)
(0.0110059 7.36577e-05 2.37896e-24)
(0.0110488 7.09714e-05 -1.86411e-24)
(0.0110889 6.77883e-05 -8.78725e-24)
(0.0111261 6.41698e-05 8.26566e-24)
(0.0111606 6.01544e-05 1.234e-23)
(0.0111923 5.58117e-05 -2.79678e-24)
(0.0112212 5.12011e-05 -6.48917e-24)
(0.0112473 4.63719e-05 -9.86683e-24)
(0.0112708 4.13666e-05 7.58298e-24)
(0.0112915 3.62256e-05 5.28744e-25)
(0.0113095 3.09854e-05 -1.86285e-24)
(0.0113249 2.56806e-05 -5.76105e-25)
(0.0113376 2.03445e-05 1.16596e-24)
(0.0113477 1.50077e-05 -1.96822e-26)
(0.0113552 9.69904e-06 -2.60661e-25)
(0.0093641 5.41783e-05 -1.49735e-24)
(0.00940283 5.21864e-05 -1.14658e-24)
(0.00943906 4.98621e-05 1.29446e-24)
(0.00947277 4.72036e-05 -4.57426e-24)
(0.00950396 4.42421e-05 1.51477e-23)
(0.0095326 4.10327e-05 -2.07649e-23)
(0.0095587 3.76184e-05 2.10221e-23)
(0.00958225 3.40356e-05 -9.08234e-24)
(0.00960325 3.03172e-05 2.25176e-24)
(0.00962171 2.64942e-05 1.50371e-25)
(0.00963761 2.25951e-05 -1.78584e-24)
(0.00965099 1.86473e-05 7.43458e-25)
(0.00966183 1.46769e-05 -1.54843e-24)
(0.00967018 1.07083e-05 -2.3072e-25)
(0.00967602 6.76447e-06 1.2134e-25)
(0.00784268 3.8509e-05 -7.27606e-25)
(0.00787666 3.7109e-05 1.69754e-25)
(0.00790857 3.54972e-05 4.12242e-25)
(0.00793834 3.36307e-05 -2.06793e-24)
(0.00796591 3.15427e-05 -1.03821e-24)
(0.00799124 2.92733e-05 8.4998e-24)
(0.00801433 2.6852e-05 -5.06213e-24)
(0.00803513 2.43051e-05 7.87459e-25)
(0.00805363 2.16566e-05 -7.49871e-25)
(0.00806983 1.89296e-05 -8.81603e-25)
(0.00808371 1.61454e-05 -3.07557e-25)
(0.00809528 1.33245e-05 1.81972e-24)
(0.00810453 1.04867e-05 5.66782e-25)
(0.0081115 7.65044e-06 -1.17846e-24)
(0.00811619 4.82969e-06 -2.00953e-25)
(0.00644185 2.62691e-05 -2.64596e-25)
(0.00647085 2.53422e-05 -9.8037e-26)
(0.00649822 2.42861e-05 -4.5357e-24)
(0.00652384 2.30409e-05 1.0775e-24)
(0.00654762 2.16425e-05 -3.6017e-24)
(0.00656953 2.01165e-05 2.24812e-24)
(0.00658952 1.84822e-05 4.73517e-24)
(0.00660754 1.67578e-05 3.81489e-24)
(0.00662358 1.49599e-05 -5.48043e-24)
(0.0066376 1.31049e-05 1.66084e-24)
(0.0066496 1.12079e-05 1.54465e-24)
(0.00665957 9.28369e-06 -2.34425e-24)
(0.00666751 7.34664e-06 1.25924e-24)
(0.00667344 5.4095e-06 -1.32608e-25)
(0.00667736 3.48048e-06 3.75001e-25)
(0.00515983 1.70027e-05 -1.0363e-24)
(0.00518382 1.64302e-05 -1.49114e-24)
(0.00520662 1.57824e-05 -3.50731e-25)
(0.00522802 1.50018e-05 3.76733e-24)
(0.00524797 1.41218e-05 -2.7953e-24)
(0.00526641 1.31565e-05 -6.35534e-25)
(0.00528327 1.21177e-05 4.7741e-24)
(0.00529853 1.10173e-05 9.53207e-26)
(0.00531213 9.8662e-06 -9.74068e-25)
(0.00532405 8.67537e-06 -4.01751e-24)
(0.00533428 7.45485e-06 3.39106e-25)
(0.0053428 6.21466e-06 2.96502e-24)
(0.0053496 4.96474e-06 -3.89304e-25)
(0.00535471 3.71381e-06 -4.82749e-25)
(0.00535812 2.46648e-06 3.28318e-25)
(0.00399311 1.02396e-05 -2.2648e-25)
(0.00401218 9.91442e-06 7.30805e-27)
(0.00403045 9.549e-06 1.78745e-24)
(0.00404766 9.09804e-06 1.28673e-24)
(0.00406379 8.588e-06 -7.87372e-25)
(0.00407875 8.02442e-06 -2.18085e-24)
(0.00409249 7.41444e-06 9.41843e-25)
(0.00410498 6.76504e-06 -4.08397e-24)
(0.00411616 6.08293e-06 3.16873e-24)
(0.004126 5.37485e-06 1.7639e-24)
(0.00413449 4.64702e-06 7.3664e-26)
(0.00414162 3.90579e-06 -2.03311e-24)
(0.00414736 3.15747e-06 3.96028e-25)
(0.00415174 2.40793e-06 -3.25126e-25)
(0.00415475 1.66e-06 1.68586e-25)
(0.00293662 5.52913e-06 -4.16984e-25)
(0.00295097 5.36198e-06 -2.94804e-27)
(0.00296482 5.17798e-06 1.42514e-24)
(0.00297793 4.94632e-06 -8.95461e-25)
(0.00299028 4.68343e-06 3.93673e-24)
(0.00300179 4.3905e-06 -7.2698e-24)
(0.00301242 4.07134e-06 6.13206e-24)
(0.00302213 3.72968e-06 -5.29528e-24)
(0.00303087 3.36915e-06 3.94079e-24)
(0.00303862 2.99348e-06 -2.6314e-24)
(0.00304535 2.60613e-06 9.21105e-25)
(0.00305106 2.21069e-06 1.40553e-25)
(0.00305572 1.81073e-06 2.515e-25)
(0.00305935 1.40996e-06 -3.16276e-25)
(0.00306194 1.0106e-06 6.96104e-26)
(0.00198416 2.47305e-06 6.32705e-25)
(0.00199404 2.39655e-06 7.20159e-25)
(0.00200365 2.3185e-06 -3.05107e-24)
(0.00201278 2.21979e-06 2.27734e-24)
(0.00202143 2.1076e-06 -4.98754e-27)
(0.00202954 1.98169e-06 6.58431e-25)
(0.00203708 1.84381e-06 -7.65335e-25)
(0.002044 1.69562e-06 -1.73608e-24)
(0.00205028 1.5388e-06 1.75897e-24)
(0.00205588 1.37508e-06 2.18621e-25)
(0.00206079 1.20605e-06 -1.54231e-24)
(0.002065 1.03343e-06 5.51004e-25)
(0.0020685 8.58838e-07 3.60166e-25)
(0.00207128 6.84263e-07 -4.07495e-26)
(0.00207334 5.11577e-07 -4.68105e-26)
(0.00112877 7.6454e-07 -6.38489e-25)
(0.00113445 7.4318e-07 1.98819e-24)
(0.00114002 7.25758e-07 1.2689e-24)
(0.00114534 7.01285e-07 -2.2025e-24)
(0.00115041 6.71422e-07 -2.62341e-25)
(0.0011552 6.36158e-07 -2.48249e-25)
(0.00115968 5.96236e-07 7.97498e-25)
(0.00116382 5.52332e-07 -1.37398e-24)
(0.0011676 5.05087e-07 1.95357e-24)
(0.001171 4.55169e-07 -9.54735e-25)
(0.00117402 4.03133e-07 -6.70654e-25)
(0.00117663 3.49622e-07 4.19146e-25)
(0.00117883 2.9509e-07 -5.47248e-25)
(0.00118062 2.40217e-07 5.62241e-25)
(0.00118201 1.86044e-07 -1.0153e-25)
(0.000363021 1.3497e-07 -4.55848e-27)
(0.000364799 1.66134e-07 3.8962e-25)
(0.000366567 1.92763e-07 4.69784e-25)
(0.000368274 2.11956e-07 -7.15438e-25)
(0.000369919 2.24386e-07 1.59054e-24)
(0.000371488 2.30466e-07 -1.71989e-24)
(0.00037297 2.30639e-07 1.21026e-25)
(0.000374354 2.25248e-07 1.05534e-24)
(0.000375631 2.14566e-07 -1.46255e-24)
(0.000376794 1.98845e-07 -2.96209e-25)
(0.000377836 1.78286e-07 1.10914e-24)
(0.000378753 1.53112e-07 -4.98875e-25)
(0.00037954 1.23457e-07 -2.05763e-25)
(0.000380196 8.95029e-08 1.74867e-25)
(0.000380721 5.16191e-08 -8.41154e-27)
(0.000903313 -0.000247454 9.54661e-26)
(0.00103095 -0.000175195 2.52334e-24)
(0.00124575 -9.87896e-05 -7.36881e-24)
(0.00146461 -3.55852e-05 1.09363e-23)
(0.00167411 1.63044e-05 -4.10575e-24)
(0.00187951 5.78303e-05 -4.10324e-24)
(0.00208131 9.1355e-05 4.73242e-24)
(0.00228067 0.000118775 -9.51645e-24)
(0.00247872 0.000141565 5.32929e-25)
(0.00267631 0.000160873 6.10083e-24)
(0.00287411 0.000177619 -1.18801e-24)
(0.00307267 0.000192604 1.30655e-24)
(0.00327256 0.000206607 -1.15614e-25)
(0.00347445 0.000220355 8.8138e-25)
(0.00367943 0.00023441 -3.25514e-24)
(0.00388919 0.000249287 1.80711e-24)
(0.00410604 0.000265342 -6.18469e-25)
(0.00433315 0.000282354 1.73688e-26)
(0.00457521 0.000299118 1.57457e-24)
(0.00483807 0.000313063 -1.002e-24)
(0.00512895 0.000318522 1.28924e-25)
(0.00545333 0.000306108 -1.12696e-25)
(0.00578554 0.000263314 2.06328e-25)
(0.0060814 0.000189773 7.61028e-25)
(0.00632614 9.32013e-05 -1.36942e-24)
(0.00651907 -1.91706e-05 -8.73139e-25)
(0.00666131 -0.000142089 6.25755e-26)
(0.00675543 -0.000271735 2.11953e-24)
(0.00680393 -0.000404197 2.77764e-24)
(0.00680849 -0.000535413 -5.44069e-24)
(0.00677025 -0.000661115 4.32919e-24)
(0.00669015 -0.000776521 -3.7463e-24)
(0.00656929 -0.000876181 8.75181e-25)
(0.00640909 -0.000953962 -6.93688e-25)
(0.00621132 -0.00100305 6.3015e-25)
(0.0059781 -0.00101589 7.27103e-24)
(0.00571172 -0.000983854 -1.64751e-24)
(0.00541458 -0.000896566 2.29851e-24)
(0.00508927 -0.000740492 1.36128e-24)
(0.00473906 -0.000497201 -1.2108e-23)
(0.00436718 -0.000144043 -1.51053e-25)
(0.00397822 0.000336302 5.37147e-24)
(0.0035608 0.00092095 1.89059e-24)
(0.00313239 0.0014995 -7.69345e-24)
(0.00288837 0.00171056 -3.97962e-25)
(0.00169595 -0.000324893 -2.84483e-24)
(0.00174706 -0.000285218 -4.15085e-24)
(0.00187671 -0.000211284 8.62591e-24)
(0.00204071 -0.000140753 4.20553e-24)
(0.00221494 -7.87873e-05 -1.47347e-23)
(0.00239522 -2.71627e-05 1.59615e-23)
(0.00257802 1.54237e-05 -5.75245e-24)
(0.00276218 5.07827e-05 4.741e-24)
(0.00294753 8.05075e-05 -6.25831e-24)
(0.00313421 0.000105902 6.15821e-26)
(0.00332246 0.000128025 -3.47292e-24)
(0.0035126 0.000147773 6.92382e-24)
(0.00370506 0.00016599 -3.89418e-24)
(0.00390043 0.000183424 -3.70216e-24)
(0.0040997 0.000200627 -2.69516e-24)
(0.00430449 0.000218107 4.77868e-24)
(0.00451697 0.000236219 -7.03899e-25)
(0.0047401 0.000254706 2.83147e-24)
(0.00497833 0.000272345 5.31704e-25)
(0.00523711 0.000286605 -8.97087e-25)
(0.00552329 0.000292024 -3.92837e-25)
(0.00584209 0.000279663 -2.36408e-25)
(0.00616863 0.000237721 1.12416e-24)
(0.00646006 0.000166271 1.28937e-24)
(0.00670205 7.29305e-05 -1.22672e-24)
(0.0068938 -3.52157e-05 -5.42985e-24)
(0.00703614 -0.000153031 7.16984e-24)
(0.00713137 -0.000276751 -4.85294e-24)
(0.00718186 -0.000402413 1.61431e-24)
(0.00718934 -0.000525842 -8.75782e-25)
(0.00715507 -0.000642682 6.2964e-24)
(0.00708028 -0.000748118 -7.71755e-24)
(0.00696643 -0.000836721 2.94513e-24)
(0.00681546 -0.000902419 2.86407e-24)
(0.00662982 -0.000938488 -7.42846e-24)
(0.00641255 -0.000937453 2.21108e-24)
(0.00616731 -0.000890823 1.37327e-23)
(0.00589857 -0.000788467 -3.49988e-24)
(0.00561217 -0.000617453 -1.15895e-23)
(0.00531689 -0.000360454 -7.30368e-24)
(0.00502603 3.91908e-06 1.66955e-23)
(0.00476241 0.000492773 -1.64625e-23)
(0.00455114 0.00108325 -4.18023e-24)
(0.00443395 0.00165271 1.0959e-23)
(0.00446322 0.0018015 3.90181e-24)
(0.00263063 -0.000330389 -3.26791e-26)
(0.00263487 -0.000328996 -4.68366e-24)
(0.00268645 -0.000285631 9.19774e-24)
(0.00278661 -0.000225028 8.08332e-24)
(0.00291208 -0.000163581 -1.30957e-23)
(0.00305454 -0.000107798 2.55852e-25)
(0.00320754 -5.94471e-05 1.30693e-24)
(0.00336754 -1.7999e-05 1.4528e-23)
(0.0035327 1.76107e-05 -1.72546e-23)
(0.00370208 4.849e-05 1.08266e-23)
(0.00387528 7.56445e-05 3.44738e-24)
(0.00405218 9.99628e-05 -1.85763e-23)
(0.00423297 0.000122292 6.73255e-24)
(0.00441801 0.000143371 2.80466e-24)
(0.00460818 0.000163709 -6.11769e-24)
(0.00480495 0.000183798 1.02239e-23)
(0.00501035 0.000203988 -7.45185e-24)
(0.00522708 0.000223977 -2.6527e-25)
(0.00545931 0.000242521 5.56962e-25)
(0.00571207 0.000257129 6.81634e-25)
(0.00599177 0.000262544 8.80888e-26)
(0.00630332 0.000250277 4.24419e-25)
(0.00662266 0.000209244 -1.12906e-24)
(0.00690832 0.00013996 3.30448e-24)
(0.00714645 4.99502e-05 -5.06098e-24)
(0.00733611 -5.38284e-05 2.88129e-24)
(0.00747782 -0.000166339 -6.23751e-24)
(0.00757361 -0.000283887 8.37578e-24)
(0.00762572 -0.000402465 -7.20557e-24)
(0.00763592 -0.00051778 7.01668e-25)
(0.00760564 -0.000625391 6.50209e-25)
(0.00753641 -0.000720463 9.07574e-24)
(0.00743013 -0.000797612 -2.73989e-24)
(0.00728925 -0.000850891 1.58858e-24)
(0.00711697 -0.000873772 -7.18076e-24)
(0.00691734 -0.000859088 1.54379e-23)
(0.00669544 -0.000798845 -1.12675e-23)
(0.00645779 -0.000683825 1.8548e-23)
(0.00621333 -0.00050294 -3.60214e-23)
(0.00597541 -0.000242466 1.38447e-23)
(0.00576445 0.000112717 4.96819e-24)
(0.00561258 0.00057078 8.19423e-24)
(0.00555677 0.00110081 -1.02188e-23)
(0.00562279 0.00158003 3.24118e-24)
(0.00578946 0.00169417 -2.0367e-24)
(0.00369257 -0.000310678 -1.22695e-24)
(0.00366957 -0.000333262 -1.92026e-24)
(0.00367336 -0.000316927 -8.30111e-24)
(0.00371226 -0.000278923 2.10208e-24)
(0.00378476 -0.000227965 1.41076e-24)
(0.00388122 -0.000175663 6.79948e-24)
(0.00399528 -0.000126771 -1.4686e-23)
(0.00412238 -8.26758e-05 5.49729e-24)
(0.00425939 -4.34432e-05 1.91141e-23)
(0.00440434 -8.58641e-06 -5.02167e-24)
(0.00455607 2.25743e-05 -4.85324e-24)
(0.00471398 5.07491e-05 -7.91959e-25)
(0.00487789 7.66872e-05 2.69226e-24)
(0.00504789 0.000101052 -5.36997e-24)
(0.00522468 0.000124259 1.19429e-24)
(0.00540958 0.000146754 -5.54567e-25)
(0.00560439 0.000168876 -3.09523e-24)
(0.00581158 0.00019026 9.64509e-25)
(0.00603496 0.000209626 5.60951e-24)
(0.00627917 0.000224531 -6.17846e-25)
(0.00655008 0.000229921 -1.33854e-24)
(0.00685222 0.000217765 -3.69943e-25)
(0.00716235 0.000177711 -1.99358e-24)
(0.0074405 0.000110714 -3.22514e-26)
(0.00767327 2.41967e-05 -4.3807e-24)
(0.00785955 -7.49974e-05 7.71234e-24)
(0.00799956 -0.000181919 -6.27424e-24)
(0.00809502 -0.000292965 1.19419e-23)
(0.00814811 -0.000404094 -9.87584e-24)
(0.0081606 -0.000510911 2.34545e-24)
(0.00813415 -0.000608913 3.7628e-24)
(0.00807061 -0.000693285 -2.10857e-25)
(0.00797232 -0.000758761 -3.84773e-25)
(0.00784233 -0.00079962 -9.12897e-25)
(0.00768457 -0.000809711 7.78896e-25)
(0.00750409 -0.000782441 -5.08482e-24)
(0.00730726 -0.000710743 2.51567e-23)
(0.00710238 -0.000586987 -1.32392e-23)
(0.00690059 -0.000402967 -2.49951e-25)
(0.00671777 -0.000150163 -3.34047e-23)
(0.00657641 0.000178004 2.54695e-23)
(0.00650773 0.000579011 -9.88929e-24)
(0.00654405 0.00101886 1.86014e-24)
(0.00669374 0.00140141 1.35314e-23)
(0.00691919 0.00153933 -3.60457e-24)
(0.00487893 -0.000280417 -5.10134e-24)
(0.00484538 -0.000313034 1.04826e-23)
(0.004821 -0.000315059 3.04829e-24)
(0.00481985 -0.000298657 1.32717e-23)
(0.00484272 -0.00026564 -3.27017e-23)
(0.00489234 -0.000223324 -1.0352e-24)
(0.00496291 -0.000179705 1.59428e-24)