/*--------------------------------*- C++ -*----------------------------------*\
| =========                 |                                                 |
| \\      /  F ield         | OpenFOAM: The Open Source CFD Toolbox           |
|  \\    /   O peration     | Version:  2312                                  |
|   \\  /    A nd           | Website:  www.openfoam.com                      |
|    \\/     M anipulation  |                                                 |
\*---------------------------------------------------------------------------*/
FoamFile
{
    version     2.0;
    format      ascii;
    arch        "LSB;label=32;scalar=64";
    class       surfaceScalarField;
    location    "23.25";
    object      phi;
}
// * * * * * * * * * * * * * * * * * * * * * * * * * * * * * * * * * * * * * //

dimensions      [0 3 -1 0 0 0 0];

oriented        oriented;

internalField   nonuniform List<scalar> 
9445
(
5.79845e-10
1.25018e-11
5.72256e-10
7.58945e-12
5.67805e-10
4.45121e-12
5.65503e-10
2.30188e-12
5.64803e-10
6.99308e-13
5.65428e-10
-6.24156e-13
5.67168e-10
-1.7407e-12
5.69964e-10
-2.79546e-12
5.74044e-10
-4.08024e-12
5.79789e-10
-5.74445e-12
5.88283e-10
-8.49467e-12
6.03091e-10
-1.48075e-11
6.36741e-10
-3.36506e-11
7.3332e-10
-9.65782e-11
-2.51009e-10
9.84329e-10
2.02426e-09
5.53396e-11
1.99784e-09
3.40056e-11
1.98196e-09
2.03353e-11
1.97329e-09
1.09678e-11
1.97e-09
3.99483e-12
1.97101e-09
-1.63676e-12
1.9756e-09
-6.33126e-12
1.98366e-09
-1.08496e-11
1.99573e-09
-1.6153e-11
2.01292e-09
-2.29344e-11
2.03804e-09
-3.36124e-11
2.07797e-09
-5.47361e-11
2.14611e-09
-1.01795e-10
2.2554e-09
-2.0587e-10
-3.66556e-10
2.37095e-09
3.99483e-09
1.37959e-10
3.94325e-09
8.55928e-11
3.91162e-09
5.19622e-11
3.89367e-09
2.89174e-11
3.88584e-09
1.18275e-11
3.88596e-09
-1.7635e-12
3.89261e-09
-1.29803e-11
3.90548e-09
-2.37174e-11
3.92523e-09
-3.59028e-11
3.9531e-09
-5.08045e-11
3.99193e-09
-7.24392e-11
4.04638e-09
-1.09192e-10
4.11933e-09
-1.74739e-10
4.19724e-09
-2.83783e-10
-4.12791e-10
4.24348e-09
6.63547e-09
2.71001e-10
6.55127e-09
1.69795e-10
6.4986e-09
1.04634e-10
6.46755e-09
5.99613e-11
6.45236e-09
2.70168e-11
6.44948e-09
1.12108e-12
6.45656e-09
-2.00618e-11
6.47264e-09
-3.97968e-11
6.49814e-09
-6.14039e-11
6.53354e-09
-8.62073e-11
6.57997e-09
-1.18864e-10
6.63717e-09
-1.66391e-10
6.69878e-09
-2.36354e-10
6.74498e-09
-3.29982e-10
-4.21253e-10
6.75344e-09
1.01201e-08
4.65153e-10
9.99531e-09
2.94578e-10
9.91558e-09
1.84365e-10
9.86684e-09
1.08702e-10
9.84056e-09
5.32975e-11
9.8316e-09
1.00743e-11
9.83647e-09
-2.4927e-11
9.85299e-09
-5.63216e-11
9.88066e-09
-8.90675e-11
9.91861e-09
-1.24155e-10
9.96537e-09
-1.65628e-10
1.00165e-08
-2.17482e-10
1.00615e-08
-2.81403e-10
1.00838e-08
-3.52244e-10
-4.10864e-10
1.00734e-08
1.46539e-08
7.28558e-10
1.44815e-08
4.66937e-10
1.43689e-08
2.96991e-10
1.42976e-08
1.80018e-10
1.4256e-08
9.48487e-11
1.42371e-08
2.90282e-11
1.42359e-08
-2.37758e-11
1.42492e-08
-6.95555e-11
1.42742e-08
-1.14101e-10
1.43087e-08
-1.58691e-10
1.4349e-08
-2.05869e-10
1.43883e-08
-2.56785e-10
1.44166e-08
-3.09755e-10
1.44233e-08
-3.58871e-10
-3.93316e-10
1.44057e-08
2.0471e-08
1.06202e-09
2.0248e-08
6.89932e-10
2.00988e-08
4.46255e-10
2.0001e-08
2.77793e-10
1.99404e-08
1.55489e-10
1.99075e-08
6.19075e-11
1.98961e-08
-1.23527e-11
1.99012e-08
-7.47208e-11
1.99185e-08
-1.31334e-10
1.99438e-08
-1.84013e-10
1.9972e-08
-2.34071e-10
1.99963e-08
-2.81147e-10
2.00095e-08
-3.22882e-10
2.00059e-08
-3.5531e-10
-3.73785e-10
1.99864e-08
2.78271e-08
1.45181e-09
2.75592e-08
9.57859e-10
2.7375e-08
6.30457e-10
2.72502e-08
4.02516e-10
2.71688e-08
2.36968e-10
2.71193e-08
1.11361e-10
2.70941e-08
1.28558e-11
2.70868e-08
-6.74559e-11
2.70916e-08
-1.36081e-10
2.71031e-08
-1.95487e-10
2.71157e-08
-2.46695e-10
2.71239e-08
-2.89379e-10
2.71233e-08
-3.22235e-10
2.71117e-08
-3.43779e-10
-3.53047e-10
2.7091e-08
3.69875e-08
1.86197e-09
3.6695e-08
1.25032e-09
3.64875e-08
8.37941e-10
3.63423e-08
5.47805e-10
3.62429e-08
3.36272e-10
3.61777e-08
1.76602e-10
3.61378e-08
5.27873e-11
3.61159e-08
-4.55638e-11
3.61055e-08
-1.2567e-10
3.61008e-08
-1.90791e-10
3.60967e-08
-2.42666e-10
3.60894e-08
-2.82051e-10
3.60765e-08
-3.09299e-10
3.60577e-08
-3.24973e-10
-3.30063e-10
3.60347e-08
4.82207e-08
2.23309e-09
4.79421e-08
1.52895e-09
4.77364e-08
1.04358e-09
4.75871e-08
6.97152e-10
4.74806e-08
4.4274e-10
4.74063e-08
2.50965e-10
4.73555e-08
1.03576e-10
4.73209e-08
-1.09814e-11
4.72964e-08
-1.01237e-10
4.72768e-08
-1.71163e-10
4.72581e-08
-2.2394e-10
4.72378e-08
-2.61748e-10
4.72149e-08
-2.86451e-10
4.719e-08
-2.99986e-10
-3.04299e-10
4.71642e-08
6.18184e-08
2.49869e-09
6.16026e-08
1.74468e-09
6.14346e-08
1.21167e-09
6.1307e-08
8.24662e-10
6.12121e-08
5.3768e-10
6.11421e-08
3.21018e-10
6.10901e-08
1.55539e-10
6.10504e-08
2.87316e-11
6.10179e-08
-6.87576e-11
6.09889e-08
-1.42199e-10
6.0961e-08
-1.95957e-10
6.09327e-08
-2.33528e-10
6.09041e-08
-2.57832e-10
6.08757e-08
-2.7157e-10
-2.77099e-10
6.08485e-08
7.81644e-08
2.62194e-09
7.80478e-08
1.86132e-09
7.79484e-08
1.31101e-09
7.78682e-08
9.04843e-10
7.78052e-08
6.00744e-10
7.77556e-08
3.70614e-10
7.77156e-08
1.95553e-10
7.76817e-08
6.25734e-11
7.76509e-08
-3.7963e-11
7.76215e-08
-1.12796e-10
7.75924e-08
-1.66851e-10
7.75634e-08
-2.04547e-10
7.7535e-08
-2.29367e-10
7.75077e-08
-2.44321e-10
-2.51859e-10
7.74825e-08
9.78265e-08
2.62444e-09
9.78053e-08
1.88256e-09
9.77791e-08
1.33719e-09
9.77538e-08
9.30096e-10
9.77311e-08
6.23436e-10
9.77105e-08
3.91234e-10
9.76908e-08
2.15247e-10
9.7671e-08
8.23986e-11
9.76501e-08
-1.70309e-11
9.76281e-08
-9.08275e-11
9.76052e-08
-1.43996e-10
9.75821e-08
-1.81414e-10
9.75595e-08
-2.06735e-10
9.75381e-08
-2.22977e-10
-2.3251e-10
9.75188e-08
1.21552e-07
2.56449e-09
1.21586e-07
1.84844e-09
1.21606e-07
1.31739e-09
1.21617e-07
9.18758e-10
1.21622e-07
6.17967e-10
1.21623e-07
3.90633e-10
1.21619e-07
2.19036e-10
1.21612e-07
9.00898e-11
1.216e-07
-5.89023e-12
1.21587e-07
-7.73385e-11
1.21572e-07
-1.28999e-10
1.21556e-07
-1.65905e-10
1.21541e-07
-1.91643e-10
1.21527e-07
-2.09089e-10
-2.20452e-10
1.21515e-07
1.50075e-07
2.48191e-09
1.50128e-07
1.79569e-09
1.50162e-07
1.28343e-09
1.50183e-07
8.97476e-10
1.50195e-07
6.06038e-10
1.502e-07
3.8607e-10
1.50199e-07
2.20365e-10
1.50193e-07
9.59693e-11
1.50183e-07
3.41103e-12
1.50172e-07
-6.60876e-11
1.5016e-07
-1.16816e-10
1.50148e-07
-1.53806e-10
1.50137e-07
-1.80476e-10
1.50127e-07
-1.99507e-10
-2.12927e-10
1.5012e-07
1.83873e-07
2.37863e-09
1.83936e-07
1.73194e-09
1.83974e-07
1.2458e-09
1.83994e-07
8.77579e-10
1.84001e-07
5.98601e-10
1.84e-07
3.87496e-10
1.83992e-07
2.28035e-10
1.8398e-07
1.07818e-10
1.83966e-07
1.75058e-11
1.83951e-07
-5.08764e-11
1.83936e-07
-1.01855e-10
1.83922e-07
-1.39955e-10
1.8391e-07
-1.68422e-10
1.839e-07
-1.89745e-10
-2.05771e-10
1.83893e-07
2.23022e-07
2.24248e-09
2.23105e-07
1.64865e-09
2.23152e-07
1.19863e-09
2.23175e-07
8.55097e-10
2.23181e-07
5.92988e-10
2.23175e-07
3.93174e-10
2.23162e-07
2.40977e-10
2.23145e-07
1.2507e-10
2.23125e-07
3.68428e-11
2.23105e-07
-3.09787e-11
2.23087e-07
-8.30504e-11
2.2307e-07
-1.22966e-10
2.23055e-07
-1.53837e-10
2.23043e-07
-1.77978e-10
-1.9708e-10
2.23035e-07
2.67076e-07
2.06839e-09
2.67185e-07
1.54015e-09
2.67247e-07
1.13583e-09
2.67279e-07
8.2393e-10
2.67288e-07
5.83475e-10
2.67283e-07
3.98016e-10
2.67269e-07
2.54829e-10
2.6725e-07
1.44038e-10
2.67229e-07
5.82313e-11
2.67206e-07
-8.17461e-12
2.67185e-07
-6.22816e-11
2.67167e-07
-1.04231e-10
2.67151e-07
-1.37765e-10
2.67138e-07
-1.65002e-10
-1.87396e-10
2.67128e-07
3.14683e-07
1.85726e-09
3.14818e-07
1.40483e-09
3.149e-07
1.05394e-09
3.14944e-07
7.7966e-10
3.14963e-07
5.65314e-10
3.14963e-07
3.97513e-10
3.14952e-07
2.65771e-10
3.14934e-07
1.61816e-10
3.14913e-07
7.9287e-11
3.14892e-07
1.35784e-11
3.1487e-07
-4.0854e-11
3.14851e-07
-8.51638e-11
3.14835e-07
-1.21627e-10
3.14822e-07
-1.52147e-10
-1.77967e-10
3.14813e-07
3.62922e-07
1.60502e-09
3.6309e-07
1.23636e-09
3.63199e-07
9.45114e-10
3.63265e-07
7.13577e-10
3.63301e-07
5.29481e-10
3.63316e-07
3.82687e-10
3.63317e-07
2.65076e-10
3.63308e-07
1.70261e-10
3.63294e-07
9.32357e-11
3.63278e-07
3.01286e-11
3.63259e-07
-2.27454e-11
3.63242e-07
-6.75936e-11
3.63226e-07
-1.05537e-10
3.63212e-07
-1.38169e-10
-1.66634e-10
3.63201e-07
3.60655e-07
1.35614e-09
3.60828e-07
1.06413e-09
3.60944e-07
8.28377e-10
3.61021e-07
6.37439e-10
3.61067e-07
4.82731e-10
3.61093e-07
3.56854e-10
3.61104e-07
2.53758e-10
3.61106e-07
1.6864e-10
3.61101e-07
9.78317e-11
3.61093e-07
3.87203e-11
3.61081e-07
-1.12706e-11
3.6107e-07
-5.65864e-11
3.6106e-07
-9.49814e-11
3.6105e-07
-1.28768e-10
-1.58903e-10
3.61043e-07
3.09015e-07
1.13303e-09
3.09172e-07
9.06417e-10
3.09282e-07
7.18874e-10
3.09355e-07
5.64117e-10
3.09402e-07
4.36278e-10
3.09428e-07
3.30138e-10
3.09441e-07
2.41378e-10
3.09443e-07
1.66508e-10
3.09438e-07
1.02738e-10
3.09429e-07
4.76542e-11
3.09419e-07
-1.28125e-12
3.09406e-07
-4.33508e-11
3.09392e-07
-8.15628e-11
3.09379e-07
-1.15806e-10
-1.46785e-10
3.09367e-07
2.58973e-07
9.42653e-10
2.59114e-07
7.65428e-10
2.59217e-07
6.15756e-10
2.59291e-07
4.90134e-10
2.59343e-07
3.84474e-10
2.59378e-07
2.95093e-10
2.59401e-07
2.1887e-10
2.59414e-07
1.5323e-10
2.59421e-07
9.60736e-11
2.59423e-07
4.57216e-11
2.5942e-07
1.17436e-12
2.59416e-07
-3.89905e-11
2.59409e-07
-7.52562e-11
2.59402e-07
-1.08388e-10
-1.38813e-10
2.59394e-07
2.1354e-07
7.80137e-10
2.13664e-07
6.4142e-10
2.13758e-07
5.22339e-10
2.13827e-07
4.20674e-10
2.13878e-07
3.33648e-10
2.13914e-07
2.58688e-10
2.1394e-07
1.93576e-10
2.13956e-07
1.36482e-10
2.13967e-07
8.59082e-11
2.13972e-07
4.06924e-11
2.13973e-07
9.54844e-14
2.13971e-07
-3.71351e-11
2.13967e-07
-7.11122e-11
2.13961e-07
-1.02489e-10
-1.3159e-10
2.13953e-07
1.73698e-07
6.40348e-10
1.73807e-07
5.3194e-10
1.73892e-07
4.37551e-10
1.73957e-07
3.55652e-10
1.74006e-07
2.84347e-10
1.74043e-07
2.21858e-10
1.7407e-07
1.66657e-10
1.74089e-07
1.17459e-10
1.74102e-07
7.32344e-11
1.74109e-07
3.31263e-11
1.74113e-07
-3.60302e-12
1.74113e-07
-3.72923e-11
1.74111e-07
-6.85694e-11
1.74106e-07
-9.76666e-11
-1.24828e-10
1.74099e-07
1.39632e-07
5.19525e-10
1.39729e-07
4.35065e-10
1.39806e-07
3.60571e-10
1.39866e-07
2.94943e-10
1.39914e-07
2.3687e-10
1.39951e-07
1.85147e-10
1.39978e-07
1.38745e-10
1.39999e-07
9.67783e-11
1.40014e-07
5.85259e-11
1.40024e-07
2.3368e-11
1.40029e-07
-9.1435e-12
1.40031e-07
-3.92325e-11
1.4003e-07
-6.74014e-11
1.40026e-07
-9.37773e-11
-1.1851e-10
1.4002e-07
1.11062e-07
4.14684e-10
1.11148e-07
3.49241e-10
1.11218e-07
2.90822e-10
1.11274e-07
2.38605e-10
1.11319e-07
1.91683e-10
1.11355e-07
1.49271e-10
1.11383e-07
1.10684e-10
1.11405e-07
7.53389e-11
1.1142e-07
4.27126e-11
1.11431e-07
1.23795e-11
1.11438e-07
-1.57866e-11
1.11441e-07
-4.2163e-11
1.1144e-07
-6.69624e-11
1.11437e-07
-9.02824e-11
-1.12214e-10
1.11431e-07
8.74644e-08
3.23965e-10
8.75399e-08
2.7372e-10
8.76024e-08
2.28354e-10
8.76537e-08
1.87237e-10
8.76956e-08
1.49756e-10
8.77295e-08
1.15428e-10
8.77564e-08
8.3807e-11
8.77772e-08
5.45215e-11
8.77927e-08
2.72315e-11
8.78035e-08
1.54183e-12
8.781e-08
-2.22818e-11
8.78127e-08
-4.48623e-11
8.78119e-08
-6.61309e-11
8.78078e-08
-8.61795e-11
-1.05056e-10
8.78006e-08
6.82118e-08
2.46591e-10
6.8277e-08
2.08537e-10
6.83315e-08
1.73804e-10
6.83769e-08
1.41891e-10
6.84142e-08
1.12424e-10
6.84445e-08
8.51188e-11
6.84686e-08
5.97022e-11
6.84872e-08
3.59271e-11
6.85009e-08
1.35715e-11
6.85099e-08
-7.49421e-12
6.85149e-08
-2.72781e-11
6.85161e-08
-4.60197e-11
6.85136e-08
-6.37243e-11
6.85079e-08
-8.04285e-11
-9.61471e-11
6.8499e-08
5.26622e-08
1.8226e-10
5.27168e-08
1.53963e-10
5.27627e-08
1.27858e-10
5.28011e-08
1.03555e-10
5.28326e-08
8.08568e-11
5.28581e-08
5.96107e-11
5.28782e-08
3.96561e-11
5.28933e-08
2.08424e-11
5.29038e-08
3.02187e-12
5.29101e-08
-1.37856e-11
5.29125e-08
-2.97092e-11
5.29113e-08
-4.47861e-11
5.29066e-08
-5.90425e-11
5.28987e-08
-7.24886e-11
-8.51171e-11
5.28877e-08
4.02111e-08
1.30478e-10
4.02551e-08
1.09912e-10
4.02923e-08
9.07353e-11
4.03232e-08
7.26552e-11
4.03484e-08
5.56055e-11
4.03685e-08
3.95083e-11
4.03839e-08
2.42721e-11
4.03949e-08
9.81469e-12
4.04019e-08
-3.92851e-12
4.0405e-08
-1.69539e-11
4.04046e-08
-2.93244e-11
4.04009e-08
-4.10428e-11
4.0394e-08
-5.21194e-11
4.0384e-08
-6.25506e-11
-7.23191e-11
4.03712e-08
3.03181e-08
9.02315e-11
3.03524e-08
7.56862e-11
3.03811e-08
6.1981e-11
3.04049e-08
4.89094e-11
3.0424e-08
3.64855e-11
3.04388e-08
2.4668e-11
3.04497e-08
1.34109e-11
3.04568e-08
2.67687e-12
3.04604e-08
-7.55331e-12
3.04608e-08
-1.72948e-11
3.0458e-08
-2.65496e-11
3.04523e-08
-3.53178e-11
3.04438e-08
-4.35967e-11
3.04326e-08
-5.13749e-11
-5.86326e-11
3.04189e-08
2.25164e-08
6.00294e-11
2.2542e-08
5.00707e-11
2.25634e-08
4.0599e-11
2.25808e-08
3.14754e-11
2.25945e-08
2.27514e-11
2.26048e-08
1.4398e-11
2.26118e-08
6.39946e-12
2.26157e-08
-1.25058e-12
2.26167e-08
-8.56818e-12
2.2615e-08
-1.55548e-11
2.26106e-08
-2.21927e-11
2.26038e-08
-2.84785e-11
2.25946e-08
-3.44047e-11
2.25832e-08
-3.99562e-11
-4.51147e-11
2.25697e-08
1.64104e-08
3.81395e-11
1.64289e-08
3.15859e-11
1.64442e-08
2.53138e-11
1.64564e-08
1.92258e-11
1.64658e-08
1.33788e-11
1.64724e-08
7.7453e-12
1.64765e-08
2.3287e-12
1.64781e-08
-2.85882e-12
1.64774e-08
-7.84624e-12
1.64744e-08
-1.26135e-11
1.64694e-08
-1.71413e-11
1.64623e-08
-2.14254e-11
1.64534e-08
-2.54576e-11
1.64427e-08
-2.92225e-11
-3.27045e-11
1.64302e-08
1.167e-08
2.2837e-11
1.16828e-08
1.87391e-11
1.16933e-08
1.48184e-11
1.17016e-08
1.09939e-11
1.17076e-08
7.30885e-12
1.17117e-08
3.73689e-12
1.17137e-08
2.90821e-13
1.17138e-08
-3.01057e-12
1.17122e-08
-6.20396e-12
1.17088e-08
-9.25689e-12
1.17039e-08
-1.21548e-11
1.16973e-08
-1.48939e-11
1.16893e-08
-1.74677e-11
1.168e-08
-1.98625e-11
-2.2065e-11
1.16693e-08
8.02208e-09
1.2576e-11
8.03063e-09
1.01885e-11
8.03752e-09
7.93435e-12
8.04278e-09
5.73093e-12
8.04649e-09
3.60205e-12
8.0487e-09
1.52566e-12
8.04947e-09
-4.83559e-13
8.04887e-09
-2.40823e-12
8.04695e-09
-4.2851e-12
8.04377e-09
-6.07174e-12
8.03938e-09
-7.7721e-12
8.03387e-09
-9.37614e-12
8.02728e-09
-1.08813e-11
8.01969e-09
-1.22766e-11
-1.35502e-11
8.01118e-09
5.24249e-09
6.0679e-12
5.24786e-09
4.81917e-12
5.25211e-09
3.68501e-12
5.25527e-09
2.57732e-12
5.25736e-09
1.50357e-12
5.25844e-09
4.49471e-13
5.25853e-09
-5.77506e-13
5.25768e-09
-1.55683e-12
5.25592e-09
-2.51831e-12
5.25328e-09
-3.43393e-12
5.24981e-09
-4.30583e-12
5.24556e-09
-5.12667e-12
5.24058e-09
-5.89633e-12
5.23491e-09
-6.60674e-12
-7.24711e-12
5.22861e-09
3.14862e-09
2.29069e-12
3.15169e-09
1.75145e-12
3.15407e-09
1.30579e-12
3.15578e-09
8.71996e-13
3.15683e-09
4.48543e-13
3.15725e-09
2.82437e-14
3.15706e-09
-3.81926e-13
3.15627e-09
-7.74759e-13
3.15492e-09
-1.16006e-12
3.15301e-09
-1.52863e-12
3.15058e-09
-1.87923e-12
3.14767e-09
-2.20893e-12
3.14429e-09
-2.51782e-12
3.14048e-09
-2.80095e-12
-3.04893e-12
3.13628e-09
1.59269e-09
4.61712e-13
1.59413e-09
3.12814e-13
1.59521e-09
2.1913e-13
1.59596e-09
1.283e-13
1.59637e-09
3.69642e-14
1.59645e-09
-5.46777e-14
1.59622e-09
-1.46243e-13
1.59567e-09
-2.33091e-13
1.59483e-09
-3.18689e-13
1.59371e-09
-4.00535e-13
1.5923e-09
-4.78013e-13
1.59065e-09
-5.51475e-13
1.58875e-09
-6.1939e-13
1.58663e-09
-6.80776e-13
-7.28583e-13
1.58431e-09
4.55861e-10
4.56174e-10
4.56393e-10
4.56522e-10
4.56559e-10
4.56504e-10
4.56358e-10
4.56125e-10
4.55806e-10
4.55405e-10
4.54927e-10
4.54376e-10
4.53757e-10
4.53076e-10
4.52347e-10
1.17683e-09
-4.86374e-10
2.93876e-10
1.45216e-09
-4.21153e-10
1.45824e-10
1.72946e-09
-2.89889e-10
1.25818e-11
2.00239e-09
-1.54651e-10
-1.18276e-10
2.26921e-09
-2.05748e-11
-2.4624e-10
2.53071e-09
1.05063e-10
-3.66571e-10
2.78835e-09
2.21098e-10
-4.78736e-10
3.04334e-09
3.26817e-10
-5.81811e-10
3.29672e-09
4.21571e-10
-6.7495e-10
3.5493e-09
5.04875e-10
-7.57447e-10
3.8017e-09
5.76377e-10
-8.2878e-10
4.05447e-09
6.36117e-10
-8.88885e-10
4.30811e-09
6.84937e-10
-9.38578e-10
4.56323e-09
7.25164e-10
-9.80286e-10
4.8207e-09
7.61582e-10
-1.01906e-09
5.08196e-09
8.02955e-10
-1.06421e-09
5.34933e-09
8.63433e-10
-1.13081e-09
5.62668e-09
9.64653e-10
-1.242e-09
5.91977e-09
1.13315e-09
-1.42624e-09
6.23648e-09
1.39688e-09
-1.71359e-09
6.58529e-09
1.75677e-09
-2.10558e-09
6.97102e-09
2.15642e-09
-2.54215e-09
7.32836e-09
2.05112e-09
-2.40846e-09
7.62555e-09
1.54989e-09
-1.84709e-09
7.85884e-09
8.81895e-10
-1.11518e-09
8.02893e-09
1.42761e-10
-3.12857e-10
8.13901e-09
-5.95431e-10
4.85353e-10
8.19284e-09
-1.28656e-09
1.23273e-09
8.1938e-09
-1.90106e-09
1.9001e-09
8.14475e-09
-2.41811e-09
2.46717e-09
8.04831e-09
-2.82117e-09
2.91761e-09
7.90725e-09
-3.0968e-09
3.23786e-09
7.72465e-09
-3.23537e-09
3.41797e-09
7.50391e-09
-3.23192e-09
3.45266e-09
7.24848e-09
-3.08642e-09
3.34185e-09
6.96166e-09
-2.80316e-09
3.08998e-09
6.64626e-09
-2.38895e-09
2.70435e-09
6.30467e-09
-1.85054e-09
2.19213e-09
5.93901e-09
-1.19114e-09
1.5568e-09
5.5507e-09
-4.08348e-10
7.96662e-10
5.13698e-09
4.99736e-10
-8.6017e-11
4.68587e-09
1.51051e-09
-1.0594e-09
4.17422e-09
2.51131e-09
-1.99966e-09
3.60477e-09
3.23908e-09
-2.66963e-09
2.98612e-09
3.26167e-09
-2.64303e-09
2.44715e-09
-5.62579e-10
2.61026e-09
-5.84262e-10
2.83195e-09
-5.11579e-10
3.07973e-09
-4.02429e-10
3.3398e-09
-2.80642e-10
3.60499e-09
-1.60126e-10
3.87243e-09
-4.63508e-11
4.14107e-09
5.81814e-11
4.41063e-09
1.52016e-10
4.68116e-09
2.34341e-10
4.95286e-09
3.04675e-10
5.22599e-09
3.62993e-10
5.50086e-09
4.1006e-10
5.77798e-09
4.48045e-10
6.05814e-09
4.81423e-10
6.34273e-09
5.18362e-10
6.63412e-09
5.72047e-10
6.93624e-09
6.62532e-10
7.25508e-09
8.14308e-10
7.59889e-09
1.05306e-09
7.97673e-09
1.37894e-09
8.39405e-09
1.7391e-09
8.78124e-09
1.66393e-09
9.10451e-09
1.22662e-09
9.35979e-09
6.26616e-10
9.54753e-09
-4.49763e-11
9.67078e-09
-7.18679e-10
9.73334e-09
-1.34912e-09
9.73875e-09
-1.90647e-09
9.69019e-09
-2.36955e-09
9.59074e-09
-2.72172e-09
9.4438e-09
-2.94986e-09
9.25327e-09
-3.04484e-09
9.02357e-09
-3.00222e-09
8.75955e-09
-2.8224e-09
8.46628e-09
-2.50988e-09
8.14908e-09
-2.07176e-09
7.81403e-09
-1.51549e-09
7.46917e-09
-8.46281e-10
7.12636e-09
-6.55344e-11
6.8024e-09
8.23695e-10
6.51957e-09
1.79334e-09
6.30575e-09
2.72513e-09
6.20434e-09
3.34049e-09
3.06998e-09
6.12048e-09
4.25773e-09
-5.76833e-10
4.32956e-09
-6.56088e-10
4.47052e-09
-6.52542e-10
4.66404e-09
-5.9595e-10
4.89049e-09
-5.07087e-10
5.13741e-09
-4.07051e-10
5.39728e-09
-3.06217e-10
5.66577e-09
-2.10308e-10
5.94044e-09
-1.22662e-10
6.21995e-09
-4.51658e-11
6.50354e-09
2.10848e-11
6.79084e-09
7.56889e-11
7.08177e-09
1.1914e-10
7.37649e-09
1.53322e-10
7.67559e-09
1.82318e-10
7.98032e-09
2.13635e-10
8.29294e-09
2.59426e-10
8.61738e-09
3.38087e-10
8.95974e-09
4.71956e-10
9.32851e-09
6.8429e-10
9.73321e-09
9.74237e-10
1.01799e-08
1.29239e-09
1.05952e-08
1.24869e-09
1.09433e-08
8.7851e-10
1.12198e-08
3.50084e-10
1.14248e-08
-2.50009e-10
1.15612e-08
-8.55041e-10
1.16327e-08
-1.42057e-09
1.16429e-08
-1.9167e-09
1.15954e-08
-2.32207e-09
1.14939e-08
-2.62017e-09
1.13424e-08
-2.79841e-09
1.11459e-08
-2.84839e-09
1.09102e-08
-2.7665e-09
1.06418e-08
-2.55393e-09
1.03478e-08
-2.21597e-09
1.00369e-08
-1.76077e-09
9.71916e-09
-1.19779e-09
9.40925e-09
-5.36371e-10
9.12901e-09
2.14708e-10
8.91138e-09
1.04133e-09
8.7994e-09
1.90532e-09
8.82931e-09
2.69522e-09
8.98561e-09
3.18419e-09
2.99305e-09
9.06254e-09
6.73223e-09
-5.55619e-10
6.74231e-09
-6.66167e-10
6.80457e-09
-7.14804e-10
6.92497e-09
-7.1635e-10
7.09417e-09
-6.76282e-10
7.29869e-09
-6.11574e-10
7.52893e-09
-5.36457e-10
7.77804e-09
-4.59417e-10
8.0413e-09
-3.85927e-10
8.31558e-09
-3.19445e-10
8.59881e-09
-2.62144e-10
8.88966e-09
-2.15159e-10
9.18733e-09
-1.78527e-10
9.49148e-09
-1.50827e-10
9.80229e-09
-1.28501e-10
1.01207e-08
-1.04791e-10
1.04488e-08
-6.86579e-11
1.07903e-08
-3.43646e-12
1.11513e-08
1.1095e-10
1.15404e-08
2.95192e-10
1.19674e-08
5.47239e-10
1.24389e-08
8.20907e-10
1.28783e-08
8.09349e-10
1.32482e-08
5.08593e-10
1.35437e-08
5.45353e-11
1.37645e-08
-4.70762e-10
1.39129e-08
-1.00348e-09
1.39927e-08
-1.50033e-09
1.40076e-08
-1.93159e-09
1.39615e-08
-2.27597e-09
1.38587e-08
-2.51738e-09
1.37042e-08
-2.64399e-09
1.35043e-08
-2.64847e-09
1.32662e-08
-2.52835e-09
1.29983e-08
-2.28602e-09
1.27104e-08
-1.9281e-09
1.24142e-08
-1.46461e-09
1.21244e-08
-9.07968e-10
1.18608e-08
-2.72738e-10
1.16517e-08
4.2384e-10
1.15363e-08
1.15664e-09
1.15601e-08
1.88151e-09
1.1748e-08
2.50734e-09
1.20534e-08
2.87883e-09
2.79638e-09
1.22501e-08
1.00368e-08
-5.19011e-10
1.00077e-08
-6.37137e-10
1.0011e-08
-7.18033e-10
1.00581e-08
-7.6352e-10
1.01555e-08
-7.73681e-10
1.0298e-08
-7.53992e-10
1.04763e-08
-7.14838e-10
1.0684e-08
-6.67029e-10
1.0915e-08
-6.16937e-10
1.11649e-08
-5.69348e-10
1.14303e-08
-5.27612e-10
1.1709e-08
-4.93795e-10
1.19991e-08
-4.68673e-10
1.22998e-08
-4.51463e-10
1.26105e-08
-4.39267e-10
1.29319e-08
-4.26179e-10
1.32656e-08
-4.02362e-10
1.36151e-08
-3.52949e-10
1.39863e-08
-2.60211e-10
1.43876e-08
-1.06123e-10
1.4829e-08
1.05875e-10
1.53173e-08
3.32611e-10
1.57738e-08
3.52758e-10
1.61601e-08
1.22376e-10
1.64703e-08
-2.55702e-10
1.67035e-08
-7.03916e-10
1.68615e-08
-1.16155e-09
1.69479e-08
-1.58671e-09
1.69665e-08
-1.95018e-09
1.69216e-08
-2.23106e-09
1.68182e-08
-2.41398e-09
1.66624e-08
-2.48823e-09
1.64618e-08
-2.44784e-09
1.62253e-08
-2.29182e-09
1.59634e-08
-2.02416e-09
1.56886e-08
-1.65328e-09
1.54155e-08
-1.19151e-09
1.51621e-08
-6.54601e-10
1.49514e-08
-6.20472e-11
1.48129e-08
5.62369e-10
1.47826e-08
1.18697e-09
1.48955e-08
1.76859e-09
1.51609e-08
2.24191e-09
1.5523e-08
2.51679e-09
2.50516e-09
1.58142e-08
1.43658e-08
-4.79085e-10
1.43177e-08
-5.89008e-10
1.42833e-08
-6.83684e-10
1.42752e-08
-7.55414e-10
1.43047e-08
-8.03199e-10
1.43757e-08
-8.24916e-10
1.4487e-08
-8.26188e-10
1.46339e-08
-8.13897e-10
1.48116e-08
-7.9463e-10
1.50157e-08
-7.73455e-10
1.52424e-08
-7.54355e-10
1.54887e-08
-7.4013e-10
1.57523e-08
-7.32268e-10
1.60315e-08
-7.30669e-10
1.63255e-08
-7.33172e-10
1.66341e-08
-7.34782e-10
1.69586e-08
-7.26933e-10
1.73023e-08
-6.96583e-10
1.76705e-08
-6.28413e-10
1.80714e-08
-5.07091e-10
1.85149e-08
-3.37599e-10
1.90078e-08
-1.60271e-10
1.9471e-08
-1.10446e-10
1.98648e-08
-2.71413e-10
2.01826e-08
-5.73523e-10
2.04225e-08
-9.43766e-10
2.05857e-08
-1.32478e-09
2.06754e-08
-1.67639e-09
2.06954e-08
-1.97024e-09
2.06506e-08
-2.18621e-09
2.05466e-08
-2.31004e-09
2.03909e-08
-2.33246e-09
2.01922e-08
-2.24918e-09
1.99614e-08
-2.06102e-09
1.97111e-08
-1.77381e-09
1.94558e-08
-1.39802e-09
1.92126e-08
-9.48309e-10
1.90013e-08
-4.43272e-10
1.88448e-08
9.4384e-11
1.87694e-08
6.37763e-10
1.88017e-08
1.15468e-09
1.89618e-08
1.60853e-09
1.92463e-08
1.95736e-09
1.96063e-08
2.1568e-09
2.17551e-09
1.9936e-08
1.99491e-08
-4.418e-10
1.98978e-08
-5.37675e-10
1.98451e-08
-6.30975e-10
1.98035e-08
-7.13812e-10
1.97829e-08
-7.82614e-10
1.97918e-08
-8.3381e-10
1.98347e-08
-8.69126e-10
1.99121e-08
-8.91254e-10
2.00223e-08
-9.04829e-10
2.01628e-08
-9.14006e-10
2.03309e-08
-9.22493e-10
2.0524e-08
-9.33207e-10
2.07397e-08
-9.47988e-10
2.09763e-08
-9.67219e-10
2.12325e-08
-9.89386e-10
2.15081e-08
-1.01035e-09
2.1804e-08
-1.02281e-09
2.21229e-08
-1.0155e-09
2.247e-08
-9.75502e-10
2.2853e-08
-8.90109e-10
2.32813e-08
-7.6591e-10
2.37615e-08
-6.40482e-10
2.42162e-08
-5.65145e-10
2.46049e-08
-6.60165e-10
2.49198e-08
-8.88409e-10
2.51577e-08
-1.18161e-09
2.5319e-08
-1.48611e-09
2.54064e-08
-1.76383e-09
2.54239e-08
-1.98774e-09
2.53766e-08
-2.13891e-09
2.52712e-08
-2.20459e-09
2.5116e-08
-2.17729e-09
2.49215e-08
-2.05468e-09
2.47001e-08
-1.83957e-09
2.4466e-08
-1.53974e-09
2.42355e-08
-1.16753e-09
2.40267e-08
-7.39465e-10
2.38591e-08
-2.75737e-10
2.37534e-08
2.00122e-10
2.37293e-08
6.61855e-10
2.38025e-08
1.08146e-09
2.39795e-08
1.43155e-09
2.42491e-08
1.68771e-09
2.4574e-08
1.83194e-09
1.85844e-09
2.48911e-08
2.70573e-08
-4.08085e-10
2.70095e-08
-4.89937e-10
2.69535e-08
-5.74933e-10
2.68973e-08
-6.57577e-10
2.68486e-08
-7.33919e-10
2.68157e-08
-8.00934e-10
2.68046e-08
-8.5807e-10
2.68195e-08
-9.06094e-10
2.6862e-08
-9.47373e-10
2.69327e-08
-9.8465e-10
2.70309e-08
-1.02069e-09
2.71556e-08
-1.05789e-09
2.73055e-08
-1.09794e-09
2.74796e-08
-1.1413e-09
2.7677e-08
-1.18684e-09
2.78978e-08
-1.23108e-09
2.81428e-08
-1.26785e-09
2.84148e-08
-1.28747e-09
2.87186e-08
-1.27936e-09
2.90617e-08
-1.23319e-09
2.94529e-08
-1.15709e-09
2.98982e-08
-1.08582e-09
3.03247e-08
-9.91632e-10
3.06917e-08
-1.02717e-09
3.09895e-08
-1.18615e-09
3.12132e-08
-1.4054e-09
3.13626e-08
-1.6355e-09
3.14398e-08
-1.84096e-09
3.14485e-08
-1.9965e-09
3.13945e-08
-2.08488e-09
3.12852e-08
-2.09524e-09
3.113e-08
-2.02217e-09
3.09408e-08
-1.86547e-09
3.07312e-08
-1.62995e-09
3.05166e-08
-1.32514e-09
3.03139e-08
-9.64804e-10
3.01407e-08
-5.66286e-10
3.00147e-08
-1.49766e-10
2.99521e-08
2.62709e-10
2.99656e-08
6.48393e-10
3.00614e-08
9.85672e-10
3.02367e-08
1.25625e-09
3.04769e-08
1.44748e-09
3.07544e-08
1.55445e-09
1.58117e-09
3.10317e-08
3.60027e-08
-3.76107e-10
3.5959e-08
-4.4626e-10
3.59057e-08
-5.21599e-10
3.58469e-08
-5.98746e-10
3.57876e-08
-6.74654e-10
3.57337e-08
-7.46981e-10
3.56902e-08
-8.14606e-10
3.56617e-08
-8.77584e-10
3.56514e-08
-9.37062e-10
3.56615e-08
-9.94776e-10
3.56935e-08
-1.05266e-09
3.57481e-08
-1.11249e-09
3.58257e-08
-1.17555e-09
3.59265e-08
-1.24216e-09
3.6051e-08
-1.31131e-09
3.61998e-08
-1.37993e-09
3.63748e-08
-1.44278e-09
3.65788e-08
-1.49154e-09
3.68172e-08
-1.51773e-09
3.70971e-08
-1.51307e-09
3.7427e-08
-1.48697e-09
3.78122e-08
-1.4711e-09
3.81876e-08
-1.36695e-09
3.85129e-08
-1.35249e-09
3.87762e-08
-1.44941e-09
3.89709e-08
-1.60016e-09
3.90956e-08
-1.76022e-09
3.91519e-08
-1.89724e-09
3.91436e-08
-1.98821e-09
3.90768e-08
-2.01803e-09
3.89596e-08
-1.97803e-09
3.88025e-08
-1.86512e-09
3.86183e-08
-1.68122e-09
3.84212e-08
-1.43293e-09
3.82272e-08
-1.13107e-09
3.80523e-08
-7.89969e-10
3.79127e-08
-4.26611e-10
3.78224e-08
-5.95552e-11
3.77929e-08
2.92306e-10
3.78301e-08
6.11139e-10
3.7934e-08
8.81807e-10
3.80968e-08
1.09339e-09
3.83039e-08
1.24045e-09
3.85345e-08
1.32382e-09
1.35008e-09
3.87656e-08
4.71323e-08
-3.44192e-10
4.70911e-08
-4.05117e-10
4.70413e-08
-4.71714e-10
4.69846e-08
-5.42068e-10
4.6924e-08
-6.14119e-10
4.68632e-08
-6.86124e-10
4.68056e-08
-7.57023e-10
4.67546e-08
-8.26606e-10
4.67131e-08
-8.95493e-10
4.66832e-08
-9.64895e-10
4.66668e-08
-1.03632e-09
4.66656e-08
-1.11121e-09
4.66807e-08
-1.19068e-09
4.67135e-08
-1.27498e-09
4.67655e-08
-1.3633e-09
4.68385e-08
-1.45293e-09
4.69353e-08
-1.53953e-09
4.70596e-08
-1.61593e-09
4.72175e-08
-1.67557e-09
4.74163e-08
-1.71184e-09
4.76642e-08
-1.73495e-09
4.79664e-08
-1.77322e-09
4.82682e-08
-1.66876e-09
4.85315e-08
-1.61587e-09
4.87421e-08
-1.65997e-09
4.88916e-08
-1.74969e-09
4.89776e-08
-1.84618e-09
4.90012e-08
-1.92082e-09
4.89663e-08
-1.95334e-09
4.88794e-08
-1.93109e-09
4.87492e-08
-1.8479e-09
4.85871e-08
-1.70297e-09
4.8406e-08
-1.50015e-09
4.82205e-08
-1.24741e-09
4.80455e-08
-9.5612e-10
4.78958e-08
-6.40216e-10
4.77843e-08
-3.1515e-10
4.77215e-08
3.29263e-12
4.77136e-08
3.00144e-10
4.77622e-08
5.6257e-10
4.78632e-08
7.80842e-10
4.80073e-08
9.49208e-10
4.81815e-08
1.06628e-09
4.83704e-08
1.13498e-09
1.1617e-09
4.85587e-08
6.08171e-08
-3.12748e-10
6.07784e-08
-3.66439e-10
6.07324e-08
-4.25696e-10
6.06798e-08
-4.8955e-10
6.06225e-08
-5.56744e-10
6.05624e-08
-6.26076e-10
6.05021e-08
-6.96694e-10
6.04438e-08
-7.68282e-10
6.03894e-08
-8.41145e-10
6.03406e-08
-9.16113e-10
6.02987e-08
-9.94396e-10
6.02647e-08
-1.07723e-09
6.02398e-08
-1.16573e-09
6.0225e-08
-1.26025e-09
6.02222e-08
-1.36043e-09
6.02333e-08
-1.46407e-09
6.02617e-08
-1.56794e-09
6.03118e-08
-1.66603e-09
6.039e-08
-1.75371e-09
6.05039e-08
-1.82579e-09
6.06618e-08
-1.8928e-09
6.08681e-08
-1.97954e-09
6.10816e-08
-1.88229e-09
6.1268e-08
-1.80221e-09
6.14112e-08
-1.80319e-09
6.15018e-08
-1.84031e-09
6.15368e-08
-1.88112e-09
6.15172e-08
-1.90123e-09
6.14472e-08
-1.88334e-09
6.13336e-08
-1.8175e-09
6.11858e-08
-1.70009e-09
6.10152e-08
-1.53242e-09
6.08349e-08
-1.31985e-09
6.06585e-08
-1.07102e-09
6.04995e-08
-7.9705e-10
6.03698e-08
-5.10556e-10
6.02793e-08
-2.24633e-10
6.02344e-08
4.8238e-11
6.02375e-08
2.9698e-10
6.02871e-08
5.1303e-10
6.03773e-08
6.90643e-10
6.04992e-08
8.27296e-10
6.06419e-08
9.23597e-10
6.07939e-08
9.82933e-10
1.01065e-09
6.09449e-08
7.74543e-08
-2.84555e-10
7.74205e-08
-3.32634e-10
7.73808e-08
-3.8595e-10
7.73353e-08
-4.44116e-10
7.72851e-08
-5.06485e-10
7.72313e-08
-5.72335e-10
7.71757e-08
-6.41086e-10
7.71199e-08
-7.12442e-10
7.70653e-08
-7.86528e-10
7.7013e-08
-8.63846e-10
7.69639e-08
-9.45292e-10
7.69185e-08
-1.03181e-09
7.68772e-08
-1.12444e-09
7.68405e-08
-1.22357e-09
7.68093e-08
-1.32927e-09
7.67851e-08
-1.43987e-09
7.67706e-08
-1.5534e-09
7.67696e-08
-1.66507e-09
7.67881e-08
-1.77219e-09
7.68333e-08
-1.87101e-09
7.69124e-08
-1.97189e-09
7.70292e-08
-2.09628e-09
7.71552e-08
-2.00832e-09
7.72617e-08
-1.90868e-09
7.73327e-08
-1.87421e-09
7.73586e-08
-1.8662e-09
7.73368e-08
-1.85937e-09
7.72692e-08
-1.83358e-09
7.71602e-08
-1.77438e-09
7.70173e-08
-1.67457e-09
7.68501e-08
-1.53289e-09
7.667e-08
-1.35234e-09
7.64892e-08
-1.13911e-09
7.632e-08
-9.01776e-10
7.61733e-08
-6.5038e-10
7.60584e-08
-3.95592e-10
7.59815e-08
-1.4778e-10
7.59459e-08
8.38438e-11
7.59514e-08
2.91523e-10
7.59944e-08
4.69958e-10
7.6069e-08
6.16063e-10
7.61672e-08
7.29135e-10
7.62802e-08
8.10584e-10
7.63996e-08
8.63554e-10
8.92269e-10
7.65179e-08
9.74974e-08
-2.63195e-10
9.74719e-08
-3.07086e-10
9.74417e-08
-3.55813e-10
9.74069e-08
-4.09336e-10
9.73679e-08
-4.6743e-10
9.73253e-08
-5.29763e-10
9.72803e-08
-5.9604e-10
9.72339e-08
-6.66082e-10
9.71874e-08
-7.39973e-10
9.71415e-08
-8.17997e-10
9.7097e-08
-9.00806e-10
9.70542e-08
-9.89004e-10
9.70133e-08
-1.08351e-09
9.69742e-08
-1.18449e-09
9.69373e-08
-1.29239e-09
9.69032e-08
-1.40574e-09
9.68735e-08
-1.52377e-09
9.6851e-08
-1.64249e-09
9.684e-08
-1.76118e-09
9.68462e-08
-1.87721e-09
9.68745e-08
-2.00025e-09
9.69269e-08
-2.14867e-09
9.69844e-08
-2.06576e-09
9.70243e-08
-1.94867e-09
9.70324e-08
-1.88224e-09
9.69998e-08
-1.83362e-09
9.69266e-08
-1.78621e-09
9.68158e-08
-1.7228e-09
9.66727e-08
-1.63119e-09
9.6505e-08
-1.50689e-09
9.63227e-08
-1.3506e-09
9.61366e-08
-1.16631e-09
9.59578e-08
-9.60298e-10
9.57963e-08
-7.40294e-10
9.56607e-08
-5.1471e-10
9.5557e-08