/*--------------------------------*- C++ -*----------------------------------*\
| =========                 |                                                 |
| \\      /  F ield         | OpenFOAM: The Open Source CFD Toolbox           |
|  \\    /   O peration     | Version:  2312                                  |
|   \\  /    A nd           | Website:  www.openfoam.com                      |
|    \\/     M anipulation  |                                                 |
\*---------------------------------------------------------------------------*/
FoamFile
{
    version     2.0;
    format      ascii;
    arch        "LSB;label=32;scalar=64";
    class       volVectorField;
    location    "6.5";
    object      U;
}
// * * * * * * * * * * * * * * * * * * * * * * * * * * * * * * * * * * * * * //

dimensions      [0 1 -1 0 0 0 0];

internalField   nonuniform List<vector> 
4800
(
(0.000463077 3.13264e-07 -2.67951e-26)
(0.00045541 3.43502e-07 -1.88342e-25)
(0.000450791 3.55031e-07 2.41735e-25)
(0.000448204 3.4562e-07 1.10575e-25)
(0.000447047 3.27621e-07 1.63305e-24)
(0.000447067 2.95202e-07 -3.88929e-24)
(0.000448014 2.55556e-07 3.64314e-24)
(0.000449793 1.79145e-07 -5.28905e-24)
(0.000452486 2.3248e-08 1.69579e-24)
(0.000456274 -2.41594e-07 5.78704e-24)
(0.000461562 -7.53559e-07 -1.78332e-24)
(0.000469634 -2.1584e-06 -1.51024e-25)
(0.000487698 -7.32973e-06 -2.17611e-24)
(0.00053361 -2.8208e-05 1.01239e-24)
(0.00060952 -9.1705e-05 -8.04912e-25)
(0.00143187 1.63519e-06 -8.52496e-26)
(0.00140843 1.18287e-06 1.06253e-25)
(0.00139407 8.22421e-07 -9.7969e-25)
(0.00138576 4.95867e-07 7.32056e-25)
(0.00138171 1.78962e-07 2.35205e-24)
(0.00138111 -1.65524e-07 -3.73442e-24)
(0.00138315 -5.61468e-07 -1.06687e-24)
(0.00138758 -1.08754e-06 -2.55469e-25)
(0.00139464 -1.9135e-06 8.78688e-24)
(0.00140474 -3.2403e-06 -6.49257e-24)
(0.00141907 -5.70807e-06 7.06739e-25)
(0.00144038 -1.15583e-05 1.07801e-24)
(0.00147754 -2.84372e-05 -1.5947e-24)
(0.0015412 -7.97999e-05 -4.83079e-25)
(0.0016098 -0.000195486 2.08609e-24)
(0.00250275 5.257e-06 -6.10318e-26)
(0.00246239 3.79708e-06 6.23633e-26)
(0.00243732 2.66325e-06 6.41264e-25)
(0.00242245 1.67838e-06 -1.52931e-24)
(0.00241475 7.01762e-07 1.50134e-24)
(0.00241276 -3.64689e-07 1.39972e-24)
(0.00241512 -1.59933e-06 -3.61679e-24)
(0.00242127 -3.22871e-06 -2.26958e-24)
(0.00243165 -5.61752e-06 5.45069e-24)
(0.00244649 -9.31342e-06 2.05607e-24)
(0.00246718 -1.58134e-05 -7.14862e-24)
(0.00249589 -2.90983e-05 -1.08488e-24)
(0.00253673 -5.86881e-05 3.05411e-24)
(0.00258852 -0.000123833 4.83439e-24)
(0.00262618 -0.000232042 -2.49778e-24)
(0.0036817 1.17637e-05 2.25625e-26)
(0.00362361 8.60391e-06 -1.57109e-25)
(0.003587 6.15839e-06 7.00741e-25)
(0.00356473 4.04869e-06 7.50283e-25)
(0.00355256 1.97578e-06 -7.44946e-25)
(0.00354818 -2.88227e-07 -4.23228e-24)
(0.00354995 -2.78238e-06 -2.86516e-24)
(0.00355657 -6.09357e-06 1.09594e-23)
(0.0035687 -1.08366e-05 4.57231e-24)
(0.00358597 -1.78292e-05 -6.56598e-24)
(0.0036092 -2.92281e-05 -2.64568e-24)
(0.00363883 -4.95676e-05 -2.01916e-24)
(0.00367411 -8.68312e-05 6.04246e-26)
(0.00370791 -0.00015095 1.49347e-24)
(0.003722 -0.000236912 7.30006e-27)
(0.00497259 2.17847e-05 -4.14073e-26)
(0.00489669 1.60959e-05 -2.53256e-25)
(0.00484808 1.17012e-05 -1.60284e-25)
(0.00481775 7.92963e-06 4.33084e-25)
(0.00480033 4.28249e-06 -1.23228e-24)
(0.00479253 4.36771e-07 3.07548e-24)
(0.00479264 -4.00244e-06 -5.36587e-25)
(0.0047984 -9.34734e-06 1.8878e-24)
(0.00481033 -1.69356e-05 -1.05856e-23)
(0.00482741 -2.75563e-05 2.00979e-23)
(0.00484944 -4.34737e-05 -1.94465e-23)
(0.00487516 -6.84204e-05 1.02641e-23)
(0.00490119 -0.000107224 -9.52643e-24)
(0.00491986 -0.00016292 8.98727e-24)
(0.00492085 -0.000227922 -3.58388e-24)
(0.00637554 3.60279e-05 5.4709e-26)
(0.00628308 2.69004e-05 1.95864e-25)
(0.00622285 1.98549e-05 -1.0336e-24)
(0.0061843 1.38385e-05 -6.54748e-25)
(0.00616111 8.12049e-06 1.75598e-24)
(0.00614916 2.15171e-06 6.3052e-25)
(0.00614623 -4.45809e-06 -4.92886e-24)
(0.00614999 -1.24146e-05 1.17683e-23)
(0.00615982 -2.29492e-05 -1.53394e-23)
(0.00617428 -3.69734e-05 3.67716e-24)
(0.00619223 -5.63071e-05 1.11945e-23)
(0.00621139 -8.3232e-05 -1.55526e-23)
(0.00622791 -0.000119633 7.78824e-24)
(0.00623607 -0.00016497 7.98289e-24)
(0.00623115 -0.000213025 -6.07669e-24)
(0.00788477 5.50032e-05 4.52416e-26)
(0.00777928 4.15543e-05 -2.67604e-25)
(0.0077092 3.11565e-05 9.58486e-25)
(0.0076632 2.231e-05 -1.3299e-24)
(0.00763434 1.40328e-05 -4.52126e-24)
(0.00761795 5.54342e-06 7.70834e-24)
(0.00761121 -3.63492e-06 -4.68294e-24)
(0.00761172 -1.43446e-05 1.59481e-23)
(0.00761795 -2.76985e-05 -1.08463e-23)
(0.00762806 -4.45136e-05 -5.07203e-24)
(0.00764026 -6.5904e-05 -9.98109e-24)
(0.00765207 -9.2773e-05 9.17657e-24)
(0.00766034 -0.000125104 2.58137e-24)
(0.0076616 -0.000161109 2.20804e-24)
(0.00765432 -0.000196628 -1.9429e-24)
(0.00948633 7.86158e-05 -6.52014e-26)
(0.0093745 6.01949e-05 8.85516e-25)
(0.00929852 4.58719e-05 -2.06166e-24)
(0.00924736 3.36996e-05 -1.68914e-24)
(0.00921403 2.24478e-05 6.31563e-25)
(0.00919369 1.1152e-05 1.24373e-24)
(0.00918311 -8.21686e-07 4.4684e-24)
(0.00917973 -1.4239e-05 -1.21785e-23)
(0.00918157 -3.00624e-05 -6.50387e-24)
(0.00918652 -4.88431e-05 1.78892e-23)
(0.00919256 -7.1016e-05 -5.54675e-24)
(0.00919749 -9.65401e-05 1.89663e-23)
(0.00919922 -0.000124554 -9.98474e-24)
(0.00919588 -0.00015326 -3.18156e-24)
(0.0091875 -0.000180139 1.88365e-24)
(0.011157 0.000105627 -8.61928e-27)
(0.0110492 8.21327e-05 4.89465e-25)
(0.0109739 6.36466e-05 -6.96996e-25)
(0.0109219 4.78894e-05 1.671e-24)
(0.0108868 3.3435e-05 -9.9674e-24)
(0.0108642 1.92091e-05 1.05249e-23)
(0.0108507 4.47159e-06 -1.65947e-23)
(0.0108439 -1.14375e-05 1.02003e-23)
(0.0108415 -2.92146e-05 7.58974e-24)
(0.0108416 -4.91204e-05 1.64804e-23)
(0.0108421 -7.11032e-05 -2.15249e-23)
(0.0108415 -9.46609e-05 -3.98087e-24)
(0.0108385 -0.000118786 1.83824e-24)
(0.0108321 -0.000142129 1.31195e-23)
(0.010823 -0.000163263 -5.33516e-24)
(0.0128672 0.000133141 4.71781e-26)
(0.0127761 0.000105363 -2.05344e-25)
(0.0127104 8.30626e-05 9.18651e-25)
(0.0126636 6.38824e-05 -3.2224e-24)
(0.0126311 4.63301e-05 4.8857e-24)
(0.0126092 2.93174e-05 -6.31002e-24)
(0.0125951 1.20987e-05 1.05656e-23)
(0.0125864 -5.87182e-06 1.85373e-24)
(0.0125812 -2.4985e-05 -1.45665e-23)
(0.0125776 -4.52774e-05 2.07452e-23)
(0.0125743 -6.6449e-05 -2.28782e-23)
(0.0125699 -8.78959e-05 -6.73284e-24)
(0.012564 -0.000108789 1.18758e-23)
(0.0125559 -0.00012827 3.521e-24)
(0.0125466 -0.000145584 -1.5378e-24)
(0.0145911 0.00015674 1.87639e-25)
(0.0145277 0.000126424 -1.59606e-24)
(0.01448 0.000101377 -2.56982e-24)
(0.014445 7.94875e-05 6.09045e-24)
(0.0144201 5.93871e-05 2.72441e-24)
(0.0144029 4.00917e-05 -1.71117e-23)
(0.0143911 2.09546e-05 5.27107e-24)
(0.0143831 1.56663e-06 3.79654e-24)
(0.0143772 -1.82106e-05 -1.64178e-23)
(0.0143722 -3.82824e-05 1.71019e-23)
(0.0143671 -5.82935e-05 -1.36808e-23)
(0.0143612 -7.77349e-05 3.51433e-23)
(0.0143542 -9.60396e-05 -1.68891e-23)
(0.0143458 -0.000112732 9.9378e-24)
(0.014337 -0.00012745 -2.71123e-24)
(0.0163219 0.00017221 -6.92839e-26)
(0.0162892 0.000141409 1.07584e-24)
(0.0162634 0.000115109 -2.11426e-24)
(0.0162442 9.16478e-05 -1.07709e-24)
(0.0162304 6.99333e-05 1.20295e-23)
(0.0162208 4.91929e-05 -1.74573e-24)
(0.0162141 2.89464e-05 -2.13973e-23)
(0.0162091 8.95053e-06 2.49587e-23)
(0.016205 -1.08045e-05 -5.608e-24)
(0.0162009 -3.01609e-05 -1.94022e-23)
(0.0161963 -4.88164e-05 2.06935e-23)
(0.0161908 -6.64246e-05 1.11516e-23)
(0.0161845 -8.26528e-05 -9.38232e-24)
(0.0161772 -9.72799e-05 -1.6239e-23)
(0.0161697 -0.000110166 1.36246e-24)
(0.0180792 0.000178597 -2.57077e-27)
(0.0180695 0.00014848 -1.19541e-24)
(0.0180619 0.000122052 5.73042e-24)
(0.0180566 9.80508e-05 3.7045e-25)
(0.0180533 7.5674e-05 3.28583e-24)
(0.0180515 5.43865e-05 -1.17453e-23)
(0.0180504 3.38802e-05 1.00391e-23)
(0.0180495 1.40455e-05 2.28691e-24)
(0.0180483 -5.07881e-06 2.06434e-23)
(0.0180464 -2.33434e-05 -3.18925e-23)
(0.0180437 -4.0541e-05 -1.44322e-23)
(0.0180399 -5.64785e-05 -9.53476e-24)
(0.0180355 -7.09955e-05 1.79557e-23)
(0.0180301 -8.40243e-05 -5.16206e-25)
(0.0180246 -9.5545e-05 1.73949e-24)
(0.0198896 0.000179238 -1.77574e-26)
(0.0198903 0.000149712 1.21533e-24)
(0.0198917 0.000123389 -1.77246e-24)
(0.0198938 9.92673e-05 -7.58922e-28)
(0.0198966 7.67516e-05 2.37225e-24)
(0.0198993 5.54835e-05 6.04982e-24)
(0.0199018 3.52769e-05 -2.34611e-23)
(0.0199037 1.60789e-05 1.97733e-24)
(0.0199046 -2.07257e-06 1.19328e-23)
(0.0199045 -1.90915e-05 -5.49456e-24)
(0.0199036 -3.48722e-05 1.50036e-23)
(0.0199015 -4.93408e-05 1.05e-23)
(0.0198988 -6.2452e-05 -1.90531e-23)
(0.0198953 -7.42238e-05 1.3028e-23)
(0.0198916 -8.46977e-05 -1.08302e-23)
(0.0217477 0.000178228 -5.27606e-25)
(0.0217507 0.000148985 2.7675e-25)
(0.0217541 0.000122642 2.10551e-24)
(0.0217579 9.84339e-05 -1.09456e-23)
(0.0217617 7.59258e-05 9.65098e-24)
(0.0217653 5.48739e-05 -7.0728e-24)
(0.0217683 3.51511e-05 5.06928e-24)
(0.0217705 1.67084e-05 -3.60492e-23)
(0.0217719 -4.62779e-07 5.20321e-23)
(0.0217722 -1.63476e-05 -3.06661e-23)
(0.0217718 -3.09328e-05 2.73942e-23)
(0.0217705 -4.42316e-05 2.29093e-23)
(0.0217687 -5.62709e-05 -4.00238e-23)
(0.0217661 -6.71152e-05 1.3021e-23)
(0.0217635 -7.6835e-05 -5.47011e-25)
(0.0235982 0.000176759 -1.87045e-26)
(0.0236022 0.000148098 -1.59648e-25)
(0.0236059 0.000121986 1.21186e-25)
(0.0236093 9.7934e-05 -3.01591e-25)
(0.0236125 7.56571e-05 3.93101e-24)
(0.0236152 5.49943e-05 -6.76453e-24)
(0.0236174 3.58475e-05 6.3019e-24)
(0.0236188 1.81507e-05 -1.9977e-23)
(0.0236195 1.84904e-06 4.54898e-23)
(0.0236193 -1.31068e-05 -5.82673e-23)
(0.0236186 -2.6772e-05 4.77577e-23)
(0.0236172 -3.92141e-05 -1.61336e-23)
(0.0236155 -5.05003e-05 8.38738e-25)
(0.0236132 -6.07177e-05 3.701e-24)
(0.0236109 -6.99485e-05 -7.10039e-24)
(0.0253495 0.000173754 -1.54831e-24)
(0.0253555 0.00014637 2.78855e-24)
(0.02536 0.000121101 -9.37934e-25)
(0.0253636 9.77334e-05 -1.51427e-24)
(0.0253666 7.61226e-05 6.18524e-24)
(0.0253688 5.61669e-05 -6.30287e-24)
(0.0253703 3.77844e-05 -5.70051e-24)
(0.0253711 2.08939e-05 -1.37952e-23)
(0.0253713 5.41341e-06 7.02249e-24)
(0.0253708 -8.7458e-06 3.35922e-23)
(0.0253698 -2.16774e-05 -1.7747e-23)
(0.0253682 -3.34737e-05 1.05926e-23)
(0.0253665 -4.42196e-05 -4.35954e-24)
(0.0253642 -5.40087e-05 -1.29282e-23)
(0.025362 -6.29245e-05 6.61911e-24)
(0.0268861 0.000168146 5.08313e-25)
(0.0268942 0.000142746 -8.82676e-25)
(0.0269001 0.000118989 -2.61566e-25)
(0.0269044 9.68951e-05 -7.31914e-25)
(0.0269076 7.64364e-05 -1.83856e-24)
(0.0269098 5.7553e-05 9.54807e-24)
(0.0269113 4.01753e-05 -7.6903e-24)
(0.0269121 2.42116e-05 -4.96839e-24)
(0.0269122 9.57071e-06 4.55143e-24)
(0.0269116 -3.85174e-06 -5.37589e-24)
(0.0269107 -1.61468e-05 1.25276e-23)
(0.0269092 -2.74128e-05 6.36117e-24)
(0.0269075 -3.77401e-05 -2.37433e-23)
(0.0269055 -4.72197e-05 1.64088e-23)
(0.0269034 -5.59273e-05 -3.34753e-24)
(0.0280582 0.000159758 1.50167e-24)
(0.028068 0.000136893 2.53211e-24)
(0.0280751 0.000115219 -5.64033e-24)
(0.0280802 9.49162e-05 -2.97257e-25)
(0.028084 7.6041e-05 1.29293e-24)
(0.0280867 5.85669e-05 -2.90176e-24)
(0.0280884 4.24388e-05 -4.63087e-24)
(0.0280894 2.75675e-05 1.00318e-23)
(0.0280897 1.38659e-05 1.12135e-23)
(0.0280894 1.23035e-06 -2.72389e-23)
(0.0280887 -1.04225e-05 1.57137e-23)
(0.0280876 -2.11874e-05 -1.09918e-24)
(0.0280862 -3.1145e-05 -9.16874e-25)
(0.0280844 -4.03726e-05 1.23684e-24)
(0.0280826 -4.89312e-05 -5.70859e-25)
(0.0286632 0.000147172 -3.93673e-24)
(0.0286748 0.000127276 -8.46672e-24)
(0.0286834 0.000108163 4.56392e-24)
(0.0286898 9.00997e-05 1.54178e-23)
(0.0286947 7.31891e-05 -4.30206e-24)
(0.0286983 5.74364e-05 -1.19959e-24)
(0.0287009 4.28016e-05 5.54086e-25)
(0.0287027 2.92161e-05 -4.48962e-24)
(0.0287037 1.66058e-05 1.21676e-23)
(0.0287041 4.88983e-06 -5.37847e-24)
(0.028704 -6.00709e-06 3.22922e-24)
(0.0287033 -1.61632e-05 -5.10501e-24)
(0.0287022 -2.56382e-05 -5.85099e-24)
(0.0287007 -3.44919e-05 8.76563e-24)
(0.028699 -4.2771e-05 -3.83316e-24)
(0.0284848 0.000133101 6.23792e-24)
(0.0284969 0.000116147 -1.43305e-23)
(0.0285063 9.96486e-05 2.34867e-24)
(0.0285135 8.38975e-05 2.06592e-23)
(0.0285191 6.90147e-05 -2.00303e-23)
(0.0285234 5.50277e-05 6.96168e-24)
(0.0285267 4.19091e-05 4.47947e-24)
(0.0285291 2.9613e-05 -1.00857e-23)
(0.0285307 1.80811e-05 2.37323e-24)
(0.0285317 7.26423e-06 1.11227e-24)
(0.0285321 -2.88963e-06 -1.01541e-24)
(0.028532 -1.24128e-05 2.13697e-24)
(0.0285313 -2.1346e-05 -2.62341e-24)
(0.0285304 -2.97412e-05 1.78234e-24)
(0.0285291 -3.764e-05 -8.27531e-25)
(0.0275541 0.000117745 3.86896e-24)
(0.0275671 0.000103488 -8.16033e-24)
(0.0275771 8.9482e-05 -5.61459e-24)
(0.0275849 7.59915e-05 2.63821e-23)
(0.0275909 6.31359e-05 -2.42078e-23)
(0.0275955 5.09443e-05 2.58708e-24)
(0.0275988 3.94061e-05 4.04129e-24)
(0.0276011 2.84871e-05 2.16857e-24)
(0.0276026 1.81555e-05 1.68785e-24)
(0.0276033 8.37612e-06 -7.68878e-24)
(0.0276034 -8.72202e-07 4.94478e-24)
(0.0276031 -9.62153e-06 7.3379e-25)
(0.0276022 -1.79021e-05 -1.64754e-24)
(0.027601 -2.57454e-05 9.09134e-25)
(0.0275993 -3.31748e-05 5.91233e-25)
(0.0260717 0.000102397 9.62383e-24)
(0.026085 9.0495e-05 -1.70871e-23)
(0.0260957 7.87178e-05 3.48881e-24)
(0.0261043 6.72887e-05 -8.27818e-24)
(0.0261113 5.63105e-05 -1.06884e-23)
(0.0261168 4.58129e-05 3.62662e-23)
(0.0261211 3.57954e-05 -1.39957e-23)
(0.0261244 2.624e-05 3.90015e-24)
(0.0261268 1.71319e-05 -2.13274e-24)
(0.0261285 8.44658e-06 -4.94211e-24)
(0.0261294 1.66097e-07 8.98395e-24)
(0.0261297 -7.74875e-06 -4.41597e-24)
(0.0261294 -1.53091e-05 6.91657e-25)
(0.0261287 -2.25229e-05 2.25148e-25)
(0.0261274 -2.93943e-05 2.1614e-26)
(0.0242726 8.90365e-05 3.70549e-24)
(0.0242859 7.90582e-05 -1.91452e-23)
(0.0242969 6.91109e-05 3.31926e-23)
(0.024306 5.93778e-05 -2.53157e-23)
(0.0243134 4.99431e-05 2.52384e-23)
(0.0243194 4.08405e-05 -8.39042e-24)
(0.0243241 3.20752e-05 -5.77757e-24)
(0.0243279 2.36463e-05 -6.2487e-24)
(0.0243307 1.55422e-05 1.07937e-23)
(0.0243326 7.75618e-06 -6.10759e-25)
(0.0243339 2.70001e-07 -1.00096e-23)
(0.0243344 -6.91292e-06 -1.07099e-24)
(0.0243343 -1.37969e-05 1.93581e-24)
(0.0243337 -2.03871e-05 -3.2827e-25)
(0.0243325 -2.66825e-05 4.79914e-26)
(0.0222924 7.66564e-05 4.93176e-25)
(0.0223059 6.82846e-05 -7.20578e-24)
(0.0223172 5.98787e-05 -4.02252e-24)
(0.0223267 5.15831e-05 3.28758e-23)
(0.0223345 4.34714e-05 -3.22994e-23)
(0.022341 3.5578e-05 9.43253e-24)
(0.0223462 2.79199e-05 1.58625e-24)
(0.0223504 2.05035e-05 -8.27714e-25)
(0.0223535 1.33321e-05 -3.84113e-24)
(0.0223559 6.4052e-06 1.64971e-23)
(0.0223574 -2.74145e-07 -1.30722e-23)
(0.0223581 -6.70311e-06 -5.13806e-25)
(0.0223582 -1.28798e-05 1.05463e-24)
(0.0223577 -1.88038e-05 6.88324e-25)
(0.0223566 -2.44709e-05 -5.10268e-25)
(0.0202335 6.51212e-05 7.34099e-25)
(0.0202472 5.80894e-05 6.6978e-24)
(0.0202589 5.09892e-05 -7.68579e-24)
(0.0202688 4.39337e-05 -5.3146e-24)
(0.0202771 3.69854e-05 3.37943e-23)
(0.0202841 3.01791e-05 -2.58456e-23)
(0.0202898 2.35385e-05 -5.9516e-25)
(0.0202944 1.7076e-05 -5.31036e-24)
(0.020298 1.08033e-05 -4.0429e-25)
(0.0203006 4.72361e-06 7.7635e-25)
(0.0203024 -1.14956e-06 -2.70037e-24)
(0.0203035 -6.81927e-06 2.30409e-24)
(0.0203037 -1.22785e-05 8.30307e-25)
(0.0203033 -1.75212e-05 7.05066e-25)
(0.0203021 -2.25401e-05 6.30728e-25)
(0.0181708 5.43764e-05 5.23266e-24)
(0.0181847 4.84746e-05 -8.02349e-24)
(0.0181967 4.24965e-05 -6.43863e-24)
(0.018207 3.65282e-05 1.96369e-23)
(0.0182158 3.0619e-05 -7.03337e-24)
(0.0182232 2.48029e-05 -9.87764e-24)
(0.0182294 1.91051e-05 3.45703e-24)
(0.0182344 1.35418e-05 7.68949e-24)
(0.0182383 8.1262e-06 -1.21839e-23)
(0.0182412 2.86357e-06 1.20056e-23)
(0.0182433 -2.23259e-06 -6.34439e-24)
(0.0182444 -7.15996e-06 2.66387e-24)
(0.0182448 -1.19088e-05 -3.30703e-24)
(0.0182444 -1.64705e-05 3.1782e-24)
(0.0182432 -2.08357e-05 -7.16605e-25)
(0.0161568 4.43962e-05 -1.01568e-24)
(0.0161708 3.94705e-05 -3.52501e-24)
(0.0161831 3.44778e-05 -1.12317e-23)
(0.0161936 2.94785e-05 3.13568e-23)
(0.0162027 2.45086e-05 -5.6235e-24)
(0.0162104 1.96017e-05 -8.83242e-24)
(0.0162168 1.47795e-05 3.05057e-24)
(0.016222 1.00635e-05 -4.42567e-24)
(0.0162261 5.45881e-06 -9.50444e-24)
(0.0162291 9.88894e-07 9.15759e-24)
(0.0162312 -3.35594e-06 4.37684e-25)
(0.0162324 -7.55975e-06 -2.82443e-24)
(0.0162326 -1.1608e-05 3.22574e-24)
(0.016232 -1.54921e-05 1.76692e-25)
(0.0162306 -1.92028e-05 -2.26897e-25)
(0.0142264 3.52682e-05 3.9087e-24)
(0.0142402 3.12082e-05 5.75034e-24)
(0.0142524 2.70977e-05 -5.36117e-24)
(0.0142629 2.29724e-05 -1.17086e-23)
(0.014272 1.88606e-05 1.57562e-23)
(0.0142796 1.47928e-05 -1.72409e-23)
(0.0142859 1.07897e-05 -6.63638e-25)
(0.014291 6.86889e-06 6.67757e-24)
(0.014295 3.03858e-06 2.32118e-24)
(0.0142978 -6.83054e-07 -4.76932e-24)
(0.0142997 -4.30145e-06 3.45452e-26)
(0.0143005 -7.79727e-06 9.6337e-24)
(0.0143004 -1.11578e-05 -3.67818e-24)
(0.0142993 -1.43756e-05 -9.07929e-25)
(0.0142974 -1.74416e-05 -5.40257e-26)
(0.0124006 2.71595e-05 -4.06019e-24)
(0.0124138 2.38789e-05 5.22668e-24)
(0.0124254 2.05638e-05 5.88299e-25)
(0.0124355 1.72301e-05 1.05821e-23)
(0.0124441 1.3903e-05 -8.62583e-24)
(0.0124513 1.06088e-05 6.88116e-25)
(0.0124572 7.36673e-06 -9.26225e-25)
(0.0124618 4.18771e-06 -2.7123e-24)
(0.0124653 1.08812e-06 2.36239e-24)
(0.0124677 -1.93744e-06 -7.62517e-24)
(0.0124689 -4.86271e-06 5.45383e-25)
(0.0124692 -7.68129e-06 1.81807e-24)
(0.0124684 -1.03861e-05 1.12397e-24)
(0.0124667 -1.29698e-05 4.33432e-25)
(0.0124641 -1.54228e-05 1.49791e-25)
(0.0106903 2.02246e-05 3.00725e-24)
(0.0107025 1.76429e-05 -2.37902e-24)
(0.0107132 1.50389e-05 -1.04642e-23)
(0.0107224 1.24154e-05 9.82541e-24)
(0.0107302 9.79714e-06 1.37335e-23)
(0.0107366 7.20557e-06 -3.4799e-24)
(0.0107417 4.65548e-06 -7.10099e-24)
(0.0107456 2.15646e-06 -9.96196e-24)
(0.0107483 -2.79125e-07 7.51192e-24)
(0.0107499 -2.65375e-06 4.3715e-25)
(0.0107504 -4.94376e-06 -1.68255e-24)
(0.0107499 -7.14446e-06 -4.49665e-25)
(0.0107484 -9.25092e-06 9.25742e-25)
(0.0107459 -1.12563e-05 -3.59397e-26)
(0.0107425 -1.31518e-05 -1.72848e-25)
(0.00910015 1.45324e-05 -1.89236e-24)
(0.00911096 1.25647e-05 -1.34931e-24)
(0.00912037 1.05824e-05 1.64193e-24)
(0.00912837 8.58264e-06 -5.21636e-24)
(0.00913504 6.58926e-06 1.71219e-23)
(0.00914043 4.61789e-06 -2.27166e-23)
(0.00914458 2.67905e-06 2.2297e-23)
(0.00914757 7.82836e-07 -9.4473e-24)
(0.00914941 -1.06867e-06 2.14907e-24)
(0.00915016 -2.86439e-06 2.82142e-26)
(0.00914986 -4.59362e-06 -1.67733e-24)
(0.00914857 -6.25168e-06 5.56955e-25)
(0.0091463 -7.8337e-06 -1.268e-24)
(0.00914312 -9.33369e-06 -1.63365e-25)
(0.00913905 -1.07444e-05 8.12171e-26)
(0.00763028 1.00461e-05 -9.19272e-25)
(0.00763949 8.60051e-06 2.35344e-25)
(0.00764746 7.14604e-06 5.1223e-25)
(0.00765414 5.67801e-06 -2.38021e-24)
(0.0076596 4.21808e-06 -1.07596e-24)
(0.00766388 2.77556e-06 9.30498e-24)
(0.00766702 1.35824e-06 -5.47216e-24)
(0.00766907 -2.47327e-08 7.84458e-25)
(0.00767005 -1.37602e-06 -7.59441e-25)
(0.00767001 -2.68196e-06 -8.18068e-25)
(0.007669 -3.93719e-06 -2.34993e-25)
(0.00766705 -5.13756e-06 1.54378e-24)
(0.0076642 -6.27889e-06 3.76936e-25)
(0.00766051 -7.35625e-06 -9.0629e-25)
(0.00765598 -8.36421e-06 -1.35472e-25)
(0.00627845 6.64535e-06 -3.34162e-25)
(0.00628603 5.62762e-06 -1.10728e-25)
(0.00629251 4.60635e-06 -5.39111e-24)
(0.00629787 3.57645e-06 1.42473e-24)
(0.00630213 2.55552e-06 -3.88617e-24)
(0.00630535 1.54728e-06 2.71457e-24)
(0.00630754 5.58148e-07 5.14953e-24)
(0.00630875 -4.05357e-07 3.86263e-24)
(0.006309 -1.34586e-06 -5.41516e-24)
(0.00630834 -2.25336e-06 1.63248e-24)
(0.0063068 -3.12358e-06 1.38421e-24)
(0.00630442 -3.95336e-06 -1.97164e-24)
(0.00630124 -4.73966e-06 1.05009e-24)
(0.0062973 -5.47857e-06 -7.02853e-26)
(0.00629262 -6.16616e-06 2.54101e-25)
(0.0050407 4.16439e-06 -1.3081e-24)
(0.0050467 3.4841e-06 -1.7933e-24)
(0.00505178 2.80594e-06 -3.27136e-25)
(0.00505589 2.12377e-06 4.46195e-24)
(0.00505907 1.44996e-06 -3.16066e-24)
(0.00506134 7.84177e-07 -6.15204e-25)
(0.00506274 1.32821e-07 5.09278e-24)
(0.00506328 -5.01247e-07 1.33829e-26)
(0.00506301 -1.11992e-06 -1.03234e-24)
(0.00506194 -1.71591e-06 -3.7665e-24)
(0.00506011 -2.28612e-06 4.26411e-25)
(0.00505756 -2.82835e-06 2.57175e-24)
(0.00505431 -3.3406e-06 -3.30581e-25)
(0.00505042 -3.81987e-06 -3.40762e-25)
(0.00504591 -4.26327e-06 2.23197e-25)
(0.00391191 2.42636e-06 -2.85718e-25)
(0.00391645 2.00122e-06 1.6865e-26)
(0.00392026 1.58376e-06 2.13887e-24)
(0.00392327 1.16572e-06 1.43278e-24)
(0.00392551 7.54232e-07 -9.86158e-25)
(0.00392702 3.47052e-07 -2.44207e-24)
(0.00392779 -4.99206e-08 9.88776e-25)
(0.00392787 -4.3787e-07 -4.14551e-24)
(0.00392728 -8.14089e-07 3.19244e-24)
(0.00392603 -1.17766e-06 1.63434e-24)
(0.00392415 -1.5246e-06 -1.56071e-26)
(0.00392168 -1.85368e-06 -1.77333e-24)
(0.00391864 -2.16364e-06 3.17026e-25)
(0.00391508 -2.45223e-06 -2.34161e-25)
(0.00391101 -2.71719e-06 1.14808e-25)
(0.00288613 1.26479e-06 -5.25721e-25)
(0.00288938 1.02072e-06 1.07011e-26)
(0.00289207 7.89412e-07 1.71379e-24)
(0.00289413 5.60047e-07 -1.0714e-24)
(0.00289561 3.35628e-07 4.41069e-24)
(0.00289652 1.14937e-07 -8.03566e-24)
(0.00289687 -1.04162e-07 6.49725e-24)
(0.00289668 -3.12413e-07 -5.417e-24)
(0.00289596 -5.20357e-07 3.91406e-24)
(0.00289474 -7.17269e-07 -2.50399e-24)
(0.00289303 -9.05436e-07 8.59788e-25)
(0.00289086 -1.08343e-06 1.23846e-25)
(0.00288826 -1.25028e-06 1.922e-25)
(0.00288525 -1.40434e-06 -2.35628e-25)
(0.00288185 -1.54375e-06 4.74311e-26)
(0.00195691 5.39946e-07 7.97169e-25)
(0.00195903 4.12262e-07 8.61646e-25)
(0.00196075 3.0193e-07 -3.68352e-24)
(0.00196204 1.95458e-07 2.69421e-24)
(0.00196292 9.32116e-08 -2.63736e-26)
(0.00196339 -3.2213e-09 6.93451e-25)
(0.00196347 -1.04449e-07 -8.46405e-25)
(0.00196318 -1.99203e-07 -1.76697e-24)
(0.0019625 -2.9054e-07 1.75562e-24)
(0.00196148 -3.76706e-07 1.81061e-25)
(0.00196011 -4.58057e-07 -1.39019e-24)
(0.00195842 -5.33713e-07 4.9907e-25)
(0.00195642 -6.04377e-07 2.92095e-25)
(0.00195414 -6.69225e-07 -3.49204e-26)
(0.00195159 -7.2671e-07 -3.18833e-26)
(0.00111752 1.59158e-07 -8.03877e-25)
(0.00111865 1.12406e-07 2.45818e-24)
(0.00111956 8.20051e-08 1.46601e-24)
(0.00112021 5.23292e-08 -2.6392e-24)
(0.00112062 2.30584e-08 -3.09246e-25)
(0.0011208 -4.49836e-09 -2.73966e-25)
(0.00112075 -3.62207e-08 8.34926e-25)
(0.00112047 -6.54335e-08 -1.41452e-24)
(0.00111998 -9.35556e-08 1.92018e-24)
(0.00111928 -1.20602e-07 -9.39899e-25)
(0.00111838 -1.44832e-07 -6.0563e-25)
(0.00111729 -1.64686e-07 3.63966e-25)
(0.00111602 -1.8628e-07 -4.22814e-25)
(0.00111459 -2.09846e-07 4.20383e-25)
(0.001113 -2.34087e-07 -6.90707e-26)
(0.000361131 5.92877e-08 -5.73535e-27)
(0.000361407 1.13506e-07 4.77175e-25)
(0.000361616 1.57935e-07 5.4582e-25)
(0.000361749 1.87035e-07 -8.55465e-25)
(0.000361812 2.02796e-07 1.77667e-24)
(0.000361804 2.07282e-07 -1.92898e-24)
(0.000361724 2.02095e-07 1.26417e-25)
(0.000361576 1.89462e-07 1.06026e-24)
(0.000361359 1.70348e-07 -1.46534e-24)
(0.000361076 1.46088e-07 -2.62489e-25)
(0.000360729 1.18913e-07 1.00182e-24)
(0.000360321 9.06939e-08 -4.40611e-25)
(0.000359855 5.7734e-08 -1.59251e-25)
(0.000359336 2.0343e-08 1.3251e-25)
(0.000358768 -2.03825e-08 -5.71264e-27)
(0.000904116 -0.00023892 8.00079e-26)
(0.00103599 -0.000159894 2.03916e-24)
(0.00125807 -7.86316e-05 -5.8492e-24)
(0.00148541 -1.31638e-05 8.47449e-24)
(0.00170419 3.81016e-05 -3.1786e-24)
(0.00191917 7.58887e-05 -3.03886e-24)
(0.0021303 0.000102632 3.44625e-24)
(0.00233813 0.000120351 -6.79033e-24)
(0.00254338 0.000130744 4.43001e-25)
(0.00274663 0.000135279 4.26649e-24)
(0.00294842 0.000135221 -8.11717e-25)
(0.00314926 0.000131698 8.75669e-25)
(0.00334968 0.000125763 -8.58021e-26)
(0.00355028 0.000118453 5.42542e-25)
(0.00375189 0.000110849 -1.99092e-24)
(0.00395559 0.00010414 1.08915e-24)
(0.00416313 9.96226e-05 -3.36009e-25)
(0.0043769 9.8698e-05 2.62213e-26)
(0.00460073 0.000102489 7.79816e-25)
(0.00483938 0.000111516 -4.87247e-25)
(0.00509926 0.000124004 5.96871e-26)
(0.0053853 0.000135094 -5.21461e-26)
(0.00567563 0.000133739 9.92185e-26)
(0.00593348 0.000112686 3.83126e-25)
(0.00614611 7.26821e-05 -6.87683e-25)
(0.00631331 1.65114e-05 -4.6129e-25)
(0.00643664 -5.27604e-05 2.57776e-26)
(0.00651828 -0.000132466 1.1213e-24)
(0.00655995 -0.000220059 1.42222e-24)
(0.00656261 -0.000312628 -2.75621e-24)
(0.00652666 -0.000406436 1.88675e-24)
(0.00645223 -0.000496701 -1.34278e-24)
(0.00633961 -0.000577583 1.61182e-25)
(0.00618951 -0.000642325 -1.14903e-24)
(0.0060031 -0.000683398 1.1066e-24)
(0.00578206 -0.000692539 7.36624e-24)
(0.00552836 -0.000660523 -2.02518e-24)
(0.00524432 -0.000576438 1.89411e-24)
(0.00493264 -0.000426294 1.01477e-24)
(0.00459703 -0.00019147 -1.08799e-23)
(0.00424124 0.000149806 -1.32754e-25)
(0.00387015 0.000610832 4.58103e-24)
(0.0034724 0.00116105 1.45697e-24)
(0.00306585 0.00167853 -6.41848e-24)
(0.00283558 0.00179817 -3.18079e-25)
(0.00170153 -0.000318726 -2.34502e-24)
(0.00175682 -0.000274069 -3.28631e-24)
(0.00189419 -0.000195893 6.90052e-24)
(0.00206693 -0.000123368 3.18912e-24)
(0.00225085 -6.19688e-05 -1.11477e-23)
(0.00244124 -1.3833e-05 1.18622e-23)
(0.00263401 2.24192e-05 -4.24753e-24)
(0.00282733 4.86389e-05 3.36103e-24)
(0.00302059 6.65659e-05 -4.44443e-24)
(0.00321357 7.77738e-05 5.13319e-26)
(0.00340633 8.36352e-05 -2.34731e-24)
(0.00359904 8.53703e-05 4.65166e-24)
(0.00379201 8.41036e-05 -2.56899e-24)
(0.00398569 8.09247e-05 -2.29991e-24)
(0.00418074 7.69483e-05 -1.5192e-24)
(0.00437808 7.337e-05 2.91583e-24)
(0.00457929 7.14758e-05 -3.43749e-25)
(0.00478649 7.26292e-05 1.50565e-24)
(0.00500323 7.79181e-05 2.32997e-25)
(0.00523382 8.78491e-05 -4.44261e-25)
(0.00548432 0.000100761 -1.83651e-25)
(0.00575942 0.000112132 -1.10311e-25)
(0.00603861 0.000111474 5.37211e-25)
(0.00628721 9.20318e-05 6.56771e-25)
(0.00649313 5.4608e-05 -5.91367e-25)
(0.00665603 1.87045e-06 -2.8188e-24)
(0.0067771 -6.31858e-05 3.75589e-24)
(0.00685821 -0.000137863 -2.55474e-24)
(0.00690082 -0.000219505 8.53178e-25)
(0.00690582 -0.000305064 -4.0599e-25)
(0.00687365 -0.000390702 2.6533e-24)
(0.00680468 -0.000471593 -2.57336e-24)
(0.00669951 -0.000541921 -1.43678e-25)
(0.00655932 -0.000595 5.92658e-24)
(0.00638593 -0.000623409 -1.02111e-23)
(0.00618189 -0.000619006 2.7849e-24)
(0.00595053 -0.000572729 1.31132e-23)
(0.00569612 -0.000473986 -3.60693e-24)
(0.00542452 -0.000309501 -1.05303e-23)
(0.00514474 -6.18193e-05 -6.33682e-24)
(0.0048703 0.000289496 1.4448e-23)
(0.00462379 0.000758244 -1.38795e-23)
(0.00442875 0.00131416 -3.00902e-24)
(0.00432498 0.00182434 9.04576e-24)
(0.00435458 0.00188672 2.84681e-24)
(0.00264304 -0.000327043 -2.66531e-26)
(0.00265151 -0.000322326 -3.7622e-24)
(0.00271038 -0.000275653 7.31048e-24)
(0.00281929 -0.000213365 6.12188e-24)
(0.0029545 -0.000152461 -1.00139e-23)
(0.00310734 -9.99153e-05 2.07747e-25)
(0.00327077 -5.73754e-05 9.58796e-25)
(0.00344052 -2.43969e-05 1.03485e-23)
(0.00361423 1.41998e-07 -1.22542e-23)
(0.00379058 1.75615e-05 7.51621e-24)
(0.00396883 2.91447e-05 2.25717e-24)
(0.00414865 3.6092e-05 -1.24721e-23)
(0.00432998 3.95366e-05 4.50253e-24)
(0.00451296 4.05815e-05 1.78843e-24)
(0.00469805 4.03504e-05 -3.70524e-24)
(0.00488595 4.00318e-05 5.9835e-24)
(0.00507798 4.08903e-05 -4.19795e-24)
(0.00527599 4.42438e-05 -7.28794e-26)
(0.00548315 5.11407e-05 3.25992e-25)
(0.00570335 6.20716e-05 3.43858e-25)
(0.00594217 7.54864e-05 4.49617e-26)
(0.00620403 8.71999e-05 1.94687e-25)
(0.00646988 8.72832e-05 -5.422e-25)
(0.00670727 6.94881e-05 1.61515e-24)
(0.00690482 3.46918e-05 -2.54576e-24)
(0.00706201 -1.45409e-05 1.46361e-24)
(0.00717972 -7.52737e-05 -3.27272e-24)
(0.00725942 -0.000144778 4.38971e-24)
(0.00730234 -0.000220284 -3.68833e-24)
(0.00730929 -0.000298615 5.48544e-25)
(0.00728078 -0.000375834 7.59953e-25)
(0.00721739 -0.000447085 3.05661e-24)
(0.00712012 -0.000506603 -7.3565e-25)
(0.00699061 -0.000547838 3.07956e-24)
(0.0068314 -0.000563587 -9.09068e-24)
(0.00664597 -0.00054604 1.61803e-23)
(0.00643903 -0.000486663 -1.12012e-23)
(0.00621685 -0.000375836 1.67924e-23)
(0.00598822 -0.000202201 -3.21632e-23)
(0.00576652 4.80596e-05 1.22718e-23)
(0.00557215 0.00038926 4.26806e-24)
(0.0054366 0.0008271 6.6506e-24)
(0.00539429 0.00132478 -8.25963e-24)
(0.00546787 0.00175176 2.29815e-24)
(0.00562557 0.00179104 -1.38139e-24)
(0.00371167 -0.000310967 -9.93606e-25)
(0.00369394 -0.000331048 -1.51545e-24)
(0.00370393 -0.000313084 -6.47358e-24)
(0.00375152 -0.000273435 1.78682e-24)
(0.00383366 -0.000223202 1.18585e-24)
(0.00394056 -0.00017397 5.10432e-24)
(0.00406535 -0.000130351 -1.06517e-23)
(0.00420261 -9.40015e-05 4.07395e-24)
(0.00434872 -6.50159e-05 1.35077e-23)
(0.00450123 -4.27591e-05 -3.59595e-24)
(0.00465858 -2.63199e-05 -3.363e-24)
(0.00481978 -1.46959e-05 -5.33945e-25)
(0.0049843 -6.8591e-06 1.74507e-24)
(0.00515192 -1.76543e-06 -3.40545e-24)
(0.00532278 1.66938e-06 7.8829e-25)
(0.00549732 4.59361e-06 -2.74659e-25)
(0.00567657 8.22717e-06 -1.61835e-24)
(0.00586204 1.38249e-05 6.27292e-25)
(0.00605652 2.2383e-05 2.79976e-24)
(0.00626338 3.4367e-05 -3.29124e-25)
(0.00648773 4.83313e-05 -6.24406e-25)
(0.00673358 6.04257e-05 -1.71144e-25)
(0.00698344 6.12815e-05 -9.56055e-25)
(0.00720729 4.51729e-05 -5.47634e-26)
(0.00739445 1.30648e-05 -2.25835e-24)
(0.00754422 -3.25688e-05 3.90404e-24)
(0.00765712 -8.88454e-05 -3.27324e-24)
(0.00773425 -0.000153003 6.21664e-24)
(0.00777659 -0.000222165 -5.06732e-24)
(0.00778488 -0.000293039 1.28019e-24)
(0.0077597 -0.000361616 1.73725e-24)
(0.00770189 -0.000423053 -1.84553e-25)
(0.00761281 -0.000471702 -2.97592e-25)
(0.00749464 -0.000501257 -1.0672e-24)
(0.0073506 -0.000504903 1.32951e-24)
(0.00718512 -0.000475427 -5.03284e-24)
(0.00700414 -0.000405249 2.3759e-23)
(0.00681559 -0.000286367 -1.26063e-23)
(0.00663043 -0.000110355 -4.36018e-25)
(0.00646428 0.000131361 -2.85048e-23)
(0.00633943 0.000444944 2.15988e-23)
(0.00628638 0.000826212 -7.7951e-24)
(0.00633494 0.00123738 1.9706e-24)
(0.00649025 0.00157723 9.59288e-24)
(0.00670508 0.0016536 -2.26646e-24)
(0.00490266 -0.000285419 -4.1059e-24)