/*--------------------------------*- C++ -*----------------------------------*\
| =========                 |                                                 |
| \\      /  F ield         | OpenFOAM: The Open Source CFD Toolbox           |
|  \\    /   O peration     | Version:  2312                                  |
|   \\  /    A nd           | Website:  www.openfoam.com                      |
|    \\/     M anipulation  |                                                 |
\*---------------------------------------------------------------------------*/
FoamFile
{
    version     2.0;
    format      ascii;
    arch        "LSB;label=32;scalar=64";
    class       volVectorField;
    location    "181.25";
    object      U;
}
// * * * * * * * * * * * * * * * * * * * * * * * * * * * * * * * * * * * * * //

dimensions      [0 1 -1 0 0 0 0];

internalField   nonuniform List<vector> 
4800
(
(0.000494159 3.15373e-07 -3.11963e-26)
(0.000486443 3.74217e-07 -2.21844e-25)
(0.000481562 4.10755e-07 2.84023e-25)
(0.000478633 4.20343e-07 1.32677e-25)
(0.000477168 4.17875e-07 1.98305e-24)
(0.000476858 3.9664e-07 -4.7336e-24)
(0.000477658 3.45567e-07 4.45241e-24)
(0.000479402 2.72407e-07 -6.50718e-24)
(0.000482163 1.14658e-07 2.07851e-24)
(0.000486149 -1.8335e-07 7.16578e-24)
(0.000491823 -7.52313e-07 -2.20671e-24)
(0.0005005 -2.2561e-06 -1.83422e-25)
(0.000519653 -7.73014e-06 -2.70944e-24)
(0.000568255 -2.99788e-05 1.24865e-24)
(0.000649421 -9.87911e-05 -9.89013e-25)
(0.00152652 1.6198e-06 -9.93845e-26)
(0.00150242 1.22338e-06 1.23933e-25)
(0.00148679 8.99354e-07 -1.16553e-24)
(0.00147701 5.88874e-07 8.66112e-25)
(0.00147163 2.80706e-07 2.84549e-24)
(0.00146968 -6.34288e-08 -4.53648e-24)
(0.00147098 -5.17558e-07 -1.3169e-24)
(0.00147491 -1.08957e-06 -3.32012e-25)
(0.00148181 -1.96676e-06 1.08414e-23)
(0.00149218 -3.42877e-06 -8.02817e-24)
(0.00150727 -6.12114e-06 8.74186e-25)
(0.00152996 -1.23497e-05 1.33858e-24)
(0.00156937 -3.01609e-05 -1.97994e-24)
(0.00163693 -8.46599e-05 -5.86672e-25)
(0.00171029 -0.000209211 2.57496e-24)
(0.00266561 5.27031e-06 -7.12225e-26)
(0.0026235 3.99731e-06 7.2695e-26)
(0.00259566 2.98849e-06 7.62606e-25)
(0.00257773 2.06708e-06 -1.82839e-24)
(0.00256721 1.12778e-06 1.80935e-24)
(0.00256247 3.3981e-08 1.71108e-24)
(0.00256311 -1.32112e-06 -4.39238e-24)
(0.00256791 -3.07935e-06 -2.7817e-24)
(0.00257744 -5.66552e-06 6.7061e-24)
(0.00259227 -9.73105e-06 2.55021e-24)
(0.00261364 -1.67954e-05 -8.85941e-24)
(0.00264382 -3.09777e-05 -1.35063e-24)
(0.00268703 -6.22859e-05 3.79191e-24)
(0.00274209 -0.000131488 5.9988e-24)
(0.00278243 -0.000248219 -3.09733e-24)
(0.00391689 1.18962e-05 2.63382e-26)
(0.00385564 9.18206e-06 -1.84468e-25)
(0.00381437 7.03743e-06 8.31066e-25)
(0.00378703 5.09211e-06 9.08362e-25)
(0.00377012 3.11891e-06 -8.85625e-25)
(0.0037613 8.46254e-07 -5.24897e-24)
(0.00375981 -1.99425e-06 -3.5755e-24)
(0.00376396 -5.43655e-06 1.32357e-23)
(0.00377406 -1.05419e-05 5.63435e-24)
(0.00379061 -1.82624e-05 -8.09774e-24)
(0.00381387 -3.06584e-05 -3.27358e-24)
(0.00384439 -5.24733e-05 -2.50586e-24)
(0.00388129 -9.21051e-05 7.32569e-26)
(0.00391706 -0.000160444 1.85634e-24)
(0.00393216 -0.000253402 9.08567e-27)
(0.00528335 2.21604e-05 -4.83164e-26)
(0.00520285 1.73497e-05 -2.97889e-25)
(0.0051475 1.35483e-05 -1.95153e-25)
(0.00510985 1.01182e-05 5.1258e-25)
(0.00508544 6.67414e-06 -1.4927e-24)
(0.00507132 2.76779e-06 3.73245e-24)
(0.00506596 -1.91946e-06 -6.47827e-25)
(0.00506797 -7.7586e-06 2.32078e-24)
(0.00507638 -1.57731e-05 -1.29724e-23)
(0.00509151 -2.74987e-05 2.48432e-23)
(0.0051124 -4.48458e-05 -2.40798e-23)
(0.00513782 -7.17607e-05 1.27382e-23)
(0.00516415 -0.000113321 -1.18508e-23)
(0.00518327 -0.000173004 1.12047e-23)
(0.00518394 -0.000243502 -4.47567e-24)
(0.00676372 3.67574e-05 6.37635e-26)
(0.00666568 2.91934e-05 2.30374e-25)
(0.00659679 2.32055e-05 -1.22281e-24)
(0.00654865 1.78273e-05 -7.94955e-25)
(0.00651612 1.24776e-05 2.10515e-24)
(0.00649575 6.54489e-06 7.67402e-25)
(0.00648528 -4.03554e-07 -6.03598e-24)
(0.00648317 -8.92689e-06 1.4463e-23)
(0.00648801 -2.01898e-05 -1.88853e-23)
(0.00649887 -3.55539e-05 4.51823e-24)
(0.00651412 -5.66657e-05 1.387e-23)
(0.00653138 -8.59021e-05 -1.93233e-23)
(0.00654655 -0.000125235 9.67926e-24)
(0.00655351 -0.000174234 9.99049e-24)
(0.006547 -0.000226675 -7.61114e-24)
(0.00835017 5.60781e-05 5.26426e-26)
(0.00823914 4.52434e-05 -3.1322e-25)
(0.00815916 3.66191e-05 1.13307e-24)
(0.00810173 2.88886e-05 -1.58287e-24)
(0.00806142 2.12564e-05 -5.46564e-24)
(0.0080345 1.29841e-05 9.3237e-24)
(0.00801826 3.46562e-06 -5.71231e-24)
(0.00801076 -7.87028e-06 1.95725e-23)
(0.00801022 -2.21309e-05 -1.33048e-23)
(0.0080149 -4.04615e-05 -6.25692e-24)
(0.00802264 -6.38493e-05 -1.23912e-23)
(0.00803075 -9.31957e-05 1.13797e-23)
(0.00803588 -0.000128464 3.21313e-24)
(0.00803425 -0.000167814 2.7713e-24)
(0.00802403 -0.000206972 -2.4394e-24)
(0.0100259 7.97304e-05 -7.57808e-26)
(0.00991029 6.54803e-05 1.03602e-24)
(0.00982441 5.40034e-05 -2.42877e-24)
(0.0097609 4.36865e-05 -2.03608e-24)
(0.00971469 3.35473e-05 7.27051e-25)
(0.00968212 2.2765e-05 1.48319e-24)
(0.00966035 1.06427e-05 5.44297e-24)
(0.00964714 -3.40754e-06 -1.49363e-23)
(0.00964043 -2.02183e-05 -8.07296e-24)
(0.00963812 -4.05592e-05 2.20437e-23)
(0.00963792 -6.47778e-05 -6.89909e-24)
(0.00963739 -9.27607e-05 2.36064e-23)
(0.00963424 -0.000123564 -1.24427e-23)
(0.00962639 -0.000155285 -3.99534e-24)
(0.00961369 -0.000185274 2.36938e-24)
(0.0117645 0.00010595 -1.00379e-26)
(0.0116566 8.88294e-05 5.72599e-25)
(0.0115732 7.47408e-05 -8.17311e-25)
(0.0115093 6.19377e-05 1.99507e-24)
(0.0114611 4.9349e-05 -1.19945e-23)
(0.0114254 3.6139e-05 1.26934e-23)
(0.0113997 2.16241e-05 -2.02509e-23)
(0.0113818 5.27758e-06 1.24088e-23)
(0.0113695 -1.34162e-05 9.30863e-24)
(0.0113607 -3.47735e-05 2.03916e-23)
(0.0113535 -5.86696e-05 -2.66623e-23)
(0.0113458 -8.44941e-05 -4.99286e-24)
(0.0113364 -0.000111129 2.25135e-24)
(0.0113241 -0.000137112 1.64823e-23)
(0.0113095 -0.000160901 -6.71932e-24)
(0.0135337 0.000131164 5.56046e-26)
(0.0134479 0.000112662 -2.40969e-25)
(0.0133775 9.68799e-05 1.085e-24)
(0.013321 8.22044e-05 -3.83986e-24)
(0.0132765 6.76465e-05 5.85803e-24)
(0.013242 5.24615e-05 -7.63278e-24)
(0.0132156 3.60798e-05 1.28607e-23)
(0.0131953 1.81365e-05 2.31833e-24)
(0.0131795 -1.59099e-06 -1.78947e-23)
(0.0131662 -2.30283e-05 2.56545e-23)
(0.013154 -4.57894e-05 -2.83538e-23)
(0.0131415 -6.91452e-05 -8.44329e-24)
(0.0131281 -9.21453e-05 1.48232e-23)
(0.013113 -0.000113827 4.42781e-24)
(0.0130972 -0.000133337 -1.93812e-24)
(0.0153078 0.000150469 2.30657e-25)
(0.0152548 0.000132848 -1.89192e-24)
(0.0152068 0.000116965 -3.06046e-24)
(0.0151655 0.000101604 7.23674e-24)
(0.0151311 8.6048e-05 3.29639e-24)
(0.0151029 6.97685e-05 -2.07218e-23)
(0.0150799 5.24087e-05 6.33304e-24)
(0.0150608 3.3816e-05 4.59421e-24)
(0.0150445 1.40415e-05 -2.02833e-23)
(0.0150297 -6.63451e-06 2.10356e-23)
(0.0150154 -2.76946e-05 -1.70787e-23)
(0.0150009 -4.85082e-05 4.3783e-23)
(0.0149859 -6.83854e-05 -2.11512e-23)
(0.0149699 -8.67522e-05 1.24947e-23)
(0.014954 -0.000103157 -3.41821e-24)
(0.0170832 0.000159814 -1.0033e-25)
(0.017064 0.000145231 1.30757e-24)
(0.0170416 0.00013099 -2.52773e-24)
(0.0170194 0.000116408 -1.30061e-24)
(0.0169991 0.000101141 1.45181e-23)
(0.016981 8.4958e-05 -2.04451e-24)
(0.0169649 6.7766e-05 -2.60864e-23)
(0.0169503 4.964e-05 3.05877e-23)
(0.0169367 3.08298e-05 -6.84131e-24)
(0.0169234 1.17029e-05 -2.40091e-23)
(0.0169101 -7.23424e-06 2.57187e-23)
(0.0168962 -2.54908e-05 1.40118e-23)
(0.0168819 -4.26077e-05 -1.16637e-23)
(0.016867 -5.82686e-05 -2.04157e-23)
(0.0168523 -7.22477e-05 1.71848e-24)
(0.0188838 0.000159073 1.42918e-26)
(0.0188878 0.000148373 -1.50201e-24)
(0.0188851 0.000136798 6.99108e-24)
(0.0188792 0.000124068 4.44789e-25)
(0.0188719 0.000110197 4.02269e-24)
(0.0188639 9.52252e-05 -1.42993e-23)
(0.0188555 7.92932e-05 1.23188e-23)
(0.0188467 6.26567e-05 2.87402e-24)
(0.0188374 4.56685e-05 2.56388e-23)
(0.0188274 2.87253e-05 -3.9467e-23)
(0.0188168 1.22284e-05 -1.79894e-23)
(0.0188054 -3.45488e-06 -1.19984e-23)
(0.0187935 -1.80283e-05 2.25115e-23)
(0.0187809 -3.13261e-05 -6.58097e-25)
(0.0187686 -4.32413e-05 2.19695e-24)
(0.0207366 0.000152401 -8.14036e-27)
(0.0207496 0.00014513 1.618e-24)
(0.0207561 0.000136169 -2.35085e-24)
(0.0207587 0.000125507 6.82884e-27)
(0.0207588 0.000113453 2.9323e-24)
(0.020757 0.000100274 7.48245e-24)
(0.0207538 8.62497e-05 -2.90508e-23)
(0.0207492 7.17115e-05 2.39987e-24)
(0.0207435 5.70309e-05 1.48197e-23)
(0.0207366 4.25594e-05 -6.89305e-24)
(0.0207287 2.86157e-05 1.87967e-23)
(0.0207199 1.54425e-05 1.32521e-23)
(0.0207106 3.22828e-06 -2.40182e-23)
(0.0207005 -7.94119e-06 1.65141e-23)
(0.0206906 -1.80162e-05 -1.37276e-23)
(0.0226343 0.000143711 -3.25023e-25)
(0.0226481 0.000139225 -1.90657e-25)
(0.0226563 0.000132788 2.97512e-24)
(0.0226607 0.000124255 -1.42645e-23)
(0.0226628 0.000114075 1.24888e-23)
(0.0226628 0.000102779 -8.94722e-24)
(0.0226612 9.07935e-05 6.42573e-24)
(0.0226582 7.84661e-05 -4.55455e-23)
(0.022654 6.6126e-05 6.57528e-23)
(0.0226486 5.4056e-05 -3.88426e-23)
(0.0226423 4.24924e-05 3.47247e-23)
(0.0226351 3.15933e-05 2.91698e-23)
(0.0226275 2.14725e-05 -5.09775e-23)
(0.0226192 1.21708e-05 1.66131e-23)
(0.022611 3.71154e-06 -6.99041e-25)
(0.024523 0.000134768 -1.19301e-26)
(0.0245357 0.000132721 -1.05144e-24)
(0.0245434 0.000128636 1.08107e-24)
(0.0245475 0.000122453 -4.07995e-25)
(0.0245491 0.000114454 5.34782e-24)
(0.0245489 0.00010524 -9.076e-24)
(0.0245472 9.53653e-05 8.31005e-24)
(0.0245442 8.52145e-05 -2.60753e-23)
(0.0245401 7.50771e-05 5.92132e-23)
(0.0245351 6.51808e-05 -7.57081e-23)
(0.0245294 5.57078e-05 6.20037e-23)
(0.0245229 4.6767e-05 -2.09408e-23)
(0.0245162 3.84293e-05 1.09139e-24)
(0.0245088 3.07125e-05 4.81559e-24)
(0.0245015 2.36292e-05 -9.22608e-24)
(0.0263146 0.000125271 -9.61893e-25)
(0.0263258 0.00012605 5.95694e-25)
(0.026333 0.000124237 1.14368e-24)
(0.0263368 0.000120378 -2.87111e-24)
(0.0263381 0.000114785 9.82042e-24)
(0.0263375 0.000107948 -9.62318e-24)
(0.0263355 0.00010039 -8.00076e-24)
(0.0263324 9.24878e-05 -1.89305e-23)
(0.0263284 8.44998e-05 9.99762e-24)
(0.0263235 7.66308e-05 4.58609e-23)
(0.0263182 6.90441e-05 -2.41276e-23)
(0.0263122 6.18306e-05 1.42802e-23)
(0.026306 5.50448e-05 -5.89773e-24)
(0.0262993 4.86992e-05 -1.7361e-23)
(0.0262926 4.2807e-05 8.87509e-24)
(0.0278907 0.000115006 2.9811e-25)
(0.0279001 0.00011852 -3.83782e-25)
(0.027906 0.000119484 1.92812e-24)
(0.0279095 0.000118078 -6.87647e-24)
(0.0279107 0.000114855 -1.86319e-24)
(0.0279101 0.000110419 1.82771e-23)
(0.0279083 0.000105272 -1.35624e-23)
(0.0279053 9.9676e-05 -7.67097e-24)
(0.0279016 9.38186e-05 7.25362e-24)
(0.0278972 8.79007e-05 -7.89847e-24)
(0.0278924 8.20912e-05 1.85128e-23)
(0.027887 7.64785e-05 9.11748e-24)
(0.0278814 7.11152e-05 -3.4132e-23)
(0.0278754 6.60211e-05 2.34471e-23)
(0.0278694 6.12168e-05 -4.75175e-24)
(0.0290827 0.000105284 8.15857e-25)
(0.0290914 0.000110954 2.6888e-25)
(0.0290961 0.000114218 -1.08386e-24)
(0.0290991 0.000115774 3.26661e-24)
(0.0291005 0.000114538 -4.57803e-24)
(0.0291003 0.000112477 -7.81943e-24)
(0.0290991 0.000109813 -7.92571e-24)
(0.0290969 0.000106614 2.29622e-23)
(0.0290938 0.000102797 2.07938e-23)
(0.0290902 9.87387e-05 -4.97031e-23)
(0.0290862 9.46078e-05 2.77422e-23)
(0.0290818 9.0485e-05 -1.88103e-24)
(0.0290772 8.6429e-05 -1.48393e-24)
(0.0290721 8.24772e-05 1.96967e-24)
(0.029067 7.86648e-05 -8.98695e-25)
(0.0296685 9.38958e-05 -1.95591e-24)
(0.0296773 0.000101851 -1.95164e-24)
(0.0296831 0.00010763 4.15982e-24)
(0.0296868 0.000110805 -1.40448e-24)
(0.0296891 0.00011299 1.16477e-24)
(0.0296902 0.000112702 3.31623e-24)
(0.0296901 0.000112039 -2.31932e-24)
(0.0296892 0.000110814 -1.78098e-23)
(0.0296876 0.000108863 4.35222e-23)
(0.0296854 0.000106449 -1.84184e-23)
(0.0296829 0.000103841 6.74036e-24)
(0.0296801 0.000101097 -1.20548e-23)
(0.0296768 9.82777e-05 -1.18606e-23)
(0.0296733 9.54155e-05 1.72022e-23)
(0.0296696 9.25431e-05 -7.30472e-24)
(0.0294628 8.32636e-05 2.8167e-24)
(0.0294696 9.3026e-05 -5.53808e-24)
(0.0294739 0.000100275 1.71491e-24)
(0.0294771 0.000105657 1.71845e-26)
(0.0294788 0.000109051 2.81081e-24)
(0.0294798 0.000111421 -3.93144e-24)
(0.02948 0.00011247 -1.09774e-23)
(0.0294795 0.000112705 2.67827e-23)
(0.0294786 0.000112378 5.97321e-24)
(0.0294774 0.000111513 -1.54367e-23)
(0.0294759 0.000110246 -7.74892e-24)
(0.0294741 0.000108707 8.68768e-24)
(0.0294719 0.000106964 -9.16213e-24)
(0.0294695 0.000105051 5.14182e-24)
(0.0294667 0.000102993 -2.20868e-24)
(0.0284492 7.5464e-05 1.60375e-24)
(0.0284567 8.58573e-05 -2.99714e-24)
(0.0284628 9.392e-05 -5.97239e-25)
(0.028468 0.000100075 2.89555e-24)
(0.028472 0.000104689 8.05592e-26)
(0.0284756 0.000108108 9.04609e-25)
(0.0284781 0.000110303 -9.95231e-25)
(0.0284803 0.000112058 -1.71065e-24)
(0.0284821 0.000112657 -2.92051e-24)
(0.0284829 0.000112533 1.55408e-23)
(0.0284835 0.000112071 -9.46669e-24)
(0.0284838 0.000111557 1.01803e-24)
(0.0284839 0.000110786 -1.72267e-23)
(0.0284838 0.000109487 9.21132e-24)
(0.0284833 0.000107954 2.92459e-24)
(0.0268761 6.88923e-05 3.75719e-24)
(0.0268815 7.90918e-05 -6.13485e-24)
(0.0268863 8.72115e-05 1.4054e-24)
(0.0268907 9.36549e-05 -4.69245e-25)
(0.0268946 9.86651e-05 1.86194e-24)
(0.0268981 0.000102521 -2.4797e-24)
(0.0269011 0.000105333 2.87232e-24)
(0.0269039 0.000107357 -1.81709e-24)
(0.0269065 0.000108701 1.37601e-24)
(0.0269087 0.000109454 6.43125e-24)
(0.0269106 0.000109626 -1.28007e-23)
(0.0269122 0.0001094 9.35624e-24)
(0.0269136 0.000108898 -8.67602e-25)
(0.026915 0.000108108 -3.3381e-24)
(0.0269162 0.000106899 5.68276e-25)
(0.024961 6.42658e-05 1.39233e-24)
(0.0249658 7.3872e-05 -6.11819e-24)
(0.0249706 8.16733e-05 8.77983e-24)
(0.0249754 8.79685e-05 -5.0955e-24)
(0.02498 9.29809e-05 1.74735e-24)
(0.0249845 9.69241e-05 -1.50989e-24)
(0.0249888 9.99462e-05 -2.30624e-25)
(0.024993 0.000102199 1.57961e-24)
(0.024997 0.000103811 -6.43868e-24)
(0.0250009 0.000104885 -2.5264e-24)
(0.0250046 0.000105459 9.6509e-24)
(0.0250083 0.000105562 2.77283e-24)
(0.0250118 0.000105213 -4.66347e-24)
(0.0250152 0.000104434 1.4657e-24)
(0.0250185 0.000103306 -4.16052e-25)
(0.0228528 6.06136e-05 1.8152e-25)
(0.0228581 6.91997e-05 -2.2311e-24)
(0.0228638 7.62549e-05 -4.66434e-25)
(0.0228699 8.20094e-05 6.20035e-24)
(0.0228762 8.66573e-05 -4.37221e-24)
(0.0228826 9.03649e-05 8.43109e-25)
(0.0228891 9.32604e-05 -7.41114e-26)
(0.0228955 9.54485e-05 1.68004e-25)
(0.022902 9.70069e-05 1.78053e-24)
(0.0229084 9.80077e-05 -1.00836e-23)
(0.0229147 9.85113e-05 9.0028e-24)
(0.022921 9.8565e-05 1.09267e-24)
(0.0229273 9.82039e-05 -1.40237e-24)
(0.0229335 9.74565e-05 -2.46259e-24)
(0.0229396 9.63542e-05 2.06388e-24)
(0.0206668 5.64457e-05 2.68308e-25)
(0.0206738 6.37059e-05 2.01983e-24)
(0.0206816 6.97206e-05 -2.3839e-24)
(0.02069 7.46581e-05 -9.73836e-25)
(0.0206989 7.86697e-05 3.97375e-24)
(0.020708 8.1877e-05 -3.05758e-24)
(0.0207173 8.43751e-05 -3.38631e-25)
(0.0207267 8.62401e-05 6.23242e-25)
(0.0207362 8.75369e-05 4.15072e-25)
(0.0207458 8.8326e-05 3.71759e-26)
(0.0207553 8.86577e-05 2.50285e-24)
(0.0207648 8.85696e-05 -1.01593e-24)
(0.0207743 8.80899e-05 -1.82409e-25)
(0.0207838 8.72419e-05 -5.31297e-25)
(0.0207931 8.60517e-05 -1.76952e-24)
(0.0184894 5.08699e-05 1.91669e-24)
(0.018499 5.67034e-05 -2.80897e-24)
(0.0185096 6.1565e-05 -1.50886e-24)
(0.0185209 6.55656e-05 4.42323e-24)
(0.0185327 6.88133e-05 -1.61882e-24)
(0.0185448 7.13944e-05 -7.96214e-25)
(0.0185572 7.33802e-05 4.36184e-25)
(0.0185698 7.48297e-05 -7.65952e-25)
(0.0185824 7.57933e-05 2.64821e-24)
(0.0185952 7.63146e-05 -3.94055e-24)
(0.0186079 7.64297e-05 3.11057e-24)
(0.0186207 7.61674e-05 -1.97973e-24)
(0.0186333 7.55518e-05 4.29285e-24)
(0.0186459 7.4604e-05 -5.11008e-24)
(0.0186584 7.3346e-05 1.61606e-24)
(0.0163801 4.38106e-05 -3.74794e-25)
(0.0163923 4.82873e-05 -1.07304e-24)
(0.0164055 5.20337e-05 -2.74121e-24)
(0.0164195 5.51155e-05 7.52081e-24)
(0.0164339 5.76061e-05 -1.78113e-24)
(0.0164487 5.95668e-05 -1.36642e-24)
(0.0164637 6.10496e-05 -1.03855e-25)
(0.0164789 6.20964e-05 4.80243e-26)
(0.0164942 6.27419e-05 2.11068e-24)
(0.0165096 6.30163e-05 -1.89761e-24)
(0.0165249 6.29455e-05 -9.90202e-26)
(0.0165401 6.25519e-05 2.44373e-24)
(0.0165552 6.18552e-05 -2.71131e-24)
(0.0165702 6.0873e-05 -3.80829e-25)
(0.0165849 5.96233e-05 4.44614e-25)
(0.0143748 3.5819e-05 1.4563e-24)
(0.0143889 3.91176e-05 1.67963e-24)
(0.014404 4.18884e-05 -1.98932e-24)
(0.0144197 4.41652e-05 -2.8625e-24)
(0.0144358 4.59958e-05 2.95419e-24)
(0.0144523 4.74226e-05 -2.23678e-24)
(0.014469 4.848e-05 6.29907e-25)
(0.0144858 4.91953e-05 3.3917e-25)
(0.0145026 4.95915e-05 -1.50011e-25)
(0.0145194 4.96893e-05 1.5661e-24)
(0.0145362 4.95074e-05 8.97609e-25)
(0.0145528 4.90627e-05 -6.02598e-24)
(0.0145691 4.83708e-05 2.42467e-24)
(0.0145853 4.74456e-05 9.99446e-25)
(0.0146011 4.63018e-05 9.64408e-26)
(0.0124923 2.77204e-05 -1.5279e-24)
(0.0125071 3.00665e-05 1.92181e-24)
(0.0125228 3.20474e-05 1.16853e-25)
(0.0125391 3.36749e-05 2.35874e-24)
(0.0125557 3.49791e-05 -2.21945e-24)
(0.0125726 3.59877e-05 -1.84128e-25)
(0.0125897 3.67215e-05 -3.87878e-25)
(0.0126068 3.71975e-05 -2.0183e-25)
(0.0126239 3.74302e-05 -5.03771e-25)
(0.0126409 3.7434e-05 1.73196e-24)
(0.0126578 3.72216e-05 4.46522e-25)
(0.0126745 3.68054e-05 -4.36904e-25)
(0.012691 3.61972e-05 -5.84103e-25)
(0.0127071 3.54074e-05 -3.71844e-25)
(0.0127228 3.44479e-05 -2.51131e-25)
(0.0107402 2.02732e-05 1.14219e-24)
(0.0107547 2.18906e-05 -9.35418e-25)
(0.0107698 2.32674e-05 -3.06849e-24)
(0.0107854 2.44006e-05 2.85461e-24)
(0.0108013 2.53098e-05 2.53176e-24)
(0.0108174 2.60118e-05 -1.28892e-24)
(0.0108336 2.65181e-05 -1.10841e-24)
(0.0108499 2.68383e-05 5.61387e-26)
(0.0108661 2.69815e-05 -3.63502e-25)
(0.0108823 2.69568e-05 -2.41502e-25)
(0.0108982 2.67727e-05 4.92905e-25)
(0.0109139 2.64378e-05 3.62636e-25)
(0.0109293 2.59605e-05 -6.9163e-25)
(0.0109444 2.53485e-05 -6.45865e-26)
(0.010959 2.46113e-05 2.7771e-25)
(0.0091201 1.39779e-05 -7.24556e-25)
(0.00913307 1.50604e-05 -3.77614e-25)
(0.00914663 1.59928e-05 6.37818e-25)
(0.00916058 1.6764e-05 -1.19835e-24)
(0.00917481 1.73883e-05 3.67543e-24)
(0.00918923 1.78743e-05 -3.59725e-24)
(0.00920375 1.82273e-05 2.24808e-24)
(0.0092183 1.84524e-05 -5.93834e-25)
(0.0092328 1.85544e-05 -2.87501e-25)
(0.00924718 1.85391e-05 -3.10947e-25)
(0.00926138 1.84115e-05 2.87693e-25)
(0.00927534 1.81776e-05 -5.37446e-25)
(0.00928898 1.7843e-05 7.86184e-25)
(0.00930228 1.74133e-05 2.07449e-25)
(0.00931514 1.68955e-05 -1.2674e-25)
(0.00762973 9.04161e-06 -3.54342e-25)
(0.00764063 9.74297e-06 1.19745e-25)
(0.00765203 1.03568e-05 1.85577e-25)
(0.00766376 1.08697e-05 -5.89893e-25)
(0.00767574 1.12925e-05 -7.40169e-26)
(0.00768789 1.16281e-05 1.51766e-24)
(0.00770014 1.18779e-05 -7.69806e-25)
(0.00771242 1.20441e-05 -2.05602e-26)
(0.00772467 1.21292e-05 -8.44756e-27)
(0.00773681 1.21363e-05 1.69898e-25)
(0.0077488 1.20683e-05 1.98362e-25)
(0.00776058 1.1929e-05 -7.60884e-25)
(0.00777208 1.17218e-05 -5.85036e-25)
(0.00778327 1.1451e-05 7.93219e-25)
(0.00779407 1.11211e-05 2.0718e-25)
(0.00626504 5.43623e-06 -1.29504e-25)
(0.0062736 5.87197e-06 -2.47531e-26)
(0.00628259 6.26198e-06 -1.61917e-24)
(0.00629186 6.59366e-06 6.46107e-25)
(0.00630135 6.8748e-06 -5.55523e-25)
(0.00631101 7.1043e-06 8.98878e-25)
(0.00632077 7.28175e-06 7.97591e-25)
(0.00633057 7.40785e-06 4.66848e-26)
(0.00634036 7.48344e-06 2.37048e-25)
(0.00635009 7.51011e-06 -8.5657e-26)
(0.00635971 7.4893e-06 -4.27855e-25)
(0.00636917 7.42328e-06 1.03107e-24)
(0.0063784 7.31403e-06 -5.76317e-25)
(0.0063874 7.16453e-06 2.09616e-25)
(0.00639608 6.97774e-06 -3.83131e-25)
(0.00502057 2.98663e-06 -5.09112e-25)
(0.00502683 3.24137e-06 -5.74723e-25)
(0.00503345 3.47788e-06 3.42183e-26)
(0.0050403 3.68459e-06 1.32704e-24)
(0.00504735 3.86601e-06 -7.09017e-25)
(0.00505456 4.01907e-06 3.79601e-26)
(0.00506187 4.14282e-06 6.17319e-25)
(0.00506924 4.23716e-06 -1.77493e-25)
(0.00507664 4.30217e-06 -1.22337e-25)
(0.00508401 4.33853e-06 6.57238e-25)
(0.00509131 4.34681e-06 2.4636e-25)
(0.00509852 4.32832e-06 -1.0601e-24)
(0.00510558 4.28403e-06 1.57576e-25)
(0.00511246 4.21602e-06 4.42059e-25)
(0.00511913 4.1262e-06 -3.33157e-25)
(0.00388989 1.45161e-06 -1.11566e-25)
(0.0038941 1.58658e-06 1.71611e-26)
(0.00389859 1.72109e-06 6.7387e-25)
(0.00390326 1.84328e-06 2.91411e-25)
(0.00390811 1.95461e-06 -3.80158e-25)
(0.0039131 2.05181e-06 -5.14797e-25)
(0.0039182 2.13396e-06 9.22645e-26)
(0.00392338 2.20072e-06 -1.11004e-25)
(0.0039286 2.25189e-06 3.47754e-26)
(0.00393383 2.28767e-06 -3.32172e-25)
(0.00393904 2.30823e-06 -2.45899e-25)
(0.0039442 2.31422e-06 6.91674e-25)
(0.00394929 2.306e-06 -2.25388e-25)
(0.00395428 2.28509e-06 2.79598e-25)
(0.00395912 2.25293e-06 -1.70131e-25)
(0.00286585 5.81457e-07 -2.0579e-25)
(0.00286838 6.3874e-07 2.40891e-26)
(0.00287111 7.06862e-07 5.55868e-25)
(0.00287398 7.72414e-07 -3.3968e-25)
(0.00287699 8.34689e-07 9.44502e-25)
(0.00288013 8.91177e-07 -1.53327e-24)
(0.00288336 9.41167e-07 8.33971e-25)
(0.00288667 9.84282e-07 -3.15541e-25)
(0.00289005 1.02023e-06 -8.9864e-26)
(0.00289346 1.04901e-06 3.21766e-25)
(0.00289688 1.07055e-06 -1.52843e-25)
(0.0029003 1.08513e-06 -4.35298e-26)
(0.00290369 1.09262e-06 -1.73493e-25)
(0.00290704 1.09424e-06 2.41132e-25)
(0.00291033 1.09144e-06 -6.99189e-26)
(0.00194092 1.54923e-07 3.12618e-25)
(0.00194218 1.63542e-07 2.74981e-25)
(0.00194357 1.89052e-07 -1.22266e-24)
(0.00194506 2.16999e-07 8.13724e-25)
(0.00194666 2.45623e-07 -3.97119e-26)
(0.00194835 2.73419e-07 7.46601e-26)
(0.00195012 2.9977e-07 -1.69649e-25)
(0.00195197 3.24265e-07 -7.02473e-26)
(0.00195388 3.4653e-07 -1.49207e-26)
(0.00195583 3.66393e-07 -9.34354e-26)
(0.00195782 3.83647e-07 3.86732e-25)
(0.00195982 3.98435e-07 -1.27132e-25)
(0.00196184 4.10629e-07 -1.89339e-25)
(0.00196385 4.20533e-07 1.35526e-26)
(0.00196585 4.29439e-07 4.6821e-26)
(0.00110737 5.30493e-09 -3.14958e-25)
(0.00110778 4.29928e-09 9.0006e-25)
(0.00110826 1.50154e-08 3.93353e-25)
(0.00110881 2.60992e-08 -8.5236e-25)
(0.00110942 3.66745e-08 -9.25647e-26)
(0.0011101 4.65838e-08 -5.53549e-26)
(0.00111083 5.5851e-08 8.85057e-26)
(0.00111162 6.45053e-08 -8.7301e-26)
(0.00111246 7.24745e-08 -7.80028e-26)
(0.00111333 7.97458e-08 3.17849e-26)
(0.00111424 8.62958e-08 1.62229e-25)
(0.00111518 9.23757e-08 -1.42657e-25)
(0.00111614 9.97642e-08 3.56092e-25)
(0.00111712 1.05944e-07 -4.1669e-25)
(0.00111811 1.11155e-07 1.01142e-25)
(0.000357577 2.31354e-08 -2.25468e-27)
(0.000357522 7.90003e-08 1.70247e-25)
(0.0003575 1.20097e-07 1.53473e-25)
(0.000357505 1.45428e-07 -2.77299e-25)
(0.000357542 1.58174e-07 3.86046e-25)
(0.000357609 1.61091e-07 -4.28044e-25)
(0.000357703 1.56568e-07 1.19331e-26)
(0.000357822 1.46562e-07 1.4524e-26)
(0.000357966 1.32607e-07 -9.86063e-27)
(0.000358131 1.15943e-07 8.10348e-26)
(0.000358316 9.75593e-08 -2.62789e-25)
(0.000358519 7.83085e-08 1.44822e-25)
(0.000358737 6.01533e-08 1.3159e-25)
(0.00035897 4.14986e-08 -1.2167e-25)
(0.000359215 2.22998e-08 8.34707e-27)
(0.0009634 -0.000263806 9.78009e-26)
(0.00110145 -0.00019022 2.56791e-24)
(0.0013326 -0.000115286 -7.47799e-24)
(0.00156789 -5.73529e-05 1.10615e-23)
(0.00179195 -1.44788e-05 -4.15235e-24)
(0.00200976 1.43314e-05 -4.12544e-24)
(0.00222129 3.20572e-05 4.74099e-24)
(0.00242724 4.12658e-05 -9.45984e-24)
(0.00262857 4.41748e-05 5.97659e-25)
(0.00282617 4.27182e-05 5.97583e-24)
(0.00302086 3.85675e-05 -1.13142e-24)
(0.00321343 3.32291e-05 1.2096e-24)
(0.00340459 2.81632e-05 -1.25004e-25)
(0.00359513 2.48937e-05 7.14297e-25)
(0.00378603 2.5127e-05 -2.61821e-24)
(0.00397864 3.07606e-05 1.42204e-24)
(0.00417523 4.38623e-05 -4.25867e-25)
(0.00437872 6.65816e-05 3.37995e-26)
(0.00459424 0.00010019 9.95836e-25)
(0.00482776 0.000145303 -6.25449e-25)
(0.00508693 0.000198589 8.17618e-26)
(0.00537831 0.000251392 -7.29583e-26)
(0.00568122 0.00028549 1.5072e-25)
(0.00595482 0.000288052 6.17444e-25)
(0.00618396 0.000259146 -1.10763e-24)
(0.00636825 0.000202781 -8.23384e-25)
(0.00650922 0.000123159 -3.01782e-26)
(0.00660871 2.37647e-05 2.14928e-24)
(0.0066677 -9.21676e-05 3.32467e-24)
(0.00668608 -0.000220936 -6.57291e-24)
(0.00666301 -0.000357805 6.33698e-24)
(0.00659745 -0.000496757 -6.3103e-24)
(0.00648872 -0.00063057 1.87746e-24)
(0.00633683 -0.000751071 8.81003e-25)
(0.00614264 -0.000849437 -9.55917e-25)
(0.00590769 -0.000916348 2.46392e-24)
(0.00563406 -0.000941856 4.67505e-25)
(0.00532415 -0.000914721 2.09236e-24)
(0.00498071 -0.000820953 1.59513e-24)
(0.00460745 -0.000641682 -8.26046e-24)
(0.00420898 -0.000352926 -1.1191e-25)
(0.00379268 6.66907e-05 4.28383e-24)
(0.00335307 0.000604211 1.70517e-24)
(0.00291472 0.00117149 -6.32638e-24)
(0.00267004 0.00145333 -3.39554e-25)
(0.00180777 -0.000347585 -2.90923e-24)
(0.00186432 -0.000309036 -4.21493e-24)
(0.00200433 -0.00023684 8.77357e-24)
(0.00218086 -0.000170783 4.24925e-24)
(0.00236708 -0.000116616 -1.48829e-23)
(0.00255798 -7.63663e-05 1.60815e-23)
(0.0027492 -4.81995e-05 -5.79229e-24)
(0.00293884 -2.97399e-05 4.70205e-24)
(0.0031264 -1.87255e-05 -6.20827e-24)
(0.00331186 -1.30959e-05 7.32554e-26)
(0.00349552 -1.10409e-05 -3.2551e-24)
(0.00367778 -1.09291e-05 6.42621e-24)
(0.00385916 -1.12006e-05 -3.51262e-24)
(0.00404026 -1.02663e-05 -3.03792e-24)
(0.00422197 -6.38732e-06 -1.91159e-24)
(0.0044055 2.32124e-06 3.81454e-24)
(0.00459302 1.78962e-05 -4.23121e-25)
(0.00478723 4.24139e-05 1.90124e-24)
(0.00499309 7.70773e-05 3.06201e-25)
(0.00521631 0.000122511 -5.59553e-25)
(0.00546433 0.000175515 -2.42176e-25)
(0.00574382 0.000227782 -1.60541e-25)
(0.00603599 0.000261863 8.1204e-25)
(0.00630195 0.000265614 1.08029e-24)
(0.00652678 0.00023906 -8.95165e-25)
(0.00670958 0.000186009 -4.88942e-24)
(0.00685125 0.000110598 6.76298e-24)
(0.00695306 1.6399e-05 -4.93191e-24)
(0.00701562 -9.31982e-05 1.67943e-24)
(0.00703869 -0.00021428 -1.2158e-24)
(0.00702147 -0.000341966 9.46232e-24)
(0.00696315 -0.000470181 -1.3486e-23)
(0.00686341 -0.000591729 7.99912e-24)
(0.00672276 -0.000698541 -6.61199e-24)
(0.00654268 -0.000781923 4.55985e-24)
(0.00632561 -0.000832688 -7.69814e-25)
(0.0060749 -0.00084102 6.53036e-24)
(0.00579486 -0.000795915 -8.51936e-25)
(0.00549123 -0.000683987 -7.12913e-24)
(0.00517265 -0.000487642 -5.35545e-24)
(0.00485265 -0.000184762 1.22707e-23)
(0.00455476 0.000244416 -1.27017e-23)
(0.00430663 0.000785203 -3.55621e-24)
(0.0041554 0.00133572 8.76055e-24)
(0.00416211 0.00154651 3.19073e-24)
(0.00279969 -0.000354951 -3.45064e-26)
(0.00280718 -0.00035758 -4.90897e-24)
(0.00286352 -0.000317524 9.33642e-24)
(0.00297182 -0.000261737 8.17899e-24)
(0.00310581 -0.00020751 -1.32635e-23)
(0.00325623 -0.000162089 2.62175e-25)
(0.00341563 -0.000126865 1.31516e-24)
(0.00357945 -0.00010098 1.44481e-23)
(0.00374531 -8.28247e-05 -1.71177e-23)
(0.00391194 -7.05941e-05 1.05084e-23)
(0.00407878 -6.25539e-05 3.08347e-24)
(0.00424566 -5.70678e-05 -1.71963e-23)
(0.00441271 -5.25441e-05 6.19499e-24)
(0.00458028 -4.73691e-05 2.3927e-24)
(0.00474902 -3.97959e-05 -4.82689e-24)
(0.00491999 -2.79672e-05 7.68913e-24)
(0.00509517 -9.88944e-06 -5.33079e-24)
(0.00527703 1.64355e-05 -8.93902e-26)
(0.00547033 5.21339e-05 3.96764e-25)
(0.00568049 9.78412e-05 4.24529e-25)
(0.00591468 0.000150501 4.33278e-26)
(0.00617967 0.000202125 2.66018e-25)
(0.00645869 0.000236062 -8.30032e-25)
(0.00671503 0.000240903 2.5347e-24)
(0.00693396 0.000216633 -4.17592e-24)
(0.00711405 0.000166871 2.43413e-24)
(0.00725549 9.5695e-05 -6.16219e-24)
(0.00735899 6.75103e-06 8.33282e-24)
(0.00742473 -9.63771e-05 -8.28532e-24)
(0.00745233 -0.000209596 -4.17489e-26)
(0.00744105 -0.000327878 -6.10069e-25)
(0.00739034 -0.000445095 1.57488e-23)
(0.00730027 -0.000554105 -5.31738e-24)
(0.00717187 -0.000646983 -3.27105e-24)
(0.00700733 -0.000715268 2.75556e-24)
(0.00681005 -0.000750092 2.79253e-24)
(0.00658472 -0.000742115 -3.68347e-24)
(0.00633761 -0.000681175 1.08539e-23)
(0.00607736 -0.000555603 -2.23711e-23)
(0.00581685 -0.000351293 8.89565e-24)
(0.00557608 -5.24248e-05 3.51281e-24)
(0.00538676 0.000351202 6.24854e-24)
(0.00528692 0.000835419 -7.79394e-24)
(0.00530813 0.00129447 2.494e-24)
(0.00544203 0.00145381 -1.56999e-24)
(0.00392062 -0.000336311 -1.25156e-24)
(0.00389937 -0.000364549 -1.94695e-24)
(0.00390583 -0.000352483 -8.36575e-24)
(0.00394856 -0.000320179 2.14144e-24)
(0.00402615 -0.000276505 1.44682e-24)
(0.00412755 -0.000234006 6.87829e-24)
(0.00424552 -0.000197165 -1.47363e-23)
(0.00437429 -0.000167373 5.57921e-24)
(0.00451007 -0.000144308 1.88703e-23)
(0.00465038 -0.000126881 -5.04316e-24)
(0.0047937 -0.00011374 -4.69584e-24)
(0.00493919 -0.000103437 -7.3632e-25)
(0.00508645 -9.44691e-05 2.35083e-24)
(0.00523547 -8.52768e-05 -4.53044e-24)
(0.00538663 -7.41563e-05 1.0662e-24)
(0.00554074 -5.93138e-05 -3.2772e-25)
(0.00569957 -3.8827e-05 -2.01257e-24)
(0.00586532 -1.07906e-05 7.89692e-25)
(0.00604251 2.58235e-05 3.5261e-24)
(0.00623625 7.16627e-05 -3.86404e-25)
(0.00645339 0.000123819 -8.15341e-25)
(0.00670075 0.000174598 -2.45007e-25)
(0.00696378 0.000208185 -1.4694e-24)
(0.00720809 0.000213972 -1.74663e-25)
(0.00741914 0.000191902 -3.89301e-24)
(0.0075949 0.000145407 6.53083e-24)
(0.00773486 7.85114e-05 -6.18657e-24)
(0.00783906 -5.0572e-06 1.21133e-23)
(0.0079073 -0.000101537 -1.09916e-23)
(0.00793902 -0.000206661 2.31674e-24)
(0.00793357 -0.000315281 5.09446e-24)
(0.00789066 -0.000421258 -5.31936e-26)
(0.00781077 -0.000517565 -2.56206e-25)
(0.00769553 -0.000596528 2.02982e-25)
(0.00754783 -0.000650081 -1.21866e-24)
(0.00737202 -0.000669936 -1.51142e-24)
(0.00717406 -0.000647645 1.07416e-23)
(0.00696192 -0.000574534 -5.35435e-24)
(0.00674641 -0.000441626 4.18347e-25)
(0.00654289 -0.000239766 -2.23809e-23)
(0.0063732 3.85573e-05 1.73583e-23)
(0.0062681 0.000392629 -7.24633e-24)
(0.00626058 0.000793469 1.33403e-24)
(0.006364 0.00115611 9.84923e-24)
(0.00655268 0.00131546 -2.55113e-24)
(0.00516382 -0.000307656 -5.19529e-24)
(0.0051318 -0.000345787 1.06687e-23)
(0.00510923 -0.00035353 3.07613e-24)
(0.00511041 -0.000342138 1.32646e-23)
(0.00513498 -0.000317064 -3.27997e-23)