/*--------------------------------*- C++ -*----------------------------------*\
| =========                 |                                                 |
| \\      /  F ield         | OpenFOAM: The Open Source CFD Toolbox           |
|  \\    /   O peration     | Version:  2312                                  |
|   \\  /    A nd           | Website:  www.openfoam.com                      |
|    \\/     M anipulation  |                                                 |
\*---------------------------------------------------------------------------*/
FoamFile
{
    version     2.0;
    format      ascii;
    arch        "LSB;label=32;scalar=64";
    class       surfaceScalarField;
    location    "91";
    object      phi;
}
// * * * * * * * * * * * * * * * * * * * * * * * * * * * * * * * * * * * * * //

dimensions      [0 3 -1 0 0 0 0];

oriented        oriented;

internalField   nonuniform List<scalar> 
9445
(
5.98921e-10
7.70301e-12
5.954e-10
3.52114e-12
5.94325e-10
1.07524e-12
5.94829e-10
-5.04752e-13
5.96531e-10
-1.70158e-12
5.99067e-10
-2.53608e-12
6.02436e-10
-3.36935e-12
6.06753e-10
-4.31667e-12
6.12213e-10
-5.4598e-12
6.19247e-10
-7.03399e-12
6.29033e-10
-9.78632e-12
6.45266e-10
-1.62334e-11
6.81063e-10
-3.57968e-11
7.82987e-10
-1.01924e-10
-2.64453e-10
1.04744e-09
2.09549e-09
3.44273e-11
2.08246e-09
1.65577e-11
2.07753e-09
6.00096e-12
2.07787e-09
-8.46191e-13
2.08206e-09
-5.89081e-12
2.08909e-09
-9.56132e-12
2.09887e-09
-1.31517e-11
2.11162e-09
-1.70644e-11
2.12791e-09
-2.17563e-11
2.14904e-09
-2.81592e-11
2.178e-09
-3.87445e-11
2.22196e-09
-6.02006e-11
2.29482e-09
-1.08651e-10
2.41e-09
-2.17104e-10
-3.85431e-10
2.53097e-09
4.14135e-09
8.63325e-11
4.11483e-09
4.30708e-11
4.10347e-09
1.73587e-11
4.10203e-09
5.985e-13
4.10764e-09
-1.15009e-11
4.11855e-09
-2.04735e-11
4.13457e-09
-2.91685e-11
4.15575e-09
-3.82443e-11
4.18284e-09
-4.8849e-11
4.2175e-09
-6.28149e-11
4.26279e-09
-8.40419e-11
4.3236e-09
-1.21009e-10
4.40276e-09
-1.87811e-10
4.48595e-09
-3.00295e-10
-4.34556e-10
4.53508e-09
6.88554e-09
1.7005e-10
6.84095e-09
8.76657e-11
6.81984e-09
3.84621e-11
6.81426e-09
6.18251e-12
6.8195e-09
-1.67406e-11
6.83284e-09
-3.38166e-11
6.85391e-09
-5.02327e-11
6.88231e-09
-6.66441e-11
6.91845e-09
-8.49971e-11
6.96353e-09
-1.07892e-10
7.01894e-09
-1.39448e-10
7.08452e-09
-1.86591e-10
7.15365e-09
-2.56938e-10
7.20554e-09
-3.52183e-10
-4.45993e-10
7.21697e-09
1.05065e-08
2.91355e-10
1.04393e-08
1.54836e-10
1.04049e-08
7.287e-11
1.03922e-08
1.88904e-11
1.03946e-08
-1.91064e-11
1.04082e-08
-4.74883e-11
1.0432e-08
-7.4045e-11
1.04651e-08
-9.97014e-11
1.05069e-08
-1.26798e-10
1.05574e-08
-1.58363e-10
1.06154e-08
-1.97518e-10
1.06767e-08
-2.47874e-10
1.07306e-08
-3.10861e-10
1.07598e-08
-3.81364e-10
-4.40087e-10
1.07539e-08
1.52119e-08
4.52416e-10
1.51195e-08
2.47242e-10
1.50691e-08
1.23275e-10
1.50463e-08
4.16575e-11
1.50432e-08
-1.5932e-11
1.50548e-08
-5.91321e-11
1.50783e-08
-9.75515e-11
1.51123e-08
-1.33672e-10
1.51551e-08
-1.6964e-10
1.52051e-08
-2.08293e-10
1.52588e-08
-2.51256e-10
1.53099e-08
-2.99028e-10
1.53485e-08
-3.49457e-10
1.53636e-08
-3.96437e-10
-4.29044e-10
1.53526e-08
2.12352e-08
6.47143e-10
2.11198e-08
3.62601e-10
2.10537e-08
1.89374e-10
2.10201e-08
7.52976e-11
2.10096e-08
-5.41598e-12
2.10167e-08
-6.62752e-11
2.10371e-08
-1.17921e-10
2.1068e-08
-1.64636e-10
2.11071e-08
-2.08666e-10
2.11509e-08
-2.52074e-10
2.11948e-08
-2.95235e-10
2.12327e-08
-3.3694e-10
2.12575e-08
-3.74231e-10
2.12639e-08
-4.0281e-10
-4.17864e-10
2.12527e-08
2.88266e-08
8.54926e-10
2.87e-08
4.89185e-10
2.86248e-08
2.64521e-10
2.8584e-08
1.16133e-10
2.85676e-08
1.10243e-11
2.85696e-08
-6.8361e-11
2.85852e-08
-1.33469e-10
2.86105e-08
-1.89902e-10
2.8642e-08
-2.40207e-10
2.86757e-08
-2.8579e-10
2.87069e-08
-3.26473e-10
2.87309e-08
-3.60876e-10
2.87436e-08
-3.86959e-10
2.87436e-08
-4.02786e-10
-4.07113e-10
2.87328e-08
3.82428e-08
1.03553e-09
3.81306e-08
6.0139e-10
3.80631e-08
3.3196e-10
3.80262e-08
1.53034e-10
3.8011e-08
2.62527e-11
3.80121e-08
-6.94104e-11
3.80245e-08
-1.45934e-10
3.80443e-08
-2.09657e-10
3.80676e-08
-2.63482e-10
3.80904e-08
-3.08638e-10
3.81091e-08
-3.4516e-10
3.81207e-08
-3.72479e-10
3.81237e-08
-3.90003e-10
3.81186e-08
-3.97671e-10
-3.96051e-10
3.81076e-08
4.97463e-08
1.1322e-09
4.96879e-08
6.5974e-10
4.96563e-08
3.63574e-10
4.96436e-08
1.6571e-10
4.96442e-08
2.5661e-11
4.96546e-08
-7.98127e-11
4.96711e-08
-1.62468e-10
4.96904e-08
-2.28866e-10
4.97091e-08
-2.82265e-10
4.97247e-08
-3.24167e-10
4.97348e-08
-3.55277e-10
4.97384e-08
-3.76096e-10
4.97356e-08
-3.87253e-10
4.97278e-08
-3.89819e-10
-3.85135e-10
4.97169e-08
6.36366e-08
1.09194e-09
6.3674e-08
6.22314e-10
6.37111e-08
3.26488e-10
6.37484e-08
1.28438e-10
6.37847e-08
-1.06475e-11
6.38203e-08
-1.15408e-10
6.38532e-08
-1.95374e-10
6.38818e-08
-2.57544e-10
6.39048e-08
-3.0526e-10
6.39212e-08
-3.40489e-10
6.39305e-08
-3.64613e-10
6.39333e-08
-3.78935e-10
6.39309e-08
-3.84783e-10
6.39248e-08
-3.83704e-10
-3.77217e-10
6.39168e-08
8.03295e-08
9.00237e-10
8.04823e-08
4.69498e-10
8.0608e-08
2.00826e-10
8.07132e-08
2.32159e-11
8.08022e-08
-9.95969e-11
8.08769e-08
-1.90125e-10
8.09386e-08
-2.57131e-10
8.09881e-08
-3.06999e-10
8.1026e-08
-3.43148e-10
8.10533e-08
-3.67828e-10
8.10715e-08
-3.82811e-10
8.10823e-08
-3.89728e-10
8.10876e-08
-3.90087e-10
8.10893e-08
-3.85427e-10
-3.77117e-10
8.10892e-08
1.00441e-07
6.00111e-10
1.00685e-07
2.25054e-10
1.00887e-07
-1.03366e-12
1.01055e-07
-1.44493e-10
1.01195e-07
-2.39582e-10
1.0131e-07
-3.05374e-10
1.01404e-07
-3.50851e-10
1.01479e-07
-3.81925e-10
1.01537e-07
-4.01738e-10
1.01582e-07
-4.12665e-10
1.01616e-07
-4.16503e-10
1.01641e-07
-4.14796e-10
1.0166e-07
-4.08866e-10
1.01674e-07
-3.99963e-10
-3.89123e-10
1.01686e-07
1.24757e-07
2.63995e-10
1.25037e-07
-5.49822e-11
1.25273e-07
-2.37472e-10
1.25472e-07
-3.43559e-10
1.25639e-07
-4.06367e-10
1.25777e-07
-4.43623e-10
1.25891e-07
-4.64347e-10
1.25983e-07
-4.74066e-10
1.26057e-07
-4.75914e-10
1.26116e-07
-4.72087e-10
1.26164e-07
-4.64199e-10
1.26203e-07
-4.53473e-10
1.26235e-07
-4.40886e-10
1.26262e-07
-4.27297e-10
-4.13359e-10
1.26286e-07
1.54034e-07
-5.38017e-11
1.54303e-07
-3.24201e-10
1.54531e-07
-4.65139e-10
1.54724e-07
-5.36766e-10
1.54887e-07
-5.69135e-10
1.55023e-07
-5.79513e-10
1.55136e-07
-5.77036e-10
1.55228e-07
-5.66994e-10
1.55305e-07
-5.52445e-10
1.55368e-07
-5.35379e-10
1.55421e-07
-5.17061e-10
1.55466e-07
-4.9828e-10
1.55505e-07
-4.79663e-10
1.55539e-07
-4.6172e-10
-4.44734e-10
1.55571e-07
1.88773e-07
-3.39341e-10
1.89009e-07
-5.60115e-10
1.89208e-07
-6.63593e-10
1.89375e-07
-7.03469e-10
1.89515e-07
-7.0915e-10
1.89631e-07
-6.96397e-10
1.89729e-07
-6.74514e-10
1.8981e-07
-6.48215e-10
1.89878e-07
-6.20224e-10
1.89935e-07
-5.92503e-10
1.89984e-07
-5.66007e-10
1.90027e-07
-5.40908e-10
1.90064e-07
-5.17529e-10
1.90099e-07
-4.96095e-10
-4.76538e-10
1.90131e-07
2.29062e-07
-5.92626e-10
2.29265e-07
-7.62581e-10
2.29431e-07
-8.29226e-10
2.29567e-07
-8.40152e-10
2.2968e-07
-8.22248e-10
2.29774e-07
-7.90438e-10
2.29853e-07
-7.52687e-10
2.29918e-07
-7.13826e-10
2.29973e-07
-6.75494e-10
2.3002e-07
-6.39509e-10
2.30061e-07
-6.06889e-10
2.30097e-07
-5.76703e-10
2.3013e-07
-5.49954e-10
2.30159e-07
-5.25418e-10
-5.03817e-10
2.30186e-07
2.74429e-07
-8.18213e-10
2.74601e-07
-9.34333e-10
2.74735e-07
-9.63778e-10
2.74843e-07
-9.47752e-10
2.74931e-07
-9.10222e-10
2.75003e-07
-8.62503e-10
2.75063e-07
-8.12278e-10
2.75113e-07
-7.64078e-10
2.75155e-07
-7.18022e-10
2.75192e-07
-6.76467e-10
2.75225e-07
-6.39437e-10
2.75253e-07
-6.04381e-10
2.75277e-07
-5.74011e-10
2.75298e-07
-5.47147e-10
-5.23988e-10
2.75319e-07
3.23453e-07
-1.00745e-09
3.23586e-07
-1.06744e-09
3.23684e-07
-1.06129e-09
3.23757e-07
-1.02166e-09
3.23815e-07
-9.67367e-10
3.23859e-07
-9.07374e-10
3.23896e-07
-8.48858e-10
3.23926e-07
-7.9427e-10
3.23949e-07
-7.41099e-10
3.23967e-07
-6.94647e-10
3.23984e-07
-6.55916e-10
3.24001e-07
-6.21045e-10
3.24016e-07
-5.89297e-10
3.24029e-07
-5.60375e-10
-5.33513e-10
3.24039e-07
3.72987e-07
-1.11228e-09
3.73046e-07
-1.12592e-09
3.7308e-07
-1.09603e-09
3.73102e-07
-1.04331e-09
3.73115e-07
-9.80467e-10
3.73123e-07
-9.14962e-10
3.73129e-07
-8.55533e-10
3.73136e-07
-8.01083e-10
3.73145e-07
-7.49477e-10
3.73152e-07
-7.02368e-10
3.73156e-07
-6.59374e-10
3.73155e-07
-6.20211e-10
3.73151e-07
-5.85485e-10
3.73145e-07
-5.5471e-10
-5.26953e-10
3.73139e-07
3.70772e-07
-1.15558e-09
3.70782e-07
-1.13565e-09
3.70774e-07
-1.08781e-09
3.70758e-07
-1.02746e-09
3.7074e-07
-9.62595e-10
3.70723e-07
-8.98041e-10
3.70705e-07
-8.37453e-10
3.70685e-07
-7.81241e-10
3.70665e-07
-7.28962e-10
3.70644e-07
-6.8149e-10
3.70623e-07
-6.38515e-10
3.70602e-07
-5.99456e-10
3.7058e-07
-5.63768e-10
3.70557e-07
-5.31061e-10
-5.0088e-10
3.70531e-07
3.17453e-07
-1.12885e-09
3.17409e-07
-1.09137e-09
3.17358e-07
-1.03698e-09
3.17305e-07
-9.74928e-10
3.17255e-07
-9.12003e-10
3.17207e-07
-8.50831e-10
3.17162e-07
-7.9249e-10
3.1712e-07
-7.38433e-10
3.17079e-07
-6.88495e-10
3.1704e-07
-6.42512e-10
3.17002e-07
-6.00253e-10
3.16964e-07
-5.61133e-10
3.16925e-07
-5.24656e-10
3.16884e-07
-4.90414e-10
-4.58046e-10
3.16841e-07
2.66072e-07
-1.05526e-09
2.65991e-07
-1.01023e-09
2.6591e-07
-9.55568e-10
2.65832e-07
-8.96844e-10
2.65758e-07
-8.38296e-10
2.65689e-07
-7.81631e-10
2.65624e-07
-7.27969e-10
2.65564e-07
-6.77751e-10
2.65506e-07
-6.30814e-10
2.6545e-07
-5.87061e-10
2.65396e-07
-5.46233e-10
2.65343e-07
-5.07602e-10
2.65289e-07
-4.71016e-10
2.65235e-07
-4.36099e-10
-4.02587e-10
2.65179e-07
2.19263e-07
-9.48718e-10
2.19156e-07
-9.03075e-10
2.19052e-07
-8.51284e-10
2.18952e-07
-7.97511e-10
2.18859e-07
-7.44835e-10
2.18772e-07
-6.94247e-10
2.1869e-07
-6.46232e-10
2.18613e-07
-6.00988e-10
2.1854e-07
-5.58174e-10
2.18471e-07
-5.17758e-10
2.18404e-07
-4.79288e-10
2.18339e-07
-4.42578e-10
2.18275e-07
-4.07119e-10
2.18212e-07
-3.72863e-10
-3.39509e-10
2.18149e-07
1.78134e-07
-8.13398e-10
1.78004e-07
-7.73256e-10
1.77882e-07
-7.28784e-10
1.77767e-07
-6.83226e-10
1.77661e-07
-6.38582e-10
1.77563e-07
-5.95579e-10
1.77471e-07
-5.54443e-10
1.77385e-07
-5.15174e-10
1.77304e-07
-4.77633e-10
1.77228e-07
-4.41582e-10
1.77156e-07
-4.06821e-10
1.77086e-07
-3.73105e-10
1.77019e-07
-3.40204e-10
1.76954e-07
-3.07955e-10
-2.76228e-10
1.76891e-07
1.42911e-07
-6.68623e-10
1.42775e-07
-6.36604e-10
1.42648e-07
-6.01454e-10
1.4253e-07
-5.65563e-10
1.42421e-07
-5.30162e-10
1.42322e-07
-4.95676e-10
1.42229e-07
-4.62226e-10
1.42144e-07
-4.29804e-10
1.42065e-07
-3.98322e-10
1.41991e-07
-3.67625e-10
1.41921e-07
-3.37551e-10
1.41856e-07
-3.07977e-10
1.41795e-07
-2.78776e-10
1.41737e-07
-2.49792e-10
-2.21076e-10
1.41682e-07
1.13365e-07
-5.31128e-10
1.13237e-07
-5.08297e-10
1.13118e-07
-4.82934e-10
1.1301e-07
-4.56765e-10
1.1291e-07
-4.30513e-10
1.12819e-07
-4.04447e-10
1.12735e-07
-3.78689e-10
1.12659e-07
-3.53262e-10
1.12588e-07
-3.28134e-10
1.12524e-07
-3.032e-10
1.12465e-07
-2.78323e-10
1.1241e-07
-2.53545e-10
1.1236e-07
-2.28707e-10
1.12314e-07
-2.03848e-10
-1.78941e-10
1.12272e-07
8.90085e-08
-4.12163e-10
8.88981e-08
-3.97852e-10
8.87964e-08
-3.81288e-10
8.87034e-08
-3.63745e-10
8.86185e-08
-3.45602e-10
8.85411e-08
-3.27069e-10
8.84708e-08
-3.08309e-10
8.84069e-08
-2.89386e-10
8.8349e-08
-2.7028e-10
8.82967e-08
-2.50916e-10
8.82496e-08
-2.31215e-10
8.82073e-08
-2.11247e-10
8.81696e-08
-1.90948e-10
8.81361e-08
-1.70411e-10
-1.49614e-10
8.81068e-08
6.92127e-08
-3.15305e-10
6.91226e-08
-3.07795e-10
6.90396e-08
-2.98284e-10
6.89635e-08
-2.87669e-10
6.8894e-08
-2.7609e-10
6.88307e-08
-2.63758e-10
6.87733e-08
-2.5087e-10
6.87214e-08
-2.37511e-10
6.86748e-08
-2.23647e-10
6.86331e-08
-2.09229e-10
6.85961e-08
-1.94221e-10
6.85635e-08
-1.78679e-10
6.85352e-08
-1.62649e-10
6.8511e-08
-1.46209e-10
-1.29396e-10
6.84908e-08
5.33014e-08
-2.38811e-10
5.32298e-08
-2.3611e-10
5.31632e-08
-2.31731e-10
5.31017e-08
-2.26204e-10
5.30452e-08
-2.19536e-10
5.29934e-08
-2.11955e-10
5.29462e-08
-2.03659e-10
5.29034e-08
-1.94731e-10
5.28649e-08
-1.85135e-10
5.28305e-08
-1.74822e-10
5.28e-08
-1.63785e-10
5.27734e-08
-1.52081e-10
5.27506e-08
-1.39795e-10
5.27314e-08
-1.27007e-10
-1.13771e-10
5.27158e-08
4.06237e-08
-1.78839e-10
4.05667e-08
-1.79153e-10
4.05132e-08
-1.78161e-10
4.0463e-08
-1.76049e-10
4.04163e-08
-1.72786e-10
4.03729e-08
-1.68603e-10
4.03329e-08
-1.63676e-10
4.02963e-08
-1.58071e-10
4.02629e-08
-1.5175e-10
4.02327e-08
-1.44672e-10
4.02058e-08
-1.36837e-10
4.0182e-08
-1.28304e-10
4.01614e-08
-1.19163e-10
4.01439e-08
-1.09489e-10
-9.93415e-11
4.01294e-08
3.05951e-08
-1.31602e-10
3.05494e-08
-1.33532e-10
3.05058e-08
-1.34508e-10
3.04642e-08
-1.34452e-10
3.04248e-08
-1.33353e-10
3.03876e-08
-1.31428e-10
3.03527e-08
-1.28815e-10
3.03202e-08
-1.25562e-10
3.02901e-08
-1.21632e-10
3.02624e-08
-1.16989e-10
3.02372e-08
-1.11637e-10
3.02145e-08
-1.05629e-10
3.01944e-08
-9.90432e-11
3.01769e-08
-9.19464e-11
-8.43888e-11
3.01619e-08
2.27138e-08
-9.42326e-11
2.2677e-08
-9.6789e-11
2.26412e-08
-9.86744e-11
2.26064e-08
-9.96584e-11
2.25728e-08
-9.97789e-11
2.25406e-08
-9.92179e-11
2.25099e-08
-9.80778e-11
2.24807e-08
-9.63877e-11
2.24532e-08
-9.41151e-11
2.24274e-08
-9.12301e-11
2.24035e-08
-8.77355e-11
2.23816e-08
-8.36737e-11
2.23616e-08
-7.91071e-11
2.23438e-08
-7.40871e-11
-6.86548e-11
2.23281e-08
1.656e-08
-6.48137e-11
1.65306e-08
-6.73562e-11
1.65014e-08
-6.94213e-11
1.64725e-08
-7.07505e-11
1.64441e-08
-7.14216e-11
1.64165e-08
-7.15728e-11
1.63896e-08
-7.12745e-11
1.63638e-08
-7.0544e-11
1.6339e-08
-6.93545e-11
1.63155e-08
-6.76809e-11
1.62933e-08
-6.55239e-11
1.62725e-08
-6.29133e-11
1.62533e-08
-5.98953e-11
1.62357e-08
-5.65054e-11
-5.27744e-11
1.62198e-08
1.17881e-08
-4.20839e-11
1.1765e-08
-4.42404e-11
1.17416e-08
-4.60406e-11
1.17181e-08
-4.72886e-11
1.16948e-08
-4.80775e-11
1.16717e-08
-4.85014e-11
1.1649e-08
-4.8606e-11
1.16269e-08
-4.84008e-11
1.16054e-08
-4.78655e-11
1.15847e-08
-4.69801e-11
1.15649e-08
-4.57431e-11
1.15462e-08
-4.41728e-11
1.15286e-08
-4.23008e-11
1.15122e-08
-4.01492e-11
-3.77374e-11
1.14972e-08
8.11576e-09
-2.51269e-11
8.09824e-09
-2.67264e-11
8.08025e-09
-2.80479e-11
8.06196e-09
-2.89989e-11
8.04355e-09
-2.96624e-11
8.02514e-09
-3.00947e-11
8.00686e-09
-3.0323e-11
7.98881e-09
-3.03525e-11
7.97111e-09
-3.01693e-11
7.95389e-09
-2.97587e-11
7.93726e-09
-2.91178e-11
7.92135e-09
-2.82563e-11
7.90624e-09
-2.71938e-11
7.89203e-09
-2.59419e-11
-2.45097e-11
7.87881e-09
5.31434e-09
-1.31654e-11
5.3018e-09
-1.41838e-11
5.28874e-09
-1.49879e-11
5.27532e-09
-1.55806e-11
5.26168e-09
-1.60189e-11
5.24791e-09
-1.63308e-11
5.23412e-09
-1.65305e-11
5.22039e-09
-1.66205e-11
5.20681e-09
-1.65926e-11
5.19349e-09
-1.64376e-11
5.18053e-09
-1.61525e-11
5.16801e-09
-1.5741e-11
5.15603e-09
-1.52139e-11
5.14467e-09
-1.45761e-11
-1.38281e-11
5.13398e-09
3.19939e-09
-5.46412e-12
3.19119e-09
-5.98178e-12
3.18255e-09
-6.34998e-12
3.1736e-09
-6.62783e-12
3.16442e-09
-6.84238e-12
3.1551e-09
-7.00361e-12
3.14568e-09
-7.11675e-12
3.13624e-09
-7.18276e-12
3.12685e-09
-7.19789e-12
3.11757e-09
-7.15735e-12
3.10848e-09
-7.05929e-12
3.09964e-09
-6.90446e-12
3.09112e-09
-6.69762e-12
3.08299e-09
-6.4398e-12
-6.12707e-12
3.07529e-09
1.62281e-09
-1.30651e-12
1.6183e-09
-1.47208e-12
1.61351e-09
-1.55952e-12
1.60851e-09
-1.62907e-12
1.60335e-09
-1.68585e-12
1.59808e-09
-1.73064e-12
1.59272e-09
-1.76398e-12
1.58733e-09
-1.7858e-12
1.58192e-09
-1.79503e-12
1.57656e-09
-1.79026e-12
1.57127e-09
-1.77089e-12
1.5661e-09
-1.73687e-12
1.56109e-09
-1.68947e-12
1.55628e-09
-1.62843e-12
-1.54965e-12
1.5517e-09
4.66159e-10
4.64687e-10
4.63127e-10
4.61498e-10
4.59813e-10
4.58082e-10
4.56318e-10
4.54532e-10
4.52737e-10
4.50947e-10
4.49176e-10
4.47439e-10
4.4575e-10
4.44121e-10
4.42572e-10
1.25372e-09
-5.07163e-10
3.00885e-10
1.54953e-09
-4.33453e-10
1.37638e-10
1.84839e-09
-2.93829e-10
-5.03131e-12
2.14282e-09
-1.55898e-10
-1.38527e-10
2.43075e-09
-2.6736e-11
-2.61194e-10
2.71248e-09
8.36308e-11
-3.65365e-10
2.98902e-09
1.71521e-10
-4.48063e-10
3.26116e-09
2.33618e-10
-5.0575e-10
3.52955e-09
2.66398e-10
-5.34793e-10
3.7947e-09
2.66598e-10
-5.31747e-10
4.05694e-09
2.30953e-10
-4.9319e-10
4.31649e-09
1.56309e-10
-4.15864e-10
4.57342e-09
4.06738e-11
-2.976e-10
4.82772e-09
-1.15581e-10
-1.38721e-10
5.0795e-09
-3.07482e-10
5.57055e-11
5.32939e-09
-5.21193e-10
2.71305e-10
5.57906e-09
-7.3006e-10
4.80383e-10
5.83222e-09
-8.86009e-10
6.32848e-10
6.09545e-09
-9.21755e-10
6.58526e-10
6.37884e-09
-7.41773e-10
4.58385e-10
6.69488e-09
-2.58353e-10
-5.7688e-11
7.05401e-09
5.81843e-10
-9.40971e-10
7.39861e-09
1.39271e-09
-1.73731e-09
7.69462e-09
1.77372e-09
-2.06972e-09
7.93448e-09
1.78575e-09
-2.02561e-09
8.11683e-09
1.52913e-09
-1.71148e-09
8.24316e-09
1.10307e-09
-1.2294e-09
8.3154e-09
5.78238e-10
-6.50483e-10
8.33502e-09
6.01449e-12
-2.56299e-11
8.30271e-09
-5.6917e-10
6.01474e-10
8.21917e-09
-1.107e-09
1.19054e-09
8.08558e-09
-1.57014e-09
1.70372e-09
7.90408e-09
-1.9266e-09
2.10811e-09
7.6777e-09
-2.15224e-09
2.37862e-09
7.41011e-09
-2.23206e-09
2.49964e-09
7.10517e-09
-2.1598e-09
2.46475e-09
6.76646e-09
-1.93595e-09
2.27466e-09
6.39723e-09
-1.5642e-09
1.93342e-09
6.00073e-09
-1.04697e-09
1.44347e-09
5.58015e-09
-3.81623e-10
8.02202e-10
5.13552e-09
4.35054e-10
9.58169e-12
4.65931e-09
1.38418e-09
-9.07978e-10
4.13256e-09
2.35766e-09
-1.8309e-09
3.55998e-09
3.0968e-09
-2.52422e-09
2.89713e-09
3.22148e-09
-2.55863e-09
2.61305e-09
-5.8924e-10
2.78957e-09
-6.09967e-10
3.02958e-09
-5.33847e-10
3.29769e-09
-4.24003e-10
3.57892e-09
-3.07972e-10
3.86508e-09
-2.02524e-10
4.15248e-09
-1.15879e-10
4.43933e-09
-5.32353e-11
4.72482e-09
-1.90906e-11
5.00849e-09
-1.70715e-11
5.29004e-09
-5.0598e-11
5.56925e-09
-1.22903e-10
5.84583e-09
-2.3591e-10
6.11944e-09
-3.89189e-10
6.38992e-09
-5.77962e-10
6.65766e-09
-7.88934e-10
6.92418e-09
-9.96573e-10
7.19314e-09
-1.15498e-09
7.4714e-09
-1.20001e-09
7.7697e-09
-1.04008e-09
8.10177e-09
-5.90423e-10
8.47987e-09
2.03744e-10
8.84512e-09
1.02746e-09
9.16177e-09
1.45707e-09
9.42116e-09
1.52637e-09
9.62102e-09
1.32927e-09
9.7621e-09
9.6199e-10
9.84581e-09
4.94531e-10
9.87325e-09
-2.14259e-11
9.84509e-09
-5.41012e-10
9.76212e-09
-1.02402e-09
9.62592e-09
-1.43394e-09
9.43925e-09
-1.73994e-09
9.20611e-09
-1.9191e-09
8.93147e-09
-1.95742e-09
8.62096e-09
-1.84929e-09
8.28065e-09
-1.59564e-09
7.91744e-09
-1.20099e-09
7.54029e-09
-6.69825e-10
7.16246e-09
-3.79763e-12
6.80303e-09
7.94488e-10
6.48808e-09
1.69913e-09
6.24979e-09
2.59594e-09
6.13546e-09
3.21114e-09
2.97935e-09
6.05324e-09
4.5519e-09
-6.06055e-10
4.6312e-09
-6.89267e-10
4.78517e-09
-6.87823e-10
4.99553e-09
-6.34361e-10
5.24113e-09
-5.53574e-10
5.50805e-09
-4.69446e-10
5.78756e-09
-3.95382e-10
6.07425e-09
-3.39928e-10
6.36488e-09
-3.09718e-10
6.65728e-09
-3.09477e-10
6.94996e-09
-3.43273e-10
7.24182e-09
-4.14767e-10
7.53189e-09
-5.25978e-10
7.81925e-09
-6.76542e-10
8.10324e-09
-8.61956e-10
8.38384e-09
-1.06953e-09
8.66222e-09
-1.27496e-09
8.94189e-09
-1.43464e-09
9.22978e-09
-1.4879e-09
9.53722e-09
-1.34752e-09
9.8791e-09
-9.32303e-10
1.02697e-08
-1.86838e-10
1.06502e-08
6.46915e-10
1.09837e-08
1.12358e-09
1.12602e-08
1.24989e-09
1.14762e-08
1.11322e-09
1.16316e-08
8.06592e-10
1.1727e-08
3.99186e-10
1.1763e-08
-5.73998e-11
1.17401e-08
-5.1812e-10
1.16592e-08
-9.43188e-10
1.15225e-08
-1.29723e-09
1.13335e-08
-1.55094e-09
1.10974e-08
-1.68297e-09
1.08207e-08
-1.68072e-09
1.05113e-08
-1.53985e-09
1.01782e-08
-1.26258e-09
9.83271e-09
-8.55484e-10
9.49005e-09
-3.27165e-10
9.1731e-09
3.13148e-10
8.91658e-09
1.05101e-09
8.76652e-09
1.84919e-09
8.76357e-09
2.5989e-09
8.89784e-09
3.07687e-09
2.90616e-09
8.97102e-09
7.1977e-09
-5.86778e-10
7.21235e-09
-7.03921e-10
7.28301e-09
-7.58482e-10
7.41547e-09
-7.66827e-10
7.60027e-09
-7.3837e-10
7.82208e-09
-6.91253e-10
8.06999e-09
-6.43293e-10
8.33578e-09
-6.05724e-10
8.61368e-09
-5.8762e-10
8.8994e-09
-5.95192e-10
9.18975e-09
-6.33627e-10
9.4824e-09
-7.07415e-10
9.77529e-09
-8.18865e-10
1.00666e-08
-9.67874e-10
1.0355e-08
-1.15035e-09
1.06398e-08
-1.35428e-09
1.09215e-08
-1.55671e-09
1.12034e-08
-1.71651e-09
1.14922e-08
-1.77673e-09
1.17997e-08
-1.65503e-09
1.21419e-08
-1.27445e-09
1.2535e-08
-5.79968e-10
1.29224e-08
2.59533e-10
1.32663e-08
7.7966e-10
1.35553e-08
9.6089e-10
1.37845e-08
8.83977e-10
1.39525e-08
6.3863e-10
1.40587e-08
2.92967e-10
1.41033e-08
-1.01966e-10
1.40865e-08
-5.01277e-10
1.40093e-08
-8.66025e-10
1.38744e-08
-1.16238e-09
1.36864e-08
-1.36295e-09
1.34518e-08
-1.44836e-09
1.31791e-08
-1.40795e-09
1.28784e-08
-1.2392e-09
1.25623e-08
-9.46441e-10
1.22461e-08
-5.39298e-10
1.19505e-08
-3.15683e-11
1.17046e-08
5.5905e-10
1.1549e-08
1.20662e-09
1.15313e-08
1.86685e-09
1.16806e-08
2.44959e-09
1.19562e-08
2.80135e-09
2.7228e-09
1.21395e-08
1.07206e-08
-5.53447e-10
1.06959e-08
-6.79254e-10
1.07056e-08
-7.68192e-10
1.07609e-08
-8.22073e-10
1.087e-08
-8.47467e-10
1.10259e-08
-8.47145e-10
1.12186e-08
-8.36071e-10
1.14399e-08
-8.27002e-10
1.16828e-08
-8.30462e-10
1.19412e-08
-8.53586e-10
1.22103e-08
-9.02764e-10
1.24864e-08
-9.83553e-10
1.27662e-08
-1.09863e-09
1.30466e-08
-1.24832e-09
1.33254e-08
-1.42913e-09
1.36009e-08
-1.62979e-09
1.38731e-08
-1.82883e-09
1.41443e-08
-1.98773e-09
1.44211e-08
-2.05356e-09
1.47154e-08
-1.94935e-09
1.5044e-08
-1.60306e-09
1.54253e-08
-9.61281e-10
1.58071e-08
-1.22183e-10
1.61515e-08
4.35191e-10
1.64455e-08
6.66929e-10
1.66824e-08
6.47052e-10
1.68592e-08
4.61858e-10
1.6974e-08
1.78189e-10
1.70261e-08
-1.54054e-10
1.70153e-08
-4.90557e-10
1.6943e-08
-7.93728e-10
1.68124e-08
-1.03176e-09
1.66291e-08
-1.17961e-09
1.64011e-08
-1.22036e-09
1.61388e-08
-1.1457e-09
1.58551e-08
-9.55482e-10
1.55653e-08
-6.56687e-10
1.52884e-08
-2.62378e-10
1.50481e-08
2.08811e-10
1.48746e-08
7.32504e-10
1.48051e-08
1.27609e-09
1.48765e-08
1.79543e-09
1.51014e-08
2.22474e-09
1.54289e-08
2.47388e-09
2.45407e-09
1.56976e-08
1.53182e-08
-5.19109e-10
1.52758e-08
-6.36786e-10
1.52482e-08
-7.40667e-10
1.52481e-08
-8.21972e-10
1.52863e-08
-8.8566e-10
1.53665e-08
-9.27347e-10
1.54891e-08
-9.58631e-10
1.56457e-08
-9.83623e-10
1.58313e-08
-1.01608e-09
1.60396e-08
-1.06186e-09
1.6265e-08
-1.12818e-09
1.65029e-08
-1.22144e-09
1.67487e-08
-1.34438e-09
1.69982e-08
-1.49786e-09
1.72481e-08
-1.67904e-09
1.74958e-08
-1.87743e-09
1.77401e-08
-2.07315e-09
1.79827e-08
-2.23035e-09
1.82296e-08
-2.30045e-09
1.84925e-08
-2.21228e-09
1.87888e-08
-1.89936e-09
1.91388e-08
-1.31122e-09
1.94975e-08
-4.80914e-10
1.98283e-08
1.04334e-10
2.01159e-08
3.79319e-10
2.03518e-08
4.11208e-10
2.05308e-08
2.82808e-10
2.06496e-08
5.94699e-11
2.07063e-08
-2.10793e-10
2.07004e-08
-4.84705e-10
2.06333e-08
-7.26598e-10
2.05088e-08
-9.07241e-10
2.03336e-08
-1.0044e-09
2.01172e-08
-1.00401e-09
1.9872e-08
-9.0052e-10
1.9613e-08
-6.96434e-10
1.93578e-08
-4.01471e-10
1.91271e-08
-3.1743e-11
1.8945e-08
3.90964e-10
1.88385e-08
8.39023e-10
1.88353e-08
1.27927e-09
1.89571e-08
1.67362e-09
1.92031e-08
1.97875e-09
1.95279e-08
2.14909e-09
2.15192e-09
1.983e-08
2.12233e-08
-4.89657e-10
2.11797e-08
-5.93207e-10
2.11348e-08
-6.95826e-10
2.11026e-08
-7.89709e-10
2.10912e-08
-8.74309e-10
2.11083e-08
-9.44442e-10
2.11589e-08
-1.0092e-09
2.12425e-08
-1.06724e-09
2.13566e-08
-1.1302e-09
2.14963e-08
-1.20156e-09
2.16571e-08
-1.28896e-09
2.18345e-08
-1.39885e-09
2.20233e-08
-1.53315e-09
2.22187e-08
-1.69332e-09
2.24167e-08
-1.87699e-09
2.26135e-08
-2.07424e-09
2.28072e-08
-2.26686e-09
2.29985e-08
-2.42166e-09
2.31926e-08
-2.49459e-09
2.3401e-08
-2.42066e-09
2.36412e-08
-2.1395e-09
2.39348e-08
-1.60484e-09
2.42481e-08
-7.94171e-10
2.45464e-08
-1.94011e-10
2.4812e-08
1.13746e-10
2.5034e-08
1.89199e-10
2.52052e-08
1.11579e-10
2.53201e-08
-5.54557e-11
2.53761e-08
-2.66707e-10
2.53717e-08
-4.80362e-10
2.53084e-08
-6.63309e-10
2.51907e-08
-7.89464e-10
2.50261e-08
-8.39845e-10
2.48257e-08
-8.03567e-10
2.46032e-08
-6.78022e-10
2.43751e-08
-4.68325e-10
2.41601e-08
-1.86508e-10
2.39789e-08
1.49462e-10
2.3853e-08
5.16843e-10
2.38034e-08
8.88607e-10
2.3847e-08
1.23567e-09
2.39917e-08
1.52897e-09
2.42281e-08
1.74231e-09
2.45213e-08
1.85587e-09
1.86211e-09
2.48111e-08
2.87088e-08
-4.65634e-10
2.86708e-08
-5.55241e-10
2.86247e-08
-6.49669e-10
2.85788e-08
-7.43843e-10
2.85397e-08
-8.35231e-10
2.85165e-08
-9.21227e-10
2.85126e-08
-1.00522e-09
2.85316e-08
-1.08627e-09
2.85742e-08
-1.17284e-09
2.86396e-08
-1.26699e-09
2.87245e-08
-1.37381e-09
2.88258e-08
-1.50018e-09
2.89388e-08
-1.64612e-09
2.90592e-08
-1.81373e-09
2.91826e-08
-2.00042e-09
2.93049e-08
-2.19649e-09
2.94235e-08
-2.38545e-09
2.95383e-08
-2.53652e-09
2.9654e-08
-2.61027e-09
2.97815e-08
-2.54812e-09
2.9938e-08
-2.29606e-09
3.01463e-08
-1.81313e-09
3.03873e-08
-1.03512e-09
3.06299e-08
-4.36597e-10
3.08534e-08
-1.09816e-10
3.10447e-08
-2.02754e-12
3.1194e-08
-3.77206e-11
3.12936e-08
-1.55115e-10
3.13399e-08
-3.13039e-10
3.13309e-08
-4.71341e-10
3.12678e-08
-6.00138e-10
3.11553e-08
-6.77056e-10
3.10022e-08
-6.86697e-10
3.08201e-08
-6.21509e-10
3.06239e-08
-4.81754e-10
3.04303e-08
-2.74767e-10
3.02578e-08
-1.40169e-11
3.01249e-08
2.82379e-10
3.00491e-08
5.92685e-10
3.00441e-08
8.93536e-10
3.01177e-08
1.16207e-09
3.02684e-08
1.3783e-09
3.0483e-08
1.52768e-09
3.07356e-08
1.60334e-09
1.60747e-09
3.09902e-08
3.80871e-08
-4.45216e-10
3.80551e-08
-5.23174e-10
3.80133e-08
-6.07922e-10
3.7966e-08
-6.9651e-10
3.79176e-08
-7.86793e-10
3.78736e-08
-8.77268e-10
3.78371e-08
-9.68734e-10
3.78127e-08
-1.06188e-09
3.78007e-08
-1.16083e-09
3.78025e-08
-1.26874e-09
3.78161e-08
-1.38741e-09
3.78393e-08
-1.52345e-09
3.78705e-08
-1.67727e-09
3.79055e-08
-1.8487e-09
3.79401e-08
-2.03502e-09
3.79704e-08
-2.22679e-09
3.7994e-08
-2.40908e-09
3.80106e-08
-2.55312e-09
3.80243e-08
-2.62399e-09
3.80458e-08
-2.5696e-09
3.8092e-08
-2.34224e-09
3.81857e-08
-1.90687e-09
3.83262e-08
-1.17561e-09
3.84876e-08
-5.97979e-10
3.86464e-08
-2.68667e-10
3.87868e-08
-1.42348e-10
3.88965e-08
-1.47488e-10
3.89658e-08
-2.2435e-10
3.89903e-08
-3.37619e-10
3.89673e-08
-4.48269e-10
3.88976e-08
-5.30433e-10
3.87864e-08
-5.65916e-10
3.86428e-08
-5.43043e-10
3.84788e-08
-4.57511e-10
3.83091e-08
-3.12105e-10
3.815e-08
-1.15683e-10
3.80179e-08
1.18114e-10
3.7928e-08
3.72306e-10
3.78927e-08
6.27993e-10
3.79194e-08
8.66753e-10
3.80094e-08
1.07211e-09
3.81563e-08
1.23146e-09
3.83464e-08
1.33757e-09
3.85603e-08
1.38938e-09
1.39175e-09
3.87761e-08
4.96992e-08
-4.27499e-10
4.9672e-08
-4.96009e-10
4.96357e-08
-5.71641e-10
4.95921e-08
-6.52862e-10
4.95435e-08
-7.3824e-10
4.9493e-08
-8.26746e-10
4.94428e-08
-9.18497e-10
4.93952e-08
-1.01432e-09
4.93508e-08
-1.11638e-09
4.93094e-08
-1.22736e-09
4.92712e-08
-1.34925e-09
4.92334e-08
-1.48564e-09
4.91938e-08
-1.63769e-09
4.91495e-08
-1.80439e-09
4.90972e-08
-1.98267e-09
4.90332e-08
-2.16284e-09
4.89557e-08
-2.33158e-09
4.88644e-08
-2.46184e-09
4.87635e-08
-2.52309e-09
4.86635e-08
-2.4696e-09
4.85811e-08
-2.25977e-09
4.85386e-08
-1.86437e-09
4.85554e-08
-1.1925e-09
4.86129e-08
-6.55456e-10
4.86857e-08
-3.41453e-10
4.87549e-08
-2.11531e-10
4.88063e-08
-1.9888e-10
4.88281e-08
-2.46136e-10
4.88164e-08
-3.25993e-10
4.87674e-08
-3.99233e-10
4.86818e-08
-4.44866e-10
4.85651e-08
-4.49145e-10
4.8426e-08
-4.03952e-10
4.82764e-08
-3.07883e-10
4.81299e-08
-1.65618e-10
4.8001e-08
1.32302e-11
4.79028e-08
2.16316e-10
4.78468e-08
4.28297e-10
4.78404e-08
6.34385e-10
4.78862e-08
8.20915e-10
4.79815e-08
9.7682e-10
4.81182e-08
1.09474e-09
4.82842e-08
1.17158e-09
4.8465e-08
1.2086e-09
1.21059e-09
4.86461e-08
6.39036e-08
-4.14269e-10
6.38825e-08
-4.7495e-10
6.38533e-08
-5.42402e-10
6.38164e-08
-6.15953e-10
6.37729e-08
-6.94778e-10
6.37244e-08
-7.782e-10
6.3672e-08
-8.66115e-10
6.36167e-08
-9.59003e-10
6.35584e-08
-1.05809e-09
6.34962e-08
-1.16519e-09
6.3429e-08
-1.28202e-09
6.33538e-08
-1.41044e-09
6.32676e-08
-1.55151e-09
6.31668e-08
-1.70362e-09
6.3048e-08
-1.8638e-09
6.29073e-08
-2.0222e-09
6.2743e-08
-2.16725e-09
6.25548e-08
-2.27363e-09
6.23469e-08
-2.31516e-09
6.21295e-08
-2.25222e-09
6.1919e-08
-2.04934e-09
6.17371e-08
-1.68246e-09
6.16221e-08
-1.07746e-09
6.15638e-08
-5.97165e-10
6.15355e-08
-3.13143e-10
6.15176e-08
-1.93638e-10
6.14968e-08
-1.78077e-10
6.14599e-08
-2.09204e-10
6.13984e-08
-2.64515e-10
6.13109e-08
-3.11754e-10
6.11993e-08
-3.33233e-10
6.10685e-08
-3.18352e-10
6.09268e-08
-2.62311e-10
6.0785e-08
-1.66088e-10
6.0655e-08
-3.55658e-11
6.05478e-08
1.20383e-10
6.04739e-08
2.90289e-10
6.04402e-08
4.61983e-10
6.04502e-08
6.24379e-10
6.05032e-08
7.67869e-10
6.05947e-08
8.85381e-10
6.07165e-08
9.72871e-10
6.08587e-08
1.02938e-09
6.10106e-08
1.05678e-09
1.05901e-09
6.11621e-08
8.10846e-08
-4.09662e-10
8.10734e-08
-4.63703e-10
8.10548e-08
-5.2386e-10
8.10288e-08
-5.89933e-10
8.09956e-08
-6.61528e-10
8.09556e-08
-7.38247e-10
8.09094e-08
-8.19907e-10
8.08571e-08
-9.06675e-10
8.07981e-08
-9.99128e-10
8.07312e-08
-1.09822e-09
8.06541e-08
-1.20495e-09
8.05637e-08
-1.32005e-09
8.04561e-08
-1.44391e-09
8.03268e-08
-1.57427e-09
8.01713e-08
-1.70831e-09
7.99851e-08
-1.83602e-09
7.97656e-08
-1.94775e-09
7.95119e-08
-2.01994e-09
7.92276e-08
-2.03083e-09
7.89219e-08
-1.94652e-09
7.86104e-08
-1.73784e-09
7.83136e-08
-1.38572e-09
7.80827e-08
-8.46584e-10
7.79171e-08
-4.31476e-10
7.77953e-08
-1.91367e-10
7.76922e-08
-9.05305e-11
7.75907e-08
-7.66079e-11
7.74859e-08
-1.04402e-10
7.73688e-08
-1.47423e-10
7.72372e-08
-1.80099e-10
7.70932e-08
-1.89244e-10
7.69421e-08
-1.67277e-10
7.67915e-08
-1.11747e-10
7.66504e-08
-2.49445e-11
7.65286e-08
8.62008e-11
7.64336e-08
2.15404e-10
7.63726e-08
3.51233e-10
7.63492e-08
4.85456e-10
7.63637e-08
6.0985e-10
7.64137e-08
7.17903e-10
7.64938e-08
8.05225e-10
7.6597e-08
8.69674e-10
7.67152e-08
9.11215e-10
7.68404e-08
9.31616e-10
9.33845e-10
7.69655e-08
1.01694e-07
-4.17579e-10
1.01696e-07
-4.65891e-10
1.01692e-07
-5.19532e-10
1.0168e-07
-5.78526e-10
1.01662e-07
-6.42723e-10
1.01635e-07
-7.11904e-10
1.01601e-07
-7.85863e-10
1.01559e-07
-8.64548e-10
1.01508e-07
-9.48049e-10
1.01446e-07
-1.0366e-09
1.01372e-07
-1.13045e-09
1.01281e-07
-1.22934e-09
1.0117e-07
-1.3329e-09
1.01034e-07
-1.43805e-09
1.00868e-07
-1.54201e-09
1.00666e-07
-1.63454e-09
1.00426e-07
-1.70772e-09
1.00146e-07
-1.73969e-09
9.98279e-08
-1.7128e-09
9.94799e-08
-1.5985e-09
9.91154e-08
-1.37331e-09
9.87534e-08
-1.02374e-09
9.84502e-08
-5.43384e-10
9.82115e-08
-1.92761e-10
9.8018e-08