/*--------------------------------*- C++ -*----------------------------------*\
| =========                 |                                                 |
| \\      /  F ield         | OpenFOAM: The Open Source CFD Toolbox           |
|  \\    /   O peration     | Version:  2312                                  |
|   \\  /    A nd           | Website:  www.openfoam.com                      |
|    \\/     M anipulation  |                                                 |
\*---------------------------------------------------------------------------*/
FoamFile
{
    version     2.0;
    format      ascii;
    arch        "LSB;label=32;scalar=64";
    class       volScalarField;
    location    "128";
    object      p;
}
// * * * * * * * * * * * * * * * * * * * * * * * * * * * * * * * * * * * * * //

dimensions      [0 2 -2 0 0 0 0];

internalField   nonuniform List<scalar> 
4800
(
-9.8591e-12
-1.0313e-06
-1.85641e-06
-2.53926e-06
-3.11783e-06
-3.6268e-06
-4.07382e-06
-4.47065e-06
-4.82909e-06
-5.15559e-06
-5.45475e-06
-5.72669e-06
-5.96361e-06
-6.40418e-06
-7.99149e-06
1.24119e-08
-1.01861e-06
-1.84381e-06
-2.5271e-06
-3.10673e-06
-3.61729e-06
-4.0667e-06
-4.46687e-06
-4.83052e-06
-5.16597e-06
-5.48252e-06
-5.79345e-06
-6.11073e-06
-6.54046e-06
-7.32022e-06
2.52016e-08
-1.00536e-06
-1.83065e-06
-2.51457e-06
-3.09428e-06
-3.60587e-06
-4.05722e-06
-4.46005e-06
-4.82773e-06
-5.16941e-06
-5.49549e-06
-5.81973e-06
-6.14811e-06
-6.48597e-06
-6.80544e-06
3.78344e-08
-9.91691e-07
-1.81656e-06
-2.50098e-06
-3.07975e-06
-3.59169e-06
-4.04426e-06
-4.44822e-06
-4.81706e-06
-5.15927e-06
-5.48254e-06
-5.79194e-06
-6.0774e-06
-6.30546e-06
-6.40414e-06
5.15737e-08
-9.76251e-07
-1.80004e-06
-2.48416e-06
-3.06216e-06
-3.57259e-06
-4.0251e-06
-4.42807e-06
-4.79407e-06
-5.12961e-06
-5.43744e-06
-5.71311e-06
-5.93584e-06
-6.06576e-06
-6.04721e-06
6.78696e-08
-9.57569e-07
-1.77957e-06
-2.46207e-06
-3.03974e-06
-3.5462e-06
-3.99631e-06
-4.39513e-06
-4.75301e-06
-5.07361e-06
-5.35457e-06
-5.58524e-06
-5.74309e-06
-5.79768e-06
-5.72061e-06
8.9152e-08
-9.33296e-07
-1.75269e-06
-2.43237e-06
-3.00818e-06
-3.50944e-06
-3.95351e-06
-4.34374e-06
-4.68727e-06
-4.98483e-06
-5.2306e-06
-5.41244e-06
-5.51292e-06
-5.51602e-06
-5.41427e-06
1.19723e-07
-8.99395e-07
-1.71532e-06
-2.39095e-06
-2.96237e-06
-3.45695e-06
-3.89074e-06
-4.26712e-06
-4.59006e-06
-4.85821e-06
-5.065e-06
-5.20087e-06
-5.25636e-06
-5.2278e-06
-5.11926e-06
1.66336e-07
-8.49551e-07
-1.66124e-06
-2.33142e-06
-2.89614e-06
-3.38093e-06
-3.80027e-06
-4.15768e-06
-4.45496e-06
-4.69032e-06
-4.85899e-06
-4.95621e-06
-4.97998e-06
-4.9346e-06
-4.82884e-06
2.38316e-07
-7.74903e-07
-1.58176e-06
-2.24497e-06
-2.80059e-06
-3.27227e-06
-3.67327e-06
-4.00755e-06
-4.27634e-06
-4.47901e-06
-4.61414e-06
-4.68198e-06
-4.68591e-06
-4.63423e-06
-4.5367e-06
3.47064e-07
-6.64262e-07
-1.46579e-06
-2.12057e-06
-2.66472e-06
-3.12049e-06
-3.50032e-06
-3.80923e-06
-4.04948e-06
-4.22276e-06
-4.33123e-06
-4.3791e-06
-4.37289e-06
-4.32218e-06
-4.23607e-06
5.05499e-07
-5.04595e-07
-1.30028e-06
-1.94532e-06
-2.4762e-06
-2.91435e-06
-3.27201e-06
-3.55588e-06
-3.7704e-06
-3.91993e-06
-4.00958e-06
-4.04607e-06
-4.03727e-06
-3.99256e-06
-3.91978e-06
7.28434e-07
-2.8084e-07
-1.07024e-06
-1.70454e-06
-2.22153e-06
-2.64218e-06
-2.97907e-06
-3.24105e-06
-3.43508e-06
-3.56793e-06
-3.64668e-06
-3.67928e-06
-3.67375e-06
-3.63866e-06
-3.58054e-06
1.03378e-06
2.52623e-08
-7.58004e-07
-1.38134e-06
-1.88552e-06
-2.29102e-06
-2.6113e-06
-2.85717e-06
-3.03786e-06
-3.1619e-06
-3.23744e-06
-3.27272e-06
-3.27535e-06
-3.25285e-06
-3.21068e-06
1.44301e-06
4.35966e-07
-3.42573e-07
-9.56387e-07
-1.45075e-06
-1.84582e-06
-2.15601e-06
-2.3937e-06
-2.56959e-06
-2.69319e-06
-2.77304e-06
-2.81715e-06
-2.83254e-06
-2.82576e-06
-2.8014e-06
1.97964e-06
9.76259e-07
2.0441e-07
-4.07493e-07
-8.97926e-07
-1.28951e-06
-1.59806e-06
-1.83699e-06
-2.01759e-06
-2.14958e-06
-2.24137e-06
-2.3006e-06
-2.3337e-06
-2.34643e-06
-2.34281e-06
2.66488e-06
1.66802e-06
8.98022e-07
2.84781e-07
-2.09024e-07
-6.05649e-07
-9.22222e-07
-1.17273e-06
-1.36829e-06
-1.5181e-06
-1.63013e-06
-1.71149e-06
-1.76815e-06
-1.80529e-06
-1.82662e-06
3.51356e-06
2.52651e-06
1.75558e-06
1.13412e-06
6.29153e-07
2.18372e-07
-1.16606e-07
-3.89695e-07
-6.11104e-07
-7.89088e-07
-9.3088e-07
-1.04302e-06
-1.13103e-06
-1.19957e-06
-1.25213e-06
4.52702e-06
3.55393e-06
2.7817e-06
2.14654e-06
1.62355e-06
1.18967e-06
8.26139e-07
5.19974e-07
2.62226e-07
4.5751e-08
-1.35865e-07
-2.88517e-07
-4.17257e-07
-5.26335e-07
-6.19039e-07
5.67412e-06
4.74607e-06
3.96584e-06
3.31409e-06
2.76715e-06
2.30233e-06
1.90198e-06
1.5545e-06
1.25217e-06
9.88759e-07
7.58534e-07
5.56247e-07
3.77379e-07
2.18146e-07
7.5379e-08
6.8217e-06
5.92319e-06
5.15321e-06
4.49125e-06
3.91863e-06
3.41702e-06
2.97279e-06
2.57696e-06
2.22302e-06
1.90541e-06
1.61909e-06
1.3596e-06
1.12308e-06
9.06287e-07
7.06381e-07
7.80804e-06
6.93419e-06
6.17113e-06
5.50283e-06
4.90871e-06
4.37445e-06
3.89113e-06
3.45215e-06
3.05176e-06
2.68488e-06
2.3471e-06
2.03467e-06
1.7444e-06
1.47354e-06
1.21965e-06
8.53052e-06
7.69446e-06
6.94828e-06
6.27787e-06
5.66896e-06
5.11188e-06
4.60008e-06
4.12807e-06
3.69081e-06
3.28387e-06
2.90355e-06
2.54679e-06
2.21094e-06
1.89377e-06
1.59323e-06
9.05678e-06
8.25767e-06
7.52852e-06
6.8597e-06
6.24287e-06
5.67129e-06
5.13945e-06
4.64259e-06
4.17649e-06
3.73756e-06
3.32283e-06
2.92985e-06
2.55649e-06
2.20094e-06
1.86157e-06
9.42894e-06
8.6611e-06
7.94867e-06
7.28565e-06
6.66671e-06
6.08675e-06
5.54121e-06
5.02614e-06
4.53819e-06
4.07457e-06
3.63293e-06
3.21134e-06
2.80809e-06
2.42181e-06
2.05119e-06
9.68218e-06
8.94204e-06
8.24691e-06
7.59265e-06
6.97546e-06
6.39148e-06
5.83709e-06
5.30922e-06
4.80527e-06
4.32309e-06
3.86086e-06
3.4171e-06
2.99051e-06
2.58005e-06
2.18476e-06
9.84943e-06
9.13466e-06
8.45657e-06
7.8122e-06
7.19892e-06
6.61381e-06
6.05411e-06
5.51749e-06
5.00197e-06
4.50597e-06
4.02811e-06
3.5673e-06
3.12261e-06
2.69332e-06
2.27873e-06
9.95718e-06
9.26529e-06
8.60308e-06
7.96874e-06
7.36046e-06
6.77606e-06
6.21345e-06
5.67094e-06
5.14711e-06
4.6408e-06
4.15105e-06
3.67713e-06
3.21839e-06
2.7744e-06
2.34471e-06
1.00249e-05
9.35325e-06
8.70549e-06
8.0808e-06
7.47793e-06
6.89523e-06
6.33123e-06
5.78475e-06
5.25484e-06
4.74074e-06
4.24183e-06
3.75766e-06
3.28789e-06
2.83231e-06
2.3907e-06
1.00664e-05
9.41252e-06
8.77773e-06
8.16199e-06
7.5644e-06
6.9838e-06
6.41925e-06
5.87002e-06
5.33554e-06
4.81538e-06
4.30922e-06
3.8169e-06
3.33829e-06
2.8734e-06
2.4222e-06
1.00913e-05
9.45289e-06
8.8296e-06
8.2219e-06
7.62918e-06
7.05072e-06
6.48605e-06
5.93479e-06
5.39671e-06
4.87167e-06
4.35962e-06
3.86061e-06
3.37473e-06
2.9022e-06
2.44313e-06
1.0106e-05
9.48102e-06
8.86782e-06
8.26719e-06
7.67879e-06
7.10233e-06
6.53768e-06
5.98482e-06
5.44377e-06
4.91464e-06
4.39763e-06
3.89299e-06
3.40099e-06
2.92202e-06
2.45633e-06
1.01146e-05
9.50136e-06
8.89693e-06
8.30243e-06
7.71777e-06
7.14306e-06
6.57846e-06
6.02421e-06
5.48058e-06
4.94792e-06
4.42662e-06
3.91711e-06
3.41985e-06
2.93533e-06
2.46396e-06
1.01198e-05
9.51678e-06
8.91995e-06
8.3307e-06
7.74926e-06
7.17601e-06
6.61139e-06
6.05585e-06
5.50992e-06
4.97412e-06
4.44902e-06
3.93523e-06
3.43333e-06
2.94395e-06
2.46762e-06
1.01233e-05
9.5291e-06
8.93881e-06
8.35407e-06
7.77535e-06
7.20329e-06
6.63855e-06
6.0818e-06
5.53375e-06
4.9951e-06
4.4666e-06
3.94898e-06
3.44295e-06
2.94925e-06
2.46852e-06
1.01259e-05
9.53937e-06
8.95475e-06
8.37387e-06
7.79743e-06
7.22631e-06
6.66136e-06
6.10344e-06
5.55342e-06
5.01218e-06
4.48059e-06
3.95951e-06
3.44977e-06
2.95221e-06
2.46755e-06
1.01282e-05
9.54823e-06
8.96849e-06
8.3909e-06
7.81638e-06
7.24598e-06
6.68074e-06
6.1217e-06
5.56986e-06
5.02625e-06
4.49186e-06
3.96766e-06
3.45458e-06
2.95356e-06
2.46539e-06
1.01303e-05
9.55612e-06
8.98062e-06
8.40584e-06
7.83292e-06
7.26309e-06
6.69752e-06
6.1374e-06
5.58388e-06
5.03808e-06
4.50113e-06
3.97408e-06
3.45796e-06
2.95378e-06
2.46243e-06
1.01325e-05
9.5637e-06
8.99204e-06
8.41982e-06
7.84832e-06
7.27893e-06
6.71298e-06
6.15178e-06
5.59659e-06
5.04868e-06
4.50924e-06
3.97943e-06
3.46037e-06
2.95315e-06
2.45873e-06
1.01349e-05
9.57117e-06
9.00317e-06
8.43332e-06
7.86307e-06
7.29397e-06
6.72749e-06
6.16509e-06
5.60819e-06
5.05814e-06
4.51628e-06
3.98385e-06
3.46206e-06
2.95206e-06
2.4548e-06
-9.17982e-06
-6.81025e-06
-5.37368e-06
-4.41386e-06
-3.65749e-06
-3.08932e-06
-2.66123e-06
-2.33988e-06
-2.10146e-06
-1.92588e-06
-1.79542e-06
-1.69351e-06
-1.60404e-06
-1.5111e-06
-1.39869e-06
-1.25232e-06
-1.05952e-06
-8.16452e-07
-5.32457e-07
-2.36835e-07
1.8345e-08
1.65999e-07
1.63694e-07
1.03827e-07
1.09976e-07
2.64205e-07
6.0642e-07
1.15489e-06
1.92147e-06
2.90418e-06
4.10947e-06
5.52522e-06
7.13011e-06
8.90097e-06
1.07978e-05
1.27729e-05
1.47696e-05
1.67218e-05
1.85504e-05
2.01554e-05
2.13913e-05
2.20549e-05
2.1697e-05
1.99352e-05
1.51538e-05
-7.57219e-06
-6.30261e-06
-5.19766e-06
-4.33518e-06
-3.62284e-06
-3.0691e-06
-2.64605e-06
-2.32684e-06
-2.08987e-06
-1.91579e-06
-1.78702e-06
-1.68693e-06
-1.59926e-06
-1.50804e-06
-1.39727e-06
-1.2525e-06
-1.06134e-06
-8.19921e-07
-5.37327e-07
-2.41882e-07
1.61327e-08
1.7162e-07
1.82314e-07
1.37188e-07
1.56303e-07
3.20547e-07
6.69114e-07
1.22028e-06
1.98566e-06
2.96212e-06
4.15573e-06
5.55221e-06
7.1269e-06
8.85472e-06
1.06921e-05
1.25864e-05
1.44741e-05
1.62788e-05
1.79045e-05
1.92218e-05
2.00315e-05
2.00157e-05
1.85429e-05
1.48851e-05
7.83592e-06
-6.73358e-06
-5.91591e-06
-5.01786e-06
-4.24431e-06
-3.5808e-06
-3.04714e-06
-2.63191e-06
-2.31589e-06
-2.08047e-06
-1.90761e-06
-1.7801e-06
-1.68132e-06
-1.59498e-06
-1.50504e-06
-1.39552e-06
-1.2521e-06
-1.06243e-06
-8.22683e-07
-5.41643e-07
-2.46577e-07
1.42671e-08
1.78085e-07
2.02935e-07
1.74048e-07
2.07433e-07
3.82566e-07
7.37694e-07
1.29099e-06
2.05372e-06
3.02088e-06
4.19878e-06
5.56991e-06
7.10545e-06
8.77799e-06
1.05395e-05
1.23316e-05
1.40826e-05
1.57048e-05
1.70855e-05
1.80718e-05
1.8435e-05
1.7831e-05
1.57051e-05
1.16864e-05
5.52579e-06
-6.21353e-06
-5.60543e-06
-4.87047e-06
-4.16667e-06
-3.54959e-06
-3.03668e-06
-2.6287e-06
-2.3145e-06
-2.07886e-06
-1.90539e-06
-1.7775e-06
-1.67865e-06
-1.5925e-06
-1.50298e-06
-1.39412e-06
-1.25163e-06
-1.06325e-06
-8.2513e-07
-5.45731e-07
-2.51114e-07
1.27078e-08
1.85459e-07
2.25696e-07
2.14629e-07
2.63833e-07
4.5125e-07
8.13916e-07
1.3698e-06
2.1297e-06
3.08484e-06
4.2453e-06
5.58573e-06
7.07378e-06
8.67917e-06
1.03487e-05
1.20171e-05
1.36048e-05
1.50135e-05
1.6119e-05
1.67583e-05
1.67095e-05
1.56858e-05
1.33322e-05
9.48066e-06
4.38367e-06
-5.81952e-06
-5.33967e-06
-4.73181e-06
-4.11076e-06
-3.53641e-06
-3.04351e-06
-2.6416e-06
-2.32704e-06
-2.08845e-06
-1.91159e-06
-1.78072e-06
-1.67955e-06
-1.59177e-06
-1.50126e-06
-1.39205e-06
-1.2499e-06
-1.06257e-06
-8.26127e-07
-5.48705e-07
-2.54916e-07
1.17573e-08
1.93881e-07
2.50712e-07
2.59003e-07
3.25352e-07
5.25995e-07
8.96422e-07
1.45446e-06
2.20905e-06
3.14827e-06
4.28807e-06
5.58954e-06
7.01946e-06
8.54387e-06
1.01041e-05
1.16287e-05
1.3031e-05
1.42063e-05
1.50271e-05
1.5338e-05
1.49527e-05
1.36728e-05
1.13254e-05
7.90932e-06
3.74994e-06
-5.49629e-06
-5.10598e-06
-4.59857e-06
-4.06189e-06
-3.53766e-06
-3.06661e-06
-2.67191e-06
-2.35594e-06
-2.11203e-06
-1.92881e-06
-1.79188e-06
-1.68552e-06
-1.59363e-06
-1.50014e-06
-1.38914e-06
-1.24639e-06
-1.05968e-06
-8.24934e-07
-5.49898e-07
-2.57487e-07
1.17231e-08
2.03485e-07
2.78024e-07
3.07121e-07
3.9175e-07
6.06236e-07
9.84095e-07
1.54338e-06
2.2854e-06
3.20981e-06
4.32148e-06
5.57328e-06
6.93275e-06
8.36093e-06
9.79433e-06
1.11563e-05
1.23565e-05
1.32894e-05
1.38342e-05
1.38577e-05
1.32245e-05
1.18235e-05
9.60993e-06
6.68327e-06
3.33686e-06
-5.20895e-06
-4.88821e-06
-4.46979e-06
-4.00321e-06
-3.53685e-06
-3.09846e-06
-2.71552e-06
-2.39956e-06
-2.14963e-06
-1.95813e-06
-1.8124e-06
-1.6978e-06
-1.59895e-06
-1.50008e-06
-1.38545e-06
-1.24088e-06
-1.05415e-06
-8.21053e-07
-5.48832e-07
-2.58464e-07
1.28143e-08
2.14293e-07
3.07501e-07
3.58689e-07
4.62473e-07
6.91156e-07
1.07575e-06
1.6329e-06
2.3564e-06
3.26735e-06
4.3389e-06
5.5291e-06
6.80506e-06
8.12136e-06
9.41115e-06
1.05953e-05
1.15836e-05
1.22765e-05
1.25687e-05
1.23584e-05
1.15618e-05
1.01377e-05
8.11504e-06
5.62369e-06
2.89606e-06
-4.93681e-06
-4.67145e-06
-4.32808e-06
-3.93288e-06
-3.5206e-06
-3.12344e-06
-2.76217e-06
-2.45057e-06
-2.19664e-06
-1.9972e-06
-1.84125e-06
-1.716e-06
-1.60755e-06
-1.50089e-06
-1.38067e-06
-1.23291e-06
-1.04549e-06
-8.13969e-07
-5.45087e-07
-2.57602e-07
1.50698e-08
2.26067e-07
3.38655e-07
4.12957e-07
5.36241e-07
7.79135e-07
1.16909e-06
1.71542e-06
2.42628e-06
3.31282e-06
4.33086e-06
5.44743e-06
6.62634e-06
7.81556e-06
8.94728e-06
9.94325e-06
1.07183e-05
1.11846e-05
1.12586e-05
1.08714e-05
9.98317e-06
8.59889e-06
6.78076e-06
4.65343e-06
2.39102e-06
-4.66915e-06
-4.44858e-06
-4.16706e-06
-3.83775e-06
-3.48314e-06
-3.12842e-06
-2.79614e-06
-2.49649e-06
-2.24406e-06
-2.03977e-06
-1.87415e-06
-1.73721e-06
-1.61743e-06
-1.50114e-06
-1.37373e-06
-1.22164e-06
-1.033e-06
-8.03194e-07
-5.38408e-07
-2.54923e-07
1.81817e-08
2.38068e-07
3.70347e-07
4.68405e-07
6.11002e-07
8.66669e-07
1.25776e-06
1.79179e-06
2.49009e-06
3.33279e-06
4.28588e-06
5.3176e-06
6.38522e-06
7.43349e-06
8.39629e-06
9.20005e-06
9.76912e-06
1.00315e-05
9.92688e-06
9.41635e-06
8.49161e-06
7.18287e-06
5.56111e-06
3.73256e-06
1.82437e-06
-4.39874e-06
-4.21519e-06
-3.98449e-06
-3.71277e-06
-3.41352e-06
-3.10534e-06
-2.80318e-06
-2.52414e-06
-2.28088e-06
-2.07677e-06
-1.90381e-06
-1.75592e-06
-1.62462e-06
-1.49803e-06
-1.36267e-06
-1.20575e-06
-1.01587e-06
-7.88403e-07
-5.28933e-07
-2.51078e-07
2.12156e-08
2.48703e-07
4.00335e-07
5.21925e-07
6.84595e-07
9.45565e-07
1.33675e-06
1.86212e-06
2.52755e-06
3.31507e-06
4.19343e-06
5.12694e-06
6.06946e-06
6.96543e-06
7.7532e-06
8.36776e-06
8.74565e-06
8.83245e-06
8.58975e-06
8.00153e-06
7.0791e-06
5.86295e-06
4.41998e-06
2.83532e-06
1.2011e-06
-4.11877e-06
-3.96665e-06
-3.77804e-06
-3.55546e-06
-3.30637e-06
-3.04376e-06
-2.77678e-06
-2.52218e-06
-2.29533e-06
-2.09618e-06
-1.92013e-06
-1.76448e-06
-1.62358e-06
-1.4877e-06
-1.34498e-06
-1.1838e-06
-9.93543e-07
-7.69722e-07
-5.17314e-07
-2.47578e-07
2.1862e-08
2.55015e-07
4.24709e-07
5.67681e-07
7.49008e-07
1.01473e-06
1.39967e-06
1.90508e-06
2.52723e-06
3.24903e-06
4.03974e-06
4.86118e-06
5.66696e-06
6.40301e-06
7.01534e-06
7.45023e-06
7.65755e-06
7.59979e-06
7.25627e-06
6.6265e-06
5.7317e-06
4.61336e-06
3.32894e-06
1.94437e-06
5.26487e-07
-3.82222e-06
-3.69755e-06
-3.54446e-06
-3.36358e-06
-3.15874e-06
-2.93748e-06
-2.70925e-06
-2.48586e-06
-2.27758e-06
-2.08693e-06
-1.91331e-06
-1.75518e-06
-1.60865e-06
-1.46631e-06
-1.3184e-06
-1.15489e-06
-9.66342e-07
-7.48599e-07
-5.05615e-07
-2.45556e-07
1.53758e-08
2.51805e-07
4.37088e-07
5.99053e-07
7.93549e-07
1.06226e-06
1.43312e-06
1.90679e-06
2.47506e-06
3.11885e-06
3.80809e-06
4.50486e-06
5.16729e-06
5.73807e-06
6.18279e-06
6.45334e-06
6.51421e-06
6.34249e-06
5.93026e-06
5.28598e-06
4.434e-06
3.41197e-06
2.26661e-06
1.04802e-06
-1.95048e-07
-3.50211e-06
-3.40216e-06
-3.27992e-06
-3.13523e-06
-2.96986e-06
-2.78853e-06
-2.59812e-06
-2.40626e-06
-2.21992e-06
-2.04317e-06
-1.87758e-06
-1.72269e-06
-1.57574e-06
-1.43133e-06
-1.28201e-06
-1.11969e-06
-9.36296e-07
-7.28144e-07
-4.97996e-07
-2.51088e-07
-3.34637e-09
2.31847e-07
4.28264e-07
6.04906e-07
8.07216e-07
1.07155e-06
1.41915e-06
1.84994e-06
2.35286e-06
2.90631e-06
3.48176e-06
4.04347e-06
4.54983e-06
4.97147e-06
5.25987e-06
5.38531e-06
5.32546e-06
5.06816e-06
4.61353e-06
3.97401e-06
3.17308e-06
2.24246e-06
1.21886e-06
1.39873e-07
-9.5879e-07
-3.15131e-06
-3.07455e-06
-2.98018e-06
-2.86779e-06
-2.73804e-06
-2.5936e-06
-2.43877e-06
-2.27863e-06
-2.11809e-06
-1.96102e-06
-1.8096e-06
-1.6641e-06
-1.52291e-06
-1.38241e-06
-1.23724e-06
-1.08113e-06
-9.07686e-07
-7.13974e-07
-5.01463e-07
-2.73947e-07
-4.17378e-08
1.85079e-07
3.85671e-07
5.70445e-07
7.7329e-07
1.02365e-06
1.33766e-06
1.71423e-06
2.14052e-06
2.59294e-06
3.04759e-06
3.47255e-06
3.83691e-06
4.10801e-06
4.25554e-06
4.25844e-06
4.10337e-06
3.78551e-06
3.30928e-06
2.68784e-06
1.94165e-06
1.09619e-06
1.79535e-07
-7.80368e-07
-1.75726e-06
-2.76199e-06
-2.70823e-06
-2.64037e-06
-2.55805e-06
-2.4613e-06
-2.35149e-06
-2.23118e-06
-2.10367e-06
-1.97235e-06
-1.8402e-06
-1.70929e-06
-1.58018e-06
-1.45188e-06
-1.3224e-06
-1.18855e-06
-1.04555e-06
-8.88509e-07
-7.15107e-07
-5.26067e-07
-3.23356e-07
-1.13046e-07
9.73168e-08
2.92916e-07
4.76867e-07
6.7112e-07
8.96989e-07
1.16613e-06
1.47721e-06
1.81962e-06
2.16367e-06
2.49759e-06
2.79188e-06
3.01937e-06
3.15668e-06
3.18439e-06
3.08876e-06
2.86273e-06
2.50588e-06
2.02432e-06
1.43001e-06
7.3964e-07
-2.71182e-08
-8.4923e-07
-1.70607e-06
-2.57835e-06
-2.32567e-06
-2.29644e-06
-2.2557e-06
-2.20325e-06
-2.13892e-06
-2.06332e-06
-1.97797e-06
-1.88485e-06
-1.78627e-06
-1.68423e-06
-1.58007e-06
-1.47481e-06
-1.36839e-06
-1.25906e-06
-1.14497e-06
-1.0232e-06
-8.90246e-07
-7.44244e-07
-5.85147e-07
-4.14019e-07
-2.33882e-07
-4.87458e-08
1.30451e-07
3.01671e-07
4.76549e-07
6.67758e-07
8.81533e-07
1.11707e-06
1.36113e-06
1.61012e-06
1.82932e-06
2.00095e-06
2.10746e-06
2.13304e-06
2.065e-06
1.89524e-06
1.62076e-06
1.24336e-06
7.6924e-07
2.08339e-07
-4.2644e-07
-1.12038e-06
-1.85802e-06
-2.62428e-06
-3.40498e-06
-1.83554e-06
-1.83417e-06
-1.82329e-06
-1.8028e-06
-1.77262e-06
-1.73303e-06
-1.68475e-06
-1.62923e-06
-1.56744e-06
-1.50116e-06
-1.43272e-06
-1.35892e-06
-1.28157e-06
-1.20261e-06
-1.11953e-06
-1.02863e-06
-9.28349e-07
-8.18034e-07
-6.97012e-07
-5.65455e-07
-4.23917e-07
-2.73596e-07
-1.23061e-07
2.18726e-08
1.64677e-07
3.10331e-07
4.64527e-07
6.22707e-07
7.85843e-07
9.31908e-07
1.04381e-06
1.10962e-06
1.11728e-06
1.05584e-06
9.17283e-07
6.97253e-07
3.95016e-07
1.31096e-08
-4.43067e-07
-9.65742e-07
-1.54533e-06
-2.17113e-06
-2.83201e-06
-3.51705e-06
-4.21586e-06
-1.29278e-06
-1.32437e-06
-1.34786e-06
-1.36346e-06
-1.37122e-06
-1.37135e-06
-1.36428e-06
-1.35072e-06
-1.33143e-06
-1.30715e-06
-1.27932e-06
-1.24684e-06
-1.21093e-06
-1.17335e-06
-1.1305e-06
-1.07988e-06
-1.02208e-06
-9.5688e-07
-8.82808e-07
-7.98992e-07
-7.04963e-07
-6.00638e-07
-4.90882e-07
-3.83253e-07
-2.85118e-07
-1.90951e-07
-1.04374e-07
-7.53222e-09
7.39151e-08
1.29484e-07
1.52835e-07
1.35733e-07
6.91887e-08
-5.40907e-08
-2.38731e-07
-4.86834e-07
-7.98211e-07
-1.17053e-06
-1.59956e-06
-2.07955e-06
-2.60364e-06
-3.16425e-06
-3.75352e-06
-4.36365e-06
-4.98711e-06
-7.00015e-07
-7.72665e-07
-8.38081e-07
-8.96725e-07
-9.48941e-07
-9.95023e-07
-1.03528e-06
-1.07016e-06
-1.10008e-06
-1.12571e-06
-1.14739e-06
-1.16655e-06
-1.18168e-06
-1.19282e-06
-1.19895e-06
-1.19969e-06
-1.19511e-06
-1.18413e-06
-1.16521e-06
-1.13714e-06
-1.09904e-06
-1.051e-06
-9.94845e-07
-9.37379e-07
-8.89533e-07
-8.48833e-07
-8.04129e-07
-7.7264e-07
-7.63299e-07
-7.77578e-07
-8.19167e-07
-8.94771e-07
-1.01071e-06
-1.17132e-06
-1.37911e-06
-1.63522e-06
-1.93938e-06
-2.28986e-06
-2.6836e-06
-3.11656e-06
-3.58399e-06
-4.08071e-06
-4.6013e-06
-5.14029e-06
-5.69228e-06
-5.64645e-08
-1.81393e-07
-3.00123e-07
-4.12854e-07
-5.20017e-07
-6.22043e-07
-7.19297e-07
-8.12097e-07
-9.00761e-07
-9.85578e-07
-1.0668e-06
-1.14444e-06
-1.21816e-06
-1.28805e-06
-1.35403e-06
-1.41561e-06
-1.47178e-06
-1.52154e-06
-1.56372e-06
-1.59689e-06
-1.62097e-06
-1.63442e-06
-1.6395e-06
-1.64507e-06
-1.64419e-06
-1.63732e-06
-1.63604e-06
-1.65792e-06
-1.69996e-06
-1.76016e-06
-1.84243e-06
-1.95208e-06
-2.093e-06
-2.26762e-06
-2.47756e-06
-2.72379e-06
-3.00631e-06
-3.32407e-06
-3.6751e-06
-4.05674e-06
-4.46587e-06
-4.89907e-06
-5.35274e-06
-5.82314e-06
-6.30649e-06
5.17835e-07
3.36256e-07
1.60654e-07
-9.35344e-09
-1.74307e-07
-3.34666e-07
-4.90742e-07
-6.42734e-07
-7.90778e-07
-9.34968e-07
-1.07536e-06
-1.21198e-06
-1.34479e-06
-1.47369e-06
-1.59828e-06
-1.71779e-06
-1.83129e-06
-1.93794e-06
-2.03649e-06
-2.12603e-06
-2.20578e-06
-2.27452e-06
-2.33351e-06
-2.38109e-06
-2.41802e-06
-2.44968e-06
-2.49165e-06
-2.5488e-06
-2.61898e-06
-2.70279e-06
-2.80361e-06
-2.9248e-06
-3.06891e-06
-3.23801e-06
-3.43374e-06
-3.65706e-06
-3.90821e-06
-4.18668e-06
-4.49137e-06
-4.82073e-06
-5.17287e-06
-5.54563e-06
-5.93666e-06
-6.34347e-06
-6.76353e-06
9.77288e-07
7.41744e-07
5.11986e-07
2.87756e-07
6.86192e-08
-1.4578e-07
-3.55646e-07
-5.61064e-07
-7.62058e-07
-9.58626e-07
-1.15075e-06
-1.33834e-06
-1.52123e-06
-1.69907e-06
-1.87134e-06
-2.03734e-06
-2.1963e-06
-2.34721e-06
-2.48916e-06
-2.62103e-06
-2.74185e-06
-2.85265e-06
-2.9496e-06
-3.02927e-06
-3.09436e-06
-3.15808e-06
-3.22635e-06
-3.29998e-06
-3.38127e-06
-3.47301e-06
-3.57764e-06
-3.69742e-06
-3.83447e-06
-3.99071e-06
-4.16759e-06
-4.36605e-06
-4.58645e-06
-4.82874e-06
-5.09245e-06
-5.37679e-06
-5.68067e-06
-6.00278e-06
-6.34167e-06
-6.69573e-06
-7.06331e-06
1.30432e-06
1.02245e-06
7.46604e-07
4.76621e-07
2.12223e-07
-4.6791e-08
-3.00492e-07
-5.48854e-07
-7.91803e-07
-1.02924e-06
-1.26102e-06
-1.48694e-06
-1.7067e-06
-1.9199e-06
-2.126e-06
-2.32435e-06
-2.51417e-06
-2.69455e-06
-2.86465e-06
-3.02349e-06
-3.17059e-06
-3.30632e-06
-3.42394e-06
-3.52275e-06
-3.60835e-06
-3.68897e-06
-3.76729e-06
-3.84653e-06
-3.93059e-06
-4.02233e-06
-4.12387e-06
-4.23725e-06
-4.36447e-06
-4.50724e-06
-4.66683e-06
-4.84414e-06
-5.03971e-06
-5.25379e-06
-5.48637e-06
-5.73712e-06
-6.00551e-06
-6.29078e-06
-6.592e-06
-6.90812e-06
-7.23801e-06
1.53393e-06
1.21374e-06
9.00108e-07
5.92972e-07
2.92217e-07
-2.19644e-09
-2.90204e-07
-5.71664e-07
-8.46405e-07
-1.11423e-06
-1.37491e-06
-1.62817e-06
-1.87366e-06
-2.11093e-06
-2.33948e-06
-2.55867e-06
-2.76784e-06
-2.96619e-06
-3.15304e-06
-3.32766e-06
-3.48972e-06
-3.63905e-06
-3.7704e-06
-3.88124e-06
-3.97852e-06
-4.06655e-06
-4.14962e-06
-4.23202e-06
-4.3172e-06
-4.40776e-06
-4.50585e-06
-4.61351e-06
-4.73256e-06
-4.86453e-06
-5.01066e-06
-5.17192e-06
-5.34904e-06
-5.5425e-06
-5.75255e-06
-5.97921e-06
-6.22229e-06
-6.48141e-06
-6.75604e-06
-7.04552e-06
-7.34909e-06
1.69237e-06
1.34155e-06
9.9797e-07
6.61703e-07
3.32782e-07
1.13156e-08
-3.02509e-07
-6.08457e-07
-9.06281e-07
-1.19572e-06
-1.47649e-06
-1.74826e-06
-2.01068e-06
-2.26331e-06
-2.50569e-06
-2.73727e-06
-2.9575e-06
-3.16577e-06
-3.36154e-06
-3.54432e-06
-3.71384e-06
-3.8704e-06
-4.00885e-06
-4.12771e-06
-4.23096e-06
-4.32374e-06
-4.41074e-06
-4.49572e-06
-4.5817e-06
-4.67127e-06
-4.7667e-06
-4.86996e-06
-4.9828e-06
-5.10672e-06
-5.24299e-06
-5.39269e-06
-5.55667e-06
-5.73559e-06
-5.92989e-06
-6.13985e-06
-6.36552e-06
-6.60681e-06
-6.86346e-06
-7.13508e-06
-7.42121e-06
1.80134e-06
1.42651e-06
1.05971e-06
7.01121e-07
3.509e-07
9.27973e-09
-3.23458e-07
-6.47009e-07
-9.61069e-07
-1.26533e-06
-1.55949e-06
-1.8432e-06
-2.11612e-06
-2.37786e-06
-2.62802e-06
-2.86616e-06
-3.09188e-06
-3.30474e-06
-3.50442e-06
-3.69058e-06
-3.86316e-06
-4.02239e-06
-4.16504e-06
-4.28793e-06
-4.39519e-06
-4.49185e-06
-4.58196e-06
-4.66893e-06
-4.75569e-06
-4.84485e-06
-4.93865e-06
-5.03904e-06
-5.14775e-06
-5.2663e-06
-5.39602e-06
-5.53806e-06
-5.69338e-06
-5.86277e-06
-6.04682e-06
-6.24595e-06
-6.46043e-06
-6.69035e-06
-6.93569e-06
-7.19627e-06
-7.47184e-06
1.8761e-06
1.48269e-06
1.09811e-06
7.22645e-07
3.56556e-07
1.68306e-10
-3.46162e-07
-6.8208e-07
-1.00725e-06
-1.32135e-06
-1.62405e-06
-1.91504e-06
-2.194e-06
-2.46059e-06
-2.71452e-06
-2.95545e-06
-3.18313e-06
-3.39729e-06
-3.59781e-06
-3.78459e-06
-3.95788e-06
-4.11798e-06
-4.26161e-06
-4.38667e-06
-4.4968e-06
-4.5963e-06
-4.68879e-06
-4.7775e-06
-4.86529e-06
-4.95468e-06
-5.04786e-06
-5.14678e-06
-5.25316e-06
-5.36857e-06
-5.49437e-06
-5.63178e-06
-5.78183e-06
-5.94539e-06
-6.12319e-06
-6.31579e-06
-6.5236e-06
-6.74689e-06
-6.98578e-06
-7.24028e-06
-7.51029e-06
1.9271e-06
1.51932e-06
1.12117e-06
7.32987e-07
3.55128e-07
-1.20062e-08
-3.68011e-07
-7.12505e-07
-1.04514e-06
-1.36557e-06
-1.6735e-06
-1.96862e-06
-2.25067e-06
-2.51938e-06
-2.77454e-06
-3.01594e-06
-3.24345e-06
-3.45697e-06
-3.65656e-06
-3.84231e-06
-4.01475e-06
-4.17409e-06
-4.31748e-06
-4.4436e-06
-4.55557e-06
-4.65708e-06
-4.75145e-06
-4.84176e-06
-4.93072e-06
-5.02076e-06
-5.11403e-06
-5.21245e-06
-5.31778e-06
-5.43157e-06
-5.55526e-06
-5.69008e-06
-5.83716e-06
-5.99746e-06
-6.17179e-06
-6.36085e-06
-6.56516e-06
-6.78511e-06
-7.02096e-06
-7.27282e-06
-7.54072e-06
1.96129e-06
1.54232e-06
1.13371e-06
7.35867e-07
3.49222e-07
-2.57709e-08
-3.88677e-07
-7.39099e-07
-1.07668e-06
-1.40108e-06
-1.71202e-06
-2.00923e-06
-2.2925e-06
-2.56161e-06
-2.81646e-06
-3.05693e-06
-3.28303e-06
-3.49479e-06
-3.69243e-06
-3.87618e-06
-4.04673e-06
-4.20442e-06
-4.34682e-06
-4.47318e-06
-4.58619e-06
-4.68906e-06
-4.78487e-06
-4.87653e-06
-4.96661e-06
-5.05746e-06
-5.15116e-06
-5.24965e-06
-5.35465e-06
-5.46777e-06
-5.59045e-06
-5.72401e-06
-5.86963e-06
-6.02834e-06
-6.20107e-06
-6.38856e-06
-6.59147e-06
-6.81026e-06
-7.0453e-06
-7.2968e-06
-7.56488e-06
1.98335e-06
1.5555e-06
1.13869e-06
7.33391e-07
3.40083e-07
-4.07373e-08
-4.08618e-07
-7.63154e-07
-1.10398e-06
-1.43079e-06
-1.74331e-06
-2.0413e-06
-2.3246e-06
-2.59309e-06
-2.84672e-06
-3.08548e-06
-3.30948e-06
-3.51887e-06
-3.71399e-06
-3.8952e-06
-4.06317e-06
-4.21877e-06
-4.35964e-06
-4.48565e-06
-4.59906e-06
-4.70272e-06
-4.79954e-06
-4.89223e-06
-4.98325e-06
-5.07486e-06
-5.16909e-06
-5.26785e-06
-5.3729e-06
-5.48584e-06
-5.60817e-06
-5.74125e-06
-5.88632e-06
-6.04448e-06
-6.21671e-06
-6.40387e-06
-6.60666e-06
-6.82564e-06
-7.06127e-06
-7.31382e-06
-7.58348e-06
1.99655e-06
1.5615e-06
1.13812e-06
7.26927e-07
3.28454e-07
-5.67798e-08
-4.28313e-07
-7.85736e-07
-1.12869e-06
-1.45688e-06
-1.77006e-06
-2.06803e-06
-2.35069e-06
-2.61796e-06
-2.86987e-06
-3.1065e-06
-3.32805e-06
-3.53477e-06
-3.72712e-06
-3.90552e-06
-4.07082e-06
-4.22384e-06
-4.36279e-06
-4.48799e-06
-4.6013e-06
-4.70527e-06
-4.80267e-06
-4.89606e-06
-4.98776e-06
-5.07995e-06
-5.17464e-06
-5.27371e-06
-5.37891e-06
-5.4919e-06
-5.61419e-06
-5.74719e-06
-5.89218e-06
-6.05034e-06
-6.22272e-06
-6.41022e-06
-6.61363e-06
-6.83358e-06
-7.07058e-06
-7.32498e-06
-7.59702e-06
2.0033e-06
1.56227e-06
1.13349e-06
7.17518e-07
3.14934e-07
-7.3735e-08
-4.48021e-07
-8.07514e-07
-1.15187e-06
-1.48079e-06
-1.79407e-06
-2.09156e-06
-2.37318e-06
-2.63892e-06
-2.88888e-06
-3.12321e-06
-3.34218e-06
-3.54614e-06
-3.73563e-06
-3.91116e-06
-4.07371e-06
-4.22397e-06
-4.36073e-06
-4.48481e-06
-4.59764e-06
-4.70153e-06
-4.79915e-06
-4.89291e-06
-4.98501e-06
-5.07756e-06
-5.17254e-06
-5.27182e-06
-5.37716e-06
-5.49022e-06
-5.61256e-06
-5.74563e-06
-5.89076e-06
-6.04918e-06
-6.22199e-06
-6.41017e-06
-6.61456e-06
-6.83586e-06
-7.07462e-06
-7.33124e-06
-7.60602e-06
2.0054e-06
1.55929e-06
1.12597e-06
7.0603e-07
3.00078e-07
-9.13484e-08
-4.67778e-07
-8.28802e-07
-1.17408e-06
-1.50335e-06
-1.81642e-06
-2.11317e-06
-2.39357e-06
-2.65766e-06
-2.90559e-06
-3.13759e-06
-3.354e-06
-3.55523e-06
-3.7419e-06
-3.91459e-06
-4.07438e-06
-4.22189e-06
-4.35628e-06
-4.47903e-06
-4.59112e-06
-4.69463e-06
-4.79217e-06
-4.886e-06
-4.97823e-06
-5.07092e-06
-5.16601e-06
-5.26535e-06
-5.37072e-06
-5.48379e-06
-5.60615e-06
-5.73929e-06
-5.8846e-06
-6.04334e-06
-6.21669e-06
-6.40566e-06
-6.61115e-06
-6.83392e-06
-7.07455e-06
-7.33351e-06
-7.61112e-06
2.00425e-06
1.55374e-06
1.11651e-06
6.93192e-07
2.84405e-07
-1.09305e-07
-4.87462e-07
-8.49664e-07
-1.19558e-06
-1.52496e-06
-1.83765e-06
-2.13354e-06
-2.41267e-06
-2.6751e-06
-2.92105e-06
-3.15078e-06
-3.36472e-06
-3.56332e-06
-3.74728e-06
-3.91723e-06
-4.07435e-06
-4.21913e-06
-4.35116e-06
-4.47245e-06
-4.58363e-06
-4.68653e-06
-4.78375e-06
-4.87741e-06
-4.96955e-06
-5.06217e-06
-5.15717e-06
-5.25642e-06
-5.36168e-06
-5.47465e-06
-5.59694e-06
-5.73009e-06
-5.87553e-06
-6.03457e-06
-6.20842e-06
-6.39816e-06
-6.60473e-06
-6.82893e-06
-7.0714e-06
-7.33264e-06
-7.61299e-06
2.0009e-06
1.54652e-06
1.10587e-06
6.79612e-07
2.68382e-07
-1.27271e-07
-5.0687e-07
-8.70015e-07
-1.21639e-06
-1.54576e-06
-1.85798e-06
-2.153e-06
-2.43087e-06
-2.6917e-06
-2.93576e-06
-3.16335e-06
-3.37496e-06
-3.5711e-06
-3.7525e-06
-3.91985e-06
-4.07442e-06
-4.21651e-06
-4.34635e-06
-4.46609e-06
-4.57624e-06
-4.67836e-06
-4.77509e-06
-4.8684e-06
-4.96027e-06
-5.05264e-06
-5.14741e-06
-5.24641e-06
-5.35143e-06
-5.46418e-06
-5.58631e-06
-5.71937e-06
-5.86484e-06
-6.02409e-06
-6.19835e-06
-6.38877e-06
-6.59632e-06
-6.82185e-06
-7.06603e-06
-7.32939e-06
-7.6123e-06
1.99615e-06
1.53833e-06
1.09465e-06
6.65811e-07
2.52441e-07
-1.449e-07
-5.25734e-07
-8.89666e-07
-1.23639e-06
-1.56568e-06
-1.87743e-06
-2.1716e-06
-2.44827e-06
-2.70761e-06
-2.9499e-06
-3.17551e-06
-3.38495e-06
-3.5788e-06
-3.75783e-06
-3.92277e-06
-4.07491e-06
-4.21437e-06
-4.34232e-06
-4.46048e-06
-4.56948e-06
-4.67075e-06
-4.76687e-06
-4.8597e-06
-4.95116e-06
-5.04316e-06
-5.13757e-06
-5.23621e-06
-5.34088e-06
-5.4533e-06
-5.57516e-06
-5.70804e-06
-5.85346e-06
-6.0128e-06
-6.18738e-06
-6.37835e-06
-6.58675e-06
-6.81345e-06
-7.05916e-06
-7.32445e-06
-7.60969e-06
1.99061e-06
1.52972e-06
1.08336e-06
6.52226e-07
2.36966e-07
-1.61858e-07
-5.43767e-07
-9.08371e-07
-1.25537e-06
-1.58457e-06
-1.89585e-06
-2.18923e-06
-2.46479e-06
-2.72276e-06
-2.96343e-06
-3.18723e-06
-3.3947e-06
-3.58646e-06
-3.76332e-06
-3.92604e-06
-4.07592e-06
-4.21305e-06
-4.33916e-06
-4.45576e-06
-4.56357e-06
-4.664e-06
-4.75943e-06
-4.8517e-06
-4.94268e-06
-5.03421e-06
-5.12817e-06
-5.22636e-06
-5.3306e-06
-5.44263e-06
-5.56413e-06
-5.69675e-06
-5.84201e-06
-6.00137e-06
-6.17615e-06
-6.36755e-06
-6.57665e-06
-6.80435e-06
-7.05141e-06
-7.3184e-06
-7.60573e-06
1.98458e-06
1.52094e-06
1.07216e-06
6.38969e-07
2.22019e-07
-1.78125e-07
-5.60984e-07
-9.26173e-07
-1.2734e-06
-1.60249e-06
-1.91334e-06
-2.20598e-06
-2.48053e-06
-2.73723e-06
-2.97643e-06
-3.19858e-06
-3.40425e-06
-3.5941e-06
-3.76897e-06
-3.92965e-06
-4.07745e-06
-4.21249e-06
-4.33679e-06
-4.45189e-06
-4.55854e-06
-4.65811e-06
-4.75283e-06
-4.84449e-06
-4.9349e-06
-5.02591e-06
-5.11935e-06
-5.21704e-06
-5.32078e-06
-5.43234e-06
-5.55343e-06
-5.68571e-06
-5.83075e-06
-5.99003e-06
-6.16491e-06
-6.35663e-06
-6.5663e-06
-6.79486e-06
-7.04308e-06
-7.31157e-06
-7.60076e-06
1.97795e-06
1.51167e-06
1.06059e-06
6.2544e-07
2.06886e-07
-1.94507e-07
-5.78262e-07
-9.43998e-07
-1.29144e-06
-1.6204e-06
-1.93082e-06
-2.22275e-06