/*--------------------------------*- C++ -*----------------------------------*\
| =========                 |                                                 |
| \\      /  F ield         | OpenFOAM: The Open Source CFD Toolbox           |
|  \\    /   O peration     | Version:  2312                                  |
|   \\  /    A nd           | Website:  www.openfoam.com                      |
|    \\/     M anipulation  |                                                 |
\*---------------------------------------------------------------------------*/
FoamFile
{
    version     2.0;
    format      ascii;
    arch        "LSB;label=32;scalar=64";
    class       volVectorField;
    location    "177";
    object      U;
}
// * * * * * * * * * * * * * * * * * * * * * * * * * * * * * * * * * * * * * //

dimensions      [0 1 -1 0 0 0 0];

internalField   nonuniform List<vector> 
4800
(
(0.000489118 3.98128e-07 -3.4365e-26)
(0.000478861 4.6298e-07 -2.41931e-25)
(0.00047194 4.99598e-07 3.10428e-25)
(0.000467363 5.08835e-07 1.42104e-25)
(0.000464532 4.88677e-07 2.09909e-24)
(0.000463092 4.52966e-07 -5.00128e-24)
(0.000462831 3.95403e-07 4.6638e-24)
(0.000463734 3.09013e-07 -6.74269e-24)
(0.000465718 1.67042e-07 2.17033e-24)
(0.000468951 -1.10455e-07 7.36478e-24)
(0.000473853 -6.60444e-07 -2.27131e-24)
(0.000481757 -2.12017e-06 -1.95238e-25)
(0.000499918 -7.43296e-06 -2.75458e-24)
(0.000546774 -2.89674e-05 1.2604e-24)
(0.000625452 -9.56381e-05 -9.96819e-25)
(0.00150896 2.08779e-06 -1.09257e-25)
(0.00147746 1.66274e-06 1.36187e-25)
(0.00145598 1.31954e-06 -1.25862e-24)
(0.00144152 1.00292e-06 9.40608e-25)
(0.00143229 6.72341e-07 3.01895e-24)
(0.0014272 3.14819e-07 -4.81797e-24)
(0.00142557 -1.13875e-07 -1.35927e-24)
(0.00142726 -6.95023e-07 -3.13076e-25)
(0.00143194 -1.51386e-06 1.11675e-23)
(0.00144025 -2.88759e-06 -8.26143e-24)
(0.00145328 -5.47783e-06 8.99935e-25)
(0.00147391 -1.15297e-05 1.36397e-24)
(0.00151101 -2.88549e-05 -2.00535e-24)
(0.00157576 -8.16956e-05 -5.85158e-25)
(0.0016465 -0.000202222 2.59783e-24)
(0.00263279 6.74491e-06 -7.81467e-26)
(0.00257836 5.35144e-06 7.98332e-26)
(0.0025409 4.25686e-06 8.23327e-25)
(0.00251537 3.28065e-06 -1.96335e-24)
(0.00249868 2.30266e-06 1.92664e-24)
(0.00248895 1.22187e-06 1.81264e-24)
(0.00248493 -1.11565e-07 -4.64095e-24)
(0.00248633 -1.85467e-06 -2.83425e-24)
(0.00249235 -4.27987e-06 6.88833e-24)
(0.00250395 -8.14904e-06 2.6031e-24)
(0.00252223 -1.49554e-05 -9.0607e-24)
(0.00254936 -2.87156e-05 -1.35373e-24)
(0.00258951 -5.92283e-05 3.86212e-24)
(0.00264146 -0.000126426 6.06523e-24)
(0.0026795 -0.000239485 -3.12866e-24)
(0.00386671 1.51439e-05 2.88575e-26)
(0.00378811 1.21315e-05 -2.01299e-25)
(0.00373349 9.76986e-06 8.98951e-25)
(0.00369576 7.67613e-06 9.62537e-25)
(0.00367052 5.60034e-06 -9.56817e-25)
(0.00365505 3.33412e-06 -5.52385e-24)
(0.00364741 6.04128e-07 -3.75525e-24)
(0.00364716 -3.01663e-06 1.39419e-23)
(0.00365277 -7.70207e-06 5.71495e-24)
(0.00366509 -1.50484e-05 -8.33225e-24)
(0.00368458 -2.70225e-05 -3.35853e-24)
(0.0037114 -4.81614e-05 -2.5508e-24)
(0.00374481 -8.67278e-05 7.97517e-26)
(0.0037774 -0.000153189 1.8812e-24)
(0.0037902 -0.00024327 9.19031e-27)
(0.00521483 2.81317e-05 -5.28971e-26)
(0.00511177 2.27117e-05 -3.24539e-25)
(0.00503933 1.8461e-05 -2.06127e-25)
(0.00498855 1.47139e-05 5.55416e-25)
(0.0049538 1.10406e-05 -1.57861e-24)
(0.0049315 7.10531e-06 3.93832e-24)
(0.00491905 2.45024e-06 -6.9495e-25)
(0.00491533 -3.45539e-06 2.41004e-24)
(0.00491875 -1.10412e-05 -1.33448e-23)
(0.00492903 -2.21565e-05 2.54455e-23)
(0.00494572 -3.89111e-05 -2.46583e-23)
(0.00496715 -6.49372e-05 1.29882e-23)
(0.00498982 -0.000105286 -1.20396e-23)
(0.00500575 -0.000163273 1.13625e-23)
(0.00500398 -0.000231555 -4.53513e-24)
(0.00667758 4.66713e-05 6.98276e-26)
(0.00655144 3.79986e-05 2.50962e-25)
(0.00646158 3.11795e-05 -1.3244e-24)
(0.00639759 2.51975e-05 -8.3946e-25)
(0.00635278 1.94026e-05 2.25114e-24)
(0.00632279 1.33132e-05 8.06669e-25)
(0.00630441 6.30132e-06 -6.30637e-24)
(0.00629571 -2.21919e-06 1.50377e-23)
(0.00629489 -1.30169e-05 -1.953e-23)
(0.00630074 -2.77154e-05 4.68687e-24)
(0.00631158 -4.80418e-05 1.42042e-23)
(0.00632482 -7.62349e-05 -1.97154e-23)
(0.00633639 -0.000114278 9.86834e-24)
(0.00634024 -0.000161727 1.01464e-23)
(0.00633123 -0.000212384 -7.72906e-24)
(0.00824929 7.15032e-05 5.77624e-26)
(0.0081043 5.88128e-05 -3.42345e-25)
(0.00799921 4.87688e-05 1.22801e-24)
(0.00792303 3.99782e-05 -1.7046e-24)
(0.00786844 3.15542e-05 -5.79101e-24)
(0.00783047 2.2863e-05 9.87153e-24)
(0.00780544 1.31631e-05 -5.98684e-24)
(0.00779072 1.75597e-06 2.03453e-23)
(0.00778409 -1.20972e-05 -1.38405e-23)
(0.0077836 -2.97268e-05 -6.45676e-24)
(0.0077869 -5.22404e-05 -1.26864e-23)
(0.00779112 -8.04807e-05 1.16628e-23)
(0.00779286 -0.000114447 3.28186e-24)
(0.00778834 -0.00015235 2.82162e-24)
(0.00777573 -0.00018997 -2.48397e-24)
(0.00991564 0.000102651 -8.35347e-26)
(0.00975997 8.55063e-05 1.13427e-24)
(0.00964456 7.17611e-05 -2.64226e-24)
(0.00955911 5.97044e-05 -2.16641e-24)
(0.00949639 4.82432e-05 8.12217e-25)
(0.00945121 3.66124e-05 1.59671e-24)
(0.00941962 2.40281e-05 5.71773e-24)
(0.00939855 9.7586e-06 -1.5556e-23)
(0.00938538 -6.82435e-06 -8.28011e-24)
(0.00937774 -2.65662e-05 2.28203e-23)
(0.0093731 -4.9949e-05 -7.07463e-24)
(0.00936883 -7.68763e-05 2.42057e-23)
(0.00936253 -0.000106455 -1.27464e-23)
(0.00935204 -0.000136846 -4.08278e-24)
(0.00933716 -0.000165462 2.42106e-24)
(0.0116522 0.000138771 -1.1161e-26)
(0.0114985 0.000117435 6.28686e-25)
(0.011381 9.99445e-05 -8.95105e-25)
(0.0112918 8.44596e-05 2.14579e-24)
(0.0112245 6.97854e-05 -1.27932e-23)
(0.0111744 5.50918e-05 1.35063e-23)
(0.0111376 3.96279e-05 -2.12598e-23)
(0.0111109 2.27409e-05 1.30758e-23)
(0.0110917 3.96884e-06 9.71478e-24)
(0.0110773 -1.70577e-05 2.10861e-23)
(0.0110655 -4.0323e-05 -2.75465e-23)
(0.0110542 -6.52838e-05 -5.12118e-24)
(0.0110418 -9.08858e-05 2.32905e-24)
(0.011027 -0.000115732 1.69183e-23)
(0.0110104 -0.000138336 -6.89625e-24)
(0.0134271 0.000176555 6.2764e-26)
(0.0132911 0.000152354 -2.67424e-25)
(0.0131827 0.000131799 1.1845e-24)
(0.0130976 0.000113248 -4.15055e-24)
(0.0130314 9.55899e-05 6.2895e-24)
(0.0129804 7.80526e-05 -8.11584e-24)
(0.0129413 6.00044e-05 1.358e-23)
(0.0129113 4.09588e-05 2.37734e-24)
(0.0128877 2.06728e-05 -1.87107e-23)
(0.0128683 -8.90443e-07 2.66657e-23)
(0.0128513 -2.34157e-05 -2.94251e-23)
(0.0128349 -4.62652e-05 -8.71238e-24)
(0.0128185 -6.85657e-05 1.5324e-23)
(0.012801 -8.9419e-05 4.56975e-24)
(0.0127832 -0.000108024 -2.00028e-24)
(0.0152125 0.000210948 2.67447e-25)
(0.0151078 0.000186235 -2.11284e-24)
(0.0150195 0.000164136 -3.31873e-24)
(0.0149472 0.00014355 7.89926e-24)
(0.0148889 0.000123683 3.51952e-24)
(0.0148423 0.000103972 -2.21082e-23)
(0.0148051 8.39985e-05 6.81403e-24)
(0.014775 6.34988e-05 4.90184e-24)
(0.01475 4.24418e-05 -2.1217e-23)
(0.0147283 2.10016e-05 2.20801e-23)
(0.0147087 -4.19152e-07 -1.77651e-23)
(0.0146899 -2.12703e-05 4.55996e-23)
(0.0146716 -4.0944e-05 -2.19939e-23)
(0.014653 -5.89349e-05 1.29839e-23)
(0.0146351 -7.48455e-05 -3.55226e-24)
(0.0170011 0.000237226 -1.23195e-25)
(0.0169319 0.000214489 1.47509e-24)
(0.0168696 0.00019276 -2.80547e-24)
(0.0168159 0.000171638 -1.39838e-24)
(0.0167707 0.000150792 1.56796e-23)
(0.0167331 0.000129988 -2.29009e-24)
(0.0167017 0.000109079 -2.78324e-23)
(0.0166751 8.80428e-05 3.24619e-23)
(0.016652 6.70196e-05 -7.28433e-24)
(0.0166311 4.62833e-05 -2.52859e-23)
(0.0166118 2.62085e-05 2.70228e-23)
(0.0165932 7.19444e-06 1.46708e-23)
(0.0165753 -1.03821e-05 -1.2238e-23)
(0.0165574 -2.62769e-05 -2.13867e-23)
(0.0165405 -4.03198e-05 1.80061e-24)
(0.0188134 0.000254307 2.25941e-26)
(0.018772 0.000234843 -1.70231e-24)
(0.0187324 0.00021482 7.77e-24)
(0.0186965 0.000194433 4.08687e-25)
(0.0186651 0.000173808 4.2896e-24)
(0.0186379 0.000153043 -1.54876e-23)
(0.0186141 0.000132255 1.31952e-23)
(0.018593 0.000111614 3.00721e-24)
(0.0185739 9.13704e-05 2.71813e-23)
(0.0185561 7.18165e-05 -4.19498e-23)
(0.0185392 5.32588e-05 -1.90517e-23)
(0.0185227 3.59554e-05 -1.26772e-23)
(0.0185069 2.01163e-05 2.38026e-23)
(0.0184911 5.83289e-06 -6.96127e-25)
(0.0184762 -6.84538e-06 2.32344e-24)
(0.0206759 0.000265419 -6.0002e-27)
(0.0206495 0.000249073 1.83889e-24)
(0.0206236 0.000231064 -2.66356e-24)
(0.0205996 0.000211932 1.50362e-26)
(0.020578 0.000192168 3.19881e-24)
(0.0205586 0.000172149 8.08035e-24)
(0.0205411 0.00015218 -3.1348e-23)
(0.020525 0.000132545 2.65266e-24)
(0.0205098 0.000113532 1.59158e-23)
(0.0204953 9.54017e-05 -7.3547e-24)
(0.0204814 7.83806e-05 2.00746e-23)
(0.0204676 6.26209e-05 1.41352e-23)
(0.0204543 4.8225e-05 -2.56237e-23)
(0.020441 3.52038e-05 1.76293e-23)
(0.0204285 2.35469e-05 -1.46598e-23)
(0.0225815 0.000274729 -3.18375e-25)
(0.0225625 0.000260693 -2.75711e-25)
(0.0225435 0.000244479 3.33158e-24)
(0.0225256 0.000226679 -1.57199e-23)
(0.0225094 0.000207992 1.37385e-23)
(0.0224944 0.000188985 -9.71264e-24)
(0.0224806 0.000170092 6.99744e-24)
(0.0224675 0.000151647 -4.91199e-23)
(0.0224551 0.000133933 7.09138e-23)
(0.022443 0.000117159 -4.17886e-23)
(0.0224313 0.00010148 3.73447e-23)
(0.0224197 8.69755e-05 3.13666e-23)
(0.0224085 7.36844e-05 -5.48264e-23)
(0.0223973 6.15786e-05 1.7877e-23)
(0.0223868 5.06208e-05 -7.53155e-25)
(0.0244728 0.000281546 -1.21564e-26)
(0.0244612 0.000270919 -1.17388e-24)
(0.0244473 0.000256459 1.22771e-24)
(0.0244338 0.000240158 -4.44512e-25)
(0.0244212 0.00022281 5.82135e-24)
(0.0244092 0.000205055 -9.86098e-24)
(0.0243979 0.000187385 9.00159e-24)
(0.024387 0.000170166 -2.81742e-23)
(0.0243765 0.000153668 6.39254e-23)
(0.0243662 0.000138063 -8.16915e-23)
(0.0243562 0.000123458 6.6903e-23)
(0.0243463 0.000109891 -2.25979e-23)
(0.0243368 9.73683e-05 1.18458e-24)
(0.0243272 8.58491e-05 5.22532e-24)
(0.0243183 7.52885e-05 -9.9978e-24)
(0.0262622 0.000284963 -9.30254e-25)
(0.026257 0.00027832 7.03446e-25)
(0.026249 0.000266673 1.14729e-24)
(0.0262398 0.000252133 -3.05662e-24)
(0.0262308 0.000236404 1.04887e-23)
(0.026222 0.000220131 -1.02867e-23)
(0.0262133 0.000203819 -8.56884e-24)
(0.0262047 0.000187846 -2.0293e-23)
(0.0261963 0.000172482 1.06927e-23)
(0.0261879 0.000157881 4.9211e-23)
(0.0261798 0.000144127 -2.59065e-23)
(0.0261716 0.000131241 1.5382e-23)
(0.0261637 0.000119222 -6.33338e-24)
(0.0261558 0.00010803 -1.87683e-23)
(0.0261483 9.76266e-05 9.60762e-24)
(0.0278357 0.000285864 2.85091e-25)
(0.027834 0.000281487 -4.20712e-25)
(0.0278306 0.000273373 1.76576e-24)
(0.0278257 0.000261238 -6.68012e-24)
(0.0278203 0.00024756 -2.01656e-24)
(0.0278146 0.000233072 1.87092e-23)
(0.0278088 0.000218307 -1.39697e-23)
(0.0278028 0.000203665 -8.00836e-24)
(0.0277968 0.000189421 7.54185e-24)
(0.0277906 0.000175734 -8.31742e-24)
(0.0277845 0.000162688 1.9479e-23)
(0.0277784 0.000150309 9.67492e-24)
(0.0277723 0.000138603 -3.62033e-23)
(0.0277661 0.000127544 2.49343e-23)
(0.0277603 0.000117106 -5.06955e-24)
(0.0290278 0.000285862 9.76552e-25)
(0.02903 0.000282757 6.99e-25)
(0.0290303 0.000276478 -1.97886e-24)
(0.0290296 0.00026661 2.79108e-24)
(0.0290281 0.000254964 -3.95531e-24)
(0.0290259 0.000242299 -8.05864e-24)
(0.0290232 0.000229152 -8.26561e-24)
(0.0290202 0.000215908 2.23851e-23)
(0.0290169 0.000202831 2.05631e-23)
(0.0290133 0.000190074 -4.92959e-23)
(0.0290096 0.000177726 2.7676e-23)
(0.0290057 0.000165828 -1.88766e-24)
(0.0290018 0.0001544 -1.50975e-24)
(0.0289976 0.000143433 2.01399e-24)
(0.0289936 0.000132917 -9.22362e-25)
(0.0296146 0.00027782 -2.46864e-24)
(0.0296226 0.000277446 -3.64239e-24)
(0.0296282 0.000272874 4.29333e-24)
(0.0296323 0.00026535 2.86323e-24)
(0.0296353 0.000255835 -2.11512e-25)
(0.0296373 0.000245064 2.92656e-24)
(0.0296385 0.000233584 -2.34663e-24)
(0.0296391 0.000221769 -1.7055e-23)
(0.0296392 0.000209859 3.84014e-23)
(0.0296389 0.000198007 -1.58353e-23)
(0.0296383 0.000186314 6.23295e-24)
(0.0296373 0.000174841 -1.09069e-23)
(0.0296361 0.000163628 -1.10658e-23)
(0.0296346 0.000152688 1.61783e-23)
(0.029633 0.000142027 -6.92229e-24)
(0.0294049 0.000266343 3.72091e-24)
(0.0294154 0.000267677 -7.98148e-24)
(0.0294238 0.000264997 1.8067e-24)
(0.0294308 0.000259386 6.56822e-24)
(0.0294365 0.00025169 -4.5766e-24)
(0.0294414 0.0002426 -3.0889e-25)
(0.0294454 0.000232624 -5.751e-24)
(0.0294488 0.000222093 1.43617e-23)
(0.0294517 0.000211224 4.83955e-24)
(0.0294541 0.000200167 -9.91785e-24)
(0.029456 0.000189031 -5.56155e-24)
(0.0294575 0.000177892 6.6282e-24)
(0.0294587 0.000166805 -7.14559e-24)
(0.0294596 0.000155802 4.14886e-24)
(0.0294603 0.000144907 -1.81121e-24)
(0.0284174 0.000250896 2.21595e-24)
(0.0284346 0.0002529 -4.48808e-24)
(0.0284495 0.000251185 -2.3741e-24)
(0.0284624 0.000246785 1.11777e-23)
(0.0284736 0.00024046 -8.87672e-24)
(0.0284835 0.000232768 1.43297e-24)
(0.0284921 0.00022411 9.79819e-25)
(0.0284997 0.000214759 -1.67267e-25)
(0.0285064 0.000204908 -1.56044e-24)
(0.0285123 0.000194697 1.10945e-23)
(0.0285174 0.000184235 -6.76264e-24)
(0.0285219 0.000173603 1.13991e-24)
(0.0285258 0.000162863 -1.15688e-23)
(0.0285292 0.000152057 5.62771e-24)
(0.0285321 0.00014122 1.92991e-24)
(0.026838 0.000231093 5.38169e-24)
(0.0268568 0.00023309 -9.3566e-24)
(0.0268738 0.000231842 1.96865e-24)
(0.0268894 0.000228246 -3.57847e-24)
(0.0269035 0.000222929 -3.62374e-24)
(0.0269165 0.00021632 1.38058e-23)
(0.0269284 0.00020873 -4.52315e-24)
(0.0269393 0.000200389 7.98187e-25)
(0.0269493 0.000191468 -2.21061e-25)
(0.0269585 0.000182095 1.51268e-24)
(0.0269669 0.000172371 -4.07335e-24)
(0.0269746 0.000162374 4.14822e-24)
(0.0269817 0.000152167 -2.16584e-25)
(0.0269882 0.000141796 -1.72113e-24)
(0.0269941 0.000131301 2.96597e-25)
(0.0249326 0.000211819 2.04377e-24)
(0.0249544 0.000213519 -1.02541e-23)
(0.0249748 0.000212464 1.72511e-23)
(0.0249938 0.000209358 -1.26879e-23)
(0.0250114 0.000204698 1.16288e-23)
(0.0250279 0.000198822 -4.17509e-24)
(0.0250432 0.000191984 -2.61983e-24)
(0.0250575 0.000184376 -2.20046e-24)
(0.0250709 0.000176146 2.4381e-24)
(0.0250833 0.000167409 -1.25282e-24)
(0.0250948 0.000158258 -8.42407e-25)
(0.0251057 0.000148769 6.11613e-25)
(0.0251157 0.000139002 -9.67188e-25)
(0.0251251 0.000129008 4.43731e-25)
(0.0251338 0.000118827 -1.49139e-25)
(0.0228454 0.000191089 2.70251e-25)
(0.0228712 0.00019229 -3.85704e-24)
(0.0228958 0.000191184 -1.98002e-24)
(0.022919 0.000188303 1.66999e-23)
(0.0229409 0.000184037 -1.59992e-23)
(0.0229614 0.000178657 4.5683e-24)
(0.0229808 0.00017237 7.11727e-25)
(0.022999 0.000165335 -3.34956e-25)
(0.023016 0.000157681 -1.25196e-24)
(0.0230321 0.000149511 4.58886e-24)
(0.0230472 0.00014091 -3.3076e-24)
(0.0230614 0.000131948 1.24563e-25)
(0.0230747 0.000122683 3.74732e-26)
(0.0230872 0.000113164 -5.3455e-25)
(0.0230988 0.000103436 4.83144e-25)
(0.0206901 0.000168351 4.01675e-25)
(0.0207203 0.000168974 3.59241e-24)
(0.0207493 0.0001677 -4.13361e-24)
(0.0207767 0.000164927 -2.73931e-24)
(0.0208028 0.000160956 1.69942e-23)
(0.0208275 0.000155999 -1.3005e-23)
(0.0208508 0.000150222 -3.60034e-25)
(0.0208729 0.000143759 -2.39825e-24)
(0.0208937 0.000136719 -8.86844e-26)
(0.0209134 0.00012919 3.89649e-25)
(0.0209319 0.000121246 -6.17184e-25)
(0.0209493 0.000112949 8.62005e-25)
(0.0209656 0.000104354 3.75839e-25)
(0.0209809 9.55074e-05 2.06747e-25)
(0.0209951 8.64514e-05 -2.37197e-25)
(0.0185474 0.000144245 2.8674e-24)
(0.0185814 0.000144345 -4.37939e-24)
(0.0186141 0.00014292 -3.41196e-24)
(0.0186452 0.000140268 1.03771e-23)
(0.0186748 0.00013661 -3.72442e-24)
(0.0187029 0.000132108 -4.99372e-24)
(0.0187295 0.000126895 1.77868e-24)
(0.0187548 0.000121078 3.62401e-24)
(0.0187786 0.000114745 -5.43163e-24)
(0.0188011 0.000107971 5.04201e-24)
(0.0188222 0.000100817 -2.40955e-24)
(0.018842 9.3339e-05 8.32998e-25)
(0.0188606 8.55859e-05 -5.127e-25)
(0.0188779 7.76011e-05 2.00915e-25)
(0.0188938 6.94258e-05 9.43429e-26)
(0.0164691 0.000119893 -5.58217e-25)
(0.0165056 0.000119614 -1.91149e-24)
(0.0165407 0.00011814 -6.01223e-24)
(0.0165742 0.00011569 1.67643e-23)
(0.0166061 0.000112419 -3.06554e-24)
(0.0166364 0.000108446 -4.62637e-24)
(0.0166651 0.000103874 1.50805e-24)
(0.0166922 9.87879e-05 -2.20413e-24)
(0.0167179 9.32579e-05 -4.34682e-24)
(0.016742 8.73443e-05 4.21766e-24)
(0.0167646 8.11003e-05 2.00915e-25)
(0.0167857 7.45735e-05 -8.48686e-25)
(0.0168052 6.78084e-05 9.89454e-25)
(0.0168233 6.08449e-05 -1.13364e-26)
(0.0168398 5.37209e-05 1.84902e-27)
(0.0144856 9.65526e-05 2.15566e-24)
(0.014523 9.60626e-05 3.12495e-24)
(0.0145589 9.46632e-05 -2.95629e-24)
(0.0145931 9.25108e-05 -6.30364e-24)
(0.0146258 8.97011e-05 8.38053e-24)
(0.0146568 8.63233e-05 -9.04505e-24)
(0.0146862 8.24557e-05 -2.42077e-25)
(0.0147139 7.81641e-05 3.43304e-24)
(0.0147399 7.35038e-05 1.14885e-24)
(0.0147643 6.8524e-05 -2.10992e-24)
(0.0147871 6.3269e-05 2.23255e-25)
(0.0148082 5.77799e-05 3.58395e-24)
(0.0148275 5.20955e-05 -1.34377e-24)
(0.0148453 4.62509e-05 -2.26208e-25)
(0.0148612 4.02806e-05 -3.1658e-27)
(0.0126135 7.52936e-05 -2.24695e-24)
(0.01265 7.47389e-05 2.88843e-24)
(0.0126851 7.3519e-05 3.15797e-25)
(0.0127186 7.17295e-05 5.70077e-24)
(0.0127506 6.94254e-05 -4.67877e-24)
(0.0127809 6.66738e-05 3.2938e-25)
(0.0128095 6.35343e-05 -5.26821e-25)
(0.0128365 6.00565e-05 -1.41342e-24)
(0.0128617 5.62831e-05 1.11445e-24)
(0.0128853 5.22536e-05 -3.56668e-24)
(0.0129071 4.80039e-05 3.83089e-25)
(0.0129271 4.35685e-05 8.55485e-25)
(0.0129454 3.89798e-05 4.56344e-25)
(0.0129619 3.42677e-05 1.39156e-25)
(0.0129765 2.94619e-05 1.43226e-26)
(0.010861 5.68128e-05 1.66959e-24)
(0.0108953 5.6297e-05 -1.32366e-24)
(0.0109282 5.5317e-05 -5.72888e-24)
(0.0109597 5.39118e-05 5.37679e-24)
(0.0109897 5.21135e-05 7.3686e-24)
(0.0110181 4.99742e-05 -1.94429e-24)
(0.011045 4.75371e-05 -3.79033e-24)
(0.0110702 4.48386e-05 -5.08712e-24)
(0.0110937 4.1911e-05 3.78382e-24)
(0.0111156 3.87849e-05 1.77198e-25)
(0.0111357 3.54887e-05 -7.67956e-25)
(0.011154 3.20502e-05 -1.50905e-25)
(0.0111706 2.84954e-05 3.22582e-25)
(0.0111853 2.48488e-05 -3.7809e-26)
(0.0111982 2.11349e-05 -2.01218e-26)
(0.0092317 4.14075e-05 -1.05364e-24)
(0.00926266 4.09882e-05 -7.39255e-25)
(0.00929247 4.0261e-05 9.1512e-25)
(0.00932101 3.92192e-05 -2.83266e-24)
(0.00934821 3.78872e-05 9.26844e-24)
(0.00937399 3.63041e-05 -1.21546e-23)
(0.00939831 3.44996e-05 1.17686e-23)
(0.00942111 3.24995e-05 -4.93869e-24)
(0.00944234 3.03276e-05 1.05328e-24)
(0.00946197 2.8007e-05 -4.68872e-26)
(0.00947994 2.55591e-05 -8.11976e-25)
(0.00949623 2.30053e-05 1.66108e-25)
(0.0095108 2.03659e-05 -4.83939e-25)
(0.00952364 1.76601e-05 -3.4054e-26)
(0.0095347 1.49073e-05 1.04249e-26)
(0.00772636 2.90498e-05 -5.1314e-25)
(0.00775336 2.87452e-05 1.33852e-25)
(0.00777944 2.82466e-05 2.8493e-25)
(0.00780446 2.75185e-05 -1.2997e-24)
(0.00782834 2.65855e-05 -5.67885e-25)
(0.00785099 2.54741e-05 4.99578e-24)
(0.00787235 2.42039e-05 -2.92396e-24)
(0.00789236 2.27925e-05 4.00285e-25)
(0.00791098 2.12568e-05 -3.92221e-25)
(0.00792813 1.96133e-05 -3.8948e-25)
(0.00794379 1.78776e-05 -7.92007e-26)
(0.00795792 1.60657e-05 6.36128e-25)
(0.00797048 1.41923e-05 5.2414e-26)
(0.00798145 1.22723e-05 -2.86838e-25)
(0.0079908 1.032e-05 -1.83721e-26)
(0.00634359 1.94942e-05 -1.86945e-25)
(0.00636635 1.92954e-05 -6.04092e-26)
(0.00638842 1.89805e-05 -2.9759e-24)
(0.00640965 1.85032e-05 8.063e-25)
(0.00642995 1.78888e-05 -2.08513e-24)
(0.00644924 1.71531e-05 1.51269e-24)
(0.00646745 1.6308e-05 2.76652e-24)
(0.00648452 1.53652e-05 1.99745e-24)
(0.00650039 1.4336e-05 -2.74956e-24)
(0.00651501 1.32317e-05 8.28222e-25)
(0.00652833 1.20631e-05 6.29748e-25)
(0.00654032 1.08415e-05 -7.98587e-25)
(0.00655094 9.57704e-06 4.19976e-25)
(0.00656018 8.28092e-06 1.88735e-26)
(0.00656799 6.9632e-06 3.57048e-26)
(0.00508031 1.23779e-05 -7.33227e-25)
(0.00509878 1.22616e-05 -9.9487e-25)
(0.0051168 1.20803e-05 -1.69621e-25)
(0.00513418 1.17902e-05 2.46619e-24)
(0.00515085 1.14144e-05 -1.72502e-24)
(0.00516674 1.096e-05 -3.15929e-25)
(0.00518176 1.04342e-05 2.71845e-24)
(0.00519587 9.84412e-06 -1.98572e-26)
(0.00520899 9.19694e-06 -5.54028e-25)
(0.0052211 8.49998e-06 -1.82349e-24)
(0.00523213 7.76026e-06 2.77064e-25)
(0.00524206 6.9852e-06 1.11139e-24)
(0.00525085 6.18164e-06 -1.3851e-25)
(0.00525849 5.35737e-06 -6.76818e-26)
(0.00526494 4.51926e-06 3.22114e-26)
(0.00393189 7.29488e-06 -1.60422e-25)
(0.00394624 7.23383e-06 1.03459e-26)
(0.00396033 7.14092e-06 1.18744e-24)
(0.00397397 6.98128e-06 7.81215e-25)
(0.00398709 6.77225e-06 -5.54854e-25)
(0.00399964 6.51575e-06 -1.33185e-24)
(0.00401154 6.21569e-06 5.25159e-25)
(0.00402274 5.87624e-06 -2.16439e-24)
(0.0040332 5.50152e-06 1.65931e-24)
(0.00404286 5.09595e-06 7.83506e-25)
(0.00405168 4.66373e-06 -6.18683e-26)
(0.00405964 4.20948e-06 -7.76998e-25)
(0.0040667 3.73733e-06 1.1363e-25)
(0.00407285 3.25248e-06 -5.3313e-26)
(0.00407806 2.7596e-06 1.69518e-26)
(0.00289249 3.84487e-06 -2.95606e-25)
(0.002903 3.81355e-06 7.64442e-27)
(0.0029134 3.77221e-06 9.54172e-25)
(0.00292348 3.69557e-06 -5.95891e-25)
(0.00293324 3.59383e-06 2.41102e-24)
(0.00294259 3.46643e-06 -4.37157e-24)
(0.00295151 3.31534e-06 3.51086e-24)
(0.00295992 3.14264e-06 -2.87473e-24)
(0.00296781 2.95047e-06 2.01192e-24)
(0.00297512 2.74119e-06 -1.23924e-24)
(0.00298182 2.51704e-06 4.1777e-25)
(0.00298788 2.28061e-06 5.55183e-26)
(0.00299328 2.03411e-06 5.9468e-26)
(0.00299801 1.78071e-06 -6.50348e-26)
(0.00300205 1.52369e-06 7.15218e-27)
(0.00195537 1.67111e-06 4.48804e-25)
(0.00196239 1.6513e-06 4.80043e-25)
(0.00196937 1.6349e-06 -2.05585e-24)
(0.00197617 1.60451e-06 1.49695e-24)
(0.00198278 1.56406e-06 -1.77135e-26)
(0.00198916 1.51258e-06 3.71533e-25)
(0.00199525 1.45085e-06 -4.63677e-25)
(0.00200104 1.37968e-06 -9.29993e-25)
(0.00200648 1.29993e-06 9.08433e-25)
(0.00201154 1.21264e-06 7.62631e-26)
(0.00201621 1.11874e-06 -6.46616e-25)
(0.00202045 1.01942e-06 2.3578e-25)
(0.00202425 9.1559e-07 1.10065e-25)
(0.00202761 8.08885e-07 -1.58333e-26)
(0.00203049 7.01536e-07 -4.90603e-27)
(0.0011132 4.97345e-07 -4.53107e-25)
(0.00111709 4.92334e-07 1.38069e-24)
(0.00112099 4.92727e-07 8.11796e-25)
(0.00112481 4.88139e-07 -1.47305e-24)
(0.00112855 4.79518e-07 -1.72066e-25)
(0.00113217 4.66786e-07 -1.5055e-25)
(0.00113566 4.50379e-07 4.4932e-25)
(0.00113898 4.30659e-07 -7.48755e-25)
(0.00114212 4.07956e-07 9.85213e-25)
(0.00114506 3.82629e-07 -4.842e-25)
(0.00114779 3.54956e-07 -2.8379e-25)
(0.00115028 3.25315e-07 1.60477e-25)
(0.00115253 2.93859e-07 -1.38716e-25)
(0.00115453 2.61066e-07 1.21021e-25)
(0.00115627 2.2802e-07 -1.0852e-26)
(0.000358411 9.34939e-08 -3.236e-27)
(0.000359551 1.32622e-07 2.68039e-25)
(0.000360717 1.6316e-07 3.03595e-25)
(0.000361871 1.8356e-07 -4.79008e-25)
(0.000363015 1.956e-07 9.77254e-25)
(0.000364137 2.00634e-07 -1.06077e-24)
(0.000365229 1.99793e-07 6.76483e-26)
(0.00036628 1.93931e-07 5.54925e-25)
(0.000367283 1.83703e-07 -7.64907e-25)
(0.000368231 1.69614e-07 -1.21793e-25)
(0.000369117 1.52021e-07 4.71891e-25)
(0.000369936 1.31211e-07 -2.01461e-25)
(0.000370682 1.07307e-07 -5.31911e-26)
(0.000371353 8.04455e-08 4.10662e-26)
(0.000371946 5.09558e-08 -9.16143e-28)
(0.000927838 -0.000256667 9.84366e-26)
(0.00105924 -0.000185885 2.60574e-24)
(0.00127968 -0.000111912 -7.61588e-24)
(0.00150394 -5.24291e-05 1.13167e-23)
(0.00171782 -5.50055e-06 -4.2491e-24)
(0.00192651 2.9908e-05 -4.25365e-24)
(0.00213036 5.64667e-05 4.90475e-24)
(0.00233042 7.63951e-05 -9.84223e-24)
(0.00252783 9.15106e-05 5.77984e-25)
(0.00272355 0.000103295 6.27522e-24)
(0.00291836 0.000112969 -1.20844e-24)
(0.00311294 0.000121607 1.31448e-24)
(0.00330794 0.000130236 -1.23639e-25)
(0.00350407 0.000139888 8.45728e-25)
(0.00370243 0.000151584 -3.1168e-24)
(0.00390445 0.000166435 1.71818e-24)
(0.00411229 0.000185248 -5.66325e-25)
(0.00432924 0.000208357 2.30514e-26)
(0.00456029 0.000235634 1.41439e-24)
(0.00481114 0.000265608 -8.97886e-25)
(0.00508922 0.000293146 1.16799e-25)
(0.00540013 0.000308748 -1.02852e-25)
(0.00572063 0.000296336 1.96182e-25)
(0.00600836 0.000250816 7.51012e-25)
(0.00624814 0.000177347 -1.35004e-24)
(0.00643937 8.18636e-05 -9.14629e-25)
(0.0065835 -3.00184e-05 2.33904e-26)
(0.00668239 -0.000153774 2.29297e-24)
(0.0067374 -0.000285599 3.26016e-24)
(0.00674932 -0.000421625 -6.42077e-24)
(0.00671845 -0.000557344 5.70245e-24)
(0.00664504 -0.000687382 -5.38905e-24)
(0.00652953 -0.000805491 1.48269e-24)
(0.00637284 -0.000904679 1.63019e-25)
(0.00617641 -0.000977345 -2.35102e-25)
(0.00594213 -0.00101529 4.8272e-24)
(0.00567219 -0.00100947 -5.32135e-25)
(0.00536897 -0.000949302 2.24016e-24)
(0.00503506 -0.000821209 1.5168e-24)
(0.00467388 -0.000606741 -1.03013e-23)
(0.00428916 -0.000282767 -1.33288e-25)
(0.00388661 0.00017006 4.90857e-24)
(0.00345754 0.000734017 1.84728e-24)
(0.00302291 0.00131158 -7.145e-24)
(0.0027775 0.00156723 -3.77915e-25)
(0.00173995 -0.000336474 -2.93446e-24)
(0.00179285 -0.000298946 -4.2898e-24)
(0.00192562 -0.000227443 8.91492e-24)
(0.00209337 -0.00016022 4.35992e-24)
(0.00227084 -0.000102677 -1.52757e-23)
(0.00245357 -5.66069e-05 1.65566e-23)
(0.00263775 -2.04374e-05 -5.96901e-24)
(0.00282199 7.92631e-06 4.89981e-24)
(0.00300609 3.03958e-05 -6.46777e-24)
(0.00319018 4.86058e-05 6.87555e-26)
(0.00337461 6.39221e-05 -3.50994e-24)
(0.00355978 7.75322e-05 6.9713e-24)
(0.00374619 9.05442e-05 -3.87874e-24)
(0.00393443 0.00010403 -3.56638e-24)
(0.00412553 0.000119022 -2.48123e-24)
(0.00432083 0.000136632 4.56165e-24)
(0.00452236 0.000157625 -6.22958e-25)
(0.00473326 0.000182265 2.57572e-24)
(0.00495832 0.000210424 4.69173e-25)
(0.00520289 0.000240671 -8.01949e-25)
(0.0054741 0.000268037 -3.52046e-25)
(0.00577746 0.000283429 -2.19383e-25)
(0.0060909 0.000271475 1.06506e-24)
(0.00637356 0.000227641 1.28813e-24)
(0.00661052 0.000157034 -1.16561e-24)
(0.00680091 6.53849e-05 -5.58373e-24)
(0.00694576 -4.17766e-05 7.51713e-24)
(0.00704657 -0.000159893 -5.25814e-24)
(0.0071045 -0.00028504 1.76735e-24)
(0.00712026 -0.000413228 -1.11714e-24)
(0.0070943 -0.000539863 8.43078e-24)
(0.00702708 -0.000659537 -1.13753e-23)
(0.00691945 -0.000766029 5.93364e-24)
(0.00677282 -0.000852419 -2.33825e-24)
(0.0065893 -0.000911199 -1.00032e-24)
(0.00637169 -0.000934267 6.30303e-25)
(0.00612351 -0.000912697 1.01682e-23)
(0.00584913 -0.000836124 -2.15096e-24)
(0.00555429 -0.000691567 -9.46105e-24)
(0.00524762 -0.000461725 -6.43005e-24)
(0.00494242 -0.000124983 1.47173e-23)
(0.0046616 0.000337034 -1.48582e-23)
(0.00443138 0.000905988 -4.00726e-24)
(0.00429622 0.00147083 1.00673e-23)
(0.0043138 0.00165959 3.6738e-24)
(0.00269502 -0.000342587 -3.48971e-26)
(0.00270047 -0.000344196 -4.98598e-24)
(0.00275291 -0.00030362 9.50196e-24)
(0.00285506 -0.000246345 8.38624e-24)
(0.00298237 -0.000189027 -1.35781e-23)
(0.00312616 -0.000138356 2.65247e-25)
(0.00327964 -9.59096e-05 1.35631e-24)
(0.00343893 -6.09553e-05 1.50269e-23)
(0.00360207 -3.21545e-05 -1.78302e-23)
(0.00376806 -8.08746e-06 1.10923e-23)
(0.0039365 1.25581e-05 3.4209e-24)
(0.00410734 3.09748e-05 -1.86809e-23)
(0.00428077 4.82887e-05 6.75422e-24)
(0.00445718 6.55754e-05 2.73735e-24)
(0.00463746 8.38565e-05 -5.81788e-24)
(0.00482281 0.00010423 9.58306e-24)
(0.00501508 0.000127413 -6.88692e-24)
(0.00521724 0.000153582 -2.12242e-25)
(0.00543385 0.000182615 5.11598e-25)
(0.0056699 0.000213126 6.07669e-25)
(0.00593217 0.000240307 7.2647e-26)
(0.006226 0.000255468 3.83291e-25)
(0.00653058 0.000243948 -1.07653e-24)
(0.00680665 0.000201793 3.19792e-24)
(0.00703958 0.000134079 -5.03103e-24)
(0.00722814 4.63373e-05 2.89006e-24)
(0.00737294 -5.59904e-05 -6.67533e-24)
(0.00747513 -0.000168296 8.99281e-24)
(0.00753563 -0.000286545 -8.29443e-24)
(0.00755511 -0.000406627 3.60771e-25)
(0.00753412 -0.000523862 1.01861e-26)
(0.00747343 -0.000632823 1.3321e-23)
(0.00737429 -0.00072734 -4.32939e-24)
(0.00723866 -0.00080062 -1.06847e-24)
(0.00706937 -0.000845355 -1.90774e-24)
(0.00687022 -0.000853739 8.95504e-24)
(0.00664612 -0.000817318 -7.44644e-24)
(0.00640346 -0.000726596 1.48776e-23)
(0.00615098 -0.000570356 -2.95963e-23)
(0.00590175 -0.000334814 1.15356e-23)
(0.00567586 -4.60196e-06 4.3165e-24)
(0.0055051 0.00042945 7.39628e-24)
(0.00542691 0.000940143 -9.22919e-24)
(0.00547008 0.00141406 2.98246e-24)
(0.00562085 0.00155891 -1.88524e-24)
(0.00377725 -0.000323117 -1.26745e-24)
(0.00375461 -0.000349229 -1.98523e-24)
(0.00375878 -0.000335619 -8.5635e-24)
(0.00379795 -0.000301179 2.15686e-24)
(0.00387097 -0.000254269 1.45637e-24)
(0.00396758 -0.000206785 7.05837e-24)
(0.00408111 -0.000163352 -1.52323e-23)
(0.00420657 -0.000125269 5.72352e-24)
(0.00434066 -9.23829e-05 1.97107e-23)
(0.0044813 -6.39304e-05 -5.21485e-24)
(0.00462726 -3.89357e-05 -4.96503e-24)
(0.00477791 -1.63795e-05 -7.97561e-25)
(0.00493305 4.77253e-06 2.64847e-24)
(0.0050928 2.55303e-05 -5.21927e-24)
(0.00525784 4.68546e-05 1.18303e-24)
(0.00542917 6.98061e-05 -4.87008e-25)
(0.00560847 9.50317e-05 -2.78969e-24)
(0.00579848 0.000122594 9.22721e-25)
(0.00600355 0.000152376 5.02287e-24)
(0.00622824 0.000183046 -5.47848e-25)
(0.00647894 0.000209948 -1.19491e-24)
(0.00676077 0.000224797 -3.4051e-25)
(0.00705424 0.000213661 -1.90324e-24)
(0.00732181 0.000173189 -9.86185e-26)
(0.0075491 0.000108432 -4.48456e-24)
(0.0077345 2.47217e-05 7.74711e-24)
(0.00787815 -7.25916e-05 -6.71323e-24)
(0.00798084 -0.000178847 1.29439e-23)
(0.00804327 -0.000289903 -1.11906e-23)
(0.00806607 -0.000401543 2.50082e-24)
(0.00804995 -0.000509032 4.7398e-24)
(0.00799596 -0.000606961 -1.36529e-25)
(0.00790579 -0.000689287 -3.33651e-25)
(0.00778201 -0.000749445 -3.30021e-25)
(0.00762819 -0.000780498 -3.0439e-25)
(0.0074491 -0.000775201 -3.2888e-24)
(0.00725095 -0.000725997 1.80628e-23)
(0.00704187 -0.000624913 -9.34409e-24)
(0.00683282 -0.000463505 1.08673e-25)
(0.00663934 -0.000233054 -2.8446e-23)
(0.00648359 7.34077e-05 2.18528e-23)
(0.00639645 0.000454284 -8.81549e-24)
(0.00641057 0.000878263 1.57451e-24)
(0.00653701 0.0012553 1.21773e-23)
(0.00674472 0.00141081 -3.2538e-24)
(0.00498216 -0.000293227 -5.26921e-24)
(0.00494879 -0.000329006 1.08346e-23)
(0.0049243 -0.000334353 3.15904e-24)
(0.00492317 -0.000320751 1.36772e-23)
(0.00494521 -0.000292068 -3.37291e-23)
(0.00499402 -0.00025437 -1.07514e-24)