/*--------------------------------*- C++ -*----------------------------------*\
| =========                 |                                                 |
| \\      /  F ield         | OpenFOAM: The Open Source CFD Toolbox           |
|  \\    /   O peration     | Version:  2312                                  |
|   \\  /    A nd           | Website:  www.openfoam.com                      |
|    \\/     M anipulation  |                                                 |
\*---------------------------------------------------------------------------*/
FoamFile
{
    version     2.0;
    format      ascii;
    arch        "LSB;label=32;scalar=64";
    class       volScalarField;
    location    "36.25";
    object      p;
}
// * * * * * * * * * * * * * * * * * * * * * * * * * * * * * * * * * * * * * //

dimensions      [0 2 -2 0 0 0 0];

internalField   nonuniform List<scalar> 
4800
(
3.90331e-13
-1.43029e-06
-2.69623e-06
-3.82491e-06
-4.8342e-06
-5.73514e-06
-6.54463e-06
-7.2736e-06
-7.92797e-06
-8.51941e-06
-9.05628e-06
-9.54168e-06
-9.96782e-06
-1.05789e-05
-1.23944e-05
1.26981e-08
-1.41386e-06
-2.67631e-06
-3.80243e-06
-4.81051e-06
-5.71152e-06
-6.52323e-06
-7.25613e-06
-7.91686e-06
-8.51906e-06
-9.07642e-06
-9.6063e-06
-1.01241e-05
-1.07401e-05
-1.17139e-05
2.68206e-08
-1.3956e-06
-2.65456e-06
-3.77803e-06
-4.78468e-06
-5.68519e-06
-6.49703e-06
-7.23278e-06
-7.89832e-06
-8.50812e-06
-9.07711e-06
-9.62295e-06
-1.01552e-05
-1.06789e-05
-1.11647e-05
4.23786e-08
-1.37507e-06
-2.62978e-06
-3.74992e-06
-4.75421e-06
-5.65429e-06
-6.46413e-06
-7.20065e-06
-7.86782e-06
-8.4784e-06
-9.04453e-06
-9.57416e-06
-1.00587e-05
-1.04619e-05
-1.0705e-05
6.0961e-08
-1.35028e-06
-2.59961e-06
-3.71534e-06
-4.71597e-06
-5.61428e-06
-6.42133e-06
-7.1543e-06
-7.81834e-06
-8.42109e-06
-8.96931e-06
-9.4602e-06
-9.87282e-06
-1.01641e-05
-1.0273e-05
8.42663e-08
-1.31939e-06
-2.56196e-06
-3.67185e-06
-4.66719e-06
-5.56096e-06
-6.36371e-06
-7.08831e-06
-7.74189e-06
-8.32667e-06
-8.84298e-06
-9.28095e-06
-9.61731e-06
-9.81947e-06
-9.85671e-06
1.14664e-07
-1.27993e-06
-2.51407e-06
-3.61624e-06
-4.60397e-06
-5.48987e-06
-6.28393e-06
-6.99535e-06
-7.6298e-06
-8.18613e-06
-8.65975e-06
-9.03891e-06
-9.30581e-06
-9.44391e-06
-9.44609e-06
1.55683e-07
-1.22832e-06
-2.45203e-06
-3.54396e-06
-4.52094e-06
-5.39487e-06
-6.17444e-06
-6.86625e-06
-7.47298e-06
-7.99201e-06
-8.41712e-06
-8.73921e-06
-8.94927e-06
-9.04471e-06
-9.03171e-06
2.12012e-07
-1.15979e-06
-2.37063e-06
-3.44911e-06
-4.41124e-06
-5.26801e-06
-6.0267e-06
-6.69167e-06
-7.26322e-06
-7.73929e-06
-8.11525e-06
-8.38715e-06
-8.5544e-06
-8.62353e-06
-8.60639e-06
2.88893e-07
-1.06879e-06
-2.26373e-06
-3.32472e-06
-4.26699e-06
-5.10057e-06
-5.83157e-06
-6.4634e-06
-6.99449e-06
-7.42573e-06
-7.75605e-06
-7.98707e-06
-8.1243e-06
-8.17892e-06
-8.16421e-06
3.9107e-07
-9.4997e-07
-2.12517e-06
-3.16368e-06
-4.08028e-06
-4.88429e-06
-5.58112e-06
-6.17339e-06
-6.66359e-06
-7.05191e-06
-7.34283e-06
-7.54264e-06
-7.66036e-06
-7.7088e-06
-7.70062e-06
5.21749e-07
-7.99026e-07
-1.94984e-06
-2.96018e-06
-3.84487e-06
-4.61324e-06
-5.2712e-06
-5.82274e-06
-6.27186e-06
-6.62167e-06
-6.88071e-06
-7.05805e-06
-7.16436e-06
-7.21234e-06
-7.21322e-06
6.81934e-07
-6.13513e-07
-1.73426e-06
-2.71053e-06
-3.55761e-06
-4.28541e-06
-4.90142e-06
-5.41191e-06
-5.82363e-06
-6.14145e-06
-6.37649e-06
-6.53903e-06
-6.64016e-06
-6.69161e-06
-6.70308e-06
8.70419e-07
-3.93269e-07
-1.47723e-06
-2.41372e-06
-3.21901e-06
-3.90357e-06
-4.47684e-06
-4.94807e-06
-5.32609e-06
-5.6189e-06
-5.83753e-06
-5.99233e-06
-6.09348e-06
-6.15144e-06
-6.17467e-06
1.08447e-06
-1.40715e-07
-1.1819e-06
-2.07289e-06
-2.83289e-06
-3.47411e-06
-4.00722e-06
-4.44317e-06
-4.79355e-06
-5.06635e-06
-5.27441e-06
-5.42663e-06
-5.53141e-06
-5.59834e-06
-5.63453e-06
1.31783e-06
1.38107e-07
-8.55213e-07
-1.69577e-06
-2.40849e-06
-3.00784e-06
-3.50541e-06
-3.91137e-06
-4.23621e-06
-4.49868e-06
-4.70121e-06
-4.85607e-06
-4.96596e-06
-5.04339e-06
-5.09277e-06
1.56133e-06
4.33937e-07
-5.10011e-07
-1.29659e-06
-1.96236e-06
-2.52186e-06
-2.98882e-06
-3.37278e-06
-3.68613e-06
-3.93574e-06
-4.1424e-06
-4.29807e-06
-4.41524e-06
-4.50451e-06
-4.56426e-06
1.80321e-06
7.35239e-07
-1.49104e-07
-8.94673e-07
-1.51696e-06
-2.03897e-06
-2.47721e-06
-2.8393e-06
-3.15365e-06
-3.41464e-06
-3.62302e-06
-3.77918e-06
-3.89823e-06
-3.99168e-06
-4.07077e-06
2.0205e-06
1.01508e-06
1.78001e-07
-5.22338e-07
-1.10859e-06
-1.60477e-06
-2.02121e-06
-2.37424e-06
-2.67297e-06
-2.91886e-06
-3.12281e-06
-3.29036e-06
-3.42456e-06
-3.53872e-06
-3.63681e-06
2.18685e-06
1.24753e-06
4.61738e-07
-1.98774e-07
-7.55471e-07
-1.22757e-06
-1.62578e-06
-1.96552e-06
-2.25325e-06
-2.4987e-06
-2.7083e-06
-2.8883e-06
-3.04225e-06
-3.17472e-06
-3.2888e-06
2.28853e-06
1.41474e-06
6.77669e-07
5.28407e-08
-4.78047e-07
-9.31385e-07
-1.31854e-06
-1.65266e-06
-1.94119e-06
-2.19192e-06
-2.4106e-06
-2.60132e-06
-2.76737e-06
-2.91204e-06
-3.03865e-06
2.32645e-06
1.508e-06
8.11555e-07
2.16181e-07
-2.9571e-07
-7.37578e-07
-1.1242e-06
-1.45602e-06
-1.74787e-06
-2.0044e-06
-2.22998e-06
-2.4288e-06
-2.60433e-06
-2.75962e-06
-2.89749e-06
2.33209e-06
1.56213e-06
9.00633e-07
3.29501e-07
-1.66244e-07
-5.95878e-07
-9.78884e-07
-1.31267e-06
-1.60694e-06
-1.86749e-06
-2.09871e-06
-2.30437e-06
-2.48766e-06
-2.65121e-06
-2.79743e-06
2.33615e-06
1.60768e-06
9.74323e-07
4.20911e-07
-6.51064e-08
-4.9538e-07
-8.67628e-07
-1.20032e-06
-1.4969e-06
-1.76151e-06
-1.99816e-06
-2.21009e-06
-2.40006e-06
-2.57044e-06
-2.72344e-06
2.34768e-06
1.65455e-06
1.04539e-06
5.07784e-07
3.24576e-08
-3.89683e-07
-7.63957e-07
-1.09866e-06
-1.39857e-06
-1.66777e-06
-1.90979e-06
-2.1275e-06
-2.32346e-06
-2.49985e-06
-2.65874e-06
2.3696e-06
1.70717e-06
1.11893e-06
5.94929e-07
1.27659e-07
-2.90244e-07
-6.64861e-07
-1.00167e-06
-1.30517e-06
-1.579e-06
-1.82628e-06
-2.04962e-06
-2.25137e-06
-2.43352e-06
-2.59799e-06
2.40049e-06
1.76435e-06
1.19391e-06
6.8114e-07
2.20712e-07
-1.94588e-07
-5.69589e-07
-9.08825e-07
-1.21615e-06
-1.49475e-06
-1.74736e-06
-1.97636e-06
-2.18384e-06
-2.37165e-06
-2.54154e-06
2.43611e-06
1.82254e-06
1.26738e-06
7.63724e-07
3.0894e-07
-1.04607e-07
-4.80452e-07
-8.22374e-07
-1.13366e-06
-1.41704e-06
-1.67495e-06
-1.90947e-06
-2.12252e-06
-2.31578e-06
-2.49092e-06
2.47212e-06
1.87785e-06
1.33605e-06
8.42366e-07
3.90022e-07
-2.28191e-08
-3.99845e-07
-7.44526e-07
-1.05969e-06
-1.3477e-06
-1.61065e-06
-1.85042e-06
-2.06875e-06
-2.26719e-06
-2.4473e-06
2.5053e-06
1.92749e-06
1.39681e-06
9.09467e-07
4.61685e-07
4.91588e-08
-3.29163e-07
-6.76498e-07
-9.9532e-07
-1.28763e-06
-1.55528e-06
-1.79992e-06
-2.02313e-06
-2.22633e-06
-2.41102e-06
2.53388e-06
1.97022e-06
1.44901e-06
9.67831e-07
5.23016e-07
1.10756e-07
-2.68754e-07
-6.18519e-07
-9.40677e-07
-1.23691e-06
-1.50881e-06
-1.75785e-06
-1.98545e-06
-2.19294e-06
-2.38173e-06
2.55724e-06
2.00588e-06
1.49318e-06
1.01735e-06
5.73853e-07
1.62612e-07
-2.18079e-07
-5.70053e-07
-8.95196e-07
-1.19493e-06
-1.4706e-06
-1.72354e-06
-1.95502e-06
-2.16628e-06
-2.35865e-06
2.57558e-06
2.03493e-06
1.52967e-06
1.05818e-06
6.16124e-07
2.05419e-07
-1.7618e-07
-5.30133e-07
-8.5791e-07
-1.16073e-06
-1.4397e-06
-1.69605e-06
-1.9309e-06
-2.14542e-06
-2.34088e-06
2.58943e-06
2.05809e-06
1.55913e-06
1.09134e-06
6.51203e-07
2.4054e-07
-1.41992e-07
-4.97647e-07
-8.27717e-07
-1.13324e-06
-1.41506e-06
-1.67437e-06
-1.91212e-06
-2.12943e-06
-2.32751e-06
2.5995e-06
2.07626e-06
1.58274e-06
1.11797e-06
6.79881e-07
2.69333e-07
-1.14202e-07
-4.71388e-07
-8.03564e-07
-1.11138e-06
-1.39566e-06
-1.65753e-06
-1.89774e-06
-2.11744e-06
-2.31773e-06
2.60653e-06
2.09037e-06
1.60157e-06
1.13947e-06
7.02903e-07
2.92566e-07
-9.15822e-08
-4.50351e-07
-7.84325e-07
-1.09413e-06
-1.38061e-06
-1.64465e-06
-1.88696e-06
-2.10868e-06
-2.31082e-06
2.6112e-06
2.10121e-06
1.61649e-06
1.15673e-06
7.21388e-07
3.1123e-07
-7.35775e-08
-4.33561e-07
-7.69039e-07
-1.08071e-06
-1.3691e-06
-1.63492e-06
-1.87908e-06
-2.10249e-06
-2.30617e-06
2.61407e-06
2.10952e-06
1.62836e-06
1.17066e-06
7.36317e-07
3.26259e-07
-5.91473e-08
-4.2018e-07
-7.57036e-07
-1.07026e-06
-1.36028e-06
-1.6277e-06
-1.87347e-06
-2.09828e-06
-2.30329e-06
2.6156e-06
2.11612e-06
1.63824e-06
1.18243e-06
7.48962e-07
3.38951e-07
-4.7024e-08
-4.09054e-07
-7.47193e-07
-1.06185e-06
-1.35336e-06
-1.62227e-06
-1.86945e-06
-2.09555e-06
-2.30174e-06
2.61621e-06
2.12131e-06
1.64653e-06
1.19254e-06
7.59898e-07
3.49928e-07
-3.65868e-08
-3.99573e-07
-7.38933e-07
-1.05496e-06
-1.34788e-06
-1.61818e-06
-1.86665e-06
-2.09392e-06
-2.30112e-06
-1.39086e-05
-1.1468e-05
-9.97354e-06
-8.98108e-06
-8.18649e-06
-7.56981e-06
-7.07689e-06
-6.66753e-06
-6.31453e-06
-5.99568e-06
-5.69283e-06
-5.39178e-06
-5.08085e-06
-4.75191e-06
-4.40248e-06
-4.03768e-06
-3.67628e-06
-3.35675e-06
-3.13935e-06
-3.12923e-06
-3.44024e-06
-4.215e-06
-5.46854e-06
-6.86608e-06
-8.14713e-06
-9.19075e-06
-9.91756e-06
-1.02835e-05
-1.02589e-05
-9.82389e-06
-8.96838e-06
-7.69597e-06
-6.02737e-06
-4.00138e-06
-1.67342e-06
8.88047e-07
3.60537e-06
6.39485e-06
9.16681e-06
1.18221e-05
1.42371e-05
1.6257e-05
1.75599e-05
1.78921e-05
1.62394e-05
-1.21476e-05
-1.08908e-05
-9.76259e-06
-8.88028e-06
-8.13484e-06
-7.53398e-06
-7.04582e-06
-6.63748e-06
-6.28418e-06
-5.96461e-06
-5.66126e-06
-5.35947e-06
-5.04778e-06
-4.71826e-06
-4.36864e-06
-4.00425e-06
-3.64416e-06
-3.32674e-06
-3.1118e-06
-3.10365e-06
-3.41377e-06
-4.18266e-06
-5.42695e-06
-6.81389e-06
-8.08557e-06
-9.12315e-06
-9.84693e-06
-1.02123e-05
-1.01895e-05
-9.75891e-06
-8.9118e-06
-7.65361e-06
-6.00711e-06
-4.01345e-06
-1.73079e-06
7.68759e-07
3.40223e-06
6.07752e-06
8.69106e-06
1.11191e-05
1.3192e-05
1.46562e-05
1.50311e-05
1.36089e-05
9.3989e-06
-1.12229e-05
-1.04404e-05
-9.54125e-06
-8.75836e-06
-8.0677e-06
-7.48896e-06
-7.00911e-06
-6.60313e-06
-6.24995e-06
-5.92967e-06
-5.62527e-06
-5.32242e-06
-5.00978e-06
-4.67962e-06
-4.32993e-06
-3.96631e-06
-3.60814e-06
-3.29369e-06
-3.08221e-06
-3.07702e-06
-3.38668e-06
-4.14915e-06
-5.38266e-06
-6.75674e-06
-8.01665e-06
-9.0462e-06
-9.76554e-06
-1.01296e-05
-1.01086e-05
-9.68378e-06
-8.84808e-06
-7.60923e-06
-5.99275e-06
-4.04292e-06
-1.82163e-06
5.94118e-07
3.11446e-06
5.637e-06
8.04258e-06
1.0184e-05
1.18594e-05
1.27771e-05
1.24843e-05
1.04497e-05
6.47624e-06
-1.06207e-05
-1.00616e-05
-9.33992e-06
-8.63746e-06
-8.00044e-06
-7.44511e-06
-6.97407e-06
-6.56984e-06
-6.21584e-06
-5.89385e-06
-5.58752e-06
-5.28294e-06
-4.96892e-06
-4.63792e-06
-4.28821e-06
-3.92562e-06
-3.56986e-06
-3.25904e-06
-3.05173e-06
-3.05021e-06
-3.35981e-06
-4.1155e-06
-5.33723e-06
-6.69674e-06
-7.94265e-06
-8.96188e-06
-9.67444e-06
-1.0035e-05
-1.00141e-05
-9.5942e-06
-8.77057e-06
-7.554e-06
-5.97367e-06
-4.07801e-06
-1.93369e-06
3.7637e-07
2.75457e-06
5.08818e-06
7.24487e-06
9.06322e-06
1.03353e-05
1.07952e-05
1.01153e-05
8.02037e-06
4.68062e-06
-1.01393e-05
-9.71693e-06
-9.13606e-06
-8.52072e-06
-7.9351e-06
-7.40371e-06
-6.94212e-06
-6.53817e-06
-6.18191e-06
-5.85671e-06
-5.54717e-06
-5.23993e-06
-4.92403e-06
-4.5921e-06
-4.24271e-06
-3.88188e-06
-3.52959e-06
-3.22367e-06
-3.02185e-06
-3.02508e-06
-3.33508e-06
-4.0832e-06
-5.2913e-06
-6.63382e-06
-7.86302e-06
-8.86955e-06
-9.57343e-06
-9.92928e-06
-9.90839e-06
-9.49493e-06
-8.68692e-06
-7.49896e-06
-5.96453e-06
-4.13684e-06
-2.08785e-06
9.34163e-08
2.3023e-06
4.41825e-06
6.30222e-06
7.79259e-06
8.70096e-06
8.82256e-06
7.96797e-06
6.05557e-06
3.29258e-06
-9.71875e-06
-9.39016e-06
-8.91949e-06
-8.39411e-06
-7.86225e-06
-7.36025e-06
-6.91141e-06
-6.50749e-06
-6.14836e-06
-5.81857e-06
-5.50443e-06
-5.19347e-06
-4.8751e-06
-4.54221e-06
-4.19365e-06
-3.8356e-06
-3.48824e-06
-3.18897e-06
-2.99438e-06
-3.0038e-06
-3.31473e-06
-4.05427e-06
-5.24631e-06
-6.56868e-06
-7.77777e-06
-8.76878e-06
-9.4619e-06
-9.81209e-06
-9.79181e-06
-9.38738e-06
-8.60024e-06
-7.44929e-06
-5.97283e-06
-4.22913e-06
-2.29538e-06
-2.65883e-07
1.74978e-06
3.62788e-06
5.23136e-06
6.41236e-06
7.01834e-06
6.91495e-06
6.02039e-06
4.36434e-06
2.15375e-06
-9.32132e-06
-9.06302e-06
-8.68704e-06
-8.24086e-06
-7.76639e-06
-7.30654e-06
-6.87188e-06
-6.47398e-06
-6.11348e-06
-5.77876e-06
-5.45933e-06
-5.14397e-06
-4.82278e-06
-4.48907e-06
-4.14211e-06
-3.78816e-06
-3.44755e-06
-3.15708e-06
-2.97183e-06
-2.98912e-06
-3.30172e-06
-4.03141e-06
-5.20436e-06
-6.50278e-06
-7.68758e-06
-8.65968e-06
-9.33949e-06
-9.68285e-06
-9.66396e-06
-9.27185e-06
-8.51192e-06
-7.40782e-06
-6.00291e-06
-4.36038e-06
-2.5619e-06
-7.05191e-07
1.09876e-06
2.72898e-06
4.05897e-06
4.96413e-06
5.33584e-06
5.09914e-06
4.24211e-06
2.84087e-06
1.07282e-06
-8.92474e-06
-8.72053e-06
-8.42187e-06
-8.05175e-06
-7.64138e-06
-7.22315e-06
-6.814e-06
-6.42967e-06
-6.0711e-06
-5.73381e-06
-5.41019e-06
-5.09091e-06
-4.76735e-06
-4.43359e-06
-4.08951e-06
-3.74151e-06
-3.40998e-06
-3.13097e-06
-2.9576e-06
-2.98473e-06
-3.29979e-06
-4.0181e-06
-5.16824e-06
-6.43814e-06
-7.59355e-06
-8.5427e-06
-9.20621e-06
-9.54144e-06
-9.52508e-06
-9.14941e-06
-8.42425e-06
-7.37825e-06
-6.05971e-06
-4.53601e-06
-2.89168e-06
-1.22509e-06
3.55838e-07
1.73892e-06
2.815e-06
3.48781e-06
3.6871e-06
3.38321e-06
2.60115e-06
1.42642e-06
-1.38578e-09
-8.51767e-06
-8.35606e-06
-8.11973e-06
-7.81835e-06
-7.47108e-06
-7.10091e-06
-6.72645e-06
-6.36191e-06
-6.01239e-06
-5.67762e-06
-5.35316e-06
-5.03228e-06
-4.70826e-06
-4.37637e-06
-4.03741e-06
-3.69803e-06
-3.37864e-06
-3.11443e-06
-2.95595e-06
-2.99516e-06
-3.31356e-06
-4.01819e-06
-5.1412e-06
-6.37702e-06
-7.49699e-06
-8.4186e-06
-9.06232e-06
-9.38823e-06
-9.37615e-06
-9.02212e-06
-8.34066e-06
-7.36537e-06
-6.14878e-06
-4.76108e-06
-3.28728e-06
-1.82288e-06
-4.68274e-07
6.78004e-07
1.52759e-06
2.01167e-06
2.09085e-06
1.76331e-06
1.06905e-06
8.64159e-08
-1.07884e-06
-8.09332e-06
-7.96632e-06
-7.78032e-06
-7.53812e-06
-7.24986e-06
-6.93093e-06
-6.59677e-06
-6.25986e-06
-5.92752e-06
-5.60227e-06
-5.28262e-06
-4.96466e-06
-4.644e-06
-4.3175e-06
-3.98727e-06
-3.66032e-06
-3.35706e-06
-3.11174e-06
-2.97171e-06
-3.02547e-06
-3.34813e-06
-4.03704e-06
-5.12672e-06
-6.3214e-06
-7.39893e-06
-8.2887e-06
-8.90855e-06
-9.22403e-06
-9.21887e-06
-8.89295e-06
-8.26547e-06
-7.37442e-06
-6.27533e-06
-5.03911e-06
-3.74832e-06
-2.492e-06
-1.35929e-06
-4.32318e-07
2.21488e-07
5.56631e-07
5.55231e-07
2.29791e-07
-3.77405e-07
-1.20096e-06
-2.16211e-06
-7.64707e-06
-7.54925e-06
-7.4045e-06
-7.21246e-06
-6.97757e-06
-6.70913e-06
-6.41831e-06
-6.11543e-06
-5.80799e-06
-5.50007e-06
-5.19251e-06
-4.88394e-06
-4.57244e-06
-4.25664e-06
-3.94027e-06
-3.63085e-06
-3.34877e-06
-3.12721e-06
-3.00972e-06
-3.08061e-06
-3.40822e-06
-4.07859e-06
-5.12821e-06
-6.27287e-06
-7.29862e-06
-8.1538e-06
-8.74654e-06
-9.05048e-06
-9.05571e-06
-8.76563e-06
-8.20345e-06
-7.41044e-06
-6.44328e-06
-5.37103e-06
-4.27079e-06
-3.22204e-06
-2.30034e-06
-1.57095e-06
-1.08275e-06
-8.63593e-07
-9.18047e-07
-1.22826e-06
-1.75598e-06
-2.44944e-06
-3.2504e-06
-7.17661e-06
-7.10429e-06
-6.99423e-06
-6.84481e-06
-6.65725e-06
-6.43651e-06
-6.18991e-06
-5.92522e-06
-5.64902e-06
-5.36592e-06
-5.07827e-06
-4.78673e-06
-4.49162e-06
-4.19337e-06
-3.89739e-06
-3.61179e-06
-3.35682e-06
-3.16445e-06
-3.07395e-06
-3.16444e-06
-3.49722e-06
-4.14566e-06
-5.1473e-06
-6.23474e-06
-7.19869e-06
-8.00805e-06
-8.57604e-06
-8.8699e-06
-8.89006e-06
-8.64436e-06
-8.15921e-06
-7.47728e-06
-6.65406e-06
-5.75411e-06
-4.84638e-06
-3.99877e-06
-3.27263e-06
-2.71767e-06
-2.3679e-06
-2.23966e-06
-2.3294e-06
-2.61956e-06
-3.07834e-06
-3.66628e-06
-4.34054e-06
-6.68293e-06
-6.63352e-06
-6.55341e-06
-6.44066e-06
-6.29486e-06
-6.1182e-06
-5.91504e-06
-5.69074e-06
-5.4505e-06
-5.19871e-06
-4.93847e-06
-4.67185e-06
-4.401e-06
-4.12796e-06
-3.8597e-06
-3.6049e-06
-3.3834e-06
-3.22576e-06
-3.16669e-06
-3.27867e-06
-3.61607e-06
-4.23958e-06
-5.18013e-06
-6.20566e-06
-7.11555e-06
-7.85159e-06
-8.38657e-06
-8.6812e-06
-8.72447e-06
-8.53253e-06
-8.13569e-06
-7.57596e-06
-6.90503e-06
-6.18061e-06
-5.46176e-06
-4.80408e-06
-4.25541e-06
-3.85232e-06
-3.61788e-06
-3.56093e-06
-3.67674e-06
-3.9476e-06
-4.34928e-06
-4.85272e-06
-5.4265e-06
-6.17066e-06
-6.14228e-06
-6.08872e-06
-6.00812e-06
-5.89937e-06
-5.7631e-06
-5.60163e-06
-5.41841e-06
-5.21722e-06
-5.00183e-06
-4.77554e-06
-4.54119e-06
-4.3023e-06
-4.06215e-06
-3.82895e-06
-3.61189e-06
-3.42992e-06
-3.31173e-06
-3.28788e-06
-3.42216e-06
-3.76272e-06
-4.35641e-06
-5.22675e-06
-6.17843e-06
-7.02547e-06
-7.69336e-06
-8.18967e-06
-8.48903e-06
-8.56236e-06
-8.43244e-06
-8.13287e-06
-7.70287e-06
-7.18775e-06
-6.63658e-06
-6.09787e-06
-5.61544e-06
-5.22539e-06
-4.95402e-06
-4.81692e-06
-4.8188e-06
-4.95496e-06
-5.2103e-06
-5.5672e-06
-6.00402e-06
-6.49834e-06
-5.64684e-06
-5.63857e-06
-5.60937e-06
-5.55773e-06
-5.48241e-06
-5.38328e-06
-5.26143e-06
-5.11895e-06
-4.95848e-06
-4.78307e-06
-4.59585e-06
-4.4e-06
-4.19981e-06
-3.99948e-06
-3.80778e-06
-3.63445e-06
-3.49698e-06
-3.42173e-06
-3.43488e-06
-3.59066e-06
-3.93168e-06
-4.48961e-06
-5.28332e-06
-6.14996e-06
-6.91651e-06
-7.53082e-06
-8.00406e-06
-8.29915e-06
-8.4073e-06
-8.3457e-06
-8.14807e-06
-7.84974e-06
-7.48796e-06
-7.10202e-06
-6.73018e-06
-6.40598e-06
-6.15591e-06
-5.99859e-06
-5.94454e-06
-5.99649e-06
-6.15026e-06
-6.39698e-06
-6.72107e-06
-7.1077e-06
-7.54104e-06
-5.12189e-06
-5.13382e-06
-5.12795e-06
-5.10313e-06
-5.05854e-06
-4.99396e-06
-4.90975e-06
-4.80709e-06
-4.68782e-06
-4.55435e-06
-4.40959e-06
-4.25669e-06
-4.10026e-06
-3.94504e-06
-3.79975e-06
-3.6742e-06
-3.5839e-06
-3.55288e-06
-3.60251e-06
-3.77644e-06
-4.11219e-06
-4.63115e-06
-5.34187e-06
-6.11167e-06
-6.79799e-06
-7.36037e-06
-7.80434e-06
-8.10672e-06
-8.25692e-06
-8.26873e-06
-8.17372e-06
-8.00319e-06
-7.78642e-06
-7.55289e-06
-7.33124e-06
-7.14653e-06
-7.01841e-06
-6.96016e-06
-6.97898e-06
-7.07656e-06
-7.2499e-06
-7.49239e-06
-7.79498e-06
-8.14648e-06
-8.53532e-06
-4.61087e-06
-4.64408e-06
-4.66137e-06
-4.66196e-06
-4.64598e-06
-4.61366e-06
-4.56503e-06
-4.50066e-06
-4.42188e-06
-4.33071e-06
-4.22976e-06
-4.12204e-06
-4.01195e-06
-3.90447e-06
-3.80805e-06
-3.73187e-06
-3.68866e-06
-3.69921e-06
-3.78143e-06
-3.96861e-06
-4.29334e-06
-4.76908e-06
-5.39124e-06
-6.05928e-06
-6.6682e-06
-7.18258e-06
-7.60024e-06
-7.90894e-06
-8.10491e-06
-8.19197e-06
-8.19607e-06
-8.14432e-06
-8.05947e-06
-7.96247e-06
-7.8731e-06
-7.80865e-06
-7.78507e-06
-7.81298e-06
-7.89694e-06
-8.03767e-06
-8.23312e-06
-8.47913e-06
-8.76994e-06
-9.09859e-06
-9.45743e-06
-4.13627e-06
-4.18998e-06
-4.22949e-06
-4.25418e-06
-4.26513e-06
-4.26291e-06
-4.2475e-06
-4.21917e-06
-4.179e-06
-4.12871e-06
-4.07069e-06
-4.00779e-06
-3.94395e-06
-3.88412e-06
-3.83449e-06
-3.80458e-06
-3.8046e-06
-3.85107e-06
-3.96018e-06
-4.15433e-06
-4.46009e-06
-4.88647e-06
-5.4188e-06
-5.98799e-06
-6.52393e-06
-6.99331e-06
-7.38882e-06
-7.70945e-06
-7.94257e-06
-8.09974e-06
-8.1954e-06
-8.24958e-06
-8.2802e-06
-8.30208e-06
-8.32874e-06
-8.36782e-06
-8.43271e-06
-8.53728e-06
-8.68155e-06
-8.86448e-06
-9.08522e-06
-9.34191e-06
-9.63144e-06
-9.94964e-06
-1.02915e-05
-3.72153e-06
-3.79402e-06
-3.85381e-06
-3.90139e-06
-3.9376e-06
-3.96288e-06
-3.9774e-06
-3.98158e-06
-3.97643e-06
-3.96344e-06
-3.94466e-06
-3.92265e-06
-3.90078e-06
-3.8834e-06
-3.876e-06
-3.88615e-06
-3.9224e-06
-3.99694e-06
-4.12301e-06
-4.31518e-06
-4.59301e-06
-4.96535e-06
-5.41446e-06
-5.89402e-06
-6.3602e-06
-6.78431e-06
-7.15733e-06
-7.47926e-06
-7.74938e-06
-7.96803e-06
-8.14415e-06
-8.28965e-06
-8.41721e-06
-8.53685e-06
-8.65705e-06
-8.78663e-06
-8.93689e-06
-9.11321e-06
-9.3147e-06
-9.54042e-06
-9.79065e-06
-1.00658e-05
-1.0365e-05
-1.06855e-05
-1.10238e-05
-3.3887e-06
-3.47745e-06
-3.55565e-06
-3.6236e-06
-3.68177e-06
-3.7306e-06
-3.77049e-06
-3.80203e-06
-3.82618e-06
-3.84432e-06
-3.85821e-06
-3.87004e-06
-3.8826e-06
-3.89956e-06
-3.92532e-06
-3.96565e-06
-4.02727e-06
-4.1185e-06
-4.2494e-06
-4.42998e-06
-4.67359e-06
-4.99048e-06
-5.36693e-06
-5.76872e-06
-6.1701e-06
-6.55268e-06
-6.90745e-06
-7.23096e-06
-7.52255e-06
-7.78489e-06
-8.02122e-06
-8.23772e-06
-8.44227e-06
-8.64244e-06
-8.84464e-06
-9.05428e-06
-9.27548e-06
-9.51076e-06
-9.7622e-06
-1.0031e-05
-1.0317e-05
-1.06197e-05
-1.09391e-05
-1.12742e-05
-1.1623e-05
-3.15195e-06
-3.2552e-06
-3.34887e-06
-3.43305e-06
-3.50816e-06
-3.57481e-06
-3.63368e-06
-3.68544e-06
-3.73089e-06
-3.77116e-06
-3.80781e-06
-3.84275e-06
-3.87828e-06
-3.91727e-06
-3.96315e-06
-4.02018e-06
-4.09343e-06
-4.18891e-06
-4.31409e-06
-4.47671e-06
-4.68684e-06
-4.95413e-06
-5.26949e-06
-5.60839e-06
-5.95717e-06
-6.3046e-06
-6.64071e-06
-6.96086e-06
-7.26735e-06
-7.56022e-06
-7.84175e-06
-8.11299e-06
-8.37783e-06
-8.64114e-06
-8.90681e-06
-9.17761e-06
-9.45571e-06
-9.74334e-06
-1.00423e-05
-1.03535e-05
-1.06774e-05
-1.10136e-05
-1.13605e-05
-1.17174e-05
-1.20847e-05
-3.0219e-06
-3.13569e-06
-3.23959e-06
-3.33402e-06
-3.41952e-06
-3.49672e-06
-3.56633e-06
-3.62911e-06
-3.68594e-06
-3.73789e-06
-3.78631e-06
-3.83283e-06
-3.8794e-06
-3.92833e-06
-3.98238e-06
-4.04487e-06
-4.11977e-06
-4.212e-06
-4.32727e-06
-4.47209e-06
-4.65468e-06
-4.8844e-06
-5.15601e-06
-5.45021e-06
-5.75764e-06
-6.07246e-06
-6.38892e-06
-6.70523e-06
-7.01994e-06
-7.33267e-06
-7.64058e-06
-7.94515e-06
-8.24869e-06
-8.55359e-06
-8.86219e-06
-9.17621e-06
-9.49703e-06
-9.82593e-06
-1.01636e-05
-1.05108e-05
-1.08676e-05
-1.1234e-05
-1.16107e-05
-1.19973e-05
-1.23908e-05
-2.92991e-06
-3.05131e-06
-3.16238e-06
-3.26361e-06
-3.35564e-06
-3.43924e-06
-3.51516e-06
-3.58418e-06
-3.64711e-06
-3.70501e-06
-3.75916e-06
-3.8111e-06
-3.86257e-06
-3.91562e-06
-3.97263e-06
-4.03646e-06
-4.11053e-06
-4.19897e-06
-4.30666e-06
-4.43956e-06
-4.60463e-06
-4.80998e-06
-5.05263e-06
-5.31852e-06
-5.60116e-06
-5.89706e-06
-6.20184e-06
-6.51246e-06
-6.82687e-06
-7.14455e-06
-7.46484e-06
-7.78793e-06
-8.11459e-06
-8.44596e-06
-8.78319e-06
-9.12716e-06
-9.47852e-06
-9.83785e-06
-1.02056e-05
-1.05823e-05
-1.09681e-05
-1.1363e-05
-1.17668e-05
-1.21785e-05
-1.25973e-05
-2.86229e-06
-2.9894e-06
-3.10561e-06
-3.21152e-06
-3.30788e-06
-3.39543e-06
-3.47495e-06
-3.54726e-06
-3.6133e-06
-3.6742e-06
-3.73124e-06
-3.78586e-06
-3.83972e-06
-3.89473e-06
-3.95311e-06
-4.01747e-06
-4.0909e-06
-4.17706e-06
-4.28034e-06
-4.40599e-06
-4.56017e-06
-4.75014e-06
-4.97454e-06
-5.22219e-06
-5.48733e-06
-5.76744e-06
-6.05992e-06
-6.36279e-06
-6.67454e-06
-6.99452e-06
-7.32162e-06
-7.65574e-06
-7.99704e-06
-8.34585e-06
-8.70258e-06
-9.06759e-06
-9.44114e-06
-9.82351e-06
-1.02149e-05
-1.06154e-05
-1.10248e-05
-1.14429e-05
-1.18692e-05
-1.23033e-05
-1.27444e-05
-2.80305e-06
-2.935e-06
-3.05544e-06
-3.16507e-06
-3.26467e-06
-3.35508e-06
-3.43716e-06
-3.51184e-06
-3.58016e-06
-3.64324e-06
-3.70239e-06
-3.75904e-06
-3.81485e-06
-3.87167e-06
-3.93162e-06
-3.99716e-06
-4.07114e-06
-4.15692e-06
-4.25848e-06
-4.38049e-06
-4.52851e-06
-4.709e-06
-4.92094e-06
-5.155e-06
-5.40698e-06
-5.67565e-06
-5.95947e-06
-6.25655e-06
-6.56538e-06
-6.88518e-06
-7.21542e-06
-7.55572e-06
-7.90586e-06
-8.26577e-06
-8.63547e-06
-9.01501e-06
-9.40441e-06
-9.80365e-06
-1.02126e-05
-1.06311e-05
-1.10588e-05
-1.14954e-05
-1.19405e-05
-1.23934e-05
-1.28535e-05
-2.74745e-06
-2.88391e-06
-3.00829e-06
-3.12136e-06
-3.22402e-06
-3.31718e-06
-3.40177e-06
-3.47879e-06
-3.54934e-06
-3.61461e-06
-3.67594e-06
-3.73483e-06
-3.79292e-06
-3.85203e-06
-3.91422e-06
-3.98182e-06
-4.05752e-06
-4.14443e-06
-4.24618e-06
-4.36696e-06
-4.51175e-06
-4.68613e-06
-4.88931e-06
-5.114e-06
-5.35712e-06
-5.61772e-06
-5.89446e-06
-6.18599e-06
-6.49114e-06
-6.80948e-06
-7.14052e-06
-7.48376e-06
-7.83883e-06
-8.20548e-06
-8.58355e-06
-8.97289e-06
-9.37332e-06
-9.7846e-06
-1.02065e-05
-1.06386e-05
-1.10806e-05
-1.1532e-05
-1.19922e-05
-1.24606e-05
-1.29364e-05
-2.69599e-06
-2.83688e-06
-2.96516e-06
-3.08173e-06
-3.18753e-06
-3.28354e-06
-3.37076e-06
-3.45026e-06
-3.52322e-06
-3.59092e-06
-3.65475e-06
-3.71621e-06
-3.77696e-06
-3.83879e-06
-3.90374e-06
-3.97402e-06
-4.0522e-06
-4.14115e-06
-4.24422e-06
-4.36516e-06
-4.50842e-06
-4.67896e-06
-4.87616e-06
-5.09415e-06
-5.3305e-06
-5.58448e-06
-5.85469e-06
-6.14114e-06
-6.4426e-06
-6.75878e-06
-7.08912e-06
-7.43319e-06
-7.79062e-06
-8.16111e-06
-8.54439e-06
-8.94018e-06
-9.34818e-06
-9.76806e-06
-1.01994e-05
-1.06419e-05
-1.10949e-05
-1.15578e-05
-1.20301e-05
-1.2511e-05
-1.29996e-05
-2.65022e-06
-2.79543e-06
-2.92758e-06
-3.04763e-06
-3.1566e-06
-3.2555e-06
-3.34543e-06
-3.42753e-06
-3.50305e-06
-3.57333e-06
-3.63979e-06
-3.70398e-06
-3.76756e-06
-3.83232e-06
-3.90023e-06
-3.97345e-06
-4.05442e-06
-4.14578e-06
-4.25066e-06
-4.37242e-06
-4.51511e-06
-4.68307e-06
-4.87572e-06
-5.08828e-06
-5.31895e-06
-5.56731e-06
-5.8326e-06
-6.1139e-06
-6.41159e-06
-6.72501e-06
-7.0537e-06
-7.3973e-06
-7.75547e-06
-8.12788e-06
-8.51423e-06
-8.91416e-06
-9.32731e-06
-9.75328e-06
-1.01916e-05
-1.06418e-05
-1.11032e-05
-1.15752e-05
-1.2057e-05
-1.25479e-05
-1.3047e-05
-2.61119e-06
-2.76052e-06
-2.89636e-06
-3.01976e-06
-3.13178e-06
-3.2335e-06
-3.32607e-06
-3.41071e-06
-3.48874e-06
-3.56154e-06
-3.63059e-06
-3.69745e-06
-3.76379e-06
-3.83139e-06
-3.9022e-06
-3.97828e-06
-4.06197e-06
-4.15573e-06
-4.26247e-06
-4.38521e-06
-4.52763e-06
-4.69353e-06
-4.88233e-06
-5.09028e-06
-5.31605e-06
-5.55937e-06
-5.81982e-06
-6.09706e-06
-6.39104e-06
-6.70146e-06
-7.028e-06
-7.37037e-06
-7.72827e-06
-8.10138e-06
-8.48939e-06
-8.89191e-06
-9.30855e-06
-9.73886e-06
-1.01823e-05
-1.06384e-05
-1.11063e-05
-1.15855e-05
-1.20751e-05
-1.25742e-05
-1.30819e-05
-2.57913e-06
-2.73224e-06
-2.87149e-06
-2.99797e-06
-3.11279e-06
-3.21708e-06
-3.31207e-06
-3.39904e-06
-3.47936e-06
-3.55446e-06
-3.62586e-06
-3.69514e-06
-3.76398e-06
-3.83416e-06
-3.90758e-06
-3.98624e-06
-4.07236e-06
-4.16826e-06
-4.27665e-06
-4.40021e-06
-4.54237e-06
-4.70638e-06
-4.89176e-06
-5.09567e-06
-5.31712e-06
-5.55594e-06
-5.81196e-06
-6.0854e-06
-6.37585e-06
-6.68326e-06
-7.00745e-06
-7.3482e-06
-7.70527e-06
-8.07836e-06
-8.46716e-06
-8.87129e-06
-9.29033e-06
-9.72381e-06
-1.01712e-05
-1.06318e-05
-1.11051e-05
-1.15901e-05
-1.20862e-05
-1.25922e-05
-1.31073e-05
-2.5536e-06
-2.71008e-06
-2.85235e-06
-2.98154e-06
-3.09879e-06
-3.20533e-06
-3.3024e-06
-3.39138e-06
-3.47367e-06
-3.55074e-06
-3.62415e-06
-3.69551e-06
-3.76649e-06
-3.83887e-06
-3.91451e-06
-3.99535e-06
-4.08351e-06
-4.18119e-06
-4.29088e-06
-4.41503e-06
-4.55679e-06
-4.71898e-06
-4.9012e-06
-5.10144e-06
-5.31897e-06
-5.55381e-06
-5.80628e-06
-6.07572e-06
-6.36281e-06
-6.66733e-06
-6.98916e-06
-7.32816e-06
-7.68413e-06
-8.05681e-06
-8.44591e-06
-8.85105e-06
-9.27183e-06
-9.70775e-06
-1.01582e-05
-1.06227e-05
-1.11003e-05
-1.15904e-05
-1.20919e-05
-1.2604e-05
-1.31256e-05
-2.5338e-06
-2.6932e-06
-2.83805e-06
-2.96953e-06
-3.08883e-06
-3.19722e-06
-3.29602e-06
-3.38663e-06
-3.47052e-06
-3.5492e-06
-3.62424e-06
-3.69729e-06
-3.77002e-06
-3.84419e-06
-3.92163e-06
-4.00424e-06
-4.09405e-06
-4.19311e-06
-4.30377e-06
-4.42824e-06
-4.56945e-06
-4.72981e-06
-4.90909e-06
-5.10596e-06
-5.31991e-06
-5.55113e-06
-5.79993e-06
-6.06615e-06
-6.35016e-06
-6.65197e-06
-6.97155e-06
-7.30881e-06
-7.6636e-06
-8.03571e-06
-8.42486e-06
-8.8307e-06
-9.25281e-06
-9.69071e-06
-1.01438e-05
-1.06115e-05
-1.10929e-05
-1.15873e-05
-1.20938e-05
-1.26113e-05
-1.31387e-05
-2.51883e-06
-2.68069e-06
-2.82769e-06
-2.96105e-06
-3.08201e-06
-3.19187e-06
-3.29202e-06
-3.38391e-06
-3.46904e-06
-3.54896e-06
-3.62528e-06
-3.69964e-06
-3.77374e-06
-3.84932e-06
-3.92818e-06
-4.01217e-06
-4.10324e-06
-4.20333e-06
-4.31466e-06
-4.43921e-06
-4.57972e-06
-4.73825e-06
-4.91477e-06
-5.10854e-06
-5.31922e-06
-5.54715e-06
-5.79267e-06
-6.0559e-06
-6.33711e-06
-6.63645e-06
-6.95394e-06
-7.28956e-06
-7.64321e-06
-8.0147e-06
-8.40379e-06
-8.81015e-06
-9.23337e-06
-9.67296e-06
-1.01283e-05
-1.05988e-05
-1.10837e-05
-1.1582e-05
-1.20929e-05
-1.26153e-05
-1.3148e-05
-2.50782e-06
-2.67172e-06
-2.82048e-06
-2.95534e-06
-3.07759e-06
-3.18858e-06
-3.28976e-06
-3.38259e-06
-3.46864e-06
-3.54947e-06
-3.62673e-06
-3.70208e-06
-3.77721e-06
-3.85385e-06
-3.9338e-06
-4.01883e-06
-4.11083e-06
-4.21166e-06
-4.32339e-06
-4.44783e-06
-4.58753e-06
-4.74425e-06
-4.91819e-06
-5.10909e-06
-5.31679e-06
-5.54172e-06
-5.78431e-06
-6.04479e-06
-6.32348e-06
-6.62057e-06
-6.93616e-06
-7.27028e-06
-7.62287e-06
-7.99378e-06
-8.38278e-06
-8.78957e-06
-9.21376e-06
-9.65485e-06
-1.01123e-05
-1.05853e-05
-1.10732e-05
-1.15752e-05
-1.20901e-05
-1.26169e-05
-1.31544e-05
-2.50001e-06
-2.66558e-06
-2.81575e-06
-2.95178e-06
-3.07501e-06
-3.18684e-06
-3.28874e-06
-3.38225e-06
-3.46893e-06
-3.55041e-06
-3.62833e-06
-3.70438e-06
-3.78025e-06
-3.85768e-06
-3.93842e-06
-4.02421e-06
-4.11688e-06
-4.2182e-06
-4.33011e-06
-4.4543e-06
-4.59312e-06
-4.74808e-06
-4.9196e-06
-5.10785e-06
-5.31283e-06
-5.53504e-06
-5.77498e-06
-6.03299e-06
-6.3094e-06
-6.60447e-06
-6.91835e-06
-7.25111e-06
-7.60274e-06
-7.97312e-06
-8.36204e-06
-8.76921e-06
-9.19428e-06
-9.63673e-06
-1.0096e-05
-1.05714e-05
-1.10621e-05
-1.15673e-05
-1.20859e-05
-1.26168e-05
-1.31588e-05
-2.49473e-06
-2.66166e-06
-2.81294e-06
-2.94987e-06
-3.07382e-06
-3.18624e-06
-3.28864e-06
-3.38258e-06
-3.46967e-06
-3.55156e-06
-3.62993e-06
-3.70645e-06
-3.78284e-06
-3.86082e-06
-3.94211e-06
-4.02844e-06
-4.12156e-06
-4.22317e-06
-4.33511e-06
-4.45895e-06
-4.59686e-06
-4.75013e-06
-4.91939e-06
-5.10521e-06
-5.30771e-06
-5.52746e-06
-5.76502e-06
-6.02078e-06
-6.29514e-06
-6.5884e-06
-6.90075e-06
-7.23231e-06
-7.58307e-06
-7.95298e-06
-8.34183e-06
-8.74935e-06
-9.17523e-06
-9.61893e-06
-1.00799e-05
-1.05574e-05
-1.10507e-05
-1.15589e-05
-1.20809e-05
-1.26155e-05
-1.31616e-05
-2.49143e-06
-2.65945e-06
-2.8116e-06
-2.9492e-06
-3.07366e-06
-3.18648e-06
-3.28918e-06
-3.38338e-06
-3.47071e-06
-3.55284e-06
-3.63146e-06
-3.70828e-06
-3.785e-06
-3.86334e-06
-3.94501e-06
-4.03169e-06
-4.12509e-06
-4.22685e-06
-4.33871e-06
-4.46212e-06
-4.59912e-06
-4.7508e-06
-4.91797e-06
-5.10156e-06
-5.30182e-06
-5.51936e-06
-5.75479e-06
-6.00855e-06
-6.28109e-06
-6.57273e-06
-6.88371e-06
-7.21419e-06
-7.5642e-06
-7.93368e-06
-8.32248e-06
-8.73032e-06
-9.15695e-06
-9.60179e-06
-1.00643e-05
-1.05438e-05
-1.10394e-05
-1.15503e-05
-1.20753e-05
-1.26134e-05
-1.31632e-05
-2.48965e-06
-2.65855e-06
-2.81137e-06
-2.94947e-06
-3.07429e-06
-3.18734e-06
-3.29021e-06
-3.38453e-06