/*--------------------------------*- C++ -*----------------------------------*\
| =========                 |                                                 |
| \\      /  F ield         | OpenFOAM: The Open Source CFD Toolbox           |
|  \\    /   O peration     | Version:  2312                                  |
|   \\  /    A nd           | Website:  www.openfoam.com                      |
|    \\/     M anipulation  |                                                 |
\*---------------------------------------------------------------------------*/
FoamFile
{
    version     2.0;
    format      ascii;
    arch        "LSB;label=32;scalar=64";
    class       surfaceScalarField;
    location    "36.25";
    object      phi;
}
// * * * * * * * * * * * * * * * * * * * * * * * * * * * * * * * * * * * * * //

dimensions      [0 3 -1 0 0 0 0];

oriented        oriented;

internalField   nonuniform List<scalar> 
9445
(
6.21828e-10
9.08802e-12
6.16722e-10
5.10515e-12
6.14049e-10
2.67342e-12
6.13065e-10
9.83646e-13
6.13398e-10
-3.33185e-13
6.1491e-10
-1.51116e-12
6.17486e-10
-2.5768e-12
6.21131e-10
-3.64439e-12
6.26133e-10
-5.00233e-12
6.32936e-10
-6.80255e-12
6.42712e-10
-9.7765e-12
6.59199e-10
-1.64865e-11
6.95741e-10
-3.65422e-11
8.00146e-10
-1.04406e-10
-2.73328e-10
1.07347e-09
2.17142e-09
4.12082e-11
2.15243e-09
2.41004e-11
2.14161e-09
1.34924e-11
2.13651e-09
6.076e-12
2.13591e-09
2.75213e-13
2.13915e-09
-4.7534e-12
2.14586e-09
-9.29322e-12
2.15613e-09
-1.39129e-11
2.17064e-09
-1.95108e-11
2.19069e-09
-2.68539e-11
2.21929e-09
-3.83764e-11
2.26369e-09
-6.08864e-11
2.33808e-09
-1.10929e-10
2.45653e-09
-2.22853e-10
-3.98801e-10
2.582e-09
4.28457e-09
1.04388e-10
4.24585e-09
6.28224e-11
4.22256e-09
3.67774e-11
4.21015e-09
1.84873e-11
4.20629e-09
4.13123e-12
4.20952e-09
-7.97709e-12
4.2191e-09
-1.88741e-11
4.23513e-09
-2.99388e-11
4.2584e-09
-4.27841e-11
4.29047e-09
-5.89282e-11
4.33441e-09
-8.23096e-11
4.39509e-09
-1.21569e-10
4.47541e-09
-1.91255e-10
4.56077e-09
-3.08205e-10
-4.4957e-10
4.61153e-09
7.11279e-09
2.07338e-10
7.04758e-09
1.28027e-10
7.0065e-09
7.78577e-11
6.98255e-09
4.24434e-11
6.972e-09
1.46719e-11
6.9724e-09
-8.37504e-12
6.98247e-09
-2.89445e-11
7.00186e-09
-4.93277e-11
7.0312e-09
-7.21195e-11
7.07127e-09
-9.90014e-11
7.12337e-09
-1.34412e-10
7.18722e-09
-1.85415e-10
7.25591e-09
-2.59945e-10
7.3079e-09
-3.60197e-10
-4.60054e-10
7.31839e-09
1.08373e-08
3.57808e-10
1.07389e-08
2.26428e-10
1.06742e-08
1.42502e-10
1.06338e-08
8.289e-11
1.06121e-08
3.64006e-11
1.06058e-08
-2.15079e-12
1.06128e-08
-3.59504e-11
1.06317e-08
-6.82069e-11
1.06624e-08
-1.02815e-10
1.07043e-08
-1.40867e-10
1.07559e-08
-1.8606e-10
1.08126e-08
-2.42128e-10
1.08633e-08
-3.10655e-10
1.08898e-08
-3.86692e-10
-4.50868e-10
1.08807e-08
1.56689e-08
5.59257e-10
1.55327e-08
3.62557e-10
1.54397e-08
2.35493e-10
1.53781e-08
1.44546e-10
1.53406e-08
7.38437e-11
1.5323e-08
1.54571e-11
1.53222e-08
-3.51118e-11
1.53357e-08
-8.17663e-11
1.53617e-08
-1.28784e-10
1.5398e-08
-1.77191e-10
1.54409e-08
-2.28905e-10
1.54833e-08
-2.84568e-10
1.55148e-08
-3.42104e-10
1.55235e-08
-3.95439e-10
-4.3357e-10
1.55062e-08
2.18437e-08
8.05322e-10
2.16713e-08
5.34976e-10
2.15488e-08
3.57927e-10
2.14634e-08
2.29942e-10
2.14069e-08
1.30336e-10
2.13739e-08
4.85009e-11
2.13604e-08
-2.15668e-11
2.13629e-08
-8.43063e-11
2.13779e-08
-1.43761e-10
2.14016e-08
-2.00891e-10
2.14288e-08
-2.56092e-10
2.14525e-08
-3.08293e-10
2.1465e-08
-3.54631e-10
2.14604e-08
-3.90873e-10
-4.12241e-10
2.14391e-08
2.96135e-08
1.07256e-09
2.94176e-08
7.30856e-10
2.92725e-08
5.03068e-10
2.91663e-08
3.36167e-10
2.90911e-08
2.05502e-10
2.90411e-08
9.84457e-11
2.90118e-08
7.7436e-12
2.89989e-08
-7.13449e-11
2.89977e-08
-1.42538e-10
2.90033e-08
-2.06561e-10
2.90104e-08
-2.63209e-10
2.90134e-08
-3.11257e-10
2.90076e-08
-3.48849e-10
2.8991e-08
-3.74233e-10
-3.86339e-10
2.89651e-08
3.92333e-08
1.3149e-09
3.90434e-08
9.20718e-10
3.88947e-08
6.51718e-10
3.878e-08
4.50877e-10
3.86937e-08
2.91861e-10
3.86308e-08
1.6133e-10
3.8587e-08
5.15319e-11
3.85577e-08
-4.20117e-11
3.85383e-08
-1.23143e-10
3.85239e-08
-1.92157e-10
3.85099e-08
-2.49205e-10
3.84925e-08
-2.93915e-10
3.84697e-08
-3.26006e-10
3.84412e-08
-3.45738e-10
-3.53981e-10
3.84088e-08
5.09584e-08
1.46792e-09
5.08205e-08
1.05855e-09
5.07017e-08
7.70564e-10
5.06027e-08
5.49908e-10
5.05224e-08
3.72166e-10
5.04585e-08
2.25172e-10
5.04082e-08
1.01799e-10
5.03679e-08
-1.6861e-12
5.03338e-08
-8.89812e-11
5.03023e-08
-1.60746e-10
5.02705e-08
-2.17387e-10
5.02365e-08
-2.59837e-10
5.01996e-08
-2.89146e-10
5.01607e-08
-3.06825e-10
-3.14615e-10
5.01213e-08
6.50763e-08
1.47256e-09
6.50396e-08
1.09522e-09
6.49905e-08
8.19702e-10
6.4939e-08
6.01362e-10
6.48898e-08
4.21369e-10
6.48444e-08
2.70553e-10
6.48027e-08
1.43525e-10
6.47636e-08
3.74016e-11
6.47245e-08
-4.98734e-11
6.46849e-08
-1.21125e-10
6.46434e-08
-1.75901e-10
6.45999e-08
-2.163e-10
6.45549e-08
-2.44169e-10
6.45096e-08
-2.61571e-10
-2.70502e-10
6.44655e-08
8.19877e-08
1.31322e-09
8.20768e-08
1.00619e-09
8.21236e-08
7.72879e-10
8.21445e-08
5.8047e-10
8.21485e-08
4.1737e-10
8.21409e-08
2.78165e-10
8.21245e-08
1.59884e-10
8.21011e-08
6.08512e-11
8.20709e-08
-1.96709e-11
8.20354e-08
-8.56094e-11
8.19955e-08
-1.3601e-10
8.19524e-08
-1.73224e-10
8.19076e-08
-1.99356e-10
8.18625e-08
-2.16536e-10
-2.26624e-10
8.18187e-08
1.02291e-07
1.03571e-09
1.02485e-07
8.1277e-10
1.02619e-07
6.38503e-10
1.02711e-07
4.88654e-10
1.02771e-07
3.5723e-10
1.02807e-07
2.42428e-10
1.02823e-07
1.43654e-10
1.02824e-07
6.03007e-11
1.02812e-07
-7.85039e-12
1.0279e-07
-6.33984e-11
1.0276e-07
-1.0672e-10
1.02726e-07
-1.3882e-10
1.02688e-07
-1.61941e-10
1.0265e-07
-1.77881e-10
-1.88159e-10
1.02611e-07
1.26753e-07
7.15038e-10
1.26995e-07
5.70838e-10
1.27176e-07
4.56952e-10
1.2731e-07
3.54601e-10
1.27406e-07
2.6109e-10
1.27472e-07
1.77139e-10
1.27512e-07
1.03637e-10
1.27531e-07
4.07224e-11
1.27534e-07
-1.11984e-11
1.27526e-07
-5.45961e-11
1.27507e-07
-8.8512e-11
1.27483e-07
-1.14194e-10
1.27454e-07
-1.33127e-10
1.27423e-07
-1.4673e-10
-1.56119e-10
1.27391e-07
1.56109e-07
4.0286e-10
1.56351e-07
3.28896e-10
1.56537e-07
2.71213e-10
1.56677e-07
2.14221e-10
1.5678e-07
1.58107e-10
1.56852e-07
1.05204e-10
1.56898e-07
5.74982e-11
1.56923e-07
1.545e-11
1.56932e-07
-1.96897e-11
1.56928e-07
-5.06859e-11
1.56914e-07
-7.48529e-11
1.56894e-07
-9.35224e-11
1.56868e-07
-1.07838e-10
1.5684e-07
-1.18496e-10
-1.26313e-10
1.5681e-07
1.90851e-07
1.18216e-10
1.91072e-07
1.07545e-10
1.91242e-07
1.01739e-10
1.91368e-07
8.77045e-11
1.9146e-07
6.66242e-11
1.91523e-07
4.23982e-11
1.91561e-07
1.91242e-11
1.9158e-07
-3.155e-12
1.91585e-07
-2.46982e-11
1.91577e-07
-4.31183e-11
1.91561e-07
-5.83081e-11
1.91537e-07
-6.95066e-11
1.91508e-07
-7.96694e-11
1.91477e-07
-8.69681e-11
-9.32131e-11
1.91444e-07
2.31093e-07
-1.35007e-10
2.31286e-07
-8.52058e-11
2.31433e-07
-4.50135e-11
2.31541e-07
-2.05143e-11
2.31616e-07
-8.32569e-12
2.31665e-07
-6.70667e-12
2.31691e-07
-7.25598e-12
2.31701e-07
-1.25782e-11
2.31696e-07
-1.98559e-11
2.3168e-07
-2.67849e-11
2.31655e-07
-3.37461e-11
2.31625e-07
-3.921e-11
2.3159e-07
-4.49007e-11
2.31552e-07
-4.91168e-11
-5.25469e-11
2.31512e-07
2.76382e-07
-3.51253e-10
2.76542e-07
-2.4521e-10
2.76662e-07
-1.65337e-10
2.76747e-07
-1.04803e-10
2.76801e-07
-6.25183e-11
2.76831e-07
-3.70916e-11
2.76844e-07
-1.95459e-11
2.76842e-07
-1.07075e-11
2.76827e-07
-5.54188e-12
2.76805e-07
-4.04301e-12
2.76774e-07
-3.27511e-12
2.76738e-07
-2.83819e-12
2.76695e-07
-2.02658e-12
2.76647e-07
-1.41428e-12
-1.31576e-12
2.76596e-07
3.25204e-07
-5.11937e-10
3.25324e-07
-3.65131e-10
3.25411e-07
-2.52087e-10
3.25474e-07
-1.67352e-10
3.25513e-07
-1.01437e-10
3.25531e-07
-5.5341e-11
3.25534e-07
-2.23341e-11
3.25521e-07
1.3926e-12
3.25497e-07
1.8739e-11
3.25462e-07
3.07428e-11
3.25419e-07
3.9938e-11
3.2537e-07
4.67018e-11
3.25315e-07
5.2253e-11
3.25257e-07
5.66843e-11
6.05006e-11
3.25195e-07
3.7435e-07
-6.38573e-10
3.74449e-07
-4.64166e-10
3.74525e-07
-3.27741e-10
3.74579e-07
-2.21265e-10
3.74613e-07
-1.35984e-10
3.74633e-07
-7.48971e-11
3.74634e-07
-2.35067e-11
3.74621e-07
1.47279e-11
3.74596e-07
4.34225e-11
3.74561e-07
6.57196e-11
3.74518e-07
8.32959e-11
3.74467e-07
9.74967e-11
3.7441e-07
1.09545e-10
3.74346e-07
1.20179e-10
1.2977e-10
3.74277e-07
3.71884e-07
-6.77712e-10
3.71917e-07
-4.97691e-10
3.71942e-07
-3.52824e-10
3.71956e-07
-2.35088e-10
3.71962e-07
-1.42353e-10
3.71959e-07
-7.17873e-11
3.71945e-07
-8.84827e-12
3.7192e-07
3.94013e-11
3.71886e-07
7.71007e-11
3.71844e-07
1.0765e-10
3.71795e-07
1.32972e-10
3.71738e-07
1.54497e-10
3.71674e-07
1.73295e-10
3.71604e-07
1.90094e-10
2.05185e-10
3.71529e-07
3.18227e-07
-6.55944e-10
3.1821e-07
-4.81142e-10
3.18196e-07
-3.39296e-10
3.18185e-07
-2.24077e-10
3.18174e-07
-1.31291e-10
3.18159e-07
-5.60319e-11
3.18143e-07
6.74033e-12
3.18125e-07
5.77363e-11
3.18102e-07
9.99821e-11
3.18074e-07
1.35714e-10
3.1804e-07
1.66467e-10
3.18001e-07
1.93374e-10
3.17957e-07
2.17307e-10
3.17909e-07
2.38932e-10
2.58728e-10
3.17855e-07
2.66541e-07
-5.90738e-10
2.66491e-07
-4.31136e-10
2.66452e-07
-2.99883e-10
2.66419e-07
-1.90898e-10
2.66391e-07
-1.03657e-10
2.66365e-07
-2.98873e-11
2.66338e-07
3.34853e-11
2.66311e-07
8.52189e-11
2.66281e-07
1.2948e-10
2.66249e-07
1.67786e-10
2.66214e-07
2.0142e-10
2.66176e-07
2.31341e-10
2.66135e-07
2.58302e-10
2.66091e-07
2.82893e-10
3.05525e-10
2.66044e-07
2.19428e-07
-4.97601e-10
2.19355e-07
-3.57863e-10
2.19297e-07
-2.42143e-10
2.19251e-07
-1.45066e-10
2.19213e-07
-6.50853e-11
2.19178e-07
4.48621e-12
2.19149e-07
6.30719e-11
2.19121e-07
1.13285e-10
2.19093e-07
1.56961e-10
2.19065e-07
1.95429e-10
2.19037e-07
2.297e-10
2.19008e-07
2.60562e-10
2.18978e-07
2.88625e-10
2.18946e-07
3.14354e-10
3.38087e-10
2.18914e-07
1.78008e-07
-3.91073e-10
1.77926e-07
-2.752e-10
1.77861e-07
-1.77735e-10
1.77811e-07
-9.49409e-11
1.77771e-07
-2.46836e-11
1.77739e-07
3.61287e-11
1.77713e-07
8.87831e-11
1.77692e-07
1.34828e-10
1.77673e-07
1.75528e-10
1.77657e-07
2.11883e-10
1.77642e-07
2.44652e-10
1.77628e-07
2.74422e-10
1.77615e-07
3.01641e-10
1.77603e-07
3.2665e-10
3.49706e-10
1.77591e-07
1.42565e-07
-2.90492e-10
1.42489e-07
-1.98785e-10
1.42431e-07
-1.20278e-10
1.42389e-07
-5.26963e-11
1.42359e-07
5.80998e-12
1.42338e-07
5.71098e-11
1.42324e-07
1.02373e-10
1.42316e-07
1.42608e-10
1.42313e-07
1.78681e-10
1.42314e-07
2.1128e-10
1.42318e-07
2.40928e-10
1.42324e-07
2.6803e-10
1.42333e-07
2.92896e-10
1.42344e-07
3.15759e-10
3.36793e-10
1.42356e-07
1.12899e-07
-2.09445e-10
1.1284e-07
-1.39834e-10
1.12798e-07
-7.91199e-11
1.12772e-07
-2.60182e-11
1.12757e-07
2.07533e-11
1.12751e-07
6.25665e-11
1.12754e-07
1.00028e-10
1.12762e-07
1.33815e-10
1.12777e-07
1.64487e-10
1.12795e-07
1.92483e-10
1.12818e-07
2.1814e-10
1.12845e-07
2.41719e-10
1.12874e-07
2.63413e-10
1.12906e-07
2.83366e-10
3.01679e-10
1.12942e-07
8.85068e-08
-1.52091e-10
8.84679e-08
-1.00946e-10
8.84447e-08
-5.58486e-11
8.8434e-08
-1.53138e-11
8.84339e-08
2.07631e-11
8.84426e-08
5.39014e-11
8.84587e-08
8.39528e-11
8.84811e-08
1.1141e-10
8.85089e-08
1.36627e-10
8.85416e-08
1.59866e-10
8.85784e-08
1.81325e-10
8.86189e-08
2.0115e-10
8.86629e-08
2.1945e-10
8.871e-08
2.36299e-10
2.51749e-10
8.87599e-08
6.87285e-08
-1.14858e-10
6.8706e-08
-7.84061e-11
6.86961e-08
-4.59296e-11
6.86971e-08
-1.63332e-11
6.87068e-08
1.10522e-11
6.8724e-08
3.66548e-11
6.87479e-08
6.0106e-11
6.87775e-08
8.17954e-11
6.88122e-08
1.01954e-10
6.88513e-08
1.2072e-10
6.88944e-08
1.38192e-10
6.89412e-08
1.54438e-10
6.89911e-08
1.69507e-10
6.9044e-08
1.83425e-10
1.96213e-10
6.90995e-08
5.28594e-08
-9.12764e-11
5.28469e-08
-6.59284e-11
5.28442e-08
-4.32784e-11
5.28504e-08
-2.24921e-11
5.28638e-08
-2.36433e-12
5.28833e-08
1.7129e-11
5.29085e-08
3.49558e-11
5.29386e-08
5.16463e-11
5.29732e-08
6.73552e-11
5.30118e-08
8.2145e-11
5.30539e-08
9.60474e-11
5.30993e-08
1.09083e-10
5.31475e-08
1.2126e-10
5.31984e-08
1.32577e-10
1.43035e-10
5.32516e-08
4.02317e-08
-7.51774e-11
4.02239e-08
-5.80863e-11
4.02232e-08
-4.261e-11
4.02291e-08
-2.84124e-11
4.02411e-08
-1.43793e-11
4.02583e-08
-8.34608e-15
4.02799e-08
1.33022e-11
4.03057e-08
2.58388e-11
4.03353e-08
3.77763e-11
4.03683e-08
4.91526e-11
4.04044e-08
5.99651e-11
4.04433e-08
7.02079e-11
4.04847e-08
7.98672e-11
4.05283e-08
8.89268e-11
9.73753e-11
4.0574e-08
3.02543e-08
-6.22602e-11
3.02474e-08
-5.11183e-11
3.02457e-08
-4.09102e-11
3.02486e-08
-3.14107e-11
3.02564e-08
-2.21128e-11
3.02684e-08
-1.20579e-11
3.02841e-08
-2.322e-12
3.0303e-08
6.8505e-12
3.03251e-08
1.56723e-11
3.03501e-08
2.41837e-11
3.03777e-08
3.23716e-11
3.04077e-08
4.02219e-11
3.04399e-08
4.77077e-11
3.0474e-08
5.48099e-11
6.15101e-11
3.05098e-08
2.24234e-08
-5.03057e-11
2.24157e-08
-4.33635e-11
2.24117e-08
-3.69788e-11
2.24112e-08
-3.0911e-11
2.2414e-08
-2.48471e-11
2.24201e-08
-1.82148e-11
2.24293e-08
-1.14602e-11
2.24411e-08
-4.93224e-12
2.24553e-08
1.37754e-12
2.2472e-08
7.53256e-12
2.24908e-08
1.35251e-11
2.25117e-08
1.93482e-11
2.25345e-08
2.49668e-11
2.25589e-08
3.03677e-11
3.5528e-11
2.25849e-08
1.63189e-08
-3.87211e-11
1.63102e-08
-3.46643e-11
1.63041e-08
-3.09145e-11
1.63005e-08
-2.72943e-11
1.62992e-08
-2.35364e-11
1.63003e-08
-1.92962e-11
1.63037e-08
-1.48418e-11
1.63092e-08
-1.04964e-11
1.63168e-08
-6.15921e-12
1.63262e-08
-1.89486e-12
1.63374e-08
2.29931e-12
1.63503e-08
6.43389e-12
1.63648e-08
1.04676e-11
1.63808e-08
1.44001e-11
1.82061e-11
1.63981e-08
1.15945e-08
-2.77997e-11
1.15855e-08
-2.56423e-11
1.15782e-08
-2.36143e-11
1.15725e-08
-2.16122e-11
1.15684e-08
-1.94485e-11
1.1566e-08
-1.69044e-11
1.15653e-08
-1.41483e-11
1.15663e-08
-1.14061e-11
1.15687e-08
-8.61217e-12
1.15727e-08
-5.85908e-12
1.15781e-08
-3.08717e-12
1.15848e-08
-3.20766e-13
1.15929e-08
2.40176e-12
1.16022e-08
5.09639e-12
7.73676e-12
1.16127e-08
7.96727e-09
-1.81357e-11
7.95877e-09
-1.71477e-11
7.95132e-09
-1.61641e-11
7.94488e-09
-1.51656e-11
7.93947e-09
-1.40392e-11
7.93521e-09
-1.26435e-11
7.93214e-09
-1.10803e-11
7.93022e-09
-9.49062e-12
7.92946e-09
-7.85283e-12
7.92981e-09
-6.20935e-12
7.93125e-09
-4.52799e-12
7.93377e-09
-2.84064e-12
7.93733e-09
-1.1554e-12
7.94189e-09
5.37631e-13
2.21637e-12
7.94741e-09
5.20736e-09
-1.02811e-11
5.20015e-09
-9.94011e-12
5.19352e-09
-9.53004e-12
5.18745e-09
-9.10124e-12
5.18201e-09
-8.59791e-12
5.1773e-09
-7.93184e-12
5.17337e-09
-7.15477e-12
5.17023e-09
-6.34809e-12
5.16788e-09
-5.50381e-12
5.16632e-09
-4.64635e-12
5.16555e-09
-3.75812e-12
5.16556e-09
-2.85143e-12
5.16634e-09
-1.93834e-12
5.16789e-09
-1.01088e-12
-7.62174e-14
5.17018e-09
3.12939e-09
-4.58989e-12
3.12399e-09
-4.54386e-12
3.11887e-09
-4.40747e-12
3.11403e-09
-4.26283e-12
3.10952e-09
-4.09047e-12
3.10543e-09
-3.84183e-12
3.10181e-09
-3.53603e-12
3.09868e-09
-3.21282e-12
3.09604e-09
-2.86784e-12
3.09391e-09
-2.51398e-12
3.09229e-09
-2.14206e-12
3.0912e-09
-1.7565e-12
3.09063e-09
-1.36636e-12
3.09058e-09
-9.64273e-13
-5.48982e-13
3.09105e-09
1.58461e-09
-1.18768e-12
1.58129e-09
-1.22093e-12
1.57807e-09
-1.18948e-12
1.57497e-09
-1.15939e-12
1.572e-09
-1.1273e-12
1.56924e-09
-1.07528e-12
1.56671e-09
-1.00613e-12
1.56443e-09
-9.31995e-13
1.56241e-09
-8.50428e-13
1.56066e-09
-7.66221e-13
1.5592e-09
-6.76024e-13
1.55802e-09
-5.8102e-13
1.55714e-09
-4.84659e-13
1.55656e-09
-3.83254e-13
-2.74205e-13
1.55628e-09
4.54349e-10
4.53128e-10
4.51938e-10
4.50779e-10
4.49652e-10
4.48576e-10
4.4757e-10
4.46638e-10
4.45788e-10
4.45022e-10
4.44346e-10
4.43765e-10
4.4328e-10
4.42897e-10
4.42622e-10
1.28277e-09
-5.37495e-10
3.28199e-10
1.58132e-09
-4.82276e-10
1.8373e-10
1.88105e-09
-3.6366e-10
6.39227e-11
2.17478e-09
-2.4929e-10
-4.44414e-11
2.46e-09
-1.46714e-10
-1.38507e-10
2.73711e-09
-6.59621e-11
-2.1114e-10
3.00718e-09
-9.92505e-12
-2.6015e-10
3.27124e-09
1.90984e-11
-2.83155e-10
3.53014e-09
1.96133e-11
-2.7852e-10
3.78462e-09
-9.24162e-12
-2.45232e-10
4.03523e-09
-6.76374e-11
-1.82975e-10
4.28239e-09
-1.54373e-10
-9.2787e-11
4.52639e-09
-2.65908e-10
2.19091e-11
4.76753e-09
-3.94369e-10
1.53226e-10
5.0064e-09
-5.24711e-10
2.85841e-10
5.24434e-09
-6.31019e-10
3.93078e-10
5.48406e-09
-6.70991e-10
4.31268e-10
5.7307e-09
-5.83927e-10
3.37288e-10
5.99229e-09
-2.85473e-10
2.38901e-11
6.28079e-09
3.22552e-10
-6.11059e-10
6.61031e-09
1.31426e-09
-1.64378e-09
6.99111e-09
2.73429e-09
-3.11509e-09
7.36016e-09
3.69108e-09
-4.06013e-09
7.6804e-09
3.86391e-09
-4.18415e-09
7.94258e-09
3.56427e-09
-3.82645e-09
8.14348e-09
2.95768e-09
-3.15858e-09
8.28397e-09
2.16472e-09
-2.30521e-09
8.36588e-09
1.27529e-09
-1.3572e-09
8.3905e-09
3.5718e-10
-3.81803e-10
8.3586e-09
-5.34041e-10
5.65946e-10
8.27097e-09
-1.34961e-09
1.43724e-09
8.12911e-09
-2.04732e-09
2.18917e-09
7.93561e-09
-2.59352e-09
2.78703e-09
7.69404e-09
-2.96528e-09
3.20685e-09
7.40866e-09
-3.15106e-09
3.43643e-09
7.08382e-09
-3.14957e-09
3.47442e-09
6.72346e-09
-2.96712e-09
3.32748e-09
6.33094e-09
-2.61353e-09
3.00605e-09
5.90936e-09
-2.09717e-09
2.51875e-09
5.46185e-09
-1.42024e-09
1.86775e-09
4.99014e-09
-5.80819e-10
1.05252e-09
4.48945e-09
4.07918e-10
9.27755e-11
3.94777e-09
1.45839e-09
-9.16717e-10
3.37515e-09
2.34967e-09
-1.77705e-09
2.44178e-09
3.044e-09
-2.11063e-09
2.66434e-09
-6.19836e-10
2.83947e-09
-6.57403e-10
3.07715e-09
-6.01337e-10
3.34191e-09
-5.14055e-10
3.61799e-09
-4.22795e-10
3.89708e-09
-3.45046e-10
4.17543e-09
-2.88277e-10
4.45145e-09
-2.56919e-10
4.72443e-09
-2.53367e-10
4.99412e-09
-2.7894e-10
5.26051e-09
-3.34019e-10
5.52358e-09
-4.17446e-10
5.78335e-09
-5.25675e-10
6.03991e-09
-6.5093e-10
6.29371e-09
-7.78515e-10
6.54607e-09
-8.83379e-10
6.7998e-09
-9.24721e-10
7.06038e-09
-8.4451e-10
7.33652e-09
-5.61611e-10
7.64134e-09
1.77357e-11
7.9907e-09
9.64898e-10
8.39686e-09
2.32812e-09
8.79402e-09
3.29393e-09
9.14255e-09
3.51539e-09
9.43161e-09
3.2752e-09
9.65655e-09
2.73274e-09
9.81729e-09
2.00398e-09
9.91508e-09
1.17751e-09
9.95088e-09
3.21377e-10
9.92539e-09
-5.08557e-10
9.83962e-09
-1.26384e-09
9.69553e-09
-1.90322e-09
9.49641e-09
-2.3944e-09
9.24687e-09
-2.71574e-09
8.95251e-09
-2.8567e-09
8.6195e-09
-2.81657e-09
8.25426e-09
-2.60188e-09
7.86368e-09
-2.22295e-09
7.45635e-09
-1.68984e-09
7.04485e-09
-1.00873e-09
6.64845e-09
-1.84417e-10
6.29433e-09
7.62035e-10
6.01951e-09
1.73321e-09
5.88094e-09
2.48824e-09
2.50987e-09
5.81285e-09
4.62571e-09
-6.34015e-10
4.70201e-09
-7.337e-10
4.85049e-09
-7.49817e-10
5.05449e-09
-7.18056e-10
5.29189e-09
-6.6019e-10
5.54871e-09
-6.01869e-10
5.81596e-09
-5.5553e-10
6.08842e-09
-5.29377e-10
6.36282e-09
-5.27771e-10
6.6372e-09
-5.53318e-10
6.91034e-09
-6.07153e-10
7.1814e-09
-6.88511e-10
7.4498e-09
-7.94073e-10
7.71519e-09
-9.16325e-10
7.97773e-09
-1.04105e-09
8.23854e-09
-1.14419e-09
8.50044e-09
-1.18663e-09
8.76921e-09
-1.11327e-09
9.05417e-09
-8.4657e-10
9.3696e-09
-2.97695e-10
9.73332e-09
6.0117e-10
1.01599e-08
1.90156e-09
1.05817e-08
2.87212e-09
1.09568e-08
3.14032e-09
1.12724e-08
2.95957e-09
1.1522e-08
2.48312e-09
1.17043e-08
1.82171e-09
1.18196e-08
1.06218e-09
1.18685e-08
2.72499e-10
1.18515e-08
-4.9158e-10
1.17699e-08
-1.18225e-09
1.16263e-08
-1.75956e-09
1.14247e-08
-2.19287e-09
1.11712e-08
-2.46224e-09
1.08731e-08
-2.55852e-09
1.05386e-08
-2.4821e-09
1.01773e-08
-2.2406e-09
9.80037e-09
-1.84601e-09
9.42252e-09
-1.31198e-09
9.06569e-09
-6.51905e-10
8.76369e-09
1.17587e-10
8.56322e-09
9.62502e-10
8.51093e-09
1.78549e-09
8.61331e-09
2.38586e-09
2.42169e-09
8.70149e-09
7.29544e-09
-6.11069e-10
7.30452e-09
-7.42785e-10
7.36778e-09
-8.1307e-10
7.49055e-09
-8.40828e-10
7.6637e-09
-8.33344e-10
7.87196e-09
-8.1013e-10
8.10383e-09
-7.87393e-10
8.35136e-09
-7.76907e-10
8.60859e-09
-7.84999e-10
8.8714e-09
-8.16129e-10
9.13693e-09
-8.72685e-10
9.4031e-09
-9.54685e-10
9.66838e-09
-1.05935e-09
9.9317e-09
-1.17965e-09
1.01927e-08
-1.30202e-09
1.04521e-08
-1.40363e-09
1.07127e-08
-1.44719e-09
1.09803e-08
-1.3809e-09
1.12649e-08
-1.13119e-09
1.15819e-08
-6.14686e-10
1.19512e-08
2.31842e-10
1.239e-08
1.46283e-09
1.28302e-08
2.4319e-09
1.32279e-08
2.74261e-09
1.35681e-08
2.61936e-09
1.38418e-08
2.2094e-09
1.4046e-08
1.61749e-09
1.418e-08
9.28222e-10
1.42436e-08
2.08932e-10
1.42372e-08
-4.8517e-10
1.41623e-08
-1.10739e-09
1.40222e-08
-1.61948e-09
1.38223e-08
-1.99291e-09
1.35698e-08
-2.20979e-09
1.32742e-08
-2.26286e-09
1.29463e-08
-2.1542e-09
1.25989e-08
-1.89327e-09
1.22477e-08
-1.49473e-09
1.19126e-08
-9.76914e-10
1.1622e-08
-3.61317e-10
1.14154e-08
3.24219e-10
1.13415e-08
1.0364e-09
1.14357e-08
1.69132e-09
1.16734e-08
2.14815e-09
2.22716e-09
1.18679e-08
1.08418e-08
-5.72253e-10
1.08087e-08
-7.09688e-10
1.08089e-08
-8.13253e-10
1.08533e-08
-8.8522e-10
1.09459e-08
-9.25955e-10
1.10849e-08
-9.49084e-10
1.12572e-08
-9.59739e-10
1.14557e-08
-9.75367e-10
1.16727e-08
-1.002e-09
1.19025e-08
-1.04593e-09
1.21406e-08
-1.11081e-09
1.23836e-08
-1.19762e-09
1.26286e-08
-1.30439e-09
1.28737e-08
-1.42479e-09
1.31179e-08
-1.54614e-09
1.33612e-08
-1.64701e-09
1.36062e-08
-1.69217e-09
1.38588e-08
-1.63352e-09
1.41295e-08
-1.40184e-09
1.44346e-08
-9.19763e-10
1.47963e-08
-1.29936e-10
1.52346e-08
1.02458e-09
1.56831e-08
1.98342e-09
1.60963e-08
2.32935e-09
1.64566e-08
2.2591e-09
1.67518e-08
1.91418e-09
1.69768e-08
1.39245e-09
1.71295e-08
7.75609e-10
1.72086e-08
1.29754e-10
1.72145e-08
-4.91071e-10
1.7149e-08
-1.04183e-09
1.7016e-08
-1.48652e-09
1.68223e-08
-1.79913e-09
1.65767e-08
-1.96429e-09
1.62909e-08
-1.97706e-09
1.59785e-08
-1.84172e-09
1.56553e-08
-1.5701e-09
1.53405e-08
-1.17998e-09
1.50578e-08
-6.94155e-10
1.48369e-08
-1.40494e-10
1.47147e-08
4.46462e-10
1.47293e-08
1.02175e-09
1.4899e-08
1.52171e-09
1.51859e-08
1.86119e-09
1.95645e-09
1.54566e-08
1.5464e-08
-5.30069e-10
1.54112e-08
-6.56801e-10
1.53702e-08
-7.7225e-10
1.53554e-08
-8.70427e-10
1.5375e-08
-9.45603e-10
1.54344e-08
-1.0085e-09
1.55314e-08
-1.05668e-09
1.56602e-08
-1.10421e-09
1.58141e-08
-1.15585e-09
1.59873e-08
-1.21917e-09
1.61746e-08
-1.29815e-09
1.63716e-08
-1.39456e-09
1.65744e-08
-1.50718e-09
1.67801e-08
-1.63049e-09
1.69867e-08
-1.7528e-09
1.7194e-08
-1.85431e-09
1.74039e-08
-1.90204e-09
1.76223e-08
-1.85195e-09
1.78601e-08
-1.63964e-09
1.81346e-08
-1.19418e-09
1.84704e-08
-4.65748e-10
1.88901e-08
6.04828e-10
1.93318e-08
1.5417e-09
1.97494e-08
1.91177e-09
2.01217e-08
1.88679e-09
2.0433e-08
1.60297e-09
2.06753e-08
1.15008e-09
2.08447e-08
6.06196e-10
2.09391e-08
3.5421e-11
2.09581e-08
-5.10108e-10
2.0904e-08
-9.87688e-10
2.07815e-08
-1.3641e-09
2.05987e-08
-1.61634e-09
2.03665e-08
-1.732e-09
2.00982e-08
-1.70881e-09
1.981e-08
-1.55354e-09
1.95205e-08
-1.28053e-09
1.92508e-08
-9.10274e-10
1.90253e-08
-4.68664e-10
1.88714e-08
1.34142e-11
1.88172e-08
5.00616e-10
1.88862e-08
9.52708e-10
1.90822e-08
1.32575e-09
1.93691e-08
1.57433e-09
1.66572e-09
1.96598e-08
2.13983e-08
-4.89299e-10
2.13412e-08
-5.99608e-10
2.12801e-08
-7.11165e-10
2.12267e-08
-8.17099e-10
2.11935e-08
-9.12381e-10
2.11849e-08
-9.99832e-10
2.12056e-08
-1.07747e-09
2.12552e-08
-1.15379e-09
2.13309e-08
-1.23157e-09
2.14285e-08
-1.31668e-09
2.15433e-08
-1.41297e-09
2.1671e-08
-1.52227e-09
2.18075e-08
-1.64372e-09
2.19495e-08
-1.77244e-09
2.20943e-08
-1.89761e-09
2.22412e-08
-2.00123e-09
2.23917e-08
-2.05257e-09
2.25519e-08
-2.01211e-09
2.27328e-08
-1.82057e-09
2.29524e-08
-1.4138e-09
2.32382e-08
-7.5154e-10
2.36155e-08
2.27518e-10
2.40298e-08
1.1274e-09
2.44355e-08
1.50612e-09
2.48074e-08
1.51488e-09
2.51251e-08
1.28521e-09
2.5378e-08
8.9724e-10
2.55595e-08
4.24645e-10
2.56663e-08
-7.13485e-11
2.56976e-08
-5.41376e-10
2.56557e-08
-9.45806e-10
2.55464e-08
-1.25482e-09
2.53789e-08
-1.44889e-09
2.51658e-08
-1.51887e-09
2.49224e-08
-1.46538e-09
2.46665e-08
-1.29765e-09
2.44181e-08
-1.0321e-09
2.41987e-08
-6.90939e-10
2.4031e-08
-3.00951e-10
2.39367e-08
1.07738e-10
2.39341e-08
5.03181e-10
2.40331e-08
8.53745e-10
2.42277e-08
1.13114e-09
2.44884e-08
1.31367e-09
1.39198e-09
2.47621e-08
2.89249e-08
-4.49143e-10
2.88685e-08
-5.43211e-10
2.88011e-08
-6.4372e-10
2.87299e-08
-7.45911e-10
2.86636e-08
-8.46043e-10
2.86073e-08
-9.4353e-10
2.85676e-08
-1.03778e-09
2.85459e-08
-1.13212e-09
2.85432e-08
-1.22889e-09
2.85581e-08
-1.3316e-09
2.85882e-08
-1.44299e-09
2.86302e-08
-1.56427e-09
2.86808e-08
-1.69438e-09
2.8737e-08
-1.82863e-09
2.87963e-08
-1.95689e-09
2.88579e-08
-2.06285e-09
2.89232e-08
-2.1179e-09
2.89986e-08
-2.08745e-09
2.90955e-08
-1.9175e-09
2.92325e-08
-1.55073e-09
2.94397e-08
-9.58835e-10
2.97455e-08
-7.82208e-11
3.01062e-08
7.66638e-10
3.04784e-08
1.13399e-09
3.08324e-08
1.16088e-09
3.11425e-08
9.75118e-10
3.13946e-08
6.45114e-10
3.15798e-08
2.394e-10
3.16931e-08
-1.84621e-10
3.17331e-08
-5.81323e-10
3.17022e-08
-9.1493e-10
3.1607e-08
-1.15961e-09
3.14578e-08
-1.2997e-09
3.12684e-08
-1.32952e-09
3.10555e-08
-1.25248e-09
3.08378e-08
-1.0799e-09
3.06351e-08
-8.29437e-10
3.04676e-08
-5.2346e-10
3.03541e-08
-1.87437e-10
3.03099e-08
1.5193e-10
3.03445e-08
4.68635e-10
3.04583e-08
7.39959e-10
3.06406e-08
9.48832e-10
3.08683e-08
1.08597e-09
1.15139e-09
3.11089e-08
3.83662e-08
-4.06489e-10
3.83094e-08
-4.86459e-10
3.824e-08
-5.7433e-10
3.81614e-08
-6.67329e-10
3.80783e-08
-7.62892e-10
3.79946e-08
-8.59871e-10
3.79148e-08
-9.57946e-10
3.7841e-08
-1.05833e-09
3.77749e-08
-1.16282e-09
3.77168e-08
-1.27343e-09
3.76657e-08
-1.39188e-09
3.762e-08
-1.51861e-09
3.75777e-08
-1.65211e-09
3.75367e-08
-1.78765e-09
3.74953e-08
-1.91546e-09
3.74534e-08
-2.02093e-09
3.74127e-08
-2.07719e-09
3.73802e-08
-2.05496e-09
3.73682e-08
-1.90551e-09
3.73955e-08
-1.57805e-09
3.74954e-08
-1.05873e-09
3.76987e-08
-2.81513e-10
3.79768e-08
4.88566e-10
3.82898e-08
8.20996e-10
3.86036e-08
8.47005e-10
3.8887e-08
6.918e-10
3.91225e-08
4.09571e-10
3.92986e-08
6.32852e-11
3.94085e-08
-2.9452e-10
3.94501e-08
-6.22941e-10
3.9426e-08
-8.90807e-10
3.93432e-08
-1.07677e-09
3.92128e-08
-1.1693e-09
3.90494e-08
-1.16609e-09
3.88699e-08
-1.07306e-09
3.86929e-08
-9.02867e-10
3.85367e-08
-6.73286e-10
3.84186e-08
-4.05345e-10
3.83527e-08
-1.21487e-10
3.83481e-08
1.56486e-10
3.84081e-08
4.08687e-10
3.85279e-08
6.20112e-10
3.86958e-08
7.80968e-10
3.88938e-08
8.87963e-10
9.44035e-10
3.91011e-08
5.00742e-08
-3.59355e-10
5.00149e-08
-4.27218e-10
4.99434e-08
-5.02831e-10
4.98609e-08
-5.84746e-10
4.97693e-08
-6.71349e-10
4.9671e-08
-7.61599e-10
4.95682e-08
-8.55105e-10
4.94622e-08
-9.52323e-10
4.93537e-08
-1.05437e-09
4.92428e-08
-1.16247e-09
4.91286e-08
-1.2777e-09
4.901e-08
-1.39995e-09
4.88853e-08
-1.52748e-09
4.87533e-08
-1.65562e-09
4.86129e-08
-1.77503e-09
4.84648e-08
-1.87291e-09
4.83115e-08
-1.92389e-09
4.8161e-08
-1.9044e-09
4.80263e-08
-1.77088e-09
4.79268e-08
-1.47854e-09
4.7898e-08
-1.02988e-09
4.79735e-08
-3.57053e-10
4.81429e-08
3.19185e-10
4.83714e-08
5.92543e-10
4.86206e-08
5.97713e-10
4.88547e-08
4.57786e-10
4.90541e-08
2.10092e-10
4.92044e-08
-8.70051e-11
4.92973e-08
-3.87376e-10
4.933e-08
-6.55618e-10
4.93049e-08
-8.65795e-10
4.92295e-08
-1.00137e-09
4.91152e-08
-1.05493e-09
4.89764e-08
-1.0273e-09
4.88296e-08
-9.2626e-10
4.86917e-08
-7.64951e-10
4.85785e-08
-5.60133e-10
4.85035e-08
-3.3036e-10
4.84762e-08
-9.41352e-11
4.85008e-08
1.31906e-10
4.85767e-08
3.32782e-10
4.86972e-08
4.99601e-10
4.88513e-08
6.26821e-10
4.90255e-08
7.13795e-10
7.63821e-10
4.92057e-08
6.4415e-08
-3.08885e-10
6.43539e-08
-3.66032e-10
6.42811e-08
-4.30097e-10
6.41968e-08
-5.00428e-10
6.41016e-08
-5.76097e-10
6.39962e-08
-6.56292e-10
6.38817e-08
-7.40559e-10
6.37583e-08
-8.28913e-10
6.36258e-08
-9.2185e-10
6.34832e-08
-1.01991e-09
6.33291e-08
-1.12364e-09
6.31616e-08
-1.23243e-09
6.29787e-08
-1.34452e-09
6.27785e-08
-1.45544e-09
6.25599e-08
-1.55646e-09
6.2324e-08
-1.63695e-09
6.20731e-08
-1.673e-09
6.18158e-08
-1.64716e-09
6.15659e-08
-1.52099e-09
6.13432e-08
-1.25575e-09
6.1183e-08
-8.697e-10
6.1122e-08
-2.96054e-10
6.11708e-08
2.70339e-10
6.12978e-08
4.6555e-10
6.14609e-08
4.34655e-10
6.16236e-08
2.95037e-10
6.17677e-08
6.60581e-11
6.18744e-08
-1.93762e-10
6.19348e-08
-4.47747e-10
6.19457e-08
-6.66552e-10
6.19097e-08
-8.29761e-10
6.1834e-08
-9.25653e-10
6.17297e-08
-9.50688e-10
6.16107e-08
-9.08253e-10
6.14916e-08
-8.07216e-10
6.1387e-08
-6.60315e-10
6.13093e-08
-4.82471e-10
6.12682e-08
-2.89194e-10
6.1269e-08
-9.49894e-11
6.13126e-08
8.83497e-11
6.13965e-08
2.48872e-10
6.15137e-08
3.82424e-10
6.16549e-08
4.85631e-10
6.18098e-08
5.58845e-10
6.04866e-10
6.19688e-08
8.17691e-08
-2.59344e-10
8.17099e-08
-3.06797e-10
8.16398e-08
-3.60039e-10
8.15582e-08
-4.18838e-10
8.14648e-08
-4.82701e-10
8.13596e-08
-5.51051e-10
8.12425e-08
-6.2343e-10
8.11131e-08
-6.99554e-10
8.09707e-08
-7.79437e-10
8.08138e-08
-8.62985e-10
8.06403e-08
-9.50191e-10
8.04478e-08
-1.03991e-09
8.02335e-08
-1.13026e-09
7.9995e-08
-1.21691e-09
7.97303e-08
-1.29178e-09
7.94398e-08
-1.34646e-09
7.91254e-08
-1.35858e-09
7.87953e-08
-1.31699e-09
7.84621e-08
-1.18781e-09
7.81466e-08
-9.40321e-10
7.78804e-08
-6.03491e-10
7.76999e-08
-1.15536e-10
7.76438e-08
3.26483e-10
7.76688e-08
4.40521e-10
7.77324e-08
3.71096e-10
7.78136e-08
2.13798e-10
7.78904e-08
-1.07761e-11
7.7941e-08
-2.44364e-10
7.79564e-08
-4.63081e-10
7.79344e-08
-6.44545e-10
7.78777e-08
-7.73069e-10
7.77934e-08
-8.41376e-10
7.76919e-08
-8.49217e-10
7.75855e-08
-8.01784e-10
7.74865e-08
-7.08226e-10
7.74063e-08
-5.80161e-10
7.73541e-08
-4.30247e-10
7.73357e-08
-2.70851e-10
7.73538e-08
-1.13009e-10
7.74074e-08
3.47209e-11
7.74922e-08
1.64054e-10
7.76025e-08
2.72087e-10
7.77307e-08
3.5744e-10
7.7869e-08
4.20549e-10
4.63464e-10
7.80104e-08
1.02568e-07
-2.15547e-10
1.02515e-07
-2.54211e-10
1.02452e-07
-2.97426e-10
1.02379e-07
-3.45135e-10
1.02293e-07
-3.97074e-10
1.02195e-07
-4.52826e-10
1.02083e-07
-5.11949e-10
1.01958e-07
-5.73973e-10
1.01817e-07
-6.38584e-10
1.01659e-07
-7.05166e-10
1.01482e-07
-7.73284e-10
1.01283e-07
-8.41203e-10
1.0106e-07
-9.06989e-10
1.0081e-07
-9.66234e-10
1.00529e-07
-1.01161e-09
1.00219e-07
-1.03649e-09
9.9881e-08
-1.02024e-09
9.95218e-08
-9.57745e-10
9.9152e-08
-8.18002e-10
9.87936e-08
-5.81924e-10
9.84716e-08
-2.81494e-10
9.82165e-08
1.39611e-10
9.80807e-08
4.62267e-10
9.8033e-08
4.88191e-10
9.80264e-08
3.77734e-10
9.80342e-08
2.0596e-10
9.80409e-08
-1.7498e-11
9.80314e-08
-2.34863e-10
9.79977e-08
-4.29331e-10
9.79382e-08
-5.85118e-10
9.78563e-08
-6.91134e-10
9.77587e-08
-7.43772e-10
9.76547e-08
-7.45214e-10
9.75545e-08
-7.01618e-10
9.7468e-08
-6.21707e-10
9.74034e-08