/*--------------------------------*- C++ -*----------------------------------*\
| =========                 |                                                 |
| \\      /  F ield         | OpenFOAM: The Open Source CFD Toolbox           |
|  \\    /   O peration     | Version:  2312                                  |
|   \\  /    A nd           | Website:  www.openfoam.com                      |
|    \\/     M anipulation  |                                                 |
\*---------------------------------------------------------------------------*/
FoamFile
{
    version     2.0;
    format      ascii;
    arch        "LSB;label=32;scalar=64";
    class       surfaceScalarField;
    location    "157.5";
    object      phi;
}
// * * * * * * * * * * * * * * * * * * * * * * * * * * * * * * * * * * * * * //

dimensions      [0 3 -1 0 0 0 0];

oriented        oriented;

internalField   nonuniform List<scalar> 
9445
(
5.7084e-10
1.36175e-11
5.62815e-10
8.02513e-12
5.58313e-10
4.50221e-12
5.5618e-10
2.1325e-12
5.5575e-10
4.30379e-13
5.56645e-10
-8.95284e-13
5.58482e-10
-1.83632e-12
5.61336e-10
-2.85434e-12
5.65345e-10
-4.00911e-12
5.70842e-10
-5.49711e-12
5.78894e-10
-8.05181e-12
5.93002e-10
-1.41078e-11
6.25411e-10
-3.2409e-11
7.1873e-10
-9.33189e-11
-2.3951e-10
9.5824e-10
1.99573e-09
5.92946e-11
1.96873e-09
3.50289e-11
1.95347e-09
1.97579e-11
1.94608e-09
9.52317e-12
1.94433e-09
2.18087e-12
1.94672e-09
-3.28547e-12
1.95222e-09
-7.33377e-12
1.96095e-09
-1.15873e-11
1.97321e-09
-1.62701e-11
1.99002e-09
-2.22995e-11
2.01408e-09
-3.21169e-11
2.0521e-09
-5.21254e-11
2.11698e-09
-9.72842e-11
2.22065e-09
-1.9699e-10
-3.47415e-10
2.32855e-09
3.94384e-09
1.46018e-10
3.89242e-09
8.64521e-11
3.86317e-09
4.90044e-11
3.8487e-09
2.4002e-11
3.84475e-09
6.12453e-12
3.8483e-09
-6.831e-12
3.85753e-09
-1.65644e-11
3.8725e-09
-2.65575e-11
3.89335e-09
-3.7117e-11
3.92129e-09
-5.02482e-11
3.95905e-09
-6.98697e-11
4.01109e-09
-1.04166e-10
4.08002e-09
-1.66216e-10
4.15249e-09
-2.69465e-10
-3.88924e-10
4.194e-09
6.56017e-09
2.83841e-10
6.47803e-09
1.68585e-10
6.43088e-09
9.61575e-11
6.40689e-09
4.79951e-11
6.3993e-09
1.37113e-11
6.40317e-09
-1.07057e-11
6.4156e-09
-2.89904e-11
6.4363e-09
-4.72542e-11
6.4648e-09
-6.56202e-11
6.50171e-09
-8.71536e-11
6.54806e-09
-1.1622e-10
6.60357e-09
-1.5968e-10
6.66204e-09
-2.24691e-10
6.70447e-09
-3.11893e-10
-3.95077e-10
6.71063e-09
1.00205e-08
4.82959e-10
9.90089e-09
2.88147e-10
9.8314e-09
1.65643e-10
9.79492e-09
8.44821e-11
9.78157e-09
2.70592e-11
9.78425e-09
-1.33897e-11
9.79872e-09
-4.34581e-11
9.82362e-09
-7.21591e-11
9.85755e-09
-9.95491e-11
9.89973e-09
-1.29334e-10
9.94881e-09
-1.65298e-10
1.00005e-08
-2.11353e-10
1.00449e-08
-2.69062e-10
1.00662e-08
-3.33206e-10
-3.84966e-10
1.00561e-08
1.45327e-08
7.51499e-10
1.43698e-08
4.51119e-10
1.42736e-08
2.61768e-10
1.42215e-08
1.36648e-10
1.41997e-08
4.88252e-11
1.4199e-08
-1.27138e-11
1.42138e-08
-5.82227e-11
1.42405e-08
-9.88513e-11
1.42766e-08
-1.35652e-10
1.43197e-08
-1.72435e-10
1.43663e-08
-2.11869e-10
1.44101e-08
-2.55158e-10
1.44417e-08
-3.00715e-10
1.44513e-08
-3.42809e-10
-3.70984e-10
1.44373e-08
2.03354e-08
1.09126e-09
2.01262e-08
6.60287e-10
2.00008e-08
3.87262e-10
1.99305e-08
2.06945e-10
1.98978e-08
8.14533e-11
1.98915e-08
-6.36276e-12
1.9904e-08
-7.07932e-11
1.99296e-08
-1.24421e-10
1.99643e-08
-1.70387e-10
2.00043e-08
-2.12346e-10
2.00445e-08
-2.52124e-10
2.00789e-08
-2.89571e-10
2.01008e-08
-3.2254e-10
2.01052e-08
-3.47274e-10
-3.59348e-10
2.00936e-08
2.76906e-08
1.49098e-09
2.74398e-08
9.11038e-10
2.72865e-08
5.40557e-10
2.71982e-08
2.95285e-10
2.71539e-08
1.25773e-10
2.71403e-08
7.18489e-12
2.71483e-08
-7.87705e-11
2.71701e-08
-1.4625e-10
2.72005e-08
-2.00718e-10
2.72342e-08
-2.46085e-10
2.72662e-08
-2.84147e-10
2.72916e-08
-3.14912e-10
2.73063e-08
-3.373e-10
2.7309e-08
-3.49964e-10
-3.51997e-10
2.73017e-08
3.68736e-08
1.91847e-09
3.65988e-08
1.18583e-09
3.64274e-08
7.11886e-10
3.63265e-08
3.96259e-10
3.62733e-08
1.7892e-10
3.62534e-08
2.70969e-11
3.62563e-08
-8.16646e-11
3.62732e-08
-1.63128e-10
3.62976e-08
-2.25166e-10
3.63242e-08
-2.72634e-10
3.63482e-08
-3.08185e-10
3.63663e-08
-3.33004e-10
3.63766e-08
-3.47635e-10
3.63794e-08
-3.52679e-10
-3.49059e-10
3.63764e-08
4.81679e-08
2.31794e-09
4.79032e-08
1.45051e-09
4.77352e-08
8.7991e-10
4.76351e-08
4.96331e-10
4.75818e-08
2.3221e-10
4.75609e-08
4.80161e-11
4.75618e-08
-8.25435e-11
4.75755e-08
-1.76814e-10
4.75954e-08
-2.4508e-10
4.76165e-08
-2.93736e-10
4.76352e-08
-3.26863e-10
4.76493e-08
-3.47179e-10
4.76584e-08
-3.56724e-10
4.76631e-08
-3.574e-10
-3.51019e-10
4.76651e-08
6.18869e-08
2.62378e-09
6.16775e-08
1.65992e-09
6.15438e-08
1.01367e-09
6.14659e-08
5.74204e-10
6.14273e-08
2.70787e-10
6.14158e-08
5.9549e-11
6.14221e-08
-8.88854e-11
6.14383e-08
-1.92987e-10
6.14586e-08
-2.65408e-10
6.14792e-08
-3.14299e-10
6.14976e-08
-3.45272e-10
6.15128e-08
-3.62416e-10
6.1525e-08
-3.68863e-10
6.15348e-08
-3.67263e-10
-3.59826e-10
6.15436e-08
7.84454e-08
2.7961e-09
7.83259e-08
1.77935e-09
7.82538e-08
1.08583e-09
7.82188e-08
6.09155e-10
7.82106e-08
2.79046e-10
7.82204e-08
4.97197e-11
7.82417e-08
-1.10165e-10
7.82683e-08
-2.19615e-10
7.82963e-08
-2.93408e-10
7.83233e-08
-3.41259e-10
7.8348e-08
-3.70025e-10
7.83704e-08
-3.84756e-10
7.83907e-08
-3.89236e-10
7.841e-08
-3.86474e-10
-3.78809e-10
7.84289e-08
9.84547e-08
2.85242e-09
9.84223e-08
1.81173e-09
9.84144e-08
1.09374e-09
9.84266e-08
5.96944e-10
9.84531e-08
2.52561e-10
9.84889e-08
1.3881e-11
9.85296e-08
-1.50829e-10
9.85713e-08
-2.61348e-10
9.86119e-08
-3.34015e-10
9.86504e-08
-3.79719e-10
9.86865e-08
-4.06145e-10
9.87206e-08
-4.18871e-10
9.87534e-08
-4.21998e-10
9.87856e-08
-4.1864e-10
-4.11123e-10
9.88179e-08
1.22719e-07
2.84949e-09
1.22734e-07
1.79656e-09
1.22762e-07
1.06543e-09
1.22802e-07
5.57762e-10
1.22848e-07
2.0632e-10
1.22899e-07
-3.7688e-11
1.22952e-07
-2.03321e-10
1.23004e-07
-3.13223e-10
1.23054e-07
-3.8422e-10
1.23102e-07
-4.28035e-10
1.23149e-07
-4.52832e-10
1.23195e-07
-4.64445e-10
1.2324e-07
-4.67091e-10
1.23285e-07
-4.63872e-10
-4.57044e-10
1.23331e-07
1.52024e-07
2.82439e-09
1.52051e-07
1.76981e-09
1.52083e-07
1.03294e-09
1.52122e-07
5.19414e-10
1.52164e-07
1.63438e-10
1.52212e-07
-8.52748e-11
1.52261e-07
-2.52371e-10
1.52311e-07
-3.62753e-10
1.5236e-07
-4.33881e-10
1.5241e-07
-4.77871e-10
1.5246e-07
-5.03117e-10
1.52512e-07
-5.15555e-10
1.52564e-07
-5.19421e-10
1.52618e-07
-5.17773e-10
-5.12788e-10
1.52673e-07
1.8685e-07
2.76899e-09
1.86886e-07
1.73336e-09
1.86915e-07
1.00367e-09
1.86943e-07
4.91447e-10
1.86972e-07
1.35197e-10
1.87005e-07
-1.18659e-10
1.87041e-07
-2.88121e-10
1.87079e-07
-4.00996e-10
1.8712e-07
-4.74833e-10
1.87164e-07
-5.21741e-10
1.87211e-07
-5.50105e-10
1.87261e-07
-5.65837e-10
1.87315e-07
-5.73133e-10
1.87372e-07
-5.74986e-10
-5.73478e-10
1.87433e-07
2.27226e-07
2.65819e-09
2.2729e-07
1.66866e-09
2.27329e-07
9.64915e-10
2.27355e-07
4.65643e-10
2.27375e-07
1.14803e-10
2.27398e-07
-1.40835e-10
2.27422e-07
-3.12328e-10
2.27449e-07
-4.28558e-10
2.27481e-07
-5.06795e-10
2.27518e-07
-5.58697e-10
2.27561e-07
-5.9234e-10
2.27608e-07
-6.13462e-10
2.27661e-07
-6.2615e-10
2.27719e-07
-6.33315e-10
-6.36969e-10
2.27783e-07
2.72649e-07
2.47949e-09
2.72753e-07
1.56397e-09
2.72814e-07
9.04422e-10
2.72849e-07
4.3088e-10
2.72869e-07
9.43662e-11
2.72888e-07
-1.59648e-10
2.72907e-07
-3.31134e-10
2.72929e-07
-4.50707e-10
2.72956e-07
-5.34329e-10
2.7299e-07
-5.92656e-10
2.73031e-07
-6.33196e-10
2.73079e-07
-6.61368e-10
2.73134e-07
-6.81055e-10
2.73196e-07
-6.95025e-10
-7.05212e-10
2.73264e-07
3.21755e-07
2.23295e-09
3.21902e-07
1.41708e-09
3.21988e-07
8.1882e-10
3.22035e-07
3.83335e-10
3.22063e-07
6.71984e-11
3.22084e-07
-1.81018e-10
3.22104e-07
-3.5166e-10
3.22128e-07
-4.74461e-10
3.22158e-07
-5.63779e-10
3.22194e-07
-6.29179e-10
3.22238e-07
-6.77474e-10
3.22291e-07
-7.13662e-10
3.22351e-07
-7.41357e-10
3.22419e-07
-7.63139e-10
-7.80445e-10
3.22494e-07
3.7162e-07
1.91367e-09
3.71819e-07
1.21804e-09
3.71938e-07
7.00133e-10
3.72006e-07
3.146e-10
3.72051e-07
2.27995e-11
3.7207e-07
-2.00543e-10
3.72081e-07
-3.62545e-10
3.72091e-07
-4.83677e-10
3.72102e-07
-5.75597e-10
3.72119e-07
-6.46337e-10
3.72144e-07
-7.01667e-10
3.72176e-07
-7.45836e-10
3.72216e-07
-7.81887e-10
3.72265e-07
-8.12021e-10
-8.37835e-10
3.72323e-07
3.69669e-07
1.56957e-09
3.69894e-07
9.93402e-10
3.70038e-07
5.558e-10
3.70128e-07
2.24914e-10
3.70185e-07
-3.40361e-11
3.70217e-07
-2.32548e-10
3.70237e-07
-3.82802e-10
3.70254e-07
-5.00295e-10
3.70271e-07
-5.92949e-10
3.70292e-07
-6.67066e-10
3.70318e-07
-7.27508e-10
3.7035e-07
-7.77829e-10
3.70388e-07
-8.20527e-10
3.70434e-07
-8.57422e-10
-8.89645e-10
3.70485e-07
3.17334e-07
1.28253e-09
3.17511e-07
8.15788e-10
3.17615e-07
4.52511e-10
3.17672e-07
1.67917e-10
3.17695e-07
-5.70866e-11
3.17698e-07
-2.35372e-10
3.17691e-07
-3.76338e-10
3.1768e-07
-4.89346e-10
3.17669e-07
-5.81449e-10
3.17659e-07
-6.57774e-10
3.17654e-07
-7.22053e-10
3.17653e-07
-7.77047e-10
3.17657e-07
-8.24757e-10
3.17667e-07
-8.66682e-10
-9.03881e-10
3.17681e-07
2.66209e-07
1.0128e-09
2.66389e-07
6.35425e-10
2.66507e-07
3.34856e-10
2.66579e-07
9.59381e-11
2.66618e-07
-9.62245e-11
2.66634e-07
-2.51573e-10
2.66636e-07
-3.78648e-10
2.66631e-07
-4.83537e-10
2.6662e-07
-5.71299e-10
2.66609e-07
-6.45842e-10
2.66596e-07
-7.10028e-10
2.66585e-07
-7.65977e-10
2.66576e-07
-8.15242e-10
2.66568e-07
-8.58999e-10
-8.98077e-10
2.66562e-07
2.19818e-07
7.77651e-10
2.19978e-07
4.75149e-10
2.20082e-07
2.3039e-10
2.20146e-07
3.2184e-11
2.2018e-07
-1.30254e-10
2.20193e-07
-2.64777e-10
2.20192e-07
-3.77453e-10
2.20181e-07
-4.72673e-10
2.20164e-07
-5.54005e-10
2.20142e-07
-6.24331e-10
2.20118e-07
-6.85832e-10
2.20092e-07
-7.40123e-10
2.20065e-07
-7.88364e-10
2.20038e-07
-8.3143e-10
-8.6995e-10
2.2001e-07
1.79159e-07
5.81504e-10
1.79293e-07
3.42023e-10
1.79378e-07
1.45148e-10
1.79427e-07
-1.73848e-11
1.7945e-07
-1.53373e-10
1.79454e-07
-2.68263e-10
1.79443e-07
-3.66287e-10
1.79421e-07
-4.50676e-10
1.79391e-07
-5.23984e-10
1.79355e-07
-5.88276e-10
1.79314e-07
-6.45139e-10
1.7927e-07
-6.9575e-10
1.79222e-07
-7.40943e-10
1.79172e-07
-7.81349e-10
-8.17422e-10
1.7912e-07
1.4437e-07
4.26293e-10
1.44473e-07
2.38925e-10
1.44536e-07
8.21842e-11
1.44568e-07
-4.92876e-11
1.44577e-07
-1.61568e-10
1.44566e-07
-2.58025e-10
1.44542e-07
-3.41683e-10
1.44506e-07
-4.14846e-10
1.44461e-07
-4.79294e-10
1.44409e-07
-5.36452e-10
1.44352e-07
-5.87418e-10
1.44289e-07
-6.33018e-10
1.44222e-07
-6.73836e-10
1.44151e-07
-7.10315e-10
-7.42766e-10
1.44076e-07
1.15122e-07
3.09535e-10
1.15196e-07
1.64626e-10
1.15237e-07
4.1284e-11
1.15252e-07
-6.36614e-11
1.15245e-07
-1.55006e-10
1.15222e-07
-2.34751e-10
1.15185e-07
-3.04942e-10
1.15137e-07
-3.67141e-10
1.15081e-07
-4.22552e-10
1.15016e-07
-4.72131e-10
1.14946e-07
-5.16615e-10
1.14869e-07
-5.56563e-10
1.14788e-07
-5.92371e-10
1.14702e-07
-6.2434e-10
-6.52672e-10
1.14612e-07
9.08765e-08
2.2482e-10
9.09271e-08
1.14001e-10
9.09502e-08
1.82411e-11
9.0951e-08
-6.4533e-11
9.09338e-08
-1.37796e-10
9.09018e-08
-2.0273e-10
9.08575e-08
-2.60633e-10
9.08029e-08
-3.1252e-10
9.07395e-08
-3.59183e-10
9.06686e-08
-4.01242e-10
9.05912e-08
-4.39176e-10
9.0508e-08
-4.73347e-10
9.04196e-08
-5.04011e-10
9.03266e-08
-5.31365e-10
-5.55534e-10
9.02295e-08
7.10199e-08
1.6408e-10
7.10533e-08
8.05653e-11
7.10644e-08
7.1558e-12
7.1057e-08
-5.71787e-11
7.10343e-08
-1.15062e-10
7.09986e-08
-1.67055e-10
7.0952e-08
-2.13954e-10
7.08958e-08
-2.56394e-10
7.08315e-08
-2.94873e-10
7.076e-08
-3.29774e-10
7.06823e-08
-3.61396e-10
7.05989e-08
-3.89964e-10
7.05105e-08
-4.15633e-10
7.04177e-08
-4.38527e-10
-4.58717e-10
7.03209e-08
5.49291e-08
1.20317e-10
5.49513e-08
5.83085e-11
5.49553e-08
3.1222e-12
5.49443e-08
-4.61614e-11
5.49203e-08
-9.10382e-11
5.48851e-08
-1.31852e-10
5.48402e-08
-1.69047e-10
5.47868e-08
-2.02996e-10
5.47259e-08
-2.33993e-10
5.46584e-08
-2.62265e-10
5.4585e-08
-2.87988e-10
5.45063e-08
-3.11292e-10
5.4423e-08
-3.32267e-10
5.43354e-08
-3.50984e-10
-3.67478e-10
5.42442e-08
4.20103e-08
8.82086e-11
4.20255e-08
4.31352e-11
4.20261e-08
2.44173e-12
4.20145e-08
-3.44774e-11
4.19919e-08
-6.85107e-11
4.19599e-08
-9.97904e-11
4.19194e-08
-1.28556e-10
4.18714e-08
-1.55008e-10
4.18167e-08
-1.7931e-10
4.1756e-08
-2.01587e-10
4.169e-08
-2.21935e-10
4.16191e-08
-2.40423e-10
4.15439e-08
-2.57099e-10
4.1465e-08
-2.71998e-10
-2.85131e-10
4.13826e-08
3.17237e-08
6.41908e-11
3.17346e-08
3.22596e-11
3.1734e-08
2.98909e-12
3.17234e-08
-2.39057e-11
3.17039e-08
-4.9013e-11
3.16764e-08
-7.22896e-11
3.16417e-08
-9.38647e-11
3.16006e-08
-1.13837e-10
3.15536e-08
-1.32289e-10
3.15012e-08
-1.49281e-10
3.14442e-08
-1.64861e-10
3.13828e-08
-1.79062e-10
3.13176e-08
-1.91901e-10
3.1249e-08
-2.03392e-10
-2.13532e-10
3.11774e-08
2.3596e-08
4.59183e-11
2.36043e-08
2.39843e-11
2.36036e-08
3.63347e-12
2.3595e-08
-1.53066e-11
2.35792e-08
-3.31869e-11
2.35568e-08
-4.98834e-11
2.35284e-08
-6.54676e-11
2.34946e-08
-7.99812e-11
2.34557e-08
-9.34591e-11
2.34124e-08
-1.05926e-10
2.33649e-08
-1.17401e-10
2.33137e-08
-1.27892e-10
2.32592e-08
-1.37404e-10
2.32018e-08
-1.45935e-10
-1.53476e-10
2.31417e-08
1.72231e-08
3.18616e-11
1.72297e-08
1.73882e-11
1.72295e-08
3.82852e-12
1.72231e-08
-8.90721e-12
1.7211e-08
-2.10851e-11
1.71937e-08
-3.2515e-11
1.71714e-08
-4.32502e-11
1.71448e-08
-5.33044e-11
1.7114e-08
-6.26874e-11
1.70795e-08
-7.14039e-11
1.70415e-08
-7.9457e-11
1.70005e-08
-8.68437e-11
1.69566e-08
-9.35609e-11
1.69103e-08
-9.96001e-11
-1.04949e-10
1.68618e-08
1.2266e-08
2.10481e-11
1.22714e-08
1.19984e-11
1.22717e-08
3.46544e-12
1.22674e-08
-4.57464e-12
1.22587e-08
-1.23874e-11
1.22459e-08
-1.97455e-11
1.22294e-08
-2.66935e-11
1.22093e-08
-3.32363e-11
1.2186e-08
-3.93718e-11
1.21597e-08
-4.50955e-11
1.21306e-08
-5.04034e-11
1.20991e-08
-5.52881e-11
1.20653e-08
-5.97443e-11
1.20294e-08
-6.37611e-11
-6.73248e-11
1.19918e-08
8.44361e-09
1.28634e-11
8.44798e-09
7.62742e-12
8.44877e-09
2.67584e-12
8.44616e-09
-1.9702e-12
8.44034e-09
-6.56013e-12
8.4315e-09
-1.09096e-11
8.41984e-09
-1.5031e-11
8.40553e-09
-1.89328e-11
8.38877e-09
-2.26089e-11
8.36973e-09
-2.6053e-11
8.34858e-09
-2.92588e-11
8.32552e-09
-3.22188e-11
8.3007e-09
-3.4928e-11
8.27431e-09
-3.73766e-11
-3.95506e-11
8.24654e-09
5.52514e-09
6.91431e-12
5.52854e-09
4.22746e-12
5.52951e-09
1.70723e-12
5.52818e-09
-6.42229e-13
5.52462e-09
-2.99353e-12
5.51895e-09
-5.2423e-12
5.5113e-09
-7.38172e-12
5.50178e-09
-9.4164e-12
5.49052e-09
-1.13423e-11
5.47762e-09
-1.31549e-11
5.46321e-09
-1.48485e-11
5.44741e-09
-1.64171e-11
5.43034e-09
-1.78575e-11
5.41212e-09
-1.91625e-11
-2.03189e-11
5.39289e-09
3.32226e-09
2.92879e-12
3.32468e-09
1.8157e-12
3.32557e-09
8.08575e-13
3.32506e-09
-1.24313e-13
3.32313e-09
-1.06893e-12
3.31987e-09
-1.98221e-12
3.31535e-09
-2.85682e-12
3.30962e-09
-3.69118e-12
3.30276e-09
-4.48572e-12
3.29485e-09
-5.23687e-12
3.28594e-09
-5.94111e-12
3.27612e-09
-6.59509e-12
3.26546e-09
-7.19736e-12
3.25404e-09
-7.7433e-12
-8.22259e-12
3.24194e-09
1.68225e-09
6.89545e-13
1.68366e-09
4.11394e-13
1.68428e-09
1.89021e-13
1.68417e-09
-1.42475e-14
1.68332e-09
-2.25469e-13
1.68177e-09
-4.32981e-13
1.67955e-09
-6.33883e-13
1.67669e-09
-8.25178e-13
1.67321e-09
-1.01078e-12
1.66916e-09
-1.18554e-12
1.66457e-09
-1.34981e-12
1.65948e-09
-1.50242e-12
1.65392e-09
-1.64316e-12
1.64795e-09
-1.7697e-12
-1.87642e-12
1.6416e-09
4.81987e-10
4.82399e-10
4.82588e-10
4.82573e-10
4.82348e-10
4.81915e-10
4.81281e-10
4.80456e-10
4.79445e-10
4.7826e-10
4.7691e-10
4.75407e-10
4.73764e-10
4.71994e-10
4.70118e-10
1.14763e-09
-4.43492e-10
2.54099e-10
1.42062e-09
-3.47759e-10
7.47677e-11
1.69745e-09
-1.82921e-10
-9.39005e-11
1.9721e-09
-9.45497e-12
-2.65199e-10
2.24288e-09
1.68272e-10
-4.3905e-10
2.51067e-09
3.43376e-10
-6.11164e-10
2.77699e-09
5.13964e-10
-7.80285e-10
3.04302e-09
6.78335e-10
-9.44367e-10
3.30967e-09
8.34194e-10
-1.10085e-09
3.57764e-09
9.78759e-10
-1.24672e-09
3.84746e-09
1.10871e-09
-1.37854e-09
4.11966e-09
1.22008e-09
-1.49228e-09
4.39477e-09
1.30808e-09
-1.58319e-09
4.67342e-09
1.36703e-09
-1.64568e-09
4.95635e-09
1.3904e-09
-1.67333e-09
5.24458e-09
1.37142e-09
-1.65965e-09
5.53959e-09
1.30429e-09
-1.5993e-09
5.84379e-09
1.18682e-09
-1.49102e-09
6.16085e-09
1.01961e-09
-1.33667e-09
6.49578e-09
8.07956e-10
-1.14289e-09
6.85375e-09
5.41719e-10
-8.99687e-10
7.23604e-09
1.71354e-10
-5.53653e-10
7.57856e-09
-3.44004e-10
1.48947e-12
7.85521e-09
-8.82467e-10
6.05816e-10
8.0661e-09
-1.40483e-09
1.19394e-09
8.21458e-09
-1.88097e-09
1.7325e-09
8.30571e-09
-2.28799e-09
2.19685e-09
8.34468e-09
-2.61602e-09
2.57706e-09
8.33562e-09
-2.86214e-09
2.8712e-09
8.282e-09
-3.02432e-09
3.07794e-09
8.18679e-09
-3.10072e-09
3.19594e-09
8.05242e-09
-3.08503e-09
3.21939e-09
7.88143e-09
-2.97216e-09
3.14315e-09
7.67651e-09
-2.75811e-09
2.96304e-09
7.44037e-09
-2.44121e-09
2.67735e-09
7.17556e-09
-2.02224e-09
2.28705e-09
6.88429e-09
-1.50345e-09
1.79472e-09
6.56842e-09
-8.86335e-10
1.2022e-09
6.22969e-09
-1.68805e-10
5.07535e-10
5.86868e-09
6.56392e-10
-2.95381e-10
5.4809e-09
1.59362e-09
-1.20585e-09
5.0486e-09
2.61616e-09
-2.18386e-09
4.53943e-09
3.59124e-09
-3.08207e-09
3.95668e-09
4.19017e-09
-3.60742e-09
3.62494e-09
3.59577e-09
-3.26403e-09
2.40363e-09
-5.18572e-10
2.56854e-09
-5.12665e-10
2.79345e-09
-4.07833e-10
3.0462e-09
-2.62208e-10
3.31325e-09
-9.87789e-11
3.58782e-09
6.88123e-11
3.86727e-09
2.34509e-10
4.1506e-09
3.95002e-10
4.4375e-09
5.47296e-10
4.72794e-09
6.88317e-10
5.02204e-09
8.14613e-10
5.32003e-09
9.22096e-10
5.62223e-09
1.00587e-09
5.92912e-09
1.06015e-09
6.24126e-09
1.07826e-09
6.55948e-09
1.0532e-09
6.88505e-09
9.78723e-10
7.22009e-09
8.51784e-10
7.56797e-09
6.71724e-10
7.93342e-09
4.42509e-10
8.32132e-09
1.53823e-10
8.73271e-09
-2.40038e-10
9.09957e-09
-7.10862e-10
9.39522e-09
-1.17812e-09
9.62044e-09
-1.63004e-09
9.77894e-09
-2.03948e-09
9.87616e-09
-2.38521e-09
9.91757e-09
-2.65742e-09
9.90763e-09
-2.85221e-09
9.8503e-09
-2.96698e-09
9.74907e-09
-2.9995e-09
9.60697e-09
-2.94293e-09
9.42728e-09
-2.79246e-09
9.21369e-09
-2.54452e-09
8.97028e-09
-2.1978e-09
8.70142e-09
-1.75339e-09
8.41194e-09
-1.21396e-09
8.10762e-09
-5.82019e-10
7.79664e-09
1.42176e-10
7.49123e-09
9.61799e-10
7.20872e-09
1.87614e-09
6.97044e-09
2.85445e-09
6.80293e-09
3.75875e-09
6.73461e-09
4.25849e-09
3.73321e-09
6.62634e-09
4.20865e-09
-5.33215e-10
4.28375e-09
-5.8777e-10
4.4313e-09
-5.55384e-10
4.63294e-09
-4.63845e-10
4.86973e-09
-3.35563e-10
5.12957e-09
-1.91034e-10
5.40534e-09
-4.12551e-11
5.69284e-09
1.07495e-10
5.9897e-09
2.50443e-10
6.29452e-09
3.83494e-10
6.60651e-09
5.02618e-10
6.92528e-09
6.03333e-10
7.25069e-09
6.80458e-10
7.58283e-09
7.28005e-10
7.92194e-09
7.39149e-10
8.2685e-09
7.06639e-10
8.62339e-09
6.23837e-10
8.98827e-09
4.86905e-10
9.36599e-09
2.94004e-10
9.76069e-09
4.7805e-11
1.01767e-08
-2.62165e-10
1.06145e-08
-6.77838e-10
1.10026e-08
-1.099e-09
1.13143e-08
-1.48979e-09
1.15511e-08
-1.86683e-09
1.17172e-08
-2.20557e-09
1.18184e-08
-2.48641e-09
1.18604e-08
-2.69949e-09
1.18482e-08
-2.83999e-09
1.17862e-08
-2.90499e-09
1.16786e-08
-2.89185e-09
1.1529e-08
-2.79334e-09
1.13417e-08
-2.60516e-09
1.11216e-08
-2.32446e-09
1.08745e-08
-1.95071e-09
1.0607e-08
-1.48589e-09
1.03271e-08
-9.34008e-10
1.0045e-08
-2.99933e-10
9.77571e-09
4.11444e-10
9.54251e-09
1.195e-09
9.38023e-09
2.03842e-09
9.33377e-09
2.9009e-09
9.4375e-09
3.65502e-09
9.64078e-09
4.05521e-09
3.66532e-09
9.70867e-09
6.6914e-09
-5.13991e-10
6.7057e-09
-6.02072e-10
6.7757e-09
-6.25385e-10
6.90786e-09
-5.95998e-10
7.09068e-09
-5.18386e-10
7.31189e-09
-4.12249e-10
7.56237e-09
-2.91733e-10
7.83541e-09
-1.65542e-10
8.12643e-09
-4.05754e-11
8.43234e-09
7.75777e-11
8.75107e-09
1.83896e-10
9.08123e-09
2.73172e-10
9.42196e-09
3.39721e-10
9.77275e-09
3.77221e-10
1.01333e-08
3.78625e-10
1.05035e-08
3.36434e-10
1.08836e-08
2.43672e-10
1.12747e-08
9.58021e-11
1.16788e-08
-1.10087e-10
1.20992e-08
-3.7251e-10
1.2539e-08
-7.02021e-10
1.2998e-08
-1.13686e-09
1.34021e-08
-1.50302e-09
1.37247e-08
-1.8124e-09
1.39684e-08
-2.11059e-09
1.4138e-08
-2.37518e-09
1.42397e-08
-2.58807e-09
1.42795e-08
-2.73925e-09
1.42627e-08
-2.82317e-09
1.41944e-08
-2.83675e-09
1.40795e-08
-2.77697e-09
1.39226e-08
-2.63635e-09
1.37288e-08
-2.41142e-09
1.35048e-08
-2.10041e-09
1.32581e-08
-1.704e-09
1.29978e-08
-1.22565e-09
1.27353e-08
-6.71477e-10
1.24852e-08
-4.98273e-11
1.22679e-08
6.28745e-10
1.21133e-08
1.3496e-09
1.20626e-08
2.08911e-09
1.21616e-08
2.80186e-09
1.24291e-08
3.38758e-09
1.28029e-08
3.6814e-09
3.453e-09
1.30152e-08
1.00227e-08
-4.80619e-10
1.00005e-08
-5.79909e-10
1.00125e-08
-6.37336e-10
1.00728e-08
-6.56319e-10
1.0188e-08
-6.33628e-10
1.03509e-08
-5.75122e-10
1.05542e-08
-4.94987e-10
1.0791e-08
-4.02415e-10
1.1056e-08
-3.05529e-10
1.13447e-08
-2.11096e-10
1.16537e-08
-1.25167e-10
1.19807e-08
-5.38485e-11
1.2324e-08
-3.49897e-12
1.26821e-08
1.91207e-11
1.3054e-08
6.68854e-12
1.3439e-08
-4.85435e-11
1.38365e-08
-1.53821e-10
1.42465e-08
-3.14247e-10
1.46701e-08
-5.33642e-10
1.51091e-08
-8.11524e-10
1.55654e-08
-1.15835e-09
1.60373e-08
-1.60875e-09
1.64489e-08
-1.91465e-09
1.67749e-08
-2.13832e-09
1.70187e-08
-2.35446e-09
1.71857e-08
-2.54222e-09
1.72826e-08
-2.68492e-09
1.73156e-08
-2.77224e-09
1.72907e-08
-2.79826e-09
1.72138e-08
-2.75983e-09
1.70902e-08
-2.65343e-09
1.69255e-08
-2.47164e-09
1.67263e-08
-2.21223e-09
1.65007e-08
-1.87483e-09
1.62584e-08
-1.46169e-09
1.6011e-08
-9.78261e-10
1.57728e-08
-4.33263e-10
1.55616e-08
1.61377e-10
1.54009e-08
7.89478e-10
1.53211e-08
1.42943e-09
1.53591e-08
2.05104e-09
1.55497e-08
2.6113e-09
1.58965e-08
3.04079e-09
1.6331e-08
3.24685e-09
3.13035e-09
1.66537e-08
1.44031e-08
-4.46387e-10
1.43639e-08
-5.40723e-10
1.43422e-08
-6.156e-10
1.43491e-08
-6.63286e-10
1.43986e-08
-6.83087e-10
1.44954e-08
-6.71876e-10
1.46364e-08
-6.36061e-10
1.48183e-08
-5.84276e-10
1.50367e-08
-5.23958e-10
1.52875e-08
-4.61873e-10
1.55669e-08
-4.04542e-10
1.58718e-08
-3.5877e-10
1.61998e-08
-3.31512e-10
1.65489e-08
-3.29928e-10
1.69171e-08
-3.61582e-10
1.7303e-08
-4.34407e-10
1.7705e-08
-5.5581e-10
1.8122e-08
-7.31253e-10
1.85536e-08
-9.65243e-10
1.90001e-08
-1.25801e-09
1.94613e-08
-1.61961e-09
1.99337e-08
-2.08109e-09
2.0341e-08
-2.32201e-09
2.06595e-08
-2.45681e-09
2.08938e-08
-2.58877e-09
2.10497e-08
-2.69809e-09
2.11342e-08
-2.76941e-09
2.1154e-08
-2.79207e-09
2.11161e-08
-2.76034e-09
2.1027e-08
-2.67069e-09
2.08924e-08
-2.5188e-09
2.07189e-08
-2.29814e-09
2.05147e-08
-2.00804e-09
2.02895e-08
-1.64969e-09
2.0055e-08
-1.22721e-09
1.9825e-08
-7.48195e-10
1.96157e-08
-2.24012e-10
1.94466e-08
3.30536e-10
1.93406e-08
8.95393e-10
1.93241e-08
1.44601e-09
1.94232e-08
1.95191e-09
1.96567e-08
2.3778e-09
2.00162e-08
2.68129e-09
2.04438e-08
2.81925e-09
2.7582e-09
2.08159e-08
2.00659e-08
-4.18681e-10
2.00271e-08
-5.01961e-10
1.99906e-08
-5.79078e-10
1.99693e-08
-6.4202e-10
1.99727e-08
-6.86416e-10
2.00118e-08
-7.10996e-10
2.00904e-08
-7.14702e-10
2.02094e-08
-7.03277e-10
2.03681e-08
-6.82595e-10
2.05641e-08
-6.5793e-10
2.07949e-08
-6.35329e-10
2.10579e-08
-6.21727e-10
2.13506e-08
-6.24237e-10
2.16708e-08
-6.50109e-10
2.20161e-08
-7.0693e-10
2.23843e-08
-8.02618e-10
2.2773e-08
-9.44525e-10
2.318e-08
-1.13817e-09
2.36031e-08
-1.38842e-09
2.40409e-08
-1.69583e-09
2.44908e-08
-2.06951e-09
2.49467e-08
-2.53691e-09
2.5334e-08
-2.70932e-09
2.56309e-08
-2.75378e-09
2.58431e-08
-2.80089e-09
2.59765e-08
-2.83149e-09
2.60386e-08
-2.83152e-09
2.60368e-08
-2.79031e-09
2.59795e-08
-2.70301e-09
2.58734e-08
-2.56463e-09
2.57239e-08
-2.36928e-09
2.55394e-08
-2.11365e-09
2.53297e-08
-1.7983e-09
2.5106e-08
-1.42598e-09
2.48814e-08
-1.00265e-09
2.46711e-08
-5.37866e-10
2.44924e-08
-4.53065e-11
2.43637e-08
4.59244e-10
2.43051e-08
9.53946e-10
2.43355e-08
1.41561e-09
2.44691e-08
1.81827e-09
2.47103e-08
2.13666e-09
2.50436e-08
2.34801e-09
2.54259e-08
2.43688e-09
2.39902e-09
2.57851e-08
2.72828e-08
-3.99869e-10
2.7253e-08
-4.72131e-10
2.72186e-08
-5.4464e-10
2.71883e-08
-6.11696e-10
2.71708e-08
-6.68916e-10
2.71743e-08
-7.14524e-10
2.7206e-08
-7.46429e-10
2.72706e-08
-7.67868e-10
2.73708e-08
-7.82837e-10
2.75072e-08
-7.94287e-10
2.76793e-08
-8.07467e-10
2.78864e-08
-8.2884e-10
2.81273e-08
-8.6505e-10
2.84001e-08
-9.22927e-10
2.87028e-08
-1.00967e-09
2.9033e-08
-1.13283e-09
2.93878e-08
-1.29934e-09
2.9764e-08
-1.51433e-09
3.01582e-08
-1.78261e-09
3.05668e-08
-2.10446e-09
3.09847e-08
-2.48736e-09
3.14028e-08
-2.95503e-09
3.17507e-08
-3.0572e-09
3.20091e-08
-3.01218e-09
3.21836e-08
-2.97546e-09
3.22808e-08
-2.92867e-09
3.23082e-08
-2.85893e-09
3.22754e-08
-2.75746e-09
3.21913e-08
-2.61894e-09
3.20616e-08
-2.43492e-09
3.18919e-08
-2.19962e-09
3.16931e-08
-1.9148e-09
3.14761e-08
-1.58129e-09
3.12533e-08
-1.20322e-09
3.10389e-08
-7.88198e-10
3.08482e-08
-3.47236e-10
3.06974e-08
1.05563e-10
3.06032e-08
5.53467e-10
3.05801e-08
9.77007e-10
3.06392e-08
1.35646e-09
3.07848e-08
1.67272e-09
3.10114e-08
1.91008e-09
3.1301e-08
2.05835e-09
3.16225e-08
2.11544e-09
2.08795e-09
3.19335e-08
3.6366e-08
-3.89463e-10
3.63471e-08
-4.53263e-10
3.63226e-08
-5.20075e-10
3.62973e-08
-5.86374e-10
3.62771e-08
-6.48735e-10
3.62685e-08
-7.05965e-10
3.62767e-08
-7.54625e-10
3.63081e-08
-7.99258e-10
3.63668e-08
-8.41575e-10
3.64545e-08
-8.81989e-10
3.65734e-08
-9.26284e-10
3.67245e-08
-9.79966e-10
3.69083e-08
-1.04884e-09
3.71243e-08
-1.13897e-09
3.73715e-08
-1.25682e-09
3.76478e-08
-1.40916e-09
3.79506e-08
-1.60212e-09
3.82762e-08
-1.83993e-09
3.86204e-08
-2.12677e-09
3.89779e-08
-2.46204e-09
3.93411e-08
-2.85056e-09
3.96984e-08
-3.31228e-09
3.99857e-08
-3.34453e-09
4.0187e-08
-3.21344e-09
4.03072e-08
-3.09563e-09
4.03528e-08
-2.97429e-09
4.03332e-08
-2.83936e-09
4.02616e-08
-2.68585e-09
4.01421e-08
-2.49945e-09
3.9979e-08
-2.27186e-09
3.97836e-08
-2.00421e-09
3.95665e-08
-1.69767e-09
3.93396e-08
-1.35436e-09
3.91159e-08
-9.79544e-10
3.89095e-08
-5.81863e-10
3.87352e-08
-1.72883e-10
3.86067e-08
2.3406e-10
3.85369e-08
6.23225e-10
3.8535e-08
9.78972e-10
3.86049e-08
1.28648e-09
3.87443e-08
1.53338e-09
3.89429e-08
1.71148e-09
3.91833e-08
1.81797e-09
3.94424e-08
1.85629e-09
1.83545e-09
3.96949e-08
4.76626e-08
-3.86919e-10
4.76544e-08
-4.4508e-10
4.76418e-08
-5.07494e-10
4.76276e-08
-5.72177e-10
4.76156e-08
-6.36721e-10
4.76101e-08
-7.00478e-10
4.76154e-08
-7.5996e-10
4.7636e-08
-8.1986e-10
4.76756e-08
-8.81146e-10
4.77367e-08
-9.43098e-10
4.78216e-08
-1.01119e-09
4.79325e-08
-1.09082e-09
4.80704e-08
-1.18679e-09
4.8236e-08
-1.30454e-09
4.8429e-08
-1.44978e-09
4.86481e-08
-1.62835e-09
4.88914e-08
-1.84534e-09
4.91551e-08
-2.1037e-09
4.94349e-08
-2.40653e-09
4.97245e-08
-2.75168e-09
5.00142e-08
-3.14025e-09
5.02906e-08
-3.58862e-09
5.04987e-08
-3.55266e-09
5.06255e-08
-3.34023e-09
5.06751e-08
-3.14524e-09
5.06555e-08
-2.95467e-09
5.05858e-08
-2.7697e-09
5.04667e-08
-2.56671e-09
5.02996e-08
-2.33232e-09
5.00969e-08
-2.06919e-09
4.98705e-08
-1.77784e-09
4.96315e-08
-1.45866e-09
4.93919e-08
-1.11478e-09
4.91647e-08
-7.52354e-10
4.89631e-08
-3.80189e-10
4.87996e-08
-9.40773e-12
4.86851e-08
3.48561e-10
4.8628e-08
6.80309e-10
4.86324e-08
9.74562e-10
4.86975e-08
1.22143e-09
4.88169e-08
1.41398e-09
4.89793e-08
1.54911e-09
4.91694e-08
1.62786e-09
4.93702e-08
1.65542e-09
1.64014e-09
4.95655e-08
6.155e-08
-3.93329e-10
6.15532e-08
-4.48228e-10
6.15537e-08
-5.08041e-10
6.15534e-08
-5.71827e-10
6.15549e-08
-6.38197e-10
6.15613e-08
-7.06927e-10
6.15763e-08
-7.74983e-10
6.1601e-08
-8.4455e-10
6.16388e-08
-9.18883e-10
6.16941e-08
-9.98454e-10
6.17686e-08
-1.0857e-09
6.18628e-08
-1.18495e-09
6.19773e-08
-1.30133e-09
6.21126e-08
-1.43988e-09
6.22685e-08
-1.60565e-09
6.24438e-08
-1.80363e-09
6.26364e-08
-2.03791e-09
6.28428e-08
-2.31013e-09
6.30583e-08
-2.62203e-09
6.32762e-08
-2.96958e-09
6.34854e-08
-3.34943e-09
6.36716e-08
-3.77488e-09
6.379e-08
-3.67107e-09
6.38284e-08
-3.37861e-09
6.38008e-08
-3.11759e-09
6.3725e-08
-2.8789e-09
6.35972e-08
-2.64187e-09
6.34166e-08
-2.38614e-09
6.31981e-08
-2.11385e-09
6.29546e-08
-1.82563e-09
6.26964e-08
-1.51966e-09
6.24349e-08
-1.19715e-09
6.2182e-08
-8.61872e-10
6.19497e-08
-5.201e-10
6.17495e-08
-1.80018e-10
6.15908e-08
1.49325e-10
6.14818e-08
4.57611e-10
6.14262e-08
7.35864e-10
6.14244e-08
9.76353e-10
6.14725e-08
1.17334e-09
6.15627e-08
1.32375e-09
6.16844e-08
1.42748e-09
6.18249e-08
1.48727e-09
6.1972e-08
1.50837e-09
1.49769e-09
6.21144e-08
7.84471e-08
-4.1146e-10
7.84639e-08
-4.65048e-10
7.84798e-08
-5.23974e-10
7.84959e-08
-5.87915e-10
7.8514e-08
-6.56269e-10
7.85356e-08
-7.28552e-10
7.85651e-08
-8.04488e-10
7.86048e-08
-8.84262e-10
7.86556e-08
-9.69685e-10
7.87198e-08
-1.06266e-09
7.87993e-08
-1.16516e-09
7.88949e-08
-1.28057e-09
7.90067e-08
-1.41309e-09
7.9134e-08
-1.56725e-09
7.92758e-08
-1.74741e-09
7.94299e-08
-1.95769e-09
7.95932e-08
-2.20125e-09
7.97615e-08
-2.47848e-09
7.99293e-08
-2.7898e-09
8.00886e-08
-3.12891e-09
8.02279e-08
-3.48869e-09
8.0332e-08
-3.87903e-09
8.03587e-08
-3.69769e-09
8.03217e-08
-3.34161e-09
8.02366e-08
-3.03254e-09
8.00989e-08
-2.74119e-09
7.99043e-08
-2.44732e-09
7.9669e-08
-2.15076e-09
7.94072e-08
-1.85209e-09
7.91288e-08
-1.54724e-09
7.88446e-08
-1.23542e-09
7.85656e-08
-9.18196e-10
7.83032e-08
-5.99446e-10
7.8068e-08
-2.84893e-10
7.78682e-08
1.97888e-11
7.77113e-08
3.06197e-10
7.76016e-08
5.67298e-10
7.75399e-08
7.97566e-10
7.75239e-08
9.92389e-10
7.75482e-08
1.14904e-09
7.7605e-08
1.26689e-09
7.76852e-08
1.34736e-09
7.77787e-08
1.39369e-09
7.78766e-08
1.41054e-09
1.40335e-09
7.79709e-08
9.88506e-08
-4.44136e-10
9.88836e-08
-4.98041e-10
9.89172e-08
-5.57584e-10
9.89521e-08
-6.22846e-10
9.89896e-08
-6.93767e-10
9.90314e-08
-7.70325e-10
9.90796e-08
-8.52761e-10
9.91368e-08
-9.41377e-10
9.92042e-08
-1.03716e-09
9.92835e-08
-1.14191e-09
9.9376e-08
-1.25769e-09
9.94825e-08
-1.38703e-09
9.96026e-08
-1.5332e-09
9.97352e-08
-1.69984e-09
9.98782e-08
-1.89048e-09
1.00029e-07
-2.10813e-09
1.00182e-07
-2.35485e-09
1.00334e-07
-2.62976e-09
1.00475e-07
-2.93164e-09
1.00598e-07
-3.2519e-09
1.00691e-07
-3.5813e-09
1.00729e-07
-3.91696e-09
1.00695e-07
-3.66396e-09
1.00612e-07
-3.25822e-09
1.00475e-07
-2.89524e-09
1.00278e-07
-2.54483e-09
1.00037e-07
-2.20657e-09
9.9768e-08
-1.88137e-09
9.94792e-08
-1.56326e-09
9.91814e-08
-1.24943e-09
9.88853e-08
-9.39292e-10