/*--------------------------------*- C++ -*----------------------------------*\
| =========                 |                                                 |
| \\      /  F ield         | OpenFOAM: The Open Source CFD Toolbox           |
|  \\    /   O peration     | Version:  2312                                  |
|   \\  /    A nd           | Website:  www.openfoam.com                      |
|    \\/     M anipulation  |                                                 |
\*---------------------------------------------------------------------------*/
FoamFile
{
    version     2.0;
    format      ascii;
    arch        "LSB;label=32;scalar=64";
    class       volScalarField;
    location    "133";
    object      p;
}
// * * * * * * * * * * * * * * * * * * * * * * * * * * * * * * * * * * * * * //

dimensions      [0 2 -2 0 0 0 0];

internalField   nonuniform List<scalar> 
4800
(
-2.46278e-13
-1.78834e-06
-3.25905e-06
-4.48392e-06
-5.51457e-06
-6.39019e-06
-7.14086e-06
-7.78931e-06
-8.36015e-06
-8.86563e-06
-9.31454e-06
-9.71283e-06
-1.00568e-05
-1.05756e-05
-1.22143e-05
2.08077e-08
-1.76348e-06
-3.23159e-06
-4.45514e-06
-5.48559e-06
-6.36215e-06
-7.11556e-06
-7.76841e-06
-8.34592e-06
-8.86165e-06
-9.32956e-06
-9.76934e-06
-1.01984e-05
-1.0725e-05
-1.15989e-05
4.30036e-08
-1.73692e-06
-3.20234e-06
-4.42462e-06
-5.45501e-06
-6.3326e-06
-7.08851e-06
-7.74388e-06
-8.32579e-06
-8.84927e-06
-9.32843e-06
-9.78402e-06
-1.0228e-05
-1.06721e-05
-1.1099e-05
6.58491e-08
-1.70913e-06
-3.17139e-06
-4.39192e-06
-5.42175e-06
-6.29969e-06
-7.05698e-06
-7.71429e-06
-8.29678e-06
-8.82183e-06
-9.29973e-06
-9.74202e-06
-1.0145e-05
-1.04806e-05
-1.06835e-05
9.10973e-08
-1.678e-06
-3.13635e-06
-4.35444e-06
-5.38291e-06
-6.26021e-06
-7.01705e-06
-7.67491e-06
-8.25403e-06
-8.77226e-06
-9.23579e-06
-9.64497e-06
-9.98499e-06
-1.02202e-05
-1.02982e-05
1.20193e-07
-1.64198e-06
-3.09548e-06
-4.31019e-06
-5.33623e-06
-6.21143e-06
-6.96555e-06
-7.61987e-06
-8.19132e-06
-8.69402e-06
-9.13054e-06
-9.49424e-06
-9.76752e-06
-9.92322e-06
-9.93482e-06
1.55103e-07
-1.59904e-06
-3.04658e-06
-4.25666e-06
-5.27869e-06
-6.14964e-06
-6.89796e-06
-7.54368e-06
-8.10129e-06
-8.58033e-06
-8.98049e-06
-9.2937e-06
-9.50656e-06
-9.60582e-06
-9.58572e-06
1.99194e-07
-1.54578e-06
-2.98601e-06
-4.1898e-06
-5.20567e-06
-6.06944e-06
-6.80798e-06
-7.43969e-06
-7.97675e-06
-8.42535e-06
-8.78475e-06
-9.04953e-06
-9.2138e-06
-9.2766e-06
-9.24402e-06
2.57604e-07
-1.47695e-06
-2.9082e-06
-4.10354e-06
-5.11047e-06
-5.96345e-06
-6.68764e-06
-7.29989e-06
-7.81055e-06
-8.22522e-06
-8.54441e-06
-8.76777e-06
-8.89686e-06
-8.93884e-06
-8.90493e-06
3.37083e-07
-1.38535e-06
-2.80542e-06
-3.98958e-06
-4.98418e-06
-5.82228e-06
-6.52754e-06
-7.11576e-06
-7.5969e-06
-7.97726e-06
-8.26086e-06
-8.45238e-06
-8.55893e-06
-8.59192e-06
-8.56386e-06
4.45172e-07
-1.26233e-06
-2.66803e-06
-3.8375e-06
-4.81585e-06
-5.63492e-06
-6.3173e-06
-6.87864e-06
-7.32976e-06
-7.6791e-06
-7.93436e-06
-8.10428e-06
-8.19923e-06
-8.23215e-06
-8.21498e-06
5.8919e-07
-1.09865e-06
-2.48536e-06
-3.63564e-06
-4.5934e-06
-5.38958e-06
-6.04643e-06
-6.58029e-06
-7.00375e-06
-7.32784e-06
-7.5632e-06
-7.72115e-06
-7.81347e-06
-7.85309e-06
-7.85065e-06
7.75678e-07
-8.85087e-07
-2.24629e-06
-3.37181e-06
-4.30445e-06
-5.07464e-06
-5.70495e-06
-6.21299e-06
-6.61335e-06
-6.91923e-06
-7.14316e-06
-7.29767e-06
-7.39469e-06
-7.44601e-06
-7.4612e-06
1.00974e-06
-6.12693e-07
-1.93959e-06
-3.03362e-06
-3.93652e-06
-4.67857e-06
-5.28297e-06
-5.76863e-06
-6.15167e-06
-6.44662e-06
-6.66684e-06
-6.82495e-06
-6.93228e-06
-6.99949e-06
-7.03475e-06
1.29437e-06
-2.73786e-07
-1.55462e-06
-2.60901e-06
-3.47735e-06
-4.18968e-06
-4.76974e-06
-5.23718e-06
-5.6088e-06
-5.89951e-06
-6.12254e-06
-6.28991e-06
-6.41199e-06
-6.49817e-06
-6.55558e-06
1.63008e-06
1.36408e-07
-1.08334e-06
-2.08793e-06
-2.91595e-06
-3.59675e-06
-4.15385e-06
-4.60674e-06
-4.97189e-06
-5.26365e-06
-5.49445e-06
-5.6753e-06
-5.81546e-06
-5.9231e-06
-6.00447e-06
2.01805e-06
6.20875e-07
-5.21525e-07
-1.4643e-06
-2.24465e-06
-2.89076e-06
-3.42491e-06
-3.86529e-06
-4.22709e-06
-4.52332e-06
-4.76512e-06
-4.9622e-06
-5.12272e-06
-5.25373e-06
-5.36068e-06
2.45356e-06
1.17757e-06
1.29274e-07
-7.38465e-07
-1.46196e-06
-2.0681e-06
-2.57692e-06
-3.00428e-06
-3.36324e-06
-3.66494e-06
-3.91886e-06
-4.13326e-06
-4.31509e-06
-4.47041e-06
-4.60399e-06
2.91145e-06
1.78825e-06
8.54862e-07
7.68754e-08
-5.78986e-07
-1.13741e-06
-1.61554e-06
-2.02617e-06
-2.37969e-06
-2.6849e-06
-2.94941e-06
-3.17987e-06
-3.38204e-06
-3.56089e-06
-3.72059e-06
3.36998e-06
2.42597e-06
1.63029e-06
9.56422e-07
3.78217e-07
-1.24447e-07
-5.65231e-07
-9.53746e-07
-1.29748e-06
-1.60274e-06
-1.8751e-06
-2.11959e-06
-2.34065e-06
-2.54226e-06
-2.72787e-06
3.7985e-06
3.03649e-06
2.38262e-06
1.816e-06
1.31829e-06
8.75125e-07
4.76525e-07
1.157e-07
-2.12404e-07
-5.12016e-07
-7.8699e-07
-1.04087e-06
-1.27691e-06
-1.498e-06
-1.70677e-06
4.14829e-06
3.53806e-06
3.00276e-06
2.52754e-06
2.09992e-06
1.71017e-06
1.35146e-06
1.0192e-06
7.10002e-07
4.20973e-07
1.49416e-07
-1.07192e-07
-3.51202e-07
-5.84688e-07
-8.09626e-07
4.42572e-06
3.92602e-06
3.47743e-06
3.06941e-06
2.69345e-06
2.34318e-06
2.01414e-06
1.70325e-06
1.40812e-06
1.1267e-06
8.57017e-07
5.97282e-07
3.45826e-07
1.01187e-07
-1.38081e-07
4.63605e-06
4.21516e-06
3.82826e-06
3.46837e-06
3.12984e-06
2.80863e-06
2.50179e-06
2.20712e-06
1.92281e-06
1.64729e-06
1.37907e-06
1.11684e-06
8.59384e-07
6.05612e-07
3.54418e-07
4.79401e-06
4.42815e-06
4.08476e-06
3.75928e-06
3.44796e-06
3.14809e-06
2.85757e-06
2.57468e-06
2.29795e-06
2.02615e-06
1.75812e-06
1.49292e-06
1.22962e-06
9.67486e-07
7.05718e-07
4.91136e-06
4.58347e-06
4.27049e-06
3.96931e-06
3.67721e-06
3.39227e-06
3.11285e-06
2.83755e-06
2.56518e-06
2.29474e-06
2.02539e-06
1.75641e-06
1.48714e-06
1.21703e-06
9.4549e-07
4.99691e-06
4.69511e-06
4.40317e-06
4.11875e-06
3.83974e-06
3.5647e-06
3.29229e-06
3.02134e-06
2.75089e-06
2.48016e-06
2.20846e-06
1.93525e-06
1.66e-06
1.38229e-06
1.10164e-06
5.05812e-06
4.77431e-06
4.49684e-06
4.22378e-06
3.95347e-06
3.68477e-06
3.41654e-06
3.14778e-06
2.87769e-06
2.60561e-06
2.33099e-06
2.05338e-06
1.77236e-06
1.48761e-06
1.19872e-06
5.10132e-06
4.83011e-06
4.56263e-06
4.29726e-06
4.03273e-06
3.76803e-06
3.50213e-06
3.23418e-06
2.96348e-06
2.68947e-06
2.41169e-06
2.12975e-06
1.84332e-06
1.55215e-06
1.25594e-06
5.13172e-06
4.8696e-06
4.60915e-06
4.34911e-06
4.08845e-06
3.82624e-06
3.56153e-06
3.29355e-06
3.02171e-06
2.74553e-06
2.46457e-06
2.17853e-06
1.88711e-06
1.59016e-06
1.28743e-06
5.15342e-06
4.8981e-06
4.64278e-06
4.38658e-06
4.12862e-06
3.86795e-06
3.60373e-06
3.33528e-06
3.06206e-06
2.78365e-06
2.49967e-06
2.20984e-06
1.91392e-06
1.61177e-06
1.30314e-06
5.16948e-06
4.91946e-06
4.66807e-06
4.41479e-06
4.15876e-06
3.89907e-06
3.63496e-06
3.36583e-06
3.09119e-06
2.81063e-06
2.52385e-06
2.23059e-06
1.93064e-06
1.62391e-06
1.31021e-06
5.18199e-06
4.93629e-06
4.68807e-06
4.43712e-06
4.18256e-06
3.92353e-06
3.65935e-06
3.38947e-06
3.11344e-06
2.83091e-06
2.54158e-06
2.24524e-06
1.94171e-06
1.63093e-06
1.31277e-06
5.19231e-06
4.95027e-06
4.70473e-06
4.45573e-06
4.20235e-06
3.9438e-06
3.67947e-06
3.40886e-06
3.13155e-06
2.84722e-06
2.5556e-06
2.25651e-06
1.9498e-06
1.63544e-06
1.31334e-06
5.20127e-06
4.96243e-06
4.71923e-06
4.47191e-06
4.21952e-06
3.96136e-06
3.69687e-06
3.42559e-06
3.14712e-06
2.86118e-06
2.56752e-06
2.26598e-06
1.95643e-06
1.63889e-06
1.31329e-06
5.20932e-06
4.97331e-06
4.73221e-06
4.48637e-06
4.23485e-06
3.97703e-06
3.7124e-06
3.44051e-06
3.16101e-06
2.87364e-06
2.57816e-06
2.27445e-06
1.96239e-06
1.64202e-06
1.31327e-06
5.21667e-06
4.9832e-06
4.74397e-06
4.49945e-06
4.24871e-06
3.99121e-06
3.72645e-06
3.45403e-06
3.17363e-06
2.88499e-06
2.58792e-06
2.28229e-06
1.96801e-06
1.64513e-06
1.31358e-06
5.22354e-06
4.99237e-06
4.75484e-06
4.5115e-06
4.26147e-06
4.00425e-06
3.73939e-06
3.46651e-06
3.18531e-06
2.89555e-06
2.59705e-06
2.28972e-06
1.97347e-06
1.64835e-06
1.31432e-06
5.23033e-06
5.00138e-06
4.76548e-06
4.52327e-06
4.27392e-06
4.01699e-06
3.75205e-06
3.47875e-06
3.1968e-06
2.90599e-06
2.60617e-06
2.29724e-06
1.97912e-06
1.65192e-06
1.31554e-06
5.23678e-06
5.00997e-06
4.77568e-06
4.53458e-06
4.28596e-06
4.02937e-06
3.76441e-06
3.49075e-06
3.20813e-06
2.91635e-06
2.61527e-06
2.30482e-06
1.98493e-06
1.6557e-06
1.31708e-06
-1.36393e-05
-1.14487e-05
-1.00905e-05
-9.17255e-06
-8.42835e-06
-7.84744e-06
-7.38797e-06
-7.02367e-06
-6.7391e-06
-6.52367e-06
-6.37058e-06
-6.27532e-06
-6.236e-06
-6.25386e-06
-6.3324e-06
-6.4792e-06
-6.70865e-06
-7.0426e-06
-7.50844e-06
-8.14227e-06
-8.97618e-06
-1.00154e-05
-1.1102e-05
-1.19423e-05
-1.23839e-05
-1.23872e-05
-1.195e-05
-1.10869e-05
-9.82418e-06
-8.19487e-06
-6.23573e-06
-3.98742e-06
-1.49541e-06
1.18964e-06
4.01218e-06
6.91263e-06
9.82804e-06
1.26917e-05
1.54301e-05
1.79559e-05
2.01487e-05
2.18474e-05
2.26747e-05
2.23031e-05
1.95245e-05
-1.20167e-05
-1.0895e-05
-9.87081e-06
-9.05414e-06
-8.35596e-06
-7.79137e-06
-7.33818e-06
-6.97692e-06
-6.69459e-06
-6.48157e-06
-6.33138e-06
-6.23964e-06
-6.20454e-06
-6.22742e-06
-6.31171e-06
-6.46486e-06
-6.70127e-06
-7.04252e-06
-7.51523e-06
-8.15431e-06
-8.99012e-06
-1.00259e-05
-1.11038e-05
-1.19333e-05
-1.23644e-05
-1.23589e-05
-1.19151e-05
-1.10473e-05
-9.78159e-06
-8.1516e-06
-6.19517e-06
-3.95457e-06
-1.47729e-06
1.18344e-06
3.96875e-06
6.81456e-06
9.65134e-06
1.24025e-05
1.49782e-05
1.72636e-05
1.90865e-05
2.01744e-05
1.99893e-05
1.77366e-05
1.24012e-05
-1.11594e-05
-1.04568e-05
-9.64368e-06
-8.91651e-06
-8.26928e-06
-7.72741e-06
-7.28401e-06
-6.92765e-06
-6.64851e-06
-6.43841e-06
-6.29153e-06
-6.2036e-06
-6.1731e-06
-6.20147e-06
-6.29203e-06
-6.4521e-06
-6.69612e-06
-7.04529e-06
-7.52532e-06
-8.16975e-06
-9.0069e-06
-1.00376e-05
-1.11043e-05
-1.19204e-05
-1.23387e-05
-1.23229e-05
-1.18717e-05
-1.09993e-05
-9.73197e-06
-8.10389e-06
-6.1544e-06
-3.92787e-06
-1.47443e-06
1.14936e-06
3.88035e-06
6.64865e-06
9.37669e-06
1.19761e-05
1.43399e-05
1.63279e-05
1.77345e-05
1.82504e-05
1.73837e-05
1.45698e-05
9.69018e-06
-1.06014e-05
-1.0094e-05
-9.43998e-06
-8.78431e-06
-8.18573e-06
-7.66833e-06
-7.23533e-06
-6.88373e-06
-6.6072e-06
-6.39927e-06
-6.255e-06
-6.17026e-06
-6.14395e-06
-6.17762e-06
-6.27444e-06
-6.44155e-06
-6.69343e-06
-7.05084e-06
-7.53843e-06
-8.18817e-06
-9.02612e-06
-1.00503e-05
-1.11034e-05
-1.19031e-05
-1.23056e-05
-1.22764e-05
-1.18154e-05
-1.09367e-05
-9.66686e-06
-8.04125e-06
-6.10121e-06
-3.89381e-06
-1.47261e-06
1.10164e-06
3.76057e-06
6.42761e-06
9.01636e-06
1.1427e-05
1.35386e-05
1.51965e-05
1.61925e-05
1.62516e-05
1.50341e-05
1.22696e-05
8.20194e-06
-1.01631e-05
-9.77026e-06
-9.23755e-06
-8.66564e-06
-8.11352e-06
-7.6204e-06
-7.19778e-06
-6.85048e-06
-6.57562e-06
-6.36863e-06
-6.22544e-06
-6.14329e-06
-6.12044e-06
-6.15895e-06
-6.26178e-06
-6.43582e-06
-6.69562e-06
-7.06136e-06
-7.55641e-06
-8.21096e-06
-9.04852e-06
-1.0064e-05
-1.11003e-05
-1.18804e-05
-1.22641e-05
-1.22193e-05
-1.17471e-05
-1.08619e-05
-9.59082e-06
-7.97081e-06
-6.04563e-06
-3.86562e-06
-1.48832e-06
1.0208e-06
3.58773e-06
6.12913e-06
8.5507e-06
1.07441e-05
1.25816e-05
1.39102e-05
1.45459e-05
1.4287e-05
1.29511e-05
1.0481e-05
7.14628e-06
-9.79194e-06
-9.47865e-06
-9.0382e-06
-8.54825e-06
-8.04987e-06
-7.58284e-06
-7.17384e-06
-6.83195e-06
-6.5584e-06
-6.35134e-06
-6.20833e-06
-6.12714e-06
-6.10665e-06
-6.14921e-06
-6.25745e-06
-6.43798e-06
-6.70543e-06
-7.07922e-06
-7.58117e-06
-8.23944e-06
-9.07472e-06
-1.00783e-05
-1.10938e-05
-1.18504e-05
-1.22121e-05
-1.21494e-05
-1.16651e-05
-1.07742e-05
-9.50459e-06
-7.89519e-06
-5.99264e-06
-3.85095e-06
-1.53204e-06
8.93724e-07
3.34685e-06
5.73824e-06
7.96815e-06
9.92487e-06
1.14834e-05
1.25067e-05
1.2854e-05
1.24016e-05
1.10863e-05
8.96814e-06
6.30088e-06
-9.45336e-06
-9.2014e-06
-8.84399e-06
-8.42435e-06
-7.98086e-06
-7.55122e-06
-7.16227e-06
-6.82936e-06
-6.55857e-06
-6.35145e-06
-6.2078e-06
-6.12645e-06
-6.10711e-06
-6.15267e-06
-6.26535e-06
-6.45147e-06
-6.72588e-06
-7.10693e-06
-7.61464e-06
-8.27485e-06
-9.1051e-06
-1.00926e-05
-1.10823e-05
-1.18108e-05
-1.21468e-05
-1.20637e-05
-1.15667e-05
-1.06715e-05
-9.40718e-06
-7.81509e-06
-5.94504e-06
-3.85504e-06
-1.61143e-06
7.10781e-07
3.02763e-06
5.24631e-06
7.26557e-06
8.97678e-06
1.02669e-05
1.10257e-05
1.11588e-05
1.061e-05
9.38959e-06
7.60252e-06
5.45999e-06
-9.12825e-06
-8.92523e-06
-8.63765e-06
-8.28706e-06
-7.90322e-06
-7.51784e-06
-7.15713e-06
-6.83956e-06
-6.57562e-06
-6.37052e-06
-6.22681e-06
-6.14501e-06
-6.12599e-06
-6.17357e-06
-6.2895e-06
-6.47999e-06
-6.76022e-06
-7.1472e-06
-7.65877e-06
-8.31824e-06
-9.13973e-06
-1.0106e-05
-1.10635e-05
-1.17584e-05
-1.20646e-05
-1.19587e-05
-1.14488e-05
-1.05518e-05
-9.29826e-06
-7.73228e-06
-5.9071e-06
-3.8847e-06
-1.73553e-06
4.61727e-07
2.62051e-06
4.64744e-06
6.4445e-06
7.91258e-06
8.95752e-06
9.49957e-06
9.4866e-06
8.90948e-06
7.81611e-06
6.31673e-06
4.57558e-06
-8.8077e-06
-8.64524e-06
-8.41626e-06
-8.1307e-06
-7.80816e-06
-7.47306e-06
-7.14897e-06
-6.85502e-06
-6.6046e-06
-6.40616e-06
-6.26516e-06
-6.18419e-06
-6.16573e-06
-6.215e-06
-6.33306e-06
-6.52651e-06
-6.81131e-06
-7.20238e-06
-7.71512e-06
-8.37019e-06
-9.17803e-06
-1.01164e-05
-1.10345e-05
-1.16895e-05
-1.19617e-05
-1.1831e-05
-1.1309e-05
-1.0414e-05
-9.17885e-06
-7.65039e-06
-5.88519e-06
-3.94883e-06
-1.91494e-06
1.35859e-07
2.11707e-06
3.93855e-06
5.51026e-06
6.74756e-06
7.57834e-06
7.95186e-06
7.84844e-06
7.28672e-06
6.32792e-06
5.07097e-06
3.63993e-06
-8.4862e-06
-8.35881e-06
-8.1797e-06
-7.95281e-06
-7.68982e-06
-7.40831e-06
-7.12766e-06
-6.86574e-06
-6.63696e-06
-6.4519e-06
-6.31859e-06
-6.24164e-06
-6.22561e-06
-6.27748e-06
-6.39691e-06
-6.5922e-06
-6.88049e-06
-7.27339e-06
-7.78391e-06
-8.42999e-06
-9.21818e-06
-1.0121e-05
-1.0991e-05
-1.15997e-05
-1.18337e-05
-1.16773e-05
-1.11454e-05
-1.02585e-05
-9.05189e-06
-7.57526e-06
-5.88789e-06
-4.05807e-06
-2.16106e-06
-2.76955e-07
1.51104e-06
3.11982e-06
4.47113e-06
5.49733e-06
6.14792e-06
6.39598e-06
6.24389e-06
5.7225e-06
4.89306e-06
3.83797e-06
2.65e-06
-8.15787e-06
-8.0622e-06
-7.92649e-06
-7.75189e-06
-7.5449e-06
-7.31745e-06
-7.0845e-06
-6.86144e-06
-6.66213e-06
-6.49805e-06
-6.37895e-06
-6.311e-06
-6.30091e-06
-6.35743e-06
-6.47793e-06
-6.67499e-06
-6.96658e-06
-7.35873e-06
-7.86295e-06
-8.49473e-06
-9.25641e-06
-1.0115e-05
-1.09283e-05
-1.1484e-05
-1.16769e-05
-1.14953e-05
-1.09581e-05
-1.00879e-05
-8.92305e-06
-7.51554e-06
-5.92616e-06
-4.22451e-06
-2.4854e-06
-7.85436e-07
7.98834e-07
2.19444e-06
3.33704e-06
4.17605e-06
4.67927e-06
4.83608e-06
4.66462e-06
4.19557e-06
3.48432e-06
2.59696e-06
1.60279e-06
-7.81519e-06
-7.74939e-06
-7.65266e-06
-7.52502e-06
-7.36993e-06
-7.19519e-06
-7.0118e-06
-6.83224e-06
-6.66886e-06
-6.53299e-06
-6.43501e-06
-6.38212e-06
-6.38377e-06
-6.44627e-06
-6.56803e-06
-6.76938e-06
-7.06476e-06
-7.45357e-06
-7.9469e-06
-8.5587e-06
-9.28663e-06
-1.00926e-05
-1.08406e-05
-1.13378e-05
-1.14883e-05
-1.12851e-05
-1.07502e-05
-9.90844e-06
-8.80157e-06
-7.48318e-06
-6.01331e-06
-4.46112e-06
-2.89868e-06
-1.39605e-06
-2.01911e-08
1.1679e-06
2.11809e-06
2.79517e-06
3.18155e-06
3.27836e-06
3.10012e-06
2.68554e-06
2.0789e-06
1.33103e-06
4.93825e-07
-7.44855e-06
-7.41177e-06
-7.35112e-06
-7.26638e-06
-7.15934e-06
-7.03505e-06
-6.90134e-06
-6.76795e-06
-6.6452e-06
-6.54359e-06
-6.47316e-06
-6.44148e-06
-6.46106e-06
-6.53276e-06
-6.65947e-06
-6.86714e-06
-7.16396e-06
-7.54816e-06
-8.02656e-06
-8.61305e-06
-9.30035e-06
-1.00461e-05
-1.07223e-05
-1.11575e-05
-1.12677e-05
-1.10504e-05
-1.05291e-05
-9.73037e-06
-8.70078e-06
-7.49328e-06
-6.1643e-06
-4.78075e-06
-3.40976e-06
-2.11214e-06
-9.43494e-07
4.75988e-08
8.23733e-07
1.36163e-06
1.65311e-06
1.70428e-06
1.53404e-06
1.17291e-06
6.57062e-07
2.5512e-08
-6.82888e-07
-7.04594e-06
-7.03783e-06
-7.01148e-06
-6.96667e-06
-6.90442e-06
-6.82802e-06
-6.74303e-06
-6.65684e-06
-6.57781e-06
-6.51497e-06
-6.47749e-06
-6.47339e-06
-6.5129e-06
-6.60021e-06
-6.74023e-06
-6.95478e-06
-7.25124e-06
-7.6265e-06
-8.08877e-06
-8.64603e-06
-9.28719e-06
-9.96776e-06
-1.05693e-05
-1.09423e-05
-1.10184e-05
-1.07995e-05
-1.03067e-05
-9.56895e-06
-8.63799e-06
-7.56307e-06
-6.39409e-06
-5.1947e-06
-4.02456e-06
-2.93344e-06
-1.96535e-06
-1.15752e-06
-5.36787e-07
-1.17759e-07
9.71446e-08
1.16173e-07
-4.32906e-08
-3.56684e-07
-7.95662e-07
-1.33074e-06
-1.93293e-06
-6.59194e-06
-6.61276e-06
-6.61954e-06
-6.61254e-06
-6.59248e-06
-6.56154e-06
-6.52375e-06
-6.48468e-06
-6.45091e-06
-6.4299e-06
-6.42948e-06
-6.45722e-06
-6.52178e-06
-6.63088e-06
-6.78933e-06
-7.01098e-06
-7.30585e-06
-7.67386e-06
-8.11862e-06
-8.64387e-06
-9.23559e-06
-9.85015e-06
-1.03797e-05
-1.06953e-05
-1.07486e-05
-1.0545e-05
-1.00983e-05
-9.44283e-06
-8.63495e-06
-7.70995e-06
-6.715e-06
-5.71066e-06
-4.74489e-06
-3.85574e-06
-3.07724e-06
-2.43731e-06
-1.95464e-06
-1.63791e-06
-1.48661e-06
-1.49261e-06
-1.64154e-06
-1.91426e-06
-2.28958e-06
-2.74546e-06
-3.26022e-06
-6.06722e-06
-6.11742e-06
-6.15705e-06
-6.18663e-06
-6.20697e-06
-6.21902e-06
-6.22672e-06
-6.23401e-06
-6.24594e-06
-6.26846e-06
-6.30819e-06
-6.37183e-06
-6.46715e-06
-6.60127e-06
-6.78001e-06
-7.01313e-06
-7.30928e-06
-7.67094e-06
-8.09778e-06
-8.59089e-06
-9.13395e-06
-9.6868e-06
-1.01531e-05
-1.04242e-05
-1.04734e-05
-1.03021e-05
-9.9199e-06
-9.38125e-06
-8.71242e-06
-7.943e-06
-7.13495e-06
-6.33271e-06
-5.56856e-06
-4.87171e-06
-4.26903e-06
-3.78139e-06
-3.42153e-06
-3.19445e-06
-3.09862e-06
-3.12707e-06
-3.2687e-06
-3.50905e-06
-3.83314e-06
-4.22477e-06
-4.66786e-06
-5.45117e-06
-5.5315e-06
-5.60374e-06
-5.66864e-06
-5.7271e-06
-5.78138e-06
-5.83296e-06
-5.88546e-06
-5.94291e-06
-6.00982e-06
-6.09159e-06
-6.19397e-06
-6.32335e-06
-6.48598e-06
-6.68787e-06
-6.93637e-06
-7.2377e-06
-7.59518e-06
-8.00694e-06
-8.47131e-06
-8.97248e-06
-9.47481e-06
-9.8917e-06
-1.01411e-05
-1.021e-05
-1.00816e-05
-9.80725e-06
-9.40843e-06
-8.87193e-06
-8.27388e-06
-7.66194e-06
-7.06067e-06
-6.48967e-06
-5.97251e-06
-5.53105e-06
-5.18074e-06
-4.93019e-06
-4.78263e-06
-4.73687e-06
-4.78796e-06
-4.92767e-06
-5.14627e-06
-5.43174e-06
-5.77279e-06
-6.158e-06
-4.72331e-06
-4.83465e-06
-4.94013e-06
-5.04079e-06
-5.13767e-06
-5.23186e-06
-5.32541e-06
-5.4216e-06
-5.52395e-06
-5.63541e-06
-5.75997e-06
-5.90249e-06
-6.0683e-06
-6.26268e-06
-6.49096e-06
-6.75847e-06
-7.06979e-06
-7.42753e-06
-7.83044e-06
-8.2741e-06
-8.74502e-06
-9.21524e-06
-9.60732e-06
-9.86413e-06
-9.96765e-06
-9.9269e-06
-9.78028e-06
-9.49744e-06
-9.12458e-06
-8.71803e-06
-8.30303e-06
-7.89145e-06
-7.50012e-06
-7.14916e-06
-6.85525e-06
-6.6292e-06
-6.47688e-06
-6.40083e-06
-6.40101e-06
-6.47479e-06
-6.6176e-06
-6.82305e-06
-7.08201e-06
-7.38515e-06
-7.72465e-06
-3.8684e-06
-4.01026e-06
-4.14802e-06
-4.28295e-06
-4.41655e-06
-4.55028e-06
-4.686e-06
-4.82548e-06
-4.97188e-06
-5.12756e-06
-5.29554e-06
-5.47966e-06
-5.68433e-06
-5.91364e-06
-6.17191e-06
-6.46316e-06
-6.79051e-06
-7.15643e-06
-7.55935e-06
-7.99512e-06
-8.45377e-06
-8.91167e-06
-9.31329e-06
-9.60854e-06
-9.77775e-06
-9.84352e-06
-9.80257e-06
-9.67137e-06
-9.48389e-06
-9.26771e-06
-9.03725e-06
-8.80355e-06
-8.5816e-06
-8.38649e-06
-8.22974e-06
-8.11904e-06
-8.05897e-06
-8.05189e-06
-8.09837e-06
-8.19698e-06
-8.3457e-06
-8.54213e-06
-8.78075e-06
-9.05422e-06
-9.35717e-06
-2.90415e-06
-3.07618e-06
-3.24524e-06
-3.41208e-06
-3.57821e-06
-3.74634e-06
-3.91886e-06
-4.0986e-06
-4.28577e-06
-4.48229e-06
-4.69155e-06
-4.91683e-06
-5.16118e-06
-5.42768e-06
-5.71961e-06
-6.04012e-06
-6.3916e-06
-6.77579e-06
-7.19214e-06
-7.63734e-06
-8.10523e-06
-8.58151e-06
-9.01785e-06
-9.3735e-06
-9.63988e-06
-9.81379e-06
-9.90374e-06
-9.93751e-06
-9.93159e-06
-9.89438e-06
-9.83628e-06
-9.76973e-06
-9.70643e-06
-9.65608e-06
-9.62649e-06
-9.62354e-06
-9.65157e-06
-9.71342e-06
-9.81003e-06
-9.94156e-06
-1.01059e-05
-1.02986e-05
-1.05185e-05
-1.07663e-05
-1.10393e-05
-1.90912e-06
-2.10967e-06
-2.30978e-06
-2.51098e-06
-2.71322e-06
-2.91643e-06
-3.12263e-06
-3.33925e-06
-3.56637e-06
-3.80389e-06
-4.05406e-06
-4.31981e-06
-4.60368e-06
-4.90808e-06
-5.23555e-06
-5.58866e-06
-5.9694e-06
-6.37942e-06
-6.81883e-06
-7.28634e-06
-7.7789e-06
-8.28827e-06
-8.7773e-06
-9.20572e-06
-9.56012e-06
-9.84526e-06
-1.00752e-05
-1.02601e-05
-1.04041e-05
-1.05141e-05
-1.06007e-05
-1.0674e-05
-1.07418e-05
-1.08104e-05
-1.08858e-05
-1.09729e-05
-1.1075e-05
-1.11949e-05
-1.13338e-05
-1.14922e-05
-1.16713e-05
-1.18714e-05
-1.20911e-05
-1.23279e-05
-1.25805e-05
-1.03084e-06
-1.2525e-06
-1.47547e-06
-1.70018e-06
-1.93008e-06
-2.16863e-06
-2.41765e-06
-2.67142e-06
-2.93286e-06
-3.20598e-06
-3.49274e-06
-3.7947e-06
-4.11391e-06
-4.45266e-06
-4.81313e-06
-5.19746e-06
-5.60759e-06
-6.04509e-06
-6.51095e-06
-7.00518e-06
-7.5266e-06
-8.07212e-06
-8.60836e-06
-9.09595e-06
-9.52764e-06
-9.90837e-06
-1.02419e-05
-1.05312e-05
-1.07815e-05
-1.10002e-05
-1.11951e-05
-1.13728e-05
-1.15388e-05
-1.16978e-05
-1.18545e-05
-1.20125e-05
-1.2175e-05
-1.23444e-05
-1.25229e-05
-1.2712e-05
-1.29123e-05
-1.31246e-05
-1.33482e-05
-1.35824e-05
-1.3826e-05
-3.75984e-07
-6.16538e-07
-8.61275e-07
-1.11102e-06
-1.36724e-06
-1.63038e-06
-1.90117e-06
-2.17965e-06
-2.46826e-06
-2.76943e-06
-3.0844e-06
-3.41452e-06
-3.76163e-06
-4.12769e-06
-4.51457e-06
-4.92414e-06
-5.35822e-06
-5.81842e-06
-6.30609e-06
-6.82195e-06
-7.36613e-06
-7.9374e-06
-8.50654e-06
-9.03796e-06
-9.52379e-06
-9.96488e-06
-1.03627e-05
-1.0721e-05
-1.1045e-05
-1.13399e-05
-1.16107e-05
-1.18619e-05
-1.20979e-05
-1.23223e-05
-1.25384e-05
-1.27494e-05
-1.29579e-05
-1.31663e-05
-1.33762e-05
-1.3589e-05
-1.38053e-05
-1.40257e-05
-1.42512e-05
-1.44818e-05
-1.47165e-05
1.02409e-07
-1.53858e-07
-4.15439e-07
-6.83059e-07
-9.57288e-07
-1.23991e-06
-1.53088e-06
-1.83167e-06
-2.14376e-06
-2.46837e-06
-2.80665e-06
-3.15996e-06
-3.52986e-06
-3.91794e-06
-4.3258e-06
-4.75509e-06
-5.20747e-06
-5.68448e-06
-6.18753e-06
-6.71769e-06
-7.27564e-06
-7.86137e-06
-8.44923e-06
-9.00544e-06
-9.52125e-06
-9.99745e-06
-1.04361e-05
-1.08404e-05
-1.12139e-05
-1.15602e-05
-1.18828e-05
-1.2185e-05
-1.24701e-05
-1.27407e-05
-1.29996e-05
-1.32492e-05
-1.34916e-05
-1.37287e-05
-1.39619e-05
-1.41924e-05
-1.44214e-05
-1.465e-05
-1.48789e-05
-1.5108e-05
-1.53375e-05
4.41529e-07
1.71939e-07
-1.04162e-07
-3.87474e-07
-6.78849e-07
-9.78735e-07
-1.28812e-06
-1.60806e-06
-1.9394e-06
-2.28308e-06
-2.64021e-06
-3.01195e-06
-3.39956e-06
-3.80435e-06
-4.22768e-06
-4.67097e-06
-5.13566e-06
-5.62311e-06
-6.13468e-06
-6.67148e-06
-7.23443e-06
-7.82402e-06
-8.4171e-06
-8.98256e-06
-9.51254e-06
-1.00083e-05
-1.04714e-05
-1.09042e-05
-1.13092e-05
-1.16888e-05
-1.20457e-05
-1.23823e-05
-1.2701e-05
-1.30039e-05
-1.3293e-05
-1.35703e-05
-1.38375e-05
-1.40959e-05
-1.43471e-05
-1.45919e-05
-1.48318e-05
-1.50679e-05
-1.53007e-05
-1.55304e-05
-1.57575e-05
6.70131e-07
3.88161e-07
9.87427e-08
-1.98554e-07
-5.04274e-07
-8.19215e-07
-1.1441e-06
-1.47958e-06
-1.82637e-06
-2.18528e-06
-2.55721e-06
-2.9431e-06
-3.34395e-06
-3.76083e-06
-4.19487e-06
-4.6472e-06
-5.11905e-06
-5.61156e-06
-6.12591e-06
-6.66313e-06
-7.22412e-06
-7.80938e-06
-8.39829e-06
-8.96322e-06
-9.49732e-06
-1.00016e-05
-1.04774e-05
-1.09261e-05
-1.13498e-05
-1.17501e-05
-1.2129e-05
-1.24882e-05
-1.28295e-05
-1.31546e-05
-1.34649e-05
-1.37619e-05
-1.40471e-05
-1.43217e-05
-1.45867e-05
-1.48431e-05
-1.5092e-05
-1.53347e-05
-1.55715e-05
-1.58027e-05
-1.60291e-05
8.16064e-07
5.23157e-07
2.22231e-07
-8.68298e-08
-4.04888e-07
-7.32517e-07
-1.07015e-06
-1.41829e-06
-1.77753e-06
-2.1485e-06
-2.5319e-06
-2.92845e-06
-3.33895e-06
-3.76423e-06
-4.20518e-06
-4.6627e-06
-5.13775e-06
-5.63127e-06
-6.14423e-06
-6.67745e-06
-7.23174e-06
-7.80748e-06
-8.38659e-06
-8.94495e-06
-9.47653e-06
-9.98205e-06
-1.04624e-05
-1.09188e-05
-1.13525e-05
-1.17649e-05
-1.21573e-05
-1.2531e-05
-1.28873e-05
-1.32274e-05
-1.35524e-05
-1.38636e-05
-1.41619e-05
-1.44485e-05
-1.47241e-05
-1.49901e-05
-1.52465e-05
-1.54948e-05
-1.57353e-05
-1.59688e-05
-1.61958e-05
9.04019e-07
6.01707e-07
2.91085e-07
-2.83359e-08
-3.57057e-07
-6.95305e-07
-1.04344e-06
-1.40189e-06
-1.77109e-06
-2.15152e-06
-2.54368e-06
-2.94814e-06
-3.36548e-06
-3.79633e-06
-4.24136e-06
-4.70125e-06
-5.17674e-06
-5.66853e-06
-6.17738e-06
-6.7039e-06
-7.24876e-06
-7.81221e-06
-8.3785e-06
-8.92686e-06
-9.45194e-06
-9.95419e-06
-1.04342e-05
-1.08929e-05
-1.13312e-05
-1.17501e-05
-1.21504e-05
-1.25331e-05
-1.28991e-05
-1.32493e-05
-1.35846e-05
-1.39058e-05
-1.42138e-05
-1.45093e-05
-1.4793e-05
-1.50658e-05
-1.53291e-05
-1.55825e-05
-1.58269e-05
-1.60632e-05
-1.62919e-05
9.53371e-07
6.42571e-07
3.2335e-07
-4.95159e-09
-3.42556e-07
-6.89615e-07
-1.0464e-06
-1.41321e-06
-1.79035e-06
-2.17816e-06
-2.57701e-06
-2.98728e-06
-3.40939e-06
-3.84378e-06
-4.29094e-06
-4.75134e-06
-5.22552e-06
-5.71395e-06
-6.21721e-06
-6.73569e-06
-7.26994e-06
-7.82001e-06
-8.37229e-06
-8.90911e-06
-9.4257e-06
-9.92225e-06
-1.03992e-05
-1.08571e-05
-1.12966e-05
-1.17184e-05
-1.2123e-05
-1.25112e-05
-1.28834e-05
-1.32405e-05
-1.35829e-05
-1.39113e-05
-1.42264e-05
-1.45287e-05
-1.48189e-05
-1.50977e-05
-1.5366e-05
-1.56239e-05
-1.58722e-05
-1.61115e-05
-1.63426e-05
9.78122e-07
6.59744e-07
3.32994e-07
-2.82539e-09
-3.47888e-07
-7.02298e-07
-1.06622e-06
-1.43985e-06
-1.82337e-06
-2.21702e-06
-2.62101e-06
-3.03559e-06
-3.46104e-06
-3.89763e-06
-4.34567e-06
-4.80547e-06
-5.27738e-06
-5.76169e-06
-6.25878e-06
-6.76886e-06
-7.29231e-06
-7.82902e-06
-8.36735e-06
-8.89234e-06
-9.39974e-06
-9.88951e-06
-1.03619e-05
-1.08173e-05
-1.12562e-05
-1.16788e-05
-1.20855e-05
-1.24768e-05
-1.28531e-05
-1.32147e-05
-1.35622e-05
-1.38958e-05
-1.42163e-05
-1.45239e-05
-1.48193e-05
-1.51029e-05
-1.53755e-05
-1.56375e-05
-1.58894e-05
-1.61318e-05
-1.63655e-05
9.86837e-07
6.62944e-07
3.29858e-07
-1.23779e-08
-3.63784e-07
-7.24389e-07
-1.09428e-06
-1.47354e-06
-1.86229e-06
-2.26062e-06
-2.66866e-06
-3.08653e-06
-3.51437e-06
-3.95232e-06
-4.40054e-06
-4.85918e-06
-5.32843e-06
-5.80841e-06
-6.29932e-06
-6.80122e-06
-7.31434e-06
-7.83839e-06
-8.36348e-06
-8.8771e-06
-9.37539e-06
-9.85818e-06
-1.03256e-05
-1.07777e-05
-1.12149e-05
-1.16371e-05
-1.20447e-05
-1.24378e-05
-1.28166e-05
-1.31814e-05
-1.35325e-05
-1.38701e-05
-1.41946e-05
-1.45064e-05
-1.48059e-05
-1.50935e-05
-1.53699e-05
-1.56354e-05
-1.58906e-05
-1.61359e-05
-1.63723e-05
9.88681e-07
6.58938e-07
3.20337e-07
-2.74382e-08
-3.84296e-07
-7.50188e-07
-1.12513e-06
-1.50914e-06
-1.90224e-06
-2.30445e-06
-2.71578e-06
-3.13625e-06
-3.56588e-06
-4.0047e-06
-4.45274e-06
-4.91001e-06
-5.37654e-06
-5.85233e-06
-6.33742e-06
-6.83168e-06
-7.33526e-06
-7.84768e-06
-8.36063e-06
-8.86369e-06
-9.35341e-06
-9.82947e-06
-1.02919e-05
-1.07406e-05
-1.11756e-05
-1.15969e-05
-1.20046e-05
-1.23987e-05
-1.27792e-05
-1.31462e-05
-1.34999e-05
-1.38406e-05
-1.41683e-05
-1.44834e-05
-1.47863e-05
-1.50773e-05
-1.53567e-05
-1.56255e-05
-1.58835e-05
-1.61317e-05
-1.63706e-05
9.86547e-07
6.51691e-07
3.08336e-07
-4.42663e-08
-4.05858e-07
-7.76321e-07
-1.15562e-06
-1.5437e-06
-1.94052e-06
-2.346e-06
-2.76009e-06
-3.1827e-06
-3.61376e-06
-4.05319e-06
-4.50089e-06
-4.95678e-06
-5.42075e-06
-5.89266e-06
-6.37242e-06
-6.85978e-06
-7.35473e-06
-7.85667e-06
-8.35868e-06
-8.85218e-06
-9.33407e-06
-9.80394e-06
-1.02616e-05
-1.0707e-05
-1.11398e-05
-1.156e-05
-1.19674e-05
-1.2362e-05
-1.27436e-05
-1.31123e-05
-1.34681e-05
-1.38111e-05
-1.41415e-05
-1.44594e-05
-1.4765e-05
-1.50588e-05
-1.53409e-05
-1.56124e-05
-1.58731e-05
-1.61237e-05
-1.63649e-05
9.82862e-07
6.43626e-07
2.96088e-07
-6.0765e-08
-4.2651e-07
-8.00973e-07
-1.18407e-06
-1.5757e-06
-1.97575e-06
-2.38407e-06
-2.80053e-06
-3.22497e-06
-3.65723e-06
-4.09713e-06
-4.54449e-06
-4.99909e-06
-5.46073e-06
-5.92916e-06
-6.40415e-06
-6.88535e-06
-7.37262e-06
-7.86523e-06
-8.3575e-06
-8.84246e-06
-9.31734e-06
-9.78162e-06
-1.0235e-05
-1.06773e-05
-1.1108e-05
-1.1527e-05
-1.19341e-05
-1.23289e-05
-1.27114e-05
-1.30814e-05
-1.34389e-05
-1.37838e-05
-1.41163e-05
-1.44364e-05
-1.47445e-05
-1.50407e-05
-1.53249e-05
-1.55988e-05
-1.58618e-05
-1.61146e-05
-1.6358e-05
9.78926e-07
6.36065e-07
2.84708e-07
-7.58942e-08
-4.45315e-07
-8.23311e-07
-1.20977e-06
-1.60453e-06
-2.00741e-06
-2.41824e-06
-2.83679e-06
-3.26283e-06
-3.69614e-06
-4.13645e-06
-4.58349e-06
-5.03695e-06
-5.49653e-06
-5.96187e-06
-6.43266e-06
-6.90841e-06
-7.3889e-06
-7.87327e-06
-8.35693e-06
-8.83433e-06
-9.30299e-06
-9.76233e-06
-1.02119e-05
-1.06514e-05
-1.10802e-05
-1.14982e-05
-1.19048e-05
-1.22998e-05
-1.26829e-05
-1.3054e-05
-1.34129e-05
-1.37595e-05
-1.40937e-05
-1.44158e-05
-1.47258e-05
-1.50236e-05
-1.53104e-05
-1.55863e-05
-1.58513e-05
-1.61059e-05
-1.63511e-05
9.75321e-07
6.29495e-07
2.74674e-07
-8.9235e-08
-4.61925e-07
-8.43057e-07
-1.23249e-06
-1.63003e-06
-2.03544e-06
-2.44849e-06
-2.8689e-06
-3.29638e-06
-3.73064e-06
-4.17132e-06
-4.6181e-06
-5.07057e-06
-5.52835e-06
-5.991e-06
-6.45809e-06
-6.92907e-06
-7.40359e-06
-7.88072e-06
-8.3568e-06
-8.82755e-06
-9.29076e-06
-9.74574e-06
-1.0192e-05
-1.0629e-05
-1.10562e-05
-1.14731e-05
-1.18794e-05
-1.22745e-05
-1.26583e-05
-1.30303e-05
-1.33903e-05
-1.37383e-05
-1.40741e-05
-1.43978e-05
-1.47096e-05
-1.5009e-05
-1.52977e-05
-1.55753e-05
-1.5842e-05
-1.60982e-05
-1.6345e-05
9.72675e-07
6.24009e-07
2.66137e-07
-1.00717e-07
-4.76293e-07
-8.60204e-07
-1.25228e-06
-1.65228e-06
-2.05994e-06
-2.47497e-06
-2.89704e-06
-3.32582e-06
-3.76093e-06
-4.20198e-06
-4.64855e-06
-5.10018e-06
-5.55641e-06
-6.01672e-06
-6.48061e-06
-6.94742e-06
-7.41674e-06
-7.88753e-06
-8.35696e-06
-8.8219e-06
-9.28035e-06
-9.73154e-06
-1.01749e-05
-1.06097e-05
-1.10355e-05
-1.14516e-05
-1.18576e-05
-1.22529e-05
-1.26371e-05
-1.30099e-05
-1.3371e-05
-1.37202e-05
-1.40574e-05
-1.43825e-05
-1.46958e-05
-1.49966e-05
-1.5287e-05
-1.5566e-05
-1.58341e-05
-1.60917e-05
-1.63399e-05
9.70814e-07
6.19525e-07
2.58978e-07
-1.10512e-07
-4.88648e-07
-8.75037e-07
-1.26947e-06
-1.67168e-06
-2.08135e-06
-2.49815e-06
-2.92172e-06
-3.35167e-06
-3.78757e-06
-4.22897e-06
-4.67539e-06
-5.12633e-06
-5.58124e-06
-6.03953e-06
-6.50063e-06
-6.9638e-06
-7.42857e-06
-7.89379e-06
-8.35734e-06
-8.81712e-06
-9.27138e-06
-9.71927e-06
-1.01601e-05
-1.05931e-05
-1.10176e-05
-1.1433e-05
-1.18388e-05