/*--------------------------------*- C++ -*----------------------------------*\
| =========                 |                                                 |
| \\      /  F ield         | OpenFOAM: The Open Source CFD Toolbox           |
|  \\    /   O peration     | Version:  2312                                  |
|   \\  /    A nd           | Website:  www.openfoam.com                      |
|    \\/     M anipulation  |                                                 |
\*---------------------------------------------------------------------------*/
FoamFile
{
    version     2.0;
    format      ascii;
    arch        "LSB;label=32;scalar=64";
    class       volScalarField;
    location    "62.5";
    object      p;
}
// * * * * * * * * * * * * * * * * * * * * * * * * * * * * * * * * * * * * * //

dimensions      [0 2 -2 0 0 0 0];

internalField   nonuniform List<scalar> 
4800
(
-2.04382e-11
-9.45236e-07
-1.70661e-06
-2.33475e-06
-2.88592e-06
-3.37264e-06
-3.8035e-06
-4.19077e-06
-4.54368e-06
-4.86747e-06
-5.1659e-06
-5.43861e-06
-5.67708e-06
-6.12208e-06
-7.72494e-06
1.11083e-08
-9.34137e-07
-1.69583e-06
-2.32453e-06
-2.87659e-06
-3.36481e-06
-3.79785e-06
-4.18834e-06
-4.5464e-06
-4.87913e-06
-5.19499e-06
-5.50686e-06
-5.82614e-06
-6.25908e-06
-7.04358e-06
2.25187e-08
-9.22553e-07
-1.68463e-06
-2.31367e-06
-2.8657e-06
-3.35504e-06
-3.78979e-06
-4.18279e-06
-4.54479e-06
-4.88367e-06
-5.20901e-06
-5.53405e-06
-5.86415e-06
-6.20358e-06
-6.52245e-06
3.37545e-08
-9.10558e-07
-1.67242e-06
-2.30165e-06
-2.85247e-06
-3.34246e-06
-3.7781e-06
-4.17196e-06
-4.53498e-06
-4.87424e-06
-5.19654e-06
-5.50631e-06
-5.79265e-06
-6.02081e-06
-6.11698e-06
4.60314e-08
-8.96863e-07
-1.6577e-06
-2.28744e-06
-2.83502e-06
-3.32469e-06
-3.76013e-06
-4.15256e-06
-4.51251e-06
-4.84481e-06
-5.15126e-06
-5.42662e-06
-5.64923e-06
-5.77806e-06
-5.7563e-06
6.08203e-08
-8.79978e-07
-1.63883e-06
-2.2689e-06
-2.812e-06
-3.29905e-06
-3.73226e-06
-4.12004e-06
-4.47146e-06
-4.78838e-06
-5.06738e-06
-5.29693e-06
-5.45366e-06
-5.50629e-06
-5.42583e-06
8.06191e-08
-8.57484e-07
-1.61338e-06
-2.24175e-06
-2.78107e-06
-3.26243e-06
-3.68977e-06
-4.06853e-06
-4.40505e-06
-4.69832e-06
-4.94139e-06
-5.12126e-06
-5.21976e-06
-5.22032e-06
-5.11517e-06
1.09816e-07
-8.25269e-07
-1.57731e-06
-2.20184e-06
-2.73674e-06
-3.20971e-06
-3.62666e-06
-3.99111e-06
-4.30633e-06
-4.56943e-06
-4.77269e-06
-4.90576e-06
-4.95853e-06
-4.92701e-06
-4.81509e-06
1.55254e-07
-7.76994e-07
-1.52437e-06
-2.14369e-06
-2.67165e-06
-3.13328e-06
-3.53531e-06
-3.88015e-06
-4.16885e-06
-4.39826e-06
-4.56251e-06
-4.65611e-06
-4.67654e-06
-4.62782e-06
-4.51865e-06
2.26327e-07
-7.03844e-07
-1.44597e-06
-2.05865e-06
-2.57707e-06
-3.02405e-06
-3.40699e-06
-3.72791e-06
-3.98712e-06
-4.18283e-06
-4.3126e-06
-4.376e-06
-4.37597e-06
-4.32056e-06
-4.21945e-06
3.34492e-07
-5.94757e-07
-1.33123e-06
-1.93581e-06
-2.44243e-06
-2.87195e-06
-3.23268e-06
-3.52728e-06
-3.75687e-06
-3.92207e-06
-4.02416e-06
-4.06673e-06
-4.05587e-06
-4.00095e-06
-3.91092e-06
4.92747e-07
-4.36873e-07
-1.16742e-06
-1.76266e-06
-2.25587e-06
-2.66637e-06
-3.00365e-06
-3.27214e-06
-3.47484e-06
-3.61512e-06
-3.69731e-06
-3.72756e-06
-3.71332e-06
-3.66375e-06
-3.58655e-06
7.16121e-07
-2.15336e-07
-9.39803e-07
-1.52524e-06
-2.00459e-06
-2.39638e-06
-2.71161e-06
-2.95706e-06
-3.13813e-06
-3.26054e-06
-3.3307e-06
-3.35602e-06
-3.34416e-06
-3.30342e-06
-3.24018e-06
1.02302e-06
8.75953e-08
-6.30623e-07
-1.20741e-06
-1.67425e-06
-2.05007e-06
-2.34757e-06
-2.57586e-06
-2.74251e-06
-2.85497e-06
-2.92078e-06
-2.94769e-06
-2.943e-06
-2.91395e-06
-2.86582e-06
1.4365e-06
4.9289e-07
-2.195e-07
-7.90343e-07
-1.24828e-06
-1.61349e-06
-1.90036e-06
-2.11974e-06
-2.2807e-06
-2.39174e-06
-2.4608e-06
-2.49552e-06
-2.50258e-06
-2.48829e-06
-2.45704e-06
1.98289e-06
1.04889e-06
3.18853e-07
-2.52891e-07
-7.08216e-07
-1.0708e-06
-1.35647e-06
-1.57702e-06
-1.74224e-06
-1.86096e-06
-1.94119e-06
-1.99021e-06
-2.01414e-06
-2.01848e-06
-2.00708e-06
2.6793e-06
1.7369e-06
1.00285e-06
4.24444e-07
-3.6876e-08
-4.06829e-07
-7.0237e-07
-9.35493e-07
-1.11589e-06
-1.25227e-06
-1.35237e-06
-1.42307e-06
-1.47006e-06
-1.49824e-06
-1.51112e-06
3.54008e-06
2.5934e-06
1.84861e-06
1.25608e-06
7.78739e-07
3.89807e-07
7.21073e-08
-1.85956e-07
-3.93552e-07
-5.58832e-07
-6.89065e-07
-7.90661e-07
-8.68907e-07
-9.28271e-07
-9.72058e-07
4.56688e-06
3.62071e-06
2.86206e-06
2.24893e-06
1.74521e-06
1.32533e-06
9.73216e-07
6.7801e-07
4.31173e-07
2.25234e-07
5.3579e-08
-8.96079e-08
-2.0922e-07
-3.09391e-07
-3.93351e-07
5.74539e-06
4.80494e-06
4.03365e-06
3.39452e-06
2.85565e-06
2.39487e-06
1.99804e-06
1.65529e-06
1.35867e-06
1.1013e-06
8.77218e-07
6.81257e-07
5.08973e-07
3.56594e-07
2.20968e-07
6.90946e-06
5.99223e-06
5.21407e-06
4.54741e-06
3.96833e-06
3.46013e-06
3.01137e-06
2.61338e-06
2.25902e-06
1.94223e-06
1.6578e-06
1.40122e-06
1.16856e-06
9.5645e-07
7.61992e-07
7.90608e-06
7.00591e-06
6.22446e-06
5.53563e-06
4.92237e-06
4.37303e-06
3.8785e-06
3.43121e-06
3.02476e-06
2.65376e-06
2.31366e-06
2.00055e-06
1.71101e-06
1.44216e-06
1.19147e-06
8.64425e-06
7.77185e-06
6.99408e-06
6.29358e-06
5.65862e-06
5.08047e-06
4.55172e-06
4.06591e-06
3.6175e-06
3.2019e-06
2.81524e-06
2.45423e-06
2.11601e-06
1.7982e-06
1.4987e-06
9.18213e-06
8.33724e-06
7.56826e-06
6.86433e-06
6.21708e-06
5.61966e-06
5.06605e-06
4.5509e-06
4.06964e-06
3.61848e-06
3.1942e-06
2.79412e-06
2.41592e-06
2.05768e-06
1.71766e-06
9.55915e-06
8.74104e-06
7.98505e-06
7.28391e-06
6.6315e-06
6.02244e-06
5.45186e-06
4.91546e-06
4.40957e-06
3.93113e-06
3.47758e-06
3.04677e-06
2.63687e-06
2.24639e-06
1.87394e-06
9.81443e-06
9.02303e-06
8.28282e-06
7.58862e-06
6.93605e-06
6.32095e-06
5.73946e-06
5.18821e-06
4.66434e-06
4.16547e-06
3.68961e-06
3.23513e-06
2.80062e-06
2.38495e-06
1.98705e-06
9.98332e-06
9.21751e-06
8.4938e-06
7.80861e-06
7.15894e-06
6.54157e-06
5.95351e-06
5.39218e-06
4.85542e-06
4.34147e-06
3.84883e-06
3.37629e-06
2.92282e-06
2.48761e-06
2.06989e-06
1.00925e-05
9.35024e-06
8.64258e-06
7.96726e-06
7.32224e-06
6.70501e-06
6.11333e-06
5.54529e-06
4.99937e-06
4.47429e-06
3.96899e-06
3.48263e-06
3.01452e-06
2.56415e-06
2.13102e-06
1.01614e-05
9.44036e-06
8.74775e-06
8.08236e-06
7.44274e-06
6.82698e-06
6.2335e-06
5.66101e-06
5.10848e-06
4.57505e-06
4.06005e-06
3.56299e-06
3.08345e-06
2.6212e-06
2.17599e-06
1.02038e-05
9.50166e-06
8.82281e-06
8.16683e-06
7.53265e-06
6.91895e-06
6.32473e-06
5.7492e-06
5.19174e-06
4.65189e-06
4.12929e-06
3.62374e-06
3.1351e-06
2.66337e-06
2.20849e-06
1.02294e-05
9.54378e-06
8.87726e-06
8.22982e-06
7.60073e-06
6.98924e-06
6.39481e-06
5.81708e-06
5.25579e-06
4.71079e-06
4.18204e-06
3.66958e-06
3.1735e-06
2.69401e-06
2.23123e-06
1.02444e-05
9.5733e-06
8.91765e-06
8.27776e-06
7.65325e-06
7.04384e-06
6.44942e-06
5.86996e-06
5.30552e-06
4.75625e-06
4.22234e-06
3.70408e-06
3.20177e-06
2.71577e-06
2.24638e-06
1.02531e-05
9.59463e-06
8.94847e-06
8.31514e-06
7.69463e-06
7.08706e-06
6.49267e-06
5.91173e-06
5.34458e-06
4.79161e-06
4.25327e-06
3.73002e-06
3.22233e-06
2.73075e-06
2.2557e-06
1.02582e-05
9.61069e-06
8.97275e-06
8.34507e-06
7.72797e-06
7.12196e-06
6.52753e-06
5.94523e-06
5.37566e-06
4.81942e-06
4.27715e-06
3.7495e-06
3.2371e-06
2.74064e-06
2.26066e-06
1.02614e-05
9.62336e-06
8.99251e-06
8.36965e-06
7.75546e-06
7.15069e-06
6.55613e-06
5.97254e-06
5.40074e-06
4.84154e-06
4.29573e-06
3.76415e-06
3.24756e-06
2.74676e-06
2.26242e-06
1.02636e-05
9.63378e-06
9.00903e-06
8.3903e-06
7.77854e-06
7.17476e-06
6.57995e-06
5.99512e-06
5.42125e-06
4.85933e-06
4.31033e-06
3.7752e-06
3.25484e-06
2.75016e-06
2.26193e-06
1.02653e-05
9.64265e-06
9.02313e-06
8.4079e-06
7.79817e-06
7.19514e-06
6.60001e-06
6.01397e-06
5.43818e-06
4.87378e-06
4.32188e-06
3.78354e-06
3.25979e-06
2.75163e-06
2.25992e-06
1.02668e-05
9.65046e-06
9.03547e-06
8.42324e-06
7.81519e-06
7.21272e-06
6.61722e-06
6.03002e-06
5.45244e-06
4.88574e-06
4.33117e-06
3.7899e-06
3.26305e-06
2.75171e-06
2.25684e-06
1.02684e-05
9.65787e-06
9.04699e-06
8.43746e-06
7.8309e-06
7.22887e-06
6.63293e-06
6.04455e-06
5.46519e-06
4.89626e-06
4.33909e-06
3.79498e-06
3.26513e-06
2.75072e-06
2.2528e-06
1.027e-05
9.6649e-06
9.0579e-06
8.4509e-06
7.84565e-06
7.24392e-06
6.64741e-06
6.05777e-06
5.47661e-06
4.90546e-06
4.34578e-06
3.79898e-06
3.26636e-06
2.74916e-06
2.24841e-06
-8.91028e-06
-6.50246e-06
-5.04554e-06
-4.07408e-06
-3.3103e-06
-2.73808e-06
-2.30782e-06
-1.98471e-06
-1.74356e-06
-1.56286e-06
-1.42339e-06
-1.30703e-06
-1.196e-06
-1.07263e-06
-9.18958e-07
-7.18646e-07
-4.57931e-07
-1.32717e-07
2.46404e-07
6.45607e-07
1.00207e-06
1.23219e-06
1.27158e-06
1.20534e-06
1.16881e-06
1.25035e-06
1.50076e-06
1.94115e-06
2.59173e-06
3.45048e-06
4.53631e-06
5.84447e-06
7.34538e-06
9.02469e-06
1.08423e-05
1.27505e-05
1.46917e-05
1.65988e-05
1.83909e-05
1.99666e-05
2.11779e-05
2.18202e-05
2.14423e-05
1.96614e-05
1.48438e-05
-7.28762e-06
-5.9939e-06
-4.87204e-06
-3.99854e-06
-3.27896e-06
-2.72104e-06
-2.29559e-06
-1.97439e-06
-1.73441e-06
-1.55493e-06
-1.41682e-06
-1.30186e-06
-1.19215e-06
-1.06996e-06
-9.17332e-07
-7.17999e-07
-4.57901e-07
-1.34297e-07
2.43878e-07
6.43395e-07
1.00317e-06
1.24158e-06
1.2945e-06
1.24344e-06
1.22027e-06
1.31185e-06
1.5686e-06
2.01147e-06
2.66048e-06
3.51127e-06
4.58468e-06
5.87297e-06
7.34201e-06
8.97627e-06
1.07322e-05
1.25571e-05
1.43866e-05
1.61433e-05
1.77296e-05
1.90144e-05
1.97966e-05
1.9757e-05
1.82618e-05
1.45875e-05
7.50882e-06
-6.44221e-06
-5.60766e-06
-4.69487e-06
-3.91109e-06
-3.24053e-06
-2.70249e-06
-2.28457e-06
-1.9662e-06
-1.72742e-06
-1.54877e-06
-1.41147e-06
-1.29732e-06
-1.18836e-06
-1.06681e-06
-9.14794e-07
-7.16117e-07
-4.57001e-07
-1.34524e-07
2.425e-07
6.42041e-07
1.005e-06
1.25205e-06
1.31956e-06
1.28513e-06
1.27662e-06
1.37912e-06
1.64249e-06
2.0874e-06
2.73365e-06
3.57209e-06
4.6311e-06
5.89288e-06
7.32111e-06
8.89809e-06
1.0576e-05
1.22962e-05
1.39865e-05
1.55578e-05
1.68963e-05
1.78473e-05
1.81805e-05
1.75504e-05
1.53996e-05
1.13692e-05
5.19125e-06
-5.919e-06
-5.29814e-06
-4.55036e-06
-3.83697e-06
-3.21316e-06
-2.69561e-06
-2.28451e-06
-1.96748e-06
-1.72801e-06
-1.54827e-06
-1.41005e-06
-1.29524e-06
-1.18585e-06
-1.06405e-06
-9.12e-07
-7.13577e-07
-4.55206e-07
-1.33923e-07
2.41804e-07
6.41219e-07
1.00741e-06
1.26355e-06
1.34674e-06
1.33038e-06
1.33801e-06
1.45271e-06
1.72364e-06
2.17115e-06
2.81435e-06
3.63691e-06
4.68144e-06
5.91083e-06
7.29013e-06
8.79804e-06
1.03819e-05
1.19763e-05
1.35008e-05
1.48563e-05
1.5917e-05
1.65187e-05
1.64381e-05
1.53875e-05
1.30106e-05
9.14385e-06
4.03524e-06
-5.52235e-06
-5.03302e-06
-4.41434e-06
-3.78425e-06
-3.20354e-06
-2.70577e-06
-2.30019e-06
-1.98218e-06
-1.73915e-06
-1.55541e-06
-1.41357e-06
-1.29575e-06
-1.18403e-06
-1.06054e-06
-9.0746e-07
-7.08714e-07
-4.5088e-07
-1.31073e-07
2.42862e-07
6.41583e-07
1.01067e-06
1.2761e-06
1.37599e-06
1.37915e-06
1.40422e-06
1.532e-06
1.81076e-06
2.26073e-06
2.89639e-06
3.70274e-06
4.72821e-06
5.91705e-06
7.23695e-06
8.6621e-06
1.01349e-05
1.15833e-05
1.29204e-05
1.40403e-05
1.48143e-05
1.50859e-05
1.46677e-05
1.33607e-05
1.09912e-05
7.55876e-06
3.38795e-06
-5.19625e-06
-4.7986e-06
-4.28278e-06
-3.73804e-06
-3.20736e-06
-2.73137e-06
-2.33241e-06
-2.01224e-06
-1.76318e-06
-1.57237e-06
-1.42367e-06
-1.29985e-06
-1.18325e-06
-1.05606e-06
-9.00539e-07
-7.00611e-07
-4.43026e-07
-1.24987e-07
2.46492e-07
6.43667e-07
1.01502e-06
1.28965e-06
1.40712e-06
1.43108e-06
1.47472e-06
1.61613e-06
1.90249e-06
2.35416e-06
2.97301e-06
3.76943e-06
4.7658e-06
5.90353e-06
7.1519e-06
8.47943e-06
9.82382e-06
1.1108e-05
1.22412e-05
1.3117e-05
1.36135e-05
1.35967e-05
1.293e-05
1.15019e-05
9.26693e-06
6.32432e-06
2.96669e-06
-4.90537e-06
-4.57878e-06
-4.1536e-06
-3.68027e-06
-3.2077e-06
-2.76418e-06
-2.37639e-06
-2.05541e-06
-1.79964e-06
-1.59974e-06
-1.44127e-06
-1.30829e-06
-1.18392e-06
-1.05065e-06
-8.90908e-07
-6.88687e-07
-4.30945e-07
-1.15002e-07
2.53258e-07
6.47809e-07
1.02051e-06
1.30393e-06
1.43959e-06
1.48544e-06
1.54853e-06
1.70372e-06
1.99729e-06
2.44597e-06
3.04714e-06
3.83225e-06
4.7862e-06
5.86177e-06
7.02649e-06
8.24133e-06
9.44101e-06
1.05461e-05
1.14661e-05
1.21007e-05
1.23438e-05
1.20925e-05
1.12624e-05
9.81136e-06
7.76764e-06
5.26054e-06
2.52159e-06
-4.62867e-06
-4.35845e-06
-4.00946e-06
-3.60838e-06
-3.19034e-06
-2.78794e-06
-2.42107e-06
-2.10367e-06
-1.84341e-06
-1.63471e-06
-1.4648e-06
-1.32013e-06
-1.18534e-06
-1.04363e-06
-8.77849e-07
-6.7216e-07
-4.13862e-07
-1.00539e-07
2.63539e-07
6.54151e-07
1.02698e-06
1.31829e-06
1.47241e-06
1.54087e-06
1.62394e-06
1.79246e-06
2.09203e-06
2.53252e-06
3.1207e-06
3.87969e-06
4.77985e-06
5.78233e-06
6.85089e-06
7.93854e-06
8.97967e-06
9.89596e-06
1.06021e-05
1.10094e-05
1.10337e-05
1.06054e-05
9.68358e-06
8.27246e-06
6.43336e-06
4.29014e-06
2.01603e-06
-4.35524e-06
-4.13035e-06
-3.84391e-06
-3.50932e-06
-3.14912e-06
-2.78899e-06
-2.45028e-06
-2.14376e-06
-1.88502e-06
-1.67059e-06
-1.48946e-06
-1.33201e-06
-1.18513e-06
-1.03324e-06
-8.59992e-07
-6.49941e-07
-3.90946e-07
-8.11604e-08
2.77375e-07
6.62264e-07
1.03378e-06
1.33143e-06
1.50374e-06
1.59503e-06
1.69801e-06
1.87976e-06
2.17982e-06
2.61235e-06
3.18384e-06
3.90022e-06
4.7369e-06
5.65548e-06
6.61417e-06
7.5614e-06
8.43374e-06
9.15799e-06
9.65793e-06
9.86118e-06
9.70686e-06
9.1551e-06
8.19673e-06
6.86104e-06
5.21809e-06
3.37322e-06
1.4527e-06
-4.0778e-06
-3.89013e-06
-3.6548e-06
-3.37806e-06
-3.07328e-06
-2.75959e-06
-2.44964e-06
-2.16255e-06
-1.91323e-06
-1.69762e-06
-1.50741e-06
-1.33815e-06
-1.17915e-06
-1.01658e-06
-8.35358e-07
-6.20761e-07
-3.61601e-07
-5.69742e-08
2.94738e-07
6.71024e-07
1.03895e-06
1.34094e-06
1.53049e-06
1.64408e-06
1.76579e-06
1.9587e-06
2.25655e-06
2.67667e-06
3.22085e-06
3.88526e-06
4.64733e-06
5.46886e-06
6.30468e-06
7.10056e-06
7.79897e-06
8.33466e-06
8.64386e-06
8.67187e-06
8.37958e-06
7.75014e-06
6.79393e-06
5.55051e-06
4.08584e-06
2.48418e-06
8.36778e-07
-3.78973e-06
-3.63338e-06
-3.44008e-06
-3.21239e-06
-2.95756e-06
-2.68892e-06
-2.41383e-06
-2.14992e-06
-1.91574e-06
-1.70349e-06
-1.50904e-06
-1.3313e-06
-1.1622e-06
-9.90135e-07
-8.01805e-07
-5.83566e-07
-3.25618e-07
-2.95453e-08
3.13836e-07
6.81383e-07
1.03749e-06
1.34245e-06
1.54763e-06
1.68208e-06
1.82045e-06
2.0202e-06
2.31315e-06
2.71328e-06
3.21912e-06
3.82131e-06
4.49664e-06
5.20768e-06
5.91099e-06
6.54755e-06
7.07306e-06
7.43034e-06
7.56992e-06
7.45403e-06
7.06126e-06
6.39031e-06
5.46148e-06
4.31537e-06
3.00853e-06
1.60605e-06
1.73994e-07
-3.48467e-06
-3.35538e-06
-3.19723e-06
-3.01077e-06
-2.79971e-06
-2.57145e-06
-2.33516e-06
-2.10222e-06
-1.88316e-06
-1.67811e-06
-1.48585e-06
-1.30488e-06
-1.1296e-06
-9.51042e-07
-7.57952e-07
-5.38563e-07
-2.84093e-07
3.16025e-09
3.31271e-07
6.83861e-07
1.02621e-06
1.32996e-06
1.54769e-06
1.7003e-06
1.8519e-06
2.05396e-06
2.33522e-06
2.70648e-06
3.16335e-06
3.69214e-06
4.26848e-06
4.85661e-06
5.41148e-06
5.89645e-06
6.25648e-06
6.45122e-06
6.44594e-06
6.21714e-06
5.75619e-06
5.07081e-06
4.18452e-06
3.13411e-06
1.96549e-06
7.27993e-07
-5.30349e-07
-3.15678e-06
-3.05158e-06
-2.92366e-06
-2.77271e-06
-2.60038e-06
-2.41119e-06
-2.21177e-06
-2.00926e-06
-1.8103e-06
-1.61813e-06
-1.43341e-06
-1.25491e-06
-1.07869e-06
-8.98297e-07
-7.04707e-07
-4.88303e-07
-2.41342e-07
3.62105e-08
3.40602e-07
6.70833e-07
9.98865e-07
1.29509e-06
1.52027e-06
1.68666e-06
1.84655e-06
2.04469e-06
2.30604e-06
2.63834e-06
3.03499e-06
3.47977e-06
3.94764e-06
4.40626e-06
4.81925e-06
5.14806e-06
5.35412e-06
5.40665e-06
5.28268e-06
4.96962e-06
4.46701e-06
3.78661e-06
2.95114e-06
1.99158e-06
9.43892e-07
-1.55023e-07
-1.27006e-06
-2.80068e-06
-2.71786e-06
-2.61698e-06
-2.49748e-06
-2.35985e-06
-2.20654e-06
-2.04157e-06
-1.86964e-06
-1.69524e-06
-1.52159e-06
-1.35016e-06
-1.18056e-06
-1.01004e-06
-8.33995e-07
-6.45706e-07
-4.38117e-07
-2.05466e-07
5.48579e-08
3.34081e-07
6.39508e-07
9.44409e-07
1.22591e-06
1.4517e-06
1.62552e-06
1.78707e-06
1.97363e-06
2.20576e-06
2.4888e-06
2.81475e-06
3.16649e-06
3.52154e-06
3.85052e-06
4.12236e-06
4.30681e-06
4.37648e-06
4.30992e-06
4.09331e-06
3.72145e-06
3.19831e-06
2.53647e-06
1.75575e-06
8.80947e-07
-6.04947e-08
-1.04122e-06
-2.03551e-06
-2.41094e-06
-2.35021e-06
-2.2749e-06
-2.1845e-06
-2.07887e-06
-1.95914e-06
-1.82763e-06
-1.68724e-06
-1.54103e-06
-1.39135e-06
-1.23934e-06
-1.0853e-06
-9.2804e-07
-7.64337e-07
-5.89148e-07
-3.97433e-07
-1.85604e-07
4.81775e-08
3.01551e-07
5.73978e-07
8.48139e-07
1.10734e-06
1.32506e-06
1.49793e-06
1.65284e-06
1.8189e-06
2.01248e-06
2.23775e-06
2.48578e-06
2.74128e-06
2.98232e-06
3.18553e-06
3.32709e-06
3.38483e-06
3.33996e-06
3.17895e-06
2.89455e-06
2.48603e-06
1.95909e-06
1.32525e-06
6.00654e-07
-1.9555e-07
-1.04288e-06
-1.92122e-06
-2.81174e-06
-1.98233e-06
-1.94518e-06
-1.89605e-06
-1.83456e-06
-1.76038e-06
-1.6739e-06
-1.57632e-06
-1.46938e-06
-1.35458e-06
-1.23394e-06
-1.10908e-06
-9.78968e-07
-8.43177e-07
-7.00487e-07
-5.47308e-07
-3.8006e-07
-1.96488e-07
5.05263e-09
2.23352e-07
4.55862e-07
6.92308e-07
9.2056e-07
1.11976e-06
1.28181e-06
1.42032e-06
1.55713e-06
1.70618e-06
1.87007e-06
2.0376e-06
2.19526e-06
2.32773e-06
2.41751e-06
2.44686e-06
2.40021e-06
2.26552e-06
2.03514e-06
1.70613e-06
1.28004e-06
7.62682e-07
1.63616e-07
-5.04641e-07
-1.22777e-06
-1.99075e-06
-2.77891e-06
-3.57848e-06
-1.51169e-06
-1.50162e-06
-1.4815e-06
-1.45116e-06
-1.41022e-06
-1.35898e-06
-1.2978e-06
-1.2275e-06
-1.15052e-06
-1.06453e-06
-9.70886e-07
-8.73406e-07
-7.71078e-07
-6.59629e-07
-5.37644e-07
-4.03976e-07
-2.57339e-07
-9.64501e-08
7.82132e-08
2.64514e-07
4.56337e-07
6.44871e-07
8.13785e-07
9.52035e-07
1.06451e-06
1.1676e-06
1.27173e-06
1.37091e-06
1.45837e-06
1.52682e-06
1.56506e-06
1.56025e-06
1.50015e-06
1.37453e-06
1.17609e-06
9.00989e-07
5.48684e-07
1.21628e-07
-3.75055e-07
-9.33935e-07
-1.54575e-06
-2.2001e-06
-2.88613e-06
-3.59323e-06
-4.31134e-06
-1.00395e-06
-1.0264e-06
-1.04019e-06
-1.04536e-06
-1.04179e-06
-1.02936e-06
-1.00841e-06
-9.77913e-07
-9.41031e-07
-8.9941e-07
-8.49776e-07
-7.95106e-07
-7.33497e-07
-6.62099e-07
-5.81565e-07
-4.9195e-07
-3.91931e-07
-2.80354e-07
-1.57069e-07
-2.37589e-08
1.16434e-07
2.58793e-07
3.87342e-07
4.89513e-07
5.70351e-07
6.39231e-07
6.9451e-07
7.31361e-07
7.49838e-07
7.45073e-07
7.0863e-07
6.32031e-07
5.07811e-07
3.29789e-07
9.36392e-08
-2.02642e-07
-5.58653e-07
-9.71867e-07
-1.43806e-06
-1.95169e-06
-2.50615e-06
-3.09414e-06
-3.70801e-06
-4.34013e-06
-4.98318e-06
-4.65489e-07
-5.28931e-07
-5.84581e-07
-6.32707e-07
-6.7342e-07
-7.06844e-07
-7.33093e-07
-7.52636e-07
-7.65506e-07
-7.73187e-07
-7.74035e-07
-7.68287e-07
-7.55444e-07
-7.35037e-07
-7.07297e-07
-6.71677e-07
-6.26806e-07
-5.72054e-07
-5.06942e-07
-4.32437e-07
-3.50568e-07
-2.62633e-07
-1.81085e-07
-1.11379e-07
-6.78614e-08
-3.5441e-08
-2.59111e-08
-3.84098e-08
-7.16845e-08
-1.29492e-07
-2.17412e-07
-3.40424e-07
-5.0265e-07
-7.0752e-07
-9.57544e-07
-1.2539e-06
-1.59613e-06
-1.98225e-06
-2.40904e-06
-2.87244e-06
-3.36785e-06
-3.89026e-06
-4.43441e-06
-4.99495e-06
-5.56662e-06
9.68024e-08
-1.96915e-08
-1.29152e-07
-2.31685e-07
-3.27584e-07
-4.17123e-07
-5.00497e-07
-5.77806e-07
-6.49103e-07
-7.1441e-07
-7.73422e-07
-8.2616e-07
-8.7267e-07
-9.12615e-07
-9.45393e-07
-9.70195e-07
-9.86288e-07
-9.92861e-07
-9.89674e-07
-9.76861e-07
-9.54519e-07
-9.28215e-07
-9.03472e-07
-8.79882e-07
-8.5174e-07
-8.49415e-07
-8.72505e-07
-9.16308e-07
-9.80745e-07
-1.06839e-06
-1.18218e-06
-1.32487e-06
-1.49892e-06
-1.70644e-06
-1.94899e-06
-2.22726e-06
-2.54087e-06
-2.88848e-06
-3.2679e-06
-3.67642e-06
-4.11089e-06
-4.56796e-06
-5.04408e-06
-5.5356e-06
-6.03877e-06
5.79759e-07
4.05468e-07
2.38195e-07
7.76688e-08
-7.64907e-08
-2.24547e-07
-3.66623e-07
-5.02733e-07
-6.32822e-07
-7.56803e-07
-8.74586e-07
-9.86061e-07
-1.09096e-06
-1.18878e-06
-1.27881e-06
-1.36043e-06
-1.43282e-06
-1.49508e-06
-1.54686e-06
-1.58679e-06
-1.61594e-06
-1.6377e-06
-1.6485e-06
-1.65516e-06
-1.66575e-06
-1.69192e-06
-1.73393e-06
-1.79196e-06
-1.86778e-06
-1.96312e-06
-2.07954e-06
-2.21882e-06
-2.38297e-06
-2.5737e-06
-2.79221e-06
-3.03906e-06
-3.3141e-06
-3.61649e-06
-3.94486e-06
-4.29748e-06
-4.67235e-06
-5.06726e-06
-5.47987e-06
-5.90768e-06
-6.34812e-06
9.53562e-07
7.23829e-07
5.01302e-07
2.85809e-07
7.70488e-08
-1.25172e-07
-3.20889e-07
-5.1001e-07
-6.92386e-07
-8.67856e-07
-1.03623e-06
-1.19722e-06
-1.35042e-06
-1.49528e-06
-1.63117e-06
-1.75733e-06
-1.87288e-06
-1.97701e-06
-2.06847e-06
-2.14707e-06
-2.21301e-06
-2.2641e-06
-2.30732e-06
-2.34188e-06
-2.37759e-06
-2.41807e-06
-2.46675e-06
-2.52714e-06
-2.60156e-06
-2.69145e-06
-2.7983e-06
-2.92396e-06
-3.07019e-06
-3.23833e-06
-3.42926e-06
-3.64339e-06
-3.88078e-06
-4.14111e-06
-4.4237e-06
-4.72756e-06
-5.05143e-06
-5.39388e-06
-5.75334e-06
-6.12811e-06
-6.51643e-06
1.21251e-06
9.35081e-07
6.6544e-07
4.03509e-07
1.49144e-07
-9.76803e-08
-3.36862e-07
-5.68215e-07
-7.91528e-07
-1.00655e-06
-1.213e-06
-1.41048e-06
-1.59854e-06
-1.77662e-06
-1.94409e-06
-2.10015e-06
-2.24401e-06
-2.37471e-06
-2.49143e-06
-2.59397e-06
-2.68177e-06
-2.75574e-06
-2.81392e-06
-2.86395e-06
-2.90876e-06
-2.95284e-06
-3.00146e-06
-3.05854e-06
-3.12647e-06
-3.20706e-06
-3.30208e-06
-3.41326e-06
-3.54204e-06
-3.68958e-06
-3.8567e-06
-4.04394e-06
-4.25158e-06
-4.47961e-06
-4.72774e-06
-4.99544e-06
-5.28198e-06
-5.58642e-06
-5.90771e-06
-6.24465e-06
-6.59601e-06
1.39139e-06
1.07463e-06
7.66539e-07
4.67172e-07
1.76547e-07
-1.05231e-07
-3.77966e-07
-6.41398e-07
-8.95237e-07
-1.13915e-06
-1.37279e-06
-1.59574e-06
-1.80753e-06
-2.00762e-06
-2.1954e-06
-2.37018e-06
-2.53121e-06
-2.67775e-06
-2.80921e-06
-2.92507e-06
-3.02483e-06
-3.11008e-06
-3.18032e-06
-3.23753e-06
-3.28623e-06
-3.33229e-06
-3.38065e-06
-3.4348e-06
-3.49734e-06
-3.57038e-06
-3.65583e-06
-3.7553e-06
-3.8702e-06
-4.00162e-06
-4.15043e-06
-4.31729e-06
-4.50268e-06
-4.70686e-06
-4.92987e-06
-5.17152e-06
-5.43138e-06
-5.70888e-06
-6.0033e-06
-6.31385e-06
-6.63964e-06
1.51562e-06
1.16764e-06
8.29333e-07
5.00865e-07
1.8238e-07
-1.25901e-07
-4.23677e-07
-7.106e-07
-9.86314e-07
-1.25045e-06
-1.50264e-06
-1.74248e-06
-1.96953e-06
-2.18328e-06
-2.38321e-06
-2.56875e-06
-2.73933e-06
-2.89439e-06
-3.03351e-06
-3.15664e-06
-3.26326e-06
-3.35548e-06
-3.43151e-06
-3.4929e-06
-3.54503e-06
-3.59327e-06
-3.64188e-06
-3.69424e-06
-3.75312e-06
-3.8208e-06
-3.8992e-06
-3.98995e-06
-4.09443e-06
-4.21384e-06
-4.3492e-06
-4.50133e-06
-4.67089e-06
-4.8583e-06
-5.06378e-06
-5.28734e-06
-5.52882e-06
-5.78795e-06
-6.0643e-06
-6.35734e-06
-6.66645e-06
1.60357e-06
1.23126e-06
8.69646e-07
5.19e-07
1.79588e-07
-1.48252e-07
-4.64136e-07
-7.67669e-07
-1.05847e-06
-1.33618e-06
-1.60044e-06
-1.85086e-06
-2.08706e-06
-2.30864e-06
-2.51517e-06
-2.70623e-06
-2.88146e-06
-3.04048e-06
-3.18305e-06
-3.30903e-06
-3.42015e-06
-3.51599e-06
-3.59541e-06
-3.66024e-06
-3.71544e-06
-3.76578e-06
-3.81518e-06
-3.86695e-06
-3.92386e-06
-3.98821e-06
-4.06195e-06
-4.14679e-06
-4.24423e-06
-4.35557e-06
-4.48194e-06
-4.62425e-06
-4.78324e-06
-4.95947e-06
-5.1533e-06
-5.36498e-06
-5.59457e-06
-5.84201e-06
-6.10709e-06
-6.38946e-06
-6.6887e-06
1.66687e-06
1.27585e-06
8.96535e-07
5.29296e-07
1.74493e-07
-1.67463e-07
-4.96144e-07
-8.11139e-07
-1.11207e-06
-1.39858e-06
-1.67035e-06
-1.92702e-06
-2.16831e-06
-2.39389e-06
-2.60348e-06
-2.79682e-06
-2.97374e-06
-3.1341e-06
-3.27808e-06
-3.40554e-06
-3.51793e-06
-3.61552e-06
-3.69725e-06
-3.76481e-06
-3.82268e-06
-3.87517e-06
-3.92592e-06
-3.97806e-06
-4.0343e-06
-4.09698e-06
-4.16811e-06
-4.24948e-06
-4.34264e-06
-4.44898e-06
-4.56966e-06
-4.70569e-06
-4.85792e-06
-5.02706e-06
-5.21364e-06
-5.41806e-06
-5.64054e-06
-5.88117e-06
-6.1399e-06
-6.41654e-06
-6.71082e-06
1.71287e-06
1.30751e-06
9.14819e-07
5.35211e-07
1.69123e-07
-1.82983e-07
-5.20651e-07
-8.43468e-07
-1.15106e-06
-1.44311e-06
-1.7193e-06
-1.97937e-06
-2.22309e-06
-2.45026e-06
-2.66073e-06
-2.85439e-06
-3.03124e-06
-3.19137e-06
-3.33519e-06
-3.46276e-06
-3.57537e-06
-3.67372e-06
-3.75691e-06
-3.8266e-06
-3.88682e-06
-3.94141e-06
-3.99371e-06
-4.04675e-06
-4.10319e-06
-4.16535e-06
-4.23529e-06
-4.31482e-06
-4.40554e-06
-4.50889e-06
-4.62613e-06
-4.75837e-06
-4.90658e-06
-5.07156e-06
-5.25398e-06
-5.45434e-06
-5.67301e-06
-5.91019e-06
-6.16596e-06
-6.44027e-06
-6.73295e-06
1.74601e-06
1.32957e-06
9.26642e-07
5.37719e-07
1.63288e-07
-1.96147e-07
-5.40121e-07
-8.68226e-07
-1.18011e-06
-1.47547e-06
-1.75406e-06
-2.01567e-06
-2.26016e-06
-2.48743e-06
-2.69745e-06
-2.89026e-06
-3.06603e-06
-3.22496e-06
-3.36748e-06
-3.49451e-06
-3.60672e-06
-3.70512e-06
-3.78909e-06
-3.86036e-06
-3.92249e-06
-3.97887e-06
-4.03268e-06
-4.08681e-06
-4.14387e-06
-4.20615e-06
-4.27569e-06
-4.35434e-06
-4.44376e-06
-4.54545e-06
-4.66075e-06
-4.79086e-06
-4.93684e-06
-5.09958e-06
-5.27986e-06
-5.47827e-06
-5.6953e-06
-5.93126e-06
-6.18632e-06
-6.46053e-06
-6.75381e-06
1.7691e-06
1.34392e-06
9.33033e-07
5.36984e-07
1.56307e-07
-2.08474e-07
-5.56893e-07
-8.88555e-07
-1.20313e-06
-1.50036e-06
-1.78003e-06
-2.042e-06
-2.28623e-06
-2.51269e-06
-2.72148e-06
-2.91276e-06
-3.08683e-06
-3.24406e-06
-3.38506e-06
-3.5107e-06
-3.62198e-06
-3.71987e-06
-3.80407e-06
-3.87637e-06
-3.93987e-06
-3.99766e-06
-4.05275e-06
-4.10793e-06
-4.1657e-06
-4.22832e-06
-4.29784e-06
-4.37614e-06
-4.46491e-06
-4.56572e-06
-4.67997e-06
-4.80895e-06
-4.95379e-06
-5.11548e-06
-5.29487e-06
-5.49266e-06
-5.70941e-06
-5.94553e-06
-6.20127e-06
-6.47676e-06
-6.77198e-06
1.78419e-06
1.35196e-06
9.34757e-07
5.33141e-07
1.47693e-07
-2.21056e-07
-5.72648e-07
-9.06702e-07
-1.22291e-06
-1.52106e-06
-1.80097e-06
-2.06259e-06
-2.30592e-06
-2.53104e-06
-2.73816e-06
-2.92752e-06
-3.09957e-06
-3.25477e-06
-3.39386e-06
-3.51788e-06
-3.62786e-06
-3.72483e-06
-3.80879e-06
-3.88158e-06
-3.94595e-06
-4.00473e-06
-4.06079e-06
-4.1168e-06
-4.17518e-06
-4.23815e-06
-4.30776e-06
-4.38591e-06
-4.47434e-06
-4.57466e-06
-4.68835e-06
-4.81675e-06
-4.96106e-06
-5.12237e-06
-5.30159e-06
-5.49952e-06
-5.71678e-06
-5.95386e-06
-6.21108e-06
-6.48862e-06
-6.78653e-06
1.79297e-06
1.35493e-06
9.32571e-07
5.26498e-07
1.3731e-07
-2.34459e-07
-5.88362e-07
-9.24033e-07
-1.2412e-06
-1.53965e-06
-1.81931e-06
-2.08013e-06
-2.32222e-06
-2.54572e-06
-2.75092e-06
-2.93819e-06
-3.10805e-06
-3.26108e-06
-3.39807e-06
-3.5203e-06
-3.62873e-06
-3.72447e-06
-3.8078e-06
-3.88064e-06
-3.94542e-06
-4.00478e-06
-4.06148e-06
-4.11804e-06
-4.17683e-06
-4.24003e-06
-4.30969e-06
-4.38771e-06
-4.47589e-06
-4.57587e-06
-4.6892e-06
-4.81727e-06
-4.96137e-06
-5.12264e-06
-5.30207e-06
-5.50053e-06
-5.7187e-06
-5.95714e-06
-6.21623e-06
-6.49619e-06
-6.79711e-06
1.79686e-06
1.35392e-06
9.27261e-07
5.17522e-07
1.25319e-07
-2.48819e-07
-6.04452e-07
-9.41232e-07
-1.25891e-06
-1.55732e-06
-1.83641e-06
-2.09622e-06
-2.33688e-06
-2.55863e-06
-2.76184e-06
-2.94696e-06
-3.11458e-06
-3.26541e-06
-3.40036e-06
-3.52058e-06
-3.62729e-06
-3.72159e-06
-3.80402e-06
-3.87654e-06
-3.94135e-06
-4.00095e-06
-4.05796e-06
-4.1148e-06
-4.17376e-06
-4.23701e-06
-4.30659e-06
-4.38442e-06
-4.47231e-06
-4.57198e-06
-4.68499e-06
-4.81283e-06
-4.95683e-06
-5.11818e-06
-5.29797e-06
-5.4971e-06
-5.71634e-06
-5.95628e-06
-6.21737e-06
-6.49985e-06
-6.80387e-06
1.79711e-06
1.34994e-06
9.19599e-07
5.06766e-07
1.12059e-07
-2.63996e-07
-6.2097e-07
-9.58532e-07
-1.27645e-06
-1.57461e-06
-1.85299e-06
-2.11167e-06
-2.35085e-06
-2.57084e-06
-2.77206e-06
-2.95505e-06
-3.12048e-06
-3.26913e-06
-3.40202e-06
-3.52024e-06
-3.62515e-06
-3.7179e-06
-3.79922e-06
-3.87116e-06
-3.93571e-06
-3.99526e-06
-4.05229e-06
-4.10915e-06
-4.16807e-06
-4.23118e-06
-4.30053e-06
-4.37805e-06
-4.46558e-06
-4.56487e-06
-4.67755e-06
-4.80514e-06
-4.94903e-06
-5.11049e-06
-5.29065e-06
-5.49047e-06
-5.71077e-06
-5.95221e-06
-6.21525e-06
-6.50021e-06
-6.80722e-06
1.79472e-06
1.34383e-06
9.10295e-07
4.94794e-07
9.79528e-08
-2.79704e-07
-6.37756e-07
-9.7589e-07
-1.2939e-06
-1.5917e-06
-1.8693e-06
-2.12684e-06
-2.36456e-06
-2.58283e-06
-2.78213e-06
-2.96307e-06
-3.1264e-06
-3.27295e-06
-3.4038e-06
-3.52009e-06
-3.62318e-06
-3.71434e-06
-3.79442e-06
-3.86558e-06
-3.92965e-06
-3.98893e-06
-4.04577e-06
-4.10244e-06
-4.16113e-06
-4.22394e-06
-4.29292e-06
-4.37001e-06
-4.45708e-06
-4.55592e-06
-4.66819e-06
-4.79548e-06
-4.93922e-06
-5.10073e-06
-5.2812e-06
-5.48164e-06
-5.70293e-06
-5.94576e-06
-6.21064e-06
-6.49791e-06
-6.80774e-06
1.79053e-06
1.33635e-06
8.99993e-07
4.82151e-07
8.34559e-08
-2.95572e-07
-6.54521e-07
-9.93094e-07
-1.31111e-06
-1.6085e-06
-1.88532e-06
-2.14175e-06
-2.37807e-06
-2.59471e-06
-2.79221e-06
-2.97122e-06
-3.13255e-06
-3.27712e-06
-3.40603e-06
-3.52043e-06
-3.62179e-06
-3.71135e-06
-3.79014e-06
-3.86039e-06
-3.92386e-06
-3.9827e-06
-4.03918e-06
-4.0955e-06
-4.15381e-06
-4.21619e-06
-4.28468e-06
-4.36125e-06
-4.44778e-06
-4.54608e-06
-4.65789e-06
-4.7848e-06
-4.92831e-06
-5.0898e-06
-5.2705e-06
-5.47146e-06
-5.69362e-06
-5.93769e-06
-6.20424e-06
-6.49362e-06
-6.80602e-06
1.78522e-06
1.32811e-06
8.89247e-07
4.69337e-07
6.90134e-08
-3.11206e-07
-6.70919e-07
-1.00984e-06
-1.32781e-06
-1.62479e-06
-1.90087e-06
-2.15625e-06
-2.39128e-06
-2.6064e-06
-2.80222e-06
-2.97945e-06
-3.13893e-06
-3.28165e-06
-3.40874e-06
-3.52134e-06
-3.62113e-06
-3.70909e-06
-3.78658e-06
-3.85588e-06
-3.91865e-06
-3.97694e-06
-4.03296e-06
-4.08882e-06
-4.14664e-06
-4.2085e-06
-4.27643e-06
-4.3524e-06
-4.43832e-06
-4.53604e-06
-4.64731e-06
-4.77379e-06
-4.91702e-06
-5.07842e-06
-5.25924e-06
-5.46062e-06
-5.68351e-06
-5.92867e-06
-6.19669e-06
-6.48795e-06
-6.80267e-06
1.77916e-06
1.31941e-06
8.78291e-07
4.5653e-07
5.47572e-08
-3.26515e-07
-6.86891e-07
-1.0261e-06
-1.344e-06
-1.64058e-06
-1.91595e-06
-2.17036e-06
-2.40418e-06
-2.6179e-06
-2.81217e-06
-2.98775e-06
-3.14552e-06
-3.2865e-06
-3.41189e-06
-3.52281e-06
-3.62113e-06
-3.70755e-06
-3.78374e-06
-3.85207e-06
-3.91409e-06
-3.97177e-06
-4.02724e-06
-4.08256e-06
-4.13983e-06
-4.2011e-06
-4.26839e-06
-4.34371e-06
-4.42898e-06
-4.52606e-06
-4.63676e-06
-4.76276e-06
-4.90564e-06
-5.06686e-06
-5.24774e-06
-5.44943e-06
-5.67292e-06
-5.91901e-06
-6.18833e-06
-6.48127e-06
-6.79808e-06
1.77226e-06
1.30998e-06
8.66719e-07
4.43199e-07
4.00523e-08
-3.4221e-07
-7.03202e-07
-1.04267e-06
-1.36048e-06
-1.65665e-06
-1.93133e-06
-2.18478e-06
-2.41742e-06
-2.62978e-06
-2.82254e-06