/*--------------------------------*- C++ -*----------------------------------*\
| =========                 |                                                 |
| \\      /  F ield         | OpenFOAM: The Open Source CFD Toolbox           |
|  \\    /   O peration     | Version:  2312                                  |
|   \\  /    A nd           | Website:  www.openfoam.com                      |
|    \\/     M anipulation  |                                                 |
\*---------------------------------------------------------------------------*/
FoamFile
{
    version     2.0;
    format      ascii;
    arch        "LSB;label=32;scalar=64";
    class       surfaceScalarField;
    location    "160";
    object      phi;
}
// * * * * * * * * * * * * * * * * * * * * * * * * * * * * * * * * * * * * * //

dimensions      [0 3 -1 0 0 0 0];

oriented        oriented;

internalField   nonuniform List<scalar> 
9445
(
6.01214e-10
8.71506e-12
5.96729e-10
4.48462e-12
5.94793e-10
1.93595e-12
5.94545e-10
2.48618e-13
5.95559e-10
-1.0144e-12
5.97624e-10
-2.06502e-12
6.00558e-10
-2.93367e-12
6.045e-10
-3.942e-12
6.09658e-10
-5.15869e-12
6.16454e-10
-6.79586e-12
6.26054e-10
-9.59963e-12
6.42142e-10
-1.60881e-11
6.77804e-10
-3.56618e-11
7.79528e-10
-1.01724e-10
-2.64568e-10
1.0441e-09
2.10184e-09
3.90066e-11
2.08547e-09
2.08553e-11
2.07759e-09
9.81599e-12
2.07538e-09
2.46457e-12
2.07733e-09
-2.9703e-12
2.08269e-09
-7.42037e-12
2.09099e-09
-1.12398e-11
2.1025e-09
-1.5445e-11
2.11777e-09
-2.04378e-11
2.13809e-09
-2.71128e-11
2.16642e-09
-3.79313e-11
2.20992e-09
-5.9586e-11
2.28247e-09
-1.0821e-10
2.39759e-09
-2.16849e-10
-3.85875e-10
2.5189e-09
4.15142e-09
9.79363e-11
4.11843e-09
5.38458e-11
4.10139e-09
2.68629e-11
4.09502e-09
8.82659e-12
4.09646e-09
-4.40395e-12
4.10414e-09
-1.51065e-11
4.11728e-09
-2.43798e-11
4.13611e-09
-3.42708e-11
4.16126e-09
-4.5591e-11
4.19436e-09
-6.02079e-11
4.23843e-09
-8.20025e-11
4.29832e-09
-1.19478e-10
4.3769e-09
-1.86785e-10
4.45988e-09
-2.99837e-10
-4.35013e-10
4.50902e-09
6.89878e-09
1.93188e-10
6.84366e-09
1.08963e-10
6.81341e-09
5.71177e-11
6.79985e-09
2.23859e-11
6.79848e-09
-3.03706e-12
6.80671e-09
-2.33369e-11
6.82308e-09
-4.07464e-11
6.84771e-09
-5.88977e-11
6.88075e-09
-7.86354e-11
6.9233e-09
-1.02757e-10
6.97668e-09
-1.35386e-10
7.0407e-09
-1.83495e-10
7.1087e-09
-2.54782e-10
7.15986e-09
-3.50996e-10
-4.45891e-10
7.17074e-09
1.05223e-08
3.31698e-10
1.04395e-08
1.9171e-10
1.03916e-08
1.05006e-10
1.03671e-08
4.68706e-11
1.036e-08
4.15742e-12
1.03661e-08
-2.94641e-11
1.0383e-08
-5.77078e-11
1.04105e-08
-8.63624e-11
1.04477e-08
-1.15875e-10
1.04945e-08
-1.49472e-10
1.05495e-08
-1.90391e-10
1.06083e-08
-2.42309e-10
1.06602e-08
-3.06743e-10
1.06879e-08
-3.78619e-10
-4.38634e-10
1.06806e-08
1.523e-08
5.16793e-10
1.51159e-08
3.05806e-10
1.50467e-08
1.7419e-10
1.50079e-08
8.56934e-11
1.49913e-08
2.0701e-11
1.49919e-08
-3.00479e-11
1.50063e-08
-7.21211e-11
1.50326e-08
-1.12574e-10
1.5069e-08
-1.52314e-10
1.51136e-08
-1.94098e-10
1.5163e-08
-2.39726e-10
1.52105e-08
-2.89805e-10
1.5246e-08
-3.42273e-10
1.52584e-08
-3.91065e-10
-4.25247e-10
1.5245e-08
2.12562e-08
7.43322e-10
2.1112e-08
4.49941e-10
2.10209e-08
2.65316e-10
2.09661e-08
1.40487e-10
2.09378e-08
4.90417e-11
2.09297e-08
-2.2015e-11
2.09379e-08
-8.03283e-11
2.09586e-08
-1.33231e-10
2.0989e-08
-1.82699e-10
2.10255e-08
-2.30644e-10
2.10634e-08
-2.77614e-10
2.10961e-08
-3.22548e-10
2.11165e-08
-3.62596e-10
2.11189e-08
-3.93525e-10
-4.10553e-10
2.11042e-08
2.88524e-08
9.9102e-10
2.86893e-08
6.13023e-10
2.85822e-08
3.72461e-10
2.85142e-08
2.0846e-10
2.84748e-08
8.84394e-11
2.84572e-08
-4.44661e-12
2.84567e-08
-7.97909e-11
2.84685e-08
-1.45022e-10
2.84886e-08
-2.02866e-10
2.85127e-08
-2.54737e-10
2.85358e-08
-3.00652e-10
2.85526e-08
-3.39426e-10
2.85592e-08
-3.69165e-10
2.85537e-08
-3.88041e-10
-3.9489e-10
2.85381e-08
3.82767e-08
1.21892e-09
3.81204e-08
7.69313e-10
3.80138e-08
4.79059e-10
3.79433e-08
2.79009e-10
3.78994e-08
1.32266e-10
3.78759e-08
1.9107e-11
3.78677e-08
-7.16496e-11
3.78702e-08
-1.47497e-10
3.78788e-08
-2.11465e-10
3.78891e-08
-2.65049e-10
3.7897e-08
-3.08545e-10
3.78992e-08
-3.41639e-10
3.7894e-08
-3.63947e-10
3.78815e-08
-3.75568e-10
-3.77201e-10
3.78638e-08
4.97914e-08
1.36808e-09
4.96828e-08
8.77949e-10
4.96056e-08
5.56229e-10
4.9553e-08
3.31589e-10
4.95194e-08
1.65918e-10
4.95e-08
3.84308e-11
4.94911e-08
-6.27067e-11
4.94888e-08
-1.45193e-10
4.94891e-08
-2.11795e-10
4.94887e-08
-2.64643e-10
4.9485e-08
-3.04796e-10
4.94764e-08
-3.3308e-10
4.94629e-08
-3.50397e-10
4.94453e-08
-3.58047e-10
-3.5755e-10
4.94257e-08
6.36929e-08
1.38216e-09
6.36767e-08
8.9421e-10
6.36639e-08
5.69019e-10
6.36564e-08
3.39055e-10
6.36539e-08
1.68435e-10
6.36549e-08
3.74318e-11
6.36579e-08
-6.56823e-11
6.36608e-08
-1.48105e-10
6.36614e-08
-2.12437e-10
6.36582e-08
-2.61406e-10
6.36503e-08
-2.96902e-10
6.36378e-08
-3.20625e-10
6.36217e-08
-3.34244e-10
6.36032e-08
-3.39588e-10
-3.38409e-10
6.35841e-08
8.039e-08
1.24327e-09
8.04893e-08
7.94924e-10
8.05639e-08
4.94381e-10
8.06225e-08
2.80478e-10
8.06693e-08
1.21617e-10
8.07062e-08
5.42561e-13
8.07348e-08
-9.43441e-11
8.07551e-08
-1.68384e-10
8.07672e-08
-2.24553e-10
8.07717e-08
-2.65851e-10
8.07694e-08
-2.94647e-10
8.07618e-08
-3.13035e-10
8.07505e-08
-3.22913e-10
8.07371e-08
-3.26157e-10
-3.24405e-10
8.07231e-08
1.00489e-07
9.92154e-10
1.00683e-07
6.00733e-10
1.00836e-07
3.41481e-10
1.00958e-07
1.58552e-10
1.01055e-07
2.44843e-11
1.01131e-07
-7.58911e-11
1.01191e-07
-1.53739e-10
1.01235e-07
-2.12169e-10
1.01265e-07
-2.55109e-10
1.01285e-07
-2.85379e-10
1.01295e-07
-3.05372e-10
1.01299e-07
-3.17154e-10
1.01299e-07
-3.22482e-10
1.01296e-07
-3.22977e-10
-3.19981e-10
1.01291e-07
1.24767e-07
6.99597e-10
1.25003e-07
3.64995e-10
1.25194e-07
1.50121e-10
1.2535e-07
2.79528e-12
1.25476e-07
-1.01233e-10
1.25577e-07
-1.77569e-10
1.25657e-07
-2.33046e-10
1.25717e-07
-2.72939e-10
1.25763e-07
-3.00438e-10
1.25796e-07
-3.18256e-10
1.25819e-07
-3.28576e-10
1.25835e-07
-3.33157e-10
1.25846e-07
-3.33419e-10
1.25853e-07
-3.30616e-10
-3.25733e-10
1.25859e-07
1.53977e-07
4.16279e-10
1.54208e-07
1.34383e-10
1.54395e-07
-3.76932e-11
1.54551e-07
-1.52338e-10
1.54677e-07
-2.27816e-10
1.54779e-07
-2.79543e-10
1.5486e-07
-3.1358e-10
1.54922e-07
-3.35521e-10
1.5497e-07
-3.485e-10
1.55007e-07
-3.54841e-10
1.55035e-07
-3.5633e-10
1.55056e-07
-3.54354e-10
1.55072e-07
-3.4995e-10
1.55086e-07
-3.43994e-10
-3.37139e-10
1.55097e-07
1.88614e-07
1.57402e-10
1.88819e-07
-7.03865e-11
1.88987e-07
-2.05842e-10
1.89123e-07
-2.8804e-10
1.89232e-07
-3.36941e-10
1.89319e-07
-3.66255e-10
1.89387e-07
-3.8186e-10
1.8944e-07
-3.88467e-10
1.8948e-07
-3.89191e-10
1.89512e-07
-3.86026e-10
1.89536e-07
-3.80333e-10
1.89554e-07
-3.73096e-10
1.89569e-07
-3.64969e-10
1.89582e-07
-3.56478e-10
-3.47976e-10
1.89593e-07
2.28773e-07
-7.63861e-11
2.28956e-07
-2.54113e-10
2.29101e-07
-3.5003e-10
2.29213e-07
-4.007e-10
2.29302e-07
-4.25653e-10
2.2937e-07
-4.34105e-10
2.29422e-07
-4.34119e-10
2.29462e-07
-4.28203e-10
2.29492e-07
-4.19145e-10
2.29514e-07
-4.08419e-10
2.29531e-07
-3.97027e-10
2.29543e-07
-3.85601e-10
2.29553e-07
-3.74489e-10
2.2956e-07
-3.63933e-10
-3.54051e-10
2.29566e-07
2.73993e-07
-2.91015e-10
2.74153e-07
-4.13747e-10
2.74274e-07
-4.70746e-10
2.74366e-07
-4.9263e-10
2.74435e-07
-4.94742e-10
2.74486e-07
-4.85198e-10
2.74523e-07
-4.71272e-10
2.7455e-07
-4.54864e-10
2.74569e-07
-4.38107e-10
2.74582e-07
-4.21415e-10
2.7459e-07
-4.0568e-10
2.74596e-07
-3.90859e-10
2.74598e-07
-3.77097e-10
2.74599e-07
-3.6452e-10
-3.53172e-10
2.74598e-07
3.22842e-07
-4.74516e-10
3.2297e-07
-5.42397e-10
3.23063e-07
-5.63164e-10
3.23128e-07
-5.5831e-10
3.23175e-07
-5.41649e-10
3.23209e-07
-5.18905e-10
3.2323e-07
-4.92852e-10
3.23244e-07
-4.68158e-10
3.23251e-07
-4.45032e-10
3.23253e-07
-4.23401e-10
3.23251e-07
-4.03792e-10
3.23246e-07
-3.86064e-10
3.23239e-07
-3.70119e-10
3.2323e-07
-3.55462e-10
-3.42235e-10
3.23219e-07
3.72226e-07
-6.05418e-10
3.7231e-07
-6.26573e-10
3.72366e-07
-6.18538e-10
3.72402e-07
-5.94561e-10
3.72423e-07
-5.62422e-10
3.72433e-07
-5.29226e-10
3.72438e-07
-4.98116e-10
3.72438e-07
-4.68231e-10
3.72434e-07
-4.40598e-10
3.72426e-07
-4.15567e-10
3.72415e-07
-3.92659e-10
3.72401e-07
-3.71924e-10
3.72384e-07
-3.53073e-10
3.72364e-07
-3.35914e-10
-3.20367e-10
3.72342e-07
3.69916e-07
-6.76261e-10
3.69954e-07
-6.64649e-10
3.69971e-07
-6.35902e-10
3.69975e-07
-5.98416e-10
3.69972e-07
-5.59933e-10
3.69965e-07
-5.2159e-10
3.69952e-07
-4.84835e-10
3.69935e-07
-4.51267e-10
3.69915e-07
-4.20893e-10
3.69892e-07
-3.92565e-10
3.69866e-07
-3.6724e-10
3.69839e-07
-3.43979e-10
3.69808e-07
-3.23019e-10
3.69776e-07
-3.03479e-10
-2.85551e-10
3.69741e-07
3.16631e-07
-6.84676e-10
3.16622e-07
-6.55253e-10
3.16603e-07
-6.17052e-10
3.16579e-07
-5.74465e-10
3.16551e-07
-5.32402e-10
3.16522e-07
-4.92051e-10
3.16491e-07
-4.54405e-10
3.1646e-07
-4.19895e-10
3.16427e-07
-3.88365e-10
3.16394e-07
-3.59456e-10
3.1636e-07
-3.33211e-10
3.16325e-07
-3.09011e-10
3.16289e-07
-2.86436e-10
3.1625e-07
-2.65145e-10
-2.44954e-10
3.1621e-07
2.65311e-07
-6.49989e-10
2.6527e-07
-6.13753e-10
2.65225e-07
-5.72008e-10
2.65179e-07
-5.29056e-10
2.65134e-07
-4.86921e-10
2.65089e-07
-4.47513e-10
2.65046e-07
-4.11168e-10
2.65004e-07
-3.77423e-10
2.64962e-07
-3.4632e-10
2.6492e-07
-3.17726e-10
2.64878e-07
-2.91182e-10
2.64835e-07
-2.66348e-10
2.64792e-07
-2.42841e-10
2.64747e-07
-2.20382e-10
-1.98839e-10
2.64701e-07
2.18576e-07
-5.87413e-10
2.18509e-07
-5.47254e-10
2.18443e-07
-5.06024e-10
2.1838e-07
-4.65515e-10
2.1832e-07
-4.2703e-10
2.18263e-07
-3.90791e-10
2.18209e-07
-3.57336e-10
2.18158e-07
-3.25925e-10
2.18108e-07
-2.96772e-10
2.1806e-07
-2.69454e-10
2.18013e-07
-2.43692e-10
2.17966e-07
-2.19245e-10
2.17919e-07
-1.95854e-10
2.17872e-07
-1.73343e-10
-1.51543e-10
2.17824e-07
1.77526e-07
-4.98412e-10
1.77441e-07
-4.62339e-10
1.77361e-07
-4.26449e-10
1.77287e-07
-3.91681e-10
1.77219e-07
-3.587e-10
1.77156e-07
-3.27595e-10
1.77097e-07
-2.98349e-10
1.77042e-07
-2.70746e-10
1.76989e-07
-2.44643e-10
1.7694e-07
-2.19839e-10
1.76892e-07
-1.96116e-10
1.76846e-07
-1.73319e-10
1.76802e-07
-1.51281e-10
1.76758e-07
-1.29868e-10
-1.08934e-10
1.76716e-07
1.42389e-07
-4.0382e-10
1.42301e-07
-3.74647e-10
1.42221e-07
-3.45781e-10
1.42147e-07
-3.17966e-10
1.4208e-07
-2.9147e-10
1.42018e-07
-2.66275e-10
1.41962e-07
-2.4224e-10
1.41911e-07
-2.19259e-10
1.41863e-07
-1.97153e-10
1.41819e-07
-1.75805e-10
1.41778e-07
-1.55088e-10
1.4174e-07
-1.3494e-10
1.41704e-07
-1.15257e-10
1.4167e-07
-9.59708e-11
-7.7001e-11
1.41638e-07
1.1294e-07
-3.15722e-10
1.1286e-07
-2.94665e-10
1.12788e-07
-2.73454e-10
1.12723e-07
-2.52845e-10
1.12664e-07
-2.32931e-10
1.12612e-07
-2.13788e-10
1.12565e-07
-1.95217e-10
1.12522e-07
-1.7717e-10
1.12485e-07
-1.59448e-10
1.12451e-07
-1.41979e-10
1.12421e-07
-1.24744e-10
1.12393e-07
-1.0779e-10
1.12369e-07
-9.10585e-11
1.12348e-07
-7.45297e-11
-5.81242e-11
1.12329e-07
8.8676e-08
-2.42377e-10
8.86101e-08
-2.2876e-10
8.85512e-08
-2.14499e-10
8.84987e-08
-2.00379e-10
8.84522e-08
-1.86447e-10
8.84112e-08
-1.72792e-10
8.83753e-08
-1.59307e-10
8.8344e-08
-1.45901e-10
8.8317e-08
-1.32396e-10
8.82938e-08
-1.18754e-10
8.8274e-08
-1.05021e-10
8.82576e-08
-9.13173e-11
8.82442e-08
-7.76571e-11
8.82337e-08
-6.40391e-11
-5.04345e-11
8.8226e-08
6.89576e-08
-1.85325e-10
6.89065e-08
-1.77595e-10
6.88609e-08
-1.68976e-10
6.88207e-08
-1.60122e-10
6.87853e-08
-1.51089e-10
6.87545e-08
-1.4197e-10
6.87279e-08
-1.32742e-10
6.87053e-08
-1.23281e-10
6.86864e-08
-1.13472e-10
6.86709e-08
-1.03271e-10
6.86586e-08
-9.27395e-11
6.86493e-08
-8.20349e-11
6.86429e-08
-7.12267e-11
6.86392e-08
-6.03432e-11
-4.93724e-11
6.86382e-08
5.31055e-08
-1.42045e-10
5.30664e-08
-1.38512e-10
5.30315e-08
-1.3404e-10
5.30005e-08
-1.29109e-10
5.29732e-08
-1.23757e-10
5.29493e-08
-1.1811e-10
5.29287e-08
-1.12175e-10
5.29113e-08
-1.05841e-10
5.28968e-08
-9.90209e-11
5.28853e-08
-9.16939e-11
5.28764e-08
-8.39065e-11
5.28702e-08
-7.57901e-11
5.28664e-08
-6.74544e-11
5.2865e-08
-5.89494e-11
-5.02675e-11
5.28659e-08
4.04707e-08
-1.08834e-10
4.04402e-08
-1.07998e-10
4.04124e-08
-1.06312e-10
4.03874e-08
-1.04061e-10
4.03649e-08
-1.01286e-10
4.03449e-08
-9.81255e-11
4.03273e-08
-9.45931e-11
4.03121e-08
-9.05972e-11
4.02991e-08
-8.60665e-11
4.02884e-08
-8.09891e-11
4.02799e-08
-7.54101e-11
4.02736e-08
-6.94315e-11
4.02693e-08
-6.31566e-11
4.0267e-08
-5.66469e-11
-4.99091e-11
4.02666e-08
3.0473e-08
-8.25268e-11
3.04482e-08
-8.32262e-11
3.04252e-08
-8.32275e-11
3.04037e-08
-8.26418e-11
3.0384e-08
-8.15353e-11
3.03659e-08
-8.00389e-11
3.03495e-08
-7.81559e-11
3.03347e-08
-7.58117e-11
3.03216e-08
-7.295e-11
3.03101e-08
-6.95638e-11
3.03004e-08
-6.56912e-11
3.02924e-08
-6.14143e-11
3.02861e-08
-5.68152e-11
3.02814e-08
-5.19536e-11
-4.68418e-11
3.02783e-08
2.26149e-08
-6.10782e-11
2.25942e-08
-6.24914e-11
2.25743e-08
-6.33613e-11
2.25554e-08
-6.36806e-11
2.25374e-08
-6.35451e-11
2.25204e-08
-6.30639e-11
2.25045e-08
-6.22309e-11
2.24896e-08
-6.09869e-11
2.2476e-08
-5.92885e-11
2.24635e-08
-5.71303e-11
2.24524e-08
-5.45415e-11
2.24426e-08
-5.15852e-11
2.24341e-08
-4.83238e-11
2.24269e-08
-4.4806e-11
-4.10458e-11
2.24211e-08
1.64798e-08
-4.34206e-11
1.64623e-08
-4.5009e-11
1.64451e-08
-4.61769e-11
1.64283e-08
-4.68708e-11
1.6412e-08
-4.72048e-11
1.63962e-08
-4.7262e-11
1.6381e-08
-4.70319e-11
1.63665e-08
-4.64695e-11
1.63527e-08
-4.55422e-11
1.63398e-08
-4.42443e-11
1.63279e-08
-4.25958e-11
1.63169e-08
-4.06415e-11
1.63071e-08
-3.84275e-11
1.62982e-08
-3.5989e-11
-3.33387e-11
1.62905e-08
1.17239e-08
-2.90896e-11
1.17094e-08
-3.05276e-11
1.16948e-08
-3.16312e-11
1.16803e-08
-3.23627e-11
1.1666e-08
-3.28356e-11
1.16518e-08
-3.31076e-11
1.1638e-08
-3.31686e-11
1.16245e-08
-3.29869e-11
1.16115e-08
-3.25383e-11
1.1599e-08
-3.18163e-11
1.15873e-08
-3.0833e-11
1.15763e-08
-2.96175e-11
1.1566e-08
-2.82019e-11
1.15566e-08
-2.66093e-11
-2.48483e-11
1.15482e-08
8.06599e-09
-1.78794e-11
8.05446e-09
-1.8997e-11
8.04268e-09
-1.98439e-11
8.03074e-09
-2.04305e-11
8.01876e-09
-2.08508e-11
8.00679e-09
-2.11414e-11
7.99492e-09
-2.1295e-11
7.98322e-09
-2.12907e-11
7.9718e-09
-2.11118e-11
7.96073e-09
-2.0752e-11
7.95012e-09
-2.0217e-11
7.94002e-09
-1.95239e-11
7.93051e-09
-1.86931e-11
7.92164e-09
-1.77382e-11
-1.66622e-11
7.91346e-09
5.27782e-09
-9.62474e-12
5.26919e-09
-1.03663e-11
5.26024e-09
-1.08958e-11
5.25108e-09
-1.12707e-11
5.24179e-09
-1.15544e-11
5.23241e-09
-1.17667e-11
5.22302e-09
-1.19033e-11
5.21368e-09
-1.19523e-11
5.20447e-09
-1.19033e-11
5.19547e-09
-1.17512e-11
5.18675e-09
-1.14979e-11
5.17838e-09
-1.11518e-11
5.17041e-09
-1.07243e-11
5.1629e-09
-1.02221e-11
-9.64299e-12
5.15588e-09
3.17493e-09
-4.10265e-12
3.16906e-09
-4.49662e-12
3.1629e-09
-4.74239e-12
3.15655e-09
-4.91933e-12
3.15006e-09
-5.0587e-12
3.14346e-09
-5.16816e-12
3.1368e-09
-5.24557e-12
3.13013e-09
-5.28533e-12
3.12351e-09
-5.28233e-12
3.11699e-09
-5.23344e-12
3.11063e-09
-5.13879e-12
3.10448e-09
-5.00139e-12
3.09859e-09
-4.82657e-12
3.09298e-09
-4.6163e-12
-4.36567e-12
3.0877e-09
1.60909e-09
-1.01452e-12
1.60574e-09
-1.1486e-12
1.60221e-09
-1.20564e-12
1.59854e-09
-1.24864e-12
1.59476e-09
-1.28462e-12
1.59091e-09
-1.31431e-12
1.587e-09
-1.33662e-12
1.58306e-09
-1.34981e-12
1.57913e-09
-1.35233e-12
1.57524e-09
-1.34309e-12
1.57143e-09
-1.32194e-12
1.56771e-09
-1.28945e-12
1.56413e-09
-1.24718e-12
1.56071e-09
-1.19495e-12
-1.12848e-12
1.55748e-09
4.61769e-10
4.60621e-10
4.59415e-10
4.58166e-10
4.56882e-10
4.55567e-10
4.54231e-10
4.52881e-10
4.51529e-10
4.50186e-10
4.48864e-10
4.47574e-10
4.46327e-10
4.45132e-10
4.44004e-10
1.24905e-09
-5.11342e-10
3.06389e-10
1.54251e-09
-4.43468e-10
1.5001e-10
1.8383e-09
-3.10314e-10
1.45228e-11
2.12936e-09
-1.78571e-10
-1.12494e-10
2.41348e-09
-5.54999e-11
-2.28619e-10
2.69107e-09
4.94258e-11
-3.27012e-10
2.9632e-09
1.33106e-10
-4.05239e-10
3.23077e-09
1.92864e-10
-4.60432e-10
3.49453e-09
2.26121e-10
-4.8988e-10
3.75507e-09
2.30541e-10
-4.91081e-10
4.01283e-09
2.04003e-10
-4.61769e-10
4.26813e-09
1.4497e-10
-4.00266e-10
4.52114e-09
5.3259e-11
-3.06265e-10
4.77202e-09
-6.86211e-11
-1.82261e-10
5.0211e-09
-2.13008e-10
-3.60769e-11
5.26933e-09
-3.63673e-10
1.15449e-10
5.51873e-09
-4.91788e-10
2.42389e-10
5.7734e-09
-5.49177e-10
2.94502e-10
6.04026e-09
-4.71669e-10
2.04811e-10
6.32947e-09
-1.70176e-10
-1.19034e-10
6.6534e-09
4.23934e-10
-7.47867e-10
7.02173e-09
1.34079e-09
-1.70912e-09
7.37377e-09
2.05847e-09
-2.41051e-09
7.67481e-09
2.26325e-09
-2.56429e-09
7.91814e-09
2.09232e-09
-2.33564e-09
8.10243e-09
1.67393e-09
-1.85822e-09
8.22911e-09
1.11051e-09
-1.2372e-09
8.30042e-09
4.71585e-10
-5.42897e-10
8.31803e-09
-1.90236e-10
1.72631e-10
8.28298e-09
-8.32118e-10
8.67167e-10
8.19629e-09
-1.41566e-09
1.50235e-09
8.0595e-09
-1.90626e-09
2.04306e-09
7.87496e-09
-2.27509e-09
2.45963e-09
7.6459e-09
-2.50135e-09
2.7304e-09
7.37608e-09
-2.57316e-09
2.84298e-09
7.06934e-09
-2.48705e-09
2.79378e-09
6.72923e-09
-2.24576e-09
2.58587e-09
6.35888e-09
-1.85483e-09
2.22518e-09
5.96134e-09
-1.31812e-09
1.71566e-09
5.53948e-09
-6.34067e-10
1.05593e-09
5.09357e-09
2.00252e-10
2.45655e-10
4.6159e-09
1.16638e-09
-6.88711e-10
4.08855e-09
2.1607e-09
-1.63336e-09
3.51718e-09
2.93313e-09
-2.36175e-09
2.79531e-09
3.18025e-09
-2.45839e-09
2.60018e-09
-5.92623e-10
2.77442e-09
-6.17708e-10
3.01114e-09
-5.47033e-10
3.27542e-09
-4.42845e-10
3.55226e-09
-3.32346e-10
3.83359e-09
-2.31905e-10
4.11582e-09
-1.49117e-10
4.39728e-09
-8.86004e-11
4.67725e-09
-5.38526e-11
4.95542e-09
-4.76213e-11
5.23161e-09
-7.21941e-11
5.50573e-09
-1.29147e-10
5.77764e-09
-2.18648e-10
6.04723e-09
-3.38217e-10
6.31464e-09
-4.80414e-10
6.58062e-09
-6.29657e-10
6.84715e-09
-7.5832e-10
7.11842e-09
-8.20442e-10
7.40168e-09
-7.54932e-10
7.70785e-09
-4.76342e-10
8.05054e-09
8.12452e-11
8.4412e-09
9.50127e-10
8.81702e-09
1.68265e-09
9.14121e-09
1.93905e-09
9.4061e-09
1.82744e-09
9.60943e-09
1.47059e-09
9.75192e-09
9.68021e-10
9.83533e-09
3.88175e-10
9.86107e-09
-2.15975e-10
9.83017e-09
-8.01215e-10
9.74383e-09
-1.32933e-09
9.60403e-09
-1.76645e-09
9.41382e-09
-2.08489e-09
9.1774e-09
-2.26492e-09
8.89984e-09
-2.2956e-09
8.58679e-09
-2.17399e-09
8.24427e-09
-1.90324e-09
7.87902e-09
-1.48958e-09
7.49979e-09
-9.38889e-10
7.11944e-09
-2.53719e-10
6.75687e-09
5.62824e-10
6.43768e-09
1.48557e-09
6.19457e-09
2.40381e-09
6.07653e-09
3.05117e-09
2.87432e-09
5.99753e-09
4.52505e-09
-6.08653e-10
4.60245e-09
-6.95111e-10
4.75321e-09
-6.97788e-10
4.95954e-09
-6.49174e-10
5.20035e-09
-5.73162e-10
5.4619e-09
-4.93447e-10
5.73552e-09
-4.2274e-10
6.01602e-09
-3.69101e-10
6.30023e-09
-3.38062e-10
6.58617e-09
-3.33559e-10
6.87252e-09
-3.58552e-10
7.15836e-09
-4.14979e-10
7.44291e-09
-5.03198e-10
7.72557e-09
-6.20884e-10
8.00607e-09
-7.60914e-10
8.28484e-09
-9.08428e-10
8.56365e-09
-1.03713e-09
8.84662e-09
-1.10341e-09
9.14127e-09
-1.04958e-09
9.45915e-09
-7.94225e-10
9.81513e-09
-2.7473e-10
1.02226e-08
5.42623e-10
1.06179e-08
1.28741e-09
1.09623e-08
1.59466e-09
1.1247e-08
1.5427e-09
1.14687e-08
1.2489e-09
1.1627e-08
8.09693e-10
1.17231e-08
2.92119e-10
1.17579e-08
-2.50792e-10
1.17324e-08
-7.75744e-10
1.16481e-08
-1.24501e-09
1.15074e-08
-1.62579e-09
1.13144e-08
-1.89181e-09
1.10743e-08
-2.02484e-09
1.07939e-08
-2.01522e-09
1.04811e-08
-1.86116e-09
1.01448e-08
-1.56702e-09
9.79625e-09
-1.141e-09
9.45028e-09
-5.92912e-10
9.12961e-09
6.69527e-11
8.86814e-09
8.24291e-10
8.71178e-09
1.64193e-09
8.7018e-09
2.41379e-09
8.83136e-09
2.92161e-09
2.79679e-09
8.90888e-09
7.15031e-09
-5.88227e-10
7.16311e-09
-7.0791e-10
7.23084e-09
-7.65518e-10
7.35913e-09
-7.77466e-10
7.53892e-09
-7.52948e-10
7.75495e-09
-7.09481e-10
7.99639e-09
-6.64182e-10
8.25528e-09
-6.27986e-10
8.52589e-09
-6.08671e-10
8.80417e-09
-6.11839e-10
9.08721e-09
-6.41595e-10
9.37283e-09
-7.00598e-10
9.65929e-09
-7.89664e-10
9.94523e-09
-9.06815e-10
1.02297e-08
-1.04538e-09
1.05126e-08
-1.19134e-09
1.07953e-08
-1.31986e-09
1.10818e-08
-1.38986e-09
1.13796e-08
-1.34736e-09
1.17007e-08
-1.11541e-09
1.20614e-08
-6.35332e-10
1.24769e-08
1.27032e-10
1.28844e-08
8.79995e-10
1.32436e-08
1.2354e-09
1.35446e-08
1.24174e-09
1.37824e-08
1.01106e-09
1.39555e-08
6.36649e-10
1.40639e-08
1.83691e-10
1.41082e-08
-2.95102e-10
1.40892e-08
-7.56736e-10
1.40086e-08
-1.16438e-09
1.38695e-08
-1.4867e-09
1.36769e-08
-1.69923e-09
1.34376e-08
-1.78559e-09
1.31604e-08
-1.73794e-09
1.28554e-08
-1.55618e-09
1.2535e-08
-1.24669e-09
1.22147e-08
-8.20612e-10
1.19146e-08
-2.92879e-10
1.16636e-08
3.18e-10
1.15018e-08
9.86036e-10
1.14768e-08
1.66699e-09
1.16183e-08
2.27226e-09
1.18887e-08
2.6512e-09
2.6093e-09
1.20762e-08
1.06456e-08
-5.53195e-10
1.06184e-08
-6.80736e-10
1.0625e-08
-7.72161e-10
1.06763e-08
-8.28735e-10
1.078e-08
-8.56617e-10
1.09298e-08
-8.59336e-10
1.11156e-08
-8.49977e-10
1.13294e-08
-8.4175e-10
1.15641e-08
-8.43404e-10
1.18142e-08
-8.61872e-10
1.2075e-08
-9.02447e-10
1.23431e-08
-9.6869e-10
1.26155e-08
-1.06208e-09
1.28898e-08
-1.18114e-09
1.31643e-08
-1.31984e-09
1.3438e-08
-1.46507e-09
1.37118e-08
-1.59368e-09
1.39892e-08
-1.66722e-09
1.42777e-08
-1.63582e-09
1.45896e-08
-1.42733e-09
1.4942e-08
-9.87745e-10
1.53527e-08
-2.83647e-10
1.57612e-08
4.71449e-10
1.61267e-08
8.69893e-10
1.64375e-08
9.3094e-10
1.6687e-08
7.6156e-10
1.68719e-08
4.51818e-10
1.6991e-08
6.45397e-11
1.70443e-08
-3.48351e-10
1.70322e-08
-7.44644e-10
1.69567e-08
-1.08891e-09
1.68218e-08
-1.35174e-09
1.66334e-08
-1.51089e-09
1.64001e-08
-1.5523e-09
1.61325e-08
-1.47035e-09
1.58435e-08
-1.26718e-09
1.55485e-08
-9.51687e-10
1.52663e-08
-5.38372e-10
1.50204e-08
-4.69582e-11
1.48408e-08
4.97599e-10
1.47644e-08
1.06238e-09
1.48282e-08
1.60323e-09
1.50454e-08
2.05504e-09
1.53677e-08
2.32892e-09
2.33757e-09
1.56394e-08
1.52081e-08
-5.16272e-10
1.51624e-08
-6.35067e-10
1.51308e-08
-7.4049e-10
1.51261e-08
-8.24088e-10
1.51589e-08
-8.89389e-10
1.52326e-08
-9.33011e-10
1.53475e-08
-9.64878e-10
1.5496e-08
-9.90298e-10
1.56727e-08
-1.02008e-09
1.58717e-08
-1.06091e-09
1.6088e-08
-1.11866e-09
1.63168e-08
-1.19752e-09
1.65543e-08
-1.29957e-09
1.6797e-08
-1.42386e-09
1.70422e-08
-1.56507e-09
1.72882e-08
-1.71109e-09
1.75352e-08
-1.8406e-09
1.77858e-08
-1.91785e-09
1.80475e-08
-1.8975e-09
1.83327e-08
-1.71252e-09
1.86591e-08
-1.31419e-09
1.90468e-08
-6.71317e-10
1.94407e-08
7.74819e-11
1.97998e-08
5.10814e-10
2.01105e-08
6.20226e-10
2.03642e-08
5.07914e-10
2.05553e-08
2.60701e-10
2.06814e-08
-6.15992e-11
2.07414e-08
-4.08364e-10
2.07355e-08
-7.3875e-10
2.06659e-08
-1.01931e-09
2.05373e-08
-1.22307e-09
2.03569e-08
-1.33048e-09
2.01347e-08
-1.33017e-09
1.98835e-08
-1.21911e-09
1.96183e-08
-1.00198e-09
1.93569e-08
-6.90275e-10
1.91199e-08
-3.0143e-10
1.89314e-08
1.41623e-10
1.88181e-08
6.10896e-10
1.88078e-08
1.07265e-09
1.89223e-08
1.48872e-09
1.91615e-08
1.81583e-09
1.94818e-08
2.00868e-09
2.03487e-09
1.97845e-08
2.10711e-08
-4.83096e-10
2.10232e-08
-5.87227e-10
2.09734e-08
-6.90718e-10
2.09352e-08
-7.85878e-10
2.09172e-08
-8.71371e-10
2.0927e-08
-9.42743e-10
2.09693e-08
-1.00725e-09
2.1044e-08
-1.06495e-09
2.11482e-08
-1.12428e-09
2.12777e-08
-1.19047e-09
2.14284e-08
-1.2693e-09
2.15956e-08
-1.36478e-09
2.17753e-08
-1.4792e-09
2.19633e-08
-1.61183e-09
2.21562e-08
-1.758e-09
2.23516e-08
-1.9065e-09
2.2549e-08
-2.03797e-09
2.27504e-08
-2.11928e-09
2.29629e-08
-2.11001e-09
2.31988e-08
-1.94843e-09
2.34763e-08
-1.59169e-09
2.38174e-08
-1.01243e-09
2.4176e-08
-2.81072e-10
2.45113e-08
1.75519e-10
2.48077e-08
3.23785e-10
2.50542e-08
2.61483e-10
2.52427e-08
7.21906e-11
2.53692e-08
-1.88086e-10
2.54314e-08
-4.7057e-10
2.5429e-08
-7.36428e-10
2.53646e-08
-9.54844e-10
2.52433e-08
-1.10182e-09
2.50738e-08
-1.1609e-09
2.48673e-08
-1.12376e-09
2.46383e-08
-9.90107e-10
2.44034e-08
-7.67094e-10
2.41816e-08
-4.68399e-10
2.39934e-08
-1.13288e-10
2.38605e-08
2.74524e-10
2.38039e-08
6.67492e-10
2.38406e-08
1.03596e-09
2.39787e-08
1.35061e-09
2.42095e-08
1.58503e-09
2.4499e-08
1.71924e-09
1.74556e-09
2.47883e-08
2.85089e-08
-4.53966e-10
2.84653e-08
-5.43599e-10
2.84128e-08
-6.38216e-10
2.83597e-08
-7.32753e-10
2.83127e-08
-8.24357e-10
2.82804e-08
-9.10498e-10
2.82666e-08
-9.9346e-10
2.82754e-08
-1.07371e-09
2.83073e-08
-1.15617e-09
2.83612e-08
-1.24438e-09
2.84347e-08
-1.34283e-09
2.85247e-08
-1.45477e-09
2.86277e-08
-1.5822e-09
2.87399e-08
-1.72403e-09
2.88579e-08
-1.87605e-09
2.8979e-08
-2.02762e-09
2.91024e-08
-2.16134e-09
2.92296e-08
-2.24646e-09
2.93674e-08
-2.24785e-09
2.95281e-08
-2.10904e-09
2.97297e-08
-1.79335e-09
2.99962e-08
-1.27893e-09
3.02939e-08
-5.78788e-10
3.05836e-08
-1.14155e-10
3.08472e-08
6.01756e-11
3.10709e-08
3.78451e-11
3.12439e-08
-1.0086e-10
3.13605e-08
-3.04727e-10
3.14173e-08
-5.27297e-10
3.14133e-08
-7.32427e-10
3.1351e-08
-8.926e-10
3.12365e-08
-9.87295e-10
3.10791e-08
-1.0035e-09
3.08914e-08
-9.36047e-10
3.06886e-08
-7.87335e-10
3.04881e-08
-5.66559e-10
3.03083e-08
-2.88669e-10
3.01684e-08
2.67066e-11
3.00854e-08
3.57507e-10
3.00736e-08
6.79244e-10
3.01409e-08
9.68715e-10
3.02859e-08
1.20554e-09
3.04961e-08
1.37487e-09
3.07458e-08
1.46956e-09
1.49155e-09
3.09998e-08
3.78366e-08
-4.2675e-10
3.77972e-08
-5.04152e-10
3.77474e-08
-5.88397e-10
3.76911e-08
-6.76518e-10
3.7633e-08
-7.66194e-10
3.75783e-08
-8.55823e-10
3.75305e-08
-9.45695e-10
3.74936e-08
-1.03674e-09
3.74689e-08
-1.13148e-09
3.74572e-08
-1.23272e-09
3.74579e-08
-1.34354e-09
3.74693e-08
-1.46618e-09
3.74892e-08
-1.60204e-09
3.75148e-08
-1.74969e-09
3.75435e-08
-1.9047e-09
3.75728e-08
-2.05689e-09
3.76022e-08
-2.19075e-09
3.76332e-08
-2.27745e-09
3.76727e-08
-2.2874e-09
3.77329e-08
-2.16922e-09
3.78318e-08
-1.89225e-09
3.79946e-08
-1.44176e-09
3.82041e-08
-7.88222e-10
3.84236e-08
-3.33724e-10
3.86327e-08
-1.48883e-10
3.88143e-08
-1.4382e-10
3.89553e-08
-2.4181e-10
3.90483e-08
-3.97727e-10
3.90885e-08
-5.67505e-10
3.90745e-08
-7.18439e-10
3.90088e-08
-8.26922e-10
3.88978e-08
-8.763e-10
3.87515e-08
-8.57173e-10
3.85829e-08
-7.67463e-10
3.84075e-08
-6.11879e-10
3.82419e-08
-4.00948e-10
3.8103e-08
-1.49766e-10
3.80062e-08
1.23496e-10
3.79643e-08
3.994e-10
3.79849e-08
6.586e-10
3.80694e-08
8.84192e-10
3.82118e-08
1.0632e-09
3.83986e-08
1.18806e-09
3.86107e-08
1.25748e-09
1.27609e-09
3.88261e-08
4.93991e-08
-4.00161e-10
4.93625e-08
-4.67519e-10
4.9316e-08
-5.41958e-10
4.92614e-08
-6.21915e-10
4.92011e-08
-7.05841e-10
4.91378e-08
-7.92593e-10
4.90741e-08
-8.81979e-10
4.90121e-08
-9.74669e-10
4.89527e-08
-1.07216e-09
4.88965e-08
-1.17654e-09
4.8843e-08
-1.28996e-09
4.87909e-08
-1.41416e-09
4.87386e-08
-1.5497e-09
4.8684e-08
-1.69505e-09
4.8625e-08
-1.84572e-09
4.85599e-08
-1.99177e-09
4.84889e-08
-2.11973e-09
4.84136e-08
-2.20222e-09
4.83417e-08
-2.21544e-09
4.82852e-08
-2.11279e-09
4.82622e-08
-1.86924e-09
4.82984e-08
-1.47798e-09
4.83959e-08
-8.85692e-10
4.85228e-08
-4.6062e-10
4.8656e-08
-2.82096e-10
4.87755e-08
-2.63272e-10
4.88657e-08
-3.31991e-10
4.89189e-08
-4.5099e-10
4.89291e-08
-5.77643e-10
4.88942e-08
-6.83565e-10
4.88168e-08
-7.49548e-10
4.87035e-08
-7.62971e-10
4.85643e-08
-7.17986e-10
4.84121e-08
-6.15268e-10
4.82614e-08
-4.61212e-10
4.81273e-08
-2.6677e-10
4.80236e-08
-4.60632e-11
4.79619e-08
1.85192e-10
4.795e-08
4.11207e-10
4.7991e-08
6.17663e-10
4.80821e-08
7.93052e-10
4.82157e-08
9.29669e-10
4.83796e-08
1.02416e-09
4.85595e-08
1.07756e-09
1.09455e-09
4.8741e-08
6.35595e-08
-3.75613e-10
6.35266e-08
-4.34543e-10
6.34847e-08
-5.00122e-10
6.34345e-08
-5.71644e-10
6.33768e-08
-6.482e-10
6.33132e-08
-7.29009e-10
6.3245e-08
-8.13751e-10
6.31731e-08
-9.0272e-10
6.30976e-08
-9.9674e-10
6.30183e-08
-1.09719e-09
6.29338e-08
-1.20542e-09
6.28423e-08
-1.32267e-09
6.27415e-08
-1.44891e-09
6.26289e-08
-1.58252e-09
6.25025e-08
-1.71924e-09
6.23602e-08
-1.84949e-09
6.22026e-08
-1.96211e-09
6.20315e-08
-2.03111e-09
6.18546e-08
-2.03856e-09
6.16843e-08
-1.94256e-09
6.15385e-08
-1.72338e-09
6.14419e-08
-1.38141e-09
6.14167e-08
-8.60442e-10
6.14382e-08
-4.82149e-10
6.14809e-08
-3.24826e-10
6.15222e-08
-3.04525e-10
6.15455e-08
-3.55343e-10
6.15442e-08
-4.49687e-10
6.1511e-08
-5.44422e-10
6.14439e-08
-6.16459e-10
6.13455e-08
-6.51181e-10
6.12224e-08
-6.39849e-10
6.10842e-08
-5.79817e-10
6.09429e-08
-4.73923e-10
6.08111e-08
-3.29461e-10
6.07013e-08
-1.56929e-10
6.06239e-08
3.13338e-11
6.05865e-08
2.22561e-10
6.05931e-08
4.04695e-10
6.06431e-08
5.67649e-10
6.07321e-08
7.03974e-10
6.08525e-08
8.09334e-10
6.09941e-08
8.82565e-10
6.11462e-08
9.25398e-10
9.41705e-10
6.12991e-08
8.07045e-08
-3.57048e-10
8.06787e-08
-4.08758e-10
8.0645e-08
-4.66393e-10
8.06031e-08
-5.29723e-10
8.05532e-08
-5.98293e-10
8.04958e-08
-6.71618e-10
8.04314e-08
-7.49373e-10
8.03602e-08
-8.31577e-10
8.0282e-08
-9.18516e-10
8.01957e-08
-1.01089e-09
8.00996e-08
-1.10927e-09
7.99911e-08
-1.21422e-09
7.98673e-08
-1.32512e-09
7.97249e-08
-1.4401e-09
7.95608e-08
-1.55516e-09
7.93725e-08
-1.66112e-09
7.91596e-08
-1.74921e-09
7.89235e-08
-1.79499e-09
7.86712e-08
-1.78628e-09
7.84144e-08
-1.68579e-09
7.81705e-08
-1.47951e-09
7.79616e-08
-1.17245e-09
7.78245e-08
-7.23344e-10
7.77451e-08
-4.02786e-10
7.76957e-08
-2.75442e-10
7.76558e-08
-2.64573e-10
7.76097e-08
-3.09274e-10
7.75467e-08
-3.86657e-10
7.74621e-08
-4.59897e-10
7.73553e-08
-5.0964e-10
7.72292e-08
-5.25014e-10
7.709e-08
-5.00735e-10
7.69469e-08
-4.3668e-10
7.681e-08
-3.37047e-10
7.66898e-08
-2.09219e-10
7.65954e-08
-6.25663e-11
7.6534e-08
9.27739e-11
7.65097e-08
2.46895e-10
7.65233e-08
3.91003e-10
7.65728e-08
5.18223e-10
7.66529e-08
6.23879e-10
7.67566e-08
7.05596e-10
7.6876e-08
7.63197e-10
7.7003e-08
7.98368e-10
8.14049e-10
7.71307e-08
1.01283e-07
-3.48527e-10
1.01268e-07
-3.93989e-10
1.01246e-07
-4.44538e-10
1.01217e-07
-5.0017e-10
1.01179e-07
-5.60695e-10
1.01133e-07
-6.25837e-10
1.01079e-07
-6.95298e-10
1.01017e-07
-7.68936e-10
1.00945e-07
-8.46632e-10
1.00862e-07
-9.28559e-10
1.00768e-07
-1.01452e-09
1.00658e-07
-1.1045e-09
1.0053e-07
-1.19713e-09
1.0038e-07
-1.29029e-09
1.00205e-07
-1.37996e-09
1.00001e-07
-1.45741e-09
9.97679e-08
-1.51585e-09
9.95055e-08
-1.53264e-09
9.92198e-08
-1.50057e-09
9.89209e-08
-1.38685e-09
9.86245e-08
-1.18312e-09
9.83491e-08
-8.97072e-10
9.81382e-08
-5.12483e-10
9.79894e-08
-2.53932e-10
9.78699e-08
-1.55935e-10
9.77596e-08
-1.54246e-10
9.76511e-08
-2.00778e-10