/*--------------------------------*- C++ -*----------------------------------*\
| =========                 |                                                 |
| \\      /  F ield         | OpenFOAM: The Open Source CFD Toolbox           |
|  \\    /   O peration     | Version:  2312                                  |
|   \\  /    A nd           | Website:  www.openfoam.com                      |
|    \\/     M anipulation  |                                                 |
\*---------------------------------------------------------------------------*/
FoamFile
{
    version     2.0;
    format      ascii;
    arch        "LSB;label=32;scalar=64";
    class       volVectorField;
    location    "160";
    object      U;
}
// * * * * * * * * * * * * * * * * * * * * * * * * * * * * * * * * * * * * * //

dimensions      [0 1 -1 0 0 0 0];

internalField   nonuniform List<vector> 
4800
(
(0.00048284 2.28887e-07 -2.32511e-26)
(0.000477839 2.491e-07 -1.6596e-25)
(0.000475411 2.56618e-07 2.12287e-25)
(0.000474584 2.65749e-07 1.0016e-25)
(0.000474916 2.63868e-07 1.50848e-24)
(0.000476141 2.56148e-07 -3.62094e-24)
(0.000478118 2.22785e-07 3.43069e-24)
(0.000480824 1.32107e-07 -5.04516e-24)
(0.00048439 -3.28259e-08 1.60221e-24)
(0.000489027 -3.10158e-07 5.61106e-24)
(0.000495176 -8.53469e-07 -1.72562e-24)
(0.000504171 -2.33152e-06 -1.38298e-25)
(0.00052358 -7.77294e-06 -2.14889e-24)
(0.000572121 -2.98531e-05 1.0111e-24)
(0.00065191 -9.70011e-05 -8.06092e-25)
(0.0014954 1.15513e-06 -7.36499e-26)
(0.00147969 7.14961e-07 9.18566e-26)
(0.00147156 3.64357e-07 -8.70472e-25)
(0.00146817 6.74582e-08 6.44618e-25)
(0.00146822 -2.28245e-07 2.14025e-24)
(0.00147084 -5.59289e-07 -3.44636e-24)
(0.00147567 -9.54852e-07 -1.03172e-24)
(0.00148263 -1.53958e-06 -2.75032e-25)
(0.00149197 -2.4255e-06 8.39435e-24)
(0.0015043 -3.8357e-06 -6.24081e-24)
(0.00152088 -6.45129e-06 6.79361e-25)
(0.00154454 -1.25814e-05 1.0535e-24)
(0.00158457 -3.02502e-05 -1.57412e-24)
(0.00165195 -8.43442e-05 -4.87433e-25)
(0.00172393 -0.000206757 2.07561e-24)
(0.00261642 3.74855e-06 -5.27186e-26)
(0.0025889 2.36837e-06 5.37953e-26)
(0.00257395 1.31701e-06 5.68282e-25)
(0.00256697 3.97341e-07 -1.36704e-24)
(0.00256573 -5.24808e-07 1.34629e-24)
(0.00256875 -1.56753e-06 1.30347e-24)
(0.00257532 -2.82926e-06 -3.4171e-24)
(0.00258545 -4.56575e-06 -2.17279e-24)
(0.00259921 -7.08526e-06 5.17927e-24)
(0.00261738 -1.10105e-05 1.99392e-24)
(0.00264134 -1.78795e-05 -6.9247e-24)
(0.00267337 -3.17892e-05 -1.08434e-24)
(0.00271771 -6.26332e-05 2.98186e-24)
(0.00277302 -0.000130887 4.77675e-24)
(0.00281297 -0.000245108 -2.47535e-24)
(0.00385131 8.44142e-06 1.94732e-26)
(0.00381123 5.50961e-06 -1.36486e-25)
(0.00378853 3.28745e-06 6.17315e-25)
(0.00377693 1.35033e-06 6.83036e-25)
(0.00377323 -6.03312e-07 -6.46765e-25)
(0.00377561 -2.70363e-06 -3.87699e-24)
(0.00378254 -5.29763e-06 -2.78381e-24)
(0.00379435 -8.81738e-06 1.03658e-23)
(0.00381065 -1.37448e-05 4.39362e-24)
(0.00383196 -2.11489e-05 -6.24723e-24)
(0.00385907 -3.31759e-05 -2.54353e-24)
(0.00389247 -5.44636e-05 -1.96673e-24)
(0.0039314 -9.32527e-05 5.31004e-26)
(0.00396839 -0.000160162 1.46815e-24)
(0.00398434 -0.000250568 7.20367e-27)
(0.00520263 1.56745e-05 -3.56787e-26)
(0.00515011 1.04977e-05 -2.19976e-25)
(0.00511919 6.57951e-06 -1.46141e-25)
(0.00510222 3.19349e-06 3.79383e-25)
(0.00509496 -1.39202e-07 -1.12217e-24)
(0.00509563 -3.87415e-06 2.78762e-24)
(0.00510156 -8.09741e-06 -4.8111e-25)
(0.0051133 -1.38967e-05 1.80735e-24)
(0.00512994 -2.17187e-05 -1.00414e-23)
(0.00515143 -3.29106e-05 1.92175e-23)
(0.00517755 -4.96849e-05 -1.87027e-23)
(0.00520709 -7.58159e-05 9.94767e-24)
(0.0052366 -0.000116232 -9.29432e-24)
(0.0052582 -0.000174243 8.80405e-24)
(0.00526103 -0.000242382 -3.51966e-24)
(0.00666843 2.58707e-05 4.69953e-26)
(0.0066051 1.77418e-05 1.69704e-25)
(0.00656648 1.15966e-05 -9.03714e-25)
(0.00654399 6.33211e-06 -5.962e-25)
(0.00653273 1.16126e-06 1.56744e-24)
(0.00653039 -4.43194e-06 5.7534e-25)
(0.00653442 -1.07796e-05 -4.54777e-24)
(0.00654441 -1.91179e-05 1.10233e-23)
(0.00655925 -2.99639e-05 -1.44716e-23)
(0.00657823 -4.46624e-05 3.45444e-24)
(0.0066002 -6.49962e-05 1.07394e-23)
(0.00662294 -9.32323e-05 -1.50221e-23)
(0.0066426 -0.000131237 7.54204e-24)
(0.00665336 -0.000178508 7.7838e-24)
(0.00665029 -0.000228827 -5.93554e-24)
(0.00823998 3.91524e-05 3.86466e-26)
(0.00816989 2.74654e-05 -2.30056e-25)
(0.00812574 1.863e-05 8.35099e-25)
(0.00809875 1.11049e-05 -1.17069e-24)
(0.00808383 3.78536e-06 -4.08591e-24)
(0.00807812 -3.92923e-06 6.97646e-24)
(0.00807944 -1.27319e-05 -4.31064e-24)
(0.0080865 -2.36047e-05 1.4883e-23)
(0.00809796 -3.72625e-05 -1.01175e-23)
(0.00811253 -5.4747e-05 -4.79353e-24)
(0.00812854 -7.71533e-05 -9.55753e-24)
(0.00814357 -0.000105329 8.78496e-24)
(0.00815456 -0.000139181 2.48736e-24)
(0.00815803 -0.000176858 2.14012e-24)
(0.00815243 -0.000214141 -1.88602e-24)
(0.00989988 5.49361e-05 -5.51528e-26)
(0.00983023 3.93804e-05 7.57483e-25)
(0.00978501 2.75869e-05 -1.78153e-24)
(0.00975625 1.75609e-05 -1.5126e-24)
(0.00973926 7.93698e-06 5.22364e-25)
(0.00973108 -2.10644e-06 1.09327e-24)
(0.00972966 -1.32782e-05 4.08924e-24)
(0.00973342 -2.65416e-05 -1.13066e-23)
(0.0097408 -4.25069e-05 -6.18638e-24)
(0.00975022 -6.1811e-05 1.67905e-23)
(0.0097599 -8.48621e-05 -5.28736e-24)
(0.00976776 -0.000111542 1.81032e-23)
(0.00977185 -0.000140895 -9.55865e-24)
(0.00977034 -0.000171036 -3.06083e-24)
(0.00976336 -0.000199374 1.81533e-24)
(0.0116219 7.14463e-05 -7.16781e-27)
(0.011563 5.22723e-05 4.15879e-25)
(0.0115236 3.76258e-05 -5.94674e-25)
(0.0114979 2.51405e-05 1.46778e-24)
(0.011482 1.32714e-05 -8.8771e-24)
(0.0114736 1.03337e-06 9.41291e-24)
(0.0114708 -1.22994e-05 -1.51752e-23)
(0.011472 -2.75175e-05 9.27737e-24)
(0.0114758 -4.50562e-05 7.01555e-24)
(0.0114806 -6.51524e-05 1.54663e-23)
(0.0114849 -8.76978e-05 -2.02493e-23)
(0.0114871 -0.000112101 -3.78962e-24)
(0.0114863 -0.000137258 1.73298e-24)
(0.0114815 -0.000161736 1.25141e-23)
(0.0114736 -0.000184039 -5.09791e-24)
(0.0133757 8.53904e-05 3.8057e-26)
(0.0133389 6.36338e-05 -1.70911e-25)
(0.0133138 4.6782e-05 7.86046e-25)
(0.0132972 3.22963e-05 -2.80275e-24)
(0.0132871 1.8572e-05 4.29766e-24)
(0.0132819 4.5798e-06 -5.64114e-24)
(0.0132803 -1.0397e-05 9.55703e-24)
(0.013281 -2.68924e-05 1.75789e-24)
(0.013283 -4.51327e-05 -1.34029e-23)
(0.0132848 -6.50564e-05 1.92832e-23)
(0.0132856 -8.62726e-05 -2.13409e-23)
(0.0132844 -0.000108079 -6.34116e-24)
(0.0132808 -0.00012955 1.1173e-23)
(0.0132744 -0.00014975 3.32519e-24)
(0.0132663 -0.000167858 -1.45454e-24)
(0.0151388 9.24481e-05 1.42167e-25)
(0.0151319 6.98232e-05 -1.31e-24)
(0.0151276 5.19517e-05 -2.21869e-24)
(0.0151258 3.63671e-05 5.20317e-24)
(0.015126 2.15534e-05 2.41532e-24)
(0.0151277 6.56787e-06 -1.51935e-23)
(0.0151304 -9.2449e-06 4.61779e-24)
(0.0151334 -2.6132e-05 3.37442e-24)
(0.015136 -4.41385e-05 -1.50774e-23)
(0.0151374 -6.30381e-05 1.56353e-23)
(0.0151373 -8.23577e-05 -1.26972e-23)
(0.015135 -0.000101481 3.25961e-23)
(0.0151309 -0.000119743 -1.5723e-23)
(0.0151245 -0.00013659 9.27435e-24)
(0.0151172 -0.000151596 -2.53372e-24)
(0.0169115 8.93055e-05 -4.25408e-26)
(0.016933 6.74716e-05 8.62076e-25)
(0.0169503 4.989e-05 -1.75052e-24)
(0.0169648 3.42996e-05 -9.42301e-25)
(0.0169772 1.93774e-05 1.04491e-23)
(0.0169879 4.31799e-06 -1.42441e-24)
(0.0169969 -1.13052e-05 -1.89865e-23)
(0.0170042 -2.76026e-05 2.23567e-23)
(0.0170097 -4.44801e-05 -5.00066e-24)
(0.0170129 -6.16491e-05 -1.76269e-23)
(0.0170141 -7.86784e-05 1.88892e-23)
(0.017013 -9.51067e-05 1.02451e-23)
(0.0170102 -0.000110501 -8.60729e-24)
(0.0170054 -0.000124558 -1.49497e-23)
(0.0169999 -0.000137073 1.2556e-24)
(0.0187201 7.64001e-05 -1.12095e-26)
(0.0187586 5.59961e-05 -9.42277e-25)
(0.0187902 3.94238e-05 4.71295e-24)
(0.0188163 2.45678e-05 4.04118e-25)
(0.0188381 1.03269e-05 2.91227e-24)
(0.0188561 -3.97639e-06 -1.01375e-23)
(0.0188708 -1.85185e-05 8.84156e-24)
(0.0188823 -3.33873e-05 2.09835e-24)
(0.0188911 -4.84337e-05 1.85296e-23)
(0.0188969 -6.33811e-05 -2.85277e-23)
(0.0189004 -7.7893e-05 -1.3e-23)
(0.0189015 -9.16595e-05 -8.6296e-24)
(0.0189008 -0.000104419 1.62547e-23)
(0.0188984 -0.000116018 -4.67337e-25)
(0.0188952 -0.000126371 1.5783e-24)
(0.0205918 5.80353e-05 -1.92545e-26)
(0.0206333 3.8666e-05 9.39658e-25)
(0.0206682 2.30038e-05 -1.38084e-24)
(0.0206977 8.95561e-06 -9.90738e-27)
(0.0207224 -4.32228e-06 2.0152e-24)
(0.020743 -1.73656e-05 5.24468e-24)
(0.0207598 -3.03662e-05 -2.03775e-23)
(0.0207731 -4.33761e-05 1.64227e-24)
(0.0207832 -5.62664e-05 1.04715e-23)
(0.0207905 -6.88254e-05 -4.88255e-24)
(0.0207954 -8.0825e-05 1.33228e-23)
(0.0207981 -9.20785e-05 9.35508e-24)
(0.0207992 -0.00010244 -1.69901e-23)
(0.0207985 -0.000111841 1.16198e-23)
(0.0207972 -0.000120256 -9.66709e-24)
(0.0225183 3.87238e-05 -5.08383e-25)
(0.0225545 1.99555e-05 3.53484e-25)
(0.0225853 4.72974e-06 1.65233e-24)
(0.0226114 -8.47448e-06 -9.02225e-24)
(0.0226336 -2.07025e-05 7.99457e-24)
(0.0226521 -3.23826e-05 -6.05807e-24)
(0.0226672 -4.37591e-05 4.31284e-24)
(0.0226791 -5.48734e-05 -3.13491e-23)
(0.0226882 -6.5639e-05 4.52776e-23)
(0.0226948 -7.5935e-05 -2.68416e-23)
(0.0226995 -8.56367e-05 2.40183e-23)
(0.0227022 -9.46516e-05 2.01238e-23)
(0.0227036 -0.00010291 -3.51858e-23)
(0.0227035 -0.000110392 1.14517e-23)
(0.0227029 -0.000117098 -4.80747e-25)
(0.0244417 2.03674e-05 -1.71171e-26)
(0.0244711 2.14232e-06 -4.96405e-27)
(0.0244959 -1.23577e-05 -3.97106e-26)
(0.0245168 -2.45713e-05 -2.52698e-25)
(0.0245342 -3.5587e-05 3.30496e-24)
(0.0245486 -4.58696e-05 -5.7312e-24)
(0.0245603 -5.56234e-05 5.39878e-24)
(0.0245692 -6.49052e-05 -1.72582e-23)
(0.024576 -7.36929e-05 3.9424e-23)
(0.0245808 -8.19458e-05 -5.06236e-23)
(0.0245839 -8.96154e-05 4.15546e-23)
(0.0245856 -9.66731e-05 -1.40527e-23)
(0.0245863 -0.000103099 7.25893e-25)
(0.0245858 -0.000108902 3.20623e-24)
(0.0245849 -0.000114095 -6.16892e-24)
(0.026267 2.6498e-06 -1.37019e-24)
(0.0262911 -1.4336e-05 2.53495e-24)
(0.0263109 -2.7497e-05 -9.27565e-25)
(0.026327 -3.85081e-05 -1.26075e-24)
(0.0263402 -4.81495e-05 5.27744e-24)
(0.0263507 -5.68608e-05 -5.40931e-24)
(0.026359 -6.48765e-05 -4.95778e-24)
(0.0263651 -7.23186e-05 -1.20374e-23)
(0.0263695 -7.92158e-05 6.11255e-24)
(0.0263723 -8.55776e-05 2.9329e-23)
(0.0263739 -9.14076e-05 -1.55021e-23)
(0.0263742 -9.67092e-05 9.22831e-24)
(0.0263739 -0.000101481 -3.81633e-24)
(0.0263726 -0.000105747 -1.12272e-23)
(0.026371 -0.000109528 5.74199e-24)
(0.027872 -1.46084e-05 4.3788e-25)
(0.027892 -2.96123e-05 -7.55414e-25)
(0.0279078 -4.12376e-05 -1.41061e-25)
(0.0279201 -5.06732e-05 -9.01699e-25)
(0.0279298 -5.86643e-05 -1.63023e-24)
(0.0279372 -6.56147e-05 8.81699e-24)
(0.0279427 -7.17857e-05 -7.05556e-24)
(0.0279465 -7.73568e-05 -4.50012e-24)
(0.0279489 -8.23842e-05 4.14237e-24)
(0.0279501 -8.69051e-05 -4.82495e-24)
(0.0279503 -9.09674e-05 1.12599e-23)
(0.0279495 -9.46009e-05 5.65728e-24)
(0.0279482 -9.78095e-05 -2.11415e-23)
(0.0279462 -0.00010061 1.457e-23)
(0.0279439 -0.000103022 -2.96113e-24)
(0.0290959 -3.13933e-05 1.26356e-24)
(0.0291117 -4.39998e-05 1.97322e-24)
(0.0291236 -5.35663e-05 -4.46585e-24)
(0.0291325 -6.10452e-05 2.26629e-25)
(0.0291391 -6.71334e-05 3.20134e-25)
(0.0291438 -7.21456e-05 -3.38201e-24)
(0.0291469 -7.6363e-05 -4.63763e-24)
(0.0291487 -8.00471e-05 1.07849e-23)
(0.0291494 -8.32406e-05 1.1242e-23)
(0.0291491 -8.59678e-05 -2.71595e-23)
(0.029148 -8.83276e-05 1.54516e-23)
(0.0291461 -9.02908e-05 -1.06888e-24)
(0.0291438 -9.19099e-05 -8.63147e-25)
(0.029141 -9.31877e-05 1.1553e-24)
(0.029138 -9.42092e-05 -5.37408e-25)
(0.029721 -4.63754e-05 -3.24927e-24)
(0.0297319 -5.6214e-05 -6.40227e-24)
(0.0297396 -6.34967e-05 4.24792e-24)
(0.0297451 -6.87495e-05 1.04078e-23)
(0.0297489 -7.28631e-05 -2.7061e-24)
(0.0297511 -7.59727e-05 1.87453e-25)
(0.0297522 -7.82668e-05 -3.98798e-25)
(0.0297523 -8.00773e-05 -7.90734e-24)
(0.0297514 -8.15181e-05 1.89368e-23)
(0.0297499 -8.25489e-05 -8.01693e-24)
(0.029748 -8.31936e-05 3.725e-24)
(0.0297456 -8.35371e-05 -6.25413e-24)
(0.0297426 -8.36381e-05 -6.62379e-24)
(0.0297392 -8.35216e-05 9.75317e-24)
(0.0297355 -8.3186e-05 -4.19877e-24)
(0.0295389 -5.83683e-05 5.04502e-24)
(0.029546 -6.53752e-05 -1.12229e-23)
(0.0295506 -7.0189e-05 2.15212e-24)
(0.0295533 -7.35133e-05 1.31058e-23)
(0.0295546 -7.56527e-05 -1.16409e-23)
(0.0295547 -7.6918e-05 2.95212e-24)
(0.029554 -7.75789e-05 -1.14649e-24)
(0.0295525 -7.77549e-05 3.29379e-24)
(0.0295504 -7.75104e-05 3.53455e-24)
(0.0295477 -7.69654e-05 -4.78213e-24)
(0.0295444 -7.62176e-05 -3.31383e-24)
(0.0295408 -7.52732e-05 4.26793e-24)
(0.0295368 -7.40943e-05 -4.69931e-24)
(0.0295326 -7.26793e-05 2.79797e-24)
(0.0295281 -7.10475e-05 -1.23355e-24)
(0.0285439 -6.53014e-05 3.07171e-24)
(0.0285469 -6.98541e-05 -6.27854e-24)
(0.0285479 -7.25524e-05 -3.56465e-24)
(0.0285477 -7.40226e-05 1.68127e-23)
(0.0285464 -7.45659e-05 -1.40484e-23)
(0.0285443 -7.44176e-05 1.94411e-24)
(0.0285415 -7.37318e-05 1.85546e-24)
(0.0285383 -7.26491e-05 3.85624e-25)
(0.0285345 -7.12693e-05 -8.92414e-25)
(0.0285305 -6.96312e-05 7.2658e-24)
(0.0285261 -6.77443e-05 -4.39445e-24)
(0.0285216 -6.56236e-05 1.03447e-24)
(0.0285169 -6.32932e-05 -9.43661e-24)
(0.028512 -6.07831e-05 4.61589e-24)
(0.0285069 -5.81149e-05 1.61183e-24)
(0.0270012 -6.69397e-05 7.53664e-24)
(0.0270002 -6.95564e-05 -1.30476e-23)
(0.026998 -7.08129e-05 2.75982e-24)
(0.026995 -7.09865e-05 -4.77307e-24)
(0.0269912 -7.04023e-05 -4.67513e-24)
(0.026987 -6.92497e-05 1.82144e-23)
(0.0269823 -6.76494e-05 -5.89878e-24)
(0.0269773 -6.57015e-05 1.03363e-24)
(0.0269721 -6.34645e-05 -2.93277e-25)
(0.0269668 -6.09765e-05 1.74477e-24)
(0.0269613 -5.82793e-05 -4.68606e-24)
(0.0269557 -5.54147e-05 4.74714e-24)
(0.0269499 -5.24055e-05 -2.73058e-25)
(0.0269442 -4.92656e-05 -1.91453e-24)
(0.0269383 -4.60014e-05 3.24795e-25)
(0.0251129 -6.46932e-05 2.87781e-24)
(0.0251081 -6.60417e-05 -1.41093e-23)
(0.0251025 -6.61739e-05 2.31726e-23)
(0.0250965 -6.54114e-05 -1.65459e-23)
(0.0250901 -6.4015e-05 1.41705e-23)
(0.0250835 -6.21335e-05 -5.34309e-24)
(0.0250768 -5.98763e-05 -3.11946e-24)
(0.0250701 -5.73193e-05 -2.15098e-24)
(0.0250635 -5.45197e-05 1.30335e-24)
(0.0250568 -5.15272e-05 -1.90416e-24)
(0.0250502 -4.83766e-05 1.12231e-24)
(0.0250436 -4.50897e-05 1.19201e-24)
(0.025037 -4.16759e-05 -1.93799e-24)
(0.0250306 -3.81473e-05 7.36738e-25)
(0.0250242 -3.45116e-05 -2.29099e-25)
(0.0230266 -5.92916e-05 3.81505e-25)
(0.0230178 -5.93569e-05 -5.24803e-24)
(0.0230088 -5.85484e-05 -2.32439e-24)
(0.023 -5.7161e-05 2.08673e-23)
(0.0229913 -5.53287e-05 -1.91851e-23)
(0.0229828 -5.31248e-05 5.27148e-24)
(0.0229746 -5.06138e-05 7.24831e-25)
(0.0229666 -4.78539e-05 -2.83482e-25)
(0.0229588 -4.48952e-05 -6.00479e-25)
(0.0229513 -4.17704e-05 8.8565e-25)
(0.022944 -3.84994e-05 1.25525e-27)
(0.0229369 -3.51026e-05 4.98463e-25)
(0.0229301 -3.15979e-05 -4.59861e-25)
(0.0229236 -2.80011e-05 -1.31766e-24)
(0.0229173 -2.43194e-05 1.13293e-24)
(0.0208502 -5.08613e-05 5.66923e-25)
(0.0208389 -5.02973e-05 4.82018e-24)
(0.0208279 -4.9227e-05 -5.58669e-24)
(0.0208176 -4.77263e-05 -3.30858e-24)
(0.0208077 -4.58627e-05 1.92371e-23)
(0.0207982 -4.36919e-05 -1.47268e-23)
(0.0207893 -4.1267e-05 -5.503e-25)
(0.0207809 -3.86323e-05 -2.03475e-24)
(0.0207729 -3.58174e-05 1.24799e-25)
(0.0207654 -3.28444e-05 3.89336e-25)
(0.0207584 -2.97381e-05 5.8681e-25)
(0.0207518 -2.65251e-05 3.03947e-25)
(0.0207456 -2.32253e-05 2.31238e-25)
(0.0207398 -1.98513e-05 -7.47056e-26)
(0.0207345 -1.64138e-05 -9.62269e-25)
(0.0186695 -4.16022e-05 4.04357e-24)
(0.0186573 -4.1044e-05 -6.08944e-24)
(0.0186458 -4.00364e-05 -4.2493e-24)
(0.0186352 -3.86722e-05 1.28106e-23)
(0.0186253 -3.7025e-05 -4.61698e-24)
(0.0186161 -3.51414e-05 -5.23763e-24)
(0.0186076 -3.30529e-05 1.96199e-24)
(0.0185998 -3.07783e-05 2.94024e-24)
(0.0185926 -2.8334e-05 -3.51366e-24)
(0.0185861 -2.57415e-05 2.41983e-24)
(0.0185801 -2.30277e-05 -4.88156e-25)
(0.0185747 -2.02172e-05 -3.0168e-25)
(0.0185699 -1.73299e-05 1.72026e-24)
(0.0185656 -1.43803e-05 -2.36299e-24)
(0.0185619 -1.13819e-05 8.65054e-25)
(0.0165474 -3.31418e-05 -7.86716e-25)
(0.0165357 -3.27563e-05 -2.53127e-24)
(0.016525 -3.19936e-05 -7.4707e-24)
(0.0165152 -3.09581e-05 2.07459e-23)
(0.0165062 -2.97012e-05 -4.09586e-24)
(0.0164981 -2.82525e-05 -5.18885e-24)
(0.0164907 -2.66308e-05 1.30165e-24)
(0.016484 -2.48403e-05 -1.97589e-24)
(0.0164781 -2.28865e-05 -2.59459e-24)
(0.0164729 -2.0786e-05 2.60884e-24)
(0.0164684 -1.85657e-05 1.16931e-25)
(0.0164645 -1.62519e-05 6.32393e-25)
(0.0164612 -1.38659e-05 -6.61501e-25)
(0.0164586 -1.14237e-05 -2.06835e-25)
(0.0164566 -8.93634e-06 2.33188e-25)
(0.0145256 -2.60917e-05 3.03727e-24)
(0.0145152 -2.59731e-05 4.05764e-24)
(0.0145058 -2.55431e-05 -4.16023e-24)
(0.0144973 -2.48977e-05 -7.76703e-24)
(0.0144896 -2.40654e-05 9.65856e-24)
(0.0144826 -2.30707e-05 -9.69619e-24)
(0.0144764 -2.19274e-05 2.42897e-25)
(0.014471 -2.06305e-05 3.29607e-24)
(0.0144662 -1.91764e-05 9.19231e-25)
(0.0144622 -1.75725e-05 -8.62697e-25)
(0.0144588 -1.58458e-05 7.22138e-25)
(0.0144561 -1.40276e-05 -4.88866e-25)
(0.014454 -1.21389e-05 2.88126e-25)
(0.0144527 -1.01949e-05 3.73063e-25)
(0.0144519 -8.2008e-06 4.94631e-26)
(0.0126275 -2.05308e-05 -3.16613e-24)
(0.0126185 -2.06608e-05 4.03563e-24)
(0.0126104 -2.05375e-05 3.65e-25)
(0.012603 -2.0238e-05 6.79836e-24)
(0.0125963 -1.97754e-05 -5.8068e-24)
(0.0125902 -1.91745e-05 1.4461e-25)
(0.0125848 -1.84422e-05 -7.50871e-25)
(0.0125801 -1.75704e-05 -1.38673e-24)
(0.012576 -1.65557e-05 6.36084e-25)
(0.0125726 -1.53961e-05 -1.97549e-24)
(0.0125698 -1.41101e-05 5.93005e-25)
(0.0125677 -1.27295e-05 4.41682e-25)
(0.0125661 -1.12784e-05 2.64461e-26)
(0.0125652 -9.77082e-06 -1.01962e-25)
(0.0125649 -8.21072e-06 -1.26027e-25)
(0.010863 -1.61687e-05 2.35336e-24)
(0.0108551 -1.64717e-05 -1.89047e-24)
(0.0108479 -1.65779e-05 -7.37359e-24)
(0.0108411 -1.65353e-05 6.90011e-24)
(0.010835 -1.63505e-05 8.3364e-24)
(0.0108293 -1.60453e-05 -2.68558e-24)
(0.0108242 -1.56266e-05 -4.1301e-24)
(0.0108197 -1.50845e-05 -4.39824e-24)
(0.0108157 -1.44109e-05 3.04367e-24)
(0.0108122 -1.36075e-05 -3.65435e-27)
(0.0108093 -1.2687e-05 -3.43521e-25)
(0.010807 -1.16701e-05 8.85651e-26)
(0.0108053 -1.05812e-05 -1.38383e-25)
(0.0108041 -9.43404e-06 -6.22329e-26)
(0.0108035 -8.23295e-06 1.36694e-25)
(0.00923352 -1.26491e-05 -1.48593e-24)
(0.00922628 -1.30403e-05 -9.34047e-25)
(0.00921949 -1.32825e-05 1.2979e-24)
(0.00921305 -1.33984e-05 -3.37466e-24)
(0.00920698 -1.33936e-05 1.08477e-23)
(0.00920132 -1.32885e-05 -1.32521e-23)
(0.00919606 -1.30871e-05 1.18777e-23)
(0.00919122 -1.2779e-05 -4.7187e-24)
(0.00918682 -1.23563e-05 7.15223e-25)
(0.00918288 -1.182e-05 -2.42096e-25)
(0.00917942 -1.11791e-05 -5.0406e-25)
(0.00917648 -1.04509e-05 -1.78562e-25)
(0.00917403 -9.65194e-06 6.74431e-26)
(0.00917212 -8.79521e-06 8.83259e-26)
(0.00917071 -7.88507e-06 -6.14044e-26)
(0.00773565 -9.70502e-06 -7.24155e-25)
(0.00772883 -1.01106e-05 2.11679e-25)
(0.00772226 -1.04075e-05 3.92829e-25)
(0.00771586 -1.0598e-05 -1.57843e-24)
(0.00770969 -1.06913e-05 -5.40173e-25)
(0.00770377 -1.07051e-05 5.46494e-24)
(0.00769813 -1.06396e-05 -3.1046e-24)
(0.00769279 -1.04855e-05 3.31492e-25)
(0.00768779 -1.02362e-05 -3.44998e-25)
(0.00768315 -9.89183e-06 -2.22722e-25)
(0.00767891 -9.45898e-06 5.55685e-26)
(0.00767511 -8.95058e-06 7.10447e-26)
(0.00767175 -8.37899e-06 -2.86099e-25)
(0.00766887 -7.75467e-06 2.24429e-25)
(0.00766645 -7.08099e-06 9.91935e-26)
(0.00636374 -7.19156e-06 -2.6404e-25)
(0.00635726 -7.56129e-06 -7.10134e-26)
(0.00635085 -7.85269e-06 -3.83289e-24)
(0.00634447 -8.05673e-06 1.2112e-24)
(0.00633819 -8.18686e-06 -2.21012e-24)
(0.00633204 -8.25669e-06 2.00159e-24)
(0.00632605 -8.26481e-06 2.98613e-24)
(0.00632025 -8.20363e-06 1.75905e-24)
(0.0063147 -8.06779e-06 -2.20944e-24)
(0.00630942 -7.85696e-06 6.52427e-25)
(0.00630447 -7.57558e-06 2.63876e-25)
(0.00629988 -7.23266e-06 -4.4555e-26)
(0.00629568 -6.83748e-06 1.36504e-27)
(0.0062919 -6.39745e-06 1.27147e-25)
(0.00628854 -5.9155e-06 -1.8198e-25)
(0.00511088 -5.0583e-06 -1.03665e-24)
(0.00510483 -5.36344e-06 -1.30903e-24)
(0.0050987 -5.6105e-06 -1.11886e-25)
(0.0050925 -5.78926e-06 3.16308e-24)
(0.00508629 -5.91538e-06 -2.03085e-24)
(0.00508012 -5.99876e-06 -2.37618e-25)
(0.00507401 -6.03763e-06 2.80341e-24)
(0.00506801 -6.02622e-06 -1.47629e-25)
(0.00506217 -5.96039e-06 -5.6288e-25)
(0.00505653 -5.83938e-06 -1.12707e-24)
(0.00505114 -5.66588e-06 3.84366e-25)
(0.00504604 -5.44585e-06 2.79366e-25)
(0.00504128 -5.18573e-06 -1.85036e-26)
(0.00503688 -4.89041e-06 1.91115e-25)
(0.00503285 -4.56204e-06 -1.57542e-25)
(0.00396963 -3.30225e-06 -2.2708e-25)
(0.0039642 -3.53151e-06 2.30642e-26)
(0.00395859 -3.71512e-06 1.55248e-24)
(0.00395284 -3.8494e-06 8.93699e-25)
(0.00394701 -3.94937e-06 -7.7863e-25)
(0.00394115 -4.02167e-06 -1.54065e-24)
(0.00393528 -4.06483e-06 5.20218e-25)
(0.00392946 -4.07484e-06 -1.94421e-24)
(0.00392372 -4.04862e-06 1.45312e-24)
(0.00391812 -3.98519e-06 4.49928e-25)
(0.0039127 -3.88591e-06 -2.04562e-25)
(0.00390752 -3.75439e-06 -2.22665e-25)
(0.0039026 -3.59475e-06 -3.89211e-26)
(0.00389799 -3.40994e-06 1.13726e-25)
(0.0038937 -3.20115e-06 -8.03318e-26)
(0.00293236 -1.93096e-06 -4.19017e-25)
(0.00292777 -2.08889e-06 2.67753e-26)
(0.00292296 -2.20869e-06 1.26046e-24)
(0.00291798 -2.296e-06 -7.80808e-25)
(0.00291288 -2.36284e-06 2.7992e-24)
(0.00290772 -2.41333e-06 -4.93075e-24)
(0.0029025 -2.44664e-06 3.64432e-24)
(0.00289728 -2.46038e-06 -2.70414e-24)
(0.0028921 -2.45254e-06 1.66693e-24)
(0.002887 -2.42225e-06 -8.43891e-25)
(0.00288203 -2.37008e-06 2.54155e-25)
(0.00287723 -2.29794e-06 1.92283e-26)
(0.00287263 -2.20828e-06 -5.19689e-26)
(0.00286827 -2.10267e-06 8.49487e-26)
(0.00286418 -1.9815e-06 -3.30433e-26)
(0.00199144 -9.41679e-07 6.37159e-25)
(0.00198792 -1.03976e-06 6.30781e-25)
(0.00198418 -1.10769e-06 -2.73981e-24)
(0.00198028 -1.1566e-06 1.92969e-24)
(0.00197627 -1.19376e-06 -4.79589e-26)
(0.00197217 -1.22145e-06 3.73859e-25)
(0.00196801 -1.23966e-06 -5.2789e-25)
(0.00196382 -1.24751e-06 -8.50303e-25)
(0.00195964 -1.24423e-06 7.69781e-25)
(0.0019555 -1.22949e-06 2.53774e-27)
(0.00195143 -1.20366e-06 -2.97647e-25)
(0.00194748 -1.16773e-06 1.15215e-25)
(0.00194367 -1.12311e-06 -2.26134e-26)
(0.00194003 -1.07055e-06 -3.93133e-27)
(0.00193659 -1.00925e-06 2.21875e-26)
(0.00113943 -3.1193e-07 -6.44281e-25)
(0.00113716 -3.37192e-07 1.91307e-24)
(0.00113473 -3.54307e-07 1.00673e-24)
(0.00113218 -3.68551e-07 -1.94494e-24)
(0.00112955 -3.80387e-07 -2.21083e-25)
(0.00112685 -3.89758e-07 -1.71984e-25)
(0.0011241 -3.96567e-07 4.51803e-25)
(0.00112132 -4.00657e-07 -7.07097e-25)
(0.00111853 -4.01917e-07 7.89393e-25)
(0.00111576 -4.00346e-07 -3.91063e-25)
(0.00111302 -3.96121e-07 -1.34389e-25)
(0.00111034 -3.8963e-07 4.43666e-26)
(0.00110775 -3.81485e-07 9.65675e-26)
(0.00110526 -3.71864e-07 -1.4351e-25)
(0.00110289 -3.57288e-07 4.81302e-26)
(0.000369188 -1.95372e-09 -4.62804e-27)
(0.000368293 8.22429e-08 3.68997e-25)
(0.000367341 1.39765e-07 3.83863e-25)
(0.000366352 1.74223e-07 -6.36483e-25)
(0.000365335 1.90613e-07 1.14413e-24)
(0.000364295 1.92766e-07 -1.24958e-24)
(0.000363236 1.83716e-07 6.71738e-26)
(0.000362165 1.65999e-07 4.87386e-25)
(0.000361089 1.41789e-07 -6.65021e-25)
(0.000360016 1.12977e-07 -4.87209e-26)
(0.000358955 8.11724e-08 2.26973e-25)
(0.000357915 4.77046e-08 -7.56471e-26)
(0.000356904 1.35706e-08 3.49737e-26)
(0.000355929 -2.02925e-08 -3.84913e-26)
(0.000354997 -5.08167e-08 4.0091e-27)
(0.000965885 -0.000251155 7.98557e-26)
(0.00110753 -0.000167143 2.00732e-24)
(0.0013459 -8.31595e-05 -5.71883e-24)
(0.00158963 -1.80362e-05 8.21429e-24)
(0.00182349 2.99857e-05 -3.07814e-24)
(0.00205222 6.18257e-05 -2.90009e-24)
(0.00227537 8.03133e-05 3.26799e-24)
(0.00249321 8.78593e-05 -6.37764e-24)
(0.00270625 8.65862e-05 4.57776e-25)
(0.002915 7.83875e-05 3.94969e-24)
(0.00312 6.49347e-05 -7.32689e-25)
(0.0033218 4.77471e-05 7.699e-25)
(0.00352094 2.82877e-05 -8.65301e-26)
(0.003718 8.10098e-06 4.13147e-25)
(0.00391373 -1.10494e-05 -1.49923e-24)
(0.00410908 -2.70131e-05 7.97175e-25)
(0.00430595 -3.72007e-05 -1.97313e-25)
(0.00450671 -3.84194e-05 3.70672e-26)
(0.00471612 -2.7759e-05 3.65928e-25)
(0.0049396 -2.19732e-06 -2.17942e-25)
(0.00518536 3.79262e-05 2.55169e-26)
(0.00546017 8.90198e-05 -2.31905e-26)
(0.005744 0.000136531 5.7055e-26)
(0.00599917 0.000163892 2.65558e-25)
(0.00621178 0.000166941 -4.73562e-25)
(0.00638149 0.00014779 -3.91036e-25)
(0.0065097 0.000108879 -2.71293e-26)
(0.00659858 5.18513e-05 1.02964e-24)
(0.0066495 -2.16272e-05 1.5585e-24)
(0.00666255 -0.000109308 -3.04971e-24)
(0.00663689 -0.000207662 2.64199e-24)
(0.00657132 -0.000311524 -2.37368e-24)
(0.00646488 -0.000414135 5.83821e-25)
(0.00631724 -0.000507438 -4.459e-25)
(0.00612893 -0.000582425 3.98713e-25)
(0.00590124 -0.00062938 5.22775e-24)
(0.00563609 -0.000637799 -1.06284e-24)
(0.00533583 -0.000595756 1.84354e-24)
(0.00500335 -0.000488428 1.16796e-24)
(0.0046428 -0.000296079 -9.30806e-24)
(0.00425917 5.5042e-06 -1.17796e-25)
(0.00385999 0.000434978 4.221e-24)
(0.00343819 0.000970504 1.45272e-24)
(0.00301597 0.00150279 -6.02687e-24)
(0.00278036 0.00168055 -3.05421e-25)
(0.00182148 -0.000336682 -2.32364e-24)
(0.00188088 -0.000289881 -3.20275e-24)
(0.00202844 -0.000209213 6.75543e-24)
(0.00221364 -0.00013636 3.06484e-24)
(0.00241009 -7.72155e-05 -1.07008e-23)
(0.00261245 -3.39276e-05 1.13147e-23)
(0.00281595 -4.82583e-06 -4.04177e-24)
(0.00301826 1.22734e-05 3.13884e-24)
(0.00321843 1.9495e-05 -4.15153e-24)
(0.00341604 1.88187e-05 5.48615e-26)
(0.00361104 1.20208e-05 -2.08227e-24)
(0.00380357 7.25939e-07 4.08787e-24)
(0.00399386 -1.35086e-05 -2.19598e-24)
(0.00418227 -2.90605e-05 -1.77349e-24)
(0.00436933 -4.41234e-05 -9.55874e-25)
(0.00455579 -5.6538e-05 2.17252e-24)
(0.00474331 -6.37453e-05 -1.45869e-25)
(0.00493394 -6.26314e-05 8.3689e-25)
(0.00513215 -5.03706e-05 7.19096e-26)
(0.00534293 -2.39973e-05 -2.03516e-25)
(0.00557419 1.62089e-05 -7.53978e-26)
(0.00583273 6.70194e-05 -5.41057e-26)
(0.00610081 0.000114585 3.00661e-25)
(0.00634353 0.000142991 4.76633e-25)
(0.00654765 0.000148109 -3.41727e-25)
(0.00671242 0.000131909 -2.24336e-24)
(0.00683857 9.67804e-05 3.16234e-24)
(0.00692765 4.4429e-05 -2.33954e-24)
(0.00698055 -2.32789e-05 8.02424e-25)
(0.00699717 -0.000103886 -5.26442e-25)
(0.00697665 -0.000193671 3.84539e-24)
(0.00691798 -0.000287383 -4.88892e-24)
(0.0068205 -0.000378286 2.00854e-24)
(0.00668437 -0.000458422 1.71463e-24)
(0.00651071 -0.000518937 -4.84392e-24)
(0.00630171 -0.000550277 1.44218e-24)
(0.00606055 -0.000542126 9.92108e-24)
(0.00579152 -0.000482885 -2.40408e-24)
(0.00550054 -0.00035848 -8.61505e-24)
(0.00519681 -0.000150605 -5.56984e-24)
(0.00489454 0.000163099 1.27248e-23)
(0.00461805 0.000600372 -1.25367e-23)
(0.00439441 0.00113863 -2.91581e-24)
(0.00426821 0.00165709 8.34822e-24)
(0.00428843 0.0017702 2.6905e-24)
(0.00283119 -0.000345822 -2.627e-26)
(0.00284077 -0.000341819 -3.67334e-24)
(0.0029039 -0.000294918 7.11636e-24)
(0.00302054 -0.000232865 5.87336e-24)
(0.00316461 -0.000173972 -9.63234e-24)
(0.00332659 -0.000125552 2.03557e-25)
(0.00349859 -8.92262e-05 9.08385e-25)
(0.00367558 -6.43653e-05 9.66471e-24)
(0.00385473 -4.9551e-05 -1.14148e-23)
(0.00403436 -4.31079e-05 6.86269e-24)
(0.0042135 -4.3371e-05 1.91055e-24)
(0.00439164 -4.87338e-05 -1.09036e-23)
(0.00456857 -5.76122e-05 3.91428e-24)
(0.00474424 -6.83645e-05 1.43823e-24)
(0.00491892 -7.91571e-05 -2.71154e-24)
(0.00509303 -8.78433e-05 4.09147e-24)
(0.00526795 -9.19083e-05 -2.6473e-24)
(0.00544539 -8.83273e-05 4.89342e-26)
(0.00562941 -7.43704e-05 2.10934e-25)
(0.00582453 -4.71326e-05 1.61051e-25)
(0.00603831 -6.83831e-06 1.4529e-26)
(0.00627749 4.36396e-05 7.98612e-26)
(0.00652682 9.11699e-05 -3.12597e-25)
(0.00675449 0.00012053 1.007e-24)
(0.00694795 0.000127631 -1.78706e-24)
(0.00710603 0.000114323 1.06485e-24)
(0.00722875 8.29651e-05 -2.89157e-24)
(0.00731699 3.53214e-05 3.90755e-24)
(0.00737119 -2.65514e-05 -3.835e-24)
(0.00739098 -9.99587e-05 1.58463e-25)
(0.0073755 -0.000181017 1.49722e-25)
(0.00732392 -0.0002644 5.69628e-24)
(0.00723595 -0.000343413 -1.78951e-24)
(0.00711221 -0.000410254 9.19726e-25)
(0.00695453 -0.000456324 -4.62979e-24)
(0.00676602 -0.00047243 1.04792e-23)
(0.00655119 -0.000448799 -7.78675e-24)
(0.0063163 -0.000374774 1.34201e-23)
(0.00607014 -0.000238171 -2.62641e-23)
(0.00582617 -2.43796e-05 1.01526e-23)
(0.00560506 0.000282331 3.67721e-24)
(0.00543939 0.000690632 5.9577e-24)
(0.0053665 0.00116985 -7.40776e-24)
(0.00541403 0.00159939 2.09022e-24)
(0.00555961 0.00167628 -1.26222e-24)
(0.00397434 -0.000329205 -9.77029e-25)
(0.00395646 -0.000351795 -1.47138e-24)
(0.00396781 -0.000335156 -6.2351e-24)
(0.00401854 -0.000297104 1.76976e-24)
(0.00410569 -0.000249368 1.17282e-24)
(0.00421834 -0.000204058 4.86902e-24)
(0.00434883 -0.000166049 -1.00223e-23)
(0.00449093 -0.000136992 3.87573e-24)
(0.00464041 -0.00011682 1.24939e-23)
(0.00479433 -0.000104626 -3.37257e-24)
(0.00495074 -9.91677e-05 -3.05282e-24)
(0.00510838 -9.90533e-05 -4.67451e-25)
(0.0052664 -0.000102802 1.43596e-24)
(0.00542433 -0.000108829 -2.69876e-24)
(0.00558199 -0.000115334 6.66049e-25)
(0.00573947 -0.000120224 -1.1683e-25)
(0.00589781 -0.000121059 -8.44394e-25)
(0.00605824 -0.000114926 4.92892e-25)
(0.00622446 -9.9216e-05 1.31008e-24)
(0.0064004 -7.10978e-05 -1.66099e-25)
(0.00659321 -3.07559e-05 -2.49024e-25)
(0.0068095 1.92778e-05 -7.88908e-26)
(0.00703663 6.66147e-05 -5.50966e-25)
(0.00724621 9.67773e-05 -1.38745e-25)
(0.00742642 0.000105729 -1.7533e-24)
(0.00757566 9.52237e-05 2.83202e-24)
(0.00769322 6.76064e-05 -2.86969e-24)
(0.00777927 2.46995e-05 5.62085e-24)
(0.00783375 -3.12525e-05 -5.06275e-24)
(0.00785603 -9.73381e-05 1.14212e-24)
(0.00784525 -0.000169532 2.16698e-24)
(0.00780076 -0.000242475 -1.05665e-25)
(0.00772265 -0.000309578 -2.29003e-25)
(0.00761205 -0.000363299 -5.60014e-25)
(0.00747148 -0.000395458 4.40204e-25)
(0.00730495 -0.000397492 -3.41439e-24)
(0.00711821 -0.000360585 1.72642e-23)
(0.00691918 -0.000275676 -9.04346e-24)
(0.00671881 -0.000133446 -1.11409e-25)
(0.00653275 7.55217e-05 -2.38545e-23)