/*--------------------------------*- C++ -*----------------------------------*\
| =========                 |                                                 |
| \\      /  F ield         | OpenFOAM: The Open Source CFD Toolbox           |
|  \\    /   O peration     | Version:  2312                                  |
|   \\  /    A nd           | Website:  www.openfoam.com                      |
|    \\/     M anipulation  |                                                 |
\*---------------------------------------------------------------------------*/
FoamFile
{
    version     2.0;
    format      ascii;
    arch        "LSB;label=32;scalar=64";
    class       volVectorField;
    location    "56";
    object      U;
}
// * * * * * * * * * * * * * * * * * * * * * * * * * * * * * * * * * * * * * //

dimensions      [0 1 -1 0 0 0 0];

internalField   nonuniform List<vector> 
4800
(
(0.000462209 3.90421e-07 -2.6201e-26)
(0.000452116 4.05873e-07 -1.7995e-25)
(0.000445735 3.96055e-07 2.32161e-25)
(0.00044185 3.67845e-07 1.01299e-25)
(0.000439702 3.19112e-07 1.45702e-24)
(0.000438932 2.65326e-07 -3.44273e-24)
(0.000439237 2.05982e-07 3.16553e-24)
(0.000440366 1.3514e-07 -4.50928e-24)
(0.00044241 -9.53443e-09 1.46493e-24)
(0.00044549 -2.46907e-07 4.83038e-24)
(0.000449984 -7.13766e-07 -1.49287e-24)
(0.000457151 -2.03885e-06 -1.34595e-25)
(0.000474017 -6.98292e-06 -1.77951e-24)
(0.000517459 -2.67934e-05 8.32999e-25)
(0.00058795 -8.52506e-05 -6.64918e-25)
(0.00142917 2.09418e-06 -8.24687e-26)
(0.00139912 1.575e-06 1.02691e-25)
(0.00138017 1.16113e-06 -9.08783e-25)
(0.00136863 8.03517e-07 6.87988e-25)
(0.0013622 4.47584e-07 2.094e-24)
(0.0013598 8.59813e-08 -3.28473e-24)
(0.00136044 -3.07617e-07 -8.84718e-25)
(0.00136336 -7.76035e-07 -1.74577e-25)
(0.00136892 -1.52715e-06 7.36758e-24)
(0.00137732 -2.72573e-06 -5.40428e-24)
(0.00138968 -4.99504e-06 5.88526e-25)
(0.00140864 -1.05069e-05 8.81793e-25)
(0.00144267 -2.65939e-05 -1.29547e-24)
(0.00150161 -7.54019e-05 -3.95848e-25)
(0.00156381 -0.000183053 1.70176e-24)
(0.00249876 6.64752e-06 -5.8692e-26)
(0.00244807 4.9394e-06 6.01064e-26)
(0.00241614 3.60735e-06 5.93247e-25)
(0.00239667 2.48487e-06 -1.39723e-24)
(0.00238579 1.40854e-06 1.34515e-24)
(0.00238151 2.8479e-07 1.20368e-24)
(0.0023822 -9.05937e-07 -3.11309e-24)
(0.00238646 -2.37975e-06 -1.88529e-24)
(0.00239492 -4.56015e-06 4.57465e-24)
(0.00240757 -7.90684e-06 1.68301e-24)
(0.00242561 -1.38578e-05 -5.87139e-24)
(0.00245108 -2.6231e-05 -8.61919e-25)
(0.00248785 -5.41017e-05 2.49473e-24)
(0.00253447 -0.000115408 3.912e-24)
(0.00256689 -0.000215278 -2.0199e-24)
(0.00367804 1.4716e-05 2.15958e-26)
(0.00360633 1.09478e-05 -1.48775e-25)
(0.00356114 8.01983e-06 6.49847e-25)
(0.0035335 5.56665e-06 6.62471e-25)
(0.00351791 3.24695e-06 -6.88179e-25)
(0.00351137 8.56483e-07 -3.73889e-24)
(0.00351165 -1.63539e-06 -2.4245e-24)
(0.00351657 -4.63259e-06 9.26237e-24)
(0.00352689 -8.97259e-06 3.75449e-24)
(0.003542 -1.53064e-05 -5.48021e-24)
(0.00356254 -2.56748e-05 -2.18211e-24)
(0.00358884 -4.44049e-05 -1.64169e-24)
(0.00362013 -7.90297e-05 5.63508e-26)
(0.00364945 -0.000138579 1.20631e-24)
(0.00365977 -0.000217012 5.86382e-27)
(0.00497223 2.70173e-05 -3.9507e-26)
(0.00487974 2.01097e-05 -2.38257e-25)
(0.00482131 1.47577e-05 -1.39738e-25)
(0.00478537 1.02989e-05 4.02394e-25)
(0.00476482 6.14627e-06 -1.08193e-24)
(0.00475553 1.97464e-06 2.68684e-24)
(0.00475469 -2.39266e-06 -4.7927e-25)
(0.00475952 -7.36507e-06 1.56653e-24)
(0.00477034 -1.43434e-05 -8.80887e-24)
(0.00478587 -2.39593e-05 1.65726e-23)
(0.00480582 -3.83453e-05 -1.5941e-23)
(0.00482889 -6.10432e-05 8.34328e-24)
(0.00485185 -9.65591e-05 -7.6814e-24)
(0.00486741 -0.000147479 7.2076e-24)
(0.00486611 -0.000205956 -2.86285e-24)
(0.00638313 4.44097e-05 5.21345e-26)
(0.00627124 3.31054e-05 1.83786e-25)
(0.00620019 2.43622e-05 -9.57573e-25)
(0.00615613 1.71161e-05 -5.70744e-25)
(0.00613049 1.04796e-05 1.579e-24)
(0.00611805 3.93813e-06 5.44858e-25)
(0.00611523 -2.72173e-06 -4.19951e-24)
(0.0061192 -1.02361e-05 9.92225e-24)
(0.00612908 -1.99933e-05 -1.2792e-23)
(0.00614314 -3.27083e-05 3.09117e-24)
(0.00616019 -5.0097e-05 9.14548e-24)
(0.00617802 -7.43129e-05 -1.25969e-23)
(0.00619298 -0.000107089 6.30875e-24)
(0.00619972 -0.000147766 6.35678e-24)
(0.00619407 -0.000190208 -4.83362e-24)
(0.0079069 6.7621e-05 4.3163e-26)
(0.00777899 5.05773e-05 -2.52745e-25)
(0.00769707 3.73856e-05 8.87367e-25)
(0.00764571 2.64933e-05 -1.21309e-24)
(0.00761523 1.66805e-05 -3.97002e-24)
(0.00759946 7.20526e-06 6.75973e-24)
(0.00759412 -2.23698e-06 -4.0112e-24)
(0.00759629 -1.26035e-05 1.34092e-23)
(0.00760404 -2.50889e-05 -9.1415e-24)
(0.00761526 -4.04053e-05 -4.19986e-24)
(0.00762815 -5.96066e-05 -8.10331e-24)
(0.00764033 -8.35512e-05 7.486e-24)
(0.00764887 -0.000112212 2.08541e-24)
(0.00765054 -0.000143868 1.75151e-24)
(0.00764415 -0.000174548 -1.54131e-24)
(0.00953167 9.6853e-05 -6.24291e-26)
(0.00939409 7.28513e-05 8.36494e-25)
(0.0093049 5.41878e-05 -1.92007e-24)
(0.00924821 3.87952e-05 -1.49297e-24)
(0.0092139 2.51246e-05 6.22034e-25)
(0.00919515 1.22067e-05 1.13054e-24)
(0.00918721 -4.45971e-07 3.83738e-24)
(0.00918696 -1.37808e-05 -1.02514e-23)
(0.00919188 -2.8825e-05 -5.27338e-24)
(0.00919959 -4.61086e-05 1.48649e-23)
(0.00920807 -6.60775e-05 -4.4867e-24)
(0.00921521 -8.87298e-05 1.53429e-23)
(0.00921907 -0.000113288 -8.0626e-24)
(0.00921795 -0.000138095 -2.52866e-24)
(0.00921204 -0.00016083 1.49295e-24)
(0.0112361 0.000131218 -8.29498e-27)
(0.011099 9.95281e-05 4.63018e-25)
(0.0110086 7.46317e-05 -6.5601e-25)
(0.0109503 5.40417e-05 1.51033e-24)
(0.0109143 3.59444e-05 -8.8365e-24)
(0.0108938 1.91782e-05 9.28182e-24)
(0.0108839 3.06909e-06 -1.41716e-23)
(0.0108813 -1.32563e-05 8.79751e-24)
(0.0108834 -3.05901e-05 6.39619e-24)
(0.0108877 -4.92564e-05 1.35488e-23)
(0.0108923 -6.92886e-05 -1.7666e-23)
(0.0108956 -9.02938e-05 -3.16867e-24)
(0.0108964 -0.000111401 1.54681e-24)
(0.0108939 -0.00013142 1.04564e-23)
(0.0108887 -0.000149098 -4.23313e-24)
(0.0129919 0.000168106 4.5564e-26)
(0.0128684 0.000128951 -1.95624e-25)
(0.0127852 9.7642e-05 8.53704e-25)
(0.0127308 7.15404e-05 -2.93128e-24)
(0.0126967 4.87172e-05 4.37751e-24)
(0.0126768 2.78982e-05 -5.5267e-24)
(0.0126665 8.28414e-06 9.10076e-24)
(0.0126627 -1.08932e-05 1.47531e-24)
(0.0126628 -3.02131e-05 -1.22444e-23)
(0.0126646 -4.98356e-05 1.71401e-23)
(0.0126666 -6.96076e-05 -1.88182e-23)
(0.0126675 -8.90859e-05 -5.38867e-24)
(0.0126667 -0.000107605 9.62672e-24)
(0.0126637 -0.000124465 2.81359e-24)
(0.0126595 -0.000139056 -1.22398e-24)
(0.0147737 0.000203086 1.79762e-25)
(0.0146762 0.000157893 -1.51554e-24)
(0.0146092 0.000120837 -2.34508e-24)
(0.0145648 8.9518e-05 5.61665e-24)
(0.0145371 6.21134e-05 2.39224e-24)
(0.0145209 3.73665e-05 -1.49988e-23)
(0.0145126 1.44532e-05 4.72315e-24)
(0.0145093 -7.28417e-06 3.33706e-24)
(0.014509 -2.82635e-05 -1.36483e-23)
(0.0145099 -4.85706e-05 1.43994e-23)
(0.0145108 -6.80438e-05 -1.11102e-23)
(0.0145109 -8.63663e-05 2.87322e-23)
(0.01451 -0.000103149 -1.36689e-23)
(0.0145075 -0.000118066 7.99002e-24)
(0.0145046 -0.000130889 -2.16869e-24)
(0.0165755 0.000231467 -6.14983e-26)
(0.0165092 0.000182336 1.0098e-24)
(0.0164634 0.00014089 -1.97615e-24)
(0.0164335 0.00010525 -9.54907e-25)
(0.0164154 7.38976e-05 1.07378e-23)
(0.0164057 4.57285e-05 -1.69369e-24)
(0.0164015 1.99875e-05 -1.8558e-23)
(0.0164007 -3.86791e-06 2.1343e-23)
(0.0164018 -2.61567e-05 -4.85599e-24)
(0.0164034 -4.6972e-05 -1.61996e-23)
(0.0164049 -6.62449e-05 1.71154e-23)
(0.0164056 -8.38388e-05 9.00814e-24)
(0.0164056 -9.96048e-05 -7.76625e-24)
(0.0164045 -0.000113467 -1.31507e-23)
(0.0164033 -0.000125411 1.0965e-24)
(0.0184201 0.000251672 -9.40521e-27)
(0.018379 0.000200021 -1.09428e-24)
(0.0183517 0.000155415 5.25902e-24)
(0.0183353 0.000116467 2.6008e-25)
(0.0183268 8.1996e-05 2.82128e-24)
(0.0183237 5.10977e-05 -1.04073e-23)
(0.0183242 2.31378e-05 8.65885e-24)
(0.0183265 -2.34495e-06 1.83212e-24)
(0.0183298 -2.56248e-05 1.72259e-23)
(0.0183331 -4.68426e-05 -2.69064e-23)
(0.018336 -6.6057e-05 -1.19717e-23)
(0.0183382 -8.33007e-05 -7.74913e-24)
(0.0183398 -9.8602e-05 1.47353e-23)
(0.0183405 -0.000112035 -4.09952e-25)
(0.0183412 -0.000123703 1.40817e-24)
(0.0203378 0.000266865 -2.34195e-26)
(0.02031 0.000212764 1.05421e-24)
(0.0202931 0.000165372 -1.53631e-24)
(0.0202844 0.000123611 1.36017e-27)
(0.0202815 8.65486e-05 2.08611e-24)
(0.0202824 5.3411e-05 5.22011e-24)
(0.0202855 2.36684e-05 -2.01942e-23)
(0.0202897 -3.12852e-06 1.82841e-24)
(0.0202944 -2.72613e-05 1.01536e-23)
(0.0202988 -4.89277e-05 -4.54274e-24)
(0.0203028 -6.83046e-05 1.24693e-23)
(0.0203061 -8.55605e-05 8.58148e-24)
(0.0203091 -0.000100846 -1.56362e-23)
(0.0203112 -0.000114321 1.05798e-23)
(0.0203134 -0.000126152 -8.79545e-24)
(0.022322 0.000281088 -6.77741e-25)
(0.0223004 0.000224408 5.73869e-25)
(0.0222876 0.000174226 1.66457e-24)
(0.0222815 0.000129771 -9.24719e-24)
(0.0222799 9.02853e-05 8.19574e-24)
(0.0222813 5.51054e-05 -5.98681e-24)
(0.0222844 2.37099e-05 4.31699e-24)
(0.0222884 -4.356e-06 -3.00854e-23)
(0.0222927 -2.94296e-05 4.34443e-23)
(0.022297 -5.17775e-05 -2.53362e-23)
(0.0223009 -7.16648e-05 2.25916e-23)
(0.0223044 -8.9351e-05 1.86625e-23)
(0.0223076 -0.000105065 -3.26153e-23)
(0.0223102 -0.00011902 1.05765e-23)
(0.0223129 -0.00013141 -4.42547e-25)
(0.024306 0.000294425 -2.44605e-26)
(0.0242909 0.00023599 4.37023e-25)
(0.0242819 0.00018363 -5.22791e-25)
(0.0242775 0.000136913 -2.39058e-25)
(0.0242763 9.53356e-05 3.07876e-24)
(0.0242773 5.83485e-05 -5.35793e-24)
(0.0242796 2.54407e-05 5.04537e-24)
(0.0242825 -3.86337e-06 -1.60382e-23)
(0.0242858 -2.99819e-05 3.65104e-23)
(0.0242891 -5.3241e-05 -4.67142e-23)
(0.0242924 -7.3959e-05 3.82298e-23)
(0.0242952 -9.24447e-05 -1.29064e-23)
(0.024298 -0.00010897 6.60638e-25)
(0.0243003 -0.000123774 2.92685e-24)
(0.0243029 -0.000137069 -5.63649e-24)
(0.0261832 0.000303896 -2.08824e-24)
(0.0261768 0.000245154 4.61747e-24)
(0.0261733 0.000191839 -2.57001e-24)
(0.0261721 0.000143856 -5.52691e-25)
(0.0261727 0.000100918 3.66072e-24)
(0.0261744 6.2601e-05 -4.00554e-24)
(0.0261768 2.84908e-05 -4.09051e-24)
(0.0261794 -1.86453e-06 -1.01583e-23)
(0.0261823 -2.89671e-05 4.96282e-24)
(0.0261851 -5.3181e-05 2.48988e-23)
(0.0261879 -7.48553e-05 -1.3223e-23)
(0.0261903 -9.43161e-05 7.95951e-24)
(0.0261927 -0.000111845 -3.27148e-24)
(0.0261947 -0.000127687 -9.75283e-24)
(0.026197 -0.000142058 4.99997e-24)
(0.0278291 0.000307194 7.10845e-25)
(0.0278311 0.000249577 -1.34557e-24)
(0.0278336 0.000196599 -2.10012e-24)
(0.0278363 0.000148512 4.36768e-24)
(0.0278394 0.000105193 -1.87733e-24)
(0.0278428 6.62991e-05 2.59304e-24)
(0.0278462 3.14167e-05 -3.03752e-24)
(0.0278494 1.99136e-07 -2.83907e-24)
(0.0278525 -2.7769e-05 2.4235e-24)
(0.0278555 -5.28885e-05 -3.3984e-24)
(0.0278584 -7.55467e-05 7.83846e-24)
(0.0278609 -9.60661e-05 4.21484e-24)
(0.0278633 -0.000114708 -1.56548e-23)
(0.0278654 -0.0001317 1.09366e-23)
(0.0278677 -0.000147249 -2.25559e-24)
(0.02909 0.00030386 2.18224e-24)
(0.0290992 0.000248577 4.6831e-24)
(0.0291069 0.000197199 -9.99715e-24)
(0.0291133 0.000150147 -3.55873e-24)
(0.029119 0.000107407 6.91801e-24)
(0.0291241 6.88171e-05 2.21207e-24)
(0.0291285 3.39329e-05 -1.31257e-24)
(0.0291326 2.3073e-06 -1.86968e-24)
(0.0291366 -2.62654e-05 2.71226e-24)
(0.0291403 -5.21847e-05 -7.33753e-24)
(0.0291437 -7.58272e-05 5.09142e-24)
(0.0291468 -9.74782e-05 -4.11624e-25)
(0.0291498 -0.00011736 -4.22844e-25)
(0.0291524 -0.000135671 6.00646e-25)
(0.029155 -0.000152592 -2.86761e-25)
(0.0297552 0.000289626 -5.94023e-24)
(0.0297712 0.000238033 -1.5e-23)
(0.0297841 0.000189611 5.01971e-24)
(0.0297948 0.000144863 3.22405e-23)
(0.0298039 0.000103824 -9.76447e-24)
(0.0298114 6.64062e-05 -6.56996e-24)
(0.0298177 3.24627e-05 4.31824e-24)
(0.0298231 1.52746e-06 1.13669e-23)
(0.0298278 -2.67946e-05 -2.06151e-23)
(0.0298315 -5.28443e-05 7.64293e-24)
(0.0298343 -7.68672e-05 -2.44007e-25)
(0.0298365 -9.90659e-05 1.80023e-24)
(0.0298383 -0.000119618 7.74212e-26)
(0.0298396 -0.000138698 4.62204e-25)
(0.0298406 -0.000156461 -4.22533e-25)
(0.0295946 0.000269675 9.74822e-24)
(0.0296153 0.000222295 -2.3396e-23)
(0.0296325 0.000177376 2.97702e-24)
(0.0296467 0.000135375 4.22439e-23)
(0.0296587 9.65392e-05 -4.39874e-23)
(0.0296691 6.07849e-05 1.84357e-23)
(0.0296781 2.77857e-05 2.08781e-23)
(0.0296854 -2.51875e-06 -4.92828e-23)
(0.0296912 -3.03314e-05 -1.60176e-24)
(0.029696 -5.60153e-05 1.88741e-23)
(0.0296999 -7.98528e-05 6.25016e-24)
(0.0297031 -0.000102018 -4.93406e-24)
(0.0297056 -0.000122654 4.43175e-24)
(0.0297077 -0.000141915 -1.83825e-24)
(0.0297092 -0.000159938 6.60622e-25)
(0.028693 0.000243176 6.22039e-24)
(0.0287165 0.00020067 -1.35648e-23)
(0.0287351 0.00016011 -1.10107e-23)
(0.0287497 0.000121944 5.16498e-23)
(0.0287613 8.63529e-05 -5.05384e-23)
(0.0287702 5.32167e-05 4.358e-24)
(0.028777 2.23858e-05 9.57102e-24)
(0.0287827 -6.15271e-06 6.59198e-24)
(0.0287872 -3.26333e-05 8.03906e-24)
(0.0287901 -5.73721e-05 -4.46679e-23)
(0.0287917 -8.05161e-05 2.79991e-23)
(0.0287927 -0.000102174 -1.19794e-25)
(0.028793 -0.000122472 1.82663e-23)
(0.0287927 -0.000141538 -8.57719e-24)
(0.0287917 -0.000159467 -2.08318e-24)
(0.0271613 0.000212141 1.5765e-23)
(0.0271892 0.000174804 -2.86426e-23)
(0.0272122 0.000139111 5.66582e-24)
(0.0272308 0.000105386 -1.68947e-23)
(0.0272461 7.36872e-05 -2.47718e-23)
(0.0272586 4.40296e-05 7.94632e-23)
(0.0272688 1.64235e-05 -3.2955e-23)
(0.0272768 -9.59255e-06 1.04447e-23)
(0.0272827 -3.4325e-05 -6.2863e-24)
(0.0272868 -5.76865e-05 -1.98291e-23)
(0.0272895 -7.96271e-05 3.94e-23)
(0.027291 -0.000100246 -2.47786e-23)
(0.0272914 -0.000119669 2.82268e-24)
(0.0272909 -0.000137991 5.00093e-24)
(0.0272893 -0.000155259 -6.58982e-25)
(0.0253139 0.000182802 6.13745e-24)
(0.0253443 0.000150114 -3.30629e-23)
(0.0253696 0.000118718 5.96205e-23)
(0.0253903 8.88666e-05 -4.74833e-23)
(0.0254072 6.06304e-05 5.15083e-23)
(0.0254209 3.38973e-05 -1.59701e-23)
(0.0254318 8.51902e-06 -1.2004e-23)
(0.0254401 -1.55657e-05 -1.52762e-23)
(0.0254462 -3.8411e-05 3.10526e-23)
(0.0254503 -5.99768e-05 1.86569e-24)
(0.0254527 -8.02902e-05 -3.34193e-23)
(0.0254536 -9.9452e-05 -5.74504e-24)
(0.0254531 -0.000117547 9.9503e-24)
(0.0254513 -0.000134627 -2.52544e-24)
(0.0254482 -0.000150717 6.19537e-25)
(0.0232926 0.000153364 8.21954e-25)
(0.0233246 0.00012503 -1.25541e-23)
(0.0233511 9.76834e-05 -8.01469e-24)
(0.0233727 7.1504e-05 6.24375e-23)
(0.0233901 4.64918e-05 -6.358e-23)
(0.0234039 2.26213e-05 1.91327e-23)
(0.0234146 -5.33579e-08 3.49827e-24)
(0.0234225 -2.15831e-05 -1.99297e-24)
(0.0234278 -4.20005e-05 -1.05423e-23)
(0.0234309 -6.13292e-05 4.84223e-23)
(0.0234319 -7.96176e-05 -3.96785e-23)
(0.023431 -9.69172e-05 -2.50744e-24)
(0.0234284 -0.000113261 4.07042e-24)
(0.0234242 -0.000128674 4.63113e-24)
(0.0234184 -0.00014317 -3.73725e-24)
(0.0211982 0.000125329 1.22701e-24)
(0.0212302 0.00010117 1.17607e-23)
(0.0212565 7.77295e-05 -1.34106e-23)
(0.0212776 5.51711e-05 -1.01675e-23)
(0.0212943 3.35565e-05 6.76063e-23)
(0.0213072 1.29529e-05 -5.16887e-23)
(0.0213166 -6.70988e-06 -8.35548e-25)
(0.0213228 -2.54696e-05 -1.22804e-23)
(0.0213262 -4.33039e-05 -1.42028e-24)
(0.0213271 -6.02428e-05 1.62738e-24)
(0.0213255 -7.63044e-05 -9.12386e-24)
(0.0213218 -9.14983e-05 6.31868e-24)
(0.021316 -0.000105835 2.04047e-24)
(0.0213084 -0.00011933 2.22644e-24)
(0.0212989 -0.000131987 3.67431e-24)
(0.0190981 0.000100182 8.7516e-24)
(0.0191285 8.00009e-05 -1.35953e-23)
(0.0191531 6.036e-05 -1.19102e-23)
(0.0191725 4.14274e-05 3.65714e-23)
(0.0191873 2.32527e-05 -1.30537e-23)
(0.019198 5.84987e-06 -2.03249e-23)
(0.0192051 -1.08541e-05 6.90254e-24)
(0.0192088 -2.68138e-05 1.76898e-23)
(0.0192094 -4.20215e-05 -2.99568e-23)
(0.0192073 -5.64814e-05 3.1303e-23)
(0.0192025 -7.01877e-05 -1.79168e-23)
(0.0191953 -8.31404e-05 8.41984e-24)
(0.0191858 -9.53426e-05 -1.28834e-23)
(0.0191743 -0.0001068 1.36811e-23)
(0.0191607 -0.000117507 -3.69614e-24)
(0.0170372 7.87247e-05 -1.69753e-24)
(0.0170649 6.22613e-05 -6.19971e-24)
(0.0170869 4.6214e-05 -2.06758e-23)
(0.0171038 3.06949e-05 5.79116e-23)
(0.017116 1.57447e-05 -9.79854e-24)
(0.0171241 1.32862e-06 -1.73382e-23)
(0.0171284 -1.24955e-05 6.77275e-24)
(0.0171293 -2.5717e-05 -9.68677e-24)
(0.017127 -3.83353e-05 -2.3527e-23)
(0.0171218 -5.0337e-05 2.2486e-23)
(0.0171138 -6.17106e-05 1.08633e-24)
(0.0171032 -7.24513e-05 -9.43413e-24)
(0.0170902 -8.25536e-05 1.06682e-23)
(0.017075 -9.20137e-05 8.93551e-25)
(0.0170576 -0.000100823 -1.08843e-24)
(0.0150473 6.10605e-05 6.52419e-24)
(0.0150719 4.79498e-05 1.02282e-23)
(0.015091 3.5141e-05 -8.96073e-24)
(0.0151052 2.27168e-05 -2.15942e-23)
(0.0151148 1.06946e-05 3.02907e-23)
(0.0151204 -9.2034e-07 -3.45122e-23)
(0.0151222 -1.2071e-05 -2.30989e-24)
(0.0151206 -2.27549e-05 1.40921e-23)
(0.0151157 -3.29631e-05 5.26534e-24)
(0.0151079 -4.26781e-05 -1.25316e-23)
(0.0150972 -5.18853e-05 -1.13927e-24)
(0.0150839 -6.0574e-05 2.9182e-23)
(0.0150682 -6.87334e-05 -1.13112e-23)
(0.0150501 -7.63563e-05 -3.33038e-24)
(0.0150299 -8.34332e-05 -2.47586e-25)
(0.0131508 4.68115e-05 -6.7678e-24)
(0.0131723 3.66224e-05 8.77475e-24)
(0.0131887 2.66503e-05 1.12384e-24)
(0.0132004 1.6946e-05 1.98676e-23)
(0.0132079 7.5244e-06 -1.57881e-23)
(0.0132114 -1.59691e-06 1.75673e-24)
(0.0132113 -1.03702e-05 -1.48966e-24)
(0.0132077 -1.87942e-05 -5.64828e-24)
(0.0132011 -2.68527e-05 5.85177e-24)
(0.0131914 -3.45269e-05 -1.9031e-23)
(0.013179 -4.18008e-05 5.86448e-25)
(0.013164 -4.86616e-05 4.57346e-24)
(0.0131465 -5.50974e-05 3.25352e-24)
(0.0131268 -6.11005e-05 1.4526e-24)
(0.013105 -6.66612e-05 6.66445e-25)
(0.011362 3.5427e-05 5.00724e-24)
(0.0113808 2.77165e-05 -3.91806e-24)
(0.0113949 2.01584e-05 -1.8669e-23)
(0.0114047 1.27743e-05 1.7567e-23)
(0.0114105 5.59093e-06 2.65663e-23)
(0.0114125 -1.38566e-06 -5.83809e-24)
(0.0114111 -8.11399e-06 -1.40149e-23)
(0.0114065 -1.45887e-05 -2.18848e-23)
(0.0113989 -2.07882e-05 1.69451e-23)
(0.0113883 -2.6696e-05 1.28782e-24)
(0.0113751 -3.22977e-05 -4.35915e-24)
(0.0113594 -3.7581e-05 -1.47855e-24)
(0.0113413 -4.2535e-05 2.96901e-24)
(0.0113211 -4.7152e-05 7.54878e-27)
(0.0112988 -5.1423e-05 -7.543e-25)
(0.00968932 2.63696e-05 -3.14897e-24)
(0.00970569 2.0705e-05 -2.43625e-24)
(0.00971791 1.51428e-05 2.71975e-24)
(0.00972623 9.68531e-06 -9.78246e-24)
(0.00973087 4.35268e-06 3.24687e-23)
(0.00973209 -8.22245e-07 -4.48499e-23)
(0.0097301 -5.82906e-06 4.5798e-23)
(0.00972508 -1.06653e-05 -1.99016e-23)
(0.00971722 -1.5299e-05 5.10983e-24)
(0.00970665 -1.97182e-05 4.88294e-25)
(0.00969355 -2.39118e-05 -4.07578e-24)
(0.00967808 -2.7869e-05 1.95471e-24)
(0.00966038 -3.15802e-05 -3.85612e-24)
(0.00964064 -3.50386e-05 -6.40078e-25)
(0.00961896 -3.82363e-05 3.49993e-25)
(0.008136 1.9185e-05 -1.52963e-24)
(0.0081503 1.51621e-05 3.517e-25)
(0.00816098 1.12051e-05 8.68719e-25)
(0.0081682 7.30314e-06 -4.41342e-24)
(0.00817214 3.47772e-06 -2.26221e-24)
(0.00817301 -2.30569e-07 1.83481e-23)
(0.00817095 -3.83077e-06 -1.09608e-23)
(0.00816613 -7.3271e-06 1.75263e-24)
(0.0081587 -1.0676e-05 -1.65761e-24)
(0.00814879 -1.38729e-05 -2.03209e-24)
(0.00813655 -1.69103e-05 -7.88364e-25)
(0.00812212 -1.97792e-05 4.43638e-24)
(0.00810563 -2.2472e-05 1.62435e-24)
(0.00808725 -2.49826e-05 -3.07512e-24)
(0.0080671 -2.73044e-05 -5.79142e-25)
(0.00670207 1.35171e-05 -5.56332e-25)
(0.00671451 1.07737e-05 -2.09398e-25)
(0.00672388 8.07163e-06 -9.62579e-24)
(0.00673027 5.39354e-06 2.24124e-24)
(0.0067338 2.76292e-06 -7.78888e-24)
(0.00673464 2.16736e-07 4.7308e-24)
(0.00673289 -2.26952e-06 1.02362e-23)
(0.00672869 -4.69877e-06 8.44406e-24)
(0.00672217 -7.02152e-06 -1.22568e-23)
(0.00671343 -9.24112e-06 3.71506e-24)
(0.0067026 -1.13536e-05 3.63856e-24)
(0.0066898 -1.33518e-05 -5.75887e-24)
(0.00667515 -1.52299e-05 3.10464e-24)
(0.0066588 -1.69827e-05 -4.39018e-25)
(0.00664085 -1.86049e-05 1.08105e-24)
(0.00538518 9.09784e-06 -2.18019e-24)
(0.00539587 7.32057e-06 -3.15938e-24)
(0.00540405 5.5701e-06 -7.69291e-25)
(0.00540971 3.82717e-06 8.00495e-24)
(0.00541298 2.1116e-06 -5.99204e-24)
(0.00541395 4.48225e-07 -1.40813e-24)
(0.00541276 -1.16813e-06 1.03617e-23)
(0.00540941 -2.77443e-06 2.764e-25)
(0.00540407 -4.30347e-06 -2.11012e-24)
(0.00539682 -5.76522e-06 -9.22672e-24)
(0.00538775 -7.15958e-06 6.03885e-25)
(0.00537697 -8.48116e-06 7.14007e-24)
(0.00536459 -9.72553e-06 -9.47215e-25)
(0.00535071 -1.08885e-05 -1.35593e-24)
(0.00533544 -1.1966e-05 9.47167e-25)
(0.00418138 5.72507e-06 -4.76962e-25)
(0.00419034 4.65075e-06 1.3489e-26)
(0.00419731 3.59602e-06 3.79473e-24)
(0.00420227 2.54214e-06 2.7652e-24)
(0.00420528 1.50266e-06 -1.65257e-24)
(0.00420641 4.81829e-07 -4.6457e-24)
(0.00420582 -4.79382e-07 2.04087e-24)
(0.00420341 -1.47104e-06 -9.03465e-24)
(0.00419937 -2.40957e-06 7.0316e-24)
(0.00419374 -3.30518e-06 4.07924e-24)
(0.0041866 -4.16209e-06 3.04249e-25)
(0.00417803 -4.9761e-06 -4.88235e-24)
(0.00416812 -5.74401e-06 1.01202e-24)
(0.00415696 -6.46265e-06 -9.01342e-25)
(0.00414463 -7.12893e-06 4.86771e-25)
(0.00308561 3.2407e-06 -8.79376e-25)
(0.00309277 2.65144e-06 -9.77999e-27)
(0.00309845 2.07961e-06 3.02692e-24)
(0.0031026 1.50802e-06 -1.90325e-24)
(0.00310527 9.43936e-07 8.47066e-24)
(0.00310649 3.83251e-07 -1.55244e-23)
(0.00310638 -1.34456e-07 1.31629e-23)
(0.00310489 -6.77765e-07 -1.1625e-23)
(0.00310209 -1.19662e-06 8.81598e-24)
(0.00309806 -1.68845e-06 -6.00772e-24)
(0.00309285 -2.1605e-06 2.12181e-24)
(0.00308651 -2.60955e-06 3.35371e-25)
(0.00307911 -3.03332e-06 6.65675e-25)
(0.00307072 -3.42966e-06 -8.548e-25)
(0.0030614 -3.79635e-06 2.01166e-25)
(0.002092 1.52355e-06 1.33653e-24)
(0.00209726 1.24396e-06 1.53245e-24)
(0.00210152 9.8013e-07 -6.48588e-24)
(0.00210471 7.18806e-07 4.85682e-24)
(0.00210687 4.62987e-07 -2.9412e-27)
(0.00210801 2.08713e-07 1.43956e-24)
(0.00210821 -2.49857e-08 -1.64091e-24)
(0.00210747 -2.71826e-07 -3.82211e-24)
(0.00210577 -5.07884e-07 3.93056e-24)
(0.0021032 -7.29722e-07 5.33451e-25)
(0.00209978 -9.40786e-07 -3.63447e-24)
(0.00209555 -1.14177e-06 1.28888e-24)
(0.00209056 -1.33176e-06 9.1271e-25)
(0.00208485 -1.50962e-06 -9.67766e-26)
(0.00207846 -1.67311e-06 -1.35385e-25)
(0.00119422 5.06012e-07 -1.35117e-24)
(0.00119745 4.16801e-07 4.21826e-24)
(0.00120011 3.33385e-07 2.71907e-24)
(0.00120215 2.50834e-07 -4.69406e-24)
(0.0012036 1.75206e-07 -5.60299e-25)
(0.00120446 9.75362e-08 -5.36929e-25)
(0.00120475 2.92085e-08 1.7406e-24)
(0.0012045 -4.8291e-08 -3.02138e-24)
(0.00120369 -1.21428e-07 4.39854e-24)
(0.00120234 -1.90757e-07 -2.14426e-24)
(0.00120049 -2.49469e-07 -1.57949e-24)
(0.00119816 -3.09245e-07 1.01194e-24)
(0.00119536 -3.71765e-07 -1.43812e-24)
(0.00119213 -4.3674e-07 1.51581e-24)
(0.00118849 -4.99742e-07 -2.9381e-25)
(0.000385606 1.22792e-07 -9.70567e-27)
(0.000386676 1.74005e-07 8.32602e-25)
(0.000387575 2.12527e-07 1.01156e-24)
(0.00038828 2.38565e-07 -1.53384e-24)
(0.000388803 2.57394e-07 3.45239e-24)
(0.000389133 2.63599e-07 -3.73102e-24)
(0.000389283 2.6109e-07 2.67181e-25)
(0.000389257 2.4747e-07 2.36231e-24)
(0.000389046 2.25419e-07 -3.28299e-24)
(0.000388659 1.95593e-07 -7.04823e-25)
(0.000388103 1.64622e-07 2.62407e-24)
(0.000387384 1.24817e-07 -1.19514e-24)
(0.000386508 7.54296e-08 -5.42151e-25)
(0.000385484 1.72257e-08 4.67979e-25)
(0.000384321 -4.63025e-08 -2.4455e-26)
(0.000869055 -0.000211084 6.53138e-26)
(0.000997987 -0.000119067 1.59163e-24)
(0.00121683 -2.52718e-05 -4.45709e-24)
(0.00144216 5.29135e-05 6.24137e-24)
(0.00166132 0.000117363 -2.33613e-24)
(0.00187909 0.000168553 -2.09144e-24)
(0.00209556 0.000208495 2.31756e-24)
(0.0023113 0.000238755 -4.476e-24)
(0.00252685 0.000260549 2.9229e-25)
(0.00274257 0.000274889 2.80498e-24)
(0.00295875 0.000282665 -5.46524e-25)
(0.00317572 0.000284659 6.07846e-25)
(0.00339396 0.000281534 -4.93581e-26)
(0.00361413 0.000273819 4.32978e-25)
(0.00383717 0.000261884 -1.5975e-24)
(0.0040643 0.000245997 8.91776e-25)
(0.00429722 0.000226349 -3.05181e-25)
(0.00453825 0.000203189 1.45307e-26)
(0.00479058 0.000176667 7.40054e-25)
(0.0050584 0.000146508 -4.64314e-25)
(0.00534644 0.000111344 5.36984e-26)
(0.00565789 6.72935e-05 -4.54496e-26)
(0.005966 1.10971e-05 7.21286e-26)
(0.00623158 -5.4861e-05 2.30014e-25)
(0.00644357 -0.000127153 -4.1403e-25)
(0.00660313 -0.000202851 -1.72893e-25)
(0.00671342 -0.000279928 1.02793e-25)
(0.00677895 -0.000356663 2.44979e-25)
(0.00680342 -0.000430961 -3.75696e-25)
(0.00678933 -0.00050052 8.67632e-25)
(0.00673852 -0.000562783 -2.62762e-24)
(0.00665233 -0.000614233 3.84843e-24)
(0.0065319 -0.000650323 -1.69079e-24)
(0.00637845 -0.00066551 -3.58235e-24)
(0.00619338 -0.000653291 3.56806e-24)
(0.00597837 -0.000606158 1.40496e-23)
(0.00573526 -0.000515302 -5.12061e-24)
(0.00546614 -0.000369859 2.01664e-24)
(0.00517348 -0.000155536 5.72439e-25)
(0.0048606 0.000146865 -1.5712e-23)
(0.00453028 0.000558885 -1.80082e-25)
(0.00418557 0.0010915 5.79922e-24)
(0.00380687 0.00170144 1.54533e-24)
(0.00341043 0.00222823 -7.84798e-24)
(0.00318222 0.00223528 -3.68054e-25)
(0.00164944 -0.000288483 -1.8794e-24)
(0.00170446 -0.000231473 -2.48974e-24)
(0.00184246 -0.00014128 5.29578e-24)
(0.00201618 -5.68447e-05 2.26176e-24)
(0.00220276 1.68969e-05 -7.87801e-24)
(0.00239779 7.75882e-05 8.15795e-24)
(0.00259755 0.000126262 -2.88881e-24)
(0.0028004 0.000164382 2.19438e-24)
(0.00300565 0.000193223 -2.90921e-24)
(0.00321296 0.00021389 2.91985e-26)
(0.0034222 0.000227352 -1.60372e-24)
(0.00363342 0.000234445 3.21478e-24)
(0.00384689 0.000235867 -1.83272e-24)
(0.00406309 0.000232178 -1.811e-24)
(0.00428279 0.000223779 -1.36306e-24)
(0.00450701 0.000210963 2.35719e-24)
(0.00473722 0.000193939 -3.43965e-25)
(0.00497539 0.000172965 1.3881e-24)
(0.00522427 0.000148193 2.2915e-25)
(0.00548742 0.000119381 -4.28035e-25)
(0.00576887 8.53126e-05 -1.7263e-25)
(0.00607118 4.24567e-05 -8.91698e-26)
(0.00636846 -1.19686e-05 3.95187e-25)
(0.00662368 -7.53058e-05 3.64605e-25)
(0.00682694 -0.000144154 -4.32781e-25)
(0.00697958 -0.000215692 -1.24169e-24)
(0.00708463 -0.000288045 1.34834e-24)
(0.00714654 -0.000359548 -5.21331e-25)
(0.00716889 -0.000428007 1.34612e-25)
(0.00715427 -0.000490992 4.02475e-25)
(0.0071046 -0.000545854 -4.29105e-24)
(0.00702145 -0.000589021 8.88705e-24)
(0.00690629 -0.000615943 -9.08741e-24)
(0.00676084 -0.000621116 2.07385e-23)
(0.00658721 -0.000598121 -2.82393e-23)
(0.00638805 -0.000539557 7.18266e-24)
(0.00616668 -0.000436791 2.26874e-23)
(0.00592737 -0.000279318 -7.26636e-24)
(0.00567615 -5.35665e-05 -1.61814e-23)
(0.00542233 0.000258286 -8.62365e-24)
(0.00517997 0.000677218 1.96331e-23)
(0.00497296 0.00121546 -1.80382e-23)
(0.00481987 0.00183239 -3.38769e-24)
(0.00476834 0.00235715 1.06912e-23)
(0.00482145 0.00232029 3.19793e-24)
(0.00258081 -0.000296455 -2.10822e-26)
(0.00258971 -0.000280442 -2.9094e-24)
(0.00265161 -0.00022197 5.55227e-24)
(0.00276381 -0.000148092 4.31143e-24)
(0.0029038 -7.54495e-05 -7.15894e-24)
(0.00306311 -1.10481e-05 1.599e-25)
(0.00323521 4.3194e-05 6.43873e-25)
(0.00341612 8.74458e-05 6.75641e-24)
(0.00360353 0.000122402 -8.00058e-24)
(0.0037961 0.000148917 4.95534e-24)
(0.00399299 0.000167856 1.6164e-24)
(0.00419379 0.000180001 -8.63676e-24)
(0.00439841 0.000186024 3.13848e-24)
(0.00460706 0.00018648 1.35301e-24)
(0.00482025 0.000181776 -3.02163e-24)
(0.00503876 0.000172217 5.0824e-24)
(0.00526375 0.000158023 -3.70765e-24)
(0.00549681 0.000139452 -1.05631e-25)
(0.00574018 0.000116663 2.98973e-25)
(0.00599674 8.94417e-05 3.35275e-25)
(0.00626977 5.67219e-05 5.50935e-26)
(0.00656107 1.53239e-05 1.7602e-25)
(0.0068456 -3.70761e-05 -3.84843e-25)
(0.00708867 -9.75595e-05 1.0621e-24)
(0.00728155 -0.000162739 -1.43265e-24)
(0.00742578 -0.000229872 7.78702e-25)
(0.00752428 -0.00029724 -8.53691e-25)
(0.00758143 -0.000363243 1.06823e-24)
(0.00760076 -0.000425583 5.7334e-25)
(0.00758495 -0.000481703 1.33066e-24)
(0.007536 -0.000528858 2.42621e-24)
(0.00745572 -0.000563443 -1.02455e-23)
(0.00734595 -0.000580939 4.1406e-24)
(0.00720894 -0.000575962 1.05984e-23)
(0.00704756 -0.000542306 -2.37271e-23)
(0.00686548 -0.000472919 3.38048e-23)
(0.0066675 -0.000359754 -2.14918e-23)
(0.00646009 -0.000193395 2.64438e-23)
(0.00625238 3.76098e-05 -4.90041e-23)
(0.0060586 0.000347056 1.83143e-23)
(0.00590045 0.000749482 5.95822e-24)
(0.00581201 0.00124872 8.66771e-24)
(0.00582338 0.00179858 -1.07683e-23)
(0.00597006 0.00224187 2.82747e-24)
(0.00615519 0.00220626 -1.69912e-24)
(0.00364792 -0.00028065 -7.77385e-25)
(0.00363149 -0.000289619 -1.14077e-24)
(0.00364392 -0.000262332 -4.77955e-24)
(0.00369699 -0.00021098 1.48744e-24)
(0.00378544 -0.000149505 9.62265e-25)
(0.00390035 -8.90355e-05 3.53212e-24)
(0.00403531 -3.44102e-05 -7.03367e-24)
(0.00418527 1.25775e-05 2.72574e-24)
(0.00434671 5.14449e-05 8.82049e-24)
(0.00451728 8.2379e-05 -2.3091e-24)
(0.00469539 0.000105876 -2.22025e-24)
(0.00488004 0.000122497 -3.67887e-25)
(0.00507071 0.000132779 1.28857e-24)
(0.00526723 0.0001372 -2.60502e-24)
(0.00546982 0.000136131 5.71623e-25)
(0.0056789 0.000129858 -2.81945e-25)
(0.00589532 0.000118592 -1.5305e-24)
(0.00612024 0.000102579 5.17957e-25)
(0.00635533 8.19763e-05 2.6744e-24)
(0.00660276 5.65907e-05 -3.29885e-25)
(0.00686492 2.55054e-05 -5.92496e-25)
(0.00714279 -1.41154e-05 -1.42309e-25)
(0.00741223 -6.41614e-05 -6.70342e-25)
(0.00764097 -0.000121482 8.25895e-26)
(0.0078215 -0.000182702 -1.02404e-24)
(0.00795554 -0.000245121 2.0316e-24)
(0.0080459 -0.000307188 -8.32183e-25)
(0.00809692 -0.00036739 1.16044e-24)
(0.00811212 -0.000423326 3.32894e-25)
(0.00809429 -0.000472314 4.23691e-25)
(0.00804551 -0.000511531 -1.58756e-24)
(0.00796782 -0.000537384 -3.64913e-25)
(0.00786346 -0.000545461 -3.99501e-25)
(0.00773523 -0.000530615 -2.65739e-24)
(0.00758673 -0.000487038 4.36873e-24)
(0.00742263 -0.000408312 -9.83729e-24)
(0.00724906 -0.00028743 4.25437e-23)
(0.00707425 -0.000116766 -2.29393e-23)
(0.00690955 0.000111856 -1.41053e-24)
(0.00677154 0.000406724 -4.1239e-23)
(0.00668372 0.000773216 3.08838e-23)
(0.00667872 0.00120504 -1.04873e-23)
(0.0067835 0.0016569 2.73428e-24)
(0.00700542 0.00201528 1.2925e-23)
(0.00726689 0.0020513 -3.15919e-24)
(0.00484728 -0.000255329 -3.19117e-24)