/*--------------------------------*- C++ -*----------------------------------*\
| =========                 |                                                 |
| \\      /  F ield         | OpenFOAM: The Open Source CFD Toolbox           |
|  \\    /   O peration     | Version:  2312                                  |
|   \\  /    A nd           | Website:  www.openfoam.com                      |
|    \\/     M anipulation  |                                                 |
\*---------------------------------------------------------------------------*/
FoamFile
{
    version     2.0;
    format      ascii;
    arch        "LSB;label=32;scalar=64";
    class       volVectorField;
    location    "41";
    object      U;
}
// * * * * * * * * * * * * * * * * * * * * * * * * * * * * * * * * * * * * * //

dimensions      [0 1 -1 0 0 0 0];

internalField   nonuniform List<vector> 
4800
(
(0.000459582 2.8625e-07 -1.89838e-26)
(0.000452872 2.6502e-07 -1.302e-25)
(0.000449484 2.30873e-07 1.68004e-25)
(0.000448339 1.87164e-07 7.34869e-26)
(0.000448645 1.56386e-07 1.06573e-24)
(0.000449808 1.30632e-07 -2.53462e-24)
(0.000451744 6.89946e-08 2.35361e-24)
(0.000454361 -2.87162e-08 -3.38694e-24)
(0.000457723 -1.69448e-07 1.08879e-24)
(0.000461955 -3.9827e-07 3.68783e-24)
(0.00046747 -8.68356e-07 -1.13631e-24)
(0.00047557 -2.21917e-06 -9.61033e-26)
(0.000493538 -7.29581e-06 -1.38862e-24)
(0.000538623 -2.76881e-05 6.73806e-25)
(0.000610882 -8.73831e-05 -5.43214e-25)
(0.00142503 1.51804e-06 -5.98499e-26)
(0.00140528 9.52561e-07 7.452e-26)
(0.00139528 5.00508e-07 -6.58895e-25)
(0.00139186 1.05256e-07 4.95782e-25)
(0.00139257 -2.35925e-07 1.52145e-24)
(0.00139569 -5.43466e-07 -2.42505e-24)
(0.00140111 -9.56932e-07 -6.78336e-25)
(0.00140837 -1.50996e-06 -1.51786e-25)
(0.00141765 -2.28024e-06 5.58268e-24)
(0.00142934 -3.49644e-06 -4.12106e-24)
(0.0014446 -5.81652e-06 4.48059e-25)
(0.00146616 -1.1442e-05 6.86345e-25)
(0.00150285 -2.79211e-05 -1.02579e-24)
(0.00156451 -7.80925e-05 -3.37634e-25)
(0.00162875 -0.000188556 1.37573e-24)
(0.00249665 4.77561e-06 -4.26849e-26)
(0.00246362 2.96396e-06 4.37273e-26)
(0.00244685 1.54718e-06 4.30735e-25)
(0.00244098 3.33195e-07 -1.00761e-24)
(0.00244188 -7.21597e-07 9.68168e-25)
(0.0024466 -1.74134e-06 9.01221e-25)
(0.00245522 -3.00489e-06 -2.3586e-24)
(0.00246664 -4.60417e-06 -1.44245e-24)
(0.00248109 -6.81539e-06 3.46256e-24)
(0.002499 -1.02322e-05 1.30336e-24)
(0.00252169 -1.63167e-05 -4.53906e-24)
(0.00255129 -2.89471e-05 -7.0047e-25)
(0.00259186 -5.73717e-05 1.94398e-24)
(0.00264181 -0.000120109 3.11443e-24)
(0.00267651 -0.000222372 -1.61511e-24)
(0.00368113 1.04931e-05 1.57456e-26)
(0.00363483 6.54476e-06 -1.08195e-25)
(0.00361119 3.47354e-06 4.72461e-25)
(0.00360255 8.3453e-07 4.77569e-25)
(0.00360332 -1.33709e-06 -4.86129e-25)
(0.00360914 -3.52734e-06 -2.74891e-24)
(0.00362037 -6.17339e-06 -1.86112e-24)
(0.00363511 -9.39171e-06 7.0334e-24)
(0.00365348 -1.37456e-05 2.88931e-24)
(0.00367566 -2.02045e-05 -4.16171e-24)
(0.00370238 -3.07974e-05 -1.67618e-24)
(0.00373411 -4.9892e-05 -1.28276e-24)
(0.00377016 -8.51221e-05 3.836e-26)
(0.00380349 -0.000145814 9.51898e-25)
(0.00381675 -0.000225901 4.6376e-27)
(0.00498281 1.91152e-05 -2.88816e-26)
(0.00492373 1.19684e-05 -1.73266e-25)
(0.00489335 6.44344e-06 -1.0174e-25)
(0.00488162 1.77127e-06 2.92649e-25)
(0.00488186 -2.15785e-06 -7.87847e-25)
(0.00488824 -5.90821e-06 1.95825e-24)
(0.00490125 -1.04522e-05 -3.51605e-25)
(0.0049182 -1.57709e-05 1.20382e-24)
(0.00493891 -2.27198e-05 -6.70111e-24)
(0.00496309 -3.25e-05 1.27013e-23)
(0.00499051 -4.71831e-05 -1.22893e-23)
(0.00502007 -7.03094e-05 6.48509e-24)
(0.00504865 -0.000106407 -6.00581e-24)
(0.00506893 -0.000158165 5.64055e-24)
(0.00507139 -0.000217714 -2.23735e-24)
(0.00640199 3.11427e-05 3.81866e-26)
(0.00633161 1.95884e-05 1.33649e-25)
(0.00629511 1.07169e-05 -6.97511e-25)
(0.00628028 3.27578e-06 -4.1806e-25)
(0.00627946 -2.96723e-06 1.1434e-24)
(0.00628608 -8.79284e-06 3.9997e-25)
(0.00629994 -1.56768e-05 -3.143e-24)
(0.00631788 -2.34456e-05 7.47635e-24)
(0.00633931 -3.31655e-05 -9.69245e-24)
(0.00636335 -4.60484e-05 2.32955e-24)
(0.00638895 -6.37575e-05 7.03774e-24)
(0.00641413 -8.84189e-05 -9.74626e-24)
(0.00643541 -0.000121732 4.88908e-24)
(0.00644753 -0.000163041 4.91273e-24)
(0.00644639 -0.000206188 -3.72938e-24)
(0.00793282 4.68978e-05 3.15924e-26)
(0.00785429 2.96652e-05 -1.84279e-25)
(0.00781329 1.65105e-05 6.46184e-25)
(0.00779603 5.55658e-06 -8.84088e-25)
(0.00779391 -3.55977e-06 -2.90984e-24)
(0.00780071 -1.21085e-05 4.95917e-24)
(0.00781457 -2.15647e-05 -2.98334e-24)
(0.00783246 -3.19808e-05 1.00778e-23)
(0.00785323 -4.43829e-05 -6.86326e-24)
(0.00787557 -5.97964e-05 -3.18732e-24)
(0.00789791 -7.92642e-05 -6.2129e-24)
(0.00791815 -0.000103605 5.73554e-24)
(0.00793357 -0.00013274 1.60158e-24)
(0.00794116 -0.000164908 1.33465e-24)
(0.00793983 -0.000196115 -1.17269e-24)
(0.00956131 6.61808e-05 -4.53647e-26)
(0.00948031 4.2126e-05 6.07845e-25)
(0.00943794 2.3811e-05 -1.39532e-24)
(0.00941995 8.67582e-06 -1.08969e-24)
(0.00941727 -3.93372e-06 4.43902e-25)
(0.00942428 -1.56367e-05 8.17871e-25)
(0.00943786 -2.78595e-05 2.84234e-24)
(0.0094551 -4.09367e-05 -7.66964e-24)
(0.00947442 -5.57169e-05 -4.01723e-24)
(0.00949427 -7.29235e-05 1.12e-23)
(0.009513 -9.30037e-05 -3.40864e-24)
(0.00952883 -0.000115912 1.16419e-23)
(0.00954009 -0.000140821 -6.11945e-24)
(0.0095453 -0.000166031 -1.90179e-24)
(0.00954486 -0.000189193 1.11839e-24)
(0.0112648 8.78009e-05 -5.89831e-27)
(0.0111899 5.62235e-05 3.34194e-25)
(0.0111512 3.21116e-05 -4.7383e-25)
(0.0111356 1.2314e-05 1.09535e-24)
(0.0111343 -4.29499e-06 -6.4361e-24)
(0.0111422 -1.93945e-05 6.77112e-24)
(0.0111559 -3.44825e-05 -1.0471e-23)
(0.0111726 -5.00664e-05 6.47659e-24)
(0.0111904 -6.67886e-05 4.75488e-24)
(0.0112079 -8.50651e-05 1.01479e-23)
(0.0112235 -0.000104926 -1.32349e-23)
(0.0112361 -0.000125934 -2.36055e-24)
(0.0112449 -0.000147172 1.18217e-24)
(0.011249 -0.000167412 7.74282e-24)
(0.0112497 -0.000185372 -3.11572e-24)
(0.0130155 0.000109109 3.06394e-26)
(0.0129572 7.01396e-05 -1.37223e-25)
(0.0129289 4.00909e-05 6.11257e-25)
(0.0129199 1.5459e-05 -2.10778e-24)
(0.0129229 -5.3052e-06 3.15814e-24)
(0.0129335 -2.38945e-05 -4.01308e-24)
(0.0129484 -4.17675e-05 6.64747e-24)
(0.0129653 -5.9559e-05 1.1056e-24)
(0.0129824 -7.77366e-05 -9.01594e-24)
(0.0129983 -9.64915e-05 1.26531e-23)
(0.0130121 -0.000115659 -1.38895e-23)
(0.013023 -0.000134751 -3.93872e-24)
(0.0130307 -0.000153056 7.07342e-24)
(0.0130349 -0.000169836 2.0418e-24)
(0.0130369 -0.000184456 -8.82695e-25)
(0.0147912 0.000126081 1.02691e-25)
(0.0147583 8.08759e-05 -1.02612e-24)
(0.0147464 4.54454e-05 -1.67149e-24)
(0.0147484 1.62662e-05 3.96821e-24)
(0.0147588 -8.42445e-06 1.71485e-24)
(0.0147741 -3.02755e-05 -1.07617e-23)
(0.014792 -5.06478e-05 3.36823e-24)
(0.0148104 -7.023e-05 2.39791e-24)
(0.0148279 -8.93825e-05 -9.9051e-24)
(0.0148437 -0.000108191 1.04515e-23)
(0.0148571 -0.000126475 -8.00213e-24)
(0.0148677 -0.000143878 2.07171e-23)
(0.0148756 -0.000159963 -9.77935e-24)
(0.0148808 -0.000174365 5.67231e-24)
(0.0148845 -0.000186826 -1.52683e-24)
(0.0165905 0.000134879 -1.02242e-26)
(0.0165846 8.51643e-05 6.3121e-25)
(0.0165911 4.54471e-05 -1.32771e-24)
(0.0166056 1.24356e-05 -6.73742e-25)
(0.0166248 -1.55951e-05 7.51532e-24)
(0.0166461 -4.01823e-05 -1.15472e-24)
(0.0166679 -6.25646e-05 -1.31152e-23)
(0.0166887 -8.34336e-05 1.5129e-23)
(0.0167078 -0.000103114 -3.44752e-24)
(0.0167245 -0.000121692 -1.14756e-23)
(0.0167387 -0.000139077 1.20803e-23)
(0.0167501 -0.000155094 6.2498e-24)
(0.0167594 -0.000169551 -5.50187e-24)
(0.0167662 -0.000182329 -9.09476e-24)
(0.0167718 -0.000193384 7.50097e-25)
(0.0184387 0.000134787 -3.19148e-26)
(0.0184515 8.1768e-05 -6.18531e-25)
(0.0184713 3.87378e-05 3.35681e-24)
(0.0184953 2.66208e-06 2.59363e-25)
(0.0185211 -2.80238e-05 1.971e-24)
(0.0185469 -5.47301e-05 -7.08662e-24)
(0.0185716 -7.85817e-05 5.96152e-24)
(0.0185944 -0.000100262 1.27131e-24)
(0.0186148 -0.000120122 1.18527e-23)
(0.0186325 -0.000138316 -1.8547e-23)
(0.0186478 -0.000154882 -8.18643e-24)
(0.0186604 -0.000169815 -5.19923e-24)
(0.018671 -0.000183104 9.96733e-24)
(0.0186795 -0.000194782 -2.63302e-25)
(0.018687 -0.000204922 9.30335e-25)
(0.0203651 0.000129416 -3.27196e-26)
(0.020384 7.32403e-05 4.83213e-25)
(0.0204078 2.71985e-05 -7.21335e-25)
(0.0204342 -1.15591e-05 -1.50394e-26)
(0.0204614 -4.44752e-05 1.34397e-24)
(0.0204877 -7.28921e-05 3.44766e-24)
(0.0205124 -9.78673e-05 -1.33272e-23)
(0.0205348 -0.000120096 1.19424e-24)
(0.0205548 -0.000139999 6.73596e-24)
(0.0205722 -0.000157836 -2.98347e-24)
(0.0205874 -0.000173775 8.19956e-24)
(0.0206003 -0.000187944 5.53848e-24)
(0.0206115 -0.000200456 -1.0123e-23)
(0.0206208 -0.000211434 6.71355e-24)
(0.0206292 -0.000221014 -5.56537e-24)
(0.0223618 0.000123361 -8.14837e-25)
(0.0223787 6.39767e-05 1.00228e-24)
(0.0223996 1.47841e-05 5.83914e-25)
(0.0224225 -2.64414e-05 -4.97181e-24)
(0.0224461 -6.13533e-05 4.53017e-24)
(0.0224689 -9.13045e-05 -3.67394e-24)
(0.0224903 -0.000117308 2.61351e-24)
(0.0225096 -0.000140083 -1.88259e-23)
(0.022527 -0.000160132 2.71687e-23)
(0.0225423 -0.000177826 -1.58095e-23)
(0.0225557 -0.000193443 1.40713e-23)
(0.0225673 -0.000207213 1.1432e-23)
(0.0225777 -0.00021933 -1.99417e-23)
(0.0225864 -0.00022997 6.41158e-24)
(0.0225946 -0.000239302 -2.64847e-25)
(0.0243619 0.000118038 -2.78049e-26)
(0.0243762 5.61417e-05 1.22553e-24)
(0.024393 4.35106e-06 -1.36605e-24)
(0.0244112 -3.89509e-05 -1.14981e-25)
(0.0244297 -7.55485e-05 1.45523e-24)
(0.0244476 -0.000106817 -2.6997e-24)
(0.0244642 -0.00013376 2.73469e-24)
(0.0244794 -0.000157121 -9.0437e-24)
(0.024493 -0.00017747 2.07814e-23)
(0.0245051 -0.00019526 -2.67112e-23)
(0.0245158 -0.000210857 2.18525e-23)
(0.0245252 -0.000224555 -7.36782e-24)
(0.0245336 -0.0002366 3.60836e-25)
(0.0245408 -0.000247202 1.60421e-24)
(0.0245477 -0.000256544 -3.12204e-24)
(0.0262568 0.000111577 -2.31499e-24)
(0.026271 4.86776e-05 5.8778e-24)
(0.0262856 -4.31404e-06 -3.99659e-24)
(0.0263005 -4.8875e-05 6.37761e-25)
(0.0263151 -8.65552e-05 2.42431e-25)
(0.0263289 -0.00011871 -8.16109e-25)
(0.0263416 -0.000146338 -1.75133e-24)
(0.0263531 -0.000170185 -4.81962e-24)
(0.0263634 -0.000190855 1.9889e-24)
(0.0263725 -0.000208851 1.19836e-23)
(0.0263806 -0.000224584 -6.44744e-24)
(0.0263876 -0.000238387 3.93531e-24)
(0.026394 -0.000250534 -1.62354e-24)
(0.0263995 -0.000261252 -4.79448e-24)
(0.0264047 -0.000270731 2.44931e-24)
(0.0279171 0.000102087 7.7886e-25)
(0.0279325 3.97732e-05 -1.54761e-24)
(0.0279466 -1.31105e-05 -3.42765e-24)
(0.0279598 -5.77598e-05 8.25214e-24)
(0.0279721 -9.56647e-05 -1.65245e-24)
(0.0279832 -0.000128121 -3.91059e-24)
(0.0279932 -0.000156051 1.49961e-24)
(0.0280022 -0.000180166 -5.46656e-25)
(0.0280103 -0.000201071 1.94504e-25)
(0.0280173 -0.000219276 -1.11418e-24)
(0.0280236 -0.000235203 2.4527e-24)
(0.028029 -0.000249191 1.57242e-24)
(0.028034 -0.000261521 -5.73366e-24)
(0.0280382 -0.000272419 4.09477e-24)
(0.0280422 -0.000282078 -8.59555e-25)
(0.0291886 8.94716e-05 2.37958e-24)
(0.0292046 2.94141e-05 5.5496e-24)
(0.0292187 -2.21013e-05 -1.16926e-23)
(0.0292315 -6.58827e-05 -5.24988e-24)
(0.0292428 -0.000103347 9.75014e-24)
(0.0292527 -0.00013562 5.2646e-24)
(0.0292614 -0.000163507 1.05584e-24)
(0.029269 -0.000187678 -9.45142e-24)
(0.0292757 -0.000208716 -3.37788e-24)
(0.0292815 -0.000227112 7.14078e-24)
(0.0292864 -0.000243265 -2.87805e-24)
(0.0292906 -0.000257499 1.22414e-25)
(0.0292942 -0.000270075 -5.15914e-27)
(0.0292972 -0.000281213 4.50803e-26)
(0.0292999 -0.000291091 -3.24954e-26)
(0.0298693 7.11316e-05 -6.46471e-24)
(0.0298867 1.56109e-05 -1.68515e-23)
(0.0299005 -3.23023e-05 4.98762e-24)
(0.0299114 -7.36502e-05 3.72627e-23)
(0.0299195 -0.000109467 -1.14148e-23)
(0.0299257 -0.000140531 -8.385e-24)
(0.0299304 -0.000167501 5.60916e-24)
(0.029934 -0.000190991 1.73838e-23)
(0.0299367 -0.000211536 -3.34172e-23)
(0.0299385 -0.000229582 1.27899e-23)
(0.0299397 -0.000245479 -1.88064e-24)
(0.0299402 -0.000259516 4.85113e-24)
(0.0299402 -0.000271928 2.97339e-24)
(0.0299399 -0.000282914 -3.72379e-24)
(0.0299392 -0.000292632 1.35203e-24)
(0.0297248 4.97139e-05 1.05973e-23)
(0.0297431 -9.03083e-07 -2.54651e-23)
(0.0297571 -4.4516e-05 3.20243e-24)
(0.0297676 -8.25456e-05 4.63528e-23)
(0.0297754 -0.000115769 -4.84463e-23)
(0.0297811 -0.000144727 2.05458e-23)
(0.0297853 -0.000169972 2.39802e-23)
(0.0297883 -0.000192057 -5.66925e-23)
(0.0297902 -0.000211455 -2.4273e-24)
(0.0297911 -0.000228545 2.22899e-23)
(0.0297913 -0.000243624 7.71626e-24)
(0.0297907 -0.000256938 -6.45531e-24)
(0.0297895 -0.000268687 6.00415e-24)
(0.0297879 -0.000279045 -2.70409e-24)
(0.0297858 -0.000288147 1.03089e-24)
(0.0288137 3.05658e-05 6.74721e-24)
(0.0288267 -1.39204e-05 -1.46505e-23)
(0.0288358 -5.29722e-05 -1.16721e-23)
(0.0288414 -8.73265e-05 5.48364e-23)
(0.0288445 -0.000117499 -5.34329e-23)
(0.0288459 -0.000143948 4.64552e-24)
(0.0288459 -0.000167164 1.00527e-23)
(0.0288448 -0.000187616 6.90359e-24)
(0.0288426 -0.000205686 8.44123e-24)
(0.0288397 -0.000221672 -4.69425e-23)
(0.028836 -0.000235809 2.94114e-23)
(0.0288317 -0.000248298 -1.81174e-25)
(0.0288268 -0.000259297 1.9522e-23)
(0.0288215 -0.000268949 -9.17462e-24)
(0.0288157 -0.000277359 -2.27365e-24)
(0.0273085 1.49204e-05 1.70202e-23)
(0.0273226 -2.31868e-05 -3.07658e-23)
(0.0273319 -5.74992e-05 6.12359e-24)
(0.0273372 -8.80221e-05 -1.75004e-23)
(0.0273397 -0.000114965 -2.52524e-23)
(0.02734 -0.000138745 8.16238e-23)
(0.0273386 -0.00015979 -3.35959e-23)
(0.0273356 -0.000178458 1.05363e-23)
(0.0273314 -0.000195026 -6.30101e-24)
(0.0273261 -0.000209718 -1.95764e-23)
(0.0273199 -0.000222717 3.87926e-23)
(0.0273129 -0.000234178 -2.42491e-23)
(0.0273052 -0.000244227 2.77157e-24)
(0.0272969 -0.000252972 4.84267e-24)
(0.027288 -0.000260499 -6.35853e-25)
(0.0254715 6.23587e-07 6.61347e-24)
(0.0254837 -3.24205e-05 -3.52115e-23)
(0.025491 -6.2188e-05 6.28354e-23)
(0.0254945 -8.87291e-05 -4.95066e-23)
(0.025495 -0.000112292 5.27067e-23)
(0.025493 -0.000133232 -1.65655e-23)
(0.025489 -0.000151871 -1.22307e-23)
(0.0254833 -0.000168459 -1.51469e-23)
(0.0254761 -0.000183196 3.01341e-23)
(0.0254678 -0.000196252 1.43189e-24)
(0.0254583 -0.000207768 -3.19483e-23)
(0.0254479 -0.000217866 -5.33122e-24)
(0.0254366 -0.000226643 9.25618e-24)
(0.0254247 -0.000234184 -2.31716e-24)
(0.025412 -0.000240555 5.62743e-25)
(0.0234478 -1.10842e-05 8.84866e-25)
(0.0234566 -3.90319e-05 -1.332e-23)
(0.0234607 -6.41862e-05 -8.16389e-24)
(0.0234609 -8.67163e-05 6.45276e-23)
(0.023458 -0.000106865 -6.50512e-23)
(0.0234524 -0.000124873 1.94171e-23)
(0.0234447 -0.000140954 3.47856e-24)
(0.0234351 -0.000155285 -1.94536e-24)
(0.0234239 -0.000168013 -1.00535e-23)
(0.0234114 -0.000179265 4.57236e-23)
(0.0233976 -0.000189147 -3.72918e-23)
(0.0233829 -0.000197751 -2.24885e-24)
(0.0233671 -0.000205146 3.72304e-24)
(0.0233506 -0.000211397 4.08903e-24)
(0.0233333 -0.000216553 -3.28771e-24)
(0.0213359 -1.84017e-05 1.32e-24)
(0.0213402 -4.14557e-05 1.24275e-23)
(0.0213399 -6.22921e-05 -1.42039e-23)
(0.0213358 -8.10757e-05 -1.04359e-23)
(0.0213285 -9.79755e-05 6.84329e-23)
(0.0213185 -0.000113139 -5.23226e-23)
(0.0213063 -0.000126708 -9.45661e-25)
(0.0212922 -0.000138806 -1.19547e-23)
(0.0212765 -0.000149539 -1.2757e-24)
(0.0212594 -0.000159001 1.61512e-24)
(0.021241 -0.000167265 -8.29181e-24)
(0.0212216 -0.000174398 5.92129e-24)
(0.0212012 -0.000180452 1.937e-24)
(0.02118 -0.000185472 2.03292e-24)
(0.021158 -0.000189496 3.17909e-24)
(0.0192052 -2.13084e-05 9.41076e-24)
(0.0192047 -3.99776e-05 -1.45457e-23)
(0.0191998 -5.69517e-05 -1.23282e-23)
(0.0191913 -7.23335e-05 3.77695e-23)
(0.0191797 -8.62334e-05 -1.34953e-23)
(0.0191655 -9.87464e-05 -2.03049e-23)
(0.0191492 -0.000109965 6.95735e-24)
(0.019131 -0.000119976 1.71199e-23)
(0.0191111 -0.000128851 -2.85196e-23)
(0.0190899 -0.000136656 2.94141e-23)
(0.0190675 -0.000143441 -1.65698e-23)
(0.0190441 -0.000149253 7.63838e-24)
(0.0190197 -0.000154129 -1.13635e-23)
(0.0189946 -0.000158101 1.19393e-23)
(0.0189688 -0.000161197 -3.17343e-24)
(0.0171084 -2.07577e-05 -1.82521e-24)
(0.0171039 -3.56361e-05 -6.53105e-24)
(0.0170953 -4.92338e-05 -2.14019e-23)
(0.0170833 -6.16183e-05 5.98823e-23)
(0.0170685 -7.28649e-05 -1.03511e-23)
(0.0170512 -8.30314e-05 -1.75389e-23)
(0.0170318 -9.21741e-05 6.58862e-24)
(0.0170107 -0.000100348 -9.46453e-24)
(0.0169879 -0.0001076 -2.22457e-23)
(0.0169638 -0.000113974 2.13025e-23)
(0.0169386 -0.000119503 1.02541e-24)
(0.0169124 -0.000124217 -8.42591e-24)
(0.0168854 -0.00012814 9.54345e-24)
(0.0168577 -0.000131295 7.6159e-25)
(0.0168294 -0.000133702 -9.32234e-25)
(0.015086 -1.80836e-05 7.01594e-24)
(0.0150788 -2.97709e-05 1.0717e-23)
(0.015068 -4.05015e-05 -9.63027e-24)
(0.015054 -5.03387e-05 -2.23138e-23)
(0.0150373 -5.93246e-05 3.08218e-23)
(0.0150183 -6.74859e-05 -3.46217e-23)
(0.0149972 -7.48535e-05 -1.99194e-24)
(0.0149745 -8.1461e-05 1.38888e-23)
(0.0149502 -8.73383e-05 5.07947e-24)
(0.0149246 -9.25105e-05 -1.16537e-23)
(0.0148979 -9.69981e-05 -8.16076e-25)
(0.0148703 -0.00010082 2.63963e-23)
(0.0148419 -0.00010399 -1.01985e-23)
(0.0148129 -0.000106524 -2.92565e-24)
(0.0147834 -0.000108434 -2.12159e-25)
(0.0131659 -1.45266e-05 -7.27983e-24)
(0.0131575 -2.35715e-05 9.41065e-24)
(0.0131457 -3.19207e-05 1.14435e-24)
(0.0131311 -3.96315e-05 2.03738e-23)
(0.0131138 -4.67148e-05 -1.63475e-23)
(0.0130943 -5.31786e-05 1.62842e-24)
(0.0130728 -5.90403e-05 -1.61461e-24)
(0.0130496 -6.43192e-05 -5.58396e-24)
(0.013025 -6.90318e-05 5.50737e-24)
(0.012999 -7.31914e-05 -1.78877e-23)
(0.012972 -7.68094e-05 7.14153e-25)
(0.0129441 -7.98958e-05 4.28059e-24)
(0.0129154 -8.24586e-05 2.95941e-24)
(0.0128862 -8.45078e-05 1.2897e-24)
(0.0128565 -8.60493e-05 5.72142e-25)
(0.0113642 -1.09251e-05 5.3876e-24)
(0.0113556 -1.78108e-05 -4.23558e-24)
(0.011344 -2.42018e-05 -1.95217e-23)
(0.0113296 -3.01439e-05 1.83539e-23)
(0.0113127 -3.56286e-05 2.69328e-23)
(0.0112937 -4.06578e-05 -6.24268e-24)
(0.0112727 -4.52416e-05 -1.41033e-23)
(0.0112501 -4.93891e-05 -2.12747e-23)
(0.0112259 -5.31078e-05 1.63455e-23)
(0.0112006 -5.64034e-05 1.16502e-24)
(0.0111741 -5.92812e-05 -4.05994e-24)
(0.0111467 -6.17457e-05 -1.31666e-24)
(0.0111185 -6.38004e-05 2.65639e-24)
(0.0110898 -6.54509e-05 -8.49869e-27)
(0.0110606 -6.66995e-05 -6.49025e-25)
(0.00968772 -7.73117e-06 -3.38898e-24)
(0.00967966 -1.28715e-05 -2.53444e-24)
(0.00966883 -1.76606e-05 2.93253e-24)
(0.00965537 -2.21355e-05 -1.00299e-23)
(0.00963956 -2.62827e-05 3.31554e-23)
(0.00962166 -3.01042e-05 -4.51333e-23)
(0.0096019 -3.36054e-05 4.54676e-23)
(0.00958049 -3.67887e-05 -1.95942e-23)
(0.00955761 -3.96562e-05 4.85791e-24)
(0.00953346 -4.22093e-05 3.63282e-25)
(0.0095082 -4.44494e-05 -3.85144e-24)
(0.00948202 -4.63775e-05 1.72297e-24)
(0.00945507 -4.79947e-05 -3.48049e-24)
(0.00942753 -4.93033e-05 -5.57774e-25)
(0.00939953 -5.03032e-05 3.01781e-25)
(0.00813693 -5.13156e-06 -1.64648e-24)
(0.00812984 -8.8769e-06 3.96906e-25)
(0.00812023 -1.23653e-05 9.27552e-25)
(0.00810816 -1.56343e-05 -4.54525e-24)
(0.00809389 -1.86744e-05 -2.22502e-24)
(0.00807763 -2.14898e-05 1.84731e-23)
(0.00805958 -2.40822e-05 -1.09745e-23)
(0.00803993 -2.64505e-05 1.69501e-24)
(0.00801885 -2.85941e-05 -1.61406e-24)
(0.00799651 -3.0512e-05 -1.91163e-24)
(0.00797308 -3.22036e-05 -6.97908e-25)
(0.00794872 -3.36681e-05 4.04762e-24)
(0.00792359 -3.49051e-05 1.39788e-24)
(0.00789784 -3.59147e-05 -2.72965e-24)
(0.00787162 -3.66958e-05 -5.00215e-25)
(0.00670879 -3.14526e-06 -5.95806e-25)
(0.00670287 -5.80057e-06 -2.13896e-25)
(0.00669471 -8.24984e-06 -1.00644e-23)
(0.00668431 -1.05455e-05 2.47008e-24)
(0.00667188 -1.26864e-05 -7.79429e-24)
(0.00665761 -1.46787e-05 4.98684e-24)
(0.00664167 -1.6522e-05 1.02777e-23)
(0.00662421 -1.82139e-05 8.22173e-24)
(0.0066054 -1.97527e-05 -1.18151e-23)
(0.00658538 -2.11363e-05 3.57392e-24)
(0.0065643 -2.23634e-05 3.38044e-24)
(0.00654231 -2.34322e-05 -5.24058e-24)
(0.00651956 -2.43419e-05 2.81777e-24)
(0.0064962 -2.50912e-05 -3.66738e-25)
(0.00647234 -2.56785e-05 9.34857e-25)
(0.00539824 -1.75788e-06 -2.32294e-24)
(0.00539358 -3.54675e-06 -3.32252e-24)
(0.00538697 -5.18322e-06 -7.2565e-25)
(0.00537838 -6.71322e-06 8.35727e-24)
(0.00536799 -8.14294e-06 -6.12306e-24)
(0.00535595 -9.47967e-06 -1.35057e-24)
(0.0053424 -1.07222e-05 1.03421e-23)
(0.00532747 -1.18681e-05 1.95714e-25)
(0.00531129 -1.29154e-05 -2.09596e-24)
(0.005294 -1.38618e-05 -8.71384e-24)
(0.00527572 -1.47058e-05 6.65364e-25)
(0.00525658 -1.54457e-05 6.56108e-24)
(0.00523671 -1.60802e-05 -8.64457e-25)
(0.00521625 -1.66079e-05 -1.18174e-24)
(0.00519531 -1.70267e-05 8.1968e-25)
(0.00419931 -8.69813e-07 -5.0608e-25)
(0.00419591 -1.98846e-06 2.12873e-26)
(0.00419086 -3.0083e-06 3.98167e-24)
(0.00418411 -3.95643e-06 2.80683e-24)
(0.00417585 -4.84374e-06 -1.77343e-24)
(0.00416616 -5.67727e-06 -4.77037e-24)
(0.00415518 -6.4557e-06 2.03771e-24)
(0.00414299 -7.17699e-06 -8.81731e-24)
(0.00412971 -7.83931e-06 6.83795e-24)
(0.00411544 -8.44085e-06 3.8357e-24)
(0.0041003 -8.98021e-06 2.13046e-25)
(0.00408438 -9.45587e-06 -4.49463e-24)
(0.0040678 -9.86687e-06 9.07962e-25)
(0.00405068 -1.02116e-05 -7.88722e-25)
(0.0040331 -1.04882e-05 4.21391e-25)
(0.00310567 -3.59569e-07 -9.31787e-25)
(0.00310342 -9.92043e-07 2.27393e-27)
(0.00309982 -1.56617e-06 3.18401e-24)
(0.00309487 -2.09452e-06 -1.99724e-24)
(0.00308871 -2.58931e-06 8.62237e-24)
(0.0030814 -3.05586e-06 -1.58789e-23)
(0.00307304 -3.49311e-06 1.33121e-23)
(0.0030637 -3.89963e-06 -1.14539e-23)
(0.00305346 -4.27416e-06 8.51748e-24)
(0.0030424 -4.61539e-06 -5.70631e-24)
(0.0030306 -4.92238e-06 2.00069e-24)
(0.00301816 -5.19404e-06 3.09782e-25)
(0.00300515 -5.42975e-06 5.90112e-25)
(0.00299167 -5.62834e-06 -7.53354e-25)
(0.0029778 -5.78833e-06 1.74147e-25)
(0.00211083 -1.13128e-07 1.42429e-24)
(0.00210953 -4.22262e-07 1.60839e-24)
(0.00210722 -6.97466e-07 -6.83632e-24)
(0.00210394 -9.45594e-07 5.07022e-24)
(0.00209976 -1.1764e-06 -2.13537e-26)
(0.00209476 -1.39328e-06 1.426e-24)
(0.00208897 -1.5959e-06 -1.67288e-24)
(0.00208246 -1.78375e-06 -3.75724e-24)
(0.00207528 -1.95641e-06 3.8054e-24)
(0.00206748 -2.11344e-06 4.82901e-25)
(0.00205912 -2.25458e-06 -3.38362e-24)
(0.00205028 -2.37945e-06 1.20201e-24)
(0.00204099 -2.48798e-06 8.21681e-25)
(0.00203133 -2.57936e-06 -8.85279e-26)
(0.00202137 -2.65147e-06 -1.17172e-25)
(0.00120827 -1.14542e-08 -1.45217e-24)
(0.00120766 -1.09838e-07 4.49817e-24)
(0.00120643 -1.92436e-07 2.80785e-24)
(0.0012046 -2.64636e-07 -4.93081e-24)
(0.00120224 -3.3053e-07 -5.84044e-25)
(0.00119937 -3.92912e-07 -5.44148e-25)
(0.00119603 -4.52207e-07 1.73214e-24)
(0.00119224 -5.08715e-07 -2.97883e-24)
(0.00118803 -5.62723e-07 4.2323e-24)
(0.00118343 -6.14462e-07 -2.06469e-24)
(0.00117849 -6.64219e-07 -1.47146e-24)
(0.00117323 -7.12172e-07 9.30145e-25)
(0.0011677 -7.58657e-07 -1.27799e-24)
(0.00116192 -8.02228e-07 1.33657e-24)
(0.00115593 -8.36714e-07 -2.54164e-25)
(0.000391512 5.55286e-08 -1.04398e-26)
(0.00039131 1.31714e-07 8.84133e-25)
(0.000390899 1.90772e-07 1.04806e-24)
(0.000390292 2.31935e-07 -1.61118e-24)
(0.000389512 2.56946e-07 3.51224e-24)
(0.000388563 2.6627e-07 -3.80083e-24)
(0.000387454 2.61502e-07 2.64022e-25)
(0.000386191 2.44207e-07 2.29614e-24)
(0.000384786 2.15878e-07 -3.18367e-24)
(0.000383247 1.77938e-07 -6.52233e-25)
(0.000381585 1.31697e-07 2.44459e-24)
(0.000379811 7.83968e-08 -1.10471e-24)
(0.000377937 1.91262e-08 -4.81918e-25)
(0.000375976 -4.39827e-08 4.13834e-25)
(0.000373939 -1.05708e-07 -2.11426e-26)
(0.000902799 -0.000212028 5.38234e-26)
(0.00103962 -0.000113231 1.2143e-24)
(0.00127151 -1.51124e-05 -3.25256e-24)
(0.00151066 6.42262e-05 4.25224e-24)
(0.00174356 0.000126858 -1.58715e-24)
(0.0019747 0.00017348 -1.2061e-24)
(0.00220371 0.00020632 1.23699e-24)
(0.00243082 0.000227205 -2.15744e-24)
(0.00265633 0.000237688 2.29499e-25)
(0.00288043 0.000239142 1.22667e-24)
(0.00310332 0.000232766 -2.19151e-25)
(0.00332531 0.000219602 2.30583e-25)
(0.00354678 0.000200543 -2.38764e-26)
(0.00376815 0.000176362 1.33275e-25)
(0.00399 0.000147804 -4.80023e-25)
(0.00421295 0.000115802 2.56918e-25)
(0.00443806 8.15415e-05 -5.6511e-26)
(0.00466681 4.67789e-05 2.09234e-26)
(0.00490201 1.37771e-05 4.8837e-26)
(0.00514708 -1.47817e-05 -1.80549e-26)
(0.00540729 -3.76363e-05 -4.58683e-27)
(0.00568722 -5.52467e-05 5.02225e-27)
(0.00596497 -7.11339e-05 -1.30437e-26)
(0.00620676 -9.05418e-05 -5.86013e-26)
(0.00640206 -0.000115688 1.07785e-25)
(0.00655152 -0.0001459 1.25221e-25)
(0.00665795 -0.000180382 6.49557e-26)
(0.00672423 -0.000218394 -4.59985e-25)
(0.00675422 -0.000259363 -1.28289e-24)
(0.00674703 -0.000300449 2.663e-24)
(0.00670579 -0.000341687 -4.19844e-24)
(0.00662998 -0.000379769 5.36614e-24)
(0.00651988 -0.000408606 -2.13189e-24)
(0.00637527 -0.000422506 -3.84932e-24)
(0.00619719 -0.000414299 3.84742e-24)
(0.00598686 -0.000375673 1.41302e-23)
(0.00574594 -0.000297049 -5.32594e-24)
(0.0054765 -0.000166827 1.8269e-24)
(0.00518114 3.01026e-05 4.20852e-25)
(0.00486377 0.000313653 -1.51608e-23)
(0.0045282 0.000706733 -1.72058e-25)
(0.00417887 0.00122081 5.45987e-24)
(0.00379738 0.00181134 1.3626e-24)
(0.00340484 0.00231212 -7.30428e-24)
(0.00317961 0.0022867 -3.32861e-25)
(0.00171848 -0.000294048 -1.49962e-24)
(0.00177837 -0.000232712 -1.79934e-24)
(0.0019264 -0.000138702 3.9368e-24)
(0.0021121 -5.29356e-05 1.42916e-24)
(0.00231136 1.95173e-05 -4.93544e-24)
(0.00251915 7.63556e-05 4.75695e-24)
(0.0027311 0.000118716 -1.63612e-24)
(0.00294513 0.000148257 1.01596e-24)
(0.00316024 0.000166556 -1.36213e-24)
(0.00337582 0.000175053 2.20396e-26)
(0.00359158 0.00017501 -6.20269e-25)
(0.00380745 0.00016753 1.22702e-24)
(0.00402354 0.000153566 -6.68606e-25)
(0.00424004 0.000133952 -5.72485e-25)
(0.00445729 0.000109489 -3.24014e-25)
(0.00467565 8.11493e-05 7.11148e-25)
(0.00489587 5.01342e-05 -2.92788e-26)
(0.00511903 1.81744e-05 2.25838e-25)
(0.00534739 -1.24986e-05 -2.52611e-26)
(0.00558366 -3.92455e-05 -3.34047e-26)
(0.00583237 -6.07877e-05 5.68389e-27)
(0.00609747 -7.7323e-05 1.34418e-26)
(0.00635855 -9.19269e-05 -7.16588e-26)
(0.00658494 -0.000109426 -1.10032e-25)
(0.00676754 -0.000131934 6.73142e-26)
(0.00690718 -0.00015886 6.76368e-25)
(0.00700645 -0.000189473 -1.11912e-24)
(0.00706805 -0.000223065 1.09771e-24)
(0.00709532 -0.000258807 -3.96609e-25)
(0.00708726 -0.000293765 7.06029e-25)
(0.00704795 -0.00032795 -6.62509e-24)
(0.0069759 -0.000357797 1.21269e-23)
(0.00687213 -0.00037723 -1.09806e-23)
(0.00673682 -0.000380621 2.25466e-23)
(0.00657171 -0.000360932 -2.98674e-23)
(0.006379 -0.000309987 7.51165e-24)
(0.00616174 -0.000218414 2.24025e-23)
(0.00592417 -7.50379e-05 -7.3211e-24)
(0.00567232 0.000134317 -1.56786e-23)
(0.00541595 0.000428345 -8.18115e-24)
(0.00516988 0.00082867 1.86067e-23)
(0.00495913 0.00134794 -1.68727e-23)
(0.00480212 0.00194419 -2.86981e-24)
(0.00475304 0.00243855 9.89721e-24)
(0.00480384 0.00237465 2.74861e-24)
(0.00269284 -0.000304284 -1.64493e-26)
(0.0027049 -0.000286403 -2.16678e-24)
(0.00277347 -0.000225816 4.0241e-24)
(0.00289513 -0.000151213 2.70337e-24)
(0.00304593 -7.97118e-05 -4.65176e-24)
(0.00321663 -1.86206e-05 1.23338e-25)
(0.00339995 3.00415e-05 3.52767e-25)
(0.00359137 6.65235e-05 3.19497e-24)
(0.00378816 9.17679e-05 -3.7329e-24)
(0.00398858 0.000106918 2.09357e-24)
(0.00419155 0.000113101 5.64519e-25)
(0.00439642 0.000111367 -3.29379e-24)
(0.00460287 0.000102663 1.18333e-24)
(0.00481072 8.78436e-05 4.57006e-25)
(0.00502001 6.77416e-05 -8.9259e-25)
(0.00523075 4.33571e-05 1.34397e-24)
(0.00544332 1.58929e-05 -8.44894e-25)
(0.00565833 -1.29552e-05 5.63861e-26)
(0.00587745 -4.09903e-05 9.07351e-26)
(0.00610258 -6.56283e-05 3.90333e-26)
(0.00633742 -8.55773e-05 1.3442e-26)
(0.00658515 -0.000100787 -1.608e-26)
(0.00682692 -0.000113906 7.68211e-26)
(0.00703538 -0.000129345 -2.47247e-25)
(0.00720297 -0.000149099 4.66714e-25)
(0.00733071 -0.000172623 -2.82073e-25)
(0.007421 -0.000199249 1.25077e-24)
(0.00747645 -0.000228279 -1.75462e-24)
(0.00749956 -0.000258568 2.95344e-24)
(0.00748973 -0.000287366 1.16927e-24)
(0.00745204 -0.000314311 2.43375e-24)
(0.00738338 -0.000335731 -1.40443e-23)
(0.00728593 -0.000345636 5.38824e-24)
(0.00716033 -0.00033852 1.14774e-23)
(0.00700901 -0.000307601 -2.48408e-23)
(0.00683518 -0.000245072 3.42541e-23)
(0.00664333 -0.000142173 -2.14789e-23)
(0.00643978 1.11443e-05 2.55766e-23)
(0.00623372 0.000226829 -4.71166e-23)
(0.00603959 0.00051945 1.75467e-23)
(0.00587959 0.000903887 5.62426e-24)
(0.00578882 0.00138416 7.93865e-24)
(0.00579559 0.00191262 -9.84339e-24)
(0.00594773 0.00232499 2.3197e-24)
(0.00611395 0.0022685 -1.36069e-24)
(0.00380737 -0.000290541 -5.97726e-25)
(0.00379397 -0.000298904 -8.18756e-25)
(0.00381084 -0.000271347 -3.26576e-24)
(0.003871 -0.000220178 1.25755e-24)
(0.00396813 -0.000160175 8.00472e-25)
(0.0040926 -0.000102791 2.13552e-24)
(0.0042373 -5.3194e-05 -3.63148e-24)
(0.00439664 -1.32503e-05 1.54595e-24)
(0.00456657 1.67334e-05 4.01487e-24)
(0.00474423 3.71651e-05 -1.09688e-24)
(0.00492766 4.87488e-05 -9.29266e-25)
(0.00511555 5.22982e-05 -1.42128e-25)
(0.00530701 4.86409e-05 4.53978e-25)
(0.00550141 3.85756e-05 -8.72188e-25)
(0.00569837 2.29172e-05 2.13062e-25)
(0.00589753 2.65985e-06 -3.67946e-26)
(0.00609882 -2.10152e-05 -2.40126e-25)
(0.00630231 -4.64673e-05 2.11681e-25)
(0.00650905 -7.15495e-05 2.42468e-25)
(0.00672007 -9.37414e-05 -7.01317e-26)
(0.00693812 -0.000111765 1.38128e-26)
(0.00716551 -0.000125343 1.97077e-26)
(0.00738499 -0.000136727 1.41741e-25)
(0.00757267 -0.00014992 3.6975e-26)
(0.00772265 -0.000166787 5.30252e-25)
(0.00783612 -0.000186782 -8.07998e-25)
(0.00791532 -0.000209318 1.2963e-24)
(0.00796289 -0.000233615 -2.86418e-24)
(0.00797994 -0.000258351 3.60953e-24)
(0.00796763 -0.000280911 -3.18272e-25)
(0.00793078 -0.000300653 -2.89922e-24)
(0.00786495 -0.000313531 -3.4138e-25)
(0.00777363 -0.000314061 -3.39447e-25)
(0.00765791 -0.000296865 -2.74212e-24)
(0.00752092 -0.000255584 4.69203e-24)
(0.00736682 -0.000183073 -9.81439e-24)
(0.00720135 -7.1625e-05 4.18242e-23)
(0.00703256 8.69797e-05 -2.2605e-23)
(0.00687178 0.000301432 -1.49563e-24)