/*--------------------------------*- C++ -*----------------------------------*\
| =========                 |                                                 |
| \\      /  F ield         | OpenFOAM: The Open Source CFD Toolbox           |
|  \\    /   O peration     | Version:  2312                                  |
|   \\  /    A nd           | Website:  www.openfoam.com                      |
|    \\/     M anipulation  |                                                 |
\*---------------------------------------------------------------------------*/
FoamFile
{
    version     2.0;
    format      ascii;
    arch        "LSB;label=32;scalar=64";
    class       volScalarField;
    location    "28.75";
    object      p;
}
// * * * * * * * * * * * * * * * * * * * * * * * * * * * * * * * * * * * * * //

dimensions      [0 2 -2 0 0 0 0];

internalField   nonuniform List<scalar> 
4800
(
-5.50022e-13
-1.84407e-06
-3.45526e-06
-4.87071e-06
-6.11775e-06
-7.21808e-06
-8.18854e-06
-9.05202e-06
-9.82446e-06
-1.05151e-05
-1.11366e-05
-1.16956e-05
-1.21857e-05
-1.28497e-05
-1.47238e-05
1.75178e-08
-1.82098e-06
-3.42765e-06
-4.8397e-06
-6.08498e-06
-7.18559e-06
-8.15795e-06
-9.02637e-06
-9.8063e-06
-1.05086e-05
-1.11517e-05
-1.1757e-05
-1.23423e-05
-1.30191e-05
-1.40554e-05
3.698e-08
-1.7955e-06
-3.39751e-06
-4.80631e-06
-6.04978e-06
-7.15016e-06
-8.12398e-06
-8.99421e-06
-9.77962e-06
-1.04906e-05
-1.11462e-05
-1.17685e-05
-1.23697e-05
-1.29565e-05
-1.35018e-05
5.82709e-08
-1.76735e-06
-3.36397e-06
-4.76877e-06
-6.00967e-06
-7.10876e-06
-8.08386e-06
-8.95293e-06
-9.73956e-06
-1.04524e-05
-1.11055e-05
-1.17116e-05
-1.22642e-05
-1.2728e-05
-1.30241e-05
8.32897e-08
-1.73413e-06
-3.32414e-06
-4.72373e-06
-5.96084e-06
-7.05708e-06
-8.03117e-06
-8.89779e-06
-9.67889e-06
-1.03842e-05
-1.10194e-05
-1.15856e-05
-1.20639e-05
-1.24117e-05
-1.25675e-05
1.13782e-07
-1.69383e-06
-3.2757e-06
-4.6685e-06
-5.90007e-06
-6.99128e-06
-7.96021e-06
-8.82137e-06
-9.59016e-06
-1.02763e-05
-1.08787e-05
-1.139e-05
-1.17888e-05
-1.2043e-05
-1.2122e-05
1.51951e-07
-1.64403e-06
-3.21585e-06
-4.59969e-06
-5.82323e-06
-6.90623e-06
-7.86552e-06
-8.71433e-06
-9.46374e-06
-1.01194e-05
-1.06771e-05
-1.1127e-05
-1.14527e-05
-1.16386e-05
-1.16783e-05
2.00911e-07
-1.58127e-06
-3.14061e-06
-4.51255e-06
-5.7246e-06
-6.79502e-06
-7.73901e-06
-8.56778e-06
-9.28909e-06
-9.90523e-06
-1.04119e-05
-1.08016e-05
-1.10669e-05
-1.12066e-05
-1.12279e-05
2.64481e-07
-1.50107e-06
-3.04476e-06
-4.40088e-06
-5.59685e-06
-6.64908e-06
-7.57099e-06
-8.37182e-06
-9.05709e-06
-9.6281e-06
-1.00827e-05
-1.04192e-05
-1.06387e-05
-1.07492e-05
-1.07642e-05
3.46749e-07
-1.39845e-06
-2.92216e-06
-4.25729e-06
-5.43158e-06
-6.45896e-06
-7.35149e-06
-8.11705e-06
-8.76055e-06
-9.28491e-06
-9.69135e-06
-9.9843e-06
-1.01713e-05
-1.02655e-05
-1.02816e-05
4.52327e-07
-1.26957e-06
-2.76685e-06
-4.07408e-06
-5.22021e-06
-6.21555e-06
-7.07185e-06
-7.79654e-06
-8.39564e-06
-8.8747e-06
-9.24019e-06
-9.50012e-06
-9.66617e-06
-9.75317e-06
-9.77551e-06
5.78295e-07
-1.11401e-06
-2.57388e-06
-3.84582e-06
-4.95566e-06
-5.91161e-06
-6.72643e-06
-7.40729e-06
-7.96263e-06
-8.40139e-06
-8.73331e-06
-8.96999e-06
-9.12433e-06
-9.21104e-06
-9.24317e-06
7.20093e-07
-9.24679e-07
-2.34384e-06
-3.5745e-06
-4.63493e-06
-5.54433e-06
-6.31403e-06
-6.95063e-06
-7.46564e-06
-7.87049e-06
-8.17707e-06
-8.39857e-06
-8.54827e-06
-8.6397e-06
-8.6842e-06
8.7971e-07
-7.13298e-07
-2.08306e-06
-3.25381e-06
-4.26048e-06
-5.12213e-06
-5.84238e-06
-6.43376e-06
-6.91269e-06
-7.29067e-06
-7.57942e-06
-7.79241e-06
-7.94265e-06
-8.04225e-06
-8.1009e-06
1.03825e-06
-4.79906e-07
-1.78481e-06
-2.89796e-06
-3.85039e-06
-4.65546e-06
-5.31974e-06
-5.86619e-06
-6.31296e-06
-6.67083e-06
-6.94885e-06
-7.15901e-06
-7.31361e-06
-7.42372e-06
-7.49771e-06
1.18468e-06
-2.44494e-07
-1.46383e-06
-2.51199e-06
-3.40556e-06
-4.15242e-06
-4.76328e-06
-5.26481e-06
-5.67959e-06
-6.02089e-06
-6.29365e-06
-6.5059e-06
-6.66804e-06
-6.79028e-06
-6.88032e-06
1.30345e-06
-2.35126e-08
-1.14625e-06
-2.10704e-06
-2.93765e-06
-3.62969e-06
-4.19229e-06
-4.65222e-06
-5.03577e-06
-5.3587e-06
-5.62678e-06
-5.84346e-06
-6.01518e-06
-6.15049e-06
-6.25668e-06
1.37187e-06
1.66809e-07
-8.55268e-07
-1.72041e-06
-2.46099e-06
-3.09688e-06
-3.62229e-06
-4.05116e-06
-4.40738e-06
-4.70993e-06
-4.96966e-06
-5.1886e-06
-5.36938e-06
-5.51747e-06
-5.63891e-06
1.37392e-06
3.01986e-07
-6.0548e-07
-1.37529e-06
-2.03203e-06
-2.59264e-06
-3.06747e-06
-3.4687e-06
-3.80714e-06
-4.09599e-06
-4.34506e-06
-4.5607e-06
-4.74642e-06
-4.9047e-06
-5.03911e-06
1.29358e-06
3.67973e-07
-4.19406e-07
-1.08941e-06
-1.65963e-06
-2.15014e-06
-2.57339e-06
-2.93804e-06
-3.25279e-06
-3.52494e-06
-3.76231e-06
-3.97273e-06
-4.15975e-06
-4.32433e-06
-4.46868e-06
1.1479e-06
3.59286e-07
-3.13923e-07
-8.88484e-07
-1.38138e-06
-1.80721e-06
-2.17731e-06
-2.50178e-06
-2.7871e-06
-3.0387e-06
-3.26241e-06
-3.46458e-06
-3.64844e-06
-3.81425e-06
-3.96268e-06
9.77823e-07
3.04188e-07
-2.73215e-07
-7.70458e-07
-1.19993e-06
-1.57359e-06
-1.90273e-06
-2.19481e-06
-2.45584e-06
-2.68984e-06
-2.89711e-06
-3.08357e-06
-3.25882e-06
-3.42312e-06
-3.57366e-06
8.4638e-07
2.6082e-07
-2.43943e-07
-6.81692e-07
-1.06325e-06
-1.39869e-06
-1.69649e-06
-1.96295e-06
-2.20293e-06
-2.41986e-06
-2.61794e-06
-2.80023e-06
-2.96891e-06
-3.12576e-06
-3.27302e-06
7.58393e-07
2.388e-07
-2.12221e-07
-6.06479e-07
-9.53296e-07
-1.26082e-06
-1.53592e-06
-1.78407e-06
-2.00963e-06
-2.21611e-06
-2.40646e-06
-2.58283e-06
-2.74728e-06
-2.90178e-06
-3.04804e-06
7.09745e-07
2.39144e-07
-1.72671e-07
-5.35672e-07
-8.57724e-07
-1.14568e-06
-1.40531e-06
-1.64133e-06
-1.85752e-06
-2.05685e-06
-2.24178e-06
-2.41445e-06
-2.57679e-06
-2.73049e-06
-2.87704e-06
6.93136e-07
2.58698e-07
-1.248e-07
-4.657e-07
-7.70655e-07
-1.04548e-06
-1.29507e-06
-1.52347e-06
-1.73395e-06
-1.92922e-06
-2.1116e-06
-2.28306e-06
-2.44536e-06
-2.59998e-06
-2.74835e-06
6.9907e-07
2.91191e-07
-7.20633e-08
-3.97617e-07
-6.9112e-07
-9.57542e-07
-1.20112e-06
-1.42537e-06
-1.63325e-06
-1.82723e-06
-2.00944e-06
-2.18168e-06
-2.34556e-06
-2.50247e-06
-2.65378e-06
7.18231e-07
3.29995e-07
-1.87502e-08
-3.33725e-07
-6.19766e-07
-8.81174e-07
-1.12165e-06
-1.34432e-06
-1.55182e-06
-1.74639e-06
-1.92998e-06
-2.10427e-06
-2.27078e-06
-2.43086e-06
-2.58582e-06
7.43399e-07
3.69978e-07
3.17971e-08
-2.75864e-07
-5.57161e-07
-8.15841e-07
-1.05515e-06
-1.27786e-06
-1.48633e-06
-1.6826e-06
-1.86849e-06
-2.04557e-06
-2.21532e-06
-2.37901e-06
-2.53793e-06
7.69756e-07
4.07822e-07
7.75342e-08
-2.24971e-07
-5.03272e-07
-7.60645e-07
-9.99941e-07
-1.22361e-06
-1.43378e-06
-1.63233e-06
-1.82096e-06
-2.00117e-06
-2.17436e-06
-2.34176e-06
-2.50466e-06
7.94484e-07
4.41739e-07
1.17565e-07
-1.8116e-07
-4.5753e-07
-7.14409e-07
-9.54297e-07
-1.17937e-06
-1.39156e-06
-1.59261e-06
-1.78409e-06
-1.96743e-06
-2.14399e-06
-2.31496e-06
-2.48161e-06
8.16214e-07
4.71052e-07
1.51808e-07
-1.43997e-07
-4.19056e-07
-6.75863e-07
-9.16605e-07
-1.14322e-06
-1.35747e-06
-1.56096e-06
-1.75518e-06
-1.94147e-06
-2.12116e-06
-2.29542e-06
-2.46547e-06
8.34504e-07
4.95766e-07
1.80652e-07
-1.12775e-07
-3.8687e-07
-6.43783e-07
-8.8543e-07
-1.11354e-06
-1.32973e-06
-1.53548e-06
-1.73219e-06
-1.92115e-06
-2.10365e-06
-2.28082e-06
-2.4539e-06
8.49431e-07
5.16253e-07
2.04703e-07
-8.67013e-08
-3.60014e-07
-6.17076e-07
-8.59564e-07
-1.08903e-06
-1.30696e-06
-1.51471e-06
-1.71362e-06
-1.90493e-06
-2.08988e-06
-2.2696e-06
-2.4453e-06
8.61334e-07
5.3304e-07
2.24628e-07
-6.50011e-08
-3.37626e-07
-5.94811e-07
-8.38028e-07
-1.06868e-06
-1.2881e-06
-1.49759e-06
-1.69841e-06
-1.89175e-06
-2.07881e-06
-2.26072e-06
-2.43866e-06
8.70643e-07
5.46676e-07
2.41055e-07
-4.69882e-08
-3.18978e-07
-5.76235e-07
-8.20057e-07
-1.0517e-06
-1.27241e-06
-1.48338e-06
-1.68582e-06
-1.88088e-06
-2.06975e-06
-2.25352e-06
-2.43338e-06
8.77795e-07
5.57664e-07
2.54527e-07
-3.20933e-08
-3.03486e-07
-5.60764e-07
-8.05071e-07
-1.03754e-06
-1.25932e-06
-1.47154e-06
-1.67535e-06
-1.87187e-06
-2.06225e-06
-2.24759e-06
-2.42907e-06
8.83234e-07
5.66523e-07
2.65604e-07
-1.97307e-08
-2.90554e-07
-5.47804e-07
-7.9249e-07
-1.02564e-06
-1.24831e-06
-1.46157e-06
-1.66653e-06
-1.86427e-06
-2.05594e-06
-2.24261e-06
-2.42545e-06
8.87478e-07
5.73989e-07
2.75163e-07
-8.9408e-09
-2.79189e-07
-5.36366e-07
-7.81352e-07
-1.01508e-06
-1.23852e-06
-1.4527e-06
-1.65867e-06
-1.8575e-06
-2.05031e-06
-2.23816e-06
-2.42223e-06
8.90809e-07
5.80543e-07
2.83813e-07
9.39349e-10
-2.68736e-07
-5.25838e-07
-7.71118e-07
-1.0054e-06
-1.22959e-06
-1.44464e-06
-1.65157e-06
-1.85142e-06
-2.04528e-06
-2.23421e-06
-2.41939e-06
-1.63659e-05
-1.39538e-05
-1.24602e-05
-1.14647e-05
-1.06556e-05
-1.00156e-05
-9.49138e-06
-9.04684e-06
-8.65808e-06
-8.30777e-06
-7.98362e-06
-7.67694e-06
-7.38221e-06
-7.09744e-06
-6.82528e-06
-6.57692e-06
-6.37357e-06
-6.25825e-06
-6.29504e-06
-6.58508e-06
-7.26459e-06
-8.49116e-06
-1.0247e-05
-1.21902e-05
-1.40189e-05
-1.55572e-05
-1.66884e-05
-1.73352e-05
-1.74462e-05
-1.69923e-05
-1.59661e-05
-1.43846e-05
-1.22885e-05
-9.74043e-06
-6.81973e-06
-3.61658e-06
-2.26353e-07
3.25441e-06
6.72879e-06
1.00968e-05
1.32422e-05
1.6028e-05
1.81545e-05
1.94579e-05
1.90994e-05
-1.45694e-05
-1.3348e-05
-1.22265e-05
-1.1345e-05
-1.05864e-05
-9.96297e-06
-9.44381e-06
-9.00054e-06
-8.61175e-06
-8.26117e-06
-7.93682e-06
-7.63017e-06
-7.33579e-06
-7.05183e-06
-6.78111e-06
-6.53497e-06
-6.3346e-06
-6.22287e-06
-6.26319e-06
-6.55533e-06
-7.23403e-06
-8.45502e-06
-1.02007e-05
-1.21339e-05
-1.39554e-05
-1.54893e-05
-1.66182e-05
-1.72639e-05
-1.73751e-05
-1.69229e-05
-1.59015e-05
-1.43293e-05
-1.22492e-05
-9.72553e-06
-6.84014e-06
-3.6864e-06
-3.64638e-07
3.02068e-06
6.35934e-06
9.52767e-06
1.23646e-05
1.46375e-05
1.58946e-05
1.54694e-05
1.23611e-05
-1.36184e-05
-1.28651e-05
-1.19813e-05
-1.1201e-05
-1.04981e-05
-9.89807e-06
-9.38755e-06
-8.94737e-06
-8.55933e-06
-8.20876e-06
-7.88435e-06
-7.57784e-06
-7.28398e-06
-7.00112e-06
-6.73229e-06
-6.489e-06
-6.29243e-06
-6.18527e-06
-6.23017e-06
-6.52523e-06
-7.20341e-06
-8.418e-06
-1.01512e-05
-1.20714e-05
-1.38826e-05
-1.54092e-05
-1.65333e-05
-1.71764e-05
-1.7287e-05
-1.68374e-05
-1.58236e-05
-1.4266e-05
-1.22101e-05
-9.72316e-06
-6.89027e-06
-3.80951e-06
-5.87918e-07
2.65971e-06
5.80725e-06
8.70661e-06
1.11619e-05
1.28953e-05
1.34657e-05
1.23314e-05
9.17929e-06
-1.29854e-05
-1.24574e-05
-1.17518e-05
-1.10538e-05
-1.04056e-05
-9.8313e-06
-9.33015e-06
-8.89334e-06
-8.5057e-06
-8.15458e-06
-7.82959e-06
-7.52284e-06
-7.22931e-06
-6.94756e-06
-6.68082e-06
-6.44078e-06
-6.24859e-06
-6.14671e-06
-6.19697e-06
-6.49558e-06
-7.17356e-06
-8.38138e-06
-1.01005e-05
-1.20053e-05
-1.38033e-05
-1.53193e-05
-1.6435e-05
-1.70717e-05
-1.71786e-05
-1.67295e-05
-1.57229e-05
-1.41825e-05
-1.21571e-05
-9.71786e-06
-6.95457e-06
-3.97103e-06
-8.82162e-07
2.1864e-06
5.0941e-06
7.67589e-06
9.72434e-06
1.09745e-05
1.10994e-05
9.80051e-06
7.0672e-06
-1.24722e-05
-1.20782e-05
-1.1515e-05
-1.09061e-05
-1.03113e-05
-9.76408e-06
-9.27282e-06
-8.83947e-06
-8.45153e-06
-8.09903e-06
-7.77277e-06
-7.46533e-06
-7.17201e-06
-6.89154e-06
-6.6274e-06
-6.3914e-06
-6.20464e-06
-6.10926e-06
-6.16605e-06
-6.46908e-06
-7.14707e-06
-8.3471e-06
-1.00495e-05
-1.19353e-05
-1.37164e-05
-1.5218e-05
-1.6322e-05
-1.69499e-05
-1.70519e-05
-1.6604e-05
-1.56079e-05
-1.40912e-05
-1.21069e-05
-9.73095e-06
-7.05812e-06
-4.19842e-06
-1.2743e-06
1.57974e-06
4.21437e-06
6.46057e-06
8.12435e-06
8.99255e-06
8.86123e-06
7.62096e-06
5.39624e-06
-1.20176e-05
-1.17153e-05
-1.12621e-05
-1.07408e-05
-1.02082e-05
-9.69092e-06
-9.21491e-06
-8.78594e-06
-8.39755e-06
-8.04323e-06
-7.71514e-06
-7.40661e-06
-7.11338e-06
-6.83447e-06
-6.57359e-06
-6.34268e-06
-6.1627e-06
-6.07538e-06
-6.14031e-06
-6.44878e-06
-7.12696e-06
-8.31779e-06
-9.99959e-06
-1.18617e-05
-1.36211e-05
-1.51037e-05
-1.61921e-05
-1.68087e-05
-1.69052e-05
-1.64605e-05
-1.54802e-05
-1.39963e-05
-1.20668e-05
-9.77245e-06
-7.21339e-06
-4.50513e-06
-1.77574e-06
8.35719e-07
3.17949e-06
5.09651e-06
6.42413e-06
7.01365e-06
6.76425e-06
5.68011e-06
3.93073e-06
-1.15836e-05
-1.13494e-05
-1.09903e-05
-1.05511e-05
-1.00764e-05
-9.60346e-06
-9.14979e-06
-8.72879e-06
-8.34263e-06
-7.9876e-06
-7.65796e-06
-7.34842e-06
-7.05547e-06
-6.77862e-06
-6.52185e-06
-6.29732e-06
-6.12575e-06
-6.04829e-06
-6.12321e-06
-6.43832e-06
-7.1169e-06
-8.29679e-06
-9.95334e-06
-1.17858e-05
-1.35172e-05
-1.49749e-05
-1.6043e-05
-1.6645e-05
-1.67353e-05
-1.62964e-05
-1.53383e-05
-1.38982e-05
-1.20392e-05
-9.84694e-06
-7.42607e-06
-4.89593e-06
-2.38679e-06
-3.63679e-08
2.0141e-06
3.62654e-06
4.67767e-06
5.07843e-06
4.7998e-06
3.89918e-06
2.53638e-06
-1.11484e-05
-1.09668e-05
-1.06847e-05
-1.03236e-05
-9.91437e-06
-9.48807e-06
-9.06514e-06
-8.66099e-06
-8.28261e-06
-7.93022e-06
-7.60106e-06
-7.2918e-06
-7.0002e-06
-6.72653e-06
-6.47525e-06
-6.25881e-06
-6.09763e-06
-6.03223e-06
-6.11927e-06
-6.44237e-06
-7.12147e-06
-8.28828e-06
-9.91372e-06
-1.17091e-05
-1.3405e-05
-1.48304e-05
-1.58719e-05
-1.64557e-05
-1.65392e-05
-1.61094e-05
-1.51815e-05
-1.37982e-05
-1.20273e-05
-9.95878e-06
-7.70029e-06
-5.37209e-06
-3.10208e-06
-1.02029e-06
7.48005e-07
2.09159e-06
2.92577e-06
3.20705e-06
2.94808e-06
2.22217e-06
1.16129e-06
-1.07013e-05
-1.05614e-05
-1.03419e-05
-1.00512e-05
-9.7078e-06
-9.33438e-06
-8.95088e-06
-8.5729e-06
-8.21005e-06
-7.86625e-06
-7.54196e-06
-7.23624e-06
-6.94857e-06
-6.68038e-06
-6.43689e-06
-6.23103e-06
-6.08287e-06
-6.03216e-06
-6.13384e-06
-6.46638e-06
-7.14599e-06
-8.29697e-06
-9.88398e-06
-1.16333e-05
-1.32845e-05
-1.46686e-05
-1.56764e-05
-1.62376e-05
-1.63142e-05
-1.5898e-05
-1.501e-05
-1.36981e-05
-1.20344e-05
-1.01117e-05
-8.03803e-06
-5.93083e-06
-3.91083e-06
-2.09488e-06
-5.87878e-07
5.26506e-07
1.19556e-06
1.40612e-06
1.18839e-06
6.15645e-07
-2.10366e-07
-1.02358e-05
-1.01304e-05
-9.96209e-06
-9.7327e-06
-9.45176e-06
-9.13449e-06
-8.79717e-06
-8.45407e-06
-8.11573e-06
-7.7886e-06
-7.47594e-06
-7.17927e-06
-6.9001e-06
-6.6414e-06
-6.40934e-06
-6.21764e-06
-6.08596e-06
-6.05324e-06
-6.17247e-06
-6.51596e-06
-7.19574e-06
-8.32744e-06
-9.86687e-06
-1.15595e-05
-1.31551e-05
-1.44875e-05
-1.54533e-05
-1.59878e-05
-1.60578e-05
-1.56613e-05
-1.48245e-05
-1.36002e-05
-1.20635e-05
-1.03076e-05
-8.43765e-06
-6.56442e-06
-4.79711e-06
-3.23586e-06
-1.96407e-06
-1.04118e-06
-4.96792e-07
-3.27615e-07
-4.98757e-07
-9.40868e-07
-1.58326e-06
-9.74738e-06
-9.67194e-06
-9.54647e-06
-9.36997e-06
-9.14645e-06
-8.88511e-06
-8.59785e-06
-8.29653e-06
-7.99127e-06
-7.68967e-06
-7.39697e-06
-7.11679e-06
-6.85268e-06
-6.60926e-06
-6.3939e-06
-6.22124e-06
-6.11053e-06
-6.09977e-06
-6.23989e-06
-6.59579e-06
-7.27501e-06
-8.3829e-06
-9.86348e-06
-1.14872e-05
-1.30152e-05
-1.42841e-05
-1.51994e-05
-1.57033e-05
-1.57685e-05
-1.5399e-05
-1.46265e-05
-1.35069e-05
-1.21164e-05
-1.05456e-05
-8.89341e-06
-7.26036e-06
-5.74113e-06
-4.41792e-06
-3.35429e-06
-2.59042e-06
-2.14039e-06
-1.99256e-06
-2.11251e-06
-2.4562e-06
-2.95695e-06
-9.23318e-06
-9.18493e-06
-9.09656e-06
-8.96612e-06
-8.79457e-06
-8.58692e-06
-8.35109e-06
-8.0962e-06
-7.83105e-06
-7.56327e-06
-7.29919e-06
-7.04394e-06
-6.8028e-06
-6.58198e-06
-6.39001e-06
-6.24252e-06
-6.1582e-06
-6.174e-06
-6.3385e-06
-6.7081e-06
-7.38569e-06
-8.46361e-06
-9.87167e-06
-1.14136e-05
-1.28614e-05
-1.40545e-05
-1.49113e-05
-1.53818e-05
-1.54456e-05
-1.51123e-05
-1.4418e-05
-1.342e-05
-1.21928e-05
-1.08213e-05
-9.39516e-06
-8.00192e-06
-6.72056e-06
-5.61617e-06
-4.73572e-06
-4.10571e-06
-3.73174e-06
-3.60046e-06
-3.68319e-06
-3.94154e-06
-4.33052e-06
-8.69283e-06
-8.67008e-06
-8.61486e-06
-8.52518e-06
-8.40058e-06
-8.24341e-06
-8.05858e-06
-7.85263e-06
-7.63267e-06
-7.40565e-06
-7.17818e-06
-6.95626e-06
-6.74648e-06
-6.55626e-06
-6.39519e-06
-6.27968e-06
-6.22775e-06
-6.27504e-06
-6.46696e-06
-6.85088e-06
-7.52489e-06
-8.56532e-06
-9.88473e-06
-1.13334e-05
-1.26887e-05
-1.37943e-05
-1.45859e-05
-1.50225e-05
-1.509e-05
-1.48033e-05
-1.42012e-05
-1.33402e-05
-1.22898e-05
-1.11265e-05
-9.9285e-06
-8.76894e-06
-7.71154e-06
-6.80642e-06
-6.08776e-06
-5.57298e-06
-5.26349e-06
-5.14699e-06
-5.20058e-06
-5.39501e-06
-5.69764e-06
-8.12855e-06
-8.13015e-06
-8.10531e-06
-8.05237e-06
-7.97035e-06
-7.86017e-06
-7.7247e-06
-7.56843e-06
-7.39677e-06
-7.21565e-06
-7.03145e-06
-6.8504e-06
-6.6799e-06
-6.52806e-06
-6.40531e-06
-6.32831e-06
-6.31436e-06
-6.39829e-06
-6.61917e-06
-7.01715e-06
-7.68523e-06
-8.67062e-06
-9.89964e-06
-1.12432e-05
-1.24864e-05
-1.34981e-05
-1.42219e-05
-1.46269e-05
-1.47052e-05
-1.4476e-05
-1.39788e-05
-1.32666e-05
-1.24014e-05
-1.14493e-05
-1.04753e-05
-9.53869e-06
-8.6893e-06
-7.96505e-06
-7.39076e-06
-6.97822e-06
-6.72735e-06
-6.62827e-06
-6.66381e-06
-6.81254e-06
-7.05079e-06
-7.54464e-06
-7.56976e-06
-7.57328e-06
-7.55394e-06
-7.51085e-06
-7.44422e-06
-7.35574e-06
-7.24847e-06
-7.12642e-06
-6.99436e-06
-6.85822e-06
-6.72405e-06
-6.5995e-06
-6.49282e-06
-6.41514e-06
-6.38197e-06
-6.40962e-06
-6.53472e-06
-6.78279e-06
-7.196e-06
-7.85077e-06
-8.76637e-06
-9.90952e-06
-1.11281e-05
-1.22467e-05
-1.31599e-05
-1.38193e-05
-1.41988e-05
-1.42971e-05
-1.41359e-05
-1.37533e-05
-1.31968e-05
-1.25191e-05
-1.17746e-05
-1.10152e-05
-1.02874e-05
-9.62924e-06
-9.06922e-06
-8.62559e-06
-8.30687e-06
-8.11291e-06
-8.03667e-06
-8.066e-06
-8.18576e-06
-8.37908e-06
-6.94668e-06
-6.99476e-06
-7.02514e-06
-7.03701e-06
-7.02972e-06
-7.00335e-06
-6.95895e-06
-6.89867e-06
-6.82569e-06
-6.74416e-06
-6.65883e-06
-6.5754e-06
-6.50138e-06
-6.44474e-06
-6.41743e-06
-6.43286e-06
-6.50984e-06
-6.66906e-06
-6.94177e-06
-7.37157e-06
-7.99787e-06
-8.84897e-06
-9.89378e-06
-1.0967e-05
-1.19558e-05
-1.27796e-05
-1.3381e-05
-1.3744e-05
-1.38724e-05
-1.37883e-05
-1.35261e-05
-1.31264e-05
-1.26321e-05
-1.20858e-05
-1.15274e-05
-1.09921e-05
-1.05085e-05
-1.00981e-05
-9.77447e-06
-9.54441e-06
-9.40837e-06
-9.36193e-06
-9.39706e-06
-9.5035e-06
-9.66958e-06
-6.34214e-06
-6.41243e-06
-6.4683e-06
-6.50924e-06
-6.53495e-06
-6.54564e-06
-6.54221e-06
-6.5264e-06
-6.5007e-06
-6.46849e-06
-6.43398e-06
-6.40239e-06
-6.38054e-06
-6.37607e-06
-6.39992e-06
-6.46408e-06
-6.58427e-06
-6.78173e-06
-7.0794e-06
-7.51402e-06
-8.11424e-06
-8.89426e-06
-9.82109e-06
-1.07582e-05
-1.16276e-05
-1.23604e-05
-1.29112e-05
-1.32683e-05
-1.34371e-05
-1.34368e-05
-1.32965e-05
-1.30493e-05
-1.27288e-05
-1.23668e-05
-1.1993e-05
-1.16331e-05
-1.13083e-05
-1.10348e-05
-1.08231e-05
-1.06789e-05
-1.06033e-05
-1.05943e-05
-1.06469e-05
-1.07546e-05
-1.09097e-05
-5.74204e-06
-5.8327e-06
-5.91186e-06
-5.97919e-06
-6.03465e-06
-6.0787e-06
-6.11234e-06
-6.13712e-06
-6.15514e-06
-6.16926e-06
-6.1832e-06
-6.20161e-06
-6.23048e-06
-6.27677e-06
-6.34966e-06
-6.46019e-06
-6.62111e-06
-6.85216e-06
-7.16902e-06
-7.59684e-06
-8.1675e-06
-8.86974e-06
-9.68034e-06
-1.0495e-05
-1.12549e-05
-1.19046e-05
-1.2415e-05
-1.2777e-05
-1.2994e-05
-1.30808e-05
-1.30599e-05
-1.29567e-05
-1.27965e-05
-1.26026e-05
-1.2396e-05
-1.21952e-05
-1.20153e-05
-1.18682e-05
-1.17627e-05
-1.17034e-05
-1.16923e-05
-1.17287e-05
-1.18102e-05
-1.1933e-05
-1.20922e-05
-5.15734e-06
-5.26539e-06
-5.3645e-06
-5.45449e-06
-5.53554e-06
-5.60839e-06
-5.6742e-06
-5.73446e-06
-5.79108e-06
-5.84653e-06
-5.90406e-06
-5.9677e-06
-6.0426e-06
-6.13482e-06
-6.25198e-06
-6.40331e-06
-6.59929e-06
-6.85389e-06
-7.18053e-06
-7.59727e-06
-8.11988e-06
-8.75003e-06
-9.45699e-06
-1.01724e-05
-1.08338e-05
-1.14143e-05
-1.1896e-05
-1.2271e-05
-1.25402e-05
-1.2713e-05
-1.28048e-05
-1.28342e-05
-1.2819e-05
-1.27758e-05
-1.27191e-05
-1.26617e-05
-1.26146e-05
-1.25863e-05
-1.25833e-05
-1.261e-05
-1.26685e-05
-1.27592e-05
-1.28814e-05
-1.30332e-05
-1.32118e-05
-4.59935e-06
-4.7216e-06
-4.83666e-06
-4.94473e-06
-5.04638e-06
-5.14263e-06
-5.23474e-06
-5.32418e-06
-5.41272e-06
-5.50255e-06
-5.59647e-06
-5.69795e-06
-5.81122e-06
-5.94134e-06
-6.09437e-06
-6.27773e-06
-6.49945e-06
-6.76949e-06
-7.09795e-06
-7.4938e-06
-7.97114e-06
-8.54146e-06
-9.16319e-06
-9.78455e-06
-1.03666e-05
-1.08945e-05
-1.13574e-05
-1.17491e-05
-1.20689e-05
-1.23214e-05
-1.25156e-05
-1.26633e-05
-1.27768e-05
-1.28674e-05
-1.29448e-05
-1.30175e-05
-1.30929e-05
-1.3177e-05
-1.32748e-05
-1.33897e-05
-1.35238e-05
-1.36783e-05
-1.38533e-05
-1.40481e-05
-1.42613e-05
-4.09987e-06
-4.23064e-06
-4.35602e-06
-4.47628e-06
-4.59223e-06
-4.70502e-06
-4.81595e-06
-4.92644e-06
-5.03812e-06
-5.15299e-06
-5.27344e-06
-5.40241e-06
-5.54336e-06
-5.70032e-06
-5.87804e-06
-6.08202e-06
-6.31827e-06
-6.59481e-06
-6.92024e-06
-7.30124e-06
-7.7508e-06
-8.26006e-06
-8.82047e-06
-9.37428e-06
-9.90259e-06
-1.03995e-05
-1.08571e-05
-1.12697e-05
-1.16353e-05
-1.19553e-05
-1.22348e-05
-1.24808e-05
-1.2701e-05
-1.29026e-05
-1.30917e-05
-1.32739e-05
-1.3454e-05
-1.36361e-05
-1.38238e-05
-1.40198e-05
-1.42262e-05
-1.44441e-05
-1.46743e-05
-1.49167e-05
-1.51709e-05
-3.7129e-06
-3.84622e-06
-3.97572e-06
-4.10182e-06
-4.22529e-06
-4.34727e-06
-4.46904e-06
-4.59195e-06
-4.71756e-06
-4.84763e-06
-4.98426e-06
-5.12994e-06
-5.2875e-06
-5.46027e-06
-5.65208e-06
-5.86717e-06
-6.1107e-06
-6.38773e-06
-6.70307e-06
-7.06589e-06
-7.48402e-06
-7.97695e-06
-8.49796e-06
-9.01294e-06
-9.51254e-06
-9.99375e-06
-1.04511e-05
-1.08799e-05
-1.12775e-05
-1.16445e-05
-1.19836e-05
-1.22989e-05
-1.25949e-05
-1.28763e-05
-1.31469e-05
-1.34104e-05
-1.36699e-05
-1.39284e-05
-1.41884e-05
-1.44519e-05
-1.47205e-05
-1.49953e-05
-1.5277e-05
-1.55659e-05
-1.58619e-05
-3.41308e-06
-3.54875e-06
-3.68128e-06
-3.81146e-06
-3.9402e-06
-4.06864e-06
-4.19803e-06
-4.32968e-06
-4.46505e-06
-4.60577e-06
-4.75374e-06
-4.91112e-06
-5.08037e-06
-5.26433e-06
-5.46618e-06
-5.68949e-06
-5.93856e-06
-6.21803e-06
-6.53342e-06
-6.89311e-06
-7.29705e-06
-7.75647e-06
-8.24666e-06
-8.73793e-06
-9.22086e-06
-9.69261e-06
-1.01491e-05
-1.05868e-05
-1.1004e-05
-1.14008e-05
-1.17788e-05
-1.21402e-05
-1.2488e-05
-1.28247e-05
-1.31529e-05
-1.3475e-05
-1.3793e-05
-1.41089e-05
-1.44243e-05
-1.47408e-05
-1.50594e-05
-1.5381e-05
-1.5706e-05
-1.60348e-05
-1.63675e-05
-3.1886e-06
-3.32574e-06
-3.46052e-06
-3.59382e-06
-3.72669e-06
-3.86022e-06
-3.99563e-06
-4.13417e-06
-4.27721e-06
-4.42628e-06
-4.58311e-06
-4.74962e-06
-4.92801e-06
-5.12074e-06
-5.33055e-06
-5.56067e-06
-5.81454e-06
-6.09601e-06
-6.40991e-06
-6.75899e-06
-7.15347e-06
-7.59287e-06
-8.06358e-06
-8.53891e-06
-9.00955e-06
-9.47317e-06
-9.92694e-06
-1.03687e-05
-1.07973e-05
-1.12129e-05
-1.16163e-05
-1.20088e-05
-1.23919e-05
-1.27671e-05
-1.31359e-05
-1.35e-05
-1.38605e-05
-1.42187e-05
-1.45758e-05
-1.49326e-05
-1.52898e-05
-1.56481e-05
-1.60077e-05
-1.63687e-05
-1.67312e-05
-3.01885e-06
-3.15799e-06
-3.2955e-06
-3.4323e-06
-3.56944e-06
-3.70801e-06
-3.84917e-06
-3.99411e-06
-4.14413e-06
-4.30065e-06
-4.46528e-06
-4.63976e-06
-4.82606e-06
-5.02632e-06
-5.243e-06
-5.47875e-06
-5.73651e-06
-6.01969e-06
-6.33196e-06
-6.67733e-06
-7.06073e-06
-7.48639e-06
-7.94183e-06
-8.40334e-06
-8.86261e-06
-9.31789e-06
-9.76738e-06
-1.02098e-05
-1.06445e-05
-1.10714e-05
-1.14908e-05
-1.19034e-05
-1.23099e-05
-1.27111e-05
-1.3108e-05
-1.35015e-05
-1.38923e-05
-1.42811e-05
-1.46687e-05
-1.50555e-05
-1.54419e-05
-1.58282e-05
-1.62145e-05
-1.66009e-05
-1.69871e-05
-2.89265e-06
-3.03482e-06
-3.1759e-06
-3.31685e-06
-3.45872e-06
-3.60258e-06
-3.74953e-06
-3.90072e-06
-4.05738e-06
-4.22087e-06
-4.39264e-06
-4.57429e-06
-4.76759e-06
-4.97443e-06
-5.19695e-06
-5.43747e-06
-5.69861e-06
-5.98317e-06
-6.29429e-06
-6.63555e-06
-7.01125e-06
-7.42542e-06
-7.86686e-06
-8.31525e-06
-8.76348e-06
-9.2103e-06
-9.65452e-06
-1.00953e-05
-1.05322e-05
-1.09649e-05
-1.13936e-05
-1.18185e-05
-1.22399e-05
-1.26583e-05
-1.30741e-05
-1.34878e-05
-1.38998e-05
-1.43105e-05
-1.47202e-05
-1.5129e-05
-1.55372e-05
-1.59447e-05
-1.63514e-05
-1.67573e-05
-1.71619e-05
-2.80152e-06
-2.94749e-06
-3.09276e-06
-3.2383e-06
-3.38518e-06
-3.53442e-06
-3.68709e-06
-3.8443e-06
-4.00723e-06
-4.17714e-06
-4.3554e-06
-4.54345e-06
-4.74289e-06
-4.95541e-06
-5.18292e-06
-5.42739e-06
-5.69116e-06
-5.97662e-06
-6.28657e-06
-6.62418e-06
-6.99295e-06
-7.39635e-06
-7.82471e-06
-8.26073e-06
-8.69845e-06
-9.13686e-06
-9.57509e-06
-1.00125e-05
-1.04488e-05
-1.08836e-05
-1.1317e-05
-1.17488e-05
-1.21794e-05
-1.26087e-05
-1.3037e-05
-1.34644e-05
-1.38912e-05
-1.43173e-05
-1.47428e-05
-1.51678e-05
-1.5592e-05
-1.60153e-05
-1.64375e-05
-1.68583e-05
-1.72772e-05
-2.73756e-06
-2.88775e-06
-3.03749e-06
-3.18779e-06
-3.33969e-06
-3.49419e-06
-3.65233e-06
-3.81518e-06
-3.98386e-06
-4.15959e-06
-4.34362e-06
-4.53729e-06
-4.74203e-06
-4.95938e-06
-5.19099e-06
-5.43849e-06
-5.7044e-06
-5.99026e-06
-6.29883e-06
-6.63267e-06
-6.99477e-06
-7.38811e-06
-7.80434e-06
-8.22884e-06
-8.65657e-06
-9.08666e-06
-9.51841e-06
-9.95138e-06
-1.03852e-05
-1.08198e-05
-1.12548e-05
-1.16902e-05
-1.2126e-05
-1.25622e-05
-1.29986e-05
-1.34352e-05
-1.38721e-05
-1.43091e-05
-1.4746e-05
-1.51826e-05
-1.56187e-05
-1.60539e-05
-1.64878e-05
-1.692e-05
-1.735e-05
-2.69387e-06
-2.84839e-06
-3.0026e-06
-3.15755e-06
-3.31424e-06
-3.47367e-06
-3.63684e-06
-3.80481e-06
-3.97865e-06
-4.15951e-06
-4.34856e-06
-4.54704e-06
-4.75627e-06
-4.97763e-06
-5.21259e-06
-5.46297e-06
-5.72978e-06
-6.01562e-06
-6.32249e-06
-6.65249e-06
-7.00824e-06
-7.39224e-06
-7.79726e-06
-8.21108e-06
-8.62938e-06
-9.05139e-06
-9.47656e-06
-9.90455e-06
-1.03351e-05
-1.07679e-05
-1.12029e-05
-1.16397e-05
-1.20783e-05
-1.25185e-05
-1.29601e-05
-1.34029e-05
-1.38468e-05
-1.42914e-05
-1.47366e-05
-1.51818e-05
-1.56267e-05
-1.60709e-05
-1.65139e-05
-1.6955e-05
-1.73938e-05
-2.6647e-06
-2.82339e-06
-2.98186e-06
-3.14114e-06
-3.30223e-06
-3.46611e-06
-3.63378e-06
-3.80626e-06
-3.9846e-06
-4.16988e-06
-4.36321e-06
-4.56575e-06
-4.77869e-06
-5.0033e-06
-5.24089e-06
-5.49304e-06
-5.76081e-06
-6.04628e-06
-6.35125e-06
-6.67748e-06
-7.02726e-06
-7.4026e-06
-7.79735e-06
-8.20135e-06
-8.6109e-06
-9.02529e-06
-9.44409e-06
-9.86706e-06
-1.02939e-05
-1.07244e-05
-1.11582e-05
-1.15952e-05
-1.20351e-05
-1.24777e-05
-1.29226e-05
-1.33696e-05
-1.38184e-05
-1.42685e-05
-1.47197e-05
-1.51714e-05
-1.56232e-05
-1.60744e-05
-1.65245e-05
-1.69728e-05
-1.74187e-05
-2.64549e-06
-2.80803e-06
-2.97036e-06
-3.13354e-06
-3.29854e-06
-3.46635e-06
-3.63794e-06
-3.81432e-06
-3.99651e-06
-4.18555e-06
-4.38249e-06
-4.5884e-06
-4.8044e-06
-5.03163e-06
-5.27143e-06
-5.52493e-06
-5.7931e-06
-6.07795e-06
-6.38095e-06
-6.70357e-06
-7.04778e-06
-7.41519e-06
-7.80061e-06
-8.1957e-06
-8.59725e-06
-9.00463e-06
-9.41751e-06
-9.83565e-06
-1.02588e-05
-1.06867e-05
-1.1119e-05
-1.15554e-05
-1.19957e-05
-1.24396e-05
-1.28867e-05
-1.33366e-05
-1.3789e-05
-1.42433e-05
-1.46991e-05
-1.51559e-05
-1.56131e-05
-1.60699e-05
-1.65259e-05
-1.69801e-05
-1.7432e-05
-2.63281e-06
-2.79879e-06
-2.96455e-06
-3.13115e-06
-3.29956e-06
-3.47075e-06
-3.64571e-06
-3.82543e-06
-4.01089e-06
-4.2031e-06
-4.40306e-06
-4.61177e-06
-4.83027e-06
-5.05958e-06
-5.30107e-06
-5.55579e-06
-5.82397e-06
-6.10806e-06
-6.40913e-06
-6.72835e-06
-7.06745e-06
-7.42766e-06
-7.8047e-06
-8.19178e-06
-8.58611e-06
-8.98714e-06
-9.39462e-06
-9.80831e-06
-1.02279e-05
-1.06532e-05
-1.10838e-05
-1.15194e-05
-1.19598e-05
-1.24044e-05
-1.2853e-05
-1.3305e-05
-1.37601e-05
-1.42177e-05
-1.46773e-05
-1.51382e-05
-1.55998e-05
-1.60614e-05
-1.65222e-05
-1.69816e-05
-1.74386e-05
-2.62427e-06
-2.79326e-06
-2.96201e-06
-3.13155e-06
-3.30288e-06
-3.47697e-06
-3.6548e-06
-3.83734e-06
-4.02557e-06
-4.22045e-06
-4.42293e-06
-4.63397e-06
-4.85453e-06
-5.0855e-06
-5.32866e-06
-5.5839e-06
-5.85198e-06
-6.13532e-06
-6.43454e-06
-6.75063e-06
-7.08508e-06
-7.43881e-06
-7.80836e-06
-8.18827e-06
-8.57616e-06
-8.97153e-06
-9.37416e-06
-9.78382e-06
-1.02002e-05
-1.06231e-05
-1.1052e-05
-1.14867e-05
-1.19269e-05
-1.2372e-05
-1.28216e-05
-1.32754e-05
-1.37327e-05
-1.4193e-05
-1.46556e-05
-1.512e-05
-1.55854e-05
-1.60511e-05
-1.65162e-05
-1.698e-05
-1.74415e-05
-2.61831e-06
-2.78989e-06
-2.96119e-06
-3.13326e-06
-3.30707e-06
-3.48362e-06
-3.66388e-06
-3.84881e-06
-4.03937e-06
-4.23649e-06
-4.4411e-06
-4.65409e-06
-4.87637e-06
-5.10888e-06
-5.35322e-06
-5.60855e-06
-5.87671e-06
-6.15926e-06
-6.45675e-06
-6.76998e-06
-7.10023e-06
-7.44816e-06
-7.81103e-06
-8.18458e-06
-8.56674e-06
-8.95708e-06
-9.35542e-06
-9.76148e-06
-1.0175e-05
-1.05956e-05
-1.10231e-05
-1.14569e-05
-1.18968e-05
-1.23423e-05
-1.27928e-05
-1.3248e-05
-1.37071e-05
-1.41697e-05
-1.46351e-05
-1.51025e-05
-1.55712e-05
-1.60405e-05
-1.65094e-05
-1.69771e-05
-1.74427e-05
-2.61393e-06
-2.78773e-06
-2.96121e-06
-3.13541e-06
-3.31133e-06
-3.48996e-06
-3.67228e-06
-3.85923e-06
-4.05176e-06
-4.25077e-06
-4.45717e-06
-4.67181e-06
-4.89555e-06
-5.12949e-06
-5.37433e-06
-5.62996e-06
-5.89816e-06
-6.17987e-06
-6.47578e-06
-6.78642e-06
-7.1129e-06
-7.45565e-06
-7.81258e-06
-8.18048e-06
-8.55757e-06
-8.94348e-06
-9.33801e-06
-9.7409e-06
-1.01519e-05
-1.05706e-05
-1.09966e-05
-1.14297e-05
-1.18694e-05
-1.23151e-05
-1.27664e-05
-1.32228e-05
-1.36836e-05
-1.41482e-05
-1.4616e-05
-1.50861e-05
-1.55578e-05
-1.60303e-05
-1.65026e-05
-1.69739e-05
-1.74432e-05
-2.61056e-06
-2.78624e-06
-2.96156e-06
-3.13757e-06
-3.31527e-06
-3.49566e-06
-3.67971e-06
-3.86837e-06
-4.06257e-06
-4.26318e-06
-4.47109e-06
-4.68712e-06
-4.91211e-06
-5.14714e-06
-5.39246e-06
-5.64837e-06
-5.91649e-06
-6.19744e-06
-6.49186e-06
-6.80017e-06
-7.12328e-06
-7.46143e-06
-7.8131e-06
-8.17599e-06
-8.5486e-06
-8.9306e-06
-9.32179e-06
-9.7219e-06
-1.01306e-05
-1.05476e-05
-1.09725e-05
-1.14049e-05
-1.18444e-05
-1.22904e-05
-1.27424e-05
-1.31999e-05
-1.36622e-05
-1.41287e-05
-1.45986e-05
-1.50711e-05
-1.55455e-05
-1.60209e-05
-1.64963e-05
-1.69708e-05
-1.74434e-05
-2.60788e-06
-2.78514e-06
-2.96201e-06
-3.13953e-06
-3.31873e-06
-3.5006e-06
-3.68612e-06
-3.87622e-06
-4.07182e-06
-4.27379e-06
-4.48298e-06
-4.70019e-06
-4.92621e-06
-5.16206e-06
-5.40791e-06
-5.66402e-06
-5.93201e-06
-6.21226e-06
-6.50532e-06
-6.81155e-06
-7.13167e-06
-7.46573e-06
-7.81274e-06
-8.17122e-06
-8.53991e-06
-8.91849e-06
-9.30676e-06
-9.70443e-06
-1.01112e-05
-1.05267e-05
-1.09506e-05
-1.13825e-05
-1.18218e-05
-1.2268e-05
-1.27207e-05
-1.31792e-05
-1.36429e-05
-1.4111e-05
-1.45828e-05
-1.50576e-05
-1.55344e-05
-1.60124e-05
-1.64906e-05
-1.6968e-05
-1.74436e-05
-2.60564e-06
-2.78426e-06
-2.96244e-06