/*--------------------------------*- C++ -*----------------------------------*\
| =========                 |                                                 |
| \\      /  F ield         | OpenFOAM: The Open Source CFD Toolbox           |
|  \\    /   O peration     | Version:  2312                                  |
|   \\  /    A nd           | Website:  www.openfoam.com                      |
|    \\/     M anipulation  |                                                 |
\*---------------------------------------------------------------------------*/
FoamFile
{
    version     2.0;
    format      ascii;
    arch        "LSB;label=32;scalar=64";
    class       volScalarField;
    location    "32.25";
    object      p;
}
// * * * * * * * * * * * * * * * * * * * * * * * * * * * * * * * * * * * * * //

dimensions      [0 2 -2 0 0 0 0];

internalField   nonuniform List<scalar> 
4800
(
-1.11543e-12
-1.81688e-06
-3.39068e-06
-4.76365e-06
-5.96372e-06
-7.01615e-06
-7.94033e-06
-8.76058e-06
-9.49318e-06
-1.01473e-05
-1.07356e-05
-1.12639e-05
-1.17261e-05
-1.23621e-05
-1.4192e-05
1.76836e-08
-1.79387e-06
-3.36347e-06
-4.73344e-06
-5.93204e-06
-6.98502e-06
-7.91123e-06
-8.73637e-06
-9.4763e-06
-1.01419e-05
-1.07512e-05
-1.13251e-05
-1.18809e-05
-1.25291e-05
-1.35349e-05
3.71957e-08
-1.76862e-06
-3.33389e-06
-4.70101e-06
-5.89819e-06
-6.95122e-06
-7.87904e-06
-8.70604e-06
-9.45139e-06
-1.01255e-05
-1.07471e-05
-1.13379e-05
-1.19096e-05
-1.24697e-05
-1.29932e-05
5.8334e-08
-1.74095e-06
-3.3012e-06
-4.66482e-06
-5.8599e-06
-6.91193e-06
-7.84118e-06
-8.66717e-06
-9.41382e-06
-1.00899e-05
-1.07092e-05
-1.12844e-05
-1.18092e-05
-1.22494e-05
-1.25286e-05
8.29408e-08
-1.70855e-06
-3.26262e-06
-4.62169e-06
-5.81351e-06
-6.86309e-06
-7.79155e-06
-8.61527e-06
-9.3567e-06
-1.00256e-05
-1.06277e-05
-1.11644e-05
-1.16172e-05
-1.19445e-05
-1.20866e-05
1.12688e-07
-1.66949e-06
-3.21594e-06
-4.56905e-06
-5.75602e-06
-6.80105e-06
-7.72473e-06
-8.5433e-06
-9.27293e-06
-9.92341e-06
-1.04939e-05
-1.09774e-05
-1.13531e-05
-1.15895e-05
-1.16567e-05
1.49709e-07
-1.62146e-06
-3.15844e-06
-4.50371e-06
-5.68352e-06
-6.72098e-06
-7.63555e-06
-8.44233e-06
-9.1533e-06
-9.77439e-06
-1.03017e-05
-1.07257e-05
-1.10305e-05
-1.12007e-05
-1.12298e-05
1.97116e-07
-1.56104e-06
-3.0862e-06
-4.42107e-06
-5.59049e-06
-6.61625e-06
-7.51628e-06
-8.30382e-06
-8.98772e-06
-9.57065e-06
-1.00486e-05
-1.04143e-05
-1.06606e-05
-1.0786e-05
-1.07972e-05
2.58898e-07
-1.48376e-06
-2.99396e-06
-4.31503e-06
-5.46979e-06
-6.47857e-06
-7.35754e-06
-8.11823e-06
-8.76738e-06
-9.3067e-06
-9.73431e-06
-1.00485e-05
-1.02503e-05
-1.03473e-05
-1.03525e-05
3.39252e-07
-1.38455e-06
-2.87538e-06
-4.17835e-06
-5.31308e-06
-6.29862e-06
-7.1495e-06
-7.8763e-06
-8.48518e-06
-8.97943e-06
-9.36037e-06
-9.63236e-06
-9.80264e-06
-9.88373e-06
-9.88996e-06
4.41557e-07
-1.25846e-06
-2.72388e-06
-4.00332e-06
-5.11165e-06
-6.06731e-06
-6.88339e-06
-7.57089e-06
-8.13706e-06
-8.58758e-06
-8.92889e-06
-9.16886e-06
-9.31873e-06
-9.39284e-06
-9.40501e-06
5.66973e-07
-1.10018e-06
-2.53484e-06
-3.78338e-06
-4.85772e-06
-5.77733e-06
-6.55311e-06
-7.19837e-06
-7.72257e-06
-8.13431e-06
-8.44322e-06
-8.66067e-06
-8.79917e-06
-8.87287e-06
-8.89438e-06
7.16706e-07
-9.09989e-07
-2.30886e-06
-3.51545e-06
-4.54742e-06
-5.42483e-06
-6.15617e-06
-6.75928e-06
-7.24491e-06
-7.6239e-06
-7.90839e-06
-8.11132e-06
-8.24537e-06
-8.32367e-06
-8.35705e-06
8.78696e-07
-6.99064e-07
-2.04166e-06
-3.19914e-06
-4.18688e-06
-5.01156e-06
-5.69441e-06
-6.25774e-06
-6.71053e-06
-7.0637e-06
-7.33088e-06
-7.52584e-06
-7.66077e-06
-7.74713e-06
-7.79423e-06
1.04666e-06
-4.63146e-07
-1.75082e-06
-2.84776e-06
-3.77706e-06
-4.54264e-06
-5.17771e-06
-5.70251e-06
-6.12791e-06
-6.46255e-06
-6.71891e-06
-6.91093e-06
-7.05038e-06
-7.14726e-06
-7.20938e-06
1.20153e-06
-2.20561e-07
-1.43161e-06
-2.46527e-06
-3.33293e-06
-4.04194e-06
-4.62435e-06
-5.10768e-06
-5.50775e-06
-5.82953e-06
-6.08082e-06
-6.27406e-06
-6.42066e-06
-6.52967e-06
-6.60769e-06
1.32686e-06
4.08903e-09
-1.1069e-06
-2.05746e-06
-2.86815e-06
-3.52527e-06
-4.05721e-06
-4.49912e-06
-4.87107e-06
-5.17998e-06
-5.42846e-06
-5.62538e-06
-5.78057e-06
-5.90218e-06
-5.9961e-06
1.39756e-06
1.94476e-07
-8.15478e-07
-1.66801e-06
-2.39272e-06
-2.999e-06
-3.49306e-06
-3.90173e-06
-4.24726e-06
-4.53921e-06
-4.78174e-06
-4.98109e-06
-5.14434e-06
-5.27778e-06
-5.38638e-06
1.39304e-06
3.22554e-07
-5.73744e-07
-1.32819e-06
-1.96652e-06
-2.50464e-06
-2.95434e-06
-3.33362e-06
-3.65699e-06
-3.93175e-06
-4.16415e-06
-4.36112e-06
-4.5286e-06
-4.67095e-06
-4.79158e-06
1.29483e-06
3.69486e-07
-4.0635e-07
-1.05892e-06
-1.61045e-06
-2.07929e-06
-2.47946e-06
-2.82255e-06
-3.11832e-06
-3.37379e-06
-3.5945e-06
-3.78594e-06
-3.95317e-06
-4.09972e-06
-4.2279e-06
1.11471e-06
3.28204e-07
-3.31351e-07
-8.88036e-07
-1.362e-06
-1.76712e-06
-2.11506e-06
-2.4169e-06
-2.68055e-06
-2.91119e-06
-3.11323e-06
-3.29113e-06
-3.45151e-06
-3.597e-06
-3.72738e-06
9.01269e-07
2.33188e-07
-3.31161e-07
-8.10909e-07
-1.22013e-06
-1.57096e-06
-1.87471e-06
-2.14112e-06
-2.37566e-06
-2.58547e-06
-2.77253e-06
-2.93398e-06
-3.08043e-06
-3.21761e-06
-3.34362e-06
7.30328e-07
1.51539e-07
-3.39798e-07
-7.58635e-07
-1.11744e-06
-1.42752e-06
-1.69842e-06
-1.93749e-06
-2.15006e-06
-2.34e-06
-2.50991e-06
-2.66404e-06
-2.80441e-06
-2.93243e-06
-3.05003e-06
6.09427e-07
9.80359e-08
-3.38077e-07
-7.12102e-07
-1.0351e-06
-1.31651e-06
-1.56388e-06
-1.78313e-06
-1.97891e-06
-2.15488e-06
-2.31418e-06
-2.45918e-06
-2.59167e-06
-2.71376e-06
-2.82757e-06
5.37725e-07
7.66382e-08
-3.1943e-07
-6.61888e-07
-9.59857e-07
-1.22106e-06
-1.45183e-06
-1.65736e-06
-1.84184e-06
-2.00856e-06
-2.16017e-06
-2.29885e-06
-2.42666e-06
-2.54539e-06
-2.65672e-06
5.07787e-07
8.34545e-08
-2.84136e-07
-6.04492e-07
-8.85185e-07
-1.13281e-06
-1.3529e-06
-1.54999e-06
-1.72772e-06
-1.88904e-06
-2.03643e-06
-2.17202e-06
-2.29772e-06
-2.41516e-06
-2.52591e-06
5.07837e-07
1.10167e-07
-2.37321e-07
-5.42532e-07
-8.11932e-07
-1.05122e-06
-1.26519e-06
-1.45777e-06
-1.63224e-06
-1.79132e-06
-1.93735e-06
-2.07233e-06
-2.19807e-06
-2.31612e-06
-2.42801e-06
5.25993e-07
1.47807e-07
-1.85536e-07
-4.80611e-07
-7.42974e-07
-9.77547e-07
-1.18851e-06
-1.37937e-06
-1.55309e-06
-1.71217e-06
-1.85882e-06
-1.99493e-06
-2.12223e-06
-2.24221e-06
-2.3564e-06
5.52867e-07
1.89196e-07
-1.34059e-07
-4.22349e-07
-6.8046e-07
-9.12681e-07
-1.1227e-06
-1.31364e-06
-1.48819e-06
-1.64868e-06
-1.79716e-06
-1.93544e-06
-2.06519e-06
-2.1879e-06
-2.30505e-06
5.8212e-07
2.29605e-07
-8.62298e-08
-3.69882e-07
-6.25494e-07
-8.56818e-07
-1.06711e-06
-1.25916e-06
-1.43542e-06
-1.59804e-06
-1.74897e-06
-1.88993e-06
-2.02257e-06
-2.14834e-06
-2.26871e-06
6.10016e-07
2.6639e-07
-4.37577e-08
-3.24108e-07
-5.78256e-07
-8.09489e-07
-1.02068e-06
-1.21432e-06
-1.39266e-06
-1.5577e-06
-1.71127e-06
-1.85506e-06
-1.99066e-06
-2.11949e-06
-2.24304e-06
6.34684e-07
2.98386e-07
-7.1983e-09
-2.8505e-07
-5.38302e-07
-7.69823e-07
-9.82141e-07
-1.17751e-06
-1.35798e-06
-1.52542e-06
-1.68159e-06
-1.8281e-06
-1.96649e-06
-2.09819e-06
-2.22468e-06
6.55438e-07
3.25359e-07
2.35997e-08
-2.52231e-07
-5.04869e-07
-7.36804e-07
-9.50265e-07
-1.14729e-06
-1.32976e-06
-1.49943e-06
-1.65797e-06
-1.80693e-06
-1.94785e-06
-2.08212e-06
-2.21121e-06
6.72276e-07
3.47597e-07
4.91518e-08
-2.24952e-07
-4.77099e-07
-7.09435e-07
-9.23933e-07
-1.12243e-06
-1.30668e-06
-1.47832e-06
-1.63894e-06
-1.79007e-06
-1.93318e-06
-2.06967e-06
-2.20101e-06
6.85547e-07
3.65628e-07
7.0119e-08
-2.02451e-07
-4.54146e-07
-6.86809e-07
-9.02191e-07
-1.10196e-06
-1.28773e-06
-1.46106e-06
-1.62347e-06
-1.77642e-06
-1.9214e-06
-2.05979e-06
-2.19303e-06
6.95743e-07
3.80055e-07
8.71738e-08
-1.84007e-07
-4.35257e-07
-6.68155e-07
-8.84258e-07
-1.08509e-06
-1.27214e-06
-1.44688e-06
-1.61078e-06
-1.76528e-06
-1.91182e-06
-2.05178e-06
-2.18661e-06
7.03381e-07
3.91456e-07
1.00927e-07
-1.68989e-07
-4.19793e-07
-6.52839e-07
-8.69513e-07
-1.0712e-06
-1.25931e-06
-1.43522e-06
-1.60037e-06
-1.75614e-06
-1.90396e-06
-2.04522e-06
-2.18137e-06
7.08984e-07
4.00418e-07
1.12002e-07
-1.56752e-07
-4.07105e-07
-6.40219e-07
-8.57331e-07
-1.05971e-06
-1.24868e-06
-1.42555e-06
-1.59172e-06
-1.74853e-06
-1.89742e-06
-2.03975e-06
-2.17698e-06
7.13123e-07
4.07725e-07
1.21316e-07
-1.46309e-07
-3.96184e-07
-6.29298e-07
-8.46752e-07
-1.04971e-06
-1.2394e-06
-1.41711e-06
-1.58415e-06
-1.74187e-06
-1.89167e-06
-2.03492e-06
-2.17308e-06
7.16189e-07
4.13987e-07
1.2956e-07
-1.36949e-07
-3.86367e-07
-6.19492e-07
-8.37282e-07
-1.04079e-06
-1.23117e-06
-1.40964e-06
-1.57748e-06
-1.73602e-06
-1.88663e-06
-2.03069e-06
-2.16967e-06
-1.57921e-05
-1.34197e-05
-1.19521e-05
-1.09719e-05
-1.01754e-05
-9.54482e-06
-9.02756e-06
-8.58761e-06
-8.20096e-06
-7.85017e-06
-7.52289e-06
-7.21089e-06
-6.90986e-06
-6.62017e-06
-6.34877e-06
-6.11216e-06
-5.93901e-06
-5.88071e-06
-6.00417e-06
-6.41004e-06
-7.22545e-06
-8.54766e-06
-1.02913e-05
-1.20931e-05
-1.36713e-05
-1.4889e-05
-1.56686e-05
-1.59696e-05
-1.57719e-05
-1.50694e-05
-1.38683e-05
-1.21896e-05
-1.00707e-05
-7.56516e-06
-4.74085e-06
-1.6758e-06
1.54571e-06
4.83628e-06
8.10556e-06
1.12572e-05
1.41751e-05
1.67189e-05
1.85827e-05
1.95641e-05
1.87767e-05
-1.403e-05
-1.28271e-05
-1.17248e-05
-1.08564e-05
-1.01095e-05
-9.49501e-06
-8.98257e-06
-8.5436e-06
-8.15659e-06
-7.80513e-06
-7.47723e-06
-7.1648e-06
-6.8637e-06
-6.57447e-06
-6.30433e-06
-6.06997e-06
-5.90018e-06
-5.84633e-06
-5.97452e-06
-6.38437e-06
-7.20194e-06
-8.52127e-06
-1.0257e-05
-1.20506e-05
-1.36221e-05
-1.4835e-05
-1.56116e-05
-1.59109e-05
-1.57127e-05
-1.50112e-05
-1.38139e-05
-1.21434e-05
-1.00392e-05
-7.55708e-06
-4.76753e-06
-1.75218e-06
1.39948e-06
4.59179e-06
7.72075e-06
1.06659e-05
1.32655e-05
1.52823e-05
1.62524e-05
1.54935e-05
1.20099e-05
-1.30991e-05
-1.23563e-05
-1.14862e-05
-1.07171e-05
-1.00249e-05
-9.43328e-06
-8.92919e-06
-8.49297e-06
-8.10633e-06
-7.75445e-06
-7.42601e-06
-7.11323e-06
-6.8122e-06
-6.52373e-06
-6.25534e-06
-6.02392e-06
-5.85841e-06
-5.81012e-06
-5.94415e-06
-6.35889e-06
-7.17902e-06
-8.4946e-06
-1.02202e-05
-1.20029e-05
-1.35649e-05
-1.47707e-05
-1.55425e-05
-1.5839e-05
-1.56401e-05
-1.49407e-05
-1.37501e-05
-1.20931e-05
-1.00116e-05
-7.56466e-06
-4.82649e-06
-1.88359e-06
1.16752e-06
4.22069e-06
7.15598e-06
9.8286e-06
1.20425e-05
1.3515e-05
1.38048e-05
1.23668e-05
8.93132e-06
-1.24825e-05
-1.19593e-05
-1.12636e-05
-1.05753e-05
-9.93671e-06
-9.36989e-06
-8.8749e-06
-8.44167e-06
-8.05502e-06
-7.70214e-06
-7.37264e-06
-7.05913e-06
-6.75801e-06
-6.47033e-06
-6.20392e-06
-5.97588e-06
-5.81525e-06
-5.77327e-06
-5.9139e-06
-6.33414e-06
-7.15724e-06
-8.46861e-06
-1.01825e-05
-1.1952e-05
-1.35019e-05
-1.46975e-05
-1.54613e-05
-1.57519e-05
-1.55497e-05
-1.4851e-05
-1.36673e-05
-1.20264e-05
-9.97399e-06
-7.57313e-06
-4.90288e-06
-2.05584e-06
8.63413e-07
3.73785e-06
6.43329e-06
8.78876e-06
1.05986e-05
1.15983e-05
1.14601e-05
9.8923e-06
6.95447e-06
-1.19849e-05
-1.15924e-05
-1.10353e-05
-1.04338e-05
-9.84734e-06
-9.30632e-06
-8.82098e-06
-8.39067e-06
-8.00324e-06
-7.64854e-06
-7.31732e-06
-7.00272e-06
-6.70146e-06
-6.41484e-06
-6.15104e-06
-5.92726e-06
-5.77262e-06
-5.73818e-06
-5.88651e-06
-6.3129e-06
-7.13904e-06
-8.44489e-06
-1.01443e-05
-1.18974e-05
-1.34319e-05
-1.46142e-05
-1.53674e-05
-1.56504e-05
-1.54443e-05
-1.47474e-05
-1.35741e-05
-1.1956e-05
-9.94298e-06
-7.60306e-06
-5.02069e-06
-2.29491e-06
4.62094e-07
3.12452e-06
5.54992e-06
7.57439e-06
9.00777e-06
9.64067e-06
9.27441e-06
7.81015e-06
5.40444e-06
-1.15461e-05
-1.12428e-05
-1.07926e-05
-1.02769e-05
-9.74943e-06
-9.23785e-06
-8.76691e-06
-8.34016e-06
-7.95176e-06
-7.59477e-06
-7.26131e-06
-6.94531e-06
-6.64396e-06
-6.35887e-06
-6.09853e-06
-5.88023e-06
-5.733e-06
-5.70765e-06
-5.86497e-06
-6.29821e-06
-7.12722e-06
-8.42553e-06
-1.01064e-05
-1.1839e-05
-1.33539e-05
-1.45192e-05
-1.5259e-05
-1.55327e-05
-1.53228e-05
-1.46303e-05
-1.34729e-05
-1.18866e-05
-9.92627e-06
-7.66498e-06
-5.19275e-06
-2.61434e-06
-4.76318e-08
2.37722e-06
4.51794e-06
6.22169e-06
7.33137e-06
7.70412e-06
7.24661e-06
5.97278e-06
4.06663e-06
-1.11286e-05
-1.08916e-05
-1.05329e-05
-1.00964e-05
-9.62508e-06
-9.15653e-06
-8.70604e-06
-8.28642e-06
-7.89956e-06
-7.54134e-06
-7.20598e-06
-6.88877e-06
-6.58773e-06
-6.30491e-06
-6.04915e-06
-5.83782e-06
-5.69972e-06
-5.68523e-06
-5.85301e-06
-6.29366e-06
-7.12507e-06
-8.41312e-06
-1.00704e-05
-1.17772e-05
-1.32672e-05
-1.44107e-05
-1.51334e-05
-1.5396e-05
-1.51829e-05
-1.4498e-05
-1.33634e-05
-1.182e-05
-9.9276e-06
-7.76455e-06
-5.42562e-06
-3.0196e-06
-6.66597e-07
1.50482e-06
3.36143e-06
4.77224e-06
5.62058e-06
5.82398e-06
5.36028e-06
4.2947e-06
2.79467e-06
-1.0711e-05
-1.05251e-05
-1.02412e-05
-9.8803e-06
-9.47241e-06
-9.0482e-06
-8.62673e-06
-8.22276e-06
-7.84275e-06
-7.48654e-06
-7.15132e-06
-6.83435e-06
-6.53492e-06
-6.25578e-06
-6.00631e-06
-5.80393e-06
-5.67704e-06
-5.67549e-06
-5.85531e-06
-6.3038e-06
-7.13671e-06
-8.41082e-06
-1.0038e-05
-1.17123e-05
-1.31709e-05
-1.42866e-05
-1.4988e-05
-1.52374e-05
-1.5022e-05
-1.43493e-05
-1.32461e-05
-1.17585e-05
-9.95134e-06
-7.90738e-06
-5.72463e-06
-3.51303e-06
-1.39041e-06
5.22493e-07
2.10874e-06
3.26464e-06
3.91241e-06
4.0152e-06
3.59085e-06
2.71868e-06
1.53484e-06
-1.02824e-05
-1.0137e-05
-9.91389e-06
-9.62114e-06
-9.27684e-06
-8.90316e-06
-8.5192e-06
-8.13988e-06
-7.77424e-06
-7.42587e-06
-7.09519e-06
-6.78185e-06
-6.48687e-06
-6.21405e-06
-5.97353e-06
-5.78285e-06
-5.66982e-06
-5.68369e-06
-5.87728e-06
-6.33379e-06
-7.16675e-06
-8.42197e-06
-1.00107e-05
-1.16445e-05
-1.30636e-05
-1.41446e-05
-1.48197e-05
-1.50541e-05
-1.4838e-05
-1.41835e-05
-1.31223e-05
-1.17055e-05
-1.00024e-05
-8.09874e-06
-6.09321e-06
-4.09332e-06
-2.20985e-06
-5.50432e-07
7.88417e-07
1.73051e-06
2.22981e-06
2.27893e-06
1.91367e-06
1.20922e-06
2.71127e-07
-9.83643e-06
-9.72455e-06
-9.55097e-06
-9.3175e-06
-9.03344e-06
-8.71364e-06
-8.37382e-06
-8.02766e-06
-7.68522e-06
-7.35267e-06
-7.0333e-06
-6.72924e-06
-6.44352e-06
-6.1813e-06
-5.95372e-06
-5.77855e-06
-5.68281e-06
-5.71505e-06
-5.92429e-06
-6.38869e-06
-7.21953e-06
-8.44937e-06
-9.98923e-06
-1.15733e-05
-1.29433e-05
-1.39814e-05
-1.4625e-05
-1.48428e-05
-1.46291e-05
-1.40006e-05
-1.2994e-05
-1.16648e-05
-1.00854e-05
-8.34223e-06
-6.53163e-06
-4.75476e-06
-3.11124e-06
-1.6923e-06
-5.73266e-07
1.9355e-07
5.84874e-07
6.09489e-07
3.07538e-07
-2.56014e-07
-1.00197e-06
-9.36841e-06
-9.28546e-06
-9.15331e-06
-8.97096e-06
-8.74228e-06
-8.47629e-06
-8.1845e-06
-7.87837e-06
-7.56764e-06
-7.25976e-06
-6.96006e-06
-6.67282e-06
-6.40313e-06
-6.15753e-06
-5.94839e-06
-5.79372e-06
-5.71956e-06
-5.77359e-06
-6.00045e-06
-6.47228e-06
-7.29804e-06
-8.49375e-06
-9.97252e-06
-1.14972e-05
-1.28066e-05
-1.37928e-05
-1.43998e-05
-1.46007e-05
-1.43941e-05
-1.38014e-05
-1.2864e-05
-1.16403e-05
-1.02038e-05
-8.63893e-06
-7.03629e-06
-5.48727e-06
-4.07759e-06
-2.88106e-06
-1.95375e-06
-1.32941e-06
-1.01708e-06
-1.00133e-06
-1.24572e-06
-1.69196e-06
-2.28643e-06
-8.87519e-06
-8.81844e-06
-8.7221e-06
-8.58423e-06
-8.40575e-06
-8.19154e-06
-7.94932e-06
-7.68796e-06
-7.41605e-06
-7.14121e-06
-6.86991e-06
-6.60804e-06
-6.36242e-06
-6.14087e-06
-5.95692e-06
-5.82872e-06
-5.78122e-06
-5.86072e-06
-6.10697e-06
-6.58556e-06
-7.40248e-06
-8.55132e-06
-9.95709e-06
-1.14123e-05
-1.26492e-05
-1.35738e-05
-1.414e-05
-1.43252e-05
-1.41325e-05
-1.35876e-05
-1.27352e-05
-1.16351e-05
-1.03591e-05
-8.98645e-06
-7.59932e-06
-6.27683e-06
-5.08976e-06
-4.09552e-06
-3.33429e-06
-2.82669e-06
-2.57342e-06
-2.55721e-06
-2.74628e-06
-3.10482e-06
-3.58169e-06
-8.35577e-06
-8.32357e-06
-8.25926e-06
-8.16082e-06
-8.02776e-06
-7.86241e-06
-7.66959e-06
-7.45576e-06
-7.22793e-06
-6.99322e-06
-6.75845e-06
-6.53044e-06
-6.31728e-06
-6.12776e-06
-5.97632e-06
-5.88096e-06
-5.86547e-06
-5.97392e-06
-6.24061e-06
-6.72552e-06
-7.5266e-06
-8.61611e-06
-9.9394e-06
-1.13084e-05
-1.24641e-05
-1.33192e-05
-1.38419e-05
-1.40149e-05
-1.3845e-05
-1.33615e-05
-1.26105e-05
-1.16507e-05
-1.05494e-05
-9.37821e-06
-8.20842e-06
-7.10594e-06
-6.12712e-06
-5.31532e-06
-4.69871e-06
-4.28963e-06
-4.08536e-06
-4.07049e-06
-4.22004e-06
-4.50348e-06
-4.88703e-06
-7.81132e-06
-7.80269e-06
-7.76782e-06
-7.70503e-06
-7.61337e-06
-7.49373e-06
-7.349e-06
-7.18372e-06
-7.00335e-06
-6.81414e-06
-6.62265e-06
-6.43603e-06
-6.26309e-06
-6.11321e-06
-6.00127e-06
-5.94466e-06
-5.96628e-06
-6.10588e-06
-6.39259e-06
-6.88537e-06
-7.65348e-06
-8.685e-06
-9.91576e-06
-1.11731e-05
-1.22371e-05
-1.30223e-05
-1.35029e-05
-1.367e-05
-1.35341e-05
-1.31261e-05
-1.24918e-05
-1.16859e-05
-1.0769e-05
-9.80289e-06
-8.84689e-06
-7.95399e-06
-7.16774e-06
-6.52028e-06
-6.03134e-06
-5.70841e-06
-5.5479e-06
-5.53726e-06
-5.65737e-06
-5.88554e-06
-6.19735e-06
-7.24519e-06
-7.2594e-06
-7.25211e-06
-7.22208e-06
-7.16841e-06
-7.09138e-06
-6.99272e-06
-6.8756e-06
-6.74422e-06
-6.60391e-06
-6.46067e-06
-6.32125e-06
-6.19483e-06
-6.09077e-06
-6.02366e-06
-6.01081e-06
-6.07307e-06
-6.24479e-06
-6.55081e-06
-7.04433e-06
-7.7723e-06
-8.74826e-06
-9.8675e-06
-1.09825e-05
-1.19587e-05
-1.26777e-05
-1.31221e-05
-1.32924e-05
-1.32028e-05
-1.28842e-05
-1.23791e-05
-1.17364e-05
-1.10079e-05
-1.02447e-05
-9.49434e-06
-8.79796e-06
-8.1886e-06
-7.6899e-06
-7.31589e-06
-7.07154e-06
-6.95378e-06
-6.95325e-06
-7.0561e-06
-7.24602e-06
-7.50542e-06
-6.66247e-06
-6.69899e-06
-6.71782e-06
-6.71824e-06
-6.69964e-06
-6.66213e-06
-6.60689e-06
-6.53624e-06
-6.45349e-06
-6.36308e-06
-6.27038e-06
-6.18226e-06
-6.1067e-06
-6.05315e-06
-6.03557e-06
-6.06731e-06
-6.16967e-06
-6.37163e-06
-6.69473e-06
-7.18058e-06
-7.87613e-06
-8.76581e-06
-9.76897e-06
-1.07562e-05
-1.16288e-05
-1.22843e-05
-1.27013e-05
-1.28861e-05
-1.28551e-05
-1.26372e-05
-1.22698e-05
-1.1794e-05
-1.12522e-05
-1.06846e-05
-1.01283e-05
-9.61385e-06
-9.1664e-06
-8.80354e-06
-8.53553e-06
-8.36604e-06
-8.29315e-06
-8.31054e-06
-8.40871e-06
-8.57635e-06
-8.80104e-06
-6.0696e-06
-6.12768e-06
-6.17122e-06
-6.19993e-06
-6.21359e-06
-6.21244e-06
-6.19748e-06
-6.1706e-06
-6.13454e-06
-6.09306e-06
-6.05089e-06
-6.01396e-06
-5.98968e-06
-5.98676e-06
-6.01713e-06
-6.09436e-06
-6.23552e-06
-6.46455e-06
-6.80039e-06
-7.27299e-06
-7.92045e-06
-8.71595e-06
-9.59957e-06
-1.04765e-05
-1.12471e-05
-1.18426e-05
-1.22429e-05
-1.24543e-05
-1.2493e-05
-1.23838e-05
-1.21576e-05
-1.18467e-05
-1.1485e-05
-1.11016e-05
-1.07257e-05
-1.03795e-05
-1.00799e-05
-9.84239e-06
-9.67453e-06
-9.57905e-06
-9.5552e-06
-9.59929e-06
-9.70531e-06
-9.86579e-06
-1.00723e-05
-5.47702e-06
-5.55473e-06
-5.62061e-06
-5.67471e-06
-5.71715e-06
-5.74841e-06
-5.76952e-06
-5.78219e-06
-5.78882e-06
-5.7926e-06
-5.79764e-06
-5.80904e-06
-5.83338e-06
-5.87838e-06
-5.95401e-06
-6.07216e-06
-6.24658e-06
-6.49597e-06
-6.83713e-06
-7.28981e-06
-7.87486e-06
-8.58811e-06
-9.36791e-06
-1.01303e-05
-1.08063e-05
-1.1351e-05
-1.17468e-05
-1.19968e-05
-1.21138e-05
-1.2117e-05
-1.20306e-05
-1.18785e-05
-1.16869e-05
-1.14749e-05
-1.12641e-05
-1.10733e-05
-1.09118e-05
-1.07924e-05
-1.07215e-05
-1.07015e-05
-1.07326e-05
-1.0813e-05
-1.09394e-05
-1.11073e-05
-1.13112e-05
-4.89652e-06
-4.99056e-06
-5.07508e-06
-5.15045e-06
-5.21707e-06
-5.27562e-06
-5.32721e-06
-5.37354e-06
-5.41675e-06
-5.4596e-06
-5.50562e-06
-5.55917e-06
-5.6258e-06
-5.71207e-06
-5.82601e-06
-5.97735e-06
-6.17661e-06
-6.43726e-06
-6.77319e-06
-7.19648e-06
-7.72248e-06
-8.3603e-06
-9.04313e-06
-9.7049e-06
-1.03026e-05
-1.081e-05
-1.12121e-05
-1.15085e-05
-1.17074e-05
-1.18219e-05
-1.18688e-05
-1.18654e-05
-1.18295e-05
-1.1776e-05
-1.17186e-05
-1.16704e-05
-1.16399e-05
-1.16353e-05
-1.16611e-05
-1.17203e-05
-1.18143e-05
-1.19425e-05
-1.21033e-05
-1.22942e-05
-1.25119e-05
-4.34254e-06
-4.44794e-06
-4.54566e-06
-4.63642e-06
-4.72085e-06
-4.79981e-06
-4.87458e-06
-4.9468e-06
-5.01844e-06
-5.09187e-06
-5.17008e-06
-5.2567e-06
-5.35623e-06
-5.47396e-06
-5.6162e-06
-5.79043e-06
-6.00482e-06
-6.26936e-06
-6.59308e-06
-6.98325e-06
-7.45385e-06
-8.00751e-06
-8.61324e-06
-9.19875e-06
-9.7398e-06
-1.02228e-05
-1.06375e-05
-1.09819e-05
-1.12598e-05
-1.14787e-05
-1.16484e-05
-1.17805e-05
-1.18859e-05
-1.19754e-05
-1.20582e-05
-1.2144e-05
-1.22402e-05
-1.23489e-05
-1.24736e-05
-1.26181e-05
-1.27843e-05
-1.29725e-05
-1.31823e-05
-1.34124e-05
-1.36612e-05
-3.84505e-06
-3.95487e-06
-4.0591e-06
-4.15834e-06
-4.25309e-06
-4.34437e-06
-4.43357e-06
-4.52226e-06
-4.61221e-06
-4.70548e-06
-4.80459e-06
-4.91258e-06
-5.03308e-06
-5.17026e-06
-5.32904e-06
-5.51505e-06
-5.73441e-06
-5.99486e-06
-6.30541e-06
-6.67298e-06
-7.10855e-06
-7.60013e-06
-8.14037e-06
-8.67187e-06
-9.17752e-06
-9.6513e-06
-1.00858e-05
-1.04771e-05
-1.08254e-05
-1.11338e-05
-1.14078e-05
-1.1654e-05
-1.18797e-05
-1.20915e-05
-1.22953e-05
-1.24965e-05
-1.26993e-05
-1.29073e-05
-1.31231e-05
-1.33493e-05
-1.35873e-05
-1.38381e-05
-1.41019e-05
-1.43784e-05
-1.46668e-05
-3.46009e-06
-3.56936e-06
-3.67348e-06
-3.77393e-06
-3.87144e-06
-3.96699e-06
-4.06194e-06
-4.15778e-06
-4.25614e-06
-4.35888e-06
-4.46818e-06
-4.58664e-06
-4.71722e-06
-4.8634e-06
-5.02918e-06
-5.21895e-06
-5.43815e-06
-5.69224e-06
-5.9854e-06
-6.32661e-06
-6.72648e-06
-7.20263e-06
-7.70847e-06
-8.21021e-06
-8.69915e-06
-9.17181e-06
-9.62284e-06
-1.00481e-05
-1.04459e-05
-1.08172e-05
-1.11648e-05
-1.14928e-05
-1.18053e-05
-1.21064e-05
-1.23998e-05
-1.26888e-05
-1.29764e-05
-1.32652e-05
-1.35572e-05
-1.3854e-05
-1.41568e-05
-1.44666e-05
-1.47837e-05
-1.5108e-05
-1.54393e-05
-3.16143e-06
-3.26819e-06
-3.37101e-06
-3.47091e-06
-3.56894e-06
-3.66622e-06
-3.76402e-06
-3.86377e-06
-3.96699e-06
-4.07542e-06
-4.19107e-06
-4.3162e-06
-4.45345e-06
-4.6058e-06
-4.77667e-06
-4.96985e-06
-5.18975e-06
-5.44169e-06
-5.73134e-06
-6.06546e-06
-6.45116e-06
-6.89505e-06
-7.37336e-06
-7.85692e-06
-8.33638e-06
-8.80863e-06
-9.26935e-06
-9.71491e-06
-1.01435e-05
-1.05554e-05
-1.09519e-05
-1.13354e-05
-1.1708e-05
-1.20722e-05
-1.24303e-05
-1.27842e-05
-1.31357e-05
-1.34867e-05
-1.38383e-05
-1.41918e-05
-1.45481e-05
-1.49075e-05
-1.52706e-05
-1.56371e-05
-1.60071e-05
-2.93574e-06
-3.03998e-06
-3.14113e-06
-3.24017e-06
-3.33824e-06
-3.43651e-06
-3.53625e-06
-3.63881e-06
-3.74568e-06
-3.8585e-06
-3.97913e-06
-4.10965e-06
-4.25244e-06
-4.41014e-06
-4.58576e-06
-4.78282e-06
-5.00526e-06
-5.25731e-06
-5.54425e-06
-5.87216e-06
-6.24434e-06
-6.66787e-06
-7.12822e-06
-7.59933e-06
-8.07136e-06
-8.54137e-06
-9.00607e-06
-9.46281e-06
-9.91023e-06
-1.03481e-05
-1.07769e-05
-1.11977e-05
-1.16117e-05
-1.20201e-05
-1.2424e-05
-1.28247e-05
-1.32233e-05
-1.36206e-05
-1.40177e-05
-1.4415e-05
-1.4813e-05
-1.52121e-05
-1.56123e-05
-1.60136e-05
-1.64157e-05
-2.76294e-06
-2.86584e-06
-2.96638e-06
-3.06556e-06
-3.16455e-06
-3.26454e-06
-3.36677e-06
-3.47257e-06
-3.58337e-06
-3.70074e-06
-3.82643e-06
-3.96238e-06
-4.11074e-06
-4.27393e-06
-4.45466e-06
-4.65597e-06
-4.88123e-06
-5.13417e-06
-5.41951e-06
-5.74182e-06
-6.10558e-06
-6.51636e-06
-6.96335e-06
-7.42336e-06
-7.88729e-06
-8.35272e-06
-8.81724e-06
-9.279e-06
-9.73687e-06
-1.01904e-05
-1.06395e-05
-1.10845e-05
-1.15258e-05
-1.1964e-05
-1.23996e-05
-1.28332e-05
-1.32654e-05
-1.36965e-05
-1.41271e-05
-1.45572e-05
-1.49871e-05
-1.54167e-05
-1.58461e-05
-1.62748e-05
-1.67027e-05
-2.63208e-06
-2.7354e-06
-2.8369e-06
-2.93763e-06
-3.03879e-06
-3.14157e-06
-3.2472e-06
-3.35698e-06
-3.4723e-06
-3.59467e-06
-3.72575e-06
-3.86734e-06
-4.02144e-06
-4.19021e-06
-4.37608e-06
-4.58175e-06
-4.81024e-06
-5.06488e-06
-5.34958e-06
-5.66821e-06
-6.0253e-06
-6.42622e-06
-6.86116e-06
-7.31001e-06
-7.76497e-06
-8.22411e-06
-8.6856e-06
-9.14804e-06
-9.61046e-06
-1.00722e-05
-1.05331e-05
-1.09928e-05
-1.14514e-05
-1.19091e-05
-1.2366e-05
-1.28222e-05
-1.32779e-05
-1.3733e-05
-1.41878e-05
-1.4642e-05
-1.50956e-05
-1.55483e-05
-1.59999e-05
-1.645e-05
-1.68979e-05
-2.53571e-06
-2.64086e-06
-2.74458e-06
-2.84799e-06
-2.95229e-06
-3.05867e-06
-3.16837e-06
-3.28264e-06
-3.40286e-06
-3.53047e-06
-3.66706e-06
-3.8143e-06
-3.97403e-06
-4.14822e-06
-4.33909e-06
-4.54905e-06
-4.78075e-06
-5.03705e-06
-5.32138e-06
-5.6372e-06
-5.98881e-06
-6.38057e-06
-6.8039e-06
-7.24164e-06
-7.68723e-06
-8.13902e-06
-8.59555e-06
-9.05569e-06
-9.5186e-06
-9.98363e-06
-1.04503e-05
-1.09183e-05
-1.13873e-05
-1.18573e-05
-1.23279e-05
-1.27992e-05
-1.32709e-05
-1.37429e-05
-1.42148e-05
-1.46865e-05
-1.51575e-05
-1.56274e-05
-1.60957e-05
-1.65619e-05
-1.70253e-05
-2.46666e-06
-2.57459e-06
-2.68136e-06
-2.78814e-06
-2.89616e-06
-3.00658e-06
-3.12064e-06
-3.23959e-06
-3.36477e-06
-3.49757e-06
-3.6395e-06
-3.79213e-06
-3.95716e-06
-4.1364e-06
-4.33188e-06
-4.5457e-06
-4.78009e-06
-5.03803e-06
-5.32189e-06
-5.63518e-06
-5.98148e-06
-6.36447e-06
-6.77672e-06
-7.20369e-06
-7.63981e-06
-8.08365e-06
-8.53402e-06
-8.99e-06
-9.45083e-06
-9.91588e-06
-1.03846e-05
-1.08566e-05
-1.13314e-05
-1.18086e-05
-1.22879e-05
-1.27691e-05
-1.32516e-05
-1.37351e-05
-1.42192e-05
-1.47034e-05
-1.51871e-05
-1.56697e-05
-1.61506e-05
-1.66291e-05
-1.71044e-05
-2.41845e-06
-2.52964e-06
-2.63986e-06
-2.75031e-06
-2.86221e-06
-2.97676e-06
-3.09515e-06
-3.21865e-06
-3.34855e-06
-3.48623e-06
-3.63309e-06
-3.79063e-06
-3.96043e-06
-4.14416e-06
-4.34364e-06
-4.56075e-06
-4.79773e-06
-5.05644e-06
-5.33975e-06
-5.6504e-06
-5.99152e-06
-6.36619e-06
-6.76796e-06
-7.18465e-06
-7.61149e-06
-8.04724e-06
-8.49091e-06
-8.94175e-06
-9.39909e-06
-9.8623e-06
-1.03308e-05
-1.08041e-05
-1.12816e-05
-1.1763e-05
-1.22477e-05
-1.27351e-05
-1.32249e-05
-1.37165e-05
-1.42092e-05
-1.47025e-05
-1.51956e-05
-1.56878e-05
-1.61783e-05
-1.66663e-05
-1.71509e-05
-2.38543e-06
-2.5e-06
-2.61371e-06
-2.72779e-06
-2.84346e-06
-2.96191e-06
-3.08436e-06
-3.21205e-06
-3.34626e-06
-3.48832e-06
-3.63957e-06
-3.80142e-06
-3.97536e-06
-4.16293e-06
-4.36574e-06
-4.58555e-06
-4.8244e-06
-5.08379e-06
-5.36625e-06
-5.67419e-06
-6.01032e-06
-6.37715e-06
-6.76915e-06
-7.17621e-06
-7.59424e-06
-8.02213e-06
-8.45911e-06
-8.90451e-06
-9.35773e-06
-9.81815e-06
-1.02852e-05
-1.07583e-05
-1.12369e-05
-1.17204e-05
-1.22083e-05
-1.26999e-05
-1.31947e-05
-1.36919e-05
-1.41909e-05
-1.4691e-05
-1.51912e-05
-1.56908e-05
-1.61889e-05
-1.66845e-05
-1.71768e-05
-2.36298e-06
-2.48079e-06
-2.59779e-06
-2.71524e-06
-2.83436e-06
-2.95635e-06
-3.08243e-06
-3.21384e-06
-3.35184e-06
-3.49771e-06
-3.65276e-06
-3.81832e-06
-3.99577e-06
-4.18654e-06
-4.39212e-06
-4.6141e-06
-4.85444e-06
-5.11417e-06
-5.3955e-06
-5.70075e-06
-6.03215e-06
-6.39168e-06
-6.77472e-06
-7.17293e-06
-7.5828e-06
-8.00336e-06
-8.43397e-06
-8.87406e-06
-9.32306e-06
-9.78036e-06
-1.02454e-05
-1.07175e-05
-1.11962e-05
-1.16808e-05
-1.21706e-05
-1.2665e-05
-1.31634e-05
-1.36648e-05
-1.41686e-05
-1.46739e-05
-1.51798e-05
-1.56854e-05
-1.61897e-05
-1.66917e-05
-1.71903e-05
-2.34756e-06
-2.46832e-06
-2.58828e-06
-2.70873e-06
-2.8309e-06
-2.95598e-06
-3.08523e-06
-3.21986e-06
-3.36112e-06
-3.51026e-06
-3.66853e-06
-3.83722e-06
-4.01762e-06
-4.21106e-06
-4.4189e-06
-4.64253e-06
-4.88414e-06
-5.14395e-06
-5.42396e-06
-5.72661e-06
-6.05359e-06
-6.40646e-06
-6.78137e-06
-7.17156e-06
-7.57402e-06
-7.98789e-06
-8.41267e-06
-8.84781e-06
-9.29277e-06
-9.74696e-06
-1.02098e-05
-1.06807e-05
-1.1159e-05
-1.16441e-05
-1.21352e-05
-1.26316e-05
-1.31327e-05
-1.36374e-05
-1.41451e-05
-1.46547e-05
-1.51653e-05
-1.56759e-05
-1.61854e-05
-1.66928e-05
-1.71969e-05
-2.3367e-06
-2.46004e-06
-2.58258e-06
-2.70563e-06
-2.8304e-06
-2.95814e-06
-3.09009e-06
-3.22746e-06
-3.37148e-06
-3.52339e-06
-3.68439e-06
-3.85571e-06
-4.03858e-06
-4.23424e-06
-4.44391e-06
-4.669e-06
-4.91146e-06
-5.17103e-06
-5.44974e-06
-5.74999e-06
-6.07292e-06
-6.41973e-06
-6.78734e-06
-7.17036e-06
-7.56617e-06
-7.97405e-06
-8.39357e-06
-8.82423e-06
-9.26549e-06
-9.7168e-06
-1.01776e-05
-1.06472e-05
-1.1125e-05
-1.16102e-05
-1.21023e-05
-1.26003e-05
-1.31035e-05
-1.3611e-05
-1.41219e-05
-1.46351e-05
-1.51498e-05
-1.56647e-05
-1.61788e-05
-1.6691e-05
-1.72e-05
-2.32874e-06
-2.45428e-06
-2.57903e-06
-2.70427e-06
-2.83125e-06
-2.96124e-06
-3.09546e-06
-3.23514e-06
-3.38149e-06
-3.53572e-06
-3.69902e-06
-3.87255e-06
-4.05749e-06
-4.25499e-06
-4.46622e-06
-4.69271e-06
-4.9353e-06
-5.19453e-06
-5.47221e-06
-5.77019e-06
-6.08942e-06
-6.43079e-06
-6.79189e-06
-7.16851e-06
-7.5584e-06
-7.96098e-06
-8.37583e-06
-8.8025e-06
-9.24046e-06
-9.68917e-06
-1.0148e-05
-1.06164e-05
-1.10937e-05
-1.15791e-05
-1.20719e-05
-1.25713e-05
-1.30764e-05
-1.35862e-05
-1.40999e-05
-1.46164e-05
-1.51346e-05
-1.56534e-05
-1.61716e-05
-1.66881e-05
-1.72015e-05
-2.32265e-06
-2.45005e-06
-2.57664e-06
-2.70371e-06
-2.83255e-06
-2.9644e-06
-3.10053e-06
-3.24214e-06
-3.39045e-06
-3.54664e-06
-3.71186e-06
-3.88724e-06
-4.07392e-06
-4.27297e-06
-4.48553e-06
-4.71314e-06
-4.95559e-06
-5.21454e-06
-5.49132e-06
-5.78714e-06
-6.10302e-06
-6.43951e-06
-6.79481e-06
-7.16575e-06
-7.55042e-06
-7.9483e-06
-8.35904e-06
-8.78219e-06
-9.21724e-06
-9.66366e-06
-1.01209e-05
-1.05882e-05
-1.1065e-05
-1.15506e-05
-1.2044e-05
-1.25446e-05
-1.30514e-05
-1.35634e-05
-1.40796e-05
-1.4599e-05
-1.51204e-05
-1.56427e-05
-1.61646e-05
-1.66849e-05
-1.72023e-05
-2.31781e-06
-2.44676e-06
-2.57487e-06
-2.70346e-06
-2.83383e-06
-2.96724e-06
-3.10496e-06
-3.24819e-06
-3.39813e-06
-3.55595e-06
-3.72279e-06
-3.89973e-06
-4.08787e-06
-4.28821e-06
-4.50187e-06
-4.73021e-06
-4.97277e-06
-5.23135e-06
-5.50723e-06
-5.80109e-06
-6.11394e-06
-6.44608e-06
-6.79623e-06
-7.16213e-06
-7.54219e-06
-7.93596e-06
-8.34308e-06
-8.76314e-06
-9.19566e-06
-9.6401e-06
-1.00959e-05
-1.05623e-05
-1.10388e-05
-1.15245e-05
-1.20186e-05
-1.25203e-05
-1.30286e-05
-1.35425e-05
-1.40611e-05
-1.45831e-05
-1.51074e-05
-1.56329e-05
-1.61582e-05
-1.6682e-05
-1.72031e-05
-2.31386e-06
-2.44408e-06
-2.57344e-06
-2.70328e-06
-2.83492e-06
-2.96962e-06
-3.10864e-06
-3.25321e-06
-3.40452e-06
-3.56371e-06
-3.7319e-06
-3.91015e-06
-4.09951e-06
-4.30093e-06
-4.51548e-06
-4.7443e-06
-4.98711e-06
-5.24534e-06
-5.52027e-06
-5.81241e-06
-6.12254e-06
-6.4508e-06
-6.79639e-06
-7.15786e-06
-7.53388e-06
-7.92403e-06
-8.32801e-06
-8.74539e-06
-9.17571e-06
-9.61843e-06
-1.0073e-05
-1.05387e-05
-1.10149e-05
-1.15007e-05
-1.19955e-05
-1.24982e-05
-1.30079e-05
-1.35237e-05
-1.40443e-05
-1.45687e-05
-1.50958e-05
-1.56241e-05
-1.61525e-05
-1.66795e-05
-1.72039e-05
-2.31055e-06
-2.44181e-06