/*--------------------------------*- C++ -*----------------------------------*\
| =========                 |                                                 |
| \\      /  F ield         | OpenFOAM: The Open Source CFD Toolbox           |
|  \\    /   O peration     | Version:  2312                                  |
|   \\  /    A nd           | Website:  www.openfoam.com                      |
|    \\/     M anipulation  |                                                 |
\*---------------------------------------------------------------------------*/
FoamFile
{
    version     2.0;
    format      ascii;
    arch        "LSB;label=32;scalar=64";
    class       surfaceScalarField;
    location    "46";
    object      phi;
}
// * * * * * * * * * * * * * * * * * * * * * * * * * * * * * * * * * * * * * //

dimensions      [0 3 -1 0 0 0 0];

oriented        oriented;

internalField   nonuniform List<scalar> 
9445
(
6.06863e-10
1.75734e-11
5.9484e-10
1.20222e-11
5.86563e-10
8.27692e-12
5.81007e-10
5.55628e-12
5.77553e-10
3.45456e-12
5.75807e-10
1.74563e-12
5.75584e-10
2.23125e-13
5.76909e-10
-1.32479e-12
5.79724e-10
-2.81554e-12
5.84378e-10
-4.65403e-12
5.92065e-10
-7.68692e-12
6.06338e-10
-1.42727e-11
6.39772e-10
-3.34347e-11
7.36875e-10
-9.71024e-11
-2.55623e-10
9.92498e-10
2.11221e-09
7.80262e-11
2.07052e-09
5.37121e-11
2.04153e-09
3.72623e-11
2.02176e-09
2.5324e-11
2.00907e-09
1.61454e-11
2.00209e-09
8.72411e-12
2.00014e-09
2.17586e-12
2.00301e-09
-4.19889e-12
2.0106e-09
-1.04006e-11
2.02407e-09
-1.81231e-11
2.04638e-09
-2.99957e-11
2.08432e-09
-5.22177e-11
2.15148e-09
-1.00592e-10
2.26115e-09
-2.06773e-10
-3.72995e-10
2.37852e-09
4.15902e-09
1.95046e-10
4.0778e-09
1.34932e-10
4.02088e-09
9.41788e-11
3.98157e-09
6.46322e-11
3.95571e-09
4.2011e-11
3.94057e-09
2.38564e-11
3.93475e-09
8.00132e-12
3.93744e-09
-6.89181e-12
3.94838e-09
-2.13349e-11
3.96899e-09
-3.87408e-11
4.00218e-09
-6.31838e-11
4.05242e-09
-1.02456e-10
4.12256e-09
-1.70731e-10
4.19903e-09
-2.83239e-10
-4.18076e-10
4.24411e-09
6.89491e-09
3.84279e-10
6.76254e-09
2.67298e-10
6.66896e-09
1.87761e-10
6.60346e-09
1.30128e-10
6.55929e-09
8.61789e-11
6.53198e-09
5.11682e-11
6.51892e-09
2.1068e-11
6.51838e-09
-6.35862e-12
6.52965e-09
-3.26059e-11
6.55319e-09
-6.22756e-11
6.59011e-09
-1.00102e-10
6.63974e-09
-1.52093e-10
6.69549e-09
-2.26478e-10
6.7371e-09
-3.24853e-10
-4.21756e-10
6.74078e-09
1.04992e-08
6.62026e-10
1.03029e-08
4.63547e-10
1.01627e-08
3.27962e-10
1.00632e-08
2.29671e-10
9.9944e-09
1.54978e-10
9.94967e-09
9.58957e-11
9.92463e-09
4.61044e-11
9.9164e-09
1.87217e-12
9.92325e-09
-3.94544e-11
9.94362e-09
-8.26461e-11
9.97576e-09
-1.32244e-10
1.00147e-08
-1.91077e-10
1.00497e-08
-2.61427e-10
1.00632e-08
-3.38394e-10
-4.02944e-10
1.00444e-08
1.51849e-08
1.04215e-09
1.49126e-08
7.35792e-10
1.47156e-08
5.24956e-10
1.45735e-08
3.71763e-10
1.44729e-08
2.55619e-10
1.44045e-08
1.64334e-10
1.43617e-08
8.88996e-11
1.43399e-08
2.36046e-11
1.43359e-08
-3.53833e-11
1.43459e-08
-9.26522e-11
1.43652e-08
-1.5152e-10
1.43866e-08
-2.12538e-10
1.43996e-08
-2.74375e-10
1.43925e-08
-3.31336e-10
-3.72654e-10
1.43622e-08
2.11968e-08
1.53022e-09
2.08406e-08
1.09195e-09
2.05787e-08
7.86873e-10
2.03864e-08
5.64085e-10
2.02468e-08
3.9523e-10
2.01479e-08
2.63189e-10
2.00809e-08
1.55912e-10
2.00391e-08
6.54396e-11
2.0017e-08
-1.33008e-11
2.0009e-08
-8.4692e-11
2.00086e-08
-1.51083e-10
2.00082e-08
-2.12112e-10
1.99995e-08
-2.65745e-10
1.99765e-08
-3.08298e-10
-3.35296e-10
1.99391e-08
2.88037e-08
2.11443e-09
2.83659e-08
1.52968e-09
2.80371e-08
1.1157e-09
2.77906e-08
8.10638e-10
2.7607e-08
5.78812e-10
2.74721e-08
3.98053e-10
2.73749e-08
2.53117e-10
2.73066e-08
1.33741e-10
2.72598e-08
3.34714e-11
2.72274e-08
-5.2234e-11
2.72021e-08
-1.25783e-10
2.71772e-08
-1.87242e-10
2.71473e-08
-2.35835e-10
2.71095e-08
-2.70531e-10
-2.90715e-10
2.70649e-08
3.82844e-08
2.75556e-09
3.77856e-08
2.02848e-09
3.74e-08
1.5013e-09
3.71034e-08
1.10728e-09
3.68764e-08
8.05845e-10
3.67037e-08
5.70749e-10
3.65729e-08
3.83884e-10
3.64738e-08
2.32847e-10
3.63977e-08
1.09603e-10
3.63364e-08
8.99144e-12
3.62834e-08
-7.27759e-11
3.62331e-08
-1.36938e-10
3.61821e-08
-1.84767e-10
3.6129e-08
-2.17512e-10
-2.36712e-10
3.6075e-08
4.99178e-08
3.38414e-09
4.94019e-08
2.54435e-09
4.89872e-08
1.91598e-09
4.86576e-08
1.43687e-09
4.83973e-08
1.06618e-09
4.81922e-08
7.75865e-10
4.803e-08
5.46012e-10
4.79003e-08
3.62557e-10
4.7794e-08
2.15887e-10
4.77038e-08
9.92422e-11
4.76232e-08
7.82165e-12
4.75484e-08
-6.21742e-11
4.74771e-08
-1.13398e-10
4.74084e-08
-1.48895e-10
-1.7136e-10
4.73431e-08
6.39986e-08
3.9189e-09
6.35263e-08
3.01662e-09
6.31263e-08
2.31596e-09
6.27948e-08
1.76834e-09
6.25229e-08
1.33809e-09
6.23003e-08
9.98468e-10
6.2117e-08
7.29366e-10
6.19637e-08
5.15836e-10
6.18327e-08
3.46893e-10
6.17177e-08
2.14268e-10
6.1614e-08
1.11515e-10
6.15184e-08
3.33428e-11
6.14296e-08
-2.45298e-11
6.13467e-08
-6.60566e-11
-9.45886e-11
6.127e-08
8.09097e-08
4.30971e-09
8.05314e-08
3.39496e-09
8.01895e-08
2.65781e-09
7.98914e-08
2.06651e-09
7.96355e-08
1.59398e-09
7.94167e-08
1.21721e-09
7.92287e-08
9.17372e-10
7.90651e-08
6.79449e-10
7.89204e-08
4.91622e-10
7.87902e-08
3.44438e-10
7.86715e-08
2.30242e-10
7.85622e-08
1.42668e-10
7.84611e-08
7.64876e-11
7.83679e-08
2.71836e-11
-8.85206e-12
7.82822e-08
1.01221e-07
4.57008e-09
1.00945e-07
3.67123e-09
1.00678e-07
2.92465e-09
1.00432e-07
2.3123e-09
1.00211e-07
1.81551e-09
1.00013e-07
1.41554e-09
9.98346e-08
1.09532e-09
9.96737e-08
8.4027e-10
9.95271e-08
6.38242e-10
9.93924e-08
4.79142e-10
9.9268e-08
3.5466e-10
9.91528e-08
2.57866e-10
9.90462e-08
1.83124e-10
9.89476e-08
1.25705e-10
8.18508e-11
9.88569e-08
1.25685e-07
4.74847e-09
1.25482e-07
3.87468e-09
1.25274e-07
3.13238e-09
1.25073e-07
2.51309e-09
1.24884e-07
2.00486e-09
1.24707e-07
1.59236e-09
1.24542e-07
1.26004e-09
1.24389e-07
9.9381e-10
1.24245e-07
7.81563e-10
1.24112e-07
6.13021e-10
1.23987e-07
4.79665e-10
1.2387e-07
3.74408e-10
1.23762e-07
2.91515e-10
1.23661e-07
2.26227e-10
1.74784e-10
1.23568e-07
1.5503e-07
4.8666e-09
1.54878e-07
4.02668e-09
1.54711e-07
3.2992e-09
1.54541e-07
2.68332e-09
1.54373e-07
2.17293e-09
1.5421e-07
1.75548e-09
1.54053e-07
1.41674e-09
1.53903e-07
1.14331e-09
1.53762e-07
9.23471e-10
1.53627e-07
7.4714e-10
1.53501e-07
6.05909e-10
1.53383e-07
4.92778e-10
1.53272e-07
4.02089e-10
1.53169e-07
3.29179e-10
2.70358e-10
1.53074e-07
1.89726e-07
4.91528e-09
1.89631e-07
4.122e-09
1.89508e-07
3.42239e-09
1.89369e-07
2.82179e-09
1.89223e-07
2.31941e-09
1.89073e-07
1.90481e-09
1.88925e-07
1.56528e-09
1.88779e-07
1.28863e-09
1.88639e-07
1.06393e-09
1.88505e-07
8.8164e-10
1.88377e-07
7.33738e-10
1.88256e-07
6.13519e-10
1.88142e-07
5.15543e-10
1.88036e-07
4.35333e-10
3.69331e-10
1.87937e-07
2.29881e-07
4.88126e-09
2.29854e-07
4.14952e-09
2.29785e-07
3.49106e-09
2.29689e-07
2.9184e-09
2.29573e-07
2.43541e-09
2.29445e-07
2.03225e-09
2.29312e-07
1.69844e-09
2.29177e-07
1.42348e-09
2.29044e-07
1.19758e-09
2.28913e-07
1.01203e-09
2.28787e-07
8.59411e-10
2.28667e-07
7.33516e-10
2.28554e-07
6.29256e-10
2.28447e-07
5.42433e-10
4.69705e-10
2.28346e-07
2.75062e-07
4.75023e-09
2.75116e-07
4.09555e-09
2.75109e-07
3.49787e-09
2.7506e-07
2.9675e-09
2.74981e-07
2.51431e-09
2.74882e-07
2.13074e-09
2.74771e-07
1.80928e-09
2.74654e-07
1.54134e-09
2.74533e-07
1.31844e-09
2.74412e-07
1.13287e-09
2.74293e-07
9.78014e-10
2.74179e-07
8.48275e-10
2.74069e-07
7.39049e-10
2.73965e-07
6.46504e-10
5.67671e-10
2.73867e-07
3.23785e-07
4.53821e-09
3.2392e-07
3.96041e-09
3.2399e-07
3.4279e-09
3.24007e-07
2.95098e-09
3.23983e-07
2.53838e-09
3.23929e-07
2.18466e-09
3.23854e-07
1.88416e-09
3.23765e-07
1.63019e-09
3.23668e-07
1.41586e-09
3.23566e-07
1.23469e-09
3.23463e-07
1.08105e-09
3.23361e-07
9.50138e-10
3.23262e-07
8.37924e-10
3.23168e-07
7.41032e-10
6.56804e-10
3.23079e-07
3.72877e-07
4.19921e-09
3.73126e-07
3.71101e-09
3.73296e-07
3.25823e-09
3.73399e-07
2.84794e-09
3.73451e-07
2.48658e-09
3.73462e-07
2.1729e-09
3.73444e-07
1.90264e-09
3.73404e-07
1.6705e-09
3.73348e-07
1.47114e-09
3.73283e-07
1.29959e-09
3.73213e-07
1.15137e-09
3.73141e-07
1.02257e-09
3.73069e-07
9.09885e-10
3.72999e-07
8.10493e-10
7.22215e-10
3.72934e-07
3.70247e-07
3.81429e-09
3.70547e-07
3.41088e-09
3.70771e-07
3.03368e-09
3.70931e-07
2.68848e-09
3.71037e-07
2.37983e-09
3.71103e-07
2.10782e-09
3.71135e-07
1.86979e-09
3.71144e-07
1.66193e-09
3.71135e-07
1.48021e-09
3.71114e-07
1.3208e-09
3.71085e-07
1.18027e-09
3.71052e-07
1.05557e-09
3.71018e-07
9.44068e-10
3.70985e-07
8.43508e-10
7.52307e-10
3.70955e-07
3.17175e-07
3.37216e-09
3.17534e-07
3.05151e-09
3.17821e-07
2.74662e-09
3.18045e-07
2.46452e-09
3.18216e-07
2.20901e-09
3.18344e-07
1.98044e-09
3.18436e-07
1.77724e-09
3.18501e-07
1.59679e-09
3.18545e-07
1.4362e-09
3.18573e-07
1.29265e-09
3.1859e-07
1.16361e-09
3.18599e-07
1.04678e-09
3.18603e-07
9.40206e-10
3.18604e-07
8.42153e-10
7.51196e-10
3.18605e-07
2.65334e-07
2.96448e-09
2.65679e-07
2.70613e-09
2.65968e-07
2.45732e-09
2.66207e-07
2.22539e-09
2.66403e-07
2.01318e-09
2.66563e-07
1.82092e-09
2.66692e-07
1.64752e-09
2.66798e-07
1.49108e-09
2.66885e-07
1.34954e-09
2.66957e-07
1.22081e-09
2.67017e-07
1.103e-09
2.6707e-07
9.94393e-10
2.67116e-07
8.93535e-10
2.67159e-07
7.99074e-10
7.09987e-10
2.67201e-07
2.18393e-07
2.57289e-09
2.18734e-07
2.36512e-09
2.19027e-07
2.16357e-09
2.19279e-07
1.97412e-09
2.19493e-07
1.79904e-09
2.19675e-07
1.63844e-09
2.19831e-07
1.49147e-09
2.19966e-07
1.35682e-09
2.20082e-07
1.23299e-09
2.20185e-07
1.11849e-09
2.20276e-07
1.01191e-09
2.20358e-07
9.12027e-10
2.20434e-07
8.17749e-10
2.20505e-07
7.28123e-10
6.42414e-10
2.20572e-07
1.7734e-07
2.19151e-09
1.77679e-07
2.02621e-09
1.77977e-07
1.86505e-09
1.78239e-07
1.71228e-09
1.78469e-07
1.56955e-09
1.7867e-07
1.43692e-09
1.78848e-07
1.31377e-09
1.79005e-07
1.19918e-09
1.79146e-07
1.09212e-09
1.79273e-07
9.91526e-10
1.79389e-07
8.96426e-10
1.79495e-07
8.05952e-10
1.79593e-07
7.19356e-10
1.79685e-07
6.35994e-10
5.55345e-10
1.79772e-07
1.42377e-07
1.82467e-09
1.42708e-07
1.69545e-09
1.43004e-07
1.56879e-09
1.43269e-07
1.44765e-09
1.43505e-07
1.33311e-09
1.43717e-07
1.22521e-09
1.43907e-07
1.12353e-09
1.44079e-07
1.02747e-09
1.44234e-07
9.36332e-10
1.44377e-07
8.49425e-10
1.44507e-07
7.66106e-10
1.44627e-07
6.85807e-10
1.44738e-07
6.08053e-10
1.44842e-07
5.3244e-10
4.58629e-10
1.44939e-07
1.13174e-07
1.48169e-09
1.13487e-07
1.38297e-09
1.1377e-07
1.28554e-09
1.14026e-07
1.19143e-09
1.14258e-07
1.10127e-09
1.14468e-07
1.0151e-09
1.14659e-07
9.3268e-10
1.14833e-07
8.5366e-10
1.14992e-07
7.77617e-10
1.15137e-07
7.04127e-10
1.1527e-07
6.32803e-10
1.15393e-07
5.63311e-10
1.15505e-07
4.95384e-10
1.15609e-07
4.28803e-10
3.63403e-10
1.15704e-07
8.91225e-08
1.17229e-09
8.94066e-08
1.09891e-09
8.96663e-08
1.02584e-09
8.99032e-08
9.54474e-10
9.01194e-08
8.85106e-10
9.03167e-08
8.17799e-10
9.04969e-08
7.52475e-10
9.06616e-08
6.88959e-10
9.08122e-08
6.27027e-10
9.09499e-08
5.66457e-10
9.10756e-08
5.07049e-10
9.11903e-08
4.48644e-10
9.12946e-08
3.91123e-10
9.1389e-08
3.34403e-10
2.7843e-10
9.14739e-08
6.95192e-08
9.03331e-10
6.97677e-08
8.50439e-10
6.99963e-08
7.97252e-10
7.02061e-08
7.44615e-10
7.03986e-08
6.92625e-10
7.0575e-08
6.41398e-10
7.07365e-08
5.90961e-10
7.08842e-08
5.41262e-10
7.1019e-08
4.92212e-10
7.11418e-08
4.43728e-10
7.12531e-08
3.95742e-10
7.13535e-08
3.48211e-10
7.14435e-08
3.01118e-10
7.15235e-08
2.54467e-10
2.08281e-10
7.15936e-08
5.36773e-08
6.7758e-10
5.3887e-08
6.40751e-10
5.40809e-08
6.0334e-10
5.42598e-08
5.65716e-10
5.44245e-08
5.27894e-10
5.45759e-08
4.90043e-10
5.47146e-08
4.52244e-10
5.48413e-08
4.14518e-10
5.49567e-08
3.76864e-10
5.50611e-08
3.39286e-10
5.51551e-08
3.01798e-10
5.52388e-08
2.64426e-10
5.53127e-08
2.27213e-10
5.5377e-08
1.90215e-10
1.53495e-10
5.54318e-08
4.09741e-08
4.94063e-10
4.11454e-08
4.69407e-10
4.13047e-08
4.44112e-10
4.14522e-08
4.18146e-10
4.15886e-08
3.91545e-10
4.17141e-08
3.64498e-10
4.18293e-08
3.37102e-10
4.19344e-08
3.09416e-10
4.20297e-08
2.81489e-10
4.21157e-08
2.5337e-10
4.21923e-08
2.25114e-10
4.226e-08
1.96785e-10
4.23187e-08
1.68451e-10
4.23688e-08
1.4019e-10
1.12084e-10
4.24102e-08
3.08662e-08
3.49201e-10
3.10022e-08
3.33434e-10
3.11292e-08
3.17091e-10
3.12475e-08
2.99869e-10
3.13572e-08
2.81869e-10
3.14584e-08
2.63264e-10
3.15514e-08
2.44145e-10
3.16362e-08
2.24585e-10
3.17131e-08
2.0465e-10
3.1782e-08
1.84408e-10
3.18432e-08
1.63926e-10
3.18967e-08
1.4328e-10
3.19426e-08
1.22543e-10
3.1981e-08
1.018e-10
8.11259e-11
3.2012e-08
2.28882e-08
2.38023e-10
2.29931e-08
2.28479e-10
2.30917e-08
2.1847e-10
2.31841e-08
2.07562e-10
2.327e-08
1.95922e-10
2.33496e-08
1.83679e-10
2.34228e-08
1.70909e-10
2.34897e-08
1.57682e-10
2.35503e-08
1.44061e-10
2.36046e-08
1.30113e-10
2.36526e-08
1.15905e-10
2.36944e-08
1.01505e-10
2.373e-08
8.69817e-11
2.37594e-08
7.24115e-11
5.78569e-11
2.37826e-08
1.66449e-08
1.55129e-10
1.67237e-08
1.49731e-10
1.67982e-08
1.43983e-10
1.68683e-08
1.37451e-10
1.69339e-08
1.30329e-10
1.69949e-08
1.22695e-10
1.70512e-08
1.14606e-10
1.71027e-08
1.06118e-10
1.71495e-08
9.7285e-11
1.71915e-08
8.81626e-11
1.72286e-08
7.88047e-11
1.72608e-08
6.92681e-11
1.72882e-08
5.96083e-11
1.73107e-08
4.98878e-11
4.01553e-11
1.73284e-08
1.18041e-08
9.53037e-11
1.18614e-08
9.25005e-11
1.19159e-08
8.94605e-11
1.19675e-08
8.58231e-11
1.20161e-08
8.17651e-11
1.20615e-08
7.73218e-11
1.21035e-08
7.2533e-11
1.21422e-08
6.74386e-11
1.21774e-08
6.20777e-11
1.22091e-08
5.64913e-11
1.22372e-08
5.07187e-11
1.22616e-08
4.48019e-11
1.22825e-08
3.87808e-11
1.22997e-08
3.27027e-11
2.66037e-11
1.23132e-08
8.08802e-09
5.38402e-11
8.12798e-09
5.25377e-11
8.16634e-09
5.11017e-11
8.20289e-09
4.92726e-11
8.23748e-09
4.71783e-11
8.26997e-09
4.48272e-11
8.30026e-09
4.22444e-11
8.32825e-09
3.94549e-11
8.35384e-09
3.64839e-11
8.37697e-09
3.33579e-11
8.39759e-09
3.01025e-11
8.41565e-09
2.6745e-11
8.43112e-09
2.33112e-11
8.44398e-09
1.98333e-11
1.63377e-11
8.45425e-09
5.2665e-09
2.66761e-11
5.29289e-09
2.61526e-11
5.31841e-09
2.55834e-11
5.34288e-09
2.47996e-11
5.36619e-09
2.38715e-11
5.38822e-09
2.27966e-11
5.40887e-09
2.15887e-11
5.42807e-09
2.02611e-11
5.44572e-09
1.88277e-11
5.46178e-09
1.73033e-11
5.47618e-09
1.5702e-11
5.48888e-09
1.40394e-11
5.49986e-09
1.23293e-11
5.50911e-09
1.05913e-11
8.8445e-12
5.5166e-09
3.15073e-09
1.0411e-11
3.16665e-09
1.0234e-11
3.18216e-09
1.00721e-11
3.19713e-09
9.82358e-12
3.21149e-09
9.51201e-12
3.22515e-09
9.13472e-12
3.23804e-09
8.69753e-12
3.2501e-09
8.20625e-12
3.26126e-09
7.66684e-12
3.27148e-09
7.08587e-12
3.28071e-09
6.46935e-12
3.28893e-09
5.82434e-12
3.2961e-09
5.15645e-12
3.30221e-09
4.47536e-12
3.79411e-12
3.30726e-09
1.58712e-09
2.26241e-12
1.59514e-09
2.21099e-12
1.60301e-09
2.19583e-12
1.61068e-09
2.16226e-12
1.61808e-09
2.11175e-12
1.62517e-09
2.04395e-12
1.6319e-09
1.96043e-12
1.63825e-09
1.86276e-12
1.64416e-09
1.75253e-12
1.64962e-09
1.63146e-12
1.65458e-09
1.50103e-12
1.65905e-09
1.36316e-12
1.66298e-09
1.21906e-12
1.66639e-09
1.07165e-12
9.28186e-13
1.66925e-09
4.51919e-10
4.5413e-10
4.56326e-10
4.58488e-10
4.606e-10
4.62644e-10
4.64604e-10
4.66467e-10
4.68219e-10
4.69851e-10
4.71352e-10
4.72715e-10
4.73934e-10
4.75006e-10
4.75934e-10
1.18287e-09
-5.11151e-10
3.2078e-10
1.45264e-09
-4.67808e-10
1.98038e-10
1.72167e-09
-3.59247e-10
9.0218e-11
1.98411e-09
-2.44682e-10
-1.77605e-11
2.23868e-09
-1.27578e-10
-1.26994e-10
2.48655e-09
-1.19294e-11
-2.35937e-10
2.72977e-09
1.03964e-10
-3.47182e-10
2.97008e-09
2.23366e-10
-4.63677e-10
3.20899e-09
3.49814e-10
-5.88724e-10
3.44768e-09
4.87413e-10
-7.261e-10
3.68707e-09
6.40879e-10
-8.80269e-10
3.92796e-09
8.16108e-10
-1.05701e-09
4.17125e-09
1.02072e-09
-1.26401e-09
4.41813e-09
1.26502e-09
-1.51189e-09
4.67038e-09
1.56208e-09
-1.81434e-09
4.93095e-09
1.92635e-09
-2.18691e-09
5.20412e-09
2.37464e-09
-2.64781e-09
5.49582e-09
2.92509e-09
-3.21679e-09
5.81404e-09
3.58436e-09
-3.90258e-09
6.16878e-09
4.33282e-09
-4.68756e-09
6.56933e-09
5.08768e-09
-5.48824e-09
7.01923e-09
5.65264e-09
-6.10253e-09
7.43665e-09
4.86208e-09
-5.2795e-09
7.78126e-09
3.39007e-09
-3.73468e-09
8.04918e-09
1.8124e-09
-2.08033e-09
8.24231e-09
2.87359e-10
-4.80487e-10
8.36495e-09
-1.08828e-09
9.65634e-10
8.42226e-09
-2.27282e-09
2.21551e-09
8.41944e-09
-3.25035e-09
3.25316e-09
8.36127e-09
-4.01438e-09
4.07255e-09
8.25206e-09
-4.56457e-09
4.67378e-09
8.09599e-09
-4.90557e-09
5.06164e-09
7.89718e-09
-5.04587e-09
5.24467e-09
7.65977e-09
-4.99731e-09
5.23472e-09
7.38768e-09
-4.77434e-09
5.04643e-09
7.08439e-09
-4.39293e-09
4.69622e-09
6.7527e-09
-3.86896e-09
4.20065e-09
6.39467e-09
-3.21594e-09
3.57397e-09
6.0118e-09
-2.44207e-09
2.82493e-09
5.60473e-09
-1.54782e-09
1.95489e-09
5.17096e-09
-5.3026e-10
9.64031e-10
4.69902e-09
5.96413e-10
-1.24469e-10
4.16864e-09
1.73899e-09
-1.20861e-09
3.58553e-09
2.66223e-09
-2.07913e-09
2.68303e-09
3.24081e-09
-2.33831e-09
2.45147e-09
-5.84097e-10
2.6064e-09
-6.22744e-10
2.81688e-09
-5.69724e-10
3.05129e-09
-4.79093e-10
3.29603e-09
-3.72316e-10
3.54431e-09
-2.60207e-10
3.79387e-09
-1.45601e-10
4.04433e-09
-2.70906e-11
4.29598e-09
9.81644e-11
4.54937e-09
2.34024e-10
4.80512e-09
3.85126e-10
5.06392e-09
5.57311e-10
5.32665e-09
7.57991e-10
5.59458e-09
9.9709e-10
5.86965e-09
1.28701e-09
6.15509e-09
1.64091e-09
6.45557e-09
2.07417e-09
6.77743e-09
2.60322e-09
7.12926e-09
3.23253e-09
7.52174e-09
3.94034e-09
7.9649e-09
4.64452e-09
8.46279e-09
5.15475e-09
8.9258e-09
4.39907e-09
9.30974e-09
3.00613e-09
9.61025e-09
1.51189e-09
9.82912e-09
6.849e-11
9.97072e-09
-1.22987e-09
1.00404e-08
-2.34254e-09
1.0044e-08
-3.2539e-09
9.98678e-09
-3.95717e-09
9.87393e-09
-4.45172e-09
9.71047e-09
-4.7421e-09
9.50156e-09
-4.83697e-09
9.25253e-09
-4.74828e-09
8.96876e-09
-4.49057e-09
8.6556e-09
-4.07977e-09
8.31841e-09
-3.53176e-09
7.96294e-09
-2.86048e-09
7.59664e-09
-2.07576e-09
7.2305e-09
-1.18169e-09
6.88132e-09
-1.81076e-10
6.57227e-09
9.05455e-10
6.33558e-09
1.97568e-09
6.22379e-09
2.77403e-09
2.74788e-09
6.15893e-09
4.25251e-09
-5.92496e-10
4.31549e-09
-6.85728e-10
4.44285e-09
-6.97082e-10
4.62029e-09
-6.5653e-10
4.82828e-09
-5.80311e-10
5.0547e-09
-4.86629e-10
5.29285e-09
-3.83755e-10
5.53919e-09
-2.73431e-10
5.79195e-09
-1.54595e-10
6.05045e-09
-2.44681e-11
6.31456e-09
1.21016e-10
6.58456e-09
2.8731e-10
6.86116e-09
4.81389e-10
7.14559e-09
7.12662e-10
7.43986e-09
9.92741e-10
7.74744e-09
1.33333e-09
8.07339e-09
1.74821e-09
8.42445e-09
2.25216e-09
8.80971e-09
2.84728e-09
9.24054e-09
3.50951e-09
9.72762e-09
4.15744e-09
1.02755e-08
4.60691e-09
1.07863e-08
3.88819e-09
1.1212e-08
2.58053e-09
1.15473e-08
1.17652e-09
1.1794e-08
-1.78239e-10
1.19565e-08
-1.39232e-09
1.20403e-08
-2.42631e-09
1.20516e-08
-3.26521e-09
1.19966e-08
-3.90222e-09
1.18814e-08
-4.33652e-09
1.17121e-08
-4.5728e-09
1.14951e-08
-4.61999e-09
1.12373e-08
-4.49043e-09
1.09458e-08
-4.19906e-09
1.06283e-08
-3.76228e-09
1.02933e-08
-3.19676e-09
9.95096e-09
-2.51812e-09
9.61517e-09
-1.73997e-09
9.30715e-09
-8.7367e-10
9.05958e-09
6.64955e-11
8.9175e-09
1.04753e-09
8.92388e-09
1.96931e-09
9.07693e-09
2.62098e-09
2.64086e-09
9.18396e-09
6.71186e-09
-5.6357e-10
6.71091e-09
-6.8478e-10
6.75825e-09
-7.44417e-10
6.85956e-09
-7.57847e-10
7.00726e-09
-7.28008e-10
7.18745e-09
-6.66817e-10
7.39187e-09
-5.88172e-10
7.61443e-09
-4.95992e-10
7.85124e-09
-3.91405e-10
8.10003e-09
-2.73265e-10
8.35964e-09
-1.38586e-10
8.62965e-09
1.72943e-11
8.91042e-09
2.00616e-10
9.20301e-09
4.20074e-10
9.5094e-09
6.8635e-10
9.83329e-09
1.00944e-09
1.01801e-08
1.40139e-09
1.05569e-08
1.87535e-09
1.09733e-08
2.43094e-09
1.14411e-08
3.04163e-09
1.19718e-08
3.62682e-09
1.257e-08
4.0087e-09
1.31297e-08
3.32843e-09
1.35983e-08
2.11196e-09
1.39699e-08
8.04895e-10
1.42459e-08
-4.54254e-10
1.44306e-08
-1.57698e-09
1.45297e-08
-2.52537e-09
1.45499e-08
-3.28546e-09
1.44984e-08
-3.85073e-09
1.43823e-08
-4.22044e-09
1.42091e-08
-4.39958e-09
1.39867e-08
-4.39758e-09
1.37237e-08
-4.22742e-09
1.34294e-08
-3.90481e-09
1.31143e-08
-3.44711e-09
1.27901e-08
-2.87254e-09
1.24714e-08
-2.19943e-09
1.21777e-08
-1.4463e-09
1.19369e-08
-6.32903e-10
1.17883e-08
2.1514e-10
1.17796e-08
1.05621e-09
1.19429e-08
1.80603e-09
1.22446e-08
2.31923e-09
2.40726e-09
1.24782e-08
9.99711e-09
-5.16249e-10
9.95335e-09
-6.41022e-10
9.93926e-09
-7.30329e-10
9.96614e-09
-7.8473e-10
1.00382e-08
-8.00041e-10
1.01522e-08
-7.80805e-10
1.03004e-08
-7.3642e-10
1.04767e-08
-6.7228e-10
1.06762e-08
-5.90919e-10
1.08956e-08
-4.92621e-10
1.11326e-08
-3.75646e-10
1.13863e-08
-2.36371e-10
1.16565e-08
-6.95819e-11
1.19441e-08
1.32509e-10
1.22509e-08
3.79514e-10
1.25809e-08
6.79393e-10
1.294e-08
1.04232e-09
1.33355e-08
1.47991e-09
1.37772e-08
1.98921e-09
1.42778e-08
2.54104e-09
1.48488e-08
3.0558e-09
1.54952e-08
3.36231e-09
1.61027e-08
2.72091e-09
1.66138e-08
1.60084e-09
1.70217e-08
3.9698e-10
1.73274e-08
-7.5987e-10
1.75347e-08
-1.78436e-09
1.76497e-08
-2.64037e-09
1.76798e-08
-3.31548e-09
1.76329e-08
-3.80385e-09
1.75175e-08
-4.10508e-09
1.73426e-08
-4.22471e-09
1.7118e-08
-4.17293e-09
1.68542e-08
-3.96363e-09
1.65629e-08
-3.61355e-09
1.62573e-08
-3.1415e-09
1.59525e-08
-2.56767e-09
1.56665e-08
-1.91347e-09
1.54223e-08
-1.20214e-09
1.52494e-08
-4.60029e-10
1.51842e-08
2.80361e-10
1.5264e-08
9.76402e-10
1.55041e-08
1.56596e-09
1.58596e-08
1.96369e-09
2.08382e-09
1.61831e-08
1.43078e-08
-4.61881e-10
1.4242e-08
-5.75212e-10
1.4186e-08
-6.74338e-10
1.4153e-08
-7.51661e-10
1.41535e-08
-8.00611e-10
1.41928e-08
-8.20043e-10
1.42692e-08
-8.12819e-10
1.43795e-08
-7.82604e-10
1.45202e-08
-7.31591e-10
1.46881e-08
-6.60551e-10
1.4881e-08
-5.68573e-10
1.50976e-08
-4.5296e-10
1.53377e-08
-3.09634e-10
1.5602e-08
-1.31786e-10
1.58924e-08
8.90649e-11
1.62134e-08
3.58451e-10
1.65711e-08
6.84542e-10
1.69733e-08
1.07775e-09
1.74302e-08
1.53233e-09
1.79549e-08
2.01633e-09
1.85592e-08
2.45152e-09
1.92478e-08
2.67368e-09
1.98987e-08
2.06999e-09
2.04493e-08
1.05024e-09
2.08913e-08
-4.49924e-11
2.12249e-08
-1.09353e-09
2.1454e-08
-2.01345e-09
2.15845e-08
-2.77079e-09
2.16243e-08
-3.35528e-09
2.15826e-08
-3.76221e-09
2.14694e-08
-3.99185e-09
2.12953e-08
-4.05059e-09
2.1072e-08
-3.94962e-09
2.08122e-08
-3.70389e-09
2.05301e-08
-3.33145e-09
2.02413e-08
-2.85267e-09
1.99634e-08
-2.28976e-09
1.97167e-08
-1.66677e-09
1.95246e-08
-1.01008e-09
1.94137e-08
-3.4914e-10
1.94115e-08
2.82634e-10
1.95399e-08
8.48002e-10
1.98001e-08
1.30567e-09
2.01512e-08
1.61265e-09
1.73772e-09
2.04973e-08
1.98827e-08
-4.05404e-10
1.98091e-08
-5.01688e-10
1.97306e-08
-5.95836e-10
1.96586e-08
-6.79591e-10
1.96043e-08
-7.46359e-10
1.95765e-08
-7.9218e-10
1.95794e-08
-8.15803e-10
1.96146e-08
-8.17804e-10
1.96818e-08
-7.9876e-10
1.978e-08
-7.58763e-10
1.99084e-08
-6.96903e-10
2.00663e-08
-6.10893e-10
2.02543e-08
-4.97639e-10
2.04737e-08
-3.51149e-10
2.07267e-08
-1.6394e-10
2.10185e-08
6.66266e-11
2.13563e-08
3.46707e-10
2.1748e-08
6.86074e-10
2.22044e-08
1.07591e-09
2.27393e-08
1.48144e-09
2.33644e-08
1.82639e-09
2.40841e-08
1.95401e-09
2.47695e-08
1.38454e-09
2.53527e-08
4.67066e-10
2.58233e-08
-5.15541e-10
2.61806e-08
-1.4509e-09
2.64281e-08
-2.26095e-09
2.65716e-08
-2.91427e-09
2.66198e-08
-3.4035e-09
2.65832e-08
-3.72552e-09
2.64729e-08
-3.88164e-09
2.63017e-08
-3.8794e-09
2.60833e-08
-3.73116e-09
2.58325e-08
-3.45308e-09
2.55655e-08
-3.06447e-09
2.52999e-08
-2.5871e-09
2.50549e-08
-2.04468e-09
2.48507e-08
-1.46265e-09
2.47089e-08
-8.6824e-10
2.46499e-08
-2.90187e-10
2.46907e-08
2.4192e-10
2.48391e-08
6.99543e-10
2.5087e-08
1.05775e-09
2.54013e-08
1.29835e-09
1.41514e-09
2.57239e-08
2.70062e-08
-3.46684e-10
2.69306e-08
-4.26028e-10
2.68431e-08
-5.0835e-10
2.67511e-08
-5.87618e-10
2.66631e-08
-6.58393e-10
2.65873e-08
-7.1638e-10
2.65303e-08
-7.58806e-10
2.64968e-08
-7.84263e-10
2.64898e-08
-7.9179e-10
2.65115e-08
-7.80464e-10
2.65635e-08
-7.48846e-10
2.66471e-08
-6.94531e-10
2.67647e-08
-6.15196e-10
2.69188e-08
-5.05299e-10
2.71129e-08
-3.58002e-10
2.73537e-08
-1.74158e-10
2.76498e-08
5.0552e-11
2.80097e-08
3.26201e-10
2.84451e-08
6.40546e-10
2.89707e-08
9.55826e-10
2.95983e-08
1.1988e-09
3.03315e-08
1.22083e-09
3.10368e-08
6.79225e-10
3.16406e-08
-1.36803e-10
3.213e-08
-1.00489e-09
3.25031e-08
-1.82398e-09
3.27626e-08
-2.52044e-09
3.29143e-08
-3.06596e-09
3.29676e-08
-3.45687e-09
3.29342e-08
-3.69213e-09
3.2827e-08
-3.7744e-09
3.26603e-08
-3.71269e-09
3.24498e-08
-3.52067e-09
3.22123e-08
-3.21558e-09
3.19656e-08
-2.81772e-09
3.17282e-08
-2.34971e-09
3.15192e-08
-1.83574e-09
3.13576e-08
-1.30098e-09
3.12604e-08
-7.71112e-10
3.12416e-08
-2.71304e-10
3.13084e-08
1.75119e-10
3.14593e-08
5.48572e-10
3.16815e-08
8.35612e-10
3.19491e-08
1.0307e-09
1.13739e-09
3.22269e-08
3.60111e-08
-2.82726e-10
3.59326e-08
-3.47512e-10
3.5841e-08
-4.16822e-10
3.57402e-08
-4.86779e-10
3.56352e-08
-5.5336e-10
3.55317e-08
-6.12957e-10
3.54357e-08
-6.62729e-10
3.53521e-08
-7.00675e-10
3.52855e-08
-7.25183e-10
3.52399e-08
-7.34872e-10
3.5219e-08
-7.28016e-10
3.52266e-08
-7.02045e-10
3.52669e-08
-6.55579e-10
3.53449e-08
-5.83243e-10
3.54653e-08
-4.78448e-10
3.56377e-08
-3.46488e-10
3.58726e-08
-1.84432e-10
3.61795e-08
1.93429e-11
3.65715e-08
2.48564e-10
3.7065e-08
4.62289e-10
3.76719e-08
5.9195e-10
3.8395e-08
4.97695e-10
3.90994e-08
-2.51731e-11
3.97065e-08
-7.43889e-10
4.01999e-08
-1.49831e-09
4.05764e-08
-2.20045e-09
4.08377e-08
-2.7818e-09
4.09897e-08
-3.21796e-09
4.10427e-08
-3.5098e-09
4.10092e-08
-3.65869e-09
4.09037e-08
-3.66885e-09
4.07421e-08
-3.55108e-09
4.05418e-08
-3.32037e-09
4.03209e-08
-2.99469e-09
4.00979e-08
-2.59479e-09
3.98915e-08
-2.14323e-09
3.97191e-08
-1.66338e-09
3.95966e-08
-1.17851e-09
3.95364e-08
-7.10895e-10
3.95458e-08
-2.80699e-10
3.96256e-08
9.53393e-11
3.97692e-08
4.04957e-10
3.99626e-08
6.42194e-10
4.0186e-08
8.07318e-10
9.06651e-10
4.04168e-08
4.72709e-08
-2.1051e-10
4.71867e-08
-2.63327e-10
4.70906e-08
-3.20774e-10
4.69844e-08
-3.80488e-10
4.68706e-08
-4.39652e-10
4.67532e-08
-4.95477e-10
4.66359e-08
-5.45499e-10
4.6523e-08
-5.87784e-10
4.64185e-08
-6.20655e-10
4.63265e-08
-6.42844e-10
4.62513e-08
-6.52855e-10
4.61975e-08
-6.48261e-10
4.61712e-08
-6.29227e-10
4.61785e-08
-5.90599e-10
4.6226e-08
-5.259e-10
4.63258e-08
-4.46266e-10
4.64909e-08
-3.49604e-10
4.67313e-08
-2.21036e-10
4.70628e-08
-8.29272e-11
4.75039e-08
2.12061e-11
4.80665e-08
2.93632e-11
4.87531e-08
-1.88934e-10
4.94315e-08
-7.0353e-10
5.00196e-08
-1.33202e-09
5.04979e-08
-1.97662e-09
5.08614e-08
-2.56397e-09
5.1111e-08
-3.03134e-09
5.12524e-08
-3.35941e-09
5.12971e-08
-3.55447e-09
5.12586e-08
-3.62017e-09
5.11521e-08
-3.56243e-09
5.09952e-08
-3.3941e-09
5.08061e-08
-3.13132e-09
5.06037e-08
-2.79227e-09
5.04062e-08
-2.3973e-09
5.02308e-08
-1.96788e-09
5.00928e-08
-1.52529e-09
5.00039e-08
-1.08963e-09
4.99719e-08
-6.7889e-10
4.99992e-08
-3.08e-10
5.00824e-08
1.2084e-11
5.02135e-08
2.73888e-10
5.03794e-08
4.7633e-10
5.05648e-08
6.21852e-10
7.16827e-10
5.07547e-08
6.11885e-08
-1.29076e-10
6.10973e-08
-1.72109e-10
6.09959e-08
-2.19389e-10
6.0885e-08
-2.69553e-10
6.07661e-08
-3.20743e-10
6.06415e-08
-3.70929e-10
6.05142e-08
-4.1813e-10
6.03871e-08
-4.60692e-10
6.02635e-08
-4.9706e-10
6.01469e-08
-5.26241e-10
6.00412e-08
-5.47174e-10
5.99507e-08
-5.57758e-10
5.98814e-08
-5.59955e-10
5.98399e-08
-5.49099e-10
5.98336e-08
-5.19524e-10
5.98757e-08
-4.88402e-10
5.99798e-08
-4.53716e-10
6.01567e-08
-3.97949e-10
6.0425e-08
-3.51236e-10
6.08044e-08
-3.58134e-10
6.13069e-08
-4.73209e-10
6.1935e-08
-8.16989e-10
6.2563e-08
-1.33157e-09
6.31089e-08
-1.87794e-09
6.35513e-08
-2.41892e-09
6.38836e-08
-2.89627e-09
6.41056e-08
-3.25336e-09
6.4224e-08
-3.4778e-09
6.42514e-08
-3.58191e-09
6.42019e-08
-3.57071e-09
6.40914e-08
-3.45185e-09
6.39378e-08
-3.24054e-09
6.37601e-08
-2.95364e-09
6.35766e-08
-2.60876e-09
6.34043e-08
-2.22497e-09
6.32581e-08
-1.82165e-09
6.31499e-08
-1.41711e-09
6.30878e-08
-1.0276e-09
6.30757e-08
-6.66735e-10
6.31126e-08
-3.44898e-10
6.31932e-08
-6.8518e-11
6.33093e-08
1.57724e-10
6.34501e-08
3.35626e-10
6.36038e-08
4.68114e-10
5.60774e-10
6.37598e-08
7.81934e-08
-4.03014e-11
7.80968e-08
-7.54786e-11
7.79918e-08
-1.14384e-10
7.78785e-08
-1.56315e-10
7.77579e-08
-2.00161e-10
7.76316e-08
-2.4458e-10
7.75016e-08
-2.88134e-10
7.73705e-08
-3.29573e-10
7.7241e-08
-3.67628e-10
7.71164e-08
-4.01609e-10
7.7e-08
-4.30805e-10
7.68962e-08
-4.53889e-10
7.68098e-08
-4.73549e-10
7.67465e-08
-4.85822e-10
7.6717e-08
-4.90009e-10
7.67307e-08
-5.0214e-10
7.67957e-08
-5.18673e-10
7.69293e-08
-5.31634e-10
7.7151e-08
-5.72887e-10
7.74781e-08
-6.85249e-10
7.79211e-08
-9.16174e-10
7.84813e-08
-1.37725e-09
7.90433e-08
-1.89352e-09
7.95291e-08
-2.3637e-09
7.9918e-08
-2.80788e-09
8.02032e-08
-3.18145e-09
8.03835e-08
-3.43367e-09
8.04676e-08
-3.56193e-09
8.04702e-08
-3.5845e-09
8.04049e-08
-3.50539e-09
8.02875e-08
-3.33443e-09
8.01364e-08
-3.08947e-09
7.997e-08
-2.78722e-09
7.9805e-08
-2.44381e-09
7.96564e-08
-2.0763e-09
7.9536e-08
-1.70131e-09
7.94526e-08
-1.33369e-09
7.94109e-08
-9.85843e-10
7.94116e-08
-6.67469e-10
7.94521e-08
-3.85365e-10
7.95268e-08
-1.43271e-10
7.96276e-08
5.69452e-11
7.97461e-08
2.17127e-10
7.98734e-08
3.40796e-10
4.32417e-10
8.00018e-08
9.87645e-08
5.21053e-11
9.86662e-08
2.28665e-11
9.85614e-08
-9.58859e-12
9.84501e-08
-4.50258e-11
9.83328e-08
-8.28859e-11
9.82106e-08
-1.22402e-10
9.80852e-08
-1.62717e-10
9.79587e-08
-2.03052e-10
9.78337e-08
-2.42582e-10
9.77131e-08
-2.81098e-10
9.76003e-08
-3.17949e-10
9.75001e-08
-3.53648e-10
9.74162e-08
-3.89689e-10
9.73538e-08
-4.23435e-10
9.73287e-08
-4.6488e-10
9.73397e-08
-5.13207e-10
9.73908e-08
-5.69687e-10
9.75081e-08
-6.49016e-10
9.77117e-08
-7.76449e-10
9.80093e-08
-9.8288e-10
9.84081e-08
-1.31499e-09
9.89073e-08
-1.87637e-09
9.94005e-08
-2.3868e-09
9.9819e-08
-2.78214e-09
1.00146e-07
-3.13514e-09
1.00375e-07
-3.41068e-09
1.00506e-07
-3.56378e-09
1.0055e-07
-3.60607e-09
1.00525e-07
-3.55946e-09
1.00442e-07
-3.42247e-09
1.00317e-07
-3.20986e-09
1.00169e-07
-2.94175e-09
1.00015e-07
-2.63289e-09
9.98687e-08
-2.29732e-09
9.97421e-08
-1.94974e-09
9.96445e-08
-1.60369e-09
9.95813e-08
-1.27054e-09
9.95547e-08
-9.59249e-10
9.95637e-08
-6.7642e-10
9.96047e-08
-4.26337e-10
9.96723e-08
-2.10917e-10
9.97586e-08
-2.93118e-11
9.98583e-08
1.17347e-10
9.9964e-08
2.35117e-10
3.2653e-10
1.0007e-07