/*--------------------------------*- C++ -*----------------------------------*\
| =========                 |                                                 |
| \\      /  F ield         | OpenFOAM: The Open Source CFD Toolbox           |
|  \\    /   O peration     | Version:  2312                                  |
|   \\  /    A nd           | Website:  www.openfoam.com                      |
|    \\/     M anipulation  |                                                 |
\*---------------------------------------------------------------------------*/
FoamFile
{
    version     2.0;
    format      ascii;
    arch        "LSB;label=32;scalar=64";
    class       volVectorField;
    location    "156";
    object      U;
}
// * * * * * * * * * * * * * * * * * * * * * * * * * * * * * * * * * * * * * //

dimensions      [0 1 -1 0 0 0 0];

internalField   nonuniform List<vector> 
4800
(
(0.000492414 2.73957e-07 -2.85174e-26)
(0.000485995 3.21503e-07 -2.03643e-25)
(0.000482208 3.51871e-07 2.60477e-25)
(0.000480177 3.61939e-07 1.22768e-25)
(0.000479434 3.66895e-07 1.84226e-24)
(0.000479769 3.45429e-07 -4.40762e-24)
(0.000481045 3.11774e-07 4.16679e-24)
(0.000483197 2.33413e-07 -6.10778e-24)
(0.000486307 6.71874e-08 1.94564e-24)
(0.000490605 -2.28523e-07 6.75638e-24)
(0.000496544 -7.94031e-07 -2.07919e-24)
(0.000505446 -2.30162e-06 -1.70059e-25)
(0.000524859 -7.80277e-06 -2.56782e-24)
(0.000573796 -3.01563e-05 1.1905e-24)
(0.000655102 -9.89808e-05 -9.44478e-25)
(0.00152258 1.39011e-06 -9.09293e-26)
(0.00150236 9.90994e-07 1.13409e-25)
(0.00148996 6.69271e-07 -1.07457e-24)
(0.00148282 3.68015e-07 7.96439e-25)
(0.00147955 7.39685e-08 2.6442e-24)
(0.00147949 -2.75166e-07 -4.22767e-24)
(0.00148211 -6.9904e-07 -1.24428e-24)
(0.00148729 -1.27435e-06 -3.23882e-25)
(0.00149522 -2.17112e-06 1.02002e-23)
(0.00150646 -3.63458e-06 -7.56571e-24)
(0.00152232 -6.32441e-06 8.23623e-25)
(0.00154563 -1.25654e-05 1.26751e-24)
(0.00158563 -3.04432e-05 -1.88119e-24)
(0.00165369 -8.51772e-05 -5.64613e-25)
(0.00172717 -0.000209999 2.4549e-24)
(0.00266055 4.53442e-06 -6.52196e-26)
(0.00262503 3.26866e-06 6.65423e-26)
(0.00260262 2.28259e-06 7.03204e-25)
(0.00258909 1.39128e-06 -1.69009e-24)
(0.00258211 4.69441e-07 1.67875e-24)
(0.00258046 -6.03306e-07 1.60024e-24)
(0.00258329 -1.92244e-06 -4.127e-24)
(0.00259013 -3.6943e-06 -2.63792e-24)
(0.00260144 -6.29094e-06 6.31344e-24)
(0.00261766 -1.03465e-05 2.41192e-24)
(0.00264026 -1.74084e-05 -8.37498e-24)
(0.00267147 -3.16057e-05 -1.29004e-24)
(0.00271552 -6.29601e-05 3.59113e-24)
(0.00277121 -0.00013231 5.70458e-24)
(0.00281182 -0.000249143 -2.94775e-24)
(0.0039116 1.02528e-05 2.4135e-26)
(0.00385975 7.5693e-06 -1.6933e-25)
(0.00382616 5.48484e-06 7.65758e-25)
(0.003805 3.61049e-06 8.44716e-25)
(0.00379308 1.67871e-06 -8.16484e-25)
(0.00378845 -5.70951e-07 -4.79828e-24)
(0.00379019 -3.21665e-06 -3.31738e-24)
(0.00379702 -6.77106e-06 1.25918e-23)
(0.00380969 -1.19128e-05 5.34415e-24)
(0.00382809 -1.95707e-05 -7.62152e-24)
(0.00385302 -3.19578e-05 -3.08981e-24)
(0.00388494 -5.37705e-05 -2.37434e-24)
(0.00392297 -9.33934e-05 6.71274e-26)
(0.00395962 -0.000161726 1.76266e-24)
(0.00397531 -0.000254593 8.63271e-27)
(0.00527836 1.91131e-05 -4.42941e-26)
(0.00521015 1.43829e-05 -2.73652e-25)
(0.00516477 1.07081e-05 -1.81633e-25)
(0.0051351 7.41684e-06 4.71922e-25)
(0.00511713 4.06836e-06 -1.38948e-24)
(0.00510821 3.02577e-07 3.47784e-24)
(0.00510733 -4.36125e-06 -5.98157e-25)
(0.00511251 -1.00396e-05 2.18272e-24)
(0.00512412 -1.81961e-05 -1.2259e-23)
(0.00514163 -2.98218e-05 2.34351e-23)
(0.00516462 -4.71422e-05 -2.27479e-23)
(0.00519179 -7.40278e-05 1.20576e-23)
(0.00521957 -0.000115524 -1.12345e-23)
(0.00523988 -0.000175093 1.06273e-23)
(0.00524151 -0.000245401 -4.24508e-24)
(0.00675899 3.16827e-05 5.84513e-26)
(0.00667615 2.42848e-05 2.11643e-25)
(0.00661954 1.85306e-05 -1.12619e-24)
(0.00658122 1.33953e-05 -7.40419e-25)
(0.00655659 8.23853e-06 1.94984e-24)
(0.0065425 2.48161e-06 7.16292e-25)
(0.00653738 -4.28421e-06 -5.64998e-24)
(0.00653942 -1.2723e-05 1.35689e-23)
(0.00654786 -2.39983e-05 -1.77612e-23)
(0.00656162 -3.92682e-05 4.24345e-24)
(0.00657937 -6.03232e-05 1.31002e-23)
(0.00659873 -8.9498e-05 -1.82787e-23)
(0.00661565 -0.000128729 9.15935e-24)
(0.00662411 -0.000177567 9.45933e-24)
(0.0066189 -0.000229787 -7.20537e-24)
(0.00834491 4.8209e-05 4.82068e-26)
(0.00825195 3.76633e-05 -2.87327e-25)
(0.00818656 2.9429e-05 1.0432e-24)
(0.00814078 2.20927e-05 -1.46145e-24)
(0.00810982 1.47996e-05 -5.08362e-24)
(0.00809037 6.79666e-06 8.67487e-24)
(0.00808031 -2.43463e-06 -5.33934e-24)
(0.00807779 -1.3586e-05 1.83636e-23)
(0.00808141 -2.77941e-05 -1.24793e-23)
(0.00808949 -4.60054e-05 -5.88914e-24)
(0.00810011 -6.9292e-05 -1.17001e-23)
(0.00811066 -9.85386e-05 1.07413e-23)
(0.00811786 -0.000133679 3.03629e-24)
(0.00811802 -0.00017286 2.61862e-24)
(0.00810938 -0.000211811 -2.30458e-24)
(0.0100186 6.81623e-05 -6.91984e-26)
(0.00992368 5.43472e-05 9.49396e-25)
(0.0098546 4.34661e-05 -2.23206e-24)
(0.00980454 3.37502e-05 -1.88992e-24)
(0.00976913 2.41459e-05 6.5954e-25)
(0.00974523 1.37989e-05 1.36937e-24)
(0.00973054 2.07011e-06 5.08204e-24)
(0.00972308 -1.16499e-05 -1.39998e-23)
(0.00972113 -2.82829e-05 -7.6157e-24)
(0.00972275 -4.84472e-05 2.07149e-23)
(0.00972584 -7.25059e-05 -6.50586e-24)
(0.0097281 -0.00010034 2.22582e-23)
(0.00972734 -0.000130988 -1.17354e-23)
(0.00972155 -0.000162539 -3.76716e-24)
(0.00971067 -0.000192348 2.23324e-24)
(0.0117533 8.969e-05 -9.10943e-27)
(0.0116681 7.31291e-05 5.23746e-25)
(0.0116033 5.98715e-05 -7.48487e-25)
(0.0115545 4.79278e-05 1.84242e-24)
(0.0115185 3.61198e-05 -1.11198e-23)
(0.0114927 2.35679e-05 1.17807e-23)
(0.011475 9.61505e-06 -1.89104e-23)
(0.0114636 -6.26639e-06 1.15685e-23)
(0.0114567 -2.45822e-05 8.71501e-24)
(0.0114524 -4.56507e-05 1.91591e-23)
(0.0114489 -6.9296e-05 -2.50576e-23)
(0.0114444 -9.48987e-05 -4.69952e-24)
(0.0114378 -0.00012133 2.1196e-24)
(0.0114278 -0.000147124 1.55016e-23)
(0.0114152 -0.000170739 -6.31631e-24)
(0.0135172 0.000109247 4.98187e-26)
(0.0134549 9.13296e-05 -2.1867e-25)
(0.0134044 7.65885e-05 9.94289e-25)
(0.0133642 6.3052e-05 -3.536e-24)
(0.013333 4.95577e-05 5.41192e-24)
(0.0133094 3.52974e-05 -7.0838e-24)
(0.0132918 1.97064e-05 1.19739e-23)
(0.0132789 2.41591e-06 2.18589e-24)
(0.013269 -1.67022e-05 -1.67316e-23)
(0.0132607 -3.77003e-05 2.4037e-23)
(0.0132528 -6.00796e-05 -2.65783e-23)
(0.0132439 -8.31045e-05 -7.92145e-24)
(0.0132336 -0.000105819 1.39056e-23)
(0.0132212 -0.000127254 4.15126e-24)
(0.0132076 -0.000146554 -1.81613e-24)
(0.0152857 0.000122122 2.00921e-25)
(0.0152559 0.000104932 -1.70589e-24)
(0.0152278 9.01937e-05 -2.81243e-24)
(0.0152033 7.62066e-05 6.6245e-24)
(0.0151827 6.19928e-05 3.05165e-24)
(0.015166 4.69241e-05 -1.91887e-23)
(0.0151525 3.06092e-05 5.84127e-24)
(0.0151413 1.29309e-05 4.25394e-24)
(0.0151316 -6.12064e-06 -1.89444e-23)
(0.0151222 -2.60959e-05 1.96267e-23)
(0.0151126 -4.65726e-05 -1.59671e-23)
(0.0151021 -6.69014e-05 4.09205e-23)
(0.0150905 -8.63667e-05 -1.9766e-23)
(0.0150776 -0.000104383 1.16719e-23)
(0.0150642 -0.000120495 -3.19104e-24)
(0.0170576 0.000124629 -8.07518e-26)
(0.0170595 0.000110082 1.16439e-24)
(0.0170559 9.69333e-05 -2.28462e-24)
(0.0170499 8.38428e-05 -1.19923e-24)
(0.0170432 7.01244e-05 1.33472e-23)
(0.0170365 5.53976e-05 -1.84391e-24)
(0.01703 3.95112e-05 -2.41296e-23)
(0.0170235 2.25301e-05 2.83582e-23)
(0.0170168 4.6689e-06 -6.33403e-24)
(0.0170093 -1.35395e-05 -2.2326e-23)
(0.0170008 -3.16909e-05 2.39314e-23)
(0.0169912 -4.92731e-05 1.3038e-23)
(0.0169807 -6.581e-05 -1.08616e-23)
(0.016969 -8.09731e-05 -1.89891e-23)
(0.0169571 -9.45287e-05 1.59713e-24)
(0.0188579 0.000117038 5.82175e-27)
(0.0188803 0.000105782 -1.3235e-24)
(0.0188943 9.50986e-05 6.28451e-24)
(0.018903 8.38621e-05 4.51996e-25)
(0.0189082 7.16274e-05 3.72219e-24)
(0.0189108 5.82593e-05 -1.31001e-23)
(0.0189115 4.3824e-05 1.13553e-23)
(0.0189104 2.85395e-05 2.67758e-24)
(0.0189077 1.27977e-05 2.37416e-23)
(0.0189035 -3.09509e-06 -3.65081e-23)
(0.0188978 -1.86318e-05 -1.66585e-23)
(0.0188906 -3.34507e-05 -1.11075e-23)
(0.0188825 -4.72609e-05 2.08447e-23)
(0.0188732 -5.98863e-05 -6.07435e-25)
(0.0188637 -7.1212e-05 2.03128e-24)
(0.0207138 0.000103632 -1.16285e-26)
(0.0207422 9.50733e-05 1.40547e-24)
(0.020763 8.67165e-05 -2.0482e-24)
(0.0207781 7.75606e-05 2.51799e-28)
(0.0207891 6.72607e-05 2.66429e-24)
(0.0207967 5.58101e-05 6.85048e-24)
(0.0208015 4.34004e-05 -2.66058e-23)
(0.0208038 3.03486e-05 2.1676e-24)
(0.020804 1.70287e-05 1.36119e-23)
(0.0208022 3.79337e-06 -6.34991e-24)
(0.0207989 -9.02401e-06 1.73078e-23)
(0.020794 -2.11723e-05 1.2199e-23)
(0.0207882 -3.24563e-05 -2.21108e-23)
(0.0207813 -4.27801e-05 1.51838e-23)
(0.0207741 -5.20889e-05 -1.26186e-23)
(0.022618 8.88612e-05 -3.77797e-25)
(0.0226439 8.24069e-05 -2.89851e-26)
(0.0226636 7.58505e-05 2.57811e-24)
(0.0226785 6.85066e-05 -1.27172e-23)
(0.0226896 6.01844e-05 1.11652e-23)
(0.0226975 5.08781e-05 -8.12323e-24)
(0.0227028 4.07462e-05 5.81626e-24)
(0.0227056 3.00925e-05 -4.15882e-23)
(0.0227064 1.92743e-05 6.00376e-23)
(0.0227054 8.5965e-06 -3.5531e-23)
(0.0227029 -1.69815e-06 3.1772e-23)
(0.0226991 -1.14295e-05 2.66864e-23)
(0.0226945 -2.04693e-05 -4.66309e-23)
(0.0226888 -2.8765e-05 1.51893e-23)
(0.022683 -3.62874e-05 -6.38544e-25)
(0.0245157 7.43048e-05 -1.326e-26)
(0.0245373 7.00692e-05 -7.51383e-25)
(0.0245535 6.5366e-05 7.59697e-25)
(0.0245656 5.96952e-05 -3.63674e-25)
(0.0245746 5.32212e-05 4.76747e-24)
(0.0245807 4.60559e-05 -8.1299e-24)
(0.0245845 3.82783e-05 7.49259e-24)
(0.0245862 3.00872e-05 -2.36176e-23)
(0.0245863 2.17528e-05 5.37155e-23)
(0.0245848 1.35048e-05 -6.87613e-23)
(0.0245823 5.53208e-06 5.63505e-23)
(0.0245785 -2.03573e-06 -1.90363e-23)
(0.0245742 -9.09911e-06 9.90143e-25)
(0.024569 -1.56164e-05 4.36794e-24)
(0.0245637 -2.15633e-05 -8.37409e-24)
(0.0263168 5.98684e-05 -1.05567e-24)
(0.0263349 5.79818e-05 1.08971e-24)
(0.0263478 5.55812e-05 5.95045e-25)
(0.026357 5.19774e-05 -2.42817e-24)
(0.0263637 4.75068e-05 8.57862e-24)
(0.0263679 4.24159e-05 -8.47576e-24)
(0.0263701 3.68681e-05 -7.17897e-24)
(0.0263705 3.10585e-05 -1.70664e-23)
(0.0263697 2.5146e-05 8.94674e-24)
(0.0263676 1.92419e-05 4.13771e-23)
(0.0263646 1.34598e-05 -2.17836e-23)
(0.0263607 7.89924e-06 1.29005e-23)
(0.0263564 2.65446e-06 -5.32987e-24)
(0.0263514 -2.22398e-06 -1.56752e-23)
(0.0263462 -6.70532e-06 8.01066e-24)
(0.027901 4.54961e-05 3.28419e-25)
(0.0279158 4.61287e-05 -4.68203e-25)
(0.0279261 4.60904e-05 1.41248e-24)
(0.0279328 4.48835e-05 -5.37124e-24)
(0.0279374 4.28669e-05 -1.80225e-24)
(0.02794 3.9992e-05 1.58672e-23)
(0.027941 3.65555e-05 -1.19109e-23)
(0.0279405 3.29555e-05 -6.87264e-24)
(0.027939 2.92877e-05 6.47024e-24)
(0.0279364 2.55639e-05 -7.10829e-24)
(0.027933 2.18387e-05 1.66488e-23)
(0.027929 1.81694e-05 8.20592e-24)
(0.0279246 1.46392e-05 -3.07174e-23)
(0.0279197 1.13136e-05 2.11029e-23)
(0.0279148 8.23326e-06 -4.27642e-24)
(0.0291018 3.20242e-05 9.10014e-25)
(0.0291129 3.52805e-05 6.32767e-25)
(0.0291209 3.76166e-05 -1.80667e-24)
(0.0291257 3.8418e-05 2.58447e-24)
(0.0291285 3.9557e-05 -3.67256e-24)
(0.0291298 3.85984e-05 -6.42033e-24)
(0.0291295 3.7356e-05 -5.45588e-24)
(0.0291286 3.60278e-05 1.42733e-23)
(0.0291269 3.45532e-05 1.39706e-23)
(0.0291245 3.29348e-05 -3.76804e-23)
(0.0291214 3.11726e-05 2.33952e-23)
(0.0291175 2.92618e-05 -1.66962e-24)
(0.0291133 2.73356e-05 -1.33756e-24)
(0.0291087 2.54901e-05 1.77629e-24)
(0.029104 2.37524e-05 -8.1077e-25)
(0.0296963 1.9427e-05 -2.21898e-24)
(0.0297058 2.49582e-05 -2.81117e-24)
(0.0297121 2.91303e-05 4.2192e-24)
(0.0297167 3.26044e-05 8.11741e-25)
(0.0297189 3.5497e-05 4.45935e-25)
(0.0297204 3.72784e-05 3.47069e-24)
(0.0297205 3.89616e-05 -2.5489e-24)
(0.0297196 3.96236e-05 -1.60036e-23)
(0.029718 3.98122e-05 3.73581e-23)
(0.0297157 3.97094e-05 -1.63403e-23)
(0.0297128 3.94164e-05 6.13351e-24)
(0.0297095 3.90284e-05 -1.09338e-23)
(0.029706 3.85942e-05 -1.08067e-23)
(0.0297023 3.81194e-05 1.56912e-23)
(0.0296983 3.76272e-05 -6.66981e-24)
(0.029498 8.91958e-06 3.26165e-24)
(0.0295039 1.6079e-05 -6.62258e-24)
(0.0295077 2.23476e-05 1.83997e-24)
(0.0295101 2.76445e-05 2.10871e-24)
(0.029511 3.21938e-05 5.85144e-25)
(0.0295111 3.59481e-05 -2.93859e-24)
(0.0295103 3.89444e-05 -9.66794e-24)
(0.0295088 4.13258e-05 2.36465e-23)
(0.0295068 4.32763e-05 5.65584e-24)
(0.0295044 4.48997e-05 -1.40399e-23)
(0.0295016 4.62496e-05 -7.15189e-24)
(0.0294985 4.73771e-05 8.0733e-24)
(0.0294952 4.8327e-05 -8.53334e-24)
(0.0294917 4.91204e-05 4.80453e-24)
(0.0294879 4.97865e-05 -2.06669e-24)
(0.028484 2.94901e-06 1.88631e-24)
(0.0284881 1.12457e-05 -3.59594e-24)
(0.0284909 1.85945e-05 -1.01884e-24)
(0.028493 2.49728e-05 4.88042e-24)
(0.0284942 3.05373e-05 -1.77237e-24)
(0.0284948 3.53341e-05 1.08052e-24)
(0.0284948 3.94697e-05 -6.71074e-25)
(0.0284943 4.30513e-05 -1.60573e-24)
(0.0284936 4.61992e-05 -3.74053e-24)
(0.0284925 4.89493e-05 2.38366e-23)
(0.0284911 5.1367e-05 -1.47163e-23)
(0.0284895 5.34855e-05 1.42974e-24)
(0.0284876 5.53345e-05 -1.84205e-23)
(0.0284856 5.69568e-05 8.89389e-24)
(0.0284833 5.83961e-05 2.83081e-24)
(0.0269198 2.14727e-07 4.4729e-24)
(0.0269209 8.79883e-06 -7.38223e-24)
(0.0269213 1.64659e-05 1.66659e-24)
(0.0269214 2.3275e-05 -9.67895e-25)
(0.0269212 2.93158e-05 1.30327e-24)
(0.0269207 3.46361e-05 -4.3688e-25)
(0.02692 3.93801e-05 2.13864e-24)
(0.0269192 4.35798e-05 -1.67731e-24)
(0.0269182 4.73277e-05 1.40568e-24)
(0.0269171 5.06491e-05 7.68419e-24)
(0.0269158 5.35882e-05 -1.6772e-23)
(0.0269145 5.62438e-05 1.27756e-23)
(0.026913 5.85389e-05 -1.11407e-24)
(0.0269115 6.06008e-05 -3.7812e-24)
(0.0269099 6.24565e-05 5.90706e-25)
(0.025009 3.02255e-07 1.67059e-24)
(0.0250078 8.76093e-06 -7.46439e-24)
(0.0250066 1.63894e-05 1.09573e-23)
(0.0250057 2.3242e-05 -6.62012e-24)
(0.0250048 2.93803e-05 2.99479e-24)
(0.025004 3.4877e-05 -1.99242e-24)
(0.0250033 3.98118e-05 -4.98425e-25)
(0.0250027 4.42365e-05 1.41351e-24)
(0.0250021 4.82004e-05 -6.36689e-24)
(0.0250016 5.17475e-05 -2.67339e-24)
(0.025001 5.49125e-05 9.7666e-24)
(0.0250006 5.77582e-05 2.85569e-24)
(0.0250002 6.03002e-05 -4.79799e-24)
(0.0249999 6.25673e-05 1.51196e-24)
(0.0249995 6.45782e-05 -4.29501e-25)
(0.0229015 2.55657e-06 2.18742e-25)
(0.0228988 1.0454e-05 -2.7251e-24)
(0.0228969 1.76001e-05 -6.49202e-25)
(0.0228957 2.40499e-05 7.98189e-24)
(0.0228949 2.98645e-05 -5.92355e-24)
(0.0228946 3.51033e-05 1.2462e-24)
(0.0228946 3.98258e-05 -2.92756e-26)
(0.022895 4.40811e-05 1.57189e-25)
(0.0228956 4.79098e-05 1.81848e-24)
(0.0228965 5.13507e-05 -1.0439e-23)
(0.0228976 5.44353e-05 9.36394e-24)
(0.0228989 5.72013e-05 1.15786e-24)
(0.0229004 5.96626e-05 -1.47997e-24)
(0.0229021 6.18376e-05 -2.60668e-24)
(0.0229039 6.3752e-05 2.1847e-24)
(0.0207113 5.51127e-06 3.23774e-25)
(0.0207087 1.23972e-05 2.46485e-24)
(0.0207072 1.86551e-05 -2.904e-24)
(0.0207069 2.43246e-05 -1.23715e-24)
(0.0207074 2.94566e-05 5.34186e-24)
(0.0207086 3.40988e-05 -4.10459e-24)
(0.0207103 3.82979e-05 -3.95892e-25)
(0.0207126 4.20932e-05 5.66569e-25)
(0.0207153 4.55151e-05 4.5145e-25)
(0.0207185 4.85892e-05 5.68595e-26)
(0.020722 5.1336e-05 2.6959e-24)
(0.0207258 5.37769e-05 -1.07973e-24)
(0.0207299 5.59274e-05 -1.93975e-25)
(0.0207343 5.78018e-05 -5.75282e-25)
(0.0207389 5.94148e-05 -1.90819e-24)
(0.0185256 7.63345e-06 2.31191e-24)
(0.0185245 1.32629e-05 -3.3944e-24)
(0.0185248 1.84175e-05 -1.85968e-24)
(0.0185264 2.31043e-05 5.4656e-24)
(0.0185289 2.73622e-05 -1.9967e-24)
(0.0185323 3.12275e-05 -1.10115e-24)
(0.0185365 3.47332e-05 5.64643e-25)
(0.0185412 3.79051e-05 -7.23384e-25)
(0.0185466 4.07615e-05 2.7658e-24)
(0.0185524 4.33181e-05 -4.21805e-24)
(0.0185587 4.55895e-05 3.37485e-24)
(0.0185653 4.75905e-05 -2.16218e-24)
(0.0185723 4.93341e-05 4.6972e-24)
(0.0185797 5.08307e-05 -5.58808e-24)
(0.0185873 5.2092e-05 1.7649e-24)
(0.0164064 8.17247e-06 -4.51497e-25)
(0.0164074 1.25281e-05 -1.30086e-24)
(0.01641 1.65526e-05 -3.35084e-24)
(0.0164138 2.02212e-05 9.20164e-24)
(0.0164187 2.35662e-05 -2.15346e-24)
(0.0164244 2.66144e-05 -1.71404e-24)
(0.0164309 2.93857e-05 -7.36646e-26)
(0.0164381 3.18945e-05 -1.16776e-26)
(0.0164458 3.41511e-05 2.26356e-24)
(0.0164541 3.61656e-05 -2.02739e-24)
(0.0164628 3.79474e-05 -1.06836e-25)
(0.016472 3.95054e-05 2.69991e-24)
(0.0164815 4.08478e-05 -2.99502e-24)
(0.0164913 4.19807e-05 -4.19004e-25)
(0.0165014 4.29106e-05 4.89401e-25)
(0.0143924 7.25659e-06 1.74098e-24)
(0.0143954 1.04186e-05 2.01738e-24)
(0.0143999 1.34188e-05 -2.39018e-24)
(0.0144055 1.61574e-05 -3.48261e-24)
(0.0144122 1.86644e-05 3.63306e-24)
(0.0144196 2.09608e-05 -2.81134e-24)
(0.0144278 2.30568e-05 7.2227e-25)
(0.0144366 2.49591e-05 4.7401e-25)
(0.0144461 2.66724e-05 -1.43876e-25)
(0.014456 2.82015e-05 1.72576e-24)
(0.0144663 2.95508e-05 1.00837e-24)
(0.014477 3.07246e-05 -6.68991e-24)
(0.014488 3.17273e-05 2.69528e-24)
(0.0144993 3.25621e-05 1.10894e-24)
(0.0145108 3.3233e-05 1.06614e-25)
(0.0125039 5.38745e-06 -1.82339e-24)
(0.0125081 7.61676e-06 2.29384e-24)
(0.0125136 9.73992e-06 1.42427e-25)
(0.0125202 1.16917e-05 2.86649e-24)
(0.0125277 1.34967e-05 -2.68564e-24)
(0.0125359 1.51638e-05 -2.08748e-25)
(0.0125447 1.66961e-05 -4.60986e-25)
(0.0125542 1.80949e-05 -2.62528e-25)
(0.0125641 1.93608e-05 -5.52532e-25)
(0.0125746 2.04951e-05 1.89954e-24)
(0.0125853 2.14988e-05 5.05875e-25)
(0.0125965 2.23735e-05 -4.84873e-25)
(0.0126078 2.31213e-05 -6.5205e-25)
(0.0126195 2.37433e-05 -4.1449e-25)
(0.0126312 2.42424e-05 -2.78163e-25)
(0.0107488 3.26169e-06 1.36921e-24)
(0.0107533 4.76594e-06 -1.12078e-24)
(0.010759 6.20137e-06 -3.69381e-24)
(0.0107655 7.54186e-06 3.43691e-24)
(0.0107727 8.79675e-06 3.08468e-24)
(0.0107806 9.97036e-06 -1.54051e-24)
(0.0107891 1.1061e-05 -1.35798e-24)
(0.0107982 1.20669e-05 -3.26051e-26)
(0.0108076 1.29865e-05 -3.45931e-25)
(0.0108175 1.3819e-05 -2.71045e-25)
(0.0108277 1.45632e-05 5.46382e-25)
(0.0108381 1.52193e-05 4.04559e-25)
(0.0108488 1.57876e-05 -7.70869e-25)
(0.0108597 1.62681e-05 -7.06135e-26)
(0.0108706 1.66625e-05 3.07779e-25)
(0.00912811 1.38828e-06 -8.67278e-25)
(0.00913212 2.3454e-06 -4.54117e-25)
(0.00913704 3.28395e-06 7.63427e-25)
(0.00914265 4.17003e-06 -1.44627e-24)
(0.0091489 5.01416e-06 4.44409e-24)
(0.00915572 5.81772e-06 -4.39288e-24)
(0.00916304 6.57636e-06 2.81165e-24)
(0.00917081 7.28704e-06 -7.72883e-25)
(0.00917897 7.94714e-06 -3.10978e-25)
(0.00918747 8.55472e-06 -3.53479e-25)
(0.00919626 9.10768e-06 3.15866e-25)
(0.0092053 9.60513e-06 -5.99868e-25)
(0.00921453 1.00465e-05 8.77372e-25)
(0.00922392 1.0431e-05 2.3028e-25)
(0.00923339 1.07595e-05 -1.40451e-25)
(0.00763884 3.17463e-08 -4.22196e-25)
(0.00764178 6.02947e-07 1.4228e-25)
(0.00764547 1.18953e-06 2.22015e-25)
(0.0076497 1.75358e-06 -7.09334e-25)
(0.00765446 2.30249e-06 -9.35641e-26)
(0.00765969 2.8371e-06 1.84542e-24)
(0.00766534 3.35245e-06 -9.41168e-25)
(0.00767139 3.84512e-06 -1.71479e-26)
(0.00767778 4.31239e-06 -1.60597e-26)
(0.00768447 4.75192e-06 1.87381e-25)
(0.00769143 5.16118e-06 2.22459e-25)
(0.00769861 5.53892e-06 -8.48754e-25)
(0.00770598 5.88402e-06 -6.49868e-25)
(0.0077135 6.19581e-06 8.83777e-25)
(0.00772111 6.47426e-06 2.29529e-25)
(0.00627593 -7.47697e-07 -1.52417e-25)
(0.00627756 -4.37718e-07 -2.92152e-26)
(0.00627983 -9.55798e-08 -1.93028e-24)
(0.00628252 2.50254e-07 7.703e-25)
(0.00628562 5.9479e-07 -6.75412e-25)
(0.0062891 9.3889e-07 1.07242e-24)
(0.00629295 1.27872e-06 9.6842e-25)
(0.00629713 1.6113e-06 8.49201e-26)
(0.00630161 1.93448e-06 2.29143e-25)
(0.00630636 2.24606e-06 -8.62078e-26)
(0.00631136 2.54345e-06 -4.7602e-25)
(0.00631658 2.82544e-06 1.15043e-24)
(0.00632198 3.09083e-06 -6.43642e-25)
(0.00632754 3.33918e-06 2.3128e-25)
(0.00633322 3.56997e-06 -4.24364e-25)
(0.00503302 -1.03718e-06 -5.79573e-25)
(0.00503348 -8.82492e-07 -6.49636e-25)
(0.00503436 -7.09756e-07 3.82112e-26)
(0.00503561 -5.10221e-07 1.57647e-24)
(0.00503717 -3.00661e-07 -8.51015e-25)
(0.00503903 -8.74501e-08 4.10847e-26)
(0.00504119 1.27596e-07 7.55129e-25)
(0.00504362 3.43238e-07 -2.05546e-25)
(0.00504632 5.58155e-07 -1.48315e-25)
(0.00504926 7.70663e-07 7.23347e-25)
(0.00505243 9.78421e-07 2.79514e-25)
(0.00505581 1.18045e-06 -1.18311e-24)
(0.00505938 1.3758e-06 1.76253e-25)
(0.00506312 1.56431e-06 4.902e-25)
(0.005067 1.74531e-06 -3.68996e-25)
(0.00390302 -9.84358e-07 -1.32955e-25)
(0.00390259 -9.16547e-07 1.99164e-26)
(0.00390244 -8.38806e-07 7.69585e-25)
(0.0039025 -7.36457e-07 3.34235e-25)
(0.0039028 -6.18946e-07 -4.37885e-25)
(0.00390334 -4.94838e-07 -6.10426e-25)
(0.00390412 -3.66228e-07 1.13846e-25)
(0.00390512 -2.34272e-07 -1.57769e-25)
(0.00390634 -9.97088e-08 6.26742e-26)
(0.00390778 3.63824e-08 -3.68087e-25)
(0.00390942 1.72256e-07 -2.77323e-25)
(0.00391126 3.07224e-07 7.72502e-25)
(0.00391328 4.40772e-07 -2.5134e-25)
(0.00391548 5.73099e-07 3.10336e-25)
(0.00391784 7.03737e-07 -1.88462e-25)
(0.00287849 -7.39947e-07 -2.45051e-25)
(0.0028775 -7.27811e-07 2.85431e-26)
(0.00287666 -7.00017e-07 6.62657e-25)
(0.00287595 -6.50681e-07 -4.04983e-25)
(0.00287541 -5.89637e-07 1.13056e-24)
(0.00287504 -5.2519e-07 -1.83937e-24)
(0.00287485 -4.55177e-07 9.96337e-25)
(0.00287483 -3.82172e-07 -3.89823e-25)
(0.00287499 -3.05572e-07 -7.59315e-26)
(0.00287533 -2.25694e-07 3.50894e-25)
(0.00287584 -1.44447e-07 -1.69343e-25)
(0.00287652 -6.25358e-08 -4.86694e-26)
(0.00287738 1.96323e-08 -1.93267e-25)
(0.0028784 1.02937e-07 2.68197e-25)
(0.00287957 1.87686e-07 -7.74789e-26)
(0.00195167 -4.38516e-07 3.72012e-25)
(0.0019505 -4.55019e-07 3.27589e-25)
(0.00194939 -4.5387e-07 -1.4561e-24)
(0.00194834 -4.37165e-07 9.69536e-25)
(0.00194741 -4.12105e-07 -4.6995e-26)
(0.00194658 -3.83259e-07 9.06248e-26)
(0.00194588 -3.50382e-07 -2.02753e-25)
(0.0019453 -3.13955e-07 -9.21817e-26)
(0.00194485 -2.74922e-07 -6.284e-27)
(0.00194453 -2.33778e-07 -1.05508e-25)
(0.00194435 -1.90691e-07 4.27908e-25)
(0.00194431 -1.46867e-07 -1.40025e-25)
(0.0019444 -1.02283e-07 -2.09839e-25)
(0.00194464 -5.62906e-08 1.53766e-26)
(0.00194501 -8.37103e-09 5.19094e-26)
(0.00111487 -1.71532e-07 -3.75433e-25)
(0.00111387 -1.77184e-07 1.07486e-24)
(0.00111288 -1.78037e-07 4.69142e-25)
(0.00111192 -1.74985e-07 -1.01434e-24)
(0.00111102 -1.66807e-07 -1.10161e-25)
(0.00111018 -1.57766e-07 -6.61174e-26)
(0.00110941 -1.47669e-07 1.07449e-25)
(0.00110872 -1.36674e-07 -1.09166e-25)
(0.00110811 -1.24798e-07 -7.88215e-26)
(0.00110758 -1.12128e-07 3.16234e-26)
(0.00110715 -9.87102e-08 1.81503e-25)
(0.0011068 -8.39644e-08 -1.59901e-25)
(0.00110654 -6.85995e-08 3.97461e-25)
(0.00110639 -5.30157e-08 -4.62026e-25)
(0.00110633 -3.69544e-08 1.1135e-25)
(0.000360548 6.54531e-09 -2.67982e-27)
(0.000360032 7.4745e-08 2.02397e-25)
(0.000359522 1.19505e-07 1.82725e-25)
(0.000359024 1.45412e-07 -3.30413e-25)
(0.000358549 1.59022e-07 4.60842e-25)
(0.0003581 1.61043e-07 -5.10898e-25)
(0.000357678 1.54278e-07 1.4514e-26)
(0.000357285 1.41064e-07 2.2155e-26)
(0.000356924 1.23452e-07 -1.89797e-26)
(0.000356596 1.03061e-07 9.13101e-26)
(0.000356303 8.11952e-08 -2.94613e-25)
(0.000356047 5.94179e-08 1.62697e-25)
(0.000355827 3.80525e-08 1.47046e-25)
(0.000355648 1.71902e-08 -1.35826e-25)
(0.000355508 -2.71272e-09 9.26735e-27)
(0.000971473 -0.000261989 9.35139e-26)
(0.00111175 -0.000185051 2.42868e-24)
(0.00134693 -0.000107423 -7.03573e-24)
(0.00158667 -4.77639e-05 1.03362e-23)
(0.0018154 -4.14111e-06 -3.87873e-24)
(0.00203796 2.43637e-05 -3.8085e-24)
(0.00225413 4.07061e-05 4.35836e-24)
(0.00246441 4.75012e-05 -8.65296e-24)
(0.00266964 4.69511e-05 5.67066e-25)
(0.00287054 4.10808e-05 5.43799e-24)
(0.00306789 3.16466e-05 -1.02239e-24)
(0.00326239 2.02402e-05 1.0856e-24)
(0.00345476 8.44759e-06 -1.16346e-25)
(0.00364571 -2.11708e-06 6.16839e-25)
(0.00383619 -9.59737e-06 -2.25321e-24)
(0.00402747 -1.17952e-05 1.21419e-24)
(0.00422161 -6.248e-06 -3.41921e-25)
(0.00442172 9.69701e-06 3.76206e-26)
(0.00463253 3.84964e-05 7.54432e-25)
(0.00486011 8.11706e-05 -4.68558e-25)
(0.00511325 0.000136037 6.03433e-26)
(0.00539703 0.000197297 -5.42213e-26)
(0.0056914 0.000244275 1.17798e-25)
(0.00595819 0.000262078 5.00752e-25)
(0.00618194 0.000250509 -8.97077e-25)
(0.00636156 0.000212239 -6.94097e-25)
(0.00649872 0.000150387 -4.00515e-26)
(0.00659545 6.76372e-05 1.83307e-24)
(0.00665283 -3.34375e-05 2.88477e-24)
(0.00667071 -0.000149634 -5.7e-24)
(0.00664807 -0.000276513 5.51723e-24)
(0.00658361 -0.00040814 -5.48573e-24)
(0.00647636 -0.000537181 1.62469e-24)
(0.00632608 -0.000655206 6.81845e-25)
(0.00613341 -0.000753045 -7.5035e-25)
(0.0058998 -0.000821006 2.71894e-24)
(0.00562726 -0.000848776 2.71023e-25)
(0.0053182 -0.000824782 2.00543e-24)
(0.00497544 -0.00073471 1.5054e-24)
(0.00460289 -0.000559358 -8.15165e-24)
(0.00420554 -0.000274433 -1.09504e-25)
(0.00379074 0.000141624 4.15412e-24)
(0.00335345 0.000672726 1.61746e-24)
(0.00291886 0.00122907 -6.10194e-24)
(0.00267694 0.00148934 -3.23719e-25)
(0.00182549 -0.000346981 -2.76551e-24)
(0.00188339 -0.000306024 -3.95823e-24)
(0.00202679 -0.000231363 8.274e-24)
(0.00220735 -0.000163629 3.94692e-24)
(0.00239805 -0.000108609 -1.38169e-23)
(0.00259362 -6.85048e-05 1.48601e-23)
(0.00278951 -4.15148e-05 -5.34334e-24)
(0.00298361 -2.52207e-05 4.29463e-24)
(0.00317521 -1.74114e-05 -5.67261e-24)
(0.00336416 -1.59447e-05 6.96615e-26)
(0.00355062 -1.89374e-05 -2.93079e-24)
(0.00373494 -2.46793e-05 5.77234e-24)
(0.00391755 -3.14732e-05 -3.13269e-24)
(0.00409898 -3.76434e-05 -2.63537e-24)
(0.00428002 -4.12935e-05 -1.56793e-24)
(0.0044618 -4.02282e-05 3.27784e-24)
(0.00464622 -3.20246e-05 -3.13934e-25)
(0.00483617 -1.41056e-05 1.50535e-24)
(0.00503614 1.59219e-05 2.1376e-25)
(0.00525191 5.90075e-05 -4.22432e-25)
(0.00549216 0.000113639 -1.77815e-25)
(0.00576202 0.000174427 -1.21659e-25)
(0.00604352 0.000221309 6.31509e-25)
(0.00630089 0.000240104 8.8432e-25)
(0.00651899 0.000230712 -7.00448e-25)
(0.00669614 0.000195591 -4.07295e-24)
(0.00683331 0.000137766 5.68954e-24)
(0.00693193 6.00078e-05 -4.20237e-24)
(0.00699262 -3.49136e-05 1.43711e-24)
(0.00701509 -0.000143591 -1.05928e-24)
(0.00699832 -0.000261405 8.23198e-24)
(0.00694123 -0.000382351 -1.17079e-23)
(0.0068432 -0.000499122 6.87617e-24)
(0.00670445 -0.000603398 -5.3183e-24)
(0.00652628 -0.000686155 3.23551e-24)
(0.00631099 -0.000737848 -4.75933e-25)
(0.00606187 -0.000748317 6.71242e-24)
(0.00578321 -0.000706249 -9.99575e-25)
(0.00548083 -0.000597981 -7.07705e-24)
(0.0051635 -0.000405658 -5.21631e-24)
(0.00484509 -0.000107007 1.19429e-23)
(0.00454912 0.000317345 -1.2269e-23)
(0.00430358 0.000851928 -3.30868e-24)
(0.00415582 0.00139146 8.41829e-24)
(0.00416415 0.00158154 2.96878e-24)
(0.00282953 -0.000355069 -3.27415e-26)
(0.00283809 -0.000356028 -4.63678e-24)
(0.00289681 -0.000314225 8.79032e-24)
(0.0030085 -0.000257007 7.59482e-24)
(0.00314649 -0.000201946 -1.23495e-23)
(0.00330127 -0.000156569 2.47914e-25)
(0.00346518 -0.000122288 1.21144e-24)
(0.00363341 -9.83552e-05 1.32127e-23)
(0.00380334 -8.31282e-05 -1.56421e-23)
(0.00397355 -7.47701e-05 9.54348e-24)
(0.0041433 -7.14927e-05 2.7454e-24)
(0.00431232 -7.15767e-05 -1.54421e-23)
(0.00448061 -7.33405e-05 5.55561e-24)
(0.00464838 -7.5031e-05 2.10186e-24)
(0.0048162 -7.47538e-05 -4.13094e-24)
(0.00498495 -7.0336e-05 6.45571e-24)
(0.00515633 -5.9406e-05 -4.37506e-24)
(0.00533298 -3.94735e-05 -2.71649e-26)
(0.00551909 -8.2098e-06 3.29744e-25)
(0.00572012 3.5255e-05 3.23002e-25)
(0.00594462 8.95811e-05 3.07436e-26)
(0.00619766 0.000149804 1.94787e-25)
(0.00646359 0.000196457 -6.49604e-25)
(0.00670929 0.000216106 2.01382e-24)
(0.00691994 0.000208796 -3.39567e-24)
(0.00709321 0.000176777 1.99331e-24)
(0.00722933 0.000122979 -5.2228e-24)
(0.00732907 5.02596e-05 7.06864e-24)
(0.00739261 -3.84199e-05 -7.14632e-24)
(0.00741944 -0.000139427 -7.18904e-26)
(0.0074086 -0.000247987 -5.39919e-25)
(0.00735922 -0.000358027 1.36649e-23)
(0.00727105 -0.000462293 -4.613e-24)
(0.00714486 -0.000552617 -2.62985e-24)
(0.0069826 -0.000620221 1.76983e-24)
(0.00678755 -0.000655896 3.58043e-24)
(0.0065643 -0.000649977 -4.01835e-24)
(0.00631912 -0.000592017 1.07662e-23)
(0.00606066 -0.000470107 -2.20363e-23)
(0.00580193 -0.000269944 8.73194e-24)
(0.00556309 2.43728e-05 3.40849e-24)
(0.00537598 0.000422747 5.96487e-24)
(0.00527867 0.000900393 -7.43133e-24)
(0.00530228 0.00134892 2.29581e-24)
(0.00543619 0.00148993 -1.4281e-24)
(0.00396435 -0.00033699 -1.18501e-24)
(0.00394419 -0.000364153 -1.82826e-24)
(0.00395226 -0.000351113 -7.83248e-24)
(0.00399777 -0.000317684 2.05629e-24)
(0.00407878 -0.000273347 1.38251e-24)
(0.00418405 -0.000230908 6.37356e-24)
(0.0043062 -0.000194864 -1.35373e-23)
(0.00443915 -0.000166814 5.15251e-24)
(0.00457892 -0.000146397 1.72221e-23)
(0.00472278 -0.000132531 -4.62031e-24)
(0.00486904 -0.000123832 -4.2625e-24)
(0.00501667 -0.000118778 -6.62168e-25)
(0.00516513 -0.000115791 2.08031e-24)
(0.00531421 -0.00011316 -3.96867e-24)
(0.00546416 -0.000109038 9.51536e-25)
(0.00561555 -0.000101311 -2.43907e-25)
(0.00576982 -8.76851e-05 -1.57149e-24)
(0.00592933 -6.57833e-05 6.97528e-25)
(0.00609792 -3.33514e-05 2.67655e-24)
(0.0062807 1.03796e-05 -3.01585e-25)
(0.00648602 6.42416e-05 -5.95901e-25)
(0.00671887 0.000123717 -1.83598e-25)
(0.00696606 0.00016992 -1.15033e-24)
(0.00719741 0.000190221 -1.79415e-25)
(0.00739839 0.000184861 -3.228e-24)
(0.00756598 0.000155881 5.34433e-24)
(0.00769963 0.000106115 -5.23393e-24)
(0.0077994 3.85093e-05 1.02889e-23)
(0.00786501 -4.37881e-05 -9.43861e-24)
(0.00789574 -0.00013694 1.97988e-24)
(0.00789065 -0.000236033 4.41878e-24)
(0.00784913 -0.000334972 -5.02286e-26)
(0.00777133 -0.000426613 -2.34504e-25)
(0.00765857 -0.000503048 1.11002e-25)
(0.00751351 -0.000555905 -9.73032e-25)
(0.00734035 -0.000576574 -1.66101e-24)
(0.00714494 -0.0005563 1.10342e-23)
(0.00693522 -0.000486142 -5.54535e-24)
(0.00672201 -0.000356914 3.4378e-25)
(0.0065207 -0.000159314 -2.16496e-23)
(0.00635329 0.000114225 1.67557e-23)
(0.00625056 0.000462859 -6.84383e-24)
(0.00624537 0.00085699 1.39058e-24)
(0.0063504 0.00121012 9.02116e-24)
(0.0065389 0.00135369 -2.243e-24)
(0.00522228 -0.000309193 -4.91011e-24)
(0.00519142 -0.000346693 1.0061e-23)
(0.00517068 -0.000353658 2.85551e-24)