/*--------------------------------*- C++ -*----------------------------------*\
| =========                 |                                                 |
| \\      /  F ield         | OpenFOAM: The Open Source CFD Toolbox           |
|  \\    /   O peration     | Version:  2312                                  |
|   \\  /    A nd           | Website:  www.openfoam.com                      |
|    \\/     M anipulation  |                                                 |
\*---------------------------------------------------------------------------*/
FoamFile
{
    version     2.0;
    format      ascii;
    arch        "LSB;label=32;scalar=64";
    class       surfaceScalarField;
    location    "39";
    object      phi;
}
// * * * * * * * * * * * * * * * * * * * * * * * * * * * * * * * * * * * * * //

dimensions      [0 3 -1 0 0 0 0];

oriented        oriented;

internalField   nonuniform List<scalar> 
9445
(
6.17531e-10
1.67373e-11
6.06181e-10
1.13506e-11
5.98435e-10
7.74543e-12
5.93305e-10
5.12998e-12
5.90213e-10
3.09172e-12
5.88805e-10
1.40842e-12
5.88908e-10
-1.02736e-13
5.90578e-10
-1.67064e-12
5.93771e-10
-3.19294e-12
5.98858e-10
-5.08696e-12
6.07054e-10
-8.19597e-12
6.2197e-10
-1.49159e-11
6.56441e-10
-3.44712e-11
7.56198e-10
-9.97563e-11
-2.63332e-10
1.01953e-09
2.14925e-09
7.45792e-11
2.10954e-09
5.10654e-11
2.08203e-09
3.52524e-11
2.06339e-09
2.37645e-11
2.05165e-09
1.48406e-11
2.04553e-09
7.5226e-12
2.04443e-09
9.97512e-13
2.04821e-09
-5.45349e-12
2.05684e-09
-1.1819e-11
2.07152e-09
-1.97639e-11
2.09526e-09
-3.19354e-11
2.13501e-09
-5.4665e-11
2.20463e-09
-1.04092e-10
2.31791e-09
-2.13038e-10
-3.84857e-10
2.43943e-09
4.23135e-09
1.86834e-10
4.15349e-09
1.28922e-10
4.09893e-09
8.98084e-11
4.06133e-09
6.13696e-11
4.03681e-09
3.93561e-11
4.02289e-09
2.14413e-11
4.01829e-09
5.59753e-12
4.02232e-09
-9.47856e-12
4.0348e-09
-2.42953e-11
4.05725e-09
-4.22208e-11
4.09262e-09
-6.73065e-11
4.14551e-09
-1.07547e-10
4.21882e-09
-1.77408e-10
4.29871e-09
-2.92921e-10
-4.32466e-10
4.34631e-09
7.01301e-09
3.68632e-10
6.88551e-09
2.56424e-10
6.79506e-09
1.8026e-10
6.73161e-09
1.24818e-10
6.68892e-09
8.20428e-11
6.66288e-09
4.74828e-11
6.65113e-09
1.7347e-11
6.65206e-09
-1.04007e-11
6.66506e-09
-3.72999e-11
6.69074e-09
-6.79025e-11
6.73023e-09
-1.06791e-10
6.78286e-09
-1.6018e-10
6.84189e-09
-2.36441e-10
6.8865e-09
-3.37527e-10
-4.37914e-10
6.89195e-09
1.0675e-08
6.35444e-10
1.04853e-08
4.4606e-10
1.03489e-08
3.16648e-10
1.02515e-08
2.22238e-10
1.0184e-08
1.49589e-10
1.01402e-08
9.12864e-11
1.01161e-08
4.14342e-11
1.0109e-08
-3.34911e-12
1.01174e-08
-4.56668e-11
1.01397e-08
-9.02079e-11
1.01743e-08
-1.41328e-10
1.0216e-08
-2.01917e-10
1.02538e-08
-2.74254e-10
1.02698e-08
-3.53501e-10
-4.20476e-10
1.02523e-08
1.5431e-08
9.99729e-10
1.51678e-08
7.09348e-10
1.49754e-08
5.0904e-10
1.48353e-08
3.6232e-10
1.47353e-08
2.49564e-10
1.4667e-08
1.59597e-10
1.46243e-08
8.41455e-11
1.46029e-08
1.8047e-11
1.45995e-08
-4.23194e-11
1.46107e-08
-1.01357e-10
1.46315e-08
-1.62173e-10
1.46549e-08
-2.25232e-10
1.46697e-08
-2.89095e-10
1.46642e-08
-3.47994e-10
-3.91033e-10
1.46347e-08
2.15257e-08
1.4648e-09
2.11821e-08
1.05296e-09
2.09261e-08
7.65022e-10
2.07358e-08
5.52645e-10
2.05961e-08
3.89279e-10
2.04962e-08
2.59481e-10
2.04279e-08
1.52413e-10
2.0385e-08
6.09493e-11
2.03622e-08
-1.95383e-11
2.0354e-08
-9.3101e-11
2.03536e-08
-1.61812e-10
2.03535e-08
-2.25117e-10
2.03452e-08
-2.80827e-10
2.03224e-08
-3.2515e-10
-3.53526e-10
2.02849e-08
2.92255e-08
2.01565e-09
2.8806e-08
1.4724e-09
2.84858e-08
1.08526e-09
2.82419e-08
7.9652e-10
2.80577e-08
5.73475e-10
2.79206e-08
3.96575e-10
2.78206e-08
2.52462e-10
2.77494e-08
1.3213e-10
2.77e-08
2.98709e-11
2.76652e-08
-5.83325e-11
2.76379e-08
-1.34509e-10
2.76113e-08
-1.98462e-10
2.75797e-08
-2.4924e-10
2.75402e-08
-2.85716e-10
-3.07225e-10
2.74939e-08
3.88045e-08
2.6094e-09
3.83328e-08
1.9441e-09
3.79608e-08
1.45734e-09
3.7669e-08
1.08824e-09
3.74419e-08
8.00632e-10
3.72663e-08
5.72142e-10
3.71313e-08
3.87435e-10
3.70275e-08
2.35948e-10
3.69466e-08
1.10782e-10
3.68808e-08
7.53062e-12
3.68233e-08
-7.70632e-11
3.67688e-08
-1.43909e-10
3.67136e-08
-1.94092e-10
3.66567e-08
-2.28767e-10
-2.49444e-10
3.65989e-08
5.05349e-08
3.1742e-09
5.00581e-08
2.42095e-09
4.96647e-08
1.85068e-09
4.93447e-08
1.40825e-09
4.90866e-08
1.05874e-09
4.88793e-08
7.79408e-10
4.87126e-08
5.54196e-10
4.85769e-08
3.71605e-10
4.84641e-08
2.23642e-10
4.8367e-08
1.04616e-10
4.82796e-08
1.03616e-11
4.8198e-08
-6.23716e-11
4.812e-08
-1.16119e-10
4.8045e-08
-1.53761e-10
-1.7796e-10
4.79736e-08
6.4705e-08
3.62995e-09
6.4285e-08
2.84096e-09
6.39165e-08
2.21923e-09
6.36017e-08
1.72303e-09
6.33366e-08
1.32378e-09
6.31146e-08
1.00147e-09
6.29278e-08
7.40999e-10
6.27686e-08
5.30799e-10
6.26302e-08
3.62056e-10
6.25069e-08
2.27899e-10
6.23944e-08
1.2279e-10
6.229e-08
4.20313e-11
6.21923e-08
-1.8366e-11
6.21007e-08
-6.21826e-11
-9.26857e-11
6.20154e-08
8.16939e-08
3.93229e-09
8.13788e-08
3.15611e-09
8.10782e-08
2.51976e-09
8.08049e-08
1.99636e-09
8.05621e-08
1.56657e-09
8.03484e-08
1.21522e-09
8.01598e-08
9.29568e-10
7.99918e-08
6.98754e-10
7.98402e-08
5.1367e-10
7.97015e-08
3.66628e-10
7.95731e-08
2.5114e-10
7.94536e-08
1.61587e-10
7.9342e-08
9.31965e-11
7.92381e-08
4.17203e-11
3.63436e-12
7.91418e-08
1.0207e-07
4.09757e-09
1.01861e-07
3.36485e-09
1.01642e-07
2.73882e-09
1.01428e-07
2.21056e-09
1.01225e-07
1.76899e-09
1.01037e-07
1.40362e-09
1.00862e-07
1.10432e-09
1.007e-07
8.6128e-10
1.00548e-07
6.65536e-10
1.00405e-07
5.09095e-10
1.00271e-07
3.85076e-10
1.00145e-07
2.87495e-10
1.00027e-07
2.11323e-10
9.99168e-08
1.52194e-10
1.06581e-10
9.98138e-08
1.26566e-07
4.17386e-09
1.26433e-07
3.49832e-09
1.26276e-07
2.89542e-09
1.26111e-07
2.37548e-09
1.25946e-07
1.93475e-09
1.25783e-07
1.56634e-09
1.25625e-07
1.26227e-09
1.25472e-07
1.01372e-09
1.25326e-07
8.1206e-10
1.25186e-07
6.49406e-10
1.25052e-07
5.18914e-10
1.24925e-07
4.1464e-10
1.24804e-07
3.31611e-10
1.24691e-07
2.65558e-10
2.13046e-10
1.24584e-07
1.55898e-07
4.19901e-09
1.55815e-07
3.58167e-09
1.557e-07
3.01048e-09
1.55567e-07
2.50815e-09
1.55425e-07
2.07675e-09
1.55279e-07
1.71256e-09
1.55132e-07
1.4095e-09
1.54986e-07
1.15978e-09
1.54843e-07
9.55324e-10
1.54703e-07
7.88635e-10
1.54569e-07
6.532e-10
1.5444e-07
5.43349e-10
1.54318e-07
4.54334e-10
1.54201e-07
3.8209e-10
3.23341e-10
1.54091e-07
1.90552e-07
4.17815e-09
1.90515e-07
3.61862e-09
1.90437e-07
3.08905e-09
1.90331e-07
2.61344e-09
1.90209e-07
2.19911e-09
1.90076e-07
1.84545e-09
1.89937e-07
1.54834e-09
1.89796e-07
1.30113e-09
1.89655e-07
1.09658e-09
1.89516e-07
9.27848e-10
1.8938e-07
7.88969e-10
1.89248e-07
6.74706e-10
1.89122e-07
5.80634e-10
1.89001e-07
5.02965e-10
4.38617e-10
1.88886e-07
2.30648e-07
4.10779e-09
2.30659e-07
3.60665e-09
2.30623e-07
3.12535e-09
2.3055e-07
2.68626e-09
2.30453e-07
2.29646e-09
2.30339e-07
1.95991e-09
2.30213e-07
1.67416e-09
2.3008e-07
1.43373e-09
2.29944e-07
1.23238e-09
2.29808e-07
1.06421e-09
2.29673e-07
9.23958e-10
2.29541e-07
8.06932e-10
2.29412e-07
7.09123e-10
2.29288e-07
6.27077e-10
5.57978e-10
2.29169e-07
2.75748e-07
3.986e-09
2.75805e-07
3.54945e-09
2.75816e-07
3.11456e-09
2.75785e-07
2.71703e-09
2.7572e-07
2.36085e-09
2.75632e-07
2.04811e-09
2.75527e-07
1.77984e-09
2.75409e-07
1.55116e-09
2.75284e-07
1.35712e-09
2.75156e-07
1.1929e-09
2.75026e-07
1.05404e-09
2.74896e-07
9.36469e-10
2.74769e-07
8.36667e-10
2.74644e-07
7.51575e-10
6.7877e-10
2.74523e-07
3.24337e-07
3.77948e-09
3.24467e-07
3.41861e-09
3.24539e-07
3.04327e-09
3.24562e-07
2.69378e-09
3.24543e-07
2.37977e-09
3.24491e-07
2.10031e-09
3.24414e-07
1.8563e-09
3.24321e-07
1.64468e-09
3.24216e-07
1.46241e-09
3.24103e-07
1.30593e-09
3.23985e-07
1.17163e-09
3.23865e-07
1.05612e-09
3.23746e-07
9.5641e-10
3.23627e-07
8.69895e-10
7.94431e-10
3.23512e-07
3.73252e-07
3.47423e-09
3.73479e-07
3.19143e-09
3.73629e-07
2.89352e-09
3.73718e-07
2.60412e-09
3.73761e-07
2.33683e-09
3.73766e-07
2.09558e-09
3.73741e-07
1.88157e-09
3.73692e-07
1.69333e-09
3.73626e-07
1.5286e-09
3.73547e-07
1.38474e-09
3.7346e-07
1.25903e-09
3.73367e-07
1.14885e-09
3.73272e-07
1.05187e-09
3.73176e-07
9.66007e-10
8.8961e-10
3.7308e-07
3.70518e-07
3.16302e-09
3.70767e-07
2.94319e-09
3.70954e-07
2.70576e-09
3.71089e-07
2.46994e-09
3.71177e-07
2.24808e-09
3.71228e-07
2.04509e-09
3.71247e-07
1.86212e-09
3.71242e-07
1.69852e-09
3.71218e-07
1.55285e-09
3.71179e-07
1.42326e-09
3.71131e-07
1.30777e-09
3.71075e-07
1.20446e-09
3.71015e-07
1.11154e-09
3.70954e-07
1.02739e-09
9.50858e-10
3.70893e-07
3.17192e-07
2.80703e-09
3.17494e-07
2.6412e-09
3.17742e-07
2.45751e-09
3.1794e-07
2.27187e-09
3.18094e-07
2.0945e-09
3.18209e-07
1.92962e-09
3.18293e-07
1.77848e-09
3.18351e-07
1.64093e-09
3.18387e-07
1.51619e-09
3.18407e-07
1.40311e-09
3.18415e-07
1.30033e-09
3.18413e-07
1.20649e-09
3.18404e-07
1.12028e-09
3.18391e-07
1.04051e-09
9.66191e-10
3.18376e-07
2.65317e-07
2.49123e-09
2.65596e-07
2.36175e-09
2.65837e-07
2.2168e-09
2.6604e-07
2.06897e-09
2.66208e-07
1.92573e-09
2.66347e-07
1.79061e-09
2.66461e-07
1.66487e-09
2.66553e-07
1.54864e-09
2.66628e-07
1.44144e-09
2.66689e-07
1.34249e-09
2.66738e-07
1.25086e-09
2.66779e-07
1.16554e-09
2.66814e-07
1.08561e-09
2.66844e-07
1.01017e-09
9.38481e-10
2.66872e-07
2.18274e-07
2.18854e-09
2.18549e-07
2.08685e-09
2.18793e-07
1.97253e-09
2.19007e-07
1.85489e-09
2.19193e-07
1.7395e-09
2.19355e-07
1.62918e-09
2.19494e-07
1.52503e-09
2.19616e-07
1.42723e-09
2.19722e-07
1.33546e-09
2.19815e-07
1.2492e-09
2.19898e-07
1.16781e-09
2.19973e-07
1.09059e-09
2.20042e-07
1.01687e-09
2.20106e-07
9.46059e-10
8.77622e-10
2.20167e-07
1.77085e-07
1.8891e-09
1.77363e-07
1.80941e-09
1.77615e-07
1.71987e-09
1.77843e-07
1.62708e-09
1.78048e-07
1.53508e-09
1.78231e-07
1.4459e-09
1.78396e-07
1.36041e-09
1.78544e-07
1.27876e-09
1.78679e-07
1.2008e-09
1.78802e-07
1.12619e-09
1.78915e-07
1.05449e-09
1.7902e-07
9.85263e-10
1.79119e-07
9.18065e-10
1.79213e-07
8.52493e-10
7.88197e-10
1.79302e-07
1.41993e-07
1.59285e-09
1.42271e-07
1.53138e-09
1.42529e-07
1.46237e-09
1.42766e-07
1.39036e-09
1.42983e-07
1.3181e-09
1.43182e-07
1.247e-09
1.43364e-07
1.17769e-09
1.43533e-07
1.11035e-09
1.43689e-07
1.04491e-09
1.43834e-07
9.81175e-10
1.43969e-07
9.18897e-10
1.44097e-07
8.578e-10
1.44217e-07
7.97622e-10
1.44331e-07
7.38129e-10
6.79111e-10
1.4444e-07
1.127e-07
1.30684e-09
1.12971e-07
1.26081e-09
1.13224e-07
1.20895e-09
1.1346e-07
1.15434e-09
1.1368e-07
1.09873e-09
1.13884e-07
1.04308e-09
1.14074e-07
9.87873e-10
1.14251e-07
9.33289e-10
1.14416e-07
8.7933e-10
1.14571e-07
8.25908e-10
1.14717e-07
7.72898e-10
1.14855e-07
7.20167e-10
1.14985e-07
6.67587e-10
1.15108e-07
6.15053e-10
5.62476e-10
1.15225e-07
8.86106e-08
1.04113e-09
8.88633e-08
1.00802e-09
8.9102e-08
9.70343e-10
8.93261e-08
9.30148e-10
8.95364e-08
8.8847e-10
8.97335e-08
8.45963e-10
8.99184e-08
8.03009e-10
9.00919e-08
7.59785e-10
9.02549e-08
7.16338e-10
9.04081e-08
6.72661e-10
9.05523e-08
6.28723e-10
9.0688e-08
5.84491e-10
9.08156e-08
5.39938e-10
9.09356e-08
4.95048e-10
4.4982e-10
9.10483e-08
6.90163e-08
8.04659e-10
6.92423e-08
7.81991e-10
6.94569e-08
7.55781e-10
6.96597e-08
7.27272e-10
6.98512e-08
6.97029e-10
7.00316e-08
6.65525e-10
7.02016e-08
6.33065e-10
7.03615e-08
5.99811e-10
7.0512e-08
5.65842e-10
7.06535e-08
5.31202e-10
7.07863e-08
4.95927e-10
7.09107e-08
4.60047e-10
7.10271e-08
4.23601e-10
7.11355e-08
3.86631e-10
3.49193e-10
7.12361e-08
5.32164e-08
6.02891e-10
5.34101e-08
5.883e-10
5.35949e-08
5.71027e-10
5.37705e-08
5.51684e-10
5.39369e-08
5.3057e-10
5.40944e-08
5.08045e-10
5.42431e-08
4.84348e-10
5.43833e-08
4.59621e-10
5.45152e-08
4.33957e-10
5.4639e-08
4.07433e-10
5.47548e-08
3.80116e-10
5.48628e-08
3.52076e-10
5.4963e-08
3.23384e-10
5.50555e-08
2.94116e-10
2.64356e-10
5.51403e-08
4.05736e-08
4.37368e-10
4.07332e-08
4.28695e-10
4.08862e-08
4.1807e-10
4.10323e-08
4.05622e-10
4.11713e-08
3.91537e-10
4.13032e-08
3.76095e-10
4.14281e-08
3.59472e-10
4.15459e-08
3.41789e-10
4.16568e-08
3.23139e-10
4.17606e-08
3.0361e-10
4.18574e-08
2.83279e-10
4.19473e-08
2.62232e-10
4.20301e-08
2.4055e-10
4.21059e-08
2.18321e-10
1.95636e-10
4.21746e-08
3.05329e-08
3.06425e-10
3.06598e-08
3.01823e-10
3.0782e-08
2.95861e-10
3.08993e-08
2.88348e-10
3.10113e-08
2.7945e-10
3.11181e-08
2.69371e-10
3.12193e-08
2.58234e-10
3.1315e-08
2.46139e-10
3.14049e-08
2.33167e-10
3.14891e-08
2.194e-10
3.15675e-08
2.04914e-10
3.16399e-08
1.8979e-10
3.17064e-08
1.74108e-10
3.17668e-08
1.57952e-10
1.41403e-10
3.1821e-08
2.2621e-08
2.06357e-10
2.27185e-08
2.04339e-10
2.2813e-08
2.01415e-10
2.29041e-08
1.97237e-10
2.29915e-08
1.9198e-10
2.30751e-08
1.85775e-10
2.31547e-08
1.78707e-10
2.32299e-08
1.70849e-10
2.33008e-08
1.62267e-10
2.33672e-08
1.53029e-10
2.34289e-08
1.43199e-10
2.34859e-08
1.32846e-10
2.35379e-08
1.22038e-10
2.35851e-08
1.10846e-10
9.93404e-11
2.36271e-08
1.64387e-08
1.32491e-10
1.65111e-08
1.31938e-10
1.65817e-08
1.30811e-10
1.66502e-08
1.28736e-10
1.67162e-08
1.25889e-10
1.67797e-08
1.22338e-10
1.68403e-08
1.18137e-10
1.68978e-08
1.13338e-10
1.6952e-08
1.07988e-10
1.70029e-08
1.02139e-10
1.70503e-08
9.58383e-11
1.7094e-08
8.91405e-11
1.71339e-08
8.2096e-11
1.717e-08
7.47622e-11
6.71923e-11
1.72022e-08
1.16511e-08
7.99825e-11
1.17029e-08
8.01136e-11
1.17538e-08
7.99083e-11
1.18035e-08
7.90501e-11
1.18517e-08
7.76859e-11
1.18982e-08
7.58404e-11
1.19428e-08
7.35459e-11
1.19853e-08
7.08354e-11
1.20255e-08
6.77405e-11
1.20634e-08
6.42956e-11
1.20987e-08
6.05341e-11
1.21313e-08
5.64935e-11
1.21612e-08
5.2209e-11
1.21883e-08
4.77222e-11
4.3072e-11
1.22124e-08
7.97976e-09
4.42975e-11
8.01525e-09
4.46236e-11
8.05037e-09
4.47845e-11
8.08488e-09
4.45459e-11
8.11855e-09
4.4009e-11
8.15122e-09
4.31744e-11
8.18271e-09
4.206e-11
8.21286e-09
4.06845e-11
8.24153e-09
3.90665e-11
8.2686e-09
3.7227e-11
8.29395e-09
3.51864e-11
8.31747e-09
3.29684e-11
8.33909e-09
3.05944e-11
8.35872e-09
2.80922e-11
2.54893e-11
8.3763e-09
5.19461e-09
2.14646e-11
5.2175e-09
2.17309e-11
5.24034e-09
2.19498e-11
5.26292e-09
2.1963e-11
5.28511e-09
2.18232e-11
5.30676e-09
2.15234e-11
5.32775e-09
2.10724e-11
5.34795e-09
2.04794e-11
5.36726e-09
1.97537e-11
5.38559e-09
1.89065e-11
5.40282e-09
1.79484e-11
5.4189e-09
1.68923e-11
5.43374e-09
1.57494e-11
5.4473e-09
1.45363e-11
1.32718e-11
5.45952e-09
3.10737e-09
8.162e-12
3.12081e-09
8.28595e-12
3.13433e-09
8.43074e-12
3.1478e-09
8.4965e-12
3.16112e-09
8.4992e-12
3.17421e-09
8.43411e-12
3.18698e-09
8.30465e-12
3.19935e-09
8.11442e-12
3.21123e-09
7.86715e-12
3.22257e-09
7.56757e-12
3.2333e-09
7.21989e-12
3.24336e-09
6.82986e-12
3.25271e-09
6.4017e-12
3.2613e-09
5.94354e-12
5.4681e-12
3.26911e-09
1.56534e-09
1.7074e-12
1.57191e-09
1.72029e-12
1.57857e-09
1.77207e-12
1.58526e-09
1.80787e-12
1.59193e-09
1.82775e-12
1.59853e-09
1.83083e-12
1.60502e-09
1.818e-12
1.61134e-09
1.79024e-12
1.61746e-09
1.74841e-12
1.62334e-09
1.69375e-12
1.62893e-09
1.62718e-12
1.63421e-09
1.55022e-12
1.63915e-09
1.4637e-12
1.64372e-09
1.37009e-12
1.27645e-12
1.64791e-09
4.4583e-10
4.4755e-10
4.49323e-10
4.5113e-10
4.52958e-10
4.54789e-10
4.56607e-10
4.58397e-10
4.60146e-10
4.61839e-10
4.63467e-10
4.65017e-10
4.6648e-10
4.67851e-10
4.69127e-10
1.2151e-09
-5.31273e-10
3.35708e-10
1.49179e-09
-4.95809e-10
2.19115e-10
1.76729e-09
-3.97123e-10
1.21619e-10
2.03535e-09
-2.96156e-10
2.80968e-11
2.2945e-09
-1.97618e-10
-6.1529e-11
2.54577e-09
-1.06343e-10
-1.44929e-10
2.79106e-09
-2.0858e-11
-2.24429e-10
3.03211e-09
6.17809e-11
-3.02833e-10
3.27042e-09
1.45476e-10
-3.83787e-10
3.50722e-09
2.34881e-10
-4.7168e-10
3.74349e-09
3.35675e-10
-5.71939e-10
3.98003e-09
4.55163e-10
-6.9171e-10
4.21769e-09
6.03182e-10
-8.40841e-10
4.45756e-09
7.93219e-10
-1.03309e-09
4.70135e-09
1.04316e-09
-1.28695e-09
4.95172e-09
1.37672e-09
-1.62709e-09
5.21277e-09
1.82278e-09
-2.08383e-09
5.49097e-09
2.40922e-09
-2.68742e-09
5.7952e-09
3.16133e-09
-3.46556e-09
6.1362e-09
4.09111e-09
-4.4321e-09
6.52465e-09
5.1435e-09
-5.53196e-09
6.96659e-09
6.14471e-09
-6.58665e-09
7.38299e-09
5.7428e-09
-6.15921e-09
7.73224e-09
4.48561e-09
-4.83485e-09
8.00814e-09
3.00069e-09
-3.2766e-09
8.21101e-09
1.46907e-09
-1.67194e-09
8.3445e-09
1.01289e-11
-1.43621e-10
8.41292e-09
-1.30505e-09
1.23664e-09
8.42018e-09
-2.43838e-09
2.43113e-09
8.36983e-09
-3.37092e-09
3.42126e-09
8.26542e-09
-4.09306e-09
4.19747e-09
8.11069e-09
-4.601e-09
4.75573e-09
7.90971e-09
-4.89631e-09
5.09729e-09
7.66674e-09
-4.98593e-09
5.22889e-09
7.386e-09
-4.88168e-09
5.16242e-09
7.07129e-09
-4.59895e-09
4.91366e-09
6.72571e-09
-4.15462e-09
4.5002e-09
6.35157e-09
-3.56426e-09
3.9384e-09
5.95061e-09
-2.83866e-09
3.23963e-09
5.52395e-09
-1.98059e-09
2.40725e-09
5.07041e-09
-9.87754e-10
1.44129e-09
4.5817e-09
1.28626e-10
3.60087e-10
4.04199e-09
1.28513e-09
-7.45413e-10
3.46033e-09
2.26688e-09
-1.68523e-09
2.43076e-09
3.12027e-09
-2.0907e-09
2.51458e-09
-6.06418e-10
2.67325e-09
-6.54482e-10
2.88808e-09
-6.11954e-10
3.12675e-09
-5.3482e-10
3.37511e-09
-4.45978e-10
3.6259e-09
-3.57141e-10
3.87668e-09
-2.71636e-10
4.12684e-09
-1.88377e-10
4.37662e-09
-1.04301e-10
4.62656e-09
-1.50579e-11
4.8773e-09
8.49338e-11
5.12952e-09
2.02944e-10
5.38403e-09
3.4867e-10
5.64201e-09
5.35238e-10
5.90535e-09
7.79815e-10
6.17699e-09
1.10508e-09
6.46139e-09
1.53838e-09
6.76565e-09
2.10496e-09
7.09949e-09
2.82749e-09
7.47448e-09
3.71611e-09
7.90236e-09
4.71562e-09
8.39017e-09
5.6569e-09
8.85171e-09
5.28126e-09
9.24129e-09
4.09603e-09
9.55171e-09
2.69027e-09
9.78273e-09
1.23805e-09
9.93781e-09
-1.4496e-10
1.00214e-08
-1.38868e-09
1.00378e-08
-2.45474e-09
9.99088e-09
-3.324e-09
9.88486e-09
-3.98704e-09
9.7243e-09
-4.44044e-09
9.51425e-09
-4.68626e-09
9.2602e-09
-4.73187e-09
8.96781e-09
-4.58929e-09
8.64277e-09
-4.27391e-09
8.2907e-09
-3.80255e-09
7.91752e-09
-3.19109e-09
7.53068e-09
-2.45182e-09
7.14121e-09
-1.59112e-09
6.76627e-09
-6.12805e-10
6.43067e-09
4.6422e-10
6.16942e-09
1.54638e-09
6.04032e-09
2.39599e-09
2.4914e-09
5.97967e-09
4.35548e-09
-6.15584e-10
4.41992e-09
-7.18918e-10
4.54913e-09
-7.41173e-10
4.72881e-09
-7.14494e-10
4.93877e-09
-6.55944e-10
5.16626e-09
-5.84626e-10
5.40417e-09
-5.09545e-10
5.64863e-09
-4.32837e-10
5.89771e-09
-3.53384e-10
6.15063e-09
-2.67974e-10
6.40721e-09
-1.71648e-10
6.66769e-09
-5.7539e-11
6.93268e-09
8.36818e-11
7.20331e-09
2.64612e-10
7.48158e-09
5.0154e-10
7.77068e-09
8.15981e-10
8.07543e-09
1.23364e-09
8.40356e-09
1.77682e-09
8.76567e-09
2.46538e-09
9.17419e-09
3.30759e-09
9.64185e-09
4.24796e-09
1.01768e-08
5.12196e-09
1.06855e-08
4.77258e-09
1.11178e-08
3.66369e-09
1.14654e-08
2.3427e-09
1.17271e-08
9.7632e-10
1.19062e-08
-3.24082e-10
1.20073e-08
-1.48973e-09
1.20348e-08
-2.4822e-09
1.19931e-08
-3.28239e-09
1.18874e-08
-3.88128e-09
1.17231e-08
-4.2761e-09
1.15064e-08
-4.46963e-09
1.12445e-08
-4.46992e-09
1.09447e-08
-4.28955e-09
1.06152e-08
-3.94439e-09
1.02646e-08
-3.45198e-09
9.90329e-09
-2.82974e-09
9.54494e-09
-2.09347e-09
9.21047e-09
-1.25665e-09
8.93233e-09
-3.3467e-10
8.7562e-09
6.40357e-10
8.72833e-09
1.57424e-09
8.85605e-09
2.26827e-09
2.38407e-09
8.96338e-09
6.86323e-09
-5.86865e-10
6.8624e-09
-7.18087e-10
6.91002e-09
-7.88801e-10
7.01096e-09
-8.15427e-10
7.15861e-09
-8.03595e-10
7.33785e-09
-7.63865e-10
7.53996e-09
-7.1166e-10
7.75846e-09
-6.51334e-10
7.98915e-09
-5.84072e-10
8.22955e-09
-5.08381e-10
8.47836e-09
-4.20451e-10
8.73506e-09
-3.14243e-10
8.99985e-09
-1.8111e-10
9.27368e-09
-9.21901e-12
9.55861e-09
2.16613e-10
9.85802e-09
5.16577e-10
1.0177e-08
9.14618e-10
1.05241e-08
1.42976e-09
1.09107e-08
2.07877e-09
1.13501e-08
2.86821e-09
1.1856e-08
3.74208e-09
1.24376e-08
4.54034e-09
1.2994e-08
4.21613e-09
1.34705e-08
3.18718e-09
1.38571e-08
1.95615e-09
1.41515e-08
6.81878e-10
1.43567e-08
-5.29222e-10
1.44771e-08
-1.61012e-09
1.45175e-08
-2.52264e-09
1.44831e-08
-3.24801e-09
1.43798e-08
-3.77791e-09
1.42142e-08
-4.11051e-09
1.39942e-08
-4.24961e-09
1.37285e-08
-4.20424e-09
1.34268e-08
-3.98791e-09
1.30999e-08
-3.61749e-09
1.27599e-08
-3.11198e-09
1.24215e-08
-2.49131e-09
1.2104e-08
-1.77597e-09
1.18349e-08
-9.87529e-10
1.16531e-08
-1.5289e-10
1.16068e-08
6.86697e-10
1.17312e-08
1.4498e-09
1.20016e-08
1.99789e-09
2.15276e-09
1.22329e-08
1.02051e-08
-5.39674e-10
1.01605e-08
-6.73457e-10
1.01457e-08
-7.73948e-10
1.01708e-08
-8.4057e-10
1.02403e-08
-8.73066e-10
1.0351e-08
-8.74607e-10
1.04945e-08
-8.55098e-10
1.06639e-08
-8.20822e-10
1.08543e-08
-7.744e-10
1.10617e-08
-7.15837e-10
1.12839e-08
-6.42641e-10
1.15196e-08
-5.49881e-10
1.17683e-08
-4.29886e-10
1.20309e-08
-2.71831e-10
1.23095e-08
-6.1912e-11
1.26075e-08
2.18549e-10
1.29305e-08
5.91658e-10
1.32875e-08
1.07271e-09
1.36912e-08
1.67507e-09
1.41555e-08
2.40395e-09
1.4695e-08
3.20261e-09
1.532e-08
3.91533e-09
1.59225e-08
3.61357e-09
1.64428e-08
2.66689e-09
1.68688e-08
1.5302e-09
1.71968e-08
3.5384e-10
1.74291e-08
-7.61533e-10
1.75702e-08
-1.75123e-09
1.76252e-08
-2.57765e-09
1.76e-08
-3.22275e-09
1.75013e-08
-3.67929e-09
1.73375e-08
-3.94669e-09
1.7118e-08
-4.03011e-09
1.68536e-08
-3.93986e-09
1.65565e-08
-3.69074e-09
1.624e-08
-3.30108e-09
1.59198e-08
-2.79177e-09
1.56142e-08
-2.18568e-09
1.5346e-08
-1.50778e-09
1.51446e-08
-7.86087e-10
1.50463e-08
-5.45578e-11
1.50889e-08
6.44089e-10
1.52908e-08
1.24787e-09
1.56146e-08
1.67406e-09
1.83939e-09
1.5928e-08
1.45803e-08
-4.85239e-10
1.45134e-08
-6.06525e-10
1.44552e-08
-7.15747e-10
1.44196e-08
-8.04958e-10
1.44159e-08
-8.69365e-10
1.44494e-08
-9.08187e-10
1.45183e-08
-9.23964e-10
1.46187e-08
-9.21245e-10
1.47467e-08
-9.0233e-10
1.48986e-08
-8.67745e-10
1.50718e-08
-8.15882e-10
1.52648e-08
-7.42838e-10
1.54769e-08
-6.42001e-10
1.57087e-08
-5.03694e-10
1.59626e-08
-3.15763e-10
1.62423e-08
-6.12014e-11
1.65538e-08
2.80251e-10
1.69069e-08
7.19568e-10
1.73155e-08
1.26643e-09
1.77942e-08
1.92531e-09
1.83584e-08
2.63841e-09
1.90194e-08
3.25428e-09
1.9663e-08
2.96998e-09
2.02239e-08
2.10602e-09
2.06874e-08
1.06672e-09
2.1048e-08
-6.76962e-12
2.13071e-08
-1.02061e-09
2.1469e-08
-1.91318e-09
2.15393e-08
-2.64796e-09
2.15246e-08
-3.20801e-09
2.14329e-08
-3.58761e-09
2.1274e-08
-3.78783e-09
2.10594e-08
-3.81543e-09
2.08019e-08
-3.68237e-09
2.05161e-08
-3.40498e-09
2.02182e-08
-3.00319e-09
1.99263e-08
-2.49989e-09
1.96611e-08
-1.92046e-09
1.94462e-08
-1.29289e-09
1.93084e-08
-6.48267e-10
1.92754e-08
-2.1573e-11
1.93704e-08
5.49133e-10
1.95969e-08
1.02133e-09
1.99191e-08
1.35191e-09
1.50922e-09
2.02492e-08
2.02276e-08
-4.27956e-10
2.01523e-08
-5.31195e-10
2.00707e-08
-6.34218e-10
1.99947e-08
-7.28906e-10
1.99348e-08
-8.09425e-10
1.9899e-08
-8.72458e-10
1.98918e-08
-9.16739e-10
1.99139e-08
-9.43317e-10
1.99645e-08
-9.52917e-10
2.00421e-08
-9.45385e-10
2.01454e-08
-9.19133e-10
2.02733e-08
-8.70807e-10
2.0426e-08
-7.94632e-10
2.06042e-08
-6.81986e-10
2.0811e-08
-5.22563e-10
2.10509e-08
-3.01097e-10
2.13302e-08
9.96115e-13
2.16601e-08
3.89625e-10
2.20561e-08
8.70447e-10
2.25332e-08
1.44827e-09
2.31077e-08
2.06385e-09
2.3792e-08
2.56997e-09
2.44668e-08
2.29524e-09
2.5061e-08
1.51175e-09
2.55568e-08
5.70995e-10
2.5946e-08
-3.9602e-10
2.6229e-08
-1.30361e-09
2.641e-08
-2.09414e-09
2.64948e-08
-2.73274e-09
2.64909e-08
-3.2041e-09
2.64077e-08
-3.50445e-09
2.62567e-08
-3.63683e-09
2.60512e-08
-3.60993e-09
2.58063e-08
-3.43749e-09
2.55388e-08
-3.13744e-09
2.52668e-08
-2.73125e-09
2.50102e-08
-2.24325e-09
2.47899e-08
-1.70019e-09
2.46279e-08
-1.13088e-09
2.45454e-08
-5.65738e-10
2.45598e-08
-3.59596e-11
2.46806e-08
4.28294e-10
2.49014e-08
8.00577e-10
2.5192e-08
1.06125e-09
1.20272e-09
2.54985e-08
2.7433e-08
-3.66985e-10
2.73541e-08
-4.52329e-10
2.72622e-08
-5.42306e-10
2.71644e-08
-6.31127e-10
2.70688e-08
-7.13797e-10
2.69828e-08
-7.86517e-10
2.69128e-08
-8.46733e-10
2.68628e-08
-8.93283e-10
2.68352e-08
-9.2533e-10
2.68315e-08
-9.41688e-10
2.68526e-08
-9.40229e-10
2.68995e-08
-9.17675e-10
2.69736e-08
-8.68743e-10
2.70772e-08
-7.85581e-10
2.72145e-08
-6.59863e-10
2.73914e-08
-4.7801e-10
2.76151e-08
-2.22666e-10
2.78987e-08
1.0601e-10
2.82598e-08
5.09341e-10
2.87139e-08
9.94202e-10
2.92784e-08
1.49926e-09
2.99668e-08
1.88162e-09
3.06568e-08
1.6052e-09
3.1272e-08
8.96561e-10
3.17901e-08
5.29185e-11
3.22001e-08
-8.05972e-10
3.25007e-08
-1.60427e-09
3.2696e-08
-2.28941e-09
3.27921e-08
-2.82891e-09
3.27976e-08
-3.2096e-09
3.27233e-08
-3.43014e-09
3.25823e-08
-3.4958e-09
3.23897e-08
-3.41735e-09
3.21626e-08
-3.21033e-09
3.19192e-08
-2.89412e-09
3.16791e-08
-2.49115e-09
3.14622e-08
-2.0263e-09
3.1288e-08
-1.52604e-09
3.11748e-08
-1.01767e-09
3.11372e-08
-5.28094e-10
3.11835e-08
-8.23185e-11
3.13138e-08
2.98083e-10
3.15162e-08
5.9812e-10
3.1767e-08
8.10465e-10
9.37105e-10
3.20326e-08
3.65306e-08
-2.98698e-10
3.64467e-08
-3.68441e-10
3.63485e-08
-4.44067e-10
3.62393e-08
-5.21938e-10
3.61238e-08
-5.98332e-10
3.60073e-08
-6.69982e-10
3.58948e-08
-7.34282e-10
3.57909e-08
-7.89367e-10
3.56993e-08
-8.33685e-10
3.56231e-08
-8.65545e-10
3.55654e-08
-8.82478e-10
3.5529e-08
-8.81341e-10
3.55176e-08
-8.57307e-10
3.55351e-08
-8.03097e-10
3.55879e-08
-7.12629e-10
3.56838e-08
-5.73976e-10
3.58314e-08
-3.70216e-10
3.60464e-08
-1.09041e-10
3.63495e-08
2.06286e-10
3.67564e-08
5.87292e-10
3.72863e-08
9.69406e-10
3.79536e-08
1.2143e-09
3.86368e-08
9.21954e-10
3.92546e-08
2.78823e-10
3.97795e-08
-4.72012e-10
4.01974e-08
-1.2239e-09
4.05052e-08
-1.91208e-09
4.07066e-08
-2.49071e-09
4.0808e-08
-2.93039e-09
4.08192e-08
-3.22073e-09
4.07522e-08
-3.3632e-09
4.06218e-08
-3.36542e-09
4.04447e-08
-3.24019e-09
4.0239e-08
-3.0047e-09
4.00242e-08
-2.67925e-09
3.98195e-08
-2.28647e-09
3.96437e-08
-1.85047e-09
3.95135e-08
-1.39588e-09
3.94425e-08
-9.46622e-10
3.9439e-08
-5.24643e-10
3.95051e-08
-1.48446e-10
3.96353e-08
1.67949e-10
3.98167e-08
4.1674e-10
4.00304e-08
5.96692e-10
7.12675e-10
4.02549e-08
4.78945e-08
-2.19684e-10
4.78023e-08
-2.76199e-10
4.76966e-08
-3.38388e-10
4.75788e-08
-4.04082e-10
4.74511e-08
-4.70672e-10
4.73167e-08
-5.3558e-10
4.71789e-08
-5.96514e-10
4.70411e-08
-6.51564e-10
4.69065e-08
-6.99041e-10
4.67782e-08
-7.37291e-10
4.66597e-08
-7.63945e-10
4.65548e-08
-7.7642e-10
4.64682e-08
-7.70713e-10
4.64053e-08
-7.40254e-10
4.63744e-08
-6.81724e-10
4.63856e-08
-5.85135e-10
4.64486e-08
-4.33199e-10
4.65821e-08
-2.42542e-10
4.68105e-08
-2.21772e-11
4.71496e-08
2.48226e-10
4.76206e-08
4.98407e-10
4.82397e-08
5.95234e-10
4.88899e-08
2.71694e-10
4.94867e-08
-3.17948e-10
4.99981e-08
-9.83444e-10
5.04064e-08
-1.63215e-09
5.07066e-08
-2.21229e-09
5.0902e-08
-2.68607e-09
5.09995e-08
-3.02798e-09
5.10099e-08
-3.23108e-09
5.09467e-08
-3.29996e-09
5.08257e-08
-3.24447e-09
5.06647e-08
-3.07916e-09
5.04824e-08
-2.82238e-09
5.02978e-08
-2.49471e-09
5.01292e-08
-2.11789e-09
4.99929e-08
-1.7141e-09
4.99018e-08
-1.30485e-09
4.9865e-08
-9.09788e-10
4.9886e-08
-5.45631e-10
4.99627e-08
-2.25213e-10
5.00876e-08
4.31294e-11
5.02488e-08
2.55539e-10
5.04317e-08
4.13787e-10
5.22907e-10
5.06214e-08
6.19246e-08
-1.28894e-10
6.18225e-08
-1.74096e-10
6.17084e-08
-2.24245e-10
6.15824e-08
-2.78114e-10
6.14457e-08
-3.33972e-10
6.13e-08
-3.89891e-10
6.11475e-08
-4.43977e-10
6.09904e-08
-4.94485e-10
6.08312e-08
-5.39774e-10
6.06723e-08
-5.78388e-10
6.05165e-08
-6.08204e-10
6.03675e-08
-6.27409e-10
6.02299e-08
-6.33058e-10
6.01092e-08
-6.19604e-10
6.00142e-08
-5.86748e-10
5.99562e-08
-5.27101e-10
5.9946e-08
-4.2301e-10
6.00041e-08
-3.00627e-10
6.01566e-08
-1.74715e-10
6.042e-08
-1.51634e-11
6.08177e-08
1.00751e-10
6.13672e-08
4.56593e-11
6.19598e-08
-3.20871e-10
6.25114e-08
-8.69534e-10
6.29864e-08
-1.45848e-09
6.33645e-08
-2.01027e-09
6.36397e-08
-2.48741e-09
6.38147e-08
-2.86107e-09
6.3897e-08
-3.11027e-09
6.38982e-08
-3.23228e-09
6.38332e-08
-3.23498e-09
6.37187e-08
-3.12998e-09
6.35725e-08
-2.93299e-09
6.3413e-08
-2.6629e-09
6.3258e-08
-2.33966e-09
6.31233e-08
-1.98321e-09
6.30221e-08
-1.61284e-09
6.29635e-08
-1.24631e-09
6.29526e-08
-8.98895e-10
6.29897e-08
-5.82701e-10
6.30707e-08
-3.06179e-10
6.31875e-08
-7.37277e-11
6.33303e-08
1.12702e-10
6.3488e-08
2.56098e-10
3.60913e-10
6.365e-08
7.90413e-08
-2.84331e-11
7.89312e-08
-6.39647e-11
7.88105e-08
-1.03566e-10
7.8679e-08
-1.46592e-10
7.8537e-08
-1.91984e-10
7.83855e-08
-2.38398e-10
7.8226e-08
-2.84402e-10
7.806e-08
-3.28538e-10
7.78896e-08
-3.69371e-10
7.77169e-08
-4.05671e-10
7.75443e-08
-4.35616e-10
7.7375e-08
-4.58127e-10
7.7213e-08
-4.71012e-10
7.70639e-08
-4.70527e-10
7.69352e-08
-4.5803e-10
7.68374e-08
-4.29364e-10
7.67846e-08
-3.70176e-10
7.67949e-08
-3.10916e-10
7.6889e-08
-2.68829e-10
7.70869e-08
-2.1304e-10
7.7416e-08
-2.28322e-10
7.78905e-08
-4.28868e-10
7.84118e-08
-8.42149e-10
7.88999e-08
-1.35769e-09
7.9319e-08
-1.87753e-09
7.96482e-08
-2.33952e-09
7.98818e-08
-2.72099e-09
8.00227e-08
-3.002e-09
8.00787e-08
-3.1663e-09
8.00626e-08
-3.21616e-09
7.99903e-08
-3.16265e-09
7.98786e-08
-3.01832e-09
7.97449e-08
-2.79923e-09
7.9606e-08
-2.52402e-09
7.94775e-08
-2.21118e-09
7.93724e-08
-1.87806e-09
7.93002e-08
-1.54065e-09
7.92668e-08
-1.21294e-09
7.92742e-08
-9.06307e-10
7.93207e-08
-6.29157e-10
7.94014e-08
-3.86852e-10
7.95094e-08
-1.81815e-10
7.96356e-08
-1.34769e-11
7.97726e-08
1.19084e-10
2.21242e-10
7.99123e-08
9.97078e-08
7.75642e-11
9.95938e-08
5.00671e-11
9.94709e-08
1.93524e-11
9.93386e-08
-1.4279e-11
9.91969e-08
-5.02553e-11
9.90462e-08
-8.77311e-11
9.88875e-08
-1.25753e-10
9.87222e-08
-1.6322e-10
9.8552e-08
-1.99111e-10
9.83787e-08
-2.32442e-10
9.8205e-08
-2.6185e-10
9.8034e-08
-2.87136e-10
9.78689e-08
-3.05917e-10
9.77166e-08
-3.18274e-10
9.75827e-08
-3.24149e-10
9.74751e-08
-3.21736e-10
9.74158e-08
-3.10834e-10
9.74163e-08
-3.11403e-10
9.74778e-08
-3.30341e-10
9.76334e-08
-3.68671e-10
9.79183e-08
-5.13245e-10
9.83329e-08
-8.4341e-10
9.87854e-08
-1.29464e-09
9.92045e-08
-1.77685e-09
9.95576e-08
-2.23065e-09
9.98268e-08
-2.60867e-09
1.00009e-07
-2.90286e-09
1.00107e-07
-3.10035e-09
1.0013e-07
-3.18936e-09
1.00092e-07
-3.17807e-09
1.00009e-07
-3.07994e-09
9.98983e-08
-2.90732e-09
9.97749e-08
-2.67584e-09
9.9654e-08
-2.40314e-09
9.95483e-08
-2.10552e-09
9.94676e-08
-1.79734e-09
9.94183e-08
-1.49131e-09
9.94034e-08
-1.19805e-09
9.94229e-08
-9.25813e-10
9.9474e-08
-6.80279e-10
9.95519e-08
-4.6474e-10
9.96504e-08
-2.80298e-10
9.97632e-08
-1.26239e-10
9.98828e-08
-5.81288e-13
9.97384e-11
1.00004e-07
1.24476e-07
1.86107e-10
1.24361e-07
1.64856e-10
1.24239e-07