/*--------------------------------*- C++ -*----------------------------------*\
| =========                 |                                                 |
| \\      /  F ield         | OpenFOAM: The Open Source CFD Toolbox           |
|  \\    /   O peration     | Version:  2312                                  |
|   \\  /    A nd           | Website:  www.openfoam.com                      |
|    \\/     M anipulation  |                                                 |
\*---------------------------------------------------------------------------*/
FoamFile
{
    version     2.0;
    format      ascii;
    arch        "LSB;label=32;scalar=64";
    class       volVectorField;
    location    "39";
    object      U;
}
// * * * * * * * * * * * * * * * * * * * * * * * * * * * * * * * * * * * * * //

dimensions      [0 1 -1 0 0 0 0];

internalField   nonuniform List<vector> 
4800
(
(0.000499065 4.22259e-07 -3.62921e-26)
(0.000488107 4.96492e-07 -2.55959e-25)
(0.00048059 5.41358e-07 3.28309e-25)
(0.000475498 5.57003e-07 1.50769e-25)
(0.000472231 5.4109e-07 2.2305e-24)
(0.000470443 5.02276e-07 -5.3166e-24)
(0.000469881 4.44004e-07 4.9619e-24)
(0.000470593 3.51668e-07 -7.17745e-24)
(0.000472455 2.08495e-07 2.3097e-24)
(0.000475626 -7.18238e-08 7.84859e-24)
(0.000480532 -6.39279e-07 -2.42117e-24)
(0.000488522 -2.12676e-06 -2.07957e-25)
(0.000506909 -7.51684e-06 -2.93973e-24)
(0.000554444 -2.94211e-05 1.34065e-24)
(0.000634748 -9.77832e-05 -1.0595e-24)
(0.00153861 2.21497e-06 -1.14545e-25)
(0.00150487 1.7888e-06 1.42795e-25)
(0.00148145 1.44739e-06 -1.32393e-24)
(0.00146533 1.13174e-06 9.88677e-25)
(0.00145469 7.98616e-07 3.18371e-24)
(0.00144845 4.29054e-07 -5.08464e-24)
(0.00144583 -1.58971e-08 -1.43801e-24)
(0.00144687 -6.1495e-07 -3.32202e-25)
(0.00145107 -1.45778e-06 1.17912e-23)
(0.00145906 -2.85595e-06 -8.74183e-24)
(0.00147202 -5.51442e-06 9.53252e-25)
(0.0014928 -1.16784e-05 1.44564e-24)
(0.00153036 -2.92594e-05 -2.12574e-24)
(0.00159613 -8.29484e-05 -6.155e-25)
(0.00166839 -0.000206141 2.75348e-24)
(0.00268299 7.16734e-06 -8.16838e-26)
(0.00262459 5.77481e-06 8.34317e-26)
(0.00258368 4.68745e-06 8.63401e-25)
(0.00255515 3.71437e-06 -2.06071e-24)
(0.00253591 2.72766e-06 2.02472e-24)
(0.00252407 1.63147e-06 1.90904e-24)
(0.00251828 2.72853e-07 -4.95501e-24)
(0.00251844 -1.57411e-06 -3.02602e-24)
(0.00252349 -4.04188e-06 7.22689e-24)
(0.00253437 -7.99663e-06 2.74386e-24)
(0.00255237 -1.49941e-05 -9.57148e-24)
(0.00257952 -2.90349e-05 -1.42964e-24)
(0.00262006 -6.00806e-05 4.08734e-24)
(0.00267278 -0.000128455 6.42061e-24)
(0.00271166 -0.000244167 -3.31569e-24)
(0.00393829 1.61099e-05 3.00721e-26)
(0.00385382 1.31134e-05 -2.10025e-25)
(0.00379404 1.07745e-05 9.39523e-25)
(0.00375182 8.69136e-06 1.00923e-24)
(0.00372274 6.60081e-06 -1.00076e-24)
(0.00370408 4.30574e-06 -5.79677e-24)
(0.00369383 1.48785e-06 -3.94905e-24)
(0.00369144 -2.2461e-06 1.45988e-23)
(0.00369558 -7.06537e-06 5.97448e-24)
(0.00370664 -1.45627e-05 -8.74865e-24)
(0.00372547 -2.69003e-05 -3.53883e-24)
(0.00375196 -4.85184e-05 -2.69028e-24)
(0.00378538 -8.78513e-05 8.42437e-26)
(0.00381824 -0.000155656 1.98922e-24)
(0.00383116 -0.000248013 9.73537e-27)
(0.00530853 2.99532e-05 -5.49587e-26)
(0.0051976 2.4584e-05 -3.37779e-25)
(0.00511819 2.03848e-05 -2.15743e-25)
(0.00506131 1.66623e-05 5.78746e-25)
(0.00502133 1.29694e-05 -1.6508e-24)
(0.00499463 8.98163e-06 4.12017e-24)
(0.00497858 4.20479e-06 -7.26569e-25)
(0.00497178 -1.79207e-06 2.54332e-24)
(0.00497305 -9.79198e-06 -1.40875e-23)
(0.00498147 -2.10728e-05 2.66945e-23)
(0.00499691 -3.83253e-05 -2.59222e-23)
(0.00501746 -6.50059e-05 1.36713e-23)
(0.00503959 -0.000106277 -1.26936e-23)
(0.00505514 -0.0001656 1.20046e-23)
(0.00505287 -0.000235741 -4.80177e-24)
(0.00679397 4.97293e-05 7.23446e-26)
(0.00665807 4.11805e-05 2.60525e-25)
(0.00655941 3.44656e-05 -1.37613e-24)
(0.00648767 2.85352e-05 -8.75872e-25)
(0.00643617 2.27217e-05 2.3446e-24)
(0.00640049 1.6551e-05 8.42094e-25)
(0.00637742 9.385e-06 -6.58934e-24)
(0.00636475 6.24989e-07 1.57258e-23)
(0.00636084 -1.05219e-05 -2.04432e-23)
(0.00636413 -2.55927e-05 4.90881e-24)
(0.00637302 -4.6522e-05 1.49031e-23)
(0.00638472 -7.54956e-05 -2.07185e-23)
(0.00639506 -0.000114538 1.03852e-23)
(0.00639786 -0.000163247 1.07148e-23)
(0.00638777 -0.000215424 -8.17905e-24)
(0.00838868 7.62284e-05 5.96998e-26)
(0.00823232 6.38038e-05 -3.54222e-25)
(0.00811678 5.396e-05 1.27284e-24)
(0.00803126 4.52734e-05 -1.76897e-24)
(0.00796855 3.68452e-05 -6.02473e-24)
(0.00792362 2.80486e-05 1.02733e-23)
(0.00789275 1.81566e-05 -6.23967e-24)
(0.00787312 6.44625e-06 2.12313e-23)
(0.00786245 -7.84381e-06 -1.44517e-23)
(0.00785859 -2.5954e-05 -6.75184e-24)
(0.00785917 -4.91473e-05 -1.3292e-23)
(0.00786111 -7.8235e-05 1.22321e-23)
(0.0078609 -0.000113211 3.44985e-24)
(0.00785463 -0.000152273 2.97788e-24)
(0.00784036 -0.000191164 -2.627e-24)
(0.0100777 0.000109471 -8.62011e-26)
(0.00990969 9.28488e-05 1.17132e-24)
(0.00978258 7.94746e-05 -2.73177e-24)
(0.00968647 6.76217e-05 -2.24816e-24)
(0.00961435 5.61985e-05 8.37471e-25)
(0.00956103 4.44571e-05 1.65526e-24)
(0.00952252 3.16447e-05 5.94678e-24)
(0.00949558 1.70303e-05 -1.62025e-23)
(0.00947748 -5.16598e-08 -8.64455e-24)
(0.00946564 -2.03659e-05 2.38205e-23)
(0.00945747 -4.4475e-05 -7.40468e-24)
(0.00945017 -7.22638e-05 2.53733e-23)
(0.0094412 -0.000102813 -1.33854e-23)
(0.00942831 -0.000134251 -4.30407e-24)
(0.0094112 -0.000163948 2.55877e-24)
(0.0118357 0.00014802 -1.152e-26)
(0.0116695 0.000127638 6.48263e-25)
(0.0115398 0.000110811 -9.23371e-25)
(0.0114391 9.5713e-05 2.21989e-24)
(0.0113615 8.11717e-05 -1.32531e-23)
(0.0113023 6.64002e-05 1.40006e-23)
(0.0112577 5.0697e-05 -2.20832e-23)
(0.0112243 3.34352e-05 1.35832e-23)
(0.0111993 1.41411e-05 1.01109e-23)
(0.01118 -7.52169e-06 2.1998e-23)
(0.0111639 -3.15204e-05 -2.87756e-23)
(0.0111488 -5.7313e-05 -5.37232e-24)
(0.0111331 -8.38147e-05 2.43172e-24)
(0.0111153 -0.000109592 1.78179e-23)
(0.0110959 -0.000133122 -7.28349e-24)
(0.0136296 0.000188364 6.50561e-26)
(0.0134821 0.000165779 -2.76022e-25)
(0.0133617 0.000146359 1.22197e-24)
(0.0132649 0.000128507 -4.28775e-24)
(0.0131881 0.000111168 6.5046e-24)
(0.0131275 9.36526e-05 -8.40651e-24)
(0.01308 7.54064e-05 1.4085e-23)
(0.0130426 5.59966e-05 2.47757e-24)
(0.0130126 3.51966e-05 -1.9459e-23)
(0.0129877 1.30035e-05 2.7791e-23)
(0.0129658 -1.02338e-05 -3.07148e-23)
(0.0129451 -3.38583e-05 -9.13231e-24)
(0.0129248 -5.69694e-05 1.60682e-23)
(0.0129038 -7.86399e-05 4.8098e-24)
(0.0128828 -9.80369e-05 -2.11117e-24)
(0.0154305 0.000225179 2.81023e-25)
(0.0153159 0.000202981 -2.18557e-24)
(0.0152168 0.000182707 -3.42455e-24)
(0.0151335 0.000163309 8.15368e-24)
(0.0150648 0.000144081 3.64193e-24)
(0.0150087 0.000124595 -2.2888e-23)
(0.014963 0.000104549 7.04911e-24)
(0.0149253 8.37675e-05 5.07853e-24)
(0.0148936 6.22646e-05 -2.20752e-23)
(0.014866 4.02695e-05 2.2974e-23)
(0.0148411 1.82017e-05 -1.8565e-23)
(0.0148176 -3.34302e-06 4.7693e-23)
(0.014795 -2.37272e-05 -2.30692e-23)
(0.0147726 -4.24226e-05 1.3656e-23)
(0.014751 -5.90072e-05 -3.74695e-24)
(0.0172307 0.000253618 -1.34816e-25)
(0.0171535 0.000234409 1.53602e-24)
(0.0170819 0.000215371 -2.90281e-24)
(0.0170184 0.0001961 -1.44581e-24)
(0.0169637 0.000176365 1.62205e-23)
(0.0169172 0.000156116 -2.36149e-24)
(0.0168777 0.000135374 -2.88505e-23)
(0.0168437 0.000114235 3.3696e-23)
(0.016814 9.29154e-05 -7.55961e-24)
(0.0167872 7.17485e-05 -2.63378e-23)
(0.0167625 5.11554e-05 2.82044e-23)
(0.0167391 3.15706e-05 1.53738e-23)
(0.0167167 1.34057e-05 -1.28055e-23)
(0.0166948 -3.0722e-06 -2.24831e-23)
(0.0166741 -1.76716e-05 1.89857e-24)
(0.0190516 0.000272908 2.93257e-26)
(0.0190029 0.000257893 -1.78546e-24)
(0.0189555 0.000241384 8.07776e-24)
(0.0189113 0.000223568 4.13151e-25)
(0.0188716 0.000204623 4.44356e-24)
(0.0188364 0.000184844 -1.60583e-23)
(0.0188053 0.00016456 1.36973e-23)
(0.0187774 0.000144092 3.13558e-24)
(0.0187521 0.000123788 2.83125e-23)
(0.0187287 0.000104006 -4.37016e-23)
(0.0187066 8.51106e-05 -1.98997e-23)
(0.0186854 6.7403e-05 -1.32896e-23)
(0.0186652 5.11286e-05 2.49607e-23)
(0.0186454 3.64015e-05 -7.34612e-25)
(0.0186268 2.32923e-05 2.44992e-24)
(0.0209167 0.000285343 -1.76854e-27)
(0.0208846 0.00027506 1.9544e-24)
(0.0208524 0.000261421 -2.82876e-24)
(0.0208215 0.000245574 1.88441e-26)
(0.0207929 0.000228094 3.33044e-24)
(0.0207667 0.000209541 8.40444e-24)
(0.0207428 0.000190469 -3.26279e-23)
(0.0207208 0.000171344 2.75516e-24)
(0.0207002 0.000152565 1.65898e-23)
(0.0206806 0.000134466 -7.68813e-24)
(0.020662 0.000117336 2.09993e-23)
(0.0206439 0.000101373 1.48313e-23)
(0.0206266 8.67213e-05 -2.69093e-23)
(0.0206095 7.34141e-05 1.85686e-23)
(0.0205935 6.14628e-05 -1.54691e-23)
(0.0228176 0.00029486 -2.26485e-25)
(0.022795 0.000288898 -4.56567e-25)
(0.0227715 0.000278075 3.59007e-24)
(0.0227485 0.0002643 -1.661e-23)
(0.0227267 0.000248533 1.44927e-23)
(0.0227062 0.000231529 -1.01652e-23)
(0.0226872 0.000213984 7.33395e-24)
(0.0226692 0.000196443 -5.13989e-23)
(0.0226522 0.000179308 7.4257e-23)
(0.0226358 0.000162867 -4.3807e-23)
(0.02262 0.00014734 3.91896e-23)
(0.0226047 0.000132862 3.2989e-23)
(0.02259 0.000119513 -5.77314e-23)
(0.0225754 0.000107294 1.88563e-23)
(0.0225618 9.61885e-05 -7.96218e-25)
(0.024702 0.000302815 -9.51963e-27)
(0.024687 0.000300727 -1.4963e-24)
(0.0246697 0.000292842 1.57321e-24)
(0.0246523 0.000281307 -4.7363e-25)
(0.0246354 0.000267412 6.20797e-24)
(0.0246192 0.000252113 -1.04784e-23)
(0.0246038 0.000236219 9.52102e-24)
(0.024589 0.000220299 -2.9728e-23)
(0.0245749 0.000204734 6.74387e-23)
(0.0245611 0.000189773 -8.61959e-23)
(0.0245478 0.000175595 7.0632e-23)
(0.0245347 0.000162295 -2.38769e-23)
(0.0245223 0.000149925 1.2546e-24)
(0.0245099 0.000138475 5.53949e-24)
(0.0244983 0.000127922 -1.0609e-23)
(0.026484 0.000308296 -8.0578e-25)
(0.0264748 0.000309231 -1.44387e-25)
(0.0264634 0.000304708 1.93357e-24)
(0.0264511 0.000295959 -3.49056e-24)
(0.0264386 0.000284338 1.15682e-23)
(0.0264263 0.000270996 -1.12492e-23)
(0.0264145 0.000256887 -9.18989e-24)
(0.0264029 0.000242604 -2.16615e-23)
(0.0263917 0.00022851 1.15196e-23)
(0.0263806 0.000214837 5.2527e-23)
(0.0263698 0.000201753 -2.76438e-23)
(0.0263592 0.000189348 1.63949e-23)
(0.0263489 0.000177667 -6.75963e-24)
(0.0263387 0.000166702 -2.0027e-23)
(0.0263291 0.000156439 1.02633e-23)
(0.0280471 0.000311416 2.56386e-25)
(0.028041 0.000314616 -2.61583e-25)
(0.0280349 0.000312393 2.51942e-24)
(0.0280279 0.000306824 -8.73041e-24)
(0.0280196 0.000297727 -1.9298e-24)
(0.0280112 0.000286602 2.13454e-23)
(0.028003 0.000274473 -1.56976e-23)
(0.0279948 0.000261932 -8.76947e-24)
(0.0279867 0.000249327 8.31783e-24)
(0.0279784 0.000236891 -9.0169e-24)
(0.0279703 0.000224796 2.11595e-23)
(0.0279621 0.00021314 1.0446e-23)
(0.0279542 0.000201977 -3.91449e-23)
(0.0279463 0.000191315 2.69475e-23)
(0.0279387 0.000181152 -5.47816e-24)
(0.029221 0.000311725 7.04577e-25)
(0.0292216 0.000317582 -1.34513e-25)
(0.0292205 0.000316632 -1.82776e-25)
(0.0292185 0.000313473 3.442e-24)
(0.029215 0.000307638 -5.84794e-24)
(0.0292106 0.000298695 -9.78411e-24)
(0.0292061 0.000288498 -9.31494e-24)
(0.0292014 0.000277596 2.63426e-23)
(0.0291966 0.000266348 2.33104e-23)
(0.0291914 0.000255014 -5.57362e-23)
(0.0291863 0.000243777 3.11069e-23)
(0.029181 0.000232742 -2.10959e-24)
(0.0291757 0.000221971 -1.66968e-24)
(0.0291704 0.000211487 2.22157e-24)
(0.0291652 0.000201304 -1.01609e-24)
(0.0297865 0.000303771 -1.66187e-24)
(0.029794 0.000313609 -1.16159e-24)
(0.0297993 0.000316485 3.96771e-24)
(0.029802 0.000314583 -3.18642e-24)
(0.0298032 0.000309688 1.7065e-24)
(0.0298039 0.000302724 4.63448e-24)
(0.0298042 0.000294387 -3.5286e-24)
(0.029804 0.000285071 -2.17576e-23)
(0.0298033 0.000275127 4.80334e-23)
(0.0298022 0.000264828 -1.96486e-23)
(0.0298009 0.000254363 7.19374e-24)
(0.0297993 0.000243845 -1.28622e-23)
(0.0297975 0.000233349 -1.27214e-23)
(0.0297956 0.000222923 1.84991e-23)
(0.0297935 0.000212601 -7.87867e-24)
(0.029568 0.000293447 2.3482e-24)
(0.0295773 0.00030424 -4.56089e-24)
(0.0295848 0.000308653 1.47279e-24)
(0.0295908 0.000308692 -5.80897e-25)
(0.0295956 0.000305809 3.13209e-24)
(0.0295998 0.000300761 -3.80941e-24)
(0.0296035 0.000294046 -1.0411e-23)
(0.0296065 0.000286095 2.54609e-23)
(0.0296091 0.000277275 5.75129e-24)
(0.0296112 0.000267849 -1.4735e-23)
(0.029613 0.000257997 -7.44967e-24)
(0.0296145 0.000247836 8.41418e-24)
(0.0296157 0.000237461 -8.91105e-24)
(0.0296167 0.000226937 5.04186e-24)
(0.0296174 0.000216317 -2.17648e-24)
(0.0285697 0.000279279 1.32226e-24)
(0.0285868 0.000289672 -2.50567e-24)
(0.0286022 0.000294735 -6.39311e-25)
(0.0286158 0.000295896 3.04836e-24)
(0.0286277 0.000294182 -7.21643e-25)
(0.0286384 0.000290261 7.94191e-25)
(0.028648 0.000284646 -6.29824e-25)
(0.0286567 0.000277741 -1.36266e-24)
(0.0286644 0.000269853 -3.16729e-24)
(0.0286715 0.000261203 2.02883e-23)
(0.0286778 0.000251953 -1.2506e-23)
(0.0286835 0.000242222 1.29126e-24)
(0.0286886 0.000232108 -1.6134e-23)
(0.0286934 0.000221685 7.7951e-24)
(0.0286976 0.000211012 2.52437e-24)
(0.0269751 0.00026006 3.09053e-24)
(0.0269938 0.000269504 -5.16388e-24)
(0.0270114 0.000274406 1.14844e-24)
(0.0270279 0.0002758 -9.72494e-25)
(0.0270432 0.000274538 3.03558e-25)
(0.0270575 0.000271258 1.35499e-24)
(0.0270709 0.00026641 7.24798e-25)
(0.0270835 0.000260305 -9.14471e-25)
(0.0270953 0.000253176 8.30845e-25)
(0.0271064 0.000245208 5.01626e-24)
(0.0271167 0.000236549 -1.11305e-23)
(0.0271265 0.000227316 8.7299e-24)
(0.0271356 0.0002176 -7.13189e-25)
(0.0271443 0.000207474 -2.73105e-24)
(0.0271523 0.000196996 4.36754e-25)
(0.0250489 0.000240944 1.14616e-24)
(0.0250713 0.000249078 -5.39011e-24)
(0.025093 0.000253346 8.43959e-24)
(0.0251137 0.000254592 -5.63599e-24)
(0.0251334 0.000253519 3.90446e-24)
(0.0251521 0.000250631 -1.80543e-24)
(0.02517 0.000246263 -8.19302e-25)
(0.0251869 0.000240658 1.43276e-25)
(0.025203 0.00023401 -2.43362e-24)
(0.0252184 0.000226487 -1.62982e-24)
(0.0252329 0.000218227 4.50731e-24)
(0.0252468 0.000209336 1.58375e-24)
(0.0252599 0.000199902 -2.6452e-24)
(0.0252725 0.000189994 8.85115e-25)
(0.0252844 0.00017967 -2.60729e-25)
(0.0229369 0.000219589 1.49856e-25)
(0.0229645 0.000226199 -2.01642e-24)
(0.0229916 0.000229616 -8.03543e-25)
(0.0230177 0.000230496 7.5424e-24)
(0.0230428 0.000229359 -6.67148e-24)
(0.0230669 0.000226572 1.7607e-24)
(0.02309 0.000222405 1.96975e-25)
(0.0231121 0.000217066 -4.02937e-26)
(0.0231332 0.00021073 3.21756e-25)
(0.0231534 0.000203543 -2.68387e-24)
(0.0231728 0.000195624 2.6693e-24)
(0.0231913 0.000187069 5.18919e-25)
(0.0232089 0.000177957 -5.89903e-25)
(0.0232258 0.000168354 -1.28378e-24)
(0.0232419 0.000158318 1.09121e-24)
(0.0207571 0.000195151 2.22218e-25)
(0.0207905 0.00020025 1.87721e-24)
(0.0208232 0.000202757 -2.17779e-24)
(0.020855 0.000203149 -1.26547e-24)
(0.0208857 0.000201805 7.21991e-24)
(0.0209153 0.000199009 -5.53498e-24)
(0.0209438 0.000194985 -2.38539e-25)
(0.0209711 0.000189908 -6.29749e-25)
(0.0209974 0.000183924 1.1757e-25)
(0.0210226 0.00017715 1.57531e-25)
(0.0210466 0.000169688 7.17835e-25)
(0.0210697 0.000161619 -4.78595e-26)
(0.0210917 0.000153015 8.78434e-26)
(0.0211127 0.000143938 -1.14824e-25)
(0.0211327 0.000134442 -7.97759e-25)
(0.0185934 0.000168376 1.59134e-24)
(0.018632 0.000172114 -2.39996e-24)
(0.0186699 0.000173775 -1.69536e-24)
(0.0187066 0.000173711 5.11189e-24)
(0.0187422 0.000172201 -1.84517e-24)
(0.0187765 0.000169462 -2.09761e-24)
(0.0188096 0.000165666 7.93696e-25)
(0.0188413 0.000160955 1.12085e-24)
(0.0188718 0.000155441 -1.19979e-24)
(0.0189011 0.00014922 6.20728e-25)
(0.018929 0.000142377 1.24619e-25)
(0.0189557 0.000134982 -3.63243e-25)
(0.0189811 0.000127098 1.34029e-24)
(0.0190052 0.000118783 -1.78009e-24)
(0.019028 0.000110087 6.35839e-25)
(0.016499 0.00014068 -3.11659e-25)
(0.0165412 0.0001433 -1.01741e-24)
(0.0165826 0.000144294 -3.05134e-24)
(0.0166227 0.000143924 8.47758e-24)
(0.0166616 0.000142381 -1.65236e-24)
(0.0166991 0.000139822 -2.16725e-24)
(0.0167352 0.000136377 5.59864e-25)
(0.0167699 0.000132155 -8.46334e-25)
(0.0168031 0.000127246 -1.07104e-24)
(0.0168349 0.000121726 1.08666e-24)
(0.0168652 0.000115665 4.99927e-26)
(0.016894 0.000109123 4.71186e-25)
(0.0169212 0.000102157 -5.02603e-25)
(0.0169469 9.48174e-05 -1.39399e-25)
(0.016971 8.71511e-05 1.57405e-25)
(0.0145034 0.000113696 1.21211e-24)
(0.0145472 0.000115479 1.66036e-24)
(0.01459 0.000116026 -1.66054e-24)
(0.0146315 0.000115521 -3.23213e-24)
(0.0146718 0.000114083 4.1007e-24)
(0.0147106 0.000111824 -4.19771e-24)
(0.0147479 0.000108843 6.58619e-26)
(0.0147837 0.000105222 1.46814e-24)
(0.0148179 0.00010103 4.19483e-25)
(0.0148505 9.63296e-05 -3.84557e-25)
(0.0148814 9.11768e-05 3.80549e-25)
(0.0149107 8.5623e-05 -4.41053e-25)
(0.0149381 7.97165e-05 2.15271e-25)
(0.0149639 7.35015e-05 2.36702e-25)
(0.0149877 6.70204e-05 3.17099e-26)
(0.0126219 8.88508e-05 -1.27263e-24)
(0.0126651 9.00515e-05 1.62681e-24)
(0.0127073 9.03446e-05 1.57691e-25)
(0.0127483 8.98434e-05 2.89895e-24)
(0.012788 8.86154e-05 -2.44329e-24)
(0.0128263 8.67419e-05 9.17716e-26)
(0.012863 8.42958e-05 -3.125e-25)
(0.0128982 8.13388e-05 -6.2968e-25)
(0.0129317 7.79237e-05 3.13559e-25)
(0.0129636 7.4099e-05 -9.60592e-25)
(0.0129937 6.99096e-05 3.02593e-25)
(0.013022 6.53981e-05 2.32084e-25)
(0.0130483 6.06046e-05 1.21687e-26)
(0.0130728 5.55664e-05 -6.02541e-26)
(0.0130953 5.03201e-05 -7.88073e-26)
(0.0108618 6.70999e-05 9.5219e-25)
(0.0109026 6.79165e-05 -7.61327e-25)
(0.0109425 6.80955e-05 -3.08626e-24)
(0.0109812 6.76841e-05 2.8915e-24)
(0.0110188 6.67201e-05 3.6603e-24)
(0.0110549 6.52638e-05 -1.11065e-24)
(0.0110897 6.33676e-05 -1.84117e-24)
(0.0111229 6.10758e-05 -2.08191e-24)
(0.0111545 5.84275e-05 1.46252e-24)
(0.0111844 5.546e-05 2.63316e-27)
(0.0112126 5.22084e-05 -1.74469e-25)
(0.0112389 4.87063e-05 5.11864e-26)
(0.0112633 4.49862e-05 -8.33602e-26)
(0.0112858 4.10785e-05 -4.01448e-26)
(0.0113062 3.70131e-05 8.48484e-26)
(0.00922623 4.88897e-05 -6.04803e-25)
(0.00926319 4.94613e-05 -3.9661e-25)
(0.00929941 4.96062e-05 5.27078e-25)
(0.00933471 4.93178e-05 -1.46697e-24)
(0.00936894 4.86223e-05 4.74424e-24)
(0.00940197 4.7564e-05 -5.94458e-24)
(0.00943368 4.61781e-05 5.46196e-24)
(0.00946399 4.44955e-05 -2.20701e-24)
(0.00949278 4.25446e-05 3.58735e-25)
(0.00951999 4.0353e-05 -1.11305e-25)
(0.00954551 3.7947e-05 -2.59067e-25)
(0.00956928 3.53525e-05 -1.00745e-25)
(0.00959122 3.25944e-05 4.04146e-26)
(0.0096113 2.96966e-05 5.43044e-26)
(0.00962942 2.66827e-05 -3.81784e-26)
(0.0077158 3.42491e-05 -2.96319e-25)
(0.0077481 3.46629e-05 8.30735e-26)
(0.00777988 3.48048e-05 1.6218e-25)
(0.00781093 3.46341e-05 -6.85547e-25)
(0.00784111 3.41756e-05 -2.59193e-25)
(0.00787028 3.34592e-05 2.46719e-24)
(0.00789833 3.25075e-05 -1.41695e-24)
(0.00792515 3.13411e-05 1.62135e-25)
(0.00795063 2.998e-05 -1.66589e-25)
(0.00797468 2.84437e-05 -1.14649e-25)
(0.00799722 2.67511e-05 2.74575e-26)
(0.00801817 2.49212e-05 3.53011e-26)
(0.00803745 2.29722e-05 -1.71926e-25)
(0.00805502 2.09224e-05 1.32631e-25)
(0.00807081 1.87894e-05 6.19561e-26)
(0.00632938 2.2924e-05 -1.08559e-25)
(0.0063566 2.32287e-05 -3.14725e-26)
(0.00638352 2.33684e-05 -1.63515e-24)
(0.00640992 2.32893e-05 4.87084e-25)
(0.00643567 2.30171e-05 -1.02003e-24)
(0.00646062 2.25693e-05 8.52018e-25)
(0.00648466 2.19593e-05 1.36481e-24)
(0.00650769 2.12007e-05 8.52949e-25)
(0.0065296 2.03065e-05 -1.09228e-24)
(0.0065503 1.92898e-05 3.26526e-25)
(0.00656969 1.81636e-05 1.39467e-25)
(0.00658772 1.69413e-05 -2.03573e-26)
(0.00660431 1.56354e-05 5.84038e-28)
(0.0066194 1.42594e-05 8.10275e-26)
(0.00663294 1.28255e-05 -1.14093e-25)
(0.00506406 1.45017e-05 -4.28027e-25)
(0.00508613 1.47222e-05 -5.5632e-25)
(0.0051081 1.48483e-05 -6.71495e-26)
(0.00512973 1.48291e-05 1.35874e-24)
(0.00515092 1.46884e-05 -9.03251e-25)
(0.00517152 1.44341e-05 -1.27119e-25)
(0.00519144 1.4074e-05 1.30788e-24)
(0.00521057 1.36163e-05 -5.42764e-26)
(0.00522882 1.30688e-05 -2.68354e-25)
(0.00524609 1.24402e-05 -5.85066e-25)
(0.00526231 1.17386e-05 1.96902e-25)
(0.00527741 1.09729e-05 1.51578e-25)
(0.00529132 1.01513e-05 -1.1227e-26)
(0.005304 9.28302e-06 1.19093e-25)
(0.00531539 8.37656e-06 -9.88911e-26)
(0.00391533 8.5054e-06 -9.4115e-26)
(0.00393242 8.65484e-06 8.16605e-27)
(0.00394957 8.75562e-06 6.64791e-25)
(0.00396653 8.76768e-06 4.05263e-25)
(0.00398322 8.70934e-06 -3.25212e-25)
(0.00399953 8.58251e-06 -6.93896e-25)
(0.00401535 8.3914e-06 2.47547e-25)
(0.00403061 8.14052e-06 -9.51149e-25)
(0.0040452 7.83445e-06 7.16306e-25)
(0.00405907 7.47816e-06 2.38621e-25)
(0.00407214 7.07652e-06 -1.03413e-25)
(0.00408434 6.63493e-06 -1.23408e-25)
(0.00409561 6.15838e-06 -2.30457e-26)
(0.00410593 5.65286e-06 7.02987e-26)
(0.00411522 5.12399e-06 -5.03338e-26)
(0.00287731 4.45654e-06 -1.74246e-25)
(0.00288977 4.54406e-06 8.44435e-27)
(0.00290237 4.61255e-06 5.39764e-25)
(0.00291489 4.63389e-06 -3.35548e-25)
(0.00292728 4.61897e-06 1.26558e-24)
(0.00293945 4.56709e-06 -2.2538e-24)
(0.00295132 4.48026e-06 1.71699e-24)
(0.00296281 4.36068e-06 -1.31439e-24)
(0.00297385 4.21065e-06 8.37426e-25)
(0.00298439 4.0328e-06 -4.40329e-25)
(0.00299436 3.82969e-06 1.35814e-25)
(0.00300371 3.60431e-06 1.08541e-26)
(0.00301239 3.3593e-06 -3.07069e-26)
(0.00302037 3.09825e-06 5.12887e-26)
(0.0030276 2.8249e-06 -2.06095e-26)
(0.00194307 1.92356e-06 2.65747e-25)
(0.00195133 1.96062e-06 2.7182e-25)
(0.00195976 1.99682e-06 -1.17362e-24)
(0.00196818 2.01367e-06 8.38577e-25)
(0.00197657 2.01537e-06 -1.64493e-26)
(0.00198485 2.0008e-06 1.79939e-25)
(0.00199297 1.97071e-06 -2.42343e-25)
(0.00200087 1.92594e-06 -4.19617e-25)
(0.00200851 1.86743e-06 3.87649e-25)
(0.00201583 1.7963e-06 5.75023e-27)
(0.00202279 1.71367e-06 -1.65278e-25)
(0.00202935 1.6209e-06 6.54737e-26)
(0.00203548 1.51914e-06 -1.21244e-26)
(0.00204115 1.41022e-06 -3.1218e-27)
(0.00204632 1.29661e-06 1.37423e-26)
(0.00110504 5.65085e-07 -2.69466e-25)
(0.00110959 5.78084e-07 8.08946e-25)
(0.00111428 5.95665e-07 4.47147e-25)
(0.00111899 6.06984e-07 -8.39932e-25)
(0.00112371 6.12872e-07 -9.67007e-26)
(0.00112842 6.13066e-07 -7.9025e-26)
(0.00113305 6.07914e-07 2.17891e-25)
(0.0011376 5.9774e-07 -3.47877e-25)
(0.00114201 5.82871e-07 4.06345e-25)
(0.00114627 5.63671e-07 -2.02205e-25)
(0.00115035 5.40462e-07 -7.57014e-26)
(0.00115421 5.13687e-07 2.67485e-26)
(0.00115784 4.83578e-07 5.45153e-26)
(0.00116122 4.50749e-07 -8.38705e-26)
(0.00116433 4.1655e-07 2.95301e-26)
(0.000355353 9.60794e-08 -1.94057e-27)
(0.000356681 1.29069e-07 1.57297e-25)
(0.000358079 1.553e-07 1.70029e-25)
(0.000359504 1.73182e-07 -2.75651e-25)
(0.000360956 1.84361e-07 5.2405e-25)
(0.000362418 1.90014e-07 -5.70793e-25)
(0.000363878 1.91081e-07 3.28048e-26)
(0.000365323 1.8821e-07 2.47642e-25)
(0.000366741 1.81835e-07 -3.383e-25)
(0.000368121 1.72234e-07 -3.00518e-26)
(0.000369453 1.59545e-07 1.29968e-25)
(0.000370728 1.43844e-07 -4.54894e-26)
(0.000371937 1.25064e-07 1.91418e-26)
(0.000373074 1.03202e-07 -2.16195e-26)
(0.000374131 7.85576e-08 2.4335e-27)
(0.000941866 -0.000265762 1.04228e-25)
(0.00107394 -0.000198635 2.78663e-24)
(0.00129504 -0.000128231 -8.181e-24)
(0.00151934 -7.20157e-05 1.22314e-23)
(0.00173232 -2.80589e-05 -4.59185e-24)
(0.00193937 4.87342e-06 -4.64745e-24)
(0.00214095 2.96084e-05 5.37701e-24)
(0.00233827 4.85385e-05 -1.08252e-23)
(0.00253266 6.35981e-05 6.26784e-25)
(0.00272523 7.63529e-05 6.91238e-24)
(0.0029169 8.80723e-05 -1.33119e-24)
(0.00310844 9.98631e-05 1.44703e-24)
(0.00330056 0.000112784 -1.36485e-25)
(0.00349402 0.000127918 9.2932e-25)
(0.00368988 0.000146343 -3.42638e-24)
(0.00388974 0.000169151 1.88905e-24)
(0.00409578 0.000197245 -6.26112e-25)
(0.00431136 0.000230731 2.24556e-26)
(0.00454184 0.000269002 1.57921e-24)
(0.00479336 0.000310232 -1.00481e-24)
(0.00507379 0.000348436 1.3236e-25)
(0.00538927 0.000372617 -1.16898e-25)
(0.0057171 0.000363972 2.25208e-25)
(0.00601395 0.000316455 8.68259e-25)
(0.00626362 0.00023649 -1.5609e-24)
(0.00646487 0.00013104 -1.07337e-24)
(0.00661872 6.3256e-06 1.17076e-26)
(0.00672682 -0.000132407 2.72234e-24)
(0.00679011 -0.000280706 3.99419e-24)
(0.00680891 -0.000434218 -7.89059e-24)
(0.0067832 -0.000588038 7.33885e-24)
(0.00671296 -0.000736393 -7.18255e-24)
(0.00659853 -0.000872669 2.09092e-24)
(0.00644079 -0.000989573 8.50876e-25)
(0.00624122 -0.00107928 -9.34959e-25)
(0.00600178 -0.00113348 3.2203e-24)
(0.00572477 -0.00114309 2.96875e-25)
(0.00541262 -0.0010976 2.31711e-24)
(0.00506794 -0.000983643 1.71454e-24)
(0.00469407 -0.000782848 -9.48923e-24)
(0.00429483 -0.000471557 -1.27127e-25)
(0.00387653 -2.80392e-05 4.84203e-24)
(0.00343225 0.000536416 1.9491e-24)
(0.00298472 0.00113547 -7.17545e-24)
(0.00273278 0.00145125 -3.89912e-25)
(0.00176318 -0.000346114 -3.1226e-24)
(0.00181578 -0.000311957 -4.61376e-24)
(0.00194751 -0.000243787 9.53557e-24)
(0.00211421 -0.000179476 4.73068e-24)
(0.00228994 -0.000124619 -1.65736e-23)
(0.00247033 -8.07875e-05 1.80343e-23)
(0.00265158 -4.62886e-05 -6.50979e-24)
(0.00283245 -1.88411e-05 5.38046e-24)
(0.00301285 3.59312e-06 -7.09735e-24)
(0.0031931 2.27471e-05 7.52277e-26)
(0.00337367 4.00575e-05 -3.8536e-24)
(0.00355506 5.67547e-05 7.65037e-24)
(0.00373785 7.39867e-05 -4.25319e-24)
(0.00392271 9.2882e-05 -3.90591e-24)
(0.00411067 0.000114522 -2.72117e-24)
(0.00430327 0.000139992 4.99537e-24)
(0.00450259 0.000170159 -6.9106e-25)
(0.00471185 0.000205039 2.8432e-24)
(0.00493629 0.000244006 5.2965e-25)
(0.00518177 0.000285289 -8.90968e-25)
(0.00545589 0.000323081 -3.95435e-25)
(0.00576472 0.000346791 -2.49888e-25)
(0.0060867 0.000338367 1.21852e-24)
(0.00637982 0.000292376 1.48895e-24)
(0.00662806 0.000215202 -1.33328e-24)
(0.00682976 0.000113598 -6.50632e-24)
(0.00698549 -6.29821e-06 8.8106e-24)
(0.00709652 -0.000139285 -6.23205e-24)
(0.00716359 -0.00028069 2.10131e-24)
(0.00718697 -0.000426052 -1.4132e-24)
(0.00716675 -0.000570379 1.08926e-23)
(0.00710319 -0.000707873 -1.52571e-23)
(0.006997 -0.000831958 8.76649e-24)
(0.00684959 -0.000935418 -6.5812e-24)
(0.00666311 -0.00101053 3.95239e-24)
(0.00644045 -0.00104905 -5.54772e-25)
(0.00618522 -0.00104203 8.0326e-24)
(0.00590184 -0.000979129 -1.25036e-24)
(0.00559602 -0.000847496 -8.37976e-24)
(0.00527626 -0.000629917 -6.13594e-24)
(0.0049557 -0.000304404 1.40769e-23)
(0.00465747 0.000149373 -1.45714e-23)
(0.00440908 0.000718274 -4.25899e-24)
(0.00425731 0.00130183 1.00635e-23)
(0.00426675 0.00154586 3.86608e-24)
(0.00272721 -0.00035145 -3.71086e-26)
(0.00273158 -0.000356524 -5.31269e-24)
(0.00278202 -0.000319063 1.01491e-23)
(0.00288212 -0.000264549 9.08551e-24)
(0.00300683 -0.000209775 -1.46613e-23)
(0.00314754 -0.000161169 2.81998e-25)
(0.00329738 -0.000120277 1.47773e-24)
(0.00345259 -8.61983e-05 1.64472e-23)
(0.00361132 -5.74452e-05 -1.95128e-23)
(0.0037727 -3.24922e-05 1.21491e-23)
(0.00393648 -9.94118e-06 3.74121e-24)
(0.00410271 1.14565e-05 -2.04351e-23)
(0.00427169 3.28757e-05 7.38558e-24)
(0.00444392 5.5454e-05 2.9889e-24)
(0.00462032 8.02552e-05 -6.35276e-24)
(0.00480231 0.000108343 1.04746e-23)
(0.00499187 0.000140546 -7.54166e-24)
(0.00519206 0.000176775 -2.45985e-25)
(0.00540797 0.000216376 5.54361e-25)
(0.00564515 0.000257654 6.70101e-25)
(0.0059109 0.000294977 7.72179e-26)
(0.00621118 0.000318149 4.31869e-25)
(0.00652561 0.000309877 -1.23024e-24)
(0.00681361 0.000265367 3.66536e-24)
(0.00705931 0.000190982 -5.79948e-24)
(0.00726061 9.32767e-05 3.33767e-24)
(0.00741757 -2.17428e-05 -7.85778e-24)
(0.00753109 -0.000148787 1.06005e-23)
(0.00760168 -0.000283084 -1.00413e-23)
(0.00762958 -0.000420025 1.99476e-25)
(0.007615 -0.000554537 -4.19729e-25)
(0.0075585 -0.000680806 1.77896e-23)
(0.00746124 -0.000792316 -5.92791e-24)
(0.00732517 -0.000881981 -3.20143e-24)
(0.0071532 -0.000942274 2.03217e-24)
(0.00694921 -0.000965248 4.55379e-24)
(0.0067182 -0.00094238 -4.99095e-24)
(0.00646662 -0.000864169 1.29763e-23)
(0.00620318 -0.000719439 -2.64911e-23)
(0.0059408 -0.000494423 1.04749e-23)
(0.00569938 -0.000173438 4.09137e-24)
(0.00551075 0.000254252 7.33287e-24)
(0.00541355 0.000765475 -9.17323e-24)
(0.00543986 0.00125523 3.11578e-24)
(0.00558283 0.00144562 -2.00247e-24)
(0.00381761 -0.00033098 -1.34818e-24)
(0.00379328 -0.000360316 -2.12679e-24)
(0.00379554 -0.000349207 -9.17187e-24)
(0.0038316 -0.000317617 2.24775e-24)
(0.00390135 -0.000273183 1.52849e-24)
(0.00399419 -0.000227628 7.63663e-24)
(0.00410336 -0.000185678 -1.65934e-23)
(0.00422404 -0.000148456 6.21266e-24)
(0.00435297 -0.000115654 2.15182e-23)
(0.0044882 -8.6398e-05 -5.69191e-24)
(0.00462864 -5.96215e-05 -5.42065e-24)
(0.0047738 -3.42304e-05 -8.69795e-25)
(0.00492359 -9.13501e-06 2.88351e-24)
(0.00507826 1.67431e-05 -5.67943e-24)
(0.00523856 4.44034e-05 1.28602e-24)
(0.0054058 7.48594e-05 -5.33792e-25)
(0.00558178 0.000108887 -3.05963e-24)
(0.0057694 0.000146264 9.90043e-25)
(0.00597361 0.000186297 5.54333e-24)
(0.00619964 0.000227392 -5.94738e-25)
(0.00645441 0.000264087 -1.33284e-24)
(0.00674371 0.00028658 -3.84948e-25)
(0.00704846 0.000278354 -2.17044e-24)
(0.00732956 0.000235285 -1.28307e-25)
(0.00757125 0.000163721 -5.19129e-24)
(0.00777092 7.00246e-05 8.93148e-24)
(0.00792811 -3.99315e-05 -7.88593e-24)
(0.00804332 -0.000160801 1.52804e-23)
(0.00811688 -0.000287686 -1.34369e-23)
(0.00814897 -0.00041585 2.91568e-24)
(0.00813998 -0.000540166 5.94495e-24)
(0.00809079 -0.000654849 -9.76054e-26)
(0.00800301 -0.000753511 -3.26047e-25)
(0.00787922 -0.000829304 8.68915e-26)
(0.00772308 -0.000875067 -1.15289e-24)
(0.00753947 -0.000883404 -2.14106e-24)
(0.0073347 -0.000846661 1.38459e-23)
(0.00711699 -0.000756812 -6.99674e-24)
(0.00689729 -0.000605375 3.90994e-25)
(0.00669107 -0.000383544 -2.65897e-23)
(0.00652038 -8.40336e-05 2.05971e-23)
(0.00641616 0.000292682 -8.74264e-24)
(0.00641206 0.000718086 1.32812e-24)
(0.00652265 0.00110761 1.25591e-23)
(0.00672028 0.00129728 -3.53289e-24)
(0.00503005 -0.000299741 -5.60372e-24)
(0.00499487 -0.000338129 1.15362e-23)
(0.00496769 -0.000346328 3.4445e-24)
(0.00496379 -0.000334403 1.48191e-23)
(0.00498188 -0.000308514 -3.61424e-23)
(0.00502636 -0.000272587 -1.21954e-24)
(0.00509042 -0.000235473 1.7676e-24)