/*--------------------------------*- C++ -*----------------------------------*\
| =========                 |                                                 |
| \\      /  F ield         | OpenFOAM: The Open Source CFD Toolbox           |
|  \\    /   O peration     | Version:  2312                                  |
|   \\  /    A nd           | Website:  www.openfoam.com                      |
|    \\/     M anipulation  |                                                 |
\*---------------------------------------------------------------------------*/
FoamFile
{
    version     2.0;
    format      ascii;
    arch        "LSB;label=32;scalar=64";
    class       volScalarField;
    location    "60";
    object      p;
}
// * * * * * * * * * * * * * * * * * * * * * * * * * * * * * * * * * * * * * //

dimensions      [0 2 -2 0 0 0 0];

internalField   nonuniform List<scalar> 
4800
(
8.13533e-14
-1.67528e-06
-3.02119e-06
-4.1172e-06
-5.021e-06
-5.77554e-06
-6.41256e-06
-6.95635e-06
-7.43189e-06
-7.84969e-06
-8.21944e-06
-8.5463e-06
-8.82709e-06
-9.29061e-06
-1.08558e-05
2.08455e-08
-1.65126e-06
-2.99548e-06
-4.09103e-06
-4.99535e-06
-5.75125e-06
-6.39126e-06
-6.9394e-06
-7.4212e-06
-7.8486e-06
-8.23627e-06
-8.60265e-06
-8.96411e-06
-9.42793e-06
-1.02351e-05
4.2792e-08
-1.62592e-06
-2.96845e-06
-4.06361e-06
-4.96858e-06
-5.7261e-06
-6.36888e-06
-6.91954e-06
-7.40578e-06
-7.84045e-06
-8.23852e-06
-8.61961e-06
-8.99428e-06
-9.37433e-06
-9.74193e-06
6.49662e-08
-1.59988e-06
-2.94033e-06
-4.03477e-06
-4.93998e-06
-5.69853e-06
-6.34316e-06
-6.8957e-06
-7.38294e-06
-7.81925e-06
-8.21584e-06
-8.58386e-06
-8.9187e-06
-9.19318e-06
-9.34374e-06
8.90296e-08
-1.57122e-06
-2.90903e-06
-4.00221e-06
-4.90709e-06
-5.66585e-06
-6.31075e-06
-6.86422e-06
-7.34829e-06
-7.77881e-06
-8.16171e-06
-8.49807e-06
-8.77287e-06
-8.95146e-06
-8.9833e-06
1.16344e-07
-1.53851e-06
-2.873e-06
-3.96425e-06
-4.86794e-06
-5.62572e-06
-6.26893e-06
-6.81988e-06
-7.29672e-06
-7.71324e-06
-8.07101e-06
-8.36448e-06
-8.57637e-06
-8.68029e-06
-8.65078e-06
1.48876e-07
-1.49979e-06
-2.83017e-06
-3.91855e-06
-4.81983e-06
-5.57484e-06
-6.2137e-06
-6.75754e-06
-7.22201e-06
-7.61684e-06
-7.94111e-06
-8.18761e-06
-8.3434e-06
-8.39558e-06
-8.33856e-06
1.90193e-07
-1.45158e-06
-2.77691e-06
-3.8612e-06
-4.75837e-06
-5.50818e-06
-6.13932e-06
-6.67133e-06
-7.11755e-06
-7.48475e-06
-7.77191e-06
-7.97411e-06
-8.08574e-06
-8.10577e-06
-8.03984e-06
2.46027e-07
-1.38819e-06
-2.70738e-06
-3.78603e-06
-4.67696e-06
-5.41861e-06
-6.03821e-06
-6.55382e-06
-6.97711e-06
-7.31375e-06
-7.56489e-06
-7.73012e-06
-7.81092e-06
-7.81403e-06
-7.74984e-06
3.24352e-07
-1.30146e-06
-2.61309e-06
-3.68419e-06
-4.56635e-06
-5.29664e-06
-5.90101e-06
-6.39653e-06
-6.79424e-06
-7.10122e-06
-7.32134e-06
-7.45924e-06
-7.52164e-06
-7.51925e-06
-7.46358e-06
4.34783e-07
-1.18093e-06
-2.48295e-06
-3.54406e-06
-4.41462e-06
-5.13049e-06
-5.71674e-06
-6.19034e-06
-6.56309e-06
-6.84399e-06
-7.04061e-06
-7.16137e-06
-7.21603e-06
-7.21666e-06
-7.1742e-06
5.87768e-07
-1.01458e-06
-2.30375e-06
-3.35174e-06
-4.20772e-06
-4.9066e-06
-5.47323e-06
-5.92531e-06
-6.27617e-06
-6.53717e-06
-6.71886e-06
-6.83207e-06
-6.88777e-06
-6.89782e-06
-6.87205e-06
7.94465e-07
-7.88923e-07
-2.06054e-06
-3.09149e-06
-3.9299e-06
-4.61015e-06
-5.15735e-06
-5.59048e-06
-5.92468e-06
-6.17331e-06
-6.34852e-06
-6.46225e-06
-6.5261e-06
-6.55062e-06
-6.5443e-06
1.06699e-06
-4.88668e-07
-1.73617e-06
-2.74531e-06
-3.56336e-06
-4.22443e-06
-4.75414e-06
-5.17266e-06
-5.49659e-06
-5.74046e-06
-5.91724e-06
-6.03903e-06
-6.11617e-06
-6.15893e-06
-6.17437e-06
1.41783e-06
-9.71184e-08
-1.31146e-06
-2.29286e-06
-3.08765e-06
-3.72971e-06
-4.24499e-06
-4.65421e-06
-4.97451e-06
-5.22069e-06
-5.40569e-06
-5.541e-06
-5.63636e-06
-5.70054e-06
-5.74006e-06
1.85835e-06
4.02139e-07
-7.66907e-07
-1.71293e-06
-2.48081e-06
-3.10382e-06
-3.60757e-06
-4.01252e-06
-4.33539e-06
-4.59025e-06
-4.78912e-06
-4.94258e-06
-5.05956e-06
-5.14803e-06
-5.2138e-06
2.39653e-06
1.02245e-06
-8.56018e-08
-9.86436e-07
-1.72238e-06
-2.3251e-06
-2.81889e-06
-3.22295e-06
-3.55277e-06
-3.82122e-06
-4.03902e-06
-4.21534e-06
-4.35782e-06
-4.47321e-06
-4.5671e-06
3.03406e-06
1.76997e-06
7.42166e-07
-1.01067e-07
-7.97946e-07
-1.3772e-06
-1.86056e-06
-2.26484e-06
-2.60345e-06
-2.8876e-06
-3.12678e-06
-3.32921e-06
-3.50149e-06
-3.64858e-06
-3.7747e-06
3.7639e-06
2.63918e-06
1.71281e-06
9.4164e-07
2.93163e-07
-2.56971e-07
-7.26818e-07
-1.12998e-06
-1.47702e-06
-1.77661e-06
-2.03633e-06
-2.26334e-06
-2.46417e-06
-2.64406e-06
-2.80723e-06
4.56774e-06
3.60805e-06
2.80195e-06
2.11635e-06
1.52582e-06
1.01152e-06
5.59828e-07
1.60804e-07
-1.93202e-07
-5.08322e-07
-7.89802e-07
-1.04203e-06
-1.26898e-06
-1.47581e-06
-1.66765e-06
5.37535e-06
4.58603e-06
3.90538e-06
3.3101e-06
2.78209e-06
2.30823e-06
1.87945e-06
1.48932e-06
1.13282e-06
8.05586e-07
5.03676e-07
2.22734e-07
-4.05865e-08
-2.85721e-07
-5.1409e-07
6.06446e-06
5.41989e-06
4.84733e-06
4.3316e-06
3.86066e-06
3.42616e-06
3.02255e-06
2.6459e-06
2.29309e-06
1.9613e-06
1.64793e-06
1.35119e-06
1.06826e-06
7.92923e-07
5.22356e-07
6.60171e-06
6.06249e-06
5.56858e-06
5.11053e-06
4.68092e-06
4.27492e-06
3.88939e-06
3.522e-06
3.17071e-06
2.83352e-06
2.50811e-06
2.19205e-06
1.88383e-06
1.5825e-06
1.28842e-06
6.99931e-06
6.53531e-06
6.09777e-06
5.68163e-06
5.28277e-06
4.89865e-06
4.52748e-06
4.16772e-06
3.81787e-06
3.47645e-06
3.14222e-06
2.81424e-06
2.49158e-06
2.17364e-06
1.85867e-06
7.28595e-06
6.87492e-06
6.47798e-06
6.0928e-06
5.71721e-06
5.34996e-06
4.98994e-06
4.6361e-06
4.28746e-06
3.94316e-06
3.60245e-06
3.2645e-06
2.92836e-06
2.59345e-06
2.25939e-06
7.48653e-06
7.11265e-06
6.74494e-06
6.38242e-06
6.02397e-06
5.669e-06
5.31685e-06
4.96682e-06
4.61825e-06
4.27049e-06
3.92293e-06
3.57513e-06
3.22668e-06
2.87756e-06
2.5272e-06
7.62212e-06
7.27439e-06
6.9276e-06
6.58138e-06
6.23517e-06
5.88874e-06
5.54169e-06
5.19357e-06
4.84392e-06
4.49234e-06
4.13849e-06
3.78246e-06
3.42389e-06
3.06279e-06
2.69869e-06
7.7106e-06
7.38146e-06
7.04965e-06
6.71507e-06
6.3775e-06
6.03692e-06
5.69308e-06
5.34571e-06
4.9946e-06
4.63954e-06
4.28035e-06
3.91702e-06
3.54995e-06
3.17857e-06
2.80283e-06
7.76646e-06
7.45078e-06
7.12983e-06
6.80365e-06
6.47228e-06
6.13578e-06
5.794e-06
5.44679e-06
5.09409e-06
4.73584e-06
4.37203e-06
4.00249e-06
3.62772e-06
3.24752e-06
2.86193e-06
7.80082e-06
7.49518e-06
7.18228e-06
6.86235e-06
6.53557e-06
6.202e-06
5.86151e-06
5.51406e-06
5.1597e-06
4.79849e-06
4.43062e-06
4.05555e-06
3.6742e-06
3.2865e-06
2.89256e-06
7.82182e-06
7.52391e-06
7.21718e-06
6.90208e-06
6.5788e-06
6.24734e-06
5.90764e-06
5.55973e-06
5.20372e-06
4.83975e-06
4.4682e-06
4.08838e-06
3.70141e-06
3.3073e-06
2.90619e-06
7.83505e-06
7.54332e-06
7.24151e-06
6.93025e-06
6.60971e-06
6.27982e-06
5.9406e-06
5.59213e-06
5.23455e-06
4.86801e-06
4.49243e-06
4.10917e-06
3.71739e-06
3.3177e-06
2.9104e-06
7.84416e-06
7.55753e-06
7.25975e-06
6.95166e-06
6.6333e-06
6.30463e-06
5.9657e-06
5.61663e-06
5.2576e-06
4.88881e-06
4.51025e-06
4.12326e-06
3.72719e-06
3.32264e-06
2.90989e-06
7.85133e-06
7.56901e-06
7.27466e-06
6.96924e-06
6.65268e-06
6.32497e-06
5.9862e-06
5.63653e-06
5.27617e-06
4.90537e-06
4.52427e-06
4.13381e-06
3.73388e-06
3.32504e-06
2.90747e-06
7.85777e-06
7.57919e-06
7.2878e-06
6.98466e-06
6.66961e-06
6.34268e-06
6.004e-06
5.65374e-06
5.29215e-06
4.91953e-06
4.53609e-06
4.14257e-06
3.73917e-06
3.32652e-06
2.90463e-06
7.86404e-06
7.58874e-06
7.29995e-06
6.99879e-06
6.68503e-06
6.35875e-06
6.0201e-06
5.66927e-06
5.30655e-06
4.93228e-06
4.54668e-06
4.15044e-06
3.74399e-06
3.32789e-06
2.90213e-06
7.87031e-06
7.59792e-06
7.31142e-06
7.01196e-06
6.69931e-06
6.37358e-06
6.03493e-06
5.68357e-06
5.31981e-06
4.94404e-06
4.55646e-06
4.15782e-06
3.74872e-06
3.32945e-06
2.90026e-06
7.87672e-06
7.60691e-06
7.32245e-06
7.02448e-06
6.71279e-06
6.38751e-06
6.04882e-06
5.69695e-06
5.33223e-06
4.95509e-06
4.56573e-06
4.16487e-06
3.75344e-06
3.33131e-06
2.89905e-06
7.88358e-06
7.61624e-06
7.33368e-06
7.03709e-06
6.72629e-06
6.40141e-06
6.06265e-06
5.71027e-06
5.34461e-06
4.96616e-06
4.5751e-06
4.17223e-06
3.75844e-06
3.33364e-06
2.89845e-06
7.89048e-06
7.62551e-06
7.34482e-06
7.04962e-06
6.73975e-06
6.41534e-06
6.07662e-06
5.72384e-06
5.35738e-06
4.97762e-06
4.58488e-06
4.18001e-06
3.76386e-06
3.33639e-06
2.8983e-06
-1.21569e-05
-9.97612e-06
-8.63176e-06
-7.72318e-06
-6.9939e-06
-6.43378e-06
-6.00284e-06
-5.67628e-06
-5.43914e-06
-5.28068e-06
-5.19313e-06
-5.17031e-06
-5.20767e-06
-5.3025e-06
-5.4537e-06
-5.66218e-06
-5.93104e-06
-6.26684e-06
-6.67917e-06
-7.18082e-06
-7.77953e-06
-8.45939e-06
-9.07402e-06
-9.41562e-06
-9.39048e-06
-8.96204e-06
-8.13591e-06
-6.94837e-06
-5.43654e-06
-3.63417e-06
-1.57551e-06
7.02902e-07
3.16047e-06
5.75203e-06
8.42801e-06
1.1135e-05
1.38155e-05
1.64071e-05
1.88377e-05
2.10177e-05
2.28156e-05
2.40479e-05
2.42995e-05
2.31476e-05
1.92279e-05
-1.05823e-05
-9.44691e-06
-8.42446e-06
-7.61274e-06
-6.92811e-06
-6.38394e-06
-5.9595e-06
-5.63661e-06
-5.40256e-06
-5.24749e-06
-5.1639e-06
-5.14566e-06
-5.1882e-06
-5.28878e-06
-5.44621e-06
-5.66129e-06
-5.93693e-06
-6.27937e-06
-6.69755e-06
-7.20314e-06
-7.80226e-06
-8.47713e-06
-9.08106e-06
-9.40977e-06
-9.37297e-06
-8.93468e-06
-8.1004e-06
-6.90696e-06
-5.39203e-06
-3.58992e-06
-1.53589e-06
7.32024e-07
3.17121e-06
5.73378e-06
8.36662e-06
1.10113e-05
1.36033e-05
1.60694e-05
1.83203e-05
2.02377e-05
2.16335e-05
2.22118e-05
2.13833e-05
1.82829e-05
1.18934e-05
-9.75141e-06
-9.03241e-06
-8.21192e-06
-7.48656e-06
-6.85132e-06
-6.32913e-06
-5.91456e-06
-5.59704e-06
-5.36692e-06
-5.21567e-06
-5.13633e-06
-5.1229e-06
-5.17086e-06
-5.27748e-06
-5.44147e-06
-5.66349e-06
-5.94623e-06
-6.29554e-06
-6.71965e-06
-7.22891e-06
-7.82761e-06
-8.49588e-06
-9.08673e-06
-9.40013e-06
-9.34985e-06
-8.90061e-06
-8.05785e-06
-6.85913e-06
-5.34285e-06
-3.5441e-06
-1.49949e-06
7.51023e-07
3.16222e-06
5.68278e-06
8.25506e-06
1.08145e-05
1.32882e-05
1.55904e-05
1.76145e-05
1.9215e-05
2.01766e-05
2.01653e-05
1.86587e-05
1.50731e-05
9.35737e-06
-9.22047e-06
-8.69217e-06
-8.02829e-06
-7.37074e-06
-6.78229e-06
-6.2833e-06
-5.87871e-06
-5.56605e-06
-5.33893e-06
-5.19044e-06
-5.11434e-06
-5.10487e-06
-5.1576e-06
-5.26983e-06
-5.44014e-06
-5.669e-06
-5.95882e-06
-6.31501e-06
-6.74494e-06
-7.2575e-06
-7.85491e-06
-8.51489e-06
-9.09009e-06
-9.38531e-06
-9.31878e-06
-8.85614e-06
-8.00294e-06
-6.79778e-06
-5.28011e-06
-3.48615e-06
-1.45437e-06
7.72789e-07
3.14681e-06
5.61215e-06
8.10577e-06
1.05562e-05
1.28815e-05
1.49845e-05
1.67447e-05
1.80044e-05
1.85484e-05
1.80891e-05
1.62776e-05
1.28529e-05
8.11486e-06
-8.81263e-06
-8.39641e-06
-7.85133e-06
-7.27551e-06
-6.73072e-06
-6.25429e-06
-5.85922e-06
-5.55045e-06
-5.32481e-06
-5.17732e-06
-5.10278e-06
-5.09576e-06
-5.15202e-06
-5.2689e-06
-5.44482e-06
-5.67999e-06
-5.97648e-06
-6.33913e-06
-6.77435e-06
-7.28933e-06
-7.88404e-06
-8.53348e-06
-9.09003e-06
-9.36414e-06
-9.27905e-06
-8.80141e-06
-7.93705e-06
-6.72593e-06
-5.20886e-06
-3.42354e-06
-1.41069e-06
7.84256e-07
3.10903e-06
5.5034e-06
7.89862e-06
1.02164e-05
1.23669e-05
1.42449e-05
1.57243e-05
1.66514e-05
1.68414e-05
1.60904e-05
1.42213e-05
1.11982e-05
7.33814e-06
-8.47592e-06
-8.13892e-06
-7.68368e-06
-7.18986e-06
-6.69491e-06
-6.24275e-06
-5.85987e-06
-5.55549e-06
-5.33027e-06
-5.182e-06
-5.10698e-06
-5.10039e-06
-5.15837e-06
-5.2784e-06
-5.45865e-06
-5.69904e-06
-6.00123e-06
-6.36939e-06
-6.80878e-06
-7.32469e-06
-7.91461e-06
-8.55053e-06
-9.08488e-06
-9.33456e-06
-9.22861e-06
-8.73476e-06
-7.85925e-06
-6.6438e-06
-5.13091e-06
-3.36003e-06
-1.37458e-06
7.76675e-07
3.03746e-06
5.34272e-06
7.61832e-06
9.78035e-06
1.17339e-05
1.33711e-05
1.45705e-05
1.51975e-05
1.5115e-05
1.42058e-05
1.24188e-05
9.83699e-06
6.74723e-06
-8.1771e-06
-7.90227e-06
-7.52933e-06
-7.10323e-06
-6.66268e-06
-6.24524e-06
-5.88051e-06
-5.5833e-06
-5.35911e-06
-5.2092e-06
-5.13195e-06
-5.12362e-06
-5.18115e-06
-5.30231e-06
-5.48502e-06
-5.72892e-06
-6.0352e-06
-6.40722e-06
-6.84896e-06
-7.36357e-06
-7.94583e-06
-8.56444e-06
-9.0722e-06
-9.29381e-06
-9.16459e-06
-8.65353e-06
-7.76749e-06
-6.55039e-06
-5.04669e-06
-3.2979e-06
-1.35054e-06
7.43129e-07
2.92284e-06
5.11915e-06
7.25362e-06
9.23899e-06
1.09793e-05
1.23712e-05
1.33067e-05
1.36813e-05
1.34078e-05
1.24403e-05
1.08033e-05
8.62056e-06
6.12462e-06
-7.89752e-06
-7.67297e-06
-7.36993e-06
-7.01162e-06
-6.62906e-06
-6.25434e-06
-5.91549e-06
-5.63108e-06
-5.41116e-06
-5.26074e-06
-5.18076e-06
-5.16908e-06
-5.22415e-06
-5.3443e-06
-5.52719e-06
-5.77228e-06
-6.08035e-06
-6.45385e-06
-6.89532e-06
-7.40553e-06
-7.97637e-06
-8.57298e-06
-9.04909e-06
-9.23862e-06
-9.08378e-06
-8.55496e-06
-7.65992e-06
-6.44536e-06
-4.95781e-06
-3.241e-06
-1.3449e-06
6.74768e-07
2.75433e-06
4.82099e-06
6.79396e-06
8.58591e-06
1.0105e-05
1.12583e-05
1.19586e-05
1.2134e-05
1.17413e-05
1.07829e-05
9.31986e-06
7.47662e-06
5.43088e-06
-7.62834e-06
-7.44587e-06
-7.20201e-06
-6.90827e-06
-6.58565e-06
-6.25957e-06
-5.9548e-06
-5.69098e-06
-5.48119e-06
-5.33398e-06
-5.25277e-06
-5.23743e-06
-5.28899e-06
-5.40642e-06
-5.58716e-06
-5.83084e-06
-6.13789e-06
-6.5098e-06
-6.94757e-06
-7.44936e-06
-8.00408e-06
-8.57313e-06
-9.01194e-06
-9.16531e-06
-8.98291e-06
-8.43661e-06
-7.53559e-06
-6.32989e-06
-4.86795e-06
-3.19563e-06
-1.36666e-06
5.60253e-07
2.5192e-06
4.43583e-06
6.22971e-06
7.81732e-06
9.11563e-06
1.00473e-05
1.05482e-05
1.05763e-05
1.01215e-05
9.2136e-06
7.92471e-06
6.36407e-06
4.66415e-06
-7.36368e-06
-7.2178e-06
-7.02463e-06
-6.78947e-06
-6.52543e-06
-6.25118e-06
-5.98724e-06
-5.75198e-06
-5.55959e-06
-5.4215e-06
-5.3424e-06
-5.32492e-06
-5.37373e-06
-5.48783e-06
-5.66444e-06
-5.90416e-06
-6.20717e-06
-6.57396e-06
-7.00397e-06
-7.49259e-06
-8.02575e-06
-8.56104e-06
-8.95662e-06
-9.07016e-06
-8.85923e-06
-8.29712e-06
-7.39516e-06
-6.20751e-06
-4.78358e-06
-3.171e-06
-1.42759e-06
3.85971e-07
2.20354e-06
3.95158e-06
5.55314e-06
6.9323e-06
8.01857e-06
8.7524e-06
9.09168e-06
9.0183e-06
8.54309e-06
7.70767e-06
6.58179e-06
5.255e-06
3.82535e-06
-7.0966e-06
-6.98382e-06
-6.8349e-06
-6.65211e-06
-6.44323e-06
-6.22127e-06
-6.00237e-06
-5.80215e-06
-5.63445e-06
-5.51225e-06
-5.43874e-06
-5.42274e-06
-5.47221e-06
-5.58399e-06
-5.75504e-06
-5.98869e-06
-6.28486e-06
-6.64292e-06
-7.06082e-06
-7.53108e-06
-8.03689e-06
-8.53209e-06
-8.87891e-06
-8.95013e-06
-8.7114e-06
-8.13718e-06
-7.24223e-06
-6.08546e-06
-4.7149e-06
-3.17973e-06
-1.54232e-06
1.36419e-07
1.79291e-06
3.35723e-06
4.75888e-06
5.93244e-06
6.82193e-06
7.38522e-06
7.59867e-06
7.46064e-06
6.99288e-06
6.23916e-06
5.26058e-06
4.12798e-06
2.91399e-06
-6.81755e-06
-6.73582e-06
-6.62662e-06
-6.49086e-06
-6.33309e-06
-6.162e-06
-5.98996e-06
-5.82906e-06
-5.69327e-06
-5.5919e-06
-5.52904e-06
-5.51995e-06
-5.57496e-06
-5.68617e-06
-5.85095e-06
-6.07724e-06
-6.36437e-06
-6.71044e-06
-7.11208e-06
-7.55895e-06
-8.03193e-06
-8.48137e-06
-8.77537e-06
-8.80395e-06
-8.54067e-06
-7.96081e-06
-7.085e-06
-5.97618e-06
-4.67682e-06
-3.23799e-06
-1.72801e-06
-2.04927e-07
1.27357e-06
2.64383e-06
3.84418e-06
4.82123e-06
5.53346e-06
5.95392e-06
6.07259e-06
5.89742e-06
5.45412e-06
4.78314e-06
3.93512e-06
2.96491e-06
1.92658e-06
-6.51382e-06
-6.46203e-06
-6.38949e-06
-6.29661e-06
-6.18603e-06
-6.06355e-06
-5.93815e-06
-5.81923e-06
-5.71874e-06
-5.64226e-06
-5.59865e-06
-5.60573e-06
-5.66792e-06
-5.77824e-06
-5.93909e-06
-6.15876e-06
-6.4358e-06
-6.76754e-06
-7.1496e-06
-7.56886e-06
-8.00484e-06
-8.40465e-06
-8.64449e-06
-8.63371e-06
-8.35223e-06
-7.77623e-06
-6.93714e-06
-5.89982e-06
-4.6875e-06
-3.36477e-06
-2.00401e-06
-6.54466e-07
6.33696e-07
1.80538e-06
2.80918e-06
3.60368e-06
4.16007e-06
4.46319e-06
4.51218e-06
4.31911e-06
3.90921e-06
3.31718e-06
2.58346e-06
1.75001e-06
8.57239e-07
-6.16895e-06
-6.14668e-06
-6.10883e-06
-6.05577e-06
-5.98907e-06
-5.91263e-06
-5.8326e-06
-5.75648e-06
-5.69247e-06
-5.64971e-06
-5.6348e-06
-5.6593e-06
-5.72864e-06
-5.84274e-06
-6.00457e-06
-6.21948e-06
-6.48656e-06
-6.80295e-06
-7.16364e-06
-7.55285e-06
-7.94985e-06
-8.29961e-06
-8.48797e-06
-8.44634e-06
-8.15555e-06
-7.59638e-06
-6.82641e-06
-5.87417e-06
-4.76449e-06
-3.58362e-06
-2.39094e-06
-1.22734e-06
-1.35639e-07
8.39087e-07
1.65645e-06
2.28574e-06
2.7079e-06
2.91537e-06
2.91397e-06
2.71531e-06
2.34204e-06
1.8224e-06
1.18781e-06
4.70058e-07
-3.00593e-07
-5.76124e-06
-5.7689e-06
-5.76486e-06
-5.74968e-06
-5.72448e-06
-5.69191e-06
-5.65636e-06
-5.62351e-06
-5.60004e-06
-5.59331e-06
-5.60954e-06
-5.65604e-06
-5.73943e-06
-5.86331e-06
-6.02991e-06
-6.24267e-06
-6.50157e-06
-6.80361e-06
-7.14332e-06
-7.50332e-06
-7.86248e-06
-8.16671e-06
-8.31267e-06
-8.25252e-06
-7.96409e-06
-7.45744e-06
-6.7706e-06
-5.90736e-06
-4.93527e-06
-3.92084e-06
-2.90889e-06
-1.93633e-06
-1.0401e-06
-2.549e-07
3.89914e-07
8.7296e-07
1.18215e-06
1.31473e-06
1.27482e-06
1.07717e-06
7.39756e-07
2.84425e-07
-2.64984e-07
-8.84688e-07
-1.55205e-06
-5.26344e-06
-5.30225e-06
-5.33227e-06
-5.35429e-06
-5.36935e-06
-5.37946e-06
-5.38783e-06
-5.39869e-06
-5.41707e-06
-5.44852e-06
-5.49856e-06
-5.57306e-06
-5.67789e-06
-5.81726e-06
-5.99336e-06
-6.20874e-06
-6.46374e-06
-6.75538e-06
-7.07746e-06
-7.41323e-06
-7.74067e-06
-8.01079e-06
-8.13054e-06
-8.06748e-06
-7.81417e-06
-7.3726e-06
-6.77095e-06
-6.03955e-06
-5.23447e-06
-4.39821e-06
-3.57166e-06
-2.78896e-06
-2.08082e-06
-1.47271e-06
-9.84683e-07
-6.3062e-07
-4.17744e-07
-3.46905e-07
-4.13145e-07
-6.05423e-07
-9.09366e-07
-1.30837e-06
-1.78476e-06
-2.32094e-06
-2.90008e-06
-4.64687e-06
-4.7185e-06
-4.78377e-06
-4.84329e-06
-4.89825e-06
-4.95052e-06
-5.00254e-06
-5.0574e-06
-5.11883e-06
-5.19113e-06
-5.27891e-06
-5.38686e-06
-5.51955e-06
-5.68071e-06
-5.87289e-06
-6.098e-06
-6.35631e-06
-6.64472e-06
-6.95704e-06
-7.27749e-06
-7.58495e-06
-7.83972e-06
-7.95766e-06
-7.9231e-06
-7.7252e-06
-7.35778e-06
-6.8793e-06
-6.30816e-06
-5.67856e-06
-5.0263e-06
-4.38622e-06
-3.7882e-06
-3.25611e-06
-2.80848e-06
-2.45935e-06
-2.21786e-06
-2.08789e-06
-2.0687e-06
-2.15592e-06
-2.34165e-06
-2.61562e-06
-2.96596e-06
-3.37982e-06
-3.84432e-06
-4.34712e-06
-3.8869e-06
-3.99359e-06
-4.09621e-06
-4.19472e-06
-4.29036e-06
-4.38516e-06
-4.48127e-06
-4.58102e-06
-4.6872e-06
-4.80313e-06
-4.93241e-06
-5.07864e-06
-5.24541e-06
-5.43573e-06
-5.65221e-06
-5.89618e-06
-6.16749e-06
-6.46388e-06
-6.77804e-06
-7.09862e-06
-7.40458e-06
-7.65968e-06
-7.81598e-06
-7.84264e-06
-7.71419e-06
-7.47007e-06
-7.13286e-06
-6.7264e-06
-6.2748e-06
-5.80828e-06
-5.35364e-06
-4.93255e-06
-4.56265e-06
-4.2578e-06
-4.02838e-06
-3.88154e-06
-3.82117e-06
-3.84645e-06
-3.95212e-06
-4.13233e-06
-4.38068e-06
-4.68949e-06
-5.04984e-06
-5.45249e-06
-5.88852e-06
-2.95649e-06
-3.10211e-06
-3.24498e-06
-3.38534e-06
-3.52468e-06
-3.66487e-06
-3.80777e-06
-3.95521e-06
-4.1094e-06
-4.27285e-06
-4.44835e-06
-4.63866e-06
-4.84662e-06
-5.07475e-06
-5.32502e-06
-5.59889e-06
-5.89535e-06
-6.21348e-06
-6.54692e-06
-6.8849e-06
-7.21745e-06
-7.5067e-06
-7.72122e-06
-7.83272e-06
-7.82727e-06
-7.71781e-06
-7.53342e-06
-7.2964e-06
-7.02752e-06
-6.74597e-06
-6.46951e-06
-6.21387e-06
-5.99255e-06
-5.81648e-06
-5.69259e-06
-5.62532e-06
-5.61969e-06
-5.68133e-06
-5.8002e-06
-5.97357e-06
-6.19872e-06
-6.47065e-06
-6.78327e-06
-7.13043e-06
-7.506e-06
-1.85668e-06
-2.04225e-06
-2.22542e-06
-2.40788e-06
-2.59168e-06
-2.7786e-06
-2.97018e-06
-3.16795e-06
-3.37367e-06
-3.58929e-06
-3.81692e-06
-4.05874e-06
-4.31692e-06
-4.59347e-06
-4.88993e-06
-5.20739e-06
-5.54547e-06
-5.90301e-06
-6.27635e-06
-6.6575e-06
-7.04051e-06
-7.40648e-06
-7.70345e-06
-7.91636e-06
-8.04248e-06
-8.08961e-06
-8.0724e-06
-8.01203e-06
-7.92196e-06
-7.81422e-06
-7.70179e-06
-7.59732e-06
-7.51139e-06
-7.45196e-06
-7.42601e-06
-7.43774e-06
-7.48543e-06
-7.56491e-06
-7.68653e-06
-7.85077e-06
-8.05381e-06
-8.29107e-06
-8.5588e-06
-8.85368e-06
-9.17196e-06
-7.35967e-07
-9.60317e-07
-1.18694e-06
-1.415e-06
-1.64573e-06
-1.88103e-06
-2.1226e-06
-2.37192e-06
-2.63037e-06
-2.89945e-06
-3.18083e-06
-3.47627e-06
-3.78753e-06
-4.11626e-06
-4.46375e-06
-4.83099e-06
-5.21813e-06
-5.62458e-06
-6.04846e-06
-6.48535e-06
-6.92967e-06
-7.36824e-06
-7.76352e-06
-8.09142e-06
-8.34834e-06
-8.53914e-06
-8.67435e-06
-8.76625e-06
-8.82507e-06
-8.8609e-06
-8.8839e-06
-8.90318e-06
-8.92634e-06
-8.95896e-06
-9.00553e-06
-9.07105e-06
-9.1584e-06
-9.26993e-06
-9.40575e-06
-9.56648e-06
-9.7515e-06
-9.95952e-06
-1.01891e-05
-1.04384e-05
-1.07052e-05
2.55398e-07
-8.60066e-09
-2.74138e-07
-5.4413e-07
-8.19217e-07
-1.1001e-06
-1.38825e-06
-1.68524e-06
-1.99231e-06
-2.31064e-06
-2.64159e-06
-2.98669e-06
-3.34742e-06
-3.72516e-06
-4.1211e-06
-4.53617e-06
-4.97088e-06
-5.42503e-06
-5.89778e-06
-6.38633e-06
-6.88679e-06
-7.39328e-06
-7.87259e-06
-8.29313e-06
-8.65103e-06
-8.95068e-06
-9.19827e-06
-9.4021e-06
-9.57092e-06
-9.71301e-06
-9.83598e-06
-9.94644e-06
-1.00501e-05
-1.01526e-05
-1.02581e-05
-1.03704e-05
-1.04938e-05
-1.06294e-05
-1.07786e-05
-1.09408e-05
-1.1116e-05
-1.13047e-05
-1.1507e-05
-1.17221e-05
-1.19488e-05
9.97044e-07
7.03626e-07
4.05439e-07
1.01301e-07
-2.09273e-07
-5.27091e-07
-8.53435e-07
-1.18953e-06
-1.53636e-06
-1.89492e-06
-2.26635e-06
-2.65192e-06
-3.05284e-06
-3.47027e-06
-3.90526e-06
-4.35867e-06
-4.83112e-06
-5.32268e-06
-5.83295e-06
-6.36042e-06
-6.90285e-06
-7.4565e-06
-7.99086e-06
-8.47314e-06
-8.89822e-06
-9.26957e-06
-9.59194e-06
-9.8719e-06
-1.01164e-05
-1.0332e-05
-1.05243e-05
-1.06988e-05
-1.08603e-05
-1.10131e-05
-1.11609e-05
-1.13063e-05
-1.14526e-05
-1.16024e-05
-1.1757e-05
-1.19166e-05
-1.20821e-05
-1.22547e-05
-1.24347e-05
-1.2622e-05
-1.28163e-05
1.5436e-06
1.22363e-06
8.97221e-07
5.63926e-07
2.2309e-07
-1.26152e-07
-4.84721e-07
-8.53452e-07
-1.23313e-06
-1.6246e-06
-2.02878e-06
-2.44667e-06
-2.87924e-06
-3.32743e-06
-3.7921e-06
-4.27398e-06
-4.77364e-06
-5.29125e-06
-5.82666e-06
-6.379e-06
-6.94666e-06
-7.52709e-06
-8.09247e-06
-8.61077e-06
-9.07621e-06
-9.49214e-06
-9.86273e-06
-1.01931e-05
-1.04885e-05
-1.0754e-05
-1.09942e-05
-1.12132e-05
-1.1415e-05
-1.16028e-05
-1.17795e-05
-1.19484e-05
-1.21121e-05
-1.2273e-05
-1.24323e-05
-1.25913e-05
-1.27513e-05
-1.29134e-05
-1.3078e-05
-1.32458e-05
-1.34171e-05
1.92294e-06
1.58028e-06
1.23029e-06
8.72545e-07
5.06406e-07
1.31244e-07
-2.53539e-07
-6.48533e-07
-1.05435e-06
-1.47165e-06
-1.90112e-06
-2.34351e-06
-2.79955e-06
-3.26993e-06
-3.75533e-06
-4.2563e-06
-4.77326e-06
-5.30636e-06
-5.8555e-06
-6.42006e-06
-6.99886e-06
-7.58997e-06
-8.16813e-06
-8.70347e-06
-9.19049e-06
-9.63231e-06
-1.00324e-05
-1.03946e-05
-1.07231e-05
-1.10217e-05
-1.12941e-05
-1.15435e-05
-1.17732e-05
-1.19858e-05
-1.21838e-05
-1.23702e-05
-1.25476e-05
-1.27178e-05
-1.28821e-05
-1.30423e-05
-1.31995e-05
-1.33548e-05
-1.35093e-05
-1.36637e-05
-1.38188e-05
2.1729e-06
1.81152e-06
1.44206e-06
1.06417e-06
6.77412e-07
2.81405e-07
-1.2423e-07
-5.39886e-07
-9.65984e-07
-1.40297e-06
-1.85133e-06
-2.31156e-06
-2.78416e-06
-3.26961e-06
-3.76835e-06
-4.28073e-06
-4.80703e-06
-5.34728e-06
-5.90136e-06
-6.46871e-06
-7.04842e-06
-7.63884e-06
-8.21735e-06
-8.75713e-06
-9.25313e-06
-9.708e-06
-1.01245e-05
-1.05057e-05
-1.08547e-05
-1.11746e-05
-1.14682e-05
-1.17384e-05
-1.19876e-05
-1.22181e-05
-1.24321e-05
-1.26318e-05
-1.28198e-05
-1.29976e-05
-1.31668e-05
-1.33288e-05
-1.3485e-05
-1.36367e-05
-1.37849e-05
-1.39307e-05
-1.40751e-05
2.32946e-06
1.95246e-06
1.56687e-06
1.17248e-06
7.69058e-07
3.56407e-07
-6.56679e-08
-4.97373e-07
-9.38941e-07
-1.39063e-06
-1.85272e-06
-2.32549e-06
-2.80923e-06
-3.30421e-06
-3.81066e-06
-4.32875e-06
-4.85857e-06
-5.40004e-06
-5.95295e-06
-6.51676e-06
-7.09066e-06
-7.67319e-06
-8.24441e-06
-8.78072e-06
-9.27756e-06
-9.73705e-06
-1.01613e-05
-1.05528e-05
-1.0914e-05
-1.12472e-05
-1.15547e-05
-1.18388e-05
-1.21016e-05
-1.23452e-05
-1.25715e-05
-1.27809e-05
-1.29772e-05
-1.31613e-05
-1.3335e-05
-1.34995e-05
-1.36563e-05
-1.38067e-05
-1.39518e-05
-1.40928e-05
-1.42308e-05
2.42103e-06
2.03099e-06
1.6321e-06
1.22428e-06
8.07454e-07
3.81587e-07
-5.33467e-08
-4.97392e-07
-9.5062e-07
-1.41311e-06
-1.88497e-06
-2.36629e-06
-2.85717e-06
-3.35769e-06
-3.86789e-06
-4.38776e-06
-4.91724e-06
-5.45611e-06
-6.00409e-06
-6.56058e-06
-7.12485e-06
-7.69554e-06
-8.25526e-06
-8.7836e-06
-9.27644e-06
-9.73535e-06
-1.0162e-05
-1.05583e-05
-1.09261e-05
-1.12673e-05
-1.15837e-05
-1.18771e-05
-1.21493e-05
-1.24021e-05
-1.26382e-05
-1.28548e-05
-1.30576e-05
-1.32473e-05
-1.34252e-05
-1.35928e-05
-1.37512e-05
-1.3902e-05
-1.40462e-05
-1.41852e-05
-1.432e-05
2.46958e-06
2.06869e-06
1.65885e-06
1.24008e-06
8.12456e-07
3.76084e-07
-6.89246e-08
-5.22479e-07
-9.84504e-07
-1.45493e-06
-1.93371e-06
-2.42076e-06
-2.91602e-06
-3.4194e-06
-3.93079e-06
-4.45002e-06
-4.97688e-06
-5.51103e-06
-6.05209e-06
-6.59941e-06
-7.1523e-06
-7.70944e-06
-8.25584e-06
-8.77404e-06
-9.26028e-06
-9.71564e-06
-1.01414e-05
-1.05391e-05
-1.09101e-05
-1.12558e-05
-1.15778e-05
-1.18774e-05
-1.2156e-05
-1.2415e-05
-1.2655e-05
-1.28804e-05
-1.30893e-05
-1.32839e-05
-1.34659e-05
-1.36365e-05
-1.37973e-05
-1.39494e-05
-1.40941e-05
-1.42328e-05
-1.43668e-05
2.49129e-06
2.08132e-06
1.66238e-06
1.2346e-06
7.98183e-07
3.53354e-07
-9.96624e-08
-5.60658e-07
-1.02943e-06
-1.50579e-06
-1.98952e-06
-2.48044e-06
-2.97832e-06
-3.48292e-06
-3.99401e-06
-4.51126e-06
-5.03436e-06
-5.56283e-06
-6.09623e-06
-6.63381e-06
-7.17492e-06
-7.71826e-06
-8.25099e-06
-8.75834e-06
-9.23682e-06
-9.68712e-06
-1.01103e-05
-1.05073e-05
-1.08794e-05
-1.12276e-05
-1.15529e-05
-1.18566e-05
-1.21398e-05
-1.24036e-05
-1.26495e-05
-1.28787e-05
-1.30921e-05
-1.3291e-05
-1.34766e-05
-1.36503e-05
-1.38135e-05
-1.39675e-05
-1.41136e-05
-1.42532e-05
-1.43875e-05
2.49732e-06
2.07965e-06
1.65304e-06
1.21773e-06
7.74029e-07
3.22252e-07
-1.37278e-07
-6.04248e-07
-1.07835e-06
-1.55927e-06
-2.04669e-06
-2.54028e-06
-3.03972e-06
-3.54464e-06
-4.05466e-06
-4.56936e-06
-5.08829e-06
-5.61089e-06
-6.13662e-06
-6.66468e-06
-7.19442e-06
-7.72452e-06
-8.2441e-06
-8.74074e-06
-9.2112e-06
-9.65589e-06
-1.00755e-05
-1.04709e-05
-1.08429e-05
-1.11921e-05
-1.15195e-05
-1.1826e-05
-1.21124e-05
-1.23795e-05
-1.26277e-05
-1.28621e-05
-1.30794e-05
-1.32818e-05
-1.34705e-05
-1.36471e-05
-1.38127e-05
-1.39688e-05
-1.41166e-05
-1.42575e-05
-1.4393e-05
2.49496e-06
2.07067e-06
1.63749e-06
1.19577e-06
7.45899e-07
2.88277e-07
-1.76693e-07
-6.48607e-07
-1.12706e-06
-1.61164e-06
-2.10193e-06
-2.5975e-06
-3.09791e-06
-3.60268e-06
-4.11134e-06
-4.62335e-06
-5.13816e-06
-5.65513e-06
-6.17363e-06
-6.69281e-06
-7.21199e-06
-7.72985e-06
-8.23725e-06
-8.72378e-06
-9.1865e-06
-9.62557e-06
-1.00415e-05
-1.04347e-05
-1.08058e-05
-1.11554e-05
-1.1484e-05
-1.17923e-05
-1.20811e-05
-1.2351e-05
-1.26027e-05
-1.28392e-05
-1.30594e-05
-1.32648e-05
-1.34562e-05
-1.36352e-05
-1.38031e-05
-1.39612e-05
-1.41108e-05
-1.42533e-05
-1.43901e-05
2.48872e-06
2.05864e-06
1.61976e-06
1.17248e-06
7.17285e-07
2.54632e-07
-2.14999e-07
-6.91125e-07
-1.17326e-06
-1.6609e-06
-2.15355e-06
-2.65068e-06
-3.15175e-06
-3.65621e-06
-4.16346e-06
-4.6729e-06
-5.18388e-06
-5.69567e-06
-6.20758e-06
-6.71871e-06
-7.22834e-06
-7.73514e-06
-8.23149e-06
-8.70879e-06
-9.16432e-06
-9.59807e-06
-1.00103e-05
-1.04012e-05
-1.07712e-05
-1.11207e-05
-1.14499e-05
-1.17595e-05
-1.20501e-05
-1.23221e-05
-1.25765e-05
-1.28149e-05
-1.30372e-05
-1.32451e-05
-1.34388e-05
-1.36199e-05
-1.37898e-05
-1.39496e-05
-1.41009e-05
-1.42449e-05
-1.43832e-05
2.48121e-06
2.04602e-06
1.60212e-06
1.14996e-06
6.90086e-07
2.23023e-07
-2.50685e-07
-7.30487e-07
-1.21582e-06
-1.70612e-06
-2.20079e-06
-2.69924e-06
-3.20084e-06
-3.70495e-06
-4.21091e-06
-4.71802e-06
-5.22555e-06
-5.73271e-06
-6.23874e-06
-6.74269e-06
-7.24381e-06
-7.74076e-06
-8.22723e-06
-8.69623e-06
-9.14526e-06
-9.57413e-06
-9.9829e-06
-1.03716e-05
-1.07404e-05
-1.10895e-05
-1.14191e-05
-1.17296e-05
-1.20215e-05
-1.22953e-05
-1.25516e-05
-1.27916e-05
-1.30157e-05
-1.32257e-05
-1.34213e-05
-1.36041e-05
-1.37756e-05
-1.3937e-05
-1.40897e-05
-1.42351e-05
-1.43747e-05
2.47385e-06
2.03412e-06
1.58574e-06
1.12924e-06
6.65211e-07
1.94231e-07
-2.83097e-07
-7.66164e-07
-1.25434e-06
-1.747e-06
-2.24347e-06
-2.74309e-06
-3.24517e-06
-3.74899e-06
-4.25381e-06
-4.75886e-06
-5.26336e-06
-5.76644e-06
-6.26729e-06
-6.76491e-06
-7.25852e-06
-7.74676e-06
-8.22449e-06
-8.68611e-06
-9.12935e-06
-9.55385e-06
-9.95949e-06
-1.03462e-05
-1.07138e-05
-1.10625e-05
-1.13923e-05
-1.17034e-05
-1.19963e-05
-1.22714e-05
-1.25293e-05
-1.27706e-05
-1.29965e-05
-1.32079e-05
-1.34051e-05
-1.35893e-05
-1.37621e-05
-1.39248e-05
-1.40787e-05
-1.42253e-05
-1.43661e-05
2.4673e-06
2.0235e-06
1.57113e-06
1.11075e-06
6.43005e-07
1.68521e-07
-3.1205e-07
-7.98041e-07
-1.28877e-06
-1.78355e-06
-2.28165e-06
-2.78235e-06
-3.28489e-06
-3.78849e-06
-4.29235e-06
-4.79563e-06
-5.29749e-06
-5.79702e-06
-6.29334e-06
-6.78542e-06
-7.27245e-06
-7.75304e-06
-8.22307e-06
-8.67818e-06
-9.11631e-06
-9.53695e-06
-9.93982e-06
-1.03246e-05
-1.06912e-05
-1.10395e-05
-1.13694e-05
-1.16811e-05
-1.19748e-05
-1.2251e-05
-1.251e-05
-1.27524e-05
-1.29799e-05
-1.31924e-05
-1.33909e-05
-1.35763e-05
-1.37502e-05
-1.39139e-05
-1.40687e-05
-1.42162e-05
-1.43579e-05
2.4618e-06
2.01438e-06
1.55843e-06
1.09459e-06
6.23525e-07
1.45905e-07
-3.37569e-07
-8.26185e-07
-1.31921e-06
-1.8159e-06
-2.31549e-06
-2.81719e-06
-3.32018e-06
-3.82364e-06
-4.3267e-06
-4.82848e-06
-5.32808e-06
-5.82453e-06
-6.31693e-06
-6.8042e-06
-7.28549e-06
-7.75941e-06
-8.22269e-06
-8.67212e-06
-9.10578e-06
-9.52305e-06
-9.92348e-06
-1.03067e-05
-1.06723e-05
-1.10202e-05
-1.13502e-05
-1.16623e-05
-1.19567e-05
-1.22338e-05
-1.24938e-05
-1.27371e-05
-1.29659e-05
-1.31794e-05
-1.33788e-05
-1.35651e-05
-1.37399e-05
-1.39044e-05
-1.406e-05
-1.42083e-05
-1.43507e-05
2.45732e-06
2.00663e-06
1.54748e-06
1.08052e-06
6.06469e-07
1.26028e-07
-3.60062e-07
-8.51048e-07
-1.34616e-06
-1.84459e-06
-2.34555e-06
-2.84818e-06
-3.35163e-06
-3.85502e-06
-4.35744e-06
-4.85795e-06
-5.35561e-06
-5.84942e-06
-6.33841e-06
-6.82148e-06
-7.29777e-06
-7.76582e-06
-8.22314e-06
-8.66752e-06
-9.09726e-06
-9.51157e-06
-9.90987e-06
-1.02916e-05
-1.06565e-05
-1.1004e-05
-1.13341e-05
-1.16466e-05
-1.19416e-05
-1.22194e-05
-1.24803e-05
-1.27245e-05
-1.29542e-05
-1.31686e-05
-1.33687e-05
-1.35558e-05
-1.37313e-05