/*--------------------------------*- C++ -*----------------------------------*\
| =========                 |                                                 |
| \\      /  F ield         | OpenFOAM: The Open Source CFD Toolbox           |
|  \\    /   O peration     | Version:  2312                                  |
|   \\  /    A nd           | Website:  www.openfoam.com                      |
|    \\/     M anipulation  |                                                 |
\*---------------------------------------------------------------------------*/
FoamFile
{
    version     2.0;
    format      ascii;
    arch        "LSB;label=32;scalar=64";
    class       volScalarField;
    location    "19.75";
    object      p;
}
// * * * * * * * * * * * * * * * * * * * * * * * * * * * * * * * * * * * * * //

dimensions      [0 2 -2 0 0 0 0];

internalField   nonuniform List<scalar> 
4800
(
-5.57055e-14
-1.41179e-06
-2.58774e-06
-3.58422e-06
-4.43947e-06
-5.17875e-06
-5.8264e-06
-6.40003e-06
-6.90818e-06
-7.36308e-06
-7.77342e-06
-8.14133e-06
-8.46051e-06
-8.96235e-06
-1.05961e-05
1.54694e-08
-1.3937e-06
-2.56781e-06
-3.56313e-06
-4.41838e-06
-5.15873e-06
-5.80892e-06
-6.38657e-06
-6.90071e-06
-7.36534e-06
-7.79434e-06
-8.20332e-06
-8.60706e-06
-9.11237e-06
-9.9671e-06
3.19832e-08
-1.37428e-06
-2.5465e-06
-3.54084e-06
-4.39596e-06
-5.13719e-06
-5.78825e-06
-6.3689e-06
-6.8878e-06
-7.35948e-06
-7.79925e-06
-8.2235e-06
-8.64151e-06
-9.06242e-06
-9.46555e-06
4.90805e-08
-1.35367e-06
-2.52346e-06
-3.5163e-06
-4.3707e-06
-5.1128e-06
-5.76303e-06
-6.34487e-06
-6.86588e-06
-7.33874e-06
-7.77651e-06
-8.18712e-06
-8.56356e-06
-8.87585e-06
-9.05577e-06
6.82689e-08
-1.33009e-06
-2.49668e-06
-3.48726e-06
-4.34003e-06
-5.08186e-06
-5.73093e-06
-6.3104e-06
-6.82941e-06
-7.29616e-06
-7.71884e-06
-8.096e-06
-8.40949e-06
-8.62182e-06
-8.67893e-06
9.10277e-08
-1.30197e-06
-2.46443e-06
-3.45176e-06
-4.30174e-06
-5.04097e-06
-5.68798e-06
-6.26136e-06
-6.77216e-06
-7.2242e-06
-7.61978e-06
-7.95125e-06
-8.19827e-06
-8.33195e-06
-8.32468e-06
1.19543e-07
-1.26711e-06
-2.42433e-06
-3.4071e-06
-4.25265e-06
-4.98695e-06
-5.62822e-06
-6.19184e-06
-6.68733e-06
-7.11585e-06
-7.47528e-06
-7.75627e-06
-7.94328e-06
-8.02147e-06
-7.98413e-06
1.57483e-07
-1.22189e-06
-2.37257e-06
-3.34911e-06
-4.18799e-06
-4.91437e-06
-5.54542e-06
-6.09412e-06
-6.5675e-06
-6.96539e-06
-7.28414e-06
-7.51674e-06
-7.65547e-06
-7.69791e-06
-7.64913e-06
2.10374e-07
-1.16086e-06
-2.30351e-06
-3.27172e-06
-4.10111e-06
-4.81584e-06
-5.43186e-06
-5.96003e-06
-6.40564e-06
-6.76879e-06
-7.0471e-06
-7.2381e-06
-7.34164e-06
-7.36345e-06
-7.31367e-06
2.85474e-07
-1.07668e-06
-2.20949e-06
-3.16684e-06
-3.9834e-06
-4.6823e-06
-5.27846e-06
-5.78138e-06
-6.19574e-06
-6.52353e-06
-6.76548e-06
-6.92399e-06
-7.0044e-06
-7.01669e-06
-6.97222e-06
3.91031e-07
-9.60574e-07
-2.08123e-06
-3.02467e-06
-3.82473e-06
-4.50364e-06
-5.07571e-06
-5.55016e-06
-5.93287e-06
-6.22805e-06
-6.44021e-06
-6.57573e-06
-6.64316e-06
-6.65396e-06
-6.61893e-06
5.35379e-07
-8.03156e-07
-1.90851e-06
-2.8345e-06
-3.6143e-06
-4.26962e-06
-4.81487e-06
-5.26016e-06
-5.61331e-06
-5.88111e-06
-6.07121e-06
-6.1926e-06
-6.2552e-06
-6.27032e-06
-6.24759e-06
7.26671e-07
-5.94823e-07
-1.68084e-06
-2.58541e-06
-3.3415e-06
-3.97084e-06
-4.48861e-06
-4.90647e-06
-5.23431e-06
-5.48137e-06
-5.6573e-06
-5.77229e-06
-5.83646e-06
-5.86023e-06
-5.85188e-06
9.73062e-07
-3.25665e-07
-1.38742e-06
-2.2665e-06
-2.99617e-06
-3.59872e-06
-4.09049e-06
-4.48476e-06
-4.79317e-06
-5.0266e-06
-5.1957e-06
-5.31089e-06
-5.38175e-06
-5.41754e-06
-5.42534e-06
1.28251e-06
1.43333e-08
-1.01744e-06
-1.86708e-06
-2.56858e-06
-3.14512e-06
-3.61416e-06
-3.99014e-06
-4.28579e-06
-4.51256e-06
-4.68142e-06
-4.80237e-06
-4.88417e-06
-4.93489e-06
-4.9606e-06
1.66176e-06
4.34221e-07
-5.6109e-07
-1.37766e-06
-2.0502e-06
-2.60271e-06
-3.0533e-06
-3.41682e-06
-3.70616e-06
-3.93304e-06
-4.10758e-06
-4.23909e-06
-4.33553e-06
-4.40393e-06
-4.44953e-06
2.11418e-06
9.39841e-07
-1.17709e-08
-7.91957e-07
-1.43539e-06
-1.9664e-06
-2.40312e-06
-2.76006e-06
-3.04948e-06
-3.28213e-06
-3.46741e-06
-3.61383e-06
-3.7285e-06
-3.81749e-06
-3.88536e-06
2.63709e-06
1.53061e-06
6.30677e-07
-1.09887e-07
-7.24267e-07
-1.23608e-06
-1.66274e-06
-2.0178e-06
-2.31239e-06
-2.55598e-06
-2.7566e-06
-2.92209e-06
-3.05872e-06
-3.17168e-06
-3.26493e-06
3.21964e-06
2.1963e-06
1.35636e-06
6.58797e-07
7.37328e-08
-4.20437e-07
-8.39495e-07
-1.19548e-06
-1.49812e-06
-1.75578e-06
-1.97557e-06
-2.16354e-06
-2.32509e-06
-2.46483e-06
-2.58642e-06
3.84066e-06
2.91378e-06
2.14129e-06
1.48993e-06
9.34677e-07
4.57102e-07
4.36943e-08
-3.15636e-07
-6.28799e-07
-9.02386e-07
-1.14227e-06
-1.35358e-06
-1.54112e-06
-1.70898e-06
-1.86052e-06
4.43721e-06
3.60959e-06
2.90572e-06
2.30037e-06
1.77403e-06
1.31202e-06
9.03421e-07
5.39952e-07
2.15149e-07
-7.62241e-08
-3.38505e-07
-5.75585e-07
-7.91701e-07
-9.90262e-07
-1.17407e-06
4.92612e-06
4.18458e-06
3.54032e-06
2.97487e-06
2.47364e-06
2.02546e-06
1.62179e-06
1.25604e-06
9.22838e-07
6.17536e-07
3.35841e-07
7.43447e-08
-1.68637e-07
-3.95277e-07
-6.0805e-07
5.2916e-06
4.61706e-06
4.01911e-06
3.48437e-06
3.00212e-06
2.56387e-06
2.16292e-06
1.79387e-06
1.45223e-06
1.13427e-06
8.36956e-07
5.58062e-07
2.95216e-07
4.65371e-08
-1.89855e-07
5.55835e-06
4.93609e-06
4.3746e-06
3.86429e-06
3.39731e-06
2.9672e-06
2.56864e-06
2.19724e-06
1.84936e-06
1.522e-06
1.2127e-06
9.19315e-07
6.39975e-07
3.73062e-07
1.17022e-07
5.7509e-06
5.16951e-06
4.63706e-06
4.14655e-06
3.69212e-06
3.26879e-06
2.87229e-06
2.49902e-06
2.14599e-06
1.81073e-06
1.49113e-06
1.18535e-06
8.91922e-07
6.09539e-07
3.36905e-07
5.88856e-06
5.33935e-06
4.83009e-06
4.35552e-06
3.91122e-06
3.49327e-06
3.0982e-06
2.72307e-06
2.3654e-06
2.02314e-06
1.69454e-06
1.37821e-06
1.07288e-06
7.77469e-07
4.90903e-07
5.98615e-06
5.46247e-06
4.97173e-06
4.50992e-06
4.07367e-06
3.65983e-06
3.26559e-06
2.88856e-06
2.52672e-06
2.17837e-06
1.84204e-06
1.51674e-06
1.20138e-06
8.95009e-07
5.96759e-07
6.05483e-06
5.55162e-06
5.07573e-06
4.62418e-06
4.19432e-06
3.78362e-06
3.38978e-06
3.01087e-06
2.64532e-06
2.29177e-06
1.94882e-06
1.61587e-06
1.29195e-06
9.76298e-07
6.682e-07
6.10292e-06
5.61633e-06
5.15251e-06
4.70928e-06
4.28455e-06
3.87624e-06
3.48252e-06
3.10184e-06
2.73288e-06
2.37452e-06
2.02621e-06
1.68674e-06
1.35548e-06
1.03193e-06
7.15498e-07
6.13654e-06
5.66365e-06
5.20979e-06
4.7734e-06
4.35282e-06
3.94637e-06
3.55258e-06
3.17025e-06
2.79837e-06
2.43606e-06
2.08273e-06
1.73756e-06
1.40002e-06
1.06974e-06
7.4621e-07
6.16014e-06
5.69873e-06
5.2532e-06
4.82253e-06
4.40535e-06
4.00034e-06
3.60637e-06
3.22251e-06
2.84798e-06
2.48218e-06
2.12448e-06
1.77438e-06
1.43144e-06
1.09537e-06
7.65772e-07
6.17694e-06
5.72527e-06
5.28681e-06
4.86095e-06
4.44659e-06
4.04272e-06
3.6485e-06
3.26325e-06
2.88638e-06
2.51743e-06
2.15593e-06
1.80152e-06
1.4539e-06
1.11282e-06
7.77982e-07
6.18917e-06
5.74586e-06
5.31347e-06
4.8917e-06
4.4797e-06
4.07674e-06
3.68224e-06
3.29569e-06
2.91674e-06
2.54499e-06
2.18015e-06
1.82198e-06
1.47025e-06
1.12481e-06
7.85424e-07
6.19838e-06
5.7623e-06
5.33515e-06
4.91688e-06
4.50688e-06
4.10466e-06
3.70985e-06
3.32213e-06
2.94128e-06
2.56705e-06
2.19926e-06
1.83777e-06
1.48244e-06
1.13318e-06
7.8981e-07
6.20557e-06
5.77581e-06
5.3532e-06
4.93795e-06
4.52964e-06
4.12803e-06
3.7329e-06
3.3441e-06
2.96156e-06
2.58511e-06
2.21469e-06
1.85027e-06
1.49175e-06
1.13912e-06
7.92256e-07
6.21139e-06
5.78716e-06
5.36851e-06
4.95587e-06
4.54902e-06
4.1479e-06
3.75245e-06
3.36265e-06
2.97859e-06
2.60016e-06
2.22741e-06
1.86036e-06
1.49903e-06
1.14342e-06
7.93474e-07
6.21625e-06
5.79684e-06
5.38164e-06
4.97126e-06
4.56565e-06
4.16495e-06
3.76915e-06
3.37848e-06
2.99303e-06
2.61283e-06
2.238e-06
1.86865e-06
1.50482e-06
1.14658e-06
7.93919e-07
6.22043e-06
5.80526e-06
5.39307e-06
4.98464e-06
4.58009e-06
4.1797e-06
3.78358e-06
3.39214e-06
3.00544e-06
2.62365e-06
2.24698e-06
1.87558e-06
1.50953e-06
1.14895e-06
7.93861e-07
6.22429e-06
5.81305e-06
5.40364e-06
4.997e-06
4.59342e-06
4.19326e-06
3.79688e-06
3.40465e-06
3.01677e-06
2.63348e-06
2.25507e-06
1.88175e-06
1.51361e-06
1.15083e-06
7.93437e-07
6.22789e-06
5.82058e-06
5.41384e-06
5.00894e-06
4.6063e-06
4.20642e-06
3.8097e-06
3.41668e-06
3.02762e-06
2.64286e-06
2.2627e-06
1.88738e-06
1.51718e-06
1.15231e-06
7.92829e-07
-1.19623e-05
-9.71373e-06
-8.33122e-06
-7.40363e-06
-6.65947e-06
-6.08511e-06
-5.63527e-06
-5.27882e-06
-4.99522e-06
-4.76848e-06
-4.58585e-06
-4.43689e-06
-4.31296e-06
-4.20747e-06
-4.11618e-06
-4.03906e-06
-3.9815e-06
-3.95898e-06
-3.99879e-06
-4.14588e-06
-4.45675e-06
-4.98647e-06
-5.6847e-06
-6.34321e-06
-6.80574e-06
-6.99585e-06
-6.87654e-06
-6.4365e-06
-5.67641e-06
-4.60402e-06
-3.23311e-06
-1.58498e-06
3.10148e-07
2.41266e-06
4.67428e-06
7.03953e-06
9.44696e-06
1.18294e-05
1.4111e-05
1.62011e-05
1.79736e-05
1.92651e-05
1.97029e-05
1.89643e-05
1.58349e-05
-1.03425e-05
-9.17742e-06
-8.13134e-06
-7.3047e-06
-6.60615e-06
-6.04746e-06
-5.60325e-06
-5.2491e-06
-4.96684e-06
-4.74138e-06
-4.56026e-06
-4.41307e-06
-4.29118e-06
-4.18804e-06
-4.09946e-06
-4.02547e-06
-3.97147e-06
-3.95279e-06
-3.99628e-06
-4.14589e-06
-4.45652e-06
-4.98135e-06
-5.66995e-06
-6.31715e-06
-6.76953e-06
-6.95185e-06
-6.82731e-06
-6.38456e-06
-5.62446e-06
-4.55538e-06
-3.19224e-06
-1.55792e-06
3.15343e-07
2.3855e-06
4.60114e-06
6.90249e-06
9.22193e-06
1.14828e-05
1.35939e-05
1.54382e-05
1.684e-05
1.75281e-05
1.69727e-05
1.44192e-05
8.89396e-06
-9.49283e-06
-8.75851e-06
-7.92374e-06
-7.18831e-06
-6.54046e-06
-6.0034e-06
-5.56813e-06
-5.21781e-06
-4.93749e-06
-4.71348e-06
-4.53383e-06
-4.38834e-06
-4.26847e-06
-4.16771e-06
-4.08196e-06
-4.01132e-06
-3.96121e-06
-3.94683e-06
-3.99444e-06
-4.14689e-06
-4.45718e-06
-4.97628e-06
-5.65361e-06
-6.28748e-06
-6.72788e-06
-6.90106e-06
-6.77064e-06
-6.32531e-06
-5.5663e-06
-4.50285e-06
-3.15137e-06
-1.53681e-06
3.0605e-07
2.33198e-06
4.48555e-06
6.70161e-06
8.90501e-06
1.10081e-05
1.29038e-05
1.44512e-05
1.5446e-05
1.55821e-05
1.4384e-05
1.13292e-05
6.32286e-06
-8.9484e-06
-8.41529e-06
-7.74076e-06
-7.07825e-06
-6.47883e-06
-5.9647e-06
-5.53886e-06
-5.19195e-06
-4.91262e-06
-4.68898e-06
-4.50981e-06
-4.3652e-06
-4.24673e-06
-4.14794e-06
-4.06481e-06
-3.9975e-06
-3.95143e-06
-3.94157e-06
-3.99359e-06
-4.14902e-06
-4.45882e-06
-4.97142e-06
-5.6359e-06
-6.25442e-06
-6.68069e-06
-6.84263e-06
-6.70453e-06
-6.25531e-06
-5.49685e-06
-4.43965e-06
-3.10214e-06
-1.51193e-06
2.92889e-07
2.26312e-06
4.33844e-06
6.44753e-06
8.5072e-06
1.04194e-05
1.20645e-05
1.32896e-05
1.38902e-05
1.35983e-05
1.20901e-05
9.12311e-06
4.94954e-06
-8.52354e-06
-8.11128e-06
-7.56081e-06
-6.98186e-06
-6.42744e-06
-5.93616e-06
-5.51975e-06
-5.17518e-06
-4.89529e-06
-4.67033e-06
-4.49007e-06
-4.34503e-06
-4.22696e-06
-4.12949e-06
-4.04866e-06
-3.98461e-06
-3.94276e-06
-3.93774e-06
-3.99451e-06
-4.15309e-06
-4.46209e-06
-4.96705e-06
-5.6167e-06
-6.21757e-06
-6.62759e-06
-6.77662e-06
-6.62983e-06
-6.17666e-06
-5.41991e-06
-4.37175e-06
-3.05304e-06
-1.49457e-06
2.61756e-07
2.16228e-06
4.14149e-06
6.12194e-06
8.01341e-06
9.71056e-06
1.10886e-05
1.19976e-05
1.226e-05
1.16813e-05
1.0091e-05
7.44651e-06
4.02388e-06
-8.16461e-06
-7.83521e-06
-7.38072e-06
-6.88422e-06
-6.38275e-06
-5.91735e-06
-5.51207e-06
-5.16975e-06
-4.88822e-06
-4.6603e-06
-4.47716e-06
-4.33006e-06
-4.21107e-06
-4.11396e-06
-4.03484e-06
-3.97384e-06
-3.93628e-06
-3.93637e-06
-3.99819e-06
-4.15998e-06
-4.46769e-06
-4.96356e-06
-5.59591e-06
-6.17647e-06
-6.56791e-06
-6.70241e-06
-6.54628e-06
-6.08977e-06
-5.337e-06
-4.30214e-06
-3.00893e-06
-1.49173e-06
2.03419e-07
2.01826e-06
3.88234e-06
5.71317e-06
7.41599e-06
8.88324e-06
9.99397e-06
1.06162e-05
1.06142e-05
9.87185e-06
8.33279e-06
6.06364e-06
3.31831e-06
-7.83674e-06
-7.57093e-06
-7.20147e-06
-6.77343e-06
-6.32997e-06
-5.901e-06
-5.51131e-06
-5.17441e-06
-4.89213e-06
-4.66065e-06
-4.47332e-06
-4.3226e-06
-4.20125e-06
-4.10336e-06
-4.02516e-06
-3.96682e-06
-3.93347e-06
-3.9388e-06
-4.00583e-06
-4.17071e-06
-4.4764e-06
-4.96136e-06
-5.57351e-06
-6.13068e-06
-6.50097e-06
-6.6192e-06
-6.45323e-06
-5.99448e-06
-5.24877e-06
-4.23271e-06
-2.97326e-06
-1.50861e-06
1.10972e-07
1.82297e-06
3.55299e-06
5.21552e-06
6.71512e-06
7.94816e-06
8.80638e-06
9.18447e-06
8.99285e-06
8.17999e-06
6.75924e-06
4.83592e-06
2.61688e-06
-7.51966e-06
-7.30428e-06
-7.00611e-06
-6.64788e-06
-6.26094e-06
-5.873e-06
-5.5088e-06
-5.18347e-06
-4.90396e-06
-4.67039e-06
-4.4789e-06
-4.32385e-06
-4.19913e-06
-4.09946e-06
-4.02144e-06
-3.96529e-06
-3.93599e-06
-3.94658e-06
-4.01884e-06
-4.18649e-06
-4.48914e-06
-4.96094e-06
-5.54949e-06
-6.07981e-06
-6.42617e-06
-6.52642e-06
-6.35043e-06
-5.89125e-06
-5.15681e-06
-4.16653e-06
-2.95085e-06
-1.55183e-06
-2.3577e-08
1.56802e-06
3.14639e-06
4.62605e-06
5.91532e-06
6.92052e-06
7.5522e-06
7.73489e-06
7.41971e-06
6.59971e-06
5.32246e-06
3.69524e-06
1.87604e-06
-7.20316e-06
-7.02872e-06
-6.78924e-06
-6.49517e-06
-6.16619e-06
-5.82508e-06
-5.49349e-06
-5.18742e-06
-4.91665e-06
-4.68486e-06
-4.49134e-06
-4.33279e-06
-4.20476e-06
-4.10305e-06
-4.02488e-06
-3.97071e-06
-3.94541e-06
-3.96129e-06
-4.0387e-06
-4.20859e-06
-4.50683e-06
-4.9628e-06
-5.52384e-06
-6.02351e-06
-6.3431e-06
-6.42393e-06
-6.23835e-06
-5.78156e-06
-5.06409e-06
-4.10841e-06
-2.94842e-06
-1.62971e-06
-2.09402e-07
1.24485e-06
2.65679e-06
3.94446e-06
5.0244e-06
5.81726e-06
6.25507e-06
6.29008e-06
5.90405e-06
5.11584e-06
3.98433e-06
2.60381e-06
1.09167e-06
-6.88072e-06
-6.74059e-06
-6.5497e-06
-6.3121e-06
-6.03922e-06
-5.74752e-06
-5.45446e-06
-5.17509e-06
-4.92028e-06
-4.6962e-06
-4.50494e-06
-4.3457e-06
-4.21604e-06
-4.11322e-06
-4.03545e-06
-3.98365e-06
-3.96268e-06
-3.98406e-06
-4.06656e-06
-4.23802e-06
-4.53023e-06
-4.96733e-06
-5.49656e-06
-5.96162e-06
-6.25178e-06
-6.3123e-06
-6.11854e-06
-5.6684e-06
-4.97538e-06
-4.06507e-06
-2.9745e-06
-1.75197e-06
-4.56151e-07
8.4569e-07
2.08052e-06
3.17342e-06
4.05254e-06
4.65502e-06
4.93357e-06
4.86282e-06
4.4444e-06
3.70899e-06
2.71414e-06
1.53699e-06
2.63947e-07
-6.54641e-06
-6.43617e-06
-6.2863e-06
-6.09781e-06
-5.87677e-06
-5.6341e-06
-5.38299e-06
-5.13624e-06
-4.9044e-06
-4.69486e-06
-4.51171e-06
-4.35641e-06
-4.22854e-06
-4.12709e-06
-4.05148e-06
-4.00335e-06
-3.98767e-06
-4.01516e-06
-4.10286e-06
-4.27524e-06
-4.55966e-06
-4.97467e-06
-5.4677e-06
-5.89433e-06
-6.15303e-06
-6.1934e-06
-5.99424e-06
-5.55676e-06
-4.89767e-06
-4.04544e-06
-3.03941e-06
-1.92922e-06
-7.73169e-07
3.64405e-07
1.41661e-06
2.31832e-06
3.01111e-06
3.44845e-06
3.60054e-06
3.45784e-06
3.0329e-06
2.35918e-06
1.48721e-06
4.77599e-07
-6.0606e-07
-6.19417e-06
-6.11094e-06
-5.99667e-06
-5.85105e-06
-5.67696e-06
-5.48122e-06
-5.27319e-06
-5.06299e-06
-4.85992e-06
-4.67148e-06
-4.50292e-06
-4.35733e-06
-4.23613e-06
-4.13996e-06
-4.06961e-06
-4.02753e-06
-4.01892e-06
-4.05367e-06
-4.147e-06
-4.31977e-06
-4.59473e-06
-4.98465e-06
-5.43755e-06
-5.82266e-06
-6.04904e-06
-6.07102e-06
-5.87105e-06
-5.45422e-06
-4.84053e-06
-4.06059e-06
-3.15476e-06
-2.17218e-06
-1.16847e-06
-2.02569e-07
6.67122e-07
1.38687e-06
1.9118e-06
2.20968e-06
2.26388e-06
2.0747e-06
1.65912e-06
1.04844e-06
2.84313e-07
-5.86712e-07
-1.51774e-06
-5.8178e-06
-5.75981e-06
-5.67736e-06
-5.56973e-06
-5.43806e-06
-5.28639e-06
-5.12105e-06
-4.94959e-06
-4.77962e-06
-4.61803e-06
-4.47036e-06
-4.34074e-06
-4.23195e-06
-4.14609e-06
-4.08521e-06
-4.05259e-06
-4.05362e-06
-4.09742e-06
-4.19719e-06
-4.37018e-06
-4.63433e-06
-4.99687e-06
-5.40703e-06
-5.74908e-06
-5.94422e-06
-5.95171e-06
-5.75754e-06
-5.37129e-06
-4.81603e-06
-4.12325e-06
-3.33251e-06
-2.49031e-06
-1.64738e-06
-8.55197e-07
-1.62309e-07
3.89144e-07
7.66516e-07
9.48966e-07
9.2866e-07
7.11002e-07
3.13396e-07
-2.37352e-07
-9.08269e-07
-1.66417e-06
-2.4704e-06
-5.41105e-06
-5.37729e-06
-5.32417e-06
-5.25098e-06
-5.15799e-06
-5.0475e-06
-4.92366e-06
-4.79187e-06
-4.65803e-06
-4.52798e-06
-4.407e-06
-4.29957e-06
-4.20934e-06
-4.13949e-06
-4.09307e-06
-4.07411e-06
-4.08805e-06
-4.14328e-06
-4.25076e-06
-4.42429e-06
-4.67689e-06
-5.011e-06
-5.37795e-06
-5.67816e-06
-5.84615e-06
-5.84546e-06
-5.66545e-06
-5.32118e-06
-4.83804e-06
-4.24654e-06
-3.58332e-06
-2.89016e-06
-2.2111e-06
-1.58893e-06
-1.06215e-06
-6.62314e-07
-4.12105e-07
-3.23914e-07
-4.0053e-07
-6.34688e-07
-1.01078e-06
-1.50714e-06
-2.09848e-06
-2.75854e-06
-3.46175e-06
-4.96694e-06
-4.95724e-06
-4.93212e-06
-4.89108e-06
-4.83407e-06
-4.76239e-06
-4.67872e-06
-4.58682e-06
-4.49111e-06
-4.3963e-06
-4.30701e-06
-4.22764e-06
-4.16214e-06
-4.11432e-06
-4.08789e-06
-4.08734e-06
-4.11803e-06
-4.18751e-06
-4.30455e-06
-4.47972e-06
-4.72102e-06
-5.02742e-06
-5.35335e-06
-5.61721e-06
-5.76613e-06
-5.76484e-06
-5.60852e-06
-5.31861e-06
-4.92072e-06
-4.44203e-06
-3.91445e-06
-3.37351e-06
-2.85545e-06
-2.39422e-06
-2.01898e-06
-1.75243e-06
-1.60973e-06
-1.59822e-06
-1.71767e-06
-1.96095e-06
-2.31529e-06
-2.76402e-06
-3.28825e-06
-3.86865e-06
-4.48642e-06
-4.47792e-06
-4.49296e-06
-4.49562e-06
-4.4857e-06
-4.46315e-06
-4.42874e-06
-4.38424e-06
-4.33229e-06
-4.27613e-06
-4.21943e-06
-4.16606e-06
-4.11995e-06
-4.08502e-06
-4.06517e-06
-4.06447e-06
-4.08738e-06
-4.13919e-06
-4.22606e-06
-4.35543e-06
-4.53424e-06
-4.76658e-06
-5.04812e-06
-5.33939e-06
-5.57754e-06
-5.71681e-06
-5.72158e-06
-5.60167e-06
-5.3795e-06
-5.07753e-06
-4.71854e-06
-4.3288e-06
-3.93686e-06
-3.57109e-06
-3.25724e-06
-3.01662e-06
-2.86498e-06
-2.81211e-06
-2.86253e-06
-3.01492e-06
-3.26323e-06
-3.59765e-06
-4.00588e-06
-4.47421e-06
-4.98867e-06
-5.53554e-06
-3.93778e-06
-3.97899e-06
-4.01018e-06
-4.03144e-06
-4.04289e-06
-4.04514e-06
-4.03944e-06
-4.02765e-06
-4.01219e-06
-3.99587e-06
-3.98184e-06
-3.97344e-06
-3.97425e-06
-3.98791e-06
-4.01844e-06
-4.06995e-06
-4.14734e-06
-4.25549e-06
-4.40045e-06
-4.58625e-06
-4.81466e-06
-5.07989e-06
-5.34832e-06
-5.56813e-06
-5.70057e-06
-5.72824e-06
-5.66154e-06
-5.51919e-06
-5.31938e-06
-5.08094e-06
-4.82463e-06
-4.57228e-06
-4.34505e-06
-4.16177e-06
-4.03766e-06
-3.98337e-06
-4.00493e-06
-4.10551e-06
-4.28382e-06
-4.53524e-06
-4.85266e-06
-5.22739e-06
-5.64979e-06
-6.10997e-06
-6.59808e-06
-3.34415e-06
-3.41378e-06
-3.47512e-06
-3.52858e-06
-3.57455e-06
-3.61368e-06
-3.64697e-06
-3.67584e-06
-3.70211e-06
-3.72797e-06
-3.75591e-06
-3.78871e-06
-3.82941e-06
-3.88128e-06
-3.9478e-06
-4.03272e-06
-4.14002e-06
-4.27386e-06
-4.43817e-06
-4.63586e-06
-4.86691e-06
-5.12658e-06
-5.38292e-06
-5.59251e-06
-5.73349e-06
-5.80077e-06
-5.80065e-06
-5.74537e-06
-5.64882e-06
-5.52617e-06
-5.39342e-06
-5.26665e-06
-5.161e-06
-5.08973e-06
-5.06343e-06
-5.08959e-06
-5.17276e-06
-5.31455e-06
-5.51394e-06
-5.76782e-06
-6.07152e-06
-6.41923e-06
-6.80442e-06
-7.2203e-06
-7.65991e-06
-2.69558e-06
-2.79667e-06
-2.89088e-06
-2.97875e-06
-3.06097e-06
-3.13831e-06
-3.21172e-06
-3.28236e-06
-3.35166e-06
-3.42134e-06
-3.4934e-06
-3.57008e-06
-3.65389e-06
-3.74754e-06
-3.85394e-06
-3.97619e-06
-4.11746e-06
-4.28091e-06
-4.46926e-06
-4.68435e-06
-4.9258e-06
-5.18922e-06
-5.44655e-06
-5.66414e-06
-5.83203e-06
-5.95018e-06
-6.02191e-06
-6.05417e-06
-6.05671e-06
-6.04092e-06
-6.01868e-06
-6.00151e-06
-5.99987e-06
-6.02268e-06
-6.07712e-06
-6.1689e-06
-6.30179e-06
-6.47662e-06
-6.69281e-06
-6.94866e-06
-7.24139e-06
-7.56739e-06
-7.92248e-06
-8.30213e-06
-8.70159e-06
-2.00146e-06
-2.13605e-06
-2.26525e-06
-2.38959e-06
-2.50987e-06
-2.62701e-06
-2.74193e-06
-2.85565e-06
-2.96934e-06
-3.08434e-06
-3.20225e-06
-3.32486e-06
-3.45414e-06
-3.59224e-06
-3.74145e-06
-3.90418e-06
-4.08281e-06
-4.27968e-06
-4.49671e-06
-4.73516e-06
-4.99478e-06
-5.27277e-06
-5.54659e-06
-5.79051e-06
-5.99898e-06
-6.17322e-06
-6.31538e-06
-6.42968e-06
-6.52247e-06
-6.60156e-06
-6.67522e-06
-6.75139e-06
-6.83722e-06
-6.93881e-06
-7.06087e-06
-7.20669e-06
-7.37892e-06
-7.57939e-06
-7.80857e-06
-8.06585e-06
-8.34978e-06
-8.65831e-06
-8.98894e-06
-9.33886e-06
-9.70499e-06
-1.34842e-06
-1.51739e-06
-1.68197e-06
-1.84275e-06
-2.00063e-06
-2.15654e-06
-2.31137e-06
-2.46603e-06
-2.62151e-06
-2.77891e-06
-2.93953e-06
-3.10478e-06
-3.27624e-06
-3.45559e-06
-3.64461e-06
-3.84515e-06
-4.05903e-06
-4.28803e-06
-4.53367e-06
-4.79709e-06
-5.07876e-06
-5.37824e-06
-5.6779e-06
-5.95536e-06
-6.20571e-06
-6.43039e-06
-6.6313e-06
-6.81149e-06
-6.97529e-06
-7.12791e-06
-7.27488e-06
-7.42157e-06
-7.57275e-06
-7.73247e-06
-7.90413e-06
-8.0907e-06
-8.29442e-06
-8.51652e-06
-8.75763e-06
-9.01779e-06
-9.29655e-06
-9.59297e-06
-9.90573e-06
-1.02332e-05
-1.05736e-05
-8.1205e-07
-1.01151e-06
-1.20749e-06
-1.40052e-06
-1.5914e-06
-1.78096e-06
-1.97003e-06
-2.15941e-06
-2.34997e-06
-2.54264e-06
-2.7385e-06
-2.93872e-06
-3.14457e-06
-3.35742e-06
-3.5787e-06
-3.80988e-06
-4.05246e-06
-4.30793e-06
-4.57772e-06
-4.86313e-06
-5.16537e-06
-5.48564e-06
-5.80868e-06
-6.11357e-06
-6.3957e-06
-6.65675e-06
-6.89865e-06
-7.12399e-06
-7.33598e-06
-7.5383e-06
-7.73479e-06
-7.92914e-06
-8.12476e-06
-8.32472e-06
-8.53178e-06
-8.74825e-06
-8.97566e-06
-9.21501e-06
-9.46696e-06
-9.73185e-06
-1.00097e-05
-1.03002e-05
-1.06026e-05
-1.09163e-05
-1.12401e-05
-4.18294e-07
-6.42696e-07
-8.64182e-07
-1.08327e-06
-1.30067e-06
-1.51709e-06
-1.73325e-06
-1.94986e-06
-2.16764e-06
-2.38741e-06
-2.61009e-06
-2.83665e-06
-3.06817e-06
-3.30578e-06
-3.55069e-06
-3.80415e-06
-4.06748e-06
-4.34202e-06
-4.62921e-06
-4.93051e-06
-5.24753e-06
-5.58205e-06
-5.92016e-06
-6.24231e-06
-6.54443e-06
-6.82838e-06
-7.09617e-06
-7.35007e-06
-7.59268e-06
-7.82675e-06
-8.0551e-06
-8.28044e-06
-8.5053e-06
-8.73201e-06
-8.96258e-06
-9.19866e-06
-9.44165e-06
-9.69258e-06
-9.95212e-06
-1.02208e-05
-1.04987e-05
-1.07859e-05
-1.10822e-05
-1.13872e-05
-1.17002e-05
-1.3187e-07
-3.77129e-07
-6.19789e-07
-8.60323e-07
-1.09934e-06
-1.33745e-06
-1.57526e-06
-1.81336e-06
-2.05239e-06
-2.29305e-06
-2.53612e-06
-2.78246e-06
-3.03297e-06
-3.28864e-06
-3.5505e-06
-3.81967e-06
-4.09734e-06
-4.38477e-06
-4.68336e-06
-4.99463e-06
-5.32027e-06
-5.66213e-06
-6.00749e-06
-6.33847e-06
-6.6516e-06
-6.9489e-06
-7.23231e-06
-7.50386e-06
-7.76568e-06
-8.01996e-06
-8.26885e-06
-8.51441e-06
-8.7586e-06
-9.00316e-06
-9.24966e-06
-9.49946e-06
-9.75377e-06
-1.00135e-05
-1.02794e-05
-1.05519e-05
-1.08314e-05
-1.1118e-05
-1.14117e-05
-1.17122e-05
-1.20194e-05
7.08043e-08
-1.91865e-07
-4.52038e-07
-7.10134e-07
-9.66676e-07
-1.22218e-06
-1.47714e-06
-1.73206e-06
-1.9875e-06
-2.24408e-06
-2.50246e-06
-2.76339e-06
-3.02766e-06
-3.29612e-06
-3.56971e-06
-3.84941e-06
-4.13632e-06
-4.43162e-06
-4.73665e-06
-5.05284e-06
-5.38184e-06
-5.72543e-06
-6.07208e-06
-6.40581e-06
-6.72375e-06
-7.02789e-06
-7.32002e-06
-7.60192e-06
-7.87542e-06
-8.14228e-06
-8.40425e-06
-8.66296e-06
-8.91994e-06
-9.17663e-06
-9.43428e-06
-9.69396e-06
-9.95678e-06
-1.02236e-05
-1.04949e-05
-1.07714e-05
-1.10533e-05
-1.13408e-05
-1.16342e-05
-1.19332e-05
-1.22378e-05
2.10426e-07
-6.66701e-08
-3.41221e-07
-6.13601e-07
-8.84254e-07
-1.1536e-06
-1.42206e-06
-1.69006e-06
-1.95808e-06
-2.22666e-06
-2.49639e-06
-2.76792e-06
-3.04196e-06
-3.31924e-06
-3.60061e-06
-3.88696e-06
-4.17931e-06
-4.47871e-06
-4.78642e-06
-5.10378e-06
-5.43234e-06
-5.77371e-06
-6.11764e-06
-6.4501e-06
-6.76874e-06
-7.07536e-06
-7.37158e-06
-7.65897e-06
-7.93911e-06
-8.21351e-06
-8.4836e-06
-8.75074e-06
-9.01617e-06
-9.28107e-06
-9.54653e-06
-9.81353e-06
-1.00829e-05
-1.03553e-05
-1.06314e-05
-1.09116e-05
-1.11964e-05
-1.1486e-05
-1.17805e-05
-1.20799e-05
-1.23843e-05
3.04277e-07
1.52259e-08
-2.71133e-07
-5.55134e-07
-8.37146e-07
-1.11751e-06
-1.39658e-06
-1.67471e-06
-1.95234e-06
-2.22993e-06
-2.50802e-06
-2.78716e-06
-3.06798e-06
-3.35117e-06
-3.63746e-06
-3.92766e-06
-4.2227e-06
-4.52354e-06
-4.83136e-06
-5.14734e-06
-5.47297e-06
-5.80965e-06
-6.14838e-06
-6.47708e-06
-6.79377e-06
-7.10003e-06
-7.39728e-06
-7.68694e-06
-7.97041e-06
-8.24901e-06
-8.52395e-06
-8.79637e-06
-9.06733e-06
-9.33781e-06
-9.60876e-06
-9.88119e-06
-1.01556e-05
-1.04326e-05
-1.07128e-05
-1.09966e-05
-1.12845e-05
-1.15767e-05
-1.18734e-05
-1.21746e-05
-1.24804e-05
3.65652e-07
6.66567e-08
-2.29437e-07
-5.22922e-07
-8.14101e-07
-1.10325e-06
-1.39066e-06
-1.67666e-06
-1.96162e-06
-2.24596e-06
-2.53015e-06
-2.81469e-06
-3.10015e-06
-3.38713e-06
-3.67632e-06
-3.96842e-06
-4.26431e-06
-4.56483e-06
-4.87108e-06
-5.18412e-06
-5.50533e-06
-5.83594e-06
-6.16812e-06
-6.49162e-06
-6.80477e-06
-7.10888e-06
-7.40523e-06
-7.69512e-06
-7.9798e-06
-8.26042e-06
-8.53804e-06
-8.81366e-06
-9.0882e-06
-9.36252e-06
-9.63741e-06
-9.91378e-06
-1.01921e-05
-1.04728e-05
-1.07566e-05
-1.10439e-05
-1.1335e-05
-1.16301e-05
-1.19296e-05
-1.22334e-05
-1.25416e-05
4.04473e-07
9.71686e-08
-2.06986e-07
-5.08245e-07
-8.06853e-07
-1.10303e-06
-1.39704e-06
-1.68916e-06
-1.97973e-06
-2.26913e-06
-2.55778e-06
-2.84612e-06
-3.13468e-06
-3.42399e-06
-3.71468e-06
-4.0074e-06
-4.30292e-06
-4.60204e-06
-4.90574e-06
-5.21497e-06
-5.53101e-06
-5.85491e-06
-6.17996e-06
-6.49758e-06
-6.80632e-06
-7.10726e-06
-7.40157e-06
-7.69046e-06
-7.97503e-06
-8.25631e-06
-8.53523e-06
-8.81267e-06
-9.08946e-06
-9.3664e-06
-9.64412e-06
-9.92345e-06
-1.02048e-05
-1.04887e-05
-1.07757e-05
-1.10661e-05
-1.13603e-05
-1.16586e-05
-1.19611e-05
-1.2268e-05
-1.25793e-05
4.2801e-07
1.13724e-07
-1.97147e-07
-5.04821e-07
-8.09489e-07
-1.11134e-06
-1.4106e-06
-1.70753e-06
-2.00243e-06
-2.29564e-06
-2.58755e-06
-2.87856e-06
-3.16914e-06
-3.45979e-06
-3.75107e-06
-4.04359e-06
-4.33804e-06
-4.63515e-06
-4.9358e-06
-5.24083e-06
-5.55145e-06
-5.86852e-06
-6.18637e-06
-6.49792e-06
-6.80187e-06
-7.09915e-06
-7.39084e-06
-7.67804e-06
-7.96173e-06
-8.24283e-06
-8.52217e-06
-8.80055e-06
-9.07869e-06
-9.35727e-06
-9.63717e-06
-9.9188e-06
-1.02026e-05
-1.04892e-05
-1.07789e-05
-1.10722e-05
-1.13694e-05
-1.16708e-05
-1.19765e-05
-1.22867e-05
-1.26014e-05
4.41457e-07
1.21261e-07
-1.95253e-07
-5.08264e-07
-8.17926e-07
-1.1244e-06
-1.42789e-06
-1.72864e-06
-2.02692e-06
-2.32305e-06
-2.61736e-06
-2.91025e-06
-3.20213e-06
-3.49347e-06
-3.78478e-06
-4.07661e-06
-4.36961e-06
-4.66441e-06
-4.96183e-06
-5.26262e-06
-5.56788e-06
-5.8783e-06
-6.1892e-06
-6.4948e-06
-6.79394e-06
-7.08742e-06
-7.37626e-06
-7.66143e-06
-7.94383e-06
-8.22426e-06
-8.50349e-06
-8.78225e-06
-9.0612e-06
-9.34095e-06
-9.62234e-06
-9.90577e-06
-1.01916e-05
-1.04804e-05
-1.07726e-05
-1.10685e-05
-1.13685e-05
-1.16729e-05
-1.19817e-05
-1.22952e-05
-1.26134e-05
4.48418e-07
1.23174e-07
-1.98123e-07
-5.15623e-07
-8.29446e-07
-1.13974e-06
-1.44669e-06
-1.75053e-06
-2.05149e-06
-2.34987e-06
-2.646e-06
-2.94022e-06
-3.23292e-06
-3.52454e-06
-3.81555e-06
-4.10645e-06
-4.39782e-06
-4.69024e-06
-4.98447e-06
-5.28114e-06
-5.58128e-06
-5.88546e-06
-6.18983e-06
-6.48979e-06
-6.78429e-06
-7.07405e-06
-7.36001e-06
-7.64305e-06
-7.92395e-06
-8.20346e-06
-8.48228e-06
-8.76109e-06
-9.04049e-06
-9.321e-06
-9.60347e-06
-9.88835e-06
-1.01759e-05
-1.04666e-05
-1.07609e-05
-1.10592e-05
-1.13618e-05
-1.16689e-05
-1.19807e-05
-1.22974e-05
-1.26191e-05
4.51316e-07
1.21726e-07
-2.03667e-07
-5.24981e-07
-8.42318e-07
-1.15581e-06
-1.46564e-06
-1.772e-06
-2.07514e-06
-2.37531e-06
-2.67283e-06
-2.96801e-06
-3.26123e-06
-3.55288e-06
-3.84341e-06
-4.13326e-06
-4.42298e-06
-4.71308e-06
-5.00426e-06
-5.29707e-06
-5.59245e-06
-5.89085e-06
-6.18921e-06
-6.48392e-06
-6.77407e-06
-7.06032e-06
-7.34351e-06
-7.62442e-06
-7.90378e-06
-8.18226e-06
-8.46051e-06
-8.73916e-06
-9.0187e-06
-9.29976e-06
-9.58307e-06
-9.86912e-06
-1.0158e-05
-1.04503e-05
-1.07465e-05
-1.1047e-05
-1.13519e-05
-1.16615e-05
-1.19762e-05
-1.22959e-05
-1.26208e-05
4.51742e-07
1.18376e-07
-2.10555e-07
-5.35145e-07
-8.55484e-07
-1.1717e-06
-1.48395e-06
-1.79242e-06
-2.09735e-06
-2.39897e-06
-2.69758e-06
-2.99348e-06
-3.28702e-06
-3.57856e-06
-3.86852e-06
-4.15731e-06
-4.44543e-06
-4.73335e-06
-5.02168e-06
-5.31093e-06
-5.60195e-06
-5.89508e-06
-6.18797e-06
-6.47787e-06
-6.76401e-06
-7.047e-06
-7.3276e-06
-7.60649e-06
-7.88434e-06
-8.16177e-06
-8.43937e-06
-8.71776e-06
-8.99739e-06
-9.27863e-06
-9.5627e-06
-9.84971e-06
-1.01397e-05
-1.04334e-05
-1.07313e-05
-1.10335e-05
-1.13406e-05
-1.16525e-05
-1.19697e-05
-1.22922e-05
-1.26201e-05
4.50713e-07
1.14045e-07
-2.17967e-07
-5.45398e-07
-8.6833e-07
-1.18688e-06
-1.5012e-06
-1.81146e-06
-2.11789e-06
-2.42071e-06
-2.7202e-06
-3.01665e-06
-3.31038e-06
-3.60174e-06
-3.89111e-06
-4.17887e-06
-4.46548e-06
-4.75138e-06
-5.03711e-06
-5.32312e-06
-5.61019e-06
-5.89856e-06
-6.18649e-06
-6.47202e-06
-6.75453e-06
-7.03454e-06
-7.31274e-06
-7.58975e-06
-7.86616e-06
-8.14257e-06
-8.41951e-06
-8.69759e-06
-8.97707e-06
-9.25853e-06
-9.5433e-06
-9.83099e-06
-1.01219e-05
-1.04169e-05
-1.07161e-05
-1.102e-05
-1.13289e-05
-1.16429e-05
-1.19624e-05
-1.22874e-05
-1.26181e-05
4.48872e-07
1.09304e-07
-2.25403e-07
-5.55314e-07
-8.805e-07
-1.20107e-06
-1.51717e-06
-1.82898e-06
-2.13668e-06
-2.44051e-06
-2.74073e-06
-3.03761e-06
-3.33145e-06
-3.62259e-06
-3.91138e-06
-4.19818e-06
-4.48341e-06
-4.76746e-06
-5.05083e-06
-5.33392e-06
-5.61743e-06
-5.90152e-06
-6.185e-06
-6.4666e-06
-6.74582e-06
-7.02313e-06
-7.29915e-06
-7.57444e-06
-7.84952e-06
-8.12496e-06
-8.40125e-06
-8.67898e-06
-8.95819e-06
-9.24002e-06
-9.52522e-06
-9.81343e-06
-1.01052e-05
-1.04011e-05
-1.07016e-05
-1.1007e-05
-1.13175e-05
-1.16334e-05
-1.19549e-05
-1.22822e-05
-1.26153e-05
4.46622e-07
1.04509e-07
-2.32559e-07
-5.64635e-07
-8.91786e-07
-1.21412e-06
-1.53176e-06
-1.84488e-06
-2.15368e-06
-2.45837e-06
-2.75919e-06
-3.05641e-06
-3.35032e-06
-3.64124e-06
-3.92948e-06
-4.21539e-06
-4.49936e-06
-4.78175e-06
-5.06301e-06
-5.34349e-06
-5.62382e-06
-5.90411e-06
-6.18361e-06
-6.4617e-06
-6.73799e-06
-7.01289e-06
-7.28695e-06
-7.56066e-06
-7.83454e-06
-8.10908e-06
-8.38475e-06
-8.66209e-06
-8.94115e-06
-9.22323e-06
-9.50868e-06
-9.79735e-06
-1.00898e-05
-1.03866e-05
-1.06882e-05
-1.09948e-05
-1.13067e-05
-1.16242e-05
-1.19476e-05
-1.22768e-05
-1.26122e-05
4.44163e-07
9.97924e-08
-2.39359e-07
-5.7334e-07
-9.02214e-07
-1.22608e-06
-1.54507e-06
-1.85934e-06
-2.16907e-06
-2.47449e-06
-2.77582e-06
-3.07332e-06
-3.36727e-06
-3.65796e-06
-3.9457e-06
-4.23081e-06
-4.51364e-06
-4.79454e-06
-5.07391e-06
-5.35206e-06
-5.62957e-06
-5.90644e-06
-6.18236e-06
-6.4573e-06
-6.73097e-06
-7.00372e-06
-7.27602e-06
-7.54832e-06
-7.8211e-06