/*--------------------------------*- C++ -*----------------------------------*\
| =========                 |                                                 |
| \\      /  F ield         | OpenFOAM: The Open Source CFD Toolbox           |
|  \\    /   O peration     | Version:  2312                                  |
|   \\  /    A nd           | Website:  www.openfoam.com                      |
|    \\/     M anipulation  |                                                 |
\*---------------------------------------------------------------------------*/
FoamFile
{
    version     2.0;
    format      ascii;
    arch        "LSB;label=32;scalar=64";
    class       volScalarField;
    location    "7";
    object      p;
}
// * * * * * * * * * * * * * * * * * * * * * * * * * * * * * * * * * * * * * //

dimensions      [0 2 -2 0 0 0 0];

internalField   nonuniform List<scalar> 
4800
(
8.36112e-13
-1.4054e-06
-2.57671e-06
-3.56968e-06
-4.42217e-06
-5.15921e-06
-5.80501e-06
-6.37707e-06
-6.88376e-06
-7.33735e-06
-7.74644e-06
-8.11308e-06
-8.43094e-06
-8.93025e-06
-1.05567e-05
1.53731e-08
-1.38741e-06
-2.55689e-06
-3.5487e-06
-4.40119e-06
-5.13929e-06
-5.78763e-06
-6.36369e-06
-6.87636e-06
-7.33967e-06
-7.7674e-06
-8.17505e-06
-8.57738e-06
-9.08097e-06
-9.93358e-06
3.17913e-08
-1.3681e-06
-2.53568e-06
-3.52652e-06
-4.37888e-06
-5.11784e-06
-5.76706e-06
-6.34613e-06
-6.86355e-06
-7.33392e-06
-7.77244e-06
-8.19544e-06
-8.61225e-06
-9.03237e-06
-9.43599e-06
4.88011e-08
-1.34758e-06
-2.51275e-06
-3.50209e-06
-4.35373e-06
-5.09354e-06
-5.74195e-06
-6.32223e-06
-6.84178e-06
-7.31337e-06
-7.74999e-06
-8.15956e-06
-8.53525e-06
-8.84753e-06
-9.02892e-06
6.7901e-08
-1.32412e-06
-2.48609e-06
-3.47317e-06
-4.32319e-06
-5.06277e-06
-5.70998e-06
-6.28795e-06
-6.80555e-06
-7.2711e-06
-7.6928e-06
-8.06924e-06
-8.38249e-06
-8.59541e-06
-8.65437e-06
9.05603e-08
-1.29612e-06
-2.45398e-06
-3.43782e-06
-4.28506e-06
-5.02207e-06
-5.66723e-06
-6.23914e-06
-6.74865e-06
-7.19962e-06
-7.59445e-06
-7.92557e-06
-8.17281e-06
-8.3075e-06
-8.30219e-06
1.18948e-07
-1.26142e-06
-2.41406e-06
-3.39336e-06
-4.23619e-06
-4.96829e-06
-5.60778e-06
-6.16996e-06
-6.6643e-06
-7.09195e-06
-7.4509e-06
-7.7319e-06
-7.91949e-06
-7.99895e-06
-7.96352e-06
1.56703e-07
-1.21641e-06
-2.36254e-06
-3.33564e-06
-4.17183e-06
-4.89606e-06
-5.52541e-06
-6.07276e-06
-6.54514e-06
-6.9424e-06
-7.26095e-06
-7.49384e-06
-7.6334e-06
-7.67721e-06
-7.63026e-06
2.09315e-07
-1.1557e-06
-2.29382e-06
-3.25862e-06
-4.08537e-06
-4.79801e-06
-5.41242e-06
-5.93939e-06
-6.38419e-06
-6.74693e-06
-7.02528e-06
-7.2168e-06
-7.32131e-06
-7.3445e-06
-7.29641e-06
2.84001e-07
-1.07197e-06
-2.2003e-06
-3.15427e-06
-3.96825e-06
-4.66516e-06
-5.25982e-06
-5.76168e-06
-6.17542e-06
-6.50301e-06
-6.7452e-06
-6.90436e-06
-6.98581e-06
-6.99943e-06
-6.95651e-06
3.88981e-07
-9.56491e-07
-2.07271e-06
-3.01283e-06
-3.81038e-06
-4.4874e-06
-5.05811e-06
-5.53168e-06
-5.91392e-06
-6.20907e-06
-6.4216e-06
-6.55785e-06
-6.62631e-06
-6.63836e-06
-6.60474e-06
5.32566e-07
-7.99903e-07
-1.90089e-06
-2.82363e-06
-3.60101e-06
-4.25457e-06
-4.79859e-06
-5.24313e-06
-5.59597e-06
-5.86386e-06
-6.05441e-06
-6.17654e-06
-6.24011e-06
-6.25639e-06
-6.23491e-06
7.22875e-07
-5.92648e-07
-1.67438e-06
-2.57581e-06
-3.32958e-06
-3.95726e-06
-4.47393e-06
-4.89117e-06
-5.21881e-06
-5.46602e-06
-5.64241e-06
-5.75812e-06
-5.82319e-06
-5.848e-06
-5.84078e-06
9.68011e-07
-3.24878e-07
-1.38247e-06
-2.25851e-06
-2.98599e-06
-3.58699e-06
-4.07775e-06
-4.47148e-06
-4.77974e-06
-5.01335e-06
-5.1829e-06
-5.29873e-06
-5.3704e-06
-5.40712e-06
-5.41591e-06
1.27586e-06
1.33388e-08
-1.01441e-06
-1.86116e-06
-2.56058e-06
-3.13567e-06
-3.60376e-06
-3.97923e-06
-4.2747e-06
-4.50166e-06
-4.67092e-06
-4.79244e-06
-4.87494e-06
-4.92647e-06
-4.95304e-06
1.6531e-06
4.30959e-07
-5.60512e-07
-1.37434e-06
-2.04491e-06
-2.59606e-06
-3.04576e-06
-3.40878e-06
-3.69794e-06
-3.92489e-06
-4.0997e-06
-4.23167e-06
-4.3287e-06
-4.39777e-06
-4.4441e-06
2.10302e-06
9.33748e-07
-1.42437e-08
-7.91842e-07
-1.43343e-06
-1.96313e-06
-2.39896e-06
-2.75537e-06
-3.04453e-06
-3.27715e-06
-3.46258e-06
-3.60932e-06
-3.72444e-06
-3.81396e-06
-3.88243e-06
2.62296e-06
1.52111e-06
6.24519e-07
-1.13626e-07
-7.26251e-07
-1.2368e-06
-1.66254e-06
-2.017e-06
-2.31123e-06
-2.55468e-06
-2.75532e-06
-2.92097e-06
-3.05788e-06
-3.17121e-06
-3.2649e-06
3.2021e-06
2.18285e-06
1.34594e-06
6.5062e-07
6.72251e-08
-4.25692e-07
-8.43806e-07
-1.19908e-06
-1.50121e-06
-1.75853e-06
-1.97824e-06
-2.16625e-06
-2.32791e-06
-2.46783e-06
-2.58967e-06
3.81943e-06
2.89603e-06
2.12621e-06
1.4769e-06
9.23247e-07
4.46922e-07
3.44991e-08
-3.24065e-07
-6.36652e-07
-9.09826e-07
-1.1494e-06
-1.36051e-06
-1.54793e-06
-1.71577e-06
-1.86735e-06
4.41245e-06
3.58771e-06
2.88616e-06
2.28267e-06
1.75786e-06
1.29711e-06
8.89544e-07
5.26944e-07
2.02854e-07
-8.79545e-08
-3.49799e-07
-5.86485e-07
-8.02292e-07
-1.00063e-06
-1.18429e-06
4.89856e-06
4.15944e-06
3.5172e-06
2.95346e-06
2.4537e-06
2.00676e-06
1.60417e-06
1.23938e-06
9.07049e-07
6.02558e-07
3.21589e-07
6.05251e-08
-1.82109e-07
-4.08421e-07
-6.20889e-07
5.2621e-06
4.58964e-06
3.9935e-06
3.46036e-06
2.97952e-06
2.54253e-06
2.1427e-06
1.77466e-06
1.43392e-06
1.11675e-06
8.2012e-07
5.41931e-07
2.79683e-07
3.15017e-08
-2.04456e-07
5.52759e-06
4.90715e-06
4.34732e-06
3.83852e-06
3.37291e-06
2.94404e-06
2.54662e-06
2.17625e-06
1.82931e-06
1.50281e-06
1.19429e-06
9.01673e-07
6.23018e-07
3.56709e-07
1.01206e-07
5.71936e-06
5.13961e-06
4.6087e-06
4.1196e-06
3.66649e-06
3.24439e-06
2.84902e-06
2.47681e-06
2.12476e-06
1.79043e-06
1.4717e-06
1.16668e-06
8.73965e-07
5.92251e-07
3.20231e-07
5.85658e-06
5.30887e-06
4.80103e-06
4.32781e-06
3.88478e-06
3.46803e-06
3.07408e-06
2.7e-06
2.34334e-06
2.00203e-06
1.67433e-06
1.35882e-06
1.05425e-06
7.59548e-07
4.73645e-07
5.95392e-06
5.43163e-06
4.94222e-06
4.48171e-06
4.04669e-06
3.63402e-06
3.24089e-06
2.86491e-06
2.50406e-06
2.15667e-06
1.82128e-06
1.49686e-06
1.18228e-06
8.76654e-07
5.791e-07
6.02248e-06
5.52057e-06
5.04595e-06
4.59563e-06
4.16697e-06
3.75741e-06
3.36467e-06
2.98682e-06
2.62225e-06
2.26962e-06
1.92767e-06
1.59561e-06
1.27251e-06
9.5763e-07
6.50255e-07
6.07051e-06
5.58515e-06
5.12255e-06
4.6805e-06
4.25694e-06
3.84976e-06
3.45713e-06
3.07751e-06
2.70959e-06
2.35226e-06
2.0048e-06
1.6662e-06
1.33579e-06
1.01304e-06
6.97342e-07
6.10411e-06
5.6324e-06
5.1797e-06
4.74447e-06
4.32503e-06
3.91969e-06
3.52698e-06
3.14571e-06
2.77485e-06
2.41353e-06
2.0611e-06
1.71683e-06
1.38015e-06
1.05068e-06
7.27901e-07
6.12772e-06
5.66743e-06
5.22304e-06
4.79349e-06
4.37743e-06
3.97352e-06
3.58062e-06
3.19782e-06
2.82431e-06
2.45948e-06
2.10272e-06
1.75351e-06
1.41144e-06
1.07619e-06
7.47351e-07
6.14453e-06
5.69394e-06
5.2566e-06
4.83184e-06
4.41858e-06
4.01579e-06
3.62264e-06
3.23843e-06
2.86258e-06
2.49462e-06
2.13406e-06
1.78056e-06
1.4338e-06
1.09355e-06
7.59482e-07
6.15677e-06
5.71452e-06
5.28322e-06
4.86253e-06
4.45161e-06
4.04973e-06
3.65629e-06
3.27079e-06
2.89285e-06
2.52209e-06
2.15819e-06
1.80094e-06
1.45009e-06
1.10548e-06
7.66867e-07
6.16599e-06
5.73096e-06
5.30487e-06
4.88767e-06
4.47874e-06
4.07759e-06
3.68383e-06
3.29715e-06
2.91732e-06
2.54409e-06
2.17725e-06
1.81668e-06
1.46222e-06
1.11379e-06
7.71214e-07
6.17319e-06
5.74445e-06
5.3229e-06
4.9087e-06
4.50146e-06
4.10091e-06
3.70683e-06
3.31907e-06
2.93754e-06
2.56209e-06
2.19264e-06
1.82913e-06
1.4715e-06
1.11971e-06
7.73634e-07
6.17902e-06
5.7558e-06
5.33819e-06
4.92659e-06
4.5208e-06
4.12074e-06
3.72634e-06
3.33758e-06
2.95453e-06
2.5771e-06
2.20531e-06
1.8392e-06
1.47875e-06
1.12399e-06
7.74836e-07
6.18389e-06
5.76548e-06
5.3513e-06
4.94195e-06
4.53739e-06
4.13775e-06
3.743e-06
3.35336e-06
2.96894e-06
2.58974e-06
2.21588e-06
1.84746e-06
1.48452e-06
1.12713e-06
7.75272e-07
6.18807e-06
5.77389e-06
5.36271e-06
4.95531e-06
4.55181e-06
4.15248e-06
3.7574e-06
3.36699e-06
2.98132e-06
2.60054e-06
2.22484e-06
1.85437e-06
1.48922e-06
1.1295e-06
7.75209e-07
6.19194e-06
5.78167e-06
5.37326e-06
4.96765e-06
4.56511e-06
4.166e-06
3.77067e-06
3.37948e-06
2.99262e-06
2.61035e-06
2.23291e-06
1.86052e-06
1.49329e-06
1.13137e-06
7.74785e-07
6.19554e-06
5.78919e-06
5.38345e-06
4.97957e-06
4.57797e-06
4.17913e-06
3.78347e-06
3.39148e-06
3.00345e-06
2.6197e-06
2.24052e-06
1.86615e-06
1.49686e-06
1.13285e-06
7.74179e-07
-1.1925e-05
-9.69344e-06
-8.32058e-06
-7.39892e-06
-6.65919e-06
-6.088e-06
-5.64037e-06
-5.2855e-06
-5.00304e-06
-4.77711e-06
-4.59513e-06
-4.44672e-06
-4.32334e-06
-4.21847e-06
-4.12796e-06
-4.05181e-06
-3.99545e-06
-3.97423e-06
-4.01514e-06
-4.16253e-06
-4.4719e-06
-4.99734e-06
-5.68881e-06
-6.34078e-06
-6.79888e-06
-6.98707e-06
-6.86826e-06
-6.43083e-06
-5.67545e-06
-4.61002e-06
-3.24868e-06
-1.61312e-06
2.66118e-07
2.34931e-06
4.58826e-06
6.92779e-06
9.30692e-06
1.16591e-05
1.39092e-05
1.59672e-05
1.77084e-05
1.89695e-05
1.9382e-05
1.86286e-05
1.55038e-05
-1.03128e-05
-9.15866e-06
-8.12086e-06
-7.30004e-06
-6.60591e-06
-6.05039e-06
-5.60845e-06
-5.25589e-06
-4.97476e-06
-4.75012e-06
-4.56962e-06
-4.42296e-06
-4.30162e-06
-4.19908e-06
-4.11128e-06
-4.03825e-06
-3.98543e-06
-3.96805e-06
-4.01263e-06
-4.16254e-06
-4.4717e-06
-4.99234e-06
-5.67435e-06
-6.31515e-06
-6.76318e-06
-6.94363e-06
-6.81961e-06
-6.37952e-06
-5.6242e-06
-4.56218e-06
-3.20873e-06
-1.58711e-06
2.70184e-07
2.321e-06
4.51404e-06
6.78988e-06
9.08141e-06
1.13126e-05
1.33933e-05
1.52073e-05
1.65795e-05
1.72412e-05
1.66669e-05
1.41105e-05
8.60657e-06
-9.4673e-06
-8.74078e-06
-7.91338e-06
-7.18363e-06
-6.54013e-06
-6.00629e-06
-5.57334e-06
-5.22466e-06
-4.94549e-06
-4.7223e-06
-4.54327e-06
-4.39831e-06
-4.27897e-06
-4.17881e-06
-4.09382e-06
-4.02414e-06
-3.97522e-06
-3.9621e-06
-4.0108e-06
-4.16353e-06
-4.47239e-06
-4.98742e-06
-5.65831e-06
-6.28594e-06
-6.72211e-06
-6.89347e-06
-6.76361e-06
-6.32099e-06
-5.56683e-06
-4.51055e-06
-3.1689e-06
-1.56715e-06
2.59669e-07
2.26627e-06
4.3974e-06
6.5883e-06
8.7644e-06
1.08389e-05
1.27054e-05
1.42242e-05
1.5193e-05
1.53074e-05
1.40962e-05
1.10437e-05
6.05695e-06
-8.92539e-06
-8.39841e-06
-7.73022e-06
-7.07331e-06
-6.47819e-06
-5.96734e-06
-5.54392e-06
-5.19873e-06
-4.92061e-06
-4.69783e-06
-4.51929e-06
-4.37522e-06
-4.25727e-06
-4.15909e-06
-4.07673e-06
-4.01037e-06
-3.96547e-06
-3.95686e-06
-4.00994e-06
-4.16564e-06
-4.47405e-06
-4.98269e-06
-5.64094e-06
-6.2534e-06
-6.67555e-06
-6.83575e-06
-6.69825e-06
-6.25182e-06
-5.49831e-06
-4.44843e-06
-3.1209e-06
-1.54364e-06
2.45079e-07
2.19604e-06
4.24916e-06
6.33357e-06
8.36676e-06
1.02516e-05
1.18695e-05
1.30687e-05
1.36467e-05
1.33376e-05
1.18207e-05
8.85729e-06
4.69913e-06
-8.50243e-06
-8.09523e-06
-7.55019e-06
-6.97642e-06
-6.42618e-06
-5.93829e-06
-5.52445e-06
-5.18172e-06
-4.90314e-06
-4.6791e-06
-4.49953e-06
-4.35506e-06
-4.23754e-06
-4.14069e-06
-4.06062e-06
-3.99753e-06
-3.95684e-06
-3.95305e-06
-4.01085e-06
-4.16969e-06
-4.47734e-06
-4.97848e-06
-5.6221e-06
-6.21713e-06
-6.62317e-06
-6.77055e-06
-6.62443e-06
-6.17413e-06
-5.42246e-06
-4.38177e-06
-3.0732e-06
-1.52779e-06
2.1242e-07
2.09382e-06
4.05119e-06
6.00765e-06
7.87372e-06
9.54506e-06
1.08981e-05
1.17841e-05
1.20275e-05
1.14354e-05
9.83933e-06
7.19848e-06
3.78851e-06
-8.14512e-06
-7.81986e-06
-7.3701e-06
-6.87814e-06
-6.38075e-06
-5.91883e-06
-5.51619e-06
-5.17586e-06
-4.89576e-06
-4.66887e-06
-4.48651e-06
-4.34003e-06
-4.22163e-06
-4.12517e-06
-4.04684e-06
-3.9868e-06
-3.95039e-06
-3.95169e-06
-4.01451e-06
-4.17654e-06
-4.48294e-06
-4.97514e-06
-5.60171e-06
-6.17666e-06
-6.5643e-06
-6.69725e-06
-6.54189e-06
-6.08836e-06
-5.3408e-06
-4.31357e-06
-3.03064e-06
-1.52657e-06
1.52514e-07
1.94849e-06
3.79128e-06
5.59901e-06
7.27777e-06
8.72103e-06
9.80903e-06
1.04114e-05
1.03936e-05
9.64091e-06
8.09817e-06
5.83251e-06
3.09709e-06
-7.81874e-06
-7.55634e-06
-7.19083e-06
-6.76681e-06
-6.32729e-06
-5.90167e-06
-5.51468e-06
-5.17991e-06
-4.89919e-06
-4.66888e-06
-4.48243e-06
-4.33244e-06
-4.21175e-06
-4.11456e-06
-4.03718e-06
-3.97981e-06
-3.9476e-06
-3.95412e-06
-4.02211e-06
-4.18722e-06
-4.49165e-06
-4.9731e-06
-5.57976e-06
-6.13158e-06
-6.49827e-06
-6.6151e-06
-6.45001e-06
-5.99436e-06
-5.25402e-06
-4.24573e-06
-2.99667e-06
-1.54518e-06
5.84881e-08
1.75203e-06
3.46148e-06
5.10203e-06
6.57914e-06
7.79025e-06
8.6283e-06
8.98925e-06
8.78463e-06
7.96384e-06
6.54071e-06
4.62049e-06
2.40912e-06
-7.50307e-06
-7.29055e-06
-6.99571e-06
-6.64101e-06
-6.25759e-06
-5.87281e-06
-5.51136e-06
-5.18821e-06
-4.9104e-06
-4.67814e-06
-4.48767e-06
-4.33346e-06
-4.20949e-06
-4.1106e-06
-4.03344e-06
-3.97829e-06
-3.95013e-06
-3.96188e-06
-4.03506e-06
-4.20293e-06
-4.50436e-06
-4.97285e-06
-5.55622e-06
-6.08151e-06
-6.42451e-06
-6.52354e-06
-6.34857e-06
-5.89263e-06
-5.16371e-06
-4.18135e-06
-2.97613e-06
-1.59021e-06
-7.75975e-08
1.49611e-06
3.05484e-06
4.51386e-06
5.78242e-06
6.76786e-06
7.38184e-06
7.54992e-06
7.22408e-06
6.39789e-06
5.11904e-06
3.49442e-06
1.68118e-06
-7.18792e-06
-7.01593e-06
-6.77927e-06
-6.48825e-06
-6.16236e-06
-5.82419e-06
-5.49523e-06
-5.19137e-06
-4.92239e-06
-4.69204e-06
-4.49968e-06
-4.3421e-06
-4.21494e-06
-4.11408e-06
-4.03684e-06
-3.98369e-06
-3.95953e-06
-3.97654e-06
-4.05483e-06
-4.22491e-06
-4.52201e-06
-4.97489e-06
-5.53112e-06
-6.02613e-06
-6.34263e-06
-6.42245e-06
-6.23807e-06
-5.78469e-06
-5.07288e-06
-4.12523e-06
-2.97571e-06
-1.66993e-06
-2.64843e-07
1.17227e-06
2.5657e-06
3.83427e-06
4.89541e-06
5.67071e-06
6.09316e-06
6.1158e-06
5.72099e-06
4.92784e-06
3.79513e-06
2.41672e-06
9.09237e-07
-6.8668e-06
-6.72878e-06
-6.5403e-06
-6.30531e-06
-6.03514e-06
-5.7461e-06
-5.45551e-06
-5.17831e-06
-4.92534e-06
-4.7028e-06
-4.51282e-06
-4.35468e-06
-4.22599e-06
-4.12413e-06
-4.04735e-06
-3.9966e-06
-3.97677e-06
-3.99925e-06
-4.08258e-06
-4.25422e-06
-4.54536e-06
-4.97962e-06
-5.50447e-06
-5.96528e-06
-6.25269e-06
-6.31246e-06
-6.12009e-06
-5.67354e-06
-4.98632e-06
-4.0841e-06
-3.00392e-06
-1.79401e-06
-5.12802e-07
7.72845e-07
1.9905e-06
3.066e-06
3.92829e-06
4.51537e-06
4.78072e-06
4.69953e-06
4.27383e-06
3.53436e-06
2.53851e-06
1.36298e-06
9.35624e-08
-6.5338e-06
-6.42539e-06
-6.27759e-06
-6.09134e-06
-5.87267e-06
-5.63238e-06
-5.38355e-06
-5.13888e-06
-4.90889e-06
-4.70094e-06
-4.51917e-06
-4.36507e-06
-4.23829e-06
-4.13787e-06
-4.06332e-06
-4.01627e-06
-4.00172e-06
-4.03026e-06
-4.11875e-06
-4.29129e-06
-4.57474e-06
-4.9872e-06
-5.47632e-06
-5.89921e-06
-6.15554e-06
-6.19545e-06
-5.99791e-06
-5.56419e-06
-4.911e-06
-4.06683e-06
-3.07099e-06
-1.97295e-06
-8.30717e-07
2.91811e-07
1.32834e-06
2.21443e-06
2.89241e-06
3.31641e-06
3.45722e-06
3.30573e-06
2.87469e-06
2.19756e-06
1.32466e-06
3.16224e-07
-7.64636e-07
-6.18289e-06
-6.10126e-06
-5.98878e-06
-5.8451e-06
-5.67307e-06
-5.47943e-06
-5.27348e-06
-5.06524e-06
-4.86398e-06
-4.67716e-06
-4.51003e-06
-4.36573e-06
-4.2457e-06
-4.15065e-06
-4.08141e-06
-4.04043e-06
-4.03292e-06
-4.06868e-06
-4.16275e-06
-4.33567e-06
-4.60977e-06
-4.99747e-06
-5.44702e-06
-5.82894e-06
-6.05339e-06
-6.07524e-06
-5.87713e-06
-5.46422e-06
-4.85647e-06
-4.08447e-06
-3.18846e-06
-2.21736e-06
-1.22649e-06
-2.74316e-07
5.81322e-07
1.28731e-06
1.79937e-06
2.08583e-06
2.13047e-06
1.93388e-06
1.51316e-06
8.99555e-07
1.34511e-07
-7.35723e-07
-1.66462e-06
-5.80793e-06
-5.75133e-06
-5.67044e-06
-5.56449e-06
-5.43461e-06
-5.28479e-06
-5.12132e-06
-4.95168e-06
-4.78345e-06
-4.62346e-06
-4.47725e-06
-4.34897e-06
-4.24142e-06
-4.15673e-06
-4.09699e-06
-4.06548e-06
-4.06759e-06
-4.11235e-06
-4.21282e-06
-4.38595e-06
-4.64937e-06
-5.01005e-06
-5.41747e-06
-5.75696e-06
-5.95067e-06
-5.95839e-06
-5.76633e-06
-5.38411e-06
-4.83474e-06
-4.14963e-06
-3.36818e-06
-2.53662e-06
-1.70536e-06
-9.25442e-07
-2.44914e-07
2.94602e-07
6.60963e-07
8.33758e-07
8.05419e-07
5.81532e-07
1.79567e-07
-3.73732e-07
-1.04557e-06
-1.80099e-06
-2.60565e-06
-5.4027e-06
-5.37017e-06
-5.3184e-06
-5.24667e-06
-5.15524e-06
-5.04638e-06
-4.92421e-06
-4.79408e-06
-4.66186e-06
-4.53335e-06
-4.41381e-06
-4.30774e-06
-4.21878e-06
-4.15013e-06
-4.10488e-06
-4.08702e-06
-4.10201e-06
-4.15812e-06
-4.26628e-06
-4.43997e-06
-4.69201e-06
-5.02464e-06
-5.38949e-06
-5.68781e-06
-5.85493e-06
-5.85485e-06
-5.67717e-06
-5.33698e-06
-4.85958e-06
-4.27532e-06
-3.62067e-06
-2.93715e-06
-2.26845e-06
-1.657e-06
-1.14087e-06
-7.51208e-07
-5.10328e-07
-4.30196e-07
-5.13516e-07
-7.52891e-07
-1.13267e-06
-1.63126e-06
-2.22351e-06
-2.88335e-06
-3.58542e-06
-4.96032e-06
-4.95169e-06
-4.92774e-06
-4.88796e-06
-4.8323e-06
-4.76203e-06
-4.67983e-06
-4.58942e-06
-4.4952e-06
-4.40184e-06
-4.31394e-06
-4.23589e-06
-4.17165e-06
-4.12502e-06
-4.09974e-06
-4.10026e-06
-4.13196e-06
-4.20227e-06
-4.31996e-06
-4.49534e-06
-4.73628e-06
-5.04164e-06
-5.3661e-06
-5.62879e-06
-5.77738e-06
-5.77708e-06
-5.62329e-06
-5.33743e-06
-4.94498e-06
-4.47296e-06
-3.95308e-06
-3.42063e-06
-2.91157e-06
-2.45949e-06
-2.09323e-06
-1.83513e-06
-1.70009e-06
-1.69538e-06
-1.82045e-06
-2.06808e-06
-2.42553e-06
-2.8762e-06
-3.4013e-06
-3.98167e-06
-4.59864e-06
-4.4733e-06
-4.48924e-06
-4.49291e-06
-4.48407e-06
-4.46266e-06
-4.42947e-06
-4.38625e-06
-4.3356e-06
-4.28077e-06
-4.22538e-06
-4.1733e-06
-4.12844e-06
-4.09471e-06
-4.07601e-06
-4.07641e-06
-4.10034e-06
-4.15308e-06
-4.24076e-06
-4.37071e-06
-4.5498e-06
-4.78203e-06
-5.06304e-06
-5.35348e-06
-5.59113e-06
-5.73052e-06
-5.73665e-06
-5.61945e-06
-5.40122e-06
-5.10426e-06
-4.75122e-06
-4.3682e-06
-3.98354e-06
-3.62537e-06
-3.31917e-06
-3.08598e-06
-2.94131e-06
-2.89476e-06
-2.95067e-06
-3.10764e-06
-3.35954e-06
-3.69657e-06
-4.10648e-06
-4.57565e-06
-5.0902e-06
-5.63653e-06
-3.93551e-06
-3.97746e-06
-4.00947e-06
-4.03163e-06
-4.04404e-06
-4.04731e-06
-4.04267e-06
-4.032e-06
-4.01768e-06
-4.00251e-06
-3.98962e-06
-3.98234e-06
-3.98424e-06
-3.99896e-06
-4.03049e-06
-4.08295e-06
-4.1612e-06
-4.27014e-06
-4.41563e-06
-4.60179e-06
-4.83034e-06
-5.09551e-06
-5.36376e-06
-5.58357e-06
-5.71666e-06
-5.74605e-06
-5.68212e-06
-5.54345e-06
-5.34811e-06
-5.11482e-06
-4.86419e-06
-4.61789e-06
-4.39691e-06
-4.21988e-06
-4.10181e-06
-4.05317e-06
-4.0798e-06
-4.18479e-06
-4.36679e-06
-4.62114e-06
-4.94073e-06
-5.31691e-06
-5.74009e-06
-6.20045e-06
-6.68822e-06
-3.34461e-06
-3.4148e-06
-3.47678e-06
-3.53094e-06
-3.57767e-06
-3.61761e-06
-3.65176e-06
-3.68153e-06
-3.70873e-06
-3.73553e-06
-3.76443e-06
-3.79819e-06
-3.83983e-06
-3.89261e-06
-3.96001e-06
-4.04577e-06
-4.15385e-06
-4.28838e-06
-4.45326e-06
-4.65141e-06
-4.88283e-06
-5.14281e-06
-5.39952e-06
-5.60976e-06
-5.7519e-06
-5.82106e-06
-5.82355e-06
-5.77155e-06
-5.67884e-06
-5.56049e-06
-5.4324e-06
-5.31054e-06
-5.2099e-06
-5.14359e-06
-5.12204e-06
-5.15264e-06
-5.23988e-06
-5.38522e-06
-5.58757e-06
-5.84383e-06
-6.14932e-06
-6.49825e-06
-6.88416e-06
-7.30026e-06
-7.73969e-06
-2.69913e-06
-2.80059e-06
-2.89524e-06
-2.9836e-06
-3.06636e-06
-3.14429e-06
-3.21834e-06
-3.28964e-06
-3.35964e-06
-3.43004e-06
-3.50284e-06
-3.58027e-06
-3.66482e-06
-3.75921e-06
-3.86634e-06
-3.98929e-06
-4.13123e-06
-4.29531e-06
-4.48425e-06
-4.6999e-06
-4.94192e-06
-5.20599e-06
-5.46417e-06
-5.68293e-06
-5.85231e-06
-5.97236e-06
-6.04644e-06
-6.08148e-06
-6.0872e-06
-6.07491e-06
-6.05639e-06
-6.0431e-06
-6.04538e-06
-6.07205e-06
-6.13021e-06
-6.22546e-06
-6.36149e-06
-6.53907e-06
-6.75761e-06
-7.01536e-06
-7.30955e-06
-7.6366e-06
-7.99234e-06
-8.37226e-06
-8.77166e-06
-2.00839e-06
-2.14314e-06
-2.27255e-06
-2.39715e-06
-2.51774e-06
-2.63523e-06
-2.75054e-06
-2.86468e-06
-2.97882e-06
-3.0943e-06
-3.21271e-06
-3.33584e-06
-3.46565e-06
-3.60429e-06
-3.75405e-06
-3.91733e-06
-4.09653e-06
-4.29397e-06
-4.51161e-06
-4.7507e-06
-5.01106e-06
-5.28997e-06
-5.56499e-06
-5.81033e-06
-6.02043e-06
-6.19649e-06
-6.34072e-06
-6.45733e-06
-6.55268e-06
-6.63453e-06
-6.7111e-06
-6.79026e-06
-6.8791e-06
-6.98364e-06
-7.10852e-06
-7.25698e-06
-7.4316e-06
-7.6342e-06
-7.86522e-06
-8.12403e-06
-8.40917e-06
-8.7186e-06
-9.04983e-06
-9.40007e-06
-9.76625e-06
-1.35853e-06
-1.52743e-06
-1.692e-06
-1.85282e-06
-2.01078e-06
-2.16681e-06
-2.3218e-06
-2.47665e-06
-2.63234e-06
-2.78999e-06
-2.95089e-06
-3.11645e-06
-3.28824e-06
-3.46796e-06
-3.65738e-06
-3.85834e-06
-4.0727e-06
-4.30223e-06
-4.54848e-06
-4.81261e-06
-5.09514e-06
-5.39571e-06
-5.6967e-06
-5.97564e-06
-6.22758e-06
-6.45395e-06
-6.65668e-06
-6.83882e-06
-7.00469e-06
-7.1595e-06
-7.30876e-06
-7.45777e-06
-7.61126e-06
-7.77323e-06
-7.94705e-06
-8.13565e-06
-8.34123e-06
-8.56501e-06
-8.80758e-06
-9.06899e-06
-9.34876e-06
-9.64597e-06
-9.95931e-06
-1.02872e-05
-1.06277e-05
-8.24613e-07
-1.02383e-06
-1.21961e-06
-1.4125e-06
-1.60327e-06
-1.79276e-06
-1.9818e-06
-2.17119e-06
-2.36178e-06
-2.55453e-06
-2.7505e-06
-2.95087e-06
-3.15692e-06
-3.37001e-06
-3.59157e-06
-3.8231e-06
-4.0661e-06
-4.32207e-06
-4.59247e-06
-4.87862e-06
-5.18178e-06
-5.50318e-06
-5.82757e-06
-6.13389e-06
-6.41753e-06
-6.68014e-06
-6.92367e-06
-7.15071e-06
-7.36447e-06
-7.56863e-06
-7.76698e-06
-7.96321e-06
-8.16069e-06
-8.36245e-06
-8.57125e-06
-8.78935e-06
-9.01828e-06
-9.25901e-06
-9.51218e-06
-9.77813e-06
-1.00569e-05
-1.0348e-05
-1.06511e-05
-1.09651e-05
-1.12891e-05
-4.32501e-07
-6.56542e-07
-8.77704e-07
-1.09651e-06
-1.31367e-06
-1.52989e-06
-1.7459e-06
-1.96237e-06
-2.18007e-06
-2.39981e-06
-2.62249e-06
-2.8491e-06
-3.08073e-06
-3.3185e-06
-3.56364e-06
-3.8174e-06
-4.08112e-06
-4.35615e-06
-4.64395e-06
-4.946e-06
-5.26395e-06
-5.59958e-06
-5.93899e-06
-6.26253e-06
-6.56607e-06
-6.85149e-06
-7.12078e-06
-7.37623e-06
-7.62042e-06
-7.8561e-06
-8.08606e-06
-8.31301e-06
-8.53945e-06
-8.76768e-06
-8.99972e-06
-9.2372e-06
-9.4815e-06
-9.7336e-06
-9.99421e-06
-1.02638e-05
-1.05425e-05
-1.08304e-05
-1.11273e-05
-1.14326e-05
-1.17459e-05
-1.47197e-07
-3.92002e-07
-6.34247e-07
-8.74404e-07
-1.11309e-06
-1.35091e-06
-1.58847e-06
-1.82636e-06
-2.06522e-06
-2.30577e-06
-2.54879e-06
-2.79512e-06
-3.04569e-06
-3.30148e-06
-3.56354e-06
-3.83299e-06
-4.11103e-06
-4.39895e-06
-4.69815e-06
-5.01017e-06
-5.33672e-06
-5.67968e-06
-6.02629e-06
-6.35858e-06
-6.67308e-06
-6.97177e-06
-7.2566e-06
-7.52959e-06
-7.79286e-06
-8.0486e-06
-8.29894e-06
-8.54594e-06
-8.79153e-06
-9.03745e-06
-9.28524e-06
-9.53628e-06
-9.79175e-06
-1.00526e-05
-1.03194e-05
-1.05928e-05
-1.0873e-05
-1.11603e-05
-1.14544e-05
-1.17554e-05
-1.20629e-05
5.46975e-08
-2.07447e-07
-4.67134e-07
-7.24786e-07
-9.80928e-07
-1.23607e-06
-1.49073e-06
-1.74539e-06
-2.00062e-06
-2.25704e-06
-2.51533e-06
-2.77622e-06
-3.04053e-06
-3.3091e-06
-3.58288e-06
-3.86285e-06
-4.15014e-06
-4.44593e-06
-4.75156e-06
-5.06849e-06
-5.39839e-06
-5.74303e-06
-6.09088e-06
-6.42588e-06
-6.74513e-06
-7.0506e-06
-7.34407e-06
-7.62734e-06
-7.90219e-06
-8.17042e-06
-8.43373e-06
-8.69376e-06
-8.95203e-06
-9.20996e-06
-9.46878e-06
-9.72959e-06
-9.99347e-06
-1.02612e-05
-1.05335e-05
-1.08108e-05
-1.10934e-05
-1.13816e-05
-1.16754e-05
-1.19749e-05
-1.22798e-05
1.93787e-07
-8.2732e-08
-3.56749e-07
-6.28639e-07
-8.98849e-07
-1.1678e-06
-1.43592e-06
-1.70362e-06
-1.97141e-06
-2.23982e-06
-2.50944e-06
-2.78093e-06
-3.05499e-06
-3.33238e-06
-3.61394e-06
-3.90057e-06
-4.19329e-06
-4.49318e-06
-4.8015e-06
-5.11958e-06
-5.44902e-06
-5.79142e-06
-6.1365e-06
-6.47018e-06
-6.79007e-06
-7.09797e-06
-7.39547e-06
-7.68416e-06
-7.96558e-06
-8.24127e-06
-8.51263e-06
-8.781e-06
-9.04765e-06
-9.31374e-06
-9.58035e-06
-9.84835e-06
-1.01187e-05
-1.0392e-05
-1.0669e-05
-1.095e-05
-1.12355e-05
-1.15256e-05
-1.18207e-05
-1.21206e-05
-1.24253e-05
2.87272e-07
-1.16747e-09
-2.86961e-07
-5.70444e-07
-8.51988e-07
-1.13194e-06
-1.41064e-06
-1.68847e-06
-1.96585e-06
-2.24326e-06
-2.52123e-06
-2.80033e-06
-3.08119e-06
-3.36448e-06
-3.65097e-06
-3.94146e-06
-4.23688e-06
-4.53821e-06
-4.84663e-06
-5.16334e-06
-5.48981e-06
-5.82749e-06
-6.16733e-06
-6.49719e-06
-6.81509e-06
-7.12257e-06
-7.42105e-06
-7.71195e-06
-7.99666e-06
-8.27648e-06
-8.55263e-06
-8.82623e-06
-9.09834e-06
-9.36994e-06
-9.64194e-06
-9.9154e-06
-1.01908e-05
-1.04686e-05
-1.07496e-05
-1.10343e-05
-1.13228e-05
-1.16156e-05
-1.19128e-05
-1.22144e-05
-1.25206e-05
3.48385e-07
5.0023e-08
-2.45484e-07
-5.38434e-07
-8.2913e-07
-1.11785e-06
-1.40489e-06
-1.69057e-06
-1.97529e-06
-2.25945e-06
-2.54353e-06
-2.82803e-06
-3.11353e-06
-3.40063e-06
-3.69001e-06
-3.98242e-06
-4.27869e-06
-4.57971e-06
-4.88655e-06
-5.2003e-06
-5.52234e-06
-5.85391e-06
-6.18715e-06
-6.51178e-06
-6.82608e-06
-7.13136e-06
-7.4289e-06
-7.71998e-06
-8.00585e-06
-8.28766e-06
-8.56645e-06
-8.84321e-06
-9.11886e-06
-9.39425e-06
-9.67018e-06
-9.94755e-06
-1.02268e-05
-1.05084e-05
-1.0793e-05
-1.1081e-05
-1.13727e-05
-1.16685e-05
-1.19684e-05
-1.22727e-05
-1.25813e-05
3.87012e-07
8.03569e-08
-2.23198e-07
-5.23911e-07
-8.22026e-07
-1.11777e-06
-1.4114e-06
-1.70321e-06
-1.99353e-06
-2.28276e-06
-2.5713e-06
-2.85961e-06
-3.14821e-06
-3.43765e-06
-3.72855e-06
-4.02157e-06
-4.31749e-06
-4.61711e-06
-4.9214e-06
-5.23133e-06
-5.54818e-06
-5.873e-06
-6.19908e-06
-6.51778e-06
-6.82762e-06
-7.12969e-06
-7.42515e-06
-7.7152e-06
-8.00093e-06
-8.28335e-06
-8.56341e-06
-8.84196e-06
-9.11984e-06
-9.39782e-06
-9.67656e-06
-9.95686e-06
-1.02392e-05
-1.05239e-05
-1.08117e-05
-1.11028e-05
-1.13977e-05
-1.16966e-05
-1.19996e-05
-1.23069e-05
-1.26186e-05
4.10408e-07
9.67812e-08
-2.13481e-07
-5.20601e-07
-8.24773e-07
-1.12619e-06
-1.42507e-06
-1.72168e-06
-2.01634e-06
-2.30939e-06
-2.60119e-06
-2.89218e-06
-3.18282e-06
-3.4736e-06
-3.76511e-06
-4.05793e-06
-4.35279e-06
-4.65038e-06
-4.95162e-06
-5.25734e-06
-5.56875e-06
-5.88671e-06
-6.20555e-06
-6.51814e-06
-6.82317e-06
-7.12154e-06
-7.41435e-06
-7.70267e-06
-7.98749e-06
-8.26971e-06
-8.55016e-06
-8.82963e-06
-9.10884e-06
-9.38847e-06
-9.66935e-06
-9.95194e-06
-1.02367e-05
-1.05241e-05
-1.08146e-05
-1.11087e-05
-1.14065e-05
-1.17085e-05
-1.20147e-05
-1.23253e-05
-1.26404e-05
4.23753e-07
1.04223e-07
-2.11676e-07
-5.24129e-07
-8.33291e-07
-1.13933e-06
-1.44245e-06
-1.74289e-06
-2.04093e-06
-2.33689e-06
-2.63111e-06
-2.92398e-06
-3.21593e-06
-3.50741e-06
-3.79895e-06
-4.0911e-06
-4.3845e-06
-4.67979e-06
-4.9778e-06
-5.27926e-06
-5.58529e-06
-5.89659e-06
-6.20844e-06
-6.51505e-06
-6.81523e-06
-7.10978e-06
-7.3997e-06
-7.68597e-06
-7.96946e-06
-8.251e-06
-8.53133e-06
-8.81117e-06
-9.09116e-06
-9.37193e-06
-9.65431e-06
-9.93869e-06
-1.02254e-05
-1.05151e-05
-1.08081e-05
-1.11047e-05
-1.14054e-05
-1.17103e-05
-1.20197e-05
-1.23336e-05
-1.26522e-05
4.30641e-07
1.0607e-07
-2.1461e-07
-5.31548e-07
-8.44871e-07
-1.15473e-06
-1.46131e-06
-1.76484e-06
-2.06557e-06
-2.3638e-06
-2.65984e-06
-2.95405e-06
-3.24683e-06
-3.5386e-06
-3.82984e-06
-4.12106e-06
-4.41283e-06
-4.70575e-06
-5.00055e-06
-5.29789e-06
-5.59879e-06
-5.90381e-06
-6.20912e-06
-6.51005e-06
-6.80556e-06
-7.09637e-06
-7.38339e-06
-7.6675e-06
-7.94948e-06
-8.23008e-06
-8.50998e-06
-8.78985e-06
-9.07032e-06
-9.35182e-06
-9.63528e-06
-9.9211e-06
-1.02095e-05
-1.05011e-05
-1.07962e-05
-1.10952e-05
-1.13985e-05
-1.17062e-05
-1.20185e-05
-1.23357e-05
-1.26577e-05
4.33489e-07
1.04576e-07
-2.20196e-07
-5.40948e-07
-8.57784e-07
-1.17084e-06
-1.4803e-06
-1.78637e-06
-2.08928e-06
-2.3893e-06
-2.68673e-06
-2.98192e-06
-3.27522e-06
-3.56703e-06
-3.85779e-06
-4.14797e-06
-4.43809e-06
-4.72869e-06
-5.02044e-06
-5.31391e-06
-5.61004e-06
-5.90927e-06
-6.20854e-06
-6.50419e-06
-6.79533e-06
-7.0826e-06
-7.36683e-06
-7.64881e-06
-7.92923e-06
-8.20878e-06
-8.4881e-06
-8.7678e-06
-9.04835e-06
-9.33046e-06
-9.61475e-06
-9.90174e-06
-1.01915e-05
-1.04847e-05
-1.07817e-05
-1.10829e-05
-1.13884e-05
-1.16987e-05
-1.20139e-05
-1.2334e-05
-1.26593e-05
4.33881e-07
1.01196e-07
-2.27111e-07
-5.51137e-07
-8.70976e-07
-1.18676e-06
-1.49864e-06
-1.80682e-06
-2.11152e-06
-2.413e-06
-2.71154e-06
-3.00745e-06
-3.30107e-06
-3.59278e-06
-3.88298e-06
-4.1721e-06
-4.46063e-06
-4.74904e-06
-5.03795e-06
-5.32785e-06
-5.61961e-06
-5.91355e-06
-6.20732e-06
-6.49815e-06
-6.78526e-06
-7.06925e-06
-7.35087e-06
-7.63081e-06
-7.90971e-06
-8.1882e-06
-8.46686e-06
-8.7463e-06
-9.02696e-06
-9.30922e-06
-9.59427e-06
-9.88222e-06
-1.01731e-05
-1.04677e-05
-1.07663e-05
-1.10694e-05
-1.1377e-05
-1.16896e-05
-1.20073e-05
-1.23303e-05
-1.26585e-05
4.3283e-07
9.68472e-08
-2.34538e-07
-5.61405e-07
-8.83836e-07
-1.20195e-06
-1.51591e-06
-1.82588e-06
-2.13209e-06
-2.43477e-06
-2.7342e-06
-3.03066e-06
-3.32449e-06
-3.61602e-06
-3.90563e-06
-4.19373e-06
-4.48075e-06
-4.76714e-06
-5.05345e-06
-5.3401e-06
-5.62789e-06
-5.91706e-06
-6.20586e-06
-6.4923e-06
-6.77576e-06
-7.05676e-06
-7.33597e-06
-7.61401e-06
-7.89147e-06
-8.16893e-06
-8.44692e-06
-8.72605e-06
-9.00656e-06
-9.28903e-06
-9.57478e-06
-9.86342e-06
-1.01553e-05
-1.0451e-05
-1.07511e-05
-1.10557e-05
-1.13653e-05
-1.168e-05
-1.2e-05
-1.23254e-05
-1.26565e-05
4.30977e-07
9.20974e-08
-2.41982e-07
-5.71326e-07
-8.96013e-07
-1.21615e-06
-1.53189e-06
-1.84341e-06
-2.1509e-06
-2.45459e-06
-2.75475e-06
-3.05165e-06
-3.34559e-06
-3.63691e-06
-3.92595e-06
-4.21309e-06
-4.49873e-06
-4.78327e-06
-5.06722e-06
-5.35095e-06
-5.63517e-06
-5.92005e-06
-6.20438e-06
-6.48688e-06
-6.76704e-06
-7.04532e-06
-7.32234e-06
-7.59865e-06
-7.87477e-06
-8.15125e-06
-8.42859e-06
-8.70736e-06
-8.98761e-06
-9.27045e-06
-9.55663e-06
-9.84579e-06
-1.01385e-05
-1.04353e-05
-1.07366e-05
-1.10426e-05
-1.13538e-05
-1.16704e-05
-1.19924e-05
-1.23202e-05
-1.26536e-05
4.28723e-07
8.72994e-08
-2.49138e-07
-5.80647e-07
-9.07298e-07
-1.2292e-06
-1.54648e-06
-1.85932e-06
-2.16791e-06
-2.47246e-06
-2.77323e-06
-3.07048e-06
-3.36449e-06
-3.65559e-06
-3.94409e-06
-4.23035e-06
-4.51473e-06
-4.79761e-06
-5.07944e-06
-5.36056e-06
-5.6416e-06
-5.92266e-06
-6.203e-06
-6.48198e-06
-6.75919e-06
-7.03505e-06
-7.3101e-06
-7.58483e-06
-7.85974e-06
-8.13531e-06
-8.41203e-06
-8.6904e-06
-8.97051e-06
-9.2536e-06
-9.54002e-06
-9.82965e-06
-1.0123e-05
-1.04207e-05
-1.07231e-05
-1.10304e-05
-1.1343e-05
-1.16612e-05
-1.19851e-05
-1.23148e-05
-1.26505e-05
4.26263e-07
8.25852e-08
-2.55934e-07
-5.89347e-07
-9.17721e-07
-1.24116e-06
-1.55979e-06
-1.87378e-06
-2.18331e-06
-2.4886e-06
-2.78988e-06
-3.08741e-06
-3.38146e-06
-3.67234e-06
-3.96034e-06
-4.24579e-06
-4.52904e-06
-4.81043e-06
-5.09037e-06
-5.36916e-06
-5.64737e-06
-5.92501e-06
-6.20175e-06
-6.47757e-06
-6.75216e-06
-7.02586e-06
-7.29914e-06
-7.57245e-06
-7.84625e-06
-8.12101e-06
-8.39716e-06
-8.67516e-06