/*--------------------------------*- C++ -*----------------------------------*\
| =========                 |                                                 |
| \\      /  F ield         | OpenFOAM: The Open Source CFD Toolbox           |
|  \\    /   O peration     | Version:  2312                                  |
|   \\  /    A nd           | Website:  www.openfoam.com                      |
|    \\/     M anipulation  |                                                 |
\*---------------------------------------------------------------------------*/
FoamFile
{
    version     2.0;
    format      ascii;
    arch        "LSB;label=32;scalar=64";
    class       surfaceScalarField;
    location    "7";
    object      phi;
}
// * * * * * * * * * * * * * * * * * * * * * * * * * * * * * * * * * * * * * //

dimensions      [0 3 -1 0 0 0 0];

oriented        oriented;

internalField   nonuniform List<scalar> 
9445
(
5.74911e-10
1.23809e-11
5.67407e-10
7.50435e-12
5.63017e-10
4.39e-12
5.60759e-10
2.25719e-12
5.60094e-10
6.65204e-13
5.60742e-10
-6.4812e-13
5.625e-10
-1.7574e-12
5.65304e-10
-2.80445e-12
5.69388e-10
-4.0835e-12
5.75126e-10
-5.73859e-12
5.83602e-10
-8.47611e-12
5.98369e-10
-1.47668e-11
6.31905e-10
-3.35363e-11
7.28064e-10
-9.61592e-11
-2.49892e-10
9.77957e-10
2.00699e-09
5.48154e-11
1.98086e-09
3.36392e-11
1.96518e-09
2.00694e-11
1.95666e-09
1.07716e-11
1.95348e-09
3.84295e-12
1.95458e-09
-1.74457e-12
1.95923e-09
-6.40938e-12
1.96733e-09
-1.09006e-11
1.97942e-09
-1.61789e-11
1.99661e-09
-2.29282e-11
2.0217e-09
-3.35652e-11
2.06157e-09
-5.46288e-11
2.12958e-09
-1.01546e-10
2.23864e-09
-2.05222e-10
-3.6529e-10
2.35404e-09
3.96069e-09
1.36696e-10
3.90962e-09
8.47048e-11
3.87838e-09
5.13128e-11
3.86072e-09
2.8434e-11
3.85311e-09
1.14488e-11
3.8534e-09
-2.03495e-12
3.86018e-09
-1.31844e-11
3.87314e-09
-2.38639e-11
3.89295e-09
-3.59914e-11
3.92085e-09
-5.08281e-11
3.95968e-09
-7.23899e-11
4.01411e-09
-1.09056e-10
4.08702e-09
-1.7446e-10
4.16499e-09
-2.83194e-10
-4.11789e-10
4.21149e-09
6.57868e-09
2.68621e-10
6.49528e-09
1.68108e-10
6.4432e-09
1.0339e-10
6.41261e-09
5.90263e-11
6.39778e-09
2.62783e-11
6.39517e-09
5.79581e-13
6.40246e-09
-2.04778e-11
6.41871e-09
-4.01143e-11
6.44434e-09
-6.16223e-11
6.47983e-09
-8.63207e-11
6.52632e-09
-1.18875e-10
6.58357e-09
-1.66307e-10
6.64528e-09
-2.36165e-10
6.6917e-09
-3.2962e-10
-4.20673e-10
6.70058e-09
1.00334e-08
4.61282e-10
9.90974e-09
2.91804e-10
9.83083e-09
1.82298e-10
9.78272e-09
1.07132e-10
9.75695e-09
5.20502e-11
9.7484e-09
9.13211e-12
9.75359e-09
-2.56684e-11
9.77038e-09
-5.69018e-11
9.79826e-09
-8.95088e-11
9.83639e-09
-1.24444e-10
9.8833e-09
-1.65792e-10
9.93454e-09
-2.17548e-10
9.97978e-09
-2.81402e-10
1.00023e-08
-3.52177e-10
-4.10719e-10
9.99238e-09
1.45285e-08
7.22913e-10
1.43574e-08
4.62832e-10
1.42458e-08
2.93894e-10
1.41753e-08
1.77634e-10
1.41344e-08
9.29443e-11
1.4116e-08
2.754e-11
1.41153e-08
-2.49667e-11
1.41289e-08
-7.05007e-11
1.41543e-08
-1.14864e-10
1.41891e-08
-1.59265e-10
1.42296e-08
-2.06293e-10
1.42692e-08
-2.57105e-10
1.42978e-08
-3.10024e-10
1.43047e-08
-3.5912e-10
-3.93553e-10
1.42876e-08
2.02961e-08
1.05457e-09
2.00746e-08
6.84399e-10
1.99264e-08
4.4201e-10
1.98296e-08
2.74471e-10
1.97697e-08
1.52813e-10
1.97375e-08
5.9759e-11
1.97266e-08
-1.41009e-11
1.97323e-08
-7.61464e-11
1.97499e-08
-1.32515e-10
1.97757e-08
-1.84974e-10
1.98042e-08
-2.3486e-10
1.98289e-08
-2.81818e-10
1.98424e-08
-3.2349e-10
1.98392e-08
-3.55895e-10
-3.74365e-10
1.982e-08
2.75901e-08
1.44299e-09
2.73234e-08
9.51104e-10
2.71402e-08
6.25151e-10
2.70164e-08
3.98279e-10
2.69357e-08
2.33505e-10
2.6887e-08
1.08518e-10
2.68624e-08
1.04952e-11
2.68557e-08
-6.943e-11
2.68609e-08
-1.37751e-10
2.68728e-08
-1.96906e-10
2.68859e-08
-2.47921e-10
2.68945e-08
-2.90467e-10
2.68943e-08
-3.23234e-10
2.68831e-08
-3.44726e-10
-3.53961e-10
2.68627e-08
3.66738e-08
1.85287e-09
3.63819e-08
1.24301e-09
3.6175e-08
8.32001e-10
3.60304e-08
5.42924e-10
3.59317e-08
3.32195e-10
3.5867e-08
1.73177e-10
3.58276e-08
4.98797e-11
3.58063e-08
-4.80603e-11
3.57963e-08
-1.27824e-10
3.57921e-08
-1.92675e-10
3.57885e-08
-2.4434e-10
3.57816e-08
-2.83568e-10
3.57691e-08
-3.107e-10
3.57507e-08
-3.26288e-10
-3.31311e-10
3.5728e-08
4.78132e-08
2.2254e-09
4.75339e-08
1.52228e-09
4.73281e-08
1.03785e-09
4.71787e-08
6.92231e-10
4.70725e-08
4.38487e-10
4.69983e-08
2.47282e-10
4.69479e-08
1.0037e-10
4.69136e-08
-1.38299e-11
4.68895e-08
-1.03737e-10
4.68703e-08
-1.73411e-10
4.68519e-08
-2.2598e-10
4.6832e-08
-2.63623e-10
4.68095e-08
-2.88195e-10
4.67848e-08
-3.01621e-10
-3.05844e-10
4.67593e-08
6.12956e-08
2.49409e-09
6.10779e-08
1.74e-09
6.09085e-08
1.20721e-09
6.07802e-08
8.20546e-10
6.06848e-08
5.33922e-10
6.06144e-08
3.17606e-10
6.05624e-08
1.52437e-10
6.05226e-08
2.59173e-11
6.04902e-08
-7.13465e-11
6.04614e-08
-1.44577e-10
6.04336e-08
-1.98165e-10
6.04056e-08
-2.35592e-10
6.03771e-08
-2.59773e-10
6.03489e-08
-2.73404e-10
-2.78838e-10
6.03219e-08
7.74973e-08
2.62104e-09
7.73779e-08
1.85942e-09
7.72765e-08
1.30861e-09
7.71948e-08
9.02256e-10
7.71306e-08
5.98114e-10
7.70802e-08
3.68023e-10
7.70395e-08
1.93047e-10
7.70053e-08
6.01754e-11
7.69742e-08
-4.02803e-11
7.69446e-08
-1.14997e-10
7.69154e-08
-1.68956e-10
7.68864e-08
-2.06561e-10
7.68579e-08
-2.31296e-10
7.68307e-08
-2.4617e-10
-2.53635e-10
7.68055e-08
9.69746e-08
2.62637e-09
9.69509e-08
1.88308e-09
9.69227e-08
1.33682e-09
9.68958e-08
9.29149e-10
9.68718e-08
6.2213e-10
9.68501e-08
3.89704e-10
9.68296e-08
2.13585e-10
9.68091e-08
8.06616e-11
9.67876e-08
-1.88334e-11
9.67653e-08
-9.26192e-11
9.67421e-08
-1.45779e-10
9.67187e-08
-1.83175e-10
9.66959e-08
-2.08466e-10
9.66744e-08
-2.24672e-10
-2.34168e-10
9.66549e-08
1.20463e-07
2.56777e-09
1.20496e-07
1.85031e-09
1.20514e-07
1.31826e-09
1.20524e-07
9.18925e-10
1.20529e-07
6.1763e-10
1.20529e-07
3.89931e-10
1.20524e-07
2.18074e-10
1.20516e-07
8.8948e-11
1.20504e-07
-7.20106e-12
1.2049e-07
-7.87083e-11
1.20475e-07
-1.30432e-10
1.20459e-07
-1.67371e-10
1.20444e-07
-1.93124e-10
1.2043e-07
-2.10575e-10
-2.21936e-10
1.20417e-07
1.4869e-07
2.48577e-09
1.48742e-07
1.79816e-09
1.48776e-07
1.2849e-09
1.48796e-07
8.98195e-10
1.48808e-07
6.06202e-10
1.48812e-07
3.85816e-10
1.4881e-07
2.19789e-10
1.48804e-07
9.5146e-11
1.48794e-07
2.47025e-12
1.48783e-07
-6.72075e-11
1.4877e-07
-1.18017e-10
1.48758e-07
-1.5507e-10
1.48747e-07
-1.81784e-10
1.48737e-07
-2.00846e-10
-2.14288e-10
1.48729e-07
1.82128e-07
2.38297e-09
1.82192e-07
1.73488e-09
1.82229e-07
1.24769e-09
1.82248e-07
8.78674e-10
1.82256e-07
5.99094e-10
1.82254e-07
3.87533e-10
1.82246e-07
2.27722e-10
1.82234e-07
1.07244e-10
1.8222e-07
1.67384e-11
1.82204e-07
-5.18091e-11
1.82189e-07
-1.02902e-10
1.82175e-07
-1.41086e-10
1.82163e-07
-1.69619e-10
1.82153e-07
-1.90992e-10
-2.0706e-10
1.82146e-07
2.20855e-07
2.24732e-09
2.20938e-07
1.65209e-09
2.20985e-07
1.20098e-09
2.21007e-07
8.56607e-10
2.21012e-07
5.93853e-10
2.21006e-07
3.93543e-10
2.20993e-07
2.40963e-10
2.20975e-07
1.24756e-10
2.20956e-07
3.62966e-11
2.20936e-07
-3.17148e-11
2.20917e-07
-8.39176e-11
2.209e-07
-1.23942e-10
2.20885e-07
-1.54902e-10
2.20873e-07
-1.79118e-10
-1.98284e-10
2.20864e-07
2.64428e-07
2.07363e-09
2.64536e-07
1.54403e-09
2.64599e-07
1.13862e-09
2.64629e-07
8.25861e-10
2.64638e-07
5.84735e-10
2.64633e-07
3.98751e-10
2.64619e-07
2.55152e-10
2.646e-07
1.44037e-10
2.64578e-07
5.79711e-11
2.64555e-07
-8.69305e-12
2.64534e-07
-6.29226e-11
2.64515e-07
-1.05009e-10
2.64499e-07
-1.38661e-10
2.64486e-07
-1.65999e-10
-1.88481e-10
2.64476e-07
3.11514e-07
1.8627e-09
3.11649e-07
1.409e-09
3.1173e-07
1.05706e-09
3.11774e-07
7.81948e-10
3.11792e-07
5.66934e-10
3.11792e-07
3.98596e-10
3.11781e-07
2.6642e-10
3.11763e-07
1.62113e-10
3.11742e-07
7.92988e-11
3.1172e-07
1.33625e-11
3.11698e-07
-4.12719e-11
3.11679e-07
-8.5737e-11
3.11662e-07
-1.2234e-10
3.11649e-07
-1.52984e-10
-1.78918e-10
3.1164e-07
3.59237e-07
1.61054e-09
3.59405e-07
1.2407e-09
3.59513e-07
9.48485e-10
3.59579e-07
7.16161e-10
3.59615e-07
5.31423e-10
3.59629e-07
3.84104e-10
3.5963e-07
2.66059e-10
3.59621e-07
1.70885e-10
3.59607e-07
9.35584e-11
3.5959e-07
3.01937e-11
3.59571e-07
-2.29001e-11
3.59554e-07
-6.79272e-11
3.59537e-07
-1.06037e-10
3.59523e-07
-1.38819e-10
-1.67425e-10
3.59512e-07
3.56999e-07
1.36148e-09
3.57171e-07
1.06843e-09
3.57288e-07
8.31815e-10
3.57364e-07
6.40164e-10
3.57411e-07
4.84865e-10
3.57436e-07
3.58494e-10
3.57447e-07
2.54981e-10
3.57449e-07
1.69509e-10
3.57444e-07
9.8394e-11
3.57435e-07
3.90109e-11
3.57423e-07
-1.12129e-11
3.57412e-07
-5.67309e-11
3.57401e-07
-9.53081e-11
3.57392e-07
-1.29268e-10
-1.59566e-10
3.57384e-07
3.05919e-07
1.13817e-09
3.06077e-07
9.10615e-10
3.06186e-07
7.2231e-10
3.0626e-07
5.66911e-10
3.06306e-07
4.3853e-10
3.06332e-07
3.31928e-10
3.06345e-07
2.42769e-10
3.06347e-07
1.67551e-10
3.06341e-07
1.03475e-10
3.06332e-07
4.81277e-11
3.06322e-07
-1.0671e-12
3.06309e-07
-4.33413e-11
3.06295e-07
-8.17601e-11
3.06282e-07
-1.16191e-10
-1.47348e-10
3.0627e-07
2.56422e-07
9.47415e-10
2.56563e-07
7.6937e-10
2.56667e-07
6.19031e-10
2.56741e-07
4.9284e-10
2.56793e-07
3.86692e-10
2.56828e-07
2.96889e-10
2.5685e-07
2.20295e-10
2.56863e-07
1.54328e-10
2.5687e-07
9.68784e-11
2.56872e-07
4.62598e-11
2.56869e-07
1.47057e-12
2.56865e-07
-3.89143e-11
2.56858e-07
-7.53886e-11
2.56851e-07
-1.08719e-10
-1.39333e-10
2.56843e-07
2.11479e-07
7.84419e-10
2.11604e-07
6.44998e-10
2.11697e-07
5.25335e-10
2.11767e-07
4.23169e-10
2.11818e-07
3.35709e-10
2.11855e-07
2.60368e-10
2.1188e-07
1.94918e-10
2.11897e-07
1.3752e-10
2.11907e-07
8.66719e-11
2.11912e-07
4.12063e-11
2.11913e-07
3.53188e-13
2.11911e-07
-3.70788e-11
2.11907e-07
-7.12683e-11
2.11901e-07
-1.02845e-10
-1.32139e-10
2.11894e-07
1.72058e-07
6.44034e-10
1.72168e-07
5.35034e-10
1.72253e-07
4.40148e-10
1.72319e-07
3.57817e-10
1.72368e-07
2.86134e-10
1.72405e-07
2.23308e-10
1.72433e-07
1.67804e-10
1.72452e-07
1.18331e-10
1.72465e-07
7.38527e-11
1.72472e-07
3.35079e-11
1.72476e-07
-3.445e-12
1.72476e-07
-3.73437e-11
1.72474e-07
-6.88219e-11
1.72469e-07
-9.81133e-11
-1.25462e-10
1.72462e-07
1.38344e-07
5.22518e-10
1.38442e-07
4.37574e-10
1.38519e-07
3.62669e-10
1.3858e-07
2.9668e-10
1.38628e-07
2.38286e-10
1.38665e-07
1.86276e-10
1.38693e-07
1.39612e-10
1.38714e-07
9.74046e-11
1.38729e-07
5.89267e-11
1.38739e-07
2.35577e-11
1.38745e-07
-9.15292e-12
1.38747e-07
-3.94357e-11
1.38746e-07
-6.7789e-11
1.38742e-07
-9.43435e-11
-1.1925e-10
1.38736e-07
1.10062e-07
4.16951e-10
1.10148e-07
3.51129e-10
1.10218e-07
2.92382e-10
1.10275e-07
2.39876e-10
1.10321e-07
1.92694e-10
1.10357e-07
1.50048e-10
1.10385e-07
1.11244e-10
1.10407e-07
7.56981e-11
1.10423e-07
4.28805e-11
1.10434e-07
1.23651e-11
1.10441e-07
-1.59685e-11
1.10444e-07
-4.25121e-11
1.10444e-07
-6.74719e-11
1.10441e-07
-9.09471e-11
-1.13029e-10
1.10434e-07
8.6695e-08
3.2556e-10
8.67711e-08
2.75031e-10
8.68341e-08
2.29417e-10
8.68858e-08
1.88078e-10
8.69281e-08
1.50397e-10
8.69623e-08
1.15886e-10
8.69895e-08
8.40943e-11
8.70105e-08
5.46497e-11
8.70262e-08
2.72098e-11
8.70372e-08
1.36366e-12
8.70438e-08
-2.25871e-11
8.70466e-08
-4.53057e-11
8.70458e-08
-6.67053e-11
8.70418e-08
-8.68805e-11
-1.0588e-10
8.70346e-08
6.76255e-08
2.47633e-10
6.76911e-08
2.09375e-10
6.77461e-08
1.74463e-10
6.77918e-08
1.42389e-10
6.78294e-08
1.12775e-10
6.786e-08
8.53346e-11
6.78843e-08
5.97914e-11
6.7903e-08
3.58959e-11
6.79168e-08
1.3424e-11
6.79259e-08
-7.75175e-12
6.7931e-08
-2.76415e-11
6.79322e-08
-4.64858e-11
6.79297e-08
-6.42909e-11
6.7924e-08
-8.10927e-11
-9.69058e-11
6.7915e-08
5.22195e-08
1.8289e-10
5.22744e-08
1.54455e-10
5.23206e-08
1.28228e-10
5.23592e-08
1.03813e-10
5.2391e-08
8.10128e-11
5.24166e-08
5.96717e-11
5.24368e-08
3.96277e-11
5.2452e-08
2.07286e-11
5.24626e-08
2.82374e-12
5.24689e-08
-1.4061e-11
5.24713e-08
-3.00625e-11
5.247e-08
-4.52136e-11
5.24653e-08
-5.95427e-11
5.24572e-08
-7.30597e-11
-8.57569e-11
5.24461e-08
3.98799e-08
1.30829e-10
3.99242e-08
1.10175e-10
3.99615e-08
9.09181e-11
3.99925e-08
7.27649e-11
4.00179e-08
5.56482e-11
4.00381e-08
3.94879e-11
4.00535e-08
2.41918e-11
4.00646e-08
9.6766e-12
4.00715e-08
-4.12194e-12
4.00747e-08
-1.72019e-11
4.00742e-08
-2.96251e-11
4.00704e-08
-4.13945e-11
4.00634e-08
-5.25211e-11
4.00533e-08
-6.30012e-11
-7.28172e-11
4.00404e-08
3.0073e-08
9.04093e-11
3.01074e-08
7.58103e-11
3.01363e-08
6.20558e-11
3.01601e-08
4.8939e-11
3.01793e-08
3.64736e-11
3.01941e-08
2.46165e-11
3.0205e-08
1.33216e-11
3.02121e-08
2.55112e-12
3.02157e-08
-7.7147e-12
3.0216e-08
-1.74914e-11
3.02132e-08
-2.67804e-11
3.02074e-08
-3.5582e-11
3.01987e-08
-4.38936e-11
3.01874e-08
-5.17039e-11
-5.89928e-11
3.01736e-08
2.23373e-08
6.01081e-11
2.2363e-08
5.01187e-11
2.23845e-08
4.06185e-11
2.24019e-08
3.14688e-11
2.24157e-08
2.27208e-11
2.2426e-08
1.43439e-11
2.2433e-08
6.32294e-12
2.24369e-08
-1.34809e-12
2.24378e-08
-8.68802e-12
2.2436e-08
-1.5696e-11
2.24316e-08
-2.23548e-11
2.24247e-08
-2.86612e-11
2.24154e-08
-3.46077e-11
2.24039e-08
-4.01792e-11
-4.53574e-11
2.23902e-08
1.62818e-08
3.81666e-11
1.63003e-08
3.1597e-11
1.63156e-08
2.53097e-11
1.63279e-08
1.92078e-11
1.63373e-08
1.33479e-11
1.63439e-08
7.70138e-12
1.6348e-08
2.27263e-12
1.63495e-08
-2.92623e-12
1.63488e-08
-7.92656e-12
1.63458e-08
-1.2706e-11
1.63407e-08
-1.72458e-11
1.63336e-08
-2.15418e-11
1.63245e-08
-2.55859e-11
1.63137e-08
-2.93626e-11
-3.28564e-11
1.63012e-08
1.15797e-08
2.28408e-11
1.15926e-08
1.87355e-11
1.16031e-08
1.48076e-11
1.16113e-08
1.09764e-11
1.16174e-08
7.28514e-12
1.16214e-08
3.70658e-12
1.16234e-08
2.54478e-13
1.16235e-08
-3.05228e-12
1.16218e-08
-6.2527e-12
1.16184e-08
-9.31198e-12
1.16134e-08
-1.22162e-11
1.16068e-08
-1.49617e-11
1.15988e-08
-1.7542e-11
1.15894e-08
-1.99433e-11
-2.21524e-11
1.15787e-08
7.9607e-09
1.25718e-11
7.96925e-09
1.01818e-11
7.97614e-09
7.92466e-12
7.98139e-09
5.71846e-12
7.98509e-09
3.58695e-12
7.98729e-09
1.50757e-12
7.98805e-09
-5.0426e-13
7.98743e-09
-2.43108e-12
7.98549e-09
-4.31144e-12
7.98228e-09
-6.10098e-12
7.97786e-09
-7.80437e-12
7.97231e-09
-9.41147e-12
7.96569e-09
-1.09198e-11
7.95807e-09
-1.23184e-11
-1.35953e-11
7.94951e-09
5.20276e-09
6.0631e-12
5.20813e-09
4.81408e-12
5.21237e-09
3.679e-12
5.21552e-09
2.57036e-12
5.21761e-09
1.49571e-12
5.21868e-09
4.40552e-13
5.21876e-09
-5.87534e-13
5.2179e-09
-1.56753e-12
5.21612e-09
-2.53028e-12
5.21346e-09
-3.4471e-12
5.20998e-09
-4.32024e-12
5.20571e-09
-5.14235e-12
5.20071e-09
-5.91333e-12
5.19501e-09
-6.62513e-12
-7.26707e-12
5.18868e-09
3.12496e-09
2.28797e-12
3.12802e-09
1.74917e-12
3.1304e-09
1.30333e-12
3.1321e-09
8.69271e-13
3.13315e-09
4.45575e-13
3.13356e-09
2.50396e-14
3.13336e-09
-3.85515e-13
3.13257e-09
-7.78462e-13
3.13121e-09
-1.16411e-12
3.12929e-09
-1.53305e-12
3.12686e-09
-1.88405e-12
3.12393e-09
-2.21416e-12
3.12054e-09
-2.52348e-12
3.11672e-09
-2.80707e-12
-3.05563e-12
3.11251e-09
1.5808e-09
4.61059e-13
1.58224e-09
3.12541e-13
1.58333e-09
2.1881e-13
1.58407e-09
1.27918e-13
1.58448e-09
3.65508e-14
1.58456e-09
-5.51069e-14
1.58432e-09
-1.46761e-13
1.58377e-09
-2.33605e-13
1.58293e-09
-3.19256e-13
1.5818e-09
-4.01166e-13
1.58039e-09
-4.78749e-13
1.57873e-09
-5.52292e-13
1.57683e-09
-6.20304e-13
1.5747e-09
-6.81774e-13
-7.29722e-13
1.57237e-09
4.52486e-10
4.52799e-10
4.53018e-10
4.53145e-10
4.53182e-10
4.53127e-10
4.5298e-10
4.52747e-10
4.52427e-10
4.52026e-10
4.51547e-10
4.50995e-10
4.50375e-10
4.49693e-10
4.48963e-10
1.16927e-09
-4.85081e-10
2.93772e-10
1.4429e-09
-4.21316e-10
1.47686e-10
1.71852e-09
-2.91644e-10
1.60151e-11
1.98985e-09
-1.57787e-10
-1.13541e-10
2.25515e-09
-2.49642e-11
-2.40334e-10
2.51522e-09
9.95732e-11
-3.59644e-10
2.77149e-09
2.14636e-10
-4.70903e-10
3.02517e-09
3.19487e-10
-5.73167e-10
3.27728e-09
4.13451e-10
-6.65562e-10
3.52862e-09
4.96017e-10
-7.47359e-10
3.77982e-09
5.66811e-10
-8.18012e-10
4.03141e-09
6.2585e-10
-8.77436e-10
4.28388e-09
6.73962e-10
-9.26433e-10
4.53783e-09
7.13457e-10
-9.67413e-10
4.79414e-09
7.49105e-10
-1.00541e-09
5.05422e-09
7.89594e-10
-1.04967e-09
5.32039e-09
8.48995e-10
-1.11517e-09
5.59646e-09
9.48635e-10
-1.22471e-09
5.88815e-09
1.11477e-09
-1.40645e-09
6.20322e-09
1.37473e-09
-1.6898e-09
6.55003e-09
1.72938e-09
-2.07619e-09
6.93334e-09
2.12269e-09
-2.506e-09
7.28837e-09
2.01779e-09
-2.37281e-09
7.58367e-09
1.52141e-09
-1.8167e-09
7.81549e-09
8.58922e-10
-1.09075e-09
7.98448e-09
1.24976e-10
-2.93965e-10
8.09369e-09
-6.08587e-10
4.99378e-10
8.14682e-09
-1.29529e-09
1.24216e-09
8.14722e-09
-1.9051e-09
1.9047e-09
8.09779e-09
-2.41692e-09
2.46636e-09
8.00121e-09
-2.81415e-09
2.91073e-09
7.86031e-09
-3.08354e-09
3.22444e-09
7.67823e-09
-3.21579e-09
3.39787e-09
7.45839e-09
-3.20633e-09
3.42617e-09
7.20429e-09
-3.05553e-09
3.30964e-09
6.91919e-09
-2.76795e-09
3.05305e-09
6.60592e-09
-2.35063e-09
2.6639e-09
6.26685e-09
-1.81036e-09
2.14943e-09
5.9041e-09
-1.15043e-09
1.51317e-09
5.51899e-09
-3.68523e-10
7.53635e-10
5.10865e-09
5.36847e-10
-1.26509e-10
4.66075e-09
1.54179e-09
-1.09389e-09
4.15217e-09
2.53272e-09
-2.02414e-09
3.5856e-09
3.24687e-09
-2.6803e-09
2.98227e-09
3.24315e-09
-2.63982e-09
2.43e-09
-5.61042e-10
2.59218e-09
-5.83502e-10
2.81256e-09
-5.12023e-10
3.05891e-09
-4.04134e-10
3.31751e-09
-2.8357e-10
3.58126e-09
-1.64177e-10
3.84731e-09
-5.14091e-11
4.11458e-09
5.22178e-11
4.3828e-09
1.45226e-10
4.65204e-09
2.26782e-10
4.92247e-09
2.96381e-10
5.19434e-09
3.53979e-10
5.46797e-09
4.00327e-10
5.74386e-09
4.37574e-10
6.02278e-09
4.70184e-10
6.30612e-09
5.0625e-10
6.59623e-09
5.58886e-10
6.89701e-09
6.47853e-10
7.21438e-09
7.97399e-10
7.55648e-09
1.03262e-09
7.93223e-09
1.35363e-09
8.34704e-09
1.70788e-09
8.73179e-09
1.63304e-09
9.05303e-09
1.20016e-09
9.30672e-09
6.05234e-10
9.49321e-09
-6.15185e-11
9.61546e-09
-7.30834e-10
9.67719e-09
-1.35702e-09
9.68195e-09
-1.90985e-09
9.63291e-09
-2.36789e-09
9.53326e-09
-2.71449e-09
9.38644e-09
-2.93672e-09
9.19642e-09
-3.02577e-09
8.96766e-09
-2.97757e-09
8.70502e-09
-2.79288e-09
8.41355e-09
-2.47649e-09
8.09859e-09
-2.03566e-09
7.76616e-09
-1.47794e-09
7.42428e-09
-8.08542e-10
7.08476e-09
-2.89977e-11
6.76408e-09
8.57525e-10
6.48402e-09
1.82185e-09
6.27185e-09
2.74489e-09
6.17025e-09
3.34847e-09
3.06775e-09
6.08477e-09
4.226e-09
-5.75547e-10
4.29763e-09
-6.55139e-10
4.43793e-09
-6.52316e-10
4.63044e-09
-5.96649e-10
4.85572e-09
-5.08844e-10
5.10139e-09
-4.09851e-10
5.35997e-09
-3.09989e-10
5.62716e-09
-2.14976e-10
5.90055e-09
-1.28161e-10
6.17878e-09
-5.14458e-11
6.4611e-09
1.40582e-11
6.74715e-09
6.79334e-11
7.03681e-09
1.10661e-10
7.33028e-09
1.44106e-10
7.62813e-09
1.72339e-10
7.93158e-09
2.02796e-10
8.2429e-09
2.47566e-10
8.56598e-09
3.24773e-10
8.90684e-09
4.56545e-10
9.27387e-09
6.65588e-10
9.67646e-09
9.51046e-10
1.01206e-08
1.26374e-09
1.05333e-08
1.22032e-09
1.08793e-08
8.54179e-10
1.11541e-08
3.3041e-10
1.13578e-08
-2.65181e-10
1.1493e-08
-8.66066e-10
1.15635e-08
-1.42752e-09
1.1573e-08
-1.9193e-09
1.15249e-08
-2.31985e-09
1.14231e-08
-2.61267e-09
1.12717e-08
-2.78535e-09
1.10758e-08
-2.82982e-09
1.0841e-08
-2.74281e-09
1.0574e-08
-2.52584e-09
1.02819e-08
-2.18445e-09
9.97323e-09
-1.72697e-09
9.65823e-09
-1.16294e-09
9.35135e-09
-5.01672e-10
9.07432e-09
2.48036e-10
8.85986e-09
1.07199e-09
8.7503e-09
1.93141e-09
8.78096e-09
2.71423e-09
8.93564e-09
3.19379e-09
2.9937e-09
9.0097e-09
6.67988e-09
-5.54842e-10
6.69024e-09
-6.65495e-10
6.75246e-09
-7.14537e-10
6.87243e-09
-7.16627e-10
7.04095e-09
-6.77364e-10
7.24462e-09
-6.13519e-10
7.47389e-09
-5.39253e-10
7.72194e-09
-4.63033e-10
7.98411e-09
-3.90328e-10
8.25726e-09
-3.246e-10
8.53935e-09
-2.68028e-10
8.82904e-09
-2.21758e-10
9.12554e-09
-1.85836e-10
9.42851e-09
-1.58861e-10
9.73813e-09
-1.37283e-10
1.00553e-08
-1.14413e-10
1.03822e-08
-7.9266e-11
1.07224e-08
-1.54346e-11
1.10819e-08
9.69906e-11
1.14693e-08
2.78182e-10
1.18943e-08
5.26127e-10
1.23632e-08
7.9481e-10
1.28e-08
7.83513e-10
1.31677e-08
4.86442e-10
1.34615e-08
3.66536e-11
1.36808e-08
-4.84458e-10
1.3828e-08
-1.01326e-09
1.39066e-08
-1.50621e-09
1.39206e-08
-1.9333e-09
1.38739e-08
-2.27309e-09
1.37708e-08
-2.50953e-09
1.36164e-08
-2.63097e-09
1.34169e-08
-2.63038e-09
1.31798e-08
-2.50563e-09
1.29133e-08
-2.25938e-09
1.26274e-08
-1.89851e-09
1.23335e-08
-1.43315e-09
1.20464e-08
-8.75809e-10
1.17858e-08
-2.41032e-10
1.15798e-08
4.54048e-10
1.14674e-08
1.1843e-09
1.14935e-08
1.90536e-09
1.1682e-08
2.52577e-09
1.19855e-08
2.89023e-09
2.80046e-09
1.21787e-08
9.95634e-09
-5.18795e-10
9.92782e-09
-6.36978e-10
9.93142e-09
-7.18134e-10
9.97868e-09
-7.63896e-10
1.0076e-08
-7.74679e-10
1.02181e-08
-7.55607e-10
1.0396e-08
-7.17138e-10
1.0603e-08
-6.70015e-10
1.08332e-08
-6.20608e-10
1.10823e-08
-5.73699e-10
1.13469e-08
-5.32636e-10
1.16247e-08
-4.99489e-10
1.19139e-08
-4.75039e-10
1.22135e-08
-4.58518e-10
1.25233e-08
-4.47037e-10
1.28436e-08
-4.34757e-10
1.31762e-08
-4.11881e-10
1.35246e-08
-3.63787e-10
1.38945e-08
-2.72871e-10
1.42942e-08
-1.21593e-10
1.47337e-08
8.66946e-11
1.52195e-08
3.08929e-10
1.56737e-08
3.29372e-10
1.60577e-08
1.02379e-10
1.63662e-08
-2.71766e-10
1.65978e-08
-7.16073e-10
1.67545e-08
-1.16999e-09
1.68397e-08
-1.59142e-09
1.68573e-08
-1.95091e-09
1.68117e-08
-2.22745e-09
1.67079e-08
-2.40572e-09
1.65521e-08
-2.47521e-09
1.6352e-08
-2.43022e-09
1.61164e-08
-2.27006e-09
1.5856e-08
-1.99898e-09
1.55831e-08
-1.62561e-09
1.53124e-08
-1.16239e-09
1.50616e-08
-6.25092e-10
1.48539e-08
-3.32385e-11
1.47183e-08
5.89629e-10
1.46908e-08
1.21182e-09
1.48059e-08
1.79025e-09
1.50721e-08
2.25948e-09
1.54331e-08
2.52932e-09
2.51242e-09
1.57211e-08
1.42481e-08
-4.7936e-10
1.42006e-08
-5.894e-10
1.41667e-08
-6.84306e-10
1.41591e-08
-7.5625e-10
1.41889e-08
-8.04524e-10
1.426e-08
-8.26682e-10
1.43714e-08
-8.28536e-10
1.45182e-08
-8.16778e-10
1.46956e-08
-7.98076e-10
1.48994e-08
-7.77479e-10
1.51257e-08
-7.58965e-10
1.53716e-08
-7.45335e-10
1.56346e-08
-7.38078e-10
1.59132e-08
-7.37112e-10
1.62065e-08
-7.40275e-10
1.65143e-08
-7.42643e-10
1.68381e-08
-7.35676e-10
1.71809e-08
-7.06564e-10
1.75481e-08
-6.4007e-10
1.79478e-08
-5.21315e-10
1.83897e-08
-3.55139e-10
1.88804e-08
-1.81821e-10
1.93414e-08
-1.31599e-10
1.97332e-08
-2.89391e-10
2.00492e-08
-5.87829e-10
2.02875e-08
-9.54388e-10
2.04494e-08
-1.33186e-09
2.05379e-08
-1.67989e-09
2.05569e-08
-1.96994e-09
2.05113e-08
-2.18182e-09
2.04069e-08
-2.30134e-09
2.02511e-08
-2.31943e-09
2.00529e-08
-2.23203e-09
1.98231e-08
-2.04024e-09
1.95742e-08
-1.75011e-09
1.93209e-08
-1.37228e-09
1.908e-08
-9.21485e-10
1.88712e-08
-4.16348e-10
1.87175e-08
1.205e-10
1.86448e-08
6.62288e-10
1.86797e-08
1.17698e-09
1.88418e-08
1.62811e-09
1.91275e-08
1.97378e-09
1.94872e-08
2.16964e-09
2.18464e-09
1.9815e-08
1.97831e-08
-4.42477e-10
1.97322e-08
-5.38535e-10
1.968e-08
-6.32091e-10
1.9639e-08
-7.15221e-10
1.96189e-08
-7.84452e-10
1.96283e-08
-8.36039e-10
1.96716e-08
-8.71886e-10
1.97493e-08
-8.94489e-10
1.98598e-08
-9.08553e-10
2.00006e-08
-9.18229e-10
2.01688e-08
-9.27222e-10
2.03619e-08
-9.38456e-10
2.05776e-08
-9.53768e-10
2.08141e-08
-9.73565e-10
2.10701e-08
-9.96326e-10
2.13455e-08
-1.01799e-09
2.16411e-08
-1.03126e-09
2.19596e-08
-1.0251e-09
2.23061e-08
-9.86623e-10
2.26884e-08
-9.03556e-10
2.31155e-08
-7.82276e-10
2.35941e-08
-6.60366e-10
2.40469e-08
-5.84447e-10
2.44339e-08
-6.76397e-10
2.47472e-08
-9.01137e-10
2.49836e-08
-1.1908e-09
2.51437e-08
-1.49187e-09
2.52299e-08
-1.76614e-09
2.52464e-08
-1.98642e-09
2.51983e-08
-2.13375e-09
2.50925e-08
-2.19547e-09
2.49373e-08
-2.16426e-09
2.47433e-08
-2.03802e-09
2.45228e-08
-1.81978e-09
2.42902e-08
-1.5175e-09
2.40616e-08
-1.14368e-09
2.3855e-08
-7.14871e-10
2.36899e-08
-2.51256e-10
2.35867e-08
2.23719e-10
2.35651e-08
6.83913e-10
2.36405e-08
1.1015e-09
2.38194e-08
1.44924e-09
2.40903e-08
1.70285e-09
2.44156e-08
1.84442e-09
1.86827e-09
2.47319e-08
2.68294e-08
-4.09117e-10
2.6782e-08
-4.9119e-10
2.67264e-08
-5.76475e-10
2.66706e-08
-6.59469e-10
2.66224e-08
-7.36241e-10
2.65901e-08
-8.03709e-10
2.65796e-08
-8.61368e-10
2.6595e-08
-9.09901e-10
2.66381e-08
-9.51683e-10
2.67094e-08
-9.89459e-10
2.68081e-08
-1.02599e-09
2.69334e-08
-1.06369e-09
2.70838e-08
-1.10423e-09
2.72584e-08
-1.14812e-09
2.74563e-08
-1.19421e-09
2.76774e-08
-1.2391e-09
2.79227e-08
-1.27661e-09
2.81949e-08
-1.2973e-09
2.84989e-08
-1.29056e-09
2.88418e-08
-1.24649e-09
2.92325e-08
-1.17293e-09
2.96768e-08
-1.10469e-09
3.0102e-08
-1.00964e-09
3.04677e-08
-1.04209e-09
3.07641e-08
-1.19762e-09
3.09867e-08
-1.41339e-09
3.1135e-08
-1.64013e-09
3.12111e-08
-1.84221e-09
3.12189e-08
-1.99427e-09
3.11642e-08
-2.07905e-09
3.10545e-08
-2.08578e-09
3.08995e-08
-2.00922e-09
3.07108e-08
-1.84936e-09
3.05022e-08
-1.61119e-09
3.02891e-08
-1.30439e-09
3.00883e-08
-9.42816e-10
2.99172e-08
-5.4383e-10
2.97935e-08
-1.2758e-10
2.97333e-08
2.83989e-10
2.97489e-08
6.68243e-10
2.98467e-08
1.00372e-09
3.00237e-08
1.27228e-09
3.02651e-08
1.4614e-09
3.05433e-08
1.56626e-09
1.59098e-09
3.08206e-08
3.56964e-08
-3.77477e-10
3.5653e-08
-4.47869e-10
3.56001e-08
-5.23508e-10
3.55416e-08
-6.01021e-10
3.54828e-08
-6.7737e-10
3.54292e-08
-7.50195e-10
3.53862e-08
-8.18372e-10
3.53583e-08
-8.81924e-10
3.53486e-08
-9.4198e-10
3.53594e-08
-1.00027e-09
3.53921e-08
-1.05871e-09
3.54475e-08
-1.1191e-09
3.5526e-08
-1.1827e-09
3.56277e-08
-1.24987e-09
3.57531e-08
-1.3196e-09
3.59029e-08
-1.38888e-09
3.60788e-08
-1.45245e-09
3.62837e-08
-1.50226e-09
3.65228e-08
-1.52971e-09
3.68033e-08
-1.52696e-09
3.71334e-08
-1.50303e-09
3.75185e-08
-1.48976e-09
3.78932e-08
-1.38437e-09
3.82178e-08
-1.36669e-09
3.84803e-08
-1.46008e-09
3.86742e-08
-1.60732e-09
3.87981e-08
-1.764e-09
3.88535e-08
-1.89768e-09
3.88446e-08
-1.9853e-09
3.87772e-08
-2.01173e-09
3.86599e-08
-1.96842e-09
3.85031e-08
-1.85241e-09
3.83195e-08
-1.66578e-09
3.81236e-08
-1.41528e-09
3.7931e-08
-1.11184e-09
3.7758e-08
-7.69816e-10
3.76204e-08
-4.06205e-10
3.75324e-08
-3.95183e-11
3.75049e-08
3.11466e-10
3.75441e-08
6.29007e-10
3.76497e-08
8.98103e-10
3.78141e-08
1.10796e-09
3.80222e-08
1.25325e-09
3.82536e-08
1.33489e-09
1.35955e-09
3.8485e-08
4.67277e-08
-3.45862e-10
4.66869e-08
-4.07033e-10
4.66373e-08
-4.73932e-10
4.65809e-08
-5.4465e-10
4.65207e-08
-6.17136e-10
4.64602e-08
-6.89643e-10
4.64029e-08
-7.61107e-10
4.63523e-08
-8.31304e-10
4.63111e-08
-9.00834e-10
4.62818e-08
-9.70899e-10
4.6266e-08
-1.04299e-09
4.62655e-08
-1.11856e-09
4.62815e-08
-1.19869e-09
4.63153e-08
-1.28368e-09
4.63684e-08
-1.37268e-09
4.64426e-08
-1.46309e-09
4.65406e-08
-1.55048e-09
4.66663e-08
-1.62799e-09
4.68255e-08
-1.68885e-09
4.70254e-08
-1.72692e-09
4.72743e-08
-1.75192e-09
4.7577e-08
-1.79244e-09
4.7879e-08
-1.68633e-09
4.81423e-08
-1.62998e-09
4.83526e-08
-1.67039e-09
4.85017e-08
-1.75648e-09
4.85872e-08
-1.84951e-09
4.86104e-08
-1.92082e-09
4.85752e-08
-1.95007e-09
4.84881e-08
-1.92463e-09
4.83581e-08
-1.83841e-09
4.81964e-08
-1.69074e-09
4.80162e-08
-1.48559e-09
4.78319e-08
-1.23102e-09
4.76586e-08
-9.3847e-10
4.75106e-08
-6.21896e-10
4.74012e-08
-2.96725e-10
4.73403e-08
2.13076e-11
4.73345e-08
3.17348e-10
4.73848e-08
5.78638e-10
4.74874e-08
7.95563e-10
4.76328e-08
9.62471e-10
4.7808e-08
1.07806e-09
4.79976e-08
1.14533e-09
1.17072e-09
4.81864e-08
6.02907e-08
-3.14617e-10
6.02522e-08
-3.68558e-10
6.02064e-08
-4.28115e-10
6.0154e-08
-4.92324e-10
6.00968e-08
-5.59937e-10
6.0037e-08
-6.29756e-10
5.99768e-08
-7.00927e-10
5.99186e-08
-7.7313e-10
5.98644e-08
-8.46659e-10
5.98159e-08
-9.22339e-10
5.97742e-08
-1.00136e-09
5.97407e-08
-1.08498e-09
5.97162e-08
-1.17426e-09
5.97022e-08
-1.26964e-09
5.97002e-08
-1.37065e-09
5.97123e-08
-1.47526e-09
5.97419e-08
-1.58007e-09
5.97934e-08
-1.67944e-09
5.98729e-08
-1.76839e-09
5.99883e-08
-1.8423e-09
6.01474e-08
-1.91103e-09
6.03548e-08
-1.99981e-09
6.0569e-08
-1.90052e-09
6.07557e-08
-1.81676e-09
6.08992e-08
-1.81385e-09
6.09899e-08
-1.84718e-09
6.10248e-08
-1.88445e-09
6.10052e-08
-1.90121e-09
6.09353e-08
-1.88012e-09
6.08219e-08
-1.81127e-09
6.06746e-08
-1.69109e-09
6.05048e-08
-1.52099e-09
6.03256e-08
-1.30641e-09
6.01507e-08
-1.05606e-09
5.99933e-08
-7.81079e-10
5.98655e-08
-4.94088e-10
5.97769e-08
-2.08143e-10
5.97339e-08
6.4327e-11
5.97389e-08
3.12352e-10
5.97901e-08
5.27431e-10
5.98817e-08
7.03912e-10
6.00049e-08
8.39351e-10
6.01485e-08
9.34425e-10
6.03013e-08
9.92576e-10
1.01919e-09
6.04528e-08
7.67773e-08
-2.86465e-10
7.67436e-08
-3.34791e-10
7.67038e-08
-3.88398e-10
7.66584e-08
-4.46907e-10
7.66082e-08
-5.09674e-10
7.65544e-08
-5.75987e-10
7.64987e-08
-6.45265e-10
7.64428e-08
-7.17215e-10
7.63881e-08
-7.91955e-10
7.63358e-08
-8.69992e-10
7.62866e-08
-9.52201e-10
7.62412e-08
-1.03956e-09
7.62e-08
-1.13305e-09
7.61635e-08
-1.23313e-09
7.61326e-08
-1.33979e-09
7.61089e-08
-1.45155e-09
7.6095e-08
-1.56617e-09
7.60949e-08
-1.67933e-09
7.61143e-08
-1.78781e-09
7.61606e-08
-1.88861e-09
7.62407e-08
-1.9911e-09
7.63584e-08
-2.11753e-09
7.64851e-08
-2.02723e-09
7.65922e-08
-1.92386e-09
7.66637e-08
-1.88533e-09
7.66899e-08
-1.87341e-09
7.66685e-08
-1.863e-09
7.66011e-08
-1.83389e-09
7.64926e-08
-1.77159e-09
7.63503e-08
-1.66893e-09
7.61839e-08
-1.5247e-09
7.60049e-08
-1.34199e-09
7.58255e-08
-1.12702e-09
7.56578e-08
-8.88403e-10
7.55129e-08
-6.36177e-10
7.53998e-08
-3.80994e-10
7.53249e-08
-1.33185e-10
7.52911e-08
9.80839e-11
7.52983e-08
3.05159e-10
7.5343e-08
4.8279e-10
7.54189e-08
6.27966e-10
7.55182e-08
7.40044e-10
7.56321e-08
8.2049e-10
7.57522e-08
8.72486e-10
9.00287e-10
7.58711e-08
9.66334e-08
-2.64991e-10
9.66078e-08
-3.09118e-10
9.65775e-08
-3.58121e-10
9.65425e-08
-4.11967e-10
9.65033e-08
-4.70434e-10
9.64605e-08
-5.33198e-10
9.64152e-08
-5.99966e-10
9.63686e-08
-6.70568e-10
9.63217e-08
-7.45079e-10
9.62755e-08
-8.238e-10
9.62307e-08
-9.07355e-10
9.61875e-08
-9.96398e-10
9.61462e-08
-1.09177e-09
9.61069e-08
-1.19377e-09
9.60697e-08
-1.30267e-09
9.60355e-08
-1.4173e-09
9.60058e-08
-1.53648e-09
9.59834e-08
-1.65688e-09
9.59725e-08
-1.77695e-09
9.5979e-08
-1.89512e-09
9.60075e-08
-2.01962e-09
9.60602e-08
-2.17024e-09
9.61178e-08
-2.08475e-09
9.61581e-08
-1.96424e-09
9.61664e-08
-1.89359e-09
9.61341e-08
-1.84108e-09
9.60613e-08
-1.79019e-09
9.5951e-08
-1.72358e-09
9.58084e-08
-1.62901e-09
9.56415e-08
-1.50204e-09
9.54602e-08
-1.34344e-09
9.52755e-08
-1.15723e-09
9.50981e-08
-9.49701e-10
9.49383e-08
-7.28594e-10
9.48045e-08
-5.02305e-10
9.47027e-08
-2.79181e-10