/*--------------------------------*- C++ -*----------------------------------*\
| =========                 |                                                 |
| \\      /  F ield         | OpenFOAM: The Open Source CFD Toolbox           |
|  \\    /   O peration     | Version:  2312                                  |
|   \\  /    A nd           | Website:  www.openfoam.com                      |
|    \\/     M anipulation  |                                                 |
\*---------------------------------------------------------------------------*/
FoamFile
{
    version     2.0;
    format      ascii;
    arch        "LSB;label=32;scalar=64";
    class       volVectorField;
    location    "7";
    object      U;
}
// * * * * * * * * * * * * * * * * * * * * * * * * * * * * * * * * * * * * * //

dimensions      [0 1 -1 0 0 0 0];

internalField   nonuniform List<vector> 
4800
(
(0.000463257 3.13086e-07 -2.68011e-26)
(0.000455592 3.43459e-07 -1.88392e-25)
(0.000450976 3.5503e-07 2.41798e-25)
(0.00044839 3.45646e-07 1.10613e-25)
(0.000447235 3.27718e-07 1.63368e-24)
(0.000447256 2.9532e-07 -3.89087e-24)
(0.000448204 2.55696e-07 3.64473e-24)
(0.000449985 1.79256e-07 -5.29153e-24)
(0.00045268 2.32915e-08 1.69654e-24)
(0.000456471 -2.41682e-07 5.78999e-24)
(0.000461762 -7.53873e-07 -1.78422e-24)
(0.000469838 -2.15918e-06 -1.51079e-25)
(0.000487908 -7.33213e-06 -2.17731e-24)
(0.000533834 -2.82176e-05 1.01295e-24)
(0.000609767 -9.17379e-05 -8.05353e-25)
(0.00143243 1.63426e-06 -8.52689e-26)
(0.001409 1.18238e-06 1.06277e-25)
(0.00139464 8.21978e-07 -9.7999e-25)
(0.00138634 4.95411e-07 7.32264e-25)
(0.00138229 1.78531e-07 2.35295e-24)
(0.00138169 -1.66044e-07 -3.73591e-24)
(0.00138373 -5.62097e-07 -1.06741e-24)
(0.00138817 -1.08842e-06 -2.55678e-25)
(0.00139523 -1.91475e-06 8.79117e-24)
(0.00140533 -3.24217e-06 -6.49583e-24)
(0.00141967 -5.7109e-06 7.07094e-25)
(0.001441 -1.15629e-05 1.07859e-24)
(0.00147816 -2.84465e-05 -1.59558e-24)
(0.00154185 -7.98256e-05 -4.83339e-25)
(0.00161046 -0.000195553 2.08724e-24)
(0.00250372 5.25511e-06 -6.1046e-26)
(0.00246337 3.79571e-06 6.23775e-26)
(0.00243832 2.6621e-06 6.41461e-25)
(0.00242345 1.67731e-06 -1.52981e-24)
(0.00241575 7.00685e-07 1.50188e-24)
(0.00241376 -3.65978e-07 1.40033e-24)
(0.00241612 -1.60097e-06 -3.61834e-24)
(0.00242228 -3.23105e-06 -2.2707e-24)
(0.00243266 -5.62088e-06 5.45331e-24)
(0.00244752 -9.31837e-06 2.05715e-24)
(0.00246822 -1.58208e-05 -7.15236e-24)
(0.00249693 -2.91095e-05 -1.08552e-24)
(0.00253779 -5.8707e-05 3.05575e-24)
(0.0025896 -0.000123871 4.83707e-24)
(0.00262726 -0.000232118 -2.49917e-24)
(0.00368313 1.17599e-05 2.25678e-26)
(0.00362506 8.60111e-06 -1.57149e-25)
(0.00358846 6.15621e-06 7.00949e-25)
(0.00356619 4.04685e-06 7.50571e-25)
(0.00355402 1.97402e-06 -7.45173e-25)
(0.00354965 -2.90205e-07 -4.23399e-24)
(0.00355142 -2.78505e-06 -2.86654e-24)
(0.00355804 -6.09752e-06 1.09644e-23)
(0.00357018 -1.08424e-05 4.57466e-24)
(0.00358745 -1.78379e-05 -6.56919e-24)
(0.0036107 -2.92408e-05 -2.64703e-24)
(0.00364033 -4.95864e-05 -2.02025e-24)
(0.00367563 -8.68595e-05 6.04455e-26)
(0.00370944 -0.000150996 1.49429e-24)
(0.00372353 -0.000236987 7.30412e-27)
(0.00497451 2.17778e-05 -4.14172e-26)
(0.00489863 1.6091e-05 -2.53324e-25)
(0.00485004 1.16976e-05 -1.60348e-25)
(0.00481971 7.92693e-06 4.33209e-25)
(0.00480229 4.28015e-06 -1.23276e-24)
(0.00479449 4.34347e-07 3.07671e-24)
(0.0047946 -4.00594e-06 -5.36778e-25)
(0.00480036 -9.35259e-06 1.88873e-24)
(0.0048123 -1.69436e-05 -1.05907e-23)
(0.00482939 -2.75684e-05 2.01081e-23)
(0.00485143 -4.34914e-05 -1.94566e-23)
(0.00487715 -6.84457e-05 1.02696e-23)
(0.00490318 -0.00010726 -9.53163e-24)
(0.00492187 -0.00016297 8.99223e-24)
(0.00492286 -0.000227993 -3.58587e-24)
(0.00637797 3.6016e-05 5.47222e-26)
(0.00628555 2.68922e-05 1.95916e-25)
(0.00622534 1.98494e-05 -1.0339e-24)
(0.00618679 1.38348e-05 -6.55007e-25)
(0.0061636 8.11784e-06 1.75658e-24)
(0.00615165 2.14914e-06 6.30781e-25)
(0.00614872 -4.46157e-06 -4.93104e-24)
(0.00615249 -1.24203e-05 1.17737e-23)
(0.00616231 -2.29583e-05 -1.53467e-23)
(0.00617678 -3.69876e-05 3.67888e-24)
(0.00619473 -5.6328e-05 1.12003e-23)
(0.00621389 -8.32614e-05 -1.55609e-23)
(0.00623041 -0.000119672 7.7924e-24)
(0.00623857 -0.000165022 7.98729e-24)
(0.00623366 -0.000213092 -6.08003e-24)
(0.00788774 5.49831e-05 4.52523e-26)
(0.00778229 4.15408e-05 -2.67672e-25)
(0.00771224 3.11481e-05 9.58761e-25)
(0.00766626 2.2305e-05 -1.33032e-24)
(0.0076374 1.403e-05 -4.52298e-24)
(0.00762101 5.54143e-06 7.7113e-24)
(0.00761427 -3.6375e-06 -4.68493e-24)
(0.00761477 -1.43494e-05 1.59554e-23)
(0.007621 -2.77069e-05 -1.08513e-23)
(0.00763111 -4.45276e-05 -5.07451e-24)
(0.00764331 -6.59252e-05 -9.98627e-24)
(0.00765511 -9.28029e-05 9.18129e-24)
(0.00766338 -0.000125144 2.58274e-24)
(0.00766464 -0.00016116 2.20925e-24)
(0.00765736 -0.00019669 -1.94395e-24)
(0.00948984 7.85824e-05 -6.52164e-26)
(0.00937808 6.01726e-05 8.85736e-25)
(0.00930214 4.58581e-05 -2.06222e-24)
(0.009251 3.3692e-05 -1.68975e-24)
(0.00921768 2.24444e-05 6.31669e-25)
(0.00919734 1.11509e-05 1.24412e-24)
(0.00918675 -8.22451e-07 4.47026e-24)
(0.00918338 -1.42414e-05 -1.2184e-23)
(0.00918521 -3.00682e-05 -6.50719e-24)
(0.00919015 -4.88541e-05 1.78977e-23)
(0.00919618 -7.10339e-05 -5.5496e-24)
(0.00920111 -9.65662e-05 1.89761e-23)
(0.00920284 -0.000124589 -9.98992e-24)
(0.00919949 -0.000153304 -3.18326e-24)
(0.0091911 -0.000180194 1.88465e-24)
(0.0111611 0.000105572 -8.62117e-27)
(0.0110533 8.20955e-05 4.89583e-25)
(0.0109781 6.36232e-05 -6.97171e-25)
(0.0109261 4.78764e-05 1.67153e-24)
(0.010891 3.34293e-05 -9.97093e-24)
(0.0108684 1.9208e-05 1.05287e-23)
(0.010855 4.47269e-06 -1.66017e-23)
(0.0108482 -1.14366e-05 1.02045e-23)
(0.0108458 -2.92159e-05 7.59311e-24)
(0.0108458 -4.9126e-05 1.64883e-23)
(0.0108463 -7.11146e-05 -2.15353e-23)
(0.0108457 -9.46792e-05 -3.98293e-24)
(0.0108427 -0.000118812 1.83911e-24)
(0.0108363 -0.000142163 1.31263e-23)
(0.0108272 -0.000163305 -5.33793e-24)
(0.0128718 0.000133053 4.71883e-26)
(0.0127808 0.000105302 -2.05391e-25)
(0.0127151 8.30226e-05 9.18896e-25)
(0.0126684 6.38584e-05 -3.22338e-24)
(0.0126359 4.63179e-05 4.88731e-24)
(0.0126141 2.93135e-05 -6.31235e-24)
(0.0126 1.20999e-05 1.05698e-23)
(0.0125913 -5.86847e-06 1.85469e-24)
(0.0125861 -2.49818e-05 -1.45729e-23)
(0.0125825 -4.52764e-05 2.07548e-23)
(0.0125791 -6.64518e-05 -2.28889e-23)
(0.0125748 -8.79036e-05 -6.73619e-24)
(0.0125688 -0.000108803 1.18816e-23)
(0.0125607 -0.00012829 3.52276e-24)
(0.0125514 -0.000145609 -1.53856e-24)
(0.0145962 0.000156607 1.87684e-25)
(0.0145329 0.000126328 -1.59643e-24)
(0.0144853 0.00010131 -2.57056e-24)
(0.0144504 7.94441e-05 6.09212e-24)
(0.0144256 5.93615e-05 2.72538e-24)
(0.0144083 4.00793e-05 -1.71178e-23)
(0.0143966 2.09514e-05 5.27279e-24)
(0.0143885 1.56918e-06 3.79791e-24)
(0.0143827 -1.8205e-05 -1.6425e-23)
(0.0143777 -3.8276e-05 1.71092e-23)
(0.0143726 -5.8288e-05 -1.36871e-23)
(0.0143666 -7.77316e-05 3.51594e-23)
(0.0143597 -9.60394e-05 -1.6897e-23)
(0.0143513 -0.000112735 9.94251e-24)
(0.0143424 -0.000127457 -2.71251e-24)
(0.0163275 0.000172022 -6.93141e-26)
(0.016295 0.000141268 1.07612e-24)
(0.0162693 0.000115006 -2.11479e-24)
(0.0162502 9.15753e-05 -1.07744e-24)
(0.0162364 6.98853e-05 1.20334e-23)
(0.0162268 4.9164e-05 -1.74607e-24)
(0.0162202 2.89318e-05 -2.14052e-23)
(0.0162152 8.94643e-06 2.49684e-23)
(0.0162111 -1.08013e-05 -5.6101e-24)
(0.016207 -3.0153e-05 -1.94104e-23)
(0.0162024 -4.88058e-05 2.07024e-23)
(0.0161969 -6.64128e-05 1.11566e-23)
(0.0161906 -8.26408e-05 -9.38639e-24)
(0.0161833 -9.72686e-05 -1.62462e-23)
(0.0161758 -0.000110156 1.36306e-24)
(0.0180855 0.00017835 -2.55271e-27)
(0.0180759 0.000148286 -1.19577e-24)
(0.0180684 0.000121904 5.73203e-24)
(0.0180632 9.79414e-05 3.70662e-25)
(0.01806 7.55958e-05 3.28704e-24)
(0.0180582 5.43335e-05 -1.17492e-23)
(0.0180571 3.38471e-05 1.00428e-23)
(0.0180563 1.40281e-05 2.28793e-24)
(0.0180551 -5.08422e-06 2.06517e-23)
(0.0180532 -2.33397e-05 -3.1905e-23)
(0.0180505 -4.05304e-05 -1.44381e-23)
(0.0180467 -5.64627e-05 -9.53873e-24)
(0.0180422 -7.09758e-05 1.79631e-23)
(0.0180368 -8.40017e-05 -5.16419e-25)
(0.0180313 -9.55202e-05 1.7402e-24)
(0.0198966 0.000178933 -1.77449e-26)
(0.0198974 0.000149466 1.21582e-24)
(0.0198989 0.000123196 -1.77317e-24)
(0.0199011 9.9118e-05 -7.56627e-28)
(0.0199039 7.66394e-05 2.37304e-24)
(0.0199067 5.54022e-05 6.05195e-24)
(0.0199092 3.5221e-05 -2.34695e-23)
(0.0199111 1.60438e-05 1.97791e-24)
(0.019912 -2.09049e-06 1.19372e-23)
(0.019912 -1.90957e-05 -5.49669e-24)
(0.019911 -3.48651e-05 1.50093e-23)
(0.0199089 -4.93244e-05 1.0504e-23)
(0.0199063 -6.24277e-05 -1.90605e-23)
(0.0199027 -7.4193e-05 1.3033e-23)
(0.019899 -8.46612e-05 -1.08343e-23)
(0.0217555 0.000177867 -5.27297e-25)
(0.0217586 0.000148688 2.76079e-25)
(0.0217621 0.000122402 2.10668e-24)
(0.0217659 9.82447e-05 -1.09501e-23)
(0.0217698 7.57793e-05 9.65484e-24)
(0.0217734 5.47637e-05 -7.07547e-24)
(0.0217764 3.50714e-05 5.07119e-24)
(0.0217787 1.66546e-05 -3.6063e-23)
(0.02178 -4.94865e-07 5.2052e-23)
(0.0217804 -1.63611e-05 -3.06778e-23)
(0.02178 -3.09304e-05 2.74046e-23)
(0.0217786 -4.42154e-05 2.29179e-23)
(0.0217768 -5.62429e-05 -4.00387e-23)
(0.0217742 -6.70767e-05 1.30258e-23)
(0.0217717 -7.67871e-05 -5.47205e-25)
(0.0236068 0.000176345 -1.8693e-26)
(0.0236109 0.000147753 -1.61008e-25)
(0.0236146 0.000121703 1.22652e-25)
(0.0236181 9.77063e-05 -3.01742e-25)
(0.0236213 7.54773e-05 3.93303e-24)
(0.0236241 5.4856e-05 -6.76783e-24)
(0.0236263 3.5745e-05 6.30475e-24)
(0.0236277 1.8079e-05 -1.99856e-23)
(0.0236284 1.80375e-06 4.55089e-23)
(0.0236282 -1.31287e-05 -5.82913e-23)
(0.0236275 -2.67734e-05 4.7777e-23)
(0.0236261 -3.91973e-05 -1.61401e-23)
(0.0236244 -5.04675e-05 8.39026e-25)
(0.0236221 -6.06706e-05 3.7023e-24)
(0.0236198 -6.98882e-05 -7.10292e-24)
(0.025359 0.000173294 -1.54724e-24)
(0.025365 0.000145982 2.78473e-24)
(0.0253696 0.000120779 -9.34425e-25)
(0.0253732 9.74711e-05 -1.51641e-24)
(0.0253762 7.59131e-05 6.19085e-24)
(0.0253784 5.60037e-05 -6.30795e-24)
(0.02538 3.7662e-05 -5.70391e-24)
(0.0253808 2.08072e-05 -1.38026e-23)
(0.0253809 5.35831e-06 7.02701e-24)
(0.0253804 -8.77316e-06 3.36095e-23)
(0.0253794 -2.16799e-05 -1.77559e-23)
(0.0253779 -3.3454e-05 1.05974e-23)
(0.0253761 -4.41797e-05 -4.36165e-24)
(0.0253738 -5.39504e-05 -1.29336e-23)
(0.0253716 -6.28491e-05 6.62178e-24)
(0.0268963 0.000167649 5.0791e-25)
(0.0269044 0.000142322 -8.81739e-25)
(0.0269103 0.000118634 -2.57652e-25)
(0.0269146 9.66038e-05 -7.42771e-25)
(0.0269179 7.62021e-05 -1.83846e-24)
(0.0269201 5.73695e-05 9.56279e-24)
(0.0269216 4.00371e-05 -7.70008e-24)
(0.0269224 2.41139e-05 -4.97268e-24)
(0.0269225 9.50918e-06 4.55581e-24)
(0.0269219 -3.88059e-06 -5.37965e-24)
(0.026921 -1.61462e-05 1.25366e-23)
(0.0269195 -2.73856e-05 6.36497e-24)
(0.0269178 -3.76885e-05 -2.37577e-23)
(0.0269157 -4.71454e-05 1.64183e-23)
(0.0269137 -5.58319e-05 -3.34935e-24)
(0.028069 0.000159236 1.50031e-24)
(0.0280788 0.000136445 2.52765e-24)
(0.0280859 0.00011484 -5.63137e-24)
(0.028091 9.46029e-05 -2.90386e-25)
(0.0280948 7.57874e-05 1.28112e-24)
(0.0280975 5.83674e-05 -2.9124e-24)
(0.0280992 4.22884e-05 -4.63761e-24)
(0.0281002 2.74615e-05 1.00563e-23)
(0.0281005 1.38003e-05 1.12307e-23)
(0.0281002 1.20174e-06 -2.72787e-23)
(0.0280995 -1.04173e-05 1.57347e-23)
(0.0280983 -2.11509e-05 -1.10052e-24)
(0.0280969 -3.10794e-05 -9.17785e-25)
(0.0280952 -4.02797e-05 1.23799e-24)
(0.0280934 -4.88127e-05 -5.71359e-25)
(0.0286743 0.000146649 -3.93271e-24)
(0.0286858 0.000126824 -8.45319e-24)
(0.0286944 0.00010778 4.56332e-24)
(0.0287009 8.97819e-05 1.53827e-23)
(0.0287057 7.29317e-05 -4.29059e-24)
(0.0287093 5.72346e-05 -1.1883e-24)
(0.0287119 4.26509e-05 5.46182e-25)
(0.0287137 2.91122e-05 -4.52239e-24)
(0.0287147 1.65452e-05 1.22351e-23)
(0.0287151 4.86901e-06 -5.40523e-24)
(0.0287149 -5.9908e-06 3.23607e-24)
(0.0287142 -1.61121e-05 -5.11886e-24)
(0.0287131 -2.55544e-05 -5.86251e-24)
(0.0287116 -3.43772e-05 8.78157e-24)
(0.0287099 -4.2627e-05 -3.8396e-24)
(0.0284957 0.000132589 6.23082e-24)
(0.0285078 0.000115704 -1.4312e-23)
(0.0285171 9.92735e-05 2.34756e-24)
(0.0285243 8.35867e-05 2.06135e-23)
(0.0285299 6.87645e-05 -1.99794e-23)
(0.0285342 5.4834e-05 6.93715e-24)
(0.0285375 4.17679e-05 4.44433e-24)
(0.0285399 2.95207e-05 -1.00019e-23)
(0.0285415 1.80344e-05 2.38137e-24)
(0.0285424 7.25998e-06 1.07459e-24)
(0.0285428 -2.85409e-06 -1.03062e-24)
(0.0285427 -1.23402e-05 2.15163e-24)
(0.0285421 -2.12387e-05 -2.63796e-24)
(0.0285411 -2.9601e-05 1.78971e-24)
(0.0285398 -3.74684e-05 -8.30538e-25)
(0.0275643 0.000117265 3.86416e-24)
(0.0275773 0.000103074 -8.1492e-24)
(0.0275873 8.91334e-05 -5.60305e-24)
(0.0275951 7.57046e-05 2.63282e-23)
(0.027601 6.29074e-05 -2.41512e-23)
(0.0276056 5.07708e-05 2.58334e-24)
(0.0276089 3.92843e-05 4.02933e-24)
(0.0276112 2.84137e-05 2.15893e-24)
(0.0276127 1.81276e-05 1.67396e-24)
(0.0276134 8.39101e-06 -7.60815e-24)
(0.0276135 -8.17063e-07 4.89446e-24)
(0.0276131 -9.52834e-06 7.35499e-25)
(0.0276122 -1.77729e-05 -1.6901e-24)
(0.027611 -2.55821e-05 9.29388e-25)
(0.0276093 -3.29791e-05 5.96896e-25)
(0.0260812 0.000101968 9.61119e-24)
(0.0260944 9.01274e-05 -1.70632e-23)
(0.026105 7.841e-05 3.48435e-24)
(0.0261136 6.70376e-05 -8.25948e-24)
(0.0261205 5.61133e-05 -1.06575e-23)
(0.026126 4.56665e-05 3.61718e-23)
(0.0261303 3.56972e-05 -1.3954e-23)
(0.0261336 2.61873e-05 3.8857e-24)
(0.026136 1.71222e-05 -2.12355e-24)
(0.0261376 8.47779e-06 -4.90927e-24)
(0.0261385 2.35954e-07 8.91695e-24)
(0.0261389 -7.64145e-06 -4.37122e-24)
(0.0261386 -1.5166e-05 6.86944e-25)
(0.0261378 -2.2346e-05 2.14736e-25)
(0.0261366 -2.91854e-05 2.30902e-26)
(0.024281 8.86616e-05 3.70045e-24)
(0.0242943 7.87385e-05 -1.91159e-23)
(0.0243053 6.88454e-05 3.31364e-23)
(0.0243143 5.91639e-05 -2.5268e-23)
(0.0243216 4.97785e-05 2.51809e-23)
(0.0243276 4.07228e-05 -8.37402e-24)
(0.0243323 3.20022e-05 -5.7639e-24)
(0.024336 2.36159e-05 -6.22866e-24)
(0.0243388 1.55525e-05 1.07486e-23)
(0.0243408 7.80528e-06 -6.16236e-25)
(0.024342 3.56421e-07 -9.95754e-24)
(0.0243425 -6.79144e-06 -1.0606e-24)
(0.0243424 -1.36421e-05 1.918e-24)
(0.0243418 -2.02002e-05 -3.23408e-25)
(0.0243406 -2.64651e-05 4.67312e-26)
(0.0222997 7.63392e-05 4.92492e-25)
(0.0223131 6.80166e-05 -7.19446e-24)
(0.0223244 5.96589e-05 -4.01376e-24)
(0.0223338 5.14096e-05 3.28117e-23)
(0.0223417 4.33423e-05 -3.22311e-23)
(0.0223481 3.54915e-05 9.41124e-24)
(0.0223533 2.78742e-05 1.58202e-24)
(0.0223574 2.0497e-05 -8.25115e-25)
(0.0223606 1.33631e-05 -3.8261e-24)
(0.0223629 6.47197e-06 1.64254e-23)
(0.0223643 -1.73061e-07 -1.30124e-23)
(0.0223651 -6.56991e-06 -5.09348e-25)
(0.0223652 -1.27161e-05 1.04787e-24)
(0.0223647 -1.86107e-05 6.79533e-25)
(0.0223635 -2.42496e-05 -5.03077e-25)
(0.0202398 6.48625e-05 7.3307e-25)
(0.0202534 5.78736e-05 6.68703e-24)
(0.020265 5.08155e-05 -7.67364e-24)
(0.0202749 4.38005e-05 -5.30403e-24)
(0.0202832 3.68913e-05 3.372e-23)
(0.0202901 3.01226e-05 -2.57889e-23)
(0.0202958 2.35181e-05 -5.94688e-25)
(0.0203004 1.70902e-05 -5.29479e-24)
(0.0203039 1.08508e-05 -4.01985e-25)
(0.0203066 4.80301e-06 7.74447e-25)
(0.0203083 -1.03994e-06 -2.68592e-24)
(0.0203094 -6.68058e-06 2.29504e-24)
(0.0203096 -1.21122e-05 8.27575e-25)
(0.0203092 -1.73286e-05 7.01638e-25)
(0.0203081 -2.23222e-05 6.23906e-25)
(0.018176 5.41727e-05 5.2253e-24)
(0.0181898 4.83071e-05 -8.01179e-24)
(0.0182018 4.23647e-05 -6.42679e-24)
(0.0182121 3.64308e-05 1.96002e-23)
(0.0182208 3.05549e-05 -7.02033e-24)
(0.0182282 2.47709e-05 -9.85455e-24)
(0.0182343 1.91038e-05 3.44945e-24)
(0.0182393 1.35702e-05 7.6671e-24)
(0.0182432 8.18284e-06 -1.2144e-23)
(0.0182462 2.94782e-06 1.19621e-23)
(0.0182482 -2.12225e-06 -6.31831e-24)
(0.0182494 -7.02455e-06 2.65091e-24)
(0.0182497 -1.17495e-05 -3.28549e-24)
(0.0182493 -1.62886e-05 3.15458e-24)
(0.0182482 -2.06325e-05 -7.09913e-25)
(0.0161611 4.42401e-05 -1.01426e-24)
(0.016175 3.9344e-05 -3.51931e-24)
(0.0161872 3.43805e-05 -1.12113e-23)
(0.0161978 2.94093e-05 3.12994e-23)
(0.0162068 2.4467e-05 -5.61462e-24)
(0.0162145 1.95863e-05 -8.81376e-24)
(0.0162208 1.47899e-05 3.04226e-24)
(0.016226 1.00979e-05 -4.41395e-24)
(0.0162301 5.51698e-06 -9.47289e-24)
(0.0162332 1.06817e-06 9.12762e-24)
(0.0162353 -3.25538e-06 4.36222e-25)
(0.0162364 -7.43818e-06 -2.80954e-24)
(0.0162367 -1.14664e-05 3.20898e-24)
(0.0162361 -1.53317e-05 1.75082e-25)
(0.0162347 -1.90249e-05 -2.24962e-25)
(0.0142299 3.51505e-05 3.90324e-24)
(0.0142437 3.11139e-05 5.74076e-24)
(0.0142558 2.70265e-05 -5.35366e-24)
(0.0142663 2.29237e-05 -1.16873e-23)
(0.0142753 1.88338e-05 1.57245e-23)
(0.0142829 1.4787e-05 -1.72029e-23)
(0.0142892 1.08043e-05 -6.59856e-25)
(0.0142943 6.90285e-06 6.66114e-24)
(0.0142983 3.09124e-06 2.31461e-24)
(0.0143012 -6.13276e-07 -4.75188e-24)
(0.014303 -4.21449e-06 3.72378e-26)
(0.0143038 -7.6936e-06 9.58968e-24)
(0.0143037 -1.10382e-05 -3.66098e-24)
(0.0143028 -1.42411e-05 -9.02481e-25)
(0.0143009 -1.72934e-05 -5.35915e-26)
(0.0124034 2.70716e-05 -4.05455e-24)
(0.0124166 2.38088e-05 5.21928e-24)
(0.0124282 2.05114e-05 5.87132e-25)
(0.0124382 1.71951e-05 1.0562e-23)
(0.0124468 1.38848e-05 -8.61042e-24)
(0.012454 1.0607e-05 6.85697e-25)
(0.0124599 7.38057e-06 -9.25049e-25)
(0.0124645 4.21692e-06 -2.70582e-24)
(0.012468 1.13129e-06 2.35457e-24)
(0.0124704 -1.87897e-06 -7.59963e-24)
(0.0124717 -4.79103e-06 5.4532e-25)
(0.0124719 -7.59741e-06 1.81188e-24)
(0.0124712 -1.02904e-05 1.11918e-24)
(0.0124695 -1.28628e-05 4.31142e-25)
(0.012467 -1.53054e-05 1.48634e-25)
(0.0106926 2.01592e-05 3.0031e-24)
(0.0107048 1.75908e-05 -2.37585e-24)
(0.0107154 1.49998e-05 -1.04468e-23)
(0.0107246 1.23894e-05 9.80891e-24)
(0.0107323 9.78368e-06 1.37056e-23)
(0.0107387 7.20442e-06 -3.47496e-24)
(0.0107439 4.6661e-06 -7.08588e-24)
(0.0107478 2.17865e-06 -9.93555e-24)
(0.0107505 -2.46073e-07 7.49098e-24)
(0.0107521 -2.60947e-06 4.35237e-25)
(0.0107527 -4.88952e-06 -1.67656e-24)
(0.0107522 -7.08118e-06 -4.4736e-25)
(0.0107507 -9.17884e-06 9.21165e-25)
(0.0107483 -1.11757e-05 -3.60337e-26)
(0.0107449 -1.30632e-05 -1.7155e-25)
(0.00910196 1.4484e-05 -1.88977e-24)
(0.00911274 1.25258e-05 -1.34699e-24)
(0.00912212 1.0553e-05 1.63971e-24)
(0.00913012 8.56262e-06 -5.20653e-24)
(0.00913677 6.57837e-06 1.70888e-23)
(0.00914216 4.61598e-06 -2.26684e-23)
(0.00914632 2.68577e-06 2.22455e-23)
(0.00914931 7.9791e-07 -9.42431e-24)
(0.00915117 -1.04526e-06 2.14249e-24)
(0.00915194 -2.83317e-06 2.71657e-26)
(0.00915166 -4.55515e-06 -1.67199e-24)
(0.0091504 -6.20652e-06 5.53832e-25)
(0.00914816 -7.78205e-06 -1.26222e-24)
(0.00914502 -9.27573e-06 -1.62303e-25)
(0.00914099 -1.06806e-05 8.06189e-26)
(0.00763172 1.00108e-05 -9.18018e-25)
(0.00764091 8.57179e-06 2.35121e-25)
(0.00764885 7.1239e-06 5.11491e-25)
(0.00765553 5.66242e-06 -2.37586e-24)
(0.00766098 4.20888e-06 -1.07335e-24)
(0.00766526 2.7727e-06 9.28537e-24)
(0.0076684 1.36145e-06 -5.46023e-24)
(0.00767045 -1.55777e-08 7.82323e-25)
(0.00767145 -1.36104e-06 -7.57464e-25)
(0.00767143 -2.66146e-06 -8.15374e-25)
(0.00767044 -3.91149e-06 -2.33758e-25)
(0.00766852 -5.10705e-06 1.53734e-24)
(0.00766569 -6.24373e-06 3.74164e-25)
(0.00766203 -7.3166e-06 -9.01465e-25)
(0.00765754 -8.32035e-06 -1.34488e-25)
(0.00627959 6.62019e-06 -3.33708e-25)
(0.00628714 5.60684e-06 -1.10516e-25)
(0.00629361 4.58996e-06 -5.3822e-24)
(0.00629895 3.56445e-06 1.4231e-24)
(0.00630321 2.54781e-06 -3.87771e-24)
(0.00630642 1.54388e-06 2.71035e-24)
(0.00630862 5.58853e-07 5.13853e-24)
(0.00630983 -4.00605e-07 3.85259e-24)
(0.0063101 -1.33718e-06 -5.40012e-24)
(0.00630945 -2.2409e-06 1.6279e-24)
(0.00630793 -3.10753e-06 1.37922e-24)
(0.00630557 -3.93399e-06 -1.96325e-24)
(0.00630241 -4.7171e-06 1.04553e-24)
(0.0062985 -5.45291e-06 -6.94722e-26)
(0.00629386 -6.13757e-06 2.52272e-25)
(0.00504159 4.14719e-06 -1.30633e-24)
(0.00504756 3.46965e-06 -1.79046e-24)
(0.00505263 2.79426e-06 -3.26149e-25)
(0.00505673 2.11489e-06 4.45453e-24)
(0.0050599 1.44381e-06 -3.15463e-24)
(0.00506217 7.80806e-07 -6.1345e-25)
(0.00506357 1.32084e-07 5.08133e-24)
(0.00506411 -4.99427e-07 1.27759e-26)
(0.00506384 -1.1155e-06 -1.03e-24)
(0.00506279 -1.70902e-06 -3.75448e-24)
(0.00506097 -2.27689e-06 4.26039e-25)
(0.00505844 -2.81695e-06 2.56166e-24)
(0.00505521 -3.32711e-06 -3.29218e-25)
(0.00505135 -3.80433e-06 -3.38523e-25)
(0.00504686 -4.24579e-06 2.21602e-25)
(0.00391257 2.41533e-06 -2.85331e-25)
(0.00391711 1.99179e-06 1.68779e-26)
(0.0039209 1.57597e-06 2.13543e-24)
(0.00392389 1.15958e-06 1.42994e-24)
(0.00392613 7.49708e-07 -9.84804e-25)
(0.00392763 3.44206e-07 -2.4373e-24)
(0.00392841 -5.11997e-08 9.86462e-25)
(0.00392849 -4.37625e-07 -4.13501e-24)
(0.0039279 -8.12259e-07 3.18418e-24)
(0.00392666 -1.17433e-06 1.62898e-24)
(0.00392479 -1.51984e-06 -1.63236e-26)
(0.00392233 -1.8476e-06 -1.76649e-24)
(0.00391931 -2.15627e-06 3.15496e-25)
(0.00391576 -2.44359e-06 -2.32695e-25)
(0.00391172 -2.70735e-06 1.13992e-25)
(0.00288661 1.2584e-06 -5.25011e-25)
(0.00288985 1.01517e-06 1.07539e-26)
(0.00289253 7.84726e-07 1.71109e-24)
(0.00289458 5.56243e-07 -1.06969e-24)
(0.00289606 3.32689e-07 4.40212e-24)
(0.00289696 1.12927e-07 -8.01942e-24)
(0.0028973 -1.05353e-07 6.48296e-24)
(0.00289712 -3.12814e-07 -5.40386e-24)
(0.0028964 -5.19859e-07 3.90344e-24)
(0.00289518 -7.15956e-07 -2.49636e-24)
(0.00289348 -9.0334e-07 8.57034e-25)
(0.00289132 -1.0806e-06 1.23383e-25)
(0.00288872 -1.24674e-06 1.91162e-25)
(0.00288573 -1.4001e-06 -2.34271e-25)
(0.00288235 -1.53884e-06 4.70948e-26)
(0.00195724 5.36856e-07 7.96094e-25)
(0.00195935 4.09536e-07 8.60272e-25)
(0.00196106 2.9958e-07 -3.67781e-24)
(0.00196234 1.93502e-07 2.68976e-24)
(0.00196321 9.16483e-08 -2.64358e-26)
(0.00196368 -4.37201e-09 6.91858e-25)
(0.00196376 -1.05243e-07 -8.44789e-25)
(0.00196346 -1.9964e-07 -1.76267e-24)
(0.00196279 -2.90564e-07 1.75094e-24)
(0.00196177 -3.76355e-07 1.80289e-25)
(0.0019604 -4.57351e-07 -1.38531e-24)
(0.00195871 -5.32674e-07 4.9735e-25)
(0.00195672 -6.0301e-07 2.9074e-25)
(0.00195445 -6.67531e-07 -3.4785e-26)
(0.00195191 -7.24705e-07 -3.16577e-26)
(0.0011177 1.58091e-07 -8.02794e-25)
(0.00111883 1.11481e-07 2.45466e-24)
(0.00111973 8.11905e-08 1.46342e-24)
(0.00112037 5.16346e-08 -2.63502e-24)
(0.00112078 2.24837e-08 -3.08732e-25)
(0.00112096 -4.96218e-09 -2.7342e-25)
(0.00112091 -3.65679e-08 8.33002e-25)
(0.00112063 -6.56704e-08 -1.41106e-24)
(0.00112014 -9.36711e-08 1.91485e-24)
(0.00111944 -1.20599e-07 -9.37312e-25)
(0.00111854 -1.44724e-07 -6.0352e-25)
(0.00111746 -1.64482e-07 3.6256e-25)
(0.00111619 -1.8597e-07 -4.20606e-25)
(0.00111476 -2.09422e-07 4.18002e-25)
(0.00111317 -2.33552e-07 -6.85826e-26)
(0.000361192 5.91063e-08 -5.72763e-27)
(0.000361465 1.13386e-07 4.76464e-25)
(0.000361672 1.5783e-07 5.44853e-25)
(0.000361803 1.86934e-07 -8.54089e-25)
(0.000361864 2.02694e-07 1.77323e-24)
(0.000361855 2.07173e-07 -1.92528e-24)
(0.000361775 2.01983e-07 1.26121e-25)
(0.000361626 1.89343e-07 1.0575e-24)
(0.000361408 1.7023e-07 -1.46149e-24)
(0.000361125 1.45979e-07 -2.61539e-25)
(0.000360778 1.18815e-07 9.98345e-25)
(0.00036037 9.06107e-08 -4.38992e-25)
(0.000359905 5.76803e-08 -1.58426e-25)
(0.000359387 2.03337e-08 1.31788e-25)
(0.00035882 -2.03381e-08 -5.67232e-27)
(0.000904476 -0.000239006 8.00488e-26)
(0.0010364 -0.000159967 2.04024e-24)
(0.00125856 -7.87052e-05 -5.85236e-24)
(0.00148597 -1.32527e-05 8.47922e-24)
(0.00170481 3.79848e-05 -3.18038e-24)
(0.00191985 7.57343e-05 -3.04065e-24)
(0.00213101 0.000102434 3.44828e-24)
(0.00233887 0.000120106 -6.7942e-24)
(0.00254413 0.000130452 4.4344e-25)
(0.00274739 0.000134944 4.26867e-24)
(0.00294918 0.00013485 -8.12038e-25)
(0.00315001 0.000131299 8.75916e-25)
(0.00335043 0.000125346 -8.58739e-26)
(0.00355102 0.000118031 5.42435e-25)
(0.00375262 0.000110437 -1.9905e-24)
(0.00395632 0.000103756 1.08884e-24)
(0.00416385 9.92846e-05 -3.35793e-25)
(0.0043776 9.84287e-05 2.62386e-26)
(0.00460142 0.000102309 7.79204e-25)
(0.00484004 0.00011145 -4.8686e-25)
(0.00509989 0.000124077 5.96551e-26)
(0.0053859 0.000135327 -5.21247e-26)
(0.00567622 0.000134131 9.92384e-26)
(0.0059341 0.000113208 3.83384e-25)
(0.00614678 7.32965e-05 -6.88136e-25)
(0.00631406 1.7181e-05 -4.61912e-25)
(0.00643747 -5.20692e-05 2.55685e-26)
(0.0065192 -0.000131785 1.12324e-24)
(0.00656095 -0.000219422 1.42628e-24)
(0.0065637 -0.000312066 -2.76437e-24)
(0.00652781 -0.000405984 1.89675e-24)
(0.00645343 -0.00049639 -1.35411e-24)
(0.00634085 -0.000577443 1.65149e-25)
(0.00619075 -0.000642379 -1.14433e-24)
(0.00600433 -0.000683665 1.10182e-24)
(0.00578323 -0.000693032 7.35552e-24)
(0.00552945 -0.000661251 -2.01936e-24)
(0.00524529 -0.000577406 1.89511e-24)
(0.00493346 -0.000427503 1.01662e-24)
(0.00459767 -0.000192913 -1.0876e-23)
(0.00424167 0.000148153 -1.32738e-25)
(0.00387038 0.000609031 4.58179e-24)
(0.00347243 0.00115925 1.45837e-24)
(0.00306574 0.00167699 -6.42063e-24)
(0.0028354 0.00179722 -3.18273e-25)
(0.00170222 -0.000318842 -2.34625e-24)
(0.00175753 -0.000274185 -3.28809e-24)
(0.00189494 -0.000196007 6.90427e-24)
(0.00206774 -0.000123492 3.19098e-24)
(0.0022517 -6.21133e-05 -1.11541e-23)
(0.00244213 -1.40085e-05 1.18692e-23)
(0.00263493 2.22056e-05 -4.25006e-24)
(0.00282827 4.83834e-05 3.36291e-24)
(0.00302154 6.62679e-05 -4.44692e-24)
(0.00321452 7.74359e-05 5.13962e-26)
(0.00340727 8.32628e-05 -2.34808e-24)
(0.00359996 8.49713e-05 4.65301e-24)
(0.00379292 8.36881e-05 -2.56945e-24)
(0.00398658 8.05054e-05 -2.29955e-24)
(0.0041816 7.65395e-05 -1.51825e-24)
(0.00437893 7.29896e-05 2.9151e-24)
(0.00458011 7.11418e-05 -3.43398e-25)
(0.00478729 7.23645e-05 1.50459e-24)
(0.00500399 7.77429e-05 2.32789e-25)
(0.00523455 8.77887e-05 -4.43879e-25)
(0.005485 0.000100838 -1.83517e-25)
(0.00576007 0.000112366 -1.10295e-25)
(0.00603925 0.000111865 5.37294e-25)
(0.00628788 9.2549e-05 6.57316e-25)
(0.00649386 5.52143e-05 -5.91499e-25)
(0.00665683 2.52979e-06 -2.82204e-24)
(0.00677799 -6.25062e-05 3.76104e-24)
(0.00685919 -0.000137195 -2.55924e-24)
(0.00690189 -0.000218879 8.54784e-25)
(0.00690698 -0.000304512 -4.07795e-25)
(0.00687489 -0.000390256 2.66863e-24)
(0.00680597 -0.000471284 -2.59826e-24)
(0.00670085 -0.000541774 -1.24846e-25)
(0.00656067 -0.000595038 5.89754e-24)
(0.00638726 -0.000623649 -1.01771e-23)
(0.00618318 -0.000619459 2.77672e-24)
(0.00595173 -0.000573402 1.30995e-23)
(0.00569722 -0.000474883 -3.60071e-24)
(0.00542547 -0.00031062 -1.05242e-23)
(0.00514552 -6.31579e-05 -6.3361e-24)
(0.00487088 0.000287963 1.44467e-23)
(0.00462414 0.000756572 -1.38811e-23)
(0.00442889 0.00131247 -3.0123e-24)
(0.00432495 0.00182286 9.04841e-24)
(0.00435449 0.00188578 2.84935e-24)
(0.00264413 -0.000327159 -2.66673e-26)
(0.0026526 -0.000322454 -3.76417e-24)
(0.00271148 -0.00027579 7.31444e-24)
(0.00282041 -0.000213513 6.12549e-24)
(0.00295565 -0.000152626 -1.00198e-23)
(0.00310851 -0.000100107 2.07866e-25)
(0.00327196 -5.76002e-05 9.59369e-25)
(0.00344171 -2.46589e-05 1.03543e-23)
(0.00361543 -1.585e-07 -1.2261e-23)
(0.00379176 1.72242e-05 7.51973e-24)
(0.00397 2.8775e-05 2.25746e-24)
(0.00414979 3.56973e-05 -1.24755e-23)
(0.00433109 3.91262e-05 4.50365e-24)
(0.00451404 4.01678e-05 1.78838e-24)
(0.00469909 3.99476e-05 -3.70418e-24)
(0.00488695 3.96574e-05 5.98095e-24)
(0.00507894 4.05625e-05 -4.19558e-24)
(0.00527691 4.39854e-05 -7.26849e-26)
(0.00548403 5.09717e-05 3.25754e-25)
(0.00570417 6.20173e-05 3.43538e-25)
(0.00594294 7.55683e-05 4.48694e-26)
(0.00620476 8.74367e-05 1.94576e-25)
(0.00647059 8.76732e-05 -5.42334e-25)
(0.00670801 6.99996e-05 1.61586e-24)
(0.00690561 3.52892e-05 -2.54771e-24)
(0.00706288 -1.38929e-05 1.46488e-24)
(0.00718068 -7.46072e-05 -3.27801e-24)
(0.00726047 -0.000144123 4.39699e-24)
(0.00730349 -0.000219672 -3.69789e-24)
(0.00731053 -0.000298076 5.46851e-25)
(0.0072821 -0.000375398 7.56492e-25)
(0.00721879 -0.00044678 3.08547e-24)
(0.00712156 -0.000506453 -7.46165e-25)
(0.00699207 -0.000547864 3.0649e-24)
(0.00683285 -0.000563804 -9.06362e-24)
(0.00664739 -0.000546456 1.61506e-23)
(0.00644038 -0.000487284 -1.11849e-23)
(0.00621809 -0.000376662 1.67815e-23)
(0.00598933 -0.000203228 -3.21465e-23)
(0.00576746 4.68353e-05 1.22664e-23)
(0.00557289 0.000387866 4.26738e-24)
(0.00543713 0.000825579 6.65208e-24)
(0.00539459 0.00132323 -8.2616e-24)
(0.005468 0.00175037 2.30005e-24)
(0.00562566 0.00179007 -1.38282e-24)
(0.00371319 -0.000311073 -9.94159e-25)
(0.00369545 -0.000331174 -1.51628e-24)
(0.00370544 -0.000313224 -6.47705e-24)
(0.00375302 -0.000273593 1.78771e-24)
(0.00383517 -0.000223378 1.18649e-24)
(0.00394208 -0.00017417 5.10737e-24)
(0.00406687 -0.000130581 -1.0658e-23)
(0.00420413 -9.42648e-05 4.07651e-24)
(0.00435022 -6.53142e-05 1.35149e-23)
(0.00450271 -4.30912e-05 -3.59812e-24)
(0.00466003 -2.66821e-05 -3.36451e-24)
(0.00482119 -1.50817e-05 -5.34099e-25)
(0.00498566 -7.25946e-06 1.74516e-24)
(0.00515323 -2.16857e-06 -3.40521e-24)
(0.00532404 1.27724e-06 7.88366e-25)
(0.00549852 4.22996e-06 -2.74337e-25)
(0.00567771 7.90983e-06 -1.61702e-24)
(0.00586312 1.35767e-05 6.27059e-25)
(0.00605754 2.22236e-05 2.79739e-24)
(0.00626433 3.43215e-05 -3.28768e-25)
(0.00648861 4.84202e-05 -6.23914e-25)
(0.00673441 6.06663e-05 -1.71099e-25)
(0.00698424 6.16707e-05 -9.56315e-25)
(0.00720812 4.5679e-05 -5.52225e-26)
(0.00739532 1.36527e-05 -2.26086e-24)
(0.00754517 -3.19334e-05 3.90752e-24)
(0.00765816 -8.81939e-05 -3.27855e-24)
(0.00773539 -0.000152365 6.22774e-24)
(0.00777784 -0.00022157 -5.07937e-24)
(0.00778622 -0.000292515 1.28214e-24)
(0.00776113 -0.000361193 1.74463e-24)
(0.0077034 -0.000422755 -1.84218e-25)
(0.00761437 -0.000471553 -2.97478e-25)
(0.00749623 -0.000501274 -1.06429e-24)
(0.00735219 -0.000505099 1.32364e-24)
(0.00718668 -0.000475809 -5.02518e-24)
(0.00700564 -0.000405819 2.37319e-23)
(0.006817 -0.000287123 -1.2591e-23)
(0.00663171 -0.000111288 -4.33833e-25)
(0.00646541 0.000130261 -2.84975e-23)
(0.00634038 0.000443695 2.15944e-23)
(0.00628712 0.000824855 -7.79682e-24)
(0.00633547 0.00123599 1.969e-24)
(0.00649061 0.00157594 9.59901e-24)
(0.00670538 0.0016526 -2.26879e-24)
(0.00490466 -0.000285513 -4.1082e-24)